/*--------------------------------*- C++ -*----------------------------------*\
  =========                 |
  \\      /  F ield         | OpenFOAM: The Open Source CFD Toolbox
   \\    /   O peration     | Website:  https://openfoam.org
    \\  /    A nd           | Version:  10
     \\/     M anipulation  |
\*---------------------------------------------------------------------------*/
FoamFile
{
    format      ascii;
    class       surfaceScalarField;
    location    "0.3";
    object      phi;
}
// * * * * * * * * * * * * * * * * * * * * * * * * * * * * * * * * * * * * * //

dimensions      [0 3 -1 0 0 0 0];

internalField   nonuniform List<scalar> 
24170
(
6.91188e-12
-6.91188e-12
1.35053e-11
-6.59346e-12
1.97052e-11
-6.19981e-12
2.53624e-11
-5.65722e-12
3.02335e-11
-4.87114e-12
3.3962e-11
-3.72852e-12
3.60649e-11
-2.10284e-12
3.59287e-11
1.36167e-13
3.28214e-11
3.10729e-12
2.59253e-11
6.89613e-12
1.43955e-11
1.15298e-11
-2.56237e-12
1.69579e-11
-2.56271e-11
2.30647e-11
-5.53909e-11
2.97639e-11
-9.27006e-11
3.73096e-11
-1.40014e-10
4.7313e-11
-2.07162e-10
6.71484e-11
1.38063e-10
-3.45225e-10
7.41e-12
-1.43219e-11
1.44814e-11
-1.36649e-11
2.11361e-11
-1.28544e-11
2.7217e-11
-1.17381e-11
3.24664e-11
-1.01206e-11
3.65059e-11
-7.76804e-12
3.88217e-11
-4.41862e-12
3.87597e-11
1.98192e-13
3.55369e-11
6.33007e-12
2.82757e-11
1.41573e-11
1.6066e-11
2.37395e-11
-1.94969e-12
3.49736e-11
-2.64956e-11
4.76106e-11
-5.81592e-11
6.14275e-11
-9.76304e-11
7.67807e-11
-1.46528e-10
9.62106e-11
-2.09039e-10
1.29659e-10
2.12741e-10
-2.83717e-10
7.9465e-12
-2.22684e-11
1.55366e-11
-2.1255e-11
2.26921e-11
-2.001e-11
2.92511e-11
-1.82971e-11
3.49451e-11
-1.58145e-11
3.93774e-11
-1.22003e-11
4.20064e-11
-7.04767e-12
4.21392e-11
6.53968e-14
3.89408e-11
9.52849e-12
3.14679e-11
2.16302e-11
1.87336e-11
3.64737e-11
-1.96736e-13
5.3904e-11
-2.6097e-11
7.35109e-11
-5.95063e-11
9.48368e-11
-1.00762e-10
1.18037e-10
-1.50075e-10
1.45523e-10
-2.06145e-10
1.85729e-10
2.58962e-10
-2.52366e-10
8.52466e-12
-3.0793e-11
1.66789e-11
-2.94092e-11
2.43887e-11
-2.77198e-11
3.14919e-11
-2.54003e-11
3.77143e-11
-2.20369e-11
4.26467e-11
-1.71327e-11
4.57254e-11
-1.01263e-11
4.6222e-11
-4.31276e-13
4.32499e-11
1.25006e-11
3.57939e-11
2.90863e-11
2.27753e-11
4.94922e-11
3.16054e-12
7.35188e-11
-2.38916e-11
1.00563e-10
-5.8855e-11
1.298e-10
-1.01622e-10
1.60804e-10
-1.50967e-10
1.94868e-10
-2.02155e-10
2.36917e-10
2.94698e-10
-2.37891e-10
9.14765e-12
-3.99407e-11
1.79165e-11
-3.8178e-11
2.62428e-11
-3.60461e-11
3.39699e-11
-3.31274e-11
4.08258e-11
-2.88929e-11
4.63974e-11
-2.27043e-11
5.0107e-11
-1.38359e-11
5.11983e-11
-1.52251e-12
4.87349e-11
1.49639e-11
4.16237e-11
3.61974e-11
2.86755e-11
6.24404e-11
8.72321e-12
9.34711e-11
-1.91851e-11
1.28471e-10
-5.54976e-11
1.66113e-10
-9.97132e-11
2.05019e-10
-1.49512e-10
2.44667e-10
-1.98671e-10
2.86076e-10
3.29317e-10
-2.3329e-10
9.81813e-12
-4.97588e-11
1.92572e-11
-4.76171e-11
2.82714e-11
-4.50603e-11
3.67179e-11
-4.15739e-11
4.43376e-11
-3.65126e-11
5.07253e-11
-2.9092e-11
5.53026e-11
-1.84132e-11
5.72963e-11
-3.51619e-12
5.57273e-11
1.65329e-11
4.942e-11
4.25048e-11
3.70507e-11
7.48098e-11
1.7268e-11
1.13254e-10
-1.10746e-11
1.56814e-10
-4.85209e-11
2.03559e-10
-9.43795e-11
2.50878e-10
-1.45743e-10
2.9603e-10
-1.96128e-10
3.36461e-10
3.68185e-10
-2.34996e-10
1.05375e-11
-6.02964e-11
2.07074e-11
-5.7787e-11
3.04906e-11
-5.48435e-11
3.97692e-11
-5.08524e-11
4.83109e-11
-4.50543e-11
5.57361e-11
-3.65172e-11
6.14839e-11
-2.4161e-11
6.47826e-11
-6.81489e-12
6.4624e-11
1.66914e-11
5.97504e-11
4.73784e-11
4.86778e-11
8.58824e-11
2.97993e-11
1.32132e-10
1.63691e-12
1.84976e-10
-3.66747e-11
2.41871e-10
-8.46052e-11
2.98809e-10
-1.39199e-10
3.50625e-10
-1.94258e-10
3.9152e-10
4.15215e-10
-2.41288e-10
1.13049e-11
-7.16012e-11
2.22694e-11
-6.87515e-11
3.29121e-11
-6.54862e-11
4.31527e-11
-6.1093e-11
5.28053e-11
-5.47069e-11
6.15386e-11
-4.52506e-11
6.88359e-11
-3.14583e-11
7.39553e-11
-1.19342e-11
7.58846e-11
1.47621e-11
7.32962e-11
4.99668e-11
6.45237e-11
9.46549e-11
4.76169e-11
1.49039e-10
2.05688e-11
2.12024e-10
-1.81584e-11
2.80598e-10
-6.87131e-11
3.49363e-10
-1.28668e-10
4.10579e-10
-1.92247e-10
4.55099e-10
4.74416e-10
-2.51447e-10
1.21149e-11
-8.37161e-11
2.39388e-11
-8.05754e-11
3.55386e-11
-7.70859e-11
4.68866e-11
-7.2441e-11
5.78683e-11
-6.56887e-11
6.82321e-11
-5.56144e-11
7.75416e-11
-4.07677e-11
8.51265e-11
-1.95191e-11
9.00156e-11
9.87299e-12
9.08458e-11
4.91365e-11
8.57669e-11
9.97338e-11
7.23966e-11
1.62409e-10
4.79468e-11
2.36474e-10
9.71005e-12
3.18835e-10
-4.3895e-11
4.02968e-10
-1.11743e-10
4.78428e-10
-1.88576e-10
5.31932e-10
5.51183e-10
-2.65343e-10
1.29548e-11
-9.66709e-11
2.56995e-11
-9.33202e-11
3.83567e-11
-8.97431e-11
5.0967e-11
-8.50513e-11
6.35201e-11
-7.82418e-11
7.58843e-11
-6.79786e-11
8.77521e-11
-5.26356e-11
9.8586e-11
-3.03531e-11
1.07529e-10
9.30144e-13
1.13259e-10
4.34062e-11
1.13792e-10
9.92013e-11
1.06265e-10
1.69936e-10
8.68429e-11
2.55896e-10
5.09958e-11
3.54682e-10
-5.42317e-12
4.59387e-10
-8.39466e-11
5.56951e-10
-1.80437e-10
6.28422e-10
6.54019e-10
-2.83273e-10
1.37993e-11
-1.1047e-10
2.75167e-11
-1.07038e-10
4.13268e-11
-1.03553e-10
5.53515e-11
-9.90761e-11
6.97281e-11
-9.26183e-11
8.44959e-11
-8.27464e-11
9.95384e-11
-6.76781e-11
1.14535e-10
-4.53493e-11
1.28857e-10
-1.33918e-11
1.4137e-10
3.08925e-11
1.50109e-10
9.04626e-11
1.51815e-10
1.6823e-10
1.41433e-10
2.66278e-10
1.11871e-10
3.84244e-10
5.47188e-11
5.16539e-10
-3.68719e-11
6.48542e-10
-1.6222e-10
7.53771e-10
7.97748e-10
-3.0595e-10
1.22783e-11
-1.22749e-10
2.46456e-11
-1.19405e-10
3.72642e-11
-1.16172e-10
5.03021e-11
-1.12114e-10
6.40358e-11
-1.06352e-10
7.86782e-11
-9.73889e-11
9.43346e-11
-8.33345e-11
1.10984e-10
-6.19987e-11
1.28401e-10
-3.08085e-11
1.45962e-10
1.33311e-11
1.6228e-10
7.41445e-11
1.74584e-10
1.55926e-10
1.77818e-10
2.63044e-10
1.63604e-10
3.98458e-10
1.19803e-10
5.60341e-10
3.25603e-11
7.35785e-10
-1.05734e-10
8.92065e-10
9.72568e-10
-2.80554e-10
1.46723e-11
-1.37421e-10
2.97279e-11
-1.3446e-10
4.52956e-11
-1.31739e-10
6.16288e-11
-1.28447e-10
7.92957e-11
-1.24019e-10
9.87992e-11
-1.16892e-10
1.20549e-10
-1.05085e-10
1.449e-10
-8.63495e-11
1.72102e-10
-5.80104e-11
2.02096e-10
-1.66633e-11
2.34042e-10
4.21987e-11
2.65382e-10
1.24586e-10
2.90179e-10
2.38248e-10
2.96492e-10
3.92144e-10
2.63206e-10
5.93626e-10
1.59001e-10
8.39989e-10
-4.79206e-11
1.09899e-09
1.2766e-09
-3.51957e-10
1.71748e-11
-1.54596e-10
3.54305e-11
-1.52716e-10
5.45639e-11
-1.50873e-10
7.48739e-11
-1.48757e-10
9.7508e-11
-1.46653e-10
1.23453e-10
-1.42837e-10
1.53614e-10
-1.35246e-10
1.89012e-10
-1.21748e-10
2.30852e-10
-9.98507e-11
2.80425e-10
-6.62361e-11
3.38697e-10
-1.60734e-11
4.05257e-10
5.80264e-11
4.75906e-10
1.67598e-10
5.3757e-10
3.3048e-10
5.58542e-10
5.72654e-10
4.73174e-10
9.25358e-10
1.71079e-10
1.40108e-09
1.89421e-09
-4.46523e-10
1.91419e-11
-1.73738e-10
4.12612e-11
-1.74835e-10
6.4591e-11
-1.74203e-10
8.92249e-11
-1.73391e-10
1.17681e-10
-1.75109e-10
1.51674e-10
-1.7683e-10
1.9277e-10
-1.76342e-10
2.42995e-10
-1.71973e-10
3.05165e-10
-1.6202e-10
3.83176e-10
-1.44247e-10
4.82205e-10
-1.15103e-10
6.08587e-10
-6.83553e-11
7.68534e-10
7.6514e-12
9.6313e-10
1.35884e-10
1.17205e-09
3.63733e-10
1.30427e-09
7.93142e-10
1.05386e-09
1.65149e-09
3.46137e-09
-5.13304e-10
1.83459e-11
-1.92083e-10
4.60214e-11
-2.02511e-10
7.42464e-11
-2.02428e-10
1.01915e-10
-2.01059e-10
1.3596e-10
-2.09155e-10
1.78757e-10
-2.19627e-10
2.32281e-10
-2.29866e-10
2.99598e-10
-2.3929e-10
3.85462e-10
-2.47884e-10
4.9732e-10
-2.56105e-10
6.46927e-10
-2.64709e-10
8.53374e-10
-2.74802e-10
1.14906e-09
-2.88032e-10
1.59191e-09
-3.0697e-10
2.29149e-09
-3.35843e-10
3.46653e-09
-3.81905e-10
5.57594e-09
-4.57921e-10
-5.86113e-10
9.62343e-09
3.25519e-07
1.74229e-07
2.77611e-07
4.77059e-08
2.65037e-07
1.23719e-08
2.64465e-07
3.70857e-10
2.65765e-07
-1.50918e-09
2.6794e-07
-2.3951e-09
2.70615e-07
-2.90503e-09
2.7358e-07
-3.20383e-09
2.76717e-07
-3.3849e-09
2.79973e-07
-3.51196e-09
2.83337e-07
-3.62872e-09
2.86831e-07
-3.76878e-09
2.90507e-07
-3.96396e-09
2.94451e-07
-4.25146e-09
2.98797e-07
-4.68207e-09
3.03747e-07
-5.33136e-09
3.09605e-07
-6.3157e-09
-7.815e-09
3.16833e-07
9.10125e-08
8.32162e-08
9.31595e-08
4.55589e-08
8.20276e-08
2.35038e-08
7.0474e-08
1.19244e-08
6.28284e-08
6.13647e-09
5.74879e-08
2.94543e-09
5.3555e-08
1.02785e-09
5.05321e-08
-1.80944e-10
4.80518e-08
-9.04551e-10
4.59846e-08
-1.44475e-09
4.42278e-08
-1.872e-09
4.26919e-08
-2.23286e-09
4.12858e-08
-2.55784e-09
3.98996e-08
-2.86522e-09
3.83788e-08
-3.16134e-09
3.64845e-08
-3.43702e-09
3.38282e-08
-3.6594e-09
-3.75755e-09
2.97708e-08
4.02515e-08
4.29647e-08
5.53913e-08
3.0419e-08
5.87502e-08
2.01449e-08
5.76109e-08
1.30638e-08
5.52914e-08
8.45597e-09
5.27962e-08
5.44058e-09
5.04042e-08
3.41986e-09
4.81946e-08
2.02859e-09
4.62469e-08
1.04321e-09
4.4484e-08
3.18172e-10
4.28264e-08
-2.14424e-10
4.12028e-08
-6.09252e-10
3.95675e-08
-9.22563e-10
3.78698e-08
-1.16751e-09
3.60589e-08
-1.35051e-09
3.40926e-08
-1.47072e-09
3.19563e-08
-1.52302e-09
-1.50172e-09
2.97004e-08
1.55474e-08
2.74173e-08
2.45389e-08
2.14276e-08
2.89264e-08
1.57574e-08
3.07063e-08
1.1284e-08
3.11565e-08
8.00575e-09
3.09397e-08
5.6574e-09
3.03842e-08
3.9753e-09
2.96545e-08
2.7583e-09
2.8833e-08
1.86474e-09
2.79529e-08
1.19823e-09
2.70423e-08
6.96154e-10
2.61186e-08
3.14521e-10
2.51714e-08
2.45759e-11
2.41814e-08
-1.77479e-10
2.31469e-08
-3.16053e-10
2.20733e-08
-3.9711e-10
2.09743e-08
-4.23967e-10
-4.00556e-10
1.98731e-08
8.78832e-09
1.8629e-08
1.4856e-08
1.53599e-08
1.85961e-08
1.20173e-08
2.07248e-08
9.1553e-09
2.1833e-08
6.8975e-09
2.23101e-08
5.18032e-09
2.23933e-08
3.89212e-09
2.22247e-08
2.92691e-09
2.18898e-08
2.19958e-09
2.14402e-08
1.64787e-09
2.0908e-08
1.22837e-09
2.03126e-08
9.09854e-10
1.96655e-08
6.71695e-10
1.89862e-08
5.01875e-10
1.82811e-08
3.89045e-10
1.75551e-08
3.28835e-10
1.68163e-08
3.1491e-10
3.49277e-10
1.60664e-08
5.54976e-09
1.30792e-08
9.7606e-09
1.11491e-08
1.2688e-08
9.0899e-09
1.46088e-08
7.23449e-09
1.58076e-08
5.69863e-09
1.65052e-08
4.48273e-09
1.68546e-08
3.54274e-09
1.69586e-08
2.82294e-09
1.68879e-08
2.27029e-09
1.66905e-08
1.84524e-09
1.63972e-08
1.52168e-09
1.60309e-08
1.2761e-09
1.56097e-08
1.09296e-09
1.51437e-08
9.67867e-10
1.46471e-08
8.85629e-10
1.41159e-08
8.60037e-10
1.35666e-08
8.64139e-10
9.73427e-10
1.29425e-08
3.76509e-09
9.31412e-09
6.7875e-09
8.12668e-09
9.04489e-09
6.8325e-09
1.06506e-08
5.62881e-09
1.17496e-08
4.59961e-09
1.24697e-08
3.76261e-09
1.29062e-08
3.10622e-09
1.3127e-08
2.60222e-09
1.31871e-08
2.21012e-09
1.31289e-08
1.90349e-09
1.29723e-08
1.67831e-09
1.27375e-08
1.51082e-09
1.24477e-08
1.38281e-09
1.20879e-08
1.32764e-09
1.16998e-08
1.27377e-09
1.11884e-08
1.37141e-09
1.06832e-08
1.36932e-09
2.11278e-09
9.54387e-09
2.67723e-09
6.63689e-09
4.90557e-09
5.89833e-09
6.64806e-09
5.09002e-09
7.95195e-09
4.32492e-09
8.89628e-09
3.65528e-09
9.55937e-09
3.09952e-09
9.99903e-09
2.66656e-09
1.02518e-08
2.34948e-09
1.03614e-08
2.10049e-09
1.03727e-08
1.89221e-09
1.02801e-08
1.77089e-09
1.00926e-08
1.6983e-09
9.868e-09
1.60743e-09
9.45962e-09
1.73601e-09
9.08637e-09
1.64702e-09
8.05155e-09
2.40622e-09
7.44416e-09
1.97672e-09
4.26664e-10
9.13027e-09
1.95999e-09
4.6769e-09
3.63106e-09
4.22726e-09
4.9777e-09
3.74338e-09
6.01822e-09
3.28439e-09
6.79893e-09
2.87458e-09
7.37362e-09
2.52483e-09
7.7772e-09
2.26298e-09
8.01148e-09
2.1152e-09
8.10971e-09
2.00226e-09
8.14353e-09
1.85839e-09
8.05042e-09
1.864e-09
7.78106e-09
1.96766e-09
7.55455e-09
1.83393e-09
6.61848e-09
2.67209e-09
6.10831e-09
2.15719e-09
7.89087e-09
6.23665e-10
1.07841e-08
-9.16488e-10
-5.82869e-10
1.17936e-08
1.45304e-09
3.22387e-09
2.711e-09
2.96929e-09
3.74369e-09
2.71069e-09
4.55504e-09
2.47305e-09
5.17304e-09
2.25658e-09
5.64113e-09
2.05675e-09
5.98422e-09
1.91989e-09
6.15739e-09
1.94203e-09
6.16739e-09
1.99227e-09
6.15337e-09
1.87241e-09
5.93445e-09
2.08292e-09
5.18153e-09
2.72057e-09
4.94933e-09
2.06614e-09
7.03162e-09
5.89799e-10
9.76021e-09
-5.71408e-10
1.06863e-08
-3.02382e-10
1.02826e-08
-5.12854e-10
-4.59454e-10
1.01592e-08
1.06405e-09
2.15982e-09
1.9902e-09
2.04314e-09
2.75438e-09
1.94651e-09
3.35101e-09
1.87642e-09
3.79315e-09
1.81444e-09
4.11715e-09
1.73275e-09
4.34673e-09
1.69031e-09
4.36629e-09
1.92247e-09
4.08809e-09
2.27046e-09
3.78313e-09
2.17737e-09
4.30606e-09
1.55999e-09
6.73024e-09
2.96389e-10
8.90554e-09
-1.0916e-10
9.50278e-09
-7.44024e-12
9.21397e-09
-2.82601e-10
9.16391e-09
-2.52324e-10
8.97398e-09
-3.22923e-10
-3.17192e-10
8.83172e-09
7.18637e-10
1.44118e-09
1.33051e-09
1.43126e-09
1.81648e-09
1.46054e-09
2.15957e-09
1.53333e-09
2.35366e-09
1.62035e-09
2.44164e-09
1.64477e-09
2.62232e-09
1.50963e-09
3.37623e-09
1.16856e-09
4.99578e-09
6.50906e-10
6.85608e-09
3.17068e-10
8.06179e-09
3.54281e-10
8.21326e-09
1.44926e-10
8.13601e-09
-3.19132e-11
8.16173e-09
-3.31599e-11
8.02956e-09
-1.50435e-10
7.93923e-09
-1.61987e-10
7.8086e-09
-1.92298e-10
-1.94224e-10
7.68563e-09
4.61172e-10
9.80011e-10
9.57714e-10
9.34721e-10
1.56366e-09
8.54601e-10
2.35159e-09
7.45389e-10
3.35062e-09
6.2132e-10
4.48993e-09
5.05463e-10
5.55765e-09
4.41905e-10
6.30729e-09
4.1892e-10
6.67086e-09
2.87335e-10
6.83046e-09
1.57472e-10
7.02835e-09
1.56395e-10
7.10556e-09
6.77142e-11
7.08209e-09
-8.44938e-12
7.06883e-09
-1.98971e-11
6.9843e-09
-6.59022e-11
6.89822e-09
-7.59102e-11
6.79402e-09
-8.80962e-11
-8.97865e-11
6.68958e-09
9.80011e-10
1.91473e-09
2.76933e-09
3.51472e-09
4.13604e-09
4.64151e-09
5.08341e-09
5.50233e-09
5.78967e-09
5.94714e-09
6.10353e-09
6.17125e-09
6.1628e-09
6.1429e-09
6.077e-09
6.00109e-09
5.91299e-09
5.8232e-09
5.83798e-12
-5.83798e-12
1.17468e-11
-5.90882e-12
1.77587e-11
-6.0119e-12
2.39072e-11
-6.14849e-12
3.02271e-11
-6.31989e-12
3.67544e-11
-6.52733e-12
4.35265e-11
-6.77205e-12
5.05817e-11
-7.05521e-12
5.79596e-11
-7.37798e-12
6.57011e-11
-7.74148e-12
7.38479e-11
-8.14679e-12
8.24429e-11
-8.595e-12
9.153e-11
-9.08714e-12
1.01154e-10
-9.62425e-12
1.11362e-10
-1.02074e-11
1.22199e-10
-1.08376e-11
1.33715e-10
-1.15158e-11
1.45958e-10
-1.22433e-11
1.58979e-10
-1.3021e-11
1.7283e-10
-1.38502e-11
1.87562e-10
-1.47322e-11
2.0323e-10
-1.5668e-11
2.19889e-10
-1.66593e-11
2.37597e-10
-1.77074e-11
2.56411e-10
-1.8814e-11
2.76391e-10
-1.99808e-11
2.97601e-10
-2.12096e-11
3.20104e-10
-2.25025e-11
3.43965e-10
-2.38615e-11
3.69254e-10
-2.52889e-11
3.96041e-10
-2.67873e-11
4.244e-10
-2.83591e-11
4.54408e-10
-3.00073e-11
4.86142e-10
-3.17346e-11
5.19686e-10
-3.35441e-11
5.55125e-10
-3.54391e-11
5.92548e-10
-3.74228e-11
6.32047e-10
-3.94987e-11
6.73717e-10
-4.16703e-11
7.17658e-10
-4.3941e-11
7.63973e-10
-4.63144e-11
8.12767e-10
-4.87941e-11
8.6415e-10
-5.13835e-11
9.18236e-10
-5.40859e-11
9.75141e-10
-5.69044e-11
1.03498e-09
-5.98419e-11
1.09788e-09
-6.29007e-11
1.16397e-09
-6.6083e-11
1.23336e-09
-6.93903e-11
1.30618e-09
-7.28234e-11
1.38256e-09
-7.63823e-11
1.46263e-09
-8.00662e-11
1.5465e-09
-8.38732e-11
1.6343e-09
-8.78003e-11
1.72614e-09
-9.1843e-11
1.82214e-09
-9.59954e-11
1.92239e-09
-1.0025e-10
2.02699e-09
-1.04598e-10
2.13602e-09
-1.09027e-10
2.24954e-09
-1.13525e-10
2.36762e-09
-1.18076e-10
2.49028e-09
-1.22663e-10
2.61755e-09
-1.27266e-10
2.74941e-09
-1.31863e-10
2.88584e-09
-1.36429e-10
3.02678e-09
-1.40938e-10
3.17214e-09
-1.45362e-10
3.32181e-09
-1.49672e-10
3.47564e-09
-1.53835e-10
3.63346e-09
-1.57819e-10
3.79505e-09
-1.61591e-10
3.96017e-09
-1.65118e-10
4.12854e-09
-1.68367e-10
4.29985e-09
-1.71307e-10
4.47375e-09
-1.73905e-10
4.64989e-09
-1.76135e-10
4.82786e-09
-1.7797e-10
5.00725e-09
-1.79388e-10
5.18762e-09
-1.80371e-10
5.36852e-09
-1.80903e-10
5.5495e-09
-1.80976e-10
5.73008e-09
-1.80583e-10
5.9098e-09
-1.79724e-10
6.08821e-09
-1.78404e-10
6.26484e-09
-1.76632e-10
6.43926e-09
-1.74422e-10
6.61105e-09
-1.71792e-10
6.77982e-09
-1.68765e-10
6.94518e-09
-1.65364e-10
7.1068e-09
-1.6162e-10
7.26437e-09
-1.57563e-10
7.41759e-09
-1.53225e-10
7.56623e-09
-1.48639e-10
7.71007e-09
-1.4384e-10
7.84893e-09
-1.38863e-10
7.98267e-09
-1.33741e-10
8.11118e-09
-1.28508e-10
8.23438e-09
-1.23195e-10
8.35221e-09
-1.17833e-10
8.46466e-09
-1.1245e-10
8.57173e-09
-1.07074e-10
8.67346e-09
-1.01729e-10
8.7699e-09
-9.64375e-11
8.86112e-09
-9.12194e-11
8.94721e-09
-8.6093e-11
9.02829e-09
-8.10736e-11
9.10446e-09
-7.61752e-11
9.17587e-09
-7.14089e-11
9.24265e-09
-6.67844e-11
9.30496e-09
-6.23094e-11
9.36295e-09
-5.79898e-11
9.41678e-09
-5.383e-11
9.46662e-09
-4.9833e-11
9.51262e-09
-4.60003e-11
9.55495e-09
-4.23325e-11
9.59378e-09
-3.88289e-11
9.62927e-09
-3.54882e-11
9.66157e-09
-3.23077e-11
9.69086e-09
-2.92851e-11
9.71727e-09
-2.64161e-11
9.74097e-09
-2.36973e-11
9.7621e-09
-2.11238e-11
9.78079e-09
-1.86913e-11
9.79718e-09
-1.63943e-11
9.81141e-09
-1.4228e-11
9.8236e-09
-1.21871e-11
9.83386e-09
-1.02658e-11
9.84232e-09
-8.4593e-12
9.84908e-09
-6.76185e-12
9.85425e-09
-5.16806e-12
9.85792e-09
-3.67295e-12
9.8602e-09
-2.27096e-12
9.86115e-09
-9.57422e-13
9.86088e-09
2.7288e-13
9.85946e-09
1.42462e-12
9.85695e-09
2.50253e-12
9.85344e-09
3.51077e-12
9.84899e-09
4.45413e-12
9.84365e-09
5.33633e-12
9.83749e-09
6.16144e-12
9.83056e-09
6.93333e-12
9.8229e-09
7.65553e-12
9.81457e-09
8.33171e-12
9.8056e-09
8.96498e-12
9.79605e-09
9.55861e-12
9.78593e-09
1.01155e-11
9.77529e-09
1.06388e-11
9.76416e-09
1.11312e-11
9.75256e-09
1.15956e-11
9.74053e-09
1.20345e-11
9.72808e-09
1.24506e-11
9.71523e-09
1.28467e-11
9.70201e-09
1.32255e-11
9.68842e-09
1.35898e-11
9.67448e-09
1.39426e-11
9.66019e-09
1.42873e-11
9.64556e-09
1.46278e-11
9.63059e-09
1.49682e-11
9.61528e-09
1.53135e-11
9.59961e-09
1.56698e-11
9.58356e-09
1.60447e-11
9.56712e-09
1.64473e-11
9.55023e-09
1.68895e-11
9.53284e-09
1.73862e-11
9.51488e-09
1.79573e-11
9.49625e-09
1.86286e-11
9.47682e-09
1.94343e-11
9.4564e-09
2.04212e-11
9.43475e-09
2.16532e-11
9.41153e-09
2.32201e-11
9.38628e-09
2.52503e-11
9.35834e-09
2.79338e-11
9.32678e-09
3.1561e-11
9.29018e-09
3.65989e-11
9.24634e-09
4.38453e-11
9.19155e-09
5.47834e-11
9.11904e-09
7.25153e-11
9.01429e-09
1.04745e-10
8.83809e-09
1.76207e-10
4.0101e-10
8.43708e-09
5.69969e-12
-1.15377e-11
1.14698e-11
-1.16789e-11
1.73427e-11
-1.18849e-11
2.33524e-11
-1.21581e-11
2.95337e-11
-1.25013e-11
3.59232e-11
-1.29168e-11
4.25582e-11
-1.3407e-11
4.94774e-11
-1.39745e-11
5.67207e-11
-1.46213e-11
6.4329e-11
-1.53498e-11
7.23443e-11
-1.61621e-11
8.08096e-11
-1.70602e-11
8.97688e-11
-1.80464e-11
9.92672e-11
-1.91226e-11
1.09351e-10
-2.02908e-11
1.20066e-10
-2.15531e-11
1.31462e-10
-2.29115e-11
1.43587e-10
-2.43682e-11
1.56491e-10
-2.59254e-11
1.70226e-10
-2.75853e-11
1.84844e-10
-2.93505e-11
2.004e-10
-3.12234e-11
2.16947e-10
-3.32068e-11
2.34543e-10
-3.53037e-11
2.53247e-10
-3.75172e-11
2.73117e-10
-3.98509e-11
2.94215e-10
-4.23083e-11
3.16606e-10
-4.48935e-11
3.40356e-10
-4.76108e-11
3.65532e-10
-5.04647e-11
3.92204e-10
-5.34602e-11
4.20448e-10
-5.66025e-11
4.50338e-10
-5.98971e-11
4.81953e-10
-6.335e-11
5.15376e-10
-6.69672e-11
5.50692e-10
-7.07553e-11
5.8799e-10
-7.47209e-11
6.27363e-10
-7.88708e-11
6.68905e-10
-8.32123e-11
7.12716e-10
-8.77523e-11
7.589e-10
-9.24981e-11
8.07562e-10
-9.74568e-11
8.58814e-10
-1.02635e-10
9.12769e-10
-1.08041e-10
9.69543e-10
-1.13679e-10
1.02926e-09
-1.19556e-10
1.09203e-09
-1.25677e-10
1.158e-09
-1.32045e-10
1.22727e-09
-1.38665e-10
1.29999e-09
-1.45538e-10
1.37627e-09
-1.52665e-10
1.45624e-09
-1.60043e-10
1.54004e-09
-1.67669e-10
1.62778e-09
-1.75537e-10
1.71957e-09
-1.83638e-10
1.81554e-09
-1.91961e-10
1.91578e-09
-2.00491e-10
2.02039e-09
-2.09209e-10
2.12946e-09
-2.18093e-10
2.24305e-09
-2.27116e-10
2.36122e-09
-2.36248e-10
2.48401e-09
-2.45453e-10
2.61143e-09
-2.54691e-10
2.74349e-09
-2.63919e-10
2.88015e-09
-2.73087e-10
3.02135e-09
-2.82142e-10
3.16702e-09
-2.91028e-10
3.31703e-09
-2.99683e-10
3.47124e-09
-3.08045e-10
3.62947e-09
-3.16048e-10
3.7915e-09
-3.23625e-10
3.95709e-09
-3.30708e-10
4.12596e-09
-3.37233e-10
4.29778e-09
-3.43133e-10
4.47223e-09
-3.48347e-10
4.64891e-09
-3.52819e-10
4.82744e-09
-3.56497e-10
5.00738e-09
-3.59335e-10
5.18831e-09
-3.61296e-10
5.36975e-09
-3.62351e-10
5.55126e-09
-3.6248e-10
5.73235e-09
-3.61672e-10
5.91255e-09
-3.59929e-10
6.09141e-09
-3.57258e-10
6.26845e-09
-3.53679e-10
6.44325e-09
-3.49222e-10
6.61538e-09
-3.43922e-10
6.78444e-09
-3.37824e-10
6.95006e-09
-3.30981e-10
7.11189e-09
-3.2345e-10
7.26962e-09
-3.15292e-10
7.42297e-09
-3.06573e-10
7.57169e-09
-2.97362e-10
7.71558e-09
-2.87726e-10
7.85445e-09
-2.77736e-10
7.98817e-09
-2.67459e-10
8.11662e-09
-2.56962e-10
8.23974e-09
-2.46309e-10
8.35746e-09
-2.35561e-10
8.46979e-09
-2.24775e-10
8.57672e-09
-2.14005e-10
8.67829e-09
-2.033e-10
8.77456e-09
-1.92705e-10
8.8656e-09
-1.8226e-10
8.95151e-09
-1.72e-10
9.03239e-09
-1.61956e-10
9.10837e-09
-1.52157e-10
9.17958e-09
-1.42623e-10
9.24617e-09
-1.33375e-10
9.30829e-09
-1.24427e-10
9.36609e-09
-1.15791e-10
9.41974e-09
-1.07475e-10
9.46939e-09
-9.94865e-11
9.51522e-09
-9.18267e-11
9.55738e-09
-8.44974e-11
9.59605e-09
-7.74969e-11
9.63138e-09
-7.08222e-11
9.66355e-09
-6.44688e-11
9.69269e-09
-5.84304e-11
9.71898e-09
-5.27e-11
9.74255e-09
-4.72694e-11
9.76355e-09
-4.21297e-11
9.78213e-09
-3.72714e-11
9.79842e-09
-3.26845e-11
9.81255e-09
-2.83584e-11
9.82465e-09
-2.42827e-11
9.83483e-09
-2.04466e-11
9.84321e-09
-1.68393e-11
9.8499e-09
-1.34499e-11
9.855e-09
-1.02677e-11
9.85861e-09
-7.28233e-12
9.86082e-09
-4.48327e-12
9.86172e-09
-1.86056e-12
9.8614e-09
5.9586e-13
9.85993e-09
2.89551e-12
9.85738e-09
5.04736e-12
9.85383e-09
7.06079e-12
9.84934e-09
8.94399e-12
9.84398e-09
1.07054e-11
9.83778e-09
1.23529e-11
9.83082e-09
1.38942e-11
9.82314e-09
1.53362e-11
9.81479e-09
1.66863e-11
9.8058e-09
1.79506e-11
9.79622e-09
1.9136e-11
9.78609e-09
2.02481e-11
9.77544e-09
2.12931e-11
9.76429e-09
2.22763e-11
9.75268e-09
2.32035e-11
9.74064e-09
2.40799e-11
9.72818e-09
2.49109e-11
9.71532e-09
2.57019e-11
9.70209e-09
2.6458e-11
9.6885e-09
2.71855e-11
9.67455e-09
2.78899e-11
9.66026e-09
2.85782e-11
9.64563e-09
2.92576e-11
9.63066e-09
2.99367e-11
9.61535e-09
3.06255e-11
9.59968e-09
3.13362e-11
9.58364e-09
3.20835e-11
9.5672e-09
3.28857e-11
9.55033e-09
3.37663e-11
9.53296e-09
3.47553e-11
9.51502e-09
3.58914e-11
9.49643e-09
3.7226e-11
9.47703e-09
3.88271e-11
9.45667e-09
4.07869e-11
9.43509e-09
4.32315e-11
9.41197e-09
4.63379e-11
9.38686e-09
5.03586e-11
9.35913e-09
5.56649e-11
9.32787e-09
6.28233e-11
9.29173e-09
7.27361e-11
9.24865e-09
8.69279e-11
9.19525e-09
1.08179e-10
9.12567e-09
1.42101e-10
9.02877e-09
2.01645e-10
8.88287e-09
3.2211e-10
6.16374e-10
8.6675e-09
5.42196e-12
-1.69596e-11
1.09134e-11
-1.71703e-11
1.65073e-11
-1.74788e-11
2.22382e-11
-1.7889e-11
2.81415e-11
-1.84046e-11
3.42542e-11
-1.90295e-11
4.06143e-11
-1.97671e-11
4.7261e-11
-2.06211e-11
5.42344e-11
-2.15947e-11
6.15759e-11
-2.26913e-11
6.93278e-11
-2.3914e-11
7.75334e-11
-2.52659e-11
8.6237e-11
-2.67499e-11
9.54835e-11
-2.83691e-11
1.05319e-10
-3.01265e-11
1.15791e-10
-3.20249e-11
1.26947e-10
-3.40674e-11
1.38836e-10
-3.6257e-11
1.51507e-10
-3.8597e-11
1.65013e-10
-4.10908e-11
1.79404e-10
-4.37419e-11
1.94735e-10
-4.65541e-11
2.1106e-10
-4.95315e-11
2.28434e-10
-5.26784e-11
2.46917e-10
-5.59996e-11
2.66566e-10
-5.95003e-11
2.87444e-10
-6.31859e-11
3.09613e-10
-6.70625e-11
3.33139e-10
-7.11365e-11
3.58089e-10
-7.54149e-11
3.84533e-10
-7.99049e-11
4.12546e-10
-8.46147e-11
4.42201e-10
-8.95525e-11
4.73578e-10
-9.47273e-11
5.06759e-10
-1.00148e-10
5.4183e-10
-1.05826e-10
5.78878e-10
-1.11769e-10
6.17996e-10
-1.17989e-10
6.59281e-10
-1.24497e-10
7.02832e-10
-1.31303e-10
7.48754e-10
-1.38419e-10
7.97152e-10
-1.45855e-10
8.48139e-10
-1.53623e-10
9.0183e-10
-1.61731e-10
9.58343e-10
-1.70192e-10
1.0178e-09
-1.79012e-10
1.08032e-09
-1.88201e-10
1.14604e-09
-1.97764e-10
1.21508e-09
-2.07708e-10
1.28758e-09
-2.18034e-10
1.36366e-09
-2.28744e-10
1.44345e-09
-2.39837e-10
1.52709e-09
-2.51306e-10
1.6147e-09
-2.63142e-10
1.70639e-09
-2.75335e-10
1.8023e-09
-2.87865e-10
1.90251e-09
-3.00711e-10
2.00715e-09
-3.13844e-10
2.11629e-09
-3.27233e-10
2.23001e-09
-3.40836e-10
2.34837e-09
-3.54607e-10
2.47141e-09
-3.68493e-10
2.59915e-09
-3.82434e-10
2.73159e-09
-3.96363e-10
2.86871e-09
-4.10205e-10
3.01045e-09
-4.2388e-10
3.15672e-09
-4.37301e-10
3.30742e-09
-4.50376e-10
3.46238e-09
-4.63009e-10
3.62143e-09
-4.751e-10
3.78435e-09
-4.86547e-10
3.95089e-09
-4.97247e-10
4.12076e-09
-5.07099e-10
4.29363e-09
-5.16005e-10
4.46916e-09
-5.23871e-10
4.64695e-09
-5.30611e-10
4.82659e-09
-5.36145e-10
5.00767e-09
-5.40405e-10
5.1897e-09
-5.43335e-10
5.37225e-09
-5.44892e-10
5.55481e-09
-5.45045e-10
5.73692e-09
-5.4378e-10
5.91809e-09
-5.41098e-10
6.09785e-09
-5.37015e-10
6.27573e-09
-5.3156e-10
6.45128e-09
-5.24778e-10
6.62409e-09
-5.16726e-10
6.79374e-09
-5.07474e-10
6.95986e-09
-4.97102e-10
7.1221e-09
-4.85696e-10
7.28016e-09
-4.73351e-10
7.43376e-09
-4.60169e-10
7.58265e-09
-4.4625e-10
7.72662e-09
-4.31701e-10
7.86551e-09
-4.16626e-10
7.99918e-09
-4.01128e-10
8.12753e-09
-3.85307e-10
8.25048e-09
-3.6926e-10
8.36799e-09
-3.53078e-10
8.48006e-09
-3.36847e-10
8.58671e-09
-3.20648e-10
8.68796e-09
-3.04554e-10
8.78389e-09
-2.88631e-10
8.87457e-09
-2.72939e-10
8.9601e-09
-2.57532e-10
9.0406e-09
-2.42455e-10
9.11619e-09
-2.27749e-10
9.18701e-09
-2.13446e-10
9.25321e-09
-1.99576e-10
9.31495e-09
-1.86159e-10
9.37237e-09
-1.73213e-10
9.42564e-09
-1.60751e-10
9.47494e-09
-1.4878e-10
9.52042e-09
-1.37305e-10
9.56225e-09
-1.26327e-10
9.60059e-09
-1.15843e-10
9.63562e-09
-1.05848e-10
9.66749e-09
-9.63361e-11
9.69635e-09
-8.72967e-11
9.72237e-09
-7.87193e-11
9.74569e-09
-7.05916e-11
9.76646e-09
-6.28998e-11
9.78482e-09
-5.56299e-11
9.8009e-09
-4.87663e-11
9.81484e-09
-4.22939e-11
9.82675e-09
-3.61962e-11
9.83676e-09
-3.04572e-11
9.84499e-09
-2.50608e-11
9.85153e-09
-1.99906e-11
9.85649e-09
-1.52306e-11
9.85997e-09
-1.0765e-11
9.86207e-09
-6.57827e-12
9.86286e-09
-2.65518e-12
9.86244e-09
1.01898e-12
9.86088e-09
4.4584e-12
9.85825e-09
7.67721e-12
9.85462e-09
1.06886e-11
9.85006e-09
1.35055e-11
9.84462e-09
1.61402e-11
9.83837e-09
1.86045e-11
9.83135e-09
2.09098e-11
9.82362e-09
2.3067e-11
9.81522e-09
2.50864e-11
9.8062e-09
2.69778e-11
9.79658e-09
2.8751e-11
9.78641e-09
3.04148e-11
9.77573e-09
3.19779e-11
9.76456e-09
3.3449e-11
9.75292e-09
3.48361e-11
9.74086e-09
3.61474e-11
9.72838e-09
3.73906e-11
9.71551e-09
3.85737e-11
9.70226e-09
3.97051e-11
9.68865e-09
4.0793e-11
9.67469e-09
4.18465e-11
9.6604e-09
4.28756e-11
9.64576e-09
4.38912e-11
9.63079e-09
4.4906e-11
9.61548e-09
4.59349e-11
9.59982e-09
4.69958e-11
9.5838e-09
4.81105e-11
9.56738e-09
4.93065e-11
9.55053e-09
5.06182e-11
9.53319e-09
5.209e-11
9.5153e-09
5.37794e-11
9.49677e-09
5.57617e-11
9.47746e-09
5.81377e-11
9.4572e-09
6.10427e-11
9.43577e-09
6.46619e-11
9.41285e-09
6.92541e-11
9.38803e-09
7.5187e-11
9.36069e-09
8.29989e-11
9.33001e-09
9.35027e-11
9.29477e-09
1.0798e-10
9.25314e-09
1.28555e-10
9.20233e-09
1.58992e-10
9.1379e-09
2.06525e-10
9.05313e-09
2.86418e-10
8.94133e-09
4.33916e-10
7.3164e-10
8.82606e-09
5.00233e-12
-2.1962e-11
1.00728e-11
-2.22408e-11
1.52453e-11
-2.26514e-11
2.05553e-11
-2.31989e-11
2.6039e-11
-2.38884e-11
3.17343e-11
-2.47247e-11
3.76799e-11
-2.57128e-11
4.39158e-11
-2.6857e-11
5.0483e-11
-2.81619e-11
5.74232e-11
-2.96316e-11
6.47794e-11
-3.12702e-11
7.25951e-11
-3.30816e-11
8.09149e-11
-3.50698e-11
8.97842e-11
-3.72384e-11
9.9249e-11
-3.95912e-11
1.09356e-10
-4.21321e-11
1.20154e-10
-4.48647e-11
1.3169e-10
-4.77932e-11
1.44014e-10
-5.09214e-11
1.57177e-10
-5.42539e-11
1.7123e-10
-5.77952e-11
1.86227e-10
-6.15502e-11
2.02219e-10
-6.55242e-11
2.19264e-10
-6.97231e-11
2.37418e-10
-7.41531e-11
2.56738e-10
-7.8821e-11
2.77286e-10
-8.37341e-11
2.99124e-10
-8.89005e-11
3.22316e-10
-9.43287e-11
3.4693e-10
-1.00028e-10
3.73034e-10
-1.06009e-10
4.007e-10
-1.12281e-10
4.30005e-10
-1.18857e-10
4.61025e-10
-1.25748e-10
4.93843e-10
-1.32967e-10
5.28545e-10
-1.40527e-10
5.65217e-10
-1.48442e-10
6.03954e-10
-1.56726e-10
6.44852e-10
-1.65395e-10
6.88011e-10
-1.74462e-10
7.33536e-10
-1.83944e-10
7.81535e-10
-1.93855e-10
8.32122e-10
-2.04209e-10
8.85413e-10
-2.15022e-10
9.41529e-10
-2.26307e-10
1.00059e-09
-2.38076e-10
1.06273e-09
-2.50341e-10
1.12808e-09
-2.63111e-10
1.19677e-09
-2.76394e-10
1.26893e-09
-2.90194e-10
1.34469e-09
-3.04513e-10
1.42421e-09
-3.19349e-10
1.5076e-09
-3.34696e-10
1.595e-09
-3.50543e-10
1.68654e-09
-3.66874e-10
1.78234e-09
-3.83666e-10
1.88252e-09
-4.00889e-10
1.98718e-09
-4.18507e-10
2.09642e-09
-4.36476e-10
2.21033e-09
-4.54742e-10
2.32896e-09
-4.73242e-10
2.45237e-09
-4.91905e-10
2.58059e-09
-5.1065e-10
2.71361e-09
-5.29385e-10
2.85142e-09
-5.48011e-10
2.99396e-09
-5.66419e-10
3.14115e-09
-5.84489e-10
3.29287e-09
-6.02097e-10
3.44897e-09
-6.19112e-10
3.60927e-09
-6.35397e-10
3.77354e-09
-6.50814e-10
3.94151e-09
-6.65222e-10
4.11289e-09
-6.78483e-10
4.28735e-09
-6.90463e-10
4.46452e-09
-7.01035e-10
4.64399e-09
-7.1008e-10
4.82533e-09
-7.17493e-10
5.00811e-09
-7.23179e-10
5.19184e-09
-7.27064e-10
5.37603e-09
-7.2909e-10
5.56021e-09
-7.29218e-10
5.74386e-09
-7.2743e-10
5.92649e-09
-7.23728e-10
6.10761e-09
-7.18135e-10
6.28674e-09
-7.10696e-10
6.46344e-09
-7.01473e-10
6.63726e-09
-6.90546e-10
6.80779e-09
-6.78011e-10
6.97467e-09
-6.63976e-10
7.13754e-09
-6.48563e-10
7.29609e-09
-6.31901e-10
7.45005e-09
-6.14127e-10
7.59917e-09
-5.9538e-10
7.74328e-09
-5.75802e-10
7.88218e-09
-5.55534e-10
8.01577e-09
-5.34715e-10
8.14394e-09
-5.13479e-10
8.26664e-09
-4.91957e-10
8.38383e-09
-4.7027e-10
8.49552e-09
-4.48532e-10
8.60172e-09
-4.26851e-10
8.70249e-09
-4.05323e-10
8.7979e-09
-3.84038e-10
8.88803e-09
-3.63073e-10
8.97299e-09
-3.42498e-10
9.05291e-09
-3.22375e-10
9.12792e-09
-3.02754e-10
9.19815e-09
-2.83681e-10
9.26377e-09
-2.65191e-10
9.32492e-09
-2.47312e-10
9.38178e-09
-2.30067e-10
9.4345e-09
-2.13471e-10
9.48325e-09
-1.97534e-10
9.5282e-09
-1.82261e-10
9.56953e-09
-1.67653e-10
9.60739e-09
-1.53706e-10
9.64196e-09
-1.40413e-10
9.67338e-09
-1.27763e-10
9.70183e-09
-1.15745e-10
9.72746e-09
-1.04342e-10
9.7504e-09
-9.3539e-11
9.77082e-09
-8.33167e-11
9.78885e-09
-7.36561e-11
9.80462e-09
-6.45365e-11
9.81826e-09
-5.59372e-11
9.8299e-09
-4.78368e-11
9.83966e-09
-4.02132e-11
9.84764e-09
-3.30452e-11
9.85396e-09