/*--------------------------------*- C++ -*----------------------------------*\
  =========                 |
  \\      /  F ield         | OpenFOAM: The Open Source CFD Toolbox
   \\    /   O peration     | Website:  https://openfoam.org
    \\  /    A nd           | Version:  10
     \\/     M anipulation  |
\*---------------------------------------------------------------------------*/
FoamFile
{
    format      ascii;
    class       volScalarField;
    location    "1.43";
    object      p;
}
// * * * * * * * * * * * * * * * * * * * * * * * * * * * * * * * * * * * * * //

dimensions      [1 -1 -2 0 0 0 0];

internalField   nonuniform List<scalar> 
12225
(
1.63687e+07
1.63127e+07
1.62123e+07
1.608e+07
1.59263e+07
1.5759e+07
1.55838e+07
1.54044e+07
1.5223e+07
1.50409e+07
1.48587e+07
1.46764e+07
1.44933e+07
1.43085e+07
1.412e+07
1.39243e+07
1.37144e+07
1.3473e+07
1.63709e+07
1.63147e+07
1.6214e+07
1.60814e+07
1.59273e+07
1.57599e+07
1.55845e+07
1.5405e+07
1.52236e+07
1.50415e+07
1.48594e+07
1.46771e+07
1.44943e+07
1.43098e+07
1.41219e+07
1.39273e+07
1.37206e+07
1.34913e+07
1.6376e+07
1.63192e+07
1.62178e+07
1.60843e+07
1.59296e+07
1.57617e+07
1.5586e+07
1.54063e+07
1.52248e+07
1.50427e+07
1.48607e+07
1.46787e+07
1.44963e+07
1.43126e+07
1.41259e+07
1.39339e+07
1.37328e+07
1.35189e+07
1.63843e+07
1.63267e+07
1.6224e+07
1.60892e+07
1.59335e+07
1.57647e+07
1.55884e+07
1.54084e+07
1.52267e+07
1.50447e+07
1.48629e+07
1.46814e+07
1.44997e+07
1.43171e+07
1.41324e+07
1.39439e+07
1.375e+07
1.35512e+07
1.63967e+07
1.63377e+07
1.62331e+07
1.60964e+07
1.5939e+07
1.5769e+07
1.5592e+07
1.54114e+07
1.52296e+07
1.50476e+07
1.48661e+07
1.46852e+07
1.45045e+07
1.43235e+07
1.41414e+07
1.39573e+07
1.37712e+07
1.35858e+07
1.6414e+07
1.63531e+07
1.62456e+07
1.61063e+07
1.59466e+07
1.57749e+07
1.55968e+07
1.54155e+07
1.52334e+07
1.50515e+07
1.48704e+07
1.46903e+07
1.45109e+07
1.43319e+07
1.4153e+07
1.39739e+07
1.37956e+07
1.36215e+07
1.64372e+07
1.63736e+07
1.62623e+07
1.61192e+07
1.59565e+07
1.57826e+07
1.56029e+07
1.54209e+07
1.52384e+07
1.50566e+07
1.4876e+07
1.46968e+07
1.4519e+07
1.43424e+07
1.4167e+07
1.39932e+07
1.38223e+07
1.36577e+07
1.64677e+07
1.64003e+07
1.62839e+07
1.61358e+07
1.59691e+07
1.57923e+07
1.56107e+07
1.54275e+07
1.52445e+07
1.50628e+07
1.48828e+07
1.47049e+07
1.45289e+07
1.4355e+07
1.41834e+07
1.40149e+07
1.38509e+07
1.36942e+07
1.65072e+07
1.64346e+07
1.6311e+07
1.61564e+07
1.59845e+07
1.5804e+07
1.562e+07
1.54354e+07
1.52519e+07
1.50703e+07
1.48911e+07
1.47144e+07
1.45406e+07
1.43696e+07
1.4202e+07
1.40385e+07
1.38807e+07
1.37307e+07
1.65577e+07
1.64778e+07
1.63447e+07
1.61815e+07
1.60031e+07
1.5818e+07
1.56311e+07
1.54448e+07
1.52606e+07
1.50791e+07
1.49007e+07
1.47256e+07
1.45539e+07
1.4386e+07
1.42224e+07
1.40638e+07
1.39116e+07
1.37673e+07
1.66224e+07
1.65319e+07
1.63858e+07
1.62115e+07
1.60248e+07
1.58342e+07
1.56438e+07
1.54555e+07
1.52705e+07
1.50891e+07
1.49116e+07
1.47381e+07
1.45689e+07
1.44041e+07
1.42443e+07
1.40903e+07
1.3943e+07
1.38036e+07
1.66983e+07
1.65937e+07
1.64312e+07
1.62436e+07
1.60476e+07
1.58509e+07
1.56567e+07
1.54664e+07
1.52806e+07
1.50993e+07
1.49227e+07
1.47508e+07
1.45838e+07
1.44219e+07
1.42656e+07
1.41154e+07
1.39722e+07
1.38367e+07
1.67917e+07
1.66668e+07
1.64829e+07
1.62791e+07
1.60722e+07
1.58686e+07
1.56703e+07
1.54778e+07
1.52911e+07
1.51101e+07
1.49344e+07
1.47642e+07
1.45995e+07
1.44404e+07
1.42874e+07
1.41408e+07
1.40012e+07
1.38692e+07
1.69296e+07
1.67684e+07
1.65506e+07
1.63234e+07
1.61018e+07
1.58894e+07
1.56861e+07
1.54911e+07
1.53036e+07
1.51228e+07
1.49485e+07
1.47803e+07
1.46181e+07
1.44622e+07
1.43127e+07
1.41699e+07
1.40341e+07
1.39056e+07
1.71436e+07
1.69095e+07
1.66358e+07
1.63752e+07
1.61348e+07
1.59119e+07
1.5703e+07
1.55054e+07
1.53172e+07
1.51371e+07
1.49644e+07
1.47987e+07
1.46396e+07
1.44871e+07
1.43414e+07
1.42025e+07
1.40705e+07
1.39456e+07
1.75042e+07
1.70971e+07
1.67309e+07
1.64264e+07
1.61647e+07
1.59314e+07
1.57176e+07
1.55182e+07
1.53302e+07
1.51516e+07
1.49813e+07
1.48185e+07
1.4663e+07
1.45144e+07
1.43727e+07
1.42378e+07
1.41097e+07
1.39884e+07
1.81993e+07
1.72845e+07
1.67921e+07
1.64496e+07
1.61747e+07
1.59369e+07
1.57224e+07
1.55243e+07
1.53386e+07
1.51632e+07
1.49965e+07
1.48378e+07
1.46865e+07
1.45423e+07
1.44049e+07
1.42743e+07
1.41502e+07
1.40325e+07
1.73425e+07
1.70022e+07
1.66703e+07
1.63835e+07
1.61334e+07
1.59097e+07
1.5705e+07
1.55146e+07
1.53357e+07
1.51664e+07
1.50056e+07
1.48525e+07
1.47067e+07
1.45676e+07
1.44352e+07
1.43092e+07
1.41894e+07
1.40755e+07
1.67645e+07
1.66248e+07
1.64327e+07
1.62293e+07
1.60295e+07
1.58378e+07
1.5655e+07
1.54807e+07
1.53143e+07
1.51554e+07
1.50035e+07
1.48582e+07
1.47194e+07
1.45867e+07
1.446e+07
1.43392e+07
1.4224e+07
1.41142e+07
1.64333e+07
1.63532e+07
1.62257e+07
1.60748e+07
1.59146e+07
1.57523e+07
1.55915e+07
1.54342e+07
1.52813e+07
1.51333e+07
1.49904e+07
1.48528e+07
1.47206e+07
1.45937e+07
1.44721e+07
1.43557e+07
1.42445e+07
1.41382e+07
1.62435e+07
1.6186e+07
1.60881e+07
1.59654e+07
1.5829e+07
1.5686e+07
1.55405e+07
1.53955e+07
1.52525e+07
1.51126e+07
1.49766e+07
1.48447e+07
1.47174e+07
1.45947e+07
1.44767e+07
1.43636e+07
1.42551e+07
1.41512e+07
1.61178e+07
1.60714e+07
1.59899e+07
1.58843e+07
1.57635e+07
1.56337e+07
1.54994e+07
1.53635e+07
1.52281e+07
1.50945e+07
1.49637e+07
1.48363e+07
1.47127e+07
1.45933e+07
1.44782e+07
1.43674e+07
1.4261e+07
1.41591e+07
1.60326e+07
1.59925e+07
1.59207e+07
1.58257e+07
1.57151e+07
1.55944e+07
1.54679e+07
1.53386e+07
1.52087e+07
1.50798e+07
1.49529e+07
1.48288e+07
1.47081e+07
1.45911e+07
1.44781e+07
1.43691e+07
1.42643e+07
1.41637e+07
1.59746e+07
1.59382e+07
1.58723e+07
1.57842e+07
1.56803e+07
1.55658e+07
1.54447e+07
1.53201e+07
1.51941e+07
1.50685e+07
1.49445e+07
1.48228e+07
1.47041e+07
1.45889e+07
1.44774e+07
1.43698e+07
1.42661e+07
1.41665e+07
1.59353e+07
1.59012e+07
1.58391e+07
1.57554e+07
1.56559e+07
1.55456e+07
1.54282e+07
1.53067e+07
1.51835e+07
1.50603e+07
1.49382e+07
1.48182e+07
1.4701e+07
1.4587e+07
1.44766e+07
1.43699e+07
1.42671e+07
1.41681e+07
1.59092e+07
1.58765e+07
1.58168e+07
1.5736e+07
1.56394e+07
1.55317e+07
1.54168e+07
1.52975e+07
1.51761e+07
1.50545e+07
1.49337e+07
1.48149e+07
1.46987e+07
1.45856e+07
1.44759e+07
1.43698e+07
1.42675e+07
1.4169e+07
1.58924e+07
1.58606e+07
1.58024e+07
1.57233e+07
1.56286e+07
1.55226e+07
1.54093e+07
1.52914e+07
1.51712e+07
1.50506e+07
1.49307e+07
1.48127e+07
1.46971e+07
1.45845e+07
1.44753e+07
1.43697e+07
1.42677e+07
1.41696e+07
1.58822e+07
1.5851e+07
1.57936e+07
1.57156e+07
1.56219e+07
1.55171e+07
1.54047e+07
1.52876e+07
1.51682e+07
1.50482e+07
1.49289e+07
1.48113e+07
1.46961e+07
1.45839e+07
1.44749e+07
1.43695e+07
1.42678e+07
1.41698e+07
1.58767e+07
1.58458e+07
1.57889e+07
1.57114e+07
1.56183e+07
1.5514e+07
1.54021e+07
1.52855e+07
1.51665e+07
1.50468e+07
1.49278e+07
1.48105e+07
1.46955e+07
1.45835e+07
1.44747e+07
1.43694e+07
1.42678e+07
1.417e+07
1.58745e+07
1.58436e+07
1.5787e+07
1.57097e+07
1.56169e+07
1.55128e+07
1.54011e+07
1.52847e+07
1.51658e+07
1.50463e+07
1.49274e+07
1.48101e+07
1.46953e+07
1.45833e+07
1.44746e+07
1.43694e+07
1.42678e+07
1.417e+07
1.07547e+07
1.07546e+07
1.07545e+07
1.07542e+07
1.0754e+07
1.07536e+07
1.07532e+07
1.07527e+07
1.07521e+07
1.07514e+07
1.07507e+07
1.07499e+07
1.07491e+07
1.07482e+07
1.07472e+07
1.07461e+07
1.0745e+07
1.07438e+07
1.07426e+07
1.07413e+07
1.07399e+07
1.07385e+07
1.0737e+07
1.07355e+07
1.07339e+07
1.07323e+07
1.07307e+07
1.0729e+07
1.07273e+07
1.07255e+07
1.07238e+07
1.07219e+07
1.07201e+07
1.07183e+07
1.07164e+07
1.07145e+07
1.07126e+07
1.07107e+07
1.07087e+07
1.07068e+07
1.07048e+07
1.07028e+07
1.07009e+07
1.06989e+07
1.06968e+07
1.06948e+07
1.06928e+07
1.06908e+07
1.06887e+07
1.06867e+07
1.06846e+07
1.06825e+07
1.06804e+07
1.06783e+07
1.06762e+07
1.06741e+07
1.0672e+07
1.06698e+07
1.06677e+07
1.06655e+07
1.06633e+07
1.06612e+07
1.0659e+07
1.06568e+07
1.06545e+07
1.06523e+07
1.06501e+07
1.06478e+07
1.06455e+07
1.06433e+07
1.0641e+07
1.06386e+07
1.06363e+07
1.0634e+07
1.06316e+07
1.06293e+07
1.06269e+07
1.06245e+07
1.06221e+07
1.06196e+07
1.06172e+07
1.06147e+07
1.06122e+07
1.06097e+07
1.06072e+07
1.06047e+07
1.06021e+07
1.05996e+07
1.0597e+07
1.05944e+07
1.05917e+07
1.05891e+07
1.05864e+07
1.05838e+07
1.05811e+07
1.05783e+07
1.05756e+07
1.05728e+07
1.05701e+07
1.05673e+07
1.05644e+07
1.05616e+07
1.05587e+07
1.05558e+07
1.05529e+07
1.055e+07
1.05471e+07
1.05441e+07
1.05411e+07
1.05381e+07
1.0535e+07
1.0532e+07
1.05289e+07
1.05258e+07
1.05226e+07
1.05195e+07
1.05163e+07
1.05131e+07
1.05098e+07
1.05066e+07
1.05033e+07
1.05e+07
1.04967e+07
1.04933e+07
1.04899e+07
1.04865e+07
1.04831e+07
1.04796e+07
1.04761e+07
1.04726e+07
1.04691e+07
1.04655e+07
1.04619e+07
1.04583e+07
1.04546e+07
1.04509e+07
1.04472e+07
1.04435e+07
1.04397e+07
1.04359e+07
1.04321e+07
1.04282e+07
1.04243e+07
1.04204e+07
1.04165e+07
1.04125e+07
1.04085e+07
1.04044e+07
1.04004e+07
1.03963e+07
1.03921e+07
1.03879e+07
1.03837e+07
1.03795e+07
1.03752e+07
1.0371e+07
1.03666e+07
1.03623e+07
1.03579e+07
1.03534e+07
1.0349e+07
1.03444e+07
1.03399e+07
1.03353e+07
1.03307e+07
1.03261e+07
1.03214e+07
1.03167e+07
1.0312e+07
1.03072e+07
1.03024e+07
1.02975e+07
1.02926e+07
1.02877e+07
1.02828e+07
1.02778e+07
1.02728e+07
1.02678e+07
1.02629e+07
1.02579e+07
1.0755e+07
1.07549e+07
1.07548e+07
1.07545e+07
1.07542e+07
1.07539e+07
1.07534e+07
1.07529e+07
1.07523e+07
1.07517e+07
1.0751e+07
1.07502e+07
1.07493e+07
1.07484e+07
1.07474e+07
1.07463e+07
1.07452e+07
1.0744e+07
1.07427e+07
1.07414e+07
1.07401e+07
1.07386e+07
1.07371e+07
1.07356e+07
1.0734e+07
1.07324e+07
1.07308e+07
1.07291e+07
1.07273e+07
1.07256e+07
1.07238e+07
1.0722e+07
1.07201e+07
1.07183e+07
1.07164e+07
1.07145e+07
1.07126e+07
1.07107e+07
1.07087e+07
1.07068e+07
1.07048e+07
1.07028e+07
1.07008e+07
1.06988e+07
1.06968e+07
1.06948e+07
1.06928e+07
1.06907e+07
1.06887e+07
1.06866e+07
1.06846e+07
1.06825e+07
1.06804e+07
1.06783e+07
1.06762e+07
1.06741e+07
1.0672e+07
1.06698e+07
1.06677e+07
1.06655e+07
1.06633e+07
1.06612e+07
1.0659e+07
1.06568e+07
1.06545e+07
1.06523e+07
1.06501e+07
1.06478e+07
1.06455e+07
1.06432e+07
1.0641e+07
1.06386e+07
1.06363e+07
1.0634e+07
1.06316e+07
1.06293e+07
1.06269e+07
1.06245e+07
1.0622e+07
1.06196e+07
1.06172e+07
1.06147e+07
1.06122e+07
1.06097e+07
1.06072e+07
1.06047e+07
1.06021e+07
1.05996e+07
1.0597e+07
1.05944e+07
1.05917e+07
1.05891e+07
1.05864e+07
1.05838e+07
1.05811e+07
1.05783e+07
1.05756e+07
1.05728e+07
1.05701e+07
1.05673e+07
1.05644e+07
1.05616e+07
1.05587e+07
1.05558e+07
1.05529e+07
1.055e+07
1.05471e+07
1.05441e+07
1.05411e+07
1.05381e+07
1.0535e+07
1.0532e+07
1.05289e+07
1.05258e+07
1.05226e+07
1.05195e+07
1.05163e+07
1.05131e+07
1.05098e+07
1.05066e+07
1.05033e+07
1.05e+07
1.04967e+07
1.04933e+07
1.04899e+07
1.04865e+07
1.04831e+07
1.04796e+07
1.04761e+07
1.04726e+07
1.04691e+07
1.04655e+07
1.04619e+07
1.04583e+07
1.04546e+07
1.04509e+07
1.04472e+07
1.04435e+07
1.04397e+07
1.04359e+07
1.04321e+07
1.04282e+07
1.04243e+07
1.04204e+07
1.04165e+07
1.04125e+07
1.04085e+07
1.04044e+07
1.04004e+07
1.03963e+07
1.03921e+07
1.03879e+07
1.03837e+07
1.03795e+07
1.03752e+07
1.03709e+07
1.03666e+07
1.03622e+07
1.03578e+07
1.03534e+07
1.03489e+07
1.03444e+07
1.03399e+07
1.03353e+07
1.03307e+07
1.03261e+07
1.03214e+07
1.03167e+07
1.0312e+07
1.03072e+07
1.03024e+07
1.02975e+07
1.02926e+07
1.02877e+07
1.02828e+07
1.02778e+07
1.02728e+07
1.02678e+07
1.02628e+07
1.02579e+07
1.07556e+07
1.07556e+07
1.07554e+07
1.07552e+07
1.07548e+07
1.07544e+07
1.0754e+07
1.07535e+07
1.07529e+07
1.07522e+07
1.07515e+07
1.07506e+07
1.07498e+07
1.07488e+07
1.07478e+07
1.07467e+07
1.07456e+07
1.07444e+07
1.07431e+07
1.07417e+07
1.07403e+07
1.07389e+07
1.07374e+07
1.07358e+07
1.07342e+07
1.07326e+07
1.07309e+07
1.07292e+07
1.07274e+07
1.07257e+07
1.07238e+07
1.0722e+07
1.07202e+07
1.07183e+07
1.07164e+07
1.07145e+07
1.07126e+07
1.07107e+07
1.07087e+07
1.07068e+07
1.07048e+07
1.07028e+07
1.07008e+07
1.06988e+07
1.06968e+07
1.06948e+07
1.06928e+07
1.06907e+07
1.06887e+07
1.06866e+07
1.06845e+07
1.06825e+07
1.06804e+07
1.06783e+07
1.06762e+07
1.06741e+07
1.06719e+07
1.06698e+07
1.06676e+07
1.06655e+07
1.06633e+07
1.06611e+07
1.06589e+07
1.06567e+07
1.06545e+07
1.06523e+07
1.065e+07
1.06478e+07
1.06455e+07
1.06432e+07
1.06409e+07
1.06386e+07
1.06363e+07
1.0634e+07
1.06316e+07
1.06292e+07
1.06269e+07
1.06245e+07
1.0622e+07
1.06196e+07
1.06172e+07
1.06147e+07
1.06122e+07
1.06097e+07
1.06072e+07
1.06047e+07
1.06021e+07
1.05995e+07
1.0597e+07
1.05944e+07
1.05917e+07
1.05891e+07
1.05864e+07
1.05837e+07
1.0581e+07
1.05783e+07
1.05756e+07
1.05728e+07
1.057e+07
1.05672e+07
1.05644e+07
1.05616e+07
1.05587e+07
1.05558e+07
1.05529e+07
1.055e+07
1.0547e+07
1.05441e+07
1.05411e+07
1.05381e+07
1.0535e+07
1.0532e+07
1.05289e+07
1.05258e+07
1.05226e+07
1.05195e+07
1.05163e+07
1.05131e+07
1.05098e+07
1.05066e+07
1.05033e+07
1.05e+07
1.04967e+07
1.04933e+07
1.04899e+07
1.04865e+07
1.04831e+07
1.04796e+07
1.04761e+07
1.04726e+07
1.04691e+07
1.04655e+07
1.04619e+07
1.04583e+07
1.04546e+07
1.04509e+07
1.04472e+07
1.04435e+07
1.04397e+07
1.04359e+07
1.04321e+07
1.04282e+07
1.04243e+07
1.04204e+07
1.04165e+07
1.04125e+07
1.04085e+07
1.04044e+07
1.04004e+07
1.03962e+07
1.03921e+07
1.03879e+07
1.03837e+07
1.03795e+07
1.03752e+07
1.03709e+07
1.03666e+07
1.03622e+07
1.03578e+07
1.03534e+07
1.03489e+07
1.03444e+07
1.03399e+07
1.03353e+07
1.03307e+07
1.03261e+07
1.03214e+07
1.03167e+07
1.03119e+07
1.03072e+07
1.03024e+07
1.02975e+07
1.02926e+07
1.02877e+07
1.02828e+07
1.02778e+07
1.02728e+07
1.02678e+07
1.02628e+07
1.02578e+07
1.07567e+07
1.07566e+07
1.07564e+07
1.07562e+07
1.07557e+07
1.07553e+07
1.07548e+07
1.07542e+07
1.07537e+07
1.0753e+07
1.07522e+07
1.07514e+07
1.07504e+07
1.07495e+07
1.07484e+07
1.07473e+07
1.07462e+07
1.07449e+07
1.07436e+07
1.07422e+07
1.07408e+07
1.07393e+07
1.07377e+07
1.07361e+07
1.07345e+07
1.07328e+07
1.07311e+07
1.07294e+07
1.07276e+07
1.07258e+07
1.07239e+07
1.07221e+07
1.07202e+07
1.07183e+07
1.07164e+07
1.07145e+07
1.07126e+07
1.07106e+07
1.07087e+07
1.07067e+07
1.07048e+07
1.07028e+07
1.07008e+07
1.06988e+07
1.06968e+07
1.06947e+07
1.06927e+07
1.06907e+07
1.06886e+07
1.06866e+07
1.06845e+07
1.06824e+07
1.06803e+07
1.06782e+07
1.06761e+07
1.0674e+07
1.06719e+07
1.06698e+07
1.06676e+07
1.06655e+07
1.06633e+07
1.06611e+07
1.06589e+07
1.06567e+07
1.06545e+07
1.06523e+07
1.065e+07
1.06478e+07
1.06455e+07
1.06432e+07
1.06409e+07
1.06386e+07
1.06363e+07
1.06339e+07
1.06316e+07
1.06292e+07
1.06268e+07
1.06244e+07
1.0622e+07
1.06196e+07
1.06171e+07
1.06147e+07
1.06122e+07
1.06097e+07
1.06072e+07
1.06047e+07
1.06021e+07
1.05995e+07
1.0597e+07
1.05943e+07
1.05917e+07
1.05891e+07
1.05864e+07
1.05837e+07
1.0581e+07
1.05783e+07
1.05756e+07
1.05728e+07
1.057e+07
1.05672e+07
1.05644e+07
1.05616e+07
1.05587e+07
1.05558e+07
1.05529e+07
1.055e+07
1.0547e+07
1.05441e+07
1.05411e+07
1.05381e+07
1.0535e+07
1.0532e+07
1.05289e+07
1.05258e+07
1.05226e+07
1.05195e+07
1.05163e+07
1.05131e+07
1.05098e+07
1.05066e+07
1.05033e+07
1.05e+07
1.04967e+07
1.04933e+07
1.04899e+07
1.04865e+07
1.04831e+07
1.04796e+07
1.04761e+07
1.04726e+07
1.04691e+07
1.04655e+07
1.04619e+07
1.04583e+07
1.04546e+07
1.04509e+07
1.04472e+07
1.04435e+07
1.04397e+07
1.04359e+07
1.04321e+07
1.04282e+07
1.04243e+07
1.04204e+07
1.04165e+07
1.04125e+07
1.04085e+07
1.04044e+07
1.04004e+07
1.03962e+07
1.03921e+07
1.03879e+07
1.03837e+07
1.03795e+07
1.03752e+07
1.03709e+07
1.03666e+07
1.03622e+07
1.03578e+07
1.03534e+07
1.03489e+07
1.03444e+07
1.03399e+07
1.03353e+07
1.03307e+07
1.03261e+07
1.03214e+07
1.03167e+07
1.03119e+07
1.03072e+07
1.03023e+07
1.02975e+07
1.02926e+07
1.02877e+07
1.02828e+07
1.02778e+07
1.02728e+07
1.02678e+07
1.02628e+07
1.02577e+07
1.07605e+07
1.07601e+07
1.07594e+07
1.07582e+07
1.07577e+07
1.07563e+07
1.07557e+07
1.07552e+07
1.07547e+07
1.07542e+07
1.07533e+07
1.07523e+07
1.07513e+07
1.07503e+07
1.07492e+07
1.07482e+07
1.0747e+07
1.07457e+07
1.07443e+07
1.07429e+07
1.07414e+07
1.07398e+07
1.07382e+07
1.07365e+07
1.07349e+07
1.07331e+07
1.07314e+07
1.07296e+07
1.07278e+07
1.07259e+07
1.07241e+07
1.07222e+07
1.07203e+07
1.07184e+07
1.07165e+07
1.07145e+07
1.07126e+07
1.07106e+07
1.07087e+07
1.07067e+07
1.07047e+07
1.07027e+07
1.07007e+07
1.06987e+07
1.06967e+07
1.06947e+07
1.06927e+07
1.06906e+07
1.06886e+07
1.06865e+07
1.06844e+07
1.06824e+07
1.06803e+07
1.06782e+07
1.06761e+07
1.0674e+07
1.06718e+07
1.06697e+07
1.06676e+07
1.06654e+07
1.06632e+07
1.06611e+07
1.06589e+07
1.06567e+07
1.06545e+07
1.06522e+07
1.065e+07
1.06477e+07
1.06455e+07
1.06432e+07
1.06409e+07
1.06386e+07
1.06363e+07
1.06339e+07
1.06316e+07
1.06292e+07
1.06268e+07
1.06244e+07
1.0622e+07
1.06196e+07
1.06171e+07
1.06147e+07
1.06122e+07
1.06097e+07
1.06072e+07
1.06046e+07
1.06021e+07
1.05995e+07
1.05969e+07
1.05943e+07
1.05917e+07
1.05891e+07
1.05864e+07
1.05837e+07
1.0581e+07
1.05783e+07
1.05756e+07
1.05728e+07
1.057e+07
1.05672e+07
1.05644e+07
1.05616e+07
1.05587e+07
1.05558e+07
1.05529e+07
1.055e+07
1.0547e+07
1.05441e+07
1.05411e+07
1.05381e+07
1.0535e+07
1.05319e+07
1.05289e+07
1.05257e+07
1.05226e+07
1.05195e+07
1.05163e+07
1.05131e+07
1.05098e+07
1.05066e+07
1.05033e+07
1.05e+07
1.04967e+07
1.04933e+07
1.04899e+07
1.04865e+07
1.04831e+07
1.04796e+07
1.04761e+07
1.04726e+07
1.04691e+07
1.04655e+07
1.04619e+07
1.04583e+07
1.04546e+07
1.04509e+07
1.04472e+07
1.04435e+07
1.04397e+07
1.04359e+07
1.04321e+07
1.04282e+07
1.04243e+07
1.04204e+07
1.04165e+07
1.04125e+07
1.04085e+07
1.04044e+07
1.04003e+07
1.03962e+07
1.03921e+07
1.03879e+07
1.03837e+07
1.03795e+07
1.03752e+07
1.03709e+07
1.03666e+07
1.03622e+07
1.03578e+07
1.03534e+07
1.03489e+07
1.03444e+07
1.03399e+07
1.03353e+07
1.03307e+07
1.03261e+07
1.03214e+07
1.03167e+07
1.03119e+07
1.03072e+07
1.03023e+07
1.02975e+07
1.02926e+07
1.02877e+07
1.02827e+07
1.02778e+07
1.02728e+07
1.02677e+07
1.02627e+07
1.02577e+07
1.0851e+07
1.08505e+07
1.08496e+07
1.08486e+07
1.08481e+07
1.08488e+07
1.08353e+07
1.08065e+07
1.07685e+07
1.07583e+07
1.07549e+07
1.07534e+07
1.07522e+07
1.07511e+07
1.07502e+07
1.07493e+07
1.07481e+07
1.07467e+07
1.07452e+07
1.07436e+07
1.07421e+07
1.07405e+07
1.07388e+07
1.07371e+07
1.07353e+07
1.07335e+07
1.07317e+07
1.07298e+07
1.0728e+07
1.07261e+07
1.07242e+07
1.07223e+07
1.07203e+07
1.07184e+07
1.07165e+07
1.07145e+07
1.07126e+07
1.07106e+07
1.07086e+07
1.07066e+07
1.07047e+07
1.07027e+07
1.07007e+07
1.06987e+07
1.06966e+07
1.06946e+07
1.06926e+07
1.06905e+07
1.06885e+07
1.06864e+07
1.06844e+07
1.06823e+07
1.06802e+07
1.06781e+07
1.0676e+07
1.06739e+07
1.06718e+07
1.06697e+07
1.06675e+07
1.06654e+07
1.06632e+07
1.0661e+07
1.06588e+07
1.06566e+07
1.06544e+07
1.06522e+07
1.065e+07
1.06477e+07
1.06454e+07
1.06432e+07
1.06409e+07
1.06386e+07
1.06362e+07
1.06339e+07
1.06315e+07
1.06292e+07
1.06268e+07
1.06244e+07
1.0622e+07
1.06196e+07
1.06171e+07
1.06147e+07
1.06122e+07
1.06097e+07
1.06072e+07
1.06046e+07
1.06021e+07
1.05995e+07
1.05969e+07
1.05943e+07
1.05917e+07
1.05891e+07
1.05864e+07
1.05837e+07
1.0581e+07
1.05783e+07
1.05756e+07
1.05728e+07
1.057e+07
1.05672e+07
1.05644e+07
1.05616e+07
1.05587e+07
1.05558e+07
1.05529e+07
1.055e+07
1.0547e+07
1.05441e+07
1.05411e+07
1.0538e+07
1.0535e+07
1.05319e+07
1.05289e+07
1.05257e+07
1.05226e+07
1.05195e+07
1.05163e+07
1.05131e+07
1.05098e+07
1.05066e+07
1.05033e+07
1.05e+07
1.04967e+07
1.04933e+07
1.04899e+07
1.04865e+07
1.04831e+07
1.04796e+07
1.04761e+07
1.04726e+07
1.0469e+07
1.04655e+07
1.04619e+07
1.04583e+07
1.04546e+07
1.04509e+07
1.04472e+07
1.04435e+07
1.04397e+07
1.04359e+07
1.04321e+07
1.04282e+07
1.04243e+07
1.04204e+07
1.04164e+07
1.04125e+07
1.04085e+07
1.04044e+07
1.04003e+07
1.03962e+07
1.03921e+07
1.03879e+07
1.03837e+07
1.03795e+07
1.03752e+07
1.03709e+07
1.03666e+07
1.03622e+07
1.03578e+07
1.03534e+07
1.03489e+07
1.03444e+07
1.03399e+07
1.03353e+07
1.03307e+07
1.03261e+07
1.03214e+07
1.03167e+07
1.03119e+07
1.03072e+07
1.03023e+07
1.02975e+07
1.02926e+07
1.02877e+07
1.02827e+07
1.02777e+07
1.02727e+07
1.02677e+07
1.02626e+07
1.02576e+07
1.09335e+07
1.09326e+07
1.09308e+07
1.09282e+07
1.09245e+07
1.0919e+07
1.09104e+07
1.08994e+07
1.089e+07
1.08892e+07
1.09012e+07
1.0899e+07
1.08841e+07
1.0855e+07
1.08071e+07
1.07568e+07
1.07505e+07
1.0748e+07
1.07461e+07
1.07444e+07
1.07429e+07
1.07413e+07
1.07395e+07
1.07376e+07
1.07358e+07
1.07339e+07
1.0732e+07
1.07301e+07
1.07282e+07
1.07262e+07
1.07243e+07
1.07223e+07
1.07204e+07
1.07184e+07
1.07165e+07
1.07145e+07
1.07125e+07
1.07105e+07
1.07086e+07
1.07066e+07
1.07046e+07
1.07026e+07
1.07006e+07
1.06986e+07
1.06965e+07
1.06945e+07
1.06925e+07
1.06905e+07
1.06884e+07
1.06864e+07
1.06843e+07
1.06822e+07
1.06801e+07
1.06781e+07
1.0676e+07
1.06738e+07
1.06717e+07
1.06696e+07
1.06675e+07
1.06653e+07
1.06631e+07
1.0661e+07
1.06588e+07
1.06566e+07
1.06544e+07
1.06521e+07
1.06499e+07
1.06477e+07
1.06454e+07
1.06431e+07
1.06408e+07
1.06385e+07
1.06362e+07
1.06339e+07
1.06315e+07
1.06292e+07
1.06268e+07
1.06244e+07
1.0622e+07
1.06195e+07
1.06171e+07
1.06146e+07
1.06122e+07
1.06097e+07
1.06071e+07
1.06046e+07
1.06021e+07
1.05995e+07
1.05969e+07
1.05943e+07
1.05917e+07
1.05891e+07
1.05864e+07
1.05837e+07
1.0581e+07
1.05783e+07
1.05756e+07
1.05728e+07
1.057e+07
1.05672e+07
1.05644e+07
1.05616e+07
1.05587e+07
1.05558e+07
1.05529e+07
1.055e+07
1.0547e+07
1.05441e+07
1.05411e+07
1.0538e+07
1.0535e+07
1.05319e+07
1.05289e+07
1.05257e+07
1.05226e+07
1.05194e+07
1.05163e+07
1.05131e+07
1.05098e+07
1.05066e+07
1.05033e+07
1.05e+07
1.04966e+07
1.04933e+07
1.04899e+07
1.04865e+07
1.04831e+07
1.04796e+07
1.04761e+07
1.04726e+07
1.0469e+07
1.04655e+07
1.04619e+07
1.04582e+07
1.04546e+07
1.04509e+07
1.04472e+07
1.04435e+07
1.04397e+07
1.04359e+07
1.04321e+07
1.04282e+07
1.04243e+07
1.04204e+07
1.04164e+07
1.04125e+07
1.04085e+07
1.04044e+07
1.04003e+07
1.03962e+07
1.03921e+07
1.03879e+07
1.03837e+07
1.03795e+07
1.03752e+07
1.03709e+07
1.03666e+07
1.03622e+07
1.03578e+07
1.03534e+07
1.03489e+07
1.03444e+07
1.03399e+07
1.03353e+07
1.03307e+07
1.03261e+07
1.03214e+07
1.03167e+07
1.03119e+07
1.03071e+07
1.03023e+07
1.02975e+07
1.02926e+07
1.02877e+07
1.02827e+07
1.02777e+07
1.02727e+07
1.02677e+07
1.02626e+07
1.02575e+07
1.10148e+07
1.10137e+07
1.10115e+07
1.10083e+07
1.1004e+07
1.09985e+07
1.09916e+07
1.09839e+07
1.09763e+07
1.09696e+07
1.09632e+07
1.09534e+07
1.09388e+07
1.09195e+07
1.08971e+07
1.08771e+07
1.08671e+07
1.08683e+07
1.08528e+07
1.08199e+07
1.07634e+07
1.07434e+07
1.07402e+07
1.07382e+07
1.07364e+07
1.07344e+07
1.07324e+07
1.07304e+07
1.07284e+07
1.07264e+07
1.07244e+07
1.07224e+07
1.07204e+07
1.07184e+07
1.07164e+07
1.07144e+07
1.07124e+07
1.07105e+07
1.07085e+07
1.07065e+07
1.07045e+07
1.07025e+07
1.07005e+07
1.06985e+07
1.06964e+07
1.06944e+07
1.06924e+07
1.06904e+07
1.06883e+07
1.06863e+07
1.06842e+07
1.06821e+07
1.06801e+07
1.0678e+07
1.06759e+07
1.06738e+07
1.06716e+07
1.06695e+07
1.06674e+07
1.06652e+07
1.06631e+07
1.06609e+07
1.06587e+07
1.06565e+07
1.06543e+07
1.06521e+07
1.06499e+07
1.06476e+07
1.06454e+07
1.06431e+07
1.06408e+07
1.06385e+07
1.06362e+07
1.06338e+07
1.06315e+07
1.06291e+07
1.06267e+07
1.06244e+07
1.06219e+07
1.06195e+07
1.06171e+07
1.06146e+07
1.06121e+07
1.06096e+07
1.06071e+07
1.06046e+07
1.06021e+07
1.05995e+07
1.05969e+07
1.05943e+07
1.05917e+07
1.0589e+07
1.05864e+07
1.05837e+07
1.0581e+07
1.05783e+07
1.05755e+07
1.05728e+07
1.057e+07
1.05672e+07
1.05644e+07
1.05616e+07
1.05587e+07
1.05558e+07
1.05529e+07
1.055e+07
1.0547e+07
1.0544e+07
1.05411e+07
1.0538e+07
1.0535e+07
1.05319e+07
1.05288e+07
1.05257e+07
1.05226e+07
1.05194e+07
1.05163e+07
1.05131e+07
1.05098e+07
1.05066e+07
1.05033e+07
1.05e+07
1.04966e+07
1.04933e+07
1.04899e+07
1.04865e+07
1.04831e+07
1.04796e+07
1.04761e+07
1.04726e+07
1.0469e+07
1.04655e+07
1.04619e+07
1.04582e+07
1.04546e+07
1.04509e+07
1.04472e+07
1.04435e+07
1.04397e+07
1.04359e+07
1.04321e+07
1.04282e+07
1.04243e+07
1.04204e+07
1.04164e+07
1.04125e+07
1.04085e+07
1.04044e+07
1.04003e+07
1.03962e+07
1.03921e+07
1.03879e+07
1.03837e+07
1.03795e+07
1.03752e+07
1.03709e+07
1.03666e+07
1.03622e+07
1.03578e+07
1.03534e+07
1.03489e+07
1.03444e+07
1.03399e+07
1.03353e+07
1.03307e+07
1.03261e+07
1.03214e+07
1.03167e+07
1.03119e+07
1.03071e+07
1.03023e+07
1.02975e+07
1.02926e+07
1.02876e+07
1.02827e+07
1.02777e+07
1.02727e+07
1.02676e+07
1.02625e+07
1.02574e+07
1.10977e+07
1.10964e+07
1.10941e+07
1.10906e+07
1.10861e+07
1.10804e+07
1.10737e+07
1.1066e+07
1.10574e+07
1.10481e+07
1.10377e+07
1.10255e+07
1.10113e+07
1.09952e+07
1.0978e+07
1.09611e+07
1.09454e+07
1.093e+07
1.09112e+07
1.08882e+07
1.08632e+07
1.08447e+07
1.08346e+07
1.08065e+07
1.07567e+07
1.07353e+07
1.07325e+07
1.07306e+07
1.07285e+07
1.07265e+07
1.07244e+07
1.07224e+07
1.07204e+07
1.07183e+07
1.07163e+07
1.07143e+07
1.07123e+07
1.07103e+07
1.07083e+07
1.07063e+07
1.07043e+07
1.07023e+07
1.07003e+07
1.06983e+07
1.06963e+07
1.06943e+07
1.06923e+07
1.06902e+07
1.06882e+07
1.06861e+07
1.06841e+07
1.0682e+07
1.06799e+07
1.06779e+07
1.06758e+07
1.06737e+07
1.06716e+07
1.06694e+07
1.06673e+07
1.06652e+07
1.0663e+07
1.06608e+07
1.06587e+07
1.06565e+07
1.06543e+07
1.0652e+07
1.06498e+07
1.06476e+07
1.06453e+07
1.0643e+07
1.06407e+07
1.06384e+07
1.06361e+07
1.06338e+07
1.06314e+07
1.06291e+07
1.06267e+07
1.06243e+07
1.06219e+07
1.06195e+07
1.0617e+07
1.06146e+07
1.06121e+07
1.06096e+07
1.06071e+07
1.06046e+07
1.0602e+07
1.05995e+07
1.05969e+07
1.05943e+07
1.05917e+07
1.0589e+07
1.05864e+07
1.05837e+07
1.0581e+07
1.05783e+07
1.05755e+07
1.05728e+07
1.057e+07
1.05672e+07
1.05644e+07
1.05615e+07
1.05587e+07
1.05558e+07
1.05529e+07
1.055e+07
1.0547e+07
1.0544e+07
1.0541e+07
1.0538e+07
1.0535e+07
1.05319e+07
1.05288e+07
1.05257e+07
1.05226e+07
1.05194e+07
1.05163e+07
1.0513e+07
1.05098e+07
1.05066e+07
1.05033e+07
1.05e+07
1.04966e+07
1.04933e+07
1.04899e+07
1.04865e+07
1.04831e+07
1.04796e+07
1.04761e+07
1.04726e+07
1.0469e+07
1.04655e+07
1.04619e+07
1.04582e+07
1.04546e+07
1.04509e+07
1.04472e+07
1.04435e+07
1.04397e+07
1.04359e+07
1.04321e+07
1.04282e+07
1.04243e+07
1.04204e+07
1.04164e+07
1.04125e+07
1.04085e+07
1.04044e+07
1.04003e+07
1.03962e+07
1.03921e+07
1.03879e+07
1.03837e+07
1.03795e+07
1.03752e+07
1.03709e+07
1.03666e+07
1.03622e+07
1.03578e+07
1.03534e+07
1.03489e+07
1.03444e+07
1.03399e+07
1.03353e+07
1.03307e+07
1.03261e+07
1.03214e+07
1.03167e+07
1.03119e+07
1.03071e+07
1.03023e+07
1.02975e+07
1.02926e+07
1.02876e+07
1.02827e+07
1.02777e+07
1.02726e+07
1.02676e+07
1.02625e+07
1.02573e+07
1.11833e+07
1.11818e+07
1.11793e+07
1.11756e+07
1.11708e+07
1.11648e+07
1.11576e+07
1.11493e+07
1.11399e+07
1.11294e+07
1.11176e+07
1.11044e+07
1.10899e+07
1.10741e+07
1.10573e+07
1.10399e+07
1.10218e+07
1.10031e+07
1.09829e+07
1.09614e+07
1.0939e+07
1.09169e+07
1.08944e+07
1.08683e+07
1.08391e+07
1.08124e+07
1.07865e+07
1.07387e+07
1.07286e+07
1.07265e+07
1.07244e+07
1.07223e+07
1.07203e+07
1.07182e+07
1.07162e+07
1.07142e+07
1.07122e+07
1.07102e+07
1.07082e+07
1.07062e+07
1.07042e+07
1.07022e+07
1.07002e+07
1.06982e+07
1.06962e+07
1.06941e+07
1.06921e+07
1.06901e+07
1.06881e+07
1.0686e+07
1.0684e+07
1.06819e+07
1.06798e+07
1.06778e+07
1.06757e+07
1.06736e+07
1.06715e+07
1.06693e+07
1.06672e+07
1.06651e+07
1.06629e+07
1.06608e+07
1.06586e+07
1.06564e+07
1.06542e+07
1.0652e+07
1.06497e+07
1.06475e+07
1.06452e+07
1.0643e+07
1.06407e+07
1.06384e+07
1.06361e+07
1.06338e+07
1.06314e+07
1.06291e+07
1.06267e+07
1.06243e+07
1.06219e+07
1.06195e+07
1.0617e+07
1.06146e+07
1.06121e+07
1.06096e+07
1.06071e+07
1.06046e+07
1.0602e+07
1.05994e+07
1.05969e+07
1.05943e+07
1.05916e+07
1.0589e+07
1.05864e+07
1.05837e+07
1.0581e+07
1.05783e+07
1.05755e+07
1.05728e+07
1.057e+07
1.05672e+07
1.05644e+07
1.05615e+07
1.05587e+07
1.05558e+07
1.05529e+07
1.055e+07
1.0547e+07
1.0544e+07
1.0541e+07
1.0538e+07
1.0535e+07
1.05319e+07
1.05288e+07
1.05257e+07
1.05226e+07
1.05194e+07
1.05163e+07
1.0513e+07
1.05098e+07
1.05066e+07
1.05033e+07
1.05e+07
1.04966e+07
1.04933e+07
1.04899e+07
1.04865e+07
1.0483e+07
1.04796e+07
1.04761e+07
1.04726e+07
1.0469e+07
1.04655e+07
1.04619e+07
1.04582e+07
1.04546e+07
1.04509e+07
1.04472e+07
1.04434e+07
1.04397e+07
1.04359e+07
1.04321e+07
1.04282e+07
1.04243e+07
1.04204e+07
1.04164e+07
1.04125e+07
1.04084e+07
1.04044e+07
1.04003e+07
1.03962e+07
1.03921e+07
1.03879e+07
1.03837e+07
1.03795e+07
1.03752e+07
1.03709e+07
1.03666e+07
1.03622e+07
1.03578e+07
1.03534e+07
1.03489e+07
1.03444e+07
1.03399e+07
1.03353e+07
1.03307e+07
1.03261e+07
1.03214e+07
1.03167e+07
1.03119e+07
1.03071e+07
1.03023e+07
1.02974e+07
1.02925e+07
1.02876e+07
1.02826e+07
1.02776e+07
1.02726e+07
1.02675e+07
1.02624e+07
1.02572e+07
1.12721e+07
1.12706e+07
1.12678e+07
1.12638e+07
1.12586e+07
1.12521e+07
1.12444e+07
1.12354e+07
1.12252e+07
1.12137e+07
1.1201e+07
1.1187e+07
1.11717e+07
1.11553e+07
1.11377e+07
1.11192e+07
1.10998e+07
1.10794e+07
1.10579e+07
1.10354e+07
1.10121e+07
1.09879e+07
1.09627e+07
1.0936e+07
1.0908e+07
1.08791e+07
1.08489e+07
1.08156e+07
1.0783e+07
1.07417e+07
1.07243e+07
1.07221e+07
1.07201e+07
1.0718e+07
1.0716e+07
1.0714e+07
1.0712e+07
1.071e+07
1.0708e+07
1.0706e+07
1.0704e+07
1.0702e+07
1.07e+07
1.0698e+07
1.0696e+07
1.0694e+07
1.0692e+07
1.06899e+07
1.06879e+07
1.06859e+07
1.06838e+07
1.06818e+07
1.06797e+07
1.06776e+07
1.06755e+07
1.06735e+07
1.06713e+07
1.06692e+07
1.06671e+07
1.0665e+07
1.06628e+07
1.06607e+07
1.06585e+07
1.06563e+07
1.06541e+07
1.06519e+07
1.06497e+07
1.06474e+07
1.06452e+07
1.06429e+07
1.06406e+07
1.06383e+07
1.0636e+07
1.06337e+07
1.06314e+07
1.0629e+07
1.06266e+07
1.06242e+07
1.06218e+07
1.06194e+07
1.0617e+07
1.06145e+07
1.06121e+07
1.06096e+07
1.06071e+07
1.06045e+07
1.0602e+07
1.05994e+07
1.05968e+07
1.05942e+07
1.05916e+07
1.0589e+07
1.05863e+07
1.05837e+07
1.0581e+07
1.05782e+07
1.05755e+07
1.05728e+07
1.057e+07
1.05672e+07
1.05644e+07
1.05615e+07
1.05587e+07
1.05558e+07
1.05529e+07
1.05499e+07
1.0547e+07
1.0544e+07
1.0541e+07
1.0538e+07
1.0535e+07
1.05319e+07
1.05288e+07
1.05257e+07
1.05226e+07
1.05194e+07
1.05162e+07
1.0513e+07
1.05098e+07
1.05066e+07
1.05033e+07
1.05e+07
1.04966e+07
1.04933e+07
1.04899e+07
1.04865e+07
1.0483e+07
1.04796e+07