/*--------------------------------*- C++ -*----------------------------------*\
  =========                 |
  \\      /  F ield         | OpenFOAM: The Open Source CFD Toolbox
   \\    /   O peration     | Website:  https://openfoam.org
    \\  /    A nd           | Version:  10
     \\/     M anipulation  |
\*---------------------------------------------------------------------------*/
FoamFile
{
    format      ascii;
    class       volVectorField;
    location    "1.43";
    object      Ua;
}
// * * * * * * * * * * * * * * * * * * * * * * * * * * * * * * * * * * * * * //

dimensions      [0 1 -1 0 0 0 0];

internalField   nonuniform List<vector> 
12225
(
(2.95679e-05 -3.80665e-06 0)
(8.64459e-05 -3.56547e-06 0)
(0.000138035 -3.1226e-06 0)
(0.000183523 -2.62404e-06 0)
(0.000223263 -2.16833e-06 0)
(0.000258197 -1.80439e-06 0)
(0.000289436 -1.54889e-06 0)
(0.000318048 -1.40356e-06 0)
(0.000344988 -1.36717e-06 0)
(0.000371114 -1.44339e-06 0)
(0.000397247 -1.64735e-06 0)
(0.000424276 -2.01454e-06 0)
(0.000453313 -2.61827e-06 0)
(0.000485998 -3.6114e-06 0)
(0.000525185 -5.34286e-06 0)
(0.000576884 -8.75803e-06 0)
(0.000657586 -1.72254e-05 0)
(0.000833598 -4.8144e-05 0)
(2.01244e-05 -9.86326e-06 0)
(5.92771e-05 -9.2961e-06 0)
(9.57614e-05 -8.19782e-06 0)
(0.00012899 -6.93639e-06 0)
(0.000158989 -5.76885e-06 0)
(0.000186161 -4.82904e-06 0)
(0.000211069 -4.16777e-06 0)
(0.000234306 -3.7957e-06 0)
(0.000256441 -3.71452e-06 0)
(0.000278017 -3.93813e-06 0)
(0.000299579 -4.51065e-06 0)
(0.000321733 -5.53069e-06 0)
(0.000345242 -7.19829e-06 0)
(0.000371214 -9.92403e-06 0)
(0.000401464 -1.4623e-05 0)
(0.000439324 -2.36543e-05 0)
(0.000490748 -4.45318e-05 0)
(0.00055415 -0.000108317 0)
(1.56092e-05 -1.35677e-05 0)
(4.62657e-05 -1.29045e-05 0)
(7.54661e-05 -1.14898e-05 0)
(0.000102744 -9.81123e-06 0)
(0.000127997 -8.22715e-06 0)
(0.000151386 -6.93674e-06 0)
(0.000173221 -6.02554e-06 0)
(0.000193868 -5.52107e-06 0)
(0.000213707 -5.43575e-06 0)
(0.00023312 -5.79759e-06 0)
(0.000252504 -6.67694e-06 0)
(0.000272307 -8.22195e-06 0)
(0.000293081 -1.07243e-05 0)
(0.000315578 -1.47651e-05 0)
(0.000340876 -2.15802e-05 0)
(0.000370354 -3.40795e-05 0)
(0.000404028 -5.99429e-05 0)
(0.000427533 -0.000120489 0)
(1.26849e-05 -1.59784e-05 0)
(3.78157e-05 -1.53406e-05 0)
(6.22272e-05 -1.37892e-05 0)
(8.55395e-05 -1.18793e-05 0)
(0.000107586 -1.00398e-05 0)
(0.000128391 -8.52342e-06 0)
(0.000148111 -7.44952e-06 0)
(0.000166968 -6.86585e-06 0)
(0.000185217 -6.79907e-06 0)
(0.000203128 -7.29246e-06 0)
(0.000220993 -8.43914e-06 0)
(0.000239134 -1.04246e-05 0)
(0.000257935 -1.36015e-05 0)
(0.000277849 -1.8644e-05 0)
(0.000299344 -2.68945e-05 0)
(0.000322439 -4.11665e-05 0)
(0.000344514 -6.7463e-05 0)
(0.000352354 -0.000116798 0)
(1.0559e-05 -1.74666e-05 0)
(3.16534e-05 -1.69346e-05 0)
(5.25228e-05 -1.53662e-05 0)
(7.28546e-05 -1.33515e-05 0)
(9.24523e-05 -1.13692e-05 0)
(0.000111258 -9.71578e-06 0)
(0.000129324 -8.54247e-06 0)
(0.000146771 -7.91847e-06 0)
(0.000163761 -7.88612e-06 0)
(0.000180481 -8.50349e-06 0)
(0.000197131 -9.88175e-06 0)
(0.000213933 -1.22308e-05 0)
(0.000231119 -1.59332e-05 0)
(0.00024889 -2.16833e-05 0)
(0.000267256 -3.07547e-05 0)
(0.000285449 -4.54795e-05 0)
(0.000300214 -6.97948e-05 0)
(0.000302257 -0.000108042 0)
(8.91698e-06 -1.82233e-05 0)
(2.68778e-05 -1.78538e-05 0)
(4.496e-05 -1.63544e-05 0)
(6.29056e-05 -1.43287e-05 0)
(8.05087e-05 -1.22896e-05 0)
(9.76604e-05 -1.05691e-05 0)
(0.000114342 -9.34724e-06 0)
(0.0001306 -8.71437e-06 0)
(0.000146525 -8.7284e-06 0)
(0.00016223 -9.46049e-06 0)
(0.000177843 -1.10342e-05 0)
(0.000193495 -1.36701e-05 0)
(0.000209288 -1.77514e-05 0)
(0.000225228 -2.39304e-05 0)
(0.000241021 -3.32952e-05 0)
(0.000255575 -4.75562e-05 0)
(0.000265968 -6.89109e-05 0)
(0.000266395 -9.82461e-05 0)
(7.60183e-06 -1.83675e-05 0)
(2.30392e-05 -1.82007e-05 0)
(3.88446e-05 -1.68325e-05 0)
(5.4805e-05 -1.48669e-05 0)
(7.07184e-05 -1.28393e-05 0)
(8.64469e-05 -1.11093e-05 0)
(0.000101923 -9.88204e-06 0)
(0.000117138 -9.26704e-06 0)
(0.000132122 -9.33668e-06 0)
(0.00014693 -1.01725e-05 0)
(0.000161625 -1.19043e-05 0)
(0.000176259 -1.47501e-05 0)
(0.000190832 -1.90681e-05 0)
(0.000205209 -2.54248e-05 0)
(0.000218939 -3.46679e-05 0)
(0.000230906 -4.7915e-05 0)
(0.000238852 -6.61598e-05 0)
(0.000239401 -8.88389e-05 0)
(6.52335e-06 -1.7984e-05 0)
(1.98794e-05 -1.80467e-05 0)
(3.37786e-05 -1.68529e-05 0)
(4.80452e-05 -1.5001e-05 0)
(6.24906e-05 -1.30394e-05 0)
(7.69634e-05 -1.13484e-05 0)
(9.13636e-05 -1.01529e-05 0)
(0.000105639 -9.57917e-06 0)
(0.000119773 -9.71165e-06 0)
(0.00013377 -1.0639e-05 0)
(0.000147638 -1.24908e-05 0)
(0.000161363 -1.54713e-05 0)
(0.000174869 -1.98946e-05 0)
(0.000187935 -2.62179e-05 0)
(0.000200063 -3.50447e-05 0)
(0.000210277 -4.70161e-05 0)
(0.000216982 -6.24073e-05 0)
(0.000218312 -8.02372e-05 0)
(5.62456e-06 -1.71412e-05 0)
(1.72352e-05 -1.74474e-05 0)
(2.95102e-05 -1.64545e-05 0)
(4.23064e-05 -1.47543e-05 0)
(5.54548e-05 -1.29021e-05 0)
(6.88018e-05 -1.12908e-05 0)
(8.22266e-05 -1.01597e-05 0)
(9.56445e-05 -9.64795e-06 0)
(0.000109 -9.84909e-06 0)
(0.000122256 -1.08552e-05 0)
(0.000135373 -1.279e-05 0)
(0.000148288 -1.5835e-05 0)
(0.000160871 -2.02494e-05 0)
(0.000172865 -2.63757e-05 0)
(0.000183794 -3.46037e-05 0)
(0.00019288 -4.5236e-05 0)
(0.000199066 -5.81795e-05 0)
(0.000201361 -7.24797e-05 0)
(4.86663e-06 -1.59003e-05 0)
(1.49949e-05 -1.64506e-05 0)
(2.58675e-05 -1.56689e-05 0)
(3.73707e-05 -1.41448e-05 0)
(4.93603e-05 -1.2435e-05 0)
(6.16884e-05 -1.09375e-05 0)
(7.42221e-05 -9.89951e-06 0)
(8.68518e-05 -9.46823e-06 0)
(9.9491e-05 -9.74294e-06 0)
(0.000112067 -1.08155e-05 0)
(0.000124504 -1.27991e-05 0)
(0.000136702 -1.58468e-05 0)
(0.000148502 -2.01599e-05 0)
(0.00015964 -2.5975e-05 0)
(0.000169703 -3.35139e-05 0)
(0.00017811 -4.28645e-05 0)
(0.000184188 -5.37815e-05 0)
(0.000187432 -6.54817e-05 0)
(4.22119e-06 -1.43211e-05 0)
(1.30765e-05 -1.51003e-05 0)
(2.27237e-05 -1.4524e-05 0)
(3.30788e-05 -1.31877e-05 0)
(4.40263e-05 -1.16444e-05 0)
(5.54287e-05 -1.02888e-05 0)
(6.71462e-05 -9.36889e-06 0)
(7.90508e-05 -9.03479e-06 0)
(9.10308e-05 -9.38759e-06 0)
(0.000102985 -1.05156e-05 0)
(0.000114811 -1.25183e-05 0)
(0.000126383 -1.55185e-05 0)
(0.000137529 -1.9662e-05 0)
(0.000148003 -2.50972e-05 0)
(0.000157466 -3.19256e-05 0)
(0.000165501 -4.01139e-05 0)
(0.000171693 -4.93818e-05 0)
(0.000175795 -5.91325e-05 0)
(3.62111e-06 -1.26079e-05 0)
(1.12997e-05 -1.35745e-05 0)
(1.983e-05 -1.31746e-05 0)
(2.91551e-05 -1.20161e-05 0)
(3.91784e-05 -1.06432e-05 0)
(4.97659e-05 -9.43991e-06 0)
(6.07684e-05 -8.64859e-06 0)
(7.20414e-05 -8.41792e-06 0)
(8.34533e-05 -8.84758e-06 0)
(9.48826e-05 -1.00205e-05 0)
(0.000106208 -1.20223e-05 0)
(0.000117293 -1.49488e-05 0)
(0.000127966 -1.89006e-05 0)
(0.000138008 -2.39618e-05 0)
(0.000147145 -3.01583e-05 0)
(0.000155074 -3.73991e-05 0)
(0.000161529 -4.54186e-05 0)
(0.000166378 -5.37664e-05 0)
(3.22887e-06 -1.07266e-05 0)
(1.0112e-05 -1.18306e-05 0)
(1.78407e-05 -1.15749e-05 0)
(2.63919e-05 -1.05851e-05 0)
(3.56974e-05 -9.3896e-06 0)
(4.56361e-05 -8.35299e-06 0)
(5.60585e-05 -7.70518e-06 0)
(6.68111e-05 -7.58864e-06 0)
(7.77493e-05 -8.09881e-06 0)
(8.87373e-05 -9.31161e-06 0)
(9.96408e-05 -1.12988e-05 0)
(0.000110315 -1.41319e-05 0)
(0.000120595 -1.78755e-05 0)
(0.000130285 -2.25677e-05 0)
(0.000139165 -2.81892e-05 0)
(0.000147017 -3.46269e-05 0)
(0.000153669 -4.16487e-05 0)
(0.000159058 -4.89141e-05 0)
(2.83536e-06 -8.47402e-06 0)
(8.90228e-06 -9.64055e-06 0)
(1.57907e-05 -9.49105e-06 0)
(2.35346e-05 -8.67108e-06 0)
(3.20986e-05 -7.67849e-06 0)
(4.1371e-05 -6.84357e-06 0)
(5.11983e-05 -6.37319e-06 0)
(6.14166e-05 -6.39724e-06 0)
(7.18684e-05 -7.00293e-06 0)
(8.24052e-05 -8.25648e-06 0)
(9.28829e-05 -1.02141e-05 0)
(0.000103154 -1.29237e-05 0)
(0.000113064 -1.6418e-05 0)
(0.000122444 -2.06999e-05 0)
(0.000131127 -2.57227e-05 0)
(0.000138963 -3.1372e-05 0)
(0.00014585 -3.74589e-05 0)
(0.000151765 -4.37367e-05 0)
(2.42172e-06 -5.8925e-06 0)
(7.61702e-06 -6.94883e-06 0)
(1.3611e-05 -6.82823e-06 0)
(2.0527e-05 -6.16811e-06 0)
(2.83553e-05 -5.40442e-06 0)
(3.69795e-05 -4.80942e-06 0)
(4.62307e-05 -4.55331e-06 0)
(5.59289e-05 -4.74606e-06 0)
(6.59031e-05 -5.46247e-06 0)
(7.59941e-05 -6.75677e-06 0)
(8.60529e-05 -8.66978e-06 0)
(9.59366e-05 -1.12292e-05 0)
(0.000105506 -1.44447e-05 0)
(0.000114629 -1.8298e-05 0)
(0.000123184 -2.27332e-05 0)
(0.000131075 -2.76488e-05 0)
(0.000138247 -3.29001e-05 0)
(0.000144693 -3.8313e-05 0)
(1.90164e-06 -3.07241e-06 0)
(6.03778e-06 -3.69679e-06 0)
(1.10382e-05 -3.50166e-06 0)
(1.71333e-05 -2.99557e-06 0)
(2.42944e-05 -2.49193e-06 0)
(3.23572e-05 -2.1738e-06 0)
(4.11079e-05 -2.16163e-06 0)
(5.03356e-05 -2.54093e-06 0)
(5.98538e-05 -3.37335e-06 0)
(6.95036e-05 -4.70403e-06 0)
(7.91507e-05 -6.56503e-06 0)
(8.86784e-05 -8.97202e-06 0)
(9.79817e-05 -1.19218e-05 0)
(0.000106965 -1.53873e-05 0)
(0.000115546 -1.93126e-05 0)
(0.000123659 -2.36126e-05 0)
(0.000131261 -2.81772e-05 0)
(0.000138339 -3.28814e-05 0)
(9.64312e-07 9.03519e-09 0)
(3.34897e-06 2.26261e-07 0)
(6.96245e-06 5.26343e-07 0)
(1.20697e-05 8.25237e-07 0)
(1.84777e-05 1.03087e-06 0)
(2.59147e-05 1.04782e-06 0)
(3.41417e-05 7.92717e-07 0)
(4.29556e-05 2.00693e-07 0)
(5.21781e-05 -7.75072e-07 0)
(6.16739e-05 -2.21827e-06 0)
(7.13473e-05 -4.14249e-06 0)
(8.10819e-05 -6.50835e-06 0)
(9.07434e-05 -9.30582e-06 0)
(0.000100215 -1.25036e-05 0)
(0.000109396 -1.60494e-05 0)
(0.000118211 -1.98723e-05 0)
(0.000126604 -2.38874e-05 0)
(0.000134545 -2.80037e-05 0)
(2.2686e-06 3.67684e-06 0)
(6.94636e-06 4.97695e-06 0)
(1.20808e-05 5.55195e-06 0)
(1.79386e-05 5.70849e-06 0)
(2.46254e-05 5.59279e-06 0)
(3.21141e-05 5.22949e-06 0)
(4.02955e-05 4.59869e-06 0)
(4.90261e-05 3.67333e-06 0)
(5.81557e-05 2.43187e-06 0)
(6.75188e-05 8.09785e-07 0)
(7.69389e-05 -1.18757e-06 0)
(8.6346e-05 -3.65971e-06 0)
(9.57227e-05 -6.47755e-06 0)
(0.000104984 -9.55704e-06 0)
(0.000114036 -1.28543e-05 0)
(0.000122804 -1.63148e-05 0)
(0.000131233 -1.98775e-05 0)
(0.000139289 -2.34801e-05 0)
(3.17242e-06 8.72691e-06 0)
(9.73319e-06 1.07369e-05 0)
(1.67333e-05 1.16384e-05 0)
(2.42041e-05 1.17527e-05 0)
(3.21799e-05 1.13328e-05 0)
(4.0656e-05 1.05286e-05 0)
(4.9582e-05 9.41775e-06 0)
(5.88736e-05 8.03762e-06 0)
(6.84285e-05 6.40717e-06 0)
(7.81391e-05 4.53831e-06 0)
(8.79014e-05 2.44558e-06 0)
(9.75645e-05 -6.66257e-09 0)
(0.000106985 -2.7164e-06 0)
(0.000116151 -5.70144e-06 0)
(0.000125068 -8.77962e-06 0)
(0.000133688 -1.19152e-05 0)
(0.000141977 -1.50698e-05 0)
(0.000149915 -1.82056e-05 0)
(3.62315e-06 1.43373e-05 0)
(1.11852e-05 1.63389e-05 0)
(1.93309e-05 1.72063e-05 0)
(2.79846e-05 1.71535e-05 0)
(3.70934e-05 1.64308e-05 0)
(4.65997e-05 1.52365e-05 0)
(5.64302e-05 1.37059e-05 0)
(6.64978e-05 1.19257e-05 0)
(7.67078e-05 9.95003e-06 0)
(8.69657e-05 7.81407e-06 0)
(9.71821e-05 5.54361e-06 0)
(0.000107276 3.15969e-06 0)
(0.000117168 6.52082e-07 0)
(0.000126732 -2.0951e-06 0)
(0.000135937 -4.97558e-06 0)
(0.000144824 -7.83934e-06 0)
(0.000153369 -1.06645e-05 0)
(0.000161557 -1.34297e-05 0)
(4.32271e-06 1.91693e-05 0)
(1.32718e-05 2.07834e-05 0)
(2.27827e-05 2.13269e-05 0)
(3.27642e-05 2.09544e-05 0)
(4.31275e-05 1.98978e-05 0)
(5.37854e-05 1.83648e-05 0)
(6.46475e-05 1.65116e-05 0)
(7.5621e-05 1.44453e-05 0)
(8.66143e-05 1.22361e-05 0)
(9.7541e-05 9.92967e-06 0)
(0.000108323 7.5567e-06 0)
(0.000118891 5.14003e-06 0)
(0.00012919 2.69865e-06 0)
(0.000139157 2.09551e-07 0)
(0.000148714 -2.45062e-06 0)
(0.00015785 -5.11724e-06 0)
(0.000166598 -7.70698e-06 0)
(0.000174955 -1.02083e-05 0)
(5.18146e-06 2.30877e-05 0)
(1.58002e-05 2.4242e-05 0)
(2.68958e-05 2.43753e-05 0)
(3.83815e-05 2.36328e-05 0)
(5.01508e-05 2.22385e-05 0)
(6.20962e-05 2.04021e-05 0)
(7.41141e-05 1.8287e-05 0)
(8.6107e-05 1.60083e-05 0)
(9.79854e-05 1.36421e-05 0)
(0.00010967 1.12369e-05 0)
(0.000121094 8.82368e-06 0)
(0.000132201 6.42281e-06 0)
(0.000142948 4.04926e-06 0)
(0.0001533 1.71511e-06 0)
(0.000163196 -6.42165e-07 0)
(0.000172616 -3.10474e-06 0)
(0.000181592 -5.47109e-06 0)
(0.000190132 -7.73081e-06 0)
(6.22375e-06 2.58454e-05 0)
(1.88575e-05 2.65596e-05 0)
(3.18344e-05 2.62854e-05 0)
(4.50692e-05 2.51873e-05 0)
(5.84454e-05 2.34922e-05 0)
(7.18437e-05 2.14103e-05 0)
(8.51539e-05 1.91058e-05 0)
(9.82785e-05 1.66939e-05 0)
(0.000111134 1.42496e-05 0)
(0.000123652 1.18193e-05 0)
(0.000135778 9.43027e-06 0)
(0.000147471 7.09859e-06 0)
(0.0001587 4.83402e-06 0)
(0.000169447 2.64313e-06 0)
(0.000179702 5.30944e-07 0)
(0.000189419 -1.66521e-06 0)
(0.0001986 -3.80635e-06 0)
(0.000207299 -5.8311e-06 0)
(7.48377e-06 2.73278e-05 0)
(2.25488e-05 2.76576e-05 0)
(3.77753e-05 2.70289e-05 0)
(5.30696e-05 2.56349e-05 0)
(6.83064e-05 2.37098e-05 0)
(8.33615e-05 2.14634e-05 0)
(9.81258e-05 1.90557e-05 0)
(0.000112509 1.6597e-05 0)
(0.000126441 1.41568e-05 0)
(0.000139869 1.17758e-05 0)
(0.000152756 9.47573e-06 0)
(0.000165077 7.26696e-06 0)
(0.000176821 5.15385e-06 0)
(0.000187985 3.13765e-06 0)
(0.000198572 1.21828e-06 0)
(0.000208562 -6.72284e-07 0)
(0.000217969 -2.58183e-06 0)
(0.000226841 -4.37213e-06 0)
(9.01375e-06 2.74905e-05 0)
(2.70271e-05 2.75064e-05 0)
(4.49642e-05 2.6605e-05 0)
(6.27094e-05 2.50051e-05 0)
(8.01282e-05 2.29466e-05 0)
(9.70976e-05 2.06348e-05 0)
(0.000113519 1.82219e-05 0)
(0.000129319 1.58092e-05 0)
(0.00014445 1.34578e-05 0)
(0.000158881 1.12007e-05 0)
(0.000172599 9.05308e-06 0)
(0.000185603 7.01954e-06 0)
(0.000197902 5.09933e-06 0)
(0.000209511 3.28918e-06 0)
(0.000220451 1.58505e-06 0)
(0.00023074 -3.08906e-08 0)
(0.000240387 -1.68939e-06 0)
(0.00024942 -3.24416e-06 0)
(1.08978e-05 2.63145e-05 0)
(3.25368e-05 2.6095e-05 0)
(5.37886e-05 2.50208e-05 0)
(7.45002e-05 2.33265e-05 0)
(9.45266e-05 2.125e-05 0)
(0.000113754 1.89866e-05 0)
(0.000132104 1.66759e-05 0)
(0.000149536 1.4407e-05 0)
(0.000166032 1.22308e-05 0)
(0.000181597 1.01719e-05 0)
(0.000196248 8.23887e-06 0)
(0.000210015 6.4311e-06 0)
(0.00022293 4.74364e-06 0)
(0.000235032 3.1698e-06 0)
(0.000246362 1.70264e-06 0)
(0.000256961 3.35766e-07 0)
(0.000266845 -1.04742e-06 0)
(0.000276051 -2.3644e-06 0)
(1.32843e-05 2.3767e-05 0)
(3.95093e-05 2.33965e-05 0)
(6.49325e-05 2.22644e-05 0)
(8.9345e-05 2.06048e-05 0)
(0.00011259 1.86424e-05 0)
(0.000134573 1.65541e-05 0)
(0.000155254 1.44619e-05 0)
(0.000174637 1.24401e-05 0)
(0.000192755 1.05282e-05 0)
(0.000209657 8.74269e-06 0)
(0.000225406 7.08625e-06 0)
(0.000240065 5.55429e-06 0)
(0.000253702 4.13896e-06 0)
(0.000266383 2.83145e-06 0)
(0.000278172 1.62323e-06 0)
(0.000289129 5.06465e-07 0)
(0.000299294 -5.94341e-07 0)
(0.000308716 -1.66956e-06 0)
(1.64749e-05 1.97461e-05 0)
(4.88233e-05 1.93174e-05 0)
(7.97927e-05 1.82592e-05 0)
(0.000109092 1.67843e-05 0)
(0.000136552 1.50879e-05 0)
(0.000162114 1.33184e-05 0)
(0.000185799 1.15743e-05 0)
(0.000207681 9.91278e-06 0)
(0.000227865 8.36155e-06 0)
(0.000246468 6.92977e-06 0)
(0.00026361 5.61584e-06 0)
(0.000279407 4.41288e-06 0)
(0.000293968 3.31186e-06 0)
(0.000307396 2.30351e-06 0)
(0.000319785 1.37913e-06 0)
(0.000331221 5.30921e-07 0)
(0.000341766 -2.86331e-07 0)
(0.000351491 -1.11377e-06 0)
(2.12532e-05 1.39512e-05 0)
(6.2765e-05 1.35744e-05 0)
(0.000102012 1.2753e-05 0)
(0.000138575 1.16496e-05 0)
(0.000172273 1.04084e-05 0)
(0.000203109 9.13564e-06 0)
(0.000231209 7.899e-06 0)
(0.000256763 6.73578e-06 0)
(0.000279989 5.6623e-06 0)
(0.000301107 4.682e-06 0)
(0.000320326 3.79127e-06 0)
(0.000337839 2.98324e-06 0)
(0.000353817 2.24998e-06 0)
(0.000368416 1.58374e-06 0)
(0.000381773 9.77409e-07 0)
(0.000394008 4.247e-07 0)
(0.00040522 -9.69393e-08 0)
(0.000415516 -6.7102e-07 0)
(3.15009e-05 5.28811e-06 0)
(9.27045e-05 5.12817e-06 0)
(0.000149834 4.7998e-06 0)
(0.000202212 4.36773e-06 0)
(0.000249644 3.8881e-06 0)
(0.000292279 3.40139e-06 0)
(0.000330462 2.93279e-06 0)
(0.000364628 2.49562e-06 0)
(0.000395227 2.09522e-06 0)
(0.000422687 1.73215e-06 0)
(0.000447394 1.40442e-06 0)
(0.000469691 1.10894e-06 0)
(0.000489871 8.42347e-07 0)
(0.00050819 6.01409e-07 0)
(0.000524867 3.83221e-07 0)
(0.00054009 1.85213e-07 0)
(0.00055402 9.38792e-10 0)
(0.00056669 -2.22024e-07 0)
(0.000267828 -0.000572471 -7.39584e-30)
(0.000803879 -0.000567886 7.33026e-30)
(0.001338 -0.000559138 0)
(0.00186618 -0.000546275 0)
(0.00238426 -0.000529179 0)
(0.00288948 -0.000511027 -6.57076e-30)
(0.00338175 -0.000494262 0)
(0.00386274 -0.000479955 0)
(0.00433432 -0.00046741 0)
(0.00479717 -0.000454821 0)
(0.00525032 -0.000440719 5.63418e-30)
(0.00569195 -0.000424909 0)
(0.00612047 -0.000408171 0)
(0.00653515 -0.000391409 0)
(0.0069359 -0.00037498 0)
(0.00732263 -0.000358543 4.54762e-30)
(0.00769468 -0.000341378 0)
(0.00805071 -0.000322903 0)
(0.00838893 -0.00030297 0)
(0.00870754 -0.000281803 0)
(0.00900507 -0.000259798 0)
(0.00928044 -0.000237358 0)
(0.00953298 -0.000214845 0)
(0.0097624 -0.000192579 2.37378e-30)
(0.00996874 -0.000170847 -2.09047e-30)
(0.0101524 -0.000149896 1.81752e-30)
(0.0103139 -0.000129936 1.55763e-30)
(0.0104542 -0.000111136 0)
(0.0105743 -9.36272e-05 0)
(0.0106756 -7.74983e-05 -8.75619e-31)
(0.0107593 -6.28001e-05 -6.84662e-31)
(0.0108269 -4.95466e-05 0)
(0.0108798 -3.77195e-05 0)
(0.0109195 -2.7273e-05 -2.23594e-31)
(0.0109475 -1.81394e-05 0)
(0.0109652 -1.02349e-05 0)
(0.0109737 -3.46464e-06 -8.47619e-32)
(0.0109745 2.27206e-06 0)
(0.0109685 7.07767e-06 -2.20957e-31)
(0.0109568 1.10531e-05 -5.44399e-31)
(0.0109404 1.42953e-05 0)
(0.01092 1.68953e-05 0)
(0.0108963 1.89373e-05 0)
(0.0108701 2.04979e-05 0)
(0.0108419 2.16461e-05 0)
(0.010812 2.24432e-05 -8.35409e-31)
(0.0107811 2.29436e-05 -8.47609e-31)
(0.0107494 2.31946e-05 -8.5335e-31)
(0.0107172 2.32377e-05 0)
(0.0106848 2.31086e-05 8.496e-31)
(0.0106524 2.28382e-05 0)
(0.0106202 2.2453e-05 -8.31128e-31)
(0.0105883 2.19756e-05 -8.18041e-31)
(0.0105569 2.14254e-05 0)
(0.0105261 2.08188e-05 0)
(0.010496 2.01697e-05 0)
(0.0104666 1.94899e-05 -7.50908e-31)
(0.010438 1.87892e-05 0)
(0.0104102 1.8076e-05 0)
(0.0103832 1.73571e-05 0)
(0.0103572 1.66385e-05 0)
(0.010332 1.59247e-05 0)
(0.0103077 1.52198e-05 0)
(0.0102843 1.4527e-05 0)
(0.0102618 1.38488e-05 0)
(0.0102401 1.31872e-05 5.82644e-31)
(0.0102194 1.2544e-05 0)
(0.0101995 1.19202e-05 0)
(0.0101804 1.13167e-05 -5.3288e-31)
(0.0101621 1.07343e-05 -5.17398e-31)
(0.0101447 1.01732e-05 0)
(0.010128 9.63363e-06 4.88137e-31)
(0.0101121 9.11565e-06 -4.74374e-31)
(0.0100969 8.61912e-06 0)
(0.0100824 8.14381e-06 4.48553e-31)
(0.0100686 7.68941e-06 0)
(0.0100555 7.2555e-06 0)
(0.010043 6.84163e-06 -4.13958e-31)
(0.0100311 6.44728e-06 0)
(0.0100199 6.0719e-06 3.93516e-31)
(0.0100091 5.71492e-06 0)
(0.00999897 5.37573e-06 -3.7503e-31)
(0.00998932 5.05371e-06 -3.66476e-31)
(0.00998017 4.74825e-06 -3.58364e-31)
(0.00997151 4.45872e-06 -7.01348e-31)
(0.00996331 4.18449e-06 6.86788e-31)
(0.00995555 3.92493e-06 0)
(0.0099482 3.67944e-06 0)
(0.00994126 3.44741e-06 0)
(0.0099347 3.22824e-06 6.35996e-31)
(0.00992851 3.02136e-06 6.25011e-31)
(0.00992267 2.82619e-06 -6.14643e-31)
(0.00991715 2.6422e-06 0)
(0.00991195 2.46884e-06 5.95662e-31)
(0.00990706 2.3056e-06 5.86996e-31)
(0.00990244 2.15198e-06 5.78836e-31)
(0.0098981 2.0075e-06 0)
(0.00989402 1.87169e-06 0)
(0.00989018 1.74411e-06 0)
(0.00988657 1.62433e-06 5.50807e-31)
(0.00988318 1.51194e-06 0)
(0.00987999 1.40654e-06 0)
(0.00987701 1.30775e-06 -5.33985e-31)
(0.00987421 1.21521e-06 0)
(0.00987159 1.12858e-06 0)
(0.00986913 1.04753e-06 -5.20162e-31)
(0.00986683 9.71738e-07 0)
(0.00986468 9.00907e-07 0)
(0.00986266 8.34753e-07 5.08856e-31)
(0.00986078 7.73001e-07 5.05575e-31)
(0.00985903 7.15394e-07 0)
(0.00985739 6.61685e-07 -4.99662e-31)
(0.00985586 6.11641e-07 0)
(0.00985443 5.6504e-07 4.94524e-31)
(0.0098531 5.21671e-07 0)
(0.00985187 4.81336e-07 4.90078e-31)
(0.00985072 4.43845e-07 4.8808e-31)
(0.00984964 4.09021e-07 0)
(0.00984865 3.76693e-07 0)
(0.00984773 3.46702e-07 0)
(0.00984687 3.18898e-07 0)
(0.00984607 2.93138e-07 0)
(0.00984533 2.69289e-07 0)
(0.00984465 2.47223e-07 0)
(0.00984401 2.26823e-07 4.76549e-31)
(0.00984343 2.07976e-07 -4.75542e-31)
(0.00984289 1.90578e-07 0)
(0.00984238 1.74529e-07 0)
(0.00984192 1.59739e-07 0)
(0.00984149 1.4612e-07 0)
(0.0098411 1.33594e-07 -9.43175e-31)
(0.00984074 1.22084e-07 0)
(0.0098404 1.11522e-07 9.40829e-31)
(0.00984009 1.01843e-07 -9.398e-31)
(0.00983981 9.29898e-08 0)
(0.00983954 8.49079e-08 0)
(0.0098393 7.75492e-08 0)
(0.00983908 7.08706e-08 9.36506e-31)
(0.00983887 6.48348e-08 9.35862e-31)
(0.00983868 5.94099e-08 0)
(0.00983851 5.45704e-08 9.34762e-31)
(0.00983834 5.02977e-08 9.34301e-31)
(0.00983819 4.65806e-08 -9.33908e-31)
(0.00983805 4.34165e-08 0)
(0.00983791 4.0813e-08 0)
(0.00983778 3.87894e-08 -9.33064e-31)
(0.00983766 3.73789e-08 0)
(0.00983754 3.66318e-08 0)
(0.00983742 3.66192e-08 0)
(0.00983729 3.74377e-08 0)
(0.00983716 3.92157e-08 9.33047e-31)
(0.00983702 4.21213e-08 9.33335e-31)
(0.00983687 4.63724e-08 0)
(0.0098367 5.225e-08 9.34352e-31)
(0.0098365 6.01145e-08 0)
(0.00983627 7.04286e-08 0)
(0.00983599 8.37843e-08 9.37546e-31)
(0.00983566 1.00941e-07 0)
(0.00983525 1.22871e-07 9.41519e-31)
(0.00983474 1.50828e-07 0)
(0.00983412 1.86426e-07 0)
(0.00983333 2.31753e-07 9.52594e-31)
(0.00983234 2.89522e-07 0)
(0.00983109 3.6328e-07 9.65981e-31)
(0.0098295 4.57687e-07 0)
(0.00982748 5.78916e-07 0)
(0.00982489 7.35226e-07 0)
(0.00982156 9.37797e-07 -1.02449e-30)
(0.00981726 1.20198e-06 0)
(0.00981168 1.54924e-06 1.08677e-30)
(0.0098044 2.01029e-06 0)
(0.0097948 2.63036e-06 0)
(0.00978205 3.47857e-06 0)
(0.00976488 4.66567e-06 0)
(0.00974137 6.38061e-06 0)
(0.00970837 8.97419e-06 0)
(0.00966029 1.31792e-05 0)
(0.00958578 2.08134e-05 -6.11462e-30)
(0.00945622 3.77042e-05 0)
(0.00916911 9.06675e-05 0)
(0.000277049 -0.00173713 2.2442e-29)
(0.000831037 -0.00172214 -2.22286e-29)
(0.00138234 -0.00169525 0)
(0.00192758 -0.00165677 4.27355e-29)
(0.00245616 -0.00159155 0)
(0.00296017 -0.00152676 -1.96979e-29)
(0.00344408 -0.00147218 -3.78922e-29)
(0.00391605 -0.0014323 -3.6839e-29)
(0.00438374 -0.00140205 0)
(0.00484926 -0.00137005 -3.51859e-29)
(0.00530834 -0.00132838 1.71063e-29)
(0.00575467 -0.00127784 0)
(0.00618456 -0.00122418 0)
(0.00659815 -0.00117257 0)
(0.00699778 -0.00112456 0)
(0.0073854 -0.00107781 1.38432e-29)
(0.00776078 -0.0010283 0)
(0.00812144 -0.0009733 2.47757e-29)
(0.00846407 -0.000912631 0)
(0.0087859 -0.000847731 0)
(0.00908514 -0.000780339 -1.97423e-29)
(0.00936081 -0.00071183 0)
(0.00961243 -0.000643271 1.61743e-29)
(0.00983986 -0.000575611 7.32344e-30)
(0.0100433 -0.000509702 -6.46918e-30)
(0.0102233 -0.000446281 5.64737e-30)
(0.0103805 -0.000385971 4.86602e-30)
(0.0105161 -0.000329278 0)
(0.0106313 -0.000276586 0)
(0.0107273 -0.000228154 -2.82218e-30)
(0.0108058 -0.000184118 -6.5012e-30)
(0.0108683 -0.000144504 0)
(0.0109163 -0.000109239 0)
(0.0109514 -7.81676e-05 -8.81016e-31)
(0.010975 -5.1068e-05 0)
(0.0109886 -2.76726e-05 0)
(0.0109936 -7.68382e-06 -3.04648e-32)
(0.0109911 9.2113e-06 0)
(0.0109822 2.33282e-05 -1.55273e-30)
(0.010968 3.49751e-05 -1.16303e-30)
(0.0109494 4.44461e-05 0)
(0.0109271 5.2016e-05 0)
(0.0109018 5.79372e-05 4.02482e-30)
(0.0108742 6.24391e-05 4.25495e-30)
(0.0108448 6.57269e-05 4.42214e-30)
(0.010814 6.7983e-05 -6.54851e-30)
(0.0107822 6.9368e-05 -2.04768e-30)
(0.0107498 7.00223e-05 2.57142e-30)
(0.0107171 7.00677e-05 -4.6345e-30)
(0.0106843 6.96098e-05 2.05162e-30)
(0.0106515 6.87394e-05 0)
(0.010619 6.75343e-05 -1.99643e-30)
(0.0105869 6.6061e-05 -6.37266e-30)
(0.0105554 6.43763e-05 0)
(0.0105245 6.25283e-05 0)
(0.0104942 6.05579e-05 0)
(0.0104648 5.84994e-05 -1.75924e-30)
(0.0104361 5.63819e-05 0)
(0.0104083 5.42298e-05 -3.78654e-30)
(0.0103814 5.20633e-05 0)
(0.0103553 4.98994e-05 -3.55766e-30)
(0.0103302 4.7752e-05 0)
(0.0103059 4.56326e-05 3.33241e-30)
(0.0102826 4.35506e-05 0)
(0.0102601 4.15134e-05 -3.11513e-30)
(0.0102385 3.95271e-05 4.27387e-30)
(0.0102178 3.75962e-05 0)
(0.010198 3.57242e-05 2.80996e-30)
(0.010179 3.39138e-05 -1.11697e-30)
(0.0101608 3.21667e-05 -1.07138e-30)
(0.0101434 3.0484e-05 0)
(0.0101268 2.88661e-05 3.43394e-30)
(0.0101109 2.73131e-05 -9.44739e-31)
(0.0100958 2.58246e-05 0)
(0.0100814 2.43998e-05 8.68736e-31)
(0.0100676 2.30379e-05 2.14178e-30)
(0.0100546 2.17374e-05 0)
(0.0100421 2.04971e-05 -7.66923e-31)
(0.0100303 1.93154e-05 0)
(0.0100191 1.81905e-05 -1.17984e-30)
(0.0100084 1.71209e-05 0)
(0.00999826 1.61046e-05 1.12445e-30)
(0.00998865 1.51398e-05 -6.27179e-31)
(0.00997955 1.42246e-05 -2.28114e-30)
(0.00997092 1.33571e-05 -4.4257e-30)
(0.00996276 1.25355e-05 4.29636e-30)
(0.00995503 1.17579e-05 0)
(0.00994772 1.10225e-05 0)
(0.00994081 1.03274e-05 0)
(0.00993428 9.67079e-06 -1.90721e-30)
(0.00992811 9.05103e-06 9.36718e-31)
(0.00992229 8.46638e-06 -9.06216e-31)
(0.0099168 7.91519e-06 0)
(0.00991163 7.39587e-06 3.48713e-30)
(0.00990675 6.90686e-06 8.24861e-31)
(0.00990216 6.44667e-06 8.00853e-31)
(0.00989784 6.01386e-06 0)
(0.00989377 5.60704e-06 0)
(0.00988995 5.22486e-06 0)
(0.00988635 4.86604e-06 7.1839e-31)
(0.00988298 4.52935e-06 0)
(0.00987981 4.21361e-06 2.30171e-30)
(0.00987684 3.91767e-06 1.60165e-30)
(0.00987405 3.64047e-06 -2.24137e-30)
(0.00987144 3.38096e-06 0)
(0.00986899 3.13815e-06 -2.81671e-30)
(0.0098667 2.91111e-06 0)
(0.00986456 2.69892e-06 -2.14222e-30)
(0.00986256 2.50074e-06 2.71633e-30)
(0.00986068 2.31576e-06 2.6872e-30)
(0.00985893 2.14318e-06 0)
(0.0098573 1.98229e-06 1.49882e-30)
(0.00985578 1.83237e-06 -2.05096e-30)
(0.00985436 1.69277e-06 5.52822e-31)
(0.00985304 1.56285e-06 0)
(0.0098518 1.44202e-06 5.39741e-31)
(0.00985066 1.3297e-06 -1.46415e-30)
(0.00984959 1.22538e-06 0)
(0.0098486 1.12853e-06 -1.97683e-30)
(0.00984768 1.03868e-06 -1.96737e-30)
(0.00984683 9.55389e-07 -1.9586e-30)
(0.00984603 8.78218e-07 0)
(0.0098453 8.0677e-07 0)
(0.00984462 7.40666e-07 0)
(0.00984399 6.79549e-07 2.42949e-30)
(0.0098434 6.23086e-07 -4.97002e-31)
(0.00984286 5.70963e-07 0)
(0.00984236 5.22884e-07 1.91303e-30)
(0.0098419 4.78573e-07 1.90836e-30)
(0.00984148 4.37773e-07 0)
(0.00984108 4.00243e-07 -9.70745e-31)
(0.00984072 3.6576e-07 3.79296e-30)
(0.00984039 3.34115e-07 9.63843e-31)
(0.00984008 3.05118e-07 -4.74098e-30)
(0.00983979 2.78592e-07 0)
(0.00983953 2.54377e-07 0)
(0.00983929 2.32328e-07 0)
(0.00983907 2.12316e-07 9.5113e-31)
(0.00983886 1.94229e-07 4.70602e-30)
(0.00983868 1.77971e-07 3.75334e-30)
(0.0098385 1.63467e-07 9.46021e-31)
(0.00983834 1.50659e-07 4.69224e-30)
(0.00983819 1.39514e-07 -9.43516e-31)
(0.00983804 1.30024e-07 0)
(0.00983791 1.22211e-07 0)
(0.00983778 1.16133e-07 -4.68128e-30)
(0.00983766 1.11888e-07 0)
(0.00983754 1.09627e-07 0)
(0.00983742 1.0956e-07 3.73872e-30)
(0.00983729 1.11978e-07 0)
(0.00983716 1.17262e-07 4.68133e-30)
(0.00983703 1.25914e-07 9.41999e-31)
(0.00983688 1.38584e-07 0)
(0.00983671 1.56112e-07 4.69317e-30)
(0.00983651 1.79572e-07 0)
(0.00983628 2.10346e-07 0)
(0.00983601 2.50201e-07 9.54755e-31)
(0.00983568 3.01402e-07 3.77774e-30)
(0.00983528 3.66855e-07 9.66749e-31)
(0.00983478 4.50297e-07 0)
(0.00983416 5.56544e-07 0)
(0.00983339 6.91827e-07 4.85778e-30)
(0.00983241 8.64241e-07 0)
(0.00983118 1.08436e-06 4.9785e-30)
(0.00982962 1.36607e-06 0)
(0.00982762 1.72777e-06 0)
(0.00982507 2.19406e-06 0)
(0.0098218 2.7982e-06 -1.21687e-30)
(0.00981757 3.58583e-06 0)
(0.00981208 4.62068e-06 1.40439e-30)
(0.00980492 5.99378e-06 0)
(0.00979551 7.83886e-06 0)
(0.00978302 1.03595e-05 5.83782e-30)
(0.00976626 1.38805e-05 -6.5596e-30)
(0.00974339 1.89514e-05 0)
(0.00971153 2.65796e-05 0)
(0.00966573 3.88209e-05 0)
(0.00959693 6.05404e-05 1.79573e-29)
(0.0094876 0.000105848 0)
(0.00931513 0.000227902 -1.01296e-28)
(0.00029807 -0.00296646 1.53327e-28)
(0.000889251 -0.00292915 -2.11519e-32)
(0.00147201 -0.00288144 0)
(0.00207888 -0.00288201 4.92357e-32)
(0.00265014 -0.00265051 0)
(0.00313172 -0.0024979 0)
(0.00357148 -0.00238793 -1.23031e-28)
(0.00400176 -0.00234431 -6.041e-29)
(0.00445621 -0.00234264 6.02401e-29)
(0.00494059 -0.0023223 -5.97967e-29)
(0.00542912 -0.00224924 0)
(0.00589288 -0.00214139 0)
(0.006322 -0.00203121 -5.20576e-29)
(0.00672429 -0.00193921 -9.9302e-29)
(0.00711424 -0.00186833 9.55823e-29)
(0.00750232 -0.00180573 0)
(0.0078884 -0.00173324 8.84888e-29)
(0.00826366 -0.00164193 4.20525e-29)
(0.0086185 -0.00153526 0)
(0.00894767 -0.00142053 7.21721e-29)
(0.00924993 -0.00130308 -3.3247e-29)
(0.00952554 -0.001185 -5.99133e-29)
(0.0097747 -0.00106741 2.71303e-29)
(0.00999759 -0.000951782 0)
(0.0101947 -0.000839584 4.19612e-29)
(0.0103668 -0.000732014 3.63756e-29)
(0.0105151 -0.000630085 0)
(0.0106408 -0.000534645 2.61331e-29)
(0.0107455 -0.000446315 0)
(0.0108309 -0.000365488 1.7361e-29)
(0.0108986 -0.000292344 -7.0423e-30)
(0.0109506 -0.000226866 0)
(0.0109886 -0.000168868 0)
(0.0110142 -0.000118023 0)
(0.011029 -7.39037e-05 0)
(0.0110346 -3.60078e-05 0)
(0.0110323 -3.79379e-06 0)
(0.0110234 2.32954e-05 -2.76586e-30)
(0.0110088 4.58112e-05 2.22382e-30)
(0.0109896 6.42847e-05 0)
(0.0109667 7.92154e-05 0)
(0.0109407 9.10652e-05 0)
(0.0109122 0.000100255 1.29424e-29)
(0.0108819 0.000107163 6.56782e-30)
(0.0108502 0.000112125 -5.12322e-31)
(0.0108175 0.00011544 5.10774e-31)
(0.0107842 0.000117367 7.59534e-30)
(0.0107505 0.000118133 7.12258e-30)
(0.0107167 0.000117934 -1.47242e-29)
(0.010683 0.00011694 -7.55895e-30)
(0.0106496 0.000115296 0)
(0.0106166 0.000113125 -7.35231e-30)
(0.0105841 0.000110535 -1.39279e-29)
(0.0105522 0.000107616 0)
(0.010521 0.000104444 0)
(0.0104907 0.000101084 6.71196e-30)
(0.0104611 9.75914e-05 0)
(0.0104324 9.40121e-05 0)
(0.0104046 9.03847e-05 -1.79486e-29)
(0.0103776 8.67416e-05 -1.19089e-29)
(0.0103516 8.31095e-05 -5.27423e-30)
(0.0103266 7.95105e-05 0)
(0.0103024 7.5963e-05 4.90011e-30)
(0.0102791 7.24816e-05 0)
(0.0102568 6.90781e-05 -1.45882e-29)
(0.0102353 6.57619e-05 4.3664e-30)
(0.0102147 6.25404e-05 9.36045e-30)
(0.010195 5.94189e-05 1.30668e-29)
(0.0101761 5.64014e-05 0)
(0.0101581 5.34905e-05 -8.40867e-30)
(0.0101408 5.06879e-05 0)
(0.0101243 4.7994e-05 -4.39343e-30)
(0.0101086 4.54089e-05 -7.55902e-30)
(0.0100936 4.29317e-05 -7.29862e-30)
(0.0100793 4.0561e-05 7.04946e-30)
(0.0100656 3.82952e-05 -3.88093e-30)
(0.0100527 3.6132e-05 0)
(0.0100403 3.40692e-05 0)