/*--------------------------------*- C++ -*----------------------------------*\
  =========                 |
  \\      /  F ield         | OpenFOAM: The Open Source CFD Toolbox
   \\    /   O peration     | Website:  https://openfoam.org
    \\  /    A nd           | Version:  10
     \\/     M anipulation  |
\*---------------------------------------------------------------------------*/
FoamFile
{
    format      ascii;
    class       volScalarField;
    location    "1.6";
    object      p;
}
// * * * * * * * * * * * * * * * * * * * * * * * * * * * * * * * * * * * * * //

dimensions      [1 -1 -2 0 0 0 0];

internalField   nonuniform List<scalar> 
12225
(
1.13556e+07
1.13557e+07
1.13557e+07
1.13558e+07
1.1356e+07
1.13563e+07
1.13567e+07
1.13574e+07
1.13583e+07
1.13596e+07
1.13614e+07
1.13639e+07
1.13671e+07
1.13712e+07
1.13765e+07
1.13832e+07
1.13916e+07
1.14026e+07
1.13556e+07
1.13557e+07
1.13557e+07
1.13558e+07
1.1356e+07
1.13563e+07
1.13567e+07
1.13574e+07
1.13583e+07
1.13596e+07
1.13614e+07
1.13638e+07
1.1367e+07
1.13711e+07
1.13763e+07
1.13829e+07
1.13911e+07
1.14015e+07
1.13556e+07
1.13556e+07
1.13557e+07
1.13558e+07
1.1356e+07
1.13563e+07
1.13567e+07
1.13573e+07
1.13582e+07
1.13595e+07
1.13612e+07
1.13636e+07
1.13667e+07
1.13707e+07
1.13758e+07
1.13822e+07
1.13901e+07
1.13997e+07
1.13556e+07
1.13556e+07
1.13557e+07
1.13558e+07
1.1356e+07
1.13562e+07
1.13566e+07
1.13572e+07
1.13581e+07
1.13593e+07
1.1361e+07
1.13632e+07
1.13662e+07
1.13701e+07
1.13751e+07
1.13812e+07
1.13887e+07
1.13974e+07
1.13556e+07
1.13556e+07
1.13557e+07
1.13558e+07
1.13559e+07
1.13562e+07
1.13565e+07
1.13571e+07
1.13579e+07
1.1359e+07
1.13606e+07
1.13627e+07
1.13656e+07
1.13693e+07
1.1374e+07
1.13798e+07
1.13867e+07
1.13947e+07
1.13556e+07
1.13556e+07
1.13556e+07
1.13557e+07
1.13559e+07
1.13561e+07
1.13564e+07
1.13569e+07
1.13576e+07
1.13587e+07
1.13601e+07
1.13621e+07
1.13647e+07
1.13681e+07
1.13725e+07
1.13779e+07
1.13843e+07
1.13916e+07
1.13556e+07
1.13556e+07
1.13556e+07
1.13557e+07
1.13558e+07
1.1356e+07
1.13563e+07
1.13567e+07
1.13573e+07
1.13582e+07
1.13594e+07
1.13612e+07
1.13635e+07
1.13666e+07
1.13706e+07
1.13755e+07
1.13814e+07
1.13881e+07
1.13556e+07
1.13556e+07
1.13556e+07
1.13556e+07
1.13557e+07
1.13559e+07
1.13561e+07
1.13564e+07
1.13569e+07
1.13576e+07
1.13586e+07
1.13601e+07
1.1362e+07
1.13647e+07
1.13682e+07
1.13726e+07
1.13779e+07
1.13841e+07
1.13555e+07
1.13555e+07
1.13555e+07
1.13556e+07
1.13556e+07
1.13557e+07
1.13558e+07
1.13561e+07
1.13564e+07
1.13569e+07
1.13576e+07
1.13587e+07
1.13602e+07
1.13624e+07
1.13652e+07
1.1369e+07
1.13737e+07
1.13794e+07
1.13555e+07
1.13555e+07
1.13555e+07
1.13555e+07
1.13555e+07
1.13555e+07
1.13556e+07
1.13557e+07
1.13558e+07
1.13561e+07
1.13565e+07
1.13571e+07
1.13581e+07
1.13595e+07
1.13616e+07
1.13646e+07
1.13687e+07
1.13739e+07
1.13555e+07
1.13555e+07
1.13555e+07
1.13554e+07
1.13554e+07
1.13553e+07
1.13553e+07
1.13552e+07
1.13552e+07
1.13551e+07
1.13552e+07
1.13553e+07
1.13556e+07
1.13562e+07
1.13574e+07
1.13594e+07
1.13626e+07
1.13672e+07
1.13555e+07
1.13554e+07
1.13554e+07
1.13554e+07
1.13553e+07
1.13552e+07
1.1355e+07
1.13548e+07
1.13545e+07
1.13542e+07
1.13538e+07
1.13534e+07
1.13529e+07
1.13526e+07
1.13527e+07
1.13536e+07
1.13557e+07
1.13595e+07
1.13554e+07
1.13554e+07
1.13554e+07
1.13553e+07
1.13552e+07
1.1355e+07
1.13547e+07
1.13544e+07
1.13539e+07
1.13533e+07
1.13524e+07
1.13514e+07
1.13501e+07
1.13488e+07
1.13475e+07
1.13468e+07
1.13473e+07
1.13502e+07
1.13554e+07
1.13554e+07
1.13553e+07
1.13552e+07
1.1355e+07
1.13548e+07
1.13544e+07
1.13539e+07
1.13532e+07
1.13522e+07
1.13509e+07
1.13491e+07
1.13468e+07
1.1344e+07
1.13408e+07
1.13376e+07
1.13353e+07
1.13359e+07
1.13554e+07
1.13554e+07
1.13553e+07
1.13551e+07
1.13549e+07
1.13546e+07
1.13541e+07
1.13535e+07
1.13525e+07
1.13512e+07
1.13493e+07
1.13467e+07
1.13433e+07
1.13387e+07
1.13327e+07
1.13254e+07
1.13174e+07
1.13116e+07
1.13554e+07
1.13554e+07
1.13553e+07
1.13551e+07
1.13549e+07
1.13545e+07
1.1354e+07
1.13532e+07
1.13521e+07
1.13505e+07
1.13483e+07
1.13451e+07
1.13407e+07
1.13344e+07
1.13253e+07
1.13121e+07
1.12922e+07
1.12604e+07
2.30282e+07
2.29349e+07
2.28627e+07
2.27988e+07
2.27386e+07
2.26799e+07
2.2622e+07
2.25644e+07
2.25067e+07
2.24487e+07
2.239e+07
2.23304e+07
2.22694e+07
2.22066e+07
2.21413e+07
2.20728e+07
2.19999e+07
2.1921e+07
2.29648e+07
2.29145e+07
2.28558e+07
2.27971e+07
2.27399e+07
2.2684e+07
2.2629e+07
2.25745e+07
2.25202e+07
2.24662e+07
2.24122e+07
2.23585e+07
2.23051e+07
2.22524e+07
2.22008e+07
2.21514e+07
2.21062e+07
2.20682e+07
2.28879e+07
2.28616e+07
2.28223e+07
2.27771e+07
2.27292e+07
2.26804e+07
2.26312e+07
2.25822e+07
2.25335e+07
2.24855e+07
2.24383e+07
2.23923e+07
2.23479e+07
2.23056e+07
2.22658e+07
2.22295e+07
2.21973e+07
2.217e+07
2.28361e+07
2.28187e+07
2.27898e+07
2.2754e+07
2.27141e+07
2.2672e+07
2.26289e+07
2.25854e+07
2.25422e+07
2.24997e+07
2.24582e+07
2.24182e+07
2.23801e+07
2.23442e+07
2.23108e+07
2.22805e+07
2.22533e+07
2.22296e+07
2.28041e+07
2.27905e+07
2.2767e+07
2.27366e+07
2.27019e+07
2.26645e+07
2.26256e+07
2.25861e+07
2.25468e+07
2.25081e+07
2.24705e+07
2.24343e+07
2.24e+07
2.23677e+07
2.23377e+07
2.23103e+07
2.22856e+07
2.22635e+07
2.27817e+07
2.27703e+07
2.275e+07
2.27232e+07
2.2692e+07
2.2658e+07
2.26223e+07
2.25859e+07
2.25494e+07
2.25135e+07
2.24787e+07
2.24451e+07
2.24133e+07
2.23834e+07
2.23556e+07
2.233e+07
2.23067e+07
2.22856e+07
2.2766e+07
2.27559e+07
2.27376e+07
2.27132e+07
2.26845e+07
2.26528e+07
2.26194e+07
2.25852e+07
2.25509e+07
2.2517e+07
2.24841e+07
2.24524e+07
2.24223e+07
2.23939e+07
2.23675e+07
2.23431e+07
2.23207e+07
2.23002e+07
2.2755e+07
2.27457e+07
2.27287e+07
2.27059e+07
2.26788e+07
2.26489e+07
2.26171e+07
2.25844e+07
2.25516e+07
2.25192e+07
2.24876e+07
2.24572e+07
2.24283e+07
2.2401e+07
2.23755e+07
2.23518e+07
2.233e+07
2.231e+07
2.27474e+07
2.27386e+07
2.27225e+07
2.27007e+07
2.26748e+07
2.2646e+07
2.26153e+07
2.25838e+07
2.2552e+07
2.25205e+07
2.24899e+07
2.24604e+07
2.24322e+07
2.24057e+07
2.23808e+07
2.23577e+07
2.23362e+07
2.23165e+07
2.27422e+07
2.27337e+07
2.27182e+07
2.26972e+07
2.2672e+07
2.2644e+07
2.26141e+07
2.25832e+07
2.25522e+07
2.25214e+07
2.24914e+07
2.24625e+07
2.24349e+07
2.24088e+07
2.23843e+07
2.23615e+07
2.23404e+07
2.23208e+07
2.27389e+07
2.27306e+07
2.27154e+07
2.26949e+07
2.26702e+07
2.26426e+07
2.26132e+07
2.25829e+07
2.25522e+07
2.25219e+07
2.24923e+07
2.24638e+07
2.24365e+07
2.24108e+07
2.23866e+07
2.2364e+07
2.2343e+07
2.23236e+07
2.27368e+07
2.27287e+07
2.27137e+07
2.26934e+07
2.2669e+07
2.26418e+07
2.26127e+07
2.25826e+07
2.25523e+07
2.25222e+07
2.24929e+07
2.24646e+07
2.24376e+07
2.2412e+07
2.2388e+07
2.23655e+07
2.23447e+07
2.23254e+07
2.27357e+07
2.27276e+07
2.27128e+07
2.26927e+07
2.26684e+07
2.26413e+07
2.26124e+07
2.25825e+07
2.25523e+07
2.25224e+07
2.24932e+07
2.2465e+07
2.24381e+07
2.24127e+07
2.23887e+07
2.23664e+07
2.23456e+07
2.23263e+07
2.27353e+07
2.27272e+07
2.27125e+07
2.26924e+07
2.26682e+07
2.26412e+07
2.26123e+07
2.25825e+07
2.25523e+07
2.25225e+07
2.24933e+07
2.24652e+07
2.24384e+07
2.24129e+07
2.2389e+07
2.23667e+07
2.23459e+07
2.23267e+07
1.15187e+07
1.15188e+07
1.15189e+07
1.1519e+07
1.15192e+07
1.15194e+07
1.15197e+07
1.15201e+07
1.15204e+07
1.15209e+07
1.15214e+07
1.15219e+07
1.15225e+07
1.15232e+07
1.15239e+07
1.15246e+07
1.15254e+07
1.15263e+07
1.15272e+07
1.15281e+07
1.15291e+07
1.15302e+07
1.15313e+07
1.15324e+07
1.15336e+07
1.15348e+07
1.15361e+07
1.15374e+07
1.15387e+07
1.15401e+07
1.15415e+07
1.15429e+07
1.15444e+07
1.15459e+07
1.15474e+07
1.15489e+07
1.15505e+07
1.15521e+07
1.15537e+07
1.15553e+07
1.1557e+07
1.15586e+07
1.15603e+07
1.1562e+07
1.15637e+07
1.15654e+07
1.15671e+07
1.15688e+07
1.15705e+07
1.15722e+07
1.15739e+07
1.15756e+07
1.15773e+07
1.1579e+07
1.15806e+07
1.15823e+07
1.1584e+07
1.15856e+07
1.15872e+07
1.15889e+07
1.15905e+07
1.15921e+07
1.15936e+07
1.15952e+07
1.15967e+07
1.15982e+07
1.15997e+07
1.16012e+07
1.16026e+07
1.1604e+07
1.16054e+07
1.16068e+07
1.16082e+07
1.16095e+07
1.16108e+07
1.1612e+07
1.16133e+07
1.16145e+07
1.16156e+07
1.16168e+07
1.16179e+07
1.1619e+07
1.162e+07
1.16211e+07
1.1622e+07
1.1623e+07
1.16239e+07
1.16248e+07
1.16257e+07
1.16265e+07
1.16273e+07
1.1628e+07
1.16287e+07
1.16294e+07
1.16301e+07
1.16307e+07
1.16312e+07
1.16318e+07
1.16323e+07
1.16327e+07
1.16332e+07
1.16335e+07
1.16339e+07
1.16342e+07
1.16345e+07
1.16347e+07
1.16349e+07
1.16351e+07
1.16352e+07
1.16353e+07
1.16353e+07
1.16353e+07
1.16352e+07
1.16351e+07
1.1635e+07
1.16348e+07
1.16346e+07
1.16344e+07
1.16341e+07
1.16337e+07
1.16334e+07
1.16329e+07
1.16325e+07
1.16319e+07
1.16314e+07
1.16308e+07
1.16301e+07
1.16294e+07
1.16287e+07
1.16279e+07
1.16271e+07
1.16262e+07
1.16253e+07
1.16244e+07
1.16234e+07
1.16224e+07
1.16213e+07
1.16202e+07
1.16191e+07
1.16179e+07
1.16167e+07
1.16154e+07
1.16141e+07
1.16128e+07
1.16114e+07
1.161e+07
1.16086e+07
1.16071e+07
1.16055e+07
1.1604e+07
1.16023e+07
1.16006e+07
1.15989e+07
1.1597e+07
1.15951e+07
1.15931e+07
1.1591e+07
1.15887e+07
1.15863e+07
1.15837e+07
1.15809e+07
1.15779e+07
1.15746e+07
1.1571e+07
1.1567e+07
1.15625e+07
1.15576e+07
1.15521e+07
1.1546e+07
1.15392e+07
1.15315e+07
1.1523e+07
1.15134e+07
1.15027e+07
1.14909e+07
1.14778e+07
1.14633e+07
1.14475e+07
1.14303e+07
1.14119e+07
1.15185e+07
1.15185e+07
1.15186e+07
1.15188e+07
1.1519e+07
1.15192e+07
1.15195e+07
1.15198e+07
1.15202e+07
1.15207e+07
1.15212e+07
1.15217e+07
1.15223e+07
1.1523e+07
1.15237e+07
1.15245e+07
1.15253e+07
1.15261e+07
1.1527e+07
1.1528e+07
1.1529e+07
1.153e+07
1.15311e+07
1.15323e+07
1.15335e+07
1.15347e+07
1.1536e+07
1.15373e+07
1.15386e+07
1.154e+07
1.15414e+07
1.15428e+07
1.15443e+07
1.15458e+07
1.15473e+07
1.15489e+07
1.15505e+07
1.15521e+07
1.15537e+07
1.15553e+07
1.1557e+07
1.15586e+07
1.15603e+07
1.1562e+07
1.15637e+07
1.15654e+07
1.15671e+07
1.15688e+07
1.15705e+07
1.15722e+07
1.15739e+07
1.15756e+07
1.15773e+07
1.1579e+07
1.15807e+07
1.15823e+07
1.1584e+07
1.15856e+07
1.15873e+07
1.15889e+07
1.15905e+07
1.15921e+07
1.15937e+07
1.15952e+07
1.15968e+07
1.15983e+07
1.15998e+07
1.16012e+07
1.16027e+07
1.16041e+07
1.16055e+07
1.16069e+07
1.16082e+07
1.16095e+07
1.16108e+07
1.16121e+07
1.16133e+07
1.16145e+07
1.16157e+07
1.16168e+07
1.16179e+07
1.1619e+07
1.16201e+07
1.16211e+07
1.16221e+07
1.1623e+07
1.16239e+07
1.16248e+07
1.16257e+07
1.16265e+07
1.16273e+07
1.1628e+07
1.16288e+07
1.16294e+07
1.16301e+07
1.16307e+07
1.16313e+07
1.16318e+07
1.16323e+07
1.16328e+07
1.16332e+07
1.16336e+07
1.16339e+07
1.16342e+07
1.16345e+07
1.16347e+07
1.16349e+07
1.16351e+07
1.16352e+07
1.16353e+07
1.16353e+07
1.16353e+07
1.16353e+07
1.16352e+07
1.1635e+07
1.16349e+07
1.16346e+07
1.16344e+07
1.16341e+07
1.16337e+07
1.16334e+07
1.16329e+07
1.16325e+07
1.16319e+07
1.16314e+07
1.16308e+07
1.16301e+07
1.16294e+07
1.16287e+07
1.16279e+07
1.16271e+07
1.16263e+07
1.16254e+07
1.16244e+07
1.16234e+07
1.16224e+07
1.16213e+07
1.16202e+07
1.16191e+07
1.16179e+07
1.16167e+07
1.16154e+07
1.16141e+07
1.16128e+07
1.16114e+07
1.161e+07
1.16086e+07
1.16071e+07
1.16055e+07
1.1604e+07
1.16023e+07
1.16006e+07
1.15989e+07
1.15971e+07
1.15951e+07
1.15931e+07
1.1591e+07
1.15888e+07
1.15863e+07
1.15838e+07
1.1581e+07
1.1578e+07
1.15747e+07
1.1571e+07
1.15671e+07
1.15626e+07
1.15577e+07
1.15523e+07
1.15462e+07
1.15393e+07
1.15317e+07
1.15232e+07
1.15136e+07
1.1503e+07
1.14911e+07
1.1478e+07
1.14636e+07
1.14477e+07
1.14305e+07
1.1412e+07
1.15181e+07
1.15181e+07
1.15182e+07
1.15183e+07
1.15185e+07
1.15188e+07
1.15191e+07
1.15194e+07
1.15198e+07
1.15203e+07
1.15208e+07
1.15214e+07
1.1522e+07
1.15226e+07
1.15234e+07
1.15241e+07
1.15249e+07
1.15258e+07
1.15267e+07
1.15277e+07
1.15287e+07
1.15298e+07
1.15309e+07
1.15321e+07
1.15333e+07
1.15345e+07
1.15358e+07
1.15371e+07
1.15385e+07
1.15398e+07
1.15413e+07
1.15427e+07
1.15442e+07
1.15457e+07
1.15473e+07
1.15488e+07
1.15504e+07
1.1552e+07
1.15536e+07
1.15553e+07
1.1557e+07
1.15586e+07
1.15603e+07
1.1562e+07
1.15637e+07
1.15654e+07
1.15671e+07
1.15688e+07
1.15705e+07
1.15722e+07
1.1574e+07
1.15757e+07
1.15774e+07
1.15791e+07
1.15807e+07
1.15824e+07
1.15841e+07
1.15857e+07
1.15874e+07
1.1589e+07
1.15906e+07
1.15922e+07
1.15938e+07
1.15953e+07
1.15968e+07
1.15984e+07
1.15998e+07
1.16013e+07
1.16028e+07
1.16042e+07
1.16056e+07
1.16069e+07
1.16083e+07
1.16096e+07
1.16109e+07
1.16122e+07
1.16134e+07
1.16146e+07
1.16158e+07
1.16169e+07
1.1618e+07
1.16191e+07
1.16201e+07
1.16212e+07
1.16222e+07
1.16231e+07
1.1624e+07
1.16249e+07
1.16258e+07
1.16266e+07
1.16274e+07
1.16281e+07
1.16288e+07
1.16295e+07
1.16301e+07
1.16308e+07
1.16313e+07
1.16319e+07
1.16324e+07
1.16328e+07
1.16332e+07
1.16336e+07
1.1634e+07
1.16343e+07
1.16346e+07
1.16348e+07
1.1635e+07
1.16351e+07
1.16352e+07
1.16353e+07
1.16354e+07
1.16353e+07
1.16353e+07
1.16352e+07
1.16351e+07
1.16349e+07
1.16347e+07
1.16344e+07
1.16341e+07
1.16338e+07
1.16334e+07
1.1633e+07
1.16325e+07
1.1632e+07
1.16314e+07
1.16308e+07
1.16302e+07
1.16295e+07
1.16287e+07
1.1628e+07
1.16271e+07
1.16263e+07
1.16254e+07
1.16244e+07
1.16234e+07
1.16224e+07
1.16213e+07
1.16202e+07
1.16191e+07
1.16179e+07
1.16167e+07
1.16154e+07
1.16141e+07
1.16128e+07
1.16114e+07
1.161e+07
1.16086e+07
1.16071e+07
1.16056e+07
1.1604e+07
1.16024e+07
1.16007e+07
1.15989e+07
1.15971e+07
1.15952e+07
1.15932e+07
1.15911e+07
1.15888e+07
1.15864e+07
1.15839e+07
1.15811e+07
1.15781e+07
1.15748e+07
1.15712e+07
1.15673e+07
1.15629e+07
1.1558e+07
1.15526e+07
1.15465e+07
1.15397e+07
1.15321e+07
1.15236e+07
1.15141e+07
1.15035e+07
1.14916e+07
1.14786e+07
1.14641e+07
1.14482e+07
1.1431e+07
1.14123e+07
1.15174e+07
1.15175e+07
1.15176e+07
1.15177e+07
1.15179e+07
1.15182e+07
1.15185e+07
1.15188e+07
1.15192e+07
1.15197e+07
1.15202e+07
1.15208e+07
1.15214e+07
1.15221e+07
1.15228e+07
1.15236e+07
1.15245e+07
1.15254e+07
1.15263e+07
1.15273e+07
1.15283e+07
1.15294e+07
1.15306e+07
1.15317e+07
1.15329e+07
1.15342e+07
1.15355e+07
1.15369e+07
1.15382e+07
1.15396e+07
1.15411e+07
1.15426e+07
1.15441e+07
1.15456e+07
1.15472e+07
1.15487e+07
1.15503e+07
1.1552e+07
1.15536e+07
1.15553e+07
1.15569e+07
1.15586e+07
1.15603e+07
1.1562e+07
1.15637e+07
1.15654e+07
1.15672e+07
1.15689e+07
1.15706e+07
1.15723e+07
1.1574e+07
1.15758e+07
1.15775e+07
1.15792e+07
1.15809e+07
1.15825e+07
1.15842e+07
1.15859e+07
1.15875e+07
1.15891e+07
1.15907e+07
1.15923e+07
1.15939e+07
1.15955e+07
1.1597e+07
1.15985e+07
1.16e+07
1.16015e+07
1.16029e+07
1.16043e+07
1.16057e+07
1.16071e+07
1.16084e+07
1.16097e+07
1.1611e+07
1.16123e+07
1.16135e+07
1.16147e+07
1.16159e+07
1.1617e+07
1.16182e+07
1.16192e+07
1.16203e+07
1.16213e+07
1.16223e+07
1.16232e+07
1.16241e+07
1.1625e+07
1.16259e+07
1.16267e+07
1.16275e+07
1.16282e+07
1.16289e+07
1.16296e+07
1.16302e+07
1.16309e+07
1.16314e+07
1.1632e+07
1.16325e+07
1.16329e+07
1.16333e+07
1.16337e+07
1.16341e+07
1.16344e+07
1.16346e+07
1.16349e+07
1.16351e+07
1.16352e+07
1.16353e+07
1.16354e+07
1.16354e+07
1.16354e+07
1.16354e+07
1.16353e+07
1.16351e+07
1.1635e+07
1.16348e+07
1.16345e+07
1.16342e+07
1.16339e+07
1.16335e+07
1.1633e+07
1.16326e+07
1.1632e+07
1.16315e+07
1.16309e+07
1.16302e+07
1.16295e+07
1.16288e+07
1.1628e+07
1.16272e+07
1.16263e+07
1.16254e+07
1.16245e+07
1.16235e+07
1.16224e+07
1.16214e+07
1.16203e+07
1.16191e+07
1.16179e+07
1.16167e+07
1.16155e+07
1.16142e+07
1.16128e+07
1.16115e+07
1.161e+07
1.16086e+07
1.16071e+07
1.16056e+07
1.1604e+07
1.16024e+07
1.16007e+07
1.1599e+07
1.15971e+07
1.15952e+07
1.15933e+07
1.15912e+07
1.15889e+07
1.15866e+07
1.1584e+07
1.15813e+07
1.15783e+07
1.1575e+07
1.15715e+07
1.15676e+07
1.15632e+07
1.15584e+07
1.1553e+07
1.1547e+07
1.15402e+07
1.15327e+07
1.15242e+07
1.15148e+07
1.15042e+07
1.14924e+07
1.14793e+07
1.14649e+07
1.1449e+07
1.14317e+07
1.14128e+07
1.15165e+07
1.15166e+07
1.15167e+07
1.15169e+07
1.15171e+07
1.15173e+07
1.15176e+07
1.1518e+07
1.15184e+07
1.15189e+07
1.15195e+07
1.15201e+07
1.15207e+07
1.15214e+07
1.15222e+07
1.1523e+07
1.15238e+07
1.15248e+07
1.15257e+07
1.15267e+07
1.15278e+07
1.15289e+07
1.15301e+07
1.15313e+07
1.15325e+07
1.15338e+07
1.15352e+07
1.15365e+07
1.15379e+07
1.15394e+07
1.15408e+07
1.15423e+07
1.15439e+07
1.15454e+07
1.1547e+07
1.15486e+07
1.15502e+07
1.15519e+07
1.15536e+07
1.15552e+07
1.15569e+07
1.15586e+07
1.15603e+07
1.15621e+07
1.15638e+07
1.15655e+07
1.15672e+07
1.1569e+07
1.15707e+07
1.15724e+07
1.15742e+07
1.15759e+07
1.15776e+07
1.15793e+07
1.1581e+07
1.15827e+07
1.15844e+07
1.1586e+07
1.15877e+07
1.15893e+07
1.15909e+07
1.15925e+07
1.15941e+07
1.15956e+07
1.15972e+07
1.15987e+07
1.16002e+07
1.16017e+07
1.16031e+07
1.16045e+07
1.16059e+07
1.16073e+07
1.16086e+07
1.16099e+07
1.16112e+07
1.16125e+07
1.16137e+07
1.16149e+07
1.16161e+07
1.16172e+07
1.16183e+07
1.16194e+07
1.16205e+07
1.16215e+07
1.16224e+07
1.16234e+07
1.16243e+07
1.16252e+07
1.1626e+07
1.16268e+07
1.16276e+07
1.16284e+07
1.16291e+07
1.16298e+07
1.16304e+07
1.1631e+07
1.16316e+07
1.16321e+07
1.16326e+07
1.1633e+07
1.16335e+07
1.16338e+07
1.16342e+07
1.16345e+07
1.16348e+07
1.1635e+07
1.16352e+07
1.16353e+07
1.16354e+07
1.16355e+07
1.16355e+07
1.16355e+07
1.16355e+07
1.16354e+07
1.16352e+07
1.16351e+07
1.16349e+07
1.16346e+07
1.16343e+07
1.16339e+07
1.16335e+07
1.16331e+07
1.16326e+07
1.16321e+07
1.16316e+07
1.16309e+07
1.16303e+07
1.16296e+07
1.16289e+07
1.16281e+07
1.16272e+07
1.16264e+07
1.16255e+07
1.16245e+07
1.16235e+07
1.16225e+07
1.16214e+07
1.16203e+07
1.16192e+07
1.1618e+07
1.16167e+07
1.16155e+07
1.16142e+07
1.16129e+07
1.16115e+07
1.16101e+07
1.16086e+07
1.16072e+07
1.16056e+07
1.16041e+07
1.16024e+07
1.16008e+07
1.1599e+07
1.15972e+07
1.15953e+07
1.15934e+07
1.15913e+07
1.15891e+07
1.15867e+07
1.15842e+07
1.15815e+07
1.15786e+07
1.15754e+07
1.15718e+07
1.1568e+07
1.15637e+07
1.15589e+07
1.15536e+07
1.15476e+07
1.15409e+07
1.15335e+07
1.15251e+07
1.15157e+07
1.15052e+07
1.14934e+07
1.14804e+07
1.1466e+07
1.14501e+07
1.14326e+07
1.14137e+07
1.15155e+07
1.15155e+07
1.15156e+07
1.15158e+07
1.1516e+07
1.15163e+07
1.15166e+07
1.1517e+07
1.15174e+07
1.15179e+07
1.15185e+07
1.15191e+07
1.15198e+07
1.15205e+07
1.15213e+07
1.15222e+07
1.15231e+07
1.1524e+07
1.1525e+07
1.15261e+07
1.15272e+07
1.15283e+07
1.15295e+07
1.15308e+07
1.1532e+07
1.15334e+07
1.15347e+07
1.15361e+07
1.15376e+07
1.1539e+07
1.15405e+07
1.15421e+07
1.15436e+07
1.15452e+07
1.15468e+07
1.15485e+07
1.15501e+07
1.15518e+07
1.15535e+07
1.15552e+07
1.15569e+07
1.15586e+07
1.15604e+07
1.15621e+07
1.15639e+07
1.15656e+07
1.15674e+07
1.15691e+07
1.15708e+07
1.15726e+07
1.15743e+07
1.15761e+07
1.15778e+07
1.15795e+07
1.15812e+07
1.15829e+07
1.15846e+07
1.15863e+07
1.15879e+07
1.15895e+07
1.15912e+07
1.15928e+07
1.15943e+07
1.15959e+07
1.15974e+07
1.15989e+07
1.16004e+07
1.16019e+07
1.16034e+07
1.16048e+07
1.16062e+07
1.16075e+07
1.16089e+07
1.16102e+07
1.16115e+07
1.16127e+07
1.1614e+07
1.16152e+07
1.16163e+07
1.16175e+07
1.16186e+07
1.16196e+07
1.16207e+07
1.16217e+07
1.16227e+07
1.16236e+07
1.16245e+07
1.16254e+07
1.16262e+07
1.1627e+07
1.16278e+07
1.16286e+07
1.16293e+07
1.16299e+07
1.16306e+07
1.16312e+07
1.16317e+07
1.16323e+07
1.16328e+07
1.16332e+07
1.16336e+07
1.1634e+07
1.16343e+07
1.16346e+07
1.16349e+07
1.16351e+07
1.16353e+07
1.16355e+07
1.16356e+07
1.16356e+07
1.16357e+07
1.16357e+07
1.16356e+07
1.16355e+07
1.16354e+07
1.16352e+07
1.1635e+07
1.16347e+07
1.16344e+07
1.16341e+07
1.16337e+07
1.16332e+07
1.16327e+07
1.16322e+07
1.16317e+07
1.1631e+07
1.16304e+07
1.16297e+07
1.16289e+07
1.16282e+07
1.16273e+07
1.16265e+07
1.16255e+07
1.16246e+07
1.16236e+07
1.16226e+07
1.16215e+07
1.16204e+07
1.16192e+07
1.1618e+07
1.16168e+07
1.16155e+07
1.16142e+07
1.16129e+07
1.16115e+07
1.16101e+07
1.16087e+07
1.16072e+07
1.16057e+07
1.16041e+07
1.16025e+07
1.16008e+07
1.15991e+07
1.15973e+07
1.15955e+07
1.15935e+07
1.15914e+07
1.15893e+07
1.1587e+07
1.15845e+07
1.15818e+07
1.15789e+07
1.15758e+07
1.15723e+07
1.15685e+07
1.15643e+07
1.15595e+07
1.15543e+07
1.15484e+07
1.15418e+07
1.15345e+07
1.15261e+07
1.15168e+07
1.15064e+07
1.14947e+07
1.14817e+07
1.14673e+07
1.14514e+07
1.14339e+07
1.14148e+07
1.15141e+07
1.15142e+07
1.15143e+07
1.15145e+07
1.15147e+07
1.1515e+07
1.15153e+07
1.15157e+07
1.15162e+07
1.15167e+07
1.15173e+07
1.1518e+07
1.15187e+07
1.15195e+07
1.15203e+07
1.15212e+07
1.15221e+07
1.15231e+07
1.15241e+07
1.15252e+07
1.15264e+07
1.15276e+07
1.15288e+07
1.15301e+07
1.15314e+07
1.15328e+07
1.15342e+07
1.15357e+07
1.15371e+07
1.15387e+07
1.15402e+07
1.15418e+07
1.15434e+07
1.1545e+07
1.15467e+07
1.15483e+07
1.155e+07
1.15517e+07
1.15534e+07
1.15552e+07
1.15569e+07
1.15587e+07
1.15604e+07
1.15622e+07
1.15639e+07
1.15657e+07
1.15675e+07
1.15693e+07
1.1571e+07
1.15728e+07
1.15745e+07
1.15763e+07
1.1578e+07
1.15797e+07
1.15815e+07
1.15832e+07
1.15849e+07
1.15865e+07
1.15882e+07
1.15898e+07
1.15914e+07
1.1593e+07
1.15946e+07
1.15962e+07
1.15977e+07
1.15992e+07
1.16007e+07
1.16022e+07
1.16037e+07
1.16051e+07
1.16065e+07
1.16078e+07
1.16092e+07
1.16105e+07
1.16118e+07
1.1613e+07
1.16142e+07
1.16154e+07
1.16166e+07
1.16177e+07
1.16188e+07
1.16199e+07
1.16209e+07
1.16219e+07
1.16229e+07
1.16239e+07
1.16248e+07
1.16256e+07
1.16265e+07
1.16273e+07
1.16281e+07
1.16288e+07
1.16295e+07
1.16302e+07
1.16308e+07
1.16314e+07
1.16319e+07
1.16325e+07
1.1633e+07
1.16334e+07
1.16338e+07
1.16342e+07
1.16345e+07
1.16348e+07
1.16351e+07
1.16353e+07
1.16355e+07
1.16356e+07
1.16357e+07
1.16358e+07
1.16358e+07
1.16358e+07
1.16358e+07
1.16357e+07
1.16355e+07
1.16353e+07
1.16351e+07
1.16349e+07
1.16345e+07
1.16342e+07
1.16338e+07
1.16334e+07
1.16329e+07
1.16323e+07
1.16318e+07
1.16312e+07
1.16305e+07
1.16298e+07
1.1629e+07
1.16283e+07
1.16274e+07
1.16266e+07
1.16256e+07
1.16247e+07
1.16237e+07
1.16226e+07
1.16216e+07
1.16204e+07
1.16193e+07
1.16181e+07
1.16169e+07
1.16156e+07
1.16143e+07
1.1613e+07
1.16116e+07
1.16102e+07
1.16087e+07
1.16073e+07
1.16057e+07
1.16042e+07
1.16026e+07
1.16009e+07
1.15992e+07
1.15974e+07
1.15956e+07
1.15937e+07
1.15916e+07
1.15895e+07
1.15872e+07
1.15848e+07
1.15822e+07
1.15793e+07
1.15762e+07
1.15728e+07
1.15691e+07
1.15649e+07
1.15603e+07
1.15552e+07
1.15494e+07
1.15429e+07
1.15356e+07
1.15274e+07
1.15182e+07
1.15079e+07
1.14963e+07
1.14834e+07
1.1469e+07
1.1453e+07
1.14355e+07
1.14162e+07
1.15125e+07
1.15126e+07
1.15127e+07
1.15129e+07
1.15132e+07
1.15135e+07
1.15138e+07
1.15143e+07
1.15148e+07
1.15153e+07
1.1516e+07
1.15166e+07
1.15174e+07
1.15182e+07
1.15191e+07
1.152e+07
1.1521e+07
1.1522e+07
1.15231e+07
1.15243e+07
1.15255e+07
1.15267e+07
1.1528e+07
1.15294e+07
1.15307e+07
1.15322e+07
1.15336e+07
1.15351e+07
1.15366e+07
1.15382e+07
1.15398e+07
1.15414e+07
1.15431e+07
1.15447e+07
1.15464e+07
1.15481e+07
1.15499e+07
1.15516e+07
1.15534e+07
1.15551e+07
1.15569e+07
1.15587e+07
1.15605e+07
1.15623e+07
1.15641e+07
1.15659e+07
1.15677e+07
1.15694e+07
1.15712e+07
1.1573e+07
1.15748e+07
1.15765e+07
1.15783e+07
1.158e+07
1.15818e+07
1.15835e+07
1.15852e+07
1.15869e+07
1.15885e+07
1.15902e+07
1.15918e+07
1.15934e+07
1.1595e+07
1.15965e+07
1.15981e+07
1.15996e+07
1.16011e+07
1.16026e+07
1.1604e+07
1.16054e+07
1.16068e+07
1.16082e+07
1.16095e+07
1.16108e+07
1.16121e+07
1.16134e+07
1.16146e+07
1.16158e+07
1.16169e+07
1.16181e+07
1.16192e+07
1.16202e+07
1.16213e+07
1.16223e+07
1.16232e+07
1.16242e+07
1.16251e+07
1.16259e+07
1.16268e+07
1.16276e+07
1.16283e+07
1.16291e+07
1.16298e+07
1.16304e+07
1.16311e+07
1.16316e+07
1.16322e+07
1.16327e+07
1.16332e+07
1.16336e+07
1.1634e+07
1.16344e+07
1.16348e+07
1.1635e+07
1.16353e+07
1.16355e+07
1.16357e+07
1.16358e+07
1.16359e+07
1.1636e+07
1.1636e+07
1.1636e+07
1.16359e+07
1.16358e+07
1.16357e+07
1.16355e+07
1.16353e+07
1.1635e+07
1.16347e+07
1.16343e+07
1.1634e+07
1.16335e+07
1.1633e+07
1.16325e+07
1.16319e+07
1.16313e+07
1.16306e+07
1.16299e+07
1.16292e+07
1.16284e+07
1.16275e+07
1.16267e+07
1.16257e+07
1.16248e+07
1.16238e+07
1.16227e+07
1.16216e+07
1.16205e+07
1.16194e+07
1.16182e+07
1.16169e+07
1.16157e+07
1.16143e+07
1.1613e+07
1.16116e+07
1.16102e+07
1.16088e+07
1.16073e+07
1.16058e+07
1.16043e+07
1.16027e+07
1.1601e+07
1.15993e+07
1.15976e+07
1.15958e+07
1.15939e+07
1.15919e+07
1.15898e+07
1.15875e+07
1.15851e+07
1.15826e+07
1.15798e+07
1.15768e+07
1.15734e+07
1.15698e+07
1.15657e+07
1.15612e+07
1.15562e+07
1.15505e+07
1.15442e+07
1.1537e+07
1.1529e+07
1.15199e+07
1.15096e+07
1.14981e+07
1.14853e+07
1.14709e+07
1.1455e+07
1.14373e+07
1.14179e+07
1.15107e+07
1.15108e+07
1.15109e+07
1.15111e+07
1.15114e+07
1.15117e+07
1.15121e+07
1.15126e+07
1.15131e+07
1.15137e+07
1.15144e+07
1.15151e+07
1.15159e+07
1.15168e+07
1.15177e+07
1.15187e+07
1.15197e+07
1.15208e+07
1.1522e+07
1.15232e+07
1.15244e+07
1.15257e+07
1.15271e+07
1.15285e+07
1.15299e+07
1.15314e+07
1.15329e+07
1.15345e+07
1.15361e+07
1.15377e+07
1.15394e+07
1.1541e+07
1.15427e+07
1.15445e+07
1.15462e+07
1.1548e+07
1.15497e+07
1.15515e+07
1.15533e+07
1.15551e+07
1.15569e+07
1.15588e+07
1.15606e+07
1.15624e+07
1.15642e+07
1.1566e+07
1.15679e+07
1.15697e+07
1.15715e+07
1.15733e+07
1.15751e+07
1.15768e+07
1.15786e+07
1.15804e+07
1.15821e+07
1.15838e+07
1.15855e+07
1.15872e+07
1.15889e+07
1.15906e+07
1.15922e+07
1.15938e+07
1.15954e+07
1.1597e+07
1.15985e+07
1.16e+07
1.16015e+07
1.1603e+07
1.16044e+07
1.16058e+07
1.16072e+07
1.16086e+07
1.16099e+07
1.16112e+07
1.16125e+07
1.16138e+07
1.1615e+07
1.16162e+07
1.16173e+07
1.16184e+07
1.16195e+07
1.16206e+07
1.16216e+07
1.16226e+07
1.16236e+07
1.16245e+07
1.16254e+07
1.16263e+07
1.16271e+07
1.16279e+07
1.16287e+07
1.16294e+07
1.16301e+07
1.16307e+07
1.16313e+07
1.16319e+07
1.16325e+07
1.1633e+07
1.16335e+07
1.16339e+07
1.16343e+07
1.16347e+07
1.1635e+07
1.16353e+07
1.16356e+07
1.16358e+07
1.16359e+07
1.16361e+07
1.16362e+07
1.16362e+07
1.16362e+07
1.16362e+07
1.16362e+07
1.16361e+07
1.16359e+07
1.16357e+07
1.16355e+07
1.16352e+07
1.16349e+07
1.16345e+07
1.16341e+07
1.16337e+07
1.16332e+07
1.16327e+07
1.16321e+07
1.16315e+07
1.16308e+07
1.16301e+07
1.16293e+07
1.16285e+07
1.16277e+07
1.16268e+07
1.16259e+07
1.16249e+07
1.16239e+07
1.16228e+07
1.16217e+07
1.16206e+07
1.16194e+07
1.16182e+07
1.1617e+07
1.16157e+07
1.16144e+07
1.16131e+07
1.16117e+07
1.16103e+07
1.16089e+07
1.16074e+07
1.16059e+07
1.16044e+07
1.16028e+07
1.16012e+07
1.15995e+07
1.15977e+07
1.1596e+07
1.15941e+07
1.15921e+07
1.15901e+07
1.15879e+07
1.15855e+07
1.1583e+07
1.15803e+07
1.15774e+07
1.15741e+07
1.15706e+07
1.15667e+07
1.15623e+07
1.15574e+07
1.15518e+07
1.15456e+07
1.15386e+07
1.15307e+07
1.15217e+07
1.15116e+07
1.15003e+07
1.14875e+07
1.14732e+07
1.14572e+07
1.14395e+07
1.142e+07
1.15085e+07
1.15086e+07
1.15088e+07
1.1509e+07
1.15093e+07
1.15096e+07
1.15101e+07
1.15106e+07
1.15112e+07
1.15118e+07
1.15125e+07
1.15133e+07
1.15142e+07
1.15151e+07
1.15161e+07
1.15171e+07
1.15182e+07
1.15194e+07
1.15206e+07
1.15219e+07
1.15233e+07
1.15246e+07
1.15261e+07
1.15275e+07
1.15291e+07
1.15306e+07
1.15322e+07
1.15338e+07
1.15355e+07
1.15372e+07
1.15389e+07
1.15406e+07
1.15424e+07
1.15442e+07
1.1546e+07
1.15478e+07
1.15496e+07
1.15514e+07
1.15533e+07
1.15551e+07
1.1557e+07
1.15588e+07
1.15607e+07
1.15626e+07
1.15644e+07
1.15663e+07
1.15681e+07
1.15699e+07
1.15718e+07
1.15736e+07
1.15754e+07
1.15772e+07
1.1579e+07
1.15808e+07
1.15825e+07
1.15842e+07
1.1586e+07
1.15877e+07
1.15893e+07
1.1591e+07
1.15926e+07
1.15943e+07
1.15959e+07
1.15974e+07
1.1599e+07
1.16005e+07
1.1602e+07
1.16035e+07
1.16049e+07
1.16063e+07
1.16077e+07
1.16091e+07
1.16104e+07
1.16117e+07
1.1613e+07
1.16142e+07
1.16154e+07
1.16166e+07
1.16177e+07
1.16189e+07
1.16199e+07
1.1621e+07
1.1622e+07
1.1623e+07
1.1624e+07
1.16249e+07
1.16258e+07
1.16266e+07
1.16275e+07
1.16283e+07
1.1629e+07
1.16297e+07
1.16304e+07
1.16311e+07
1.16317e+07
1.16323e+07
1.16328e+07
1.16333e+07
1.16338e+07
1.16342e+07
1.16346e+07
1.1635e+07
1.16353e+07
1.16356e+07
1.16358e+07
1.1636e+07
1.16362e+07
1.16363e+07
1.16364e+07
1.16365e+07
1.16365e+07
1.16365e+07
1.16364e+07
1.16363e+07
1.16361e+07
1.16359e+07
1.16357e+07
1.16354e+07
1.16351e+07
1.16347e+07
1.16343e+07
1.16339e+07
1.16334e+07
1.16329e+07
1.16323e+07
1.16316e+07
1.1631e+07
1.16302e+07
1.16295e+07
1.16287e+07
1.16278e+07
1.16269e+07
1.1626e+07
1.1625e+07
1.1624e+07
1.16229e+07
1.16218e+07
1.16207e+07
1.16195e+07
1.16183e+07
1.16171e+07
1.16158e+07
1.16145e+07
1.16132e+07
1.16118e+07
1.16104e+07
1.1609e+07
1.16075e+07
1.1606e+07
1.16045e+07
1.16029e+07
1.16013e+07
1.15996e+07
1.15979e+07
1.15962e+07
1.15943e+07
1.15924e+07
1.15904e+07
1.15882e+07
1.1586e+07
1.15835e+07
1.15809e+07
1.15781e+07
1.15749e+07
1.15715e+07
1.15677e+07
1.15634e+07
1.15587e+07
1.15533e+07
1.15472e+07
1.15404e+07
1.15326e+07
1.15239e+07
1.15139e+07
1.15027e+07
1.149e+07
1.14757e+07
1.14598e+07
1.14421e+07
1.14225e+07
1.15061e+07
1.15062e+07
1.15063e+07
1.15066e+07
1.15069e+07
1.15073e+07
1.15078e+07
1.15083e+07
1.1509e+07
1.15097e+07
1.15104e+07
1.15113e+07
1.15122e+07
1.15132e+07
1.15143e+07
1.15154e+07
1.15166e+07
1.15179e+07
1.15192e+07
1.15205e+07
1.1522e+07
1.15234e+07
1.15249e+07
1.15265e+07
1.15281e+07
1.15297e+07
1.15314e+07
1.15331e+07
1.15348e+07
1.15366e+07
1.15384e+07
1.15402e+07
1.1542e+07
1.15439e+07
1.15457e+07
1.15476e+07
1.15495e+07
1.15514e+07
1.15532e+07
1.15551e+07
1.1557e+07
1.15589e+07
1.15608e+07
1.15627e+07
1.15646e+07
1.15665e+07
1.15684e+07
1.15703e+07
1.15721e+07
1.1574e+07
1.15758e+07
1.15776e+07
1.15794e+07
1.15812e+07
1.1583e+07
1.15847e+07
1.15864e+07
1.15882e+07
1.15898e+07
1.15915e+07
1.15932e+07
1.15948e+07
1.15964e+07
1.15979e+07
1.15995e+07
1.1601e+07
1.16025e+07
1.1604e+07
1.16054e+07
1.16068e+07
1.16082e+07
1.16096e+07
1.16109e+07
1.16122e+07
1.16135e+07
1.16147e+07
1.16159e+07
1.16171e+07
1.16182e+07
1.16193e+07
1.16204e+07
1.16215e+07
1.16225e+07
1.16235e+07
1.16244e+07
1.16253e+07
1.16262e+07
1.16271e+07
1.16279e+07
1.16287e+07
1.16294e+07
1.16301e+07
1.16308e+07
1.16314e+07
1.16321e+07
1.16326e+07
1.16332e+07
1.16337e+07
1.16341e+07
1.16346e+07
1.16349e+07
1.16353e+07
1.16356e+07
1.16359e+07
1.16361e+07
1.16363e+07
1.16365e+07
1.16366e+07
1.16367e+07
1.16368e+07
1.16368e+07
1.16367e+07
1.16367e+07
1.16366e+07
1.16364e+07
1.16362e+07
1.1636e+07
1.16357e+07
1.16354e+07
1.1635e+07
1.16346e+07
1.16341e+07
1.16336e+07
1.16331e+07
1.16325e+07
1.16318e+07