/*--------------------------------*- C++ -*----------------------------------*\
  =========                 |
  \\      /  F ield         | OpenFOAM: The Open Source CFD Toolbox
   \\    /   O peration     | Website:  https://openfoam.org
    \\  /    A nd           | Version:  10
     \\/     M anipulation  |
\*---------------------------------------------------------------------------*/
FoamFile
{
    format      ascii;
    class       surfaceScalarField;
    location    "1.6";
    object      phi;
}
// * * * * * * * * * * * * * * * * * * * * * * * * * * * * * * * * * * * * * //

dimensions      [0 3 -1 0 0 0 0];

internalField   nonuniform List<scalar> 
24170
(
-1.29272e-12
1.29272e-12
-2.99364e-12
1.70092e-12
-5.56803e-12
2.57439e-12
-9.57298e-12
4.00495e-12
-1.57283e-11
6.15528e-12
-2.49781e-11
9.24987e-12
-3.85432e-11
1.3565e-11
-5.79555e-11
1.94124e-11
-8.50672e-11
2.71116e-11
-1.22022e-10
3.69548e-11
-1.71194e-10
4.91723e-11
-2.35133e-10
6.39393e-11
-3.1664e-10
8.15068e-11
-4.19307e-10
1.02666e-10
-5.49459e-10
1.30152e-10
-7.22832e-10
1.73373e-10
-9.92475e-10
2.69643e-10
6.21005e-10
-1.61348e-09
-1.36349e-12
2.65621e-12
-3.1596e-12
3.49704e-12
-5.88124e-12
5.29603e-12
-1.01188e-11
8.24249e-12
-1.66355e-11
1.2672e-11
-2.64337e-11
1.9048e-11
-4.08105e-11
2.79419e-11
-6.13971e-11
3.99989e-11
-9.01682e-11
5.58828e-11
-1.29414e-10
7.62005e-11
-1.81671e-10
1.01429e-10
-2.49647e-10
1.31916e-10
-3.36256e-10
1.68116e-10
-4.45036e-10
2.11446e-10
-5.81634e-10
2.66751e-10
-7.57922e-10
3.4966e-10
-9.99783e-10
5.11505e-10
9.28358e-10
-1.30714e-09
-1.40927e-12
4.06548e-12
-3.27069e-12
5.35846e-12
-6.09889e-12
8.12423e-12
-1.05108e-11
1.26544e-11
-1.7305e-11
1.94662e-11
-2.75326e-11
2.92756e-11
-4.25578e-11
4.29672e-11
-6.41021e-11
6.15432e-11
-9.42584e-11
8.60391e-11
-1.35463e-10
1.17405e-10
-1.90416e-10
1.56382e-10
-2.61972e-10
2.03471e-10
-3.53067e-10
2.59211e-10
-4.66856e-10
3.25234e-10
-6.07262e-10
4.07158e-10
-7.79461e-10
5.21859e-10
-9.8287e-10
7.14913e-10
1.08878e-09
-1.14329e-09
-1.41846e-12
5.48394e-12
-3.30118e-12
7.24117e-12
-6.17558e-12
1.09986e-11
-1.06747e-11
1.71535e-11
-1.76201e-11
2.64116e-11
-2.80971e-11
3.97526e-11
-4.35211e-11
5.83912e-11
-6.56891e-11
8.37112e-11
-9.68017e-11
1.17152e-10
-1.39438e-10
1.60041e-10
-1.96466e-10
2.1341e-10
-2.70879e-10
2.77884e-10
-3.65569e-10
3.53901e-10
-4.83053e-10
4.42718e-10
-6.24933e-10
5.49038e-10
-7.89484e-10
6.8641e-10
-9.59677e-10
8.85106e-10
1.18701e-09
-1.05791e-09
-1.37684e-12
6.86079e-12
-3.21947e-12
9.0838e-12
-6.05548e-12
1.38346e-11
-1.05192e-11
2.16172e-11
-1.74371e-11
3.33295e-11
-2.79068e-11
5.02223e-11
-4.33713e-11
7.38556e-11
-6.56793e-11
1.06019e-10
-9.71207e-11
1.48593e-10
-1.40411e-10
2.03331e-10
-1.98593e-10
2.71593e-10
-2.74816e-10
3.54108e-10
-3.71927e-10
4.51011e-10
-4.91744e-10
5.62535e-10
-6.33576e-10
6.9087e-10
-7.90385e-10
8.43219e-10
-9.38317e-10
1.03304e-09
1.2656e-09
-1.01691e-09
-1.26749e-12
8.12828e-12
-2.98801e-12
1.08043e-11
-5.67213e-12
1.65188e-11
-9.93525e-12
2.58804e-11
-1.65834e-11
3.99776e-11
-2.66963e-11
6.03352e-11
-4.17093e-11
8.88686e-11
-6.34873e-11
1.27797e-10
-9.43791e-11
1.79485e-10
-1.37223e-10
2.46175e-10
-1.95254e-10
3.29624e-10
-2.71838e-10
4.30692e-10
-3.69888e-10
5.49061e-10
-4.90745e-10
6.83393e-10
-6.32065e-10
8.3219e-10
-7.83798e-10
9.94951e-10
-9.215e-10
1.17074e-09
1.34667e-09
-1.00257e-09
-1.0711e-12
9.19938e-12
-2.5639e-12
1.22971e-11
-4.94955e-12
1.89044e-11
-8.79774e-12
2.97285e-11
-1.48603e-11
4.60402e-11
-2.41574e-11
6.96323e-11
-3.80676e-11
1.02779e-10
-5.84191e-11
1.48149e-10
-8.75721e-11
2.08638e-10
-1.28462e-10
2.87065e-10
-1.84542e-10
3.85705e-10
-2.59511e-10
5.0566e-10
-3.56621e-10
6.46171e-10
-4.77288e-10
8.0406e-10
-6.18643e-10
9.73546e-10
-7.69916e-10
1.14622e-09
-9.09013e-10
1.30984e-09
1.44349e-09
-1.00583e-09
-7.66792e-13
9.96617e-12
-1.90073e-12
1.34311e-11
-3.8054e-12
2.08091e-11
-6.97072e-12
3.28939e-11
-1.20504e-11
5.11199e-11
-1.99495e-11
7.75314e-11
-3.19224e-11
1.14752e-10
-4.96843e-11
1.65911e-10
-7.55321e-11
2.34486e-10
-1.1245e-10
3.23982e-10
-1.64132e-10
4.37387e-10
-2.34784e-10
5.76313e-10
-3.28452e-10
7.39838e-10
-4.47525e-10
9.23133e-10
-5.90154e-10
1.11617e-09
-7.46901e-10
1.30297e-09
-8.98828e-10
1.46176e-09
1.5669e-09
-1.02224e-09
-3.33697e-13
1.02999e-11
-9.52098e-13
1.40495e-11
-2.15735e-12
2.20143e-11
-4.31763e-12
3.50541e-11
-7.93331e-12
5.47356e-11
-1.37223e-11
8.33204e-11
-2.27243e-11
1.23754e-10
-3.64333e-11
1.7962e-10
-5.69666e-11
2.55019e-10
-8.72614e-11
3.54277e-10
-1.31244e-10
4.8137e-10
-1.9383e-10
6.38899e-10
-2.80466e-10
8.26473e-10
-3.9578e-10
1.03845e-09
-5.40939e-10
1.26133e-09
-7.09976e-10
1.47201e-09
-8.87153e-10
1.63894e-09
1.72954e-09
-1.04978e-09
2.46326e-13
1.00535e-11
3.2227e-13
1.39735e-11
6.60679e-14
2.22705e-11
-7.19415e-13
3.58396e-11
-2.31369e-12
5.63298e-11
-5.15758e-12
8.61643e-11
-9.95808e-12
1.28554e-10
-1.7837e-11
1.87499e-10
-3.05527e-11
2.67735e-10
-5.08147e-11
3.74539e-10
-8.26746e-11
5.1323e-10
-1.31891e-10
6.88115e-10
-2.05983e-10
9.00566e-10
-3.13414e-10
1.14588e-09
-4.61085e-10
1.40901e-09
-6.49591e-10
1.66051e-09
-8.67307e-10
1.85666e-09
1.95017e-09
-1.08794e-09
9.84556e-13
9.06898e-12
1.9473e-12
1.30108e-11
2.9086e-12
2.13092e-11
3.89709e-12
3.48511e-11
4.93299e-12
5.5294e-11
5.96078e-12
8.51365e-11
6.75466e-12
1.2776e-10
6.76829e-12
1.87485e-10
4.87113e-12
2.69632e-10
-1.09174e-12
3.80502e-10
-1.49755e-11
5.27113e-10
-4.32518e-11
7.16391e-10
-9.59838e-11
9.53298e-10
-1.87231e-10
1.23713e-09
-3.33447e-10
1.55522e-09
-5.47501e-10
1.87457e-09
-8.26475e-10
2.13563e-09
2.26091e-09
-1.13721e-09
1.52147e-12
7.54751e-12
3.16485e-12
1.13674e-11
5.11859e-12
1.93555e-11
7.62339e-12
3.23463e-11
1.09945e-11
5.19228e-11
1.55765e-11
8.05545e-11
2.16846e-11
1.21652e-10
2.95009e-11
1.79669e-10
3.88498e-11
2.60283e-10
4.87582e-11
3.70594e-10
5.66688e-11
5.19203e-10
5.71438e-11
7.15916e-10
3.99715e-11
9.7047e-10
-1.20112e-11
1.28911e-09
-1.23892e-10
1.6671e-09
-3.24445e-10
2.07512e-09
-6.29478e-10
2.44066e-09
2.63979e-09
-1.00836e-09
2.63405e-12
4.91346e-12
5.59005e-12
8.4114e-12
9.30348e-12
1.56421e-11
1.4333e-11
2.73168e-11
2.14484e-11
4.48075e-11
3.15867e-11
7.04162e-11
4.58279e-11
1.07411e-10
6.53421e-11
1.60155e-10
9.11865e-11
2.34438e-10
1.23812e-10
3.37968e-10
1.62023e-10
4.80992e-10
2.00964e-10
6.76975e-10
2.28547e-10
9.42888e-10
2.19807e-10
1.29785e-09
1.30068e-10
1.75684e-09
-1.07344e-10
2.31253e-09
-5.60537e-10
2.89386e-09
3.29794e-09
-1.21868e-09
4.24902e-12
6.64446e-13
9.12124e-12
3.53918e-12
1.54095e-11
9.35377e-12
2.41409e-11
1.85854e-11
3.68143e-11
3.21341e-11
5.53218e-11
5.19087e-11
8.20068e-11
8.0726e-11
1.19776e-10
1.22386e-10
1.7207e-10
1.82144e-10
2.42557e-10
2.67481e-10
3.34186e-10
3.89364e-10
4.46853e-10
5.64307e-10
5.72146e-10
8.17595e-10
6.82322e-10
1.18767e-09
7.09377e-10
1.72979e-09
5.12442e-10
2.50947e-09
-1.44906e-10
3.5512e-09
4.62788e-09
-1.47485e-09
6.39108e-12
-5.72663e-12
1.38172e-11
-3.88697e-12
2.35058e-11
-3.34761e-13
3.70495e-11
5.04161e-12
5.70616e-11
1.2122e-11
8.68305e-11
2.21399e-11
1.30539e-10
3.70176e-11
1.93781e-10
5.91432e-11
2.8401e-10
9.19148e-11
4.11e-10
1.40491e-10
5.87169e-10
2.13195e-10
8.27168e-10
3.24308e-10
1.14489e-09
4.99872e-10
1.5424e-09
7.90161e-10
1.97478e-09
1.29741e-09
2.24505e-09
2.2392e-09
1.69927e-09
4.09699e-09
7.97113e-09
-1.64398e-09
8.79035e-12
-1.4517e-11
1.91302e-11
-1.42269e-11
3.25711e-11
-1.37756e-11
5.09346e-11
-1.33219e-11
7.85887e-11
-1.55321e-11
1.20552e-10
-1.98229e-11
1.83019e-10
-2.545e-11
2.74804e-10
-3.26413e-11
4.08462e-10
-4.17432e-11
6.0225e-10
-5.32976e-11
8.83546e-10
-6.81007e-11
1.29519e-09
-8.73322e-11
1.90785e-09
-1.12792e-10
2.84533e-09
-1.47317e-10
4.33825e-09
-1.95511e-10
6.84248e-09
-2.65034e-10
1.13084e-08
-3.68985e-10
-5.30736e-10
1.98103e-08
3.06556e-07
1.93109e-07
2.46903e-07
5.96391e-08
2.27531e-07
1.93587e-08
2.23064e-07
4.45287e-09
2.2405e-07
-1.0008e-09
2.2679e-07
-2.76027e-09
2.30932e-07
-4.16767e-09
2.3625e-07
-5.34999e-09
2.42634e-07
-6.4265e-09
2.50079e-07
-7.4979e-09
2.5866e-07
-8.64913e-09
2.68534e-07
-9.96159e-09
2.79948e-07
-1.15268e-08
2.93263e-07
-1.34617e-08
3.08995e-07
-1.59279e-08
3.27884e-07
-1.91543e-08
3.50977e-07
-2.34616e-08
-2.92653e-08
3.79712e-07
9.88499e-08
9.42593e-08
1.04442e-07
5.40466e-08
9.50722e-08
2.87289e-08
8.49836e-08
1.45414e-08
7.73385e-08
6.64431e-09
7.25678e-08
2.01045e-09
6.93113e-08
-9.11199e-10
6.68566e-08
-2.8952e-09
6.49687e-08
-4.53866e-09
6.3471e-08
-6.00022e-09
6.22001e-08
-7.37825e-09
6.09721e-08
-8.73353e-09
5.95422e-08
-1.00969e-08
5.75482e-08
-1.14677e-08
5.44237e-08
-1.28033e-08
4.92683e-08
-1.39988e-08
4.06612e-08
-1.48546e-08
-1.50309e-08
2.64268e-08
4.57377e-08
4.85216e-08
6.47578e-08
3.50265e-08
7.04069e-08
2.30798e-08
7.06116e-08
1.43367e-08
6.89783e-08
8.27768e-09
6.69261e-08
4.0626e-09
6.49878e-08
1.02716e-09
6.32212e-08
-1.12864e-09
6.14444e-08
-2.76184e-09
5.95624e-08
-4.11823e-09
5.74571e-08
-5.27298e-09
5.49886e-08
-6.26496e-09
5.19981e-08
-7.10645e-09
4.83191e-08
-7.7887e-09
4.38019e-08
-8.2862e-09
3.8365e-08
-8.56186e-09
3.20861e-08
-8.57578e-09
-8.30046e-09
2.53557e-08
1.78922e-08
3.06295e-08
2.88312e-08
2.40875e-08
3.45422e-08
1.73687e-08
3.71307e-08
1.17482e-08
3.80102e-08
7.3981e-09
3.79665e-08
4.10637e-09
3.73902e-08
1.60342e-09
3.65588e-08
-2.97254e-10
3.54783e-08
-1.68132e-09
3.41656e-08
-2.80548e-09
3.26154e-08
-3.72282e-09
3.08139e-08
-4.46345e-09
2.87486e-08
-5.04115e-09
2.64189e-08
-5.45905e-09
2.38475e-08
-5.7148e-09
2.10916e-08
-5.80594e-09
1.82511e-08
-5.73531e-09
-5.51636e-09
1.54671e-08
1.01324e-08
2.04971e-08
1.73671e-08
1.68528e-08
2.19431e-08
1.27928e-08
2.4585e-08
9.10625e-09
2.59392e-08
6.04392e-09
2.64516e-08
3.59403e-09
2.6398e-08
1.65699e-09
2.59755e-08
1.25239e-10
2.52827e-08
-9.88518e-10
2.43533e-08
-1.8761e-09
2.3217e-08
-2.58651e-09
2.18961e-08
-3.14251e-09
2.04128e-08
-3.55794e-09
1.87953e-08
-3.84152e-09
1.70808e-08
-4.00029e-09
1.53174e-08
-4.04253e-09
1.35621e-08
-3.98002e-09
-3.82916e-09
1.18749e-08
6.35443e-09
1.41427e-08
1.12717e-08
1.19355e-08
1.47107e-08
9.35372e-09
1.69341e-08
6.88291e-09
1.82465e-08
4.73154e-09
1.88972e-08
2.94333e-09
1.90653e-08
1.48885e-09
1.88735e-08
3.17081e-10
1.84491e-08
-5.64189e-10
1.78212e-08
-1.24815e-09
1.70252e-08
-1.79052e-09
1.60917e-08
-2.20903e-09
1.50497e-08
-2.51596e-09
1.3929e-08
-2.72079e-09
1.27611e-08
-2.83237e-09
1.15791e-08
-2.86049e-09
1.04157e-08
-2.81668e-09
-2.71438e-09
9.30092e-09
4.26236e-09
9.88032e-09
7.71948e-09
8.47842e-09
1.02872e-08
6.78602e-09
1.20616e-08
5.1085e-09
1.31932e-08
3.59989e-09
1.3825e-08
2.31154e-09
1.40723e-08
1.24156e-09
1.40223e-08
3.67087e-10
1.3767e-08
-3.08856e-10
1.3345e-08
-8.26178e-10
1.27902e-08
-1.23568e-09
1.21312e-08
-1.5501e-09
1.13945e-08
-1.77923e-09
1.06051e-08
-1.93135e-09
9.78713e-09
-2.01444e-09
8.96357e-09
-2.03693e-09
8.15502e-09
-2.00812e-09
-1.93802e-09
7.37867e-09
2.99373e-09
6.88659e-09
5.49557e-09
5.97658e-09
7.42764e-09
4.85396e-09
8.8223e-09
3.71384e-09
9.75736e-09
2.66482e-09
1.03177e-08
1.75117e-09
1.05791e-08
9.80221e-10
1.06037e-08
3.42471e-10
1.04562e-08
-1.61347e-10
1.01737e-08
-5.43728e-10
9.7851e-09
-8.47056e-10
9.3151e-09
-1.0801e-09
8.78592e-09
-1.25005e-09
8.21787e-09
-1.3633e-09
7.62951e-09
-1.42608e-09
7.03741e-09
-1.44483e-09
6.45567e-09
-1.42639e-09
-1.37785e-09
5.8955e-09
2.16981e-09
4.71677e-09
4.02013e-09
4.12626e-09
5.48778e-09
3.38631e-09
6.57992e-09
2.6217e-09
7.3383e-09
1.90645e-09
7.8152e-09
1.27427e-09
8.06124e-09
7.34175e-10
8.12097e-09
2.82744e-10
8.03984e-09
-8.02204e-11
7.85024e-09
-3.54121e-10
7.5755e-09
-5.72322e-10
7.23593e-09
-7.40522e-10
6.84952e-09
-8.63639e-10
6.43242e-09
-9.462e-10
5.99901e-09
-9.92673e-10
5.56185e-09
-1.00766e-09
5.13141e-09
-9.95955e-10
-9.62406e-10
4.71597e-09
1.60433e-09
3.11244e-09
2.99216e-09
2.73843e-09
4.11423e-09
2.26424e-09
4.96792e-09
1.76801e-09
5.57628e-09
1.29808e-09
5.9725e-09
8.78059e-10
6.19102e-09
5.15653e-10
6.26374e-09
2.10021e-10
6.22274e-09
-3.92199e-11
6.09483e-09
-2.26214e-10
5.89842e-09
-3.75909e-10
5.64959e-09
-4.9169e-10
5.36259e-09
-5.76645e-10
5.05014e-09
-6.33742e-10
4.72347e-09
-6.66012e-10
4.39245e-09
-6.76635e-10
4.0654e-09
-6.68913e-10
-6.4614e-10
3.74914e-09
1.19719e-09
1.91525e-09
2.24374e-09
1.69188e-09
3.10191e-09
1.40607e-09
3.7658e-09
1.10413e-09
4.24836e-09
8.15522e-10
4.57108e-09
5.55331e-10
4.75769e-09
3.2905e-10
4.83094e-09
1.36766e-10
4.81327e-09
-2.15479e-11
4.72616e-09
-1.39102e-10
4.58368e-09
-2.33427e-10
4.39825e-09
-3.06264e-10
4.18099e-09
-3.59389e-10
3.94193e-09
-3.94674e-10
3.69006e-09
-4.14145e-10
3.43341e-09
-4.19984e-10
3.17895e-09
-4.14455e-10
-3.99755e-10
2.93257e-09
8.89573e-10
1.02567e-09
1.67333e-09
9.08131e-10
2.32282e-09
7.56575e-10
2.83164e-09
5.95305e-10
3.2071e-09
4.4007e-10
3.46323e-09
2.99194e-10
3.61634e-09
1.75944e-10
3.68246e-09
7.06401e-11
3.67647e-09
-1.55491e-11
3.61494e-09
-7.75759e-11
3.50839e-09
-1.26873e-10
3.36646e-09
-1.64336e-10
3.19813e-09
-1.91061e-10
3.01172e-09
-2.08268e-10
2.81484e-09
-2.17259e-10
2.61422e-09
-2.19371e-10
2.41568e-09
-2.15913e-10
-2.08096e-10
2.22402e-09
6.40033e-10
3.85641e-10
1.20701e-09
3.41153e-10
1.68018e-09
2.83402e-10
2.05386e-09
2.21628e-10
2.33203e-09
1.61895e-10
2.52374e-09
1.07489e-10
2.63991e-09
5.97745e-11
2.6915e-09
1.90455e-11
2.68554e-09
-9.58666e-12
2.63572e-09
-2.77519e-11
2.55108e-09
-4.22378e-11
2.4402e-09
-5.34527e-11
2.31089e-09
-6.17528e-11
2.17009e-09
-6.74622e-11
2.02372e-09
-7.08919e-11
1.8767e-09
-7.23511e-11
1.73293e-09
-7.21476e-11
-7.0577e-11
1.59541e-09
3.85641e-10
7.26793e-10
1.0102e-09
1.23182e-09
1.39372e-09
1.50121e-09
1.56098e-09
1.58003e-09
1.57044e-09
1.54269e-09
1.50045e-09
1.447e-09
1.38525e-09
1.31778e-09
1.24689e-09
1.17454e-09
1.10239e-09
1.03182e-09
-2.22578e-11
2.22578e-11
-4.46259e-11
2.23681e-11
-6.70601e-11
2.24342e-11
-8.95148e-11
2.24547e-11
-1.11943e-10
2.24284e-11
-1.34297e-10
2.23542e-11
-1.56529e-10
2.22314e-11
-1.78588e-10
2.20597e-11
-2.00427e-10
2.18389e-11
-2.21996e-10
2.15692e-11
-2.43248e-10
2.12513e-11
-2.64134e-10
2.08858e-11
-2.84607e-10
2.04739e-11
-3.04624e-10
2.0017e-11
-3.24141e-10
1.95168e-11
-3.43117e-10
1.89753e-11
-3.61511e-10
1.83946e-11
-3.79288e-10
1.7777e-11
-3.96413e-10
1.71253e-11
-4.12856e-10
1.64421e-11
-4.28586e-10
1.57302e-11
-4.43579e-10
1.49928e-11
-4.57811e-10
1.42327e-11
-4.71264e-10
1.34531e-11
-4.83922e-10
1.26572e-11
-4.9577e-10
1.1848e-11
-5.06798e-10
1.10286e-11
-5.17e-10
1.02021e-11
-5.26372e-10
9.3714e-12
-5.34911e-10
8.53936e-12
-5.4262e-10
7.70876e-12
-5.49502e-10
6.88222e-12
-5.55564e-10
6.06225e-12
-5.60816e-10
5.25121e-12
-5.65267e-10
4.45128e-12
-5.68931e-10
3.66452e-12
-5.71824e-10
2.8928e-12
-5.73962e-10
2.13784e-12
-5.75363e-10
1.40117e-12
-5.76047e-10
6.84208e-13
-5.76035e-10
-1.18483e-14
-5.7535e-10
-6.85939e-13
-5.74012e-10
-1.33715e-12
-5.72048e-10
-1.96472e-12
-5.6948e-10
-2.56805e-12
-5.66333e-10
-3.14665e-12
-5.62633e-10
-3.70018e-12
-5.58404e-10
-4.22841e-12
-5.53673e-10
-4.73124e-12
-5.48464e-10
-5.20864e-12
-5.42804e-10
-5.66074e-12
-5.36716e-10
-6.0877e-12
-5.30226e-10
-6.48982e-12
-5.23359e-10
-6.8674e-12
-5.16138e-10
-7.22089e-12
-5.08587e-10
-7.55076e-12
-5.0073e-10
-7.85751e-12
-4.92588e-10
-8.14175e-12
-4.84184e-10
-8.40408e-12
-4.75539e-10
-8.64514e-12
-4.66673e-10
-8.86563e-12
-4.57607e-10
-9.06624e-12
-4.48359e-10
-9.24769e-12
-4.38948e-10
-9.41072e-12
-4.29392e-10
-9.55609e-12
-4.19708e-10
-9.68454e-12
-4.09911e-10
-9.79683e-12
-4.00017e-10
-9.89372e-12
-3.90041e-10
-9.97595e-12
-3.79997e-10
-1.00443e-11
-3.69898e-10
-1.00995e-11
-3.59755e-10
-1.01422e-11
-3.49582e-10
-1.01732e-11
-3.39389e-10
-1.01932e-11
-3.29186e-10
-1.02029e-11
-3.18983e-10
-1.02029e-11
-3.08789e-10
-1.01939e-11
-2.98613e-10
-1.01766e-11
-2.88461e-10
-1.01514e-11
-2.78342e-10
-1.01192e-11
-2.68262e-10
-1.00803e-11
-2.58226e-10
-1.00355e-11
-2.48241e-10
-9.98511e-12
-2.38311e-10
-9.92978e-12
-2.28441e-10
-9.86996e-12
-2.18635e-10
-9.80614e-12
-2.08896e-10
-9.73876e-12
-1.99228e-10
-9.66824e-12
-1.89633e-10
-9.59499e-12
-1.80114e-10
-9.5194e-12
-1.70672e-10
-9.44184e-12
-1.61309e-10
-9.36263e-12
-1.52027e-10
-9.2821e-12
-1.42827e-10
-9.20054e-12
-1.33708e-10
-9.11824e-12
-1.24673e-10
-9.03543e-12
-1.15721e-10
-8.95235e-12
-1.06852e-10
-8.8692e-12
-9.80654e-11
-8.78616e-12
-8.9362e-11
-8.70339e-12
-8.0741e-11
-8.621e-12
-7.22018e-11
-8.53912e-12
-6.37441e-11
-8.45779e-12
-5.5367e-11
-8.37708e-12
-4.707e-11
-8.29699e-12
-3.88525e-11
-8.21751e-12
-3.07139e-11
-8.13858e-12
-2.26538e-11
-8.06011e-12
-1.46718e-11
-7.98197e-12
-6.7678e-12
-7.904e-12
1.05818e-12
-7.82599e-12
8.80586e-12
-7.74768e-12
1.64746e-11
-7.66877e-12
2.40636e-11
-7.58893e-12
3.15713e-11
-7.50776e-12
3.89962e-11
-7.42482e-12
4.63358e-11
-7.33963e-12
5.35874e-11
-7.25166e-12
6.07478e-11
-7.16033e-12
6.78128e-11
-7.06504e-12
7.4778e-11
-6.96517e-12
8.16381e-11
-6.86007e-12
8.83871e-11
-6.74908e-12
9.50187e-11
-6.63159e-12
1.01526e-10
-6.50699e-12
1.07901e-10
-6.37478e-12
1.14135e-10
-6.23451e-12
1.20221e-10
-6.0859e-12
1.2615e-10
-5.92884e-12
1.31913e-10
-5.76343e-12
1.37503e-10
-5.59006e-12
1.42913e-10
-5.40941e-12
1.48135e-10
-5.22257e-12
1.53166e-10
-5.03107e-12
1.58003e-10
-4.83689e-12
1.62646e-10
-4.64261e-12
1.67097e-10
-4.45136e-12
1.71364e-10
-4.26694e-12
1.75458e-10
-4.09385e-12
1.79395e-10
-3.93732e-12
1.83199e-10
-3.80337e-12
1.86897e-10
-3.69886e-12
1.90529e-10
-3.63154e-12
1.94139e-10
-3.61012e-12
1.97783e-10
-3.64433e-12
2.01528e-10
-3.74502e-12
2.05453e-10
-3.92427e-12
2.09648e-10
-4.19554e-12
2.14222e-10
-4.57378e-12
2.19298e-10
-5.07563e-12
2.25017e-10
-5.71959e-12
2.31544e-10
-6.52624e-12
2.39062e-10
-7.51839e-12
2.47783e-10
-8.72131e-12
2.57946e-10
-1.01629e-11
2.6982e-10
-1.18736e-11
2.83706e-10
-1.38867e-11
2.99944e-10
-1.62379e-11
3.1891e-10
-1.89653e-11
3.41018e-10
-2.21085e-11
3.66726e-10
-2.57078e-11
3.96529e-10
-2.98031e-11
4.30961e-10
-3.44316e-11
4.70586e-10
-3.96253e-11
5.15993e-10
-4.54077e-11
5.67783e-10
-5.17892e-11
6.26544e-10
-5.87618e-11
6.92837e-10
-6.62922e-11
7.67151e-10
-7.43141e-11
8.4987e-10
-8.2719e-11
9.41216e-10
-9.1346e-11
1.04119e-09
-9.99698e-11
1.14947e-09
-1.08286e-10
1.26536e-09
-1.15889e-10
1.3876e-09
-1.22237e-10
1.51416e-09
-1.26563e-10
1.64181e-09
-1.27646e-10
1.76487e-09
-1.2306e-10
1.8709e-09
-1.06037e-10
-4.73677e-11
1.91827e-09
-2.24534e-11
4.47111e-11
-4.50169e-11
4.49316e-11
-6.76452e-11
4.50626e-11
-9.02917e-11
4.51012e-11
-1.12908e-10
4.50448e-11
-1.35445e-10
4.48916e-11
-1.57854e-10
4.46401e-11
-1.80084e-10
4.42896e-11
-2.02085e-10
4.384e-11
-2.23808e-10
4.32917e-11
-2.45202e-10
4.2646e-11
-2.66221e-10
4.19044e-11
-2.86817e-10
4.10694e-11
-3.06943e-10
4.01439e-11
-3.26558e-10
3.91313e-11
-3.45618e-10
3.80358e-11
-3.64086e-10
3.68617e-11
-3.81923e-10
3.5614e-11
-3.99095e-10
3.42979e-11
-4.15572e-10
3.29191e-11
-4.31325e-10
3.14832e-11
-4.46329e-10
2.99965e-11
-4.60561e-10
2.84651e-11
-4.74003e-10
2.68952e-11
-4.86639e-10
2.52932e-11
-4.98457e-10
2.36653e-11
-5.09446e-10
2.20177e-11
-5.196e-10
2.03566e-11
-5.28917e-10
1.86878e-11
-5.37394e-10
1.70171e-11
-5.45036e-10
1.535e-11
-5.51845e-10
1.36918e-11
-5.5783e-10
1.20475e-11
-5.63001e-10
1.04217e-11
-5.67368e-10
8.81884e-12
-5.70947e-10
7.24296e-12
-5.73752e-10
5.69778e-12
-5.75801e-10
4.1867e-12
-5.77112e-10
2.71278e-12
-5.77707e-10
1.27872e-12
-5.77606e-10
-1.13045e-13
-5.76831e-10
-1.46045e-12
-5.75407e-10
-2.76172e-12
-5.73356e-10
-4.01539e-12
-5.70704e-10
-5.22025e-12
-5.67475e-10
-6.37541e-12
-5.63695e-10
-7.48019e-12
-5.59389e-10
-8.53419e-12
-5.54583e-10
-9.53721e-12
-5.49303e-10
-1.04893e-11
-5.43573e-10
-1.13906e-11
-5.37419e-10
-1.22416e-11
-5.30866e-10
-1.30429e-11
-5.23938e-10
-1.37951e-11
-5.1666e-10
-1.44991e-11
-5.09055e-10
-1.51558e-11
-5.01146e-10
-1.57663e-11
-4.92956e-10
-1.63319e-11
-4.84506e-10
-1.68537e-11
-4.75818e-10
-1.7333e-11
-4.66913e-10
-1.77712e-11
-4.57809e-10
-1.81698e-11
-4.48527e-10
-1.85301e-11
-4.39084e-10
-1.88537e-11
-4.29498e-10
-1.9142e-11
-4.19786e-10
-1.93966e-11
-4.09964e-10
-1.9619e-11
-4.00047e-10
-1.98107e-11
-3.90049e-10
-1.99732e-11
-3.79986e-10
-2.0108e-11
-3.69869e-10
-2.02165e-11
-3.59711e-10
-2.03003e-11
-3.49523e-10
-2.03607e-11
-3.39317e-10
-2.03992e-11
-3.29103e-10
-2.04171e-11
-3.1889e-10
-2.04158e-11
-3.08687e-10
-2.03966e-11
-2.98503e-10
-2.03607e-11
-2.88345e-10
-2.03094e-11
-2.7822e-10
-2.02439e-11
-2.68135e-10
-2.01653e-11
-2.58096e-10
-2.00747e-11
-2.48108e-10
-1.99732e-11
-2.38176e-10
-1.98618e-11
-2.28305e-10
-1.97415e-11
-2.18497e-10
-1.96132e-11
-2.08758e-10
-1.94779e-11
-1.9909e-10
-1.93364e-11
-1.89496e-10
-1.91894e-11
-1.79977e-10
-1.90378e-11
-1.70537e-10
-1.88823e-11
-1.61176e-10
-1.87236e-11
-1.51896e-10
-1.85623e-11
-1.42697e-10
-1.83989e-11
-1.33581e-10
-1.82341e-11
-1.24548e-10
-1.80683e-11
-1.15599e-10
-1.7902e-11
-1.06732e-10
-1.77356e-11
-9.7949e-11
-1.75695e-11
-8.92485e-11
-1.74039e-11
-8.06305e-11
-1.72391e-11
-7.20943e-11
-1.70753e-11
-6.36393e-11
-1.69127e-11
-5.52651e-11
-1.67514e-11
-4.69708e-11
-1.65913e-11
-3.87559e-11
-1.64324e-11
-3.06198e-11
-1.62747e-11
-2.25621e-11
-1.61179e-11
-1.45823e-11
-1.59618e-11
-6.68022e-12
-1.5806e-11
1.14402e-12
-1.56502e-11
8.89018e-12
-1.54938e-11
1.65577e-11
-1.53363e-11
2.41457e-11
-1.51769e-11
3.16527e-11
-1.50148e-11
3.90772e-11
-1.48493e-11
4.64167e-11
-1.46792e-11
5.36686e-11
-1.45036e-11
6.08295e-11
-1.43212e-11
6.78955e-11
-1.4131e-11
7.48619e-11
-1.39315e-11
8.17234e-11
-1.37216e-11
8.84742e-11
-1.34999e-11
9.51078e-11
-1.32651e-11
1.01617e-10
-1.30161e-11
1.07994e-10
-1.27518e-11
1.14231e-10
-1.24713e-11
1.20319e-10
-1.2174e-11
1.2625e-10
-1.18597e-11
1.32015e-10
-1.15286e-11
1.37606e-10
-1.11814e-11
1.43016e-10
-1.08194e-11
1.48239e-10
-1.0445e-11
1.53268e-10
-1.0061e-11
1.58103e-10
-9.67148e-12
1.62742e-10
-9.28155e-12
1.67188e-10
-8.89747e-12
1.71448e-10
-8.52687e-12
1.75533e-10
-8.17871e-12
1.79459e-10
-7.86346e-12
1.83249e-10
-7.59317e-12
1.86932e-10
-7.38157e-12
1.90544e-10
-7.24414e-12
1.94132e-10
-7.19828e-12
1.97751e-10
-7.26345e-12
2.01468e-10
-7.46135e-12
2.0536e-10
-7.81612e-12
2.09519e-10
-8.35463e-12
2.14052e-10
-9.10676e-12
2.19082e-10
-1.01058e-11
2.24751e-10
-1.13886e-11
2.31221e-10
-1.29964e-11
2.38678e-10
-1.49749e-11
2.47331e-10
-1.73744e-11
2.57419e-10
-2.02509e-11
2.6921e-10
-2.36653e-11
2.83008e-10
-2.76841e-11
2.99149e-10
-3.23792e-11
3.1801e-10
-3.78266e-11
3.40008e-10
-4.4106e-11
3.65599e-10
-5.12984e-11
3.95279e-10
-5.9484e-11
4.29586e-10
-6.87377e-11
4.69085e-10
-7.91246e-11
5.1437e-10
-9.06925e-11
5.66044e-10
-1.03463e-10
6.24704e-10
-1.17422e-10
6.90917e-10
-1.32504e-10
7.65181e-10
-1.48579e-10
8.47892e-10
-1.6543e-10
9.39284e-10
-1.82738e-10
1.03937e-09
-2.00054e-10
1.14785e-09
-2.16773e-10
1.26406e-09
-2.32092e-10
1.38676e-09
-2.44941e-10
1.51403e-09
-2.53833e-10
1.64286e-09
-2.56474e-10
1.76843e-09
-2.48631e-10
1.8827e-09
-2.20312e-10
-1.41709e-10
1.97705e-09
-2.28496e-11
6.75608e-11
-4.5809e-11
6.78909e-11
-6.88306e-11
6.80842e-11
-9.18651e-11
6.81357e-11
-1.14862e-10
6.80418e-11
-1.3777e-10
6.77997e-11
-1.60537e-10
6.74073e-11
-1.83111e-10
6.68636e-11
-2.0544e-10
6.61687e-11
-2.27472e-10
6.53234e-11
-2.49155e-10
6.43296e-11
-2.70441e-10
6.31902e-11
-2.91281e-10
6.19091e-11
-3.11628e-10
6.04909e-11
-3.31438e-10
5.89412e-11
-3.50668e-10
5.72663e-11
-3.6928e-10
5.54732e-11
-3.87235e-10
5.35696e-11
-4.04501e-10
5.15636e-11
-4.21046e-10
4.9464e-11
-4.36842e-10
4.72797e-11
-4.51866e-10
4.502e-11
-4.66095e-10
4.26945e-11
-4.79513e-10
4.03127e-11
-4.92104e-10
3.78841e-11
-5.03857e-10
3.54185e-11
-5.14764e-10
3.29251e-11
-5.24821e-10
3.04131e-11
-5.34024e-10
2.78916e-11
-5.42376e-10
2.53691e-11
-5.4988e-10
2.28539e-11
-5.56542e-10
2.03539e-11
-5.62371e-10
1.78765e-11
-5.67379e-10
1.54288e-11
-5.71577e-10
1.30171e-11
-5.74981e-10
1.06476e-11
-5.77609e-10
8.32561e-12
-5.79479e-10
6.05626e-12
-5.8061e-10
3.84398e-12
-5.81024e-10
1.69277e-12
-5.80743e-10
-3.93867e-13
-5.79791e-10
-2.41291e-12
-5.78191e-10
-4.36183e-12
-5.75968e-10
-6.23849e-12
-5.73147e-10
-8.04122e-12
-5.69753e-10
-9.76873e-12
-5.65813e-10
-1.14201e-11
-5.61353e-10
-1.29949e-11
-5.56397e-10
-1.44928e-11
-5.50972e-10
-1.5914e-11
-5.45104e-10
-1.72588e-11
-5.38818e-10
-1.8528e-11
-5.32138e-10
-1.97224e-11
-5.2509e-10
-2.08432e-11
-5.17698e-10
-2.18916e-11
-5.09984e-10
-2.28692e-11
-5.01973e-10
-2.37776e-11
-4.93686e-10
-2.46186e-11
-4.85146e-10
-2.53941e-11
-4.76373e-10
-2.6106e-11
-4.67388e-10
-2.67565e-11
-4.5821e-10
-2.73477e-11
-4.48858e-10
-2.78818e-11
-4.39351e-10
-2.83609e-11
-4.29705e-10
-2.87875e-11
-4.19938e-10
-2.91637e-11
-4.10066e-10
-2.94918e-11
-4.00102e-10
-2.97741e-11
-3.90063e-10
-3.00128e-11
-3.7996e-10
-3.02102e-11
-3.69808e-10
-3.03686e-11
-3.59619e-10
-3.049e-11
-3.49403e-10
-3.05766e-11
-3.39171e-10
-3.06306e-11
-3.28935e-10
-3.06539e-11
-3.18702e-10
-3.06487e-11
-3.08482e-10
-3.06167e-11
-2.98282e-10
-3.056e-11
-2.88111e-10
-3.04804e-11
-2.77976e-10
-3.03796e-11
-2.67882e-10
-3.02593e-11
-2.57835e-10
-3.01213e-11
-2.47841e-10
-2.99671e-11
-2.37905e-10
-2.97982e-11
-2.2803e-10
-2.9616e-11
-2.18221e-10
-2.94221e-11
-2.08481e-10
-2.92178e-11
-1.98813e-10
-2.90042e-11
-1.8922e-10
-2.87827e-11
-1.79704e-10
-2.85543e-11
-1.70266e-10
-2.83202e-11
-1.60908e-10
-2.80813e-11
-1.51632e-10
-2.78386e-11
-1.42438e-10
-2.75929e-11
-1.33327e-10
-2.73452e-11
-1.24299e-10
-2.70961e-11
-1.15355e-10
-2.68463e-11
-1.06494e-10
-2.65965e-11
-9.77164e-11
-2.63471e-11
-8.90217e-11
-2.60985e-11
-8.04095e-11
-2.58513e-11
-7.18791e-11
-2.56057e-11
-6.34299e-11
-2.53619e-11
-5.50613e-11
-2.512e-11
-4.67725e-11
-2.488e-11
-3.85629e-11
-2.4642e-11
-3.04318e-11
-2.44057e-11
-2.23788e-11
-2.41709e-11
-1.44033e-11
-2.39372e-11
-6.50521e-12
-2.37041e-11
1.31551e-12
-2.34709e-11
9.05864e-12
-2.3237e-11
1.67236e-11
-2.30013e-11
2.43096e-11
-2.27629e-11
3.18153e-11
-2.25205e-11
3.9239e-11
-2.22729e-11
4.65784e-11
-2.20186e-11
5.38308e-11
-2.1756e-11
6.09929e-11
-2.14833e-11
6.80606e-11
-2.11987e-11
7.50294e-11
-2.09003e-11
8.1894e-11
-2.05862e-11
8.86483e-11
-2.02543e-11
9.52859e-11
-1.99027e-11
1.01799e-10
-1.95296e-11
1.08181e-10
-1.91333e-11
1.14422e-10
-1.87126e-11
1.20515e-10
-1.82665e-11
1.2645e-10
-1.77946e-11
1.32218e-10
-1.72972e-11
1.37812e-10
-1.67752e-11
1.43223e-10
-1.62308e-11
1.48446e-10
-1.56671e-11
1.53473e-10
-1.50887e-11
1.58303e-10
-1.45015e-11
1.62935e-10
-1.39132e-11
1.67371e-10
-1.33332e-11
1.71617e-10
-1.27728e-11
1.75684e-10
-1.22457e-11
1.79588e-10
-1.17673e-11
1.8335e-10
-1.13559e-11
1.87001e-10
-1.1032e-11
1.90576e-10
-1.08189e-11
1.9412e-10
-1.07426e-11
1.97689e-10
-1.08322e-11
2.01348e-10
-1.11204e-11
2.05175e-10
-1.16432e-11
2.09261e-10
-1.24409e-11
2.13713e-10
-1.35582e-11
2.18652e-10
-1.5045e-11
2.2422e-10
-1.69566e-11
2.30578e-10
-1.93547e-11
2.37911e-10
-2.23077e-11
2.46428e-10
-2.58913e-11
2.56366e-10
-3.01892e-11
2.67994e-10
-3.52932e-11
2.81613e-10
-4.13032e-11
2.97561e-10
-4.83272e-11
3.16214e-10
-5.64799e-11
3.3799e-10
-6.58813e-11
3.63346e-10
-7.66542e-11
3.92781e-10
-8.89198e-11
4.26836e-10
-1.02792e-10
4.66082e-10
-1.18371e-10
5.1112e-10
-1.3573e-10
5.62563e-10
-1.54906e-10
6.21019e-10
-1.75879e-10
6.87069e-10
-1.98555e-10
7.61233e-10
-2.22742e-10
8.43924e-10
-2.48121e-10
9.35403e-10
-2.74217e-10
1.03571e-09
-3.00362e-10
1.1446e-09
-3.25657e-10
1.26142e-09
-3.48912e-10
1.38503e-09
-3.68559e-10
1.51367e-09
-3.82465e-10
1.64468e-09
-3.87487e-10
1.77438e-09
-3.78331e-10
1.89855e-09
-3.44484e-10
-2.63045e-10
2.01989e-09
-2.34571e-11
9.10179e-11
-4.70231e-11
9.1457e-11
-7.06471e-11
9.17081e-11
-9.42759e-11
9.17645e-11
-1.17855e-10
9.16212e-11
-1.4133e-10
9.12745e-11
-1.64645e-10
9.07219e-11
-1.87743e-10
8.99624e-11
-2.10571e-10
8.89962e-11
-2.33073e-10
8.78249e-11
-2.55195e-10
8.64517e-11
-2.76885e-10
8.48807e-11
-2.98094e-10
8.31177e-11
-3.18772e-10
8.11696e-11
-3.38875e-10
7.90442e-11
-3.5836e-10
7.67507e-11
-3.77185e-10
7.4299e-11
-3.95316e-10
7.16999e-11
-4.12717e-10
6.89649e-11
-4.29359e-10
6.6106e-11
-4.45215e-10
6.31358e-11
-4.60262e-10
6.00672e-11
-4.74481e-10
5.69131e-11
-4.87855e-10
5.36866e-11
-5.00372e-10
5.04008e-11
-5.12022e-10
4.70687e-11
-5.228e-10
4.3703e-11
-5.32703e-10
4.03161e-11
-5.41731e-10
3.692e-11
-5.49888e-10
3.35262e-11
-5.5718e-10
3.01458e-11
-5.63615e-10
2.67891e-11
-5.69205e-10
2.34661e-11
-5.73962e-10
2.01858e-11
-5.77902e-10
1.69569e-11
-5.81042e-10
1.37873e-11
-5.834e-10
1.06839e-11
-5.84997e-10
7.65344e-12
-5.85855e-10
4.70157e-12
-5.85995e-10
1.83345e-12
-5.85443e-10
-9.46455e-13
-5.84221e-10
-3.63432e-12
-5.82356e-10
-6.22694e-12
-5.79873e-10
-8.72168e-12
-5.76798e-10
-1.11165e-11
-5.73157e-10
-1.34098e-11
-5.68976e-10
-1.56007e-11
-5.64283e-10
-1.76885e-11
-5.59102e-10
-1.96732e-11
-5.53461e-10
-2.1555e-11
-5.47386e-10
-2.33345e-11
-5.40901e-10
-2.50129e-11
-5.34032e-10
-2.65914e-11
-5.26803e-10
-2.80716e-11
-5.19239e-10
-2.94554e-11
-5.11364e-10
-3.07447e-11
-5.03199e-10
-3.1942e-11
-4.94768e-10
-3.30496e-11
-4.86092e-10
-3.40701e-11
-4.77192e-10
-3.50062e-11
-4.68088e-10
-3.58608e-11
-4.58799e-10
-3.66366e-11
-4.49344e-10
-3.73366e-11
-4.39741e-10
-3.7964e-11
-4.30007e-10
-3.85216e-11
-4.20158e-10
-3.90125e-11
-4.1021e-10
-3.94397e-11
-4.00178e-10
-3.98064e-11
-3.90075e-10
-4.01154e-11
-3.79916e-10
-4.03698e-11
-3.69712e-10
-4.05726e-11
-3.59475e-10
-4.07266e-11
-3.49217e-10
-4.08347e-11
-3.38948e-10
-4.08997e-11
-3.28678e-10
-4.09242e-11
-3.18415e-10
-4.0911e-11
-3.08169e-10
-4.08627e-11
-2.97948e-10
-4.07817e-11
-2.87758e-10
-4.06705e-11
-2.77606e-10
-4.05314e-11
-2.67498e-10
-4.03668e-11
-2.57441e-10
-4.01787e-11
-2.47438e-10
-3.99694e-11
-2.37496e-10
-3.97409e-11
-2.27617e-10
-3.9495e-11
-2.17805e-10
-3.92336e-11
-2.08065e-10
-3.89586e-11
-1.98397e-10
-3.86715e-11
-1.88806e-10
-3.8374e-11
-1.79293e-10
-3.80676e-11
-1.69859e-10
-3.77538e-11
-1.60506e-10
-3.74338e-11
-1.51236e-10
-3.71089e-11
-1.42049e-10
-3.67803e-11
-1.32945e-10
-3.64491e-11
-1.23925e-10
-3.61162e-11
-1.14989e-10
-3.57825e-11
-1.06136e-10
-3.54489e-11
-9.73673e-11
-3.5116e-11
-8.86814e-11
-3.47844e-11
-8.0078e-11
-3.44547e-11
-7.15564e-11
-3.41273e-11
-6.3116e-11
-3.38023e-11
-5.47559e-11
-3.34801e-11
-4.64754e-11
-3.31606e-11
-3.82737e-11
-3.28437e-11
-3.01501e-11
-3.25293e-11
-2.21041e-11