/*--------------------------------*- C++ -*----------------------------------*\
  =========                 |
  \\      /  F ield         | OpenFOAM: The Open Source CFD Toolbox
   \\    /   O peration     | Website:  https://openfoam.org
    \\  /    A nd           | Version:  10
     \\/     M anipulation  |
\*---------------------------------------------------------------------------*/
FoamFile
{
    format      ascii;
    class       volScalarField;
    location    "1.33";
    object      p;
}
// * * * * * * * * * * * * * * * * * * * * * * * * * * * * * * * * * * * * * //

dimensions      [1 -1 -2 0 0 0 0];

internalField   nonuniform List<scalar> 
12225
(
1.62763e+07
1.62198e+07
1.61187e+07
1.59854e+07
1.58303e+07
1.56617e+07
1.5485e+07
1.53041e+07
1.51211e+07
1.49374e+07
1.47536e+07
1.45696e+07
1.4385e+07
1.41986e+07
1.40085e+07
1.38112e+07
1.35997e+07
1.33565e+07
1.62786e+07
1.62219e+07
1.61204e+07
1.59867e+07
1.58314e+07
1.56625e+07
1.54857e+07
1.53046e+07
1.51216e+07
1.4938e+07
1.47542e+07
1.45704e+07
1.4386e+07
1.41999e+07
1.40104e+07
1.38143e+07
1.3606e+07
1.33749e+07
1.62836e+07
1.62264e+07
1.61242e+07
1.59897e+07
1.58337e+07
1.56644e+07
1.54872e+07
1.53059e+07
1.51228e+07
1.49392e+07
1.47556e+07
1.4572e+07
1.4388e+07
1.42027e+07
1.40144e+07
1.38208e+07
1.36181e+07
1.34026e+07
1.6292e+07
1.62339e+07
1.61304e+07
1.59946e+07
1.58376e+07
1.56674e+07
1.54897e+07
1.53081e+07
1.51248e+07
1.49412e+07
1.47578e+07
1.45747e+07
1.43914e+07
1.42072e+07
1.40209e+07
1.38309e+07
1.36354e+07
1.34351e+07
1.63045e+07
1.62451e+07
1.61396e+07
1.60019e+07
1.58432e+07
1.56718e+07
1.54932e+07
1.53111e+07
1.51277e+07
1.49441e+07
1.4761e+07
1.45785e+07
1.43962e+07
1.42137e+07
1.403e+07
1.38444e+07
1.36567e+07
1.34698e+07
1.63219e+07
1.62605e+07
1.61523e+07
1.60118e+07
1.58508e+07
1.56777e+07
1.5498e+07
1.53153e+07
1.51316e+07
1.49481e+07
1.47654e+07
1.45836e+07
1.44027e+07
1.42221e+07
1.40416e+07
1.3861e+07
1.36812e+07
1.35056e+07
1.63453e+07
1.62812e+07
1.61691e+07
1.60248e+07
1.58608e+07
1.56855e+07
1.55043e+07
1.53206e+07
1.51365e+07
1.49531e+07
1.47709e+07
1.45902e+07
1.44108e+07
1.42326e+07
1.40557e+07
1.38804e+07
1.3708e+07
1.3542e+07
1.6376e+07
1.63081e+07
1.61907e+07
1.60415e+07
1.58734e+07
1.56952e+07
1.55121e+07
1.53273e+07
1.51427e+07
1.49594e+07
1.47778e+07
1.45982e+07
1.44207e+07
1.42453e+07
1.40722e+07
1.39021e+07
1.37366e+07
1.35786e+07
1.64157e+07
1.63425e+07
1.62181e+07
1.60622e+07
1.5889e+07
1.5707e+07
1.55215e+07
1.53353e+07
1.51501e+07
1.49669e+07
1.47861e+07
1.46079e+07
1.44324e+07
1.42599e+07
1.40907e+07
1.39258e+07
1.37666e+07
1.36152e+07
1.64665e+07
1.6386e+07
1.6252e+07
1.60875e+07
1.59077e+07
1.57211e+07
1.55326e+07
1.53447e+07
1.51589e+07
1.49757e+07
1.47957e+07
1.4619e+07
1.44458e+07
1.42764e+07
1.41112e+07
1.39512e+07
1.37975e+07
1.36518e+07
1.65315e+07
1.64405e+07
1.62934e+07
1.61177e+07
1.59296e+07
1.57374e+07
1.55454e+07
1.53555e+07
1.51688e+07
1.49858e+07
1.48067e+07
1.46316e+07
1.44608e+07
1.42945e+07
1.41332e+07
1.39777e+07
1.3829e+07
1.36882e+07
1.66079e+07
1.65025e+07
1.6339e+07
1.615e+07
1.59525e+07
1.57542e+07
1.55584e+07
1.53664e+07
1.51789e+07
1.4996e+07
1.48178e+07
1.46443e+07
1.44757e+07
1.43123e+07
1.41545e+07
1.40029e+07
1.38582e+07
1.37214e+07
1.67017e+07
1.65761e+07
1.6391e+07
1.61857e+07
1.59772e+07
1.5772e+07
1.5572e+07
1.53779e+07
1.51895e+07
1.50068e+07
1.48296e+07
1.46578e+07
1.44914e+07
1.43308e+07
1.41762e+07
1.40282e+07
1.38872e+07
1.37539e+07
1.68402e+07
1.66782e+07
1.6459e+07
1.62302e+07
1.6007e+07
1.57929e+07
1.5588e+07
1.53912e+07
1.5202e+07
1.50196e+07
1.48436e+07
1.46738e+07
1.45101e+07
1.43526e+07
1.42016e+07
1.40573e+07
1.39201e+07
1.37902e+07
1.70552e+07
1.68199e+07
1.65447e+07
1.62824e+07
1.60402e+07
1.58155e+07
1.56049e+07
1.54056e+07
1.52156e+07
1.50339e+07
1.48595e+07
1.46921e+07
1.45315e+07
1.43775e+07
1.42302e+07
1.40898e+07
1.39565e+07
1.38302e+07
1.74171e+07
1.70082e+07
1.66402e+07
1.63337e+07
1.60702e+07
1.5835e+07
1.56195e+07
1.54184e+07
1.52286e+07
1.50483e+07
1.48763e+07
1.47119e+07
1.45548e+07
1.44047e+07
1.42614e+07
1.41251e+07
1.39956e+07
1.38728e+07
1.81138e+07
1.71963e+07
1.67015e+07
1.63569e+07
1.60802e+07
1.58405e+07
1.56242e+07
1.54243e+07
1.52369e+07
1.50597e+07
1.48914e+07
1.4731e+07
1.45781e+07
1.44323e+07
1.42935e+07
1.41614e+07
1.40358e+07
1.39167e+07
1.72544e+07
1.69126e+07
1.65788e+07
1.62902e+07
1.60384e+07
1.58128e+07
1.56063e+07
1.54142e+07
1.52336e+07
1.50626e+07
1.49001e+07
1.47454e+07
1.4598e+07
1.44574e+07
1.43235e+07
1.4196e+07
1.40747e+07
1.39594e+07
1.66737e+07
1.65331e+07
1.63397e+07
1.61348e+07
1.59334e+07
1.57401e+07
1.55556e+07
1.53796e+07
1.52116e+07
1.50511e+07
1.48975e+07
1.47506e+07
1.46102e+07
1.44759e+07
1.43477e+07
1.42254e+07
1.41088e+07
1.39976e+07
1.63403e+07
1.62596e+07
1.61311e+07
1.5979e+07
1.58174e+07
1.56536e+07
1.54913e+07
1.53324e+07
1.51779e+07
1.50282e+07
1.48838e+07
1.47446e+07
1.46108e+07
1.44824e+07
1.43593e+07
1.42414e+07
1.41287e+07
1.4021e+07
1.61492e+07
1.60911e+07
1.59924e+07
1.58686e+07
1.5731e+07
1.55865e+07
1.54396e+07
1.52931e+07
1.51485e+07
1.50071e+07
1.48695e+07
1.47361e+07
1.46072e+07
1.4483e+07
1.43635e+07
1.42489e+07
1.41389e+07
1.40337e+07
1.60224e+07
1.59756e+07
1.58934e+07
1.57868e+07
1.56647e+07
1.55337e+07
1.53979e+07
1.52606e+07
1.51237e+07
1.49886e+07
1.48562e+07
1.47273e+07
1.46022e+07
1.44812e+07
1.43646e+07
1.42524e+07
1.41446e+07
1.40411e+07
1.59365e+07
1.5896e+07
1.58235e+07
1.57276e+07
1.56158e+07
1.54939e+07
1.5366e+07
1.52353e+07
1.5104e+07
1.49735e+07
1.48451e+07
1.47195e+07
1.45973e+07
1.44788e+07
1.43642e+07
1.42538e+07
1.41476e+07
1.40455e+07
1.5878e+07
1.58412e+07
1.57747e+07
1.56857e+07
1.55807e+07
1.54649e+07
1.53425e+07
1.52165e+07
1.50891e+07
1.4962e+07
1.48364e+07
1.47133e+07
1.45931e+07
1.44764e+07
1.43634e+07
1.42543e+07
1.41492e+07
1.40481e+07
1.58383e+07
1.58039e+07
1.57411e+07
1.56566e+07
1.5556e+07
1.54444e+07
1.53257e+07
1.52029e+07
1.50783e+07
1.49536e+07
1.483e+07
1.47085e+07
1.45898e+07
1.44743e+07
1.43624e+07
1.42542e+07
1.415e+07
1.40496e+07
1.5812e+07
1.5779e+07
1.57186e+07
1.56369e+07
1.55393e+07
1.54304e+07
1.53142e+07
1.51935e+07
1.50708e+07
1.49476e+07
1.48254e+07
1.47051e+07
1.45874e+07
1.44728e+07
1.43616e+07
1.42541e+07
1.41503e+07
1.40504e+07
1.5795e+07
1.57629e+07
1.57041e+07
1.56241e+07
1.55283e+07
1.54212e+07
1.53066e+07
1.51873e+07
1.50658e+07
1.49437e+07
1.48223e+07
1.47028e+07
1.45857e+07
1.44717e+07
1.4361e+07
1.42538e+07
1.41505e+07
1.40509e+07
1.57847e+07
1.57532e+07
1.56952e+07
1.56163e+07
1.55216e+07
1.54156e+07
1.53019e+07
1.51835e+07
1.50627e+07
1.49412e+07
1.48204e+07
1.47013e+07
1.45847e+07
1.44709e+07
1.43605e+07
1.42537e+07
1.41505e+07
1.40511e+07
1.57792e+07
1.57479e+07
1.56904e+07
1.56121e+07
1.5518e+07
1.54125e+07
1.52993e+07
1.51814e+07
1.5061e+07
1.49398e+07
1.48193e+07
1.47005e+07
1.45841e+07
1.44705e+07
1.43603e+07
1.42535e+07
1.41505e+07
1.40512e+07
1.57769e+07
1.57457e+07
1.56884e+07
1.56104e+07
1.55165e+07
1.54113e+07
1.52983e+07
1.51805e+07
1.50603e+07
1.49393e+07
1.48189e+07
1.47002e+07
1.45838e+07
1.44703e+07
1.43602e+07
1.42535e+07
1.41505e+07
1.40513e+07
1.07433e+07
1.07432e+07
1.07431e+07
1.07429e+07
1.07427e+07
1.07424e+07
1.07421e+07
1.07417e+07
1.07412e+07
1.07407e+07
1.07401e+07
1.07394e+07
1.07387e+07
1.0738e+07
1.07371e+07
1.07362e+07
1.07353e+07
1.07343e+07
1.07333e+07
1.07322e+07
1.07311e+07
1.07299e+07
1.07286e+07
1.07274e+07
1.0726e+07
1.07247e+07
1.07233e+07
1.07218e+07
1.07204e+07
1.07189e+07
1.07173e+07
1.07158e+07
1.07142e+07
1.07126e+07
1.07109e+07
1.07093e+07
1.07076e+07
1.07059e+07
1.07041e+07
1.07024e+07
1.07006e+07
1.06988e+07
1.0697e+07
1.06952e+07
1.06934e+07
1.06915e+07
1.06896e+07
1.06877e+07
1.06858e+07
1.06839e+07
1.0682e+07
1.068e+07
1.06781e+07
1.06761e+07
1.06741e+07
1.06721e+07
1.067e+07
1.0668e+07
1.0666e+07
1.06639e+07
1.06618e+07
1.06597e+07
1.06576e+07
1.06554e+07
1.06533e+07
1.06511e+07
1.0649e+07
1.06468e+07
1.06445e+07
1.06423e+07
1.06401e+07
1.06378e+07
1.06355e+07
1.06332e+07
1.06309e+07
1.06286e+07
1.06263e+07
1.06239e+07
1.06215e+07
1.06191e+07
1.06167e+07
1.06143e+07
1.06118e+07
1.06093e+07
1.06068e+07
1.06043e+07
1.06018e+07
1.05993e+07
1.05967e+07
1.05941e+07
1.05915e+07
1.05889e+07
1.05862e+07
1.05836e+07
1.05809e+07
1.05782e+07
1.05754e+07
1.05727e+07
1.05699e+07
1.05671e+07
1.05643e+07
1.05615e+07
1.05586e+07
1.05558e+07
1.05529e+07
1.05499e+07
1.0547e+07
1.0544e+07
1.0541e+07
1.0538e+07
1.0535e+07
1.05319e+07
1.05288e+07
1.05257e+07
1.05226e+07
1.05194e+07
1.05163e+07
1.05131e+07
1.05098e+07
1.05066e+07
1.05033e+07
1.05e+07
1.04967e+07
1.04933e+07
1.04899e+07
1.04865e+07
1.04831e+07
1.04796e+07
1.04761e+07
1.04726e+07
1.04691e+07
1.04655e+07
1.04619e+07
1.04583e+07
1.04546e+07
1.04509e+07
1.04472e+07
1.04435e+07
1.04397e+07
1.04359e+07
1.04321e+07
1.04282e+07
1.04243e+07
1.04204e+07
1.04165e+07
1.04125e+07
1.04085e+07
1.04044e+07
1.04004e+07
1.03963e+07
1.03921e+07
1.0388e+07
1.03838e+07
1.03795e+07
1.03753e+07
1.0371e+07
1.03666e+07
1.03623e+07
1.03579e+07
1.03534e+07
1.0349e+07
1.03445e+07
1.03399e+07
1.03354e+07
1.03307e+07
1.03261e+07
1.03214e+07
1.03167e+07
1.0312e+07
1.03072e+07
1.03024e+07
1.02975e+07
1.02926e+07
1.02877e+07
1.02828e+07
1.02778e+07
1.02728e+07
1.02679e+07
1.02629e+07
1.02579e+07
1.07435e+07
1.07435e+07
1.07434e+07
1.07432e+07
1.07429e+07
1.07427e+07
1.07423e+07
1.07419e+07
1.07414e+07
1.07409e+07
1.07403e+07
1.07396e+07
1.07389e+07
1.07381e+07
1.07373e+07
1.07364e+07
1.07355e+07
1.07345e+07
1.07334e+07
1.07323e+07
1.07312e+07
1.073e+07
1.07287e+07
1.07275e+07
1.07261e+07
1.07248e+07
1.07234e+07
1.07219e+07
1.07204e+07
1.07189e+07
1.07174e+07
1.07158e+07
1.07142e+07
1.07126e+07
1.0711e+07
1.07093e+07
1.07076e+07
1.07059e+07
1.07041e+07
1.07024e+07
1.07006e+07
1.06988e+07
1.0697e+07
1.06952e+07
1.06934e+07
1.06915e+07
1.06896e+07
1.06877e+07
1.06858e+07
1.06839e+07
1.0682e+07
1.068e+07
1.06781e+07
1.06761e+07
1.06741e+07
1.06721e+07
1.067e+07
1.0668e+07
1.06659e+07
1.06639e+07
1.06618e+07
1.06597e+07
1.06576e+07
1.06554e+07
1.06533e+07
1.06511e+07
1.06489e+07
1.06468e+07
1.06445e+07
1.06423e+07
1.06401e+07
1.06378e+07
1.06355e+07
1.06332e+07
1.06309e+07
1.06286e+07
1.06263e+07
1.06239e+07
1.06215e+07
1.06191e+07
1.06167e+07
1.06143e+07
1.06118e+07
1.06093e+07
1.06068e+07
1.06043e+07
1.06018e+07
1.05993e+07
1.05967e+07
1.05941e+07
1.05915e+07
1.05889e+07
1.05862e+07
1.05836e+07
1.05809e+07
1.05782e+07
1.05754e+07
1.05727e+07
1.05699e+07
1.05671e+07
1.05643e+07
1.05615e+07
1.05586e+07
1.05558e+07
1.05529e+07
1.05499e+07
1.0547e+07
1.0544e+07
1.0541e+07
1.0538e+07
1.0535e+07
1.05319e+07
1.05288e+07
1.05257e+07
1.05226e+07
1.05194e+07
1.05163e+07
1.05131e+07
1.05098e+07
1.05066e+07
1.05033e+07
1.05e+07
1.04967e+07
1.04933e+07
1.04899e+07
1.04865e+07
1.04831e+07
1.04796e+07
1.04761e+07
1.04726e+07
1.04691e+07
1.04655e+07
1.04619e+07
1.04583e+07
1.04546e+07
1.04509e+07
1.04472e+07
1.04435e+07
1.04397e+07
1.04359e+07
1.04321e+07
1.04282e+07
1.04243e+07
1.04204e+07
1.04165e+07
1.04125e+07
1.04085e+07
1.04044e+07
1.04004e+07
1.03963e+07
1.03921e+07
1.0388e+07
1.03838e+07
1.03795e+07
1.03753e+07
1.0371e+07
1.03666e+07
1.03623e+07
1.03579e+07
1.03534e+07
1.0349e+07
1.03445e+07
1.03399e+07
1.03353e+07
1.03307e+07
1.03261e+07
1.03214e+07
1.03167e+07
1.0312e+07
1.03072e+07
1.03024e+07
1.02975e+07
1.02926e+07
1.02877e+07
1.02828e+07
1.02778e+07
1.02728e+07
1.02678e+07
1.02628e+07
1.02579e+07
1.0744e+07
1.0744e+07
1.07439e+07
1.07437e+07
1.07434e+07
1.07431e+07
1.07428e+07
1.07424e+07
1.07419e+07
1.07413e+07
1.07407e+07
1.074e+07
1.07393e+07
1.07385e+07
1.07377e+07
1.07368e+07
1.07358e+07
1.07348e+07
1.07337e+07
1.07326e+07
1.07314e+07
1.07302e+07
1.0729e+07
1.07276e+07
1.07263e+07
1.07249e+07
1.07235e+07
1.0722e+07
1.07206e+07
1.0719e+07
1.07175e+07
1.07159e+07
1.07143e+07
1.07127e+07
1.0711e+07
1.07093e+07
1.07076e+07
1.07059e+07
1.07042e+07
1.07024e+07
1.07006e+07
1.06988e+07
1.0697e+07
1.06952e+07
1.06934e+07
1.06915e+07
1.06896e+07
1.06877e+07
1.06858e+07
1.06839e+07
1.0682e+07
1.068e+07
1.06781e+07
1.06761e+07
1.06741e+07
1.06721e+07
1.067e+07
1.0668e+07
1.06659e+07
1.06639e+07
1.06618e+07
1.06597e+07
1.06576e+07
1.06554e+07
1.06533e+07
1.06511e+07
1.06489e+07
1.06467e+07
1.06445e+07
1.06423e+07
1.06401e+07
1.06378e+07
1.06355e+07
1.06332e+07
1.06309e+07
1.06286e+07
1.06262e+07
1.06239e+07
1.06215e+07
1.06191e+07
1.06167e+07
1.06143e+07
1.06118e+07
1.06093e+07
1.06068e+07
1.06043e+07
1.06018e+07
1.05993e+07
1.05967e+07
1.05941e+07
1.05915e+07
1.05889e+07
1.05862e+07
1.05836e+07
1.05809e+07
1.05782e+07
1.05754e+07
1.05727e+07
1.05699e+07
1.05671e+07
1.05643e+07
1.05615e+07
1.05586e+07
1.05557e+07
1.05529e+07
1.05499e+07
1.0547e+07
1.0544e+07
1.0541e+07
1.0538e+07
1.0535e+07
1.05319e+07
1.05288e+07
1.05257e+07
1.05226e+07
1.05194e+07
1.05163e+07
1.05131e+07
1.05098e+07
1.05066e+07
1.05033e+07
1.05e+07
1.04967e+07
1.04933e+07
1.04899e+07
1.04865e+07
1.04831e+07
1.04796e+07
1.04761e+07
1.04726e+07
1.04691e+07
1.04655e+07
1.04619e+07
1.04583e+07
1.04546e+07
1.04509e+07
1.04472e+07
1.04435e+07
1.04397e+07
1.04359e+07
1.04321e+07
1.04282e+07
1.04243e+07
1.04204e+07
1.04165e+07
1.04125e+07
1.04085e+07
1.04044e+07
1.04004e+07
1.03963e+07
1.03921e+07
1.0388e+07
1.03838e+07
1.03795e+07
1.03753e+07
1.0371e+07
1.03666e+07
1.03623e+07
1.03579e+07
1.03534e+07
1.0349e+07
1.03445e+07
1.03399e+07
1.03353e+07
1.03307e+07
1.03261e+07
1.03214e+07
1.03167e+07
1.0312e+07
1.03072e+07
1.03024e+07
1.02975e+07
1.02926e+07
1.02877e+07
1.02828e+07
1.02778e+07
1.02728e+07
1.02678e+07
1.02628e+07
1.02578e+07
1.07448e+07
1.07447e+07
1.07446e+07
1.07444e+07
1.07442e+07
1.07439e+07
1.07435e+07
1.07431e+07
1.07426e+07
1.0742e+07
1.07413e+07
1.07407e+07
1.07399e+07
1.07391e+07
1.07382e+07
1.07373e+07
1.07363e+07
1.07352e+07
1.07341e+07
1.0733e+07
1.07318e+07
1.07306e+07
1.07293e+07
1.07279e+07
1.07266e+07
1.07252e+07
1.07237e+07
1.07222e+07
1.07207e+07
1.07192e+07
1.07176e+07
1.0716e+07
1.07144e+07
1.07128e+07
1.07111e+07
1.07094e+07
1.07077e+07
1.0706e+07
1.07042e+07
1.07024e+07
1.07007e+07
1.06989e+07
1.06971e+07
1.06952e+07
1.06934e+07
1.06915e+07
1.06896e+07
1.06877e+07
1.06858e+07
1.06839e+07
1.0682e+07
1.068e+07
1.0678e+07
1.06761e+07
1.06741e+07
1.06721e+07
1.067e+07
1.0668e+07
1.06659e+07
1.06639e+07
1.06618e+07
1.06597e+07
1.06576e+07
1.06554e+07
1.06533e+07
1.06511e+07
1.06489e+07
1.06467e+07
1.06445e+07
1.06423e+07
1.06401e+07
1.06378e+07
1.06355e+07
1.06332e+07
1.06309e+07
1.06286e+07
1.06262e+07
1.06239e+07
1.06215e+07
1.06191e+07
1.06167e+07
1.06142e+07
1.06118e+07
1.06093e+07
1.06068e+07
1.06043e+07
1.06018e+07
1.05992e+07
1.05967e+07
1.05941e+07
1.05915e+07
1.05889e+07
1.05862e+07
1.05836e+07
1.05809e+07
1.05782e+07
1.05754e+07
1.05727e+07
1.05699e+07
1.05671e+07
1.05643e+07
1.05615e+07
1.05586e+07
1.05557e+07
1.05528e+07
1.05499e+07
1.0547e+07
1.0544e+07
1.0541e+07
1.0538e+07
1.0535e+07
1.05319e+07
1.05288e+07
1.05257e+07
1.05226e+07
1.05194e+07
1.05163e+07
1.05131e+07
1.05098e+07
1.05066e+07
1.05033e+07
1.05e+07
1.04967e+07
1.04933e+07
1.04899e+07
1.04865e+07
1.04831e+07
1.04796e+07
1.04761e+07
1.04726e+07
1.04691e+07
1.04655e+07
1.04619e+07
1.04583e+07
1.04546e+07
1.04509e+07
1.04472e+07
1.04435e+07
1.04397e+07
1.04359e+07
1.04321e+07
1.04282e+07
1.04243e+07
1.04204e+07
1.04165e+07
1.04125e+07
1.04085e+07
1.04044e+07
1.04004e+07
1.03963e+07
1.03921e+07
1.0388e+07
1.03838e+07
1.03795e+07
1.03753e+07
1.0371e+07
1.03666e+07
1.03623e+07
1.03579e+07
1.03534e+07
1.0349e+07
1.03445e+07
1.03399e+07
1.03353e+07
1.03307e+07
1.03261e+07
1.03214e+07
1.03167e+07
1.0312e+07
1.03072e+07
1.03024e+07
1.02975e+07
1.02926e+07
1.02877e+07
1.02828e+07
1.02778e+07
1.02728e+07
1.02678e+07
1.02628e+07
1.02577e+07
1.07458e+07
1.07458e+07
1.07456e+07
1.07454e+07
1.07452e+07
1.07449e+07
1.07445e+07
1.0744e+07
1.07435e+07
1.07429e+07
1.07422e+07
1.07415e+07
1.07407e+07
1.07398e+07
1.07389e+07
1.07379e+07
1.07369e+07
1.07358e+07
1.07347e+07
1.07335e+07
1.07323e+07
1.0731e+07
1.07297e+07
1.07283e+07
1.07269e+07
1.07255e+07
1.0724e+07
1.07225e+07
1.0721e+07
1.07194e+07
1.07178e+07
1.07162e+07
1.07145e+07
1.07129e+07
1.07112e+07
1.07095e+07
1.07078e+07
1.0706e+07
1.07043e+07
1.07025e+07
1.07007e+07
1.06989e+07
1.06971e+07
1.06952e+07
1.06934e+07
1.06915e+07
1.06896e+07
1.06877e+07
1.06858e+07
1.06839e+07
1.0682e+07
1.068e+07
1.0678e+07
1.06761e+07
1.06741e+07
1.06721e+07
1.067e+07
1.0668e+07
1.06659e+07
1.06639e+07
1.06618e+07
1.06597e+07
1.06576e+07
1.06554e+07
1.06533e+07
1.06511e+07
1.06489e+07
1.06467e+07
1.06445e+07
1.06423e+07
1.064e+07
1.06378e+07
1.06355e+07
1.06332e+07
1.06309e+07
1.06286e+07
1.06262e+07
1.06239e+07
1.06215e+07
1.06191e+07
1.06167e+07
1.06142e+07
1.06118e+07
1.06093e+07
1.06068e+07
1.06043e+07
1.06018e+07
1.05992e+07
1.05967e+07
1.05941e+07
1.05915e+07
1.05889e+07
1.05862e+07
1.05835e+07
1.05809e+07
1.05782e+07
1.05754e+07
1.05727e+07
1.05699e+07
1.05671e+07
1.05643e+07
1.05615e+07
1.05586e+07
1.05557e+07
1.05528e+07
1.05499e+07
1.0547e+07
1.0544e+07
1.0541e+07
1.0538e+07
1.0535e+07
1.05319e+07
1.05288e+07
1.05257e+07
1.05226e+07
1.05194e+07
1.05163e+07
1.05131e+07
1.05098e+07
1.05066e+07
1.05033e+07
1.05e+07
1.04967e+07
1.04933e+07
1.04899e+07
1.04865e+07
1.04831e+07
1.04796e+07
1.04761e+07
1.04726e+07
1.04691e+07
1.04655e+07
1.04619e+07
1.04583e+07
1.04546e+07
1.04509e+07
1.04472e+07
1.04435e+07
1.04397e+07
1.04359e+07
1.04321e+07
1.04282e+07
1.04243e+07
1.04204e+07
1.04165e+07
1.04125e+07
1.04085e+07
1.04044e+07
1.04004e+07
1.03963e+07
1.03921e+07
1.0388e+07
1.03838e+07
1.03795e+07
1.03753e+07
1.0371e+07
1.03666e+07
1.03623e+07
1.03579e+07
1.03534e+07
1.0349e+07
1.03444e+07
1.03399e+07
1.03353e+07
1.03307e+07
1.03261e+07
1.03214e+07
1.03167e+07
1.0312e+07
1.03072e+07
1.03024e+07
1.02975e+07
1.02926e+07
1.02877e+07
1.02828e+07
1.02778e+07
1.02728e+07
1.02678e+07
1.02627e+07
1.02577e+07
1.07472e+07
1.07471e+07
1.0747e+07
1.07468e+07
1.07465e+07
1.07461e+07
1.07458e+07
1.07454e+07
1.07447e+07
1.0744e+07
1.07432e+07
1.07425e+07
1.07417e+07
1.07408e+07
1.07398e+07
1.07388e+07
1.07377e+07
1.07366e+07
1.07354e+07
1.07342e+07
1.07329e+07
1.07316e+07
1.07302e+07
1.07288e+07
1.07274e+07
1.07259e+07
1.07244e+07
1.07228e+07
1.07212e+07
1.07196e+07
1.0718e+07
1.07164e+07
1.07147e+07
1.0713e+07
1.07113e+07
1.07096e+07
1.07078e+07
1.07061e+07
1.07043e+07
1.07025e+07
1.07007e+07
1.06989e+07
1.06971e+07
1.06953e+07
1.06934e+07
1.06915e+07
1.06896e+07
1.06877e+07
1.06858e+07
1.06839e+07
1.0682e+07
1.068e+07
1.0678e+07
1.06761e+07
1.06741e+07
1.0672e+07
1.067e+07
1.0668e+07
1.06659e+07
1.06638e+07
1.06618e+07
1.06597e+07
1.06575e+07
1.06554e+07
1.06533e+07
1.06511e+07
1.06489e+07
1.06467e+07
1.06445e+07
1.06423e+07
1.064e+07
1.06378e+07
1.06355e+07
1.06332e+07
1.06309e+07
1.06286e+07
1.06262e+07
1.06239e+07
1.06215e+07
1.06191e+07
1.06167e+07
1.06142e+07
1.06118e+07
1.06093e+07
1.06068e+07
1.06043e+07
1.06018e+07
1.05992e+07
1.05967e+07
1.05941e+07
1.05915e+07
1.05889e+07
1.05862e+07
1.05835e+07
1.05809e+07
1.05782e+07
1.05754e+07
1.05727e+07
1.05699e+07
1.05671e+07
1.05643e+07
1.05615e+07
1.05586e+07
1.05557e+07
1.05528e+07
1.05499e+07
1.0547e+07
1.0544e+07
1.0541e+07
1.0538e+07
1.0535e+07
1.05319e+07
1.05288e+07
1.05257e+07
1.05226e+07
1.05194e+07
1.05163e+07
1.0513e+07
1.05098e+07
1.05066e+07
1.05033e+07
1.05e+07
1.04966e+07
1.04933e+07
1.04899e+07
1.04865e+07
1.04831e+07
1.04796e+07
1.04761e+07
1.04726e+07
1.04691e+07
1.04655e+07
1.04619e+07
1.04583e+07
1.04546e+07
1.04509e+07
1.04472e+07
1.04435e+07
1.04397e+07
1.04359e+07
1.04321e+07
1.04282e+07
1.04243e+07
1.04204e+07
1.04165e+07
1.04125e+07
1.04085e+07
1.04044e+07
1.04004e+07
1.03963e+07
1.03921e+07
1.0388e+07
1.03837e+07
1.03795e+07
1.03753e+07
1.0371e+07
1.03666e+07
1.03623e+07
1.03579e+07
1.03534e+07
1.03489e+07
1.03444e+07
1.03399e+07
1.03353e+07
1.03307e+07
1.03261e+07
1.03214e+07
1.03167e+07
1.03119e+07
1.03072e+07
1.03023e+07
1.02975e+07
1.02926e+07
1.02877e+07
1.02827e+07
1.02778e+07
1.02727e+07
1.02677e+07
1.02627e+07
1.02576e+07
1.07972e+07
1.07941e+07
1.07876e+07
1.07761e+07
1.07711e+07
1.07581e+07
1.07508e+07
1.07477e+07
1.07462e+07
1.07451e+07
1.07443e+07
1.07437e+07
1.0743e+07
1.0742e+07
1.07409e+07
1.07398e+07
1.07386e+07
1.07375e+07
1.07363e+07
1.0735e+07
1.07337e+07
1.07323e+07
1.07308e+07
1.07294e+07
1.07279e+07
1.07263e+07
1.07248e+07
1.07232e+07
1.07215e+07
1.07199e+07
1.07182e+07
1.07166e+07
1.07149e+07
1.07132e+07
1.07114e+07
1.07097e+07
1.07079e+07
1.07062e+07
1.07044e+07
1.07026e+07
1.07008e+07
1.0699e+07
1.06971e+07
1.06953e+07
1.06934e+07
1.06915e+07
1.06896e+07
1.06877e+07
1.06858e+07
1.06839e+07
1.0682e+07
1.068e+07
1.0678e+07
1.0676e+07
1.0674e+07
1.0672e+07
1.067e+07
1.0668e+07
1.06659e+07
1.06638e+07
1.06617e+07
1.06596e+07
1.06575e+07
1.06554e+07
1.06532e+07
1.06511e+07
1.06489e+07
1.06467e+07
1.06445e+07
1.06423e+07
1.064e+07
1.06378e+07
1.06355e+07
1.06332e+07
1.06309e+07
1.06286e+07
1.06262e+07
1.06239e+07
1.06215e+07
1.06191e+07
1.06167e+07
1.06142e+07
1.06118e+07
1.06093e+07
1.06068e+07
1.06043e+07
1.06018e+07
1.05992e+07
1.05967e+07
1.05941e+07
1.05915e+07
1.05888e+07
1.05862e+07
1.05835e+07
1.05809e+07
1.05781e+07
1.05754e+07
1.05727e+07
1.05699e+07
1.05671e+07
1.05643e+07
1.05615e+07
1.05586e+07
1.05557e+07
1.05528e+07
1.05499e+07
1.0547e+07
1.0544e+07
1.0541e+07
1.0538e+07
1.0535e+07
1.05319e+07
1.05288e+07
1.05257e+07
1.05226e+07
1.05194e+07
1.05162e+07
1.0513e+07
1.05098e+07
1.05066e+07
1.05033e+07
1.05e+07
1.04966e+07
1.04933e+07
1.04899e+07
1.04865e+07
1.04831e+07
1.04796e+07
1.04761e+07
1.04726e+07
1.04691e+07
1.04655e+07
1.04619e+07
1.04583e+07
1.04546e+07
1.04509e+07
1.04472e+07
1.04435e+07
1.04397e+07
1.04359e+07
1.04321e+07
1.04282e+07
1.04243e+07
1.04204e+07
1.04165e+07
1.04125e+07
1.04085e+07
1.04044e+07
1.04004e+07
1.03963e+07
1.03921e+07
1.03879e+07
1.03837e+07
1.03795e+07
1.03752e+07
1.03709e+07
1.03666e+07
1.03622e+07
1.03578e+07
1.03534e+07
1.03489e+07
1.03444e+07
1.03399e+07
1.03353e+07
1.03307e+07
1.03261e+07
1.03214e+07
1.03167e+07
1.03119e+07
1.03072e+07
1.03023e+07
1.02975e+07
1.02926e+07
1.02877e+07
1.02827e+07
1.02777e+07
1.02727e+07
1.02677e+07
1.02626e+07
1.02575e+07
1.08818e+07
1.08798e+07
1.08762e+07
1.08712e+07
1.08662e+07
1.08608e+07
1.08569e+07
1.08565e+07
1.08622e+07
1.08516e+07
1.08235e+07
1.07726e+07
1.07485e+07
1.07438e+07
1.07421e+07
1.07407e+07
1.07395e+07
1.07385e+07
1.07374e+07
1.07361e+07
1.07346e+07
1.07331e+07
1.07316e+07
1.073e+07
1.07284e+07
1.07268e+07
1.07252e+07
1.07236e+07
1.07219e+07
1.07202e+07
1.07185e+07
1.07168e+07
1.07151e+07
1.07133e+07
1.07116e+07
1.07098e+07
1.0708e+07
1.07062e+07
1.07044e+07
1.07026e+07
1.07008e+07
1.0699e+07
1.06971e+07
1.06953e+07
1.06934e+07
1.06915e+07
1.06896e+07
1.06877e+07
1.06858e+07
1.06839e+07
1.06819e+07
1.068e+07
1.0678e+07
1.0676e+07
1.0674e+07
1.0672e+07
1.067e+07
1.06679e+07
1.06659e+07
1.06638e+07
1.06617e+07
1.06596e+07
1.06575e+07
1.06554e+07
1.06532e+07
1.06511e+07
1.06489e+07
1.06467e+07
1.06445e+07
1.06423e+07
1.064e+07
1.06378e+07
1.06355e+07
1.06332e+07
1.06309e+07
1.06286e+07
1.06262e+07
1.06238e+07
1.06215e+07
1.06191e+07
1.06167e+07
1.06142e+07
1.06118e+07
1.06093e+07
1.06068e+07
1.06043e+07
1.06018e+07
1.05992e+07
1.05967e+07
1.05941e+07
1.05915e+07
1.05888e+07
1.05862e+07
1.05835e+07
1.05808e+07
1.05781e+07
1.05754e+07
1.05727e+07
1.05699e+07
1.05671e+07
1.05643e+07
1.05615e+07
1.05586e+07
1.05557e+07
1.05528e+07
1.05499e+07
1.0547e+07
1.0544e+07
1.0541e+07
1.0538e+07
1.0535e+07
1.05319e+07
1.05288e+07
1.05257e+07
1.05226e+07
1.05194e+07
1.05162e+07
1.0513e+07
1.05098e+07
1.05066e+07
1.05033e+07
1.05e+07
1.04966e+07
1.04933e+07
1.04899e+07
1.04865e+07
1.04831e+07
1.04796e+07
1.04761e+07
1.04726e+07
1.0469e+07
1.04655e+07
1.04619e+07
1.04583e+07
1.04546e+07
1.04509e+07
1.04472e+07
1.04435e+07
1.04397e+07
1.04359e+07
1.04321e+07
1.04282e+07
1.04243e+07
1.04204e+07
1.04165e+07
1.04125e+07
1.04085e+07
1.04044e+07
1.04004e+07
1.03962e+07
1.03921e+07
1.03879e+07
1.03837e+07
1.03795e+07
1.03752e+07
1.03709e+07
1.03666e+07
1.03622e+07
1.03578e+07
1.03534e+07
1.03489e+07
1.03444e+07
1.03399e+07
1.03353e+07
1.03307e+07
1.03261e+07
1.03214e+07
1.03167e+07
1.03119e+07
1.03071e+07
1.03023e+07
1.02975e+07
1.02926e+07
1.02877e+07
1.02827e+07
1.02777e+07
1.02727e+07
1.02676e+07
1.02625e+07
1.02574e+07
1.09679e+07
1.09663e+07
1.09636e+07
1.09599e+07
1.09555e+07
1.09504e+07
1.0945e+07
1.09392e+07
1.09323e+07
1.09218e+07
1.09078e+07
1.08934e+07
1.08876e+07
1.08968e+07
1.08905e+07
1.08699e+07
1.08328e+07
1.07721e+07
1.0741e+07
1.07374e+07
1.07355e+07
1.07339e+07
1.07323e+07
1.07307e+07
1.0729e+07
1.07274e+07
1.07257e+07
1.0724e+07
1.07222e+07
1.07205e+07
1.07188e+07
1.0717e+07
1.07152e+07
1.07135e+07
1.07117e+07
1.07099e+07
1.07081e+07
1.07063e+07
1.07045e+07
1.07027e+07
1.07009e+07
1.0699e+07
1.06972e+07
1.06953e+07
1.06934e+07
1.06915e+07
1.06896e+07
1.06877e+07
1.06858e+07
1.06839e+07
1.06819e+07
1.068e+07
1.0678e+07
1.0676e+07
1.0674e+07
1.0672e+07
1.067e+07
1.06679e+07
1.06659e+07
1.06638e+07
1.06617e+07
1.06596e+07
1.06575e+07
1.06554e+07
1.06532e+07
1.06511e+07
1.06489e+07
1.06467e+07
1.06445e+07
1.06422e+07
1.064e+07
1.06377e+07
1.06355e+07
1.06332e+07
1.06309e+07
1.06285e+07
1.06262e+07
1.06238e+07
1.06215e+07
1.06191e+07
1.06166e+07
1.06142e+07
1.06118e+07
1.06093e+07
1.06068e+07
1.06043e+07
1.06018e+07
1.05992e+07
1.05967e+07
1.05941e+07
1.05915e+07
1.05888e+07
1.05862e+07
1.05835e+07
1.05808e+07
1.05781e+07
1.05754e+07
1.05727e+07
1.05699e+07
1.05671e+07
1.05643e+07
1.05615e+07
1.05586e+07
1.05557e+07
1.05528e+07
1.05499e+07
1.0547e+07
1.0544e+07
1.0541e+07
1.0538e+07
1.0535e+07
1.05319e+07
1.05288e+07
1.05257e+07
1.05226e+07
1.05194e+07
1.05162e+07
1.0513e+07
1.05098e+07
1.05066e+07
1.05033e+07
1.05e+07
1.04966e+07
1.04933e+07
1.04899e+07
1.04865e+07
1.04831e+07
1.04796e+07
1.04761e+07
1.04726e+07
1.0469e+07
1.04655e+07
1.04619e+07
1.04583e+07
1.04546e+07
1.04509e+07
1.04472e+07
1.04435e+07
1.04397e+07
1.04359e+07
1.04321e+07
1.04282e+07
1.04243e+07
1.04204e+07
1.04165e+07
1.04125e+07
1.04085e+07
1.04044e+07
1.04004e+07
1.03962e+07
1.03921e+07
1.03879e+07
1.03837e+07
1.03795e+07
1.03752e+07
1.03709e+07
1.03666e+07
1.03622e+07
1.03578e+07
1.03534e+07
1.03489e+07
1.03444e+07
1.03399e+07
1.03353e+07
1.03307e+07
1.03261e+07
1.03214e+07
1.03167e+07
1.03119e+07
1.03071e+07
1.03023e+07
1.02975e+07
1.02926e+07
1.02876e+07
1.02827e+07
1.02777e+07
1.02726e+07
1.02676e+07
1.02625e+07
1.02573e+07
1.10559e+07
1.10545e+07
1.10519e+07
1.10483e+07
1.10437e+07
1.10381e+07
1.10316e+07
1.1024e+07
1.10152e+07
1.10049e+07
1.09935e+07
1.09819e+07
1.09711e+07
1.09609e+07
1.09472e+07
1.09285e+07
1.09053e+07
1.08804e+07
1.08629e+07
1.0858e+07
1.0836e+07
1.0795e+07
1.07366e+07
1.07314e+07
1.07296e+07
1.07279e+07
1.07262e+07
1.07244e+07
1.07226e+07
1.07208e+07
1.0719e+07
1.07172e+07
1.07154e+07
1.07136e+07
1.07118e+07
1.071e+07
1.07082e+07
1.07064e+07
1.07045e+07
1.07027e+07
1.07009e+07
1.0699e+07
1.06972e+07
1.06953e+07
1.06934e+07
1.06915e+07
1.06896e+07
1.06877e+07
1.06858e+07
1.06839e+07
1.06819e+07
1.068e+07
1.0678e+07
1.0676e+07
1.0674e+07
1.0672e+07
1.067e+07
1.06679e+07
1.06659e+07
1.06638e+07
1.06617e+07
1.06596e+07
1.06575e+07
1.06553e+07
1.06532e+07
1.0651e+07
1.06489e+07
1.06467e+07
1.06445e+07
1.06422e+07
1.064e+07
1.06377e+07
1.06355e+07
1.06332e+07
1.06309e+07
1.06285e+07
1.06262e+07
1.06238e+07
1.06214e+07
1.0619e+07
1.06166e+07
1.06142e+07
1.06117e+07
1.06093e+07
1.06068e+07
1.06043e+07
1.06018e+07
1.05992e+07
1.05966e+07
1.05941e+07
1.05915e+07
1.05888e+07
1.05862e+07
1.05835e+07
1.05808e+07
1.05781e+07
1.05754e+07
1.05727e+07
1.05699e+07
1.05671e+07
1.05643e+07
1.05615e+07
1.05586e+07
1.05557e+07
1.05528e+07
1.05499e+07
1.0547e+07
1.0544e+07
1.0541e+07
1.0538e+07
1.0535e+07
1.05319e+07
1.05288e+07
1.05257e+07
1.05226e+07
1.05194e+07
1.05162e+07
1.0513e+07
1.05098e+07
1.05066e+07
1.05033e+07
1.05e+07
1.04966e+07
1.04933e+07
1.04899e+07
1.04865e+07
1.04831e+07
1.04796e+07
1.04761e+07
1.04726e+07
1.0469e+07
1.04655e+07
1.04619e+07
1.04582e+07
1.04546e+07
1.04509e+07
1.04472e+07
1.04435e+07
1.04397e+07
1.04359e+07
1.04321e+07
1.04282e+07
1.04243e+07
1.04204e+07
1.04165e+07
1.04125e+07
1.04085e+07
1.04044e+07
1.04003e+07
1.03962e+07
1.03921e+07
1.03879e+07
1.03837e+07
1.03795e+07
1.03752e+07
1.03709e+07
1.03666e+07
1.03622e+07
1.03578e+07
1.03534e+07
1.03489e+07
1.03444e+07
1.03399e+07
1.03353e+07
1.03307e+07
1.03261e+07
1.03214e+07
1.03167e+07
1.03119e+07
1.03071e+07
1.03023e+07
1.02975e+07
1.02926e+07
1.02876e+07
1.02827e+07
1.02777e+07
1.02726e+07
1.02675e+07
1.02624e+07
1.02573e+07
1.11466e+07
1.11451e+07
1.11424e+07
1.11385e+07
1.11335e+07
1.11273e+07
1.112e+07
1.11115e+07
1.11017e+07
1.10908e+07
1.10788e+07
1.10659e+07
1.10522e+07
1.10375e+07
1.1021e+07
1.10025e+07
1.09822e+07
1.09612e+07
1.09406e+07
1.09204e+07
1.08968e+07
1.08695e+07
1.0842e+07
1.08239e+07
1.07878e+07
1.07321e+07
1.07267e+07
1.07249e+07
1.07229e+07
1.07211e+07
1.07192e+07
1.07174e+07
1.07155e+07
1.07137e+07
1.07119e+07
1.07101e+07
1.07082e+07
1.07064e+07
1.07046e+07
1.07027e+07
1.07009e+07
1.0699e+07
1.06972e+07
1.06953e+07
1.06934e+07
1.06915e+07
1.06896e+07
1.06877e+07
1.06858e+07
1.06838e+07
1.06819e+07
1.06799e+07
1.0678e+07
1.0676e+07
1.0674e+07
1.0672e+07
1.06699e+07
1.06679e+07
1.06658e+07
1.06638e+07
1.06617e+07
1.06596e+07
1.06575e+07
1.06553e+07
1.06532e+07
1.0651e+07
1.06488e+07
1.06466e+07
1.06444e+07
1.06422e+07
1.064e+07
1.06377e+07
1.06354e+07
1.06332e+07
1.06308e+07
1.06285e+07
1.06262e+07
1.06238e+07
1.06214e+07
1.0619e+07
1.06166e+07
1.06142e+07
1.06117e+07
1.06093e+07
1.06068e+07
1.06043e+07
1.06017e+07
1.05992e+07
1.05966e+07
1.05941e+07
1.05914e+07
1.05888e+07
1.05862e+07
1.05835e+07
1.05808e+07
1.05781e+07
1.05754e+07
1.05727e+07
1.05699e+07
1.05671e+07
1.05643e+07
1.05614e+07
1.05586e+07
1.05557e+07
1.05528e+07
1.05499e+07
1.0547e+07
1.0544e+07
1.0541e+07
1.0538e+07
1.0535e+07
1.05319e+07
1.05288e+07
1.05257e+07
1.05226e+07
1.05194e+07
1.05162e+07
1.0513e+07
1.05098e+07
1.05065e+07
1.05033e+07
1.05e+07
1.04966e+07
1.04933e+07
1.04899e+07
1.04865e+07
1.04831e+07
1.04796e+07
1.04761e+07
1.04726e+07
1.0469e+07