/*--------------------------------*- C++ -*----------------------------------*\
  =========                 |
  \\      /  F ield         | OpenFOAM: The Open Source CFD Toolbox
   \\    /   O peration     | Website:  https://openfoam.org
    \\  /    A nd           | Version:  10
     \\/     M anipulation  |
\*---------------------------------------------------------------------------*/
FoamFile
{
    format      ascii;
    class       volVectorField;
    location    "1.33";
    object      Ua;
}
// * * * * * * * * * * * * * * * * * * * * * * * * * * * * * * * * * * * * * //

dimensions      [0 1 -1 0 0 0 0];

internalField   nonuniform List<vector> 
12225
(
(3.2223e-05 -4.14814e-06 0)
(9.42114e-05 -3.88543e-06 0)
(0.000150444 -3.40315e-06 0)
(0.000200037 -2.86028e-06 0)
(0.000243378 -2.36399e-06 0)
(0.00028149 -1.96745e-06 0)
(0.000315585 -1.68876e-06 0)
(0.000346822 -1.52974e-06 0)
(0.000376241 -1.48902e-06 0)
(0.000404773 -1.57054e-06 0)
(0.000433312 -1.79075e-06 0)
(0.00046282 -2.18818e-06 0)
(0.000494506 -2.84254e-06 0)
(0.000530153 -3.92012e-06 0)
(0.000572863 -5.80065e-06 0)
(0.000629174 -9.51366e-06 0)
(0.00071705 -1.873e-05 0)
(0.000908786 -5.243e-05 0)
(2.19474e-05 -1.07558e-05 0)
(6.46454e-05 -1.01376e-05 0)
(0.00010443 -8.94071e-06 0)
(0.000140659 -7.56612e-06 0)
(0.000173364 -6.29368e-06 0)
(0.000202983 -5.26897e-06 0)
(0.000230132 -4.54715e-06 0)
(0.000255459 -4.13969e-06 0)
(0.000279584 -4.04831e-06 0)
(0.000303101 -4.28803e-06 0)
(0.000326603 -4.90679e-06 0)
(0.000350751 -6.01187e-06 0)
(0.00037638 -7.82097e-06 0)
(0.000404695 -1.07812e-05 0)
(0.000437685 -1.58896e-05 0)
(0.000478991 -2.57182e-05 0)
(0.000535143 -4.84643e-05 0)
(0.000604535 -0.000118043 0)
(1.70439e-05 -1.48096e-05 0)
(5.05172e-05 -1.4086e-05 0)
(8.23975e-05 -1.25428e-05 0)
(0.000112174 -1.07118e-05 0)
(0.000139735 -8.9837e-06 0)
(0.000165259 -7.57539e-06 0)
(0.000189085 -6.5798e-06 0)
(0.000211614 -6.02669e-06 0)
(0.000233262 -5.92943e-06 0)
(0.000254447 -6.31839e-06 0)
(0.000275605 -7.27014e-06 0)
(0.000297224 -8.94605e-06 0)
(0.00031991 -1.1664e-05 0)
(0.000344489 -1.6058e-05 0)
(0.000372142 -2.34765e-05 0)
(0.000404392 -3.70971e-05 0)
(0.000441293 -6.53124e-05 0)
(0.000467224 -0.000131442 0)
(1.38641e-05 -1.74544e-05 0)
(4.13305e-05 -1.67581e-05 0)
(6.80083e-05 -1.50643e-05 0)
(9.34806e-05 -1.29792e-05 0)
(0.000117566 -1.09709e-05 0)
(0.000140294 -9.31464e-06 0)
(0.000161835 -8.14029e-06 0)
(0.000182434 -7.49964e-06 0)
(0.000202371 -7.42156e-06 0)
(0.000221943 -7.95311e-06 0)
(0.00024147 -9.19576e-06 0)
(0.000261307 -1.13519e-05 0)
(0.000281874 -1.48064e-05 0)
(0.000303673 -2.02958e-05 0)
(0.000327221 -2.92869e-05 0)
(0.000352555 -4.48566e-05 0)
(0.000376835 -7.35755e-05 0)
(0.000385647 -0.000127516 0)
(1.15497e-05 -1.90926e-05 0)
(3.46231e-05 -1.85112e-05 0)
(5.74484e-05 -1.67976e-05 0)
(7.96826e-05 -1.45967e-05 0)
(0.000101111 -1.24309e-05 0)
(0.000121673 -1.06237e-05 0)
(0.000141426 -9.33965e-06 0)
(0.000160505 -8.65399e-06 0)
(0.000179088 -8.61269e-06 0)
(0.00019738 -9.27898e-06 0)
(0.000215605 -1.07742e-05 0)
(0.000234004 -1.33277e-05 0)
(0.000252835 -1.73576e-05 0)
(0.000272323 -2.36231e-05 0)
(0.000292485 -3.3518e-05 0)
(0.000312493 -4.95964e-05 0)
(0.0003288 -7.61742e-05 0)
(0.000331248 -0.000118024 0)
(9.76037e-06 -1.99312e-05 0)
(2.94197e-05 -1.9527e-05 0)
(4.92105e-05 -1.78875e-05 0)
(6.88494e-05 -1.56731e-05 0)
(8.81119e-05 -1.34439e-05 0)
(0.00010688 -1.15621e-05 0)
(0.000125136 -1.02241e-05 0)
(0.000142932 -9.52784e-06 0)
(0.000160367 -9.53655e-06 0)
(0.000177569 -1.03278e-05 0)
(0.00019468 -1.20366e-05 0)
(0.000211842 -1.49043e-05 0)
(0.000229173 -1.935e-05 0)
(0.000246682 -2.60882e-05 0)
(0.000264053 -3.63109e-05 0)
(0.000280098 -5.18938e-05 0)
(0.000291627 -7.52506e-05 0)
(0.000292282 -0.000107366 0)
(8.32587e-06 -2.00991e-05 0)
(2.52333e-05 -1.99162e-05 0)
(4.25429e-05 -1.84191e-05 0)
(6.00205e-05 -1.62691e-05 0)
(7.74459e-05 -1.40511e-05 0)
(9.46697e-05 -1.21579e-05 0)
(0.00011162 -1.08129e-05 0)
(0.000128288 -1.01354e-05 0)
(0.00014471 -1.02044e-05 0)
(0.000160946 -1.11088e-05 0)
(0.000177068 -1.29906e-05 0)
(0.000193135 -1.60887e-05 0)
(0.000209148 -2.07954e-05 0)
(0.000224965 -2.77316e-05 0)
(0.000240093 -3.78273e-05 0)
(0.000253316 -5.23099e-05 0)
(0.000262164 -7.22739e-05 0)
(0.000262933 -9.71102e-05 0)
(7.14852e-06 -1.96887e-05 0)
(2.17843e-05 -1.97565e-05 0)
(3.70145e-05 -1.84491e-05 0)
(5.26463e-05 -1.64221e-05 0)
(6.8474e-05 -1.42752e-05 0)
(8.43335e-05 -1.24236e-05 0)
(0.000100117 -1.11124e-05 0)
(0.000115769 -1.04794e-05 0)
(0.000131272 -1.06166e-05 0)
(0.000146634 -1.1621e-05 0)
(0.000161864 -1.36344e-05 0)
(0.00017695 -1.68807e-05 0)
(0.000191809 -2.17045e-05 0)
(0.000206204 -2.86073e-05 0)
(0.000219589 -3.82522e-05 0)
(0.000230896 -5.13444e-05 0)
(0.00023838 -6.81896e-05 0)
(0.000239989 -8.77169e-05 0)
(6.16652e-06 -1.8774e-05 0)
(1.88957e-05 -1.9108e-05 0)
(3.23527e-05 -1.80195e-05 0)
(4.63804e-05 -1.61574e-05 0)
(6.07951e-05 -1.4129e-05 0)
(7.54299e-05 -1.23636e-05 0)
(9.01543e-05 -1.11221e-05 0)
(0.000104877 -1.05561e-05 0)
(0.000119539 -1.0768e-05 0)
(0.0001341 -1.18584e-05 0)
(0.000148519 -1.39629e-05 0)
(0.000162729 -1.72807e-05 0)
(0.000176588 -2.20962e-05 0)
(0.000189817 -2.8786e-05 0)
(0.000201894 -3.77785e-05 0)
(0.000211968 -4.94077e-05 0)
(0.000218877 -6.35741e-05 0)
(0.000221532 -7.9233e-05 0)
(5.33778e-06 -1.74218e-05 0)
(1.64464e-05 -1.80225e-05 0)
(2.83709e-05 -1.71645e-05 0)
(4.09869e-05 -1.54942e-05 0)
(5.41377e-05 -1.36207e-05 0)
(6.76629e-05 -1.19788e-05 0)
(8.14183e-05 -1.08383e-05 0)
(9.52855e-05 -1.03598e-05 0)
(0.000109171 -1.06517e-05 0)
(0.000122996 -1.18146e-05 0)
(0.00013668 -1.39727e-05 0)
(0.000150114 -1.72941e-05 0)
(0.000163122 -2.19998e-05 0)
(0.000175419 -2.83502e-05 0)
(0.000186552 -3.65897e-05 0)
(0.00019588 -4.68161e-05 0)
(0.000202666 -5.87619e-05 0)
(0.000206352 -7.15687e-05 0)
(4.63148e-06 -1.5697e-05 0)
(1.43474e-05 -1.65484e-05 0)
(2.49317e-05 -1.59145e-05 0)
(3.62931e-05 -1.44489e-05 0)
(4.83061e-05 -1.27567e-05 0)
(6.08219e-05 -1.12692e-05 0)
(7.36887e-05 -1.02571e-05 0)
(8.67677e-05 -9.88432e-06 0)
(9.99377e-05 -1.02612e-05 0)
(0.000113089 -1.14845e-05 0)
(0.00012611 -1.36634e-05 0)
(0.000138863 -1.69329e-05 0)
(0.000151161 -2.14534e-05 0)
(0.000162734 -2.73883e-05 0)
(0.000173209 -3.48497e-05 0)
(0.000182129 -4.38021e-05 0)
(0.000189035 -5.39387e-05 0)
(0.000193654 -6.46048e-05 0)
(3.97431e-06 -1.38235e-05 0)
(1.24017e-05 -1.48799e-05 0)
(2.17636e-05 -1.44388e-05 0)
(3.19983e-05 -1.31671e-05 0)
(4.30014e-05 -1.16606e-05 0)
(5.46275e-05 -1.0339e-05 0)
(6.67147e-05 -9.46699e-06 0)
(7.91059e-05 -9.2067e-06 0)
(9.1658e-05 -9.66715e-06 0)
(0.000104239 -1.09392e-05 0)
(0.000116716 -1.31168e-05 0)
(0.000128939 -1.63053e-05 0)
(0.000140722 -2.06156e-05 0)
(0.000151822 -2.61403e-05 0)
(0.000161939 -3.29086e-05 0)
(0.00017074 -4.0821e-05 0)
(0.00017793 -4.95866e-05 0)
(0.000183363 -5.87109e-05 0)
(3.54441e-06 -1.17638e-05 0)
(1.11001e-05 -1.29709e-05 0)
(1.9584e-05 -1.26875e-05 0)
(2.89716e-05 -1.16e-05 0)
(3.91896e-05 -1.02869e-05 0)
(5.01065e-05 -9.14703e-06 0)
(6.15601e-05 -8.43124e-06 0)
(7.33835e-05 -8.29512e-06 0)
(8.54192e-05 -8.84296e-06 0)
(9.75189e-05 -1.01579e-05 0)
(0.000109536 -1.23188e-05 0)
(0.000121312 -1.54044e-05 0)
(0.000132664 -1.94857e-05 0)
(0.000143379 -2.46051e-05 0)
(0.000153213 -3.07416e-05 0)
(0.000161926 -3.77715e-05 0)
(0.000169328 -4.544e-05 0)
(0.000175349 -5.33733e-05 0)
(3.11287e-06 -9.29583e-06 0)
(9.77366e-06 -1.05718e-05 0)
(1.73367e-05 -1.04045e-05 0)
(2.58403e-05 -9.50256e-06 0)
(3.52467e-05 -8.411e-06 0)
(4.54347e-05 -7.49095e-06 0)
(5.62375e-05 -6.96838e-06 0)
(6.74769e-05 -6.98512e-06 0)
(7.89809e-05 -7.63648e-06 0)
(9.05874e-05 -8.99498e-06 0)
(0.000102139 -1.11224e-05 0)
(0.000113473 -1.40713e-05 0)
(0.000124419 -1.78779e-05 0)
(0.000134792 -2.25456e-05 0)
(0.000144408 -2.80234e-05 0)
(0.000153101 -3.41857e-05 0)
(0.000160756 -4.08249e-05 0)
(0.000167347 -4.76699e-05 0)
(2.65897e-06 -6.46523e-06 0)
(8.36355e-06 -7.62101e-06 0)
(1.49459e-05 -7.48548e-06 0)
(2.25424e-05 -6.75836e-06 0)
(3.11434e-05 -5.91685e-06 0)
(4.06219e-05 -5.25851e-06 0)
(5.07935e-05 -4.9693e-06 0)
(6.14624e-05 -5.16937e-06 0)
(7.24418e-05 -5.94047e-06 0)
(8.35581e-05 -7.34197e-06 0)
(9.46481e-05 -9.41866e-06 0)
(0.000105555 -1.22011e-05 0)
(0.000116125 -1.56997e-05 0)
(0.000126213 -1.98947e-05 0)
(0.000135683 -2.47244e-05 0)
(0.000144431 -3.00771e-05 0)
(0.000152391 -3.57937e-05 0)
(0.000159556 -4.16826e-05 0)
(2.08788e-06 -3.37017e-06 0)
(6.62973e-06 -4.0536e-06 0)
(1.21219e-05 -3.83659e-06 0)
(1.88186e-05 -3.27808e-06 0)
(2.66893e-05 -2.72102e-06 0)
(3.55535e-05 -2.36532e-06 0)
(4.51756e-05 -2.34248e-06 0)
(5.53247e-05 -2.74591e-06 0)
(6.57982e-05 -3.643e-06 0)
(7.6424e-05 -5.08277e-06 0)
(8.70562e-05 -7.10032e-06 0)
(9.75668e-05 -9.7126e-06 0)
(0.00010784 -1.29159e-05 0)
(0.000117768 -1.66799e-05 0)
(0.000127258 -2.09433e-05 0)
(0.000136236 -2.56121e-05 0)
(0.000144653 -3.05654e-05 0)
(0.000152493 -3.5666e-05 0)
(1.05744e-06 1.04344e-08 0)
(3.67489e-06 2.50101e-07 0)
(7.6419e-06 5.81912e-07 0)
(1.32474e-05 9.1404e-07 0)
(2.02833e-05 1.14598e-06 0)
(2.84558e-05 1.1735e-06 0)
(3.75052e-05 9.05445e-07 0)
(4.72096e-05 2.70785e-07 0)
(5.73724e-05 -7.81802e-07 0)
(6.78378e-05 -2.33615e-06 0)
(7.84969e-05 -4.41812e-06 0)
(8.92239e-05 -6.97909e-06 0)
(9.98701e-05 -1.00078e-05 0)
(0.000110306 -1.34696e-05 0)
(0.000120423 -1.73071e-05 0)
(0.000130136 -2.14424e-05 0)
(0.000139385 -2.57826e-05 0)
(0.000148139 -3.02282e-05 0)
(2.48719e-06 4.03229e-06 0)
(7.61492e-06 5.45798e-06 0)
(1.3242e-05 6.08977e-06 0)
(1.96618e-05 6.26609e-06 0)
(2.69919e-05 6.14768e-06 0)
(3.52043e-05 5.76143e-06 0)
(4.41808e-05 5.08529e-06 0)
(5.37643e-05 4.08939e-06 0)
(6.37898e-05 2.75e-06 0)
(7.40804e-05 1.00407e-06 0)
(8.44448e-05 -1.15403e-06 0)
(9.47909e-05 -3.80869e-06 0)
(0.000105096 -6.85087e-06 0)
(0.000115276 -1.01745e-05 0)
(0.000125229 -1.37315e-05 0)
(0.000134872 -1.74623e-05 0)
(0.000144146 -2.13004e-05 0)
(0.000153014 -2.5178e-05 0)
(3.47432e-06 9.56336e-06 0)
(1.06587e-05 1.17633e-05 0)
(1.83228e-05 1.27508e-05 0)
(2.65013e-05 1.28802e-05 0)
(3.52327e-05 1.24292e-05 0)
(4.4513e-05 1.1562e-05 0)
(5.42876e-05 1.0363e-05 0)
(6.44645e-05 8.87315e-06 0)
(7.49318e-05 7.11291e-06 0)
(8.55717e-05 5.09551e-06 0)
(9.627e-05 2.83638e-06 0)
(0.000106872 2.06448e-07 0)
(0.000117217 -2.69751e-06 0)
(0.000127285 -5.91151e-06 0)
(0.000137082 -9.22329e-06 0)
(0.000146554 -1.25939e-05 0)
(0.000155664 -1.59817e-05 0)
(0.000164394 -1.93455e-05 0)
(3.96433e-06 1.56937e-05 0)
(1.22382e-05 1.78828e-05 0)
(2.11496e-05 1.88323e-05 0)
(3.0615e-05 1.87787e-05 0)
(4.05767e-05 1.79969e-05 0)
(5.09723e-05 1.67039e-05 0)
(6.1722e-05 1.50477e-05 0)
(7.27306e-05 1.31228e-05 0)
(8.38951e-05 1.09881e-05 0)
(9.51121e-05 8.68221e-06 0)
(0.000106284 6.23314e-06 0)
(0.000117323 3.66404e-06 0)
(0.000128149 9.81081e-07 0)
(0.000138619 -1.95368e-06 0)
(0.000148695 -5.0455e-06 0)
(0.000158428 -8.1158e-06 0)
(0.000167789 -1.1141e-05 0)
(0.000176762 -1.4098e-05 0)
(4.72483e-06 2.09572e-05 0)
(1.45065e-05 2.27219e-05 0)
(2.49013e-05 2.33173e-05 0)
(3.5808e-05 2.29148e-05 0)
(4.71292e-05 2.1769e-05 0)
(5.87692e-05 2.01071e-05 0)
(7.06297e-05 1.80997e-05 0)
(8.26095e-05 1.58639e-05 0)
(9.4609e-05 1.34762e-05 0)
(0.000106534 1.09863e-05 0)
(0.000118299 8.42754e-06 0)
(0.000129831 5.82484e-06 0)
(0.000141068 3.19886e-06 0)
(0.000151954 5.43738e-07 0)
(0.000162391 -2.28901e-06 0)
(0.00017236 -5.14262e-06 0)
(0.000181913 -7.90978e-06 0)
(0.000191044 -1.05783e-05 0)
(5.6574e-06 2.52101e-05 0)
(1.72519e-05 2.64721e-05 0)
(2.93661e-05 2.66202e-05 0)
(4.19028e-05 2.58146e-05 0)
(5.47446e-05 2.43013e-05 0)
(6.7774e-05 2.23096e-05 0)
(8.08778e-05 2.00179e-05 0)
(9.39498e-05 1.75518e-05 0)
(0.000106893 1.49944e-05 0)
(0.000119622 1.23982e-05 0)
(0.000132063 9.79699e-06 0)
(0.000144156 7.2128e-06 0)
(0.000155855 4.66177e-06 0)
(0.000167123 2.15692e-06 0)
(0.000177909 -3.49412e-07 0)
(0.000188178 -2.96246e-06 0)
(0.000197952 -5.48676e-06 0)
(0.00020725 -7.89298e-06 0)
(6.7881e-06 2.81877e-05 0)
(2.05678e-05 2.89692e-05 0)
(3.47204e-05 2.86734e-05 0)
(4.915e-05 2.74812e-05 0)
(6.37275e-05 2.56412e-05 0)
(7.83227e-05 2.33834e-05 0)
(9.2815e-05 2.08868e-05 0)
(0.000107099 1.82769e-05 0)
(0.000121083 1.56356e-05 0)
(0.000134695 1.30131e-05 0)
(0.000147876 1.0439e-05 0)
(0.00016058 7.93071e-06 0)
(0.000172778 5.49855e-06 0)
(0.000184449 3.1495e-06 0)
(0.000195583 8.88762e-07 0)
(0.000206134 -1.41964e-06 0)
(0.000216108 -3.70066e-06 0)
(0.00022556 -5.85331e-06 0)
(8.15344e-06 2.977e-05 0)
(2.45667e-05 3.01321e-05 0)
(4.11541e-05 2.94506e-05 0)
(5.78095e-05 2.79374e-05 0)
(7.43945e-05 2.58487e-05 0)
(9.07732e-05 2.34132e-05 0)
(0.000106827 2.08058e-05 0)
(0.000122457 1.81463e-05 0)
(0.000137589 1.55105e-05 0)
(0.000152165 1.29422e-05 0)
(0.000166147 1.04651e-05 0)
(0.000179509 8.09025e-06 0)
(0.00019224 5.82223e-06 0)
(0.000204336 3.66218e-06 0)
(0.000215804 1.60986e-06 0)
(0.000226633 -3.74419e-07 0)
(0.000236833 -2.40428e-06 0)
(0.000246445 -4.30544e-06 0)
(9.80939e-06 2.99133e-05 0)
(2.94126e-05 2.99332e-05 0)
(4.89301e-05 2.89556e-05 0)
(6.82316e-05 2.72197e-05 0)
(8.71686e-05 2.49875e-05 0)
(0.000105606 2.24828e-05 0)
(0.000123438 1.98712e-05 0)
(0.000140584 1.72628e-05 0)
(0.000156992 1.47241e-05 0)
(0.000172633 1.22907e-05 0)
(0.000187492 9.97885e-06 0)
(0.000201569 7.79358e-06 0)
(0.000214876 5.7338e-06 0)
(0.000227428 3.79581e-06 0)
(0.000239252 1.97503e-06 0)
(0.000250375 2.66979e-07 0)
(0.000260796 -1.47869e-06 0)
(0.000270546 -3.12816e-06 0)
(1.18462e-05 2.86011e-05 0)
(3.53677e-05 2.83645e-05 0)
(5.84643e-05 2.72e-05 0)
(8.09652e-05 2.53631e-05 0)
(0.00010271 2.31131e-05 0)
(0.000123575 2.06626e-05 0)
(0.000143476 1.81633e-05 0)
(0.000162368 1.5712e-05 0)
(0.000180233 1.33637e-05 0)
(0.000197078 1.11452e-05 0)
(0.000212924 9.06547e-06 0)
(0.000227802 7.12381e-06 0)
(0.000241751 5.31465e-06 0)
(0.000254813 3.63055e-06 0)
(0.000267033 2.06379e-06 0)
(0.000278458 6.07023e-07 0)
(0.000289108 -8.32857e-07 0)
(0.000299027 -2.2287e-06 0)
(1.44232e-05 2.58021e-05 0)
(4.28952e-05 2.54012e-05 0)
(7.04914e-05 2.41746e-05 0)
(9.69806e-05 2.2377e-05 0)
(0.00012219 2.02526e-05 0)
(0.000146017 1.79936e-05 0)
(0.000168419 1.57325e-05 0)
(0.000189401 1.35497e-05 0)
(0.000208999 1.14881e-05 0)
(0.000227269 9.56523e-06 0)
(0.00024428 7.78404e-06 0)
(0.000260103 6.13941e-06 0)
(0.000274811 4.62267e-06 0)
(0.000288478 3.22417e-06 0)
(0.000301174 1.93449e-06 0)
(0.000312965 7.44976e-07 0)
(0.000323898 -3.97102e-07 0)
(0.00033403 -1.5362e-06 0)
(1.78652e-05 2.14103e-05 0)
(5.29414e-05 2.09463e-05 0)
(8.65156e-05 1.98008e-05 0)
(0.000118268 1.82049e-05 0)
(0.000148015 1.63704e-05 0)
(0.000175691 1.44582e-05 0)
(0.00020132 1.2575e-05 0)
(0.000224985 1.07827e-05 0)
(0.0002468 9.1111e-06 0)
(0.000266893 7.57015e-06 0)
(0.000285396 6.158e-06 0)
(0.000302435 4.86708e-06 0)
(0.00031813 3.68757e-06 0)
(0.000332593 2.60932e-06 0)
(0.000345927 1.62284e-06 0)
(0.000358225 7.19608e-07 0)
(0.000369563 -1.23578e-07 0)
(0.000380017 -1.00038e-06 0)
(2.30208e-05 1.51072e-05 0)
(6.79824e-05 1.46996e-05 0)
(0.000110485 1.38114e-05 0)
(0.000150071 1.26189e-05 0)
(0.000186546 1.12782e-05 0)
(0.000219913 9.90421e-06 0)
(0.00025031 8.57021e-06 0)
(0.000277944 7.31644e-06 0)
(0.000303052 6.16047e-06 0)
(0.000325873 5.10598e-06 0)
(0.000346635 4.14901e-06 0)
(0.000365546 3.28208e-06 0)
(0.000382794 2.49658e-06 0)
(0.000398546 1.78407e-06 0)
(0.000412952 1.13685e-06 0)
(0.000426143 5.48156e-07 0)
(0.000438236 1.04998e-08 0)
(0.000449337 -5.93445e-07 0)
(3.42331e-05 5.72096e-06 0)
(0.000100749 5.54799e-06 0)
(0.000162851 5.19319e-06 0)
(0.00021981 4.72661e-06 0)
(0.000271419 4.20893e-06 0)
(0.000317841 3.6839e-06 0)
(0.000359453 3.17872e-06 0)
(0.000396723 2.70777e-06 0)
(0.00043014 2.27678e-06 0)
(0.000460165 1.88633e-06 0)
(0.000487217 1.53428e-06 0)
(0.000511664 1.21726e-06 0)
(0.000533824 9.31616e-07 0)
(0.000553971 6.73859e-07 0)
(0.000572343 4.40843e-07 0)
(0.000589141 2.29842e-07 0)
(0.000604543 3.86391e-08 0)
(0.000618599 -1.93039e-07 0)
(0.000208971 -0.000446667 -5.77057e-30)
(0.000628361 -0.000445504 5.75058e-30)
(0.00104961 -0.000443322 0)
(0.00147169 -0.000440032 0)
(0.00189348 -0.000435507 0)
(0.00231368 -0.000429627 -5.52548e-30)
(0.00273085 -0.000422263 0)
(0.0031434 -0.000413332 0)
(0.0035497 -0.000402872 0)
(0.00394816 -0.00039108 0)
(0.00433745 -0.000378244 4.83749e-30)
(0.00471644 -0.000364623 0)
(0.00508423 -0.000350387 0)
(0.00544002 -0.000335641 0)
(0.00578311 -0.000320473 0)
(0.00611286 -0.000304985 3.86967e-30)
(0.00642875 -0.000289286 0)
(0.00673037 -0.00027347 0)
(0.00701735 -0.0002576 0)
(0.00728941 -0.00024172 0)
(0.00754629 -0.000225873 0)
(0.00778779 -0.000210121 0)
(0.0080138 -0.000194546 0)
(0.00822429 -0.000179248 2.21964e-30)
(0.00841937 -0.000164331 -2.02454e-30)
(0.00859926 -0.000149897 1.83587e-30)
(0.00876432 -0.00013604 1.65481e-30)
(0.00891499 -0.000122835 0)
(0.00905184 -0.000110345 0)
(0.00917549 -9.86156e-05 -1.16626e-30)
(0.00928664 -8.76764e-05 -1.02357e-30)
(0.00938604 -7.75435e-05 0)
(0.00947447 -6.82192e-05 0)
(0.00955271 -5.9694e-05 -6.5876e-31)
(0.00962157 -5.19478e-05 0)
(0.00968183 -4.49512e-05 0)
(0.00973427 -3.86679e-05 3.8486e-31)
(0.00977962 -3.30555e-05 0)
(0.0098186 -2.80683e-05 2.46868e-31)
(0.00985186 -2.36581e-05 3.78952e-31)
(0.00988001 -1.97762e-05 0)
(0.00990365 -1.63742e-05 0)
(0.00992328 -1.34055e-05 0)
(0.00993938 -1.08253e-05 0)
(0.0099524 -8.59201e-06 0)
(0.00996271 -6.66663e-06 -6.28848e-32)
(0.00997067 -5.01357e-06 -1.05801e-31)
(0.00997659 -3.60042e-06 -1.42471e-31)
(0.00998075 -2.39792e-06 0)
(0.00998339 -1.37981e-06 2.00032e-31)
(0.00998473 -5.2267e-07 0)
(0.00998496 1.9429e-07 -2.40759e-31)
(0.00998425 7.89468e-07 -2.5613e-31)
(0.00998275 1.27909e-06 0)
(0.0099806 1.67741e-06 0)
(0.00997789 1.99696e-06 0)
(0.00997475 2.2487e-06 -2.93622e-31)
(0.00997124 2.44223e-06 0)
(0.00996745 2.58593e-06 0)
(0.00996343 2.68711e-06 0)
(0.00995926 2.75216e-06 0)
(0.00995498 2.78663e-06 0)
(0.00995062 2.79536e-06 0)
(0.00994624 2.78256e-06 0)
(0.00994184 2.75188e-06 0)
(0.00993748 2.70648e-06 3.04577e-31)
(0.00993316 2.64913e-06 0)
(0.0099289 2.58217e-06 0)
(0.00992472 2.50767e-06 -2.99135e-31)
(0.00992064 2.42739e-06 -2.96968e-31)
(0.00991665 2.34284e-06 0)
(0.00991278 2.2553e-06 2.9233e-31)
(0.00990903 2.16589e-06 -2.89933e-31)
(0.0099054 2.07553e-06 0)
(0.00990189 1.98502e-06 2.85089e-31)
(0.00989851 1.89501e-06 0)
(0.00989526 1.80605e-06 0)
(0.00989214 1.7186e-06 -2.77969e-31)
(0.00988914 1.63302e-06 0)
(0.00988627 1.5496e-06 2.73463e-31)
(0.00988353 1.46859e-06 0)
(0.00988091 1.39016e-06 -2.69218e-31)
(0.0098784 1.31443e-06 -2.672e-31)
(0.00987602 1.2415e-06 -2.65258e-31)
(0.00987375 1.17143e-06 -5.26783e-31)
(0.00987159 1.10425e-06 5.23212e-31)
(0.00986954 1.03995e-06 0)
(0.00986759 9.78533e-07 0)
(0.00986574 9.19951e-07 0)
(0.00986399 8.64162e-07 5.10437e-31)
(0.00986233 8.11107e-07 5.07618e-31)
(0.00986075 7.60718e-07 -5.04937e-31)
(0.00985927 7.12919e-07 0)
(0.00985786 6.67631e-07 4.99987e-31)
(0.00985654 6.24768e-07 4.97713e-31)
(0.00985529 5.84244e-07 4.95559e-31)
(0.00985411 5.45968e-07 0)
(0.009853 5.0985e-07 0)
(0.00985195 4.758e-07 0)
(0.00985096 4.43728e-07 4.8809e-31)
(0.00985004 4.13544e-07 0)
(0.00984917 3.85161e-07 0)
(0.00984835 3.58493e-07 -4.83556e-31)
(0.00984758 3.33456e-07 0)
(0.00984686 3.09968e-07 0)
(0.00984618 2.8795e-07 -4.79809e-31)
(0.00984555 2.67326e-07 0)
(0.00984496 2.4802e-07 0)
(0.00984441 2.29963e-07 4.76727e-31)
(0.00984389 2.13084e-07 4.7583e-31)
(0.0098434 1.97319e-07 0)
(0.00984295 1.82604e-07 -4.74213e-31)
(0.00984253 1.68879e-07 0)
(0.00984214 1.56086e-07 4.72801e-31)
(0.00984177 1.44171e-07 0)
(0.00984143 1.3308e-07 4.7158e-31)
(0.00984111 1.22765e-07 4.71027e-31)
(0.00984081 1.13177e-07 0)
(0.00984054 1.04272e-07 0)
(0.00984028 9.60077e-08 0)
(0.00984004 8.83432e-08 0)
(0.00983982 8.12408e-08 0)
(0.00983962 7.46645e-08 0)
(0.00983943 6.85804e-08 0)
(0.00983925 6.29569e-08 4.67852e-31)
(0.00983909 5.77641e-08 -4.67572e-31)
(0.00983894 5.29741e-08 0)
(0.0098388 4.85608e-08 0)
(0.00983867 4.45003e-08 0)
(0.00983855 4.077e-08 0)
(0.00983844 3.73495e-08 -9.32973e-31)
(0.00983834 3.42201e-08 0)
(0.00983824 3.13652e-08 9.32337e-31)
(0.00983816 2.87698e-08 -9.32061e-31)
(0.00983808 2.64212e-08 0)
(0.009838 2.43088e-08 0)
(0.00983793 2.24244e-08 0)
(0.00983787 2.07625e-08 9.3121e-31)
(0.00983781 1.93203e-08 9.31055e-31)
(0.00983775 1.80989e-08 0)
(0.00983769 1.71028e-08 9.30812e-31)
(0.00983764 1.63417e-08 9.30724e-31)
(0.00983759 1.58305e-08 -9.30672e-31)
(0.00983754 1.55911e-08 0)
(0.00983749 1.56538e-08 0)
(0.00983744 1.60586e-08 -9.30681e-31)
(0.00983739 1.68583e-08 0)
(0.00983733 1.81214e-08 0)
(0.00983727 1.99354e-08 0)
(0.00983719 2.24124e-08 0)
(0.00983711 2.56952e-08 9.31645e-31)
(0.00983702 2.99649e-08 9.32078e-31)
(0.00983691 3.54516e-08 0)
(0.00983677 4.24474e-08 9.33346e-31)
(0.0098366 5.13234e-08 0)
(0.0098364 6.25513e-08 0)
(0.00983615 7.6732e-08 9.36832e-31)
(0.00983584 9.46326e-08 0)
(0.00983546 1.17234e-07 9.40956e-31)
(0.00983497 1.45796e-07 0)
(0.00983436 1.81938e-07 0)
(0.00983359 2.27754e-07 9.52205e-31)
(0.00983262 2.85964e-07 0)
(0.00983138 3.60118e-07 9.65681e-31)
(0.0098298 4.54881e-07 0)
(0.00982779 5.7643e-07 0)
(0.00982521 7.33029e-07 0)
(0.00982189 9.3586e-07 -1.02432e-30)
(0.0098176 1.20028e-06 0)
(0.00981202 1.54775e-06 1.08665e-30)
(0.00980474 2.009e-06 0)
(0.00979515 2.62926e-06 0)
(0.0097824 3.47764e-06 0)
(0.00976524 4.66491e-06 0)
(0.00974173 6.38003e-06 0)
(0.00970873 8.97381e-06 0)
(0.00966065 1.31791e-05 0)
(0.00958614 2.08137e-05 -6.11474e-30)
(0.00945659 3.77052e-05 0)
(0.00916946 9.06706e-05 0)
(0.000211031 -0.00134441 1.73685e-29)
(0.000634612 -0.00134103 -1.73099e-29)
(0.00106027 -0.00133478 0)
(0.00148715 -0.00132534 3.41888e-29)
(0.00191417 -0.00131216 0)
(0.00234002 -0.00129492 -1.67088e-29)
(0.00276318 -0.00127304 -3.27768e-29)
(0.00318173 -0.00124595 -3.20568e-29)
(0.00359344 -0.00121364 0)
(0.00399629 -0.00117703 -3.02367e-29)
(0.0043888 -0.00113743 1.46491e-29)
(0.00477013 -0.00109585 0)
(0.00513968 -0.00105271 0)
(0.00549684 -0.00100811 0)
(0.00584089 -0.000962204 0)
(0.0061712 -0.000915329 1.17575e-29)
(0.00648726 -0.000867898 0)
(0.00678874 -0.000820228 2.08818e-29)
(0.00707539 -0.000772473 0)
(0.00734696 -0.00072469 0)
(0.00760316 -0.000676958 -1.71399e-29)
(0.00784373 -0.000629449 0)
(0.00806849 -0.000582432 1.46745e-29)
(0.0082774 -0.000536235 6.83296e-30)
(0.00847055 -0.000491204 -6.24866e-30)
(0.00864821 -0.000447665 5.68385e-30)
(0.00881076 -0.000405907 5.14221e-30)
(0.00895874 -0.000366162 0)
(0.00909274 -0.000328615 0)
(0.00921347 -0.000293395 -3.68328e-30)
(0.00932166 -0.000260589 -9.5539e-30)
(0.00941812 -0.000230239 0)
(0.00950366 -0.000202345 0)
(0.0095791 -0.000176875 -2.17298e-30)
(0.00964529 -0.000153762 0)
(0.00970302 -0.000132913 0)
(0.0097531 -0.000114213 1.36103e-30)
(0.00979627 -9.75299e-05 0)
(0.00983323 -8.27222e-05 2.62709e-30)
(0.00986466 -6.96419e-05 1.5673e-30)
(0.00989117 -5.81398e-05 0)
(0.00991333 -4.80692e-05 0)
(0.00993164 -3.92883e-05 -1.09324e-30)
(0.00994658 -3.16626e-05 -6.9759e-31)
(0.00995857 -2.50665e-05 -3.55454e-31)
(0.00996798 -1.93836e-05 3.26477e-31)
(0.00997515 -1.45074e-05 1.39504e-31)
(0.00998038 -1.03414e-05 4.39574e-31)
(0.00998394 -6.79834e-06 -5.91385e-31)
(0.00998606 -3.8004e-06 1.37524e-31)
(0.00998695 -1.2781e-06 0)
(0.0099868 8.30179e-07 -2.57239e-31)
(0.00998576 2.57886e-06 -1.37877e-30)
(0.00998398 4.01593e-06 0)
(0.00998158 5.18353e-06 0)
(0.00997867 6.11866e-06 0)
(0.00997535 6.85371e-06 -4.12673e-31)
(0.00997169 7.41701e-06 0)
(0.00996777 7.83332e-06 -1.3463e-30)
(0.00996366 8.12423e-06 0)
(0.0099594 8.30859e-06 -1.37008e-30)
(0.00995504 8.40281e-06 0)
(0.00995062 8.42117e-06 1.37507e-30)
(0.00994619 8.37612e-06 0)
(0.00994175 8.27844e-06 -1.36686e-30)
(0.00993735 8.1375e-06 1.80411e-30)
(0.00993301 7.9614e-06 0)
(0.00992873 7.75716e-06 1.33867e-30)
(0.00992454 7.53083e-06 -4.28976e-31)
(0.00992044 7.28762e-06 -4.22598e-31)
(0.00991645 7.03199e-06 0)
(0.00991258 6.76776e-06 1.69497e-30)
(0.00990882 6.4982e-06 -4.01915e-31)
(0.00990519 6.22605e-06 0)
(0.00990169 5.95364e-06 3.87671e-31)
(0.00989831 5.68293e-06 1.22857e-30)
(0.00989506 5.41552e-06 0)
(0.00989194 5.15276e-06 -3.66736e-31)
(0.00988895 4.89572e-06 0)
(0.00988609 4.64527e-06 -8.2029e-31)
(0.00988335 4.4021e-06 0)
(0.00988074 4.16672e-06 8.07538e-31)
(0.00987825 3.93952e-06 -3.35053e-31)
(0.00987587 3.72076e-06 -1.45435e-30)
(0.00987361 3.5106e-06 -2.87556e-30)
(0.00987145 3.30913e-06 2.84382e-30)
(0.00986941 3.11635e-06 0)
(0.00986747 2.9322e-06 0)
(0.00986562 2.75658e-06 0)
(0.00986388 2.58935e-06 -1.53114e-30)
(0.00986222 2.43032e-06 5.91325e-31)
(0.00986066 2.27929e-06 -5.83441e-31)
(0.00985918 2.13604e-06 0)
(0.00985778 2.00032e-06 2.63759e-30)
(0.00985646 1.87187e-06 5.62183e-31)
(0.00985521 1.75044e-06 5.55846e-31)
(0.00985404 1.63574e-06 0)
(0.00985293 1.52752e-06 0)
(0.00985189 1.42549e-06 0)
(0.00985091 1.3294e-06 5.33876e-31)
(0.00984998 1.23896e-06 0)
(0.00984912 1.15392e-06 1.97955e-30)
(0.0098483 1.07402e-06 1.45059e-30)
(0.00984754 9.9901e-07 -1.96324e-30)
(0.00984682 9.2864e-07 0)
(0.00984615 8.62674e-07 -2.4584e-30)
(0.00984552 8.00883e-07 0)
(0.00984493 7.43045e-07 -1.93628e-30)
(0.00984438 6.88946e-07 2.43103e-30)
(0.00984386 6.38379e-07 2.42308e-30)
(0.00984338 5.91148e-07 0)
(0.00984293 5.47064e-07 1.42259e-30)
(0.00984251 5.05946e-07 -1.9113e-30)
(0.00984212 4.6762e-07 4.88906e-31)
(0.00984175 4.31923e-07 0)
(0.00984141 3.98697e-07 4.85311e-31)
(0.00984109 3.67793e-07 -1.41307e-30)
(0.0098408 3.3907e-07 0)
(0.00984052 3.12392e-07 -1.89092e-30)
(0.00984027 2.87633e-07 -1.88831e-30)
(0.00984003 2.64671e-07 -1.88589e-30)
(0.00983981 2.43393e-07 0)
(0.00983961 2.23691e-07 0)
(0.00983942 2.05464e-07 0)
(0.00983924 1.88616e-07 2.35223e-30)
(0.00983908 1.73058e-07 -4.73532e-31)
(0.00983893 1.58708e-07 0)
(0.00983879 1.45485e-07 1.87333e-30)
(0.00983866 1.3332e-07 1.87205e-30)
(0.00983855 1.22143e-07 0)
(0.00983844 1.11895e-07 -9.4068e-31)
(0.00983833 1.02519e-07 3.73762e-30)
(0.00983824 9.39642e-08 9.3881e-31)
(0.00983815 8.61871e-08 -4.67216e-30)
(0.00983807 7.9149e-08 0)
(0.009838 7.28182e-08 0)
(0.00983793 6.717e-08 0)
(0.00983787 6.21876e-08 9.35493e-31)
(0.0098378 5.78631e-08 4.66322e-30)
(0.00983775 5.41989e-08 3.7274e-30)
(0.00983769 5.12091e-08 9.34338e-31)
(0.00983764 4.89218e-08 4.66036e-30)
(0.00983759 4.73819e-08 -9.33934e-31)
(0.00983754 4.66546e-08 0)
(0.00983749 4.68298e-08 0)
(0.00983744 4.80273e-08 -4.66e-30)
(0.00983739 5.04047e-08 0)
(0.00983733 5.41657e-08 0)
(0.00983727 5.95723e-08 3.72833e-30)
(0.0098372 6.69587e-08 0)
(0.00983712 7.6751e-08 4.66874e-30)
(0.00983702 8.949e-08 9.38233e-31)
(0.00983691 1.05862e-07 0)
(0.00983678 1.2674e-07 4.6841e-30)
(0.00983662 1.53231e-07 0)
(0.00983642 1.86744e-07 0)
(0.00983617 2.29071e-07 9.52585e-31)
(0.00983586 2.82502e-07 3.7739e-30)
(0.00983548 3.49965e-07 9.65023e-31)
(0.00983501 4.35218e-07 0)
(0.0098344 5.43096e-07 0)
(0.00983365 6.79846e-07 4.85418e-30)
(0.00983269 8.53579e-07 0)
(0.00983147 1.07488e-06 4.9757e-30)
(0.00982991 1.35766e-06 0)
(0.00982793 1.72032e-06 0)
(0.00982539 2.18748e-06 0)
(0.00982212 2.7924e-06 -1.2163e-30)
(0.0098179 3.58073e-06 0)
(0.00981242 4.61622e-06 1.40396e-30)
(0.00980527 5.98992e-06 0)
(0.00979586 7.83555e-06 0)
(0.00978338 1.03568e-05 5.83738e-30)
(0.00976662 1.38782e-05 -6.55927e-30)
(0.00974376 1.89497e-05 0)
(0.00971189 2.65785e-05 0)
(0.0096661 3.88205e-05 0)
(0.00959729 6.05411e-05 1.79576e-29)
(0.00948796 0.000105851 0)
(0.00931548 0.00022791 -1.01299e-28)
(0.000214896 -0.00225481 1.16545e-28)
(0.000646235 -0.00224933 -1.5378e-32)
(0.00108007 -0.00224007 0)
(0.00151632 -0.0022265 3.59188e-32)
(0.00195385 -0.00220572 0)
(0.00239139 -0.00217911 0)
(0.00282796 -0.00214469 -1.10544e-28)
(0.00326079 -0.00209899 -5.41036e-29)
(0.00368523 -0.00204067 5.2489e-29)
(0.00409712 -0.00197374 -5.08263e-29)
(0.00449506 -0.00190326 0)
(0.00487976 -0.00183192 0)
(0.00525212 -0.00175937 -4.51065e-29)
(0.00561191 -0.00168427 -8.62794e-29)
(0.00595801 -0.00160632 8.22004e-29)
(0.00628929 -0.00152653 0)
(0.00660531 -0.00144622 7.3832e-29)
(0.00690616 -0.00136617 3.49885e-29)
(0.00719199 -0.00128635 0)
(0.00746265 -0.00120642 6.13129e-29)
(0.00771769 -0.00112626 -2.87486e-29)
(0.00795659 -0.00104617 -5.29582e-29)
(0.00817895 -0.00096672 2.46029e-29)
(0.00838466 -0.000888624 0)
(0.00857384 -0.000812576 4.07945e-29)
(0.00874685 -0.000739191 3.69761e-29)
(0.00890422 -0.000668972 0)
(0.00904661 -0.000602308 2.9857e-29)
(0.00917476 -0.000539485 0)
(0.00928948 -0.000480701 2.35357e-29)
(0.00939162 -0.00042608 -1.05704e-29)
(0.00948207 -0.000375672 0)
(0.00956174 -0.000329465 0)
(0.00963152 -0.000287383 0)
(0.00969231 -0.000249296 0)
(0.00974495 -0.000215031 0)
(0.00979028 -0.000184376 0)
(0.00982907 -0.000157096 6.72931e-30)
(0.00986203 -0.000132939 -2.50503e-30)
(0.00988983 -0.000111646 0)
(0.00991307 -9.29592e-05 0)
(0.0099323 -7.6628e-05 0)
(0.00994801 -6.2412e-05 -4.10458e-30)
(0.00996065 -5.0085e-05 -1.64868e-30)
(0.00997061 -3.9437e-05 -4.70803e-31)
(0.00997825 -3.02748e-05 4.71159e-31)
(0.00998387 -2.24227e-05 2.55042e-31)
(0.00998775 -1.57218e-05 1.30418e-31)
(0.00999014 -1.00297e-05 -1.32155e-30)
(0.00999125 -5.21916e-06 -1.14549e-30)
(0.00999127 -1.17712e-06 0)
(0.00999037 2.1964e-06 -1.52874e-30)
(0.00998869 4.98961e-06 -2.87417e-30)
(0.00998635 7.28015e-06 0)
(0.00998348 9.13617e-06 0)
(0.00998017 1.06174e-05 1.96265e-30)
(0.00997651 1.17762e-05 0)
(0.00997256 1.26582e-05 0)
(0.0099684 1.33034e-05 -5.82885e-30)
(0.00996407 1.37467e-05 -4.2443e-30)
(0.00995964 1.40186e-05 -1.6653e-30)
(0.00995514 1.41454e-05 0)
(0.00995061 1.41503e-05 1.67126e-30)
(0.00994607 1.40534e-05 0)
(0.00994156 1.3872e-05 -5.90689e-30)
(0.0099371 1.36215e-05 1.64264e-30)
(0.0099327 1.33147e-05 4.19075e-30)
(0.00992839 1.29632e-05 5.76096e-30)
(0.00992417 1.25767e-05 0)
(0.00992005 1.21636e-05 -4.06814e-30)
(0.00991605 1.17311e-05 0)
(0.00991216 1.12854e-05 -2.45558e-30)
(0.00990841 1.08318e-05 -3.92713e-30)