/*--------------------------------*- C++ -*----------------------------------*\
  =========                 |
  \\      /  F ield         | OpenFOAM: The Open Source CFD Toolbox
   \\    /   O peration     | Website:  https://openfoam.org
    \\  /    A nd           | Version:  10
     \\/     M anipulation  |
\*---------------------------------------------------------------------------*/
FoamFile
{
    format      ascii;
    class       surfaceScalarField;
    location    "9000";
    object      phi;
}
// * * * * * * * * * * * * * * * * * * * * * * * * * * * * * * * * * * * * * //

dimensions      [0 3 -1 0 0 0 0];

internalField   nonuniform List<scalar> 
6280
(
-1.31698e-07
1.31698e-07
-2.61801e-07
1.30103e-07
-3.91016e-07
1.29214e-07
-5.20006e-07
1.28991e-07
-6.49413e-07
1.29407e-07
-7.79864e-07
1.30451e-07
-9.11989e-07
1.32124e-07
-1.04643e-06
1.34442e-07
-1.18386e-06
1.37431e-07
-1.32499e-06
1.41132e-07
-1.47059e-06
1.456e-07
-1.6215e-06
1.50909e-07
-1.77865e-06
1.57151e-07
-1.94309e-06
1.64441e-07
-2.11602e-06
1.72926e-07
-2.29881e-06
1.82786e-07
-2.49306e-06
1.94249e-07
-2.70066e-06
2.076e-07
-2.92386e-06
2.23203e-07
-3.16538e-06
2.41524e-07
-3.42855e-06
2.6317e-07
-3.71749e-06
2.88937e-07
-4.03739e-06
3.19897e-07
-4.39489e-06
3.57506e-07
-4.79868e-06
4.03788e-07
-5.26029e-06
4.6161e-07
-5.79541e-06
5.35123e-07
-6.42586e-06
6.30451e-07
-7.18269e-06
7.56824e-07
-8.11111e-06
9.28417e-07
-9.27848e-06
1.16737e-06
-1.07873e-05
1.50881e-06
-1.27964e-05
2.00915e-06
-1.55564e-05
2.76e-06
-1.94677e-05
3.91126e-06
-2.32156e-05
3.74792e-06
-2.36297e-05
4.1406e-07
-2.38525e-05
2.22873e-07
-2.40126e-05
1.60092e-07
-1.00102e-05
-1.40025e-05
-1.30145e-07
2.61844e-07
-2.58687e-07
2.58644e-07
-3.86295e-07
2.56823e-07
-5.13601e-07
2.56297e-07
-6.41207e-07
2.57013e-07
-7.69703e-07
2.58947e-07
-8.99674e-07
2.62096e-07
-1.03171e-06
2.66483e-07
-1.16644e-06
2.72153e-07
-1.30448e-06
2.79176e-07
-1.44653e-06
2.87649e-07
-1.59332e-06
2.97697e-07
-1.74565e-06
3.09478e-07
-1.9044e-06
3.23191e-07
-2.07055e-06
3.3908e-07
-2.24521e-06
3.57443e-07
-2.42961e-06
3.78651e-07
-2.62517e-06
4.03157e-07
-2.83348e-06
4.31519e-07
-3.05639e-06
4.64432e-07
-3.29598e-06
5.02756e-07
-3.55461e-06
5.47567e-07
-3.83492e-06
6.00216e-07
-4.13981e-06
6.62396e-07
-4.47226e-06
7.36232e-07
-4.83503e-06
8.24382e-07
-5.23003e-06
9.30125e-07
-5.65701e-06
1.05743e-06
-6.11107e-06
1.21089e-06
-6.57809e-06
1.39543e-06
-7.02618e-06
1.61546e-06
-7.39025e-06
1.87288e-06
-7.54415e-06
2.16304e-06
-7.25078e-06
2.46663e-06
-6.07383e-06
2.7343e-06
-5.18398e-06
2.85806e-06
-7.6531e-06
2.88318e-06
-1.06664e-05
3.23616e-06
-1.4332e-05
3.82569e-06
-2.59556e-05
1.6134e-06
-1.27119e-07
3.88962e-07
-2.52617e-07
3.84143e-07
-3.77101e-07
3.81306e-07
-5.01134e-07
3.8033e-07
-6.25254e-07
3.81133e-07
-7.49975e-07
3.83668e-07
-8.75804e-07
3.87925e-07
-1.00324e-06
3.93922e-07
-1.1328e-06
4.01708e-07
-1.26499e-06
4.11364e-07
-1.40034e-06
4.23e-07
-1.5394e-06
4.36763e-07
-1.68276e-06
4.52837e-07
-1.83102e-06
4.71448e-07
-1.98481e-06
4.9287e-07
-2.1448e-06
5.17435e-07
-2.31168e-06
5.45534e-07
-2.48616e-06
5.77637e-07
-2.66894e-06
6.14298e-07
-2.86068e-06
6.56172e-07
-3.06195e-06
7.04025e-07
-3.27314e-06
7.58753e-07
-3.49431e-06
8.21386e-07
-3.72501e-06
8.93095e-07
-3.96395e-06
9.7518e-07
-4.2086e-06
1.06903e-06
-4.45452e-06
1.17605e-06
-4.69461e-06
1.29751e-06
-4.91805e-06
1.43433e-06
-5.10932e-06
1.5867e-06
-5.24749e-06
1.75363e-06
-5.30692e-06
1.93231e-06
-5.26154e-06
2.11766e-06
-5.09717e-06
2.30226e-06
-4.8407e-06
2.47783e-06
-4.62312e-06
2.64048e-06
-4.54369e-06
2.80375e-06
-4.30121e-06
2.99368e-06
-3.14033e-06
2.66481e-06
-2.99221e-05
8.26195e-07
-1.22766e-07
5.11728e-07
-2.43893e-07
5.0527e-07
-3.63898e-07
5.01311e-07
-4.83257e-07
4.99689e-07
-6.02415e-07
5.0029e-07
-7.21792e-07
5.03046e-07
-8.4179e-07
5.07923e-07
-9.62793e-07
5.14926e-07
-1.08517e-06
5.2409e-07
-1.20929e-06
5.35484e-07
-1.3355e-06
5.49208e-07
-1.46414e-06
5.65397e-07
-1.59552e-06
5.84217e-07
-1.72994e-06
6.05873e-07
-1.86768e-06
6.30607e-07
-2.00895e-06
6.58702e-07
-2.1539e-06
6.90484e-07
-2.30259e-06
7.26325e-07
-2.45493e-06
7.66642e-07
-2.61066e-06
8.11898e-07
-2.76923e-06
8.62596e-07
-2.92974e-06
9.1927e-07
-3.09083e-06
9.8247e-07
-3.25047e-06
1.05273e-06
-3.40583e-06
1.13054e-06
-3.55308e-06
1.21628e-06
-3.68715e-06
1.31012e-06
-3.80162e-06
1.41198e-06
-3.88865e-06
1.52136e-06
-3.93919e-06
1.63724e-06
-3.94353e-06
1.75798e-06
-3.89252e-06
1.8813e-06
-3.77922e-06
2.00437e-06
-3.60109e-06
2.12413e-06
-3.36104e-06
2.23778e-06
-3.06403e-06
2.34347e-06
-2.70065e-06
2.44037e-06
-2.23387e-06
2.5269e-06
-1.46336e-06
1.8943e-06
-3.16638e-05
2.78391e-07
-1.17289e-07
6.29017e-07
-2.32926e-07
6.20907e-07
-3.47321e-07
6.15706e-07
-4.60848e-07
6.13216e-07
-5.73851e-07
6.13293e-07
-6.86641e-07
6.15836e-07
-7.99505e-07
6.20787e-07
-9.12702e-07
6.28123e-07
-1.02646e-06
6.37852e-07
-1.14099e-06
6.50014e-07
-1.25646e-06
6.64676e-07
-1.373e-06
6.81933e-07
-1.49069e-06
7.01907e-07
-1.60956e-06
7.24743e-07
-1.72956e-06
7.50611e-07
-1.85057e-06
7.79704e-07
-1.97231e-06
8.12232e-07
-2.09441e-06
8.48423e-07
-2.21628e-06
8.88511e-07
-2.33712e-06
9.32734e-07
-2.45583e-06
9.81315e-07
-2.57102e-06
1.03445e-06
-2.68084e-06
1.09229e-06
-2.78302e-06
1.15491e-06
-2.87475e-06
1.22227e-06
-2.95266e-06
1.29419e-06
-3.01283e-06
1.37029e-06
-3.05083e-06
1.44998e-06
-3.06187e-06
1.5324e-06
-3.04103e-06
1.61639e-06
-2.98358e-06
1.70053e-06
-2.8854e-06
1.78312e-06
-2.74334e-06
1.86231e-06
-2.55536e-06
1.93615e-06
-2.32031e-06
2.00273e-06
-2.03701e-06
2.06017e-06
-1.70324e-06
2.1066e-06
-1.31622e-06
2.13988e-06
-8.58843e-07
1.43692e-06
-3.27483e-05
2.25629e-07
-1.10925e-07
7.39941e-07
-2.20193e-07
7.30175e-07
-3.28104e-07
7.23617e-07
-4.34926e-07
7.20038e-07
-5.40895e-07
7.19262e-07
-6.46218e-07
7.21158e-07
-7.51066e-07
7.25636e-07
-8.55581e-07
7.32637e-07
-9.59864e-07
7.42135e-07
-1.06398e-06
7.54128e-07
-1.16794e-06
7.68636e-07
-1.27171e-06
7.85703e-07
-1.37518e-06
8.05385e-07
-1.4782e-06
8.27755e-07
-1.58048e-06
8.52897e-07
-1.68168e-06
8.80899e-07
-1.7813e-06
9.11849e-07
-1.8787e-06
9.45833e-07
-1.97311e-06
9.82917e-07
-2.06353e-06
1.02315e-06
-2.14875e-06
1.06654e-06
-2.22733e-06
1.11304e-06
-2.29758e-06
1.16255e-06
-2.35755e-06
1.21487e-06
-2.405e-06
1.26972e-06
-2.4375e-06
1.32669e-06
-2.45243e-06
1.38522e-06
-2.44706e-06
1.44462e-06
-2.41872e-06
1.50406e-06
-2.36487e-06
1.56255e-06
-2.28332e-06
1.61898e-06
-2.17236e-06
1.67216e-06
-2.03087e-06
1.72082e-06
-1.85842e-06
1.7637e-06
-1.65525e-06
1.79956e-06
-1.42227e-06
1.82719e-06
-1.16114e-06
1.84548e-06
-8.7465e-07
1.85339e-06
-5.86909e-07
1.14918e-06
-3.35662e-05
2.31033e-07
-1.03923e-07
8.43865e-07
-2.06199e-07
8.32451e-07
-3.0702e-07
8.24438e-07
-4.0655e-07
8.19569e-07
-5.04928e-07
8.1764e-07
-6.02259e-07
8.18489e-07
-6.98617e-07
8.21993e-07
-7.94037e-07
8.28057e-07
-8.88516e-07
8.36614e-07
-9.82004e-07
8.47615e-07
-1.0744e-06
8.61033e-07
-1.16555e-06
8.76851e-07
-1.25523e-06
8.95062e-07
-1.34314e-06
9.15666e-07
-1.4289e-06
9.3866e-07
-1.51204e-06
9.64042e-07
-1.59199e-06
9.91795e-07
-1.66805e-06
1.02189e-06
-1.7394e-06
1.05427e-06
-1.80509e-06
1.08884e-06
-1.86404e-06
1.12549e-06
-1.91504e-06
1.16403e-06
-1.95672e-06
1.20423e-06
-1.98763e-06
1.24578e-06
-2.00622e-06
1.28832e-06
-2.01091e-06
1.33138e-06
-2.00012e-06
1.37443e-06
-1.97234e-06
1.41685e-06
-1.92625e-06
1.45797e-06
-1.86074e-06
1.49703e-06
-1.77502e-06
1.53326e-06
-1.66871e-06
1.56585e-06
-1.5419e-06
1.59401e-06
-1.39518e-06
1.61698e-06
-1.22968e-06
1.63406e-06
-1.04713e-06
1.64464e-06
-8.49867e-07
1.64821e-06
-6.40887e-07
1.64441e-06
-4.50102e-07
9.58393e-07
-3.42508e-05
2.34499e-07
-9.65297e-08
9.40394e-07
-1.91438e-07
9.27359e-07
-2.84818e-07
9.17818e-07
-3.76744e-07
9.11495e-07
-4.67266e-07
9.08162e-07
-5.56405e-07
9.07629e-07
-6.44153e-07
9.0974e-07
-7.30463e-07
9.14367e-07
-8.15251e-07
9.21402e-07
-8.98391e-07
9.30755e-07
-9.79705e-07
9.42348e-07
-1.05897e-06
9.56111e-07
-1.13588e-06
9.71981e-07
-1.21011e-06
9.89892e-07
-1.28122e-06
1.00977e-06
-1.34873e-06
1.03155e-06
-1.41207e-06
1.05513e-06
-1.47058e-06
1.0804e-06
-1.52354e-06
1.10723e-06
-1.57015e-06
1.13545e-06
-1.60953e-06
1.16487e-06
-1.64075e-06
1.19525e-06
-1.66285e-06
1.22632e-06
-1.67482e-06
1.25775e-06
-1.67568e-06
1.28918e-06
-1.66451e-06
1.32021e-06
-1.64047e-06
1.35038e-06
-1.60282e-06
1.37921e-06
-1.55105e-06
1.4062e-06
-1.48485e-06
1.43083e-06
-1.40419e-06
1.45259e-06
-1.30932e-06
1.47098e-06
-1.20086e-06
1.48555e-06
-1.07977e-06
1.49588e-06
-9.47344e-07
1.50164e-06
-8.05267e-07
1.50256e-06
-6.55556e-07
1.4985e-06
-5.00555e-07
1.48941e-06
-3.64709e-07
8.22547e-07
-3.48635e-05
2.47969e-07
-8.89672e-08
1.02936e-06
-1.76356e-07
1.01475e-06
-2.62177e-07
1.00364e-06
-3.46426e-07
9.95744e-07
-4.2908e-07
9.90816e-07
-5.10096e-07
9.88644e-07
-5.894e-07
9.89045e-07
-6.66891e-07
9.91857e-07
-7.42429e-07
9.96941e-07
-8.15841e-07
1.00417e-06
-8.86909e-07
1.01342e-06
-9.55375e-07
1.02458e-06
-1.02093e-06
1.03754e-06
-1.08322e-06
1.05218e-06
-1.14183e-06
1.06839e-06
-1.19632e-06
1.08604e-06
-1.24617e-06
1.10498e-06
-1.29083e-06
1.12506e-06
-1.32971e-06
1.14611e-06
-1.36217e-06
1.16791e-06
-1.38757e-06
1.19027e-06
-1.40524e-06
1.21293e-06
-1.41454e-06
1.23562e-06
-1.41484e-06
1.25805e-06
-1.40557e-06
1.27991e-06
-1.38624e-06
1.30088e-06
-1.35647e-06
1.32061e-06
-1.31601e-06
1.33874e-06
-1.26477e-06
1.35495e-06
-1.20284e-06
1.3689e-06
-1.13053e-06
1.38028e-06
-1.04835e-06
1.3888e-06
-9.57028e-07
1.39423e-06
-8.57521e-07
1.39638e-06
-7.50981e-07
1.3951e-06
-6.38742e-07
1.39033e-06
-5.22286e-07
1.38205e-06
-4.03191e-07
1.37031e-06
-3.02412e-07
7.21768e-07
-3.54353e-05
2.69323e-07
-8.14284e-08
1.11079e-06
-1.61339e-07
1.09466e-06
-2.39674e-07
1.08197e-06
-3.16369e-07
1.07244e-06
-3.91347e-07
1.06579e-06
-4.64514e-07
1.06181e-06
-5.35754e-07
1.06029e-06
-6.0493e-07
1.06103e-06
-6.71873e-07
1.06388e-06
-7.36387e-07
1.06868e-06
-7.98244e-07
1.07527e-06
-8.57181e-07
1.08351e-06
-9.12905e-07
1.09326e-06
-9.65084e-07
1.10436e-06
-1.01336e-06
1.11666e-06
-1.05733e-06
1.13001e-06
-1.09658e-06
1.14423e-06
-1.13067e-06
1.15915e-06
-1.15914e-06
1.17457e-06
-1.18151e-06
1.19029e-06
-1.19734e-06
1.2061e-06
-1.20618e-06
1.22176e-06
-1.2076e-06
1.23705e-06
-1.20126e-06
1.25171e-06
-1.18684e-06
1.2655e-06
-1.16413e-06
1.27817e-06
-1.13301e-06
1.28948e-06
-1.09346e-06
1.2992e-06
-1.04562e-06
1.30711e-06
-9.89735e-07
1.31302e-06
-9.26217e-07
1.31676e-06
-8.55618e-07
1.3182e-06
-7.78633e-07
1.31725e-06
-6.96093e-07
1.31384e-06
-6.0895e-07
1.30796e-06
-5.18254e-07
1.29963e-06
-4.25132e-07
1.28892e-06
-3.30751e-07
1.27593e-06
-2.50689e-07
6.41706e-07
-3.59839e-05
2.97961e-07
-7.40684e-08
1.18486e-06
-1.46694e-07
1.16728e-06
-2.17769e-07
1.15305e-06
-2.87184e-07
1.14185e-06
-3.54823e-07
1.13343e-06
-4.20561e-07
1.12755e-06
-4.84257e-07
1.12398e-06
-5.45754e-07
1.12253e-06
-6.04874e-07
1.123e-06
-6.61419e-07
1.12523e-06
-7.15168e-07
1.12902e-06
-7.65879e-07
1.13423e-06
-8.13287e-07
1.14067e-06
-8.57106e-07
1.14818e-06
-8.97032e-07
1.15659e-06
-9.32745e-07
1.16572e-06
-9.63911e-07
1.1754e-06
-9.90192e-07
1.18543e-06
-1.01125e-06
1.19563e-06
-1.02676e-06
1.2058e-06
-1.03639e-06
1.21573e-06
-1.03987e-06
1.22524e-06
-1.03694e-06
1.23411e-06
-1.02739e-06
1.24216e-06
-1.01108e-06
1.24919e-06
-9.87937e-07
1.25502e-06
-9.57955e-07
1.2595e-06
-9.21228e-07
1.26247e-06
-8.77941e-07
1.26382e-06
-8.28378e-07
1.26346e-06
-7.72927e-07
1.26131e-06
-7.12074e-07
1.25735e-06
-6.46405e-07
1.25158e-06
-5.76596e-07
1.24403e-06
-5.03407e-07
1.23477e-06
-4.27673e-07
1.2239e-06
-3.50297e-07
1.21155e-06
-2.72239e-07
1.19787e-06
-2.04064e-07
5.7353e-07
-3.65209e-05
3.32888e-07
-6.70039e-08
1.25186e-06
-1.32652e-07
1.23293e-06
-1.96802e-07
1.2172e-06
-2.59315e-07
1.20437e-06
-3.20052e-07
1.19417e-06
-3.7887e-07
1.18637e-06
-4.35617e-07
1.18073e-06
-4.90131e-07
1.17704e-06
-5.4224e-07
1.17511e-06
-5.91757e-07
1.17474e-06
-6.38484e-07
1.17575e-06
-6.82208e-07
1.17795e-06
-7.22705e-07
1.18117e-06
-7.59742e-07
1.18522e-06
-7.93075e-07
1.18992e-06
-8.22458e-07
1.1951e-06
-8.47639e-07
1.20058e-06
-8.68372e-07
1.20616e-06
-8.84417e-07
1.21167e-06
-8.95547e-07
1.21693e-06
-9.01552e-07
1.22174e-06
-9.02247e-07
1.22594e-06
-8.9748e-07
1.22935e-06
-8.87135e-07
1.23182e-06
-8.71139e-07
1.23319e-06
-8.49469e-07
1.23335e-06
-8.22159e-07
1.23219e-06
-7.89299e-07
1.22961e-06
-7.51047e-07
1.22557e-06
-7.07624e-07
1.22003e-06
-6.59321e-07
1.21301e-06
-6.06493e-07
1.20452e-06
-5.4956e-07
1.19465e-06
-4.89004e-07
1.18347e-06
-4.25361e-07
1.17112e-06
-3.59216e-07
1.15775e-06
-2.91208e-07
1.14354e-06
-2.22043e-07
1.12871e-06
-1.61742e-07
5.13229e-07
-3.70537e-05
3.71121e-07
-6.03145e-08
1.31218e-06
-1.19369e-07
1.29199e-06
-1.77001e-07
1.27483e-06
-2.33054e-07
1.26042e-06
-2.87379e-07
1.2485e-06
-3.39826e-07
1.23881e-06
-3.90244e-07
1.23115e-06
-4.38479e-07
1.22528e-06
-4.8437e-07
1.221e-06
-5.27754e-07
1.21813e-06
-5.6846e-07
1.21646e-06
-6.06314e-07
1.2158e-06
-6.41138e-07
1.21599e-06
-6.7275e-07
1.21683e-06
-7.0097e-07
1.21814e-06
-7.25616e-07
1.21975e-06
-7.46515e-07
1.22148e-06
-7.63496e-07
1.22315e-06
-7.764e-07
1.22458e-06
-7.85079e-07
1.22561e-06
-7.89402e-07
1.22606e-06
-7.89252e-07
1.22579e-06
-7.84535e-07
1.22463e-06
-7.75178e-07
1.22246e-06
-7.61131e-07
1.21915e-06
-7.42372e-07
1.2146e-06
-7.18906e-07
1.20872e-06
-6.90766e-07
1.20147e-06
-6.5802e-07
1.19283e-06
-6.20772e-07
1.18279e-06
-5.79161e-07
1.1714e-06
-5.33369e-07
1.15873e-06
-4.8362e-07
1.1449e-06
-4.30171e-07
1.13002e-06
-3.73298e-07
1.11425e-06
-3.13264e-07
1.09772e-06
-2.50251e-07
1.08053e-06
-1.84248e-07
1.06271e-06
-1.24214e-07
4.53194e-07
-3.75926e-05
4.1464e-07
-5.40477e-08
1.36622e-06
-1.06937e-07
1.34488e-06
-1.58494e-07
1.32639e-06
-2.08559e-07
1.31048e-06
-2.56979e-07
1.29692e-06
-3.0361e-07
1.28544e-06
-3.48306e-07
1.27584e-06
-3.90928e-07
1.2679e-06
-4.31336e-07
1.26141e-06
-4.69393e-07
1.25618e-06
-5.04962e-07
1.25202e-06
-5.37906e-07
1.24875e-06
-5.68095e-07
1.24618e-06
-5.95401e-07
1.24413e-06
-6.19699e-07
1.24244e-06
-6.40874e-07
1.24093e-06
-6.58816e-07
1.23942e-06
-6.73427e-07
1.23776e-06
-6.84616e-07
1.23577e-06
-6.92304e-07
1.23329e-06
-6.9642e-07
1.23018e-06
-6.96904e-07
1.22627e-06
-6.93703e-07
1.22143e-06
-6.86769e-07
1.21552e-06
-6.76056e-07
1.20843e-06
-6.61518e-07
1.20006e-06
-6.43106e-07
1.19031e-06
-6.20763e-07
1.17913e-06
-5.94432e-07
1.16649e-06
-5.64051e-07
1.15241e-06
-5.2957e-07
1.13691e-06
-4.90963e-07
1.12012e-06
-4.48253e-07
1.10219e-06
-4.01552e-07
1.08332e-06
-3.51098e-07
1.0638e-06
-2.97313e-07
1.04393e-06
-2.40858e-07
1.02407e-06
-1.82683e-07
1.00453e-06
-1.30106e-07
4.00617e-07
-3.81309e-05
4.0823e-07
-4.82238e-08
1.41445e-06
-9.53914e-08
1.39204e-06
-1.4133e-07
1.37233e-06
-1.8588e-07
1.35504e-06
-2.28895e-07
1.33993e-06
-2.70238e-07
1.32679e-06
-3.09779e-07
1.31538e-06
-3.47396e-07
1.30552e-06
-3.82971e-07
1.29699e-06
-4.16395e-07
1.28961e-06
-4.47566e-07
1.28319e-06
-4.76387e-07
1.27757e-06
-5.02771e-07
1.27256e-06
-5.26639e-07
1.268e-06
-5.47925e-07
1.26373e-06
-5.66569e-07
1.25957e-06
-5.82526e-07
1.25538e-06
-5.95762e-07
1.25099e-06
-6.06253e-07
1.24626e-06
-6.13988e-07
1.24103e-06
-6.1896e-07
1.23515e-06
-6.21169e-07
1.22848e-06
-6.20614e-07
1.22087e-06
-6.17285e-07
1.2122e-06
-6.11158e-07
1.20231e-06
-6.02181e-07
1.19108e-06
-5.90265e-07
1.17839e-06
-5.75271e-07
1.16414e-06
-5.56996e-07
1.14822e-06
-5.35166e-07
1.13058e-06
-5.09433e-07
1.11118e-06
-4.79386e-07
1.09008e-06
-4.44581e-07
1.06738e-06
-4.04601e-07
1.04334e-06
-3.59159e-07
1.01835e-06
-3.08252e-07
9.93025e-07
-2.52362e-07
9.68182e-07
-1.92705e-07
9.44874e-07
-1.33208e-07
3.4112e-07
-3.8678e-05
4.13928e-07
-4.28426e-08
1.45729e-06
-8.47305e-08
1.43393e-06
-1.25496e-07
1.41309e-06
-1.64989e-07
1.39453e-06
-2.0307e-07
1.37801e-06
-2.39615e-07
1.36333e-06
-2.74509e-07
1.35028e-06
-3.07649e-07
1.33866e-06
-3.38943e-07
1.32828e-06
-3.68308e-07
1.31897e-06
-3.95672e-07
1.31056e-06
-4.20976e-07
1.30287e-06
-4.44174e-07
1.29576e-06
-4.65233e-07
1.28906e-06
-4.84134e-07
1.28263e-06
-5.00873e-07
1.27631e-06
-5.15465e-07
1.26997e-06
-5.27938e-07
1.26347e-06
-5.38337e-07
1.25666e-06
-5.46723e-07
1.24941e-06
-5.53167e-07
1.24159e-06
-5.5775e-07
1.23306e-06
-5.60556e-07
1.22368e-06
-5.61661e-07
1.2133e-06
-5.61125e-07
1.20177e-06
-5.58973e-07
1.18893e-06
-5.55172e-07
1.17459e-06
-5.49604e-07
1.15857e-06
-5.42026e-07
1.14064e-06
-5.32025e-07
1.12057e-06
-5.18959e-07
1.09812e-06
-5.01899e-07
1.07302e-06
-4.79574e-07
1.04506e-06
-4.5033e-07
1.0141e-06
-4.12166e-07
9.8019e-07
-3.62878e-07
9.43738e-07
-3.00465e-07
9.05769e-07
-2.23944e-07
8.68352e-07
-1.36315e-07
2.53491e-07
-3.92366e-05
4.22232e-07
-3.78894e-08
1.49518e-06
-7.49223e-08
1.47096e-06
-1.1094e-07
1.44911e-06
-1.45802e-07
1.42939e-06
-1.79382e-07
1.41159e-06
-2.11566e-07
1.39552e-06
-2.42259e-07
1.38097e-06
-2.71373e-07
1.36777e-06
-2.98837e-07
1.35575e-06
-3.24594e-07
1.34473e-06
-3.486e-07
1.33456e-06
-3.70825e-07
1.3251e-06
-3.91258e-07
1.31619e-06
-4.09902e-07
1.30771e-06
-4.26783e-07
1.29951e-06
-4.41943e-07
1.29147e-06
-4.55446e-07
1.28347e-06
-4.6738e-07
1.2754e-06
-4.77855e-07
1.26713e-06
-4.87006e-07
1.25856e-06
-4.94993e-07
1.24958e-06
-5.01998e-07
1.24007e-06
-5.08227e-07
1.22991e-06
-5.13904e-07
1.21898e-06
-5.19266e-07
1.20713e-06
-5.2455e-07
1.19421e-06
-5.29979e-07
1.18002e-06
-5.35727e-07
1.16432e-06
-5.41876e-07
1.14679e-06
-5.48342e-07
1.12704e-06
-5.5476e-07
1.10453e-06
-5.60301e-07
1.07856e-06
-5.63408e-07
1.04816e-06
-5.61379e-07
1.01207e-06
-5.49769e-07
9.6858e-07
-5.21508e-07
9.15477e-07
-4.65673e-07
8.49933e-07
-3.65811e-07
7.6849e-07
-1.37884e-07
2.55647e-08
-3.98096e-05
4.35098e-07
-3.33411e-08
1.52852e-06
-6.59185e-08
1.50354e-06
-9.75845e-08
1.48078e-06
-1.28208e-07
1.46001e-06
-1.57676e-07
1.44106e-06
-1.85887e-07
1.42373e-06
-2.12758e-07
1.40784e-06
-2.38219e-07
1.39323e-06
-2.62215e-07
1.37974e-06
-2.84709e-07
1.36722e-06
-3.05676e-07
1.35553e-06
-3.25111e-07
1.34453e-06
-3.43026e-07
1.33411e-06
-3.59454e-07
1.32413e-06
-3.74448e-07
1.3145e-06
-3.88083e-07
1.30511e-06
-4.00463e-07
1.29585e-06
-4.11715e-07
1.28665e-06
-4.22001e-07
1.27742e-06
-4.31513e-07
1.26808e-06
-4.40486e-07
1.25855e-06
-4.49195e-07
1.24878e-06
-4.57968e-07
1.23868e-06
-4.67192e-07
1.2282e-06
-4.7732e-07
1.21726e-06
-4.88893e-07
1.20579e-06
-5.02547e-07
1.19367e-06
-5.19037e-07
1.18081e-06
-5.39259e-07
1.16701e-06
-5.64271e-07
1.15205e-06
-5.95306e-07
1.13557e-06
-6.3377e-07
1.11702e-06
-6.81179e-07
1.09557e-06
-7.39001e-07
1.06989e-06
-8.08266e-07
1.03784e-06
-8.8877e-07
9.95981e-07
-9.77477e-07
9.38641e-07
-1.06543e-06
8.56444e-07
-1.29709e-07
-9.10157e-07
-4.03985e-05
4.59228e-07
-2.91706e-08
1.55769e-06
-5.76637e-08
1.53204e-06
-8.5342e-08
1.50845e-06
-1.12085e-07
1.48676e-06
-1.37789e-07
1.46676e-06
-1.62365e-07
1.4483e-06
-1.8574e-07
1.43122e-06
-2.07855e-07
1.41535e-06
-2.28669e-07
1.40056e-06
-2.48156e-07
1.38671e-06
-2.66305e-07
1.37368e-06
-2.83124e-07
1.36135e-06
-2.9864e-07
1.34962e-06
-3.12898e-07
1.33839e-06
-3.25966e-07
1.32757e-06
-3.37934e-07
1.31707e-06
-3.48918e-07
1.30684e-06
-3.59064e-07
1.2968e-06
-3.68549e-07
1.2869e-06
-3.77588e-07
1.27712e-06
-3.86438e-07
1.2674e-06
-3.9541e-07
1.25775e-06
-4.04879e-07
1.24815e-06
-4.15298e-07
1.23862e-06
-4.2722e-07
1.22918e-06
-4.41335e-07
1.2199e-06
-4.58507e-07
1.21085e-06
-4.7985e-07
1.20215e-06
-5.06823e-07
1.19398e-06
-5.41384e-07
1.18661e-06
-5.86236e-07
1.18042e-06
-6.45198e-07
1.17598e-06
-7.23819e-07
1.17419e-06
-8.30357e-07
1.17643e-06
-9.77399e-07
1.18489e-06
-1.18453e-06
1.20311e-06
-1.48275e-06
1.23687e-06
-1.92166e-06
1.29534e-06
-1.0254e-07
-2.72927e-06
-4.09981e-05
4.97032e-07
-2.53509e-08
1.58304e-06
-5.0103e-08
1.55679e-06
-7.41287e-08
1.53248e-06
-9.73163e-08
1.50994e-06
-1.1957e-07
1.48902e-06
-1.40809e-07
1.46954e-06
-1.60968e-07
1.45138e-06
-1.79997e-07
1.43438e-06
-1.97859e-07
1.41842e-06
-2.14535e-07
1.40339e-06
-2.30021e-07
1.38917e-06
-2.44327e-07
1.37566e-06
-2.57483e-07
1.36278e-06
-2.69535e-07
1.35044e-06
-2.80547e-07
1.33858e-06
-2.90604e-07
1.32713e-06
-2.99813e-07
1.31605e-06
-3.08304e-07
1.30529e-06
-3.16232e-07
1.29483e-06
-3.23783e-07
1.28467e-06
-3.31177e-07
1.2748e-06
-3.3867e-07
1.26524e-06
-3.46564e-07
1.25605e-06
-3.55215e-07
1.24727e-06
-3.65045e-07
1.23901e-06
-3.76551e-07
1.23141e-06
-3.90327e-07
1.22462e-06
-4.0708e-07
1.2189e-06
-4.27655e-07
1.21456e-06
-4.53055e-07
1.21201e-06
-4.84455e-07
1.21182e-06
-5.23194e-07
1.21472e-06
-5.70708e-07
1.22171e-06
-6.28354e-07
1.23407e-06
-6.96992e-07
1.25353e-06
-7.76124e-07
1.28224e-06
-8.62184e-07
1.32293e-06
-9.43995e-07
1.37716e-06
-1.26679e-07
-3.54659e-06
-4.16177e-05
4.92924e-07
-2.18571e-08
1.6049e-06
-4.31868e-08
1.57812e-06
-6.38692e-08
1.55316e-06
-8.37995e-08
1.52987e-06
-1.02888e-07
1.50811e-06
-1.21059e-07
1.48771e-06
-1.38252e-07
1.46857e-06
-1.5442e-07
1.45054e-06
-1.69529e-07
1.43353e-06
-1.8356e-07
1.41742e-06
-1.96506e-07
1.40211e-06
-2.08376e-07
1.38753e-06
-2.1919e-07
1.37359e-06
-2.28985e-07
1.36024e-06
-2.37809e-07
1.3474e-06
-2.45725e-07
1.33505e-06
-2.52812e-07
1.32313e-06
-2.59161e-07
1.31164e-06
-2.64878e-07
1.30055e-06
-2.70085e-07
1.28987e-06
-2.74916e-07
1.27963e-06
-2.79518e-07
1.26984e-06
-2.8405e-07
1.26058e-06
-2.88679e-07
1.2519e-06
-2.93573e-07
1.24391e-06
-2.98891e-07
1.23672e-06
-3.04768e-07
1.2305e-06
-3.11285e-07
1.22542e-06
-3.18427e-07
1.2217e-06
-3.2601e-07
1.2196e-06
-3.33573e-07
1.21938e-06
-3.40213e-07
1.22136e-06
-3.44326e-07
1.22582e-06
-3.43234e-07
1.23298e-06
-3.32642e-07
1.24293e-06
-3.05873e-07
1.25547e-06
-2.52847e-07
1.2699e-06
-1.57661e-07
1.28197e-06
-1.9197e-07
-3.51228e-06
-4.22639e-05
4.54287e-07
-1.86684e-08
1.62357e-06
-3.68735e-08
1.59632e-06
-5.45012e-08
1.57079e-06
-7.1452e-08
1.54683e-06
-8.76402e-08
1.52429e-06
-1.02993e-07
1.50307e-06
-1.17452e-07
1.48303e-06
-1.3097e-07
1.46406e-06
-1.43511e-07
1.44607e-06
-1.55054e-07
1.42896e-06
-1.65585e-07
1.41264e-06
-1.75104e-07
1.39705e-06
-1.83619e-07
1.38211e-06
-1.91148e-07
1.36777e-06
-1.97719e-07
1.35397e-06
-2.03366e-07
1.34069e-06
-2.08129e-07
1.3279e-06
-2.12054e-07
1.31556e-06
-2.15189e-07
1.30369e-06
-2.17583e-07
1.29227e-06
-2.1928e-07
1.28132e-06
-2.20315e-07
1.27088e-06
-2.20711e-07
1.26097e-06
-2.20463e-07
1.25165e-06
-2.19533e-07
1.24298e-06
-2.17832e-07
1.23502e-06
-2.15195e-07
1.22786e-06
-2.11357e-07
1.22158e-06
-2.05914e-07
1.21626e-06
-1.98277e-07
1.21196e-06
-1.87611e-07
1.20872e-06
-1.72771e-07
1.20652e-06
-1.52228e-07
1.20528e-06
-1.24006e-07
1.20476e-06
-8.5652e-08
1.20458e-06
-3.42793e-08
1.2041e-06
3.32292e-08
1.20239e-06
1.19851e-07
1.19535e-06
-2.23896e-07
-3.16853e-06
-4.29252e-05
4.3737e-07
-1.57679e-08
1.63934e-06
-3.11296e-08
1.61168e-06
-4.59758e-08
1.58564e-06
-6.02103e-08
1.56106e-06
-7.37499e-08
1.53783e-06
-8.65236e-08
1.51584e-06
-9.84718e-08
1.49498e-06
-1.09546e-07
1.47514e-06
-1.19709e-07
1.45623e-06
-1.2893e-07
1.43818e-06
-1.37191e-07
1.4209e-06
-1.44479e-07
1.40434e-06
-1.50789e-07
1.38842e-06
-1.56121e-07
1.3731e-06
-1.60478e-07
1.35833e-06
-1.63869e-07
1.34408e-06
-1.66298e-07
1.33033e-06
-1.67771e-07
1.31704e-06
-1.68288e-07
1.3042e-06
-1.67837e-07
1.29182e-06
-1.66396e-07
1.27988e-06
-1.63923e-07
1.26841e-06
-1.60349e-07
1.2574e-06
-1.55575e-07
1.24688e-06
-1.49457e-07
1.23686e-06
-1.41802e-07
1.22737e-06
-1.32354e-07
1.21841e-06
-1.20782e-07
1.21001e-06
-1.06676e-07
1.20215e-06
-8.95378e-08
1.19482e-06
-6.87872e-08
1.18797e-06
-4.37784e-08
1.18151e-06
-1.38418e-08
1.17534e-06
2.16417e-08
1.16928e-06
6.31168e-08
1.1631e-06
1.10668e-07
1.15655e-06
1.63758e-07
1.1493e-06
2.20877e-07
1.13823e-06
-2.38724e-07
-2.70893e-06
-4.35897e-05
4.25747e-07
-1.31422e-08
1.65248e-06
-2.59295e-08
1.62447e-06
-3.82556e-08
1.59796e-06
-5.00271e-08
1.57283e-06
-6.1162e-08
1.54897e-06
-7.15898e-08
1.52627e-06
-8.12502e-08
1.50464e-06
-9.00922e-08
1.48398e-06
-9.80739e-08
1.46421e-06
-1.05161e-07
1.44527e-06
-1.11325e-07
1.42707e-06
-1.16546e-07
1.40956e-06
-1.20804e-07
1.39268e-06
-1.24085e-07
1.37638e-06
-1.26375e-07
1.36062e-06
-1.2766e-07
1.34537e-06
-1.27923e-07
1.33059e-06
-1.27139e-07
1.31625e-06
-1.25276e-07
1.30234e-06
-1.22292e-07
1.28883e-06
-1.18126e-07
1.27572e-06
-1.12698e-07
1.26298e-06
-1.05904e-07
1.25061e-06
-9.76106e-08
1.23858e-06
-8.76503e-08
1.2269e-06
-7.58184e-08
1.21554e-06
-6.18701e-08
1.20447e-06
-4.55203e-08
1.19366e-06
-2.64474e-08
1.18308e-06
-4.30328e-09
1.17268e-06
2.12689e-08
1.1624e-06
5.06037e-08
1.15218e-06
8.39672e-08
1.14198e-06
1.21488e-07
1.13176e-06
1.63064e-07
1.12153e-06
2.08225e-07
1.11139e-06
2.55963e-07
1.10156e-06
3.0444e-07
1.08975e-06
-2.29983e-07
-2.17451e-06
-4.42131e-05
3.93394e-07
-1.0781e-08
1.66326e-06
-2.12527e-08
1.63494e-06
-3.13117e-08
1.60802e-06
-4.08663e-08
1.58239e-06
-4.98358e-08
1.55794e-06
-5.81497e-08
1.53458e-06
-6.57467e-08
1.51223e-06
-7.25738e-08
1.49081e-06
-7.85858e-08
1.47023e-06
-8.37437e-08
1.45042e-06
-8.8014e-08
1.43134e-06
-9.13676e-08
1.41291e-06
-9.37782e-08
1.39509e-06
-9.52212e-08
1.37782e-06
-9.56719e-08
1.36107e-06
-9.51039e-08
1.3448e-06
-9.34871e-08
1.32897e-06
-9.07857e-08
1.31355e-06
-8.69557e-08
1.29851e-06
-8.19423e-08
1.28382e-06
-7.56777e-08
1.26945e-06
-6.80779e-08
1.25538e-06
-5.90404e-08
1.24157e-06
-4.84413e-08
1.22799e-06
-3.61334e-08
1.21459e-06
-2.19439e-08
1.20135e-06
-5.67394e-09
1.1882e-06
1.29022e-08
1.17508e-06
3.40363e-08
1.16195e-06
5.80056e-08
1.14871e-06
8.51114e-08
1.13529e-06
1.15681e-07
1.12161e-06
1.50075e-07
1.10758e-06
1.88698e-07
1.09313e-06
2.32038e-07
1.07819e-06
2.80721e-07
1.06271e-06
3.35616e-07
1.04667e-06
3.9788e-07
1.02749e-06
-1.4907e-07
-1.62756e-06
-4.46526e-05
2.90425e-07
-8.67553e-09
1.67194e-06
-1.70826e-08
1.64335e-06
-2.51202e-08
1.61606e-06
-3.26987e-08
1.58996e-06
-3.97384e-08
1.56498e-06
-4.61691e-08
1.54101e-06
-5.19292e-08
1.51799e-06
-5.69644e-08
1.49584e-06
-6.12273e-08
1.47449e-06
-6.46763e-08
1.45387e-06
-6.72744e-08
1.43394e-06
-6.89886e-08
1.41462e-06
-6.97883e-08
1.39589e-06
-6.96448e-08
1.37768e-06
-6.85293e-08
1.35996e-06
-6.64124e-08
1.34268e-06
-6.32622e-08
1.32582e-06
-5.90432e-08
1.30933e-06
-5.37148e-08
1.29318e-06
-4.72296e-08
1.27733e-06
-3.95325e-08
1.26176e-06
-3.05587e-08
1.2464e-06
-2.02329e-08
1.23124e-06
-8.46814e-09
1.21622e-06
4.83564e-09
1.20129e-06
1.97919e-08
1.18639e-06
3.65285e-08
1.17146e-06
5.51889e-08
1.15642e-06
7.59339e-08
1.1412e-06
9.89448e-08
1.1257e-06
1.2443e-07
1.1098e-06
1.52638e-07
1.0934e-06
1.83877e-07
1.07635e-06
2.18549e-07
1.05846e-06
2.57214e-07
1.03952e-06
3.0068e-07
1.01924e-06
3.50154e-07
9.97195e-07
4.07313e-07
9.7033e-07
-2.65853e-08
-1.19366e-06
-4.48292e-05
1.50048e-07
-6.81777e-09
1.67875e-06
-1.34035e-08
1.64994e-06
-1.96591e-08
1.62231e-06
-2.54967e-08
1.5958e-06
-3.08384e-08
1.57032e-06
-3.56147e-08
1.54579e-06
-3.97642e-08
1.52214e-06
-4.32327e-08
1.49931e-06
-4.59719e-08
1.47723e-06
-4.79392e-08
1.45584e-06
-4.90965e-08
1.43509e-06
-4.94097e-08
1.41494e-06
-4.88476e-08
1.39533e-06
-4.73815e-08
1.37621e-06
-4.49841e-08
1.35756e-06
-4.1629e-08
1.33933e-06
-3.72901e-08
1.32148e-06
-3.19406e-08
1.30398e-06
-2.55529e-08
1.28679e-06
-1.8098e-08
1.26988e-06
-9.54539e-09
1.2532e-06
1.37618e-10
1.23672e-06
1.09853e-08
1.22039e-06
2.30337e-08
1.20417e-06
3.632e-08
1.188e-06
5.08818e-08
1.17183e-06
6.67565e-08
1.15558e-06
8.39797e-08
1.1392e-06
1.02583e-07
1.1226e-06
1.22591e-07
1.10569e-06
1.44017e-07
1.08838e-06
1.66855e-07
1.07056e-06
1.91062e-07
1.05214e-06
2.16537e-07
1.03298e-06
2.43074e-07
1.01299e-06
2.70288e-07
9.92027e-07
2.97471e-07
9.70012e-07
3.2323e-07
9.44571e-07
-2.32003e-08
-8.4723e-07
-4.49865e-05
1.34114e-07
-5.19967e-09
1.68395e-06
-1.01999e-08
1.65494e-06
-1.49056e-08
1.62702e-06
-1.92316e-08
1.60013e-06
-2.31018e-08
1.57419e-06
-2.64485e-08
1.54914e-06
-2.92112e-08
1.5249e-06
-3.13364e-08
1.50143e-06
-3.27763e-08
1.47867e-06
-3.34887e-08
1.45655e-06
-3.3436e-08
1.43504e-06
-3.25849e-08
1.41409e-06
-3.09057e-08
1.39365e-06
-2.83724e-08
1.37368e-06
-2.49616e-08
1.35415e-06
-2.06532e-08
1.33502e-06
-1.54296e-08
1.31626e-06
-9.27631e-09
1.29783e-06
-2.18204e-09
1.2797e-06
5.86087e-09
1.26184e-06
1.48557e-08
1.24421e-06
2.48007e-08
1.22678e-06
3.56875e-08
1.20951e-06
4.75007e-08
1.19236e-06
6.02156e-08
1.17529e-06
7.37971e-08
1.15825e-06
8.81976e-08
1.14118e-06
1.03355e-07
1.12404e-06
1.19191e-07
1.10676e-06
1.35606e-07
1.08927e-06
1.52477e-07
1.07151e-06
1.69648e-07
1.05339e-06
1.86925e-07
1.03486e-06
2.04061e-07
1.01585e-06
2.20739e-07
9.96308e-07
2.36554e-07
9.76211e-07
2.50998e-07
9.55567e-07
2.6331e-07
9.3226e-07
-1.94505e-08
-5.6447e-07
-4.51249e-05
1.18986e-07
-3.81248e-09
1.68777e-06
-7.45457e-09
1.65858e-06
-1.08347e-08
1.6304e-06
-1.38709e-08
1.60316e-06
-1.64897e-08
1.57681e-06
-1.86254e-08
1.55127e-06
-2.02195e-08
1.5265e-06
-2.12196e-08
1.50243e-06
-2.15794e-08
1.47903e-06
-2.12577e-08
1.45623e-06
-2.02184e-08
1.434e-06
-1.84296e-08
1.4123e-06
-1.58639e-08
1.39108e-06
-1.24982e-08
1.37031e-06
-8.31348e-09
1.34997e-06
-3.29521e-09
1.33e-06
2.56619e-09
1.3104e-06
9.27484e-09
1.29112e-06
1.68285e-08
1.27215e-06
2.52175e-08
1.25345e-06
3.44231e-08
1.235e-06
4.44161e-08
1.21678e-06
5.51551e-08
1.19877e-06
6.65837e-08
1.18093e-06
7.86292e-08
1.16324e-06
9.11998e-08
1.14568e-06
1.04183e-07
1.1282e-06
1.17444e-07
1.11078e-06
1.30827e-07
1.09338e-06
1.44151e-07
1.07595e-06
1.57216e-07
1.05844e-06
1.69809e-07
1.0408e-06
1.81702e-07
1.02297e-06
1.92667e-07
1.00488e-06
2.0248e-07
9.86495e-07
2.10933e-07
9.67759e-07
2.17837e-07
9.48664e-07
2.22837e-07
9.27259e-07
-1.53494e-08
-3.26283e-07
-4.52439e-05
1.03653e-07
-2.64639e-09
1.69041e-06
-5.14812e-09
1.66108e-06
-7.41793e-09
1.63267e-06
-9.37747e-09
1.60512e-06
-1.09565e-08
1.57839e-06
-1.2092e-08
1.55241e-06
-1.27277e-08
1.52713e-06
-1.28133e-08
1.50252e-06
-1.23041e-08
1.47852e-06
-1.11603e-08
1.45509e-06
-9.34707e-09
1.43219e-06
-6.83415e-09
1.40978e-06
-3.59567e-09
1.38784e-06
3.89665e-10
1.36633e-06
5.13845e-09
1.34522e-06
1.06622e-08
1.32448e-06
1.69665e-08
1.30409e-06
2.40508e-08
1.28404e-06
3.19063e-08
1.26429e-06
4.05154e-08
1.24484e-06
4.98494e-08
1.22567e-06
5.98661e-08
1.20677e-06
7.05078e-08
1.18813e-06
8.16976e-08
1.16974e-06
9.33364e-08
1.1516e-06
1.053e-07
1.13371e-06
1.17433e-07