/*--------------------------------*- C++ -*----------------------------------*\
  =========                 |
  \\      /  F ield         | OpenFOAM: The Open Source CFD Toolbox
   \\    /   O peration     | Website:  https://openfoam.org
    \\  /    A nd           | Version:  10
     \\/     M anipulation  |
\*---------------------------------------------------------------------------*/
FoamFile
{
    format      ascii;
    class       surfaceScalarField;
    location    "1.34";
    object      phi;
}
// * * * * * * * * * * * * * * * * * * * * * * * * * * * * * * * * * * * * * //

dimensions      [0 3 -1 0 0 0 0];

internalField   nonuniform List<scalar> 
24170
(
1.43019e-09
-1.43019e-09
2.65532e-09
-1.22514e-09
3.62677e-09
-9.71446e-10
4.36321e-09
-7.3644e-10
4.91247e-09
-5.49261e-10
5.32619e-09
-4.13715e-10
5.64889e-09
-3.22704e-10
5.91572e-09
-2.66832e-10
6.15386e-09
-2.38143e-10
6.38519e-09
-2.31328e-10
6.62923e-09
-2.44043e-10
6.90657e-09
-2.77332e-10
7.2436e-09
-3.37037e-10
7.68152e-09
-4.37917e-10
8.29758e-09
-6.16057e-10
9.27068e-09
-9.73101e-10
1.11549e-08
-1.88422e-09
-5.37075e-09
1.65257e-08
1.62941e-09
-3.0596e-09
3.01896e-09
-2.61469e-09
4.11374e-09
-2.06622e-09
4.93759e-09
-1.56029e-09
5.5473e-09
-1.15898e-09
6.00307e-09
-8.69486e-10
6.35618e-09
-6.75813e-10
6.64669e-09
-5.57336e-10
6.90529e-09
-4.96742e-10
7.15644e-09
-4.82481e-10
7.42172e-09
-5.09325e-10
7.72351e-09
-5.79124e-10
8.08994e-09
-7.03467e-10
8.56343e-09
-9.114e-10
9.21879e-09
-1.27142e-09
1.02062e-08
-1.96055e-09
1.18326e-08
-3.51054e-09
-7.71275e-09
1.41746e-08
1.82677e-09
-4.88637e-09
3.37527e-09
-4.16319e-09
4.5851e-09
-3.27605e-09
5.48728e-09
-2.46247e-09
6.14905e-09
-1.82074e-09
6.63967e-09
-1.36011e-09
7.01713e-09
-1.05327e-09
7.32607e-09
-8.66274e-10
7.60025e-09
-7.70917e-10
7.86615e-09
-7.48385e-10
8.14668e-09
-7.89853e-10
8.46486e-09
-8.97305e-10
8.84831e-09
-1.08691e-09
9.33564e-09
-1.39873e-09
9.98623e-09
-1.92201e-09
1.08875e-08
-2.86178e-09
1.20844e-08
-4.70747e-09
-8.51452e-09
1.28862e-08
2.04599e-09
-6.93236e-09
3.76582e-09
-5.88302e-09
5.0941e-09
-4.60433e-09
6.07273e-09
-3.44111e-09
6.78246e-09
-2.53047e-09
7.30341e-09
-1.88106e-09
7.70095e-09
-1.45081e-09
8.0244e-09
-1.18973e-09
8.31039e-09
-1.0569e-09
8.587e-09
-1.025e-09
8.87777e-09
-1.08063e-09
9.20522e-09
-1.22475e-09
9.59423e-09
-1.47592e-09
1.00752e-08
-1.87971e-09
1.06838e-08
-2.53057e-09
1.1439e-08
-3.61701e-09
1.22196e-08
-5.48808e-09
-8.5857e-09
1.22908e-08
2.30087e-09
-9.23323e-09
4.21264e-09
-7.79479e-09
5.66603e-09
-6.05772e-09
6.71958e-09
-4.49466e-09
7.47232e-09
-3.28321e-09
8.01783e-09
-2.42657e-09
8.42994e-09
-1.86292e-09
8.76286e-09
-1.52266e-09
9.05583e-09
-1.34986e-09
9.33805e-09
-1.30722e-09
9.63294e-09
-1.37551e-09
9.96124e-09
-1.55305e-09
1.03431e-08
-1.85779e-09
1.07976e-08
-2.33424e-09
1.13343e-08
-3.06728e-09
1.19181e-08
-4.20074e-09
1.23599e-08
-5.9299e-09
-8.32969e-09
1.21039e-08
2.60661e-09
-1.18398e-08
4.73837e-09
-9.92655e-09
6.32467e-09
-7.64401e-09
7.44972e-09
-5.61971e-09
8.23778e-09
-4.07126e-09
8.79945e-09
-2.98824e-09
9.21834e-09
-2.28182e-09
9.55377e-09
-1.85808e-09
9.84722e-09
-1.64332e-09
1.01284e-08
-1.58842e-09
1.04198e-08
-1.66684e-09
1.0739e-08
-1.87233e-09
1.11002e-08
-2.21892e-09
1.15098e-08
-2.74383e-09
1.19544e-08
-3.51193e-09
1.23665e-08
-4.61285e-09
1.25562e-08
-6.11962e-09
-7.9376e-09
1.21642e-08
2.98367e-09
-1.48235e-08
5.37177e-09
-1.23147e-08
7.09823e-09
-9.37046e-09
8.28732e-09
-6.8088e-09
9.09842e-09
-4.88236e-09
9.66385e-09
-3.55367e-09
1.00786e-08
-2.69653e-09
1.0407e-08
-2.18649e-09
1.06923e-08
-1.92865e-09
1.0964e-08
-1.8601e-09
1.12425e-08
-1.94534e-09
1.15417e-08
-2.17154e-09
1.18685e-08
-2.54569e-09
1.22178e-08
-3.09315e-09
1.25599e-08
-3.85405e-09
1.28155e-08
-4.86849e-09
1.28269e-08
-6.13103e-09
-7.4959e-09
1.23852e-08
3.46183e-09
-1.82853e-08
6.15249e-09
-1.50053e-08
8.0233e-09
-1.12413e-08
9.26176e-09
-8.04726e-09
1.00766e-08
-5.69721e-09
1.06278e-08
-4.10485e-09
1.1023e-08
-3.09178e-09
1.13316e-08
-2.4951e-09
1.15977e-08
-2.19471e-09
1.18494e-08
-2.11176e-09
1.21042e-08
-2.2002e-09
1.23715e-08
-2.43882e-09
1.26512e-08
-2.82536e-09
1.29289e-08
-3.37091e-09
1.31663e-08
-4.09143e-09
1.32874e-08
-4.98953e-09
1.31758e-08
-6.0195e-09
-7.04156e-09
1.27215e-08
4.08683e-09
-2.23722e-08
7.13759e-09
-1.80561e-08
9.14914e-09
-1.32528e-08
1.04101e-08
-9.30827e-09
1.11989e-08
-6.48597e-09
1.17099e-08
-4.6159e-09
1.20649e-08
-3.44677e-09
1.2337e-08
-2.76718e-09
1.25698e-08
-2.42747e-09
1.27888e-08
-2.33079e-09
1.30079e-08
-2.41926e-09
1.32312e-08
-2.66215e-09
1.34526e-08
-3.04676e-09
1.36517e-08
-3.56998e-09
1.3788e-08
-4.22771e-09
1.37972e-08
-4.9988e-09
1.36013e-08
-5.82362e-09
-6.58896e-09
1.31487e-08
4.93202e-09
-2.73042e-08
8.41175e-09
-2.15358e-08
1.05433e-08
-1.53844e-08
1.17797e-08
-1.05447e-08
1.24969e-08
-7.20313e-09
1.29313e-08
-5.05032e-09
1.32182e-08
-3.73364e-09
1.34323e-08
-2.98132e-09
1.36146e-08
-2.60971e-09
1.37863e-08
-2.5025e-09
1.39564e-08
-2.58938e-09
1.4124e-08
-2.82977e-09
1.4278e-08
-3.20075e-09
1.4395e-08
-3.68695e-09
1.44373e-08
-4.27e-09
1.43553e-08
-4.91679e-09
1.41006e-08
-5.56892e-09
-6.14243e-09
1.3654e-08
6.12073e-09
-3.34249e-08
1.01039e-08
-2.5519e-08
1.22992e-08
-1.75796e-08
1.34302e-08
-1.16758e-08
1.40074e-08
-7.78029e-09
1.43145e-08
-5.35746e-09
1.44969e-08
-3.91598e-09
1.46264e-08
-3.11081e-09
1.47376e-08
-2.72097e-09
1.48455e-08
-2.61039e-09
1.4953e-08
-2.69685e-09
1.50539e-08
-2.93071e-09
1.51335e-08
-3.28037e-09
1.51679e-08
-3.72128e-09
1.51246e-08
-4.22675e-09
1.49681e-08
-4.76027e-09
1.46708e-08
-5.27168e-09
-5.70192e-09
1.42303e-08
6.53197e-09
-3.99569e-08
1.03346e-08
-2.93217e-08
1.21407e-08
-1.93856e-08
1.29096e-08
-1.24448e-08
1.32102e-08
-8.0809e-09
1.33175e-08
-5.4647e-09
1.33541e-08
-3.95264e-09
1.33725e-08
-3.12915e-09
1.33928e-08
-2.74129e-09
1.34202e-08
-2.63776e-09
1.34513e-08
-2.72797e-09
1.34769e-08
-2.95628e-09
1.34822e-08
-3.28573e-09
1.34478e-08
-3.68689e-09
1.3351e-08
-4.12995e-09
1.31704e-08
-4.57966e-09
1.28933e-08
-4.99453e-09
-5.33199e-09
1.25234e-08
9.70853e-09
-4.96654e-08
1.45314e-08
-3.41446e-08
1.63456e-08
-2.11998e-08
1.68503e-08
-1.29494e-08
1.6876e-08
-8.10663e-09
1.67608e-08
-5.34951e-09
1.6629e-08
-3.82087e-09
1.65204e-08
-3.02051e-09
1.6442e-08
-2.6629e-09
1.63881e-08
-2.58386e-09
1.63469e-08
-2.6868e-09
1.63029e-08
-2.91222e-09
1.62371e-08
-3.21999e-09
1.61286e-08
-3.57841e-09
1.59564e-08
-3.95771e-09
1.57037e-08
-4.32693e-09
1.53635e-08
-4.65435e-09
-4.91151e-09
1.4943e-08
1.56747e-08
-6.53401e-08
2.1451e-08
-3.99209e-08
2.2634e-08
-2.23828e-08
2.23534e-08
-1.26688e-08
2.17616e-08
-7.51482e-09
2.12059e-08
-4.79382e-09
2.07633e-08
-3.37835e-09
2.04301e-08
-2.68729e-09
2.0182e-08
-2.41474e-09
1.99917e-08
-2.39361e-09
1.98333e-08
-2.52833e-09
1.96816e-08
-2.76062e-09
1.95129e-08
-3.05127e-09
1.93047e-08
-3.37016e-09
1.90379e-08
-3.69097e-09
1.87003e-08
-3.98931e-09
1.82892e-08
-4.24319e-09
-4.43537e-09
1.7813e-08
2.86722e-08
-9.40123e-08
3.37218e-08
-4.49705e-08
3.23371e-08
-2.09981e-08
3.01154e-08
-1.04471e-08
2.82724e-08
-5.67182e-09
2.69186e-08
-3.44e-09
2.595e-08
-2.40976e-09
2.52525e-08
-1.98986e-09
2.47372e-08
-1.89937e-09
2.4338e-08
-1.99448e-09
2.40057e-08
-2.19598e-09
2.37014e-08
-2.45634e-09
2.33941e-08
-2.74393e-09
2.3059e-08
-3.03512e-09
2.26786e-08
-3.31053e-09
2.22432e-08
-3.5539e-09
2.17523e-08
-3.75229e-09
-3.89704e-09
2.12139e-08
6.32671e-08
-1.57279e-07
5.67837e-08
-3.84871e-08
4.72426e-08
-1.14571e-08
4.07781e-08
-3.98249e-09
3.66918e-08
-1.58555e-09
3.40618e-08
-8.1001e-10
3.23068e-08
-6.54786e-10
3.10867e-08
-7.69729e-10
3.01981e-08
-1.01076e-09
2.95136e-08
-1.31e-09
2.89492e-08
-1.63159e-09
2.8447e-08
-1.95408e-09
2.79659e-08
-2.26288e-09
2.74777e-08
-2.5469e-09
2.69643e-08
-2.79719e-09
2.64172e-08
-3.00677e-09
2.58359e-08
-3.17097e-09
-3.2877e-09
2.52266e-08
1.83333e-07
1.5912e-07
9.72313e-08
4.76142e-08
6.6999e-08
1.87753e-08
5.36367e-08
9.37975e-09
4.66173e-08
5.43391e-09
4.24639e-08
3.3433e-09
3.97912e-08
2.018e-09
3.79541e-08
1.06732e-09
3.66149e-08
3.28447e-10
3.55766e-08
-2.71712e-10
3.47184e-08
-7.73364e-10
3.39655e-08
-1.20119e-09
3.32687e-08
-1.56605e-09
3.25958e-08
-1.87399e-09
3.19272e-08
-2.12867e-09
3.12532e-08
-2.33275e-09
3.05712e-08
-2.4889e-09
-2.60026e-09
2.98837e-08
7.72623e-08
8.18578e-08
7.55203e-08
4.93563e-08
6.55359e-08
2.87597e-08
5.75729e-08
1.73427e-08
5.20986e-08
1.09082e-08
4.83738e-08
7.06812e-09
4.57725e-08
4.61936e-09
4.38831e-08
2.95672e-09
4.24461e-08
1.76542e-09
4.12999e-08
8.74437e-10
4.03404e-08
1.86194e-10
3.94892e-08
-3.50023e-10
3.86992e-08
-7.76066e-10
3.79429e-08
-1.11771e-09
3.72039e-08
-1.38963e-09
3.64736e-08
-1.60249e-09
3.57493e-08
-1.76459e-09
-1.88285e-09
3.50319e-08
3.59808e-08
4.5877e-08
5.01744e-08
3.51626e-08
5.38805e-08
2.50536e-08
5.37305e-08
1.74928e-08
5.2436e-08
1.22026e-08
5.09646e-08
8.53953e-09
4.9612e-08
5.97193e-09
4.84348e-08
4.13397e-09
4.74127e-08
2.78754e-09
4.65076e-08
1.77948e-09
4.56831e-08
1.01069e-09
4.49169e-08
4.16175e-10
4.41881e-08
-4.72416e-11
4.34756e-08
-4.05224e-10
4.27719e-08
-6.8588e-10
4.20735e-08
-9.04133e-10
4.13803e-08
-1.07134e-09
-1.19646e-09
4.06939e-08
1.43328e-08
3.15442e-08
2.33202e-08
2.61752e-08
2.8128e-08
2.02459e-08
3.048e-08
1.51408e-08
3.15314e-08
1.11512e-08
3.1921e-08
8.14994e-09
3.19763e-08
5.9166e-09
3.18597e-08
4.25059e-09
3.16502e-08
2.99703e-09
3.13861e-08
2.04358e-09
3.10861e-08
1.31069e-09
3.076e-08
7.42344e-10
3.04139e-08
2.98869e-10
3.00561e-08
-4.74776e-11
2.96849e-08
-3.14715e-10
2.93039e-08
-5.23048e-10
2.89164e-08
-6.83835e-10
-8.05927e-10
2.85258e-08
8.58103e-09
2.29632e-08
1.49725e-08
1.97837e-08
1.92115e-08
1.60068e-08
2.18711e-08
1.24812e-08
2.34956e-08
9.52666e-09
2.44698e-08
7.17582e-09
2.50372e-08
5.34915e-09
2.53459e-08
3.94191e-09
2.54847e-08
2.85825e-09
2.55075e-08
2.02073e-09
2.54481e-08
1.37009e-09
2.53284e-08
8.62085e-10
2.51633e-08
4.63957e-10
2.49644e-08
1.51402e-10
2.47421e-08
-9.24029e-11
2.45003e-08
-2.81252e-10
2.42444e-08
-4.27954e-10
-5.40548e-10
2.39791e-08
5.7858e-09
1.71774e-08
1.04679e-08
1.51016e-08
1.39276e-08
1.25472e-08
1.63631e-08
1.00456e-08
1.80367e-08
7.85307e-09
1.91716e-08
6.04091e-09
1.99318e-08
4.58897e-09
2.04304e-08
3.44335e-09
2.07436e-08
2.54503e-09
2.09229e-08
1.84137e-09
2.10036e-08
1.28938e-09
2.10104e-08
8.55346e-10
2.09609e-08
5.13399e-10
2.08685e-08
2.43798e-10
2.07447e-08
3.14813e-11
2.05966e-08
-1.33194e-10
2.04302e-08
-2.61512e-10
-3.6081e-10
2.02504e-08
4.20635e-09
1.2971e-08
7.76703e-09
1.15409e-08
1.05654e-08
9.74882e-09
1.26696e-08
7.94143e-09
1.42126e-08
6.3101e-09
1.53271e-08
4.92639e-09
1.61225e-08
3.79352e-09
1.66819e-08
2.88398e-09
1.7066e-08
2.16096e-09
1.73187e-08
1.58861e-09
1.74721e-08
1.136e-09
1.75495e-08
7.77896e-10
1.75686e-08
4.94381e-10
1.75425e-08
2.69907e-10
1.74815e-08
9.2399e-11
1.73952e-08
-4.68215e-11
1.72886e-08
-1.54936e-10
-2.3912e-10
1.71669e-08
3.21369e-09
9.75734e-09
6.00724e-09
8.74737e-09
8.28704e-09
7.46902e-09
1.00729e-08
6.15553e-09
1.14364e-08
4.94664e-09
1.24599e-08
3.90287e-09
1.32182e-08
3.03522e-09
1.37724e-08
2.32982e-09
1.417e-08
1.76336e-09
1.44473e-08
1.31133e-09
1.46317e-08
9.5157e-10
1.47441e-08
6.65475e-10
1.48005e-08
4.38008e-10
1.48132e-08
2.57244e-10
1.47917e-08
1.13806e-10
1.47446e-08
3.46293e-13
1.46773e-08
-8.76368e-11
-1.56519e-10
1.45947e-08
2.53901e-09
7.21834e-09
4.78291e-09
6.50347e-09
6.65868e-09
5.59324e-09
8.16759e-09
4.64662e-09
9.35032e-09
3.7639e-09
1.02608e-08
2.99238e-09
1.09519e-08
2.34415e-09
1.14693e-08
1.81237e-09
1.18505e-08
1.38214e-09
1.21252e-08
1.03672e-09
1.23163e-08
7.60436e-10
1.2442e-08
5.39811e-10
1.25162e-08
3.63774e-10
1.255e-08
2.23431e-10
1.25521e-08
1.1172e-10
1.25294e-08
2.30486e-11
1.2488e-08
-4.62455e-11
-1.00413e-10
1.24319e-08
2.0521e-09
5.16623e-09
3.88519e-09
4.67039e-09
5.44182e-09
4.03661e-09
6.71622e-09
3.37222e-09
7.73295e-09
2.74718e-09
8.52907e-09
2.19626e-09
9.14332e-09
1.7299e-09
9.61085e-09
1.34484e-09
9.96139e-09
1.0316e-09
1.02192e-08
7.78948e-10
1.04035e-08
5.76071e-10
1.05298e-08
4.13521e-10
1.06102e-08
2.83435e-10
1.06541e-08
1.79438e-10
1.06694e-08
9.64295e-11
1.06621e-08
3.03491e-11
1.06375e-08
-2.16312e-11
-6.21933e-11
1.05993e-08
1.68348e-09
3.48276e-09
3.19795e-09
3.15592e-09
4.49748e-09
2.73708e-09
5.57404e-09
2.29566e-09
6.44331e-09
1.87791e-09
7.13201e-09
1.50756e-09
7.66951e-09
1.19241e-09
8.08337e-09
9.30978e-10
8.39752e-09
7.17449e-10
8.63186e-09
5.44609e-10
8.80254e-09
4.0539e-10
8.92253e-09
2.93534e-10
9.00217e-09
2.03788e-10
9.04975e-09
1.31865e-10
9.07186e-09
7.43155e-11
9.07383e-09
2.83832e-11
9.06016e-09
-7.95988e-12
-3.62359e-11
9.0342e-09
1.39273e-09
2.09002e-09
2.65158e-09
1.89707e-09
3.73932e-09
1.64933e-09
4.64767e-09
1.38731e-09
5.38723e-09
1.13834e-09
5.97804e-09
9.16752e-10
6.44297e-09
7.27478e-10
6.80402e-09
5.69934e-10
7.08061e-09
4.40861e-10
7.28912e-09
3.36093e-10
7.44302e-09
2.51488e-10
7.55321e-09
1.8335e-10
7.62844e-09
1.28556e-10
7.67576e-09
8.45447e-11
7.70083e-09
4.92493e-11
7.7082e-09
2.10114e-11
7.70169e-09
-1.45266e-12
-1.88184e-11
7.68428e-09
1.15336e-09
9.36658e-10
2.19921e-09
8.51224e-10
3.10718e-09
7.41363e-10
3.86961e-09
6.24888e-10
4.49404e-09
5.1391e-10
4.99593e-09
4.14861e-10
5.39338e-09
3.30029e-10
5.70408e-09
2.59236e-10
5.94385e-09
2.01097e-10
6.12614e-09
1.53797e-10
6.26211e-09
1.15516e-10
6.36084e-09
8.46215e-11
6.42967e-09
5.97255e-11
6.47453e-09
3.96875e-11
6.50019e-09
2.35839e-11
6.51053e-09
1.06729e-11
6.50871e-09
3.65875e-13
-7.43018e-12
6.49733e-09
9.36658e-10
1.78788e-09
2.52924e-09
3.15413e-09
3.66804e-09
4.0829e-09
4.41293e-09
4.67217e-09
4.87327e-09
5.02706e-09
5.14258e-09
5.2272e-09
5.28693e-09
5.32661e-09
5.3502e-09
5.36087e-09
5.36124e-09
5.35381e-09
4.70338e-10
-4.70338e-10
9.42445e-10
-4.72107e-10
1.4149e-09
-4.72459e-10
1.8864e-09
-4.71493e-10
2.35569e-09
-4.6929e-10
2.82158e-09
-4.65889e-10
3.2828e-09
-4.61225e-10
3.73797e-09
-4.55169e-10
4.18562e-09
-4.47652e-10
4.6244e-09
-4.38778e-10
5.05319e-09
-4.28793e-10
5.47115e-09
-4.17962e-10
5.87759e-09
-4.06432e-10
6.27179e-09
-3.94202e-10
6.65297e-09
-3.81183e-10
7.02027e-09
-3.67302e-10
7.37283e-09
-3.52553e-10
7.70982e-09
-3.36996e-10
8.03054e-09
-3.20714e-10
8.33432e-09
-3.03786e-10
8.62062e-09
-2.86294e-10
8.88895e-09
-2.68331e-10
9.13897e-09
-2.50022e-10
9.3705e-09
-2.31525e-10
9.58352e-09
-2.13022e-10
9.77823e-09
-1.94712e-10
9.95502e-09
-1.76788e-10
1.01145e-08
-1.59434e-10
1.02573e-08
-1.42808e-10
1.03843e-08
-1.27039e-10
1.04965e-08
-1.12225e-10
1.0595e-08
-9.84303e-11
1.06806e-08
-8.56889e-11
1.07546e-08
-7.40073e-11
1.0818e-08
-6.33696e-11
1.08718e-08
-5.37416e-11
1.09168e-08
-4.50753e-11
1.09542e-08
-3.73138e-11
1.09845e-08
-3.03937e-11
1.10088e-08
-2.42497e-11
1.10276e-08
-1.88155e-11
1.10416e-08
-1.40263e-11
1.10515e-08
-9.82009e-12
1.10576e-08
-6.13835e-12
1.10605e-08
-2.92599e-12
1.10607e-08
-1.33142e-13
1.10584e-08
2.28648e-12
1.1054e-08
4.37483e-12
1.10478e-08
6.16975e-12
1.10401e-08
7.70498e-12
1.10311e-08
9.01149e-12
1.1021e-08
1.01163e-11
1.10099e-08
1.10441e-11
1.09981e-08
1.18163e-11
1.09857e-08
1.24527e-11
1.09727e-08
1.29703e-11
1.09593e-08
1.33843e-11
1.09456e-08
1.37086e-11
1.09317e-08
1.3955e-11
1.09175e-08
1.41344e-11
1.09033e-08
1.42562e-11
1.08889e-08
1.43287e-11
1.08746e-08
1.43593e-11
1.08602e-08
1.43548e-11
1.08459e-08
1.43206e-11
1.08316e-08
1.4262e-11
1.08175e-08
1.41834e-11
1.08034e-08
1.40887e-11
1.07894e-08
1.39811e-11
1.07755e-08
1.38641e-11
1.07618e-08
1.37397e-11
1.07482e-08
1.36105e-11
1.07347e-08
1.34785e-11
1.07214e-08
1.33451e-11
1.07081e-08
1.3212e-11
1.06951e-08
1.30801e-11
1.06821e-08
1.29507e-11
1.06693e-08
1.28244e-11
1.06566e-08
1.27023e-11
1.0644e-08
1.25847e-11
1.06315e-08
1.24722e-11
1.06192e-08
1.23652e-11
1.06069e-08
1.22638e-11
1.05947e-08
1.21684e-11
1.05826e-08
1.20791e-11
1.05707e-08
1.19962e-11
1.05587e-08
1.19194e-11
1.05469e-08
1.1849e-11
1.05351e-08
1.17849e-11
1.05234e-08
1.17269e-11
1.05117e-08
1.16752e-11
1.05001e-08
1.16295e-11
1.04885e-08
1.15898e-11
1.04769e-08
1.15558e-11
1.04654e-08
1.15277e-11
1.04539e-08
1.15051e-11
1.04424e-08
1.14878e-11
1.04309e-08
1.14759e-11
1.04195e-08
1.14691e-11
1.0408e-08
1.14672e-11
1.03965e-08
1.14701e-11
1.0385e-08
1.14777e-11
1.03736e-08
1.14896e-11
1.0362e-08
1.15061e-11
1.03505e-08
1.15266e-11
1.0339e-08
1.15512e-11
1.03274e-08
1.15796e-11
1.03158e-08
1.16119e-11
1.03041e-08
1.16476e-11
1.02924e-08
1.16869e-11
1.02807e-08
1.17296e-11
1.02689e-08
1.17755e-11
1.02571e-08
1.18244e-11
1.02452e-08
1.18763e-11
1.02333e-08
1.19311e-11
1.02213e-08
1.19888e-11
1.02093e-08
1.20489e-11
1.01972e-08
1.21119e-11
1.0185e-08
1.21771e-11
1.01727e-08
1.22449e-11
1.01604e-08
1.23147e-11
1.0148e-08
1.2387e-11
1.01356e-08
1.24613e-11
1.0123e-08
1.25377e-11
1.01104e-08
1.26162e-11
1.00977e-08
1.26964e-11
1.00849e-08
1.27787e-11
1.00721e-08
1.28627e-11
1.00591e-08
1.29484e-11
1.00461e-08
1.3036e-11
1.0033e-08
1.31251e-11
1.00198e-08
1.3216e-11
1.00064e-08
1.33083e-11
9.99304e-09
1.34023e-11
9.97954e-09
1.34978e-11
9.96595e-09
1.35949e-11
9.95226e-09
1.36933e-11
9.93846e-09
1.37935e-11
9.92457e-09
1.3895e-11
9.91057e-09
1.39981e-11
9.89647e-09
1.41027e-11
9.88226e-09
1.4209e-11
9.86794e-09
1.4317e-11
9.85351e-09
1.44267e-11
9.83898e-09
1.45383e-11
9.82432e-09
1.46519e-11
9.80956e-09
1.47678e-11
9.79467e-09
1.48861e-11
9.77966e-09
1.50073e-11
9.76453e-09
1.51318e-11
9.74927e-09
1.52599e-11
9.73388e-09
1.53926e-11
9.71835e-09
1.55306e-11
9.70267e-09
1.5675e-11
9.68684e-09
1.58272e-11
9.67086e-09
1.5989e-11
9.65469e-09
1.61629e-11
9.63834e-09
1.63517e-11
9.62178e-09
1.65592e-11
9.60499e-09
1.67903e-11
9.58794e-09
1.70516e-11
9.57059e-09
1.73512e-11
9.55289e-09
1.77e-11
9.53478e-09
1.81123e-11
9.51617e-09
1.86069e-11
9.49696e-09
1.92091e-11
9.47701e-09
1.99523e-11
9.45613e-09
2.08828e-11
9.43406e-09
2.2064e-11
9.41048e-09
2.35848e-11
9.3849e-09
2.55735e-11
9.35668e-09
2.82192e-11
9.32487e-09
3.18121e-11
9.28805e-09
3.68187e-11
9.24402e-09
4.40358e-11
9.18907e-09
5.49461e-11
9.11642e-09
7.26503e-11
9.01157e-09
1.04849e-10
8.8353e-09
1.76268e-10
4.00973e-10
8.43433e-09
4.77009e-10
-9.47347e-10
9.5533e-10
-9.50428e-10
1.43333e-09
-9.50462e-10
1.90979e-09
-9.47953e-10
2.38368e-09
-9.43174e-10
2.85425e-09
-9.3646e-10
3.32049e-09
-9.27466e-10
3.78073e-09
-9.15411e-10
4.23284e-09
-8.99766e-10
4.67493e-09
-8.80859e-10
5.10586e-09
-8.59731e-10
5.5253e-09
-8.37402e-10
5.93315e-09
-8.14273e-10
6.329e-09
-7.90056e-10
6.71201e-09
-7.64196e-10
7.08106e-09
-7.36353e-10
7.43507e-09
-7.06563e-10
7.77316e-09
-6.75084e-10
8.09463e-09
-6.42178e-10
8.39884e-09
-6.08005e-10
8.68522e-09
-5.72669e-10
8.9532e-09
-5.36315e-10
9.20237e-09
-4.9919e-10
9.43248e-09
-4.61636e-10
9.64352e-09
-4.24063e-10
9.83572e-09
-3.8691e-10
1.00095e-08
-3.50602e-10
1.01656e-08
-3.15526e-10
1.03048e-08
-2.82014e-10
1.04281e-08
-2.50326e-10
1.05365e-08
-2.20648e-10
1.06312e-08
-1.93099e-10
1.07133e-08
-1.6773e-10
1.07838e-08
-1.44538e-10
1.08439e-08
-1.23475e-10
1.08946e-08
-1.04457e-10
1.09369e-08
-8.73753e-11
1.09717e-08
-7.21064e-11
1.09998e-08
-5.85162e-11
1.1022e-08
-4.64673e-11
1.1039e-08
-3.58239e-11
1.10515e-08
-2.64541e-11
1.10599e-08
-1.82324e-11
1.10648e-08
-1.10413e-11
1.10666e-08
-4.77229e-12
1.10658e-08
6.75031e-13
1.10627e-08
5.39134e-12
1.10576e-08
9.4593e-12
1.10509e-08
1.29531e-11
1.10426e-08
1.59397e-11
1.10332e-08
1.8479e-11
1.10226e-08
2.06242e-11
1.10113e-08
2.24236e-11
1.09992e-08
2.39192e-11
1.09865e-08
2.51493e-11
1.09733e-08
2.61472e-11
1.09597e-08
2.69434e-11
1.09459e-08
2.7564e-11
1.09318e-08
2.80328e-11
1.09176e-08
2.83708e-11
1.09032e-08
2.85963e-11
1.08888e-08
2.87259e-11
1.08744e-08
2.8774e-11
1.086e-08
2.87534e-11
1.08457e-08
2.86755e-11
1.08314e-08
2.85499e-11
1.08172e-08
2.83857e-11
1.08031e-08
2.81902e-11
1.07891e-08
2.79705e-11
1.07752e-08
2.7732e-11
1.07615e-08
2.748e-11
1.07479e-08
2.72188e-11
1.07344e-08
2.69522e-11
1.0721e-08
2.66838e-11
1.07078e-08
2.64158e-11
1.06948e-08
2.6151e-11
1.06818e-08
2.58912e-11
1.0669e-08
2.56384e-11
1.06563e-08
2.53935e-11
1.06437e-08
2.51582e-11
1.06313e-08
2.4933e-11
1.06189e-08
2.47189e-11
1.06067e-08
2.45163e-11
1.05945e-08
2.43258e-11
1.05825e-08
2.41476e-11
1.05705e-08
2.39819e-11
1.05586e-08
2.38286e-11
1.05467e-08
2.36882e-11
1.05349e-08
2.35602e-11
1.05232e-08
2.34448e-11
1.05116e-08
2.33417e-11
1.04999e-08
2.32507e-11
1.04884e-08
2.31716e-11
1.04768e-08
2.31042e-11
1.04653e-08
2.30482e-11
1.04538e-08
2.30034e-11
1.04423e-08
2.29694e-11
1.04308e-08
2.29457e-11
1.04194e-08
2.29326e-11
1.04079e-08
2.2929e-11
1.03965e-08
2.29352e-11
1.0385e-08
2.29505e-11
1.03735e-08
2.29749e-11
1.0362e-08
2.3008e-11
1.03505e-08
2.30493e-11
1.03389e-08
2.30987e-11
1.03273e-08
2.31559e-11
1.03157e-08
2.32206e-11
1.03041e-08
2.32923e-11
1.02924e-08
2.33712e-11
1.02807e-08
2.34566e-11
1.02689e-08
2.35485e-11
1.02571e-08
2.36465e-11
1.02452e-08
2.37507e-11
1.02333e-08
2.38604e-11
1.02213e-08
2.39758e-11
1.02092e-08
2.40964e-11
1.01971e-08
2.42221e-11
1.0185e-08
2.43528e-11
1.01727e-08
2.44883e-11
1.01604e-08
2.46284e-11
1.0148e-08
2.47729e-11
1.01356e-08
2.49216e-11
1.0123e-08
2.50744e-11
1.01104e-08
2.52313e-11
1.00977e-08
2.53921e-11
1.00849e-08
2.55565e-11
1.00721e-08
2.57246e-11
1.00591e-08
2.58963e-11
1.00461e-08
2.60713e-11
1.0033e-08
2.62497e-11
1.00197e-08
2.64313e-11
1.00064e-08
2.66161e-11
9.99304e-09
2.68041e-11
9.97954e-09
2.69952e-11
9.96595e-09
2.71892e-11
9.95225e-09
2.73864e-11
9.93846e-09
2.75865e-11
9.92456e-09
2.77896e-11
9.91057e-09
2.79958e-11
9.89646e-09
2.82052e-11
9.88226e-09
2.84177e-11
9.86794e-09
2.86336e-11
9.85351e-09
2.88529e-11
9.83898e-09
2.90761e-11
9.82432e-09
2.93034e-11
9.80956e-09
2.9535e-11
9.79467e-09
2.97716e-11
9.77966e-09
3.00139e-11
9.76453e-09
3.02626e-11
9.74928e-09
3.05187e-11
9.73388e-09
3.07839e-11
9.71836e-09
3.10594e-11
9.70268e-09
3.13479e-11
9.68686e-09
3.16518e-11
9.67087e-09
3.19751e-11
9.65471e-09
3.23219e-11
9.63837e-09
3.26985e-11
9.62181e-09
3.31122e-11
9.60503e-09
3.35729e-11
9.58799e-09
3.40935e-11
9.57065e-09
3.469e-11
9.55296e-09
3.53843e-11
9.53487e-09
3.62046e-11
9.51629e-09
3.71881e-11
9.49712e-09
3.83848e-11
9.47721e-09
3.98612e-11
9.45638e-09
4.17085e-11
9.43439e-09
4.40514e-11
9.41091e-09
4.7066e-11
9.38548e-09
5.10037e-11
9.35747e-09
5.62347e-11
9.32595e-09
6.33248e-11
9.2896e-09
7.31749e-11
9.24633e-09
8.73086e-11
9.19277e-09
1.08504e-10
9.12305e-09
1.42371e-10
9.02604e-09
2.01855e-10
8.88007e-09
3.22242e-10
6.16368e-10
8.66467e-09
4.92562e-10
-1.43991e-09
9.84232e-10
-1.4421e-09
1.47284e-09
-1.43907e-09
1.9583e-09
-1.43342e-09
2.4394e-09
-1.42427e-09
2.9183e-09
-1.41536e-09
3.39572e-09
-1.40489e-09
3.86881e-09
-1.3885e-09
4.33196e-09
-1.36291e-09
4.78056e-09
-1.32946e-09
5.21381e-09
-1.29298e-09
5.6339e-09
-1.25749e-09
6.04338e-09
-1.22376e-09
6.4428e-09
-1.18947e-09
6.83041e-09
-1.1518e-09
7.20371e-09
-1.10966e-09
7.56086e-09
-1.06371e-09
7.90102e-09
-1.01524e-09
8.22388e-09
-9.65044e-10
8.52905e-09
-9.13175e-10
8.81581e-09
-8.5943e-10
9.08333e-09
-8.03835e-10
9.33092e-09
-7.46778e-10
9.55819e-09
-6.88908e-10
9.76513e-09
-6.30996e-10
9.95205e-09
-5.73833e-10
1.01196e-08
-5.18157e-10
1.02687e-08
-4.64605e-10
1.04004e-08
-4.13696e-10
1.05159e-08
-3.65815e-10
1.06164e-08
-3.2122e-10
1.07034e-08
-2.80047e-10
1.0778e-08
-2.42331e-10
1.08415e-08
-2.08019e-10
1.0895e-08
-1.76996e-10
1.09396e-08
-1.49098e-10
1.09764e-08
-1.24131e-10
1.10062e-08
-1.01883e-10
1.10298e-08
-8.21344e-11
1.1048e-08
-6.46672e-11
1.10614e-08
-4.92684e-11
1.10707e-08
-3.57357e-11
1.10763e-08
-2.38785e-11
1.10788e-08
-1.35215e-11
1.10786e-08
-4.50233e-12
1.10759e-08
3.326e-12
1.10712e-08
1.00969e-11
1.10647e-08
1.59309e-11
1.10567e-08
2.09361e-11
1.10475e-08
2.52092e-11
1.10371e-08
2.8837e-11
1.10258e-08
3.1897e-11
1.10138e-08
3.44578e-11
1.10011e-08
3.65811e-11
1.0988e-08
3.83214e-11
1.09744e-08
3.97277e-11
1.09605e-08
4.08429e-11
1.09464e-08
4.17055e-11
1.0932e-08
4.23496e-11
1.09176e-08
4.28053e-11
1.09031e-08
4.30996e-11
1.08886e-08
4.3256e-11
1.0874e-08
4.32956e-11
1.08596e-08
4.32368e-11
1.08451e-08
4.30959e-11
1.08308e-08
4.28874e-11
1.08166e-08
4.26239e-11
1.08024e-08
4.23163e-11
1.07884e-08
4.19743e-11
1.07746e-08
4.16065e-11
1.07608e-08
4.122e-11
1.07472e-08
4.08213e-11
1.07338e-08
4.0416e-11
1.07204e-08
4.00085e-11
1.07072e-08
3.96032e-11
1.06942e-08
3.92031e-11
1.06813e-08
3.88115e-11
1.06685e-08
3.84307e-11
1.06558e-08
3.80625e-11
1.06433e-08
3.77089e-11
1.06308e-08
3.73709e-11
1.06185e-08
3.70498e-11
1.06063e-08
3.67463e-11
1.05941e-08
3.64609e-11
1.05821e-08
3.61941e-11
1.05701e-08
3.59463e-11
1.05582e-08
3.57175e-11
1.05464e-08
3.55076e-11
1.05346e-08
3.53168e-11
1.05229e-08
3.51445e-11
1.05113e-08
3.49908e-11
1.04997e-08
3.48554e-11
1.04881e-08
3.47377e-11
1.04766e-08
3.46377e-11
1.04651e-08
3.45547e-11
1.04536e-08
3.44883e-11
1.04421e-08
3.44381e-11
1.04307e-08
3.44038e-11
1.04192e-08
3.43846e-11
1.04078e-08
3.43803e-11
1.03963e-08
3.43903e-11
1.03849e-08
3.44142e-11
1.03734e-08
3.44515e-11
1.03619e-08
3.45016e-11
1.03504e-08
3.45643e-11
1.03388e-08
3.4639e-11
1.03273e-08
3.47253e-11
1.03157e-08
3.48229e-11
1.0304e-08
3.49312e-11
1.02923e-08
3.50498e-11
1.02806e-08
3.51785e-11
1.02688e-08
3.53169e-11
1.0257e-08
3.54643e-11
1.02452e-08
3.56208e-11
1.02332e-08
3.57859e-11
1.02213e-08
3.59592e-11
1.02092e-08
3.61404e-11
1.01971e-08
3.63295e-11
1.01849e-08
3.65257e-11
1.01727e-08
3.67292e-11
1.01604e-08
3.69395e-11
1.0148e-08
3.71565e-11
1.01355e-08
3.73797e-11
1.0123e-08
3.76094e-11
1.01104e-08
3.78447e-11
1.00977e-08
3.8086e-11
1.00849e-08
3.83329e-11
1.00721e-08
3.85852e-11
1.00591e-08
3.88427e-11
1.00461e-08
3.91055e-11
1.0033e-08
3.93731e-11
1.00197e-08
3.96457e-11
1.00064e-08
3.99231e-11
9.99303e-09
4.02051e-11
9.97953e-09
4.04916e-11
9.96594e-09
4.07829e-11
9.95225e-09
4.10785e-11
9.93845e-09
4.13788e-11
9.92456e-09
4.16836e-11
9.91056e-09
4.19928e-11
9.89646e-09
4.23068e-11
9.88225e-09
4.26256e-11
9.86794e-09
4.29495e-11
9.85351e-09
4.32784e-11
9.83898e-09
4.36132e-11
9.82433e-09
4.39538e-11
9.80956e-09
4.4301e-11
9.79468e-09
4.46558e-11
9.77967e-09
4.50188e-11
9.76454e-09
4.53916e-11
9.74928e-09
4.57754e-11
9.7339e-09
4.61723e-11
9.71837e-09
4.6585e-11
9.7027e-09
4.70167e-11
9.68688e-09
4.74715e-11
9.6709e-09
4.79547e-11
9.65475e-09
4.84732e-11
9.63841e-09
4.90356e-11
9.62187e-09
4.96531e-11
9.60511e-09
5.03404e-11
9.58808e-09
5.11161e-11
9.57077e-09
5.20045e-11
9.55312e-09
5.30377e-11
9.53506e-09
5.42573e-11
9.51653e-09
5.57185e-11
9.49742e-09
5.74945e-11
9.4776e-09
5.96841e-11
9.45689e-09
6.24208e-11
9.43505e-09
6.58881e-11
9.41177e-09
7.03429e-11
9.38663e-09
7.61517e-11
9.35901e-09
8.38512e-11
9.32808e-09
9.42528e-11
9.29262e-09
1.08636e-10
9.2508e-09
1.29124e-10
9.19983e-09
1.5948e-10
9.13527e-09
2.06931e-10
9.05039e-09
2.86738e-10
8.9385e-09
4.34131e-10
7.31701e-10
8.82316e-09
5.27282e-10
-1.96719e-09
1.04168e-09
-1.9565e-09
1.54066e-09
-1.93804e-09
2.03984e-09
-1.9326e-09
2.51832e-09
-1.90275e-09
3.00205e-09
-1.89909e-09
3.5018e-09
-1.90464e-09
4.0097e-09
-1.8964e-09
4.50102e-09
-1.85424e-09
4.95785e-09
-1.78628e-09
5.38349e-09
-1.71862e-09
5.79323e-09
-1.66723e-09
6.20121e-09
-1.63174e-09
6.60944e-09
-1.59771e-09
7.00944e-09
-1.5518e-09
7.39219e-09
-1.4924e-09
7.75395e-09
-1.42547e-09
8.09572e-09
-1.35702e-09
8.41985e-09
-1.28917e-09
8.72683e-09
-1.22015e-09
9.01517e-09
-1.14777e-09
9.28289e-09
-1.07156e-09
9.52856e-09
-9.92446e-10
9.75152e-09
-9.1187e-10
9.95182e-09
-8.313e-10
1.01301e-08
-7.52104e-10
1.02874e-08
-6.75442e-10
1.0425e-08
-6.02246e-10
1.05445e-08
-5.33218e-10
1.06476e-08
-4.68838e-10
1.07357e-08
-4.09376e-10
1.08106e-08
-3.54922e-10
1.08737e-08
-3.0542e-10
1.09264e-08
-2.60702e-10
1.09699e-08
-2.20526e-10
1.10054e-08
-1.84599e-10
1.10339e-08
-1.52604e-10
1.10562e-08
-1.24214e-10
1.10732e-08
-9.91054e-11
1.10855e-08
-7.6966e-11
1.10937e-08
-5.74997e-11
1.10984e-08
-4.04304e-11
1.11e-08
-2.55036e-11
1.1099e-08
-1.24867e-11
1.10957e-08
-1.16847e-12
1.10903e-08
8.64133e-12
1.10833e-08
1.71145e-11
1.10748e-08
2.44045e-11
1.10651e-08
3.06488e-11
1.10544e-08
3.59702e-11
1.10427e-08
4.04783e-11
1.10304e-08
4.42708e-11
1.10174e-08
4.74346e-11
1.10039e-08
5.00474e-11
1.09901e-08
5.21779e-11
1.09759e-08
5.38878e-11
1.09615e-08
5.52314e-11
1.0947e-08
5.62574e-11
1.09323e-08
5.70086e-11
1.09176e-08
5.75235e-11
1.09028e-08
5.78358e-11
1.08881e-08
5.79754e-11
1.08735e-08
5.7969e-11
1.08589e-08
5.78399e-11
1.08443e-08
5.76088e-11
1.08299e-08
5.72941e-11
1.08156e-08
5.69114e-11
1.08015e-08
5.6475e-11
1.07875e-08
5.59969e-11
1.07736e-08
5.5488e-11
1.07598e-08
5.49575e-11
1.07463e-08
5.44135e-11
1.07328e-08
5.38628e-11
1.07195e-08
5.33114e-11
1.07063e-08
5.27645e-11
1.06933e-08
5.22264e-11
1.06804e-08
5.17004e-11
1.06677e-08
5.11901e-11
1.0655e-08
5.06975e-11
1.06425e-08
5.02251e-11
1.06301e-08
4.97741e-11
1.06178e-08
4.93461e-11
1.06056e-08
4.89421e-11
1.05935e-08
4.85625e-11
1.05815e-08
4.82082e-11
1.05696e-08
4.7879e-11
1.05577e-08
4.75756e-11
1.05459e-08
4.72974e-11
1.05342e-08
4.70447e-11
1.05225e-08
4.68169e-11
1.05109e-08
4.66139e-11
1.04993e-08
4.64352e-11
1.04878e-08
4.62803e-11
1.04763e-08
4.61487e-11
1.04648e-08
4.60398e-11
1.04533e-08
4.59531e-11
1.04419e-08
4.5888e-11
1.04304e-08
4.58438e-11
1.0419e-08
4.58198e-11
1.04076e-08
4.58157e-11
1.03961e-08
4.58304e-11
1.03847e-08
4.58637e-11
1.03732e-08
4.59148e-11
1.03617e-08
4.59829e-11
1.03502e-08
4.60678e-11
1.03387e-08
4.61685e-11
1.03271e-08
4.62848e-11
1.03155e-08
4.64158e-11
1.03039e-08
4.65612e-11
1.02922e-08
4.67204e-11
1.02805e-08
4.68927e-11
1.02688e-08
4.7078e-11
1.0257e-08
4.72755e-11
1.02451e-08
4.74848e-11
1.02332e-08
4.77055e-11
1.02212e-08
4.79374e-11
1.02092e-08
4.81796e-11
1.0197e-08
4.8432e-11
1.01849e-08
4.86944e-11
1.01726e-08
4.89662e-11
1.01603e-08
4.92469e-11
1.0148e-08
4.95368e-11
1.01355e-08
4.98348e-11
1.0123e-08
5.01412e-11
1.01104e-08
5.04556e-11
1.00977e-08
5.07775e-11
1.00849e-08
5.11071e-11
1.0072e-08
5.14436e-11
1.00591e-08
5.17874e-11
1.00461e-08
5.21378e-11
1.00329e-08
5.24949e-11
1.00197e-08
5.28585e-11
1.00064e-08
5.32285e-11
9.99302e-09
5.36047e-11
9.97952e-09
5.39869e-11
9.96593e-09
5.43754e-11
9.95224e-09
5.47697e-11
9.93845e-09
5.517e-11
9.92455e-09
5.55764e-11
9.91056e-09
5.59889e-11