/*--------------------------------*- C++ -*----------------------------------*\
  =========                 |
  \\      /  F ield         | OpenFOAM: The Open Source CFD Toolbox
   \\    /   O peration     | Website:  https://openfoam.org
    \\  /    A nd           | Version:  10
     \\/     M anipulation  |
\*---------------------------------------------------------------------------*/
FoamFile
{
    format      ascii;
    class       volVectorField;
    location    "1.34";
    object      Ua;
}
// * * * * * * * * * * * * * * * * * * * * * * * * * * * * * * * * * * * * * //

dimensions      [0 1 -1 0 0 0 0];

internalField   nonuniform List<vector> 
12225
(
(3.19376e-05 -4.11147e-06 0)
(9.33766e-05 -3.85105e-06 0)
(0.000149109 -3.37298e-06 0)
(0.00019826 -2.83482e-06 0)
(0.000241211 -2.34283e-06 0)
(0.000278979 -1.94972e-06 0)
(0.000312763 -1.67345e-06 0)
(0.000343713 -1.51581e-06 0)
(0.000372859 -1.47542e-06 0)
(0.000401124 -1.55622e-06 0)
(0.000429394 -1.77446e-06 0)
(0.000458624 -2.16834e-06 0)
(0.00049001 -2.81683e-06 0)
(0.000525319 -3.88464e-06 0)
(0.000567625 -5.748e-06 0)
(0.000623404 -9.42679e-06 0)
(0.000710449 -1.85573e-05 0)
(0.000900367 -5.19389e-05 0)
(2.17516e-05 -1.06599e-05 0)
(6.40687e-05 -1.00471e-05 0)
(0.000103499 -8.86076e-06 0)
(0.000139405 -7.4982e-06 0)
(0.000171818 -6.23688e-06 0)
(0.000201172 -5.22112e-06 0)
(0.000228078 -4.50559e-06 0)
(0.000253177 -4.10167e-06 0)
(0.000277084 -4.01105e-06 0)
(0.000300387 -4.2486e-06 0)
(0.000323674 -4.86179e-06 0)
(0.000347599 -5.95688e-06 0)
(0.000372989 -7.74955e-06 0)
(0.000401038 -1.06827e-05 0)
(0.000433715 -1.57439e-05 0)
(0.000474623 -2.54808e-05 0)
(0.000530227 -4.80126e-05 0)
(0.00059892 -0.000116928 0)
(1.68897e-05 -1.46761e-05 0)
(5.00601e-05 -1.39589e-05 0)
(8.1652e-05 -1.24294e-05 0)
(0.000111159 -1.06146e-05 0)
(0.000138471 -8.90176e-06 0)
(0.000163764 -7.50586e-06 0)
(0.000187374 -6.51903e-06 0)
(0.000209698 -5.97076e-06 0)
(0.000231148 -5.87426e-06 0)
(0.000252138 -6.25964e-06 0)
(0.000273099 -7.2027e-06 0)
(0.000294515 -8.86325e-06 0)
(0.000316987 -1.15562e-05 0)
(0.00034133 -1.59093e-05 0)
(0.000368714 -2.32583e-05 0)
(0.000400645 -3.67499e-05 0)
(0.000437171 -6.4695e-05 0)
(0.000462814 -0.000130183 0)
(1.37373e-05 -1.72956e-05 0)
(4.09524e-05 -1.66055e-05 0)
(6.73861e-05 -1.49268e-05 0)
(9.26255e-05 -1.28604e-05 0)
(0.00011649 -1.087e-05 0)
(0.00013901 -9.22844e-06 0)
(0.000160353 -8.06449e-06 0)
(0.000180763 -7.42946e-06 0)
(0.000200515 -7.35194e-06 0)
(0.000219904 -7.87851e-06 0)
(0.000239247 -9.10966e-06 0)
(0.000258895 -1.12458e-05 0)
(0.000279264 -1.46681e-05 0)
(0.00030085 -2.01058e-05 0)
(0.000324164 -2.90115e-05 0)
(0.00034924 -4.44318e-05 0)
(0.000373264 -7.2872e-05 0)
(0.000381958 -0.000126282 0)
(1.14431e-05 -1.89176e-05 0)
(3.43034e-05 -1.83414e-05 0)
(5.6918e-05 -1.66433e-05 0)
(7.8947e-05 -1.44621e-05 0)
(0.000100178 -1.23158e-05 0)
(0.000120549 -1.05247e-05 0)
(0.000140119 -9.25211e-06 0)
(0.00015902 -8.57248e-06 0)
(0.000177429 -8.53135e-06 0)
(0.000195548 -9.19134e-06 0)
(0.000213598 -1.06726e-05 0)
(0.00023182 -1.32021e-05 0)
(0.000250466 -1.71939e-05 0)
(0.000269761 -2.33998e-05 0)
(0.000289719 -3.31997e-05 0)
(0.000309519 -4.91221e-05 0)
(0.000325647 -7.54392e-05 0)
(0.000328045 -0.000116874 0)
(9.66956e-06 -1.97473e-05 0)
(2.91459e-05 -1.93467e-05 0)
(4.87526e-05 -1.77221e-05 0)
(6.82088e-05 -1.55278e-05 0)
(8.72919e-05 -1.33187e-05 0)
(0.000105885 -1.14538e-05 0)
(0.00012397 -1.01277e-05 0)
(0.000141598 -9.43761e-06 0)
(0.000158868 -9.446e-06 0)
(0.000175906 -1.02297e-05 0)
(0.000192851 -1.19223e-05 0)
(0.000209845 -1.47629e-05 0)
(0.000227004 -1.91663e-05 0)
(0.000244336 -2.58397e-05 0)
(0.000261529 -3.59633e-05 0)
(0.000277403 -5.13936e-05 0)
(0.000288801 -7.45194e-05 0)
(0.000289428 -0.000106314 0)
(8.24789e-06 -1.99126e-05 0)
(2.4997e-05 -1.97313e-05 0)
(4.21444e-05 -1.82479e-05 0)
(5.94581e-05 -1.61175e-05 0)
(7.672e-05 -1.39196e-05 0)
(9.37818e-05 -1.20435e-05 0)
(0.000110572 -1.07105e-05 0)
(0.000127082 -1.0039e-05 0)
(0.000143346 -1.01071e-05 0)
(0.000159425 -1.10028e-05 0)
(0.00017539 -1.28667e-05 0)
(0.000191298 -1.59352e-05 0)
(0.00020715 -2.05966e-05 0)
(0.000222805 -2.74657e-05 0)
(0.000237776 -3.74628e-05 0)
(0.000250856 -5.18027e-05 0)
(0.000259601 -7.15679e-05 0)
(0.000260345 -9.61544e-05 0)
(7.08117e-06 -1.9505e-05 0)
(2.15791e-05 -1.95721e-05 0)
(3.66657e-05 -1.82768e-05 0)
(5.21501e-05 -1.62684e-05 0)
(6.78283e-05 -1.4141e-05 0)
(8.35374e-05 -1.23062e-05 0)
(9.91705e-05 -1.10068e-05 0)
(0.000114672 -1.03793e-05 0)
(0.000130026 -1.0515e-05 0)
(0.000145238 -1.15096e-05 0)
(0.000160318 -1.35038e-05 0)
(0.000175253 -1.67189e-05 0)
(0.000189962 -2.14961e-05 0)
(0.000204207 -2.83317e-05 0)
(0.000217451 -3.78819e-05 0)
(0.000228636 -5.08444e-05 0)
(0.000236032 -6.75212e-05 0)
(0.00023761 -8.68516e-05 0)
(6.10813e-06 -1.85981e-05 0)
(1.87167e-05 -1.89289e-05 0)
(3.20462e-05 -1.78505e-05 0)
(4.5941e-05 -1.60056e-05 0)
(6.02186e-05 -1.39958e-05 0)
(7.47138e-05 -1.22463e-05 0)
(8.9297e-05 -1.10161e-05 0)
(0.000103877 -1.04551e-05 0)
(0.000118397 -1.06647e-05 0)
(0.000132814 -1.17445e-05 0)
(0.00014709 -1.38288e-05 0)
(0.000161157 -1.71145e-05 0)
(0.000174875 -2.18834e-05 0)
(0.000187965 -2.85077e-05 0)
(0.000199915 -3.74116e-05 0)
(0.000209878 -4.89253e-05 0)
(0.000216707 -6.29499e-05 0)
(0.000219323 -7.84509e-05 0)
(5.28701e-06 -1.72578e-05 0)
(1.629e-05 -1.7853e-05 0)
(2.8101e-05 -1.7003e-05 0)
(4.05967e-05 -1.53481e-05 0)
(5.36219e-05 -1.34918e-05 0)
(6.70174e-05 -1.18649e-05 0)
(8.064e-05 -1.07348e-05 0)
(9.43725e-05 -1.02605e-05 0)
(0.000108122 -1.05494e-05 0)
(0.00012181 -1.1701e-05 0)
(0.000135357 -1.38382e-05 0)
(0.000148654 -1.71275e-05 0)
(0.000161529 -2.17874e-05 0)
(0.000173697 -2.80757e-05 0)
(0.000184711 -3.62339e-05 0)
(0.000193937 -4.63587e-05 0)
(0.000200645 -5.8185e-05 0)
(0.000204284 -7.08631e-05 0)
(4.58727e-06 -1.55487e-05 0)
(1.42104e-05 -1.63922e-05 0)
(2.46936e-05 -1.57643e-05 0)
(3.59463e-05 -1.43123e-05 0)
(4.7844e-05 -1.26358e-05 0)
(6.02392e-05 -1.11619e-05 0)
(7.29811e-05 -1.01591e-05 0)
(8.59322e-05 -9.78953e-06 0)
(9.89724e-05 -1.01626e-05 0)
(0.000111993 -1.13741e-05 0)
(0.000124882 -1.3532e-05 0)
(0.000137506 -1.67699e-05 0)
(0.000149676 -2.12464e-05 0)
(0.000161128 -2.71231e-05 0)
(0.000171492 -3.4511e-05 0)
(0.000180313 -4.33746e-05 0)
(0.000187141 -5.34102e-05 0)
(0.000191705 -6.39697e-05 0)
(3.93625e-06 -1.36924e-05 0)
(1.22829e-05 -1.47391e-05 0)
(2.15551e-05 -1.43022e-05 0)
(3.16915e-05 -1.30425e-05 0)
(4.25887e-05 -1.15499e-05 0)
(5.41022e-05 -1.02406e-05 0)
(6.60716e-05 -9.3765e-06 0)
(7.83412e-05 -9.11849e-06 0)
(9.07689e-05 -9.57441e-06 0)
(0.000103224 -1.08342e-05 0)
(0.000115575 -1.29909e-05 0)
(0.000127673 -1.61486e-05 0)
(0.000139333 -2.0417e-05 0)
(0.000150317 -2.58877e-05 0)
(0.000160327 -3.25895e-05 0)
(0.000169032 -4.04238e-05 0)
(0.000176142 -4.91026e-05 0)
(0.000181512 -5.81364e-05 0)
(3.51041e-06 -1.1652e-05 0)
(1.09936e-05 -1.28479e-05 0)
(1.93961e-05 -1.25672e-05 0)
(2.86933e-05 -1.149e-05 0)
(3.88126e-05 -1.01893e-05 0)
(4.96236e-05 -9.05994e-06 0)
(6.09652e-05 -8.35078e-06 0)
(7.26722e-05 -8.21585e-06 0)
(8.45883e-05 -8.75844e-06 0)
(9.65666e-05 -1.00609e-05 0)
(0.000108462 -1.2201e-05 0)
(0.000120117 -1.52569e-05 0)
(0.000131352 -1.92988e-05 0)
(0.000141954 -2.43684e-05 0)
(0.000151684 -3.04449e-05 0)
(0.000160303 -3.74059e-05 0)
(0.000167624 -4.49991e-05 0)
(0.000173577 -5.28544e-05 0)
(3.08297e-06 -9.20724e-06 0)
(9.67976e-06 -1.04714e-05 0)
(1.71701e-05 -1.03058e-05 0)
(2.55916e-05 -9.41242e-06 0)
(3.49069e-05 -8.33115e-06 0)
(4.49958e-05 -7.41977e-06 0)
(5.56928e-05 -6.90214e-06 0)
(6.68212e-05 -6.91877e-06 0)
(7.82107e-05 -7.56404e-06 0)
(8.97006e-05 -8.90974e-06 0)
(0.000101135 -1.10169e-05 0)
(0.000112353 -1.39377e-05 0)
(0.000123185 -1.77078e-05 0)
(0.00013345 -2.23305e-05 0)
(0.000142964 -2.77553e-05 0)
(0.000151564 -3.38577e-05 0)
(0.000159136 -4.04325e-05 0)
(0.000165655 -4.72112e-05 0)
(2.63342e-06 -6.4035e-06 0)
(8.28312e-06 -7.5485e-06 0)
(1.4802e-05 -7.41443e-06 0)
(2.2325e-05 -6.6943e-06 0)
(3.08425e-05 -5.86082e-06 0)
(4.02286e-05 -5.20883e-06 0)
(5.03005e-05 -4.92254e-06 0)
(6.08641e-05 -5.12096e-06 0)
(7.17342e-05 -5.88505e-06 0)
(8.2739e-05 -7.27358e-06 0)
(9.37166e-05 -9.33086e-06 0)
(0.000104512 -1.20871e-05 0)
(0.000114973 -1.55525e-05 0)
(0.000124955 -1.97076e-05 0)
(0.000134327 -2.44912e-05 0)
(0.000142982 -2.9793e-05 0)
(0.000150857 -3.54552e-05 0)
(0.000157945 -4.12885e-05 0)
(2.06782e-06 -3.33809e-06 0)
(6.56596e-06 -4.01511e-06 0)
(1.20051e-05 -3.80035e-06 0)
(1.86369e-05 -3.24729e-06 0)
(2.64309e-05 -2.69567e-06 0)
(3.52085e-05 -2.34359e-06 0)
(4.47364e-05 -2.32129e-06 0)
(5.47857e-05 -2.72132e-06 0)
(6.51556e-05 -3.6104e-06 0)
(7.56756e-05 -5.03711e-06 0)
(8.62008e-05 -7.03615e-06 0)
(9.66047e-05 -9.62432e-06 0)
(0.000106772 -1.27979e-05 0)
(0.000116598 -1.6527e-05 0)
(0.00012599 -2.07509e-05 0)
(0.000134874 -2.53766e-05 0)
(0.000143204 -3.02843e-05 0)
(0.000150962 -3.53385e-05 0)
(1.04741e-06 1.02923e-08 0)
(3.6398e-06 2.47578e-07 0)
(7.56873e-06 5.76061e-07 0)
(1.31205e-05 9.04775e-07 0)
(2.00887e-05 1.13414e-06 0)
(2.81818e-05 1.16092e-06 0)
(3.71422e-05 8.94808e-07 0)
(4.67501e-05 2.65483e-07 0)
(5.6811e-05 -7.7786e-07 0)
(6.71715e-05 -2.31873e-06 0)
(7.77239e-05 -4.38217e-06 0)
(8.83435e-05 -6.9203e-06 0)
(9.88834e-05 -9.92195e-06 0)
(0.000109215 -1.33529e-05 0)
(0.000119232 -1.71562e-05 0)
(0.000128848 -2.12549e-05 0)
(0.000138006 -2.55569e-05 0)
(0.000146673 -2.99638e-05 0)
(2.46367e-06 3.99408e-06 0)
(7.543e-06 5.40632e-06 0)
(1.3117e-05 6.03211e-06 0)
(1.94764e-05 6.20648e-06 0)
(2.67373e-05 6.08861e-06 0)
(3.48718e-05 5.70521e-06 0)
(4.37626e-05 5.03448e-06 0)
(5.32541e-05 4.04687e-06 0)
(6.3183e-05 2.71894e-06 0)
(7.33737e-05 9.87759e-07 0)
(8.36363e-05 -1.15161e-06 0)
(9.38813e-05 -3.7843e-06 0)
(0.000104087 -6.80035e-06 0)
(0.000114169 -1.00955e-05 0)
(0.000124025 -1.36221e-05 0)
(0.000133575 -1.73212e-05 0)
(0.000142759 -2.11269e-05 0)
(0.000151541 -2.4972e-05 0)
(3.44188e-06 9.47355e-06 0)
(1.05593e-05 1.16532e-05 0)
(1.8152e-05 1.26316e-05 0)
(2.62545e-05 1.27596e-05 0)
(3.49048e-05 1.23122e-05 0)
(4.40987e-05 1.14522e-05 0)
(5.37822e-05 1.02632e-05 0)
(6.38641e-05 8.78583e-06 0)
(7.42336e-05 7.04041e-06 0)
(8.4774e-05 5.04004e-06 0)
(9.53722e-05 2.80006e-06 0)
(0.000105873 1.91368e-07 0)
(0.00011612 -2.68933e-06 0)
(0.000126092 -5.87673e-06 0)
(0.000135795 -9.16126e-06 0)
(0.000145177 -1.25043e-05 0)
(0.0001542 -1.58646e-05 0)
(0.000162847 -1.92014e-05 0)
(3.92771e-06 1.55483e-05 0)
(1.21252e-05 1.77173e-05 0)
(2.09544e-05 1.86582e-05 0)
(3.03328e-05 1.86049e-05 0)
(4.02032e-05 1.78298e-05 0)
(5.05035e-05 1.65478e-05 0)
(6.11549e-05 1.49057e-05 0)
(7.2063e-05 1.2997e-05 0)
(8.31256e-05 1.08802e-05 0)
(9.42404e-05 8.59354e-06 0)
(0.000105311 6.1648e-06 0)
(0.000116249 3.61689e-06 0)
(0.000126977 9.54874e-07 0)
(0.000137351 -1.95739e-06 0)
(0.000147334 -5.02466e-06 0)
(0.000156978 -8.07079e-06 0)
(0.000166254 -1.10724e-05 0)
(0.000175145 -1.40067e-05 0)
(4.68174e-06 2.07658e-05 0)
(1.43742e-05 2.25144e-05 0)
(2.46744e-05 2.31045e-05 0)
(3.54821e-05 2.27055e-05 0)
(4.67008e-05 2.15695e-05 0)
(5.8236e-05 1.99219e-05 0)
(6.99899e-05 1.79316e-05 0)
(8.18626e-05 1.57146e-05 0)
(9.37551e-05 1.33469e-05 0)
(0.000105574 1.08775e-05 0)
(0.000117235 8.33977e-06 0)
(0.000128665 5.7582e-06 0)
(0.000139803 3.15334e-06 0)
(0.000150593 5.1813e-07 0)
(0.000160938 -2.29383e-06 0)
(0.00017082 -5.12564e-06 0)
(0.000180289 -7.87192e-06 0)
(0.000189339 -1.05205e-05 0)
(5.60648e-06 2.49833e-05 0)
(1.70966e-05 2.62338e-05 0)
(2.91019e-05 2.63804e-05 0)
(4.15263e-05 2.55819e-05 0)
(5.42537e-05 2.40817e-05 0)
(6.71676e-05 2.2107e-05 0)
(8.01559e-05 1.98348e-05 0)
(9.31133e-05 1.73894e-05 0)
(0.000105944 1.48532e-05 0)
(0.000118562 1.22783e-05 0)
(0.000130896 9.69819e-06 0)
(0.000142886 7.1347e-06 0)
(0.000154485 4.60385e-06 0)
(0.000165657 2.11855e-06 0)
(0.000176351 -3.69787e-07 0)
(0.000186532 -2.96457e-06 0)
(0.000196223 -5.47033e-06 0)
(0.000205444 -7.85915e-06 0)
(6.72781e-06 2.79376e-05 0)
(2.03851e-05 2.8712e-05 0)
(3.44123e-05 2.84187e-05 0)
(4.87144e-05 2.72368e-05 0)
(6.3164e-05 2.54127e-05 0)
(7.76319e-05 2.31741e-05 0)
(9.19988e-05 2.06985e-05 0)
(0.00010616 1.81105e-05 0)
(0.000120025 1.54909e-05 0)
(0.000133522 1.28897e-05 0)
(0.000146592 1.03363e-05 0)
(0.000159191 7.84781e-06 0)
(0.000171287 5.4346e-06 0)
(0.000182862 3.10358e-06 0)
(0.000193906 8.59912e-07 0)
(0.000204371 -1.43398e-06 0)
(0.000214263 -3.69863e-06 0)
(0.000223639 -5.83613e-06 0)
(8.08201e-06 2.95096e-05 0)
(2.43515e-05 2.98683e-05 0)
(4.07938e-05 2.91927e-05 0)
(5.73043e-05 2.76924e-05 0)
(7.3746e-05 2.56215e-05 0)
(8.99843e-05 2.32067e-05 0)
(0.000105901 2.0621e-05 0)
(0.0001214 1.79835e-05 0)
(0.000136406 1.53692e-05 0)
(0.000150861 1.28216e-05 0)
(0.000164729 1.03642e-05 0)
(0.000177983 8.00791e-06 0)
(0.000190611 5.75733e-06 0)
(0.000202611 3.61361e-06 0)
(0.000213989 1.57651e-06 0)
(0.000224731 -3.94581e-07 0)
(0.000234851 -2.41135e-06 0)
(0.000244389 -4.29942e-06 0)
(9.72463e-06 2.96552e-05 0)
(2.91585e-05 2.96748e-05 0)
(4.85078e-05 2.87055e-05 0)
(6.76439e-05 2.69844e-05 0)
(8.64197e-05 2.4771e-05 0)
(0.000104702 2.22872e-05 0)
(0.000122384 1.96973e-05 0)
(0.000139389 1.71103e-05 0)
(0.000155663 1.4592e-05 0)
(0.000171177 1.2178e-05 0)
(0.000185918 9.88441e-06 0)
(0.000199884 7.71603e-06 0)
(0.000213086 5.6719e-06 0)
(0.000225543 3.74836e-06 0)
(0.000237276 1.94088e-06 0)
(0.000248316 2.45039e-07 0)
(0.00025866 -1.49079e-06 0)
(0.000268337 -3.12911e-06 0)
(1.17453e-05 2.83578e-05 0)
(3.50665e-05 2.81231e-05 0)
(5.7967e-05 2.69683e-05 0)
(8.0278e-05 2.51469e-05 0)
(0.000101841 2.29157e-05 0)
(0.000122533 2.04855e-05 0)
(0.00014227 1.80066e-05 0)
(0.000161008 1.55752e-05 0)
(0.00017873 1.32457e-05 0)
(0.000195442 1.10447e-05 0)
(0.000211164 8.98118e-06 0)
(0.000225928 7.05437e-06 0)
(0.000239771 5.2588e-06 0)
(0.000252735 3.58711e-06 0)
(0.000264866 2.03165e-06 0)
(0.000276208 5.85159e-07 0)
(0.000286782 -8.46954e-07 0)
(0.00029663 -2.23353e-06 0)
(1.43021e-05 2.55858e-05 0)
(4.25355e-05 2.51882e-05 0)
(6.99009e-05 2.39718e-05 0)
(9.61699e-05 2.21891e-05 0)
(0.000121172 2.00822e-05 0)
(0.000144804 1.78417e-05 0)
(0.000167025 1.55988e-05 0)
(0.000187839 1.34336e-05 0)
(0.000207282 1.13882e-05 0)
(0.000225411 9.48043e-06 0)
(0.000242291 7.71296e-06 0)
(0.000257995 6.08078e-06 0)
(0.000272594 4.57533e-06 0)
(0.000286161 3.18703e-06 0)
(0.000298766 1.90656e-06 0)
(0.000310475 7.25336e-07 0)
(0.000321332 -4.10897e-07 0)
(0.000331395 -1.54255e-06 0)
(1.77176e-05 2.12336e-05 0)
(5.25043e-05 2.07734e-05 0)
(8.58022e-05 1.96373e-05 0)
(0.000117295 1.80545e-05 0)
(0.0001468 1.62348e-05 0)
(0.000174253 1.43381e-05 0)
(0.000199678 1.24699e-05 0)
(0.000223157 1.06917e-05 0)
(0.000244802 9.03327e-06 0)
(0.000264741 7.50423e-06 0)
(0.000283103 6.10286e-06 0)
(0.000300015 4.82164e-06 0)
(0.000315595 3.65083e-06 0)
(0.000329954 2.58039e-06 0)
(0.000343194 1.6009e-06 0)
(0.000355408 7.03917e-07 0)
(0.000366668 -1.35348e-07 0)
(0.000377052 -1.00636e-06 0)
(2.28332e-05 1.49846e-05 0)
(6.74289e-05 1.45804e-05 0)
(0.000109586 1.36993e-05 0)
(0.000148853 1.25164e-05 0)
(0.000185034 1.11864e-05 0)
(0.000218134 9.82331e-06 0)
(0.00024829 8.49982e-06 0)
(0.000275706 7.25584e-06 0)
(0.000300618 6.10883e-06 0)
(0.000323263 5.06243e-06 0)
(0.000343866 4.1127e-06 0)
(0.000362634 3.25225e-06 0)
(0.000379754 2.47253e-06 0)
(0.000395391 1.76517e-06 0)
(0.000409692 1.12254e-06 0)
(0.000422789 5.37925e-07 0)
(0.000434797 3.05686e-09 0)
(0.000445823 -5.97319e-07 0)
(3.39412e-05 5.67509e-06 0)
(9.989e-05 5.50353e-06 0)
(0.000161461 5.15156e-06 0)
(0.000217931 4.68868e-06 0)
(0.000269094 4.17509e-06 0)
(0.000315113 3.65419e-06 0)
(0.000356361 3.15295e-06 0)
(0.000393302 2.68565e-06 0)
(0.00042642 2.25798e-06 0)
(0.000456175 1.87051e-06 0)
(0.00048298 1.52112e-06 0)
(0.000507202 1.20646e-06 0)
(0.000529155 9.22925e-07 0)
(0.000549113 6.67038e-07 0)
(0.00056731 4.35682e-07 0)
(0.000583948 2.26156e-07 0)
(0.000599201 3.62748e-08 0)
(0.000613117 -1.94348e-07 0)
(0.000208268 -0.000445164 -5.75115e-30)
(0.000626047 -0.000443582 5.72578e-30)
(0.00104513 -0.000440682 0)
(0.00146431 -0.000436584 0)
(0.00188245 -0.000431391 0)
(0.00229849 -0.000425164 -5.46798e-30)
(0.00271132 -0.000417868 0)
(0.00311976 -0.000409411 0)
(0.00352256 -0.000399762 0)
(0.00391844 -0.000389039 0)
(0.00430631 -0.000377484 4.82804e-30)
(0.00468529 -0.000365348 0)
(0.00505468 -0.000352773 0)
(0.00541385 -0.000339768 0)
(0.00576213 -0.000326272 0)
(0.00609876 -0.000312234 3.96353e-30)
(0.00642297 -0.000297665 0)
(0.00673399 -0.000282628 0)
(0.00703111 -0.000267204 0)
(0.00731372 -0.00025147 0)
(0.00758124 -0.000235501 0)
(0.0078332 -0.000219379 0)
(0.00806922 -0.000203211 0)
(0.00828903 -0.000187124 2.32068e-30)
(0.00849251 -0.000171265 -2.11329e-30)
(0.00867975 -0.000155782 1.91097e-30)
(0.00885096 -0.000140821 1.71559e-30)
(0.00900655 -0.000126514 0)
(0.0091471 -0.000112968 0)
(0.00927328 -0.000100266 -1.18644e-30)
(0.00938588 -8.84651e-05 -1.03259e-30)
(0.00948579 -7.75939e-05 0)
(0.0095739 -6.76586e-05 0)
(0.00965116 -5.86447e-05 -6.44036e-31)
(0.00971849 -5.05212e-05 0)
(0.0097768 -4.32447e-05 0)
(0.00982698 -3.67631e-05 3.59148e-31)
(0.00986984 -3.1019e-05 0)
(0.00990616 -2.59522e-05 2.18485e-31)
(0.00993667 -2.15026e-05 3.21231e-31)
(0.00996203 -1.76109e-05 0)
(0.00998284 -1.42207e-05 0)
(0.00999965 -1.12788e-05 0)
(0.0100129 -8.73588e-06 0)
(0.0100232 -6.54658e-06 0)
(0.0100308 -4.66968e-06 -1.16112e-31)
(0.010036 -3.06794e-06 -1.57638e-31)
(0.0100393 -1.70793e-06 -1.92871e-31)
(0.0100409 -5.59751e-07 0)
(0.010041 4.0321e-07 2.47482e-31)
(0.0100399 1.20458e-06 0)
(0.0100377 1.86526e-06 -2.85197e-31)
(0.0100346 2.40377e-06 -2.99048e-31)
(0.0100308 2.83639e-06 0)
(0.0100264 3.17751e-06 0)
(0.0100216 3.43976e-06 0)
(0.0100163 3.63427e-06 -3.3042e-31)
(0.0100108 3.7708e-06 0)
(0.010005 3.8579e-06 0)
(0.00999913 3.90306e-06 0)
(0.00999314 3.91285e-06 0)
(0.0099871 3.89301e-06 0)
(0.00998106 3.84851e-06 0)
(0.00997506 3.78372e-06 0)
(0.00996912 3.70242e-06 0)
(0.00996327 3.60788e-06 3.28487e-31)
(0.00995753 3.50294e-06 0)
(0.00995192 3.39003e-06 0)
(0.00994646 3.27127e-06 -3.19387e-31)
(0.00994114 3.14845e-06 -3.16091e-31)
(0.00993599 3.0231e-06 0)
(0.00993101 2.89652e-06 3.09336e-31)
(0.0099262 2.76981e-06 -3.05949e-31)
(0.00992156 2.64388e-06 0)
(0.0099171 2.51949e-06 2.99264e-31)
(0.00991282 2.39728e-06 0)
(0.00990871 2.27775e-06 0)
(0.00990478 2.16131e-06 -2.89712e-31)
(0.00990101 2.04827e-06 0)
(0.00989742 1.93888e-06 2.83789e-31)
(0.00989399 1.83332e-06 0)
(0.00989072 1.73171e-06 -2.78278e-31)
(0.00988761 1.63411e-06 -2.7568e-31)
(0.00988465 1.54057e-06 -2.73192e-31)
(0.00988183 1.45108e-06 -5.41623e-31)
(0.00987916 1.36563e-06 5.37083e-31)
(0.00987662 1.28414e-06 0)
(0.00987422 1.20656e-06 0)
(0.00987194 1.1328e-06 0)
(0.00986978 1.06275e-06 5.20978e-31)
(0.00986774 9.96318e-07 5.17449e-31)
(0.00986581 9.3338e-07 -5.14103e-31)
(0.00986399 8.73815e-07 0)
(0.00986227 8.17501e-07 5.07943e-31)
(0.00986065 7.64309e-07 5.05121e-31)
(0.00985912 7.14113e-07 5.02454e-31)
(0.00985768 6.66785e-07 0)
(0.00985632 6.22199e-07 0)
(0.00985504 5.80229e-07 0)
(0.00985384 5.40753e-07 4.93242e-31)
(0.00985271 5.03651e-07 0)
(0.00985165 4.68806e-07 0)
(0.00985066 4.36105e-07 -4.87677e-31)
(0.00984972 4.05436e-07 0)
(0.00984885 3.76695e-07 0)
(0.00984803 3.49777e-07 -4.83093e-31)
(0.00984726 3.24585e-07 0)
(0.00984654 3.01024e-07 0)
(0.00984587 2.79003e-07 4.79331e-31)
(0.00984524 2.58434e-07 4.78238e-31)
(0.00984465 2.39235e-07 0)
(0.0098441 2.21326e-07 -4.76269e-31)
(0.00984359 2.04631e-07 0)
(0.00984311 1.89079e-07 4.74553e-31)
(0.00984267 1.74601e-07 0)
(0.00984226 1.61131e-07 4.73069e-31)
(0.00984187 1.48607e-07 4.72399e-31)
(0.00984151 1.36972e-07 0)
(0.00984118 1.26169e-07 0)
(0.00984087 1.16146e-07 0)
(0.00984058 1.06853e-07 0)
(0.00984031 9.82441e-08 0)
(0.00984007 9.0274e-08 0)
(0.00983984 8.29017e-08 0)
(0.00983962 7.6088e-08 4.68549e-31)
(0.00983943 6.97963e-08 -4.6821e-31)
(0.00983925 6.39922e-08 0)
(0.00983908 5.8644e-08 0)
(0.00983892 5.37216e-08 0)
(0.00983878 4.91976e-08 0)
(0.00983864 4.50466e-08 -9.33788e-31)
(0.00983852 4.12452e-08 0)
(0.00983841 3.77726e-08 9.33015e-31)
(0.0098383 3.46098e-08 -9.32679e-31)
(0.00983821 3.17402e-08 0)
(0.00983812 2.915e-08 0)
(0.00983803 2.68275e-08 0)
(0.00983796 2.47642e-08 9.31632e-31)
(0.00983788 2.29547e-08 9.31438e-31)
(0.00983782 2.13971e-08 0)
(0.00983775 2.00939e-08 9.31126e-31)
(0.00983769 1.90521e-08 9.31009e-31)
(0.00983763 1.82847e-08 -9.30929e-31)
(0.00983757 1.78118e-08 0)
(0.00983752 1.76615e-08 0)
(0.00983746 1.78724e-08 -9.3087e-31)
(0.0098374 1.84956e-08 0)
(0.00983734 1.95981e-08 0)
(0.00983727 2.12663e-08 0)
(0.00983719 2.3611e-08 0)
(0.00983711 2.67736e-08 9.31756e-31)
(0.00983701 3.09345e-08 9.32177e-31)
(0.00983689 3.63226e-08 0)
(0.00983676 4.32292e-08 9.33425e-31)
(0.00983659 5.20245e-08 0)
(0.00983638 6.31794e-08 0)
(0.00983613 7.72944e-08 9.36888e-31)
(0.00983582 9.51356e-08 0)
(0.00983543 1.17684e-07 9.41e-31)
(0.00983494 1.46197e-07 0)
(0.00983433 1.82295e-07 0)
(0.00983356 2.28073e-07 9.52235e-31)
(0.00983259 2.86248e-07 0)
(0.00983135 3.6037e-07 9.65704e-31)
(0.00982977 4.55104e-07 0)
(0.00982776 5.76627e-07 0)
(0.00982518 7.33204e-07 0)
(0.00982185 9.36014e-07 -1.02433e-30)
(0.00981756 1.20041e-06 0)
(0.00981199 1.54787e-06 1.08666e-30)
(0.00980471 2.0091e-06 0)
(0.00979512 2.62934e-06 0)
(0.00978237 3.47771e-06 0)
(0.0097652 4.66497e-06 0)
(0.00974169 6.38007e-06 0)
(0.00970869 8.97384e-06 0)
(0.00966061 1.31791e-05 0)
(0.0095861 2.08136e-05 -6.11472e-30)
(0.00945655 3.77051e-05 0)
(0.00916943 9.06703e-05 0)
(0.000211222 -0.00134181 1.7335e-29)
(0.000634714 -0.00133659 -1.72526e-29)
(0.00105901 -0.00132723 0)
(0.00148286 -0.00131437 3.39056e-29)
(0.00190526 -0.00129842 0)
(0.00232542 -0.00127979 -1.65134e-29)
(0.00274257 -0.00125818 -3.23935e-29)
(0.00315551 -0.00123283 -3.17189e-29)
(0.00356256 -0.00120331 0)
(0.00396192 -0.00117009 -3.00591e-29)
(0.00435223 -0.00113439 1.46103e-29)
(0.00473284 -0.00109739 0)
(0.00510354 -0.0010596 0)
(0.0054641 -0.00102079 0)
(0.00581396 -0.00098044 0)
(0.00615221 -0.000938248 1.20539e-29)
(0.00647787 -0.000894288 0)
(0.00679006 -0.000848866 2.1622e-29)
(0.00708803 -0.000802308 0)
(0.00737119 -0.000754843 0)
(0.00763898 -0.000706647 -1.79057e-29)
(0.00789085 -0.000657938 0)
(0.00812636 -0.00060903 1.53593e-29)
(0.00834518 -0.000560331 7.14359e-30)
(0.00854717 -0.000512311 -6.52057e-30)
(0.00873242 -0.000465457 5.91281e-30)
(0.0089012 -0.000420231 5.32629e-30)
(0.00905399 -0.000377042 0)
(0.00919144 -0.000336221 0)
(0.00931434 -0.000298019 -3.74185e-30)
(0.00942357 -0.000262595 -9.62568e-30)
(0.0095201 -0.000230029 0)
(0.00960489 -0.000200324 0)
(0.00967896 -0.000173424 -2.1272e-30)
(0.00974327 -0.000149223 0)
(0.00979876 -0.00012758 0)
(0.00984633 -0.000108329 1.28388e-30)
(0.00988681 -9.1289e-05 0)
(0.00992098 -7.62757e-05 2.37195e-30)
(0.00994956 -6.31038e-05 1.39629e-30)
(0.00997319 -5.15936e-05 0)
(0.00999246 -4.15741e-05 0)
(0.0100079 -3.28854e-05 -7.55016e-31)
(0.01002 -2.53796e-05 -3.65829e-31)
(0.0100292 -1.89212e-05 -3.10763e-32)
(0.0100359 -1.33874e-05 -1.46534e-31)
(0.0100404 -8.6675e-06 -1.29946e-32)
(0.010043 -4.6622e-06 5.90809e-31)
(0.0100439 -1.28293e-06 -8.8219e-31)
(0.0100435 1.54913e-06 2.77163e-31)
(0.0100419 3.90387e-06 0)
(0.0100394 5.84315e-06 -3.88063e-31)
(0.010036 7.42163e-06 -1.76025e-30)
(0.0100319 8.68752e-06 0)
(0.0100273 9.68327e-06 0)
(0.0100222 1.04463e-05 0)
(0.0100168 1.10093e-05 -5.21071e-31)
(0.0100111 1.14013e-05 0)
(0.0100052 1.16476e-05 -1.54703e-30)
(0.00999921 1.17701e-05 0)
(0.00999313 1.17885e-05 -1.55317e-30)
(0.00998703 1.17195e-05 0)
(0.00998093 1.15781e-05 1.54114e-30)
(0.00997488 1.13769e-05 0)
(0.00996891 1.11272e-05 -1.5167e-30)
(0.00996303 1.08388e-05 2.01662e-30)
(0.00995727 1.05199e-05 0)
(0.00995165 1.01778e-05 1.46598e-30)
(0.00994617 9.81869e-06 -4.88627e-31)
(0.00994085 9.44789e-06 -4.78921e-31)
(0.0099357 9.06993e-06 0)
(0.00993071 8.68865e-06 1.84607e-30)
(0.00992591 8.30726e-06 -4.49082e-31)
(0.00992127 7.92849e-06 0)
(0.00991682 7.55458e-06 4.29412e-31)
(0.00991255 7.18737e-06 1.30769e-30)
(0.00990845 6.82836e-06 0)
(0.00990452 6.47874e-06 -4.01308e-31)
(0.00990077 6.13944e-06 0)
(0.00989719 5.81118e-06 -8.51214e-31)
(0.00989377 5.49447e-06 0)
(0.00989051 5.18966e-06 8.34672e-31)
(0.00988741 4.89696e-06 -3.60018e-31)
(0.00988445 4.61646e-06 -1.52482e-30)
(0.00988165 4.34815e-06 -3.00736e-30)
(0.00987899 4.09195e-06 2.96701e-30)
(0.00987646 3.84768e-06 0)
(0.00987406 3.61514e-06 0)
(0.00987179 3.39405e-06 0)
(0.00986965 3.18413e-06 -1.56271e-30)
(0.00986761 2.98504e-06 6.20257e-31)
(0.00986569 2.79643e-06 -6.10414e-31)
(0.00986388 2.61794e-06 0)
(0.00986216 2.4492e-06 2.70824e-30)
(0.00986055 2.28982e-06 5.83984e-31)
(0.00985903 2.13942e-06 5.76136e-31)
(0.00985759 1.99762e-06 0)
(0.00985624 1.86403e-06 0)
(0.00985497 1.73829e-06 0)
(0.00985377 1.62002e-06 5.49036e-31)
(0.00985265 1.50886e-06 0)
(0.00985159 1.40447e-06 2.00592e-30)
(0.0098506 1.3065e-06 1.46294e-30)
(0.00984967 1.21462e-06 -1.98594e-30)
(0.0098488 1.12851e-06 0)
(0.00984798 1.04787e-06 -2.48756e-30)
(0.00984722 9.72404e-07 0)
(0.0098465 9.01819e-07 -1.953e-30)
(0.00984583 8.35848e-07 2.45416e-30)
(0.0098452 7.74228e-07 2.44446e-30)
(0.00984462 7.16712e-07 0)
(0.00984407 6.63061e-07 1.42874e-30)
(0.00984356 6.13047e-07 -1.92258e-30)
(0.00984309 5.66456e-07 4.94061e-31)
(0.00984265 5.23082e-07 0)
(0.00984223 4.82728e-07 4.89695e-31)
(0.00984185 4.45211e-07 -1.41718e-30)
(0.00984149 4.10353e-07 0)
(0.00984116 3.7799e-07 -1.89782e-30)
(0.00984085 3.47963e-07 -1.89466e-30)
(0.00984057 3.20124e-07 -1.89173e-30)
(0.0098403 2.94332e-07 0)
(0.00984005 2.70455e-07 0)
(0.00983983 2.48368e-07 0)
(0.00983961 2.27955e-07 2.35842e-30)
(0.00983942 2.09105e-07 -4.75411e-31)
(0.00983924 1.91717e-07 0)
(0.00983907 1.75694e-07 1.87651e-30)
(0.00983891 1.60946e-07 1.87496e-30)
(0.00983877 1.47392e-07 0)
(0.00983864 1.34955e-07 -9.43084e-31)
(0.00983852 1.23566e-07 3.74204e-30)
(0.0098384 1.13161e-07 9.4081e-31)
(0.0098383 1.03684e-07 -4.67766e-30)
(0.0098382 9.50849e-08 0)
(0.00983811 8.73225e-08 0)
(0.00983803 8.03619e-08 0)
(0.00983795 7.41771e-08 9.36741e-31)
(0.00983788 6.8752e-08 4.66663e-30)
(0.00983781 6.40809e-08 3.72946e-30)
(0.00983775 6.01706e-08 9.3527e-31)
(0.00983769 5.70425e-08 4.6629e-30)
(0.00983763 5.47352e-08 -9.34698e-31)
(0.00983757 5.33079e-08 0)
(0.00983752 5.28451e-08 0)
(0.00983746 5.34616e-08 -4.66169e-30)
(0.0098374 5.53101e-08 0)
(0.00983734 5.85904e-08 0)
(0.00983727 6.356e-08 3.72915e-30)
(0.0098372 7.05499e-08 0)
(0.00983711 7.99823e-08 4.66974e-30)
(0.00983702 9.23952e-08 9.38533e-31)
(0.0098369 1.08472e-07 0)
(0.00983676 1.29083e-07 4.68482e-30)
(0.0098366 1.55332e-07 0)
(0.0098364 1.88626e-07 0)
(0.00983615 2.30756e-07 9.52758e-31)
(0.00983584 2.84009e-07 3.7742e-30)
(0.00983546 3.51312e-07 9.6516e-31)
(0.00983498 4.3642e-07 0)
(0.00983438 5.44168e-07 0)
(0.00983362 6.808e-07 4.85447e-30)
(0.00983266 8.54428e-07 0)
(0.00983144 1.07564e-06 4.97592e-30)
(0.00982988 1.35833e-06 0)
(0.0098279 1.72091e-06 0)
(0.00982536 2.188e-06 0)
(0.00982209 2.79286e-06 -1.21634e-30)
(0.00981787 3.58113e-06 0)
(0.00981239 4.61658e-06 1.404e-30)
(0.00980524 5.99022e-06 0)
(0.00979583 7.8358e-06 0)
(0.00978334 1.0357e-05 5.83741e-30)
(0.00976658 1.38784e-05 -6.55929e-30)
(0.00974372 1.89498e-05 0)
(0.00971186 2.65785e-05 0)
(0.00966606 3.88205e-05 0)
(0.00959726 6.0541e-05 1.79576e-29)
(0.00948793 0.00010585 0)
(0.00931545 0.000227909 -1.01299e-28)
(0.000218109 -0.0022595 1.16787e-28)
(0.000654413 -0.00224802 -1.5571e-32)
(0.00108934 -0.00222888 0)
(0.0015219 -0.00220515 3.60494e-32)
(0.00195151 -0.00217637 0)
(0.00237859 -0.00214637 0)
(0.00280443 -0.00211324 -1.08921e-28)
(0.00322808 -0.00207247 -5.34195e-29)
(0.00364578 -0.00202081 5.19783e-29)
(0.00405298 -0.00196 -5.04734e-29)
(0.00444727 -0.0018954 0)
(0.00482924 -0.00183149 0)
(0.00520101 -0.00176926 -4.53658e-29)
(0.00556394 -0.00170647 -8.74342e-29)
(0.00591747 -0.00164028 8.39617e-29)
(0.00625972 -0.00156954 0)
(0.00658874 -0.00149498 7.63551e-29)
(0.0069033 -0.00141796 3.63274e-29)
(0.00720288 -0.00133942 0)
(0.00748715 -0.00125958 6.40581e-29)
(0.00775559 -0.00117841 -3.0095e-29)
(0.00800749 -0.00109608 -5.55317e-29)
(0.00824214 -0.00101314 2.57999e-29)
(0.00845904 -0.000930404 0)
(0.00865799 -0.000848801 4.26554e-29)
(0.00883909 -0.00076928 3.85186e-29)
(0.00900275 -0.000692707 0)
(0.00914963 -0.000619816 3.07475e-29)
(0.00928061 -0.000551183 0)
(0.00939667 -0.000487211 2.3857e-29)
(0.00949892 -0.00042814 -1.06186e-29)
(0.00958848 -0.000374058 0)
(0.00966649 -0.000324927 0)
(0.00973407 -0.000280603 0)
(0.00979227 -0.000240864 0)
(0.00984208 -0.000205438 0)
(0.00988444 -0.000174015 0)
(0.00992017 -0.000146272 6.15681e-30)
(0.00995006 -0.000121882 -2.2109e-30)
(0.00997481 -0.000100524 0)
(0.00999502 -8.18925e-05 0)
(0.0100113 -6.56977e-05 0)
(0.0100241 -5.16722e-05 -2.97615e-30)
(0.0100338 -3.95704e-05 -1.09817e-30)
(0.010041 -2.9169e-05 -4.74125e-31)
(0.0100459 -2.02663e-05 4.74351e-31)
(0.0100488 -1.26813e-05 7.67856e-31)
(0.01005 -6.25218e-06 6.25867e-31)
(0.0100498 -8.35053e-07 -2.28634e-30)
(0.0100484 3.69797e-06 -1.61459e-30)
(0.0100459 7.46011e-06 0)
(0.0100426 1.05515e-05 -1.96809e-30)
(0.0100386 1.30605e-05 -3.72046e-30)
(0.010034 1.50652e-05 0)
(0.0100289 1.6634e-05 0)
(0.0100234 1.78275e-05 2.34152e-30)
(0.0100176 1.86986e-05 0)
(0.0100117 1.92942e-05 0)
(0.0100055 1.9655e-05 -6.82798e-30)
(0.00999934 1.98168e-05 -4.88192e-30)
(0.0099931 1.98111e-05 -1.96793e-30)
(0.00998685 1.96653e-05 0)
(0.00998065 1.94031e-05 1.94566e-30)
(0.00997451 1.90456e-05 0)
(0.00996847 1.86106e-05 -6.65199e-30)
(0.00996254 1.81139e-05 1.8773e-30)
(0.00995674 1.75691e-05 4.63745e-30)
(0.00995108 1.69877e-05 6.39372e-30)
(0.00994559 1.638e-05 0)
(0.00994026 1.57543e-05 -4.44514e-30)
(0.0099351 1.51181e-05 0)
(0.00993012 1.44776e-05 -2.624e-30)
(0.00992532 1.38379e-05 -4.24275e-30)
(0.0099207 1.32034e-05 -4.17583e-30)