/*--------------------------------*- C++ -*----------------------------------*\
  =========                 |
  \\      /  F ield         | OpenFOAM: The Open Source CFD Toolbox
   \\    /   O peration     | Website:  https://openfoam.org
    \\  /    A nd           | Version:  10
     \\/     M anipulation  |
\*---------------------------------------------------------------------------*/
FoamFile
{
    format      ascii;
    class       volScalarField;
    location    "0.099";
    object      p;
}
// * * * * * * * * * * * * * * * * * * * * * * * * * * * * * * * * * * * * * //

dimensions      [0 2 -2 0 0 0 0];

internalField   nonuniform List<scalar> 
4000
(
13.7798
13.7792
13.7778
13.7756
13.7726
13.7689
13.7645
13.7593
13.7533
13.7466
13.7392
13.731
13.722
13.7122
13.7016
13.6902
13.678
13.6649
13.651
13.6361
13.6204
13.6037
13.5861
13.5675
13.5479
13.5272
13.5055
13.4826
13.4585
13.4332
13.4067
13.3788
13.3495
13.3188
13.2866
13.2528
13.2173
13.1801
13.1412
13.1003
13.0575
13.0126
12.9655
12.9162
12.8645
12.8104
12.7536
12.6942
12.6318
12.5666
12.4982
12.4265
12.3515
12.273
12.1908
12.1047
12.0147
11.9205
11.822
11.719
11.6114
11.499
11.3816
11.2592
11.1315
10.9985
10.8599
10.7158
10.566
10.4104
10.249
10.0819
9.90887
9.73016
9.54578
9.3559
9.16066
8.96031
8.75509
8.54536
8.33143
8.11375
7.89273
7.66891
7.44274
7.21483
6.9857
6.75597
6.52619
6.29698
6.06888
5.8425
5.61832
5.39692
5.17872
4.96424
4.7538
4.54787
4.34668
4.15061
3.95981
3.77457
3.59498
3.42124
3.25335
3.09145
2.93549
2.78553
2.64146
2.5033
2.37088
2.2442
2.12304
2.00736
1.89693
1.7917
1.6914
1.59598
1.50516
1.41888
1.33685
1.25903
1.18511
1.11507
1.0486
0.985674
0.925988
0.869551
0.81604
0.765494
0.717581
0.67237
0.629522
0.589135
0.550862
0.51483
0.480683
0.448578
0.418145
0.389578
0.362486
0.337101
0.313011
0.290485
0.269089
0.249131
0.230149
0.212495
0.195674
0.180084
0.165195
0.151452
0.13829
0.126202
0.114583
0.10398
0.0937433
0.0844764
0.0754801
0.0674198
0.0595406
0.0525739
0.0457016
0.0397272
0.033763
0.0286899
0.0235419
0.0192859
0.01487
0.0113536
0.00759018
0.00474099
0.00155718
-0.000690526
-0.00336222
-0.00506823
-0.00728687
-0.00850244
-0.0103201
-0.0110895
-0.0125484
-0.0129061
-0.01404
-0.014015
-0.014847
-0.0144564
-0.0150017
-0.014266
-0.014551
-0.0135116
-0.0135807
-0.0122932
-0.0121861
-0.0106788
-0.0103254
-0.00849275
-0.00784725
-0.00581455
-0.00481946
0.00144441
13.7828
13.7822
13.7808
13.7785
13.7756
13.7719
13.7675
13.7623
13.7564
13.7497
13.7423
13.7341
13.7251
13.7154
13.7048
13.6935
13.6813
13.6683
13.6544
13.6397
13.624
13.6075
13.59
13.5715
13.552
13.5315
13.5099
13.4871
13.4632
13.4381
13.4117
13.3841
13.355
13.3245
13.2925
13.259
13.2238
13.1869
13.1483
13.1077
13.0652
13.0206
12.9739
12.925
12.8737
12.8199
12.7635
12.7044
12.6425
12.5777
12.5097
12.4385
12.364
12.2859
12.2041
12.1185
12.0289
11.9351
11.837
11.7345
11.6272
11.5152
11.3981
11.2759
11.1485
11.0156
10.8771
10.7329
10.5829
10.4271
10.2654
10.0977
9.92411
9.74462
9.55931
9.36833
9.17182
8.97005
8.76326
8.55179
8.33599
8.11633
7.89322
7.66722
7.43884
7.20869
6.97731
6.74537
6.51343
6.28214
6.05206
5.82382
5.59793
5.37496
5.15535
4.93962
4.72813
4.5213
4.3194
4.12277
3.93159
3.74612
3.56645
3.39274
3.22502
3.06339
2.90779
2.75827
2.61473
2.47715
2.34538
2.21938
2.09896
1.98405
1.87442
1.77
1.67054
1.57594
1.48596
1.40049
1.31928
1.24224
1.16909
1.09979
1.03403
0.971794
0.912783
0.856978
0.804094
0.75413
0.706799
0.662124
0.619813
0.579916
0.542137
0.506551
0.472856
0.441154
0.411134
0.382928
0.356212
0.331147
0.307396
0.285152
0.264059
0.244345
0.225635
0.208192
0.191618
0.176211
0.161551
0.147972
0.135025
0.123085
0.11167
0.101197
0.091151
0.0819928
0.0731707
0.0651934
0.0574687
0.0505572
0.0438204
0.0378757
0.032033
0.0269702
0.0219379
0.0176805
0.0133828
0.00986025
0.00622387
0.00336715
0.000321746
-0.00193526
-0.00445872
-0.00617971
-0.00824446
-0.00948623
-0.0111493
-0.0119614
-0.0132687
-0.0136885
-0.0146746
-0.0147307
-0.0154169
-0.0151231
-0.0155192
-0.0148885
-0.0150132
-0.0140793
-0.0139741
-0.0127921
-0.0125008
-0.0111021
-0.010558
-0.0088248
-0.00798855
-0.00602273
-0.00503217
0.00147996
13.7886
13.788
13.7866
13.7844
13.7815
13.7778
13.7734
13.7683
13.7624
13.7557
13.7484
13.7402
13.7313
13.7217
13.7112
13.7
13.6879
13.6751
13.6613
13.6468
13.6313
13.6149
13.5976
13.5794
13.5601
13.5399
13.5186
13.4962
13.4726
13.4479
13.4219
13.3946
13.366
13.3359
13.3044
13.2714
13.2367
13.2004
13.1623
13.1224
13.0805
13.0366
12.9906
12.9424
12.8918
12.8388
12.7832
12.7249
12.6639
12.5999
12.5328
12.4625
12.3888
12.3116
12.2307
12.146
12.0573
11.9645
11.8672
11.7655
11.659
11.5476
11.4312
11.3096
11.1825
11.0499
10.9116
10.7674
10.6172
10.461
10.2986
10.1299
9.9551
9.77406
9.58687
9.39369
9.19464
8.98999
8.77998
8.565
8.34539
8.12166
7.89429
7.66386
7.43093
7.19617
6.96021
6.72373
6.48738
6.25185
6.01775
5.78574
5.55638
5.33025
5.10783
4.88963
4.67602
4.46741
4.26409
4.06638
3.87444
3.68852
3.50869
3.33511
3.16776
3.00672
2.85192
2.70337
2.56095
2.42462
2.29422
2.16966
2.05076
1.93742
1.82941
1.72663
1.62882
1.53588
1.44755
1.36372
1.28412
1.20866
1.13706
1.06925
1.00496
0.944115
0.886457
0.831948
0.780312
0.731541
0.685358
0.641775
0.600514
0.561612
0.524788
0.490104
0.457272
0.426384
0.397144
0.369673
0.343663
0.319264
0.296156
0.274517
0.254011
0.234846
0.216666
0.199714
0.183613
0.168641
0.154398
0.141199
0.128621
0.117014
0.105927
0.095751
0.0860029
0.0771132
0.0685644
0.0608311
0.0533574
0.0466659
0.0401574
0.0344078
0.0287702
0.0238779
0.0190292
0.0149202
0.0107882
0.0073959
0.00391102
0.00116985
-0.00173571
-0.00389083
-0.00628626
-0.00792017
-0.00987062
-0.0110426
-0.0126075
-0.0133686
-0.0145945
-0.0149815
-0.0159008
-0.0159377
-0.0165663
-0.0162607
-0.016601
-0.0159567
-0.0160188
-0.0150633
-0.0148852
-0.0136722
-0.0132963
-0.0118546
-0.0112091
-0.00941143
-0.00845266
-0.00638864
-0.00528501
0.00144574
13.7974
13.7968
13.7955
13.7932
13.7903
13.7867
13.7823
13.7772
13.7714
13.7648
13.7575
13.7494
13.7406
13.7311
13.7208
13.7097
13.6978
13.6851
13.6716
13.6573
13.6421
13.626
13.609
13.5911
13.5723
13.5524
13.5316
13.5096
13.4866
13.4624
13.4369
13.4103
13.3823
13.353
13.3222
13.2899
13.2561
13.2206
13.1834
13.1443
13.1034
13.0605
13.0156
12.9684
12.9189
12.8671
12.8127
12.7556
12.6958
12.6331
12.5674
12.4984
12.4261
12.3503
12.2708
12.1875
12.1001
12.0086
11.9127
11.8122
11.707
11.5967
11.4813
11.3606
11.2343
11.1022
10.9642
10.8201
10.6697
10.5129
10.3495
10.1795
10.0029
9.81955
9.62957
9.43306
9.23015
9.0211
8.80615
8.58572
8.36021
8.13017
7.89614
7.65878
7.41876
7.17682
6.93369
6.69015
6.44694
6.20483
5.96451
5.7267
5.49202
5.26109
5.03441
4.8125
4.59575
4.38457
4.1792
3.97997
3.787
3.60052
3.42057
3.24727
3.08057
2.92053
2.76704
2.62007
2.47945
2.34512
2.21688
2.09462
1.9781
1.86722
1.76171
1.66145
1.56619
1.47578
1.38996
1.30862
1.23146
1.1584
1.08914
1.0236
0.961503
0.902787
0.847174
0.794627
0.744871
0.697896
0.653429
0.611484
0.571787
0.534376
0.498974
0.465644
0.434102
0.404437
0.376358
0.349985
0.325016
0.301601
0.279427
0.258675
0.239015
0.220656
0.203249
0.187033
0.171634
0.157324
0.143707
0.131089
0.119053
0.107943
0.0973161
0.0875584
0.0781999
0.0696673
0.0614577
0.0540408
0.0468753
0.0404761
0.0342579
0.0287853
0.023425
0.0187962
0.0142112
0.0103505
0.00646573
0.00330374
4.75467e-05
-0.00248325
-0.00518104
-0.00714741
-0.00935736
-0.0108255
-0.0126147
-0.0136449
-0.0150731
-0.0157153
-0.0168276
-0.0171147
-0.0179379
-0.0178863
-0.0184291
-0.0180387
-0.0182962
-0.0175639
-0.0175407
-0.01649
-0.0162219
-0.014905
-0.0144333
-0.0128769
-0.0121236
-0.0101913
-0.00910368
-0.00687807
-0.0056154
0.00139656
13.8091
13.8086
13.8072
13.805
13.8021
13.7985
13.7941
13.7891
13.7833
13.7768
13.7696
13.7616
13.753
13.7436
13.7334
13.7225
13.7109
13.6984
13.6852
13.6712
13.6563
13.6406
13.6241
13.6066
13.5883
13.5689
13.5486
13.5273
13.5049
13.4815
13.4568
13.4309
13.4038
13.3754
13.3456
13.3143
13.2815
13.2471
13.2111
13.1733
13.1337
13.0921
13.0485
13.0028
12.9548
12.9045
12.8517
12.7963
12.7382
12.6772
12.6132
12.5461
12.4756
12.4017
12.3241
12.2427
12.1573
12.0676
11.9736
11.8749
11.7714
11.6628
11.5489
11.4295
11.3043
11.1731
11.0357
10.8919
10.7414
10.584
10.4196
10.2479
10.069
9.88275
9.68909
9.48814
9.28
9.06492
8.84316
8.61517
8.38141
8.14251
7.89909
7.65197
7.40192
7.14985
6.89661
6.64316
6.39034
6.13906
5.89011
5.6443
5.40231
5.16482
4.93238
4.70553
4.48464
4.27012
4.0622
3.86115
3.66706
3.4801
3.30026
3.12761
2.96205
2.80358
2.65204
2.50737
2.36935
2.23788
2.1127
1.99368
1.88052
1.77309
1.67109
1.57437
1.48263
1.39572
1.31336
1.23541
1.16157
1.09175
1.02564
0.963154
0.904011
0.848143
0.795268
0.745346
0.698103
0.653523
0.611338
0.571562
0.533929
0.498479
0.464947
0.433398
0.403557
0.375517
0.34899
0.324095
0.300532
0.278449
0.257535
0.237969
0.219429
0.202128
0.185725
0.170465
0.155982
0.14255
0.129778
0.117967
0.1067
0.0963126
0.0863635
0.0772286
0.0684439
0.060429
0.0526936
0.0457024
0.0389321
0.0328927
0.0270194
0.0218695
0.0168294
0.0125069
0.0082326
0.00467042
0.00108914
-0.00178493
-0.00475163
-0.00701435
-0.00944761
-0.0111765
-0.0131572
-0.0144264
-0.0160282
-0.0169007
-0.0181833
-0.0187045
-0.0197058
-0.0198956
-0.0206268
-0.0204823
-0.0209328
-0.0204345
-0.0205833
-0.0197156
-0.0195602
-0.0183455
-0.0179244
-0.016423
-0.0157876
-0.014039
-0.0131212
-0.0109979
-0.0097519
-0.00734982
-0.00593979
0.00136997
13.8237
13.8231
13.8218
13.8196
13.8167
13.8131
13.8088
13.8038
13.7981
13.7917
13.7845
13.7767
13.7682
13.759
13.749
13.7384
13.727
13.7148
13.7019
13.6883
13.6739
13.6586
13.6426
13.6257
13.608
13.5893
13.5697
13.5492
13.5277
13.5051
13.4814
13.4565
13.4305
13.4032
13.3745
13.3445
13.3131
13.2801
13.2455
13.2093
13.1712
13.1313
13.0895
13.0456
12.9995
12.9511
12.9003
12.847
12.791
12.7322
12.6705
12.6057
12.5376
12.4661
12.3909
12.312
12.229
12.1418
12.0502
11.9539
11.8527
11.7464
11.6346
11.5171
11.3936
11.2639
11.1276
10.9844
10.834
10.6763
10.5108
10.3374
10.1559
9.96611
9.76795
9.56145
9.34666
9.1238
8.89315
8.65519
8.41046
8.15969
7.90368
7.6434
7.37983
7.1141
6.84727
6.58052
6.31488
6.05145
5.79115
5.53493
5.28352
5.03769
4.79798
4.56496
4.33901
4.1205
3.90963
3.7066
3.51148
3.32432
3.14507
2.97368
2.81001
2.65397
2.50531
2.36392
2.22953
2.10196
1.98092
1.86622
1.75753
1.65466
1.55728
1.46519
1.37806
1.29572
1.21784
1.14427
1.0747
1.00901
0.946895
0.888263
0.832829
0.780522
0.731067
0.684421
0.640315
0.598732
0.559406
0.522347
0.487294
0.454283
0.423059
0.393688
0.365911
0.339826
0.315162
0.292044
0.270185
0.249731
0.230377
0.212295
0.195161
0.179179
0.164013
0.149906
0.136504
0.124087
0.112277
0.101382
0.0909942
0.0814492
0.0723099
0.0639418
0.0558842
0.0485417
0.0414321
0.0350058
0.0287559
0.0231822
0.0177447
0.0129934
0.00834372
0.00439555
0.000507176
-0.00267124
-0.00584814
-0.00831962
-0.0108679
-0.0127268
-0.0147553
-0.0161137
-0.0177414
-0.0187103
-0.0200437
-0.0207108
-0.0218257
-0.0222391
-0.0231646
-0.0233211
-0.0240359
-0.0238879
-0.0243328
-0.0238089
-0.0239146
-0.0229566
-0.022688
-0.0212965
-0.0206825
-0.0189205
-0.0180261
-0.015955
-0.0147341
-0.012252
-0.0106854
-0.00793959
-0.00623798
0.00140428
13.8412
13.8406
13.8392
13.837
13.8342
13.8306
13.8263
13.8214
13.8157
13.8094
13.8023
13.7946
13.7862
13.7772
13.7675
13.7571
13.746
13.7342
13.7217
13.7084
13.6945
13.6798
13.6644
13.6481
13.6311
13.6132
13.5945
13.5749
13.5543
13.5327
13.5101
13.4865
13.4617
13.4358
13.4086
13.3801
13.3502
13.3189
13.286
13.2516
13.2155
13.1776
13.1378
13.0961
13.0522
13.0062
12.9578
12.907
12.8537
12.7976
12.7386
12.6766
12.6114
12.5429
12.4707
12.3949
12.315
12.231
12.1425
12.0494
11.9512
11.8479
11.7389
11.6241
11.5031
11.3755
11.241
11.0992
10.9496
10.7919
10.6257
10.4507
10.2665
10.0729
9.86955
9.65647
9.43358
9.20106
8.95918
8.70844
8.44947
8.18318
7.91058
7.63292
7.35148
7.06773
6.78304
6.4989
6.21661
5.93751
5.66273
5.39337
5.13027
4.87425
4.62586
4.38566
4.15396
3.93109
3.71716
3.51231
3.3165
3.12972
2.95179
2.78259
2.62185
2.46938
2.32485
2.18803
2.05858
1.93625
1.82067
1.7116
1.60866
1.51162
1.42009
1.33384
1.2525
1.17587
1.10358
1.03547
0.971192
0.910611
0.853417
0.799503
0.748585
0.700588
0.655247
0.612518
0.572148
0.534125
0.498201
0.464387
0.432435
0.402376
0.373958
0.347239
0.321968
0.298235
0.275786
0.25475
0.234864
0.216288
0.198736
0.182394
0.166944
0.152586
0.138976
0.126342
0.11432
0.103181
0.0925476
0.0827315
0.0733401
0.0647163
0.0564427
0.0488867
0.0416034
0.034986
0.0285651
0.0227686
0.0171071
0.0120542
0.00709837
0.00276722
-0.00148279
-0.00506899
-0.00858511
-0.0113969
-0.0141679
-0.0162166
-0.0182914
-0.0196606
-0.0211622
-0.0220021
-0.0231061
-0.0235978
-0.0244868
-0.0247895
-0.0256003
-0.0258027
-0.0265838
-0.0266749
-0.0273764
-0.0272582
-0.0277596
-0.0272896
-0.0274522
-0.0265064
-0.0262391
-0.0247743
-0.0240755
-0.0221411
-0.0210707
-0.0187388
-0.0172699
-0.0144637
-0.0126005
-0.00948141
-0.00736188
0.00110606
13.8615
13.8609
13.8595
13.8573
13.8545
13.8509
13.8466
13.8417
13.8361
13.8298
13.8228
13.8152
13.807
13.7981
13.7886
13.7785
13.7677
13.7563
13.7442
13.7315
13.7181
13.7041
13.6893
13.6738
13.6576
13.6407
13.6229
13.6044
13.5849
13.5646
13.5433
13.5211
13.4978
13.4734
13.4479
13.4211
13.3931
13.3637
13.3329
13.3007
13.2668
13.2312
13.1939
13.1546
13.1134
13.0702
13.0246
12.9768
12.9265
12.8735
12.8178
12.7592
12.6974
12.6324
12.5639
12.4918
12.4157
12.3355
12.2509
12.1617
12.0675
11.968
11.8628
11.7517
11.6341
11.5097
11.3779
11.2384
11.0905
10.9338
10.7676
10.5916
10.405
10.2075
9.99862
9.77808
9.5457
9.30152
9.04574
8.77891
8.50175
8.21539
7.92114
7.62065
7.3157
7.00825
6.70021
6.39349
6.08982
5.79082
5.49788
5.21227
4.93495
4.6668
4.40838
4.16016
3.92237
3.69521
3.47863
3.27265
3.07707
2.89175
2.71638
2.55072
2.39437
2.24701
2.10822
1.97763
1.8548
1.73938
1.63093
1.52911
1.43349
1.34377
1.25953
1.1805
1.10626
1.03657
0.971061
0.909511
0.851575
0.797088
0.745739
0.69741
0.651822
0.608899
0.568381
0.530223
0.494181
0.460243
0.428179
0.398011
0.369518
0.342746
0.317466
0.293743
0.271333
0.250321
0.230454
0.211844
0.194237
0.177786
0.16223
0.147769
0.13412
0.121512
0.109618
0.0986717
0.0882996
0.0787495
0.0696215
0.0612006
0.0530827
0.0456029
0.0383568
0.0317216
0.0252804
0.0194348
0.0137433
0.00862684
0.0036194
-0.000828668
-0.00520387
-0.00901104
-0.0127605
-0.0159012
-0.018982
-0.0213944
-0.0237492
-0.0253878
-0.0270083
-0.0279085
-0.0288876
-0.0291972
-0.0297391
-0.0296993
-0.0300696
-0.0299345
-0.0303619
-0.0302901
-0.0308636
-0.0308409
-0.0314715
-0.0313239
-0.0318001
-0.0312833
-0.0313742
-0.0302832
-0.0298399
-0.0280966
-0.0271047
-0.0247634
-0.0233052
-0.0204811
-0.0185788
-0.0152718
-0.0130539
-0.00955463
-0.00749099
0.00190146
13.8846
13.884
13.8827
13.8805
13.8775
13.8739
13.8697
13.8647
13.8591
13.8528
13.8459
13.8384
13.8303
13.8215
13.8122
13.8024
13.7919
13.7809
13.7692
13.757
13.7442
13.7308
13.7168
13.7021
13.6868
13.6708
13.6541
13.6367
13.6185
13.5996
13.5797
13.559
13.5374
13.5148
13.4911
13.4664
13.4404
13.4133
13.3848
13.3549
13.3236
13.2907
13.2562
13.2199
13.1817
13.1416
13.0994
13.0549
13.0081
12.9589
12.9069
12.8522
12.7945
12.7337
12.6695
12.6018
12.5303
12.4548
12.3749
12.2905
12.2012
12.1066
12.0064
11.9001
11.7873
11.6674
11.5399
11.4041
11.2594
11.1051
10.9403
10.7644
10.5764
10.3757
10.1614
9.93291
9.68979
9.43181
9.159
8.87189
8.57136
8.25889
7.93631
7.60591
7.27018
6.9318
6.59342
6.25763
5.92671
5.60274
5.28743
4.98219
4.68809
4.40598
4.13639
3.87966
3.63589
3.40504
3.18689
2.98118
2.7875
2.60549
2.43464
2.27454
2.12465
1.98451
1.85353
1.73127
1.61713
1.51068
1.41135
1.31874
1.23233
1.15174
1.07652
1.00632
0.940713
0.87941
0.822005
0.768257
0.7178
0.670448
0.625884
0.583991
0.544503
0.507362
0.472335
0.439394
0.408313
0.379077
0.351461
0.325475
0.300907
0.277806
0.255974
0.235495
0.216164
0.198085
0.181033
0.165126
0.150112
0.136127
0.122895
0.110597
0.0989506
0.0882024
0.0780614
0.0688089
0.0601019
0.0522108
0.044725
0.0379048
0.0313076
0.0252232
0.0192237
0.0136592
0.00812936
0.00303783
-0.00200998
-0.00657919
-0.0110812
-0.0150572
-0.0189461
-0.0222596
-0.0254725
-0.0280588
-0.0305401
-0.0323435
-0.034053
-0.0350515
-0.0360074
-0.0362635
-0.0365861
-0.0362804
-0.036218
-0.0356562
-0.0355601
-0.0350968
-0.0352993
-0.035178
-0.0358191
-0.0360176
-0.0369467
-0.037166
-0.0380089
-0.0378135
-0.0381563
-0.037178
-0.0367534
-0.0348401
-0.0336075
-0.0308248
-0.0289019
-0.0254334
-0.0229462
-0.0189321
-0.0161607
-0.0119401
-0.0095777
0.00226727
13.9107
13.9101
13.9087
13.9064
13.9034
13.8997
13.8954
13.8903
13.8846
13.8783
13.8714
13.864
13.8559
13.8474
13.8383
13.8287
13.8186
13.808
13.7969
13.7853
13.7731
13.7605
13.7473
13.7336
13.7193
13.7045
13.689
13.6729
13.6562
13.6388
13.6206
13.6016
13.5819
13.5612
13.5397
13.5171
13.4935
13.4688
13.4429
13.4158
13.3873
13.3574
13.3259
13.2929
13.2581
13.2215
13.1829
13.1423
13.0994
13.0543
13.0066
12.9563
12.9032
12.8472
12.7879
12.7253
12.6591
12.589
12.5148
12.4362
12.3528
12.2644
12.1704
12.0704
11.9638
11.8502
11.7287
11.5987
11.4593
11.3095
11.1483
10.9747
10.7873
10.5849
10.3663
10.1304
9.87602
9.60251
9.30945
8.99706
8.66623
8.31884
7.95764
7.58631
7.20882
6.8292
6.45113
6.07803
5.71287
5.35831
5.01636
4.68859
4.37597
4.0792
3.79855
3.53413
3.28572
3.05302
2.83548
2.63254
2.44348
2.26761
2.10419
1.95254
1.81191
1.68168
1.56112
1.44964
1.34655
1.25129
1.16322
1.08183
1.00653
0.936878
0.872351
0.812572
0.75706
0.705496
0.657445
0.612639
0.570697
0.531417
0.494484
0.459775
0.427041
0.396233
0.367148
0.339791
0.313985
0.289758
0.266921
0.245492
0.22526
0.206251
0.188267
0.171373
0.15539
0.140427
0.126303
0.113167
0.100819
0.0894307
0.0787553
0.0689586
0.05973
0.0512658
0.0432466
0.0359546
0.0290704
0.0229188
0.0171215
0.0119788
0.00704044
0.0025785
-0.00188373
-0.00605892
-0.0103907
-0.0145298
-0.0188562
-0.0229433
-0.0271264
-0.0309212
-0.0346621
-0.0378291
-0.0407964
-0.0430226
-0.0449554
-0.04604
-0.0468263
-0.0467537
-0.0464895
-0.0454635
-0.0444567
-0.042884
-0.0416312
-0.0400733
-0.0391575
-0.0381532
-0.0380226
-0.0378541
-0.0386144
-0.0391463
-0.0404782
-0.0411829
-0.0424632
-0.0426285
-0.0431986
-0.0422514
-0.0417073
-0.0394421
-0.0377676
-0.034347
-0.0318006
-0.0276005
-0.0246077
-0.0201578
-0.0173892
-0.0133697
-0.0110716
0.000891588
13.9398
13.9391
13.9376
13.9352
13.9321
13.9283
13.9237
13.9185
13.9126
13.9062
13.8992
13.8916
13.8836
13.875
13.866
13.8566
13.8467
13.8364
13.8257
13.8145
13.803
13.791
13.7786
13.7658
13.7525
13.7388
13.7246
13.7099
13.6947
13.6789
13.6625
13.6455
13.6278
13.6093
13.5901
13.57
13.549
13.527
13.5041
13.48
13.4547
13.4281
13.4002
13.3708
13.3398
13.3072
13.2728
13.2364
13.1981
13.1576
13.1147
13.0695
13.0216
12.9709
12.9173
12.8605
12.8004
12.7367
12.6691
12.5974
12.5212
12.4401
12.3539
12.2618
12.1635
12.0583
11.9453
11.8237
11.6925
11.5505
11.3963
11.2284
11.045
10.8442
10.6239
10.3822
10.1171
9.82702
9.51084
9.16833
8.8002
8.4084
7.99637
7.56951
7.13449
6.69818
6.26644
5.84414
5.43522
5.04288
4.66935
4.3161
3.98376
3.67254
3.3821
3.11195
2.86131
2.62939
2.41524
2.21791
2.03634
1.86956
1.71649
1.57622
1.44775
1.33026
1.22286
1.12483
1.03536
0.953794
0.87939
0.81156
0.74964
0.693117
0.641402
0.594058
0.550559
0.51053
0.473494
0.439137
0.407045
0.377002
0.348717
0.322122
0.297038
0.273449
0.251167
0.23018
0.210325
0.19165
0.174027
0.157519
0.141979
0.127443
0.11373
0.100873
0.0886985
0.0772781
0.066455
0.0563476
0.0467994
0.0380075
0.0298223
0.0224964
0.0157966
0.00992864
0.00452637
-0.000207451
-0.00466986
-0.00857632
-0.0123229
-0.0155766
-0.0187607
-0.0215469
-0.0243967
-0.027032
-0.0299449
-0.032881
-0.0362717
-0.0397801
-0.0437019
-0.0475751
-0.0516029
-0.0552343
-0.0586675
-0.0612941
-0.0633768
-0.064305
-0.0645161
-0.0634682
-0.0617962
-0.0590287
-0.0559853
-0.0522996
-0.0489418
-0.0456034
-0.0432815
-0.0415666
-0.0413041
-0.0417671
-0.0436131
-0.0457491
-0.0488048
-0.0513214
-0.0541583
-0.0555446
-0.0568009
-0.0559235
-0.0548556
-0.0513837
-0.048005
-0.0422736
-0.0371613
-0.0300505
-0.0242605
-0.0171438
-0.0123268
-0.00774994
-0.00436321
-0.000824109
13.972
13.9713
13.9697
13.9671
13.9637
13.9595
13.9547
13.9492
13.9432
13.9365
13.9294
13.9218
13.9138
13.9054
13.8966
13.8875
13.878
13.8682
13.858
13.8476
13.8368
13.8257
13.8143
13.8025
13.7905
13.778
13.7652
13.7521
13.7385
13.7245
13.71
13.695
13.6794
13.6632
13.6464
13.629
13.6107
13.5917
13.5717
13.5509
13.5289
13.5059
13.4817
13.4562
13.4293
13.4009
13.3709
13.3391
13.3056
13.27
13.2324
13.1926
13.1503
13.1056
13.0581
13.0078
12.9544
12.8977
12.8376
12.7737
12.7057
12.6334
12.5564
12.4741
12.3861
12.2916
12.19
12.0802
11.9611
11.8313
11.689
11.5323
11.3588
11.1655
10.9493
10.7063
10.4327
10.1247
9.77914
9.39464
8.97257
8.51768
8.03667
7.53756
7.02931
6.52094
6.02049
5.53513
5.07058
4.63091
4.21842
3.83426
3.47863
3.15107
2.85046
2.5754
2.32428
2.09555
1.88759
1.69897
1.52819
1.37392
1.23479
1.10956
0.99701
0.896071
0.80567
0.724912
0.652861
0.588743
0.531722
0.481118
0.436187
0.396339
0.360916
0.32941
0.301231
0.275922
0.252935
0.231856
0.212184
0.193596
0.175784
0.15878
0.142591
0.127356
0.112996
0.0995513
0.0868751
0.0749739
0.0637051
0.0531206
0.0431312
0.0338146
0.0250662
0.0169185
0.0092296
0.00203105
-0.00478927
-0.0111494
-0.0171662
-0.0227261
-0.0279557
-0.0325964
-0.0367213
-0.039975
-0.0425806
-0.0443092
-0.0456228
-0.0463553
-0.0470309
-0.0474214
-0.0480268
-0.0485335
-0.0493811
-0.0502546
-0.0515954
-0.0531604
-0.0553687
-0.0579892
-0.0613079
-0.0649765
-0.0690977
-0.073176
-0.077213
-0.080554
-0.083166
-0.084318
-0.0842045
-0.0822138
-0.0788607
-0.073687
-0.0675701
-0.0603265
-0.0531224
-0.0460114
-0.0402472
-0.0359423
-0.0341169
-0.0344971
-0.0374439
-0.0420784
-0.0483574
-0.0548245
-0.0615477
-0.0666892
-0.0708441
-0.0719884
-0.0719404
-0.0686339
-0.064618
-0.0573991
-0.0503507
-0.0409676
-0.0329693
-0.0233896
-0.0156277
-0.00866509
0.000240024
-0.00508889
14.0076
14.0069
14.005
14.0021
13.9982
13.9936
13.9882
13.9821
13.9753
13.9681
13.9604
13.9522
13.9438
13.935
13.9259
13.9166
13.9071
13.8974
13.8875
13.8775
13.8673
13.8569
13.8463
13.8356
13.8247
13.8136
13.8023
13.7908
13.7791
13.767
13.7547
13.742
13.7289
13.7154
13.7014
13.6869
13.6719
13.6562
13.6397
13.6226
13.6045
13.5855
13.5656
13.5444
13.5221
13.4985
13.4734
13.4469
13.4187
13.3887
13.3568
13.3229
13.2869
13.2486
13.2079
13.1647
13.1187
13.0699
13.018
12.9629
12.9042
12.8419
12.7755
12.7048
12.6292
12.5481
12.461
12.3668
12.2644
12.1524
12.0289
11.8914
11.7372
11.5623
11.3623
11.1316
10.8634
10.5499
10.1819
9.75045
9.25003
8.68577
8.07737
7.45089
6.82591
6.21234
5.61705
5.04823
4.51325
4.01643
3.55918
3.14139
2.76208
2.41974
2.11225
1.83726
1.59221
1.37462
1.18203
1.01223
0.863061
0.732574
0.618851
0.520179
0.434881
0.361512
0.298677
0.245209
0.199969
0.16202
0.130422
0.104408
0.0831934
0.0661492
0.0526056
0.0420183
0.0337677
0.0273159
0.022016
0.017302
0.0125686
0.00742054
0.0016588
-0.0044211
-0.0105825
-0.0166119
-0.0224788
-0.028001
-0.0331742
-0.0379468
-0.0424652
-0.0467475
-0.0509006
-0.0548707
-0.0586992
-0.0623181
-0.0657782
-0.0690491
-0.0722009
-0.0751493
-0.0778896
-0.0802899
-0.0824407
-0.0842166
-0.0857126
-0.0865669
-0.0868042
-0.08601
-0.0845297
-0.0822201
-0.079693
-0.0768575
-0.0743689
-0.0720783
-0.0705831
-0.0697286
-0.069991
-0.0711013
-0.0733294
-0.0763442
-0.0802614
-0.0847485
-0.0898111
-0.0950328
-0.100244
-0.1048
-0.108415
-0.110304
-0.110366
-0.107857
-0.103009
-0.0953559
-0.0857647
-0.074347
-0.0625555
-0.0509889
-0.0412503
-0.033953
-0.0301351
-0.0301861
-0.0342633
-0.0416583
-0.0516391
-0.0626945
-0.0739487
-0.0832079
-0.090276
-0.092527
-0.0915189
-0.0852535
-0.0767467
-0.0640566
-0.0509034
-0.0360604
-0.0247255
-0.0152992
-0.0106106
-0.00864225
-0.00258733
-0.00952992
14.0472
14.0463
14.044
14.0405
14.0361
14.0309
14.0251
14.0186
14.0117
14.0042
13.9964
13.9883
13.9799
13.9712
13.9624
13.9534
13.9442
13.9349
13.9255
13.9161
13.9065
13.8969
13.8873
13.8775
13.8677
13.8579
13.848
13.838
13.8278
13.8176
13.8072
13.7966
13.7859
13.7748
13.7635
13.7519
13.7398
13.7274
13.7144
13.7008
13.6866
13.6717
13.6559
13.6392
13.6216
13.6028
13.5829
13.5616
13.5389
13.5146
13.4888
13.4611
13.4316
13.4001
13.3664
13.3306
13.2924
13.2518
13.2086
13.1628
13.1141
13.0626
13.0079
12.9499
12.8884
12.8229
12.753
12.678
12.597
12.5086
12.4112
12.3021
12.178
12.0341
11.8643
11.6609
11.4143
11.1138
10.7482
10.3016
9.75554
9.08098
8.28581
7.43546
6.58966
5.7746
5.0041
4.29166
3.64632
3.07083
2.56359
2.12087
1.73745
1.40749
1.12491
0.884035
0.679512
0.506667
0.361274
0.239789
0.139026
0.0563041
-0.0108764
-0.0646267
-0.106941
-0.139453
-0.163705
-0.180911
-0.192235
-0.198556
-0.200749
-0.199441
-0.195291
-0.188743
-0.18031
-0.170336
-0.159302
-0.147627
-0.136046
-0.125472
-0.117427
-0.112962
-0.11118
-0.11044
-0.11005
-0.109878
-0.109929
-0.109984
-0.109969
-0.109786
-0.109539
-0.109262
-0.109079
-0.109031
-0.109197
-0.109607
-0.110265
-0.111134
-0.112163
-0.113293
-0.11443
-0.11541
-0.116098
-0.116315
-0.116095
-0.115245
-0.113766
-0.111244
-0.107845
-0.103371
-0.0984024
-0.0929209
-0.0875039
-0.0821437
-0.0776232
-0.0741885
-0.0724777
-0.0725364
-0.0745424
-0.0782703
-0.0835093
-0.0898663
-0.0969921
-0.104497
-0.111763
-0.118122
-0.122983
-0.125872
-0.126377
-0.123727
-0.117604
-0.107543
-0.0940337
-0.077457
-0.0594144
-0.0415254
-0.0260859
-0.0153976
-0.0101708
-0.0111559
-0.0185063
-0.0313616
-0.0478356
-0.0667876
-0.0853157
-0.100957
-0.113064
-0.119914
-0.122228
-0.11619
-0.1043
-0.0858465
-0.0646355
-0.0377644
-0.0109642
0.0139596
0.027081
0.0268371
0.0169008
0.00098471
14.0914
14.0903
14.0873
14.0826
14.0764
14.0692
14.0612
14.0526
14.0436
14.0344
14.0249
14.0154
14.0059
13.9964
13.987
13.9777
13.9684
13.9593
13.9503
13.9415
13.9328
13.9242
13.9158
13.9075
13.8993
13.8913
13.8833
13.8755
13.8677
13.8599
13.8522
13.8445
13.8368
13.829
13.8211
13.813
13.8048
13.7963
13.7875
13.7783
13.7687
13.7585
13.7477
13.7362
13.7238
13.7106
13.6963
13.6809
13.6643
13.6463
13.6268
13.6058
13.5831
13.5586
13.5323
13.504
13.4738
13.4414
13.407
13.3705
13.3319
13.2913
13.2485
13.2038
13.157
13.1083
13.0576
13.0049
12.95
12.8923
12.8309
12.7642
12.689
12.6
12.4884
12.3394
12.1292
11.8257
11.3858
10.777
9.98923
9.09141
8.08836
7.03953
5.98402
4.95322
3.99867
3.16187
2.45587
1.87509
1.40649
1.03398
0.740459
0.509668
0.327774
0.183654
0.0688439
-0.0230745
-0.096711
-0.155511
-0.201904
-0.237865
-0.264862
-0.284261
-0.297109
-0.304461
-0.307091
-0.305828
-0.301229
-0.29394
-0.28434
-0.272922
-0.259924
-0.24572
-0.230435
-0.214352
-0.197511
-0.180135
-0.162355
-0.144731
-0.129849
-0.122917
-0.120918
-0.120182
-0.119716
-0.119541
-0.119525
-0.119442
-0.11919
-0.118755
-0.118185
-0.117544
-0.116921
-0.116391
-0.11604
-0.11592
-0.116113
-0.116684
-0.11759
-0.118731
-0.119987
-0.121257
-0.122333
-0.12299
-0.123082
-0.122442
-0.120873
-0.118231
-0.114531
-0.109639
-0.104135
-0.098265
-0.0922533
-0.0861026
-0.0805891
-0.0761898
-0.0736744
-0.073211
-0.0749839
-0.0788699
-0.0847474
-0.0923758
-0.10145
-0.111501
-0.121564
-0.13055
-0.137436
-0.141813
-0.143215
-0.141054
-0.134736
-0.123792
-0.108208
-0.0882903
-0.0656222
-0.0425055
-0.0214314
-0.00571528
0.00142604
-0.000366318
-0.00984103
-0.0266439
-0.0495957
-0.0750732
-0.100036
-0.120413
-0.133141
-0.138323
-0.140101
-0.134711
-0.122386
-0.103082
-0.0852855
-0.0697244
-0.04738
-0.0136696
0.0198958
0.0367878
0.0342819
0.0152738
14.1415
14.14
14.1367
14.1318
14.1257
14.1187
14.1109
14.1023
14.0932
14.0836
14.0738
14.0639
14.0539
14.0439
14.0339
14.0241
14.0144
14.0049
13.9956
13.9866
13.9778
13.9693
13.9611
13.9532
13.9455
13.9382
13.9312
13.9244
13.918
13.9118
13.9058
13.9001
13.8946
13.8893
13.8841
13.879
13.8739
13.8689
13.8638
13.8585
13.8531
13.8474
13.8413
13.8348
13.8277
13.8199
13.8113
13.8019
13.7914
13.7797
13.7668
13.7526
13.7368
13.7195
13.7006
13.68
13.6577
13.6336
13.608
13.5807
13.5521
13.5223
13.4915
13.4602
13.4288
13.398
13.3685
13.3414
13.3177
13.2993
13.2881
13.2865
13.2969
13.3215
13.3599
13.4074
13.4385
13.4104
13.1604
12.544
10.942
8.86346
7.14097
5.86566
4.77712
3.79762
2.95922
2.27417
1.72666
1.29322
0.951308
0.681677
0.467952
0.297323
0.159869
0.0485633
-0.0418975
-0.115161
-0.174154
-0.220916
-0.2573
-0.284653
-0.304358
-0.317424
-0.324954
-0.327704
-0.326545
-0.322016
-0.314786
-0.305217
-0.293821
-0.280817
-0.266602
-0.251293
-0.235207
-0.218399
-0.201145
-0.183533
-0.165928
-0.148787
-0.135601
-0.130669
-0.129372
-0.128488
-0.127564
-0.126723
-0.125916
-0.125017
-0.124003
-0.122873
-0.121677
-0.120472
-0.11934
-0.118387
-0.117739
-0.117484
-0.117643
-0.118223
-0.11921
-0.120464
-0.121926
-0.123354
-0.124631
-0.125386
-0.125666
-0.125074
-0.123542
-0.120772
-0.116751
-0.111099
-0.104559
-0.0973795
-0.0899367
-0.082478
-0.0756711
-0.0700556
-0.066484
-0.0653709
-0.0670931
-0.0714278
-0.0781511
-0.0865446
-0.096513
-0.107456
-0.119084
-0.129602
-0.138497
-0.144241
-0.14694
-0.144977
-0.138725
-0.12671
-0.109538
-0.086183
-0.0586674
-0.0289862
-0.00162629
0.019763
0.0304466
0.0287215
0.0164134
-0.00605926
-0.0368633
-0.0695683
-0.102518
-0.130538
-0.148417
-0.154401
-0.152537
-0.137362
-0.113725
-0.0839831
-0.056291
-0.0403769
-0.0362667
-0.0258831
-0.0146906
-0.00380577
0.00126636
0.000712754
14.2003
14.1965
14.1868
14.173
14.1588
14.1455
14.1327
14.1201
14.1077
14.0959
14.0847
14.074
14.0638
14.054
14.0447
14.0358
14.0274
14.0193
14.0117
14.0045
13.9976
13.9912
13.9852
13.9796
13.9744
13.9697
13.9654
13.9615
13.958
13.9549
13.9522
13.9499
13.948
13.9465
13.9452
13.9443
13.9436
13.9431
13.9427
13.9424
13.9421
13.9418
13.9412
13.9404
13.9392
13.9375
13.9352
13.9322
13.9283
13.9234
13.9174
13.9103
13.9019
13.8921
13.881
13.8686
13.8548
13.8398
13.8238
13.8069
13.7894
13.7717
13.7543
13.7377
13.7227
13.7102
13.7012
13.6972
13.7001
13.7125
13.7385
13.7845
13.8608
13.9831
14.1734
14.4653
14.8917
15.5306
16.3301
17.5561
17.441
13.1714
9.68989
7.33167
5.45177
4.01261
2.96796
2.20873
1.6553
1.24768
0.940829
0.703289
0.513694
0.358089
0.227636
0.116957
0.0227789
-0.0569057
-0.123516
-0.17818
-0.222
-0.256052
-0.281473
-0.299348
-0.31076
-0.316668
-0.317979
-0.315441
-0.309743