/*--------------------------------*- C++ -*----------------------------------*\
  =========                 |
  \\      /  F ield         | OpenFOAM: The Open Source CFD Toolbox
   \\    /   O peration     | Website:  https://openfoam.org
    \\  /    A nd           | Version:  10
     \\/     M anipulation  |
\*---------------------------------------------------------------------------*/
FoamFile
{
    format      ascii;
    class       volVectorField;
    location    "0.099";
    object      U;
}
// * * * * * * * * * * * * * * * * * * * * * * * * * * * * * * * * * * * * * //

dimensions      [0 1 -1 0 0 0 0];

internalField   nonuniform List<vector> 
4000
(
(5.00002 -7.365e-05 0)
(5.00015 -0.00022093 0)
(5.00044 -0.000368311 0)
(5.00089 -0.000515897 0)
(5.00149 -0.000663813 0)
(5.00223 -0.000812165 0)
(5.00312 -0.000961113 0)
(5.00415 -0.00111078 0)
(5.00534 -0.00126134 0)
(5.00668 -0.00141293 0)
(5.00817 -0.00156578 0)
(5.00982 -0.00172007 0)
(5.01161 -0.00187607 0)
(5.01357 -0.00203402 0)
(5.01568 -0.00219423 0)
(5.01796 -0.00235698 0)
(5.0204 -0.00252263 0)
(5.023 -0.0026915 0)
(5.02578 -0.00286398 0)
(5.02873 -0.00304042 0)
(5.03186 -0.00322128 0)
(5.03517 -0.00340692 0)
(5.03867 -0.00359786 0)
(5.04236 -0.00379451 0)
(5.04626 -0.0039974 0)
(5.05035 -0.00420698 0)
(5.05466 -0.00442384 0)
(5.05919 -0.00464845 0)
(5.06395 -0.00488143 0)
(5.06895 -0.00512328 0)
(5.07419 -0.00537466 0)
(5.07968 -0.00563609 0)
(5.08544 -0.00590824 0)
(5.09148 -0.00619165 0)
(5.09781 -0.00648704 0)
(5.10444 -0.00679494 0)
(5.11138 -0.00711609 0)
(5.11865 -0.00745103 0)
(5.12626 -0.00780053 0)
(5.13423 -0.00816512 0)
(5.14257 -0.00854558 0)
(5.15129 -0.00894245 0)
(5.16042 -0.00935651 0)
(5.16998 -0.00978827 0)
(5.17997 -0.0102385 0)
(5.19042 -0.0107077 0)
(5.20135 -0.0111967 0)
(5.21277 -0.0117058 0)
(5.22472 -0.0122358 0)
(5.2372 -0.0127871 0)
(5.25025 -0.0133602 0)
(5.26388 -0.0139555 0)
(5.27811 -0.0145734 0)
(5.29298 -0.0152141 0)
(5.30849 -0.0158778 0)
(5.32468 -0.0165645 0)
(5.34157 -0.0172743 0)
(5.35918 -0.0180066 0)
(5.37753 -0.0187612 0)
(5.39665 -0.0195373 0)
(5.41656 -0.0203342 0)
(5.43727 -0.0211504 0)
(5.45881 -0.0219847 0)
(5.4812 -0.0228351 0)
(5.50445 -0.0236994 0)
(5.52857 -0.0245749 0)
(5.55357 -0.0254588 0)
(5.57946 -0.0263472 0)
(5.60625 -0.0272364 0)
(5.63393 -0.0281216 0)
(5.66249 -0.0289982 0)
(5.69193 -0.0298604 0)
(5.72224 -0.0307026 0)
(5.75337 -0.0315183 0)
(5.78532 -0.0323012 0)
(5.81804 -0.0330443 0)
(5.85149 -0.0337408 0)
(5.88561 -0.0343836 0)
(5.92036 -0.0349664 0)
(5.95566 -0.0354822 0)
(5.99146 -0.0359256 0)
(6.02766 -0.0362908 0)
(6.06419 -0.0365737 0)
(6.10097 -0.0367701 0)
(6.13791 -0.0368777 0)
(6.17491 -0.0368947 0)
(6.21188 -0.0368209 0)
(6.24873 -0.0366565 0)
(6.28538 -0.0364035 0)
(6.32172 -0.0360644 0)
(6.35768 -0.035643 0)
(6.39318 -0.0351435 0)
(6.42813 -0.0345714 0)
(6.46247 -0.033932 0)
(6.49614 -0.0332317 0)
(6.52906 -0.0324767 0)
(6.56121 -0.031674 0)
(6.59252 -0.0308299 0)
(6.62296 -0.0299515 0)
(6.6525 -0.029045 0)
(6.68112 -0.028117 0)
(6.70879 -0.0271733 0)
(6.73551 -0.0262197 0)
(6.76126 -0.0252613 0)
(6.78605 -0.024303 0)
(6.80988 -0.0233489 0)
(6.83275 -0.0224033 0)
(6.85467 -0.0214694 0)
(6.87567 -0.0205505 0)
(6.89575 -0.0196492 0)
(6.91493 -0.0187679 0)
(6.93325 -0.0179086 0)
(6.95071 -0.0170731 0)
(6.96735 -0.0162626 0)
(6.98319 -0.0154785 0)
(6.99827 -0.0147214 0)
(7.0126 -0.0139919 0)
(7.02621 -0.0132904 0)
(7.03913 -0.0126168 0)
(7.0514 -0.0119711 0)
(7.06304 -0.011353 0)
(7.07407 -0.0107619 0)
(7.08452 -0.0101974 0)
(7.09442 -0.00965864 0)
(7.1038 -0.00914498 0)
(7.11267 -0.00865564 0)
(7.12107 -0.00818972 0)
(7.12901 -0.00774648 0)
(7.13653 -0.00732495 0)
(7.14363 -0.00692443 0)
(7.15035 -0.00654389 0)
(7.15669 -0.0061827 0)
(7.16269 -0.0058398 0)
(7.16835 -0.00551464 0)
(7.17369 -0.00520615 0)
(7.17874 -0.00491389 0)
(7.1835 -0.00463675 0)
(7.188 -0.00437444 0)
(7.19224 -0.00412581 0)
(7.19624 -0.00389068 0)
(7.20001 -0.00366788 0)
(7.20356 -0.00345734 0)
(7.20691 -0.00325782 0)
(7.21007 -0.00306938 0)
(7.21304 -0.00289072 0)
(7.21584 -0.00272204 0)
(7.21848 -0.00256198 0)
(7.22096 -0.00241094 0)
(7.22329 -0.00226752 0)
(7.22549 -0.00213231 0)
(7.22756 -0.00200385 0)
(7.2295 -0.00188294 0)
(7.23132 -0.00176803 0)
(7.23304 -0.00166008 0)
(7.23465 -0.00155743 0)
(7.23617 -0.00146115 0)
(7.23759 -0.00136945 0)
(7.23892 -0.00128349 0)
(7.24017 -0.00120134 0)
(7.24134 -0.00112432 0)
(7.24243 -0.00105032 0)
(7.24346 -0.000980877 0)
(7.24441 -0.000913764 0)
(7.24531 -0.000850778 0)
(7.24614 -0.00078958 0)
(7.24691 -0.000732263 0)
(7.24763 -0.000676389 0)
(7.2483 -0.000624351 0)
(7.24892 -0.000573587 0)
(7.24949 -0.00052677 0)
(7.25002 -0.000481171 0)
(7.25051 -0.000439709 0)
(7.25096 -0.000399432 0)
(7.25138 -0.000363472 0)
(7.25177 -0.000328603 0)
(7.25213 -0.000298155 0)
(7.25246 -0.000268594 0)
(7.25276 -0.000243455 0)
(7.25305 -0.000218874 0)
(7.25331 -0.00019863 0)
(7.25355 -0.000178534 0)
(7.25378 -0.000162656 0)
(7.25399 -0.000146497 0)
(7.25419 -0.000134479 0)
(7.25437 -0.000121813 0)
(7.25455 -0.000113307 0)
(7.25471 -0.000103904 0)
(7.25487 -9.88182e-05 0)
(7.25502 -9.27328e-05 0)
(7.25516 -9.12481e-05 0)
(7.25531 -8.87476e-05 0)
(7.25545 -9.11517e-05 0)
(7.25559 -9.24375e-05 0)
(7.25573 -9.88761e-05 0)
(7.25588 -0.000103823 0)
(7.25601 -0.000114488 0)
(7.25616 -0.000122988 0)
(7.25632 -0.000137938 0)
(7.25649 -0.000146007 0)
(7.2567 -0.000173778 0)
(5.00002 -0.000220558 0)
(5.00015 -0.000661689 0)
(5.00044 -0.00110319 0)
(5.00089 -0.00154535 0)
(5.00148 -0.0019885 0)
(5.00222 -0.00243297 0)
(5.00311 -0.00287914 0)
(5.00414 -0.00332742 0)
(5.00533 -0.00377829 0)
(5.00666 -0.00423222 0)
(5.00815 -0.00468983 0)
(5.00979 -0.00515174 0)
(5.01158 -0.00561869 0)
(5.01352 -0.00609144 0)
(5.01563 -0.00657086 0)
(5.01789 -0.00705784 0)
(5.02032 -0.00755341 0)
(5.02291 -0.00805854 0)
(5.02568 -0.00857441 0)
(5.02861 -0.00910211 0)
(5.03172 -0.00964294 0)
(5.03501 -0.0101981 0)
(5.03849 -0.010769 0)
(5.04216 -0.0113571 0)
(5.04603 -0.0119637 0)
(5.0501 -0.0125904 0)
(5.05438 -0.0132388 0)
(5.05887 -0.0139104 0)
(5.0636 -0.0146069 0)
(5.06856 -0.0153301 0)
(5.07376 -0.0160815 0)
(5.07921 -0.0168631 0)
(5.08493 -0.0176766 0)
(5.09093 -0.0185239 0)
(5.09721 -0.0194068 0)
(5.10379 -0.0203272 0)
(5.11067 -0.0212872 0)
(5.11789 -0.0222885 0)
(5.12544 -0.0233333 0)
(5.13335 -0.0244234 0)
(5.14162 -0.0255609 0)
(5.15028 -0.0267477 0)
(5.15934 -0.027986 0)
(5.16882 -0.0292775 0)
(5.17874 -0.0306244 0)
(5.18911 -0.0320284 0)
(5.19996 -0.0334915 0)
(5.21131 -0.0350154 0)
(5.22317 -0.036602 0)
(5.23557 -0.0382527 0)
(5.24853 -0.0399692 0)
(5.26207 -0.0417525 0)
(5.27622 -0.043604 0)
(5.29099 -0.0455243 0)
(5.30642 -0.0475143 0)
(5.32252 -0.0495738 0)
(5.33932 -0.051703 0)
(5.35684 -0.053901 0)
(5.37511 -0.0561667 0)
(5.39414 -0.0584981 0)
(5.41397 -0.0608928 0)
(5.43461 -0.0633471 0)
(5.45609 -0.065857 0)
(5.47842 -0.0684167 0)
(5.50162 -0.07102 0)
(5.5257 -0.0736588 0)
(5.55068 -0.0763244 0)
(5.57656 -0.0790058 0)
(5.60336 -0.0816914 0)
(5.63107 -0.0843674 0)
(5.65968 -0.0870191 0)
(5.6892 -0.0896296 0)
(5.71959 -0.0921815 0)
(5.75086 -0.0946554 0)
(5.78295 -0.0970314 0)
(5.81585 -0.0992886 0)
(5.8495 -0.101406 0)
(5.88385 -0.103362 0)
(5.91886 -0.105136 0)
(5.95445 -0.106708 0)
(5.99054 -0.10806 0)
(6.02707 -0.109174 0)
(6.06395 -0.110038 0)
(6.10108 -0.110639 0)
(6.13838 -0.110969 0)
(6.17575 -0.111023 0)
(6.21309 -0.1108 0)
(6.2503 -0.110301 0)
(6.2873 -0.109532 0)
(6.32399 -0.108501 0)
(6.36027 -0.10722 0)
(6.39607 -0.105703 0)
(6.43131 -0.103965 0)
(6.46591 -0.102024 0)
(6.49981 -0.0998992 0)
(6.53295 -0.0976102 0)
(6.56527 -0.0951773 0)
(6.59674 -0.0926208 0)
(6.62731 -0.0899612 0)
(6.65695 -0.087218 0)
(6.68564 -0.0844105 0)
(6.71337 -0.0815568 0)
(6.74012 -0.078674 0)
(6.76589 -0.075778 0)
(6.79067 -0.0728837 0)
(6.81447 -0.0700042 0)
(6.83731 -0.0671516 0)
(6.85918 -0.0643365 0)
(6.88011 -0.0615685 0)
(6.90012 -0.0588554 0)
(6.91922 -0.0562045 0)
(6.93745 -0.0536215 0)
(6.95482 -0.0511115 0)
(6.97135 -0.0486781 0)
(6.98709 -0.0463246 0)
(7.00206 -0.044053 0)
(7.01628 -0.0418649 0)
(7.02978 -0.0397609 0)
(7.04259 -0.0377412 0)
(7.05475 -0.0358053 0)
(7.06628 -0.0339523 0)
(7.0772 -0.0321808 0)
(7.08755 -0.0304891 0)
(7.09735 -0.0288752 0)
(7.10663 -0.0273368 0)
(7.11541 -0.0258717 0)
(7.12372 -0.0244772 0)
(7.13157 -0.023151 0)
(7.139 -0.0218902 0)
(7.14602 -0.0206925 0)
(7.15266 -0.019555 0)
(7.15893 -0.0184754 0)
(7.16485 -0.0174509 0)
(7.17045 -0.0164793 0)
(7.17573 -0.0155577 0)
(7.18071 -0.0146842 0)
(7.18542 -0.0138561 0)
(7.18985 -0.0130717 0)
(7.19404 -0.0123283 0)
(7.19799 -0.0116246 0)
(7.20171 -0.0109579 0)
(7.20522 -0.0103272 0)
(7.20852 -0.00972995 0)
(7.21164 -0.00916543 0)
(7.21457 -0.00863108 0)
(7.21733 -0.00812636 0)
(7.21993 -0.0076487 0)
(7.22238 -0.00719781 0)
(7.22468 -0.00677107 0)
(7.22685 -0.00636846 0)
(7.22888 -0.0059873 0)
(7.2308 -0.00562788 0)
(7.23259 -0.00528747 0)
(7.23428 -0.00496665 0)
(7.23587 -0.00466261 0)
(7.23736 -0.0043762 0)
(7.23876 -0.00410449 0)
(7.24007 -0.0038486 0)
(7.2413 -0.00360546 0)
(7.24245 -0.00337644 0)
(7.24353 -0.00315838 0)
(7.24454 -0.00295293 0)
(7.24548 -0.00275686 0)
(7.24636 -0.0025722 0)
(7.24717 -0.00239567 0)
(7.24793 -0.00222975 0)
(7.24864 -0.00207108 0)
(7.24929 -0.0019226 0)
(7.2499 -0.00178085 0)
(7.25046 -0.00164918 0)
(7.25097 -0.00152391 0)
(7.25144 -0.00140876 0)
(7.25188 -0.00129973 0)
(7.25228 -0.00120078 0)
(7.25265 -0.0011075 0)
(7.25299 -0.00102406 0)
(7.2533 -0.000945615 0)
(7.25359 -0.000876507 0)
(7.25386 -0.000811464 0)
(7.2541 -0.000755093 0)
(7.25432 -0.000701739 0)
(7.25453 -0.000656388 0)
(7.25473 -0.000613077 0)
(7.25491 -0.000577304 0)
(7.25507 -0.000542875 0)
(7.25523 -0.000515885 0)
(7.25537 -0.000489923 0)
(7.25551 -0.000471718 0)
(7.25564 -0.000454632 0)
(7.25576 -0.000445975 0)
(7.25588 -0.000438752 0)
(7.256 -0.000440724 0)
(7.25611 -0.000444372 0)
(7.25623 -0.000457909 0)
(7.25635 -0.000473043 0)
(7.25646 -0.000499134 0)
(7.25658 -0.000526078 0)
(7.25671 -0.000566148 0)
(7.25687 -0.000596653 0)
(7.25704 -0.000678231 0)
(5.00002 -0.000366842 0)
(5.00015 -0.00110062 0)
(5.00044 -0.00183505 0)
(5.00088 -0.00257056 0)
(5.00148 -0.00330762 0)
(5.00221 -0.00404673 0)
(5.00309 -0.00478848 0)
(5.00412 -0.00553352 0)
(5.0053 -0.00628262 0)
(5.00662 -0.00703661 0)
(5.0081 -0.00779646 0)
(5.00973 -0.00856323 0)
(5.0115 -0.0093381 0)
(5.01343 -0.0101224 0)
(5.01552 -0.0109174 0)
(5.01777 -0.0117248 0)
(5.02017 -0.0125462 0)
(5.02274 -0.0133832 0)
(5.02547 -0.0142378 0)
(5.02837 -0.0151119 0)
(5.03144 -0.0160076 0)
(5.0347 -0.0169269 0)
(5.03813 -0.0178723 0)
(5.04175 -0.018846 0)
(5.04557 -0.0198505 0)
(5.04958 -0.0208883 0)
(5.05381 -0.0219621 0)
(5.05824 -0.0230745 0)
(5.0629 -0.0242283 0)
(5.06779 -0.0254263 0)
(5.07291 -0.0266714 0)
(5.07829 -0.0279666 0)
(5.08392 -0.0293149 0)
(5.08982 -0.0307194 0)
(5.09601 -0.0321833 0)
(5.10248 -0.0337096 0)
(5.10927 -0.0353017 0)
(5.11637 -0.0369629 0)
(5.1238 -0.0386963 0)
(5.13159 -0.0405054 0)
(5.13973 -0.0423935 0)
(5.14826 -0.044364 0)
(5.15719 -0.0464201 0)
(5.16652 -0.0485653 0)
(5.17629 -0.0508029 0)
(5.18651 -0.053136 0)
(5.19721 -0.0555679 0)
(5.20839 -0.0581016 0)
(5.22009 -0.0607402 0)
(5.23232 -0.0634863 0)
(5.2451 -0.0663426 0)
(5.25846 -0.0693115 0)
(5.27243 -0.0723949 0)
(5.28702 -0.0755944 0)
(5.30227 -0.0789113 0)
(5.31818 -0.0823463 0)
(5.3348 -0.0858992 0)
(5.35214 -0.0895693 0)
(5.37024 -0.0933551 0)
(5.3891 -0.0972536 0)
(5.40877 -0.101261 0)
(5.42926 -0.105372 0)
(5.4506 -0.10958 0)
(5.47281 -0.113877 0)
(5.4959 -0.118251 0)
(5.51991 -0.12269 0)
(5.54483 -0.12718 0)
(5.57069 -0.131703 0)
(5.5975 -0.136239 0)
(5.62526 -0.140766 0)
(5.65396 -0.145258 0)
(5.68362 -0.149687 0)
(5.7142 -0.154024 0)
(5.7457 -0.158235 0)
(5.7781 -0.162285 0)
(5.81134 -0.166139 0)
(5.8454 -0.169759 0)
(5.88023 -0.173109 0)
(5.91576 -0.17615 0)
(5.95192 -0.178849 0)
(5.98864 -0.181172 0)
(6.02583 -0.18309 0)
(6.0634 -0.184577 0)
(6.10126 -0.185613 0)
(6.1393 -0.186184 0)
(6.17742 -0.18628 0)
(6.21552 -0.185899 0)
(6.25347 -0.185044 0)
(6.29119 -0.183725 0)
(6.32858 -0.181958 0)
(6.36552 -0.179763 0)
(6.40194 -0.177164 0)
(6.43776 -0.17419 0)
(6.47288 -0.170872 0)
(6.50725 -0.167245 0)
(6.54081 -0.163341 0)
(6.5735 -0.159198 0)
(6.60527 -0.154849 0)
(6.6361 -0.150331 0)
(6.66594 -0.145676 0)
(6.69479 -0.140918 0)
(6.72263 -0.136086 0)
(6.74944 -0.131211 0)
(6.77522 -0.126318 0)
(6.79999 -0.121433 0)
(6.82374 -0.116578 0)
(6.84649 -0.111774 0)
(6.86825 -0.107038 0)
(6.88905 -0.102386 0)
(6.9089 -0.0978319 0)
(6.92783 -0.0933866 0)
(6.94587 -0.0890598 0)
(6.96304 -0.0848592 0)
(6.97938 -0.0807909 0)
(6.9949 -0.0768592 0)
(7.00965 -0.0730675 0)
(7.02364 -0.0694175 0)
(7.03693 -0.06591 0)
(7.04952 -0.0625449 0)
(7.06146 -0.0593212 0)
(7.07277 -0.0562371 0)
(7.08348 -0.0532901 0)
(7.09362 -0.0504772 0)
(7.10322 -0.0477951 0)
(7.1123 -0.0452398 0)
(7.12089 -0.0428074 0)
(7.12901 -0.0404934 0)
(7.13669 -0.0382936 0)
(7.14395 -0.0362033 0)
(7.15081 -0.0342182 0)
(7.15729 -0.0323336 0)
(7.16341 -0.0305453 0)
(7.16919 -0.0288488 0)
(7.17465 -0.02724 0)
(7.1798 -0.0257148 0)
(7.18466 -0.0242691 0)
(7.18924 -0.022899 0)
(7.19357 -0.0216009 0)
(7.19765 -0.020371 0)
(7.2015 -0.0192061 0)
(7.20512 -0.0181027 0)
(7.20854 -0.017058 0)
(7.21176 -0.016069 0)
(7.21479 -0.0151331 0)
(7.21764 -0.0142477 0)
(7.22033 -0.0134106 0)
(7.22286 -0.0126192 0)
(7.22524 -0.0118716 0)
(7.22747 -0.0111654 0)
(7.22958 -0.0104984 0)
(7.23156 -0.00986843 0)
(7.23342 -0.00927338 0)
(7.23516 -0.0087109 0)
(7.23681 -0.00817919 0)
(7.23835 -0.00767593 0)
(7.2398 -0.00719959 0)
(7.24115 -0.006748 0)
(7.24243 -0.00631996 0)
(7.24362 -0.00591355 0)
(7.24474 -0.00552784 0)
(7.24579 -0.00516125 0)
(7.24676 -0.0048131 0)
(7.24768 -0.00448209 0)
(7.24853 -0.00416785 0)
(7.24932 -0.00386933 0)
(7.25005 -0.00358646 0)
(7.25073 -0.00331839 0)
(7.25136 -0.00306534 0)
(7.25195 -0.00282657 0)
(7.25248 -0.00260254 0)
(7.25297 -0.0023925 0)
(7.25343 -0.00219701 0)
(7.25384 -0.00201518 0)
(7.25422 -0.00184753 0)
(7.25457 -0.00169292 0)
(7.25489 -0.00155172 0)
(7.25519 -0.00142251 0)
(7.25546 -0.00130547 0)
(7.2557 -0.001199 0)
(7.25593 -0.00110312 0)
(7.25615 -0.00101622 0)
(7.25634 -0.000938339 0)
(7.25652 -0.000868049 0)
(7.25669 -0.000805574 0)
(7.25685 -0.000749838 0)
(7.25699 -0.000701375 0)
(7.25713 -0.000659481 0)
(7.25725 -0.000625053 0)
(7.25737 -0.000597684 0)
(7.25748 -0.000578571 0)
(7.25758 -0.000567402 0)
(7.25769 -0.000565545 0)
(7.25779 -0.00057261 0)
(7.25789 -0.000590026 0)
(7.25799 -0.000617215 0)
(7.25808 -0.000655943 0)
(7.25819 -0.00070438 0)
(7.2583 -0.000768681 0)
(7.25845 -0.000827379 0)
(7.25859 -0.000968605 0)
(5.00002 -0.000512428 0)
(5.00015 -0.00153737 0)
(5.00044 -0.00256313 0)
(5.00088 -0.00359021 0)
(5.00147 -0.00461914 0)
(5.0022 -0.00565059 0)
(5.00307 -0.00668529 0)
(5.00409 -0.00772414 0)
(5.00526 -0.00876815 0)
(5.00657 -0.00981846 0)
(5.00803 -0.0108764 0)
(5.00964 -0.0119434 0)
(5.0114 -0.0130212 0)
(5.01331 -0.0141115 0)
(5.01537 -0.0152163 0)
(5.01758 -0.0163377 0)
(5.01995 -0.017478 0)
(5.02248 -0.0186396 0)
(5.02517 -0.0198252 0)
(5.02802 -0.0210375 0)
(5.03104 -0.0222795 0)
(5.03424 -0.023554 0)
(5.03761 -0.0248644 0)
(5.04116 -0.0262138 0)
(5.0449 -0.0276059 0)
(5.04884 -0.029044 0)
(5.05297 -0.030532 0)
(5.05731 -0.0320735 0)
(5.06187 -0.0336724 0)
(5.06664 -0.0353328 0)
(5.07166 -0.0370588 0)
(5.07691 -0.0388544 0)
(5.08241 -0.0407241 0)
(5.08818 -0.0426721 0)
(5.09422 -0.0447028 0)
(5.10054 -0.0468207 0)
(5.10717 -0.0490305 0)
(5.1141 -0.0513367 0)
(5.12136 -0.053744 0)
(5.12896 -0.056257 0)
(5.13692 -0.0588807 0)
(5.14525 -0.0616197 0)
(5.15397 -0.0644787 0)
(5.16309 -0.0674627 0)
(5.17264 -0.0705763 0)
(5.18263 -0.0738242 0)
(5.19308 -0.077211 0)
(5.20402 -0.0807413 0)
(5.21547 -0.0844193 0)
(5.22744 -0.0882494 0)
(5.23996 -0.0922353 0)
(5.25305 -0.0963807 0)
(5.26675 -0.100689 0)
(5.28106 -0.105163 0)
(5.29603 -0.109804 0)
(5.31166 -0.114614 0)
(5.328 -0.119594 0)
(5.34507 -0.124744 0)
(5.36289 -0.130062 0)
(5.38149 -0.135544 0)
(5.40091 -0.141187 0)
(5.42116 -0.146984 0)
(5.44228 -0.152926 0)
(5.46429 -0.159003 0)
(5.48721 -0.1652 0)
(5.51108 -0.171502 0)
(5.53591 -0.177887 0)
(5.56171 -0.184333 0)
(5.58852 -0.190812 0)
(5.61633 -0.197291 0)
(5.64516 -0.203737 0)
(5.675 -0.210108 0)
(5.70585 -0.21636 0)
(5.7377 -0.222446 0)
(5.77053 -0.228315 0)
(5.80431 -0.233913 0)
(5.83899 -0.239183 0)
(5.87452 -0.24407 0)
(5.91085 -0.248517 0)
(5.94789 -0.252471 0)
(5.98557 -0.255881 0)
(6.0238 -0.258701 0)
(6.06246 -0.260891 0)
(6.10145 -0.26242 0)
(6.14065 -0.263265 0)
(6.17994 -0.263413 0)
(6.2192 -0.262861 0)
(6.25832 -0.261613 0)
(6.29716 -0.259687 0)
(6.33562 -0.257105 0)
(6.37359 -0.253901 0)
(6.41097 -0.250111 0)
(6.44766 -0.24578 0)
(6.48359 -0.240956 0)
(6.51868 -0.235689 0)
(6.55287 -0.230032 0)
(6.5861 -0.224037 0)
(6.61833 -0.217758 0)
(6.64953 -0.211246 0)
(6.67967 -0.204551 0)
(6.70874 -0.19772 0)
(6.73671 -0.190797 0)
(6.7636 -0.183824 0)
(6.7894 -0.176839 0)
(6.81412 -0.169877 0)
(6.83778 -0.162969 0)
(6.86038 -0.156143 0)
(6.88197 -0.149424 0)
(6.90255 -0.142834 0)
(6.92215 -0.136391 0)
(6.94081 -0.130112 0)
(6.95855 -0.124008 0)
(6.97542 -0.11809 0)
(6.99143 -0.112366 0)
(7.00662 -0.106841 0)
(7.02103 -0.101519 0)
(7.03469 -0.0964031 0)
(7.04763 -0.0914921 0)
(7.05988 -0.0867856 0)
(7.07148 -0.0822814 0)
(7.08246 -0.0779762 0)
(7.09285 -0.073866 0)
(7.10268 -0.0699462 0)
(7.11197 -0.0662115 0)
(7.12075 -0.062656 0)
(7.12906 -0.0592737 0)
(7.1369 -0.0560582 0)
(7.14432 -0.0530031 0)
(7.15132 -0.0501017 0)
(7.15793 -0.0473475 0)
(7.16418 -0.0447338 0)
(7.17008 -0.0422543 0)
(7.17564 -0.0399027 0)
(7.1809 -0.037673 0)
(7.18586 -0.0355594 0)
(7.19053 -0.0335565 0)
(7.19495 -0.0316588 0)
(7.19911 -0.0298613 0)
(7.20303 -0.0281591 0)
(7.20672 -0.0265474 0)
(7.21021 -0.0250217 0)
(7.21349 -0.0235777 0)
(7.21658 -0.0222111 0)
(7.21949 -0.0209182 0)
(7.22223 -0.0196952 0)
(7.2248 -0.0185387 0)
(7.22723 -0.0174456 0)
(7.2295 -0.0164129 0)
(7.23165 -0.0154377 0)
(7.23366 -0.0145174 0)
(7.23555 -0.0136492 0)
(7.23734 -0.0128302 0)
(7.23901 -0.0120577 0)
(7.24058 -0.0113288 0)
(7.24206 -0.0106404 0)
(7.24345 -0.00998982 0)
(7.24475 -0.0093741 0)
(7.24597 -0.00879068 0)
(7.24712 -0.00823693 0)
(7.24819 -0.00771074 0)
(7.2492 -0.00721001 0)
(7.25013 -0.00673316 0)
(7.25101 -0.00627871 0)
(7.25182 -0.00584563 0)
(7.25258 -0.00543309 0)
(7.25328 -0.00504053 0)
(7.25392 -0.00466761 0)
(7.25452 -0.00431417 0)
(7.25507 -0.00398015 0)
(7.25557 -0.00366565 0)
(7.25603 -0.00337064 0)
(7.25645 -0.00309531 0)
(7.25683 -0.00283939 0)
(7.25718 -0.00260298 0)
(7.25749 -0.00238536 0)
(7.25778 -0.00218637 0)
(7.25805 -0.00200477 0)
(7.25829 -0.00184011 0)
(7.25851 -0.00169076 0)
(7.25872 -0.00155605 0)
(7.25891 -0.00143428 0)
(7.25908 -0.00132479 0)
(7.25925 -0.00122619 0)
(7.2594 -0.00113812 0)
(7.25954 -0.00105983 0)
(7.25967 -0.000991351 0)
(7.25978 -0.000932698 0)
(7.25989 -0.000884322 0)
(7.25999 -0.000846846 0)
(7.26008 -0.000820943 0)
(7.26017 -0.000807578 0)
(7.26025 -0.000807354 0)
(7.26033 -0.000821283 0)
(7.2604 -0.000849641 0)
(7.26048 -0.000893199 0)
(7.26055 -0.000952274 0)
(7.26063 -0.00102583 0)
(7.26071 -0.00112054 0)
(7.26084 -0.00120748 0)
(7.26093 -0.00141424 0)
(5.00002 -0.000657047 0)
(5.00015 -0.00197117 0)
(5.00044 -0.00328613 0)
(5.00087 -0.00460241 0)
(5.00146 -0.00592055 0)
(5.00218 -0.00724128 0)
(5.00305 -0.00856546 0)
(5.00406 -0.00989411 0)
(5.00521 -0.0112285 0)
(5.00651 -0.0125699 0)
(5.00796 -0.0139201 0)
(5.00954 -0.015281 0)
(5.01128 -0.0166545 0)
(5.01315 -0.018043 0)
(5.01518 -0.019449 0)
(5.01736 -0.0208753 0)
(5.01968 -0.0223249 0)
(5.02216 -0.0238009 0)
(5.02479 -0.0253068 0)
(5.02758 -0.0268461 0)
(5.03054 -0.0284226 0)
(5.03365 -0.0300403 0)
(5.03694 -0.0317033 0)
(5.0404 -0.0334159 0)
(5.04405 -0.0351825 0)
(5.04787 -0.0370077 0)
(5.05189 -0.0388964 0)
(5.05611 -0.0408533 0)
(5.06053 -0.0428835 0)
(5.06517 -0.0449922 0)
(5.07003 -0.0471847 0)
(5.07512 -0.0494663 0)
(5.08045 -0.0518427 0)
(5.08604 -0.0543193 0)
(5.09188 -0.0569019 0)
(5.09801 -0.0595964 0)
(5.10442 -0.0624086 0)
(5.11113 -0.0653445 0)
(5.11816 -0.0684102 0)
(5.12552 -0.0716117 0)
(5.13322 -0.0749554 0)
(5.14129 -0.0784473 0)
(5.14973 -0.0820937 0)
(5.15856 -0.0859008 0)
(5.16781 -0.089875 0)
(5.1775 -0.0940223 0)
(5.18763 -0.0983491 0)
(5.19824 -0.102861 0)
(5.20935 -0.107565 0)
(5.22097 -0.112466 0)
(5.23314 -0.117569 0)
(5.24587 -0.12288 0)
(5.25919 -0.128404 0)
(5.27313 -0.134145 0)
(5.28771 -0.140106 0)
(5.30296 -0.146291 0)
(5.31891 -0.152701 0)
(5.3356 -0.159337 0)
(5.35304 -0.166199 0)
(5.37127 -0.173285 0)
(5.39033 -0.180589 0)
(5.41024 -0.188107 0)
(5.43103 -0.195827 0)
(5.45275 -0.20374 0)
(5.47541 -0.211828 0)
(5.49906 -0.220072 0)
(5.52371 -0.228448 0)
(5.54941 -0.236927 0)
(5.57617 -0.245474 0)
(5.60402 -0.254049 0)
(5.63296 -0.262605 0)
(5.66303 -0.271091 0)
(5.69421 -0.279448 0)
(5.7265 -0.28761 0)
(5.7599 -0.295507 0)
(5.79437 -0.303065 0)
(5.82988 -0.310205 0)
(5.86638 -0.316846 0)
(5.9038 -0.322907 0)
(5.94206 -0.32831 0)
(5.98108 -0.332981 0)
(6.02074 -0.336852 0)
(6.06093 -0.339865 0)
(6.10151 -0.341973 0)
(6.14234 -0.343143 0)
(6.18329 -0.343355 0)
(6.2242 -0.342606 0)
(6.26494 -0.340905 0)
(6.30536 -0.338277 0)
(6.34532 -0.334757 0)
(6.38471 -0.330394 0)
(6.42342 -0.325244 0)
(6.46132 -0.319371 0)
(6.49835 -0.312843 0)
(6.53441 -0.305733 0)
(6.56945 -0.298115 0)
(6.6034 -0.290062 0)
(6.63624 -0.281648 0)
(6.66792 -0.272945 0)
(6.69843 -0.264019 0)
(6.72775 -0.254934 0)
(6.75589 -0.245752 0)
(6.78284 -0.236526 0)
(6.80863 -0.227306 0)
(6.83326 -0.218139 0)
(6.85676 -0.209064 0)
(6.87915 -0.200116 0)
(6.90046 -0.191328 0)
(6.92072 -0.182725 0)
(6.93998 -0.174331 0)
(6.95825 -0.166165 0)
(6.97558 -0.158241 0)
(6.99201 -0.150573 0)
(7.00757 -0.143168 0)
(7.02231 -0.136033 0)
(7.03626 -0.129172 0)
(7.04945 -0.122586 0)
(7.06192 -0.116274 0)
(7.07372 -0.110234 0)
(7.08487 -0.104461 0)
(7.0954 -0.0989507 0)
(7.10536 -0.0936963 0)
(7.11476 -0.0886906 0)
(7.12364 -0.0839257 0)
(7.13203 -0.0793936 0)
(7.13995 -0.0750855 0)
(7.14743 -0.0709928 0)
(7.15449 -0.0671067 0)
(7.16116 -0.0634185 0)
(7.16745 -0.0599193 0)
(7.17339 -0.0566005 0)
(7.179 -0.0534535 0)
(7.18429 -0.05047 0)
(7.18928 -0.0476419 0)
(7.19398 -0.0449614 0)
(7.19842 -0.042421 0)
(7.2026 -0.0400136 0)
(7.20654 -0.0377328 0)
(7.21026 -0.0355722 0)
(7.21376 -0.0335261 0)
(7.21705 -0.031589 0)
(7.22016 -0.0297556 0)
(7.22308 -0.0280209 0)
(7.22583 -0.0263801 0)
(7.22841 -0.0248282 0)
(7.23084 -0.0233611 0)
(7.23313 -0.0219741 0)
(7.23527 -0.0206635 0)
(7.23729 -0.0194253 0)
(7.23919 -0.0182562 0)
(7.24097 -0.0171525 0)
(7.24264 -0.0161114 0)
(7.24421 -0.0151292 0)
(7.24569 -0.014203 0)
(7.24707 -0.0133292 0)
(7.24838 -0.0125044 0)
(7.24961 -0.0117249 0)
(7.25076 -0.0109874 0)
(7.25184 -0.0102881 0)
(7.25285 -0.00962401 0)
(7.2538 -0.00899203 0)
(7.25469 -0.00838969 0)
(7.25552 -0.00781487 0)
(7.25628 -0.00726602 0)
(7.257 -0.00674212 0)
(7.25765 -0.00624253 0)
(7.25826 -0.00576722 0)
(7.25881 -0.00531624 0)
(7.25932 -0.00489017 0)
(7.25978 -0.00448938 0)
(7.26019 -0.0041145 0)
(7.26057 -0.00376582 0)
(7.26091 -0.00344349 0)
(7.26121 -0.00314738 0)
(7.26149 -0.00287678 0)
(7.26174 -0.00263091 0)
(7.26197 -0.00240806 0)
(7.26217 -0.00220688 0)
(7.26236 -0.00202486 0)
(7.26254 -0.00186035 0)
(7.2627 -0.00171064 0)
(7.26285 -0.00157429 0)
(7.26299 -0.00144913 0)
(7.26312 -0.00133448 0)
(7.26324 -0.00122933 0)
(7.26335 -0.00113403 0)
(7.26344 -0.00104901 0)
(7.26353 -0.000975524 0)
(7.2636 -0.000915186 0)
(7.26366 -0.000869724 0)
(7.26372 -0.000841312 0)
(7.26377 -0.000831477 0)
(7.26382 -0.000842303 0)
(7.26386 -0.000874455 0)
(7.2639 -0.000929399 0)
(7.26393 -0.00100715 0)
(7.26398 -0.00110616 0)
(7.26402 -0.00123344 0)
(7.26413 -0.00135001 0)
(7.26415 -0.00160956 0)
(5.00002 -0.000800738 0)
(5.00015 -0.00240214 0)
(5.00043 -0.00400423 0)
(5.00087 -0.00560731 0)
(5.00145 -0.00721182 0)
(5.00217 -0.00881844 0)
(5.00302 -0.010428 0)
(5.00403 -0.0120417 0)
(5.00517 -0.0136608 0)
(5.00645 -0.0152871 0)
(5.00788 -0.0169223 0)
(5.00944 -0.0185688 0)
(5.01114 -0.020229 0)
(5.01299 -0.0219058 0)
(5.01498 -0.0236022 0)
(5.0171 -0.0253216 0)
(5.01938 -0.0270677 0)
(5.02179 -0.0288444 0)
(5.02436 -0.0306558 0)
(5.02708 -0.0325064 0)
(5.02994 -0.0344008 0)
(5.03297 -0.0363439 0)
(5.03615 -0.0383409 0)
(5.0395 -0.0403969 0)
(5.04302 -0.0425174 0)
(5.04672 -0.0447083 0)
(5.05059 -0.0469752 0)
(5.05465 -0.0493243 0)
(5.05891 -0.0517618 0)
(5.06337 -0.0542939 0)
(5.06804 -0.0569273 0)
(5.07293 -0.0596686 0)
(5.07805 -0.0625247 0)
(5.08341 -0.0655024 0)
(5.08902 -0.068609 0)
(5.09489 -0.0718515 0)
(5.10104 -0.0752373 0)
(5.10747 -0.0787739 0)
(5.11421 -0.0824687 0)
(5.12126 -0.0863295 0)
(5.12865 -0.0903639 0)
(5.13638 -0.0945796 0)
(5.14448 -0.0989845 0)
(5.15295 -0.103586 0)
(5.16183 -0.108393 0)
(5.17113 -0.113413 0)
(5.18086 -0.118654 0)
(5.19106 -0.124122 0)
(5.20174 -0.129828 0)
(5.21292 -0.135777 0)
(5.22464 -0.141977 0)
(5.23691 -0.148435 0)
(5.24975 -0.155159 0)
(5.26321 -0.162154 0)
(5.2773 -0.169426 0)
(5.29206 -0.176981 0)
(5.30751 -0.184821 0)
(5.32369 -0.192951 0)
(5.34063 -0.201371 0)
(5.35837 -0.210081 0)
(5.37694 -0.219079 0)
(5.39638 -0.228359 0)
(5.41673 -0.237914 0)
(5.43803 -0.247732 0)
(5.46032 -0.257796 0)
(5.48363 -0.268086 0)
(5.50802 -0.278576 0)
(5.53351 -0.289232 0)
(5.56015 -0.300014 0)
(5.58797 -0.310876 0)
(5.617 -0.321759 0)
(5.64728 -0.332599 0)
(5.67881 -0.343321 0)
(5.71161 -0.353841 0)
(5.74568 -0.364067 0)
(5.78101 -0.373897 0)
(5.81756 -0.383224 0)
(5.85528 -0.391936 0)
(5.89412 -0.399918 0)
(5.93399 -0.40706 0)
(5.97477 -0.413252 0)
(6.01635 -0.418397 0)
(6.05857 -0.422411 0)
(6.10128 -0.425225 0)
(6.14431 -0.426791 0)
(6.18748 -0.427084 0)
(6.23061 -0.426099 0)
(6.27352 -0.423852 0)
(6.31604 -0.420382 0)
(6.358 -0.415741 0)
(6.39927 -0.410002 0)
(6.4397 -0.403245 0)
(6.47919 -0.395562 0)
(6.51763 -0.387051 0)
(6.55494 -0.377811 0)
(6.59105 -0.367945 0)
(6.62591 -0.357552 0)
(6.65949 -0.34673 0)
(6.69176 -0.335572 0)
(6.72271 -0.324166 0)
(6.75233 -0.312596 0)
(6.78064 -0.300936 0)
(6.80764 -0.289258 0)
(6.83337 -0.277623 0)
(6.85786 -0.266088 0)
(6.88112 -0.254701 0)
(6.9032 -0.243507 0)
(6.92414 -0.23254 0)
(6.94398 -0.221834 0)
(6.96275 -0.211413 0)
(6.98052 -0.201298 0)
(6.99731 -0.191507 0)
(7.01317 -0.182051 0)
(7.02815 -0.17294 0)
(7.04229 -0.164179 0)
(7.05564 -0.155771 0)
(7.06823 -0.147715 0)
(7.08011 -0.140009 0)
(7.09131 -0.132647 0)
(7.10188 -0.125624 0)
(7.11185 -0.118931 0)
(7.12125 -0.112559 0)
(7.13011 -0.106497 0)
(7.13848 -0.100734 0)
(7.14637 -0.095259 0)
(7.1538 -0.0900602 0)
(7.16082 -0.0851258 0)
(7.16744 -0.0804442 0)
(7.17368 -0.076004 0)
(7.17957 -0.0717942 0)
(7.18512 -0.0678039 0)
(7.19035 -0.0640228 0)
(7.19529 -0.0604407 0)
(7.19994 -0.0570476 0)
(7.20433 -0.0538339 0)
(7.20847 -0.0507903 0)
(7.21236 -0.0479076 0)
(7.21603 -0.0451773 0)
(7.21949 -0.0425912 0)
(7.22274 -0.0401418 0)
(7.2258 -0.0378223 0)
(7.22868 -0.0356264 0)
(7.23138 -0.0335484 0)
(7.23393 -0.0315831 0)
(7.23632 -0.0297254 0)
(7.23856 -0.0279706 0)
(7.24067 -0.0263138 0)
(7.24265 -0.0247503 0)
(7.24451 -0.0232752 0)
(7.24625 -0.021884 0)
(7.24789 -0.0205718 0)
(7.24942 -0.0193345 0)
(7.25086 -0.0181674 0)
(7.25221 -0.0170666 0)
(7.25349 -0.0160276 0)
(7.25468 -0.0150464 0)
(7.25581 -0.0141185 0)
(7.25687 -0.0132395 0)
(7.25786 -0.0124053 0)
(7.2588 -0.0116115 0)
(7.25967 -0.0108544 0)
(7.26049 -0.0101302 0)
(7.26125 -0.00943627 0)
(7.26196 -0.00877036 0)
(7.26261 -0.00813119 0)
(7.26321 -0.00751824 0)
(7.26376 -0.00693179 0)
(7.26425 -0.00637293 0)
(7.26469 -0.00584306 0)
(7.26509 -0.00534419 0)
(7.26544 -0.00487796 0)
(7.26575 -0.00444635 0)
(7.26602 -0.00405019 0)
(7.26626 -0.00369044 0)
(7.26647 -0.00336632 0)
(7.26666 -0.00307715 0)
(7.26683 -0.00282021 0)
(7.26699 -0.00259316 0)
(7.26713 -0.00239175 0)
(7.26727 -0.00221258 0)
(7.2674 -0.00205094 0)
(7.26752 -0.00190345 0)
(7.26764 -0.00176634 0)
(7.26774 -0.00163738 0)
(7.26784 -0.00151487 0)
(7.26792 -0.00139853 0)
(7.26799 -0.00128915 0)
(7.26805 -0.0011884 0)
(7.26808 -0.00109918 0)
(7.26811 -0.00102435 0)
(7.26812 -0.000967888 0)
(7.26812 -0.000932578 0)
(7.26811 -0.000922231 0)
(7.26809 -0.000938448 0)
(7.26807 -0.000983817 0)
(7.26804 -0.00105888 0)
(7.26804 -0.00116248 0)
(7.26802 -0.00130356 0)
(7.26809 -0.00143629 0)
(7.2681 -0.00175619 0)
(5.00002 -0.000943794 0)
(5.00015 -0.00283112 0)
(5.00043 -0.00471873 0)
(5.00087 -0.00660653 0)
(5.00144 -0.0084947 0)
(5.00216 -0.0103837 0)
(5.00301 -0.0122743 0)
(5.004 -0.0141675 0)
(5.00514 -0.0160649 0)
(5.0064 -0.0179682 0)
(5.00781 -0.0198796 0)
(5.00935 -0.0218018 0)
(5.01102 -0.0237377 0)
(5.01283 -0.0256907 0)
(5.01477 -0.0276646 0)
(5.01685 -0.0296634 0)
(5.01907 -0.0316916 0)
(5.02142 -0.0337539 0)
(5.02391 -0.0358554 0)
(5.02653 -0.0380014 0)
(5.02931 -0.0401974 0)
(5.03222 -0.0424493 0)
(5.03529 -0.0447633 0)
(5.03851 -0.0471457 0)
(5.04189 -0.049603 0)
(5.04542 -0.0521421 0)
(5.04913 -0.0547699 0)
(5.05301 -0.0574935 0)
(5.05707 -0.0603204 0)
(5.06133 -0.0632581 0)
(5.06577 -0.0663144 0)
(5.07043 -0.069497 0)
(5.07529 -0.0728141 0)
(5.08039 -0.0762738 0)
(5.08571 -0.0798846 0)
(5.09129 -0.083655 0)
(5.09712 -0.0875937 0)
(5.10322 -0.0917094 0)
(5.10961 -0.0960112 0)
(5.1163 -0.100508 0)
(5.1233 -0.105209 0)
(5.13063 -0.110124 0)
(5.13831 -0.115262 0)
(5.14636 -0.120632 0)
(5.15479 -0.126245 0)
(5.16361 -0.132109 0)
(5.17287 -0.138235 0)
(5.18256 -0.144632 0)
(5.19272 -0.151309 0)
(5.20337 -0.158278 0)
(5.21453 -0.165546 0)
(5.22623 -0.173125 0)
(5.2385 -0.181022 0)
(5.25136 -0.189247 0)
(5.26484 -0.197808 0)
(5.27897 -0.206713 0)
(5.2938 -0.21597 0)
(5.30934 -0.225584 0)
(5.32565 -0.235561 0)
(5.34275 -0.245903 0)
(5.36069 -0.256611 0)
(5.37951 -0.267684 0)
(5.39926 -0.279118 0)
(5.41998 -0.290902 0)
(5.44173 -0.303024 0)
(5.46455 -0.315465 0)
(5.48851 -0.328199 0)
(5.51365 -0.341191 0)
(5.54004 -0.354399 0)
(5.56772 -0.36777 0)
(5.59674 -0.381239 0)
(5.62716 -0.394728 0)
(5.65902 -0.408147 0)
(5.69235 -0.42139 0)
(5.72717 -0.434338 0)
(5.76348 -0.446858 0)