/*--------------------------------*- C++ -*----------------------------------*\
  =========                 |
  \\      /  F ield         | OpenFOAM: The Open Source CFD Toolbox
   \\    /   O peration     | Website:  https://openfoam.org
    \\  /    A nd           | Version:  10
     \\/     M anipulation  |
\*---------------------------------------------------------------------------*/
FoamFile
{
    format      ascii;
    class       volScalarField;
    location    "0.77";
    object      p;
}
// * * * * * * * * * * * * * * * * * * * * * * * * * * * * * * * * * * * * * //

dimensions      [1 -1 -2 0 0 0 0];

internalField   nonuniform List<scalar> 
12225
(
1.53591e+07
1.52994e+07
1.51924e+07
1.50513e+07
1.48872e+07
1.47086e+07
1.45217e+07
1.43303e+07
1.4137e+07
1.39433e+07
1.375e+07
1.3557e+07
1.33641e+07
1.31703e+07
1.29737e+07
1.27711e+07
1.25559e+07
1.23113e+07
1.53615e+07
1.53015e+07
1.51942e+07
1.50527e+07
1.48883e+07
1.47095e+07
1.45224e+07
1.43309e+07
1.41375e+07
1.39439e+07
1.37505e+07
1.35577e+07
1.3365e+07
1.31715e+07
1.29754e+07
1.2774e+07
1.25618e+07
1.23288e+07
1.53668e+07
1.53063e+07
1.51982e+07
1.50558e+07
1.48907e+07
1.47114e+07
1.45239e+07
1.43322e+07
1.41387e+07
1.39451e+07
1.37518e+07
1.35592e+07
1.33669e+07
1.3174e+07
1.29792e+07
1.278e+07
1.25732e+07
1.23551e+07
1.53756e+07
1.53142e+07
1.52047e+07
1.5061e+07
1.48947e+07
1.47145e+07
1.45264e+07
1.43343e+07
1.41407e+07
1.3947e+07
1.37539e+07
1.35617e+07
1.337e+07
1.31782e+07
1.29851e+07
1.27894e+07
1.25893e+07
1.23856e+07
1.53887e+07
1.53259e+07
1.52143e+07
1.50686e+07
1.49006e+07
1.47191e+07
1.45301e+07
1.43374e+07
1.41435e+07
1.39498e+07
1.37569e+07
1.35652e+07
1.33744e+07
1.3184e+07
1.29934e+07
1.28018e+07
1.26091e+07
1.24181e+07
1.5407e+07
1.53421e+07
1.52276e+07
1.5079e+07
1.49086e+07
1.47253e+07
1.4535e+07
1.43415e+07
1.41472e+07
1.39535e+07
1.3761e+07
1.35699e+07
1.33802e+07
1.31917e+07
1.3004e+07
1.2817e+07
1.26316e+07
1.24513e+07
1.54315e+07
1.53638e+07
1.52452e+07
1.50926e+07
1.4919e+07
1.47333e+07
1.45413e+07
1.43469e+07
1.41521e+07
1.39583e+07
1.37661e+07
1.35759e+07
1.33876e+07
1.32012e+07
1.30168e+07
1.28347e+07
1.26562e+07
1.24846e+07
1.54636e+07
1.53919e+07
1.52679e+07
1.51101e+07
1.49321e+07
1.47433e+07
1.45492e+07
1.43535e+07
1.4158e+07
1.39641e+07
1.37724e+07
1.35832e+07
1.33965e+07
1.32126e+07
1.30316e+07
1.28543e+07
1.26822e+07
1.25179e+07
1.55051e+07
1.54279e+07
1.52965e+07
1.51317e+07
1.49483e+07
1.47555e+07
1.45588e+07
1.43614e+07
1.41652e+07
1.39712e+07
1.378e+07
1.35918e+07
1.3407e+07
1.32256e+07
1.30482e+07
1.28756e+07
1.27091e+07
1.25509e+07
1.55582e+07
1.54733e+07
1.53319e+07
1.5158e+07
1.49676e+07
1.47699e+07
1.457e+07
1.43706e+07
1.41735e+07
1.39793e+07
1.37887e+07
1.36018e+07
1.34189e+07
1.32402e+07
1.30663e+07
1.28981e+07
1.27366e+07
1.25834e+07
1.56259e+07
1.55301e+07
1.5375e+07
1.51894e+07
1.49903e+07
1.47865e+07
1.45827e+07
1.43811e+07
1.41828e+07
1.39885e+07
1.37985e+07
1.36129e+07
1.3432e+07
1.32561e+07
1.30856e+07
1.29214e+07
1.27643e+07
1.26154e+07
1.57053e+07
1.55946e+07
1.54224e+07
1.52229e+07
1.50139e+07
1.48036e+07
1.45956e+07
1.43916e+07
1.41922e+07
1.39977e+07
1.38083e+07
1.36239e+07
1.34449e+07
1.32715e+07
1.3104e+07
1.29431e+07
1.27895e+07
1.2644e+07
1.58027e+07
1.5671e+07
1.54764e+07
1.52598e+07
1.50392e+07
1.48215e+07
1.4609e+07
1.44025e+07
1.42019e+07
1.40073e+07
1.38184e+07
1.36354e+07
1.34583e+07
1.32872e+07
1.31225e+07
1.29647e+07
1.28143e+07
1.26716e+07
1.5946e+07
1.57767e+07
1.55468e+07
1.53057e+07
1.50696e+07
1.48424e+07
1.46244e+07
1.44148e+07
1.4213e+07
1.40183e+07
1.38303e+07
1.36488e+07
1.34738e+07
1.33054e+07
1.31437e+07
1.2989e+07
1.28417e+07
1.27019e+07
1.61678e+07
1.5923e+07
1.56351e+07
1.53591e+07
1.5103e+07
1.48646e+07
1.46403e+07
1.44276e+07
1.42246e+07
1.403e+07
1.38432e+07
1.36636e+07
1.34911e+07
1.33255e+07
1.31669e+07
1.30155e+07
1.28713e+07
1.27343e+07
1.65392e+07
1.61166e+07
1.5733e+07
1.54111e+07
1.51325e+07
1.48827e+07
1.46529e+07
1.44378e+07
1.42344e+07
1.40407e+07
1.38557e+07
1.36785e+07
1.35088e+07
1.33464e+07
1.31911e+07
1.30429e+07
1.29018e+07
1.27676e+07
1.72487e+07
1.6308e+07
1.57942e+07
1.54326e+07
1.514e+07
1.4885e+07
1.46539e+07
1.44395e+07
1.42379e+07
1.40467e+07
1.38647e+07
1.36908e+07
1.35246e+07
1.33658e+07
1.32141e+07
1.30693e+07
1.29312e+07
1.27998e+07
1.6366e+07
1.60114e+07
1.56625e+07
1.53584e+07
1.50912e+07
1.48506e+07
1.46292e+07
1.44223e+07
1.42271e+07
1.40416e+07
1.38649e+07
1.3696e+07
1.35345e+07
1.338e+07
1.32324e+07
1.30913e+07
1.29565e+07
1.28279e+07
1.57594e+07
1.56115e+07
1.54072e+07
1.51895e+07
1.49744e+07
1.47668e+07
1.45678e+07
1.43772e+07
1.41944e+07
1.4019e+07
1.38506e+07
1.3689e+07
1.35337e+07
1.33848e+07
1.3242e+07
1.31051e+07
1.2974e+07
1.28485e+07
1.54058e+07
1.532e+07
1.51828e+07
1.50198e+07
1.48458e+07
1.46687e+07
1.44924e+07
1.43191e+07
1.41498e+07
1.39853e+07
1.38257e+07
1.36713e+07
1.35222e+07
1.33785e+07
1.324e+07
1.31069e+07
1.29789e+07
1.28561e+07
1.52012e+07
1.51388e+07
1.50326e+07
1.4899e+07
1.47498e+07
1.45927e+07
1.44322e+07
1.42715e+07
1.41123e+07
1.39558e+07
1.38029e+07
1.3654e+07
1.35095e+07
1.33696e+07
1.32343e+07
1.31039e+07
1.29781e+07
1.28571e+07
1.50645e+07
1.50139e+07
1.49248e+07
1.4809e+07
1.46761e+07
1.45327e+07
1.43837e+07
1.42324e+07
1.40808e+07
1.39306e+07
1.37829e+07
1.36383e+07
1.34973e+07
1.33604e+07
1.32276e+07
1.30992e+07
1.29752e+07
1.28555e+07
1.49715e+07
1.49274e+07
1.48484e+07
1.47438e+07
1.46214e+07
1.44875e+07
1.43466e+07
1.4202e+07
1.40561e+07
1.39105e+07
1.37666e+07
1.36252e+07
1.3487e+07
1.33522e+07
1.32213e+07
1.30944e+07
1.29717e+07
1.28531e+07
1.49078e+07
1.48677e+07
1.47949e+07
1.46974e+07
1.45821e+07
1.44546e+07
1.43192e+07
1.41794e+07
1.40374e+07
1.38952e+07
1.37541e+07
1.36151e+07
1.34787e+07
1.33456e+07
1.3216e+07
1.30903e+07
1.29684e+07
1.28505e+07
1.48646e+07
1.48268e+07
1.47581e+07
1.46652e+07
1.45545e+07
1.44312e+07
1.42997e+07
1.41631e+07
1.40239e+07
1.38841e+07
1.37449e+07
1.36075e+07
1.34725e+07
1.33405e+07
1.32119e+07
1.30869e+07
1.29657e+07
1.28483e+07
1.48358e+07
1.47996e+07
1.47333e+07
1.46433e+07
1.45356e+07
1.44152e+07
1.42862e+07
1.41518e+07
1.40145e+07
1.38763e+07
1.37384e+07
1.36021e+07
1.3468e+07
1.33368e+07
1.32088e+07
1.30844e+07
1.29636e+07
1.28465e+07
1.48173e+07
1.4782e+07
1.47173e+07
1.46292e+07
1.45234e+07
1.44048e+07
1.42774e+07
1.41444e+07
1.40083e+07
1.38711e+07
1.37341e+07
1.35985e+07
1.3465e+07
1.33343e+07
1.32067e+07
1.30826e+07
1.29621e+07
1.28453e+07
1.4806e+07
1.47713e+07
1.47075e+07
1.46205e+07
1.45159e+07
1.43983e+07
1.42719e+07
1.41398e+07
1.40044e+07
1.38678e+07
1.37314e+07
1.35962e+07
1.34631e+07
1.33327e+07
1.32054e+07
1.30815e+07
1.29611e+07
1.28444e+07
1.48e+07
1.47655e+07
1.47022e+07
1.46158e+07
1.45118e+07
1.43948e+07
1.42689e+07
1.41373e+07
1.40023e+07
1.38661e+07
1.37299e+07
1.3595e+07
1.34621e+07
1.33318e+07
1.32046e+07
1.30808e+07
1.29606e+07
1.2844e+07
1.47975e+07
1.47632e+07
1.47001e+07
1.46139e+07
1.45101e+07
1.43934e+07
1.42677e+07
1.41363e+07
1.40015e+07
1.38653e+07
1.37293e+07
1.35945e+07
1.34616e+07
1.33315e+07
1.32043e+07
1.30806e+07
1.29603e+07
1.28438e+07
1.07138e+07
1.07138e+07
1.07137e+07
1.07136e+07
1.07135e+07
1.07134e+07
1.07132e+07
1.0713e+07
1.07128e+07
1.07126e+07
1.07123e+07
1.0712e+07
1.07116e+07
1.07112e+07
1.07108e+07
1.07104e+07
1.07099e+07
1.07094e+07
1.07088e+07
1.07083e+07
1.07077e+07
1.0707e+07
1.07063e+07
1.07056e+07
1.07049e+07
1.07041e+07
1.07033e+07
1.07024e+07
1.07016e+07
1.07006e+07
1.06997e+07
1.06987e+07
1.06977e+07
1.06967e+07
1.06956e+07
1.06945e+07
1.06933e+07
1.06922e+07
1.0691e+07
1.06897e+07
1.06885e+07
1.06872e+07
1.06858e+07
1.06845e+07
1.06831e+07
1.06817e+07
1.06802e+07
1.06788e+07
1.06773e+07
1.06757e+07
1.06742e+07
1.06726e+07
1.0671e+07
1.06693e+07
1.06676e+07
1.06659e+07
1.06642e+07
1.06625e+07
1.06607e+07
1.06589e+07
1.0657e+07
1.06552e+07
1.06533e+07
1.06514e+07
1.06495e+07
1.06475e+07
1.06455e+07
1.06435e+07
1.06415e+07
1.06394e+07
1.06373e+07
1.06352e+07
1.06331e+07
1.0631e+07
1.06288e+07
1.06266e+07
1.06244e+07
1.06221e+07
1.06198e+07
1.06175e+07
1.06152e+07
1.06129e+07
1.06105e+07
1.06081e+07
1.06057e+07
1.06033e+07
1.06008e+07
1.05984e+07
1.05959e+07
1.05933e+07
1.05908e+07
1.05882e+07
1.05856e+07
1.0583e+07
1.05804e+07
1.05777e+07
1.0575e+07
1.05723e+07
1.05696e+07
1.05668e+07
1.0564e+07
1.05612e+07
1.05584e+07
1.05555e+07
1.05527e+07
1.05498e+07
1.05468e+07
1.05439e+07
1.05409e+07
1.05379e+07
1.05349e+07
1.05319e+07
1.05288e+07
1.05257e+07
1.05226e+07
1.05194e+07
1.05163e+07
1.05131e+07
1.05098e+07
1.05066e+07
1.05033e+07
1.05e+07
1.04967e+07
1.04933e+07
1.049e+07
1.04866e+07
1.04831e+07
1.04797e+07
1.04762e+07
1.04727e+07
1.04691e+07
1.04656e+07
1.0462e+07
1.04583e+07
1.04547e+07
1.0451e+07
1.04473e+07
1.04436e+07
1.04398e+07
1.0436e+07
1.04322e+07
1.04283e+07
1.04244e+07
1.04205e+07
1.04166e+07
1.04126e+07
1.04086e+07
1.04045e+07
1.04005e+07
1.03964e+07
1.03922e+07
1.0388e+07
1.03838e+07
1.03796e+07
1.03753e+07
1.0371e+07
1.03667e+07
1.03623e+07
1.03579e+07
1.03535e+07
1.0349e+07
1.03445e+07
1.034e+07
1.03354e+07
1.03308e+07
1.03262e+07
1.03215e+07
1.03168e+07
1.0312e+07
1.03073e+07
1.03024e+07
1.02976e+07
1.02927e+07
1.02878e+07
1.02829e+07
1.02779e+07
1.02729e+07
1.02679e+07
1.02629e+07
1.0258e+07
1.07139e+07
1.07139e+07
1.07138e+07
1.07138e+07
1.07136e+07
1.07135e+07
1.07133e+07
1.07131e+07
1.07129e+07
1.07127e+07
1.07124e+07
1.07121e+07
1.07117e+07
1.07113e+07
1.07109e+07
1.07105e+07
1.071e+07
1.07095e+07
1.07089e+07
1.07084e+07
1.07077e+07
1.07071e+07
1.07064e+07
1.07057e+07
1.0705e+07
1.07042e+07
1.07034e+07
1.07025e+07
1.07016e+07
1.07007e+07
1.06998e+07
1.06988e+07
1.06978e+07
1.06967e+07
1.06957e+07
1.06945e+07
1.06934e+07
1.06922e+07
1.0691e+07
1.06898e+07
1.06885e+07
1.06872e+07
1.06859e+07
1.06845e+07
1.06831e+07
1.06817e+07
1.06803e+07
1.06788e+07
1.06773e+07
1.06758e+07
1.06742e+07
1.06726e+07
1.0671e+07
1.06693e+07
1.06677e+07
1.0666e+07
1.06642e+07
1.06625e+07
1.06607e+07
1.06589e+07
1.06571e+07
1.06552e+07
1.06533e+07
1.06514e+07
1.06495e+07
1.06475e+07
1.06455e+07
1.06435e+07
1.06415e+07
1.06394e+07
1.06374e+07
1.06352e+07
1.06331e+07
1.0631e+07
1.06288e+07
1.06266e+07
1.06244e+07
1.06221e+07
1.06198e+07
1.06175e+07
1.06152e+07
1.06129e+07
1.06105e+07
1.06081e+07
1.06057e+07
1.06033e+07
1.06008e+07
1.05984e+07
1.05959e+07
1.05933e+07
1.05908e+07
1.05882e+07
1.05856e+07
1.0583e+07
1.05804e+07
1.05777e+07
1.0575e+07
1.05723e+07
1.05696e+07
1.05668e+07
1.0564e+07
1.05612e+07
1.05584e+07
1.05555e+07
1.05527e+07
1.05498e+07
1.05468e+07
1.05439e+07
1.05409e+07
1.05379e+07
1.05349e+07
1.05318e+07
1.05288e+07
1.05257e+07
1.05226e+07
1.05194e+07
1.05163e+07
1.05131e+07
1.05098e+07
1.05066e+07
1.05033e+07
1.05e+07
1.04967e+07
1.04933e+07
1.049e+07
1.04866e+07
1.04831e+07
1.04797e+07
1.04762e+07
1.04727e+07
1.04691e+07
1.04656e+07
1.0462e+07
1.04583e+07
1.04547e+07
1.0451e+07
1.04473e+07
1.04436e+07
1.04398e+07
1.0436e+07
1.04322e+07
1.04283e+07
1.04244e+07
1.04205e+07
1.04166e+07
1.04126e+07
1.04086e+07
1.04045e+07
1.04005e+07
1.03963e+07
1.03922e+07
1.0388e+07
1.03838e+07
1.03796e+07
1.03753e+07
1.0371e+07
1.03667e+07
1.03623e+07
1.03579e+07
1.03535e+07
1.0349e+07
1.03445e+07
1.034e+07
1.03354e+07
1.03308e+07
1.03262e+07
1.03215e+07
1.03168e+07
1.0312e+07
1.03073e+07
1.03024e+07
1.02976e+07
1.02927e+07
1.02878e+07
1.02828e+07
1.02779e+07
1.02729e+07
1.02679e+07
1.02629e+07
1.02579e+07
1.07141e+07
1.07141e+07
1.07141e+07
1.0714e+07
1.07139e+07
1.07137e+07
1.07136e+07
1.07134e+07
1.07131e+07
1.07129e+07
1.07126e+07
1.07123e+07
1.07119e+07
1.07115e+07
1.07111e+07
1.07107e+07
1.07102e+07
1.07097e+07
1.07091e+07
1.07085e+07
1.07079e+07
1.07073e+07
1.07066e+07
1.07059e+07
1.07051e+07
1.07043e+07
1.07035e+07
1.07027e+07
1.07018e+07
1.07009e+07
1.06999e+07
1.06989e+07
1.06979e+07
1.06969e+07
1.06958e+07
1.06947e+07
1.06935e+07
1.06923e+07
1.06911e+07
1.06899e+07
1.06886e+07
1.06873e+07
1.0686e+07
1.06846e+07
1.06832e+07
1.06818e+07
1.06803e+07
1.06789e+07
1.06774e+07
1.06758e+07
1.06743e+07
1.06727e+07
1.0671e+07
1.06694e+07
1.06677e+07
1.0666e+07
1.06643e+07
1.06625e+07
1.06607e+07
1.06589e+07
1.06571e+07
1.06552e+07
1.06534e+07
1.06514e+07
1.06495e+07
1.06475e+07
1.06456e+07
1.06436e+07
1.06415e+07
1.06395e+07
1.06374e+07
1.06353e+07
1.06331e+07
1.0631e+07
1.06288e+07
1.06266e+07
1.06244e+07
1.06221e+07
1.06199e+07
1.06176e+07
1.06152e+07
1.06129e+07
1.06105e+07
1.06081e+07
1.06057e+07
1.06033e+07
1.06008e+07
1.05984e+07
1.05959e+07
1.05933e+07
1.05908e+07
1.05882e+07
1.05856e+07
1.0583e+07
1.05804e+07
1.05777e+07
1.0575e+07
1.05723e+07
1.05696e+07
1.05668e+07
1.0564e+07
1.05612e+07
1.05584e+07
1.05555e+07
1.05527e+07
1.05498e+07
1.05468e+07
1.05439e+07
1.05409e+07
1.05379e+07
1.05349e+07
1.05318e+07
1.05288e+07
1.05257e+07
1.05226e+07
1.05194e+07
1.05162e+07
1.05131e+07
1.05098e+07
1.05066e+07
1.05033e+07
1.05e+07
1.04967e+07
1.04933e+07
1.049e+07
1.04866e+07
1.04831e+07
1.04797e+07
1.04762e+07
1.04727e+07
1.04691e+07
1.04656e+07
1.0462e+07
1.04583e+07
1.04547e+07
1.0451e+07
1.04473e+07
1.04436e+07
1.04398e+07
1.0436e+07
1.04322e+07
1.04283e+07
1.04244e+07
1.04205e+07
1.04166e+07
1.04126e+07
1.04086e+07
1.04045e+07
1.04005e+07
1.03963e+07
1.03922e+07
1.0388e+07
1.03838e+07
1.03796e+07
1.03753e+07
1.0371e+07
1.03667e+07
1.03623e+07
1.03579e+07
1.03535e+07
1.0349e+07
1.03445e+07
1.034e+07
1.03354e+07
1.03308e+07
1.03262e+07
1.03215e+07
1.03168e+07
1.0312e+07
1.03072e+07
1.03024e+07
1.02976e+07
1.02927e+07
1.02878e+07
1.02828e+07
1.02779e+07
1.02729e+07
1.02679e+07
1.02629e+07
1.02579e+07
1.07145e+07
1.07145e+07
1.07144e+07
1.07143e+07
1.07142e+07
1.07141e+07
1.07139e+07
1.07137e+07
1.07135e+07
1.07132e+07
1.07129e+07
1.07126e+07
1.07123e+07
1.07119e+07
1.07114e+07
1.0711e+07
1.07105e+07
1.071e+07
1.07094e+07
1.07088e+07
1.07082e+07
1.07075e+07
1.07069e+07
1.07061e+07
1.07054e+07
1.07046e+07
1.07038e+07
1.07029e+07
1.0702e+07
1.07011e+07
1.07001e+07
1.06991e+07
1.06981e+07
1.0697e+07
1.0696e+07
1.06948e+07
1.06937e+07
1.06925e+07
1.06913e+07
1.069e+07
1.06888e+07
1.06874e+07
1.06861e+07
1.06847e+07
1.06833e+07
1.06819e+07
1.06805e+07
1.0679e+07
1.06775e+07
1.06759e+07
1.06743e+07
1.06727e+07
1.06711e+07
1.06695e+07
1.06678e+07
1.06661e+07
1.06643e+07
1.06626e+07
1.06608e+07
1.0659e+07
1.06572e+07
1.06553e+07
1.06534e+07
1.06515e+07
1.06496e+07
1.06476e+07
1.06456e+07
1.06436e+07
1.06416e+07
1.06395e+07
1.06374e+07
1.06353e+07
1.06332e+07
1.0631e+07
1.06288e+07
1.06266e+07
1.06244e+07
1.06221e+07
1.06199e+07
1.06176e+07
1.06153e+07
1.06129e+07
1.06105e+07
1.06082e+07
1.06057e+07
1.06033e+07
1.06008e+07
1.05984e+07
1.05959e+07
1.05933e+07
1.05908e+07
1.05882e+07
1.05856e+07
1.0583e+07
1.05804e+07
1.05777e+07
1.0575e+07
1.05723e+07
1.05696e+07
1.05668e+07
1.0564e+07
1.05612e+07
1.05584e+07
1.05555e+07
1.05527e+07
1.05498e+07
1.05468e+07
1.05439e+07
1.05409e+07
1.05379e+07
1.05349e+07
1.05318e+07
1.05288e+07
1.05257e+07
1.05226e+07
1.05194e+07
1.05162e+07
1.05131e+07
1.05098e+07
1.05066e+07
1.05033e+07
1.05e+07
1.04967e+07
1.04933e+07
1.049e+07
1.04866e+07
1.04831e+07
1.04797e+07
1.04762e+07
1.04727e+07
1.04691e+07
1.04656e+07
1.0462e+07
1.04583e+07
1.04547e+07
1.0451e+07
1.04473e+07
1.04436e+07
1.04398e+07
1.0436e+07
1.04322e+07
1.04283e+07
1.04244e+07
1.04205e+07
1.04166e+07
1.04126e+07
1.04086e+07
1.04045e+07
1.04004e+07
1.03963e+07
1.03922e+07
1.0388e+07
1.03838e+07
1.03796e+07
1.03753e+07
1.0371e+07
1.03667e+07
1.03623e+07
1.03579e+07
1.03535e+07
1.0349e+07
1.03445e+07
1.034e+07
1.03354e+07
1.03308e+07
1.03262e+07
1.03215e+07
1.03168e+07
1.0312e+07
1.03072e+07
1.03024e+07
1.02976e+07
1.02927e+07
1.02878e+07
1.02828e+07
1.02779e+07
1.02729e+07
1.02678e+07
1.02628e+07
1.02578e+07
1.0715e+07
1.0715e+07
1.07149e+07
1.07148e+07
1.07147e+07
1.07146e+07
1.07144e+07
1.07142e+07
1.07139e+07
1.07137e+07
1.07134e+07
1.07131e+07
1.07127e+07
1.07123e+07
1.07119e+07
1.07114e+07
1.07109e+07
1.07104e+07
1.07098e+07
1.07092e+07
1.07086e+07
1.07079e+07
1.07072e+07
1.07065e+07
1.07057e+07
1.07049e+07
1.07041e+07
1.07032e+07
1.07023e+07
1.07014e+07
1.07004e+07
1.06994e+07
1.06984e+07
1.06973e+07
1.06962e+07
1.06951e+07
1.06939e+07
1.06927e+07
1.06915e+07
1.06902e+07
1.06889e+07
1.06876e+07
1.06863e+07
1.06849e+07
1.06835e+07
1.06821e+07
1.06806e+07
1.06791e+07
1.06776e+07
1.0676e+07
1.06745e+07
1.06729e+07
1.06712e+07
1.06696e+07
1.06679e+07
1.06662e+07
1.06644e+07
1.06627e+07
1.06609e+07
1.06591e+07
1.06572e+07
1.06554e+07
1.06535e+07
1.06516e+07
1.06496e+07
1.06476e+07
1.06457e+07
1.06436e+07
1.06416e+07
1.06395e+07
1.06374e+07
1.06353e+07
1.06332e+07
1.0631e+07
1.06289e+07
1.06267e+07
1.06244e+07
1.06222e+07
1.06199e+07
1.06176e+07
1.06153e+07
1.06129e+07
1.06106e+07
1.06082e+07
1.06058e+07
1.06033e+07
1.06009e+07
1.05984e+07
1.05959e+07
1.05933e+07
1.05908e+07
1.05882e+07
1.05856e+07
1.0583e+07
1.05804e+07
1.05777e+07
1.0575e+07
1.05723e+07
1.05696e+07
1.05668e+07
1.0564e+07
1.05612e+07
1.05584e+07
1.05555e+07
1.05527e+07
1.05498e+07
1.05468e+07
1.05439e+07
1.05409e+07
1.05379e+07
1.05349e+07
1.05318e+07
1.05288e+07
1.05257e+07
1.05226e+07
1.05194e+07
1.05162e+07
1.05131e+07
1.05098e+07
1.05066e+07
1.05033e+07
1.05e+07
1.04967e+07
1.04933e+07
1.049e+07
1.04866e+07
1.04831e+07
1.04797e+07
1.04762e+07
1.04727e+07
1.04691e+07
1.04656e+07
1.0462e+07
1.04583e+07
1.04547e+07
1.0451e+07
1.04473e+07
1.04436e+07
1.04398e+07
1.0436e+07
1.04322e+07
1.04283e+07
1.04244e+07
1.04205e+07
1.04165e+07
1.04126e+07
1.04086e+07
1.04045e+07
1.04004e+07
1.03963e+07
1.03922e+07
1.0388e+07
1.03838e+07
1.03796e+07
1.03753e+07
1.0371e+07
1.03667e+07
1.03623e+07
1.03579e+07
1.03535e+07
1.0349e+07
1.03445e+07
1.034e+07
1.03354e+07
1.03308e+07
1.03262e+07
1.03215e+07
1.03168e+07
1.0312e+07
1.03072e+07
1.03024e+07
1.02976e+07
1.02927e+07
1.02878e+07
1.02828e+07
1.02778e+07
1.02728e+07
1.02678e+07
1.02628e+07
1.02577e+07
1.07156e+07
1.07156e+07
1.07155e+07
1.07154e+07
1.07153e+07
1.07151e+07
1.0715e+07
1.07148e+07
1.07145e+07
1.07142e+07
1.07139e+07
1.07136e+07
1.07132e+07
1.07128e+07
1.07124e+07
1.07119e+07
1.07114e+07
1.07109e+07
1.07103e+07
1.07097e+07
1.07091e+07
1.07084e+07
1.07077e+07
1.07069e+07
1.07061e+07
1.07053e+07
1.07045e+07
1.07036e+07
1.07027e+07
1.07017e+07
1.07008e+07
1.06997e+07
1.06987e+07
1.06976e+07
1.06965e+07
1.06954e+07
1.06942e+07
1.0693e+07
1.06918e+07
1.06905e+07
1.06892e+07
1.06879e+07
1.06865e+07
1.06851e+07
1.06837e+07
1.06823e+07
1.06808e+07
1.06793e+07
1.06778e+07
1.06762e+07
1.06746e+07
1.0673e+07
1.06714e+07
1.06697e+07
1.0668e+07
1.06663e+07
1.06646e+07
1.06628e+07
1.0661e+07
1.06592e+07
1.06573e+07
1.06554e+07
1.06536e+07
1.06516e+07
1.06497e+07
1.06477e+07
1.06457e+07
1.06437e+07
1.06417e+07
1.06396e+07
1.06375e+07
1.06354e+07
1.06332e+07
1.06311e+07
1.06289e+07
1.06267e+07
1.06245e+07
1.06222e+07
1.06199e+07
1.06176e+07
1.06153e+07
1.0613e+07
1.06106e+07
1.06082e+07
1.06058e+07
1.06033e+07
1.06009e+07
1.05984e+07
1.05959e+07
1.05934e+07
1.05908e+07
1.05882e+07
1.05856e+07
1.0583e+07
1.05804e+07
1.05777e+07
1.0575e+07
1.05723e+07
1.05696e+07
1.05668e+07
1.0564e+07
1.05612e+07
1.05584e+07
1.05555e+07
1.05527e+07
1.05498e+07
1.05468e+07
1.05439e+07
1.05409e+07
1.05379e+07
1.05349e+07
1.05318e+07
1.05288e+07
1.05257e+07
1.05226e+07
1.05194e+07
1.05162e+07
1.0513e+07
1.05098e+07
1.05066e+07
1.05033e+07
1.05e+07
1.04967e+07
1.04933e+07
1.049e+07
1.04866e+07
1.04831e+07
1.04797e+07
1.04762e+07
1.04727e+07
1.04691e+07
1.04656e+07
1.0462e+07
1.04583e+07
1.04547e+07
1.0451e+07
1.04473e+07
1.04436e+07
1.04398e+07
1.0436e+07
1.04322e+07
1.04283e+07
1.04244e+07
1.04205e+07
1.04165e+07
1.04126e+07
1.04086e+07
1.04045e+07
1.04004e+07
1.03963e+07
1.03922e+07
1.0388e+07
1.03838e+07
1.03796e+07
1.03753e+07
1.0371e+07
1.03667e+07
1.03623e+07
1.03579e+07
1.03535e+07
1.0349e+07
1.03445e+07
1.034e+07
1.03354e+07
1.03308e+07
1.03262e+07
1.03215e+07
1.03168e+07
1.0312e+07
1.03072e+07
1.03024e+07
1.02976e+07
1.02927e+07
1.02878e+07
1.02828e+07
1.02778e+07
1.02728e+07
1.02678e+07
1.02627e+07
1.02576e+07
1.07163e+07
1.07163e+07
1.07162e+07
1.07161e+07
1.0716e+07
1.07159e+07
1.07157e+07
1.07155e+07
1.07152e+07
1.07149e+07
1.07146e+07
1.07143e+07
1.07139e+07
1.07135e+07
1.0713e+07
1.07126e+07
1.0712e+07
1.07115e+07
1.07109e+07
1.07103e+07
1.07096e+07
1.07089e+07
1.07082e+07
1.07074e+07
1.07066e+07
1.07058e+07
1.0705e+07
1.07041e+07
1.07031e+07
1.07022e+07
1.07012e+07
1.07001e+07
1.06991e+07
1.0698e+07
1.06969e+07
1.06957e+07
1.06945e+07
1.06933e+07
1.06921e+07
1.06908e+07
1.06895e+07
1.06881e+07
1.06868e+07
1.06854e+07
1.06839e+07
1.06825e+07
1.0681e+07
1.06795e+07
1.0678e+07
1.06764e+07
1.06748e+07
1.06732e+07
1.06715e+07
1.06699e+07
1.06682e+07
1.06664e+07
1.06647e+07
1.06629e+07
1.06611e+07
1.06593e+07
1.06574e+07
1.06556e+07
1.06537e+07
1.06517e+07
1.06498e+07
1.06478e+07
1.06458e+07
1.06438e+07
1.06417e+07
1.06397e+07
1.06376e+07
1.06354e+07
1.06333e+07
1.06311e+07
1.06289e+07
1.06267e+07
1.06245e+07
1.06222e+07
1.062e+07
1.06177e+07
1.06153e+07
1.0613e+07
1.06106e+07
1.06082e+07
1.06058e+07
1.06034e+07
1.06009e+07
1.05984e+07
1.05959e+07
1.05934e+07
1.05908e+07
1.05883e+07
1.05857e+07
1.0583e+07
1.05804e+07
1.05777e+07
1.0575e+07
1.05723e+07
1.05696e+07
1.05668e+07
1.0564e+07
1.05612e+07
1.05584e+07
1.05555e+07
1.05527e+07
1.05498e+07
1.05468e+07
1.05439e+07
1.05409e+07
1.05379e+07
1.05349e+07
1.05318e+07
1.05288e+07
1.05257e+07
1.05226e+07
1.05194e+07
1.05162e+07
1.0513e+07
1.05098e+07
1.05066e+07
1.05033e+07
1.05e+07
1.04967e+07
1.04933e+07
1.049e+07
1.04865e+07
1.04831e+07
1.04797e+07
1.04762e+07
1.04727e+07
1.04691e+07
1.04656e+07
1.0462e+07
1.04583e+07
1.04547e+07
1.0451e+07
1.04473e+07
1.04435e+07
1.04398e+07
1.0436e+07
1.04322e+07
1.04283e+07
1.04244e+07
1.04205e+07
1.04165e+07
1.04126e+07
1.04086e+07
1.04045e+07
1.04004e+07
1.03963e+07
1.03922e+07
1.0388e+07
1.03838e+07
1.03796e+07
1.03753e+07
1.0371e+07
1.03667e+07
1.03623e+07
1.03579e+07
1.03535e+07
1.0349e+07
1.03445e+07
1.034e+07
1.03354e+07
1.03308e+07
1.03262e+07
1.03215e+07
1.03168e+07
1.0312e+07
1.03072e+07
1.03024e+07
1.02975e+07
1.02927e+07
1.02877e+07
1.02828e+07
1.02778e+07
1.02728e+07
1.02677e+07
1.02627e+07
1.02576e+07
1.07172e+07
1.07171e+07
1.07171e+07
1.0717e+07
1.07169e+07
1.07167e+07
1.07165e+07
1.07163e+07
1.0716e+07
1.07157e+07
1.07154e+07
1.07151e+07
1.07147e+07
1.07143e+07
1.07138e+07
1.07133e+07
1.07128e+07
1.07122e+07
1.07116e+07
1.0711e+07
1.07103e+07
1.07096e+07
1.07088e+07
1.07081e+07
1.07072e+07
1.07064e+07
1.07055e+07
1.07046e+07
1.07037e+07
1.07027e+07
1.07017e+07
1.07006e+07
1.06995e+07
1.06984e+07
1.06973e+07
1.06961e+07
1.06949e+07
1.06937e+07
1.06924e+07
1.06911e+07
1.06898e+07
1.06885e+07
1.06871e+07
1.06857e+07
1.06842e+07
1.06828e+07
1.06813e+07
1.06797e+07
1.06782e+07
1.06766e+07
1.0675e+07
1.06734e+07
1.06717e+07
1.06701e+07
1.06683e+07
1.06666e+07
1.06648e+07
1.06631e+07
1.06613e+07
1.06594e+07
1.06576e+07
1.06557e+07
1.06538e+07
1.06518e+07
1.06499e+07
1.06479e+07
1.06459e+07
1.06439e+07
1.06418e+07
1.06397e+07
1.06376e+07
1.06355e+07
1.06334e+07
1.06312e+07
1.0629e+07
1.06268e+07
1.06246e+07
1.06223e+07
1.062e+07
1.06177e+07
1.06154e+07
1.0613e+07
1.06107e+07
1.06083e+07
1.06058e+07
1.06034e+07
1.06009e+07
1.05984e+07
1.05959e+07
1.05934e+07
1.05908e+07
1.05883e+07
1.05857e+07
1.0583e+07
1.05804e+07
1.05777e+07
1.0575e+07
1.05723e+07
1.05696e+07
1.05668e+07
1.0564e+07
1.05612e+07
1.05584e+07
1.05555e+07
1.05527e+07
1.05498e+07
1.05468e+07
1.05439e+07
1.05409e+07
1.05379e+07
1.05349e+07
1.05319e+07
1.05288e+07
1.05257e+07
1.05226e+07
1.05194e+07
1.05162e+07
1.0513e+07
1.05098e+07
1.05066e+07
1.05033e+07
1.05e+07
1.04967e+07
1.04933e+07
1.049e+07
1.04865e+07
1.04831e+07
1.04797e+07
1.04762e+07
1.04727e+07
1.04691e+07
1.04656e+07
1.0462e+07
1.04583e+07
1.04547e+07
1.0451e+07
1.04473e+07
1.04435e+07
1.04398e+07
1.0436e+07
1.04322e+07
1.04283e+07
1.04244e+07
1.04205e+07
1.04165e+07
1.04126e+07
1.04086e+07
1.04045e+07
1.04004e+07
1.03963e+07
1.03922e+07
1.0388e+07
1.03838e+07
1.03796e+07
1.03753e+07
1.0371e+07
1.03667e+07
1.03623e+07
1.03579e+07
1.03535e+07
1.0349e+07
1.03445e+07
1.034e+07
1.03354e+07
1.03308e+07
1.03261e+07
1.03215e+07
1.03168e+07
1.0312e+07
1.03072e+07
1.03024e+07
1.02975e+07
1.02926e+07
1.02877e+07
1.02828e+07
1.02778e+07
1.02727e+07
1.02677e+07
1.02626e+07
1.02575e+07
1.07182e+07
1.07181e+07
1.07181e+07
1.0718e+07
1.07178e+07
1.07177e+07
1.07175e+07
1.07172e+07
1.0717e+07
1.07167e+07
1.07164e+07
1.0716e+07
1.07156e+07
1.07151e+07
1.07147e+07
1.07141e+07
1.07136e+07
1.0713e+07
1.07124e+07
1.07117e+07
1.0711e+07
1.07103e+07
1.07096e+07
1.07088e+07
1.07079e+07
1.07071e+07
1.07062e+07
1.07052e+07
1.07043e+07
1.07033e+07
1.07022e+07
1.07012e+07
1.07001e+07
1.06989e+07
1.06978e+07
1.06966e+07
1.06954e+07
1.06941e+07
1.06928e+07
1.06915e+07
1.06902e+07
1.06888e+07
1.06874e+07
1.0686e+07
1.06845e+07
1.06831e+07
1.06816e+07
1.068e+07
1.06785e+07
1.06769e+07
1.06753e+07
1.06736e+07
1.0672e+07
1.06703e+07
1.06685e+07
1.06668e+07
1.0665e+07
1.06632e+07
1.06614e+07
1.06596e+07
1.06577e+07
1.06558e+07
1.06539e+07
1.0652e+07
1.065e+07
1.0648e+07
1.0646e+07
1.0644e+07
1.06419e+07
1.06398e+07
1.06377e+07
1.06356e+07
1.06334e+07
1.06313e+07
1.06291e+07
1.06269e+07
1.06246e+07
1.06223e+07
1.06201e+07
1.06178e+07
1.06154e+07
1.06131e+07
1.06107e+07
1.06083e+07
1.06059e+07
1.06034e+07
1.0601e+07
1.05985e+07
1.0596e+07
1.05934e+07
1.05909e+07
1.05883e+07
1.05857e+07
1.05831e+07
1.05804e+07
1.05777e+07
1.05751e+07
1.05723e+07
1.05696e+07
1.05668e+07
1.0564e+07
1.05612e+07
1.05584e+07
1.05556e+07
1.05527e+07
1.05498e+07
1.05468e+07
1.05439e+07
1.05409e+07
1.05379e+07
1.05349e+07
1.05319e+07
1.05288e+07
1.05257e+07
1.05226e+07
1.05194e+07
1.05162e+07
1.0513e+07
1.05098e+07
1.05066e+07
1.05033e+07
1.05e+07
1.04967e+07
1.04933e+07
1.049e+07
1.04865e+07
1.04831e+07
1.04797e+07
1.04762e+07
1.04727e+07
1.04691e+07
1.04655e+07
1.0462e+07
1.04583e+07
1.04547e+07
1.0451e+07
1.04473e+07
1.04435e+07
1.04398e+07
1.0436e+07
1.04321e+07
1.04283e+07
1.04244e+07
1.04205e+07
1.04165e+07
1.04126e+07
1.04085e+07
1.04045e+07
1.04004e+07
1.03963e+07
1.03922e+07
1.0388e+07
1.03838e+07
1.03796e+07
1.03753e+07
1.0371e+07
1.03667e+07
1.03623e+07
1.03579e+07
1.03535e+07
1.0349e+07
1.03445e+07
1.034e+07
1.03354e+07
1.03308e+07
1.03261e+07
1.03215e+07
1.03167e+07
1.0312e+07
1.03072e+07
1.03024e+07
1.02975e+07
1.02926e+07
1.02877e+07
1.02827e+07
1.02777e+07
1.02727e+07
1.02676e+07
1.02625e+07
1.02574e+07
1.07193e+07
1.07192e+07
1.07192e+07
1.07191e+07
1.07189e+07
1.07188e+07
1.07186e+07
1.07183e+07
1.07181e+07
1.07177e+07
1.07174e+07
1.0717e+07
1.07166e+07
1.07161e+07
1.07156e+07
1.07151e+07
1.07145e+07
1.07139e+07
1.07133e+07
1.07126e+07
1.07119e+07
1.07112e+07
1.07104e+07
1.07095e+07
1.07087e+07
1.07078e+07
1.07069e+07
1.07059e+07
1.07049e+07
1.07039e+07
1.07028e+07
1.07018e+07
1.07006e+07
1.06995e+07
1.06983e+07
1.06971e+07
1.06959e+07
1.06946e+07
1.06933e+07
1.0692e+07
1.06906e+07
1.06892e+07
1.06878e+07
1.06864e+07
1.06849e+07
1.06834e+07
1.06819e+07
1.06803e+07
1.06788e+07
1.06772e+07
1.06755e+07
1.06739e+07
1.06722e+07
1.06705e+07
1.06688e+07
1.0667e+07
1.06652e+07
1.06634e+07
1.06616e+07
1.06597e+07
1.06579e+07
1.0656e+07
1.0654e+07
1.06521e+07
1.06501e+07
1.06481e+07
1.06461e+07
1.06441e+07
1.0642e+07
1.06399e+07
1.06378e+07
1.06357e+07
1.06335e+07
1.06313e+07
1.06291e+07
1.06269e+07
1.06247e+07
1.06224e+07
1.06201e+07
1.06178e+07
1.06155e+07
1.06131e+07
1.06107e+07
1.06083e+07
1.06059e+07
1.06035e+07
1.0601e+07
1.05985e+07
1.0596e+07
1.05935e+07
1.05909e+07
1.05883e+07
1.05857e+07
1.05831e+07
1.05804e+07
1.05778e+07
1.05751e+07
1.05724e+07
1.05696e+07
1.05668e+07
1.05641e+07
1.05613e+07
1.05584e+07
1.05556e+07
1.05527e+07
1.05498e+07
1.05469e+07
1.05439e+07
1.05409e+07
1.05379e+07
1.05349e+07
1.05319e+07
1.05288e+07
1.05257e+07
1.05226e+07
1.05194e+07
1.05162e+07
1.05131e+07
1.05098e+07
1.05066e+07
1.05033e+07
1.05e+07
1.04967e+07
1.04933e+07
1.049e+07
1.04865e+07
1.04831e+07
1.04797e+07
1.04762e+07
1.04727e+07
1.04691e+07
1.04655e+07
1.0462e+07
1.04583e+07
1.04547e+07
1.0451e+07
1.04473e+07
1.04435e+07
1.04398e+07
1.0436e+07
1.04321e+07
1.04283e+07
1.04244e+07
1.04205e+07
1.04165e+07
1.04126e+07
1.04085e+07
1.04045e+07
1.04004e+07
1.03963e+07
1.03922e+07
1.0388e+07
1.03838e+07
1.03796e+07
1.03753e+07
1.0371e+07
1.03667e+07
1.03623e+07
1.03579e+07
1.03535e+07
1.0349e+07
1.03445e+07
1.034e+07
1.03354e+07
1.03308e+07
1.03261e+07
1.03215e+07
1.03167e+07
1.0312e+07
1.03072e+07
1.03024e+07
1.02975e+07
1.02926e+07
1.02877e+07
1.02827e+07
1.02777e+07
1.02727e+07
1.02676e+07
1.02625e+07
1.02573e+07
1.07205e+07
1.07205e+07
1.07204e+07
1.07203e+07
1.07202e+07
1.072e+07
1.07198e+07
1.07196e+07
1.07193e+07
1.07189e+07
1.07186e+07
1.07182e+07
1.07177e+07
1.07173e+07
1.07168e+07
1.07162e+07
1.07156e+07
1.0715e+07
1.07143e+07
1.07136e+07
1.07129e+07
1.07121e+07
1.07113e+07
1.07104e+07
1.07095e+07
1.07086e+07
1.07077e+07
1.07067e+07
1.07057e+07
1.07046e+07
1.07035e+07
1.07024e+07
1.07013e+07
1.07001e+07
1.06989e+07
1.06977e+07
1.06964e+07
1.06951e+07
1.06938e+07
1.06924e+07
1.06911e+07
1.06897e+07
1.06882e+07
1.06868e+07
1.06853e+07
1.06838e+07
1.06822e+07
1.06807e+07
1.06791e+07
1.06775e+07
1.06758e+07
1.06742e+07
1.06725e+07
1.06707e+07
1.0669e+07
1.06672e+07
1.06654e+07
1.06636e+07
1.06618e+07
1.06599e+07
1.0658e+07
1.06561e+07
1.06542e+07
1.06522e+07
1.06503e+07
1.06483e+07
1.06462e+07
1.06442e+07
1.06421e+07
1.064e+07
1.06379e+07
1.06358e+07
1.06336e+07
1.06314e+07
1.06292e+07
1.0627e+07
1.06247e+07
1.06225e+07
1.06202e+07
1.06179e+07
1.06155e+07
1.06132e+07
1.06108e+07
1.06084e+07
1.06059e+07
1.06035e+07
1.0601e+07
1.05985e+07
1.0596e+07
1.05935e+07
1.05909e+07
1.05883e+07
1.05857e+07
1.05831e+07
1.05805e+07
1.05778e+07
1.05751e+07
1.05724e+07
1.05696e+07
1.05669e+07
1.05641e+07
1.05613e+07
1.05584e+07
1.05556e+07
1.05527e+07
1.05498e+07
1.05469e+07
1.05439e+07
1.05409e+07
1.05379e+07
1.05349e+07
1.05319e+07
1.05288e+07
1.05257e+07
1.05226e+07
1.05194e+07
1.05162e+07
1.05131e+07
1.05098e+07
1.05066e+07
1.05033e+07
1.05e+07
1.04967e+07
1.04933e+07
1.049e+07
1.04865e+07
1.04831e+07
1.04797e+07
1.04762e+07
1.04727e+07
1.04691e+07
1.04655e+07