/*--------------------------------*- C++ -*----------------------------------*\
  =========                 |
  \\      /  F ield         | OpenFOAM: The Open Source CFD Toolbox
   \\    /   O peration     | Website:  https://openfoam.org
    \\  /    A nd           | Version:  10
     \\/     M anipulation  |
\*---------------------------------------------------------------------------*/
FoamFile
{
    format      ascii;
    class       volScalarField;
    location    "13000";
    object      p;
}
// * * * * * * * * * * * * * * * * * * * * * * * * * * * * * * * * * * * * * //

dimensions      [1 -1 -2 0 0 0 0];

internalField   nonuniform List<scalar> 
6400
(
111.258
111.272
111.3
111.343
111.401
111.474
111.563
111.669
111.794
111.939
112.105
112.296
112.515
112.768
113.061
113.406
113.821
114.324
116.951
410.684
695.291
969.51
1225.18
1462.01
1692.97
1919.74
2152.34
2384.6
2616.42
2845.74
3071.11
3289.7
3439.25
3527.16
3609.51
3684.44
3749.55
3802.01
3838.99
3858.14
3858.14
3838.99
3802.01
3749.55
3684.44
3609.51
3527.16
3439.25
3289.7
3071.11
2845.74
2616.42
2384.6
2152.34
1919.74
1692.97
1462.01
1225.18
969.51
695.291
410.684
116.951
114.324
113.821
113.406
113.061
112.768
112.515
112.296
112.105
111.939
111.794
111.669
111.563
111.474
111.401
111.343
111.3
111.272
111.258
110.963
110.977
111.005
111.048
111.106
111.179
111.268
111.375
111.499
111.644
111.81
112.001
112.22
112.472
112.765
113.109
113.523
114.041
114.981
116.538
401.539
676.236
931.961
1168.22
1399.12
1625.47
1858.33
2090.61
2322.52
2551.92
2777.41
2996.21
3146.18
3234.42
3317.19
3392.66
3458.4
3511.51
3549.01
3568.46
3568.46
3549.01
3511.51
3458.4
3392.66
3317.19
3234.42
3146.18
2996.21
2777.41
2551.92
2322.52
2090.61
1858.33
1625.47
1399.12
1168.22
931.961
676.236
401.539
116.538
114.981
114.041
113.523
113.109
112.765
112.472
112.22
112.001
111.81
111.644
111.499
111.375
111.268
111.179
111.106
111.048
111.005
110.977
110.963
110.639
110.653
110.682
110.724
110.782
110.855
110.944
111.05
111.175
111.319
111.485
111.676
111.894
112.146
112.437
112.78
113.191
113.709
114.521
115.095
115.628
355.581
611.331
846.202
1077.01
1302.3
1535.85
1768.14
2000.28
2229.83
2455.62
2674.91
2825.84
2914.82
2998.57
3075.31
3142.55
3197.17
3235.93
3256.09
3256.09
3235.93
3197.17
3142.55
3075.31
2998.57
2914.82
2825.84
2674.91
2455.62
2229.83
2000.28
1768.14
1535.85
1302.3
1077.01
846.202
611.331
355.581
115.628
115.095
114.521
113.709
113.191
112.78
112.437
112.146
111.894
111.676
111.485
111.319
111.175
111.05
110.944
110.855
110.782
110.724
110.682
110.653
110.639
110.283
110.297
110.325
110.368
110.426
110.499
110.587
110.693
110.818
110.962
111.127
111.317
111.535
111.785
112.075
112.414
112.82
113.326
114.031
114.561
114.843
114.926
262.147
493.131
723.971
947.218
1182.17
1414.41
1646.97
1876.77
2103.08
2323.16
2475.78
2566.03
2651.44
2730.39
2800.32
2857.69
2898.73
2920.19
2920.19
2898.73
2857.69
2800.32
2730.39
2651.44
2566.03
2475.78
2323.16
2103.08
1876.77
1646.97
1414.41
1182.17
947.218
723.971
493.131
262.147
114.926
114.843
114.561
114.031
113.326
112.82
112.414
112.075
111.785
111.535
111.317
111.127
110.962
110.818
110.693
110.587
110.499
110.426
110.368
110.325
110.297
110.283
109.891
109.905
109.934
109.976
110.034
110.106
110.195
110.301
110.424
110.568
110.733
110.922
111.138
111.387
111.673
112.008
112.405
112.891
113.507
113.993
114.279
114.392
114.512
115.712
337.287
556.685
794.355
1026.33
1259.62
1489.77
1716.87
1938.04
2093.3
2185.42
2273.33
2355.76
2430.05
2491.96
2536.82
2560.45
2560.45
2536.82
2491.96
2430.05
2355.76
2273.33
2185.42
2093.3
1938.04
1716.87
1489.77
1259.62
1026.33
794.355
556.685
337.287
115.712
114.512
114.392
114.279
113.993
113.507
112.891
112.405
112.008
111.673
111.387
111.138
110.922
110.733
110.568
110.424
110.301
110.195
110.106
110.034
109.976
109.934
109.905
109.891
109.461
109.475
109.503
109.545
109.602
109.675
109.763
109.868
109.991
110.134
110.298
110.486
110.7
110.946
111.229
111.557
111.942
112.402
112.944
113.389
113.675
113.828
113.982
114.306
114.24
126.036
369.344
600.419
834.988
1065.55
1293.82
1516.24
1675.46
1770.04
1861.35
1948.9
2030.04
2099.18
2150.26
2177.45
2177.45
2150.26
2099.18
2030.04
1948.9
1861.35
1770.04
1675.46
1516.24
1293.82
1065.55
834.988
600.419
369.344
126.036
114.24
114.306
113.982
113.828
113.675
113.389
112.944
112.402
111.942
111.557
111.229
110.946
110.7
110.486
110.298
110.134
109.991
109.868
109.763
109.675
109.602
109.545
109.503
109.475
109.461
108.986
109
109.028
109.071
109.128
109.2
109.287
109.392
109.514
109.656
109.819
110.005
110.217
110.459
110.736
111.056
111.427
111.857
112.336
112.744
113.028
113.209
113.383
113.639
113.7
114.169
113.881
132.369
369.635
600.454
830.448
1053.86
1219.2
1316.46
1411.83
1506.59
1598.52
1679.15
1740.42
1773.45
1773.45
1740.42
1679.15
1598.52
1506.59
1411.83
1316.46
1219.2
1053.86
830.448
600.454
369.635
132.369
113.881
114.169
113.7
113.639
113.383
113.209
113.028
112.744
112.336
111.857
111.427
111.056
110.736
110.459
110.217
110.005
109.819
109.656
109.514
109.392
109.287
109.2
109.128
109.071
109.028
109
108.986
108.465
108.479
108.506
108.548
108.605
108.676
108.764
108.867
108.989
109.129
109.29
109.473
109.682
109.92
110.191
110.5
110.853
111.253
111.68
112.053
112.332
112.531
112.715
112.932
113.053
113.355
113.26
113.506
113.165
116.005
323.776
546.187
722.237
820.621
919.645
1023.94
1133.61
1232.48
1311.13
1353.94
1353.94
1311.13
1232.48
1133.61
1023.94
919.645
820.621
722.237
546.187
323.776
116.005
113.165
113.506
113.26
113.355
113.053
112.932
112.715
112.531
112.332
112.053
111.68
111.253
110.853
110.5
110.191
109.92
109.682
109.473
109.29
109.129
108.989
108.867
108.764
108.676
108.605
108.548
108.506
108.479
108.465
107.89
107.904
107.931
107.973
108.029
108.1
108.186
108.289
108.409
108.547
108.706
108.886
109.091
109.323
109.586
109.883
110.217
110.585
110.968
111.31
111.58
111.789
111.978
112.171
112.316
112.524
112.526
112.649
112.481
112.564
112.202
112.34
198.31
280.033
377.921
492.649
635.078
761.113
871.641
931.071
931.071
871.641
761.113
635.078
492.649
377.921
280.033
198.31
112.34
112.202
112.564
112.481
112.649
112.526
112.524
112.316
112.171
111.978
111.789
111.58
111.31
110.968
110.585
110.217
109.883
109.586
109.323
109.091
108.886
108.706
108.547
108.409
108.289
108.186
108.1
108.029
107.973
107.931
107.904
107.89
107.257
107.271
107.298
107.339
107.395
107.465
107.55
107.651
107.77
107.906
108.062
108.238
108.438
108.663
108.916
109.199
109.512
109.851
110.195
110.508
110.768
110.98
111.168
111.347
111.495
111.652
111.697
111.764
111.683
111.68
111.472
111.435
111.296
111.261
111.308
111.894
153.602
277.327
448.174
532.887
532.887
448.174
277.327
153.602
111.894
111.308
111.261
111.296
111.435
111.472
111.68
111.683
111.764
111.697
111.652
111.495
111.347
111.168
110.98
110.768
110.508
110.195
109.851
109.512
109.199
108.916
108.663
108.438
108.238
108.062
107.906
107.77
107.651
107.55
107.465
107.395
107.339
107.298
107.271
107.257
106.56
106.574
106.601
106.641
106.696
106.765
106.849
106.948
107.064
107.198
107.35
107.522
107.716
107.933
108.175
108.442
108.734
109.043
109.354
109.641
109.888
110.097
110.281
110.45
110.593
110.722
110.783
110.827
110.789
110.759
110.632
110.569
110.492
110.466
110.464
110.457
110.402
110.978
165.637
234.704
234.704
165.637
110.978
110.402
110.457
110.464
110.466
110.492
110.569
110.632
110.759
110.789
110.827
110.783
110.722
110.593
110.45
110.281
110.097
109.888
109.641
109.354
109.043
108.734
108.442
108.175
107.933
107.716
107.522
107.35
107.198
107.064
106.948
106.849
106.765
106.696
106.641
106.601
106.574
106.56
105.792
105.805
105.832
105.871
105.925
105.993
106.075
106.173
106.286
106.416
106.564
106.731
106.917
107.125
107.355
107.606
107.876
108.158
108.439
108.702
108.934
109.136
109.314
109.472
109.607
109.719
109.786
109.822
109.807
109.774
109.693
109.632
109.582
109.559
109.544
109.529
109.508
109.502
111.825
130.054
130.054
111.825
109.502
109.508
109.529
109.544
109.559
109.582
109.632
109.693
109.774
109.807
109.822
109.786
109.719
109.607
109.472
109.314
109.136
108.934
108.702
108.439
108.158
107.876
107.606
107.355
107.125
106.917
106.731
106.564
106.416
106.286
106.173
106.075
105.993
105.925
105.871
105.832
105.805
105.792
104.945
104.958
104.984
105.023
105.075
105.141
105.222
105.316
105.427
105.553
105.695
105.856
106.034
106.232
106.448
106.682
106.93
107.186
107.441
107.681
107.898
108.089
108.259
108.408
108.534
108.635
108.702
108.737
108.735
108.71
108.657
108.607
108.57
108.551
108.535
108.52
108.507
108.498
108.492
114.457
114.457
108.492
108.498
108.507
108.52
108.535
108.551
108.57
108.607
108.657
108.71
108.735
108.737
108.702
108.635
108.534
108.408
108.259
108.089
107.898
107.681
107.441
107.186
106.93
106.682
106.448
106.232
106.034
105.856
105.695
105.553
105.427
105.316
105.222
105.141
105.075
105.023
104.984
104.958
104.945
104.011
104.023
104.048
104.086
104.137
104.202
104.279
104.371
104.478
104.599
104.736
104.889
105.058
105.244
105.446
105.662
105.889
106.122
106.352
106.57
106.771
106.95
107.11
107.249
107.367
107.46
107.525
107.561
107.569
107.554
107.52
107.482
107.454
107.439
107.425
107.412
107.401
107.392
107.37
110.459
110.459
107.37
107.392
107.401
107.412
107.425
107.439
107.454
107.482
107.52
107.554
107.569
107.561
107.525
107.46
107.367
107.249
107.11
106.95
106.771
106.57
106.352
106.122
105.889
105.662
105.446
105.244
105.058
104.889
104.736
104.599
104.478
104.371
104.279
104.202
104.137
104.086
104.048
104.023
104.011
102.98
102.992
103.016
103.053
103.103
103.165
103.24
103.328
103.43
103.546
103.676
103.821
103.98
104.154
104.341
104.539
104.746
104.955
105.163
105.361
105.544
105.711
105.859
105.989
106.098
106.185
106.248
106.286
106.3
106.295
106.275
106.248
106.227
106.215
106.204
106.193
106.183
106.175
106.153
108.507
108.507
106.153
106.175
106.183
106.193
106.204
106.215
106.227
106.248
106.275
106.295
106.3
106.286
106.248
106.185
106.098
105.989
105.859
105.711
105.544
105.361
105.163
104.955
104.746
104.539
104.341
104.154
103.98
103.821
103.676
103.546
103.43
103.328
103.24
103.165
103.103
103.053
103.016
102.992
102.98
101.842
101.854
101.878
101.913
101.96
102.019
102.091
102.175
102.272
102.382
102.505
102.641
102.789
102.95
103.122
103.302
103.489
103.678
103.864
104.042
104.209
104.362
104.499
104.618
104.719
104.8
104.861
104.9
104.92
104.923
104.913
104.896
104.881
104.871
104.862
104.853
104.844
104.835
104.814
107.022
107.022
104.814
104.835
104.844
104.853
104.862
104.871
104.881
104.896
104.913
104.923
104.92
104.9
104.861
104.8
104.719
104.618
104.499
104.362
104.209
104.042
103.864
103.678
103.489
103.302
103.122
102.95
102.789
102.641
102.505
102.382
102.272
102.175
102.091
102.019
101.96
101.913
101.878
101.854
101.842
100.507
100.518
100.54
100.574
100.619
100.675
100.742
100.822
100.913
101.015
101.129
101.255
101.391
101.538
101.693
101.855
102.022
102.189
102.354
102.513
102.663
102.8
102.924
103.033
103.125
103.201
103.259
103.299
103.323
103.332
103.331
103.321
103.31
103.303
103.296
103.288
103.28
103.272
103.251
105.466
105.466
103.251
103.272
103.28
103.288
103.296
103.303
103.31
103.321
103.331
103.332
103.323
103.299
103.259
103.201
103.125
103.033
102.924
102.8
102.663
102.513
102.354
102.189
102.022
101.855
101.693
101.538
101.391
101.255
101.129
101.015
100.913
100.822
100.742
100.675
100.619
100.574
100.54
100.518
100.507
99.0226
99.033
99.054
99.0854
99.1274
99.18
99.2431
99.3169
99.4012
99.4959
99.6008
99.7155
99.8393
99.9714
100.111
100.255
100.402
100.55
100.696
100.836
100.968
101.091
101.202
101.3
101.385
101.454
101.509
101.549
101.575
101.589
101.593
101.588
101.581
101.576
101.569
101.563
101.555
101.547
101.527
103.796
103.796
101.527
101.547
101.555
101.563
101.569
101.576
101.581
101.588
101.593
101.589
101.575
101.549
101.509
101.454
101.385
101.3
101.202
101.091
100.968
100.836
100.696
100.55
100.402
100.255
100.111
99.9714
99.8393
99.7155
99.6008
99.4959
99.4012
99.3169
99.2431
99.18
99.1274
99.0854
99.054
99.033
99.0226
97.5278
97.5376
97.5571
97.5865
97.6257
97.6746
97.7332
97.8015
97.8792
97.9663
98.0623
98.1667
98.2789
98.398
98.5226
98.6513
98.7821
98.9131
99.0419
99.1662
99.284
99.3935
99.4931
99.5817
99.6583
99.7225
99.7739
99.8127
99.8397
99.8559
99.8627
99.8617
99.8564
99.8521
99.8467
99.8405
99.8334
99.8254
99.8056
102.141
102.141
99.8056
99.8254
99.8334
99.8405
99.8467
99.8521
99.8564
99.8617
99.8627
99.8559
99.8397
99.8127
99.7739
99.7225
99.6583
99.5817
99.4931
99.3935
99.284
99.1662
99.0419
98.9131
98.7821
98.6513
98.5226
98.398
98.2789
98.1667
98.0623
97.9663
97.8792
97.8015
97.7332
97.6746
97.6257
97.5865
97.5571
97.5376
97.5278
96.0232
96.0323
96.0505
96.0778
96.1141
96.1595
96.2136
96.2766
96.3481
96.4278
96.5153
96.6102
96.7117
96.8189
96.9306
97.0455
97.162
97.2783
97.3926
97.5031
97.608
97.7058
97.7951
97.875
97.9446
98.0034
98.0513
98.0883
98.115
98.1321
98.1405
98.1414
98.1373
98.1336
98.1288
98.1229
98.116
98.1081
98.0889
100.497
100.497
98.0889
98.1081
98.116
98.1229
98.1288
98.1336
98.1373
98.1414
98.1405
98.1321
98.115
98.0883
98.0513
98.0034
97.9446
97.875
97.7951
97.7058
97.608
97.5031
97.3926
97.2783
97.162
97.0455
96.9306
96.8189
96.7117
96.6102
96.5153
96.4278
96.3481
96.2766
96.2136
96.1595
96.1141
96.0778
96.0505
96.0323
96.0232
94.5095
94.518
94.5348
94.5601
94.5937
94.6355
94.6853
94.7432
94.8086
94.8814
94.9611
95.0471
95.1388
95.2353
95.3354
95.4381
95.542
95.6456
95.7473
95.8456
95.9391
96.0265
96.1066
96.1785
96.2416
96.2954
96.3396
96.3743
96.3999
96.4169
96.4258
96.4276
96.4241
96.4207
96.4162
96.4106
96.4038
96.3959
96.3772
98.8637
98.8637
96.3772
96.3959
96.4038
96.4106
96.4162
96.4207
96.4241
96.4276
96.4258
96.4169
96.3999
96.3743
96.3396
96.2954
96.2416
96.1785
96.1066
96.0265
95.9391
95.8456
95.7473
95.6456
95.542
95.4381
95.3354
95.2353
95.1388
95.0471
94.9611
94.8814
94.8086
94.7432
94.6853
94.6355
94.5937
94.5601
94.5348
94.518
94.5095
92.9874
92.9952
93.0108
93.034
93.0649
93.1034
93.1491
93.2021
93.2618
93.3281
93.4005
93.4784
93.5611
93.6479
93.7377
93.8296
93.9224
94.0147
94.1053
94.1929
94.2763
94.3544
94.4262
94.491
94.548
94.5968
94.6374
94.6695
94.6935
94.7097
94.7184
94.7203
94.7171
94.7138
94.7094
94.7039
94.6972
94.6893
94.6711
97.2436
97.2436
94.6711
94.6893
94.6972
94.7039
94.7094
94.7138
94.7171
94.7203
94.7184
94.7097
94.6935
94.6695
94.6374
94.5968
94.548
94.491
94.4262
94.3544
94.2763
94.1929
94.1053
94.0147
93.9224
93.8296
93.7377
93.6479
93.5611
93.4784
93.4005
93.3281
93.2618
93.2021
93.1491
93.1034
93.0649
93.034
93.0108
92.9952
92.9874
91.4575
91.4647
91.479
91.5003
91.5287
91.5639
91.6058
91.6541
91.7086
91.7688
91.8344
91.9048
91.9794
92.0574
92.138
92.2203
92.3031
92.3855
92.4663
92.5444
92.6189
92.6887
92.753
92.8111
92.8624
92.9066
92.9435
92.9729
92.9949
93.0099
93.0179
93.0195
93.0162
93.0129
93.0085
93.003
92.9963
92.9884
92.9707
95.6377
95.6377
92.9707
92.9884
92.9963
93.003
93.0085
93.0129
93.0162
93.0195
93.0179
93.0099
92.9949
92.9729
92.9435
92.9066
92.8624
92.8111
92.753
92.6887
92.6189
92.5444
92.4663
92.3855
92.3031
92.2203
92.138
92.0574
91.9794
91.9048
91.8344
91.7688
91.7086
91.6541
91.6058
91.5639
91.5287
91.5003
91.479
91.4647
91.4575
89.9204
89.927
89.9401
89.9597
89.9856
90.0178
90.056
90.1
90.1495
90.2041
90.2635
90.3271
90.3943
90.4644
90.5367
90.6103
90.6843
90.7579
90.83
90.8997
90.9661
91.0284
91.0859
91.138
91.1841
91.2238
91.257
91.2836
91.3035
91.3169
91.3239
91.3249
91.3212
91.3179
91.3134
91.3078
91.3011
91.2933
91.276
94.047
94.047
91.276
91.2933
91.3011
91.3078
91.3134
91.3179
91.3212
91.3249
91.3239
91.3169
91.3035
91.2836
91.257
91.2238
91.1841
91.138
91.0859
91.0284
90.9661
90.8997
90.83
90.7579
90.6843
90.6103
90.5367
90.4644
90.3943
90.3271
90.2635
90.2041
90.1495
90.1
90.056
90.0178
89.9856
89.9597
89.9401
89.927
89.9204
88.3768
88.3828
88.3948
88.4126
88.4363
88.4656
88.5004
88.5404
88.5853
88.6348
88.6884
88.7457
88.8062
88.8692
88.934
88.9999
89.066
89.1317
89.196
89.2582
89.3174
89.373
89.4243
89.4708
89.512
89.5476
89.5772
89.6009
89.6186
89.6303
89.6361
89.6361
89.6321
89.6286
89.6239
89.6182
89.6115
89.6036
89.5869
92.4729
92.4729
89.5869
89.6036
89.6115
89.6182
89.6239
89.6286
89.6321
89.6361
89.6361
89.6303
89.6186
89.6009
89.5772
89.5476
89.512
89.4708
89.4243
89.373
89.3174
89.2582
89.196
89.1317
89.066
88.9999
88.934
88.8692
88.8062
88.7457
88.6884
88.6348
88.5853
88.5404
88.5004
88.4656
88.4363
88.4126
88.3948
88.3828
88.3768
86.8272
86.8326
86.8435
86.8598
86.8813
86.908
86.9396
86.9758
87.0165
87.0612
87.1096
87.1613
87.2156
87.2721
87.3302
87.3891
87.4483
87.5069
87.5642
87.6196
87.6724
87.7219
87.7676
87.8089
87.8456
87.8772
87.9035
87.9243
87.9397
87.9495
87.9539
87.953
87.9485
87.9447
87.9399
87.934
87.9272
87.9193
87.903
90.9172
90.9172
87.903
87.9193
87.9272
87.934
87.9399
87.9447
87.9485
87.953
87.9539
87.9495
87.9397
87.9243
87.9035
87.8772
87.8456
87.8089
87.7676
87.7219
87.6724
87.6196
87.5642
87.5069
87.4483
87.3891
87.3302
87.2721
87.2156
87.1613
87.1096
87.0612
87.0165
86.9758
86.9396
86.908
86.8813
86.8598
86.8435
86.8326
86.8272
85.272
85.277
85.2869
85.3017
85.3213
85.3454
85.374
85.4069
85.4436
85.484
85.5276
85.5741
85.6229
85.6736
85.7255
85.7782
85.831
85.8833
85.9344
85.9837
86.0306
86.0746
86.1151
86.1518
86.1842
86.212
86.2351
86.2532
86.2663
86.2743
86.2772
86.2751
86.2701
86.266
86.2609
86.2549
86.248
86.2401
86.2242
89.3818
89.3818
86.2242
86.2401
86.248
86.2549
86.2609
86.266
86.2701
86.2751
86.2772
86.2743
86.2663
86.2532
86.2351
86.212
86.1842
86.1518
86.1151
86.0746
86.0306
85.9837
85.9344
85.8833
85.831
85.7782
85.7255
85.6736
85.6229
85.5741
85.5276
85.484
85.4436
85.4069
85.374
85.3454
85.3213
85.3017
85.2869
85.277
85.272
83.712
83.7165
83.7255
83.7389
83.7566
83.7785
83.8043
83.834
83.8671
83.9035
83.9427
83.9845
84.0283
84.0737
84.1202
84.1672
84.2143
84.2609
84.3063
84.3501
84.3918
84.4307
84.4666
84.4989
84.5274
84.5517
84.5717
84.5871
84.5979
84.604
84.6054
84.6022
84.5965
84.5921
84.5868
84.5806
84.5736
84.5656
84.5501
87.8696
87.8696
84.5501
84.5656
84.5736
84.5806
84.5868
84.5921
84.5965
84.6022
84.6054
84.604
84.5979
84.5871
84.5717
84.5517
84.5274
84.4989
84.4666
84.4307
84.3918
84.3501
84.3063
84.2609
84.2143
84.1672
84.1202
84.0737
84.0283
83.9845
83.9427
83.9035
83.8671
83.834
83.8043
83.7785
83.7566
83.7389
83.7255
83.7165
83.712
82.1474
82.1514
82.1596
82.1717
82.1877
82.2075
82.2308
82.2576
82.2874
82.3201
82.3554
82.3929
82.4321
82.4727
82.5142
82.5562
82.5982
82.6396
82.6799
82.7187
82.7556
82.79
82.8216
82.8499
82.8747
82.8958
82.9128
82.9257
82.9342
82.9385
82.9384
82.9339
82.9276
82.9228
82.9172
82.9108
82.9036
82.8956
82.8804
86.3842
86.3842
82.8804
82.8956
82.9036
82.9108
82.9172
82.9228
82.9276
82.9339
82.9384
82.9385
82.9342
82.9257
82.9128
82.8958
82.8747
82.8499
82.8216
82.79
82.7556
82.7187
82.6799
82.6396
82.5982
82.5562
82.5142
82.4727
82.4321
82.3929
82.3554
82.3201
82.2874
82.2576
82.2308
82.2075
82.1877
82.1717
82.1596
82.1514
82.1474
80.5787
80.5824
80.5897
80.6007
80.6151
80.6329
80.654
80.678
80.7049
80.7343
80.7659
80.7994
80.8345
80.8708
80.9078
80.9452
80.9825
81.0193
81.055
81.0894
81.1219
81.1521
81.1797
81.2044
81.2259
81.2438
81.2581
81.2685
81.2749
81.2773
81.2756
81.2699
81.2629
81.2577
81.2518
81.2452
81.2378
81.2296
81.2147
84.9303
84.9303
81.2147
81.2296
81.2378
81.2452
81.2518
81.2577
81.2629
81.2699
81.2756
81.2773
81.2749
81.2685
81.2581
81.2438
81.2259
81.2044
81.1797
81.1521
81.1219
81.0894
81.055
81.0193
80.9825
80.9452
80.9078
80.8708
80.8345
80.7994
80.7659
80.7343
80.7049
80.678
80.654
80.6329
80.6151
80.6007
80.5897
80.5824
80.5787
79.0063
79.0096
79.0162
79.0261
79.0391
79.0552
79.0741
79.0957
79.1198
79.1461
79.1744
79.2044
79.2358
79.2681
79.3011
79.3343
79.3674
79.4
79.4316
79.4618
79.4904
79.5168
79.5409
79.5622
79.5805
79.5956
79.6072
79.6153
79.6196
79.6202
79.617
79.6099
79.6021
79.5966
79.5903
79.5834
79.5757
79.5674
79.5528
83.5144
83.5144
79.5528
79.5674
79.5757
79.5834
79.5903
79.5966
79.6021
79.6099
79.617
79.6202
79.6196
79.6153
79.6072
79.5956
79.5805
79.5622
79.5409
79.5168
79.4904
79.4618
79.4316
79.4
79.3674
79.3343
79.3011
79.2681
79.2358
79.2044
79.1744
79.1461
79.1198
79.0957
79.0741
79.0552
79.0391
79.0261
79.0162
79.0096
79.0063
77.4306
77.4336
77.4395
77.4484
77.4601
77.4745
77.4915
77.5109
77.5324
77.556
77.5813
77.6081
77.636
77.6648
77.6941
77.7236
77.7529
77.7816
77.8094
77.836
77.8609
77.8839
77.9047
77.9229
77.9383
77.9507
77.9599
77.9658
77.9681
77.9669
77.9621
77.9537
77.9451
77.9391
77.9324
77.9251
77.9172
77.9086
77.8943
82.1454
82.1454
77.8943
77.9086
77.9172
77.9251
77.9324
77.9391
77.9451
77.9537
77.9621
77.9669
77.9681
77.9658
77.9599
77.9507
77.9383
77.9229
77.9047
77.8839
77.8609
77.836
77.8094
77.7816
77.7529
77.7236
77.6941
77.6648
77.636
77.6081
77.5813
77.556
77.5324
77.5109
77.4915
77.4745
77.4601
77.4484
77.4395
77.4336
77.4306
75.8519
75.8546
75.8599
75.8679
75.8784
75.8913
75.9065
75.9238
75.9431
75.9642
75.9867
76.0106
76.0354
76.061
76.087
76.1131
76.1389
76.1642
76.1886
76.2118
76.2335
76.2533
76.2711
76.2865
76.2992
76.3091
76.316
76.3198
76.3202
76.3172
76.3108
76.301
76.2915
76.285
76.2779
76.2701
76.2618
76.2529
76.2387
80.8377
80.8377
76.2387
76.2529
76.2618
76.2701
76.2779
76.285
76.2915
76.301
76.3108
76.3172
76.3202
76.3198
76.316
76.3091
76.2992
76.2865
76.2711
76.2533
76.2335
76.2118
76.1886
76.1642
76.1389
76.1131
76.087
76.061
76.0354
76.0106
75.9867
75.9642
75.9431
75.9238
75.9065
75.8913
75.8784
75.8679
75.8599
75.8546
75.8519
74.2705
74.2729
74.2777
74.2848
74.2942
74.3058
74.3193
74.3348
74.352
74.3708
74.3909
74.4121
74.4341
74.4568
74.4797
74.5027
74.5255
74.5476
74.5689
74.5891
74.6078
74.6248
74.6398
74.6526
74.6629
74.6706
74.6753
74.6771
74.6756
74.6709
74.6629
74.6516
74.6411
74.634
74.6264
74.6181
74.6093
74.6
74.5859
79.611
79.611
74.5859
74.6
74.6093
74.6181
74.6264
74.634
74.6411
74.6516
74.6629
74.6709
74.6756
74.6771
74.6753
74.6706
74.6629
74.6526
74.6398
74.6248
74.6078
74.5891
74.5689
74.5476
74.5255
74.5027
74.4797
74.4568
74.4341
74.4121
74.3909
74.3708
74.352
74.3348
74.3193
74.3058
74.2942
74.2848
74.2777
74.2729
74.2705
72.6867
72.6889
72.6932
72.6995
72.7079
72.7182
72.7303
72.7441
72.7594
72.7761
72.7939
72.8127
72.8322
72.8522
72.8725
72.8927
72.9126
72.9319
72.9504
72.9678
72.9839
72.9983
73.0108
73.0212
73.0293
73.0348
73.0376
73.0375
73.0343
73.028
73.0184
73.0055
72.9939
72.9861
72.9778
72.9688
72.9594
72.9495
72.9354
78.4944
78.4944
72.9354
72.9495
72.9594
72.9688
72.9778
72.9861
72.9939
73.0055
73.0184
73.028
73.0343
73.0375
73.0376
73.0348
73.0293
73.0212
73.0108
72.9983
72.9839
72.9678
72.9504
72.9319
72.9126
72.8927
72.8725
72.8522
72.8322
72.8127
72.7939
72.7761
72.7594
72.7441
72.7303
72.7182
72.7079
72.6995
72.6932
72.6889
72.6867
71.1008
71.1027
71.1065
71.1122
71.1197
71.1288
71.1396
71.1519
71.1655
71.1802
71.196
71.2126
71.2298
71.2475
71.2652
71.2829
71.3003
71.3171
71.3331
71.348
71.3616
71.3736
71.3839
71.3922
71.3982
71.4018
71.4028
71.401
71.3962
71.3883
71.3771
71.3626
71.3497
71.3411
71.332
71.3222
71.3119
71.3012
71.2869
77.5301
77.5301
71.2869
71.3012
71.3119
71.3222
71.332
71.3411
71.3497
71.3626
71.3771
71.3883
71.3962
71.401
71.4028
71.4018
71.3982
71.3922
71.3839
71.3736
71.3616
71.348
71.3331
71.3171
71.3003
71.2829
71.2652
71.2475
71.2298
71.2126
71.196
71.1802
71.1655
71.1519
71.1396
71.1288
71.1197
71.1122
71.1065
71.1027
71.1008
69.513
69.5147
69.5181
69.5231
69.5297
69.5379
69.5474
69.5583
69.5703
69.5834
69.5973
69.6119
69.6271
69.6425
69.658
69.6735
69.6885
69.703
69.7167
69.7294
69.7408
69.7508
69.759
69.7654
69.7696
69.7715
69.7709
69.7675
69.7613
69.7519
69.7392
69.723
69.7087
69.6993
69.6891
69.6783
69.6668
69.6549
69.6401
76.7619
76.7619
69.6401
69.6549
69.6668
69.6783
69.6891
69.6993
69.7087
69.723
69.7392
69.7519
69.7613
69.7675
69.7709
69.7715
69.7696
69.7654
69.759
69.7508
69.7408
69.7294
69.7167
69.703
69.6885
69.6735
69.658
69.6425
69.6271
69.6119
69.5973
69.5834
69.5703
69.5583
69.5474
69.5379
69.5297
69.5231
69.5181
69.5147
69.513
67.9234
67.9249
67.9279
67.9324
67.9382
67.9455
67.9539
67.9635
67.9741
67.9856
67.9979
68.0107
68.024
68.0375
68.051
68.0644
68.0774
68.0898
68.1014
68.1121
68.1215
68.1296
68.136
68.1407
68.1433
68.1437
68.1416
68.1369
68.1294
68.1188
68.1048
68.087
68.0713
68.0609
68.0495
68.0373
68.0244
68.0106
67.9949
76.1334
76.1334
67.9949
68.0106
68.0244
68.0373
68.0495
68.0609
68.0713
68.087
68.1048
68.1188
68.1294
68.1369
68.1416
68.1437
68.1433
68.1407
68.136
68.1296
68.1215
68.1121
68.1014
68.0898
68.0774
68.0644
68.051
68.0375
68.024
68.0107
67.9979
67.9856
67.9741
67.9635
67.9539
67.9455
67.9382
67.9324
67.9279
67.9249
67.9234
66.3323
66.3337
66.3363
66.3403
66.3455
66.3518
66.3593
66.3677
66.377
66.3872
66.3979
66.4091
66.4207
66.4324
66.4441
66.4556
66.4668
66.4773
66.4871
66.496
66.5037
66.51
66.5149
66.518
66.5192
66.5182
66.515
66.5092
66.5007
66.489
66.474
66.4551
66.4381
66.4267
66.4142
66.4005
66.3856
66.3694
66.3519
74.8437
74.8437
66.3519
66.3694
66.3856
66.4005
66.4142
66.4267
66.4381
66.4551
66.474
66.489
66.5007
66.5092
66.515
66.5182
66.5192
66.518
66.5149
66.51
66.5037
66.496
66.4871
66.4773
66.4668
66.4556
66.4441
66.4324
66.4207
66.4091
66.3979
66.3872
66.377
66.3677
66.3593
66.3518
66.3455
66.3403
66.3363
66.3337
66.3323
64.7399
64.7411
64.7434
64.7469
64.7515
64.7571
64.7636
64.771
64.7792
64.788
64.7974
64.8072
64.8172
64.8273
64.8374
64.8473
64.8567
64.8656
64.8738
64.881
64.8871
64.892
64.8954
64.8972
64.8972
64.8951
64.8909
64.8843
64.875
64.8627
64.8471
64.8276
64.8101
64.7981
64.7848
64.7699
64.7532
64.7344
64.7153
69.5639
69.5639
64.7153
64.7344
64.7532
64.7699
64.7848
64.7981
64.8101
64.8276
64.8471
64.8627
64.875
64.8843
64.8909
64.8951
64.8972
64.8972
64.8954
64.892
64.8871
64.881
64.8738
64.8656
64.8567
64.8473
64.8374
64.8273
64.8172
64.8072
64.7974
64.788
64.7792
64.771
64.7636
64.7571
64.7515
64.7469
64.7434
64.7411
64.7399
63.1464
63.1474
63.1494
63.1525
63.1565
63.1614
63.1671
63.1736
63.1807
63.1884
63.1965
63.205
63.2136
63.2223
63.2309
63.2393
63.2473
63.2547
63.2613
63.2671
63.2719
63.2754
63.2776
63.2782
63.2772
63.2742
63.2692
63.262
63.2522
63.2398
63.2242
63.205
63.1879
63.1763
63.1633
63.1485
63.1315
63.1108
63.0908
63.0872
63.0872
63.0908
63.1108
63.1315
63.1485
63.1633
63.1763
63.1879
63.205
63.2242
63.2398
63.2522
63.262
63.2692
63.2742
63.2772
63.2782
63.2776
63.2754
63.2719
63.2671
63.2613
63.2547
63.2473
63.2393
63.2309
63.2223
63.2136
63.205
63.1965
63.1884
63.1807
63.1736
63.1671
63.1614
63.1565
63.1525
63.1494
63.1474
63.1464
61.552
61.5529
61.5547
61.5573
61.5608
61.5651
61.57
61.5757
61.5819
61.5885
61.5955
61.6028
61.6102
61.6176
61.6249
61.632
61.6386
61.6446
61.65
61.6545
61.6581
61.6605
61.6616
61.6612
61.6593
61.6556
61.6501
61.6424
61.6325
61.6201
61.6051
61.5871
61.5717
61.5615
61.5508
61.5394
61.5277
61.5163
61.5063
61.5034
61.5034
61.5063
61.5163
61.5277
61.5394
61.5508
61.5615
61.5717
61.5871
61.6051
61.6201
61.6325
61.6424
61.6501
61.6556
61.6593
61.6612
61.6616
61.6605
61.6581
61.6545
61.65
61.6446
61.6386
61.632
61.6249
61.6176
61.6102
61.6028
61.5955
61.5885
61.5819
61.5757
61.57
61.5651
61.5608
61.5573
61.5547
61.5529
61.552
59.9567
59.9574
59.959
59.9613
59.9643
59.968
59.9724
59.9772
59.9826
59.9883
59.9943
60.0005
60.0068
60.0131
60.0192
60.025
60.0304
60.0353
60.0395
60.0429
60.0454
60.0468
60.047
60.0458
60.0432
60.0389
60.0329
60.0251
60.0152
60.0032
59.989
59.9724
59.9588
59.9501
59.9411
59.9319
59.9227
59.9138
59.9053
59.9025
59.9025
59.9053
59.9138
59.9227
59.9319
59.9411
59.9501
59.9588
59.9724
59.989
60.0032
60.0152
60.0251
60.0329
60.0389
60.0432
60.0458
60.047
60.0468
60.0454
60.0429
60.0395
60.0353
60.0304
60.025
60.0192
60.0131
60.0068
60.0005
59.9943
59.9883
59.9826
59.9772
59.9724
59.968
59.9643
59.9613
59.959
59.9574
59.9567
58.3606
58.3612
58.3626
58.3646
58.3672
58.3704
58.3741
58.3783
58.3829
58.3878
58.3929
58.3981
58.4034
58.4087
58.4137
58.4185
58.4228
58.4267
58.4299
58.4323
58.4338
58.4343
58.4337
58.4319
58.4287
58.424
58.4177
58.4098
58.4001
58.3885
58.3751
58.36
58.3479
58.3402
58.3323
58.3243
58.3164
58.3085
58.3006
58.2979
58.2979
58.3006
58.3085
58.3164
58.3243
58.3323
58.3402
58.3479
58.36
58.3751
58.3885
58.4001
58.4098
58.4177
58.424
58.4287
58.4319
58.4337
58.4343
58.4338
58.4323
58.4299
58.4267
58.4228
58.4185
58.4137
58.4087
58.4034
58.3981
58.3929
58.3878
58.3829
58.3783
58.3741
58.3704
58.3672
58.3646
58.3626
58.3612
58.3606
56.7638
56.7644
56.7655
56.7673
56.7695
56.7722
56.7754
56.779
56.7829
56.787
56.7913
56.7957
56.8001
56.8044
56.8086
56.8124
56.8158
56.8187
56.821
56.8225
56.8232
56.823
56.8217
56.8193
56.8156
56.8106
56.8041
56.7962
56.7867
56.7757
56.7631
56.7491
56.7381
56.7312
56.7241
56.7168
56.7096
56.7023
56.6949
56.6923
56.6923
56.6949
56.7023
56.7096
56.7168
56.7241
56.7312
56.7381
56.7491
56.7631
56.7757
56.7867
56.7962
56.8041
56.8106
56.8156
56.8193
56.8217
56.823
56.8232
56.8225
56.821
56.8187
56.8158
56.8124
56.8086
56.8044
56.8001
56.7957
56.7913
56.787
56.7829
56.779
56.7754
56.7722
56.7695
56.7673
56.7655
56.7644
56.7638
55.1664
55.1669
55.1679
55.1694
55.1713
55.1736
55.1763
55.1793
55.1826
55.1861
55.1897
55.1933
55.1969
55.2004
55.2037
55.2067
55.2092
55.2113
55.2128
55.2136
55.2136
55.2127
55.2109
55.208
55.2039
55.1986
55.1921
55.1842
55.175
55.1644
55.1525
55.1395
55.1293
55.1229
55.1163
55.1096
55.1029
55.096
55.0891
55.0865
55.0865
55.0891
55.096
55.1029
55.1096
55.1163
55.1229
55.1293
55.1395
55.1525
55.1644
55.175
55.1842
55.1921
55.1986
55.2039
55.208
55.2109
55.2127
55.2136
55.2136
55.2128
55.2113
55.2092
55.2067
55.2037
55.2004
55.1969
55.1933
55.1897
55.1861
55.1826
55.1793
55.1763
55.1736
55.1713
55.1694
55.1679
55.1669
55.1664
53.5686
53.569
53.5698
53.5711
53.5727
53.5746
53.5769
53.5794
53.5821
53.585
53.588
53.5909
53.5938
53.5966
53.5991
53.6013
53.6032
53.6045
53.6053
53.6054
53.6048
53.6034
53.6011
53.5978
53.5934
53.5879
53.5813
53.5736
53.5646
53.5544
53.5432
53.5308
53.5213
53.5153
53.5091
53.5029
53.4965