/*--------------------------------*- C++ -*----------------------------------*\
  =========                 |
  \\      /  F ield         | OpenFOAM: The Open Source CFD Toolbox
   \\    /   O peration     | Website:  https://openfoam.org
    \\  /    A nd           | Version:  10
     \\/     M anipulation  |
\*---------------------------------------------------------------------------*/
FoamFile
{
    format      ascii;
    class       volVectorField;
    location    "22300";
    object      Ua;
}
// * * * * * * * * * * * * * * * * * * * * * * * * * * * * * * * * * * * * * //

dimensions      [0 1 -1 0 0 0 0];

internalField   nonuniform List<vector> 
6400
(
(-2.5908e-06 6.53796e-07 0)
(-2.65914e-06 8.57727e-05 0)
(-8.46841e-08 7.57786e-07 0)
(-2.33812e-08 2.1359e-07 0)
(-1.16617e-08 1.10531e-07 0)
(-7.88714e-09 7.16618e-08 0)
(-5.76883e-09 5.20145e-08 0)
(-4.4849e-09 4.03444e-08 0)
(-3.62186e-09 3.27396e-08 0)
(-2.98416e-09 2.7412e-08 0)
(-2.50817e-09 2.35152e-08 0)
(-2.19205e-09 2.05507e-08 0)
(-1.95129e-09 1.82253e-08 0)
(-1.74591e-09 1.63716e-08 0)
(-1.58061e-09 1.48594e-08 0)
(-1.44201e-09 1.36046e-08 0)
(-1.32089e-09 1.25496e-08 0)
(-1.21509e-09 1.16537e-08 0)
(-1.11577e-09 1.08831e-08 0)
(-1.02733e-09 1.02205e-08 0)
(-9.56596e-10 9.64608e-09 0)
(-8.96557e-10 9.14299e-09 0)
(-8.40603e-10 8.69978e-09 0)
(-7.89666e-10 8.31244e-09 0)
(-7.45931e-10 7.96659e-09 0)
(-7.0565e-10 7.65765e-09 0)
(-6.64475e-10 7.38422e-09 0)
(-6.25045e-10 7.14133e-09 0)
(-5.91312e-10 6.92644e-09 0)
(-5.59962e-10 6.73144e-09 0)
(-5.2413e-10 6.55447e-09 0)
(-4.76139e-10 6.39599e-09 0)
(-4.32414e-10 6.2639e-09 0)
(-3.98382e-10 6.20979e-09 0)
(-3.5862e-10 6.16057e-09 0)
(-3.11654e-10 6.1172e-09 0)
(-2.56219e-10 6.08033e-09 0)
(-1.91788e-10 6.05223e-09 0)
(-1.19036e-10 6.03391e-09 0)
(-4.03774e-11 6.01856e-09 0)
(4.03774e-11 6.01856e-09 0)
(1.19036e-10 6.03391e-09 0)
(1.91788e-10 6.05223e-09 0)
(2.56219e-10 6.08033e-09 0)
(3.11654e-10 6.1172e-09 0)
(3.5862e-10 6.16057e-09 0)
(3.98382e-10 6.20979e-09 0)
(4.32414e-10 6.2639e-09 0)
(4.76139e-10 6.39599e-09 0)
(5.2413e-10 6.55447e-09 0)
(5.59962e-10 6.73144e-09 0)
(5.91312e-10 6.92644e-09 0)
(6.25045e-10 7.14133e-09 0)
(6.64475e-10 7.38422e-09 0)
(7.0565e-10 7.65765e-09 0)
(7.45931e-10 7.96659e-09 0)
(7.89666e-10 8.31244e-09 0)
(8.40603e-10 8.69978e-09 0)
(8.96557e-10 9.14299e-09 0)
(9.56596e-10 9.64608e-09 0)
(1.02733e-09 1.02205e-08 0)
(1.11577e-09 1.08831e-08 0)
(1.21509e-09 1.16537e-08 0)
(1.32089e-09 1.25496e-08 0)
(1.44201e-09 1.36046e-08 0)
(1.58061e-09 1.48594e-08 0)
(1.74591e-09 1.63716e-08 0)
(1.95129e-09 1.82253e-08 0)
(2.19205e-09 2.05507e-08 0)
(2.50817e-09 2.35152e-08 0)
(2.98416e-09 2.7412e-08 0)
(3.62186e-09 3.27396e-08 0)
(4.4849e-09 4.03444e-08 0)
(5.76883e-09 5.20145e-08 0)
(7.88714e-09 7.16618e-08 0)
(1.16617e-08 1.10531e-07 0)
(2.33812e-08 2.1359e-07 0)
(8.46841e-08 7.57786e-07 0)
(2.65914e-06 8.57727e-05 0)
(2.5908e-06 6.53796e-07 0)
(-6.45235e-06 2.74615e-06 0)
(-6.52808e-06 2.20795e-05 0)
(-3.68725e-07 8.43662e-06 0)
(-3.31383e-07 1.36313e-06 0)
(-5.38104e-08 3.60252e-07 0)
(-2.47125e-08 1.55238e-07 0)
(-1.58956e-08 9.98814e-08 0)
(-1.16555e-08 7.34592e-08 0)
(-9.11557e-09 5.79618e-08 0)
(-7.36595e-09 4.76972e-08 0)
(-6.1094e-09 4.05346e-08 0)
(-5.29985e-09 3.52084e-08 0)
(-4.69255e-09 3.10649e-08 0)
(-4.17885e-09 2.7809e-08 0)
(-3.7712e-09 2.5178e-08 0)
(-3.43209e-09 2.30016e-08 0)
(-3.13736e-09 2.11843e-08 0)
(-2.88225e-09 1.96457e-08 0)
(-2.64292e-09 1.83233e-08 0)
(-2.43011e-09 1.7199e-08 0)
(-2.26143e-09 1.6225e-08 0)
(-2.1187e-09 1.53707e-08 0)
(-1.98523e-09 1.46172e-08 0)
(-1.86383e-09 1.3963e-08 0)
(-1.76044e-09 1.33797e-08 0)
(-1.66547e-09 1.28572e-08 0)
(-1.56779e-09 1.23935e-08 0)
(-1.47414e-09 1.1986e-08 0)
(-1.39481e-09 1.16259e-08 0)
(-1.32172e-09 1.12975e-08 0)
(-1.23849e-09 1.0997e-08 0)
(-1.12663e-09 1.07264e-08 0)
(-1.02467e-09 1.05031e-08 0)
(-9.45664e-10 1.04114e-08 0)
(-8.5325e-10 1.03279e-08 0)
(-7.43586e-10 1.0254e-08 0)
(-6.13182e-10 1.01908e-08 0)
(-4.60292e-10 1.01422e-08 0)
(-2.86308e-10 1.01098e-08 0)
(-9.72289e-11 1.00834e-08 0)
(9.72289e-11 1.00834e-08 0)
(2.86308e-10 1.01098e-08 0)
(4.60292e-10 1.01422e-08 0)
(6.13182e-10 1.01908e-08 0)
(7.43586e-10 1.0254e-08 0)
(8.5325e-10 1.03279e-08 0)
(9.45664e-10 1.04114e-08 0)
(1.02467e-09 1.05031e-08 0)
(1.12663e-09 1.07264e-08 0)
(1.23849e-09 1.0997e-08 0)
(1.32172e-09 1.12975e-08 0)
(1.39481e-09 1.16259e-08 0)
(1.47414e-09 1.1986e-08 0)
(1.56779e-09 1.23935e-08 0)
(1.66547e-09 1.28572e-08 0)
(1.76044e-09 1.33797e-08 0)
(1.86383e-09 1.3963e-08 0)
(1.98523e-09 1.46172e-08 0)
(2.1187e-09 1.53707e-08 0)
(2.26143e-09 1.6225e-08 0)
(2.43011e-09 1.7199e-08 0)
(2.64292e-09 1.83233e-08 0)
(2.88225e-09 1.96457e-08 0)
(3.13736e-09 2.11843e-08 0)
(3.43209e-09 2.30016e-08 0)
(3.7712e-09 2.5178e-08 0)
(4.17885e-09 2.7809e-08 0)
(4.69255e-09 3.10649e-08 0)
(5.29985e-09 3.52084e-08 0)
(6.1094e-09 4.05346e-08 0)
(7.36595e-09 4.76972e-08 0)
(9.11557e-09 5.79618e-08 0)
(1.16555e-08 7.34592e-08 0)
(1.58956e-08 9.98814e-08 0)
(2.47125e-08 1.55238e-07 0)
(5.38104e-08 3.60252e-07 0)
(3.31383e-07 1.36313e-06 0)
(3.68725e-07 8.43662e-06 0)
(6.52808e-06 2.20795e-05 0)
(6.45235e-06 2.74615e-06 0)
(-4.5271e-06 5.29175e-06 0)
(-3.29533e-06 1.92495e-05 0)
(5.02167e-06 1.55801e-05 0)
(5.84642e-07 4.22412e-06 0)
(-3.45143e-06 1.13149e-05 0)
(-2.85638e-07 1.08377e-06 0)
(-5.6223e-08 3.87172e-07 0)
(-2.75081e-08 1.88345e-07 0)
(-1.87358e-08 1.30104e-07 0)
(-1.41668e-08 1.00575e-07 0)
(-1.12939e-08 8.27419e-08 0)
(-9.59852e-09 7.04798e-08 0)
(-8.38802e-09 6.13621e-08 0)
(-7.39139e-09 5.44611e-08 0)
(-6.6279e-09 4.90198e-08 0)
(-6.00481e-09 4.45807e-08 0)
(-5.4692e-09 4.09277e-08 0)
(-5.01428e-09 3.78615e-08 0)
(-4.58649e-09 3.52371e-08 0)
(-4.20659e-09 3.30369e-08 0)
(-3.91153e-09 3.11354e-08 0)
(-3.6633e-09 2.94681e-08 0)
(-3.42903e-09 2.79985e-08 0)
(-3.21588e-09 2.6732e-08 0)
(-3.03749e-09 2.56058e-08 0)
(-2.87447e-09 2.45959e-08 0)
(-2.70407e-09 2.36974e-08 0)
(-2.54022e-09 2.29172e-08 0)
(-2.40442e-09 2.22284e-08 0)
(-2.28153e-09 2.15988e-08 0)
(-2.14235e-09 2.10202e-08 0)
(-1.95345e-09 2.0499e-08 0)
(-1.78102e-09 2.00762e-08 0)
(-1.64882e-09 1.99053e-08 0)
(-1.49402e-09 1.97512e-08 0)
(-1.30879e-09 1.9616e-08 0)
(-1.08542e-09 1.95018e-08 0)
(-8.19193e-10 1.94145e-08 0)
(-5.11692e-10 1.93562e-08 0)
(-1.74164e-10 1.9308e-08 0)
(1.74164e-10 1.9308e-08 0)
(5.11692e-10 1.93562e-08 0)
(8.19193e-10 1.94145e-08 0)
(1.08542e-09 1.95018e-08 0)
(1.30879e-09 1.9616e-08 0)
(1.49402e-09 1.97512e-08 0)
(1.64882e-09 1.99053e-08 0)
(1.78102e-09 2.00762e-08 0)
(1.95345e-09 2.0499e-08 0)
(2.14235e-09 2.10202e-08 0)
(2.28153e-09 2.15988e-08 0)
(2.40442e-09 2.22284e-08 0)
(2.54022e-09 2.29172e-08 0)
(2.70407e-09 2.36974e-08 0)
(2.87447e-09 2.45959e-08 0)
(3.03749e-09 2.56058e-08 0)
(3.21588e-09 2.6732e-08 0)
(3.42903e-09 2.79985e-08 0)
(3.6633e-09 2.94681e-08 0)
(3.91153e-09 3.11354e-08 0)
(4.20659e-09 3.30369e-08 0)
(4.58649e-09 3.52371e-08 0)
(5.01428e-09 3.78615e-08 0)
(5.4692e-09 4.09277e-08 0)
(6.00481e-09 4.45807e-08 0)
(6.6279e-09 4.90198e-08 0)
(7.39139e-09 5.44611e-08 0)
(8.38802e-09 6.13621e-08 0)
(9.59852e-09 7.04798e-08 0)
(1.12939e-08 8.27419e-08 0)
(1.41668e-08 1.00575e-07 0)
(1.87358e-08 1.30104e-07 0)
(2.75081e-08 1.88345e-07 0)
(5.6223e-08 3.87172e-07 0)
(2.85638e-07 1.08377e-06 0)
(3.45143e-06 1.13149e-05 0)
(-5.84642e-07 4.22412e-06 0)
(-5.02167e-06 1.55801e-05 0)
(3.29533e-06 1.92495e-05 0)
(4.5271e-06 5.29175e-06 0)
(-3.06031e-06 7.21962e-06 0)
(-2.19858e-06 1.67893e-05 0)
(3.49542e-06 1.44792e-05 0)
(4.96169e-07 7.21469e-06 0)
(3.14127e-06 2.00307e-05 0)
(2.43646e-06 4.10702e-06 0)
(-3.19458e-06 1.0581e-05 0)
(-4.03697e-07 1.39265e-06 0)
(-7.15976e-08 4.58936e-07 0)
(-3.22416e-08 2.32777e-07 0)
(-2.11331e-08 1.60316e-07 0)
(-1.65276e-08 1.26178e-07 0)
(-1.38175e-08 1.05224e-07 0)
(-1.18192e-08 9.11038e-08 0)
(-1.04211e-08 8.07509e-08 0)
(-9.33878e-09 7.267e-08 0)
(-8.43661e-09 6.62528e-08 0)
(-7.70088e-09 6.09831e-08 0)
(-7.00933e-09 5.65235e-08 0)
(-6.39821e-09 5.28751e-08 0)
(-5.94163e-09 4.97405e-08 0)
(-5.56169e-09 4.70015e-08 0)
(-5.19703e-09 4.45928e-08 0)
(-4.86497e-09 4.25425e-08 0)
(-4.59554e-09 4.07251e-08 0)
(-4.35158e-09 3.90943e-08 0)
(-4.08879e-09 3.76383e-08 0)
(-3.8345e-09 3.63958e-08 0)
(-3.63195e-09 3.53008e-08 0)
(-3.45418e-09 3.42969e-08 0)
(-3.2545e-09 3.33698e-08 0)
(-2.97794e-09 3.25339e-08 0)
(-2.72475e-09 3.18724e-08 0)
(-2.53487e-09 3.16104e-08 0)
(-2.31252e-09 3.13769e-08 0)
(-2.04291e-09 3.11739e-08 0)
(-1.71003e-09 3.10034e-08 0)
(-1.30213e-09 3.08727e-08 0)
(-8.19042e-10 3.07834e-08 0)
(-2.79837e-10 3.07095e-08 0)
(2.79837e-10 3.07095e-08 0)
(8.19042e-10 3.07834e-08 0)
(1.30213e-09 3.08727e-08 0)
(1.71003e-09 3.10034e-08 0)
(2.04291e-09 3.11739e-08 0)
(2.31252e-09 3.13769e-08 0)
(2.53487e-09 3.16104e-08 0)
(2.72475e-09 3.18724e-08 0)
(2.97794e-09 3.25339e-08 0)
(3.2545e-09 3.33698e-08 0)
(3.45418e-09 3.42969e-08 0)
(3.63195e-09 3.53008e-08 0)
(3.8345e-09 3.63958e-08 0)
(4.08879e-09 3.76383e-08 0)
(4.35158e-09 3.90943e-08 0)
(4.59554e-09 4.07251e-08 0)
(4.86497e-09 4.25424e-08 0)
(5.19703e-09 4.45928e-08 0)
(5.56169e-09 4.70015e-08 0)
(5.94163e-09 4.97405e-08 0)
(6.39821e-09 5.28751e-08 0)
(7.00933e-09 5.65235e-08 0)
(7.70088e-09 6.09831e-08 0)
(8.43661e-09 6.62528e-08 0)
(9.33878e-09 7.267e-08 0)
(1.04211e-08 8.07509e-08 0)
(1.18192e-08 9.11038e-08 0)
(1.38175e-08 1.05224e-07 0)
(1.65276e-08 1.26178e-07 0)
(2.11331e-08 1.60316e-07 0)
(3.22416e-08 2.32777e-07 0)
(7.15976e-08 4.58936e-07 0)
(4.03697e-07 1.39265e-06 0)
(3.19458e-06 1.0581e-05 0)
(-2.43646e-06 4.10702e-06 0)
(-3.14127e-06 2.00307e-05 0)
(-4.96169e-07 7.21469e-06 0)
(-3.49542e-06 1.44792e-05 0)
(2.19858e-06 1.67893e-05 0)
(3.06031e-06 7.21962e-06 0)
(-1.97812e-06 8.62237e-06 0)
(-1.36011e-06 1.49736e-05 0)
(2.47706e-06 1.36389e-05 0)
(1.06385e-06 9.27524e-06 0)
(2.83068e-06 1.67409e-05 0)
(2.86343e-06 7.5763e-06 0)
(5.05744e-06 1.85989e-05 0)
(5.15266e-06 4.42361e-06 0)
(-1.68138e-06 7.53117e-06 0)
(-1.10242e-06 3.46396e-06 0)
(-1.16135e-07 6.13532e-07 0)
(-4.34415e-08 3.31498e-07 0)
(-2.66285e-08 2.01696e-07 0)
(-1.98782e-08 1.54687e-07 0)
(-1.63839e-08 1.29036e-07 0)
(-1.41285e-08 1.12121e-07 0)
(-1.24468e-08 1.00092e-07 0)
(-1.12082e-08 9.08833e-08 0)
(-1.00809e-08 8.34043e-08 0)
(-9.10795e-09 7.75905e-08 0)
(-8.43071e-09 7.26902e-08 0)
(-7.88008e-09 6.84699e-08 0)
(-7.33917e-09 6.4788e-08 0)
(-6.84701e-09 6.17223e-08 0)
(-6.46837e-09 5.90201e-08 0)
(-6.13149e-09 5.65978e-08 0)
(-5.74944e-09 5.44247e-08 0)
(-5.37579e-09 5.26198e-08 0)
(-5.09727e-09 5.1032e-08 0)
(-4.86461e-09 4.95719e-08 0)
(-4.60681e-09 4.82162e-08 0)
(-4.23519e-09 4.69899e-08 0)
(-3.89306e-09 4.60551e-08 0)
(-3.64777e-09 4.56952e-08 0)
(-3.36184e-09 4.53786e-08 0)
(-3.00803e-09 4.51045e-08 0)
(-2.55397e-09 4.48723e-08 0)
(-1.97174e-09 4.46887e-08 0)
(-1.25379e-09 4.45561e-08 0)
(-4.30909e-10 4.44477e-08 0)
(4.30909e-10 4.44477e-08 0)
(1.25379e-09 4.45561e-08 0)
(1.97174e-09 4.46887e-08 0)
(2.55397e-09 4.48723e-08 0)
(3.00803e-09 4.51045e-08 0)
(3.36184e-09 4.53786e-08 0)
(3.64777e-09 4.56952e-08 0)
(3.89306e-09 4.60551e-08 0)
(4.23519e-09 4.69899e-08 0)
(4.60681e-09 4.82162e-08 0)
(4.86461e-09 4.95719e-08 0)
(5.09727e-09 5.1032e-08 0)
(5.37579e-09 5.26198e-08 0)
(5.74944e-09 5.44247e-08 0)
(6.13149e-09 5.65978e-08 0)
(6.46837e-09 5.90201e-08 0)
(6.84701e-09 6.17223e-08 0)
(7.33917e-09 6.4788e-08 0)
(7.88008e-09 6.84699e-08 0)
(8.43071e-09 7.26902e-08 0)
(9.10795e-09 7.75905e-08 0)
(1.00809e-08 8.34043e-08 0)
(1.12082e-08 9.08833e-08 0)
(1.24468e-08 1.00092e-07 0)
(1.41285e-08 1.12121e-07 0)
(1.63839e-08 1.29036e-07 0)
(1.98782e-08 1.54687e-07 0)
(2.66285e-08 2.01696e-07 0)
(4.34415e-08 3.31498e-07 0)
(1.16135e-07 6.13532e-07 0)
(1.10242e-06 3.46396e-06 0)
(1.68138e-06 7.53117e-06 0)
(-5.15266e-06 4.42361e-06 0)
(-5.05744e-06 1.85989e-05 0)
(-2.86343e-06 7.5763e-06 0)
(-2.83068e-06 1.67409e-05 0)
(-1.06385e-06 9.27524e-06 0)
(-2.47706e-06 1.36389e-05 0)
(1.36011e-06 1.49736e-05 0)
(1.97812e-06 8.62237e-06 0)
(-1.20619e-06 9.59351e-06 0)
(-7.32543e-07 1.36679e-05 0)
(1.83649e-06 1.29869e-05 0)
(1.39796e-06 1.04845e-05 0)
(2.64734e-06 1.46087e-05 0)
(3.05191e-06 9.56829e-06 0)
(4.66647e-06 1.54405e-05 0)
(5.25317e-06 7.3647e-06 0)
(5.16072e-06 1.33187e-05 0)
(6.71075e-06 7.09823e-06 0)
(-1.60206e-06 3.19485e-06 0)
(-4.52914e-06 1.23314e-05 0)
(-4.12062e-07 1.18062e-06 0)
(-8.55123e-08 4.69397e-07 0)
(-3.87136e-08 2.97722e-07 0)
(-2.54303e-08 1.9825e-07 0)
(-1.97771e-08 1.58557e-07 0)
(-1.67495e-08 1.36009e-07 0)
(-1.44727e-08 1.20613e-07 0)
(-1.26997e-08 1.10122e-07 0)
(-1.16167e-08 1.01884e-07 0)
(-1.0788e-08 9.51566e-08 0)
(-9.96732e-09 8.94662e-08 0)
(-9.23117e-09 8.4942e-08 0)
(-8.71464e-09 8.10165e-08 0)
(-8.27228e-09 7.75325e-08 0)
(-7.72808e-09 7.43922e-08 0)
(-7.18758e-09 7.19007e-08 0)
(-6.82617e-09 6.97123e-08 0)
(-6.54705e-09 6.76954e-08 0)
(-6.24584e-09 6.58141e-08 0)
(-5.77494e-09 6.40974e-08 0)
(-5.33628e-09 6.28663e-08 0)
(-5.0506e-09 6.24127e-08 0)
(-4.72382e-09 6.20188e-08 0)
(-4.30673e-09 6.16754e-08 0)
(-3.73499e-09 6.13722e-08 0)
(-2.9442e-09 6.11099e-08 0)
(-1.90323e-09 6.08979e-08 0)
(-6.59892e-10 6.07313e-08 0)
(6.59892e-10 6.07313e-08 0)
(1.90323e-09 6.08979e-08 0)
(2.9442e-09 6.11099e-08 0)
(3.73499e-09 6.13722e-08 0)
(4.30673e-09 6.16754e-08 0)
(4.72382e-09 6.20188e-08 0)
(5.0506e-09 6.24127e-08 0)
(5.33628e-09 6.28663e-08 0)
(5.77494e-09 6.40974e-08 0)
(6.24584e-09 6.58141e-08 0)
(6.54705e-09 6.76954e-08 0)
(6.82617e-09 6.97123e-08 0)
(7.18758e-09 7.19007e-08 0)
(7.72808e-09 7.43922e-08 0)
(8.27228e-09 7.75325e-08 0)
(8.71464e-09 8.10165e-08 0)
(9.23117e-09 8.4942e-08 0)
(9.96732e-09 8.94662e-08 0)
(1.0788e-08 9.51566e-08 0)
(1.16167e-08 1.01884e-07 0)
(1.26997e-08 1.10122e-07 0)
(1.44727e-08 1.20613e-07 0)
(1.67495e-08 1.36009e-07 0)
(1.97771e-08 1.58557e-07 0)
(2.54303e-08 1.9825e-07 0)
(3.87136e-08 2.97722e-07 0)
(8.55123e-08 4.69397e-07 0)
(4.12062e-07 1.18062e-06 0)
(4.52914e-06 1.23314e-05 0)
(1.60206e-06 3.19485e-06 0)
(-6.71075e-06 7.09823e-06 0)
(-5.16072e-06 1.33187e-05 0)
(-5.25317e-06 7.3647e-06 0)
(-4.66647e-06 1.54405e-05 0)
(-3.05191e-06 9.56829e-06 0)
(-2.64734e-06 1.46087e-05 0)
(-1.39796e-06 1.04845e-05 0)
(-1.83649e-06 1.29869e-05 0)
(7.32543e-07 1.36679e-05 0)
(1.20619e-06 9.59351e-06 0)
(-6.7455e-07 1.02214e-05 0)
(-2.72934e-07 1.2745e-05 0)
(1.46218e-06 1.24667e-05 0)
(1.58017e-06 1.11044e-05 0)
(2.53848e-06 1.32466e-05 0)
(3.12656e-06 1.05918e-05 0)
(4.34985e-06 1.34631e-05 0)
(4.93133e-06 8.947e-06 0)
(5.02601e-06 1.17327e-05 0)
(5.53682e-06 8.00328e-06 0)
(8.96008e-07 6.61543e-06 0)
(6.37264e-06 2.09826e-05 0)
(1.04332e-05 3.83074e-06 0)
(-1.49769e-06 3.22551e-06 0)
(-4.60479e-06 1.21218e-05 0)
(-4.17273e-07 1.08532e-06 0)
(-9.38651e-08 4.66291e-07 0)
(-4.28455e-08 3.05209e-07 0)
(-2.65542e-08 2.12147e-07 0)
(-1.97879e-08 1.70311e-07 0)
(-1.68448e-08 1.47436e-07 0)
(-1.50557e-08 1.32682e-07 0)
(-1.3517e-08 1.2188e-07 0)
(-1.22504e-08 1.14263e-07 0)
(-1.14926e-08 1.08062e-07 0)
(-1.09045e-08 1.02826e-07 0)
(-1.01061e-08 9.81549e-08 0)
(-9.30282e-09 9.475e-08 0)
(-8.85356e-09 9.17745e-08 0)
(-8.54795e-09 8.90471e-08 0)
(-8.23981e-09 8.65059e-08 0)
(-7.66434e-09 8.41404e-08 0)
(-7.11404e-09 8.2619e-08 0)
(-6.82661e-09 8.20991e-08 0)
(-6.52011e-09 8.16546e-08 0)
(-6.10797e-09 8.12549e-08 0)
(-5.46514e-09 8.08614e-08 0)
(-4.44478e-09 8.04526e-08 0)
(-2.94475e-09 8.00568e-08 0)
(-1.034e-09 7.97646e-08 0)
(1.034e-09 7.97646e-08 0)
(2.94475e-09 8.00568e-08 0)
(4.44478e-09 8.04526e-08 0)
(5.46514e-09 8.08614e-08 0)
(6.10797e-09 8.12549e-08 0)
(6.52011e-09 8.16546e-08 0)
(6.82661e-09 8.20991e-08 0)
(7.11404e-09 8.2619e-08 0)
(7.66434e-09 8.41404e-08 0)
(8.23981e-09 8.65059e-08 0)
(8.54795e-09 8.90471e-08 0)
(8.85356e-09 9.17745e-08 0)
(9.30282e-09 9.475e-08 0)
(1.01061e-08 9.81549e-08 0)
(1.09045e-08 1.02826e-07 0)
(1.14926e-08 1.08062e-07 0)
(1.22504e-08 1.14263e-07 0)
(1.3517e-08 1.2188e-07 0)
(1.50557e-08 1.32682e-07 0)
(1.68448e-08 1.47436e-07 0)
(1.97879e-08 1.70311e-07 0)
(2.65542e-08 2.12147e-07 0)
(4.28455e-08 3.05209e-07 0)
(9.38651e-08 4.66291e-07 0)
(4.17273e-07 1.08532e-06 0)
(4.60479e-06 1.21218e-05 0)
(1.49769e-06 3.22551e-06 0)
(-1.04332e-05 3.83074e-06 0)
(-6.37264e-06 2.09826e-05 0)
(-8.96008e-07 6.61543e-06 0)
(-5.53682e-06 8.00328e-06 0)
(-5.02601e-06 1.17327e-05 0)
(-4.93133e-06 8.947e-06 0)
(-4.34985e-06 1.34631e-05 0)
(-3.12656e-06 1.05918e-05 0)
(-2.53848e-06 1.32466e-05 0)
(-1.58017e-06 1.11044e-05 0)
(-1.46218e-06 1.24667e-05 0)
(2.72934e-07 1.2745e-05 0)
(6.7455e-07 1.02214e-05 0)
(-3.2133e-07 1.05849e-05 0)
(5.60656e-08 1.20929e-05 0)
(1.26399e-06 1.20359e-05 0)
(1.66967e-06 1.1336e-05 0)
(2.46769e-06 1.2366e-05 0)
(3.12503e-06 1.10091e-05 0)
(4.08684e-06 1.22395e-05 0)
(4.64225e-06 9.74919e-06 0)
(4.8236e-06 1.08266e-05 0)
(4.9257e-06 8.68896e-06 0)
(2.63968e-06 8.45958e-06 0)
(5.949e-06 1.59156e-05 0)
(8.18927e-06 6.59105e-06 0)
(2.64634e-06 6.84168e-06 0)
(8.51467e-06 2.03967e-05 0)
(1.28828e-05 3.62473e-06 0)
(2.87126e-06 2.90655e-06 0)
(-2.13819e-06 8.1928e-06 0)
(-8.82395e-07 2.06147e-06 0)
(-1.43382e-07 5.67208e-07 0)
(-5.73816e-08 3.43744e-07 0)
(-3.23059e-08 2.55067e-07 0)
(-2.2457e-08 1.94246e-07 0)
(-1.78621e-08 1.65163e-07 0)
(-1.58455e-08 1.48283e-07 0)
(-1.46602e-08 1.36995e-07 0)
(-1.32183e-08 1.28143e-07 0)
(-1.18471e-08 1.22719e-07 0)
(-1.12695e-08 1.1823e-07 0)
(-1.09507e-08 1.14338e-07 0)
(-1.07034e-08 1.10839e-07 0)
(-9.99522e-09 1.07478e-07 0)
(-9.27929e-09 1.05727e-07 0)
(-9.07183e-09 1.05214e-07 0)
(-8.92355e-09 1.04788e-07 0)
(-8.69039e-09 1.04376e-07 0)
(-8.14014e-09 1.03861e-07 0)
(-6.94057e-09 1.03135e-07 0)
(-4.76885e-09 1.02249e-07 0)
(-1.70326e-09 1.01642e-07 0)
(1.70326e-09 1.01642e-07 0)
(4.76885e-09 1.02249e-07 0)
(6.94057e-09 1.03135e-07 0)
(8.14014e-09 1.03861e-07 0)
(8.69039e-09 1.04376e-07 0)
(8.92355e-09 1.04788e-07 0)
(9.07183e-09 1.05214e-07 0)
(9.27929e-09 1.05727e-07 0)
(9.99522e-09 1.07478e-07 0)
(1.07034e-08 1.10839e-07 0)
(1.09507e-08 1.14338e-07 0)
(1.12695e-08 1.1823e-07 0)
(1.18471e-08 1.22719e-07 0)
(1.32183e-08 1.28143e-07 0)
(1.46602e-08 1.36995e-07 0)
(1.58455e-08 1.48283e-07 0)
(1.78621e-08 1.65163e-07 0)
(2.2457e-08 1.94246e-07 0)
(3.23059e-08 2.55067e-07 0)
(5.73816e-08 3.43744e-07 0)
(1.43382e-07 5.67208e-07 0)
(8.82395e-07 2.06147e-06 0)
(2.13819e-06 8.1928e-06 0)
(-2.87126e-06 2.90655e-06 0)
(-1.28828e-05 3.62473e-06 0)
(-8.51467e-06 2.03967e-05 0)
(-2.64634e-06 6.84168e-06 0)
(-8.18927e-06 6.59105e-06 0)
(-5.949e-06 1.59156e-05 0)
(-2.63968e-06 8.45958e-06 0)
(-4.9257e-06 8.68896e-06 0)
(-4.8236e-06 1.08266e-05 0)
(-4.64225e-06 9.74919e-06 0)
(-4.08684e-06 1.22395e-05 0)
(-3.12503e-06 1.10091e-05 0)
(-2.46769e-06 1.2366e-05 0)
(-1.66967e-06 1.1336e-05 0)
(-1.26399e-06 1.20359e-05 0)
(-5.60656e-08 1.20929e-05 0)
(3.2133e-07 1.05849e-05 0)
(-9.50563e-08 1.07501e-05 0)
(2.85714e-07 1.1619e-05 0)
(1.17336e-06 1.16629e-05 0)
(1.70585e-06 1.13248e-05 0)
(2.41228e-06 1.17666e-05 0)
(3.07524e-06 1.1071e-05 0)
(3.86258e-06 1.1469e-05 0)
(4.38428e-06 1.0082e-05 0)
(4.61412e-06 1.03255e-05 0)
(4.63269e-06 9.14245e-06 0)
(3.66823e-06 9.30411e-06 0)
(5.65322e-06 1.29414e-05 0)
(6.95763e-06 8.14032e-06 0)
(4.55423e-06 8.46733e-06 0)
(7.97856e-06 1.50351e-05 0)
(1.04597e-05 6.2343e-06 0)
(6.3871e-06 5.91723e-06 0)
(9.3992e-06 1.38175e-05 0)
(1.26407e-05 4.58304e-06 0)
(8.28843e-06 2.03414e-06 0)
(-5.44833e-08 2.95217e-06 0)
(-3.33264e-06 8.83416e-06 0)
(-5.25289e-07 1.11801e-06 0)
(-1.21058e-07 4.56892e-07 0)
(-5.40523e-08 3.06199e-07 0)
(-3.20934e-08 2.40018e-07 0)
(-2.18245e-08 1.97917e-07 0)
(-1.66019e-08 1.71909e-07 0)
(-1.49849e-08 1.57134e-07 0)
(-1.4253e-08 1.4777e-07 0)
(-1.40172e-08 1.41122e-07 0)
(-1.29718e-08 1.35152e-07 0)
(-1.18593e-08 1.33072e-07 0)
(-1.18803e-08 1.32621e-07 0)
(-1.21672e-08 1.32298e-07 0)
(-1.25102e-08 1.31966e-07 0)
(-1.25274e-08 1.31303e-07 0)
(-1.149e-08 1.29874e-07 0)
(-8.32776e-09 1.27516e-07 0)
(-3.03258e-09 1.26071e-07 0)
(3.03258e-09 1.26071e-07 0)
(8.32776e-09 1.27516e-07 0)
(1.149e-08 1.29874e-07 0)
(1.25274e-08 1.31303e-07 0)
(1.25102e-08 1.31966e-07 0)
(1.21672e-08 1.32298e-07 0)
(1.18803e-08 1.32621e-07 0)
(1.18593e-08 1.33072e-07 0)
(1.29718e-08 1.35152e-07 0)
(1.40172e-08 1.41122e-07 0)
(1.4253e-08 1.4777e-07 0)
(1.49849e-08 1.57134e-07 0)
(1.66019e-08 1.71909e-07 0)
(2.18245e-08 1.97917e-07 0)
(3.20934e-08 2.40018e-07 0)
(5.40523e-08 3.06199e-07 0)
(1.21058e-07 4.56892e-07 0)
(5.25289e-07 1.11801e-06 0)
(3.33264e-06 8.83416e-06 0)
(5.44833e-08 2.95217e-06 0)
(-8.28843e-06 2.03414e-06 0)
(-1.26407e-05 4.58304e-06 0)
(-9.3992e-06 1.38175e-05 0)
(-6.3871e-06 5.91723e-06 0)
(-1.04597e-05 6.2343e-06 0)
(-7.97856e-06 1.50351e-05 0)
(-4.55423e-06 8.46733e-06 0)
(-6.95763e-06 8.14032e-06 0)
(-5.65322e-06 1.29414e-05 0)
(-3.66823e-06 9.30411e-06 0)
(-4.63269e-06 9.14245e-06 0)
(-4.61412e-06 1.03255e-05 0)
(-4.38428e-06 1.0082e-05 0)
(-3.86258e-06 1.1469e-05 0)
(-3.07524e-06 1.1071e-05 0)
(-2.41228e-06 1.17666e-05 0)
(-1.70585e-06 1.13248e-05 0)
(-1.17336e-06 1.16629e-05 0)
(-2.85714e-07 1.1619e-05 0)
(9.50563e-08 1.07501e-05 0)
(4.4629e-08 1.07697e-05 0)
(4.41266e-07 1.12521e-05 0)
(1.14144e-06 1.13249e-05 0)
(1.71249e-06 1.11693e-05 0)
(2.35976e-06 1.13191e-05 0)
(2.997e-06 1.09387e-05 0)
(3.66708e-06 1.09532e-05 0)
(4.1568e-06 1.0147e-05 0)
(4.42451e-06 1.00376e-05 0)
(4.49813e-06 9.38807e-06 0)
(4.23583e-06 9.59161e-06 0)
(5.45815e-06 1.12379e-05 0)
(6.31142e-06 8.88993e-06 0)
(5.53928e-06 9.10159e-06 0)
(7.5698e-06 1.19946e-05 0)
(9.04745e-06 7.52833e-06 0)
(7.40636e-06 7.12354e-06 0)
(9.07962e-06 1.05474e-05 0)
(1.07324e-05 5.7012e-06 0)
(8.30375e-06 3.90322e-06 0)
(5.66143e-06 5.8696e-06 0)
(1.07616e-05 1.44555e-05 0)
(1.4686e-05 3.01361e-06 0)
(1.08234e-05 1.49271e-06 0)
(6.37185e-06 1.73934e-06 0)
(1.05159e-06 4.70415e-06 0)
(-8.62078e-07 1.6589e-06 0)
(-1.64899e-07 4.47672e-07 0)
(-6.82887e-08 2.98424e-07 0)
(-3.84989e-08 2.36863e-07 0)
(-2.68661e-08 2.04369e-07 0)
(-1.99051e-08 1.88534e-07 0)
(-1.5956e-08 1.76185e-07 0)
(-1.60489e-08 1.72125e-07 0)
(-1.69812e-08 1.69411e-07 0)
(-1.85305e-08 1.67737e-07 0)
(-2.02842e-08 1.66187e-07 0)
(-2.08693e-08 1.63062e-07 0)
(-1.62998e-08 1.553e-07 0)
(-5.99118e-09 1.51638e-07 0)
(5.99118e-09 1.51638e-07 0)
(1.62998e-08 1.553e-07 0)
(2.08693e-08 1.63062e-07 0)
(2.02842e-08 1.66187e-07 0)
(1.85305e-08 1.67737e-07 0)
(1.69812e-08 1.69411e-07 0)
(1.60489e-08 1.72125e-07 0)
(1.5956e-08 1.76185e-07 0)
(1.99051e-08 1.88534e-07 0)
(2.68661e-08 2.04369e-07 0)
(3.84989e-08 2.36863e-07 0)
(6.82887e-08 2.98424e-07 0)
(1.64899e-07 4.47672e-07 0)
(8.62078e-07 1.6589e-06 0)
(-1.05159e-06 4.70415e-06 0)
(-6.37185e-06 1.73934e-06 0)
(-1.08234e-05 1.49271e-06 0)
(-1.4686e-05 3.01361e-06 0)
(-1.07616e-05 1.44555e-05 0)
(-5.66143e-06 5.8696e-06 0)
(-8.30375e-06 3.90322e-06 0)
(-1.07324e-05 5.7012e-06 0)
(-9.07962e-06 1.05474e-05 0)
(-7.40636e-06 7.12354e-06 0)
(-9.04745e-06 7.52833e-06 0)
(-7.5698e-06 1.19946e-05 0)
(-5.53928e-06 9.10159e-06 0)
(-6.31142e-06 8.88993e-06 0)
(-5.45815e-06 1.12379e-05 0)
(-4.23583e-06 9.59161e-06 0)
(-4.49813e-06 9.38807e-06 0)
(-4.42451e-06 1.00376e-05 0)
(-4.1568e-06 1.0147e-05 0)
(-3.66708e-06 1.09532e-05 0)
(-2.997e-06 1.09387e-05 0)
(-2.35976e-06 1.13191e-05 0)
(-1.71249e-06 1.11693e-05 0)
(-1.14144e-06 1.13249e-05 0)
(-4.41266e-07 1.12521e-05 0)
(-4.4629e-08 1.07697e-05 0)
(1.27561e-07 1.06836e-05 0)
(5.42481e-07 1.09405e-05 0)
(1.13595e-06 1.10056e-05 0)
(1.70234e-06 1.09319e-05 0)
(2.30445e-06 1.09458e-05 0)
(2.90368e-06 1.07075e-05 0)
(3.49388e-06 1.05692e-05 0)
(3.95806e-06 1.00645e-05 0)
(4.26091e-06 9.83997e-06 0)
(4.42734e-06 9.46611e-06 0)
(4.51896e-06 9.58913e-06 0)
(5.32857e-06 1.02549e-05 0)
(5.97426e-06 9.14375e-06 0)
(5.97892e-06 9.20597e-06 0)
(7.24788e-06 1.02921e-05 0)
(8.21154e-06 8.04727e-06 0)
(7.76653e-06 7.59891e-06 0)
(8.73377e-06 8.79521e-06 0)
(9.57255e-06 6.25192e-06 0)
(8.3694e-06 5.10294e-06 0)
(7.35949e-06 6.42111e-06 0)
(1.01969e-05 1.00689e-05 0)
(1.24029e-05 4.43765e-06 0)
(1.05787e-05 2.80683e-06 0)
(8.81781e-06 3.40598e-06 0)
(1.09044e-05 7.6505e-06 0)
(1.35378e-05 3.15338e-06 0)
(1.27205e-05 1.02222e-06 0)
(1.17146e-05 5.98139e-07 0)
(1.07806e-05 6.01892e-07 0)
(8.47614e-06 8.72426e-07 0)
(3.29299e-06 -1.37337e-06 0)
(-1.40074e-07 2.12085e-07 0)
(-1.0187e-07 2.0897e-07 0)
(-7.70601e-08 2.01456e-07 0)
(-6.15277e-08 1.93144e-07 0)
(-5.13232e-08 1.8288e-07 0)
(-4.924e-08 1.73108e-07 0)
(-3.91029e-08 1.77984e-07 0)
(-1.34756e-08 1.74529e-07 0)
(1.34756e-08 1.74529e-07 0)
(3.91029e-08 1.77984e-07 0)
(4.924e-08 1.73108e-07 0)
(5.13232e-08 1.8288e-07 0)
(6.15277e-08 1.93144e-07 0)
(7.70601e-08 2.01456e-07 0)
(1.0187e-07 2.0897e-07 0)
(1.40074e-07 2.12085e-07 0)
(-3.29299e-06 -1.37337e-06 0)
(-8.47614e-06 8.72426e-07 0)
(-1.07806e-05 6.01892e-07 0)
(-1.17146e-05 5.98139e-07 0)
(-1.27205e-05 1.02222e-06 0)
(-1.35378e-05 3.15338e-06 0)
(-1.09044e-05 7.6505e-06 0)
(-8.81781e-06 3.40598e-06 0)
(-1.05787e-05 2.80683e-06 0)
(-1.24029e-05 4.43765e-06 0)
(-1.01969e-05 1.00689e-05 0)
(-7.35949e-06 6.42111e-06 0)
(-8.3694e-06 5.10294e-06 0)
(-9.57255e-06 6.25192e-06 0)
(-8.73377e-06 8.79521e-06 0)
(-7.76653e-06 7.59891e-06 0)
(-8.21154e-06 8.04727e-06 0)
(-7.24788e-06 1.02921e-05 0)
(-5.97892e-06 9.20597e-06 0)
(-5.97426e-06 9.14375e-06 0)
(-5.32857e-06 1.02549e-05 0)
(-4.51896e-06 9.58913e-06 0)
(-4.42734e-06 9.46611e-06 0)
(-4.26091e-06 9.83997e-06 0)
(-3.95806e-06 1.00645e-05 0)
(-3.49388e-06 1.05692e-05 0)
(-2.90368e-06 1.07075e-05 0)
(-2.30445e-06 1.09458e-05 0)
(-1.70234e-06 1.09319e-05 0)
(-1.13595e-06 1.10056e-05 0)
(-5.42481e-07 1.09405e-05 0)
(-1.27561e-07 1.06836e-05 0)
(1.7457e-07 1.05202e-05 0)
(6.04385e-07 1.06499e-05 0)
(1.13737e-06 1.06927e-05 0)
(1.68138e-06 1.0649e-05 0)
(2.24458e-06 1.06039e-05 0)
(2.8038e-06 1.04283e-05 0)
(3.33859e-06 1.02456e-05 0)
(3.78445e-06 9.89986e-06 0)
(4.11899e-06 9.66158e-06 0)
(4.37028e-06 9.41808e-06 0)
(4.632e-06 9.44319e-06 0)
(5.23152e-06 9.64934e-06 0)
(5.78078e-06 9.11001e-06 0)
(6.11337e-06 9.05047e-06 0)
(6.97875e-06 9.31142e-06 0)
(7.68216e-06 8.13915e-06 0)
(7.77313e-06 7.68386e-06 0)
(8.38977e-06 7.86841e-06 0)
(8.86199e-06 6.48379e-06 0)
(8.38825e-06 5.75347e-06 0)
(8.16375e-06 6.41399e-06 0)
(9.75119e-06 7.73084e-06 0)
(1.10073e-05 4.94009e-06 0)
(1.0293e-05 3.64e-06 0)
(9.58919e-06 3.87019e-06 0)
(1.07614e-05 5.45894e-06 0)
(1.22326e-05 3.1696e-06 0)
(1.20604e-05 1.52141e-06 0)
(1.15919e-05 8.7736e-07 0)
(1.16192e-05 7.85753e-07 0)
(1.2879e-05 8.98363e-07 0)
(1.30676e-05 -2.4835e-06 0)
(1.29508e-05 -7.35184e-07 0)
(1.46027e-05 -9.11859e-07 0)
(1.67077e-05 -1.31636e-06 0)
(1.96324e-05 -1.97142e-06 0)
(2.00234e-05 -3.11436e-06 0)
(1.56405e-05 -1.07622e-05 0)
(6.26483e-06 -4.27282e-06 0)
(-2.6551e-08 1.11781e-07 0)
(2.6551e-08 1.11781e-07 0)
(-6.26483e-06 -4.27282e-06 0)
(-1.56405e-05 -1.07622e-05 0)
(-2.00234e-05 -3.11436e-06 0)
(-1.96324e-05 -1.97142e-06 0)
(-1.67077e-05 -1.31636e-06 0)
(-1.46027e-05 -9.11859e-07 0)
(-1.29508e-05 -7.35184e-07 0)
(-1.30676e-05 -2.4835e-06 0)
(-1.2879e-05 8.98363e-07 0)
(-1.16192e-05 7.85753e-07 0)
(-1.15919e-05 8.7736e-07 0)
(-1.20604e-05 1.52141e-06 0)
(-1.22326e-05 3.1696e-06 0)
(-1.07614e-05 5.45894e-06 0)
(-9.58919e-06 3.87019e-06 0)
(-1.0293e-05 3.64e-06 0)
(-1.10073e-05 4.94009e-06 0)
(-9.75119e-06 7.73084e-06 0)
(-8.16375e-06 6.41399e-06 0)
(-8.38825e-06 5.75347e-06 0)
(-8.86199e-06 6.48379e-06 0)
(-8.38977e-06 7.86841e-06 0)
(-7.77313e-06 7.68386e-06 0)
(-7.68216e-06 8.13915e-06 0)
(-6.97875e-06 9.31142e-06 0)
(-6.11337e-06 9.05047e-06 0)
(-5.78078e-06 9.11001e-06 0)
(-5.23152e-06 9.64934e-06 0)
(-4.632e-06 9.44319e-06 0)
(-4.37028e-06 9.41808e-06 0)
(-4.11899e-06 9.66158e-06 0)
(-3.78445e-06 9.89986e-06 0)
(-3.33859e-06 1.02456e-05 0)
(-2.8038e-06 1.04283e-05 0)
(-2.24458e-06 1.06039e-05 0)
(-1.68138e-06 1.0649e-05 0)
(-1.13737e-06 1.06927e-05 0)
(-6.04385e-07 1.06499e-05 0)
(-1.7457e-07 1.05202e-05 0)
(1.99435e-07 1.02992e-05 0)
(6.38142e-07 1.03591e-05 0)
(1.1353e-06 1.03778e-05 0)
(1.65204e-06 1.03399e-05 0)
(2.18022e-06 1.02711e-05 0)
(2.70233e-06 1.01252e-05 0)
(3.19768e-06 9.94306e-06 0)
(3.63087e-06 9.68502e-06 0)
(3.99088e-06 9.46663e-06 0)
(4.30424e-06 9.27877e-06 0)
(4.64422e-06 9.22597e-06 0)
(5.14172e-06 9.2232e-06 0)
(5.64026e-06 8.92038e-06 0)
(6.08453e-06 8.77949e-06 0)
(6.73717e-06 8.69407e-06 0)
(7.30417e-06 8.01194e-06 0)
(7.60643e-06 7.5737e-06 0)
(8.06024e-06 7.35251e-06 0)
(8.39565e-06 6.52772e-06 0)
(8.32646e-06 6.01831e-06 0)
(8.4463e-06 6.20144e-06 0)
(9.37195e-06 6.48119e-06 0)
(1.01285e-05 5.01786e-06 0)
(9.97623e-06 4.05736e-06 0)
(9.81447e-06 3.94794e-06 0)
(1.05056e-05 4.29672e-06 0)
(1.1345e-05 2.98811e-06 0)
(1.14343e-05 1.74464e-06 0)
(1.12932e-05 1.00425e-06 0)
(1.14215e-05 5.64464e-07 0)
(1.20934e-05 -2.1327e-09 0)
(1.25152e-05 -1.94886e-06 0)
(1.28394e-05 -2.24007e-06 0)
(1.3838e-05 -2.87956e-06 0)
(1.5319e-05 -4.0628e-06 0)
(1.75879e-05 -6.06768e-06 0)
(2.13585e-05 -9.70909e-06 0)
(1.83571e-05 -1.44658e-05 0)
(9.0918e-06 -5.18888e-06 0)
(2.60426e-06 -8.00216e-08 0)
(-2.60426e-06 -8.00216e-08 0)
(-9.0918e-06 -5.18888e-06 0)
(-1.83571e-05 -1.44658e-05 0)
(-2.13585e-05 -9.70909e-06 0)
(-1.75879e-05 -6.06768e-06 0)
(-1.5319e-05 -4.0628e-06 0)
(-1.3838e-05 -2.87956e-06 0)
(-1.28394e-05 -2.24007e-06 0)
(-1.25152e-05 -1.94886e-06 0)
(-1.20934e-05 -2.1327e-09 0)
(-1.14215e-05 5.64464e-07 0)
(-1.12932e-05 1.00425e-06 0)
(-1.14343e-05 1.74464e-06 0)
(-1.1345e-05 2.98811e-06 0)
(-1.05056e-05 4.29672e-06 0)
(-9.81447e-06 3.94794e-06 0)
(-9.97623e-06 4.05736e-06 0)
(-1.01285e-05 5.01786e-06 0)
(-9.37195e-06 6.48119e-06 0)
(-8.4463e-06 6.20144e-06 0)
(-8.32646e-06 6.01831e-06 0)
(-8.39565e-06 6.52772e-06 0)
(-8.06024e-06 7.35251e-06 0)
(-7.60643e-06 7.5737e-06 0)
(-7.30417e-06 8.01194e-06 0)
(-6.73717e-06 8.69407e-06 0)
(-6.08453e-06 8.77949e-06 0)
(-5.64026e-06 8.92038e-06 0)
(-5.14172e-06 9.2232e-06 0)
(-4.64422e-06 9.22597e-06 0)
(-4.30424e-06 9.27877e-06 0)
(-3.99088e-06 9.46663e-06 0)
(-3.63087e-06 9.68502e-06 0)
(-3.19768e-06 9.94306e-06 0)
(-2.70233e-06 1.01252e-05 0)
(-2.18022e-06 1.02711e-05 0)