/*--------------------------------*- C++ -*----------------------------------*\
  =========                 |
  \\      /  F ield         | OpenFOAM: The Open Source CFD Toolbox
   \\    /   O peration     | Website:  https://openfoam.org
    \\  /    A nd           | Version:  10
     \\/     M anipulation  |
\*---------------------------------------------------------------------------*/
FoamFile
{
    format      ascii;
    class       volScalarField;
    location    "1.86";
    object      p;
}
// * * * * * * * * * * * * * * * * * * * * * * * * * * * * * * * * * * * * * //

dimensions      [1 -1 -2 0 0 0 0];

internalField   nonuniform List<scalar> 
12225
(
1.67367e+07
1.66823e+07
1.65848e+07
1.64564e+07
1.63072e+07
1.61451e+07
1.59754e+07
1.58018e+07
1.56264e+07
1.54505e+07
1.52745e+07
1.50985e+07
1.4922e+07
1.47439e+07
1.45622e+07
1.43738e+07
1.41718e+07
1.39396e+07
1.6739e+07
1.66843e+07
1.65865e+07
1.64577e+07
1.63083e+07
1.61459e+07
1.59761e+07
1.58024e+07
1.56269e+07
1.5451e+07
1.52751e+07
1.50993e+07
1.49229e+07
1.47451e+07
1.4564e+07
1.43767e+07
1.41778e+07
1.39571e+07
1.67439e+07
1.66887e+07
1.65901e+07
1.64606e+07
1.63105e+07
1.61477e+07
1.59775e+07
1.58036e+07
1.56281e+07
1.54522e+07
1.52764e+07
1.51008e+07
1.49249e+07
1.47478e+07
1.45679e+07
1.4383e+07
1.41894e+07
1.39837e+07
1.6752e+07
1.6696e+07
1.65962e+07
1.64653e+07
1.63142e+07
1.61506e+07
1.59799e+07
1.58056e+07
1.563e+07
1.54541e+07
1.52785e+07
1.51033e+07
1.49281e+07
1.47521e+07
1.45741e+07
1.43926e+07
1.42059e+07
1.40147e+07
1.67641e+07
1.67067e+07
1.6605e+07
1.64723e+07
1.63196e+07
1.61548e+07
1.59833e+07
1.58085e+07
1.56327e+07
1.54569e+07
1.52816e+07
1.5107e+07
1.49327e+07
1.47582e+07
1.45828e+07
1.44055e+07
1.42263e+07
1.40479e+07
1.6781e+07
1.67217e+07
1.66173e+07
1.64819e+07
1.63269e+07
1.61605e+07
1.59879e+07
1.58125e+07
1.56364e+07
1.54606e+07
1.52857e+07
1.51119e+07
1.49389e+07
1.47663e+07
1.45939e+07
1.44214e+07
1.42498e+07
1.40822e+07
1.68037e+07
1.67418e+07
1.66336e+07
1.64945e+07
1.63366e+07
1.61679e+07
1.59938e+07
1.58176e+07
1.56411e+07
1.54654e+07
1.5291e+07
1.51181e+07
1.49467e+07
1.47764e+07
1.46074e+07
1.444e+07
1.42755e+07
1.4117e+07
1.68335e+07
1.67679e+07
1.66546e+07
1.65106e+07
1.63487e+07
1.61773e+07
1.60013e+07
1.5824e+07
1.5647e+07
1.54714e+07
1.52976e+07
1.51259e+07
1.49561e+07
1.47885e+07
1.46232e+07
1.44608e+07
1.43029e+07
1.41521e+07
1.68721e+07
1.68013e+07
1.66811e+07
1.65307e+07
1.63638e+07
1.61887e+07
1.60104e+07
1.58317e+07
1.56541e+07
1.54786e+07
1.53055e+07
1.51351e+07
1.49674e+07
1.48025e+07
1.4641e+07
1.44836e+07
1.43317e+07
1.41872e+07
1.69216e+07
1.68436e+07
1.6714e+07
1.65552e+07
1.63818e+07
1.62022e+07
1.6021e+07
1.58407e+07
1.56625e+07
1.54871e+07
1.53148e+07
1.51458e+07
1.49802e+07
1.48184e+07
1.46607e+07
1.45079e+07
1.43613e+07
1.42224e+07
1.69849e+07
1.68966e+07
1.67542e+07
1.65844e+07
1.6403e+07
1.6218e+07
1.60333e+07
1.5851e+07
1.5672e+07
1.54967e+07
1.53253e+07
1.51579e+07
1.49946e+07
1.48358e+07
1.46818e+07
1.45335e+07
1.43917e+07
1.42575e+07
1.70594e+07
1.69571e+07
1.67986e+07
1.66158e+07
1.64252e+07
1.62341e+07
1.60458e+07
1.58615e+07
1.56817e+07
1.55065e+07
1.5336e+07
1.51701e+07
1.5009e+07
1.48529e+07
1.47023e+07
1.45577e+07
1.44198e+07
1.42894e+07
1.71511e+07
1.70289e+07
1.68492e+07
1.66505e+07
1.64491e+07
1.62513e+07
1.6059e+07
1.58726e+07
1.56919e+07
1.55169e+07
1.53473e+07
1.5183e+07
1.50241e+07
1.48708e+07
1.47233e+07
1.45821e+07
1.44478e+07
1.43207e+07
1.72867e+07
1.71287e+07
1.69156e+07
1.66938e+07
1.6478e+07
1.62716e+07
1.60744e+07
1.58855e+07
1.5704e+07
1.55292e+07
1.53608e+07
1.51985e+07
1.50422e+07
1.48919e+07
1.47478e+07
1.46103e+07
1.44795e+07
1.43559e+07
1.74975e+07
1.72674e+07
1.69992e+07
1.67446e+07
1.65103e+07
1.62935e+07
1.60908e+07
1.58993e+07
1.57172e+07
1.55431e+07
1.53763e+07
1.52163e+07
1.50629e+07
1.4916e+07
1.47756e+07
1.46418e+07
1.45148e+07
1.43946e+07
1.78536e+07
1.74522e+07
1.70926e+07
1.67947e+07
1.65395e+07
1.63125e+07
1.6105e+07
1.59118e+07
1.57298e+07
1.55572e+07
1.53927e+07
1.52356e+07
1.50856e+07
1.49425e+07
1.4806e+07
1.46761e+07
1.45529e+07
1.44362e+07
1.85426e+07
1.76375e+07
1.7153e+07
1.68175e+07
1.65494e+07
1.6318e+07
1.61098e+07
1.59178e+07
1.57381e+07
1.55685e+07
1.54075e+07
1.52544e+07
1.51086e+07
1.49696e+07
1.48374e+07
1.47117e+07
1.45923e+07
1.44792e+07
1.76944e+07
1.73593e+07
1.70336e+07
1.67531e+07
1.65093e+07
1.62918e+07
1.60931e+07
1.59086e+07
1.57355e+07
1.55719e+07
1.54167e+07
1.52691e+07
1.51285e+07
1.49946e+07
1.48672e+07
1.4746e+07
1.46308e+07
1.45214e+07
1.71254e+07
1.69887e+07
1.6801e+07
1.66026e+07
1.64082e+07
1.62221e+07
1.60448e+07
1.58761e+07
1.57153e+07
1.55618e+07
1.54152e+07
1.52752e+07
1.51414e+07
1.50137e+07
1.48919e+07
1.47757e+07
1.4665e+07
1.45596e+07
1.6801e+07
1.6723e+07
1.65988e+07
1.64521e+07
1.62966e+07
1.61392e+07
1.59835e+07
1.58314e+07
1.56837e+07
1.55409e+07
1.54031e+07
1.52706e+07
1.51433e+07
1.50212e+07
1.49043e+07
1.47925e+07
1.46856e+07
1.45836e+07
1.66158e+07
1.65598e+07
1.64647e+07
1.63457e+07
1.62135e+07
1.6075e+07
1.59343e+07
1.57942e+07
1.56562e+07
1.55213e+07
1.53902e+07
1.52632e+07
1.51407e+07
1.50227e+07
1.49094e+07
1.48007e+07
1.46965e+07
1.45969e+07
1.64932e+07
1.64483e+07
1.63692e+07
1.62669e+07
1.61499e+07
1.60244e+07
1.58947e+07
1.57635e+07
1.56329e+07
1.55041e+07
1.53781e+07
1.52555e+07
1.51367e+07
1.50219e+07
1.49113e+07
1.48049e+07
1.47028e+07
1.4605e+07
1.64104e+07
1.63715e+07
1.63019e+07
1.62101e+07
1.61031e+07
1.59865e+07
1.58643e+07
1.57396e+07
1.56144e+07
1.54902e+07
1.5368e+07
1.52486e+07
1.51325e+07
1.50201e+07
1.49115e+07
1.4807e+07
1.47065e+07
1.461e+07
1.6354e+07
1.63188e+07
1.6255e+07
1.61699e+07
1.60694e+07
1.59589e+07
1.5842e+07
1.57218e+07
1.56004e+07
1.54795e+07
1.53601e+07
1.5243e+07
1.5129e+07
1.50183e+07
1.49112e+07
1.48079e+07
1.47085e+07
1.4613e+07
1.63159e+07
1.62829e+07
1.62228e+07
1.6142e+07
1.60459e+07
1.59393e+07
1.58261e+07
1.5709e+07
1.55903e+07
1.54716e+07
1.53542e+07
1.52388e+07
1.51261e+07
1.50166e+07
1.49106e+07
1.48082e+07
1.47096e+07
1.46148e+07
1.62905e+07
1.6259e+07
1.62012e+07
1.61231e+07
1.60299e+07
1.5926e+07
1.58151e+07
1.57002e+07
1.55833e+07
1.54661e+07
1.535e+07
1.52357e+07
1.5124e+07
1.50154e+07
1.49101e+07
1.48083e+07
1.47102e+07
1.46158e+07
1.62742e+07
1.62435e+07
1.61873e+07
1.61109e+07
1.60194e+07
1.59173e+07
1.58079e+07
1.56943e+07
1.55786e+07
1.54624e+07
1.53472e+07
1.52336e+07
1.51226e+07
1.50145e+07
1.49096e+07
1.48083e+07
1.47105e+07
1.46165e+07
1.62644e+07
1.62342e+07
1.61788e+07
1.61035e+07
1.60131e+07
1.59119e+07
1.58035e+07
1.56907e+07
1.55757e+07
1.54602e+07
1.53454e+07
1.52323e+07
1.51216e+07
1.50139e+07
1.49093e+07
1.48082e+07
1.47107e+07
1.46168e+07
1.62591e+07
1.62291e+07
1.61742e+07
1.60994e+07
1.60096e+07
1.5909e+07
1.58011e+07
1.56887e+07
1.55741e+07
1.54589e+07
1.53444e+07
1.52316e+07
1.51211e+07
1.50135e+07
1.49091e+07
1.48081e+07
1.47107e+07
1.46169e+07
1.62569e+07
1.62271e+07
1.61723e+07
1.60978e+07
1.60082e+07
1.59078e+07
1.58001e+07
1.56879e+07
1.55734e+07
1.54584e+07
1.5344e+07
1.52313e+07
1.51209e+07
1.50134e+07
1.4909e+07
1.48081e+07
1.47107e+07
1.4617e+07
1.14224e+07
1.14202e+07
1.14157e+07
1.14089e+07
1.13996e+07
1.13876e+07
1.1373e+07
1.13553e+07
1.13344e+07
1.13098e+07
1.12813e+07
1.12481e+07
1.12094e+07
1.11638e+07
1.11094e+07
1.10426e+07
1.09573e+07
1.08548e+07
1.08394e+07
1.08294e+07
1.08227e+07
1.0817e+07
1.08113e+07
1.08059e+07
1.08008e+07
1.07959e+07
1.0791e+07
1.07862e+07
1.07813e+07
1.07765e+07
1.07719e+07
1.07674e+07
1.07629e+07
1.07587e+07
1.07545e+07
1.07504e+07
1.07465e+07
1.07427e+07
1.07389e+07
1.07353e+07
1.07318e+07
1.07283e+07
1.07249e+07
1.07216e+07
1.07184e+07
1.07152e+07
1.07121e+07
1.0709e+07
1.07059e+07
1.0703e+07
1.07e+07
1.06971e+07
1.06942e+07
1.06914e+07
1.06886e+07
1.06858e+07
1.0683e+07
1.06803e+07
1.06776e+07
1.06749e+07
1.06722e+07
1.06695e+07
1.06668e+07
1.06642e+07
1.06616e+07
1.06589e+07
1.06563e+07
1.06537e+07
1.06511e+07
1.06485e+07
1.06459e+07
1.06433e+07
1.06407e+07
1.06381e+07
1.06355e+07
1.06329e+07
1.06303e+07
1.06277e+07
1.06251e+07
1.06225e+07
1.06198e+07
1.06172e+07
1.06146e+07
1.06119e+07
1.06093e+07
1.06066e+07
1.06039e+07
1.06012e+07
1.05985e+07
1.05958e+07
1.05931e+07
1.05904e+07
1.05876e+07
1.05849e+07
1.05821e+07
1.05793e+07
1.05765e+07
1.05736e+07
1.05708e+07
1.05679e+07
1.05651e+07
1.05622e+07
1.05593e+07
1.05563e+07
1.05534e+07
1.05504e+07
1.05474e+07
1.05444e+07
1.05414e+07
1.05384e+07
1.05353e+07
1.05322e+07
1.05291e+07
1.0526e+07
1.05228e+07
1.05196e+07
1.05164e+07
1.05132e+07
1.05099e+07
1.05067e+07
1.05034e+07
1.05001e+07
1.04967e+07
1.04933e+07
1.049e+07
1.04865e+07
1.04831e+07
1.04796e+07
1.04761e+07
1.04726e+07
1.0469e+07
1.04655e+07
1.04619e+07
1.04582e+07
1.04546e+07
1.04509e+07
1.04472e+07
1.04434e+07
1.04397e+07
1.04359e+07
1.0432e+07
1.04282e+07
1.04243e+07
1.04204e+07
1.04164e+07
1.04124e+07
1.04084e+07
1.04044e+07
1.04003e+07
1.03962e+07
1.03921e+07
1.03879e+07
1.03837e+07
1.03795e+07
1.03752e+07
1.03709e+07
1.03666e+07
1.03622e+07
1.03578e+07
1.03534e+07
1.03489e+07
1.03444e+07
1.03399e+07
1.03353e+07
1.03307e+07
1.0326e+07
1.03214e+07
1.03166e+07
1.03119e+07
1.03071e+07
1.03023e+07
1.02975e+07
1.02926e+07
1.02877e+07
1.02827e+07
1.02778e+07
1.02728e+07
1.02678e+07
1.02628e+07
1.02579e+07
1.14321e+07
1.14299e+07
1.14255e+07
1.14187e+07
1.14095e+07
1.13978e+07
1.13834e+07
1.13662e+07
1.13459e+07
1.13225e+07
1.12956e+07
1.12649e+07
1.12301e+07
1.11909e+07
1.11471e+07
1.10986e+07
1.1047e+07
1.09968e+07
1.09585e+07
1.09229e+07
1.08796e+07
1.08227e+07
1.08101e+07
1.08045e+07
1.08003e+07
1.07957e+07
1.0791e+07
1.0786e+07
1.07808e+07
1.07761e+07
1.07715e+07
1.0767e+07
1.07625e+07
1.07582e+07
1.07541e+07
1.07501e+07
1.07461e+07
1.07423e+07
1.07386e+07
1.0735e+07
1.07315e+07
1.07281e+07
1.07247e+07
1.07214e+07
1.07182e+07
1.0715e+07
1.07119e+07
1.07088e+07
1.07058e+07
1.07028e+07
1.06999e+07
1.0697e+07
1.06941e+07
1.06913e+07
1.06885e+07
1.06857e+07
1.06829e+07
1.06802e+07
1.06775e+07
1.06748e+07
1.06721e+07
1.06694e+07
1.06668e+07
1.06641e+07
1.06615e+07
1.06589e+07
1.06563e+07
1.06537e+07
1.06511e+07
1.06485e+07
1.06459e+07
1.06433e+07
1.06407e+07
1.06381e+07
1.06355e+07
1.06329e+07
1.06303e+07
1.06277e+07
1.06251e+07
1.06224e+07
1.06198e+07
1.06172e+07
1.06145e+07
1.06119e+07
1.06092e+07
1.06066e+07
1.06039e+07
1.06012e+07
1.05985e+07
1.05958e+07
1.05931e+07
1.05904e+07
1.05876e+07
1.05848e+07
1.05821e+07
1.05793e+07
1.05765e+07
1.05736e+07
1.05708e+07
1.05679e+07
1.05651e+07
1.05622e+07
1.05593e+07
1.05563e+07
1.05534e+07
1.05504e+07
1.05474e+07
1.05444e+07
1.05414e+07
1.05383e+07
1.05353e+07
1.05322e+07
1.05291e+07
1.05259e+07
1.05228e+07
1.05196e+07
1.05164e+07
1.05132e+07
1.05099e+07
1.05067e+07
1.05034e+07
1.05001e+07
1.04967e+07
1.04933e+07
1.04899e+07
1.04865e+07
1.04831e+07
1.04796e+07
1.04761e+07
1.04726e+07
1.0469e+07
1.04655e+07
1.04619e+07
1.04582e+07
1.04546e+07
1.04509e+07
1.04472e+07
1.04434e+07
1.04397e+07
1.04359e+07
1.0432e+07
1.04282e+07
1.04243e+07
1.04204e+07
1.04164e+07
1.04124e+07
1.04084e+07
1.04044e+07
1.04003e+07
1.03962e+07
1.03921e+07
1.03879e+07
1.03837e+07
1.03795e+07
1.03752e+07
1.03709e+07
1.03666e+07
1.03622e+07
1.03578e+07
1.03534e+07
1.03489e+07
1.03444e+07
1.03399e+07
1.03353e+07
1.03307e+07
1.0326e+07
1.03214e+07
1.03166e+07
1.03119e+07
1.03071e+07
1.03023e+07
1.02975e+07
1.02926e+07
1.02877e+07
1.02827e+07
1.02778e+07
1.02728e+07
1.02678e+07
1.02628e+07
1.02578e+07
1.14507e+07
1.14485e+07
1.14443e+07
1.14378e+07
1.1429e+07
1.14177e+07
1.1404e+07
1.13878e+07
1.13688e+07
1.1347e+07
1.13223e+07
1.12947e+07
1.12641e+07
1.12307e+07
1.11948e+07
1.11568e+07
1.11179e+07
1.108e+07
1.10446e+07
1.10116e+07
1.09805e+07
1.0954e+07
1.0941e+07
1.09444e+07
1.0931e+07
1.09021e+07
1.08549e+07
1.07875e+07
1.0779e+07
1.0775e+07
1.07708e+07
1.07662e+07
1.07616e+07
1.07574e+07
1.07533e+07
1.07493e+07
1.07454e+07
1.07417e+07
1.0738e+07
1.07345e+07
1.0731e+07
1.07276e+07
1.07243e+07
1.0721e+07
1.07178e+07
1.07147e+07
1.07116e+07
1.07085e+07
1.07055e+07
1.07026e+07
1.06996e+07
1.06968e+07
1.06939e+07
1.06911e+07
1.06883e+07
1.06855e+07
1.06828e+07
1.06801e+07
1.06773e+07
1.06747e+07
1.0672e+07
1.06693e+07
1.06667e+07
1.0664e+07
1.06614e+07
1.06588e+07
1.06562e+07
1.06536e+07
1.0651e+07
1.06484e+07
1.06458e+07
1.06432e+07
1.06406e+07
1.0638e+07
1.06354e+07
1.06328e+07
1.06302e+07
1.06276e+07
1.0625e+07
1.06224e+07
1.06198e+07
1.06172e+07
1.06145e+07
1.06119e+07
1.06092e+07
1.06066e+07
1.06039e+07
1.06012e+07
1.05985e+07
1.05958e+07
1.05931e+07
1.05903e+07
1.05876e+07
1.05848e+07
1.0582e+07
1.05793e+07
1.05764e+07
1.05736e+07
1.05708e+07
1.05679e+07
1.05651e+07
1.05622e+07
1.05593e+07
1.05563e+07
1.05534e+07
1.05504e+07
1.05474e+07
1.05444e+07
1.05414e+07
1.05383e+07
1.05353e+07
1.05322e+07
1.05291e+07
1.05259e+07
1.05228e+07
1.05196e+07
1.05164e+07
1.05132e+07
1.05099e+07
1.05067e+07
1.05034e+07
1.05001e+07
1.04967e+07
1.04933e+07
1.04899e+07
1.04865e+07
1.04831e+07
1.04796e+07
1.04761e+07
1.04726e+07
1.0469e+07
1.04655e+07
1.04619e+07
1.04582e+07
1.04546e+07
1.04509e+07
1.04472e+07
1.04434e+07
1.04397e+07
1.04359e+07
1.0432e+07
1.04282e+07
1.04243e+07
1.04204e+07
1.04164e+07
1.04124e+07
1.04084e+07
1.04044e+07
1.04003e+07
1.03962e+07
1.03921e+07
1.03879e+07
1.03837e+07
1.03795e+07
1.03752e+07
1.03709e+07
1.03666e+07
1.03622e+07
1.03578e+07
1.03534e+07
1.03489e+07
1.03444e+07
1.03398e+07
1.03353e+07
1.03307e+07
1.0326e+07
1.03214e+07
1.03166e+07
1.03119e+07
1.03071e+07
1.03023e+07
1.02975e+07
1.02926e+07
1.02877e+07
1.02827e+07
1.02778e+07
1.02728e+07
1.02678e+07
1.02628e+07
1.02578e+07
1.14778e+07
1.14758e+07
1.14718e+07
1.14656e+07
1.14574e+07
1.14469e+07
1.14342e+07
1.14191e+07
1.14017e+07
1.1382e+07
1.13598e+07
1.13354e+07
1.13087e+07
1.12801e+07
1.12497e+07
1.12182e+07
1.11861e+07
1.11543e+07
1.11235e+07
1.10941e+07
1.10667e+07
1.10421e+07
1.10212e+07
1.10025e+07
1.09809e+07
1.09543e+07
1.09231e+07
1.08911e+07
1.08685e+07
1.0852e+07
1.08146e+07
1.07652e+07
1.07595e+07
1.07562e+07
1.07521e+07
1.07482e+07
1.07444e+07
1.07407e+07
1.07371e+07
1.07337e+07
1.07302e+07
1.07269e+07
1.07236e+07
1.07204e+07
1.07173e+07
1.07141e+07
1.07111e+07
1.07081e+07
1.07051e+07
1.07022e+07
1.06993e+07
1.06964e+07
1.06936e+07
1.06908e+07
1.0688e+07
1.06853e+07
1.06825e+07
1.06798e+07
1.06771e+07
1.06745e+07
1.06718e+07
1.06692e+07
1.06665e+07
1.06639e+07
1.06613e+07
1.06587e+07
1.06561e+07
1.06535e+07
1.06509e+07
1.06483e+07
1.06457e+07
1.06431e+07
1.06405e+07
1.06379e+07
1.06354e+07
1.06328e+07
1.06302e+07
1.06276e+07
1.0625e+07
1.06223e+07
1.06197e+07
1.06171e+07
1.06145e+07
1.06118e+07
1.06092e+07
1.06065e+07
1.06038e+07
1.06012e+07
1.05985e+07
1.05958e+07
1.0593e+07
1.05903e+07
1.05876e+07
1.05848e+07
1.0582e+07
1.05792e+07
1.05764e+07
1.05736e+07
1.05708e+07
1.05679e+07
1.0565e+07
1.05621e+07
1.05592e+07
1.05563e+07
1.05534e+07
1.05504e+07
1.05474e+07
1.05444e+07
1.05414e+07
1.05383e+07
1.05353e+07
1.05322e+07
1.05291e+07
1.05259e+07
1.05228e+07
1.05196e+07
1.05164e+07
1.05132e+07
1.05099e+07
1.05067e+07
1.05034e+07
1.05e+07
1.04967e+07
1.04933e+07
1.04899e+07
1.04865e+07
1.04831e+07
1.04796e+07
1.04761e+07
1.04726e+07
1.0469e+07
1.04655e+07
1.04619e+07
1.04582e+07
1.04546e+07
1.04509e+07
1.04472e+07
1.04434e+07
1.04397e+07
1.04358e+07
1.0432e+07
1.04282e+07
1.04243e+07
1.04204e+07
1.04164e+07
1.04124e+07
1.04084e+07
1.04044e+07
1.04003e+07
1.03962e+07
1.03921e+07
1.03879e+07
1.03837e+07
1.03794e+07
1.03752e+07
1.03709e+07
1.03666e+07
1.03622e+07
1.03578e+07
1.03534e+07
1.03489e+07
1.03444e+07
1.03398e+07
1.03353e+07
1.03307e+07
1.0326e+07
1.03214e+07
1.03166e+07
1.03119e+07
1.03071e+07
1.03023e+07
1.02974e+07
1.02926e+07
1.02876e+07
1.02827e+07
1.02777e+07
1.02727e+07
1.02677e+07
1.02627e+07
1.02577e+07
1.15132e+07
1.15113e+07
1.15075e+07
1.15018e+07
1.14941e+07
1.14844e+07
1.14726e+07
1.14589e+07
1.1443e+07
1.14251e+07
1.14053e+07
1.13835e+07
1.13599e+07
1.13348e+07
1.13083e+07
1.12808e+07
1.12528e+07
1.12246e+07
1.11967e+07
1.11694e+07
1.1143e+07
1.11176e+07
1.10933e+07
1.10694e+07
1.10446e+07
1.10185e+07
1.0991e+07
1.09634e+07
1.09369e+07
1.09105e+07
1.08813e+07
1.08516e+07
1.08278e+07
1.07828e+07
1.07505e+07
1.07465e+07
1.0743e+07
1.07394e+07
1.0736e+07
1.07326e+07
1.07292e+07
1.0726e+07
1.07228e+07
1.07196e+07
1.07165e+07
1.07135e+07
1.07105e+07
1.07075e+07
1.07046e+07
1.07017e+07
1.06988e+07
1.0696e+07
1.06932e+07
1.06904e+07
1.06877e+07
1.06849e+07
1.06822e+07
1.06795e+07
1.06769e+07
1.06742e+07
1.06716e+07
1.06689e+07
1.06663e+07
1.06637e+07
1.06611e+07
1.06585e+07
1.06559e+07
1.06533e+07
1.06507e+07
1.06482e+07
1.06456e+07
1.0643e+07
1.06404e+07
1.06378e+07
1.06353e+07
1.06327e+07
1.06301e+07
1.06275e+07
1.06249e+07
1.06223e+07
1.06197e+07
1.0617e+07
1.06144e+07
1.06118e+07
1.06091e+07
1.06065e+07
1.06038e+07
1.06011e+07
1.05984e+07
1.05957e+07
1.0593e+07
1.05903e+07
1.05875e+07
1.05848e+07
1.0582e+07
1.05792e+07
1.05764e+07
1.05736e+07
1.05707e+07
1.05679e+07
1.0565e+07
1.05621e+07
1.05592e+07
1.05563e+07
1.05533e+07
1.05504e+07
1.05474e+07
1.05444e+07
1.05414e+07
1.05383e+07
1.05353e+07
1.05322e+07
1.05291e+07
1.05259e+07
1.05228e+07
1.05196e+07
1.05164e+07
1.05132e+07
1.05099e+07
1.05067e+07
1.05034e+07
1.05e+07
1.04967e+07
1.04933e+07
1.04899e+07
1.04865e+07
1.04831e+07
1.04796e+07
1.04761e+07
1.04726e+07
1.0469e+07
1.04655e+07
1.04619e+07
1.04582e+07
1.04546e+07
1.04509e+07
1.04472e+07
1.04434e+07
1.04396e+07
1.04358e+07
1.0432e+07
1.04282e+07
1.04243e+07
1.04203e+07
1.04164e+07
1.04124e+07
1.04084e+07
1.04044e+07
1.04003e+07
1.03962e+07
1.0392e+07
1.03879e+07
1.03837e+07
1.03794e+07
1.03752e+07
1.03709e+07
1.03665e+07
1.03622e+07
1.03578e+07
1.03533e+07
1.03489e+07
1.03444e+07
1.03398e+07
1.03353e+07
1.03307e+07
1.0326e+07
1.03213e+07
1.03166e+07
1.03119e+07
1.03071e+07
1.03023e+07
1.02974e+07
1.02926e+07
1.02876e+07
1.02827e+07
1.02777e+07
1.02727e+07
1.02677e+07
1.02627e+07
1.02576e+07
1.15561e+07
1.15543e+07
1.15507e+07
1.15454e+07
1.15382e+07
1.15292e+07
1.15184e+07
1.15057e+07
1.14912e+07
1.14748e+07
1.14568e+07
1.1437e+07
1.14157e+07
1.13931e+07
1.13692e+07
1.13444e+07
1.13189e+07
1.12929e+07
1.12667e+07
1.12405e+07
1.12145e+07
1.11888e+07
1.11631e+07
1.11375e+07
1.11114e+07
1.10847e+07
1.10574e+07
1.10298e+07
1.1002e+07
1.09737e+07
1.09447e+07
1.0915e+07
1.08848e+07
1.08518e+07
1.08193e+07
1.07859e+07
1.07421e+07
1.07378e+07
1.07345e+07
1.07313e+07
1.0728e+07
1.07249e+07
1.07218e+07
1.07187e+07
1.07156e+07
1.07127e+07
1.07097e+07
1.07068e+07
1.07039e+07
1.07011e+07
1.06983e+07
1.06955e+07
1.06927e+07
1.069e+07
1.06872e+07
1.06845e+07
1.06819e+07
1.06792e+07
1.06765e+07
1.06739e+07
1.06713e+07
1.06687e+07
1.06661e+07
1.06635e+07
1.06609e+07
1.06583e+07
1.06557e+07
1.06531e+07
1.06506e+07
1.0648e+07
1.06454e+07
1.06429e+07
1.06403e+07
1.06377e+07
1.06351e+07
1.06326e+07
1.063e+07
1.06274e+07
1.06248e+07
1.06222e+07
1.06196e+07
1.0617e+07
1.06143e+07
1.06117e+07
1.06091e+07
1.06064e+07
1.06037e+07
1.06011e+07
1.05984e+07
1.05957e+07
1.0593e+07
1.05902e+07
1.05875e+07
1.05847e+07
1.0582e+07
1.05792e+07
1.05764e+07
1.05736e+07
1.05707e+07
1.05679e+07
1.0565e+07
1.05621e+07
1.05592e+07
1.05563e+07
1.05533e+07
1.05504e+07
1.05474e+07
1.05444e+07
1.05414e+07
1.05383e+07
1.05352e+07
1.05322e+07
1.0529e+07
1.05259e+07
1.05228e+07
1.05196e+07
1.05164e+07
1.05132e+07
1.05099e+07
1.05066e+07
1.05034e+07
1.05e+07
1.04967e+07
1.04933e+07
1.04899e+07
1.04865e+07
1.04831e+07
1.04796e+07
1.04761e+07
1.04726e+07
1.0469e+07
1.04655e+07
1.04619e+07
1.04582e+07
1.04546e+07
1.04509e+07
1.04472e+07
1.04434e+07
1.04396e+07
1.04358e+07
1.0432e+07
1.04282e+07
1.04243e+07
1.04203e+07
1.04164e+07
1.04124e+07
1.04084e+07
1.04044e+07
1.04003e+07
1.03962e+07
1.0392e+07
1.03879e+07
1.03837e+07
1.03794e+07
1.03752e+07
1.03709e+07
1.03665e+07
1.03622e+07
1.03578e+07
1.03533e+07
1.03489e+07
1.03444e+07
1.03398e+07
1.03353e+07
1.03307e+07
1.0326e+07
1.03213e+07
1.03166e+07
1.03119e+07
1.03071e+07
1.03023e+07
1.02974e+07
1.02925e+07
1.02876e+07
1.02827e+07
1.02777e+07
1.02727e+07
1.02677e+07
1.02626e+07
1.02575e+07
1.16061e+07
1.16044e+07
1.1601e+07
1.15959e+07
1.15892e+07
1.15808e+07
1.15706e+07
1.15588e+07
1.15452e+07
1.15301e+07
1.15133e+07
1.14951e+07
1.14754e+07
1.14544e+07
1.14322e+07
1.14091e+07
1.13851e+07
1.13605e+07
1.13353e+07
1.13098e+07
1.1284e+07
1.1258e+07
1.12318e+07
1.12052e+07
1.11783e+07
1.11509e+07
1.11231e+07
1.10947e+07
1.1066e+07
1.10367e+07
1.10067e+07
1.09762e+07
1.09449e+07
1.09125e+07
1.08795e+07
1.08454e+07
1.08093e+07
1.07721e+07
1.07334e+07
1.07298e+07
1.07266e+07
1.07236e+07
1.07206e+07
1.07176e+07
1.07146e+07
1.07117e+07
1.07088e+07
1.0706e+07
1.07031e+07
1.07004e+07
1.06976e+07
1.06948e+07
1.06921e+07
1.06894e+07
1.06867e+07
1.06841e+07
1.06814e+07
1.06788e+07
1.06761e+07
1.06735e+07
1.06709e+07
1.06683e+07
1.06658e+07
1.06632e+07
1.06606e+07
1.0658e+07
1.06555e+07
1.06529e+07
1.06504e+07
1.06478e+07
1.06452e+07
1.06427e+07
1.06401e+07
1.06376e+07
1.0635e+07
1.06324e+07
1.06298e+07
1.06273e+07
1.06247e+07
1.06221e+07
1.06195e+07
1.06169e+07
1.06143e+07
1.06116e+07
1.0609e+07
1.06063e+07
1.06037e+07
1.0601e+07
1.05983e+07
1.05956e+07
1.05929e+07
1.05902e+07
1.05875e+07
1.05847e+07
1.05819e+07
1.05791e+07
1.05763e+07
1.05735e+07
1.05707e+07
1.05678e+07
1.0565e+07
1.05621e+07
1.05592e+07
1.05563e+07
1.05533e+07
1.05503e+07
1.05474e+07
1.05444e+07
1.05413e+07
1.05383e+07
1.05352e+07
1.05321e+07
1.0529e+07
1.05259e+07
1.05228e+07
1.05196e+07
1.05164e+07
1.05132e+07
1.05099e+07
1.05066e+07
1.05033e+07
1.05e+07
1.04967e+07
1.04933e+07
1.04899e+07
1.04865e+07
1.04831e+07
1.04796e+07
1.04761e+07
1.04726e+07
1.0469e+07
1.04654e+07
1.04618e+07
1.04582e+07
1.04546e+07
1.04509e+07
1.04472e+07
1.04434e+07
1.04396e+07
1.04358e+07
1.0432e+07
1.04281e+07
1.04243e+07
1.04203e+07
1.04164e+07
1.04124e+07
1.04084e+07
1.04044e+07
1.04003e+07
1.03962e+07
1.0392e+07
1.03879e+07
1.03837e+07
1.03794e+07
1.03752e+07
1.03709e+07
1.03665e+07
1.03622e+07
1.03578e+07
1.03533e+07
1.03489e+07
1.03444e+07
1.03398e+07
1.03353e+07
1.03307e+07
1.0326e+07
1.03213e+07
1.03166e+07
1.03119e+07
1.03071e+07
1.03023e+07
1.02974e+07
1.02925e+07
1.02876e+07
1.02827e+07
1.02777e+07
1.02727e+07
1.02676e+07
1.02625e+07
1.02574e+07
1.16626e+07
1.16609e+07
1.16576e+07
1.16528e+07
1.16464e+07
1.16383e+07
1.16287e+07
1.16174e+07
1.16046e+07
1.15902e+07
1.15744e+07
1.15571e+07
1.15384e+07
1.15185e+07
1.14974e+07
1.14752e+07
1.14521e+07
1.14283e+07
1.14037e+07
1.13784e+07
1.13527e+07
1.13265e+07
1.12998e+07
1.12727e+07
1.1245e+07
1.12169e+07
1.11883e+07
1.11591e+07
1.11294e+07
1.10992e+07
1.10683e+07
1.10368e+07
1.10047e+07
1.09717e+07
1.0938e+07
1.09034e+07
1.08677e+07
1.08308e+07
1.07916e+07
1.07468e+07
1.07251e+07
1.07222e+07
1.07192e+07
1.07163e+07
1.07134e+07
1.07106e+07
1.07078e+07
1.0705e+07
1.07023e+07
1.06995e+07
1.06968e+07
1.06941e+07
1.06914e+07
1.06888e+07
1.06861e+07
1.06835e+07
1.06809e+07
1.06783e+07
1.06757e+07
1.06731e+07
1.06705e+07
1.0668e+07
1.06654e+07
1.06628e+07
1.06603e+07
1.06577e+07
1.06552e+07
1.06527e+07
1.06501e+07
1.06476e+07
1.0645e+07
1.06425e+07
1.06399e+07
1.06374e+07
1.06348e+07
1.06323e+07
1.06297e+07
1.06271e+07
1.06246e+07
1.0622e+07
1.06194e+07
1.06168e+07
1.06142e+07
1.06115e+07
1.06089e+07
1.06063e+07
1.06036e+07
1.06009e+07
1.05983e+07
1.05956e+07
1.05929e+07
1.05901e+07
1.05874e+07
1.05846e+07
1.05819e+07
1.05791e+07
1.05763e+07
1.05735e+07
1.05707e+07
1.05678e+07
1.05649e+07
1.05621e+07
1.05592e+07
1.05562e+07
1.05533e+07
1.05503e+07
1.05473e+07
1.05443e+07
1.05413e+07
1.05383e+07
1.05352e+07
1.05321e+07
1.0529e+07
1.05259e+07
1.05227e+07
1.05196e+07
1.05164e+07
1.05131e+07
1.05099e+07
1.05066e+07
1.05033e+07
1.05e+07
1.04967e+07
1.04933e+07
1.04899e+07
1.04865e+07
1.04831e+07
1.04796e+07
1.04761e+07
1.04726e+07
1.0469e+07
1.04654e+07
1.04618e+07
1.04582e+07
1.04546e+07
1.04509e+07
1.04472e+07
1.04434e+07
1.04396e+07
1.04358e+07
1.0432e+07
1.04281e+07
1.04243e+07
1.04203e+07
1.04164e+07
1.04124e+07
1.04084e+07
1.04044e+07
1.04003e+07
1.03962e+07
1.0392e+07
1.03879e+07
1.03837e+07
1.03794e+07
1.03752e+07
1.03709e+07
1.03665e+07
1.03622e+07
1.03578e+07
1.03533e+07
1.03489e+07
1.03444e+07
1.03398e+07
1.03353e+07
1.03307e+07
1.0326e+07
1.03213e+07
1.03166e+07
1.03119e+07
1.03071e+07
1.03023e+07
1.02974e+07
1.02925e+07
1.02876e+07
1.02826e+07
1.02776e+07
1.02726e+07
1.02676e+07
1.02625e+07
1.02574e+07
1.17253e+07
1.17236e+07
1.17204e+07
1.17157e+07
1.17094e+07
1.17016e+07
1.16922e+07
1.16813e+07
1.16689e+07
1.1655e+07
1.16396e+07
1.16228e+07
1.16048e+07
1.15854e+07
1.15648e+07
1.15432e+07
1.15205e+07
1.14969e+07
1.14725e+07
1.14473e+07
1.14214e+07
1.13949e+07
1.13677e+07
1.134e+07
1.13117e+07
1.12828e+07
1.12533e+07
1.12233e+07
1.11927e+07
1.11615e+07
1.11297e+07
1.10972e+07
1.10642e+07
1.10304e+07
1.0996e+07
1.09607e+07
1.09247e+07
1.08878e+07
1.08499e+07
1.08109e+07
1.07718e+07
1.0723e+07
1.07176e+07
1.07149e+07
1.07121e+07
1.07094e+07
1.07067e+07
1.0704e+07
1.07013e+07
1.06986e+07
1.0696e+07
1.06933e+07
1.06907e+07
1.06881e+07
1.06855e+07
1.06829e+07
1.06803e+07
1.06777e+07
1.06752e+07
1.06726e+07
1.06701e+07
1.06675e+07
1.0665e+07
1.06625e+07
1.066e+07
1.06574e+07
1.06549e+07
1.06524e+07
1.06498e+07
1.06473e+07
1.06448e+07
1.06423e+07
1.06397e+07
1.06372e+07
1.06346e+07
1.06321e+07
1.06295e+07
1.0627e+07
1.06244e+07
1.06218e+07
1.06192e+07
1.06167e+07
1.0614e+07
1.06114e+07
1.06088e+07
1.06062e+07
1.06035e+07
1.06009e+07
1.05982e+07
1.05955e+07
1.05928e+07
1.05901e+07
1.05873e+07
1.05846e+07
1.05818e+07
1.05791e+07
1.05763e+07
1.05734e+07
1.05706e+07
1.05678e+07
1.05649e+07
1.0562e+07
1.05591e+07
1.05562e+07
1.05533e+07
1.05503e+07
1.05473e+07
1.05443e+07
1.05413e+07
1.05383e+07
1.05352e+07
1.05321e+07
1.0529e+07
1.05259e+07
1.05227e+07
1.05196e+07
1.05164e+07
1.05131e+07
1.05099e+07
1.05066e+07
1.05033e+07
1.05e+07
1.04967e+07
1.04933e+07
1.04899e+07
1.04865e+07
1.04831e+07
1.04796e+07
1.04761e+07
1.04726e+07
1.0469e+07
1.04654e+07
1.04618e+07
1.04582e+07
1.04545e+07
1.04509e+07
1.04471e+07
1.04434e+07
1.04396e+07
1.04358e+07
1.0432e+07
1.04281e+07
1.04243e+07
1.04203e+07
1.04164e+07
1.04124e+07
1.04084e+07
1.04044e+07
1.04003e+07
1.03962e+07
1.0392e+07
1.03879e+07
1.03837e+07
1.03794e+07
1.03752e+07
1.03709e+07
1.03665e+07
1.03622e+07
1.03578e+07
1.03533e+07
1.03489e+07
1.03444e+07
1.03398e+07
1.03353e+07
1.03306e+07
1.0326e+07
1.03213e+07
1.03166e+07
1.03119e+07
1.03071e+07
1.03023e+07
1.02974e+07
1.02925e+07
1.02876e+07
1.02826e+07
1.02776e+07
1.02726e+07
1.02675e+07
1.02624e+07
1.02573e+07
1.17939e+07
1.17921e+07
1.17889e+07
1.17842e+07
1.1778e+07
1.17702e+07
1.17609e+07
1.17501e+07
1.17379e+07
1.17241e+07
1.17089e+07
1.16923e+07
1.16744e+07
1.16552e+07
1.16348e+07
1.16132e+07
1.15905e+07
1.15669e+07
1.15423e+07
1.15169e+07
1.14906e+07
1.14636e+07
1.14359e+07
1.14075e+07
1.13784e+07
1.13487e+07
1.13184e+07
1.12874e+07
1.12559e+07
1.12237e+07
1.11909e+07
1.11575e+07
1.11235e+07
1.10888e+07
1.10535e+07
1.10176e+07
1.09809e+07
1.09436e+07
1.09055e+07
1.08667e+07
1.08268e+07
1.07847e+07
1.07401e+07
1.07135e+07
1.07108e+07
1.07082e+07
1.07055e+07
1.07029e+07
1.07003e+07
1.06977e+07
1.06951e+07
1.06925e+07
1.06899e+07
1.06873e+07
1.06848e+07
1.06822e+07
1.06797e+07
1.06772e+07
1.06746e+07
1.06721e+07
1.06696e+07
1.06671e+07
1.06646e+07
1.06621e+07
1.06596e+07
1.06571e+07
1.06546e+07
1.06521e+07
1.06496e+07
1.0647e+07
1.06445e+07
1.0642e+07
1.06395e+07
1.0637e+07
1.06344e+07
1.06319e+07
1.06294e+07
1.06268e+07
1.06243e+07
1.06217e+07
1.06191e+07
1.06165e+07
1.06139e+07
1.06113e+07
1.06087e+07
1.06061e+07
1.06034e+07
1.06008e+07
1.05981e+07
1.05954e+07
1.05927e+07
1.059e+07
1.05873e+07
1.05845e+07
1.05818e+07
1.0579e+07
1.05762e+07
1.05734e+07
1.05706e+07
1.05677e+07
1.05649e+07
1.0562e+07
1.05591e+07
1.05562e+07
1.05532e+07
1.05503e+07
1.05473e+07
1.05443e+07
1.05413e+07
1.05382e+07
1.05352e+07
1.05321e+07
1.0529e+07
1.05259e+07
1.05227e+07
1.05195e+07
1.05163e+07
1.05131e+07
1.05099e+07
1.05066e+07
1.05033e+07
1.05e+07
1.04967e+07
1.04933e+07
1.04899e+07
1.04865e+07
1.0483e+07
1.04796e+07
1.04761e+07
1.04726e+07
1.0469e+07
1.04654e+07
1.04618e+07
1.04582e+07
1.04545e+07
1.04509e+07
1.04471e+07
1.04434e+07
1.04396e+07
1.04358e+07
1.0432e+07
1.04281e+07
1.04242e+07
1.04203e+07
1.04164e+07
1.04124e+07
1.04084e+07
1.04043e+07
1.04003e+07
1.03962e+07
1.0392e+07
1.03879e+07
1.03837e+07
1.03794e+07
1.03752e+07
1.03709e+07
1.03665e+07
1.03622e+07
1.03578e+07
1.03533e+07
1.03489e+07
1.03444e+07
1.03398e+07
1.03353e+07
1.03306e+07
1.0326e+07
1.03213e+07
1.03166e+07
1.03119e+07
1.03071e+07
1.03022e+07
1.02974e+07
1.02925e+07
1.02876e+07
1.02826e+07
1.02776e+07
1.02726e+07
1.02675e+07
1.02624e+07
1.02572e+07
1.18683e+07
1.18665e+07
1.18632e+07
1.18584e+07
1.1852e+07
1.18442e+07
1.18348e+07
1.18239e+07
1.18114e+07
1.17975e+07
1.17822e+07
1.17655e+07
1.17474e+07
1.1728e+07
1.17073e+07
1.16855e+07
1.16625e+07
1.16385e+07
1.16135e+07
1.15875e+07
1.15607e+07
1.1533e+07
1.15046e+07
1.14754e+07
1.14454e+07
1.14148e+07
1.13836e+07
1.13516e+07
1.13191e+07
1.12859e+07
1.12521e+07
1.12177e+07
1.11827e+07
1.11471e+07
1.11108e+07
1.1074e+07
1.10366e+07
1.09986e+07
1.09599e+07
1.09206e+07
1.08807e+07
1.08401e+07
1.0799e+07
1.07578e+07
1.07103e+07
1.07069e+07
1.07043e+07
1.07017e+07
1.06992e+07
1.06966e+07
1.06941e+07
1.06916e+07
1.0689e+07
1.06865e+07
1.0684e+07
1.06815e+07
1.0679e+07
1.06765e+07
1.0674e+07
1.06716e+07
1.06691e+07
1.06666e+07
1.06641e+07
1.06616e+07
1.06592e+07
1.06567e+07
1.06542e+07
1.06517e+07
1.06492e+07
1.06467e+07
1.06443e+07
1.06418e+07
1.06393e+07
1.06367e+07
1.06342e+07
1.06317e+07
1.06292e+07
1.06266e+07
1.06241e+07
1.06215e+07
1.0619e+07
1.06164e+07
1.06138e+07
1.06112e+07
1.06086e+07
1.0606e+07
1.06033e+07
1.06007e+07
1.0598e+07
1.05953e+07
1.05926e+07
1.05899e+07
1.05872e+07
1.05845e+07
1.05817e+07
1.05789e+07
1.05762e+07
1.05734e+07
1.05705e+07
1.05677e+07
1.05648e+07
1.0562e+07
1.05591e+07
1.05561e+07
1.05532e+07
1.05502e+07
1.05473e+07
1.05443e+07
1.05413e+07
1.05382e+07
1.05352e+07
1.05321e+07
1.0529e+07
1.05258e+07
1.05227e+07
1.05195e+07
1.05163e+07
1.05131e+07
1.05099e+07
1.05066e+07
1.05033e+07
1.05e+07
1.04967e+07
1.04933e+07
1.04899e+07