/*--------------------------------*- C++ -*----------------------------------*\
  =========                 |
  \\      /  F ield         | OpenFOAM: The Open Source CFD Toolbox
   \\    /   O peration     | Website:  https://openfoam.org
    \\  /    A nd           | Version:  10
     \\/     M anipulation  |
\*---------------------------------------------------------------------------*/
FoamFile
{
    format      ascii;
    class       surfaceScalarField;
    location    "0.02";
    object      phi;
}
// * * * * * * * * * * * * * * * * * * * * * * * * * * * * * * * * * * * * * //

dimensions      [0 3 -1 0 0 0 0];

internalField   nonuniform List<scalar> 
24170
(
2.11252e-09
-2.11252e-09
3.87973e-09
-1.76722e-09
5.19207e-09
-1.31234e-09
6.08312e-09
-8.91048e-10
6.65504e-09
-5.71928e-10
7.01438e-09
-3.59333e-10
7.24515e-09
-2.3077e-10
7.40618e-09
-1.61031e-10
7.53709e-09
-1.30907e-10
7.66535e-09
-1.28267e-10
7.81232e-09
-1.46968e-10
7.99831e-09
-1.85989e-10
8.24824e-09
-2.49928e-10
8.60067e-09
-3.52434e-10
9.12842e-09
-5.27745e-10
1.0001e-08
-8.72576e-10
1.17439e-08
-1.74291e-09
-5.04391e-09
1.67878e-08
2.27663e-09
-4.38915e-09
4.17816e-09
-3.66874e-09
5.58551e-09
-2.71969e-09
6.53706e-09
-1.8426e-09
7.14529e-09
-1.18016e-09
7.52605e-09
-7.4009e-10
7.76988e-09
-4.74608e-10
7.93975e-09
-3.30901e-10
8.07781e-09
-2.68964e-10
8.21315e-09
-2.63602e-10
8.36818e-09
-3.02003e-10
8.564e-09
-3.81806e-10
8.82591e-09
-5.11844e-10
9.1918e-09
-7.18317e-10
9.72872e-09
-1.06467e-09
1.05715e-08
-1.71538e-09
1.19918e-08
-3.16319e-09
-7.05842e-09
1.40063e-08
2.47001e-09
-6.85916e-09
4.52592e-09
-5.72465e-09
6.03615e-09
-4.22992e-09
7.04761e-09
-2.85405e-09
7.68808e-09
-1.82062e-09
8.08572e-09
-1.13774e-09
8.33875e-09
-7.27632e-10
8.51436e-09
-5.06513e-10
8.65701e-09
-4.11619e-10
8.79702e-09
-4.03613e-10
8.95737e-09
-4.62351e-10
9.15907e-09
-5.83501e-10
9.42617e-09
-7.78949e-10
9.79198e-09
-1.08412e-09
1.03076e-08
-1.58027e-09
1.10469e-08
-2.45469e-09
1.2037e-08
-4.15332e-09
-7.63118e-09
1.26098e-08
2.70166e-09
-9.56082e-09
4.93755e-09
-7.96054e-09
6.55915e-09
-5.85152e-09
7.62763e-09
-3.92253e-09
8.29329e-09
-2.48629e-09
8.7007e-09
-1.54514e-09
8.95704e-09
-9.83971e-10
9.13381e-09
-6.83285e-10
9.27733e-09
-5.55142e-10
9.41856e-09
-5.44843e-10
9.58034e-09
-6.24124e-10
9.78255e-09
-7.85717e-10
1.00462e-08
-1.04259e-09
1.03964e-08
-1.43432e-09
1.08619e-08
-2.04574e-09
1.1454e-08
-3.04685e-09
1.20522e-08
-4.75152e-09
-7.55201e-09
1.19731e-08
2.98398e-09
-1.25448e-08
5.43295e-09
-1.04095e-08
7.17474e-09
-7.59331e-09
8.29369e-09
-5.04148e-09
8.97319e-09
-3.16579e-09
9.37967e-09
-1.95163e-09
9.63086e-09
-1.23516e-09
9.80233e-09
-8.54757e-10
9.94155e-09
-6.94358e-10
1.00793e-08
-6.82588e-10
1.02374e-08
-7.82188e-10
1.04334e-08
-9.81741e-10
1.06836e-08
-1.29277e-09
1.10025e-08
-1.75325e-09
1.13953e-08
-2.43858e-09
1.18257e-08
-3.47724e-09
1.21172e-08
-5.04296e-09
-7.19835e-09
1.17635e-08
3.33438e-09
-1.58792e-08
6.04e-09
-1.31151e-08
7.91034e-09
-9.46366e-09
9.06721e-09
-6.19835e-09
9.74287e-09
-3.84145e-09
1.01329e-08
-2.34167e-09
1.03671e-08
-1.46936e-09
1.05245e-08
-1.01214e-09
1.06525e-08
-8.22384e-10
1.07807e-08
-8.10742e-10
1.09286e-08
-9.30142e-10
1.11106e-08
-1.16372e-09
1.13368e-08
-1.51891e-09
1.16104e-08
-2.02688e-09
1.19166e-08
-2.74477e-09
1.21916e-08
-3.75226e-09
1.22625e-08
-5.11382e-09
-6.74303e-09
1.18071e-08
3.77763e-09
-1.96568e-08
6.79845e-09
-1.6136e-08
8.80356e-09
-1.14688e-08
9.97597e-09
-7.37075e-09
1.06208e-08
-4.48627e-09
1.09723e-08
-2.69317e-09
1.11734e-08
-1.67052e-09
1.13052e-08
-1.14389e-09
1.14132e-08
-9.30392e-10
1.15242e-08
-9.21713e-10
1.16544e-08
-1.0604e-09
1.18137e-08
-1.32303e-09
1.20056e-08
-1.71074e-09
1.22229e-08
-2.24419e-09
1.24368e-08
-2.95872e-09
1.25748e-08
-3.89024e-09
1.24953e-08
-5.03428e-09
-6.26133e-09
1.20136e-08
4.34967e-09
-2.40065e-08
7.76647e-09
-1.95528e-08
9.90673e-09
-1.3609e-08
1.10558e-08
-8.51987e-09
1.16291e-08
-5.05951e-09
1.19111e-08
-2.97523e-09
1.20579e-08
-1.81729e-09
1.21493e-08
-1.23523e-09
1.22263e-08
-1.00747e-09
1.23111e-08
-1.00645e-09
1.24151e-08
-1.16439e-09
1.25428e-08
-1.45077e-09
1.26911e-08
-1.85904e-09
1.28448e-08
-2.39787e-09
1.29678e-08
-3.08174e-09
1.29916e-08
-3.91403e-09
1.28129e-08
-4.85557e-09
-5.78375e-09
1.23353e-08
5.10343e-09
-2.91099e-08
9.03165e-09
-2.3481e-08
1.12939e-08
-1.58712e-08
1.23529e-08
-9.57886e-09
1.27933e-08
-5.49994e-09
1.29634e-08
-3.14537e-09
1.30284e-08
-1.88222e-09
1.30612e-08
-1.26803e-09
1.30944e-08
-1.04066e-09
1.31425e-08
-1.05462e-09
1.32111e-08
-1.23292e-09
1.32986e-08
-1.53828e-09
1.33959e-08
-1.95634e-09
1.34823e-08
-2.48432e-09
1.35204e-08
-3.11988e-09
1.34526e-08
-3.84622e-09
1.32097e-08
-4.61268e-09
-5.32103e-09
1.2747e-08
6.11793e-09
-3.52278e-08
1.07305e-08
-2.80936e-08
1.30712e-08
-1.82119e-08
1.39247e-08
-1.04323e-08
1.41409e-08
-5.71616e-09
1.41421e-08
-3.14658e-09
1.40911e-08
-1.8312e-09
1.4044e-08
-1.22095e-09
1.40187e-08
-1.01537e-09
1.40192e-08
-1.05508e-09
1.40429e-08
-1.25669e-09
1.40824e-08
-1.57772e-09
1.41233e-08
-1.99721e-09
1.41421e-08
-2.50316e-09
1.4104e-08
-3.08179e-09
1.39644e-08
-3.70657e-09
1.36802e-08
-4.32851e-09
-4.87558e-09
1.32347e-08
7.51187e-09
-4.27397e-08
1.30852e-08
-3.36669e-08
1.53935e-08
-2.05202e-08
1.58396e-08
-1.08784e-08
1.56967e-08
-5.5733e-09
1.54553e-08
-2.90517e-09
1.52485e-08
-1.62438e-09
1.50982e-08
-1.07071e-09
1.49992e-08
-9.16301e-10
1.49407e-08
-9.96605e-10
1.49109e-08
-1.22694e-09
1.48958e-08
-1.56262e-09
1.48771e-08
-1.97848e-09
1.48305e-08
-2.45656e-09
1.47258e-08
-2.97705e-09
1.45304e-08
-3.51117e-09
1.42195e-08
-4.01763e-09
-4.44651e-09
1.37904e-08
7.84948e-09
-5.05892e-08
1.36696e-08
-3.9487e-08
1.53906e-08
-2.22412e-08
1.51777e-08
-1.06655e-08
1.46313e-08
-5.02683e-09
1.41723e-08
-2.44621e-09
1.38454e-08
-1.29744e-09
1.36216e-08
-8.46951e-10
1.34701e-08
-7.64834e-10
1.33676e-08
-8.94041e-10
1.32955e-08
-1.15489e-09
1.32372e-08
-1.50424e-09
1.31746e-08
-1.91595e-09
1.30879e-08
-2.36983e-09
1.29553e-08
-2.84446e-09
1.27569e-08
-3.31279e-09
1.24807e-08
-3.7414e-09
-4.09498e-09
1.21292e-08
1.12857e-08
-6.18749e-08
1.98779e-08
-4.80792e-08
2.11403e-08
-2.35036e-08
1.97607e-08
-9.28598e-09
1.84593e-08
-3.72538e-09
1.7575e-08
-1.56196e-09
1.70006e-08
-7.23066e-10
1.66211e-08
-4.67384e-10
1.63623e-08
-5.06029e-10
1.61784e-08
-7.10193e-10
1.60384e-08
-1.01486e-09
1.59175e-08
-1.38334e-09
1.57932e-08
-1.79166e-09
1.56436e-08
-2.2202e-09
1.5448e-08
-2.64892e-09
1.51904e-08
-3.05517e-09
1.48634e-08
-3.41441e-09
-3.70387e-09
1.44723e-08
1.68031e-08
-7.86781e-08
3.10981e-08
-6.23742e-08
3.01625e-08
-2.25679e-08
2.5951e-08
-5.07452e-09
2.32865e-08
-1.06086e-09
2.17522e-08
-2.76528e-11
2.0828e-08
2.01187e-10
2.02328e-08
1.27767e-10
1.98248e-08
-9.79826e-11
1.95268e-08
-4.12188e-10
1.92912e-08
-7.79327e-10
1.90842e-08
-1.17629e-09
1.88782e-08
-1.58567e-09
1.865e-08
-1.992e-09
1.83807e-08
-2.3796e-09
1.80577e-08
-2.73222e-09
1.76775e-08
-3.03417e-09
-3.27269e-09
1.72463e-08
2.74404e-08
-1.06118e-07
3.03133e-08
-6.52471e-08
4.48731e-08
-3.71278e-08
3.3667e-08
6.13161e-09
2.89599e-08
3.64626e-09
2.66592e-08
2.27302e-09
2.5345e-08
1.51536e-09
2.4501e-08
9.71784e-10
2.39116e-08
4.91437e-10
2.34697e-08
2.97197e-11
2.31122e-08
-4.2187e-10
2.27966e-08
-8.60598e-10
2.2491e-08
-1.28011e-09
2.21715e-08
-1.67248e-09
2.18208e-08
-2.02895e-09
2.14293e-08
-2.34072e-09
2.09953e-08
-2.60016e-09
-2.80212e-09
2.05247e-08
5.84759e-08
-1.64594e-07
4.68942e-08
-5.36654e-08
3.81591e-08
-2.83927e-08
3.92463e-08
5.04437e-09
3.4247e-08
8.64557e-09
3.18759e-08
4.64419e-09
3.04071e-08
2.98417e-09
2.93822e-08
1.99661e-09
2.86219e-08
1.25181e-09
2.80277e-08
6.23917e-10
2.75352e-08
7.06054e-11
2.70987e-08
-4.24055e-10
2.66846e-08
-8.66065e-10
2.62691e-08
-1.25698e-09
2.58364e-08
-1.59627e-09
2.53784e-08
-1.88272e-09
2.48939e-08
-2.11562e-09
-2.29551e-09
2.43873e-08
1.82729e-07
1.52673e-07
8.65461e-08
4.25172e-08
3.47896e-08
2.33639e-08
3.28524e-08
6.98157e-09
3.70757e-08
4.42224e-09
3.68132e-08
4.90669e-09
3.57607e-08
4.0367e-09
3.47322e-08
3.02509e-09
3.38674e-08
2.11663e-09
3.31512e-08
1.34011e-09
3.25408e-08
6.81012e-10
3.19959e-08
1.20828e-10
3.1485e-08
-3.55194e-10
3.09857e-08
-7.57658e-10
3.04836e-08
-1.09414e-09
2.99713e-08
-1.37043e-09
2.94471e-08
-1.59148e-09
-1.7621e-09
2.89137e-08
6.98186e-08
8.28544e-08
6.97066e-08
4.26292e-08
6.18829e-08
3.11876e-08
5.2824e-08
1.60405e-08
4.64518e-08
1.07944e-08
4.34875e-08
7.87102e-09
4.16923e-08
5.83189e-09
4.04292e-08
4.28817e-09
3.94644e-08
3.08148e-09
3.86833e-08
2.1212e-09
3.80171e-08
1.3472e-09
3.74202e-08
7.17705e-10
3.68617e-08
2.03256e-10
3.63214e-08
-2.17281e-10
3.57867e-08
-5.59437e-10
3.52513e-08
-8.35061e-10
3.47134e-08
-1.05361e-09
-1.22302e-09
3.41743e-08
5.17252e-08
3.11292e-08
5.53436e-08
3.90108e-08
5.62121e-08
3.03191e-08
5.24312e-08
1.98214e-08
4.95944e-08
1.36312e-08
4.77326e-08
9.73275e-09
4.64705e-08
7.09406e-09
4.55531e-08
5.20559e-09
4.48348e-08
3.79978e-09
4.42319e-08
2.72409e-09
4.36941e-08
1.88495e-09
4.31903e-08
1.22156e-09
4.27008e-08
6.92692e-10
4.22142e-08
2.69344e-10
4.17243e-08
-6.95214e-11
4.12289e-08
-3.39659e-10
4.07285e-08
-5.53238e-10
-7.19944e-10
4.02254e-08
4.95191e-09
2.61773e-08
1.75591e-08
2.64035e-08
2.56453e-08
2.22329e-08
2.86051e-08
1.68616e-08
2.97153e-08
1.2521e-08
3.01464e-08
9.30166e-09
3.03064e-08
6.93399e-09
3.03414e-08
5.17063e-09
3.03062e-08
3.83501e-09
3.0223e-08
2.80728e-09
3.01019e-08
2.00601e-09
2.99485e-08
1.37494e-09
2.97668e-08
8.744e-10
2.95604e-08
4.7581e-10
2.93327e-08
1.58115e-10
2.90876e-08
-9.45467e-11
2.88288e-08
-2.94392e-10
-4.51029e-10
2.85599e-08
5.32183e-09
2.08555e-08
1.19861e-08
1.97393e-08
1.71744e-08
1.70445e-08
2.03307e-08
1.37053e-08
2.21908e-08
1.06609e-08
2.33147e-08
8.17776e-09
2.40168e-08
6.23197e-09
2.44634e-08
4.72404e-09
2.4744e-08
3.55434e-09
2.49093e-08
2.64198e-09
2.49898e-08
1.9256e-09
2.50051e-08
1.35963e-09
2.49691e-08
9.10376e-10
2.48922e-08
5.52724e-10
2.47825e-08
2.67779e-10
2.46468e-08
4.11191e-11
2.44909e-08
-1.3843e-10
-2.79656e-10
2.43195e-08
4.4236e-09
1.64319e-08
8.9046e-09
1.52583e-08
1.26364e-08
1.33127e-08
1.53399e-08
1.10019e-08
1.72095e-08
8.79134e-09
1.8496e-08
6.89122e-09
1.93887e-08
5.33927e-09
2.00123e-08
4.1004e-09
2.04467e-08
3.11996e-09
2.07435e-08
2.3452e-09
2.09372e-08
1.73192e-09
2.10517e-08
1.24508e-09
2.11045e-08
8.57597e-10
2.11086e-08
5.48659e-10
2.10741e-08
3.02276e-10
2.10091e-08
1.06074e-10
2.09203e-08
-4.96123e-11
-1.72411e-10
2.0813e-08
3.56107e-09
1.28708e-08
6.93925e-09
1.18801e-08
9.82668e-09
1.04252e-08
1.20861e-08
8.74249e-09
1.37785e-08
7.09896e-09
1.50257e-08
5.644e-09
1.5941e-08
4.42395e-09
1.66115e-08
3.42989e-09
1.71001e-08
2.6314e-09
1.74514e-08
1.99387e-09
1.76976e-08
1.48569e-09
1.78622e-08
1.08048e-09
1.79628e-08
7.5703e-10
1.80128e-08
4.9867e-10
1.80227e-08
2.92346e-10
1.8001e-08
1.27837e-10
1.79543e-08
-2.89793e-12
-1.06234e-10
1.78881e-08
2.89765e-09
9.97317e-09
5.5891e-09
9.18866e-09
7.92132e-09
8.09303e-09
9.81925e-09
6.84456e-09
1.13052e-08
5.61299e-09
1.24453e-08
4.50389e-09
1.3311e-08
3.55825e-09
1.39638e-08
2.77711e-09
1.44521e-08
2.14306e-09
1.48131e-08
1.63295e-09
1.50746e-08
1.22419e-09
1.5258e-08
8.9707e-10
1.53797e-08
6.35323e-10
1.54524e-08
4.259e-10
1.54863e-08
2.5845e-10
1.54894e-08
1.24791e-10
1.5468e-08
1.84433e-11
-6.57463e-11
1.54276e-08
2.39824e-09
7.57493e-09
4.61108e-09
6.97582e-09
6.54524e-09
6.15887e-09
8.15413e-09
5.23566e-09
9.44696e-09
4.32016e-09
1.04636e-08
3.48724e-09
1.12523e-08
2.76955e-09
1.18581e-08
2.17133e-09
1.23189e-08
1.68228e-09
1.26651e-08
1.28675e-09
1.29207e-08
9.68598e-10
1.31044e-08
7.13305e-10
1.32311e-08
5.08658e-10
1.33123e-08
3.4471e-10
1.33573e-08
2.13493e-10
1.33734e-08
1.08666e-10
1.33666e-08
2.51845e-11
-4.09749e-11
1.33419e-08
2.01544e-09
5.55949e-09
3.87168e-09
5.11958e-09
5.50345e-09
4.5271e-09
6.87845e-09
3.86066e-09
8.00077e-09
3.19784e-09
8.89692e-09
2.59109e-09
9.60164e-09
2.06483e-09
1.01493e-08
1.62362e-09
1.05704e-08
1.26125e-09
1.089e-08
9.67136e-10
1.11286e-08
7.29947e-10
1.13027e-08
5.39274e-10
1.14251e-08
3.86231e-10
1.15063e-08
2.63511e-10
1.15546e-08
1.65222e-10
1.15766e-08
8.66537e-11
1.15777e-08
2.40453e-11
-2.56085e-11
1.15624e-08
1.71427e-09
3.84523e-09
3.29265e-09
3.5412e-09
4.68532e-09
3.13443e-09
5.86791e-09
2.67807e-09
6.84233e-09
2.22343e-09
7.62768e-09
1.80574e-09
8.2505e-09
1.44201e-09
8.73814e-09
1.13598e-09
9.1155e-09
8.83896e-10
9.40379e-09
6.78844e-10
9.62053e-09
5.13207e-10
9.77991e-09
3.79897e-10
9.89333e-09
2.72806e-10
9.96996e-09
1.86883e-10
1.00171e-08
1.18033e-10
1.00408e-08
6.29754e-11
1.00458e-08
1.90844e-11
-1.57412e-11
1.00359e-08
1.47127e-09
2.37395e-09
2.82608e-09
2.1864e-09
4.02418e-09
1.93633e-09
5.04609e-09
1.65616e-09
5.89272e-09
1.3768e-09
6.57884e-09
1.11962e-09
7.12568e-09
8.95164e-10
7.55573e-09
7.05931e-10
7.88982e-09
5.49801e-10
8.14603e-09
4.22635e-10
8.33942e-09
3.19815e-10
8.48231e-09
2.37006e-10
8.58467e-09
1.70451e-10
8.65452e-09
1.17032e-10
8.69834e-09
7.4216e-11
8.72134e-09
3.99691e-11
8.72777e-09
1.26617e-11
-9.01147e-12
8.72104e-09
1.27097e-09
1.10298e-09
2.44149e-09
1.01588e-09
3.47789e-09
8.99927e-10
4.36395e-09
7.70103e-10
5.10015e-09
6.40596e-10
5.69851e-09
5.2126e-10
6.17668e-09
4.16999e-10
6.55359e-09
3.29014e-10
6.84703e-09
2.56362e-10
7.07252e-09
1.97152e-10
7.24308e-09
1.49256e-10
7.36941e-09
1.10668e-10
7.46022e-09
7.96476e-11
7.5225e-09
5.47451e-11
7.56194e-09
3.47831e-11
7.58309e-09
1.88143e-11
7.58967e-09
6.07979e-12
-4.02865e-12
7.58469e-09
1.10298e-09
2.11886e-09
3.01879e-09
3.78889e-09
4.42948e-09
4.95074e-09
5.36774e-09
5.69676e-09
5.95312e-09
6.15027e-09
6.29953e-09
6.4102e-09
6.48984e-09
6.54459e-09
6.57937e-09
6.59819e-09
6.60427e-09
6.60024e-09
2.43887e-10
-2.43887e-10
4.8916e-10
-2.45273e-10
7.35521e-10
-2.46361e-10
9.8266e-10
-2.47139e-10
1.23026e-09
-2.476e-10
1.478e-09
-2.47737e-10
1.72554e-09
-2.47547e-10
1.97257e-09
-2.47025e-10
2.21874e-09
-2.46174e-10
2.46374e-09
-2.44994e-10
2.70723e-09
-2.43489e-10
2.94889e-09
-2.41667e-10
3.18843e-09
-2.39534e-10
3.42553e-09
-2.37101e-10
3.65991e-09
-2.3438e-10
3.89129e-09
-2.31383e-10
4.11942e-09
-2.28126e-10
4.34404e-09
-2.24625e-10
4.56494e-09
-2.20896e-10
4.7819e-09
-2.16958e-10
4.99472e-09
-2.12827e-10
5.20325e-09
-2.08524e-10
5.40731e-09
-2.04067e-10
5.60679e-09
-1.99474e-10
5.80155e-09
-1.94765e-10
5.99151e-09
-1.89958e-10
6.17658e-09
-1.8507e-10
6.3567e-09
-1.8012e-10
6.53183e-09
-1.75124e-10
6.70192e-09
-1.70097e-10
6.86698e-09
-1.65055e-10
7.02699e-09
-1.60012e-10
7.18197e-09
-1.54981e-10
7.33194e-09
-1.49974e-10
7.47695e-09
-1.45002e-10
7.61702e-09
-1.40076e-10
7.75223e-09
-1.35206e-10
7.88263e-09
-1.30399e-10
8.00829e-09
-1.25662e-10
8.12929e-09
-1.21004e-10
8.24572e-09
-1.16429e-10
8.35766e-09
-1.11943e-10
8.46521e-09
-1.07549e-10
8.56846e-09
-1.03252e-10
8.66752e-09
-9.90534e-11
8.76247e-09
-9.49569e-11
8.85344e-09
-9.09639e-11
8.94051e-09
-8.70755e-11
9.02381e-09
-8.32926e-11
9.10342e-09
-7.96157e-11
9.17947e-09
-7.60447e-11
9.25205e-09
-7.25794e-11
9.32127e-09
-6.9219e-11
9.38723e-09
-6.59629e-11
9.45004e-09
-6.28098e-11
9.5098e-09
-5.97583e-11
9.5666e-09
-5.68074e-11
9.62056e-09
-5.39547e-11
9.67176e-09
-5.11991e-11
9.7203e-09
-4.85383e-11
9.76627e-09
-4.59704e-11
9.80976e-09
-4.34935e-11
9.85087e-09
-4.11055e-11
9.88967e-09
-3.88039e-11
9.92626e-09
-3.65868e-11
9.96071e-09
-3.44519e-11
9.9931e-09
-3.2397e-11
1.00235e-08
-3.04197e-11
1.0052e-08
-2.85182e-11
1.00787e-08
-2.66897e-11
1.01037e-08
-2.49325e-11
1.01269e-08
-2.32442e-11
1.01485e-08
-2.16225e-11
1.01686e-08
-2.00655e-11
1.01872e-08
-1.85709e-11
1.02043e-08
-1.71368e-11
1.02201e-08
-1.57611e-11
1.02345e-08
-1.44418e-11
1.02477e-08
-1.31769e-11
1.02596e-08
-1.19646e-11
1.02705e-08
-1.0803e-11
1.02801e-08
-9.69005e-12
1.02888e-08
-8.62431e-12
1.02964e-08
-7.60381e-12
1.0303e-08
-6.62696e-12
1.03087e-08
-5.69189e-12
1.03135e-08
-4.79729e-12
1.03174e-08
-3.9413e-12
1.03206e-08
-3.12258e-12
1.03229e-08
-2.33965e-12
1.03245e-08
-1.59088e-12
1.03254e-08
-8.75054e-13
1.03255e-08
-1.90619e-13
1.03251e-08
4.63453e-13
1.0324e-08
1.08883e-12
1.03223e-08
1.68646e-12
1.03201e-08
2.25754e-12
1.03172e-08
2.80353e-12
1.03139e-08
3.32527e-12
1.03101e-08
3.82403e-12
1.03058e-08
4.30068e-12
1.0301e-08
4.75652e-12
1.02958e-08
5.19214e-12
1.02902e-08
5.60899e-12
1.02842e-08
6.00749e-12
1.02778e-08
6.38891e-12
1.02711e-08
6.75391e-12
1.0264e-08
7.1034e-12
1.02565e-08
7.43807e-12
1.02488e-08
7.75878e-12
1.02407e-08
8.06626e-12
1.02324e-08
8.36121e-12
1.02237e-08
8.6442e-12
1.02148e-08
8.91598e-12
1.02056e-08
9.17716e-12
1.01962e-08
9.42844e-12
1.01865e-08
9.6701e-12
1.01766e-08
9.90316e-12
1.01665e-08
1.01276e-11
1.01562e-08
1.03444e-11
1.01456e-08
1.05536e-11
1.01348e-08
1.07561e-11
1.01239e-08
1.09521e-11
1.01127e-08
1.11421e-11
1.01014e-08
1.13264e-11
1.00899e-08
1.15053e-11
1.00782e-08
1.16796e-11
1.00664e-08
1.18492e-11
1.00544e-08
1.20145e-11
1.00422e-08
1.21761e-11
1.00299e-08
1.2334e-11
1.00174e-08
1.24887e-11
1.00047e-08
1.26402e-11
9.99194e-09
1.27891e-11
9.97901e-09
1.29354e-11
9.96593e-09
1.30796e-11
9.95271e-09
1.32215e-11
9.93934e-09
1.33619e-11
9.92584e-09
1.35007e-11
9.91221e-09
1.3638e-11
9.89843e-09
1.37743e-11
9.88452e-09
1.39097e-11
9.87048e-09
1.40446e-11
9.8563e-09
1.4179e-11
9.84198e-09
1.43134e-11
9.82754e-09
1.44478e-11
9.81295e-09
1.45828e-11
9.79824e-09
1.47187e-11
9.78338e-09
1.48561e-11
9.76838e-09
1.49953e-11
9.75325e-09
1.5137e-11
9.73797e-09
1.5282e-11
9.72253e-09
1.54313e-11
9.70695e-09
1.5586e-11
9.6912e-09
1.57477e-11
9.67528e-09
1.59181e-11
9.65918e-09
1.60998e-11
9.64289e-09
1.62957e-11
9.62638e-09
1.65098e-11
9.60963e-09
1.67468e-11
9.59262e-09
1.70135e-11
9.5753e-09
1.7318e-11
9.55763e-09
1.76714e-11
9.53954e-09
1.80878e-11
9.52095e-09
1.85862e-11
9.50176e-09
1.91919e-11
9.48182e-09
1.99384e-11
9.46095e-09
2.0872e-11
9.43889e-09
2.20561e-11
9.41531e-09
2.35799e-11
9.38974e-09
2.55715e-11
9.36152e-09
2.82203e-11
9.32971e-09
3.18167e-11
9.29288e-09
3.68272e-11
9.24883e-09
4.40494e-11
9.19386e-09
5.49665e-11
9.12118e-09
7.26809e-11
9.01628e-09
1.04898e-10
8.83993e-09
1.76354e-10
4.01178e-10
8.43875e-09
2.45229e-10
-4.89115e-10
4.91842e-10
-4.91887e-10
7.39534e-10
-4.94052e-10
9.87985e-10
-4.95591e-10
1.23687e-09
-4.96487e-10
1.48586e-09
-4.96727e-10
1.73462e-09
-4.96303e-10
1.9828e-09
-4.9521e-10
2.23008e-09
-4.9345e-10
2.47611e-09
-4.91027e-10
2.72057e-09
-4.87949e-10
2.96313e-09
-4.8423e-10
3.20349e-09
-4.79886e-10
3.44132e-09
-4.7494e-10
3.67636e-09
-4.69414e-10
3.90831e-09
-4.63337e-10
4.13693e-09
-4.5674e-10
4.36195e-09
-4.49653e-10
4.58317e-09
-4.42113e-10
4.80037e-09
-4.34155e-10
5.01336e-09
-4.25817e-10
5.22197e-09
-4.17136e-10
5.42606e-09
-4.08151e-10
5.62548e-09
-3.989e-10
5.82014e-09
-3.8942e-10
6.00993e-09
-3.79749e-10
6.19478e-09
-3.69922e-10
6.37463e-09
-3.59974e-10
6.54945e-09
-3.49939e-10
6.7192e-09
-3.39849e-10
6.88388e-09
-3.29732e-10
7.04348e-09
-3.19618e-10
7.19803e-09
-3.09532e-10
7.34756e-09
-2.99498e-10
7.4921e-09
-2.8954e-10
7.6317e-09
-2.79677e-10
7.76642e-09
-2.69927e-10
7.89633e-09
-2.60307e-10
8.0215e-09
-2.50833e-10
8.14201e-09
-2.41516e-10
8.25795e-09
-2.32368e-10
8.36941e-09
-2.234e-10
8.47648e-09
-2.14618e-10
8.57925e-09
-2.06031e-10
8.67785e-09
-1.97644e-10
8.77235e-09
-1.89461e-10
8.86287e-09
-1.81486e-10
8.94952e-09
-1.73721e-10
9.03239e-09
-1.66167e-10
9.1116e-09
-1.58826e-10
9.18725e-09
-1.51697e-10
9.25946e-09
-1.4478e-10
9.32831e-09
-1.38073e-10
9.39392e-09
-1.31574e-10
9.45639e-09
-1.25281e-10
9.51583e-09
-1.19192e-10
9.57232e-09
-1.13303e-10
9.62598e-09
-1.07611e-10
9.67689e-09
-1.02112e-10
9.72515e-09
-9.6803e-11
9.77086e-09
-9.16797e-11
9.81411e-09
-8.67377e-11
9.85498e-09
-8.19728e-11
9.89355e-09
-7.73809e-11
9.92992e-09
-7.29574e-11
9.96417e-09
-6.86981e-11
9.99637e-09
-6.45983e-11
1.00266e-08
-6.06537e-11
1.00549e-08
-5.68595e-11
1.00815e-08
-5.32118e-11
1.01062e-08
-4.97057e-11
1.01293e-08
-4.63372e-11
1.01508e-08
-4.31018e-11
1.01707e-08
-3.99951e-11
1.01892e-08
-3.70133e-11
1.02062e-08
-3.4152e-11
1.02218e-08
-3.14071e-11
1.02362e-08
-2.87747e-11
1.02493e-08
-2.6251e-11
1.02611e-08
-2.3832e-11
1.02718e-08
-2.15141e-11
1.02814e-08
-1.92935e-11
1.029e-08
-1.71669e-11
1.02975e-08
-1.51305e-11
1.03041e-08
-1.31811e-11
1.03097e-08
-1.13153e-11
1.03144e-08
-9.53005e-12
1.03183e-08
-7.82185e-12
1.03214e-08
-6.1881e-12
1.03236e-08
-4.62545e-12
1.03252e-08
-3.13121e-12
1.0326e-08
-1.70251e-12
1.03262e-08
-3.3672e-13
1.03257e-08
9.68886e-13
1.03245e-08
2.21686e-12
1.03228e-08
3.40968e-12
1.03205e-08
4.54983e-12
1.03177e-08
5.63934e-12
1.03143e-08
6.68095e-12
1.03105e-08
7.67634e-12
1.03061e-08
8.62799e-12
1.03014e-08
9.53766e-12
1.02961e-08
1.04076e-11
1.02905e-08
1.12396e-11
1.02845e-08
1.20353e-11
1.02781e-08
1.27967e-11
1.02713e-08
1.35254e-11
1.02642e-08
1.42232e-11
1.02567e-08
1.48914e-11
1.0249e-08
1.55319e-11
1.02409e-08
1.61457e-11
1.02325e-08
1.67346e-11
1.02239e-08
1.72997e-11
1.02149e-08
1.78427e-11
1.02057e-08
1.83642e-11
1.01963e-08
1.88659e-11
1.01866e-08
1.93489e-11
1.01767e-08
1.9814e-11
1.01666e-08
2.02625e-11
1.01562e-08
2.06954e-11
1.01457e-08
2.11136e-11
1.01349e-08
2.1518e-11
1.01239e-08
2.19095e-11
1.01128e-08
2.2289e-11
1.01015e-08
2.26572e-11
1.009e-08
2.3015e-11
1.00783e-08
2.33629e-11
1.00664e-08
2.37018e-11
1.00544e-08
2.40324e-11
1.00422e-08
2.43551e-11
1.00299e-08
2.46708e-11
1.00174e-08
2.49798e-11
1.00048e-08
2.52827e-11
9.99196e-09
2.55802e-11
9.97903e-09
2.58728e-11
9.96595e-09
2.61607e-11
9.95272e-09
2.64448e-11
9.93936e-09
2.67252e-11
9.92586e-09
2.70025e-11
9.91222e-09
2.72772e-11
9.89844e-09
2.75497e-11
9.88453e-09
2.78204e-11
9.87049e-09
2.80899e-11
9.85631e-09
2.83585e-11
9.84199e-09
2.86271e-11
9.82755e-09
2.8896e-11
9.81296e-09
2.91659e-11
9.79824e-09
2.94376e-11
9.78339e-09
2.9712e-11
9.76839e-09
2.99902e-11
9.75326e-09
3.02733e-11
9.73798e-09
3.05632e-11
9.72255e-09
3.08612e-11
9.70696e-09
3.11703e-11
9.69122e-09
3.14931e-11
9.6753e-09
3.18335e-11
9.6592e-09
3.2196e-11
9.64291e-09
3.25868e-11
9.62641e-09
3.30135e-11
9.60967e-09
3.34862e-11
9.59267e-09
3.40175e-11
9.57536e-09
3.46239e-11
9.5577e-09
3.53272e-11
9.53964e-09
3.61558e-11
9.52108e-09
3.71468e-11
9.50192e-09
3.83505e-11
9.48202e-09
3.98335e-11
9.46121e-09
4.16869e-11
9.43923e-09
4.40358e-11
9.41575e-09
4.70561e-11
9.39032e-09
5.09997e-11
9.36231e-09
5.62369e-11
9.33079e-09
6.33337e-11
9.29442e-09
7.31917e-11
9.25114e-09
8.73353e-11
9.19756e-09
1.08544e-10
9.12781e-09
1.42431e-10
9.03076e-09
2.01948e-10
8.88472e-09
3.224e-10
6.16682e-10
8.66921e-09
2.47949e-10
-7.37064e-10
4.97279e-10
-7.41217e-10
7.47668e-10
-7.4444e-10
9.98779e-10
-7.46702e-10
1.25027e-09
-7.47978e-10
1.50179e-09
-7.48249e-10
1.75299e-09
-7.47504e-10
2.00352e-09
-7.45737e-10
2.25302e-09
-7.42951e-10
2.50115e-09
-7.39153e-10
2.74756e-09
-7.3436e-10
2.99192e-09
-7.28593e-10
3.23392e-09
-7.2188e-10
3.47323e-09
-7.14255e-10
3.70958e-09
-7.05757e-10
3.94267e-09
-6.96428e-10
4.17224e-09
-6.86318e-10
4.39807e-09
-6.75476e-10
4.61991e-09
-6.63958e-10
4.83758e-09
-6.51819e-10
5.05087e-09
-6.39116e-10
5.25965e-09
-6.25908e-10
5.46375e-09
-6.12254e-10
5.66306e-09
-5.98211e-10
5.85748e-09
-5.83837e-10
6.04691e-09
-5.69188e-10
6.23131e-09
-5.54318e-10
6.41061e-09
-5.39279e-10
6.5848e-09
-5.24122e-10
6.75384e-09
-5.08894e-10
6.91775e-09
-4.93638e-10
7.07653e-09
-4.78398e-10
7.23021e-09
-4.63211e-10
7.37883e-09
-4.48114e-10
7.52242e-09
-4.33139e-10
7.66106e-09
-4.18316e-10
7.79481e-09
-4.03671e-10
7.92373e-09
-3.8923e-10
8.04791e-09
-3.75013e-10
8.16743e-09
-3.61038e-10
8.28239e-09
-3.47323e-10
8.39287e-09
-3.33882e-10
8.49898e-09
-3.20726e-10
8.60081e-09
-3.07865e-10
8.69847e-09
-2.95307e-10
8.79207e-09
-2.83058e-10
8.88171e-09
-2.71123e-10
8.96749e-09
-2.59505e-10
9.04953e-09
-2.48206e-10
9.12793e-09
-2.37226e-10
9.2028e-09
-2.26566e-10
9.27424e-09
-2.16224e-10
9.34237e-09
-2.06197e-10
9.40728e-09
-1.96482e-10
9.46907e-09
-1.87077e-10
9.52786e-09
-1.77976e-10
9.58373e-09
-1.69176e-10
9.63679e-09
-1.6067e-10
9.68713e-09
-1.52454e-10
9.73485e-09
-1.44522e-10
9.78004e-09
-1.36867e-10
9.82278e-09
-1.29484e-10
9.86318e-09
-1.22365e-10
9.9013e-09
-1.15505e-10
9.93724e-09
-1.08897e-10
9.97108e-09
-1.02534e-10
1.00029e-08
-9.64092e-11
1.00327e-08
-9.05163e-11
1.00607e-08
-8.48485e-11
1.00869e-08
-7.93989e-11
1.01114e-08
-7.41613e-11
1.01342e-08
-6.9129e-11
1.01554e-08
-6.42953e-11
1.0175e-08
-5.96543e-11
1.01932e-08
-5.51993e-11
1.021e-08
-5.09245e-11
1.02254e-08
-4.68235e-11
1.02395e-08
-4.28905e-11
1.02524e-08
-3.91198e-11
1.02641e-08
-3.55055e-11
1.02746e-08
-3.20421e-11
1.0284e-08
-2.87241e-11
1.02924e-08
-2.55462e-11
1.02998e-08
-2.25033e-11
1.03062e-08
-1.95903e-11
1.03117e-08
-1.6802e-11
1.03163e-08
-1.4134e-11
1.032e-08
-1.15813e-11
1.0323e-08
-9.13936e-12
1.03252e-08
-6.80405e-12
1.03266e-08
-4.57069e-12
1.03273e-08
-2.43529e-12
1.03274e-08
-3.93802e-13
1.03268e-08
1.55789e-12
1.03256e-08
3.42341e-12
1.03238e-08
5.20654e-12
1.03214e-08
6.91086e-12
1.03185e-08
8.53994e-12
1.03151e-08
1.00969e-11
1.03112e-08
1.15854e-11
1.03068e-08
1.30082e-11
1.0302e-08
1.43685e-11
1.02967e-08
1.56693e-11
1.02911e-08
1.69133e-11
1.0285e-08
1.81034e-11
1.02785e-08
1.92421e-11
1.02717e-08
2.0332e-11
1.02646e-08
2.13757e-11
1.02571e-08
2.23753e-11
1.02493e-08
2.33331e-11
1.02412e-08
2.42516e-11
1.02328e-08
2.51327e-11
1.02241e-08
2.59782e-11
1.02152e-08
2.67903e-11
1.0206e-08
2.75709e-11
1.01965e-08
2.83217e-11
1.01868e-08
2.90443e-11
1.01769e-08
2.97406e-11
1.01667e-08
3.04119e-11
1.01564e-08
3.10598e-11
1.01458e-08
3.16858e-11
1.0135e-08
3.22914e-11
1.01241e-08
3.28774e-11
1.01129e-08
3.34458e-11
1.01016e-08
3.3997e-11
1.009e-08
3.45328e-11
1.00784e-08
3.5054e-11
1.00665e-08
3.55615e-11
1.00545e-08
3.60566e-11
1.00423e-08
3.65402e-11
1.00299e-08
3.70129e-11
1.00174e-08
3.74759e-11
1.00048e-08
3.79299e-11
9.99201e-09
3.83756e-11
9.97907e-09
3.88138e-11
9.96598e-09
3.92455e-11
9.95275e-09
3.9671e-11
9.93939e-09
4.00913e-11
9.92588e-09
4.05069e-11
9.91224e-09
4.09186e-11
9.89847e-09
4.13269e-11
9.88455e-09
4.17327e-11
9.87051e-09
4.21367e-11
9.85633e-09
4.25393e-11
9.84201e-09
4.29419e-11
9.82756e-09
4.33448e-11
9.81298e-09
4.37492e-11
9.79826e-09
4.41565e-11
9.7834e-09
4.45676e-11
9.76841e-09
4.49844e-11
9.75327e-09
4.54085e-11
9.738e-09
4.58424e-11
9.72257e-09
4.62888e-11
9.70699e-09
4.67513e-11
9.69125e-09
4.72342e-11
9.67534e-09
4.77431e-11
9.65925e-09
4.8285e-11
9.64297e-09
4.88687e-11
9.62647e-09
4.95057e-11
9.60975e-09
5.02107e-11
9.59276e-09
5.10025e-11
9.57548e-09
5.19057e-11
9.55786e-09
5.29524e-11
9.53983e-09
5.41843e-11
9.52132e-09
5.56568e-11
9.50223e-09
5.74434e-11
9.48242e-09
5.96427e-11
9.46171e-09
6.23886e-11
9.43989e-09
6.58647e-11
9.41661e-09
7.03282e-11
9.39147e-09
7.61457e-11
9.36385e-09
8.38542e-11
9.33292e-09
9.42658e-11
9.29745e-09
1.08661e-10
9.25562e-09
1.29164e-10
9.20463e-09
1.59538e-10
9.14004e-09
2.07017e-10
9.05512e-09
2.86869e-10
8.94318e-09
4.34341e-10
7.3207e-10
8.82779e-09
2.52124e-10
-9.89189e-10
5.05623e-10
-9.94715e-10
7.60146e-10
-9.98964e-10
1.01533e-09
-1.00189e-09
1.27081e-09
-1.00346e-09
1.52621e-09
-1.00365e-09
1.78115e-09
-1.00244e-09
2.03524e-09
-9.99836e-10
2.28813e-09
-9.95838e-10
2.53944e-09
-9.90462e-10
2.78881e-09
-9.83731e-10
3.0359e-09
-9.75679e-10
3.28036e-09
-9.66348e-10
3.5219e-09
-9.55788e-10
3.76019e-09
-9.44053e-10
3.99497e-09
-9.31208e-10
4.22598e-09
-9.17321e-10
4.45296e-09
-9.02463e-10
4.67572e-09
-8.86711e-10
4.89404e-09
-8.70142e-10
5.10776e-09
-8.52836e-10
5.31673e-09
-8.34875e-10
5.52081e-09
-8.16337e-10
5.7199e-09
-7.97302e-10
5.91391e-09
-7.77849e-10
6.10278e-09
-7.58052e-10
6.28644e-09
-7.37985e-10
6.46488e-09
-7.17717e-10
6.63807e-09
-6.97314e-10
6.80602e-09
-6.7684e-10
6.96873e-09
-6.56353e-10
7.12624e-09
-6.35907e-10
7.27858e-09
-6.15554e-10
7.42581e-09
-5.95339e-10
7.56798e-09
-5.75305e-10
7.70515e-09
-5.55491e-10
7.83741e-09
-5.35931e-10
7.96484e-09
-5.16655e-10
8.08751e-09
-4.97691e-10
8.20554e-09
-4.79063e-10
8.31901e-09
-4.60792e-10
8.42802e-09
-4.42893e-10
8.53268e-09
-4.25383e-10
8.63308e-09
-4.08273e-10
8.72935e-09
-3.91573e-10
8.82158e-09
-3.7529e-10
8.90989e-09
-3.5943e-10
8.99438e-09
-3.43996e-10
9.07517e-09
-3.2899e-10
9.15235e-09
-3.14411e-10
9.22604e-09
-3.0026e-10
9.29635e-09
-2.86533e-10
9.36338e-09
-2.73227e-10
9.42724e-09
-2.60338e-10
9.48802e-09
-2.47861e-10
9.54584e-09
-2.3579e-10
9.60078e-09
-2.24118e-10
9.65295e-09
-2.12838e-10
9.70243e-09
-2.01943e-10
9.74934e-09
-1.91424e-10
9.79374e-09
-1.81275e-10
9.83575e-09
-1.71485e-10
9.87543e-09
-1.62048e-10
9.91288e-09
-1.52953e-10
9.94817e-09
-1.44192e-10
9.98139e-09
-1.35756e-10
1.00126e-08
-1.27637e-10
1.00419e-08
-1.19824e-10
1.00694e-08
-1.1231e-10
1.00951e-08
-1.05086e-10
1.01191e-08
-9.81422e-11
1.01414e-08
-9.14704e-11
1.01622e-08
-8.50622e-11
1.01814e-08
-7.8909e-11
1.01992e-08
-7.30024e-11
1.02156e-08
-6.73343e-11
1.02307e-08
-6.1897e-11
1.02445e-08
-5.66819e-11
1.02571e-08
-5.1682e-11
1.02684e-08
-4.68891e-11
1.02787e-08
-4.22965e-11
1.02879e-08
-3.78964e-11
1.0296e-08
-3.36819e-11
1.03032e-08
-2.96463e-11
1.03093e-08
-2.57826e-11
1.03146e-08
-2.20846e-11
1.0319e-08
-1.85455e-11
1.03226e-08
-1.51596e-11
1.03254e-08
-1.19204e-11
1.03274e-08
-8.82228e-12
1.03287e-08
-5.85947e-12
1.03293e-08
-3.02646e-12
1.03292e-08
-3.17779e-13
1.03285e-08
2.27177e-12
1.03272e-08
4.74703e-12
1.03253e-08
7.11321e-12
1.03228e-08
9.37502e-12
1.03198e-08
1.1537e-11
1.03163e-08
1.36034e-11
1.03123e-08
1.5579e-11
1.03079e-08
1.74675e-11
1.03029e-08
1.92733e-11
1.02976e-08
2.10002e-11
1.02919e-08
2.26517e-11
1.02858e-08
2.42319e-11
1.02793e-08
2.57438e-11
1.02724e-08
2.71912e-11
1.02652e-08
2.8577e-11
1.02577e-08
2.99047e-11
1.02498e-08
3.1177e-11
1.02417e-08
3.23969e-11
1.02332e-08
3.35673e-11
1.02245e-08
3.46908e-11
1.02155e-08
3.57697e-11
1.02063e-08
3.6807e-11
1.01968e-08
3.78048e-11
1.01871e-08
3.87651e-11
1.01772e-08
3.96905e-11
1.0167e-08
4.0583e-11
1.01566e-08
4.14444e-11
1.0146e-08
4.22766e-11
1.01352e-08
4.30818e-11
1.01242e-08
4.38613e-11
1.01131e-08
4.4617e-11
1.01017e-08
4.53504e-11
1.00902e-08
4.60629e-11
1.00785e-08
4.67564e-11
1.00666e-08
4.74317e-11
1.00546e-08
4.80905e-11
1.00424e-08
4.87339e-11
1.003e-08
4.93632e-11
1.00175e-08
4.99793e-11