/*--------------------------------*- C++ -*----------------------------------*\
  =========                 |
  \\      /  F ield         | OpenFOAM: The Open Source CFD Toolbox
   \\    /   O peration     | Website:  https://openfoam.org
    \\  /    A nd           | Version:  10
     \\/     M anipulation  |
\*---------------------------------------------------------------------------*/
FoamFile
{
    format      ascii;
    class       volScalarField;
    location    "0.3";
    object      p;
}
// * * * * * * * * * * * * * * * * * * * * * * * * * * * * * * * * * * * * * //

dimensions      [1 -1 -2 0 0 0 0];

internalField   nonuniform List<scalar> 
12225
(
2.08127e+07
2.08126e+07
2.08123e+07
2.08119e+07
2.08114e+07
2.08109e+07
2.08103e+07
2.08097e+07
2.08091e+07
2.08086e+07
2.08082e+07
2.0808e+07
2.0808e+07
2.08084e+07
2.08091e+07
2.08102e+07
2.08118e+07
2.08141e+07
2.08127e+07
2.08126e+07
2.08123e+07
2.08119e+07
2.08114e+07
2.08109e+07
2.08103e+07
2.08097e+07
2.08091e+07
2.08086e+07
2.08082e+07
2.0808e+07
2.0808e+07
2.08083e+07
2.0809e+07
2.08101e+07
2.08117e+07
2.08139e+07
2.08127e+07
2.08126e+07
2.08123e+07
2.08119e+07
2.08114e+07
2.08109e+07
2.08103e+07
2.08097e+07
2.08091e+07
2.08086e+07
2.08082e+07
2.08079e+07
2.08079e+07
2.08082e+07
2.08089e+07
2.08099e+07
2.08115e+07
2.08135e+07
2.08128e+07
2.08126e+07
2.08123e+07
2.08119e+07
2.08115e+07
2.08109e+07
2.08103e+07
2.08097e+07
2.08091e+07
2.08085e+07
2.08081e+07
2.08078e+07
2.08078e+07
2.0808e+07
2.08086e+07
2.08096e+07
2.08111e+07
2.08129e+07
2.08128e+07
2.08126e+07
2.08124e+07
2.0812e+07
2.08115e+07
2.08109e+07
2.08103e+07
2.08097e+07
2.0809e+07
2.08085e+07
2.0808e+07
2.08077e+07
2.08076e+07
2.08078e+07
2.08083e+07
2.08092e+07
2.08106e+07
2.08122e+07
2.08128e+07
2.08127e+07
2.08124e+07
2.0812e+07
2.08115e+07
2.08109e+07
2.08103e+07
2.08097e+07
2.0809e+07
2.08084e+07
2.08079e+07
2.08075e+07
2.08073e+07
2.08074e+07
2.08079e+07
2.08087e+07
2.08099e+07
2.08114e+07
2.08129e+07
2.08127e+07
2.08125e+07
2.08121e+07
2.08116e+07
2.0811e+07
2.08103e+07
2.08097e+07
2.0809e+07
2.08083e+07
2.08077e+07
2.08073e+07
2.0807e+07
2.0807e+07
2.08073e+07
2.0808e+07
2.0809e+07
2.08105e+07
2.0813e+07
2.08128e+07
2.08125e+07
2.08121e+07
2.08116e+07
2.0811e+07
2.08104e+07
2.08097e+07
2.08089e+07
2.08082e+07
2.08075e+07
2.0807e+07
2.08066e+07
2.08064e+07
2.08066e+07
2.08071e+07
2.0808e+07
2.08093e+07
2.08131e+07
2.08129e+07
2.08126e+07
2.08122e+07
2.08117e+07
2.08111e+07
2.08104e+07
2.08097e+07
2.08089e+07
2.08081e+07
2.08073e+07
2.08066e+07
2.08061e+07
2.08057e+07
2.08056e+07
2.08059e+07
2.08067e+07
2.08079e+07
2.08132e+07
2.0813e+07
2.08128e+07
2.08124e+07
2.08118e+07
2.08112e+07
2.08105e+07
2.08097e+07
2.08089e+07
2.0808e+07
2.08071e+07
2.08062e+07
2.08054e+07
2.08048e+07
2.08045e+07
2.08045e+07
2.0805e+07
2.08061e+07
2.08134e+07
2.08132e+07
2.08129e+07
2.08125e+07
2.0812e+07
2.08114e+07
2.08106e+07
2.08098e+07
2.08089e+07
2.08079e+07
2.08068e+07
2.08058e+07
2.08047e+07
2.08038e+07
2.08031e+07
2.08028e+07
2.0803e+07
2.08039e+07
2.08135e+07
2.08134e+07
2.08131e+07
2.08127e+07
2.08122e+07
2.08115e+07
2.08108e+07
2.08099e+07
2.08089e+07
2.08078e+07
2.08066e+07
2.08053e+07
2.0804e+07
2.08027e+07
2.08015e+07
2.08007e+07
2.08005e+07
2.08012e+07
2.08137e+07
2.08136e+07
2.08133e+07
2.08129e+07
2.08124e+07
2.08117e+07
2.08109e+07
2.081e+07
2.0809e+07
2.08078e+07
2.08064e+07
2.08049e+07
2.08032e+07
2.08015e+07
2.07998e+07
2.07983e+07
2.07975e+07
2.07977e+07
2.0814e+07
2.08139e+07
2.08136e+07
2.08132e+07
2.08127e+07
2.0812e+07
2.08112e+07
2.08103e+07
2.08091e+07
2.08078e+07
2.08062e+07
2.08044e+07
2.08024e+07
2.08e+07
2.07975e+07
2.0795e+07
2.07929e+07
2.07922e+07
2.08144e+07
2.08143e+07
2.0814e+07
2.08137e+07
2.08131e+07
2.08125e+07
2.08117e+07
2.08107e+07
2.08095e+07
2.0808e+07
2.08063e+07
2.08042e+07
2.08016e+07
2.07985e+07
2.07948e+07
2.07905e+07
2.07858e+07
2.07822e+07
2.0815e+07
2.08149e+07
2.08146e+07
2.08143e+07
2.08138e+07
2.08132e+07
2.08124e+07
2.08114e+07
2.08102e+07
2.08087e+07
2.08068e+07
2.08045e+07
2.08016e+07
2.07978e+07
2.07928e+07
2.07858e+07
2.07757e+07
2.076e+07
2.73687e+07
2.72423e+07
2.71373e+07
2.70405e+07
2.69472e+07
2.68561e+07
2.67668e+07
2.6679e+07
2.65927e+07
2.65078e+07
2.64243e+07
2.63421e+07
2.62611e+07
2.61811e+07
2.61018e+07
2.60227e+07
2.59429e+07
2.58614e+07
2.72957e+07
2.72211e+07
2.71316e+07
2.70404e+07
2.69511e+07
2.68633e+07
2.67767e+07
2.66914e+07
2.66074e+07
2.65247e+07
2.64437e+07
2.63642e+07
2.62866e+07
2.62109e+07
2.61374e+07
2.60666e+07
2.59993e+07
2.5937e+07
2.71864e+07
2.7145e+07
2.70822e+07
2.70094e+07
2.6932e+07
2.68526e+07
2.67724e+07
2.66924e+07
2.66131e+07
2.65349e+07
2.64581e+07
2.63831e+07
2.63103e+07
2.62398e+07
2.6172e+07
2.61075e+07
2.60464e+07
2.59893e+07
2.71041e+07
2.70755e+07
2.70276e+07
2.69677e+07
2.69007e+07
2.68295e+07
2.6756e+07
2.66814e+07
2.66068e+07
2.65328e+07
2.64599e+07
2.63885e+07
2.63192e+07
2.6252e+07
2.61874e+07
2.61256e+07
2.60667e+07
2.6011e+07
2.70497e+07
2.70266e+07
2.69862e+07
2.69338e+07
2.68734e+07
2.68077e+07
2.67388e+07
2.66682e+07
2.65969e+07
2.65257e+07
2.64554e+07
2.63863e+07
2.6319e+07
2.62536e+07
2.61905e+07
2.61298e+07
2.60716e+07
2.60159e+07
2.70098e+07
2.69897e+07
2.69537e+07
2.6906e+07
2.68499e+07
2.67881e+07
2.67225e+07
2.66546e+07
2.65857e+07
2.65166e+07
2.64479e+07
2.63803e+07
2.63141e+07
2.62497e+07
2.61872e+07
2.61267e+07
2.60684e+07
2.60122e+07
2.69805e+07
2.69621e+07
2.69288e+07
2.68841e+07
2.68308e+07
2.67715e+07
2.67081e+07
2.66421e+07
2.65747e+07
2.65068e+07
2.64391e+07
2.63723e+07
2.63067e+07
2.62425e+07
2.61801e+07
2.61193e+07
2.60603e+07
2.60021e+07
2.69592e+07
2.69419e+07
2.69102e+07
2.68672e+07
2.68158e+07
2.6758e+07
2.66959e+07
2.6631e+07
2.65644e+07
2.64972e+07
2.643e+07
2.63634e+07
2.62978e+07
2.62333e+07
2.61704e+07
2.61078e+07
2.60474e+07
2.59788e+07
2.69439e+07
2.69272e+07
2.68964e+07
2.68545e+07
2.68041e+07
2.67473e+07
2.66859e+07
2.66214e+07
2.65551e+07
2.64881e+07
2.64208e+07
2.63537e+07
2.62879e+07
2.62214e+07
2.61578e+07
2.6086e+07
2.60235e+07
2.59749e+07
2.69332e+07
2.69167e+07
2.68865e+07
2.68451e+07
2.67951e+07
2.67388e+07
2.66777e+07
2.66131e+07
2.65466e+07
2.64795e+07
2.64113e+07
2.63427e+07
2.62763e+07
2.62015e+07
2.61364e+07
2.60815e+07
2.60274e+07
2.59774e+07
2.69257e+07
2.69094e+07
2.68793e+07
2.6838e+07
2.67882e+07
2.67319e+07
2.66708e+07
2.66055e+07
2.65381e+07
2.64707e+07
2.64002e+07
2.63253e+07
2.62593e+07
2.61982e+07
2.61383e+07
2.60825e+07
2.60292e+07
2.59792e+07
2.69206e+07
2.69042e+07
2.6874e+07
2.68325e+07
2.67824e+07
2.6726e+07
2.66644e+07
2.65974e+07
2.6527e+07
2.64576e+07
2.63907e+07
2.63242e+07
2.62596e+07
2.61982e+07
2.61391e+07
2.60833e+07
2.60303e+07
2.59802e+07
2.69168e+07
2.69001e+07
2.68694e+07
2.68272e+07
2.67761e+07
2.67187e+07
2.6657e+07
2.65923e+07
2.65249e+07
2.64569e+07
2.639e+07
2.63239e+07
2.62597e+07
2.61983e+07
2.61395e+07
2.60837e+07
2.60308e+07
2.59808e+07
2.69136e+07
2.68972e+07
2.68669e+07
2.68253e+07
2.67748e+07
2.67177e+07
2.66562e+07
2.65916e+07
2.65244e+07
2.64566e+07
2.63897e+07
2.63237e+07
2.62597e+07
2.61984e+07
2.61396e+07
2.60839e+07
2.6031e+07
2.5981e+07
2.08243e+07
2.08243e+07
2.08243e+07
2.08243e+07
2.08242e+07
2.08241e+07
2.08241e+07
2.0824e+07
2.08239e+07
2.08237e+07
2.08236e+07
2.08234e+07
2.08232e+07
2.0823e+07
2.08228e+07
2.08225e+07
2.08223e+07
2.08219e+07
2.08216e+07
2.08212e+07
2.08208e+07
2.08203e+07
2.08198e+07
2.08193e+07
2.08187e+07
2.0818e+07
2.08173e+07
2.08166e+07
2.08158e+07
2.08149e+07
2.08139e+07
2.08128e+07
2.08117e+07
2.08105e+07
2.08092e+07
2.08077e+07
2.08062e+07
2.08046e+07
2.08028e+07
2.08009e+07
2.07988e+07
2.07966e+07
2.07943e+07
2.07918e+07
2.0789e+07
2.07861e+07
2.0783e+07
2.07797e+07
2.07762e+07
2.07724e+07
2.07683e+07
2.0764e+07
2.07594e+07
2.07545e+07
2.07492e+07
2.07436e+07
2.07377e+07
2.07314e+07
2.07246e+07
2.07175e+07
2.07099e+07
2.07018e+07
2.06933e+07
2.06842e+07
2.06746e+07
2.06645e+07
2.06537e+07
2.06424e+07
2.06304e+07
2.06177e+07
2.06044e+07
2.05903e+07
2.05755e+07
2.05599e+07
2.05436e+07
2.05265e+07
2.05085e+07
2.04897e+07
2.047e+07
2.04494e+07
2.04279e+07
2.04055e+07
2.03822e+07
2.03579e+07
2.03327e+07
2.03066e+07
2.02794e+07
2.02513e+07
2.02223e+07
2.01923e+07
2.01613e+07
2.01293e+07
2.00964e+07
2.00625e+07
2.00277e+07
1.9992e+07
1.99553e+07
1.99177e+07
1.98792e+07
1.98399e+07
1.97996e+07
1.97585e+07
1.97165e+07
1.96737e+07
1.963e+07
1.95856e+07
1.95403e+07
1.94943e+07
1.94474e+07
1.93999e+07
1.93515e+07
1.93025e+07
1.92527e+07
1.92022e+07
1.91511e+07
1.90992e+07
1.90467e+07
1.89935e+07
1.89396e+07
1.88851e+07
1.883e+07
1.87742e+07
1.87178e+07
1.86608e+07
1.86032e+07
1.8545e+07
1.84861e+07
1.84267e+07
1.83667e+07
1.83061e+07
1.8245e+07
1.81832e+07
1.81209e+07
1.8058e+07
1.79945e+07
1.79305e+07
1.78659e+07
1.78007e+07
1.77349e+07
1.76686e+07
1.76018e+07
1.75343e+07
1.74663e+07
1.73977e+07
1.73285e+07
1.72588e+07
1.71885e+07
1.71176e+07
1.70462e+07
1.69741e+07
1.69015e+07
1.68283e+07
1.67545e+07
1.66801e+07
1.66052e+07
1.65296e+07
1.64534e+07
1.63767e+07
1.62993e+07
1.62213e+07
1.61427e+07
1.60635e+07
1.59837e+07
1.59032e+07
1.58222e+07
1.57405e+07
1.56582e+07
1.55753e+07
1.54917e+07
1.54076e+07
1.53228e+07
1.52374e+07
1.51515e+07
1.50651e+07
1.49781e+07
1.48907e+07
1.4803e+07
1.47151e+07
1.46274e+07
1.45405e+07
2.08244e+07
2.08244e+07
2.08243e+07
2.08243e+07
2.08243e+07
2.08242e+07
2.08241e+07
2.0824e+07
2.08239e+07
2.08238e+07
2.08237e+07
2.08235e+07
2.08233e+07
2.08231e+07
2.08229e+07
2.08226e+07
2.08223e+07
2.0822e+07
2.08217e+07
2.08213e+07
2.08209e+07
2.08204e+07
2.082e+07
2.08194e+07
2.08188e+07
2.08182e+07
2.08175e+07
2.08167e+07
2.08159e+07
2.0815e+07
2.08141e+07
2.0813e+07
2.08119e+07
2.08107e+07
2.08094e+07
2.0808e+07
2.08065e+07
2.08048e+07
2.08031e+07
2.08012e+07
2.07991e+07
2.0797e+07
2.07946e+07
2.07921e+07
2.07894e+07
2.07865e+07
2.07834e+07
2.07801e+07
2.07766e+07
2.07728e+07
2.07688e+07
2.07645e+07
2.07599e+07
2.0755e+07
2.07498e+07
2.07442e+07
2.07383e+07
2.0732e+07
2.07253e+07
2.07181e+07
2.07106e+07
2.07025e+07
2.0694e+07
2.0685e+07
2.06754e+07
2.06652e+07
2.06545e+07
2.06432e+07
2.06312e+07
2.06185e+07
2.06052e+07
2.05912e+07
2.05764e+07
2.05608e+07
2.05445e+07
2.05273e+07
2.05094e+07
2.04905e+07
2.04709e+07
2.04503e+07
2.04288e+07
2.04064e+07
2.03831e+07
2.03588e+07
2.03336e+07
2.03074e+07
2.02802e+07
2.02521e+07
2.0223e+07
2.0193e+07
2.0162e+07
2.013e+07
2.00971e+07
2.00632e+07
2.00283e+07
1.99926e+07
1.99559e+07
1.99183e+07
1.98798e+07
1.98403e+07
1.98001e+07
1.97589e+07
1.97169e+07
1.96741e+07
1.96304e+07
1.95859e+07
1.95406e+07
1.94946e+07
1.94477e+07
1.94001e+07
1.93518e+07
1.93027e+07
1.92529e+07
1.92024e+07
1.91512e+07
1.90994e+07
1.90468e+07
1.89936e+07
1.89397e+07
1.88852e+07
1.88301e+07
1.87743e+07
1.87179e+07
1.86609e+07
1.86033e+07
1.8545e+07
1.84862e+07
1.84268e+07
1.83668e+07
1.83062e+07
1.8245e+07
1.81832e+07
1.81209e+07
1.8058e+07
1.79945e+07
1.79305e+07
1.78659e+07
1.78007e+07
1.7735e+07
1.76686e+07
1.76018e+07
1.75343e+07
1.74663e+07
1.73977e+07
1.73285e+07
1.72588e+07
1.71885e+07
1.71176e+07
1.70462e+07
1.69741e+07
1.69015e+07
1.68283e+07
1.67545e+07
1.66801e+07
1.66052e+07
1.65296e+07
1.64534e+07
1.63767e+07
1.62993e+07
1.62213e+07
1.61427e+07
1.60635e+07
1.59837e+07
1.59032e+07
1.58222e+07
1.57405e+07
1.56582e+07
1.55752e+07
1.54917e+07
1.54075e+07
1.53228e+07
1.52374e+07
1.51515e+07
1.5065e+07
1.4978e+07
1.48906e+07
1.48029e+07
1.47149e+07
1.46271e+07
1.45398e+07
2.08245e+07
2.08245e+07
2.08244e+07
2.08244e+07
2.08244e+07
2.08243e+07
2.08242e+07
2.08241e+07
2.0824e+07
2.08239e+07
2.08238e+07
2.08236e+07
2.08234e+07
2.08233e+07
2.0823e+07
2.08228e+07
2.08225e+07
2.08222e+07
2.08219e+07
2.08215e+07
2.08211e+07
2.08207e+07
2.08202e+07
2.08197e+07
2.08191e+07
2.08185e+07
2.08178e+07
2.08171e+07
2.08163e+07
2.08154e+07
2.08145e+07
2.08134e+07
2.08123e+07
2.08112e+07
2.08099e+07
2.08085e+07
2.0807e+07
2.08054e+07
2.08036e+07
2.08018e+07
2.07998e+07
2.07976e+07
2.07953e+07
2.07928e+07
2.07901e+07
2.07873e+07
2.07842e+07
2.0781e+07
2.07775e+07
2.07737e+07
2.07697e+07
2.07655e+07
2.07609e+07
2.07561e+07
2.07509e+07
2.07453e+07
2.07395e+07
2.07332e+07
2.07265e+07
2.07195e+07
2.07119e+07
2.07039e+07
2.06954e+07
2.06864e+07
2.06769e+07
2.06668e+07
2.06561e+07
2.06448e+07
2.06329e+07
2.06202e+07
2.06069e+07
2.05929e+07
2.05781e+07
2.05626e+07
2.05463e+07
2.05291e+07
2.05112e+07
2.04924e+07
2.04727e+07
2.04521e+07
2.04306e+07
2.04081e+07
2.03848e+07
2.03605e+07
2.03352e+07
2.0309e+07
2.02818e+07
2.02537e+07
2.02246e+07
2.01945e+07
2.01634e+07
2.01314e+07
2.00984e+07
2.00645e+07
2.00296e+07
1.99938e+07
1.9957e+07
1.99194e+07
1.98808e+07
1.98413e+07
1.9801e+07
1.97598e+07
1.97177e+07
1.96748e+07
1.96311e+07
1.95866e+07
1.95413e+07
1.94952e+07
1.94483e+07
1.94007e+07
1.93523e+07
1.93032e+07
1.92534e+07
1.92028e+07
1.91516e+07
1.90997e+07
1.90471e+07
1.89939e+07
1.894e+07
1.88855e+07
1.88303e+07
1.87745e+07
1.87181e+07
1.86611e+07
1.86034e+07
1.85452e+07
1.84863e+07
1.84269e+07
1.83669e+07
1.83063e+07
1.82451e+07
1.81833e+07
1.8121e+07
1.80581e+07
1.79946e+07
1.79305e+07
1.78659e+07
1.78007e+07
1.7735e+07
1.76687e+07
1.76018e+07
1.75343e+07
1.74663e+07
1.73977e+07
1.73286e+07
1.72588e+07
1.71885e+07
1.71176e+07
1.70462e+07
1.69741e+07
1.69015e+07
1.68283e+07
1.67545e+07
1.66801e+07
1.66052e+07
1.65296e+07
1.64534e+07
1.63767e+07
1.62993e+07
1.62213e+07
1.61427e+07
1.60635e+07
1.59837e+07
1.59032e+07
1.58221e+07
1.57405e+07
1.56581e+07
1.55752e+07
1.54917e+07
1.54075e+07
1.53227e+07
1.52374e+07
1.51514e+07
1.50649e+07
1.49779e+07
1.48905e+07
1.48027e+07
1.47146e+07
1.46265e+07
1.45386e+07
2.08246e+07
2.08246e+07
2.08246e+07
2.08246e+07
2.08245e+07
2.08245e+07
2.08244e+07
2.08243e+07
2.08242e+07
2.08241e+07
2.0824e+07
2.08238e+07
2.08237e+07
2.08235e+07
2.08233e+07
2.0823e+07
2.08228e+07
2.08225e+07
2.08222e+07
2.08218e+07
2.08215e+07
2.0821e+07
2.08206e+07
2.08201e+07
2.08195e+07
2.08189e+07
2.08183e+07
2.08176e+07
2.08168e+07
2.0816e+07
2.0815e+07
2.08141e+07
2.0813e+07
2.08118e+07
2.08106e+07
2.08092e+07
2.08078e+07
2.08062e+07
2.08045e+07
2.08027e+07
2.08007e+07
2.07986e+07
2.07963e+07
2.07939e+07
2.07913e+07
2.07885e+07
2.07855e+07
2.07822e+07
2.07788e+07
2.07751e+07
2.07712e+07
2.0767e+07
2.07625e+07
2.07577e+07
2.07525e+07
2.07471e+07
2.07412e+07
2.07351e+07
2.07285e+07
2.07214e+07
2.0714e+07
2.0706e+07
2.06976e+07
2.06887e+07
2.06792e+07
2.06691e+07
2.06585e+07
2.06473e+07
2.06354e+07
2.06228e+07
2.06095e+07
2.05955e+07
2.05808e+07
2.05653e+07
2.0549e+07
2.05319e+07
2.05139e+07
2.04951e+07
2.04754e+07
2.04548e+07
2.04332e+07
2.04108e+07
2.03874e+07
2.03631e+07
2.03378e+07
2.03115e+07
2.02843e+07
2.02561e+07
2.02269e+07
2.01967e+07
2.01656e+07
2.01335e+07
2.01004e+07
2.00664e+07
2.00314e+07
1.99955e+07
1.99587e+07
1.9921e+07
1.98823e+07
1.98428e+07
1.98024e+07
1.97611e+07
1.9719e+07
1.9676e+07
1.96322e+07
1.95876e+07
1.95422e+07
1.94961e+07
1.94491e+07
1.94015e+07
1.9353e+07
1.93039e+07
1.9254e+07
1.92034e+07
1.91522e+07
1.91002e+07
1.90476e+07
1.89943e+07
1.89404e+07
1.88859e+07
1.88307e+07
1.87748e+07
1.87184e+07
1.86613e+07
1.86037e+07
1.85454e+07
1.84865e+07
1.84271e+07
1.8367e+07
1.83064e+07
1.82452e+07
1.81835e+07
1.81211e+07
1.80582e+07
1.79947e+07
1.79306e+07
1.7866e+07
1.78008e+07
1.77351e+07
1.76687e+07
1.76018e+07
1.75344e+07
1.74664e+07
1.73978e+07
1.73286e+07
1.72589e+07
1.71885e+07
1.71177e+07
1.70462e+07
1.69742e+07
1.69015e+07
1.68283e+07
1.67545e+07
1.66801e+07
1.66052e+07
1.65296e+07
1.64534e+07
1.63767e+07
1.62993e+07
1.62213e+07
1.61427e+07
1.60635e+07
1.59836e+07
1.59032e+07
1.58221e+07
1.57404e+07
1.56581e+07
1.55752e+07
1.54916e+07
1.54075e+07
1.53227e+07
1.52373e+07
1.51513e+07
1.50648e+07
1.49778e+07
1.48903e+07
1.48023e+07
1.47141e+07
1.46257e+07
1.45373e+07
2.08248e+07
2.08248e+07
2.08248e+07
2.08248e+07
2.08247e+07
2.08247e+07
2.08246e+07
2.08245e+07
2.08245e+07
2.08244e+07
2.08242e+07
2.08241e+07
2.0824e+07
2.08238e+07
2.08236e+07
2.08234e+07
2.08231e+07
2.08229e+07
2.08226e+07
2.08223e+07
2.08219e+07
2.08215e+07
2.08211e+07
2.08206e+07
2.08201e+07
2.08195e+07
2.08189e+07
2.08182e+07
2.08175e+07
2.08167e+07
2.08158e+07
2.08149e+07
2.08138e+07
2.08127e+07
2.08115e+07
2.08102e+07
2.08088e+07
2.08073e+07
2.08056e+07
2.08038e+07
2.08019e+07
2.07999e+07
2.07977e+07
2.07953e+07
2.07927e+07
2.079e+07
2.07871e+07
2.07839e+07
2.07805e+07
2.07769e+07
2.07731e+07
2.07689e+07
2.07645e+07
2.07598e+07
2.07548e+07
2.07494e+07
2.07436e+07
2.07375e+07
2.0731e+07
2.07241e+07
2.07167e+07
2.07088e+07
2.07005e+07
2.06917e+07
2.06823e+07
2.06723e+07
2.06617e+07
2.06505e+07
2.06387e+07
2.06262e+07
2.0613e+07
2.0599e+07
2.05843e+07
2.05689e+07
2.05526e+07
2.05355e+07
2.05175e+07
2.04987e+07
2.0479e+07
2.04584e+07
2.04368e+07
2.04144e+07
2.03909e+07
2.03665e+07
2.03412e+07
2.03148e+07
2.02875e+07
2.02592e+07
2.023e+07
2.01997e+07
2.01685e+07
2.01363e+07
2.01031e+07
2.0069e+07
2.00339e+07
1.99979e+07
1.9961e+07
1.99231e+07
1.98844e+07
1.98448e+07
1.98042e+07
1.97629e+07
1.97206e+07
1.96776e+07
1.96337e+07
1.9589e+07
1.95435e+07
1.94973e+07
1.94503e+07
1.94025e+07
1.9354e+07
1.93048e+07
1.92549e+07
1.92042e+07
1.91529e+07
1.91009e+07
1.90483e+07
1.89949e+07
1.8941e+07
1.88864e+07
1.88311e+07
1.87753e+07
1.87188e+07
1.86617e+07
1.8604e+07
1.85457e+07
1.84868e+07
1.84273e+07
1.83673e+07
1.83066e+07
1.82454e+07
1.81836e+07
1.81213e+07
1.80583e+07
1.79948e+07
1.79308e+07
1.78661e+07
1.78009e+07
1.77351e+07
1.76688e+07
1.76019e+07
1.75344e+07
1.74664e+07
1.73978e+07
1.73286e+07
1.72589e+07
1.71886e+07
1.71177e+07
1.70462e+07
1.69742e+07
1.69016e+07
1.68283e+07
1.67545e+07
1.66802e+07
1.66052e+07
1.65296e+07
1.64534e+07
1.63767e+07
1.62993e+07
1.62213e+07
1.61427e+07
1.60635e+07
1.59836e+07
1.59032e+07
1.58221e+07
1.57404e+07
1.56581e+07
1.55751e+07
1.54916e+07
1.54074e+07
1.53226e+07
1.52372e+07
1.51512e+07
1.50647e+07
1.49776e+07
1.489e+07
1.48019e+07
1.47135e+07
1.46249e+07
1.45359e+07
2.08251e+07
2.08251e+07
2.0825e+07
2.0825e+07
2.0825e+07
2.08249e+07
2.08249e+07
2.08248e+07
2.08247e+07
2.08247e+07
2.08246e+07
2.08244e+07
2.08243e+07
2.08242e+07
2.0824e+07
2.08238e+07
2.08236e+07
2.08234e+07
2.08231e+07
2.08228e+07
2.08225e+07
2.08221e+07
2.08217e+07
2.08213e+07
2.08208e+07
2.08203e+07
2.08197e+07
2.08191e+07
2.08184e+07
2.08176e+07
2.08168e+07
2.08159e+07
2.08149e+07
2.08138e+07
2.08127e+07
2.08114e+07
2.08101e+07
2.08086e+07
2.0807e+07
2.08053e+07
2.08035e+07
2.08015e+07
2.07994e+07
2.07971e+07
2.07946e+07
2.07919e+07
2.07891e+07
2.0786e+07
2.07827e+07
2.07792e+07
2.07754e+07
2.07714e+07
2.07671e+07
2.07625e+07
2.07575e+07
2.07523e+07
2.07466e+07
2.07406e+07
2.07342e+07
2.07274e+07
2.07201e+07
2.07124e+07
2.07041e+07
2.06954e+07
2.06861e+07
2.06762e+07
2.06657e+07
2.06547e+07
2.06429e+07
2.06305e+07
2.06173e+07
2.06035e+07
2.05888e+07
2.05734e+07
2.05571e+07
2.05401e+07
2.05221e+07
2.05033e+07
2.04836e+07
2.04629e+07
2.04414e+07
2.04188e+07
2.03953e+07
2.03709e+07
2.03454e+07
2.0319e+07
2.02916e+07
2.02632e+07
2.02338e+07
2.02035e+07
2.01721e+07
2.01398e+07
2.01065e+07
2.00723e+07
2.0037e+07
2.00009e+07
1.99638e+07
1.99259e+07
1.9887e+07
1.98472e+07
1.98066e+07
1.97651e+07
1.97227e+07
1.96795e+07
1.96355e+07
1.95907e+07
1.95452e+07
1.94988e+07
1.94517e+07
1.94038e+07
1.93553e+07
1.9306e+07
1.92559e+07
1.92052e+07
1.91538e+07
1.91018e+07
1.90491e+07
1.89957e+07
1.89417e+07
1.8887e+07
1.88317e+07
1.87758e+07
1.87193e+07
1.86621e+07
1.86044e+07
1.85461e+07
1.84872e+07
1.84277e+07
1.83676e+07
1.83069e+07
1.82457e+07
1.81838e+07
1.81215e+07
1.80585e+07
1.7995e+07
1.79309e+07
1.78662e+07
1.7801e+07
1.77353e+07
1.76689e+07
1.7602e+07
1.75345e+07
1.74665e+07
1.73979e+07
1.73287e+07
1.72589e+07
1.71886e+07
1.71177e+07
1.70463e+07
1.69742e+07
1.69016e+07
1.68284e+07
1.67546e+07
1.66802e+07
1.66052e+07
1.65296e+07
1.64534e+07
1.63767e+07
1.62993e+07
1.62213e+07
1.61427e+07
1.60635e+07
1.59836e+07
1.59032e+07
1.58221e+07
1.57404e+07
1.56581e+07
1.55751e+07
1.54915e+07
1.54073e+07
1.53225e+07
1.52371e+07
1.51511e+07
1.50645e+07
1.49773e+07
1.48896e+07
1.48015e+07
1.47129e+07
1.46239e+07
1.45344e+07
2.08253e+07
2.08253e+07
2.08253e+07
2.08253e+07
2.08253e+07
2.08252e+07
2.08252e+07
2.08251e+07
2.08251e+07
2.0825e+07
2.08249e+07
2.08248e+07
2.08247e+07
2.08246e+07
2.08245e+07
2.08243e+07
2.08241e+07
2.08239e+07
2.08237e+07
2.08234e+07
2.08231e+07
2.08228e+07
2.08225e+07
2.08221e+07
2.08216e+07
2.08212e+07
2.08206e+07
2.082e+07
2.08194e+07
2.08187e+07
2.08179e+07
2.08171e+07
2.08162e+07
2.08152e+07
2.08141e+07
2.08129e+07
2.08116e+07
2.08102e+07
2.08087e+07
2.08071e+07
2.08053e+07
2.08034e+07
2.08014e+07
2.07992e+07
2.07968e+07
2.07942e+07
2.07915e+07
2.07885e+07
2.07854e+07
2.07819e+07
2.07783e+07
2.07744e+07
2.07702e+07
2.07657e+07
2.07609e+07
2.07557e+07
2.07502e+07
2.07443e+07
2.07381e+07
2.07314e+07
2.07242e+07
2.07166e+07
2.07085e+07
2.06999e+07
2.06907e+07
2.0681e+07
2.06706e+07
2.06596e+07
2.0648e+07
2.06356e+07
2.06226e+07
2.06088e+07
2.05942e+07
2.05788e+07
2.05626e+07
2.05456e+07
2.05276e+07
2.05088e+07
2.04891e+07
2.04684e+07
2.04468e+07
2.04242e+07
2.04007e+07
2.03761e+07
2.03506e+07
2.03241e+07
2.02965e+07
2.0268e+07
2.02385e+07
2.0208e+07
2.01765e+07
2.0144e+07
2.01106e+07
2.00762e+07
2.00408e+07
2.00045e+07
1.99673e+07
1.99291e+07
1.98901e+07
1.98501e+07
1.98093e+07
1.97677e+07
1.97252e+07
1.96819e+07
1.96377e+07
1.95928e+07
1.95471e+07
1.95006e+07
1.94534e+07
1.94054e+07
1.93567e+07
1.93073e+07
1.92572e+07
1.92064e+07
1.9155e+07
1.91028e+07
1.905e+07
1.89966e+07
1.89425e+07
1.88877e+07
1.88324e+07
1.87764e+07
1.87199e+07
1.86627e+07
1.86049e+07
1.85465e+07
1.84876e+07
1.8428e+07
1.83679e+07
1.83072e+07
1.8246e+07
1.81841e+07
1.81217e+07
1.80587e+07
1.79952e+07
1.79311e+07
1.78664e+07
1.78012e+07
1.77354e+07
1.7669e+07
1.76021e+07
1.75346e+07
1.74666e+07
1.73979e+07
1.73288e+07
1.7259e+07
1.71887e+07
1.71178e+07
1.70463e+07
1.69742e+07
1.69016e+07
1.68284e+07
1.67546e+07
1.66802e+07
1.66052e+07
1.65296e+07
1.64534e+07
1.63767e+07
1.62993e+07
1.62213e+07
1.61427e+07
1.60634e+07
1.59836e+07
1.59031e+07
1.58221e+07
1.57404e+07
1.5658e+07
1.55751e+07
1.54915e+07
1.54073e+07
1.53224e+07
1.5237e+07
1.51509e+07
1.50643e+07
1.4977e+07
1.48893e+07
1.4801e+07
1.47122e+07
1.46229e+07
1.4533e+07
2.08256e+07
2.08256e+07
2.08256e+07
2.08256e+07
2.08256e+07
2.08256e+07
2.08255e+07
2.08255e+07
2.08255e+07
2.08254e+07
2.08254e+07
2.08253e+07
2.08252e+07
2.08251e+07
2.0825e+07
2.08249e+07
2.08247e+07
2.08246e+07
2.08244e+07
2.08242e+07
2.08239e+07
2.08236e+07
2.08233e+07
2.0823e+07
2.08226e+07
2.08222e+07
2.08217e+07
2.08212e+07
2.08206e+07
2.082e+07
2.08193e+07
2.08185e+07
2.08176e+07
2.08167e+07
2.08157e+07
2.08146e+07
2.08134e+07
2.08121e+07
2.08107e+07
2.08092e+07
2.08075e+07
2.08057e+07
2.08037e+07
2.08016e+07
2.07994e+07
2.07969e+07
2.07943e+07
2.07914e+07
2.07884e+07
2.07851e+07
2.07816e+07
2.07778e+07
2.07737e+07
2.07694e+07
2.07647e+07
2.07597e+07
2.07544e+07
2.07487e+07
2.07425e+07
2.0736e+07
2.0729e+07
2.07216e+07
2.07136e+07
2.07051e+07
2.06961e+07
2.06865e+07
2.06763e+07
2.06654e+07
2.06539e+07
2.06417e+07
2.06287e+07
2.0615e+07
2.06005e+07
2.05852e+07
2.05691e+07
2.05521e+07
2.05341e+07
2.05153e+07
2.04956e+07
2.04749e+07
2.04532e+07
2.04305e+07
2.04069e+07
2.03823e+07
2.03566e+07
2.033e+07
2.03023e+07
2.02736e+07
2.0244e+07
2.02133e+07
2.01816e+07
2.01489e+07
2.01153e+07
2.00807e+07
2.00452e+07
2.00087e+07
1.99712e+07
1.99329e+07
1.98937e+07
1.98536e+07
1.98126e+07
1.97707e+07
1.97281e+07
1.96846e+07
1.96403e+07
1.95952e+07
1.95494e+07
1.95027e+07
1.94554e+07
1.94073e+07
1.93585e+07
1.93089e+07
1.92587e+07
1.92078e+07
1.91562e+07
1.9104e+07
1.90511e+07
1.89976e+07
1.89434e+07
1.88886e+07
1.88332e+07
1.87772e+07
1.87205e+07
1.86633e+07
1.86055e+07
1.85471e+07
1.84881e+07
1.84285e+07
1.83683e+07
1.83076e+07
1.82463e+07
1.81844e+07
1.8122e+07
1.8059e+07
1.79954e+07
1.79313e+07
1.78666e+07
1.78014e+07
1.77355e+07
1.76692e+07
1.76022e+07
1.75347e+07
1.74667e+07
1.7398e+07
1.73288e+07
1.72591e+07
1.71887e+07
1.71178e+07
1.70463e+07
1.69743e+07
1.69016e+07
1.68284e+07
1.67546e+07
1.66802e+07
1.66052e+07
1.65296e+07
1.64535e+07
1.63767e+07
1.62993e+07
1.62213e+07
1.61427e+07
1.60634e+07
1.59836e+07
1.59031e+07
1.5822e+07
1.57403e+07
1.5658e+07
1.5575e+07
1.54914e+07
1.54072e+07
1.53223e+07
1.52368e+07
1.51507e+07
1.5064e+07
1.49767e+07
1.48889e+07
1.48004e+07
1.47114e+07
1.46218e+07
1.45316e+07
2.08259e+07
2.08259e+07
2.08259e+07
2.08259e+07
2.08259e+07
2.08259e+07
2.08259e+07
2.08259e+07
2.08259e+07
2.08258e+07
2.08258e+07
2.08258e+07
2.08257e+07
2.08257e+07
2.08256e+07
2.08255e+07
2.08254e+07
2.08253e+07
2.08251e+07
2.0825e+07
2.08248e+07
2.08245e+07
2.08243e+07
2.0824e+07
2.08237e+07
2.08233e+07
2.08229e+07
2.08225e+07
2.0822e+07
2.08214e+07
2.08208e+07
2.08201e+07
2.08193e+07
2.08185e+07
2.08175e+07
2.08165e+07
2.08154e+07
2.08142e+07
2.08129e+07
2.08115e+07
2.08099e+07
2.08082e+07
2.08064e+07
2.08044e+07
2.08023e+07
2.08e+07
2.07975e+07
2.07948e+07
2.07919e+07
2.07887e+07
2.07854e+07
2.07817e+07
2.07778e+07
2.07736e+07
2.07692e+07
2.07643e+07
2.07592e+07
2.07536e+07
2.07477e+07
2.07413e+07
2.07345e+07
2.07272e+07
2.07195e+07
2.07112e+07
2.07023e+07
2.06929e+07
2.06828e+07
2.06721e+07
2.06608e+07
2.06487e+07
2.06358e+07
2.06222e+07
2.06078e+07
2.05926e+07
2.05765e+07
2.05595e+07
2.05416e+07
2.05228e+07
2.0503e+07
2.04823e+07
2.04606e+07
2.04378e+07
2.04141e+07
2.03893e+07
2.03636e+07
2.03368e+07
2.03089e+07
2.02801e+07
2.02502e+07
2.02193e+07
2.01875e+07
2.01546e+07
2.01207e+07
2.00859e+07
2.00501e+07
2.00134e+07
1.99758e+07
1.99372e+07
1.98978e+07
1.98575e+07
1.98163e+07
1.97742e+07
1.97314e+07
1.96877e+07
1.96432e+07
1.9598e+07
1.95519e+07
1.95051e+07
1.94576e+07
1.94094e+07
1.93604e+07
1.93108e+07
1.92604e+07
1.92094e+07
1.91577e+07
1.91054e+07
1.90524e+07
1.89987e+07
1.89445e+07
1.88896e+07
1.88341e+07
1.8778e+07
1.87213e+07
1.8664e+07
1.86061e+07
1.85477e+07
1.84886e+07
1.8429e+07
1.83688e+07
1.8308e+07
1.82467e+07
1.81848e+07
1.81223e+07
1.80593e+07
1.79957e+07
1.79315e+07
1.78668e+07
1.78015e+07
1.77357e+07
1.76693e+07
1.76024e+07
1.75349e+07
1.74668e+07
1.73981e+07
1.73289e+07
1.72592e+07
1.71888e+07
1.71179e+07
1.70464e+07
1.69743e+07
1.69017e+07
1.68285e+07
1.67546e+07
1.66802e+07
1.66052e+07
1.65297e+07
1.64535e+07
1.63767e+07
1.62993e+07
1.62213e+07
1.61427e+07
1.60634e+07
1.59836e+07
1.59031e+07
1.5822e+07
1.57403e+07
1.56579e+07
1.5575e+07
1.54913e+07
1.54071e+07
1.53222e+07
1.52367e+07
1.51505e+07
1.50638e+07
1.49764e+07
1.48884e+07
1.47998e+07
1.47107e+07
1.46208e+07
1.45302e+07
2.08263e+07
2.08263e+07
2.08263e+07
2.08263e+07
2.08263e+07
2.08263e+07
2.08263e+07
2.08263e+07
2.08263e+07
2.08263e+07
2.08263e+07
2.08263e+07
2.08263e+07
2.08263e+07
2.08262e+07
2.08262e+07
2.08261e+07
2.0826e+07
2.0826e+07
2.08258e+07
2.08257e+07
2.08255e+07
2.08254e+07
2.08251e+07
2.08249e+07
2.08246e+07
2.08243e+07
2.08239e+07
2.08235e+07
2.0823e+07
2.08224e+07
2.08218e+07
2.08212e+07
2.08204e+07
2.08196e+07
2.08187e+07
2.08177e+07
2.08166e+07
2.08154e+07
2.08141e+07
2.08126e+07
2.08111e+07
2.08094e+07
2.08075e+07
2.08055e+07
2.08034e+07
2.0801e+07
2.07985e+07
2.07957e+07
2.07928e+07
2.07896e+07
2.07861e+07
2.07824e+07
2.07784e+07
2.07741e+07
2.07695e+07
2.07645e+07
2.07592e+07
2.07534e+07
2.07473e+07
2.07407e+07
2.07336e+07
2.07261e+07
2.0718e+07
2.07093e+07
2.07001e+07
2.06902e+07
2.06797e+07
2.06685e+07
2.06566e+07
2.06439e+07
2.06304e+07
2.06161e+07
2.0601e+07
2.05849e+07
2.0568e+07
2.05501e+07
2.05313e+07
2.05115e+07
2.04907e+07
2.04689e+07
2.04461e+07
2.04222e+07
2.03973e+07
2.03714e+07
2.03444e+07
2.03164e+07
2.02874e+07
2.02573e+07
2.02262e+07
2.01941e+07
2.0161e+07
2.01269e+07
2.00918e+07
2.00558e+07
2.00188e+07
1.99809e+07
1.99421e+07
1.99024e+07
1.98618e+07
1.98204e+07
1.97781e+07
1.9735e+07
1.96912e+07
1.96465e+07
1.9601e+07
1.95548e+07
1.95078e+07
1.94601e+07
1.94117e+07
1.93626e+07
1.93128e+07
1.92623e+07
1.92112e+07
1.91593e+07
1.91069e+07
1.90538e+07
1.9e+07
1.89457e+07
1.88907e+07
1.88351e+07
1.87789e+07
1.87222e+07
1.86648e+07
1.86069e+07
1.85483e+07
1.84892e+07
1.84295e+07
1.83693e+07
1.83085e+07
1.82471e+07
1.81852e+07
1.81227e+07
1.80596e+07
1.7996e+07
1.79318e+07
1.78671e+07
1.78018e+07
1.77359e+07
1.76695e+07
1.76025e+07
1.7535e+07
1.74669e+07
1.73983e+07
1.7329e+07
1.72593e+07
1.71889e+07
1.7118e+07
1.70465e+07
1.69744e+07
1.69017e+07
1.68285e+07
1.67547e+07
1.66803e+07
1.66053e+07
1.65297e+07
1.64535e+07
1.63767e+07
1.62993e+07
1.62213e+07
1.61427e+07
1.60634e+07
1.59836e+07
1.59031e+07
1.5822e+07
1.57403e+07
1.56579e+07
1.55749e+07
1.54913e+07
1.5407e+07
1.53221e+07
1.52365e+07
1.51503e+07
1.50635e+07
1.49761e+07
1.4888e+07
1.47993e+07
1.47099e+07
1.46198e+07
1.45289e+07
2.08266e+07
2.08266e+07
2.08266e+07
2.08266e+07
2.08266e+07
2.08266e+07
2.08267e+07
2.08267e+07
2.08267e+07
2.08268e+07
2.08268e+07
2.08268e+07
2.08269e+07
2.08269e+07
2.08269e+07
2.08269e+07
2.08269e+07
2.08269e+07
2.08268e+07
2.08268e+07
2.08267e+07
2.08266e+07
2.08265e+07
2.08264e+07
2.08262e+07
2.0826e+07
2.08257e+07
2.08254e+07
2.08251e+07
2.08247e+07
2.08243e+07
2.08238e+07
2.08232e+07
2.08225e+07
2.08218e+07
2.0821e+07
2.08202e+07
2.08192e+07
2.08181e+07
2.08169e+07
2.08156e+07
2.08142e+07
2.08127e+07
2.0811e+07
2.08091e+07
2.08071e+07
2.08049e+07
2.08026e+07
2.08e+07
2.07972e+07
2.07942e+07
2.0791e+07
2.07875e+07
2.07837e+07
2.07796e+07
2.07752e+07
2.07705e+07
2.07654e+07
2.07599e+07
2.0754e+07
2.07476e+07
2.07408e+07
2.07335e+07
2.07256e+07
2.07172e+07
2.07082e+07
2.06985e+07
2.06882e+07
2.06772e+07
2.06654e+07
2.06529e+07
2.06396e+07
2.06254e+07
2.06103e+07
2.05944e+07
2.05775e+07
2.05597e+07
2.05408e+07
2.0521e+07
2.05002e+07
2.04783e+07
2.04554e+07
2.04314e+07
2.04063e+07
2.03802e+07
2.0353e+07
2.03248e+07
2.02955e+07
2.02652e+07
2.02338e+07
2.02014e+07
2.01681e+07
2.01337e+07
2.00983e+07
2.0062e+07
2.00247e+07
1.99866e+07
1.99475e+07
1.99075e+07
1.98667e+07
1.9825e+07
1.97825e+07
1.97391e+07
1.9695e+07
1.96501e+07
1.96044e+07
1.9558e+07
1.95108e+07
1.94629e+07
1.94143e+07
1.9365e+07
1.9315e+07
1.92644e+07
1.92131e+07
1.91611e+07
1.91085e+07
1.90553e+07
1.90015e+07
1.8947e+07
1.88919e+07
1.88362e+07
1.878e+07
1.87231e+07
1.86657e+07
1.86077e+07