/*--------------------------------*- C++ -*----------------------------------*\
  =========                 |
  \\      /  F ield         | OpenFOAM: The Open Source CFD Toolbox
   \\    /   O peration     | Website:  https://openfoam.org
    \\  /    A nd           | Version:  10
     \\/     M anipulation  |
\*---------------------------------------------------------------------------*/
FoamFile
{
    format      ascii;
    class       volVectorField;
    location    "0.46";
    object      Ub;
}
// * * * * * * * * * * * * * * * * * * * * * * * * * * * * * * * * * * * * * //

dimensions      [0 1 -1 0 0 0 0];

internalField   nonuniform List<vector> 
12225
(
(0.00191164 -0.000394206 0)
(0.00544154 -0.000348806 0)
(0.00831361 -0.00028348 0)
(0.0104815 -0.000217766 0)
(0.0120356 -0.000161713 0)
(0.013113 -0.000118164 0)
(0.0138457 -8.63387e-05 0)
(0.0143416 -6.42623e-05 0)
(0.0146833 -4.997e-05 0)
(0.0149322 -4.19871e-05 0)
(0.0151358 -3.95007e-05 0)
(0.0153331 -4.25006e-05 0)
(0.0155623 -5.21202e-05 0)
(0.0158694 -7.16125e-05 0)
(0.0163269 -0.000109347 0)
(0.0170857 -0.000189796 0)
(0.0185822 -0.000406912 0)
(0.0227367 -0.00128664 0)
(0.00212877 -0.00125462 0)
(0.00605526 -0.00110855 0)
(0.00924362 -0.000899424 0)
(0.0116487 -0.000689826 0)
(0.0133765 -0.000511559 0)
(0.0145814 -0.000373337 0)
(0.0154092 -0.000272411 0)
(0.015978 -0.000202325 0)
(0.0163763 -0.000156725 0)
(0.016669 -0.00013083 0)
(0.0169049 -0.000121949 0)
(0.0171231 -0.00012987 0)
(0.0173602 -0.00015784 0)
(0.0176587 -0.000215356 0)
(0.0180819 -0.000326432 0)
(0.0187466 -0.000557577 0)
(0.0198827 -0.00113319 0)
(0.0215929 -0.00302829 0)
(0.00225485 -0.00224939 0)
(0.006401 -0.0019822 0)
(0.00974195 -0.00160275 0)
(0.0122384 -0.00122486 0)
(0.0140136 -0.000905139 0)
(0.0152378 -0.00065821 0)
(0.0160684 -0.000478321 0)
(0.0166299 -0.000353386 0)
(0.0170144 -0.000271712 0)
(0.0172885 -0.000224523 0)
(0.017501 -0.000206756 0)
(0.0176905 -0.000217611 0)
(0.0178912 -0.000261998 0)
(0.0181404 -0.000354595 0)
(0.0184861 -0.000531143 0)
(0.0189927 -0.000881539 0)
(0.0196955 -0.00165287 0)
(0.0201497 -0.00354201 0)
(0.0023771 -0.00337454 0)
(0.00672938 -0.00296229 0)
(0.0101989 -0.00238294 0)
(0.0127571 -0.00181109 0)
(0.0145499 -0.00133086 0)
(0.0157673 -0.000962134 0)
(0.0165789 -0.000694602 0)
(0.017116 -0.0005091 0)
(0.0174734 -0.00038753 0)
(0.0177187 -0.000316384 0)
(0.0179004 -0.000287698 0)
(0.0180552 -0.000299583 0)
(0.0182142 -0.000357788 0)
(0.0184066 -0.000480123 0)
(0.0186612 -0.000707608 0)
(0.0189932 -0.00113127 0)
(0.0193246 -0.00194783 0)
(0.0191823 -0.0034948 0)
(0.00251366 -0.00464682 0)
(0.0070897 -0.00405834 0)
(0.0106854 -0.00324226 0)
(0.0132896 -0.00244619 0)
(0.01508 -0.00178433 0)
(0.0162712 -0.0012802 0)
(0.0170475 -0.00091655 0)
(0.0175469 -0.000665234 0)
(0.0178671 -0.000500433 0)
(0.0180758 -0.000403036 0)
(0.0182201 -0.000361526 0)
(0.0183345 -0.000372226 0)
(0.0184454 -0.000440542 0)
(0.0185729 -0.00058469 0)
(0.0187278 -0.000844039 0)
(0.0188896 -0.00129396 0)
(0.0189408 -0.00205704 0)
(0.0185322 -0.00322587 0)
(0.00267693 -0.00609301 0)
(0.00751336 -0.00528587 0)
(0.0112415 -0.00418532 0)
(0.0138783 -0.00312815 0)
(0.0156458 -0.00226062 0)
(0.0167906 -0.00160671 0)
(0.0175143 -0.00113869 0)
(0.0179625 -0.000816852 0)
(0.0182349 -0.000606014 0)
(0.0183986 -0.00048042 0)
(0.0184987 -0.00042422 0)
(0.0185664 -0.000431097 0)
(0.0186228 -0.000504711 0)
(0.0186794 -0.000660873 0)
(0.0187324 -0.000931723 0)
(0.0187428 -0.00136897 0)
(0.0185971 -0.00202929 0)
(0.0180747 -0.00288399 0)
(0.00288044 -0.00775138 0)
(0.00803259 -0.00666581 0)
(0.0119042 -0.00521723 0)
(0.0145578 -0.00385316 0)
(0.0162774 -0.0027524 0)
(0.0173516 -0.00193373 0)
(0.0180028 -0.00135369 0)
(0.0183842 -0.000957515 0)
(0.0185969 -0.000698629 0)
(0.0187062 -0.000543413 0)
(0.0187546 -0.000470812 0)
(0.0187692 -0.000470943 0)
(0.0187656 -0.000544321 0)
(0.0187481 -0.000702025 0)
(0.0187033 -0.000965747 0)
(0.0185874 -0.00136315 0)
(0.0183085 -0.00190522 0)
(0.017737 -0.00252172 0)
(0.00314211 -0.00967622 0)
(0.00868803 -0.00822528 0)
(0.0127163 -0.00634217 0)
(0.0153636 -0.0046137 0)
(0.0170024 -0.00324837 0)
(0.0179756 -0.00224995 0)
(0.01853 -0.00155153 0)
(0.0188263 -0.00107872 0)
(0.0189655 -0.000771028 0)
(0.0190103 -0.00058562 0)
(0.018999 -0.000495334 0)
(0.0189543 -0.00048584 0)
(0.0188866 -0.000553358 0)
(0.0187945 -0.000702776 0)
(0.0186603 -0.000944574 0)
(0.0184435 -0.00128659 0)
(0.0180772 -0.00171361 0)
(0.0174861 -0.00215168 0)
(0.00348805 -0.0119458 0)
(0.00953624 -0.00999849 0)
(0.0137327 -0.00756085 0)
(0.0163371 -0.00539568 0)
(0.0178493 -0.00373099 0)
(0.0186821 -0.00253911 0)
(0.0191097 -0.00171857 0)
(0.0192992 -0.0011693 0)
(0.0193496 -0.000814006 0)
(0.0193185 -0.000599197 0)
(0.0192394 -0.00049079 0)
(0.0191296 -0.000469328 0)
(0.0189951 -0.000526026 0)
(0.0188305 -0.000659142 0)
(0.0186175 -0.000869087 0)
(0.0183229 -0.00114977 0)
(0.0179015 -0.001474 0)
(0.0173098 -0.00177708 0)
(0.00395873 -0.0146759 0)
(0.0106607 -0.0120274 0)
(0.0150272 -0.00886587 0)
(0.0175288 -0.00617385 0)
(0.0188491 -0.00417335 0)
(0.0194897 -0.0027782 0)
(0.0197537 -0.00183645 0)
(0.019811 -0.00121486 0)
(0.0197551 -0.000816082 0)
(0.0196362 -0.000574716 0)
(0.019481 -0.000449178 0)
(0.0193013 -0.000414545 0)
(0.0190986 -0.00045689 0)
(0.0188652 -0.000568337 0)
(0.0185843 -0.000741511 0)
(0.0182312 -0.000962149 0)
(0.0177773 -0.00120004 0)
(0.0171993 -0.0014027 0)
(0.00462035 -0.0180448 0)
(0.0121907 -0.0143598 0)
(0.0167034 -0.0102323 0)
(0.0190009 -0.00690417 0)
(0.0200351 -0.00453461 0)
(0.0204155 -0.00293491 0)
(0.0204707 -0.00188083 0)
(0.0203666 -0.00119709 0)
(0.0201853 -0.00076325 0)
(0.0199663 -0.000501128 0)
(0.0197274 -0.000361566 0)
(0.0194737 -0.000314359 0)
(0.0192027 -0.000340905 0)
(0.0189051 -0.000428406 0)
(0.0185665 -0.000564423 0)
(0.0181696 -0.000731284 0)
(0.017698 -0.00090104 0)
(0.0171408 -0.00103372 0)
(0.00551991 -0.0219267 0)
(0.0141886 -0.0168068 0)
(0.0187628 -0.0114969 0)
(0.0207155 -0.00747687 0)
(0.0213592 -0.00474945 0)
(0.021416 -0.0029732 0)
(0.0212265 -0.00183339 0)
(0.0209412 -0.0011082 0)
(0.0206239 -0.00065399 0)
(0.0202994 -0.000380939 0)
(0.0199752 -0.000233475 0)
(0.0196494 -0.000177232 0)
(0.0193152 -0.000190068 0)
(0.0189619 -0.00025605 0)
(0.0185768 -0.000360387 0)
(0.0181475 -0.000485315 0)
(0.0176649 -0.000607516 0)
(0.0171246 -0.000698339 0)
(0.00677347 -0.0269418 0)
(0.0168401 -0.0195327 0)
(0.021295 -0.0126362 0)
(0.0226869 -0.00783069 0)
(0.0227999 -0.00476237 0)
(0.0224565 -0.00285002 0)
(0.0219832 -0.00166134 0)
(0.0214974 -0.000922555 0)
(0.0210353 -0.000467499 0)
(0.0206027 -0.000196795 0)
(0.0201944 -5.01622e-05 0)
(0.0198002 9.95232e-06 0)
(0.0194078 7.57418e-06 0)
(0.019005 -4.01706e-05 0)
(0.0185807 -0.000118242 0)
(0.0181257 -0.000210962 0)
(0.0176348 -0.000300743 0)
(0.0171063 -0.000369406 0)
(0.00902981 -0.0348242 0)
(0.0213092 -0.0228964 0)
(0.0251373 -0.0135568 0)
(0.025437 -0.00780293 0)
(0.0246886 -0.00443268 0)
(0.0237607 -0.00245606 0)
(0.0229016 -0.00127977 0)
(0.022157 -0.000572283 0)
(0.0215164 -0.000148093 0)
(0.0209563 9.89124e-05 0)
(0.0204509 0.000232001 0)
(0.0199784 0.000288453 0)
(0.0195221 0.000292002 0)
(0.0190681 0.000259368 0)
(0.0186049 0.000204247 0)
(0.0181244 0.000138886 0)
(0.0176215 7.42868e-05 0)
(0.0170928 1.82185e-05 0)
(0.0136338 -0.0486718 0)
(0.0295903 -0.0263364 0)
(0.0311608 -0.0133881 0)
(0.0292461 -0.00680195 0)
(0.0270898 -0.00340136 0)
(0.0253261 -0.00157114 0)
(0.0239635 -0.000547879 0)
(0.0229062 3.55654e-05 0)
(0.0220608 0.000371765 0)
(0.0213541 0.000559842 0)
(0.0207384 0.000656597 0)
(0.0201814 0.000694247 0)
(0.0196592 0.000693354 0)
(0.0191543 0.000668167 0)
(0.0186533 0.000629497 0)
(0.0181462 0.000585749 0)
(0.0176244 0.000542418 0)
(0.0170768 0.000499852 0)
(0.024823 -0.0775345 0)
(0.0470448 -0.0257851 0)
(0.0406264 -0.00956872 0)
(0.03418 -0.00359676 0)
(0.0298516 -0.0010726 0)
(0.0270192 0.00011612 0)
(0.0250858 0.00071753 0)
(0.0236859 0.00102558 0)
(0.0226142 0.00118191 0)
(0.0217529 0.00125316 0)
(0.0210276 0.00127506 0)
(0.0203902 0.0012681 0)
(0.0198081 0.00124494 0)
(0.0192589 0.00121415 0)
(0.0187262 0.00118212 0)
(0.018197 0.00115382 0)
(0.0176573 0.00113295 0)
(0.0170842 0.00112143 0)
(0.0594744 0.00241222 0)
(0.0910962 0.00467853 0)
(0.0533785 0.00416039 0)
(0.0390818 0.00362923 0)
(0.0322579 0.00322881 0)
(0.0284003 0.00292802 0)
(0.0259538 0.00269738 0)
(0.0242684 0.0025116 0)
(0.0230259 0.00235889 0)
(0.0220541 0.0022326 0)
(0.0212534 0.0021282 0)
(0.0205625 0.00204241 0)
(0.0199422 0.00197295 0)
(0.019367 0.0019184 0)
(0.0188191 0.00187798 0)
(0.0182863 0.00185118 0)
(0.0177582 0.0018372 0)
(0.0172234 0.00183381 0)
(0.0204819 0.0778559 0)
(0.0405134 0.033522 0)
(0.0374221 0.0179733 0)
(0.0326537 0.0113263 0)
(0.0290385 0.00800045 0)
(0.0265127 0.00612835 0)
(0.0247262 0.00498166 0)
(0.0234136 0.00423553 0)
(0.0224036 0.00372928 0)
(0.0215884 0.00337636 0)
(0.0208993 0.00312663 0)
(0.020292 0.00294921 0)
(0.0197374 0.00282416 0)
(0.019216 0.00273823 0)
(0.0187135 0.00268239 0)
(0.0182178 0.00265028 0)
(0.0177137 0.0026364 0)
(0.0171728 0.00263268 0)
(0.00786945 0.0420111 0)
(0.0188399 0.0293357 0)
(0.0227619 0.0200254 0)
(0.0235627 0.014148 0)
(0.0232668 0.0104754 0)
(0.022669 0.00812774 0)
(0.0220435 0.0065848 0)
(0.0214685 0.00554676 0)
(0.0209534 0.00483747 0)
(0.0204869 0.00434972 0)
(0.0200537 0.00401534 0)
(0.0196405 0.00378897 0)
(0.019237 0.00363902 0)
(0.0188363 0.00354271 0)
(0.0184338 0.00348324 0)
(0.0180247 0.00344811 0)
(0.0175987 0.00342718 0)
(0.0171193 0.00340645 0)
(0.00434381 0.0259227 0)
(0.0114112 0.0215738 0)
(0.0156077 0.0169678 0)
(0.0178199 0.0132195 0)
(0.018909 0.0104291 0)
(0.0194071 0.00841985 0)
(0.0196 0.00699197 0)
(0.0196317 0.0059852 0)
(0.0195718 0.00528288 0)
(0.0194524 0.00480213 0)
(0.0192871 0.00448346 0)
(0.0190809 0.00428267 0)
(0.0188351 0.00416533 0)
(0.0185503 0.0041032 0)
(0.0182268 0.004072 0)
(0.0178623 0.00405002 0)
(0.0174393 0.00401501 0)
(0.0168579 0.00392811 0)
(0.00303127 0.018456 0)
(0.00832252 0.0163306 0)
(0.0120982 0.0136931 0)
(0.0145871 0.0112541 0)
(0.0161785 0.0092538 0)
(0.0171912 0.00770851 0)
(0.0178388 0.00655658 0)
(0.0182523 0.00572244 0)
(0.0185082 0.00513867 0)
(0.0186492 0.00475066 0)
(0.0186975 0.00451493 0)
(0.018663 0.00439572 0)
(0.0185482 0.0043616 0)
(0.0183523 0.00438258 0)
(0.0180714 0.00442775 0)
(0.0176958 0.00446146 0)
(0.0171807 0.00443016 0)
(0.016146 0.0041604 0)
(0.00238101 0.01369 0)
(0.00669289 0.0124864 0)
(0.0100678 0.0108601 0)
(0.0125527 0.00923608 0)
(0.0143362 0.00781929 0)
(0.0156118 0.00667326 0)
(0.0165314 0.00579324 0)
(0.0172009 0.00514923 0)
(0.0176894 0.00470647 0)
(0.0180389 0.0044331 0)
(0.0182716 0.00430167 0)
(0.0183958 0.00428752 0)
(0.0184089 0.00436604 0)
(0.0183005 0.00450954 0)
(0.0180501 0.00468442 0)
(0.0176081 0.00484461 0)
(0.0167787 0.00488943 0)
(0.0110765 0.00358059 0)
(0.00201197 0.0103215 0)
(0.0057326 0.00957661 0)
(0.00880205 0.00851881 0)
(0.0112118 0.00741076 0)
(0.0130607 0.00640502 0)
(0.0144726 0.00556753 0)
(0.0155577 0.00491419 0)
(0.016401 0.00443785 0)
(0.0170627 0.00412378 0)
(0.0175817 0.00395705 0)
(0.0179785 0.0039247 0)
(0.0182577 0.00401481 0)
(0.01841 0.00421288 0)
(0.0184142 0.00449639 0)
(0.0182356 0.00482709 0)
(0.0177951 0.00512746 0)
(0.0164387 0.00499449 0)
(0.00769866 0.00147796 0)
(0.00178092 0.0077876 0)
(0.00511666 0.00730279 0)
(0.00795907 0.00659197 0)
(0.0102825 0.00582418 0)
(0.0121427 0.00510933 0)
(0.0136244 0.00450353 0)
(0.0148113 0.00402817 0)
(0.0157738 0.00368683 0)
(0.0165656 0.00347666 0)
(0.0172236 0.00339468 0)
(0.017768 0.00344059 0)
(0.0182014 0.00361628 0)
(0.0185063 0.00392132 0)
(0.0186436 0.00434208 0)
(0.0185373 0.00483525 0)
(0.0179157 0.00531182 0)
(0.0110736 0.00417582 0)
(0.00236323 8.17628e-07 0)
(0.00162443 0.00580527 0)
(0.00469227 0.00548235 0)
(0.00736185 0.00499828 0)
(0.00960299 0.00446474 0)
(0.0114494 0.00395985 0)
(0.0129631 0.00352778 0)
(0.0142112 0.00318908 0)
(0.0152545 0.00295165 0)
(0.0161428 0.002819 0)
(0.0169131 0.00279596 0)
(0.0175887 0.00289214 0)
(0.018174 0.00312352 0)
(0.0186466 0.00350878 0)
(0.0189498 0.0040482 0)
(0.0190217 0.0046413 0)
(0.0187859 0.00473562 0)
(0.00931145 0.00176688 0)
(2.23878e-05 -2.55927e-20 0)
(0.00151042 0.00421502 0)
(0.0043788 0.00400015 0)
(0.00691037 0.00367265 0)
(0.00907468 0.00330676 0)
(0.0108936 0.00295702 0)
(0.0124155 0.00265639 0)
(0.013697 0.0024221 0)
(0.0147922 0.0022628 0)
(0.0157489 0.00218475 0)
(0.0166063 0.00219668 0)
(0.0173933 0.00231435 0)
(0.0181226 0.00256548 0)
(0.0187713 0.00299444 0)
(0.0192135 0.00365693 0)
(0.0189852 0.0045446 0)
(0.015752 0.00466666 0)
(0.00644673 8.12558e-06 0)
(1.14218e-06 -1.01881e-25 0)
(0.00142024 0.00291928 0)
(0.00412776 0.00278038 0)
(0.00654092 0.00256581 0)
(0.00863044 0.00232389 0)
(0.0104116 0.00209134 0)
(0.0119242 0.00189136 0)
(0.0132176 0.00173702 0)
(0.0143418 0.00163594 0)
(0.0153431 0.00159458 0)
(0.016263 0.00162242 0)
(0.0171379 0.00173666 0)
(0.0179971 0.00196982 0)
(0.018851 0.00238419 0)
(0.0196352 0.00310431 0)
(0.0199036 0.00438275 0)
(0.0124291 0.00469548 0)
(0.00252262 1.25992e-08 0)
(6.03615e-09 -1.7225e-32 0)
(0.00134007 0.001855 0)
(0.00390182 0.00177157 0)
(0.0062011 0.00164114 0)
(0.00821034 0.00149318 0)
(0.00994097 0.00135064 0)
(0.0114274 0.00122849 0)
(0.0127139 0.00113562 0)
(0.013847 0.0010777 0)
(0.0148716 0.00106 0)
(0.0158309 0.00109042 0)
(0.0167675 0.00118345 0)
(0.0177263 0.00136713 0)
(0.0187595 0.00169668 0)
(0.0199407 0.00228085 0)
(0.0213756 0.00327122 0)
(0.011343 0.00221919 0)
(0.000257216 -1.64532e-16 0)
(2.66217e-14 -2.45415e-32 0)
(0.00125023 0.000981985 0)
(0.00364541 0.000939867 0)
(0.00580687 0.000873207 0)
(0.0077092 0.000797306 0)
(0.0093618 0.000724286 0)
(0.0107953 0.000662255 0)
(0.0120503 0.000616245 0)
(0.0131702 0.000589708 0)
(0.0141982 0.000586076 0)
(0.0151774 0.000610511 0)
(0.0161532 0.000672363 0)
(0.0171785 0.00078948 0)
(0.0183193 0.000995109 0)
(0.0196353 0.00133838 0)
(0.0206764 0.00174816 0)
(0.0105489 0.000173472 0)
(4.378e-05 -4.72919e-19 0)
(1.0308e-17 -1.83826e-32 0)
(0.00101866 0.000294718 0)
(0.0029725 0.000282495 0)
(0.00473963 0.000262941 0)
(0.00629872 0.000240636 0)
(0.0076592 0.00021925 0)
(0.00885006 0.000201284 0)
(0.00991041 0.000188345 0)
(0.0108835 0.000181598 0)
(0.0118143 0.00018226 0)
(0.0127494 0.000192144 0)
(0.0137399 0.000214475 0)
(0.0148458 0.000255261 0)
(0.0161352 0.000325266 0)
(0.0176169 0.000437667 0)
(0.0178121 0.000551705 0)
(0.00861852 1.46699e-05 0)
(6.0021e-06 -1.87421e-22 0)
(1.31239e-21 -7.15947e-33 0)
(5.54553e-34 -1.34697e-33 -1.74027e-59)
(1.66819e-33 -1.34535e-33 1.73686e-59)
(2.78888e-33 -1.34259e-33 0)
(3.9156e-33 -1.33869e-33 0)
(5.04725e-33 -1.33362e-33 0)
(6.18271e-33 -1.3274e-33 -1.70832e-59)
(7.32085e-33 -1.32001e-33 0)
(8.46048e-33 -1.31147e-33 0)
(9.60042e-33 -1.30179e-33 0)
(1.07395e-32 -1.29099e-33 0)
(1.18764e-32 -1.2791e-33 1.63917e-59)
(1.30101e-32 -1.26614e-33 0)
(1.41392e-32 -1.25215e-33 0)
(1.52626e-32 -1.23717e-33 0)
(1.63791e-32 -1.22125e-33 0)
(1.74876e-32 -1.20444e-33 1.53605e-59)
(1.85869e-32 -1.18678e-33 0)
(1.9676e-32 -1.16835e-33 0)
(2.07537e-32 -1.1492e-33 0)
(2.18192e-32 -1.12939e-33 0)
(2.28713e-32 -1.10898e-33 0)
(2.39093e-32 -1.08805e-33 0)
(2.49322e-32 -1.06665e-33 0)
(2.59393e-32 -1.04486e-33 1.31983e-59)
(2.69298e-32 -1.02274e-33 -1.29007e-59)
(2.79031e-32 -1.00036e-33 1.26e-59)
(2.88584e-32 -9.77776e-34 1.22968e-59)
(2.97954e-32 -9.55054e-34 0)
(3.07134e-32 -9.32255e-34 0)
(3.1612e-32 -9.09434e-34 -1.1381e-59)
(3.24909e-32 -8.86648e-34 -1.10761e-59)
(3.33497e-32 -8.63949e-34 0)
(3.41883e-32 -8.41384e-34 0)
(3.50063e-32 -8.19e-34 -1.01721e-59)
(3.58036e-32 -7.96839e-34 0)
(3.65803e-32 -7.7494e-34 0)
(3.73361e-32 -7.53338e-34 9.29592e-60)
(3.80711e-32 -7.32066e-34 0)
(3.87853e-32 -7.11153e-34 8.73358e-60)
(3.94789e-32 -6.90625e-34 1.69202e-59)
(4.01519e-32 -6.70504e-34 0)
(4.08045e-32 -6.50811e-34 0)
(4.14369e-32 -6.31562e-34 0)
(4.20493e-32 -6.12772e-34 0)
(4.2642e-32 -5.94453e-34 0)
(4.32152e-32 -5.76613e-34 1.38848e-59)
(4.37692e-32 -5.59261e-34 1.34232e-59)
(4.43043e-32 -5.424e-34 1.29747e-59)
(4.4821e-32 -5.26036e-34 0)
(4.53194e-32 -5.10168e-34 -1.21176e-59)
(4.58e-32 -4.94797e-34 0)
(4.62631e-32 -4.79921e-34 1.13134e-59)
(4.67092e-32 -4.65538e-34 1.09311e-59)
(4.71386e-32 -4.51642e-34 0)
(4.75517e-32 -4.38229e-34 0)
(4.79489e-32 -4.25293e-34 0)
(4.83307e-32 -4.12826e-34 9.53025e-60)
(4.86973e-32 -4.0082e-34 0)
(4.90493e-32 -3.89268e-34 0)
(4.93871e-32 -3.78161e-34 0)
(4.9711e-32 -3.67488e-34 0)
(5.00215e-32 -3.57239e-34 0)
(5.0319e-32 -3.47406e-34 0)
(5.06038e-32 -3.37976e-34 0)
(5.08764e-32 -3.2894e-34 0)
(5.11372e-32 -3.20286e-34 -7.07188e-60)
(5.13865e-32 -3.12003e-34 0)
(5.16247e-32 -3.04081e-34 0)
(5.18523e-32 -2.96509e-34 6.44039e-60)
(5.20696e-32 -2.89275e-34 6.24823e-60)
(5.22769e-32 -2.82368e-34 0)
(5.24746e-32 -2.75777e-34 -5.88979e-60)
(5.26631e-32 -2.69492e-34 5.72287e-60)
(5.28427e-32 -2.63502e-34 0)
(5.30137e-32 -2.57796e-34 -5.41225e-60)
(5.31765e-32 -2.52364e-34 0)
(5.33314e-32 -2.47196e-34 0)
(5.34786e-32 -2.42281e-34 5.00024e-60)
(5.36186e-32 -2.37611e-34 0)
(5.37516e-32 -2.33174e-34 -4.75837e-60)
(5.38778e-32 -2.28962e-34 0)
(5.39976e-32 -2.24965e-34 4.54036e-60)
(5.41112e-32 -2.21176e-34 4.43973e-60)
(5.42189e-32 -2.17584e-34 4.34434e-60)
(5.4321e-32 -2.14182e-34 8.50799e-60)
(5.44177e-32 -2.10961e-34 -8.33688e-60)
(5.45092e-32 -2.07913e-34 0)
(5.45958e-32 -2.05031e-34 0)
(5.46776e-32 -2.02307e-34 0)
(5.4755e-32 -1.99734e-34 -7.74056e-60)
(5.48281e-32 -1.97305e-34 -7.6115e-60)
(5.48971e-32 -1.95012e-34 7.48974e-60)
(5.49622e-32 -1.92851e-34 0)
(5.50236e-32 -1.90813e-34 -7.26668e-60)
(5.50815e-32 -1.88894e-34 -7.16469e-60)
(5.5136e-32 -1.87087e-34 -7.0687e-60)
(5.51873e-32 -1.85387e-34 0)
(5.52357e-32 -1.83788e-34 0)
(5.52811e-32 -1.82285e-34 0)
(5.53238e-32 -1.80873e-34 -6.73861e-60)
(5.5364e-32 -1.79548e-34 0)
(5.54017e-32 -1.78305e-34 0)
(5.5437e-32 -1.77139e-34 6.54023e-60)
(5.54702e-32 -1.76047e-34 0)
(5.55013e-32 -1.75023e-34 0)
(5.55304e-32 -1.74065e-34 6.3769e-60)
(5.55577e-32 -1.73169e-34 0)
(5.55832e-32 -1.72332e-34 0)
(5.56071e-32 -1.71549e-34 -6.24318e-60)
(5.56294e-32 -1.70818e-34 -6.20433e-60)
(5.56503e-32 -1.70136e-34 0)
(5.56698e-32 -1.695e-34 6.13426e-60)
(5.56879e-32 -1.68907e-34 0)
(5.57048e-32 -1.68354e-34 -6.0734e-60)
(5.57206e-32 -1.6784e-34 0)
(5.57353e-32 -1.67361e-34 -6.02063e-60)
(5.5749e-32 -1.66917e-34 -5.99701e-60)
(5.57617e-32 -1.66503e-34 0)
(5.57735e-32 -1.66119e-34 0)
(5.57845e-32 -1.65763e-34 0)
(5.57947e-32 -1.65433e-34 0)
(5.58042e-32 -1.65127e-34 0)
(5.5813e-32 -1.64843e-34 0)
(5.58211e-32 -1.64581e-34 0)
(5.58286e-32 -1.64338e-34 -5.85992e-60)
(5.58356e-32 -1.64114e-34 5.84801e-60)
(5.5842e-32 -1.63906e-34 0)
(5.5848e-32 -1.63715e-34 0)
(5.58535e-32 -1.63538e-34 0)
(5.58585e-32 -1.63375e-34 0)
(5.58632e-32 -1.63225e-34 1.16015e-59)
(5.58675e-32 -1.63087e-34 0)
(5.58715e-32 -1.6296e-34 -1.15733e-59)
(5.58751e-32 -1.62842e-34 1.15608e-59)
(5.58785e-32 -1.62735e-34 0)
(5.58816e-32 -1.62635e-34 0)
(5.58844e-32 -1.62544e-34 0)
(5.5887e-32 -1.6246e-34 -1.15201e-59)
(5.58893e-32 -1.62383e-34 -1.15119e-59)
(5.58915e-32 -1.62311e-34 0)
(5.58934e-32 -1.62245e-34 -1.14973e-59)
(5.58952e-32 -1.62184e-34 -1.14909e-59)
(5.58968e-32 -1.62127e-34 1.14848e-59)
(5.58983e-32 -1.62074e-34 0)
(5.58996e-32 -1.62024e-34 0)
(5.59007e-32 -1.61976e-34 1.14688e-59)
(5.59017e-32 -1.6193e-34 0)
(5.59026e-32 -1.61886e-34 0)
(5.59033e-32 -1.61841e-34 0)
(5.59039e-32 -1.61796e-34 0)
(5.59044e-32 -1.6175e-34 -1.14451e-59)
(5.59047e-32 -1.617e-34 -1.14399e-59)
(5.59048e-32 -1.61646e-34 0)
(5.59047e-32 -1.61585e-34 -1.1428e-59)
(5.59043e-32 -1.61516e-34 0)
(5.59037e-32 -1.61435e-34 0)
(5.59028e-32 -1.61339e-34 -1.14027e-59)
(5.59015e-32 -1.61223e-34 0)
(5.58997e-32 -1.61082e-34 -1.13765e-59)
(5.58973e-32 -1.60909e-34 0)
(5.58942e-32 -1.60693e-34 0)
(5.58901e-32 -1.60424e-34 -1.13093e-59)
(5.58848e-32 -1.60085e-34 0)
(5.5878e-32 -1.59656e-34 -1.12311e-59)
(5.58693e-32 -1.59111e-34 0)
(5.58581e-32 -1.58414e-34 0)
(5.58436e-32 -1.57518e-34 0)
(5.58248e-32 -1.56361e-34 1.08954e-59)
(5.58006e-32 -1.54854e-34 0)
(5.5769e-32 -1.52875e-34 -1.05402e-59)
(5.57278e-32 -1.5025e-34 0)
(5.56734e-32 -1.46722e-34 0)
(5.5601e-32 -1.41897e-34 0)
(5.55035e-32 -1.35146e-34 0)
(5.537e-32 -1.25396e-34 0)
(5.51825e-32 -1.10651e-34 0)
(5.49092e-32 -8.67476e-35 0)
(5.44858e-32 -4.33526e-35 -1.32585e-60)
(5.37495e-32 5.26574e-35 0)
(5.21175e-32 3.53704e-34 0)
(5.56916e-34 -3.72269e-33 4.80948e-59)
(1.67528e-33 -3.71779e-33 -4.79918e-59)
(2.80071e-33 -3.70946e-33 0)
(3.93212e-33 -3.69767e-33 9.53967e-59)
(5.06842e-33 -3.68238e-33 0)
(6.20847e-33 -3.66358e-33 -4.72774e-59)
(7.3511e-33 -3.64128e-33 -9.37777e-59)
(8.49511e-33 -3.6155e-33 -9.30573e-59)
(9.63929e-33 -3.58629e-33 0)
(1.07824e-32 -3.55369e-33 -9.13516e-59)
(1.19233e-32 -3.5178e-33 4.53257e-59)
(1.30606e-32 -3.47869e-33 0)
(1.41932e-32 -3.43649e-33 0)
(1.53199e-32 -3.39131e-33 0)
(1.64395e-32 -3.34329e-33 0)
(1.75508e-32 -3.29259e-33 4.23486e-59)
(1.86526e-32 -3.23938e-33 0)
(1.9744e-32 -3.18382e-33 8.13673e-59)
(2.08237e-32 -3.12609e-33 0)
(2.18909e-32 -3.0664e-33 0)
(2.29445e-32 -3.00493e-33 -7.65922e-59)
(2.39837e-32 -2.94189e-33 0)
(2.50076e-32 -2.87746e-33 7.31998e-59)
(2.60153e-32 -2.81187e-33 3.60354e-59)
(2.70063e-32 -2.74529e-33 -3.51633e-59)
(2.79797e-32 -2.67794e-33 3.42813e-59)
(2.89351e-32 -2.61e-33 3.33919e-59)
(2.98718e-32 -2.54166e-33 0)
(3.07894e-32 -2.4731e-33 0)
(3.16874e-32 -2.40449e-33 -3.07032e-59)
(3.25655e-32 -2.336e-33 -8.86539e-59)
(3.34234e-32 -2.26778e-33 0)
(3.42608e-32 -2.19998e-33 0)
(3.50776e-32 -2.13273e-33 -2.71508e-59)
(3.58736e-32 -2.06617e-33 0)
(3.66488e-32 -2.0004e-33 0)
(3.74031e-32 -1.93554e-33 2.45747e-59)
(3.81364e-32 -1.87168e-33 0)
(3.8849e-32 -1.8089e-33 6.78454e-59)
(3.95409e-32 -1.74729e-33 4.42328e-59)
(4.02121e-32 -1.68691e-33 0)
(4.08629e-32 -1.62782e-33 0)
(4.14935e-32 -1.57007e-33 -7.7252e-59)
(4.21041e-32 -1.5137e-33 -7.42802e-59)
(4.26949e-32 -1.45875e-33 -7.13836e-59)
(4.32663e-32 -1.40525e-33 1.03867e-58)
(4.38184e-32 -1.35321e-33 3.39451e-59)
(4.43518e-32 -1.30265e-33 -3.05312e-59)
(4.48666e-32 -1.25358e-33 6.05714e-59)
(4.53632e-32 -1.206e-33 -3.01035e-59)
(4.58421e-32 -1.15992e-33 0)
(4.63035e-32 -1.11533e-33 2.77373e-59)
(4.67479e-32 -1.07221e-33 7.76293e-59)
(4.71757e-32 -1.03056e-33 0)
(4.75872e-32 -9.90353e-34 0)
(4.79828e-32 -9.51581e-34 0)
(4.83631e-32 -9.14216e-34 2.24901e-59)
(4.87283e-32 -8.78237e-34 0)
(4.90788e-32 -8.43618e-34 3.89791e-59)
(4.94152e-32 -8.10331e-34 0)
(4.97378e-32 -7.78348e-34 3.55425e-59)
(5.0047e-32 -7.47638e-34 0)
(5.03432e-32 -7.18172e-34 -3.23743e-59)
(5.06268e-32 -6.89917e-34 0)
(5.08983e-32 -6.62841e-34 2.94613e-59)
(5.1158e-32 -6.36912e-34 -4.33523e-59)
(5.14062e-32 -6.12097e-34 0)
(5.16435e-32 -5.88362e-34 -2.55405e-59)
(5.187e-32 -5.65674e-34 1.33977e-59)
(5.20864e-32 -5.44e-34 1.28323e-59)
(5.22928e-32 -5.23306e-34 0)
(5.24897e-32 -5.03561e-34 -3.2854e-59)
(5.26773e-32 -4.84732e-34 1.12864e-59)
(5.28561e-32 -4.66786e-34 0)
(5.30264e-32 -4.49692e-34 -1.03724e-59)
(5.31885e-32 -4.33419e-34 -1.73843e-59)
(5.33426e-32 -4.17936e-34 0)
(5.34893e-32 -4.03213e-34 9.15996e-60)
(5.36286e-32 -3.8922e-34 0)
(5.3761e-32 -3.75928e-34 5.9097e-60)
(5.38867e-32 -3.6331e-34 0)
(5.40059e-32 -3.51338e-34 -5.25673e-60)
(5.41191e-32 -3.39985e-34 7.5107e-60)
(5.42263e-32 -3.29226e-34 1.91296e-59)
(5.43279e-32 -3.19033e-34 3.66545e-59)
(5.44242e-32 -3.09384e-34 -3.51351e-59)
(5.45153e-32 -3.00255e-34 0)
(5.46015e-32 -2.91621e-34 0)
(5.4683e-32 -2.8346e-34 0)
(5.476e-32 -2.75752e-34 6.49893e-60)
(5.48328e-32 -2.68474e-34 -1.12907e-59)
(5.49014e-32 -2.61607e-34 1.09324e-59)
(5.49663e-32 -2.55132e-34 0)
(5.50274e-32 -2.49028e-34 -2.56317e-59)
(5.5085e-32 -2.43278e-34 -9.97614e-60)
(5.51393e-32 -2.37865e-34 -9.69373e-60)
(5.51904e-32 -2.32772e-34 0)
(5.52385e-32 -2.27982e-34 0)
(5.52838e-32 -2.2348e-34 0)
(5.53263e-32 -2.19252e-34 -8.72261e-60)
(5.53663e-32 -2.15282e-34 0)
(5.54038e-32 -2.11558e-34 -1.14102e-59)
(5.5439e-32 -2.08065e-34 -2.90344e-60)
(5.54721e-32 -2.04792e-34 1.06977e-59)
(5.5503e-32 -2.01727e-34 0)
(5.5532e-32 -1.98857e-34 1.77313e-59)
(5.55592e-32 -1.96173e-34 0)
(5.55846e-32 -1.93663e-34 9.52578e-60)
(5.56084e-32 -1.91318e-34 -1.6544e-59)
(5.56306e-32 -1.89129e-34 -1.61991e-59)
(5.56514e-32 -1.87085e-34 0)
(5.56708e-32 -1.85179e-34 -1.68746e-60)
(5.56888e-32 -1.83403e-34 8.44522e-60)
(5.57057e-32 -1.81748e-34 -6.7658e-60)
(5.57214e-32 -1.80207e-34 0)
(5.57361e-32 -1.78774e-34 -6.61061e-60)
(5.57497e-32 -1.77442e-34 1.2762e-60)
(5.57623e-32 -1.76203e-34 0)
(5.57741e-32 -1.75054e-34 7.56581e-60)
(5.57851e-32 -1.73986e-34 7.45339e-60)
(5.57952e-32 -1.72997e-34 7.34916e-60)
(5.58046e-32 -1.7208e-34 0)
(5.58134e-32 -1.7123e-34 0)
(5.58215e-32 -1.70444e-34 0)
(5.5829e-32 -1.69717e-34 -1.31416e-59)
(5.58359e-32 -1.69044e-34 6.10291e-60)
(5.58423e-32 -1.68423e-34 0)
(5.58482e-32 -1.6785e-34 -6.80696e-60)
(5.58537e-32 -1.67321e-34 -6.7512e-60)
(5.58588e-32 -1.66833e-34 0)
(5.58634e-32 -1.66383e-34 1.1928e-59)
(5.58677e-32 -1.65969e-34 -1.32175e-59)
(5.58717e-32 -1.65587e-34 -1.18449e-59)
(5.58753e-32 -1.65236e-34 2.48715e-59)
(5.58786e-32 -1.64913e-34 0)
(5.58817e-32 -1.64616e-34 0)
(5.58845e-32 -1.64342e-34 0)
(5.58871e-32 -1.6409e-34 -1.16887e-59)
(5.58894e-32 -1.63858e-34 -2.44374e-59)
(5.58916e-32 -1.63644e-34 -1.27278e-59)
(5.58935e-32 -1.63446e-34 -1.16215e-59)
(5.58953e-32 -1.63263e-34 -2.42501e-59)
(5.58969e-32 -1.63093e-34 1.15847e-59)
(5.58983e-32 -1.62934e-34 0)
(5.58996e-32 -1.62784e-34 0)
(5.59008e-32 -1.62641e-34 2.40545e-59)
(5.59018e-32 -1.62504e-34 0)
(5.59027e-32 -1.6237e-34 0)
(5.59034e-32 -1.62238e-34 -1.24325e-59)
(5.5904e-32 -1.62103e-34 0)
(5.59044e-32 -1.61963e-34 -2.38425e-59)
(5.59047e-32 -1.61814e-34 -1.14517e-59)
(5.59048e-32 -1.61652e-34 0)
(5.59047e-32 -1.61471e-34 -2.36897e-59)
(5.59044e-32 -1.61264e-34 0)
(5.59038e-32 -1.61023e-34 0)
(5.59029e-32 -1.60736e-34 -1.13404e-59)
(5.59016e-32 -1.60391e-34 -1.20512e-59)
(5.58999e-32 -1.5997e-34 -1.12614e-59)
(5.58975e-32 -1.59451e-34 0)
(5.58944e-32 -1.58808e-34 0)
(5.58904e-32 -1.58003e-34 -2.26208e-59)
(5.58852e-32 -1.56991e-34 0)
(5.58786e-32 -1.55712e-34 -2.19155e-59)
(5.58699e-32 -1.54085e-34 0)
(5.58589e-32 -1.52006e-34 0)
(5.58446e-32 -1.49335e-34 0)
(5.58262e-32 -1.45882e-34 9.8118e-60)
(5.58023e-32 -1.41389e-34 0)
(5.57713e-32 -1.35492e-34 -8.74266e-60)
(5.57308e-32 -1.27674e-34 0)
(5.56774e-32 -1.17175e-34 0)
(5.56065e-32 -1.02837e-34 -2.60879e-61)
(5.55113e-32 -8.28144e-35 -3.84371e-60)
(5.53815e-32 -5.3983e-35 0)
(5.52004e-32 -1.06166e-35 0)
(5.49402e-32 5.89698e-35 0)
(5.45492e-32 1.8243e-34 6.86344e-59)
(5.39278e-32 4.39965e-34 0)
(5.29475e-32 1.13373e-33 -5.08901e-58)
(5.6169e-34 -6.11367e-33 3.16002e-58)
(1.68961e-33 -6.10539e-33 -4.02186e-62)
(2.82458e-33 -6.09134e-33 0)
(3.9655e-33 -6.07143e-33 9.39489e-62)
(5.11119e-33 -6.04562e-33 0)
(6.26049e-33 -6.01389e-33 0)
(7.41218e-33 -5.97626e-33 -3.08089e-58)
(8.56501e-33 -5.93276e-33 -1.52953e-58)
(9.71774e-33 -5.88346e-33 1.51395e-58)
(1.08691e-32 -5.82848e-33 -1.50149e-58)
(1.20178e-32 -5.76794e-33 0)
(1.31626e-32 -5.702e-33 0)
(1.43023e-32 -5.63086e-33 -1.44541e-58)
(1.54356e-32 -5.55473e-33 -2.84985e-58)
(1.65612e-32 -5.47385e-33 2.80644e-58)
(1.76781e-32 -5.38848e-33 0)
(1.8785e-32 -5.29891e-33 2.71285e-58)
(1.98809e-32 -5.20542e-33 1.33618e-58)
(2.09646e-32 -5.10834e-33 0)
(2.20353e-32 -5.00798e-33 2.55784e-58)
(2.30918e-32 -4.90469e-33 -1.25693e-58)
(2.41333e-32 -4.79879e-33 -2.44672e-58)
(2.51591e-32 -4.69062e-33 1.20062e-58)
(2.61682e-32 -4.58054e-33 0)
(2.716e-32 -4.46886e-33 2.27186e-58)
(2.81338e-32 -4.35593e-33 2.2121e-58)
(2.9089e-32 -4.24206e-33 0)
(3.00252e-32 -4.12757e-33 2.09136e-58)
(3.09419e-32 -4.01276e-33 0)
(3.18386e-32 -3.89792e-33 1.97007e-58)
(3.27151e-32 -3.78332e-33 -9.62516e-59)
(3.3571e-32 -3.66922e-33 0)
(3.44062e-32 -3.55587e-33 0)
(3.52205e-32 -3.44348e-33 0)
(3.60138e-32 -3.33227e-33 0)
(3.6786e-32 -3.22244e-33 0)
(3.75372e-32 -3.11415e-33 0)
(3.82673e-32 -3.00756e-33 1.50066e-58)
(3.89765e-32 -2.90281e-33 -7.13547e-59)
(3.96649e-32 -2.80004e-33 0)
(4.03326e-32 -2.69935e-33 0)
(4.09798e-32 -2.60083e-33 0)
(4.16067e-32 -2.50457e-33 -2.49143e-58)
(4.22136e-32 -2.41064e-33 -1.2064e-58)
(4.28007e-32 -2.31908e-33 -2.02124e-60)
(4.33684e-32 -2.22995e-33 2.04802e-60)
(4.39169e-32 -2.14328e-33 -1.04584e-58)
(4.44466e-32 -2.05909e-33 -1.02255e-58)
(4.49578e-32 -1.9774e-33 1.93843e-58)
(4.54509e-32 -1.8982e-33 9.16958e-59)
(4.59263e-32 -1.82149e-33 0)
(4.63843e-32 -1.74728e-33 8.37611e-59)
(4.68253e-32 -1.67553e-33 1.6219e-58)
(4.72498e-32 -1.60622e-33 0)
(4.76581e-32 -1.53934e-33 0)
(4.80506e-32 -1.47484e-33 -6.94404e-59)
(4.84278e-32 -1.41269e-33 0)
(4.879e-32 -1.35284e-33 0)
(4.91378e-32 -1.29527e-33 1.82329e-58)
(4.94714e-32 -1.23991e-33 1.14187e-58)
(4.97913e-32 -1.18672e-33 5.665e-59)
(5.00979e-32 -1.13566e-33 0)
(5.03916e-32 -1.08667e-33 -5.14204e-59)
(5.06729e-32 -1.03969e-33 0)
(5.0942e-32 -9.94674e-34 1.35027e-58)
(5.11995e-32 -9.51567e-34 -4.43596e-59)
(5.14456e-32 -9.10312e-34 -7.95486e-59)
(5.16808e-32 -8.70856e-34 -1.15544e-58)
(5.19054e-32 -8.33141e-34 0)
(5.21199e-32 -7.97113e-34 6.76531e-59)
(5.23245e-32 -7.62717e-34 0)
(5.25196e-32 -7.29897e-34 2.7815e-59)
(5.27057e-32 -6.986e-34 5.73012e-59)
(5.28829e-32 -6.68772e-34 5.41669e-59)
(5.30517e-32 -6.40361e-34 -5.11814e-59)
(5.32123e-32 -6.13314e-34 2.1657e-59)
(5.33651e-32 -5.8758e-34 0)
(5.35105e-32 -5.6311e-34 0)
(5.36486e-32 -5.39854e-34 -4.06202e-59)
(5.37798e-32 -5.17764e-34 -1.66101e-59)
(5.39044e-32 -4.96794e-34 0)
(5.40226e-32 -4.76897e-34 -1.95532e-59)
(5.41347e-32 -4.5803e-34 0)
(5.4241e-32 -4.40148e-34 -1.25103e-59)
(5.43417e-32 -4.2321e-34 6.18582e-59)
(5.44371e-32 -4.07174e-34 -5.8497e-59)
(5.45274e-32 -3.92001e-34 2.50837e-59)
(5.46128e-32 -3.77653e-34 0)
(5.46936e-32 -3.64092e-34 -2.21507e-59)
(5.477e-32 -3.51281e-34 4.67816e-59)
(5.48421e-32 -3.39187e-34 0)
(5.49102e-32 -3.27775e-34 0)
(5.49744e-32 -3.17013e-34 0)