/*--------------------------------*- C++ -*----------------------------------*\
  =========                 |
  \\      /  F ield         | OpenFOAM: The Open Source CFD Toolbox
   \\    /   O peration     | Website:  https://openfoam.org
    \\  /    A nd           | Version:  10
     \\/     M anipulation  |
\*---------------------------------------------------------------------------*/
FoamFile
{
    format      ascii;
    class       volVectorField;
    location    "23500";
    object      Ua;
}
// * * * * * * * * * * * * * * * * * * * * * * * * * * * * * * * * * * * * * //

dimensions      [0 1 -1 0 0 0 0];

internalField   nonuniform List<vector> 
6400
(
(-1.35054e-08 6.0581e-07 0)
(-2.00651e-08 2.39775e-07 0)
(-1.06238e-08 1.15961e-07 0)
(-6.94e-09 7.31743e-08 0)
(-5.05244e-09 5.23591e-08 0)
(-3.91052e-09 4.02483e-08 0)
(-3.16193e-09 3.24317e-08 0)
(-2.66851e-09 2.70225e-08 0)
(-2.30978e-09 2.30788e-08 0)
(-2.00811e-09 2.00991e-08 0)
(-1.78773e-09 1.77762e-08 0)
(-1.6116e-09 1.59162e-08 0)
(-1.45251e-09 1.44052e-08 0)
(-1.31528e-09 1.31589e-08 0)
(-1.19488e-09 1.2114e-08 0)
(-1.09239e-09 1.12283e-08 0)
(-1.00333e-09 1.04672e-08 0)
(-9.14136e-10 9.80826e-09 0)
(-8.32556e-10 9.23675e-09 0)
(-7.69996e-10 8.73667e-09 0)
(-7.16473e-10 8.29705e-09 0)
(-6.61491e-10 7.90764e-09 0)
(-6.09555e-10 7.56345e-09 0)
(-5.68964e-10 7.25963e-09 0)
(-5.35827e-10 6.98582e-09 0)
(-5.0288e-10 6.73921e-09 0)
(-4.64353e-10 6.51942e-09 0)
(-4.24831e-10 6.32369e-09 0)
(-3.93025e-10 6.15018e-09 0)
(-3.68667e-10 5.9921e-09 0)
(-3.45942e-10 5.8481e-09 0)
(-3.17661e-10 5.71862e-09 0)
(-2.90886e-10 5.60986e-09 0)
(-2.68083e-10 5.56525e-09 0)
(-2.40573e-10 5.52474e-09 0)
(-2.07776e-10 5.48921e-09 0)
(-1.69446e-10 5.45922e-09 0)
(-1.25801e-10 5.43657e-09 0)
(-7.75766e-11 5.42194e-09 0)
(-2.62226e-11 5.40955e-09 0)
(2.62226e-11 5.40955e-09 0)
(7.75766e-11 5.42194e-09 0)
(1.25801e-10 5.43657e-09 0)
(1.69446e-10 5.45922e-09 0)
(2.07776e-10 5.48921e-09 0)
(2.40573e-10 5.52474e-09 0)
(2.68083e-10 5.56525e-09 0)
(2.90886e-10 5.60986e-09 0)
(3.17661e-10 5.71862e-09 0)
(3.45942e-10 5.8481e-09 0)
(3.68667e-10 5.9921e-09 0)
(3.93025e-10 6.15018e-09 0)
(4.24831e-10 6.32369e-09 0)
(4.64353e-10 6.51942e-09 0)
(5.0288e-10 6.73921e-09 0)
(5.35827e-10 6.98582e-09 0)
(5.68964e-10 7.25963e-09 0)
(6.09555e-10 7.56345e-09 0)
(6.61491e-10 7.90764e-09 0)
(7.16473e-10 8.29705e-09 0)
(7.69996e-10 8.73667e-09 0)
(8.32556e-10 9.23675e-09 0)
(9.14136e-10 9.80826e-09 0)
(1.00333e-09 1.04672e-08 0)
(1.09239e-09 1.12283e-08 0)
(1.19488e-09 1.2114e-08 0)
(1.31528e-09 1.31589e-08 0)
(1.45251e-09 1.44052e-08 0)
(1.6116e-09 1.59162e-08 0)
(1.78773e-09 1.77762e-08 0)
(2.00811e-09 2.00991e-08 0)
(2.30978e-09 2.30788e-08 0)
(2.66851e-09 2.70225e-08 0)
(3.16193e-09 3.24317e-08 0)
(3.91052e-09 4.02483e-08 0)
(5.05244e-09 5.23591e-08 0)
(6.94e-09 7.31743e-08 0)
(1.06238e-08 1.15961e-07 0)
(2.00651e-08 2.39775e-07 0)
(1.35054e-08 6.0581e-07 0)
(-3.54121e-07 1.80491e-05 0)
(-3.9851e-07 1.6484e-06 0)
(-5.9203e-08 4.4664e-07 0)
(-2.3306e-08 1.6999e-07 0)
(-1.43614e-08 1.03436e-07 0)
(-1.03336e-08 7.43902e-08 0)
(-8.03797e-09 5.79495e-08 0)
(-6.63281e-09 4.73977e-08 0)
(-5.66233e-09 3.99504e-08 0)
(-4.87044e-09 3.4517e-08 0)
(-4.3087e-09 3.03759e-08 0)
(-3.86779e-09 2.70804e-08 0)
(-3.47254e-09 2.44386e-08 0)
(-3.13579e-09 2.22724e-08 0)
(-2.84205e-09 2.04677e-08 0)
(-2.59378e-09 1.89472e-08 0)
(-2.38022e-09 1.76409e-08 0)
(-2.16542e-09 1.65069e-08 0)
(-1.96905e-09 1.55405e-08 0)
(-1.82051e-09 1.46944e-08 0)
(-1.69395e-09 1.39469e-08 0)
(-1.56277e-09 1.3282e-08 0)
(-1.43851e-09 1.27029e-08 0)
(-1.3425e-09 1.21924e-08 0)
(-1.26474e-09 1.17308e-08 0)
(-1.18745e-09 1.13125e-08 0)
(-1.09595e-09 1.09377e-08 0)
(-1.00165e-09 1.06098e-08 0)
(-9.26548e-10 1.03215e-08 0)
(-8.69761e-10 1.0058e-08 0)
(-8.17209e-10 9.81612e-09 0)
(-7.51814e-10 9.59724e-09 0)
(-6.89751e-10 9.41298e-09 0)
(-6.36726e-10 9.33726e-09 0)
(-5.72494e-10 9.26881e-09 0)
(-4.95508e-10 9.2093e-09 0)
(-4.04987e-10 9.15981e-09 0)
(-3.01283e-10 9.12306e-09 0)
(-1.86083e-10 9.09952e-09 0)
(-6.29554e-11 9.0795e-09 0)
(6.29554e-11 9.0795e-09 0)
(1.86083e-10 9.09952e-09 0)
(3.01283e-10 9.12306e-09 0)
(4.04987e-10 9.15981e-09 0)
(4.95508e-10 9.2093e-09 0)
(5.72494e-10 9.26881e-09 0)
(6.36726e-10 9.33726e-09 0)
(6.89751e-10 9.41298e-09 0)
(7.51814e-10 9.59724e-09 0)
(8.17209e-10 9.81612e-09 0)
(8.69761e-10 1.0058e-08 0)
(9.26548e-10 1.03215e-08 0)
(1.00165e-09 1.06098e-08 0)
(1.09595e-09 1.09377e-08 0)
(1.18745e-09 1.13125e-08 0)
(1.26474e-09 1.17308e-08 0)
(1.3425e-09 1.21924e-08 0)
(1.43851e-09 1.27029e-08 0)
(1.56277e-09 1.3282e-08 0)
(1.69395e-09 1.39469e-08 0)
(1.82051e-09 1.46944e-08 0)
(1.96905e-09 1.55405e-08 0)
(2.16542e-09 1.65069e-08 0)
(2.38022e-09 1.76409e-08 0)
(2.59378e-09 1.89472e-08 0)
(2.84205e-09 2.04677e-08 0)
(3.13579e-09 2.22724e-08 0)
(3.47254e-09 2.44386e-08 0)
(3.86779e-09 2.70804e-08 0)
(4.3087e-09 3.03759e-08 0)
(4.87044e-09 3.4517e-08 0)
(5.66233e-09 3.99504e-08 0)
(6.63281e-09 4.73977e-08 0)
(8.03797e-09 5.79495e-08 0)
(1.03336e-08 7.43902e-08 0)
(1.43614e-08 1.03436e-07 0)
(2.3306e-08 1.6999e-07 0)
(5.9203e-08 4.4664e-07 0)
(3.9851e-07 1.6484e-06 0)
(3.54121e-07 1.80491e-05 0)
(1.05106e-05 3.2915e-05 0)
(1.03394e-05 5.66903e-06 0)
(-7.22415e-07 8.85249e-06 0)
(-6.0224e-07 2.28975e-06 0)
(-6.78553e-08 4.74716e-07 0)
(-2.67883e-08 2.09592e-07 0)
(-1.71777e-08 1.35141e-07 0)
(-1.30357e-08 1.02237e-07 0)
(-1.06626e-08 8.2605e-08 0)
(-8.90617e-09 6.96715e-08 0)
(-7.75131e-09 6.04081e-08 0)
(-6.88693e-09 5.32772e-08 0)
(-6.12962e-09 4.77382e-08 0)
(-5.50411e-09 4.32804e-08 0)
(-4.9657e-09 3.96238e-08 0)
(-4.51811e-09 3.65813e-08 0)
(-4.1417e-09 3.39822e-08 0)
(-3.75784e-09 3.17273e-08 0)
(-3.4065e-09 2.98442e-08 0)
(-3.14909e-09 2.81966e-08 0)
(-2.93161e-09 2.67373e-08 0)
(-2.70074e-09 2.5435e-08 0)
(-2.4805e-09 2.43185e-08 0)
(-2.3148e-09 2.33357e-08 0)
(-2.18282e-09 2.24454e-08 0)
(-2.05153e-09 2.16353e-08 0)
(-1.89144e-09 2.09061e-08 0)
(-1.72466e-09 2.02791e-08 0)
(-1.59493e-09 1.97323e-08 0)
(-1.49952e-09 1.92315e-08 0)
(-1.41254e-09 1.87704e-08 0)
(-1.30419e-09 1.83531e-08 0)
(-1.2008e-09 1.80032e-08 0)
(-1.1118e-09 1.78614e-08 0)
(-1.00311e-09 1.77353e-08 0)
(-8.71507e-10 1.76283e-08 0)
(-7.15039e-10 1.75425e-08 0)
(-5.33857e-10 1.74815e-08 0)
(-3.30696e-10 1.74437e-08 0)
(-1.1207e-10 1.74099e-08 0)
(1.1207e-10 1.74099e-08 0)
(3.30696e-10 1.74437e-08 0)
(5.33857e-10 1.74815e-08 0)
(7.15039e-10 1.75425e-08 0)
(8.71507e-10 1.76283e-08 0)
(1.00311e-09 1.77353e-08 0)
(1.1118e-09 1.78614e-08 0)
(1.2008e-09 1.80032e-08 0)
(1.30419e-09 1.83531e-08 0)
(1.41254e-09 1.87704e-08 0)
(1.49952e-09 1.92315e-08 0)
(1.59493e-09 1.97323e-08 0)
(1.72466e-09 2.02791e-08 0)
(1.89144e-09 2.09061e-08 0)
(2.05153e-09 2.16353e-08 0)
(2.18282e-09 2.24454e-08 0)
(2.3148e-09 2.33357e-08 0)
(2.4805e-09 2.43185e-08 0)
(2.70074e-09 2.5435e-08 0)
(2.93161e-09 2.67373e-08 0)
(3.14909e-09 2.81966e-08 0)
(3.4065e-09 2.98442e-08 0)
(3.75784e-09 3.17273e-08 0)
(4.1417e-09 3.39822e-08 0)
(4.51811e-09 3.65813e-08 0)
(4.9657e-09 3.96238e-08 0)
(5.50411e-09 4.32804e-08 0)
(6.12962e-09 4.77382e-08 0)
(6.88693e-09 5.32772e-08 0)
(7.75131e-09 6.04081e-08 0)
(8.90617e-09 6.96715e-08 0)
(1.06626e-08 8.2605e-08 0)
(1.30357e-08 1.02237e-07 0)
(1.71777e-08 1.35141e-07 0)
(2.67883e-08 2.09592e-07 0)
(6.78553e-08 4.74716e-07 0)
(6.0224e-07 2.28975e-06 0)
(7.22415e-07 8.85249e-06 0)
(-1.03394e-05 5.66903e-06 0)
(-1.05106e-05 3.2915e-05 0)
(7.68229e-06 2.82843e-05 0)
(9.79917e-06 9.77387e-06 0)
(7.88358e-06 1.59487e-05 0)
(6.77566e-06 5.5888e-06 0)
(-5.77721e-07 5.97235e-06 0)
(-1.66452e-06 5.80998e-06 0)
(-1.00227e-07 5.55095e-07 0)
(-3.5067e-08 2.8311e-07 0)
(-2.15712e-08 1.70788e-07 0)
(-1.59005e-08 1.28858e-07 0)
(-1.30338e-08 1.05754e-07 0)
(-1.12058e-08 9.02814e-08 0)
(-9.7414e-09 7.9326e-08 0)
(-8.6234e-09 7.09887e-08 0)
(-7.69798e-09 6.44251e-08 0)
(-6.95693e-09 5.91287e-08 0)
(-6.36206e-09 5.46828e-08 0)
(-5.74248e-09 5.08483e-08 0)
(-5.17503e-09 4.77466e-08 0)
(-4.78338e-09 4.50403e-08 0)
(-4.45772e-09 4.26429e-08 0)
(-4.09652e-09 4.04961e-08 0)
(-3.74758e-09 3.86989e-08 0)
(-3.49751e-09 3.71192e-08 0)
(-3.30397e-09 3.56856e-08 0)
(-3.11128e-09 3.43758e-08 0)
(-2.86308e-09 3.31879e-08 0)
(-2.59945e-09 3.21917e-08 0)
(-2.40289e-09 3.13319e-08 0)
(-2.26525e-09 3.05417e-08 0)
(-2.14281e-09 2.98114e-08 0)
(-1.98988e-09 2.9151e-08 0)
(-1.8425e-09 2.86004e-08 0)
(-1.71402e-09 2.83809e-08 0)
(-1.55492e-09 2.81895e-08 0)
(-1.35891e-09 2.8032e-08 0)
(-1.12163e-09 2.79116e-08 0)
(-8.42219e-10 2.78313e-08 0)
(-5.24251e-10 2.77841e-08 0)
(-1.78185e-10 2.77384e-08 0)
(1.78185e-10 2.77384e-08 0)
(5.24251e-10 2.77841e-08 0)
(8.42219e-10 2.78313e-08 0)
(1.12163e-09 2.79116e-08 0)
(1.35891e-09 2.8032e-08 0)
(1.55492e-09 2.81895e-08 0)
(1.71402e-09 2.83809e-08 0)
(1.8425e-09 2.86004e-08 0)
(1.98988e-09 2.9151e-08 0)
(2.14281e-09 2.98114e-08 0)
(2.26525e-09 3.05417e-08 0)
(2.40289e-09 3.13319e-08 0)
(2.59945e-09 3.21917e-08 0)
(2.86308e-09 3.31879e-08 0)
(3.11128e-09 3.43758e-08 0)
(3.30397e-09 3.56856e-08 0)
(3.49751e-09 3.71192e-08 0)
(3.74758e-09 3.86989e-08 0)
(4.09652e-09 4.04961e-08 0)
(4.45772e-09 4.26429e-08 0)
(4.78338e-09 4.50403e-08 0)
(5.17503e-09 4.77466e-08 0)
(5.74248e-09 5.08483e-08 0)
(6.36206e-09 5.46828e-08 0)
(6.95693e-09 5.91287e-08 0)
(7.69798e-09 6.44251e-08 0)
(8.6234e-09 7.09887e-08 0)
(9.7414e-09 7.9326e-08 0)
(1.12058e-08 9.02814e-08 0)
(1.30338e-08 1.05754e-07 0)
(1.59005e-08 1.28858e-07 0)
(2.15712e-08 1.70788e-07 0)
(3.5067e-08 2.8311e-07 0)
(1.00227e-07 5.55095e-07 0)
(1.66452e-06 5.80998e-06 0)
(5.77721e-07 5.97235e-06 0)
(-6.77566e-06 5.5888e-06 0)
(-7.88358e-06 1.59487e-05 0)
(-9.79917e-06 9.77387e-06 0)
(-7.68229e-06 2.82843e-05 0)
(5.57931e-06 2.45824e-05 0)
(8.21686e-06 1.2132e-05 0)
(7.2647e-06 1.43845e-05 0)
(6.41617e-06 7.69984e-06 0)
(4.28849e-06 1.09408e-05 0)
(6.31345e-06 1.09226e-05 0)
(2.70986e-07 3.09156e-06 0)
(-3.75013e-06 1.16756e-05 0)
(-2.4902e-07 7.96073e-07 0)
(-5.89529e-08 3.61881e-07 0)
(-2.85198e-08 2.31076e-07 0)
(-2.01212e-08 1.61877e-07 0)
(-1.58733e-08 1.30663e-07 0)
(-1.3348e-08 1.11658e-07 0)
(-1.15292e-08 9.85805e-08 0)
(-1.02097e-08 8.89376e-08 0)
(-9.25393e-09 8.12975e-08 0)
(-8.25415e-09 7.48965e-08 0)
(-7.349e-09 7.00128e-08 0)
(-6.78546e-09 6.58046e-08 0)
(-6.33158e-09 6.21134e-08 0)
(-5.79221e-09 5.88052e-08 0)
(-5.26194e-09 5.61407e-08 0)
(-4.91193e-09 5.3804e-08 0)
(-4.65301e-09 5.16823e-08 0)
(-4.39615e-09 4.97378e-08 0)
(-4.03276e-09 4.79539e-08 0)
(-3.63477e-09 4.65122e-08 0)
(-3.35796e-09 4.52842e-08 0)
(-3.17915e-09 4.41485e-08 0)
(-3.02611e-09 4.30951e-08 0)
(-2.83385e-09 4.21441e-08 0)
(-2.64565e-09 4.13571e-08 0)
(-2.47835e-09 4.10495e-08 0)
(-2.26647e-09 4.07872e-08 0)
(-1.99804e-09 4.05791e-08 0)
(-1.66369e-09 4.04299e-08 0)
(-1.26007e-09 4.03399e-08 0)
(-7.90505e-10 4.02905e-08 0)
(-2.70012e-10 4.02356e-08 0)
(2.70012e-10 4.02356e-08 0)
(7.90505e-10 4.02905e-08 0)
(1.26007e-09 4.03399e-08 0)
(1.66369e-09 4.04299e-08 0)
(1.99804e-09 4.05791e-08 0)
(2.26647e-09 4.07872e-08 0)
(2.47835e-09 4.10495e-08 0)
(2.64565e-09 4.13571e-08 0)
(2.83385e-09 4.21441e-08 0)
(3.02611e-09 4.30951e-08 0)
(3.17915e-09 4.41485e-08 0)
(3.35796e-09 4.52842e-08 0)
(3.63477e-09 4.65122e-08 0)
(4.03276e-09 4.79539e-08 0)
(4.39615e-09 4.97378e-08 0)
(4.65301e-09 5.16823e-08 0)
(4.91193e-09 5.3804e-08 0)
(5.26194e-09 5.61407e-08 0)
(5.79221e-09 5.88052e-08 0)
(6.33158e-09 6.21134e-08 0)
(6.78546e-09 6.58046e-08 0)
(7.349e-09 7.00128e-08 0)
(8.25415e-09 7.48965e-08 0)
(9.25393e-09 8.12975e-08 0)
(1.02097e-08 8.89376e-08 0)
(1.15292e-08 9.85805e-08 0)
(1.3348e-08 1.11658e-07 0)
(1.58733e-08 1.30663e-07 0)
(2.01212e-08 1.61877e-07 0)
(2.85198e-08 2.31076e-07 0)
(5.89529e-08 3.61881e-07 0)
(2.4902e-07 7.96073e-07 0)
(3.75013e-06 1.16756e-05 0)
(-2.70986e-07 3.09156e-06 0)
(-6.31345e-06 1.09226e-05 0)
(-4.28849e-06 1.09408e-05 0)
(-6.41617e-06 7.69984e-06 0)
(-7.2647e-06 1.43845e-05 0)
(-8.21686e-06 1.2132e-05 0)
(-5.57931e-06 2.45824e-05 0)
(4.04587e-06 2.16356e-05 0)
(6.80705e-06 1.3412e-05 0)
(6.57649e-06 1.3459e-05 0)
(5.94314e-06 9.07928e-06 0)
(4.59709e-06 1.06216e-05 0)
(5.46963e-06 1.03645e-05 0)
(2.12475e-06 6.51039e-06 0)
(6.83975e-06 2.01496e-05 0)
(1.01286e-05 3.06977e-06 0)
(-1.66298e-06 3.03989e-06 0)
(-4.22554e-06 1.22301e-05 0)
(-1.87515e-07 5.97787e-07 0)
(-5.55474e-08 3.25333e-07 0)
(-2.84292e-08 2.28929e-07 0)
(-1.96877e-08 1.6628e-07 0)
(-1.58222e-08 1.37888e-07 0)
(-1.37111e-08 1.204e-07 0)
(-1.17958e-08 1.07655e-07 0)
(-1.01841e-08 9.91034e-08 0)
(-9.33579e-09 9.21278e-08 0)
(-8.69996e-09 8.62851e-08 0)
(-7.8816e-09 8.1129e-08 0)
(-7.06558e-09 7.72523e-08 0)
(-6.59495e-09 7.38789e-08 0)
(-6.27006e-09 7.0838e-08 0)
(-5.95514e-09 6.80607e-08 0)
(-5.43454e-09 6.5467e-08 0)
(-4.83826e-09 6.34925e-08 0)
(-4.46697e-09 6.18378e-08 0)
(-4.25671e-09 6.02909e-08 0)
(-4.08746e-09 5.8852e-08 0)
(-3.87217e-09 5.75575e-08 0)
(-3.65613e-09 5.64978e-08 0)
(-3.45882e-09 5.60932e-08 0)
(-3.19968e-09 5.5756e-08 0)
(-2.8557e-09 5.54993e-08 0)
(-2.40734e-09 5.53307e-08 0)
(-1.8467e-09 5.52462e-08 0)
(-1.17338e-09 5.52025e-08 0)
(-4.04258e-10 5.51379e-08 0)
(4.04258e-10 5.51379e-08 0)
(1.17338e-09 5.52025e-08 0)
(1.8467e-09 5.52462e-08 0)
(2.40734e-09 5.53307e-08 0)
(2.8557e-09 5.54993e-08 0)
(3.19968e-09 5.5756e-08 0)
(3.45882e-09 5.60932e-08 0)
(3.65613e-09 5.64978e-08 0)
(3.87217e-09 5.75575e-08 0)
(4.08746e-09 5.8852e-08 0)
(4.25671e-09 6.02909e-08 0)
(4.46697e-09 6.18378e-08 0)
(4.83826e-09 6.34925e-08 0)
(5.43454e-09 6.5467e-08 0)
(5.95514e-09 6.80607e-08 0)
(6.27006e-09 7.0838e-08 0)
(6.59495e-09 7.38789e-08 0)
(7.06558e-09 7.72523e-08 0)
(7.8816e-09 8.1129e-08 0)
(8.69996e-09 8.62851e-08 0)
(9.33579e-09 9.21278e-08 0)
(1.01841e-08 9.91034e-08 0)
(1.17958e-08 1.07655e-07 0)
(1.37111e-08 1.204e-07 0)
(1.58222e-08 1.37888e-07 0)
(1.96877e-08 1.6628e-07 0)
(2.84292e-08 2.28929e-07 0)
(5.55474e-08 3.25333e-07 0)
(1.87515e-07 5.97787e-07 0)
(4.22554e-06 1.22301e-05 0)
(1.66298e-06 3.03989e-06 0)
(-1.01286e-05 3.06977e-06 0)
(-6.83975e-06 2.01496e-05 0)
(-2.12475e-06 6.51039e-06 0)
(-5.46963e-06 1.03645e-05 0)
(-4.59709e-06 1.06216e-05 0)
(-5.94314e-06 9.07928e-06 0)
(-6.57649e-06 1.3459e-05 0)
(-6.80705e-06 1.3412e-05 0)
(-4.04587e-06 2.16356e-05 0)
(2.94582e-06 1.92876e-05 0)
(5.5873e-06 1.39342e-05 0)
(5.86562e-06 1.29127e-05 0)
(5.5021e-06 9.95865e-06 0)
(4.6934e-06 1.04628e-05 0)
(5.00442e-06 1.01318e-05 0)
(3.33995e-06 8.41154e-06 0)
(6.33562e-06 1.56668e-05 0)
(8.12937e-06 5.85646e-06 0)
(2.06406e-06 6.59405e-06 0)
(8.3572e-06 2.08338e-05 0)
(1.24633e-05 2.82879e-06 0)
(1.71388e-07 3.02332e-06 0)
(-3.65497e-06 9.86078e-06 0)
(-2.48655e-07 6.63782e-07 0)
(-6.88695e-08 3.43485e-07 0)
(-3.36844e-08 2.4261e-07 0)
(-2.09912e-08 1.82908e-07 0)
(-1.54689e-08 1.50624e-07 0)
(-1.34156e-08 1.3233e-07 0)
(-1.21809e-08 1.1995e-07 0)
(-1.07137e-08 1.10234e-07 0)
(-9.3087e-09 1.0388e-07 0)
(-8.65281e-09 9.85916e-08 0)
(-8.24322e-09 9.40273e-08 0)
(-7.88579e-09 8.99915e-08 0)
(-7.12987e-09 8.61509e-08 0)
(-6.21271e-09 8.35107e-08 0)
(-5.73328e-09 8.13468e-08 0)
(-5.5169e-09 7.92913e-08 0)
(-5.36016e-09 7.73835e-08 0)
(-5.15456e-09 7.56808e-08 0)
(-4.93961e-09 7.43124e-08 0)
(-4.73704e-09 7.38044e-08 0)
(-4.45343e-09 7.33902e-08 0)
(-4.04348e-09 7.30861e-08 0)
(-3.46574e-09 7.29083e-08 0)
(-2.70858e-09 7.28546e-08 0)
(-1.75893e-09 7.28174e-08 0)
(-6.15768e-10 7.27237e-08 0)
(6.15768e-10 7.27237e-08 0)
(1.75893e-09 7.28174e-08 0)
(2.70858e-09 7.28546e-08 0)
(3.46574e-09 7.29083e-08 0)
(4.04348e-09 7.30861e-08 0)
(4.45343e-09 7.33902e-08 0)
(4.73704e-09 7.38044e-08 0)
(4.93961e-09 7.43124e-08 0)
(5.15456e-09 7.56808e-08 0)
(5.36016e-09 7.73835e-08 0)
(5.5169e-09 7.92913e-08 0)
(5.73328e-09 8.13468e-08 0)
(6.21271e-09 8.35107e-08 0)
(7.12987e-09 8.61509e-08 0)
(7.88579e-09 8.99915e-08 0)
(8.24322e-09 9.40273e-08 0)
(8.65281e-09 9.85916e-08 0)
(9.3087e-09 1.0388e-07 0)
(1.07137e-08 1.10234e-07 0)
(1.21809e-08 1.1995e-07 0)
(1.34156e-08 1.3233e-07 0)
(1.54689e-08 1.50624e-07 0)
(2.09912e-08 1.82908e-07 0)
(3.36844e-08 2.4261e-07 0)
(6.88695e-08 3.43485e-07 0)
(2.48655e-07 6.63782e-07 0)
(3.65497e-06 9.86078e-06 0)
(-1.71388e-07 3.02332e-06 0)
(-1.24633e-05 2.82879e-06 0)
(-8.3572e-06 2.08338e-05 0)
(-2.06406e-06 6.59405e-06 0)
(-8.12937e-06 5.85646e-06 0)
(-6.33562e-06 1.56668e-05 0)
(-3.33995e-06 8.41154e-06 0)
(-5.00442e-06 1.01318e-05 0)
(-4.6934e-06 1.04628e-05 0)
(-5.5021e-06 9.95865e-06 0)
(-5.86562e-06 1.29127e-05 0)
(-5.5873e-06 1.39342e-05 0)
(-2.94582e-06 1.92876e-05 0)
(2.16605e-06 1.74042e-05 0)
(4.55977e-06 1.39536e-05 0)
(5.17021e-06 1.25579e-05 0)
(5.07682e-06 1.04784e-05 0)
(4.65199e-06 1.03942e-05 0)
(4.75357e-06 1.00508e-05 0)
(4.06085e-06 9.35044e-06 0)
(5.94051e-06 1.29381e-05 0)
(6.96218e-06 7.55378e-06 0)
(4.03127e-06 8.18103e-06 0)
(7.80225e-06 1.55558e-05 0)
(1.02421e-05 5.70647e-06 0)
(5.53492e-06 6.35395e-06 0)
(1.06281e-05 1.66289e-05 0)
(1.41488e-05 2.51844e-06 0)
(6.81677e-06 1.95873e-06 0)
(8.47386e-07 5.22038e-06 0)
(-7.9627e-07 1.86436e-06 0)
(-1.24799e-07 4.33091e-07 0)
(-4.9811e-08 2.74142e-07 0)
(-2.78004e-08 2.10523e-07 0)
(-1.80335e-08 1.73923e-07 0)
(-1.33211e-08 1.49322e-07 0)
(-1.18167e-08 1.35125e-07 0)
(-1.10126e-08 1.2537e-07 0)
(-1.05291e-08 1.18018e-07 0)
(-9.30903e-09 1.11347e-07 0)
(-7.77443e-09 1.07503e-07 0)
(-7.16692e-09 1.0451e-07 0)
(-6.9912e-09 1.01678e-07 0)
(-6.89189e-09 9.91229e-08 0)
(-6.74896e-09 9.68984e-08 0)
(-6.58708e-09 9.51778e-08 0)
(-6.43471e-09 9.45639e-08 0)
(-6.18822e-09 9.40714e-08 0)
(-5.7541e-09 9.37088e-08 0)
(-5.03486e-09 9.3516e-08 0)
(-4.04226e-09 9.35608e-08 0)
(-2.73315e-09 9.35018e-08 0)
(-9.87814e-10 9.32719e-08 0)
(9.87814e-10 9.32719e-08 0)
(2.73315e-09 9.35018e-08 0)
(4.04226e-09 9.35608e-08 0)
(5.03486e-09 9.3516e-08 0)
(5.7541e-09 9.37088e-08 0)
(6.18822e-09 9.40714e-08 0)
(6.43471e-09 9.45639e-08 0)
(6.58708e-09 9.51778e-08 0)
(6.74896e-09 9.68984e-08 0)
(6.89189e-09 9.91229e-08 0)
(6.9912e-09 1.01678e-07 0)
(7.16692e-09 1.0451e-07 0)
(7.77443e-09 1.07503e-07 0)
(9.30903e-09 1.11347e-07 0)
(1.05291e-08 1.18018e-07 0)
(1.10126e-08 1.2537e-07 0)
(1.18167e-08 1.35125e-07 0)
(1.33211e-08 1.49322e-07 0)
(1.80335e-08 1.73923e-07 0)
(2.78004e-08 2.10523e-07 0)
(4.9811e-08 2.74142e-07 0)
(1.24799e-07 4.33091e-07 0)
(7.9627e-07 1.86436e-06 0)
(-8.47386e-07 5.22038e-06 0)
(-6.81677e-06 1.95873e-06 0)
(-1.41488e-05 2.51844e-06 0)
(-1.06281e-05 1.66289e-05 0)
(-5.53492e-06 6.35395e-06 0)
(-1.02421e-05 5.70647e-06 0)
(-7.80225e-06 1.55558e-05 0)
(-4.03127e-06 8.18103e-06 0)
(-6.96218e-06 7.55378e-06 0)
(-5.94051e-06 1.29381e-05 0)
(-4.06085e-06 9.35044e-06 0)
(-4.75357e-06 1.00508e-05 0)
(-4.65199e-06 1.03942e-05 0)
(-5.07682e-06 1.04784e-05 0)
(-5.17021e-06 1.25579e-05 0)
(-4.55977e-06 1.39536e-05 0)
(-2.16605e-06 1.74042e-05 0)
(1.61701e-06 1.58749e-05 0)
(3.71448e-06 1.36606e-05 0)
(4.51865e-06 1.22715e-05 0)
(4.66272e-06 1.07397e-05 0)
(4.52342e-06 1.03571e-05 0)
(4.60393e-06 1.00142e-05 0)
(4.44518e-06 9.72354e-06 0)
(5.64269e-06 1.13255e-05 0)
(6.3064e-06 8.48721e-06 0)
(5.13019e-06 8.8861e-06 0)
(7.40385e-06 1.24189e-05 0)
(8.93424e-06 7.24471e-06 0)
(6.98335e-06 7.47357e-06 0)
(9.97183e-06 1.22598e-05 0)
(1.20208e-05 4.64848e-06 0)
(8.86314e-06 4.01926e-06 0)
(1.03682e-05 8.84005e-06 0)
(1.28246e-05 3.70394e-06 0)
(1.10514e-05 1.22166e-06 0)
(8.22629e-06 1.05257e-06 0)
(2.57706e-06 2.68722e-06 0)
(-8.56564e-07 1.85462e-06 0)
(-1.32798e-07 3.41474e-07 0)
(-5.29123e-08 2.34889e-07 0)
(-2.92644e-08 1.90028e-07 0)
(-1.9747e-08 1.64714e-07 0)
(-1.39239e-08 1.4922e-07 0)
(-1.00441e-08 1.42974e-07 0)
(-9.02908e-09 1.3552e-07 0)
(-8.86137e-09 1.2978e-07 0)
(-8.81661e-09 1.25429e-07 0)
(-8.776e-09 1.22072e-07 0)
(-8.73167e-09 1.19768e-07 0)
(-8.73673e-09 1.18997e-07 0)
(-8.67665e-09 1.18394e-07 0)
(-8.34787e-09 1.17891e-07 0)
(-7.4511e-09 1.17543e-07 0)
(-6.20966e-09 1.17992e-07 0)
(-4.55956e-09 1.17786e-07 0)
(-1.76087e-09 1.1691e-07 0)
(1.76087e-09 1.1691e-07 0)
(4.55956e-09 1.17786e-07 0)
(6.20966e-09 1.17992e-07 0)
(7.4511e-09 1.17543e-07 0)
(8.34787e-09 1.17891e-07 0)
(8.67665e-09 1.18394e-07 0)
(8.73673e-09 1.18997e-07 0)
(8.73167e-09 1.19768e-07 0)
(8.776e-09 1.22072e-07 0)
(8.81661e-09 1.25429e-07 0)
(8.86137e-09 1.2978e-07 0)
(9.02908e-09 1.3552e-07 0)
(1.00441e-08 1.42974e-07 0)
(1.39239e-08 1.4922e-07 0)
(1.9747e-08 1.64714e-07 0)
(2.92644e-08 1.90028e-07 0)
(5.29123e-08 2.34889e-07 0)
(1.32798e-07 3.41474e-07 0)
(8.56564e-07 1.85462e-06 0)
(-2.57706e-06 2.68722e-06 0)
(-8.22629e-06 1.05257e-06 0)
(-1.10514e-05 1.22166e-06 0)
(-1.28246e-05 3.70394e-06 0)
(-1.03682e-05 8.84005e-06 0)
(-8.86314e-06 4.01926e-06 0)
(-1.20208e-05 4.64848e-06 0)
(-9.97183e-06 1.22598e-05 0)
(-6.98335e-06 7.47357e-06 0)
(-8.93424e-06 7.24471e-06 0)
(-7.40385e-06 1.24189e-05 0)
(-5.13019e-06 8.8861e-06 0)
(-6.3064e-06 8.48721e-06 0)
(-5.64269e-06 1.13255e-05 0)
(-4.44518e-06 9.72354e-06 0)
(-4.60393e-06 1.00142e-05 0)
(-4.52342e-06 1.03571e-05 0)
(-4.66272e-06 1.07397e-05 0)
(-4.51865e-06 1.22715e-05 0)
(-3.71448e-06 1.36606e-05 0)
(-1.61701e-06 1.58749e-05 0)
(1.23081e-06 1.46117e-05 0)
(3.03313e-06 1.31892e-05 0)
(3.92945e-06 1.19819e-05 0)
(4.26238e-06 1.08124e-05 0)
(4.34062e-06 1.03072e-05 0)
(4.48526e-06 9.96232e-06 0)
(4.60895e-06 9.78527e-06 0)
(5.41748e-06 1.03763e-05 0)
(5.9368e-06 8.91127e-06 0)
(5.67987e-06 9.08281e-06 0)
(7.10815e-06 1.05871e-05 0)
(8.16131e-06 7.93306e-06 0)
(7.63328e-06 7.86244e-06 0)
(9.43058e-06 9.7592e-06 0)
(1.06764e-05 5.69487e-06 0)
(9.35557e-06 4.93414e-06 0)
(1.02074e-05 6.88655e-06 0)
(1.15262e-05 3.99574e-06 0)
(1.05597e-05 2.13617e-06 0)
(9.04737e-06 2.04713e-06 0)
(9.63243e-06 4.48772e-06 0)
(1.15711e-05 3.18892e-06 0)
(1.16931e-05 7.4574e-07 0)
(1.10451e-05 3.71982e-07 0)
(1.09696e-05 2.11256e-07 0)
(1.07706e-05 2.68621e-07 0)
(5.23225e-06 -4.53532e-06 0)
(-5.0107e-08 1.37799e-07 0)
(-3.72024e-08 1.4478e-07 0)
(-2.36558e-08 1.38608e-07 0)
(-1.68624e-08 1.32183e-07 0)
(-1.37395e-08 1.27689e-07 0)
(-1.27539e-08 1.28022e-07 0)
(-1.26195e-08 1.30308e-07 0)
(-1.27697e-08 1.33714e-07 0)
(-1.27845e-08 1.38342e-07 0)
(-1.12893e-08 1.44224e-07 0)
(-9.7996e-09 1.47841e-07 0)
(-8.65843e-09 1.46956e-07 0)
(-3.81444e-09 1.42869e-07 0)
(3.81444e-09 1.42869e-07 0)
(8.65843e-09 1.46956e-07 0)
(9.7996e-09 1.47841e-07 0)
(1.12893e-08 1.44224e-07 0)
(1.27845e-08 1.38342e-07 0)
(1.27697e-08 1.33714e-07 0)
(1.26195e-08 1.30308e-07 0)
(1.27539e-08 1.28022e-07 0)
(1.37395e-08 1.27689e-07 0)
(1.68624e-08 1.32183e-07 0)
(2.36558e-08 1.38608e-07 0)
(3.72024e-08 1.4478e-07 0)
(5.0107e-08 1.37799e-07 0)
(-5.23225e-06 -4.53532e-06 0)
(-1.07706e-05 2.68621e-07 0)
(-1.09696e-05 2.11256e-07 0)
(-1.10451e-05 3.71982e-07 0)
(-1.16931e-05 7.4574e-07 0)
(-1.15711e-05 3.18892e-06 0)
(-9.63243e-06 4.48772e-06 0)
(-9.04737e-06 2.04713e-06 0)
(-1.05597e-05 2.13617e-06 0)
(-1.15262e-05 3.99574e-06 0)
(-1.02074e-05 6.88655e-06 0)
(-9.35557e-06 4.93414e-06 0)
(-1.06764e-05 5.69487e-06 0)
(-9.43058e-06 9.7592e-06 0)
(-7.63328e-06 7.86244e-06 0)
(-8.16131e-06 7.93306e-06 0)
(-7.10815e-06 1.05871e-05 0)
(-5.67987e-06 9.08281e-06 0)
(-5.9368e-06 8.91127e-06 0)
(-5.41748e-06 1.03763e-05 0)
(-4.60895e-06 9.78527e-06 0)
(-4.48526e-06 9.96232e-06 0)
(-4.34062e-06 1.03072e-05 0)
(-4.26238e-06 1.08124e-05 0)
(-3.92945e-06 1.19819e-05 0)
(-3.03313e-06 1.31892e-05 0)
(-1.23081e-06 1.46117e-05 0)
(9.57958e-07 1.35462e-05 0)
(2.49295e-06 1.26267e-05 0)
(3.41202e-06 1.16551e-05 0)
(3.88152e-06 1.07433e-05 0)
(4.12494e-06 1.0215e-05 0)
(4.3599e-06 9.86656e-06 0)
(4.63201e-06 9.68389e-06 0)
(5.23658e-06 9.79045e-06 0)
(5.70889e-06 9.01269e-06 0)
(5.89747e-06 9.00478e-06 0)
(6.86957e-06 9.50025e-06 0)
(7.67507e-06 8.11553e-06 0)
(7.81449e-06 7.85514e-06 0)
(8.963e-06 8.33891e-06 0)
(9.78868e-06 6.11044e-06 0)
(9.39891e-06 5.33503e-06 0)
(9.92435e-06 5.81871e-06 0)
(1.06246e-05 4.08908e-06 0)
(1.0145e-05 2.73981e-06 0)
(9.38326e-06 2.53988e-06 0)
(9.7572e-06 3.53021e-06 0)
(1.08627e-05 2.67485e-06 0)
(1.10916e-05 1.08558e-06 0)
(1.08488e-05 4.59101e-07 0)
(1.10102e-05 7.67586e-08 0)
(1.24006e-05 -2.60625e-07 0)
(9.56775e-06 -7.19025e-06 0)
(6.83719e-06 -5.44561e-07 0)
(8.77836e-06 -2.03751e-07 0)
(9.84478e-06 -7.53688e-08 0)
(9.00471e-06 3.75684e-07 0)
(5.85272e-06 -1.85278e-06 0)
(3.42053e-06 -3.953e-06 0)
(2.53537e-06 -5.94665e-06 0)
(1.80706e-06 -9.09504e-06 0)
(9.66002e-07 -1.56752e-05 0)
(2.39228e-07 -1.23963e-05 0)
(-2.04368e-08 8.76709e-08 0)
(-2.69255e-08 9.70985e-08 0)
(-1.33594e-08 1.02307e-07 0)
(1.33594e-08 1.02307e-07 0)
(2.69255e-08 9.70985e-08 0)
(2.04368e-08 8.76709e-08 0)
(-2.39228e-07 -1.23963e-05 0)
(-9.66002e-07 -1.56752e-05 0)
(-1.80706e-06 -9.09504e-06 0)
(-2.53537e-06 -5.94665e-06 0)
(-3.42053e-06 -3.953e-06 0)
(-5.85272e-06 -1.85278e-06 0)
(-9.00471e-06 3.75684e-07 0)
(-9.84478e-06 -7.53688e-08 0)
(-8.77836e-06 -2.03751e-07 0)
(-6.83719e-06 -5.44561e-07 0)
(-9.56775e-06 -7.19025e-06 0)
(-1.24006e-05 -2.60625e-07 0)
(-1.10102e-05 7.67586e-08 0)
(-1.08488e-05 4.59101e-07 0)
(-1.10916e-05 1.08558e-06 0)
(-1.08627e-05 2.67485e-06 0)
(-9.7572e-06 3.53021e-06 0)
(-9.38326e-06 2.53988e-06 0)
(-1.0145e-05 2.73981e-06 0)
(-1.06246e-05 4.08908e-06 0)
(-9.92435e-06 5.81871e-06 0)
(-9.39891e-06 5.33503e-06 0)
(-9.78868e-06 6.11044e-06 0)
(-8.963e-06 8.33891e-06 0)
(-7.81449e-06 7.85514e-06 0)
(-7.67507e-06 8.11553e-06 0)
(-6.86957e-06 9.50025e-06 0)
(-5.89747e-06 9.00478e-06 0)
(-5.70889e-06 9.01269e-06 0)
(-5.23658e-06 9.79045e-06 0)
(-4.63201e-06 9.68389e-06 0)
(-4.3599e-06 9.86656e-06 0)
(-4.12494e-06 1.0215e-05 0)
(-3.88152e-06 1.07433e-05 0)
(-3.41202e-06 1.16551e-05 0)
(-2.49295e-06 1.26267e-05 0)
(-9.57958e-07 1.35462e-05 0)
(7.63464e-07 1.26266e-05 0)
(2.06988e-06 1.20261e-05 0)
(2.96814e-06 1.12803e-05 0)
(3.52596e-06 1.05642e-05 0)
(3.8907e-06 1.00645e-05 0)
(4.21217e-06 9.71614e-06 0)
(4.56585e-06 9.49625e-06 0)
(5.07455e-06 9.38264e-06 0)
(5.53696e-06 8.91881e-06 0)
(5.92062e-06 8.78653e-06 0)
(6.65372e-06 8.80873e-06 0)
(7.32496e-06 8.01736e-06 0)
(7.73569e-06 7.65114e-06 0)
(8.53895e-06 7.50336e-06 0)
(9.14929e-06 6.18019e-06 0)
(9.19471e-06 5.4394e-06 0)
(9.56577e-06 5.23674e-06 0)
(9.96012e-06 4.09086e-06 0)
(9.76787e-06 3.09166e-06 0)
(9.4393e-06 2.76281e-06 0)
(9.69283e-06 2.97332e-06 0)
(1.03269e-05 2.30927e-06 0)
(1.05615e-05 1.2021e-06 0)
(1.05224e-05 4.88907e-07 0)
(1.06479e-05 -1.06215e-07 0)
(1.10302e-05 -1.00456e-06 0)
(9.47745e-06 -4.12301e-06 0)
(8.07058e-06 -1.42281e-06 0)
(9.02464e-06 -8.55778e-07 0)
(1.03823e-05 -7.32316e-07 0)
(1.32017e-05 -5.06813e-07 0)
(1.63683e-05 -4.47029e-06 0)
(1.79135e-05 -8.53066e-06 0)
(1.83571e-05 -1.20806e-05 0)
(1.74688e-05 -1.71441e-05 0)
(1.19533e-05 -2.5706e-05 0)
(4.48917e-06 -2.23791e-05 0)
(3.26598e-06 -3.05551e-06 0)
(4.32761e-06 -8.27706e-07 0)
(1.86445e-06 -2.53491e-07 0)
(-1.86445e-06 -2.53491e-07 0)
(-4.32761e-06 -8.27706e-07 0)
(-3.26598e-06 -3.05551e-06 0)
(-4.48917e-06 -2.23791e-05 0)
(-1.19533e-05 -2.5706e-05 0)
(-1.74688e-05 -1.71441e-05 0)
(-1.83571e-05 -1.20806e-05 0)
(-1.79135e-05 -8.53066e-06 0)
(-1.63683e-05 -4.47029e-06 0)
(-1.32017e-05 -5.06813e-07 0)
(-1.03823e-05 -7.32316e-07 0)
(-9.02464e-06 -8.55778e-07 0)
(-8.07058e-06 -1.42281e-06 0)
(-9.47745e-06 -4.12301e-06 0)
(-1.10302e-05 -1.00456e-06 0)
(-1.06479e-05 -1.06215e-07 0)
(-1.05224e-05 4.88907e-07 0)
(-1.05615e-05 1.2021e-06 0)
(-1.03269e-05 2.30927e-06 0)
(-9.69283e-06 2.97332e-06 0)
(-9.4393e-06 2.76281e-06 0)
(-9.76787e-06 3.09166e-06 0)
(-9.96012e-06 4.09086e-06 0)
(-9.56577e-06 5.23674e-06 0)
(-9.19471e-06 5.4394e-06 0)
(-9.14929e-06 6.18019e-06 0)
(-8.53895e-06 7.50336e-06 0)
(-7.73569e-06 7.65114e-06 0)
(-7.32496e-06 8.01736e-06 0)
(-6.65372e-06 8.80873e-06 0)
(-5.92062e-06 8.78653e-06 0)
(-5.53696e-06 8.91881e-06 0)
(-5.07455e-06 9.38264e-06 0)
(-4.56585e-06 9.49625e-06 0)
(-4.21217e-06 9.71614e-06 0)
(-3.8907e-06 1.00645e-05 0)
(-3.52596e-06 1.05642e-05 0)
(-2.96814e-06 1.12803e-05 0)
(-2.06988e-06 1.20261e-05 0)
(-7.63464e-07 1.26266e-05 0)
(6.23106e-07 1.18138e-05 0)
(1.74091e-06 1.14163e-05 0)
(2.59393e-06 1.08598e-05 0)
(3.19987e-06 1.02979e-05 0)
(3.6481e-06 9.84975e-06 0)
(4.0395e-06 9.50912e-06 0)
(4.44198e-06 9.25657e-06 0)
(4.91216e-06 9.0468e-06 0)
(5.37443e-06 8.71002e-06 0)
(5.83039e-06 8.49883e-06 0)
(6.43743e-06 8.31053e-06 0)
(7.02716e-06 7.77507e-06 0)
(7.51937e-06 7.35939e-06 0)
(8.13767e-06 6.96285e-06 0)
(8.63492e-06 6.07141e-06 0)
(8.86299e-06 5.38214e-06 0)
(9.16477e-06 4.89959e-06 0)
(9.42544e-06 4.04584e-06 0)
(9.39932e-06 3.26078e-06 0)
(9.30814e-06 2.83447e-06 0)
(9.49631e-06 2.64327e-06 0)
(9.87136e-06 2.052e-06 0)
(1.00707e-05 1.2047e-06 0)
(1.01098e-05 4.8419e-07 0)
(1.01656e-05 -2.06386e-07 0)
(1.01674e-05 -1.12021e-06 0)
(9.33014e-06 -2.61915e-06 0)
(8.64216e-06 -1.71235e-06 0)
(9.16121e-06 -1.42206e-06 0)
(1.02433e-05 -1.59553e-06 0)
(1.20434e-05 -2.33679e-06 0)
(1.37477e-05 -5.46945e-06 0)
(1.42574e-05 -8.94253e-06 0)
(1.37652e-05 -1.1547e-05 0)
(1.2316e-05 -1.45455e-05 0)
(9.50644e-06 -1.74374e-05 0)
(6.25298e-06 -1.77755e-05 0)
(4.36419e-06 -5.632e-06 0)
(3.10809e-06 -1.46344e-06 0)
(1.13752e-06 -3.98651e-07 0)
(-1.13752e-06 -3.98651e-07 0)
(-3.10809e-06 -1.46344e-06 0)
(-4.36419e-06 -5.632e-06 0)
(-6.25298e-06 -1.77755e-05 0)
(-9.50644e-06 -1.74374e-05 0)
(-1.2316e-05 -1.45455e-05 0)
(-1.37652e-05 -1.1547e-05 0)
(-1.42574e-05 -8.94253e-06 0)
(-1.37477e-05 -5.46945e-06 0)
(-1.20434e-05 -2.33679e-06 0)
(-1.02433e-05 -1.59553e-06 0)
(-9.16121e-06 -1.42206e-06 0)
(-8.64216e-06 -1.71235e-06 0)
(-9.33014e-06 -2.61915e-06 0)
(-1.01674e-05 -1.12021e-06 0)
(-1.01656e-05 -2.06386e-07 0)
(-1.01098e-05 4.8419e-07 0)
(-1.00707e-05 1.2047e-06 0)
(-9.87136e-06 2.052e-06 0)
(-9.49631e-06 2.64327e-06 0)
(-9.30814e-06 2.83447e-06 0)
(-9.39932e-06 3.26078e-06 0)
(-9.42544e-06 4.04584e-06 0)
(-9.16477e-06 4.89959e-06 0)
(-8.86299e-06 5.38214e-06 0)
(-8.63492e-06 6.07141e-06 0)
(-8.13767e-06 6.96285e-06 0)
(-7.51937e-06 7.35939e-06 0)
(-7.02716e-06 7.77507e-06 0)
(-6.43743e-06 8.31053e-06 0)
(-5.83039e-06 8.49883e-06 0)
(-5.37443e-06 8.71002e-06 0)
(-4.91216e-06 9.0468e-06 0)
(-4.44198e-06 9.25657e-06 0)