/*--------------------------------*- C++ -*----------------------------------*\
  =========                 |
  \\      /  F ield         | OpenFOAM: The Open Source CFD Toolbox
   \\    /   O peration     | Website:  https://openfoam.org
    \\  /    A nd           | Version:  10
     \\/     M anipulation  |
\*---------------------------------------------------------------------------*/
FoamFile
{
    format      ascii;
    class       volScalarField;
    location    "0.068";
    object      T;
}
// * * * * * * * * * * * * * * * * * * * * * * * * * * * * * * * * * * * * * //

dimensions      [0 0 0 1 0 0 0];

internalField   nonuniform List<scalar> 
12225
(
1.00078
0.99983
1.00012
1.00011
1.00018
1.00045
1.00048
1.00029
1.00024
1.00036
1.00043
1.00035
1.00017
0.999897
0.999567
0.998931
0.997194
0.994427
1.00003
0.999827
1.00006
1.00005
1.00011
1.00041
1.0005
1.00033
1.00023
1.00031
1.00039
1.00033
1.00015
0.999881
0.999512
0.998877
0.997405
0.994904
0.999764
1.00012
1.00024
1.00008
1.0001
1.00037
1.00045
1.00029
1.0002
1.00027
1.00032
1.00026
1.00013
0.999927
0.999615
0.999051
0.997767
0.995704
1.00007
1.00003
1.00016
1.0001
1.00011
1.00032
1.0004
1.00028
1.00022
1.0003
1.00037
1.00032
1.00019
0.999978
0.99963
0.999077
0.998036
0.996497
1.00009
1.00028
1.00054
1.00023
1.00008
1.00033
1.00048
1.00036
1.00024
1.00025
1.00028
1.00022
1.0001
0.999933
0.999673
0.999274
0.998528
0.997397
0.999792
1.00009
1.00049
1.00028
1.00011
1.00027
1.00034
1.00022
1.00017
1.00024
1.00031
1.00028
1.00018
1.00002
0.999792
0.999441
0.998864
0.998018
0.999775
1.00037
1.00097
1.00049
1.00007
1.00026
1.00043
1.00036
1.00027
1.00025
1.00024
1.00017
1.00008
0.999955
0.999781
0.999518
0.999102
0.998478
1.00009
1.00051
1.00094
1.00043
1.00008
1.00025
1.00031
1.00018
1.00011
1.00017
1.00023
1.00022
1.00016
1.00006
0.99992
0.999707
0.999393
0.99893
0.998855
1.00088
1.00126
1.00046
0.999973
1.00016
1.00035
1.00032
1.00025
1.00023
1.0002
1.00013
1.00005
0.999972
0.999875
0.999723
0.9995
0.999159
0.999599
1.00093
1.00109
1.00044
1.00005
1.00017
1.00024
1.0001
1.00002
1.00007
1.00013
1.00014
1.00012
1.00009
1.00003
0.999922
0.999754
0.999515
0.998572
1.0006
1.00111
1.00033
0.999871
1.00008
1.00029
1.00025
1.00019
1.0002
1.00018
1.0001
1.00002
0.999962
0.9999
0.999816
0.999691
0.999528
1.00011
1.00078
1.00092
1.00036
0.999945
1.00006
1.00014
1.00001
0.999937
0.999983
1.00006
1.00009
1.00009
1.00009
1.00007
1.00002
0.999941
0.999819
0.998767
1.00066
1.00065
1.00025
0.999877
1.00001
1.00019
1.00015
1.0001
1.00011
1.0001
1.00004
0.999991
0.999957
0.999935
0.999896
0.999841
0.999754
1.00051
1.00017
0.999747
0.999892
0.999828
0.999884
0.999944
0.999884
0.999844
0.999892
0.999967
1.00002
1.00004
1.00005
1.00004
1.00004
0.999999
0.999977
0.999766
0.999123
0.99988
1.00044
1.00028
1.00009
1.00006
1.00008
1.00009
1.00008
1.00006
1.00004
1
0.999966
0.999935
0.999918
0.999879
0.999853
1.00358
1.00016
0.999478
0.999135
0.999199
0.999423
0.999583
0.999723
0.999825
0.999862
0.999896
0.999958
1.00003
1.00007
1.0001
1.00012
1.00013
1.00013
0.998925
0.998094
0.998226
0.999189
0.999912
1.00019
1.00014
1.00005
1.00001
0.999986
0.999978
0.999984
0.999975
0.999959
0.99995
0.999953
0.999955
0.999963
1.00101
1.00005
0.999707
0.999502
0.99937
0.999427
0.999517
0.999607
0.999723
0.999868
0.999985
1.00004
1.00005
1.00008
1.00012
1.00017
1.0002
1.00022
0.998494
0.999983
1.00047
1.00037
1.00058
1.00076
1.00072
1.00065
1.0006
1.00057
1.00057
1.00057
1.00056
1.00054
1.00052
1.00049
1.00045
1.00041
1.00062
1.00247
1.00239
1.0013
1.00084
1.00062
1.00051
1.00048
1.00044
1.00037
1.00033
1.00029
1.00027
1.00028
1.0003
1.00033
1.00036
1.0004
0.998269
1.00068
1.00172
1.00135
1.00105
1.0009
1.00092
1.00096
1.0009
1.00081
1.00078
1.00078
1.00077
1.00074
1.0007
1.00066
1.00062
1.00058
0.998786
1.00001
1.00127
1.00127
1.00067
1.00056
1.00073
1.00068
1.00053
1.00052
1.00055
1.00053
1.0005
1.00048
1.00048
1.0005
1.00051
1.00052
1.00022
0.999391
1.00003
1.00066
1.00056
1.00055
1.0007
1.00072
1.0007
1.00075
1.0008
1.00075
1.00068
1.00066
1.00066
1.00065
1.00061
1.00058
0.999903
0.9998
1.00049
1.0009
1.00068
1.00055
1.00061
1.00063
1.00057
1.00052
1.0005
1.00048
1.00049
1.00052
1.00054
1.00056
1.00057
1.00058
0.999794
1.00045
1.0005
1.00049
1.00033
1.00028
1.00045
1.00062
1.00068
1.00069
1.00069
1.00067
1.00066
1.00067
1.00065
1.00062
1.00059
1.00057
0.998757
1.00083
1.00083
1.0007
1.00059
1.00055
1.00064
1.00065
1.00058
1.00054
1.00056
1.00058
1.00056
1.00056
1.00057
1.0006
1.00063
1.00065
0.99936
1.00107
1.00082
1.00038
1.0003
1.00037
1.00054
1.00062
1.00059
1.00058
1.00065
1.00072
1.00072
1.00068
1.00063
1.00059
1.00056
1.00055
0.999242
1.00085
1.00085
1.00061
1.0006
1.0006
1.00064
1.00063
1.00055
1.00049
1.00051
1.00055
1.00057
1.00057
1.00058
1.00059
1.0006
1.00061
0.998611
1.00033
1.00053
1.00047
1.00051
1.00054
1.00059
1.0006
1.00056
1.00055
1.00062
1.00068
1.0007
1.00066
1.00061
1.00055
1.00052
1.00052
0.999703
1.00021
1.00065
1.00068
1.00061
1.00057
1.0006
1.0006
1.00054
1.00053
1.0006
1.00068
1.00071
1.00067
1.00061
1.00057
1.00054
1.00058
0.884987
0.885065
0.884836
0.88434
0.884422
0.885084
0.885696
0.886417
0.88696
0.886946
0.886533
0.885987
0.885425
0.884865
0.884296
0.883704
0.883079
0.882419
0.881727
0.881006
0.880268
0.879505
0.878729
0.877937
0.877158
0.876493
0.875963
0.87554
0.875264
0.875197
0.875406
0.87588
0.876221
0.875249
0.872509
0.86892
0.86517
0.862456
0.860021
0.858322
0.856914
0.854339
0.853588
0.852638
0.851015
0.849836
0.84933
0.849569
0.848319
0.846179
0.845245
0.845936
0.850386
0.854301
0.855272
0.854651
0.853814
0.853411
0.853403
0.853692
0.854162
0.854734
0.855358
0.856012
0.856683
0.857368
0.858065
0.858775
0.859495
0.860227
0.860966
0.861713
0.862462
0.863212
0.863969
0.864754
0.865541
0.866314
0.867083
0.867848
0.868611
0.86937
0.870127
0.870882
0.871637
0.872395
0.873159
0.873934
0.874728
0.875551
0.876411
0.877314
0.878263
0.879267
0.880332
0.881442
0.882551
0.883621
0.884663
0.885711
0.886724
0.887569
0.888216
0.888841
0.889432
0.889575
0.889431
0.889354
0.889321
0.889481
0.890299
0.89271
0.896663
0.897014
0.889956
0.88462
0.885391
0.883671
0.880463
0.877814
0.873199
0.867556
0.86129
0.853634
0.844955
0.836395
0.828918
0.822901
0.818486
0.815723
0.814399
0.814132
0.814545
0.815361
0.81646
0.81787
0.819695
0.822037
0.824877
0.828074
0.831617
0.835385
0.838984
0.841881
0.843562
0.844027
0.843636
0.842871
0.842385
0.842946
0.844427
0.845213
0.845193
0.844902
0.844536
0.844224
0.844025
0.843912
0.843834
0.843768
0.843609
0.843327
0.843071
0.84261
0.841849
0.841378
0.840716
0.839526
0.839444
0.839739
0.838988
0.839687
0.842138
0.841098
0.837539
0.840434
0.84813
0.845325
0.83622
0.835847
0.884005
0.884028
0.883993
0.883453
0.883335
0.883859
0.884699
0.885227
0.885248
0.884865
0.884308
0.883756
0.883258
0.882799
0.882343
0.881862
0.881343
0.880782
0.880182
0.879562
0.878928
0.878299
0.877667
0.877026
0.876342
0.875542
0.874682
0.873864
0.873167
0.872667
0.872453
0.872541
0.872807
0.872349
0.870748
0.868983
0.866406
0.862996
0.860255
0.858877
0.856616
0.854242
0.852908
0.851902
0.84996
0.847529
0.847117
0.843402
0.843573
0.845825
0.844092
0.842089
0.846577
0.851211
0.852073
0.851397
0.850754
0.850537
0.850728
0.851216
0.851902
0.852689
0.853521
0.854361
0.855193
0.856016
0.856831
0.857643
0.858456
0.859273
0.860095
0.860927
0.861773
0.862633
0.863489
0.864311
0.865112
0.86591
0.866701
0.867491
0.868281
0.869071
0.869859
0.870643
0.87142
0.872189
0.872949
0.873704
0.874461
0.87523
0.876029
0.876872
0.877777
0.87876
0.87983
0.880975
0.882153
0.883319
0.884465
0.885615
0.886738
0.887713
0.888477
0.889185
0.88995
0.89042
0.89041
0.890137
0.88962
0.889057
0.889533
0.89168
0.894988
0.895243
0.888619
0.882654
0.882986
0.883371
0.881343
0.877921
0.872902
0.867633
0.861772
0.854237
0.845591
0.837027
0.829385
0.823188
0.81865
0.815759
0.814272
0.813805
0.813987
0.814563
0.815447
0.816695
0.818439
0.820809
0.823837
0.827376
0.831129
0.835018
0.838848
0.842026
0.843891
0.844398
0.84401
0.843318
0.842997
0.843763
0.845366
0.846101
0.846027
0.845688
0.845275
0.844924
0.844686
0.844532
0.844424
0.844319
0.844104
0.843808
0.843569
0.843053
0.842232
0.841814
0.841115
0.839758
0.839754
0.840195
0.83925
0.839991
0.84282
0.841972
0.83846
0.840599
0.846588
0.843172
0.836779
0.837092
0.886488
0.886619
0.886485
0.886487
0.886198
0.885813
0.885302
0.884612
0.883907
0.883349
0.882975
0.88272
0.882492
0.882229
0.881906
0.881513
0.881046
0.880498
0.879866
0.879153
0.878374
0.877558
0.876748
0.875994
0.875303
0.874624
0.873865
0.87296
0.871931
0.870899
0.869979
0.869238
0.868773
0.868395
0.867946
0.867444
0.86627
0.864533
0.862569
0.860431
0.858171
0.855559
0.853848
0.853607
0.851256
0.850371
0.849181
0.847598
0.843541
0.845374
0.846055
0.845535
0.846246
0.846776
0.846594
0.846527
0.846969
0.847854
0.84901
0.850222
0.85138
0.85243
0.853376
0.854241
0.85505
0.855824
0.856577
0.857323
0.858066
0.858809
0.859554
0.860304
0.861062
0.86184
0.86263
0.863425
0.864227
0.865035
0.865843
0.866653
0.867464
0.868274
0.869083
0.869889
0.870692
0.871491
0.87229
0.873092
0.873906
0.874738
0.875602
0.876507
0.877468
0.878503
0.879624
0.880824
0.882073
0.883327
0.88456
0.885767
0.886929
0.888011
0.888997
0.889894
0.890684
0.8913
0.891665
0.891582
0.890805
0.889655
0.889596
0.891495
0.894348
0.893946
0.887684
0.88204
0.882603
0.884874
0.88334
0.878762
0.873079
0.867081
0.860246
0.852172
0.843486
0.835104
0.82777
0.82187
0.817549
0.814788
0.813385
0.813001
0.813298
0.814036
0.815099
0.816486
0.818288
0.820598
0.823437
0.826728
0.830376
0.834406
0.838577
0.842199
0.844325
0.844844
0.844408
0.843827
0.843844
0.845041
0.846812
0.84762
0.847581
0.847224
0.846759
0.846334
0.846025
0.845816
0.845635
0.845458
0.845215
0.84483
0.844458
0.843965
0.843099
0.842426
0.841771
0.840526
0.840054
0.840586
0.840367
0.840725
0.843215
0.843421
0.841079
0.84249
0.847462
0.846125
0.84086
0.839021
0.886768
0.887023
0.88748
0.886977
0.886063
0.885453
0.88531
0.88543
0.885568
0.885638
0.88565
0.885605
0.885471
0.885219
0.884841
0.884347
0.883751
0.883068
0.88231
0.881487
0.880601
0.879661
0.878673
0.877647
0.876633
0.875734
0.874933
0.874121
0.873207
0.872127
0.870914
0.869631
0.868365
0.867275
0.866449
0.865841
0.86524
0.864709
0.863763
0.862188
0.860652
0.858104
0.856804
0.855133
0.853072
0.853329
0.851043
0.850033
0.84889
0.847634
0.846251
0.845568
0.845821
0.846361
0.846755
0.847165
0.847739
0.848491
0.849345
0.850218
0.851059
0.851849
0.852584
0.853285
0.853971
0.85466
0.855359
0.856073
0.856801
0.857536
0.858273
0.859011
0.859753
0.860518
0.861309
0.862104
0.862902
0.86371
0.864531
0.865366
0.866215
0.867072
0.867933
0.868789
0.869635
0.870465
0.871279
0.872082
0.872883
0.873697
0.874538
0.875424
0.876375
0.877416
0.878567
0.879829
0.881172
0.882539
0.883872
0.885136
0.886316
0.887445
0.888582
0.889743
0.890762
0.891541
0.892322
0.893124
0.892978
0.891706
0.890787
0.891836
0.894136
0.893224
0.886703
0.881249
0.881954
0.884393
0.883309
0.878908
0.872756
0.866079
0.858816
0.850662
0.842081
0.833922
0.826879
0.821244
0.817153
0.814584
0.813338
0.81309
0.813503
0.81433
0.81543
0.816769
0.818388
0.820336
0.822683
0.825588
0.829022
0.832897
0.837271
0.841487
0.844151
0.844887
0.844506
0.844163
0.844743
0.84655
0.848469
0.849434
0.849516
0.849231
0.848821
0.848414
0.84807
0.847786
0.847503
0.847196
0.846822
0.846316
0.845806
0.845202
0.844262
0.843444
0.842722
0.841527
0.840948
0.841525
0.841738
0.842185
0.844722
0.845564
0.843733
0.844885
0.848991
0.847951
0.842862
0.840809
0.889409
0.889849
0.889025
0.888115
0.887959
0.888095
0.888175
0.888325
0.888538
0.888651
0.888549
0.888213
0.887674
0.886975
0.88615
0.88522
0.884187
0.88305
0.881819
0.88052
0.879204
0.877933
0.876775
0.875824
0.875142
0.874668
0.874365
0.874187
0.873957
0.873418
0.872428
0.871039
0.869355
0.867595
0.866086
0.865054
0.864449
0.864161
0.863676
0.863032
0.862255
0.860616
0.859838
0.857741
0.856811
0.856054
0.856138
0.852156
0.849448
0.847313
0.846073
0.84592
0.846555
0.84739
0.847954
0.84825
0.848384
0.848527
0.848759
0.849126
0.849599
0.850157
0.85077
0.851429
0.852122
0.852845
0.853588
0.854344
0.855102
0.855854
0.856597
0.857337
0.858079
0.858832
0.859593
0.860356
0.861131
0.861937
0.862781
0.863664
0.864585
0.865536
0.866504
0.867475
0.868431
0.869358
0.870247
0.871099
0.871921
0.872729
0.873547
0.874405
0.875339
0.876392
0.877602
0.878988
0.880528
0.882146
0.883721
0.885162
0.886426
0.887564
0.888658
0.889794
0.890824
0.891603
0.892053
0.892825
0.893329
0.892453
0.891324
0.892092
0.894261
0.893535
0.887455
0.882106
0.882299
0.884364
0.883501
0.878777
0.87198
0.865073
0.857821
0.849677
0.841168
0.833243
0.826516
0.821232
0.817458
0.815134
0.814064
0.813908
0.814308
0.815007
0.815857
0.81676
0.817676
0.818712
0.820153
0.822309
0.825068
0.82832
0.832823
0.838146
0.842077
0.84357
0.8435
0.843582
0.844957
0.847607
0.849979
0.851221
0.851387
0.851079
0.850665
0.850296
0.850011
0.849766
0.849468
0.84909
0.848639
0.848061
0.84743
0.846757
0.845854
0.844947
0.844164
0.843086
0.842448
0.843025
0.843702
0.844523
0.847134
0.848536
0.847457
0.848636
0.851561
0.850047
0.845414
0.842294
0.892713
0.892088
0.890458
0.890096
0.890144
0.890289
0.890357
0.890205
0.889857
0.889409
0.8889
0.888316
0.887621
0.886797
0.885835
0.884731
0.883482
0.882094
0.880593
0.87902
0.877433
0.875914
0.874581
0.87354
0.872917
0.872659
0.872525
0.872351
0.872142
0.871889
0.871366
0.870389
0.869022
0.867422
0.865731
0.864295
0.863394
0.862976
0.862764
0.862605
0.861803
0.860771
0.85965
0.857717
0.856339
0.855598
0.853702
0.850305
0.848249
0.846701
0.846121
0.846286
0.846747
0.84716
0.847308
0.847247
0.847108
0.847065
0.847205
0.847561
0.848081
0.848712
0.849389
0.85008
0.850757
0.85142
0.852068
0.852709
0.853352
0.854012
0.854699
0.855415
0.856135
0.856821
0.857493
0.858212
0.858998
0.859851
0.860767
0.861743
0.862771
0.863845
0.864945
0.866049
0.867129
0.868162
0.869132
0.87003
0.87086
0.871641
0.872413
0.873232
0.874159
0.875244
0.876531
0.878038
0.879762
0.881626
0.883478
0.885189
0.886673
0.887977
0.889161
0.890363
0.891556
0.892619
0.892996
0.893083
0.893705
0.893405
0.89224
0.892721
0.894738
0.894146
0.888547
0.883176
0.882904
0.884442
0.883292
0.878115
0.87111
0.864339
0.857146
0.84898
0.8407
0.833227
0.826909
0.821983
0.818433
0.816193
0.815084
0.814768
0.814891
0.815173
0.815383
0.815342
0.815133
0.815271
0.816283
0.81801
0.819862
0.822373
0.827166
0.834069
0.839709
0.842316
0.84267
0.843061
0.84493
0.848244
0.85145
0.853326
0.853802
0.853549
0.853076
0.852617
0.85225
0.851945
0.851598
0.851154
0.850634
0.850023
0.849346
0.848641
0.847771
0.846783
0.845873
0.844805
0.844076
0.844804
0.846203
0.847445
0.850253
0.852548
0.852175
0.85281
0.855283
0.853781
0.849473
0.844838
0.891192
0.89048
0.890236
0.890815
0.891187
0.890929
0.890448
0.890011
0.88961
0.889203
0.888665
0.887834
0.88662
0.885046
0.883217
0.881255
0.879255
0.877277
0.875383
0.873644
0.872111
0.870882
0.870024
0.869454
0.869262
0.869462
0.869741
0.869839
0.869786
0.869721
0.869474
0.868643
0.867178
0.865522
0.863966
0.862682
0.861887
0.861479
0.86121
0.860803
0.860017
0.859393
0.857858
0.856429
0.855087
0.854319
0.851237
0.848565
0.84718
0.846113
0.845724
0.845682
0.845678
0.845677
0.845625
0.845629
0.845761
0.846062
0.846501
0.847026
0.847567
0.848079
0.848529
0.848922
0.849279
0.849637
0.850032
0.850494
0.851045
0.851691
0.852426
0.853215
0.85398
0.854704
0.855471
0.856308
0.857195
0.858116
0.859066
0.860044
0.861054
0.862096
0.863168
0.864256
0.865343
0.866408
0.867435
0.868424
0.869387
0.870339
0.871298
0.872296
0.873357
0.874508
0.875793
0.877264
0.878983
0.880919
0.882893
0.884733
0.886314
0.887691
0.888905
0.890201
0.891778
0.893348
0.89452
0.894491
0.894778
0.895064
0.89395
0.893858
0.89548
0.894736
0.88945
0.884033
0.883238
0.884326
0.882783
0.877279
0.870343
0.863851
0.856709
0.848641
0.84092
0.834067
0.828034
0.823167
0.819581
0.817205
0.815901
0.815328
0.815033
0.814586
0.813687
0.812351
0.811108
0.810859
0.81215
0.81422
0.815771
0.81798
0.823239
0.831474
0.838494
0.842207
0.843004
0.843602
0.845753
0.849371
0.853113
0.855497
0.85633
0.856332
0.856041
0.855658
0.855259
0.854846
0.854351
0.853747
0.853085
0.852378
0.851616
0.8508
0.849832
0.848705
0.847609
0.846553
0.846021
0.847004
0.849118
0.851081
0.854111
0.856907
0.857512
0.857659
0.859674
0.858296
0.85426
0.84881
0.892801
0.892635
0.892587
0.892522
0.892053
0.891428
0.890982
0.890602
0.890071
0.889218
0.887829
0.885847
0.883423
0.880792
0.878142
0.875571
0.873099
0.87074
0.868565
0.866679
0.865211
0.864329
0.864107
0.864273
0.864514
0.864837
0.86518
0.865391
0.865525
0.865759
0.865882
0.865499
0.864588
0.863402
0.862141
0.86108
0.860407
0.859927
0.859503
0.85904
0.858443
0.857549
0.85581
0.854471
0.853561
0.852672
0.849519
0.847499
0.846325
0.845309
0.844818
0.844538
0.844392
0.844453
0.844645
0.844996
0.845423
0.845857
0.846223
0.84649
0.846659
0.846765
0.846849
0.846962
0.847146
0.84744
0.847871
0.848454
0.849182
0.850024
0.850921
0.851821
0.852744
0.853696
0.854622
0.855512
0.85637
0.857206
0.858036
0.858872
0.859723
0.860603
0.861533
0.862534
0.863598
0.864699
0.865815
0.866949
0.868119
0.869315
0.870484
0.871587
0.87262
0.873635
0.874756
0.876112
0.877853
0.880012
0.882351
0.884564
0.886384
0.887811
0.889026
0.890433
0.892553
0.894497
0.896054
0.896478
0.896316
0.89691
0.896314
0.895795
0.897049
0.896177
0.890564
0.884358
0.882397
0.882991
0.881416
0.876168
0.869729
0.863689
0.856676
0.848875
0.841799
0.835457
0.82954
0.824384
0.82055
0.818004
0.816541
0.815648
0.814644
0.813006
0.810714
0.808356
0.806799
0.806775
0.808656
0.811686
0.81382
0.815498
0.820444
0.829174
0.837584
0.842584
0.84374
0.844456
0.847149
0.851713
0.856125
0.858542
0.859164
0.85911
0.858947
0.85873
0.858466
0.858109
0.857566
0.856827
0.855993
0.855127
0.854198
0.853194
0.852103
0.850898
0.849683
0.848648
0.848358
0.849634
0.85239
0.855168
0.858432
0.861391
0.862895
0.862918
0.864262
0.863281
0.8597
0.854029
0.895291
0.894811
0.894508
0.894259
0.893811
0.893305
0.892721
0.891897
0.890787
0.889261
0.887222
0.884839
0.88233
0.87985
0.877458
0.875111
0.872738
0.870331
0.867991
0.865841
0.863992
0.862707
0.862173
0.862023
0.861767
0.861592
0.861727
0.861984
0.862316
0.862751
0.8629
0.862429
0.861508
0.86045
0.859413
0.858569
0.857982
0.857507
0.857145
0.856802
0.856162
0.854925
0.853796
0.852831
0.852303
0.85076
0.848158
0.846584
0.845431
0.844381
0.843857
0.843545
0.843524
0.843759
0.844097
0.844475
0.844768
0.844956
0.84504
0.84507
0.845099
0.845178
0.845335
0.845585
0.845931
0.846375
0.846916
0.847552
0.848275
0.849056
0.849862
0.850689
0.851556
0.852435
0.853265
0.85404
0.854797
0.85557
0.85639
0.857272
0.858221
0.859238
0.860332
0.861508
0.862743
0.863984
0.865177
0.866289
0.867314
0.868248
0.869088
0.869888
0.87073
0.871689
0.872905
0.874502
0.876564
0.879112
0.881934
0.884604
0.886782
0.888416
0.88983
0.891476
0.894132
0.896812
0.898404
0.899133
0.898788
0.899144
0.899166
0.898424
0.899435
0.899136
0.893636
0.88632
0.882324
0.881802
0.880188
0.875392
0.869709
0.864151
0.857274
0.849756
0.843125
0.837045
0.831102
0.82563
0.821433
0.818729
0.817067
0.81562
0.813537
0.810478
0.807065
0.804461
0.803407
0.803999
0.806335
0.810141
0.812366
0.812537
0.816406
0.825491
0.835916
0.84241
0.844123
0.845089
0.848321
0.853946
0.859798
0.862682
0.862936
0.862444
0.862143
0.861912
0.861632
0.861255
0.860659
0.859827
0.858878
0.857897
0.856864
0.85577
0.854647
0.853416
0.852029
0.850884
0.850826
0.852572
0.855941
0.859403
0.86292
0.865945
0.867893
0.868081
0.868494
0.867874
0.86514
0.859882
0.898433
0.898226
0.898047
0.897633
0.896898
0.896103
0.895204
0.894197
0.892977
0.891301
0.889271
0.887163
0.885025
0.882904
0.880809
0.878617
0.876235
0.873693
0.871123
0.868677
0.866494
0.864785
0.863685
0.863109
0.862726
0.862305
0.861927
0.861505
0.861117
0.86089
0.860471
0.859603
0.85843
0.857207
0.85616
0.855444
0.855048
0.854848
0.854759
0.854584
0.854074
0.853264
0.852747
0.85206
0.851102
0.849007
0.846976
0.845548
0.844383
0.843383
0.842901
0.842617
0.842673
0.842905
0.84318
0.843448
0.843652
0.843839
0.844034
0.844269
0.844541
0.844835
0.845123
0.845378
0.845581
0.845745
0.845915
0.846156
0.846516
0.847015
0.847637
0.848314
0.848995
0.849736
0.850536
0.851366
0.85222
0.853121
0.854113
0.85523
0.856485
0.857871
0.859357
0.860895
0.862428
0.863881
0.865172
0.866225
0.867022
0.867652
0.868282
0.869079
0.870171
0.871605
0.873388
0.875596
0.878116
0.880813
0.8836
0.886192
0.888473
0.890334
0.89171
0.893183
0.895429
0.898333
0.900403
0.901423
0.901418
0.901636
0.902036
0.90133
0.902016
0.902565
0.898289
0.891103
0.885988
0.883909
0.881215
0.876206
0.870987
0.865593
0.858618
0.851213
0.844776
0.838754
0.832718
0.827022
0.82241
0.81945
0.817417
0.815178
0.811879
0.80759
0.803695
0.801648
0.801562
0.802298
0.803954
0.807926
0.810396
0.809523
0.812564
0.822361
0.834494
0.841844
0.844311
0.845851
0.849446
0.855773
0.863266
0.866919
0.866902
0.866136
0.865691
0.865424
0.865075
0.864562
0.863779
0.862764
0.861688
0.860646
0.85959
0.858484
0.857371
0.856052
0.85433
0.853073
0.853468
0.855849
0.859736
0.863753
0.867552
0.870775
0.872927
0.873444
0.873121
0.872252
0.869983
0.865379
0.902444
0.902083
0.901744
0.901153
0.900369
0.899746
0.899034
0.898097
0.896791
0.894973
0.8929
0.890798
0.888706
0.886658
0.884585
0.882341
0.879847
0.877156
0.874436
0.871851
0.869492
0.867503
0.866061
0.865227
0.864745
0.864277
0.863746
0.863075
0.86225
0.861322
0.860307
0.859253
0.858264
0.85745
0.856882
0.856577
0.856451
0.856314
0.856045
0.855487
0.85449
0.853425
0.852258
0.851002
0.849558
0.847533
0.845675
0.844283
0.84312
0.842243
0.841806
0.841567
0.841675
0.841922
0.84226
0.842659
0.843092
0.843564
0.844033
0.844457
0.844774
0.844939
0.84492
0.844723
0.844404
0.844079
0.843888
0.843937
0.844257
0.844829
0.845605
0.846461
0.847306
0.848215
0.849165
0.850078
0.850944
0.8518
0.852723
0.853784
0.855026
0.856454
0.85804
0.859723
0.861434
0.863087
0.864588
0.865869
0.866938
0.867927
0.869052
0.87043
0.872084
0.874007
0.87605
0.878179
0.880356
0.882547
0.884901
0.887633
0.890593
0.892904
0.893858
0.894628
0.896228
0.898748
0.90148
0.903173
0.903609
0.903894
0.904591
0.904218
0.904429
0.905432
0.902806
0.896835
0.89174
0.888304
0.884068
0.878618
0.873574
0.868023
0.860697
0.853194
0.846778
0.84071
0.834518
0.828589
0.823631
0.82021
0.817601
0.81449
0.810114
0.805023
0.801222
0.800144
0.800813
0.800917
0.801416
0.805484
0.809283
0.808341
0.810574
0.821103
0.834333
0.842024
0.845053
0.847484
0.851122
0.85745
0.866215
0.871328
0.870694
0.869621
0.869175
0.868865
0.868489
0.867945
0.867061
0.865903
0.864705
0.863591
0.862503
0.86139
0.860236
0.858657
0.856587
0.855414
0.856389
0.859401
0.863719
0.868234
0.87233
0.875704
0.877863
0.878579
0.877902
0.876547
0.87435
0.870196
0.906675
0.906346
0.906068
0.905479
0.904622
0.903795
0.902844
0.901663
0.9001
0.898143
0.895998
0.893776
0.891555
0.889408
0.887323
0.885198
0.882926
0.880496
0.877991
0.875498
0.873086
0.870914
0.869163
0.867874
0.866972
0.86636
0.865872
0.865386
0.864835
0.864178
0.863434
0.862667
0.861935
0.861322
0.86082
0.860264
0.859538
0.85852
0.857156
0.855447
0.853543
0.85168
0.849794
0.848328
0.847177
0.845629
0.843917
0.842692
0.84164
0.840951
0.840598
0.84049
0.840734
0.84113
0.841687
0.842342
0.843026
0.843649
0.84411
0.844357
0.844375
0.84418
0.843808
0.843337
0.842905
0.842649
0.842633
0.842849
0.843273
0.843884
0.844668
0.845653
0.846835
0.847968
0.848929
0.849713
0.85036
0.850962
0.85164
0.852496
0.853589
0.854924
0.856465
0.858157
0.859928
0.861697
0.863383
0.864969
0.866506
0.867991
0.869543
0.871223
0.872921
0.874586
0.876155
0.8776
0.879113
0.881058
0.883858
0.887822
0.892151
0.894923
0.895436
0.895651
0.897337
0.899999
0.903197
0.905545
0.906254
0.906145
0.906608
0.906585
0.906329
0.907142
0.90597
0.901775
0.897083
0.892339
0.886962
0.881563
0.876787
0.871082
0.863391
0.855686
0.849204
0.843035
0.836618
0.830407
0.825115
0.821087
0.81774
0.813853
0.80869
0.803258
0.799911
0.799725
0.800578
0.799913
0.799485
0.803991
0.809403
0.8083
0.809824
0.821113
0.835254
0.843518
0.847044
0.850306
0.853964
0.859705
0.868803
0.87552
0.874494
0.872743
0.872528
0.872279
0.871791
0.871212
0.870302
0.869068
0.867779
0.866612
0.865514
0.864386
0.863158
0.861269
0.858947
0.857955
0.859489
0.863129
0.867891
0.872769
0.877036
0.880416
0.882431
0.883031
0.882053
0.880188
0.877948
0.874218
0.911094
0.910757
0.910333
0.909582
0.908586
0.907627
0.906542
0.905162
0.903336
0.901036
0.898403
0.895613
0.892834
0.89021
0.887794
0.885523
0.883285
0.881012
0.878707
0.876445
0.874317
0.872378
0.870661
0.869209
0.868054
0.867187
0.8665
0.865804
0.864913
0.863809
0.862569
0.86129
0.859997
0.858719
0.857438
0.856106
0.854651
0.85298
0.851152
0.849298
0.847432
0.845734
0.844777
0.844606
0.844286
0.843164
0.841864
0.840935
0.840117
0.839651
0.839435
0.839514
0.839915
0.840483
0.841231
0.842038
0.84278
0.843306
0.843548
0.843552
0.843424
0.843255
0.843095
0.842968
0.842884
0.842832
0.842784
0.84274
0.842751
0.842932
0.84346
0.844387
0.845527
0.8466
0.847491
0.848191
0.848731
0.849207
0.849784
0.850613
0.851775
0.85327
0.855025
0.856951
0.858944
0.860918
0.862814
0.864614
0.866348
0.867954
0.869456
0.870943
0.872448
0.873965
0.875482
0.87703
0.878856
0.881358
0.88486
0.889474
0.894288
0.897248
0.897721
0.89788
0.899802
0.902671
0.905665
0.90819
0.909163
0.908771
0.908559
0.908521
0.907905
0.908076
0.907878
0.905136
0.900666
0.895194
0.889496
0.884503
0.88013
0.874468
0.866587
0.858685
0.852094
0.845801
0.839132
0.832602
0.82694
0.822287
0.818125
0.813586
0.807915
0.802496
0.799696
0.799881
0.800592
0.799359
0.798009
0.803445
0.810177
0.808968
0.810363
0.822412
0.837024
0.845841
0.849801
0.853524
0.857724
0.86324
0.871931
0.878993
0.878239
0.875461
0.875649
0.8758
0.875201
0.874482
0.87345
0.872082
0.870727
0.869571
0.868481
0.867352
0.86603
0.863877
0.861399
0.86067
0.862797
0.867029
0.87218
0.877283
0.881578
0.884808
0.886553
0.886777
0.885394
0.883034
0.880564
0.87723
0.915628
0.91529
0.9148
0.914029
0.912979
0.911826
0.910502
0.90886
0.906758
0.904183
0.901234
0.898019
0.894656
0.891272
0.887989
0.884889
0.881986
0.879259
0.876693
0.874294
0.872113
0.870225
0.86865
0.867358
0.866307
0.865375
0.864385
0.863186
0.861696
0.859901
0.857823
0.85557
0.853256
0.850996
0.848871
0.846954
0.845207
0.843636
0.842345
0.8414
0.840874
0.840995
0.841692
0.842289
0.842059
0.841105
0.840195
0.839469
0.838858
0.838537
0.838419
0.838618
0.839091
0.839748
0.840584
0.841435
0.842133
0.842526
0.842653
0.842698
0.842837
0.843099
0.843344
0.843377
0.843061
0.842382
0.841472
0.840565
0.839894
0.839635
0.839926
0.840715
0.841708
0.842832
0.844035
0.845178
0.84615
0.846947
0.847726
0.848709
0.850027
0.851707
0.853696
0.85591
0.858242
0.860637
0.863047
0.865367
0.867463
0.869343
0.871061
0.872729
0.874485
0.876378
0.878383
0.880511
0.882936
0.88586
0.889375
0.893381
0.897148
0.89951
0.90031
0.901156
0.903315
0.906008
0.908192
0.910045
0.91108
0.911095
0.910599
0.91035
0.909757
0.909345
0.909417
0.907608
0.903287
0.897634
0.892069
0.88749
0.883501
0.878072
0.87022
0.862168
0.855438
0.849027
0.842134
0.835294
0.829275
0.824106
0.819218
0.81398
0.807985
0.802655
0.800221
0.800363
0.801054
0.79936
0.797354
0.803626
0.811318
0.810583
0.812422
0.824892
0.839425
0.848381
0.852593
0.856394
0.861427
0.86766
0.875803
0.881839
0.881218
0.877878
0.878496
0.879356
0.878707
0.877766
0.876562
0.875058
0.873673
0.872544
0.871458
0.870335
0.868862
0.866478
0.863979
0.863645
0.866367
0.871093
0.876524
0.881713
0.885892
0.888778
0.890041
0.889669
0.887704
0.884859
0.882097
0.879125
0.920191
0.919893
0.919353
0.918486
0.917307
0.916014
0.914565
0.912835
0.910711
0.908166
0.905225
0.901957
0.898448
0.894807
0.891157
0.887621
0.88429
0.8812
0.878341
0.875722
0.873417
0.871529
0.870078
0.868957
0.867967
0.866908
0.865662
0.86418
0.86244
0.860448
0.858211
0.855728
0.853057
0.850355
0.847793
0.845504
0.843565
0.842103
0.841222
0.840928
0.841155
0.841706
0.842138
0.84201
0.841241
0.840251
0.83941
0.838673
0.838111
0.837789
0.837675
0.837877
0.838318
0.838964
0.839794
0.840628
0.841266
0.841588
0.84173
0.841937
0.842339
0.842762
0.842828
0.842254
0.840996
0.839263
0.837453
0.835993
0.835182
0.835087
0.835527
0.836264
0.837227
0.838549
0.840262
0.842151
0.843937
0.845442
0.846746
0.848075
0.849637
0.851493
0.8536
0.855854
0.858175
0.860613
0.863221
0.865928
0.868549
0.870975
0.87321
0.875365
0.877568
0.879845
0.882136
0.884415
0.886801
0.889438
0.892368
0.895559
0.898589
0.900633
0.901636
0.903146
0.905889
0.908711
0.910607
0.911916
0.912737
0.912984
0.912692
0.912299
0.911867
0.911305
0.911195
0.909944
0.906052
0.900563
0.895116
0.89069
0.886943
0.881875
0.874256
0.866112
0.859218
0.852728
0.845701
0.838628
0.832313
0.826722
0.821252
0.815376
0.809044
0.803586
0.801225
0.801246
0.802222
0.800306
0.798093
0.80476
0.812905
0.81288
0.815622
0.828285
0.842237
0.850864
0.855347
0.859282
0.864873
0.871905
0.879745
0.884606
0.8833
0.87996
0.880987
0.882848
0.882313
0.881006
0.879607
0.878042
0.876679
0.875576
0.87451
0.873384
0.871719
0.869098
0.866707
0.866878
0.870155
0.87527
0.880881
0.886006
0.889877
0.892215
0.892764
0.891579
0.888828
0.885418
0.882332
0.879745
0.925083
0.924779
0.924129
0.923196
0.921976
0.920571
0.919015
0.917242
0.915157
0.91273
0.909995
0.906995
0.90375
0.900325
0.896853
0.893485
0.890343
0.887475
0.884834
0.882367
0.880094
0.878069
0.876312
0.874771
0.873403
0.872166
0.870991
0.869849
0.868654
0.867223
0.865396
0.863143
0.860584
0.857893
0.855253
0.85281
0.850678
0.848957
0.847673
0.846746
0.84602
0.845281
0.844332
0.843133
0.841833
0.840644
0.839621
0.838747
0.838091
0.837651
0.837447
0.837531
0.837832
0.838325
0.839002
0.839732
0.840261
0.840484
0.840565
0.840746
0.841098
0.841265
0.840795
0.8395
0.8375
0.83518
0.833113
0.831794
0.831382
0.831754
0.832561
0.833453
0.834538
0.835976
0.837904
0.840324
0.842789
0.844871
0.846593
0.848232
0.850071
0.852237
0.854659
0.857165
0.859637
0.862028
0.864364
0.866679
0.868978
0.871212
0.87336
0.875497
0.877736
0.880104
0.882512
0.884908
0.887394
0.890124
0.893068
0.896163
0.89935
0.901952
0.903412