/*--------------------------------*- C++ -*----------------------------------*\
  =========                 |
  \\      /  F ield         | OpenFOAM: The Open Source CFD Toolbox
   \\    /   O peration     | Website:  https://openfoam.org
    \\  /    A nd           | Version:  10
     \\/     M anipulation  |
\*---------------------------------------------------------------------------*/
FoamFile
{
    format      ascii;
    class       volVectorField;
    location    "2.64";
    object      Ub;
}
// * * * * * * * * * * * * * * * * * * * * * * * * * * * * * * * * * * * * * //

dimensions      [0 1 -1 0 0 0 0];

internalField   nonuniform List<vector> 
12225
(
(0.00229669 -0.000463659 0)
(0.0065564 -0.000412908 0)
(0.0100679 -0.000339461 0)
(0.0127803 -0.000266002 0)
(0.0148015 -0.00020434 0)
(0.0162938 -0.000157897 0)
(0.0174139 -0.000125875 0)
(0.0182911 -0.000106139 0)
(0.0190257 -9.66825e-05 0)
(0.0196955 -9.62624e-05 0)
(0.0203651 -0.000104737 0)
(0.0210954 -0.000123491 0)
(0.0219561 -0.0001564 0)
(0.0230461 -0.000212362 0)
(0.0245375 -0.000312695 0)
(0.0268022 -0.000517486 0)
(0.0309063 -0.00105054 0)
(0.0414088 -0.00313907 0)
(0.00242807 -0.00145252 0)
(0.00692325 -0.00129167 0)
(0.0106117 -0.00105971 0)
(0.0134435 -0.000828396 0)
(0.0155396 -0.000634749 0)
(0.0170763 -0.000489232 0)
(0.0182218 -0.000389101 0)
(0.0191136 -0.000327496 0)
(0.0198573 -0.000298014 0)
(0.0205343 -0.000296679 0)
(0.0212113 -0.00032294 0)
(0.0219506 -0.000380932 0)
(0.0228219 -0.000482329 0)
(0.0239214 -0.00065367 0)
(0.0254078 -0.00095704 0)
(0.027585 -0.00155821 0)
(0.0310701 -0.00300294 0)
(0.0363725 -0.00763046 0)
(0.00253058 -0.00256429 0)
(0.00720361 -0.00227493 0)
(0.0110135 -0.00186014 0)
(0.0139155 -0.00144871 0)
(0.0160459 -0.00110587 0)
(0.0175955 -0.000849264 0)
(0.0187424 -0.000673272 0)
(0.01963 -0.000565272 0)
(0.0203672 -0.000513649 0)
(0.0210368 -0.000511126 0)
(0.0217053 -0.000556393 0)
(0.0224335 -0.000656071 0)
(0.0232867 -0.000829146 0)
(0.0243491 -0.00111797 0)
(0.0257444 -0.00161724 0)
(0.0276569 -0.00255728 0)
(0.0302509 -0.00456393 0)
(0.0327001 -0.00943193 0)
(0.0026363 -0.00380568 0)
(0.00748678 -0.00336534 0)
(0.0114053 -0.00273942 0)
(0.0143571 -0.00212334 0)
(0.0165001 -0.00161341 0)
(0.0180429 -0.00123384 0)
(0.0191749 -0.000974661 0)
(0.0200447 -0.000816122 0)
(0.0207636 -0.000740374 0)
(0.0214143 -0.00073612 0)
(0.0220618 -0.000800696 0)
(0.022763 -0.000942455 0)
(0.0235751 -0.00118608 0)
(0.0245638 -0.00158518 0)
(0.0258067 -0.00225218 0)
(0.0273673 -0.00342981 0)
(0.0291228 -0.00564817 0)
(0.0300583 -0.00990469 0)
(0.00275874 -0.00519483 0)
(0.00780854 -0.00457373 0)
(0.0118362 -0.00370094 0)
(0.0148239 -0.00285103 0)
(0.0169602 -0.00215397 0)
(0.0184773 -0.00163898 0)
(0.0195777 -0.00128938 0)
(0.0204159 -0.0010764 0)
(0.0211042 -0.000974621 0)
(0.0217244 -0.000967783 0)
(0.0223382 -0.00105099 0)
(0.0229968 -0.00123308 0)
(0.0237465 -0.00154181 0)
(0.0246309 -0.0020356 0)
(0.0256816 -0.0028277 0)
(0.0268697 -0.00413085 0)
(0.0279476 -0.0063089 0)
(0.0280945 -0.00976348 0)
(0.00290914 -0.00675897 0)
(0.00819695 -0.00591603 0)
(0.0123408 -0.00474954 0)
(0.0153508 -0.00362987 0)
(0.017459 -0.00272276 0)
(0.018929 -0.00205917 0)
(0.019979 -0.00161213 0)
(0.0207696 -0.00134118 0)
(0.0214138 -0.00121164 0)
(0.0219908 -0.00120108 0)
(0.0225578 -0.00130122 0)
(0.0231584 -0.00151965 0)
(0.0238266 -0.00188396 0)
(0.0245839 -0.00245036 0)
(0.0254237 -0.00331845 0)
(0.0262627 -0.00464759 0)
(0.0268367 -0.00663994 0)
(0.0265829 -0.00935736 0)
(0.00310057 -0.00853656 0)
(0.00868283 -0.00741333 0)
(0.0129541 -0.00589024 0)
(0.0159692 -0.00445584 0)
(0.0180227 -0.00331226 0)
(0.0194192 -0.00248634 0)
(0.0203966 -0.00193538 0)
(0.0211214 -0.00160368 0)
(0.0217061 -0.00144509 0)
(0.0222259 -0.00142952 0)
(0.0227323 -0.00154392 0)
(0.0232604 -0.00179269 0)
(0.0238312 -0.00219977 0)
(0.0244474 -0.00281304 0)
(0.0250759 -0.00370914 0)
(0.0256128 -0.00498892 0)
(0.0258319 -0.00673233 0)
(0.0253839 -0.00884849 0)
(0.00335067 -0.0105819 0)
(0.00930602 -0.00909268 0)
(0.0137171 -0.00712677 0)
(0.0167126 -0.00532085 0)
(0.018676 -0.00391062 0)
(0.0199661 -0.0029087 0)
(0.0208438 -0.00224866 0)
(0.0214815 -0.00185474 0)
(0.0219892 -0.00166665 0)
(0.0224371 -0.00164493 0)
(0.0228692 -0.00177023 0)
(0.0233115 -0.00204178 0)
(0.0237734 -0.00247687 0)
(0.0242428 -0.00311077 0)
(0.0246732 -0.00399369 0)
(0.0249631 -0.0051754 0)
(0.0249419 -0.00665904 0)
(0.0244091 -0.00830847 0)
(0.00368538 -0.0129732 0)
(0.0101225 -0.0109881 0)
(0.0146837 -0.0084591 0)
(0.0176204 -0.00620988 0)
(0.0194451 -0.00449945 0)
(0.0205866 -0.00330925 0)
(0.0213318 -0.00253755 0)
(0.0218573 -0.00208225 0)
(0.0222689 -0.0018657 0)
(0.0226291 -0.00183731 0)
(0.0229736 -0.00196999 0)
(0.0233191 -0.00225609 0)
(0.023665 -0.00270408 0)
(0.0239898 -0.00333472 0)
(0.0242434 -0.00417328 0)
(0.0243395 -0.00523153 0)
(0.0241605 -0.00647289 0)
(0.0235999 -0.00776666 0)
(0.00414507 -0.0158261 0)
(0.0112152 -0.013141 0)
(0.0159264 -0.00987858 0)
(0.0187411 -0.00709626 0)
(0.0203586 -0.00505061 0)
(0.0212965 -0.00366389 0)
(0.0218692 -0.00278262 0)
(0.022254 -0.0022705 0)
(0.0225485 -0.00202906 0)
(0.0228051 -0.00199488 0)
(0.0230498 -0.00213201 0)
(0.02329 -0.00242479 0)
(0.0235172 -0.00287192 0)
(0.0237052 -0.00347995 0)
(0.023807 -0.00425375 0)
(0.0237557 -0.00518084 0)
(0.0234759 -0.00620978 0)
(0.0229162 -0.00723338 0)
(0.0047959 -0.0193187 0)
(0.0127128 -0.0155984 0)
(0.0175468 -0.0113584 0)
(0.0201343 -0.007934 0)
(0.0214466 -0.00552164 0)
(0.0221098 -0.00393896 0)
(0.0224619 -0.00295823 0)
(0.0226738 -0.00239972 0)
(0.022829 -0.00214081 0)
(0.0229665 -0.00210414 0)
(0.0231007 -0.00224433 0)
(0.0232301 -0.0025375 0)
(0.0233401 -0.00297283 0)
(0.0234028 -0.00354469 0)
(0.023378 -0.00424334 0)
(0.0232169 -0.00504345 0)
(0.0228744 -0.005893 0)
(0.0223294 -0.00671063 0)
(0.00568107 -0.0233135 0)
(0.0146682 -0.0181594 0)
(0.019536 -0.0127241 0)
(0.021753 -0.00860328 0)
(0.0226553 -0.00583739 0)
(0.0229809 -0.00408803 0)
(0.0230772 -0.00303454 0)
(0.0230967 -0.00244913 0)
(0.0231024 -0.00218494 0)
(0.0231163 -0.00215167 0)
(0.0231405 -0.00229568 0)
(0.023165 -0.00258605 0)
(0.0231706 -0.00300438 0)
(0.0231299 -0.00353634 0)
(0.023009 -0.00416353 0)
(0.0227728 -0.00485587 0)
(0.0223943 -0.00556671 0)
(0.0218666 -0.00623562 0)
(0.0069268 -0.0284386 0)
(0.017291 -0.0209936 0)
(0.0220101 -0.0139559 0)
(0.0236361 -0.00904654 0)
(0.0239835 -0.00594709 0)
(0.0238904 -0.00407376 0)
(0.0236876 -0.00298538 0)
(0.0234916 -0.00240056 0)
(0.0233353 -0.00214893 0)
(0.0232196 -0.00212911 0)
(0.0231324 -0.002281 0)
(0.023055 -0.0025684 0)
(0.0229643 -0.00296751 0)
(0.0228338 -0.00345852 0)
(0.0226356 -0.00401896 0)
(0.0223449 -0.00461876 0)
(0.0219461 -0.0052188 0)
(0.0214397 -0.00577472 0)
(0.00917673 -0.0364494 0)
(0.0217265 -0.0244728 0)
(0.0257739 -0.0149678 0)
(0.0262654 -0.00911022 0)
(0.0257204 -0.00572213 0)
(0.0250202 -0.00380163 0)
(0.0244127 -0.00274311 0)
(0.0239392 -0.00220546 0)
(0.0235824 -0.00199749 0)
(0.0233118 -0.00201031 0)
(0.0230965 -0.00218025 0)
(0.0229073 -0.00246817 0)
(0.0227167 -0.00284718 0)
(0.0224988 -0.00329477 0)
(0.0222311 -0.0037876 0)
(0.0218962 -0.00429878 0)
(0.021486 -0.00479788 0)
(0.0210036 -0.00525425 0)
(0.0137763 -0.0504489 0)
(0.0299594 -0.0280164 0)
(0.0316751 -0.0148727 0)
(0.0298957 -0.00819436 0)
(0.0279075 -0.00480009 0)
(0.0263471 -0.00305023 0)
(0.0252144 -0.00216542 0)
(0.024402 -0.00176638 0)
(0.0238109 -0.00165927 0)
(0.0233661 -0.00173966 0)
(0.0230124 -0.00194789 0)
(0.022708 -0.00224707 0)
(0.0224201 -0.00261137 0)
(0.0221229 -0.00301936 0)
(0.0217969 -0.00345032 0)
(0.0214293 -0.00388283 0)
(0.0210155 -0.0042953 0)
(0.0205585 -0.00466809 0)
(0.0249392 -0.0794761 0)
(0.047281 -0.0275 0)
(0.0408898 -0.011087 0)
(0.0345294 -0.00506752 0)
(0.0303432 -0.00258141 0)
(0.0276827 -0.0015008 0)
(0.0259484 -0.00106474 0)
(0.0247738 -0.00096178 0)
(0.0239437 -0.00104867 0)
(0.0233274 -0.00125269 0)
(0.0228421 -0.00153297 0)
(0.0224324 -0.00186394 0)
(0.0220596 -0.00222708 0)
(0.021697 -0.00260676 0)
(0.0213264 -0.00298829 0)
(0.0209374 -0.00335743 0)
(0.0205261 -0.00370097 0)
(0.020094 -0.00400787 0)
(0.0591739 0.000554019 0)
(0.0904508 0.0030327 0)
(0.0527719 0.00256709 0)
(0.0386767 0.00200993 0)
(0.0321034 0.00153767 0)
(0.0285108 0.00111125 0)
(0.026324 0.000703586 0)
(0.0248863 0.00030279 0)
(0.0238799 -9.5835e-05 0)
(0.0231328 -0.000493359 0)
(0.0225424 -0.000886833 0)
(0.0220451 -0.00127696 0)
(0.0216014 -0.00165962 0)
(0.0211855 -0.00202953 0)
(0.020781 -0.00238073 0)
(0.0203785 -0.00270707 0)
(0.0199737 -0.00300295 0)
(0.0195665 -0.003264 0)
(0.0204945 0.076166 0)
(0.0404982 0.0320061 0)
(0.0373292 0.0163816 0)
(0.03252 0.0096297 0)
(0.0289276 0.00617572 0)
(0.0264757 0.00414543 0)
(0.0247969 0.00280742 0)
(0.0236122 0.00183948 0)
(0.0227413 0.00108548 0)
(0.0220708 0.000464395 0)
(0.0215295 -6.61114e-05 0)
(0.0210701 -0.000532814 0)
(0.0206591 -0.000948163 0)
(0.0202752 -0.00132289 0)
(0.0199066 -0.00166042 0)
(0.0195466 -0.00196223 0)
(0.0191919 -0.00222903 0)
(0.0188417 -0.00246141 0)
(0.0078212 0.0404227 0)
(0.0187288 0.027944 0)
(0.0226144 0.0185747 0)
(0.0233726 0.0125555 0)
(0.0230437 0.00870625 0)
(0.0224325 0.00615732 0)
(0.0218147 0.00438998 0)
(0.0212665 0.00310565 0)
(0.020795 0.0021307 0)
(0.0203867 0.00136178 0)
(0.0200248 0.000735852 0)
(0.0196952 0.000214806 0)
(0.0193884 -0.000225265 0)
(0.0190962 -0.000602066 0)
(0.0188117 -0.000927823 0)
(0.0185317 -0.00121053 0)
(0.0182551 -0.00145523 0)
(0.0179819 -0.00166586 0)
(0.00425075 0.0245548 0)
(0.011173 0.0203175 0)
(0.0152737 0.0156625 0)
(0.0174014 0.0117763 0)
(0.0184119 0.0087993 0)
(0.0188404 0.00657207 0)
(0.0189753 0.00490136 0)
(0.0189626 0.00362983 0)
(0.0188741 0.00264311 0)
(0.0187444 0.00186146 0)
(0.0185902 0.00123002 0)
(0.0184195 0.000711091 0)
(0.0182368 0.000278577 0)
(0.0180456 -8.37816e-05 0)
(0.0178483 -0.000389101 0)
(0.0176456 -0.000649106 0)
(0.0174388 -0.000871344 0)
(0.0172298 -0.00106115 0)
(0.00292545 0.0173294 0)
(0.00803535 0.0152521 0)
(0.0116704 0.0125538 0)
(0.0140319 0.00997938 0)
(0.0154999 0.00779563 0)
(0.0163923 0.006033 0)
(0.0169245 0.00463605 0)
(0.0172309 0.0035314 0)
(0.0173925 0.00265251 0)
(0.0174582 0.00194607 0)
(0.0174578 0.00137156 0)
(0.0174101 0.000898924 0)
(0.0173277 0.000506057 0)
(0.0172191 0.0001767 0)
(0.0170917 -9.96056e-05 0)
(0.0169505 -0.000331795 0)
(0.0167985 -0.000529337 0)
(0.016639 -0.000697566 0)
(0.00226956 0.0127921 0)
(0.00637993 0.0115991 0)
(0.00958294 0.00990291 0)
(0.0119052 0.00814794 0)
(0.013526 0.00655672 0)
(0.0146357 0.00520295 0)
(0.0153869 0.00408591 0)
(0.0158887 0.00317581 0)
(0.016216 0.00243613 0)
(0.0164189 0.00183301 0)
(0.0165315 0.00133815 0)
(0.0165775 0.000929113 0)
(0.0165733 0.000588498 0)
(0.016531 0.00030297 0)
(0.0164598 6.23136e-05 0)
(0.0163673 -0.000139231 0)
(0.0162591 -0.000309674 0)
(0.0161388 -0.000454724 0)
(0.00189943 0.00962898 0)
(0.00540979 0.00887447 0)
(0.00828851 0.00774378 0)
(0.0105106 0.00651304 0)
(0.0121655 0.00534689 0)
(0.0133729 0.00431813 0)
(0.0142424 0.00344445 0)
(0.0148613 0.00271664 0)
(0.0152947 0.00211524 0)
(0.0155904 0.00161898 0)
(0.0157826 0.00120847 0)
(0.0158964 0.000867368 0)
(0.0159503 0.000582445 0)
(0.0159581 0.000343215 0)
(0.0159305 0.000141425 0)
(0.015876 -2.88641e-05 0)
(0.0158013 -0.000171791 0)
(0.0157111 -0.000293396 0)
(0.00167089 0.00727374 0)
(0.00479643 0.00676929 0)
(0.0074395 0.00598818 0)
(0.00955962 0.00510968 0)
(0.0112031 0.00425242 0)
(0.0124498 0.00347704 0)
(0.0133815 0.002805 0)
(0.0140691 0.00223605 0)
(0.0145694 0.00176005 0)
(0.0149262 0.00136361 0)
(0.0151728 0.00103346 0)
(0.0153344 0.000757836 0)
(0.0154302 0.000526883 0)
(0.0154749 0.000332567 0)
(0.0154798 0.000168445 0)
(0.0154538 2.93673e-05 0)
(0.0154044 -8.74054e-05 0)
(0.0153373 -0.000186492 0)
(0.00152001 0.00544265 0)
(0.00438487 0.00509642 0)
(0.00685477 0.00454863 0)
(0.00888521 0.00391914 0)
(0.0105005 0.00329256 0)
(0.0117569 0.00271602 0)
(0.0127187 0.00220912 0)
(0.013445 0.001775 0)
(0.0139861 0.00140848 0)
(0.0143823 0.00110107 0)
(0.0146653 0.000843716 0)
(0.0148599 0.000628032 0)
(0.0149853 0.000446794 0)
(0.0150564 0.000293997 0)
(0.0150852 0.000164747 0)
(0.0150807 5.50866e-05 0)
(0.0150506 -3.75545e-05 0)
(0.015001 -0.000115773 0)
(0.00141444 0.0039773 0)
(0.0040933 0.00373934 0)
(0.00643184 0.00335729 0)
(0.00838533 0.0029119 0)
(0.00996609 0.00246261 0)
(0.0112165 0.00204431 0)
(0.0121891 0.00167286 0)
(0.012935 0.00135213 0)
(0.0134995 0.00107955 0)
(0.0139198 0.000849748 0)
(0.0142263 0.000656584 0)
(0.0144431 0.000494193 0)
(0.014589 0.000357412 0)
(0.0146791 0.000241884 0)
(0.0147251 0.000144015 0)
(0.0147366 6.08772e-05 0)
(0.0147211 -9.73651e-06 0)
(0.0146848 -6.90812e-05 0)
(0.00133575 0.00278192 0)
(0.00387362 0.0026226 0)
(0.00610721 0.00236416 0)
(0.0079928 0.00205997 0)
(0.00953605 0.00175035 0)
(0.0107707 0.00145978 0)
(0.0117415 0.00119998 0)
(0.0124941 0.000974367 0)
(0.0130698 0.000781721 0)
(0.0135036 0.000618685 0)
(0.0138245 0.00048122 0)
(0.0140555 0.00036537 0)
(0.0142153 0.000267595 0)
(0.0143187 0.000184876 0)
(0.0143773 0.000114704 0)
(0.0144007 5.502e-05 0)
(0.0143963 4.14207e-06 0)
(0.0143703 -3.85464e-05 0)
(0.00127179 0.0017952 0)
(0.00369317 0.00169555 0)
(0.00583565 0.00153272 0)
(0.00765694 0.00133985 0)
(0.00915894 0.00114236 0)
(0.0103699 0.000956033 0)
(0.0113294 0.000788662 0)
(0.012079 0.000642734 0)
(0.0126569 0.000517711 0)
(0.0130962 0.000411605 0)
(0.0134245 0.000321929 0)
(0.013664 0.000246204 0)
(0.0138329 0.000182186 0)
(0.0139455 0.000127945 0)
(0.0140134 8.18705e-05 0)
(0.0140458 4.26325e-05 0)
(0.0140502 9.13814e-06 0)
(0.0140327 -1.90382e-05 0)
(0.00121176 0.000976758 0)
(0.00352201 0.000923736 0)
(0.00557338 0.000836658 0)
(0.00732531 0.000733082 0)
(0.00877766 0.000626623 0)
(0.00995499 0.000525828 0)
(0.0108931 0.000435005 0)
(0.0116303 0.000355601 0)
(0.0122023 0.000287407 0)
(0.0126402 0.00022941 0)
(0.0129701 0.000180302 0)
(0.0132135 0.000138765 0)
(0.0133878 0.000103598 0)
(0.0135067 7.37603e-05 0)
(0.0135816 4.83825e-05 0)
(0.0136213 2.67433e-05 0)
(0.0136332 8.24982e-06 0)
(0.0136232 -7.33608e-06 0)
(0.00113477 0.000302794 0)
(0.00330032 0.000286579 0)
(0.00522795 0.000259868 0)
(0.00687966 0.000228023 0)
(0.00825426 0.000195223 0)
(0.00937336 0.000164108 0)
(0.0102693 0.000136022 0)
(0.0109769 0.000111427 0)
(0.0115291 9.02729e-05 0)
(0.0119546 7.22579e-05 0)
(0.0122778 5.69854e-05 0)
(0.0125187 4.40526e-05 0)
(0.0126935 3.3091e-05 0)
(0.0128154 2.37814e-05 0)
(0.0128948 1.58554e-05 0)
(0.0129403 9.09045e-06 0)
(0.0129588 3.30323e-06 0)
(0.0129559 -1.57787e-06 0)
(7.86606e-05 -0.000180674 -2.33423e-30)
(0.000236632 -0.00018043 2.32921e-30)
(0.000395602 -0.000180006 0)
(0.000555408 -0.000179399 0)
(0.000715879 -0.000178606 0)
(0.000876839 -0.000177626 -2.28541e-30)
(0.00103811 -0.00017646 0)
(0.0011995 -0.000175109 0)
(0.00136083 -0.000173576 0)
(0.00152191 -0.000171865 0)
(0.00168256 -0.000169981 2.17709e-30)
(0.00184259 -0.000167931 0)
(0.00200182 -0.000165723 0)
(0.00216009 -0.000163366 0)
(0.00231722 -0.000160871 0)
(0.00247305 -0.000158252 2.01616e-30)
(0.00262745 -0.000155522 0)
(0.00278029 -0.000152697 0)
(0.00293144 -0.000149797 0)
(0.00308082 -0.000146842 0)
(0.00322836 -0.000143856 0)
(0.00337402 -0.000140866 0)
(0.00351779 -0.000137901 0)
(0.0036597 -0.000134991 1.70151e-30)
(0.00379983 -0.000132165 -1.66334e-30)
(0.00393827 -0.000129454 1.62666e-30)
(0.00407518 -0.000126882 1.5918e-30)
(0.00421073 -0.000124472 0)
(0.00434515 -0.000122241 0)
(0.00447867 -0.000120202 -1.50071e-30)
(0.00461156 -0.000118364 -1.47538e-30)
(0.00474412 -0.000116733 0)
(0.00487666 -0.000115311 0)
(0.00500951 -0.000114104 -1.41563e-30)
(0.00514303 -0.000113117 0)
(0.00527761 -0.000112357 0)
(0.00541365 -0.000111834 1.38151e-30)
(0.0055516 -0.000111558 0)
(0.00569195 -0.000111542 1.37446e-30)
(0.00583517 -0.000111795 2.75208e-30)
(0.00598178 -0.000112322 0)
(0.00613226 -0.00011312 0)
(0.00628705 -0.000114174 0)
(0.00644651 -0.00011546 0)
(0.00661085 -0.00011694 0)
(0.00678017 -0.000118571 2.90492e-30)
(0.00695436 -0.000120313 2.94583e-30)
(0.0071332 -0.00012214 2.98884e-30)
(0.00731638 -0.000124058 0)
(0.00750361 -0.000126116 -3.08288e-30)
(0.00769475 -0.000128416 0)
(0.0078899 -0.000131117 3.20302e-30)
(0.00808951 -0.000134434 3.28404e-30)
(0.00829449 -0.000138643 0)
(0.00850628 -0.000144089 0)
(0.00872693 -0.000151217 0)
(0.00895922 -0.000160632 3.94073e-30)
(0.00920691 -0.000173237 0)
(0.00947515 -0.000190514 0)
(0.00977136 -0.000215157 0)
(0.0101068 -0.000252541 0)
(0.0104989 -0.0003142 0)
(0.0109665 -0.000425524 0)
(0.0113788 -0.000630822 0)
(0.00612388 -0.000517527 0)
(0.00035392 -1.61625e-07 4.1779e-33)
(5.73487e-12 -2.61895e-15 0)
(7.9505e-32 1.74814e-33 0)
(7.68369e-32 1.17441e-33 -3.21719e-59)
(7.48754e-32 8.72931e-34 -2.43325e-59)
(7.33005e-32 6.90945e-34 0)
(7.19685e-32 5.6815e-34 1.63854e-59)
(7.08056e-32 4.78282e-34 -1.4035e-59)
(6.97694e-32 4.08612e-34 0)
(6.8833e-32 3.52316e-34 1.07323e-59)
(6.79786e-32 3.05401e-34 0)
(6.71931e-32 2.65372e-34 0)
(6.64672e-32 2.30584e-34 -7.5297e-60)
(6.57935e-32 1.99914e-34 0)
(6.51664e-32 1.72563e-34 5.99918e-60)
(6.45811e-32 1.47949e-34 0)
(6.40338e-32 1.25637e-34 -4.75944e-60)
(6.35212e-32 1.05291e-34 -4.2214e-60)
(6.30405e-32 8.66483e-35 -3.72815e-60)
(6.25894e-32 6.94984e-35 -6.54835e-60)
(6.21657e-32 5.36693e-35 5.71003e-60)
(6.17675e-32 3.90191e-35 0)
(6.13931e-32 2.54285e-35 0)
(6.1041e-32 1.27964e-35 0)
(6.07098e-32 1.03638e-36 2.9202e-60)
(6.03983e-32 -9.92644e-36 2.33874e-60)
(6.01052e-32 -2.01572e-35 -1.79597e-60)
(5.98296e-32 -2.97133e-35 0)
(5.95703e-32 -3.86454e-35 8.1489e-61)
(5.93265e-32 -4.69986e-35 3.71557e-61)
(5.90973e-32 -5.48134e-35 -4.32834e-62)
(5.88819e-32 -6.21265e-35 0)
(5.86796e-32 -6.8971e-35 0)
(5.84895e-32 -7.53772e-35 0)
(5.8311e-32 -8.13731e-35 -1.45352e-60)
(5.81436e-32 -8.69842e-35 0)
(5.79865e-32 -9.22343e-35 0)
(5.78392e-32 -9.71455e-35 2.29123e-60)
(5.77012e-32 -1.01738e-34 0)
(5.75719e-32 -1.06032e-34 0)
(5.74508e-32 -1.10044e-34 2.9764e-60)
(5.73375e-32 -1.13792e-34 0)
(5.72315e-32 -1.17292e-34 0)
(5.71325e-32 -1.20558e-34 -3.53501e-60)
(5.70399e-32 -1.23605e-34 -3.69691e-60)
(5.69535e-32 -1.26446e-34 0)
(5.68729e-32 -1.29094e-34 3.98853e-60)
(5.67976e-32 -1.3156e-34 0)
(5.67275e-32 -1.33855e-34 -4.24157e-60)
(5.66622e-32 -1.35991e-34 0)
(5.66014e-32 -1.37977e-34 -4.46059e-60)
(5.65447e-32 -1.39822e-34 -4.5587e-60)
(5.64921e-32 -1.41536e-34 0)
(5.64432e-32 -1.43127e-34 0)
(5.63977e-32 -1.44603e-34 0)
(5.63556e-32 -1.45971e-34 0)
(5.63164e-32 -1.47239e-34 0)
(5.62802e-32 -1.48412e-34 0)
(5.62465e-32 -1.49498e-34 0)
(5.62154e-32 -1.50502e-34 -5.12634e-60)
(5.61866e-32 -1.5143e-34 5.17569e-60)
(5.616e-32 -1.52286e-34 0)
(5.61354e-32 -1.53077e-34 0)
(5.61127e-32 -1.53806e-34 0)
(5.60917e-32 -1.54478e-34 0)
(5.60723e-32 -1.55096e-34 1.07413e-59)
(5.60545e-32 -1.55666e-34 0)
(5.60381e-32 -1.56189e-34 -1.08575e-59)
(5.6023e-32 -1.5667e-34 1.09086e-59)
(5.60091e-32 -1.57111e-34 0)
(5.59963e-32 -1.57516e-34 0)
(5.59846e-32 -1.57887e-34 0)
(5.59738e-32 -1.58227e-34 -1.10743e-59)
(5.59639e-32 -1.58537e-34 -1.11073e-59)
(5.59548e-32 -1.58821e-34 0)
(5.59465e-32 -1.5908e-34 -1.1165e-59)
(5.59389e-32 -1.59315e-34 -1.11901e-59)
(5.59319e-32 -1.59529e-34 1.12129e-59)
(5.59255e-32 -1.59723e-34 0)
(5.59196e-32 -1.59898e-34 0)
(5.59142e-32 -1.60056e-34 1.1269e-59)
(5.59092e-32 -1.60197e-34 0)
(5.59047e-32 -1.60322e-34 0)
(5.59005e-32 -1.60432e-34 0)
(5.58966e-32 -1.60527e-34 0)
(5.58929e-32 -1.60607e-34 -1.1328e-59)
(5.58895e-32 -1.60673e-34 -1.13351e-59)
(5.58862e-32 -1.60723e-34 0)
(5.58831e-32 -1.60757e-34 -1.13444e-59)
(5.588e-32 -1.60773e-34 0)
(5.58769e-32 -1.60769e-34 0)
(5.58737e-32 -1.60743e-34 -1.13439e-59)
(5.58704e-32 -1.6069e-34 0)
(5.58667e-32 -1.60606e-34 -1.13304e-59)
(5.58627e-32 -1.60484e-34 0)
(5.5858e-32 -1.60314e-34 0)
(5.58526e-32 -1.60086e-34 -1.1278e-59)
(5.58461e-32 -1.59784e-34 0)
(5.58383e-32 -1.59389e-34 -1.12072e-59)
(5.58286e-32 -1.58874e-34 0)
(5.58164e-32 -1.58205e-34 0)
(5.58012e-32 -1.57334e-34 0)
(5.57818e-32 -1.56199e-34 1.08827e-59)
(5.57569e-32 -1.54712e-34 0)
(5.57248e-32 -1.52752e-34 -1.05317e-59)
(5.56831e-32 -1.50144e-34 0)
(5.56282e-32 -1.46632e-34 0)
(5.55555e-32 -1.41824e-34 0)
(5.54578e-32 -1.3509e-34 0)
(5.5324e-32 -1.25357e-34 0)
(5.51364e-32 -1.10634e-34 0)
(5.48632e-32 -8.67579e-35 0)
(5.44399e-32 -4.34068e-35 -1.30598e-60)
(5.3704e-32 5.25151e-35 0)
(5.20733e-32 3.53299e-34 0)
(9.54603e-05 -0.000570147 7.36558e-30)
(0.00028719 -0.000569458 -7.34988e-30)
(0.000480186 -0.000568199 0)
(0.000674263 -0.000566362 1.46082e-29)
(0.000869226 -0.000563942 0)
(0.00106488 -0.00056094 -7.23741e-30)
(0.00126102 -0.000557362 -1.43479e-29)
(0.00145747 -0.000553219 -1.42315e-29)
(0.00165404 -0.000548529 0)
(0.00185055 -0.000543313 -1.39569e-29)
(0.00204686 -0.000537598 6.92413e-30)
(0.00224282 -0.000531412 0)
(0.00243831 -0.000524789 0)
(0.00263322 -0.000517763 0)
(0.00282746 -0.000510374 0)
(0.00302095 -0.000502662 6.46109e-30)
(0.00321363 -0.000494669 0)
(0.00340544 -0.000486439 1.24133e-29)
(0.00359635 -0.000478019 0)
(0.00378631 -0.000469455 0)
(0.00397525 -0.000460796 -1.17236e-29)
(0.00416311 -0.00045209 0)
(0.0043498 -0.000443385 1.12558e-29)
(0.00453518 -0.000434729 5.56521e-30)
(0.00471911 -0.000426168 -5.45238e-30)
(0.00490139 -0.000417744 5.34135e-30)
(0.00508179 -0.000409498 5.23264e-30)
(0.00526005 -0.000401468 0)
(0.00543592 -0.000393688 0)
(0.00560913 -0.000386194 -4.92523e-30)
(0.00577945 -0.000379019 -1.4355e-29)
(0.00594664 -0.000372198 0)
(0.00611053 -0.000365768 0)
(0.006271 -0.00035977 -4.57589e-30)
(0.00642797 -0.000354248 0)
(0.00658142 -0.000349249 0)
(0.00673137 -0.000344824 4.37728e-30)
(0.00687791 -0.000341021 0)
(0.00702116 -0.000337891 1.2687e-29)
(0.00716127 -0.000335475 8.50275e-30)
(0.00729844 -0.000333808 0)
(0.00743293 -0.00033291 0)
(0.00756502 -0.000332788 -1.64903e-29)
(0.00769506 -0.000333432 -1.65113e-29)
(0.00782347 -0.000334818 -1.65708e-29)
(0.00795076 -0.000336922 2.51891e-29)
(0.00807754 -0.000339733 8.59119e-30)
(0.00820453 -0.000343274 -8.29229e-30)
(0.00833256 -0.000347629 1.71851e-29)
(0.00846257 -0.000352966 -8.92417e-30)
(0.00859564 -0.000359555 0)
(0.0087329 -0.000367781 9.30074e-30)
(0.00887562 -0.000378156 2.82776e-29)
(0.00902519 -0.000391335 0)
(0.00918315 -0.000408151 0)
(0.00935122 -0.000429684 0)
(0.00953135 -0.000457403 1.15986e-29)
(0.00972571 -0.000493427 0)
(0.00993653 -0.000541029 2.70321e-29)
(0.0101654 -0.000605658 0)
(0.0104113 -0.000697066 3.50542e-29)
(0.010663 -0.000833759 0)
(0.0108739 -0.00105107 -5.33123e-29)
(0.0108359 -0.0013965 0)
(0.00694982 -0.00125142 6.40403e-29)
(0.00159324 -2.18825e-06 1.8382e-32)
(3.15545e-08 -4.32302e-11 0)
(1.82394e-31 4.38733e-33 2.44044e-58)
(7.5775e-32 3.44128e-33 -9.07441e-59)
(7.42947e-32 2.76679e-33 -7.3274e-59)
(7.2938e-32 2.31049e-33 0)
(7.17181e-32 1.98073e-33 1.62068e-58)
(7.06196e-32 1.72966e-33 -4.6378e-59)
(6.96239e-32 1.53051e-33 0)
(6.87149e-32 1.36734e-33 3.69672e-59)
(6.788e-32 1.23014e-33 7.00072e-59)
(6.71091e-32 1.11237e-33 0)
(6.63943e-32 1.00959e-33 -2.76648e-59)
(6.57295e-32 9.18689e-34 0)
(6.51096e-32 8.37442e-34 -2.62589e-59)
(6.45302e-32 7.64203e-34 0)
(6.3988e-32 6.97726e-34 2.25679e-59)
(6.34797e-32 6.37049e-34 -1.7966e-59)
(6.30028e-32 5.81408e-34 -5.25243e-59)
(6.25549e-32 5.30191e-34 -9.69994e-59)
(6.21341e-32 4.82896e-34 8.95649e-59)
(6.17385e-32 4.39106e-34 0)
(6.13664e-32 3.98469e-34 0)
(6.10164e-32 3.60688e-34 0)
(6.06871e-32 3.25507e-34 -2.5425e-59)
(6.03773e-32 2.92705e-34 1.79834e-59)
(6.00858e-32 2.62087e-34 -1.63867e-59)
(5.98115e-32 2.33485e-34 0)
(5.95536e-32 2.06747e-34 4.61258e-59)
(5.9311e-32 1.81739e-34 1.21963e-59)
(5.9083e-32 1.58341e-34 1.09759e-59)
(5.88686e-32 1.36443e-34 0)
(5.86672e-32 1.15947e-34 0)
(5.8478e-32 9.67627e-35 0)
(5.83004e-32 7.88061e-35 6.82705e-60)
(5.81337e-32 6.20011e-35 0)
(5.79773e-32 4.62767e-35 1.57353e-59)
(5.78307e-32 3.15671e-35 9.82402e-60)
(5.76933e-32 1.78107e-35 -1.27384e-59)
(5.75646e-32 4.95016e-36 0)
(5.7444e-32 -7.06844e-36 -1.24658e-59)
(5.73313e-32 -1.82956e-35 0)
(5.72258e-32 -2.8779e-35 -7.8328e-60)
(5.71271e-32 -3.85633e-35 7.50625e-60)
(5.7035e-32 -4.76907e-35 6.06892e-60)
(5.69489e-32 -5.62011e-35 0)
(5.68686e-32 -6.41321e-35 4.7402e-60)
(5.67937e-32 -7.15191e-35 -3.33194e-60)
(5.67239e-32 -7.83957e-35 -1.37454e-60)
(5.66589e-32 -8.47936e-35 0)
(5.65983e-32 -9.07426e-35 -2.01878e-60)
(5.65419e-32 -9.62711e-35 -3.03243e-60)
(5.64895e-32 -1.01406e-34 0)
(5.64408e-32 -1.06172e-34 3.17669e-61)
(5.63956e-32 -1.10592e-34 7.83306e-61)
(5.63536e-32 -1.14691e-34 1.21501e-60)
(5.63146e-32 -1.18488e-34 0)
(5.62785e-32 -1.22003e-34 0)
(5.6245e-32 -1.25256e-34 0)
(5.6214e-32 -1.28264e-34 -6.62155e-60)
(5.61853e-32 -1.31044e-34 4.12181e-60)
(5.61588e-32 -1.3361e-34 0)
(5.61343e-32 -1.35979e-34 -3.45754e-60)
(5.61117e-32 -1.38163e-34 -3.68763e-60)
(5.60908e-32 -1.40176e-34 0)
(5.60715e-32 -1.42029e-34 9.39022e-60)
(5.60538e-32 -1.43734e-34 -8.54929e-60)
(5.60374e-32 -1.45302e-34 -9.73191e-60)
(5.60224e-32 -1.46743e-34 1.90657e-59)
(5.60085e-32 -1.48066e-34 0)
(5.59958e-32 -1.49279e-34 0)
(5.59841e-32 -1.5039e-34 0)
(5.59734e-32 -1.51408e-34 -1.03692e-59)
(5.59635e-32 -1.52338e-34 -2.0829e-59)
(5.59545e-32 -1.53188e-34 -1.05418e-59)
(5.59462e-32 -1.53963e-34 -1.0636e-59)
(5.59386e-32 -1.54668e-34 -2.15636e-59)
(5.59316e-32 -1.55309e-34 1.07766e-59)
(5.59252e-32 -1.5589e-34 0)
(5.59194e-32 -1.56415e-34 0)
(5.5914e-32 -1.56887e-34 2.22634e-59)
(5.59091e-32 -1.57309e-34 0)
(5.59045e-32 -1.57685e-34 0)
(5.59004e-32 -1.58014e-34 -1.15602e-59)
(5.58965e-32 -1.58299e-34 0)
(5.58928e-32 -1.5854e-34 -2.27863e-59)
(5.58894e-32 -1.58737e-34 -1.1135e-59)
(5.58862e-32 -1.58888e-34 0)
(5.58831e-32 -1.5899e-34 -2.29302e-59)
(5.588e-32 -1.59039e-34 0)
(5.58769e-32 -1.59028e-34 0)
(5.58738e-32 -1.58951e-34 -1.11586e-59)
(5.58704e-32 -1.58794e-34 -1.17328e-59)
(5.58668e-32 -1.58543e-34 -1.1117e-59)
(5.58628e-32 -1.58178e-34 0)
(5.58583e-32 -1.57672e-34 0)
(5.58529e-32 -1.56992e-34 -2.23248e-59)
(5.58465e-32 -1.56092e-34 0)
(5.58387e-32 -1.54913e-34 -2.16865e-59)
(5.58292e-32 -1.53376e-34 0)
(5.58172e-32 -1.51379e-34 0)
(5.58022e-32 -1.48782e-34 0)
(5.57831e-32 -1.45396e-34 9.76561e-60)
(5.57586e-32 -1.40964e-34 0)
(5.57271e-32 -1.35123e-34 -8.70866e-60)
(5.56861e-32 -1.27357e-34 0)
(5.56323e-32 -1.16907e-34 0)
(5.55611e-32 -1.02618e-34 -2.32684e-61)
(5.54656e-32 -8.26442e-35 -3.86163e-60)
(5.53355e-32 -5.3866e-35 0)
(5.51544e-32 -1.05621e-35 0)
(5.48941e-32 5.89422e-35 0)
(5.45032e-32 1.82277e-34 6.85766e-59)
(5.38822e-32 4.39573e-34 0)
(5.29025e-32 1.13273e-33 -5.08453e-58)
(0.000101386 -0.000999477 5.16596e-29)
(0.000305033 -0.000998372 -7.25524e-33)
(0.000510048 -0.000996241 0)
(0.000716206 -0.000993074 1.69625e-32)
(0.000923277 -0.000988864 0)
(0.00113103 -0.000983618 0)
(0.00133922 -0.000977353 -5.03697e-29)
(0.00154763 -0.000970098 -2.50033e-29)
(0.00175602 -0.000961893 2.47399e-29)
(0.00196419 -0.000952787 -2.45362e-29)
(0.00217194 -0.000942834 0)
(0.00237907 -0.000932097 0)
(0.00258541 -0.00092064 -2.36148e-29)
(0.00279081 -0.000908532 -4.65745e-29)
(0.00299512 -0.000895843 4.58895e-29)
(0.00319821 -0.000882644 0)
(0.00339996 -0.000869004 4.44447e-29)
(0.00360027 -0.000854991 2.1931e-29)
(0.00379902 -0.000840667 0)
(0.00399612 -0.000826089 4.21416e-29)
(0.00419144 -0.000811305 -2.07738e-29)
(0.00438487 -0.000796358 -4.05495e-29)
(0.00457626 -0.000781283 1.99796e-29)
(0.00476544 -0.000766109 0)
(0.00495222 -0.000750864 3.81171e-29)
(0.00513639 -0.000735575 3.73006e-29)
(0.00531772 -0.000720275 0)
(0.00549599 -0.000705007 3.56693e-29)
(0.00567097 -0.000689823 0)
(0.00584246 -0.000674787 3.40579e-29)
(0.00601029 -0.00065998 -1.67763e-29)
(0.00617433 -0.000645491 0)
(0.0063345 -0.000631419 0)
(0.00649077 -0.00061787 0)
(0.00664315 -0.000604954 0)
(0.00679172 -0.00059278 0)
(0.0069366 -0.000581455 0)
(0.00707793 -0.00057108 2.85214e-29)
(0.00721592 -0.000561751 -1.38394e-29)
(0.0073508 -0.000553555 0)
(0.00748286 -0.000546572 0)
(0.0076124 -0.000540875 0)
(0.00773978 -0.000536526 -5.3648e-29)
(0.0078654 -0.000533588 -2.6843e-29)
(0.00798971 -0.000532124 -3.77321e-31)
(0.00811324 -0.000532209 3.83151e-31)
(0.00823657 -0.000533945 -2.64374e-29)
(0.00836035 -0.000537471 -2.6997e-29)
(0.0084853 -0.000542989 5.41403e-29)
(0.00861223 -0.000550778 2.72545e-29)
(0.00874198 -0.000561214 0)
(0.00887548 -0.000574795 2.84588e-29)
(0.00901371 -0.000592159 5.90995e-29)
(0.00915771 -0.000614117 0)
(0.00930857 -0.000641706 0)
(0.00946741 -0.000676263 -3.36208e-29)
(0.00963529 -0.000719543 0)
(0.00981305 -0.000773893 0)
(0.0100008 -0.000842497 1.2689e-28)
(0.0101965 -0.000929653 9.32348e-29)
(0.0103932 -0.00104087 5.28299e-29)
(0.0105703 -0.00118182 0)
(0.0106711 -0.0013524 -6.89094e-29)
(0.0105214 -0.00151698 0)
(0.00874614 -0.00132546 2.02269e-28)
(0.00357231 -9.93974e-06 -1.76513e-31)
(7.72264e-07 -1.76335e-09 3.64652e-35)
(9.03741e-25 -2.06355e-27 2.13378e-53)
(7.47103e-32 5.10092e-33 0)
(7.35183e-32 4.33915e-33 -4.69484e-58)
(7.23662e-32 3.74623e-33 0)
(7.12847e-32 3.28059e-33 -1.83065e-58)
(7.02807e-32 2.90766e-33 -3.20555e-58)
(6.93509e-32 2.60222e-33 -2.8871e-58)
(6.84893e-32 2.34659e-33 2.62034e-58)
(6.76895e-32 2.12846e-33 -1.22823e-58)
(6.69454e-32 1.93924e-33 0)
(6.62516e-32 1.77283e-33 0)
(6.56037e-32 1.62482e-33 1.86588e-58)
(6.49975e-32 1.49197e-33 8.94091e-59)
(6.44297e-32 1.37183e-33 0)
(6.38972e-32 1.26252e-33 7.1305e-59)
(6.33974e-32 1.16256e-33 0)
(6.29278e-32 1.07076e-33 6.7242e-59)
(6.24864e-32 9.8616e-34 -2.33438e-58)
(6.20713e-32 9.07964e-34 2.17071e-58)
(6.16808e-32 8.35506e-34 -1.03864e-58)
(6.13133e-32 7.68224e-34 0)
(6.09674e-32 7.05635e-34 9.02334e-59)
(6.06418e-32 6.47327e-34 -1.62498e-58)
(6.03354e-32 5.9294e-34 0)
(6.0047e-32 5.42158e-34 0)
(5.97756e-32 4.94705e-34 0)
(5.95203e-32 4.50335e-34 5.78053e-59)
(5.92801e-32 4.08827e-34 0)
(5.90543e-32 3.69983e-34 0)
(5.8842e-32 3.33625e-34 0)
(5.86425e-32 2.9959e-34 0)
(5.84551e-32 2.67729e-34 0)
(5.82792e-32 2.37904e-34 -4.11097e-59)
(5.8114e-32 2.0999e-34 0)