/*--------------------------------*- C++ -*----------------------------------*\
  =========                 |
  \\      /  F ield         | OpenFOAM: The Open Source CFD Toolbox
   \\    /   O peration     | Website:  https://openfoam.org
    \\  /    A nd           | Version:  10
     \\/     M anipulation  |
\*---------------------------------------------------------------------------*/
FoamFile
{
    format      ascii;
    class       volScalarField;
    location    "0.081";
    object      pMean;
}
// * * * * * * * * * * * * * * * * * * * * * * * * * * * * * * * * * * * * * //

dimensions      [0 2 -2 0 0 0 0];

internalField   nonuniform List<scalar> 
12225
(
8.62953
7.87477
7.446
7.23458
7.08776
6.9476
6.80784
6.67538
6.55526
6.44833
6.35361
6.26917
6.19309
6.11849
6.03623
5.90208
5.67279
5.06215
8.3937
7.84458
7.44401
7.22506
7.07692
6.93849
6.79957
6.66709
6.54614
6.43847
6.34168
6.25597
6.17435
6.09878
6.00148
5.88239
5.63234
5.24337
8.34709
7.84027
7.45179
7.22264
7.06946
6.93143
6.7933
6.66019
6.53817
6.42825
6.32938
6.23811
6.15205
6.06237
5.95925
5.81273
5.58599
5.22195
8.19512
7.79122
7.44191
7.21156
7.05433
6.91761
6.78143
6.64883
6.52544
6.41375
6.31127
6.2161
6.12199
6.02412
5.90676
5.75304
5.53209
5.2236
8.10094
7.75597
7.43892
7.2091
7.04522
6.9066
6.77156
6.63926
6.51477
6.40029
6.29437
6.19372
6.09324
5.98622
5.86093
5.70346
5.49719
5.23919
8.01458
7.70651
7.4202
7.19799
7.03033
6.8898
6.75569
6.62418
6.49885
6.38215
6.27279
6.1674
6.06092
5.94689
5.81657
5.66011
5.46997
5.24596
7.916
7.65086
7.3995
7.18857
7.01864
6.87503
6.74097
6.61013
6.48393
6.36458
6.25136
6.14116
6.02926
5.90999
5.77686
5.62364
5.44662
5.24681
7.85625
7.60415
7.37313
7.17414
7.00447
6.85775
6.7226
6.59214
6.4655
6.34397
6.22723
6.11272
5.99632
5.87334
5.73912
5.58969
5.42321
5.24131
7.76994
7.54171
7.33841
7.15458
6.98792
6.83952
6.70315
6.57244
6.44529
6.32198
6.20223
6.08397
5.96392
5.83836
5.70387
5.55798
5.3999
5.23129
7.71718
7.497
7.30646
7.13429
6.97142
6.8213
6.68288
6.55147
6.42362
6.29849
6.17572
6.05401
5.93085
5.80337
5.66899
5.52619
5.37471
5.21603
7.64219
7.43625
7.26301
7.10321
6.94682
6.79872
6.65993
6.52743
6.39847
6.27186
6.14711
6.02299
5.89759
5.76882
5.63493
5.49499
5.34886
5.19754
7.58219
7.39705
7.23595
7.08213
6.92857
6.78039
6.63993
6.50592
6.37581
6.2478
6.12096
5.99454
5.86726
5.73751
5.604
5.46594
5.32345
5.1772
7.52282
7.34381
7.19094
7.0469
6.90051
6.75559
6.6156
6.48073
6.34952
6.22047
6.09248
5.96462
5.83596
5.70551
5.57241
5.43619
5.2968
5.15462
7.51421
7.31203
7.1547
7.01734
6.87707
6.73325
6.5913
6.45423
6.32135
6.19075
6.06104
5.93144
5.80137
5.6702
5.5374
5.40255
5.26564
5.1269
7.44538
7.24648
7.09819
6.97106
6.83808
6.69805
6.55711
6.41948
6.28558
6.1539
6.02305
5.89229
5.76126
5.6297
5.49733
5.36392
5.22939
5.09385
7.39242
7.20157
7.05997
6.93609
6.8043
6.66428
6.52269
6.38394
6.24862
6.11548
5.98325
5.85131
5.71946
5.58763
5.45563
5.32335
5.19068
5.05773
7.28888
7.12747
7.00365
6.88698
6.75833
6.6207
6.48085
6.34266
6.20677
6.07246
5.93902
5.80617
5.67378
5.54183
5.41025
5.27905
5.14805
5.01732
7.25923
7.0898
6.96356
6.84783
6.72032
6.58299
6.44262
6.30351
6.16662
6.03144
5.89729
5.7639
5.63125
5.49941
5.36842
5.2383
5.10904
4.98068
7.31568
7.10248
6.94493
6.81645
6.6864
6.549
6.40775
6.26645
6.12692
5.98955
5.85403
5.71991
5.58703
5.45543
5.32521
5.19646
5.06913
4.94319
7.24561
7.06172
6.9232
6.80099
6.66965
6.52856
6.38453
6.24223
6.10278
5.96556
5.82991
5.69564
5.56286
5.43176
5.30245
5.17494
5.0492
4.92524
7.27837
7.09123
6.94308
6.80791
6.6668
6.52093
6.37484
6.23115
6.09019
5.95145
5.81459
5.67967
5.54681
5.41609
5.28759
5.16131
5.03721
4.91526
7.28776
7.10745
6.95917
6.8201
6.67451
6.52463
6.37582
6.23059
6.0886
5.94887
5.81119
5.67576
5.54279
5.41233
5.28431
5.15868
5.03541
4.91454
7.39104
7.15639
6.97593
6.82513
6.67569
6.52403
6.37367
6.22671
6.08314
5.94238
5.80419
5.66866
5.53591
5.40591
5.27861
5.15397
5.03195
4.91246
7.45419
7.21829
7.02105
6.85157
6.69159
6.53649
6.38521
6.23706
6.09161
5.94895
5.80943
5.67325
5.54024
5.41022
5.28305
5.15871
5.03718
4.91854
7.41257
7.22064
7.03233
6.85325
6.68637
6.53092
6.38117
6.23326
6.08697
5.94366
5.80415
5.66834
5.53586
5.40644
5.27998
5.15644
5.03585
4.91814
7.58204
7.30662
7.06935
6.87324
6.70322
6.54748
6.39614
6.24559
6.09692
5.95204
5.81163
5.67534
5.54257
5.41296
5.28641
5.16295
5.04258
4.92528
7.63319
7.32167
7.06245
6.86405
6.69949
6.54702
6.39551
6.24362
6.09422
5.94948
5.80955
5.67368
5.54121
5.41193
5.28583
5.16293
5.04323
4.92677
7.73375
7.38612
7.08898
6.87715
6.71303
6.56067
6.40651
6.25199
6.10124
5.95595
5.8157
5.67956
5.54692
5.4176
5.29158
5.16889
5.04939
4.93283
7.75124
7.38351
7.07855
6.87303
6.71397
6.56191
6.40666
6.25166
6.10099
5.9559
5.81576
5.67967
5.54704
5.41781
5.29192
5.16961
5.05065
4.93521
7.97731
7.42088
7.07635
6.87888
6.72311
6.56904
6.41188
6.2561
6.10518
5.95997
5.81972
5.68353
5.55084
5.42161
5.29576
5.17366
5.05504
4.94067
1.38535
1.21404
1.03721
0.965265
1.04504
1.23487
1.42267
1.48564
1.35089
1.01571
0.517375
-0.081375
-0.708199
-1.30017
-1.81341
-2.2237
-2.51983
-2.69731
-2.76012
-2.72235
-2.60963
-2.43742
-2.22873
-2.00626
-1.80966
-1.66579
-1.62337
-1.67543
-1.77837
-1.90039
-2.04797
-2.25723
-2.55114
-2.90202
-3.26244
-3.60848
-3.93105
-4.30658
-4.81365
-5.40609
-5.94592
-6.37471
-6.71425
-7.02916
-7.40315
-7.78203
-8.10091
-8.36002
-8.49451
-8.53482
-8.64053
-8.77233
-8.89589
-9.01798
-9.12379
-9.17729
-9.14917
-9.14857
-9.23574
-9.39411
-9.57356
-9.75424
-9.84662
-9.89015
-9.96115
-10.08
-10.2097
-10.3251
-10.3957
-10.4043
-10.3403
-10.2101
-10.0335
-9.8567
-9.71578
-9.59999
-9.47146
-9.29239
-9.04351
-8.71809
-8.32484
-7.88772
-7.40386
-6.88443
-6.30921
-5.72226
-5.0543
-4.34031
-3.66998
-3.27281
-3.15954
-3.14387
-3.0901
-2.92972
-2.62853
-2.17502
-1.56694
-0.807232
0.0997425
1.14799
2.3297
3.63426
5.04738
6.55113
8.12393
9.74116
11.3765
13.0035
14.5967
16.1326
17.5903
18.9526
20.207
21.3476
22.3734
23.2864
24.0892
24.7845
25.3744
25.8607
26.2453
26.5306
26.7204
26.8199
26.8354
26.7747
26.6456
26.4574
26.2188
25.939
25.6266
25.2896
24.9357
24.5717
24.2039
23.8377
23.4779
23.1285
22.7931
22.4746
22.1754
21.897
21.6408
21.4076
21.1978
21.0115
20.8486
20.7088
20.5914
20.4958
20.4208
20.3652
20.3273
20.305
20.2948
20.2913
20.2877
20.2765
20.2506
20.2079
20.1541
20.1037
20.0645
20.0246
19.98
19.9363
19.8859
19.8281
19.7699
19.7182
19.6727
19.6331
19.6022
19.5842
19.5772
19.5802
19.5968
19.6374
19.7162
19.8358
0.60824
0.441373
0.27904
0.170491
0.221983
0.348752
0.443584
0.403546
0.182435
-0.204126
-0.708804
-1.27121
-1.83464
-2.35275
-2.79354
-3.13751
-3.37794
-3.51447
-3.54935
-3.49721
-3.3662
-3.18406
-2.98232
-2.77546
-2.58018
-2.45253
-2.38734
-2.4211
-2.51372
-2.67197
-2.96491
-3.3609
-3.8139
-4.27773
-4.7085
-5.10713
-5.48023
-5.863
-6.30631
-6.81985
-7.30709
-7.69376
-7.97889
-8.20788
-8.49561
-8.78599
-9.10894
-9.50799
-9.71281
-9.79851
-9.92069
-10.0383
-10.125
-10.1765
-10.184
-10.1951
-10.1671
-10.1419
-10.1842
-10.2731
-10.3692
-10.4964
-10.6128
-10.6969
-10.818
-10.9664
-11.117
-11.2401
-11.3074
-11.2997
-11.2067
-11.0445
-10.8412
-10.6369
-10.4642
-10.3146
-10.1563
-9.95602
-9.68782
-9.34077
-8.91831
-8.44636
-7.92559
-7.36225
-6.76101
-6.15507
-5.57029
-5.01746
-4.51841
-4.2021
-4.06767
-3.9698
-3.82241
-3.57047
-3.19125
-2.67406
-2.01582
-1.21634
-0.277908
0.795922
1.99954
3.32415
4.75637
6.27843
7.86868
9.50276
11.1547
12.7983
14.4084
15.9613
17.4361
18.8142
20.0825
21.2344
22.2689
23.1887
23.9974
24.6981
25.2933
25.7847
26.1741
26.4639
26.6577
26.761
26.7801
26.7224
26.5964
26.4109
26.1749
25.8976
25.5874
25.2525
24.9003
24.5379
24.1713
23.8059
23.4467
23.0976
22.7624
22.4438
22.1444
21.8659
21.6095
21.376
21.1657
20.9789
20.8152
20.6743
20.5558
20.4584
20.381
20.3221
20.2798
20.2516
20.2336
20.2203
20.2056
20.1841
20.1521
20.1115
20.0711
20.0418
20.0184
19.9777
19.9258
19.8805
19.8308
19.7741
19.719
19.6711
19.629
19.5914
19.5611
19.541
19.532
19.5327
19.5536
19.5866
19.6518
19.6913
0.831404
0.74897
0.543785
0.252267
-0.0501798
-0.346094
-0.66724
-1.05339
-1.52336
-2.05972
-2.62102
-3.16877
-3.66977
-4.10028
-4.44306
-4.68926
-4.83719
-4.89119
-4.86299
-4.76951
-4.62066
-4.42809
-4.21404
-4.00424
-3.80843
-3.67396
-3.59658
-3.58997
-3.68563
-3.88887
-4.20598
-4.6194
-5.10383
-5.61708
-6.12139
-6.58398
-7.04092
-7.53097
-8.0443
-8.55889
-8.99185
-9.30107
-9.47661
-9.66207
-9.95099
-10.2804
-10.5956
-10.9437
-11.2491
-11.4654
-11.6187
-11.7005
-11.7088
-11.6659
-11.6082
-11.5431
-11.4833
-11.438
-11.4122
-11.4109
-11.4505
-11.5387
-11.6847
-11.8677
-12.0787
-12.2953
-12.4917
-12.636
-12.6988
-12.6602
-12.5178
-12.3018
-12.0532
-11.8121
-11.5989
-11.3994
-11.189
-10.9419
-10.6297
-10.2381
-9.76636
-9.23317
-8.65386
-8.05116
-7.45889
-6.92037
-6.48245
-6.11456
-5.80788
-5.56038
-5.34977
-5.12488
-4.84956
-4.48933
-4.02458
-3.441
-2.73196
-1.89315
-0.923225
0.177567
1.40577
2.75433
4.21117
5.75942
7.3778
9.0413
10.723
12.3963
14.036
15.6188
17.1231
18.5295
19.8229
20.9956
22.0472
22.9811
23.802
24.5142
25.1204
25.6224
26.022
26.321
26.5234
26.6347
26.661
26.6102
26.4906
26.3111
26.0809
25.8088
25.5036
25.1732
24.825
24.4662
24.1026
23.7399
23.3829
23.0357
22.7019
22.3845
22.0859
21.8078
21.5516
21.318
21.1075
20.92
20.7554
20.6132
20.4929
20.3933
20.3132
20.2511
20.2048
20.1718
20.1484
20.13
20.1113
20.0876
20.0562
20.0185
19.9795
19.9441
19.9119
19.8791
19.8448
19.8052
19.7533
19.6941
19.6393
19.5941
19.5562
19.5237
19.4985
19.4811
19.4739
19.4719
19.4862
19.5015
19.5431
19.5419
0.830759
0.741006
0.435927
-0.0413019
-0.632452
-1.27506
-1.92534
-2.57416
-3.21467
-3.83238
-4.40712
-4.92118
-5.3582
-5.7068
-5.96339
-6.13167
-6.21748
-6.22927
-6.18191
-6.08317
-5.9466
-5.78411
-5.6073
-5.438
-5.30177
-5.20251
-5.1558
-5.16152
-5.23039
-5.37217
-5.59632
-5.90586
-6.29411
-6.73656
-7.20488
-7.6931
-8.23117
-8.84175
-9.49001
-10.0924
-10.5807
-10.9449
-11.1787
-11.3872
-11.6606
-11.9982
-12.3594
-12.7014
-12.9867
-13.1947
-13.3155
-13.3548
-13.3257
-13.2563
-13.1797
-13.0957
-13.0043
-12.9077
-12.8183
-12.7599
-12.7707
-12.8789
-13.0722
-13.3198
-13.5961
-13.872
-14.1156
-14.2887
-14.3555
-14.2914
-14.0998
-13.821
-13.5126
-13.219
-12.9573
-12.7225
-12.4748
-12.1729
-11.7933
-11.3353
-10.8021
-10.2169
-9.6133
-9.02614
-8.48283
-8.05423
-7.73515
-7.48731
-7.25511
-7.01759
-6.75911
-6.45756
-6.09553
-5.65229
-5.1134
-4.46667
-3.7053
-2.82362
-1.81753
-0.684405
0.574943
1.9551
3.44477
5.02742
6.68212
8.38349
10.1036
11.815
13.4927
15.1141
16.6578
18.1029
19.4317
20.6344
21.7109
22.6657
23.5053
24.2349
24.8577
25.3758
25.7903
26.1033
26.3186
26.4416
26.4788
26.4381
26.3281
26.1576
25.936
25.6721
25.3744
25.0509
24.7091
24.3557
23.997
23.6383
23.2844
22.9399
22.6082
22.2925
21.9951
21.718
21.4626
21.2295
21.0192
20.8317
20.6668
20.524
20.4026
20.3013
20.2188
20.1535
20.1035
20.0663
20.0387
20.0164
19.9952
19.9714
19.9427
19.9097
19.875
19.8409
19.8084
19.7741
19.7341
19.6886
19.6393
19.5825
19.5247
19.4765
19.4387
19.4085
19.3867
19.3717
19.3675
19.3682
19.3839
19.393
19.4139
19.3818
0.645123
0.410904
-0.0994932
-0.799808
-1.58482
-2.386
-3.1685
-3.91529
-4.61694
-5.267
-5.85877
-6.37869
-6.81267
-7.15028
-7.38947
-7.53848
-7.61092
-7.6217
-7.58589
-7.51542
-7.4195
-7.30692
-7.19562
-7.10217
-7.04048
-7.01916
-7.03864
-7.09325
-7.17581
-7.28234
-7.41692
-7.59225
-7.82464
-8.12446
-8.49666
-8.95001
-9.50189
-10.1509
-10.8402
-11.4923
-12.0451
-12.4967
-12.863
-13.1897
-13.5198
-13.8732
-14.2355
-14.5715
-14.8548
-15.0668
-15.1904
-15.2234
-15.1769
-15.0822
-14.9704
-14.8454
-14.708
-14.5655
-14.4385
-14.3581
-14.3739
-14.4986
-14.7015
-14.9545
-15.2352
-15.5156
-15.7612
-15.9297
-15.9829
-15.8937
-15.6638
-15.3347
-14.9645
-14.6033
-14.2752
-13.9781
-13.6812
-13.3385
-12.9179
-12.4159
-11.8468
-11.2444
-10.6551
-10.1219
-9.68074
-9.36359
-9.14181
-8.95209
-8.7503
-8.52166
-8.24923
-7.91498
-7.50463
-7.00427
-6.4052
-5.70079
-4.88755
-3.96103
-2.91577
-1.74671
-0.452368
0.963304
2.49004
4.11215
5.80891
7.55425
9.31841
11.0727
12.7922
14.456
16.0443
17.535
18.907
20.1481
21.2572
22.2402
23.1049
23.8578
24.503
25.0423
25.4766
25.8078
26.0398
26.178
26.2294
26.2021
26.1047
25.9465
25.7366
25.4837
25.1963
24.8821
24.5484
24.2023
23.8496
23.4959
23.1464
22.8055
22.4769
22.1637
21.8684
21.5931
21.3391
21.1073
20.8982
20.7117
20.5477
20.4054
20.2839
20.1819
20.0981
20.0307
19.9779
19.9373
19.906
19.8805
19.8573
19.8334
19.8067
19.7773
19.7464
19.7157
19.6861
19.655
19.6171
19.5722
19.5222
19.4643
19.402
19.3444
19.2988
19.2664
19.2458
19.2333
19.2319
19.235
19.2491
19.2544
19.2615
19.2155
0.149783
-0.268793
-0.991618
-1.79932
-2.6498
-3.49507
-4.30214
-5.07901
-5.82328
-6.5283
-7.18167
-7.76419
-8.25705
-8.64586
-8.9296
-9.11923
-9.22928
-9.27647
-9.27971
-9.25564
-9.21581
-9.17172
-9.13657
-9.12145
-9.13674
-9.18712
-9.26951
-9.37408
-9.48725
-9.59766
-9.70211
-9.81101
-9.94958
-10.1508
-10.4405
-10.8448
-11.3678
-11.9968
-12.6786
-13.3533
-13.9702
-14.5092
-14.977
-15.3907
-15.7711
-16.1375
-16.4887
-16.8057
-17.0677
-17.255
-17.3547
-17.367
-17.2946
-17.1567
-16.9845
-16.7961
-16.6033
-16.4186
-16.2627
-16.1777
-16.2042
-16.3225
-16.4966
-16.7023
-16.9222
-17.1336
-17.3102
-17.4184
-17.4238
-17.2986
-17.0355
-16.6628
-16.2264
-15.7767
-15.3553
-14.9742
-14.6073
-14.2148
-13.7653
-13.2521
-12.6912
-12.1306
-11.6139
-11.1794
-10.8597
-10.6543
-10.5151
-10.3799
-10.2223
-10.0271
-9.77211
-9.43852
-9.0106
-8.47729
-7.83451
-7.08236
-6.22244
-5.25288
-4.16851
-2.96274
-1.63256
-0.180477
1.38501
3.04896
4.79102
6.58418
8.39662
10.1974
11.9612
13.6688
15.3025
16.8402
18.2595
19.5451
20.6941
21.7122
22.6084
23.3908
24.0642
24.6297
25.0879
25.441
25.6929
25.8495
25.9181
25.9072
25.8256
25.6826
25.4871
25.2479
24.9729
24.6699
24.3461
24.008
23.6622
23.3143
22.9696
22.6326
22.3073
21.9969
21.7042
21.4312
21.1794
20.9497
20.7428
20.5586
20.3966
20.2562
20.1362
20.0354
19.952
19.8841
19.8297
19.7864
19.7518
19.723
19.6971
19.6721
19.6463
19.6193
19.5919
19.5651
19.5396
19.5133
19.4823
19.4446
19.3996
19.3454
19.2838
19.2212
19.1653
19.1219
19.0951
19.0796
19.0753
19.0765
19.0872
19.0894
19.0873
19.034
-0.967612
-1.41465
-2.10092
-2.84428
-3.62292
-4.4235
-5.22444
-6.01867
-6.79983
-7.56459
-8.2915
-8.95549
-9.5342
-10.0116
-10.3848
-10.6636
-10.8632
-11.003
-11.1034
-11.1789
-11.2395
-11.2952
-11.3562
-11.4323
-11.5303
-11.6522
-11.795
-11.9502
-12.1055
-12.2482
-12.3705
-12.4767
-12.5894
-12.7517
-13.0041
-13.3866
-13.8967
-14.512
-15.1949
-15.8984
-16.572
-17.1849
-17.7253
-18.1945
-18.6025
-18.9599
-19.2693
-19.5242
-19.7104
-19.8181
-19.8446
-19.7923
-19.6511
-19.4273
-19.1581
-18.8795
-18.6144
-18.3787
-18.1984
-18.1164
-18.146
-18.2394
-18.3588
-18.4879
-18.6145
-18.721
-18.7878
-18.7909
-18.7044
-18.5056
-18.185
-17.7552
-17.2487
-16.7082
-16.1781
-15.6853
-15.2257
-14.7737
-14.3052
-13.8109
-13.3036
-12.8284
-12.4232
-12.1188
-11.9296
-11.8319
-11.7702
-11.6999
-11.604
-11.4633
-11.2522
-10.9491
-10.5333
-9.99289
-9.32652
-8.54044
-7.64349
-6.63822
-5.52078
-4.28276
-2.91853
-1.42985
0.174038
1.87901
3.66575
5.50716
7.36958
9.2199
11.0312
12.7836
14.4606
16.0435
17.5111
18.8449
20.0383
21.0963
22.029
22.8461
23.5517
24.1465
24.6315
25.0089
25.2832
25.4605
25.5489
25.5569
25.4938
25.3686
25.19
24.9662
24.7052
24.4143
24.1008
23.7715
23.433
23.0912
22.7515
22.4185
22.0966
21.7892
21.4992
21.2289
20.9801
20.7537
20.5503
20.3698
20.2115
20.0747
19.958
19.8598
19.7783
19.7114
19.6566
19.6117
19.5742
19.5422
19.5137
19.4873
19.462
19.4375
19.4138
19.3915
19.3707
19.3505
19.3279
19.3006
19.2667
19.2237
19.1704
19.1092
19.0464
18.9903
18.9489
18.923
18.9103
18.905
18.9083
18.9043
18.8939
18.8357
-2.07514
-2.43657
-2.94841
-3.57939
-4.29158
-5.04367
-5.82165
-6.62122
-7.44189
-8.26997
-9.07698
-9.83519
-10.5219
-11.122
-11.6306
-12.0521
-12.3981
-12.6851
-12.9286
-13.1397
-13.3281
-13.5037
-13.6769
-13.8553
-14.0434
-14.2429
-14.4515
-14.6638
-14.8706
-15.0608
-15.2255
-15.3673
-15.5086
-15.6954
-15.978
-16.3901
-16.9295
-17.5765
-18.3015
-19.0599
-19.7992
-20.4824
-21.0852
-21.5926
-22.0002
-22.3116
-22.5362
-22.6786
-22.7326
-22.7037
-22.5998
-22.4202
-22.1484
-21.7908
-21.393
-21.0084
-20.6658
-20.3806
-20.1774
-20.0941
-20.1127
-20.166
-20.2217
-20.272
-20.3027
-20.3009
-20.2538
-20.1448
-19.9531
-19.6577
-19.2477
-18.7301
-18.1297
-17.4842
-16.8372
-16.2257
-15.6633
-15.1438
-14.6548
-14.19
-13.7613
-13.3953
-13.1178
-12.9477
-12.8795
-12.8735
-12.8785
-12.8703
-12.8379
-12.7593
-12.6086
-12.3588
-11.9798
-11.4552
-10.7842
-9.97959
-9.05848
-8.02903
-6.88842
-5.62643
-4.23421
-2.71374
-1.07676
0.662987
2.48761
4.37166
6.28134
8.1807
10.0394
11.8342
13.5512
15.1772
16.6917
18.0723
19.3104
20.4102
21.3828
22.2371
22.9768
23.6028
24.1161
24.5196
24.8181
25.0186
25.1293
25.159
25.1169
25.0115
24.8513
24.644
24.3975
24.1191
23.8161
23.4956
23.1644
22.8285
22.4936
22.1647
21.8461
21.5418
21.2548
20.9877
20.7423
20.5199
20.3208
20.145
19.9917
19.8598
19.7477
19.6534
19.575
19.5099
19.4558
19.4101
19.371
19.337
19.3071
19.2805
19.2567
19.2352
19.2159
19.1987
19.1836
19.1697
19.1553
19.1382
19.1164
19.0878
19.0493
18.9992
18.9395
18.8762
18.8199
18.7765
18.7484
18.7297
18.7203
18.7064
18.6869
18.6238
-2.68252
-2.95441
-3.37275
-3.92586
-4.58048
-5.3011
-6.07055
-6.88425
-7.74382
-8.63293
-9.52059
-10.3813
-11.1925
-11.9365
-12.6045
-13.196
-13.719
-14.1843
-14.6004
-14.974
-15.3146
-15.6334
-15.9401
-16.2402
-16.5363
-16.8299
-17.12
-17.4034
-17.6739
-17.9236
-18.1481
-18.3557
-18.5699
-18.8375
-19.2087
-19.7065
-20.3289
-21.058
-21.8653
-22.7028
-23.5179
-24.2678
-24.9145
-25.4299
-25.7997
-26.0265
-26.1293
-26.1204
-26.0022
-25.7934
-25.5093
-25.1482
-24.6994
-24.1806
-23.646
-23.1522
-22.7288
-22.3897
-22.1541
-22.05
-22.0333
-22.032
-22.0264
-22.0121
-21.9676
-21.8785
-21.7327
-21.5153
-21.2092
-20.7986
-20.2767
-19.65
-18.9415
-18.1858
-17.4262
-16.7057
-16.0524
-15.476
-14.9726
-14.5376
-14.1802
-13.9161
-13.7587
-13.7091
-13.7398
-13.799
-13.8489
-13.8866
-13.9076
-13.8881
-13.8044
-13.6205
-13.2928
-12.7978
-12.1346
-11.3246
-10.3933
-9.3534
-8.20228
-6.92787
-5.51762
-3.97338
-2.31005
-0.542469
1.31255
3.23265
5.18397
7.12505
9.02254
10.8533
12.6052
14.27
15.8257
17.2479
18.5283
19.67
20.683
21.5749
22.3491
23.0067
23.5493
23.9803
24.3053
24.5314
24.667
24.7208
24.7015
24.6173
24.4761
24.2854
24.0531
23.7866
23.4938
23.1816
22.8571
22.5266
22.1962
21.8711
21.5559
21.2546
20.9706
20.7067
20.4648
20.2462
20.0515
19.8806
19.7327
19.6063
19.4996
19.4104
19.336
19.2739
19.2216
19.1771
19.1389
19.1061
19.078
19.0541
19.034
19.0173
19.0035
18.9923
18.9835
18.9764
18.9697
18.9616
18.9508
18.9354
18.9125
18.8785
18.8311
18.7713
18.7073
18.6487
18.6012
18.5641
18.5364
18.5063
18.4732
18.403
-2.84805
-3.06557
-3.43216
-3.94273
-4.56603
-5.27256
-6.04416
-6.8778
-7.77491
-8.72104
-9.68971
-10.6576
-11.6015
-12.5001
-13.3399
-14.116
-14.8306
-15.4872
-16.0889
-16.6407
-17.1534
-17.6383
-18.1024
-18.5487
-18.9781
-19.3914
-19.7877
-20.1656
-20.5213
-20.8524
-21.1621
-21.4665
-21.7977
-22.1978
-22.7039
-23.3299
-24.0725
-24.9111
-25.815
-26.7328
-27.6124
-28.4036
-29.0618
-29.5537
-29.8621
-29.9894
-29.9596
-29.7825
-29.4678
-29.0475
-28.5477
-27.9696
-27.3137
-26.6123
-25.9293
-25.3196
-24.8057
-24.3986
-24.1137
-23.9655
-23.894
-23.8317
-23.7685
-23.698
-23.5912
-23.4277
-23.1939
-22.8746
-22.4553
-21.9253
-21.2846
-20.5449
-19.7298
-18.8734
-18.0186
-17.2118
-16.4906
-15.875
-15.3663
-14.959
-14.657
-14.4707
-14.4068
-14.4503
-14.5528
-14.6505
-14.7219
-14.7863
-14.8439
-14.8701
-14.846
-14.7253
-14.4489
-13.9865
-13.3374
-12.5297
-11.5975
-10.558
-9.4087
-8.13474
-6.71941
-5.16285
-3.48145
-1.6909
0.192475
2.14479
4.12754
6.0968
8.01845
9.87384
11.6522
13.3454
14.933
16.3915
17.7109
18.8924
19.944
20.872
21.6794
22.368
22.9401
23.3999
23.7533
24.0073
24.1699
24.2494
24.2537
24.1907
24.068
23.8933
23.6743
23.419
23.135
22.83
22.5111
22.1852
21.8585
21.5367
21.2246
20.9265
20.6456
20.3848
20.1461
19.931
19.7403
19.5737
19.4306
19.3096
19.2083
19.124
19.0542
18.9962
18.9481
18.9082
18.8755
18.849
18.8278
18.8109
18.7978
18.7879
18.781
18.7768
18.775
18.775
18.7757
18.7754
18.773
18.7676
18.7569
18.7376
18.7059
18.6588
18.5989
18.5333
18.4709
18.4137
18.3647
18.3144
18.263
18.1806
-2.71417
-2.90648
-3.25857
-3.76141
-4.38811
-5.11325
-5.91973
-6.80116
-7.75591
-8.77228
-9.83019
-10.9079
-11.9824
-13.0312
-14.0381
-14.9938
-15.8944
-16.7372
-17.5217
-18.2536
-18.9439
-19.6028
-20.2353
-20.8411
-21.418
-21.9636
-22.4776
-22.9612
-23.4153
-23.8445
-24.2608
-24.686
-25.1525
-25.6952
-26.3401
-27.0935
-27.9471
-28.8791
-29.8567
-30.8304
-31.748
-32.5568
-33.2104
-33.6725
-33.9224
-33.9601
-33.8099
-33.476
-32.9765
-32.3529
-31.636
-30.8367
-29.9721
-29.0868
-28.2505
-27.5179
-26.9047
-26.4158
-26.0636
-25.8524
-25.7134
-25.5851
-25.4601
-25.3287
-25.1564
-24.9151
-24.5912
-24.1701
-23.6404
-22.9979
-22.2481
-21.4066
-20.5003
-19.5652
-18.645
-17.785
-17.0245
-16.3891
-15.8843
-15.5032
-15.2464
-15.1195
-15.1238
-15.2301
-15.3732
-15.4803
-15.5463
-15.6145
-15.6886
-15.7405
-15.7568
-15.6812
-15.4413
-15.0034
-14.3657
-13.5631
-12.6364
-11.6069
-10.4705
-9.20811
-7.79885
-6.23878
-4.54279
-2.72907
-0.819884
1.15562
3.15406
5.13242
7.05983
8.92361
10.7154
12.4266
14.0379
15.5263
16.8797
18.0969
19.183
20.1432
20.9807
21.6983
22.2994
22.7887
23.1716
23.4547
23.645
23.7502
23.7774
23.7343
23.6285
23.4681
23.261
23.0151
22.7384
22.4388
22.1241
21.8014
21.4778
21.1588
20.8496
20.5543
20.2765
20.0188
19.7832
19.5716
19.3844
19.2217
19.0827
18.9659
18.8689
18.7892
18.7243
18.6721
18.6314
18.6011
18.5796
18.5652
18.5561
18.5508
18.5483
18.5482
18.5505
18.5551
18.5616
18.5692
18.5767
18.5828
18.5865
18.5873
18.5844
18.5755
18.5574
18.5258
18.4784
18.4173
18.3492
18.2783
18.2092
18.1374
18.0646
17.9661
-2.50401
-2.69233
-3.05546
-3.58415
-4.25676
-5.04871
-5.93853
-6.91135
-7.95942
-9.07076
-10.2299
-11.4172
-12.6116
-13.7925
-14.9428
-16.05
-17.1053
-18.1038
-19.0468
-19.9412
-20.7955
-21.615
-22.4001
-23.1469
-23.8501
-24.5071
-25.1184
-25.6884
-26.224
-26.7383
-27.2516
-27.789
-28.3783
-29.041
-29.7897
-30.6254
-31.5375
-32.5098
-33.5109
-34.4955
-35.4117
-36.2061
-36.8313
-37.2514
-37.445
-37.4054
-37.1465
-36.6773
-36.0281
-35.2533
-34.3872
-33.4423
-32.444
-31.4414
-30.4985
-29.6688
-28.9713
-28.4067
-27.9823
-27.6989
-27.4853
-27.2839
-27.0861
-26.8773
-26.6234
-26.2919
-25.8658
-25.3378
-24.7024
-23.9584
-23.1164
-22.1962
-21.2267
-20.2465
-19.2985
-18.4232
-17.6558
-17.021
-16.5294
-16.1755
-15.9559
-15.8713
-15.9183
-16.0558
-16.2108
-16.3083
-16.3539
-16.4057
-16.4725
-16.5282
-16.5534
-16.4905
-16.2634
-15.8356
-15.2055
-14.4118
-13.4977
-12.4837
-11.3623
-10.1107
-8.70537
-7.14158
-5.43305
-3.60184
-1.67761
0.304635
2.29781
4.26165
6.17367
8.02846
9.82082
11.5401
13.1662
14.6767
16.0573
17.3035
18.4178
19.4043
20.2675
21.0112
21.6399
22.1579
22.57
22.8816
23.0983
23.227
23.2746
23.2488
23.1576
23.0091
22.8114
22.5725
22.3008
22.0048
21.6929
21.3728
21.0516
20.7353
20.429
20.1368
19.862
19.6072
19.3747
19.1661
18.982
18.8224
18.6866
18.5731
18.4799
18.405
18.3468
18.3039
18.2752
18.2591
18.2533
18.2551
18.2618
18.2715
18.283
18.296
18.3105
18.3264
18.3429
18.3587
18.3727
18.3837
18.3913
18.3957
18.3968
18.3938
18.3846
18.3656
18.3331
18.2845
18.2216
18.1466
18.0653
17.9749
17.881
17.7643
-2.34961
-2.54976
-2.95166
-3.54658
-4.31427
-5.22514
-6.2492
-7.36145
-8.54434
-9.78341
-11.0628
-12.3638
-13.6663
-14.9512
-16.2033
-17.4117
-18.568
-19.6681
-20.7146
-21.7139
-22.6715
-23.5895
-24.4653
-25.2931
-26.0681
-26.7898
-27.4622
-28.0936
-28.6954
-29.2842
-29.8799
-30.5016
-31.1656
-31.884
-32.6644
-33.5082
-34.411
-35.3612
-36.3296
-37.2726
-38.139
-38.8792
-39.4501
-39.8186
-39.9657
-39.874
-39.5408
-38.9876
-38.2588
-37.4094
-36.4825
-35.4949
-34.4711
-33.4509
-32.4866
-31.6247
-30.8909
-30.2858
-29.8073
-29.4515
-29.1562
-28.8734
-28.5915
-28.288
-27.932
-27.4956
-26.9616
-26.328
-25.5932
-24.7612
-23.8499
-22.8795
-21.8802
-20.8906
-19.9509
-19.0957
-18.3511
-17.7434
-17.2805
-16.9566
-16.7707
-16.7175
-16.7857
-16.9256
-17.066
-17.1367
-17.1465
-17.156
-17.1876
-17.219
-17.2228
-17.1442
-16.9119
-16.4865
-15.866
-15.0872
-14.1877
-13.1826
-12.0631
-10.8074
-9.39495
-7.82354
-6.10818
-4.27232
-2.35159
-0.385545
1.57877
3.50594
5.38297
7.21377
8.99445
10.711
12.3421
13.8653
15.2643
16.5308
17.6649
18.6709
19.5542
20.3204
20.974
21.5184
21.9572
22.2941
22.5337
22.6821
22.7463
22.7343
22.6544
22.5146
22.3232
22.0886
21.82
21.5265
21.217
20.8994
20.5811
20.268
19.965
19.6758
19.4036
19.1513
18.9211
18.7146
18.5323
18.3741
18.2401
18.1293
18.0404
17.9729
17.9258
17.8976
17.886
17.888
17.9003
17.9198
17.9439
17.9706
17.9988
18.0279
18.0575
18.0868
18.1144
18.1389
18.159
18.1743
18.1847
18.191
18.1937
18.1931
18.1883
18.1776
18.1576
18.1237
18.0733
18.0047
17.9211
17.8209
17.7107
17.5767
-2.27913
-2.50768
-2.97544
-3.67099
-4.57188
-5.63808
-6.82755
-8.10478
-9.44254
-10.8201
-12.2181
-13.6182
-15.0018
-16.3523
-17.6586
-18.9138
-20.1123
-21.2484
-22.3224
-23.3411
-24.3134
-25.2455
-26.1391
-26.9907
-27.7965
-28.555
-29.2679
-29.9404
-30.5804
-31.2001
-31.8144
-32.4382
-33.0847
-33.7664
-34.4934
-35.2704
-36.0977
-36.9661
-37.8499
-38.7085
-39.4978
-40.1747
-40.702
-41.0452
-41.1841
-41.0982
-40.7716
-40.2218
-39.5065
-38.6769
-37.783
-36.8478
-35.8927
-34.9504
-34.0571
-33.2439
-32.5374
-31.9377
-31.4365
-31.0202
-30.6417
-30.2692
-29.8918
-29.4829
-29.0156
-28.4709
-27.8341
-27.1026
-26.2786
-25.3732
-24.4138
-23.4254
-22.4327
-21.4675
-20.5661
-19.7591
-19.0651
-18.5031
-18.0819
-17.8014
-17.6529
-17.6208
-17.6845
-17.7962
-17.8997
-17.9334
-17.8952
-17.841
-17.8107
-17.7909
-17.748
-17.6329
-17.3846
-16.9636
-16.3615
-15.6026
-14.7124
-13.7005
-12.5611
-11.2803
-9.84751
-8.26769
-6.55636
-4.73557
-2.84032
-0.912828
1.00244
2.87677
4.70652
6.50238
8.26049
9.96356
11.5882
13.1125
14.5181
15.7942
16.9386
17.9559
18.8529
19.6364
20.3107
20.8778
21.3392
21.6968
21.9542
22.1174
22.1937
22.1912
22.1183
21.9833
21.795
21.5627
21.2963
21.0053
20.6987
20.3847
20.0702
19.7609
19.4615
19.1752
18.9053
18.6546
18.4257
18.2193
18.0363
17.8778
17.744
17.6351
17.5523
17.4962
17.4658
17.4576
17.4675
17.4906
17.5226
17.5607
17.6028
17.6477
17.6944
17.7417
17.7882
17.832
17.871
17.9038
17.9298
17.9489
17.9616
17.969
17.9723
17.9723
17.9696
17.9634
17.9518
17.9305
17.8949
17.8395
17.7636
17.6637
17.5461
17.4006
-2.18151
-2.44551
-2.9906
-3.7967
-4.83913
-6.06706
-7.42878
-8.87648
-10.3751
-11.8966
-13.4195
-14.9252
-16.3922
-17.7981
-19.1283
-20.3802
-21.5586
-22.6624
-23.6924
-24.6571
-25.5703
-26.4453
-27.2897
-28.1006
-28.8709
-29.5929
-30.263
-30.8829
-31.4612
-32.0108
-32.5482
-33.0907
-33.6518
-34.2434
-34.8755
-35.5545
-36.2791
-37.0421
-37.8227
-38.5885
-39.3029
-39.9296
-40.4378
-40.7947
-40.9738
-40.9579
-40.7239
-40.2786
-39.6739
-38.9665
-38.2052
-37.4143
-36.6111
-35.819
-35.0629
-34.3628
-33.735
-33.1845
-32.7001
-32.2559
-31.8134
-31.3618
-30.8984
-30.3939
-29.825
-29.1826
-28.4578
-27.6492
-26.7616
-25.8107
-24.8339
-23.8557
-22.8951
-21.9787
-21.1389
-20.3995
-19.7726
-19.2767
-18.9162
-18.6804
-18.5596
-18.5322
-18.5614
-18.6097
-18.6502
-18.6316
-18.5364
-18.4105
-18.3029
-18.2118
-18.1065
-17.9438
-17.6756
-17.2656
-16.6926
-15.9573
-15.0675
-14.0294
-12.8493
-11.5307
-10.0755
-8.49281
-6.79782
-5.00936
-3.15923
-1.28763
0.566141
2.38079
4.15944
5.91396
7.63887
9.31492
10.9203
12.4321
13.8313
15.1046
16.2484
17.2677
18.1712
18.9662
19.6561
20.2409
20.7197
21.0928
21.3629
21.5354
21.6181
21.6195
21.5485
21.4142
21.2265
20.9956
20.732
20.4449
20.1434
19.8354
19.5268
19.2227
18.9276
18.6445
18.3765
18.1265
17.8966
17.6882
17.5021
17.3401
17.205
17.0989
17.025
16.9843
16.974
16.9883
17.0217
17.0676
17.1211
17.1794
17.241
17.3053
17.3713
17.4375
17.5009
17.5585
17.6079
17.6481
17.6793
17.7018
17.7166
17.7252
17.729
17.7295
17.7279
17.7243
17.718
17.7058
17.6833
17.6434
17.5819
17.492
17.377
17.2283
-1.83102
-2.13875
-2.76107
-3.67523
-4.86077
-6.25908
-7.81489
-9.47095
-11.1808
-12.9034
-14.6028
-16.2471
-17.8036
-19.2392
-20.5374
-21.7044
-22.7625
-23.7277
-24.6082
-25.4131
-26.1565
-26.8555
-27.5221
-28.159
-28.7607
-29.3235
-29.8495
-30.3409
-30.8078
-31.2616
-31.7145
-32.1771
-32.6582
-33.1662
-33.7114
-34.2984
-34.9264
-35.5922
-36.2828
-36.9749
-37.6396
-38.2456
-38.7651
-39.1698
-39.4323
-39.5374
-39.4625
-39.2074
-38.8028
-38.3048
-37.7554
-37.1852
-36.599
-36.008
-35.4288
-34.8774
-34.365
-33.8956
-33.4599
-33.0284
-32.5661
-32.0724
-31.5516
-30.9799
-30.3381
-29.6243
-28.8375
-27.9822
-27.0661
-26.1057
-25.1357
-24.1841
-23.2678
-22.4118
-21.6502
-20.9996
-20.4582
-20.0368
-19.7384
-19.5542
-19.4577
-19.4186
-19.3953
-19.3526
-19.2906
-19.1883
-19.0202
-18.8193
-18.628
-18.454
-18.2778
-18.0653
-17.7798
-17.3865
-16.8495
-16.1391
-15.2424
-14.1654
-12.9332
-11.5742
-10.1034
-8.53033
-6.8644
-5.12233
-3.33152
-1.52647
0.26104
2.01604
3.74316
5.44984
7.12919
8.76411
10.3353
11.8203
13.1988
14.4562
15.5885
16.6018
17.5055
18.3064
19.0061
19.6026
20.0927
20.4752
20.7517
20.9274
21.0099
21.009
20.9349
20.7986
20.6112
20.3836
20.1258
19.8467
19.5548
19.2565
18.9573
18.6615
18.3727
18.0937
17.8273
17.5767
17.3443
17.13
16.9369
16.7689
16.6313
16.5298
16.4675
16.4438
16.4539
16.4907
16.5473
16.6163
16.6926
16.7734
16.8569
16.9423
17.0283
17.1122
17.1903
17.2591
17.317
17.3635
17.3997
17.426
17.4436
17.4542
17.4597
17.4616
17.4612
17.4596
17.457
17.4515
17.4395
17.4142
17.3698
17.2966
17.1933
17.0507
-1.02162
-1.3956
-2.11069
-3.14644
-4.4897
-6.0868
-7.87782
-9.78417
-11.7332
-13.6556
-15.4926
-17.1958
-18.7291
-20.0605
-21.1794
-22.107
-22.8878
-23.5648
-24.1576
-24.6795
-25.1459
-25.58
-26.0045
-26.4276
-26.8456
-27.2544
-27.6549
-28.05
-28.4459
-28.8509
-29.2712
-29.709
-30.1656
-30.6483
-31.167
-31.7237
-32.3143
-32.9391
-33.5903
-34.252
-34.9037
-35.5212
-36.0813
-36.5584
-36.9299
-37.1791
-37.2897
-37.2552
-37.0894
-36.8315
-36.5193
-36.1822
-35.8318
-35.4674
-35.0898
-34.7069
-34.3285
-33.9624
-33.6042
-33.2248
-32.7919
-32.3075
-31.7801
-31.1888
-30.521
-29.7793
-28.9674
-28.0967
-27.1807
-26.2373
-25.2958
-24.3838