/*--------------------------------*- C++ -*----------------------------------*\
  =========                 |
  \\      /  F ield         | OpenFOAM: The Open Source CFD Toolbox
   \\    /   O peration     | Website:  https://openfoam.org
    \\  /    A nd           | Version:  10
     \\/     M anipulation  |
\*---------------------------------------------------------------------------*/
FoamFile
{
    format      ascii;
    class       volScalarField;
    location    "0.081";
    object      pPrime2Mean;
}
// * * * * * * * * * * * * * * * * * * * * * * * * * * * * * * * * * * * * * //

dimensions      [0 4 -4 0 0 0 0];

internalField   nonuniform List<scalar> 
12225
(
5.30467e+06
5.2214e+06
5.13551e+06
5.05235e+06
4.97222e+06
4.89496e+06
4.82041e+06
4.74839e+06
4.67868e+06
4.61107e+06
4.54528e+06
4.48101e+06
4.41789e+06
4.35546e+06
4.29305e+06
4.22963e+06
4.16336e+06
4.08956e+06
5.30481e+06
5.22146e+06
5.13556e+06
5.05241e+06
4.97228e+06
4.89502e+06
4.82048e+06
4.74847e+06
4.67878e+06
4.61119e+06
4.54543e+06
4.4812e+06
4.41816e+06
4.35582e+06
4.29359e+06
4.2305e+06
4.16502e+06
4.09371e+06
5.30503e+06
5.2216e+06
5.13568e+06
5.05253e+06
4.9724e+06
4.89516e+06
4.82063e+06
4.74865e+06
4.679e+06
4.61145e+06
4.54576e+06
4.48164e+06
4.41873e+06
4.35662e+06
4.29475e+06
4.23236e+06
4.16835e+06
4.10139e+06
5.30528e+06
5.22181e+06
5.13588e+06
5.05273e+06
4.97261e+06
4.89539e+06
4.82089e+06
4.74895e+06
4.67936e+06
4.6119e+06
4.54632e+06
4.48235e+06
4.41967e+06
4.35791e+06
4.29662e+06
4.23524e+06
4.17321e+06
4.11061e+06
5.30558e+06
5.22212e+06
5.13618e+06
5.05302e+06
4.97292e+06
4.89572e+06
4.82127e+06
4.74939e+06
4.67989e+06
4.61254e+06
4.54713e+06
4.48338e+06
4.42103e+06
4.35976e+06
4.29922e+06
4.23911e+06
4.1793e+06
4.12055e+06
5.30604e+06
5.22254e+06
5.13658e+06
5.05343e+06
4.97334e+06
4.89619e+06
4.82179e+06
4.75e+06
4.68061e+06
4.61343e+06
4.54823e+06
4.48479e+06
4.42286e+06
4.3622e+06
4.30259e+06
4.24391e+06
4.18634e+06
4.13085e+06
5.30665e+06
5.2231e+06
5.13713e+06
5.05397e+06
4.97391e+06
4.8968e+06
4.82248e+06
4.7508e+06
4.68157e+06
4.61459e+06
4.54966e+06
4.48659e+06
4.42518e+06
4.36525e+06
4.30669e+06
4.24953e+06
4.19411e+06
4.14132e+06
5.30736e+06
5.22383e+06
5.13783e+06
5.05466e+06
4.97463e+06
4.89758e+06
4.82337e+06
4.75182e+06
4.68278e+06
4.61605e+06
4.55147e+06
4.48885e+06
4.42804e+06
4.36894e+06
4.31151e+06
4.25588e+06
4.20242e+06
4.15188e+06
5.30838e+06
5.22476e+06
5.13871e+06
5.05554e+06
4.97553e+06
4.89856e+06
4.82447e+06
4.75309e+06
4.68428e+06
4.61785e+06
4.55367e+06
4.49157e+06
4.43145e+06
4.37324e+06
4.31698e+06
4.26284e+06
4.21116e+06
4.1625e+06
5.30957e+06
5.22591e+06
5.1398e+06
5.05661e+06
4.97665e+06
4.89976e+06
4.82581e+06
4.75464e+06
4.6861e+06
4.62002e+06
4.55629e+06
4.49477e+06
4.4354e+06
4.37814e+06
4.32306e+06
4.27032e+06
4.22022e+06
4.17315e+06
5.31132e+06
5.22735e+06
5.14113e+06
5.05792e+06
4.97799e+06
4.90121e+06
4.82743e+06
4.75649e+06
4.68826e+06
4.62258e+06
4.55936e+06
4.49848e+06
4.43989e+06
4.3836e+06
4.32966e+06
4.27823e+06
4.22953e+06
4.18381e+06
5.31291e+06
5.22893e+06
5.1426e+06
5.05935e+06
4.97946e+06
4.90279e+06
4.82918e+06
4.75848e+06
4.69057e+06
4.62531e+06
4.56259e+06
4.50233e+06
4.44449e+06
4.38907e+06
4.33614e+06
4.28582e+06
4.23824e+06
4.19359e+06
5.31518e+06
5.23078e+06
5.14427e+06
5.06097e+06
4.98113e+06
4.90457e+06
4.83115e+06
4.76073e+06
4.69316e+06
4.62833e+06
4.56613e+06
4.50651e+06
4.44941e+06
4.39486e+06
4.34288e+06
4.29356e+06
4.247e+06
4.20327e+06
5.31815e+06
5.23324e+06
5.1465e+06
5.06312e+06
4.98332e+06
4.90691e+06
4.83373e+06
4.76363e+06
4.69649e+06
4.63218e+06
4.57062e+06
4.51173e+06
4.45548e+06
4.40186e+06
4.3509e+06
4.30263e+06
4.25708e+06
4.21427e+06
5.32201e+06
5.23646e+06
5.1494e+06
5.06592e+06
4.98618e+06
4.90995e+06
4.83707e+06
4.76738e+06
4.70074e+06
4.63705e+06
4.57621e+06
4.51816e+06
4.46283e+06
4.41022e+06
4.3603e+06
4.31308e+06
4.26853e+06
4.22662e+06
5.32678e+06
5.24058e+06
5.15313e+06
5.06953e+06
4.98986e+06
4.91385e+06
4.84133e+06
4.77212e+06
4.70609e+06
4.6431e+06
4.58308e+06
4.52592e+06
4.47158e+06
4.41999e+06
4.37112e+06
4.32492e+06
4.28133e+06
4.24028e+06
5.33274e+06
5.24562e+06
5.15775e+06
5.07403e+06
4.99446e+06
4.91874e+06
4.84664e+06
4.77799e+06
4.71263e+06
4.65043e+06
4.59127e+06
4.53506e+06
4.48171e+06
4.43114e+06
4.38328e+06
4.33804e+06
4.29535e+06
4.25509e+06
5.33912e+06
5.25133e+06
5.16314e+06
5.07939e+06
4.99999e+06
4.92462e+06
4.85302e+06
4.78499e+06
4.72036e+06
4.65898e+06
4.60072e+06
4.54545e+06
4.49306e+06
4.44346e+06
4.39653e+06
4.35218e+06
4.31029e+06
4.27076e+06
5.34558e+06
5.25722e+06
5.1689e+06
5.08527e+06
5.00618e+06
4.93127e+06
4.86024e+06
4.79289e+06
4.72902e+06
4.66847e+06
4.61107e+06
4.55669e+06
4.5052e+06
4.45647e+06
4.41038e+06
4.36681e+06
4.32562e+06
4.28671e+06
5.34851e+06
5.26081e+06
5.17291e+06
5.08968e+06
5.01102e+06
4.93658e+06
4.86607e+06
4.79928e+06
4.73599e+06
4.67605e+06
4.61927e+06
4.56552e+06
4.51464e+06
4.4665e+06
4.42095e+06
4.37789e+06
4.33716e+06
4.29866e+06
5.34934e+06
5.2625e+06
5.17518e+06
5.0924e+06
5.01414e+06
4.94008e+06
4.86995e+06
4.80354e+06
4.74065e+06
4.6811e+06
4.62473e+06
4.57136e+06
4.52085e+06
4.47307e+06
4.42786e+06
4.38509e+06
4.34464e+06
4.30638e+06
5.34981e+06
5.26341e+06
5.17658e+06
5.09421e+06
5.0163e+06
4.94256e+06
4.87274e+06
4.80663e+06
4.74403e+06
4.68476e+06
4.62866e+06
4.57557e+06
4.52532e+06
4.47777e+06
4.43279e+06
4.39023e+06
4.34996e+06
4.31185e+06
5.34903e+06
5.26365e+06
5.17737e+06
5.09539e+06
5.01779e+06
4.9443e+06
4.87472e+06
4.80883e+06
4.74644e+06
4.68738e+06
4.63147e+06
4.57856e+06
4.52849e+06
4.48111e+06
4.43628e+06
4.39386e+06
4.35371e+06
4.31572e+06
5.3486e+06
5.26369e+06
5.17781e+06
5.09614e+06
5.01879e+06
4.94551e+06
4.8761e+06
4.81036e+06
4.74813e+06
4.68921e+06
4.63344e+06
4.58066e+06
4.53072e+06
4.48345e+06
4.43872e+06
4.39639e+06
4.35633e+06
4.31841e+06
5.3481e+06
5.26358e+06
5.17805e+06
5.09663e+06
5.01946e+06
4.94632e+06
4.87704e+06
4.81142e+06
4.74929e+06
4.69047e+06
4.6348e+06
4.58211e+06
4.53225e+06
4.48506e+06
4.4404e+06
4.39814e+06
4.35813e+06
4.32026e+06
5.34725e+06
5.26338e+06
5.17816e+06
5.09693e+06
5.01989e+06
4.94686e+06
4.87767e+06
4.81213e+06
4.75007e+06
4.69132e+06
4.63571e+06
4.58308e+06
4.53327e+06
4.48613e+06
4.44152e+06
4.3993e+06
4.35933e+06
4.3215e+06
5.34666e+06
5.2632e+06
5.17821e+06
5.09711e+06
5.02017e+06
4.94721e+06
4.87807e+06
4.81259e+06
4.75058e+06
4.69187e+06
4.6363e+06
4.58371e+06
4.53393e+06
4.48683e+06
4.44225e+06
4.40005e+06
4.36011e+06
4.32229e+06
5.34631e+06
5.26309e+06
5.17823e+06
5.09722e+06
5.02033e+06
4.94742e+06
4.87832e+06
4.81286e+06
4.75088e+06
4.6922e+06
4.63666e+06
4.58408e+06
4.53433e+06
4.48725e+06
4.44268e+06
4.4005e+06
4.36058e+06
4.32277e+06
5.34614e+06
5.26302e+06
5.17824e+06
5.09728e+06
5.02042e+06
4.94753e+06
4.87845e+06
4.81301e+06
4.75104e+06
4.69238e+06
4.63685e+06
4.58429e+06
4.53455e+06
4.48747e+06
4.44292e+06
4.40075e+06
4.36083e+06
4.32303e+06
5.34607e+06
5.263e+06
5.17825e+06
5.0973e+06
5.02045e+06
4.94758e+06
4.8785e+06
4.81307e+06
4.75111e+06
4.69245e+06
4.63692e+06
4.58437e+06
4.53463e+06
4.48756e+06
4.44301e+06
4.40085e+06
4.36093e+06
4.32314e+06
3.45681e+06
3.45654e+06
3.45598e+06
3.45514e+06
3.45401e+06
3.45258e+06
3.45085e+06
3.44881e+06
3.44647e+06
3.44382e+06
3.44086e+06
3.43757e+06
3.43396e+06
3.43002e+06
3.42576e+06
3.42116e+06
3.41624e+06
3.41098e+06
3.4054e+06
3.39948e+06
3.39323e+06
3.38666e+06
3.37976e+06
3.37254e+06
3.365e+06
3.35714e+06
3.34897e+06
3.3405e+06
3.33171e+06
3.32262e+06
3.31322e+06
3.30353e+06
3.29355e+06
3.28328e+06
3.27272e+06
3.26188e+06
3.25076e+06
3.23938e+06
3.22773e+06
3.21583e+06
3.20366e+06
3.19124e+06
3.17857e+06
3.16564e+06
3.15247e+06
3.13905e+06
3.1254e+06
3.11152e+06
3.0974e+06
3.08306e+06
3.06851e+06
3.05375e+06
3.03878e+06
3.02361e+06
3.00825e+06
2.99269e+06
2.97694e+06
2.961e+06
2.94488e+06
2.92857e+06
2.91209e+06
2.89544e+06
2.87862e+06
2.86163e+06
2.84448e+06
2.82716e+06
2.80968e+06
2.79204e+06
2.77425e+06
2.75631e+06
2.73822e+06
2.71999e+06
2.70162e+06
2.6831e+06
2.66444e+06
2.64565e+06
2.62674e+06
2.6077e+06
2.58854e+06
2.56926e+06
2.54987e+06
2.53038e+06
2.51077e+06
2.49105e+06
2.47123e+06
2.45131e+06
2.43128e+06
2.41115e+06
2.39092e+06
2.3706e+06
2.35018e+06
2.32969e+06
2.30912e+06
2.28847e+06
2.26774e+06
2.24693e+06
2.22603e+06
2.20503e+06
2.18395e+06
2.16277e+06
2.1415e+06
2.12014e+06
2.0987e+06
2.07717e+06
2.05557e+06
2.0339e+06
2.01216e+06
1.99036e+06
1.96851e+06
1.94662e+06
1.92467e+06
1.90268e+06
1.88065e+06
1.85858e+06
1.83648e+06
1.81433e+06
1.79215e+06
1.76994e+06
1.7477e+06
1.72542e+06
1.70312e+06
1.6808e+06
1.65844e+06
1.63607e+06
1.61368e+06
1.59126e+06
1.56883e+06
1.54639e+06
1.52394e+06
1.50147e+06
1.479e+06
1.45653e+06
1.43406e+06
1.41158e+06
1.38912e+06
1.36666e+06
1.3442e+06
1.32177e+06
1.29934e+06
1.27694e+06
1.25456e+06
1.23221e+06
1.20988e+06
1.18758e+06
1.16533e+06
1.14311e+06
1.12093e+06
1.0988e+06
1.07672e+06
1.05469e+06
1.03272e+06
1.01082e+06
988977
967208
945516
923904
902378
880942
859602
838362
817226
796200
775288
754497
733833
713302
692910
672665
652574
632643
612882
593298
573902
554708
535729
516986
498502
480315
462491
445169
3.45807e+06
3.45779e+06
3.45724e+06
3.45639e+06
3.45525e+06
3.45381e+06
3.45207e+06
3.45003e+06
3.44768e+06
3.44501e+06
3.44203e+06
3.43872e+06
3.43509e+06
3.43114e+06
3.42685e+06
3.42224e+06
3.41729e+06
3.41201e+06
3.4064e+06
3.40045e+06
3.39418e+06
3.38758e+06
3.38066e+06
3.37341e+06
3.36584e+06
3.35796e+06
3.34976e+06
3.34125e+06
3.33244e+06
3.32332e+06
3.31391e+06
3.3042e+06
3.2942e+06
3.2839e+06
3.27332e+06
3.26246e+06
3.25133e+06
3.23992e+06
3.22825e+06
3.21632e+06
3.20414e+06
3.19169e+06
3.17899e+06
3.16605e+06
3.15285e+06
3.13942e+06
3.12575e+06
3.11186e+06
3.09773e+06
3.08338e+06
3.06881e+06
3.05403e+06
3.03905e+06
3.02387e+06
3.00849e+06
2.99292e+06
2.97716e+06
2.96121e+06
2.94508e+06
2.92877e+06
2.91228e+06
2.89562e+06
2.87879e+06
2.8618e+06
2.84463e+06
2.82731e+06
2.80982e+06
2.79218e+06
2.77439e+06
2.75645e+06
2.73836e+06
2.72012e+06
2.70174e+06
2.68322e+06
2.66456e+06
2.64576e+06
2.62684e+06
2.60779e+06
2.58863e+06
2.56935e+06
2.54995e+06
2.53045e+06
2.51084e+06
2.49112e+06
2.4713e+06
2.45137e+06
2.43134e+06
2.4112e+06
2.39097e+06
2.37065e+06
2.35024e+06
2.32975e+06
2.30918e+06
2.28853e+06
2.2678e+06
2.24698e+06
2.22608e+06
2.20508e+06
2.18399e+06
2.16281e+06
2.14154e+06
2.12018e+06
2.09873e+06
2.0772e+06
2.05559e+06
2.03392e+06
2.01218e+06
1.99038e+06
1.96853e+06
1.94663e+06
1.92468e+06
1.9027e+06
1.88066e+06
1.85859e+06
1.83648e+06
1.81434e+06
1.79216e+06
1.76995e+06
1.7477e+06
1.72543e+06
1.70313e+06
1.6808e+06
1.65845e+06
1.63607e+06
1.61368e+06
1.59126e+06
1.56884e+06
1.54639e+06
1.52394e+06
1.50147e+06
1.47901e+06
1.45653e+06
1.43406e+06
1.41158e+06
1.38912e+06
1.36666e+06
1.3442e+06
1.32177e+06
1.29935e+06
1.27694e+06
1.25456e+06
1.23221e+06
1.20988e+06
1.18759e+06
1.16533e+06
1.14311e+06
1.12093e+06
1.0988e+06
1.07672e+06
1.05469e+06
1.03272e+06
1.01082e+06
988978
967210
945517
923906
902380
880944
859604
838363
817227
796200
775287
754497
733833
713302
692910
672665
652573
632641
612880
593295
573898
554702
535721
516973
498482
480282
462431
445026
3.46057e+06
3.46029e+06
3.45973e+06
3.45888e+06
3.45773e+06
3.45628e+06
3.45453e+06
3.45246e+06
3.45009e+06
3.44739e+06
3.44438e+06
3.44104e+06
3.43737e+06
3.43338e+06
3.42905e+06
3.42439e+06
3.41939e+06
3.41406e+06
3.4084e+06
3.40241e+06
3.39608e+06
3.38943e+06
3.38245e+06
3.37514e+06
3.36752e+06
3.35958e+06
3.35133e+06
3.34276e+06
3.3339e+06
3.32473e+06
3.31526e+06
3.3055e+06
3.29545e+06
3.28512e+06
3.2745e+06
3.26359e+06
3.25242e+06
3.24097e+06
3.22926e+06
3.2173e+06
3.20507e+06
3.19258e+06
3.17984e+06
3.16686e+06
3.15363e+06
3.14017e+06
3.12647e+06
3.11254e+06
3.09838e+06
3.084e+06
3.0694e+06
3.0546e+06
3.03959e+06
3.02438e+06
3.00898e+06
2.99338e+06
2.9776e+06
2.96163e+06
2.94548e+06
2.92915e+06
2.91265e+06
2.89597e+06
2.87913e+06
2.86211e+06
2.84494e+06
2.8276e+06
2.8101e+06
2.79245e+06
2.77465e+06
2.7567e+06
2.7386e+06
2.72036e+06
2.70197e+06
2.68344e+06
2.66476e+06
2.64596e+06
2.62702e+06
2.60796e+06
2.58878e+06
2.56949e+06
2.55009e+06
2.53058e+06
2.51097e+06
2.49124e+06
2.47141e+06
2.45148e+06
2.43144e+06
2.41131e+06
2.39107e+06
2.37075e+06
2.35034e+06
2.32985e+06
2.30928e+06
2.28863e+06
2.26789e+06
2.24707e+06
2.22616e+06
2.20516e+06
2.18407e+06
2.16288e+06
2.14161e+06
2.12024e+06
2.09879e+06
2.07726e+06
2.05565e+06
2.03397e+06
2.01222e+06
1.99042e+06
1.96857e+06
1.94666e+06
1.92471e+06
1.90272e+06
1.88069e+06
1.85861e+06
1.8365e+06
1.81435e+06
1.79217e+06
1.76996e+06
1.74771e+06
1.72543e+06
1.70313e+06
1.6808e+06
1.65845e+06
1.63607e+06
1.61368e+06
1.59127e+06
1.56884e+06
1.54639e+06
1.52394e+06
1.50148e+06
1.47901e+06
1.45653e+06
1.43406e+06
1.41159e+06
1.38912e+06
1.36666e+06
1.34421e+06
1.32177e+06
1.29935e+06
1.27694e+06
1.25456e+06
1.23221e+06
1.20988e+06
1.18759e+06
1.16533e+06
1.14311e+06
1.12093e+06
1.0988e+06
1.07672e+06
1.05469e+06
1.03273e+06
1.01082e+06
988980
967212
945520
923908
902382
880946
859605
838364
817227
796201
775288
754497
733833
713301
692909
672663
652571
632639
612876
593290
573890
554690
535703
516947
498442
480220
462323
444806
3.46435e+06
3.46406e+06
3.46349e+06
3.46263e+06
3.46146e+06
3.45999e+06
3.45821e+06
3.45612e+06
3.45371e+06
3.45097e+06
3.44791e+06
3.44451e+06
3.44079e+06
3.43673e+06
3.43233e+06
3.4276e+06
3.42253e+06
3.41713e+06
3.41139e+06
3.40532e+06
3.39892e+06
3.39218e+06
3.38512e+06
3.37774e+06
3.37003e+06
3.36201e+06
3.35368e+06
3.34503e+06
3.33609e+06
3.32684e+06
3.31729e+06
3.30746e+06
3.29733e+06
3.28692e+06
3.27623e+06
3.26526e+06
3.25403e+06
3.24252e+06
3.23076e+06
3.21873e+06
3.20645e+06
3.19391e+06
3.18112e+06
3.16808e+06
3.15481e+06
3.14129e+06
3.12754e+06
3.11356e+06
3.09935e+06
3.08492e+06
3.07029e+06
3.05544e+06
3.04039e+06
3.02514e+06
3.0097e+06
2.99407e+06
2.97825e+06
2.96225e+06
2.94608e+06
2.92972e+06
2.91319e+06
2.89649e+06
2.87962e+06
2.86258e+06
2.84539e+06
2.82803e+06
2.81052e+06
2.79285e+06
2.77503e+06
2.75706e+06
2.73895e+06
2.72069e+06
2.70228e+06
2.68373e+06
2.66505e+06
2.64623e+06
2.62727e+06
2.6082e+06
2.58901e+06
2.5697e+06
2.55029e+06
2.53077e+06
2.51114e+06
2.49141e+06
2.47157e+06
2.45163e+06
2.43159e+06
2.41145e+06
2.39122e+06
2.37089e+06
2.35049e+06
2.32999e+06
2.30942e+06
2.28876e+06
2.26802e+06
2.2472e+06
2.22628e+06
2.20528e+06
2.18418e+06
2.16299e+06
2.14171e+06
2.12034e+06
2.09888e+06
2.07734e+06
2.05572e+06
2.03404e+06
2.01228e+06
1.99048e+06
1.96862e+06
1.94671e+06
1.92475e+06
1.90275e+06
1.88072e+06
1.85864e+06
1.83652e+06
1.81437e+06
1.79219e+06
1.76997e+06
1.74772e+06
1.72544e+06
1.70314e+06
1.68081e+06
1.65846e+06
1.63608e+06
1.61368e+06
1.59127e+06
1.56884e+06
1.5464e+06
1.52394e+06
1.50148e+06
1.47901e+06
1.45654e+06
1.43406e+06
1.41159e+06
1.38912e+06
1.36666e+06
1.34421e+06
1.32177e+06
1.29935e+06
1.27695e+06
1.25457e+06
1.23221e+06
1.20988e+06
1.18759e+06
1.16533e+06
1.14311e+06
1.12093e+06
1.0988e+06
1.07672e+06
1.0547e+06
1.03273e+06
1.01082e+06
988983
967215
945523
923911
902385
880948
859607
838365
817228
796201
775288
754497
733832
713300
692907
672661
652568
632635
612871
593283
573880
554674
535679
516910
498387
480134
462181
444551
3.46943e+06
3.46913e+06
3.46855e+06
3.46767e+06
3.46648e+06
3.46497e+06
3.46316e+06
3.46101e+06
3.45854e+06
3.45575e+06
3.45261e+06
3.44915e+06
3.44534e+06
3.4412e+06
3.43671e+06
3.43189e+06
3.42672e+06
3.42122e+06
3.41537e+06
3.4092e+06
3.40269e+06
3.39585e+06
3.38868e+06
3.38119e+06
3.37338e+06
3.36525e+06
3.3568e+06
3.34806e+06
3.339e+06
3.32965e+06
3.32e+06
3.31006e+06
3.29984e+06
3.28933e+06
3.27855e+06
3.26749e+06
3.25617e+06
3.24458e+06
3.23274e+06
3.22064e+06
3.20828e+06
3.19567e+06
3.18281e+06
3.16971e+06
3.15636e+06
3.14278e+06
3.12896e+06
3.11491e+06
3.10064e+06
3.08615e+06
3.07145e+06
3.05654e+06
3.04143e+06
3.02614e+06
3.01065e+06
2.99497e+06
2.97911e+06
2.96307e+06
2.94686e+06
2.93047e+06
2.9139e+06
2.89717e+06
2.88026e+06
2.8632e+06
2.84598e+06
2.8286e+06
2.81106e+06
2.79337e+06
2.77552e+06
2.75753e+06
2.73939e+06
2.7211e+06
2.70267e+06
2.6841e+06
2.66539e+06
2.64655e+06
2.62758e+06
2.60849e+06
2.58929e+06
2.56997e+06
2.55054e+06
2.53101e+06
2.51137e+06
2.49163e+06
2.47178e+06
2.45183e+06
2.43178e+06
2.41164e+06
2.3914e+06
2.37108e+06
2.35067e+06
2.33017e+06
2.30959e+06
2.28893e+06
2.26819e+06
2.24735e+06
2.22643e+06
2.20542e+06
2.18432e+06
2.16312e+06
2.14183e+06
2.12046e+06
2.09899e+06
2.07744e+06
2.05582e+06
2.03412e+06
2.01237e+06
1.99055e+06
1.96868e+06
1.94677e+06
1.92481e+06
1.9028e+06
1.88076e+06
1.85868e+06
1.83656e+06
1.8144e+06
1.79221e+06
1.76999e+06
1.74774e+06
1.72546e+06
1.70315e+06
1.68082e+06
1.65846e+06
1.63609e+06
1.61369e+06
1.59127e+06
1.56884e+06
1.5464e+06
1.52395e+06
1.50148e+06
1.47901e+06
1.45654e+06
1.43406e+06
1.41159e+06
1.38912e+06
1.36666e+06
1.34421e+06
1.32177e+06
1.29935e+06
1.27695e+06
1.25457e+06
1.23221e+06
1.20989e+06
1.18759e+06
1.16533e+06
1.14311e+06
1.12094e+06
1.09881e+06
1.07673e+06
1.0547e+06
1.03273e+06
1.01083e+06
988987
967219
945527
923915
902388
880951
859609
838367
817229
796201
775288
754496
733830
713297
692904
672656
652562
632629
612863
593272
573864
554652
535647
516864
498318
480029
462016
444284
3.47584e+06
3.47554e+06
3.47493e+06
3.47402e+06
3.4728e+06
3.47125e+06
3.46937e+06
3.46716e+06
3.46462e+06
3.46175e+06
3.45853e+06
3.45496e+06
3.45106e+06
3.44681e+06
3.44221e+06
3.43726e+06
3.43197e+06
3.42634e+06
3.42037e+06
3.41406e+06
3.40741e+06
3.40043e+06
3.39313e+06
3.3855e+06
3.37755e+06
3.36928e+06
3.36071e+06
3.35182e+06
3.34264e+06
3.33315e+06
3.32338e+06
3.31331e+06
3.30297e+06
3.29234e+06
3.28144e+06
3.27028e+06
3.25885e+06
3.24716e+06
3.23521e+06
3.22301e+06
3.21056e+06
3.19786e+06
3.18491e+06
3.17173e+06
3.1583e+06
3.14463e+06
3.13072e+06
3.11658e+06
3.10223e+06
3.08765e+06
3.07288e+06
3.0579e+06
3.04272e+06
3.02736e+06
3.01181e+06
2.99608e+06
2.98017e+06
2.96408e+06
2.94781e+06
2.93137e+06
2.91477e+06
2.89799e+06
2.88106e+06
2.86396e+06
2.84671e+06
2.82929e+06
2.81172e+06
2.794e+06
2.77612e+06
2.75809e+06
2.73992e+06
2.72159e+06
2.70313e+06
2.68453e+06
2.66579e+06
2.64693e+06
2.62794e+06
2.60883e+06
2.58961e+06
2.57027e+06
2.55083e+06
2.53129e+06
2.51164e+06
2.49188e+06
2.47203e+06
2.45207e+06
2.43201e+06
2.41186e+06
2.39162e+06
2.37129e+06
2.35088e+06
2.33038e+06
2.3098e+06
2.28913e+06
2.26838e+06
2.24754e+06
2.22661e+06
2.20559e+06
2.18448e+06
2.16328e+06
2.14198e+06
2.1206e+06
2.09913e+06
2.07757e+06
2.05594e+06
2.03423e+06
2.01247e+06
1.99064e+06
1.96877e+06
1.94685e+06
1.92488e+06
1.90287e+06
1.88082e+06
1.85873e+06
1.8366e+06
1.81444e+06
1.79225e+06
1.77002e+06
1.74776e+06
1.72548e+06
1.70317e+06
1.68083e+06
1.65847e+06
1.63609e+06
1.6137e+06
1.59128e+06
1.56885e+06
1.54641e+06
1.52395e+06
1.50149e+06
1.47902e+06
1.45654e+06
1.43407e+06
1.4116e+06
1.38913e+06
1.36667e+06
1.34422e+06
1.32178e+06
1.29936e+06
1.27696e+06
1.25457e+06
1.23222e+06
1.20989e+06
1.1876e+06
1.16534e+06
1.14312e+06
1.12094e+06
1.09881e+06
1.07673e+06
1.0547e+06
1.03274e+06
1.01083e+06
988992
967224
945531
923919
902392
880955
859613
838370
817231
796203
775289
754495
733828
713294
692899
672650
652554
632618
612850
593256
573843
554623
535608
516808
498237
479911
461839
444016
3.48364e+06
3.48332e+06
3.48268e+06
3.48173e+06
3.48045e+06
3.47884e+06
3.47689e+06
3.47461e+06
3.47197e+06
3.46899e+06
3.46567e+06
3.46199e+06
3.45795e+06
3.45357e+06
3.44883e+06
3.44373e+06
3.43829e+06
3.4325e+06
3.42637e+06
3.4199e+06
3.41309e+06
3.40594e+06
3.39847e+06
3.39067e+06
3.38255e+06
3.37412e+06
3.36538e+06
3.35634e+06
3.34699e+06
3.33735e+06
3.32742e+06
3.3172e+06
3.30671e+06
3.29594e+06
3.2849e+06
3.2736e+06
3.26204e+06
3.25022e+06
3.23815e+06
3.22583e+06
3.21327e+06
3.20046e+06
3.18741e+06
3.17412e+06
3.16059e+06
3.14682e+06
3.13281e+06
3.11858e+06
3.10412e+06
3.08945e+06
3.07457e+06
3.0595e+06
3.04425e+06
3.02881e+06
3.01318e+06
2.99738e+06
2.98141e+06
2.96526e+06
2.94894e+06
2.93245e+06
2.91579e+06
2.89897e+06
2.882e+06
2.86486e+06
2.84757e+06
2.83012e+06
2.81251e+06
2.79475e+06
2.77683e+06
2.75876e+06
2.74054e+06
2.72217e+06
2.70367e+06
2.68503e+06
2.66626e+06
2.64736e+06
2.62834e+06
2.60921e+06
2.58997e+06
2.57062e+06
2.55117e+06
2.53161e+06
2.51194e+06
2.49218e+06
2.47231e+06
2.45234e+06
2.43227e+06
2.41212e+06
2.39187e+06
2.37153e+06
2.35111e+06
2.33061e+06
2.31002e+06
2.28935e+06
2.26859e+06
2.24774e+06
2.22681e+06
2.20578e+06
2.18467e+06
2.16346e+06
2.14215e+06
2.12076e+06
2.09928e+06
2.07772e+06
2.05607e+06
2.03436e+06
2.01259e+06
1.99075e+06
1.96887e+06
1.94694e+06
1.92496e+06
1.90295e+06
1.88088e+06
1.85879e+06
1.83665e+06
1.81448e+06
1.79228e+06
1.77005e+06
1.74779e+06
1.7255e+06
1.70319e+06
1.68085e+06
1.65849e+06
1.63611e+06
1.61371e+06
1.59129e+06
1.56886e+06
1.54641e+06
1.52396e+06
1.50149e+06
1.47902e+06
1.45655e+06
1.43407e+06
1.4116e+06
1.38913e+06
1.36667e+06
1.34422e+06
1.32179e+06
1.29936e+06
1.27696e+06
1.25458e+06
1.23223e+06
1.2099e+06
1.18761e+06
1.16535e+06
1.14313e+06
1.12095e+06
1.09882e+06
1.07674e+06
1.05471e+06
1.03274e+06
1.01084e+06
988997
967229
945537
923925
902397
880960
859617
838373
817234
796205
775290
754495
733827
713291
692894
672642
652543
632604
612833
593234
573816
554588
535561
516744
498148
479783
461655
443753
3.49285e+06
3.49251e+06
3.49184e+06
3.49083e+06
3.48949e+06
3.4878e+06
3.48576e+06
3.48337e+06
3.48062e+06
3.47752e+06
3.47405e+06
3.47023e+06
3.46604e+06
3.46149e+06
3.45658e+06
3.45131e+06
3.44569e+06
3.43971e+06
3.43339e+06
3.42672e+06
3.41972e+06
3.41237e+06
3.4047e+06
3.3967e+06
3.38839e+06
3.37976e+06
3.37082e+06
3.36159e+06
3.35205e+06
3.34223e+06
3.33211e+06
3.32172e+06
3.31105e+06
3.30011e+06
3.28891e+06
3.27745e+06
3.26574e+06
3.25377e+06
3.24156e+06
3.22911e+06
3.21642e+06
3.20348e+06
3.19031e+06
3.1769e+06
3.16325e+06
3.14936e+06
3.13524e+06
3.12088e+06
3.10631e+06
3.09152e+06
3.07653e+06
3.06136e+06
3.046e+06
3.03047e+06
3.01476e+06
2.99888e+06
2.98283e+06
2.96662e+06
2.95023e+06
2.93368e+06
2.91697e+06
2.90011e+06
2.88308e+06
2.8659e+06
2.84856e+06
2.83107e+06
2.81342e+06
2.79561e+06
2.77764e+06
2.75952e+06
2.74126e+06
2.72285e+06
2.70429e+06
2.68561e+06
2.6668e+06
2.64786e+06
2.62881e+06
2.60965e+06
2.59039e+06
2.57102e+06
2.55155e+06
2.53197e+06
2.51229e+06
2.49251e+06
2.47263e+06
2.45265e+06
2.43257e+06
2.41239e+06
2.39213e+06
2.37179e+06
2.35136e+06
2.33085e+06
2.31026e+06
2.28958e+06
2.26881e+06
2.24796e+06
2.22702e+06
2.20598e+06
2.18486e+06
2.16364e+06
2.14234e+06
2.12094e+06
2.09945e+06
2.07788e+06
2.05623e+06
2.0345e+06
2.01272e+06
1.99088e+06
1.96899e+06
1.94705e+06
1.92506e+06
1.90303e+06
1.88096e+06
1.85886e+06
1.83671e+06
1.81454e+06
1.79233e+06
1.77009e+06
1.74782e+06
1.72553e+06
1.70321e+06
1.68087e+06
1.6585e+06
1.63612e+06
1.61372e+06
1.5913e+06
1.56887e+06
1.54642e+06
1.52396e+06
1.5015e+06
1.47903e+06
1.45656e+06
1.43408e+06
1.41161e+06
1.38914e+06
1.36668e+06
1.34423e+06
1.32179e+06
1.29937e+06
1.27697e+06
1.25459e+06
1.23223e+06
1.20991e+06
1.18761e+06
1.16535e+06
1.14313e+06
1.12096e+06
1.09882e+06
1.07674e+06
1.05472e+06
1.03275e+06
1.01084e+06
989004
967236
945543
923931
902403
880966
859622
838378
817238
796208
775292
754497
733827
713289
692890
672635
652532
632588
612811
593207
573782
554546
535507
516672
498050
479649
461469
443499
3.50355e+06
3.50317e+06
3.50245e+06
3.50139e+06
3.49996e+06
3.49818e+06
3.49602e+06
3.49351e+06
3.49062e+06
3.48736e+06
3.48373e+06
3.47973e+06
3.47535e+06
3.47061e+06
3.46549e+06
3.46002e+06
3.45418e+06
3.44798e+06
3.44143e+06
3.43454e+06
3.4273e+06
3.41972e+06
3.41182e+06
3.40359e+06
3.39505e+06
3.38619e+06
3.37703e+06
3.36757e+06
3.35782e+06
3.34778e+06
3.33746e+06
3.32686e+06
3.31599e+06
3.30485e+06
3.29346e+06
3.28182e+06
3.26993e+06
3.2578e+06
3.24544e+06
3.23283e+06
3.22e+06
3.20692e+06
3.19362e+06
3.18007e+06
3.16628e+06
3.15225e+06
3.13799e+06
3.12349e+06
3.10878e+06
3.09387e+06
3.07875e+06
3.06346e+06
3.04799e+06
3.03235e+06
3.01654e+06
3.00057e+06
2.98444e+06
2.96815e+06
2.95169e+06
2.93508e+06
2.91831e+06
2.90138e+06
2.88431e+06
2.86707e+06
2.84968e+06
2.83213e+06
2.81443e+06
2.79657e+06
2.77855e+06
2.76038e+06
2.74207e+06
2.7236e+06
2.705e+06
2.68627e+06
2.66741e+06
2.64843e+06
2.62935e+06
2.61016e+06
2.59087e+06
2.57148e+06
2.55198e+06
2.53239e+06
2.51269e+06
2.49289e+06
2.47299e+06
2.45298e+06
2.43288e+06
2.41269e+06
2.39242e+06
2.37206e+06
2.35162e+06
2.33111e+06
2.31051e+06
2.28982e+06
2.26904e+06
2.24818e+06
2.22723e+06
2.20619e+06
2.18506e+06
2.16383e+06
2.14252e+06
2.12112e+06
2.09962e+06
2.07804e+06
2.05639e+06
2.03466e+06
2.01286e+06
1.99102e+06
1.96912e+06
1.94717e+06
1.92517e+06
1.90313e+06
1.88105e+06
1.85893e+06
1.83678e+06
1.8146e+06
1.79238e+06
1.77013e+06
1.74786e+06
1.72556e+06
1.70323e+06
1.68089e+06
1.65852e+06
1.63613e+06
1.61373e+06
1.59131e+06
1.56888e+06
1.54643e+06
1.52397e+06
1.50151e+06
1.47904e+06
1.45656e+06
1.43409e+06
1.41162e+06
1.38915e+06
1.36669e+06
1.34424e+06
1.3218e+06
1.29938e+06
1.27698e+06
1.2546e+06
1.23225e+06
1.20992e+06
1.18763e+06
1.16537e+06
1.14314e+06
1.12097e+06
1.09883e+06
1.07675e+06
1.05473e+06
1.03276e+06
1.01085e+06
989012
967244
945551
923938
902411
880972
859629
838384
817243
796212
775295
754499
733827
713288
692886
672628
652521
632572
612788
593176
573743
554497
535445
516593
497947
479511
461284
443256
3.51579e+06
3.51538e+06
3.51461e+06
3.51347e+06
3.51194e+06
3.51004e+06
3.50775e+06
3.50508e+06
3.50202e+06
3.49858e+06
3.49475e+06
3.49053e+06
3.48593e+06
3.48095e+06
3.4756e+06
3.46987e+06
3.46378e+06
3.45732e+06
3.45051e+06
3.44335e+06
3.43584e+06
3.428e+06
3.41983e+06
3.41134e+06
3.40253e+06
3.39342e+06
3.384e+06
3.37429e+06
3.36429e+06
3.35401e+06
3.34345e+06
3.33261e+06
3.32152e+06
3.31017e+06
3.29857e+06
3.28672e+06
3.27464e+06
3.26232e+06
3.24978e+06
3.23701e+06
3.22401e+06
3.21078e+06
3.19731e+06
3.18361e+06
3.16966e+06
3.15548e+06
3.14106e+06
3.12641e+06
3.11155e+06
3.09648e+06
3.08123e+06
3.06579e+06
3.0502e+06
3.03444e+06
3.01853e+06
3.00246e+06
2.98624e+06
2.96986e+06
2.95332e+06
2.93663e+06
2.91979e+06
2.9028e+06
2.88565e+06
2.86836e+06
2.85091e+06
2.8333e+06
2.81554e+06
2.79763e+06
2.77955e+06
2.76133e+06
2.74295e+06
2.72443e+06
2.70578e+06
2.687e+06
2.66809e+06
2.64907e+06
2.62995e+06
2.61073e+06
2.59141e+06
2.572e+06
2.55248e+06
2.53286e+06
2.51314e+06
2.49331e+06
2.47338e+06
2.45335e+06
2.43323e+06
2.41302e+06
2.39272e+06
2.37234e+06
2.3519e+06
2.33137e+06
2.31076e+06
2.29006e+06
2.26928e+06
2.2484e+06
2.22744e+06
2.20639e+06
2.18525e+06
2.16403e+06
2.14271e+06
2.1213e+06
2.0998e+06
2.07821e+06
2.05655e+06
2.03481e+06
2.01301e+06
1.99116e+06
1.96925e+06
1.9473e+06
1.92529e+06
1.90324e+06
1.88115e+06
1.85902e+06
1.83686e+06
1.81466e+06
1.79244e+06
1.77018e+06
1.7479e+06
1.72559e+06
1.70326e+06
1.68091e+06
1.65854e+06
1.63615e+06
1.61375e+06
1.59132e+06
1.56889e+06
1.54644e+06
1.52398e+06
1.50152e+06
1.47905e+06
1.45657e+06
1.4341e+06
1.41163e+06
1.38916e+06
1.3667e+06
1.34425e+06
1.32182e+06
1.2994e+06
1.277e+06
1.25462e+06
1.23226e+06
1.20993e+06
1.18764e+06
1.16538e+06
1.14316e+06
1.12098e+06
1.09885e+06
1.07677e+06
1.05474e+06
1.03277e+06
1.01086e+06
989022
967253
945560
923947
902419
880981
859636
838391
817250
796218
775300
754502
733829
713287
692883
672622
652511
632556
612764
593144
573701
554444
535378
516508
497838
479370
461102
443023
3.52969e+06
3.52925e+06
3.52841e+06
3.52717e+06
3.52553e+06
3.52349e+06
3.52104e+06
3.51818e+06
3.51492e+06
3.51125e+06
3.50718e+06
3.50271e+06
3.49784e+06
3.49259e+06
3.48694e+06
3.48092e+06
3.47453e+06
3.46777e+06
3.46065e+06
3.45318e+06
3.44537e+06
3.43722e+06
3.42875e+06
3.41996e+06
3.41085e+06
3.40145e+06
3.39174e+06
3.38175e+06
3.37147e+06
3.36092e+06
3.35009e+06
3.339e+06
3.32765e+06
3.31605e+06
3.30421e+06
3.29214e+06
3.27984e+06
3.26732e+06
3.25457e+06
3.24161e+06
3.22842e+06
3.21501e+06
3.20137e+06
3.18749e+06
3.17338e+06
3.15902e+06
3.14443e+06
3.12961e+06
3.11458e+06
3.09935e+06
3.08394e+06
3.06836e+06
3.05263e+06
3.03675e+06
3.02072e+06
3.00454e+06
2.98821e+06
2.97174e+06
2.95511e+06
2.93834e+06
2.92141e+06
2.90434e+06
2.88712e+06
2.86975e+06
2.85223e+06
2.83456e+06
2.81673e+06
2.79876e+06
2.78062e+06
2.76234e+06
2.7439e+06
2.72533e+06
2.70662e+06
2.68778e+06
2.66883e+06
2.64977e+06
2.63062e+06
2.61136e+06
2.59202e+06
2.57258e+06
2.55303e+06
2.53338e+06
2.51363e+06
2.49378e+06
2.47382e+06
2.45376e+06
2.43361e+06
2.41337e+06
2.39305e+06
2.37265e+06
2.35218e+06
2.33164e+06
2.31102e+06
2.29031e+06
2.26951e+06
2.24862e+06
2.22765e+06
2.20659e+06
2.18545e+06
2.16422e+06
2.14289e+06
2.12148e+06
2.09997e+06
2.07838e+06
2.05671e+06
2.03497e+06
2.01316e+06
1.9913e+06
1.96939e+06
1.94743e+06
1.92541e+06
1.90336e+06
1.88125e+06
1.85911e+06
1.83694e+06
1.81473e+06
1.7925e+06
1.77024e+06
1.74795e+06
1.72563e+06
1.7033e+06
1.68094e+06
1.65857e+06
1.63617e+06
1.61376e+06
1.59134e+06
1.5689e+06
1.54645e+06
1.524e+06
1.50153e+06
1.47906e+06
1.45659e+06
1.43411e+06
1.41164e+06
1.38918e+06
1.36672e+06
1.34427e+06
1.32183e+06
1.29941e+06
1.27701e+06
1.25463e+06
1.23228e+06
1.20995e+06
1.18766e+06
1.1654e+06
1.14318e+06
1.121e+06
1.09886e+06
1.07678e+06
1.05475e+06
1.03278e+06
1.01087e+06
989035
967266
945572
923959
902430
880991
859646
838400
817258
796224
775305
754505
733831
713287
692880
672616
652501
632541
612743
593113
573659
554389
535308
516419
497725
479228
460923
442801
3.54538e+06
3.54489e+06
3.54397e+06
3.54262e+06
3.54085e+06
3.53863e+06
3.53599e+06
3.53291e+06
3.5294e+06
3.52546e+06
3.52111e+06
3.51634e+06
3.51115e+06
3.50557e+06
3.49959e+06
3.49323e+06
3.48648e+06
3.47937e+06
3.47189e+06
3.46407e+06
3.4559e+06
3.4474e+06
3.43858e+06
3.42945e+06
3.42001e+06
3.41027e+06
3.40025e+06
3.38994e+06
3.37935e+06
3.36849e+06
3.35736e+06
3.34598e+06
3.33435e+06
3.32248e+06
3.31038e+06
3.29805e+06
3.2855e+06
3.27273e+06
3.25975e+06
3.24657e+06
3.23317e+06
3.21956e+06
3.20572e+06
3.19165e+06
3.17734e+06
3.1628e+06
3.14803e+06
3.13304e+06
3.11784e+06
3.10244e+06
3.08687e+06
3.07114e+06
3.05527e+06
3.03925e+06
3.02309e+06
3.0068e+06
2.99036e+06
2.97377e+06
2.95705e+06
2.94017e+06
2.92316e+06
2.906e+06
2.88869e+06
2.87124e+06
2.85364e+06
2.83589e+06
2.81799e+06
2.79994e+06
2.78174e+06
2.76339e+06