/*--------------------------------*- C++ -*----------------------------------*\
  =========                 |
  \\      /  F ield         | OpenFOAM: The Open Source CFD Toolbox
   \\    /   O peration     | Website:  https://openfoam.org
    \\  /    A nd           | Version:  10
     \\/     M anipulation  |
\*---------------------------------------------------------------------------*/
FoamFile
{
    format      ascii;
    class       volVectorField;
    location    "0.081";
    object      UMean;
}
// * * * * * * * * * * * * * * * * * * * * * * * * * * * * * * * * * * * * * //

dimensions      [0 1 -1 0 0 0 0];

internalField   nonuniform List<vector> 
12225
(
(9.84467 0.0456572 0)
(9.55742 0.0615494 0)
(9.2616 0.0592587 0)
(8.95991 0.0575336 0)
(8.66451 0.0565126 0)
(8.38117 0.05545 0)
(8.11016 0.0539032 0)
(7.85035 0.0529024 0)
(7.59945 0.0512816 0)
(7.35772 0.0512259 0)
(7.12121 0.0492858 0)
(6.89397 0.0513114 0)
(6.66394 0.048141 0)
(6.4472 0.0554079 0)
(6.20653 0.0486352 0)
(5.99682 0.0689508 0)
(5.71328 0.0506531 0)
(5.51281 0.0983689 0)
(10.0198 0.0506904 0)
(10.0859 0.0734207 0)
(10.1268 0.0725373 0)
(10.1403 0.0734625 0)
(10.1372 0.0765012 0)
(10.1249 0.0790468 0)
(10.1051 0.0811624 0)
(10.0792 0.0827777 0)
(10.0457 0.0849826 0)
(10.0077 0.0866364 0)
(9.96147 0.089841 0)
(9.91331 0.0917686 0)
(9.85422 0.0975631 0)
(9.7964 0.10041 0)
(9.72082 0.112231 0)
(9.65155 0.11689 0)
(9.55318 0.138052 0)
(9.46509 0.139899 0)
(10.004 0.0317904 0)
(10.0423 0.0543697 0)
(10.0735 0.0563299 0)
(10.0913 0.0579616 0)
(10.1022 0.0618461 0)
(10.1116 0.0659151 0)
(10.1209 0.068983 0)
(10.1296 0.0721996 0)
(10.1372 0.0748908 0)
(10.1428 0.078883 0)
(10.1471 0.0819209 0)
(10.1491 0.0877724 0)
(10.1505 0.091943 0)
(10.1491 0.101827 0)
(10.1491 0.109357 0)
(10.1464 0.125733 0)
(10.1499 0.139167 0)
(10.1514 0.153109 0)
(9.99426 0.0270855 0)
(10.0228 0.0560162 0)
(10.0484 0.0612354 0)
(10.0637 0.0627115 0)
(10.0722 0.0662342 0)
(10.0789 0.0701834 0)
(10.0855 0.0735231 0)
(10.0921 0.0762331 0)
(10.0982 0.0791536 0)
(10.1035 0.0822203 0)
(10.1083 0.0862333 0)
(10.1126 0.0906701 0)
(10.1168 0.0968664 0)
(10.1213 0.104151 0)
(10.1272 0.114185 0)
(10.1359 0.126122 0)
(10.1493 0.138632 0)
(10.169 0.149156 0)
(10.0008 0.0233889 0)
(10.023 0.047223 0)
(10.0445 0.0540678 0)
(10.0586 0.0558306 0)
(10.0668 0.0588449 0)
(10.0728 0.0629622 0)
(10.0787 0.0667028 0)
(10.0846 0.0700613 0)
(10.0899 0.0731926 0)
(10.0946 0.0767882 0)
(10.0985 0.0807478 0)
(10.1021 0.0857004 0)
(10.1056 0.0915596 0)
(10.1098 0.0989365 0)
(10.1151 0.107857 0)
(10.1232 0.117704 0)
(10.1343 0.127488 0)
(10.1495 0.132701 0)
(9.9792 0.0176457 0)
(9.99852 0.0423915 0)
(10.0178 0.0522884 0)
(10.0318 0.0556562 0)
(10.0409 0.0589521 0)
(10.0475 0.0631437 0)
(10.0537 0.0672062 0)
(10.0599 0.070749 0)
(10.0658 0.074108 0)
(10.0711 0.0777321 0)
(10.0759 0.081859 0)
(10.0804 0.0867429 0)
(10.0851 0.0924662 0)
(10.0903 0.0993017 0)
(10.0967 0.106987 0)
(10.1052 0.11512 0)
(10.1157 0.122041 0)
(10.1283 0.125885 0)
(9.99817 0.0162772 0)
(10.0131 0.0376948 0)
(10.0285 0.0480442 0)
(10.0405 0.0520345 0)
(10.049 0.0550249 0)
(10.0553 0.0588484 0)
(10.061 0.0629134 0)
(10.0667 0.0666363 0)
(10.0721 0.0701197 0)
(10.077 0.0737772 0)
(10.0816 0.0779067 0)
(10.0861 0.0826928 0)
(10.0908 0.0882273 0)
(10.0962 0.0945173 0)
(10.1026 0.101314 0)
(10.1105 0.108064 0)
(10.1198 0.113657 0)
(10.1302 0.117197 0)
(9.99864 0.0133847 0)
(10.0126 0.0326985 0)
(10.0265 0.0441466 0)
(10.0379 0.049648 0)
(10.0466 0.0533275 0)
(10.0534 0.0572949 0)
(10.0592 0.0615232 0)
(10.0648 0.0655699 0)
(10.0702 0.0693678 0)
(10.0754 0.0732106 0)
(10.0803 0.0773582 0)
(10.0852 0.0820007 0)
(10.0903 0.0871656 0)
(10.096 0.0928246 0)
(10.1024 0.0986745 0)
(10.1099 0.104321 0)
(10.1182 0.108987 0)
(10.1272 0.112224 0)
(9.99817 0.0115435 0)
(10.0099 0.0290019 0)
(10.021 0.0401437 0)
(10.0308 0.0461153 0)
(10.0393 0.0499562 0)
(10.0463 0.0537647 0)
(10.0525 0.0578706 0)
(10.0584 0.0619152 0)
(10.0641 0.0657451 0)
(10.0698 0.0695472 0)
(10.0752 0.0735809 0)
(10.0806 0.0780244 0)
(10.0861 0.0828672 0)
(10.092 0.0880336 0)
(10.0983 0.0932222 0)
(10.1054 0.0981766 0)
(10.1129 0.102311 0)
(10.121 0.10548 0)
(9.98768 0.0102364 0)
(9.99842 0.0254384 0)
(10.0083 0.0363294 0)
(10.017 0.0431552 0)
(10.0251 0.0477298 0)
(10.0323 0.0517237 0)
(10.0386 0.0557504 0)
(10.0445 0.0597578 0)
(10.0503 0.0636489 0)
(10.0561 0.0675319 0)
(10.0618 0.0715576 0)
(10.0677 0.0758641 0)
(10.0736 0.0804126 0)
(10.08 0.0851532 0)
(10.0867 0.0897881 0)
(10.0941 0.0941835 0)
(10.1014 0.0978496 0)
(10.1095 0.100897 0)
(9.98085 0.00833027 0)
(9.99078 0.0228136 0)
(9.99945 0.0325147 0)
(10.0071 0.0390824 0)
(10.0144 0.0438667 0)
(10.0213 0.0479393 0)
(10.0275 0.0519155 0)
(10.0334 0.0559019 0)
(10.039 0.0597856 0)
(10.0446 0.0635927 0)
(10.0501 0.0674249 0)
(10.0557 0.0714362 0)
(10.0614 0.0755846 0)
(10.0675 0.0798646 0)
(10.0738 0.0839929 0)
(10.0806 0.0879426 0)
(10.0874 0.0912919 0)
(10.0946 0.0942783 0)
(9.99647 0.00781281 0)
(10.0041 0.0203771 0)
(10.0112 0.0298508 0)
(10.0181 0.0367746 0)
(10.0251 0.0417985 0)
(10.0319 0.0459009 0)
(10.0383 0.0498061 0)
(10.0443 0.0537359 0)
(10.0501 0.0576165 0)
(10.0559 0.0614049 0)
(10.0616 0.0651369 0)
(10.0672 0.0689444 0)
(10.073 0.0728045 0)
(10.0788 0.0767369 0)
(10.085 0.0804954 0)
(10.0912 0.0841097 0)
(10.0977 0.0871977 0)
(10.1039 0.0900744 0)
(9.99312 0.007658 0)
(10.0006 0.0165114 0)
(10.0074 0.0253634 0)
(10.0138 0.0323698 0)
(10.0206 0.0374839 0)
(10.0274 0.0415993 0)
(10.0338 0.0454439 0)
(10.0401 0.0492934 0)
(10.0461 0.0531159 0)
(10.0522 0.0568787 0)
(10.0582 0.060562 0)
(10.0643 0.0642425 0)
(10.0705 0.0678973 0)
(10.0769 0.0715526 0)
(10.0835 0.0750229 0)
(10.0902 0.0783592 0)
(10.0969 0.0812594 0)
(10.1036 0.0840353 0)
(10.0035 0.00848617 0)
(10.0125 0.0162384 0)
(10.0191 0.0243474 0)
(10.024 0.0308847 0)
(10.0294 0.0357516 0)
(10.0352 0.0397012 0)
(10.0413 0.0433741 0)
(10.0472 0.0470094 0)
(10.0531 0.0505835 0)
(10.0591 0.0540699 0)
(10.0652 0.0574493 0)
(10.0714 0.0607851 0)
(10.0776 0.0640323 0)
(10.0839 0.0672646 0)
(10.0904 0.0703095 0)
(10.0968 0.0733147 0)
(10.1033 0.0759445 0)
(10.1097 0.0786071 0)
(9.99782 0.00275012 0)
(10.0068 0.0114438 0)
(10.0131 0.0186449 0)
(10.0177 0.0244482 0)
(10.023 0.0292006 0)
(10.029 0.0332529 0)
(10.0353 0.0368812 0)
(10.0416 0.0402895 0)
(10.0477 0.0435783 0)
(10.0537 0.0468143 0)
(10.0599 0.0500018 0)
(10.0662 0.0531827 0)
(10.0726 0.0562882 0)
(10.0792 0.0593494 0)
(10.0858 0.0621998 0)
(10.0925 0.0649699 0)
(10.0992 0.0673708 0)
(10.106 0.0697929 0)
(10.0125 0.00428194 0)
(10.0202 0.0119996 0)
(10.0251 0.0176922 0)
(10.0286 0.022338 0)
(10.0331 0.0264388 0)
(10.0387 0.0302063 0)
(10.0448 0.0336973 0)
(10.051 0.0369466 0)
(10.057 0.0399772 0)
(10.063 0.0428416 0)
(10.0691 0.0455402 0)
(10.0753 0.0481287 0)
(10.0816 0.0505593 0)
(10.0881 0.0529293 0)
(10.0947 0.0551121 0)
(10.1014 0.0573159 0)
(10.108 0.0592431 0)
(10.1147 0.0613544 0)
(9.99052 -0.000689986 0)
(9.99562 0.00563874 0)
(9.99875 0.010816 0)
(10.0015 0.0150379 0)
(10.0057 0.0185599 0)
(10.0112 0.0216126 0)
(10.0173 0.0243732 0)
(10.0236 0.0269774 0)
(10.03 0.029475 0)
(10.0365 0.0318996 0)
(10.0432 0.0342195 0)
(10.0499 0.0364654 0)
(10.0566 0.0385702 0)
(10.0634 0.0406193 0)
(10.07 0.0424846 0)
(10.0767 0.0443554 0)
(10.0832 0.0459652 0)
(10.0899 0.0477158 0)
(9.99569 0.00917133 0)
(10.0013 0.00918727 0)
(10.0047 0.0110123 0)
(10.0077 0.0132983 0)
(10.012 0.0154882 0)
(10.0174 0.0175323 0)
(10.0233 0.0194718 0)
(10.0293 0.0213417 0)
(10.0354 0.0231406 0)
(10.0414 0.0248945 0)
(10.0475 0.0265862 0)
(10.0537 0.0282682 0)
(10.0599 0.0298845 0)
(10.0661 0.0315044 0)
(10.0722 0.0329845 0)
(10.0783 0.0344714 0)
(10.0843 0.0357016 0)
(10.0903 0.037012 0)
(9.99209 -0.000913738 0)
(10.0019 -0.000788637 0)
(10.0086 0.000130811 0)
(10.0131 0.00145562 0)
(10.0178 0.00288364 0)
(10.0234 0.00432308 0)
(10.0294 0.00571563 0)
(10.0355 0.00703507 0)
(10.0417 0.00828234 0)
(10.0478 0.00950901 0)
(10.0539 0.0107223 0)
(10.06 0.0119454 0)
(10.0661 0.013106 0)
(10.0723 0.0142259 0)
(10.0784 0.015187 0)
(10.0845 0.0161027 0)
(10.0906 0.0167864 0)
(10.0967 0.0175143 0)
(9.9935 -0.00153431 0)
(10.0003 -0.00137028 0)
(10.0045 -0.00194541 0)
(10.0074 -0.00223671 0)
(10.0116 -0.00190563 0)
(10.0172 -0.00112133 0)
(10.0234 -0.000154295 0)
(10.0298 0.00080031 0)
(10.0362 0.0016572 0)
(10.0424 0.00243848 0)
(10.0486 0.00315859 0)
(10.0548 0.00384503 0)
(10.061 0.00444997 0)
(10.0672 0.00500706 0)
(10.0734 0.00543858 0)
(10.0795 0.00585142 0)
(10.0855 0.00610114 0)
(10.0915 0.00641517 0)
(9.98973 -0.00247846 0)
(9.99806 -0.00514395 0)
(10.0042 -0.00758946 0)
(10.0091 -0.00930858 0)
(10.0146 -0.0103104 0)
(10.0209 -0.0108057 0)
(10.0276 -0.0109618 0)
(10.0343 -0.0108725 0)
(10.041 -0.0106057 0)
(10.0477 -0.0102176 0)
(10.0543 -0.00979857 0)
(10.0608 -0.00940344 0)
(10.0672 -0.00910011 0)
(10.0736 -0.00886462 0)
(10.0798 -0.00873152 0)
(10.0859 -0.00860644 0)
(10.0919 -0.00858487 0)
(10.0977 -0.00850586 0)
(9.99777 -0.0053116 0)
(10.005 -0.0106149 0)
(10.0108 -0.0130037 0)
(10.0161 -0.0142077 0)
(10.022 -0.0149583 0)
(10.0285 -0.0154479 0)
(10.0351 -0.0157131 0)
(10.0416 -0.01576 0)
(10.0481 -0.0156365 0)
(10.0546 -0.0154116 0)
(10.0611 -0.0151706 0)
(10.0675 -0.0149581 0)
(10.0737 -0.0148292 0)
(10.0798 -0.0147634 0)
(10.0858 -0.0147974 0)
(10.0916 -0.0148555 0)
(10.0973 -0.0150182 0)
(10.1029 -0.0151471 0)
(9.9855 -0.00212964 0)
(9.99747 -0.0119153 0)
(10.0063 -0.0176555 0)
(10.0127 -0.0205833 0)
(10.0191 -0.0221484 0)
(10.0259 -0.0232711 0)
(10.0328 -0.0242451 0)
(10.0397 -0.0250181 0)
(10.0466 -0.0255109 0)
(10.0535 -0.0257337 0)
(10.0603 -0.0257864 0)
(10.067 -0.0257682 0)
(10.0735 -0.0257694 0)
(10.0797 -0.0258068 0)
(10.0858 -0.0259243 0)
(10.0916 -0.026079 0)
(10.0972 -0.0263312 0)
(10.1026 -0.0265889 0)
(9.99619 -0.0130778 0)
(10.0085 -0.017126 0)
(10.0189 -0.0219923 0)
(10.0269 -0.0248211 0)
(10.0341 -0.0259296 0)
(10.0409 -0.0265229 0)
(10.0475 -0.0271868 0)
(10.0539 -0.0278589 0)
(10.0601 -0.0283496 0)
(10.0663 -0.0286038 0)
(10.0724 -0.0287002 0)
(10.0784 -0.0287191 0)
(10.0843 -0.0287311 0)
(10.0902 -0.0287558 0)
(10.0959 -0.0288458 0)
(10.1015 -0.0289797 0)
(10.107 -0.0292229 0)
(10.1123 -0.0295028 0)
(9.99061 -0.0128868 0)
(9.99887 -0.023698 0)
(10.0082 -0.0297427 0)
(10.017 -0.0324812 0)
(10.025 -0.0337663 0)
(10.0323 -0.0348197 0)
(10.0392 -0.0358909 0)
(10.0461 -0.0367886 0)
(10.0531 -0.037399 0)
(10.06 -0.0377939 0)
(10.0667 -0.038097 0)
(10.0732 -0.0383731 0)
(10.0795 -0.0386548 0)
(10.0857 -0.0389346 0)
(10.0917 -0.0392367 0)
(10.0975 -0.0395549 0)
(10.1032 -0.0399376 0)
(10.1087 -0.0403508 0)
(10.0032 -0.0102743 0)
(10.0188 -0.0254256 0)
(10.0327 -0.0303469 0)
(10.043 -0.0315433 0)
(10.0511 -0.0325107 0)
(10.0581 -0.0338966 0)
(10.0649 -0.0352882 0)
(10.0718 -0.0363545 0)
(10.0787 -0.0370705 0)
(10.0854 -0.0375567 0)
(10.0918 -0.0379183 0)
(10.0981 -0.0382058 0)
(10.1041 -0.0384615 0)
(10.11 -0.0387113 0)
(10.1158 -0.0390043 0)
(10.1215 -0.0393452 0)
(10.127 -0.039772 0)
(10.1323 -0.0402409 0)
(9.99012 -0.0233326 0)
(10.0087 -0.0377262 0)
(10.0247 -0.042291 0)
(10.0354 -0.0428576 0)
(10.0432 -0.0436319 0)
(10.05 -0.0450299 0)
(10.0568 -0.0462557 0)
(10.0639 -0.0469881 0)
(10.071 -0.0473915 0)
(10.0779 -0.0476876 0)
(10.0845 -0.0479824 0)
(10.0909 -0.0482944 0)
(10.0972 -0.0486189 0)
(10.1034 -0.0489591 0)
(10.1093 -0.0493322 0)
(10.1151 -0.0497382 0)
(10.1207 -0.0501927 0)
(10.126 -0.0506672 0)
(9.99653 -0.0198289 0)
(10.0194 -0.0319614 0)
(10.0397 -0.0355377 0)
(10.0527 -0.0365274 0)
(10.0615 -0.0381112 0)
(10.0695 -0.0400254 0)
(10.078 -0.0415612 0)
(10.0866 -0.0426568 0)
(10.095 -0.0435142 0)
(10.103 -0.0442676 0)
(10.1106 -0.0449193 0)
(10.1179 -0.0454859 0)
(10.125 -0.045963 0)
(10.1318 -0.0464221 0)
(10.1384 -0.0468605 0)
(10.1446 -0.047358 0)
(10.1506 -0.0478788 0)
(10.1561 -0.0484976 0)
(9.99658 -0.0380028 0)
(10.0382 -0.054028 0)
(10.0705 -0.0527717 0)
(10.0899 -0.0520857 0)
(10.1017 -0.0533406 0)
(10.11 -0.0546644 0)
(10.116 -0.0554358 0)
(10.1196 -0.0558462 0)
(10.121 -0.0561273 0)
(10.1202 -0.0564057 0)
(10.1177 -0.0566826 0)
(10.1139 -0.0569776 0)
(10.1088 -0.0572353 0)
(10.1028 -0.057503 0)
(10.0958 -0.0577151 0)
(10.0884 -0.057977 0)
(10.0798 -0.0582181 0)
(10.0715 -0.0586041 0)
(9.90905 -0.0333966 0)
(9.75015 -0.0475607 0)
(9.58545 -0.046481 0)
(9.4161 -0.0454328 0)
(9.2498 -0.0453997 0)
(9.09029 -0.0452135 0)
(8.93826 -0.0446698 0)
(8.79337 -0.0439698 0)
(8.65499 -0.0432527 0)
(8.52279 -0.0425672 0)
(8.39631 -0.0419006 0)
(8.27558 -0.0412566 0)
(8.15997 -0.0406123 0)
(8.04987 -0.0400031 0)
(7.94409 -0.0394018 0)
(7.84381 -0.0388727 0)
(7.74658 -0.0383673 0)
(7.65546 -0.0379983 0)
(-0.177051 0.370748 1.44251e-21)
(-0.419273 0.180199 -1.40982e-21)
(-0.526845 0.0136741 0)
(-0.505768 -0.14227 0)
(-0.337469 -0.281337 0)
(-0.0657766 -0.380048 1.36674e-21)
(0.278004 -0.43213 0)
(0.656779 -0.438673 0)
(1.03499 -0.412998 0)
(1.38646 -0.364792 0)
(1.69485 -0.303766 -1.20388e-21)
(1.95211 -0.240776 0)
(2.15588 -0.179141 0)
(2.30402 -0.116453 0)
(2.39817 -0.0550127 0)
(2.44076 0.00396606 -8.29879e-22)
(2.43268 0.0377158 0)
(2.39678 0.0476862 0)
(2.33436 0.0686351 0)
(2.24776 0.0953841 0)
(2.12793 0.122186 0)
(1.97457 0.143278 0)
(1.78053 0.166574 0)
(1.56703 0.192835 -8.08951e-22)
(1.31447 0.232933 8.24961e-22)
(1.05639 0.21195 -8.33584e-22)
(0.800989 0.16146 -8.32404e-22)
(0.536462 0.0939614 0)
(0.298508 0.0490901 0)
(0.0524626 0.105096 7.78861e-22)
(-0.216119 0.163991 7.47451e-22)
(-0.50497 0.197206 0)
(-0.801529 0.203351 0)
(-1.07893 0.184251 6.08378e-22)
(-1.31774 0.14911 0)
(-1.51289 0.111244 0)
(-1.6603 0.0769698 -4.71507e-22)
(-1.77091 0.055393 0)
(-1.8675 0.0494396 -3.71669e-22)
(-1.98038 0.0689431 -6.18566e-22)
(-2.13311 0.104194 0)
(-2.32263 0.132961 0)
(-2.54588 0.143535 0)
(-2.76092 0.107402 0)
(-2.93083 0.0726769 0)
(-3.06898 0.0324642 -1.3677e-22)
(-3.17143 -0.060366 -6.71539e-23)
(-3.27712 -0.0762623 3.45855e-24)
(-3.37405 0.044402 0)
(-3.53978 0.104978 -5.5584e-23)
(-3.66141 0.0874017 0)
(-3.75733 0.0778955 1.08365e-22)
(-3.83284 0.0672623 1.31401e-22)
(-3.88891 0.0518781 0)
(-3.92071 0.0291405 0)
(-3.93989 -0.0175056 0)
(-3.94503 -0.0084345 1.68988e-22)
(-3.98177 0.0163258 0)
(-3.99831 0.00341132 0)
(-3.99559 -0.00796877 0)
(-3.96128 -0.0245284 0)
(-3.91627 -0.0669278 0)
(-3.85751 -0.0648696 0)
(-3.83827 -0.0254586 0)
(-3.82911 -0.0227985 0)
(-3.81486 -0.0197458 -3.49209e-22)
(-3.80792 -0.0195725 0)
(-3.80053 -0.0172806 0)
(-3.80164 -0.0132833 4.11672e-22)
(-3.80829 -0.00871572 4.13153e-22)
(-3.82101 -0.00542317 0)
(-3.83795 -0.00315517 -3.7735e-22)
(-3.85406 -0.00202969 3.46855e-22)
(-3.8658 -0.0026708 0)
(-3.87265 -0.00770373 -2.93562e-22)
(-3.87091 -0.0135101 0)
(-3.86254 -0.0153699 0)
(-3.8552 -0.0105336 2.27638e-22)
(-3.86019 -8.47307e-05 0)
(-3.88363 0.0117705 -1.39368e-22)
(-3.92322 0.0195884 0)
(-3.97165 0.0171064 1.06151e-23)
(-4.00657 0.00765997 -6.37665e-23)
(-4.03733 -0.00584387 -1.43232e-22)
(-4.03568 -0.0308294 -4.57837e-22)
(-4.03906 -0.0461119 6.29315e-22)
(-4.03797 -0.0479958 0)
(-4.08837 -0.00401758 0)
(-4.20103 0.0799155 0)
(-4.34651 0.0867172 1.23513e-21)
(-4.41973 0.0528537 1.25323e-21)
(-4.44263 0.0247764 -1.25179e-21)
(-4.41968 -0.00100352 0)
(-4.35745 -0.0218358 1.30745e-21)
(-4.26205 -0.0393286 1.38958e-21)
(-4.13763 -0.053567 1.5126e-21)
(-3.98831 -0.0654688 0)
(-3.81686 -0.0753551 0)
(-3.62619 -0.0837096 0)
(-3.41819 -0.0907904 2.39583e-21)
(-3.1949 -0.0970044 0)
(-2.95769 -0.102197 0)
(-2.7079 -0.106569 -3.40458e-21)
(-2.44704 -0.110097 0)
(-2.17681 -0.112841 0)
(-1.89871 -0.114801 -4.58544e-21)
(-1.61426 -0.115998 0)
(-1.32525 -0.116417 0)
(-1.03351 -0.116043 5.76264e-21)
(-0.740978 -0.114806 6.12304e-21)
(-0.449576 -0.112692 0)
(-0.161395 -0.109727 -6.76393e-21)
(0.121454 -0.105993 0)
(0.397455 -0.101759 7.2774e-21)
(0.665426 -0.0975247 0)
(0.924548 -0.0930407 7.65886e-21)
(1.17482 -0.0885439 7.80292e-21)
(1.41611 -0.0841177 0)
(1.64828 -0.079734 0)
(1.87122 -0.0753375 0)
(2.08483 -0.0708967 0)
(2.28887 -0.0664036 0)
(2.48298 -0.0619482 0)
(2.66669 -0.0575703 0)
(2.8401 -0.053234 7.99172e-21)
(3.00295 -0.0487805 -7.91417e-21)
(3.15528 -0.0443934 0)
(3.29706 -0.0401002 0)
(3.42834 -0.0359333 0)
(3.54921 -0.0318917 0)
(3.65991 -0.0280164 -1.46833e-20)
(3.76067 -0.0243071 0)
(3.85178 -0.0207742 1.41361e-20)
(3.93354 -0.017408 -1.38584e-20)
(4.00628 -0.0142007 0)
(4.07025 -0.0111386 0)
(4.12571 -0.00821535 0)
(4.17292 -0.0054308 1.27834e-20)
(4.21219 -0.00278433 1.25331e-20)
(4.24376 -0.000268862 0)
(4.26791 0.00213746 1.20636e-20)
(4.28484 0.00445232 1.18458e-20)
(4.29475 0.00666673 -1.16399e-20)
(4.29787 0.00871312 0)
(4.29448 0.0104828 0)
(4.28507 0.0119335 -1.10933e-20)
(4.27001 0.0131715 0)
(4.24962 0.0143767 0)
(4.22391 0.0156963 0)
(4.19275 0.0171847 0)
(4.15586 0.0188017 1.04049e-20)
(4.11288 0.0204469 1.0296e-20)
(4.06346 0.0220201 0)
(4.00721 0.0235082 1.0101e-20)
(3.94362 0.024881 0)
(3.87221 0.0259148 0)
(3.79285 0.0262556 9.84046e-21)
(3.70601 0.0255283 0)
(3.6135 0.0230557 9.66066e-21)
(3.51998 0.0188831 0)
(3.43165 0.0143675 0)
(3.35392 0.0120992 9.37335e-21)
(3.28923 0.012793 0)
(3.23127 0.0178058 9.19126e-21)
(3.17013 0.0213577 0)
(3.10582 0.0208161 0)
(3.03931 0.018094 0)
(2.97335 0.0131187 -8.81454e-21)
(2.91318 0.00844529 0)
(2.86229 0.00534667 8.62865e-21)
(2.81726 0.00446922 0)
(2.77745 0.0058063 0)
(2.73571 0.00938068 0)
(2.68708 0.0122537 0)
(2.62941 0.0155505 0)
(2.55717 0.0139973 0)
(2.49399 0.0214032 0)
(2.37533 0.0184156 -1.60716e-20)
(2.32846 0.0479355 0)
(2.04064 0.026829 0)
(-0.00734419 0.771737 -4.25161e-21)
(0.0168925 0.494958 4.16561e-21)
(0.0795765 0.127806 0)
(0.253043 -0.24981 -2.61217e-21)
(0.504506 -0.641449 0)
(0.82046 -0.940442 -1.37057e-21)
(1.15419 -1.1058 2.47676e-21)
(1.47485 -1.15258 2.40303e-21)
(1.7661 -1.1059 0)
(2.01787 -0.992953 2.15542e-21)
(2.22481 -0.843181 1.20723e-21)
(2.38456 -0.677576 0)
(2.49873 -0.511373 0)
(2.5704 -0.354433 0)
(2.60536 -0.210905 0)
(2.6101 -0.0760829 8.33012e-22)
(2.58759 0.0399444 0)
(2.5346 0.129062 -1.25694e-21)
(2.455 0.198036 0)
(2.35315 0.263507 0)
(2.21809 0.359256 1.27661e-21)
(2.05398 0.465726 0)
(1.86566 0.546082 -1.35043e-21)
(1.66356 0.611575 8.1432e-22)
(1.4606 0.640604 -8.30729e-22)
(1.23227 0.645668 8.39626e-22)
(0.957993 0.70105 8.38647e-22)
(0.631326 0.748017 0)
(0.264138 0.755633 0)
(-0.13236 0.74453 -7.84105e-22)
(-0.505393 0.731546 5.05186e-22)
(-0.833048 0.716291 0)
(-1.13354 0.684468 0)
(-1.38761 0.613589 -6.12269e-22)
(-1.60955 0.509258 0)
(-1.79814 0.391843 0)
(-1.95076 0.273029 4.76224e-22)
(-2.08573 0.201292 0)
(-2.2268 0.220057 -2.75846e-23)
(-2.38254 0.307181 6.28173e-22)
(-2.54821 0.395002 0)
(-2.71656 0.461031 0)
(-2.88256 0.47109 1.20836e-22)
(-3.06468 0.406548 2.89683e-23)
(-3.26388 0.353833 -9.64019e-23)
(-3.43075 0.303781 3.70578e-22)
(-3.62766 0.331212 7.37203e-23)
(-3.84096 0.341409 -5.10395e-22)
(-3.95871 0.305266 6.18188e-22)
(-4.06368 0.253637 4.78339e-23)
(-4.12078 0.184901 0)
(-4.16282 0.13386 -1.00984e-22)
(-4.17078 0.0815706 6.73476e-22)
(-4.17006 0.0368516 0)
(-4.1581 0.0143682 0)
(-4.17444 0.0285632 0)
(-4.17773 0.0359003 -1.64461e-22)
(-4.17439 0.0189219 0)
(-4.14753 -0.0176108 7.67075e-22)
(-4.11484 -0.06427 0)
(-4.06639 -0.103304 8.14471e-22)
(-4.06433 -0.0767927 0)
(-4.06667 -0.0499088 -9.08784e-22)
(-4.06245 -0.0360354 0)
(-4.05548 -0.0339279 1.0224e-21)
(-4.04625 -0.0253559 -7.41796e-22)
(-4.04084 -0.0162268 0)
(-4.03696 -0.00381017 -1.19905e-21)
(-4.03951 0.00843266 -4.1021e-22)
(-4.04695 0.0193814 -4.11472e-22)
(-4.06109 0.0257599 0)
(-4.07944 0.0256208 -7.32004e-22)
(-4.08861 0.0144268 -3.44467e-22)
(-4.09084 0.0007929 0)
(-4.08427 -0.00702217 2.91155e-22)
(-4.07121 -0.0135322 -8.43746e-22)
(-4.05991 -0.0167609 0)
(-4.05656 -0.00576145 -2.24983e-22)
(-4.06327 0.0186318 0)
(-4.07905 0.0438337 6.56815e-22)
(-4.09891 0.0595507 0)
(-4.12635 0.0601244 -2.41147e-22)
(-4.1503 0.0500843 6.52168e-23)
(-4.18189 0.0298022 3.88703e-23)
(-4.21758 0.0211124 -1.01156e-22)
(-4.30136 0.0433246 2.59683e-22)
(-4.38997 0.0890293 0)
(-4.51927 0.159224 0)
(-4.56745 0.152827 0)
(-4.5746 0.0946678 -3.01923e-21)
(-4.52618 0.0238041 -1.25524e-21)
(-4.4508 -0.0398001 1.25417e-21)
(-4.34438 -0.0965562 0)
(-4.21667 -0.144019 8.51405e-22)
(-4.06746 -0.184454 -1.39069e-21)
(-3.90106 -0.218429 -1.51298e-21)
(-3.71801 -0.247483 0)
(-3.52037 -0.272381 0)
(-3.30849 -0.294048 0)
(-3.08357 -0.313083 -2.39418e-21)
(-2.84599 -0.329913 0)
(-2.59673 -0.344608 5.83428e-21)
(-2.33638 -0.357286 9.97585e-21)
(-2.06602 -0.367842 -7.35221e-21)
(-1.78646 -0.376209 0)
(-1.49911 -0.382263 -4.39367e-21)
(-1.20555 -0.385958 0)
(-0.907498 -0.387257 -1.05987e-20)
(-0.606793 -0.386114 5.61172e-21)
(-0.305306 -0.382359 5.98551e-21)
(-0.00497962 -0.375915 0)
(0.292182 -0.366957 2.01773e-20)
(0.583994 -0.355803 -1.39721e-20)
(0.86884 -0.343202 -7.27585e-21)
(1.14573 -0.329992 0)
(1.41415 -0.316436 -7.65684e-21)
(1.67401 -0.302892 -2.33296e-20)
(1.92523 -0.289524 0)
(2.16783 -0.276341 -1.5941e-20)
(2.4017 -0.263182 -1.60643e-20)
(2.62669 -0.249909 -1.6135e-20)
(2.8426 -0.236485 0)
(3.04902 -0.223288 0)
(3.24546 -0.209901 0)
(3.43211 -0.196498 7.94525e-21)
(3.60873 -0.183112 7.90996e-21)
(3.77527 -0.169888 0)
(3.93173 -0.156944 1.53873e-20)
(4.07818 -0.144376 1.51561e-20)
(4.21476 -0.13221 0)
(4.34169 -0.120527 1.46758e-20)
(4.45923 -0.10933 2.87559e-20)
(4.56765 -0.098638 -1.41289e-20)
(4.66729 -0.0884367 -1.38034e-20)
(4.75846 -0.0787122 0)
(4.84151 -0.0694458 0)
(4.91681 -0.0606175 0)
(4.9847 -0.0522153 -1.27768e-20)
(5.04548 -0.044227 1.24864e-20)
(5.09949 -0.0366346 2.45335e-20)
(5.147 -0.0294164 -1.20572e-20)
(5.18832 -0.0225338 1.18009e-20)
(5.22372 -0.0159607 1.16335e-20)
(5.25344 -0.00969505 0)
(5.27763 -0.00376585 0)
(5.29629 0.00179608 -1.10483e-20)
(5.30947 0.00701183 0)
(5.31726 0.0119542 0)
(5.3198 0.0167262 2.12448e-20)
(5.31726 0.0214417 0)
(5.30989 0.0262184 1.03542e-20)
(5.29797 0.03119 -1.02892e-20)
(5.28164 0.0364632 0)
(5.26077 0.042134 1.00407e-20)
(5.23501 0.0482426 0)
(5.20377 0.0547009 0)
(5.16632 0.0611663 -9.83345e-21)
(5.12164 0.0670898 1.94175e-20)
(5.06863 0.0712926 -9.65356e-21)
(5.00636 0.0723481 0)
(4.93394 0.0685654 0)
(4.85088 0.060226 9.30521e-21)
(4.75979 0.0497984 0)
(4.67353 0.041821 9.12903e-21)
(4.60506 0.0401424 0)
(4.55455 0.0423295 0)
(4.51548 0.045596 0)
(4.47578 0.0467503 8.80716e-21)
(4.43107 0.0439962 0)
(4.38364 0.0388232 -8.62124e-21)
(4.33706 0.0344671 0)
(4.29188 0.0307463 0)
(4.25387 0.0319956 1.66932e-20)
(4.21706 0.034215 -1.6539e-20)
(4.18778 0.0427956 0)
(4.14351 0.0439334 0)
(4.11074 0.0593169 0)
(4.02768 0.0545268 4.80764e-20)
(3.99657 0.0977857 0)
(3.82953 0.0901579 -3.15843e-20)
(0.0722866 0.466084 -3.32222e-23)
(0.263097 0.124583 -5.56146e-21)
(0.537617 -0.388161 0)
(0.883135 -0.923403 5.21155e-21)
(1.23048 -1.3631 0)
(1.52958 -1.63707 0)
(1.76127 -1.73195 -3.21931e-22)
(1.93178 -1.68105 -2.40902e-21)
(2.05112 -1.52294 -1.8443e-21)
(2.1338 -1.29697 -2.15943e-21)
(2.18292 -1.04498 0)
(2.20663 -0.794306 0)
(2.20656 -0.554841 1.22952e-21)
(2.18562 -0.333931 2.23719e-21)
(2.14474 -0.139223 -2.06451e-21)
(2.08562 0.0288402 0)
(2.01407 0.174569 -1.86485e-21)
(1.92361 0.298768 1.25662e-21)
(1.81809 0.404868 0)
(1.68357 0.534919 -1.86796e-21)
(1.53355 0.665816 -1.27871e-21)
(1.3786 0.774082 1.99481e-21)
(1.21692 0.865682 1.35417e-21)
(1.05292 0.923962 0)
(0.87358 0.979368 -2.20796e-21)
(0.642346 1.08983 -2.24475e-21)
(0.391606 1.19656 0)
(0.115083 1.29951 -2.23625e-21)
(-0.181312 1.36979 0)
(-0.489675 1.38803 -2.0801e-21)
(-0.805838 1.34838 -1.26858e-21)
(-1.10033 1.26531 0)
(-1.36978 1.14792 0)
(-1.60024 0.999919 0)
(-1.81222 0.847992 0)
(-1.99874 0.692656 0)
(-2.18816 0.573334 0)
(-2.37734 0.511981 -3.90847e-22)
(-2.57226 0.524372 5.43478e-22)
(-2.7736 0.589215 0)
(-2.95687 0.65056 0)
(-3.14228 0.674795 0)
(-3.28662 0.704373 -6.69211e-22)
(-3.45589 0.6863 -3.88699e-23)
(-3.60549 0.634524 8.22549e-22)
(-3.74534 0.584734 -1.09081e-21)
(-3.87002 0.534709 -1.01136e-21)
(-3.96656 0.470219 5.06924e-22)
(-4.01461 0.401112 6.5525e-22)
(-4.0492 0.325508 1.35155e-21)
(-4.05827 0.244545 0)
(-4.06449 0.166052 1.42715e-21)
(-4.05867 0.0990737 6.23197e-22)
(-4.06922 0.0628732 0)
(-4.07691 0.0463483 0)
(-4.07838 0.0356461 -1.34138e-21)
(-4.05694 0.0124336 0)
(-4.03252 -0.0184587 0)
(-4.00259 -0.0593072 1.75287e-21)
(-3.9845 -0.0902681 2.49971e-21)
(-4.00051 -0.076686 -8.1739e-22)
(-4.03625 -0.0501733 0)
(-4.05855 -0.0406021 9.11174e-22)
(-4.07013 -0.0389343 0)
(-4.07552 -0.0384827 2.01892e-21)
(-4.07414 -0.0344039 1.09063e-21)
(-4.06645 -0.0276967 -3.36615e-21)
(-4.05505 -0.0148146 -2.27068e-21)
(-4.04351 0.00367263 0)
(-4.0352 0.0233778 3.46861e-21)
(-4.03226 0.0352607 0)
(-4.03062 0.0317432 4.28669e-21)
(-4.0234 0.0132931 2.98165e-21)
(-4.0113 -0.00942777 2.80054e-21)
(-3.98874 -0.0314588 -2.64264e-21)
(-3.96618 -0.0398852 3.351e-21)
(-3.95018 -0.0283743 0)
(-3.94036 -0.000650468 0)
(-3.93744 0.0313621 -1.96252e-21)
(-3.94192 0.0583005 -2.22256e-21)
(-3.95135 0.0771948 0)
(-3.97442 0.0833172 2.37895e-22)
(-4.00592 0.0786625 0)
(-4.0529 0.0761033 -2.21843e-22)
(-4.12657 0.103547 5.38453e-22)
(-4.21348 0.139623 -5.89738e-22)
(-4.30363 0.191178 -5.02449e-22)
(-4.33677 0.190027 0)
(-4.29021 0.122876 8.05244e-22)
(-4.21844 0.0320998 8.49045e-22)
(-4.12102 -0.0609308 0)
(-4.01575 -0.144852 0)
(-3.89393 -0.218932 0)
(-3.76089 -0.282154 -2.15266e-21)
(-3.61172 -0.336879 0)
(-3.44898 -0.383895 0)
(-3.2712 -0.424855 0)
(-3.08008 -0.46067 0)
(-2.87553 -0.492586 0)
(-2.65869 -0.521192 -4.08705e-21)
(-2.4297 -0.546967 0)
(-2.1894 -0.569967 -5.82666e-21)
(-1.93826 -0.590174 -6.5666e-21)
(-1.67734 -0.607339 7.34662e-21)
(-1.40757 -0.6212 0)
(-1.13029 -0.631375 8.9741e-21)
(-0.846861 -0.63769 0)
(-0.558822 -0.640065 1.05965e-20)
(-0.26771 -0.63834 -1.13714e-20)
(0.0248487 -0.632355 -3.58681e-20)
(0.317 -0.621954 0)
(0.606621 -0.607219 -3.98664e-20)
(0.891465 -0.588847 -1.36311e-20)
(1.16961 -0.56812 0)
(1.43986 -0.546064 -2.94699e-20)
(1.70178 -0.523519 -3.01995e-20)
(1.95537 -0.501182 4.63299e-20)
(2.20066 -0.479236 0)
(2.4377 -0.457639 1.59388e-20)
(2.66645 -0.436106 1.60621e-20)
(2.88664 -0.414379 4.82059e-20)
(3.09792 -0.392592 0)
(3.29981 -0.370726 0)
(3.49213 -0.348633 0)
(3.67467 -0.326538 1.57811e-20)
(3.84724 -0.30459 0)
(4.00977 -0.282943 0)
(4.16226 -0.261763 -1.53822e-20)
(4.30482 -0.241211 -1.51513e-20)
(4.43759 -0.221355 0)
(4.56082 -0.202308 0)
(4.67479 -0.184072 -2.87484e-20)
(4.77982 -0.166691 0)
(4.87625 -0.150144 2.76485e-20)
(4.96442 -0.134426 2.70201e-20)
(5.04465 -0.119515 0)
(5.11729 -0.105379 0)
(5.18266 -0.0919997 -2.5438e-20)
(5.24111 -0.0793582 -6.78242e-23)
(5.29301 -0.0674239 -6.61654e-23)
(5.33875 -0.0561538 0)
(5.37873 -0.0454995 -4.72098e-20)
(5.41331 -0.0354279 0)
(5.44283 -0.0259166 0)
(5.46755 -0.0169342 0)
(5.48771 -0.00844143 2.2132e-20)
(5.50345 -0.000375844 0)
(5.51484 0.00735727 -4.29093e-20)
(5.52195 0.0148632 -2.12416e-20)
(5.52487 0.0221917 0)
(5.52369 0.0293356 -2.0749e-20)
(5.5186 0.0363051 0)
(5.50989 0.0432302 0)
(5.49798 0.050378 -6.02458e-20)
(5.48334 0.0580066 3.97421e-20)
(5.46626 0.0661801 0)
(5.44669 0.0746572 3.90233e-20)
(5.42419 0.0830701 -1.94141e-20)
(5.39778 0.09073 0)
(5.36613 0.0968502 0)
(5.32704 0.100612 0)
(5.27854 0.101767 -5.58507e-20)
(5.21791 0.100565 0)
(5.14357 0.0943191 -1.83091e-20)
(5.05979 0.0815773 0)
(4.97461 0.0680973 0)
(4.9015 0.0598758 0)
(4.84793 0.0574091 0)
(4.80456 0.0558724 0)
(4.7596 0.0521561 0)
(4.71353 0.0492378 -3.39002e-20)
(4.6668 0.0462582 0)
(4.62548 0.0457287 -1.66887e-20)
(4.58641 0.0441074 4.94827e-20)
(4.56056 0.049626 0)
(4.5321 0.0512046 0)
(4.51851 0.0698396 -3.213e-20)
(4.47865 0.0766619 -3.20103e-20)
(4.46158 0.121648 3.16472e-20)
(4.38217 0.132694 3.15741e-20)
(0.0490667 0.00858341 8.4839e-21)
(0.374318 -0.560953 8.329e-21)
(0.795147 -1.23677 5.26354e-21)
(1.16327 -1.7184 2.30717e-21)
(1.44111 -2.00383 0)
(1.60837 -2.06867 -4.06837e-21)
(1.68231 -1.95802 1.48595e-21)
(1.69823 -1.7526 0)
(1.67822 -1.49814 1.84389e-21)
(1.64869 -1.22076 0)
(1.61357 -0.94536 -2.16978e-21)
(1.57581 -0.678143 0)
(1.53051 -0.423548 -1.22627e-21)
(1.47405 -0.187856 -2.23033e-21)
(1.40367 0.024795 2.05769e-21)
(1.32015 0.211335 0)
(1.22398 0.376173 1.85952e-21)
(1.11587 0.517851 0)
(0.989438 0.657378 0)
(0.844145 0.80429 1.86714e-21)
(0.696862 0.936518 0)
(0.543698 1.05407 -7.02866e-22)
(0.391048 1.14418 0)
(0.220142 1.24037 0)
(0.0165094 1.37219 7.71279e-22)
(-0.198714 1.50382 2.25364e-21)
(-0.419162 1.62729 1.45718e-21)
(-0.638145 1.72892 2.24887e-21)
(-0.853541 1.79337 0)
(-1.06691 1.81293 3.41069e-21)
(-1.28791 1.77551 0)
(-1.5101 1.67848 1.09837e-21)
(-1.73196 1.5369 0)
(-1.94353 1.36934 0)
(-2.15148 1.19767 -5.71225e-22)
(-2.35481 1.03516 0)
(-2.56973 0.918152 1.11859e-22)
(-2.78202 0.85994 5.64431e-22)
(-2.99856 0.877495 3.17312e-22)
(-3.21174 0.936163 -1.45514e-21)
(-3.40661 0.98659 0)
(-3.57311 0.97808 0)
(-3.70063 0.941608 -1.93957e-21)
(-3.80551 0.868062 0)
(-3.88461 0.790521 -7.28418e-22)
(-3.94803 0.721965 8.67348e-22)
(-3.98223 0.636207 1.00727e-21)
(-3.99303 0.536545 0)
(-3.9849 0.434038 -1.26755e-21)
(-3.97139 0.329824 -1.35229e-21)
(-3.95221 0.232421 4.22193e-21)
(-3.94346 0.154022 -1.42933e-21)
(-3.94433 0.10307 -1.42429e-21)
(-3.95907 0.0690799 0)
(-3.9646 0.0361631 0)
(-3.96088 0.00552336 1.34502e-21)
(-3.94787 -0.0239826 0)
(-3.94284 -0.0493655 0)
(-3.9418 -0.0746898 -2.52886e-21)
(-3.96725 -0.0678956 -2.50446e-21)
(-4.02034 -0.0339365 0)
(-4.0718 -0.0126639 0)
(-4.10513 -0.0127221 0)
(-4.13203 -0.0182559 0)
(-4.14837 -0.0275224 -3.04335e-21)
(-4.15061 -0.0371106 4.36015e-21)
(-4.13884 -0.0410956 3.36869e-21)
(-4.11779 -0.0329363 8.10479e-21)
(-4.09241 -0.0137381 0)
(-4.06263 0.0083667 1.11867e-21)
(-4.0307 0.0174363 0)
(-3.99469 0.00502925 -3.18246e-21)
(-3.9549 -0.0227891 9.87544e-22)
(-3.91135 -0.0542968 -2.81557e-21)
(-3.86399 -0.0679589 2.65971e-21)
(-3.81766 -0.065447 8.57994e-22)
(-3.7673 -0.0580716 0)
(-3.72381 -0.0296505 2.98576e-21)
(-3.6938 0.0128458 1.98019e-21)
(-3.68091 0.0535157 4.13263e-21)
(-3.68343 0.0877393 0)