/*--------------------------------*- C++ -*----------------------------------*\
  =========                 |
  \\      /  F ield         | OpenFOAM: The Open Source CFD Toolbox
   \\    /   O peration     | Website:  https://openfoam.org
    \\  /    A nd           | Version:  10
     \\/     M anipulation  |
\*---------------------------------------------------------------------------*/
FoamFile
{
    format      ascii;
    class       volVectorField;
    location    "1.03";
    object      Ub;
}
// * * * * * * * * * * * * * * * * * * * * * * * * * * * * * * * * * * * * * //

dimensions      [0 1 -1 0 0 0 0];

internalField   nonuniform List<vector> 
12225
(
(0.00216417 -0.000439117 0)
(0.00617931 -0.000391573 0)
(0.00949445 -0.000323229 0)
(0.0120646 -0.000255064 0)
(0.0139915 -0.000197937 0)
(0.0154261 -0.000154986 0)
(0.0165145 -0.000125488 0)
(0.0173774 -0.000107512 0)
(0.0181088 -9.92653e-05 0)
(0.0187826 -9.96905e-05 0)
(0.0194608 -0.000108796 0)
(0.0202028 -0.000128089 0)
(0.021078 -0.000161567 0)
(0.0221856 -0.000218275 0)
(0.0236992 -0.000319796 0)
(0.0259947 -0.000526863 0)
(0.0301491 -0.00106564 0)
(0.0407714 -0.00317698 0)
(0.00232449 -0.00138312 0)
(0.0066283 -0.00123132 0)
(0.0101637 -0.00101404 0)
(0.012887 -0.000798075 0)
(0.0149144 -0.00061763 0)
(0.0164134 -0.000482321 0)
(0.0175433 -0.000389605 0)
(0.0184343 -0.00033321 0)
(0.0191871 -0.000307367 0)
(0.0198796 -0.000308648 0)
(0.0205768 -0.000336958 0)
(0.0213399 -0.000396825 0)
(0.0222391 -0.000500325 0)
(0.0233717 -0.000674532 0)
(0.0248991 -0.000982493 0)
(0.0271315 -0.00159226 0)
(0.0306995 -0.00305677 0)
(0.0361375 -0.00774543 0)
(0.00244313 -0.00245647 0)
(0.00695383 -0.00218102 0)
(0.010633 -0.00178944 0)
(0.0134423 -0.00140252 0)
(0.0155145 -0.0010809 0)
(0.017033 -0.000840769 0)
(0.0181682 -0.000676821 0)
(0.0190574 -0.000577369 0)
(0.019805 -0.00053182 0)
(0.0204909 -0.000533801 0)
(0.0211803 -0.000582765 0)
(0.0219333 -0.000686019 0)
(0.0228156 -0.000863283 0)
(0.0239127 -0.00115792 0)
(0.0253509 -0.00166641 0)
(0.0273193 -0.00262297 0)
(0.0299889 -0.00466357 0)
(0.0325301 -0.00961122 0)
(0.00256172 -0.00366345 0)
(0.00727296 -0.00324106 0)
(0.0110784 -0.00264614 0)
(0.0139499 -0.0020631 0)
(0.0160427 -0.0015819 0)
(0.0175589 -0.00122473 0)
(0.0186813 -0.000982011 0)
(0.0195534 -0.000835245 0)
(0.0202823 -0.000767977 0)
(0.0209486 -0.000770154 0)
(0.0216159 -0.000840173 0)
(0.0223406 -0.000987361 0)
(0.0231803 -0.00123746 0)
(0.0242019 -0.0016455 0)
(0.0254847 -0.0023263 0)
(0.0270947 -0.00352722 0)
(0.028909 -0.00578795 0)
(0.0298987 -0.0101234 0)
(0.00269523 -0.00502171 0)
(0.00762564 -0.00442183 0)
(0.0115554 -0.0035872 0)
(0.0144737 -0.00277831 0)
(0.0165666 -0.00211704 0)
(0.018061 -0.00163002 0)
(0.0191534 -0.00130105 0)
(0.0199938 -0.00110291 0)
(0.0206912 -0.00101193 0)
(0.0213254 -0.00101343 0)
(0.021957 -0.00110384 0)
(0.0226367 -0.00129322 0)
(0.0234111 -0.00161067 0)
(0.0243246 -0.00211631 0)
(0.0254093 -0.00292601 0)
(0.0266364 -0.0042569 0)
(0.0277543 -0.00647975 0)
(0.0279275 -0.0100035 0)
(0.00285549 -0.00655834 0)
(0.00804156 -0.00573914 0)
(0.0121013 -0.00461744 0)
(0.0150518 -0.00354629 0)
(0.0171231 -0.00268155 0)
(0.0185738 -0.0020511 0)
(0.0196172 -0.00162853 0)
(0.0204098 -0.00137527 0)
(0.0210617 -0.00125872 0)
(0.0216504 -0.0012583 0)
(0.0222325 -0.00136731 0)
(0.022851 -0.00159479 0)
(0.0235398 -0.00196983 0)
(0.0243207 -0.00255043 0)
(0.0251867 -0.00343868 0)
(0.0260529 -0.00479732 0)
(0.0266495 -0.00683238 0)
(0.0264022 -0.00960642 0)
(0.00305585 -0.00831182 0)
(0.00855239 -0.00721408 0)
(0.0127521 -0.00574199 0)
(0.0157172 -0.00436315 0)
(0.0177401 -0.00326802 0)
(0.0191208 -0.00247993 0)
(0.0200927 -0.0019569 0)
(0.0208189 -0.00164543 0)
(0.0214096 -0.00150178 0)
(0.0219387 -0.00149797 0)
(0.0224568 -0.00162272 0)
(0.0229987 -0.00188204 0)
(0.0235852 -0.00230141 0)
(0.0242184 -0.00293045 0)
(0.0248644 -0.00384779 0)
(0.0254165 -0.00515647 0)
(0.0256434 -0.0069377 0)
(0.025188 -0.00909809 0)
(0.00331413 -0.0103365 0)
(0.00919845 -0.00887376 0)
(0.0135499 -0.00696478 0)
(0.0165045 -0.00522107 0)
(0.0184436 -0.0038648 0)
(0.0197213 -0.0029048 0)
(0.0205946 -0.00227563 0)
(0.0212329 -0.00190408 0)
(0.0217447 -0.00173255 0)
(0.0221988 -0.00172393 0)
(0.0226388 -0.00186077 0)
(0.0230903 -0.00214398 0)
(0.023562 -0.00259234 0)
(0.0240413 -0.00324261 0)
(0.0244801 -0.00414645 0)
(0.0247742 -0.0053546 0)
(0.0247487 -0.0068698 0)
(0.0241984 -0.00855245 0)
(0.00365638 -0.0127108 0)
(0.010036 -0.0107523 0)
(0.0145488 -0.00828612 0)
(0.0174539 -0.00610535 0)
(0.0192607 -0.00445372 0)
(0.0203932 -0.0033088 0)
(0.0211349 -0.00257025 0)
(0.0216601 -0.00213893 0)
(0.0220734 -0.00194015 0)
(0.0224365 -0.00192581 0)
(0.0227846 -0.00207082 0)
(0.023134 -0.00236917 0)
(0.0234835 -0.00283073 0)
(0.0238107 -0.0034774 0)
(0.024064 -0.0043353 0)
(0.0241544 -0.00541633 0)
(0.0239616 -0.00668265 0)
(0.0233765 -0.0080003 0)
(0.00412301 -0.0155506 0)
(0.0111483 -0.0128914 0)
(0.0158221 -0.00969779 0)
(0.0186146 -0.00698979 0)
(0.0202207 -0.00500692 0)
(0.0211531 -0.00366791 0)
(0.021723 -0.00282126 0)
(0.0221063 -0.00233406 0)
(0.0223998 -0.00211103 0)
(0.0226555 -0.00209138 0)
(0.0228991 -0.00224112 0)
(0.0231376 -0.00254619 0)
(0.023362 -0.00300646 0)
(0.023545 -0.00362932 0)
(0.0236383 -0.00441997 0)
(0.023573 -0.00536554 0)
(0.023272 -0.00641311 0)
(0.0226829 -0.00745285 0)
(0.00478015 -0.0190339 0)
(0.012664 -0.0153383 0)
(0.0174719 -0.0111736 0)
(0.020047 -0.00782896 0)
(0.0213547 -0.00548226 0)
(0.0220157 -0.00394851 0)
(0.0223656 -0.00300283 0)
(0.0225744 -0.00246938 0)
(0.0227255 -0.00222889 0)
(0.0228579 -0.00220664 0)
(0.022986 -0.00235919 0)
(0.0231079 -0.00266408 0)
(0.0232086 -0.00311147 0)
(0.0232593 -0.00369624 0)
(0.0232187 -0.00440867 0)
(0.0230368 -0.00522279 0)
(0.0226674 -0.0060852 0)
(0.0220894 -0.00691266 0)
(0.00567307 -0.0230244 0)
(0.0146414 -0.0178932 0)
(0.0194952 -0.0125398 0)
(0.0217098 -0.00850291 0)
(0.0226134 -0.00580398 0)
(0.022939 -0.00410338 0)
(0.0230325 -0.00308432 0)
(0.0230464 -0.00252329 0)
(0.0230441 -0.00227692 0)
(0.0230483 -0.00225747 0)
(0.0230611 -0.00241313 0)
(0.0230724 -0.00271423 0)
(0.0230626 -0.00314313 0)
(0.0230036 -0.0036858 0)
(0.0228608 -0.0043237 0)
(0.0225983 -0.00502603 0)
(0.0221887 -0.00574503 0)
(0.0216253 -0.00641898 0)
(0.00692216 -0.0281495 0)
(0.0172757 -0.0207259 0)
(0.0219916 -0.0137774 0)
(0.0236252 -0.00895486 0)
(0.0239802 -0.00592179 0)
(0.0238896 -0.0040954 0)
(0.0236835 -0.00303958 0)
(0.0234797 -0.00247758 0)
(0.0233122 -0.0022425 0)
(0.0231828 -0.00223538 0)
(0.0230796 -0.00239775 0)
(0.022984 -0.00269446 0)
(0.0228728 -0.00310231 0)
(0.022719 -0.00360165 0)
(0.0224943 -0.00416973 0)
(0.0221734 -0.0047759 0)
(0.0217408 -0.00538019 0)
(0.0211973 -0.0059374 0)
(0.009174 -0.0361622 0)
(0.0217224 -0.0242091 0)
(0.0257821 -0.0148036 0)
(0.0262942 -0.00903393 0)
(0.0257635 -0.00570873 0)
(0.0250674 -0.0038309 0)
(0.0244553 -0.00280126 0)
(0.0239708 -0.00228362 0)
(0.0235986 -0.00209002 0)
(0.0233094 -0.0021137 0)
(0.023073 -0.00229233 0)
(0.0228604 -0.00258761 0)
(0.0226441 -0.00297304 0)
(0.0223981 -0.00342614 0)
(0.0220996 -0.00392332 0)
(0.0217312 -0.00443722 0)
(0.021285 -0.00493688 0)
(0.0207647 -0.00539119 0)
(0.0137734 -0.0501645 0)
(0.0299693 -0.027771 0)
(0.0317229 -0.0147384 0)
(0.02998 -0.00814279 0)
(0.0280108 -0.0048023 0)
(0.0264533 -0.00308716 0)
(0.025312 -0.00222533 0)
(0.0244837 -0.00184204 0)
(0.0238718 -0.00174617 0)
(0.023403 -0.00183486 0)
(0.0230228 -0.0020494 0)
(0.0226898 -0.00235345 0)
(0.0223713 -0.00272141 0)
(0.0220415 -0.00313182 0)
(0.0216808 -0.00356379 0)
(0.021277 -0.00399561 0)
(0.0208256 -0.00440544 0)
(0.0203302 -0.00477344 0)
(0.0249452 -0.079201 0)
(0.0473392 -0.0273113 0)
(0.0410267 -0.0110055 0)
(0.0347109 -0.00504687 0)
(0.0305357 -0.00259704 0)
(0.0278668 -0.00154016 0)
(0.0261145 -0.00112027 0)
(0.0249167 -0.00102839 0)
(0.0240598 -0.00112283 0)
(0.023414 -0.0013318 0)
(0.0228965 -0.00161519 0)
(0.0224524 -0.00194787 0)
(0.0220435 -0.00231155 0)
(0.0216434 -0.0026906 0)
(0.0212345 -0.00307021 0)
(0.0208067 -0.00343602 0)
(0.0203566 -0.00377472 0)
(0.0198864 -0.00407519 0)
(0.0593694 0.00072927 0)
(0.0908925 0.00312363 0)
(0.0532567 0.00261895 0)
(0.0391304 0.00203495 0)
(0.0325072 0.00154125 0)
(0.0288615 0.00109794 0)
(0.0266217 0.000677626 0)
(0.025132 0.000267902 0)
(0.0240752 -0.000136683 0)
(0.0232796 -0.000537793 0)
(0.022643 -0.000933161 0)
(0.0221016 -0.0013237 0)
(0.0216157 -0.00170548 0)
(0.021159 -0.00207333 0)
(0.020715 -0.00242129 0)
(0.0202742 -0.0027432 0)
(0.0198324 -0.00303343 0)
(0.0193894 -0.00328762 0)
(0.0205066 0.0762299 0)
(0.0405582 0.0319914 0)
(0.0374599 0.016385 0)
(0.0327048 0.00964171 0)
(0.0291371 0.00618755 0)
(0.026687 0.00415383 0)
(0.0249949 0.00281191 0)
(0.0237876 0.00184065 0)
(0.0228885 0.00108426 0)
(0.0221864 0.000461819 0)
(0.0216114 -6.91967e-05 0)
(0.0211175 -0.000535569 0)
(0.0206716 -0.000949084 0)
(0.020253 -0.00132102 0)
(0.0198503 -0.00165476 0)
(0.0194568 -0.00195177 0)
(0.0190695 -0.00221272 0)
(0.0186878 -0.00243826 0)
(0.00783721 0.040436 0)
(0.0187634 0.0278667 0)
(0.0226592 0.018505 0)
(0.0234334 0.0125107 0)
(0.0231179 0.00868318 0)
(0.0225125 0.00615007 0)
(0.0218924 0.00439393 0)
(0.0213349 0.00311772 0)
(0.0208485 0.00214902 0)
(0.0204215 0.0013853 0)
(0.0200379 0.000763974 0)
(0.0196847 0.000247166 0)
(0.0193528 -0.000188176 0)
(0.0190351 -0.000560503 0)
(0.0187251 -0.000880908 0)
(0.0184198 -0.00115783 0)
(0.0181183 -0.00139621 0)
(0.0178208 -0.00159994 0)
(0.00426788 0.0245122 0)
(0.0112084 0.0202196 0)
(0.0153097 0.0155646 0)
(0.0174365 0.0117006 0)
(0.018446 0.00875012 0)
(0.0188714 0.00654697 0)
(0.019 0.00489627 0)
(0.0189778 0.00364086 0)
(0.0188768 0.00266714 0)
(0.0187324 0.00189616 0)
(0.0185617 0.00127376 0)
(0.0183736 0.000762806 0)
(0.0181728 0.000337532 0)
(0.0179629 -1.83961e-05 0)
(0.0177471 -0.00031759 0)
(0.0175264 -0.000570912 0)
(0.0173021 -0.00078646 0)
(0.0170761 -0.000969433 0)
(0.00293502 0.0172469 0)
(0.00805306 0.0151409 0)
(0.0116826 0.0124467 0)
(0.0140359 0.00989361 0)
(0.0154959 0.00773651 0)
(0.0163803 0.00599974 0)
(0.0169039 0.0046255 0)
(0.0172006 0.00353992 0)
(0.0173514 0.0026768 0)
(0.0174054 0.00198342 0)
(0.0173926 0.00141988 0)
(0.0173322 0.000956673 0)
(0.0172367 0.00057214 0)
(0.0171153 0.000250397 0)
(0.0169748 -1.94111e-05 0)
(0.0168209 -0.000245429 0)
(0.0166572 -0.00043632 0)
(0.0164863 -0.00059798 0)
(0.00227178 0.0126869 0)
(0.00637952 0.0114809 0)
(0.00957073 0.00979315 0)
(0.0118793 0.00805936 0)
(0.0134872 0.00649395 0)
(0.0145855 0.00516571 0)
(0.0153261 0.00407165 0)
(0.0158181 0.00318124 0)
(0.0161356 0.0024581 0)
(0.0163291 0.00186876 0)
(0.0164325 0.00138547 0)
(0.0164694 0.000986285 0)
(0.0164565 0.000654244 0)
(0.0164058 0.000376376 0)
(0.0163266 0.00014275 0)
(0.0162264 -5.33965e-05 0)
(0.0161109 -0.000217627 0)
(0.0159839 -0.000356558 0)
(0.00189492 0.00951407 0)
(0.00539192 0.00875543 0)
(0.00825185 0.00763603 0)
(0.0104549 0.00642602 0)
(0.0120927 0.00528421 0)
(0.0132857 0.00427955 0)
(0.0141431 0.00342777 0)
(0.0147518 0.00271891 0)
(0.0151766 0.00213353 0)
(0.0154646 0.00165069 0)
(0.0156502 0.00125144 0)
(0.0157581 0.000919875 0)
(0.0158068 0.000643185 0)
(0.0158102 0.00041122 0)
(0.0157786 0.000216009 0)
(0.0157204 5.12788e-05 0)
(0.0156426 -8.66322e-05 0)
(0.0155501 -0.000202698 0)
(0.00166008 0.00715855 0)
(0.00476159 0.00665489 0)
(0.00737832 0.00588625 0)
(0.00947372 0.00502735 0)
(0.011096 0.00419238 0)
(0.0123255 0.00343895 0)
(0.0132436 0.00278687 0)
(0.0139207 0.00223528 0)
(0.014413 0.00177399 0)
(0.0147638 0.00138989 0)
(0.015006 0.00107009 0)
(0.0151645 0.000803208 0)
(0.0152582 0.000579755 0)
(0.0153017 0.000392004 0)
(0.0153062 0.000233762 0)
(0.0152805 0.000100075 0)
(0.0152319 -1.2704e-05 0)
(0.015166 -0.000107028 0)
(0.00150307 0.00533403 0)
(0.00433318 0.0049911 0)
(0.00676868 0.00445567 0)
(0.00876834 0.00384395 0)
(0.010358 0.00323709 0)
(0.0115943 0.0026798 0)
(0.0125408 0.00219039 0)
(0.0132562 0.00177148 0)
(0.0137897 0.00141785 0)
(0.0141811 0.00112126 0)
(0.0144616 0.000872963 0)
(0.0146554 0.000664914 0)
(0.0147814 0.0004902 0)
(0.0148543 0.000343083 0)
(0.0148857 0.000218889 0)
(0.0148847 0.000113836 0)
(0.0148586 2.48764e-05 0)
(0.0148135 -4.96767e-05 0)
(0.00139133 0.00388028 0)
(0.00402442 0.00364662 0)
(0.00631994 0.00327586 0)
(0.00823607 0.00284582 0)
(0.00978643 0.00241323 0)
(0.0110134 0.00201111 0)
(0.0119689 0.00165431 0)
(0.012703 0.00134629 0)
(0.0132601 0.00108449 0)
(0.0136765 0.000863712 0)
(0.0139819 0.000678092 0)
(0.0141996 0.000522048 0)
(0.0143483 0.000390674 0)
(0.0144425 0.000279833 0)
(0.0144939 0.000186116 0)
(0.0145115 0.00010674 0)
(0.0145029 3.94336e-05 0)
(0.0144739 -1.73372e-05 0)
(0.0013062 0.00270026 0)
(0.00378659 0.00254525 0)
(0.00596775 0.00229634 0)
(0.00780868 0.00200462 0)
(0.0093161 0.00170836 0)
(0.0105235 0.00143063 0)
(0.0114747 0.00118241 0)
(0.0122143 0.000966826 0)
(0.0127821 0.000782662 0)
(0.0132123 0.000626718 0)
(0.0135328 0.000495172 0)
(0.0137661 0.00038429 0)
(0.0139302 0.000290736 0)
(0.0140395 0.000211666 0)
(0.0141053 0.000144714 0)
(0.014137 8.79358e-05 0)
(0.0141417 3.97374e-05 0)
(0.0141254 -1.12191e-06 0)
(0.00123511 0.00173183 0)
(0.00358588 0.00163582 0)
(0.0056651 0.00148026 0)
(0.00743313 0.00129664 0)
(0.0088927 0.00110894 0)
(0.0100715 0.000931967 0)
(0.011008 0.00077299 0)
(0.0117421 0.000634312 0)
(0.0123108 0.000515408 0)
(0.0127458 0.00041441 0)
(0.0130735 0.000328989 0)
(0.0133155 0.000256828 0)
(0.0134892 0.00019583 0)
(0.0136086 0.000144193 0)
(0.0136847 0.00010041 0)
(0.0137265 6.32332e-05 0)
(0.0137413 3.16386e-05 0)
(0.0137349 4.77908e-06 0)
(0.00116593 0.000934397 0)
(0.0033885 0.000883857 0)
(0.00536205 0.000801423 0)
(0.00704866 0.000703635 0)
(0.00844878 0.000603241 0)
(0.00958613 0.000508207 0)
(0.010495 0.000422539 0)
(0.0112117 0.000347579 0)
(0.0117704 0.000283132 0)
(0.0122007 0.000228259 0)
(0.0125276 0.000181753 0)
(0.0127713 0.000142392 0)
(0.0129486 0.000109065 0)
(0.0130728 8.08111e-05 0)
(0.0131546 5.68215e-05 0)
(0.0132027 3.64264e-05 0)
(0.0132241 1.90719e-05 0)
(0.0132245 4.29625e-06 0)
(0.00106383 0.000287203 0)
(0.00309355 0.000271888 0)
(0.00489957 0.000246802 0)
(0.00644672 0.000216959 0)
(0.00773411 0.000186244 0)
(0.00878206 0.000157103 0)
(0.0096208 0.000130781 0)
(0.0102829 0.000107706 0)
(0.0107989 8.78335e-05 0)
(0.011196 7.08876e-05 0)
(0.0114968 5.65052e-05 0)
(0.01172 4.43171e-05 0)
(0.0118811 3.39851e-05 0)
(0.0119923 2.5216e-05 0)
(0.0120637 1.77627e-05 0)
(0.0121034 1.14197e-05 0)
(0.0121179 6.01689e-06 0)
(0.0121125 1.41286e-06 0)
(7.06615e-34 -1.672e-33 -2.16018e-59)
(2.12537e-33 -1.66941e-33 2.15515e-59)
(3.55237e-33 -1.66483e-33 0)
(4.98574e-33 -1.65822e-33 0)
(6.42352e-33 -1.64954e-33 0)
(7.86366e-33 -1.63875e-33 -2.10876e-59)
(9.30402e-33 -1.62582e-33 0)
(1.07424e-32 -1.6107e-33 0)
(1.21764e-32 -1.59338e-33 0)
(1.36037e-32 -1.57382e-33 0)
(1.50219e-32 -1.55204e-33 1.98823e-59)
(1.64284e-32 -1.52805e-33 0)
(1.78207e-32 -1.5019e-33 0)
(1.91963e-32 -1.47366e-33 0)
(2.05527e-32 -1.44344e-33 0)
(2.18874e-32 -1.41135e-33 1.79829e-59)
(2.31981e-32 -1.37757e-33 0)
(2.44826e-32 -1.34228e-33 0)
(2.57389e-32 -1.3057e-33 0)
(2.69652e-32 -1.26805e-33 0)
(2.81597e-32 -1.22957e-33 0)
(2.93212e-32 -1.19053e-33 0)
(3.04486e-32 -1.15116e-33 0)
(3.15409e-32 -1.11171e-33 1.39962e-59)
(3.25975e-32 -1.07241e-33 -1.34757e-59)
(3.36181e-32 -1.03346e-33 1.29604e-59)
(3.46026e-32 -9.95077e-34 1.24526e-59)
(3.55509e-32 -9.57415e-34 0)
(3.64634e-32 -9.20623e-34 0)
(3.73406e-32 -8.84823e-34 -1.09953e-59)
(3.8183e-32 -8.50114e-34 -1.05367e-59)
(3.89913e-32 -8.16571e-34 0)
(3.97664e-32 -7.84248e-34 0)
(4.05092e-32 -7.5318e-34 -9.25643e-60)
(4.12206e-32 -7.23387e-34 0)
(4.19017e-32 -6.94872e-34 0)
(4.25535e-32 -6.67628e-34 8.12656e-60)
(4.31771e-32 -6.41636e-34 0)
(4.37735e-32 -6.16869e-34 7.4561e-60)
(4.43438e-32 -5.93294e-34 1.42894e-59)
(4.48891e-32 -5.70873e-34 0)
(4.54104e-32 -5.49566e-34 0)
(4.59086e-32 -5.29328e-34 0)
(4.63847e-32 -5.10114e-34 0)
(4.68398e-32 -4.91878e-34 0)
(4.72746e-32 -4.74576e-34 1.11514e-59)
(4.76902e-32 -4.58162e-34 1.07173e-59)
(4.80872e-32 -4.42592e-34 1.03054e-59)
(4.84665e-32 -4.27823e-34 0)
(4.88289e-32 -4.13815e-34 -9.54404e-60)
(4.91751e-32 -4.00527e-34 0)
(4.95058e-32 -3.87922e-34 8.85877e-60)
(4.98217e-32 -3.75965e-34 8.5422e-60)
(5.01234e-32 -3.6462e-34 0)
(5.04115e-32 -3.53855e-34 0)
(5.06867e-32 -3.4364e-34 0)
(5.09494e-32 -3.33946e-34 7.42943e-60)
(5.12002e-32 -3.24744e-34 0)
(5.14396e-32 -3.1601e-34 0)
(5.1668e-32 -3.07718e-34 0)
(5.1886e-32 -2.99846e-34 0)
(5.2094e-32 -2.92373e-34 0)
(5.22924e-32 -2.85277e-34 0)
(5.24817e-32 -2.78539e-34 0)
(5.2662e-32 -2.72143e-34 0)
(5.2834e-32 -2.66069e-34 -5.63035e-60)
(5.29979e-32 -2.60303e-34 0)
(5.3154e-32 -2.54829e-34 0)
(5.33027e-32 -2.49633e-34 5.19442e-60)
(5.34442e-32 -2.44701e-34 5.06356e-60)
(5.3579e-32 -2.4002e-34 0)
(5.37072e-32 -2.35579e-34 -4.82158e-60)
(5.38292e-32 -2.31365e-34 4.70977e-60)
(5.39452e-32 -2.27368e-34 0)
(5.40554e-32 -2.23578e-34 -4.50314e-60)
(5.41602e-32 -2.19984e-34 0)
(5.42597e-32 -2.16578e-34 0)
(5.43542e-32 -2.13351e-34 4.23173e-60)
(5.44439e-32 -2.10293e-34 0)
(5.4529e-32 -2.07397e-34 -4.0737e-60)
(5.46097e-32 -2.04656e-34 0)
(5.46862e-32 -2.02061e-34 3.93204e-60)
(5.47587e-32 -1.99606e-34 3.86689e-60)
(5.48274e-32 -1.97285e-34 3.80526e-60)
(5.48924e-32 -1.9509e-34 7.49401e-60)
(5.49539e-32 -1.93016e-34 -7.38386e-60)
(5.50121e-32 -1.91057e-34 0)
(5.50671e-32 -1.89208e-34 0)
(5.51191e-32 -1.87462e-34 0)
(5.51682e-32 -1.85815e-34 -7.00145e-60)
(5.52146e-32 -1.84262e-34 -6.91896e-60)
(5.52583e-32 -1.82798e-34 6.84123e-60)
(5.52996e-32 -1.81419e-34 0)
(5.53385e-32 -1.80121e-34 -6.69902e-60)
(5.53752e-32 -1.78898e-34 -6.63408e-60)
(5.54097e-32 -1.77749e-34 -6.57302e-60)
(5.54422e-32 -1.76668e-34 0)
(5.54728e-32 -1.75652e-34 0)
(5.55015e-32 -1.74698e-34 0)
(5.55285e-32 -1.73802e-34 -6.36336e-60)
(5.55539e-32 -1.72962e-34 0)
(5.55777e-32 -1.72173e-34 0)
(5.56001e-32 -1.71435e-34 6.23762e-60)
(5.5621e-32 -1.70743e-34 0)
(5.56407e-32 -1.70095e-34 0)
(5.56591e-32 -1.69488e-34 6.1342e-60)
(5.56763e-32 -1.68921e-34 0)
(5.56924e-32 -1.68391e-34 0)
(5.57075e-32 -1.67896e-34 -6.04962e-60)
(5.57216e-32 -1.67434e-34 -6.02506e-60)
(5.57347e-32 -1.67003e-34 0)
(5.5747e-32 -1.66601e-34 5.98077e-60)
(5.57585e-32 -1.66227e-34 0)
(5.57692e-32 -1.65878e-34 -5.94233e-60)
(5.57791e-32 -1.65553e-34 0)
(5.57884e-32 -1.65251e-34 -5.90899e-60)
(5.5797e-32 -1.6497e-34 -5.8941e-60)
(5.58051e-32 -1.64709e-34 0)
(5.58125e-32 -1.64467e-34 0)
(5.58194e-32 -1.64242e-34 0)
(5.58259e-32 -1.64033e-34 0)
(5.58318e-32 -1.6384e-34 0)
(5.58374e-32 -1.63661e-34 0)
(5.58425e-32 -1.63496e-34 0)
(5.58472e-32 -1.63342e-34 -5.80756e-60)
(5.58516e-32 -1.63201e-34 5.80005e-60)
(5.58557e-32 -1.6307e-34 0)
(5.58595e-32 -1.62949e-34 0)
(5.58629e-32 -1.62838e-34 0)
(5.58661e-32 -1.62735e-34 0)
(5.58691e-32 -1.6264e-34 1.15405e-59)
(5.58718e-32 -1.62552e-34 0)
(5.58743e-32 -1.62472e-34 -1.15226e-59)
(5.58766e-32 -1.62398e-34 1.15147e-59)
(5.58787e-32 -1.62329e-34 0)
(5.58806e-32 -1.62267e-34 0)
(5.58824e-32 -1.62209e-34 0)
(5.5884e-32 -1.62155e-34 -1.14889e-59)
(5.58855e-32 -1.62105e-34 -1.14836e-59)
(5.58868e-32 -1.6206e-34 0)
(5.5888e-32 -1.62017e-34 -1.14743e-59)
(5.58891e-32 -1.61977e-34 -1.14701e-59)
(5.58901e-32 -1.6194e-34 1.14661e-59)
(5.5891e-32 -1.61904e-34 0)
(5.58918e-32 -1.61871e-34 0)
(5.58925e-32 -1.61838e-34 1.14553e-59)
(5.58931e-32 -1.61805e-34 0)
(5.58935e-32 -1.61773e-34 0)
(5.58939e-32 -1.6174e-34 0)
(5.58942e-32 -1.61705e-34 0)
(5.58943e-32 -1.61667e-34 -1.14375e-59)
(5.58943e-32 -1.61626e-34 -1.14332e-59)
(5.58942e-32 -1.61579e-34 0)
(5.58939e-32 -1.61525e-34 -1.14229e-59)
(5.58933e-32 -1.61462e-34 0)
(5.58926e-32 -1.61387e-34 0)
(5.58915e-32 -1.61296e-34 -1.13994e-59)
(5.589e-32 -1.61185e-34 0)
(5.58881e-32 -1.61048e-34 -1.1374e-59)
(5.58856e-32 -1.60878e-34 0)
(5.58823e-32 -1.60666e-34 0)
(5.58782e-32 -1.60399e-34 -1.13079e-59)
(5.58728e-32 -1.60063e-34 0)
(5.58659e-32 -1.59637e-34 -1.12302e-59)
(5.58571e-32 -1.59094e-34 0)
(5.58458e-32 -1.58399e-34 0)
(5.58313e-32 -1.57506e-34 0)
(5.58125e-32 -1.5635e-34 1.08954e-59)
(5.57882e-32 -1.54845e-34 0)
(5.57566e-32 -1.52868e-34 -1.05406e-59)
(5.57153e-32 -1.50244e-34 0)
(5.56609e-32 -1.46718e-34 0)
(5.55885e-32 -1.41895e-34 0)
(5.5491e-32 -1.35147e-34 0)
(5.53575e-32 -1.25399e-34 0)
(5.517e-32 -1.10658e-34 0)
(5.48968e-32 -8.67607e-35 0)
(5.44735e-32 -4.33761e-35 -1.31868e-60)
(5.37373e-32 5.26118e-35 0)
(5.21057e-32 3.5359e-34 0)
(7.1075e-34 -4.70156e-33 6.07409e-59)
(2.1378e-33 -4.69376e-33 -6.05896e-59)
(3.57313e-33 -4.68e-33 0)
(5.01487e-33 -4.66014e-33 1.20225e-58)
(6.46104e-33 -4.63407e-33 0)
(7.9096e-33 -4.60166e-33 -5.93817e-59)
(9.35839e-33 -4.5628e-33 -1.17504e-58)
(1.08052e-32 -4.51736e-33 -1.16261e-58)
(1.22476e-32 -4.46525e-33 0)
(1.36832e-32 -4.40639e-33 -1.13256e-58)
(1.51095e-32 -4.34078e-33 5.59249e-59)
(1.65238e-32 -4.26846e-33 0)
(1.79236e-32 -4.18956e-33 0)
(1.93062e-32 -4.1043e-33 0)
(2.0669e-32 -4.01299e-33 0)
(2.20095e-32 -3.91602e-33 5.03535e-59)
(2.33253e-32 -3.81389e-33 0)
(2.4614e-32 -3.70719e-33 9.46662e-59)
(2.58737e-32 -3.59656e-33 0)
(2.71023e-32 -3.48273e-33 0)
(2.82983e-32 -3.36645e-33 -8.56844e-59)
(2.94604e-32 -3.24849e-33 0)
(3.05873e-32 -3.1296e-33 7.94539e-59)
(3.16784e-32 -3.01054e-33 3.85363e-59)
(3.27331e-32 -2.892e-33 -3.69919e-59)
(3.3751e-32 -2.77464e-33 3.5463e-59)
(3.47322e-32 -2.65903e-33 3.39571e-59)
(3.56768e-32 -2.54568e-33 0)
(3.65852e-32 -2.43502e-33 0)
(3.74579e-32 -2.32743e-33 -2.96391e-59)
(3.82956e-32 -2.22317e-33 -8.39411e-59)
(3.90991e-32 -2.12248e-33 0)
(3.98693e-32 -2.02551e-33 0)
(4.06071e-32 -1.93234e-33 -2.44956e-59)
(4.13137e-32 -1.84304e-33 0)
(4.199e-32 -1.7576e-33 0)
(4.26371e-32 -1.676e-33 2.11585e-59)
(4.32561e-32 -1.59817e-33 0)
(4.38481e-32 -1.52402e-33 5.65045e-59)
(4.44143e-32 -1.45346e-33 3.65226e-59)
(4.49555e-32 -1.38637e-33 0)
(4.54729e-32 -1.32262e-33 0)
(4.59675e-32 -1.26207e-33 -6.09062e-59)
(4.64402e-32 -1.20459e-33 -5.78898e-59)
(4.6892e-32 -1.15004e-33 -5.5027e-59)
(4.73237e-32 -1.09828e-33 7.95829e-59)
(4.77363e-32 -1.04918e-33 2.59935e-59)
(4.81306e-32 -1.0026e-33 -2.25075e-59)
(4.85073e-32 -9.58422e-34 4.49683e-59)
(4.88673e-32 -9.16516e-34 -2.25377e-59)
(4.92112e-32 -8.76766e-34 0)
(4.95398e-32 -8.39057e-34 2.05195e-59)
(4.98536e-32 -8.03282e-34 5.64079e-59)
(5.01535e-32 -7.69339e-34 0)
(5.04398e-32 -7.3713e-34 0)
(5.07133e-32 -7.06563e-34 0)
(5.09744e-32 -6.77553e-34 1.63109e-59)
(5.12237e-32 -6.50016e-34 0)
(5.14617e-32 -6.23876e-34 2.73937e-59)
(5.16889e-32 -5.9906e-34 0)
(5.19057e-32 -5.75499e-34 2.48507e-59)
(5.21126e-32 -5.53129e-34 0)
(5.23099e-32 -5.31888e-34 -2.25579e-59)
(5.24981e-32 -5.1172e-34 0)
(5.26775e-32 -4.9257e-34 2.04905e-59)
(5.28485e-32 -4.74387e-34 -3.05492e-59)
(5.30115e-32 -4.57124e-34 0)
(5.31669e-32 -4.40734e-34 -1.77645e-59)
(5.33148e-32 -4.25176e-34 9.73182e-60)
(5.34556e-32 -4.10408e-34 9.34673e-60)
(5.35897e-32 -3.96392e-34 0)
(5.37173e-32 -3.83093e-34 -2.3367e-59)
(5.38387e-32 -3.70475e-34 8.30545e-60)
(5.39541e-32 -3.58506e-34 0)
(5.40638e-32 -3.47156e-34 -7.69734e-60)
(5.41681e-32 -3.36394e-34 -1.22757e-59)
(5.42671e-32 -3.26193e-34 0)
(5.43612e-32 -3.16526e-34 6.89859e-60)
(5.44505e-32 -3.07369e-34 0)
(5.45352e-32 -2.98696e-34 3.85846e-60)
(5.46155e-32 -2.90485e-34 0)
(5.46916e-32 -2.82714e-34 -3.43427e-60)
(5.47638e-32 -2.75362e-34 5.82499e-60)
(5.48321e-32 -2.68408e-34 1.43418e-59)
(5.48968e-32 -2.61835e-34 2.76489e-59)
(5.49581e-32 -2.55623e-34 -2.66709e-59)
(5.5016e-32 -2.49755e-34 0)
(5.50708e-32 -2.44215e-34 0)
(5.51225e-32 -2.38985e-34 0)
(5.51714e-32 -2.34052e-34 4.28482e-60)
(5.52176e-32 -2.294e-34 -9.2524e-60)
(5.52611e-32 -2.25015e-34 9.02367e-60)
(5.53022e-32 -2.20885e-34 0)
(5.53409e-32 -2.16995e-34 -2.05895e-59)
(5.53774e-32 -2.13334e-34 -8.41425e-60)
(5.54118e-32 -2.0989e-34 -8.23458e-60)
(5.54442e-32 -2.06652e-34 0)
(5.54746e-32 -2.03609e-34 0)
(5.55032e-32 -2.00751e-34 0)
(5.55301e-32 -1.98067e-34 -7.61777e-60)
(5.55554e-32 -1.9555e-34 0)
(5.55791e-32 -1.93188e-34 -9.47776e-60)
(5.56013e-32 -1.90975e-34 -1.99693e-60)
(5.56222e-32 -1.88902e-34 9.0264e-60)
(5.56418e-32 -1.86961e-34 0)
(5.56601e-32 -1.85145e-34 1.55744e-59)
(5.56773e-32 -1.83447e-34 0)
(5.56933e-32 -1.81859e-34 8.28476e-60)
(5.57083e-32 -1.80377e-34 -1.48234e-59)
(5.57223e-32 -1.78992e-34 -1.46053e-59)
(5.57354e-32 -1.77701e-34 0)
(5.57477e-32 -1.76496e-34 -1.22766e-60)
(5.57591e-32 -1.75374e-34 7.60178e-60)
(5.57697e-32 -1.74328e-34 -6.3792e-60)
(5.57796e-32 -1.73355e-34 0)
(5.57889e-32 -1.7245e-34 -6.28119e-60)
(5.57975e-32 -1.71609e-34 9.67896e-61)
(5.58054e-32 -1.70827e-34 0)
(5.58129e-32 -1.70101e-34 7.04646e-60)
(5.58198e-32 -1.69428e-34 6.97549e-60)
(5.58262e-32 -1.68803e-34 6.90971e-60)
(5.58321e-32 -1.68225e-34 0)
(5.58376e-32 -1.67689e-34 0)
(5.58427e-32 -1.67192e-34 0)
(5.58475e-32 -1.66733e-34 -1.26745e-59)
(5.58518e-32 -1.66309e-34 5.96075e-60)
(5.58559e-32 -1.65917e-34 0)
(5.58596e-32 -1.65555e-34 -6.56755e-60)
(5.58631e-32 -1.65221e-34 -6.53234e-60)
(5.58662e-32 -1.64913e-34 0)
(5.58692e-32 -1.64629e-34 1.17461e-59)
(5.58719e-32 -1.64367e-34 -1.28848e-59)
(5.58744e-32 -1.64126e-34 -1.16936e-59)
(5.58767e-32 -1.63904e-34 2.44576e-59)
(5.58788e-32 -1.63699e-34 0)
(5.58807e-32 -1.63511e-34 0)
(5.58824e-32 -1.63337e-34 0)
(5.58841e-32 -1.63176e-34 -1.15945e-59)
(5.58855e-32 -1.63028e-34 -2.41817e-59)
(5.58869e-32 -1.62891e-34 -1.25738e-59)
(5.58881e-32 -1.62763e-34 -1.15514e-59)
(5.58892e-32 -1.62644e-34 -2.40609e-59)
(5.58902e-32 -1.62532e-34 1.15273e-59)
(5.5891e-32 -1.62426e-34 0)
(5.58918e-32 -1.62325e-34 0)
(5.58925e-32 -1.62226e-34 2.39297e-59)
(5.58931e-32 -1.6213e-34 0)
(5.58936e-32 -1.62033e-34 0)
(5.5894e-32 -1.61933e-34 -1.23731e-59)
(5.58942e-32 -1.61829e-34 0)
(5.58944e-32 -1.61716e-34 -2.37707e-59)
(5.58944e-32 -1.61593e-34 -1.14298e-59)
(5.58942e-32 -1.61453e-34 0)
(5.58939e-32 -1.61292e-34 -2.36394e-59)
(5.58934e-32 -1.61104e-34 0)
(5.58927e-32 -1.60879e-34 0)
(5.58916e-32 -1.60607e-34 -1.13282e-59)
(5.58902e-32 -1.60276e-34 -1.20318e-59)
(5.58883e-32 -1.59867e-34 -1.12519e-59)
(5.58858e-32 -1.5936e-34 0)
(5.58826e-32 -1.58726e-34 0)
(5.58785e-32 -1.57931e-34 -2.2604e-59)
(5.58732e-32 -1.56927e-34 0)
(5.58665e-32 -1.55655e-34 -2.19036e-59)
(5.58578e-32 -1.54035e-34 0)
(5.58466e-32 -1.51962e-34 0)
(5.58323e-32 -1.49297e-34 0)
(5.58139e-32 -1.4585e-34 9.80961e-60)
(5.579e-32 -1.41362e-34 0)
(5.57589e-32 -1.3547e-34 -8.74153e-60)
(5.57183e-32 -1.27657e-34 0)
(5.5665e-32 -1.17163e-34 0)
(5.55941e-32 -1.02831e-34 -2.64324e-61)
(5.54989e-32 -8.28152e-35 -3.83884e-60)
(5.5369e-32 -5.39923e-35 0)
(5.5188e-32 -1.06376e-35 0)
(5.49278e-32 5.89314e-35 0)
(5.45368e-32 1.82363e-34 6.86134e-59)
(5.39156e-32 4.39838e-34 0)
(5.29355e-32 1.13345e-33 -5.08774e-58)
(7.19036e-34 -7.75768e-33 4.00977e-58)
(2.1627e-33 -7.7446e-33 -5.14759e-62)
(3.61471e-33 -7.72156e-33 0)
(5.0732e-33 -7.68836e-33 1.20188e-61)
(6.53618e-33 -7.64481e-33 0)
(8.00163e-33 -7.5907e-33 0)
(9.46739e-33 -7.5258e-33 -3.87956e-58)
(1.09312e-32 -7.44984e-33 -1.92057e-58)
(1.23906e-32 -7.3626e-33 1.8944e-58)
(1.3843e-32 -7.26391e-33 -1.87114e-58)
(1.52858e-32 -7.15368e-33 0)
(1.67162e-32 -7.03197e-33 0)
(1.81313e-32 -6.89898e-33 -1.7705e-58)
(1.95283e-32 -6.75505e-33 -3.4646e-58)
(2.09043e-32 -6.60072e-33 3.38287e-58)
(2.22567e-32 -6.43667e-33 0)
(2.35827e-32 -6.26378e-33 3.20488e-58)
(2.488e-32 -6.08308e-33 1.56069e-58)
(2.61463e-32 -5.89573e-33 0)
(2.73797e-32 -5.70301e-33 2.90959e-58)
(2.85786e-32 -5.50625e-33 -1.40984e-58)
(2.97415e-32 -5.30682e-33 -2.70142e-58)
(3.08675e-32 -5.10604e-33 1.3053e-58)
(3.19559e-32 -4.90522e-33 0)
(3.30063e-32 -4.70555e-33 2.38595e-58)
(3.40186e-32 -4.50814e-33 2.28246e-58)
(3.4993e-32 -4.31396e-33 0)
(3.59298e-32 -4.12385e-33 2.08108e-58)
(3.68296e-32 -3.93852e-33 0)
(3.76931e-32 -3.75856e-33 1.88973e-58)
(3.85212e-32 -3.58441e-33 -9.08358e-59)
(3.93148e-32 -3.41641e-33 0)
(4.0075e-32 -3.25479e-33 0)
(4.08029e-32 -3.09967e-33 0)
(4.14996e-32 -2.95111e-33 0)
(4.21662e-32 -2.80909e-33 0)
(4.28038e-32 -2.67353e-33 0)
(4.34137e-32 -2.54432e-33 1.25388e-58)
(4.39969e-32 -2.42128e-33 -5.84334e-59)
(4.45546e-32 -2.30424e-33 0)
(4.50878e-32 -2.19298e-33 0)
(4.55975e-32 -2.08729e-33 0)
(4.60848e-32 -1.98693e-33 -1.94563e-58)
(4.65506e-32 -1.89167e-33 -9.34006e-59)
(4.69958e-32 -1.80127e-33 -2.21928e-60)
(4.74214e-32 -1.7155e-33 2.23935e-60)
(4.78282e-32 -1.63414e-33 -7.77077e-59)
(4.82171e-32 -1.55696e-33 -7.59395e-59)
(4.85886e-32 -1.48376e-33 1.41945e-58)
(4.89438e-32 -1.41431e-33 6.61848e-59)
(4.92832e-32 -1.34843e-33 0)
(4.96074e-32 -1.28593e-33 5.94538e-59)
(4.99173e-32 -1.22663e-33 1.15046e-58)
(5.02134e-32 -1.17036e-33 0)
(5.04962e-32 -1.11697e-33 0)
(5.07663e-32 -1.06628e-33 -4.7934e-59)
(5.10243e-32 -1.01818e-33 0)
(5.12707e-32 -9.72508e-34 0)
(5.1506e-32 -9.29152e-34 1.24651e-58)
(5.17306e-32 -8.87987e-34 7.71595e-59)
(5.19449e-32 -8.489e-34 3.89815e-59)
(5.21495e-32 -8.11784e-34 0)
(5.23446e-32 -7.76539e-34 -3.52028e-59)
(5.25308e-32 -7.4307e-34 0)
(5.27083e-32 -7.11288e-34 9.04074e-59)
(5.28775e-32 -6.81109e-34 -3.02188e-59)
(5.30388e-32 -6.52453e-34 -5.24353e-59)
(5.31925e-32 -6.25245e-34 -7.68797e-59)
(5.3339e-32 -5.99416e-34 0)
(5.34784e-32 -5.74897e-34 4.42917e-59)
(5.36111e-32 -5.51625e-34 0)
(5.37375e-32 -5.29541e-34 1.72269e-59)
(5.38576e-32 -5.08588e-34 3.73281e-59)
(5.39719e-32 -4.88711e-34 3.52406e-59)
(5.40806e-32 -4.6986e-34 -3.32606e-59)
(5.41838e-32 -4.51986e-34 1.31331e-59)
(5.42819e-32 -4.35043e-34 0)
(5.43751e-32 -4.18987e-34 0)
(5.44635e-32 -4.03775e-34 -2.63191e-59)
(5.45474e-32 -3.89368e-34 -9.82719e-60)
(5.4627e-32 -3.75728e-34 0)
(5.47024e-32 -3.62818e-34 -1.35913e-59)
(5.47739e-32 -3.50604e-34 0)
(5.48416e-32 -3.39052e-34 -7.17036e-60)
(5.49057e-32 -3.28131e-34 4.19302e-59)
(5.49664e-32 -3.17811e-34 -3.97672e-59)
(5.50238e-32 -3.08062e-34 1.62639e-59)
(5.50781e-32 -2.98856e-34 0)
(5.51294e-32 -2.90168e-34 -1.43837e-59)
(5.51778e-32 -2.81971e-34 3.22559e-59)
(5.52235e-32 -2.74241e-34 0)
(5.52667e-32 -2.66956e-34 0)