/*--------------------------------*- C++ -*----------------------------------*\
  =========                 |
  \\      /  F ield         | OpenFOAM: The Open Source CFD Toolbox
   \\    /   O peration     | Website:  https://openfoam.org
    \\  /    A nd           | Version:  10
     \\/     M anipulation  |
\*---------------------------------------------------------------------------*/
FoamFile
{
    format      ascii;
    class       volScalarField;
    location    "4.9";
    object      Sb;
}
// * * * * * * * * * * * * * * * * * * * * * * * * * * * * * * * * * * * * * //

dimensions      [0 0 0 0 0 0 0];

internalField   nonuniform List<scalar> 
12225
(
0.596581
0.594644
0.592274
0.589724
0.587164
0.584703
0.582405
0.580311
0.578446
0.576828
0.575479
0.574426
0.573718
0.573438
0.573752
0.57503
0.57828
0.586588
0.625729
0.623284
0.620335
0.617199
0.614083
0.611113
0.608363
0.605871
0.603663
0.601754
0.600164
0.59892
0.598069
0.597697
0.597968
0.599213
0.602134
0.607955
0.644374
0.641445
0.637959
0.63429
0.630676
0.627256
0.624107
0.621268
0.618759
0.616596
0.614791
0.61337
0.612377
0.611888
0.612046
0.613099
0.615451
0.619507
0.659485
0.656051
0.65202
0.647822
0.643722
0.639868
0.636339
0.63317
0.630378
0.627969
0.625955
0.624353
0.623198
0.622553
0.622523
0.623266
0.624973
0.627697
0.672926
0.668939
0.664324
0.65957
0.654967
0.65067
0.646756
0.643254
0.640174
0.637516
0.635283
0.633484
0.632142
0.6313
0.631023
0.631391
0.632459
0.634144
0.685531
0.680919
0.675658
0.670301
0.66516
0.660396
0.656078
0.652229
0.648848
0.645928
0.643459
0.641442
0.639885
0.638808
0.638239
0.638199
0.638667
0.639517
0.697773
0.69244
0.686451
0.680426
0.674699
0.669431
0.664682
0.660463
0.656762
0.653559
0.650835
0.648576
0.646775
0.64543
0.644537
0.644078
0.643993
0.644154
0.709975
0.703796
0.696974
0.690198
0.683824
0.678005
0.672789
0.668171
0.664125
0.660616
0.657613
0.655087
0.653014
0.651374
0.650137
0.649262
0.648672
0.648252
0.722393
0.715207
0.707417
0.699789
0.692691
0.686265
0.680539
0.675488
0.671067
0.667227
0.663918
0.661099
0.658731
0.656773
0.655183
0.6539
0.652849
0.651932
0.73526
0.726857
0.717929
0.709323
0.70141
0.694309
0.688023
0.6825
0.677672
0.673471
0.669831
0.666695
0.664009
0.661719
0.659769
0.658095
0.656622
0.65527
0.748817
0.738914
0.728634
0.718896
0.710057
0.702205
0.695302
0.689262
0.683992
0.6794
0.675402
0.671926
0.668904
0.666271
0.663963
0.661914
0.660054
0.658316
0.763334
0.751548
0.73964
0.728578
0.718686
0.709993
0.702408
0.695804
0.690054
0.68504
0.68066
0.676823
0.67345
0.670468
0.667807
0.6654
0.663183
0.661097
0.7768
0.762934
0.749308
0.736902
0.72597
0.716466
0.708238
0.70111
0.694918
0.68952
0.684794
0.680637
0.676958
0.673677
0.670722
0.668025
0.665524
0.663167
0.793537
0.776675
0.760698
0.746519
0.734256
0.723739
0.71472
0.706957
0.700238
0.694388
0.689261
0.684736
0.680712
0.6771
0.673822
0.670809
0.668002
0.665349
0.81484
0.793463
0.774166
0.757602
0.743619
0.731835
0.721853
0.713333
0.705998
0.699627
0.694045
0.689106
0.684693
0.680704
0.677055
0.673675
0.670503
0.667496
0.843163
0.814535
0.790317
0.770445
0.754209
0.740844
0.729711
0.720317
0.712285
0.705323
0.699206
0.693757
0.688836
0.684334
0.680166
0.676266
0.672586
0.66909
0.886149
0.845052
0.8129
0.788088
0.768656
0.753062
0.740245
0.729492
0.720247
0.712067
0.704753
0.69815
0.692137
0.686621
0.681528
0.676801
0.672396
0.668275
0.831706
0.805924
0.783954
0.765527
0.750068
0.736993
0.725802
0.716099
0.707626
0.700232
0.693673
0.687672
0.682154
0.67706
0.672338
0.667946
0.66385
0.660021
0.784592
0.768385
0.753216
0.739641
0.727668
0.717131
0.707825
0.699556
0.692157
0.685488
0.679456
0.674064
0.669177
0.664669
0.660496
0.656616
0.652998
0.649616
0.752916
0.741721
0.730478
0.719891
0.710184
0.701381
0.693419
0.68621
0.679662
0.673691
0.668221
0.66319
0.658575
0.654379
0.650475
0.646833
0.643428
0.640237
0.726947
0.718802
0.710189
0.701748
0.693762
0.686337
0.679486
0.673182
0.667381
0.662034
0.657093
0.652516
0.648263
0.64431
0.640695
0.637315
0.634149
0.631177
0.704763
0.698596
0.691816
0.684956
0.678298
0.671977
0.666046
0.660512
0.655361
0.650569
0.646107
0.641947
0.638062
0.634428
0.631027
0.627892
0.62495
0.622184
0.685157
0.680344
0.674887
0.669222
0.663605
0.658179
0.653013
0.648136
0.643551
0.63925
0.635218
0.631436
0.627888
0.624555
0.621422
0.618484
0.61575
0.613177
0.667287
0.663445
0.658976
0.654235
0.64945
0.644758
0.640236
0.635922
0.631831
0.627965
0.624318
0.620881
0.61764
0.614585
0.611702
0.608982
0.606432
0.604039
0.650494
0.647376
0.643668
0.63966
0.635552
0.631473
0.627498
0.623673
0.620017
0.61654
0.613241
0.610116
0.607158
0.604358
0.601709
0.599201
0.596827
0.594604
0.634175
0.631615
0.628508
0.625097
0.621553
0.617995
0.614496
0.6111
0.607832
0.604706
0.601725
0.598888
0.596192
0.593631
0.591201
0.588894
0.586704
0.584628
0.617643
0.615529
0.612913
0.61
0.606939
0.603835
0.600756
0.597747
0.594833
0.59203
0.589344
0.586777
0.584328
0.581995
0.579772
0.577657
0.575645
0.57373
0.599879
0.598132
0.595934
0.593453
0.590819
0.588123
0.585429
0.582779
0.580197
0.5777
0.575296
0.572989
0.57078
0.568668
0.56665
0.564724
0.562887
0.561134
0.578761
0.577334
0.575507
0.573421
0.571184
0.568875
0.566551
0.564249
0.561994
0.559801
0.557679
0.555634
0.553667
0.55178
0.54997
0.548237
0.546579
0.544993
0.547002
0.545879
0.544418
0.54273
0.540902
0.538998
0.537065
0.535135
0.533231
0.531367
0.529552
0.527792
0.52609
0.524448
0.522865
0.521343
0.519879
0.518472
0.376124
0.37765
0.379037
0.380272
0.381356
0.382294
0.383097
0.383775
0.384338
0.384795
0.385157
0.38543
0.385622
0.385738
0.385784
0.385765
0.385685
0.385548
0.385356
0.385112
0.38482
0.38448
0.384097
0.38367
0.383202
0.382695
0.382149
0.381567
0.380949
0.380296
0.37961
0.378891
0.37814
0.377359
0.376548
0.375707
0.374837
0.37394
0.373015
0.372063
0.371085
0.370081
0.369052
0.367998
0.36692
0.365817
0.364691
0.363541
0.362368
0.361172
0.359954
0.358714
0.357452
0.356168
0.354862
0.353535
0.352187
0.350818
0.349429
0.348019
0.346588
0.345138
0.343667
0.342177
0.340667
0.339138
0.337589
0.336021
0.334435
0.33283
0.331207
0.329565
0.327906
0.326229
0.324535
0.322824
0.321096
0.319352
0.317591
0.315816
0.314024
0.312218
0.310398
0.308564
0.306716
0.304855
0.302981
0.301096
0.299198
0.29729
0.29537
0.293441
0.291501
0.289553
0.287596
0.28563
0.283656
0.281675
0.279686
0.277691
0.275689
0.273681
0.271666
0.269646
0.267621
0.26559
0.263553
0.261512
0.259465
0.257412
0.255355
0.253291
0.251222
0.249147
0.247066
0.244978
0.242882
0.240779
0.238668
0.236547
0.234417
0.232275
0.230122
0.227955
0.225772
0.223573
0.221353
0.219112
0.216845
0.21455
0.21222
0.209847
0.207413
0.204888
0.202235
0.199423
0.19645
0.19339
0.190429
0.187882
0.186166
0.185704
0.186756
0.189276
0.192738
0.196419
0.200166
0.203963
0.207821
0.211756
0.21579
0.219953
0.224283
0.228833
0.233677
0.238926
0.244752
0.251449
0.259453
0.268545
0.277831
0.285424
0.286568
0.264399
0.154252
0.00518037
0.0011
0.0011
0.0011
0.0011
0.0011
0.0011
0.0011
0.0011
0.0011
0.0011
0.0011
0.0011
0.0011
0.0011
0.459024
0.459152
0.459271
0.459379
0.459471
0.459547
0.459603
0.45964
0.459656
0.45965
0.459623
0.459574
0.459504
0.459412
0.459299
0.459164
0.45901
0.458834
0.458639
0.458425
0.458192
0.45794
0.457671
0.457384
0.45708
0.45676
0.456424
0.456073
0.455708
0.455329
0.454936
0.45453
0.454112
0.453683
0.453242
0.45279
0.452329
0.451858
0.451378
0.450889
0.450393
0.449889
0.449378
0.44886
0.448337
0.447808
0.447274
0.446735
0.446192
0.445646
0.445096
0.444543
0.443988
0.443431
0.442873
0.442313
0.441752
0.441192
0.440631
0.440071
0.439511
0.438953
0.438396
0.437842
0.437289
0.43674
0.436193
0.43565
0.435111
0.434576
0.434045
0.433519
0.432997
0.432481
0.431971
0.431466
0.430967
0.430475
0.429988
0.429509
0.429035
0.428569
0.428109
0.427656
0.42721
0.426771
0.426339
0.425914
0.425495
0.425083
0.424678
0.424279
0.423886
0.423499
0.423117
0.422742
0.422371
0.422006
0.421645
0.421289
0.420936
0.420588
0.420243
0.4199
0.419561
0.419224
0.418889
0.418555
0.418223
0.417891
0.41756
0.417229
0.416897
0.416565
0.416231
0.415895
0.415557
0.415216
0.414871
0.414523
0.414169
0.413811
0.413446
0.413073
0.412693
0.412303
0.411902
0.411489
0.411062
0.41062
0.410159
0.409677
0.409171
0.408636
0.408059
0.40742
0.406682
0.405791
0.40468
0.403281
0.401549
0.39948
0.397013
0.393954
0.390226
0.38617
0.381955
0.37766
0.373329
0.368999
0.364724
0.360607
0.356869
0.353958
0.352716
0.354359
0.358898
0.365605
0.373274
0.380879
0.387625
0.392726
0.395134
0.39236
0.373425
0.227589
0.00629471
0.0011
0.0011
0.0011
0.0011
0.0011
0.0011
0.0011
0.0011
0.0011
0.0011
0.0011
0.0011
0.0011
0.482289
0.482406
0.482508
0.482596
0.482667
0.482721
0.482757
0.482775
0.482773
0.482752
0.482711
0.48265
0.482569
0.482468
0.482347
0.482207
0.482047
0.481868
0.481671
0.481455
0.481222
0.480971
0.480703
0.480419
0.48012
0.479805
0.479476
0.479133
0.478776
0.478407
0.478026
0.477634
0.47723
0.476817
0.476394
0.475961
0.475521
0.475072
0.474616
0.474153
0.473683
0.473208
0.472728
0.472242
0.471752
0.471259
0.470761
0.470261
0.469758
0.469252
0.468745
0.468236
0.467726
0.467215
0.466703
0.466191
0.465679
0.465168
0.464657
0.464146
0.463637
0.46313
0.462624
0.462119
0.461617
0.461117
0.460619
0.460123
0.459631
0.459141
0.458654
0.45817
0.457689
0.457211
0.456737
0.456266
0.455798
0.455334
0.454873
0.454416
0.453962
0.453512
0.453065
0.452621
0.452181
0.451744
0.45131
0.450879
0.450451
0.450027
0.449605
0.449185
0.448768
0.448354
0.447942
0.447533
0.447125
0.446719
0.446316
0.445914
0.445514
0.445115
0.444718
0.444322
0.443927
0.443534
0.443141
0.44275
0.442359
0.44197
0.441581
0.441192
0.440805
0.440417
0.440031
0.439644
0.439258
0.438872
0.438486
0.4381
0.437714
0.437327
0.436939
0.436551
0.436161
0.43577
0.435376
0.43498
0.434581
0.434177
0.433768
0.433351
0.432923
0.432478
0.432005
0.431486
0.430894
0.430189
0.429324
0.428243
0.42689
0.425153
0.422972
0.420431
0.417671
0.414836
0.412034
0.409361
0.406936
0.404926
0.403583
0.403291
0.40455
0.407426
0.411268
0.414919
0.4179
0.42004
0.42127
0.421564
0.420863
0.418973
0.415352
0.408443
0.39255
0.330811
0.0628258
0.00110984
0.0011
0.0011
0.0011
0.0011
0.0011
0.0011
0.0011
0.0011
0.0011
0.0011
0.0011
0.0011
0.496668
0.496838
0.496989
0.497121
0.497233
0.497324
0.497394
0.497442
0.497468
0.497472
0.497453
0.49741
0.497346
0.497258
0.497148
0.497016
0.496862
0.496687
0.49649
0.496273
0.496036
0.49578
0.495505
0.495212
0.494902
0.494575
0.494232
0.493874
0.493502
0.493116
0.492716
0.492305
0.491881
0.491447
0.491003
0.490549
0.490086
0.489614
0.489135
0.488649
0.488156
0.487658
0.487153
0.486644
0.486131
0.485613
0.485093
0.484569
0.484042
0.483513
0.482982
0.48245
0.481917
0.481383
0.480849
0.480314
0.479779
0.479245
0.478711
0.478178
0.477647
0.477116
0.476587
0.47606
0.475534
0.47501
0.474489
0.473969
0.473452
0.472937
0.472424
0.471914
0.471406
0.470901
0.470398
0.469898
0.469401
0.468906
0.468413
0.467923
0.467436
0.46695
0.466467
0.465987
0.465508
0.465032
0.464557
0.464084
0.463613
0.463144
0.462677
0.462211
0.461746
0.461282
0.46082
0.460359
0.459899
0.459439
0.458981
0.458523
0.458066
0.457609
0.457153
0.456697
0.456242
0.455787
0.455332
0.454878
0.454423
0.453969
0.453515
0.453061
0.452606
0.452152
0.451698
0.451243
0.450789
0.450334
0.449878
0.449423
0.448966
0.448509
0.448052
0.447593
0.447133
0.446672
0.446209
0.445743
0.445275
0.444803
0.444326
0.443843
0.44335
0.442844
0.442317
0.441759
0.441155
0.440484
0.439718
0.438824
0.437761
0.436506
0.435088
0.433573
0.432052
0.430631
0.429418
0.428523
0.428058
0.428119
0.428742
0.429765
0.43073
0.431385
0.43171
0.431703
0.431368
0.430703
0.42968
0.428241
0.426263
0.423502
0.419445
0.412851
0.399951
0.36304
0.15825
0.00191288
0.0011
0.0011
0.0011
0.0011
0.0011
0.0011
0.0011
0.0011
0.0011
0.0011
0.0011
0.0011
0.507932
0.508169
0.508384
0.508574
0.50874
0.508882
0.508997
0.509086
0.509149
0.509186
0.509195
0.509177
0.509133
0.509062
0.508966
0.508843
0.508695
0.508522
0.508325
0.508104
0.50786
0.507595
0.507308
0.507001
0.506674
0.506329
0.505965
0.505585
0.505188
0.504776
0.504349
0.503909
0.503456
0.502991
0.502514
0.502027
0.50153
0.501025
0.50051
0.499988
0.499459
0.498923
0.498381
0.497834
0.497282
0.496726
0.496166
0.495602
0.495036
0.494467
0.493896
0.493323
0.492748
0.492173
0.491597
0.49102
0.490444
0.489867
0.489291
0.488715
0.48814
0.487566
0.486993
0.486421
0.48585
0.485282
0.484714
0.484149
0.483585
0.483023
0.482463
0.481905
0.481349
0.480796
0.480244
0.479694
0.479146
0.4786
0.478056
0.477513
0.476973
0.476435
0.475898
0.475362
0.474829
0.474296
0.473765
0.473236
0.472707
0.47218
0.471654
0.471128
0.470604
0.47008
0.469557
0.469034
0.468512
0.46799
0.467469
0.466947
0.466426
0.465905
0.465384
0.464863
0.464342
0.46382
0.463299
0.462777
0.462255
0.461732
0.461209
0.460686
0.460162
0.459637
0.459112
0.458585
0.458059
0.457531
0.457002
0.456473
0.455942
0.45541
0.454877
0.454342
0.453805
0.453266
0.452724
0.45218
0.451632
0.45108
0.450523
0.44996
0.449388
0.448804
0.448206
0.447587
0.446942
0.446261
0.445534
0.444749
0.443896
0.442986
0.442045
0.441116
0.440249
0.439496
0.438895
0.438468
0.438205
0.438059
0.437927
0.437706
0.437379
0.436935
0.436358
0.435631
0.434732
0.433629
0.432273
0.430591
0.428455
0.42564
0.421704
0.415661
0.404829
0.378895
0.254151
0.0115013
0.0011
0.0011
0.0011
0.0011
0.0011
0.0011
0.0011
0.0011
0.0011
0.0011
0.0011
0.0011
0.517478
0.517792
0.518079
0.518337
0.518566
0.518764
0.518932
0.519069
0.519173
0.519246
0.519287
0.519297
0.519274
0.519221
0.519137
0.519022
0.518879
0.518706
0.518506
0.518278
0.518025
0.517746
0.517443
0.517117
0.516769
0.5164
0.516011
0.515603
0.515176
0.514733
0.514274
0.513799
0.513311
0.512809
0.512295
0.511769
0.511232
0.510686
0.51013
0.509566
0.508995
0.508416
0.50783
0.507239
0.506642
0.506041
0.505436
0.504826
0.504214
0.503598
0.50298
0.50236
0.501738
0.501115
0.500491
0.499865
0.49924
0.498614
0.497988
0.497362
0.496737
0.496112
0.495488
0.494865
0.494243
0.493622
0.493002
0.492384
0.491767
0.491151
0.490537
0.489924
0.489313
0.488704
0.488096
0.48749
0.486885
0.486281
0.48568
0.485079
0.48448
0.483883
0.483286
0.482691
0.482098
0.481505
0.480913
0.480322
0.479732
0.479143
0.478555
0.477967
0.47738
0.476793
0.476207
0.475621
0.475035
0.47445
0.473864
0.473279
0.472694
0.472108
0.471523
0.470937
0.470351
0.469764
0.469178
0.46859
0.468003
0.467414
0.466826
0.466236
0.465646
0.465055
0.464463
0.46387
0.463276
0.462682
0.462085
0.461488
0.460889
0.460289
0.459687
0.459083
0.458477
0.457869
0.457258
0.456644
0.456027
0.455405
0.454778
0.454145
0.453505
0.452855
0.452195
0.45152
0.450829
0.450119
0.449385
0.448626
0.447842
0.447045
0.446252
0.445484
0.444762
0.4441
0.443502
0.442961
0.442456
0.441957
0.441423
0.440841
0.440197
0.439475
0.438658
0.437725
0.436652
0.435404
0.433934
0.43217
0.429995
0.427207
0.423427
0.417853
0.408471
0.3885
0.313582
0.0451336
0.00110198
0.0011
0.0011
0.0011
0.0011
0.0011
0.0011
0.0011
0.0011
0.0011
0.0011
0.0011
0.52588
0.526282
0.52665
0.526984
0.527284
0.527546
0.527772
0.52796
0.528111
0.528223
0.528298
0.528335
0.528335
0.528298
0.528226
0.528118
0.527976
0.527801
0.527594
0.527356
0.527088
0.526792
0.526468
0.526119
0.525744
0.525346
0.524926
0.524485
0.524024
0.523544
0.523047
0.522533
0.522004
0.52146
0.520903
0.520333
0.519752
0.519161
0.518559
0.517948
0.517329
0.516703
0.516069
0.51543
0.514784
0.514134
0.513479
0.512819
0.512157
0.511491
0.510822
0.510151
0.509478
0.508803
0.508127
0.50745
0.506772
0.506094
0.505415
0.504736
0.504058
0.50338
0.502702
0.502024
0.501348
0.500672
0.499997
0.499324
0.498651
0.497979
0.497309
0.49664
0.495972
0.495305
0.49464
0.493976
0.493313
0.492651
0.491991
0.491332
0.490674
0.490017
0.489361
0.488707
0.488053
0.4874
0.486748
0.486097
0.485446
0.484797
0.484148
0.483499
0.482851
0.482204
0.481557
0.48091
0.480263
0.479617
0.478971
0.478325
0.477678
0.477032
0.476386
0.47574
0.475093
0.474447
0.473799
0.473152
0.472504
0.471856
0.471207
0.470557
0.469907
0.469256
0.468605
0.467952
0.467299
0.466644
0.465989
0.465332
0.464673
0.464014
0.463352
0.462689
0.462024
0.461356
0.460686
0.460013
0.459336
0.458656
0.457971
0.45728
0.456584
0.45588
0.455167
0.454445
0.453712
0.452968
0.452211
0.451442
0.450663
0.449882
0.449109
0.448353
0.447624
0.446923
0.44625
0.445595
0.444945
0.444279
0.443583
0.442847
0.442058
0.441203
0.440264
0.439222
0.438054
0.436727
0.435196
0.433393
0.431211
0.42847
0.42484
0.419656
0.411346
0.395091
0.345263
0.102394
0.00119584
0.0011
0.0011
0.0011
0.0011
0.0011
0.0011
0.0011
0.0011
0.0011
0.0011
0.0011
0.53345
0.53395
0.53441
0.53483
0.535207
0.535541
0.53583
0.536075
0.536275
0.536429
0.536539
0.536604
0.536626
0.536604
0.536541
0.536438
0.536294
0.536113
0.535895
0.535642
0.535355
0.535036
0.534686
0.534308
0.533902
0.53347
0.533013
0.532533
0.532032
0.53151
0.530969
0.530411
0.529835
0.529245
0.52864
0.528022
0.527391
0.52675
0.526098
0.525436
0.524766
0.524087
0.523402
0.52271
0.522012
0.521308
0.5206
0.519888
0.519171
0.518452
0.517729
0.517005
0.516278
0.515549
0.514819
0.514087
0.513355
0.512622
0.511889
0.511156
0.510422
0.509689
0.508956
0.508223
0.507491
0.50676
0.50603
0.5053
0.504572
0.503844
0.503117
0.502392
0.501667
0.500944
0.500222
0.499501
0.498781
0.498063
0.497345
0.496629
0.495914
0.495199
0.494486
0.493774
0.493063
0.492353
0.491643
0.490935
0.490227
0.48952
0.488814
0.488109
0.487404
0.486699
0.485995
0.485292
0.484589
0.483886
0.483184
0.482482
0.48178
0.481078
0.480377
0.479675
0.478974
0.478272
0.477571
0.476869
0.476167
0.475465
0.474762
0.474059
0.473356
0.472652
0.471947
0.471242
0.470536
0.46983
0.469122
0.468413
0.467703
0.466992
0.466279
0.465565
0.464849
0.464131
0.46341
0.462687
0.461961
0.461231
0.460498
0.45976
0.459016
0.458267
0.457512
0.456749
0.455979
0.455202
0.454418
0.453628
0.452833
0.452038
0.45125
0.450472
0.449708
0.448957
0.448217
0.44748
0.446735
0.44597
0.445177
0.444346
0.443467
0.442526
0.441508
0.440395
0.439165
0.437787
0.436218
0.434396
0.432222
0.429533
0.426042
0.421186
0.413697
0.399974
0.363843
0.172923
0.00242162
0.0011
0.0011
0.0011
0.0011
0.0011
0.0011
0.0011
0.0011
0.0011
0.0011
0.0011
0.540378
0.540988
0.541551
0.542066
0.54253
0.542942
0.543302
0.543607
0.543859
0.544058
0.544204
0.544297
0.544339
0.544332
0.544275
0.544172
0.544024
0.543832
0.543598
0.543324
0.543013
0.542666
0.542285
0.541871
0.541428
0.540955
0.540456
0.539932
0.539385
0.538815
0.538225
0.537617
0.53699
0.536348
0.53569
0.535019
0.534334
0.533638
0.532931
0.532214
0.531489
0.530755
0.530013
0.529265
0.528511
0.527752
0.526988
0.526219
0.525447
0.524671
0.523893
0.523112
0.522329
0.521544
0.520758
0.519971
0.519183
0.518395
0.517606
0.516817
0.516028
0.515239
0.51445
0.513662
0.512875
0.512088
0.511303
0.510518
0.509734
0.508951
0.508169
0.507389
0.506609
0.505831
0.505054
0.504278
0.503503
0.50273
0.501958
0.501187
0.500417
0.499649
0.498881
0.498115
0.49735
0.496586
0.495823
0.495061
0.4943
0.49354
0.492781
0.492023
0.491265
0.490509
0.489753
0.488998
0.488243
0.487489
0.486736
0.485983
0.485231
0.484479
0.483727
0.482976
0.482225
0.481475
0.480724
0.479974
0.479224
0.478474
0.477724
0.476973
0.476223
0.475472
0.474722
0.47397
0.473219
0.472466
0.471713
0.470959
0.470205
0.469449
0.468692
0.467934
0.467174
0.466413
0.465649
0.464884
0.464115
0.463344
0.46257
0.461792
0.461009
0.460222
0.45943
0.458633
0.45783
0.457023
0.456211
0.455397
0.454579
0.453763
0.452949
0.452141
0.451339
0.450543
0.449747
0.448948
0.448134
0.447301
0.44644
0.445542
0.444598
0.443596
0.442522
0.441358
0.440084
0.438671
0.437079
0.435247
0.433087
0.430452
0.427086
0.422507
0.415668
0.403769
0.375817
0.241821
0.00941871
0.0011
0.0011
0.0011
0.0011
0.0011
0.0011
0.0011
0.0011
0.0011
0.0011
0.0011
0.546788
0.547522
0.548201
0.548822
0.549382
0.549881
0.550316
0.550688
0.550995
0.55124
0.551423
0.551544
0.551605
0.551608
0.551556
0.551449
0.55129
0.551083
0.550828
0.550528
0.550187
0.549805
0.549386
0.548931
0.548444
0.547925
0.547378
0.546803
0.546204
0.545581
0.544937
0.544272
0.54359
0.54289
0.542174
0.541445
0.540702
0.539947
0.539181
0.538405
0.537621
0.536828
0.536027
0.53522
0.534407
0.533589
0.532766
0.531939
0.531109
0.530275
0.529439
0.528601
0.52776
0.526919
0.526076
0.525232
0.524387
0.523543
0.522698
0.521853
0.521008
0.520164
0.51932
0.518478
0.517636
0.516794
0.515954
0.515115
0.514278
0.513441
0.512606
0.511772
0.51094
0.510109
0.509279
0.508451
0.507624
0.506799
0.505975
0.505153
0.504332
0.503513
0.502695
0.501878
0.501063
0.500249
0.499436
0.498625
0.497815
0.497006
0.496199
0.495392
0.494587
0.493783
0.49298
0.492178
0.491376
0.490576
0.489777
0.488978
0.488181
0.487384
0.486588
0.485792
0.484997
0.484203
0.483409
0.482616
0.481823
0.481031
0.480238
0.479446
0.478655
0.477863
0.477071
0.476279
0.475488
0.474695
0.473903
0.47311
0.472316
0.471522
0.470727
0.469931
0.469134
0.468335
0.467535
0.466732
0.465928
0.465121
0.464312
0.4635
0.462684
0.461864
0.461041
0.460213
0.459382
0.458548
0.45771
0.456871
0.456029
0.455188
0.454348
0.453509
0.452673
0.451836
0.450995
0.450146
0.449281
0.448396
0.447483
0.446535
0.445542
0.444493
0.443376
0.442174
0.440868
0.439429
0.437821
0.435987
0.433845
0.431261
0.428008
0.423665
0.417349
0.406819
0.384123
0.292757
0.0297358
0.00110029
0.0011
0.0011
0.0011
0.0011
0.0011
0.0011
0.0011
0.0011
0.0011
0.0011
0.552763
0.553637
0.554446
0.555185
0.555852
0.556446
0.556964
0.557407
0.557774
0.558067
0.558286
0.558434
0.558512
0.558524
0.558471
0.558356
0.558182
0.557953
0.557671
0.557339
0.55696
0.556538
0.556074
0.555572
0.555034
0.554462
0.55386
0.553229
0.552571
0.551889
0.551185
0.550459
0.549715
0.548953
0.548175
0.547383
0.546578
0.54576
0.544931
0.544093
0.543246
0.542391
0.541528
0.54066
0.539786
0.538907
0.538023
0.537136
0.536246
0.535353
0.534458
0.533561
0.532662
0.531763
0.530863
0.529962
0.529061
0.52816
0.52726
0.526359
0.52546
0.524561
0.523664
0.522767
0.521872
0.520978
0.520085
0.519194
0.518304
0.517416
0.51653
0.515645
0.514763
0.513882
0.513002
0.512125
0.511249
0.510375
0.509503
0.508633
0.507764
0.506898
0.506033
0.50517
0.504308
0.503448
0.50259
0.501734
0.500879
0.500026
0.499174
0.498324
0.497475
0.496628
0.495782
0.494938
0.494095
0.493253
0.492412
0.491573
0.490735
0.489897
0.489061
0.488226
0.487392
0.486559
0.485727
0.484895
0.484065
0.483235
0.482405
0.481577
0.480748
0.47992
0.479093
0.478265
0.477438
0.476611
0.475784
0.474957
0.474129
0.473301
0.472473
0.471644
0.470814
0.469983
0.469151
0.468317
0.467482
0.466644
0.465805
0.464963
0.464118
0.463271
0.46242
0.461567
0.46071
0.459851
0.458989
0.458126
0.457261
0.456396
0.455529
0.454663
0.453794
0.452923
0.452044
0.451155
0.45025
0.449323
0.448369
0.44738
0.446348
0.445263
0.444112
0.44288
0.441549
0.440092
0.438473
0.436641
0.434519
0.431983
0.428831
0.42469
0.418804
0.409331
0.39025
0.325237
0.0655019
0.00111108
0.0011
0.0011
0.0011
0.0011
0.0011
0.0011
0.0011
0.0011
0.0011
0.0011
0.558363
0.559393
0.560347
0.561219
0.562005
0.562704
0.563313
0.563832
0.564262
0.564605
0.564862
0.565035
0.565128
0.565144
0.565085
0.564957
0.564762
0.564505
0.564189
0.563818
0.563395
0.562924
0.562408
0.56185
0.561255
0.560624
0.55996
0.559265
0.558544
0.557796
0.557026
0.556234
0.555423
0.554595
0.55375
0.552891
0.552019
0.551135
0.55024
0.549336
0.548424
0.547504
0.546577
0.545645
0.544708
0.543766
0.542821
0.541873
0.540922
0.539969
0.539014
0.538058
0.537102
0.536145
0.535188
0.53423
0.533274
0.532318
0.531362
0.530408
0.529455
0.528504
0.527553
0.526605
0.525658
0.524713
0.52377
0.522829
0.52189
0.520953
0.520018
0.519086
0.518156
0.517227
0.516301
0.515378
0.514456
0.513537
0.51262
0.511706
0.510793
0.509883
0.508975
0.508069
0.507165
0.506264
0.505364
0.504467
0.503571
0.502678
0.501786
0.500896
0.500008
0.499122
0.498238
0.497356
0.496475
0.495596
0.494718
0.493842
0.492968
0.492095
0.491223
0.490353
0.489484
0.488617
0.48775
0.486885
0.486021
0.485157
0.484295
0.483434
0.482573
0.481713
0.480854
0.479996
0.479137
0.47828
0.477422
0.476565
0.475708
0.47485
0.473993
0.473135
0.472276
0.471417
0.470557
0.469696
0.468833
0.467969
0.467103
0.466236
0.465366
0.464494
0.463619
0.462742
0.461863
0.460982
0.460098
0.459213
0.458326
0.457438
0.456547
0.455655
0.454758
0.453857
0.452946
0.452024
0.451085
0.450124
0.449136
0.448114
0.447051
0.445935
0.444757
0.443502
0.442151
0.44068
0.439054
0.437226
0.435123
0.432633
0.429571
0.425605
0.420077
0.411443
0.394984
0.346191
0.112654
0.0012543
0.0011
0.0011
0.0011
0.0011
0.0011
0.0011
0.0011
0.0011
0.0011
0.0011
0.563625
0.564833
0.56595
0.566971
0.567889
0.568704
0.569412
0.570015
0.570512
0.570906
0.5712
0.571397
0.571501
0.571516
0.571447
0.571299
0.571076
0.570783
0.570425
0.570006
0.569531
0.569003
0.568428
0.567807
0.567147
0.566448
0.565716
0.564952
0.564159
0.563341
0.562499
0.561636
0.560753
0.559853
0.558937
0.558007
0.557065
0.556111
0.555148
0.554176
0.553196
0.55221
0.551217
0.55022
0.549219
0.548214
0.547206
0.546196
0.545184
0.544171
0.543157
0.542143
0.541129
0.540115
0.539102
0.53809
0.537078
0.536069
0.53506
0.534054
0.533049
0.532047
0.531046
0.530048
0.529052
0.528059
0.527068
0.52608
0.525094
0.524111
0.523131
0.522154
0.521179
0.520207
0.519238
0.518271
0.517308
0.516347
0.515389
0.514433
0.51348
0.51253
0.511583
0.510638
0.509696
0.508756
0.507819
0.506884
0.505952
0.505022
0.504094
0.503169
0.502246
0.501325
0.500406
0.49949
0.498575
0.497663
0.496752
0.495844
0.494937
0.494032
0.493129
0.492228
0.491328
0.490429
0.489533
0.488637
0.487743
0.486851
0.48596
0.485069
0.48418
0.483292
0.482405
0.481519
0.480633
0.479748
0.478864
0.47798
0.477097
0.476213
0.47533
0.474447
0.473563
0.472679
0.471794
0.470909
0.470023
0.469135
0.468247
0.467356
0.466464
0.465571
0.464675
0.463777
0.462877
0.461976
0.461073
0.460168
0.45926
0.45835
0.457437
0.456521
0.4556
0.454672
0.453734
0.452783
0.451816
0.450826
0.44981
0.448761
0.44767
0.44653
0.44533
0.444055
0.442689
0.441207
0.439577
0.437754
0.43567
0.433222
0.43024
0.426426
0.421199
0.413244
0.398761
0.360403
0.165514
0.00219714
0.0011
0.0011
0.0011
0.0011
0.0011
0.0011
0.0011
0.0011
0.0011
0.0011
0.568576
0.569985
0.571287
0.572475
0.573542
0.574485
0.575303
0.575995
0.576564
0.577011
0.577341
0.577559
0.57767
0.577679
0.577592
0.577416
0.577157
0.576819
0.57641
0.575934
0.575397
0.574804
0.57416
0.573469
0.572734
0.571961
0.571153
0.570312
0.569443
0.568547
0.567628
0.566688
0.565729
0.564754
0.563763
0.562759
0.561744
0.560718
0.559684
0.558642
0.557593
0.556538
0.555479
0.554416
0.553351
0.552282
0.551212
0.550141
0.549069
0.547997
0.546925
0.545853
0.544783
0.543714
0.542646
0.54158
0.540517
0.539455
0.538396
0.537339
0.536286
0.535235
0.534187
0.533141
0.532099
0.531061
0.530025
0.528993
0.527964
0.526938
0.525915
0.524896
0.523881
0.522868
0.521859
0.520854
0.519851
0.518852
0.517856
0.516863
0.515874
0.514888
0.513904
0.512924
0.511947
0.510973
0.510002
0.509033
0.508068
0.507105
0.506145
0.505188
0.504234
0.503282
0.502332
0.501385
0.500441
0.499499
0.498559
0.497621
0.496686
0.495752
0.494821
0.493892
0.492964
0.492039
0.491115
0.490193
0.489273
0.488354
0.487437
0.486522
0.485607
0.484694
0.483782
0.482872
0.481962
0.481053
0.480145
0.479238
0.478331
0.477424
0.476518
0.475612
0.474707
0.473801
0.472894
0.471988
0.47108
0.470172
0.469263
0.468352
0.467441
0.466527
0.465613
0.464697
0.46378
0.46286
0.461938
0.461014
0.460087
0.459158
0.458225
0.457287
0.456344
0.455393
0.454431
0.453455
0.452463
0.451449
0.450409
0.449336
0.448223
0.447062
0.445843
0.444552
0.443172
0.441682
0.44005
0.438233
0.436168
0.433758
0.430847
0.427165
0.422195
0.414797
0.401841
0.370479
0.217457
0.0059331
0.0011
0.0011
0.0011
0.0011
0.0011
0.0011
0.0011
0.0011
0.0011
0.0011
0.573232
0.574869
0.576381
0.577758
0.578993
0.580081
0.581019
0.581809
0.582453
0.582955
0.58332
0.583554
0.583666
0.583661
0.583548
0.583334
0.583027
0.582635
0.582164
0.58162
0.581011
0.580343
0.57962
0.578848
0.578032
0.577175
0.576283
0.575359
0.574407
0.573428
0.572427
0.571406
0.570367
0.569312
0.568243
0.567163
0.566073
0.564973
0.563866
0.562753
0.561635
0.560512
0.559386
0.558258
0.557128
0.555997
0.554866
0.553734
0.552604
0.551474
0.550345
0.549219
0.548094
0.546972
0.545852
0.544736
0.543622
0.542511
0.541404
0.5403
0.5392
0.538104
0.537011
0.535922
0.534837
0.533756
0.532679
0.531605
0.530536
0.529471
0.52841
0.527352
0.526299
0.52525
0.524204
0.523163
0.522125
0.521091
0.520061
0.519035
0.518012
0.516993
0.515977
0.514965
0.513957
0.512952
0.51195
0.510952
0.509957
0.508965
0.507976
0.50699
0.506007
0.505028
0.504051
0.503077
0.502105
0.501137
0.500171
0.499207
0.498246
0.497288
0.496331
0.495377
0.494426
0.493476
0.492529
0.491583
0.490639
0.489698
0.488758
0.487819
0.486883
0.485947
0.485014
0.484081
0.48315
0.48222
0.481291
0.480362
0.479435
0.478508
0.477582
0.476656
0.47573
0.474805
0.473879
0.472954
0.472027
0.471101
0.470173
0.469245
0.468317
0.467387
0.466456
0.465523
0.464588
0.463651
0.462712
0.46177
0.460826
0.459878
0.458927
0.45797
0.457007
0.456035
0.455052
0.454055
0.453041
0.452005
0.450944
0.449851
0.448719
0.44754
0.446304
0.445
0.44361
0.442112
0.440479
0.438668
0.436621
0.434246
0.431399
0.427833
0.423082
0.416147
0.404394
0.377906
0.26135
0.015648
0.00110002
0.0011
0.0011
0.0011
0.0011
0.0011
0.0011
0.0011
0.0011
0.0011
0.577599
0.579497
0.581251
0.582845
0.58427
0.58552
0.586593
0.587489
0.588213
0.588769
0.589166
0.589411
0.589514
0.589485
0.589334
0.58907
0.588703
0.588242
0.587696
0.587073
0.586379
0.585623
0.584811
0.583949
0.583041
0.582094
0.581111
0.580097
0.579055
0.577988
0.576901
0.575794
0.574672
0.573535
0.572387
0.571229
0.570062
0.568888
0.567708
0.566524
0.565337
0.564147
0.562955
0.561763
0.56057
0.559378
0.558187
0.556998
0.55581
0.554625
0.553443
0.552264
0.551088
0.549915
0.548746
0.547582
0.546421
0.545264
0.544112
0.542964
0.541821
0.540683
0.539548
0.538419
0.537294
0.536174
0.535059
0.533948
0.532842
0.531741
0.530644
0.529552
0.528465
0.527382
0.526303
0.525229
0.52416
0.523094
0.522033
0.520977
0.519924
0.518876
0.517831
0.516791
0.515754
0.514721
0.513692
0.512667
0.511645
0.510627