/*--------------------------------*- C++ -*----------------------------------*\
  =========                 |
  \\      /  F ield         | OpenFOAM: The Open Source CFD Toolbox
   \\    /   O peration     | Website:  https://openfoam.org
    \\  /    A nd           | Version:  10
     \\/     M anipulation  |
\*---------------------------------------------------------------------------*/
FoamFile
{
    format      ascii;
    class       volVectorField;
    location    "4.9";
    object      Ua;
}
// * * * * * * * * * * * * * * * * * * * * * * * * * * * * * * * * * * * * * //

dimensions      [0 1 -1 0 0 0 0];

internalField   nonuniform List<vector> 
12225
(
(1.56852e-05 -1.98046e-06 0)
(4.58609e-05 -1.86006e-06 0)
(7.33461e-05 -1.65826e-06 0)
(9.78639e-05 -1.44009e-06 0)
(0.000119638 -1.24633e-06 0)
(0.000139126 -1.09601e-06 0)
(0.000156842 -9.95209e-07 0)
(0.000173275 -9.44607e-07 0)
(0.000188865 -9.44544e-07 0)
(0.000204017 -9.98384e-07 0)
(0.000219133 -1.11561e-06 0)
(0.000234663 -1.31646e-06 0)
(0.000251189 -1.6414e-06 0)
(0.000269586 -2.17383e-06 0)
(0.000291391 -3.10369e-06 0)
(0.000319867 -4.94652e-06 0)
(0.000364009 -9.54559e-06 0)
(0.000460141 -2.64483e-05 0)
(1.16559e-05 -5.21111e-06 0)
(3.42216e-05 -4.90487e-06 0)
(5.50844e-05 -4.37662e-06 0)
(7.40248e-05 -3.79911e-06 0)
(9.11436e-05 -3.28287e-06 0)
(0.000106707 -2.88108e-06 0)
(0.000121036 -2.61202e-06 0)
(0.000134448 -2.47912e-06 0)
(0.000147239 -2.48456e-06 0)
(0.00015969 -2.63855e-06 0)
(0.000172083 -2.96782e-06 0)
(0.000184739 -3.52834e-06 0)
(0.000198066 -4.4306e-06 0)
(0.000212663 -5.89912e-06 0)
(0.00022952 -8.43307e-06 0)
(0.000250454 -1.33202e-05 0)
(0.000278704 -2.46677e-05 0)
(0.000313205 -5.9458e-05 0)
(9.56602e-06 -7.44504e-06 0)
(2.81871e-05 -7.04098e-06 0)
(4.56214e-05 -6.30812e-06 0)
(6.16791e-05 -5.49298e-06 0)
(7.63993e-05 -4.75775e-06 0)
(8.99503e-05 -4.18356e-06 0)
(0.000102551 -3.80085e-06 0)
(0.000114429 -3.61777e-06 0)
(0.000125802 -3.64e-06 0)
(0.00013688 -3.88449e-06 0)
(0.000147877 -4.3921e-06 0)
(0.000159035 -5.2459e-06 0)
(0.000170648 -6.60652e-06 0)
(0.000183122 -8.79146e-06 0)
(0.000197027 -1.24737e-05 0)
(0.000213086 -1.92361e-05 0)
(0.000231206 -3.32483e-05 0)
(0.000243223 -6.60184e-05 0)
(8.13261e-06 -9.07437e-06 0)
(2.4045e-05 -8.62684e-06 0)
(3.91158e-05 -7.76228e-06 0)
(5.31753e-05 -6.78218e-06 0)
(6.62243e-05 -5.89006e-06 0)
(7.83675e-05 -5.19123e-06 0)
(8.97569e-05 -4.72805e-06 0)
(0.000100557 -4.51434e-06 0)
(0.00011093 -4.55994e-06 0)
(0.000121037 -4.88793e-06 0)
(0.000131039 -5.5503e-06 0)
(0.000141113 -6.64954e-06 0)
(0.000151461 -8.37831e-06 0)
(0.000162319 -1.11025e-05 0)
(0.000173917 -1.55472e-05 0)
(0.00018621 -2.32261e-05 0)
(0.000197646 -3.73461e-05 0)
(0.000200803 -6.36833e-05 0)
(7.04025e-06 -1.02425e-05 0)
(2.0885e-05 -9.79286e-06 0)
(3.41425e-05 -8.85048e-06 0)
(4.66574e-05 -7.75934e-06 0)
(5.84052e-05 -6.75699e-06 0)
(6.94464e-05 -5.96989e-06 0)
(7.98835e-05 -5.45175e-06 0)
(8.98339e-05 -5.22235e-06 0)
(9.94175e-05 -5.29579e-06 0)
(0.000108753 -5.70023e-06 0)
(0.000117958 -6.49534e-06 0)
(0.000127154 -7.79498e-06 0)
(0.000136461 -9.80564e-06 0)
(0.000145973 -1.28995e-05 0)
(0.000155664 -1.77551e-05 0)
(0.000165057 -2.56039e-05 0)
(0.000172279 -3.84896e-05 0)
(0.000172175 -5.8533e-05 0)
(6.15985e-06 -1.10209e-05 0)
(1.83349e-05 -1.06032e-05 0)
(3.01192e-05 -9.62607e-06 0)
(4.13681e-05 -8.46745e-06 0)
(5.20407e-05 -7.39331e-06 0)
(6.2165e-05 -6.54845e-06 0)
(7.18061e-05 -5.99696e-06 0)
(8.10441e-05 -5.76445e-06 0)
(8.99633e-05 -5.86883e-06 0)
(9.86469e-05 -6.34186e-06 0)
(0.000107175 -7.24715e-06 0)
(0.00011562 -8.70163e-06 0)
(0.000124031 -1.09085e-05 0)
(0.000132395 -1.42113e-05 0)
(0.00014052 -1.91775e-05 0)
(0.000147762 -2.66838e-05 0)
(0.000152472 -3.78126e-05 0)
(0.000151487 -5.28416e-05 0)
(5.42569e-06 -1.14509e-05 0)
(1.62055e-05 -1.10942e-05 0)
(2.675e-05 -1.0118e-05 0)
(3.69234e-05 -8.92848e-06 0)
(4.6674e-05 -7.8157e-06 0)
(5.60067e-05 -6.94e-06 0)
(6.49572e-05 -6.37454e-06 0)
(7.3575e-05 -6.15003e-06 0)
(8.19143e-05 -6.28745e-06 0)
(9.0028e-05 -6.82035e-06 0)
(9.79623e-05 -7.81235e-06 0)
(0.000105748 -9.37572e-06 0)
(0.000113379 -1.16958e-05 0)
(0.000120767 -1.50636e-05 0)
(0.00012764 -1.99072e-05 0)
(0.000133359 -2.67726e-05 0)
(0.000136675 -3.60927e-05 0)
(0.000135793 -4.74128e-05 0)
(4.79963e-06 -1.15594e-05 0)
(1.43866e-05 -1.12886e-05 0)
(2.38633e-05 -1.03427e-05 0)
(3.31006e-05 -9.15362e-06 0)
(4.20413e-05 -8.03157e-06 0)
(5.06737e-05 -7.14956e-06 0)
(5.90104e-05 -6.58802e-06 0)
(6.70756e-05 -6.38173e-06 0)
(7.48976e-05 -6.55361e-06 0)
(8.25026e-05 -7.13704e-06 0)
(8.99081e-05 -8.19199e-06 0)
(9.71109e-05 -9.81948e-06 0)
(0.000104065 -1.21767e-05 0)
(0.000110639 -1.54901e-05 0)
(0.000116546 -2.00499e-05 0)
(0.00012124 -2.61427e-05 0)
(0.00012386 -3.38281e-05 0)
(0.000123453 -4.24767e-05 0)
(4.25743e-06 -1.1366e-05 0)
(1.28082e-05 -1.12018e-05 0)
(2.13493e-05 -1.031e-05 0)
(2.97576e-05 -9.14798e-06 0)
(3.79749e-05 -8.04307e-06 0)
(4.59778e-05 -7.17757e-06 0)
(5.37608e-05 -6.63694e-06 0)
(6.13267e-05 -6.45855e-06 0)
(6.86814e-05 -6.66598e-06 0)
(7.58283e-05 -7.29055e-06 0)
(8.27608e-05 -8.3854e-06 0)
(8.94501e-05 -1.00356e-05 0)
(9.58249e-05 -1.23649e-05 0)
(0.000101739 -1.55337e-05 0)
(0.000106928 -1.97148e-05 0)
(0.000110969 -2.50167e-05 0)
(0.000113312 -3.13203e-05 0)
(0.000113479 -3.80506e-05 0)
(3.7825e-06 -1.08872e-05 0)
(1.14221e-05 -1.08451e-05 0)
(1.91323e-05 -1.00254e-05 0)
(2.67969e-05 -8.91313e-06 0)
(3.43603e-05 -7.8494e-06 0)
(4.17918e-05 -7.02204e-06 0)
(4.90711e-05 -6.51874e-06 0)
(5.61826e-05 -6.37777e-06 0)
(6.31131e-05 -6.62193e-06 0)
(6.98466e-05 -7.27883e-06 0)
(7.63577e-05 -8.39257e-06 0)
(8.25997e-05 -1.00297e-05 0)
(8.84888e-05 -1.22795e-05 0)
(9.38828e-05 -1.52435e-05 0)
(9.85599e-05 -1.9005e-05 0)
(0.000102216 -2.35651e-05 0)
(0.000104518 -2.87423e-05 0)
(0.000105247 -3.40822e-05 0)
(3.36262e-06 -1.01394e-05 0)
(1.01923e-05 -1.02281e-05 0)
(1.71555e-05 -9.49227e-06 0)
(2.41459e-05 -8.44862e-06 0)
(3.11138e-05 -7.44837e-06 0)
(3.8024e-05 -6.68001e-06 0)
(4.48436e-05 -6.23027e-06 0)
(5.15414e-05 -6.13632e-06 0)
(5.80875e-05 -6.4189e-06 0)
(6.44502e-05 -7.10071e-06 0)
(7.05895e-05 -8.21559e-06 0)
(7.64481e-05 -9.81121e-06 0)
(8.19396e-05 -1.19451e-05 0)
(8.69369e-05 -1.46711e-05 0)
(9.12659e-05 -1.80113e-05 0)
(9.47195e-05 -2.19114e-05 0)
(9.71063e-05 -2.61878e-05 0)
(9.83411e-05 -3.05047e-05 0)
(2.95981e-06 -9.22046e-06 0)
(9.01947e-06 -9.43379e-06 0)
(1.52875e-05 -8.78399e-06 0)
(2.16643e-05 -7.82024e-06 0)
(2.81005e-05 -6.89835e-06 0)
(3.45519e-05 -6.20296e-06 0)
(4.09713e-05 -5.81709e-06 0)
(4.73129e-05 -5.77549e-06 0)
(5.35328e-05 -6.09619e-06 0)
(5.95873e-05 -6.79691e-06 0)
(6.54274e-05 -7.90196e-06 0)
(7.09912e-05 -9.44275e-06 0)
(7.61966e-05 -1.14519e-05 0)
(8.09352e-05 -1.39499e-05 0)
(8.5074e-05 -1.69229e-05 0)
(8.84724e-05 -2.02942e-05 0)
(9.10197e-05 -2.3901e-05 0)
(9.26884e-05 -2.74974e-05 0)
(2.68214e-06 -8.1063e-06 0)
(8.19505e-06 -8.43378e-06 0)
(1.39429e-05 -7.87058e-06 0)
(1.98441e-05 -6.99941e-06 0)
(2.58598e-05 -6.17369e-06 0)
(3.19435e-05 -5.56845e-06 0)
(3.80396e-05 -5.25987e-06 0)
(4.40911e-05 -5.27887e-06 0)
(5.00437e-05 -5.64028e-06 0)
(5.58445e-05 -6.35683e-06 0)
(6.14382e-05 -7.44418e-06 0)
(6.6761e-05 -8.92007e-06 0)
(7.17368e-05 -1.07981e-05 0)
(7.62749e-05 -1.30766e-05 0)
(8.02762e-05 -1.57226e-05 0)
(8.36483e-05 -1.86559e-05 0)
(8.6332e-05 -2.17406e-05 0)
(8.83309e-05 -2.47971e-05 0)
(2.39754e-06 -6.66194e-06 0)
(7.33623e-06 -7.07994e-06 0)
(1.25244e-05 -6.60275e-06 0)
(1.79182e-05 -5.84645e-06 0)
(2.34916e-05 -5.14867e-06 0)
(2.91932e-05 -4.66474e-06 0)
(3.49552e-05 -4.45887e-06 0)
(4.07082e-05 -4.55596e-06 0)
(4.63869e-05 -4.96679e-06 0)
(5.19302e-05 -5.69871e-06 0)
(5.72783e-05 -6.75896e-06 0)
(6.23687e-05 -8.15299e-06 0)
(6.71342e-05 -9.87923e-06 0)
(7.15046e-05 -1.19208e-05 0)
(7.54122e-05 -1.42364e-05 0)
(7.88039e-05 -1.67527e-05 0)
(8.16562e-05 -1.93645e-05 0)
(8.39883e-05 -2.19465e-05 0)
(2.09385e-06 -4.85761e-06 0)
(6.40551e-06 -5.28119e-06 0)
(1.09803e-05 -4.87829e-06 0)
(1.58398e-05 -4.26751e-06 0)
(2.09648e-05 -3.7408e-06 0)
(2.62872e-05 -3.41818e-06 0)
(3.17203e-05 -3.34596e-06 0)
(3.7179e-05 -3.54149e-06 0)
(4.2587e-05 -4.01147e-06 0)
(4.78773e-05 -4.75882e-06 0)
(5.29889e-05 -5.7842e-06 0)
(5.78649e-05 -7.08461e-06 0)
(6.24524e-05 -8.64945e-06 0)
(6.67031e-05 -1.04555e-05 0)
(7.0578e-05 -1.24623e-05 0)
(7.40531e-05 -1.46099e-05 0)
(7.71259e-05 -1.68215e-05 0)
(7.98191e-05 -1.90123e-05 0)
(1.7048e-06 -2.68215e-06 0)
(5.23591e-06 -2.92062e-06 0)
(9.11231e-06 -2.58886e-06 0)
(1.34326e-05 -2.17914e-06 0)
(1.81405e-05 -1.88272e-06 0)
(2.31205e-05 -1.76715e-06 0)
(2.82527e-05 -1.85899e-06 0)
(3.34338e-05 -2.1701e-06 0)
(3.85811e-05 -2.70705e-06 0)
(4.36309e-05 -3.47372e-06 0)
(4.85338e-05 -4.46899e-06 0)
(5.325e-05 -5.6871e-06 0)
(5.77465e-05 -7.11468e-06 0)
(6.19962e-05 -8.72806e-06 0)
(6.59792e-05 -1.04916e-05 0)
(6.96839e-05 -1.23577e-05 0)
(7.31102e-05 -1.42704e-05 0)
(7.62698e-05 -1.61706e-05 0)
(9.44661e-07 1.71281e-08 0)
(3.12612e-06 1.83545e-07 0)
(6.05532e-06 3.43436e-07 0)
(9.78649e-06 4.38474e-07 0)
(1.40901e-05 4.30717e-07 0)
(1.87579e-05 2.90729e-07 0)
(2.36394e-05 -1.56653e-09 0)
(2.86254e-05 -4.58059e-07 0)
(3.36492e-05 -1.10589e-06 0)
(3.86938e-05 -1.98042e-06 0)
(4.37309e-05 -3.03019e-06 0)
(4.8703e-05 -4.24989e-06 0)
(5.35606e-05 -5.62498e-06 0)
(5.82609e-05 -7.13265e-06 0)
(6.27689e-05 -8.74183e-06 0)
(6.70586e-05 -1.04147e-05 0)
(7.11149e-05 -1.21095e-05 0)
(7.49328e-05 -1.37846e-05 0)
(1.95939e-06 3.15839e-06 0)
(5.88253e-06 3.88461e-06 0)
(9.91847e-06 3.96527e-06 0)
(1.42191e-05 3.75781e-06 0)
(1.88269e-05 3.40253e-06 0)
(2.37043e-05 2.93505e-06 0)
(2.87801e-05 2.35836e-06 0)
(3.39792e-05 1.66866e-06 0)
(3.92196e-05 8.42123e-07 0)
(4.43989e-05 -1.52281e-07 0)
(4.94508e-05 -1.27642e-06 0)
(5.43936e-05 -2.59634e-06 0)
(5.92329e-05 -4.00135e-06 0)
(6.39279e-05 -5.47297e-06 0)
(6.84473e-05 -6.98712e-06 0)
(7.27694e-05 -8.51655e-06 0)
(7.68817e-05 -1.00331e-05 0)
(8.07799e-05 -1.15099e-05 0)
(2.56244e-06 6.7744e-06 0)
(7.75654e-06 7.82725e-06 0)
(1.30505e-05 7.96716e-06 0)
(1.84115e-05 7.59007e-06 0)
(2.38511e-05 6.93898e-06 0)
(2.93688e-05 6.13546e-06 0)
(3.49429e-05 5.23386e-06 0)
(4.05371e-05 4.25684e-06 0)
(4.61093e-05 3.21316e-06 0)
(5.16176e-05 2.10904e-06 0)
(5.70158e-05 9.34827e-07 0)
(6.22243e-05 -3.74032e-07 0)
(6.71957e-05 -1.73394e-06 0)
(7.19531e-05 -3.15875e-06 0)
(7.65082e-05 -4.57463e-06 0)
(8.08532e-05 -5.96584e-06 0)
(8.49864e-05 -7.31664e-06 0)
(8.89112e-05 -8.61262e-06 0)
(2.87244e-06 1.0279e-05 0)
(8.74418e-06 1.1205e-05 0)
(1.47937e-05 1.1259e-05 0)
(2.09137e-05 1.07373e-05 0)
(2.70577e-05 9.8793e-06 0)
(3.31987e-05 8.8377e-06 0)
(3.93098e-05 7.69909e-06 0)
(4.5361e-05 6.50936e-06 0)
(5.13207e-05 5.29205e-06 0)
(5.71583e-05 4.05981e-06 0)
(6.28463e-05 2.82048e-06 0)
(6.83613e-05 1.58131e-06 0)
(7.36707e-05 3.25763e-07 0)
(7.87236e-05 -9.69583e-07 0)
(8.35277e-05 -2.2917e-06 0)
(8.81189e-05 -3.56458e-06 0)
(9.24972e-05 -4.78101e-06 0)
(9.66665e-05 -5.9345e-06 0)
(3.33262e-06 1.29282e-05 0)
(1.00983e-05 1.35585e-05 0)
(1.69964e-05 1.34156e-05 0)
(2.39184e-05 1.27301e-05 0)
(3.08018e-05 1.1715e-05 0)
(3.76081e-05 1.05214e-05 0)
(4.4308e-05 9.24386e-06 0)
(5.0875e-05 7.93649e-06 0)
(5.72845e-05 6.62882e-06 0)
(6.35144e-05 5.33647e-06 0)
(6.95459e-05 4.0681e-06 0)
(7.53641e-05 2.82936e-06 0)
(8.09584e-05 1.62467e-06 0)
(8.63183e-05 4.53167e-07 0)
(9.14029e-05 -7.38191e-07 0)
(9.62166e-05 -1.92519e-06 0)
(0.000100801 -3.04623e-06 0)
(0.000105164 -4.09908e-06 0)
(3.8698e-06 1.47927e-05 0)
(1.16634e-05 1.51376e-05 0)
(1.95081e-05 1.47931e-05 0)
(2.73066e-05 1.39568e-05 0)
(3.49931e-05 1.28198e-05 0)
(4.25243e-05 1.15248e-05 0)
(4.98701e-05 1.01654e-05 0)
(5.70072e-05 8.79731e-06 0)
(6.39171e-05 7.45154e-06 0)
(7.05852e-05 6.14407e-06 0)
(7.70006e-05 4.88277e-06 0)
(8.31564e-05 3.6715e-06 0)
(8.90489e-05 2.5124e-06 0)
(9.46781e-05 1.40703e-06 0)
(0.000100044 3.53509e-07 0)
(0.000105122 -7.03572e-07 0)
(0.000109919 -1.73228e-06 0)
(0.000114476 -2.69099e-06 0)
(4.4901e-06 1.58408e-05 0)
(1.34684e-05 1.595e-05 0)
(2.23936e-05 1.5437e-05 0)
(3.11779e-05 1.44844e-05 0)
(3.97569e-05 1.32676e-05 0)
(4.80881e-05 1.19197e-05 0)
(5.61437e-05 1.05295e-05 0)
(6.39061e-05 9.15072e-06 0)
(7.13638e-05 7.81281e-06 0)
(7.85108e-05 6.53044e-06 0)
(8.53446e-05 5.3098e-06 0)
(9.18664e-05 4.15276e-06 0)
(9.80803e-05 3.05924e-06 0)
(0.000103993 2.02848e-06 0)
(0.000109613 1.05956e-06 0)
(0.000114945 1.4285e-07 0)
(0.000119978 -7.66242e-07 0)
(0.00012473 -1.63095e-06 0)
(5.20508e-06 1.60973e-05 0)
(1.55505e-05 1.60283e-05 0)
(2.57193e-05 1.53955e-05 0)
(3.56274e-05 1.43737e-05 0)
(4.52133e-05 1.31257e-05 0)
(5.44383e-05 1.17748e-05 0)
(6.32813e-05 1.04031e-05 0)
(7.17327e-05 9.05994e-06 0)
(7.97913e-05 7.77185e-06 0)
(8.74609e-05 6.55111e-06 0)
(9.47492e-05 5.40184e-06 0)
(0.000101667 4.32397e-06 0)
(0.000108226 3.31551e-06 0)
(0.000114442 2.37386e-06 0)
(0.000120328 1.49635e-06 0)
(0.000125902 6.80428e-07 0)
(0.000131165 -9.25154e-08 0)
(0.000136125 -8.51863e-07 0)
(6.03441e-06 1.56094e-05 0)
(1.79678e-05 1.54172e-05 0)
(2.95801e-05 1.47188e-05 0)
(4.07841e-05 1.3681e-05 0)
(5.15208e-05 1.24544e-05 0)
(6.17587e-05 1.11515e-05 0)
(7.14867e-05 9.84642e-06 0)
(8.07075e-05 8.5829e-06 0)
(8.94328e-05 7.38359e-06 0)
(9.76794e-05 6.25801e-06 0)
(0.000105467 5.20819e-06 0)
(0.000112818 4.23234e-06 0)
(0.000119753 3.32702e-06 0)
(0.000126297 2.48832e-06 0)
(0.00013247 1.71242e-06 0)
(0.000138296 9.95782e-07 0)
(0.000143796 3.3513e-07 0)
(0.000148971 -2.99222e-07 0)
(7.01107e-06 1.44262e-05 0)
(2.08164e-05 1.41615e-05 0)
(3.41294e-05 1.34524e-05 0)
(4.68528e-05 1.24544e-05 0)
(5.89298e-05 1.13036e-05 0)
(7.03385e-05 1.01002e-05 0)
(8.10824e-05 8.909e-06 0)
(9.1181e-05 7.76723e-06 0)
(0.000100663 6.69332e-06 0)
(0.000109562 5.694e-06 0)
(0.000117912 4.76947e-06 0)
(0.000125748 3.91665e-06 0)
(0.000133104 3.13117e-06 0)
(0.000140013 2.40839e-06 0)
(0.000146505 1.74388e-06 0)
(0.000152609 1.13363e-06 0)
(0.000158354 5.73986e-07 0)
(0.000163762 5.82608e-08 0)
(8.19405e-06 1.25826e-05 0)
(2.42683e-05 1.22921e-05 0)
(3.96415e-05 1.16271e-05 0)
(5.41989e-05 1.0726e-05 0)
(6.78851e-05 9.70683e-06 0)
(8.06918e-05 8.65496e-06 0)
(9.26425e-05 7.62449e-06 0)
(0.000103779 6.64558e-06 0)
(0.000114153 5.73231e-06 0)
(0.000123817 4.88888e-06 0)
(0.000132826 4.11411e-06 0)
(0.00014123 3.40421e-06 0)
(0.000149077 2.75447e-06 0)
(0.000156412 2.16008e-06 0)
(0.000163274 1.61657e-06 0)
(0.000169703 1.11991e-06 0)
(0.000175732 6.66525e-07 0)
(0.000181393 2.53133e-07 0)
(9.70269e-06 1.00785e-05 0)
(2.86718e-05 9.80693e-06 0)
(4.6673e-05 9.24193e-06 0)
(6.35645e-05 8.49749e-06 0)
(7.92918e-05 7.66864e-06 0)
(9.38655e-05 6.82271e-06 0)
(0.000107337 6.00154e-06 0)
(0.000119778 5.22769e-06 0)
(0.00013127 4.51095e-06 0)
(0.000141895 3.85349e-06 0)
(0.00015173 3.25334e-06 0)
(0.000160846 2.7067e-06 0)
(0.000169309 2.20913e-06 0)
(0.000177178 1.75629e-06 0)
(0.000184507 1.34416e-06 0)
(0.000191344 9.6922e-07 0)
(0.000197731 6.28412e-07 0)
(0.000203708 3.19199e-07 0)
(1.18376e-05 6.83229e-06 0)
(3.49061e-05 6.62574e-06 0)
(5.66312e-05 6.22291e-06 0)
(7.68282e-05 5.70342e-06 0)
(9.54438e-05 5.13242e-06 0)
(0.000112516 4.55524e-06 0)
(0.000128138 3.99944e-06 0)
(0.000142425 3.47937e-06 0)
(0.000155503 3.00077e-06 0)
(0.000167492 2.56437e-06 0)
(0.000178504 2.16821e-06 0)
(0.000188638 1.80922e-06 0)
(0.000197986 1.48403e-06 0)
(0.000206628 1.18937e-06 0)
(0.000214633 9.22291e-07 0)
(0.000222064 6.80234e-07 0)
(0.000228978 4.61054e-07 0)
(0.000235422 2.63327e-07 0)
(1.57879e-05 2.46992e-06 0)
(4.64515e-05 2.38864e-06 0)
(7.50942e-05 2.23575e-06 0)
(0.000101448 2.04109e-06 0)
(0.000125459 1.82882e-06 0)
(0.000147217 1.61553e-06 0)
(0.000166888 1.41115e-06 0)
(0.000184674 1.22074e-06 0)
(0.000200776 1.0462e-06 0)
(0.000215387 8.87606e-07 0)
(0.000228679 7.44105e-07 0)
(0.000240807 6.14456e-07 0)
(0.000251904 4.97329e-07 0)
(0.000262088 3.91461e-07 0)
(0.000271459 2.95718e-07 0)
(0.000280107 2.09117e-07 0)
(0.000288109 1.30863e-07 0)
(0.000295534 6.05726e-08 0)
(9.71306e-06 -6.96958e-06 -8.9965e-32)
(2.89138e-05 -6.99116e-06 9.00173e-32)
(4.7707e-05 -7.0194e-06 0)
(6.61965e-05 -7.04325e-06 0)
(8.44647e-05 -7.05726e-06 0)
(0.000102576 -7.05903e-06 -9.00249e-32)
(0.000120579 -7.04779e-06 0)
(0.000138511 -7.02366e-06 0)
(0.000156401 -6.98718e-06 0)
(0.000174268 -6.93911e-06 0)
(0.000192128 -6.88027e-06 8.66574e-32)
(0.000209991 -6.8115e-06 0)
(0.000227866 -6.73363e-06 0)
(0.000245758 -6.64744e-06 0)
(0.000263671 -6.55369e-06 0)
(0.000281606 -6.4531e-06 8.008e-32)
(0.000299567 -6.34635e-06 0)
(0.000317553 -6.23411e-06 0)
(0.000335566 -6.117e-06 0)
(0.000353606 -5.99565e-06 0)
(0.000371674 -5.87063e-06 0)
(0.000389771 -5.7425e-06 0)
(0.000407898 -5.61182e-06 0)
(0.000426055 -5.47908e-06 6.57861e-32)
(0.000444246 -5.34481e-06 -6.38358e-32)
(0.00046247 -5.20945e-06 6.18712e-32)
(0.000480732 -5.07345e-06 5.98979e-32)
(0.000499032 -4.93725e-06 0)
(0.000517375 -4.80122e-06 0)
(0.000535764 -4.66575e-06 -5.39788e-32)
(0.000554202 -4.53117e-06 -5.20218e-32)
(0.000572694 -4.3978e-06 0)
(0.000591244 -4.26593e-06 0)
(0.000609857 -4.13584e-06 -4.62554e-32)
(0.000628539 -4.00777e-06 0)
(0.000647295 -3.88194e-06 0)
(0.000666131 -3.75856e-06 4.07147e-32)
(0.000685054 -3.63779e-06 0)
(0.000704069 -3.51981e-06 3.71811e-32)
(0.000723185 -3.40475e-06 7.09367e-32)
(0.000742407 -3.29274e-06 0)
(0.000761745 -3.18389e-06 0)
(0.000781205 -3.07829e-06 0)
(0.000800795 -2.97603e-06 0)
(0.000820523 -2.87718e-06 0)
(0.000840399 -2.78179e-06 5.20663e-32)
(0.00086043 -2.68991e-06 4.92186e-32)
(0.000880625 -2.60159e-06 4.64587e-32)
(0.000900994 -2.51686e-06 0)
(0.000921545 -2.43574e-06 -4.12054e-32)
(0.000942288 -2.35825e-06 0)
(0.000963232 -2.28441e-06 3.63094e-32)
(0.000984387 -2.21422e-06 3.39954e-32)
(0.00100576 -2.1477e-06 0)
(0.00102737 -2.08485e-06 0)
(0.00104922 -2.02566e-06 0)
(0.00107131 -1.97013e-06 2.5634e-32)
(0.00109367 -1.91827e-06 0)
(0.0011163 -1.87006e-06 0)
(0.00113921 -1.8255e-06 0)
(0.00116242 -1.78459e-06 0)
(0.00118593 -1.7473e-06 0)
(0.00120975 -1.71362e-06 0)
(0.00123389 -1.68356e-06 0)
(0.00125838 -1.6571e-06 0)
(0.0012832 -1.63422e-06 -1.1948e-32)
(0.00130839 -1.61491e-06 0)
(0.00133394 -1.59915e-06 0)
(0.00135988 -1.58692e-06 8.91546e-33)
(0.0013862 -1.57822e-06 8.06841e-33)
(0.00141292 -1.573e-06 0)
(0.00144006 -1.57126e-06 -6.61755e-33)
(0.00146762 -1.57297e-06 6.01077e-33)
(0.00149561 -1.57809e-06 0)
(0.00152404 -1.5866e-06 -5.03074e-33)
(0.00155293 -1.59845e-06 0)
(0.00158229 -1.61361e-06 0)
(0.00161212 -1.63204e-06 4.12642e-33)
(0.00164243 -1.65368e-06 0)
(0.00167324 -1.67849e-06 -3.88386e-33)
(0.00170456 -1.7064e-06 0)
(0.00173639 -1.73735e-06 3.91434e-33)
(0.00176874 -1.77128e-06 4.02771e-33)
(0.00180163 -1.80811e-06 4.20334e-33)
(0.00183506 -1.84776e-06 8.87874e-33)
(0.00186904 -1.89017e-06 -9.46564e-33)
(0.00190358 -1.93522e-06 0)
(0.00193869 -1.98285e-06 0)
(0.00197438 -2.03295e-06 0)
(0.00201065 -2.08543e-06 -1.28748e-32)
(0.00204751 -2.1402e-06 -1.39651e-32)
(0.00208498 -2.19715e-06 1.51404e-32)
(0.00212305 -2.25618e-06 0)
(0.00216175 -2.3172e-06 -1.77221e-32)
(0.00220107 -2.38011e-06 -1.91169e-32)
(0.00224102 -2.4448e-06 -2.0575e-32)
(0.00228161 -2.51118e-06 0)
(0.00232285 -2.57918e-06 0)
(0.00236476 -2.64869e-06 0)
(0.00240732 -2.71965e-06 -2.69317e-32)
(0.00245057 -2.79196e-06 0)
(0.0024945 -2.86558e-06 0)
(0.00253912 -2.94041e-06 3.21224e-32)
(0.00258445 -3.01643e-06 0)
(0.00263049 -3.09357e-06 0)
(0.00267726 -3.17181e-06 3.7562e-32)
(0.00272477 -3.2511e-06 0)
(0.00277302 -3.33144e-06 0)
(0.00282205 -3.41281e-06 -4.31852e-32)
(0.00287184 -3.49521e-06 -4.50937e-32)
(0.00292243 -3.57864e-06 0)
(0.00297383 -3.66314e-06 4.89595e-32)
(0.00302605 -3.74873e-06 0)
(0.00307911 -3.83545e-06 -5.28968e-32)
(0.00313304 -3.92336e-06 0)
(0.00318785 -4.01255e-06 -5.69179e-32)
(0.00324356 -4.10308e-06 -5.89689e-32)
(0.0033002 -4.19509e-06 0)
(0.0033578 -4.28866e-06 0)
(0.00341639 -4.38398e-06 0)
(0.00347599 -4.48119e-06 0)
(0.00353664 -4.58052e-06 0)
(0.00359839 -4.6822e-06 0)
(0.00366126 -4.78656e-06 0)
(0.00372532 -4.89393e-06 -7.71049e-32)
(0.00379061 -5.00472e-06 7.97515e-32)
(0.0038572 -5.11945e-06 0)
(0.00392516 -5.23858e-06 0)
(0.00399456 -5.3627e-06 0)
(0.00406549 -5.49276e-06 0)
(0.00413806 -5.63068e-06 1.91414e-31)
(0.00421244 -5.78065e-06 0)
(0.00428893 -5.94996e-06 -2.10177e-31)
(0.004368 -6.14897e-06 2.23287e-31)
(0.00445031 -6.38743e-06 0)
(0.00453655 -6.6658e-06 0)
(0.00462708 -6.96134e-06 0)
(0.00472124 -7.2127e-06 -2.99913e-31)
(0.00481657 -7.31116e-06 -3.01091e-31)
(0.00490817 -7.11161e-06 0)
(0.00498879 -6.47858e-06 -1.98743e-31)
(0.00505006 -5.37452e-06 -7.88014e-32)
(0.00508544 -3.99511e-06 -6.71704e-32)
(0.00509328 -2.68302e-06 0)
(0.00507925 -3.93893e-07 0)
(0.0050529 9.89217e-07 -5.79465e-31)
(0.00502025 1.72345e-06 0)
(0.00498313 2.1917e-06 0)
(0.00494203 2.52936e-06 0)
(0.00489698 2.79811e-06 0)
(0.00484771 3.04246e-06 7.72386e-31)
(0.00479369 3.30744e-06 7.94684e-31)
(0.0047341 3.6282e-06 0)
(0.00466809 3.82468e-06 8.36304e-31)
(0.00459471 3.93075e-06 0)
(0.00451317 3.44333e-06 0)
(0.00442323 1.96913e-06 6.2132e-31)
(0.00432303 -3.83584e-07 0)
(0.00420868 -3.04891e-06 8.22068e-32)
(0.00408333 -5.71283e-06 0)
(0.00396612 -9.51218e-06 0)
(0.00390148 -1.5028e-05 -1.18542e-30)
(0.0040089 -2.54744e-05 0)
(0.00475553 -6.21876e-05 -5.98094e-30)
(0.00775623 -0.000271416 0)
(0.012779 -0.00114942 0)
(0.0143385 0.000553133 0)
(0.0125602 0.000341815 -3.6529e-29)
(0.0115544 0.000159728 0)
(0.0110459 9.13556e-05 1.04891e-29)
(0.0107365 5.99215e-05 0)
(0.0105238 4.30274e-05 0)
(0.010365 3.3121e-05 0)
(0.010238 2.71807e-05 0)
(0.0101293 2.39125e-05 0)
(0.0100288 2.28881e-05 0)
(0.00992623 2.43988e-05 0)
(0.00980703 3.00058e-05 -8.05736e-30)
(0.00964009 4.54218e-05 0)
(0.00932015 9.76489e-05 0)
(5.43113e-06 -2.00216e-05 2.5858e-31)
(1.631e-05 -2.00222e-05 -2.58203e-31)
(2.72069e-05 -2.00261e-05 0)
(3.81154e-05 -2.00183e-05 5.15659e-31)
(4.90339e-05 -1.99901e-05 0)
(5.99627e-05 -1.9937e-05 -2.56972e-31)
(7.0902e-05 -1.98571e-05 -5.09946e-31)
(8.18518e-05 -1.97499e-05 -5.06657e-31)
(9.28112e-05 -1.96157e-05 0)
(0.000103779 -1.94555e-05 -4.98011e-31)
(0.000114752 -1.92705e-05 2.47711e-31)
(0.000125729 -1.90622e-05 0)
(0.000136707 -1.88321e-05 0)
(0.000147681 -1.85818e-05 0)
(0.00015865 -1.83128e-05 0)
(0.000169609 -1.80267e-05 2.30987e-31)
(0.000180555 -1.77251e-05 0)
(0.000191484 -1.74095e-05 4.40983e-31)
(0.000202395 -1.70815e-05 0)
(0.000213283 -1.67425e-05 0)
(0.000224147 -1.63941e-05 -4.13193e-31)
(0.000234982 -1.60376e-05 0)
(0.000245788 -1.56745e-05 3.9357e-31)
(0.000256562 -1.5306e-05 1.94797e-31)
(0.000267302 -1.49335e-05 -1.89855e-31)
(0.000278006 -1.45582e-05 1.84878e-31)
(0.000288674 -1.41812e-05 1.79879e-31)
(0.000299304 -1.38036e-05 0)
(0.000309895 -1.34265e-05 0)
(0.000320447 -1.30509e-05 -1.64896e-31)
(0.000330959 -1.26776e-05 -4.72026e-31)
(0.000341431 -1.23075e-05 0)
(0.000351863 -1.19413e-05 0)
(0.000362255 -1.15798e-05 -1.45389e-31)
(0.000372608 -1.12236e-05 0)
(0.000382922 -1.08733e-05 0)
(0.000393198 -1.05293e-05 1.31447e-31)
(0.000403436 -1.01922e-05 0)
(0.000413638 -9.86244e-06 3.57992e-31)
(0.000423803 -9.54026e-06 2.36604e-31)
(0.000433934 -9.22604e-06 0)
(0.000444031 -8.92004e-06 0)
(0.000454095 -8.62249e-06 -4.02888e-31)
(0.000464128 -8.3336e-06 -3.87005e-31)
(0.00047413 -8.05352e-06 -3.71581e-31)
(0.000484104 -7.78238e-06 5.46362e-31)
(0.000494049 -7.5203e-06 1.82731e-31)
(0.000503968 -7.26736e-06 -1.52161e-31)
(0.000513861 -7.0236e-06 3.14584e-31)
(0.00052373 -6.78908e-06 -1.63129e-31)
(0.000533576 -6.56381e-06 0)
(0.000543399 -6.34779e-06 1.51257e-31)
(0.000553201 -6.14102e-06 4.10921e-31)
(0.000562983 -5.94349e-06 0)
(0.000572745 -5.75515e-06 0)
(0.000582489 -5.57598e-06 0)
(0.000592215 -5.40592e-06 1.25758e-31)
(0.000601924 -5.24491e-06 0)
(0.000611617 -5.09291e-06 2.05538e-31)
(0.000621293 -4.94984e-06 0)
(0.000630954 -4.81564e-06 1.89377e-31)
(0.0006406 -4.69022e-06 0)
(0.000650231 -4.57352e-06 -1.75039e-31)
(0.000659847 -4.46544e-06 0)
(0.000669449 -4.3659e-06 1.62491e-31)
(0.000679036 -4.27482e-06 -2.51346e-31)
(0.000688608 -4.19208e-06 0)
(0.000698166 -4.1176e-06 -1.46942e-31)
(0.000707709 -4.05128e-06 8.80147e-32)
(0.000717237 -3.99299e-06 8.62827e-32)
(0.00072675 -3.94263e-06 0)
(0.000736247 -3.90008e-06 -2.15532e-31)
(0.000745729 -3.8652e-06 8.23068e-32)
(0.000755195 -3.83787e-06 0)
(0.000764644 -3.81794e-06 -8.06385e-32)
(0.000774076 -3.80526e-06 -1.23625e-31)
(0.000783492 -3.79967e-06 0)
(0.000792891 -3.80102e-06 7.95345e-32)
(0.000802272 -3.80911e-06 0)
(0.000811635 -3.82378e-06 4.13556e-32)
(0.000820981 -3.84482e-06 0)
(0.00083031 -3.87204e-06 -4.12805e-32)
(0.000839622 -3.90521e-06 8.11244e-32)
(0.000848916 -3.94413e-06 2.05648e-31)
(0.000858194 -3.98856e-06 4.15998e-31)
(0.000867455 -4.03828e-06 -4.21521e-31)
(0.000876701 -4.09304e-06 0)
(0.000885933 -4.1526e-06 0)
(0.000895151 -4.2167e-06 0)
(0.000904356 -4.2851e-06 9.34265e-32)
(0.00091355 -4.35754e-06 -1.82143e-31)
(0.000922735 -4.43377e-06 1.85651e-31)
(0.000931912 -4.51355e-06 0)
(0.000941082 -4.59661e-06 -4.90734e-31)
(0.000950248 -4.68272e-06 -1.97221e-31)
(0.000959412 -4.77163e-06 -2.01385e-31)
(0.000968577 -4.86313e-06 0)
(0.000977744 -4.95699e-06 0)
(0.000986917 -5.05299e-06 0)
(0.000996097 -5.15095e-06 -2.19263e-31)
(0.00100529 -5.25067e-06 0)
(0.00101449 -5.35197e-06 -3.61769e-31)
(0.00102372 -5.45471e-06 -1.36986e-31)
(0.00103296 -5.55873e-06 3.79659e-31)
(0.00104223 -5.66391e-06 0)
(0.00105152 -5.77012e-06 6.46668e-31)
(0.00106084 -5.87727e-06 0)
(0.0010702 -5.98528e-06 4.16729e-31)
(0.0010796 -6.09407e-06 -6.90282e-31)
(0.00108903 -6.20359e-06 -7.05039e-31)
(0.00109852 -6.31379e-06 0)
(0.00110805 -6.42466e-06 -1.75185e-31)
(0.00111764 -6.53618e-06 4.64732e-31)
(0.00112728 -6.64835e-06 -2.90483e-31)
(0.00113699 -6.7612e-06 0)
(0.00114677 -6.87476e-06 -3.01267e-31)
(0.00115662 -6.98907e-06 1.97483e-31)
(0.00116655 -7.10419e-06 0)
(0.00117656 -7.2202e-06 5.24329e-31)
(0.00118666 -7.3372e-06 5.34517e-31)
(0.00119686 -7.45528e-06 5.44801e-31)
(0.00120716 -7.57459e-06 0)
(0.00121757 -7.69527e-06 0)
(0.0012281 -7.81751e-06 0)
(0.00123876 -7.94153e-06 -9.39238e-31)
(0.00124955 -8.06754e-06 3.5808e-31)
(0.0012605 -8.19578e-06 0)
(0.0012716 -8.3264e-06 -6.20755e-31)
(0.00128288 -8.45963e-06 -6.32401e-31)
(0.00129435 -8.59621e-06 0)
(0.00130602 -8.73825e-06 7.80177e-31)
(0.00131791 -8.89058e-06 -1.34069e-30)
(0.00133002 -9.0612e-06 -8.11303e-31)
(0.00134238 -9.25924e-06 2.2383e-30)
(0.00135502 -9.48741e-06 0)
(0.00136807 -9.72747e-06 0)
(0.00138179 -9.92049e-06 0)
(0.0013967 -9.94919e-06 -8.96822e-31)
(0.00141358 -9.63592e-06 -2.32151e-30)
(0.00143351 -8.77268e-06 -1.27264e-30)
(0.00145763 -7.20686e-06 -6.07517e-31)
(0.00148687 -4.8982e-06 -8.17307e-31)
(0.00152236 -1.68089e-06 3.00318e-32)
(0.00156632 1.82783e-06 0)
(0.00162061 6.21392e-06 0)
(0.00168297 8.98981e-06 -3.58324e-30)
(0.00174962 1.05842e-05 0)
(0.00181908 1.15811e-05 0)
(0.00189075 1.222e-05 3.24127e-30)
(0.00196426 1.26005e-05 0)
(0.00203906 1.27455e-05 4.91637e-30)
(0.00211406 1.25884e-05 1.50126e-30)
(0.00218676 1.18896e-05 0)
(0.00225218 9.62767e-06 4.04988e-30)
(0.00230054 4.92478e-06 0)
(0.00231661 -8.12727e-07 0)
(0.00229259 -6.90718e-06 -4.9768e-31)
(0.00223568 -1.36908e-05 -1.98666e-30)
(0.00216245 -2.04759e-05 -1.91294e-30)
(0.00209137 -2.73198e-05 0)
(0.00203754 -3.59685e-05 0)
(0.00201711 -4.83128e-05 -1.40338e-29)
(0.00205668 -7.177e-05 0)
(0.00220963 -0.000143054 -4.33308e-29)
(0.0025714 -0.000460004 0)
(0.00489484 -0.00163298 0)
(0.00986304 -0.000117723 0)
(0.0122287 0.000950575 -9.94419e-29)
(0.0114302 0.000451105 0)
(0.0109969 0.000265108 2.845e-29)
(0.010713 0.000176302 0)
(0.010511 0.000127448 0)
(0.0103575 9.84533e-05 2.42721e-29)
(0.0102337 8.09417e-05 -2.06041e-29)
(0.0101274 7.12446e-05 0)
(0.0100291 6.81204e-05 0)
(0.00992953 7.23373e-05 0)
(0.00981661 8.80024e-05 2.37607e-29)
(0.00967048 0.00012885 0)
(0.0094668 0.000248276 -1.09837e-28)
(4.55691e-06 -3.15845e-05 1.63234e-30)
(1.3694e-05 -3.15198e-05 -3.24996e-34)
(2.28651e-05 -3.14395e-05 0)
(3.20629e-05 -3.13382e-05 7.58663e-34)
(4.12822e-05 -3.12117e-05 0)
(5.05192e-05 -3.10567e-05 0)
(5.97708e-05 -3.08714e-05 -1.58895e-30)
(6.90341e-05 -3.06547e-05 -7.89144e-31)
(7.83066e-05 -3.04064e-05 7.80439e-31)
(8.75854e-05 -3.01271e-05 -7.74629e-31)
(9.68679e-05 -2.98174e-05 0)
(0.000106151 -2.94786e-05 0)
(0.000115432 -2.91121e-05 -7.4435e-31)
(0.000124708 -2.87195e-05 -1.46709e-30)
(0.000133975 -2.83026e-05 1.44423e-30)
(0.000143232 -2.78633e-05 0)
(0.000152475 -2.74035e-05 1.39512e-30)
(0.0001617 -2.69251e-05 6.88361e-31)
(0.000170907 -2.64302e-05 0)
(0.000180092 -2.59207e-05 1.31455e-30)
(0.000189253 -2.53987e-05 -6.47602e-31)
(0.000198388 -2.4866e-05 -1.25743e-30)
(0.000207496 -2.43246e-05 6.18978e-31)
(0.000216573 -2.37764e-05 0)
(0.00022562 -2.32231e-05 1.16864e-30)
(0.000234634 -2.26664e-05 1.13858e-30)
(0.000243614 -2.21079e-05 0)
(0.00025256 -2.15493e-05 1.07829e-30)
(0.000261471 -2.0992e-05 0)
(0.000270347 -2.04372e-05 1.01828e-30)
(0.000279186 -1.98863e-05 -5.00865e-31)
(0.000287988 -1.93405e-05 0)
(0.000296754 -1.88007e-05 0)
(0.000305484 -1.82681e-05 0)
(0.000314177 -1.77434e-05 0)
(0.000322834 -1.72275e-05 0)
(0.000331455 -1.67211e-05 0)
(0.00034004 -1.62248e-05 7.90632e-31)
(0.000348591 -1.57392e-05 -3.73927e-31)
(0.000357107 -1.52647e-05 0)
(0.00036559 -1.48019e-05 0)
(0.00037404 -1.43509e-05 0)
(0.000382457 -1.39122e-05 -1.34819e-30)
(0.000390843 -1.3486e-05 -6.60299e-31)
(0.000399198 -1.30725e-05 -1.8851e-32)
(0.000407524 -1.26717e-05 1.9244e-32)
(0.000415821 -1.22839e-05 -5.7616e-31)
(0.000424089 -1.19092e-05 -5.75638e-31)
(0.000432331 -1.15474e-05 1.0919e-30)
(0.000440546 -1.11988e-05 5.16554e-31)
(0.000448736 -1.08631e-05 0)
(0.000456901 -1.05405e-05 4.80207e-31)
(0.000465043 -1.02308e-05 9.48048e-31)
(0.000473162 -9.93405e-06 0)
(0.000481259 -9.65003e-06 0)
(0.000489335 -9.37868e-06 -4.15548e-31)
(0.000497391 -9.11988e-06 0)
(0.000505428 -8.8735e-06 0)
(0.000513446 -8.6394e-06 1.14598e-30)