/*--------------------------------*- C++ -*----------------------------------*\
  =========                 |
  \\      /  F ield         | OpenFOAM: The Open Source CFD Toolbox
   \\    /   O peration     | Website:  https://openfoam.org
    \\  /    A nd           | Version:  10
     \\/     M anipulation  |
\*---------------------------------------------------------------------------*/
FoamFile
{
    format      ascii;
    class       surfaceScalarField;
    location    "5400";
    object      phi;
}
// * * * * * * * * * * * * * * * * * * * * * * * * * * * * * * * * * * * * * //

dimensions      [0 3 -1 0 0 0 0];

internalField   nonuniform List<scalar> 
12640
(
-8.17956e-09
8.17956e-09
-1.6354e-08
8.17442e-09
-2.45177e-08
8.16375e-09
-3.26644e-08
8.1467e-09
-4.07864e-08
8.12202e-09
-4.88744e-08
8.08794e-09
-5.69166e-08
8.04221e-09
-6.48985e-08
7.98195e-09
-7.28022e-08
7.90364e-09
-8.06052e-08
7.80301e-09
-8.82801e-08
7.67496e-09
-9.57935e-08
7.5134e-09
-1.03105e-07
7.3112e-09
-1.10165e-07
7.06003e-09
-1.16915e-07
6.75029e-09
-1.23286e-07
6.37097e-09
-1.29196e-07
5.90968e-09
-1.34548e-07
5.35267e-09
-1.39233e-07
4.68497e-09
-1.43124e-07
3.89073e-09
-1.46078e-07
2.95382e-09
-1.47937e-07
1.85869e-09
-1.48528e-07
5.91667e-10
-1.47671e-07
-8.57268e-10
-1.45179e-07
-2.4922e-09
-1.4087e-07
-4.30852e-09
-1.34581e-07
-6.28975e-09
-1.26176e-07
-8.40443e-09
-1.15573e-07
-1.06034e-08
-1.02754e-07
-1.28184e-08
-8.77914e-08
-1.49628e-08
-7.0856e-08
-1.69354e-08
-6.27859e-08
-8.0701e-09
-5.44127e-08
-8.37314e-09
-4.57717e-08
-8.64105e-09
-3.69014e-08
-8.87029e-09
-2.78437e-08
-9.05772e-09
-1.8643e-08
-9.2007e-09
-9.34579e-09
-9.29719e-09
-1.94073e-17
-9.34579e-09
9.34579e-09
-9.34579e-09
1.8643e-08
-9.29719e-09
2.78437e-08
-9.2007e-09
3.69014e-08
-9.05772e-09
4.57717e-08
-8.87029e-09
5.44127e-08
-8.64105e-09
6.27859e-08
-8.37314e-09
7.0856e-08
-8.0701e-09
8.77914e-08
-1.69354e-08
1.02754e-07
-1.49628e-08
1.15573e-07
-1.28184e-08
1.26176e-07
-1.06034e-08
1.34581e-07
-8.40443e-09
1.4087e-07
-6.28975e-09
1.45179e-07
-4.30852e-09
1.47671e-07
-2.4922e-09
1.48528e-07
-8.57268e-10
1.47937e-07
5.91667e-10
1.46078e-07
1.85869e-09
1.43124e-07
2.95382e-09
1.39233e-07
3.89073e-09
1.34548e-07
4.68497e-09
1.29196e-07
5.35267e-09
1.23286e-07
5.90968e-09
1.16915e-07
6.37097e-09
1.10165e-07
6.75029e-09
1.03105e-07
7.06003e-09
9.57935e-08
7.3112e-09
8.82801e-08
7.5134e-09
8.06052e-08
7.67496e-09
7.28022e-08
7.80301e-09
6.48985e-08
7.90364e-09
5.69166e-08
7.98195e-09
4.88744e-08
8.04221e-09
4.07864e-08
8.08794e-09
3.26644e-08
8.12202e-09
2.45177e-08
8.1467e-09
1.6354e-08
8.16375e-09
8.17956e-09
8.17442e-09
8.17956e-09
-8.97179e-09
1.71513e-08
-1.7938e-08
1.71406e-08
-2.68925e-08
1.71183e-08
-3.58283e-08
1.70826e-08
-4.47372e-08
1.70309e-08
-5.36088e-08
1.69596e-08
-6.24304e-08
1.68638e-08
-7.11861e-08
1.67376e-08
-7.9856e-08
1.65736e-08
-8.84159e-08
1.63629e-08
-9.68355e-08
1.60946e-08
-1.05078e-07
1.57562e-08
-1.131e-07
1.53326e-08
-1.20846e-07
1.48064e-08
-1.28253e-07
1.41575e-08
-1.35245e-07
1.33627e-08
-1.41732e-07
1.23961e-08
-1.47608e-07
1.12289e-08
-1.52752e-07
9.82957e-09
-1.57027e-07
8.16496e-09
-1.60274e-07
6.20116e-09
-1.62321e-07
3.90551e-09
-1.62978e-07
1.24927e-09
-1.62047e-07
-1.7887e-09
-1.59322e-07
-5.2171e-09
-1.54604e-07
-9.02637e-09
-1.47712e-07
-1.31822e-08
-1.38498e-07
-1.76186e-08
-1.26868e-07
-2.22327e-08
-1.12805e-07
-2.68814e-08
-9.63855e-08
-3.13826e-08
-7.7797e-08
-3.5524e-08
-6.8938e-08
-1.69291e-08
-5.97457e-08
-1.75655e-08
-5.02587e-08
-1.81281e-08
-4.05194e-08
-1.86095e-08
-3.0574e-08
-1.90031e-08
-2.04713e-08
-1.93034e-08
-1.02624e-08
-1.95061e-08
-1.76183e-17
-1.96082e-08
1.02624e-08
-1.96082e-08
2.04713e-08
-1.95061e-08
3.0574e-08
-1.93034e-08
4.05194e-08
-1.90031e-08
5.02587e-08
-1.86095e-08
5.97457e-08
-1.81281e-08
6.8938e-08
-1.75655e-08
7.7797e-08
-1.69291e-08
9.63855e-08
-3.5524e-08
1.12805e-07
-3.13826e-08
1.26868e-07
-2.68814e-08
1.38498e-07
-2.22327e-08
1.47712e-07
-1.76186e-08
1.54604e-07
-1.31822e-08
1.59322e-07
-9.02637e-09
1.62047e-07
-5.2171e-09
1.62978e-07
-1.7887e-09
1.62321e-07
1.24927e-09
1.60274e-07
3.90551e-09
1.57027e-07
6.20116e-09
1.52752e-07
8.16496e-09
1.47608e-07
9.82957e-09
1.41732e-07
1.12289e-08
1.35245e-07
1.23961e-08
1.28253e-07
1.33627e-08
1.20846e-07
1.41575e-08
1.131e-07
1.48064e-08
1.05078e-07
1.53326e-08
9.68355e-08
1.57562e-08
8.84159e-08
1.60946e-08
7.9856e-08
1.63629e-08
7.11861e-08
1.65736e-08
6.24304e-08
1.67376e-08
5.36088e-08
1.68638e-08
4.47372e-08
1.69596e-08
3.58283e-08
1.70309e-08
2.68925e-08
1.70826e-08
1.7938e-08
1.71183e-08
8.97179e-09
1.71406e-08
1.71513e-08
-9.8411e-09
2.69924e-08
-1.96761e-08
2.69756e-08
-2.94984e-08
2.69405e-08
-3.93004e-08
2.68846e-08
-4.9073e-08
2.68035e-08
-5.8805e-08
2.66916e-08
-6.84824e-08
2.65413e-08
-7.8088e-08
2.63432e-08
-8.76001e-08
2.60857e-08
-9.69921e-08
2.57548e-08
-1.06231e-07
2.53336e-08
-1.15277e-07
2.4802e-08
-1.24081e-07
2.41366e-08
-1.32584e-07
2.33099e-08
-1.40717e-07
2.22902e-08
-1.48395e-07
2.10412e-08
-1.55521e-07
1.95221e-08
-1.6198e-07
1.76873e-08
-1.67638e-07
1.54875e-08
-1.72343e-07
1.28701e-08
-1.75924e-07
9.7819e-09
-1.78189e-07
6.17113e-09
-1.78932e-07
1.99235e-09
-1.77933e-07
-2.78801e-09
-1.74966e-07
-8.18406e-09
-1.69811e-07
-1.41812e-08
-1.62268e-07
-2.07259e-08
-1.52171e-07
-2.77148e-08
-1.39418e-07
-3.49861e-08
-1.23985e-07
-4.23143e-08
-1.05955e-07
-4.94128e-08
-8.55328e-08
-5.59459e-08
-7.57971e-08
-2.66648e-08
-6.56934e-08
-2.76691e-08
-5.52643e-08
-2.85572e-08
-4.45566e-08
-2.93171e-08
-3.36213e-08
-2.99385e-08
-2.25121e-08
-3.04126e-08
-1.12856e-08
-3.07326e-08
-2.03834e-17
-3.08938e-08
1.12856e-08
-3.08938e-08
2.25121e-08
-3.07326e-08
3.36213e-08
-3.04126e-08
4.45566e-08
-2.99385e-08
5.52643e-08
-2.93171e-08
6.56934e-08
-2.85572e-08
7.57971e-08
-2.76691e-08
8.55328e-08
-2.66648e-08
1.05955e-07
-5.59459e-08
1.23985e-07
-4.94128e-08
1.39418e-07
-4.23143e-08
1.52171e-07
-3.49861e-08
1.62268e-07
-2.77148e-08
1.69811e-07
-2.07259e-08
1.74966e-07
-1.41812e-08
1.77933e-07
-8.18406e-09
1.78932e-07
-2.78801e-09
1.78189e-07
1.99235e-09
1.75924e-07
6.17113e-09
1.72343e-07
9.7819e-09
1.67638e-07
1.28701e-08
1.6198e-07
1.54875e-08
1.55521e-07
1.76873e-08
1.48395e-07
1.95221e-08
1.40717e-07
2.10412e-08
1.32584e-07
2.22902e-08
1.24081e-07
2.33099e-08
1.15277e-07
2.41366e-08
1.06231e-07
2.4802e-08
9.69921e-08
2.53336e-08
8.76001e-08
2.57548e-08
7.8088e-08
2.60857e-08
6.84824e-08
2.63432e-08
5.8805e-08
2.65413e-08
4.9073e-08
2.66916e-08
3.93004e-08
2.68035e-08
2.94984e-08
2.68846e-08
1.96761e-08
2.69405e-08
9.8411e-09
2.69756e-08
2.69924e-08
-1.07951e-08
3.77876e-08
-2.15836e-08
3.77641e-08
-3.23584e-08
3.77153e-08
-4.31112e-08
3.76374e-08
-5.38322e-08
3.75244e-08
-6.45091e-08
3.73685e-08
-7.51269e-08
3.7159e-08
-8.56666e-08
3.68829e-08
-9.61048e-08
3.65239e-08
-1.06412e-07
3.60623e-08
-1.16553e-07
3.54746e-08
-1.26484e-07
3.47329e-08
-1.36152e-07
3.38041e-08
-1.45492e-07
3.265e-08
-1.54428e-07
3.12261e-08
-1.62868e-07
2.94818e-08
-1.70706e-07
2.73597e-08
-1.77815e-07
2.47962e-08
-1.84049e-07
2.17219e-08
-1.89242e-07
1.80633e-08
-1.93206e-07
1.37453e-08
-1.9573e-07
8.69518e-09
-1.96586e-07
2.84876e-09
-1.95532e-07
-3.84173e-09
-1.9232e-07
-1.1397e-08
-1.86703e-07
-1.97976e-08
-1.7846e-07
-2.89695e-08
-1.67405e-07
-3.87692e-08
-1.53421e-07
-4.89704e-08
-1.36478e-07
-5.92574e-08
-1.16663e-07
-6.92277e-08
-9.42001e-08
-7.84089e-08
-8.34857e-08
-3.73792e-08
-7.23633e-08
-3.87916e-08
-6.08798e-08
-4.00407e-08
-4.90872e-08
-4.11097e-08
-3.70417e-08
-4.1984e-08
-2.48032e-08
-4.26511e-08
-1.24344e-08
-4.31014e-08
-2.66176e-17
-4.33282e-08
1.24344e-08
-4.33282e-08
2.48032e-08
-4.31014e-08
3.70417e-08
-4.26511e-08
4.90872e-08
-4.1984e-08
6.08798e-08
-4.11097e-08
7.23633e-08
-4.00407e-08
8.34857e-08
-3.87916e-08
9.42001e-08
-3.73792e-08
1.16663e-07
-7.84089e-08
1.36478e-07
-6.92277e-08
1.53421e-07
-5.92574e-08
1.67405e-07
-4.89704e-08
1.7846e-07
-3.87692e-08
1.86703e-07
-2.89695e-08
1.9232e-07
-1.97976e-08
1.95532e-07
-1.1397e-08
1.96586e-07
-3.84173e-09
1.9573e-07
2.84876e-09
1.93206e-07
8.69518e-09
1.89242e-07
1.37453e-08
1.84049e-07
1.80633e-08
1.77815e-07
2.17219e-08
1.70706e-07
2.47962e-08
1.62868e-07
2.73597e-08
1.54428e-07
2.94818e-08
1.45492e-07
3.12261e-08
1.36152e-07
3.265e-08
1.26484e-07
3.38041e-08
1.16553e-07
3.47329e-08
1.06412e-07
3.54746e-08
9.61048e-08
3.60623e-08
8.56666e-08
3.65239e-08
7.51269e-08
3.68829e-08
6.45091e-08
3.7159e-08
5.38322e-08
3.73685e-08
4.31112e-08
3.75244e-08
3.23584e-08
3.76374e-08
2.15836e-08
3.77153e-08
1.07951e-08
3.77641e-08
3.77876e-08
-1.18423e-08
4.96299e-08
-2.36775e-08
4.95993e-08
-3.54979e-08
4.95358e-08
-4.72948e-08
4.94342e-08
-5.90574e-08
4.9287e-08
-7.07725e-08
4.90837e-08
-8.24239e-08
4.88104e-08
-9.3991e-08
4.845e-08
-1.05448e-07
4.79812e-08
-1.16764e-07
4.73783e-08
-1.279e-07
4.66104e-08
-1.38808e-07
4.56407e-08
-1.4943e-07
4.44263e-08
-1.59697e-07
4.29168e-08
-1.69525e-07
4.10538e-08
-1.78814e-07
3.87709e-08
-1.87447e-07
3.59927e-08
-1.95286e-07
3.26356e-08
-2.02172e-07
2.86083e-08
-2.07923e-07
2.38138e-08
-2.12331e-07
1.8153e-08
-2.15165e-07
1.15295e-08
-2.16174e-07
3.85791e-09
-2.1509e-07
-4.92595e-09
-2.11636e-07
-1.4851e-08
-2.0554e-07
-2.58939e-08
-1.9655e-07
-3.79594e-08
-1.84458e-07
-5.08606e-08
-1.69127e-07
-6.43016e-08
-1.50517e-07
-7.78672e-08
-1.28719e-07
-9.10264e-08
-1.03973e-07
-1.03154e-07
-9.21607e-08
-4.91918e-08
-7.9893e-08
-5.10594e-08
-6.72222e-08
-5.27115e-08
-5.42062e-08
-5.41258e-08
-4.09076e-08
-5.52826e-08
-2.73933e-08
-5.61654e-08
-1.37334e-08
-5.67613e-08
-3.18765e-17
-5.70615e-08
1.37334e-08
-5.70615e-08
2.73933e-08
-5.67613e-08
4.09076e-08
-5.61654e-08
5.42062e-08
-5.52826e-08
6.72222e-08
-5.41258e-08
7.9893e-08
-5.27115e-08
9.21607e-08
-5.10594e-08
1.03973e-07
-4.91918e-08
1.28719e-07
-1.03154e-07
1.50517e-07
-9.10264e-08
1.69127e-07
-7.78672e-08
1.84458e-07
-6.43016e-08
1.9655e-07
-5.08606e-08
2.0554e-07
-3.79594e-08
2.11636e-07
-2.58939e-08
2.1509e-07
-1.4851e-08
2.16174e-07
-4.92595e-09
2.15165e-07
3.85791e-09
2.12331e-07
1.15295e-08
2.07923e-07
1.8153e-08
2.02172e-07
2.38138e-08
1.95286e-07
2.86083e-08
1.87447e-07
3.26356e-08
1.78814e-07
3.59927e-08
1.69525e-07
3.87709e-08
1.59697e-07
4.10538e-08
1.4943e-07
4.29168e-08
1.38808e-07
4.44263e-08
1.279e-07
4.56407e-08
1.16764e-07
4.66104e-08
1.05448e-07
4.73783e-08
9.3991e-08
4.79812e-08
8.24239e-08
4.845e-08
7.07725e-08
4.88104e-08
5.90574e-08
4.90837e-08
4.72948e-08
4.9287e-08
3.54979e-08
4.94342e-08
2.36775e-08
4.95358e-08
1.18423e-08
4.95993e-08
4.96299e-08
-1.2992e-08
6.26218e-08
-2.59764e-08
6.25837e-08
-3.89451e-08
6.25045e-08
-5.18887e-08
6.23778e-08
-6.47958e-08
6.21941e-08
-7.76523e-08
6.19401e-08
-9.04404e-08
6.15986e-08
-1.03138e-07
6.11479e-08
-1.15718e-07
6.05612e-08
-1.28146e-07
5.98064e-08
-1.4038e-07
5.88444e-08
-1.52369e-07
5.76291e-08
-1.64049e-07
5.61064e-08
-1.75345e-07
5.42128e-08
-1.86166e-07
5.18748e-08
-1.96404e-07
4.90087e-08
-2.0593e-07
4.55193e-08
-2.14595e-07
4.13008e-08
-2.22225e-07
3.62378e-08
-2.28619e-07
3.02073e-08
-2.33549e-07
2.30832e-08
-2.36762e-07
1.47425e-08
-2.37979e-07
5.07547e-09
-2.36904e-07
-6.00158e-09
-2.33227e-07
-1.85283e-08
-2.26642e-07
-3.24787e-08
-2.16865e-07
-4.77365e-08
-2.03656e-07
-6.40691e-08
-1.86853e-07
-8.11049e-08
-1.66401e-07
-9.83194e-08
-1.42389e-07
-1.15038e-07
-1.15078e-07
-1.30465e-07
-1.02025e-07
-6.22445e-08
-8.84609e-08
-6.46236e-08
-7.44435e-08
-6.67289e-08
-6.00375e-08
-6.85318e-08
-4.53133e-08
-7.00068e-08
-3.03459e-08
-7.11327e-08
-1.52143e-08
-7.18929e-08
-3.09562e-17
-7.22759e-08
1.52143e-08
-7.22759e-08
3.03459e-08
-7.18929e-08
4.53133e-08
-7.11327e-08
6.00375e-08
-7.00068e-08
7.44435e-08
-6.85318e-08
8.84609e-08
-6.67289e-08
1.02025e-07
-6.46236e-08
1.15078e-07
-6.22445e-08
1.42389e-07
-1.30465e-07
1.66401e-07
-1.15038e-07
1.86853e-07
-9.83194e-08
2.03656e-07
-8.11049e-08
2.16865e-07
-6.40691e-08
2.26642e-07
-4.77365e-08
2.33227e-07
-3.24787e-08
2.36904e-07
-1.85283e-08
2.37979e-07
-6.00158e-09
2.36762e-07
5.07547e-09
2.33549e-07
1.47425e-08
2.28619e-07
2.30832e-08
2.22225e-07
3.02073e-08
2.14595e-07
3.62378e-08
2.0593e-07
4.13008e-08
1.96404e-07
4.55193e-08
1.86166e-07
4.90087e-08
1.75345e-07
5.18748e-08
1.64049e-07
5.42128e-08
1.52369e-07
5.61064e-08
1.4038e-07
5.76291e-08
1.28146e-07
5.88444e-08
1.15718e-07
5.98064e-08
1.03138e-07
6.05612e-08
9.04404e-08
6.11479e-08
7.76523e-08
6.15986e-08
6.47958e-08
6.19401e-08
5.18887e-08
6.21941e-08
3.89451e-08
6.23778e-08
2.59764e-08
6.25045e-08
1.2992e-08
6.25837e-08
6.26218e-08
-1.42545e-08
7.68763e-08
-2.85011e-08
7.68303e-08
-4.27312e-08
7.67346e-08
-5.69349e-08
7.65815e-08
-7.11001e-08
7.63593e-08
-8.52118e-08
7.60518e-08
-9.92513e-08
7.5638e-08
-1.13195e-07
7.50915e-08
-1.27013e-07
7.43795e-08
-1.40669e-07
7.34626e-08
-1.54118e-07
7.22932e-08
-1.67304e-07
7.08151e-08
-1.8016e-07
6.89618e-08
-1.92603e-07
6.66557e-08
-2.04535e-07
6.38069e-08
-2.15838e-07
6.03124e-08
-2.26374e-07
5.60555e-08
-2.3598e-07
5.09061e-08
-2.44464e-07
4.47219e-08
-2.51607e-07
3.73509e-08
-2.57161e-07
2.86365e-08
-2.60844e-07
1.84255e-08
-2.62348e-07
6.57973e-09
-2.61342e-07
-7.00779e-09
-2.57479e-07
-2.23911e-08
-2.50413e-07
-3.95445e-08
-2.39818e-07
-5.83316e-08
-2.25415e-07
-7.84723e-08
-2.07006e-07
-9.95137e-08
-1.84514e-07
-1.20811e-07
-1.58022e-07
-1.4153e-07
-1.27809e-07
-1.60678e-07
-1.13346e-07
-7.67081e-08
-9.83022e-08
-7.9667e-08
-8.27442e-08
-8.22868e-08
-6.67447e-08
-8.45313e-08
-5.03832e-08
-8.63684e-08
-3.37449e-08
-8.7771e-08
-1.69196e-08
-8.87182e-08
-2.60244e-17
-8.91955e-08
1.69196e-08
-8.91955e-08
3.37449e-08
-8.87182e-08
5.03832e-08
-8.7771e-08
6.67447e-08
-8.63684e-08
8.27442e-08
-8.45313e-08
9.83022e-08
-8.22868e-08
1.13346e-07
-7.9667e-08
1.27809e-07
-7.67081e-08
1.58022e-07
-1.60678e-07
1.84514e-07
-1.4153e-07
2.07006e-07
-1.20811e-07
2.25415e-07
-9.95137e-08
2.39818e-07
-7.84723e-08
2.50413e-07
-5.83316e-08
2.57479e-07
-3.95445e-08
2.61342e-07
-2.23911e-08
2.62348e-07
-7.00779e-09
2.60844e-07
6.57973e-09
2.57161e-07
1.84255e-08
2.51607e-07
2.86365e-08
2.44464e-07
3.73509e-08
2.3598e-07
4.47219e-08
2.26374e-07
5.09061e-08
2.15838e-07
5.60555e-08
2.04535e-07
6.03124e-08
1.92603e-07
6.38069e-08
1.8016e-07
6.66557e-08
1.67304e-07
6.89618e-08
1.54118e-07
7.08151e-08
1.40669e-07
7.22932e-08
1.27013e-07
7.34626e-08
1.13195e-07
7.43795e-08
9.92513e-08
7.50915e-08
8.52118e-08
7.5638e-08
7.11001e-08
7.60518e-08
5.69349e-08
7.63593e-08
4.27312e-08
7.65815e-08
2.85011e-08
7.67346e-08
1.42545e-08
7.68303e-08
7.68763e-08
-1.56413e-08
9.25176e-08
-3.12745e-08
9.24635e-08
-4.68907e-08
9.23508e-08
-6.24796e-08
9.21704e-08
-7.80286e-08
9.19084e-08
-9.35221e-08
9.15452e-08
-1.0894e-07
9.1056e-08
-1.24258e-07
9.0409e-08
-1.39443e-07
8.95652e-08
-1.54458e-07
8.84774e-08
-1.69254e-07
8.70888e-08
-1.8377e-07
8.53319e-08
-1.97936e-07
8.31272e-08
-2.11662e-07
8.03816e-08
-2.24842e-07
7.69872e-08
-2.3735e-07
7.28203e-08
-2.49035e-07
6.77404e-08
-2.59719e-07
6.15906e-08
-2.69196e-07
5.41984e-08
-2.77224e-07
4.53796e-08
-2.83531e-07
3.4943e-08
-2.87806e-07
2.27006e-08
-2.89707e-07
8.48051e-09
-2.88862e-07
-7.85279e-09
-2.8488e-07
-2.6373e-08
-2.77365e-07
-4.70593e-08
-2.65939e-07
-6.97577e-08
-2.50271e-07
-9.41404e-08
-2.30117e-07
-1.19668e-07
-2.05364e-07
-1.45564e-07
-1.76081e-07
-1.70813e-07
-1.4256e-07
-1.94199e-07
-1.26478e-07
-9.27906e-08
-1.09731e-07
-9.64143e-08
-9.23926e-08
-9.96249e-08
-7.45468e-08
-1.02377e-07
-5.62843e-08
-1.04631e-07
-3.77029e-08
-1.06352e-07
-1.89058e-08
-1.07515e-07
-2.72109e-17
-1.08101e-07
1.89058e-08
-1.08101e-07
3.77029e-08
-1.07515e-07
5.62843e-08
-1.06352e-07
7.45468e-08
-1.04631e-07
9.23926e-08
-1.02377e-07
1.09731e-07
-9.96249e-08
1.26478e-07
-9.64143e-08
1.4256e-07
-9.27906e-08
1.76081e-07
-1.94199e-07
2.05364e-07
-1.70813e-07
2.30117e-07
-1.45564e-07
2.50271e-07
-1.19668e-07
2.65939e-07
-9.41404e-08
2.77365e-07
-6.97577e-08
2.8488e-07
-4.70593e-08
2.88862e-07
-2.6373e-08
2.89707e-07
-7.85279e-09
2.87806e-07
8.48051e-09
2.83531e-07
2.27006e-08
2.77224e-07
3.4943e-08
2.69196e-07
4.53796e-08
2.59719e-07
5.41984e-08
2.49035e-07
6.15906e-08
2.3735e-07
6.77404e-08
2.24842e-07
7.28203e-08
2.11662e-07
7.69872e-08
1.97936e-07
8.03816e-08
1.8377e-07
8.31272e-08
1.69254e-07
8.53319e-08
1.54458e-07
8.70888e-08
1.39443e-07
8.84774e-08
1.24258e-07
8.95652e-08
1.0894e-07
9.0409e-08
9.35221e-08
9.1056e-08
7.80286e-08
9.15452e-08
6.24796e-08
9.19084e-08
4.68907e-08
9.21704e-08
3.12745e-08
9.23508e-08
1.56413e-08
9.24635e-08
9.25176e-08
-1.71651e-08
1.09683e-07
-3.43221e-08
1.0962e-07
-5.14621e-08
1.09491e-07
-6.85746e-08
1.09283e-07
-8.56467e-08
1.0898e-07
-1.02662e-07
1.08561e-07
-1.196e-07
1.07994e-07
-1.36435e-07
1.07244e-07
-1.53133e-07
1.06264e-07
-1.69654e-07
1.04998e-07
-1.85946e-07
1.03381e-07
-2.01946e-07
1.01332e-07
-2.17577e-07
9.87578e-08
-2.32744e-07
9.55489e-08
-2.47334e-07
9.15776e-08
-2.61212e-07
8.66976e-08
-2.74213e-07
8.07422e-08
-2.86147e-07
7.35247e-08
-2.96789e-07
6.48397e-08
-3.05875e-07
5.44659e-08
-3.13105e-07
4.21731e-08
-3.18137e-07
2.77322e-08
-3.20588e-07
1.09315e-08
-3.2004e-07
-8.40065e-09
-3.16048e-07
-3.03652e-08
-3.08154e-07
-5.49529e-08
-2.95914e-07
-8.19982e-08
-2.78927e-07
-1.11127e-07
-2.56885e-07
-1.4171e-07
-2.29623e-07
-1.72826e-07
-1.97182e-07
-2.03254e-07
-1.59862e-07
-2.31518e-07
-1.41903e-07
-1.1075e-07
-1.23172e-07
-1.15146e-07
-1.03753e-07
-1.19044e-07
-8.37418e-08
-1.22388e-07
-6.32441e-08
-1.25129e-07
-4.23735e-08
-1.27223e-07
-2.12505e-08
-1.28638e-07
-3.71881e-17
-1.29352e-07
2.12505e-08
-1.29352e-07
4.23735e-08
-1.28638e-07
6.32441e-08
-1.27223e-07
8.37418e-08
-1.25129e-07
1.03753e-07
-1.22388e-07
1.23172e-07
-1.19044e-07
1.41903e-07
-1.15146e-07
1.59862e-07
-1.1075e-07
1.97182e-07
-2.31518e-07
2.29623e-07
-2.03254e-07
2.56885e-07
-1.72826e-07
2.78927e-07
-1.4171e-07
2.95914e-07
-1.11127e-07
3.08154e-07
-8.19982e-08
3.16048e-07
-5.49529e-08
3.2004e-07
-3.03652e-08
3.20588e-07
-8.40065e-09
3.18137e-07
1.09315e-08
3.13105e-07
2.77322e-08
3.05875e-07
4.21731e-08
2.96789e-07
5.44659e-08
2.86147e-07
6.48397e-08
2.74213e-07
7.35247e-08
2.61212e-07
8.07422e-08
2.47334e-07
8.66976e-08
2.32744e-07
9.15776e-08
2.17577e-07
9.55489e-08
2.01946e-07
9.87578e-08
1.85946e-07
1.01332e-07
1.69654e-07
1.03381e-07
1.53133e-07
1.04998e-07
1.36435e-07
1.06264e-07
1.196e-07
1.07244e-07
1.02662e-07
1.07994e-07
8.56467e-08
1.08561e-07
6.85746e-08
1.0898e-07
5.14621e-08
1.09283e-07
3.43221e-08
1.09491e-07
1.71651e-08
1.0962e-07
1.09683e-07
-1.88401e-08
1.28523e-07
-3.76724e-08
1.28453e-07
-5.64883e-08
1.28307e-07
-7.52774e-08
1.28072e-07
-9.40269e-08
1.2773e-07
-1.1272e-07
1.27254e-07
-1.31337e-07
1.26611e-07
-1.4985e-07
1.25756e-07
-1.68224e-07
1.24638e-07
-1.86418e-07
1.23192e-07
-2.04377e-07
1.2134e-07
-2.22036e-07
1.1899e-07
-2.39312e-07
1.16034e-07
-2.56107e-07
1.12344e-07
-2.723e-07
1.0777e-07
-2.87745e-07
1.02143e-07
-3.02268e-07
9.52659e-08
-3.15664e-07
8.69204e-08
-3.27688e-07
7.68634e-08
-3.38054e-07
6.48321e-08
-3.46432e-07
5.0551e-08
-3.52443e-07
3.37429e-08
-3.55659e-07
1.41475e-08
-3.55606e-07
-8.45284e-09
-3.51775e-07
-3.4197e-08
-3.43629e-07
-6.30987e-08
-3.30638e-07
-9.49894e-08
-3.12309e-07
-1.29456e-07
-2.88244e-07
-1.65775e-07
-2.58199e-07
-2.0287e-07
-2.22166e-07
-2.39288e-07
-1.8044e-07
-2.73244e-07
-1.60281e-07
-1.30909e-07
-1.39211e-07
-1.36216e-07
-1.17328e-07
-1.40927e-07
-9.47422e-08
-1.44974e-07
-7.1578e-08
-1.48293e-07
-4.79699e-08
-1.50831e-07
-2.40609e-08
-1.52547e-07
-3.20924e-17
-1.53413e-07
2.40609e-08
-1.53413e-07
4.79699e-08
-1.52547e-07
7.1578e-08
-1.50831e-07
9.47422e-08
-1.48293e-07
1.17328e-07
-1.44974e-07
1.39211e-07
-1.40927e-07
1.60281e-07
-1.36216e-07
1.8044e-07
-1.30909e-07
2.22166e-07
-2.73244e-07
2.58199e-07
-2.39288e-07
2.88244e-07
-2.0287e-07
3.12309e-07
-1.65775e-07
3.30638e-07
-1.29456e-07
3.43629e-07
-9.49894e-08
3.51775e-07
-6.30987e-08
3.55606e-07
-3.4197e-08
3.55659e-07
-8.45284e-09
3.52443e-07
1.41475e-08
3.46432e-07
3.37429e-08
3.38054e-07
5.0551e-08
3.27688e-07
6.48321e-08
3.15664e-07
7.68634e-08
3.02268e-07
8.69204e-08
2.87745e-07
9.52659e-08
2.723e-07
1.02143e-07
2.56107e-07
1.0777e-07
2.39312e-07
1.12344e-07
2.22036e-07
1.16034e-07
2.04377e-07
1.1899e-07
1.86418e-07
1.2134e-07
1.68224e-07
1.23192e-07
1.4985e-07
1.24638e-07
1.31337e-07
1.25756e-07
1.1272e-07
1.26611e-07
9.40269e-08
1.27254e-07
7.52774e-08
1.2773e-07
5.64883e-08
1.28072e-07
3.76724e-08
1.28307e-07
1.88401e-08
1.28453e-07
1.28523e-07
-2.06819e-08
1.49205e-07
-4.13567e-08
1.49128e-07
-6.20166e-08
1.48967e-07
-8.26519e-08
1.48707e-07
-1.0325e-07
1.48328e-07
-1.23796e-07
1.478e-07
-1.44268e-07
1.47083e-07
-1.64639e-07
1.46128e-07
-1.84875e-07
1.44874e-07
-2.04932e-07
1.43249e-07
-2.24755e-07
1.41163e-07
-2.44276e-07
1.38511e-07
-2.63409e-07
1.35168e-07
-2.82052e-07
1.30986e-07
-3.00076e-07
1.25795e-07
-3.1733e-07
1.19396e-07
-3.33628e-07
1.11564e-07
-3.4875e-07
1.02042e-07
-3.62433e-07
9.05463e-08
-3.74367e-07
7.67662e-08
-3.8419e-07
6.03737e-08
-3.91482e-07
4.10346e-08
-3.95763e-07
1.84285e-08
-3.96494e-07
-7.72168e-09
-3.93083e-07
-3.76081e-08
-3.84898e-07
-7.12835e-08
-3.71295e-07
-1.08593e-07
-3.51656e-07
-1.49094e-07
-3.25455e-07
-1.91977e-07
-2.92332e-07
-2.35993e-07
-2.52192e-07
-2.79428e-07
-2.05308e-07
-3.20129e-07
-1.82537e-07
-1.53679e-07
-1.58672e-07
-1.60081e-07
-1.33825e-07
-1.65774e-07
-1.08129e-07
-1.7067e-07
-8.17311e-08
-1.74691e-07
-5.47933e-08
-1.77769e-07
-2.74892e-08
-1.79851e-07
-1.03033e-17
-1.80902e-07
2.74892e-08
-1.80902e-07
5.47933e-08
-1.79851e-07
8.17311e-08
-1.77769e-07
1.08129e-07
-1.74691e-07
1.33825e-07
-1.7067e-07
1.58672e-07
-1.65774e-07
1.82537e-07
-1.60081e-07
2.05308e-07
-1.53679e-07
2.52192e-07
-3.20129e-07
2.92332e-07
-2.79428e-07
3.25455e-07
-2.35993e-07
3.51656e-07
-1.91977e-07
3.71295e-07
-1.49094e-07
3.84898e-07
-1.08593e-07
3.93083e-07
-7.12835e-08
3.96494e-07
-3.76081e-08
3.95763e-07
-7.72168e-09
3.91482e-07
1.84285e-08
3.8419e-07
4.10346e-08
3.74367e-07
6.03737e-08
3.62433e-07
7.67662e-08
3.4875e-07
9.05463e-08
3.33628e-07
1.02042e-07
3.1733e-07
1.11564e-07
3.00076e-07
1.19396e-07
2.82052e-07
1.25795e-07
2.63409e-07
1.30986e-07
2.44276e-07
1.35168e-07
2.24755e-07
1.38511e-07
2.04932e-07
1.41163e-07
1.84875e-07
1.43249e-07
1.64639e-07
1.44874e-07
1.44268e-07
1.46128e-07
1.23796e-07
1.47083e-07
1.0325e-07
1.478e-07
8.26519e-08
1.48328e-07
6.20166e-08
1.48707e-07
4.13567e-08
1.48967e-07
2.06819e-08
1.49128e-07
1.49205e-07
-2.27076e-08
1.71912e-07
-4.54096e-08
1.7183e-07
-6.80995e-08
1.71656e-07
-9.0769e-08
1.71377e-07
-1.13407e-07
1.70967e-07
-1.35999e-07
1.70392e-07
-1.58525e-07
1.69608e-07
-1.80958e-07
1.68561e-07
-2.03266e-07
1.67182e-07
-2.25404e-07
1.65387e-07
-2.47317e-07
1.63076e-07
-2.68937e-07
1.6013e-07
-2.90175e-07
1.56406e-07
-3.10927e-07
1.51738e-07
-3.31062e-07
1.45929e-07
-3.50419e-07
1.38753e-07
-3.68805e-07
1.2995e-07
-3.85986e-07
1.19224e-07
-4.01683e-07
1.06243e-07
-4.15561e-07
9.0644e-08
-4.27224e-07
7.20366e-08
-4.36207e-07
5.0018e-08
-4.41972e-07
2.41931e-08
-4.43901e-07
-5.79255e-09
-4.41303e-07
-4.02063e-08
-4.33422e-07
-7.91645e-08
-4.19464e-07
-1.2255e-07
-3.98643e-07
-1.69915e-07
-3.70247e-07
-2.20372e-07
-3.33741e-07
-2.72499e-07
-2.8889e-07
-3.24278e-07
-2.35901e-07
-3.73117e-07
-2.09988e-07
-1.79593e-07
-1.8273e-07
-1.87339e-07
-1.54261e-07
-1.94243e-07
-1.2474e-07
-2.00192e-07
-9.43457e-08
-2.05085e-07
-6.32793e-08
-2.08835e-07
-3.17554e-08
-2.11375e-07
-1.27862e-17
-2.12657e-07
3.17554e-08
-2.12657e-07
6.32793e-08
-2.11375e-07
9.43457e-08
-2.08835e-07
1.2474e-07
-2.05085e-07
1.54261e-07
-2.00192e-07
1.8273e-07
-1.94243e-07
2.09988e-07
-1.87339e-07
2.35901e-07
-1.79593e-07
2.8889e-07
-3.73117e-07
3.33741e-07
-3.24278e-07
3.70247e-07
-2.72499e-07
3.98643e-07
-2.20372e-07
4.19464e-07
-1.69915e-07
4.33422e-07
-1.2255e-07
4.41303e-07
-7.91645e-08
4.43901e-07
-4.02063e-08
4.41972e-07
-5.79255e-09
4.36207e-07
2.41931e-08
4.27224e-07
5.0018e-08
4.15561e-07
7.20366e-08
4.01683e-07
9.0644e-08
3.85986e-07
1.06243e-07
3.68805e-07
1.19224e-07
3.50419e-07
1.2995e-07
3.31062e-07
1.38753e-07
3.10927e-07
1.45929e-07
2.90175e-07
1.51738e-07
2.68937e-07
1.56406e-07
2.47317e-07
1.6013e-07
2.25404e-07
1.63076e-07
2.03266e-07
1.65387e-07
1.80958e-07
1.67182e-07
1.58525e-07
1.68561e-07
1.35999e-07
1.69608e-07
1.13407e-07
1.70392e-07
9.0769e-08
1.70967e-07
6.80995e-08
1.71377e-07
4.54096e-08
1.71656e-07
2.27076e-08
1.7183e-07
1.71912e-07
-2.49363e-08
1.96849e-07
-4.98692e-08
1.96763e-07
-7.47947e-08
1.96582e-07
-9.97066e-08
1.96289e-07
-1.24596e-07
1.95856e-07
-1.49451e-07
1.95247e-07
-1.74254e-07
1.94411e-07
-1.9898e-07
1.93288e-07
-2.23599e-07
1.918e-07
-2.48068e-07
1.89856e-07
-2.72333e-07
1.87342e-07
-2.96328e-07
1.84125e-07
-3.19966e-07
1.80045e-07
-3.43141e-07
1.74913e-07
-3.65721e-07
1.68509e-07
-3.87543e-07
1.60575e-07
-4.08407e-07
1.50815e-07
-4.28071e-07
1.38887e-07
-4.46238e-07
1.2441e-07
-4.62551e-07
1.06957e-07
-4.76581e-07
8.60667e-08
-4.87816e-07
6.12525e-08
-4.95649e-07
3.2026e-08
-4.99372e-07
-2.06948e-09
-4.98171e-07
-4.14068e-08
-4.91134e-07
-8.62017e-08
-4.77269e-07
-1.36415e-07
-4.55554e-07
-1.9163e-07
-4.25015e-07
-2.50912e-07
-3.84848e-07
-3.12666e-07
-3.34587e-07
-3.74539e-07
-2.74304e-07
-4.334e-07
-2.44553e-07
-2.09343e-07
-2.13108e-07
-2.18784e-07
-1.80128e-07
-2.27222e-07
-1.45808e-07
-2.34512e-07
-1.10372e-07
-2.40521e-07
-7.4073e-08
-2.45134e-07
-3.71856e-08
-2.48263e-07
-3.91317e-17
-2.49843e-07
3.71856e-08
-2.49843e-07
7.4073e-08
-2.48263e-07
1.10372e-07
-2.45134e-07
1.45808e-07
-2.40521e-07
1.80128e-07
-2.34512e-07
2.13108e-07
-2.27222e-07
2.44553e-07
-2.18784e-07
2.74304e-07
-2.09343e-07
3.34587e-07
-4.334e-07
3.84848e-07
-3.74539e-07
4.25015e-07
-3.12666e-07
4.55554e-07
-2.50912e-07
4.77269e-07
-1.9163e-07
4.91134e-07
-1.36415e-07
4.98171e-07
-8.62017e-08
4.99372e-07
-4.14068e-08
4.95649e-07
-2.06948e-09
4.87816e-07
3.2026e-08
4.76581e-07
6.12525e-08
4.62551e-07
8.60667e-08
4.46238e-07
1.06957e-07
4.28071e-07
1.2441e-07
4.08407e-07
1.38887e-07
3.87543e-07
1.50815e-07
3.65721e-07
1.60575e-07
3.43141e-07
1.68509e-07
3.19966e-07
1.74913e-07
2.96328e-07
1.80045e-07
2.72333e-07
1.84125e-07
2.48068e-07
1.87342e-07
2.23599e-07
1.89856e-07
1.9898e-07
1.918e-07
1.74254e-07
1.93288e-07
1.49451e-07
1.94411e-07
1.24596e-07
1.95247e-07
9.97066e-08
1.95856e-07
7.47947e-08
1.96289e-07
4.98692e-08
1.96582e-07
2.49363e-08
1.96763e-07
1.96849e-07
-2.73883e-08
2.24237e-07
-5.47767e-08
2.24151e-07
-8.21646e-08
2.2397e-07
-1.0955e-07
2.23674e-07
-1.36927e-07
2.23233e-07
-1.64287e-07
2.22607e-07
-1.91617e-07
2.21741e-07
-2.18896e-07
2.20567e-07
-2.46098e-07
2.19002e-07
-2.73184e-07
2.16942e-07
-3.00107e-07
2.14265e-07
-3.26801e-07
2.1082e-07
-3.53187e-07
2.06431e-07
-3.79162e-07
2.00887e-07
-4.04596e-07
1.93943e-07
-4.29328e-07
1.85308e-07
-4.53159e-07
1.74645e-07
-4.7584e-07
1.61568e-07
-4.97065e-07
1.45635e-07
-5.16459e-07
1.26351e-07
-5.33561e-07
1.03169e-07
-5.47809e-07
7.55015e-08
-5.58527e-07
4.27432e-08
-5.64899e-07
4.30277e-09
-5.65965e-07
-4.03405e-08
-5.60612e-07
-9.15545e-08
-5.47589e-07
-1.49439e-07
-5.25547e-07
-2.13672e-07
-4.93131e-07
-2.83328e-07
-4.49126e-07
-3.56671e-07
-3.92684e-07
-4.30981e-07
-3.23608e-07
-5.02475e-07
-2.89101e-07
-2.43851e-07
-2.52394e-07
-2.55491e-07
-2.13682e-07
-2.65934e-07
-1.73207e-07
-2.74987e-07
-1.31257e-07
-2.82471e-07
-8.816e-08
-2.88231e-07
-4.42791e-08
-2.92144e-07
-5.63699e-17
-2.94122e-07
4.42791e-08
-2.94122e-07
8.816e-08
-2.92144e-07
1.31257e-07
-2.88231e-07
1.73207e-07
-2.82471e-07
2.13682e-07
-2.74987e-07
2.52394e-07
-2.65934e-07
2.89101e-07
-2.55491e-07
3.23608e-07
-2.43851e-07
3.92684e-07
-5.02475e-07
4.49126e-07
-4.30981e-07
4.93131e-07
-3.56671e-07
5.25547e-07
-2.83328e-07
5.47589e-07
-2.13672e-07
5.60612e-07
-1.49439e-07
5.65965e-07
-9.15545e-08
5.64899e-07
-4.03405e-08
5.58527e-07
4.30277e-09
5.47809e-07
4.27432e-08
5.33561e-07
7.55015e-08
5.16459e-07
1.03169e-07
4.97065e-07
1.26351e-07
4.7584e-07
1.45635e-07
4.53159e-07
1.61568e-07
4.29328e-07
1.74645e-07
4.04596e-07
1.85308e-07
3.79162e-07
1.93943e-07
3.53187e-07
2.00887e-07
3.26801e-07
2.06431e-07
3.00107e-07
2.1082e-07
2.73184e-07
2.14265e-07
2.46098e-07
2.16942e-07
2.18896e-07
2.19002e-07
1.91617e-07
2.20567e-07
1.64287e-07
2.21741e-07
1.36927e-07
2.22607e-07
1.0955e-07
2.23233e-07
8.21646e-08
2.23674e-07
5.47767e-08
2.2397e-07
2.73883e-08
2.24151e-07
2.24237e-07
-3.00852e-08
2.54322e-07
-6.01756e-08
2.54241e-07
-9.02757e-08
2.5407e-07
-1.20388e-07
2.53786e-07
-1.50514e-07
2.53359e-07
-1.80649e-07
2.52742e-07
-2.10786e-07
2.51878e-07
-2.40913e-07
2.50694e-07
-2.71008e-07
2.49097e-07
-3.01042e-07
2.46976e-07
-3.30974e-07
2.44197e-07
-3.60749e-07
2.40595e-07
-3.90296e-07
2.35978e-07
-4.19522e-07
2.30113e-07
-4.48307e-07
2.22728e-07
-4.76499e-07
2.13499e-07
-5.03905e-07
2.02051e-07
-5.30282e-07
1.87945e-07
-5.55323e-07
1.70676e-07
-5.78642e-07
1.4967e-07
-5.99755e-07
1.24282e-07
-6.18058e-07
9.38042e-08
-6.32798e-07
5.74829e-08
-6.43045e-07
1.45502e-08
-6.47666e-07
-3.57197e-08
-6.45299e-07
-9.39218e-08
-6.34349e-07
-1.60388e-07
-6.13021e-07
-2.35e-07
-5.79403e-07
-3.16946e-07
-5.31646e-07
-4.04428e-07
-4.68259e-07
-4.94368e-07
-3.88535e-07
-5.82199e-07
-3.48045e-07
-2.84341e-07
-3.04604e-07
-2.98932e-07
-2.58446e-07
-3.12092e-07
-2.09879e-07
-3.23554e-07
-1.59283e-07
-3.33068e-07
-1.071e-07
-3.40414e-07
-5.38273e-08
-3.45416e-07
-3.6203e-17
-3.47949e-07
5.38273e-08
-3.47949e-07
1.071e-07
-3.45416e-07
1.59283e-07
-3.40414e-07
2.09879e-07
-3.33068e-07
2.58446e-07
-3.23554e-07
3.04604e-07
-3.12092e-07
3.48045e-07
-2.98932e-07
3.88535e-07
-2.84341e-07
4.68259e-07
-5.82199e-07
5.31646e-07
-4.94368e-07
5.79403e-07
-4.04428e-07
6.13021e-07
-3.16946e-07
6.34349e-07
-2.35e-07
6.45299e-07
-1.60388e-07
6.47666e-07
-9.39218e-08
6.43045e-07
-3.57197e-08
6.32798e-07
1.45502e-08
6.18058e-07
5.74829e-08
5.99755e-07
9.38042e-08
5.78642e-07
1.24282e-07
5.55323e-07
1.4967e-07
5.30282e-07
1.70676e-07
5.03905e-07
1.87945e-07
4.76499e-07
2.02051e-07
4.48307e-07
2.13499e-07
4.19522e-07
2.22728e-07
3.90296e-07
2.30113e-07
3.60749e-07
2.35978e-07
3.30974e-07
2.40595e-07
3.01042e-07
2.44197e-07
2.71008e-07
2.46976e-07
2.40913e-07
2.49097e-07
2.10786e-07
2.50694e-07