/*--------------------------------*- C++ -*----------------------------------*\
  =========                 |
  \\      /  F ield         | OpenFOAM: The Open Source CFD Toolbox
   \\    /   O peration     | Website:  https://openfoam.org
    \\  /    A nd           | Version:  10
     \\/     M anipulation  |
\*---------------------------------------------------------------------------*/
FoamFile
{
    format      ascii;
    class       volVectorField;
    location    "5400";
    object      Ua;
}
// * * * * * * * * * * * * * * * * * * * * * * * * * * * * * * * * * * * * * //

dimensions      [0 1 -1 0 0 0 0];

internalField   nonuniform List<vector> 
6400
(
(-1.43076e-07 2.90829e-08 0)
(-4.29138e-07 2.90646e-08 0)
(-7.14923e-07 2.90267e-08 0)
(-1.00022e-06 2.89661e-08 0)
(-1.28479e-06 2.88783e-08 0)
(-1.56834e-06 2.87571e-08 0)
(-1.85048e-06 2.85945e-08 0)
(-2.13077e-06 2.83803e-08 0)
(-2.40864e-06 2.81018e-08 0)
(-2.68338e-06 2.7744e-08 0)
(-2.95412e-06 2.72887e-08 0)
(-3.21979e-06 2.67143e-08 0)
(-3.4791e-06 2.59954e-08 0)
(-3.73048e-06 2.51023e-08 0)
(-3.97205e-06 2.4001e-08 0)
(-4.20157e-06 2.26523e-08 0)
(-4.41638e-06 2.10122e-08 0)
(-4.61338e-06 1.90317e-08 0)
(-4.78895e-06 1.66577e-08 0)
(-4.93896e-06 1.38337e-08 0)
(-5.05868e-06 1.05025e-08 0)
(-5.14286e-06 6.60867e-09 0)
(-5.18573e-06 2.10371e-09 0)
(-5.18108e-06 -3.04806e-09 0)
(-5.12249e-06 -8.86117e-09 0)
(-5.00353e-06 -1.53192e-08 0)
(-4.81815e-06 -2.23636e-08 0)
(-4.56112e-06 -2.98824e-08 0)
(-4.22864e-06 -3.7701e-08 0)
(-3.81895e-06 -4.55766e-08 0)
(-3.333e-06 -5.32012e-08 0)
(-2.77504e-06 -6.02149e-08 0)
(-2.33765e-06 -6.45608e-08 0)
(-2.05002e-06 -6.69851e-08 0)
(-1.75241e-06 -6.91284e-08 0)
(-1.44611e-06 -7.09623e-08 0)
(-1.13251e-06 -7.24617e-08 0)
(-8.13138e-07 -7.36056e-08 0)
(-4.89576e-07 -7.43775e-08 0)
(-1.63475e-07 -7.47663e-08 0)
(1.63475e-07 -7.47663e-08 0)
(4.89576e-07 -7.43775e-08 0)
(8.13138e-07 -7.36056e-08 0)
(1.13251e-06 -7.24617e-08 0)
(1.44611e-06 -7.09623e-08 0)
(1.75241e-06 -6.91284e-08 0)
(2.05002e-06 -6.69851e-08 0)
(2.33765e-06 -6.45608e-08 0)
(2.77504e-06 -6.02149e-08 0)
(3.333e-06 -5.32012e-08 0)
(3.81895e-06 -4.55766e-08 0)
(4.22864e-06 -3.7701e-08 0)
(4.56112e-06 -2.98824e-08 0)
(4.81815e-06 -2.23636e-08 0)
(5.00353e-06 -1.53192e-08 0)
(5.12249e-06 -8.86117e-09 0)
(5.18108e-06 -3.04806e-09 0)
(5.18573e-06 2.10371e-09 0)
(5.14286e-06 6.60867e-09 0)
(5.05868e-06 1.05025e-08 0)
(4.93896e-06 1.38337e-08 0)
(4.78895e-06 1.66577e-08 0)
(4.61338e-06 1.90317e-08 0)
(4.41638e-06 2.10122e-08 0)
(4.20157e-06 2.26523e-08 0)
(3.97205e-06 2.4001e-08 0)
(3.73048e-06 2.51023e-08 0)
(3.4791e-06 2.59954e-08 0)
(3.21979e-06 2.67143e-08 0)
(2.95412e-06 2.72887e-08 0)
(2.68338e-06 2.7744e-08 0)
(2.40864e-06 2.81018e-08 0)
(2.13077e-06 2.83803e-08 0)
(1.85048e-06 2.85945e-08 0)
(1.56834e-06 2.87571e-08 0)
(1.28479e-06 2.88783e-08 0)
(1.00022e-06 2.89661e-08 0)
(7.14923e-07 2.90267e-08 0)
(4.29138e-07 2.90646e-08 0)
(1.43076e-07 2.90829e-08 0)
(-1.4308e-07 9.00654e-08 0)
(-4.29149e-07 9.0009e-08 0)
(-7.14944e-07 8.98916e-08 0)
(-1.00025e-06 8.97041e-08 0)
(-1.28484e-06 8.94326e-08 0)
(-1.5684e-06 8.90578e-08 0)
(-1.85056e-06 8.85546e-08 0)
(-2.13088e-06 8.78917e-08 0)
(-2.40878e-06 8.70302e-08 0)
(-2.68356e-06 8.59231e-08 0)
(-2.95434e-06 8.45141e-08 0)
(-3.22007e-06 8.27364e-08 0)
(-3.47945e-06 8.05114e-08 0)
(-3.73091e-06 7.77475e-08 0)
(-3.97257e-06 7.43387e-08 0)
(-4.2022e-06 7.01642e-08 0)
(-4.41715e-06 6.50873e-08 0)
(-4.61431e-06 5.89566e-08 0)
(-4.79006e-06 5.16072e-08 0)
(-4.94027e-06 4.28647e-08 0)
(-5.06022e-06 3.25511e-08 0)
(-5.14465e-06 2.04949e-08 0)
(-5.18778e-06 6.54554e-09 0)
(-5.18342e-06 -9.4079e-09 0)
(-5.12511e-06 -2.74108e-08 0)
(-5.00641e-06 -4.74129e-08 0)
(-4.82125e-06 -6.92335e-08 0)
(-4.56439e-06 -9.25264e-08 0)
(-4.23198e-06 -1.16751e-07 0)
(-3.82225e-06 -1.41155e-07 0)
(-3.33612e-06 -1.64784e-07 0)
(-2.77782e-06 -1.86522e-07 0)
(-2.34009e-06 -1.99994e-07 0)
(-2.05221e-06 -2.07509e-07 0)
(-1.75432e-06 -2.14153e-07 0)
(-1.4477e-06 -2.19838e-07 0)
(-1.13378e-06 -2.24487e-07 0)
(-8.14057e-07 -2.28033e-07 0)
(-4.90132e-07 -2.30426e-07 0)
(-1.63662e-07 -2.31632e-07 0)
(1.63662e-07 -2.31632e-07 0)
(4.90132e-07 -2.30426e-07 0)
(8.14057e-07 -2.28033e-07 0)
(1.13378e-06 -2.24487e-07 0)
(1.4477e-06 -2.19838e-07 0)
(1.75432e-06 -2.14153e-07 0)
(2.05221e-06 -2.07509e-07 0)
(2.34009e-06 -1.99994e-07 0)
(2.77782e-06 -1.86522e-07 0)
(3.33612e-06 -1.64784e-07 0)
(3.82225e-06 -1.41155e-07 0)
(4.23198e-06 -1.16751e-07 0)
(4.56439e-06 -9.25264e-08 0)
(4.82125e-06 -6.92335e-08 0)
(5.00641e-06 -4.74129e-08 0)
(5.12511e-06 -2.74108e-08 0)
(5.18342e-06 -9.4079e-09 0)
(5.18778e-06 6.54554e-09 0)
(5.14465e-06 2.04949e-08 0)
(5.06022e-06 3.25511e-08 0)
(4.94027e-06 4.28647e-08 0)
(4.79006e-06 5.16072e-08 0)
(4.61431e-06 5.89566e-08 0)
(4.41715e-06 6.50873e-08 0)
(4.2022e-06 7.01642e-08 0)
(3.97257e-06 7.43387e-08 0)
(3.73091e-06 7.77475e-08 0)
(3.47945e-06 8.05114e-08 0)
(3.22007e-06 8.27364e-08 0)
(2.95434e-06 8.45141e-08 0)
(2.68356e-06 8.59231e-08 0)
(2.40878e-06 8.70302e-08 0)
(2.13088e-06 8.78917e-08 0)
(1.85056e-06 8.85546e-08 0)
(1.5684e-06 8.90578e-08 0)
(1.28484e-06 8.94326e-08 0)
(1.00025e-06 8.97041e-08 0)
(7.14944e-07 8.98916e-08 0)
(4.29149e-07 9.0009e-08 0)
(1.4308e-07 9.00654e-08 0)
(-1.43089e-07 1.56956e-07 0)
(-4.29177e-07 1.56858e-07 0)
(-7.14992e-07 1.56653e-07 0)
(-1.00033e-06 1.56328e-07 0)
(-1.28494e-06 1.55856e-07 0)
(-1.56854e-06 1.55204e-07 0)
(-1.85075e-06 1.54329e-07 0)
(-2.13112e-06 1.53176e-07 0)
(-2.40909e-06 1.51678e-07 0)
(-2.68395e-06 1.49752e-07 0)
(-2.95484e-06 1.473e-07 0)
(-3.2207e-06 1.44207e-07 0)
(-3.48024e-06 1.40335e-07 0)
(-3.73188e-06 1.35525e-07 0)
(-3.97377e-06 1.29592e-07 0)
(-4.20367e-06 1.22325e-07 0)
(-4.41892e-06 1.13487e-07 0)
(-4.61644e-06 1.02813e-07 0)
(-4.79261e-06 9.00161e-08 0)
(-4.94329e-06 7.47915e-08 0)
(-5.06376e-06 5.68287e-08 0)
(-5.14877e-06 3.58281e-08 0)
(-5.19252e-06 1.15258e-08 0)
(-5.18879e-06 -1.62728e-08 0)
(-5.13112e-06 -4.76485e-08 0)
(-5.01303e-06 -8.25159e-08 0)
(-4.82839e-06 -1.20562e-07 0)
(-4.57191e-06 -1.61186e-07 0)
(-4.23968e-06 -2.03445e-07 0)
(-3.82985e-06 -2.46029e-07 0)
(-3.3433e-06 -2.87273e-07 0)
(-2.78421e-06 -3.25226e-07 0)
(-2.34572e-06 -3.48752e-07 0)
(-2.05726e-06 -3.61877e-07 0)
(-1.75871e-06 -3.73482e-07 0)
(-1.45139e-06 -3.83413e-07 0)
(-1.1367e-06 -3.91533e-07 0)
(-8.16173e-07 -3.97728e-07 0)
(-4.91415e-07 -4.01909e-07 0)
(-1.64091e-07 -4.04015e-07 0)
(1.64091e-07 -4.04015e-07 0)
(4.91415e-07 -4.01909e-07 0)
(8.16173e-07 -3.97728e-07 0)
(1.1367e-06 -3.91533e-07 0)
(1.45139e-06 -3.83413e-07 0)
(1.75871e-06 -3.73482e-07 0)
(2.05726e-06 -3.61877e-07 0)
(2.34572e-06 -3.48752e-07 0)
(2.78421e-06 -3.25226e-07 0)
(3.3433e-06 -2.87273e-07 0)
(3.82985e-06 -2.46029e-07 0)
(4.23968e-06 -2.03445e-07 0)
(4.57191e-06 -1.61186e-07 0)
(4.82839e-06 -1.20562e-07 0)
(5.01303e-06 -8.25159e-08 0)
(5.13112e-06 -4.76485e-08 0)
(5.18879e-06 -1.62728e-08 0)
(5.19252e-06 1.15258e-08 0)
(5.14877e-06 3.58281e-08 0)
(5.06376e-06 5.68287e-08 0)
(4.94329e-06 7.47915e-08 0)
(4.79261e-06 9.00161e-08 0)
(4.61644e-06 1.02813e-07 0)
(4.41892e-06 1.13487e-07 0)
(4.20367e-06 1.22325e-07 0)
(3.97377e-06 1.29592e-07 0)
(3.73188e-06 1.35525e-07 0)
(3.48024e-06 1.40335e-07 0)
(3.2207e-06 1.44207e-07 0)
(2.95484e-06 1.473e-07 0)
(2.68395e-06 1.49752e-07 0)
(2.40909e-06 1.51678e-07 0)
(2.13112e-06 1.53176e-07 0)
(1.85075e-06 1.54329e-07 0)
(1.56854e-06 1.55204e-07 0)
(1.28494e-06 1.55856e-07 0)
(1.00033e-06 1.56328e-07 0)
(7.14992e-07 1.56653e-07 0)
(4.29177e-07 1.56858e-07 0)
(1.43089e-07 1.56956e-07 0)
(-1.43104e-07 2.30329e-07 0)
(-4.29224e-07 2.30186e-07 0)
(-7.15075e-07 2.29887e-07 0)
(-1.00045e-06 2.29411e-07 0)
(-1.28512e-06 2.28722e-07 0)
(-1.56877e-06 2.27769e-07 0)
(-1.85106e-06 2.2649e-07 0)
(-2.13154e-06 2.24804e-07 0)
(-2.40963e-06 2.22612e-07 0)
(-2.68464e-06 2.19794e-07 0)
(-2.95571e-06 2.16207e-07 0)
(-3.22179e-06 2.1168e-07 0)
(-3.4816e-06 2.06011e-07 0)
(-3.73357e-06 1.98969e-07 0)
(-3.97584e-06 1.9028e-07 0)
(-4.20619e-06 1.79637e-07 0)
(-4.42198e-06 1.66691e-07 0)
(-4.62012e-06 1.51052e-07 0)
(-4.797e-06 1.323e-07 0)
(-4.94849e-06 1.09986e-07 0)
(-5.06987e-06 8.36521e-08 0)
(-5.15587e-06 5.2858e-08 0)
(-5.20068e-06 1.72129e-08 0)
(-5.19807e-06 -2.35724e-08 0)
(-5.14151e-06 -6.96214e-08 0)
(-5.02446e-06 -1.20813e-07 0)
(-4.84073e-06 -1.76695e-07 0)
(-4.58491e-06 -2.36387e-07 0)
(-4.25299e-06 -2.98512e-07 0)
(-3.843e-06 -3.61144e-07 0)
(-3.35573e-06 -4.21833e-07 0)
(-2.79528e-06 -4.77706e-07 0)
(-2.35547e-06 -5.12353e-07 0)
(-2.06599e-06 -5.31686e-07 0)
(-1.76632e-06 -5.48783e-07 0)
(-1.45776e-06 -5.63415e-07 0)
(-1.14175e-06 -5.7538e-07 0)
(-8.19838e-07 -5.8451e-07 0)
(-4.93635e-07 -5.90672e-07 0)
(-1.64835e-07 -5.93775e-07 0)
(1.64835e-07 -5.93775e-07 0)
(4.93635e-07 -5.90672e-07 0)
(8.19838e-07 -5.8451e-07 0)
(1.14175e-06 -5.7538e-07 0)
(1.45776e-06 -5.63415e-07 0)
(1.76632e-06 -5.48783e-07 0)
(2.06599e-06 -5.31686e-07 0)
(2.35547e-06 -5.12353e-07 0)
(2.79528e-06 -4.77706e-07 0)
(3.35573e-06 -4.21833e-07 0)
(3.843e-06 -3.61144e-07 0)
(4.25299e-06 -2.98512e-07 0)
(4.58491e-06 -2.36387e-07 0)
(4.84073e-06 -1.76695e-07 0)
(5.02446e-06 -1.20813e-07 0)
(5.14151e-06 -6.96214e-08 0)
(5.19807e-06 -2.35724e-08 0)
(5.20068e-06 1.72129e-08 0)
(5.15587e-06 5.2858e-08 0)
(5.06987e-06 8.36521e-08 0)
(4.94849e-06 1.09986e-07 0)
(4.797e-06 1.323e-07 0)
(4.62012e-06 1.51052e-07 0)
(4.42198e-06 1.66691e-07 0)
(4.20619e-06 1.79637e-07 0)
(3.97584e-06 1.9028e-07 0)
(3.73357e-06 1.98969e-07 0)
(3.4816e-06 2.06011e-07 0)
(3.22179e-06 2.1168e-07 0)
(2.95571e-06 2.16207e-07 0)
(2.68464e-06 2.19794e-07 0)
(2.40963e-06 2.22612e-07 0)
(2.13154e-06 2.24804e-07 0)
(1.85106e-06 2.2649e-07 0)
(1.56877e-06 2.27769e-07 0)
(1.28512e-06 2.28722e-07 0)
(1.00045e-06 2.29411e-07 0)
(7.15075e-07 2.29887e-07 0)
(4.29224e-07 2.30186e-07 0)
(1.43104e-07 2.30329e-07 0)
(-1.43127e-07 3.10817e-07 0)
(-4.29297e-07 3.10625e-07 0)
(-7.15202e-07 3.10226e-07 0)
(-1.00064e-06 3.09588e-07 0)
(-1.28538e-06 3.08663e-07 0)
(-1.56914e-06 3.07385e-07 0)
(-1.85155e-06 3.05669e-07 0)
(-2.13217e-06 3.03406e-07 0)
(-2.41045e-06 3.00463e-07 0)
(-2.68569e-06 2.96678e-07 0)
(-2.95704e-06 2.91858e-07 0)
(-3.22346e-06 2.85773e-07 0)
(-3.48368e-06 2.78153e-07 0)
(-3.73615e-06 2.68682e-07 0)
(-3.97901e-06 2.56995e-07 0)
(-4.21006e-06 2.42676e-07 0)
(-4.42667e-06 2.25253e-07 0)
(-4.62575e-06 2.04202e-07 0)
(-4.80373e-06 1.78952e-07 0)
(-4.95646e-06 1.48896e-07 0)
(-5.07924e-06 1.13416e-07 0)
(-5.16676e-06 7.191e-08 0)
(-5.21322e-06 2.3846e-08 0)
(-5.21231e-06 -3.1174e-08 0)
(-5.15746e-06 -9.33261e-08 0)
(-5.04203e-06 -1.62458e-07 0)
(-4.8597e-06 -2.37969e-07 0)
(-4.60491e-06 -3.18684e-07 0)
(-4.27347e-06 -4.02745e-07 0)
(-3.86326e-06 -4.87554e-07 0)
(-3.37488e-06 -5.69792e-07 0)
(-2.81234e-06 -6.45557e-07 0)
(-2.3705e-06 -6.92569e-07 0)
(-2.07946e-06 -7.18808e-07 0)
(-1.77805e-06 -7.42017e-07 0)
(-1.4676e-06 -7.61884e-07 0)
(-1.14956e-06 -7.78133e-07 0)
(-8.25493e-07 -7.90532e-07 0)
(-4.97062e-07 -7.98901e-07 0)
(-1.65983e-07 -8.03118e-07 0)
(1.65983e-07 -8.03118e-07 0)
(4.97062e-07 -7.98901e-07 0)
(8.25493e-07 -7.90532e-07 0)
(1.14956e-06 -7.78133e-07 0)
(1.4676e-06 -7.61884e-07 0)
(1.77805e-06 -7.42017e-07 0)
(2.07946e-06 -7.18808e-07 0)
(2.3705e-06 -6.92569e-07 0)
(2.81234e-06 -6.45557e-07 0)
(3.37488e-06 -5.69792e-07 0)
(3.86326e-06 -4.87554e-07 0)
(4.27347e-06 -4.02745e-07 0)
(4.60491e-06 -3.18684e-07 0)
(4.8597e-06 -2.37969e-07 0)
(5.04203e-06 -1.62458e-07 0)
(5.15746e-06 -9.33261e-08 0)
(5.21231e-06 -3.1174e-08 0)
(5.21322e-06 2.3846e-08 0)
(5.16676e-06 7.191e-08 0)
(5.07924e-06 1.13416e-07 0)
(4.95646e-06 1.48896e-07 0)
(4.80373e-06 1.78952e-07 0)
(4.62575e-06 2.04202e-07 0)
(4.42667e-06 2.25253e-07 0)
(4.21006e-06 2.42676e-07 0)
(3.97901e-06 2.56995e-07 0)
(3.73615e-06 2.68682e-07 0)
(3.48368e-06 2.78153e-07 0)
(3.22346e-06 2.85773e-07 0)
(2.95704e-06 2.91858e-07 0)
(2.68569e-06 2.96678e-07 0)
(2.41045e-06 3.00463e-07 0)
(2.13217e-06 3.03406e-07 0)
(1.85155e-06 3.05669e-07 0)
(1.56914e-06 3.07385e-07 0)
(1.28538e-06 3.08663e-07 0)
(1.00064e-06 3.09588e-07 0)
(7.15202e-07 3.10226e-07 0)
(4.29297e-07 3.10625e-07 0)
(1.43127e-07 3.10817e-07 0)
(-1.43161e-07 3.99117e-07 0)
(-4.294e-07 3.98873e-07 0)
(-7.15383e-07 3.98365e-07 0)
(-1.00092e-06 3.97554e-07 0)
(-1.28577e-06 3.96377e-07 0)
(-1.56966e-06 3.94751e-07 0)
(-1.85224e-06 3.92565e-07 0)
(-2.13308e-06 3.89681e-07 0)
(-2.41162e-06 3.85929e-07 0)
(-2.68719e-06 3.81101e-07 0)
(-2.95895e-06 3.7495e-07 0)
(-3.22586e-06 3.67182e-07 0)
(-3.48667e-06 3.5745e-07 0)
(-3.73984e-06 3.45349e-07 0)
(-3.98356e-06 3.30413e-07 0)
(-4.21561e-06 3.12105e-07 0)
(-4.43339e-06 2.8982e-07 0)
(-4.63385e-06 2.62885e-07 0)
(-4.81341e-06 2.30564e-07 0)
(-4.96793e-06 1.92075e-07 0)
(-5.09271e-06 1.46617e-07 0)
(-5.18244e-06 9.34117e-08 0)
(-5.23126e-06 3.17632e-08 0)
(-5.23283e-06 -3.88534e-08 0)
(-5.18045e-06 -1.18682e-07 0)
(-5.06737e-06 -2.07547e-07 0)
(-4.88708e-06 -3.04696e-07 0)
(-4.6338e-06 -4.08639e-07 0)
(-4.30309e-06 -5.17001e-07 0)
(-3.89257e-06 -6.26441e-07 0)
(-3.40261e-06 -7.32675e-07 0)
(-2.83707e-06 -8.30646e-07 0)
(-2.3923e-06 -8.91491e-07 0)
(-2.099e-06 -9.25464e-07 0)
(-1.79507e-06 -9.55523e-07 0)
(-1.48187e-06 -9.8126e-07 0)
(-1.16088e-06 -1.00232e-06 0)
(-8.33703e-07 -1.01839e-06 0)
(-5.02037e-07 -1.02923e-06 0)
(-1.6765e-07 -1.0347e-06 0)
(1.6765e-07 -1.0347e-06 0)
(5.02037e-07 -1.02923e-06 0)
(8.33703e-07 -1.01839e-06 0)
(1.16088e-06 -1.00232e-06 0)
(1.48187e-06 -9.8126e-07 0)
(1.79507e-06 -9.55523e-07 0)
(2.099e-06 -9.25464e-07 0)
(2.3923e-06 -8.91491e-07 0)
(2.83707e-06 -8.30646e-07 0)
(3.40261e-06 -7.32675e-07 0)
(3.89257e-06 -6.26441e-07 0)
(4.30309e-06 -5.17001e-07 0)
(4.6338e-06 -4.08639e-07 0)
(4.88708e-06 -3.04696e-07 0)
(5.06737e-06 -2.07547e-07 0)
(5.18045e-06 -1.18682e-07 0)
(5.23283e-06 -3.88534e-08 0)
(5.23126e-06 3.17632e-08 0)
(5.18244e-06 9.34117e-08 0)
(5.09271e-06 1.46617e-07 0)
(4.96793e-06 1.92075e-07 0)
(4.81341e-06 2.30564e-07 0)
(4.63385e-06 2.62885e-07 0)
(4.43339e-06 2.8982e-07 0)
(4.21561e-06 3.12105e-07 0)
(3.98356e-06 3.30413e-07 0)
(3.73984e-06 3.45349e-07 0)
(3.48667e-06 3.5745e-07 0)
(3.22586e-06 3.67182e-07 0)
(2.95895e-06 3.7495e-07 0)
(2.68719e-06 3.81101e-07 0)
(2.41162e-06 3.85929e-07 0)
(2.13308e-06 3.89681e-07 0)
(1.85224e-06 3.92565e-07 0)
(1.56966e-06 3.94751e-07 0)
(1.28577e-06 3.96377e-07 0)
(1.00092e-06 3.97554e-07 0)
(7.15383e-07 3.98365e-07 0)
(4.294e-07 3.98873e-07 0)
(1.43161e-07 3.99117e-07 0)
(-1.43207e-07 4.95993e-07 0)
(-4.29541e-07 4.95694e-07 0)
(-7.1563e-07 4.95072e-07 0)
(-1.00129e-06 4.94078e-07 0)
(-1.2863e-06 4.92634e-07 0)
(-1.57038e-06 4.90638e-07 0)
(-1.8532e-06 4.87952e-07 0)
(-2.13433e-06 4.84406e-07 0)
(-2.41324e-06 4.79789e-07 0)
(-2.68926e-06 4.73845e-07 0)
(-2.96157e-06 4.66267e-07 0)
(-3.22915e-06 4.56691e-07 0)
(-3.49078e-06 4.44687e-07 0)
(-3.74493e-06 4.29754e-07 0)
(-3.98982e-06 4.11313e-07 0)
(-4.22325e-06 3.88697e-07 0)
(-4.44266e-06 3.61155e-07 0)
(-4.64502e-06 3.27847e-07 0)
(-4.82675e-06 2.87857e-07 0)
(-4.98375e-06 2.40207e-07 0)
(-5.11131e-06 1.83892e-07 0)
(-5.2041e-06 1.17931e-07 0)
(-5.25621e-06 4.14407e-08 0)
(-5.26122e-06 -4.62556e-08 0)
(-5.2123e-06 -1.45491e-07 0)
(-5.10251e-06 -2.56083e-07 0)
(-4.92508e-06 -3.77131e-07 0)
(-4.67393e-06 -5.06814e-07 0)
(-4.34429e-06 -6.42199e-07 0)
(-3.93338e-06 -7.79131e-07 0)
(-3.44127e-06 -9.12243e-07 0)
(-2.87159e-06 -1.03518e-06 0)
(-2.42275e-06 -1.11162e-06 0)
(-2.12631e-06 -1.15432e-06 0)
(-1.81887e-06 -1.19213e-06 0)
(-1.50183e-06 -1.2245e-06 0)
(-1.17672e-06 -1.251e-06 0)
(-8.45187e-07 -1.27123e-06 0)
(-5.08998e-07 -1.28489e-06 0)
(-1.69982e-07 -1.29177e-06 0)
(1.69982e-07 -1.29177e-06 0)
(5.08998e-07 -1.28489e-06 0)
(8.45187e-07 -1.27123e-06 0)
(1.17672e-06 -1.251e-06 0)
(1.50183e-06 -1.2245e-06 0)
(1.81887e-06 -1.19213e-06 0)
(2.12631e-06 -1.15432e-06 0)
(2.42275e-06 -1.11162e-06 0)
(2.87159e-06 -1.03518e-06 0)
(3.44127e-06 -9.12243e-07 0)
(3.93338e-06 -7.79131e-07 0)
(4.34429e-06 -6.42199e-07 0)
(4.67393e-06 -5.06814e-07 0)
(4.92508e-06 -3.77131e-07 0)
(5.10251e-06 -2.56083e-07 0)
(5.2123e-06 -1.45491e-07 0)
(5.26122e-06 -4.62555e-08 0)
(5.25621e-06 4.14407e-08 0)
(5.2041e-06 1.17931e-07 0)
(5.11131e-06 1.83892e-07 0)
(4.98375e-06 2.40207e-07 0)
(4.82675e-06 2.87857e-07 0)
(4.64502e-06 3.27847e-07 0)
(4.44266e-06 3.61155e-07 0)
(4.22325e-06 3.88697e-07 0)
(3.98982e-06 4.11313e-07 0)
(3.74493e-06 4.29754e-07 0)
(3.49078e-06 4.44687e-07 0)
(3.22915e-06 4.56691e-07 0)
(2.96157e-06 4.66267e-07 0)
(2.68926e-06 4.73845e-07 0)
(2.41324e-06 4.79789e-07 0)
(2.13433e-06 4.84406e-07 0)
(1.8532e-06 4.87952e-07 0)
(1.57038e-06 4.90638e-07 0)
(1.2863e-06 4.92634e-07 0)
(1.00129e-06 4.94078e-07 0)
(7.1563e-07 4.95072e-07 0)
(4.29541e-07 4.95694e-07 0)
(1.43207e-07 4.95993e-07 0)
(-1.43267e-07 6.02289e-07 0)
(-4.29728e-07 6.01934e-07 0)
(-7.15959e-07 6.01193e-07 0)
(-1.00178e-06 6.00007e-07 0)
(-1.28699e-06 5.98285e-07 0)
(-1.57133e-06 5.95901e-07 0)
(-1.85446e-06 5.9269e-07 0)
(-2.13599e-06 5.88446e-07 0)
(-2.41538e-06 5.82914e-07 0)
(-2.69201e-06 5.75787e-07 0)
(-2.96506e-06 5.66692e-07 0)
(-3.23355e-06 5.5519e-07 0)
(-3.49626e-06 5.40761e-07 0)
(-3.75173e-06 5.22799e-07 0)
(-3.99818e-06 5.00601e-07 0)
(-4.23348e-06 4.73361e-07 0)
(-4.45507e-06 4.40163e-07 0)
(-4.65997e-06 3.99988e-07 0)
(-4.84463e-06 3.51717e-07 0)
(-5.00497e-06 2.94153e-07 0)
(-5.13628e-06 2.2606e-07 0)
(-5.2332e-06 1.46226e-07 0)
(-5.28977e-06 5.35475e-08 0)
(-5.29944e-06 -5.28376e-08 0)
(-5.25523e-06 -1.73384e-07 0)
(-5.14992e-06 -3.07925e-07 0)
(-4.97643e-06 -4.55429e-07 0)
(-4.72826e-06 -6.13734e-07 0)
(-4.40014e-06 -7.79313e-07 0)
(-3.98881e-06 -9.47112e-07 0)
(-3.49387e-06 -1.11055e-06 0)
(-2.91862e-06 -1.26178e-06 0)
(-2.46427e-06 -1.35599e-06 0)
(-2.16357e-06 -1.40865e-06 0)
(-1.85136e-06 -1.45529e-06 0)
(-1.52909e-06 -1.49527e-06 0)
(-1.19836e-06 -1.52799e-06 0)
(-8.60881e-07 -1.55299e-06 0)
(-5.18511e-07 -1.56987e-06 0)
(-1.73169e-07 -1.57837e-06 0)
(1.73169e-07 -1.57837e-06 0)
(5.18511e-07 -1.56987e-06 0)
(8.60881e-07 -1.55299e-06 0)
(1.19836e-06 -1.52799e-06 0)
(1.52909e-06 -1.49527e-06 0)
(1.85136e-06 -1.45529e-06 0)
(2.16357e-06 -1.40865e-06 0)
(2.46427e-06 -1.35599e-06 0)
(2.91862e-06 -1.26178e-06 0)
(3.49387e-06 -1.11055e-06 0)
(3.98881e-06 -9.47112e-07 0)
(4.40014e-06 -7.79313e-07 0)
(4.72826e-06 -6.13734e-07 0)
(4.97643e-06 -4.55429e-07 0)
(5.14992e-06 -3.07925e-07 0)
(5.25523e-06 -1.73384e-07 0)
(5.29944e-06 -5.28376e-08 0)
(5.28977e-06 5.35475e-08 0)
(5.2332e-06 1.46226e-07 0)
(5.13628e-06 2.2606e-07 0)
(5.00497e-06 2.94153e-07 0)
(4.84463e-06 3.51717e-07 0)
(4.65997e-06 3.99988e-07 0)
(4.45507e-06 4.40163e-07 0)
(4.23348e-06 4.73361e-07 0)
(3.99818e-06 5.00601e-07 0)
(3.75173e-06 5.22799e-07 0)
(3.49626e-06 5.40761e-07 0)
(3.23355e-06 5.5519e-07 0)
(2.96506e-06 5.66692e-07 0)
(2.69201e-06 5.75787e-07 0)
(2.41538e-06 5.82914e-07 0)
(2.13599e-06 5.88446e-07 0)
(1.85446e-06 5.9269e-07 0)
(1.57133e-06 5.95901e-07 0)
(1.28699e-06 5.98285e-07 0)
(1.00178e-06 6.00007e-07 0)
(7.15959e-07 6.01193e-07 0)
(4.29728e-07 6.01934e-07 0)
(1.43267e-07 6.02289e-07 0)
(-1.43346e-07 7.18934e-07 0)
(-4.29969e-07 7.18521e-07 0)
(-7.16383e-07 7.17659e-07 0)
(-1.00242e-06 7.16279e-07 0)
(-1.2879e-06 7.14271e-07 0)
(-1.57256e-06 7.11488e-07 0)
(-1.85611e-06 7.07734e-07 0)
(-2.13815e-06 7.02765e-07 0)
(-2.41818e-06 6.9628e-07 0)
(-2.69559e-06 6.87913e-07 0)
(-2.96961e-06 6.77225e-07 0)
(-3.23928e-06 6.63693e-07 0)
(-3.50343e-06 6.46702e-07 0)
(-3.76062e-06 6.2553e-07 0)
(-4.00912e-06 5.99342e-07 0)
(-4.24686e-06 5.67175e-07 0)
(-4.47132e-06 5.27938e-07 0)
(-4.67956e-06 4.8041e-07 0)
(-4.86809e-06 4.23247e-07 0)
(-5.03284e-06 3.55006e-07 0)
(-5.16909e-06 2.74191e-07 0)
(-5.27149e-06 1.79316e-07 0)
(-5.33398e-06 6.90205e-08 0)
(-5.34987e-06 -5.779e-08 0)
(-5.31196e-06 -2.01736e-07 0)
(-5.2127e-06 -3.6271e-07 0)
(-5.04456e-06 -5.39576e-07 0)
(-4.80048e-06 -7.2984e-07 0)
(-4.47455e-06 -9.29345e-07 0)
(-4.06282e-06 -1.13205e-06 0)
(-3.56424e-06 -1.33002e-06 0)
(-2.98167e-06 -1.51366e-06 0)
(-2.52003e-06 -1.62832e-06 0)
(-2.21363e-06 -1.69248e-06 0)
(-1.89504e-06 -1.74935e-06 0)
(-1.56576e-06 -1.79812e-06 0)
(-1.22748e-06 -1.83808e-06 0)
(-8.82011e-07 -1.8686e-06 0)
(-5.31323e-07 -1.88923e-06 0)
(-1.77462e-07 -1.89962e-06 0)
(1.77462e-07 -1.89962e-06 0)
(5.31323e-07 -1.88923e-06 0)
(8.82011e-07 -1.8686e-06 0)
(1.22748e-06 -1.83808e-06 0)
(1.56576e-06 -1.79812e-06 0)
(1.89504e-06 -1.74935e-06 0)
(2.21363e-06 -1.69248e-06 0)
(2.52003e-06 -1.62832e-06 0)
(2.98167e-06 -1.51366e-06 0)
(3.56424e-06 -1.33002e-06 0)
(4.06282e-06 -1.13205e-06 0)
(4.47455e-06 -9.29345e-07 0)
(4.80048e-06 -7.2984e-07 0)
(5.04456e-06 -5.39576e-07 0)
(5.2127e-06 -3.6271e-07 0)
(5.31196e-06 -2.01736e-07 0)
(5.34987e-06 -5.779e-08 0)
(5.33398e-06 6.90205e-08 0)
(5.27149e-06 1.79316e-07 0)
(5.16909e-06 2.74191e-07 0)
(5.03284e-06 3.55006e-07 0)
(4.86809e-06 4.23247e-07 0)
(4.67956e-06 4.8041e-07 0)
(4.47132e-06 5.27938e-07 0)
(4.24686e-06 5.67175e-07 0)
(4.00912e-06 5.99342e-07 0)
(3.76062e-06 6.2553e-07 0)
(3.50343e-06 6.46702e-07 0)
(3.23928e-06 6.63693e-07 0)
(2.96961e-06 6.77225e-07 0)
(2.69559e-06 6.87913e-07 0)
(2.41818e-06 6.9628e-07 0)
(2.13815e-06 7.02765e-07 0)
(1.85611e-06 7.07734e-07 0)
(1.57256e-06 7.11488e-07 0)
(1.2879e-06 7.14271e-07 0)
(1.00242e-06 7.16279e-07 0)
(7.16383e-07 7.17659e-07 0)
(4.29969e-07 7.18521e-07 0)
(1.43346e-07 7.18934e-07 0)
(-1.43444e-07 8.46953e-07 0)
(-4.30274e-07 8.46483e-07 0)
(-7.16918e-07 8.45502e-07 0)
(-1.00323e-06 8.43929e-07 0)
(-1.28905e-06 8.41637e-07 0)
(-1.57413e-06 8.38453e-07 0)
(-1.8582e-06 8.3415e-07 0)
(-2.14089e-06 8.28444e-07 0)
(-2.42174e-06 8.20984e-07 0)
(-2.70017e-06 8.11343e-07 0)
(-2.97543e-06 7.99007e-07 0)
(-3.24662e-06 7.83368e-07 0)
(-3.5126e-06 7.63705e-07 0)
(-3.77201e-06 7.39173e-07 0)
(-4.02317e-06 7.08792e-07 0)
(-4.26405e-06 6.71432e-07 0)
(-4.49223e-06 6.25806e-07 0)
(-4.7048e-06 5.70472e-07 0)
(-4.89834e-06 5.03833e-07 0)
(-5.06881e-06 4.24171e-07 0)
(-5.21152e-06 3.29686e-07 0)
(-5.32108e-06 2.18578e-07 0)
(-5.39133e-06 8.91698e-08 0)
(-5.41541e-06 -5.99235e-08 0)
(-5.38584e-06 -2.29554e-07 0)
(-5.29465e-06 -4.19739e-07 0)
(-5.13371e-06 -6.29289e-07 0)
(-4.89525e-06 -8.55406e-07 0)
(-4.57248e-06 -1.09328e-06 0)
(-4.1605e-06 -1.33581e-06 0)
(-3.65739e-06 -1.57348e-06 0)
(-3.06535e-06 -1.79471e-06 0)
(-2.59418e-06 -1.93327e-06 0)
(-2.28027e-06 -2.01089e-06 0)
(-1.95323e-06 -2.07977e-06 0)
(-1.61465e-06 -2.13889e-06 0)
(-1.26632e-06 -2.18737e-06 0)
(-9.10211e-07 -2.22443e-06 0)
(-5.48426e-07 -2.24948e-06 0)
(-1.83194e-07 -2.26211e-06 0)
(1.83194e-07 -2.26211e-06 0)
(5.48426e-07 -2.24948e-06 0)
(9.10211e-07 -2.22443e-06 0)
(1.26632e-06 -2.18737e-06 0)
(1.61465e-06 -2.13889e-06 0)
(1.95323e-06 -2.07977e-06 0)
(2.28027e-06 -2.01089e-06 0)
(2.59418e-06 -1.93327e-06 0)
(3.06535e-06 -1.79471e-06 0)
(3.65739e-06 -1.57348e-06 0)
(4.1605e-06 -1.33581e-06 0)
(4.57248e-06 -1.09328e-06 0)
(4.89525e-06 -8.55406e-07 0)
(5.13371e-06 -6.29289e-07 0)
(5.29465e-06 -4.19739e-07 0)
(5.38584e-06 -2.29554e-07 0)
(5.41541e-06 -5.99235e-08 0)
(5.39133e-06 8.91698e-08 0)
(5.32108e-06 2.18578e-07 0)
(5.21152e-06 3.29686e-07 0)
(5.06881e-06 4.24171e-07 0)
(4.89834e-06 5.03833e-07 0)
(4.7048e-06 5.70472e-07 0)
(4.49223e-06 6.25806e-07 0)
(4.26405e-06 6.71432e-07 0)
(4.02317e-06 7.08792e-07 0)
(3.77201e-06 7.39173e-07 0)
(3.5126e-06 7.63705e-07 0)
(3.24662e-06 7.83368e-07 0)
(2.97543e-06 7.99007e-07 0)
(2.70017e-06 8.11343e-07 0)
(2.42174e-06 8.20984e-07 0)
(2.14089e-06 8.28444e-07 0)
(1.8582e-06 8.3415e-07 0)
(1.57413e-06 8.38453e-07 0)
(1.28905e-06 8.41637e-07 0)
(1.00323e-06 8.43929e-07 0)
(7.16918e-07 8.45502e-07 0)
(4.30274e-07 8.46483e-07 0)
(1.43444e-07 8.46953e-07 0)
(-1.43566e-07 9.87475e-07 0)
(-4.3065e-07 9.86953e-07 0)
(-7.17581e-07 9.8586e-07 0)
(-1.00424e-06 9.84105e-07 0)
(-1.29047e-06 9.81541e-07 0)
(-1.57608e-06 9.7797e-07 0)
(-1.86081e-06 9.73131e-07 0)
(-2.14433e-06 9.66698e-07 0)
(-2.42621e-06 9.58267e-07 0)
(-2.70591e-06 9.47346e-07 0)
(-2.98274e-06 9.33345e-07 0)
(-3.25585e-06 9.15561e-07 0)
(-3.52417e-06 8.93162e-07 0)
(-3.7864e-06 8.65172e-07 0)
(-4.04093e-06 8.30453e-07 0)
(-4.28582e-06 7.87694e-07 0)
(-4.51873e-06 7.35396e-07 0)
(-4.73684e-06 6.71867e-07 0)
(-4.93679e-06 5.95234e-07 0)
(-5.11461e-06 5.03461e-07 0)
(-5.26564e-06 3.94399e-07 0)
(-5.38445e-06 2.65876e-07 0)
(-5.46478e-06 1.15826e-07 0)
(-5.49957e-06 -5.75094e-08 0)
(-5.48097e-06 -2.55307e-07 0)
(-5.40047e-06 -4.77803e-07 0)
(-5.24923e-06 -7.23848e-07 0)
(-5.01848e-06 -9.90398e-07 0)
(-4.70028e-06 -1.27201e-06 0)
(-4.28847e-06 -1.5604e-06 0)
(-3.7799e-06 -1.84432e-06 0)
(-3.17581e-06 -2.10977e-06 0)
(-2.69229e-06 -2.27671e-06 0)
(-2.36856e-06 -2.37037e-06 0)
(-2.03042e-06 -2.45361e-06 0)
(-1.67957e-06 -2.52515e-06 0)
(-1.31794e-06 -2.58387e-06 0)
(-9.47705e-07 -2.6288e-06 0)
(-5.71177e-07 -2.65919e-06 0)
(-1.90821e-07 -2.67452e-06 0)
(1.90821e-07 -2.67452e-06 0)
(5.71177e-07 -2.65919e-06 0)
(9.47705e-07 -2.6288e-06 0)
(1.31794e-06 -2.58387e-06 0)
(1.67957e-06 -2.52515e-06 0)
(2.03042e-06 -2.45361e-06 0)
(2.36856e-06 -2.37037e-06 0)
(2.69229e-06 -2.27671e-06 0)
(3.17581e-06 -2.10977e-06 0)
(3.7799e-06 -1.84432e-06 0)
(4.28847e-06 -1.5604e-06 0)
(4.70028e-06 -1.27201e-06 0)
(5.01848e-06 -9.90398e-07 0)
(5.24923e-06 -7.23848e-07 0)
(5.40047e-06 -4.77803e-07 0)
(5.48097e-06 -2.55307e-07 0)
(5.49957e-06 -5.75094e-08 0)
(5.46478e-06 1.15826e-07 0)
(5.38445e-06 2.65876e-07 0)
(5.26564e-06 3.94399e-07 0)
(5.11461e-06 5.03461e-07 0)
(4.93679e-06 5.95234e-07 0)
(4.73684e-06 6.71867e-07 0)
(4.51873e-06 7.35396e-07 0)
(4.28582e-06 7.87694e-07 0)
(4.04093e-06 8.30453e-07 0)
(3.7864e-06 8.65172e-07 0)
(3.52417e-06 8.93162e-07 0)
(3.25585e-06 9.15561e-07 0)
(2.98274e-06 9.33345e-07 0)
(2.70591e-06 9.47346e-07 0)
(2.42621e-06 9.58267e-07 0)
(2.14433e-06 9.66698e-07 0)
(1.86081e-06 9.73131e-07 0)
(1.57608e-06 9.7797e-07 0)
(1.29047e-06 9.81541e-07 0)
(1.00424e-06 9.84105e-07 0)
(7.17581e-07 9.8586e-07 0)
(4.3065e-07 9.86953e-07 0)
(1.43566e-07 9.87475e-07 0)
(-1.43713e-07 1.14175e-06 0)
(-4.31104e-07 1.14118e-06 0)
(-7.18383e-07 1.13999e-06 0)
(-1.00546e-06 1.13808e-06 0)
(-1.2922e-06 1.13527e-06 0)
(-1.57846e-06 1.13135e-06 0)
(-1.864e-06 1.12601e-06 0)
(-2.14854e-06 1.11889e-06 0)
(-2.4317e-06 1.10953e-06 0)
(-2.71299e-06 1.09737e-06 0)
(-2.99179e-06 1.08174e-06 0)
(-3.2673e-06 1.06184e-06 0)
(-3.53854e-06 1.03671e-06 0)
(-3.8043e-06 1.00524e-06 0)
(-4.06306e-06 9.6613e-07 0)
(-4.31299e-06 9.17866e-07 0)
(-4.55186e-06 8.58718e-07 0)
(-4.77697e-06 7.86724e-07 0)
(-4.98505e-06 6.99696e-07 0)
(-5.17222e-06 5.95236e-07 0)
(-5.33387e-06 4.70792e-07 0)
(-5.46453e-06 3.23742e-07 0)
(-5.55787e-06 1.51543e-07 0)
(-5.60656e-06 -4.80506e-08 0)
(-5.60233e-06 -2.76673e-07 0)
(-5.53601e-06 -5.34926e-07 0)
(-5.39779e-06 -8.21842e-07 0)
(-5.17768e-06 -1.13425e-06 0)
(-4.8662e-06 -1.46613e-06 0)
(-4.45544e-06 -1.80797e-06 0)
(-3.94054e-06 -2.14651e-06 0)
(-3.32133e-06 -2.46487e-06 0)
(-2.82197e-06 -2.66618e-06 0)
(-2.48546e-06 -2.77936e-06 0)
(-2.13277e-06 -2.88013e-06 0)
(-1.76576e-06 -2.96689e-06 0)
(-1.38656e-06 -3.0382e-06 0)
(-9.97587e-07 -3.09283e-06 0)
(-6.01461e-07 -3.12981e-06 0)
(-2.00975e-07 -3.14847e-06 0)
(2.00975e-07 -3.14847e-06 0)
(6.01461e-07 -3.12981e-06 0)
(9.97587e-07 -3.09283e-06 0)
(1.38656e-06 -3.0382e-06 0)
(1.76576e-06 -2.96689e-06 0)
(2.13277e-06 -2.88013e-06 0)
(2.48546e-06 -2.77936e-06 0)
(2.82197e-06 -2.66618e-06 0)
(3.32133e-06 -2.46487e-06 0)
(3.94054e-06 -2.14651e-06 0)
(4.45544e-06 -1.80797e-06 0)
(4.8662e-06 -1.46613e-06 0)
(5.17768e-06 -1.13425e-06 0)
(5.39779e-06 -8.21842e-07 0)
(5.53601e-06 -5.34926e-07 0)
(5.60233e-06 -2.76673e-07 0)
(5.60656e-06 -4.80506e-08 0)
(5.55787e-06 1.51543e-07 0)
(5.46453e-06 3.23742e-07 0)
(5.33387e-06 4.70792e-07 0)
(5.17222e-06 5.95236e-07 0)
(4.98505e-06 6.99696e-07 0)
(4.77697e-06 7.86724e-07 0)
(4.55186e-06 8.58718e-07 0)
(4.31299e-06 9.17866e-07 0)
(4.06306e-06 9.6613e-07 0)
(3.8043e-06 1.00524e-06 0)
(3.53854e-06 1.03671e-06 0)
(3.2673e-06 1.06184e-06 0)
(2.99179e-06 1.08174e-06 0)
(2.71299e-06 1.09737e-06 0)
(2.4317e-06 1.10953e-06 0)
(2.14854e-06 1.11889e-06 0)
(1.864e-06 1.12601e-06 0)
(1.57846e-06 1.13135e-06 0)
(1.2922e-06 1.13527e-06 0)
(1.00546e-06 1.13808e-06 0)
(7.18383e-07 1.13999e-06 0)
(4.31104e-07 1.14118e-06 0)
(1.43713e-07 1.14175e-06 0)
(-1.43886e-07 1.31115e-06 0)
(-4.3164e-07 1.31055e-06 0)
(-7.19331e-07 1.30929e-06 0)
(-1.0069e-06 1.30726e-06 0)
(-1.29427e-06 1.30426e-06 0)
(-1.5813e-06 1.30005e-06 0)
(-1.86783e-06 1.29429e-06 0)
(-2.15362e-06 1.28657e-06 0)
(-2.43835e-06 1.27638e-06 0)
(-2.72159e-06 1.26309e-06 0)
(-3.0028e-06 1.24593e-06 0)
(-3.28127e-06 1.22402e-06 0)
(-3.55612e-06 1.19627e-06 0)
(-3.82624e-06 1.16143e-06 0)
(-4.09025e-06 1.118e-06 0)
(-4.34646e-06 1.06428e-06 0)
(-4.59276e-06 9.98275e-07 0)
(-4.82662e-06 9.17729e-07 0)
(-5.0449e-06 8.20101e-07 0)
(-5.24386e-06 7.02582e-07 0)
(-5.41895e-06 5.62145e-07 0)
(-5.56473e-06 3.95628e-07 0)
(-5.67475e-06 1.9989e-07 0)
(-5.74143e-06 -2.79539e-08 0)
(-5.75599e-06 -2.9018e-07 0)
(-5.70845e-06 -5.87969e-07 0)
(-5.58785e-06 -9.20766e-07 0)
(-5.38255e-06 -1.28549e-06 0)
(-5.08103e-06 -1.67568e-06 0)
(-4.67304e-06 -2.08059e-06 0)
(-4.15126e-06 -2.48468e-06 0)
(-3.5134e-06 -2.86762e-06 0)
(-2.99389e-06 -3.11149e-06 0)
(-2.64078e-06 -3.24898e-06 0)
(-2.26904e-06 -3.37172e-06 0)
(-1.88071e-06 -3.47763e-06 0)
(-1.4782e-06 -3.56484e-06 0)
(-1.06428e-06 -3.63176e-06 0)
(-6.41981e-07 -3.6771e-06 0)
(-2.14567e-07 -3.7e-06 0)
(2.14567e-07 -3.7e-06 0)
(6.41981e-07 -3.6771e-06 0)
(1.06428e-06 -3.63176e-06 0)
(1.4782e-06 -3.56484e-06 0)
(1.88071e-06 -3.47763e-06 0)
(2.26904e-06 -3.37172e-06 0)
(2.64078e-06 -3.24898e-06 0)
(2.99389e-06 -3.11149e-06 0)
(3.5134e-06 -2.86762e-06 0)
(4.15126e-06 -2.48468e-06 0)
(4.67304e-06 -2.08059e-06 0)
(5.08103e-06 -1.67568e-06 0)
(5.38255e-06 -1.28549e-06 0)
(5.58785e-06 -9.20766e-07 0)
(5.70845e-06 -5.87969e-07 0)
(5.75599e-06 -2.9018e-07 0)
(5.74143e-06 -2.79539e-08 0)
(5.67475e-06 1.9989e-07 0)
(5.56473e-06 3.95628e-07 0)
(5.41895e-06 5.62145e-07 0)