/*--------------------------------*- C++ -*----------------------------------*\
  =========                 |
  \\      /  F ield         | OpenFOAM: The Open Source CFD Toolbox
   \\    /   O peration     | Website:  https://openfoam.org
    \\  /    A nd           | Version:  10
     \\/     M anipulation  |
\*---------------------------------------------------------------------------*/
FoamFile
{
    format      ascii;
    class       volVectorField;
    location    "0.017";
    object      UMean;
}
// * * * * * * * * * * * * * * * * * * * * * * * * * * * * * * * * * * * * * //

dimensions      [0 1 -1 0 0 0 0];

internalField   nonuniform List<vector> 
12225
(
(9.85537 0.0438068 0)
(9.5959 0.0588928 0)
(9.31711 0.0561225 0)
(9.02757 0.0539918 0)
(8.74963 0.0523164 0)
(8.49029 0.0509004 0)
(8.25065 0.0480007 0)
(8.02789 0.0463605 0)
(7.82329 0.0417747 0)
(7.6341 0.0414968 0)
(7.46408 0.0339972 0)
(7.30942 0.0383331 0)
(7.17264 0.0232615 0)
(7.05714 0.0396318 0)
(6.95066 0.00300049 0)
(6.89859 0.0503904 0)
(6.82531 -0.0517997 0)
(6.92593 0.0559841 0)
(9.97424 0.0516381 0)
(10.0687 0.072574 0)
(10.1236 0.0700276 0)
(10.143 0.0689615 0)
(10.1475 0.0701633 0)
(10.1477 0.0701027 0)
(10.1437 0.069891 0)
(10.1388 0.0676665 0)
(10.1293 0.0671056 0)
(10.1229 0.062801 0)
(10.1114 0.0628438 0)
(10.1107 0.0548819 0)
(10.101 0.0569318 0)
(10.1164 0.0416842 0)
(10.1129 0.0468516 0)
(10.1634 0.0149244 0)
(10.1776 0.00874475 0)
(10.2851 -0.080944 0)
(9.99556 0.0276795 0)
(10.0608 0.0501928 0)
(10.1039 0.0495628 0)
(10.1246 0.0495184 0)
(10.1399 0.0516476 0)
(10.1572 0.0537113 0)
(10.1775 0.0532245 0)
(10.1996 0.0527633 0)
(10.2239 0.0491791 0)
(10.2496 0.0479097 0)
(10.2787 0.041142 0)
(10.31 0.0403609 0)
(10.3473 0.0283568 0)
(10.3883 0.0277975 0)
(10.4398 0.00498211 0)
(10.4982 -0.0038351 0)
(10.5717 -0.0529062 0)
(10.6497 -0.123183 0)
(9.94448 0.0229353 0)
(9.99469 0.0529266 0)
(10.0312 0.0550747 0)
(10.0508 0.0539347 0)
(10.066 0.0548835 0)
(10.0837 0.0553891 0)
(10.1047 0.0546782 0)
(10.1283 0.0519289 0)
(10.1533 0.0487405 0)
(10.1803 0.0436408 0)
(10.2097 0.0387224 0)
(10.2432 0.030927 0)
(10.2808 0.0230473 0)
(10.3248 0.00994269 0)
(10.3752 -0.0065279 0)
(10.4337 -0.033342 0)
(10.4989 -0.0781139 0)
(10.5644 -0.143591 0)
(9.949 0.0238814 0)
(9.99065 0.0425493 0)
(10.0233 0.0453598 0)
(10.0416 0.0437533 0)
(10.0555 0.0432236 0)
(10.071 0.0433995 0)
(10.0898 0.0420354 0)
(10.1115 0.0392266 0)
(10.1351 0.0343959 0)
(10.1604 0.0288277 0)
(10.188 0.0211714 0)
(10.2187 0.0125888 0)
(10.2533 0.000734212 0)
(10.2926 -0.0142463 0)
(10.3373 -0.0353512 0)
(10.3872 -0.0670497 0)
(10.4402 -0.11131 0)
(10.4893 -0.180196 0)
(9.93218 0.0150631 0)
(9.9746 0.0353303 0)
(10.0045 0.042125 0)
(10.0221 0.0418855 0)
(10.0374 0.0410133 0)
(10.0548 0.0402386 0)
(10.0752 0.0382935 0)
(10.0977 0.0345143 0)
(10.1216 0.0290289 0)
(10.1466 0.0220878 0)
(10.1732 0.0134798 0)
(10.2021 0.00286612 0)
(10.2345 -0.0108971 0)
(10.2706 -0.0288948 0)
(10.311 -0.0535975 0)
(10.3539 -0.0875598 0)
(10.3979 -0.134205 0)
(10.4359 -0.197135 0)
(9.99916 0.0178738 0)
(10.0371 0.0322989 0)
(10.0612 0.0371594 0)
(10.0735 0.0356782 0)
(10.0844 0.0330549 0)
(10.098 0.0309111 0)
(10.1148 0.0280738 0)
(10.1341 0.0235501 0)
(10.1552 0.0172025 0)
(10.1778 0.00911208 0)
(10.2023 -0.000907554 0)
(10.2291 -0.0135502 0)
(10.2588 -0.0295238 0)
(10.2912 -0.0504102 0)
(10.3266 -0.0773977 0)
(10.3628 -0.11318 0)
(10.3984 -0.158831 0)
(10.4275 -0.21608 0)
(9.97797 0.00948908 0)
(10.0198 0.0257787 0)
(10.0452 0.0320525 0)
(10.0581 0.0319573 0)
(10.0702 0.0296722 0)
(10.085 0.026635 0)
(10.1026 0.0225609 0)
(10.1225 0.0169482 0)
(10.1441 0.00957328 0)
(10.1673 0.000326106 0)
(10.1922 -0.0110689 0)
(10.219 -0.0252616 0)
(10.2479 -0.0430464 0)
(10.2785 -0.0657421 0)
(10.3103 -0.094401 0)
(10.3415 -0.130719 0)
(10.3707 -0.174977 0)
(10.3939 -0.227781 0)
(9.97897 0.00796009 0)
(10.0147 0.0222466 0)
(10.0375 0.0269235 0)
(10.0514 0.025942 0)
(10.0657 0.022726 0)
(10.0817 0.018637 0)
(10.0991 0.0135778 0)
(10.1175 0.0069865 0)
(10.1373 -0.00159136 0)
(10.1589 -0.0123746 0)
(10.1826 -0.0254776 0)
(10.2083 -0.0414318 0)
(10.2356 -0.0608728 0)
(10.2639 -0.0848911 0)
(10.2923 -0.114235 0)
(10.3193 -0.149958 0)
(10.3433 -0.191989 0)
(10.3621 -0.24026 0)
(9.96427 0.00803028 0)
(10.0017 0.0169691 0)
(10.0253 0.0198322 0)
(10.0391 0.0190863 0)
(10.0528 0.016108 0)
(10.0683 0.0117097 0)
(10.0852 0.00608645 0)
(10.1033 -0.00128279 0)
(10.1223 -0.0108855 0)
(10.1426 -0.0229464 0)
(10.164 -0.0375167 0)
(10.1868 -0.0549107 0)
(10.2106 -0.0756154 0)
(10.2352 -0.100417 0)
(10.2592 -0.129909 0)
(10.2818 -0.164668 0)
(10.3009 -0.204461 0)
(10.316 -0.248797 0)
(9.94451 0.000187904 0)
(9.9763 0.00974014 0)
(9.99643 0.0120082 0)
(10.0079 0.0111434 0)
(10.0192 0.00813571 0)
(10.0325 0.00320278 0)
(10.0475 -0.00344159 0)
(10.064 -0.0119055 0)
(10.0815 -0.0224826 0)
(10.1001 -0.0354376 0)
(10.1197 -0.0509978 0)
(10.1401 -0.0694611 0)
(10.1611 -0.0911876 0)
(10.1821 -0.116599 0)
(10.2024 -0.145938 0)
(10.2207 -0.179428 0)
(10.2362 -0.216675 0)
(10.2474 -0.257256 0)
(9.98634 0.00729667 0)
(10.0161 0.00783567 0)
(10.0331 0.00941754 0)
(10.0415 0.00842494 0)
(10.0509 0.00456905 0)
(10.0632 -0.00114394 0)
(10.0773 -0.0084592 0)
(10.0922 -0.0177267 0)
(10.1074 -0.0293383 0)
(10.1234 -0.0434744 0)
(10.1401 -0.0601817 0)
(10.1573 -0.0795913 0)
(10.1748 -0.101917 0)
(10.1918 -0.127459 0)
(10.2078 -0.156384 0)
(10.2219 -0.188715 0)
(10.2335 -0.224064 0)
(10.2414 -0.261866 0)
(9.94768 0.00252912 0)
(9.98149 0.000253755 0)
(9.99861 0.00150703 0)
(10.0055 0.00051131 0)
(10.0139 -0.00365542 0)
(10.026 -0.0100388 0)
(10.0405 -0.0181715 0)
(10.056 -0.0282342 0)
(10.0719 -0.0405025 0)
(10.088 -0.0551568 0)
(10.1044 -0.0723051 0)
(10.1207 -0.0920738 0)
(10.1366 -0.114541 0)
(10.1517 -0.139843 0)
(10.1654 -0.167947 0)
(10.177 -0.198828 0)
(10.1863 -0.232008 0)
(10.1922 -0.267169 0)
(9.98447 -0.00127729 0)
(10.0164 0.00350932 0)
(10.0325 0.00186595 0)
(10.0379 -0.00235789 0)
(10.0444 -0.00796985 0)
(10.0548 -0.0151307 0)
(10.0676 -0.0241251 0)
(10.0809 -0.0351452 0)
(10.0942 -0.0482807 0)
(10.1075 -0.0636153 0)
(10.1209 -0.0812017 0)
(10.1341 -0.10115 0)
(10.1469 -0.123513 0)
(10.1587 -0.148361 0)
(10.1693 -0.175606 0)
(10.1779 -0.20512 0)
(10.1846 -0.236466 0)
(10.1883 -0.269262 0)
(9.98466 -0.00261441 0)
(10.0096 -0.0044759 0)
(10.0222 -0.0074474 0)
(10.0278 -0.0120681 0)
(10.0349 -0.0182367 0)
(10.0443 -0.0260304 0)
(10.0551 -0.0356176 0)
(10.0662 -0.0471903 0)
(10.0774 -0.0608634 0)
(10.0887 -0.0767396 0)
(10.0999 -0.0947917 0)
(10.1106 -0.114948 0)
(10.1207 -0.137049 0)
(10.1295 -0.161079 0)
(10.1368 -0.186849 0)
(10.1421 -0.21435 0)
(10.1454 -0.243089 0)
(10.1463 -0.273038 0)
(9.98499 0.0090015 0)
(10.0181 -0.00296253 0)
(10.0341 -0.0100364 0)
(10.0382 -0.0153876 0)
(10.0424 -0.0216925 0)
(10.0495 -0.0300847 0)
(10.0584 -0.0406998 0)
(10.0679 -0.0533453 0)
(10.0772 -0.0678238 0)
(10.086 -0.0840261 0)
(10.0942 -0.101867 0)
(10.1016 -0.121319 0)
(10.1081 -0.142289 0)
(10.1135 -0.164775 0)
(10.1175 -0.188628 0)
(10.12 -0.213849 0)
(10.1211 -0.240076 0)
(10.1202 -0.267312 0)
(9.9642 -0.013626 0)
(9.99852 -0.0157102 0)
(10.0139 -0.0207503 0)
(10.0154 -0.0270698 0)
(10.016 -0.0345145 0)
(10.02 -0.0433564 0)
(10.0265 -0.0540062 0)
(10.0336 -0.0666882 0)
(10.0404 -0.0812959 0)
(10.0465 -0.0975737 0)
(10.052 -0.115261 0)
(10.0568 -0.134284 0)
(10.0608 -0.154534 0)
(10.0637 -0.176028 0)
(10.0654 -0.198515 0)
(10.0656 -0.221971 0)
(10.0646 -0.245889 0)
(10.0618 -0.270393 0)
(10.0092 -0.00542915 0)
(10.0332 -0.00890069 0)
(10.0404 -0.0158021 0)
(10.0377 -0.0241573 0)
(10.0369 -0.0332383 0)
(10.0401 -0.0433821 0)
(10.045 -0.0550725 0)
(10.0497 -0.0684142 0)
(10.0536 -0.0830897 0)
(10.0565 -0.0987758 0)
(10.0585 -0.115253 0)
(10.0596 -0.132483 0)
(10.0597 -0.150394 0)
(10.0587 -0.169045 0)
(10.0565 -0.188279 0)
(10.053 -0.208233 0)
(10.0484 -0.228538 0)
(10.0424 -0.249541 0)
(9.9789 -0.00356866 0)
(10.0059 -0.0145973 0)
(10.0153 -0.0244529 0)
(10.0137 -0.0347542 0)
(10.0122 -0.0453131 0)
(10.013 -0.0560831 0)
(10.015 -0.0675028 0)
(10.0168 -0.0799814 0)
(10.0176 -0.0935399 0)
(10.0174 -0.107967 0)
(10.0161 -0.123 0)
(10.0139 -0.138599 0)
(10.0108 -0.154739 0)
(10.0069 -0.171552 0)
(10.002 -0.18887 0)
(9.99623 -0.20675 0)
(9.98953 -0.224726 0)
(9.98191 -0.243025 0)
(9.96533 -0.00427883 0)
(9.99428 -0.0128763 0)
(10.0051 -0.0225896 0)
(10.0032 -0.0318795 0)
(10.0012 -0.0406658 0)
(10.0015 -0.049828 0)
(10.0023 -0.0600988 0)
(10.0022 -0.0715008 0)
(10.0007 -0.0836324 0)
(9.99795 -0.0961681 0)
(9.99417 -0.108971 0)
(9.98956 -0.122104 0)
(9.98415 -0.135565 0)
(9.97787 -0.149435 0)
(9.97065 -0.163558 0)
(9.96243 -0.178045 0)
(9.95325 -0.192553 0)
(9.94317 -0.20743 0)
(9.94328 -0.00784416 0)
(9.96953 -0.017272 0)
(9.9775 -0.0281307 0)
(9.97475 -0.0383062 0)
(9.97295 -0.047418 0)
(9.9735 -0.0562162 0)
(9.97421 -0.0653829 0)
(9.97349 -0.0752336 0)
(9.97098 -0.0857635 0)
(9.96693 -0.0968484 0)
(9.96174 -0.108336 0)
(9.9557 -0.120161 0)
(9.949 -0.132198 0)
(9.94154 -0.144452 0)
(9.93339 -0.156754 0)
(9.92431 -0.169229 0)
(9.91459 -0.1816 0)
(9.90385 -0.194229 0)
(9.97172 -0.00202936 0)
(9.99655 -0.0159468 0)
(10.0058 -0.0263819 0)
(10.0048 -0.0353386 0)
(10.0034 -0.0436192 0)
(10.0034 -0.0515638 0)
(10.0037 -0.0593618 0)
(10.0029 -0.0673019 0)
(10.0009 -0.0756587 0)
(9.99738 -0.0846306 0)
(9.9925 -0.0942071 0)
(9.98635 -0.104288 0)
(9.97918 -0.114642 0)
(9.97095 -0.125162 0)
(9.96186 -0.135639 0)
(9.95171 -0.146175 0)
(9.94095 -0.15656 0)
(9.92907 -0.167129 0)
(9.98365 -0.00271409 0)
(10.0167 -0.0203559 0)
(10.0304 -0.032314 0)
(10.0298 -0.0410687 0)
(10.0272 -0.0486409 0)
(10.0259 -0.0559936 0)
(10.0248 -0.0633955 0)
(10.0225 -0.0708652 0)
(10.0186 -0.0784381 0)
(10.0132 -0.0862334 0)
(10.0066 -0.0943155 0)
(9.99904 -0.102723 0)
(9.99054 -0.111336 0)
(9.98112 -0.12009 0)
(9.97075 -0.128791 0)
(9.95943 -0.137521 0)
(9.94721 -0.146084 0)
(9.93418 -0.154797 0)
(9.94258 -0.00733645 0)
(9.97616 -0.019645 0)
(9.9915 -0.0303084 0)
(9.99308 -0.0382976 0)
(9.99227 -0.0446138 0)
(9.99194 -0.0502334 0)
(9.9913 -0.0556555 0)
(9.98945 -0.0611409 0)
(9.98611 -0.0669321 0)
(9.98125 -0.0732173 0)
(9.97491 -0.0800018 0)
(9.9671 -0.0871677 0)
(9.95799 -0.0944774 0)
(9.94759 -0.101787 0)
(9.93618 -0.10893 0)
(9.92373 -0.116003 0)
(9.91067 -0.122907 0)
(9.8968 -0.129941 0)
(10.0028 -0.0142371 0)
(10.0326 -0.0297206 0)
(10.0471 -0.0402808 0)
(10.0493 -0.0471271 0)
(10.0485 -0.0520974 0)
(10.0474 -0.0567104 0)
(10.0458 -0.0614532 0)
(10.0431 -0.0663198 0)
(10.0391 -0.0712457 0)
(10.0337 -0.0762544 0)
(10.0268 -0.0813688 0)
(10.0185 -0.0866125 0)
(10.009 -0.0919577 0)
(9.99843 -0.0974312 0)
(9.987 -0.10297 0)
(9.97474 -0.108659 0)
(9.96203 -0.114372 0)
(9.94867 -0.120289 0)
(9.98814 -0.00657442 0)
(10.0238 -0.0256556 0)
(10.042 -0.0352984 0)
(10.0446 -0.0401441 0)
(10.0423 -0.0441641 0)
(10.0395 -0.0482453 0)
(10.0365 -0.0520755 0)
(10.0328 -0.0556284 0)
(10.0278 -0.0592422 0)
(10.0213 -0.0631815 0)
(10.0133 -0.0674489 0)
(10.0039 -0.0719445 0)
(9.99361 -0.0765503 0)
(9.98245 -0.0812611 0)
(9.97058 -0.0860284 0)
(9.958 -0.0909013 0)
(9.94481 -0.0957775 0)
(9.93092 -0.100748 0)
(9.97063 -0.0245018 0)
(10.0081 -0.0409008 0)
(10.0278 -0.047181 0)
(10.0307 -0.0493652 0)
(10.0283 -0.0517846 0)
(10.0257 -0.0549087 0)
(10.0235 -0.0580706 0)
(10.0209 -0.0609938 0)
(10.0172 -0.0637985 0)
(10.0123 -0.0666483 0)
(10.006 -0.0696188 0)
(9.99848 -0.0727673 0)
(9.98971 -0.0760975 0)
(9.97973 -0.0796259 0)
(9.96867 -0.0832616 0)
(9.9565 -0.0869782 0)
(9.94348 -0.0906503 0)
(9.92952 -0.0943274 0)
(9.93467 -0.0148513 0)
(9.97916 -0.0339281 0)
(10.0039 -0.0381936 0)
(10.0092 -0.0402274 0)
(10.0087 -0.0435044 0)
(10.0087 -0.0468623 0)
(10.0095 -0.0494781 0)
(10.0096 -0.0516758 0)
(10.0081 -0.0539236 0)
(10.0048 -0.0563703 0)
(9.99997 -0.0589014 0)
(9.99386 -0.0614466 0)
(9.98661 -0.0639665 0)
(9.9781 -0.0665523 0)
(9.96843 -0.0691841 0)
(9.95739 -0.0719584 0)
(9.94539 -0.0747657 0)
(9.93209 -0.0777331 0)
(9.94522 -0.0341951 0)
(10.0128 -0.0518846 0)
(10.0521 -0.052855 0)
(10.0651 -0.0527697 0)
(10.068 -0.0545126 0)
(10.0676 -0.0566504 0)
(10.0647 -0.0583807 0)
(10.0584 -0.0597833 0)
(10.0485 -0.0610897 0)
(10.0355 -0.0624647 0)
(10.0195 -0.0639291 0)
(10.0009 -0.0654905 0)
(9.97978 -0.0670535 0)
(9.95653 -0.0686391 0)
(9.93108 -0.070149 0)
(9.90424 -0.0716968 0)
(9.87554 -0.0731888 0)
(9.84637 -0.0748464 0)
(9.89771 -0.0414051 0)
(9.75926 -0.0499573 0)
(9.60008 -0.0492876 0)
(9.42454 -0.0481503 0)
(9.25075 -0.047551 0)
(9.08579 -0.0467219 0)
(8.92938 -0.0456742 0)
(8.77946 -0.0447857 0)
(8.63456 -0.0441818 0)
(8.49415 -0.0437425 0)
(8.35796 -0.0432984 0)
(8.22617 -0.0428033 0)
(8.09843 -0.042285 0)
(7.97509 -0.0418673 0)
(7.85507 -0.0415913 0)
(7.73931 -0.0415334 0)
(7.62558 -0.0416146 0)
(7.5166 -0.0418909 0)
(0.0059061 -0.0395054 1.18589e-20)
(0.018983 -0.0534685 -1.17778e-20)
(0.035817 -0.0515029 0)
(0.0471761 -0.0468914 0)
(0.0543921 -0.0414571 0)
(0.0567434 -0.035415 1.14148e-20)
(0.0543158 -0.0289193 0)
(0.04671 -0.0220815 0)
(0.0338234 -0.0150058 0)
(0.0151964 -0.00774221 0)
(-0.00962653 -0.000225383 -1.09293e-20)
(-0.0412786 0.00763513 0)
(-0.0804389 0.0159916 0)
(-0.127932 0.0248913 0)
(-0.184573 0.0343238 0)
(-0.251313 0.0439905 -1.04302e-20)
(-0.329125 0.0537616 0)
(-0.419071 0.06332 0)
(-0.521739 0.0726178 0)
(-0.637529 0.0814251 0)
(-0.766855 0.0895902 0)
(-0.910159 0.0983494 0)
(-1.06808 0.11119 0)
(-1.24039 0.134948 -9.67774e-21)
(-1.42778 0.169177 9.58191e-21)
(-1.63071 0.192164 -9.48254e-21)
(-1.837 0.196914 -9.37703e-21)
(-2.03918 0.195849 0)
(-2.23613 0.190528 0)
(-2.42414 0.181352 9.02132e-21)
(-2.60105 0.169595 8.89343e-21)
(-2.76486 0.155852 0)
(-2.91387 0.140571 0)
(-3.04657 0.124059 8.50687e-21)
(-3.16151 0.106575 0)
(-3.2574 0.0883112 0)
(-3.33303 0.0694638 -8.15965e-21)
(-3.38733 0.0502238 0)
(-3.41939 0.0307916 -7.97752e-21)
(-3.42853 0.0113808 -1.58132e-20)
(-3.4143 -0.00778358 0)
(-3.37647 -0.0264642 0)
(-3.31508 -0.0444206 0)
(-3.2308 -0.0614113 0)
(-3.12456 -0.0771979 0)
(-2.99729 -0.0915038 -1.56293e-20)
(-2.85055 -0.104172 -1.57038e-20)
(-2.68662 -0.115195 -1.58007e-20)
(-2.50723 -0.124596 0)
(-2.31445 -0.132419 1.60428e-20)
(-2.11037 -0.138691 0)
(-1.89699 -0.143413 -1.63172e-20)
(-1.67627 -0.146758 -1.64551e-20)
(-1.45009 -0.148771 0)
(-1.22009 -0.149646 0)
(-0.987733 -0.149521 0)
(-0.754337 -0.148523 -1.69316e-20)
(-0.521066 -0.14677 0)
(-0.289065 -0.144372 0)
(-0.0592568 -0.141358 0)
(0.167435 -0.137841 0)
(0.390126 -0.133857 0)
(0.608174 -0.129526 0)
(0.820968 -0.124925 0)
(1.02808 -0.120168 0)
(1.22926 -0.115271 1.71675e-20)
(1.42428 -0.110378 0)
(1.6129 -0.105398 0)
(1.795 -0.100426 -1.69791e-20)
(1.97035 -0.0953827 -1.68921e-20)
(2.13864 -0.0902908 0)
(2.29962 -0.0850892 1.66857e-20)
(2.45304 -0.079856 -1.65678e-20)
(2.59868 -0.074579 0)
(2.73638 -0.0693459 1.63071e-20)
(2.86604 -0.0641742 0)
(2.98765 -0.0591408 0)
(3.10137 -0.0542965 -1.58687e-20)
(3.2075 -0.0496622 0)
(3.30633 -0.0452789 1.55569e-20)
(3.39814 -0.0411629 0)
(3.48329 -0.0373217 -1.52378e-20)
(3.56215 -0.0337546 -1.5077e-20)
(3.6351 -0.0304554 -1.49161e-20)
(3.70252 -0.0274133 -2.95108e-20)
(3.76477 -0.0246153 2.91904e-20)
(3.82221 -0.0220467 0)
(3.87517 -0.0196918 0)
(3.92395 -0.0175352 0)
(3.96886 -0.0155613 2.79278e-20)
(4.01015 -0.0137556 2.76182e-20)
(4.04809 -0.012104 -2.73114e-20)
(4.08288 -0.0105937 0)
(4.11476 -0.00921281 2.67063e-20)
(4.1439 -0.00795041 2.64082e-20)
(4.1705 -0.0067969 2.6113e-20)
(4.19472 -0.00574381 0)
(4.2167 -0.00478366 0)
(4.2366 -0.00390986 0)
(4.25455 -0.00311655 2.49618e-20)
(4.27068 -0.00239851 0)
(4.28511 -0.00175103 0)
(4.29796 -0.00116983 -2.41284e-20)
(4.30934 -0.000651039 0)
(4.31935 -0.000190744 0)
(4.3281 0.000214524 -2.33196e-20)
(4.33568 0.000569086 0)
(4.34219 0.000876095 0)
(4.34773 0.00114126 2.2534e-20)
(4.35236 0.00136896 2.22771e-20)
(4.35619 0.00156708 0)
(4.35923 0.00174292 -2.17703e-20)
(4.36157 0.00189489 0)
(4.36327 0.00201696 2.12727e-20)
(4.36442 0.00210848 0)
(4.36508 0.00217255 2.07838e-20)
(4.36532 0.00221292 2.05426e-20)
(4.36518 0.00223189 0)
(4.36472 0.00223125 0)
(4.36399 0.0022153 0)
(4.36302 0.00218799 0)
(4.36185 0.00215221 0)
(4.36051 0.00211029 0)
(4.35902 0.00206394 0)
(4.35741 0.00201452 1.86835e-20)
(4.35569 0.00196325 -1.84595e-20)
(4.35388 0.00191112 0)
(4.352 0.00185886 0)
(4.35006 0.00180704 0)
(4.34807 0.00175604 0)
(4.34603 0.00170615 -3.47296e-20)
(4.34396 0.00165749 0)
(4.34187 0.00161006 3.38766e-20)
(4.33975 0.00156379 -3.34548e-20)
(4.33762 0.00151872 0)
(4.33548 0.00147487 0)
(4.33333 0.00143214 0)
(4.33117 0.00139016 3.17976e-20)
(4.32902 0.00134842 3.13906e-20)
(4.32688 0.00130664 0)
(4.32474 0.00126494 3.05852e-20)
(4.32261 0.00122399 3.01866e-20)
(4.3205 0.00118471 -2.97908e-20)
(4.3184 0.00114801 0)
(4.31631 0.00111446 0)
(4.31423 0.00108428 -2.86193e-20)
(4.31215 0.00105734 0)
(4.31007 0.00103339 0)
(4.30799 0.00101213 0)
(4.3059 0.000993419 0)
(4.30379 0.000977153 2.67184e-20)
(4.30167 0.000963422 2.63457e-20)
(4.29953 0.000952262 0)
(4.29736 0.000943965 2.56075e-20)
(4.29516 0.000938571 0)
(4.29292 0.000936666 0)
(4.29064 0.000938214 2.4518e-20)
(4.28829 0.000944388 0)
(4.28587 0.000954938 2.38034e-20)
(4.28336 0.000972151 0)
(4.28074 0.000995358 0)
(4.278 0.00102868 2.27488e-20)
(4.27506 0.00107114 0)
(4.27197 0.00112881 2.20575e-20)
(4.26852 0.00120308 0)
(4.26489 0.00129741 0)
(4.26059 0.00142979 0)
(4.2561 0.00157544 -2.0705e-20)
(4.25035 0.0018281 0)
(4.24448 0.00202853 2.00458e-20)
(4.23622 0.00256626 0)
(4.22787 0.00275595 0)
(4.21522 0.0040563 0)
(4.20175 0.0038939 0)
(4.18165 0.00744756 0)
(4.15505 0.0056387 0)
(4.12322 0.0165988 0)
(4.05443 0.00933231 -3.53015e-20)
(4.00528 0.0512726 0)
(3.77291 0.0422133 0)
(-0.0160373 -0.0102703 -3.5585e-20)
(-0.0644568 -0.0166326 3.53413e-20)
(-0.10954 -0.0062181 0)
(-0.159073 0.00822431 -2.3204e-20)
(-0.209904 0.0222441 0)
(-0.263042 0.0360285 -1.14182e-20)
(-0.31819 0.0496232 2.2646e-20)
(-0.375827 0.0634787 2.24539e-20)
(-0.43633 0.0780592 0)
(-0.500306 0.0938073 2.20615e-20)
(-0.568549 0.111066 1.09326e-20)
(-0.642029 0.13004 0)
(-0.721687 0.151078 0)
(-0.808521 0.174497 0)
(-0.903408 0.200707 0)
(-1.00762 0.229677 1.04338e-20)
(-1.12219 0.260609 0)
(-1.24734 0.29245 -2.04537e-20)
(-1.38422 0.32562 0)
(-1.53199 0.36205 0)
(-1.6903 0.401123 1.98736e-20)
(-1.85885 0.438035 0)
(-2.03228 0.468395 -1.94804e-20)
(-2.2022 0.489952 9.68385e-21)
(-2.3652 0.500997 -9.58834e-21)
(-2.5228 0.500084 9.48905e-21)
(-2.67316 0.488992 9.3834e-21)
(-2.81552 0.470428 0)
(-2.94944 0.44553 0)
(-3.07368 0.415796 -9.02736e-21)
(-3.18754 0.382163 8.73015e-21)
(-3.29007 0.345362 0)
(-3.38046 0.305798 0)
(-3.45774 0.263795 -8.51233e-21)
(-3.52095 0.219571 0)
(-3.56909 0.173352 0)
(-3.6011 0.125389 8.16432e-21)
(-3.61599 0.0759991 0)
(-3.61283 0.0255621 -7.80775e-21)
(-3.59079 -0.025466 1.58205e-20)
(-3.54925 -0.0765506 0)
(-3.48784 -0.127074 0)
(-3.40642 -0.176331 3.08469e-20)
(-3.30493 -0.223601 3.08338e-20)
(-3.18362 -0.268096 3.08869e-20)
(-3.04349 -0.309104 -1.53683e-20)
(-2.88553 -0.346058 1.57076e-20)
(-2.71061 -0.378723 4.71887e-20)
(-2.52066 -0.406757 -3.16337e-20)
(-2.31761 -0.430126 -1.60461e-20)
(-2.10352 -0.448731 0)
(-1.88047 -0.462735 1.63201e-20)
(-1.6505 -0.472411 -1.63259e-20)
(-1.41543 -0.478189 0)
(-1.17698 -0.480498 0)
(-0.936512 -0.479818 0)
(-0.695264 -0.476594 1.69333e-20)
(-0.454357 -0.471171 0)
(-0.214833 -0.463832 -3.41187e-20)
(0.0224075 -0.454742 0)
(0.25642 -0.444137 -3.43317e-20)
(0.486316 -0.432158 0)
(0.711404 -0.419099 3.44119e-20)
(0.931095 -0.405249 0)
(1.14502 -0.39088 -3.4363e-20)
(1.35297 -0.37622 1.71259e-20)
(1.55478 -0.361474 0)
(1.75034 -0.346628 3.40735e-20)
(1.9395 -0.331685 1.6979e-20)
(2.1221 -0.316601 1.68919e-20)
(2.29783 -0.301239 0)
(2.46639 -0.285631 1.66626e-20)
(2.62746 -0.2698 1.65675e-20)
(2.78083 -0.253825 0)
(2.9263 -0.237894 -1.63067e-20)
(3.06379 -0.222178 3.23167e-20)
(3.19327 -0.206851 0)
(3.31494 -0.192082 1.58683e-20)
(3.42915 -0.177944 0)
(3.53617 -0.164546 -4.66586e-20)
(3.63632 -0.151935 0)
(3.72997 -0.140129 4.57028e-20)
(3.81749 -0.129123 1.50766e-20)
(3.89928 -0.118897 -1.49077e-20)
(3.97568 -0.109419 -2.94952e-20)
(4.04708 -0.100648 2.9176e-20)
(4.11379 -0.0925421 0)
(4.17614 -0.0850544 0)
(4.23442 -0.0781391 0)
(4.28892 -0.0717511 -8.3771e-20)
(4.33988 -0.0658474 -2.76173e-20)
(4.38754 -0.0603876 2.73105e-20)
(4.43211 -0.0553342 0)
(4.4738 -0.0506531 2.66983e-20)
(4.51277 -0.0463135 -2.64072e-20)
(4.54921 -0.0422877 -2.6112e-20)
(4.58325 -0.0385511 0)
(4.61505 -0.0350819 0)
(4.64473 -0.0318609 0)
(4.67241 -0.0288713 -2.49607e-20)
(4.69822 -0.0260983 0)
(4.72224 -0.0235288 4.8801e-20)
(4.7446 -0.0211512 7.23785e-20)
(4.76537 -0.0189551 -4.77069e-20)
(4.78467 -0.0169309 0)
(4.80256 -0.0150698 -2.33158e-20)
(4.81914 -0.0133627 0)
(4.83448 -0.0118015 -4.55821e-20)
(4.84867 -0.0103765 2.25307e-20)
(4.86179 -0.00907843 2.22739e-20)
(4.87389 -0.00789674 0)
(4.8851 -0.00682164 6.53055e-20)
(4.89548 -0.00585033 -4.30367e-20)
(4.90508 -0.00498312 -2.12714e-20)
(4.91395 -0.00421565 0)
(4.92213 -0.00353887 -2.07825e-20)
(4.92968 -0.00294303 -6.16226e-20)
(4.93663 -0.00241866 0)
(4.94301 -0.00195689 -4.01288e-20)
(4.94888 -0.00155213 -3.96585e-20)
(4.95427 -0.00119961 -3.91921e-20)
(4.95921 -0.000893832 0)
(4.96374 -0.000628766 0)
(4.96789 -0.000399424 0)
(4.97169 -0.000201564 1.86817e-20)
(4.97518 -3.1407e-05 1.84581e-20)
(4.97836 0.000114426 0)
(4.98127 0.000238973 3.60301e-20)
(4.98394 0.000344991 3.55923e-20)
(4.98637 0.000434812 0)
(4.9886 0.000510511 3.47269e-20)
(4.99063 0.000573824 6.85971e-20)
(4.99249 0.000626304 -3.38739e-20)
(4.99419 0.000669227 -3.34517e-20)
(4.99573 0.000703795 0)
(4.99715 0.000731015 0)
(4.99844 0.000751784 0)
(4.99961 0.000766739 -3.1795e-20)
(5.00068 0.000776388 3.13878e-20)
(5.00166 0.000781229 6.19677e-20)
(5.00254 0.000781942 -3.05827e-20)
(5.00334 0.000779515 3.01839e-20)
(5.00407 0.000775147 2.97883e-20)
(5.00472 0.000770134 0)
(5.00531 0.000765605 0)
(5.00584 0.000762445 -2.86168e-20)
(5.00631 0.000761183 0)
(5.00672 0.000762102 0)
(5.00708 0.00076527 5.49376e-20)
(5.00738 0.000770723 0)
(5.00763 0.000778479 2.6716e-20)
(5.00783 0.000788719 -2.63434e-20)
(5.00797 0.000801689 0)
(5.00806 0.000817917 2.56051e-20)
(5.00809 0.000837995 0)
(5.00807 0.000862923 0)
(5.00799 0.000893761 -2.45159e-20)
(5.00784 0.000932138 4.83146e-20)
(5.00762 0.000979936 -2.38013e-20)
(5.00732 0.0010395 0)
(5.00694 0.00111462 0)
(5.00643 0.00120772 2.27464e-20)
(5.00581 0.00132799 0)
(5.00501 0.00147405 2.2055e-20)
(5.00404 0.00167177 0)
(5.00277 0.00189999 0)
(5.00127 0.00223828 0)
(4.99924 0.00258834 2.0703e-20)
(4.99689 0.00320243 0)
(4.99353 0.00371331 -2.00438e-20)
(4.98981 0.00492331 0)
(4.98402 0.00557894 0)
(4.97803 0.00821721 3.81641e-20)
(4.96743 0.00875986 -3.7544e-20)
(4.9575 0.015201 0)
(4.9367 0.0146699 0)
(4.91918 0.0327228 0)
(4.87553 0.0300067 1.05812e-19)
(4.84478 0.0930125 0)
(4.76394 0.105093 -6.85674e-20)
(-0.032679 0.134071 1.0412e-23)
(-0.121383 0.14217 -4.71196e-20)
(-0.203138 0.15042 0)
(-0.287979 0.163422 4.6409e-20)
(-0.371868 0.1755 0)
(-0.456731 0.188667 0)
(-0.542495 0.202967 -5.84768e-24)
(-0.63 0.218969 -2.24591e-20)
(-0.719707 0.237213 -2.22604e-20)
(-0.812284 0.258397 -2.2067e-20)
(-0.908373 0.283154 0)
(-1.00858 0.311764 0)
(-1.11349 0.34422 2.14599e-20)
(-1.22362 0.380536 4.25109e-20)
(-1.33901 0.420796 -4.21004e-20)
(-1.45966 0.464853 0)
(-1.58569 0.511721 -4.12787e-20)
(-1.71662 0.55948 2.04608e-20)
(-1.85085 0.6058 0)
(-1.98597 0.648247 -4.00426e-20)
(-2.12012 0.684233 -1.98808e-20)
(-2.25215 0.711616 3.92019e-20)
(-2.38039 0.729479 1.9487e-20)
(-2.50329 0.737582 0)
(-2.62071 0.735393 -3.78628e-20)
(-2.73351 0.722611 -3.73885e-20)
(-2.84236 0.700247 0)
(-2.94809 0.669804 -3.6392e-20)
(-3.05089 0.63268 0)
(-3.15065 0.59004 -3.53396e-20)
(-3.24667 0.542559 -1.76336e-20)
(-3.33774 0.490593 0)
(-3.42226 0.434244 0)
(-3.49821 0.373564 0)
(-3.56344 0.308603 0)
(-3.61575 0.239562 0)
(-3.65304 0.166761 0)
(-3.67338 0.0906808 -3.13797e-20)
(-3.67511 0.011963 4.68312e-20)
(-3.65684 -0.0685775 0)
(-3.61749 -0.149922 0)
(-3.5563 -0.230922 0)
(-3.47292 -0.310308 -5.1798e-22)
(-3.36737 -0.386881 -3.08386e-20)
(-3.24024 -0.459463 -6.13068e-20)
(-3.0927 -0.527021 6.15622e-20)
(-2.92645 -0.588508 3.07563e-20)
(-2.74324 -0.643025 -3.13882e-20)
(-2.54508 -0.68977 3.49361e-22)
(-2.33422 -0.728355 -3.15973e-20)
(-2.11293 -0.758707 0)
(-1.88357 -0.781122 -3.22456e-20)
(-1.64831 -0.796124 2.2243e-22)
(-1.40907 -0.804562 0)
(-1.16738 -0.807271 0)
(-0.924529 -0.805099 3.34035e-20)
(-0.681521 -0.798854 0)
(-0.439173 -0.78913 0)
(-0.198336 -0.776338 -3.38682e-20)
(0.0401717 -0.760753 -6.82529e-20)
(0.275412 -0.742619 3.43313e-20)
(0.506379 -0.722177 0)
(0.732165 -0.699886 -3.4411e-20)
(0.952112 -0.676293 0)
(1.16583 -0.651941 -3.42089e-20)
(1.37318 -0.627312 -3.42922e-20)
(1.57419 -0.602625 6.82586e-20)
(1.76891 -0.57803 3.3951e-20)
(1.95727 -0.553338 0)
(2.13921 -0.528417 -6.74081e-20)
(2.31437 -0.503015 0)
(2.48232 -0.477131 -9.99612e-20)
(2.64274 -0.450774 -6.61567e-20)
(2.79528 -0.424107 -6.56623e-20)
(2.93964 -0.39749 6.51351e-20)
(3.07575 -0.371235 -9.68948e-20)
(3.20361 -0.345712 0)
(3.32352 -0.32114 0)
(3.43586 -0.29771 6.2789e-20)
(3.54096 -0.275568 9.32662e-20)
(3.63922 -0.254783 0)
(3.73106 -0.235369 -3.04645e-20)
(3.8169 -0.217305 0)
(3.89716 -0.200544 8.94412e-20)
(3.97222 -0.185025 2.4679e-23)
(4.04247 -0.170677 -2.27356e-23)
(4.10823 -0.157424 -5.7707e-20)
(4.16982 -0.14519 0)
(4.22753 -0.133897 5.64491e-20)
(4.28162 -0.123471 1.62661e-23)
(4.33233 -0.113838 0)
(4.37988 -0.104933 0)
(4.42448 -0.096693 0)
(4.46632 -0.0890607 -5.34032e-20)
(4.50556 -0.081985 0)
(4.54237 -0.0754196 0)
(4.57689 -0.0693232 0)
(4.60926 -0.063659 0)
(4.6396 -0.0583946 0)
(4.66803 -0.0535015 -4.991e-20)
(4.69466 -0.0489544 0)
(4.71958 -0.0447312 -4.88008e-20)
(4.7429 -0.0408121 -4.8251e-20)
(4.7647 -0.0371793 4.77067e-20)
(4.78506 -0.0338168 0)
(4.80408 -0.0307097 4.6634e-20)
(4.82182 -0.027844 0)
(4.83836 -0.025206 4.55819e-20)
(4.85377 -0.0227826 -4.50634e-20)
(4.86813 -0.0205609 -1.33643e-19)
(4.88148 -0.0185297 0)
(4.89391 -0.0166786 -1.30604e-19)
(4.90545 -0.0149958 -4.30322e-20)
(4.91617 -0.013469 0)
(4.92613 -0.0120861 -8.40971e-20)
(4.93537 -0.0108345 -8.31241e-20)
(4.94393 -0.00970193 1.23241e-19)
(4.95187 -0.00867579 0)
(4.95924 -0.00774508 4.01287e-20)
(4.96605 -0.00690358 3.96584e-20)
(4.97236 -0.00614563 1.17574e-19)
(4.97819 -0.00546416 0)
(4.98358 -0.00485214 0)
(4.98856 -0.0043025 0)
(4.99316 -0.00380868 3.73623e-20)
(4.99739 -0.00336508 0)
(5.0013 -0.00296705 0)
(5.0049 -0.00261027 -3.60299e-20)
(5.00821 -0.0022907 -3.55921e-20)
(5.01126 -0.00200466 0)
(5.01406 -0.0017488 0)
(5.01664 -0.00152021 -6.85967e-20)
(5.01901 -0.00131624 0)
(5.02118 -0.00113452 6.69034e-20)
(5.02318 -0.000972841 6.60655e-20)
(5.02501 -0.000829211 0)
(5.02669 -0.000701882 0)
(5.02823 -0.000589402 -6.3589e-20)
(5.02964 -0.00049047 -3.30677e-25)
(5.03093 -0.00040377 -2.9852e-25)
(5.03212 -0.000327805 0)
(5.0332 -0.000260884 -1.20735e-19)
(5.03418 -0.000201248 0)
(5.03508 -0.000147196 0)
(5.0359 -9.72074e-05 0)
(5.03665 -4.99489e-05 5.72332e-20)
(5.03733 -4.29985e-06 0)
(5.03794 4.06702e-05 -1.11395e-19)
(5.0385 8.56914e-05 -5.49372e-20)
(5.039 0.000131306 0)
(5.03946 0.000177959 -5.34317e-20)
(5.03986 0.000226015 0)
(5.04021 0.000276026 0)
(5.04052 0.000328562 -1.5363e-19)
(5.04078 0.00038482 1.00958e-19)
(5.04099 0.000445811 0)
(5.04114 0.000513975 9.80618e-20)
(5.04124 0.000590647 -4.83142e-20)
(5.04128 0.000680626 0)
(5.04125 0.000784794 0)
(5.04113 0.000913116 0)
(5.04091 0.00106336 -1.36478e-19)
(5.04058 0.00125797 0)
(5.04009 0.00148322 -4.41101e-20)
(5.03944 0.00179337 0)
(5.03852 0.00213823 0)
(5.03738 0.00265573 0)
(5.03576 0.00318727 0)
(5.03381 0.00409492 0)
(5.03101 0.00490973 0)
(5.02773 0.0065992 -7.88666e-20)
(5.02281 0.00782923 0)
(5.01723 0.0112091 -3.81637e-20)
(5.00841 0.0130534 1.12615e-19)
(4.99863 0.020452 0)
(4.9824 0.0235868 0)
(4.96467 0.0420202 -7.15248e-20)
(4.93559 0.051124 -7.05135e-20)
(4.906 0.104857 6.93685e-20)
(4.86876 0.142499 6.85661e-20)
(-0.0396309 0.32136 7.11113e-20)
(-0.144273 0.341603 7.06267e-20)
(-0.240617 0.34811 4.67175e-20)
(-0.340941 0.361471 2.31569e-20)
(-0.44047 0.373749 0)
(-0.541302 0.387797 -4.56337e-20)
(-0.643018 0.403728 2.26104e-20)
(-0.746402 0.422315 0)
(-0.851651 0.444066 2.22656e-20)
(-0.959131 0.469428 0)
(-1.06892 0.498578 -4.37108e-20)
(-1.181 0.531764 0)
(-1.29535 0.569052 -2.14656e-20)
(-1.41199 0.610204 -4.25224e-20)
(-1.53054 0.654502 4.2112e-20)
(-1.65017 0.700761 0)
(-1.76999 0.747314 4.12902e-20)
(-1.88909 0.792153 0)
(-2.00647 0.833224 0)
(-2.12124 0.868536 4.0053e-20)
(-2.23289 0.896347 0)
(-2.34142 0.91546 -2.09079e-22)
(-2.44724 0.925527 0)
(-2.55133 0.926611 0)
(-2.65499 0.918836 3.358e-22)
(-2.75945 0.902548 3.73967e-20)
(-2.86557 0.878393 3.64822e-20)
(-2.97368 0.846887 3.64003e-20)
(-3.08332 0.808239 0)
(-3.19321 0.762285 7.01467e-20)
(-3.30123 0.708642 0)
(-3.40468 0.646867 3.36433e-20)
(-3.50042 0.576641 0)
(-3.58534 0.497902 0)
(-3.65656 0.410894 -3.19855e-20)
(-3.71161 0.316191 0)
(-3.7485 0.214671 3.10259e-20)
(-3.76561 0.107474 7.72058e-22)
(-3.76168 -0.00404598 -6.13137e-20)
(-3.73565 -0.11839 5.9967e-20)
(-3.68676 -0.233907 0)
(-3.61464 -0.348865 0)
(-3.5194 -0.461554 2.88492e-20)
(-3.40162 -0.570317 0)
(-3.26222 -0.673451 3.04189e-20)
(-3.10239 -0.769292 -3.05596e-20)
(-2.9238 -0.855946 -3.07591e-20)
(-2.72839 -0.931822 0)
(-2.51851 -0.995989 3.12904e-20)
(-2.2969 -1.04798 3.15995e-20)
(-2.0663 -1.08794 -6.30639e-20)
(-1.82941 -1.11639 3.22472e-20)
(-1.58878 -1.13442 3.25649e-20)
(-1.34641 -1.14334 0)
(-1.10372 -1.14462 0)
(-0.861611 -1.13966 -3.34043e-20)
(-0.620528 -1.12955 0)
(-0.380593 -1.11514 0)
(-0.141999 -1.09682 6.7987e-20)
(0.0948947 -1.07473 6.82524e-20)
(0.329348 -1.04894 0)
(0.560199 -1.01967 0)
(0.78612 -0.987479 0)
(1.00603 -0.953308 0)
(1.21931 -0.918203 6.8568e-20)
(1.42586 -0.882969 -6.82365e-20)
(1.62583 -0.848047 -6.82556e-20)
(1.8195 -0.81356 -1.35866e-19)
(2.00707 -0.779197 0)