/*--------------------------------*- C++ -*----------------------------------*\
  =========                 |
  \\      /  F ield         | OpenFOAM: The Open Source CFD Toolbox
   \\    /   O peration     | Website:  https://openfoam.org
    \\  /    A nd           | Version:  10
     \\/     M anipulation  |
\*---------------------------------------------------------------------------*/
FoamFile
{
    format      ascii;
    class       surfaceScalarField;
    location    "2.03";
    object      phi;
}
// * * * * * * * * * * * * * * * * * * * * * * * * * * * * * * * * * * * * * //

dimensions      [0 3 -1 0 0 0 0];

internalField   nonuniform List<scalar> 
24170
(
1.45874e-09
-1.45874e-09
2.70723e-09
-1.24849e-09
3.69495e-09
-9.87718e-10
4.4409e-09
-7.45948e-10
4.99423e-09
-5.53334e-10
5.40805e-09
-4.13821e-10
5.7281e-09
-3.20051e-10
5.99037e-09
-2.62268e-10
6.22256e-09
-2.32189e-10
6.44679e-09
-2.24233e-10
6.68262e-09
-2.35826e-10
6.95041e-09
-2.67789e-10
7.27609e-09
-3.25683e-10
7.6999e-09
-4.23812e-10
8.29722e-09
-5.97313e-10
9.24256e-09
-9.45341e-10
1.10767e-08
-1.83415e-09
-5.23775e-09
1.63145e-08
1.65419e-09
-3.11293e-09
3.06403e-09
-2.65833e-09
4.17267e-09
-2.09636e-09
5.00411e-09
-1.57739e-09
5.61631e-09
-1.16553e-09
6.0708e-09
-8.68305e-10
6.41996e-09
-6.69211e-10
6.70463e-09
-5.46941e-10
6.95598e-09
-4.83541e-10
7.19867e-09
-4.66921e-10
7.45424e-09
-4.91395e-10
7.7448e-09
-5.58355e-10
8.09793e-09
-6.78808e-10
8.55498e-09
-8.80861e-10
9.18879e-09
-1.23113e-09
1.01455e-08
-1.90207e-09
1.17235e-08
-3.41211e-09
-7.50829e-09
1.3994e-08
1.84936e-09
-4.96229e-09
3.41653e-09
-4.22551e-09
4.63908e-09
-3.3189e-09
5.54806e-09
-2.48637e-09
6.21174e-09
-1.82921e-09
6.70064e-09
-1.35721e-09
7.07378e-09
-1.04235e-09
7.37652e-09
-8.49687e-10
7.64306e-09
-7.5008e-10
7.90006e-09
-7.23918e-10
8.17035e-09
-7.61691e-10
8.47669e-09
-8.64693e-10
8.84612e-09
-1.04824e-09
9.31629e-09
-1.35103e-09
9.94492e-09
-1.85976e-09
1.08168e-08
-2.77397e-09
1.1975e-08
-4.57033e-09
-8.27686e-09
1.27436e-08
2.06658e-09
-7.02887e-09
3.80363e-09
-5.96255e-09
5.14359e-09
-4.65886e-09
6.12828e-09
-3.47107e-09
6.83943e-09
-2.54035e-09
7.3583e-09
-1.87608e-09
7.75125e-09
-1.4353e-09
8.06828e-09
-1.16672e-09
8.3464e-09
-1.0282e-09
8.61386e-09
-9.91373e-10
8.89412e-09
-1.04195e-09
9.20944e-09
-1.18001e-09
9.5842e-09
-1.42301e-09
1.00481e-08
-1.81488e-09
1.06356e-08
-2.44728e-09
1.13651e-08
-3.50347e-09
1.21178e-08
-5.32307e-09
-8.33571e-09
1.21767e-08
2.31948e-09
-9.34835e-09
4.24703e-09
-7.89011e-09
5.71103e-09
-6.12286e-09
6.76987e-09
-4.5299e-09
7.52348e-09
-3.29397e-09
8.06657e-09
-2.41916e-09
8.47386e-09
-1.84259e-09
8.8002e-09
-1.49307e-09
9.08519e-09
-1.31318e-09
9.35816e-09
-1.26435e-09
9.64248e-09
-1.32627e-09
9.95867e-09
-1.4962e-09
1.03265e-08
-1.79087e-09
1.07647e-08
-2.25305e-09
1.12824e-08
-2.96496e-09
1.18452e-08
-4.06629e-09
1.22689e-08
-5.74676e-09
-8.07862e-09
1.20118e-08
2.62318e-09
-1.19715e-08
4.76924e-09
-1.00362e-08
6.36497e-09
-7.71859e-09
7.49443e-09
-5.65937e-09
8.28276e-09
-4.0823e-09
8.84162e-09
-2.97803e-09
9.2555e-09
-2.25647e-09
9.58427e-09
-1.82184e-09
9.86975e-09
-1.59866e-09
1.01418e-08
-1.53638e-09
1.04227e-08
-1.60721e-09
1.07303e-08
-1.80375e-09
1.10781e-08
-2.13872e-09
1.14728e-08
-2.64772e-09
1.19013e-08
-3.39343e-09
1.22977e-08
-4.46272e-09
1.24773e-08
-5.92634e-09
-7.69166e-09
1.20903e-08
2.99808e-09
-1.49696e-08
5.39891e-09
-1.2437e-08
7.1335e-09
-9.45318e-09
8.32597e-09
-6.85184e-09
9.13664e-09
-4.89296e-09
9.69887e-09
-3.54025e-09
1.01084e-08
-2.66599e-09
1.04301e-08
-2.14359e-09
1.07076e-08
-1.87617e-09
1.09705e-08
-1.79919e-09
1.1239e-08
-1.8758e-09
1.15272e-08
-2.09195e-09
1.1842e-08
-2.45343e-09
1.21784e-08
-2.98417e-09
1.25077e-08
-3.72275e-09
1.27528e-08
-4.70783e-09
1.27604e-08
-5.93387e-09
-7.25871e-09
1.23274e-08
3.47395e-09
-1.84436e-08
6.17567e-09
-1.51387e-08
8.05312e-09
-1.13306e-08
9.29375e-09
-8.09246e-09
1.01073e-08
-5.70655e-09
1.06549e-08
-4.08777e-09
1.10448e-08
-3.05593e-09
1.13469e-08
-2.44568e-09
1.16055e-08
-2.13474e-09
1.18488e-08
-2.04251e-09
1.20945e-08
-2.12152e-09
1.23519e-08
-2.3494e-09
1.26212e-08
-2.72274e-09
1.28887e-08
-3.25158e-09
1.31169e-08
-3.95096e-09
1.32321e-08
-4.8231e-09
1.31216e-08
-5.82331e-09
-6.81543e-09
1.26783e-08
4.09651e-09
-2.25401e-08
7.15653e-09
-1.81987e-08
9.17297e-09
-1.33471e-08
1.04347e-08
-9.35419e-09
1.12212e-08
-6.49307e-09
1.17281e-08
-4.59469e-09
1.20778e-08
-3.40555e-09
1.23436e-08
-2.71152e-09
1.25694e-08
-2.36056e-09
1.27809e-08
-2.25402e-09
1.2992e-08
-2.33259e-09
1.3207e-08
-2.56442e-09
1.34202e-08
-2.9359e-09
1.36118e-08
-3.44318e-09
1.37426e-08
-4.08178e-09
1.37503e-08
-4.83082e-09
1.35591e-08
-5.63213e-09
-6.3755e-09
1.31192e-08
4.9391e-09
-2.74792e-08
8.42613e-09
-2.16858e-08
1.05605e-08
-1.54814e-08
1.17959e-08
-1.05896e-08
1.25097e-08
-7.20687e-09
1.29395e-08
-5.0245e-09
1.3221e-08
-3.6871e-09
1.34294e-08
-2.91987e-09
1.36055e-08
-2.53667e-09
1.37708e-08
-2.41935e-09
1.39344e-08
-2.49621e-09
1.40957e-08
-2.72568e-09
1.42439e-08
-3.08412e-09
1.43565e-08
-3.55575e-09
1.43969e-08
-4.12219e-09
1.4317e-08
-4.75096e-09
1.407e-08
-5.38509e-09
-5.94285e-09
1.36373e-08
6.12512e-09
-3.36043e-08
1.01134e-08
-2.5674e-08
1.23088e-08
-1.76769e-08
1.34367e-08
-1.17175e-08
1.40093e-08
-7.77939e-09
1.43113e-08
-5.32656e-09
1.44885e-08
-3.86431e-09
1.46129e-08
-3.04428e-09
1.47192e-08
-2.64292e-09
1.48222e-08
-2.52233e-09
1.4925e-08
-2.59902e-09
1.50218e-08
-2.82252e-09
1.50984e-08
-3.16068e-09
1.51314e-08
-3.58881e-09
1.50897e-08
-4.08044e-09
1.49385e-08
-4.59976e-09
1.46513e-08
-5.09787e-09
-5.51722e-09
1.42256e-08
6.53231e-09
-4.01366e-08
1.03366e-08
-2.94783e-08
1.21402e-08
-1.94804e-08
1.29046e-08
-1.24819e-08
1.32003e-08
-8.07515e-09
1.33032e-08
-5.42942e-09
1.3336e-08
-3.89714e-09
1.3351e-08
-3.05926e-09
1.33683e-08
-2.66024e-09
1.33931e-08
-2.54708e-09
1.3422e-08
-2.628e-09
1.34462e-08
-2.84668e-09
1.34513e-08
-3.16577e-09
1.34183e-08
-3.55584e-09
1.33253e-08
-3.98739e-09
1.31514e-08
-4.42586e-09
1.28843e-08
-4.83076e-09
-5.16058e-09
1.25276e-08
9.70716e-09
-4.98437e-08
1.45294e-08
-3.43005e-08
1.63373e-08
-2.12883e-08
1.68342e-08
-1.29788e-08
1.68531e-08
-8.0941e-09
1.67327e-08
-5.30903e-09
1.65971e-08
-3.76156e-09
1.64857e-08
-2.94785e-09
1.64054e-08
-2.57991e-09
1.63503e-08
-2.49198e-09
1.63088e-08
-2.58647e-09
1.62654e-08
-2.80335e-09
1.62019e-08
-3.10226e-09
1.60977e-08
-3.45159e-09
1.59322e-08
-3.82193e-09
1.56892e-08
-4.18288e-09
1.53619e-08
-4.50346e-09
-4.75588e-09
1.49572e-08
1.5672e-08
-6.55157e-08
2.14424e-08
-4.0071e-08
2.26122e-08
-2.24581e-08
2.23189e-08
-1.26855e-08
2.1718e-08
-7.49319e-09
2.11567e-08
-4.74767e-09
2.07111e-08
-3.31596e-09
2.03766e-08
-2.61338e-09
2.01285e-08
-2.33186e-09
1.99396e-08
-2.30303e-09
1.97837e-08
-2.43053e-09
1.9636e-08
-2.65572e-09
1.94731e-08
-2.9393e-09
1.92728e-08
-3.25129e-09
1.90166e-08
-3.56572e-09
1.86923e-08
-3.85859e-09
1.82972e-08
-4.1084e-09
-4.29826e-09
1.78396e-08
2.86697e-08
-9.41855e-08
3.36998e-08
-4.51011e-08
3.22892e-08
-2.10476e-08
3.00488e-08
-1.0445e-08
2.81952e-08
-5.63964e-09
2.68368e-08
-3.38925e-09
2.58675e-08
-2.34665e-09
2.51719e-08
-1.91778e-09
2.46602e-08
-1.82015e-09
2.42663e-08
-1.90912e-09
2.39407e-08
-2.10494e-09
2.36449e-08
-2.35991e-09
2.3348e-08
-2.64239e-09
2.30256e-08
-2.9289e-09
2.26602e-08
-3.20031e-09
2.22422e-08
-3.4406e-09
2.17709e-08
-3.63711e-09
-3.78133e-09
2.1254e-08
6.32554e-08
-1.57441e-07
5.67152e-08
-3.85609e-08
4.71321e-08
-1.14644e-08
4.06482e-08
-3.96112e-09
3.65567e-08
-1.54814e-09
3.39286e-08
-7.61186e-10
3.21791e-08
-5.97144e-10
3.09665e-08
-7.05139e-10
3.0087e-08
-9.40633e-10
2.94133e-08
-1.23551e-09
2.88616e-08
-1.5532e-09
2.83739e-08
-1.87218e-09
2.79093e-08
-2.17782e-09
2.74395e-08
-2.45909e-09
2.69464e-08
-2.70721e-09
2.64212e-08
-2.91538e-09
2.58631e-08
-3.07904e-09
-3.19623e-09
2.5278e-08
1.83064e-07
1.59089e-07
9.6889e-08
4.76143e-08
6.66615e-08
1.8763e-08
5.33251e-08
9.37528e-09
4.63347e-08
5.44229e-09
4.22101e-08
3.36335e-09
3.95655e-08
2.04754e-09
3.77557e-08
1.10457e-09
3.64429e-08
3.72167e-10
3.54302e-08
-2.22792e-10
3.45968e-08
-7.19748e-10
3.38686e-08
-1.14398e-09
3.31966e-08
-1.50583e-09
3.25488e-08
-1.81133e-09
3.19058e-08
-2.06424e-09
3.12578e-08
-2.26733e-09
3.06021e-08
-2.4233e-09
-2.53531e-09
2.99411e-08
7.72383e-08
8.18508e-08
7.54318e-08
4.94208e-08
6.5384e-08
2.88108e-08
5.7383e-08
1.73763e-08
5.18931e-08
1.09322e-08
4.81676e-08
7.0888e-09
4.55751e-08
4.64009e-09
4.37005e-08
2.97919e-09
4.22823e-08
1.79038e-09
4.11574e-08
9.02074e-10
4.02209e-08
2.16731e-10
3.93942e-08
-3.17302e-10
3.86295e-08
-7.41136e-10
3.78993e-08
-1.08112e-09
3.71871e-08
-1.35198e-09
3.64841e-08
-1.56435e-09
3.57873e-08
-1.72654e-09
-1.84546e-09
3.50975e-08
3.59438e-08
4.5907e-08
5.01267e-08
3.52378e-08
5.3811e-08
2.51265e-08
5.36376e-08
1.75497e-08
5.23262e-08
1.22437e-08
5.08462e-08
8.56875e-09
4.94931e-08
5.99325e-09
4.83218e-08
4.15047e-09
4.73108e-08
2.80138e-09
4.64208e-08
1.79209e-09
4.56146e-08
1.02294e-09
4.48687e-08
4.28498e-10
4.41622e-08
-3.46212e-11
4.34735e-08
-3.92356e-10
4.27943e-08
-6.72811e-10
4.2121e-08
-8.91023e-10
4.14529e-08
-1.05842e-09
-1.184e-09
4.07914e-08
1.43046e-08
3.16023e-08
2.32869e-08
2.62556e-08
2.80915e-08
2.0322e-08
3.04395e-08
1.52017e-08
3.14876e-08
1.11956e-08
3.1876e-08
8.18036e-09
3.19327e-08
5.9365e-09
3.18201e-08
4.26311e-09
3.16168e-08
3.00466e-09
3.13608e-08
2.04812e-09
3.10703e-08
1.31339e-09
3.07548e-08
7.44e-10
3.04203e-08
2.99958e-10
3.00744e-08
-4.64519e-11
2.97154e-08
-3.13857e-10
2.93467e-08
-5.22357e-10
2.89717e-08
-6.83366e-10
-8.05794e-10
2.85935e-08
8.56618e-09
2.30362e-08
1.49563e-08
1.98654e-08
1.91971e-08
1.60812e-08
2.18581e-08
1.25407e-08
2.34837e-08
9.56998e-09
2.44591e-08
7.20492e-09
2.50286e-08
5.367e-09
2.53403e-08
3.95143e-09
2.5483e-08
2.86191e-09
2.55107e-08
2.02043e-09
2.54569e-08
1.36721e-09
2.53433e-08
8.57589e-10
2.51848e-08
4.58467e-10
2.49931e-08
1.45301e-10
2.47778e-08
-9.85775e-11
2.4543e-08
-2.87613e-10
2.42942e-08
-4.34508e-10
-5.47347e-10
2.40357e-08
5.78064e-09
1.72555e-08
1.04651e-08
1.5181e-08
1.3929e-08
1.26172e-08
1.63686e-08
1.01011e-08
1.80453e-08
7.89328e-09
1.91827e-08
6.06751e-09
1.99451e-08
4.60457e-09
2.04459e-08
3.45062e-09
2.07616e-08
2.54626e-09
2.09436e-08
1.83841e-09
2.10272e-08
1.28359e-09
2.10371e-08
8.47729e-10
2.09909e-08
5.04631e-10
2.09019e-08
2.34322e-10
2.07817e-08
2.157e-11
2.06373e-08
-1.43145e-10
2.04743e-08
-2.71584e-10
-3.71006e-10
2.0298e-08
4.20775e-09
1.30478e-08
7.77376e-09
1.1615e-08
1.05783e-08
9.81273e-09
1.26878e-08
7.9916e-09
1.42349e-08
6.34621e-09
1.53524e-08
4.95001e-09
1.615e-08
3.80697e-09
1.6711e-08
2.88962e-09
1.70963e-08
2.16088e-09
1.73502e-08
1.5845e-09
1.75047e-08
1.12913e-09
1.75832e-08
7.6922e-10
1.76033e-08
4.84554e-10
1.75782e-08
2.59373e-10
1.75184e-08
8.14389e-11
1.7433e-08
-5.77953e-11
1.73275e-08
-1.66036e-10
-2.5031e-10
1.72068e-08
3.21945e-09
9.82834e-09
6.02059e-09
8.81386e-09
8.30781e-09
7.5255e-09
1.00999e-08
6.19953e-09
1.14679e-08
4.97816e-09
1.24946e-08
3.92336e-09
1.32548e-08
3.04671e-09
1.38101e-08
2.33437e-09
1.42082e-08
1.7628e-09
1.44856e-08
1.30713e-09
1.46698e-08
9.44874e-10
1.47819e-08
6.57127e-10
1.48379e-08
4.28605e-10
1.485e-08
2.47195e-10
1.48281e-08
1.0338e-10
1.47804e-08
-1.01186e-11
1.47126e-08
-9.82179e-11
-1.67147e-10
1.46294e-08
2.54762e-09
7.28072e-09
4.80068e-09
6.5608e-09
6.68474e-09
5.64144e-09
8.2003e-09
4.68398e-09
9.38784e-09
3.79061e-09
1.03015e-08
3.00974e-09
1.09943e-08
2.3539e-09
1.15124e-08
1.81623e-09
1.18936e-08
1.38166e-09
1.21675e-08
1.03314e-09
1.23577e-08
7.54724e-10
1.24821e-08
5.32683e-10
1.2555e-08
3.55741e-10
1.25874e-08
2.14844e-10
1.25879e-08
1.02808e-10
1.25639e-08
1.3944e-11
1.25209e-08
-5.52573e-11
-1.0943e-10
1.24632e-08
2.06253e-09
5.21819e-09
3.90579e-09
4.71754e-09
5.47123e-09
4.07599e-09
6.75253e-09
3.40268e-09
7.77413e-09
2.76901e-09
8.57331e-09
2.21056e-09
9.18913e-09
1.73808e-09
9.65706e-09
1.34829e-09
1.00072e-08
1.03156e-09
1.02639e-08
7.7642e-10
1.04468e-08
5.71826e-10
1.05713e-08
4.08134e-10
1.06498e-08
2.77317e-10
1.06917e-08
1.72872e-10
1.07049e-08
8.96044e-11
1.06955e-08
2.33806e-11
1.06688e-08
-2.85242e-11
-6.90907e-11
1.06284e-08
1.69501e-09
3.52318e-09
3.22023e-09
3.19232e-09
4.52883e-09
2.76739e-09
5.61236e-09
2.31916e-09
6.48649e-09
1.89488e-09
7.17817e-09
1.51888e-09
7.7171e-09
1.19915e-09
8.13121e-09
9.34184e-10
8.44473e-09
7.18044e-10
8.67781e-09
5.4334e-10
8.8468e-09
4.02833e-10
8.96482e-09
2.90118e-10
9.04232e-09
1.9982e-10
9.08763e-09
1.27557e-10
9.10743e-09
6.98106e-11
9.10703e-09
2.37768e-11
9.09101e-09
-1.25013e-11
-4.079e-11
9.06271e-09
1.40488e-09
2.1183e-09
2.67477e-09
1.92243e-09
3.77166e-09
1.67049e-09
4.68697e-09
1.40385e-09
5.43134e-09
1.15051e-09
6.02508e-09
9.2514e-10
6.49142e-09
7.32813e-10
6.85268e-09
5.72918e-10
7.12862e-09
4.42104e-10
7.33588e-09
3.36086e-10
7.4881e-09
2.50613e-10
7.59633e-09
1.8189e-10
7.66943e-09
1.26713e-10
7.71453e-09
8.24604e-11
7.73732e-09
4.70196e-11
7.74239e-09
1.87021e-11
7.73362e-09
-3.73014e-12
-2.11222e-11
7.71396e-09
1.16596e-09
9.52346e-10
2.22308e-09
8.65313e-10
3.14032e-09
7.53243e-10
3.90979e-09
6.34383e-10
4.53914e-09
5.21161e-10
5.0441e-09
4.20177e-10
5.44314e-09
3.33778e-10
5.75428e-09
2.61772e-10
5.99366e-09
2.02724e-10
6.17499e-09
1.54762e-10
6.30959e-09
1.1601e-10
6.40669e-09
8.47859e-11
6.47374e-09
5.9663e-11
6.51673e-09
3.94703e-11
6.54049e-09
2.32618e-11
6.54891e-09
1.02806e-11
6.54525e-09
-6.75221e-14
-7.90283e-12
6.53203e-09
9.52346e-10
1.81766e-09
2.5709e-09
3.20529e-09
3.72645e-09
4.14662e-09
4.4804e-09
4.74217e-09
4.9449e-09
5.09966e-09
5.21567e-09
5.30046e-09
5.36012e-09
5.39959e-09
5.42285e-09
5.43313e-09
5.43307e-09
5.42516e-09
2.47841e-10
-2.47841e-10
4.97378e-10
-2.49536e-10
7.48589e-10
-2.51211e-10
1.00144e-09
-2.52852e-10
1.25588e-09
-2.54441e-10
1.51185e-09
-2.55969e-10
1.76928e-09
-2.57434e-10
2.02814e-09
-2.58855e-10
2.28842e-09
-2.60279e-10
2.5502e-09
-2.61787e-10
2.8137e-09
-2.63499e-10
3.07929e-09
-2.65581e-10
3.34753e-09
-2.6825e-10
3.6193e-09
-2.71769e-10
3.89575e-09
-2.76443e-10
4.17835e-09
-2.82602e-10
4.46892e-09
-2.90575e-10
4.76959e-09
-3.00672e-10
5.08277e-09
-3.13178e-10
5.41113e-09
-3.28359e-10
5.75758e-09
-3.46452e-10
6.12523e-09
-3.6765e-10
6.51739e-09
-3.92157e-10
6.93775e-09
-4.20358e-10
7.39083e-09
-4.53085e-10
7.88278e-09
-4.91945e-10
8.42247e-09
-5.39694e-10
9.02323e-09
-6.00753e-10
9.70532e-09
-6.82092e-10
1.05003e-08
-7.94978e-10
1.14589e-08
-9.58578e-10
1.26663e-08
-1.20746e-09
1.42741e-08
-1.6078e-09
1.65683e-08
-2.2942e-09
2.01268e-08
-3.55844e-09
2.5806e-08
-5.67927e-09
2.97258e-08
-3.91973e-09
2.75358e-08
2.18999e-09
2.59779e-08
1.5579e-09
2.4587e-08
1.39087e-09
2.34119e-08
1.17513e-09
2.24179e-08
9.93983e-10
2.15566e-08
8.61331e-10
2.07957e-08
7.60863e-10
2.01147e-08
6.81005e-10
1.9499e-08
6.15664e-10
1.89379e-08
5.61165e-10
1.8423e-08
5.14917e-10
1.79479e-08
4.75012e-10
1.75079e-08
4.40073e-10
1.70988e-08
4.09116e-10
1.67173e-08
3.81431e-10
1.63608e-08
3.56487e-10
1.6027e-08
3.33869e-10
1.57137e-08
3.13245e-10
1.54194e-08
2.94342e-10
1.51424e-08
2.76935e-10
1.48816e-08
2.60839e-10
1.46357e-08
2.45903e-10
1.44037e-08
2.32003e-10
1.41847e-08
2.19036e-10
1.39777e-08
2.06916e-10
1.37822e-08
1.95571e-10
1.35972e-08
1.8494e-10
1.34223e-08
1.74967e-10
1.32567e-08
1.65604e-10
1.30999e-08
1.56807e-10
1.29513e-08
1.48537e-10
1.28106e-08
1.40756e-10
1.26771e-08
1.33432e-10
1.25506e-08
1.26532e-10
1.24306e-08
1.20029e-10
1.23167e-08
1.13896e-10
1.22086e-08
1.08108e-10
1.21059e-08
1.02644e-10
1.20084e-08
9.74832e-11
1.19158e-08
9.26063e-11
1.18278e-08
8.79961e-11
1.17442e-08
8.36369e-11
1.16647e-08
7.95138e-11
1.15891e-08
7.56133e-11
1.15171e-08
7.19229e-11
1.14487e-08
6.84309e-11
1.13836e-08
6.51265e-11
1.13216e-08
6.19998e-11
1.12626e-08
5.90416e-11
1.12063e-08
5.62428e-11
1.11527e-08
5.35955e-11
1.11016e-08
5.10919e-11
1.10529e-08
4.87248e-11
1.10064e-08
4.64875e-11
1.0962e-08
4.43735e-11
1.09197e-08
4.23768e-11
1.08792e-08
4.04916e-11
1.08405e-08
3.87126e-11
1.08034e-08
3.70344e-11
1.0768e-08
3.54522e-11
1.0734e-08
3.39615e-11
1.07014e-08
3.25576e-11
1.06702e-08
3.12365e-11
1.06402e-08
2.9994e-11
1.06114e-08
2.88264e-11
1.05837e-08
2.77297e-11
1.0557e-08
2.67009e-11
1.05312e-08
2.57361e-11
1.05064e-08
2.48326e-11
1.04824e-08
2.39871e-11
1.04592e-08
2.31967e-11
1.04367e-08
2.24586e-11
1.0415e-08
2.17701e-11
1.03939e-08
2.11288e-11
1.03733e-08
2.05323e-11
1.03533e-08
1.9978e-11
1.03339e-08
1.94639e-11
1.03149e-08
1.89879e-11
1.02963e-08
1.85479e-11
1.02782e-08
1.81419e-11
1.02604e-08
1.77684e-11
1.0243e-08
1.74252e-11
1.02259e-08
1.7111e-11
1.02091e-08
1.68239e-11
1.01925e-08
1.65628e-11
1.01762e-08
1.63258e-11
1.01601e-08
1.61119e-11
1.01441e-08
1.59196e-11
1.01284e-08
1.57475e-11
1.01128e-08
1.5595e-11
1.00973e-08
1.54604e-11
1.0082e-08
1.53429e-11
1.00668e-08
1.52416e-11
1.00516e-08
1.51553e-11
1.00365e-08
1.50834e-11
1.00215e-08
1.50248e-11
1.00065e-08
1.49789e-11
9.99158e-09
1.49449e-11
9.97665e-09
1.49221e-11
9.96174e-09
1.49096e-11
9.94684e-09
1.49073e-11
9.93192e-09
1.49143e-11
9.91699e-09
1.493e-11
9.90204e-09
1.49542e-11
9.88705e-09
1.49862e-11
9.87203e-09
1.5026e-11
9.85695e-09
1.50729e-11
9.84183e-09
1.51268e-11
9.82664e-09
1.51873e-11
9.81138e-09
1.52544e-11
9.79606e-09
1.53281e-11
9.78065e-09
1.54084e-11
9.76515e-09
1.54954e-11
9.74956e-09
1.55893e-11
9.73387e-09
1.56906e-11
9.71807e-09
1.58e-11
9.70215e-09
1.59182e-11
9.68611e-09
1.60466e-11
9.66992e-09
1.61867e-11
9.65358e-09
1.63408e-11
9.63707e-09
1.65115e-11
9.62037e-09
1.67027e-11
9.60345e-09
1.69189e-11
9.58628e-09
1.71667e-11
9.56883e-09
1.7454e-11
9.55103e-09
1.77918e-11
9.53284e-09
1.81939e-11
9.51416e-09
1.86794e-11
9.49489e-09
1.92733e-11
9.47488e-09
2.0009e-11
9.45395e-09
2.09326e-11
9.43184e-09
2.21075e-11
9.40822e-09
2.36226e-11
9.38261e-09
2.56059e-11
9.35436e-09
2.82466e-11
9.32253e-09
3.18346e-11
9.28569e-09
3.68363e-11
9.24164e-09
4.40484e-11
9.18669e-09
5.4953e-11
9.11404e-09
7.26499e-11
9.0092e-09
1.04838e-10
8.83297e-09
1.76235e-10
4.00878e-10
8.43209e-09
2.84439e-10
-5.32281e-10
5.70986e-10
-5.36083e-10
8.59743e-10
-5.39968e-10
1.15082e-09
-5.43926e-10
1.44432e-09
-5.47948e-10
1.74044e-09
-5.52082e-10
2.03941e-09
-5.56407e-10
2.34156e-09
-5.61002e-10
2.64723e-09
-5.6595e-10
2.95678e-09
-5.71338e-10
3.27055e-09
-5.77271e-10
3.58885e-09
-5.83879e-10
3.91193e-09
-5.9133e-10
4.24e-09
-5.99839e-10
4.57323e-09
-6.0967e-10
4.91177e-09
-6.21143e-10
5.25582e-09
-6.3463e-10
5.60571e-09
-6.50563e-10
5.96196e-09
-6.69419e-10
6.3253e-09
-6.91703e-10
6.69682e-09
-7.17968e-10
7.07808e-09
-7.48912e-10
7.47143e-09
-7.85513e-10
7.88025e-09
-8.29178e-10
8.30908e-09
-8.81916e-10
8.76372e-09
-9.46585e-10
9.25134e-09
-1.02731e-09
9.7807e-09
-1.13011e-09
1.03624e-08
-1.2638e-09
1.10089e-08
-1.44144e-09
1.1733e-08
-1.68269e-09
1.25428e-08
-2.01724e-09
1.34244e-08
-2.48943e-09
1.42929e-08
-3.16273e-09
1.48504e-08
-4.11594e-09
1.45769e-08
-5.40575e-09
1.77009e-08
-7.0437e-09
2.38649e-08
-3.97408e-09
2.55463e-08
-1.23436e-10
2.40536e-08
2.88357e-09
2.29712e-08
2.25748e-09
2.20985e-08
1.86666e-09
2.13171e-08
1.64273e-09
2.06075e-08
1.47053e-09
1.99624e-08
1.32605e-09
1.93735e-08
1.2046e-09
1.88326e-08
1.10207e-09
1.83332e-08
1.01428e-09
1.78704e-08
9.37861e-10
1.744e-08
8.70401e-10
1.70389e-08
8.10244e-10
1.66641e-08
7.56194e-10
1.63133e-08
7.07336e-10
1.59842e-08
6.62927e-10
1.56751e-08
6.22353e-10
1.53844e-08
5.85101e-10
1.51106e-08
5.50742e-10
1.48525e-08
5.18926e-10
1.4609e-08
4.89366e-10
1.43792e-08
4.61824e-10
1.41621e-08
4.36107e-10
1.3957e-08
4.12053e-10
1.3763e-08
3.89526e-10
1.35796e-08
3.68405e-10
1.34059e-08
3.48585e-10
1.32416e-08
3.29973e-10
1.30859e-08
3.12482e-10
1.29384e-08
2.96035e-10
1.27986e-08
2.80558e-10
1.2666e-08
2.65986e-10
1.25403e-08
2.52257e-10
1.2421e-08
2.39315e-10
1.23078e-08
2.27107e-10
1.22003e-08
2.15585e-10
1.20983e-08
2.04705e-10
1.20013e-08
1.94427e-10
1.19092e-08
1.84714e-10
1.18217e-08
1.75531e-10
1.17385e-08
1.66846e-10
1.16594e-08
1.58631e-10
1.15841e-08
1.50858e-10
1.15126e-08
1.43503e-10
1.14444e-08
1.36543e-10
1.13796e-08
1.29957e-10
1.13179e-08
1.23724e-10
1.12591e-08
1.17826e-10
1.12031e-08
1.12246e-10
1.11497e-08
1.06968e-10
1.10988e-08
1.01975e-10
1.10503e-08
9.72554e-11
1.1004e-08
9.27938e-11
1.09598e-08
8.8578e-11
1.09176e-08
8.45959e-11
1.08772e-08
8.08361e-11
1.08387e-08
7.72877e-11
1.08018e-08
7.39407e-11
1.07664e-08
7.07851e-11
1.07326e-08
6.78115e-11
1.07001e-08
6.50115e-11
1.0669e-08
6.23761e-11
1.06391e-08
5.98977e-11
1.06103e-08
5.75684e-11
1.05827e-08
5.53811e-11
1.05561e-08
5.33287e-11
1.05304e-08
5.14044e-11
1.05056e-08
4.9602e-11
1.04817e-08
4.79153e-11
1.04585e-08
4.63387e-11
1.04361e-08
4.48663e-11
1.04144e-08
4.34931e-11
1.03933e-08
4.22138e-11
1.03728e-08
4.10238e-11
1.03529e-08
3.99182e-11
1.03335e-08
3.88929e-11
1.03145e-08
3.79433e-11
1.0296e-08
3.70657e-11
1.02779e-08
3.62562e-11
1.02601e-08
3.55109e-11
1.02427e-08
3.48266e-11
1.02256e-08
3.41999e-11
1.02088e-08
3.36276e-11
1.01923e-08
3.31067e-11
1.0176e-08
3.26343e-11
1.01599e-08
3.22076e-11
1.0144e-08
3.18243e-11
1.01283e-08
3.14817e-11
1.01127e-08
3.11773e-11
1.00972e-08
3.09092e-11
1.00819e-08
3.06753e-11
1.00667e-08
3.04734e-11
1.00515e-08
3.03018e-11
1.00364e-08
3.01586e-11
1.00214e-08
3.00421e-11
1.00065e-08
2.99509e-11
9.99151e-09
2.98835e-11
9.9766e-09
2.98382e-11
9.96169e-09
2.98141e-11
9.94679e-09
2.98097e-11
9.93188e-09
2.9824e-11
9.91695e-09
2.9856e-11
9.902e-09
2.99047e-11
9.88702e-09
2.99691e-11
9.872e-09
3.00488e-11
9.85693e-09
3.01427e-11
9.8418e-09
3.02506e-11
9.82662e-09
3.0372e-11
9.81137e-09
3.05065e-11
9.79604e-09
3.06539e-11
9.78064e-09
3.08145e-11
9.76514e-09
3.09884e-11
9.74956e-09
3.11761e-11
9.73387e-09
3.13787e-11
9.71807e-09
3.1597e-11
9.70216e-09
3.18333e-11
9.68611e-09
3.20897e-11
9.66993e-09
3.23696e-11
9.65359e-09
3.2677e-11
9.63709e-09
3.30176e-11
9.62039e-09
3.33986e-11
9.60348e-09
3.38297e-11
9.58632e-09
3.43233e-11
9.56888e-09
3.48954e-11
9.55111e-09
3.55675e-11
9.53293e-09
3.63677e-11
9.51428e-09
3.73329e-11
9.49504e-09
3.8513e-11
9.47508e-09
3.99744e-11
9.4542e-09
4.18079e-11
9.43217e-09
4.41383e-11
9.40865e-09
4.71414e-11
9.38319e-09
5.10684e-11
9.35515e-09
5.62894e-11
9.32361e-09
6.33697e-11
9.28724e-09
7.32102e-11
9.24395e-09
8.73339e-11
9.19039e-09
1.08518e-10
9.12066e-09
1.42371e-10
9.02367e-09
2.01834e-10
8.87772e-09
3.22185e-10
6.16229e-10
8.66237e-09
2.99287e-10
-8.31568e-10
6.00784e-10
-8.37579e-10
9.04498e-10
-8.43682e-10
1.21049e-09
-8.49914e-10
1.51882e-09
-8.56283e-10
1.82964e-09
-8.62898e-10
2.14314e-09
-8.69915e-10
2.45963e-09
-8.7749e-10
2.77944e-09
-8.85762e-10
3.10296e-09
-8.94855e-10
3.43057e-09
-9.04884e-10
3.76266e-09
-9.15961e-10
4.09952e-09
-9.28196e-10
4.44138e-09
-9.41698e-10
4.7883e-09
-9.56595e-10
5.14022e-09
-9.7306e-10
5.49694e-09
-9.91346e-10
5.85819e-09
-1.01182e-09
6.22376e-09
-1.03499e-09
6.5936e-09
-1.06154e-09
6.968e-09
-1.09237e-09
7.34771e-09
-1.12861e-09
7.73393e-09
-1.17173e-09
8.12835e-09
-1.2236e-09
8.53307e-09
-1.28664e-09
8.95054e-09
-1.36406e-09
9.38334e-09
-1.46011e-09
9.83357e-09
-1.58034e-09
1.03018e-08
-1.73203e-09
1.07851e-08
-1.92476e-09
1.12732e-08
-2.17081e-09
1.1741e-08
-2.48502e-09
1.21349e-08
-2.88328e-09
1.23489e-08
-3.37678e-09
1.21907e-08
-3.95772e-09
1.13536e-08
-4.56867e-09
9.3555e-09
-5.04558e-09
1.0375e-08
-4.99354e-09
1.5524e-08
-5.2725e-09
2.22965e-08
-3.88894e-09
2.20236e-08
2.53046e-09
2.1556e-08
2.33426e-09
2.09041e-08
2.29462e-09
2.02654e-08
2.1092e-09
1.96784e-08
1.91304e-09
1.91365e-08
1.74649e-09
1.86321e-08
1.60649e-09
1.81609e-08
1.48551e-09
1.77202e-08
1.37851e-09
1.7308e-08
1.28268e-09
1.69219e-08
1.19633e-09
1.65598e-08
1.11824e-09
1.62198e-08
1.04734e-09
1.59001e-08
9.8268e-10
1.5599e-08
9.23436e-10
1.53152e-08
8.68892e-10
1.50475e-08
8.18455e-10
1.47948e-08
7.71638e-10
1.45561e-08
7.28046e-10
1.43306e-08
6.87358e-10
1.41174e-08
6.4931e-10
1.39157e-08
6.13682e-10
1.3725e-08
5.80284e-10
1.35444e-08
5.4895e-10
1.33735e-08
5.19531e-10
1.32116e-08
4.91892e-10
1.30581e-08
4.6591e-10
1.29127e-08
4.41469e-10
1.27748e-08
4.18464e-10
1.2644e-08
3.96798e-10
1.25199e-08
3.76379e-10
1.24021e-08
3.57124e-10
1.22902e-08
3.38957e-10
1.2184e-08
3.21806e-10
1.20831e-08
3.05607e-10
1.19872e-08
2.903e-10
1.18961e-08
2.7583e-10
1.18095e-08
2.62147e-10
1.17271e-08
2.49203e-10
1.16488e-08
2.36957e-10
1.15743e-08
2.25369e-10
1.15034e-08
2.14401e-10
1.14359e-08
2.04021e-10
1.13717e-08
1.94196e-10
1.13105e-08
1.84898e-10
1.12522e-08
1.76098e-10
1.11967e-08
1.67772e-10
1.11438e-08
1.59895e-10
1.10933e-08
1.52444e-10
1.10452e-08
1.45399e-10
1.09992e-08
1.38739e-10
1.09553e-08
1.32445e-10
1.09134e-08
1.265e-10
1.08734e-08
1.20887e-10
1.08351e-08
1.15589e-10
1.07984e-08
1.10592e-10
1.07633e-08
1.0588e-10
1.07297e-08
1.01439e-10
1.06975e-08
9.72579e-11
1.06665e-08
9.33226e-11
1.06368e-08
8.96213e-11
1.06082e-08
8.61428e-11
1.05807e-08
8.28762e-11
1.05542e-08
7.98109e-11
1.05287e-08
7.69371e-11
1.05041e-08
7.42452e-11
1.04803e-08
7.17262e-11
1.04572e-08
6.93715e-11
1.04349e-08
6.71727e-11
1.04133e-08
6.51217e-11
1.03923e-08
6.32113e-11
1.03719e-08
6.14341e-11
1.0352e-08
5.9783e-11
1.03327e-08
5.82518e-11
1.03138e-08
5.6834e-11
1.02953e-08
5.55235e-11
1.02773e-08
5.43147e-11
1.02596e-08
5.32022e-11
1.02422e-08
5.21805e-11
1.02252e-08
5.12449e-11
1.02084e-08
5.03906e-11
1.01919e-08
4.96132e-11
1.01756e-08
4.89081e-11
1.01596e-08
4.82717e-11
1.01437e-08
4.76996e-11
1.0128e-08
4.71885e-11
1.01124e-08
4.67348e-11
1.0097e-08
4.63352e-11
1.00817e-08
4.59865e-11
1.00665e-08
4.56859e-11
1.00513e-08
4.54304e-11
1.00363e-08
4.52174e-11
1.00213e-08
4.50445e-11
1.00063e-08
4.49093e-11
9.99139e-09
4.48093e-11
9.97649e-09
4.47429e-11
9.96159e-09
4.47078e-11
9.9467e-09
4.47024e-11
9.9318e-09
4.47249e-11
9.91688e-09
4.47737e-11
9.90194e-09
4.48475e-11
9.88696e-09
4.4945e-11
9.87195e-09
4.50651e-11
9.85688e-09
4.52066e-11
9.84176e-09
4.53691e-11
9.82658e-09
4.55514e-11
9.81134e-09
4.57533e-11
9.79602e-09
4.59749e-11
9.78061e-09
4.62158e-11
9.76513e-09
4.64767e-11
9.74954e-09
4.67582e-11
9.73386e-09
4.70616e-11
9.71807e-09
4.73889e-11
9.70216e-09
4.77426e-11
9.68612e-09
4.81262e-11
9.66995e-09
4.85446e-11
9.65362e-09
4.9004e-11
9.63713e-09
4.95127e-11
9.62044e-09
5.00814e-11
9.60355e-09
5.07243e-11
9.58641e-09
5.14597e-11
9.569e-09
5.23115e-11
9.55125e-09
5.33116e-11
9.53312e-09
5.4501e-11
9.51452e-09
5.59349e-11
9.49534e-09
5.76862e-11
9.47546e-09
5.98533e-11
9.4547e-09
6.25695e-11
9.43282e-09
6.6018e-11
9.40951e-09
7.04557e-11
9.38433e-09
7.62485e-11
9.35669e-09
8.39329e-11
9.32573e-09
9.43201e-11
9.29026e-09
1.08689e-10
9.24843e-09
1.29163e-10
9.19744e-09
1.59502e-10
9.13288e-09
2.06933e-10
9.04801e-09
2.86712e-10
8.93613e-09
4.34058e-10
7.31544e-10
8.82082e-09
3.0782e-10
-1.13939e-09
6.17923e-10
-1.14768e-09
9.30208e-10
-1.15597e-09
1.2446e-09
-1.1643e-09
1.56101e-09
-1.1727e-09
1.87935e-09
-1.18124e-09
2.19952e-09
-1.19008e-09
2.52142e-09
-1.19939e-09
2.84498e-09
-1.20932e-09
3.17014e-09
-1.22001e-09
3.49686e-09
-1.23161e-09
3.82515e-09
-1.24425e-09
4.155e-09
-1.25805e-09
4.48647e-09
-1.27317e-09
4.81964e-09
-1.28976e-09
5.15462e-09
-1.30804e-09
5.49155e-09
-1.32827e-09
5.8306e-09
-1.35087e-09
6.17199e-09
-1.37638e-09
6.51603e-09
-1.40558e-09
6.86307e-09
-1.43941e-09
7.21351e-09
-1.47905e-09
7.56776e-09
-1.52599e-09
7.92622e-09
-1.58205e-09
8.28911e-09
-1.64953e-09
8.65629e-09
-1.73123e-09
9.02679e-09
-1.83061e-09
9.39829e-09
-1.95184e-09
9.7661e-09
-2.09984e-09
1.01216e-08
-2.28022e-09
1.04496e-08
-2.49887e-09
1.07256e-08
-2.76103e-09
1.09115e-08
-3.06918e-09
1.09542e-08
-3.41945e-09
1.07924e-08
-3.79592e-09
1.03885e-08
-4.16478e-09
9.81857e-09
-4.47564e-09
9.51949e-09
-4.69446e-09
9.19902e-09
-4.95204e-09
1.06272e-08
-5.31711e-09
1.69584e-08
-3.8007e-09
2.14088e-08
-2.11622e-09
2.04521e-08
3.25139e-09
1.97993e-08
2.76199e-09
1.92873e-08
2.42505e-09
1.88113e-08
2.22243e-09
1.83545e-08
2.06333e-09
1.79186e-08
1.9214e-09
1.75063e-08
1.79084e-09
1.71179e-08
1.67105e-09
1.67524e-08
1.56184e-09
1.64081e-08
1.4625e-09
1.60835e-08
1.37199e-09
1.5777e-08
1.28919e-09
1.54873e-08
1.21306e-09
1.52135e-08
1.14271e-09
1.49546e-08
1.07742e-09
1.47096e-08
1.0166e-09
1.44779e-08
9.59796e-10
1.42586e-08
9.0665e-10
1.4051e-08
8.56856e-10
1.38545e-08
8.10159e-10
1.36685e-08
7.66336e-10
1.34922e-08
7.25187e-10
1.33253e-08
6.86527e-10
1.3167e-08
6.50188e-10
1.30169e-08
6.1601e-10
1.28745e-08
5.83847e-10
1.27394e-08
5.53561e-10
1.26112e-08
5.25025e-10
1.24894e-08
4.98122e-10
1.23738e-08
4.72742e-10
1.2264e-08
4.48787e-10
1.21596e-08
4.26163e-10
1.20604e-08
4.04787e-10
1.19661e-08
3.84581e-10
1.18765e-08
3.65472e-10
1.17913e-08
3.47397e-10
1.17102e-08
3.30294e-10
1.1633e-08
3.14108e-10
1.15596e-08
2.98787e-10
1.14897e-08
2.84284e-10
1.14232e-08
2.70554e-10
1.13598e-08
2.57557e-10
1.12995e-08
2.45253e-10
1.12419e-08
2.33607e-10
1.11871e-08
2.22586e-10
1.11349e-08
2.12158e-10
1.1085e-08
2.02294e-10
1.10375e-08
1.92965e-10
1.09921e-08
1.84145e-10
1.09487e-08
1.7581e-10
1.09073e-08
1.67936e-10
1.08676e-08
1.605e-10
1.08297e-08
1.53482e-10
1.07935e-08
1.46861e-10
1.07587e-08
1.40618e-10
1.07254e-08
1.34735e-10
1.06935e-08
1.29195e-10
1.06628e-08
1.2398e-10
1.06334e-08
1.19076e-10
1.06051e-08
1.14467e-10
1.05778e-08
1.10138e-10
1.05515e-08
1.06076e-10
1.05262e-08
1.02267e-10
1.05018e-08
9.87001e-11
1.04781e-08
9.53619e-11
1.04553e-08
9.22413e-11
1.04331e-08
8.93275e-11
1.04116e-08
8.66097e-11
1.03907e-08
8.4078e-11
1.03705e-08
8.1723e-11
1.03507e-08
7.95354e-11
1.03314e-08
7.75064e-11
1.03127e-08
7.56278e-11
1.02943e-08
7.38917e-11
1.02763e-08
7.22902e-11
1.02587e-08
7.08164e-11
1.02414e-08
6.94633e-11
1.02244e-08
6.82242e-11
1.02077e-08
6.70929e-11
1.01913e-08
6.60636e-11
1.01751e-08
6.51303e-11
1.0159e-08
6.42878e-11
1.01432e-08
6.3531e-11
1.01275e-08
6.28549e-11
1.0112e-08
6.22551e-11
1.00966e-08
6.17268e-11
1.00814e-08
6.12663e-11
1.00662e-08
6.08694e-11
1.00511e-08
6.05324e-11
1.0036e-08
6.02518e-11
1.00211e-08
6.00244e-11
1.00061e-08
5.9847e-11
9.99121e-09
5.97164e-11
9.97632e-09
5.96303e-11
9.96144e-09
5.95858e-11
9.94656e-09
5.95806e-11
9.93167e-09
5.96124e-11
9.91677e-09
5.96793e-11
9.90184e-09
5.97792e-11
9.88687e-09