/*--------------------------------*- C++ -*----------------------------------*\
  =========                 |
  \\      /  F ield         | OpenFOAM: The Open Source CFD Toolbox
   \\    /   O peration     | Website:  https://openfoam.org
    \\  /    A nd           | Version:  10
     \\/     M anipulation  |
\*---------------------------------------------------------------------------*/
FoamFile
{
    format      ascii;
    class       surfaceScalarField;
    location    "11250";
    object      phi;
}
// * * * * * * * * * * * * * * * * * * * * * * * * * * * * * * * * * * * * * //

dimensions      [0 3 -1 0 0 0 0];

internalField   nonuniform List<scalar> 
6280
(
-1.46981e-07
1.46981e-07
-2.9252e-07
1.45539e-07
-4.3773e-07
1.4521e-07
-5.83685e-07
1.45955e-07
-7.31454e-07
1.47769e-07
-8.82139e-07
1.50686e-07
-1.03691e-06
1.54774e-07
-1.19706e-06
1.60147e-07
-1.36402e-06
1.66963e-07
-1.53947e-06
1.75444e-07
-1.72536e-06
1.8589e-07
-1.92406e-06
1.98705e-07
-2.1385e-06
2.14434e-07
-2.37232e-06
2.33824e-07
-2.63023e-06
2.57905e-07
-2.91835e-06
2.88127e-07
-3.24492e-06
3.26567e-07
-3.62118e-06
3.76261e-07
-4.06293e-06
4.41754e-07
-4.59294e-06
5.30009e-07
-5.24489e-06
6.51945e-07
-6.06998e-06
8.25093e-07
-7.1482e-06
1.07822e-06
-8.60768e-06
1.45948e-06
-1.06586e-05
2.05095e-06
-1.36533e-05
2.99463e-06
-1.81924e-05
4.53918e-06
-2.53167e-05
7.1243e-06
-3.24207e-05
7.10394e-06
-3.30845e-05
6.638e-07
-3.34603e-05
3.75793e-07
-3.37582e-05
2.97977e-07
-3.40066e-05
2.48313e-07
-3.42169e-05
2.10391e-07
-3.43969e-05
1.79987e-07
-3.45515e-05
1.54572e-07
-3.46835e-05
1.32005e-07
-3.05945e-05
-4.089e-06
-2.01569e-05
-1.04376e-05
-1.37074e-05
-6.44951e-06
-1.44522e-07
2.91503e-07
-2.87559e-07
2.88575e-07
-4.30135e-07
2.87787e-07
-5.73235e-07
2.89054e-07
-7.17825e-07
2.92359e-07
-8.64887e-07
2.97748e-07
-1.01544e-06
3.05331e-07
-1.17059e-06
3.1529e-07
-1.33151e-06
3.27887e-07
-1.49954e-06
3.43477e-07
-1.67619e-06
3.62535e-07
-1.86317e-06
3.85685e-07
-2.06248e-06
4.13745e-07
-2.27644e-06
4.47784e-07
-2.50775e-06
4.89212e-07
-2.7595e-06
5.39882e-07
-3.03519e-06
6.02252e-07
-3.3385e-06
6.79575e-07
-3.6729e-06
7.76152e-07
-4.04051e-06
8.9762e-07
-4.43979e-06
1.05122e-06
-4.8606e-06
1.2459e-06
-5.27425e-06
1.49187e-06
-5.61355e-06
1.79878e-06
-5.73335e-06
2.17075e-06
-5.33336e-06
2.59464e-06
-3.80839e-06
3.01421e-06
4.02406e-08
3.27567e-06
4.12735e-06
3.01683e-06
2.5805e-06
2.21065e-06
1.21903e-06
1.73726e-06
2.81782e-08
1.48883e-06
-1.12298e-06
1.39947e-06
-2.35858e-06
1.44599e-06
-3.81652e-06
1.63793e-06
-5.67938e-06
2.01744e-06
-8.13854e-06
2.59116e-06
-1.31279e-05
9.00341e-07
-2.34302e-05
-1.35289e-07
-3.37943e-05
-3.34331e-06
-1.39794e-07
4.31297e-07
-2.78025e-07
4.26806e-07
-4.15563e-07
4.25325e-07
-5.53226e-07
4.26718e-07
-6.91803e-07
4.30936e-07
-8.32065e-07
4.38009e-07
-9.74781e-07
4.48047e-07
-1.12073e-06
4.61237e-07
-1.27069e-06
4.77854e-07
-1.42549e-06
4.9827e-07
-1.58592e-06
5.22968e-07
-1.7528e-06
5.52561e-07
-1.92687e-06
5.87816e-07
-2.10877e-06
6.29682e-07
-2.29887e-06
6.79315e-07
-2.4971e-06
7.38113e-07
-2.70257e-06
8.07725e-07
-2.91304e-06
8.90046e-07
-3.12405e-06
9.87153e-07
-3.32756e-06
1.10114e-06
-3.51011e-06
1.23377e-06
-3.65005e-06
1.38585e-06
-3.71433e-06
1.55615e-06
-3.65531e-06
1.73977e-06
-3.41028e-06
1.92572e-06
-2.90989e-06
2.09425e-06
-2.11066e-06
2.21497e-06
-1.08461e-06
2.24962e-06
-2.3638e-07
2.1686e-06
-2.81407e-08
2.00241e-06
-1.36237e-07
1.84536e-06
-3.7883e-07
1.73143e-06
-6.47575e-07
1.66822e-06
-8.5364e-07
1.65205e-06
-8.87559e-07
1.67185e-06
-5.7649e-07
1.70637e-06
2.99314e-07
1.71536e-06
-4.32625e-07
1.63228e-06
-1.12121e-06
5.53296e-07
-3.537e-05
4.54538e-07
-1.3314e-07
5.64437e-07
-2.64626e-07
5.58293e-07
-3.95129e-07
5.55828e-07
-5.25263e-07
5.56851e-07
-6.55593e-07
5.61266e-07
-7.86643e-07
5.69059e-07
-9.18889e-07
5.80294e-07
-1.05276e-06
5.95108e-07
-1.18862e-06
6.13716e-07
-1.32676e-06
6.36404e-07
-1.46733e-06
6.63538e-07
-1.61033e-06
6.95564e-07
-1.75552e-06
7.33004e-07
-1.90229e-06
7.76458e-07
-2.04956e-06
8.26582e-07
-2.19551e-06
8.84064e-07
-2.33736e-06
9.49573e-07
-2.47098e-06
1.02367e-06
-2.59049e-06
1.10666e-06
-2.68779e-06
1.19844e-06
-2.75219e-06
1.29816e-06
-2.77023e-06
1.40389e-06
-2.72633e-06
1.51225e-06
-2.60454e-06
1.61797e-06
-2.39257e-06
1.71374e-06
-2.08891e-06
1.79059e-06
-1.71309e-06
1.83916e-06
-1.31605e-06
1.85257e-06
-9.78071e-07
1.83063e-06
-7.59358e-07
1.7837e-06
-6.42846e-07
1.72885e-06
-5.89689e-07
1.67827e-06
-5.5926e-07
1.63779e-06
-5.1517e-07
1.60796e-06
-4.28712e-07
1.58539e-06
-2.86301e-07
1.56396e-06
-1.07575e-07
1.53663e-06
2.55512e-08
1.49915e-06
-1.34649e-07
7.13496e-07
-3.58921e-05
3.87412e-07
-1.25002e-07
6.89439e-07
-2.4827e-07
6.81561e-07
-3.70259e-07
6.77817e-07
-4.91368e-07
6.7796e-07
-6.11939e-07
6.81837e-07
-7.32251e-07
6.89372e-07
-8.52514e-07
7.00556e-07
-9.72849e-07
7.15443e-07
-1.09327e-06
7.34138e-07
-1.21366e-06
7.56795e-07
-1.33373e-06
7.83607e-07
-1.45296e-06
8.14797e-07
-1.57056e-06
8.50604e-07
-1.68537e-06
8.91261e-07
-1.79575e-06
9.36964e-07
-1.89952e-06
9.87837e-07
-1.99382e-06
1.04387e-06
-2.07499e-06
1.10484e-06
-2.13858e-06
1.17025e-06
-2.17932e-06
1.23918e-06
-2.19139e-06
1.31023e-06
-2.16889e-06
1.38139e-06
-2.10666e-06
1.45003e-06
-2.00164e-06
1.51295e-06
-1.85452e-06
1.56663e-06
-1.67159e-06
1.60766e-06
-1.46587e-06
1.63344e-06
-1.25626e-06
1.64297e-06
-1.06315e-06
1.63751e-06
-9.00039e-07
1.62059e-06
-7.68037e-07
1.59684e-06
-6.60061e-07
1.57029e-06
-5.65784e-07
1.54351e-06
-4.75349e-07
1.51753e-06
-3.82107e-07
1.49215e-06
-2.84642e-07
1.46649e-06
-1.87691e-07
1.43968e-06
-1.00004e-07
1.41147e-06
-8.29896e-08
6.96482e-07
-3.63195e-05
3.4447e-07
-1.15861e-07
8.053e-07
-2.29935e-07
7.95635e-07
-3.4247e-07
7.90352e-07
-4.5367e-07
7.89159e-07
-5.63676e-07
7.91844e-07
-6.72566e-07
7.98261e-07
-7.80332e-07
8.08323e-07
-8.86873e-07
8.21984e-07
-9.9197e-07
8.39234e-07
-1.09526e-06
8.60087e-07
-1.19622e-06
8.84567e-07
-1.29412e-06
9.12696e-07
-1.38799e-06
9.44475e-07
-1.47659e-06
9.79861e-07
-1.55837e-06
1.01875e-06
-1.63145e-06
1.06092e-06
-1.69362e-06
1.10603e-06
-1.74234e-06
1.15357e-06
-1.77489e-06
1.2028e-06
-1.78846e-06
1.25275e-06
-1.78045e-06
1.30222e-06
-1.74881e-06
1.34975e-06
-1.69249e-06
1.3937e-06
-1.61193e-06
1.43239e-06
-1.50953e-06
1.46423e-06
-1.38981e-06
1.48793e-06
-1.25914e-06
1.50278e-06
-1.12493e-06
1.50875e-06
-9.94031e-07
1.50661e-06
-8.71198e-07
1.49776e-06
-7.58206e-07
1.48385e-06
-6.54387e-07
1.46647e-06
-5.57729e-07
1.44685e-06
-4.65992e-07
1.42579e-06
-3.77566e-07
1.40372e-06
-2.91932e-07
1.38086e-06
-2.0961e-07
1.35736e-06
-1.31571e-07
1.33343e-06
-8.12537e-08
6.46165e-07
-3.6738e-05
3.37198e-07
-1.06179e-07
9.11479e-07
-2.10553e-07
9.00009e-07
-3.13196e-07
8.92996e-07
-4.14146e-07
8.90109e-07
-5.13388e-07
8.91086e-07
-6.10846e-07
8.95719e-07
-7.06366e-07
9.03844e-07
-7.9971e-07
9.15328e-07
-8.90534e-07
9.30058e-07
-9.78374e-07
9.47928e-07
-1.06264e-06
9.68829e-07
-1.14257e-06
9.92635e-07
-1.21729e-06
1.01919e-06
-1.2857e-06
1.04827e-06
-1.34658e-06
1.07962e-06
-1.39854e-06
1.11288e-06
-1.44011e-06
1.14759e-06
-1.46973e-06
1.1832e-06
-1.48594e-06
1.219e-06
-1.48742e-06
1.25423e-06
-1.47318e-06
1.28799e-06
-1.44277e-06
1.31934e-06
-1.3964e-06
1.34732e-06
-1.33508e-06
1.37108e-06
-1.26071e-06
1.38986e-06
-1.17596e-06
1.40318e-06
-1.08403e-06
1.41084e-06
-9.88227e-07
1.41295e-06
-8.91556e-07
1.40994e-06
-7.96264e-07
1.40247e-06
-7.03687e-07
1.39127e-06
-6.14339e-07
1.37713e-06
-5.28177e-07
1.36069e-06
-4.44897e-07
1.34251e-06
-3.6418e-07
1.323e-06
-2.85817e-07
1.3025e-06
-2.09705e-07
1.28124e-06
-1.35741e-07
1.25946e-06
-8.31115e-08
5.93535e-07
-3.7156e-05
3.3491e-07
-9.63554e-08
1.00783e-06
-1.90929e-07
9.94583e-07
-2.83659e-07
9.85725e-07
-3.74454e-07
9.80905e-07
-4.6319e-07
9.79821e-07
-5.49687e-07
9.82216e-07
-6.33711e-07
9.87868e-07
-7.14954e-07
9.96571e-07
-7.93033e-07
1.00814e-06
-8.67477e-07
1.02237e-06
-9.37725e-07
1.03908e-06
-1.00312e-06
1.05803e-06
-1.06293e-06
1.07899e-06
-1.11632e-06
1.10166e-06
-1.1624e-06
1.12571e-06
-1.20026e-06
1.15074e-06
-1.22897e-06
1.17631e-06
-1.24769e-06
1.20191e-06
-1.25566e-06
1.22698e-06
-1.25237e-06
1.25094e-06
-1.23756e-06
1.27317e-06
-1.2113e-06
1.29307e-06
-1.17407e-06
1.3101e-06
-1.12677e-06
1.32378e-06
-1.07068e-06
1.33376e-06
-1.00734e-06
1.33984e-06
-9.38487e-07
1.34199e-06
-8.65842e-07
1.34031e-06
-7.90961e-07
1.33506e-06
-7.15111e-07
1.32662e-06
-6.39223e-07
1.31539e-06
-5.63903e-07
1.30181e-06
-4.89507e-07
1.28629e-06
-4.16214e-07
1.26922e-06
-3.44111e-07
1.2509e-06
-2.73231e-07
1.23162e-06
-2.03581e-07
1.21159e-06
-1.35133e-07
1.19102e-06
-8.56443e-08
5.44047e-07
-3.75763e-05
3.34614e-07
-8.67117e-08
1.09455e-06
-1.71703e-07
1.07957e-06
-2.54811e-07
1.06883e-06
-3.35862e-07
1.06196e-06
-4.14656e-07
1.05861e-06
-4.9096e-07
1.05852e-06
-5.64502e-07
1.06141e-06
-6.34961e-07
1.06703e-06
-7.01964e-07
1.07514e-06
-7.65087e-07
1.08549e-06
-8.23852e-07
1.09784e-06
-8.77735e-07
1.11192e-06
-9.26172e-07
1.12743e-06
-9.68575e-07
1.14406e-06
-1.00435e-06
1.16148e-06
-1.03292e-06
1.17931e-06
-1.05375e-06
1.19715e-06
-1.06642e-06
1.21457e-06
-1.07058e-06
1.23115e-06
-1.06609e-06
1.24645e-06
-1.05297e-06
1.26004e-06
-1.03144e-06
1.27155e-06
-1.00197e-06
1.28063e-06
-9.65215e-07
1.28702e-06
-9.21992e-07
1.29054e-06
-8.73245e-07
1.2911e-06
-8.19966e-07
1.28871e-06
-7.63126e-07
1.28347e-06
-7.03619e-07
1.27555e-06
-6.42212e-07
1.26521e-06
-5.79534e-07
1.25271e-06
-5.16076e-07
1.23835e-06
-4.52215e-07
1.22243e-06
-3.88237e-07
1.20524e-06
-3.2437e-07
1.18703e-06
-2.60794e-07
1.16804e-06
-1.97647e-07
1.14845e-06
-1.35022e-07
1.12839e-06
-8.85653e-08
4.97591e-07
-3.80008e-05
3.3591e-07
-7.74809e-08
1.17203e-06
-1.53333e-07
1.15543e-06
-2.2733e-07
1.14283e-06
-2.99245e-07
1.13387e-06
-3.6884e-07
1.12821e-06
-4.35862e-07
1.12554e-06
-5.00034e-07
1.12558e-06
-5.6105e-07
1.12805e-06
-6.18581e-07
1.13267e-06
-6.72269e-07
1.13918e-06
-7.21736e-07
1.14731e-06
-7.66585e-07
1.15677e-06
-8.06415e-07
1.16726e-06
-8.40832e-07
1.17848e-06
-8.6946e-07
1.19011e-06
-8.91965e-07
1.20181e-06
-9.08069e-07
1.21325e-06
-9.17573e-07
1.22407e-06
-9.20372e-07
1.23395e-06
-9.16472e-07
1.24255e-06
-9.06e-07
1.24957e-06
-8.89202e-07
1.25475e-06
-8.66436e-07
1.25787e-06
-8.38161e-07
1.25875e-06
-8.04904e-07
1.25728e-06
-7.67233e-07
1.25343e-06
-7.25725e-07
1.2472e-06
-6.80931e-07
1.23867e-06
-6.33356e-07
1.22798e-06
-5.83441e-07
1.21529e-06
-5.31567e-07
1.20083e-06
-4.78059e-07
1.18484e-06
-4.2321e-07
1.16758e-06
-3.67299e-07
1.14933e-06
-3.10617e-07
1.13035e-06
-2.53485e-07
1.11091e-06
-1.96266e-07
1.09123e-06
-1.39357e-07
1.07148e-06
-9.17398e-08
4.49973e-07
-3.84311e-05
3.38636e-07
-6.88153e-08
1.24084e-06
-1.36115e-07
1.22273e-06
-2.01639e-07
1.20835e-06
-2.65134e-07
1.19737e-06
-3.26352e-07
1.18943e-06
-3.85038e-07
1.18423e-06
-4.40931e-07
1.18147e-06
-4.93762e-07
1.18088e-06
-5.43251e-07
1.18216e-06
-5.89115e-07
1.18505e-06
-6.31067e-07
1.18926e-06
-6.68826e-07
1.19452e-06
-7.02122e-07
1.20056e-06
-7.30708e-07
1.20707e-06
-7.54369e-07
1.21377e-06
-7.72931e-07
1.22038e-06
-7.86277e-07
1.2266e-06
-7.9435e-07
1.23215e-06
-7.97164e-07
1.23676e-06
-7.94803e-07
1.24019e-06
-7.87427e-07
1.2422e-06
-7.75258e-07
1.24258e-06
-7.58574e-07
1.24118e-06
-7.37691e-07
1.23786e-06
-7.12945e-07
1.23254e-06
-6.84667e-07
1.22515e-06
-6.53165e-07
1.2157e-06
-6.18707e-07
1.20421e-06
-5.81505e-07
1.19078e-06
-5.41717e-07
1.17551e-06
-4.99447e-07
1.15856e-06
-4.54769e-07
1.14016e-06
-4.07754e-07
1.12057e-06
-3.58514e-07
1.10009e-06
-3.0725e-07
1.07909e-06
-2.54312e-07
1.05797e-06
-2.00247e-07
1.03716e-06
-1.45827e-07
1.01706e-06
-9.51104e-08
3.99256e-07
-3.88689e-05
3.42674e-07
-6.07988e-08
1.30164e-06
-1.20209e-07
1.28214e-06
-1.77957e-07
1.2661e-06
-2.33787e-07
1.25319e-06
-2.87452e-07
1.24309e-06
-3.38714e-07
1.23549e-06
-3.87338e-07
1.2301e-06
-4.33095e-07
1.22663e-06
-4.75759e-07
1.22482e-06
-5.15114e-07
1.2244e-06
-5.50955e-07
1.2251e-06
-5.83092e-07
1.22666e-06
-6.11359e-07
1.22882e-06
-6.35618e-07
1.23133e-06
-6.55769e-07
1.23392e-06
-6.71748e-07
1.23636e-06
-6.83542e-07
1.23839e-06
-6.91187e-07
1.23979e-06
-6.94767e-07
1.24034e-06
-6.94418e-07
1.23984e-06
-6.90318e-07
1.2381e-06
-6.82682e-07
1.23495e-06
-6.71745e-07
1.23025e-06
-6.57751e-07
1.22387e-06
-6.40931e-07
1.21572e-06
-6.21485e-07
1.2057e-06
-5.99557e-07
1.19377e-06
-5.75218e-07
1.17987e-06
-5.48443e-07
1.164e-06
-5.191e-07
1.14616e-06
-4.86943e-07
1.12641e-06
-4.5162e-07
1.10484e-06
-4.12701e-07
1.08165e-06
-3.69738e-07
1.05712e-06
-3.22364e-07
1.03171e-06
-2.70446e-07
1.00605e-06
-2.14291e-07
9.81008e-07
-1.54899e-07
9.5767e-07
-9.85153e-08
3.42873e-07
-3.93155e-05
3.48078e-07
-5.34625e-08
1.3551e-06
-1.05669e-07
1.33434e-06
-1.56348e-07
1.31678e-06
-2.05253e-07
1.3021e-06
-2.52152e-07
1.28999e-06
-2.96827e-07
1.28017e-06
-3.39076e-07
1.27235e-06
-3.78708e-07
1.26627e-06
-4.15547e-07
1.26166e-06
-4.49435e-07
1.25829e-06
-4.80231e-07
1.2559e-06
-5.07819e-07
1.25425e-06
-5.32111e-07
1.25311e-06
-5.53049e-07
1.25226e-06
-5.70611e-07
1.25148e-06
-5.84815e-07
1.25056e-06
-5.95719e-07
1.24929e-06
-6.03424e-07
1.2475e-06
-6.08071e-07
1.24499e-06
-6.09841e-07
1.24161e-06
-6.08947e-07
1.2372e-06
-6.05626e-07
1.23163e-06
-6.00131e-07
1.22475e-06
-5.92715e-07
1.21645e-06
-5.8361e-07
1.20661e-06
-5.73013e-07
1.19511e-06
-5.61049e-07
1.18181e-06
-5.47748e-07
1.16657e-06
-5.32994e-07
1.14925e-06
-5.16484e-07
1.12965e-06
-4.97663e-07
1.10759e-06
-4.75664e-07
1.08284e-06
-4.49243e-07
1.05523e-06
-4.16732e-07
1.02461e-06
-3.76056e-07
9.91037e-07
-3.2486e-07
9.54857e-07
-2.60886e-07
9.17034e-07
-1.82779e-07
8.79563e-07
-1.01407e-07
2.61501e-07
-3.97723e-05
3.55386e-07
-4.67998e-08
1.4019e-06
-9.2475e-08
1.38002e-06
-1.36769e-07
1.36108e-06
-1.79447e-07
1.34478e-06
-2.203e-07
1.33084e-06
-2.59135e-07
1.319e-06
-2.95778e-07
1.30899e-06
-3.30075e-07
1.30056e-06
-3.61891e-07
1.29348e-06
-3.91113e-07
1.28751e-06
-4.17653e-07
1.28244e-06
-4.41447e-07
1.27804e-06
-4.62464e-07
1.27413e-06
-4.80702e-07
1.2705e-06
-4.96195e-07
1.26698e-06
-5.09015e-07
1.26338e-06
-5.19272e-07
1.25955e-06
-5.27114e-07
1.25534e-06
-5.3273e-07
1.25061e-06
-5.36346e-07
1.24523e-06
-5.38224e-07
1.23908e-06
-5.38658e-07
1.23206e-06
-5.37969e-07
1.22406e-06
-5.365e-07
1.21498e-06
-5.34602e-07
1.20471e-06
-5.32626e-07
1.19313e-06
-5.30902e-07
1.18008e-06
-5.29709e-07
1.16538e-06
-5.29232e-07
1.14877e-06
-5.29488e-07
1.12991e-06
-5.30219e-07
1.10832e-06
-5.30721e-07
1.08334e-06
-5.29569e-07
1.05408e-06
-5.24211e-07
1.01926e-06
-5.10338e-07
9.77164e-07
-4.8095e-07
9.25469e-07
-4.24986e-07
8.61071e-07
-3.25363e-07
7.79939e-07
-1.01962e-07
3.81004e-08
-4.02409e-05
3.6663e-07
-4.07801e-08
1.44268e-06
-8.05621e-08
1.4198e-06
-1.19107e-07
1.39962e-06
-1.56202e-07
1.38187e-06
-1.91655e-07
1.3663e-06
-2.253e-07
1.35265e-06
-2.56988e-07
1.34068e-06
-2.86596e-07
1.33017e-06
-3.14021e-07
1.3209e-06
-3.39185e-07
1.31268e-06
-3.62035e-07
1.30529e-06
-3.82545e-07
1.29855e-06
-4.0072e-07
1.29231e-06
-4.16594e-07
1.28638e-06
-4.30236e-07
1.28062e-06
-4.41749e-07
1.27489e-06
-4.51274e-07
1.26907e-06
-4.58987e-07
1.26305e-06
-4.65108e-07
1.25673e-06
-4.69896e-07
1.25001e-06
-4.73653e-07
1.24284e-06
-4.76728e-07
1.23514e-06
-4.79521e-07
1.22686e-06
-4.82488e-07
1.21795e-06
-4.86151e-07
1.20838e-06
-4.91108e-07
1.19809e-06
-4.98052e-07
1.18703e-06
-5.07789e-07
1.17512e-06
-5.21267e-07
1.16225e-06
-5.39606e-07
1.14825e-06
-5.64128e-07
1.13284e-06
-5.96381e-07
1.1156e-06
-6.38132e-07
1.09583e-06
-6.91284e-07
1.07241e-06
-7.5765e-07
1.04353e-06
-8.38395e-07
1.00621e-06
-9.3288e-07
9.55556e-07
-1.03632e-06
8.83376e-07
-9.19428e-08
-9.06274e-07
-4.07212e-05
3.88388e-07
-3.53593e-08
1.47804e-06
-6.9839e-08
1.45428e-06
-1.0322e-07
1.433e-06
-1.35309e-07
1.41396e-06
-1.65936e-07
1.39692e-06
-1.94952e-07
1.38166e-06
-2.22235e-07
1.36796e-06
-2.47682e-07
1.35562e-06
-2.71213e-07
1.34444e-06
-2.92775e-07
1.33424e-06
-3.12337e-07
1.32485e-06
-3.29896e-07
1.31611e-06
-3.45474e-07
1.30788e-06
-3.59125e-07
1.30003e-06
-3.7093e-07
1.29242e-06
-3.81003e-07
1.28497e-06
-3.89489e-07
1.27756e-06
-3.96571e-07
1.27013e-06
-4.02465e-07
1.26262e-06
-4.07429e-07
1.25498e-06
-4.11766e-07
1.24717e-06
-4.15828e-07
1.2392e-06
-4.20028e-07
1.23105e-06
-4.24849e-07
1.22277e-06
-4.3087e-07
1.2144e-06
-4.38789e-07
1.20601e-06
-4.49465e-07
1.1977e-06
-4.63986e-07
1.18964e-06
-4.83759e-07
1.18202e-06
-5.10657e-07
1.17515e-06
-5.47249e-07
1.16943e-06
-5.97151e-07
1.1655e-06
-6.65609e-07
1.16428e-06
-7.60416e-07
1.16722e-06
-8.93445e-07
1.17656e-06
-1.08315e-06
1.19592e-06
-1.35874e-06
1.23115e-06
-1.76687e-06
1.29151e-06
-6.54623e-08
-2.60768e-06
-4.12071e-05
4.20432e-07
-3.04883e-08
1.50853e-06
-6.02057e-08
1.484e-06
-8.89528e-08
1.46175e-06
-1.16554e-07
1.44156e-06
-1.42858e-07
1.42323e-06
-1.67734e-07
1.40654e-06
-1.91075e-07
1.3913e-06
-2.12796e-07
1.37734e-06
-2.32831e-07
1.36447e-06
-2.51142e-07
1.35255e-06
-2.67709e-07
1.34142e-06
-2.82537e-07
1.33094e-06
-2.95654e-07
1.321e-06
-3.07115e-07
1.31149e-06
-3.16995e-07
1.3023e-06
-3.25399e-07
1.29337e-06
-3.32455e-07
1.28462e-06
-3.38319e-07
1.276e-06
-3.43174e-07
1.26748e-06
-3.47235e-07
1.25904e-06
-3.50745e-07
1.25068e-06
-3.53985e-07
1.24244e-06
-3.57274e-07
1.23434e-06
-3.60979e-07
1.22648e-06
-3.65519e-07
1.21894e-06
-3.71377e-07
1.21186e-06
-3.79114e-07
1.20544e-06
-3.89383e-07
1.19991e-06
-4.0294e-07
1.19558e-06
-4.20662e-07
1.19287e-06
-4.43537e-07
1.19231e-06
-4.72635e-07
1.1946e-06
-5.09002e-07
1.20065e-06
-5.53425e-07
1.21164e-06
-6.05928e-07
1.22906e-06
-6.64773e-07
1.25476e-06
-7.2454e-07
1.29091e-06
-7.71371e-07
1.33834e-06
-9.26324e-08
-3.28642e-06
-4.17076e-05
4.07816e-07
-2.61184e-08
1.53465e-06
-5.15639e-08
1.50944e-06
-7.61553e-08
1.48634e-06
-9.97335e-08
1.46514e-06
-1.22161e-07
1.44566e-06
-1.43323e-07
1.4277e-06
-1.63122e-07
1.4111e-06
-1.81485e-07
1.3957e-06
-1.98356e-07
1.38134e-06
-2.13701e-07
1.36789e-06
-2.27502e-07
1.35522e-06
-2.39766e-07
1.3432e-06
-2.50514e-07
1.33175e-06
-2.59788e-07
1.32076e-06
-2.67649e-07
1.31017e-06
-2.74175e-07
1.29989e-06
-2.7946e-07
1.2899e-06
-2.83615e-07
1.28015e-06
-2.86766e-07
1.27063e-06
-2.89054e-07
1.26133e-06
-2.90631e-07
1.25226e-06
-2.91658e-07
1.24346e-06
-2.92305e-07
1.23499e-06
-2.92743e-07
1.22692e-06
-2.93138e-07
1.21933e-06
-2.93641e-07
1.21237e-06
-2.94367e-07
1.20617e-06
-2.95372e-07
1.20091e-06
-2.96607e-07
1.19681e-06
-2.97849e-07
1.19411e-06
-2.98604e-07
1.19306e-06
-2.97947e-07
1.19394e-06
-2.94297e-07
1.197e-06
-2.85085e-07
1.20243e-06
-2.66294e-07
1.21027e-06
-2.31838e-07
1.22031e-06
-1.72783e-07
1.23186e-06
-7.56163e-08
1.24117e-06
-1.47462e-07
-3.21458e-06
-4.22241e-05
3.69041e-07
-2.22041e-08
1.55685e-06
-4.38231e-08
1.53106e-06
-6.46915e-08
1.50721e-06
-8.46641e-08
1.48511e-06
-1.03616e-07
1.46461e-06
-1.21442e-07
1.44553e-06
-1.38054e-07
1.42771e-06
-1.53384e-07
1.41103e-06
-1.67381e-07
1.39534e-06
-1.80011e-07
1.38052e-06
-1.91255e-07
1.36646e-06
-2.0111e-07
1.35306e-06
-2.09587e-07
1.34023e-06
-2.16712e-07
1.32789e-06
-2.22521e-07
1.31597e-06
-2.27061e-07
1.30443e-06
-2.30386e-07
1.29323e-06
-2.32557e-07
1.28232e-06
-2.3364e-07
1.27171e-06
-2.33699e-07
1.26138e-06
-2.32792e-07
1.25135e-06
-2.30968e-07
1.24164e-06
-2.28262e-07
1.23228e-06
-2.24677e-07
1.22333e-06
-2.20183e-07
1.21484e-06
-2.14693e-07
1.20688e-06
-2.08046e-07
1.19952e-06
-1.99981e-07
1.19285e-06
-1.901e-07
1.18693e-06
-1.77831e-07
1.18184e-06
-1.62371e-07
1.1776e-06
-1.4263e-07
1.1742e-06
-1.17175e-07
1.17155e-06
-8.41779e-08
1.16943e-06
-4.13954e-08
1.16749e-06
1.37777e-08
1.16513e-06
8.41367e-08
1.1615e-06
1.72311e-07
1.153e-06
-1.66238e-07
-2.87603e-06
-4.27411e-05
3.50789e-07
-1.8705e-08
1.57556e-06
-3.69031e-08
1.54926e-06
-5.44421e-08
1.52475e-06
-7.11886e-08
1.50186e-06
-8.70275e-08
1.48045e-06
-1.01861e-07
1.46036e-06
-1.15608e-07
1.44146e-06
-1.28204e-07
1.42363e-06
-1.39597e-07
1.40673e-06
-1.49753e-07
1.39068e-06
-1.58646e-07
1.37535e-06
-1.66266e-07
1.36068e-06
-1.7261e-07
1.34657e-06
-1.77685e-07
1.33296e-06
-1.81505e-07
1.31979e-06
-1.84087e-07
1.30702e-06
-1.85452e-07
1.29459e-06
-1.85618e-07
1.28249e-06
-1.84599e-07
1.27069e-06
-1.82401e-07
1.25919e-06
-1.79016e-07
1.24797e-06
-1.74417e-07
1.23704e-06
-1.68551e-07
1.22642e-06
-1.61332e-07
1.21611e-06
-1.52633e-07
1.20614e-06
-1.42273e-07
1.19652e-06
-1.30011e-07
1.18726e-06
-1.15533e-07
1.17837e-06
-9.84469e-08
1.16985e-06
-7.8275e-08
1.16167e-06
-5.44622e-08
1.15379e-06
-2.63935e-08
1.14613e-06
6.56223e-09
1.13859e-06
4.49752e-08
1.13102e-06
8.9226e-08
1.12324e-06
1.39309e-07
1.11505e-06
1.94552e-07
1.10626e-06
2.53208e-07
1.09434e-06
-1.68305e-07
-2.45451e-06
-4.32391e-05
3.29706e-07
-1.55861e-08
1.59114e-06
-3.07345e-08
1.56441e-06
-4.53045e-08
1.53932e-06
-5.91728e-08
1.51573e-06
-7.22323e-08
1.49351e-06
-8.43915e-08
1.47252e-06
-9.55736e-08
1.45264e-06
-1.05716e-07
1.43377e-06
-1.14767e-07
1.41579e-06
-1.22688e-07
1.3986e-06
-1.29451e-07
1.38212e-06
-1.35036e-07
1.36626e-06
-1.39428e-07
1.35096e-06
-1.42621e-07
1.33616e-06
-1.44611e-07
1.32178e-06
-1.45393e-07
1.3078e-06
-1.44962e-07
1.29416e-06
-1.4331e-07
1.28084e-06
-1.40419e-07
1.2678e-06
-1.36261e-07
1.25503e-06
-1.30794e-07
1.2425e-06
-1.23954e-07
1.2302e-06
-1.15657e-07
1.21812e-06
-1.05787e-07
1.20624e-06
-9.41997e-08
1.19455e-06
-8.07111e-08
1.18303e-06
-6.50993e-08
1.17164e-06
-4.71018e-08
1.16037e-06
-2.64178e-08
1.14916e-06
-2.71493e-09
1.13797e-06
2.43578e-08
1.12672e-06
5.51481e-08
1.11534e-06
8.99662e-08
1.10377e-06
1.29035e-07
1.09195e-06
1.72422e-07
1.07985e-06
2.19939e-07
1.06753e-06
2.71015e-07
1.05518e-06
3.24503e-07
1.04086e-06
-1.37016e-07
-1.993e-06
-4.36544e-05
2.78293e-07
-1.28168e-08
1.60396e-06
-2.52571e-08
1.57685e-06
-3.71905e-08
1.55125e-06
-4.85021e-08
1.52704e-06
-5.90919e-08
1.5041e-06
-6.88737e-08
1.4823e-06
-7.77744e-08
1.46154e-06
-8.57326e-08
1.44173e-06
-9.26979e-08
1.42275e-06
-9.86295e-08
1.40453e-06
-1.03495e-07
1.38698e-06
-1.07268e-07
1.37004e-06
-1.09929e-07
1.35362e-06
-1.1146e-07
1.33769e-06
-1.11847e-07
1.32217e-06
-1.11073e-07
1.30703e-06
-1.09123e-07
1.29221e-06
-1.05972e-07
1.27769e-06
-1.01591e-07
1.26342e-06
-9.59427e-08
1.24938e-06
-8.89752e-08
1.23553e-06
-8.06234e-08
1.22185e-06
-7.08056e-08
1.2083e-06
-5.94212e-08
1.19486e-06
-4.63491e-08
1.18148e-06
-3.14465e-08
1.16812e-06
-1.45484e-08
1.15475e-06
4.53259e-09
1.14129e-06
2.60059e-08
1.12769e-06
5.01033e-08
1.11387e-06
7.70809e-08
1.09974e-06
1.07226e-07
1.0852e-06
1.40875e-07
1.07012e-06
1.78446e-07
1.05438e-06
2.20508e-07
1.03779e-06
2.67904e-07
1.02014e-06
3.21964e-07
1.00112e-06
3.8482e-07
9.78e-07
-2.4307e-08
-1.58387e-06
-4.38265e-05
1.47753e-07
-1.03703e-08
1.61433e-06
-2.04184e-08
1.5869e-06
-3.00229e-08
1.56086e-06
-3.90766e-08
1.53609e-06
-4.74859e-08
1.51251e-06
-5.51695e-08
1.48998e-06
-6.20579e-08
1.46843e-06
-6.8092e-08
1.44776e-06
-7.32223e-08
1.42788e-06
-7.74075e-08
1.40871e-06
-8.06138e-08
1.39019e-06
-8.28128e-08
1.37224e-06
-8.39811e-08
1.35479e-06
-8.40981e-08
1.3378e-06
-8.3145e-08
1.32122e-06
-8.11031e-08
1.30498e-06
-7.79523e-08
1.28906e-06
-7.36696e-08
1.2734e-06
-6.82277e-08
1.25798e-06
-6.15936e-08
1.24275e-06
-5.37274e-08
1.22767e-06
-4.45814e-08
1.2127e-06
-3.40991e-08
1.19782e-06
-2.22157e-08
1.18297e-06
-8.85756e-09
1.16812e-06
6.05665e-09
1.15321e-06
2.26145e-08
1.13819e-06
4.09081e-08
1.123e-06
6.10315e-08
1.10757e-06
8.30782e-08
1.09182e-06
1.07138e-07
1.07568e-06
1.33295e-07
1.05904e-06
1.61623e-07
1.04179e-06
1.92185e-07
1.02382e-06
2.25021e-07
1.00495e-06
2.60135e-07
9.85022e-07
2.9745e-07
9.63806e-07
3.36727e-07
9.38723e-07
1.44147e-08
-1.26156e-06
-4.39221e-05
1.10006e-07
-8.22281e-09
1.62255e-06
-1.61714e-08
1.59484e-06
-2.37326e-08
1.56842e-06
-3.08067e-08
1.54317e-06
-3.73058e-08
1.519e-06
-4.31537e-08
1.49583e-06
-4.82846e-08
1.47356e-06
-5.26423e-08
1.45212e-06
-5.61792e-08
1.43142e-06
-5.88556e-08
1.41139e-06
-6.06381e-08
1.39197e-06
-6.14992e-08
1.3731e-06
-6.14156e-08
1.35471e-06
-6.03678e-08
1.33676e-06
-5.83386e-08
1.31919e-06
-5.53122e-08
1.30196e-06
-5.12734e-08
1.28502e-06
-4.62066e-08
1.26834e-06
-4.00952e-08
1.25187e-06
-3.29213e-08
1.23557e-06
-2.46649e-08
1.21941e-06
-1.53046e-08
1.20334e-06
-4.81741e-09
1.18733e-06
6.81979e-09
1.17134e-06
1.96292e-08
1.15531e-06
3.36299e-08
1.13921e-06
4.88351e-08
1.12298e-06
6.52482e-08
1.10658e-06
8.28581e-08
1.08996e-06
1.01633e-07
1.07305e-06
1.21511e-07
1.0558e-06
1.42392e-07
1.03816e-06
1.64118e-07
1.02007e-06
1.86453e-07
1.00148e-06
2.09052e-07
9.82353e-07
2.31413e-07
9.6266e-07
2.52815e-07
9.42404e-07
2.72224e-07
9.19313e-07
1.42519e-08
-1.00358e-06
-4.40085e-05
1.00674e-07
-6.35246e-09
1.62891e-06
-1.24731e-08
1.60097e-06
-1.82566e-08
1.5742e-06
-2.36099e-08
1.54852e-06
-2.84511e-08
1.52385e-06
-3.27088e-08
1.50009e-06
-3.63214e-08
1.47718e-06
-3.92361e-08
1.45503e-06
-4.14084e-08
1.43359e-06
-4.28009e-08
1.41278e-06
-4.33827e-08
1.39255e-06
-4.31288e-08
1.37284e-06
-4.20189e-08
1.3536e-06
-4.00372e-08
1.33477e-06
-3.71713e-08
1.31632e-06
-3.34118e-08
1.2982e-06
-2.8752e-08
1.28036e-06
-2.31874e-08
1.26277e-06
-1.67156e-08
1.2454e-06
-9.33601e-09
1.22819e-06
-1.05064e-09
1.21112e-06
8.13583e-09
1.19416e-06
1.82151e-08
1.17725e-06
2.9174e-08
1.16038e-06
4.09932e-08
1.14349e-06
5.3645e-08
1.12656e-06
6.70908e-08
1.10954e-06
8.1278e-08
1.0924e-06
9.61366e-08
1.0751e-06
1.11574e-07
1.05761e-06
1.2747e-07
1.0399e-06
1.43672e-07
1.02196e-06
1.59986e-07
1.00376e-06
1.76169e-07
9.85298e-07
1.91926e-07
9.66596e-07
2.06904e-07
9.47682e-07
2.20696e-07
9.28613e-07
2.32856e-07
9.07152e-07
1.47384e-08
-7.85466e-07
-4.40858e-05
9.20631e-08
-4.73905e-09
1.63365e-06
-9.28352e-09
1.60551e-06
-1.35356e-08
1.57845e-06
-1.74086e-08
1.55239e-06
-2.08264e-08
1.52726e-06
-2.37225e-08
1.50299e-06
-2.60395e-08
1.47949e-06
-2.77285e-08
1.45672e-06
-2.87483e-08
1.43461e-06
-2.90647e-08
1.4131e-06
-2.86501e-08
1.39214e-06
-2.7483e-08
1.37168e-06
-2.55472e-08
1.35166e-06
-2.28316e-08
1.33206e-06
-1.93297e-08
1.31282e-06
-1.50396e-08
1.29391e-06
-9.96375e-09
1.27529e-06
-4.10867e-09
1.25692e-06
2.51457e-09
1.23877e-06
9.89031e-09
1.22082e-06
1.79979e-08
1.20302e-06
2.68111e-08
1.18534e-06
3.62977e-08
1.16777e-06
4.64182e-08
1.15026e-06
5.71255e-08
1.13278e-06
6.83635e-08
1.11532e-06
8.00661e-08
1.09784e-06
9.2156e-08
1.08031e-06
1.04544e-07
1.06271e-06
1.17126e-07
1.04503e-06
1.29787e-07
1.02724e-06
1.42394e-07
1.00935e-06
1.54804e-07
9.91346e-07
1.66859e-07
9.73242e-07
1.78397e-07
9.55058e-07
1.89256e-07
9.36823e-07
1.99286e-07
9.18583e-07
2.0832e-07
8.98118e-07
1.51094e-08
-5.92255e-07
-4.41545e-05
8.37802e-08
-3.36362e-09
1.63701e-06
-6.56522e-09
1.60871e-06
-9.51405e-09
1.5814e-06
-1.21297e-08
1.55501e-06
-1.43413e-08
1.52947e-06
-1.60872e-08
1.50473e-06
-1.73144e-08
1.48072e-06
-1.79776e-08
1.45738e-06
-1.8039e-08
1.43467e-06
-1.74679e-08
1.41253e-06
-1.62398e-08
1.39091e-06
-1.43367e-08
1.36977e-06
-1.17462e-08
1.34907e-06
-8.46183e-09
1.32877e-06
-4.48232e-09
1.30884e-06
1.87908e-10
1.28924e-06
5.53891e-09
1.26993e-06
1.1555e-08
1.2509e-06
1.82147e-08
1.23211e-06
2.549e-08
1.21354e-06
3.33465e-08
1.19516e-06
4.17427e-08
1.17695e-06
5.06297e-08
1.15888e-06
5.99509e-08
1.14094e-06
6.96421e-08
1.12309e-06
7.96311e-08
1.10533e-06
8.98384e-08
1.08763e-06
1.00178e-07
1.06997e-06
1.10557e-07
1.05233e-06
1.20879e-07
1.0347e-06
1.31046e-07
1.01708e-06
1.4096e-07
9.99436e-07
1.50526e-07
9.8178e-07
1.59659e-07
9.6411e-07
1.68284e-07
9.46432e-07
1.76348e-07
9.28759e-07
1.83821e-07
9.11111e-07
1.90619e-07
8.9132e-07
1.55595e-08
-4.17196e-07
-4.42146e-05
7.56938e-08
-2.20827e-09
1.63922e-06
-4.28276e-09
1.61079e-06
-6.13936e-09
1.58326e-06
-7.70352e-09
1.55657e-06
-8.90964e-09
1.53068e-06
-9.70059e-09
1.50552e-06
-1.00272e-08
1.48105e-06
-9.84763e-09
1.45721e-06
-9.12729e-09
1.43395e-06
-7.83816e-09
1.41124e-06
-5.95859e-09
1.38903e-06
-3.47309e-09
1.36729e-06
-3.72134e-10
1.34597e-06
3.34789e-09
1.32505e-06
7.68469e-09
1.3045e-06
1.26299e-08
1.28429e-06
1.81691e-08
1.2644e-06
2.4281e-08
1.24479e-06
3.0938e-08
1.22546e-06
3.81047e-08
1.20637e-06
4.57384e-08
1.18753e-06
5.37884e-08
1.1689e-06
6.21955e-08
1.15047e-06
7.08923e-08
1.13224e-06
7.98033e-08
1.11418e-06
8.88452e-08
1.09629e-06
9.79285e-08
1.07854e-06
1.06959e-07
1.06094e-06
1.15838e-07
1.04345e-06
1.24472e-07
1.02607e-06
1.32767e-07
1.00878e-06
1.40639e-07
9.91563e-07
1.4802e-07
9.744e-07
1.54854e-07
9.57275e-07
1.61111e-07
9.40175e-07
1.66778e-07
9.23092e-07
1.71867e-07
9.06022e-07
1.76281e-07
8.86907e-07
1.6308e-08
-2.57223e-07
-4.4266e-05
6.76957e-08
-1.25617e-09
1.64047e-06
-2.40276e-09
1.61193e-06
-3.36199e-09
1.58422e-06
-4.06488e-09
1.55728e-06
-4.45068e-09
1.53107e-06
-4.4664e-09
1.50554e-06
-4.06639e-09
1.48065e-06
-3.21189e-09
1.45635e-06
-1.8707e-09
1.43261e-06
-1.68437e-11
1.40939e-06
2.36964e-09
1.38664e-06
5.30291e-09
1.36435e-06
8.79139e-09
1.34248e-06
1.28378e-08
1.32101e-06
1.7439e-08
1.2999e-06
2.25859e-08
1.27914e-06
2.82633e-08
1.25872e-06
3.44491e-08
1.2386e-06
4.11145e-08
1.21879e-06
4.82227e-08
1.19927e-06
5.5729e-08
1.18002e-06
6.35796e-08
1.16105e-06
7.17115e-08
1.14234e-06
8.00516e-08
1.1239e-06
8.85169e-08
1.10572e-06
9.70144e-08
1.08779e-06
1.05442e-07
1.07012e-06
1.1369e-07
1.05269e-06
1.21643e-07
1.0355e-06
1.29185e-07
1.01853e-06
1.36204e-07
1.00176e-06
1.426e-07
9.85167e-07
1.4829e-07
9.68709e-07
1.5322e-07
9.52345e-07
1.57371e-07
9.36025e-07
1.60764e-07
9.19699e-07
1.63462e-07
9.03323e-07
1.65393e-07
8.84976e-07
1.75901e-08
-1.0942e-07
-4.4308e-05
5.96244e-08
-4.91389e-10
1.64097e-06
-8.93727e-10
1.61234e-06
-1.13529e-09
1.58446e-06
-1.15235e-09
1.55729e-06
-8.88684e-10
1.5308e-06
-2.95135e-10
1.50494e-06
6.70844e-10
1.47968e-06
2.04556e-09
1.45498e-06
3.85941e-09
1.4308e-06
6.13721e-09
1.40711e-06
8.89837e-09
1.38388e-06
1.21571e-08
1.3611e-06
1.59226e-08
1.33872e-06
2.01989e-08
1.31673e-06
2.4985e-08
1.29512e-06
3.02745e-08
1.27386e-06
3.60557e-08
1.25294e-06
4.23107e-08
1.23235e-06
4.90155e-08
1.21209e-06
5.61389e-08
1.19214e-06
6.36415e-08
1.17252e-06
7.14752e-08
1.15321e-06
7.95816e-08
1.13424e-06
8.78907e-08
1.11559e-06
9.6319e-08
1.09729e-06
1.04769e-07
1.07934e-06
1.13125e-07
1.06176e-06
1.21257e-07
1.04456e-06
1.29016e-07
1.02774e-06
1.36238e-07
1.01131e-06
1.42752e-07