/*--------------------------------*- C++ -*----------------------------------*\
  =========                 |
  \\      /  F ield         | OpenFOAM: The Open Source CFD Toolbox
   \\    /   O peration     | Website:  https://openfoam.org
    \\  /    A nd           | Version:  10
     \\/     M anipulation  |
\*---------------------------------------------------------------------------*/
FoamFile
{
    format      ascii;
    class       volScalarField;
    location    "2.07";
    object      p;
}
// * * * * * * * * * * * * * * * * * * * * * * * * * * * * * * * * * * * * * //

dimensions      [1 -1 -2 0 0 0 0];

internalField   nonuniform List<scalar> 
12225
(
1.71112e+07
1.70574e+07
1.69613e+07
1.68347e+07
1.66877e+07
1.65281e+07
1.63612e+07
1.61906e+07
1.60184e+07
1.58459e+07
1.56737e+07
1.55017e+07
1.53294e+07
1.51559e+07
1.49794e+07
1.47967e+07
1.46016e+07
1.43782e+07
1.71133e+07
1.70594e+07
1.69629e+07
1.6836e+07
1.66887e+07
1.65289e+07
1.63618e+07
1.61911e+07
1.60189e+07
1.58464e+07
1.56742e+07
1.55023e+07
1.53302e+07
1.5157e+07
1.4981e+07
1.47995e+07
1.46072e+07
1.43947e+07
1.71182e+07
1.70637e+07
1.69665e+07
1.68388e+07
1.66909e+07
1.65306e+07
1.63632e+07
1.61923e+07
1.602e+07
1.58475e+07
1.56755e+07
1.55038e+07
1.53321e+07
1.51595e+07
1.49847e+07
1.48053e+07
1.46182e+07
1.44198e+07
1.71262e+07
1.70709e+07
1.69725e+07
1.68435e+07
1.66945e+07
1.65334e+07
1.63655e+07
1.61942e+07
1.60218e+07
1.58494e+07
1.56774e+07
1.55061e+07
1.53351e+07
1.51636e+07
1.49905e+07
1.48144e+07
1.46337e+07
1.4449e+07
1.71382e+07
1.70816e+07
1.69812e+07
1.68503e+07
1.66998e+07
1.65375e+07
1.63688e+07
1.6197e+07
1.60244e+07
1.5852e+07
1.56803e+07
1.55096e+07
1.53394e+07
1.51693e+07
1.49986e+07
1.48265e+07
1.46528e+07
1.44802e+07
1.71549e+07
1.70964e+07
1.69933e+07
1.68598e+07
1.6707e+07
1.65431e+07
1.63732e+07
1.62008e+07
1.60279e+07
1.58555e+07
1.56842e+07
1.55141e+07
1.53451e+07
1.51769e+07
1.5009e+07
1.48414e+07
1.46748e+07
1.45124e+07
1.71773e+07
1.71162e+07
1.70094e+07
1.68722e+07
1.67165e+07
1.65503e+07
1.6379e+07
1.62057e+07
1.60324e+07
1.58601e+07
1.56892e+07
1.552e+07
1.53524e+07
1.51863e+07
1.50216e+07
1.48587e+07
1.46989e+07
1.4545e+07
1.72068e+07
1.7142e+07
1.70301e+07
1.6888e+07
1.67284e+07
1.65595e+07
1.63863e+07
1.62119e+07
1.6038e+07
1.58657e+07
1.56954e+07
1.55272e+07
1.53613e+07
1.51976e+07
1.50364e+07
1.48782e+07
1.47245e+07
1.45778e+07
1.7245e+07
1.71751e+07
1.70563e+07
1.69078e+07
1.67432e+07
1.65706e+07
1.6395e+07
1.62192e+07
1.60448e+07
1.58725e+07
1.57028e+07
1.55359e+07
1.53718e+07
1.52107e+07
1.5053e+07
1.48995e+07
1.47514e+07
1.46107e+07
1.7294e+07
1.72169e+07
1.70888e+07
1.6932e+07
1.67609e+07
1.65838e+07
1.64054e+07
1.62279e+07
1.60528e+07
1.58805e+07
1.57115e+07
1.55458e+07
1.53838e+07
1.52255e+07
1.50714e+07
1.49222e+07
1.47791e+07
1.46435e+07
1.73568e+07
1.72694e+07
1.71285e+07
1.69608e+07
1.67817e+07
1.65992e+07
1.64173e+07
1.62378e+07
1.60618e+07
1.58896e+07
1.57213e+07
1.55571e+07
1.53972e+07
1.52417e+07
1.50911e+07
1.4946e+07
1.48073e+07
1.46761e+07
1.74306e+07
1.73293e+07
1.71724e+07
1.69917e+07
1.68035e+07
1.6615e+07
1.64294e+07
1.62479e+07
1.6071e+07
1.58988e+07
1.57313e+07
1.55686e+07
1.54106e+07
1.52577e+07
1.51102e+07
1.49686e+07
1.48335e+07
1.47058e+07
1.75215e+07
1.74004e+07
1.72225e+07
1.70259e+07
1.6827e+07
1.66317e+07
1.64421e+07
1.62585e+07
1.60807e+07
1.59086e+07
1.57419e+07
1.55806e+07
1.54247e+07
1.52743e+07
1.51297e+07
1.49913e+07
1.48595e+07
1.47349e+07
1.7656e+07
1.74993e+07
1.72881e+07
1.70686e+07
1.68553e+07
1.66515e+07
1.64569e+07
1.62707e+07
1.6092e+07
1.59201e+07
1.57545e+07
1.5595e+07
1.54414e+07
1.52938e+07
1.51524e+07
1.50174e+07
1.4889e+07
1.47675e+07
1.78654e+07
1.76368e+07
1.73709e+07
1.71187e+07
1.68869e+07
1.66728e+07
1.64727e+07
1.62839e+07
1.61044e+07
1.5933e+07
1.57688e+07
1.56115e+07
1.54606e+07
1.53162e+07
1.51781e+07
1.50466e+07
1.49217e+07
1.48034e+07
1.82194e+07
1.78203e+07
1.74633e+07
1.7168e+07
1.69154e+07
1.6691e+07
1.64861e+07
1.62954e+07
1.6116e+07
1.59459e+07
1.57838e+07
1.56292e+07
1.54815e+07
1.53405e+07
1.52062e+07
1.50783e+07
1.49568e+07
1.48417e+07
1.89057e+07
1.80043e+07
1.75229e+07
1.71902e+07
1.69247e+07
1.66958e+07
1.64901e+07
1.63005e+07
1.61232e+07
1.59559e+07
1.57972e+07
1.56462e+07
1.55024e+07
1.53654e+07
1.5235e+07
1.51109e+07
1.49931e+07
1.48813e+07
1.80602e+07
1.77272e+07
1.74038e+07
1.71257e+07
1.68843e+07
1.66691e+07
1.64726e+07
1.62904e+07
1.61194e+07
1.59579e+07
1.58047e+07
1.56589e+07
1.55201e+07
1.53879e+07
1.5262e+07
1.51421e+07
1.50282e+07
1.49199e+07
1.74941e+07
1.73584e+07
1.71724e+07
1.69759e+07
1.67834e+07
1.65992e+07
1.64239e+07
1.62571e+07
1.60981e+07
1.59464e+07
1.58015e+07
1.56631e+07
1.55308e+07
1.54044e+07
1.52838e+07
1.51687e+07
1.5059e+07
1.49545e+07
1.71717e+07
1.70944e+07
1.69714e+07
1.68262e+07
1.66722e+07
1.65165e+07
1.63625e+07
1.6212e+07
1.60659e+07
1.59245e+07
1.57882e+07
1.5657e+07
1.5531e+07
1.541e+07
1.52942e+07
1.51833e+07
1.50772e+07
1.49759e+07
1.69877e+07
1.69323e+07
1.68382e+07
1.67203e+07
1.65895e+07
1.64524e+07
1.63132e+07
1.61746e+07
1.6038e+07
1.59044e+07
1.57746e+07
1.56488e+07
1.55274e+07
1.54104e+07
1.5298e+07
1.519e+07
1.50866e+07
1.49875e+07
1.68661e+07
1.68216e+07
1.67433e+07
1.66421e+07
1.65263e+07
1.6402e+07
1.62736e+07
1.61437e+07
1.60144e+07
1.58869e+07
1.5762e+07
1.56405e+07
1.55226e+07
1.54087e+07
1.52989e+07
1.51933e+07
1.50918e+07
1.49945e+07
1.67839e+07
1.67454e+07
1.66765e+07
1.65856e+07
1.64797e+07
1.63642e+07
1.62433e+07
1.61198e+07
1.59958e+07
1.58727e+07
1.57516e+07
1.56332e+07
1.5518e+07
1.54064e+07
1.52986e+07
1.51947e+07
1.50947e+07
1.49986e+07
1.67279e+07
1.6693e+07
1.663e+07
1.65456e+07
1.64462e+07
1.63367e+07
1.6221e+07
1.6102e+07
1.59817e+07
1.58618e+07
1.57434e+07
1.56273e+07
1.55141e+07
1.54042e+07
1.52978e+07
1.51951e+07
1.50962e+07
1.50011e+07
1.66901e+07
1.66574e+07
1.6598e+07
1.65179e+07
1.64228e+07
1.63173e+07
1.62051e+07
1.60892e+07
1.59715e+07
1.58539e+07
1.57374e+07
1.56229e+07
1.55111e+07
1.54023e+07
1.5297e+07
1.51951e+07
1.5097e+07
1.50025e+07
1.6665e+07
1.66337e+07
1.65766e+07
1.64992e+07
1.64069e+07
1.6304e+07
1.61942e+07
1.60803e+07
1.59645e+07
1.58483e+07
1.57331e+07
1.56197e+07
1.55089e+07
1.54009e+07
1.52962e+07
1.5195e+07
1.50974e+07
1.50033e+07
1.66488e+07
1.66184e+07
1.65627e+07
1.64871e+07
1.63965e+07
1.62953e+07
1.6187e+07
1.60745e+07
1.59598e+07
1.58446e+07
1.57302e+07
1.56176e+07
1.55073e+07
1.53999e+07
1.52956e+07
1.51948e+07
1.50975e+07
1.50038e+07
1.6639e+07
1.66092e+07
1.65543e+07
1.64797e+07
1.63902e+07
1.629e+07
1.61826e+07
1.60708e+07
1.59568e+07
1.58423e+07
1.57284e+07
1.56162e+07
1.55063e+07
1.53992e+07
1.52953e+07
1.51947e+07
1.50976e+07
1.5004e+07
1.66338e+07
1.66041e+07
1.65498e+07
1.64757e+07
1.63867e+07
1.62871e+07
1.61802e+07
1.60689e+07
1.59552e+07
1.5841e+07
1.57274e+07
1.56154e+07
1.55057e+07
1.53988e+07
1.5295e+07
1.51946e+07
1.50976e+07
1.50041e+07
1.66316e+07
1.66021e+07
1.65479e+07
1.64741e+07
1.63853e+07
1.62859e+07
1.61792e+07
1.6068e+07
1.59546e+07
1.58405e+07
1.5727e+07
1.56151e+07
1.55055e+07
1.53987e+07
1.52949e+07
1.51945e+07
1.50976e+07
1.50042e+07
1.22207e+07
1.22194e+07
1.22167e+07
1.22128e+07
1.22074e+07
1.22006e+07
1.21923e+07
1.21826e+07
1.21714e+07
1.21586e+07
1.21443e+07
1.21284e+07
1.21109e+07
1.20917e+07
1.20708e+07
1.20483e+07
1.2024e+07
1.19979e+07
1.19699e+07
1.19401e+07
1.19084e+07
1.18747e+07
1.18389e+07
1.18009e+07
1.17607e+07
1.17182e+07
1.16732e+07
1.16255e+07
1.15749e+07
1.15212e+07
1.14641e+07
1.1403e+07
1.13373e+07
1.12664e+07
1.11889e+07
1.11031e+07
1.10057e+07
1.08901e+07
1.07478e+07
1.07415e+07
1.07373e+07
1.07334e+07
1.07296e+07
1.0726e+07
1.07224e+07
1.0719e+07
1.07156e+07
1.07124e+07
1.07091e+07
1.0706e+07
1.07029e+07
1.06998e+07
1.06968e+07
1.06938e+07
1.06909e+07
1.0688e+07
1.06851e+07
1.06822e+07
1.06794e+07
1.06766e+07
1.06738e+07
1.06711e+07
1.06683e+07
1.06656e+07
1.06629e+07
1.06602e+07
1.06575e+07
1.06548e+07
1.06522e+07
1.06495e+07
1.06468e+07
1.06442e+07
1.06415e+07
1.06389e+07
1.06362e+07
1.06336e+07
1.06309e+07
1.06283e+07
1.06256e+07
1.0623e+07
1.06203e+07
1.06177e+07
1.0615e+07
1.06123e+07
1.06096e+07
1.06069e+07
1.06042e+07
1.06015e+07
1.05988e+07
1.05961e+07
1.05933e+07
1.05906e+07
1.05878e+07
1.0585e+07
1.05822e+07
1.05794e+07
1.05766e+07
1.05738e+07
1.05709e+07
1.05681e+07
1.05652e+07
1.05623e+07
1.05593e+07
1.05564e+07
1.05535e+07
1.05505e+07
1.05475e+07
1.05445e+07
1.05414e+07
1.05384e+07
1.05353e+07
1.05322e+07
1.05291e+07
1.0526e+07
1.05228e+07
1.05196e+07
1.05164e+07
1.05132e+07
1.05099e+07
1.05067e+07
1.05034e+07
1.05e+07
1.04967e+07
1.04933e+07
1.04899e+07
1.04865e+07
1.04831e+07
1.04796e+07
1.04761e+07
1.04726e+07
1.0469e+07
1.04654e+07
1.04618e+07
1.04582e+07
1.04545e+07
1.04509e+07
1.04471e+07
1.04434e+07
1.04396e+07
1.04358e+07
1.0432e+07
1.04281e+07
1.04242e+07
1.04203e+07
1.04164e+07
1.04124e+07
1.04084e+07
1.04043e+07
1.04003e+07
1.03962e+07
1.0392e+07
1.03879e+07
1.03837e+07
1.03794e+07
1.03752e+07
1.03709e+07
1.03665e+07
1.03622e+07
1.03578e+07
1.03533e+07
1.03489e+07
1.03444e+07
1.03398e+07
1.03353e+07
1.03307e+07
1.0326e+07
1.03213e+07
1.03166e+07
1.03119e+07
1.03071e+07
1.03023e+07
1.02974e+07
1.02926e+07
1.02876e+07
1.02827e+07
1.02777e+07
1.02728e+07
1.02678e+07
1.02628e+07
1.02579e+07
1.22258e+07
1.22245e+07
1.22219e+07
1.22179e+07
1.22125e+07
1.22057e+07
1.21974e+07
1.21876e+07
1.21764e+07
1.21636e+07
1.21492e+07
1.21333e+07
1.21157e+07
1.20965e+07
1.20757e+07
1.20531e+07
1.20288e+07
1.20028e+07
1.19749e+07
1.19452e+07
1.19136e+07
1.18801e+07
1.18445e+07
1.18068e+07
1.17669e+07
1.17247e+07
1.168e+07
1.16328e+07
1.15828e+07
1.15297e+07
1.14734e+07
1.14135e+07
1.13495e+07
1.12809e+07
1.12071e+07
1.11272e+07
1.10404e+07
1.0946e+07
1.08443e+07
1.07418e+07
1.07367e+07
1.07329e+07
1.07292e+07
1.07256e+07
1.07222e+07
1.07188e+07
1.07154e+07
1.07122e+07
1.0709e+07
1.07058e+07
1.07027e+07
1.06997e+07
1.06967e+07
1.06937e+07
1.06908e+07
1.06879e+07
1.0685e+07
1.06821e+07
1.06793e+07
1.06765e+07
1.06738e+07
1.0671e+07
1.06683e+07
1.06655e+07
1.06628e+07
1.06601e+07
1.06575e+07
1.06548e+07
1.06521e+07
1.06494e+07
1.06468e+07
1.06441e+07
1.06415e+07
1.06388e+07
1.06362e+07
1.06336e+07
1.06309e+07
1.06283e+07
1.06256e+07
1.0623e+07
1.06203e+07
1.06176e+07
1.0615e+07
1.06123e+07
1.06096e+07
1.06069e+07
1.06042e+07
1.06015e+07
1.05988e+07
1.05961e+07
1.05933e+07
1.05906e+07
1.05878e+07
1.0585e+07
1.05822e+07
1.05794e+07
1.05766e+07
1.05738e+07
1.05709e+07
1.0568e+07
1.05652e+07
1.05623e+07
1.05593e+07
1.05564e+07
1.05534e+07
1.05505e+07
1.05475e+07
1.05445e+07
1.05414e+07
1.05384e+07
1.05353e+07
1.05322e+07
1.05291e+07
1.0526e+07
1.05228e+07
1.05196e+07
1.05164e+07
1.05132e+07
1.05099e+07
1.05067e+07
1.05034e+07
1.05e+07
1.04967e+07
1.04933e+07
1.04899e+07
1.04865e+07
1.04831e+07
1.04796e+07
1.04761e+07
1.04726e+07
1.0469e+07
1.04654e+07
1.04618e+07
1.04582e+07
1.04545e+07
1.04509e+07
1.04471e+07
1.04434e+07
1.04396e+07
1.04358e+07
1.0432e+07
1.04281e+07
1.04242e+07
1.04203e+07
1.04164e+07
1.04124e+07
1.04084e+07
1.04043e+07
1.04003e+07
1.03962e+07
1.0392e+07
1.03879e+07
1.03837e+07
1.03794e+07
1.03752e+07
1.03709e+07
1.03665e+07
1.03622e+07
1.03578e+07
1.03533e+07
1.03489e+07
1.03444e+07
1.03398e+07
1.03353e+07
1.03306e+07
1.0326e+07
1.03213e+07
1.03166e+07
1.03119e+07
1.03071e+07
1.03023e+07
1.02974e+07
1.02926e+07
1.02876e+07
1.02827e+07
1.02777e+07
1.02728e+07
1.02678e+07
1.02628e+07
1.02578e+07
1.22363e+07
1.2235e+07
1.22323e+07
1.22283e+07
1.22229e+07
1.22161e+07
1.22078e+07
1.2198e+07
1.21867e+07
1.21739e+07
1.21595e+07
1.21435e+07
1.2126e+07
1.21067e+07
1.20859e+07
1.20633e+07
1.2039e+07
1.2013e+07
1.19852e+07
1.19557e+07
1.19242e+07
1.18909e+07
1.18555e+07
1.18181e+07
1.17786e+07
1.17369e+07
1.16928e+07
1.16463e+07
1.15971e+07
1.15452e+07
1.14903e+07
1.14323e+07
1.13708e+07
1.13056e+07
1.12365e+07
1.11634e+07
1.10861e+07
1.10051e+07
1.09211e+07
1.0835e+07
1.07419e+07
1.07321e+07
1.07285e+07
1.07251e+07
1.07217e+07
1.07183e+07
1.0715e+07
1.07118e+07
1.07086e+07
1.07055e+07
1.07024e+07
1.06994e+07
1.06964e+07
1.06935e+07
1.06906e+07
1.06877e+07
1.06848e+07
1.0682e+07
1.06792e+07
1.06764e+07
1.06736e+07
1.06709e+07
1.06681e+07
1.06654e+07
1.06627e+07
1.066e+07
1.06574e+07
1.06547e+07
1.0652e+07
1.06494e+07
1.06467e+07
1.06441e+07
1.06414e+07
1.06388e+07
1.06361e+07
1.06335e+07
1.06309e+07
1.06282e+07
1.06256e+07
1.06229e+07
1.06203e+07
1.06176e+07
1.06149e+07
1.06123e+07
1.06096e+07
1.06069e+07
1.06042e+07
1.06015e+07
1.05988e+07
1.0596e+07
1.05933e+07
1.05906e+07
1.05878e+07
1.0585e+07
1.05822e+07
1.05794e+07
1.05766e+07
1.05738e+07
1.05709e+07
1.0568e+07
1.05652e+07
1.05622e+07
1.05593e+07
1.05564e+07
1.05534e+07
1.05505e+07
1.05475e+07
1.05445e+07
1.05414e+07
1.05384e+07
1.05353e+07
1.05322e+07
1.05291e+07
1.0526e+07
1.05228e+07
1.05196e+07
1.05164e+07
1.05132e+07
1.05099e+07
1.05067e+07
1.05034e+07
1.05e+07
1.04967e+07
1.04933e+07
1.04899e+07
1.04865e+07
1.04831e+07
1.04796e+07
1.04761e+07
1.04726e+07
1.0469e+07
1.04654e+07
1.04618e+07
1.04582e+07
1.04545e+07
1.04509e+07
1.04471e+07
1.04434e+07
1.04396e+07
1.04358e+07
1.0432e+07
1.04281e+07
1.04242e+07
1.04203e+07
1.04164e+07
1.04124e+07
1.04084e+07
1.04043e+07
1.04003e+07
1.03962e+07
1.0392e+07
1.03879e+07
1.03837e+07
1.03794e+07
1.03752e+07
1.03709e+07
1.03665e+07
1.03622e+07
1.03578e+07
1.03533e+07
1.03489e+07
1.03444e+07
1.03398e+07
1.03353e+07
1.03306e+07
1.0326e+07
1.03213e+07
1.03166e+07
1.03119e+07
1.03071e+07
1.03023e+07
1.02974e+07
1.02925e+07
1.02876e+07
1.02827e+07
1.02777e+07
1.02727e+07
1.02677e+07
1.02627e+07
1.02577e+07
1.22522e+07
1.22509e+07
1.22482e+07
1.22442e+07
1.22388e+07
1.22319e+07
1.22236e+07
1.22138e+07
1.22025e+07
1.21897e+07
1.21753e+07
1.21593e+07
1.21417e+07
1.21225e+07
1.21016e+07
1.20791e+07
1.20549e+07
1.20289e+07
1.20012e+07
1.19718e+07
1.19405e+07
1.19073e+07
1.18722e+07
1.18352e+07
1.17961e+07
1.17548e+07
1.17114e+07
1.16657e+07
1.16176e+07
1.1567e+07
1.15138e+07
1.14579e+07
1.13992e+07
1.13375e+07
1.1273e+07
1.12057e+07
1.11357e+07
1.10637e+07
1.09903e+07
1.09163e+07
1.08424e+07
1.07691e+07
1.07277e+07
1.07243e+07
1.0721e+07
1.07177e+07
1.07144e+07
1.07113e+07
1.07081e+07
1.07051e+07
1.0702e+07
1.0699e+07
1.06961e+07
1.06931e+07
1.06902e+07
1.06874e+07
1.06845e+07
1.06817e+07
1.06789e+07
1.06762e+07
1.06734e+07
1.06707e+07
1.0668e+07
1.06653e+07
1.06626e+07
1.06599e+07
1.06572e+07
1.06546e+07
1.06519e+07
1.06493e+07
1.06466e+07
1.0644e+07
1.06413e+07
1.06387e+07
1.06361e+07
1.06334e+07
1.06308e+07
1.06282e+07
1.06255e+07
1.06229e+07
1.06202e+07
1.06176e+07
1.06149e+07
1.06122e+07
1.06095e+07
1.06069e+07
1.06042e+07
1.06015e+07
1.05987e+07
1.0596e+07
1.05933e+07
1.05905e+07
1.05878e+07
1.0585e+07
1.05822e+07
1.05794e+07
1.05766e+07
1.05737e+07
1.05709e+07
1.0568e+07
1.05651e+07
1.05622e+07
1.05593e+07
1.05564e+07
1.05534e+07
1.05505e+07
1.05475e+07
1.05444e+07
1.05414e+07
1.05384e+07
1.05353e+07
1.05322e+07
1.05291e+07
1.05259e+07
1.05228e+07
1.05196e+07
1.05164e+07
1.05132e+07
1.05099e+07
1.05067e+07
1.05034e+07
1.05e+07
1.04967e+07
1.04933e+07
1.04899e+07
1.04865e+07
1.04831e+07
1.04796e+07
1.04761e+07
1.04726e+07
1.0469e+07
1.04654e+07
1.04618e+07
1.04582e+07
1.04545e+07
1.04509e+07
1.04471e+07
1.04434e+07
1.04396e+07
1.04358e+07
1.0432e+07
1.04281e+07
1.04242e+07
1.04203e+07
1.04164e+07
1.04124e+07
1.04084e+07
1.04043e+07
1.04003e+07
1.03962e+07
1.0392e+07
1.03879e+07
1.03837e+07
1.03794e+07
1.03752e+07
1.03709e+07
1.03665e+07
1.03622e+07
1.03578e+07
1.03533e+07
1.03489e+07
1.03444e+07
1.03398e+07
1.03352e+07
1.03306e+07
1.0326e+07
1.03213e+07
1.03166e+07
1.03119e+07
1.03071e+07
1.03023e+07
1.02974e+07
1.02925e+07
1.02876e+07
1.02827e+07
1.02777e+07
1.02727e+07
1.02677e+07
1.02627e+07
1.02577e+07
1.22737e+07
1.22723e+07
1.22696e+07
1.22656e+07
1.22601e+07
1.22532e+07
1.22449e+07
1.2235e+07
1.22237e+07
1.22108e+07
1.21964e+07
1.21804e+07
1.21628e+07
1.21435e+07
1.21227e+07
1.21002e+07
1.2076e+07
1.20501e+07
1.20224e+07
1.19931e+07
1.19619e+07
1.19289e+07
1.18941e+07
1.18574e+07
1.18187e+07
1.17781e+07
1.17353e+07
1.16905e+07
1.16435e+07
1.15943e+07
1.15428e+07
1.1489e+07
1.14328e+07
1.13744e+07
1.13138e+07
1.12511e+07
1.11866e+07
1.11209e+07
1.10544e+07
1.09878e+07
1.0922e+07
1.08578e+07
1.0796e+07
1.0725e+07
1.07201e+07
1.07168e+07
1.07137e+07
1.07105e+07
1.07075e+07
1.07045e+07
1.07015e+07
1.06985e+07
1.06956e+07
1.06927e+07
1.06898e+07
1.0687e+07
1.06842e+07
1.06814e+07
1.06786e+07
1.06759e+07
1.06731e+07
1.06704e+07
1.06677e+07
1.0665e+07
1.06624e+07
1.06597e+07
1.0657e+07
1.06544e+07
1.06517e+07
1.06491e+07
1.06465e+07
1.06438e+07
1.06412e+07
1.06386e+07
1.0636e+07
1.06333e+07
1.06307e+07
1.06281e+07
1.06254e+07
1.06228e+07
1.06201e+07
1.06175e+07
1.06148e+07
1.06122e+07
1.06095e+07
1.06068e+07
1.06041e+07
1.06014e+07
1.05987e+07
1.0596e+07
1.05932e+07
1.05905e+07
1.05877e+07
1.0585e+07
1.05822e+07
1.05794e+07
1.05765e+07
1.05737e+07
1.05709e+07
1.0568e+07
1.05651e+07
1.05622e+07
1.05593e+07
1.05564e+07
1.05534e+07
1.05504e+07
1.05474e+07
1.05444e+07
1.05414e+07
1.05384e+07
1.05353e+07
1.05322e+07
1.05291e+07
1.05259e+07
1.05228e+07
1.05196e+07
1.05164e+07
1.05132e+07
1.05099e+07
1.05066e+07
1.05033e+07
1.05e+07
1.04967e+07
1.04933e+07
1.04899e+07
1.04865e+07
1.04831e+07
1.04796e+07
1.04761e+07
1.04726e+07
1.0469e+07
1.04654e+07
1.04618e+07
1.04582e+07
1.04545e+07
1.04508e+07
1.04471e+07
1.04434e+07
1.04396e+07
1.04358e+07
1.0432e+07
1.04281e+07
1.04242e+07
1.04203e+07
1.04164e+07
1.04124e+07
1.04084e+07
1.04043e+07
1.04003e+07
1.03962e+07
1.0392e+07
1.03878e+07
1.03836e+07
1.03794e+07
1.03752e+07
1.03709e+07
1.03665e+07
1.03622e+07
1.03578e+07
1.03533e+07
1.03489e+07
1.03444e+07
1.03398e+07
1.03352e+07
1.03306e+07
1.0326e+07
1.03213e+07
1.03166e+07
1.03119e+07
1.03071e+07
1.03023e+07
1.02974e+07
1.02925e+07
1.02876e+07
1.02827e+07
1.02777e+07
1.02727e+07
1.02677e+07
1.02626e+07
1.02576e+07
1.23006e+07
1.22993e+07
1.22965e+07
1.22924e+07
1.22869e+07
1.22799e+07
1.22715e+07
1.22616e+07
1.22502e+07
1.22372e+07
1.22227e+07
1.22066e+07
1.2189e+07
1.21697e+07
1.21488e+07
1.21262e+07
1.2102e+07
1.20762e+07
1.20486e+07
1.20193e+07
1.19882e+07
1.19554e+07
1.19208e+07
1.18844e+07
1.18462e+07
1.1806e+07
1.1764e+07
1.172e+07
1.1674e+07
1.16261e+07
1.15762e+07
1.15242e+07
1.14704e+07
1.14146e+07
1.13571e+07
1.1298e+07
1.12376e+07
1.11762e+07
1.11142e+07
1.10521e+07
1.09902e+07
1.09287e+07
1.08671e+07
1.08029e+07
1.07318e+07
1.07158e+07
1.07127e+07
1.07097e+07
1.07067e+07
1.07038e+07
1.07008e+07
1.06979e+07
1.0695e+07
1.06922e+07
1.06893e+07
1.06865e+07
1.06837e+07
1.0681e+07
1.06782e+07
1.06755e+07
1.06728e+07
1.06701e+07
1.06674e+07
1.06648e+07
1.06621e+07
1.06594e+07
1.06568e+07
1.06542e+07
1.06515e+07
1.06489e+07
1.06463e+07
1.06437e+07
1.06411e+07
1.06384e+07
1.06358e+07
1.06332e+07
1.06306e+07
1.06279e+07
1.06253e+07
1.06227e+07
1.062e+07
1.06174e+07
1.06147e+07
1.06121e+07
1.06094e+07
1.06067e+07
1.0604e+07
1.06013e+07
1.05986e+07
1.05959e+07
1.05932e+07
1.05904e+07
1.05877e+07
1.05849e+07
1.05821e+07
1.05793e+07
1.05765e+07
1.05737e+07
1.05708e+07
1.0568e+07
1.05651e+07
1.05622e+07
1.05593e+07
1.05563e+07
1.05534e+07
1.05504e+07
1.05474e+07
1.05444e+07
1.05414e+07
1.05383e+07
1.05353e+07
1.05322e+07
1.05291e+07
1.05259e+07
1.05228e+07
1.05196e+07
1.05164e+07
1.05132e+07
1.05099e+07
1.05066e+07
1.05033e+07
1.05e+07
1.04967e+07
1.04933e+07
1.04899e+07
1.04865e+07
1.0483e+07
1.04796e+07
1.04761e+07
1.04726e+07
1.0469e+07
1.04654e+07
1.04618e+07
1.04582e+07
1.04545e+07
1.04508e+07
1.04471e+07
1.04434e+07
1.04396e+07
1.04358e+07
1.0432e+07
1.04281e+07
1.04242e+07
1.04203e+07
1.04164e+07
1.04124e+07
1.04084e+07
1.04043e+07
1.04003e+07
1.03962e+07
1.0392e+07
1.03878e+07
1.03836e+07
1.03794e+07
1.03751e+07
1.03708e+07
1.03665e+07
1.03622e+07
1.03578e+07
1.03533e+07
1.03489e+07
1.03443e+07
1.03398e+07
1.03352e+07
1.03306e+07
1.0326e+07
1.03213e+07
1.03166e+07
1.03119e+07
1.03071e+07
1.03023e+07
1.02974e+07
1.02925e+07
1.02876e+07
1.02827e+07
1.02777e+07
1.02727e+07
1.02676e+07
1.02626e+07
1.02575e+07
1.23331e+07
1.23317e+07
1.23289e+07
1.23247e+07
1.23191e+07
1.2312e+07
1.23035e+07
1.22935e+07
1.2282e+07
1.22689e+07
1.22542e+07
1.2238e+07
1.22202e+07
1.22009e+07
1.21798e+07
1.21572e+07
1.21329e+07
1.2107e+07
1.20794e+07
1.20501e+07
1.20191e+07
1.19864e+07
1.1952e+07
1.19158e+07
1.18779e+07
1.18382e+07
1.17968e+07
1.17535e+07
1.17085e+07
1.16617e+07
1.16131e+07
1.15627e+07
1.15107e+07
1.14572e+07
1.14021e+07
1.13458e+07
1.12883e+07
1.123e+07
1.11712e+07
1.1112e+07
1.10529e+07
1.09938e+07
1.0935e+07
1.08761e+07
1.08176e+07
1.07614e+07
1.07119e+07
1.07088e+07
1.07059e+07
1.07029e+07
1.07001e+07
1.06972e+07
1.06944e+07
1.06916e+07
1.06888e+07
1.0686e+07
1.06832e+07
1.06805e+07
1.06778e+07
1.06751e+07
1.06724e+07
1.06697e+07
1.06671e+07
1.06644e+07
1.06618e+07
1.06592e+07
1.06565e+07
1.06539e+07
1.06513e+07
1.06487e+07
1.06461e+07
1.06435e+07
1.06409e+07
1.06383e+07
1.06357e+07
1.0633e+07
1.06304e+07
1.06278e+07
1.06252e+07
1.06226e+07
1.06199e+07
1.06173e+07
1.06146e+07
1.0612e+07
1.06093e+07
1.06067e+07
1.0604e+07
1.06013e+07
1.05986e+07
1.05959e+07
1.05931e+07
1.05904e+07
1.05876e+07
1.05849e+07
1.05821e+07
1.05793e+07
1.05765e+07
1.05736e+07
1.05708e+07
1.05679e+07
1.05651e+07
1.05622e+07
1.05592e+07
1.05563e+07
1.05534e+07
1.05504e+07
1.05474e+07
1.05444e+07
1.05414e+07
1.05383e+07
1.05352e+07
1.05322e+07
1.0529e+07
1.05259e+07
1.05228e+07
1.05196e+07
1.05164e+07
1.05131e+07
1.05099e+07
1.05066e+07
1.05033e+07
1.05e+07
1.04967e+07
1.04933e+07
1.04899e+07
1.04865e+07
1.0483e+07
1.04796e+07
1.04761e+07
1.04725e+07
1.0469e+07
1.04654e+07
1.04618e+07
1.04582e+07
1.04545e+07
1.04508e+07
1.04471e+07
1.04434e+07
1.04396e+07
1.04358e+07
1.0432e+07
1.04281e+07
1.04242e+07
1.04203e+07
1.04164e+07
1.04124e+07
1.04084e+07
1.04043e+07
1.04003e+07
1.03961e+07
1.0392e+07
1.03878e+07
1.03836e+07
1.03794e+07
1.03751e+07
1.03708e+07
1.03665e+07
1.03621e+07
1.03577e+07
1.03533e+07
1.03488e+07
1.03443e+07
1.03398e+07
1.03352e+07
1.03306e+07
1.0326e+07
1.03213e+07
1.03166e+07
1.03119e+07
1.03071e+07
1.03022e+07
1.02974e+07
1.02925e+07
1.02876e+07
1.02826e+07
1.02777e+07
1.02726e+07
1.02676e+07
1.02625e+07
1.02574e+07
1.23712e+07
1.23697e+07
1.23668e+07
1.23625e+07
1.23568e+07
1.23496e+07
1.23409e+07
1.23307e+07
1.2319e+07
1.23057e+07
1.22909e+07
1.22745e+07
1.22565e+07
1.22369e+07
1.22157e+07
1.21929e+07
1.21684e+07
1.21423e+07
1.21146e+07
1.20852e+07
1.20542e+07
1.20216e+07
1.19872e+07
1.19512e+07
1.19136e+07
1.18742e+07
1.18333e+07
1.17906e+07
1.17463e+07
1.17004e+07
1.16529e+07
1.16038e+07
1.15533e+07
1.15014e+07
1.14482e+07
1.13939e+07
1.13387e+07
1.12826e+07
1.1226e+07
1.1169e+07
1.11119e+07
1.10547e+07
1.09977e+07
1.0941e+07
1.08848e+07
1.08292e+07
1.07727e+07
1.0709e+07
1.07049e+07
1.0702e+07
1.06992e+07
1.06964e+07
1.06936e+07
1.06908e+07
1.06881e+07
1.06854e+07
1.06827e+07
1.068e+07
1.06773e+07
1.06746e+07
1.0672e+07
1.06693e+07
1.06667e+07
1.06641e+07
1.06614e+07
1.06588e+07
1.06562e+07
1.06536e+07
1.0651e+07
1.06484e+07
1.06458e+07
1.06432e+07
1.06407e+07
1.06381e+07
1.06355e+07
1.06329e+07
1.06303e+07
1.06277e+07
1.0625e+07
1.06224e+07
1.06198e+07
1.06172e+07
1.06145e+07
1.06119e+07
1.06092e+07
1.06066e+07
1.06039e+07
1.06012e+07
1.05985e+07
1.05958e+07
1.05931e+07
1.05903e+07
1.05876e+07
1.05848e+07
1.0582e+07
1.05792e+07
1.05764e+07
1.05736e+07
1.05708e+07
1.05679e+07
1.0565e+07
1.05621e+07
1.05592e+07
1.05563e+07
1.05533e+07
1.05504e+07
1.05474e+07
1.05444e+07
1.05413e+07
1.05383e+07
1.05352e+07
1.05321e+07
1.0529e+07
1.05259e+07
1.05227e+07
1.05196e+07
1.05164e+07
1.05131e+07
1.05099e+07
1.05066e+07
1.05033e+07
1.05e+07
1.04967e+07
1.04933e+07
1.04899e+07
1.04865e+07
1.0483e+07
1.04796e+07
1.04761e+07
1.04725e+07
1.0469e+07
1.04654e+07
1.04618e+07
1.04582e+07
1.04545e+07
1.04508e+07
1.04471e+07
1.04434e+07
1.04396e+07
1.04358e+07
1.0432e+07
1.04281e+07
1.04242e+07
1.04203e+07
1.04164e+07
1.04124e+07
1.04084e+07
1.04043e+07
1.04002e+07
1.03961e+07
1.0392e+07
1.03878e+07
1.03836e+07
1.03794e+07
1.03751e+07
1.03708e+07
1.03665e+07
1.03621e+07
1.03577e+07
1.03533e+07
1.03488e+07
1.03443e+07
1.03398e+07
1.03352e+07
1.03306e+07
1.0326e+07
1.03213e+07
1.03166e+07
1.03118e+07
1.03071e+07
1.03022e+07
1.02974e+07
1.02925e+07
1.02876e+07
1.02826e+07
1.02776e+07
1.02726e+07
1.02675e+07
1.02625e+07
1.02573e+07
1.24149e+07
1.24133e+07
1.24104e+07
1.24059e+07
1.24e+07
1.23927e+07
1.23838e+07
1.23733e+07
1.23613e+07
1.23478e+07
1.23327e+07
1.23159e+07
1.22976e+07
1.22777e+07
1.22562e+07
1.22331e+07
1.22084e+07
1.2182e+07
1.21541e+07
1.21246e+07
1.20934e+07
1.20606e+07
1.20263e+07
1.19903e+07
1.19528e+07
1.19137e+07
1.1873e+07
1.18308e+07
1.1787e+07
1.17418e+07
1.16951e+07
1.1647e+07
1.15976e+07
1.1547e+07
1.14952e+07
1.14424e+07
1.13887e+07
1.13342e+07
1.12792e+07
1.12238e+07
1.11681e+07
1.11122e+07
1.10563e+07
1.10005e+07
1.09448e+07
1.0889e+07
1.08324e+07
1.07731e+07
1.07074e+07
1.07011e+07
1.06983e+07
1.06955e+07
1.06928e+07
1.06901e+07
1.06874e+07
1.06847e+07
1.0682e+07
1.06793e+07
1.06767e+07
1.06741e+07
1.06714e+07
1.06688e+07
1.06662e+07
1.06636e+07
1.0661e+07
1.06585e+07
1.06559e+07
1.06533e+07
1.06507e+07
1.06481e+07
1.06456e+07
1.0643e+07
1.06404e+07
1.06378e+07
1.06353e+07
1.06327e+07
1.06301e+07
1.06275e+07
1.06249e+07
1.06223e+07
1.06197e+07
1.0617e+07
1.06144e+07
1.06118e+07
1.06091e+07
1.06065e+07
1.06038e+07
1.06011e+07
1.05984e+07
1.05957e+07
1.0593e+07
1.05903e+07
1.05875e+07
1.05847e+07
1.0582e+07
1.05792e+07
1.05764e+07
1.05736e+07
1.05707e+07
1.05679e+07
1.0565e+07
1.05621e+07
1.05592e+07
1.05563e+07
1.05533e+07
1.05503e+07
1.05474e+07
1.05444e+07
1.05413e+07
1.05383e+07
1.05352e+07
1.05321e+07
1.0529e+07
1.05259e+07
1.05227e+07
1.05195e+07
1.05163e+07
1.05131e+07
1.05099e+07
1.05066e+07
1.05033e+07
1.05e+07
1.04967e+07
1.04933e+07
1.04899e+07
1.04865e+07
1.0483e+07
1.04796e+07
1.04761e+07
1.04725e+07
1.0469e+07
1.04654e+07
1.04618e+07
1.04582e+07
1.04545e+07
1.04508e+07
1.04471e+07
1.04434e+07
1.04396e+07
1.04358e+07
1.0432e+07
1.04281e+07
1.04242e+07
1.04203e+07
1.04164e+07
1.04124e+07
1.04084e+07
1.04043e+07
1.04002e+07
1.03961e+07
1.0392e+07
1.03878e+07
1.03836e+07
1.03794e+07
1.03751e+07
1.03708e+07
1.03665e+07
1.03621e+07
1.03577e+07
1.03533e+07
1.03488e+07
1.03443e+07
1.03398e+07
1.03352e+07
1.03306e+07
1.0326e+07
1.03213e+07
1.03166e+07
1.03118e+07
1.03071e+07
1.03022e+07
1.02974e+07
1.02925e+07
1.02876e+07
1.02826e+07
1.02776e+07
1.02726e+07
1.02675e+07
1.02624e+07
1.02573e+07
1.24643e+07
1.24627e+07
1.24596e+07
1.2455e+07
1.24489e+07
1.24413e+07
1.24321e+07
1.24213e+07
1.2409e+07
1.2395e+07
1.23795e+07
1.23624e+07
1.23436e+07
1.23233e+07
1.23014e+07
1.22778e+07
1.22527e+07
1.2226e+07
1.21977e+07
1.21678e+07
1.21364e+07
1.21034e+07
1.20688e+07
1.20328e+07
1.19952e+07
1.19561e+07
1.19156e+07
1.18736e+07
1.18302e+07
1.17854e+07
1.17393e+07
1.16919e+07
1.16433e+07
1.15936e+07
1.15428e+07
1.1491e+07
1.14384e+07
1.13851e+07
1.13312e+07
1.12768e+07
1.12221e+07
1.11671e+07
1.11119e+07
1.10566e+07
1.10012e+07
1.09455e+07
1.08891e+07
1.08315e+07
1.07717e+07
1.07069e+07
1.06973e+07
1.06946e+07
1.06919e+07
1.06892e+07
1.06866e+07
1.06839e+07
1.06813e+07
1.06787e+07
1.06761e+07
1.06735e+07
1.06709e+07
1.06683e+07
1.06657e+07
1.06632e+07
1.06606e+07
1.0658e+07
1.06555e+07
1.06529e+07
1.06504e+07
1.06478e+07
1.06453e+07
1.06427e+07
1.06402e+07
1.06376e+07
1.0635e+07
1.06325e+07
1.06299e+07
1.06273e+07
1.06247e+07
1.06221e+07
1.06195e+07
1.06169e+07
1.06143e+07
1.06116e+07
1.0609e+07
1.06063e+07
1.06037e+07
1.0601e+07
1.05983e+07
1.05956e+07
1.05929e+07
1.05902e+07
1.05874e+07
1.05847e+07
1.05819e+07
1.05791e+07
1.05763e+07
1.05735e+07
1.05707e+07
1.05678e+07
1.05649e+07
1.05621e+07
1.05591e+07
1.05562e+07
1.05533e+07
1.05503e+07
1.05473e+07
1.05443e+07
1.05413e+07
1.05383e+07
1.05352e+07
1.05321e+07
1.0529e+07
1.05259e+07
1.05227e+07
1.05195e+07
1.05163e+07
1.05131e+07
1.05099e+07
1.05066e+07
1.05033e+07
1.05e+07
1.04966e+07
1.04933e+07
1.04899e+07
1.04865e+07
1.0483e+07
1.04795e+07
1.04761e+07
1.04725e+07
1.0469e+07
1.04654e+07
1.04618e+07
1.04582e+07
1.04545e+07
1.04508e+07
1.04471e+07
1.04434e+07
1.04396e+07
1.04358e+07
1.0432e+07
1.04281e+07
1.04242e+07
1.04203e+07
1.04163e+07
1.04124e+07
1.04084e+07
1.04043e+07
1.04002e+07
1.03961e+07
1.0392e+07
1.03878e+07
1.03836e+07
1.03794e+07
1.03751e+07
1.03708e+07
1.03665e+07
1.03621e+07
1.03577e+07
1.03533e+07
1.03488e+07
1.03443e+07
1.03398e+07
1.03352e+07
1.03306e+07
1.0326e+07
1.03213e+07
1.03166e+07
1.03118e+07
1.0307e+07
1.03022e+07
1.02974e+07
1.02925e+07
1.02875e+07
1.02826e+07
1.02776e+07
1.02725e+07
1.02675e+07
1.02623e+07
1.02572e+07
1.25197e+07
1.2518e+07
1.25147e+07
1.25099e+07
1.25035e+07
1.24955e+07
1.24859e+07
1.24747e+07
1.24619e+07
1.24475e+07
1.24314e+07
1.24138e+07
1.23945e+07
1.23735e+07
1.2351e+07
1.23269e+07
1.23012e+07
1.2274e+07
1.22452e+07
1.22148e+07
1.21829e+07
1.21496e+07
1.21147e+07
1.20784e+07
1.20406e+07
1.20014e+07
1.19608e+07
1.19189e+07
1.18756e+07
1.1831e+07
1.17852e+07
1.17383e+07
1.16901e+07
1.1641e+07
1.15908e+07
1.15398e+07
1.1488e+07
1.14354e+07
1.13822e+07
1.13286e+07
1.12745e+07
1.12201e+07
1.11654e+07
1.11104e+07
1.10552e+07
1.09997e+07
1.09437e+07
1.0887e+07
1.08292e+07
1.07697e+07
1.07059e+07
1.06936e+07
1.06909e+07
1.06883e+07
1.06857e+07
1.06831e+07
1.06805e+07
1.06779e+07
1.06754e+07
1.06728e+07
1.06703e+07
1.06677e+07
1.06652e+07
1.06627e+07
1.06601e+07
1.06576e+07
1.06551e+07
1.06525e+07
1.065e+07
1.06475e+07
1.06449e+07
1.06424e+07
1.06399e+07
1.06373e+07
1.06348e+07
1.06322e+07
1.06297e+07
1.06271e+07
1.06245e+07
1.06219e+07
1.06193e+07
1.06167e+07
1.06141e+07
1.06115e+07
1.06089e+07
1.06062e+07
1.06036e+07
1.06009e+07
1.05982e+07
1.05955e+07
1.05928e+07
1.05901e+07
1.05874e+07
1.05846e+07
1.05818e+07
1.05791e+07
1.05763e+07
1.05734e+07
1.05706e+07
1.05678e+07
1.05649e+07
1.0562e+07
1.05591e+07
1.05562e+07
1.05532e+07
1.05503e+07
1.05473e+07
1.05443e+07
1.05413e+07
1.05382e+07
1.05352e+07
1.05321e+07
1.0529e+07
1.05258e+07
1.05227e+07
1.05195e+07
1.05163e+07
1.05131e+07
1.05099e+07
1.05066e+07
1.05033e+07
1.05e+07
1.04966e+07
1.04933e+07
1.04899e+07
1.04865e+07
1.0483e+07
1.04795e+07