/*--------------------------------*- C++ -*----------------------------------*\
  =========                 |
  \\      /  F ield         | OpenFOAM: The Open Source CFD Toolbox
   \\    /   O peration     | Website:  https://openfoam.org
    \\  /    A nd           | Version:  10
     \\/     M anipulation  |
\*---------------------------------------------------------------------------*/
FoamFile
{
    format      ascii;
    class       volSymmTensorField;
    location    "0.098";
    object      UPrime2Mean;
}
// * * * * * * * * * * * * * * * * * * * * * * * * * * * * * * * * * * * * * //

dimensions      [0 2 -2 0 0 0 0];

internalField   nonuniform List<symmTensor> 
12225
(
(0.0327943 0.000368665 0 0.0021715 0 0)
(0.0180854 -9.33381e-05 0 0.00102732 0 0)
(0.0195666 -0.000281098 0 0.000721302 0 0)
(0.0203435 -0.000380513 0 0.000584845 0 0)
(0.0238736 -0.000583147 0 0.000502243 0 0)
(0.0316965 -0.000913286 0 0.000449151 0 0)
(0.0450959 -0.00144583 0 0.000419201 0 0)
(0.0643459 -0.00197883 0 0.000384378 0 0)
(0.0930819 -0.00315766 0 0.000417693 0 0)
(0.130774 -0.00362172 0 0.00037983 0 0)
(0.189569 -0.00702712 0 0.000536838 0 0)
(0.261624 -0.00631768 0 0.000454663 0 0)
(0.387475 -0.0178384 0 0.00112968 0 0)
(0.532041 -0.0104332 0 0.000881469 0 0)
(0.821229 -0.053408 0 0.00434501 0 0)
(1.16341 -0.0139715 0 0.00365318 0 0)
(1.91629 -0.207276 0 0.0313062 0 0)
(3.08199 -0.0609295 0 0.0154724 0 0)
(0.0297542 0.000782683 0 0.00279856 0 0)
(0.0153715 0.000572855 0 0.00126433 0 0)
(0.0143777 0.000326463 0 0.000864386 0 0)
(0.0130606 0.00026115 0 0.000723311 0 0)
(0.0128098 0.000220476 0 0.000665897 0 0)
(0.0135179 -5.41134e-06 0 0.000668752 0 0)
(0.0152222 -0.000408932 0 0.000686774 0 0)
(0.018575 -0.001209 0 0.00079442 0 0)
(0.0243428 -0.00213964 0 0.000865823 0 0)
(0.0345604 -0.0041432 0 0.00121529 0 0)
(0.0500213 -0.0060323 0 0.00137407 0 0)
(0.0767461 -0.0113526 0 0.00237598 0 0)
(0.114059 -0.0154502 0 0.00279773 0 0)
(0.182055 -0.0305163 0 0.0059119 0 0)
(0.270917 -0.041175 0 0.00744952 0 0)
(0.457261 -0.0900873 0 0.0191935 0 0)
(0.681963 -0.139776 0 0.0302855 0 0)
(1.20423 -0.351583 0 0.11496 0 0)
(0.0330314 0.000714327 0 0.00332254 0 0)
(0.0165638 0.000528264 0 0.00166688 0 0)
(0.0148989 0.000203433 0 0.00115849 0 0)
(0.0133642 -6.23506e-05 0 0.00100144 0 0)
(0.0130987 -0.000300672 0 0.000956083 0 0)
(0.013885 -0.000607582 0 0.000967492 0 0)
(0.0156762 -0.00115661 0 0.00105769 0 0)
(0.0186839 -0.00197435 0 0.00119156 0 0)
(0.023393 -0.00334413 0 0.00153904 0 0)
(0.0304154 -0.00506916 0 0.00190197 0 0)
(0.0409382 -0.00833867 0 0.00288312 0 0)
(0.0563592 -0.0120844 0 0.00377875 0 0)
(0.0795104 -0.020406 0 0.00663747 0 0)
(0.113734 -0.0292447 0 0.00915635 0 0)
(0.166001 -0.0524245 0 0.0187556 0 0)
(0.244016 -0.0800047 0 0.0293286 0 0)
(0.356564 -0.153387 0 0.0719175 0 0)
(0.504884 -0.274374 0 0.161268 0 0)
(0.0315352 -9.82624e-05 0 0.00345654 0 0)
(0.0158861 -0.000114709 0 0.00187972 0 0)
(0.014922 -0.000295569 0 0.00128997 0 0)
(0.0135711 -0.000477967 0 0.00111379 0 0)
(0.0129894 -0.000717854 0 0.00109859 0 0)
(0.0133055 -0.00113574 0 0.00119045 0 0)
(0.0147206 -0.00179822 0 0.00136521 0 0)
(0.0175302 -0.00286072 0 0.00169836 0 0)
(0.0220319 -0.0043532 0 0.00216207 0 0)
(0.0288778 -0.00672807 0 0.00299317 0 0)
(0.0387397 -0.0100555 0 0.00413239 0 0)
(0.0532978 -0.0155714 0 0.00621347 0 0)
(0.0739902 -0.0235452 0 0.00932685 0 0)
(0.104304 -0.0370115 0 0.015243 0 0)
(0.147158 -0.0579884 0 0.0255601 0 0)
(0.206614 -0.093706 0 0.0464635 0 0)
(0.283901 -0.155125 0 0.0916834 0 0)
(0.365547 -0.245735 0 0.179454 0 0)
(0.0346974 0.000333271 0 0.00396663 0 0)
(0.0171911 0.000102543 0 0.00236106 0 0)
(0.0156647 -0.000202524 0 0.00167051 0 0)
(0.0142463 -0.000432943 0 0.00148921 0 0)
(0.01368 -0.000699901 0 0.00152918 0 0)
(0.0138904 -0.00119727 0 0.00170478 0 0)
(0.0149961 -0.00205066 0 0.00201631 0 0)
(0.0173347 -0.00333867 0 0.00248503 0 0)
(0.0213937 -0.0052652 0 0.00326136 0 0)
(0.0277817 -0.00804089 0 0.00440601 0 0)
(0.037315 -0.0122868 0 0.00628735 0 0)
(0.0510648 -0.0185193 0 0.00913197 0 0)
(0.0705809 -0.0282492 0 0.0139714 0 0)
(0.0975724 -0.0429338 0 0.0219326 0 0)
(0.134501 -0.0660561 0 0.0361878 0 0)
(0.181583 -0.10234 0 0.0627856 0 0)
(0.238226 -0.156445 0 0.11088 0 0)
(0.290889 -0.233159 0 0.205911 0 0)
(0.0321938 0.00022499 0 0.00459291 0 0)
(0.016636 0.000343448 0 0.00274661 0 0)
(0.0157652 -0.000199014 0 0.00190928 0 0)
(0.0140789 -0.000455151 0 0.00168655 0 0)
(0.0131695 -0.00067224 0 0.00173509 0 0)
(0.0131541 -0.00115817 0 0.00199691 0 0)
(0.0140437 -0.00207947 0 0.00246673 0 0)
(0.0160759 -0.00353813 0 0.00320025 0 0)
(0.0196748 -0.00568848 0 0.00430313 0 0)
(0.025353 -0.00882353 0 0.00597293 0 0)
(0.0337988 -0.0134602 0 0.00853599 0 0)
(0.045775 -0.0203401 0 0.0125266 0 0)
(0.0625214 -0.0307082 0 0.0189342 0 0)
(0.0849811 -0.0461637 0 0.0294234 0 0)
(0.114664 -0.0694478 0 0.0471858 0 0)
(0.150341 -0.103379 0 0.0777402 0 0)
(0.190374 -0.150994 0 0.130134 0 0)
(0.224849 -0.211088 0 0.21875 0 0)
(0.029949 0.000292329 0 0.00502021 0 0)
(0.0149987 -6.94836e-05 0 0.00345636 0 0)
(0.0146021 -0.000314281 0 0.00255212 0 0)
(0.013444 -0.000582179 0 0.00232294 0 0)
(0.0131924 -0.00103526 0 0.00246496 0 0)
(0.0139838 -0.00184866 0 0.00286376 0 0)
(0.0157694 -0.00314894 0 0.00351956 0 0)
(0.0186134 -0.0050535 0 0.00452095 0 0)
(0.0227786 -0.00774279 0 0.00602812 0 0)
(0.0286755 -0.0115173 0 0.00829769 0 0)
(0.0369447 -0.0168877 0 0.0117162 0 0)
(0.0482307 -0.0246203 0 0.0169782 0 0)
(0.0634476 -0.0357984 0 0.0251289 0 0)
(0.0829622 -0.0519203 0 0.0381769 0 0)
(0.107327 -0.0747736 0 0.0589548 0 0)
(0.134692 -0.106252 0 0.0929782 0 0)
(0.163223 -0.146943 0 0.146309 0 0)
(0.185859 -0.194109 0 0.228806 0 0)
(0.0330209 0.000594316 0 0.0049693 0 0)
(0.0155448 0.000332071 0 0.00329095 0 0)
(0.0148822 -0.000212059 0 0.00242887 0 0)
(0.0140601 -0.000627755 0 0.00227971 0 0)
(0.0139101 -0.00109867 0 0.00251399 0 0)
(0.0144204 -0.0018905 0 0.00307029 0 0)
(0.0156395 -0.00318431 0 0.00396927 0 0)
(0.0177622 -0.00509304 0 0.0053024 0 0)
(0.0211089 -0.00781007 0 0.00725431 0 0)
(0.0260505 -0.0116704 0 0.0101409 0 0)
(0.0330452 -0.0171896 0 0.0144385 0 0)
(0.0424959 -0.0250557 0 0.0209451 0 0)
(0.0548854 -0.0361715 0 0.0308176 0 0)
(0.0702744 -0.0516344 0 0.0460762 0 0)
(0.0885603 -0.0725657 0 0.0693861 0 0)
(0.108165 -0.0997644 0 0.105324 0 0)
(0.127268 -0.132667 0 0.158204 0 0)
(0.141579 -0.168362 0 0.23467 0 0)
(0.0352301 0.0002288 0 0.00545018 0 0)
(0.0188564 -0.000264641 0 0.00396876 0 0)
(0.0178676 -0.000846265 0 0.00308643 0 0)
(0.0164067 -0.00120544 0 0.00294469 0 0)
(0.0158665 -0.00166561 0 0.00325371 0 0)
(0.0163251 -0.00251465 0 0.00393981 0 0)
(0.0176779 -0.00394233 0 0.00505943 0 0)
(0.0198871 -0.00607826 0 0.0067525 0 0)
(0.0230885 -0.00909061 0 0.00923376 0 0)
(0.0275543 -0.0132532 0 0.0128596 0 0)
(0.0336206 -0.0189866 0 0.0181469 0 0)
(0.041496 -0.0268782 0 0.0259537 0 0)
(0.0513442 -0.0376391 0 0.0374519 0 0)
(0.0629211 -0.0520194 0 0.05458 0 0)
(0.0758143 -0.0705912 0 0.0796685 0 0)
(0.0886588 -0.0933615 0 0.116395 0 0)
(0.100198 -0.119254 0 0.167689 0 0)
(0.10785 -0.145435 0 0.237802 0 0)
(0.0318796 0.000921641 0 0.00587271 0 0)
(0.0156257 2.04235e-05 0 0.00419558 0 0)
(0.0144433 -0.000599445 0 0.00330353 0 0)
(0.0132039 -0.000947433 0 0.00328916 0 0)
(0.0130565 -0.00143581 0 0.0037333 0 0)
(0.0138063 -0.0023967 0 0.00459094 0 0)
(0.0152169 -0.00393813 0 0.0059622 0 0)
(0.0171833 -0.00611191 0 0.00802119 0 0)
(0.0197916 -0.00907236 0 0.0110137 0 0)
(0.023282 -0.0130981 0 0.0153342 0 0)
(0.0279711 -0.0185833 0 0.0215369 0 0)
(0.0340096 -0.0259841 0 0.0305046 0 0)
(0.0414516 -0.0357912 0 0.0433663 0 0)
(0.0498546 -0.048381 0 0.0618815 0 0)
(0.0587479 -0.0639188 0 0.0879505 0 0)
(0.0669136 -0.0819215 0 0.12445 0 0)
(0.0736203 -0.101216 0 0.173156 0 0)
(0.0774318 -0.119234 0 0.23696 0 0)
(0.0302996 0.000774064 0 0.00640836 0 0)
(0.0147923 -0.000108364 0 0.00523419 0 0)
(0.0139217 -0.000814989 0 0.00433822 0 0)
(0.0126652 -0.00120964 0 0.00423129 0 0)
(0.0122419 -0.00167412 0 0.00473546 0 0)
(0.0125236 -0.00254041 0 0.00581938 0 0)
(0.0133445 -0.00397333 0 0.00752537 0 0)
(0.0146543 -0.0060699 0 0.0100075 0 0)
(0.016539 -0.00897022 0 0.0135378 0 0)
(0.0191592 -0.0128884 0 0.018557 0 0)
(0.0226963 -0.0181128 0 0.0256445 0 0)
(0.0271879 -0.0249552 0 0.0356594 0 0)
(0.0325375 -0.033709 0 0.0496287 0 0)
(0.0383373 -0.0445056 0 0.0690705 0 0)
(0.0441132 -0.0572273 0 0.0954435 0 0)
(0.0490481 -0.0712244 0 0.130926 0 0)
(0.0526843 -0.0853178 0 0.176453 0 0)
(0.0543467 -0.0975023 0 0.234045 0 0)
(0.0335484 0.000520822 0 0.00649297 0 0)
(0.0176173 -0.000417519 0 0.00511847 0 0)
(0.0166719 -0.000651165 0 0.00413188 0 0)
(0.0147983 -0.000616699 0 0.00409937 0 0)
(0.0134529 -0.000870989 0 0.00478314 0 0)
(0.0129971 -0.0016234 0 0.00609531 0 0)
(0.0133477 -0.00287306 0 0.00808326 0 0)
(0.0142381 -0.00464417 0 0.0109409 0 0)
(0.0154908 -0.00706705 0 0.0149697 0 0)
(0.0170833 -0.0103387 0 0.0206173 0 0)
(0.0191062 -0.0146907 0 0.0284458 0 0)
(0.0216135 -0.0203133 0 0.0392617 0 0)
(0.0245933 -0.0273287 0 0.0539703 0 0)
(0.027766 -0.0356802 0 0.0738662 0 0)
(0.0308675 -0.0451045 0 0.100034 0 0)
(0.0333693 -0.0549006 0 0.134118 0 0)
(0.0351249 -0.0640376 0 0.176495 0 0)
(0.0356844 -0.0709228 0 0.228669 0 0)
(0.0304146 3.79754e-05 0 0.00749099 0 0)
(0.0162755 -0.0013002 0 0.00628181 0 0)
(0.0158622 -0.00194039 0 0.00501001 0 0)
(0.014691 -0.00209903 0 0.0050844 0 0)
(0.0139796 -0.00244967 0 0.00601525 0 0)
(0.0136876 -0.00325306 0 0.00757908 0 0)
(0.0137932 -0.00451867 0 0.00982362 0 0)
(0.0143044 -0.00625611 0 0.0129918 0 0)
(0.0152053 -0.00855623 0 0.0174269 0 0)
(0.0164536 -0.0115591 0 0.0235829 0 0)
(0.0180372 -0.0154151 0 0.0319861 0 0)
(0.0199066 -0.020207 0 0.0433658 0 0)
(0.0219905 -0.0259367 0 0.0584834 0 0)
(0.0240514 -0.0324029 0 0.07841 0 0)
(0.0259016 -0.0392381 0 0.103904 0 0)
(0.0272037 -0.0457149 0 0.136237 0 0)
(0.0279981 -0.0509773 0 0.175354 0 0)
(0.0281952 -0.053658 0 0.222477 0 0)
(0.0293635 0.000298873 0 0.00826289 0 0)
(0.01459 -0.000773667 0 0.00724564 0 0)
(0.0140871 -0.00123695 0 0.0061097 0 0)
(0.0131205 -0.0012457 0 0.00607369 0 0)
(0.0125157 -0.0013749 0 0.00693727 0 0)
(0.0121689 -0.00194551 0 0.00862402 0 0)
(0.0120817 -0.00302106 0 0.011138 0 0)
(0.0122584 -0.00455316 0 0.0146515 0 0)
(0.0126912 -0.00652038 0 0.0194709 0 0)
(0.0133359 -0.00895264 0 0.0260237 0 0)
(0.0141467 -0.0119185 0 0.034791 0 0)
(0.0150396 -0.0154138 0 0.0464106 0 0)
(0.0159699 -0.0193624 0 0.0614816 0 0)
(0.0167805 -0.0234571 0 0.0808456 0 0)
(0.0174044 -0.027316 0 0.104951 0 0)
(0.0177285 -0.0302396 0 0.13473 0 0)
(0.0179294 -0.0315928 0 0.169828 0 0)
(0.0181117 -0.0302839 0 0.211234 0 0)
(0.0305534 0.00103386 0 0.00921825 0 0)
(0.0148786 -0.000756884 0 0.00846242 0 0)
(0.0138201 -0.00150031 0 0.00727079 0 0)
(0.0127787 -0.00156975 0 0.00742117 0 0)
(0.0123955 -0.00173812 0 0.00863232 0 0)
(0.0123338 -0.00233207 0 0.0106762 0 0)
(0.012466 -0.00334828 0 0.0135331 0 0)
(0.0127 -0.00466807 0 0.0173897 0 0)
(0.0129873 -0.00622977 0 0.0225551 0 0)
(0.0133096 -0.00803308 0 0.0294391 0 0)
(0.0136794 -0.0101046 0 0.0384557 0 0)
(0.014073 -0.0123776 0 0.050123 0 0)
(0.0144761 -0.0147187 0 0.0648476 0 0)
(0.0148263 -0.0167667 0 0.0832413 0 0)
(0.0151143 -0.0181788 0 0.105453 0 0)
(0.0154274 -0.0183255 0 0.132171 0 0)
(0.0159289 -0.0168295 0 0.16279 0 0)
(0.0170053 -0.0128009 0 0.198192 0 0)
(0.0328263 0.00116603 0 0.0107853 0 0)
(0.0164784 -0.000976418 0 0.00987729 0 0)
(0.0150335 -0.00171922 0 0.00802862 0 0)
(0.0134148 -0.00163847 0 0.00793 0 0)
(0.0124284 -0.00159347 0 0.00914882 0 0)
(0.0118337 -0.00190174 0 0.0112531 0 0)
(0.0114848 -0.00253082 0 0.0141372 0 0)
(0.0112572 -0.00334469 0 0.0179858 0 0)
(0.0110629 -0.00425254 0 0.0231067 0 0)
(0.0108536 -0.00520027 0 0.0298614 0 0)
(0.0106257 -0.00613383 0 0.0385633 0 0)
(0.0103809 -0.00690374 0 0.0495774 0 0)
(0.0101441 -0.00732651 0 0.0631335 0 0)
(0.00995537 -0.00706809 0 0.0796275 0 0)
(0.00989515 -0.00586621 0 0.0990227 0 0)
(0.0101544 -0.00327296 0 0.121795 0 0)
(0.0109623 0.000924504 0 0.147286 0 0)
(0.0126634 0.00733471 0 0.17622 0 0)
(0.0310157 0.00149524 0 0.0117061 0 0)
(0.016113 -0.000623983 0 0.0106384 0 0)
(0.0149781 -0.00139153 0 0.00796284 0 0)
(0.013325 -0.0014627 0 0.00775257 0 0)
(0.0124099 -0.00152892 0 0.0091787 0 0)
(0.0118125 -0.00179286 0 0.0115734 0 0)
(0.011374 -0.00217568 0 0.0147456 0 0)
(0.0110835 -0.00250995 0 0.0188112 0 0)
(0.010913 -0.00270615 0 0.0240099 0 0)
(0.010785 -0.00272866 0 0.0306288 0 0)
(0.0106439 -0.00253515 0 0.0388854 0 0)
(0.0105007 -0.00197923 0 0.0490203 0 0)
(0.0104315 -0.000885737 0 0.0611152 0 0)
(0.0105698 0.001047 0 0.0754078 0 0)
(0.0110389 0.00399701 0 0.0917299 0 0)
(0.0120716 0.00832194 0 0.110428 0 0)
(0.0138478 0.0140573 0 0.130832 0 0)
(0.0166652 0.0216748 0 0.153615 0 0)
(0.0294557 0.00124208 0 0.0117619 0 0)
(0.0145105 -0.00085651 0 0.0114845 0 0)
(0.0134451 -0.00196333 0 0.00959238 0 0)
(0.0119017 -0.00198514 0 0.00936279 0 0)
(0.0109152 -0.0017823 0 0.0102882 0 0)
(0.0100559 -0.00162003 0 0.0120706 0 0)
(0.00935538 -0.00147997 0 0.0146321 0 0)
(0.00897592 -0.00124747 0 0.0180387 0 0)
(0.00894238 -0.00079432 0 0.0224289 0 0)
(0.00915535 2.28465e-06 0 0.027979 0 0)
(0.00951239 0.00124933 0 0.0348034 0 0)
(0.0100175 0.00308347 0 0.0430198 0 0)
(0.0107467 0.0056236 0 0.052615 0 0)
(0.0118802 0.00904921 0 0.063707 0 0)
(0.0135423 0.0134469 0 0.0760864 0 0)
(0.0159949 0.0190179 0 0.0899951 0 0)
(0.0193233 0.0257335 0 0.104885 0 0)
(0.0238628 0.0338738 0 0.121232 0 0)
(0.0295485 0.00130582 0 0.0110984 0 0)
(0.0162025 0.000137182 0 0.010865 0 0)
(0.0153808 -0.000304906 0 0.00877024 0 0)
(0.0129 -6.76397e-05 0 0.00840692 0 0)
(0.0113392 0.000344782 0 0.0092922 0 0)
(0.0104366 0.00078217 0 0.0109868 0 0)
(0.00998127 0.0012972 0 0.013349 0 0)
(0.0099074 0.00206845 0 0.0163773 0 0)
(0.0101338 0.00325418 0 0.0201087 0 0)
(0.0105768 0.00494651 0 0.0246152 0 0)
(0.0112328 0.00718846 0 0.029945 0 0)
(0.0122144 0.0100487 0 0.0361584 0 0)
(0.0136557 0.013582 0 0.0432208 0 0)
(0.015718 0.0179002 0 0.0511936 0 0)
(0.0184751 0.0230228 0 0.0599113 0 0)
(0.0221039 0.02906 0 0.0695376 0 0)
(0.0266352 0.0359352 0 0.0796799 0 0)
(0.0322934 0.0438114 0 0.0906783 0 0)
(0.0321687 0.000966385 0 0.0127426 0 0)
(0.0162204 0.00014162 0 0.0119995 0 0)
(0.0137201 -0.000205423 0 0.00927507 0 0)
(0.0116155 0.00014039 0 0.00827207 0 0)
(0.0107485 0.00061693 0 0.00856669 0 0)
(0.0101855 0.00107957 0 0.00968491 0 0)
(0.00975686 0.00169753 0 0.0113446 0 0)
(0.0096282 0.00269494 0 0.0134314 0 0)
(0.00990431 0.00416744 0 0.0159554 0 0)
(0.0106314 0.00610242 0 0.0189864 0 0)
(0.0118573 0.0084793 0 0.0225647 0 0)
(0.0136535 0.0113436 0 0.0267182 0 0)
(0.0160933 0.0147624 0 0.0314067 0 0)
(0.0192767 0.0188395 0 0.0366464 0 0)
(0.0232542 0.0235886 0 0.0423041 0 0)
(0.028147 0.0290682 0 0.0484879 0 0)
(0.0339768 0.0351913 0 0.0549459 0 0)
(0.0408518 0.0420282 0 0.0618593 0 0)
(0.0317932 0.000753429 0 0.0111748 0 0)
(0.0162398 0.000781632 0 0.0108503 0 0)
(0.0144288 0.000697282 0 0.00862254 0 0)
(0.0128001 0.00117768 0 0.00774861 0 0)
(0.0122399 0.00174336 0 0.00787687 0 0)
(0.012039 0.00239966 0 0.0086534 0 0)
(0.0121041 0.00328892 0 0.00983901 0 0)
(0.012589 0.00449037 0 0.0113321 0 0)
(0.0135605 0.00603165 0 0.0131377 0 0)
(0.0150048 0.00793497 0 0.0153059 0 0)
(0.0169295 0.0102359 0 0.0178595 0 0)
(0.0193963 0.0130026 0 0.0208056 0 0)
(0.0224887 0.0162892 0 0.0241049 0 0)
(0.0263186 0.0201565 0 0.0277582 0 0)
(0.0309514 0.0245818 0 0.0316617 0 0)
(0.0365261 0.0295865 0 0.0359004 0 0)
(0.0430691 0.0350847 0 0.0403016 0 0)
(0.0506674 0.0411053 0 0.0449677 0 0)
(0.0292634 0.000934264 0 0.0115837 0 0)
(0.0153618 0.000343405 0 0.0100869 0 0)
(0.0148063 0.000185441 0 0.00738218 0 0)
(0.0135804 0.000546646 0 0.00631282 0 0)
(0.0130173 0.00101004 0 0.00618065 0 0)
(0.0128629 0.00157485 0 0.00657636 0 0)
(0.0130657 0.00237099 0 0.00730637 0 0)
(0.0136845 0.00348009 0 0.00828806 0 0)
(0.0147637 0.00492554 0 0.00949974 0 0)
(0.0163346 0.00671562 0 0.0109509 0 0)
(0.0184444 0.00886309 0 0.0126528 0 0)
(0.0211852 0.0113999 0 0.0146158 0 0)
(0.0246426 0.0143471 0 0.016821 0 0)
(0.0289145 0.0177385 0 0.019268 0 0)
(0.0340507 0.0215519 0 0.0218821 0 0)
(0.0401617 0.0258013 0 0.0247229 0 0)
(0.04727 0.0304214 0 0.0276707 0 0)
(0.0554077 0.0354417 0 0.0307706 0 0)
(0.0327511 0.000447385 0 0.00953335 0 0)
(0.0161207 -0.000458374 0 0.00828324 0 0)
(0.0144492 -0.000447619 0 0.00625179 0 0)
(0.0134391 -4.03661e-05 0 0.00543486 0 0)
(0.0132 0.000424756 0 0.00540134 0 0)
(0.0131909 0.0010377 0 0.00574406 0 0)
(0.0134672 0.00186607 0 0.0062489 0 0)
(0.0142261 0.00291991 0 0.00686853 0 0)
(0.0155725 0.00419424 0 0.00763381 0 0)
(0.0175116 0.00570831 0 0.00858015 0 0)
(0.0200359 0.00750119 0 0.00971601 0 0)
(0.0232028 0.00962181 0 0.0110372 0 0)
(0.0271142 0.0120937 0 0.0125187 0 0)
(0.0319005 0.0149327 0 0.014157 0 0)
(0.0376174 0.0181107 0 0.0158977 0 0)
(0.0443574 0.0216152 0 0.0177827 0 0)
(0.0520954 0.0253969 0 0.0197301 0 0)
(0.0608176 0.0294792 0 0.0217656 0 0)
(0.0341078 -0.000312571 0 0.00869962 0 0)
(0.0172956 -0.000664766 0 0.00633011 0 0)
(0.0155627 -0.000447232 0 0.00427371 0 0)
(0.0144118 0.000107483 0 0.0036037 0 0)
(0.0140251 0.000678168 0 0.00355202 0 0)
(0.0141272 0.00130358 0 0.00372991 0 0)
(0.0148413 0.00204309 0 0.0040068 0 0)
(0.0162475 0.00297089 0 0.00437099 0 0)
(0.018325 0.00413917 0 0.00484468 0 0)
(0.0210081 0.00555832 0 0.00544417 0 0)
(0.024265 0.00720985 0 0.00616696 0 0)
(0.0281547 0.00908444 0 0.00700685 0 0)
(0.0327718 0.0111804 0 0.00795217 0 0)
(0.0382317 0.0135206 0 0.00899907 0 0)
(0.0445736 0.0161134 0 0.0101154 0 0)
(0.0518797 0.018984 0 0.0113301 0 0)
(0.0601392 0.0221019 0 0.012589 0 0)
(0.0693176 0.0254961 0 0.0139022 0 0)
(0.032522 0.000476355 0 0.00744916 0 0)
(0.0169761 -8.59108e-05 0 0.0057123 0 0)
(0.0158049 -0.000206965 0 0.00412891 0 0)
(0.0147035 7.17884e-05 0 0.0034875 0 0)
(0.0141457 0.000424519 0 0.00326237 0 0)
(0.0139019 0.000788062 0 0.00327958 0 0)
(0.0141564 0.00122013 0 0.00344368 0 0)
(0.0150773 0.00180615 0 0.00367826 0 0)
(0.0167292 0.00259068 0 0.00396641 0 0)
(0.0190984 0.00358587 0 0.00432546 0 0)
(0.0221365 0.00478997 0 0.00476571 0 0)
(0.0258242 0.00620242 0 0.00528381 0 0)
(0.0301831 0.00781732 0 0.00586878 0 0)
(0.0352907 0.00964225 0 0.00651887 0 0)
(0.0411828 0.0116658 0 0.00720795 0 0)
(0.0479888 0.0139011 0 0.00796312 0 0)
(0.0557013 0.0163197 0 0.00875148 0 0)
(0.064379 0.0189347 0 0.00956493 0 0)
(0.0315188 0.000331524 0 0.00684551 0 0)
(0.0174115 1.42727e-05 0 0.00509697 0 0)
(0.0163657 3.7259e-06 0 0.00352981 0 0)
(0.0153424 0.000213799 0 0.00286351 0 0)
(0.0151606 0.000422375 0 0.00264292 0 0)
(0.015291 0.000621604 0 0.00260626 0 0)
(0.0157489 0.000880296 0 0.00263448 0 0)
(0.0166892 0.00127669 0 0.00270008 0 0)
(0.0182064 0.00185164 0 0.00281151 0 0)
(0.0203458 0.00261658 0 0.0029767 0 0)
(0.0231374 0.00356992 0 0.00319548 0 0)
(0.0266425 0.00470184 0 0.00346202 0 0)
(0.0309371 0.00598979 0 0.0037716 0 0)
(0.036117 0.0074232 0 0.00412438 0 0)
(0.0422019 0.00898806 0 0.0045045 0 0)
(0.0492645 0.010692 0 0.00493183 0 0)
(0.0572812 0.0125244 0 0.00538539 0 0)
(0.066198 0.0145052 0 0.00584971 0 0)
(0.0305053 -0.00109596 0 0.00567031 0 0)
(0.0150984 -0.00110538 0 0.00352463 0 0)
(0.0139879 -0.000936602 0 0.00239893 0 0)
(0.0130393 -0.000664252 0 0.00197249 0 0)
(0.0129255 -0.000425031 0 0.00180446 0 0)
(0.0129631 -0.000221499 0 0.00174493 0 0)
(0.0130592 1.09549e-05 0 0.00172545 0 0)
(0.0134546 0.000327155 0 0.00173179 0 0)
(0.0144273 0.000758246 0 0.00177032 0 0)
(0.0161631 0.00131184 0 0.00184402 0 0)
(0.0187317 0.00198511 0 0.00195108 0 0)
(0.0221477 0.00277285 0 0.00208946 0 0)
(0.026414 0.00366446 0 0.0022572 0 0)
(0.0315559 0.00465885 0 0.00245316 0 0)
(0.0375463 0.00575514 0 0.00266894 0 0)
(0.0444297 0.00696244 0 0.00291711 0 0)
(0.0521833 0.00827447 0 0.00318298 0 0)
(0.060773 0.00971184 0 0.00345891 0 0)
(0.0329932 -0.00100566 0 0.00497833 0 0)
(0.0170272 -0.0006652 0 0.00275222 0 0)
(0.0152605 -0.000493083 0 0.0017722 0 0)
(0.0141658 -0.000401786 0 0.00143015 0 0)
(0.0141254 -0.000331548 0 0.00129246 0 0)
(0.0144425 -0.000198232 0 0.00123408 0 0)
(0.015134 -1.58812e-05 0 0.00119908 0 0)
(0.0163123 0.000196958 0 0.00117553 0 0)
(0.0180158 0.000451137 0 0.00116813 0 0)
(0.0202833 0.00077556 0 0.00117818 0 0)
(0.0231818 0.00120026 0 0.00120383 0 0)
(0.0267897 0.0017404 0 0.00124481 0 0)
(0.0311798 0.00238935 0 0.00130219 0 0)
(0.036419 0.00313291 0 0.00137657 0 0)
(0.0425095 0.00395411 0 0.00146467 0 0)
(0.0495078 0.0048475 0 0.00157627 0 0)
(0.0574086 0.00580853 0 0.00170342 0 0)
(0.066144 0.00684146 0 0.00183717 0 0)
(0.0313415 -0.00111194 0 0.00377505 0 0)
(0.014635 -0.000550982 0 0.00187225 0 0)
(0.0135677 -0.000437821 0 0.00123034 0 0)
(0.0130471 -0.000440306 0 0.00101579 0 0)
(0.0127847 -0.00046725 0 0.000910466 0 0)
(0.0124366 -0.000458995 0 0.000842653 0 0)
(0.012478 -0.000380614 0 0.000790911 0 0)
(0.0132729 -0.000235111 0 0.000753654 0 0)
(0.0148728 -3.92945e-05 0 0.000732448 0 0)
(0.017215 0.000201196 0 0.000726193 0 0)
(0.0202767 0.000491623 0 0.000731914 0 0)
(0.0241104 0.000836697 0 0.00074743 0 0)
(0.0287924 0.00123725 0 0.000772585 0 0)
(0.0344246 0.00169414 0 0.000807273 0 0)
(0.0410487 0.00220975 0 0.000847861 0 0)
(0.0487913 0.00278926 0 0.00089919 0 0)
(0.0576646 0.00343458 0 0.000957214 0 0)
(0.0677074 0.00415077 0 0.00101331 0 0)
(0.0298771 -0.0005127 0 0.0026953 0 0)
(0.0154048 6.64223e-05 0 0.00129394 0 0)
(0.0151354 0.000141078 0 0.000952412 0 0)
(0.0138625 0.000138864 0 0.000811343 0 0)
(0.0133357 0.000219119 0 0.0007231 0 0)
(0.0137471 0.000335183 0 0.00066247 0 0)
(0.0149418 0.000413568 0 0.00061852 0 0)
(0.0167073 0.000445124 0 0.000583272 0 0)
(0.0190381 0.000464802 0 0.000550516 0 0)
(0.0221172 0.000509656 0 0.000520138 0 0)
(0.0261809 0.000605173 0 0.000493932 0 0)
(0.0314428 0.000758916 0 0.000471662 0 0)
(0.0380681 0.000958522 0 0.000452693 0 0)
(0.0461698 0.00118288 0 0.000435593 0 0)
(0.055809 0.00141921 0 0.000420331 0 0)
(0.0670812 0.00166583 0 0.000411738 0 0)
(0.0800199 0.00192658 0 0.000403821 0 0)
(0.0946434 0.00221765 0 0.000391009 0 0)
(0.0190181 -0.0386518 4.56772e-22 0.0845113 -9.93047e-22 1.16631e-37)
(0.129542 -0.0724726 -1.17e-21 0.0500645 6.19711e-22 1.14995e-37)
(0.310615 -0.0882049 0 0.0421383 0 0)
(0.515043 -0.0801542 0 0.0453593 0 0)
(0.668135 -0.0526568 0 0.05276 0 0)
(0.777293 -0.0367421 1.15301e-21 0.0689588 5.18172e-22 1.08316e-37)
(0.880008 -0.045138 0 0.0852621 0 0)
(1.02461 -0.0802559 0 0.0946428 0 0)
(1.26036 -0.132879 0 0.0988575 0 0)
(1.60534 -0.194561 0 0.0985793 0 0)
(2.05918 -0.248758 1.3041e-21 0.0921739 -2.9256e-22 1.00318e-37)
(2.57295 -0.2717 0 0.0809 0 0)
(3.12424 -0.300102 0 0.0736395 0 0)
(3.73585 -0.306398 0 0.0640639 0 0)
(4.3396 -0.279599 0 0.0552244 0 0)
(4.89528 -0.246097 1.90791e-21 0.0515948 2.80677e-22 9.27191e-38)
(5.4005 -0.178488 0 0.0434522 0 0)
(5.78934 -0.070127 0 0.0403356 0 0)
(6.06225 0.00911636 0 0.0494621 0 0)
(6.23219 0.0531384 0 0.0593325 0 0)
(6.34833 0.0680317 0 0.0698551 0 0)
(6.44903 0.0730864 0 0.0844729 0 0)
(6.55733 0.0810507 0 0.0933987 0 0)
(6.63261 0.0752124 -1.8788e-21 0.100376 5.91813e-22 8.13821e-38)
(6.75514 0.0297245 2.66185e-21 0.12427 -6.44226e-22 8.00346e-38)
(6.88978 0.00088671 -3.44193e-21 0.152106 5.86758e-22 7.87022e-38)
(7.09371 -0.0336834 -4.20352e-21 0.200125 4.7466e-22 7.73851e-38)
(7.38648 -0.0933321 0 0.236928 0 0)
(7.76545 -0.140572 0 0.21211 0 0)
(8.1945 -0.211825 6.38848e-21 0.238348 -3.34318e-22 7.35216e-38)
(8.68114 -0.278005 7.17008e-21 0.245956 -4.16508e-22 7.2263e-38)
(9.23931 -0.324118 0 0.234487 0 0)
(9.8851 -0.359496 0 0.218346 0 0)
(10.5771 -0.381559 9.752e-21 0.212864 -4.70395e-22 6.85791e-38)
(11.2779 -0.402644 0 0.220309 0 0)
(12.01 -0.419193 0 0.245077 0 0)
(12.8297 -0.471957 -1.18983e-20 0.299064 3.00577e-22 6.50329e-38)
(13.8153 -0.574948 0 0.323474 0 0)
(14.9942 -0.673726 -1.30813e-20 0.308 2.37738e-22 6.27447e-38)
(16.1579 -0.664253 -2.73343e-20 0.263067 5.2976e-22 2.46492e-37)
(17.0441 -0.515233 0 0.229789 0 0)
(17.5458 -0.340047 0 0.230462 0 0)
(17.6572 -0.244279 0 0.248758 0 0)
(17.6943 -0.316867 0 0.259029 0 0)
(18.0019 -0.411589 0 0.30278 0 0)
(18.4702 -0.547618 -3.50598e-20 0.300782 8.36592e-22 2.20825e-37)
(19.1381 -0.800376 -3.59715e-20 0.299305 6.11832e-22 2.16752e-37)
(19.7421 -0.822487 -3.66979e-20 0.348307 5.27938e-22 2.12736e-37)
(20.2724 -0.483892 0 0.209837 0 0)
(20.3469 -0.328513 3.83263e-20 0.250938 -7.08485e-22 2.04875e-37)
(20.6079 -0.253271 0 0.224294 0 0)
(20.9471 -0.285112 -3.98675e-20 0.217605 7.22156e-22 1.97242e-37)
(21.457 -0.289401 -4.0635e-20 0.194551 6.493e-22 1.93511e-37)
(22.0136 -0.314509 0 0.169636 0 0)
(22.71 -0.335369 0 0.145499 0 0)
(23.3342 -0.462336 0 0.149574 0 0)
(23.9945 -0.374795 -4.3806e-20 0.141024 5.69954e-22 1.79143e-37)
(24.4472 -0.337828 0 0.194032 0 0)
(25.1784 -0.398913 0 0.156184 0 0)
(26.0235 -0.443815 0 0.135377 0 0)
(27.1147 -0.472019 0 0.113647 0 0)
(28.1264 -0.589729 0 0.121611 0 0)
(29.1326 -0.503643 0 0.0948629 0 0)
(29.7773 -0.374731 0 0.148745 0 0)
(30.4924 -0.386345 0 0.144033 0 0)
(31.2626 -0.387917 4.71409e-20 0.143494 -1.88944e-22 1.49901e-37)
(32.0652 -0.38788 0 0.139257 0 0)
(32.836 -0.367897 0 0.13668 0 0)
(33.5576 -0.335271 -4.73956e-20 0.134776 3.11478e-22 1.41051e-37)
(34.1877 -0.296543 -4.75699e-20 0.13444 3.00697e-22 1.38197e-37)
(34.7488 -0.269064 0 0.136103 0 0)
(35.2592 -0.256114 4.79096e-20 0.140206 -2.97348e-22 1.32627e-37)
(35.7847 -0.251526 -4.79452e-20 0.14843 2.77138e-22 1.29911e-37)
(36.3408 -0.257075 0 0.153428 0 0)
(36.9026 -0.251662 4.73849e-20 0.144339 -2.19724e-22 1.24611e-37)
(37.3914 -0.206261 0 0.129451 0 0)
(37.6606 -0.130037 0 0.116551 0 0)
(37.6355 -0.015998 -4.52435e-20 0.107757 8.79598e-23 1.16988e-37)
(37.1489 0.106749 0 0.108913 0 0)
(36.2367 0.210531 4.40132e-20 0.117959 -1.68624e-22 1.12121e-37)
(34.9494 0.209062 0 0.118236 0 0)
(33.763 0.0946443 -4.30444e-20 0.0915778 1.73892e-22 1.0742e-37)
(33.0441 0.0719579 -4.25673e-20 0.0858939 1.55411e-22 1.05129e-37)
(32.3808 0.024022 -4.20925e-20 0.0874422 1.52407e-22 1.02878e-37)
(32.0435 -0.0962653 -8.32726e-20 0.0855791 3.2693e-22 4.02666e-37)
(31.7545 -0.16089 8.23108e-20 0.110682 -3.07628e-22 3.93972e-37)
(31.4837 -0.172179 0 0.114742 0 0)
(30.962 -0.0780431 0 0.152431 0 0)
(30.3808 0.0501386 0 0.154412 0 0)
(30.1436 -0.107186 7.82759e-20 0.178413 -5.09489e-22 3.60677e-37)
(30.6092 -0.252501 7.77115e-20 0.124593 -5.82966e-22 3.52718e-37)
(31.4323 -0.31936 -7.76323e-20 0.0914352 6.42648e-22 3.44903e-37)
(32.3838 -0.323195 0 0.0658239 0 0)
(33.34 -0.297551 7.82321e-20 0.049465 -6.16152e-22 3.29693e-37)
(34.2445 -0.257673 7.84941e-20 0.0382638 -5.51445e-22 3.22294e-37)
(35.0411 -0.213865 7.84809e-20 0.0308688 -4.66968e-22 3.15027e-37)
(35.7089 -0.166368 0 0.0257305 0 0)
(36.1836 -0.110641 0 0.0220078 0 0)
(36.4359 -0.0405134 0 0.0191273 0 0)
(36.3624 0.0441722 7.36091e-20 0.0171151 -3.53085e-23 2.87249e-37)
(35.9364 0.146741 0 0.0173003 0 0)
(35.0579 0.248709 0 0.0219612 0 0)
(33.746 0.341039 -6.54931e-20 0.0329304 -1.56581e-22 2.67708e-37)
(32.1074 0.3513 0 0.040333 0 0)
(30.5321 0.320712 0 0.0414212 0 0)
(29.0953 0.212857 -5.49115e-20 0.0432523 -3.83693e-22 2.49224e-37)
(27.8045 0.225927 0 0.0576626 0 0)
(26.7242 0.0466642 0 0.161809 0 0)
(26.5005 -0.115941 4.53995e-20 0.142145 -8.64743e-23 2.31746e-37)
(26.7822 -0.227657 4.34512e-20 0.129037 -2.64068e-23 2.2614e-37)
(27.5621 -0.29199 0 0.111675 0 0)
(28.5198 -0.313428 -4.23256e-20 0.0922548 1.45257e-22 2.15248e-37)
(29.6164 -0.304823 0 0.0716277 0 0)
(30.6429 -0.266726 4.41235e-20 0.0523273 -2.90641e-22 2.04773e-37)
(31.5233 -0.199294 0 0.036983 0 0)
(32.0722 -0.109627 4.56801e-20 0.0262878 -1.84019e-22 1.94694e-37)
(32.2351 -0.0129499 4.55201e-20 0.0194185 -8.22151e-23 1.89799e-37)
(31.9586 0.0805606 0 0.0156305 0 0)
(31.2747 0.164196 0 0.0138997 0 0)
(30.2038 0.237421 0 0.0133439 0 0)
(28.7881 0.298894 0 0.0135052 0 0)
(27.0773 0.346631 0 0.0141201 0 0)
(25.1487 0.378391 0 0.0149455 0 0)
(23.0858 0.393377 0 0.0156425 0 0)
(20.9756 0.392809 2.05017e-20 0.0160241 2.22279e-22 1.53882e-37)
(18.8904 0.379739 -1.70996e-20 0.0160065 -1.70689e-22 1.49782e-37)
(16.8838 0.35829 0 0.0156767 0 0)
(14.9883 0.332195 0 0.0151579 0 0)
(13.2236 0.304062 0 0.0145542 0 0)
(11.6002 0.275014 0 0.0138919 0 0)
(10.1243 0.245398 -1.38114e-20 0.0131402 5.66459e-23 5.2198e-37)
(8.79993 0.21531 0 0.0122448 0 0)
(7.63037 0.185215 1.03946e-20 0.0111801 -1.10164e-22 4.93274e-37)
(6.61642 0.155795 -9.22717e-21 0.00995273 1.13086e-22 4.7936e-37)
(5.75563 0.128412 0 0.00866736 0 0)
(5.03777 0.107534 0 0.00785741 0 0)
(4.44448 0.0871222 0 0.0068502 0 0)
(3.95715 0.0701056 5.89403e-21 0.00602495 -6.19479e-23 4.26509e-37)
(3.56242 0.0560862 5.17605e-21 0.0053732 -5.19838e-23 4.13979e-37)
(3.24673 0.0445234 0 0.00486882 0 0)
(2.99858 0.0350729 3.88097e-21 0.00449331 -4.50728e-23 3.89708e-37)
(2.8082 0.0273916 3.33565e-21 0.00422473 -4.95274e-23 3.7796e-37)
(2.66698 0.0212481 -2.87706e-21 0.0040495 5.7633e-23 3.66464e-37)
(2.5674 0.0164155 0 0.00395678 0 0)
(2.50234 0.0126817 0 0.00393888 0 0)
(2.4654 0.0100092 -2.04369e-21 0.00400178 8.74264e-23 3.33449e-37)
(2.44996 0.0082431 0 0.00414726 0 0)
(2.45044 0.00736809 0 0.00438983 0 0)
(2.46161 0.00721087 0 0.00473164 0 0)
(2.47927 0.00764585 0 0.00517292 0 0)
(2.50026 0.0086003 2.04837e-21 0.00571118 -1.29474e-22 2.83095e-37)
(2.52235 0.0100038 2.21268e-21 0.00635496 -1.37162e-22 2.73691e-37)
(2.54421 0.0117469 0 0.00713366 0 0)
(2.566 0.0137314 2.70284e-21 0.00812662 -1.68754e-22 2.55521e-37)
(2.59075 0.0160094 0 0.00949715 0 0)
(2.623 0.0192556 0 0.011385 0 0)
(2.66722 0.0241737 3.94781e-21 0.0137885 -1.75607e-22 2.29813e-37)
(2.72785 0.0311053 0 0.0164052 0 0)
(2.80686 0.040537 4.96572e-21 0.0186571 -1.09447e-22 2.13667e-37)
(2.89183 0.0511997 0 0.0197296 0 0)
(2.96152 0.057243 0 0.01892 0 0)
(2.99501 0.0520549 5.9617e-21 0.0169923 2.34022e-23 1.90875e-37)
(2.9863 0.0347807 0 0.0158957 0 0)
(2.97808 0.0109966 6.01352e-21 0.0162946 -3.84041e-23 1.76596e-37)