/*--------------------------------*- C++ -*----------------------------------*\
  =========                 |
  \\      /  F ield         | OpenFOAM: The Open Source CFD Toolbox
   \\    /   O peration     | Website:  https://openfoam.org
    \\  /    A nd           | Version:  11
     \\/     M anipulation  |
\*---------------------------------------------------------------------------*/
FoamFile
{
    format      ascii;
    class       volScalarField;
    location    "74";
    object      p;
}
// * * * * * * * * * * * * * * * * * * * * * * * * * * * * * * * * * * * * * //

dimensions      [0 2 -2 0 0 0 0];

internalField   nonuniform List<scalar> 
2048
(
0.352107
0.350027
0.345839
0.339356
0.330429
0.318917
0.304644
0.287414
0.26704
0.243385
0.21641
0.186212
0.153071
0.117475
0.0801416
0.0419895
0.00408873
-0.0324303
-0.0664852
-0.097134
-0.123616
-0.145336
-0.16182
-0.172688
-0.177635
-0.176624
-0.169731
-0.157263
-0.139861
-0.118484
-0.0943081
-0.0685723
-0.0424302
-0.0168284
0.00756246
0.0303607
0.0514435
0.0708883
0.0889021
0.105744
0.121644
0.136695
0.15081
0.163682
0.174734
0.183117
0.187808
0.187734
0.181955
0.169891
0.151574
0.127826
0.100373
0.07165
0.0445031
0.0214637
0.00439652
-0.00621651
-0.0106157
-0.0107618
-0.00755781
-0.00456434
-0.000599776
-0.00174699
0.354251
0.352196
0.348057
0.341637
0.332781
0.321327
0.307075
0.289804
0.269296
0.245388
0.218016
0.18726
0.1534
0.116949
0.0786763
0.0395799
0.000815303
-0.0364172
-0.0710079
-0.102039
-0.128803
-0.150763
-0.167477
-0.178574
-0.18369
-0.182798
-0.175906
-0.163255
-0.145464
-0.123518
-0.0986447
-0.0721458
-0.0452315
-0.0188962
0.00615596
0.0295274
0.0510939
0.0709379
0.0892693
0.106351
0.122407
0.137534
0.151659
0.164465
0.175359
0.183494
0.187848
0.187353
0.18107
0.168411
0.149391
0.124834
0.0964882
0.0668583
0.0389099
0.0153174
-0.00191414
-0.0122889
-0.0160415
-0.0152786
-0.0109892
-0.00693202
-0.00186125
-0.00223382
0.358518
0.356518
0.352481
0.346204
0.337506
0.326188
0.312003
0.29467
0.273911
0.2495
0.221321
0.189423
0.15408
0.115855
0.0756247
0.0345529
-0.00600698
-0.0446951
-0.0803508
-0.112121
-0.139423
-0.161841
-0.179017
-0.190601
-0.1961
-0.195517
-0.188678
-0.175684
-0.157103
-0.133975
-0.107645
-0.0795531
-0.0510396
-0.0231977
0.00320583
0.0277431
0.0502831
0.0709185
0.0898761
0.107428
0.123787
0.139063
0.153192
0.165833
0.17637
0.183955
0.18758
0.186189
0.178837
0.164908
0.144381
0.118076
0.0878093
0.0562553
0.0266298
0.00189327
-0.0156585
-0.0254535
-0.0277651
-0.0249891
-0.0183541
-0.0119709
-0.00459774
-0.00321575
0.364846
0.362937
0.359075
0.353045
0.344629
0.33357
0.319548
0.302187
0.281103
0.255957
0.226537
0.192837
0.155134
0.11407
0.0706938
0.0264517
-0.0169448
-0.0578564
-0.0950677
-0.127875
-0.155921
-0.178986
-0.196861
-0.209321
-0.215532
-0.215598
-0.208964
-0.195489
-0.175683
-0.150674
-0.121995
-0.0913316
-0.0602593
-0.0300461
-0.00155113
0.0247691
0.0487845
0.0706018
0.0904747
0.108691
0.125479
0.140958
0.155064
0.1674
0.177339
0.18406
0.186588
0.183873
0.174932
0.159069
0.136177
0.107046
0.0735931
0.0387677
0.00624331
-0.0204707
-0.038587
-0.0474155
-0.0473086
-0.0411287
-0.0305638
-0.0202846
-0.00913847
-0.00476535
0.373134
0.371367
0.367779
0.36214
0.354183
0.343575
0.329893
0.312629
0.291236
0.265179
0.234071
0.197779
0.156583
0.111291
0.0632407
0.0143578
-0.0330341
-0.0768935
-0.116018
-0.15001
-0.178884
-0.202719
-0.221494
-0.234942
-0.242955
-0.244377
-0.238332
-0.224295
-0.202735
-0.174979
-0.142851
-0.108395
-0.0735695
-0.0399368
-0.00850587
0.0202392
0.046213
0.0695789
0.090613
0.109634
0.126937
0.142619
0.156631
0.168469
0.177566
0.183167
0.184325
0.179984
0.16912
0.150953
0.125266
0.0927342
0.0552644
0.0160209
-0.0207936
-0.0508705
-0.0705169
-0.0787669
-0.0756823
-0.0647901
-0.0485745
-0.032564
-0.0159078
-0.00696457
0.383224
0.381668
0.378489
0.373441
0.366193
0.356319
0.343259
0.32634
0.304796
0.277798
0.244643
0.204861
0.158659
0.107113
0.0521076
-0.00343516
-0.0561224
-0.103485
-0.144603
-0.17964
-0.209153
-0.233719
-0.253812
-0.269395
-0.279997
-0.28384
-0.279162
-0.264679
-0.240724
-0.209001
-0.171911
-0.132094
-0.0920492
-0.0537337
-0.0183576
0.0135543
0.0419798
0.0671861
0.0895486
0.109467
0.127275
0.142963
0.156713
0.167674
0.175442
0.179345
0.178475
0.171914
0.1588
0.138374
0.110237
0.0747874
0.0337137
-0.00980847
-0.0512611
-0.085667
-0.108447
-0.116899
-0.111302
-0.0953191
-0.07232
-0.0489838
-0.0251348
-0.00983948
0.394884
0.393631
0.391036
0.386847
0.380655
0.371932
0.359921
0.343749
0.322351
0.294548
0.259212
0.215156
0.162229
0.101519
0.0359234
-0.0293066
-0.0888256
-0.139976
-0.182748
-0.218293
-0.247904
-0.272868
-0.29452
-0.313594
-0.328839
-0.337145
-0.334932
-0.320328
-0.293453
-0.256157
-0.211738
-0.164113
-0.116797
-0.0722704
-0.0318982
0.00387838
0.0352099
0.0624636
0.0861592
0.106913
0.12505
0.140192
0.153043
0.16209
0.167251
0.168124
0.164366
0.155435
0.140401
0.118239
0.0882503
0.0505562
0.00668125
-0.0401938
-0.0853333
-0.12331
-0.148744
-0.158204
-0.150842
-0.130164
-0.100179
-0.0686818
-0.0364899
-0.0132773
0.407793
0.406952
0.405152
0.402167
0.397492
0.390534
0.380225
0.365475
0.344641
0.316214
0.278527
0.229525
0.168499
0.0949634
0.0134216
-0.0657675
-0.133952
-0.188894
-0.232342
-0.267053
-0.295499
-0.320356
-0.34431
-0.368726
-0.391984
-0.40932
-0.411559
-0.396857
-0.36615
-0.321423
-0.266747
-0.207873
-0.150148
-0.0970627
-0.0501896
-0.00972583
0.0247984
0.0540958
0.0790629
0.100403
0.118273
0.13267
0.141989
0.146931
0.148416
0.146694
0.141233
0.130903
0.114504
0.0909356
0.0593861
0.0197926
-0.0264377
-0.0760446
-0.123944
-0.164278
-0.191266
-0.200943
-0.191695
-0.166591
-0.129873
-0.0901041
-0.0491524
-0.0170502
0.421517
0.421209
0.420434
0.419052
0.416456
0.412113
0.404508
0.39247
0.373034
0.344395
0.303193
0.247357
0.176231
0.0844572
-0.0201781
-0.117907
-0.196127
-0.25407
-0.295645
-0.325744
-0.348876
-0.371547
-0.3997
-0.434123
-0.468795
-0.503038
-0.515732
-0.503361
-0.467229
-0.410893
-0.340932
-0.266071
-0.194098
-0.129781
-0.0747402
-0.0286781
0.00926559
0.0403816
0.0662045
0.0873261
0.103005
0.112732
0.117267
0.119418
0.119629
0.11742
0.111428
0.100336
0.0830909
0.0586949
0.0262499
-0.0145447
-0.0624611
-0.114159
-0.164183
-0.206122
-0.233723
-0.242723
-0.231236
-0.201875
-0.15894
-0.111393
-0.0620263
-0.0208648
0.435516
0.43585
0.43632
0.436935
0.437009
0.436281
0.432743
0.425656
0.409786
0.383369
0.336693
0.269267
0.177433
0.0530852
-0.0827946
-0.198456
-0.282788
-0.338769
-0.372097
-0.389304
-0.396244
-0.408497
-0.440107
-0.491914
-0.55543
-0.605705
-0.638074
-0.6394
-0.604461
-0.535541
-0.443754
-0.344721
-0.251722
-0.171815
-0.106384
-0.0542115
-0.0130883
0.0197275
0.0456319
0.0639832
0.0743716
0.0787984
0.080513
0.0818364
0.0825458
0.080974
0.0753793
0.0645239
0.0475159
0.023428
-0.0087478
-0.0495682
-0.098025
-0.150757
-0.201969
-0.244734
-0.272245
-0.279952
-0.266165
-0.232983
-0.184752
-0.130545
-0.0738753
-0.0243779
0.44915
0.450198
0.452088
0.454995
0.458261
0.462012
0.464039
0.464608
0.456499
0.4395
0.391359
0.311461
0.167943
-0.0212073
-0.190506
-0.308416
-0.383273
-0.425225
-0.441378
-0.437501
-0.417553
-0.412049
-0.442545
-0.506431
-0.588542
-0.669159
-0.733088
-0.762846
-0.747152
-0.679686
-0.571709
-0.446552
-0.326997
-0.226207
-0.14731
-0.0878235
-0.0430425
-0.0093512
0.0139
0.0265402
0.030734
0.0310055
0.0314179
0.0334664
0.0360261
0.036708
0.0333741
0.024614
0.00955469
-0.0126559
-0.0430681
-0.08244
-0.129983
-0.182372
-0.233537
-0.276109
-0.302878
-0.30885
-0.293141
-0.256906
-0.204765
-0.145636
-0.0834906
-0.0272427
0.461705
0.463483
0.466883
0.472195
0.47898
0.487626
0.496406
0.506374
0.510966
0.512737
0.482592
0.421278
0.208637
-0.0950424
-0.29216
-0.392314
-0.445136
-0.470584
-0.474926
-0.457153
-0.423015
-0.420702
-0.453922
-0.520111
-0.609477
-0.704956
-0.788271
-0.844756
-0.853885
-0.802299
-0.694294
-0.553785
-0.411727
-0.290185
-0.19687
-0.129209
-0.0812113
-0.0489863
-0.0311167
-0.025619
-0.0276139
-0.0308822
-0.0309085
-0.0266593
-0.0201104
-0.0146018
-0.0130824
-0.0174005
-0.0284694
-0.0469883
-0.0739235
-0.110137
-0.155049
-0.205441
-0.255128
-0.296503
-0.322208
-0.327557
-0.309258
-0.271041
-0.216865
-0.155071
-0.0898553
-0.0291622
0.47244
0.474908
0.479768
0.487387
0.49766
0.511099
0.526931
0.546322
0.565817
0.588935
0.599528
0.613552
0.478232
-0.0238643
-0.281731
-0.401147
-0.455727
-0.477497
-0.483402
-0.478023
-0.442214
-0.446794
-0.485019
-0.556685
-0.65391
-0.759024
-0.851525
-0.914044
-0.934189
-0.893445
-0.790785
-0.645508
-0.490595
-0.354473
-0.249927
-0.176257
-0.127736
-0.099668
-0.0890643
-0.0916619
-0.100098
-0.106427
-0.105604
-0.0969362
-0.0836515
-0.0704369
-0.0613442
-0.0588246
-0.0638716
-0.0769454
-0.0987683
-0.130162
-0.170705
-0.217366
-0.264018
-0.302989
-0.326791
-0.330478
-0.311866
-0.273516
-0.219566
-0.157754
-0.0922643
-0.029924
0.480646
0.483712
0.489813
0.499433
0.512698
0.530383
0.552324
0.580153
0.612339
0.65241
0.691691
0.735859
0.689191
0.231964
-0.0597267
-0.240594
-0.354798
-0.422909
-0.460442
-0.494234
-0.470731
-0.478636
-0.520646
-0.596478
-0.699791
-0.811538
-0.908533
-0.974073
-0.991292
-0.951839
-0.852203
-0.707666
-0.549461
-0.408036
-0.299503
-0.225364
-0.18029
-0.159008
-0.157481
-0.169106
-0.183826
-0.191801
-0.188084
-0.172608
-0.150008
-0.126576
-0.107637
-0.0963258
-0.0937317
-0.100003
-0.115461
-0.14072
-0.175442
-0.216838
-0.259037
-0.29455
-0.316024
-0.318653
-0.300541
-0.263812
-0.212433
-0.153313
-0.0904324
-0.0294273
0.485733
0.489232
0.496218
0.507293
0.522707
0.543538
0.569806
0.603852
0.643942
0.695094
0.745981
0.807447
0.780989
0.316556
0.00644727
-0.194768
-0.328053
-0.411862
-0.461917
-0.501953
-0.494403
-0.502463
-0.543322
-0.616435
-0.718504
-0.830686
-0.9259
-0.987093
-1.00188
-0.961609
-0.865361
-0.727206
-0.575795
-0.440436
-0.337799
-0.270298
-0.23316
-0.221715
-0.231083
-0.252096
-0.272018
-0.279488
-0.271005
-0.246738
-0.213036
-0.177823
-0.147733
-0.126561
-0.115461
-0.114227
-0.122666
-0.141033
-0.168988
-0.204025
-0.240712
-0.271979
-0.290861
-0.292852
-0.276195
-0.242734
-0.196063
-0.142115
-0.0845066
-0.027681
0.48728
0.490987
0.498409
0.510188
0.52668
0.54904
0.57752
0.614444
0.658474
0.713907
0.770322
0.836198
0.818896
0.36699
0.0519035
-0.163824
-0.312822
-0.409608
-0.469027
-0.508707
-0.51618
-0.519345
-0.554449
-0.615867
-0.702679
-0.806694
-0.889764
-0.941252
-0.95038
-0.908834
-0.818837
-0.694339
-0.560719
-0.443334
-0.356571
-0.302667
-0.278275
-0.279944
-0.301624
-0.331615
-0.355419
-0.362029
-0.346209
-0.311733
-0.266179
-0.218918
-0.177669
-0.146724
-0.12722
-0.118576
-0.12005
-0.131443
-0.152326
-0.180492
-0.211089
-0.237681
-0.253878
-0.255579
-0.241198
-0.212299
-0.171995
-0.125191
-0.0750077
-0.0247868
0.485075
0.488744
0.496088
0.507745
0.524065
0.546207
0.574413
0.611034
0.654704
0.709776
0.765768
0.83115
0.813197
0.358603
0.0403043
-0.178709
-0.330902
-0.430316
-0.491449
-0.524211
-0.538383
-0.542161
-0.565052
-0.605072
-0.664241
-0.734772
-0.795502
-0.831318
-0.834241
-0.791741
-0.712822
-0.609671
-0.503261
-0.412879
-0.34924
-0.314526
-0.307415
-0.325158
-0.359989
-0.397975
-0.423845
-0.427193
-0.404583
-0.360293
-0.303688
-0.245561
-0.194502
-0.155072
-0.128256
-0.113092
-0.108327
-0.113299
-0.127436
-0.14883
-0.17329
-0.195154
-0.208762
-0.210468
-0.198893
-0.175346
-0.142416
-0.104027
-0.0627192
-0.0209157
0.479163
0.48255
0.489306
0.500017
0.514925
0.535104
0.560572
0.593687
0.632746
0.682779
0.732554
0.792571
0.764096
0.292892
-0.0268848
-0.238717
-0.382132
-0.474587
-0.531914
-0.561141
-0.577604
-0.580287
-0.587363
-0.595676
-0.610012
-0.631921
-0.654023
-0.664312
-0.651572
-0.619157
-0.557927
-0.482183
-0.408194
-0.348988
-0.312384
-0.301102
-0.315239
-0.35135
-0.399306
-0.443706
-0.469989
-0.469453
-0.440182
-0.387419
-0.321796
-0.255232
-0.196883
-0.151272
-0.119058
-0.0989008
-0.089141
-0.0887266
-0.0969407
-0.112172
-0.130928
-0.148369
-0.159628
-0.161542
-0.152973
-0.135039
-0.109791
-0.0803197
-0.0485587
-0.0162857
0.469829
0.472715
0.478444
0.487482
0.499933
0.51657
0.5372
0.56351
0.593946
0.632263
0.669627
0.712206
0.661486
0.191501
-0.115571
-0.313497
-0.444781
-0.529171
-0.583347
-0.618449
-0.636012
-0.634828
-0.621909
-0.591654
-0.552094
-0.514763
-0.486427
-0.464083
-0.439473
-0.409853
-0.36823
-0.32234
-0.281584
-0.254803
-0.247896
-0.263773
-0.302182
-0.357344
-0.416793
-0.465253
-0.490373
-0.485617
-0.4504
-0.391069
-0.319243
-0.247567
-0.185264
-0.136436
-0.101245
-0.0779948
-0.0647671
-0.0602619
-0.0636759
-0.0736862
-0.0874869
-0.101064
-0.110331
-0.112609
-0.10697
-0.0944076
-0.076506
-0.0557419
-0.0334728
-0.0111426
0.457562
0.459795
0.464162
0.471018
0.480202
0.492273
0.506314
0.523719
0.540657
0.561494
0.569215
0.582372
0.446899
-0.0723047
-0.357402
-0.506481
-0.587753
-0.632992
-0.662444
-0.702505
-0.70686
-0.686766
-0.647456
-0.576843
-0.487435
-0.395777
-0.318241
-0.260617
-0.219259
-0.188033
-0.163633
-0.145666
-0.136945
-0.142742
-0.167388
-0.212436
-0.275173
-0.346829
-0.41399
-0.463332
-0.485433
-0.476055
-0.435726
-0.371969
-0.297243
-0.224315
-0.161784
-0.112913
-0.0772703
-0.0528902
-0.0377514
-0.030482
-0.0302951
-0.03616
-0.0459108
-0.0563006
-0.0639647
-0.0667238
-0.0637834
-0.0559803
-0.0445976
-0.0317701
-0.0183594
-0.00574226
0.443017
0.444512
0.447329
0.451728
0.457229
0.464233
0.470915
0.478446
0.480101
0.478755
0.445368
0.380159
0.163661
-0.154448
-0.377878
-0.50757
-0.587374
-0.64149
-0.679499
-0.706019
-0.710532
-0.685664
-0.624942
-0.528122
-0.40588
-0.279572
-0.171296
-0.0905007
-0.0344824
0.00377618
0.0153417
0.0130478
-0.00453
-0.0395852
-0.0932265
-0.163761
-0.244977
-0.326188
-0.395102
-0.441476
-0.458414
-0.443512
-0.398848
-0.333096
-0.259161
-0.189037
-0.129897
-0.0838577
-0.0499665
-0.0261721
-0.0105138
-0.00168135
0.00100224
-0.00174256
-0.00834762
-0.0162584
-0.02275
-0.0260056
-0.0253367
-0.0215235
-0.0156244
-0.00960858
-0.00402418
-0.000338094
0.426949
0.427677
0.428925
0.430808
0.432678
0.434575
0.434372
0.432133
0.420995
0.400117
0.348446
0.263227
0.115291
-0.0811537
-0.264997
-0.403375
-0.501396
-0.57046
-0.616538
-0.641751
-0.640423
-0.607413
-0.540302
-0.44016
-0.315075
-0.182906
-0.0665906
0.0220177
0.0839902
0.118523
0.129945
0.116946
0.0823402
0.0277447
-0.0444448
-0.129045
-0.217345
-0.298607
-0.362778
-0.402115
-0.412521
-0.391769
-0.344027
-0.279308
-0.210125
-0.146572
-0.0937824
-0.0526933
-0.0220823
-8.73316e-05
0.015014
0.0244021
0.0286311
0.028121
0.0238711
0.0177935
0.0121149
0.00839538
0.00723632
0.00784555
0.00937405
0.00986667
0.00885317
0.0048216
0.410132
0.410124
0.409918
0.409447
0.408063
0.405383
0.399543
0.38952
0.370503
0.340073
0.289451
0.217024
0.119804
-0.00986572
-0.153196
-0.279655
-0.376646
-0.445392
-0.48946
-0.511233
-0.51136
-0.484236
-0.426758
-0.341419
-0.238622
-0.132938
-0.0334849
0.0557943
0.128422
0.166311
0.174016
0.153941
0.111744
0.0505532
-0.025665
-0.110173
-0.19387
-0.267056
-0.321651
-0.351058
-0.352359
-0.325571
-0.276983
-0.217072
-0.156424
-0.102251
-0.0575731
-0.0225032
0.00410198
0.023676
0.0375544
0.0467362
0.051699
0.052659
0.0501338
0.0454239
0.0402997
0.0361188
0.0334812
0.0316291
0.0298385
0.0261092
0.0197647
0.00951397
0.393297
0.392641
0.391176
0.388694
0.384617
0.378327
0.368399
0.353497
0.330874
0.29847
0.253226
0.19294
0.116829
0.0204414
-0.0886434
-0.191312
-0.274322
-0.334794
-0.374577
-0.39535
-0.396821
-0.3769
-0.333715
-0.270326
-0.193141
-0.109808
-0.0282259
0.0441307
0.0978362
0.13506
0.147451
0.134409
0.0979424
0.0420399
-0.0270621
-0.101541
-0.172679
-0.231811
-0.271269
-0.287774
-0.279539
-0.249516
-0.204774
-0.154029
-0.104632
-0.0609551
-0.0246088
0.00448164
0.0270739
0.0440857
0.056431
0.0649075
0.0699608
0.0717324
0.070405
0.0667354
0.0620221
0.0574255
0.0535997
0.0498964
0.0456372
0.0388755
0.0283853
0.013543
0.377094
0.375911
0.373423
0.369358
0.363221
0.354381
0.341808
0.32436
0.300479
0.268647
0.227285
0.174555
0.109825
0.0331367
-0.0506494
-0.131121
-0.199102
-0.250837
-0.286295
-0.305941
-0.309413
-0.295563
-0.26467
-0.218425
-0.160928
-0.098062
-0.0362213
0.019165
0.0638457
0.0936101
0.104106
0.0945481
0.0663799
0.0227929
-0.031028
-0.0882269
-0.141318
-0.183945
-0.207754
-0.213598
-0.201127
-0.17414
-0.138076
-0.0986514
-0.0604233
-0.0261034
0.00314583
0.027142
0.0461907
0.0607856
0.0714995
0.0789565
0.0836141
0.0856502
0.0850716
0.0821981
0.0778394
0.0729392
0.068172
0.0631073
0.0570131
0.0482384
0.034636
0.016771
0.362063
0.360479
0.357214
0.351985
0.344384
0.333879
0.319731
0.301078
0.276909
0.246136
0.207749
0.160829
0.105476
0.043149
-0.0228292
-0.0868532
-0.143079
-0.18785
-0.21982
-0.238606
-0.243861
-0.235137
-0.213456
-0.180014
-0.137866
-0.091145
-0.044248
-0.00143599
0.033366
0.0569035
0.0665848
0.0615074
0.0426653
0.0125771
-0.0247578
-0.0641376
-0.0999546
-0.12667
-0.143337
-0.145148
-0.134129
-0.113209
-0.0858218
-0.0556757
-0.0258783
0.00151697
0.0254109
0.0453946
0.0614896
0.0739362
0.0830701
0.0893405
0.0932037
0.094977
0.0946984
0.0924325
0.0884875
0.0834953
0.0780024
0.071941
0.0644306
0.0544588
0.0386484
0.0191513
0.348624
0.346753
0.342934
0.336895
0.328315
0.316778
0.301748
0.28259
0.258615
0.229117
0.193563
0.151737
0.104141
0.0521911
-0.00180349
-0.0544768
-0.101949
-0.141062
-0.170003
-0.188005
-0.194816
-0.190526
-0.175349
-0.151262
-0.120263
-0.0852908
-0.049548
-0.0164977
0.0109504
0.0303394
0.0398529
0.038769
0.0276791
0.00834552
-0.0163842
-0.0428158
-0.0669708
-0.0851636
-0.0952518
-0.0953103
-0.0860904
-0.0694279
-0.0477862
-0.0237985
0.000262625
0.0227665
0.0427138
0.0596069
0.0733087
0.0839141
0.091625
0.0967431
0.0996345
0.1007
0.100144
0.0980864
0.0945414
0.0897797
0.083932
0.0772697
0.0686348
0.0579982
0.0406612
0.0206457
0.337088
0.335022
0.330827
0.324254
0.315049
0.302902
0.287425
0.268168
0.244679
0.216565
0.183628
0.145984
0.104212
0.0594702
0.0135044
-0.0313198
-0.0722328
-0.106707
-0.133009
-0.150266
-0.158209
-0.156965
-0.147017
-0.129582
-0.10652
-0.0799195
-0.052443
-0.0265128
-0.00445636
0.0118124
0.020941
0.0223297
0.0162974
0.00409114
-0.0121816
-0.0297959
-0.0458051
-0.0575332
-0.0630668
-0.0614866
-0.0529869
-0.0388302
-0.0207997
-0.00079915
0.0194442
0.0385844
0.0557121
0.0703062
0.0821461
0.091235
0.0977022
0.101781
0.103752
0.10399
0.102775
0.10038
0.0968187
0.0922884
0.0864156
0.0796679
0.0703824
0.0595105
0.0412269
0.0213801
0.327669
0.325477
0.32104
0.314129
0.304547
0.292066
0.276412
0.257279
0.23439
0.207561
0.176779
0.142289
0.10467
0.0649172
0.0244621
-0.0148535
-0.0509439
-0.0818363
-0.106036
-0.122675
-0.131431
-0.132413
-0.126121
-0.113528
-0.0960347
-0.0754702
-0.0538091
-0.0330147
-0.0149131
-0.00102154
0.00757267
0.0103609
0.00754414
6.08407e-05
-0.0104993
-0.0220669
-0.0324221
-0.0395862
-0.0420566
-0.0391138
-0.0308261
-0.0180668
-0.00217358
0.0153626
0.033138
0.0500092
0.065158
0.0780755
0.0885062
0.0964007
0.101842
0.10503
0.106194
0.105674
0.103748
0.100783
0.0968244
0.0923306
0.0861739
0.0794456
0.0699357
0.0592067
0.0407778
0.0214157
0.320509
0.318239
0.313655
0.306544
0.296747
0.284104
0.26842
0.249493
0.22716
0.201359
0.172178
0.139922
0.105171
0.0688237
0.0321146
-0.00344513
-0.0361978
-0.064555
-0.0872329
-0.1034
-0.1127
-0.115205
-0.111374
-0.102049
-0.0884217
-0.0719707
-0.0543071
-0.0370486
-0.0216933
-0.00950245
-0.0013829
0.00222946
0.0014602
-0.00297971
-0.00985506
-0.0175393
-0.024276
-0.0284623
-0.0288496
-0.0248404
-0.0164738
-0.00442589
0.0102235
0.026244
0.0424499
0.0578394
0.0716605
0.0834187
0.0928447
0.0998607
0.104521
0.107001
0.107513
0.106381
0.103848
0.100306
0.0957647
0.0905466
0.0845087
0.0777303
0.0680497
0.057443
0.0393825
0.0205972
0.315696
0.313382
0.308715
0.301494
0.291589
0.278878
0.263221
0.244479
0.222557
0.197459
0.169332
0.138514
0.105582
0.0713785
0.037005
0.00377275
-0.0269048
-0.0536627
-0.0753564
-0.0911984
-0.100821
-0.104271
-0.101971
-0.09468
-0.083451
-0.0695536
-0.0543794
-0.0393305
-0.0257087
-0.0146124
-0.00683637
-0.00277964
-0.00236962
-0.00503464
-0.00974228
-0.0151176
-0.0196647
-0.0220063
-0.0210822
-0.0163662
-0.0078823
0.00380446
0.0177677
0.0329266
0.0482171
0.0627187
0.0757231
0.0867507
0.095529
0.101967
0.106101
0.108096
0.108151
0.106589
0.103631
0.0997001
0.0947937
0.089408
0.0829259
0.0760052
0.0661566
0.0555578
0.0378077
0.0195042
0.313282
0.310947
0.306243
0.298975
0.289025
0.276293
0.260663
0.242025
0.220319
0.195577
0.167972
0.13786
0.105815
0.0726459
0.0393913
0.00726813
-0.0224187
-0.0484049
-0.0696145
-0.085289
-0.0950609
-0.0989633
-0.0973962
-0.0910787
-0.0809933
-0.0683166
-0.0543373
-0.040354
-0.0275734
-0.0170153
-0.00942194
-0.00517445
-0.00422439
-0.00606354
-0.00975623
-0.0140516
-0.0175637
-0.019028
-0.0174837
-0.0124295
-0.00387037
0.0076732
0.0213366
0.0361045
0.0509698
0.0650529
0.0776681
0.0883434
0.0968049
0.102955
0.106826
0.108575
0.108397
0.106612
0.103438
0.099311
0.0942165
0.0886981
0.0820148
0.0750097
0.065092
0.0544799
0.0369502
0.0189011
)
;

boundaryField
{
    inlet
    {
        type            zeroGradient;
    }
    outlet
    {
        type            fixedValue;
        value           uniform 0;
    }
    top
    {
        type            symmetryPlane;
    }
    bottom
    {
        type            symmetryPlane;
    }
    frontAndBack
    {
        type            empty;
    }
}


// ************************************************************************* //
