/*--------------------------------*- C++ -*----------------------------------*\
  =========                 |
  \\      /  F ield         | OpenFOAM: The Open Source CFD Toolbox
   \\    /   O peration     | Website:  https://openfoam.org
    \\  /    A nd           | Version:  10
     \\/     M anipulation  |
\*---------------------------------------------------------------------------*/
FoamFile
{
    format      ascii;
    class       volVectorField;
    location    "1.78";
    object      Ua;
}
// * * * * * * * * * * * * * * * * * * * * * * * * * * * * * * * * * * * * * //

dimensions      [0 1 -1 0 0 0 0];

internalField   nonuniform List<vector> 
12225
(
(2.27454e-05 -2.92676e-06 0)
(6.64952e-05 -2.74096e-06 0)
(0.000106164 -2.39938e-06 0)
(0.000141123 -2.01465e-06 0)
(0.00017164 -1.66291e-06 0)
(0.000198441 -1.38206e-06 0)
(0.000222383 -1.18508e-06 0)
(0.000244291 -1.07336e-06 0)
(0.000264903 -1.04597e-06 0)
(0.000284882 -1.10572e-06 0)
(0.000304864 -1.26426e-06 0)
(0.000325534 -1.54888e-06 0)
(0.000347751 -2.01596e-06 0)
(0.000372778 -2.78301e-06 0)
(0.000402813 -4.11798e-06 0)
(0.000442469 -6.746e-06 0)
(0.000504393 -1.32466e-05 0)
(0.000639293 -3.69135e-05 0)
(1.54357e-05 -7.5693e-06 0)
(4.54685e-05 -7.13318e-06 0)
(7.34607e-05 -6.28781e-06 0)
(9.89619e-05 -5.31629e-06 0)
(0.000121991 -4.41682e-06 0)
(0.000142853 -3.69289e-06 0)
(0.000161977 -3.18395e-06 0)
(0.000179815 -2.89838e-06 0)
(0.000196805 -2.83757e-06 0)
(0.00021336 -3.01217e-06 0)
(0.000229897 -3.45604e-06 0)
(0.000246879 -4.24486e-06 0)
(0.000264887 -5.53207e-06 0)
(0.000284766 -7.63237e-06 0)
(0.000307895 -1.12465e-05 0)
(0.0003368 -1.81789e-05 0)
(0.000375964 -3.4168e-05 0)
(0.000423961 -8.28938e-05 0)
(1.19331e-05 -1.03865e-05 0)
(3.53718e-05 -9.87787e-06 0)
(5.77037e-05 -8.79188e-06 0)
(7.85739e-05 -7.50241e-06 0)
(9.79017e-05 -6.28506e-06 0)
(0.000115808 -5.29339e-06 0)
(0.000132526 -4.59362e-06 0)
(0.000148332 -4.20722e-06 0)
(0.000163514 -4.14385e-06 0)
(0.000178363 -4.425e-06 0)
(0.000193179 -5.10447e-06 0)
(0.000208301 -6.29552e-06 0)
(0.000224147 -8.22105e-06 0)
(0.000241284 -1.13249e-05 0)
(0.000260518 -1.65497e-05 0)
(0.000282875 -2.61123e-05 0)
(0.000308306 -4.5854e-05 0)
(0.000325745 -9.19523e-05 0)
(9.67301e-06 -1.22075e-05 0)
(2.88384e-05 -1.17195e-05 0)
(4.74608e-05 -1.05312e-05 0)
(6.52525e-05 -9.06715e-06 0)
(8.20842e-05 -7.65642e-06 0)
(9.79725e-05 -6.49331e-06 0)
(0.000113031 -5.67008e-06 0)
(0.000127428 -5.22375e-06 0)
(0.000141353 -5.17494e-06 0)
(0.000155011 -5.55674e-06 0)
(0.00016862 -6.44012e-06 0)
(0.000182423 -7.96645e-06 0)
(0.000196706 -1.04043e-05 0)
(0.000211806 -1.42668e-05 0)
(0.000228066 -2.05742e-05 0)
(0.000245476 -3.14621e-05 0)
(0.000262001 -5.14785e-05 0)
(0.000267546 -8.89407e-05 0)
(8.03511e-06 -1.33219e-05 0)
(2.40887e-05 -1.29157e-05 0)
(3.99759e-05 -1.17169e-05 0)
(5.54605e-05 -1.01755e-05 0)
(7.03911e-05 -8.6578e-06 0)
(8.47203e-05 -7.39163e-06 0)
(9.84838e-05 -6.49357e-06 0)
(0.000111771 -6.01708e-06 0)
(0.000124702 -5.99477e-06 0)
(0.000137415 -6.47089e-06 0)
(0.00015006 -7.52998e-06 0)
(0.000162801 -9.33145e-06 0)
(0.00017581 -1.21658e-05 0)
(0.000189231 -1.65597e-05 0)
(0.00020306 -2.34781e-05 0)
(0.000216695 -3.46853e-05 0)
(0.000227643 -5.3152e-05 0)
(0.000228837 -8.21336e-05 0)
(6.77349e-06 -1.38785e-05 0)
(2.0418e-05 -1.35973e-05 0)
(3.41588e-05 -1.24534e-05 0)
(4.78014e-05 -1.09061e-05 0)
(6.11872e-05 -9.34733e-06 0)
(7.42303e-05 -8.03169e-06 0)
(8.69127e-05 -7.09777e-06 0)
(9.92668e-05 -6.61513e-06 0)
(0.000111357 -6.62828e-06 0)
(0.000123268 -7.19134e-06 0)
(0.000135092 -8.39798e-06 0)
(0.000146925 -1.04153e-05 0)
(0.00015884 -1.35334e-05 0)
(0.000170834 -1.82455e-05 0)
(0.000182675 -2.53736e-05 0)
(0.000193524 -3.62071e-05 0)
(0.000201156 -5.23968e-05 0)
(0.000201175 -7.45902e-05 0)
(5.76548e-06 -1.39696e-05 0)
(1.74747e-05 -1.38439e-05 0)
(2.94667e-05 -1.28022e-05 0)
(4.15807e-05 -1.13032e-05 0)
(5.36615e-05 -9.75535e-06 0)
(6.5601e-05 -8.43422e-06 0)
(7.73446e-05 -7.49728e-06 0)
(8.88818e-05 -7.02888e-06 0)
(0.000100233 -7.08445e-06 0)
(0.000111436 -7.72591e-06 0)
(0.000122537 -9.05133e-06 0)
(0.00013357 -1.12255e-05 0)
(0.000144532 -1.45189e-05 0)
(0.000155314 -1.93585e-05 0)
(0.000165569 -2.63829e-05 0)
(0.000174447 -3.64315e-05 0)
(0.000180235 -5.02456e-05 0)
(0.000180388 -6.73852e-05 0)
(4.94074e-06 -1.36614e-05 0)
(1.50575e-05 -1.37112e-05 0)
(2.55888e-05 -1.28043e-05 0)
(3.64019e-05 -1.13941e-05 0)
(4.73518e-05 -9.89872e-06 0)
(5.83203e-05 -8.60891e-06 0)
(6.92283e-05 -7.69735e-06 0)
(8.00329e-05 -7.261e-06 0)
(9.07183e-05 -7.36449e-06 0)
(0.000101285 -8.075e-06 0)
(0.000111736 -9.49027e-06 0)
(0.000122058 -1.17642e-05 0)
(0.00013219 -1.51333e-05 0)
(0.000141961 -1.99413e-05 0)
(0.000150991 -2.66415e-05 0)
(0.000158539 -3.5713e-05 0)
(0.000163401 -4.73568e-05 0)
(0.000164176 -6.08247e-05 0)
(4.25488e-06 -1.30066e-05 0)
(1.30391e-05 -1.32424e-05 0)
(2.23287e-05 -1.24901e-05 0)
(3.20152e-05 -1.11975e-05 0)
(4.19685e-05 -9.7873e-06 0)
(5.20691e-05 -8.55975e-06 0)
(6.22221e-05 -7.6984e-06 0)
(7.23602e-05 -7.3099e-06 0)
(8.24385e-05 -7.46579e-06 0)
(9.24258e-05 -8.23576e-06 0)
(0.000102291 -9.71292e-06 0)
(0.000111982 -1.20337e-05 0)
(0.0001214 -1.53927e-05 0)
(0.000130347 -2.00468e-05 0)
(0.000138463 -2.62877e-05 0)
(0.00014516 -3.43399e-05 0)
(0.000149642 -4.41287e-05 0)
(0.000151171 -5.49307e-05 0)
(3.67771e-06 -1.20526e-05 0)
(1.13326e-05 -1.24744e-05 0)
(1.95523e-05 -1.18842e-05 0)
(2.82505e-05 -1.07275e-05 0)
(3.73157e-05 -9.42743e-06 0)
(4.66331e-05 -8.288e-06 0)
(5.60985e-05 -7.49863e-06 0)
(6.56263e-05 -7.17218e-06 0)
(7.51482e-05 -7.38436e-06 0)
(8.46067e-05 -8.20464e-06 0)
(9.3943e-05 -9.71807e-06 0)
(0.000103079 -1.20395e-05 0)
(0.000111893 -1.53196e-05 0)
(0.000120185 -1.97353e-05 0)
(0.000127644 -2.54517e-05 0)
(0.000133833 -3.25326e-05 0)
(0.000138246 -4.07905e-05 0)
(0.000140511 -4.96338e-05 0)
(3.18719e-06 -1.08452e-05 0)
(9.8742e-06 -1.14412e-05 0)
(1.71611e-05 -1.10084e-05 0)
(2.49837e-05 -9.99601e-06 0)
(3.32524e-05 -8.82421e-06 0)
(4.18602e-05 -7.79422e-06 0)
(5.06981e-05 -7.09587e-06 0)
(5.96666e-05 -6.84426e-06 0)
(6.86788e-05 -7.11641e-06 0)
(7.76564e-05 -7.97905e-06 0)
(8.65197e-05 -9.50684e-06 0)
(9.5173e-05 -1.17918e-05 0)
(0.000103486 -1.49426e-05 0)
(0.000111273 -1.90699e-05 0)
(0.00011828 -2.42486e-05 0)
(0.000124193 -3.04521e-05 0)
(0.000128704 -3.74681e-05 0)
(0.000131633 -4.48464e-05 0)
(2.732e-06 -9.54019e-06 0)
(8.52597e-06 -1.02783e-05 0)
(1.49643e-05 -9.98024e-06 0)
(2.2003e-05 -9.10428e-06 0)
(2.95669e-05 -8.06341e-06 0)
(3.75519e-05 -7.15061e-06 0)
(4.5842e-05 -6.55133e-06 0)
(5.43253e-05 -6.37941e-06 0)
(6.29003e-05 -6.71084e-06 0)
(7.14735e-05 -7.60829e-06 0)
(7.99521e-05 -9.13594e-06 0)
(8.82322e-05 -1.13653e-05 0)
(9.6185e-05 -1.43715e-05 0)
(0.000103646 -1.82167e-05 0)
(0.00011041 -2.29195e-05 0)
(0.000116252 -2.84102e-05 0)
(0.000120973 -3.44886e-05 0)
(0.000124479 -4.08156e-05 0)
(2.43514e-06 -8.11089e-06 0)
(7.62675e-06 -8.9529e-06 0)
(1.34572e-05 -8.7648e-06 0)
(1.9908e-05 -8.01793e-06 0)
(2.69257e-05 -7.11309e-06 0)
(3.44161e-05 -6.32835e-06 0)
(4.22633e-05 -5.83954e-06 0)
(5.0349e-05 -5.75568e-06 0)
(5.85618e-05 -6.1495e-06 0)
(6.67976e-05 -7.07841e-06 0)
(7.49544e-05 -8.59617e-06 0)
(8.29231e-05 -1.07563e-05 0)
(9.0579e-05 -1.36066e-05 0)
(9.77761e-05 -1.71751e-05 0)
(0.000104351 -2.14465e-05 0)
(0.000110141 -2.63354e-05 0)
(0.00011502 -3.16669e-05 0)
(0.000118944 -3.71853e-05 0)
(2.13771e-06 -6.40313e-06 0)
(6.71205e-06 -7.29178e-06 0)
(1.19061e-05 -7.18436e-06 0)
(1.77444e-05 -6.56706e-06 0)
(2.41985e-05 -5.81758e-06 0)
(3.11819e-05 -5.18765e-06 0)
(3.85762e-05 -4.8354e-06 0)
(4.62553e-05 -4.86016e-06 0)
(5.40982e-05 -5.3284e-06 0)
(6.19917e-05 -6.29024e-06 0)
(6.98265e-05 -7.78787e-06 0)
(7.74919e-05 -9.85701e-06 0)
(8.48709e-05 -1.25218e-05 0)
(9.18396e-05 -1.57841e-05 0)
(9.82729e-05 -1.96084e-05 0)
(0.000104061 -2.39088e-05 0)
(0.000109129 -2.85433e-05 0)
(0.000113463 -3.33271e-05 0)
(1.82554e-06 -4.45026e-06 0)
(5.74163e-06 -5.25404e-06 0)
(1.02592e-05 -5.16817e-06 0)
(1.54702e-05 -4.67244e-06 0)
(2.13656e-05 -4.09771e-06 0)
(2.78565e-05 -3.65162e-06 0)
(3.48137e-05 -3.46417e-06 0)
(4.20996e-05 -3.6194e-06 0)
(4.95831e-05 -4.17432e-06 0)
(5.71427e-05 -5.17008e-06 0)
(6.46657e-05 -6.63736e-06 0)
(7.20443e-05 -8.5969e-06 0)
(7.91746e-05 -1.10557e-05 0)
(8.59581e-05 -1.40003e-05 0)
(9.23065e-05 -1.73887e-05 0)
(9.81506e-05 -2.11451e-05 0)
(0.000103451 -2.51613e-05 0)
(0.000108207 -2.93072e-05 0)
(1.43378e-06 -2.32276e-06 0)
(4.5512e-06 -2.79647e-06 0)
(8.31851e-06 -2.65338e-06 0)
(1.29084e-05 -2.2745e-06 0)
(1.82972e-05 -1.8978e-06 0)
(2.4361e-05 -1.66314e-06 0)
(3.09396e-05 -1.66263e-06 0)
(3.78735e-05 -1.96157e-06 0)
(4.50198e-05 -2.60693e-06 0)
(5.22562e-05 -3.63355e-06 0)
(5.94795e-05 -5.06579e-06 0)
(6.66016e-05 -6.91588e-06 0)
(7.35449e-05 -9.18188e-06 0)
(8.02407e-05 -1.18439e-05 0)
(8.66302e-05 -1.48606e-05 0)
(9.26675e-05 -1.81685e-05 0)
(9.83241e-05 -2.16851e-05 0)
(0.000103592 -2.53165e-05 0)
(7.30214e-07 6.03029e-09 0)
(2.52953e-06 1.68347e-07 0)
(5.25432e-06 3.92022e-07 0)
(9.11067e-06 6.13312e-07 0)
(1.39469e-05 7.61984e-07 0)
(1.95511e-05 7.65188e-07 0)
(2.57379e-05 5.5942e-07 0)
(3.23522e-05 9.54888e-08 0)
(3.92595e-05 -6.61955e-07 0)
(4.63697e-05 -1.78697e-06 0)
(5.36182e-05 -3.27639e-06 0)
(6.09151e-05 -5.10708e-06 0)
(6.81613e-05 -7.27201e-06 0)
(7.527e-05 -9.74814e-06 0)
(8.21673e-05 -1.24964e-05 0)
(8.87945e-05 -1.54634e-05 0)
(9.51096e-05 -1.85848e-05 0)
(0.000101089 -2.17914e-05 0)
(1.71727e-06 2.78252e-06 0)
(5.25952e-06 3.76702e-06 0)
(9.15056e-06 4.20276e-06 0)
(1.35918e-05 4.31719e-06 0)
(1.86605e-05 4.22032e-06 0)
(2.43337e-05 3.931e-06 0)
(3.05269e-05 3.43459e-06 0)
(3.71309e-05 2.71103e-06 0)
(4.40327e-05 1.74429e-06 0)
(5.10996e-05 4.75189e-07 0)
(5.81936e-05 -1.07784e-06 0)
(6.52849e-05 -3.0233e-06 0)
(7.23694e-05 -5.22095e-06 0)
(7.93708e-05 -7.62464e-06 0)
(8.6216e-05 -1.02012e-05 0)
(9.28471e-05 -1.29089e-05 0)
(9.92224e-05 -1.57014e-05 0)
(0.000105315 -1.85306e-05 0)
(2.40873e-06 6.61823e-06 0)
(7.39176e-06 8.14962e-06 0)
(1.27122e-05 8.83817e-06 0)
(1.83941e-05 8.92331e-06 0)
(2.44621e-05 8.59553e-06 0)
(3.09115e-05 7.96896e-06 0)
(3.77033e-05 7.10311e-06 0)
(4.4773e-05 6.02702e-06 0)
(5.20431e-05 4.75545e-06 0)
(5.9432e-05 3.29729e-06 0)
(6.68612e-05 1.66444e-06 0)
(7.42008e-05 -2.7283e-07 0)
(8.13469e-05 -2.41834e-06 0)
(8.83045e-05 -4.76365e-06 0)
(9.50703e-05 -7.18619e-06 0)
(0.000101609 -9.65845e-06 0)
(0.000107897 -1.21508e-05 0)
(0.000113919 -1.4634e-05 0)
(2.75769e-06 1.09084e-05 0)
(8.51444e-06 1.24379e-05 0)
(1.47191e-05 1.31028e-05 0)
(2.1316e-05 1.30617e-05 0)
(2.82651e-05 1.25031e-05 0)
(3.55222e-05 1.15775e-05 0)
(4.30311e-05 1.03886e-05 0)
(5.07251e-05 9.00274e-06 0)
(5.8532e-05 7.46171e-06 0)
(6.63796e-05 5.79259e-06 0)
(7.41997e-05 4.01518e-06 0)
(8.19304e-05 2.1454e-06 0)
(8.94939e-05 1.51787e-07 0)
(9.68064e-05 -2.04108e-06 0)
(0.000103861 -4.32204e-06 0)
(0.000110673 -6.59571e-06 0)
(0.000117223 -8.84481e-06 0)
(0.0001235 -1.10524e-05 0)
(3.29958e-06 1.46349e-05 0)
(1.01311e-05 1.58704e-05 0)
(1.73949e-05 1.62882e-05 0)
(2.5025e-05 1.6002e-05 0)
(3.29552e-05 1.51866e-05 0)
(4.11191e-05 1.39999e-05 0)
(4.94478e-05 1.25612e-05 0)
(5.78702e-05 1.09528e-05 0)
(6.63159e-05 9.22874e-06 0)
(7.47182e-05 7.42417e-06 0)
(8.30168e-05 5.56284e-06 0)
(9.1159e-05 3.66237e-06 0)
(9.91003e-05 1.73729e-06 0)
(0.000106772 -2.56542e-07 0)
(0.000114129 -2.39694e-06 0)
(0.000121185 -4.52394e-06 0)
(0.000127947 -6.59639e-06 0)
(0.000134409 -8.60481e-06 0)
(3.96679e-06 1.76861e-05 0)
(1.20964e-05 1.85705e-05 0)
(2.0595e-05 1.86733e-05 0)
(2.94009e-05 1.81016e-05 0)
(3.84354e-05 1.70248e-05 0)
(4.76172e-05 1.56023e-05 0)
(5.68671e-05 1.39592e-05 0)
(6.61099e-05 1.21841e-05 0)
(7.52767e-05 1.03356e-05 0)
(8.43058e-05 8.45119e-06 0)
(9.31445e-05 6.55483e-06 0)
(0.000101749 4.6625e-06 0)
(0.000110084 2.78591e-06 0)
(0.000118123 9.34526e-07 0)
(0.000125804 -9.91599e-07 0)
(0.000133112 -2.96781e-06 0)
(0.000140088 -4.86923e-06 0)
(0.000146732 -6.69185e-06 0)
(4.77911e-06 1.98631e-05 0)
(1.44805e-05 2.04104e-05 0)
(2.44499e-05 2.01987e-05 0)
(3.46283e-05 1.9351e-05 0)
(4.49295e-05 1.80394e-05 0)
(5.52636e-05 1.64243e-05 0)
(6.55459e-05 1.46317e-05 0)
(7.57012e-05 1.27502e-05 0)
(8.56643e-05 1.0838e-05 0)
(9.53813e-05 8.93083e-06 0)
(0.000104809 7.05015e-06 0)
(0.000113913 5.20858e-06 0)
(0.00012267 3.41391e-06 0)
(0.000131064 1.6715e-06 0)
(0.000139071 -3.66573e-08 0)
(0.000146668 -1.83e-06 0)
(0.000153868 -3.55648e-06 0)
(0.000160695 -5.19577e-06 0)
(5.76418e-06 2.10686e-05 0)
(1.73681e-05 2.13204e-05 0)
(2.91021e-05 2.08339e-05 0)
(4.09015e-05 1.97547e-05 0)
(5.26739e-05 1.82617e-05 0)
(6.43253e-05 1.65154e-05 0)
(7.57719e-05 1.46391e-05 0)
(8.69433e-05 1.27178e-05 0)
(9.77839e-05 1.08054e-05 0)
(0.000108251 8.93377e-06 0)
(0.000118315 7.11981e-06 0)
(0.000127955 5.37196e-06 0)
(0.00013716 3.69384e-06 0)
(0.000145926 2.08676e-06 0)
(0.000154254 5.51081e-07 0)
(0.000162121 -1.01922e-06 0)
(0.000169533 -2.5635e-06 0)
(0.000176531 -4.01764e-06 0)
(6.96412e-06 2.12592e-05 0)
(2.08825e-05 2.12692e-05 0)
(3.47494e-05 2.05698e-05 0)
(4.84836e-05 1.93278e-05 0)
(6.19858e-05 1.77272e-05 0)
(7.51626e-05 1.59259e-05 0)
(8.79376e-05 1.40414e-05 0)
(0.000100253 1.21522e-05 0)
(0.00011207 1.03059e-05 0)
(0.000123364 8.52831e-06 0)
(0.000134121 6.8315e-06 0)
(0.000144339 5.21936e-06 0)
(0.000154023 3.69155e-06 0)
(0.000163182 2.24583e-06 0)
(0.000171832 8.79323e-07 0)
(0.000179965 -4.59433e-07 0)
(0.000187599 -1.81368e-06 0)
(0.000194774 -3.07939e-06 0)
(8.44653e-06 2.04123e-05 0)
(2.52202e-05 2.02401e-05 0)
(4.17032e-05 1.94045e-05 0)
(5.77856e-05 1.80854e-05 0)
(7.33595e-05 1.64663e-05 0)
(8.83379e-05 1.4698e-05 0)
(0.000102661 1.28889e-05 0)
(0.000116293 1.11084e-05 0)
(0.00012922 9.39608e-06 0)
(0.000141443 7.77147e-06 0)
(0.000152974 6.24143e-06 0)
(0.000163832 4.80578e-06 0)
(0.000174041 3.46088e-06 0)
(0.000183629 2.20175e-06 0)
(0.000192625 1.02321e-06 0)
(0.000201048 -9.22132e-08 0)
(0.00020892 -1.24549e-06 0)
(0.00021628 -2.31907e-06 0)
(1.03303e-05 1.84941e-05 0)
(3.07269e-05 1.82046e-05 0)
(5.05118e-05 1.73214e-05 0)
(6.9531e-05 1.60254e-05 0)
(8.76666e-05 1.44905e-05 0)
(0.000104846 1.28545e-05 0)
(0.000121037 1.12121e-05 0)
(0.000136241 9.62156e-06 0)
(0.000150481 8.11391e-06 0)
(0.000163794 6.70217e-06 0)
(0.000176224 5.38869e-06 0)
(0.00018782 4.17007e-06 0)
(0.000198631 3.04037e-06 0)
(0.000208708 1.9929e-06 0)
(0.000218098 1.02117e-06 0)
(0.000226848 1.19363e-07 0)
(0.000234981 -8.13942e-07 0)
(0.000242534 -1.69089e-06 0)
(1.28563e-05 1.54163e-05 0)
(3.81042e-05 1.50811e-05 0)
(6.22898e-05 1.42529e-05 0)
(8.51932e-05 1.30973e-05 0)
(0.000106686 1.17661e-05 0)
(0.000126721 1.03755e-05 0)
(0.000145314 9.00248e-06 0)
(0.000162521 7.69194e-06 0)
(0.000178421 6.46582e-06 0)
(0.000193102 5.33143e-06 0)
(0.000206655 4.2877e-06 0)
(0.00021917 3.32936e-06 0)
(0.00023073 2.44947e-06 0)
(0.000241412 1.64088e-06 0)
(0.00025129 8.96909e-07 0)
(0.000260429 2.11596e-07 0)
(0.000268872 -4.87152e-07 0)
(0.00027667 -1.16104e-06 0)
(1.66428e-05 1.09309e-05 0)
(4.91549e-05 1.06356e-05 0)
(7.99072e-05 9.99045e-06 0)
(0.000108575 9.12272e-06 0)
(0.000135017 8.14539e-06 0)
(0.000159236 7.14183e-06 0)
(0.000181327 6.16537e-06 0)
(0.000201436 5.24544e-06 0)
(0.000219732 4.39499e-06 0)
(0.000236386 3.61683e-06 0)
(0.000251559 2.90822e-06 0)
(0.0002654 2.26382e-06 0)
(0.000278044 1.67747e-06 0)
(0.00028961 1.14312e-06 0)
(0.000300205 6.55262e-07 0)
(0.000309925 2.09033e-07 0)
(0.000318839 -2.4528e-07 0)
(0.000327026 -7.07824e-07 0)
(2.45329e-05 4.15409e-06 0)
(7.21931e-05 4.02849e-06 0)
(0.000116663 3.76995e-06 0)
(0.000157401 3.42931e-06 0)
(0.000194252 3.05071e-06 0)
(0.000227327 2.66609e-06 0)
(0.000256895 2.29533e-06 0)
(0.000283298 1.94899e-06 0)
(0.000306888 1.63132e-06 0)
(0.000328002 1.34279e-06 0)
(0.000346946 1.08186e-06 0)
(0.000363989 8.46134e-07 0)
(0.000379363 6.32955e-07 0)
(0.00039327 4.39801e-07 0)
(0.000405884 2.644e-07 0)
(0.000417355 1.04757e-07 0)
(0.000427778 -5.92333e-08 0)
(0.000437184 -2.36316e-07 0)
(0.000729346 -0.000197812 -2.54805e-30)
(0.00221563 -0.000203484 2.60381e-30)
(0.00377931 -0.000214611 0)
(0.00548737 -0.000233726 0)
(0.00741423 -0.000260332 0)
(0.00973297 -0.000297792 -3.73398e-30)
(0.0125867 -0.000340162 0)
(0.0158112 -0.000379198 0)
(0.019113 -0.000415044 0)
(0.0223019 -0.000459505 0)
(0.025245 -0.000528242 6.52935e-30)
(0.0277723 -0.000681439 0)
(0.0298403 -0.00130013 0)
(0.0314874 -0.00135418 0)
(0.0314247 0.00148284 0)
(0.0292925 0.00255913 -3.34217e-29)
(0.0273347 0.00112852 0)
(0.0265061 0.000419663 0)
(0.0262523 5.13412e-05 0)
(0.0263142 -0.000164279 0)
(0.0265713 -0.000303225 0)
(0.0267158 4.12931e-05 0)
(0.0263905 0.000539316 0)
(0.0258053 0.000499869 -6.76527e-30)
(0.0253167 0.000361139 4.96646e-30)
(0.0249594 0.00026318 -3.69615e-30)
(0.0246618 0.000252186 -3.55055e-30)
(0.0243232 0.000329248 0)
(0.023907 0.000379719 0)
(0.0234446 0.000401472 5.46566e-30)
(0.022954 0.00042047 5.70541e-30)
(0.0224352 0.000441587 0)
(0.0218913 0.000454791 0)
(0.0213319 0.000459471 6.19034e-30)
(0.0207671 0.000456122 0)
(0.0202061 0.000445692 0)
(0.0196569 0.000429868 -5.78796e-30)
(0.0191255 0.000410437 0)
(0.0186157 0.000388981 -5.24721e-30)
(0.0181297 0.000366741 -9.90805e-30)
(0.0176684 0.000344589 0)
(0.0172318 0.000323082 0)
(0.0168193 0.000302541 0)
(0.0164299 0.000283117 0)
(0.0160625 0.000264863 0)
(0.015716 0.000247767 -6.77567e-30)
(0.015389 0.00023179 -6.35496e-30)
(0.0150806 0.000216877 -5.96217e-30)
(0.0147895 0.000202964 0)
(0.0145148 0.00018999 5.2538e-30)
(0.0142554 0.000177891 0)
(0.0140105 0.000166607 -4.63748e-30)
(0.0137792 0.000156081 -4.35992e-30)
(0.0135606 0.000146258 0)
(0.013354 0.000137085 0)
(0.0131587 0.000128516 0)
(0.0129741 0.000120506 -3.42132e-30)
(0.0127995 0.000113016 0)
(0.0126343 0.000106006 0)
(0.0124781 9.94444e-05 0)
(0.0123302 9.32986e-05 0)
(0.0121904 8.75401e-05 0)
(0.012058 8.21425e-05 0)
(0.0119328 7.70814e-05 0)
(0.0118143 7.23343e-05 0)
(0.0117021 6.78804e-05 2.03094e-30)
(0.0115959 6.37004e-05 0)
(0.0114954 5.97765e-05 0)
(0.0114003 5.60921e-05 -1.7191e-30)
(0.0113104 5.26317e-05 -1.62753e-30)
(0.0112252 4.93812e-05 0)
(0.0111446 4.63271e-05 1.46064e-30)
(0.0110684 4.34572e-05 -1.38466e-30)
(0.0109963 4.07598e-05 0)
(0.0109281 3.82245e-05 1.24608e-30)
(0.0108635 3.5841e-05 0)
(0.0108025 3.36003e-05 0)
(0.0107449 3.14935e-05 -1.06776e-30)
(0.0106903 2.95127e-05 0)
(0.0106388 2.76502e-05 9.65914e-31)
(0.0105901 2.58991e-05 0)
(0.0105441 2.42526e-05 -8.75857e-31)
(0.0105007 2.27048e-05 -8.34818e-31)
(0.0104597 2.12497e-05 -7.96237e-31)
(0.010421 1.98819e-05 -1.51993e-30)
(0.0103845 1.85965e-05 1.45176e-30)
(0.01035 1.73885e-05 0)
(0.0103175 1.62535e-05 0)
(0.0102869 1.51874e-05 0)
(0.0102581 1.41861e-05 1.21777e-30)
(0.0102309 1.32459e-05 1.16788e-30)
(0.0102053 1.23633e-05 -1.12104e-30)
(0.0101812 1.1535e-05 0)
(0.0101585 1.07578e-05 1.03583e-30)
(0.0101372 1.00289e-05 9.97147e-31)
(0.0101171 9.34539e-06 9.60864e-31)
(0.0100983 8.7047e-06 0)
(0.0100806 8.10434e-06 0)
(0.010064 7.54199e-06 0)
(0.0100484 7.01541e-06 8.3716e-31)
(0.0100337 6.52254e-06 0)
(0.01002 6.06139e-06 0)
(0.0100072 5.6301e-06 -7.6359e-31)
(0.00999512 5.2269e-06 0)
(0.00998384 4.85013e-06 0)
(0.00997328 4.49822e-06 -7.03476e-31)
(0.00996341 4.16967e-06 0)
(0.00995418 3.86307e-06 0)
(0.00994555 3.57711e-06 6.54546e-31)
(0.0099375 3.31051e-06 6.40383e-31)
(0.00992998 3.06209e-06 0)
(0.00992296 2.83074e-06 -6.14896e-31)
(0.00991642 2.61538e-06 0)
(0.00991032 2.41503e-06 5.92805e-31)
(0.00990465 2.22873e-06 0)
(0.00989936 2.0556e-06 5.73708e-31)
(0.00989445 1.89479e-06 5.65157e-31)
(0.00988988 1.74552e-06 0)
(0.00988563 1.60703e-06 0)
(0.00988169 1.47862e-06 0)
(0.00987803 1.35963e-06 0)
(0.00987463 1.24944e-06 0)
(0.00987149 1.14745e-06 0)
(0.00986857 1.05312e-06 0)
(0.00986587 9.65931e-07 5.15792e-31)
(0.00986338 8.85387e-07 -5.11505e-31)
(0.00986107 8.11034e-07 0)
(0.00985893 7.42443e-07 0)
(0.00985697 6.79212e-07 0)
(0.00985515 6.20964e-07 0)
(0.00985347 5.67345e-07 -9.89192e-31)
(0.00985193 5.18026e-07 0)
(0.0098505 4.72699e-07 9.79128e-31)
(0.00984919 4.31077e-07 -9.74701e-31)
(0.00984799 3.92892e-07 0)
(0.00984688 3.57897e-07 0)
(0.00984586 3.25861e-07 0)
(0.00984493 2.96571e-07 9.60395e-31)
(0.00984407 2.69833e-07 9.57548e-31)
(0.00984328 2.45466e-07 0)
(0.00984255 2.23309e-07 9.52592e-31)
(0.00984189 2.03215e-07 9.50447e-31)
(0.00984128 1.85055e-07 -9.48517e-31)
(0.00984072 1.68716e-07 0)
(0.0098402 1.54103e-07 0)
(0.00983972 1.41141e-07 -9.43829e-31)
(0.00983928 1.29776e-07 0)
(0.00983887 1.19976e-07 0)
(0.00983848 1.11737e-07 0)
(0.00983812 1.05087e-07 0)
(0.00983777 1.00089e-07 9.39399e-31)
(0.00983743 9.68525e-08 9.39033e-31)
(0.0098371 9.55402e-08 0)
(0.00983677 9.63828e-08 9.38922e-31)
(0.00983642 9.96943e-08 0)
(0.00983606 1.05894e-07 0)
(0.00983566 1.15536e-07 9.40798e-31)
(0.00983522 1.29342e-07 0)
(0.00983471 1.48252e-07 9.44093e-31)
(0.00983412 1.73488e-07 0)
(0.00983341 2.06637e-07 0)
(0.00983255 2.49762e-07 9.54382e-31)
(0.0098315 3.05551e-07 0)
(0.00983019 3.7753e-07 9.67369e-31)
(0.00982855 4.70337e-07 0)
(0.00982648 5.90129e-07 0)
(0.00982385 7.45148e-07 0)
(0.00982048 9.46554e-07 -1.02529e-30)
(0.00981615 1.20968e-06 0)
(0.00981054 1.55599e-06 1.08737e-30)
(0.00980323 2.01617e-06 0)
(0.00979361 2.63544e-06 0)
(0.00978084 3.4829e-06 0)
(0.00976366 4.66926e-06 0)
(0.00974013 6.38346e-06 0)
(0.00970712 8.97625e-06 0)
(0.00965903 1.31803e-05 0)
(0.00958452 2.08131e-05 -6.11431e-30)
(0.00945497 3.77013e-05 0)
(0.00916789 9.06572e-05 0)
(2.84339e-05 -0.000345201 4.4606e-30)
(8.4912e-05 -0.000352353 -4.55103e-30)
(0.000139571 -0.000367168 0)
(0.00019006 -0.000392582 1.0139e-29)
(0.000231944 -0.000427429 0)
(0.000257671 -0.000471071 -6.0854e-30)
(0.000263588 -0.000514394 -1.32843e-29)
(0.000258333 -0.000547969 -1.41524e-29)
(0.000260673 -0.000573356 0)
(0.000298401 -0.000604413 -1.56096e-29)
(0.000432823 -0.00066177 8.54807e-30)
(0.000910719 -0.000811656 0)
(0.00311363 -0.00144862 0)
(0.00806094 -0.00153807 0)
(0.0152007 0.00128259 0)
(0.0207125 0.00231249 -3.01327e-29)
(0.0229729 0.000820143 0)
(0.0241741 3.91488e-05 -2.15344e-30)
(0.0248962 -0.000430897 0)
(0.0254733 -0.000852018 0)
(0.026853 -0.00258864 -6.56466e-29)
(0.0282125 -0.000396013 0)
(0.0272152 0.00333115 -8.73932e-29)
(0.0254929 0.00180981 -2.36922e-29)
(0.0249016 0.000956039 1.26505e-29)
(0.0247691 0.000525376 -7.08271e-30)
(0.0247752 0.00049481 -6.68773e-30)
(0.0245423 0.00106651 0)
(0.0240306 0.00122259 0)
(0.023514 0.00121265 1.59507e-29)
(0.0230218 0.00125584 5.00528e-29)
(0.0224931 0.00134673 0)
(0.0219217 0.00138753 0)
(0.0213351 0.00139974 1.83431e-29)
(0.0207458 0.00138673 0)
(0.020165 0.0013507 0)
(0.0196018 0.00129842 -1.70131e-29)
(0.0190618 0.001236 0)
(0.0185481 0.00116851 -4.64026e-29)
(0.0180616 0.00109966 -2.8852e-29)
(0.017602 0.0010319 0)
(0.0171684 0.000966689 0)
(0.0167595 0.000904771 4.83582e-29)
(0.016374 0.000846452 4.53068e-29)
(0.0160105 0.000791774 4.24457e-29)
(0.0156677 0.00074064 -5.92847e-29)
(0.0153443 0.000692888 -1.8273e-29)
(0.0150392 0.000648332 1.78241e-29)
(0.0147512 0.000606776 -3.27626e-29)
(0.0144794 0.000568027 1.5025e-29)
(0.0142227 0.000531895 0)
(0.0139803 0.000498198 -1.32082e-29)
(0.0137512 0.000466762 -3.78198e-29)
(0.0135347 0.000437421 0)
(0.01333 0.000410023 0)
(0.0131365 0.000384425 0)
(0.0129535 0.000360494 -9.62437e-30)
(0.0127803 0.000338111 0)
(0.0126166 0.000317163 -1.75884e-29)
(0.0124616 0.00029755 0)
(0.012315 0.000279179 -1.55962e-29)
(0.0121762 0.000261963 0)
(0.0120448 0.000245825 1.38463e-29)
(0.0119205 0.000230691 0)
(0.0118028 0.000216495 -1.23072e-29)
(0.0116915 0.000203175 1.71359e-29)
(0.011586 0.000190673 0)
(0.0114862 0.000178935 1.03354e-29)
(0.0113918 0.000167913 -4.60941e-30)
(0.0113024 0.000157561 -4.3397e-30)
(0.0112178 0.000147836 0)
(0.0111377 0.000138698 1.20705e-29)
(0.0110619 0.00013011 -3.62444e-30)
(0.0109903 0.000122039 0)
(0.0109225 0.000114451 3.21637e-30)
(0.0108583 0.000107318 6.57363e-30)
(0.0107977 0.000100612 0)
(0.0107403 9.43057e-05 -2.69131e-30)
(0.0106861 8.83765e-05 0)
(0.0106349 8.28013e-05 -2.8936e-30)
(0.0105864 7.75591e-05 0)
(0.0105407 7.26302e-05 2.62402e-30)
(0.0104975 6.79962e-05 -2.0055e-30)
(0.0104567 6.36397e-05 -6.16952e-30)
(0.0104182 5.95447e-05 -1.16948e-29)
(0.0103819 5.56958e-05 1.10893e-29)
(0.0103476 5.20789e-05 0)
(0.0103153 4.86804e-05 0)
(0.0102848 4.5488e-05 0)
(0.0102561 4.24896e-05 -3.64949e-30)
(0.0102291 3.96741e-05 2.5341e-30)
(0.0102036 3.7031e-05 -2.39626e-30)
(0.0101796 3.45504e-05 0)
(0.0101571 3.2223e-05 7.39567e-30)
(0.0101358 3.004e-05 2.03163e-30)
(0.0101159 2.79929e-05 1.92486e-30)
(0.0100971 2.60741e-05 0)
(0.0100795 2.4276e-05 0)
(0.010063 2.25917e-05 0)
(0.0100474 2.10146e-05 1.56086e-30)
(0.0100329 1.95384e-05 0)
(0.0100192 1.81571e-05 3.76977e-30)
(0.0100064 1.68653e-05 2.28938e-30)
(0.00999443 1.56576e-05 -3.50665e-30)
(0.0099832 1.45291e-05 0)
(0.00997269 1.3475e-05 -4.4444e-30)
(0.00996286 1.24909e-05 0)
(0.00995367 1.15725e-05 -3.07656e-30)
(0.00994508 1.07159e-05 4.00995e-30)
(0.00993706 9.9173e-06 3.88421e-30)
(0.00992958 9.17318e-06 0)
(0.00992259 8.48015e-06 1.844e-30)
(0.00991608 7.83505e-06 -2.68301e-30)
(0.00991001 7.23487e-06 8.4197e-31)
(0.00990436 6.6768e-06 0)
(0.0098991 6.15817e-06 7.85793e-31)
(0.0098942 5.67645e-06 -1.69504e-30)
(0.00988965 5.22927e-06 0)
(0.00988542 4.81441e-06 -2.36489e-30)
(0.0098815 4.42974e-06 -2.32438e-30)
(0.00987785 4.07329e-06 -2.28684e-30)
(0.00987447 3.74318e-06 0)
(0.00987134 3.43766e-06 0)
(0.00986844 3.15507e-06 0)
(0.00986575 2.89386e-06 2.77806e-30)
(0.00986326 2.65256e-06 -6.02861e-31)
(0.00986096 2.42982e-06 0)
(0.00985884 2.22433e-06 2.09207e-30)
(0.00985688 2.0349e-06 2.07211e-30)
(0.00985507 1.86039e-06 0)
(0.0098534 1.69976e-06 -1.10627e-30)
(0.00985186 1.552e-06 4.04247e-30)
(0.00985044 1.41621e-06 1.07668e-30)
(0.00984914 1.29151e-06 -5.05123e-30)
(0.00984794 1.17711e-06 0)
(0.00984684 1.07227e-06 0)
(0.00984582 9.76287e-07 0)
(0.00984489 8.88533e-07 1.0216e-30)
(0.00984403 8.08421e-07 4.89897e-30)
(0.00984325 7.35415e-07 3.87035e-30)
(0.00984253 6.69027e-07 9.98675e-31)
(0.00984187 6.08818e-07 4.83603e-30)
(0.00984126 5.54402e-07 -9.86705e-31)
(0.0098407 5.05439e-07 0)
(0.00984018 4.61646e-07 0)
(0.00983971 4.22797e-07 -4.77732e-30)
(0.00983927 3.88727e-07 0)
(0.00983886 3.59342e-07 0)
(0.00983847 3.3463e-07 3.78566e-30)
(0.00983811 3.1467e-07 0)
(0.00983777 2.99653e-07 4.73819e-30)
(0.00983743 2.89902e-07 9.58994e-31)
(0.0098371 2.85904e-07 0)
(0.00983677 2.88346e-07 4.73422e-30)
(0.00983643 2.98165e-07 0)
(0.00983607 3.16613e-07 0)
(0.00983567 3.45339e-07 9.6456e-31)
(0.00983524 3.86501e-07 3.79517e-30)
(0.00983473 4.42905e-07 9.74562e-31)
(0.00983415 5.18195e-07 0)
(0.00983345 6.17105e-07 0)
(0.00983261 7.45789e-07 4.87415e-30)
(0.00983157 9.1227e-07 0)
(0.00983028 1.12705e-06 4.99132e-30)
(0.00982866 1.40397e-06 0)
(0.00982662 1.76137e-06 0)
(0.00982403 2.22379e-06 0)
(0.00982072 2.82444e-06 -1.21948e-30)
(0.00981646 3.60893e-06 0)
(0.00981094 4.64092e-06 1.40638e-30)
(0.00980376 6.01142e-06 0)
(0.00979432 7.85409e-06 0)
(0.00978182 1.03725e-05 5.84005e-30)
(0.00976503 1.38913e-05 -6.56137e-30)
(0.00974216 1.896e-05 0)
(0.00971028 2.65858e-05 0)
(0.00966447 3.88242e-05 0)
(0.00959567 6.05397e-05 1.79564e-29)
(0.00948635 0.00010584 0)
(0.00931389 0.000227877 -1.01284e-28)
(1.27562e-05 -0.000282165 1.4586e-29)
(3.79817e-05 -0.000285216 -9.12071e-34)
(6.21835e-05 -0.000291645 0)
(8.45821e-05 -0.000301886 2.01318e-33)
(0.000104256 -0.000315252 0)
(0.000118832 -0.000326624 0)
(0.000125956 -0.000331901 -1.7144e-29)
(0.000126194 -0.000329218 -8.50411e-30)
(0.000122557 -0.000319812 8.25824e-30)
(0.000117676 -0.000306167 -7.90867e-30)
(0.000112499 -0.000293852 0)
(0.000104431 -0.000289818 0)
(8.35505e-05 -0.000305516 -7.89145e-30)
(3.51417e-05 -0.000331016 -1.71081e-29)
(-4.25027e-05 -0.000321304 1.6617e-29)
(-4.66818e-05 -0.000322662 0)
(3.4908e-05 -0.000364172 1.88222e-29)
(0.000140894 -0.000430164 1.11128e-29)
(0.00035003 -0.000538505 0)
(0.00101112 -0.000769866 3.96577e-29)
(0.00529247 -0.00243786 -6.27671e-29)
(0.0128884 -0.000660427 -3.23174e-29)
(0.0184515 0.00252029 -6.6019e-29)
(0.0211271 0.000959627 0)
(0.0226777 0.000128723 -9.86723e-30)
(0.0239292 -0.000594923 2.7367e-29)
(0.0255249 -0.00115751 0)
(0.0255733 0.00302039 -1.59772e-28)
(0.0241604 0.00254738 0)
(0.0235025 0.00187446 -1.00236e-28)
(0.0231799 0.00195887 5.173e-29)
(0.0226568 0.00238998 0)
(0.0219818 0.0023981 0)
(0.0213338 0.00240704 0)
(0.0206908 0.00237703 0)
(0.0200674 0.0022967 0)
(0.0194772 0.00219165 0)
(0.0189231 0.00207312 -1.09858e-28)
(0.0184048 0.00195026 5.21509e-29)
(0.01792 0.00182889 0)
(0.017466 0.00171219 0)
(0.0170399 0.00160168 0)
(0.0166393 0.00149789 1.58806e-28)
(0.0162622 0.00140078 7.39545e-29)
(0.0159067 0.0013101 -7.50955e-31)
(0.0155716 0.00122547 7.35132e-31)
(0.0152554 0.00114652 6.14346e-29)
(0.014957 0.0010729 5.68801e-29)
(0.0146752 0.00100426 -1.07302e-28)
(0.0144091 0.000940259 -5.06512e-29)
(0.0141577 0.000880589 0)
(0.0139202 0.00082494 -4.46201e-29)
(0.0136956 0.000773019 -8.31615e-29)
(0.0134832 0.000724553 0)
(0.0132823 0.000679286 0)
(0.0130923 0.000636982 3.47857e-29)
(0.0129125 0.000597424 0)
(0.0127423 0.000560413 0)
(0.0125813 0.000525767 -8.62968e-29)
(0.0124288 0.00049332 -5.45291e-29)
(0.0122845 0.00046292 -2.50925e-29)
(0.0121479 0.000434426 0)
(0.0120185 0.000407709 2.2213e-29)
(0.0118961 0.00038265 0)
(0.0117801 0.00035914 -6.0151e-29)
(0.0116703 0.000337076 1.85285e-29)
(0.0115663 0.000316363 3.5988e-29)
(0.0114679 0.000296915 5.03823e-29)
(0.0113747 0.00027865 0)
(0.0112865 0.000261492 -3.02352e-29)
(0.011203 0.000245371 0)
(0.0111239 0.000230222 -1.40031e-29)
(0.0110491 0.000215982 -2.54623e-29)
(0.0109783 0.000202597 -2.40583e-29)
(0.0109113 0.000190014 2.27382e-29)
(0.0108479 0.000178182 -1.12606e-29)
(0.010788 0.000167057 0)
(0.0107313 0.000156595 0)
(0.0106777 0.000146757 1.81994e-29)
(0.010627 0.000137506 9.11599e-30)
(0.0105791 0.000128806 0)
(0.0105339 0.000120626 7.23099e-30)