/*--------------------------------*- C++ -*----------------------------------*\
  =========                 |
  \\      /  F ield         | OpenFOAM: The Open Source CFD Toolbox
   \\    /   O peration     | Website:  https://openfoam.org
    \\  /    A nd           | Version:  10
     \\/     M anipulation  |
\*---------------------------------------------------------------------------*/
FoamFile
{
    format      ascii;
    class       volVectorField;
    location    "1.2";
    object      Ua;
}
// * * * * * * * * * * * * * * * * * * * * * * * * * * * * * * * * * * * * * //

dimensions      [0 1 -1 0 0 0 0];

internalField   nonuniform List<vector> 
12225
(
(-1.56069e-06 3.1438e-07 0)
(-5.40397e-06 4.7893e-07 0)
(-1.14886e-05 8.30946e-07 0)
(-2.15759e-05 1.4308e-06 0)
(-3.78847e-05 2.3768e-06 0)
(-6.33281e-05 3.8085e-06 0)
(-0.000101717 5.90931e-06 0)
(-0.000157921 8.90574e-06 0)
(-0.000237945 1.30605e-05 0)
(-0.00034891 1.86581e-05 0)
(-0.0004989 2.59883e-05 0)
(-0.000696768 3.53466e-05 0)
(-0.000952197 4.71089e-05 0)
(-0.00127681 6.20287e-05 0)
(-0.00168865 8.22038e-05 0)
(-0.00222756 0.000114485 0)
(-0.00301706 0.000186112 0)
(-0.00460859 0.000447326 0)
(-1.52566e-06 9.5814e-07 0)
(-5.29086e-06 1.46149e-06 0)
(-1.1272e-05 2.53831e-06 0)
(-2.12097e-05 4.37336e-06 0)
(-3.72982e-05 7.26765e-06 0)
(-6.24208e-05 1.16486e-05 0)
(-0.000100354 1.80786e-05 0)
(-0.000155929 2.72524e-05 0)
(-0.000235117 3.99768e-05 0)
(-0.000345006 5.71261e-05 0)
(-0.000493651 7.9589e-05 0)
(-0.000689851 0.000108264 0)
(-0.000943094 0.000144264 0)
(-0.00126433 0.000189762 0)
(-0.00166919 0.000250652 0)
(-0.00218728 0.000345325 0)
(-0.00288216 0.000539078 0)
(-0.00379778 0.00111621 0)
(-1.44834e-06 1.62265e-06 0)
(-5.04126e-06 2.482e-06 0)
(-1.07939e-05 4.32051e-06 0)
(-2.04014e-05 7.45397e-06 0)
(-3.60035e-05 1.23973e-05 0)
(-6.04172e-05 1.98824e-05 0)
(-9.73425e-05 3.08738e-05 0)
(-0.000151527 4.65654e-05 0)
(-0.000228863 6.8346e-05 0)
(-0.000336369 9.77231e-05 0)
(-0.00048204 0.000136224 0)
(-0.000674562 0.000185364 0)
(-0.00092305 0.000246923 0)
(-0.00123717 0.000324155 0)
(-0.0016282 0.000425479 0)
(-0.00211071 0.00057522 0)
(-0.00269236 0.000846086 0)
(-0.00325753 0.00145333 0)
(-1.32103e-06 2.28539e-06 0)
(-4.63022e-06 3.51246e-06 0)
(-1.00064e-05 6.13792e-06 0)
(-1.90699e-05 1.06134e-05 0)
(-3.38698e-05 1.76765e-05 0)
(-5.71134e-05 2.83778e-05 0)
(-9.23726e-05 4.41048e-05 0)
(-0.000144257 6.65803e-05 0)
(-0.000218523 9.78153e-05 0)
(-0.000322079 0.000139999 0)
(-0.000462825 0.00019534 0)
(-0.000649302 0.000265968 0)
(-0.000890144 0.000354176 0)
(-0.00119337 0.000463692 0)
(-0.00156521 0.000603459 0)
(-0.00200584 0.000797078 0)
(-0.00248849 0.00110324 0)
(-0.00287625 0.00163934 0)
(-1.13583e-06 2.9149e-06 0)
(-4.03225e-06 4.51347e-06 0)
(-8.86067e-06 7.93423e-06 0)
(-1.71317e-05 1.3767e-05 0)
(-3.07622e-05 2.2977e-05 0)
(-5.22975e-05 3.69431e-05 0)
(-8.51199e-05 5.74928e-05 0)
(-0.000133632 8.69059e-05 0)
(-0.00020339 0.000127857 0)
(-0.000301134 0.000183272 0)
(-0.000434647 0.000256094 0)
(-0.000612332 0.000349063 0)
(-0.000842376 0.000464783 0)
(-0.00113123 0.000606693 0)
(-0.00148065 0.000782067 0)
(-0.00188047 0.00100837 0)
(-0.00228922 0.00132158 0)
(-0.002593 0.00176573 0)
(-8.85205e-07 3.46897e-06 0)
(-3.22298e-06 5.43193e-06 0)
(-7.30968e-06 9.63307e-06 0)
(-1.45068e-05 1.6799e-05 0)
(-2.65498e-05 2.8122e-05 0)
(-4.57613e-05 4.53128e-05 0)
(-7.52604e-05 7.06495e-05 0)
(-0.00011916 0.000106992 0)
(-0.000182731 0.000157722 0)
(-0.000272479 0.000226565 0)
(-0.000396049 0.000317274 0)
(-0.000561776 0.000433226 0)
(-0.000777628 0.000577153 0)
(-0.00104908 0.000751479 0)
(-0.00137505 0.000959954 0)
(-0.00174011 0.00121069 0)
(-0.00210099 0.00151685 0)
(-0.0023732 0.00187891 0)
(-5.62744e-07 3.89296e-06 0)
(-2.1816e-06 6.19882e-06 0)
(-5.31325e-06 1.11348e-05 0)
(-1.11259e-05 1.95575e-05 0)
(-2.11181e-05 3.28784e-05 0)
(-3.73188e-05 5.31339e-05 0)
(-6.24969e-05 8.30536e-05 0)
(-0.000100374 0.000126093 0)
(-0.000155828 0.000186381 0)
(-0.000235044 0.000268523 0)
(-0.000345504 0.000377194 0)
(-0.000495604 0.000516509 0)
(-0.000693536 0.000689279 0)
(-0.000944854 0.000896443 0)
(-0.00124797 0.00113707 0)
(-0.001587 0.00140871 0)
(-0.00192346 0.00170522 0)
(-0.00219605 0.00200425 0)
(-1.64193e-07 4.11851e-06 0)
(-8.94325e-07 6.72759e-06 0)
(-2.84455e-06 1.23138e-05 0)
(-6.94199e-06 2.18504e-05 0)
(-1.43864e-05 3.6949e-05 0)
(-2.6833e-05 5.99528e-05 0)
(-4.65976e-05 9.40292e-05 0)
(-7.68858e-05 0.00014323 0)
(-0.000122045 0.000212469 0)
(-0.000187814 0.000307322 0)
(-0.000281465 0.000433557 0)
(-0.000411618 0.000596263 0)
(-0.000587297 0.000798552 0)
(-0.000815568 0.00103991 0)
(-0.00109708 0.00131445 0)
(-0.00141956 0.0016093 0)
(-0.00175204 0.00190244 0)
(-0.00204792 0.00215892 0)
(3.111e-07 4.06313e-06 0)
(6.41054e-07 6.91361e-06 0)
(1.01003e-07 1.30179e-05 0)
(-1.94546e-06 2.34433e-05 0)
(-6.33306e-06 3.99688e-05 0)
(-1.42533e-05 6.52073e-05 0)
(-2.74514e-05 0.000102728 0)
(-4.84656e-05 0.000157159 0)
(-8.09311e-05 0.000234215 0)
(-0.000129951 0.000340549 0)
(-0.000202471 0.000483259 0)
(-0.000307453 0.000668847 0)
(-0.000455421 0.000901367 0)
(-0.000656622 0.00117962 0)
(-0.000916973 0.00149355 0)
(-0.00123162 0.00182069 0)
(-0.00157851 0.00212475 0)
(-0.0019186 0.00235956 0)
(8.58402e-07 3.63135e-06 0)
(2.40931e-06 6.63558e-06 0)
(3.49435e-06 1.30705e-05 0)
(3.81588e-06 2.40631e-05 0)
(2.97251e-06 4.15078e-05 0)
(3.3266e-07 6.82268e-05 0)
(-5.14602e-06 0.000108125 0)
(-1.51534e-05 0.000166347 0)
(-3.23728e-05 0.000249392 0)
(-6.09857e-05 0.000365078 0)
(-0.000107341 0.000522143 0)
(-0.000180676 0.000729171 0)
(-0.000293523 0.000992371 0)
(-0.000460995 0.00131168 0)
(-0.000697653 0.00167502 0)
(-0.00101064 0.00205196 0)
(-0.00138958 0.00239096 0)
(-0.00179866 0.00262836 0)
(1.46546e-06 2.71829e-06 0)
(4.37091e-06 5.76016e-06 0)
(7.25923e-06 1.22774e-05 0)
(1.02127e-05 2.3408e-05 0)
(1.33286e-05 4.10856e-05 0)
(1.66335e-05 6.82507e-05 0)
(1.99288e-05 0.000109035 0)
(2.25821e-05 0.000168981 0)
(2.31699e-05 0.000255289 0)
(1.88622e-05 0.000376965 0)
(4.43776e-06 0.000544694 0)
(-2.91269e-05 0.000770024 0)
(-9.63423e-05 0.00106318 0)
(-0.000218449 0.00142846 0)
(-0.000422391 0.00185621 0)
(-0.000734146 0.00231163 0)
(-0.00116267 0.00272548 0)
(-0.00167632 0.00300132 0)
(2.0568e-06 1.38191e-06 0)
(6.28212e-06 4.33665e-06 0)
(1.09265e-05 1.067e-05 0)
(1.64442e-05 2.14759e-05 0)
(2.34409e-05 3.86332e-05 0)
(3.26306e-05 6.50859e-05 0)
(4.47146e-05 0.000105038 0)
(6.02354e-05 0.000164233 0)
(7.92681e-05 0.000250341 0)
(0.000100779 0.000373363 0)
(0.000121426 0.000545924 0)
(0.000133514 0.000783053 0)
(0.000121847 0.00110068 0)
(5.97007e-05 0.00151128 0)
(-9.43286e-05 0.00201422 0)
(-0.000393185 0.00257838 0)
(-0.00088089 0.00311876 0)
(-0.00154328 0.00348603 0)
(2.64839e-06 -5.34998e-07 0)
(8.19496e-06 2.18272e-06 0)
(1.4594e-05 8.01644e-06 0)
(2.26688e-05 1.79437e-05 0)
(3.35577e-05 3.36581e-05 0)
(4.87137e-05 5.79651e-05 0)
(6.98157e-05 9.49419e-05 0)
(9.873e-05 0.000150254 0)
(0.000137326 0.00023169 0)
(0.000186928 0.000349876 0)
(0.000247092 0.000519139 0)
(0.000313153 0.000758349 0)
(0.00037171 0.00109108 0)
(0.00039317 0.00154345 0)
(0.000321619 0.00213557 0)
(6.73501e-05 0.00285902 0)
(-0.000478537 0.00362949 0)
(-0.00136281 0.00421646 0)
(3.28757e-06 -3.47779e-06 0)
(1.02651e-05 -1.22346e-06 0)
(1.8556e-05 3.64668e-06 0)
(2.93613e-05 1.18793e-05 0)
(4.44364e-05 2.47436e-05 0)
(6.6124e-05 4.47025e-05 0)
(9.72708e-05 7.54014e-05 0)
(0.000141391 0.000121968 0)
(0.000202751 0.000191683 0)
(0.000286168 0.000295005 0)
(0.000396199 0.000447148 0)
(0.00053499 0.000670459 0)
(0.000697268 0.00099774 0)
(0.000859558 0.00147595 0)
(0.000958989 0.00216702 0)
(0.00085771 0.00313411 0)
(0.000306017 0.00437729 0)
(-0.000993764 0.00562051 0)
(3.88392e-06 -7.80138e-06 0)
(1.22124e-05 -6.33652e-06 0)
(2.22716e-05 -3.04605e-06 0)
(3.55239e-05 2.42962e-06 0)
(5.43814e-05 1.04383e-05 0)
(8.22035e-05 2.28586e-05 0)
(0.000123059 4.24334e-05 0)
(0.000182264 7.29288e-05 0)
(0.000266943 0.000119848 0)
(0.00038654 0.000191528 0)
(0.000553276 0.000301084 0)
(0.000782137 0.000470001 0)
(0.00108907 0.00073495 0)
(0.0014834 0.00116089 0)
(0.00194275 0.00186627 0)
(0.00233684 0.00307072 0)
(0.00220446 0.00518123 0)
(0.00011378 0.00893133 0)
(4.24653e-06 -1.37541e-05 0)
(1.34775e-05 -1.35362e-05 0)
(2.47104e-05 -1.24779e-05 0)
(3.91624e-05 -1.06661e-05 0)
(5.9865e-05 -1.00229e-05 0)
(9.13295e-05 -9.13947e-06 0)
(0.000138445 -6.71067e-06 0)
(0.000207835 -1.55863e-06 0)
(0.000308997 8.07797e-06 0)
(0.000455678 2.49816e-05 0)
(0.000668301 5.38591e-05 0)
(0.000978357 0.000103187 0)
(0.00143683 0.000189163 0)
(0.00213111 0.00034449 0)
(0.00322041 0.000638618 0)
(0.00501297 0.00122575 0)
(0.00813976 0.00246165 0)
(0.0139568 0.00519358 0)
(5.75035e-08 -8.54346e-06 0)
(1.06465e-07 -8.83604e-06 0)
(9.54833e-08 -8.95017e-06 0)
(9.33381e-08 -9.04504e-06 0)
(1.04621e-07 -1.2722e-05 0)
(1.34053e-07 -1.88619e-05 0)
(1.77945e-07 -2.6877e-05 0)
(2.38358e-07 -3.72015e-05 0)
(3.21574e-07 -5.0503e-05 0)
(4.37314e-07 -6.78e-05 0)
(6.00921e-07 -9.06011e-05 0)
(8.36885e-07 -0.000121156 0)
(1.18531e-06 -0.000162893 0)
(1.71425e-06 -0.000221186 0)
(2.54418e-06 -0.000304736 0)
(3.89882e-06 -0.000428085 0)
(6.21575e-06 -0.000616347 0)
(1.04035e-05 -0.00091481 0)
(8.63542e-06 9.62897e-06 0)
(2.6112e-05 1.08624e-05 0)
(4.51411e-05 1.02606e-05 0)
(6.74301e-05 8.41984e-06 0)
(9.25002e-05 3.59992e-06 0)
(0.000118891 -3.52493e-06 0)
(0.000146612 -1.38653e-05 0)
(0.000176274 -2.71844e-05 0)
(0.000208023 -4.36826e-05 0)
(0.00024181 -6.44119e-05 0)
(0.000277555 -9.08113e-05 0)
(0.000314978 -0.000124858 0)
(0.00035329 -0.00016929 0)
(0.000390616 -0.000227928 0)
(0.000422858 -0.000306156 0)
(0.000441533 -0.000411655 0)
(0.000429646 -0.00055561 0)
(0.000353706 -0.000755143 0)
(1.27383e-05 2.87657e-05 0)
(3.8494e-05 3.13275e-05 0)
(6.49036e-05 2.97229e-05 0)
(9.21513e-05 2.51501e-05 0)
(0.000120232 1.80578e-05 0)
(0.000149002 8.841e-06 0)
(0.000177911 -3.77487e-06 0)
(0.000206666 -2.08405e-05 0)
(0.000235351 -4.13532e-05 0)
(0.000263589 -6.59814e-05 0)
(0.000290749 -9.57692e-05 0)
(0.000315871 -0.000131899 0)
(0.000337517 -0.000175614 0)
(0.000353602 -0.000228042 0)
(0.000361296 -0.000289818 0)
(0.000357104 -0.000360354 0)
(0.000337458 -0.000436478 0)
(0.000300427 -0.000509947 0)
(1.44058e-05 4.47799e-05 0)
(4.36387e-05 4.68101e-05 0)
(7.3474e-05 4.42883e-05 0)
(0.000103549 3.82797e-05 0)
(0.000133627 2.95265e-05 0)
(0.00016349 1.84305e-05 0)
(0.000192908 5.03048e-06 0)
(0.000221239 -1.29541e-05 0)
(0.000248139 -3.48097e-05 0)
(0.000273418 -6.00583e-05 0)
(0.000296273 -8.91944e-05 0)
(0.000315742 -0.000122601 0)
(0.000330679 -0.000160427 0)
(0.000339777 -0.000202422 0)
(0.000341672 -0.000247743 0)
(0.000335183 -0.000294751 0)
(0.0003197 -0.000340902 0)
(0.000295644 -0.000382904 0)
(1.63661e-05 5.55662e-05 0)
(4.93376e-05 5.64198e-05 0)
(8.249e-05 5.29503e-05 0)
(0.000115324 4.60368e-05 0)
(0.000147484 3.6403e-05 0)
(0.000178671 2.44707e-05 0)
(0.00020858 1.0366e-05 0)
(0.000236658 -7.00587e-06 0)
(0.000262479 -2.85966e-05 0)
(0.000285676 -5.28154e-05 0)
(0.000305568 -7.98247e-05 0)
(0.000321441 -0.000109624 0)
(0.000332534 -0.000141978 0)
(0.000338097 -0.000176348 0)
(0.000337507 -0.000211844 0)
(0.000330413 -0.000247236 0)
(0.000316879 -0.000281052 0)
(0.000297468 -0.00031181 0)
(1.84307e-05 6.22999e-05 0)
(5.52826e-05 6.20724e-05 0)
(9.18077e-05 5.78253e-05 0)
(0.000127459 5.03394e-05 0)
(0.000161804 4.02958e-05 0)
(0.000194479 2.8127e-05 0)
(0.000225134 1.40258e-05 0)
(0.000253304 -2.28172e-06 0)
(0.000278508 -2.27446e-05 0)
(0.000300315 -4.51751e-05 0)
(0.000318251 -6.9538e-05 0)
(0.000331821 -9.56628e-05 0)
(0.000340533 -0.000123208 0)
(0.000343973 -0.00015164 0)
(0.00034189 -0.000180252 0)
(0.000334261 -0.000208211 0)
(0.000321334 -0.000234659 0)
(0.000303626 -0.00025884 0)
(2.07032e-05 6.52984e-05 0)
(6.18243e-05 6.42356e-05 0)
(0.000102054 5.94642e-05 0)
(0.000140805 5.17246e-05 0)
(0.000177598 4.16662e-05 0)
(0.00021203 2.9725e-05 0)
(0.000243738 1.6134e-05 0)
(0.00027238 9.78472e-07 0)
(0.000297351 -1.77281e-05 0)
(0.000318229 -3.8003e-05 0)
(0.000334844 -5.95744e-05 0)
(0.000346832 -8.22151e-05 0)
(0.000353878 -0.00010558 0)
(0.00035577 -0.000129213 0)
(0.000352448 -0.000152583 0)
(0.000344028 -0.000175134 0)
(0.000330817 -0.000196364 0)
(0.000313295 -0.000215882 0)
(2.32753e-05 6.49468e-05 0)
(6.92455e-05 6.33118e-05 0)
(0.000113704 5.82932e-05 0)
(0.000156011 5.06113e-05 0)
(0.000195646 4.08888e-05 0)
(0.000232187 2.95552e-05 0)
(0.000265274 1.68594e-05 0)
(0.000294584 2.92637e-06 0)
(0.000319631 -1.36565e-05 0)
(0.00034009 -3.16086e-05 0)
(0.000355855 -5.03986e-05 0)
(0.000366701 -6.97896e-05 0)
(0.000372455 -8.9462e-05 0)
(0.000373041 -0.000109034 0)
(0.000368498 -0.000128105 0)
(0.000358999 -0.000146306 0)
(0.000344864 -0.000163363 0)
(0.00032655 -0.000179127 0)
(2.62532e-05 6.16181e-05 0)
(7.78577e-05 5.96545e-05 0)
(0.00012726 5.46616e-05 0)
(0.000173744 4.73354e-05 0)
(0.000216751 3.82664e-05 0)
(0.000255853 2.78664e-05 0)
(0.000290709 1.63819e-05 0)
(0.000321044 3.94517e-06 0)
(0.000346501 -1.04646e-05 0)
(0.000366861 -2.60464e-05 0)
(0.000382077 -4.21402e-05 0)
(0.000392052 -5.85167e-05 0)
(0.000396728 -7.48858e-05 0)
(0.00039612 -9.09196e-05 0)
(0.000390317 -0.000106296 0)
(0.000379496 -0.000120756 0)
(0.000363943 -0.000134172 0)
(0.00034408 -0.000146596 0)
(2.97879e-05 5.5631e-05 0)
(8.81002e-05 5.35574e-05 0)
(0.000143419 4.88499e-05 0)
(0.000194927 4.21618e-05 0)
(0.000242027 3.40379e-05 0)
(0.000284294 2.48585e-05 0)
(0.000321423 1.48525e-05 0)
(0.000353202 4.13825e-06 0)
(0.00037943 -8.09361e-06 0)
(0.000400009 -2.13129e-05 0)
(0.00041496 -3.48274e-05 0)
(0.000424304 -4.84275e-05 0)
(0.000428092 -6.18526e-05 0)
(0.000426406 -7.48064e-05 0)
(0.000419355 -8.69903e-05 0)
(0.000407067 -9.81646e-05 0)
(0.000389719 -0.000108249 0)
(0.000367623 -0.000117442 0)
(3.41445e-05 4.72197e-05 0)
(0.000100746 4.52344e-05 0)
(0.000163414 4.10596e-05 0)
(0.000221202 3.52799e-05 0)
(0.000273469 2.83749e-05 0)
(0.000319806 2.06782e-05 0)
(0.000359959 1.23887e-05 0)
(0.000393789 3.59338e-06 0)
(0.000421302 -6.48406e-06 0)
(0.000442575 -1.73972e-05 0)
(0.000457705 -2.84998e-05 0)
(0.000466841 -3.96206e-05 0)
(0.000470141 -5.05397e-05 0)
(0.000467747 -6.09823e-05 0)
(0.000459745 -7.0622e-05 0)
(0.000446129 -7.91178e-05 0)
(0.000426811 -8.62373e-05 0)
(0.000401779 -9.21381e-05 0)
(3.99156e-05 3.6498e-05 0)
(0.000117532 3.47883e-05 0)
(0.00019004 3.13918e-05 0)
(0.000256324 2.67906e-05 0)
(0.000315698 2.13755e-05 0)
(0.000367783 1.54173e-05 0)
(0.000412393 9.07581e-06 0)
(0.000449465 2.39896e-06 0)
(0.000479388 -5.62637e-06 0)
(0.000502586 -1.43997e-05 0)
(0.00051924 -2.34042e-05 0)
(0.000529639 -3.25266e-05 0)
(0.000534015 -4.16034e-05 0)
(0.000532492 -5.03913e-05 0)
(0.000525006 -5.85236e-05 0)
(0.000511203 -6.54591e-05 0)
(0.00049035 -7.05055e-05 0)
(0.000461525 -7.31948e-05 0)
(4.90793e-05 2.3435e-05 0)
(0.000144298 2.21965e-05 0)
(0.000232795 1.98481e-05 0)
(0.000313239 1.67278e-05 0)
(0.000384899 1.31068e-05 0)
(0.000447452 9.17392e-06 0)
(0.000500809 5.04275e-06 0)
(0.000544999 6.89721e-07 0)
(0.00058171 -5.71853e-06 0)
(0.000612267 -1.26936e-05 0)
(0.000636387 -1.99949e-05 0)
(0.000654117 -2.75489e-05 0)
(0.000665414 -3.52526e-05 0)
(0.000670127 -4.29477e-05 0)
(0.000667885 -5.03497e-05 0)
(0.000657823 -5.68806e-05 0)
(0.000638029 -6.13576e-05 0)
(0.000605031 -6.18011e-05 0)
(7.85378e-05 8.07264e-06 0)
(0.000231443 7.59623e-06 0)
(0.000375063 6.71965e-06 0)
(0.000508026 5.56986e-06 0)
(0.000629853 4.24843e-06 0)
(0.000740663 2.82673e-06 0)
(0.000840921 1.34909e-06 0)
(0.000931168 -2.21993e-07 0)
(0.00100877 -3.11031e-06 0)
(0.00107127 -6.20236e-06 0)
(0.00111977 -9.4723e-06 0)
(0.00115568 -1.28868e-05 0)
(0.00118082 -1.64091e-05 0)
(0.00119761 -1.99916e-05 0)
(0.00120937 -2.35403e-05 0)
(0.00122091 -2.68045e-05 0)
(0.00123909 -2.91054e-05 0)
(0.00127105 -2.896e-05 0)
(-1.22357e-05 2.61532e-05 3.37877e-31)
(-3.67971e-05 2.60966e-05 -3.36856e-31)
(-6.14847e-05 2.59941e-05 0)
(-8.62548e-05 2.58451e-05 0)
(-0.000111062 2.56495e-05 0)
(-0.000135861 2.54072e-05 3.26777e-31)
(-0.000160604 2.51188e-05 0)
(-0.000185243 2.47847e-05 0)
(-0.000209729 2.44061e-05 0)
(-0.000234016 2.3984e-05 0)
(-0.000258054 2.352e-05 -3.00942e-31)
(-0.000281796 2.30158e-05 0)
(-0.000305195 2.24735e-05 0)
(-0.000328207 2.18952e-05 0)
(-0.000350786 2.12833e-05 0)
(-0.000372889 2.06405e-05 -2.62371e-31)
(-0.000394477 1.99696e-05 0)
(-0.00041551 1.92732e-05 0)
(-0.000435953 1.85545e-05 0)
(-0.000455771 1.78165e-05 0)
(-0.000474932 1.70621e-05 0)
(-0.00049341 1.62946e-05 0)
(-0.000511177 1.55168e-05 0)
(-0.000528212 1.4732e-05 -1.84171e-31)
(-0.000544494 1.39429e-05 1.7378e-31)
(-0.000560007 1.31525e-05 -1.63381e-31)
(-0.000574737 1.23635e-05 -1.5301e-31)
(-0.000588673 1.15786e-05 0)
(-0.000601807 1.08004e-05 0)
(-0.000614135 1.00311e-05 1.22399e-31)
(-0.000625654 9.27299e-06 1.12465e-31)
(-0.000636364 8.5282e-06 0)
(-0.000646269 7.79859e-06 0)
(-0.000655374 7.08591e-06 8.38468e-32)
(-0.000663688 6.39173e-06 0)
(-0.000671219 5.71746e-06 0)
(-0.000677981 5.06434e-06 -5.74518e-32)
(-0.000683987 4.43346e-06 0)
(-0.000689253 3.82574e-06 -4.13101e-32)
(-0.000693797 3.24196e-06 -6.74227e-32)
(-0.000697638 2.68275e-06 0)
(-0.000700797 2.14861e-06 0)
(-0.000703294 1.63989e-06 0)
(-0.000705152 1.15684e-06 0)
(-0.000706396 6.99576e-07 0)
(-0.000707049 2.68127e-07 9.76205e-33)
(-0.000707137 -1.37594e-07 2.02516e-32)
(-0.000706686 -5.17759e-07 3.0068e-32)
(-0.000705721 -8.72624e-07 0)
(-0.000704269 -1.20252e-06 -4.77116e-32)
(-0.000702358 -1.50784e-06 0)
(-0.000700013 -1.78905e-06 6.27725e-32)
(-0.000697262 -2.04665e-06 6.93668e-32)
(-0.000694132 -2.28122e-06 0)
(-0.00069065 -2.49333e-06 0)
(-0.000686843 -2.68363e-06 0)
(-0.000682737 -2.85277e-06 8.9861e-32)
(-0.000678359 -3.00143e-06 0)
(-0.000673734 -3.13032e-06 0)
(-0.000668889 -3.24014e-06 0)
(-0.000663848 -3.33162e-06 0)
(-0.000658637 -3.40548e-06 0)
(-0.000653279 -3.46245e-06 0)
(-0.000647799 -3.50327e-06 0)
(-0.00064222 -3.52864e-06 0)
(-0.000636565 -3.53929e-06 -1.06517e-31)
(-0.000630855 -3.53593e-06 0)
(-0.000625114 -3.51925e-06 0)
(-0.000619361 -3.48995e-06 1.04836e-31)
(-0.000613618 -3.4487e-06 1.03634e-31)
(-0.000607903 -3.39617e-06 0)
(-0.000602238 -3.333e-06 -1.00374e-31)
(-0.00059664 -3.25985e-06 9.83514e-32)
(-0.000591127 -3.17733e-06 0)
(-0.000585717 -3.08607e-06 -9.36015e-32)
(-0.000580427 -2.98667e-06 0)
(-0.000575273 -2.87973e-06 0)
(-0.00057027 -2.76583e-06 8.49585e-32)
(-0.000565433 -2.64554e-06 0)
(-0.000560778 -2.51945e-06 -7.83657e-32)
(-0.000556316 -2.3881e-06 0)
(-0.000552061 -2.25207e-06 7.12484e-32)
(-0.000548024 -2.11189e-06 6.75294e-32)
(-0.000544218 -1.96811e-06 6.3723e-32)
(-0.000540653 -1.82127e-06 1.19686e-31)
(-0.000537338 -1.67192e-06 -1.11809e-31)
(-0.000534282 -1.52057e-06 0)
(-0.000531493 -1.36776e-06 0)
(-0.000528979 -1.21401e-06 0)
(-0.000526745 -1.05982e-06 -7.96633e-32)
(-0.000524798 -9.05704e-07 -7.1604e-32)
(-0.000523141 -7.52161e-07 6.35877e-32)
(-0.000521778 -5.99678e-07 0)
(-0.000520712 -4.48731e-07 -4.7786e-32)
(-0.000519945 -2.99784e-07 -4.00496e-32)
(-0.000519477 -1.53288e-07 -3.24538e-32)
(-0.000519307 -9.68062e-09 0)
(-0.000519435 1.30619e-07 0)
(-0.000519858 2.67206e-07 0)
(-0.000520573 3.99697e-07 -3.91697e-33)
(-0.000521576 5.27723e-07 0)
(-0.000522862 6.50938e-07 0)
(-0.000524424 7.69012e-07 -1.49945e-32)
(-0.000526257 8.81636e-07 0)
(-0.000528351 9.88522e-07 0)
(-0.000530698 1.0894e-06 -3.12618e-32)
(-0.000533288 1.18402e-06 0)
(-0.000536112 1.27214e-06 0)
(-0.000539157 1.35356e-06 4.4519e-32)
(-0.000542411 1.42806e-06 4.82173e-32)
(-0.000545862 1.49548e-06 0)
(-0.000549495 1.55565e-06 -5.44786e-32)
(-0.000553296 1.60841e-06 0)
(-0.000557249 1.65362e-06 5.91774e-32)
(-0.000561339 1.69116e-06 0)
(-0.000565548 1.72091e-06 6.22646e-32)
(-0.000569859 1.74279e-06 6.31924e-32)
(-0.000574253 1.7567e-06 0)
(-0.000578712 1.76257e-06 0)
(-0.000583215 1.76034e-06 0)
(-0.000587742 1.74997e-06 0)
(-0.000592272 1.73141e-06 0)
(-0.000596783 1.70466e-06 0)
(-0.000601253 1.66969e-06 0)
(-0.000605658 1.62654e-06 5.54914e-32)
(-0.000609976 1.57521e-06 -5.26341e-32)
(-0.000614182 1.51574e-06 0)
(-0.000618252 1.44819e-06 0)
(-0.00062216 1.37262e-06 0)
(-0.000625881 1.28909e-06 0)
(-0.000629389 1.19767e-06 -6.43988e-32)
(-0.000632657 1.09843e-06 0)
(-0.000635659 9.91413e-07 4.24799e-32)
(-0.000638366 8.76639e-07 -3.03569e-32)
(-0.000640751 7.54085e-07 0)
(-0.000642784 6.23657e-07 0)
(-0.000644435 4.85171e-07 0)
(-0.000645673 3.38316e-07 -2.59947e-32)
(-0.000646462 1.82616e-07 -4.21682e-32)
(-0.000646767 1.73843e-08 0)
(-0.000646549 -1.58333e-07 -7.74294e-32)
(-0.000645762 -3.45818e-07 -9.67403e-32)
(-0.000644356 -5.46751e-07 1.17384e-31)
(-0.000642274 -7.63289e-07 0)
(-0.000639449 -9.9815e-07 0)
(-0.000635803 -1.2547e-06 1.89777e-31)
(-0.000631244 -1.53706e-06 0)
(-0.00062566 -1.85017e-06 0)
(-0.000618922 -2.1999e-06 0)
(-0.000610873 -2.59314e-06 0)
(-0.00060133 -3.03787e-06 -3.70896e-31)
(-0.000590072 -3.54321e-06 -4.22083e-31)
(-0.000576841 -4.11944e-06 0)
(-0.000561334 -4.77809e-06 -5.47054e-31)
(-0.000543197 -5.53185e-06 0)
(-0.000522019 -6.39455e-06 0)
(-0.000497327 -7.38107e-06 -8.1015e-31)
(-0.00046858 -8.50714e-06 0)
(-0.000435163 -9.78914e-06 -1.05327e-30)
(-0.000396384 -1.12437e-05 0)
(-0.000351471 -1.28874e-05 0)
(-0.000299571 -1.47359e-05 -1.55194e-30)
(-0.00023975 -1.6803e-05 0)
(-0.000171004 -1.90999e-05 -1.99103e-30)
(-9.2264e-05 -2.16334e-05 0)
(-2.4198e-06 -2.44043e-05 0)
(9.96562e-05 -2.74052e-05 0)
(0.00021507 -3.06177e-05 3.14549e-30)
(0.000344856 -3.40098e-05 0)
(0.000489911 -3.75322e-05 -3.83448e-30)
(0.000650908 -4.11153e-05 0)
(0.000828202 -4.46645e-05 0)
(0.0010217 -4.80568e-05 0)
(0.0012307 -5.11337e-05 0)
(0.00145371 -5.36908e-05 0)
(0.00168817 -5.54518e-05 0)
(0.0019299 -5.59968e-05 0)
(0.00217197 -5.45266e-05 1.08656e-29)
(0.00240062 -4.88751e-05 0)
(0.00257628 -2.98423e-05 0)
(-1.23317e-05 7.86649e-05 -1.01628e-30)
(-3.70853e-05 7.84937e-05 1.01319e-30)
(-6.19646e-05 7.81835e-05 0)
(-8.69248e-05 7.77328e-05 -2.00524e-30)
(-0.00011192 7.7141e-05 0)
(-0.000136902 7.64083e-05 9.85938e-31)
(-0.000161823 7.5536e-05 1.94491e-30)
(-0.000186634 7.45259e-05 1.91763e-30)
(-0.000211286 7.3381e-05 0)
(-0.000235729 7.21051e-05 1.85274e-30)
(-0.000259915 7.07028e-05 -9.10743e-31)
(-0.000283796 6.91793e-05 0)
(-0.000307323 6.75409e-05 0)
(-0.000330451 6.57942e-05 0)
(-0.000353135 6.39468e-05 0)
(-0.000375332 6.20063e-05 -7.96982e-31)
(-0.000397001 5.99813e-05 0)
(-0.000418104 5.78804e-05 -1.47643e-30)
(-0.000438603 5.57126e-05 0)
(-0.000458465 5.34871e-05 0)
(-0.00047766 5.1213e-05 1.30127e-30)
(-0.000496158 4.88998e-05 0)
(-0.000513935 4.65566e-05 -1.17919e-30)
(-0.000530968 4.41925e-05 -5.64907e-31)
(-0.000547238 4.18165e-05 5.34005e-31)
(-0.00056273 3.94371e-05 -5.03069e-31)
(-0.000577429 3.70627e-05 -4.72208e-31)
(-0.000591326 3.47013e-05 0)
(-0.000604413 3.23603e-05 0)
(-0.000616687 3.0047e-05 3.81069e-31)
(-0.000628145 2.77681e-05 1.03961e-30)
(-0.000638789 2.55296e-05 0)
(-0.000648622 2.33373e-05 0)
(-0.000657651 2.11964e-05 2.66193e-31)
(-0.000665885 1.91115e-05 0)
(-0.000673334 1.70869e-05 0)
(-0.00068001 1.51263e-05 -1.87476e-31)
(-0.000685929 1.32329e-05 0)
(-0.000691107 1.14093e-05 -4.01594e-31)
(-0.000695561 9.65797e-06 -2.33231e-31)
(-0.000699313 7.9807e-06 0)
(-0.000702381 6.37893e-06 0)
(-0.000704789 4.85373e-06 1.84373e-31)
(-0.000706559 3.40578e-06 1.09349e-31)
(-0.000707715 2.03541e-06 3.83941e-32)
(-0.000708282 7.42666e-07 2.60179e-32)
(-0.000708286 -4.7274e-07 2.8942e-32)
(-0.000707752 -1.61135e-06 -9.1781e-32)
(-0.000706706 -2.67395e-06 2.04979e-31)
(-0.000705176 -3.66156e-06 -1.11298e-31)
(-0.000703189 -4.5754e-06 0)
(-0.000700771 -5.41685e-06 1.56567e-31)
(-0.000697949 -6.18747e-06 5.62217e-31)
(-0.000694751 -6.88894e-06 0)
(-0.000691204 -7.52308e-06 0)
(-0.000687334 -8.09179e-06 0)
(-0.000683169 -8.59705e-06 2.38357e-31)
(-0.000678734 -9.04092e-06 0)
(-0.000674055 -9.42551e-06 5.50942e-31)
(-0.000669158 -9.75295e-06 0)
(-0.000664069 -1.00254e-05 5.81014e-31)
(-0.000658811 -1.02451e-05 0)
(-0.00065341 -1.04142e-05 -6.00107e-31)
(-0.000647889 -1.05349e-05 0)
(-0.000642272 -1.06093e-05 6.09141e-31)
(-0.00063658 -1.06396e-05 -9.00227e-31)
(-0.000630837 -1.0628e-05 0)
(-0.000625064 -1.05764e-05 -6.05817e-31)
(-0.000619282 -1.04871e-05 2.85706e-31)
(-0.000613511 -1.0362e-05 2.82336e-31)
(-0.000607772 -1.02031e-05 0)
(-0.000602083 -1.00124e-05 -8.47515e-31)
(-0.000596463 -9.79176e-06 2.67193e-31)
(-0.00059093 -9.5431e-06 0)
(-0.000585503 -9.26825e-06 -2.53402e-31)
(-0.000580196 -8.96904e-06 -5.1848e-31)
(-0.000575027 -8.64725e-06 0)
(-0.000570012 -8.30463e-06 2.28127e-31)
(-0.000565164 -7.94291e-06 0)
(-0.000560498 -7.56379e-06 2.35218e-31)
(-0.000556027 -7.16896e-06 0)
(-0.000551765 -6.76009e-06 -2.13824e-31)
(-0.000547722 -6.33883e-06 1.76786e-31)
(-0.000543911 -5.90681e-06 5.22268e-31)
(-0.000540342 -5.46565e-06 9.75271e-31)
(-0.000537025 -5.01695e-06 -9.04898e-31)
(-0.000533968 -4.56232e-06 0)
(-0.000531179 -4.10332e-06 0)
(-0.000528666 -3.64151e-06 0)
(-0.000526434 -3.17844e-06 2.38893e-31)
(-0.00052449 -2.71562e-06 -1.6516e-31)
(-0.000522837 -2.25454e-06 1.41244e-31)
(-0.000521479 -1.79667e-06 0)
(-0.000520419 -1.34343e-06 -3.31228e-31)
(-0.000519658 -8.96228e-07 -7.08715e-32)
(-0.000519197 -4.56409e-07 -4.81116e-32)
(-0.000519036 -2.52819e-08 0)
(-0.000519172 3.95891e-07 0)
(-0.000519605 8.05901e-07 0)
(-0.00052033 1.20359e-06 3.76549e-32)
(-0.000521343 1.58786e-06 0)
(-0.00052264 1.95767e-06 1.03705e-31)
(-0.000524214 2.31204e-06 4.52713e-32)
(-0.000526058 2.65003e-06 -1.74647e-31)
(-0.000528164 2.97078e-06 0)
(-0.000530523 3.27349e-06 -3.82453e-31)
(-0.000533126 3.5574e-06 0)
(-0.000535962 3.82181e-06 -2.93936e-31)
(-0.00053902 4.06608e-06 5.03375e-31)
(-0.000542287 4.28961e-06 5.37272e-31)
(-0.000545751 4.49187e-06 0)
(-0.000549397 4.67234e-06 1.63729e-31)
(-0.000553211 4.83058e-06 -3.94983e-31)
(-0.000557178 4.96617e-06 2.30436e-31)
(-0.000561281 5.07874e-06 0)
(-0.000565503 5.16796e-06 2.40475e-31)
(-0.000569827 5.23353e-06 -1.89847e-31)
(-0.000574234 5.27519e-06 0)
(-0.000578705 5.29272e-06 -4.37951e-31)
(-0.000583221 5.28595e-06 -4.36398e-31)
(-0.000587761 5.25473e-06 -4.32313e-31)
(-0.000592303 5.19896e-06 0)
(-0.000596826 5.11859e-06 0)
(-0.000601308 5.01359e-06 0)
(-0.000605726 4.884e-06 6.14482e-31)
(-0.000610055 4.72989e-06 -2.15724e-31)
(-0.000614272 4.55137e-06 0)
(-0.000618353 4.3486e-06 3.32843e-31)
(-0.000622272 4.12175e-06 3.08647e-31)
(-0.000626003 3.87104e-06 0)
(-0.000629521 3.59667e-06 -3.12436e-31)
(-0.000632799 3.29883e-06 4.43143e-31)
(-0.00063581 2.97769e-06 2.47842e-31)
(-0.000638527 2.6333e-06 -5.15328e-31)
(-0.000640922 2.2656e-06 0)
(-0.000642964 1.87433e-06 0)
(-0.000644625 1.45893e-06 0)
(-0.000645872 1.0185e-06 4.43154e-32)
(-0.000646672 5.51611e-07 -1.34243e-31)
(-0.000646989 5.62323e-08 -2.3277e-31)
(-0.000646783 -4.70482e-07 -1.09727e-31)
(-0.00064601 -1.03236e-06 -6.25265e-31)
(-0.000644621 -1.63441e-06 2.2987e-31)
(-0.000642558 -2.28309e-06 0)
(-0.000639756 -2.98653e-06 0)
(-0.000636137 -3.75482e-06 1.46509e-30)
(-0.000631609 -4.60027e-06 0)
(-0.000626064 -5.5377e-06 0)
(-0.00061937 -6.58473e-06 -1.59565e-30)
(-0.000611375 -7.76201e-06 0)
(-0.000601893 -9.09346e-06 -3.10493e-30)
(-0.000590707 -1.06064e-05 -1.15246e-30)
(-0.00057756 -1.23319e-05 0)
(-0.000562149 -1.43043e-05 -4.70252e-30)
(-0.000544122 -1.65618e-05 0)
(-0.000523067 -1.9146e-05 0)
(-0.000498513 -2.21016e-05 -2.33233e-30)
(-0.00046992 -2.54758e-05 -5.44577e-30)
(-0.000436672 -2.93179e-05 -3.07264e-30)
(-0.000398077 -3.36781e-05 0)
(-0.000353362 -3.86059e-05 0)
(-0.000301672 -4.41485e-05 -1.3837e-29)
(-0.000242071 -5.03481e-05 0)
(-0.00017355 -5.72383e-05 -1.78368e-29)
(-9.50347e-05 -6.48401e-05 0)
(-5.40818e-06 -7.31562e-05 0)
(9.64671e-05 -8.21648e-05 0)
(0.000211709 -9.18116e-05 9.4731e-30)
(0.000341367 -0.000102001 0)
(0.000486353 -0.000112586 -1.15951e-29)
(0.000647365 -0.000123357 0)
(0.000824776 -0.000134033 0)
(0.00101852 -0.000144245 -2.94443e-29)
(0.00122794 -0.000153519 3.12832e-29)
(0.00145159 -0.000161248 0)
(0.00168699 -0.000166617 0)
(0.00193022 -0.000168414 0)
(0.00217509 -0.00016444 -3.27728e-29)
(0.00241159 -0.000149321 0)
(0.00262662 -0.000104469 4.12229e-29)
(-1.25262e-05 0.000131798 -6.8123e-30)
(-3.76692e-05 0.000131508 8.96407e-34)
(-6.29366e-05 0.000130982 0)
(-8.82816e-05 0.000130218 -2.09126e-33)
(-0.000113655 0.000129215 0)
(-0.000139008 0.000127974 0)
(-0.00016429 0.000126496 6.52028e-30)
(-0.000189449 0.000124786 3.21668e-30)
(-0.000214435 0.000122847 -3.16033e-30)
(-0.000239195 0.000120688 3.10842e-30)
(-0.00026368 0.000118316 0)
(-0.000287838 0.00011574 0)
(-0.000311623 0.000112971 2.89814e-30)
(-0.000334985 0.00011002 5.64043e-30)
(-0.00035788 0.000106901 -5.47592e-30)
(-0.000380264 0.000103626 0)
(-0.000402095 0.00010021 -5.12378e-30)
(-0.000423334 9.66689e-05 -2.47884e-30)
(-0.000443945 9.30165e-05 0)
(-0.000463895 8.92689e-05 -4.54937e-30)
(-0.000483153 8.5442e-05 2.18581e-30)
(-0.00050169 8.15513e-05 4.14502e-30)
(-0.000519484 7.76124e-05 -1.9817e-30)
(-0.000536512 7.36408e-05 0)
(-0.000552757 6.96513e-05 -3.52257e-30)
(-0.000568203 6.56585e-05 -3.31396e-30)
(-0.000582838 6.16763e-05 0)
(-0.000596654 5.77179e-05 -2.89942e-30)
(-0.000609645 5.37961e-05 0)
(-0.000621807 4.99226e-05 -2.49285e-30)
(-0.000633142 4.61086e-05 1.16198e-30)
(-0.000643651 4.23642e-05 0)
(-0.000653339 3.86989e-05 0)
(-0.000662214 3.51212e-05 0)
(-0.000670287 3.16389e-05 0)
(-0.000677568 2.82588e-05 0)
(-0.000684072 2.4987e-05 0)
(-0.000689816 2.18286e-05 -1.03079e-30)
(-0.000694815 1.87882e-05 4.20044e-31)
(-0.000699089 1.58694e-05 0)
(-0.00070266 1.30752e-05 0)
(-0.000705548 1.0408e-05 0)
(-0.000707776 7.86923e-06 6.46556e-31)
(-0.000709368 5.46006e-06 2.15287e-31)
(-0.000710348 3.18092e-06 3.35421e-32)
(-0.000710743 1.03174e-06 -3.35602e-32)
(-0.000710577 -9.88018e-07 -1.51736e-31)
(-0.000709878 -2.87935e-06 -2.15898e-31)
(-0.000708671 -4.64367e-06 6.47455e-31)
(-0.000706985 -6.28273e-06 4.24957e-31)