/*--------------------------------*- C++ -*----------------------------------*\
  =========                 |
  \\      /  F ield         | OpenFOAM: The Open Source CFD Toolbox
   \\    /   O peration     | Website:  https://openfoam.org
    \\  /    A nd           | Version:  10
     \\/     M anipulation  |
\*---------------------------------------------------------------------------*/
FoamFile
{
    format      ascii;
    class       surfaceScalarField;
    location    "0.66";
    object      phi;
}
// * * * * * * * * * * * * * * * * * * * * * * * * * * * * * * * * * * * * * //

dimensions      [0 3 -1 0 0 0 0];

internalField   nonuniform List<scalar> 
24170
(
1.35779e-09
-1.35779e-09
2.51895e-09
-1.16116e-09
3.43676e-09
-9.17815e-10
4.12837e-09
-6.91607e-10
4.63849e-09
-5.10121e-10
5.01546e-09
-3.7697e-10
5.30089e-09
-2.85425e-10
5.52741e-09
-2.26521e-10
5.71996e-09
-1.92556e-10
5.89816e-09
-1.78198e-10
6.07889e-09
-1.80722e-10
6.27915e-09
-2.00262e-10
6.51998e-09
-2.40835e-10
6.83345e-09
-3.13472e-10
7.27928e-09
-4.45828e-10
7.99597e-09
-7.16689e-10
9.41495e-09
-1.41898e-09
-4.13835e-09
1.35533e-08
1.56362e-09
-2.92141e-09
2.89474e-09
-2.49229e-09
3.94055e-09
-1.96363e-09
4.72349e-09
-1.47454e-09
5.2973e-09
-1.08394e-09
5.71888e-09
-7.98541e-10
6.0365e-09
-6.03049e-10
6.28765e-09
-4.77668e-10
6.50066e-09
-4.05569e-10
6.69759e-09
-3.75126e-10
6.89717e-09
-3.80304e-10
7.11798e-09
-4.21077e-10
7.38247e-09
-5.05322e-10
7.72366e-09
-6.5466e-10
8.19926e-09
-9.21428e-10
8.92491e-09
-1.44234e-09
1.01362e-08
-2.63029e-09
-5.87829e-09
1.18762e-08
1.75901e-09
-4.68041e-09
3.24654e-09
-3.97982e-09
4.40455e-09
-3.12163e-09
5.26281e-09
-2.3328e-09
5.88551e-09
-1.70663e-09
6.33854e-09
-1.25158e-09
6.67681e-09
-9.41317e-10
6.94224e-09
-7.43102e-10
7.1661e-09
-6.29429e-10
7.37232e-09
-5.81344e-10
7.58081e-09
-5.88789e-10
7.81067e-09
-6.50943e-10
8.0839e-09
-7.78545e-10
8.43038e-09
-1.00114e-09
8.89542e-09
-1.38647e-09
9.54485e-09
-2.09177e-09
1.04082e-08
-3.49366e-09
-6.40143e-09
1.09314e-08
1.97599e-09
-6.65641e-09
3.63199e-09
-5.63582e-09
4.90525e-09
-4.39489e-09
5.8365e-09
-3.26406e-09
6.50346e-09
-2.37359e-09
6.98284e-09
-1.73095e-09
7.33686e-09
-1.29534e-09
7.61207e-09
-1.01832e-09
7.84252e-09
-8.59874e-10
8.05368e-09
-7.9251e-10
8.26612e-09
-8.01227e-10
8.49859e-09
-8.83407e-10
8.77091e-09
-1.05087e-09
9.10651e-09
-1.33674e-09
9.53202e-09
-1.81199e-09
1.006e-08
-2.61973e-09
1.05913e-08
-4.02496e-09
-6.35659e-09
1.05464e-08
2.22876e-09
-8.88516e-09
4.07392e-09
-7.48098e-09
5.46918e-09
-5.79015e-09
6.47197e-09
-4.26684e-09
7.17823e-09
-3.07985e-09
7.67812e-09
-2.23084e-09
8.04229e-09
-1.65951e-09
8.32217e-09
-1.29819e-09
8.55442e-09
-1.09212e-09
8.76571e-09
-1.0038e-09
8.97662e-09
-1.01215e-09
9.20462e-09
-1.11141e-09
9.46587e-09
-1.31211e-09
9.77498e-09
-1.64586e-09
1.01384e-08
-2.17544e-09
1.05271e-08
-3.00836e-09
1.07914e-08
-4.28927e-09
-6.06377e-09
1.04986e-08
2.53256e-09
-1.14177e-08
4.59507e-09
-9.5435e-09
6.12035e-09
-7.31543e-09
7.19149e-09
-5.33798e-09
7.92955e-09
-3.81791e-09
8.44166e-09
-2.74295e-09
8.8083e-09
-2.02614e-09
9.08603e-09
-1.57592e-09
9.31388e-09
-1.31998e-09
9.51922e-09
-1.20913e-09
9.72198e-09
-1.2149e-09
9.93739e-09
-1.32682e-09
1.01768e-08
-1.55154e-09
1.04453e-08
-1.91436e-09
1.07319e-08
-2.462e-09
1.09831e-08
-3.25953e-09
1.1051e-08
-4.35719e-09
-5.6727e-09
1.06599e-08
2.90787e-09
-1.43256e-08
5.22429e-09
-1.18599e-08
6.88719e-09
-8.97833e-09
8.01959e-09
-6.47038e-09
8.7775e-09
-4.57583e-09
9.28973e-09
-3.25517e-09
9.64812e-09
-2.38454e-09
9.91451e-09
-1.84232e-09
1.01299e-08
-1.53536e-09
1.03216e-08
-1.40086e-09
1.05082e-08
-1.40154e-09
1.0702e-08
-1.52061e-09
1.0909e-08
-1.75847e-09
1.11253e-08
-2.13068e-09
1.13278e-08
-2.66447e-09
1.14549e-08
-3.38665e-09
1.13855e-08
-4.28787e-09
-5.24989e-09
1.09627e-08
3.38454e-09
-1.77101e-08
6.00135e-09
-1.44767e-08
7.80657e-09
-1.07836e-08
8.98614e-09
-7.64995e-09
9.74512e-09
-5.33481e-09
1.02399e-08
-3.74992e-09
1.05752e-08
-2.71987e-09
1.0818e-08
-2.08515e-09
1.10105e-08
-1.72784e-09
1.11792e-08
-1.56955e-09
1.13405e-08
-1.56279e-09
1.1503e-08
-1.68311e-09
1.16674e-08
-1.92294e-09
1.18232e-08
-2.28642e-09
1.19407e-08
-2.78199e-09
1.1962e-08
-3.40793e-09
1.17992e-08
-4.12516e-09
-4.82293e-09
1.13723e-08
4.00834e-09
-2.17185e-08
6.98348e-09
-1.74519e-08
8.92816e-09
-1.27282e-08
1.01289e-08
-8.85068e-09
1.08598e-08
-6.06573e-09
1.13118e-08
-4.20196e-09
1.16039e-08
-3.01195e-09
1.18072e-08
-2.28841e-09
1.19637e-08
-1.88436e-09
1.2098e-08
-1.70387e-09
1.22235e-08
-1.68826e-09
1.23448e-08
-1.80445e-09
1.24581e-08
-2.0362e-09
1.25481e-08
-2.3764e-09
1.25842e-08
-2.81812e-09
1.25182e-08
-3.34189e-09
1.22922e-08
-3.89922e-09
-4.40184e-09
1.18712e-08
4.8527e-09
-2.65712e-08
8.25564e-09
-2.08548e-08
1.03201e-08
-1.47927e-08
1.1496e-08
-1.00266e-08
1.21544e-08
-6.72405e-09
1.2528e-08
-4.57561e-09
1.27498e-08
-3.23373e-09
1.2893e-08
-2.4316e-09
1.29975e-08
-1.98884e-09
1.30842e-08
-1.79062e-09
1.31625e-08
-1.76657e-09
1.3233e-08
-1.87494e-09
1.32879e-08
-2.09108e-09
1.33098e-08
-2.39828e-09
1.32705e-08
-2.7789e-09
1.31335e-08
-3.20488e-09
1.28641e-08
-3.62978e-09
-3.98899e-09
1.24512e-08
6.04099e-09
-3.26122e-08
9.94722e-09
-2.4761e-08
1.20769e-08
-1.69224e-08
1.31487e-08
-1.10984e-08
1.36672e-08
-7.24255e-09
1.39127e-08
-4.82118e-09
1.40288e-08
-3.34975e-09
1.40862e-08
-2.48909e-09
1.41195e-08
-2.0221e-09
1.41437e-08
-1.81482e-09
1.41629e-08
-1.7858e-09
1.41734e-08
-1.88541e-09
1.41643e-08
-2.08199e-09
1.41179e-08
-2.35185e-09
1.40102e-08
-2.67125e-09
1.38155e-08
-3.01014e-09
1.35149e-08
-3.32919e-09
-3.58354e-09
1.31095e-08
6.46679e-09
-3.90789e-08
1.02064e-08
-2.85006e-08
1.196e-08
-1.8676e-08
1.26811e-08
-1.18195e-08
1.29329e-08
-7.49438e-09
1.29879e-08
-4.87616e-09
1.29679e-08
-3.32978e-09
1.29251e-08
-2.44628e-09
1.28801e-08
-1.97704e-09
1.28386e-08
-1.77338e-09
1.2799e-08
-1.74615e-09
1.27542e-08
-1.84066e-09
1.26933e-08
-2.02106e-09
1.26015e-08
-2.26008e-09
1.24622e-08
-2.53192e-09
1.22601e-08
-2.80798e-09
1.19869e-08
-3.05603e-09
-3.24414e-09
1.16475e-08
9.63343e-09
-4.87124e-08
1.43869e-08
-3.32541e-08
1.61468e-08
-2.04359e-08
1.66014e-08
-1.2274e-08
1.65741e-08
-7.46709e-09
1.64005e-08
-4.70261e-09
1.62049e-08
-3.13421e-09
1.60277e-08
-2.269e-09
1.58768e-08
-1.82618e-09
1.57481e-08
-1.64468e-09
1.5632e-08
-1.63001e-09
1.55158e-08
-1.7245e-09
1.53848e-08
-1.89009e-09
1.52229e-08
-2.09815e-09
1.50144e-08
-2.32341e-09
1.47474e-08
-2.541e-09
1.4418e-08
-2.7266e-09
-2.85927e-09
1.40331e-08
1.55872e-08
-6.42996e-08
2.12935e-08
-3.89604e-08
2.24276e-08
-2.157e-08
2.20993e-08
-1.19457e-08
2.14527e-08
-6.82054e-09
2.0834e-08
-4.08381e-09
2.03216e-08
-2.62188e-09
1.99138e-08
-1.86117e-09
1.95882e-08
-1.5006e-09
1.93201e-08
-1.37657e-09
1.90862e-08
-1.39608e-09
1.88649e-08
-1.5032e-09
1.86363e-08
-1.66148e-09
1.83824e-08
-1.84426e-09
1.80886e-08
-2.02968e-09
1.77461e-08
-2.19848e-09
1.73537e-08
-2.3342e-09
-2.42456e-09
1.6919e-08
2.85681e-08
-9.28677e-08
3.35662e-08
-4.39584e-08
3.21521e-08
-2.01559e-08
2.98917e-08
-9.68531e-09
2.79955e-08
-4.92429e-09
2.65759e-08
-2.66427e-09
2.55338e-08
-1.57981e-09
2.47592e-08
-1.0865e-09
2.4166e-08
-9.0747e-10
2.36914e-08
-9.01948e-10
2.32885e-08
-9.93193e-10
2.29219e-08
-1.1366e-09
2.25643e-08
-1.30383e-09
2.21949e-08
-1.47486e-09
2.17995e-08
-1.63425e-09
2.13707e-08
-1.76968e-09
2.09083e-08
-1.87188e-09
-1.93515e-09
2.04189e-08
6.31641e-08
-1.56032e-07
5.67029e-08
-3.74972e-08
4.71655e-08
-1.06186e-08
4.06663e-08
-3.18607e-09
3.65269e-08
-7.8486e-10
3.3838e-08
2.46014e-11
3.20199e-08
2.38297e-10
3.07287e-08
2.04652e-10
2.97642e-08
5.71108e-11
2.9005e-08
-1.42793e-10
2.83732e-08
-3.61432e-10
2.78159e-08
-5.79219e-10
2.7296e-08
-7.84005e-10
2.67885e-08
-9.6729e-10
2.6277e-08
-1.12282e-09
2.57535e-08
-1.24612e-09
2.52162e-08
-1.33458e-09
-1.38769e-09
2.46687e-08
1.83736e-07
1.60101e-07
9.773e-08
4.85084e-08
6.74254e-08
1.9686e-08
5.39474e-08
1.02919e-08
4.68034e-08
6.35915e-09
4.25274e-08
4.30067e-09
3.9741e-08
3.02464e-09
3.78073e-08
2.13835e-09
3.63892e-08
1.47523e-09
3.52916e-08
9.54844e-10
3.43953e-08
5.34882e-10
3.36246e-08
1.91425e-10
3.29297e-08
-8.90984e-11
3.22776e-08
-3.15184e-10
3.16486e-08
-4.93803e-10
3.10316e-08
-6.29141e-10
3.0422e-08
-7.24956e-10
-7.85266e-10
2.98196e-08
7.72708e-08
8.28298e-08
7.563e-08
5.01492e-08
6.57463e-08
2.95697e-08
5.78366e-08
1.82016e-08
5.23766e-08
1.18191e-08
4.86435e-08
8.03377e-09
4.6024e-08
5.64421e-09
4.41164e-08
4.04593e-09
4.26682e-08
2.92345e-09
4.15189e-08
2.10413e-09
4.05648e-08
1.48894e-09
3.97378e-08
1.01845e-09
3.89932e-08
6.55495e-10
3.83023e-08
3.75687e-10
3.76463e-08
1.6226e-10
3.7014e-08
3.08992e-12
3.63988e-08
-1.09765e-10
-1.8556e-10
3.57991e-08
3.61024e-08
4.67274e-08
5.03611e-08
3.58905e-08
5.41544e-08
2.57764e-08
5.40987e-08
1.82573e-08
5.28935e-08
1.30243e-08
5.15044e-08
9.42284e-09
5.02304e-08
6.9182e-09
4.91328e-08
5.14362e-09
4.81957e-08
3.86046e-09
4.73849e-08
2.91502e-09
4.66663e-08
2.20752e-09
4.60126e-08
1.67214e-09
4.54036e-08
1.26453e-09
4.48252e-08
9.5409e-10
4.42683e-08
7.19081e-10
4.37278e-08
5.4363e-10
4.32022e-08
4.15783e-10
3.26107e-10
4.26906e-08
1.4474e-08
3.22535e-08
2.35515e-08
2.6813e-08
2.84436e-08
2.08843e-08
3.08836e-08
1.58174e-08
3.20261e-08
1.18817e-08
3.25096e-08
8.93943e-09
3.2662e-08
6.76578e-09
3.2647e-08
5.15856e-09
3.25452e-08
3.96227e-09
3.2396e-08
3.06425e-09
3.22188e-08
2.38467e-09
3.20237e-08
1.86725e-09
3.18162e-08
1.47208e-09
3.15997e-08
1.17052e-09
3.13772e-08
9.41672e-10
3.11508e-08
7.70008e-10
3.09228e-08
6.4373e-10
5.53679e-10
3.06953e-08
8.7136e-09
2.35399e-08
1.52054e-08
2.03212e-08
1.9537e-08
1.65527e-08
2.22908e-08
1.30636e-08
2.40139e-08
1.01586e-08
2.50917e-08
7.86165e-09
2.57682e-08
6.08919e-09
2.61921e-08
4.73475e-09
2.64525e-08
3.70185e-09
2.66039e-08
2.91286e-09
2.66801e-08
2.30845e-09
2.67029e-08
1.84439e-09
2.66871e-08
1.48789e-09
2.6643e-08
1.21465e-09
2.65782e-08
1.00651e-09
2.64984e-08
8.49762e-10
2.64083e-08
7.33869e-10
6.50646e-10
2.63113e-08
5.90382e-09
1.76361e-08
1.06845e-08
1.55405e-08
1.42372e-08
1.30001e-08
1.67674e-08
1.05333e-08
1.85405e-08
8.38553e-09
1.97807e-08
6.62142e-09
2.06525e-08
5.21741e-09
2.12692e-08
4.1181e-09
2.17071e-08
3.26392e-09
2.20178e-08
2.60216e-09
2.22364e-08
2.08987e-09
2.23873e-08
1.69348e-09
2.24879e-08
1.38723e-09
2.25511e-08
1.15149e-09
2.25863e-08
9.71318e-10
2.26008e-08
8.35248e-10
2.26003e-08
7.34419e-10
6.61904e-10
2.2589e-08
4.30887e-09
1.33272e-08
7.96045e-09
1.18889e-08
1.08469e-08
1.01137e-08
1.30417e-08
8.33853e-09
1.46804e-08
6.74681e-09
1.58968e-08
5.40496e-09
1.68008e-08
4.31348e-09
1.74752e-08
3.44365e-09
1.79809e-08
2.75827e-09
1.83615e-08
2.2215e-09
1.86489e-08
1.80249e-09
1.88661e-08
1.47624e-09
1.90304e-08
1.22298e-09
1.91545e-08
1.02735e-09
1.92484e-08
8.77456e-10
1.93196e-08
7.64074e-10
1.9374e-08
6.80021e-10
6.19661e-10
1.94162e-08
3.3014e-09
1.00258e-08
6.17583e-09
9.01445e-09
8.53594e-09
7.75355e-09
1.04056e-08
6.46887e-09
1.18583e-08
5.29407e-09
1.29775e-08
4.2858e-09
1.3838e-08
3.45297e-09
1.45009e-08
2.78081e-09
1.50134e-08
2.24574e-09
1.54116e-08
1.8233e-09
1.57226e-08
1.49146e-09
1.5967e-08
1.23185e-09
1.61604e-08
1.0296e-09
1.63148e-08
8.7298e-10
1.64394e-08
7.52793e-10
1.65416e-08
6.61844e-10
1.66272e-08
5.94498e-10
5.46323e-10
1.67005e-08
2.61321e-09
7.41257e-09
4.92756e-09
6.70011e-09
6.87483e-09
5.80628e-09
8.4594e-09
4.8843e-09
9.72357e-09
4.02991e-09
1.07219e-08
3.28751e-09
1.15072e-08
2.66767e-09
1.21251e-08
2.16287e-09
1.26127e-08
1.75809e-09
1.29994e-08
1.43664e-09
1.33079e-08
1.183e-09
1.35558e-08
9.83879e-10
1.3757e-08
8.28393e-10
1.39222e-08
7.07814e-10
1.40598e-08
6.15244e-10
1.41763e-08
5.45252e-10
1.42773e-08
4.93568e-10
4.56831e-10
1.43668e-08
2.11435e-09
5.29822e-09
4.00792e-09
4.80653e-09
5.62719e-09
4.18701e-09
6.96884e-09
3.54265e-09
8.05865e-09
2.9401e-09
8.93408e-09
2.41207e-09
9.63385e-09
1.9679e-09
1.01928e-08
1.60389e-09
1.06404e-08
1.31051e-09
1.10005e-08
1.07657e-09
1.1292e-08
8.91431e-10
1.15301e-08
7.45785e-10
1.17266e-08
6.31919e-10
1.18908e-08
5.43596e-10
1.20302e-08
4.75852e-10
1.21507e-08
4.24758e-10
1.22571e-08
3.87216e-10
3.60781e-10
1.23531e-08
1.73527e-09
3.56295e-09
3.3011e-09
3.2407e-09
4.65482e-09
2.83328e-09
5.79037e-09
2.4071e-09
6.72435e-09
2.00612e-09
7.48374e-09
1.65268e-09
8.09778e-09
1.35386e-09
8.59376e-09
1.10792e-09
8.99525e-09
9.09015e-10
9.32181e-09
7.50015e-10
9.58927e-09
6.23963e-10
9.81034e-09
5.24722e-10
9.99511e-09
4.47149e-10
1.01516e-08
3.87057e-10
1.02864e-08
3.41097e-10
1.04046e-08
3.06608e-10
1.05103e-08
2.81484e-10
2.64057e-10
1.0607e-08
1.43522e-09
2.12773e-09
2.73704e-09
1.93888e-09
3.87094e-09
1.69939e-09
4.83021e-09
1.44784e-09
5.62616e-09
1.21017e-09
6.27897e-09
9.9987e-10
6.81135e-09
8.21471e-10
7.24503e-09
6.74247e-10
7.5991e-09
5.54941e-10
7.88966e-09
4.59454e-10
8.1299e-09
3.83728e-10
8.33047e-09
3.24151e-10
8.49994e-09
2.77674e-10
8.64519e-09
2.41805e-10
8.77175e-09
2.1454e-10
8.88408e-09
1.94284e-10
8.98579e-09
1.7977e-10
1.69983e-10
9.07986e-09
1.18614e-09
9.41585e-10
2.26596e-09
8.59063e-10
3.2113e-09
7.54045e-10
4.01575e-09
6.43396e-10
4.68736e-09
5.38555e-10
5.24168e-09
4.45557e-10
5.69664e-09
3.6651e-10
6.0697e-09
3.01184e-10
6.37643e-09
2.48209e-10
6.63007e-09
2.05816e-10
6.84156e-09
1.7224e-10
7.01981e-09
1.45899e-10
7.17203e-09
1.25453e-10
7.30403e-09
1.09805e-10
7.4205e-09
9.8071e-11
7.52524e-09
8.95482e-11
7.62133e-09
8.36765e-11
8.00005e-11
7.71131e-09
9.41585e-10
1.80065e-09
2.55469e-09
3.19809e-09
3.73664e-09
4.1822e-09
4.54871e-09
4.84989e-09
5.0981e-09
5.30392e-09
5.47616e-09
5.62206e-09
5.74751e-09
5.85731e-09
5.95539e-09
6.04493e-09
6.12861e-09
6.20861e-09
2.11793e-10
-2.11793e-10
4.24888e-10
-2.13095e-10
6.39128e-10
-2.14239e-10
8.54344e-10
-2.15217e-10
1.07037e-09
-2.16022e-10
1.28701e-09
-2.16648e-10
1.5041e-09
-2.17087e-10
1.72144e-09
-2.17335e-10
1.93882e-09
-2.17385e-10
2.15605e-09
-2.17232e-10
2.37293e-09
-2.16872e-10
2.58923e-09
-2.16301e-10
2.80474e-09
-2.15516e-10
3.01926e-09
-2.14516e-10
3.23256e-09
-2.13299e-10
3.44442e-09
-2.11866e-10
3.65464e-09
-2.10219e-10
3.863e-09
-2.08361e-10
4.0693e-09
-2.06296e-10
4.27333e-09
-2.0403e-10
4.4749e-09
-2.01568e-10
4.67382e-09
-1.98919e-10
4.86991e-09
-1.96091e-10
5.063e-09
-1.93094e-10
5.25294e-09
-1.89937e-10
5.43957e-09
-1.86633e-10
5.62276e-09
-1.83191e-10
5.80239e-09
-1.79625e-10
5.97833e-09
-1.75946e-10
6.1505e-09
-1.72166e-10
6.3188e-09
-1.68298e-10
6.48315e-09
-1.64354e-10
6.6435e-09
-1.60346e-10
6.79979e-09
-1.56285e-10
6.95197e-09
-1.52184e-10
7.10002e-09
-1.48052e-10
7.24392e-09
-1.43901e-10
7.38366e-09
-1.3974e-10
7.51924e-09
-1.3558e-10
7.65067e-09
-1.31428e-10
7.77796e-09
-1.27294e-10
7.90115e-09
-1.23184e-10
8.02025e-09
-1.19107e-10
8.13532e-09
-1.15069e-10
8.2464e-09
-1.11076e-10
8.35353e-09
-1.07134e-10
8.45678e-09
-1.03247e-10
8.5562e-09
-9.94204e-11
8.65186e-09
-9.56575e-11
8.74382e-09
-9.19624e-11
8.83216e-09
-8.83377e-11
8.91695e-09
-8.47865e-11
8.99826e-09
-8.13106e-11
9.07617e-09
-7.79123e-11
9.15076e-09
-7.45928e-11
9.22211e-09
-7.13535e-11
9.29031e-09
-6.81955e-11
9.35543e-09
-6.5119e-11
9.41755e-09
-6.21248e-11
9.47677e-09
-5.92128e-11
9.53315e-09
-5.6383e-11
9.58679e-09
-5.36352e-11
9.63775e-09
-5.0969e-11
9.68614e-09
-4.83836e-11
9.73202e-09
-4.58785e-11
9.77547e-09
-4.34526e-11
9.81657e-09
-4.1105e-11
9.85541e-09
-3.88346e-11
9.89205e-09
-3.66404e-11
9.92657e-09
-3.45206e-11
9.95904e-09
-3.24744e-11
9.98954e-09
-3.05e-11
1.00181e-08
-2.85959e-11
1.00449e-08
-2.67609e-11
1.00699e-08
-2.49932e-11
1.00932e-08
-2.32913e-11
1.01148e-08
-2.16534e-11
1.01349e-08
-2.00781e-11
1.01535e-08
-1.85635e-11
1.01706e-08
-1.71081e-11
1.01863e-08
-1.57101e-11
1.02007e-08
-1.43678e-11
1.02137e-08
-1.30798e-11
1.02256e-08
-1.18442e-11
1.02362e-08
-1.06594e-11
1.02458e-08
-9.5236e-12
1.02542e-08
-8.43547e-12
1.02616e-08
-7.39311e-12
1.0268e-08
-6.39511e-12
1.02734e-08
-5.43993e-12
1.0278e-08
-4.52582e-12
1.02816e-08
-3.65147e-12
1.02844e-08
-2.81519e-12
1.02864e-08
-2.01583e-12
1.02877e-08
-1.25156e-12
1.02882e-08
-5.21283e-13
1.0288e-08
1.76368e-13
1.02872e-08
8.43017e-13
1.02857e-08
1.47967e-12
1.02836e-08
2.08779e-12
1.0281e-08
2.66842e-12
1.02777e-08
3.22304e-12
1.0274e-08
3.75242e-12
1.02697e-08
4.2582e-12
1.0265e-08
4.74096e-12
1.02598e-08
5.20218e-12
1.02541e-08
5.64267e-12
1.02481e-08
6.06353e-12
1.02416e-08
6.46563e-12
1.02348e-08
6.84998e-12
1.02275e-08
7.21749e-12
1.022e-08
7.56902e-12
1.02121e-08
7.90529e-12
1.02038e-08
8.22721e-12
1.01953e-08
8.53555e-12
1.01865e-08
8.83114e-12
1.01774e-08
9.1144e-12
1.0168e-08
9.3865e-12
1.01583e-08
9.64751e-12
1.01484e-08
9.89863e-12
1.01383e-08
1.014e-11
1.01279e-08
1.03725e-11
1.01173e-08
1.05965e-11
1.01065e-08
1.08128e-11
1.00955e-08
1.10216e-11
1.00843e-08
1.12233e-11
1.00728e-08
1.14189e-11
1.00612e-08
1.16083e-11
1.00494e-08
1.17921e-11
1.00375e-08
1.19708e-11
1.00253e-08
1.21446e-11
1.0013e-08
1.23141e-11
1.00005e-08
1.24794e-11
9.9879e-09
1.2641e-11
9.9751e-09
1.27991e-11
9.96214e-09
1.29542e-11
9.94904e-09
1.31063e-11
9.93578e-09
1.3256e-11
9.92238e-09
1.34034e-11
9.90883e-09
1.35487e-11
9.89514e-09
1.36923e-11
9.8813e-09
1.38344e-11
9.86733e-09
1.39755e-11
9.85321e-09
1.41157e-11
9.83895e-09
1.42553e-11
9.82456e-09
1.43946e-11
9.81003e-09
1.4534e-11
9.79535e-09
1.4674e-11
9.78054e-09
1.48151e-11
9.76558e-09
1.49577e-11
9.75048e-09
1.51025e-11
9.73523e-09
1.52503e-11
9.71982e-09
1.54022e-11
9.70426e-09
1.55593e-11
9.68854e-09
1.57231e-11
9.67265e-09
1.58954e-11
9.65657e-09
1.60789e-11
9.64029e-09
1.62765e-11
9.6238e-09
1.64919e-11
9.60707e-09
1.67303e-11
9.59007e-09
1.69982e-11
9.57277e-09
1.73037e-11
9.55511e-09
1.7658e-11
9.53703e-09
1.80752e-11
9.51846e-09
1.85743e-11
9.49928e-09
1.91806e-11
9.47935e-09
1.99276e-11
9.45849e-09
2.08616e-11
9.43644e-09
2.20459e-11
9.41287e-09
2.35698e-11
9.38731e-09
2.55613e-11
9.3591e-09
2.82099e-11
9.3273e-09
3.18056e-11
9.29048e-09
3.68152e-11
9.24645e-09
4.40358e-11
9.1915e-09
5.49504e-11
9.11884e-09
7.26605e-11
9.01397e-09
1.04869e-10
8.83766e-09
1.76308e-10
4.01074e-10
8.43658e-09
2.12517e-10
-4.2431e-10
4.26339e-10
-4.26917e-10
6.41305e-10
-4.29206e-10
8.5725e-10
-4.31162e-10
1.074e-09
-4.32771e-10
1.29137e-09
-4.34019e-10
1.50918e-09
-4.34894e-10
1.72723e-09
-4.35383e-10
1.94531e-09
-4.35473e-10
2.16324e-09
-4.35155e-10
2.38078e-09
-4.34419e-10
2.59774e-09
-4.33258e-10
2.81389e-09
-4.31666e-10
3.02901e-09
-4.29639e-10
3.24289e-09
-4.27176e-10
3.4553e-09
-4.24278e-10
3.66603e-09
-4.20948e-10
3.87486e-09
-4.17194e-10
4.08159e-09
-4.13023e-10
4.28601e-09
-4.08446e-10
4.48792e-09
-4.03478e-10
4.68713e-09
-3.98134e-10
4.88347e-09
-3.92431e-10
5.07677e-09
-3.86389e-10
5.26686e-09
-3.80029e-10
5.4536e-09
-3.73374e-10
5.63685e-09
-3.66447e-10
5.8165e-09
-3.59271e-10
5.99243e-09
-3.51871e-10
6.16453e-09
-3.44273e-10
6.33273e-09
-3.365e-10
6.49696e-09
-3.28577e-10
6.65714e-09
-3.20529e-10
6.81323e-09
-3.12379e-10
6.9652e-09
-3.04149e-10
7.11301e-09
-2.95862e-10
7.25665e-09
-2.87539e-10
7.39611e-09
-2.79199e-10
7.53139e-09
-2.70862e-10
7.66251e-09
-2.62546e-10
7.78948e-09
-2.54266e-10
7.91233e-09
-2.46039e-10
8.0311e-09
-2.37878e-10
8.14583e-09
-2.29797e-10
8.25656e-09
-2.21808e-10
8.36335e-09
-2.13922e-10
8.46625e-09
-2.06149e-10
8.56533e-09
-1.98496e-10
8.66065e-09
-1.90973e-10
8.75227e-09
-1.83587e-10
8.84027e-09
-1.76342e-10
8.92473e-09
-1.69245e-10
9.00572e-09
-1.62299e-10
9.08332e-09
-1.55509e-10
9.1576e-09
-1.48877e-10
9.22865e-09
-1.42406e-10
9.29656e-09
-1.36098e-10
9.36139e-09
-1.29954e-10
9.42324e-09
-1.23973e-10
9.48218e-09
-1.18158e-10
9.53831e-09
-1.12507e-10
9.59169e-09
-1.0702e-10
9.64242e-09
-1.01697e-10
9.69057e-09
-9.65347e-11
9.73623e-09
-9.1533e-11
9.77946e-09
-8.669e-11
9.82036e-09
-8.20033e-11
9.859e-09
-7.7471e-11
9.89545e-09
-7.30904e-11
9.92979e-09
-6.88591e-11
9.96209e-09
-6.47743e-11
9.99242e-09
-6.08332e-11
1.00209e-08
-5.70328e-11
1.00475e-08
-5.33698e-11
1.00723e-08
-4.98415e-11
1.00955e-08
-4.64444e-11
1.0117e-08
-4.31753e-11
1.01369e-08
-4.00309e-11
1.01554e-08
-3.7008e-11
1.01724e-08
-3.4103e-11
1.0188e-08
-3.13128e-11
1.02023e-08
-2.86339e-11
1.02152e-08
-2.60632e-11
1.0227e-08
-2.35969e-11
1.02376e-08
-2.12321e-11
1.0247e-08
-1.89652e-11
1.02554e-08
-1.67934e-11
1.02627e-08
-1.4713e-11
1.0269e-08
-1.27211e-11
1.02744e-08
-1.08145e-11
1.02788e-08
-8.99006e-12
1.02824e-08
-7.2448e-12
1.02852e-08
-5.57581e-12
1.02872e-08
-3.98009e-12
1.02884e-08
-2.4548e-12
1.02888e-08
-9.97145e-13
1.02886e-08
3.95698e-13
1.02877e-08
1.7261e-12
1.02862e-08
2.99712e-12
1.02841e-08
4.21083e-12
1.02814e-08
5.37005e-12
1.02781e-08
6.4769e-12
1.02744e-08
7.53398e-12
1.02701e-08
8.54346e-12
1.02653e-08
9.50742e-12
1.02601e-08
1.04281e-11
1.02544e-08
1.13075e-11
1.02483e-08
1.21477e-11
1.02419e-08
1.29505e-11
1.0235e-08
1.3718e-11
1.02277e-08
1.44517e-11
1.02202e-08
1.51535e-11
1.02122e-08
1.5825e-11
1.0204e-08
1.6468e-11
1.01955e-08
1.70836e-11
1.01866e-08
1.76738e-11
1.01775e-08
1.82398e-11
1.01681e-08
1.87828e-11
1.01584e-08
1.93043e-11
1.01485e-08
1.98057e-11
1.01384e-08
2.0288e-11
1.0128e-08
2.07523e-11
1.01174e-08
2.11999e-11
1.01066e-08
2.16316e-11
1.00955e-08
2.20488e-11
1.00843e-08
2.24521e-11
1.00729e-08
2.28425e-11
1.00613e-08
2.3221e-11
1.00495e-08
2.35884e-11
1.00375e-08
2.39454e-11
1.00254e-08
2.42928e-11
1.0013e-08
2.46314e-11
1.00006e-08
2.49617e-11
9.98792e-09
2.52846e-11
9.97512e-09
2.56008e-11
9.96216e-09
2.59105e-11
9.94906e-09
2.62147e-11
9.9358e-09
2.65137e-11
9.92239e-09
2.68082e-11
9.90884e-09
2.70988e-11
9.89515e-09
2.7386e-11
9.88131e-09
2.76701e-11
9.86734e-09
2.79521e-11
9.85322e-09
2.82321e-11
9.83897e-09
2.85112e-11
9.82457e-09
2.87897e-11
9.81004e-09
2.90685e-11
9.79536e-09
2.93482e-11
9.78055e-09
2.96301e-11
9.76559e-09
2.99151e-11
9.75049e-09
3.02044e-11
9.73524e-09
3.04999e-11
9.71984e-09
3.08031e-11
9.70428e-09
3.11169e-11
9.68856e-09
3.1444e-11
9.67266e-09
3.17883e-11
9.65659e-09
3.21543e-11
9.64032e-09
3.25483e-11
9.62383e-09
3.29779e-11
9.60711e-09
3.34531e-11
9.59012e-09
3.39868e-11
9.57283e-09
3.45953e-11
9.55519e-09
3.53004e-11
9.53713e-09
3.61306e-11
9.51858e-09
3.71231e-11
9.49943e-09
3.83279e-11
9.47955e-09
3.98119e-11
9.45875e-09
4.1666e-11
9.43678e-09
4.40154e-11
9.41331e-09
4.7036e-11
9.38789e-09
5.09794e-11
9.35989e-09
5.6216e-11
9.32838e-09
6.33117e-11
9.29203e-09
7.31678e-11
9.24875e-09
8.73084e-11
9.19519e-09
1.08513e-10
9.12546e-09
1.42391e-10
9.02844e-09
2.01893e-10
8.88243e-09
3.22314e-10
6.16521e-10
8.66699e-09
2.13969e-10
-6.38279e-10
4.29248e-10
-6.42196e-10
6.45676e-10
-6.45634e-10
8.63083e-10
-6.48569e-10
1.08129e-09
-6.50981e-10
1.30012e-09
-6.52848e-10
1.51938e-09
-6.54149e-10
1.73886e-09
-6.54865e-10
1.95836e-09
-6.54977e-10
2.17768e-09
-6.5447e-10
2.39658e-09
-6.53327e-10
2.61486e-09
-6.51538e-10
2.83229e-09
-6.49094e-10
3.04864e-09
-6.45988e-10
3.26368e-09
-6.42219e-10
3.4772e-09
-6.37789e-10
3.68895e-09
-6.32704e-10
3.89873e-09
-6.26974e-10
4.10632e-09
-6.20613e-10
4.31151e-09
-6.13638e-10
4.51411e-09
-6.06071e-10
4.71391e-09
-5.97938e-10
4.91074e-09
-5.89265e-10
5.10444e-09
-5.80083e-10
5.29484e-09
-5.70426e-10
5.48179e-09
-5.60327e-10
5.66516e-09
-5.49823e-10
5.84484e-09
-5.3895e-10
6.02072e-09
-5.27747e-10
6.1927e-09
-5.1625e-10
6.3607e-09
-5.04498e-10
6.52465e-09
-4.92528e-10
6.68449e-09
-4.80377e-10
6.84019e-09
-4.68079e-10
6.99171e-09
-4.55669e-10
7.13903e-09
-4.4318e-10
7.28214e-09
-4.30643e-10
7.42103e-09
-4.18089e-10
7.55571e-09
-4.05545e-10
7.6862e-09
-3.93037e-10
7.81252e-09
-3.80591e-10
7.93471e-09
-3.68229e-10
8.05281e-09
-3.55971e-10
8.16685e-09
-3.43839e-10
8.27689e-09
-3.31848e-10
8.38298e-09
-3.20016e-10
8.48519e-09
-3.08356e-10
8.58358e-09
-2.96882e-10
8.67821e-09
-2.85604e-10
8.76915e-09
-2.74533e-10
8.85649e-09
-2.63678e-10
8.94029e-09
-2.53045e-10
9.02063e-09
-2.42642e-10
9.0976e-09
-2.32474e-10
9.17126e-09
-2.22545e-10
9.24172e-09
-2.12857e-10
9.30903e-09
-2.03415e-10
9.3733e-09
-1.94219e-10
9.43459e-09
-1.8527e-10
9.493e-09
-1.76568e-10
9.54861e-09
-1.68114e-10
9.6015e-09
-1.59906e-10
9.65174e-09
-1.51942e-10
9.69943e-09
-1.44221e-10
9.74464e-09
-1.3674e-10
9.78744e-09
-1.29497e-10
9.82793e-09
-1.22489e-10
9.86617e-09
-1.15711e-10
9.90224e-09
-1.09161e-10
9.93621e-09
-1.02834e-10
9.96817e-09
-9.67262e-11
9.99817e-09
-9.08337e-11
1.00263e-08
-8.51515e-11
1.00526e-08
-7.96754e-11
1.00771e-08
-7.44004e-11
1.01e-08
-6.93218e-11
1.01213e-08
-6.44346e-11
1.0141e-08
-5.9734e-11
1.01592e-08
-5.52149e-11
1.0176e-08
-5.08723e-11
1.01914e-08
-4.67013e-11
1.02054e-08
-4.26967e-11
1.02182e-08
-3.88536e-11
1.02298e-08
-3.5167e-11
1.02402e-08
-3.16319e-11
1.02495e-08
-2.82433e-11
1.02577e-08
-2.49966e-11
1.02648e-08
-2.18867e-11
1.0271e-08
-1.89089e-11
1.02763e-08
-1.60588e-11
1.02806e-08
-1.33314e-11
1.02841e-08
-1.07224e-11
1.02867e-08
-8.22732e-12
1.02886e-08
-5.84165e-12
1.02897e-08
-3.56132e-12
1.02901e-08
-1.38206e-12
1.02898e-08
7.00192e-13
1.02888e-08
2.68952e-12
1.02872e-08
4.58959e-12
1.0285e-08
6.40449e-12
1.02823e-08
8.13769e-12
1.02789e-08
9.79287e-12
1.02751e-08
1.13735e-11
1.02708e-08
1.28829e-11
1.0266e-08
1.43244e-11
1.02607e-08
1.57013e-11
1.0255e-08
1.70165e-11
1.02488e-08
1.82732e-11
1.02423e-08
1.9474e-11
1.02354e-08
2.06217e-11
1.02282e-08
2.17193e-11
1.02205e-08
2.27691e-11
1.02126e-08
2.37736e-11
1.02043e-08
2.47354e-11
1.01957e-08
2.56567e-11
1.01869e-08
2.65397e-11
1.01777e-08
2.73864e-11
1.01683e-08
2.81991e-11
1.01586e-08
2.89796e-11
1.01487e-08
2.97298e-11
1.01386e-08
3.04516e-11
1.01282e-08
3.11467e-11
1.01175e-08
3.18166e-11
1.01067e-08
3.24631e-11
1.00957e-08
3.30874e-11
1.00844e-08
3.36913e-11
1.0073e-08
3.4276e-11
1.00614e-08
3.48427e-11
1.00496e-08
3.53928e-11
1.00376e-08
3.59275e-11
1.00254e-08
3.64478e-11
1.00131e-08
3.69549e-11
1.00006e-08
3.74499e-11
9.98798e-09
3.79337e-11
9.97517e-09
3.84071e-11
9.96221e-09
3.88713e-11
9.9491e-09
3.9327e-11
9.93584e-09
3.97752e-11
9.92243e-09
4.02165e-11
9.90887e-09
4.06518e-11
9.89518e-09
4.10821e-11
9.88134e-09
4.15081e-11
9.86736e-09
4.19306e-11
9.85324e-09
4.23503e-11
9.83899e-09
4.27685e-11
9.82459e-09
4.31859e-11
9.81006e-09
4.36035e-11
9.79538e-09
4.40229e-11
9.78057e-09
4.44451e-11
9.76561e-09
4.4872e-11
9.75051e-09
4.53055e-11
9.73526e-09
4.57478e-11
9.71986e-09
4.62019e-11
9.70431e-09
4.66715e-11
9.68859e-09
4.71608e-11
9.6727e-09
4.76755e-11
9.65663e-09
4.82226e-11
9.64037e-09
4.88111e-11
9.6239e-09
4.94524e-11
9.60719e-09
5.01613e-11
9.59022e-09
5.09566e-11
9.57295e-09
5.18629e-11
9.55534e-09
5.29123e-11
9.53732e-09
5.41466e-11
9.51883e-09
5.56213e-11
9.49974e-09
5.74096e-11
9.47994e-09
5.96104e-11
9.45925e-09
6.23574e-11
9.43743e-09
6.58342e-11
9.41417e-09
7.0298e-11
9.38904e-09
7.61153e-11
9.36143e-09
8.38231e-11
9.33051e-09
9.42331e-11
9.29505e-09
1.08625e-10
9.25324e-09
1.29124e-10
9.20226e-09
1.59491e-10
9.13769e-09
2.06959e-10
9.05279e-09
2.86791e-10
8.94088e-09
4.34226e-10
7.31879e-10
8.82552e-09
2.16159e-10
-8.54438e-10
4.33634e-10
-8.59671e-10
6.52265e-10
-8.64265e-10
8.7188e-10
-8.68184e-10
1.0923e-09
-8.71399e-10
1.31333e-09
-8.73879e-10
1.53478e-09
-8.75596e-10
1.75643e-09
-8.76523e-10
1.97809e-09
-8.76632e-10
2.19952e-09
-8.75899e-10
2.4205e-09
-8.74305e-10
2.64079e-09
-8.71832e-10
2.86016e-09
-8.68467e-10
3.07838e-09
-8.64202e-10
3.2952e-09
-8.59036e-10
3.51038e-09
-8.52972e-10
3.72369e-09
-8.46018e-10
3.93491e-09
-8.3819e-10
4.1438e-09
-8.29508e-10
4.35016e-09
-8.19998e-10
4.55378e-09
-8.09692e-10
4.75447e-09
-7.98623e-10
4.95204e-09
-7.86834e-10
5.14632e-09
-7.74366e-10
5.33716e-09
-7.61265e-10
5.52441e-09
-7.4758e-10
5.70795e-09
-7.33361e-10
5.88766e-09
-7.18659e-10
6.06344e-09
-7.03526e-10
6.2352e-09
-6.88012e-10
6.40287e-09
-6.7217e-10
6.56639e-09
-6.56049e-10
6.72572e-09
-6.39699e-10
6.8808e-09
-6.23167e-10
7.03163e-09
-6.06499e-10
7.17819e-09
-5.89739e-10
7.32048e-09
-5.72928e-10
7.4585e-09
-5.56106e-10
7.59226e-09
-5.3931e-10
7.7218e-09
-5.22574e-10
7.84714e-09
-5.0593e-10
7.96832e-09
-4.89409e-10
8.08538e-09
-4.73037e-10
8.19839e-09
-4.56841e-10
8.30738e-09
-4.40841e-10
8.41242e-09
-4.2506e-10
8.51358e-09
-4.09516e-10
8.61093e-09
-3.94225e-10
8.70452e-09
-3.79201e-10
8.79445e-09
-3.64458e-10
8.88078e-09
-3.50007e-10
8.96359e-09
-3.35857e-10
9.04296e-09
-3.22015e-10
9.11898e-09
-3.0849e-10
9.19172e-09
-2.95285e-10
9.26127e-09
-2.82405e-10
9.3277e-09
-2.69853e-10
9.39112e-09
-2.5763e-10
9.45158e-09
-2.45738e-10
9.50919e-09
-2.34177e-10
9.56402e-09
-2.22945e-10
9.61616e-09
-2.12042e-10
9.66568e-09
-2.01465e-10
9.71267e-09
-1.91212e-10
9.75721e-09
-1.81278e-10
9.79938e-09
-1.71661e-10
9.83924e-09
-1.62356e-10
9.87689e-09
-1.53358e-10
9.91239e-09
-1.44662e-10
9.94582e-09
-1.36264e-10
9.97725e-09
-1.28157e-10
1.00068e-08
-1.20336e-10
1.00344e-08
-1.12795e-10
1.00602e-08
-1.05527e-10
1.00844e-08
-9.85265e-11
1.01068e-08
-9.17867e-11
1.01277e-08
-8.53013e-11
1.0147e-08
-7.90634e-11
1.01649e-08
-7.30667e-11
1.01813e-08
-6.73041e-11
1.01964e-08
-6.17694e-11
1.02101e-08
-5.64555e-11
1.02226e-08
-5.13559e-11
1.02339e-08
-4.64641e-11
1.02441e-08
-4.17731e-11
1.02531e-08
-3.72768e-11
1.02611e-08
-3.29684e-11
1.0268e-08
-2.88419e-11
1.0274e-08
-2.48905e-11
1.02791e-08
-2.11082e-11
1.02832e-08
-1.7489e-11
1.02865e-08
-1.40268e-11
1.0289e-08
-1.07156e-11
1.02907e-08
-7.54966e-12
1.02917e-08
-4.52349e-12
1.02919e-08
-1.63128e-12
1.02915e-08
1.13237e-12
1.02904e-08
3.77264e-12
1.02887e-08
6.29458e-12
1.02864e-08
8.70358e-12
1.02836e-08
1.10041e-11
1.02802e-08
1.32013e-11
1.02762e-08
1.52996e-11
1.02718e-08
1.73034e-11
1.02669e-08
1.92173e-11
1.02616e-08
2.10453e-11
1.02558e-08
2.27917e-11
1.02496e-08
2.44602e-11
1.0243e-08
2.60548e-11
1.02361e-08
2.75791e-11
1.02288e-08
2.90366e-11
1.02211e-08
3.04311e-11
1.02131e-08
3.17655e-11
1.02048e-08
3.3043e-11
1.01962e-08
3.42669e-11
1.01873e-08
3.54401e-11
1.01781e-08
3.65652e-11
1.01687e-08
3.7645e-11
1.0159e-08
3.86824e-11
1.0149e-08
3.96795e-11
1.01388e-08
4.06388e-11
1.01284e-08
4.15629e-11
1.01178e-08
4.24535e-11
1.01069e-08
4.3313e-11
1.00959e-08
4.41433e-11
1.00846e-08
4.49463e-11
1.00732e-08
4.5724e-11
1.00615e-08
4.64777e-11
1.00497e-08
4.72096e-11
1.00377e-08
4.79209e-11
1.00255e-08
4.86132e-11
1.00132e-08
4.9288e-11
1.00007e-08
4.99467e-11
9.98806e-09
5.05906e-11
9.97524e-09