/*--------------------------------*- C++ -*----------------------------------*\
  =========                 |
  \\      /  F ield         | OpenFOAM: The Open Source CFD Toolbox
   \\    /   O peration     | Website:  https://openfoam.org
    \\  /    A nd           | Version:  10
     \\/     M anipulation  |
\*---------------------------------------------------------------------------*/
FoamFile
{
    format      ascii;
    class       volVectorField;
    location    "0.66";
    object      Ub;
}
// * * * * * * * * * * * * * * * * * * * * * * * * * * * * * * * * * * * * * //

dimensions      [0 1 -1 0 0 0 0];

internalField   nonuniform List<vector> 
12225
(
(0.00205712 -0.000419888 0)
(0.00586833 -0.000373624 0)
(0.009002 -0.000307194 0)
(0.0114136 -0.000240744 0)
(0.0131993 -0.000184656 0)
(0.0145028 -0.000141898 0)
(0.0154626 -0.000111724 0)
(0.0161926 -9.22052e-05 0)
(0.0167812 -8.15106e-05 0)
(0.0172961 -7.84498e-05 0)
(0.0177931 -8.27471e-05 0)
(0.0183233 -9.53744e-05 0)
(0.0189441 -0.000119316 0)
(0.0197357 -0.000161586 0)
(0.0208359 -0.000239176 0)
(0.0225431 -0.000400323 0)
(0.0257158 -0.000825829 0)
(0.034048 -0.00251223 0)
(0.00223959 -0.00132811 0)
(0.00638129 -0.00117986 0)
(0.00977194 -0.000967991 0)
(0.0123686 -0.00075684 0)
(0.0142825 -0.000579201 0)
(0.0156748 -0.000444163 0)
(0.0166979 -0.000349099 0)
(0.0174758 -0.000287735 0)
(0.0181035 -0.000254163 0)
(0.0186536 -0.000244536 0)
(0.0191844 -0.000257882 0)
(0.0197493 -0.000297086 0)
(0.0204065 -0.000371152 0)
(0.0212347 -0.000501067 0)
(0.0223627 -0.000736457 0)
(0.0240364 -0.00121068 0)
(0.0267555 -0.00236492 0)
(0.0309268 -0.00609639 0)
(0.00236336 -0.00236832 0)
(0.00672088 -0.00209819 0)
(0.0102617 -0.00171502 0)
(0.0129483 -0.00133555 0)
(0.0149094 -0.00101804 0)
(0.016322 -0.000777794 0)
(0.0173504 -0.000609321 0)
(0.0181257 -0.000500895 0)
(0.018747 -0.000441658 0)
(0.0192887 -0.000424497 0)
(0.0198097 -0.000447357 0)
(0.0203621 -0.00051477 0)
(0.0210008 -0.000641354 0)
(0.0217947 -0.000860622 0)
(0.0228438 -0.00124832 0)
(0.0242962 -0.00198972 0)
(0.0262806 -0.00358986 0)
(0.0281105 -0.00749731 0)
(0.0024856 -0.0035418 0)
(0.00704984 -0.00312612 0)
(0.0107209 -0.00254227 0)
(0.0134717 -0.00196902 0)
(0.0154536 -0.00149295 0)
(0.0168631 -0.00113495 0)
(0.017877 -0.000885146 0)
(0.018633 -0.000724947 0)
(0.0192332 -0.000637481 0)
(0.0197528 -0.000611625 0)
(0.0202496 -0.000643651 0)
(0.0207728 -0.000739046 0)
(0.0213706 -0.000916674 0)
(0.0220968 -0.00121879 0)
(0.0230139 -0.00173506 0)
(0.0241709 -0.00265994 0)
(0.0254627 -0.00441851 0)
(0.0260539 -0.00780578 0)
(0.00262237 -0.00486589 0)
(0.0074113 -0.00427373 0)
(0.0112103 -0.00345255 0)
(0.0140097 -0.00265549 0)
(0.0159922 -0.00200005 0)
(0.0173792 -0.00151115 0)
(0.0183616 -0.00117216 0)
(0.0190842 -0.0009557 0)
(0.0196511 -0.000837552 0)
(0.0201371 -0.00080163 0)
(0.0205979 -0.000841709 0)
(0.0210779 -0.000963131 0)
(0.0216166 -0.00118682 0)
(0.0222497 -0.00155847 0)
(0.023002 -0.00216783 0)
(0.0238478 -0.003184 0)
(0.0245817 -0.00489515 0)
(0.0245328 -0.00761103 0)
(0.00278572 -0.0063676 0)
(0.00783562 -0.00555677 0)
(0.0117683 -0.00445065 0)
(0.0146022 -0.00339311 0)
(0.0165641 -0.00253459 0)
(0.0179074 -0.00190084 0)
(0.01884 -0.00146494 0)
(0.0195138 -0.00118809 0)
(0.0200345 -0.00103703 0)
(0.0204753 -0.000989514 0)
(0.0208883 -0.00103576 0)
(0.021312 -0.00117951 0)
(0.0217757 -0.00144103 0)
(0.0222972 -0.00186373 0)
(0.0228703 -0.00252567 0)
(0.0234259 -0.00355177 0)
(0.023747 -0.00509821 0)
(0.0233777 -0.00720081 0)
(0.00298908 -0.00808539 0)
(0.00835474 -0.00699632 0)
(0.0124314 -0.00554176 0)
(0.0152828 -0.0041781 0)
(0.017198 -0.00308925 0)
(0.0184721 -0.00229608 0)
(0.0193334 -0.00175603 0)
(0.019941 -0.0014154 0)
(0.0204011 -0.00122966 0)
(0.0207841 -0.00116902 0)
(0.0211374 -0.00121889 0)
(0.0214926 -0.00137973 0)
(0.0218684 -0.00166831 0)
(0.0222672 -0.00212081 0)
(0.022662 -0.0027961 0)
(0.0229675 -0.00377122 0)
(0.023 -0.00510351 0)
(0.0224798 -0.0067083 0)
(0.00325035 -0.0100737 0)
(0.00900915 -0.00861954 0)
(0.013242 -0.00673001 0)
(0.0160865 -0.00500283 0)
(0.0179206 -0.00365258 0)
(0.0190936 -0.00268536 0)
(0.0198577 -0.00203516 0)
(0.0203787 -0.00162863 0)
(0.020762 -0.00140736 0)
(0.0210738 -0.0013324 0)
(0.0213554 -0.00138296 0)
(0.0216309 -0.00155457 0)
(0.0219095 -0.00185807 0)
(0.0221818 -0.00231894 0)
(0.0224102 -0.00297434 0)
(0.0225123 -0.00385985 0)
(0.0223511 -0.0049716 0)
(0.0217692 -0.00619182 0)
(0.0035956 -0.0124108 0)
(0.00985527 -0.0104607 0)
(0.0142545 -0.00801593 0)
(0.0170542 -0.00585296 0)
(0.0187597 -0.00420676 0)
(0.0197904 -0.0030521 0)
(0.0204254 -0.00228822 0)
(0.0208361 -0.00181595 0)
(0.0211246 -0.00155989 0)
(0.021351 -0.00147021 0)
(0.0215493 -0.00151865 0)
(0.0217358 -0.00169442 0)
(0.0219116 -0.00200066 0)
(0.0220598 -0.00245078 0)
(0.0221403 -0.00306157 0)
(0.0220837 -0.00383824 0)
(0.0217973 -0.00474615 0)
(0.0211996 -0.0056749 0)
(0.00406527 -0.0152129 0)
(0.0109764 -0.0125616 0)
(0.0155426 -0.00939176 0)
(0.0182354 -0.00670276 0)
(0.0197453 -0.0047244 0)
(0.0205799 -0.00337271 0)
(0.021047 -0.00249618 0)
(0.0213199 -0.00196204 0)
(0.0214938 -0.00167453 0)
(0.0216201 -0.0015713 0)
(0.0217242 -0.00161568 0)
(0.0218147 -0.00178961 0)
(0.0218858 -0.00208787 0)
(0.021917 -0.00251215 0)
(0.021871 -0.00306281 0)
(0.0216946 -0.00372607 0)
(0.0213297 -0.00445669 0)
(0.0207391 -0.00516549 0)
(0.00472552 -0.0186579 0)
(0.0125016 -0.0149698 0)
(0.0172088 -0.010832 0)
(0.0196915 -0.00750749 0)
(0.0209094 -0.00516393 0)
(0.021478 -0.00361417 0)
(0.02173 -0.00263383 0)
(0.0218336 -0.00204755 0)
(0.0218718 -0.00173587 0)
(0.0218835 -0.00162286 0)
(0.0218841 -0.00166299 0)
(0.0218738 -0.00183081 0)
(0.0218418 -0.00211307 0)
(0.0217662 -0.00250153 0)
(0.021615 -0.00298501 0)
(0.0213503 -0.00354007 0)
(0.0209382 -0.00412224 0)
(0.0203653 -0.00466473 0)
(0.00562263 -0.0226133 0)
(0.0144915 -0.0174894 0)
(0.0192531 -0.0121663 0)
(0.0213836 -0.00815048 0)
(0.022204 -0.00545291 0)
(0.0224427 -0.00373277 0)
(0.0224432 -0.00267448 0)
(0.0223575 -0.00205541 0)
(0.0222491 -0.00173226 0)
(0.0221413 -0.0016165 0)
(0.022038 -0.00165483 0)
(0.0219319 -0.00181563 0)
(0.0218076 -0.00207928 0)
(0.0216432 -0.0024306 0)
(0.0214121 -0.0028518 0)
(0.0210872 -0.0033162 0)
(0.0206488 -0.00378465 0)
(0.0200941 -0.00420818 0)
(0.0068742 -0.027704 0)
(0.0171348 -0.0202884 0)
(0.0217678 -0.0133745 0)
(0.023327 -0.00857385 0)
(0.0236072 -0.00553965 0)
(0.0234366 -0.0036897 0)
(0.0231442 -0.00259006 0)
(0.0228479 -0.00196522 0)
(0.0225826 -0.00164863 0)
(0.0223513 -0.00154101 0)
(0.0221444 -0.00158302 0)
(0.0219465 -0.00173849 0)
(0.0217384 -0.00198343 0)
(0.0214984 -0.00229844 0)
(0.0212043 -0.00266282 0)
(0.0208371 -0.00305057 0)
(0.0203859 -0.0034293 0)
(0.0198529 -0.00376357 0)
(0.00912819 -0.0356767 0)
(0.0215922 -0.0237356 0)
(0.0255828 -0.0143718 0)
(0.0260342 -0.00862391 0)
(0.0254396 -0.00529358 0)
(0.0246725 -0.00338682 0)
(0.0239823 -0.00230807 0)
(0.0234142 -0.00172263 0)
(0.0229545 -0.0014432 0)
(0.0225758 -0.00136315 0)
(0.0222505 -0.00141997 0)
(0.0219526 -0.00157512 0)
(0.021658 -0.0018024 0)
(0.021345 -0.00208061 0)
(0.0209949 -0.00238895 0)
(0.0205944 -0.00270463 0)
(0.0201377 -0.00300292 0)
(0.0196289 -0.00325987 0)
(0.0137292 -0.0496317 0)
(0.029854 -0.0272648 0)
(0.031561 -0.0142828 0)
(0.0297755 -0.00770633 0)
(0.0277555 -0.00435407 0)
(0.0261374 -0.0026028 0)
(0.024928 -0.00168594 0)
(0.0240269 -0.00123031 0)
(0.0233405 -0.00104543 0)
(0.0227975 -0.00102883 0)
(0.0223455 -0.00112202 0)
(0.0219452 -0.00128922 0)
(0.0215667 -0.00150601 0)
(0.0211873 -0.00175292 0)
(0.0207905 -0.00201211 0)
(0.0203661 -0.00226589 0)
(0.0199108 -0.00249721 0)
(0.0194276 -0.00269117 0)
(0.0249082 -0.0786163 0)
(0.0472619 -0.026792 0)
(0.0409381 -0.0105383 0)
(0.0345961 -0.00458763 0)
(0.0303803 -0.00211746 0)
(0.0276648 -0.00101856 0)
(0.0258629 -0.000538539 0)
(0.0246106 -0.00036826 0)
(0.0236935 -0.000369367 0)
(0.0229849 -0.000472031 0)
(0.0224068 -0.000636581 0)
(0.0219078 -0.000838563 0)
(0.0214528 -0.0010611 0)
(0.0210177 -0.00129063 0)
(0.0205863 -0.00151505 0)
(0.0201494 -0.00172309 0)
(0.019703 -0.00190475 0)
(0.0192481 -0.00205214 0)
(0.0594466 0.00128521 0)
(0.0910615 0.00362231 0)
(0.0534186 0.00310592 0)
(0.0392386 0.00253377 0)
(0.0325485 0.00206868 0)
(0.0288325 0.00167024 0)
(0.0265236 0.00131082 0)
(0.0249705 0.00097912 0)
(0.0238585 0.000666078 0)
(0.0230158 0.000367127 0)
(0.0223412 8.15444e-05 0)
(0.0217718 -0.000189623 0)
(0.0212674 -0.0004439 0)
(0.0208013 -0.000677907 0)
(0.0203568 -0.000888471 0)
(0.019924 -0.00107151 0)
(0.019498 -0.00122347 0)
(0.0190772 -0.00134198 0)
(0.0205037 0.076729 0)
(0.0405654 0.0324483 0)
(0.0374929 0.0168661 0)
(0.0327545 0.0101558 0)
(0.0291877 0.00674293 0)
(0.0267271 0.0047607 0)
(0.0250182 0.00348098 0)
(0.0237918 0.00258324 0)
(0.0228747 0.00191111 0)
(0.0221577 0.00138225 0)
(0.021571 0.000951021 0)
(0.0210691 0.000591179 0)
(0.0206225 0.000287746 0)
(0.0202118 3.1949e-05 0)
(0.0198247 -0.000182125 0)
(0.0194533 -0.00035755 0)
(0.0190929 -0.0004955 0)
(0.0187414 -0.000599051 0)
(0.00785255 0.0409023 0)
(0.0188009 0.0282813 0)
(0.0227131 0.0189373 0)
(0.0235072 0.0129832 0)
(0.0232114 0.00920585 0)
(0.0226237 0.00673017 0)
(0.0220195 0.00503845 0)
(0.0214773 0.0038338 0)
(0.0210074 0.00294364 0)
(0.0205989 0.002265 0)
(0.0202373 0.0017347 0)
(0.0199093 0.00131297 0)
(0.0196049 0.000974205 0)
(0.0193167 0.00070148 0)
(0.0190398 0.000483301 0)
(0.0187711 0.00031159 0)
(0.0185092 0.000181314 0)
(0.0182537 8.65617e-05 0)
(0.00429559 0.0249113 0)
(0.0112809 0.0205884 0)
(0.0154147 0.015946 0)
(0.0175728 0.0121179 0)
(0.0186144 0.00921572 0)
(0.0190727 0.00706848 0)
(0.0192354 0.00547945 0)
(0.0192488 0.0042908 0)
(0.0191858 0.00338858 0)
(0.0190822 0.00269357 0)
(0.0189558 0.00215127 0)
(0.0188153 0.00172416 0)
(0.0186656 0.00138616 0)
(0.0185094 0.00111895 0)
(0.0183486 0.000909388 0)
(0.0181849 0.000747848 0)
(0.0180195 0.000627075 0)
(0.0178536 0.000541312 0)
(0.002966 0.0175746 0)
(0.00813809 0.0154545 0)
(0.0118115 0.0127746 0)
(0.0142065 0.0102544 0)
(0.0157091 0.00814153 0)
(0.0166381 0.00645602 0)
(0.0172088 0.00513801 0)
(0.0175554 0.00411269 0)
(0.0177594 0.00331344 0)
(0.0178699 0.0026873 0)
(0.0179173 0.00219419 0)
(0.0179206 0.00180446 0)
(0.0178924 0.00149631 0)
(0.0178413 0.0012537 0)
(0.0177735 0.0010647 0)
(0.0176934 0.000920365 0)
(0.0176047 0.000813812 0)
(0.0175099 0.000739648 0)
(0.00230393 0.0129479 0)
(0.00647029 0.0117374 0)
(0.0097126 0.0100654 0)
(0.0120706 0.00836192 0)
(0.0137294 0.0068362 0)
(0.0148812 0.00555366 0)
(0.0156789 0.00450945 0)
(0.0162316 0.00367212 0)
(0.016614 0.00300484 0)
(0.0168762 0.00247399 0)
(0.0170525 0.00205174 0)
(0.0171661 0.00171612 0)
(0.0172336 0.00145016 0)
(0.0172668 0.00124093 0)
(0.0172743 0.00107853 0)
(0.0172628 0.000955359 0)
(0.0172372 0.000865536 0)
(0.0172013 0.000804425 0)
(0.001927 0.0097158 0)
(0.00548414 0.00895798 0)
(0.00839904 0.0078547 0)
(0.0106565 0.00667213 0)
(0.012351 0.0055653 0)
(0.0136043 0.00460052 0)
(0.0145264 0.00379193 0)
(0.0152043 0.00312881 0)
(0.0157029 0.00259133 0)
(0.0160695 0.00215844 0)
(0.016338 0.00181118 0)
(0.0165333 0.0015337 0)
(0.0166734 0.00131329 0)
(0.0167719 0.0011399 0)
(0.0168388 0.00100571 0)
(0.0168819 0.000904616 0)
(0.0169073 0.00083184 0)
(0.0169194 0.000783628 0)
(0.00169122 0.00730915 0)
(0.00485225 0.00680902 0)
(0.00752534 0.00605579 0)
(0.0096779 0.00522112 0)
(0.0113607 0.00441629 0)
(0.0126552 0.00369684 0)
(0.0136436 0.00308134 0)
(0.0143964 0.00256828 0)
(0.0149698 0.00214718 0)
(0.015407 0.00180486 0)
(0.0157405 0.00152846 0)
(0.0159951 0.00130672 0)
(0.0161894 0.00113026 0)
(0.0163376 0.000991512 0)
(0.0164505 0.000884481 0)
(0.0165367 0.000804427 0)
(0.0166026 0.00074763 0)
(0.0166534 0.000711164 0)
(0.0015326 0.00544146 0)
(0.00442 0.00510322 0)
(0.00691139 0.0045817 0)
(0.00896915 0.00399068 0)
(0.0106214 0.00340905 0)
(0.0119259 0.00287993 0)
(0.0129469 0.00242065 0)
(0.0137429 0.00203333 0)
(0.0143632 0.00171256 0)
(0.0148473 0.00145005 0)
(0.0152259 0.00123712 0)
(0.0155231 0.00106583 0)
(0.0157574 0.000929416 0)
(0.0159431 0.000822307 0)
(0.0160916 0.000740021 0)
(0.0162115 0.000679001 0)
(0.0163097 0.000636442 0)
(0.0163917 0.000610148 0)
(0.00141867 0.00395198 0)
(0.00410549 0.00372318 0)
(0.00645493 0.00336431 0)
(0.0084286 0.00295125 0)
(0.0100422 0.00253901 0)
(0.0113393 0.00215941 0)
(0.0123719 0.00182656 0)
(0.0131903 0.00154357 0)
(0.0138384 0.00130772 0)
(0.0143525 0.00111383 0)
(0.0147616 0.000956104 0)
(0.0150889 0.000829058 0)
(0.0153524 0.000727923 0)
(0.0155665 0.00064872 0)
(0.0157424 0.000588215 0)
(0.0158889 0.000543828 0)
(0.0160131 0.000513524 0)
(0.0161206 0.000495719 0)
(0.00133071 0.002743 0)
(0.00385992 0.00259239 0)
(0.00609159 0.00235302 0)
(0.00798804 0.00207449 0)
(0.00955794 0.00179382 0)
(0.0108357 0.00153321 0)
(0.0118654 0.0013031 0)
(0.0126914 0.00110637 0)
(0.0133534 0.000941736 0)
(0.0138849 0.000806012 0)
(0.0143135 0.000695442 0)
(0.0146613 0.000606389 0)
(0.0149459 0.000535632 0)
(0.0151812 0.000480455 0)
(0.0153783 0.00043864 0)
(0.0155461 0.00040841 0)
(0.0156916 0.000388362 0)
(0.0158204 0.000377408 0)
(0.00125572 0.00175179 0)
(0.0036483 0.00165932 0)
(0.0057725 0.00151079 0)
(0.00759192 0.00133661 0)
(0.00911111 0.00115993 0)
(0.0103586 0.000994951 0)
(0.0113729 0.000848609 0)
(0.0121938 0.000723052 0)
(0.0128577 0.000617718 0)
(0.0133961 0.000530765 0)
(0.0138349 0.000459929 0)
(0.0141952 0.000402967 0)
(0.0144939 0.000357875 0)
(0.0147446 0.00032295 0)
(0.0149581 0.000296796 0)
(0.0151431 0.000278293 0)
(0.0153065 0.000266557 0)
(0.0154538 0.000260895 0)
(0.00117933 0.000937722 0)
(0.00343022 0.000889582 0)
(0.00543708 0.00081157 0)
(0.00716511 0.000719587 0)
(0.00861642 0.000625865 0)
(0.00981541 0.000538028 0)
(0.0107964 0.000459891 0)
(0.0115956 0.000392714 0)
(0.0122466 0.000336293 0)
(0.0127787 0.000289716 0)
(0.0132164 0.000251821 0)
(0.0135796 0.000221447 0)
(0.0138847 0.000197545 0)
(0.0141445 0.000179225 0)
(0.0143696 0.000165757 0)
(0.0145683 0.000156556 0)
(0.0147473 0.000151164 0)
(0.014912 0.000149217 0)
(0.00103772 0.000285493 0)
(0.00301952 0.000271062 0)
(0.00478823 0.000247531 0)
(0.00631175 0.000219693 0)
(0.00759061 0.000191257 0)
(0.00864543 0.000164554 0)
(0.00950612 0.000140765 0)
(0.0102047 0.000120294 0)
(0.0107711 0.000103096 0)
(0.0112319 8.89052e-05 0)
(0.0116093 7.73797e-05 0)
(0.0119217 6.8173e-05 0)
(0.0121842 6.09725e-05 0)
(0.012409 5.5513e-05 0)
(0.0126061 5.15779e-05 0)
(0.0127835 4.89957e-05 0)
(0.012948 4.76332e-05 0)
(0.013105 4.73836e-05 0)
(5.32863e-34 -1.30062e-33 -1.68038e-59)
(1.60304e-33 -1.29927e-33 1.67737e-59)
(2.68031e-33 -1.29704e-33 0)
(3.76387e-33 -1.29392e-33 0)
(4.85289e-33 -1.2899e-33 0)
(5.9465e-33 -1.28494e-33 -1.65373e-59)
(7.0438e-33 -1.27906e-33 0)
(8.14384e-33 -1.27223e-33 0)
(9.24566e-33 -1.26444e-33 0)
(1.03483e-32 -1.25571e-33 0)
(1.14506e-32 -1.24601e-33 1.59692e-59)
(1.25517e-32 -1.23537e-33 0)
(1.36504e-32 -1.22379e-33 0)
(1.47457e-32 -1.21128e-33 0)
(1.58364e-32 -1.19786e-33 0)
(1.69216e-32 -1.18356e-33 1.50974e-59)
(1.8e-32 -1.1684e-33 0)
(1.90707e-32 -1.15243e-33 0)
(2.01325e-32 -1.13568e-33 0)
(2.11845e-32 -1.1182e-33 0)
(2.22256e-32 -1.10004e-33 0)
(2.32549e-32 -1.08124e-33 0)
(2.42713e-32 -1.06187e-33 0)
(2.52741e-32 -1.04198e-33 1.31689e-59)
(2.62624e-32 -1.02164e-33 -1.28943e-59)
(2.72353e-32 -1.0009e-33 1.26148e-59)
(2.81921e-32 -9.79828e-34 1.23312e-59)
(2.91323e-32 -9.58488e-34 0)
(3.0055e-32 -9.3694e-34 0)
(3.09599e-32 -9.15244e-34 -1.14638e-59)
(3.18463e-32 -8.9346e-34 -1.11718e-59)
(3.27139e-32 -8.71643e-34 0)
(3.35622e-32 -8.49848e-34 0)
(3.4391e-32 -8.28126e-34 -1.02973e-59)
(3.52e-32 -8.06528e-34 0)
(3.59889e-32 -7.85097e-34 0)
(3.67577e-32 -7.63876e-34 9.43895e-60)
(3.75062e-32 -7.42905e-34 0)
(3.82345e-32 -7.22218e-34 8.8831e-60)
(3.89424e-32 -7.01849e-34 1.7223e-59)
(3.963e-32 -6.81825e-34 0)
(4.02974e-32 -6.62173e-34 0)
(4.09448e-32 -6.42916e-34 0)
(4.15723e-32 -6.24072e-34 0)
(4.21801e-32 -6.0566e-34 0)
(4.27683e-32 -5.87692e-34 1.41818e-59)
(4.33373e-32 -5.70181e-34 1.37157e-59)
(4.38874e-32 -5.53136e-34 1.32621e-59)
(4.44187e-32 -5.36563e-34 0)
(4.49317e-32 -5.20468e-34 -1.2393e-59)
(4.54267e-32 -5.04853e-34 0)
(4.59039e-32 -4.89719e-34 1.15752e-59)
(4.63639e-32 -4.75067e-34 1.11856e-59)
(4.68068e-32 -4.60894e-34 0)
(4.72332e-32 -4.47198e-34 0)
(4.76434e-32 -4.33973e-34 0)
(4.80378e-32 -4.21215e-34 9.75403e-60)
(4.84168e-32 -4.08918e-34 0)
(4.87808e-32 -3.97074e-34 0)
(4.91302e-32 -3.85675e-34 0)
(4.94655e-32 -3.74713e-34 0)
(4.97869e-32 -3.64179e-34 0)
(5.0095e-32 -3.54063e-34 0)
(5.039e-32 -3.44356e-34 0)
(5.06726e-32 -3.35048e-34 0)
(5.09429e-32 -3.26128e-34 -7.2275e-60)
(5.12014e-32 -3.17586e-34 0)
(5.14486e-32 -3.09411e-34 0)
(5.16847e-32 -3.01592e-34 6.57575e-60)
(5.19102e-32 -2.94119e-34 6.37722e-60)
(5.21254e-32 -2.8698e-34 0)
(5.23307e-32 -2.80165e-34 -6.00662e-60)
(5.25264e-32 -2.73663e-34 5.83391e-60)
(5.2713e-32 -2.67464e-34 0)
(5.28907e-32 -2.61556e-34 -5.51234e-60)
(5.30598e-32 -2.5593e-34 0)
(5.32208e-32 -2.50574e-34 0)
(5.33739e-32 -2.4548e-34 5.0854e-60)
(5.35194e-32 -2.40637e-34 0)
(5.36577e-32 -2.36035e-34 -4.83455e-60)
(5.3789e-32 -2.31665e-34 0)
(5.39136e-32 -2.27518e-34 4.60832e-60)
(5.40318e-32 -2.23584e-34 4.50384e-60)
(5.41439e-32 -2.19854e-34 4.40479e-60)
(5.42501e-32 -2.1632e-34 8.62189e-60)
(5.43507e-32 -2.12974e-34 -8.44413e-60)
(5.4446e-32 -2.09807e-34 0)
(5.45361e-32 -2.06812e-34 0)
(5.46213e-32 -2.0398e-34 0)
(5.47019e-32 -2.01305e-34 -7.82428e-60)
(5.4778e-32 -1.98779e-34 -7.69007e-60)
(5.48498e-32 -1.96394e-34 7.56343e-60)
(5.49176e-32 -1.94146e-34 0)
(5.49816e-32 -1.92026e-34 -7.33136e-60)
(5.50419e-32 -1.90029e-34 -7.22524e-60)
(5.50987e-32 -1.88148e-34 -7.12534e-60)
(5.51522e-32 -1.86379e-34 0)
(5.52025e-32 -1.84714e-34 0)
(5.52499e-32 -1.8315e-34 0)
(5.52944e-32 -1.8168e-34 -6.78171e-60)
(5.53362e-32 -1.803e-34 0)
(5.53755e-32 -1.79006e-34 0)
(5.54123e-32 -1.77791e-34 6.57512e-60)
(5.54469e-32 -1.76654e-34 0)
(5.54793e-32 -1.75588e-34 0)
(5.55097e-32 -1.7459e-34 6.40499e-60)
(5.55381e-32 -1.73656e-34 0)
(5.55647e-32 -1.72784e-34 0)
(5.55896e-32 -1.71968e-34 -6.26568e-60)
(5.56129e-32 -1.71206e-34 -6.2252e-60)
(5.56346e-32 -1.70496e-34 0)
(5.56549e-32 -1.69833e-34 6.15218e-60)
(5.56738e-32 -1.69215e-34 0)
(5.56915e-32 -1.68639e-34 -6.08876e-60)
(5.57079e-32 -1.68103e-34 0)
(5.57233e-32 -1.67604e-34 -6.03376e-60)
(5.57375e-32 -1.67141e-34 -6.00914e-60)
(5.57508e-32 -1.6671e-34 0)
(5.57631e-32 -1.6631e-34 0)
(5.57746e-32 -1.65939e-34 0)
(5.57852e-32 -1.65594e-34 0)
(5.57951e-32 -1.65275e-34 0)
(5.58042e-32 -1.6498e-34 0)
(5.58127e-32 -1.64706e-34 0)
(5.58205e-32 -1.64453e-34 -5.86624e-60)
(5.58278e-32 -1.64219e-34 5.85383e-60)
(5.58345e-32 -1.64003e-34 0)
(5.58407e-32 -1.63803e-34 0)
(5.58464e-32 -1.63619e-34 0)
(5.58517e-32 -1.63449e-34 0)
(5.58566e-32 -1.63293e-34 1.16092e-59)
(5.58611e-32 -1.63149e-34 0)
(5.58652e-32 -1.63016e-34 -1.15797e-59)
(5.5869e-32 -1.62894e-34 1.15667e-59)
(5.58725e-32 -1.62781e-34 0)
(5.58757e-32 -1.62678e-34 0)
(5.58787e-32 -1.62583e-34 0)
(5.58814e-32 -1.62495e-34 -1.15243e-59)
(5.58838e-32 -1.62415e-34 -1.15157e-59)
(5.58861e-32 -1.6234e-34 0)
(5.58881e-32 -1.62271e-34 -1.15006e-59)
(5.589e-32 -1.62208e-34 -1.14938e-59)
(5.58917e-32 -1.62149e-34 1.14875e-59)
(5.58932e-32 -1.62093e-34 0)
(5.58945e-32 -1.62041e-34 0)
(5.58957e-32 -1.61992e-34 1.1471e-59)
(5.58968e-32 -1.61945e-34 0)
(5.58977e-32 -1.61899e-34 0)
(5.58985e-32 -1.61853e-34 0)
(5.58991e-32 -1.61807e-34 0)
(5.58996e-32 -1.61759e-34 -1.14465e-59)
(5.58999e-32 -1.61708e-34 -1.14412e-59)
(5.59e-32 -1.61653e-34 0)
(5.59e-32 -1.61592e-34 -1.14292e-59)
(5.58997e-32 -1.61522e-34 0)
(5.58991e-32 -1.6144e-34 0)
(5.58982e-32 -1.61344e-34 -1.14037e-59)
(5.58969e-32 -1.61228e-34 0)
(5.58951e-32 -1.61086e-34 -1.13773e-59)
(5.58927e-32 -1.60912e-34 0)
(5.58896e-32 -1.60696e-34 0)
(5.58855e-32 -1.60427e-34 -1.131e-59)
(5.58803e-32 -1.60087e-34 0)
(5.58735e-32 -1.59658e-34 -1.12317e-59)
(5.58648e-32 -1.59113e-34 0)
(5.58535e-32 -1.58416e-34 0)
(5.5839e-32 -1.5752e-34 0)
(5.58203e-32 -1.56363e-34 1.0896e-59)
(5.57961e-32 -1.54856e-34 0)
(5.57645e-32 -1.52877e-34 -1.05408e-59)
(5.57233e-32 -1.50252e-34 0)
(5.56689e-32 -1.46724e-34 0)
(5.55965e-32 -1.41899e-34 0)
(5.5499e-32 -1.35149e-34 0)
(5.53655e-32 -1.25399e-34 0)
(5.5178e-32 -1.10656e-34 0)
(5.49048e-32 -8.67541e-35 0)
(5.44814e-32 -4.33625e-35 -1.32299e-60)
(5.37451e-32 5.26399e-35 0)
(5.21134e-32 3.53663e-34 0)
(5.34685e-34 -3.58245e-33 4.62831e-59)
(1.60852e-33 -3.5784e-33 -4.61926e-59)
(2.68945e-33 -3.57171e-33 0)
(3.77669e-33 -3.56233e-33 9.19056e-59)
(4.86938e-33 -3.55021e-33 0)
(5.96666e-33 -3.53532e-33 -4.56225e-59)
(7.06761e-33 -3.51761e-33 -9.05943e-59)
(8.17127e-33 -3.49706e-33 -9.00109e-59)
(9.27668e-33 -3.47364e-33 0)
(1.03828e-32 -3.44734e-33 -8.86212e-59)
(1.14886e-32 -3.41816e-33 4.40431e-59)
(1.25931e-32 -3.38612e-33 0)
(1.36951e-32 -3.35124e-33 0)
(1.47935e-32 -3.31356e-33 0)
(1.58873e-32 -3.27315e-33 0)
(1.69753e-32 -3.23007e-33 4.15473e-59)
(1.80565e-32 -3.18442e-33 0)
(1.91297e-32 -3.13631e-33 8.01683e-59)
(2.01938e-32 -3.08586e-33 0)
(2.12479e-32 -3.0332e-33 0)
(2.22909e-32 -2.97848e-33 -7.59393e-59)
(2.33218e-32 -2.92187e-33 0)
(2.43397e-32 -2.86354e-33 7.28713e-59)
(2.53436e-32 -2.80365e-33 3.59372e-59)
(2.63328e-32 -2.74241e-33 -3.51339e-59)
(2.73065e-32 -2.67999e-33 3.43157e-59)
(2.82638e-32 -2.61658e-33 3.34848e-59)
(2.92042e-32 -2.55237e-33 0)
(3.0127e-32 -2.48754e-33 0)
(3.10317e-32 -2.42229e-33 -3.0941e-59)
(3.19177e-32 -2.35678e-33 -8.94979e-59)
(3.27848e-32 -2.29118e-33 0)
(3.36324e-32 -2.22567e-33 0)
(3.44603e-32 -2.16039e-33 -2.75156e-59)
(3.52683e-32 -2.09549e-33 0)
(3.60561e-32 -2.0311e-33 0)
(3.68236e-32 -1.96736e-33 2.49929e-59)
(3.75708e-32 -1.90438e-33 0)
(3.82975e-32 -1.84227e-33 6.91716e-59)
(3.90039e-32 -1.78111e-33 4.51198e-59)
(3.969e-32 -1.721e-33 0)
(4.03558e-32 -1.66202e-33 0)
(4.10015e-32 -1.60423e-33 -7.90646e-59)
(4.16273e-32 -1.54769e-33 -7.60824e-59)
(4.22333e-32 -1.49245e-33 -7.31693e-59)
(4.28198e-32 -1.43855e-33 1.06502e-58)
(4.33871e-32 -1.38602e-33 3.48035e-59)
(4.39354e-32 -1.3349e-33 -3.13944e-59)
(4.4465e-32 -1.2852e-33 6.2244e-59)
(4.49762e-32 -1.23693e-33 -3.09121e-59)
(4.54695e-32 -1.19011e-33 0)
(4.59451e-32 -1.14474e-33 2.85061e-59)
(4.64033e-32 -1.10081e-33 7.9888e-59)
(4.68447e-32 -1.05832e-33 0)
(4.72695e-32 -1.01727e-33 0)
(4.76781e-32 -9.77625e-34 0)
(4.8071e-32 -9.39385e-34 2.31476e-59)
(4.84485e-32 -9.02526e-34 0)
(4.88111e-32 -8.67028e-34 4.02147e-59)
(4.91591e-32 -8.32866e-34 0)
(4.9493e-32 -8.00014e-34 3.66857e-59)
(4.98131e-32 -7.68447e-34 0)
(5.01199e-32 -7.38134e-34 -3.34274e-59)
(5.04138e-32 -7.09047e-34 0)
(5.06951e-32 -6.81156e-34 3.04274e-59)
(5.09643e-32 -6.54428e-34 -4.47335e-59)
(5.12218e-32 -6.28833e-34 0)
(5.14679e-32 -6.04339e-34 -2.63831e-59)
(5.1703e-32 -5.80912e-34 1.37955e-59)
(5.19275e-32 -5.5852e-34 1.32114e-59)
(5.21418e-32 -5.37131e-34 0)
(5.23462e-32 -5.16713e-34 -3.38909e-59)
(5.25411e-32 -4.97233e-34 1.16127e-59)
(5.27269e-32 -4.78659e-34 0)
(5.29038e-32 -4.6096e-34 -1.06665e-59)
(5.30722e-32 -4.44104e-34 -1.79476e-59)
(5.32325e-32 -4.2806e-34 0)
(5.33849e-32 -4.12798e-34 9.4102e-60)
(5.35298e-32 -3.98289e-34 0)
(5.36675e-32 -3.84502e-34 6.13796e-60)
(5.37982e-32 -3.71411e-34 0)
(5.39223e-32 -3.58986e-34 -5.46034e-60)
(5.404e-32 -3.472e-34 7.69906e-60)
(5.41516e-32 -3.36027e-34 1.96659e-59)
(5.42573e-32 -3.25441e-34 3.76649e-59)
(5.43575e-32 -3.15417e-34 -3.60865e-59)
(5.44523e-32 -3.0593e-34 0)
(5.4542e-32 -2.96956e-34 0)
(5.46269e-32 -2.88474e-34 0)
(5.47071e-32 -2.80459e-34 6.74976e-60)
(5.47829e-32 -2.72891e-34 -1.15213e-59)
(5.48544e-32 -2.65749e-34 1.11487e-59)
(5.49219e-32 -2.59012e-34 0)
(5.49856e-32 -2.52662e-34 -2.62052e-59)
(5.50456e-32 -2.46679e-34 -1.01538e-59)
(5.51022e-32 -2.41046e-34 -9.85991e-60)
(5.51554e-32 -2.35744e-34 0)
(5.52055e-32 -2.30759e-34 0)
(5.52527e-32 -2.26072e-34 0)
(5.5297e-32 -2.21669e-34 -8.84897e-60)
(5.53386e-32 -2.17536e-34 0)
(5.53777e-32 -2.13657e-34 -1.16322e-59)
(5.54144e-32 -2.1002e-34 -3.00797e-60)
(5.54489e-32 -2.06611e-34 1.08902e-59)
(5.54811e-32 -2.03418e-34 0)
(5.55114e-32 -2.00429e-34 1.79799e-59)
(5.55397e-32 -1.97632e-34 0)
(5.55662e-32 -1.95018e-34 9.66928e-60)
(5.5591e-32 -1.92574e-34 -1.67429e-59)
(5.56141e-32 -1.90293e-34 -1.63836e-59)
(5.56358e-32 -1.88163e-34 0)
(5.5656e-32 -1.86177e-34 -1.74115e-60)
(5.56748e-32 -1.84326e-34 8.54333e-60)
(5.56924e-32 -1.82601e-34 -6.81055e-60)
(5.57088e-32 -1.80996e-34 0)
(5.5724e-32 -1.79502e-34 -6.64881e-60)
(5.57382e-32 -1.78113e-34 1.31254e-60)
(5.57514e-32 -1.76822e-34 0)
(5.57637e-32 -1.75624e-34 7.62676e-60)
(5.57751e-32 -1.74512e-34 7.50958e-60)
(5.57857e-32 -1.7348e-34 7.40093e-60)
(5.57955e-32 -1.72524e-34 0)
(5.58046e-32 -1.71639e-34 0)
(5.58131e-32 -1.70819e-34 0)
(5.58209e-32 -1.70061e-34 -1.31969e-59)
(5.58281e-32 -1.6936e-34 6.11959e-60)
(5.58348e-32 -1.68712e-34 0)
(5.5841e-32 -1.68115e-34 -6.83571e-60)
(5.58467e-32 -1.67563e-34 -6.77758e-60)
(5.5852e-32 -1.67054e-34 0)
(5.58568e-32 -1.66585e-34 1.19496e-59)
(5.58613e-32 -1.66153e-34 -1.32582e-59)
(5.58654e-32 -1.65756e-34 -1.1863e-59)
(5.58692e-32 -1.6539e-34 2.49221e-59)
(5.58727e-32 -1.65053e-34 0)
(5.58759e-32 -1.64743e-34 0)
(5.58788e-32 -1.64458e-34 0)
(5.58815e-32 -1.64196e-34 -1.17001e-59)
(5.58839e-32 -1.63954e-34 -2.44697e-59)
(5.58862e-32 -1.63731e-34 -1.27479e-59)
(5.58882e-32 -1.63525e-34 -1.16302e-59)
(5.58901e-32 -1.63335e-34 -2.42748e-59)
(5.58917e-32 -1.63158e-34 1.15918e-59)
(5.58932e-32 -1.62992e-34 0)
(5.58946e-32 -1.62837e-34 0)
(5.58958e-32 -1.62689e-34 2.40717e-59)
(5.58969e-32 -1.62547e-34 0)
(5.58978e-32 -1.62409e-34 0)
(5.58985e-32 -1.62273e-34 -1.24416e-59)
(5.58992e-32 -1.62135e-34 0)
(5.58997e-32 -1.61992e-34 -2.38536e-59)
(5.59e-32 -1.6184e-34 -1.14548e-59)
(5.59001e-32 -1.61675e-34 0)
(5.59e-32 -1.61492e-34 -2.36984e-59)
(5.58997e-32 -1.61283e-34 0)
(5.58992e-32 -1.61039e-34 0)
(5.58983e-32 -1.60751e-34 -1.13424e-59)
(5.5897e-32 -1.60404e-34 -1.20557e-59)
(5.58953e-32 -1.59982e-34 -1.12631e-59)
(5.58929e-32 -1.59462e-34 0)
(5.58899e-32 -1.58818e-34 0)
(5.58859e-32 -1.58012e-34 -2.26257e-59)
(5.58807e-32 -1.56999e-34 0)
(5.5874e-32 -1.55719e-34 -2.19199e-59)
(5.58654e-32 -1.54091e-34 0)
(5.58543e-32 -1.52012e-34 0)
(5.58401e-32 -1.4934e-34 0)
(5.58217e-32 -1.45888e-34 9.81279e-60)
(5.57978e-32 -1.41394e-34 0)
(5.57668e-32 -1.35497e-34 -8.74364e-60)
(5.57263e-32 -1.2768e-34 0)
(5.56729e-32 -1.17181e-34 0)
(5.56021e-32 -1.02844e-34 -2.64008e-61)
(5.55069e-32 -8.28227e-35 -3.84031e-60)
(5.5377e-32 -5.39934e-35 0)
(5.5196e-32 -1.06303e-35 0)
(5.49358e-32 5.89508e-35 0)
(5.45448e-32 1.82402e-34 6.86259e-59)
(5.39235e-32 4.39916e-34 0)
(5.29433e-32 1.13363e-33 -5.08855e-58)
(5.38339e-34 -5.876e-33 3.03718e-58)
(1.6195e-33 -5.8692e-33 -3.85506e-62)
(2.70779e-33 -5.858e-33 0)
(3.8024e-33 -5.84229e-33 9.0086e-62)
(4.90248e-33 -5.82201e-33 0)
(6.00713e-33 -5.79706e-33 0)
(7.11542e-33 -5.76739e-33 -2.97326e-58)
(8.22639e-33 -5.73294e-33 -1.47804e-58)
(9.33902e-33 -5.69367e-33 1.46516e-58)
(1.04523e-32 -5.64956e-33 -1.45544e-58)
(1.15651e-32 -5.6006e-33 0)
(1.26764e-32 -5.54681e-33 0)
(1.3785e-32 -5.48824e-33 -1.40891e-58)
(1.48898e-32 -5.42496e-33 -2.78354e-58)
(1.59897e-32 -5.35707e-33 2.74688e-58)
(1.70835e-32 -5.28468e-33 0)
(1.81701e-32 -5.20798e-33 2.66671e-58)
(1.92484e-32 -5.12712e-33 1.31624e-58)
(2.03172e-32 -5.04233e-33 0)
(2.13755e-32 -4.95385e-33 2.53079e-58)
(2.24222e-32 -4.86192e-33 -1.24619e-58)
(2.34564e-32 -4.76682e-33 -2.43115e-58)
(2.44771e-32 -4.66886e-33 1.19531e-58)
(2.54834e-32 -4.56832e-33 0)
(2.64745e-32 -4.46552e-33 2.27111e-58)
(2.74495e-32 -4.36079e-33 2.21558e-58)
(2.84078e-32 -4.25443e-33 0)
(2.93486e-32 -4.14678e-33 2.10225e-58)
(3.02715e-32 -4.03814e-33 0)
(3.11758e-32 -3.92882e-33 1.98698e-58)
(3.20611e-32 -3.81911e-33 -9.72077e-59)
(3.2927e-32 -3.70931e-33 0)
(3.37731e-32 -3.59969e-33 0)
(3.45993e-32 -3.4905e-33 0)
(3.54051e-32 -3.38198e-33 0)
(3.61906e-32 -3.27438e-33 0)
(3.69556e-32 -3.16788e-33 0)
(3.77e-32 -3.06269e-33 1.52996e-58)
(3.84239e-32 -2.95898e-33 -7.28587e-59)
(3.91272e-32 -2.8569e-33 0)
(3.981e-32 -2.75661e-33 0)
(4.04725e-32 -2.65822e-33 0)
(4.11149e-32 -2.56184e-33 -2.55181e-58)
(4.17372e-32 -2.46757e-33 -1.23629e-58)
(4.23397e-32 -2.37549e-33 -1.99948e-60)
(4.29228e-32 -2.28567e-33 2.02699e-60)
(4.34865e-32 -2.19816e-33 -1.07482e-58)
(4.40313e-32 -2.11299e-33 -1.05081e-58)
(4.45574e-32 -2.03022e-33 1.99399e-58)
(4.50652e-32 -1.94984e-33 9.44205e-59)
(4.5555e-32 -1.87189e-33 0)
(4.60272e-32 -1.79636e-33 8.6349e-59)
(4.64822e-32 -1.72324e-33 1.67204e-58)
(4.69203e-32 -1.65253e-33 0)
(4.73419e-32 -1.58421e-33 0)
(4.77474e-32 -1.51825e-33 -7.17277e-59)
(4.81373e-32 -1.45463e-33 0)
(4.85118e-32 -1.39331e-33 0)
(4.88715e-32 -1.33426e-33 1.88478e-58)
(4.92168e-32 -1.27744e-33 1.1814e-58)
(4.95479e-32 -1.22281e-33 5.85384e-59)
(4.98655e-32 -1.17031e-33 0)
(5.01697e-32 -1.1199e-33 -5.31595e-59)
(5.04612e-32 -1.07153e-33 0)
(5.07402e-32 -1.02516e-33 1.39831e-58)
(5.10071e-32 -9.80719e-34 -4.5885e-59)
(5.12624e-32 -9.38165e-34 -8.24804e-59)
(5.15064e-32 -8.97442e-34 -1.19733e-58)
(5.17395e-32 -8.58496e-34 0)
(5.19621e-32 -8.21272e-34 7.01957e-59)
(5.21746e-32 -7.85717e-34 0)
(5.23772e-32 -7.51775e-34 2.8973e-59)
(5.25705e-32 -7.19394e-34 5.94896e-59)
(5.27546e-32 -6.88521e-34 5.62452e-59)
(5.293e-32 -6.59101e-34 -5.31535e-59)
(5.30969e-32 -6.31084e-34 2.25975e-59)
(5.32558e-32 -6.04417e-34 0)
(5.34069e-32 -5.79051e-34 0)
(5.35505e-32 -5.54935e-34 -4.22073e-59)
(5.3687e-32 -5.32022e-34 -1.73647e-59)
(5.38166e-32 -5.10263e-34 0)
(5.39395e-32 -4.89613e-34 -2.02185e-59)
(5.40562e-32 -4.70025e-34 0)
(5.41668e-32 -4.51457e-34 -1.31089e-59)
(5.42716e-32 -4.33863e-34 6.40944e-59)
(5.43709e-32 -4.17203e-34 -6.06023e-59)
(5.44649e-32 -4.01437e-34 2.6077e-59)
(5.45539e-32 -3.86524e-34 0)
(5.4638e-32 -3.72426e-34 -2.30282e-59)
(5.47175e-32 -3.59106e-34 4.84245e-59)
(5.47926e-32 -3.46529e-34 0)
(5.48635e-32 -3.34659e-34 0)
(5.49304e-32 -3.23464e-34 0)
(5.49935e-32 -3.12911e-34 -2.19673e-59)