/*--------------------------------*- C++ -*----------------------------------*\
  =========                 |
  \\      /  F ield         | OpenFOAM: The Open Source CFD Toolbox
   \\    /   O peration     | Website:  https://openfoam.org
    \\  /    A nd           | Version:  10
     \\/     M anipulation  |
\*---------------------------------------------------------------------------*/
FoamFile
{
    format      ascii;
    class       volScalarField;
    location    "4.4";
    object      Sb;
}
// * * * * * * * * * * * * * * * * * * * * * * * * * * * * * * * * * * * * * //

dimensions      [0 0 0 0 0 0 0];

internalField   nonuniform List<scalar> 
12225
(
0.588601
0.586653
0.58427
0.581707
0.579134
0.576662
0.574355
0.572254
0.570384
0.568764
0.567417
0.56637
0.565674
0.565412
0.565756
0.567083
0.57042
0.578912
0.618144
0.615689
0.612731
0.609586
0.606463
0.603487
0.600733
0.59824
0.596033
0.594128
0.592545
0.591311
0.590475
0.590125
0.590427
0.591718
0.594712
0.600654
0.637018
0.634077
0.63058
0.626901
0.623279
0.619853
0.616701
0.613861
0.611355
0.609196
0.607399
0.60599
0.605012
0.604546
0.604735
0.605831
0.608245
0.61239
0.652313
0.648863
0.644818
0.640607
0.636497
0.632636
0.629102
0.625931
0.62314
0.620736
0.618729
0.617138
0.615999
0.615376
0.615375
0.616157
0.617916
0.620707
0.66592
0.661911
0.657277
0.652506
0.647889
0.643583
0.639662
0.636156
0.633076
0.630421
0.628194
0.626405
0.625078
0.624256
0.624004
0.624407
0.625517
0.627253
0.678683
0.674042
0.668756
0.663376
0.658218
0.65344
0.649112
0.645257
0.641874
0.638954
0.63649
0.634481
0.632937
0.631877
0.63133
0.631318
0.63182
0.632708
0.691083
0.685712
0.67969
0.673635
0.667885
0.662598
0.657835
0.653607
0.6499
0.646696
0.643974
0.641721
0.639929
0.638598
0.637723
0.637286
0.637227
0.637416
0.703447
0.697219
0.690352
0.683539
0.677133
0.67129
0.666056
0.661425
0.657369
0.653855
0.650851
0.648327
0.646261
0.64463
0.643407
0.642548
0.641976
0.641576
0.716035
0.708785
0.700937
0.693261
0.686123
0.679666
0.673916
0.668846
0.664412
0.660562
0.657249
0.654429
0.652063
0.650111
0.648528
0.647256
0.646217
0.645311
0.729086
0.720598
0.711596
0.702929
0.694966
0.687826
0.681508
0.675961
0.671114
0.666899
0.66325
0.660108
0.65742
0.655131
0.653184
0.651515
0.650047
0.648701
0.742844
0.73283
0.722456
0.712639
0.703739
0.695837
0.688893
0.682823
0.677528
0.672917
0.668905
0.665419
0.662389
0.659752
0.657442
0.655392
0.653532
0.651794
0.757585
0.745655
0.733626
0.722466
0.712496
0.703741
0.696106
0.689464
0.683682
0.678643
0.674243
0.67039
0.667005
0.664014
0.661345
0.658932
0.65671
0.654618
0.771272
0.757222
0.743443
0.730917
0.719892
0.710314
0.702027
0.694851
0.688622
0.683193
0.678442
0.674264
0.670568
0.667274
0.664306
0.661599
0.659089
0.656723
0.788296
0.771189
0.755016
0.740686
0.728308
0.717701
0.708612
0.700792
0.694027
0.688139
0.682981
0.67843
0.674384
0.670753
0.667458
0.66443
0.661608
0.658941
0.80999
0.788267
0.768709
0.751953
0.737825
0.725931
0.715864
0.707275
0.699884
0.693468
0.687847
0.682876
0.678434
0.67442
0.670748
0.667346
0.664154
0.661127
0.838882
0.809732
0.785151
0.765024
0.748605
0.735103
0.723865
0.714388
0.706289
0.699271
0.693105
0.687613
0.682654
0.678117
0.673916
0.669985
0.666275
0.662751
0.882882
0.840882
0.808184
0.783017
0.76334
0.747565
0.73461
0.723746
0.714405
0.706141
0.698753
0.692084
0.686012
0.680443
0.675302
0.670531
0.666084
0.661926
0.827235
0.800991
0.778692
0.760026
0.74439
0.731177
0.719875
0.71008
0.701534
0.694078
0.687463
0.681412
0.675849
0.670713
0.665953
0.661526
0.657398
0.653539
0.779307
0.762849
0.747481
0.733751
0.721655
0.711018
0.70163
0.693291
0.685832
0.679111
0.673035
0.667605
0.662683
0.658145
0.653942
0.650037
0.646395
0.64299
0.747155
0.735804
0.72443
0.713734
0.703938
0.69506
0.687034
0.679771
0.673176
0.667163
0.661656
0.656591
0.651948
0.647726
0.643798
0.640134
0.636708
0.633499
0.720834
0.712586
0.703883
0.695365
0.687314
0.679832
0.672933
0.666587
0.660748
0.655367
0.650397
0.645792
0.641515
0.63754
0.633905
0.630507
0.627324
0.624338
0.698373
0.692135
0.685292
0.678376
0.67167
0.665306
0.659338
0.653771
0.648591
0.643773
0.639287
0.635105
0.6312
0.627548
0.62413
0.62098
0.618024
0.615246
0.678537
0.673675
0.668173
0.662467
0.656814
0.651355
0.646161
0.641258
0.63665
0.632329
0.628277
0.624479
0.620914
0.617567
0.61442
0.611468
0.608724
0.60614
0.660468
0.656591
0.65209
0.647319
0.642507
0.63779
0.633246
0.628912
0.624803
0.620921
0.617259
0.613807
0.610553
0.607486
0.604592
0.601861
0.599301
0.596899
0.643495
0.640352
0.636619
0.632589
0.628461
0.624363
0.620372
0.61653
0.61286
0.609369
0.606058
0.602921
0.599952
0.597143
0.594484
0.591967
0.589584
0.587354
0.627003
0.624425
0.621301
0.617872
0.614313
0.61074
0.607227
0.603819
0.600539
0.597402
0.594409
0.591562
0.588857
0.586287
0.583848
0.581532
0.579334
0.57725
0.610295
0.608167
0.605539
0.602613
0.599539
0.596422
0.593332
0.590312
0.587387
0.584573
0.581877
0.5793
0.576842
0.574499
0.572268
0.570145
0.568124
0.566201
0.592333
0.590576
0.588366
0.585874
0.583228
0.580521
0.577816
0.575154
0.572561
0.570052
0.567638
0.56532
0.5631
0.560977
0.558949
0.557013
0.555165
0.553403
0.570942
0.569505
0.567667
0.565568
0.563317
0.560994
0.558656
0.556339
0.554068
0.551859
0.549722
0.547661
0.545679
0.543775
0.54195
0.540202
0.538528
0.536927
0.538457
0.537316
0.535833
0.534117
0.532258
0.530321
0.528353
0.526386
0.524445
0.522542
0.520688
0.518889
0.517147
0.515466
0.513844
0.512282
0.510779
0.509334
0.34726
0.350766
0.353607
0.355916
0.357794
0.359326
0.360572
0.361583
0.362397
0.363041
0.363541
0.363914
0.364175
0.364336
0.364407
0.364394
0.364306
0.364148
0.363923
0.363637
0.363293
0.362893
0.362441
0.361938
0.361387
0.360789
0.360147
0.359461
0.358734
0.357966
0.357159
0.356313
0.35543
0.354511
0.353557
0.352568
0.351546
0.35049
0.349403
0.348284
0.347133
0.345953
0.344743
0.343504
0.342236
0.34094
0.339616
0.338265
0.336888
0.335484
0.334054
0.332598
0.331118
0.329613
0.328083
0.32653
0.324953
0.323353
0.32173
0.320084
0.318417
0.316728
0.315018
0.313286
0.311535
0.309763
0.307972
0.306162
0.304333
0.302486
0.300621
0.298739
0.29684
0.294925
0.292995
0.291049
0.289089
0.287115
0.285128
0.283127
0.281114
0.279089
0.277053
0.275006
0.272948
0.27088
0.268803
0.266717
0.264622
0.262518
0.260407
0.258287
0.25616
0.254026
0.251884
0.249734
0.247578
0.245414
0.243244
0.241065
0.238879
0.236686
0.234484
0.232273
0.230053
0.227824
0.225585
0.223335
0.221072
0.218797
0.216508
0.214204
0.211884
0.209545
0.207186
0.204805
0.2024
0.199968
0.197504
0.195006
0.19247
0.189891
0.187271
0.184604
0.181873
0.179025
0.175963
0.172559
0.16875
0.16469
0.160921
0.158405
0.158249
0.161019
0.165541
0.170286
0.175081
0.179917
0.184806
0.189766
0.194821
0.200001
0.205346
0.210907
0.216759
0.223009
0.229828
0.237506
0.246494
0.255711
0.261178
0.251345
0.186962
0.0408359
0.00110242
0.0011
0.0011
0.0011
0.0011
0.0011
0.0011
0.0011
0.0011
0.0011
0.0011
0.0011
0.0011
0.0011
0.0011
0.0011
0.0011
0.0011
0.0011
0.0011
0.0011
0.0011
0.0011
0.0011
0.0011
0.0011
0.448729
0.448941
0.449142
0.449328
0.449495
0.449641
0.449762
0.44986
0.449932
0.449979
0.450001
0.449998
0.44997
0.449918
0.449842
0.449742
0.44962
0.449475
0.449308
0.449121
0.448912
0.448684
0.448436
0.44817
0.447886
0.447585
0.447267
0.446933
0.446584
0.44622
0.445843
0.445452
0.445049
0.444634
0.444208
0.443771
0.443325
0.442869
0.442405
0.441932
0.441453
0.440966
0.440474
0.439975
0.439472
0.438964
0.438453
0.437938
0.43742
0.4369
0.436378
0.435854
0.43533
0.434806
0.434281
0.433757
0.433235
0.432713
0.432194
0.431676
0.431162
0.43065
0.430142
0.429637
0.429136
0.42864
0.428148
0.427661
0.427178
0.426702
0.42623
0.425764
0.425304
0.424849
0.4244
0.423957
0.42352
0.423088
0.422662
0.422242
0.421828
0.421419
0.421015
0.420617
0.420223
0.419834
0.41945
0.41907
0.418693
0.418321
0.417951
0.417585
0.417221
0.41686
0.416501
0.416143
0.415786
0.415431
0.415075
0.41472
0.414363
0.414006
0.413648
0.413287
0.412924
0.412557
0.412187
0.411813
0.411433
0.411047
0.410655
0.410254
0.409845
0.409426
0.408996
0.408554
0.408096
0.407623
0.407131
0.406618
0.40608
0.405515
0.404918
0.404285
0.403611
0.402892
0.402114
0.401246
0.400227
0.398958
0.397312
0.395187
0.39255
0.388995
0.38429
0.379166
0.373898
0.368606
0.363368
0.358265
0.353422
0.349079
0.345696
0.344111
0.345775
0.351083
0.359165
0.368859
0.378489
0.386598
0.39219
0.393569
0.385309
0.331724
0.0660786
0.00111209
0.0011
0.0011
0.0011
0.0011
0.0011
0.0011
0.0011
0.0011
0.0011
0.0011
0.0011
0.0011
0.0011
0.0011
0.0011
0.0011
0.0011
0.0011
0.0011
0.0011
0.0011
0.0011
0.0011
0.0011
0.473989
0.474129
0.474256
0.474367
0.474462
0.474541
0.474601
0.474642
0.474664
0.474666
0.474649
0.474611
0.474553
0.474475
0.474377
0.47426
0.474123
0.473967
0.473792
0.473599
0.473389
0.473161
0.472917
0.472656
0.47238
0.472089
0.471784
0.471465
0.471134
0.470789
0.470434
0.470067
0.469689
0.469302
0.468905
0.4685
0.468087
0.467666
0.467238
0.466804
0.466364
0.465919
0.465469
0.465015
0.464556
0.464095
0.46363
0.463163
0.462693
0.462222
0.461749
0.461275
0.4608
0.460325
0.45985
0.459375
0.4589
0.458426
0.457952
0.45748
0.457009
0.45654
0.456072
0.455606
0.455142
0.45468
0.454221
0.453763
0.453308
0.452855
0.452405
0.451957
0.451512
0.45107
0.45063
0.450192
0.449757
0.449325
0.448895
0.448467
0.448041
0.447618
0.447197
0.446779
0.446362
0.445947
0.445534
0.445123
0.444714
0.444306
0.4439
0.443496
0.443092
0.44269
0.44229
0.44189
0.441492
0.441095
0.440698
0.440303
0.439909
0.439515
0.439122
0.43873
0.438338
0.437947
0.437557
0.437167
0.436777
0.436387
0.435997
0.435608
0.435218
0.434827
0.434436
0.434044
0.43365
0.433255
0.432857
0.432457
0.432053
0.431646
0.431233
0.430813
0.430386
0.429946
0.429486
0.428989
0.428422
0.427732
0.426834
0.425608
0.423832
0.421451
0.418683
0.415788
0.41296
0.410365
0.408189
0.406674
0.406155
0.407084
0.409654
0.413322
0.416824
0.419415
0.421063
0.421796
0.421627
0.42048
0.418069
0.413571
0.404465
0.380405
0.258109
0.0114099
0.0011
0.0011
0.0011
0.0011
0.0011
0.0011
0.0011
0.0011
0.0011
0.0011
0.0011
0.0011
0.0011
0.0011
0.0011
0.0011
0.0011
0.0011
0.0011
0.0011
0.0011
0.0011
0.0011
0.0011
0.488707
0.488895
0.489066
0.489217
0.489349
0.48946
0.48955
0.489619
0.489666
0.48969
0.489692
0.489671
0.489628
0.489562
0.489474
0.489364
0.489233
0.48908
0.488906
0.488712
0.488499
0.488266
0.488015
0.487747
0.487461
0.487159
0.486842
0.486509
0.486163
0.485803
0.48543
0.485046
0.48465
0.484244
0.483828
0.483403
0.482969
0.482528
0.482079
0.481624
0.481162
0.480695
0.480223
0.479746
0.479266
0.478781
0.478294
0.477804
0.477312
0.476818
0.476322
0.475825
0.475327
0.474828
0.474329
0.47383
0.473331
0.472833
0.472335
0.471837
0.471341
0.470845
0.470351
0.469858
0.469366
0.468876
0.468387
0.467899
0.467414
0.46693
0.466447
0.465966
0.465487
0.465009
0.464532
0.464057
0.463584
0.463112
0.462641
0.462172
0.461704
0.461237
0.460771
0.460306
0.459842
0.459379
0.458917
0.458455
0.457994
0.457534
0.457074
0.456615
0.456156
0.455698
0.45524
0.454782
0.454325
0.453868
0.453411
0.452954
0.452497
0.452041
0.451585
0.451129
0.450673
0.450217
0.449761
0.449305
0.448849
0.448392
0.447936
0.44748
0.447023
0.446566
0.446108
0.44565
0.44519
0.44473
0.444268
0.443805
0.443339
0.44287
0.442398
0.441921
0.441438
0.440946
0.44044
0.439911
0.439348
0.438728
0.438017
0.437158
0.436107
0.434904
0.433645
0.432456
0.431459
0.430765
0.430462
0.430587
0.431062
0.431555
0.431789
0.431768
0.431503
0.430993
0.430219
0.429135
0.427652
0.425614
0.422716
0.418304
0.410753
0.39489
0.342727
0.0850848
0.00113848
0.0011
0.0011
0.0011
0.0011
0.0011
0.0011
0.0011
0.0011
0.0011
0.0011
0.0011
0.0011
0.0011
0.0011
0.0011
0.0011
0.0011
0.0011
0.0011
0.0011
0.0011
0.0011
0.0011
0.500067
0.500324
0.500558
0.500769
0.500956
0.501119
0.501255
0.501366
0.501451
0.501509
0.50154
0.501545
0.501523
0.501475
0.5014
0.5013
0.501175
0.501025
0.500851
0.500654
0.500434
0.500193
0.49993
0.499647
0.499345
0.499024
0.498685
0.49833
0.497959
0.497572
0.497172
0.496758
0.496331
0.495893
0.495443
0.494984
0.494514
0.494036
0.49355
0.493057
0.492556
0.492049
0.491537
0.49102
0.490497
0.489971
0.489441
0.488908
0.488372
0.487834
0.487293
0.486751
0.486208
0.485663
0.485118
0.484572
0.484026
0.48348
0.482934
0.482388
0.481842
0.481297
0.480753
0.48021
0.479667
0.479125
0.478585
0.478045
0.477506
0.476969
0.476433
0.475897
0.475363
0.47483
0.474297
0.473766
0.473236
0.472707
0.472178
0.47165
0.471123
0.470596
0.47007
0.469545
0.46902
0.468495
0.467971
0.467447
0.466923
0.466399
0.465875
0.465351
0.464828
0.464304
0.463779
0.463255
0.462731
0.462206
0.461681
0.461155
0.460629
0.460103
0.459576
0.459048
0.45852
0.457992
0.457463
0.456933
0.456402
0.455871
0.455339
0.454805
0.454271
0.453736
0.453199
0.452661
0.452121
0.451579
0.451035
0.450489
0.44994
0.449387
0.44883
0.448268
0.447699
0.447122
0.446533
0.445929
0.445305
0.444654
0.443967
0.443226
0.442435
0.441622
0.440831
0.440107
0.439482
0.43897
0.438556
0.438194
0.437797
0.43733
0.436783
0.436139
0.435375
0.434464
0.433367
0.432028
0.430362
0.428225
0.425364
0.421278
0.414837
0.402943
0.372923
0.211213
0.00449407
0.0011
0.0011
0.0011
0.0011
0.0011
0.0011
0.0011
0.0011
0.0011
0.0011
0.0011
0.0011
0.0011
0.0011
0.0011
0.0011
0.0011
0.0011
0.0011
0.0011
0.0011
0.0011
0.0011
0.509669
0.510004
0.510313
0.510594
0.510845
0.511066
0.511256
0.511415
0.511543
0.511639
0.511703
0.511736
0.511737
0.511706
0.511646
0.511555
0.511434
0.511285
0.511108
0.510905
0.510675
0.51042
0.510141
0.509838
0.509514
0.509169
0.508804
0.508419
0.508017
0.507598
0.507163
0.506713
0.506249
0.505772
0.505283
0.504782
0.50427
0.503749
0.503219
0.50268
0.502133
0.50158
0.50102
0.500454
0.499883
0.499308
0.498728
0.498144
0.497557
0.496967
0.496374
0.495779
0.495182
0.494584
0.493985
0.493384
0.492783
0.492181
0.491578
0.490976
0.490373
0.489771
0.489169
0.488567
0.487966
0.487365
0.486764
0.486165
0.485566
0.484967
0.484369
0.483772
0.483176
0.482581
0.481986
0.481391
0.480798
0.480205
0.479612
0.47902
0.478428
0.477837
0.477246
0.476655
0.476065
0.475474
0.474884
0.474294
0.473704
0.473114
0.472523
0.471933
0.471342
0.470751
0.47016
0.469568
0.468976
0.468383
0.46779
0.467197
0.466602
0.466007
0.465412
0.464815
0.464218
0.46362
0.463021
0.462421
0.46182
0.461218
0.460615
0.46001
0.459404
0.458796
0.458187
0.457576
0.456963
0.456348
0.45573
0.455109
0.454485
0.453858
0.453225
0.452588
0.451945
0.451293
0.450633
0.449961
0.449276
0.448576
0.44786
0.447123
0.446367
0.44561
0.444872
0.444165
0.443498
0.442865
0.442252
0.441625
0.440967
0.440265
0.439504
0.438666
0.437728
0.436663
0.435435
0.433991
0.432256
0.430106
0.427328
0.423525
0.417865
0.408274
0.387661
0.306366
0.0355875
0.00110066
0.0011
0.0011
0.0011
0.0011
0.0011
0.0011
0.0011
0.0011
0.0011
0.0011
0.0011
0.0011
0.0011
0.0011
0.0011
0.0011
0.0011
0.0011
0.0011
0.0011
0.0011
0.0011
0.518116
0.518541
0.518933
0.519291
0.519615
0.519901
0.520151
0.520364
0.520538
0.520675
0.520774
0.520835
0.520859
0.520846
0.520797
0.520714
0.520596
0.520444
0.520261
0.520046
0.519802
0.519529
0.519228
0.518902
0.51855
0.518175
0.517778
0.51736
0.516921
0.516464
0.515989
0.515498
0.514991
0.514469
0.513934
0.513387
0.512828
0.512258
0.511678
0.51109
0.510492
0.509887
0.509275
0.508657
0.508032
0.507403
0.506768
0.50613
0.505487
0.504842
0.504193
0.503541
0.502888
0.502232
0.501575
0.500916
0.500256
0.499595
0.498934
0.498272
0.497609
0.496946
0.496284
0.495621
0.494958
0.494296
0.493634
0.492972
0.49231
0.491649
0.490989
0.490329
0.489669
0.48901
0.488351
0.487693
0.487035
0.486378
0.485721
0.485065
0.484409
0.483753
0.483097
0.482442
0.481787
0.481132
0.480477
0.479823
0.479168
0.478513
0.477858
0.477204
0.476549
0.475893
0.475238
0.474582
0.473926
0.473269
0.472612
0.471955
0.471297
0.470638
0.469979
0.469319
0.468659
0.467997
0.467335
0.466671
0.466007
0.465342
0.464675
0.464007
0.463337
0.462666
0.461994
0.461319
0.460643
0.459964
0.459282
0.458598
0.457911
0.45722
0.456524
0.455824
0.455119
0.454406
0.453686
0.452958
0.45222
0.451472
0.450715
0.449951
0.449177
0.448403
0.447637
0.446885
0.446148
0.445418
0.444681
0.443925
0.443141
0.442318
0.441441
0.440493
0.439454
0.438298
0.436993
0.435493
0.433727
0.431589
0.428899
0.425334
0.42025
0.412159
0.396558
0.349823
0.109741
0.00123
0.0011
0.0011
0.0011
0.0011
0.0011
0.0011
0.0011
0.0011
0.0011
0.0011
0.0011
0.0011
0.0011
0.0011
0.0011
0.0011
0.0011
0.0011
0.0011
0.0011
0.0011
0.0011
0.525725
0.52625
0.526736
0.527181
0.527584
0.527944
0.528259
0.528529
0.528754
0.528934
0.529069
0.529159
0.529205
0.529209
0.52917
0.52909
0.528971
0.528813
0.528618
0.528388
0.528124
0.527828
0.527501
0.527145
0.52676
0.52635
0.525915
0.525456
0.524976
0.524474
0.523954
0.523416
0.52286
0.522289
0.521704
0.521105
0.520494
0.519871
0.519237
0.518594
0.517941
0.51728
0.516612
0.515937
0.515256
0.514569
0.513877
0.51318
0.512479
0.511775
0.511067
0.510357
0.509644
0.508929
0.508211
0.507493
0.506773
0.506052
0.505329
0.504607
0.503883
0.50316
0.502436
0.501712
0.500987
0.500263
0.49954
0.498816
0.498093
0.49737
0.496647
0.495925
0.495203
0.494482
0.493761
0.493041
0.492321
0.491602
0.490883
0.490165
0.489447
0.488729
0.488012
0.487295
0.486579
0.485863
0.485147
0.484431
0.483716
0.483001
0.482286
0.481571
0.480856
0.480141
0.479426
0.478711
0.477996
0.477281
0.476566
0.47585
0.475134
0.474418
0.473701
0.472984
0.472266
0.471548
0.470829
0.470109
0.469389
0.468667
0.467945
0.467221
0.466497
0.46577
0.465043
0.464313
0.463582
0.462849
0.462113
0.461374
0.460633
0.459889
0.45914
0.458388
0.45763
0.456867
0.456098
0.455321
0.454538
0.453748
0.452951
0.452149
0.451345
0.450539
0.449734
0.448933
0.448132
0.447326
0.446509
0.445672
0.444807
0.443903
0.442947
0.441924
0.440816
0.4396
0.438245
0.43671
0.434932
0.432817
0.43021
0.426843
0.422202
0.415162
0.402626
0.371545
0.208207
0.00441742
0.0011
0.0011
0.0011
0.0011
0.0011
0.0011
0.0011
0.0011
0.0011
0.0011
0.0011
0.0011
0.0011
0.0011
0.0011
0.0011
0.0011
0.0011
0.0011
0.0011
0.0011
0.0011
0.532687
0.533325
0.533916
0.534458
0.53495
0.535389
0.535776
0.536108
0.536387
0.536612
0.536783
0.536903
0.53697
0.536987
0.536956
0.536877
0.536752
0.536583
0.536373
0.536122
0.535833
0.535507
0.535147
0.534755
0.534332
0.53388
0.5334
0.532896
0.532367
0.531816
0.531245
0.530654
0.530045
0.529419
0.528778
0.528122
0.527454
0.526773
0.526081
0.525379
0.524667
0.523947
0.523219
0.522484
0.521743
0.520996
0.520243
0.519486
0.518724
0.517959
0.517191
0.516419
0.515645
0.514869
0.514091
0.513312
0.512531
0.511749
0.510966
0.510182
0.509398
0.508614
0.507829
0.507044
0.50626
0.505475
0.504691
0.503907
0.503123
0.50234
0.501558
0.500776
0.499994
0.499214
0.498434
0.497654
0.496875
0.496097
0.49532
0.494543
0.493767
0.492991
0.492217
0.491442
0.490669
0.489896
0.489123
0.488352
0.48758
0.486809
0.486039
0.485269
0.484499
0.48373
0.482961
0.482192
0.481424
0.480655
0.479887
0.479119
0.478351
0.477583
0.476815
0.476047
0.475278
0.474509
0.47374
0.472971
0.472201
0.47143
0.470659
0.469886
0.469113
0.468339
0.467563
0.466786
0.466008
0.465228
0.464445
0.463661
0.462874
0.462083
0.46129
0.460493
0.459692
0.458886
0.458074
0.457258
0.456435
0.455607
0.454774
0.453937
0.453097
0.452255
0.451411
0.450564
0.449712
0.448851
0.447976
0.44708
0.446154
0.44519
0.444176
0.443097
0.441939
0.440679
0.439291
0.437734
0.435954
0.433866
0.431335
0.428135
0.423842
0.417575
0.407077
0.384216
0.288675
0.0251011
0.00110013
0.0011
0.0011
0.0011
0.0011
0.0011
0.0011
0.0011
0.0011
0.0011
0.0011
0.0011
0.0011
0.0011
0.0011
0.0011
0.0011
0.0011
0.0011
0.0011
0.0011
0.0011
0.539128
0.539892
0.540601
0.541251
0.541841
0.542368
0.542832
0.543232
0.543568
0.54384
0.544049
0.544196
0.544284
0.544312
0.544284
0.544201
0.544067
0.543882
0.543649
0.543372
0.543051
0.54269
0.542291
0.541856
0.541388
0.540888
0.540358
0.539801
0.539218
0.538612
0.537983
0.537334
0.536666
0.53598
0.535278
0.534562
0.533831
0.533088
0.532334
0.531569
0.530795
0.530012
0.529221
0.528423
0.527619
0.526809
0.525994
0.525174
0.52435
0.523522
0.522692
0.521858
0.521023
0.520185
0.519346
0.518505
0.517663
0.51682
0.515977
0.515133
0.514289
0.513445
0.512601
0.511757
0.510913
0.51007
0.509227
0.508385
0.507544
0.506703
0.505864
0.505025
0.504187
0.503349
0.502513
0.501678
0.500844
0.500011
0.499179
0.498347
0.497517
0.496688
0.49586
0.495033
0.494206
0.493381
0.492557
0.491733
0.490911
0.490089
0.489268
0.488448
0.487629
0.48681
0.485993
0.485175
0.484359
0.483543
0.482727
0.481912
0.481098
0.480283
0.479469
0.478656
0.477842
0.477028
0.476215
0.475401
0.474588
0.473774
0.472959
0.472144
0.471329
0.470512
0.469695
0.468877
0.468058
0.467237
0.466414
0.46559
0.464763
0.463934
0.463102
0.462267
0.461428
0.460585
0.459738
0.458886
0.45803
0.457169
0.456304
0.455434
0.454561
0.453685
0.452804
0.451918
0.451024
0.450119
0.449198
0.448254
0.447281
0.446269
0.44521
0.444089
0.442893
0.441601
0.440188
0.438618
0.436841
0.43478
0.432318
0.429258
0.425247
0.41957
0.410509
0.392541
0.333304
0.0748568
0.00112065
0.0011
0.0011
0.0011
0.0011
0.0011
0.0011
0.0011
0.0011
0.0011
0.0011
0.0011
0.0011
0.0011
0.0011
0.0011
0.0011
0.0011
0.0011
0.0011
0.0011
0.0011
0.545132
0.546038
0.546879
0.54765
0.548348
0.548972
0.549521
0.549993
0.55039
0.550711
0.550957
0.551132
0.551237
0.551273
0.551245
0.551154
0.551003
0.550797
0.550536
0.550225
0.549866
0.549463
0.549018
0.548533
0.548012
0.547457
0.546871
0.546255
0.545612
0.544943
0.544252
0.543539
0.542807
0.542056
0.541289
0.540506
0.53971
0.538901
0.538081
0.53725
0.53641
0.535561
0.534705
0.533842
0.532972
0.532097
0.531218
0.530334
0.529446
0.528556
0.527662
0.526766
0.525869
0.524969
0.524069
0.523167
0.522265
0.521363
0.52046
0.519557
0.518654
0.517752
0.51685
0.515949
0.515049
0.514149
0.513251
0.512353
0.511457
0.510562
0.509668
0.508775
0.507884
0.506994
0.506105
0.505218
0.504332
0.503448
0.502565
0.501683
0.500803
0.499925
0.499047
0.498172
0.497297
0.496424
0.495553
0.494682
0.493814
0.492946
0.492079
0.491214
0.49035
0.489487
0.488625
0.487765
0.486905
0.486046
0.485188
0.484331
0.483475
0.482619
0.481765
0.480911
0.480057
0.479204
0.478351
0.477498
0.476646
0.475794
0.474941
0.474089
0.473236
0.472383
0.47153
0.470675
0.46982
0.468964
0.468106
0.467247
0.466386
0.465523
0.464657
0.463789
0.462918
0.462044
0.461165
0.460283
0.459397
0.458507
0.457613
0.456714
0.455811
0.454904
0.453991
0.453071
0.452142
0.4512
0.45024
0.449258
0.448246
0.447196
0.4461
0.444946
0.44372
0.442404
0.440973
0.439395
0.437623
0.435589
0.433189
0.430249
0.426468
0.421254
0.413253
0.398487
0.357903
0.146085
0.00164968
0.0011
0.0011
0.0011
0.0011
0.0011
0.0011
0.0011
0.0011
0.0011
0.0011
0.0011
0.0011
0.0011
0.0011
0.0011
0.0011
0.0011
0.0011
0.0011
0.0011
0.0011
0.550757
0.551823
0.552811
0.553717
0.554537
0.555268
0.555909
0.556459
0.55692
0.557291
0.557576
0.557777
0.557896
0.557937
0.557903
0.557798
0.557626
0.55739
0.557094
0.556743
0.556338
0.555885
0.555386
0.554845
0.554264
0.553647
0.552997
0.552315
0.551605
0.550869
0.550109
0.549327
0.548525
0.547704
0.546867
0.546015
0.545149
0.54427
0.543381
0.542481
0.541572
0.540655
0.539731
0.538801
0.537865
0.536924
0.53598
0.535031
0.534079
0.533125
0.532169
0.531211
0.530252
0.529291
0.528331
0.527369
0.526408
0.525447
0.524487
0.523527
0.522568
0.521609
0.520652
0.519696
0.518742
0.517789
0.516837
0.515887
0.514939
0.513992
0.513047
0.512104
0.511163
0.510224
0.509287
0.508351
0.507418
0.506486
0.505557
0.504629
0.503703
0.50278
0.501858
0.500938
0.50002
0.499103
0.498189
0.497276
0.496365
0.495456
0.494548
0.493643
0.492738
0.491835
0.490934
0.490034
0.489136
0.488239
0.487343
0.486449
0.485556
0.484664
0.483773
0.482882
0.481993
0.481105
0.480217
0.47933
0.478444
0.477558
0.476672
0.475786
0.474901
0.474016
0.47313
0.472244
0.471357
0.47047
0.469581
0.468692
0.467801
0.466908
0.466013
0.465116
0.464217
0.463315
0.462409
0.4615
0.460587
0.459671
0.458751
0.457826
0.456897
0.455962
0.455021
0.454072
0.453112
0.452138
0.451146
0.450131
0.449087
0.448006
0.446881
0.4457
0.44445
0.443114
0.44167
0.440087
0.438322
0.436314
0.433968
0.431131
0.427541
0.422699
0.415507
0.40297
0.37285
0.223172
0.00630286
0.0011
0.0011
0.0011
0.0011
0.0011
0.0011
0.0011
0.0011
0.0011
0.0011
0.0011
0.0011
0.0011
0.0011
0.0011
0.0011
0.0011
0.0011
0.0011
0.0011
0.0011
0.556043
0.557289
0.558444
0.559501
0.560456
0.561305
0.562047
0.562682
0.56321
0.563635
0.563957
0.564182
0.564312
0.564352
0.564308
0.564182
0.563981
0.563708
0.563369
0.562968
0.56251
0.561998
0.561437
0.560831
0.560183
0.559497
0.558775
0.558021
0.557238
0.556428
0.555594
0.554737
0.55386
0.552965
0.552054
0.551128
0.550189
0.549237
0.548276
0.547305
0.546325
0.545339
0.544346
0.543347
0.542344
0.541337
0.540327
0.539313
0.538298
0.537281
0.536262
0.535243
0.534223
0.533204
0.532184
0.531165
0.530147
0.529129
0.528113
0.527098
0.526085
0.525074
0.524064
0.523056
0.52205
0.521047
0.520045
0.519046
0.518049
0.517055
0.516063
0.515073
0.514086
0.513101
0.512119
0.511139
0.510162
0.509187
0.508215
0.507245
0.506278
0.505313
0.504351
0.503391
0.502433
0.501477
0.500524
0.499573
0.498624
0.497678
0.496733
0.495791
0.494851
0.493912
0.492976
0.492041
0.491108
0.490177
0.489248
0.48832
0.487394
0.486469
0.485546
0.484623
0.483703
0.482783
0.481864
0.480947
0.48003
0.479114
0.478199
0.477284
0.47637
0.475455
0.474541
0.473627
0.472713
0.471798
0.470882
0.469966
0.469048
0.468129
0.467209
0.466287
0.465362
0.464435
0.463505
0.462573
0.461636
0.460696
0.459753
0.458805
0.457851
0.456892
0.455926
0.454951
0.453964
0.452963
0.451944
0.450901
0.44983
0.448724
0.447574
0.44637
0.445101
0.443749
0.442295
0.440709
0.438953
0.436968
0.43467
0.431922
0.428494
0.423954
0.417395
0.406476
0.38272
0.283895
0.024199
0.00110011
0.0011
0.0011
0.0011
0.0011
0.0011
0.0011
0.0011
0.0011
0.0011
0.0011
0.0011
0.0011
0.0011
0.0011
0.0011
0.0011
0.0011
0.0011
0.0011
0.0011
0.561017
0.562467
0.56381
0.565037
0.566142
0.567123
0.567976
0.568702
0.569303
0.569782
0.570141
0.570387
0.570524
0.570558
0.570494
0.57034
0.570101
0.569782
0.569391
0.568931
0.568409
0.56783
0.567198
0.566519
0.565795
0.565031
0.564231
0.563398
0.562535
0.561645
0.56073
0.559794
0.558838
0.557865
0.556876
0.555873
0.554858
0.553832
0.552796
0.551752
0.550701
0.549643
0.548581
0.547514
0.546444
0.54537
0.544295
0.543218
0.54214
0.541061
0.539982
0.538903
0.537825
0.536747
0.535671
0.534596
0.533523
0.532452
0.531383
0.530316
0.529252
0.52819
0.527131
0.526074
0.525021
0.52397
0.522922
0.521877
0.520835
0.519797
0.518761
0.517728
0.516699
0.515673
0.514649
0.513629
0.512612
0.511598
0.510587
0.509579
0.508574
0.507572
0.506573
0.505576
0.504583
0.503592
0.502604
0.501619
0.500636
0.499656
0.498679
0.497704
0.496731
0.495761
0.494793
0.493827
0.492863
0.491902
0.490942
0.489985
0.489029
0.488075
0.487123
0.486173
0.485224
0.484276
0.48333
0.482386
0.481442
0.480499
0.479558
0.478617
0.477677
0.476737
0.475797
0.474858
0.473919
0.47298
0.47204
0.4711
0.470159
0.469217
0.468274
0.467329
0.466382
0.465433
0.464481
0.463527
0.46257
0.461609
0.460644
0.459674
0.4587
0.457719
0.45673
0.455732
0.454722
0.453697
0.452654
0.451587
0.450493
0.449365
0.448194
0.446972
0.445686
0.444322
0.44286
0.441273
0.439525
0.437562
0.435307
0.432636
0.429344
0.425055
0.419001
0.409299
0.389725
0.322032
0.0604898
0.00110747
0.0011
0.0011
0.0011
0.0011
0.0011
0.0011
0.0011
0.0011
0.0011
0.0011
0.0011
0.0011
0.0011
0.0011
0.0011
0.0011
0.0011
0.0011
0.0011
0.0011
0.565693
0.567375
0.568932
0.570352
0.571628
0.572755
0.573731
0.574557
0.575234
0.575768
0.576163
0.576425
0.576562
0.576582
0.576491
0.576298
0.57601
0.575635
0.57518
0.574651
0.574055
0.573397
0.572685
0.571922
0.571113
0.570264
0.569378
0.568458
0.567509
0.566534
0.565534
0.564514
0.563475
0.56242
0.56135
0.560268
0.559175
0.558072
0.556961
0.555844
0.554721
0.553593
0.552461
0.551326
0.55019
0.549051
0.547912
0.546773
0.545633
0.544495
0.543357
0.542221
0.541087
0.539955
0.538825
0.537697
0.536572
0.535451
0.534332
0.533216
0.532104
0.530995
0.52989
0.528788
0.52769
0.526596
0.525505
0.524419
0.523335
0.522256
0.521181
0.520109
0.519041
0.517976
0.516916
0.515859
0.514806
0.513756
0.51271
0.511667
0.510628
0.509593
0.508561
0.507532
0.506506
0.505484
0.504465
0.503449
0.502436
0.501426
0.500419
0.499414
0.498413
0.497414
0.496418
0.495425
0.494434
0.493445
0.492459
0.491475
0.490493
0.489513
0.488536
0.48756
0.486586
0.485614
0.484643
0.483674
0.482707
0.48174
0.480775
0.479811
0.478848
0.477886
0.476924
0.475962
0.475001
0.47404
0.473079
0.472118
0.471156
0.470193
0.469229
0.468263
0.467297
0.466328
0.465357
0.464383
0.463406
0.462426
0.461442
0.460453
0.459459
0.458458
0.457449
0.456431
0.4554
0.454354
0.45329
0.452203
0.451089
0.449941
0.448753
0.447514
0.446215
0.444841
0.443373
0.441785
0.440045
0.438103
0.435886
0.433282
0.430106
0.426028
0.420384
0.411622
0.394978
0.345605
0.110942
0.00124121
0.0011
0.0011
0.0011
0.0011
0.0011
0.0011
0.0011
0.0011
0.0011
0.0011
0.0011
0.0011
0.0011
0.0011
0.0011
0.0011
0.0011
0.0011
0.0011
0.0011
0.570079
0.572027
0.573829
0.57547
0.576939
0.578232
0.579344
0.580278
0.581037
0.581625
0.582052
0.582325
0.582454
0.582448
0.582318
0.582074
0.581724
0.581279
0.580746
0.580135
0.579452
0.578705
0.577901
0.577045
0.576143
0.575199
0.574219
0.573207
0.572166
0.571099
0.570011
0.568903
0.567778
0.566638
0.565486
0.564323
0.563151
0.561972
0.560786
0.559595
0.558401
0.557203
0.556004
0.554803
0.553602
0.5524
0.5512
0.550001
0.548803
0.547608
0.546414
0.545224
0.544037
0.542853
0.541672
0.540495
0.539322
0.538153
0.536988
0.535827
0.534671
0.533519
0.532371
0.531228
0.530089
0.528955
0.527825
0.5267
0.525579
0.524463
0.523351
0.522244
0.521141
0.520042
0.518948
0.517858
0.516772
0.515691
0.514613
0.51354
0.51247
0.511404
0.510343
0.509285
0.50823
0.50718
0.506133
0.505089
0.504049
0.503012
0.501979
0.500949
0.499922
0.498898
0.497876
0.496858
0.495843
0.49483
0.49382
0.492813
0.491808
0.490805
0.489804
0.488806
0.48781
0.486816
0.485823
0.484833
0.483844
0.482856
0.48187
0.480886
0.479902
0.478919
0.477937
0.476956
0.475975
0.474995
0.474014
0.473034
0.472053
0.471071
0.470089