/*--------------------------------*- C++ -*----------------------------------*\
  =========                 |
  \\      /  F ield         | OpenFOAM: The Open Source CFD Toolbox
   \\    /   O peration     | Website:  https://openfoam.org
    \\  /    A nd           | Version:  10
     \\/     M anipulation  |
\*---------------------------------------------------------------------------*/
FoamFile
{
    format      ascii;
    class       surfaceScalarField;
    location    "0.014";
    object      phi;
}
// * * * * * * * * * * * * * * * * * * * * * * * * * * * * * * * * * * * * * //

dimensions      [0 3 -1 0 0 0 0];

internalField   nonuniform List<scalar> 
7780
(
2.50002e-09
-2.96931e-14
2.5001e-09
-1.02553e-13
2.50025e-09
-1.67324e-13
2.50046e-09
-2.30491e-13
2.50074e-09
-2.92902e-13
2.50107e-09
-3.55523e-13
2.50148e-09
-4.17585e-13
2.50193e-09
-4.80192e-13
2.50246e-09
-5.42289e-13
2.50303e-09
-6.05196e-13
2.5037e-09
-6.67605e-13
2.5044e-09
-7.31099e-13
2.50519e-09
-7.94143e-13
2.50601e-09
-8.5859e-13
2.50694e-09
-9.22687e-13
2.50788e-09
-9.88558e-13
2.50894e-09
-1.05424e-12
2.51002e-09
-1.12213e-12
2.51122e-09
-1.19005e-12
2.51244e-09
-1.26067e-12
2.51378e-09
-1.33163e-12
2.51514e-09
-1.40584e-12
2.51663e-09
-1.48074e-12
2.51814e-09
-1.55952e-12
2.5198e-09
-1.63942e-12
2.52147e-09
-1.72388e-12
2.5233e-09
-1.80996e-12
2.52515e-09
-1.90136e-12
2.52717e-09
-1.99493e-12
2.52921e-09
-2.09464e-12
2.53143e-09
-2.19715e-12
2.53368e-09
-2.30669e-12
2.53613e-09
-2.41974e-12
2.53861e-09
-2.54074e-12
2.5413e-09
-2.66605e-12
2.54404e-09
-2.80031e-12
2.54702e-09
-2.93973e-12
2.55004e-09
-3.08915e-12
2.55332e-09
-3.24465e-12
2.55667e-09
-3.41126e-12
2.5603e-09
-3.58494e-12
2.564e-09
-3.77085e-12
2.56801e-09
-3.96487e-12
2.57211e-09
-4.17227e-12
2.57655e-09
-4.38887e-12
2.5811e-09
-4.61999e-12
2.58601e-09
-4.86141e-12
2.59106e-09
-5.11844e-12
2.5965e-09
-5.38687e-12
2.6021e-09
-5.67192e-12
2.60812e-09
-5.96939e-12
2.61434e-09
-6.28436e-12
2.62101e-09
-6.61266e-12
2.6279e-09
-6.95914e-12
2.63528e-09
-7.31964e-12
2.64291e-09
-7.6987e-12
2.65106e-09
-8.09216e-12
2.6595e-09
-8.50415e-12
2.66849e-09
-8.93047e-12
2.6778e-09
-9.37477e-12
2.68769e-09
-9.83271e-12
2.69793e-09
-1.03074e-11
2.70879e-09
-1.07942e-11
2.72002e-09
-1.12955e-11
2.73188e-09
-1.18065e-11
2.74415e-09
-1.23289e-11
2.75707e-09
-1.28572e-11
2.77039e-09
-1.33924e-11
2.78438e-09
-1.39284e-11
2.79877e-09
-1.44656e-11
2.81383e-09
-1.49968e-11
2.82927e-09
-1.5522e-11
2.84537e-09
-1.6033e-11
2.86182e-09
-1.65296e-11
2.87889e-09
-1.70023e-11
2.89624e-09
-1.74512e-11
2.91418e-09
-1.78655e-11
2.93232e-09
-1.82461e-11
2.95099e-09
-1.85809e-11
2.96974e-09
-1.88722e-11
2.98893e-09
-1.91071e-11
3.00809e-09
-1.92897e-11
3.0276e-09
-1.94062e-11
3.0469e-09
-1.94637e-11
3.06647e-09
-1.94476e-11
3.08567e-09
-1.93684e-11
3.10501e-09
-1.92107e-11
3.12381e-09
-1.8989e-11
3.14264e-09
-1.86871e-11
3.16076e-09
-1.83235e-11
3.17881e-09
-1.78812e-11
3.19597e-09
-1.73826e-11
3.21296e-09
-1.68096e-11
3.22893e-09
-1.61885e-11
3.24462e-09
-1.54996e-11
3.25916e-09
-1.47728e-11
3.27336e-09
-1.39869e-11
3.2863e-09
-1.31744e-11
3.29883e-09
-1.23127e-11
3.31003e-09
-1.14367e-11
3.32079e-09
-1.05219e-11
3.33017e-09
-9.60504e-12
3.33907e-09
-8.66014e-12
3.34658e-09
-7.72482e-12
3.3536e-09
-6.77185e-12
3.35923e-09
-5.83921e-12
3.36439e-09
-4.89856e-12
3.36818e-09
-3.98763e-12
3.37152e-09
-3.0771e-12
3.37355e-09
-2.20403e-12
3.37515e-09
-1.339e-12
3.37551e-09
-5.17374e-13
3.37547e-09
2.91698e-13
3.37428e-09
1.05479e-12
3.37273e-09
1.80225e-12
3.37011e-09
2.50257e-12
3.36716e-09
3.18565e-12
3.36325e-09
3.82228e-12
3.35904e-09
4.44162e-12
3.35395e-09
5.01685e-12
3.34859e-09
5.57604e-12
3.34244e-09
6.09476e-12
3.33605e-09
6.59955e-12
3.32895e-09
7.06839e-12
3.32162e-09
7.52584e-12
3.31366e-09
7.95218e-12
3.30547e-09
8.36961e-12
3.29673e-09
8.76068e-12
3.28774e-09
9.14483e-12
3.27828e-09
9.50685e-12
3.26856e-09
9.86312e-12
3.25843e-09
1.02007e-11
3.24802e-09
1.05326e-11
3.23727e-09
1.08482e-11
3.22621e-09
1.11572e-11
3.21489e-09
1.14512e-11
3.20322e-09
1.17363e-11
3.19138e-09
1.20069e-11
3.17915e-09
1.22653e-11
3.16684e-09
1.25088e-11
3.15411e-09
1.27363e-11
3.14138e-09
1.29478e-11
3.12823e-09
1.31389e-11
3.11516e-09
1.33128e-11
3.10165e-09
1.34619e-11
3.08833e-09
1.35927e-11
3.07456e-09
1.36948e-11
3.06107e-09
1.37777e-11
3.04714e-09
1.38286e-11
3.03358e-09
1.38601e-11
3.01959e-09
1.38573e-11
3.00607e-09
1.38358e-11
2.99214e-09
1.37787e-11
2.97875e-09
1.37043e-11
2.96499e-09
1.35942e-11
2.95184e-09
1.3469e-11
2.93834e-09
1.33092e-11
2.92552e-09
1.31372e-11
2.91238e-09
1.29325e-11
2.89997e-09
1.27189e-11
2.88728e-09
1.24755e-11
2.87536e-09
1.22268e-11
2.86317e-09
1.19516e-11
2.85179e-09
1.16749e-11
2.84018e-09
1.13754e-11
2.82938e-09
1.10781e-11
2.81838e-09
1.07619e-11
2.8082e-09
1.04513e-11
2.79783e-09
1.01257e-11
2.78827e-09
9.80884e-12
2.77855e-09
9.48056e-12
2.76962e-09
9.16381e-12
2.76055e-09
8.83903e-12
2.75224e-09
8.52806e-12
2.7438e-09
8.21209e-12
2.7361e-09
7.91177e-12
2.72827e-09
7.6091e-12
2.72114e-09
7.32344e-12
2.71389e-09
7.03769e-12
2.70729e-09
6.76993e-12
2.70059e-09
6.50391e-12
2.6945e-09
6.25649e-12
2.68829e-09
6.01228e-12
2.68266e-09
5.78698e-12
2.67691e-09
5.566e-12
2.6717e-09
5.364e-12
2.66635e-09
5.16715e-12
2.66151e-09
4.98917e-12
2.65652e-09
4.81687e-12
2.652e-09
4.66317e-12
2.64732e-09
4.51546e-12
2.64307e-09
4.38602e-12
2.63865e-09
4.26265e-12
2.63463e-09
4.15714e-12
2.63042e-09
4.05757e-12
2.62658e-09
3.97521e-12
2.62261e-09
3.89917e-12
2.61874e-09
3.83726e-12
2.61495e-09
3.79111e-12
3.72928e-12
2.50002e-09
-5.99088e-14
2.5001e-09
-2.06768e-13
2.50025e-09
-3.36758e-13
2.50046e-09
-4.62878e-13
2.50074e-09
-5.88074e-13
2.50107e-09
-7.12945e-13
2.50148e-09
-8.37575e-13
2.50193e-09
-9.62293e-13
2.50247e-09
-1.08704e-12
2.50304e-09
-1.21212e-12
2.5037e-09
-1.33747e-12
2.5044e-09
-1.46346e-12
2.50519e-09
-1.59006e-12
2.50602e-09
-1.71772e-12
2.50694e-09
-1.84642e-12
2.50789e-09
-1.97672e-12
2.50894e-09
-2.10861e-12
2.51003e-09
-2.24275e-12
2.51122e-09
-2.37916e-12
2.51244e-09
-2.51859e-12
2.51377e-09
-2.6611e-12
2.51513e-09
-2.80752e-12
2.51661e-09
-2.95797e-12
2.51812e-09
-3.11334e-12
2.51977e-09
-3.27381e-12
2.52144e-09
-3.44035e-12
2.52325e-09
-3.6132e-12
2.5251e-09
-3.7934e-12
2.5271e-09
-3.98125e-12
2.52913e-09
-4.17786e-12
2.53133e-09
-4.3836e-12
2.53357e-09
-4.59964e-12
2.536e-09
-4.82643e-12
2.53847e-09
-5.06521e-12
2.54114e-09
-5.31649e-12
2.54387e-09
-5.58156e-12
2.54682e-09
-5.86103e-12
2.54983e-09
-6.15623e-12
2.55308e-09
-6.46784e-12
2.55641e-09
-6.79722e-12
2.56e-09
-7.14514e-12
2.56368e-09
-7.51298e-12
2.56765e-09
-7.90158e-12
2.57173e-09
-8.31231e-12
2.57612e-09
-8.74607e-12
2.58065e-09
-9.20419e-12
2.58551e-09
-9.68763e-12
2.59054e-09
-1.01976e-11
2.59592e-09
-1.07352e-11
2.6015e-09
-1.13014e-11
2.60746e-09
-1.18973e-11
2.61365e-09
-1.25237e-11
2.62026e-09
-1.31815e-11
2.62712e-09
-1.38715e-11
2.63443e-09
-1.45943e-11
2.64203e-09
-1.53502e-11
2.65012e-09
-1.61396e-11
2.65853e-09
-1.69625e-11
2.66746e-09
-1.78188e-11
2.67675e-09
-1.87077e-11
2.68659e-09
-1.96286e-11
2.69681e-09
-2.05801e-11
2.70762e-09
-2.15606e-11
2.71884e-09
-2.25677e-11
2.73068e-09
-2.35989e-11
2.74295e-09
-2.46507e-11
2.75586e-09
-2.57191e-11
2.76921e-09
-2.67994e-11
2.78322e-09
-2.78863e-11
2.79767e-09
-2.89735e-11
2.81277e-09
-3.00539e-11
2.82831e-09
-3.112e-11
2.84448e-09
-3.21631e-11
2.86106e-09
-3.31743e-11
2.87825e-09
-3.41433e-11
2.89578e-09
-3.50604e-11
2.91389e-09
-3.59142e-11
2.93225e-09
-3.66946e-11
2.95112e-09
-3.73897e-11
2.97013e-09
-3.79899e-11
2.98958e-09
-3.84838e-11
3.00904e-09
-3.8863e-11
3.02882e-09
-3.91176e-11
3.04848e-09
-3.92415e-11
3.06834e-09
-3.92268e-11
3.0879e-09
-3.90709e-11
3.10755e-09
-3.87686e-11
3.12673e-09
-3.83208e-11
3.14587e-09
-3.77253e-11
3.16438e-09
-3.69869e-11
3.18272e-09
-3.61064e-11
3.20026e-09
-3.50918e-11
3.21752e-09
-3.39465e-11
3.23384e-09
-3.26816e-11
3.24978e-09
-3.13023e-11
3.26465e-09
-2.98221e-11
3.27907e-09
-2.82474e-11
3.2923e-09
-2.65933e-11
3.30502e-09
-2.48669e-11
3.31649e-09
-2.30842e-11
3.3274e-09
-2.12523e-11
3.33701e-09
-1.93876e-11
3.34604e-09
-1.74968e-11
3.35375e-09
-1.55961e-11
3.36086e-09
-1.3691e-11
3.36667e-09
-1.17973e-11
3.37189e-09
-9.91919e-12
3.37584e-09
-8.0714e-12
3.37923e-09
-6.25631e-12
3.38139e-09
-4.48734e-12
3.38303e-09
-2.76534e-12
3.38351e-09
-1.10146e-12
3.3835e-09
5.06766e-13
3.38242e-09
2.05023e-12
3.38089e-09
3.53273e-12
3.37838e-09
4.94688e-12
3.37547e-09
6.29828e-12
3.37166e-09
7.58144e-12
3.36749e-09
8.80353e-12
3.36252e-09
9.9608e-12
3.35722e-09
1.10616e-11
3.3512e-09
1.21035e-11
3.34488e-09
1.30955e-11
3.33792e-09
1.40361e-11
3.33068e-09
1.49344e-11
3.32286e-09
1.57894e-11
3.31478e-09
1.66095e-11
3.30619e-09
1.7394e-11
3.29733e-09
1.81504e-11
3.28803e-09
1.88773e-11
3.27844e-09
1.95812e-11
3.26847e-09
2.02602e-11
3.25819e-09
2.0919e-11
3.2476e-09
2.15551e-11
3.23668e-09
2.21716e-11
3.2255e-09
2.27653e-11
3.21398e-09
2.33378e-11
3.20226e-09
2.3885e-11
3.19018e-09
2.44073e-11
3.17796e-09
2.49002e-11
3.16538e-09
2.53631e-11
3.15273e-09
2.57912e-11
3.13971e-09
2.61831e-11
3.1267e-09
2.65345e-11
3.11332e-09
2.68436e-11
3.10004e-09
2.71066e-11
3.08638e-09
2.73219e-11
3.07292e-09
2.74865e-11
3.0591e-09
2.75992e-11
3.04556e-09
2.76582e-11
3.03168e-09
2.76629e-11
3.01817e-09
2.76128e-11
3.00435e-09
2.7508e-11
2.99097e-09
2.73495e-11
2.97731e-09
2.71379e-11
2.96417e-09
2.68755e-11
2.95079e-09
2.65637e-11
2.93798e-09
2.62058e-11
2.92497e-09
2.58037e-11
2.91258e-09
2.53614e-11
2.90002e-09
2.48815e-11
2.88812e-09
2.43686e-11
2.87608e-09
2.38251e-11
2.86473e-09
2.32562e-11
2.85327e-09
2.26644e-11
2.84251e-09
2.20548e-11
2.83166e-09
2.14299e-11
2.82153e-09
2.07948e-11
2.81132e-09
2.01516e-11
2.80182e-09
1.95052e-11
2.79226e-09
1.88574e-11
2.78339e-09
1.82128e-11
2.77448e-09
1.75726e-11
2.76623e-09
1.69411e-11
2.75795e-09
1.63193e-11
2.7503e-09
1.57107e-11
2.74262e-09
1.5116e-11
2.73555e-09
1.45384e-11
2.72844e-09
1.39781e-11
2.72191e-09
1.34377e-11
2.71533e-09
1.29173e-11
2.70929e-09
1.2419e-11
2.70321e-09
1.19425e-11
2.69762e-09
1.14896e-11
2.69198e-09
1.10598e-11
2.6868e-09
1.06546e-11
2.68156e-09
1.02732e-11
2.67674e-09
9.91683e-12
2.67184e-09
9.58457e-12
2.66732e-09
9.27745e-12
2.66272e-09
8.99441e-12
2.65847e-09
8.73631e-12
2.6541e-09
8.50201e-12
2.65007e-09
8.29221e-12
2.6459e-09
8.10576e-12
2.64204e-09
7.94294e-12
2.63809e-09
7.80379e-12
2.6342e-09
7.68416e-12
2.63039e-09
7.59823e-12
7.48971e-12
2.50002e-09
-9.00197e-14
2.5001e-09
-3.10211e-13
2.50025e-09
-5.05271e-13
2.50046e-09
-6.94353e-13
2.50074e-09
-8.82046e-13
2.50107e-09
-1.06908e-12
2.50147e-09
-1.25578e-12
2.50192e-09
-1.44239e-12
2.50246e-09
-1.62907e-12
2.50303e-09
-1.81599e-12
2.50369e-09
-2.00332e-12
2.50438e-09
-2.19133e-12
2.50517e-09
-2.38028e-12
2.50599e-09
-2.5705e-12
2.5069e-09
-2.76233e-12
2.50784e-09
-2.95621e-12
2.50888e-09
-3.15257e-12
2.50996e-09
-3.35192e-12
2.51113e-09
-3.55478e-12
2.51234e-09
-3.76177e-12
2.51365e-09
-3.97351e-12
2.51499e-09
-4.1907e-12
2.51646e-09
-4.41405e-12
2.51794e-09
-4.64436e-12
2.51956e-09
-4.88246e-12
2.52121e-09
-5.12922e-12
2.52299e-09
-5.38559e-12
2.5248e-09
-5.65251e-12
2.52676e-09
-5.93107e-12
2.52876e-09
-6.22228e-12
2.53092e-09
-6.52735e-12
2.53312e-09
-6.84739e-12
2.53549e-09
-7.18372e-12
2.53791e-09
-7.53752e-12
2.54053e-09
-7.91028e-12
2.5432e-09
-8.3032e-12
2.54608e-09
-8.71793e-12
2.54902e-09
-9.15574e-12
2.5522e-09
-9.61839e-12
2.55545e-09
-1.01072e-11
2.55896e-09
-1.06241e-11
2.56256e-09
-1.11704e-11
2.56644e-09
-1.17481e-11
2.57043e-09
-1.23587e-11
2.57472e-09
-1.30041e-11
2.57915e-09
-1.36857e-11
2.5839e-09
-1.44057e-11
2.58881e-09
-1.51654e-11
2.59408e-09
-1.59668e-11
2.59954e-09
-1.68113e-11
2.60538e-09
-1.77007e-11
2.61144e-09
-1.86363e-11
2.61792e-09
-1.96197e-11
2.62464e-09
-2.06517e-11
2.63183e-09
-2.17339e-11
2.63929e-09
-2.28667e-11
2.64725e-09
-2.40509e-11
2.65552e-09
-2.52866e-11
2.66432e-09
-2.65738e-11
2.67348e-09
-2.79118e-11
2.68319e-09
-2.92997e-11
2.6933e-09
-3.07357e-11
2.704e-09
-3.22176e-11
2.71513e-09
-3.37422e-11
2.72688e-09
-3.53058e-11
2.73909e-09
-3.69036e-11
2.75194e-09
-3.85297e-11
2.76527e-09
-4.01773e-11
2.77927e-09
-4.18382e-11
2.79374e-09
-4.35035e-11
2.8089e-09
-4.51622e-11
2.82452e-09
-4.68031e-11
2.84082e-09
-4.84125e-11
2.85756e-09
-4.99771e-11
2.87494e-09
-5.14806e-11
2.89272e-09
-5.2908e-11
2.91109e-09
-5.42411e-11
2.92978e-09
-5.54639e-11
2.94901e-09
-5.65577e-11
2.96843e-09
-5.75068e-11
2.9883e-09
-5.82931e-11
3.00823e-09
-5.89026e-11
3.0285e-09
-5.93199e-11
3.04867e-09
-5.95343e-11
3.06906e-09
-5.95345e-11
3.08917e-09
-5.93142e-11
3.10935e-09
-5.88675e-11
3.12908e-09
-5.81933e-11
3.14874e-09
-5.72914e-11
3.16776e-09
-5.61657e-11
3.18658e-09
-5.48219e-11
3.2046e-09
-5.32684e-11
3.22228e-09
-5.15156e-11
3.23901e-09
-4.95759e-11
3.2553e-09
-4.74634e-11
3.27049e-09
-4.51931e-11
3.28517e-09
-4.2782e-11
3.29865e-09
-4.02465e-11
3.31154e-09
-3.76053e-11
3.32316e-09
-3.48756e-11
3.33416e-09
-3.20764e-11
3.34382e-09
-2.92249e-11
3.35285e-09
-2.634e-11
3.36053e-09
-2.34379e-11
3.36757e-09
-2.05364e-11
3.37327e-09
-1.76503e-11
3.37834e-09
-1.47958e-11
3.38213e-09
-1.19857e-11
3.38531e-09
-9.23367e-12
3.38725e-09
-6.55047e-12
3.38864e-09
-3.94712e-12
3.38887e-09
-1.431e-12
3.38859e-09
9.92188e-13
3.38724e-09
3.31824e-12
3.38543e-09
5.54353e-12
3.38265e-09
7.6663e-12
3.37946e-09
9.6861e-12
3.37539e-09
1.1604e-11
3.37096e-09
1.34223e-11
3.36575e-09
1.51446e-11
3.36022e-09
1.67754e-11
3.35399e-09
1.832e-11
3.34747e-09
1.97845e-11
3.34034e-09
2.11751e-11
3.33294e-09
2.24983e-11
3.325e-09
2.37606e-11
3.31679e-09
2.49683e-11
3.30811e-09
2.61272e-11
3.29915e-09
2.72426e-11
3.28978e-09
2.83192e-11
3.28013e-09
2.93607e-11
3.27011e-09
3.03701e-11
3.25979e-09
3.13496e-11
3.24916e-09
3.23002e-11
3.2382e-09
3.32219e-11
3.22699e-09
3.4114e-11
3.21543e-09
3.49748e-11
3.20367e-09
3.58016e-11
3.19155e-09
3.65914e-11
3.17929e-09
3.73399e-11
3.16665e-09
3.80431e-11
3.15395e-09
3.86958e-11
3.14086e-09
3.92936e-11
3.12778e-09
3.9831e-11
3.11432e-09
4.03038e-11
3.10095e-09
4.07066e-11
3.08722e-09
4.10363e-11
3.07366e-09
4.12882e-11
3.05976e-09
4.14606e-11
3.04612e-09
4.15499e-11
3.03216e-09
4.15562e-11
3.01856e-09
4.14774e-11
3.00467e-09
4.13152e-11
2.99121e-09
4.10693e-11
2.9775e-09
4.07431e-11
2.9643e-09
4.03377e-11
2.95088e-09
3.9858e-11
2.93803e-09
3.93063e-11
2.92501e-09
3.86889e-11
2.91261e-09
3.8009e-11
2.90007e-09
3.72737e-11
2.88819e-09
3.64869e-11
2.8762e-09
3.56561e-11
2.86489e-09
3.47857e-11
2.85351e-09
3.3883e-11
2.84282e-09
3.29528e-11
2.83208e-09
3.2002e-11
2.82203e-09
3.10352e-11
2.81195e-09
3.00589e-11
2.80256e-09
2.90775e-11
2.79315e-09
2.80967e-11
2.78441e-09
2.71204e-11
2.77566e-09
2.61536e-11
2.76755e-09
2.51998e-11
2.75944e-09
2.42629e-11
2.75195e-09
2.33461e-11
2.74445e-09
2.24525e-11
2.73753e-09
2.15845e-11
2.73061e-09
2.07446e-11
2.72423e-09
1.99348e-11
2.71784e-09
1.91567e-11
2.71196e-09
1.84119e-11
2.70605e-09
1.77014e-11
2.70063e-09
1.70263e-11
2.69516e-09
1.63872e-11
2.69013e-09
1.57849e-11
2.68505e-09
1.52194e-11
2.68038e-09
1.46913e-11
2.67563e-09
1.42004e-11
2.67126e-09
1.37469e-11
2.6668e-09
1.33304e-11
2.66268e-09
1.29509e-11
2.65845e-09
1.26078e-11
2.65454e-09
1.23011e-11
2.6505e-09
1.203e-11
2.64675e-09
1.1794e-11
2.64292e-09
1.15937e-11
2.63914e-09
1.14234e-11
2.63543e-09
1.13023e-11
1.11499e-11
2.50002e-09
-1.20034e-13
2.5001e-09
-4.12997e-13
2.50025e-09
-6.72895e-13
2.50046e-09
-9.2478e-13
2.50073e-09
-1.1747e-12
2.50106e-09
-1.42358e-12
2.50147e-09
-1.67186e-12
2.50191e-09
-1.91984e-12
2.50244e-09
-2.1677e-12
2.50301e-09
-2.41565e-12
2.50367e-09
-2.66393e-12
2.50436e-09
-2.91285e-12
2.50513e-09
-3.16277e-12
2.50594e-09
-3.41412e-12
2.50684e-09
-3.66736e-12
2.50777e-09
-3.92305e-12
2.5088e-09
-4.18178e-12
2.50986e-09
-4.4442e-12
2.51102e-09
-4.71105e-12
2.5122e-09
-4.9831e-12
2.51349e-09
-5.26122e-12
2.5148e-09
-5.54629e-12
2.51623e-09
-5.83932e-12
2.51769e-09
-6.14131e-12
2.51927e-09
-6.45342e-12
2.52087e-09
-6.77674e-12
2.52261e-09
-7.1126e-12
2.52437e-09
-7.46221e-12
2.52628e-09
-7.82704e-12
2.52822e-09
-8.20841e-12
2.53032e-09
-8.60799e-12
2.53245e-09
-9.02716e-12
2.53475e-09
-9.46778e-12
2.53709e-09
-9.93135e-12
2.53962e-09
-1.04199e-11
2.5422e-09
-1.0935e-11
2.54498e-09
-1.1479e-11
2.54783e-09
-1.20534e-11
2.5509e-09
-1.26607e-11
2.55404e-09
-1.33026e-11
2.55742e-09
-1.39817e-11
2.5609e-09
-1.46999e-11
2.56464e-09
-1.54598e-11
2.56849e-09
-1.62633e-11
2.57263e-09
-1.71133e-11
2.5769e-09
-1.80116e-11
2.58149e-09
-1.89612e-11
2.58624e-09
-1.99639e-11
2.59133e-09
-2.10226e-11
2.5966e-09
-2.21391e-11
2.60226e-09
-2.33161e-11
2.60813e-09
-2.45553e-11
2.61441e-09
-2.58594e-11
2.62093e-09
-2.72294e-11
2.62791e-09
-2.86678e-11
2.63517e-09
-3.01752e-11
2.64292e-09
-3.17534e-11
2.65099e-09
-3.34024e-11
2.65958e-09
-3.51229e-11
2.66854e-09
-3.69143e-11
2.67806e-09
-3.87758e-11
2.68798e-09
-4.07056e-11
2.69851e-09
-4.2701e-11
2.70948e-09
-4.47587e-11
2.7211e-09
-4.68738e-11
2.73319e-09
-4.90406e-11
2.74596e-09
-5.12515e-11
2.75923e-09
-5.34982e-11
2.77321e-09
-5.57694e-11
2.78771e-09
-5.80541e-11
2.80293e-09
-6.03369e-11
2.81868e-09
-6.26034e-11
2.83514e-09
-6.48341e-11
2.85212e-09
-6.70112e-11
2.86979e-09
-6.91114e-11
2.88793e-09
-7.11138e-11
2.90673e-09
-7.29921e-11
2.92591e-09
-7.47236e-11
2.94569e-09
-7.62808e-11
2.96573e-09
-7.76407e-11
2.98627e-09
-7.87767e-11
3.00694e-09
-7.96682e-11
3.02797e-09
-8.02923e-11
3.04895e-09
-8.06331e-11
3.07016e-09
-8.06739e-11
3.09112e-09
-8.04054e-11
3.11215e-09
-7.98193e-11
3.13273e-09
-7.89138e-11
3.15322e-09
-7.76892e-11
3.17305e-09
-7.61516e-11
3.19264e-09
-7.43093e-11
3.21137e-09
-7.2175e-11
3.22974e-09
-6.97643e-11
3.24708e-09
-6.70946e-11
3.26393e-09
-6.41872e-11
3.27962e-09
-6.10627e-11
3.29473e-09
-5.77464e-11
3.30856e-09
-5.42606e-11
3.32174e-09
-5.06326e-11
3.33358e-09
-4.68856e-11
3.34471e-09
-4.30475e-11
3.35446e-09
-3.9141e-11
3.36349e-09
-3.51934e-11
3.37112e-09
-3.12263e-11
3.37804e-09
-2.72654e-11
3.38357e-09
-2.33303e-11
3.38841e-09
-1.94444e-11
3.39192e-09
-1.56243e-11
3.39478e-09
-1.18902e-11
3.39637e-09
-8.2559e-12
3.39736e-09
-4.73745e-12
3.39717e-09
-1.34328e-12
3.39645e-09
1.9172e-12
3.39465e-09
5.03967e-12
3.39238e-09
8.01784e-12
3.38913e-09
1.0851e-11
3.38548e-09
1.35375e-11
3.38096e-09
1.60809e-11
3.37608e-09
1.84838e-11
3.37045e-09
2.07532e-11
3.36451e-09
2.2895e-11
3.3579e-09
2.49187e-11
3.35103e-09
2.68324e-11
3.34356e-09
2.86468e-11
3.33586e-09
3.03707e-11
3.32763e-09
3.20149e-11
3.31916e-09
3.35878e-11
3.31023e-09
3.5099e-11
3.30106e-09
3.65555e-11
3.29148e-09
3.7965e-11
3.28164e-09
3.93322e-11
3.27144e-09
4.06623e-11
3.26095e-09
4.19573e-11
3.25014e-09
4.32197e-11
3.23901e-09
4.44486e-11
3.22761e-09
4.56433e-11
3.21587e-09
4.68007e-11
3.20391e-09
4.79172e-11
3.19158e-09
4.89874e-11
3.1791e-09
5.00054e-11
3.16622e-09
5.09647e-11
3.15326e-09
5.18577e-11
3.1399e-09
5.26774e-11
3.12654e-09
5.34157e-11
3.11278e-09
5.4066e-11
3.09911e-09
5.46205e-11
3.08505e-09
5.50742e-11
3.07117e-09
5.54204e-11
3.05693e-09
5.56563e-11
3.04297e-09
5.57769e-11
3.02868e-09
5.5782e-11
3.01475e-09
5.56688e-11
3.00054e-09
5.54399e-11
2.98678e-09
5.50948e-11
2.97278e-09
5.46385e-11
2.95931e-09
5.40726e-11
2.94564e-09
5.34045e-11
2.93257e-09
5.26376e-11
2.91934e-09
5.17807e-11
2.90675e-09
5.08388e-11
2.89406e-09
4.98218e-11
2.88204e-09
4.87355e-11
2.86995e-09
4.75903e-11
2.85856e-09
4.63926e-11
2.84712e-09
4.51526e-11
2.83641e-09
4.3877e-11
2.82566e-09
4.25753e-11
2.81563e-09
4.12541e-11
2.80559e-09
3.99221e-11
2.79626e-09
3.85854e-11
2.78693e-09
3.72517e-11
2.77829e-09
3.59265e-11
2.76965e-09
3.46162e-11
2.76168e-09
3.33257e-11
2.75371e-09
3.20602e-11
2.74637e-09
3.08239e-11
2.73904e-09
2.96206e-11
2.7323e-09
2.84538e-11
2.72555e-09
2.73265e-11
2.71937e-09
2.62413e-11
2.71317e-09
2.52002e-11
2.70749e-09
2.42052e-11
2.70178e-09
2.32574e-11
2.69656e-09
2.23584e-11
2.6913e-09
2.15085e-11
2.68647e-09
2.07088e-11
2.6816e-09
1.99592e-11
2.67713e-09
1.92604e-11
2.67259e-09
1.86118e-11
2.66841e-09
1.80138e-11
2.66416e-09
1.74655e-11
2.66023e-09
1.69672e-11
2.65621e-09
1.65177e-11
2.65248e-09
1.6117e-11
2.64864e-09
1.5764e-11
2.64507e-09
1.54581e-11
2.64142e-09
1.51997e-11
2.63782e-09
1.49818e-11
2.63429e-09
1.48288e-11
1.46391e-11
2.50002e-09
-1.49973e-13
2.5001e-09
-5.15225e-13
2.50025e-09
-8.39756e-13
2.50045e-09
-1.15427e-12
2.50073e-09
-1.46614e-12
2.50106e-09
-1.77651e-12
2.50146e-09
-2.08585e-12
2.50191e-09
-2.39451e-12
2.50243e-09
-2.70267e-12
2.503e-09
-3.01059e-12
2.50364e-09
-3.31853e-12
2.50433e-09
-3.62686e-12
2.50509e-09
-3.93603e-12
2.50589e-09
-4.24655e-12
2.50678e-09
-4.559e-12
2.5077e-09
-4.87405e-12
2.50871e-09
-5.19246e-12
2.50974e-09
-5.51504e-12
2.51087e-09
-5.84269e-12
2.51203e-09
-6.17638e-12
2.51329e-09
-6.5172e-12
2.51457e-09
-6.86624e-12
2.51596e-09
-7.22476e-12
2.51737e-09
-7.59401e-12
2.5189e-09
-7.97542e-12
2.52045e-09
-8.37038e-12
2.52213e-09
-8.78051e-12
2.52383e-09
-9.20733e-12
2.52567e-09
-9.65268e-12
2.52753e-09
-1.01182e-11
2.52954e-09
-1.0606e-11
2.53158e-09
-1.11177e-11
2.53379e-09
-1.16558e-11
2.53603e-09
-1.2222e-11
2.53845e-09
-1.28189e-11
2.54091e-09
-1.34486e-11
2.54357e-09
-1.41138e-11
2.54628e-09
-1.48166e-11
2.5492e-09
-1.55601e-11
2.55219e-09
-1.63464e-11
2.55542e-09
-1.71789e-11
2.55872e-09
-1.80598e-11
2.56228e-09
-1.89926e-11
2.56594e-09
-1.99798e-11
2.56989e-09
-2.10249e-11
2.57395e-09
-2.21304e-11
2.57833e-09
-2.33002e-11
2.58284e-09
-2.45364e-11
2.5877e-09
-2.58432e-11
2.59273e-09
-2.72227e-11
2.59814e-09
-2.86789e-11
2.60374e-09
-3.02138e-11
2.60976e-09
-3.18311e-11
2.61601e-09
-3.35326e-11
2.62271e-09
-3.53217e-11
2.62968e-09
-3.71997e-11
2.63715e-09
-3.91692e-11
2.64493e-09
-4.12308e-11
2.65324e-09
-4.33862e-11
2.66191e-09
-4.5635e-11
2.67116e-09
-4.79772e-11
2.68082e-09
-5.04111e-11
2.6911e-09
-5.29345e-11
2.70185e-09
-5.55438e-11
2.71325e-09
-5.8234e-11
2.72517e-09
-6.09989e-11
2.7378e-09
-6.38295e-11
2.75097e-09
-6.67165e-11
2.7649e-09
-6.96464e-11
2.7794e-09
-7.26055e-11
2.79469e-09
-7.5575e-11
2.81057e-09
-7.85365e-11
2.82725e-09
-8.14652e-11
2.84452e-09
-8.43376e-11
2.86258e-09
-8.71229e-11
2.8812e-09
-8.9793e-11
2.90057e-09
-9.23121e-11
2.92042e-09
-9.46487e-11
2.94095e-09
-9.67644e-11
2.96186e-09
-9.86267e-11
2.98333e-09
-1.00198e-10
3.00501e-09
-1.01448e-10
3.02712e-09
-1.02345e-10
3.04924e-09
-1.02865e-10
3.07162e-09
-1.02985e-10
3.09378e-09
-1.02692e-10
3.11601e-09
-1.01974e-10
3.13778e-09
-1.0083e-10
3.15943e-09
-9.92594e-11
3.1804e-09
-9.72725e-11
3.20107e-09
-9.48815e-11
3.22082e-09
-9.21046e-11
3.24013e-09
-8.8964e-11
3.25834e-09
-8.54844e-11
3.27597e-09
-8.1695e-11
3.29235e-09
-7.76246e-11
3.30805e-09
-7.33071e-11
3.32237e-09
-6.87732e-11
3.33595e-09
-6.40591e-11
3.34808e-09
-5.91959e-11
3.35941e-09
-5.42205e-11
3.36926e-09
-4.91629e-11
3.3783e-09
-4.40591e-11
3.38584e-09
-3.89374e-11
3.3926e-09
-3.38318e-11
3.39788e-09
-2.87676e-11
3.40241e-09
-2.37759e-11
3.40552e-09
-1.88784e-11
3.40794e-09
-1.41014e-11
3.40903e-09
-9.4636e-12
3.40948e-09
-4.98567e-12
3.40871e-09
-6.77586e-13
3.40739e-09
3.4479e-12
3.40496e-09
7.3851e-12
3.40206e-09
1.1126e-11
3.39817e-09
1.46701e-11
3.39389e-09
1.80162e-11
3.38875e-09
2.11699e-11
3.38329e-09
2.41359e-11
3.37709e-09
2.69246e-11
3.37062e-09
2.95457e-11
3.36351e-09
3.2013e-11
3.35618e-09
3.43388e-11
3.34829e-09
3.65386e-11
3.3402e-09
3.86257e-11
3.33162e-09
4.06153e-11
3.32284e-09
4.25198e-11
3.31363e-09
4.43527e-11
3.3042e-09
4.61239e-11
3.29438e-09
4.78443e-11
3.28432e-09
4.95206e-11
3.27391e-09
5.11598e-11
3.26321e-09
5.27647e-11
3.2522e-09
5.43385e-11
3.24087e-09
5.58798e-11
3.22926e-09
5.73876e-11
3.21729e-09
5.88567e-11
3.20508e-09
6.02821e-11
3.19248e-09
6.16556e-11
3.1797e-09
6.29687e-11
3.1665e-09
6.42113e-11
3.15319e-09
6.53727e-11
3.13945e-09
6.64422e-11
3.12568e-09
6.74082e-11
3.1115e-09
6.82608e-11
3.09737e-09
6.8989e-11
3.08285e-09
6.95852e-11
3.06849e-09
7.00399e-11
3.05375e-09
7.03489e-11
3.03929e-09
7.05055e-11
3.0245e-09
7.05091e-11
3.01009e-09
7.03562e-11
2.99539e-09
7.00502e-11
2.98117e-09
6.95908e-11
2.96672e-09
6.89849e-11
2.95283e-09
6.82353e-11
2.93875e-09
6.7352e-11
2.92531e-09
6.63399e-11
2.91174e-09
6.52113e-11
2.89886e-09
6.39732e-11
2.88589e-09
6.2639e-11
2.87364e-09
6.12168e-11
2.86135e-09
5.97204e-11
2.8498e-09
5.81588e-11
2.83824e-09
5.65453e-11
2.82743e-09
5.48889e-11
2.81663e-09
5.32023e-11
2.80658e-09
5.14939e-11
2.79654e-09
4.97751e-11
2.78725e-09
4.80539e-11
2.77798e-09
4.634e-11
2.76943e-09
4.46406e-11
2.7609e-09
4.29636e-11
2.75306e-09
4.13153e-11
2.74525e-09
3.97022e-11
2.73808e-09
3.81292e-11
2.73093e-09
3.66013e-11
2.72438e-09
3.51225e-11
2.71785e-09
3.36964e-11
2.71188e-09
3.23262e-11
2.70591e-09
3.10139e-11
2.70046e-09
2.97621e-11
2.695e-09
2.85717e-11
2.69002e-09
2.74447e-11
2.68501e-09
2.6381e-11
2.68043e-09
2.5382e-11
2.67581e-09
2.44472e-11
2.67158e-09
2.35773e-11
2.6673e-09
2.27714e-11
2.66337e-09
2.20298e-11
2.65937e-09
2.13513e-11
2.65569e-09
2.07359e-11
2.65191e-09
2.01822e-11
2.64842e-09
1.969e-11
2.64482e-09
1.92578e-11
2.64148e-09
1.88848e-11
2.63808e-09
1.85714e-11
2.63471e-09
1.83092e-11
2.63141e-09
1.81267e-11
1.79055e-11
2.50002e-09
-1.8012e-13
2.5001e-09
-6.17125e-13
2.50025e-09
-1.00629e-12
2.50045e-09
-1.38342e-12
2.50073e-09
-1.75714e-12
2.50106e-09
-2.1287e-12
2.50146e-09
-2.49862e-12
2.5019e-09
-2.86722e-12
2.50243e-09
-3.23473e-12
2.50299e-09
-3.60137e-12
2.50363e-09
-3.96744e-12
2.5043e-09
-4.33337e-12
2.50506e-09
-4.69967e-12
2.50585e-09
-5.06693e-12
2.50672e-09
-5.43587e-12
2.50762e-09
-5.80726e-12
2.50861e-09
-6.18201e-12
2.50962e-09
-6.56109e-12
2.51072e-09
-6.94559e-12
2.51185e-09
-7.33665e-12
2.51307e-09
-7.73559e-12
2.51431e-09
-8.1437e-12
2.51565e-09
-8.5625e-12
2.51701e-09
-8.99347e-12
2.51848e-09
-9.43834e-12
2.51996e-09
-9.89873e-12
2.52157e-09
-1.03766e-11
2.52319e-09
-1.08738e-11
2.52494e-09
-1.13925e-11
2.52671e-09
-1.19346e-11
2.52863e-09
-1.25027e-11
2.53056e-09
-1.30988e-11
2.53264e-09
-1.37257e-11
2.53476e-09
-1.43856e-11
2.53704e-09
-1.50816e-11
2.53936e-09
-1.58162e-11
2.54186e-09
-1.65926e-11
2.5444e-09
-1.74134e-11
2.54715e-09
-1.82823e-11
2.54995e-09
-1.9202e-11
2.55298e-09
-2.01765e-11
2.55607e-09
-2.12085e-11
2.55941e-09
-2.23024e-11
2.56283e-09
-2.34611e-11
2.56653e-09
-2.46891e-11
2.57034e-09
-2.59894e-11
2.57444e-09
-2.73668e-11
2.57867e-09
-2.88242e-11
2.58324e-09
-3.03668e-11
2.58796e-09
-3.19972e-11
2.59304e-09
-3.37208e-11
2.59832e-09
-3.55401e-11
2.60399e-09
-3.74602e-11
2.60989e-09
-3.94836e-11
2.61623e-09
-4.16149e-11
2.62284e-09
-4.38563e-11
2.62993e-09
-4.62118e-11
2.63734e-09
-4.86828e-11
2.64528e-09
-5.12723e-11
2.65358e-09
-5.39807e-11
2.66246e-09
-5.68093e-11
2.67177e-09
-5.97572e-11
2.6817e-09
-6.28232e-11
2.69213e-09
-6.60043e-11
2.70324e-09
-6.9296e-11
2.71489e-09
-7.26921e-11
2.7273e-09
-7.61838e-11
2.7403e-09
-7.97608e-11
2.75411e-09
-8.34083e-11
2.76858e-09
-8.71109e-11
2.7839e-09
-9.08464e-11
2.79992e-09
-9.45931e-11
2.81682e-09
-9.83201e-11
2.83443e-09
-1.01998e-10
2.85294e-09
-1.05588e-10
2.87215e-09
-1.09053e-10
2.89223e-09
-1.12346e-10
2.91294e-09
-1.15423e-10
2.93445e-09
-1.18231e-10
2.95647e-09
-1.20727e-10
2.97918e-09
-1.22855e-10
3.00221e-09
-1.24575e-10
3.02576e-09
-1.25839e-10
3.0494e-09
-1.26615e-10
3.07334e-09
-1.2687e-10
3.0971e-09
-1.26585e-10
3.12094e-09
-1.25744e-10
3.14431e-09
-1.24348e-10
3.16753e-09
-1.22397e-10
3.19e-09
-1.19907e-10
3.21211e-09
-1.16895e-10
3.23321e-09
-1.13388e-10
3.25377e-09
-1.09418e-10
3.27312e-09
-1.05018e-10
3.29177e-09
-1.00228e-10
3.30904e-09
-9.50865e-11
3.32551e-09
-8.96391e-11
3.34046e-09
-8.39258e-11
3.35455e-09
-7.79938e-11
3.36704e-09
-7.18829e-11
3.37862e-09
-6.56408e-11
3.38858e-09
-5.93053e-11
3.39762e-09
-5.29229e-11
3.40504e-09
-4.65287e-11
3.41156e-09
-4.01663e-11
3.4165e-09
-3.38677e-11
3.4206e-09
-2.76725e-11
3.42318e-09
-2.1608e-11
3.425e-09
-1.57087e-11
3.42541e-09
-9.99831e-12
3.42514e-09
-4.50283e-12
3.42359e-09
7.66131e-13
3.42146e-09
5.79165e-12
3.41819e-09
1.0566e-11
3.41445e-09
1.50792e-11
3.40972e-09
1.93315e-11
3.40462e-09
2.33227e-11
3.39868e-09
2.70613e-11
3.39245e-09
3.05556e-11
3.38552e-09
3.38211e-11
3.37838e-09
3.68726e-11
3.37065e-09
3.97303e-11
3.36275e-09
4.24127e-11
3.35435e-09
4.49418e-11
3.34581e-09
4.7337e-11
3.33682e-09
4.96195e-11
3.32769e-09
5.18069e-11
3.31816e-09
5.39179e-11
3.30846e-09
5.59664e-11
3.29839e-09
5.7967e-11
3.28812e-09
5.99288e-11
3.27749e-09
6.18615e-11
3.26661e-09
6.37688e-11
3.2554e-09
6.56546e-11
3.24387e-09
6.75168e-11
3.23203e-09
6.93537e-11
3.21982e-09
7.11577e-11
3.20734e-09
7.29212e-11
3.19444e-09
7.46323e-11
3.18131e-09
7.62787e-11
3.16773e-09
7.78455e-11
3.154e-09
7.93173e-11
3.1398e-09
8.06785e-11
3.12553e-09
8.19122e-11
3.1108e-09
8.30043e-11
3.09611e-09
8.39389e-11
3.08097e-09
8.47051e-11
3.066e-09
8.52898e-11
3.05062e-09
8.56869e-11
3.03552e-09
8.58871e-11
3.02008e-09
8.58899e-11
3.00503e-09
8.56906e-11
2.9897e-09
8.5294e-11
2.97488e-09
8.47001e-11
2.95983e-09
8.39188e-11
2.94539e-09
8.29539e-11
2.93079e-09
8.18192e-11
2.91688e-09
8.0522e-11
2.90287e-09
7.90787e-11
2.8896e-09
7.74989e-11
2.87627e-09
7.58005e-11
2.86373e-09
7.39944e-11
2.85118e-09
7.20989e-11
2.83944e-09
7.01255e-11
2.82771e-09
6.80917e-11
2.81679e-09
6.60091e-11
2.80591e-09
6.38937e-11
2.79584e-09
6.17565e-11
2.78582e-09
5.96116e-11
2.77657e-09
5.74691e-11
2.76738e-09
5.53409e-11
2.75895e-09
5.32357e-11
2.75056e-09
5.11635e-11
2.74289e-09
4.91316e-11
2.73526e-09
4.71476e-11
2.72831e-09
4.52175e-11
2.72139e-09
4.3347e-11
2.71509e-09
4.15409e-11
2.70882e-09
3.98028e-11
2.70312e-09
3.81365e-11
2.69743e-09
3.6544e-11
2.69227e-09
3.50281e-11
2.6871e-09
3.35896e-11
2.68241e-09
3.22304e-11
2.6777e-09
3.09502e-11
2.67343e-09
2.97503e-11
2.66911e-09
2.86296e-11
2.66519e-09
2.7589e-11
2.66121e-09
2.66268e-11
2.65758e-09
2.57434e-11
2.65388e-09
2.49368e-11
2.65049e-09
2.42072e-11
2.64701e-09
2.35523e-11
2.64381e-09
2.2972e-11
2.6405e-09
2.24642e-11
2.63745e-09
2.20279e-11
2.63432e-09
2.16633e-11
2.63123e-09
2.13606e-11
2.6282e-09
2.11513e-11
2.09037e-11
2.50002e-09
-2.10454e-13
2.5001e-09
-7.19091e-13
2.50025e-09
-1.17319e-12
2.50046e-09
-1.61326e-12
2.50074e-09
-2.04895e-12
2.50106e-09
-2.48162e-12
2.50147e-09
-2.91174e-12
2.50191e-09