/*--------------------------------*- C++ -*----------------------------------*\
  =========                 |
  \\      /  F ield         | OpenFOAM: The Open Source CFD Toolbox
   \\    /   O peration     | Website:  https://openfoam.org
    \\  /    A nd           | Version:  10
     \\/     M anipulation  |
\*---------------------------------------------------------------------------*/
FoamFile
{
    format      ascii;
    class       volSymmTensorField;
    location    "0.001";
    object      UPrime2Mean;
}
// * * * * * * * * * * * * * * * * * * * * * * * * * * * * * * * * * * * * * //

dimensions      [0 2 -2 0 0 0 0];

internalField   nonuniform List<symmTensor> 
12225
(
(0.804476 0.0239729 0 0.00186117 0 0)
(0.0758514 -0.00846122 0 0.00272562 0 0)
(0.167782 -0.0144882 0 0.00179209 0 0)
(0.135644 -0.00789129 0 0.00073185 0 0)
(0.209488 -0.00390287 0 0.000197995 0 0)
(0.317875 -0.000818522 0 2.56113e-05 0 0)
(0.355691 0.00184105 0 1.50175e-05 0 0)
(0.348857 -0.00205275 0 1.25326e-05 0 0)
(0.359862 0.00471728 0 0.000100208 0 0)
(0.403453 -0.0122568 0 0.000415915 0 0)
(0.422702 0.0115815 0 0.000566296 0 0)
(0.498516 -0.0221615 0 0.00246075 0 0)
(0.595141 0.000231507 0 0.0052448 0 0)
(0.644899 -0.00100665 0 0.0189792 0 0)
(1.07535 -0.153803 0 0.0719429 0 0)
(1.99204 0.248065 0 0.168274 0 0)
(3.48646 -1.29638 0 0.899841 0 0)
(10.5165 1.35082 0 0.793985 0 0)
(0.844865 0.00684031 0 0.00160803 0 0)
(0.0101201 -0.000545218 0 0.000580713 0 0)
(0.0135777 3.90774e-05 0 0.000724842 0 0)
(0.00969677 0.00280031 0 0.000923159 0 0)
(0.00825934 0.0022613 0 0.000961909 0 0)
(0.00649035 -0.000280173 0 0.000559982 0 0)
(0.0121981 -0.00134028 0 0.000298159 0 0)
(0.0118732 -0.000519608 0 3.31845e-05 0 0)
(0.0225216 -0.00286441 0 0.000408686 0 0)
(0.024117 0.000725295 0 0.000127904 0 0)
(0.0426423 -0.00731583 0 0.00161226 0 0)
(0.0696576 -0.00649083 0 0.00272915 0 0)
(0.0709774 -0.0120363 0 0.00893117 0 0)
(0.219214 -0.0480565 0 0.02185 0 0)
(0.200929 -0.0477189 0 0.0386121 0 0)
(0.865581 -0.294047 0 0.139862 0 0)
(0.734613 -0.241564 0 0.107925 0 0)
(3.76884 -2.64698 0 1.95898 0 0)
(0.954083 0.00825668 0 0.00175183 0 0)
(0.0460211 -0.00129266 0 0.000999566 0 0)
(0.0474802 -0.00416029 0 0.000948734 0 0)
(0.00904956 -0.00161465 0 0.00106267 0 0)
(0.00467617 -0.00191404 0 0.00106743 0 0)
(0.014996 -0.00321948 0 0.000881364 0 0)
(0.0186328 -0.0022183 0 0.000316887 0 0)
(0.016907 -0.00272201 0 0.000472547 0 0)
(0.0164005 -0.000957313 0 0.000107976 0 0)
(0.0260077 -0.00472448 0 0.000962965 0 0)
(0.0364542 -0.00390789 0 0.000715341 0 0)
(0.0490611 -0.00911407 0 0.00327845 0 0)
(0.0838868 -0.0205079 0 0.00653097 0 0)
(0.131917 -0.0218704 0 0.00983359 0 0)
(0.248906 -0.113503 0 0.0581354 0 0)
(0.389096 -0.102091 0 0.0384126 0 0)
(0.801778 -0.595704 0 0.510718 0 0)
(1.01813 -1.15859 0 1.48929 0 0)
(0.876057 0.0201557 0 0.00253563 0 0)
(0.0260354 -0.0025004 0 0.00231926 0 0)
(0.0357568 -0.00753634 0 0.00236161 0 0)
(0.00583215 -0.00199622 0 0.00206075 0 0)
(0.00300294 -0.00135569 0 0.00154131 0 0)
(0.0123423 -0.002557 0 0.000825271 0 0)
(0.0172287 -0.00257272 0 0.000492895 0 0)
(0.0147317 -0.00169493 0 0.000241788 0 0)
(0.0166954 -0.00315438 0 0.000628216 0 0)
(0.02421 -0.00316571 0 0.000533326 0 0)
(0.0332046 -0.00728854 0 0.00191463 0 0)
(0.0494752 -0.0125093 0 0.00350116 0 0)
(0.0711287 -0.018765 0 0.00674741 0 0)
(0.119081 -0.0438365 0 0.0177864 0 0)
(0.187554 -0.0852284 0 0.0414713 0 0)
(0.297174 -0.185952 0 0.127939 0 0)
(0.451631 -0.420878 0 0.425305 0 0)
(0.433677 -0.637904 0 1.07289 0 0)
(0.728673 0.0207982 0 0.00509513 0 0)
(0.0310855 -0.00822277 0 0.00358149 0 0)
(0.0552312 -0.00993823 0 0.00252349 0 0)
(0.00927411 -0.00291054 0 0.00206747 0 0)
(0.00392805 -0.00208238 0 0.00172472 0 0)
(0.0141235 -0.00360806 0 0.00124818 0 0)
(0.0183798 -0.00324292 0 0.000690098 0 0)
(0.0155414 -0.00310172 0 0.000693835 0 0)
(0.0164174 -0.00314096 0 0.000685812 0 0)
(0.0229249 -0.00539256 0 0.00141887 0 0)
(0.0322237 -0.00901969 0 0.00261053 0 0)
(0.0443297 -0.0137688 0 0.00483304 0 0)
(0.0633327 -0.0269339 0 0.0118845 0 0)
(0.0982917 -0.0463853 0 0.022536 0 0)
(0.147446 -0.0959606 0 0.0667535 0 0)
(0.199196 -0.17284 0 0.156379 0 0)
(0.251058 -0.302314 0 0.393908 0 0)
(0.179954 -0.384198 0 1.1094 0 0)
(0.781766 0.00104695 0 0.00244365 0 0)
(0.0315608 -0.00729918 0 0.00253261 0 0)
(0.0517827 -0.0113143 0 0.00293307 0 0)
(0.00804619 -0.00366867 0 0.00282421 0 0)
(0.0043964 -0.00226227 0 0.00214727 0 0)
(0.0149336 -0.00356484 0 0.00128064 0 0)
(0.0187278 -0.00334282 0 0.000760836 0 0)
(0.015112 -0.00285646 0 0.000654358 0 0)
(0.015404 -0.0037731 0 0.00103468 0 0)
(0.0215126 -0.00601275 0 0.00187164 0 0)
(0.0291273 -0.00986272 0 0.00364678 0 0)
(0.0388602 -0.0168825 0 0.00767228 0 0)
(0.0545903 -0.0285446 0 0.0156849 0 0)
(0.0772082 -0.0488412 0 0.0324562 0 0)
(0.106021 -0.0899462 0 0.0785703 0 0)
(0.125574 -0.142254 0 0.169552 0 0)
(0.129857 -0.212821 0 0.397266 0 0)
(0.0721319 -0.193408 0 0.80135 0 0)
(0.876121 0.0352378 0 0.00324181 0 0)
(0.0167951 -0.00499989 0 0.00321859 0 0)
(0.0344589 -0.00804943 0 0.00292864 0 0)
(0.00382418 -0.000876228 0 0.00271193 0 0)
(0.00179201 -0.000382618 0 0.00224713 0 0)
(0.00960011 -0.00285935 0 0.0015883 0 0)
(0.0143862 -0.00343635 0 0.00108159 0 0)
(0.0126947 -0.00332669 0 0.00104351 0 0)
(0.0137661 -0.00429428 0 0.00151537 0 0)
(0.0191887 -0.00670349 0 0.00261942 0 0)
(0.0256328 -0.0112437 0 0.00530471 0 0)
(0.0333867 -0.0177162 0 0.00999443 0 0)
(0.0437953 -0.0288959 0 0.0202799 0 0)
(0.0570969 -0.0476734 0 0.0412014 0 0)
(0.0719562 -0.0767827 0 0.0863424 0 0)
(0.0735071 -0.109164 0 0.176244 0 0)
(0.0602888 -0.132863 0 0.338507 0 0)
(0.0272852 -0.0747497 0 0.600623 0 0)
(0.93154 0.0281443 0 0.00346677 0 0)
(0.021671 -0.00675804 0 0.00402444 0 0)
(0.027619 -0.0108156 0 0.00519041 0 0)
(0.00286026 -0.00227971 0 0.00524957 0 0)
(0.00404978 -0.00198643 0 0.00415615 0 0)
(0.0150545 -0.00478424 0 0.00260012 0 0)
(0.0189684 -0.00466928 0 0.0015187 0 0)
(0.0144763 -0.00385243 0 0.00126629 0 0)
(0.0135828 -0.00460561 0 0.00181688 0 0)
(0.0174377 -0.00718086 0 0.0033362 0 0)
(0.0222571 -0.0114458 0 0.00648039 0 0)
(0.0271725 -0.0176889 0 0.0123824 0 0)
(0.0334762 -0.0277111 0 0.0243629 0 0)
(0.0404386 -0.0418962 0 0.0459598 0 0)
(0.0449807 -0.0610352 0 0.0889026 0 0)
(0.0386518 -0.0756655 0 0.164568 0 0)
(0.0256735 -0.0731013 0 0.284455 0 0)
(0.0135095 -0.0102195 0 0.446657 0 0)
(0.743445 0.03157 0 0.00415024 0 0)
(0.0422949 -0.0126852 0 0.00547681 0 0)
(0.0763138 -0.0185527 0 0.00617576 0 0)
(0.0165779 -0.00755536 0 0.00597683 0 0)
(0.00470281 -0.0040503 0 0.00460881 0 0)
(0.0122686 -0.00499563 0 0.00287138 0 0)
(0.0146808 -0.00441668 0 0.00172755 0 0)
(0.0109295 -0.0036255 0 0.00151046 0 0)
(0.0106692 -0.00449982 0 0.00223812 0 0)
(0.0141863 -0.00708863 0 0.00404724 0 0)
(0.0178953 -0.0111466 0 0.00774858 0 0)
(0.0209853 -0.0166994 0 0.0144747 0 0)
(0.0242099 -0.024414 0 0.0267245 0 0)
(0.0262811 -0.0342735 0 0.0483278 0 0)
(0.0257735 -0.0448467 0 0.0865164 0 0)
(0.0187004 -0.0469453 0 0.145888 0 0)
(0.00991048 -0.0326419 0 0.228393 0 0)
(0.0109121 0.0233033 0 0.323859 0 0)
(0.861295 0.0754885 0 0.0100593 0 0)
(0.0270909 -0.0101938 0 0.00764165 0 0)
(0.0418045 -0.0162394 0 0.00729506 0 0)
(0.00593792 -0.00457017 0 0.00597172 0 0)
(0.00343573 -0.00220219 0 0.00389683 0 0)
(0.0125492 -0.00391111 0 0.00220009 0 0)
(0.0152171 -0.0038548 0 0.00138896 0 0)
(0.010802 -0.00342101 0 0.00146002 0 0)
(0.00962848 -0.0043639 0 0.00243155 0 0)
(0.0119618 -0.00683208 0 0.00457644 0 0)
(0.0142515 -0.0103807 0 0.00866191 0 0)
(0.0155436 -0.0147523 0 0.015695 0 0)
(0.0163383 -0.0202069 0 0.0279243 0 0)
(0.0158888 -0.0259371 0 0.0477788 0 0)
(0.0135588 -0.0298196 0 0.0791719 0 0)
(0.00785779 -0.0245922 0 0.123677 0 0)
(0.00430124 -0.00646548 0 0.17938 0 0)
(0.0135248 0.038651 0 0.235073 0 0)
(0.712506 0.0437285 0 0.00623321 0 0)
(0.0317657 -0.012885 0 0.00811749 0 0)
(0.052634 -0.0177342 0 0.00850992 0 0)
(0.00824473 -0.00405457 0 0.00788775 0 0)
(0.00114914 -0.000795501 0 0.0058589 0 0)
(0.00614207 -0.00322636 0 0.00359509 0 0)
(0.00897758 -0.00361771 0 0.00218919 0 0)
(0.00685127 -0.00311034 0 0.00195444 0 0)
(0.00669292 -0.00389024 0 0.00286869 0 0)
(0.0088027 -0.00609066 0 0.00509794 0 0)
(0.010361 -0.00899239 0 0.00927038 0 0)
(0.010625 -0.0121507 0 0.0162535 0 0)
(0.0101952 -0.0154163 0 0.0275964 0 0)
(0.0086952 -0.0177217 0 0.044655 0 0)
(0.00629314 -0.0172071 0 0.0696189 0 0)
(0.00328489 -0.00859558 0 0.101513 0 0)
(0.00388726 0.008789 0 0.137065 0 0)
(0.0165628 0.0431113 0 0.168223 0 0)
(0.830463 0.0602236 0 0.00859254 0 0)
(0.0250809 -0.0103726 0 0.00801288 0 0)
(0.0369857 -0.0149221 0 0.00725379 0 0)
(0.0038308 -0.00290902 0 0.00629516 0 0)
(0.00195441 -0.00114439 0 0.00472384 0 0)
(0.00919758 -0.00385785 0 0.00303252 0 0)
(0.0117518 -0.00409201 0 0.00202755 0 0)
(0.00775058 -0.00332966 0 0.0020053 0 0)
(0.00616765 -0.00377002 0 0.00303695 0 0)
(0.00716101 -0.00549446 0 0.00533926 0 0)
(0.00773178 -0.00762957 0 0.00946177 0 0)
(0.00719605 -0.00958719 0 0.0160515 0 0)
(0.00616606 -0.0110751 0 0.0261826 0 0)
(0.00456899 -0.0110893 0 0.040468 0 0)
(0.00297506 -0.00820308 0 0.059728 0 0)
(0.00226254 0.00127497 0 0.0821956 0 0)
(0.00528918 0.0163525 0 0.105254 0 0)
(0.0189564 0.0422828 0 0.123238 0 0)
(0.774498 0.0603706 0 0.00959144 0 0)
(0.0440778 -0.0139888 0 0.0105317 0 0)
(0.0644513 -0.020918 0 0.00922308 0 0)
(0.013559 -0.00819093 0 0.00840735 0 0)
(0.00393312 -0.00438949 0 0.00677244 0 0)
(0.0102529 -0.00544287 0 0.00422366 0 0)
(0.0112546 -0.00444781 0 0.0024532 0 0)
(0.00648084 -0.00301766 0 0.00208748 0 0)
(0.00460108 -0.00310061 0 0.00300128 0 0)
(0.00513941 -0.00441634 0 0.00522868 0 0)
(0.00528369 -0.00589955 0 0.00913729 0 0)
(0.00449613 -0.00687477 0 0.015134 0 0)
(0.00344392 -0.00702226 0 0.0238625 0 0)
(0.00228358 -0.00554104 0 0.0353665 0 0)
(0.00172042 -0.00148299 0 0.0498455 0 0)
(0.00285967 0.00758549 0 0.0654415 0 0)
(0.0072627 0.0198624 0 0.080128 0 0)
(0.0205605 0.0389892 0 0.090109 0 0)
(0.822939 0.0716069 0 0.0104377 0 0)
(0.0337244 -0.00986577 0 0.0156788 0 0)
(0.044767 -0.0211557 0 0.0129222 0 0)
(0.00680548 -0.00606297 0 0.00880445 0 0)
(0.00308639 -0.00232526 0 0.00498527 0 0)
(0.0101381 -0.00341022 0 0.00239659 0 0)
(0.0109351 -0.00288823 0 0.00134692 0 0)
(0.00570776 -0.00208635 0 0.00146402 0 0)
(0.00342643 -0.00223431 0 0.00255112 0 0)
(0.00347586 -0.00316629 0 0.00473378 0 0)
(0.0032871 -0.00397581 0 0.00830476 0 0)
(0.00248637 -0.00403692 0 0.0134679 0 0)
(0.00174257 -0.00311522 0 0.020509 0 0)
(0.00131205 -0.000713853 0 0.0291393 0 0)
(0.00184308 0.00365171 0 0.0392136 0 0)
(0.00439101 0.011421 0 0.0490868 0 0)
(0.00934466 0.0205981 0 0.0575488 0 0)
(0.021331 0.0337938 0 0.0623611 0 0)
(0.859163 0.0677921 0 0.0156456 0 0)
(0.0183347 -0.0103137 0 0.0145207 0 0)
(0.0268626 -0.0185243 0 0.0151182 0 0)
(0.00332844 -0.00120212 0 0.0138318 0 0)
(0.00150189 0.00206238 0 0.00867811 0 0)
(0.0036746 -0.00128211 0 0.00386961 0 0)
(0.00497853 -0.00167858 0 0.00163615 0 0)
(0.00259738 -0.00101106 0 0.00131598 0 0)
(0.00158134 -0.0010215 0 0.00215591 0 0)
(0.00174025 -0.00156904 0 0.0040275 0 0)
(0.0016653 -0.00181766 0 0.00703359 0 0)
(0.00127003 -0.00122664 0 0.0111603 0 0)
(0.00114873 0.00030851 0 0.0164187 0 0)
(0.00156695 0.00297816 0 0.0223757 0 0)
(0.00300688 0.0069339 0 0.0288053 0 0)
(0.00636194 0.0129386 0 0.0345044 0 0)
(0.0111703 0.0192312 0 0.038921 0 0)
(0.0212776 0.0277113 0 0.0408189 0 0)
(0.857539 0.068346 0 0.0117529 0 0)
(0.0175292 -0.0117682 0 0.0147132 0 0)
(0.0277633 -0.0198726 0 0.0173807 0 0)
(0.00460652 -0.00028328 0 0.0159956 0 0)
(0.00236554 0.00368 0 0.0102235 0 0)
(0.00196597 -0.000282563 0 0.00472295 0 0)
(0.00260976 -0.0010729 0 0.0019738 0 0)
(0.00131811 -0.000346312 0 0.00132563 0 0)
(0.000868454 -8.97554e-05 0 0.00185555 0 0)
(0.000972537 -0.000217322 0 0.00326476 0 0)
(0.00103967 1.54551e-05 0 0.00551787 0 0)
(0.00113691 0.00101406 0 0.00848512 0 0)
(0.00166034 0.002749 0 0.0120424 0 0)
(0.00276989 0.0051903 0 0.0157776 0 0)
(0.00474379 0.00832416 0 0.0195155 0 0)
(0.00828339 0.0125102 0 0.0224796 0 0)
(0.0124578 0.0164476 0 0.0245247 0 0)
(0.0204499 0.0214716 0 0.025011 0 0)
(0.814665 0.0706833 0 0.0123183 0 0)
(0.0239458 -0.0126205 0 0.0140865 0 0)
(0.0351493 -0.0188786 0 0.0138706 0 0)
(0.00706453 -0.00111357 0 0.0117417 0 0)
(0.00265377 0.00281727 0 0.00720886 0 0)
(0.00106366 0.000141383 0 0.00324207 0 0)
(0.00149066 -0.000320692 0 0.00138164 0 0)
(0.00117152 0.000319639 0 0.000985276 0 0)
(0.00118826 0.000712872 0 0.0013852 0 0)
(0.00120019 0.000903788 0 0.00237996 0 0)
(0.00143061 0.00142614 0 0.00391105 0 0)
(0.00201467 0.00253203 0 0.00582977 0 0)
(0.00304909 0.00410489 0 0.00799325 0 0)
(0.00454846 0.00600844 0 0.0101011 0 0)
(0.00664071 0.00819441 0 0.0120627 0 0)
(0.00986923 0.0108109 0 0.0134365 0 0)
(0.013178 0.0130455 0 0.0142639 0 0)
(0.0191077 0.0157497 0 0.0142218 0 0)
(1.04279 0.066377 0 0.0111344 0 0)
(0.0203229 0.0078446 0 0.0191775 0 0)
(0.00615107 -0.00220876 0 0.0187454 0 0)
(0.0201163 0.0146858 0 0.015299 0 0)
(0.0191745 0.0132875 0 0.010452 0 0)
(0.00513905 0.00464569 0 0.00562994 0 0)
(0.00189552 0.00128635 0 0.00257866 0 0)
(0.0024362 0.00122396 0 0.0013714 0 0)
(0.00273512 0.00143402 0 0.00124015 0 0)
(0.00246822 0.00161247 0 0.00168636 0 0)
(0.00272477 0.00214381 0 0.00250872 0 0)
(0.00361027 0.00310689 0 0.00354883 0 0)
(0.0048907 0.00432133 0 0.00468626 0 0)
(0.00644694 0.00562301 0 0.00573268 0 0)
(0.00833648 0.00698634 0 0.00665211 0 0)
(0.0109749 0.00845405 0 0.00721664 0 0)
(0.0134217 0.00960799 0 0.00750923 0 0)
(0.0175541 0.0109039 0 0.00736472 0 0)
(0.861337 0.0724773 0 0.0182682 0 0)
(0.0228903 -0.0169263 0 0.0224814 0 0)
(0.0493154 -0.0248696 0 0.023839 0 0)
(0.011359 -0.00153188 0 0.0236615 0 0)
(0.0034952 0.00470092 0 0.0175611 0 0)
(0.00108065 0.000666834 0 0.00910545 0 0)
(0.00194092 5.17849e-05 0 0.00360249 0 0)
(0.00320856 0.00103972 0 0.00140912 0 0)
(0.0040508 0.00142726 0 0.000874538 0 0)
(0.00401051 0.00165935 0 0.000974549 0 0)
(0.00444423 0.0021544 0 0.00135222 0 0)
(0.0055362 0.00291029 0 0.00185242 0 0)
(0.00686417 0.00375877 0 0.00238637 0 0)
(0.00825279 0.0045657 0 0.00285223 0 0)
(0.00977396 0.00534014 0 0.00324117 0 0)
(0.0117445 0.00608011 0 0.00344905 0 0)
(0.0134649 0.00662384 0 0.00353986 0 0)
(0.01615 0.00715185 0 0.00343235 0 0)
(0.875739 0.0754578 0 0.0131672 0 0)
(0.0250657 -0.0134263 0 0.0136625 0 0)
(0.0171486 -0.00762207 0 0.00900954 0 0)
(0.0103789 0.00534169 0 0.00627938 0 0)
(0.0108277 0.0056309 0 0.00417785 0 0)
(0.00340684 0.00206031 0 0.00218038 0 0)
(0.0029484 0.000888668 0 0.000936664 0 0)
(0.00530524 0.000898265 0 0.000458866 0 0)
(0.00629133 0.00105044 0 0.000374386 0 0)
(0.00582719 0.00133189 0 0.000472195 0 0)
(0.00604521 0.00177846 0 0.000679289 0 0)
(0.00707296 0.00235268 0 0.000938411 0 0)
(0.00826335 0.0029432 0 0.00120436 0 0)
(0.00940495 0.00345799 0 0.00142593 0 0)
(0.0105991 0.00392031 0 0.00160259 0 0)
(0.0120836 0.00431546 0 0.00168609 0 0)
(0.0133697 0.00459354 0 0.00171579 0 0)
(0.0151841 0.00480667 0 0.00165113 0 0)
(0.783107 0.0573585 0 0.0140841 0 0)
(0.0176666 -0.010018 0 0.0171965 0 0)
(0.0210193 -0.0129842 0 0.0159962 0 0)
(0.0139185 0.00727313 0 0.013654 0 0)
(0.0152696 0.00927863 0 0.00816543 0 0)
(0.00589086 0.00375475 0 0.0035409 0 0)
(0.00470921 0.00150975 0 0.00126697 0 0)
(0.00738672 0.00114782 0 0.00049135 0 0)
(0.00821503 0.00107941 0 0.000304305 0 0)
(0.00735571 0.00119998 0 0.000315897 0 0)
(0.00733904 0.00150476 0 0.000411556 0 0)
(0.00823646 0.00191814 0 0.000543175 0 0)
(0.00925758 0.00233571 0 0.000681688 0 0)
(0.0101749 0.00268356 0 0.00079657 0 0)
(0.011117 0.00298437 0 0.000887232 0 0)
(0.0122755 0.00322021 0 0.000926415 0 0)
(0.0132894 0.00338083 0 0.000937818 0 0)
(0.0146059 0.00347147 0 0.000898086 0 0)
(0.72396 0.0140311 0 0.0104874 0 0)
(0.029179 -0.00379173 0 0.00935285 0 0)
(0.0351615 0.000631909 0 0.00598921 0 0)
(0.0101865 0.00495249 0 0.00363839 0 0)
(0.00978677 0.00500426 0 0.00301925 0 0)
(0.00363342 0.00240254 0 0.00222837 0 0)
(0.00387125 0.00137623 0 0.00120507 0 0)
(0.00708265 0.00133329 0 0.000556936 0 0)
(0.00837951 0.00117872 0 0.000301396 0 0)
(0.00779638 0.0011114 0 0.000245064 0 0)
(0.00789778 0.00126257 0 0.000272026 0 0)
(0.00882794 0.00154063 0 0.000331893 0 0)
(0.0097977 0.00183369 0 0.000401494 0 0)
(0.0106022 0.00207538 0 0.00046081 0 0)
(0.011402 0.00228211 0 0.00050862 0 0)
(0.0123629 0.00243481 0 0.000528291 0 0)
(0.0132178 0.00253855 0 0.000533742 0 0)
(0.0142293 0.00257916 0 0.00051064 0 0)
(0.930654 0.0221172 0 0.014487 0 0)
(0.0410686 -0.0085511 0 0.00725395 0 0)
(0.018219 -0.00435228 0 0.00270243 0 0)
(0.0044143 0.00179645 0 0.00170047 0 0)
(0.00458476 0.00205236 0 0.00144632 0 0)
(0.00126184 0.000476546 0 0.000857791 0 0)
(0.00270866 0.00022163 0 0.000364708 0 0)
(0.00603401 0.000364679 0 0.000158636 0 0)
(0.00793435 0.000444887 0 0.000103838 0 0)
(0.00789264 0.000602127 0 0.000104842 0 0)
(0.00824282 0.000840974 0 0.000133292 0 0)
(0.00925268 0.0011166 0 0.000176009 0 0)
(0.0101996 0.00137501 0 0.000222489 0 0)
(0.0109236 0.00157676 0 0.000261498 0 0)
(0.01162 0.00174083 0 0.000292496 0 0)
(0.0124418 0.00185491 0 0.000306129 0 0)
(0.0131877 0.00193176 0 0.000310921 0 0)
(0.0139964 0.00195267 0 0.000298467 0 0)
(0.831679 0.0428669 0 0.00682945 0 0)
(0.0409721 -0.0121581 0 0.00827086 0 0)
(0.0326896 -0.0130069 0 0.00607336 0 0)
(0.00526148 -0.000906398 0 0.00420516 0 0)
(0.00381034 0.00124673 0 0.00216619 0 0)
(0.00146385 0.000101334 0 0.00070949 0 0)
(0.0032354 -0.000197437 0 0.000213294 0 0)
(0.00702971 -0.00034881 0 0.000120033 0 0)
(0.00894648 -0.000222818 0 7.86493e-05 0 0)
(0.00866039 0.000133091 0 5.56143e-05 0 0)
(0.00883496 0.000478837 0 6.29855e-05 0 0)
(0.00973607 0.000774914 0 8.99344e-05 0 0)
(0.0105799 0.00101748 0 0.000121768 0 0)
(0.0112004 0.00119373 0 0.000148386 0 0)
(0.0118012 0.00132869 0 0.000169038 0 0)
(0.0125159 0.00141804 0 0.000178654 0 0)
(0.0131816 0.00147764 0 0.000182573 0 0)
(0.0138524 0.00149 0 0.000176006 0 0)
(0.79493 0.0391925 0 0.00585756 0 0)
(0.0141267 -0.00479718 0 0.00443195 0 0)
(0.0158597 -0.00575105 0 0.00286593 0 0)
(0.0213463 0.00131003 0 0.0016467 0 0)
(0.0268529 0.000653304 0 0.00068532 0 0)
(0.0122868 -0.00094311 0 0.000373143 0 0)
(0.00852451 -0.00123649 0 0.000329365 0 0)
(0.011095 -0.00115203 0 0.00022488 0 0)
(0.0114261 -0.000673086 0 0.000108738 0 0)
(0.00989675 -0.000123839 0 4.73279e-05 0 0)
(0.00951385 0.000266351 0 3.55174e-05 0 0)
(0.0101823 0.000544254 0 4.81641e-05 0 0)
(0.0108918 0.000753355 0 6.72708e-05 0 0)
(0.0114156 0.000899938 0 8.39384e-05 0 0)
(0.0119406 0.00100914 0 9.70098e-05 0 0)
(0.012578 0.0010799 0 0.000103466 0 0)
(0.0131875 0.0011271 0 0.000106407 0 0)
(0.0137651 0.00113634 0 0.000103152 0 0)
(0.783006 -0.00133089 0 0.00317233 0 0)
(0.0188036 -0.00339044 0 0.00227392 0 0)
(0.0220359 -0.000830338 0 0.00115342 0 0)
(0.0181941 0.0028801 0 0.000721606 0 0)
(0.0226726 0.00298366 0 0.000521529 0 0)
(0.0112222 0.00134203 0 0.000271872 0 0)
(0.0090211 0.000464462 0 0.000107974 0 0)
(0.0120385 0.000129748 0 4.2293e-05 0 0)
(0.0122991 2.61728e-05 0 2.35845e-05 0 0)
(0.010525 0.00010999 0 1.90865e-05 0 0)
(0.00995812 0.000268506 0 2.10939e-05 0 0)
(0.0105077 0.000431089 0 2.84586e-05 0 0)
(0.0111252 0.000571345 0 3.82142e-05 0 0)
(0.0115765 0.000676601 0 4.71352e-05 0 0)
(0.0120449 0.000758156 0 5.45056e-05 0 0)
(0.0126268 0.000811982 0 5.83879e-05 0 0)
(0.0131971 0.000848243 0 6.02806e-05 0 0)
(0.0137135 0.00085587 0 5.87444e-05 0 0)
(0.926222 0.019228 0 0.00478665 0 0)
(0.0233873 0.000778365 0 0.00102155 0 0)
(0.0128377 -0.000745418 0 0.000245044 0 0)
(0.0116234 -0.000782052 0 0.000164323 0 0)
(0.0147155 -0.001396 0 0.000187701 0 0)
(0.00587555 -0.000885161 0 0.000176369 0 0)
(0.00581052 -0.000536856 0 0.000106822 0 0)
(0.00978811 -0.000461607 0 5.06392e-05 0 0)
(0.0111535 -0.000268561 0 2.32659e-05 0 0)
(0.0101835 -2.98189e-05 0 1.21556e-05 0 0)
(0.00995214 0.000159951 0 1.0772e-05 0 0)
(0.0106025 0.000303209 0 1.46339e-05 0 0)
(0.0112347 0.000412556 0 1.99799e-05 0 0)
(0.0116718 0.000491956 0 2.48427e-05 0 0)
(0.012118 0.000553228 0 2.89005e-05 0 0)
(0.0126704 0.000593591 0 3.11083e-05 0 0)
(0.0132189 0.000621222 0 3.22605e-05 0 0)
(0.0136997 0.000627122 0 3.15285e-05 0 0)
(0.819707 -0.00109502 0 0.00163565 0 0)
(0.0141519 -0.00246065 0 0.000914241 0 0)
(0.014254 -0.000872075 0 0.000434639 0 0)
(0.0229793 0.00173883 0 0.000241907 0 0)
(0.0288996 0.00162739 0 0.000151577 0 0)
(0.0143931 0.000584162 0 7.15628e-05 0 0)
(0.0106589 3.67641e-05 0 2.75073e-05 0 0)
(0.0132527 -0.000190333 0 1.43468e-05 0 0)
(0.0132504 -0.000204477 0 1.10085e-05 0 0)
(0.0112964 -5.88327e-05 0 6.81242e-06 0 0)
(0.0106263 9.49801e-05 0 5.14083e-06 0 0)
(0.0111151 0.000206354 0 6.75694e-06 0 0)
(0.0116921 0.000285448 0 9.28963e-06 0 0)
(0.0121145 0.000342748 0 1.1658e-05 0 0)
(0.0125687 0.000389125 0 1.37632e-05 0 0)
(0.0131309 0.00041935 0 1.49294e-05 0 0)
(0.0137062 0.000441978 0 1.56858e-05 0 0)
(0.0141938 0.000447125 0 1.53925e-05 0 0)
(0.776993 -0.0122837 0 0.0024952 0 0)
(0.0256551 0.00239937 0 0.000513878 0 0)
(0.0272105 0.00259268 0 0.000498382 0 0)
(0.0130014 -0.00104131 0 0.000503941 0 0)
(0.0162681 -0.00196132 0 0.000357819 0 0)
(0.00816749 -0.000762513 0 0.000121195 0 0)
(0.00787263 -0.000111018 0 1.26903e-05 0 0)
(0.0116144 2.88529e-05 0 1.04211e-06 0 0)
(0.012472 2.04599e-05 0 1.47167e-06 0 0)
(0.0111148 4.16491e-05 0 1.45603e-06 0 0)
(0.0107153 9.60837e-05 0 1.77117e-06 0 0)
(0.0113156 0.000138158 0 2.40662e-06 0 0)
(0.0119859 0.00016596 0 2.92896e-06 0 0)
(0.0124992 0.000188793 0 3.40056e-06 0 0)
(0.0130599 0.000213044 0 3.96482e-06 0 0)
(0.0137123 0.000230583 0 4.32014e-06 0 0)
(0.0143869 0.000244321 0 4.56252e-06 0 0)
(0.0149802 0.000250184 0 4.56134e-06 0 0)
(0.831326 -0.00371575 0 0.00121099 0 0)
(0.0467719 -3.80034e-05 0 0.000573528 0 0)
(0.0485756 0.00302419 0 0.000392531 0 0)
(0.0122021 0.00154222 0 0.000239062 0 0)
(0.0252546 0.00128952 0 0.000118338 0 0)
(0.0521622 0.00117211 0 4.00003e-05 0 0)
(0.0576357 0.00055239 0 7.58819e-06 0 0)
(0.0491302 0.000223168 0 1.69065e-06 0 0)
(0.0475782 0.000138201 0 1.02253e-06 0 0)
(0.0507968 4.29126e-05 0 4.85098e-07 0 0)
(0.0516506 -6.65419e-05 0 2.66267e-07 0 0)
(0.0501097 -0.00012281 0 3.8569e-07 0 0)
(0.0486935 -0.000139942 0 4.78104e-07 0 0)
(0.0477737 -0.000149779 0 5.41064e-07 0 0)
(0.0468585 -0.000162153 0 6.29935e-07 0 0)
(0.0456925 -0.000171575 0 7.0603e-07 0 0)
(0.0445881 -0.00017742 0 7.60482e-07 0 0)
(0.0435305 -0.000182044 0 8.20302e-07 0 0)
(3.48046e-05 -6.78574e-05 1.84346e-21 0.000132307 -3.62269e-21 1.0992e-35)
(0.000205167 -0.000113233 -4.30456e-21 6.25579e-05 2.25179e-21 1.08384e-35)
(0.000457675 -0.000174064 0 6.62021e-05 0 0)
(0.000826501 -0.000233182 0 6.57885e-05 0 0)
(0.00130374 -0.000286139 0 6.28008e-05 0 0)
(0.00187614 -0.00033292 1.23801e-20 5.90775e-05 -2.20698e-21 1.02094e-35)
(0.00253253 -0.000372827 0 5.48877e-05 0 0)
(0.00326037 -0.000405077 0 5.03307e-05 0 0)
(0.00404516 -0.000429092 0 4.552e-05 0 0)
(0.00487116 -0.000444561 0 4.05776e-05 0 0)
(0.00572192 -0.000451443 -2.07592e-20 3.56243e-05 1.66832e-21 9.45712e-36)
(0.00658081 -0.000449954 0 3.07735e-05 0 0)
(0.00743152 -0.000440549 0 2.61268e-05 0 0)
(0.00825851 -0.000423891 0 2.17701e-05 0 0)
(0.00904747 -0.00040081 0 1.77714e-05 0 0)
(0.00978563 -0.000372264 -2.61693e-20 1.41794e-05 1.03702e-21 8.74166e-36)
(0.0104621 -0.00033929 0 1.1024e-05 0 0)
(0.0110679 -0.000302962 0 8.31667e-06 0 0)
(0.0115964 -0.000264348 0 6.05296e-06 0 0)
(0.0120427 -0.000224474 0 4.21444e-06 0 0)
(0.0124044 -0.000184293 0 2.77178e-06 0 0)
(0.0126807 -0.00014466 0 1.68748e-06 0 0)
(0.0128728 -0.000106319 0 9.18851e-07 0 0)
(0.0129833 -6.98871e-05 -2.84794e-20 4.2045e-07 1.98507e-22 7.67228e-36)
(0.0130161 -3.58585e-05 2.83136e-20 1.46534e-07 -1.22561e-22 7.5451e-36)
(0.0129763 -4.60152e-06 -2.80696e-20 5.28065e-08 5.36664e-23 7.41936e-36)
(0.0128696 2.36318e-05 -2.77548e-20 9.79127e-08 -8.28862e-24 7.29506e-36)
(0.0127024 4.86999e-05 0 2.44467e-07 0 0)
(0.0124815 7.05519e-05 0 4.59663e-07 0 0)
(0.0122137 8.92232e-05 2.6459e-20 7.15623e-07 1.54608e-22 6.93082e-36)
(0.0119059 0.000104812 2.59333e-20 9.89329e-07 1.91194e-22 6.81228e-36)
(0.0115648 0.000117475 0 1.26257e-06 0 0)
(0.0111969 0.000127403 0 1.52134e-06 0 0)
(0.0108081 0.000134818 2.41648e-20 1.75565e-06 2.6944e-22 6.46528e-36)
(0.0104039 0.000139958 0 1.95874e-06 0 0)
(0.00998967 0.000143071 0 2.12685e-06 0 0)
(0.0095698 0.0001444 -2.22245e-20 2.25823e-06 -3.0876e-22 6.13117e-36)
(0.0091484 0.000144188 0 2.35326e-06 0 0)
(0.00872903 0.000142661 -2.08966e-20 2.41338e-06 -3.18489e-22 5.91553e-36)
(0.00831475 0.000140039 -4.04665e-20 2.44127e-06 -6.38941e-22 2.32393e-35)
(0.00790814 0.000136515 0 2.43992e-06 0 0)
(0.00751135 0.000132275 0 2.41304e-06 0 0)
(0.0071261 0.000127476 0 2.36416e-06 0 0)
(0.00675378 0.000122265 0 2.29708e-06 0 0)
(0.00639541 0.000116766 0 2.21518e-06 0 0)
(0.00605176 0.000111088 -3.28479e-20 2.12187e-06 -5.79096e-22 2.082e-35)
(0.00572329 0.000105321 -3.16683e-20 2.02001e-06 -5.61603e-22 2.04362e-35)
(0.00541029 9.95456e-05 -3.05207e-20 1.91241e-06 -5.42958e-22 2.00577e-35)
(0.00511283 9.38236e-05 0 1.80131e-06 0 0)
(0.00483084 8.82086e-05 2.8327e-20 1.68879e-06 5.03368e-22 1.9317e-35)
(0.00456409 8.27393e-05 0 1.57644e-06 0 0)
(0.00431227 7.74527e-05 -2.62739e-20 1.46584e-06 -4.62239e-22 1.85976e-35)
(0.00407498 7.23674e-05 -2.53011e-20 1.35792e-06 -4.41573e-22 1.82459e-35)
(0.00385174 6.75039e-05 0 1.2537e-06 0 0)
(0.00364203 6.28712e-05 0 1.15375e-06 0 0)
(0.00344529 5.84793e-05 0 1.05871e-06 0 0)
(0.00326094 5.43255e-05 -2.17653e-20 9.68701e-07 -3.61219e-22 1.68906e-35)
(0.00308839 5.04132e-05 0 8.84087e-07 0 0)
(0.00292703 4.67348e-05 0 8.04799e-07 0 0)
(0.00277627 4.3289e-05 0 7.30979e-07 0 0)
(0.00263552 4.0064e-05 0 6.62386e-07 0 0)
(0.00250421 3.70549e-05 0 5.99004e-07 0 0)
(0.00238178 3.42489e-05 0 5.40529e-07 0 0)
(0.00226768 3.16397e-05 0 4.86859e-07 0 0)
(0.0021614 2.92137e-05 0 4.37647e-07 0 0)
(0.00206244 2.69634e-05 1.57224e-20 3.92725e-07 2.11922e-22 1.4132e-35)
(0.00197034 2.48762e-05 0 3.51761e-07 0 0)
(0.00188465 2.29438e-05 0 3.14546e-07 0 0)
(0.00180493 2.11547e-05 -1.42105e-20 2.80773e-07 -1.73878e-22 1.32973e-35)
(0.00173079 1.95006e-05 -1.37536e-20 2.50221e-07 -1.6246e-22 1.30281e-35)
(0.00166186 1.79716e-05 0 2.22621e-07 0 0)
(0.00159777 1.65588e-05 1.29045e-20 1.97736e-07 1.41404e-22 1.25028e-35)
(0.0015382 1.52539e-05 -1.25104e-20 1.75339e-07 -1.31735e-22 1.22466e-35)
(0.00148284 1.40505e-05 0 1.55254e-07 0 0)
(0.00143139 1.29381e-05 1.17785e-20 1.37205e-07 1.14e-22 1.1747e-35)
(0.00138359 1.19127e-05 0 1.21078e-07 0 0)
(0.00133918 1.09665e-05 0 1.0666e-07 0 0)
(0.00129793 1.00935e-05 -1.08081e-20 9.38006e-08 -9.10913e-23 1.10285e-35)
(0.00125962 9.28738e-06 0 8.2335e-08 0 0)
(0.00122404 8.54455e-06 1.02368e-20 7.21568e-08 7.80311e-23 1.05696e-35)
(0.00119101 7.85813e-06 0 6.31032e-08 0 0)
(0.00116034 7.22513e-06 -9.71935e-21 5.50879e-08 -6.65243e-23 1.01262e-35)
(0.00113188 6.63958e-06 -9.47914e-21 4.79762e-08 -6.13135e-23 9.91018e-36)
(0.00110547 6.10006e-06 -9.25048e-21 4.17104e-08 -5.64208e-23 9.69792e-36)
(0.00108096 5.60044e-06 -1.80655e-20 3.61649e-08 -1.03687e-22 3.79574e-35)
(0.00105824 5.13863e-06 1.76507e-20 3.12811e-08 9.5125e-23 3.71376e-35)
(0.0010372 4.71093e-06 0 2.69786e-08 0 0)
(0.00101769 4.31644e-06 0 2.32162e-08 0 0)
(0.000999586 3.94795e-06 0 1.98854e-08 0 0)
(0.000982787 3.60001e-06 1.61777e-20 1.69197e-08 6.6029e-23 3.39997e-35)
(0.000967292 3.28634e-06 1.58516e-20 1.44055e-08 5.99005e-23 3.32495e-35)
(0.000952858 2.96568e-06 -1.55399e-20 1.19895e-08 -5.36458e-23 3.25127e-35)
(0.000939574 2.66376e-06 0 9.87984e-09 0 0)
(0.000927128 2.474e-06 1.49619e-20 8.55881e-09 4.00278e-23 3.10782e-35)
(0.000915225 1.98192e-06 1.46964e-20 5.70414e-09 2.93617e-23 3.03802e-35)
(0.000905412 1.27767e-06 1.445e-20 2.5221e-09 1.92971e-23 2.96948e-35)
(0.000897438 7.87506e-07 0 1.04873e-09 0 0)
(0.000890764 5.32081e-07 0 5.46044e-10 0 0)
(0.000885056 4.12415e-07 0 3.70798e-10 0 0)
(0.000880067 3.53557e-07 1.35852e-20 2.91364e-10 7.06909e-24 2.7075e-35)
(0.000875645 3.13387e-07 0 2.36296e-10 0 0)
(0.000871723 2.77816e-07 0 1.90404e-10 0 0)
(0.000868263 2.40412e-07 -1.30164e-20 1.47992e-10 -4.523e-24 2.52331e-35)
(0.000865234 2.02209e-07 0 1.11156e-10 0 0)
(0.000862613 1.63421e-07 0 7.98726e-11 0 0)
(0.000860366 1.2351e-07 -1.24992e-20 5.40591e-11 -2.36692e-24 2.34915e-35)
(0.000858473 8.50042e-08 0 3.47327e-11 0 0)
(0.000856907 4.5391e-08 0 2.06436e-11 0 0)
(0.000855652 8.3564e-09 1.20257e-20 1.24133e-11 4.13761e-25 2.18454e-35)
(0.000854689 -2.93031e-08 1.18762e-20 9.06666e-12 -1.1526e-25 2.13172e-35)
(0.000854003 -6.38048e-08 0 1.01824e-11 0 0)
(0.00085358 -9.85547e-08 -1.1588e-20 1.55118e-11 1.23383e-24 2.02905e-35)
(0.000853406 -1.30006e-07 0 2.37357e-11 0 0)
(0.000853467 -1.6181e-07 1.13124e-20 3.55211e-11 -2.27859e-24 1.93025e-35)
(0.000853753 -1.9009e-07 0 4.87001e-11 0 0)
(0.000854251 -2.18459e-07 1.10475e-20 6.46665e-11 -3.24226e-24 1.83519e-35)
(0.00085495 -2.43665e-07 1.09187e-20 8.08936e-11 -3.74115e-24 1.78903e-35)
(0.00085584 -2.68999e-07 0 9.93582e-11 0 0)
(0.000856903 -2.92842e-07 0 1.18395e-10 0 0)
(0.000858132 -3.1616e-07 0 1.38845e-10 0 0)
(0.000859523 -3.38312e-07 0 1.5972e-10 0 0)
(0.000861079 -3.58242e-07 0 1.79797e-10 0 0)
(0.000862799 -3.76722e-07 0 1.99392e-10 0 0)
(0.000864668 -3.94376e-07 0 2.18994e-10 0 0)
(0.000866678 -4.10398e-07 9.95844e-21 2.3738e-10 -6.05024e-24 1.45068e-35)
(0.000868815 -4.26912e-07 -9.846e-21 2.57117e-10 6.10467e-24 1.41204e-35)
(0.000871076 -4.41189e-07 0 2.74526e-10 0 0)
(0.000873454 -4.56293e-07 0 2.93624e-10 0 0)
(0.000875945 -4.6945e-07 0 3.10421e-10 0 0)
(0.000878544 -4.83277e-07 0 3.28641e-10 0 0)
(0.000881249 -4.95309e-07 -1.8602e-20 3.44527e-10 1.2965e-23 4.92085e-35)
(0.000884055 -5.07976e-07 0 3.61717e-10 0 0)
(0.000886961 -5.18946e-07 1.81766e-20 3.76519e-10 -1.32286e-23 4.65015e-35)
(0.000889962 -5.3065e-07 -1.79654e-20 3.92713e-10 1.33113e-23 4.51895e-35)