/*--------------------------------*- C++ -*----------------------------------*\
  =========                 |
  \\      /  F ield         | OpenFOAM: The Open Source CFD Toolbox
   \\    /   O peration     | Website:  https://openfoam.org
    \\  /    A nd           | Version:  10
     \\/     M anipulation  |
\*---------------------------------------------------------------------------*/
FoamFile
{
    format      ascii;
    class       volScalarField;
    location    "2.39";
    object      Sb;
}
// * * * * * * * * * * * * * * * * * * * * * * * * * * * * * * * * * * * * * //

dimensions      [0 0 0 0 0 0 0];

internalField   nonuniform List<scalar> 
12225
(
0.876525
0.875548
0.874331
0.872998
0.871637
0.870305
0.869035
0.86785
0.866762
0.865782
0.864918
0.864182
0.863589
0.86317
0.862982
0.86315
0.864015
0.86662
0.888176
0.886941
0.885418
0.883767
0.882098
0.880478
0.878947
0.877527
0.876233
0.875072
0.874052
0.873185
0.872485
0.871984
0.871735
0.871852
0.872568
0.874285
0.895484
0.894035
0.892262
0.890358
0.888447
0.886604
0.884873
0.883276
0.881825
0.880528
0.879391
0.878421
0.877634
0.877055
0.87673
0.876741
0.877216
0.878272
0.901284
0.899626
0.897616
0.895474
0.893339
0.891293
0.889381
0.887625
0.886034
0.884615
0.88337
0.882306
0.881432
0.880769
0.880349
0.88022
0.880437
0.880997
0.906358
0.904485
0.902234
0.899853
0.897497
0.895252
0.893165
0.891254
0.889529
0.887991
0.886641
0.88548
0.884516
0.883758
0.883226
0.882939
0.882906
0.883079
0.911045
0.908941
0.906436
0.903808
0.901224
0.898778
0.896513
0.894448
0.892587
0.890929
0.88947
0.888209
0.887146
0.886283
0.885626
0.885173
0.884906
0.884766
0.915531
0.913172
0.910392
0.907501
0.904679
0.902022
0.899574
0.897349
0.895348
0.893566
0.891995
0.890626
0.889456
0.888478
0.887686
0.887065
0.886584
0.886185
0.919935
0.917289
0.914207
0.911031
0.907954
0.905075
0.902434
0.900042
0.897895
0.895982
0.894291
0.892808
0.891522
0.890421
0.889488
0.888701
0.888024
0.887407
0.924346
0.921371
0.91795
0.914461
0.911109
0.907992
0.905146
0.902578
0.900276
0.898225
0.896406
0.894801
0.893392
0.892161
0.891085
0.890137
0.889281
0.888475
0.928837
0.925476
0.921671
0.917836
0.914182
0.910808
0.907744
0.904988
0.902522
0.900324
0.898369
0.896635
0.895097
0.893731
0.892512
0.891409
0.890389
0.889418
0.933477
0.929656
0.92541
0.921185
0.9172
0.913547
0.910247
0.90729
0.904651
0.902297
0.9002
0.898329
0.896656
0.895153
0.893791
0.89254
0.89137
0.890251
0.938334
0.933954
0.929195
0.924528
0.920175
0.916218
0.912665
0.909495
0.906671
0.904154
0.901906
0.899893
0.898081
0.896439
0.894936
0.893545
0.892235
0.890982
0.942713
0.937742
0.932461
0.927361
0.922657
0.918415
0.91463
0.911265
0.908273
0.905609
0.903226
0.901086
0.899153
0.897392
0.895773
0.894267
0.892849
0.891495
0.948021
0.942223
0.936247
0.930589
0.925443
0.920851
0.916783
0.913185
0.909996
0.907158
0.90462
0.902336
0.900266
0.898375
0.89663
0.895003
0.893471
0.89201
0.954544
0.94755
0.940623
0.93423
0.928523
0.923499
0.919092
0.91522
0.911802
0.908768
0.906055
0.903612
0.901394
0.899362
0.897482
0.895725
0.894067
0.892487
0.962783
0.953982
0.945691
0.9383
0.931868
0.926311
0.921504
0.91732
0.913653
0.910409
0.907512
0.904897
0.902512
0.900314
0.898269
0.896349
0.894533
0.892804
0.974317
0.962778
0.952398
0.943577
0.93619
0.929959
0.924636
0.920032
0.916
0.912415
0.909167
0.906208
0.903493
0.900986
0.898658
0.896485
0.894446
0.892527
0.959217
0.951236
0.94374
0.936949
0.930902
0.925553
0.920817
0.916606
0.912838
0.909454
0.906417
0.903638
0.90105
0.898636
0.896378
0.894262
0.892274
0.890403
0.944356
0.938935
0.933427
0.928176
0.923309
0.918856
0.9148
0.911109
0.907742
0.90466
0.901826
0.89923
0.896863
0.894661
0.8926
0.890665
0.888844
0.887128
0.933669
0.929707
0.925409
0.921129
0.917033
0.913189
0.909617
0.906312
0.903257
0.90043
0.897807
0.895368
0.893094
0.891004
0.889046
0.887203
0.885465
0.883824
0.9245
0.921467
0.918016
0.914461
0.910968
0.907623
0.904463
0.901499
0.898729
0.896142
0.893724
0.891462
0.889342
0.887352
0.885509
0.883774
0.882135
0.880587
0.916402
0.913991
0.911154
0.908152
0.905141
0.902207
0.899398
0.896733
0.894219
0.891853
0.889627
0.887534
0.885563
0.883707
0.881962
0.88033
0.878788
0.877329
0.909055
0.907084
0.904707
0.902138
0.899517
0.896928
0.894419
0.892017
0.889733
0.887568
0.885521
0.883586
0.881757
0.880028
0.878393
0.876858
0.875407
0.874032
0.902212
0.900568
0.898547
0.896326
0.894028
0.891732
0.889485
0.887316
0.885238
0.883258
0.881375
0.879588
0.877893
0.876286
0.87476
0.873317
0.871956
0.870664
0.895662
0.894271
0.892535
0.890601
0.888577
0.886534
0.884519
0.882558
0.880669
0.878858
0.877129
0.875481
0.873913
0.87242
0.871001
0.86965
0.868374
0.867161
0.889191
0.888005
0.886505
0.884815
0.883028
0.88121
0.879402
0.877632
0.875917
0.874265
0.872681
0.871165
0.869717
0.868336
0.867018
0.865762
0.864569
0.863434
0.882536
0.881522
0.880224
0.878748
0.877174
0.875559
0.873944
0.872352
0.870802
0.869302
0.867857
0.86647
0.865141
0.863868
0.862651
0.861487
0.860379
0.859322
0.875277
0.874414
0.873299
0.872019
0.870643
0.869221
0.86779
0.866372
0.864984
0.863635
0.862329
0.861071
0.859862
0.8587
0.857586
0.856518
0.855495
0.85452
0.866508
0.865789
0.864849
0.863761
0.862582
0.861356
0.860114
0.858876
0.857658
0.856468
0.855311
0.854192
0.853112
0.852071
0.851069
0.850106
0.84918
0.848295
0.852804
0.852237
0.851486
0.850607
0.849647
0.848639
0.84761
0.846577
0.845552
0.844544
0.843558
0.842598
0.841665
0.840761
0.839887
0.839042
0.838225
0.837444
0.759725
0.759748
0.759772
0.759795
0.759818
0.75984
0.759862
0.759886
0.759913
0.759945
0.759983
0.760031
0.760089
0.760162
0.760251
0.76036
0.760491
0.760649
0.760838
0.761063
0.761328
0.761641
0.762007
0.762434
0.76293
0.763505
0.764167
0.764926
0.765794
0.76678
0.767894
0.769143
0.770529
0.772049
0.773691
0.775431
0.777236
0.779062
0.780858
0.782575
0.784169
0.785603
0.786855
0.787911
0.788768
0.789421
0.789867
0.790086
0.790035
0.789618
0.788621
0.786533
0.781872
0.768369
0.661467
0.0490484
2.18531e-06
1.1e-06
1.1e-06
1.1e-06
1.1e-06
1.1e-06
1.1e-06
1.1e-06
1.1e-06
1.1e-06
1.1e-06
1.1e-06
1.1e-06
1.1e-06
1.1e-06
1.1e-06
1.1e-06
1.1e-06
1.1e-06
1.1e-06
1.1e-06
1.1e-06
1.1e-06
1.1e-06
1.1e-06
1.1e-06
1.1e-06
1.1e-06
1.1e-06
1.1e-06
1.1e-06
1.1e-06
1.1e-06
1.1e-06
1.1e-06
1.1e-06
1.1e-06
1.1e-06
1.1e-06
1.1e-06
1.1e-06
1.1e-06
1.1e-06
1.1e-06
1.1e-06
1.1e-06
1.1e-06
1.1e-06
1.1e-06
1.1e-06
1.1e-06
1.1e-06
1.1e-06
1.1e-06
1.1e-06
1.1e-06
1.1e-06
1.1e-06
1.1e-06
1.1e-06
1.1e-06
1.1e-06
1.1e-06
1.1e-06
1.1e-06
1.1e-06
1.1e-06
1.1e-06
1.1e-06
1.1e-06
1.1e-06
1.1e-06
1.1e-06
1.1e-06
1.1e-06
1.1e-06
1.1e-06
1.1e-06
1.1e-06
1.1e-06
1.1e-06
1.1e-06
1.1e-06
1.1e-06
1.1e-06
1.1e-06
1.1e-06
1.1e-06
1.1e-06
1.1e-06
1.1e-06
1.1e-06
1.1e-06
1.1e-06
1.1e-06
1.1e-06
1.1e-06
1.1e-06
1.1e-06
1.1e-06
1.1e-06
1.1e-06
1.1e-06
1.1e-06
1.1e-06
1.1e-06
1.1e-06
1.1e-06
1.1e-06
1.1e-06
1.1e-06
1.1e-06
1.1e-06
1.1e-06
1.1e-06
1.1e-06
1.1e-06
1.1e-06
1.1e-06
1.1e-06
1.1e-06
1.1e-06
1.1e-06
1.1e-06
0.805925
0.805964
0.806011
0.806062
0.806118
0.806182
0.806257
0.806354
0.80648
0.806644
0.806855
0.807118
0.807442
0.807828
0.808281
0.808799
0.809379
0.810015
0.810695
0.811404
0.812125
0.812837
0.813519
0.814151
0.814714
0.815194
0.815578
0.815859
0.816032
0.816097
0.816055
0.81591
0.815669
0.815337
0.814921
0.814428
0.813864
0.813236
0.812548
0.811806
0.811015
0.810178
0.809299
0.808378
0.807411
0.806391
0.805301
0.804108
0.802758
0.801148
0.799086
0.796155
0.791297
0.780773
0.735734
0.189106
4.41494e-05
1.1e-06
1.1e-06
1.1e-06
1.1e-06
1.1e-06
1.1e-06
1.1e-06
1.1e-06
1.1e-06
1.1e-06
1.1e-06
1.1e-06
1.1e-06
1.1e-06
1.1e-06
1.1e-06
1.1e-06
1.1e-06
1.1e-06
1.1e-06
1.1e-06
1.1e-06
1.1e-06
1.1e-06
1.1e-06
1.1e-06
1.1e-06
1.1e-06
1.1e-06
1.1e-06
1.1e-06
1.1e-06
1.1e-06
1.1e-06
1.1e-06
1.1e-06
1.1e-06
1.1e-06
1.1e-06
1.1e-06
1.1e-06
1.1e-06
1.1e-06
1.1e-06
1.1e-06
1.1e-06
1.1e-06
1.1e-06
1.1e-06
1.1e-06
1.1e-06
1.1e-06
1.1e-06
1.1e-06
1.1e-06
1.1e-06
1.1e-06
1.1e-06
1.1e-06
1.1e-06
1.1e-06
1.1e-06
1.1e-06
1.1e-06
1.1e-06
1.1e-06
1.1e-06
1.1e-06
1.1e-06
1.1e-06
1.1e-06
1.1e-06
1.1e-06
1.1e-06
1.1e-06
1.1e-06
1.1e-06
1.1e-06
1.1e-06
1.1e-06
1.1e-06
1.1e-06
1.1e-06
1.1e-06
1.1e-06
1.1e-06
1.1e-06
1.1e-06
1.1e-06
1.1e-06
1.1e-06
1.1e-06
1.1e-06
1.1e-06
1.1e-06
1.1e-06
1.1e-06
1.1e-06
1.1e-06
1.1e-06
1.1e-06
1.1e-06
1.1e-06
1.1e-06
1.1e-06
1.1e-06
1.1e-06
1.1e-06
1.1e-06
1.1e-06
1.1e-06
1.1e-06
1.1e-06
1.1e-06
1.1e-06
1.1e-06
1.1e-06
1.1e-06
1.1e-06
1.1e-06
1.1e-06
1.1e-06
1.1e-06
0.817754
0.817807
0.817857
0.817905
0.81795
0.817992
0.818037
0.818092
0.818166
0.818266
0.8184
0.818574
0.818793
0.819062
0.819383
0.819756
0.820178
0.820642
0.821139
0.821652
0.822165
0.822656
0.823104
0.823488
0.82379
0.823996
0.824095
0.824082
0.823956
0.823718
0.823373
0.822928
0.822391
0.821772
0.821079
0.820322
0.819509
0.818648
0.817748
0.816814
0.815852
0.814866
0.813858
0.812827
0.811768
0.810671
0.809517
0.808274
0.80689
0.805278
0.803278
0.800578
0.796455
0.788769
0.767071
0.49786
0.00233709
1.1e-06
1.1e-06
1.1e-06
1.1e-06
1.1e-06
1.1e-06
1.1e-06
1.1e-06
1.1e-06
1.1e-06
1.1e-06
1.1e-06
1.1e-06
1.1e-06
1.1e-06
1.1e-06
1.1e-06
1.1e-06
1.1e-06
1.1e-06
1.1e-06
1.1e-06
1.1e-06
1.1e-06
1.1e-06
1.1e-06
1.1e-06
1.1e-06
1.1e-06
1.1e-06
1.1e-06
1.1e-06
1.1e-06
1.1e-06
1.1e-06
1.1e-06
1.1e-06
1.1e-06
1.1e-06
1.1e-06
1.1e-06
1.1e-06
1.1e-06
1.1e-06
1.1e-06
1.1e-06
1.1e-06
1.1e-06
1.1e-06
1.1e-06
1.1e-06
1.1e-06
1.1e-06
1.1e-06
1.1e-06
1.1e-06
1.1e-06
1.1e-06
1.1e-06
1.1e-06
1.1e-06
1.1e-06
1.1e-06
1.1e-06
1.1e-06
1.1e-06
1.1e-06
1.1e-06
1.1e-06
1.1e-06
1.1e-06
1.1e-06
1.1e-06
1.1e-06
1.1e-06
1.1e-06
1.1e-06
1.1e-06
1.1e-06
1.1e-06
1.1e-06
1.1e-06
1.1e-06
1.1e-06
1.1e-06
1.1e-06
1.1e-06
1.1e-06
1.1e-06
1.1e-06
1.1e-06
1.1e-06
1.1e-06
1.1e-06
1.1e-06
1.1e-06
1.1e-06
1.1e-06
1.1e-06
1.1e-06
1.1e-06
1.1e-06
1.1e-06
1.1e-06
1.1e-06
1.1e-06
1.1e-06
1.1e-06
1.1e-06
1.1e-06
1.1e-06
1.1e-06
1.1e-06
1.1e-06
1.1e-06
1.1e-06
1.1e-06
1.1e-06
1.1e-06
1.1e-06
1.1e-06
1.1e-06
1.1e-06
0.824548
0.824626
0.824694
0.824755
0.824805
0.824845
0.824875
0.8249
0.824922
0.824946
0.824974
0.82501
0.825056
0.825112
0.82518
0.825259
0.825346
0.825439
0.825533
0.825623
0.825701
0.825759
0.82579
0.825786
0.82574
0.825646
0.825498
0.825293
0.825027
0.824701
0.824314
0.823868
0.823366
0.822811
0.822208
0.82156
0.820872
0.820149
0.819395
0.818613
0.817804
0.81697
0.816109
0.815217
0.814287
0.813306
0.812255
0.811106
0.809815
0.808309
0.806467
0.804064
0.800624
0.794923
0.782539
0.724266
0.118469
1.36711e-05
1.1e-06
1.1e-06
1.1e-06
1.1e-06
1.1e-06
1.1e-06
1.1e-06
1.1e-06
1.1e-06
1.1e-06
1.1e-06
1.1e-06
1.1e-06
1.1e-06
1.1e-06
1.1e-06
1.1e-06
1.1e-06
1.1e-06
1.1e-06
1.1e-06
1.1e-06
1.1e-06
1.1e-06
1.1e-06
1.1e-06
1.1e-06
1.1e-06
1.1e-06
1.1e-06
1.1e-06
1.1e-06
1.1e-06
1.1e-06
1.1e-06
1.1e-06
1.1e-06
1.1e-06
1.1e-06
1.1e-06
1.1e-06
1.1e-06
1.1e-06
1.1e-06
1.1e-06
1.1e-06
1.1e-06
1.1e-06
1.1e-06
1.1e-06
1.1e-06
1.1e-06
1.1e-06
1.1e-06
1.1e-06
1.1e-06
1.1e-06
1.1e-06
1.1e-06
1.1e-06
1.1e-06
1.1e-06
1.1e-06
1.1e-06
1.1e-06
1.1e-06
1.1e-06
1.1e-06
1.1e-06
1.1e-06
1.1e-06
1.1e-06
1.1e-06
1.1e-06
1.1e-06
1.1e-06
1.1e-06
1.1e-06
1.1e-06
1.1e-06
1.1e-06
1.1e-06
1.1e-06
1.1e-06
1.1e-06
1.1e-06
1.1e-06
1.1e-06
1.1e-06
1.1e-06
1.1e-06
1.1e-06
1.1e-06
1.1e-06
1.1e-06
1.1e-06
1.1e-06
1.1e-06
1.1e-06
1.1e-06
1.1e-06
1.1e-06
1.1e-06
1.1e-06
1.1e-06
1.1e-06
1.1e-06
1.1e-06
1.1e-06
1.1e-06
1.1e-06
1.1e-06
1.1e-06
1.1e-06
1.1e-06
1.1e-06
1.1e-06
1.1e-06
1.1e-06
1.1e-06
1.1e-06
1.1e-06
0.829514
0.829624
0.829718
0.829798
0.829862
0.829909
0.82994
0.829954
0.829954
0.829941
0.829917
0.829883
0.829841
0.829791
0.829732
0.829666
0.829591
0.829505
0.829408
0.829296
0.829168
0.82902
0.828848
0.828651
0.828425
0.828167
0.827875
0.827547
0.827182
0.826778
0.826336
0.825855
0.825338
0.824785
0.824198
0.823579
0.82293
0.822253
0.821549
0.82082
0.820064
0.819281
0.818468
0.817619
0.816727
0.815779
0.814759
0.813642
0.812391
0.810951
0.80923
0.807068
0.804153
0.799779
0.791903
0.771057
0.53909
0.00420741
1.10001e-06
1.1e-06
1.1e-06
1.1e-06
1.1e-06
1.1e-06
1.1e-06
1.1e-06
1.1e-06
1.1e-06
1.1e-06
1.1e-06
1.1e-06
1.1e-06
1.1e-06
1.1e-06
1.1e-06
1.1e-06
1.1e-06
1.1e-06
1.1e-06
1.1e-06
1.1e-06
1.1e-06
1.1e-06
1.1e-06
1.1e-06
1.1e-06
1.1e-06
1.1e-06
1.1e-06
1.1e-06
1.1e-06
1.1e-06
1.1e-06
1.1e-06
1.1e-06
1.1e-06
1.1e-06
1.1e-06
1.1e-06
1.1e-06
1.1e-06
1.1e-06
1.1e-06
1.1e-06
1.1e-06
1.1e-06
1.1e-06
1.1e-06
1.1e-06
1.1e-06
1.1e-06
1.1e-06
1.1e-06
1.1e-06
1.1e-06
1.1e-06
1.1e-06
1.1e-06
1.1e-06
1.1e-06
1.1e-06
1.1e-06
1.1e-06
1.1e-06
1.1e-06
1.1e-06
1.1e-06
1.1e-06
1.1e-06
1.1e-06
1.1e-06
1.1e-06
1.1e-06
1.1e-06
1.1e-06
1.1e-06
1.1e-06
1.1e-06
1.1e-06
1.1e-06
1.1e-06
1.1e-06
1.1e-06
1.1e-06
1.1e-06
1.1e-06
1.1e-06
1.1e-06
1.1e-06
1.1e-06
1.1e-06
1.1e-06
1.1e-06
1.1e-06
1.1e-06
1.1e-06
1.1e-06
1.1e-06
1.1e-06
1.1e-06
1.1e-06
1.1e-06
1.1e-06
1.1e-06
1.1e-06
1.1e-06
1.1e-06
1.1e-06
1.1e-06
1.1e-06
1.1e-06
1.1e-06
1.1e-06
1.1e-06
1.1e-06
1.1e-06
1.1e-06
1.1e-06
1.1e-06
1.1e-06
0.833561
0.833706
0.833831
0.833936
0.834019
0.834079
0.834117
0.834131
0.834123
0.834094
0.834043
0.833972
0.833881
0.833771
0.833642
0.833494
0.833327
0.833141
0.832936
0.832711
0.832465
0.832198
0.831908
0.831595
0.831257
0.830894
0.830505
0.830089
0.829645
0.829174
0.828675
0.828149
0.827596
0.827017
0.826412
0.825782
0.825128
0.82445
0.823749
0.823023
0.822272
0.821493
0.820683
0.819836
0.818945
0.817998
0.816982
0.815876
0.81465
0.81326
0.811639
0.809673
0.807154
0.803658
0.798137
0.787085
0.746288
0.218873
6.74917e-05
1.1e-06
1.1e-06
1.1e-06
1.1e-06
1.1e-06
1.1e-06
1.1e-06
1.1e-06
1.1e-06
1.1e-06
1.1e-06
1.1e-06
1.1e-06
1.1e-06
1.1e-06
1.1e-06
1.1e-06
1.1e-06
1.1e-06
1.1e-06
1.1e-06
1.1e-06
1.1e-06
1.1e-06
1.1e-06
1.1e-06
1.1e-06
1.1e-06
1.1e-06
1.1e-06
1.1e-06
1.1e-06
1.1e-06
1.1e-06
1.1e-06
1.1e-06
1.1e-06
1.1e-06
1.1e-06
1.1e-06
1.1e-06
1.1e-06
1.1e-06
1.1e-06
1.1e-06
1.1e-06
1.1e-06
1.1e-06
1.1e-06
1.1e-06
1.1e-06
1.1e-06
1.1e-06
1.1e-06
1.1e-06
1.1e-06
1.1e-06
1.1e-06
1.1e-06
1.1e-06
1.1e-06
1.1e-06
1.1e-06
1.1e-06
1.1e-06
1.1e-06
1.1e-06
1.1e-06
1.1e-06
1.1e-06
1.1e-06
1.1e-06
1.1e-06
1.1e-06
1.1e-06
1.1e-06
1.1e-06
1.1e-06
1.1e-06
1.1e-06
1.1e-06
1.1e-06
1.1e-06
1.1e-06
1.1e-06
1.1e-06
1.1e-06
1.1e-06
1.1e-06
1.1e-06
1.1e-06
1.1e-06
1.1e-06
1.1e-06
1.1e-06
1.1e-06
1.1e-06
1.1e-06
1.1e-06
1.1e-06
1.1e-06
1.1e-06
1.1e-06
1.1e-06
1.1e-06
1.1e-06
1.1e-06
1.1e-06
1.1e-06
1.1e-06
1.1e-06
1.1e-06
1.1e-06
1.1e-06
1.1e-06
1.1e-06
1.1e-06
1.1e-06
1.1e-06
1.1e-06
1.1e-06
0.837069
0.837251
0.837409
0.837541
0.837647
0.837724
0.837773
0.837793
0.837785
0.837747
0.837682
0.837588
0.837467
0.837319
0.837144
0.836943
0.836717
0.836466
0.836191
0.835891
0.835568
0.835221
0.83485
0.834456
0.834039
0.833598
0.833135
0.832649
0.83214
0.831608
0.831054
0.830478
0.829881
0.829262
0.828622
0.827962
0.82728
0.826578
0.825854
0.825108
0.824337
0.82354
0.822712
0.821848
0.820942
0.819984
0.818961
0.817858
0.81665
0.815302
0.813765
0.811956
0.809734
0.806833
0.802677
0.795716
0.779841
0.679114
0.0445928
2.07786e-06
1.1e-06
1.1e-06
1.1e-06
1.1e-06
1.1e-06
1.1e-06
1.1e-06
1.1e-06
1.1e-06
1.1e-06
1.1e-06
1.1e-06
1.1e-06
1.1e-06
1.1e-06
1.1e-06
1.1e-06
1.1e-06
1.1e-06
1.1e-06
1.1e-06
1.1e-06
1.1e-06
1.1e-06
1.1e-06
1.1e-06
1.1e-06
1.1e-06
1.1e-06
1.1e-06
1.1e-06
1.1e-06
1.1e-06
1.1e-06
1.1e-06
1.1e-06
1.1e-06
1.1e-06
1.1e-06
1.1e-06
1.1e-06
1.1e-06
1.1e-06
1.1e-06
1.1e-06
1.1e-06
1.1e-06
1.1e-06
1.1e-06
1.1e-06
1.1e-06
1.1e-06
1.1e-06
1.1e-06
1.1e-06
1.1e-06
1.1e-06
1.1e-06
1.1e-06
1.1e-06
1.1e-06
1.1e-06
1.1e-06
1.1e-06
1.1e-06
1.1e-06
1.1e-06
1.1e-06
1.1e-06
1.1e-06
1.1e-06
1.1e-06
1.1e-06
1.1e-06
1.1e-06
1.1e-06
1.1e-06
1.1e-06
1.1e-06
1.1e-06
1.1e-06
1.1e-06
1.1e-06
1.1e-06
1.1e-06
1.1e-06
1.1e-06
1.1e-06
1.1e-06
1.1e-06
1.1e-06
1.1e-06
1.1e-06
1.1e-06
1.1e-06
1.1e-06
1.1e-06
1.1e-06
1.1e-06
1.1e-06
1.1e-06
1.1e-06
1.1e-06
1.1e-06
1.1e-06
1.1e-06
1.1e-06
1.1e-06
1.1e-06
1.1e-06
1.1e-06
1.1e-06
1.1e-06
1.1e-06
1.1e-06
1.1e-06
1.1e-06
1.1e-06
1.1e-06
1.1e-06
0.840231
0.840452
0.840644
0.840806
0.840936
0.841033
0.841096
0.841124
0.841118
0.841077
0.841001
0.840891
0.840748
0.840571
0.840362
0.840122
0.839851
0.83955
0.839221
0.838865
0.838482
0.838072
0.837638
0.83718
0.836699
0.836194
0.835668
0.835121
0.834553
0.833964
0.833356
0.832729
0.832083
0.831419
0.830737
0.830036
0.829317
0.828579
0.827821
0.827043
0.826242
0.825415
0.82456
0.823672
0.822745
0.82177
0.820738
0.819634
0.81844
0.817128
0.815659
0.813975
0.811975
0.809488
0.806171
0.801237
0.792353
0.768001
0.468389
0.00154476
1.1e-06
1.1e-06
1.1e-06
1.1e-06
1.1e-06
1.1e-06
1.1e-06
1.1e-06
1.1e-06
1.1e-06
1.1e-06
1.1e-06
1.1e-06
1.1e-06
1.1e-06
1.1e-06
1.1e-06
1.1e-06
1.1e-06
1.1e-06
1.1e-06
1.1e-06
1.1e-06
1.1e-06
1.1e-06
1.1e-06
1.1e-06
1.1e-06
1.1e-06
1.1e-06
1.1e-06
1.1e-06
1.1e-06
1.1e-06
1.1e-06
1.1e-06
1.1e-06
1.1e-06
1.1e-06
1.1e-06
1.1e-06
1.1e-06
1.1e-06
1.1e-06
1.1e-06
1.1e-06
1.1e-06
1.1e-06
1.1e-06
1.1e-06
1.1e-06
1.1e-06
1.1e-06
1.1e-06
1.1e-06
1.1e-06
1.1e-06
1.1e-06
1.1e-06
1.1e-06
1.1e-06
1.1e-06
1.1e-06
1.1e-06
1.1e-06
1.1e-06
1.1e-06
1.1e-06
1.1e-06
1.1e-06
1.1e-06
1.1e-06
1.1e-06
1.1e-06
1.1e-06
1.1e-06
1.1e-06
1.1e-06
1.1e-06
1.1e-06
1.1e-06
1.1e-06
1.1e-06
1.1e-06
1.1e-06
1.1e-06
1.1e-06
1.1e-06
1.1e-06
1.1e-06
1.1e-06
1.1e-06
1.1e-06
1.1e-06
1.1e-06
1.1e-06
1.1e-06
1.1e-06
1.1e-06
1.1e-06
1.1e-06
1.1e-06
1.1e-06
1.1e-06
1.1e-06
1.1e-06
1.1e-06
1.1e-06
1.1e-06
1.1e-06
1.1e-06
1.1e-06
1.1e-06
1.1e-06
1.1e-06
1.1e-06
1.1e-06
1.1e-06
1.1e-06
1.1e-06
0.843156
0.843417
0.843645
0.843838
0.843994
0.844112
0.84419
0.844228
0.844225
0.844182
0.844098
0.843974
0.843811
0.843609
0.84337
0.843095
0.842785
0.842442
0.842066
0.84166
0.841224
0.840761
0.840271
0.839756
0.839218
0.838656
0.838072
0.837468
0.836845
0.836202
0.835541
0.834862
0.834167
0.833455
0.832726
0.831982
0.83122
0.830442
0.829645
0.82883
0.827994
0.827135
0.826249
0.825334
0.824383
0.82339
0.822347
0.821241
0.820057
0.818774
0.817362
0.815776
0.813945
0.811751
0.80898
0.805186
0.799269
0.787523
0.743591
0.202454
5.65774e-05
1.1e-06
1.1e-06
1.1e-06
1.1e-06
1.1e-06
1.1e-06
1.1e-06
1.1e-06
1.1e-06
1.1e-06
1.1e-06
1.1e-06
1.1e-06
1.1e-06
1.1e-06
1.1e-06
1.1e-06
1.1e-06
1.1e-06
1.1e-06
1.1e-06
1.1e-06
1.1e-06
1.1e-06
1.1e-06
1.1e-06
1.1e-06
1.1e-06
1.1e-06
1.1e-06
1.1e-06
1.1e-06
1.1e-06
1.1e-06
1.1e-06
1.1e-06
1.1e-06
1.1e-06
1.1e-06
1.1e-06
1.1e-06
1.1e-06
1.1e-06
1.1e-06
1.1e-06
1.1e-06
1.1e-06
1.1e-06
1.1e-06
1.1e-06
1.1e-06
1.1e-06
1.1e-06
1.1e-06
1.1e-06
1.1e-06
1.1e-06
1.1e-06
1.1e-06
1.1e-06
1.1e-06
1.1e-06
1.1e-06
1.1e-06
1.1e-06
1.1e-06
1.1e-06
1.1e-06
1.1e-06
1.1e-06
1.1e-06
1.1e-06
1.1e-06
1.1e-06
1.1e-06
1.1e-06
1.1e-06
1.1e-06
1.1e-06
1.1e-06
1.1e-06
1.1e-06
1.1e-06
1.1e-06
1.1e-06
1.1e-06
1.1e-06
1.1e-06
1.1e-06
1.1e-06
1.1e-06
1.1e-06
1.1e-06
1.1e-06
1.1e-06
1.1e-06
1.1e-06
1.1e-06
1.1e-06
1.1e-06
1.1e-06
1.1e-06
1.1e-06
1.1e-06
1.1e-06
1.1e-06
1.1e-06
1.1e-06
1.1e-06
1.1e-06
1.1e-06
1.1e-06
1.1e-06
1.1e-06
1.1e-06
1.1e-06
1.1e-06
1.1e-06
1.1e-06
0.845907
0.84621
0.846476
0.846702
0.846885
0.847025
0.847119
0.847167
0.847169
0.847123
0.847031
0.846894
0.846711
0.846485
0.846216
0.845908
0.84556
0.845175
0.844755
0.844301
0.843816
0.843302
0.842759
0.842191
0.841597
0.840981
0.840343
0.839684
0.839007
0.838311
0.837598
0.836869
0.836123
0.835363
0.834588
0.833797
0.832992
0.832172
0.831335
0.830481
0.829609
0.828715
0.827799
0.826856
0.825881
0.82487
0.823815
0.822705
0.82153
0.82027
0.818903
0.817395
0.815692
0.813712
0.811313
0.808222
0.803851
0.796627
0.780361
0.678603
0.0445781
2.13328e-06
1.1e-06
1.1e-06
1.1e-06
1.1e-06
1.1e-06
1.1e-06
1.1e-06
1.1e-06
1.1e-06
1.1e-06
1.1e-06
1.1e-06
1.1e-06
1.1e-06
1.1e-06
1.1e-06
1.1e-06
1.1e-06
1.1e-06
1.1e-06
1.1e-06
1.1e-06
1.1e-06
1.1e-06
1.1e-06
1.1e-06
1.1e-06
1.1e-06
1.1e-06
1.1e-06
1.1e-06
1.1e-06
1.1e-06
1.1e-06
1.1e-06
1.1e-06
1.1e-06
1.1e-06
1.1e-06
1.1e-06
1.1e-06
1.1e-06
1.1e-06
1.1e-06
1.1e-06
1.1e-06
1.1e-06
1.1e-06
1.1e-06
1.1e-06
1.1e-06
1.1e-06
1.1e-06
1.1e-06
1.1e-06
1.1e-06
1.1e-06
1.1e-06
1.1e-06
1.1e-06
1.1e-06
1.1e-06
1.1e-06
1.1e-06
1.1e-06
1.1e-06
1.1e-06
1.1e-06
1.1e-06
1.1e-06
1.1e-06
1.1e-06
1.1e-06
1.1e-06
1.1e-06
1.1e-06
1.1e-06
1.1e-06
1.1e-06
1.1e-06
1.1e-06
1.1e-06
1.1e-06
1.1e-06
1.1e-06
1.1e-06
1.1e-06
1.1e-06
1.1e-06
1.1e-06
1.1e-06
1.1e-06
1.1e-06
1.1e-06
1.1e-06
1.1e-06
1.1e-06
1.1e-06
1.1e-06
1.1e-06
1.1e-06
1.1e-06
1.1e-06
1.1e-06
1.1e-06
1.1e-06
1.1e-06
1.1e-06
1.1e-06
1.1e-06
1.1e-06
1.1e-06
1.1e-06
1.1e-06
1.1e-06
1.1e-06
1.1e-06
1.1e-06
0.84852
0.848868
0.849174
0.849435
0.849648
0.849811
0.849922
0.849981
0.849986
0.849938
0.849838
0.849685
0.849482
0.849231
0.848932
0.848588
0.848201
0.847774
0.847309
0.846809
0.846274
0.845709
0.845114
0.844493
0.843846
0.843176
0.842485
0.841773
0.841042
0.840295
0.83953
0.838751
0.837956
0.837148
0.836326
0.83549
0.834642
0.833779
0.832902
0.83201
0.831101
0.830174
0.829227
0.828257
0.827259
0.82623
0.825162
0.824048
0.822878
0.821637
0.820306
0.818859
0.817256
0.815436
0.813299
0.810669
0.8072
0.80209
0.79298
0.768219
0.465758
0.0015319
1.1e-06
1.1e-06
1.1e-06
1.1e-06
1.1e-06
1.1e-06
1.1e-06
1.1e-06
1.1e-06
1.1e-06
1.1e-06
1.1e-06
1.1e-06
1.1e-06
1.1e-06
1.1e-06
1.1e-06
1.1e-06
1.1e-06
1.1e-06
1.1e-06
1.1e-06
1.1e-06
1.1e-06
1.1e-06
1.1e-06
1.1e-06
1.1e-06
1.1e-06
1.1e-06
1.1e-06
1.1e-06
1.1e-06
1.1e-06
1.1e-06
1.1e-06
1.1e-06
1.1e-06
1.1e-06
1.1e-06
1.1e-06
1.1e-06
1.1e-06
1.1e-06
1.1e-06
1.1e-06
1.1e-06
1.1e-06
1.1e-06
1.1e-06
1.1e-06
1.1e-06
1.1e-06
1.1e-06
1.1e-06
1.1e-06
1.1e-06
1.1e-06
1.1e-06
1.1e-06
1.1e-06
1.1e-06
1.1e-06
1.1e-06
1.1e-06
1.1e-06
1.1e-06
1.1e-06
1.1e-06
1.1e-06
1.1e-06
1.1e-06
1.1e-06
1.1e-06
1.1e-06
1.1e-06
1.1e-06
1.1e-06
1.1e-06
1.1e-06
1.1e-06
1.1e-06
1.1e-06
1.1e-06
1.1e-06
1.1e-06
1.1e-06
1.1e-06
1.1e-06
1.1e-06
1.1e-06
1.1e-06
1.1e-06
1.1e-06
1.1e-06
1.1e-06
1.1e-06
1.1e-06
1.1e-06
1.1e-06
1.1e-06
1.1e-06
1.1e-06
1.1e-06
1.1e-06
1.1e-06
1.1e-06
1.1e-06
1.1e-06
1.1e-06
1.1e-06
1.1e-06
1.1e-06
1.1e-06
1.1e-06
1.1e-06
1.1e-06
1.1e-06
0.851016
0.851413
0.851762
0.852061
0.852306
0.852494
0.852623
0.852693
0.852702
0.852651
0.85254
0.852372
0.852146
0.851867
0.851535
0.851154
0.850727
0.850256
0.849745
0.849195
0.848611
0.847993
0.847346
0.846672
0.845972
0.845249
0.844504
0.84374
0.842957
0.842158
0.841344
0.840515
0.839673
0.838817
0.83795
0.83707
0.836178
0.835275
0.834358
0.833429
0.832485
0.831526
0.830549
0.829552
0.828531
0.827484
0.826404
0.825285
0.824118
0.822891
0.821589
0.820191
0.818665
0.816966
0.815022
0.812711
0.809811
0.805865
0.799737
0.787569
0.7411
0.184625
4.60153e-05
1.1e-06
1.1e-06
1.1e-06
1.1e-06
1.1e-06
1.1e-06
1.1e-06
1.1e-06
1.1e-06
1.1e-06
1.1e-06
1.1e-06
1.1e-06
1.1e-06
1.1e-06
1.1e-06
1.1e-06
1.1e-06
1.1e-06
1.1e-06
1.1e-06
1.1e-06
1.1e-06
1.1e-06
1.1e-06
1.1e-06
1.1e-06
1.1e-06
1.1e-06
1.1e-06
1.1e-06
1.1e-06
1.1e-06
1.1e-06
1.1e-06
1.1e-06
1.1e-06
1.1e-06
1.1e-06
1.1e-06
1.1e-06
1.1e-06
1.1e-06
1.1e-06
1.1e-06
1.1e-06
1.1e-06
1.1e-06
1.1e-06
1.1e-06
1.1e-06
1.1e-06
1.1e-06
1.1e-06
1.1e-06
1.1e-06
1.1e-06
1.1e-06
1.1e-06
1.1e-06
1.1e-06
1.1e-06
1.1e-06
1.1e-06
1.1e-06
1.1e-06
1.1e-06
1.1e-06
1.1e-06
1.1e-06
1.1e-06
1.1e-06
1.1e-06
1.1e-06
1.1e-06
1.1e-06
1.1e-06
1.1e-06
1.1e-06
1.1e-06
1.1e-06
1.1e-06
1.1e-06
1.1e-06
1.1e-06
1.1e-06
1.1e-06
1.1e-06
1.1e-06
1.1e-06
1.1e-06
1.1e-06
1.1e-06
1.1e-06
1.1e-06
1.1e-06
1.1e-06
1.1e-06
1.1e-06
1.1e-06
1.1e-06
1.1e-06
1.1e-06
1.1e-06
1.1e-06
1.1e-06
1.1e-06
1.1e-06
1.1e-06
1.1e-06
1.1e-06
1.1e-06
1.1e-06
1.1e-06
1.1e-06
1.1e-06
1.1e-06
0.853408
0.853856
0.854253
0.854593
0.854872
0.855087
0.855236
0.855317
0.85533
0.855274
0.855152
0.854965
0.854715
0.854405
0.854038
0.853617
0.853147
0.852629
0.852069
0.851469
0.850832
0.850162
0.849462
0.848734
0.84798
0.847204
0.846407
0.845591
0.844757
0.843908
0.843045
0.842168
0.841279
0.840378
0.839467
0.838545
0.837612
0.836669
0.835715
0.834749
0.833772
0.832781
0.831776
0.830753
0.829711
0.828646
0.827553
0.826428
0.825261
0.824045
0.822767
0.821407
0.819943
0.818338
0.816538
0.814456
0.811942
0.808709
0.804134
0.796525
0.779036
0.656293
0.0296686
1.42216e-06
1.1e-06
1.1e-06
1.1e-06
1.1e-06
1.1e-06
1.1e-06
1.1e-06
1.1e-06
1.1e-06
1.1e-06
1.1e-06
1.1e-06
1.1e-06
1.1e-06
1.1e-06
1.1e-06
1.1e-06
1.1e-06
1.1e-06
1.1e-06
1.1e-06
1.1e-06
1.1e-06
1.1e-06
1.1e-06
1.1e-06
1.1e-06
1.1e-06
1.1e-06
1.1e-06
1.1e-06
1.1e-06
1.1e-06
1.1e-06
1.1e-06
1.1e-06
1.1e-06
1.1e-06
1.1e-06
1.1e-06
1.1e-06
1.1e-06
1.1e-06
1.1e-06
1.1e-06
1.1e-06
1.1e-06
1.1e-06
1.1e-06
1.1e-06
1.1e-06
1.1e-06
1.1e-06
1.1e-06
1.1e-06
1.1e-06
1.1e-06
1.1e-06
1.1e-06
1.1e-06
1.1e-06
1.1e-06
1.1e-06
1.1e-06
1.1e-06
1.1e-06
1.1e-06
1.1e-06
1.1e-06
1.1e-06
1.1e-06
1.1e-06
1.1e-06
1.1e-06
1.1e-06
1.1e-06
1.1e-06
1.1e-06
1.1e-06
1.1e-06
1.1e-06
1.1e-06
1.1e-06
1.1e-06
1.1e-06
1.1e-06
1.1e-06
1.1e-06
1.1e-06
1.1e-06
1.1e-06
1.1e-06
1.1e-06
1.1e-06
1.1e-06
1.1e-06
1.1e-06
1.1e-06
1.1e-06
1.1e-06
1.1e-06
1.1e-06
1.1e-06
1.1e-06
1.1e-06
1.1e-06
1.1e-06
1.1e-06
1.1e-06
1.1e-06
1.1e-06
1.1e-06
1.1e-06
1.1e-06
1.1e-06
1.1e-06
0.855699
0.856205
0.856654
0.857039
0.857356
0.8576
0.85777
0.857863
0.857878
0.857818
0.857682
0.857473
0.857195
0.856852
0.856446
0.855982
0.855464
0.854898
0.854286
0.853633
0.852942
0.852218
0.851463
0.850681
0.849874
0.849045
0.848196
0.847329
0.846446
0.845548
0.844638
0.843715
0.842781
0.841837
0.840884
0.839921
0.83895
0.837969
0.836979
0.83598
0.834971
0.83395
0.832918
0.831871
0.830808
0.829725
0.82862
0.827486
0.82632
0.825111
0.823849
0.822521
0.821106
0.819575
0.817887
0.815976
0.813735
0.810973
0.807309
0.801851
0.791866
0.762422
0.369834
0.000455482
1.1e-06
1.1e-06
1.1e-06
1.1e-06
1.1e-06
1.1e-06
1.1e-06
1.1e-06
1.1e-06
1.1e-06
1.1e-06
1.1e-06
1.1e-06
1.1e-06
1.1e-06
1.1e-06
1.1e-06
1.1e-06
1.1e-06
1.1e-06
1.1e-06
1.1e-06
1.1e-06
1.1e-06
1.1e-06
1.1e-06
1.1e-06
1.1e-06
1.1e-06
1.1e-06
1.1e-06
1.1e-06
1.1e-06
1.1e-06
1.1e-06
1.1e-06
1.1e-06
1.1e-06
1.1e-06
1.1e-06
1.1e-06
1.1e-06
1.1e-06
1.1e-06
1.1e-06
1.1e-06
1.1e-06
1.1e-06
1.1e-06
1.1e-06
1.1e-06
1.1e-06
1.1e-06
1.1e-06
1.1e-06
1.1e-06
1.1e-06
1.1e-06
1.1e-06
1.1e-06
1.1e-06
1.1e-06
1.1e-06
1.1e-06
1.1e-06
1.1e-06
1.1e-06
1.1e-06
1.1e-06
1.1e-06
1.1e-06
1.1e-06
1.1e-06
1.1e-06
1.1e-06
1.1e-06
1.1e-06
1.1e-06
1.1e-06
1.1e-06
1.1e-06
1.1e-06
1.1e-06
1.1e-06
1.1e-06
1.1e-06
1.1e-06
1.1e-06
1.1e-06
1.1e-06
1.1e-06
1.1e-06
1.1e-06
1.1e-06
1.1e-06
1.1e-06
1.1e-06
1.1e-06
1.1e-06
1.1e-06
1.1e-06
1.1e-06
1.1e-06
1.1e-06
1.1e-06
1.1e-06
1.1e-06
1.1e-06
1.1e-06
1.1e-06
1.1e-06
1.1e-06
1.1e-06
1.1e-06
1.1e-06
1.1e-06
0.857891
0.858461
0.858967
0.859402
0.859761
0.860038
0.86023
0.860335
0.860353
0.860285
0.860133
0.8599
0.85959
0.859208
0.858759
0.858248
0.85768
0.857061
0.856394
0.855686
0.85494
0.85416
0.853351
0.852514
0.851654
0.850773
0.849873
0.848956
0.848025
0.847081
0.846126
0.845159
0.844183
0.843199
0.842206
0.841205
0.840197
0.839182
0.838159
0.837128
0.836089
0.835041
0.833983
0.832913
0.831829
0.83073
0.829612
0.82847
0.827301
0.826096
0.824848
0.823544
0.822168
0.820696
0.819096
0.817317
0.815279
0.812847
0.809769
0.805517
0.798738
0.784503
0.716753
0.0980302
1.00514e-05
1.1e-06
1.1e-06
1.1e-06
1.1e-06
1.1e-06
1.1e-06
1.1e-06
1.1e-06
1.1e-06
1.1e-06
1.1e-06
1.1e-06
1.1e-06
1.1e-06
1.1e-06
1.1e-06
1.1e-06
1.1e-06
1.1e-06
1.1e-06
1.1e-06
1.1e-06
1.1e-06
1.1e-06
1.1e-06
1.1e-06
1.1e-06
1.1e-06
1.1e-06
1.1e-06
1.1e-06
1.1e-06
1.1e-06
1.1e-06
1.1e-06
1.1e-06
1.1e-06
1.1e-06
1.1e-06
1.1e-06
1.1e-06
1.1e-06
1.1e-06
1.1e-06
1.1e-06
1.1e-06
1.1e-06
1.1e-06
1.1e-06
1.1e-06
1.1e-06
1.1e-06
1.1e-06
1.1e-06
1.1e-06
1.1e-06
1.1e-06
1.1e-06
1.1e-06
1.1e-06
1.1e-06
1.1e-06
1.1e-06
1.1e-06
1.1e-06
1.1e-06
1.1e-06
1.1e-06
1.1e-06
1.1e-06
1.1e-06
1.1e-06
1.1e-06
1.1e-06
1.1e-06
1.1e-06
1.1e-06
1.1e-06
1.1e-06
1.1e-06
1.1e-06
1.1e-06
1.1e-06
1.1e-06
1.1e-06
1.1e-06
1.1e-06
1.1e-06
1.1e-06
1.1e-06
1.1e-06
1.1e-06
1.1e-06
1.1e-06
1.1e-06
1.1e-06
1.1e-06
1.1e-06
1.1e-06
1.1e-06
1.1e-06
1.1e-06
1.1e-06
1.1e-06
1.1e-06
1.1e-06
1.1e-06
1.1e-06
1.1e-06
1.1e-06
1.1e-06
1.1e-06
1.1e-06
1.1e-06
1.1e-06
0.859978
0.860621
0.861192
0.861684
0.86209
0.862403
0.86262
0.862739
0.862758
0.86268
0.862507
0.862245
0.861899
0.861474
0.860976
0.860413
0.859791
0.859115
0.858391
0.857625
0.856822
0.855986
0.855121
0.854231
0.853318
0.852386
0.851437
0.850473
0.849496
0.848508
0.847509
0.846502
0.845487
0.844464
0.843435
0.8424
0.841358
0.840311
0.839258
0.838198
0.837132
0.836058
0.834976
0.833885
0.832783
0.831667
0.830536
0.829386
0.828212
0.827009
0.82577
0.824485
0.823139
0.821715
0.820185
0.81851
0.816628
0.814439
0.811768
0.808271
0.803178
0.794272
0.771235
0.517923
0.00340326
1.10001e-06
1.1e-06
1.1e-06
1.1e-06
1.1e-06
1.1e-06
1.1e-06
1.1e-06
1.1e-06
1.1e-06
1.1e-06
1.1e-06
1.1e-06
1.1e-06
1.1e-06
1.1e-06
1.1e-06
1.1e-06
1.1e-06
1.1e-06
1.1e-06
1.1e-06
1.1e-06
1.1e-06
1.1e-06
1.1e-06
1.1e-06
1.1e-06
1.1e-06
1.1e-06
1.1e-06
1.1e-06
1.1e-06
1.1e-06
1.1e-06
1.1e-06
1.1e-06
1.1e-06
1.1e-06
1.1e-06
1.1e-06
1.1e-06
1.1e-06
1.1e-06
1.1e-06
1.1e-06
1.1e-06
1.1e-06
1.1e-06
1.1e-06
1.1e-06
1.1e-06
1.1e-06
1.1e-06
1.1e-06
1.1e-06
1.1e-06
1.1e-06
1.1e-06
1.1e-06
1.1e-06
1.1e-06
1.1e-06
1.1e-06
1.1e-06
1.1e-06
1.1e-06
1.1e-06
1.1e-06
1.1e-06
1.1e-06
1.1e-06
1.1e-06
1.1e-06
1.1e-06
1.1e-06
1.1e-06
1.1e-06
1.1e-06
1.1e-06
1.1e-06
1.1e-06
1.1e-06
1.1e-06
1.1e-06
1.1e-06
1.1e-06
1.1e-06
1.1e-06
1.1e-06
1.1e-06
1.1e-06
1.1e-06
1.1e-06
1.1e-06
1.1e-06
1.1e-06
1.1e-06
1.1e-06
1.1e-06
1.1e-06
1.1e-06
1.1e-06
1.1e-06
1.1e-06
1.1e-06
1.1e-06
1.1e-06
1.1e-06
1.1e-06
1.1e-06
1.1e-06
1.1e-06
1.1e-06
1.1e-06
0.862067
0.862798
0.86345
0.864012
0.864476
0.864833
0.865079
0.865212
0.865231
0.865139
0.86494
0.864641
0.864248
0.863771
0.863216
0.862592
0.861906
0.861166
0.860379
0.85955
0.858684
0.857788
0.856864
0.855918
0.854951
0.853967
0.852968
0.851956
0.850934
0.849902
0.848862
0.847815
0.846761
0.845702
0.844638
0.843569
0.842496
0.841418
0.840336
0.839249
0.838157
0.837059
0.835955
0.834843
0.833723
0.832591
0.831447
0.830288
0.829109
0.827906
0.826673
0.825402
0.824081
0.822696
0.821225
0.819637
0.817885
0.815894
0.813539
0.810591
0.806577