/*--------------------------------*- C++ -*----------------------------------*\
  =========                 |
  \\      /  F ield         | OpenFOAM: The Open Source CFD Toolbox
   \\    /   O peration     | Website:  https://openfoam.org
    \\  /    A nd           | Version:  10
     \\/     M anipulation  |
\*---------------------------------------------------------------------------*/
FoamFile
{
    format      ascii;
    class       surfaceScalarField;
    location    "0.1";
    object      phi;
}
// * * * * * * * * * * * * * * * * * * * * * * * * * * * * * * * * * * * * * //

dimensions      [0 3 -1 0 0 0 0];

internalField   nonuniform List<scalar> 
7780
(
2.50004e-09
-3.6787e-14
2.50015e-09
-1.10339e-13
2.50034e-09
-1.83941e-13
2.5006e-09
-2.57656e-13
2.50093e-09
-3.31544e-13
2.50134e-09
-4.05655e-13
2.50182e-09
-4.80056e-13
2.50238e-09
-5.54802e-13
2.50301e-09
-6.29978e-13
2.50371e-09
-7.05662e-13
2.5045e-09
-7.81965e-13
2.50536e-09
-8.5899e-13
2.5063e-09
-9.36866e-13
2.50732e-09
-1.01572e-12
2.50841e-09
-1.09569e-12
2.50959e-09
-1.17693e-12
2.51085e-09
-1.2596e-12
2.5122e-09
-1.34386e-12
2.51363e-09
-1.42992e-12
2.51515e-09
-1.51794e-12
2.51676e-09
-1.60815e-12
2.51846e-09
-1.70075e-12
2.52026e-09
-1.79598e-12
2.52216e-09
-1.89406e-12
2.52416e-09
-1.99526e-12
2.52626e-09
-2.09979e-12
2.52847e-09
-2.20796e-12
2.53079e-09
-2.32e-12
2.53323e-09
-2.43622e-12
2.53579e-09
-2.55685e-12
2.53847e-09
-2.68223e-12
2.54129e-09
-2.81262e-12
2.54424e-09
-2.94835e-12
2.54733e-09
-3.08968e-12
2.55057e-09
-3.23699e-12
2.55396e-09
-3.39052e-12
2.55752e-09
-3.55067e-12
2.56124e-09
-3.71769e-12
2.56513e-09
-3.89198e-12
2.56921e-09
-4.07381e-12
2.57347e-09
-4.26356e-12
2.57794e-09
-4.46151e-12
2.58261e-09
-4.66805e-12
2.58749e-09
-4.88345e-12
2.5926e-09
-5.10809e-12
2.59795e-09
-5.34223e-12
2.60354e-09
-5.58624e-12
2.60938e-09
-5.84035e-12
2.61549e-09
-6.10493e-12
2.62187e-09
-6.38014e-12
2.62854e-09
-6.66633e-12
2.6355e-09
-6.96362e-12
2.64278e-09
-7.27228e-12
2.65037e-09
-7.59235e-12
2.6583e-09
-7.92402e-12
2.66657e-09
-8.26724e-12
2.67519e-09
-8.62205e-12
2.68419e-09
-8.98824e-12
2.69355e-09
-9.3657e-12
2.70331e-09
-9.75402e-12
2.71346e-09
-1.01529e-11
2.72403e-09
-1.05615e-11
2.73501e-09
-1.09794e-11
2.74642e-09
-1.14055e-11
2.75826e-09
-1.18388e-11
2.77054e-09
-1.22779e-11
2.78326e-09
-1.27214e-11
2.79644e-09
-1.31675e-11
2.81005e-09
-1.36142e-11
2.82411e-09
-1.40592e-11
2.83862e-09
-1.45001e-11
2.85355e-09
-1.4934e-11
2.86891e-09
-1.53582e-11
2.88469e-09
-1.57693e-11
2.90085e-09
-1.61642e-11
2.91739e-09
-1.65392e-11
2.93429e-09
-1.68911e-11
2.95151e-09
-1.72161e-11
2.96902e-09
-1.75109e-11
2.98679e-09
-1.77721e-11
3.00479e-09
-1.79968e-11
3.02298e-09
-1.81822e-11
3.04131e-09
-1.83259e-11
3.05974e-09
-1.8426e-11
3.07822e-09
-1.84812e-11
3.09671e-09
-1.84905e-11
3.11517e-09
-1.84538e-11
3.13354e-09
-1.83712e-11
3.15179e-09
-1.82439e-11
3.16986e-09
-1.80729e-11
3.18773e-09
-1.78603e-11
3.20534e-09
-1.76083e-11
3.22266e-09
-1.73197e-11
3.23966e-09
-1.69972e-11
3.2563e-09
-1.66441e-11
3.27257e-09
-1.62635e-11
3.28843e-09
-1.58591e-11
3.30387e-09
-1.5434e-11
3.31886e-09
-1.49918e-11
3.3334e-09
-1.45355e-11
3.34747e-09
-1.40685e-11
3.36107e-09
-1.35936e-11
3.37418e-09
-1.31139e-11
3.38682e-09
-1.26317e-11
3.39897e-09
-1.21498e-11
3.41064e-09
-1.16702e-11
3.42184e-09
-1.1195e-11
3.43257e-09
-1.0726e-11
3.44283e-09
-1.02648e-11
3.45265e-09
-9.81276e-12
3.46202e-09
-9.37111e-12
3.47097e-09
-8.94076e-12
3.47949e-09
-8.5226e-12
3.48761e-09
-8.11718e-12
3.49534e-09
-7.72509e-12
3.50269e-09
-7.34657e-12
3.50967e-09
-6.98194e-12
3.51631e-09
-6.63124e-12
3.5226e-09
-6.29454e-12
3.52858e-09
-5.97172e-12
3.53424e-09
-5.66268e-12
3.53961e-09
-5.36716e-12
3.5447e-09
-5.08494e-12
3.54952e-09
-4.81567e-12
3.55408e-09
-4.55902e-12
3.55839e-09
-4.31458e-12
3.56248e-09
-4.08196e-12
3.56634e-09
-3.86073e-12
3.56999e-09
-3.65045e-12
3.57345e-09
-3.45068e-12
3.57671e-09
-3.26098e-12
3.57979e-09
-3.08093e-12
3.5827e-09
-2.91006e-12
3.58546e-09
-2.748e-12
3.58805e-09
-2.59429e-12
3.5905e-09
-2.4486e-12
3.59281e-09
-2.31046e-12
3.595e-09
-2.17961e-12
3.59706e-09
-2.05558e-12
3.599e-09
-1.93815e-12
3.60082e-09
-1.82687e-12
3.60255e-09
-1.72158e-12
3.60417e-09
-1.62182e-12
3.60571e-09
-1.52748e-12
3.60714e-09
-1.43814e-12
3.6085e-09
-1.35373e-12
3.60978e-09
-1.27381e-12
3.61098e-09
-1.19838e-12
3.61211e-09
-1.12697e-12
3.61317e-09
-1.05964e-12
3.61417e-09
-9.95882e-13
3.61511e-09
-9.35802e-13
3.61599e-09
-8.78864e-13
3.61682e-09
-8.25221e-13
3.61759e-09
-7.74304e-13
3.61833e-09
-7.2632e-13
3.61901e-09
-6.80673e-13
3.61965e-09
-6.37635e-13
3.62025e-09
-5.9658e-13
3.62081e-09
-5.5786e-13
3.62133e-09
-5.20815e-13
3.62182e-09
-4.85886e-13
3.62228e-09
-4.52377e-13
3.62271e-09
-4.20823e-13
3.62309e-09
-3.90483e-13
3.62347e-09
-3.61994e-13
3.6238e-09
-3.3456e-13
3.62412e-09
-3.08917e-13
3.6244e-09
-2.84211e-13
3.62467e-09
-2.61267e-13
3.62491e-09
-2.39164e-13
3.62514e-09
-2.18811e-13
3.62534e-09
-1.99207e-13
3.62553e-09
-1.81335e-13
3.62569e-09
-1.64107e-13
3.62585e-09
-1.48579e-13
3.62598e-09
-1.33567e-13
3.62611e-09
-1.20201e-13
3.62622e-09
-1.07202e-13
3.62633e-09
-9.57834e-14
3.62641e-09
-8.4578e-14
3.6265e-09
-7.48983e-14
3.62656e-09
-6.52936e-14
3.62663e-09
-5.71915e-14
3.62667e-09
-4.90714e-14
3.62673e-09
-4.24851e-14
3.62676e-09
-3.58453e-14
3.6268e-09
-3.08218e-14
3.62682e-09
-2.57614e-14
3.62685e-09
-2.2435e-14
3.62686e-09
-1.91025e-14
3.62689e-09
-1.76206e-14
3.6269e-09
-1.61405e-14
3.62693e-09
-1.66274e-14
3.62693e-09
-1.70635e-14
3.62695e-09
-1.976e-14
3.62696e-09
-2.21597e-14
3.62698e-09
-2.70171e-14
3.627e-09
-2.99294e-14
-4.2446e-14
2.50004e-09
-7.34755e-14
2.50015e-09
-2.20358e-13
2.50034e-09
-3.67355e-13
2.50059e-09
-5.14572e-13
2.50093e-09
-6.62108e-13
2.50133e-09
-8.10064e-13
2.50181e-09
-9.58563e-13
2.50237e-09
-1.10774e-12
2.503e-09
-1.25774e-12
2.5037e-09
-1.40875e-12
2.50448e-09
-1.56095e-12
2.50534e-09
-1.71456e-12
2.50628e-09
-1.86981e-12
2.50729e-09
-2.02696e-12
2.50838e-09
-2.1863e-12
2.50956e-09
-2.34812e-12
2.51081e-09
-2.51275e-12
2.51215e-09
-2.68054e-12
2.51357e-09
-2.85186e-12
2.51509e-09
-3.02709e-12
2.51669e-09
-3.20666e-12
2.51838e-09
-3.39099e-12
2.52017e-09
-3.58053e-12
2.52205e-09
-3.77575e-12
2.52403e-09
-3.97714e-12
2.52612e-09
-4.18521e-12
2.52832e-09
-4.40047e-12
2.53062e-09
-4.62347e-12
2.53304e-09
-4.85475e-12
2.53558e-09
-5.09488e-12
2.53825e-09
-5.34445e-12
2.54104e-09
-5.60404e-12
2.54397e-09
-5.87425e-12
2.54704e-09
-6.15571e-12
2.55025e-09
-6.44904e-12
2.55362e-09
-6.75488e-12
2.55715e-09
-7.07387e-12
2.56084e-09
-7.40666e-12
2.5647e-09
-7.75393e-12
2.56875e-09
-8.11631e-12
2.57298e-09
-8.4945e-12
2.57741e-09
-8.88914e-12
2.58205e-09
-9.30092e-12
2.5869e-09
-9.73049e-12
2.59197e-09
-1.01785e-11
2.59728e-09
-1.06456e-11
2.60282e-09
-1.11325e-11
2.60863e-09
-1.16396e-11
2.61469e-09
-1.21677e-11
2.62103e-09
-1.27173e-11
2.62766e-09
-1.32888e-11
2.63458e-09
-1.38828e-11
2.64181e-09
-1.44996e-11
2.64936e-09
-1.51395e-11
2.65724e-09
-1.58028e-11
2.66547e-09
-1.64895e-11
2.67404e-09
-1.71996e-11
2.68299e-09
-1.7933e-11
2.69232e-09
-1.86893e-11
2.70204e-09
-1.94678e-11
2.71215e-09
-2.02679e-11
2.72268e-09
-2.10884e-11
2.73363e-09
-2.19278e-11
2.74502e-09
-2.27846e-11
2.75684e-09
-2.36565e-11
2.7691e-09
-2.45409e-11
2.78182e-09
-2.5435e-11
2.79499e-09
-2.63352e-11
2.80861e-09
-2.72376e-11
2.8227e-09
-2.81376e-11
2.83723e-09
-2.90303e-11
2.85221e-09
-2.99101e-11
2.86762e-09
-3.07709e-11
2.88346e-09
-3.16064e-11
2.89971e-09
-3.24097e-11
2.91635e-09
-3.31736e-11
2.93335e-09
-3.3891e-11
2.95069e-09
-3.45544e-11
2.96834e-09
-3.51568e-11
2.98626e-09
-3.56912e-11
3.00442e-09
-3.61512e-11
3.02277e-09
-3.65311e-11
3.04127e-09
-3.68257e-11
3.05988e-09
-3.70313e-11
3.07855e-09
-3.71447e-11
3.09723e-09
-3.71644e-11
3.11586e-09
-3.70897e-11
3.13442e-09
-3.69213e-11
3.15284e-09
-3.66611e-11
3.17108e-09
-3.6312e-11
3.1891e-09
-3.5878e-11
3.20686e-09
-3.53638e-11
3.22431e-09
-3.47751e-11
3.24144e-09
-3.41179e-11
3.25819e-09
-3.33987e-11
3.27456e-09
-3.26244e-11
3.2905e-09
-3.18021e-11
3.30601e-09
-3.09386e-11
3.32106e-09
-3.0041e-11
3.33565e-09
-2.91159e-11
3.34975e-09
-2.81698e-11
3.36337e-09
-2.72089e-11
3.37649e-09
-2.62388e-11
3.38913e-09
-2.5265e-11
3.40127e-09
-2.42923e-11
3.41293e-09
-2.33251e-11
3.42411e-09
-2.23677e-11
3.43481e-09
-2.14234e-11
3.44504e-09
-2.04954e-11
3.45482e-09
-1.95865e-11
3.46415e-09
-1.8699e-11
3.47304e-09
-1.78349e-11
3.48152e-09
-1.69957e-11
3.48959e-09
-1.61826e-11
3.49726e-09
-1.53967e-11
3.50456e-09
-1.46386e-11
3.51148e-09
-1.39087e-11
3.51806e-09
-1.32071e-11
3.5243e-09
-1.25339e-11
3.53022e-09
-1.18889e-11
3.53583e-09
-1.12717e-11
3.54115e-09
-1.06818e-11
3.54619e-09
-1.01186e-11
3.55096e-09
-9.58149e-12
3.55547e-09
-9.06969e-12
3.55974e-09
-8.58242e-12
3.56378e-09
-8.11879e-12
3.5676e-09
-7.67801e-12
3.57121e-09
-7.2591e-12
3.57462e-09
-6.86125e-12
3.57785e-09
-6.48349e-12
3.5809e-09
-6.12501e-12
3.58377e-09
-5.78487e-12
3.58649e-09
-5.46231e-12
3.58905e-09
-5.1564e-12
3.59147e-09
-4.86646e-12
3.59376e-09
-4.59162e-12
3.59591e-09
-4.33125e-12
3.59794e-09
-4.08454e-12
3.59986e-09
-3.85095e-12
3.60166e-09
-3.62968e-12
3.60337e-09
-3.42026e-12
3.60497e-09
-3.22197e-12
3.60648e-09
-3.0344e-12
3.6079e-09
-2.85684e-12
3.60924e-09
-2.68897e-12
3.6105e-09
-2.53012e-12
3.61168e-09
-2.38004e-12
3.61279e-09
-2.23807e-12
3.61384e-09
-2.10403e-12
3.61483e-09
-1.97726e-12
3.61575e-09
-1.85764e-12
3.61662e-09
-1.7445e-12
3.61744e-09
-1.63774e-12
3.6182e-09
-1.53668e-12
3.61892e-09
-1.44127e-12
3.61959e-09
-1.35081e-12
3.62022e-09
-1.2653e-12
3.62081e-09
-1.18404e-12
3.62137e-09
-1.10709e-12
3.62188e-09
-1.03378e-12
3.62237e-09
-9.64257e-13
3.62281e-09
-8.97872e-13
3.62323e-09
-8.34867e-13
3.62362e-09
-7.74628e-13
3.62398e-09
-7.17501e-13
3.62431e-09
-6.62891e-13
3.62462e-09
-6.11244e-13
3.6249e-09
-5.61961e-13
3.62516e-09
-5.15575e-13
3.62539e-09
-4.71454e-13
3.62561e-09
-4.30196e-13
3.62581e-09
-3.91111e-13
3.62599e-09
-3.54834e-13
3.62614e-09
-3.20598e-13
3.6263e-09
-2.89059e-13
3.62642e-09
-2.59368e-13
3.62654e-09
-2.32193e-13
3.62664e-09
-2.06614e-13
3.62674e-09
-1.83329e-13
3.62682e-09
-1.61367e-13
3.62689e-09
-1.41485e-13
3.62695e-09
-1.22685e-13
3.62701e-09
-1.05826e-13
3.62705e-09
-8.99081e-14
3.62709e-09
-7.5909e-14
3.62711e-09
-6.28318e-14
3.62715e-09
-5.17864e-14
3.62716e-09
-4.17646e-14
3.62718e-09
-3.39915e-14
3.62718e-09
-2.74225e-14
3.6272e-09
-2.33669e-14
3.6272e-09
-2.07127e-14
3.62721e-09
-2.08203e-14
3.6272e-09
-2.24832e-14
3.6272e-09
-2.7145e-14
3.6272e-09
-3.3351e-14
3.62721e-09
-4.32081e-14
3.62723e-09
-5.18042e-14
-7.48771e-14
2.50004e-09
-1.10011e-13
2.50015e-09
-3.29873e-13
2.50033e-09
-5.49903e-13
2.50059e-09
-7.70233e-13
2.50092e-09
-9.90991e-13
2.50133e-09
-1.21232e-12
2.5018e-09
-1.4344e-12
2.50236e-09
-1.6574e-12
2.50298e-09
-1.88157e-12
2.50368e-09
-2.10713e-12
2.50446e-09
-2.33439e-12
2.50531e-09
-2.56364e-12
2.50624e-09
-2.79524e-12
2.50724e-09
-3.02959e-12
2.50832e-09
-3.26709e-12
2.50949e-09
-3.50821e-12
2.51073e-09
-3.75344e-12
2.51205e-09
-4.0033e-12
2.51346e-09
-4.25835e-12
2.51496e-09
-4.51918e-12
2.51654e-09
-4.78641e-12
2.51821e-09
-5.06068e-12
2.51998e-09
-5.34269e-12
2.52184e-09
-5.63313e-12
2.52379e-09
-5.93274e-12
2.52585e-09
-6.24229e-12
2.52802e-09
-6.56254e-12
2.53029e-09
-6.89432e-12
2.53268e-09
-7.23846e-12
2.53518e-09
-7.5958e-12
2.5378e-09
-7.96723e-12
2.54056e-09
-8.35363e-12
2.54344e-09
-8.75591e-12
2.54646e-09
-9.17501e-12
2.54963e-09
-9.61187e-12
2.55294e-09
-1.00675e-11
2.55641e-09
-1.05427e-11
2.56005e-09
-1.10387e-11
2.56385e-09
-1.15563e-11
2.56784e-09
-1.20966e-11
2.57201e-09
-1.26606e-11
2.57637e-09
-1.32493e-11
2.58093e-09
-1.38638e-11
2.58571e-09
-1.45049e-11
2.59071e-09
-1.51738e-11
2.59594e-09
-1.58715e-11
2.60141e-09
-1.65988e-11
2.60713e-09
-1.73568e-11
2.61311e-09
-1.81463e-11
2.61936e-09
-1.89683e-11
2.6259e-09
-1.98235e-11
2.63273e-09
-2.07127e-11
2.63987e-09
-2.16365e-11
2.64733e-09
-2.25955e-11
2.65512e-09
-2.35901e-11
2.66325e-09
-2.46206e-11
2.67174e-09
-2.5687e-11
2.6806e-09
-2.67892e-11
2.68984e-09
-2.79269e-11
2.69948e-09
-2.90991e-11
2.70952e-09
-3.03051e-11
2.71997e-09
-3.15431e-11
2.73086e-09
-3.28115e-11
2.74219e-09
-3.41076e-11
2.75396e-09
-3.54285e-11
2.76619e-09
-3.67706e-11
2.77889e-09
-3.81294e-11
2.79206e-09
-3.94999e-11
2.8057e-09
-4.08761e-11
2.81982e-09
-4.22514e-11
2.8344e-09
-4.3618e-11
2.84947e-09
-4.49675e-11
2.86499e-09
-4.62908e-11
2.88096e-09
-4.75776e-11
2.89737e-09
-4.88173e-11
2.9142e-09
-4.99988e-11
2.93142e-09
-5.11103e-11
2.94901e-09
-5.21403e-11
2.96693e-09
-5.30771e-11
2.98515e-09
-5.39095e-11
3.00363e-09
-5.46272e-11
3.02233e-09
-5.52206e-11
3.04118e-09
-5.56817e-11
3.06016e-09
-5.60038e-11
3.0792e-09
-5.61823e-11
3.09825e-09
-5.62143e-11
3.11726e-09
-5.60989e-11
3.13618e-09
-5.58374e-11
3.15496e-09
-5.54329e-11
3.17354e-09
-5.48903e-11
3.19188e-09
-5.42161e-11
3.20994e-09
-5.34182e-11
3.22767e-09
-5.25056e-11
3.24504e-09
-5.14881e-11
3.26202e-09
-5.03763e-11
3.27858e-09
-4.9181e-11
3.29469e-09
-4.79134e-11
3.31034e-09
-4.65844e-11
3.32551e-09
-4.52049e-11
3.34018e-09
-4.37853e-11
3.35435e-09
-4.23357e-11
3.36801e-09
-4.08656e-11
3.38116e-09
-3.93838e-11
3.39379e-09
-3.78984e-11
3.40592e-09
-3.6417e-11
3.41754e-09
-3.49461e-11
3.42867e-09
-3.34919e-11
3.43931e-09
-3.20596e-11
3.44947e-09
-3.0654e-11
3.45916e-09
-2.92788e-11
3.4684e-09
-2.79376e-11
3.47721e-09
-2.66332e-11
3.48558e-09
-2.53677e-11
3.49354e-09
-2.41431e-11
3.50111e-09
-2.29605e-11
3.50829e-09
-2.18209e-11
3.51511e-09
-2.07247e-11
3.52158e-09
-1.96721e-11
3.52771e-09
-1.8663e-11
3.53352e-09
-1.76969e-11
3.53903e-09
-1.67732e-11
3.54424e-09
-1.58911e-11
3.54917e-09
-1.50495e-11
3.55384e-09
-1.42475e-11
3.55825e-09
-1.34836e-11
3.56243e-09
-1.27567e-11
3.56638e-09
-1.20655e-11
3.57012e-09
-1.14085e-11
3.57364e-09
-1.07845e-11
3.57698e-09
-1.0192e-11
3.58012e-09
-9.62962e-12
3.5831e-09
-9.09611e-12
3.5859e-09
-8.59007e-12
3.58856e-09
-8.11025e-12
3.59106e-09
-7.65537e-12
3.59342e-09
-7.22422e-12
3.59564e-09
-6.81563e-12
3.59775e-09
-6.42851e-12
3.59972e-09
-6.06177e-12
3.60159e-09
-5.71443e-12
3.60335e-09
-5.38552e-12
3.60501e-09
-5.07416e-12
3.60657e-09
-4.77945e-12
3.60804e-09
-4.50062e-12
3.60942e-09
-4.23684e-12
3.61072e-09
-3.9874e-12
3.61194e-09
-3.75154e-12
3.6131e-09
-3.52861e-12
3.61418e-09
-3.3179e-12
3.6152e-09
-3.11884e-12
3.61615e-09
-2.93076e-12
3.61705e-09
-2.75313e-12
3.61789e-09
-2.58531e-12
3.61869e-09
-2.42682e-12
3.61943e-09
-2.27701e-12
3.62013e-09
-2.13544e-12
3.62078e-09
-2.00145e-12
3.62139e-09
-1.87463e-12
3.62197e-09
-1.75436e-12
3.6225e-09
-1.64027e-12
3.623e-09
-1.53177e-12
3.62347e-09
-1.42859e-12
3.62391e-09
-1.33024e-12
3.62431e-09
-1.23652e-12
3.62469e-09
-1.14707e-12
3.62504e-09
-1.06181e-12
3.62536e-09
-9.80477e-13
3.62566e-09
-9.0312e-13
3.62592e-09
-8.29541e-13
3.62618e-09
-7.59876e-13
3.6264e-09
-6.93946e-13
3.62661e-09
-6.31929e-13
3.62679e-09
-5.73608e-13
3.62697e-09
-5.19153e-13
3.62711e-09
-4.6827e-13
3.62725e-09
-4.21075e-13
3.62737e-09
-3.7719e-13
3.62749e-09
-3.3666e-13
3.62758e-09
-2.99052e-13
3.62767e-09
-2.64355e-13
3.62774e-09
-2.32134e-13
3.62781e-09
-2.0237e-13
3.62786e-09
-1.74701e-13
3.62792e-09
-1.49152e-13
3.62795e-09
-1.25494e-13
3.62799e-09
-1.03843e-13
3.62801e-09
-8.41196e-14
3.62803e-09
-6.65476e-14
3.62804e-09
-5.11718e-14
3.62805e-09
-3.8307e-14
3.62805e-09
-2.80565e-14
3.62806e-09
-2.07781e-14
3.62805e-09
-1.65633e-14
3.62805e-09
-1.57646e-14
3.62803e-09
-1.84077e-14
3.62803e-09
-2.48787e-14
3.62802e-09
-3.48773e-14
3.62801e-09
-4.98883e-14
3.62802e-09
-6.41188e-14
-1.01717e-13
2.50004e-09
-1.46292e-13
2.50015e-09
-4.38696e-13
2.50033e-09
-7.3129e-13
2.50059e-09
-1.02422e-12
2.50092e-09
-1.31762e-12
2.50132e-09
-1.61166e-12
2.50179e-09
-1.90655e-12
2.50234e-09
-2.20252e-12
2.50296e-09
-2.49985e-12
2.50365e-09
-2.79886e-12
2.50442e-09
-3.09992e-12
2.50526e-09
-3.40343e-12
2.50618e-09
-3.70988e-12
2.50717e-09
-4.01976e-12
2.50824e-09
-4.33364e-12
2.50939e-09
-4.65213e-12
2.51061e-09
-4.97589e-12
2.51192e-09
-5.30563e-12
2.5133e-09
-5.64208e-12
2.51477e-09
-5.98604e-12
2.51632e-09
-6.33835e-12
2.51797e-09
-6.69988e-12
2.5197e-09
-7.07154e-12
2.52152e-09
-7.45429e-12
2.52344e-09
-7.8491e-12
2.52546e-09
-8.257e-12
2.52757e-09
-8.67905e-12
2.5298e-09
-9.11633e-12
2.53213e-09
-9.56994e-12
2.53458e-09
-1.0041e-11
2.53715e-09
-1.05308e-11
2.53984e-09
-1.10404e-11
2.54265e-09
-1.15711e-11
2.54561e-09
-1.21241e-11
2.5487e-09
-1.27008e-11
2.55193e-09
-1.33022e-11
2.55532e-09
-1.39299e-11
2.55887e-09
-1.45851e-11
2.56259e-09
-1.52692e-11
2.56648e-09
-1.59835e-11
2.57055e-09
-1.67293e-11
2.57481e-09
-1.75081e-11
2.57927e-09
-1.83213e-11
2.58394e-09
-1.91701e-11
2.58882e-09
-2.00561e-11
2.59393e-09
-2.09804e-11
2.59928e-09
-2.19446e-11
2.60488e-09
-2.29499e-11
2.61073e-09
-2.39976e-11
2.61686e-09
-2.50888e-11
2.62326e-09
-2.62249e-11
2.62996e-09
-2.7407e-11
2.63696e-09
-2.86359e-11
2.64428e-09
-2.99126e-11
2.65193e-09
-3.12377e-11
2.65992e-09
-3.2612e-11
2.66827e-09
-3.40356e-11
2.677e-09
-3.55086e-11
2.6861e-09
-3.70307e-11
2.69561e-09
-3.86014e-11
2.70552e-09
-4.02194e-11
2.71587e-09
-4.18832e-11
2.72665e-09
-4.35906e-11
2.73788e-09
-4.53386e-11
2.74958e-09
-4.71236e-11
2.76175e-09
-4.89411e-11
2.77441e-09
-5.07856e-11
2.78757e-09
-5.26503e-11
2.80122e-09
-5.45277e-11
2.81538e-09
-5.64088e-11
2.83005e-09
-5.82832e-11
2.84522e-09
-6.01396e-11
2.8609e-09
-6.19651e-11
2.87707e-09
-6.37457e-11
2.89372e-09
-6.54662e-11
2.91084e-09
-6.71107e-11
2.92839e-09
-6.86622e-11
2.94636e-09
-7.01038e-11
2.9647e-09
-7.14184e-11
2.98338e-09
-7.25894e-11
3.00236e-09
-7.3601e-11
3.02158e-09
-7.44392e-11
3.04099e-09
-7.50917e-11
3.06054e-09
-7.55486e-11
3.08016e-09
-7.58029e-11
3.0998e-09
-7.58502e-11
3.1194e-09
-7.56896e-11
3.13889e-09
-7.5323e-11
3.15821e-09
-7.47553e-11
3.17732e-09
-7.3994e-11
3.19615e-09
-7.3049e-11
3.21467e-09
-7.19322e-11
3.23282e-09
-7.06571e-11
3.25058e-09
-6.92382e-11
3.26789e-09
-6.76911e-11
3.28475e-09
-6.60315e-11
3.30111e-09
-6.42753e-11
3.31697e-09
-6.24382e-11
3.3323e-09
-6.05356e-11
3.3471e-09
-5.85821e-11
3.36136e-09
-5.65916e-11
3.37507e-09
-5.45772e-11
3.38824e-09
-5.25511e-11
3.40087e-09
-5.05242e-11
3.41296e-09
-4.85068e-11
3.42453e-09
-4.65077e-11
3.43557e-09
-4.45351e-11
3.44611e-09
-4.25959e-11
3.45616e-09
-4.06961e-11
3.46572e-09
-3.8841e-11
3.47482e-09
-3.70347e-11
3.48347e-09
-3.52807e-11
3.49169e-09
-3.35819e-11
3.49949e-09
-3.19402e-11
3.50688e-09
-3.03572e-11
3.5139e-09
-2.88339e-11
3.52055e-09
-2.73706e-11
3.52685e-09
-2.59672e-11
3.53281e-09
-2.46235e-11
3.53845e-09
-2.33385e-11
3.54379e-09
-2.21113e-11
3.54885e-09
-2.09406e-11
3.55362e-09
-1.98249e-11
3.55814e-09
-1.87624e-11
3.56241e-09
-1.77514e-11
3.56645e-09
-1.67901e-11
3.57026e-09
-1.58766e-11
3.57386e-09
-1.50089e-11
3.57727e-09
-1.41851e-11
3.58048e-09
-1.34032e-11
3.58351e-09
-1.26615e-11
3.58638e-09
-1.19581e-11
3.58908e-09
-1.12912e-11
3.59164e-09
-1.06591e-11
3.59404e-09
-1.00599e-11
3.59631e-09
-9.49227e-12
3.59845e-09
-8.95443e-12
3.60047e-09
-8.44492e-12
3.60238e-09
-7.9623e-12
3.60417e-09
-7.5052e-12
3.60586e-09
-7.07232e-12
3.60745e-09
-6.66247e-12
3.60895e-09
-6.27451e-12
3.61036e-09
-5.90741e-12
3.61168e-09
-5.56014e-12
3.61293e-09
-5.23182e-12
3.6141e-09
-4.92147e-12
3.61521e-09
-4.6283e-12
3.61624e-09
-4.35138e-12
3.61722e-09
-4.08996e-12
3.61813e-09
-3.84313e-12
3.61899e-09
-3.61015e-12
3.6198e-09
-3.39018e-12
3.62056e-09
-3.1825e-12
3.62127e-09
-2.98627e-12
3.62194e-09
-2.80082e-12
3.62257e-09
-2.62533e-12
3.62316e-09
-2.45916e-12
3.6237e-09
-2.30155e-12
3.62422e-09
-2.15191e-12
3.6247e-09
-2.00955e-12
3.62515e-09
-1.87396e-12
3.62557e-09
-1.74459e-12
3.62596e-09
-1.62106e-12
3.62631e-09
-1.503e-12
3.62665e-09
-1.39017e-12
3.62695e-09
-1.28241e-12
3.62723e-09
-1.17961e-12
3.62748e-09
-1.08178e-12
3.62772e-09
-9.88945e-13
3.62793e-09
-9.01155e-13
3.62812e-09
-8.18494e-13
3.62829e-09
-7.40972e-13
3.62845e-09
-6.68641e-13
3.62858e-09
-6.0137e-13
3.62871e-09
-5.39121e-13
3.62882e-09
-4.81572e-13
3.62892e-09
-4.28572e-13
3.629e-09
-3.79638e-13
3.62908e-09
-3.34544e-13
3.62914e-09
-2.92745e-13
3.6292e-09
-2.54017e-13
3.62925e-09
-2.17904e-13
3.62929e-09
-1.84271e-13
3.62932e-09
-1.52881e-13
3.62935e-09
-1.23753e-13
3.62936e-09
-9.69309e-14
3.62938e-09
-7.25884e-14
3.62937e-09
-5.10395e-14
3.62938e-09
-3.2548e-14
3.62936e-09
-1.76146e-14
3.62936e-09
-6.48522e-15
3.62933e-09
2.6212e-16
3.62932e-09
2.51804e-15
3.62929e-09
-2.61181e-16
3.62927e-09
-8.11477e-15
3.62925e-09
-2.11495e-14
3.62923e-09
-4.10348e-14
3.62922e-09
-6.08455e-14
-1.13349e-13
2.50004e-09
-1.82316e-13
2.50015e-09
-5.46783e-13
2.50033e-09
-9.11423e-13
2.50058e-09
-1.27636e-12
2.50091e-09
-1.64172e-12
2.50131e-09
-2.00767e-12
2.50178e-09
-2.37443e-12
2.50232e-09
-2.74226e-12
2.50293e-09
-3.11148e-12
2.50362e-09
-3.48249e-12
2.50438e-09
-3.85571e-12
2.50521e-09
-4.23167e-12
2.50611e-09
-4.61093e-12
2.50709e-09
-4.99415e-12
2.50814e-09
-5.38201e-12
2.50926e-09
-5.77529e-12
2.51046e-09
-6.17483e-12
2.51174e-09
-6.5815e-12
2.5131e-09
-6.99625e-12
2.51453e-09
-7.42008e-12
2.51605e-09
-7.85404e-12
2.51765e-09
-8.29924e-12
2.51934e-09
-8.75683e-12
2.52112e-09
-9.22801e-12
2.52298e-09
-9.71401e-12
2.52495e-09
-1.02161e-11
2.527e-09
-1.07357e-11
2.52916e-09
-1.12741e-11
2.53143e-09
-1.18327e-11
2.5338e-09
-1.24129e-11
2.53629e-09
-1.30163e-11
2.5389e-09
-1.36443e-11
2.54163e-09
-1.42985e-11
2.54449e-09
-1.49804e-11
2.54748e-09
-1.56917e-11
2.55061e-09
-1.64339e-11
2.5539e-09
-1.72088e-11
2.55733e-09
-1.80179e-11
2.56093e-09
-1.88631e-11
2.56469e-09
-1.97459e-11
2.56863e-09
-2.06682e-11
2.57276e-09
-2.16317e-11
2.57708e-09
-2.26381e-11
2.5816e-09
-2.36893e-11
2.58633e-09
-2.47869e-11
2.59129e-09
-2.59327e-11
2.59648e-09
-2.71286e-11
2.6019e-09
-2.83762e-11
2.60759e-09
-2.96772e-11
2.61353e-09
-3.10333e-11
2.61976e-09
-3.24461e-11
2.62627e-09
-3.39171e-11
2.63308e-09
-3.54479e-11
2.64022e-09
-3.70396e-11
2.64767e-09
-3.86936e-11
2.65547e-09
-4.04106e-11
2.66363e-09
-4.21916e-11
2.67216e-09
-4.40369e-11
2.68108e-09
-4.59467e-11
2.69041e-09
-4.79206e-11
2.70015e-09
-4.99577e-11
2.71032e-09
-5.20567e-11
2.72095e-09
-5.42154e-11
2.73204e-09
-5.64307e-11
2.74362e-09
-5.86988e-11
2.7557e-09
-6.10145e-11
2.76829e-09
-6.33715e-11
2.7814e-09
-6.57621e-11
2.79505e-09
-6.8177e-11
2.80925e-09
-7.06052e-11
2.82401e-09
-7.30338e-11
2.83932e-09
-7.54484e-11
2.85519e-09
-7.78321e-11
2.87161e-09
-8.01665e-11
2.88858e-09
-8.24312e-11
2.90607e-09
-8.46044e-11
2.92408e-09
-8.66629e-11
2.94256e-09
-8.85826e-11
2.96148e-09
-9.03393e-11
2.98081e-09
-9.19092e-11
3.00048e-09
-9.32694e-11
3.02044e-09
-9.43993e-11
3.04063e-09
-9.52809e-11
3.06098e-09
-9.58996e-11
3.08143e-09
-9.62453e-11
3.10189e-09
-9.63119e-11
3.1223e-09
-9.60982e-11
3.14259e-09
-9.56075e-11
3.16269e-09
-9.48475e-11
3.18253e-09
-9.38294e-11
3.20205e-09
-9.25678e-11
3.2212e-09
-9.10801e-11
3.23993e-09
-8.93858e-11
3.2582e-09
-8.75055e-11
3.27597e-09
-8.54611e-11
3.29322e-09
-8.32745e-11
3.30991e-09
-8.09678e-11
3.32604e-09
-7.85622e-11
3.34158e-09
-7.60785e-11
3.35654e-09
-7.3536e-11
3.3709e-09
-7.0953e-11
3.38468e-09
-6.83466e-11
3.39786e-09
-6.57322e-11
3.41046e-09
-6.3124e-11
3.42249e-09
-6.05347e-11
3.43396e-09
-5.79755e-11
3.44489e-09
-5.54563e-11
3.45528e-09
-5.29857e-11
3.46516e-09
-5.05709e-11
3.47454e-09
-4.8218e-11
3.48343e-09
-4.59321e-11
3.49187e-09
-4.37172e-11
3.49987e-09
-4.15762e-11
3.50745e-09
-3.95113e-11
3.51461e-09
-3.75239e-11
3.5214e-09
-3.56149e-11
3.52781e-09
-3.37842e-11
3.53388e-09
-3.20314e-11
3.53961e-09
-3.03557e-11
3.54504e-09
-2.87558e-11
3.55015e-09
-2.72299e-11
3.55499e-09
-2.57761e-11
3.55956e-09
-2.43923e-11
3.56388e-09
-2.3076e-11
3.56796e-09
-2.1825e-11
3.57181e-09
-2.06365e-11
3.57544e-09
-1.95081e-11
3.57887e-09
-1.84372e-11
3.58211e-09
-1.74211e-11
3.58517e-09
-1.64574e-11
3.58805e-09
-1.55437e-11
3.59077e-09
-1.46774e-11
3.59334e-09
-1.38564e-11
3.59576e-09
-1.30784e-11
3.59804e-09
-1.23412e-11
3.6002e-09
-1.16428e-11
3.60223e-09
-1.09814e-11
3.60414e-09
-1.03549e-11
3.60594e-09
-9.76159e-12
3.60764e-09
-9.19979e-12
3.60924e-09
-8.66784e-12
3.61074e-09
-8.16419e-12
3.61216e-09
-7.68742e-12
3.61349e-09
-7.23618e-12
3.61474e-09
-6.80925e-12
3.61592e-09
-6.40551e-12
3.61702e-09
-6.02389e-12
3.61806e-09
-5.66347e-12
3.61904e-09
-5.3232e-12
3.61996e-09
-5.00226e-12
3.62081e-09
-4.69958e-12
3.62162e-09
-4.41431e-12
3.62238e-09
-4.14533e-12
3.62309e-09
-3.89175e-12
3.62376e-09
-3.65245e-12
3.62439e-09
-3.42649e-12
3.62498e-09
-3.21278e-12
3.62553e-09
-3.01042e-12
3.62605e-09
-2.81837e-12
3.62654e-09
-2.63584e-12
3.62699e-09
-2.46189e-12
3.62742e-09
-2.29588e-12
3.62781e-09
-2.13706e-12
3.62818e-09
-1.985e-12
3.62852e-09
-1.83921e-12
3.62883e-09
-1.69946e-12
3.62911e-09
-1.56556e-12
3.62938e-09
-1.4375e-12
3.62961e-09
-1.31535e-12
3.62983e-09
-1.19924e-12
3.63002e-09
-1.08939e-12
3.63019e-09
-9.85987e-13
3.63034e-09
-8.89208e-13
3.63048e-09
-7.99168e-13
3.6306e-09
-7.15835e-13
3.63071e-09
-6.39129e-13
3.6308e-09
-5.68708e-13
3.63088e-09
-5.04245e-13
3.63095e-09
-4.45113e-13
3.63102e-09
-3.90802e-13
3.63106e-09
-3.40556e-13
3.63111e-09
-2.93844e-13
3.63115e-09
-2.50031e-13
3.63118e-09
-2.0875e-13
3.6312e-09
-1.69713e-13
3.63122e-09
-1.32845e-13
3.63121e-09
-9.83106e-14
3.63122e-09
-6.63423e-14
3.6312e-09
-3.75155e-14
3.63119e-09
-1.22695e-14
3.63116e-09
8.57596e-15
3.63114e-09
2.45555e-14
3.6311e-09
3.48265e-14
3.63107e-09
3.90855e-14
3.63102e-09
3.66569e-14
3.63098e-09
2.74929e-14
3.63094e-09
1.17612e-14
3.6309e-09
-1.20018e-14
3.63087e-09
-3.32524e-14
-9.15523e-14
2.50004e-09
-2.1811e-13
2.50015e-09
-6.54232e-13
2.50033e-09
-1.09046e-12
2.50058e-09
-1.52684e-12
2.5009e-09
-1.96346e-12
2.5013e-09
-2.40046e-12
2.50176e-09
-2.83803e-12
2.5023e-09
-3.27646e-12
2.50291e-09
-3.71608e-12
2.50358e-09
-4.15734e-12
2.50433e-09
-4.60073e-12
2.50515e-09
-5.04687e-12
2.50604e-09
-5.49643e-12
2.50699e-09
-5.95019e-12
2.50802e-09
-6.40899e-12
2.50912e-09
-6.87378e-12
2.5103e-09
-7.34555e-12
2.51154e-09
-7.8254e-12
2.51286e-09
-8.31447e-12
2.51426e-09
-8.81397e-12
2.51573e-09
-9.32521e-12
2.51728e-09
-9.8495e-12
2.51892e-09
-1.03883e-11
2.52064e-09
-1.09429e-11
2.52244e-09
-1.1515e-11
2.52433e-09
-1.21061e-11
2.52632e-09
-1.27178e-11
2.5284e-09
-1.33517e-11
2.53057e-09
-1.40096e-11
2.53286e-09
-1.46931e-11
2.53525e-09
-1.54042e-11
2.53775e-09
-1.61445e-11
2.54037e-09
-1.6916e-11
2.54311e-09
-1.77205e-11
2.54598e-09
-1.85601e-11
2.54899e-09
-1.94366e-11
2.55213e-09
-2.03521e-11
2.55543e-09
-2.13085e-11
2.55888e-09
-2.23081e-11
2.56249e-09
-2.33527e-11
2.56626e-09
-2.44447e-11
2.57022e-09
-2.5586e-11
2.57436e-09
-2.67788e-11
2.5787e-09
-2.80254e-11
2.58325e-09
-2.93278e-11
2.588e-09
-3.06884e-11
2.59299e-09
-3.21092e-11
2.59821e-09
-3.35925e-11
2.60367e-09
-3.51404e-11
2.6094e-09
-3.67551e-11
2.61539e-09
-3.84388e-11
2.62167e-09
-4.01934e-11
2.62825e-09
-4.2021e-11
2.63513e-09
-4.39235e-11
2.64234e-09
-4.59027e-11
2.6499e-09
-4.79601e-11
2.6578e-09
-5.00971e-11
2.66609e-09
-5.23149e-11
2.67476e-09
-5.46142e-11
2.68383e-09
-5.69953e-11
2.69334e-09
-5.94581e-11
2.70328e-09
-6.20017e-11
2.7137e-09
-6.46244e-11
2.72459e-09
-6.73238e-11
2.73599e-09
-7.00961e-11
2.74792e-09
-7.29363e-11
2.76038e-09
-7.58378e-11
2.77342e-09
-7.87924e-11
2.78703e-09
-8.17896e-11
2.80125e-09
-8.48168e-11
2.81608e-09
-8.78591e-11
2.83153e-09
-9.08985e-11
2.84761e-09
-9.39144e-11
2.86433e-09
-9.68834e-11
2.88168e-09
-9.97789e-11
2.89965e-09
-1.02572e-10
2.91822e-09
-1.05231e-10
2.93737e-09
-1.07724e-10
2.95705e-09
-1.10015e-10
2.97721e-09
-1.12071e-10
2.9978e-09
-1.13858e-10
3.01875e-09
-1.15348e-10
3.03999e-09
-1.16513e-10
3.06143e-09
-1.17333e-10
3.08297e-09
-1.17792e-10
3.10455e-09
-1.17883e-10
3.12606e-09
-1.17603e-10
3.14741e-09
-1.1696e-10
3.16853e-09
-1.15964e-10
3.18934e-09
-1.14633e-10
3.20976e-09
-1.12988e-10
3.22974e-09
-1.11056e-10
3.24922e-09
-1.08862e-10
3.26815e-09
-1.06437e-10
3.2865e-09
-1.03811e-10
3.30425e-09
-1.01013e-10
3.32135e-09
-9.80728e-11
3.33781e-09
-9.50186e-11
3.35361e-09
-9.18772e-11
3.36875e-09
-8.86737e-11
3.38323e-09
-8.54314e-11
3.39706e-09
-8.21713e-11
3.41024e-09
-7.89127e-11
3.4228e-09
-7.56728e-11
3.43473e-09
-7.24667e-11
3.44607e-09
-6.93077e-11
3.45682e-09
-6.62073e-11
3.46701e-09
-6.31754e-11
3.47666e-09
-6.02203e-11
3.4858e-09
-5.73488e-11
3.49443e-09
-5.45661e-11
3.50259e-09
-5.18766e-11
3.5103e-09
-4.92833e-11
3.51758e-09
-4.67881e-11
3.52445e-09
-4.43921e-11
3.53094e-09
-4.20956e-11
3.53705e-09
-3.98982e-11
3.54282e-09
-3.77986e-11
3.54826e-09
-3.57952e-11
3.5534e-09
-3.38859e-11
3.55824e-09
-3.20682e-11
3.5628e-09
-3.03391e-11
3.56711e-09
-2.86957e-11
3.57117e-09
-2.71347e-11
3.575e-09
-2.56528e-11
3.57862e-09
-2.42466e-11
3.58202e-09
-2.29127e-11
3.58524e-09
-2.16479e-11
3.58827e-09
-2.0449e-11
3.59112e-09
-1.93128e-11
3.59382e-09
-1.82361e-11
3.59636e-09
-1.72162e-11
3.59876e-09
-1.62499e-11
3.60102e-09
-1.53347e-11
3.60314e-09
-1.44677e-11
3.60515e-09
-1.36464e-11
3.60704e-09
-1.28686e-11
3.60882e-09
-1.21319e-11
3.6105e-09
-1.14342e-11
3.61207e-09
-1.07735e-11
3.61355e-09
-1.0148e-11
3.61495e-09
-9.55587e-12
3.61626e-09
-8.99544e-12
3.61749e-09
-8.46513e-12
3.61865e-09
-7.96344e-12
3.61974e-09
-7.48902e-12
3.62076e-09
-7.04059e-12
3.62172e-09
-6.61703e-12
3.62261e-09
-6.21726e-12
3.62345e-09
-5.84034e-12
3.62424e-09
-5.4852e-12
3.62498e-09
-5.15094e-12
3.62568e-09
-4.83636e-12
3.62633e-09
-4.54041e-12
3.62694e-09
-4.26176e-12
3.62752e-09
-3.99919e-12
3.62806e-09
-3.75127e-12
3.62857e-09
-3.51669e-12
3.62904e-09
-3.2941e-12
3.62949e-09
-3.08222e-12
3.62991e-09
-2.87989e-12
3.6303e-09
-2.68607e-12
3.63067e-09
-2.4999e-12
3.63101e-09
-2.32072e-12
3.63131e-09
-2.14802e-12
3.6316e-09
-1.98164e-12
3.63186e-09
-1.82143e-12
3.63209e-09
-1.66767e-12
3.6323e-09
-1.5205e-12
3.63249e-09
-1.38052e-12
3.63264e-09
-1.24801e-12
3.63279e-09
-1.12364e-12
3.63291e-09
-1.00762e-12
3.63302e-09
-9.00451e-13
3.63311e-09
-8.02015e-13
3.63319e-09
-7.124e-13
3.63326e-09
-6.31015e-13
3.63332e-09
-5.5742e-13
3.63337e-09
-4.90562e-13
3.63342e-09
-4.29576e-13
3.63345e-09
-3.73204e-13
3.63349e-09
-3.20461e-13
3.63351e-09
-2.70302e-13
3.63353e-09
-2.22008e-13
3.63353e-09
-1.75144e-13
3.63354e-09