/*--------------------------------*- C++ -*----------------------------------*\
  =========                 |
  \\      /  F ield         | OpenFOAM: The Open Source CFD Toolbox
   \\    /   O peration     | Website:  https://openfoam.org
    \\  /    A nd           | Version:  10
     \\/     M anipulation  |
\*---------------------------------------------------------------------------*/
FoamFile
{
    format      ascii;
    class       volVectorField;
    location    "0.1";
    object      U;
}
// * * * * * * * * * * * * * * * * * * * * * * * * * * * * * * * * * * * * * //

dimensions      [0 1 -1 0 0 0 0];

internalField   nonuniform List<vector> 
4000
(
(5.00002 -7.36495e-05 0)
(5.00016 -0.00022095 0)
(5.00044 -0.000368328 0)
(5.00089 -0.000515913 0)
(5.00149 -0.000663826 0)
(5.00223 -0.000812181 0)
(5.00312 -0.000961124 0)
(5.00416 -0.00111079 0)
(5.00534 -0.00126134 0)
(5.00668 -0.00141293 0)
(5.00818 -0.00156577 0)
(5.00982 -0.00172006 0)
(5.01162 -0.00187605 0)
(5.01357 -0.00203401 0)
(5.01569 -0.00219422 0)
(5.01796 -0.00235697 0)
(5.0204 -0.00252262 0)
(5.02301 -0.00269149 0)
(5.02579 -0.00286397 0)
(5.02874 -0.00304041 0)
(5.03187 -0.00322126 0)
(5.03518 -0.00340691 0)
(5.03868 -0.00359784 0)
(5.04237 -0.00379449 0)
(5.04627 -0.00399737 0)
(5.05036 -0.00420695 0)
(5.05467 -0.00442381 0)
(5.0592 -0.00464842 0)
(5.06396 -0.0048814 0)
(5.06896 -0.00512326 0)
(5.0742 -0.00537464 0)
(5.0797 -0.00563608 0)
(5.08546 -0.00590823 0)
(5.0915 -0.00619165 0)
(5.09783 -0.00648704 0)
(5.10446 -0.00679494 0)
(5.1114 -0.00711609 0)
(5.11867 -0.00745103 0)
(5.12628 -0.00780052 0)
(5.13425 -0.00816511 0)
(5.14258 -0.00854555 0)
(5.15131 -0.00894242 0)
(5.16044 -0.00935646 0)
(5.16999 -0.00978822 0)
(5.17998 -0.0102385 0)
(5.19044 -0.0107077 0)
(5.20136 -0.0111966 0)
(5.21279 -0.0117057 0)
(5.22474 -0.0122357 0)
(5.23722 -0.012787 0)
(5.25027 -0.0133601 0)
(5.2639 -0.0139554 0)
(5.27813 -0.0145733 0)
(5.29299 -0.015214 0)
(5.30851 -0.0158778 0)
(5.3247 -0.0165645 0)
(5.34159 -0.0172742 0)
(5.3592 -0.0180065 0)
(5.37755 -0.0187612 0)
(5.39667 -0.0195373 0)
(5.41658 -0.0203341 0)
(5.43729 -0.0211504 0)
(5.45883 -0.0219847 0)
(5.48122 -0.022835 0)
(5.50447 -0.0236994 0)
(5.52858 -0.0245749 0)
(5.55359 -0.0254587 0)
(5.57948 -0.0263471 0)
(5.60626 -0.0272363 0)
(5.63394 -0.0281216 0)
(5.66251 -0.0289981 0)
(5.69195 -0.0298603 0)
(5.72225 -0.0307025 0)
(5.75339 -0.0315182 0)
(5.78534 -0.0323011 0)
(5.81805 -0.0330442 0)
(5.8515 -0.0337406 0)
(5.88563 -0.0343835 0)
(5.92037 -0.0349662 0)
(5.95568 -0.0354821 0)
(5.99147 -0.0359254 0)
(6.02767 -0.0362906 0)
(6.0642 -0.0365734 0)
(6.10098 -0.0367698 0)
(6.13792 -0.0368774 0)
(6.17492 -0.0368944 0)
(6.21189 -0.0368204 0)
(6.24874 -0.036656 0)
(6.28538 -0.036403 0)
(6.32173 -0.0360638 0)
(6.35769 -0.0356424 0)
(6.39318 -0.0351429 0)
(6.42813 -0.0345706 0)
(6.46247 -0.0339311 0)
(6.49613 -0.0332308 0)
(6.52906 -0.0324758 0)
(6.5612 -0.031673 0)
(6.59251 -0.0308289 0)
(6.62295 -0.0299505 0)
(6.65249 -0.0290441 0)
(6.6811 -0.0281161 0)
(6.70877 -0.0271724 0)
(6.73549 -0.0262188 0)
(6.76124 -0.0252603 0)
(6.78603 -0.0243019 0)
(6.80985 -0.0233478 0)
(6.83272 -0.0224021 0)
(6.85464 -0.0214681 0)
(6.87564 -0.020549 0)
(6.89571 -0.0196476 0)
(6.9149 -0.0187662 0)
(6.93321 -0.0179068 0)
(6.95067 -0.0170712 0)
(6.96731 -0.0162608 0)
(6.98315 -0.0154767 0)
(6.99822 -0.0147196 0)
(7.01254 -0.0139903 0)
(7.02615 -0.0132888 0)
(7.03908 -0.0126153 0)
(7.05134 -0.0119697 0)
(7.06297 -0.0113516 0)
(7.074 -0.0107606 0)
(7.08445 -0.010196 0)
(7.09435 -0.00965728 0)
(7.10372 -0.00914352 0)
(7.11259 -0.00865413 0)
(7.12099 -0.0081881 0)
(7.12893 -0.0077448 0)
(7.13644 -0.00732316 0)
(7.14354 -0.0069226 0)
(7.15025 -0.00654197 0)
(7.15659 -0.00618076 0)
(7.16258 -0.00583779 0)
(7.16824 -0.00551264 0)
(7.17359 -0.00520408 0)
(7.17863 -0.00491182 0)
(7.18339 -0.00463462 0)
(7.18788 -0.00437228 0)
(7.19212 -0.00412355 0)
(7.19611 -0.00388835 0)
(7.19988 -0.00366538 0)
(7.20343 -0.0034547 0)
(7.20678 -0.00325493 0)
(7.20993 -0.00306626 0)
(7.2129 -0.00288727 0)
(7.21569 -0.00271828 0)
(7.21832 -0.00255783 0)
(7.2208 -0.00240644 0)
(7.22312 -0.0022626 0)
(7.22531 -0.00212703 0)
(7.22737 -0.00199816 0)
(7.22931 -0.00187693 0)
(7.23113 -0.00176165 0)
(7.23284 -0.00165341 0)
(7.23444 -0.0015504 0)
(7.23594 -0.00145385 0)
(7.23736 -0.00136174 0)
(7.23868 -0.00127545 0)
(7.23992 -0.00119279 0)
(7.24108 -0.00111531 0)
(7.24216 -0.00104062 0)
(7.24317 -0.000970521 0)
(7.24412 -0.000902479 0)
(7.245 -0.000838598 0)
(7.24582 -0.000776187 0)
(7.24657 -0.000717706 0)
(7.24728 -0.000660308 0)
(7.24793 -0.000606817 0)
(7.24853 -0.000554197 0)
(7.24908 -0.000505619 0)
(7.24959 -0.000457811 0)
(7.25006 -0.000414263 0)
(7.25048 -0.000371404 0)
(7.25087 -0.000333017 0)
(7.25123 -0.000295185 0)
(7.25155 -0.000261967 0)
(7.25184 -0.000229062 0)
(7.2521 -0.000200821 0)
(7.25234 -0.000172544 0)
(7.25255 -0.0001489 0)
(7.25274 -0.000124797 0)
(7.25291 -0.000105275 0)
(7.25306 -8.48635e-05 0)
(7.25319 -6.90227e-05 0)
(7.2533 -5.19346e-05 0)
(7.2534 -3.95078e-05 0)
(7.25349 -2.56006e-05 0)
(7.25356 -1.65793e-05 0)
(7.25362 -5.9953e-06 0)
(7.25367 -6.40626e-07 0)
(7.25372 6.26947e-06 0)
(7.25376 7.59104e-06 0)
(7.2538 1.05297e-05 0)
(7.25383 7.58789e-06 0)
(7.25386 6.56063e-06 0)
(7.25388 -9.04674e-07 0)
(7.25391 -5.94336e-06 0)
(7.25394 -1.77813e-05 0)
(7.25401 -2.37551e-05 0)
(7.25402 -4.7784e-05 0)
(5.00002 -0.000220557 0)
(5.00016 -0.000661735 0)
(5.00044 -0.00110323 0)
(5.00089 -0.00154538 0)
(5.00148 -0.00198852 0)
(5.00222 -0.00243298 0)
(5.00311 -0.00287915 0)
(5.00415 -0.00332742 0)
(5.00533 -0.00377827 0)
(5.00667 -0.0042322 0)
(5.00815 -0.00468979 0)
(5.00979 -0.0051517 0)
(5.01158 -0.00561864 0)
(5.01353 -0.00609139 0)
(5.01563 -0.00657081 0)
(5.0179 -0.0070578 0)
(5.02033 -0.00755336 0)
(5.02292 -0.0080585 0)
(5.02568 -0.00857436 0)
(5.02862 -0.00910206 0)
(5.03173 -0.00964287 0)
(5.03502 -0.010198 0)
(5.0385 -0.010769 0)
(5.04217 -0.011357 0)
(5.04604 -0.0119636 0)
(5.05011 -0.0125903 0)
(5.05439 -0.0132387 0)
(5.05889 -0.0139103 0)
(5.06361 -0.0146068 0)
(5.06857 -0.0153299 0)
(5.07377 -0.0160814 0)
(5.07923 -0.016863 0)
(5.08495 -0.0176765 0)
(5.09094 -0.0185237 0)
(5.09722 -0.0194067 0)
(5.1038 -0.0203271 0)
(5.11069 -0.021287 0)
(5.1179 -0.0222883 0)
(5.12546 -0.0233331 0)
(5.13336 -0.0244232 0)
(5.14164 -0.0255608 0)
(5.1503 -0.0267476 0)
(5.15936 -0.0279858 0)
(5.16884 -0.0292774 0)
(5.17876 -0.0306242 0)
(5.18913 -0.0320282 0)
(5.19998 -0.0334914 0)
(5.21133 -0.0350153 0)
(5.22319 -0.0366019 0)
(5.23559 -0.0382526 0)
(5.24855 -0.039969 0)
(5.26209 -0.0417523 0)
(5.27624 -0.0436038 0)
(5.29101 -0.0455242 0)
(5.30644 -0.0475141 0)
(5.32254 -0.0495737 0)
(5.33934 -0.0517029 0)
(5.35686 -0.0539009 0)
(5.37513 -0.0561666 0)
(5.39416 -0.058498 0)
(5.41399 -0.0608927 0)
(5.43463 -0.0633471 0)
(5.45611 -0.0658569 0)
(5.47844 -0.0684166 0)
(5.50164 -0.0710199 0)
(5.52572 -0.0736588 0)
(5.5507 -0.0763243 0)
(5.57658 -0.0790057 0)
(5.60338 -0.0816913 0)
(5.63108 -0.0843673 0)
(5.6597 -0.0870189 0)
(5.68921 -0.0896295 0)
(5.71961 -0.0921813 0)
(5.75087 -0.0946552 0)
(5.78297 -0.0970312 0)
(5.81586 -0.0992883 0)
(5.84951 -0.101406 0)
(5.88387 -0.103361 0)
(5.91887 -0.105135 0)
(5.95446 -0.106707 0)
(5.99056 -0.108059 0)
(6.02709 -0.109174 0)
(6.06396 -0.110037 0)
(6.10109 -0.110638 0)
(6.13839 -0.110968 0)
(6.17576 -0.111022 0)
(6.2131 -0.110799 0)
(6.25031 -0.1103 0)
(6.28731 -0.109531 0)
(6.32399 -0.1085 0)
(6.36028 -0.107219 0)
(6.39608 -0.105701 0)
(6.43131 -0.103963 0)
(6.46591 -0.102022 0)
(6.49981 -0.0998969 0)
(6.53294 -0.0976076 0)
(6.56527 -0.0951746 0)
(6.59673 -0.092618 0)
(6.6273 -0.0899582 0)
(6.65694 -0.0872149 0)
(6.68563 -0.0844073 0)
(6.71336 -0.0815534 0)
(6.7401 -0.0786706 0)
(6.76587 -0.0757746 0)
(6.79065 -0.0728802 0)
(6.81445 -0.0700006 0)
(6.83728 -0.0671479 0)
(6.85915 -0.0643327 0)
(6.88008 -0.0615645 0)
(6.90009 -0.0588513 0)
(6.91919 -0.0562002 0)
(6.93741 -0.0536172 0)
(6.95477 -0.051107 0)
(6.97131 -0.0486736 0)
(6.98705 -0.04632 0)
(7.00201 -0.0440484 0)
(7.01622 -0.0418603 0)
(7.02972 -0.0397564 0)
(7.04254 -0.0377367 0)
(7.05469 -0.0358009 0)
(7.06622 -0.0339478 0)
(7.07714 -0.0321763 0)
(7.08748 -0.0304845 0)
(7.09728 -0.0288706 0)
(7.10656 -0.027332 0)
(7.11533 -0.0258668 0)
(7.12364 -0.0244721 0)
(7.13149 -0.0231458 0)
(7.13891 -0.0218848 0)
(7.14593 -0.020687 0)
(7.15257 -0.0195493 0)
(7.15883 -0.0184696 0)
(7.16475 -0.0174449 0)
(7.17034 -0.0164732 0)
(7.17562 -0.0155514 0)
(7.1806 -0.0146779 0)
(7.1853 -0.0138496 0)
(7.18973 -0.013065 0)
(7.19392 -0.0123214 0)
(7.19786 -0.0116174 0)
(7.20158 -0.0109503 0)
(7.20508 -0.0103193 0)
(7.20838 -0.00972155 0)
(7.21149 -0.00915653 0)
(7.21442 -0.00862152 0)
(7.21718 -0.00811612 0)
(7.21977 -0.00763763 0)
(7.22222 -0.00718591 0)
(7.22451 -0.00675819 0)
(7.22667 -0.00635466 0)
(7.2287 -0.00597246 0)
(7.23061 -0.00561211 0)
(7.2324 -0.00527068 0)
(7.23408 -0.004949 0)
(7.23566 -0.00464401 0)
(7.23714 -0.00435682 0)
(7.23853 -0.00408421 0)
(7.23984 -0.00382754 0)
(7.24106 -0.00358341 0)
(7.2422 -0.00335345 0)
(7.24327 -0.0031341 0)
(7.24427 -0.00292732 0)
(7.2452 -0.00272941 0)
(7.24606 -0.00254276 0)
(7.24687 -0.00236357 0)
(7.24761 -0.00219474 0)
(7.2483 -0.00203233 0)
(7.24894 -0.0018798 0)
(7.24953 -0.00173303 0)
(7.25007 -0.00159599 0)
(7.25056 -0.0014643 0)
(7.25102 -0.00134235 0)
(7.25143 -0.00122542 0)
(7.2518 -0.00111824 0)
(7.25214 -0.00101561 0)
(7.25245 -0.000922581 0)
(7.25272 -0.000833443 0)
(7.25297 -0.000753536 0)
(7.25319 -0.000676645 0)
(7.25339 -0.00060847 0)
(7.25356 -0.000542338 0)
(7.25371 -0.000484419 0)
(7.25385 -0.000427647 0)
(7.25396 -0.000378785 0)
(7.25406 -0.000330459 0)
(7.25414 -0.000290104 0)
(7.25421 -0.00025006 0)
(7.25426 -0.000218459 0)
(7.25431 -0.000187359 0)
(7.25434 -0.000165526 0)
(7.25436 -0.000144631 0)
(7.25438 -0.000133934 0)
(7.2544 -0.000124578 0)
(7.2544 -0.000126271 0)
(7.25441 -0.000129437 0)
(7.2544 -0.000144786 0)
(7.25441 -0.000161176 0)
(7.25441 -0.000191336 0)
(7.25448 -0.000214134 0)
(7.25445 -0.00028356 0)
(5.00002 -0.000366841 0)
(5.00015 -0.00110067 0)
(5.00044 -0.00183509 0)
(5.00089 -0.00257058 0)
(5.00148 -0.00330762 0)
(5.00221 -0.00404671 0)
(5.00309 -0.00478845 0)
(5.00412 -0.00553348 0)
(5.0053 -0.00628256 0)
(5.00663 -0.00703654 0)
(5.0081 -0.00779638 0)
(5.00973 -0.00856314 0)
(5.01151 -0.009338 0)
(5.01344 -0.0101223 0)
(5.01553 -0.0109173 0)
(5.01777 -0.0117247 0)
(5.02018 -0.0125461 0)
(5.02274 -0.0133831 0)
(5.02548 -0.0142377 0)
(5.02838 -0.0151118 0)
(5.03145 -0.0160074 0)
(5.03471 -0.0169268 0)
(5.03814 -0.0178721 0)
(5.04176 -0.0188458 0)
(5.04558 -0.0198503 0)
(5.0496 -0.0208881 0)
(5.05382 -0.0219619 0)
(5.05825 -0.0230743 0)
(5.06291 -0.0242281 0)
(5.0678 -0.025426 0)
(5.07292 -0.0266712 0)
(5.0783 -0.0279664 0)
(5.08393 -0.0293147 0)
(5.08984 -0.0307192 0)
(5.09602 -0.032183 0)
(5.1025 -0.0337093 0)
(5.10928 -0.0353015 0)
(5.11638 -0.0369626 0)
(5.12382 -0.038696 0)
(5.1316 -0.0405051 0)
(5.13975 -0.0423932 0)
(5.14828 -0.0443637 0)
(5.1572 -0.0464198 0)
(5.16654 -0.048565 0)
(5.17631 -0.0508026 0)
(5.18653 -0.0531357 0)
(5.19723 -0.0555676 0)
(5.20841 -0.0581013 0)
(5.2201 -0.0607399 0)
(5.23233 -0.063486 0)
(5.24512 -0.0663424 0)
(5.25848 -0.0693112 0)
(5.27245 -0.0723946 0)
(5.28704 -0.0755942 0)
(5.30228 -0.0789111 0)
(5.3182 -0.0823461 0)
(5.33482 -0.085899 0)
(5.35216 -0.0895691 0)
(5.37026 -0.0933549 0)
(5.38912 -0.0972534 0)
(5.40879 -0.101261 0)
(5.42928 -0.105372 0)
(5.45062 -0.10958 0)
(5.47283 -0.113876 0)
(5.49592 -0.118251 0)
(5.51993 -0.12269 0)
(5.54485 -0.12718 0)
(5.57071 -0.131703 0)
(5.59752 -0.136239 0)
(5.62528 -0.140766 0)
(5.65398 -0.145258 0)
(5.68364 -0.149687 0)
(5.71422 -0.154024 0)
(5.74572 -0.158234 0)
(5.77811 -0.162285 0)
(5.81136 -0.166139 0)
(5.84542 -0.169759 0)
(5.88024 -0.173108 0)
(5.91577 -0.17615 0)
(5.95193 -0.178848 0)
(5.98865 -0.181171 0)
(6.02584 -0.183089 0)
(6.06342 -0.184576 0)
(6.10127 -0.185612 0)
(6.13932 -0.186182 0)
(6.17743 -0.186278 0)
(6.21553 -0.185897 0)
(6.25348 -0.185042 0)
(6.2912 -0.183723 0)
(6.32858 -0.181956 0)
(6.36553 -0.17976 0)
(6.40195 -0.177161 0)
(6.43776 -0.174187 0)
(6.47288 -0.170869 0)
(6.50725 -0.167241 0)
(6.54081 -0.163337 0)
(6.57349 -0.159193 0)
(6.60527 -0.154845 0)
(6.63609 -0.150326 0)
(6.66593 -0.145671 0)
(6.69478 -0.140912 0)
(6.72261 -0.13608 0)
(6.74942 -0.131205 0)
(6.7752 -0.126312 0)
(6.79997 -0.121427 0)
(6.82371 -0.116572 0)
(6.84646 -0.111768 0)
(6.86822 -0.107032 0)
(6.88902 -0.10238 0)
(6.90887 -0.0978253 0)
(6.9278 -0.09338 0)
(6.94583 -0.0890531 0)
(6.963 -0.0848524 0)
(6.97933 -0.0807839 0)
(6.99485 -0.0768521 0)
(7.0096 -0.0730602 0)
(7.02359 -0.06941 0)
(7.03687 -0.0659024 0)
(7.04946 -0.0625371 0)
(7.0614 -0.0593133 0)
(7.0727 -0.0562291 0)
(7.08341 -0.053282 0)
(7.09355 -0.0504691 0)
(7.10314 -0.0477869 0)
(7.11222 -0.0452316 0)
(7.12081 -0.0427991 0)
(7.12893 -0.0404851 0)
(7.13661 -0.0382852 0)
(7.14386 -0.0361948 0)
(7.15072 -0.0342095 0)
(7.15719 -0.0323248 0)
(7.16331 -0.0305363 0)
(7.16909 -0.0288397 0)
(7.17454 -0.0272307 0)
(7.17969 -0.0257052 0)
(7.18455 -0.0242593 0)
(7.18913 -0.0228889 0)
(7.19345 -0.0215905 0)
(7.19753 -0.0203601 0)
(7.20137 -0.0191947 0)
(7.20499 -0.0180907 0)
(7.20841 -0.0170453 0)
(7.21162 -0.0160555 0)
(7.21465 -0.0151187 0)
(7.2175 -0.0142323 0)
(7.22018 -0.013394 0)
(7.2227 -0.0126014 0)
(7.22508 -0.0118524 0)
(7.22731 -0.0111446 0)
(7.22941 -0.010476 0)
(7.23138 -0.00984421 0)
(7.23323 -0.00924736 0)
(7.23497 -0.00868299 0)
(7.23661 -0.00814946 0)
(7.23814 -0.00764436 0)
(7.23958 -0.00716633 0)
(7.24093 -0.00671311 0)
(7.2422 -0.00628359 0)
(7.24338 -0.00587571 0)
(7.24449 -0.00548862 0)
(7.24553 -0.0051205 0)
(7.24649 -0.00477072 0)
(7.2474 -0.00443769 0)
(7.24824 -0.00412104 0)
(7.24902 -0.00381942 0)
(7.24974 -0.00353275 0)
(7.25041 -0.00325988 0)
(7.25102 -0.00300104 0)
(7.25159 -0.00275524 0)
(7.25211 -0.00252299 0)
(7.25258 -0.00230331 0)
(7.25302 -0.00209691 0)
(7.25341 -0.00190272 0)
(7.25377 -0.00172145 0)
(7.25409 -0.00155187 0)
(7.25438 -0.00139455 0)
(7.25463 -0.00124806 0)
(7.25487 -0.00111277 0)
(7.25507 -0.000987085 0)
(7.25526 -0.000871263 0)
(7.25542 -0.000763685 0)
(7.25556 -0.000664601 0)
(7.25568 -0.000572559 0)
(7.25579 -0.000487989 0)
(7.25587 -0.000409759 0)
(7.25595 -0.000338613 0)
(7.256 -0.000273777 0)
(7.25605 -0.000216372 0)
(7.25608 -0.000165932 0)
(7.2561 -0.00012391 0)
(7.25611 -8.99725e-05 0)
(7.25611 -6.57784e-05 0)
(7.2561 -5.09673e-05 0)
(7.25609 -4.72686e-05 0)
(7.25608 -5.41931e-05 0)
(7.25606 -7.36894e-05 0)
(7.25604 -0.00010422 0)
(7.25602 -0.000151357 0)
(7.25608 -0.00019588 0)
(7.25602 -0.000316641 0)
(5.00002 -0.000512426 0)
(5.00015 -0.00153743 0)
(5.00044 -0.00256317 0)
(5.00088 -0.00359021 0)
(5.00147 -0.00461913 0)
(5.0022 -0.00565055 0)
(5.00307 -0.00668524 0)
(5.00409 -0.00772407 0)
(5.00526 -0.00876805 0)
(5.00658 -0.00981835 0)
(5.00804 -0.0108763 0)
(5.00965 -0.0119433 0)
(5.0114 -0.013021 0)
(5.01331 -0.0141113 0)
(5.01537 -0.0152161 0)
(5.01759 -0.0163375 0)
(5.01996 -0.0174777 0)
(5.02249 -0.0186394 0)
(5.02518 -0.019825 0)
(5.02803 -0.0210373 0)
(5.03105 -0.0222792 0)
(5.03425 -0.0235537 0)
(5.03762 -0.0248641 0)
(5.04117 -0.0262135 0)
(5.04491 -0.0276055 0)
(5.04885 -0.0290437 0)
(5.05298 -0.0305316 0)
(5.05732 -0.0320731 0)
(5.06188 -0.0336721 0)
(5.06666 -0.0353325 0)
(5.07167 -0.0370584 0)
(5.07692 -0.0388541 0)
(5.08243 -0.0407237 0)
(5.08819 -0.0426717 0)
(5.09423 -0.0447024 0)
(5.10056 -0.0468204 0)
(5.10718 -0.0490301 0)
(5.11412 -0.0513363 0)
(5.12138 -0.0537436 0)
(5.12898 -0.0562566 0)
(5.13694 -0.0588803 0)
(5.14527 -0.0616192 0)
(5.15398 -0.0644783 0)
(5.16311 -0.0674623 0)
(5.17265 -0.0705758 0)
(5.18265 -0.0738237 0)
(5.1931 -0.0772106 0)
(5.20404 -0.0807408 0)
(5.21548 -0.0844189 0)
(5.22746 -0.088249 0)
(5.23998 -0.0922349 0)
(5.25307 -0.0963803 0)
(5.26677 -0.100689 0)
(5.28108 -0.105162 0)
(5.29605 -0.109803 0)
(5.31168 -0.114614 0)
(5.32802 -0.119594 0)
(5.34509 -0.124744 0)
(5.36291 -0.130061 0)
(5.38151 -0.135544 0)
(5.40093 -0.141187 0)
(5.42118 -0.146983 0)
(5.4423 -0.152926 0)
(5.46431 -0.159002 0)
(5.48723 -0.1652 0)
(5.5111 -0.171501 0)
(5.53593 -0.177887 0)
(5.56173 -0.184333 0)
(5.58854 -0.190811 0)
(5.61635 -0.197291 0)
(5.64518 -0.203737 0)
(5.67502 -0.210107 0)
(5.70587 -0.21636 0)
(5.73772 -0.222446 0)
(5.77055 -0.228315 0)
(5.80432 -0.233912 0)
(5.839 -0.239182 0)
(5.87454 -0.244069 0)
(5.91086 -0.248517 0)
(5.94791 -0.25247 0)
(5.98559 -0.25588 0)
(6.02381 -0.258699 0)
(6.06247 -0.260889 0)
(6.10146 -0.262418 0)
(6.14066 -0.263263 0)
(6.17995 -0.263411 0)
(6.21921 -0.262858 0)
(6.25832 -0.26161 0)
(6.29717 -0.259683 0)
(6.33563 -0.257102 0)
(6.37359 -0.253897 0)
(6.41097 -0.250107 0)
(6.44766 -0.245775 0)
(6.48359 -0.240951 0)
(6.51868 -0.235683 0)
(6.55287 -0.230026 0)
(6.5861 -0.224031 0)
(6.61833 -0.217752 0)
(6.64952 -0.21124 0)
(6.67966 -0.204544 0)
(6.70873 -0.197713 0)
(6.7367 -0.19079 0)
(6.76359 -0.183816 0)
(6.78938 -0.176831 0)
(6.8141 -0.169868 0)
(6.83775 -0.16296 0)
(6.86036 -0.156134 0)
(6.88194 -0.149415 0)
(6.90252 -0.142825 0)
(6.92212 -0.136382 0)
(6.94077 -0.130102 0)
(6.95852 -0.123998 0)
(6.97537 -0.11808 0)
(6.99138 -0.112356 0)
(7.00657 -0.106831 0)
(7.02098 -0.101509 0)
(7.03464 -0.0963929 0)
(7.04757 -0.0914818 0)
(7.05983 -0.086775 0)
(7.07142 -0.0822706 0)
(7.0824 -0.0779652 0)
(7.09279 -0.073855 0)
(7.10261 -0.069935 0)
(7.1119 -0.0662001 0)
(7.12068 -0.0626445 0)
(7.12898 -0.0592621 0)
(7.13682 -0.0560465 0)
(7.14423 -0.0529912 0)
(7.15123 -0.0500896 0)
(7.15784 -0.0473351 0)
(7.16409 -0.0447212 0)
(7.16998 -0.0422414 0)
(7.17554 -0.0398895 0)
(7.1808 -0.0376596 0)
(7.18575 -0.0355458 0)
(7.19042 -0.0335426 0)
(7.19483 -0.0316447 0)
(7.19899 -0.0298469 0)
(7.20291 -0.0281442 0)
(7.2066 -0.0265321 0)
(7.21008 -0.0250057 0)
(7.21336 -0.0235608 0)
(7.21645 -0.0221932 0)
(7.21935 -0.0208991 0)
(7.22208 -0.0196745 0)
(7.22466 -0.0185164 0)
(7.22707 -0.0174214 0)
(7.22935 -0.0163868 0)
(7.23148 -0.0154094 0)
(7.23349 -0.0144869 0)
(7.23538 -0.0136162 0)
(7.23716 -0.0127948 0)
(7.23882 -0.0120198 0)
(7.24039 -0.0112883 0)
(7.24186 -0.0105974 0)
(7.24324 -0.00994442 0)
(7.24453 -0.00932628 0)
(7.24574 -0.00874058 0)
(7.24688 -0.00818455 0)
(7.24794 -0.00765616 0)
(7.24894 -0.00715307 0)
(7.24987 -0.00667372 0)
(7.25073 -0.00621633 0)
(7.25154 -0.0057798 0)
(7.25228 -0.00536293 0)
(7.25297 -0.00496508 0)
(7.25361 -0.00458551 0)
(7.25419 -0.00422398 0)
(7.25473 -0.00388013 0)
(7.25522 -0.00355399 0)
(7.25566 -0.00324535 0)
(7.25606 -0.00295441 0)
(7.25642 -0.00268084 0)
(7.25675 -0.00242485 0)
(7.25704 -0.00218579 0)
(7.2573 -0.00196366 0)
(7.25753 -0.00175741 0)
(7.25774 -0.00156675 0)
(7.25792 -0.00139028 0)
(7.25808 -0.00122748 0)
(7.25823 -0.00107689 0)
(7.25835 -0.000937918 0)
(7.25845 -0.00080939 0)
(7.25854 -0.000690895 0)
(7.25861 -0.000581888 0)
(7.25867 -0.000482291 0)
(7.25871 -0.000392318 0)
(7.25874 -0.000312265 0)
(7.25875 -0.000243019 0)
(7.25875 -0.000185123 0)
(7.25874 -0.000139895 0)
(7.25872 -0.000107887 0)
(7.25869 -9.05615e-05 0)
(7.25866 -8.8225e-05 0)
(7.25862 -0.000102198 0)
(7.25856 -0.00013278 0)
(7.25852 -0.000179817 0)
(7.25847 -0.000249207 0)
(7.2585 -0.000315334 0)
(7.25839 -0.000494907 0)
(5.00002 -0.000657043 0)
(5.00015 -0.00197123 0)
(5.00044 -0.00328617 0)
(5.00087 -0.0046024 0)
(5.00146 -0.00592052 0)
(5.00218 -0.00724123 0)
(5.00305 -0.00856538 0)
(5.00406 -0.00989401 0)
(5.00522 -0.0112283 0)
(5.00652 -0.0125698 0)
(5.00796 -0.01392 0)
(5.00955 -0.0152808 0)
(5.01128 -0.0166542 0)
(5.01316 -0.0180427 0)
(5.01519 -0.0194487 0)
(5.01736 -0.020875 0)
(5.01969 -0.0223246 0)
(5.02217 -0.0238006 0)
(5.0248 -0.0253065 0)
(5.02759 -0.0268458 0)
(5.03055 -0.0284223 0)
(5.03366 -0.03004 0)
(5.03695 -0.0317029 0)
(5.04041 -0.0334155 0)
(5.04406 -0.0351821 0)
(5.04788 -0.0370073 0)
(5.0519 -0.0388959 0)
(5.05612 -0.0408528 0)
(5.06054 -0.0428831 0)
(5.06518 -0.0449918 0)
(5.07004 -0.0471842 0)
(5.07513 -0.0494658 0)
(5.08046 -0.0518421 0)
(5.08605 -0.0543187 0)
(5.0919 -0.0569014 0)
(5.09802 -0.0595958 0)
(5.10444 -0.062408 0)
(5.11115 -0.065344 0)
(5.11818 -0.0684096 0)
(5.12554 -0.0716112 0)
(5.13324 -0.0749548 0)
(5.1413 -0.0784467 0)
(5.14974 -0.0820931 0)
(5.15858 -0.0859003 0)
(5.16783 -0.0898744 0)
(5.17752 -0.0940218 0)
(5.18765 -0.0983486 0)
(5.19826 -0.102861 0)
(5.20937 -0.107564 0)
(5.22099 -0.112465 0)
(5.23316 -0.117568 0)
(5.24589 -0.12288 0)
(5.25921 -0.128403 0)
(5.27315 -0.134144 0)
(5.28773 -0.140106 0)
(5.30298 -0.14629 0)
(5.31893 -0.152701 0)
(5.33562 -0.159337 0)
(5.35306 -0.166199 0)
(5.37129 -0.173284 0)
(5.39035 -0.180589 0)
(5.41025 -0.188106 0)
(5.43105 -0.195827 0)
(5.45276 -0.20374 0)
(5.47543 -0.211828 0)
(5.49908 -0.220072 0)
(5.52373 -0.228448 0)
(5.54943 -0.236926 0)
(5.57619 -0.245473 0)
(5.60403 -0.254048 0)
(5.63298 -0.262605 0)
(5.66304 -0.271091 0)
(5.69423 -0.279447 0)
(5.72652 -0.287609 0)
(5.75991 -0.295507 0)
(5.79438 -0.303064 0)
(5.82989 -0.310204 0)
(5.86639 -0.316845 0)
(5.90381 -0.322906 0)
(5.94208 -0.328309 0)
(5.9811 -0.332979 0)
(6.02076 -0.33685 0)
(6.06094 -0.339862 0)
(6.10152 -0.34197 0)
(6.14235 -0.34314 0)
(6.1833 -0.343352 0)
(6.22421 -0.342603 0)
(6.26495 -0.340902 0)
(6.30536 -0.338273 0)
(6.34533 -0.334753 0)
(6.38472 -0.330389 0)
(6.42342 -0.325239 0)
(6.46133 -0.319365 0)
(6.49835 -0.312837 0)
(6.53441 -0.305726 0)
(6.56945 -0.298107 0)
(6.6034 -0.290054 0)
(6.63623 -0.28164 0)
(6.66791 -0.272936 0)
(6.69842 -0.264009 0)
(6.72774 -0.254925 0)
(6.75587 -0.245742 0)
(6.78283 -0.236516 0)
(6.80861 -0.227296 0)
(6.83324 -0.218128 0)
(6.85674 -0.209052 0)
(6.87912 -0.200105 0)
(6.90043 -0.191316 0)
(6.92069 -0.182713 0)
(6.93994 -0.174319 0)
(6.95821 -0.166152 0)
(6.97554 -0.158228 0)
(6.99197 -0.15056 0)
(7.00753 -0.143155 0)
(7.02226 -0.13602 0)
(7.03621 -0.129159 0)
(7.0494 -0.122573 0)
(7.06187 -0.116261 0)
(7.07366 -0.110221 0)
(7.08481 -0.104448 0)
(7.09534 -0.0989377 0)
(7.10529 -0.093683 0)
(7.11469 -0.088677 0)
(7.12357 -0.0839119 0)
(7.13196 -0.0793794 0)
(7.13988 -0.0750711 0)
(7.14735 -0.0709781 0)
(7.15441 -0.0670917 0)
(7.16108 -0.0634031 0)
(7.16737 -0.0599035 0)
(7.1733 -0.0565843 0)
(7.1789 -0.0534369 0)
(7.18419 -0.050453 0)
(7.18917 -0.0476245 0)
(7.19388 -0.0449435 0)
(7.19831 -0.0424027 0)
(7.20249 -0.039995 0)
(7.20643 -0.0377138 0)
(7.21014 -0.0355528 0)
(7.21364 -0.0335063 0)
(7.21693 -0.0315686 0)
(7.22003 -0.0297343 0)
(7.22295 -0.0279985 0)
(7.22569 -0.0263562 0)
(7.22827 -0.0248025 0)
(7.2307 -0.0233331 0)
(7.23298 -0.0219436 0)
(7.23512 -0.0206302 0)
(7.23713 -0.0193888 0)
(7.23902 -0.0182166 0)
(7.2408 -0.0171097 0)
(7.24246 -0.0160655 0)
(7.24403 -0.0150804 0)
(7.2455 -0.0141515 0)
(7.24688 -0.0132753 0)
(7.24817 -0.0124485 0)
(7.24939 -0.0116672 0)
(7.25053 -0.0109282 0)
(7.2516 -0.0102275 0)
(7.25261 -0.0095623 0)
(7.25355 -0.00892901 0)
(7.25443 -0.00832523 0)
(7.25525 -0.00774838 0)
(7.25601 -0.00719683 0)
(7.25671 -0.00666905 0)
(7.25736 -0.00616422 0)
(7.25796 -0.00568182 0)
(7.25851 -0.00522169 0)
(7.259 -0.00478395 0)
(7.25945 -0.00436883 0)
(7.25986 -0.00397668 0)
(7.26022 -0.00360772 0)
(7.26055 -0.00326204 0)
(7.26083 -0.00293963 0)
(7.26109 -0.00263987 0)
(7.26131 -0.0023623 0)
(7.26151 -0.00210546 0)
(7.26168 -0.00186838 0)
(7.26184 -0.00164891 0)
(7.26197 -0.00144574 0)
(7.26208 -0.00125654 0)
(7.26218 -0.00108009 0)
(7.26226 -0.00091453 0)
(7.26233 -0.000759186 0)
(7.26238 -0.000613341 0)
(7.26242 -0.000477153 0)
(7.26244 -0.000351318 0)
(7.26244 -0.000236821 0)
(7.26243 -0.000135595 0)
(7.2624 -4.90894e-05 0)
(7.26236 2.00374e-05 0)
(7.26231 7.0455e-05 0)
(7.26225 9.94167e-05 0)
(7.26217 0.000106327 0)
(7.2621 8.88976e-05 0)
(7.26201 4.72013e-05 0)
(7.26193 -1.84514e-05 0)
(7.26183 -0.000114091 0)
(7.26183 -0.000204897 0)
(7.26164 -0.000431943 0)
(5.00002 -0.000800731 0)
(5.00015 -0.00240221 0)
(5.00043 -0.00400426 0)
(5.00087 -0.00560729 0)
(5.00145 -0.00721177 0)
(5.00217 -0.00881836 0)
(5.00303 -0.0104279 0)
(5.00403 -0.0120416 0)
(5.00517 -0.0136607 0)
(5.00646 -0.0152868 0)
(5.00788 -0.0169221 0)
(5.00944 -0.0185685 0)
(5.01115 -0.0202287 0)
(5.01299 -0.0219054 0)
(5.01498 -0.0236018 0)
(5.01711 -0.0253212 0)
(5.01938 -0.0270673 0)
(5.0218 -0.028844 0)
(5.02437 -0.0306554 0)
(5.02708 -0.032506 0)
(5.02995 -0.0344004 0)
(5.03298 -0.0363435 0)
(5.03616 -0.0383404 0)
(5.03951 -0.0403964 0)
(5.04303 -0.0425169 0)
(5.04673 -0.0447078 0)
(5.0506 -0.0469747 0)
(5.05466 -0.0493238 0)
(5.05892 -0.0517612 0)
(5.06338 -0.0542934 0)
(5.06805 -0.0569267 0)
(5.07294 -0.059668 0)
(5.07806 -0.0625241 0)
(5.08342 -0.0655018 0)
(5.08903 -0.0686083 0)
(5.09491 -0.0718508 0)
(5.10106 -0.0752366 0)
(5.10749 -0.0787732 0)
(5.11423 -0.0824681 0)
(5.12128 -0.0863288 0)
(5.12867 -0.0903632 0)
(5.1364 -0.0945789 0)
(5.14449 -0.0989838 0)
(5.15297 -0.103586 0)
(5.16185 -0.108393 0)
(5.17115 -0.113412 0)
(5.18088 -0.118653 0)
(5.19108 -0.124122 0)
(5.20176 -0.129827 0)
(5.21294 -0.135776 0)
(5.22466 -0.141976 0)
(5.23692 -0.148435 0)
(5.24977 -0.155158 0)
(5.26323 -0.162154 0)
(5.27732 -0.169426 0)
(5.29208 -0.17698 0)
(5.30753 -0.184821 0)
(5.32371 -0.19295 0)
(5.34065 -0.20137 0)
(5.35839 -0.210081 0)
(5.37696 -0.219078 0)
(5.3964 -0.228359 0)
(5.41675 -0.237914 0)
(5.43805 -0.247731 0)
(5.46034 -0.257796 0)
(5.48365 -0.268086 0)
(5.50803 -0.278575 0)
(5.53353 -0.289232 0)
(5.56016 -0.300014 0)
(5.58799 -0.310875 0)
(5.61702 -0.321758 0)
(5.64729 -0.332598 0)
(5.67883 -0.343321 0)
(5.71163 -0.353841 0)
(5.7457 -0.364066 0)
(5.78102 -0.373896 0)
(5.81757 -0.383223 0)
(5.8553 -0.391935 0)
(5.89414 -0.399917 0)
(5.934 -0.407058 0)
(5.97479 -0.41325 0)
(6.01636 -0.418395 0)
(6.05858 -0.422408 0)
(6.1013 -0.425222 0)
(6.14433 -0.426788 0)
(6.18749 -0.427081 0)
(6.23062 -0.426095 0)
(6.27353 -0.423848 0)
(6.31604 -0.420376 0)
(6.35801 -0.415736 0)
(6.39927 -0.409996 0)
(6.43971 -0.403238 0)
(6.47919 -0.395555 0)
(6.51763 -0.387043 0)
(6.55494 -0.377803 0)
(6.59105 -0.367936 0)
(6.62591 -0.357542 0)
(6.65949 -0.346719 0)
(6.69175 -0.335561 0)
(6.7227 -0.324155 0)
(6.75232 -0.312584 0)
(6.78062 -0.300924 0)
(6.80763 -0.289245 0)
(6.83336 -0.27761 0)
(6.85784 -0.266074 0)
(6.8811 -0.254688 0)
(6.90318 -0.243492 0)
(6.92411 -0.232526 0)
(6.94395 -0.221819 0)
(6.96272 -0.211397 0)
(6.98048 -0.201282 0)
(6.99727 -0.191491 0)
(7.01313 -0.182035 0)
(7.02811 -0.172924 0)
(7.04224 -0.164163 0)
(7.05559 -0.155755 0)
(7.06818 -0.147699 0)
(7.08005 -0.139993 0)
(7.09125 -0.132631 0)
(7.10182 -0.125608 0)
(7.11178 -0.118915 0)
(7.12118 -0.112543 0)
(7.13005 -0.10648 0)
(7.13841 -0.100717 0)
(7.14629 -0.0952418 0)
(7.15373 -0.0900426 0)
(7.16074 -0.0851078 0)
(7.16736 -0.0804258 0)
(7.17359 -0.0759852 0)
(7.17948 -0.0717751 0)
(7.18503 -0.0677845 0)
(7.19026 -0.0640031 0)
(7.19519 -0.0604207 0)
(7.19984 -0.0570275 0)
(7.20423 -0.0538135 0)
(7.20836 -0.0507696 0)
(7.21225 -0.0478866 0)
(7.21592 -0.0451559 0)
(7.21937 -0.0425693 0)
(7.22262 -0.0401194 0)
(7.22568 -0.0377991 0)
(7.22855 -0.0356022 0)
(7.23125 -0.0335229 0)
(7.23379 -0.0315558 0)
(7.23618 -0.0296958 0)
(7.23842 -0.0279381 0)
(7.24053 -0.0262777 0)
(7.2425 -0.0247099 0)
(7.24436 -0.02323 0)
(7.24609 -0.0218336 0)
(7.24772 -0.0205158 0)
(7.24925 -0.0192731 0)
(7.25068 -0.0181007 0)
(7.25203 -0.0169952 0)
(7.25329 -0.0159521 0)
(7.25448 -0.0149677 0)
(7.25559 -0.0140375 0)
(7.25664 -0.0131573 0)
(7.25763 -0.0123225 0)
(7.25855 -0.011529 0)
(7.25942 -0.0107723 0)
(7.26023 -0.0100489 0)
(7.26098 -0.00935532 0)
(7.26169 -0.00868918 0)
(7.26233 -0.00804841 0)
(7.26293 -0.0074323 0)
(7.26347 -0.00684035 0)
(7.26396 -0.00627337 0)
(7.2644 -0.0057321 0)
(7.26479 -0.00521831 0)
(7.26514 -0.00473319 0)
(7.26544 -0.00427856 0)
(7.26571 -0.00385514 0)
(7.26594 -0.00346393 0)
(7.26614 -0.00310432 0)
(7.26631 -0.0027759 0)
(7.26645 -0.00247644 0)
(7.26658 -0.002204 0)
(7.26669 -0.00195495 0)
(7.26678 -0.00172634 0)
(7.26687 -0.00151405 0)
(7.26694 -0.001315 0)
(7.267 -0.00112585 0)
(7.26704 -0.000944428 0)
(7.26707 -0.000769311 0)
(7.26708 -0.000599991 0)
(7.26707 -0.000437503 0)
(7.26705 -0.000283129 0)
(7.267 -0.000140132 0)
(7.26693 -1.09889e-05 0)
(7.26684 9.97035e-05 0)
(7.26674 0.000189351 0)
(7.26662 0.000253248 0)
(7.26649 0.000289747 0)
(7.26634 0.000295097 0)
(7.26619 0.000268715 0)
(7.26605 0.000210078 0)
(7.26589 0.000111426 0)
(7.26584 1.32215e-05 0)
(7.26563 -0.000261063 0)
(5.00002 -0.000943784 0)
(5.00015 -0.0028312 0)
(5.00043 -0.00471875 0)
(5.00087 -0.0066065 0)
(5.00144 -0.00849463 0)
(5.00216 -0.0103836 0)
(5.00301 -0.0122741 0)
(5.00401 -0.0141673 0)
(5.00514 -0.0160647 0)
(5.00641 -0.0179679 0)
(5.00781 -0.0198793 0)
(5.00935 -0.0218015 0)
(5.01103 -0.0237373 0)
(5.01284 -0.0256903 0)
(5.01478 -0.0276642 0)
(5.01686 -0.029663 0)
(5.01907 -0.0316912 0)
(5.02142 -0.0337535 0)
(5.02391 -0.0358549 0)
(5.02654 -0.0380008 0)
(5.02932 -0.0401968 0)
(5.03223 -0.0424488 0)
(5.0353 -0.0447627 0)
(5.03852 -0.0471451 0)
(5.0419 -0.0496024 0)
(5.04544 -0.0521415 0)
(5.04914 -0.0547692 0)
(5.05302 -0.0574929 0)
(5.05709 -0.0603198 0)
(5.06134 -0.0632575 0)
(5.06579 -0.0663137 0)
(5.07044 -0.0694963 0)
(5.07531 -0.0728133 0)
(5.0804 -0.0762731 0)
(5.08573 -0.0798839 0)
(5.0913 -0.0836542 0)
(5.09713 -0.0875929 0)
(5.10324 -0.0917086 0)
(5.10963 -0.0960104 0)
(5.11632 -0.100507 0)
(5.12332 -0.105208 0)
(5.13065 -0.110123 0)
(5.13833 -0.115261 0)
(5.14638 -0.120631 0)
(5.1548 -0.126244 0)
(5.16363 -0.132108 0)
(5.17288 -0.138234 0)
(5.18258 -0.144631 0)
(5.19274 -0.151309 0)
(5.20339 -0.158277 0)
(5.21455 -0.165546 0)
(5.22625 -0.173124 0)
(5.23852 -0.181021 0)
(5.25138 -0.189246 0)
(5.26486 -0.197807 0)
(5.27899 -0.206713 0)
(5.29382 -0.21597 0)
(5.30936 -0.225584 0)
(5.32567 -0.23556 0)
(5.34277 -0.245902 0)
(5.36071 -0.256611 0)
(5.37953 -0.267684 0)
(5.39927 -0.279117 0)
(5.42 -0.290902 0)
(5.44175 -0.303024 0)
(5.46457 -0.315465 0)
(5.48853 -0.328198 0)
(5.51367 -0.341191 0)
(5.54006 -0.354399 0)
(5.56773 -0.36777 0)
(5.59676 -0.381239 0)
(5.62718 -0.394728 0)
(5.65904 -0.408147 0)
(5.69237 -0.42139 0)
(5.72718 -0.434337 0)
(5.76349 -0.446857 0)
(5.80128 -0.458804 0)