/*--------------------------------*- C++ -*----------------------------------*\
  =========                 |
  \\      /  F ield         | OpenFOAM: The Open Source CFD Toolbox
   \\    /   O peration     | Website:  https://openfoam.org
    \\  /    A nd           | Version:  10
     \\/     M anipulation  |
\*---------------------------------------------------------------------------*/
FoamFile
{
    format      ascii;
    class       volScalarField;
    location    "2.05";
    object      p;
}
// * * * * * * * * * * * * * * * * * * * * * * * * * * * * * * * * * * * * * //

dimensions      [1 -1 -2 0 0 0 0];

internalField   nonuniform List<scalar> 
12225
(
1.70754e+07
1.70216e+07
1.69254e+07
1.67986e+07
1.66514e+07
1.64916e+07
1.63244e+07
1.61535e+07
1.59811e+07
1.58083e+07
1.56357e+07
1.54633e+07
1.52907e+07
1.51168e+07
1.49398e+07
1.47566e+07
1.45609e+07
1.43367e+07
1.70776e+07
1.70236e+07
1.6927e+07
1.67999e+07
1.66524e+07
1.64923e+07
1.63251e+07
1.61541e+07
1.59816e+07
1.58088e+07
1.56363e+07
1.5464e+07
1.52916e+07
1.51179e+07
1.49415e+07
1.47594e+07
1.45666e+07
1.43534e+07
1.70824e+07
1.70279e+07
1.69306e+07
1.68027e+07
1.66546e+07
1.64941e+07
1.63265e+07
1.61553e+07
1.59827e+07
1.58099e+07
1.56375e+07
1.54655e+07
1.52934e+07
1.51205e+07
1.49452e+07
1.47653e+07
1.45776e+07
1.43785e+07
1.70905e+07
1.70351e+07
1.69365e+07
1.68074e+07
1.66582e+07
1.64969e+07
1.63287e+07
1.61572e+07
1.59845e+07
1.58117e+07
1.56395e+07
1.54679e+07
1.52964e+07
1.51245e+07
1.4951e+07
1.47744e+07
1.45932e+07
1.44079e+07
1.71025e+07
1.70458e+07
1.69453e+07
1.68142e+07
1.66635e+07
1.6501e+07
1.6332e+07
1.616e+07
1.59871e+07
1.58144e+07
1.56424e+07
1.54713e+07
1.53008e+07
1.51303e+07
1.49592e+07
1.47866e+07
1.46124e+07
1.44393e+07
1.71192e+07
1.70606e+07
1.69574e+07
1.68237e+07
1.66708e+07
1.65066e+07
1.63365e+07
1.61638e+07
1.59906e+07
1.58179e+07
1.56463e+07
1.54759e+07
1.53066e+07
1.51379e+07
1.49696e+07
1.48016e+07
1.46345e+07
1.44716e+07
1.71416e+07
1.70804e+07
1.69735e+07
1.68361e+07
1.66802e+07
1.65139e+07
1.63423e+07
1.61688e+07
1.59951e+07
1.58225e+07
1.56513e+07
1.54818e+07
1.53139e+07
1.51474e+07
1.49823e+07
1.4819e+07
1.46588e+07
1.45045e+07
1.71712e+07
1.71063e+07
1.69942e+07
1.6852e+07
1.66922e+07
1.6523e+07
1.63496e+07
1.61749e+07
1.60008e+07
1.58282e+07
1.56575e+07
1.54891e+07
1.53228e+07
1.51588e+07
1.49972e+07
1.48387e+07
1.46846e+07
1.45375e+07
1.72094e+07
1.71394e+07
1.70205e+07
1.68718e+07
1.6707e+07
1.65342e+07
1.63584e+07
1.61823e+07
1.60076e+07
1.5835e+07
1.5665e+07
1.54977e+07
1.53333e+07
1.51719e+07
1.50139e+07
1.486e+07
1.47116e+07
1.45705e+07
1.72585e+07
1.71813e+07
1.7053e+07
1.6896e+07
1.67247e+07
1.65474e+07
1.63687e+07
1.6191e+07
1.60156e+07
1.5843e+07
1.56737e+07
1.55078e+07
1.53454e+07
1.51868e+07
1.50324e+07
1.48829e+07
1.47395e+07
1.46035e+07
1.73213e+07
1.72338e+07
1.70928e+07
1.69249e+07
1.67455e+07
1.65628e+07
1.63807e+07
1.6201e+07
1.60247e+07
1.58522e+07
1.56836e+07
1.55192e+07
1.53589e+07
1.52031e+07
1.50522e+07
1.49068e+07
1.47679e+07
1.46364e+07
1.73952e+07
1.72938e+07
1.71367e+07
1.69558e+07
1.67674e+07
1.65787e+07
1.63928e+07
1.62111e+07
1.60339e+07
1.58615e+07
1.56937e+07
1.55307e+07
1.53724e+07
1.52192e+07
1.50714e+07
1.49295e+07
1.47942e+07
1.46662e+07
1.74862e+07
1.73649e+07
1.71868e+07
1.69901e+07
1.67909e+07
1.65955e+07
1.64056e+07
1.62217e+07
1.60436e+07
1.58713e+07
1.57043e+07
1.55428e+07
1.53866e+07
1.52359e+07
1.50911e+07
1.49524e+07
1.48204e+07
1.46956e+07
1.76207e+07
1.74639e+07
1.72525e+07
1.70328e+07
1.68193e+07
1.66153e+07
1.64204e+07
1.6234e+07
1.6055e+07
1.58829e+07
1.5717e+07
1.55572e+07
1.54034e+07
1.52556e+07
1.51139e+07
1.49787e+07
1.48501e+07
1.47284e+07
1.78302e+07
1.76015e+07
1.73354e+07
1.70829e+07
1.68509e+07
1.66366e+07
1.64363e+07
1.62472e+07
1.60675e+07
1.58958e+07
1.57315e+07
1.55739e+07
1.54228e+07
1.52781e+07
1.51398e+07
1.50081e+07
1.4883e+07
1.47645e+07
1.81844e+07
1.77851e+07
1.74279e+07
1.71323e+07
1.68795e+07
1.66549e+07
1.64497e+07
1.62589e+07
1.60792e+07
1.59088e+07
1.57466e+07
1.55917e+07
1.54438e+07
1.53027e+07
1.51681e+07
1.504e+07
1.49184e+07
1.48032e+07
1.8871e+07
1.79692e+07
1.74875e+07
1.71546e+07
1.68888e+07
1.66598e+07
1.64538e+07
1.6264e+07
1.60865e+07
1.5919e+07
1.57601e+07
1.56089e+07
1.54649e+07
1.53277e+07
1.51971e+07
1.50729e+07
1.4955e+07
1.48431e+07
1.80253e+07
1.7692e+07
1.73684e+07
1.70902e+07
1.68485e+07
1.66331e+07
1.64364e+07
1.6254e+07
1.60828e+07
1.59211e+07
1.57677e+07
1.56218e+07
1.54828e+07
1.53504e+07
1.52244e+07
1.51044e+07
1.49904e+07
1.4882e+07
1.74589e+07
1.73231e+07
1.71369e+07
1.69402e+07
1.67476e+07
1.65632e+07
1.63878e+07
1.62208e+07
1.60616e+07
1.59098e+07
1.57647e+07
1.56261e+07
1.54937e+07
1.53672e+07
1.52465e+07
1.51313e+07
1.50215e+07
1.49169e+07
1.71363e+07
1.70589e+07
1.69358e+07
1.67904e+07
1.66363e+07
1.64805e+07
1.63263e+07
1.61757e+07
1.60294e+07
1.5888e+07
1.57515e+07
1.56202e+07
1.54941e+07
1.5373e+07
1.52571e+07
1.51461e+07
1.50399e+07
1.49386e+07
1.69522e+07
1.68967e+07
1.68025e+07
1.66846e+07
1.65536e+07
1.64164e+07
1.62771e+07
1.61383e+07
1.60016e+07
1.58679e+07
1.5738e+07
1.56121e+07
1.54906e+07
1.53735e+07
1.5261e+07
1.5153e+07
1.50495e+07
1.49504e+07
1.68305e+07
1.67859e+07
1.67076e+07
1.66063e+07
1.64904e+07
1.6366e+07
1.62375e+07
1.61075e+07
1.5978e+07
1.58504e+07
1.57254e+07
1.56038e+07
1.54859e+07
1.53719e+07
1.5262e+07
1.51563e+07
1.50548e+07
1.49574e+07
1.67482e+07
1.67097e+07
1.66408e+07
1.65498e+07
1.64437e+07
1.63282e+07
1.62072e+07
1.60835e+07
1.59594e+07
1.58362e+07
1.5715e+07
1.55966e+07
1.54813e+07
1.53696e+07
1.52617e+07
1.51578e+07
1.50577e+07
1.49617e+07
1.66922e+07
1.66573e+07
1.65942e+07
1.65098e+07
1.64103e+07
1.63007e+07
1.61849e+07
1.60657e+07
1.59454e+07
1.58254e+07
1.57069e+07
1.55907e+07
1.54775e+07
1.53675e+07
1.5261e+07
1.51583e+07
1.50593e+07
1.49642e+07
1.66544e+07
1.66217e+07
1.65622e+07
1.64821e+07
1.63869e+07
1.62813e+07
1.6169e+07
1.60529e+07
1.59352e+07
1.58175e+07
1.57009e+07
1.55863e+07
1.54744e+07
1.53656e+07
1.52602e+07
1.51583e+07
1.50601e+07
1.49656e+07
1.66292e+07
1.65979e+07
1.65408e+07
1.64634e+07
1.63709e+07
1.6268e+07
1.61581e+07
1.60441e+07
1.59281e+07
1.58119e+07
1.56966e+07
1.55832e+07
1.54722e+07
1.53642e+07
1.52595e+07
1.51582e+07
1.50605e+07
1.49665e+07
1.66131e+07
1.65827e+07
1.65269e+07
1.64512e+07
1.63606e+07
1.62593e+07
1.61509e+07
1.60382e+07
1.59234e+07
1.58082e+07
1.56937e+07
1.5581e+07
1.54707e+07
1.53632e+07
1.52589e+07
1.5158e+07
1.50607e+07
1.4967e+07
1.66033e+07
1.65734e+07
1.65185e+07
1.64438e+07
1.63542e+07
1.62539e+07
1.61465e+07
1.60346e+07
1.59205e+07
1.58059e+07
1.56919e+07
1.55796e+07
1.54697e+07
1.53625e+07
1.52585e+07
1.51579e+07
1.50608e+07
1.49672e+07
1.6598e+07
1.65684e+07
1.65139e+07
1.64398e+07
1.63508e+07
1.6251e+07
1.6144e+07
1.60326e+07
1.59189e+07
1.58046e+07
1.56909e+07
1.55789e+07
1.54691e+07
1.53621e+07
1.52583e+07
1.51578e+07
1.50608e+07
1.49673e+07
1.65958e+07
1.65663e+07
1.65121e+07
1.64382e+07
1.63494e+07
1.62498e+07
1.61431e+07
1.60318e+07
1.59182e+07
1.58041e+07
1.56905e+07
1.55786e+07
1.54689e+07
1.5362e+07
1.52582e+07
1.51577e+07
1.50608e+07
1.49673e+07
1.21581e+07
1.21568e+07
1.21541e+07
1.215e+07
1.21445e+07
1.21375e+07
1.21291e+07
1.21191e+07
1.21076e+07
1.20945e+07
1.20798e+07
1.20634e+07
1.20454e+07
1.20256e+07
1.20042e+07
1.19809e+07
1.19558e+07
1.19289e+07
1.19e+07
1.18691e+07
1.18362e+07
1.18011e+07
1.17638e+07
1.17242e+07
1.16821e+07
1.16374e+07
1.15899e+07
1.15393e+07
1.14852e+07
1.14274e+07
1.13651e+07
1.12976e+07
1.12237e+07
1.11417e+07
1.10487e+07
1.09393e+07
1.08012e+07
1.07506e+07
1.07458e+07
1.07414e+07
1.07372e+07
1.07333e+07
1.07295e+07
1.07259e+07
1.07223e+07
1.07189e+07
1.07155e+07
1.07122e+07
1.0709e+07
1.07058e+07
1.07027e+07
1.06997e+07
1.06966e+07
1.06937e+07
1.06907e+07
1.06878e+07
1.06849e+07
1.06821e+07
1.06793e+07
1.06765e+07
1.06737e+07
1.0671e+07
1.06682e+07
1.06655e+07
1.06628e+07
1.06601e+07
1.06574e+07
1.06548e+07
1.06521e+07
1.06494e+07
1.06468e+07
1.06441e+07
1.06415e+07
1.06388e+07
1.06362e+07
1.06336e+07
1.06309e+07
1.06283e+07
1.06256e+07
1.0623e+07
1.06203e+07
1.06177e+07
1.0615e+07
1.06123e+07
1.06096e+07
1.06069e+07
1.06042e+07
1.06015e+07
1.05988e+07
1.05961e+07
1.05933e+07
1.05906e+07
1.05878e+07
1.0585e+07
1.05822e+07
1.05794e+07
1.05766e+07
1.05738e+07
1.05709e+07
1.05681e+07
1.05652e+07
1.05623e+07
1.05593e+07
1.05564e+07
1.05535e+07
1.05505e+07
1.05475e+07
1.05445e+07
1.05414e+07
1.05384e+07
1.05353e+07
1.05322e+07
1.05291e+07
1.0526e+07
1.05228e+07
1.05196e+07
1.05164e+07
1.05132e+07
1.05099e+07
1.05067e+07
1.05034e+07
1.05e+07
1.04967e+07
1.04933e+07
1.04899e+07
1.04865e+07
1.04831e+07
1.04796e+07
1.04761e+07
1.04726e+07
1.0469e+07
1.04654e+07
1.04618e+07
1.04582e+07
1.04546e+07
1.04509e+07
1.04471e+07
1.04434e+07
1.04396e+07
1.04358e+07
1.0432e+07
1.04281e+07
1.04243e+07
1.04203e+07
1.04164e+07
1.04124e+07
1.04084e+07
1.04043e+07
1.04003e+07
1.03962e+07
1.0392e+07
1.03879e+07
1.03837e+07
1.03794e+07
1.03752e+07
1.03709e+07
1.03665e+07
1.03622e+07
1.03578e+07
1.03533e+07
1.03489e+07
1.03444e+07
1.03398e+07
1.03353e+07
1.03307e+07
1.0326e+07
1.03213e+07
1.03166e+07
1.03119e+07
1.03071e+07
1.03023e+07
1.02974e+07
1.02926e+07
1.02876e+07
1.02827e+07
1.02777e+07
1.02728e+07
1.02678e+07
1.02628e+07
1.02579e+07
1.21634e+07
1.21621e+07
1.21593e+07
1.21553e+07
1.21497e+07
1.21427e+07
1.21343e+07
1.21243e+07
1.21127e+07
1.20996e+07
1.20848e+07
1.20685e+07
1.20504e+07
1.20307e+07
1.20092e+07
1.1986e+07
1.19609e+07
1.19341e+07
1.19053e+07
1.18746e+07
1.18419e+07
1.18071e+07
1.17701e+07
1.17308e+07
1.16891e+07
1.16449e+07
1.15979e+07
1.1548e+07
1.14948e+07
1.14381e+07
1.13775e+07
1.13124e+07
1.12422e+07
1.11662e+07
1.10836e+07
1.09938e+07
1.08977e+07
1.08001e+07
1.07448e+07
1.07407e+07
1.07367e+07
1.07328e+07
1.07291e+07
1.07255e+07
1.0722e+07
1.07186e+07
1.07153e+07
1.0712e+07
1.07088e+07
1.07057e+07
1.07026e+07
1.06995e+07
1.06965e+07
1.06935e+07
1.06906e+07
1.06877e+07
1.06849e+07
1.0682e+07
1.06792e+07
1.06764e+07
1.06736e+07
1.06709e+07
1.06682e+07
1.06655e+07
1.06628e+07
1.06601e+07
1.06574e+07
1.06547e+07
1.06521e+07
1.06494e+07
1.06467e+07
1.06441e+07
1.06415e+07
1.06388e+07
1.06362e+07
1.06335e+07
1.06309e+07
1.06282e+07
1.06256e+07
1.06229e+07
1.06203e+07
1.06176e+07
1.0615e+07
1.06123e+07
1.06096e+07
1.06069e+07
1.06042e+07
1.06015e+07
1.05988e+07
1.05961e+07
1.05933e+07
1.05906e+07
1.05878e+07
1.0585e+07
1.05822e+07
1.05794e+07
1.05766e+07
1.05738e+07
1.05709e+07
1.0568e+07
1.05652e+07
1.05623e+07
1.05593e+07
1.05564e+07
1.05534e+07
1.05505e+07
1.05475e+07
1.05445e+07
1.05414e+07
1.05384e+07
1.05353e+07
1.05322e+07
1.05291e+07
1.0526e+07
1.05228e+07
1.05196e+07
1.05164e+07
1.05132e+07
1.05099e+07
1.05067e+07
1.05034e+07
1.05e+07
1.04967e+07
1.04933e+07
1.04899e+07
1.04865e+07
1.04831e+07
1.04796e+07
1.04761e+07
1.04726e+07
1.0469e+07
1.04654e+07
1.04618e+07
1.04582e+07
1.04545e+07
1.04509e+07
1.04471e+07
1.04434e+07
1.04396e+07
1.04358e+07
1.0432e+07
1.04281e+07
1.04242e+07
1.04203e+07
1.04164e+07
1.04124e+07
1.04084e+07
1.04043e+07
1.04003e+07
1.03962e+07
1.0392e+07
1.03879e+07
1.03837e+07
1.03794e+07
1.03752e+07
1.03709e+07
1.03665e+07
1.03622e+07
1.03578e+07
1.03533e+07
1.03489e+07
1.03444e+07
1.03398e+07
1.03353e+07
1.03307e+07
1.0326e+07
1.03213e+07
1.03166e+07
1.03119e+07
1.03071e+07
1.03023e+07
1.02974e+07
1.02926e+07
1.02876e+07
1.02827e+07
1.02777e+07
1.02728e+07
1.02678e+07
1.02628e+07
1.02578e+07
1.21742e+07
1.21728e+07
1.21701e+07
1.2166e+07
1.21604e+07
1.21534e+07
1.2145e+07
1.21349e+07
1.21234e+07
1.21102e+07
1.20955e+07
1.20791e+07
1.2061e+07
1.20413e+07
1.20198e+07
1.19966e+07
1.19716e+07
1.19449e+07
1.19163e+07
1.18857e+07
1.18532e+07
1.18187e+07
1.17821e+07
1.17433e+07
1.17022e+07
1.16587e+07
1.16126e+07
1.15638e+07
1.15121e+07
1.14573e+07
1.13992e+07
1.13375e+07
1.12721e+07
1.12029e+07
1.11299e+07
1.10538e+07
1.09761e+07
1.08993e+07
1.08259e+07
1.07424e+07
1.07356e+07
1.0732e+07
1.07285e+07
1.0725e+07
1.07215e+07
1.07182e+07
1.07149e+07
1.07116e+07
1.07085e+07
1.07053e+07
1.07023e+07
1.06992e+07
1.06963e+07
1.06933e+07
1.06904e+07
1.06875e+07
1.06847e+07
1.06818e+07
1.0679e+07
1.06763e+07
1.06735e+07
1.06708e+07
1.0668e+07
1.06653e+07
1.06626e+07
1.066e+07
1.06573e+07
1.06546e+07
1.0652e+07
1.06493e+07
1.06467e+07
1.0644e+07
1.06414e+07
1.06388e+07
1.06361e+07
1.06335e+07
1.06308e+07
1.06282e+07
1.06256e+07
1.06229e+07
1.06203e+07
1.06176e+07
1.06149e+07
1.06123e+07
1.06096e+07
1.06069e+07
1.06042e+07
1.06015e+07
1.05988e+07
1.0596e+07
1.05933e+07
1.05906e+07
1.05878e+07
1.0585e+07
1.05822e+07
1.05794e+07
1.05766e+07
1.05738e+07
1.05709e+07
1.0568e+07
1.05652e+07
1.05623e+07
1.05593e+07
1.05564e+07
1.05534e+07
1.05505e+07
1.05475e+07
1.05445e+07
1.05414e+07
1.05384e+07
1.05353e+07
1.05322e+07
1.05291e+07
1.0526e+07
1.05228e+07
1.05196e+07
1.05164e+07
1.05132e+07
1.05099e+07
1.05067e+07
1.05034e+07
1.05e+07
1.04967e+07
1.04933e+07
1.04899e+07
1.04865e+07
1.04831e+07
1.04796e+07
1.04761e+07
1.04726e+07
1.0469e+07
1.04654e+07
1.04618e+07
1.04582e+07
1.04545e+07
1.04509e+07
1.04471e+07
1.04434e+07
1.04396e+07
1.04358e+07
1.0432e+07
1.04281e+07
1.04242e+07
1.04203e+07
1.04164e+07
1.04124e+07
1.04084e+07
1.04043e+07
1.04003e+07
1.03962e+07
1.0392e+07
1.03879e+07
1.03837e+07
1.03794e+07
1.03752e+07
1.03709e+07
1.03665e+07
1.03622e+07
1.03578e+07
1.03533e+07
1.03489e+07
1.03444e+07
1.03398e+07
1.03353e+07
1.03306e+07
1.0326e+07
1.03213e+07
1.03166e+07
1.03119e+07
1.03071e+07
1.03023e+07
1.02974e+07
1.02925e+07
1.02876e+07
1.02827e+07
1.02777e+07
1.02727e+07
1.02677e+07
1.02627e+07
1.02578e+07
1.21905e+07
1.21891e+07
1.21864e+07
1.21823e+07
1.21767e+07
1.21697e+07
1.21612e+07
1.21512e+07
1.21396e+07
1.21265e+07
1.21117e+07
1.20954e+07
1.20773e+07
1.20576e+07
1.20362e+07
1.20131e+07
1.19883e+07
1.19616e+07
1.19331e+07
1.19028e+07
1.18706e+07
1.18364e+07
1.18002e+07
1.17619e+07
1.17215e+07
1.16788e+07
1.16338e+07
1.15863e+07
1.15362e+07
1.14836e+07
1.14282e+07
1.137e+07
1.13091e+07
1.12455e+07
1.11797e+07
1.11121e+07
1.10435e+07
1.09751e+07
1.09073e+07
1.08388e+07
1.07694e+07
1.07311e+07
1.07276e+07
1.07241e+07
1.07208e+07
1.07175e+07
1.07143e+07
1.07111e+07
1.0708e+07
1.07049e+07
1.07018e+07
1.06989e+07
1.06959e+07
1.0693e+07
1.06901e+07
1.06872e+07
1.06844e+07
1.06816e+07
1.06788e+07
1.0676e+07
1.06733e+07
1.06706e+07
1.06679e+07
1.06652e+07
1.06625e+07
1.06598e+07
1.06572e+07
1.06545e+07
1.06518e+07
1.06492e+07
1.06466e+07
1.06439e+07
1.06413e+07
1.06387e+07
1.0636e+07
1.06334e+07
1.06308e+07
1.06281e+07
1.06255e+07
1.06228e+07
1.06202e+07
1.06175e+07
1.06149e+07
1.06122e+07
1.06095e+07
1.06068e+07
1.06042e+07
1.06015e+07
1.05987e+07
1.0596e+07
1.05933e+07
1.05905e+07
1.05878e+07
1.0585e+07
1.05822e+07
1.05794e+07
1.05766e+07
1.05737e+07
1.05709e+07
1.0568e+07
1.05651e+07
1.05622e+07
1.05593e+07
1.05564e+07
1.05534e+07
1.05505e+07
1.05475e+07
1.05444e+07
1.05414e+07
1.05384e+07
1.05353e+07
1.05322e+07
1.05291e+07
1.05259e+07
1.05228e+07
1.05196e+07
1.05164e+07
1.05132e+07
1.05099e+07
1.05067e+07
1.05034e+07
1.05e+07
1.04967e+07
1.04933e+07
1.04899e+07
1.04865e+07
1.04831e+07
1.04796e+07
1.04761e+07
1.04726e+07
1.0469e+07
1.04654e+07
1.04618e+07
1.04582e+07
1.04545e+07
1.04509e+07
1.04471e+07
1.04434e+07
1.04396e+07
1.04358e+07
1.0432e+07
1.04281e+07
1.04242e+07
1.04203e+07
1.04164e+07
1.04124e+07
1.04084e+07
1.04043e+07
1.04003e+07
1.03962e+07
1.0392e+07
1.03879e+07
1.03837e+07
1.03794e+07
1.03752e+07
1.03709e+07
1.03665e+07
1.03622e+07
1.03578e+07
1.03533e+07
1.03489e+07
1.03444e+07
1.03398e+07
1.03352e+07
1.03306e+07
1.0326e+07
1.03213e+07
1.03166e+07
1.03119e+07
1.03071e+07
1.03023e+07
1.02974e+07
1.02925e+07
1.02876e+07
1.02827e+07
1.02777e+07
1.02727e+07
1.02677e+07
1.02627e+07
1.02577e+07
1.22125e+07
1.22111e+07
1.22083e+07
1.22042e+07
1.21986e+07
1.21915e+07
1.2183e+07
1.2173e+07
1.21614e+07
1.21482e+07
1.21335e+07
1.21171e+07
1.20991e+07
1.20795e+07
1.20581e+07
1.20351e+07
1.20103e+07
1.19838e+07
1.19555e+07
1.19254e+07
1.18934e+07
1.18596e+07
1.18239e+07
1.17861e+07
1.17464e+07
1.17045e+07
1.16606e+07
1.16144e+07
1.15661e+07
1.15154e+07
1.14626e+07
1.14075e+07
1.13503e+07
1.12912e+07
1.12304e+07
1.11684e+07
1.11057e+07
1.10428e+07
1.09803e+07
1.09184e+07
1.08577e+07
1.07989e+07
1.07292e+07
1.07231e+07
1.07198e+07
1.07166e+07
1.07135e+07
1.07104e+07
1.07073e+07
1.07043e+07
1.07013e+07
1.06983e+07
1.06954e+07
1.06925e+07
1.06897e+07
1.06868e+07
1.0684e+07
1.06813e+07
1.06785e+07
1.06758e+07
1.0673e+07
1.06703e+07
1.06676e+07
1.06649e+07
1.06623e+07
1.06596e+07
1.0657e+07
1.06543e+07
1.06517e+07
1.06491e+07
1.06464e+07
1.06438e+07
1.06412e+07
1.06385e+07
1.06359e+07
1.06333e+07
1.06307e+07
1.0628e+07
1.06254e+07
1.06228e+07
1.06201e+07
1.06175e+07
1.06148e+07
1.06121e+07
1.06095e+07
1.06068e+07
1.06041e+07
1.06014e+07
1.05987e+07
1.0596e+07
1.05932e+07
1.05905e+07
1.05877e+07
1.0585e+07
1.05822e+07
1.05794e+07
1.05765e+07
1.05737e+07
1.05709e+07
1.0568e+07
1.05651e+07
1.05622e+07
1.05593e+07
1.05564e+07
1.05534e+07
1.05504e+07
1.05474e+07
1.05444e+07
1.05414e+07
1.05384e+07
1.05353e+07
1.05322e+07
1.05291e+07
1.05259e+07
1.05228e+07
1.05196e+07
1.05164e+07
1.05132e+07
1.05099e+07
1.05066e+07
1.05034e+07
1.05e+07
1.04967e+07
1.04933e+07
1.04899e+07
1.04865e+07
1.04831e+07
1.04796e+07
1.04761e+07
1.04726e+07
1.0469e+07
1.04654e+07
1.04618e+07
1.04582e+07
1.04545e+07
1.04509e+07
1.04471e+07
1.04434e+07
1.04396e+07
1.04358e+07
1.0432e+07
1.04281e+07
1.04242e+07
1.04203e+07
1.04164e+07
1.04124e+07
1.04084e+07
1.04043e+07
1.04003e+07
1.03962e+07
1.0392e+07
1.03879e+07
1.03837e+07
1.03794e+07
1.03752e+07
1.03709e+07
1.03665e+07
1.03622e+07
1.03578e+07
1.03533e+07
1.03489e+07
1.03444e+07
1.03398e+07
1.03352e+07
1.03306e+07
1.0326e+07
1.03213e+07
1.03166e+07
1.03119e+07
1.03071e+07
1.03023e+07
1.02974e+07
1.02925e+07
1.02876e+07
1.02827e+07
1.02777e+07
1.02727e+07
1.02677e+07
1.02626e+07
1.02576e+07
1.224e+07
1.22386e+07
1.22358e+07
1.22316e+07
1.2226e+07
1.22189e+07
1.22103e+07
1.22002e+07
1.21886e+07
1.21754e+07
1.21606e+07
1.21442e+07
1.21262e+07
1.21066e+07
1.20852e+07
1.20622e+07
1.20375e+07
1.20111e+07
1.1983e+07
1.1953e+07
1.19213e+07
1.18878e+07
1.18525e+07
1.18153e+07
1.17762e+07
1.17351e+07
1.16922e+07
1.16473e+07
1.16004e+07
1.15516e+07
1.15009e+07
1.14484e+07
1.13941e+07
1.13383e+07
1.12813e+07
1.12232e+07
1.11645e+07
1.11055e+07
1.10465e+07
1.09879e+07
1.09297e+07
1.08716e+07
1.08118e+07
1.07489e+07
1.07188e+07
1.07157e+07
1.07126e+07
1.07096e+07
1.07065e+07
1.07036e+07
1.07006e+07
1.06977e+07
1.06948e+07
1.0692e+07
1.06892e+07
1.06864e+07
1.06836e+07
1.06808e+07
1.06781e+07
1.06754e+07
1.06727e+07
1.067e+07
1.06673e+07
1.06647e+07
1.0662e+07
1.06594e+07
1.06567e+07
1.06541e+07
1.06515e+07
1.06489e+07
1.06462e+07
1.06436e+07
1.0641e+07
1.06384e+07
1.06358e+07
1.06332e+07
1.06305e+07
1.06279e+07
1.06253e+07
1.06227e+07
1.062e+07
1.06174e+07
1.06147e+07
1.06121e+07
1.06094e+07
1.06067e+07
1.0604e+07
1.06013e+07
1.05986e+07
1.05959e+07
1.05932e+07
1.05904e+07
1.05877e+07
1.05849e+07
1.05821e+07
1.05793e+07
1.05765e+07
1.05737e+07
1.05708e+07
1.0568e+07
1.05651e+07
1.05622e+07
1.05593e+07
1.05563e+07
1.05534e+07
1.05504e+07
1.05474e+07
1.05444e+07
1.05414e+07
1.05383e+07
1.05353e+07
1.05322e+07
1.05291e+07
1.05259e+07
1.05228e+07
1.05196e+07
1.05164e+07
1.05132e+07
1.05099e+07
1.05066e+07
1.05033e+07
1.05e+07
1.04967e+07
1.04933e+07
1.04899e+07
1.04865e+07
1.0483e+07
1.04796e+07
1.04761e+07
1.04726e+07
1.0469e+07
1.04654e+07
1.04618e+07
1.04582e+07
1.04545e+07
1.04508e+07
1.04471e+07
1.04434e+07
1.04396e+07
1.04358e+07
1.0432e+07
1.04281e+07
1.04242e+07
1.04203e+07
1.04164e+07
1.04124e+07
1.04084e+07
1.04043e+07
1.04003e+07
1.03962e+07
1.0392e+07
1.03878e+07
1.03836e+07
1.03794e+07
1.03752e+07
1.03709e+07
1.03665e+07
1.03622e+07
1.03578e+07
1.03533e+07
1.03489e+07
1.03444e+07
1.03398e+07
1.03352e+07
1.03306e+07
1.0326e+07
1.03213e+07
1.03166e+07
1.03119e+07
1.03071e+07
1.03023e+07
1.02974e+07
1.02925e+07
1.02876e+07
1.02827e+07
1.02777e+07
1.02727e+07
1.02676e+07
1.02626e+07
1.02575e+07
1.22732e+07
1.22718e+07
1.22689e+07
1.22647e+07
1.2259e+07
1.22518e+07
1.22431e+07
1.2233e+07
1.22212e+07
1.22079e+07
1.21931e+07
1.21766e+07
1.21585e+07
1.21388e+07
1.21174e+07
1.20944e+07
1.20697e+07
1.20433e+07
1.20152e+07
1.19854e+07
1.19539e+07
1.19206e+07
1.18856e+07
1.18489e+07
1.18103e+07
1.177e+07
1.17279e+07
1.16841e+07
1.16385e+07
1.15912e+07
1.15423e+07
1.14917e+07
1.14398e+07
1.13865e+07
1.13321e+07
1.12769e+07
1.1221e+07
1.11647e+07
1.11083e+07
1.10519e+07
1.09958e+07
1.09399e+07
1.08842e+07
1.08292e+07
1.07762e+07
1.07156e+07
1.07116e+07
1.07086e+07
1.07056e+07
1.07027e+07
1.06998e+07
1.0697e+07
1.06941e+07
1.06913e+07
1.06886e+07
1.06858e+07
1.06831e+07
1.06804e+07
1.06777e+07
1.0675e+07
1.06723e+07
1.06696e+07
1.0667e+07
1.06644e+07
1.06617e+07
1.06591e+07
1.06565e+07
1.06539e+07
1.06513e+07
1.06486e+07
1.0646e+07
1.06434e+07
1.06408e+07
1.06382e+07
1.06356e+07
1.0633e+07
1.06304e+07
1.06278e+07
1.06252e+07
1.06225e+07
1.06199e+07
1.06173e+07
1.06146e+07
1.0612e+07
1.06093e+07
1.06066e+07
1.0604e+07
1.06013e+07
1.05986e+07
1.05959e+07
1.05931e+07
1.05904e+07
1.05876e+07
1.05849e+07
1.05821e+07
1.05793e+07
1.05765e+07
1.05736e+07
1.05708e+07
1.05679e+07
1.05651e+07
1.05622e+07
1.05593e+07
1.05563e+07
1.05534e+07
1.05504e+07
1.05474e+07
1.05444e+07
1.05414e+07
1.05383e+07
1.05353e+07
1.05322e+07
1.0529e+07
1.05259e+07
1.05228e+07
1.05196e+07
1.05164e+07
1.05132e+07
1.05099e+07
1.05066e+07
1.05033e+07
1.05e+07
1.04967e+07
1.04933e+07
1.04899e+07
1.04865e+07
1.0483e+07
1.04796e+07
1.04761e+07
1.04726e+07
1.0469e+07
1.04654e+07
1.04618e+07
1.04582e+07
1.04545e+07
1.04508e+07
1.04471e+07
1.04434e+07
1.04396e+07
1.04358e+07
1.0432e+07
1.04281e+07
1.04242e+07
1.04203e+07
1.04164e+07
1.04124e+07
1.04084e+07
1.04043e+07
1.04003e+07
1.03962e+07
1.0392e+07
1.03878e+07
1.03836e+07
1.03794e+07
1.03751e+07
1.03708e+07
1.03665e+07
1.03622e+07
1.03578e+07
1.03533e+07
1.03488e+07
1.03443e+07
1.03398e+07
1.03352e+07
1.03306e+07
1.0326e+07
1.03213e+07
1.03166e+07
1.03119e+07
1.03071e+07
1.03023e+07
1.02974e+07
1.02925e+07
1.02876e+07
1.02826e+07
1.02777e+07
1.02726e+07
1.02676e+07
1.02625e+07
1.02574e+07
1.23121e+07
1.23106e+07
1.23077e+07
1.23033e+07
1.22975e+07
1.22902e+07
1.22814e+07
1.22711e+07
1.22592e+07
1.22457e+07
1.22307e+07
1.22141e+07
1.21958e+07
1.21759e+07
1.21544e+07
1.21313e+07
1.21065e+07
1.20801e+07
1.2052e+07
1.20222e+07
1.19908e+07
1.19577e+07
1.19229e+07
1.18865e+07
1.18484e+07
1.18086e+07
1.17672e+07
1.17242e+07
1.16796e+07
1.16335e+07
1.15859e+07
1.1537e+07
1.14867e+07
1.14353e+07
1.13829e+07
1.13297e+07
1.12758e+07
1.12215e+07
1.11669e+07
1.11122e+07
1.10575e+07
1.10029e+07
1.09484e+07
1.0894e+07
1.08391e+07
1.07812e+07
1.07158e+07
1.07075e+07
1.07046e+07
1.07017e+07
1.06989e+07
1.06961e+07
1.06934e+07
1.06906e+07
1.06879e+07
1.06852e+07
1.06825e+07
1.06798e+07
1.06772e+07
1.06745e+07
1.06719e+07
1.06692e+07
1.06666e+07
1.0664e+07
1.06614e+07
1.06588e+07
1.06562e+07
1.06536e+07
1.0651e+07
1.06484e+07
1.06458e+07
1.06432e+07
1.06406e+07
1.0638e+07
1.06354e+07
1.06328e+07
1.06302e+07
1.06276e+07
1.0625e+07
1.06224e+07
1.06198e+07
1.06172e+07
1.06145e+07
1.06119e+07
1.06092e+07
1.06066e+07
1.06039e+07
1.06012e+07
1.05985e+07
1.05958e+07
1.05931e+07
1.05903e+07
1.05876e+07
1.05848e+07
1.0582e+07
1.05792e+07
1.05764e+07
1.05736e+07
1.05708e+07
1.05679e+07
1.0565e+07
1.05621e+07
1.05592e+07
1.05563e+07
1.05533e+07
1.05504e+07
1.05474e+07
1.05444e+07
1.05414e+07
1.05383e+07
1.05352e+07
1.05321e+07
1.0529e+07
1.05259e+07
1.05227e+07
1.05196e+07
1.05164e+07
1.05131e+07
1.05099e+07
1.05066e+07
1.05033e+07
1.05e+07
1.04967e+07
1.04933e+07
1.04899e+07
1.04865e+07
1.0483e+07
1.04796e+07
1.04761e+07
1.04725e+07
1.0469e+07
1.04654e+07
1.04618e+07
1.04582e+07
1.04545e+07
1.04508e+07
1.04471e+07
1.04434e+07
1.04396e+07
1.04358e+07
1.0432e+07
1.04281e+07
1.04242e+07
1.04203e+07
1.04164e+07
1.04124e+07
1.04084e+07
1.04043e+07
1.04003e+07
1.03961e+07
1.0392e+07
1.03878e+07
1.03836e+07
1.03794e+07
1.03751e+07
1.03708e+07
1.03665e+07
1.03621e+07
1.03577e+07
1.03533e+07
1.03488e+07
1.03443e+07
1.03398e+07
1.03352e+07
1.03306e+07
1.0326e+07
1.03213e+07
1.03166e+07
1.03118e+07
1.03071e+07
1.03022e+07
1.02974e+07
1.02925e+07
1.02876e+07
1.02826e+07
1.02776e+07
1.02726e+07
1.02676e+07
1.02625e+07
1.02573e+07
1.23567e+07
1.23551e+07
1.23521e+07
1.23476e+07
1.23417e+07
1.23342e+07
1.23252e+07
1.23146e+07
1.23025e+07
1.22888e+07
1.22735e+07
1.22566e+07
1.22381e+07
1.2218e+07
1.21962e+07
1.21728e+07
1.21478e+07
1.21212e+07
1.2093e+07
1.20631e+07
1.20317e+07
1.19986e+07
1.19639e+07
1.19277e+07
1.18899e+07
1.18505e+07
1.18096e+07
1.17672e+07
1.17233e+07
1.16781e+07
1.16315e+07
1.15837e+07
1.15347e+07
1.14847e+07
1.14337e+07
1.13819e+07
1.13295e+07
1.12766e+07
1.12233e+07
1.11697e+07
1.11161e+07
1.10623e+07
1.10085e+07
1.09544e+07
1.08999e+07
1.08442e+07
1.07864e+07
1.07246e+07
1.07035e+07
1.07006e+07
1.06979e+07
1.06952e+07
1.06925e+07
1.06898e+07
1.06871e+07
1.06845e+07
1.06818e+07
1.06792e+07
1.06766e+07
1.0674e+07
1.06714e+07
1.06688e+07
1.06662e+07
1.06636e+07
1.0661e+07
1.06584e+07
1.06558e+07
1.06533e+07
1.06507e+07
1.06481e+07
1.06455e+07
1.0643e+07
1.06404e+07
1.06378e+07
1.06352e+07
1.06327e+07
1.06301e+07
1.06275e+07
1.06249e+07
1.06223e+07
1.06197e+07
1.0617e+07
1.06144e+07
1.06118e+07
1.06091e+07
1.06065e+07
1.06038e+07
1.06011e+07
1.05984e+07
1.05957e+07
1.0593e+07
1.05903e+07
1.05875e+07
1.05847e+07
1.0582e+07
1.05792e+07
1.05764e+07
1.05736e+07
1.05707e+07
1.05679e+07
1.0565e+07
1.05621e+07
1.05592e+07
1.05563e+07
1.05533e+07
1.05503e+07
1.05474e+07
1.05444e+07
1.05413e+07
1.05383e+07
1.05352e+07
1.05321e+07
1.0529e+07
1.05259e+07
1.05227e+07
1.05196e+07
1.05164e+07
1.05131e+07
1.05099e+07
1.05066e+07
1.05033e+07
1.05e+07
1.04967e+07
1.04933e+07
1.04899e+07
1.04865e+07
1.0483e+07
1.04796e+07
1.04761e+07
1.04725e+07
1.0469e+07
1.04654e+07
1.04618e+07
1.04582e+07
1.04545e+07
1.04508e+07
1.04471e+07
1.04434e+07
1.04396e+07
1.04358e+07
1.0432e+07
1.04281e+07
1.04242e+07
1.04203e+07
1.04164e+07
1.04124e+07
1.04084e+07
1.04043e+07
1.04002e+07
1.03961e+07
1.0392e+07
1.03878e+07
1.03836e+07
1.03794e+07
1.03751e+07
1.03708e+07
1.03665e+07
1.03621e+07
1.03577e+07
1.03533e+07
1.03488e+07
1.03443e+07
1.03398e+07
1.03352e+07
1.03306e+07
1.0326e+07
1.03213e+07
1.03166e+07
1.03118e+07
1.03071e+07
1.03022e+07
1.02974e+07
1.02925e+07
1.02876e+07
1.02826e+07
1.02776e+07
1.02726e+07
1.02675e+07
1.02624e+07
1.02573e+07
1.24071e+07
1.24054e+07
1.24023e+07
1.23976e+07
1.23915e+07
1.23838e+07
1.23745e+07
1.23636e+07
1.23512e+07
1.23371e+07
1.23215e+07
1.23042e+07
1.22853e+07
1.22648e+07
1.22426e+07
1.22189e+07
1.21936e+07
1.21666e+07
1.21381e+07
1.2108e+07
1.20764e+07
1.20432e+07
1.20084e+07
1.19722e+07
1.19344e+07
1.18953e+07
1.18546e+07
1.18126e+07
1.17692e+07
1.17246e+07
1.16787e+07
1.16317e+07
1.15835e+07
1.15344e+07
1.14844e+07
1.14337e+07
1.13823e+07
1.13303e+07
1.12779e+07
1.12252e+07
1.11722e+07
1.11191e+07
1.10658e+07
1.10123e+07
1.09586e+07
1.09045e+07
1.08499e+07
1.07949e+07
1.07392e+07
1.06996e+07
1.06968e+07
1.06942e+07
1.06916e+07
1.06889e+07
1.06863e+07
1.06837e+07
1.06811e+07
1.06786e+07
1.0676e+07
1.06734e+07
1.06708e+07
1.06682e+07
1.06657e+07
1.06631e+07
1.06606e+07
1.0658e+07
1.06555e+07
1.06529e+07
1.06504e+07
1.06478e+07
1.06452e+07
1.06427e+07
1.06401e+07
1.06376e+07
1.0635e+07
1.06324e+07
1.06299e+07
1.06273e+07
1.06247e+07
1.06221e+07
1.06195e+07
1.06169e+07
1.06143e+07
1.06116e+07
1.0609e+07
1.06063e+07
1.06037e+07
1.0601e+07
1.05983e+07
1.05956e+07
1.05929e+07
1.05902e+07
1.05874e+07
1.05847e+07
1.05819e+07
1.05791e+07
1.05763e+07
1.05735e+07
1.05707e+07
1.05678e+07
1.05649e+07
1.05621e+07
1.05592e+07
1.05562e+07
1.05533e+07
1.05503e+07
1.05473e+07
1.05443e+07
1.05413e+07
1.05383e+07
1.05352e+07
1.05321e+07
1.0529e+07
1.05259e+07
1.05227e+07
1.05195e+07
1.05163e+07
1.05131e+07
1.05099e+07
1.05066e+07
1.05033e+07
1.05e+07
1.04966e+07
1.04933e+07
1.04899e+07
1.04865e+07
1.0483e+07
1.04796e+07
1.04761e+07
1.04725e+07
1.0469e+07
1.04654e+07
1.04618e+07
1.04582e+07
1.04545e+07
1.04508e+07
1.04471e+07
1.04434e+07
1.04396e+07
1.04358e+07
1.0432e+07
1.04281e+07
1.04242e+07
1.04203e+07
1.04164e+07
1.04124e+07
1.04084e+07
1.04043e+07
1.04002e+07
1.03961e+07
1.0392e+07
1.03878e+07
1.03836e+07
1.03794e+07
1.03751e+07
1.03708e+07
1.03665e+07
1.03621e+07
1.03577e+07
1.03533e+07
1.03488e+07
1.03443e+07
1.03398e+07
1.03352e+07
1.03306e+07
1.0326e+07
1.03213e+07
1.03166e+07
1.03118e+07
1.0307e+07
1.03022e+07
1.02974e+07
1.02925e+07
1.02875e+07
1.02826e+07
1.02776e+07
1.02725e+07
1.02675e+07
1.02623e+07
1.02572e+07
1.24634e+07
1.24617e+07
1.24584e+07
1.24535e+07
1.24471e+07
1.24391e+07
1.24294e+07
1.24181e+07
1.24052e+07
1.23907e+07
1.23745e+07
1.23567e+07
1.23373e+07
1.23162e+07
1.22936e+07
1.22693e+07
1.22435e+07
1.22161e+07
1.21871e+07
1.21566e+07
1.21246e+07
1.20911e+07
1.20561e+07
1.20197e+07
1.19818e+07
1.19426e+07
1.19021e+07
1.18602e+07
1.1817e+07
1.17727e+07
1.17272e+07
1.16806e+07
1.16331e+07
1.15845e+07
1.15352e+07
1.14851e+07
1.14343e+07
1.1383e+07
1.13312e+07
1.1279e+07
1.12266e+07
1.11739e+07
1.11209e+07
1.10679e+07
1.10147e+07
1.09613e+07
1.0908e+07
1.08546e+07
1.08011e+07
1.07461e+07
1.0696e+07
1.06931e+07
1.06906e+07
1.0688e+07
1.06855e+07
1.06829e+07
1.06804e+07
1.06778e+07
1.06753e+07
1.06728e+07
1.06702e+07
1.06677e+07
1.06652e+07
1.06626e+07
1.06601e+07
1.06576e+07
1.0655e+07
1.06525e+07
1.065e+07
1.06475e+07
1.06449e+07
1.06424e+07
1.06399e+07
1.06373e+07
1.06348e+07
1.06322e+07
1.06296e+07
1.06271e+07
1.06245e+07
1.06219e+07
1.06193e+07
1.06167e+07
1.06141e+07
1.06115e+07
1.06089e+07
1.06062e+07
1.06036e+07
1.06009e+07
1.05982e+07
1.05955e+07
1.05928e+07
1.05901e+07
1.05874e+07
1.05846e+07
1.05818e+07
1.05791e+07
1.05763e+07
1.05734e+07
1.05706e+07
1.05678e+07
1.05649e+07
1.0562e+07
1.05591e+07
1.05562e+07
1.05532e+07
1.05503e+07
1.05473e+07
1.05443e+07
1.05413e+07
1.05382e+07
1.05352e+07
1.05321e+07
1.0529e+07
1.05258e+07
1.05227e+07
1.05195e+07
1.05163e+07
1.05131e+07
1.05099e+07
1.05066e+07
1.05033e+07
1.05e+07
1.04966e+07
1.04933e+07
1.04899e+07