/*--------------------------------*- C++ -*----------------------------------*\
  =========                 |
  \\      /  F ield         | OpenFOAM: The Open Source CFD Toolbox
   \\    /   O peration     | Website:  https://openfoam.org
    \\  /    A nd           | Version:  11
     \\/     M anipulation  |
\*---------------------------------------------------------------------------*/
FoamFile
{
    format      ascii;
    class       volVectorField;
    location    "8";
    object      U;
}
// * * * * * * * * * * * * * * * * * * * * * * * * * * * * * * * * * * * * * //

dimensions      [0 1 -1 0 0 0 0];

internalField   nonuniform List<vector> 
2048
(
(1.00014 -0.000608873 0)
(1.00261 -0.00183713 0)
(1.00748 -0.00309162 0)
(1.01491 -0.0043876 0)
(1.02502 -0.0057368 0)
(1.03787 -0.00714386 0)
(1.05358 -0.00860363 0)
(1.07223 -0.0100993 0)
(1.09388 -0.0116015 0)
(1.11852 -0.0130681 0)
(1.14604 -0.0144456 0)
(1.17623 -0.0156711 0)
(1.20871 -0.0166784 0)
(1.24301 -0.0174063 0)
(1.27853 -0.0178104 0)
(1.31459 -0.0178734 0)
(1.35051 -0.0176112 0)
(1.38563 -0.0170714 0)
(1.41941 -0.0163205 0)
(1.45146 -0.0154244 0)
(1.48153 -0.0144324 0)
(1.50946 -0.013372 0)
(1.53518 -0.012253 0)
(1.55857 -0.0110713 0)
(1.57954 -0.00981459 0)
(1.59792 -0.00846726 0)
(1.61353 -0.0070166 0)
(1.62616 -0.00545744 0)
(1.63558 -0.0037927 0)
(1.64158 -0.00203424 0)
(1.64396 -0.000194495 0)
(1.64259 0.00169607 0)
(1.63739 0.00361353 0)
(1.62835 0.00552666 0)
(1.61549 0.00739625 0)
(1.59893 0.00918241 0)
(1.57886 0.0108478 0)
(1.55556 0.0123565 0)
(1.52938 0.0136741 0)
(1.50073 0.0147695 0)
(1.47009 0.0156177 0)
(1.43798 0.0162029 0)
(1.40493 0.0165202 0)
(1.37151 0.0165757 0)
(1.33823 0.0163864 0)
(1.30557 0.0159782 0)
(1.27395 0.0153838 0)
(1.24371 0.0146397 0)
(1.21511 0.0137834 0)
(1.18836 0.012851 0)
(1.16355 0.011876 0)
(1.14075 0.0108878 0)
(1.11994 0.00991104 0)
(1.10108 0.00896551 0)
(1.08409 0.00806725 0)
(1.06883 0.00722568 0)
(1.05525 0.0064524 0)
(1.04304 0.00574249 0)
(1.03239 0.00511634 0)
(1.02253 0.00453309 0)
(1.01453 0.00406653 0)
(1.00592 0.0035627 0)
(1.00111 0.00329396 0)
(0.991399 0.00274725 0)
(1.00014 -0.00182089 0)
(1.00258 -0.00549403 0)
(1.00739 -0.00924772 0)
(1.01475 -0.0131307 0)
(1.02476 -0.0171807 0)
(1.03754 -0.0214137 0)
(1.05319 -0.0258159 0)
(1.07184 -0.0303379 0)
(1.09357 -0.0348909 0)
(1.1184 -0.039346 0)
(1.14623 -0.0435373 0)
(1.17685 -0.0472717 0)
(1.20991 -0.0503441 0)
(1.24489 -0.0525631 0)
(1.28116 -0.053787 0)
(1.31797 -0.0539576 0)
(1.35457 -0.0531246 0)
(1.39026 -0.051444 0)
(1.42447 -0.0491321 0)
(1.45683 -0.0463973 0)
(1.48712 -0.0433907 0)
(1.51524 -0.0401945 0)
(1.54113 -0.0368342 0)
(1.56471 -0.0332938 0)
(1.58588 -0.0295302 0)
(1.60449 -0.0254918 0)
(1.62034 -0.0211374 0)
(1.6332 -0.0164496 0)
(1.64282 -0.0114387 0)
(1.649 -0.00613988 0)
(1.6515 -0.000601426 0)
(1.65019 0.00510282 0)
(1.64498 0.0108923 0)
(1.63585 0.0166692 0)
(1.62282 0.0223183 0)
(1.60599 0.0277199 0)
(1.58557 0.0327586 0)
(1.56185 0.0373231 0)
(1.53517 0.041307 0)
(1.50596 0.0446143 0)
(1.47471 0.0471698 0)
(1.44196 0.0489258 0)
(1.40829 0.0498675 0)
(1.37426 0.0500143 0)
(1.34041 0.049418 0)
(1.30725 0.0481584 0)
(1.27519 0.0463359 0)
(1.24459 0.0440626 0)
(1.21573 0.0414537 0)
(1.18877 0.0386203 0)
(1.16383 0.035664 0)
(1.14095 0.0326735 0)
(1.12012 0.0297231 0)
(1.10128 0.0268713 0)
(1.08434 0.0241656 0)
(1.06914 0.0216334 0)
(1.05564 0.0193091 0)
(1.04353 0.0171767 0)
(1.03298 0.015298 0)
(1.02322 0.0135483 0)
(1.01531 0.0121513 0)
(1.00681 0.0106413 0)
(1.00206 0.00983985 0)
(0.992472 0.00820494 0)
(1.00013 -0.00300895 0)
(1.00251 -0.00908112 0)
(1.0072 -0.0152959 0)
(1.01439 -0.0217428 0)
(1.02421 -0.0284931 0)
(1.0368 -0.0355805 0)
(1.05233 -0.0429902 0)
(1.07095 -0.0506443 0)
(1.09282 -0.0583954 0)
(1.11799 -0.0660197 0)
(1.14643 -0.0732222 0)
(1.17794 -0.0796582 0)
(1.21216 -0.0849589 0)
(1.24854 -0.0887796 0)
(1.28635 -0.0908595 0)
(1.32471 -0.0910817 0)
(1.36271 -0.08954 0)
(1.39954 -0.0865411 0)
(1.43459 -0.0824989 0)
(1.46753 -0.0777938 0)
(1.49824 -0.0726885 0)
(1.5267 -0.0673187 0)
(1.55291 -0.0617173 0)
(1.57684 -0.0558411 0)
(1.59841 -0.0495981 0)
(1.61748 -0.0428848 0)
(1.63381 -0.035624 0)
(1.64714 -0.027782 0)
(1.6572 -0.0193772 0)
(1.66372 -0.0104631 0)
(1.66647 -0.00114805 0)
(1.66529 0.00847686 0)
(1.66008 0.018257 0)
(1.65078 0.028017 0)
(1.6374 0.0375675 0)
(1.62005 0.0467129 0)
(1.59895 0.0552569 0)
(1.57437 0.0630025 0)
(1.54668 0.0697597 0)
(1.51633 0.0753594 0)
(1.48386 0.0796701 0)
(1.44984 0.0826099 0)
(1.41489 0.0841544 0)
(1.37963 0.0843391 0)
(1.34464 0.083256 0)
(1.31046 0.0810453 0)
(1.27754 0.0778819 0)
(1.24623 0.073961 0)
(1.21682 0.0694823 0)
(1.18947 0.0646379 0)
(1.16428 0.0596022 0)
(1.14127 0.0545259 0)
(1.12041 0.0495338 0)
(1.1016 0.0447229 0)
(1.08477 0.0401709 0)
(1.06972 0.0359212 0)
(1.05639 0.0320289 0)
(1.04448 0.0284649 0)
(1.03412 0.0253305 0)
(1.02457 0.0224161 0)
(1.01684 0.0200935 0)
(1.00856 0.0175869 0)
(1.00393 0.0162603 0)
(0.994601 0.0135587 0)
(1.00013 -0.00414942 0)
(1.0024 -0.0125318 0)
(1.00688 -0.021134 0)
(1.01378 -0.0300972 0)
(1.02327 -0.039537 0)
(1.03552 -0.0495168 0)
(1.05078 -0.0600344 0)
(1.0693 -0.0709933 0)
(1.0913 -0.0821975 0)
(1.11694 -0.0933188 0)
(1.14626 -0.103907 0)
(1.17912 -0.113415 0)
(1.21515 -0.121243 0)
(1.25373 -0.126843 0)
(1.29397 -0.129799 0)
(1.33478 -0.129915 0)
(1.37497 -0.127378 0)
(1.4135 -0.122736 0)
(1.44974 -0.116677 0)
(1.48346 -0.109789 0)
(1.5147 -0.102456 0)
(1.54357 -0.0948663 0)
(1.57018 -0.0870481 0)
(1.5946 -0.0788992 0)
(1.61678 -0.0702411 0)
(1.63655 -0.0608924 0)
(1.65363 -0.0507309 0)
(1.6677 -0.0397053 0)
(1.67843 -0.027842 0)
(1.6855 -0.0152091 0)
(1.68866 -0.00195034 0)
(1.68771 0.011781 0)
(1.68251 0.0257555 0)
(1.67296 0.0397055 0)
(1.65908 0.0533578 0)
(1.64098 0.0664484 0)
(1.61886 0.0787042 0)
(1.593 0.0898345 0)
(1.56379 0.0995486 0)
(1.53172 0.107587 0)
(1.49737 0.113747 0)
(1.4614 0.117904 0)
(1.4245 0.12002 0)
(1.38736 0.120151 0)
(1.35064 0.118441 0)
(1.31493 0.115106 0)
(1.28071 0.110411 0)
(1.24836 0.104648 0)
(1.21815 0.0981098 0)
(1.19024 0.0910786 0)
(1.1647 0.083806 0)
(1.14152 0.0765077 0)
(1.12064 0.0693607 0)
(1.10193 0.0625002 0)
(1.08528 0.0560328 0)
(1.07047 0.0500158 0)
(1.05743 0.0445222 0)
(1.04582 0.0395076 0)
(1.03578 0.0351085 0)
(1.02654 0.0310315 0)
(1.0191 0.0277876 0)
(1.01114 0.0243036 0)
(1.00671 0.0224589 0)
(0.997765 0.0187318 0)
(1.00012 -0.00521602 0)
(1.00222 -0.0157701 0)
(1.0064 -0.0266414 0)
(1.01285 -0.0380391 0)
(1.02179 -0.0501376 0)
(1.03349 -0.0630477 0)
(1.04826 -0.0767992 0)
(1.06646 -0.0912904 0)
(1.08848 -0.106305 0)
(1.11462 -0.121408 0)
(1.14507 -0.13599 0)
(1.17977 -0.149222 0)
(1.21836 -0.16013 0)
(1.2601 -0.167842 0)
(1.30387 -0.171665 0)
(1.34819 -0.17131 0)
(1.39138 -0.167209 0)
(1.43213 -0.160358 0)
(1.46981 -0.151827 0)
(1.50439 -0.142437 0)
(1.53614 -0.132694 0)
(1.5654 -0.122841 0)
(1.59245 -0.112877 0)
(1.61747 -0.10258 0)
(1.64045 -0.0916208 0)
(1.66117 -0.0797014 0)
(1.67928 -0.0666461 0)
(1.69435 -0.0523916 0)
(1.70599 -0.0369871 0)
(1.71383 -0.0205202 0)
(1.71755 -0.00316558 0)
(1.71691 0.0149005 0)
(1.71171 0.0333783 0)
(1.70186 0.0518461 0)
(1.68736 0.069918 0)
(1.66832 0.0872618 0)
(1.64491 0.103527 0)
(1.61741 0.11832 0)
(1.5862 0.131237 0)
(1.55183 0.14191 0)
(1.51495 0.150048 0)
(1.47632 0.155465 0)
(1.43675 0.158104 0)
(1.39706 0.158043 0)
(1.358 0.155489 0)
(1.32022 0.150757 0)
(1.28427 0.144226 0)
(1.25056 0.136312 0)
(1.21933 0.127426 0)
(1.19072 0.117951 0)
(1.16478 0.108224 0)
(1.14143 0.098529 0)
(1.12058 0.0890912 0)
(1.10206 0.0800804 0)
(1.0857 0.0716267 0)
(1.07126 0.0637961 0)
(1.05864 0.0566736 0)
(1.04747 0.0501966 0)
(1.03786 0.0445308 0)
(1.02907 0.0393006 0)
(1.02203 0.0351459 0)
(1.01451 0.0307114 0)
(1.01035 0.0283601 0)
(1.00193 0.0236614 0)
(1.00011 -0.00617367 0)
(1.00197 -0.0186953 0)
(1.00568 -0.0316514 0)
(1.01147 -0.045349 0)
(1.0196 -0.0600319 0)
(1.0304 -0.0758968 0)
(1.04434 -0.093023 0)
(1.0619 -0.11132 0)
(1.08364 -0.130594 0)
(1.11012 -0.150282 0)
(1.14177 -0.169701 0)
(1.17878 -0.187651 0)
(1.22084 -0.202649 0)
(1.26703 -0.21323 0)
(1.31583 -0.21802 0)
(1.36501 -0.216566 0)
(1.41212 -0.209942 0)
(1.45553 -0.19997 0)
(1.49478 -0.188271 0)
(1.53018 -0.175922 0)
(1.56229 -0.163538 0)
(1.59171 -0.151412 0)
(1.61899 -0.139452 0)
(1.64448 -0.12721 0)
(1.66819 -0.114109 0)
(1.68982 -0.099696 0)
(1.70885 -0.0837303 0)
(1.72479 -0.0661371 0)
(1.73718 -0.0470241 0)
(1.74564 -0.0265161 0)
(1.74986 -0.00493664 0)
(1.74961 0.0176108 0)
(1.74452 0.0408586 0)
(1.73442 0.0642152 0)
(1.71941 0.0871479 0)
(1.69957 0.109228 0)
(1.67499 0.129991 0)
(1.64586 0.148905 0)
(1.61252 0.165424 0)
(1.57555 0.179044 0)
(1.53569 0.189361 0)
(1.49384 0.196116 0)
(1.45097 0.199232 0)
(1.40806 0.198819 0)
(1.36604 0.195166 0)
(1.32569 0.188702 0)
(1.28762 0.17995 0)
(1.25226 0.169475 0)
(1.21984 0.157832 0)
(1.19048 0.145532 0)
(1.16414 0.133015 0)
(1.1407 0.120641 0)
(1.11999 0.108689 0)
(1.10178 0.097362 0)
(1.08586 0.0868062 0)
(1.07195 0.0770887 0)
(1.05989 0.0682978 0)
(1.04932 0.0603453 0)
(1.04029 0.0534166 0)
(1.03209 0.0470546 0)
(1.02556 0.0420117 0)
(1.01862 0.0366719 0)
(1.0148 0.0338356 0)
(1.00705 0.0282464 0)
(1.00009 -0.00697706 0)
(1.00162 -0.0211795 0)
(1.00468 -0.0359409 0)
(1.00951 -0.0517284 0)
(1.01644 -0.0688315 0)
(1.0259 -0.0876449 0)
(1.0385 -0.108275 0)
(1.05486 -0.130733 0)
(1.07585 -0.15485 0)
(1.10226 -0.179833 0)
(1.13486 -0.205111 0)
(1.17448 -0.228922 0)
(1.22092 -0.249458 0)
(1.27323 -0.264218 0)
(1.3294 -0.270198 0)
(1.38562 -0.26676 0)
(1.43802 -0.256325 0)
(1.48459 -0.242004 0)
(1.52522 -0.226169 0)
(1.56067 -0.210212 0)
(1.59185 -0.194904 0)
(1.61974 -0.180572 0)
(1.64536 -0.166882 0)
(1.66936 -0.152977 0)
(1.69182 -0.137952 0)
(1.7123 -0.121181 0)
(1.73027 -0.102351 0)
(1.7452 -0.0813656 0)
(1.75671 -0.0583762 0)
(1.76453 -0.0335986 0)
(1.76847 -0.00752171 0)
(1.76855 0.0195707 0)
(1.76416 0.0474613 0)
(1.75491 0.0756809 0)
(1.74085 0.103706 0)
(1.72199 0.130982 0)
(1.69817 0.156862 0)
(1.66931 0.180613 0)
(1.63557 0.201462 0)
(1.59738 0.218674 0)
(1.5555 0.231638 0)
(1.51094 0.239963 0)
(1.46489 0.243539 0)
(1.41863 0.242546 0)
(1.37336 0.237418 0)
(1.3301 0.228773 0)
(1.28962 0.217337 0)
(1.25244 0.203861 0)
(1.21879 0.189067 0)
(1.18872 0.173599 0)
(1.16212 0.158001 0)
(1.13879 0.14271 0)
(1.11845 0.128056 0)
(1.1008 0.114268 0)
(1.08556 0.101505 0)
(1.0724 0.0898326 0)
(1.06112 0.0793335 0)
(1.05131 0.0698908 0)
(1.04303 0.0617001 0)
(1.03556 0.0542259 0)
(1.02967 0.0483151 0)
(1.02343 0.0421169 0)
(1.02003 0.0388155 0)
(1.0131 0.0324236 0)
(1.00005 -0.00757106 0)
(1.00115 -0.0230732 0)
(1.00331 -0.0392257 0)
(1.00686 -0.0567972 0)
(1.01206 -0.075971 0)
(1.01955 -0.0976726 0)
(1.03003 -0.121781 0)
(1.04435 -0.148918 0)
(1.06394 -0.178692 0)
(1.08949 -0.210063 0)
(1.12275 -0.24277 0)
(1.16505 -0.273482 0)
(1.21612 -0.300812 0)
(1.27702 -0.320832 0)
(1.34501 -0.327762 0)
(1.41212 -0.321237 0)
(1.47103 -0.305689 0)
(1.51915 -0.285486 0)
(1.55718 -0.263935 0)
(1.58681 -0.242976 0)
(1.60994 -0.223987 0)
(1.62856 -0.207382 0)
(1.64464 -0.192193 0)
(1.65937 -0.176877 0)
(1.67304 -0.160198 0)
(1.68533 -0.141446 0)
(1.69595 -0.120219 0)
(1.7047 -0.0964509 0)
(1.71143 -0.0701402 0)
(1.7162 -0.0417274 0)
(1.71864 -0.0114538 0)
(1.71936 0.0199046 0)
(1.71766 0.0516742 0)
(1.71288 0.0838783 0)
(1.70476 0.116406 0)
(1.69285 0.148729 0)
(1.6765 0.180068 0)
(1.65505 0.209481 0)
(1.62806 0.235892 0)
(1.59546 0.258167 0)
(1.55761 0.275271 0)
(1.51538 0.286445 0)
(1.47004 0.291356 0)
(1.42316 0.290151 0)
(1.37637 0.283423 0)
(1.33116 0.272086 0)
(1.28873 0.257224 0)
(1.24989 0.239937 0)
(1.21506 0.22123 0)
(1.18435 0.201955 0)
(1.15763 0.182786 0)
(1.1346 0.164231 0)
(1.11489 0.146648 0)
(1.09811 0.13027 0)
(1.08387 0.115243 0)
(1.07178 0.101606 0)
(1.06157 0.0894221 0)
(1.05283 0.0785338 0)
(1.04554 0.0691337 0)
(1.03904 0.060612 0)
(1.03397 0.0538874 0)
(1.02863 0.0469097 0)
(1.02575 0.0431801 0)
(1.01985 0.0361031 0)
(0.999991 -0.00789654 0)
(1.00059 -0.0242139 0)
(1.0015 -0.0411769 0)
(1.00352 -0.0601147 0)
(1.00613 -0.0806919 0)
(1.01115 -0.10515 0)
(1.01789 -0.132138 0)
(1.02937 -0.164776 0)
(1.04579 -0.200753 0)
(1.06946 -0.240883 0)
(1.10383 -0.284613 0)
(1.14792 -0.323624 0)
(1.20455 -0.360073 0)
(1.28073 -0.387042 0)
(1.36667 -0.39393 0)
(1.44377 -0.38199 0)
(1.49994 -0.35815 0)
(1.53484 -0.327795 0)
(1.55193 -0.295928 0)
(1.55608 -0.265677 0)
(1.55166 -0.240412 0)
(1.54257 -0.220517 0)
(1.53228 -0.203423 0)
(1.52281 -0.186501 0)
(1.51489 -0.168351 0)
(1.50874 -0.148374 0)
(1.50457 -0.1262 0)
(1.50255 -0.101718 0)
(1.50245 -0.0748822 0)
(1.5044 -0.0460596 0)
(1.50733 -0.0153944 0)
(1.51146 0.0167592 0)
(1.51651 0.049478 0)
(1.52235 0.0830639 0)
(1.52816 0.117712 0)
(1.53275 0.153117 0)
(1.53485 0.188629 0)
(1.5331 0.223282 0)
(1.52619 0.255773 0)
(1.5131 0.284544 0)
(1.49326 0.307983 0)
(1.46678 0.324696 0)
(1.43445 0.333772 0)
(1.39765 0.334961 0)
(1.35815 0.32871 0)
(1.31786 0.31607 0)
(1.27852 0.298476 0)
(1.24152 0.277492 0)
(1.2078 0.254593 0)
(1.17787 0.231025 0)
(1.15185 0.207746 0)
(1.12959 0.185437 0)
(1.11079 0.164539 0)
(1.09503 0.145299 0)
(1.08191 0.127843 0)
(1.07099 0.112166 0)
(1.06197 0.0982864 0)
(1.05439 0.0859898 0)
(1.0482 0.0754404 0)
(1.04277 0.0659559 0)
(1.03864 0.0584901 0)
(1.0343 0.0508417 0)
(1.03203 0.0467319 0)
(1.02732 0.0391289 0)
(0.999886 -0.00790564 0)
(0.99998 -0.0244295 0)
(0.999193 -0.041484 0)
(0.999656 -0.061194 0)
(0.998389 -0.082171 0)
(1.00105 -0.109055 0)
(1.00072 -0.137275 0)
(1.01008 -0.176583 0)
(1.0165 -0.216758 0)
(1.04053 -0.271428 0)
(1.07123 -0.330169 0)
(1.11705 -0.383286 0)
(1.19057 -0.447989 0)
(1.28913 -0.487687 0)
(1.37919 -0.484711 0)
(1.43368 -0.45213 0)
(1.446 -0.404629 0)
(1.42885 -0.350669 0)
(1.38916 -0.29834 0)
(1.33921 -0.251331 0)
(1.2827 -0.215889 0)
(1.22592 -0.191223 0)
(1.17693 -0.172357 0)
(1.13922 -0.155628 0)
(1.11283 -0.139489 0)
(1.09688 -0.122964 0)
(1.09006 -0.105118 0)
(1.09047 -0.0852101 0)
(1.09608 -0.0630918 0)
(1.10531 -0.0388434 0)
(1.11701 -0.0128605 0)
(1.13107 0.0147886 0)
(1.14745 0.0445347 0)
(1.16718 0.0760003 0)
(1.1896 0.109111 0)
(1.21365 0.143945 0)
(1.23812 0.180289 0)
(1.26146 0.217419 0)
(1.28188 0.254037 0)
(1.29761 0.288345 0)
(1.30714 0.318267 0)
(1.30951 0.341774 0)
(1.30447 0.357246 0)
(1.29252 0.363748 0)
(1.2748 0.361217 0)
(1.25291 0.350455 0)
(1.22862 0.332935 0)
(1.20361 0.310492 0)
(1.17925 0.285012 0)
(1.15653 0.25819 0)
(1.13607 0.23139 0)
(1.11815 0.205601 0)
(1.10278 0.181471 0)
(1.08981 0.15936 0)
(1.07902 0.139434 0)
(1.07008 0.121682 0)
(1.06276 0.106091 0)
(1.05668 0.0923954 0)
(1.05182 0.0807215 0)
(1.04759 0.0703229 0)
(1.04447 0.0621546 0)
(1.04119 0.0539156 0)
(1.03957 0.0494499 0)
(1.03606 0.041462 0)
(0.999761 -0.00757742 0)
(0.999326 -0.0235419 0)
(0.996542 -0.0399502 0)
(0.995371 -0.0594901 0)
(0.989161 -0.0798573 0)
(0.989694 -0.108038 0)
(0.978375 -0.135438 0)
(0.98778 -0.181381 0)
(0.9703 -0.219858 0)
(1.00519 -0.298548 0)
(0.998915 -0.361222 0)
(1.07238 -0.461965 0)
(1.1627 -0.601778 0)
(1.24516 -0.628718 0)
(1.26913 -0.568135 0)
(1.22472 -0.474732 0)
(1.13474 -0.377533 0)
(1.03209 -0.287686 0)
(0.918992 -0.214271 0)
(0.819488 -0.151877 0)
(0.715222 -0.113539 0)
(0.632749 -0.0972565 0)
(0.593551 -0.0963966 0)
(0.59113 -0.104324 0)
(0.609812 -0.112949 0)
(0.637524 -0.116102 0)
(0.667005 -0.111261 0)
(0.694242 -0.0987412 0)
(0.717678 -0.0802534 0)
(0.73706 -0.0575443 0)
(0.753807 -0.032441 0)
(0.769705 -0.00598473 0)
(0.786402 0.0222769 0)
(0.805548 0.0518232 0)
(0.828419 0.0827392 0)
(0.855481 0.115643 0)
(0.886471 0.150918 0)
(0.920451 0.188299 0)
(0.955909 0.226768 0)
(0.990987 0.264592 0)
(1.02376 0.299509 0)
(1.05251 0.329127 0)
(1.07591 0.35129 0)
(1.09323 0.364417 0)
(1.10437 0.367833 0)
(1.1099 0.36187 0)
(1.11075 0.347731 0)
(1.10808 0.327203 0)
(1.10304 0.302315 0)
(1.09665 0.27503 0)
(1.08975 0.247031 0)
(1.08292 0.219612 0)
(1.07655 0.193673 0)
(1.07083 0.169756 0)
(1.06587 0.14815 0)
(1.06161 0.128903 0)
(1.05807 0.11203 0)
(1.05505 0.0972535 0)
(1.05266 0.0846949 0)
(1.05049 0.0735661 0)
(1.04901 0.0648289 0)
(1.04724 0.0561242 0)
(1.04656 0.0513638 0)
(1.04456 0.0431348 0)
(0.999687 -0.00690596 0)
(0.998535 -0.0214238 0)
(0.993943 -0.0365088 0)
(0.990532 -0.0545323 0)
(0.979824 -0.0736404 0)
(0.976591 -0.100519 0)
(0.954717 -0.126565 0)
(0.960828 -0.173929 0)
(0.913802 -0.20816 0)
(0.959996 -0.307476 0)
(0.861804 -0.347515 0)
(1.02498 -0.567624 0)
(0.970198 -0.720104 0)
(0.944796 -0.632998 0)
(0.829089 -0.47546 0)
(0.658554 -0.322399 0)
(0.494881 -0.197681 0)
(0.366044 -0.110558 0)
(0.263064 -0.0607827 0)
(0.195549 -0.00991484 0)
(0.146885 -0.0474945 0)
(0.18941 -0.113686 0)
(0.264053 -0.159762 0)
(0.331189 -0.186027 0)
(0.383237 -0.194746 0)
(0.420225 -0.188422 0)
(0.444766 -0.170509 0)
(0.45985 -0.144952 0)
(0.468308 -0.115202 0)
(0.472738 -0.0838648 0)
(0.475377 -0.0526741 0)
(0.478107 -0.0227173 0)
(0.482526 0.00535132 0)
(0.490071 0.0322093 0)
(0.502612 0.0592897 0)
(0.521153 0.0878845 0)
(0.54598 0.118957 0)
(0.576868 0.152811 0)
(0.613097 0.188856 0)
(0.653478 0.225677 0)
(0.696499 0.261197 0)
(0.740544 0.293091 0)
(0.783797 0.318955 0)
(0.824605 0.336772 0)
(0.861803 0.345387 0)
(0.894712 0.344654 0)
(0.923069 0.335359 0)
(0.946957 0.318992 0)
(0.966719 0.297436 0)
(0.982843 0.272641 0)
(0.995872 0.246372 0)
(1.00633 0.220054 0)
(1.01472 0.19474 0)
(1.02144 0.171113 0)
(1.02685 0.149584 0)
(1.03117 0.130284 0)
(1.0347 0.113299 0)
(1.03748 0.0983754 0)
(1.03984 0.0856769 0)
(1.04159 0.0744017 0)
(1.0432 0.0655521 0)
(1.04427 0.0567568 0)
(1.04527 0.0519401 0)
(1.04603 0.0437793 0)
(0.99969 -0.00587322 0)
(0.99762 -0.0181067 0)
(0.991709 -0.031115 0)
(0.985328 -0.0463113 0)
(0.971702 -0.0633974 0)
(0.96188 -0.0860091 0)
(0.93475 -0.110881 0)
(0.927093 -0.15055 0)
(0.867891 -0.186307 0)
(0.889022 -0.2737 0)
(0.722887 -0.303889 0)
(0.905507 -0.59257 0)
(0.329185 -0.393269 0)
(0.233636 -0.237462 0)
(0.114888 -0.177772 0)
(0.0528192 -0.134208 0)
(0.0280325 -0.0931477 0)
(0.0173094 -0.0618485 0)
(0.0129937 -0.0390196 0)
(0.0069485 -0.0205989 0)
(0.0593752 -0.153124 0)
(0.116869 -0.22177 0)
(0.160763 -0.237975 0)
(0.177956 -0.231512 0)
(0.181241 -0.213307 0)
(0.175609 -0.188154 0)
(0.166148 -0.158858 0)
(0.155856 -0.127887 0)
(0.146835 -0.0970616 0)
(0.140247 -0.0676019 0)
(0.136712 -0.0403617 0)
(0.13625 -0.0158789 0)
(0.13865 0.00608884 0)
(0.145274 0.0269444 0)
(0.157328 0.0479427 0)
(0.174443 0.0702558 0)
(0.197173 0.0949928 0)
(0.226059 0.122679 0)
(0.261402 0.15307 0)
(0.302927 0.184961 0)
(0.350304 0.21605 0)
(0.403014 0.245082 0)
(0.459106 0.269839 0)
(0.51673 0.288212 0)
(0.574256 0.298872 0)
(0.630172 0.301378 0)
(0.683185 0.296129 0)
(0.732329 0.28422 0)
(0.776997 0.267199 0)
(0.816897 0.246758 0)
(0.852007 0.224492 0)
(0.882507 0.20173 0)
(0.908738 0.179503 0)
(0.931102 0.158503 0)
(0.950063 0.139192 0)
(0.966032 0.121737 0)
(0.979463 0.106293 0)
(0.990687 0.0926288 0)
(1.00008 0.0809821 0)
(1.00796 0.0705576 0)
(1.01436 0.0624095 0)
(1.02021 0.054231 0)
(1.02387 0.0498181 0)
(1.02966 0.0422984 0)
(0.999691 -0.00447958 0)
(0.996826 -0.0137754 0)
(0.989779 -0.0237979 0)
(0.980787 -0.035354 0)
(0.964715 -0.0488897 0)
(0.948758 -0.0659218 0)
(0.918048 -0.0869019 0)
(0.89525 -0.115206 0)
(0.834648 -0.15054 0)
(0.812353 -0.202778 0)
(0.670741 -0.258849 0)
(0.729211 -0.385688 0)
(0.308186 -0.267074 0)
(0.296363 -0.253705 0)
(0.203994 -0.22924 0)
(0.125726 -0.177922 0)
(0.0759997 -0.122008 0)
(0.0453156 -0.0777512 0)
(0.0296559 -0.0488086 0)
(0.0159607 -0.0378273 0)
(0.0566313 -0.177608 0)
(0.0190434 -0.212428 0)
(-0.00979043 -0.207175 0)
(-0.0523918 -0.193775 0)
(-0.0909451 -0.176726 0)
(-0.127504 -0.155915 0)
(-0.159071 -0.132232 0)
(-0.185462 -0.107363 0)
(-0.205836 -0.0827565 0)
(-0.220176 -0.0594763 0)
(-0.228455 -0.0380666 0)
(-0.231166 -0.0185871 0)
(-0.229409 -0.000680111 0)
(-0.223068 0.0166807 0)
(-0.21124 0.0338596 0)
(-0.194136 0.0519457 0)
(-0.171098 0.0717203 0)
(-0.141417 0.0935375 0)
(-0.104411 0.117229 0)
(-0.0598197 0.141957 0)
(-0.00656548 0.166431 0)
(0.0545217 0.189357 0)
(0.121285 0.209181 0)
(0.192498 0.224321 0)
(0.266515 0.233631 0)
(0.341357 0.236736 0)
(0.415008 0.233798 0)
(0.485763 0.225573 0)
(0.552295 0.2132 0)
(0.613644 0.197966 0)
(0.669236 0.1811 0)
(0.718868 0.163649 0)
(0.762643 0.146445 0)
(0.800879 0.130054 0)
(0.834015 0.114883 0)
(0.86259 0.101073 0)
(0.887079 0.0888079 0)
(0.908143 0.0778694 0)
(0.925957 0.0685493 0)
(0.941645 0.0601016 0)
(0.954182 0.0535712 0)
(0.96685 0.046857 0)
(0.974061 0.0433703 0)
(0.987802 0.0371663 0)
(0.999657 -0.00279943 0)
(0.996314 -0.00864239 0)
(0.98822 -0.0149051 0)
(0.977698 -0.0222615 0)
(0.959037 -0.0306975 0)
(0.940034 -0.0418256 0)
(0.903738 -0.0546597 0)
(0.875897 -0.0739211 0)
(0.803452 -0.0938851 0)
(0.776288 -0.13075 0)
(0.613371 -0.153641 0)
(0.679433 -0.239239 0)
(0.287792 -0.144064 0)
(0.296641 -0.112349 0)
(0.212066 -0.0964763 0)
(0.136901 -0.0779522 0)
(0.0869108 -0.0576645 0)
(0.0537265 -0.0403641 0)
(0.0331173 -0.0289984 0)
(0.0182681 -0.0344146 0)
(0.0146789 -0.139306 0)
(-0.0965562 -0.152204 0)
(-0.169688 -0.147423 0)
(-0.249597 -0.136707 0)
(-0.321285 -0.123097 0)
(-0.386569 -0.107445 0)
(-0.442111 -0.0906859 0)
(-0.488137 -0.0737284 0)
(-0.524231 -0.0573221 0)
(-0.551029 -0.0419799 0)
(-0.569092 -0.0279559 0)
(-0.579322 -0.0152983 0)
(-0.58212 -0.00348865 0)
(-0.578936 0.00817954 0)
(-0.569192 0.020002 0)
(-0.552749 0.0324446 0)
(-0.529052 0.0458376 0)
(-0.497363 0.0603679 0)
(-0.456913 0.0759201 0)
(-0.407157 0.0920664 0)
(-0.347732 0.108161 0)
(-0.279353 0.122819 0)
(-0.202999 0.135567 0)
(-0.120152 0.145295 0)
(-0.032582 0.151309 0)
(0.0574082 0.153377 0)
(0.147382 0.151632 0)
(0.235258 0.146445 0)
(0.319277 0.138625 0)
(0.39801 0.129042 0)
(0.470488 0.118453 0)
(0.53624 0.107497 0)
(0.595178 0.0966827 0)
(0.647542 0.0863517 0)
(0.693699 0.0767654 0)
(0.734284 0.067996 0)
(0.769672 0.0601894 0)
(0.800876 0.0531688 0)
(0.827631 0.047195 0)
(0.852097 0.0416891 0)
(0.871609 0.0374952 0)
(0.892655 0.0330195 0)
(0.904103 0.0308211 0)
(0.928131 0.0265876 0)
(0.999649 -0.00095604 0)
(0.996022 -0.00293785 0)
(0.987433 -0.00509041 0)
(0.975976 -0.00757302 0)
(0.956174 -0.0105218 0)
(0.935098 -0.0142308 0)
(0.896761 -0.0188525 0)
(0.864709 -0.0250722 0)
(0.789615 -0.0325674 0)
(0.754964 -0.0436863 0)
(0.592078 -0.0529934 0)
(0.648121 -0.0780167 0)
(0.270963 -0.045324 0)
(0.29034 -0.0415565 0)
(0.215902 -0.0401754 0)
(0.145812 -0.0332396 0)
(0.0958017 -0.024133 0)
(0.0602257 -0.0164121 0)
(0.0353205 -0.0116677 0)
(0.0183621 -0.0143385 0)
(-0.0166688 -0.0522022 0)
(-0.167973 -0.0545249 0)
(-0.270948 -0.0518927 0)
(-0.376665 -0.0480457 0)
(-0.4695 -0.0433601 0)
(-0.553251 -0.0380317 0)
(-0.624708 -0.0322573 0)
(-0.684645 -0.0263832 0)
(-0.732666 -0.0206757 0)
(-0.76964 -0.0153337 0)
(-0.796194 -0.0104402 0)
(-0.813165 -0.00595367 0)
(-0.82127 -0.0016752 0)
(-0.821633 0.00240998 0)
(-0.814418 0.00672667 0)
(-0.799547 0.0112709 0)
(-0.776327 0.0161104 0)
(-0.743984 0.0213104 0)
(-0.701789 0.0268238 0)
(-0.649213 0.0325063 0)
(-0.586094 0.0381246 0)
(-0.512862 0.0432765 0)
(-0.430462 0.0476937 0)
(-0.340379 0.0510195 0)
(-0.244584 0.0530328 0)
(-0.145433 0.0536655 0)
(-0.0454863 0.05301 0)
(0.0530458 0.0511071 0)
(0.148213 0.0483472 0)
(0.238197 0.0450396 0)
(0.321755 0.0414252 0)
(0.398265 0.0377055 0)
(0.467514 0.0340427 0)
(0.52969 0.0305417 0)
(0.585079 0.0272879 0)
(0.634377 0.0242989 0)
(0.677826 0.0216304 0)
(0.716697 0.0192116 0)
(0.750317 0.0171515 0)
(0.781653 0.0152245 0)
(0.806674 0.0137694 0)
(0.834418 0.0121677 0)
(0.849282 0.0114118 0)
(0.88153 0.00985822 0)
(0.999649 0.000956544 0)
(0.996022 0.00293861 0)
(0.987433 0.00509147 0)
(0.975976 0.00757447 0)
(0.956174 0.0105237 0)
(0.935098 0.0142333 0)
(0.896761 0.0188555 0)
(0.864709 0.0250758 0)
(0.789615 0.0325715 0)
(0.754964 0.0436911 0)
(0.592078 0.0529986 0)
(0.648121 0.0780232 0)
(0.270963 0.0453273 0)
(0.29034 0.041559 0)
(0.215902 0.040178 0)
(0.145812 0.0332425 0)
(0.0958018 0.0241365 0)
(0.0602258 0.0164162 0)
(0.0353204 0.0116725 0)
(0.0183621 0.014345 0)
(-0.0166706 0.0522363 0)
(-0.167977 0.054571 0)
(-0.270952 0.0519495 0)
(-0.376668 0.0481085 0)
(-0.469501 0.0434221 0)
(-0.553248 0.0380861 0)
(-0.624703 0.0322983 0)
(-0.684638 0.0264062 0)
(-0.732658 0.0206772 0)
(-0.769631 0.0153107 0)
(-0.796187 0.010393 0)
(-0.813159 0.00588395 0)
(-0.821263 0.00158102 0)
(-0.821635 -0.00252574 0)
(-0.814431 -0.00686117 0)
(-0.799566 -0.0114211 0)
(-0.776356 -0.0162703 0)
(-0.744023 -0.021472 0)
(-0.70184 -0.0269778 0)
(-0.649275 -0.0326434 0)
(-0.586166 -0.0382349 0)
(-0.512944 -0.0433494 0)
(-0.430553 -0.0477196 0)
(-0.340481 -0.0509969 0)
(-0.244694 -0.0529733 0)
(-0.145541 -0.0535698 0)
(-0.045589 -0.0528706 0)
(0.0529367 -0.0509464 0)
(0.148108 -0.0481742 0)
(0.238098 -0.0448626 0)
(0.321665 -0.0412519 0)
(0.398184 -0.0375421 0)
(0.467443 -0.0338939 0)
(0.529631 -0.0304103 0)
(0.585031 -0.0271758 0)
(0.634339 -0.0242065 0)
(0.677799 -0.0215578 0)
(0.716679 -0.0191578 0)
(0.750308 -0.0171155 0)
(0.781651 -0.0152045 0)
(0.806678 -0.0137638 0)
(0.834427 -0.012175 0)
(0.849294 -0.0114283 0)
(0.881547 -0.00988708 0)
(0.999657 0.00279993 0)
(0.996314 0.00864315 0)
(0.98822 0.0149062 0)
(0.977698 0.0222629 0)
(0.959037 0.0306994 0)
(0.940034 0.041828 0)
(0.903739 0.0546626 0)
(0.875897 0.0739247 0)
(0.803452 0.0938892 0)
(0.776288 0.130755 0)
(0.613371 0.153646 0)
(0.679433 0.239245 0)
(0.287792 0.144067 0)
(0.296642 0.112351 0)
(0.212067 0.0964788 0)
(0.136902 0.077955 0)
(0.0869111 0.0576679 0)
(0.0537268 0.0403682 0)
(0.0331176 0.0290034 0)
(0.0182685 0.0344223 0)
(0.0146786 0.139342 0)
(-0.0965598 0.15225 0)
(-0.169688 0.147478 0)
(-0.249593 0.136767 0)
(-0.321275 0.123156 0)
(-0.386551 0.107496 0)
(-0.442086 0.090724 0)
(-0.488105 0.0737498 0)
(-0.524194 0.0573241 0)
(-0.55099 0.0419608 0)
(-0.569051 0.0279143 0)
(-0.579289 0.0152357 0)
(-0.582105 0.00340823 0)
(-0.578932 -0.00828561 0)
(-0.569199 -0.0201249 0)
(-0.552773 -0.0325807 0)
(-0.529095 -0.045982 0)
(-0.497427 -0.0605136 0)
(-0.457001 -0.0760585 0)
(-0.407267 -0.0921887 0)
(-0.347863 -0.108257 0)
(-0.279504 -0.12288 0)
(-0.203165 -0.135583 0)
(-0.120332 -0.14527 0)
(-0.0327799 -0.151247 0)
(0.0571978 -0.15327 0)
(0.147171 -0.151502 0)
(0.235048 -0.146295 0)
(0.319074 -0.138464 0)
(0.397818 -0.128879 0)
(0.470313 -0.118297 0)
(0.536083 -0.107352 0)
(0.595042 -0.0965534 0)
(0.647429 -0.0862406 0)
(0.693608 -0.0766734 0)
(0.734216 -0.0679232 0)
(0.769624 -0.0601351 0)
(0.800848 -0.0531317 0)
(0.827621 -0.0471738 0)
(0.852102 -0.0416819 0)
(0.871626 -0.0375003 0)
(0.892683 -0.0330352 0)
(0.904139 -0.0308444 0)
(0.928175 -0.0266203 0)
(0.999691 0.00448007 0)
(0.996826 0.0137761 0)
(0.989779 0.0237989 0)
(0.980787 0.0353554 0)
(0.964716 0.0488916 0)
(0.948758 0.0659242 0)
(0.918048 0.0869047 0)
(0.89525 0.11521 0)
(0.834649 0.150544 0)
(0.812354 0.202783 0)
(0.670741 0.258854 0)
(0.729211 0.385694 0)
(0.308186 0.267078 0)
(0.296363 0.253708 0)
(0.203995 0.229242 0)
(0.125726 0.177925 0)
(0.0760002 0.122011 0)
(0.0453162 0.0777555 0)
(0.0296569 0.0488137 0)
(0.0159615 0.0378343 0)
(0.0566381 0.177645 0)
(0.0190481 0.212473 0)
(-0.00978136 0.207226 0)
(-0.0523758 0.193828 0)
(-0.0909204 0.176776 0)
(-0.127469 0.155958 0)
(-0.159027 0.132262 0)
(-0.185408 0.107378 0)
(-0.205776 0.0827545 0)
(-0.220112 0.0594564 0)
(-0.228392 0.0380291 0)
(-0.231107 0.0185308 0)
(-0.22937 0.000604483 0)
(-0.223041 -0.0167658 0)
(-0.211228 -0.0339572 0)
(-0.194141 -0.0520548 0)
(-0.171122 -0.0718373 0)
(-0.141461 -0.0936567 0)
(-0.104477 -0.117342 0)
(-0.0599074 -0.142056 0)
(-0.0066752 -0.166507 0)
(0.0543925 -0.189399 0)
(0.121136 -0.20918 0)
(0.192338 -0.224283 0)
(0.266344 -0.233557 0)
(0.341177 -0.236629 0)
(0.414825 -0.233667 0)
(0.485584 -0.225427 0)
(0.552124 -0.213049 0)
(0.613487 -0.197818 0)
(0.669097 -0.180962 0)
(0.718749 -0.163525 0)
(0.762546 -0.146338 0)
(0.800803 -0.129966 0)
(0.833962 -0.114815 0)
(0.862557 -0.101023 0)
(0.887065 -0.0887745 0)
(0.908146 -0.0778513 0)
(0.925976 -0.068545 0)
(0.941677 -0.0601089 0)
(0.954224 -0.0535887 0)
(0.966901 -0.0468824 0)
(0.974119 -0.0434019 0)
(0.987865 -0.0372036 0)
(0.99969 0.00587371 0)
(0.99762 0.0181075 0)
(0.991709 0.031116 0)
(0.985328 0.0463127 0)
(0.971702 0.0633992 0)
(0.96188 0.0860114 0)
(0.93475 0.110884 0)
(0.927093 0.150554 0)
(0.867892 0.186311 0)
(0.889022 0.273705 0)
(0.722888 0.303894 0)
(0.905508 0.592576 0)
(0.329185 0.393272 0)
(0.233636 0.237464 0)
(0.114888 0.177774 0)
(0.0528192 0.134211 0)
(0.0280328 0.0931509 0)
(0.0173099 0.0618521 0)
(0.0129944 0.0390234 0)
(0.00694851 0.0206027 0)
(0.0593836 0.153158 0)
(0.116885 0.221814 0)
(0.160784 0.238022 0)
(0.177984 0.231559 0)
(0.181277 0.21335 0)
(0.175653 0.188189 0)
(0.166201 0.158882 0)
(0.155916 0.127898 0)
(0.1469 0.0970566 0)
(0.140314 0.0675817 0)
(0.136777 0.0403274 0)
(0.136308 0.0158322 0)
(0.138694 -0.00614942 0)
(0.145311 -0.027014 0)
(0.157352 -0.0480221 0)
(0.174453 -0.0703449 0)
(0.197169 -0.0950892 0)
(0.226038 -0.122777 0)
(0.261364 -0.153163 0)
(0.302872 -0.185041 0)
(0.35023 -0.216108 0)
(0.402922 -0.245106 0)
(0.458999 -0.269827 0)
(0.516611 -0.288163 0)
(0.574128 -0.298789 0)
(0.630041 -0.301268 0)
(0.683057 -0.295999 0)
(0.732209 -0.284081 0)
(0.776889 -0.26706 0)
(0.816807 -0.246627 0)
(0.851937 -0.224373 0)
(0.882458 -0.201628 0)
(0.90871 -0.179418 0)
(0.931094 -0.158437 0)
(0.950073 -0.139143 0)
(0.966058 -0.121704 0)
(0.979503 -0.106275 0)
(0.990738 -0.0926241 0)
(1.00014 -0.080989 0)
(1.00802 -0.070574 0)
(1.01443 -0.0624342 0)
(1.02028 -0.0542617 0)
(1.02395 -0.0498538 0)
(1.02974 -0.0423374 0)
(0.999687 0.00690645 0)
(0.998535 0.0214246 0)
(0.993943 0.0365098 0)
(0.990532 0.0545336 0)
(0.979824 0.0736421 0)
(0.976591 0.100521 0)
(0.954718 0.126568 0)
(0.960828 0.173933 0)
(0.913802 0.208163 0)
(0.959997 0.307481 0)
(0.861804 0.34752 0)
(1.02498 0.567631 0)
(0.970199 0.72011 0)
(0.944794 0.633002 0)
(0.829085 0.475463 0)
(0.658548 0.322401 0)
(0.494872 0.197684 0)
(0.366035 0.110563 0)
(0.263056 0.0607889 0)