/*--------------------------------*- C++ -*----------------------------------*\
  =========                 |
  \\      /  F ield         | OpenFOAM: The Open Source CFD Toolbox
   \\    /   O peration     | Website:  https://openfoam.org
    \\  /    A nd           | Version:  10
     \\/     M anipulation  |
\*---------------------------------------------------------------------------*/
FoamFile
{
    format      ascii;
    class       volVectorField;
    location    "19300";
    object      Ua;
}
// * * * * * * * * * * * * * * * * * * * * * * * * * * * * * * * * * * * * * //

dimensions      [0 1 -1 0 0 0 0];

internalField   nonuniform List<vector> 
6400
(
(-7.25188e-07 1.47408e-07 0)
(-2.2283e-06 1.58128e-07 0)
(-3.91026e-06 1.83764e-07 0)
(-5.97693e-06 2.36326e-07 0)
(-8.78164e-06 3.33783e-07 0)
(-7.66898e-06 1.65619e-07 0)
(-2.51468e-06 7.48494e-05 0)
(-7.32146e-08 6.63765e-07 0)
(-2.30567e-08 2.11859e-07 0)
(-1.28503e-08 1.15087e-07 0)
(-9.37553e-09 7.6216e-08 0)
(-6.80087e-09 5.60361e-08 0)
(-5.17955e-09 4.39376e-08 0)
(-4.31732e-09 3.5966e-08 0)
(-3.73727e-09 3.03099e-08 0)
(-3.21218e-09 2.61504e-08 0)
(-2.77106e-09 2.29667e-08 0)
(-2.42312e-09 2.04786e-08 0)
(-2.17831e-09 1.84771e-08 0)
(-1.98619e-09 1.68412e-08 0)
(-1.82168e-09 1.54921e-08 0)
(-1.68586e-09 1.4361e-08 0)
(-1.56986e-09 1.34002e-08 0)
(-1.466e-09 1.25859e-08 0)
(-1.37219e-09 1.18792e-08 0)
(-1.28433e-09 1.12641e-08 0)
(-1.20552e-09 1.07338e-08 0)
(-1.13991e-09 1.02703e-08 0)
(-1.08239e-09 9.86675e-09 0)
(-1.02585e-09 9.50672e-09 0)
(-9.65075e-10 9.18561e-09 0)
(-8.90839e-10 8.90147e-09 0)
(-8.21516e-10 8.66568e-09 0)
(-7.61251e-10 8.56919e-09 0)
(-6.87453e-10 8.48165e-09 0)
(-5.979e-10 8.40476e-09 0)
(-4.9112e-10 8.33961e-09 0)
(-3.67013e-10 8.2901e-09 0)
(-2.27406e-10 8.25793e-09 0)
(-7.7049e-11 8.23114e-09 0)
(7.7049e-11 8.23114e-09 0)
(2.27406e-10 8.25793e-09 0)
(3.67013e-10 8.2901e-09 0)
(4.9112e-10 8.33961e-09 0)
(5.979e-10 8.40476e-09 0)
(6.87453e-10 8.48165e-09 0)
(7.61251e-10 8.56919e-09 0)
(8.21516e-10 8.66568e-09 0)
(8.90839e-10 8.90147e-09 0)
(9.65075e-10 9.18561e-09 0)
(1.02585e-09 9.50672e-09 0)
(1.08239e-09 9.86675e-09 0)
(1.13991e-09 1.02703e-08 0)
(1.20552e-09 1.07338e-08 0)
(1.28433e-09 1.12641e-08 0)
(1.37219e-09 1.18792e-08 0)
(1.466e-09 1.25859e-08 0)
(1.56986e-09 1.34002e-08 0)
(1.68586e-09 1.4361e-08 0)
(1.82168e-09 1.54921e-08 0)
(1.98619e-09 1.68412e-08 0)
(2.17831e-09 1.84771e-08 0)
(2.42312e-09 2.04786e-08 0)
(2.77106e-09 2.29667e-08 0)
(3.21218e-09 2.61504e-08 0)
(3.73727e-09 3.03099e-08 0)
(4.31732e-09 3.5966e-08 0)
(5.17955e-09 4.39376e-08 0)
(6.80087e-09 5.60361e-08 0)
(9.37553e-09 7.6216e-08 0)
(1.28503e-08 1.15087e-07 0)
(2.30567e-08 2.11859e-07 0)
(7.32146e-08 6.63765e-07 0)
(2.51468e-06 7.48494e-05 0)
(7.66898e-06 1.65619e-07 0)
(8.78164e-06 3.33783e-07 0)
(5.97693e-06 2.36326e-07 0)
(3.91026e-06 1.83764e-07 0)
(2.2283e-06 1.58128e-07 0)
(7.25188e-07 1.47408e-07 0)
(-7.22903e-07 4.55988e-07 0)
(-2.22055e-06 4.88985e-07 0)
(-3.8936e-06 5.67805e-07 0)
(-5.94496e-06 7.29727e-07 0)
(-8.85692e-06 1.05971e-06 0)
(-1.58602e-05 1.50049e-06 0)
(-1.27151e-05 2.08079e-05 0)
(-2.32191e-06 8.71935e-06 0)
(-1.89001e-07 7.88636e-07 0)
(-4.63494e-08 2.93744e-07 0)
(-2.71795e-08 1.53014e-07 0)
(-1.8022e-08 1.03596e-07 0)
(-1.3117e-08 7.84055e-08 0)
(-1.0691e-08 6.29918e-08 0)
(-9.13541e-09 5.23418e-08 0)
(-7.76981e-09 4.47775e-08 0)
(-6.65355e-09 3.90841e-08 0)
(-5.78612e-09 3.4738e-08 0)
(-5.18669e-09 3.12709e-08 0)
(-4.71876e-09 2.84395e-08 0)
(-4.31867e-09 2.61218e-08 0)
(-3.99108e-09 2.41883e-08 0)
(-3.71249e-09 2.25463e-08 0)
(-3.4638e-09 2.11595e-08 0)
(-3.24059e-09 1.99597e-08 0)
(-3.03142e-09 1.89164e-08 0)
(-2.84388e-09 1.80232e-08 0)
(-2.6888e-09 1.72434e-08 0)
(-2.55344e-09 1.65627e-08 0)
(-2.42077e-09 1.59545e-08 0)
(-2.27925e-09 1.54119e-08 0)
(-2.10793e-09 1.49282e-08 0)
(-1.94815e-09 1.45229e-08 0)
(-1.80879e-09 1.43546e-08 0)
(-1.63738e-09 1.42012e-08 0)
(-1.4281e-09 1.4066e-08 0)
(-1.17662e-09 1.39513e-08 0)
(-8.81754e-10 1.38636e-08 0)
(-5.47501e-10 1.38057e-08 0)
(-1.8571e-10 1.37591e-08 0)
(1.8571e-10 1.37591e-08 0)
(5.47501e-10 1.38057e-08 0)
(8.81754e-10 1.38636e-08 0)
(1.17662e-09 1.39513e-08 0)
(1.4281e-09 1.4066e-08 0)
(1.63738e-09 1.42012e-08 0)
(1.80879e-09 1.43546e-08 0)
(1.94815e-09 1.45229e-08 0)
(2.10793e-09 1.49282e-08 0)
(2.27925e-09 1.54119e-08 0)
(2.42077e-09 1.59545e-08 0)
(2.55344e-09 1.65627e-08 0)
(2.6888e-09 1.72434e-08 0)
(2.84388e-09 1.80232e-08 0)
(3.03142e-09 1.89164e-08 0)
(3.24059e-09 1.99597e-08 0)
(3.4638e-09 2.11595e-08 0)
(3.71249e-09 2.25463e-08 0)
(3.99108e-09 2.41883e-08 0)
(4.31867e-09 2.61218e-08 0)
(4.71876e-09 2.84395e-08 0)
(5.18669e-09 3.12709e-08 0)
(5.78612e-09 3.4738e-08 0)
(6.65355e-09 3.90841e-08 0)
(7.76981e-09 4.47775e-08 0)
(9.13541e-09 5.23418e-08 0)
(1.0691e-08 6.29918e-08 0)
(1.3117e-08 7.84055e-08 0)
(1.8022e-08 1.03596e-07 0)
(2.71795e-08 1.53014e-07 0)
(4.63494e-08 2.93744e-07 0)
(1.89001e-07 7.88636e-07 0)
(2.32191e-06 8.71935e-06 0)
(1.27151e-05 2.08079e-05 0)
(1.58602e-05 1.50049e-06 0)
(8.85692e-06 1.05971e-06 0)
(5.94496e-06 7.29727e-07 0)
(3.8936e-06 5.67805e-07 0)
(2.22055e-06 4.88985e-07 0)
(7.22903e-07 4.55988e-07 0)
(-7.17696e-07 7.92663e-07 0)
(-2.20291e-06 8.49402e-07 0)
(-3.85561e-06 9.84541e-07 0)
(-5.86505e-06 1.26173e-06 0)
(-8.66023e-06 1.86046e-06 0)
(-1.38167e-05 3.52208e-06 0)
(-1.17142e-05 1.75713e-05 0)
(-2.48332e-06 1.59334e-05 0)
(-3.3565e-06 2.71641e-06 0)
(-4.05711e-06 1.52228e-05 0)
(-1.5133e-07 6.20399e-07 0)
(-4.66314e-08 2.89677e-07 0)
(-2.7355e-08 1.80149e-07 0)
(-2.05897e-08 1.34004e-07 0)
(-1.69556e-08 1.0689e-07 0)
(-1.40592e-08 8.94338e-08 0)
(-1.185e-08 7.69655e-08 0)
(-1.01896e-08 6.78586e-08 0)
(-9.08741e-09 6.07507e-08 0)
(-8.23574e-09 5.50066e-08 0)
(-7.50807e-09 5.03688e-08 0)
(-6.92253e-09 4.65362e-08 0)
(-6.42863e-09 4.32953e-08 0)
(-5.98907e-09 4.0575e-08 0)
(-5.59896e-09 3.82352e-08 0)
(-5.23204e-09 3.62055e-08 0)
(-4.90318e-09 3.44831e-08 0)
(-4.6354e-09 3.29826e-08 0)
(-4.40358e-09 3.16711e-08 0)
(-4.17707e-09 3.04999e-08 0)
(-3.93871e-09 2.94587e-08 0)
(-3.65564e-09 2.85289e-08 0)
(-3.39229e-09 2.77481e-08 0)
(-3.16065e-09 2.7424e-08 0)
(-2.87325e-09 2.7131e-08 0)
(-2.51842e-09 2.68755e-08 0)
(-2.086e-09 2.66618e-08 0)
(-1.57106e-09 2.65003e-08 0)
(-9.79246e-10 2.63933e-08 0)
(-3.32838e-10 2.63077e-08 0)
(3.32838e-10 2.63077e-08 0)
(9.79246e-10 2.63933e-08 0)
(1.57106e-09 2.65003e-08 0)
(2.086e-09 2.66618e-08 0)
(2.51842e-09 2.68755e-08 0)
(2.87325e-09 2.7131e-08 0)
(3.16065e-09 2.7424e-08 0)
(3.39229e-09 2.77481e-08 0)
(3.65564e-09 2.85289e-08 0)
(3.93871e-09 2.94587e-08 0)
(4.17707e-09 3.04999e-08 0)
(4.40358e-09 3.16711e-08 0)
(4.6354e-09 3.29826e-08 0)
(4.90318e-09 3.44831e-08 0)
(5.23204e-09 3.62055e-08 0)
(5.59896e-09 3.82352e-08 0)
(5.98907e-09 4.0575e-08 0)
(6.42863e-09 4.32953e-08 0)
(6.92253e-09 4.65362e-08 0)
(7.50807e-09 5.03688e-08 0)
(8.23574e-09 5.50066e-08 0)
(9.08741e-09 6.07507e-08 0)
(1.01896e-08 6.78586e-08 0)
(1.185e-08 7.69655e-08 0)
(1.40592e-08 8.94338e-08 0)
(1.69556e-08 1.0689e-07 0)
(2.05897e-08 1.34004e-07 0)
(2.7355e-08 1.80149e-07 0)
(4.66314e-08 2.89677e-07 0)
(1.5133e-07 6.20399e-07 0)
(4.05711e-06 1.52228e-05 0)
(3.3565e-06 2.71641e-06 0)
(2.48332e-06 1.59334e-05 0)
(1.17142e-05 1.75713e-05 0)
(1.38167e-05 3.52208e-06 0)
(8.66023e-06 1.86046e-06 0)
(5.86505e-06 1.26173e-06 0)
(3.85561e-06 9.84541e-07 0)
(2.20291e-06 8.49402e-07 0)
(7.17696e-07 7.92663e-07 0)
(-7.08861e-07 1.15829e-06 0)
(-2.17307e-06 1.23968e-06 0)
(-3.79157e-06 1.43251e-06 0)
(-5.72814e-06 1.82456e-06 0)
(-8.29646e-06 2.67002e-06 0)
(-1.20303e-05 4.97493e-06 0)
(-1.03467e-05 1.51528e-05 0)
(-4.03747e-06 1.44023e-05 0)
(-8.46943e-06 5.8959e-06 0)
(-3.72798e-06 2.68728e-05 0)
(1.86767e-06 4.95824e-06 0)
(-2.15189e-06 7.49882e-06 0)
(-1.32919e-07 6.19176e-07 0)
(-4.8095e-08 3.25431e-07 0)
(-3.20443e-08 2.07506e-07 0)
(-2.41134e-08 1.59134e-07 0)
(-1.93434e-08 1.31007e-07 0)
(-1.61312e-08 1.12845e-07 0)
(-1.41868e-08 9.95813e-08 0)
(-1.2739e-08 8.92717e-08 0)
(-1.15195e-08 8.12226e-08 0)
(-1.05739e-08 7.47149e-08 0)
(-9.79014e-09 6.92749e-08 0)
(-9.09655e-09 6.4767e-08 0)
(-8.49326e-09 6.09259e-08 0)
(-7.92168e-09 5.76067e-08 0)
(-7.40966e-09 5.48287e-08 0)
(-7.00428e-09 5.24174e-08 0)
(-6.658e-09 5.03092e-08 0)
(-6.32054e-09 4.84293e-08 0)
(-5.97306e-09 4.67685e-08 0)
(-5.57516e-09 4.52845e-08 0)
(-5.20699e-09 4.4034e-08 0)
(-4.87785e-09 4.35158e-08 0)
(-4.46342e-09 4.30515e-08 0)
(-3.94243e-09 4.26511e-08 0)
(-3.29301e-09 4.23196e-08 0)
(-2.49995e-09 4.20694e-08 0)
(-1.56786e-09 4.19015e-08 0)
(-5.34681e-10 4.17689e-08 0)
(5.34681e-10 4.17689e-08 0)
(1.56786e-09 4.19015e-08 0)
(2.49995e-09 4.20694e-08 0)
(3.29301e-09 4.23196e-08 0)
(3.94243e-09 4.26511e-08 0)
(4.46342e-09 4.30515e-08 0)
(4.87785e-09 4.35158e-08 0)
(5.20699e-09 4.4034e-08 0)
(5.57516e-09 4.52845e-08 0)
(5.97306e-09 4.67685e-08 0)
(6.32054e-09 4.84293e-08 0)
(6.658e-09 5.03092e-08 0)
(7.00428e-09 5.24174e-08 0)
(7.40966e-09 5.48287e-08 0)
(7.92168e-09 5.76067e-08 0)
(8.49326e-09 6.09259e-08 0)
(9.09655e-09 6.4767e-08 0)
(9.79014e-09 6.92749e-08 0)
(1.05739e-08 7.47149e-08 0)
(1.15195e-08 8.12226e-08 0)
(1.2739e-08 8.92717e-08 0)
(1.41868e-08 9.95813e-08 0)
(1.61312e-08 1.12845e-07 0)
(1.93434e-08 1.31007e-07 0)
(2.41134e-08 1.59134e-07 0)
(3.20443e-08 2.07506e-07 0)
(4.8095e-08 3.25431e-07 0)
(1.32919e-07 6.19176e-07 0)
(2.15189e-06 7.49882e-06 0)
(-1.86767e-06 4.95824e-06 0)
(3.72798e-06 2.68728e-05 0)
(8.46943e-06 5.8959e-06 0)
(4.03747e-06 1.44023e-05 0)
(1.03467e-05 1.51528e-05 0)
(1.20303e-05 4.97493e-06 0)
(8.29646e-06 2.67002e-06 0)
(5.72814e-06 1.82456e-06 0)
(3.79157e-06 1.43251e-06 0)
(2.17307e-06 1.23968e-06 0)
(7.08861e-07 1.15829e-06 0)
(-6.95664e-07 1.55308e-06 0)
(-2.12869e-06 1.6592e-06 0)
(-3.69734e-06 1.90857e-06 0)
(-5.53032e-06 2.40715e-06 0)
(-7.80957e-06 3.44682e-06 0)
(-1.04795e-05 5.98505e-06 0)
(-9.19567e-06 1.33134e-05 0)
(-4.93392e-06 1.32957e-05 0)
(-7.06203e-06 8.8173e-06 0)
(-3.49526e-06 2.16304e-05 0)
(5.89536e-07 9.84561e-06 0)
(-6.82593e-08 1.38229e-05 0)
(-3.6506e-06 3.16941e-06 0)
(-5.04648e-06 1.58685e-05 0)
(-2.0267e-07 7.11881e-07 0)
(-6.32271e-08 3.89562e-07 0)
(-3.62701e-08 2.45393e-07 0)
(-2.63139e-08 1.87719e-07 0)
(-2.18094e-08 1.56484e-07 0)
(-1.89579e-08 1.35894e-07 0)
(-1.67614e-08 1.21422e-07 0)
(-1.52044e-08 1.10465e-07 0)
(-1.39739e-08 1.01639e-07 0)
(-1.29081e-08 9.45549e-08 0)
(-1.2019e-08 8.86418e-08 0)
(-1.11703e-08 8.35797e-08 0)
(-1.04122e-08 7.94454e-08 0)
(-9.84016e-09 7.58789e-08 0)
(-9.36151e-09 7.27677e-08 0)
(-8.89524e-09 7.00023e-08 0)
(-8.43089e-09 6.75877e-08 0)
(-7.93422e-09 6.54325e-08 0)
(-7.48051e-09 6.36083e-08 0)
(-7.06283e-09 6.28536e-08 0)
(-6.52412e-09 6.21851e-08 0)
(-5.82819e-09 6.16141e-08 0)
(-4.92984e-09 6.11411e-08 0)
(-3.78823e-09 6.07762e-08 0)
(-2.39833e-09 6.05216e-08 0)
(-8.22068e-10 6.03261e-08 0)
(8.22068e-10 6.03261e-08 0)
(2.39833e-09 6.05216e-08 0)
(3.78823e-09 6.07762e-08 0)
(4.92984e-09 6.11411e-08 0)
(5.82819e-09 6.16141e-08 0)
(6.52412e-09 6.21851e-08 0)
(7.06283e-09 6.28536e-08 0)
(7.48051e-09 6.36083e-08 0)
(7.93422e-09 6.54325e-08 0)
(8.43089e-09 6.75877e-08 0)
(8.89524e-09 7.00023e-08 0)
(9.36151e-09 7.27677e-08 0)
(9.84016e-09 7.58789e-08 0)
(1.04122e-08 7.94454e-08 0)
(1.11703e-08 8.35797e-08 0)
(1.2019e-08 8.86418e-08 0)
(1.29081e-08 9.45549e-08 0)
(1.39739e-08 1.01639e-07 0)
(1.52044e-08 1.10465e-07 0)
(1.67614e-08 1.21422e-07 0)
(1.89579e-08 1.35894e-07 0)
(2.18094e-08 1.56484e-07 0)
(2.63139e-08 1.87719e-07 0)
(3.62701e-08 2.45393e-07 0)
(6.32271e-08 3.89562e-07 0)
(2.0267e-07 7.11881e-07 0)
(5.04648e-06 1.58685e-05 0)
(3.6506e-06 3.16941e-06 0)
(6.82593e-08 1.38229e-05 0)
(-5.89536e-07 9.84561e-06 0)
(3.49526e-06 2.16304e-05 0)
(7.06203e-06 8.8173e-06 0)
(4.93392e-06 1.32957e-05 0)
(9.19567e-06 1.33134e-05 0)
(1.04795e-05 5.98505e-06 0)
(7.80957e-06 3.44682e-06 0)
(5.53032e-06 2.40715e-06 0)
(3.69734e-06 1.90857e-06 0)
(2.12869e-06 1.6592e-06 0)
(6.95664e-07 1.55308e-06 0)
(-6.77407e-07 1.97631e-06 0)
(-2.06772e-06 2.10615e-06 0)
(-3.57e-06 2.40784e-06 0)
(-5.27285e-06 2.99658e-06 0)
(-7.24008e-06 4.16268e-06 0)
(-9.13731e-06 6.66682e-06 0)
(-8.20337e-06 1.19526e-05 0)
(-5.3374e-06 1.2478e-05 0)
(-6.03507e-06 1.04862e-05 0)
(-3.36018e-06 1.80491e-05 0)
(-3.99322e-07 1.12698e-05 0)
(-9.02847e-07 1.27547e-05 0)
(-5.71917e-06 7.22358e-06 0)
(3.90171e-07 2.74171e-05 0)
(2.81865e-06 4.21244e-06 0)
(-3.65188e-06 1.03404e-05 0)
(-3.81616e-07 1.09897e-06 0)
(-9.47502e-08 4.95728e-07 0)
(-4.54482e-08 3.2128e-07 0)
(-3.19336e-08 2.26607e-07 0)
(-2.54576e-08 1.85339e-07 0)
(-2.1953e-08 1.61194e-07 0)
(-1.9618e-08 1.44487e-07 0)
(-1.77874e-08 1.32388e-07 0)
(-1.64137e-08 1.22936e-07 0)
(-1.51277e-08 1.15137e-07 0)
(-1.39993e-08 1.09089e-07 0)
(-1.32161e-08 1.03958e-07 0)
(-1.25825e-08 9.95299e-08 0)
(-1.19634e-08 9.56265e-08 0)
(-1.13772e-08 9.22956e-08 0)
(-1.0829e-08 8.93368e-08 0)
(-1.03448e-08 8.68186e-08 0)
(-9.87282e-09 8.57774e-08 0)
(-9.23887e-09 8.48716e-08 0)
(-8.38738e-09 8.41044e-08 0)
(-7.22725e-09 8.34528e-08 0)
(-5.65522e-09 8.29139e-08 0)
(-3.63116e-09 8.25065e-08 0)
(-1.25406e-09 8.2208e-08 0)
(1.25406e-09 8.2208e-08 0)
(3.63116e-09 8.25065e-08 0)
(5.65522e-09 8.29139e-08 0)
(7.22725e-09 8.34528e-08 0)
(8.38738e-09 8.41044e-08 0)
(9.23887e-09 8.48716e-08 0)
(9.87282e-09 8.57774e-08 0)
(1.03448e-08 8.68186e-08 0)
(1.0829e-08 8.93368e-08 0)
(1.13772e-08 9.22956e-08 0)
(1.19634e-08 9.56265e-08 0)
(1.25825e-08 9.95299e-08 0)
(1.32161e-08 1.03958e-07 0)
(1.39993e-08 1.09089e-07 0)
(1.51277e-08 1.15137e-07 0)
(1.64137e-08 1.22936e-07 0)
(1.77874e-08 1.32388e-07 0)
(1.9618e-08 1.44487e-07 0)
(2.1953e-08 1.61194e-07 0)
(2.54576e-08 1.85339e-07 0)
(3.19336e-08 2.26607e-07 0)
(4.54482e-08 3.2128e-07 0)
(9.47502e-08 4.95728e-07 0)
(3.81616e-07 1.09897e-06 0)
(3.65188e-06 1.03404e-05 0)
(-2.81865e-06 4.21244e-06 0)
(-3.90171e-07 2.74171e-05 0)
(5.71917e-06 7.22358e-06 0)
(9.02847e-07 1.27547e-05 0)
(3.99322e-07 1.12698e-05 0)
(3.36018e-06 1.80491e-05 0)
(6.03507e-06 1.04862e-05 0)
(5.3374e-06 1.2478e-05 0)
(8.20337e-06 1.19526e-05 0)
(9.13731e-06 6.66682e-06 0)
(7.24008e-06 4.16268e-06 0)
(5.27285e-06 2.99658e-06 0)
(3.57e-06 2.40784e-06 0)
(2.06772e-06 2.10615e-06 0)
(6.77407e-07 1.97631e-06 0)
(-6.53506e-07 2.42617e-06 0)
(-1.98861e-06 2.57741e-06 0)
(-3.40845e-06 2.92382e-06 0)
(-4.9616e-06 3.57973e-06 0)
(-6.6231e-06 4.80232e-06 0)
(-7.9742e-06 7.11753e-06 0)
(-7.32588e-06 1.09711e-05 0)
(-5.39094e-06 1.185e-05 0)
(-5.27682e-06 1.1299e-05 0)
(-3.24324e-06 1.56535e-05 0)
(-1.10577e-06 1.19536e-05 0)
(-1.35186e-06 1.23205e-05 0)
(-3.83539e-06 1.00908e-05 0)
(8.19092e-08 2.11922e-05 0)
(2.45698e-06 8.81403e-06 0)
(4.04676e-06 1.80046e-05 0)
(4.96943e-06 3.64387e-06 0)
(-5.31107e-06 3.01054e-06 0)
(-5.51168e-06 1.43561e-05 0)
(-2.78297e-07 8.01854e-07 0)
(-8.28027e-08 4.41414e-07 0)
(-4.35367e-08 3.10453e-07 0)
(-3.1639e-08 2.28753e-07 0)
(-2.59317e-08 1.924e-07 0)
(-2.28097e-08 1.70968e-07 0)
(-2.03856e-08 1.56066e-07 0)
(-1.84641e-08 1.4603e-07 0)
(-1.73188e-08 1.38079e-07 0)
(-1.64582e-08 1.3155e-07 0)
(-1.56252e-08 1.25976e-07 0)
(-1.48982e-08 1.21457e-07 0)
(-1.43912e-08 1.17512e-07 0)
(-1.3993e-08 1.14145e-07 0)
(-1.35438e-08 1.12744e-07 0)
(-1.28899e-08 1.11575e-07 0)
(-1.19677e-08 1.10598e-07 0)
(-1.05972e-08 1.09705e-07 0)
(-8.52023e-09 1.08846e-07 0)
(-5.58594e-09 1.08108e-07 0)
(-1.95026e-09 1.07599e-07 0)
(1.95026e-09 1.07599e-07 0)
(5.58594e-09 1.08108e-07 0)
(8.52023e-09 1.08846e-07 0)
(1.05972e-08 1.09705e-07 0)
(1.19677e-08 1.10598e-07 0)
(1.28899e-08 1.11575e-07 0)
(1.35438e-08 1.12744e-07 0)
(1.3993e-08 1.14145e-07 0)
(1.43912e-08 1.17512e-07 0)
(1.48982e-08 1.21457e-07 0)
(1.56252e-08 1.25976e-07 0)
(1.64582e-08 1.3155e-07 0)
(1.73188e-08 1.38079e-07 0)
(1.84641e-08 1.4603e-07 0)
(2.03856e-08 1.56066e-07 0)
(2.28097e-08 1.70968e-07 0)
(2.59317e-08 1.924e-07 0)
(3.1639e-08 2.28753e-07 0)
(4.35367e-08 3.10453e-07 0)
(8.28027e-08 4.41414e-07 0)
(2.78297e-07 8.01854e-07 0)
(5.51168e-06 1.43561e-05 0)
(5.31107e-06 3.01054e-06 0)
(-4.96943e-06 3.64387e-06 0)
(-4.04676e-06 1.80046e-05 0)
(-2.45698e-06 8.81403e-06 0)
(-8.19092e-08 2.11922e-05 0)
(3.83539e-06 1.00908e-05 0)
(1.35186e-06 1.23205e-05 0)
(1.10577e-06 1.19536e-05 0)
(3.24324e-06 1.56535e-05 0)
(5.27682e-06 1.1299e-05 0)
(5.39094e-06 1.185e-05 0)
(7.32588e-06 1.09711e-05 0)
(7.9742e-06 7.11753e-06 0)
(6.6231e-06 4.80232e-06 0)
(4.9616e-06 3.57973e-06 0)
(3.40845e-06 2.92382e-06 0)
(1.98861e-06 2.57741e-06 0)
(6.53506e-07 2.42617e-06 0)
(-6.23603e-07 2.89952e-06 0)
(-1.89073e-06 3.06844e-06 0)
(-3.21374e-06 3.44885e-06 0)
(-4.60598e-06 4.14481e-06 0)
(-5.98714e-06 5.3614e-06 0)
(-6.96102e-06 7.41467e-06 0)
(-6.53239e-06 1.02781e-05 0)
(-5.21056e-06 1.1345e-05 0)
(-4.69721e-06 1.15642e-05 0)
(-3.12861e-06 1.40596e-05 0)
(-1.56761e-06 1.2185e-05 0)
(-1.55054e-06 1.21695e-05 0)
(-2.60975e-06 1.15319e-05 0)
(-5.36976e-08 1.73725e-05 0)
(1.91715e-06 1.10281e-05 0)
(3.13138e-06 1.47565e-05 0)
(3.00103e-06 6.61598e-06 0)
(-4.15735e-06 6.84613e-06 0)
(2.33257e-06 2.41617e-05 0)
(6.87802e-06 3.64855e-06 0)
(-5.46167e-06 3.37763e-06 0)
(-6.15812e-06 1.45918e-05 0)
(-3.32329e-07 8.469e-07 0)
(-9.81359e-08 4.66126e-07 0)
(-5.0087e-08 3.34926e-07 0)
(-3.36151e-08 2.47854e-07 0)
(-2.64371e-08 2.08364e-07 0)
(-2.34041e-08 1.86837e-07 0)
(-2.16457e-08 1.73177e-07 0)
(-2.02237e-08 1.63337e-07 0)
(-1.91787e-08 1.56459e-07 0)
(-1.88279e-08 1.50925e-07 0)
(-1.87274e-08 1.4637e-07 0)
(-1.84379e-08 1.44409e-07 0)
(-1.78993e-08 1.4297e-07 0)
(-1.71383e-08 1.41826e-07 0)
(-1.58068e-08 1.40592e-07 0)
(-1.32429e-08 1.39035e-07 0)
(-8.9507e-09 1.3748e-07 0)
(-3.17234e-09 1.3646e-07 0)
(3.17234e-09 1.3646e-07 0)
(8.9507e-09 1.3748e-07 0)
(1.32429e-08 1.39035e-07 0)
(1.58068e-08 1.40592e-07 0)
(1.71383e-08 1.41826e-07 0)
(1.78993e-08 1.4297e-07 0)
(1.84379e-08 1.44409e-07 0)
(1.87274e-08 1.4637e-07 0)
(1.88279e-08 1.50925e-07 0)
(1.91787e-08 1.56459e-07 0)
(2.02237e-08 1.63337e-07 0)
(2.16457e-08 1.73177e-07 0)
(2.34041e-08 1.86837e-07 0)
(2.64371e-08 2.08364e-07 0)
(3.36151e-08 2.47854e-07 0)
(5.0087e-08 3.34926e-07 0)
(9.81359e-08 4.66126e-07 0)
(3.32329e-07 8.469e-07 0)
(6.15812e-06 1.45918e-05 0)
(5.46167e-06 3.37763e-06 0)
(-6.87802e-06 3.64855e-06 0)
(-2.33257e-06 2.41617e-05 0)
(4.15735e-06 6.84613e-06 0)
(-3.00103e-06 6.61598e-06 0)
(-3.13138e-06 1.47565e-05 0)
(-1.91715e-06 1.10281e-05 0)
(5.36976e-08 1.73725e-05 0)
(2.60975e-06 1.15319e-05 0)
(1.55054e-06 1.21695e-05 0)
(1.56761e-06 1.2185e-05 0)
(3.12861e-06 1.40596e-05 0)
(4.69721e-06 1.15642e-05 0)
(5.21056e-06 1.1345e-05 0)
(6.53239e-06 1.02781e-05 0)
(6.96102e-06 7.41467e-06 0)
(5.98714e-06 5.3614e-06 0)
(4.60598e-06 4.14481e-06 0)
(3.21374e-06 3.44885e-06 0)
(1.89073e-06 3.06844e-06 0)
(6.23603e-07 2.89952e-06 0)
(-5.87657e-07 3.3918e-06 0)
(-1.77453e-06 3.57337e-06 0)
(-2.98925e-06 3.97467e-06 0)
(-4.21767e-06 4.68245e-06 0)
(-5.35394e-06 5.84368e-06 0)
(-6.07132e-06 7.61586e-06 0)
(-5.80317e-06 9.79639e-06 0)
(-4.885e-06 1.09228e-05 0)
(-4.22819e-06 1.15076e-05 0)
(-3.00169e-06 1.29851e-05 0)
(-1.83026e-06 1.21548e-05 0)
(-1.59844e-06 1.20944e-05 0)
(-1.83657e-06 1.21195e-05 0)
(-1.09985e-07 1.50576e-05 0)
(1.44459e-06 1.19161e-05 0)
(2.33978e-06 1.3016e-05 0)
(1.94652e-06 8.57453e-06 0)
(-1.66512e-06 9.20402e-06 0)
(1.83551e-06 1.77941e-05 0)
(4.0412e-06 7.31259e-06 0)
(-2.71141e-06 7.64454e-06 0)
(4.16965e-06 2.4279e-05 0)
(9.13052e-06 3.76901e-06 0)
(-2.49754e-06 3.28904e-06 0)
(-4.87733e-06 1.02492e-05 0)
(-7.02538e-07 1.48959e-06 0)
(-1.57493e-07 5.93303e-07 0)
(-6.93812e-08 3.91751e-07 0)
(-4.15883e-08 3.05663e-07 0)
(-3.07994e-08 2.40269e-07 0)
(-2.623e-08 2.11251e-07 0)
(-2.51879e-08 1.95936e-07 0)
(-2.54574e-08 1.86994e-07 0)
(-2.5372e-08 1.82853e-07 0)
(-2.49617e-08 1.80794e-07 0)
(-2.4865e-08 1.79499e-07 0)
(-2.44013e-08 1.77686e-07 0)
(-2.17797e-08 1.74313e-07 0)
(-1.53694e-08 1.70469e-07 0)
(-5.55105e-09 1.68096e-07 0)
(5.55105e-09 1.68096e-07 0)
(1.53694e-08 1.70469e-07 0)
(2.17797e-08 1.74313e-07 0)
(2.44013e-08 1.77686e-07 0)
(2.4865e-08 1.79499e-07 0)
(2.49617e-08 1.80794e-07 0)
(2.5372e-08 1.82853e-07 0)
(2.54574e-08 1.86994e-07 0)
(2.51879e-08 1.95936e-07 0)
(2.623e-08 2.11251e-07 0)
(3.07994e-08 2.40269e-07 0)
(4.15883e-08 3.05663e-07 0)
(6.93812e-08 3.91751e-07 0)
(1.57493e-07 5.93303e-07 0)
(7.02538e-07 1.48959e-06 0)
(4.87733e-06 1.02492e-05 0)
(2.49754e-06 3.28904e-06 0)
(-9.13052e-06 3.76901e-06 0)
(-4.16965e-06 2.4279e-05 0)
(2.71141e-06 7.64454e-06 0)
(-4.0412e-06 7.31259e-06 0)
(-1.83551e-06 1.77941e-05 0)
(1.66512e-06 9.20402e-06 0)
(-1.94652e-06 8.57453e-06 0)
(-2.33978e-06 1.3016e-05 0)
(-1.44459e-06 1.19161e-05 0)
(1.09985e-07 1.50576e-05 0)
(1.83657e-06 1.21195e-05 0)
(1.59844e-06 1.20944e-05 0)
(1.83026e-06 1.21548e-05 0)
(3.00169e-06 1.29851e-05 0)
(4.22819e-06 1.15076e-05 0)
(4.885e-06 1.09228e-05 0)
(5.80317e-06 9.79639e-06 0)
(6.07132e-06 7.61586e-06 0)
(5.35394e-06 5.84368e-06 0)
(4.21767e-06 4.68245e-06 0)
(2.98925e-06 3.97467e-06 0)
(1.77453e-06 3.57337e-06 0)
(5.87657e-07 3.3918e-06 0)
(-5.46034e-07 3.89699e-06 0)
(-1.64179e-06 4.08521e-06 0)
(-2.74041e-06 4.49305e-06 0)
(-3.80929e-06 5.18625e-06 0)
(-4.73904e-06 6.25785e-06 0)
(-5.28277e-06 7.76105e-06 0)
(-5.12687e-06 9.46422e-06 0)
(-4.47824e-06 1.05611e-05 0)
(-3.82202e-06 1.12832e-05 0)
(-2.85201e-06 1.22344e-05 0)
(-1.93977e-06 1.19808e-05 0)
(-1.56165e-06 1.19932e-05 0)
(-1.36193e-06 1.22289e-05 0)
(-1.39031e-07 1.3642e-05 0)
(1.05158e-06 1.21138e-05 0)
(1.71641e-06 1.21267e-05 0)
(1.40156e-06 9.77832e-06 0)
(-2.83266e-07 1.03247e-05 0)
(1.53641e-06 1.43332e-05 0)
(2.62721e-06 9.32502e-06 0)
(-2.20242e-07 9.83687e-06 0)
(3.48714e-06 1.74257e-05 0)
(6.02226e-06 7.32632e-06 0)
(9.8045e-07 7.03738e-06 0)
(4.83806e-06 1.70664e-05 0)
(8.06954e-06 4.11605e-06 0)
(2.02401e-06 2.30691e-06 0)
(-6.13979e-06 3.01331e-06 0)
(-6.19764e-06 1.15623e-05 0)
(-6.21628e-07 1.21034e-06 0)
(-1.55682e-07 5.5327e-07 0)
(-7.84101e-08 3.85614e-07 0)
(-5.91766e-08 3.17533e-07 0)
(-4.95181e-08 2.86617e-07 0)
(-4.13521e-08 2.59835e-07 0)
(-3.96242e-08 2.4258e-07 0)
(-4.11089e-08 2.31094e-07 0)
(-3.98041e-08 2.18613e-07 0)
(-2.95125e-08 2.06599e-07 0)
(-1.08308e-08 2.00208e-07 0)
(1.08308e-08 2.00208e-07 0)
(2.95125e-08 2.06599e-07 0)
(3.98041e-08 2.18613e-07 0)
(4.11089e-08 2.31094e-07 0)
(3.96242e-08 2.4258e-07 0)
(4.13521e-08 2.59835e-07 0)
(4.95181e-08 2.86617e-07 0)
(5.91766e-08 3.17533e-07 0)
(7.84101e-08 3.85614e-07 0)
(1.55682e-07 5.5327e-07 0)
(6.21628e-07 1.21034e-06 0)
(6.19764e-06 1.15623e-05 0)
(6.13979e-06 3.01331e-06 0)
(-2.02401e-06 2.30691e-06 0)
(-8.06954e-06 4.11605e-06 0)
(-4.83806e-06 1.70664e-05 0)
(-9.8045e-07 7.03738e-06 0)
(-6.02226e-06 7.32632e-06 0)
(-3.48714e-06 1.74257e-05 0)
(2.20242e-07 9.83687e-06 0)
(-2.62721e-06 9.32502e-06 0)
(-1.53641e-06 1.43332e-05 0)
(2.83266e-07 1.03247e-05 0)
(-1.40156e-06 9.77832e-06 0)
(-1.71641e-06 1.21267e-05 0)
(-1.05158e-06 1.21138e-05 0)
(1.39031e-07 1.3642e-05 0)
(1.36193e-06 1.22289e-05 0)
(1.56165e-06 1.19932e-05 0)
(1.93977e-06 1.19808e-05 0)
(2.85201e-06 1.22344e-05 0)
(3.82202e-06 1.12832e-05 0)
(4.47824e-06 1.05611e-05 0)
(5.12687e-06 9.46422e-06 0)
(5.28277e-06 7.76105e-06 0)
(4.73904e-06 6.25785e-06 0)
(3.80929e-06 5.18625e-06 0)
(2.74041e-06 4.49305e-06 0)
(1.64179e-06 4.08521e-06 0)
(5.46034e-07 3.89699e-06 0)
(-4.99537e-07 4.40785e-06 0)
(-1.49555e-06 4.59623e-06 0)
(-2.47427e-06 4.99639e-06 0)
(-3.39318e-06 5.65274e-06 0)
(-4.15286e-06 6.61465e-06 0)
(-4.57784e-06 7.87585e-06 0)
(-4.49775e-06 9.2356e-06 0)
(-4.03384e-06 1.02492e-05 0)
(-3.44827e-06 1.09887e-05 0)
(-2.67464e-06 1.16796e-05 0)
(-1.93776e-06 1.17321e-05 0)
(-1.4805e-06 1.1831e-05 0)
(-1.07527e-06 1.20902e-05 0)
(-1.63508e-07 1.27426e-05 0)
(7.40744e-07 1.19941e-05 0)
(1.25667e-06 1.16717e-05 0)
(1.11706e-06 1.04518e-05 0)
(4.31123e-07 1.07894e-05 0)
(1.375e-06 1.25353e-05 0)
(1.97674e-06 1.03053e-05 0)
(1.01345e-06 1.06797e-05 0)
(3.00657e-06 1.38306e-05 0)
(4.3454e-06 9.05174e-06 0)
(2.34745e-06 8.6898e-06 0)
(4.19449e-06 1.26665e-05 0)
(5.51696e-06 6.32955e-06 0)
(1.99736e-06 4.71937e-06 0)
(-2.08395e-06 6.50817e-06 0)
(3.65295e-06 1.87238e-05 0)
(8.16695e-06 3.79904e-06 0)
(2.14631e-06 2.26886e-06 0)
(-5.93435e-06 3.27829e-06 0)
(-8.37141e-06 9.31774e-06 0)
(-3.29486e-06 2.48282e-06 0)
(-7.90639e-07 8.79289e-07 0)
(-3.64426e-07 5.66705e-07 0)
(-2.12102e-07 4.21603e-07 0)
(-1.31552e-07 3.26954e-07 0)
(-7.42948e-08 2.52503e-07 0)
(-2.56646e-08 2.28366e-07 0)
(2.56646e-08 2.28366e-07 0)
(7.42948e-08 2.52503e-07 0)
(1.31552e-07 3.26954e-07 0)
(2.12102e-07 4.21603e-07 0)
(3.64426e-07 5.66705e-07 0)
(7.90639e-07 8.79289e-07 0)
(3.29486e-06 2.48282e-06 0)
(8.37141e-06 9.31774e-06 0)
(5.93435e-06 3.27829e-06 0)
(-2.14631e-06 2.26886e-06 0)
(-8.16695e-06 3.79904e-06 0)
(-3.65295e-06 1.87238e-05 0)
(2.08395e-06 6.50817e-06 0)
(-1.99736e-06 4.71937e-06 0)
(-5.51696e-06 6.32955e-06 0)
(-4.19449e-06 1.26665e-05 0)
(-2.34745e-06 8.6898e-06 0)
(-4.3454e-06 9.05174e-06 0)
(-3.00657e-06 1.38306e-05 0)
(-1.01345e-06 1.06797e-05 0)
(-1.97674e-06 1.03053e-05 0)
(-1.375e-06 1.25353e-05 0)
(-4.31123e-07 1.07894e-05 0)
(-1.11706e-06 1.04518e-05 0)
(-1.25667e-06 1.16717e-05 0)
(-7.40744e-07 1.19941e-05 0)
(1.63508e-07 1.27426e-05 0)
(1.07527e-06 1.20902e-05 0)
(1.4805e-06 1.1831e-05 0)
(1.93776e-06 1.17321e-05 0)
(2.67464e-06 1.16796e-05 0)
(3.44827e-06 1.09887e-05 0)
(4.03384e-06 1.02492e-05 0)
(4.49775e-06 9.2356e-06 0)
(4.57784e-06 7.87585e-06 0)
(4.15286e-06 6.61465e-06 0)
(3.39318e-06 5.65274e-06 0)
(2.47427e-06 4.99639e-06 0)
(1.49555e-06 4.59623e-06 0)
(4.99537e-07 4.40785e-06 0)
(-4.49378e-07 4.91618e-06 0)
(-1.33991e-06 5.09837e-06 0)
(-2.19882e-06 5.47809e-06 0)
(-2.98057e-06 6.08089e-06 0)
(-3.60198e-06 6.92472e-06 0)
(-3.94357e-06 7.97536e-06 0)
(-3.9133e-06 9.07806e-06 0)
(-3.57987e-06 9.98179e-06 0)
(-3.09006e-06 1.0681e-05 0)
(-2.46997e-06 1.12427e-05 0)
(-1.85865e-06 1.14481e-05 0)
(-1.37719e-06 1.16103e-05 0)
(-9.00172e-07 1.18354e-05 0)
(-1.8829e-07 1.21305e-05 0)
(5.06618e-07 1.17526e-05 0)
(9.32724e-07 1.14095e-05 0)
(9.55283e-07 1.07729e-05 0)
(7.66391e-07 1.09258e-05 0)
(1.29208e-06 1.16201e-05 0)
(1.69375e-06 1.06866e-05 0)
(1.55342e-06 1.08706e-05 0)
(2.65944e-06 1.19975e-05 0)
(3.42397e-06 9.76964e-06 0)
(2.78921e-06 9.35187e-06 0)
(3.63291e-06 1.05843e-05 0)
(4.04907e-06 7.5005e-06 0)
(2.12257e-06 6.43348e-06 0)
(3.25979e-07 7.89384e-06 0)
(3.09373e-06 1.28447e-05 0)
(5.19759e-06 6.18406e-06 0)
(2.28981e-06 4.60124e-06 0)
(-9.2304e-08 6.42317e-06 0)
(2.698e-06 1.37496e-05 0)
(5.46232e-06 5.56327e-06 0)
(3.35829e-06 3.13349e-06 0)
(5.92789e-07 2.6513e-06 0)
(-1.69833e-06 2.76151e-06 0)
(-1.55993e-06 1.18898e-06 0)
(-3.71782e-07 3.59125e-07 0)
(-9.34715e-08 2.32635e-07 0)
(9.34715e-08 2.32635e-07 0)
(3.71782e-07 3.59125e-07 0)
(1.55993e-06 1.18898e-06 0)
(1.69833e-06 2.76151e-06 0)
(-5.92789e-07 2.6513e-06 0)
(-3.35829e-06 3.13349e-06 0)
(-5.46232e-06 5.56327e-06 0)
(-2.698e-06 1.37496e-05 0)
(9.2304e-08 6.42317e-06 0)
(-2.28981e-06 4.60124e-06 0)
(-5.19759e-06 6.18406e-06 0)
(-3.09373e-06 1.28447e-05 0)
(-3.25979e-07 7.89384e-06 0)
(-2.12257e-06 6.43348e-06 0)
(-4.04907e-06 7.5005e-06 0)
(-3.63291e-06 1.05843e-05 0)
(-2.78921e-06 9.35187e-06 0)
(-3.42397e-06 9.76964e-06 0)
(-2.65944e-06 1.19975e-05 0)
(-1.55342e-06 1.08706e-05 0)
(-1.69375e-06 1.06866e-05 0)
(-1.29208e-06 1.16201e-05 0)
(-7.66391e-07 1.09258e-05 0)
(-9.55283e-07 1.07729e-05 0)
(-9.32724e-07 1.14095e-05 0)
(-5.06618e-07 1.17526e-05 0)
(1.8829e-07 1.21305e-05 0)
(9.00172e-07 1.18354e-05 0)
(1.37719e-06 1.16103e-05 0)
(1.85865e-06 1.14481e-05 0)
(2.46997e-06 1.12427e-05 0)
(3.09006e-06 1.0681e-05 0)
(3.57987e-06 9.98179e-06 0)
(3.9133e-06 9.07806e-06 0)
(3.94357e-06 7.97536e-06 0)
(3.60198e-06 6.92472e-06 0)
(2.98057e-06 6.08089e-06 0)
(2.19882e-06 5.47809e-06 0)
(1.33991e-06 5.09837e-06 0)
(4.49378e-07 4.91618e-06 0)
(-3.97084e-07 5.41332e-06 0)
(-1.17966e-06 5.58375e-06 0)
(-1.92224e-06 5.93282e-06 0)
(-2.58106e-06 6.4713e-06 0)
(-3.09036e-06 7.19725e-06 0)
(-3.37094e-06 8.06763e-06 0)
(-3.37256e-06 8.96978e-06 0)
(-3.13368e-06 9.75555e-06 0)
(-2.74028e-06 1.03896e-05 0)
(-2.24259e-06 1.0879e-05 0)
(-1.72891e-06 1.11519e-05 0)
(-1.26241e-06 1.13486e-05 0)
(-7.85838e-07 1.15354e-05 0)
(-2.09855e-07 1.16756e-05 0)
(3.3877e-07 1.1479e-05 0)
(7.10946e-07 1.12144e-05 0)
(8.47812e-07 1.0871e-05 0)
(8.97668e-07 1.09031e-05 0)
(1.24216e-06 1.11352e-05 0)
(1.56271e-06 1.07483e-05 0)
(1.73326e-06 1.07827e-05 0)
(2.3917e-06 1.10583e-05 0)
(2.87636e-06 9.98061e-06 0)
(2.78453e-06 9.55409e-06 0)
(3.15842e-06 9.67775e-06 0)
(3.21424e-06 8.1389e-06 0)
(2.21691e-06 7.49194e-06 0)
(1.45891e-06 8.31178e-06 0)
(2.70003e-06 1.01071e-05 0)
(3.59907e-06 7.18576e-06 0)
(2.27326e-06 6.05008e-06 0)
(1.29383e-06 6.91611e-06 0)
(1.86921e-06 8.31569e-06 0)
(2.50551e-06 6.62079e-06 0)
(1.98278e-06 5.46031e-06 0)
(1.02306e-06 5.15081e-06 0)
(1.50464e-07 5.45708e-06 0)
(-3.01202e-07 1.93193e-06 0)
(-3.64609e-07 3.79363e-07 0)
(-1.73214e-07 2.09439e-07 0)
(1.73214e-07 2.09439e-07 0)
(3.64609e-07 3.79363e-07 0)
(3.01202e-07 1.93193e-06 0)
(-1.50464e-07 5.45708e-06 0)
(-1.02306e-06 5.15081e-06 0)
(-1.98278e-06 5.46031e-06 0)
(-2.50551e-06 6.62079e-06 0)
(-1.86921e-06 8.31569e-06 0)
(-1.29383e-06 6.91611e-06 0)
(-2.27326e-06 6.05008e-06 0)
(-3.59907e-06 7.18576e-06 0)
(-2.70003e-06 1.01071e-05 0)
(-1.45891e-06 8.31178e-06 0)
(-2.21691e-06 7.49194e-06 0)
(-3.21424e-06 8.1389e-06 0)
(-3.15842e-06 9.67775e-06 0)
(-2.78453e-06 9.55409e-06 0)
(-2.87636e-06 9.98061e-06 0)
(-2.3917e-06 1.10583e-05 0)
(-1.73326e-06 1.07827e-05 0)
(-1.56271e-06 1.07483e-05 0)
(-1.24216e-06 1.11352e-05 0)
(-8.97668e-07 1.09031e-05 0)
(-8.47812e-07 1.0871e-05 0)
(-7.10946e-07 1.12144e-05 0)
(-3.3877e-07 1.1479e-05 0)
(2.09855e-07 1.16756e-05 0)
(7.85838e-07 1.15354e-05 0)
(1.26241e-06 1.13486e-05 0)
(1.72891e-06 1.11519e-05 0)
(2.24259e-06 1.0879e-05 0)
(2.74028e-06 1.03896e-05 0)
(3.13368e-06 9.75555e-06 0)
(3.37256e-06 8.96978e-06 0)
(3.37094e-06 8.06763e-06 0)
(3.09036e-06 7.19725e-06 0)
(2.58106e-06 6.4713e-06 0)