/*--------------------------------*- C++ -*----------------------------------*\
  =========                 |
  \\      /  F ield         | OpenFOAM: The Open Source CFD Toolbox
   \\    /   O peration     | Website:  https://openfoam.org
    \\  /    A nd           | Version:  10
     \\/     M anipulation  |
\*---------------------------------------------------------------------------*/
FoamFile
{
    format      ascii;
    class       surfaceScalarField;
    location    "7300";
    object      phi;
}
// * * * * * * * * * * * * * * * * * * * * * * * * * * * * * * * * * * * * * //

dimensions      [0 3 -1 0 0 0 0];

internalField   nonuniform List<scalar> 
12640
(
-1.29199e-08
1.29199e-08
-2.58871e-08
1.29672e-08
-3.89494e-08
1.30623e-08
-5.21559e-08
1.32065e-08
-6.55574e-08
1.34015e-08
-7.92072e-08
1.36498e-08
-9.31618e-08
1.39546e-08
-1.07482e-07
1.432e-08
-1.22232e-07
1.47507e-08
-1.37485e-07
1.52526e-08
-1.53318e-07
1.58328e-08
-1.69818e-07
1.64996e-08
-1.8708e-07
1.72626e-08
-2.05213e-07
1.81332e-08
-2.24338e-07
1.91247e-08
-2.4459e-07
2.02523e-08
-2.66124e-07
2.15334e-08
-2.89111e-07
2.29874e-08
-3.13746e-07
2.46354e-08
-3.40246e-07
2.64993e-08
-3.68845e-07
2.85993e-08
-3.99795e-07
3.09502e-08
-4.33348e-07
3.35524e-08
-4.69724e-07
3.63763e-08
-5.09057e-07
3.93334e-08
-5.51278e-07
4.22208e-08
-5.95899e-07
4.46206e-08
-6.41613e-07
4.57144e-08
-6.85568e-07
4.39549e-08
-7.22083e-07
3.65145e-08
-7.40569e-07
1.84867e-08
-7.22719e-07
-1.785e-08
-6.94133e-07
-2.85863e-08
-6.50074e-07
-4.4059e-08
-5.87932e-07
-6.21416e-08
-5.0578e-07
-8.21522e-08
-4.03066e-07
-1.02714e-07
-2.81346e-07
-1.2172e-07
-1.44776e-07
-1.36571e-07
3.1496e-17
-1.44776e-07
1.44776e-07
-1.44776e-07
2.81346e-07
-1.36571e-07
4.03066e-07
-1.2172e-07
5.0578e-07
-1.02714e-07
5.87932e-07
-8.21522e-08
6.50074e-07
-6.21416e-08
6.94133e-07
-4.4059e-08
7.22719e-07
-2.85863e-08
7.40569e-07
-1.785e-08
7.22083e-07
1.84867e-08
6.85568e-07
3.65145e-08
6.41613e-07
4.39549e-08
5.95899e-07
4.57144e-08
5.51278e-07
4.46206e-08
5.09057e-07
4.22208e-08
4.69724e-07
3.93334e-08
4.33348e-07
3.63763e-08
3.99795e-07
3.35524e-08
3.68845e-07
3.09502e-08
3.40246e-07
2.85993e-08
3.13746e-07
2.64993e-08
2.89111e-07
2.46354e-08
2.66124e-07
2.29874e-08
2.4459e-07
2.15334e-08
2.24338e-07
2.02523e-08
2.05213e-07
1.91247e-08
1.8708e-07
1.81332e-08
1.69818e-07
1.72626e-08
1.53318e-07
1.64996e-08
1.37485e-07
1.58328e-08
1.22232e-07
1.52526e-08
1.07482e-07
1.47507e-08
9.31618e-08
1.432e-08
7.92072e-08
1.39546e-08
6.55574e-08
1.36498e-08
5.21559e-08
1.34015e-08
3.89494e-08
1.32065e-08
2.58871e-08
1.30623e-08
1.29199e-08
1.29672e-08
1.29199e-08
-1.41687e-08
2.70886e-08
-2.83891e-08
2.71877e-08
-4.27139e-08
2.73871e-08
-5.71966e-08
2.76893e-08
-7.18932e-08
2.8098e-08
-8.6862e-08
2.86186e-08
-1.02165e-07
2.92576e-08
-1.17868e-07
3.00234e-08
-1.34044e-07
3.09262e-08
-1.5077e-07
3.19784e-08
-1.68131e-07
3.31946e-08
-1.86224e-07
3.45921e-08
-2.05153e-07
3.61914e-08
-2.25036e-07
3.80164e-08
-2.46006e-07
4.00947e-08
-2.68212e-07
4.24583e-08
-2.91822e-07
4.51436e-08
-3.17026e-07
4.81913e-08
-3.44036e-07
5.16459e-08
-3.7309e-07
5.55531e-08
-4.04447e-07
5.99559e-08
-4.38382e-07
6.48853e-08
-4.75172e-07
7.03429e-08
-5.15065e-07
7.62685e-08
-5.5821e-07
8.24786e-08
-6.04542e-07
8.85529e-08
-6.53545e-07
9.36237e-08
-7.03821e-07
9.59907e-08
-7.52302e-07
9.24355e-08
-7.92855e-07
7.70675e-08
-8.14001e-07
3.96334e-08
-7.95754e-07
-3.60977e-08
-7.65064e-07
-5.92759e-08
-7.17367e-07
-9.17563e-08
-6.49672e-07
-1.29836e-07
-5.59698e-07
-1.72126e-07
-4.46664e-07
-2.15748e-07
-3.1216e-07
-2.56224e-07
-1.60767e-07
-2.87963e-07
2.50451e-17
-3.05543e-07
1.60767e-07
-3.05543e-07
3.1216e-07
-2.87963e-07
4.46664e-07
-2.56224e-07
5.59698e-07
-2.15748e-07
6.49672e-07
-1.72126e-07
7.17367e-07
-1.29836e-07
7.65064e-07
-9.17563e-08
7.95754e-07
-5.92759e-08
8.14001e-07
-3.60977e-08
7.92855e-07
3.96334e-08
7.52302e-07
7.70675e-08
7.03821e-07
9.24355e-08
6.53545e-07
9.59907e-08
6.04542e-07
9.36237e-08
5.5821e-07
8.85529e-08
5.15065e-07
8.24786e-08
4.75172e-07
7.62685e-08
4.38382e-07
7.03429e-08
4.04447e-07
6.48853e-08
3.7309e-07
5.99559e-08
3.44036e-07
5.55531e-08
3.17026e-07
5.16459e-08
2.91822e-07
4.81913e-08
2.68212e-07
4.51436e-08
2.46006e-07
4.24583e-08
2.25036e-07
4.00947e-08
2.05153e-07
3.80164e-08
1.86224e-07
3.61914e-08
1.68131e-07
3.45921e-08
1.5077e-07
3.31946e-08
1.34044e-07
3.19784e-08
1.17868e-07
3.09262e-08
1.02165e-07
3.00234e-08
8.6862e-08
2.92576e-08
7.18932e-08
2.86186e-08
5.71966e-08
2.8098e-08
4.27139e-08
2.76893e-08
2.83891e-08
2.73871e-08
1.41687e-08
2.71877e-08
2.70886e-08
-1.55349e-08
4.26234e-08
-3.11265e-08
4.27793e-08
-4.68324e-08
4.30929e-08
-6.27113e-08
4.35682e-08
-7.88245e-08
4.42112e-08
-9.52358e-08
4.50299e-08
-1.12013e-07
4.60349e-08
-1.29229e-07
4.72394e-08
-1.46962e-07
4.86594e-08
-1.65298e-07
5.03142e-08
-1.84331e-07
5.2227e-08
-2.04164e-07
5.4425e-08
-2.24912e-07
5.69402e-08
-2.46706e-07
5.98103e-08
-2.6969e-07
6.30788e-08
-2.94028e-07
6.67959e-08
-3.19903e-07
7.10191e-08
-3.47525e-07
7.58124e-08
-3.77124e-07
8.12457e-08
-4.08963e-07
8.73917e-08
-4.43326e-07
9.43185e-08
-4.80516e-07
1.02076e-07
-5.20842e-07
1.10669e-07
-5.64581e-07
1.20007e-07
-6.11911e-07
1.29809e-07
-6.62787e-07
1.39428e-07
-7.16689e-07
1.47526e-07
-7.72172e-07
1.51474e-07
-8.26022e-07
1.46286e-07
-8.71763e-07
1.22808e-07
-8.97146e-07
6.50165e-08
-8.80501e-07
-5.27425e-08
-8.4854e-07
-9.12367e-08
-7.97845e-07
-1.42451e-07
-7.24814e-07
-2.02867e-07
-6.26514e-07
-2.70427e-07
-5.01625e-07
-3.40636e-07
-3.51569e-07
-4.06281e-07
-1.8142e-07
-4.58112e-07
3.16583e-17
-4.86963e-07
1.8142e-07
-4.86963e-07
3.51569e-07
-4.58112e-07
5.01625e-07
-4.06281e-07
6.26514e-07
-3.40636e-07
7.24814e-07
-2.70427e-07
7.97845e-07
-2.02867e-07
8.4854e-07
-1.42451e-07
8.80501e-07
-9.12367e-08
8.97146e-07
-5.27425e-08
8.71763e-07
6.50165e-08
8.26022e-07
1.22808e-07
7.72172e-07
1.46286e-07
7.16689e-07
1.51474e-07
6.62787e-07
1.47526e-07
6.11911e-07
1.39428e-07
5.64581e-07
1.29809e-07
5.20842e-07
1.20007e-07
4.80516e-07
1.10669e-07
4.43326e-07
1.02076e-07
4.08963e-07
9.43185e-08
3.77124e-07
8.73917e-08
3.47525e-07
8.12457e-08
3.19903e-07
7.58124e-08
2.94028e-07
7.10191e-08
2.6969e-07
6.67959e-08
2.46706e-07
6.30788e-08
2.24912e-07
5.98103e-08
2.04164e-07
5.69402e-08
1.84331e-07
5.4425e-08
1.65298e-07
5.2227e-08
1.46962e-07
5.03142e-08
1.29229e-07
4.86594e-08
1.12013e-07
4.72394e-08
9.52358e-08
4.60349e-08
7.88245e-08
4.50299e-08
6.27113e-08
4.42112e-08
4.68324e-08
4.35682e-08
3.11265e-08
4.30929e-08
1.55349e-08
4.27793e-08
4.26234e-08
-1.70283e-08
5.96518e-08
-3.41188e-08
5.98697e-08
-5.13342e-08
6.03084e-08
-6.87392e-08
6.09732e-08
-8.64004e-08
6.18724e-08
-1.04388e-07
6.30175e-08
-1.22776e-07
6.44231e-08
-1.41644e-07
6.61076e-08
-1.61078e-07
6.80935e-08
-1.81172e-07
7.04077e-08
-2.02027e-07
7.30826e-08
-2.23759e-07
7.61563e-08
-2.46492e-07
7.96736e-08
-2.70369e-07
8.3687e-08
-2.95547e-07
8.82574e-08
-3.22207e-07
9.34553e-08
-3.50549e-07
9.93607e-08
-3.808e-07
1.06064e-07
-4.13217e-07
1.13663e-07
-4.48085e-07
1.22259e-07
-4.85717e-07
1.31951e-07
-5.26451e-07
1.4281e-07
-5.70631e-07
1.54848e-07
-6.18572e-07
1.67948e-07
-6.70498e-07
1.81735e-07
-7.26404e-07
1.95335e-07
-7.85811e-07
2.06933e-07
-8.47294e-07
2.12957e-07
-9.07616e-07
2.06607e-07
-9.60145e-07
1.75338e-07
-9.9211e-07
9.6981e-08
-9.80279e-07
-6.45728e-08
-9.48529e-07
-1.22987e-07
-8.96128e-07
-1.94852e-07
-8.18513e-07
-2.80483e-07
-7.11617e-07
-3.77323e-07
-5.73048e-07
-4.79205e-07
-4.03653e-07
-5.75676e-07
-2.0903e-07
-6.52734e-07
3.98983e-17
-6.95993e-07
2.0903e-07
-6.95993e-07
4.03653e-07
-6.52734e-07
5.73048e-07
-5.75676e-07
7.11617e-07
-4.79205e-07
8.18513e-07
-3.77323e-07
8.96128e-07
-2.80483e-07
9.48529e-07
-1.94852e-07
9.80279e-07
-1.22987e-07
9.9211e-07
-6.45728e-08
9.60145e-07
9.6981e-08
9.07616e-07
1.75338e-07
8.47294e-07
2.06607e-07
7.85811e-07
2.12957e-07
7.26404e-07
2.06933e-07
6.70498e-07
1.95335e-07
6.18572e-07
1.81735e-07
5.70631e-07
1.67948e-07
5.26451e-07
1.54848e-07
4.85717e-07
1.4281e-07
4.48085e-07
1.31951e-07
4.13217e-07
1.22259e-07
3.808e-07
1.13663e-07
3.50549e-07
1.06064e-07
3.22207e-07
9.93607e-08
2.95547e-07
9.34553e-08
2.70369e-07
8.82574e-08
2.46492e-07
8.3687e-08
2.23759e-07
7.96736e-08
2.02027e-07
7.61563e-08
1.81172e-07
7.30826e-08
1.61078e-07
7.04077e-08
1.41644e-07
6.80935e-08
1.22776e-07
6.61076e-08
1.04388e-07
6.44231e-08
8.64004e-08
6.30175e-08
6.87392e-08
6.18724e-08
5.13342e-08
6.09732e-08
3.41188e-08
6.03084e-08
1.70283e-08
5.98697e-08
5.96518e-08
-1.8659e-08
7.83108e-08
-3.7386e-08
7.85967e-08
-5.62497e-08
7.9172e-08
-7.53204e-08
8.00439e-08
-9.46714e-08
8.12233e-08
-1.14379e-07
8.27251e-08
-1.34525e-07
8.45686e-08
-1.55195e-07
8.67777e-08
-1.76483e-07
8.9382e-08
-1.98492e-07
9.24169e-08
-2.21334e-07
9.59246e-08
-2.45133e-07
9.99551e-08
-2.70027e-07
1.04567e-07
-2.96169e-07
1.09829e-07
-3.23734e-07
1.15822e-07
-3.52916e-07
1.22637e-07
-3.83936e-07
1.30381e-07
-4.17042e-07
1.3917e-07
-4.52515e-07
1.49136e-07
-4.90669e-07
1.60413e-07
-5.31848e-07
1.73131e-07
-5.76429e-07
1.87391e-07
-6.24798e-07
2.03217e-07
-6.77325e-07
2.20475e-07
-7.34294e-07
2.38704e-07
-7.95779e-07
2.56819e-07
-8.61399e-07
2.72553e-07
-9.29858e-07
2.81417e-07
-9.98082e-07
2.74831e-07
-1.05959e-06
2.36848e-07
-1.10154e-06
1.38923e-07
-1.09949e-06
-6.66133e-08
-1.07047e-06
-1.52014e-07
-1.01876e-06
-2.46561e-07
-9.38321e-07
-3.6092e-07
-8.23187e-07
-4.92457e-07
-6.68934e-07
-6.33457e-07
-4.75008e-07
-7.69602e-07
-2.47386e-07
-8.80357e-07
4.54815e-17
-9.43379e-07
2.47386e-07
-9.43379e-07
4.75008e-07
-8.80357e-07
6.68934e-07
-7.69602e-07
8.23187e-07
-6.33457e-07
9.38321e-07
-4.92457e-07
1.01876e-06
-3.6092e-07
1.07047e-06
-2.46561e-07
1.09949e-06
-1.52014e-07
1.10154e-06
-6.66133e-08
1.05959e-06
1.38923e-07
9.98082e-07
2.36848e-07
9.29858e-07
2.74831e-07
8.61399e-07
2.81417e-07
7.95779e-07
2.72553e-07
7.34294e-07
2.56819e-07
6.77325e-07
2.38704e-07
6.24798e-07
2.20475e-07
5.76429e-07
2.03217e-07
5.31848e-07
1.87391e-07
4.90669e-07
1.73131e-07
4.52515e-07
1.60413e-07
4.17042e-07
1.49136e-07
3.83936e-07
1.3917e-07
3.52916e-07
1.30381e-07
3.23734e-07
1.22637e-07
2.96169e-07
1.15822e-07
2.70027e-07
1.09829e-07
2.45133e-07
1.04567e-07
2.21334e-07
9.99551e-08
1.98492e-07
9.59246e-08
1.76483e-07
9.24169e-08
1.55195e-07
8.9382e-08
1.34525e-07
8.67777e-08
1.14379e-07
8.45686e-08
9.46714e-08
8.27251e-08
7.53204e-08
8.12233e-08
5.62497e-08
8.00439e-08
3.7386e-08
7.9172e-08
1.8659e-08
7.85967e-08
7.83108e-08
-2.04373e-08
9.87481e-08
-4.09487e-08
9.91081e-08
-6.16093e-08
9.98326e-08
-8.2496e-08
1.00931e-07
-1.03688e-07
1.02416e-07
-1.2527e-07
1.04307e-07
-1.4733e-07
1.06628e-07
-1.69962e-07
1.0941e-07
-1.93269e-07
1.12689e-07
-2.17362e-07
1.1651e-07
-2.42364e-07
1.20926e-07
-2.68409e-07
1.26e-07
-2.95648e-07
1.31806e-07
-3.24249e-07
1.38431e-07
-3.54401e-07
1.45974e-07
-3.86316e-07
1.54553e-07
-4.20236e-07
1.643e-07
-4.56431e-07
1.75365e-07
-4.95208e-07
1.87913e-07
-5.36912e-07
2.02117e-07
-5.81925e-07
2.18144e-07
-6.30667e-07
2.36132e-07
-6.83577e-07
2.56128e-07
-7.41093e-07
2.77991e-07
-8.03589e-07
3.012e-07
-8.71264e-07
3.24495e-07
-9.43921e-07
3.4521e-07
-1.02055e-06
3.58043e-07
-1.0985e-06
3.52786e-07
-1.17193e-06
3.1028e-07
-1.22865e-06
1.95635e-07
-1.2439e-06
-5.13545e-08
-1.22175e-06
-1.7417e-07
-1.17502e-06
-2.93296e-07
-1.09545e-06
-4.4049e-07
-9.73931e-07
-6.13971e-07
-8.02296e-07
-8.05091e-07
-5.76801e-07
-9.95097e-07
-3.03091e-07
-1.15407e-06
6.59179e-17
-1.24647e-06
3.03091e-07
-1.24647e-06
5.76801e-07
-1.15407e-06
8.02296e-07
-9.95097e-07
9.73931e-07
-8.05091e-07
1.09545e-06
-6.13971e-07
1.17502e-06
-4.4049e-07
1.22175e-06
-2.93296e-07
1.2439e-06
-1.7417e-07
1.22865e-06
-5.13545e-08
1.17193e-06
1.95635e-07
1.0985e-06
3.1028e-07
1.02055e-06
3.52786e-07
9.43921e-07
3.58043e-07
8.71264e-07
3.4521e-07
8.03589e-07
3.24495e-07
7.41093e-07
3.012e-07
6.83577e-07
2.77991e-07
6.30667e-07
2.56128e-07
5.81925e-07
2.36132e-07
5.36912e-07
2.18144e-07
4.95208e-07
2.02117e-07
4.56431e-07
1.87913e-07
4.20236e-07
1.75365e-07
3.86316e-07
1.643e-07
3.54401e-07
1.54553e-07
3.24249e-07
1.45974e-07
2.95648e-07
1.38431e-07
2.68409e-07
1.31806e-07
2.42364e-07
1.26e-07
2.17362e-07
1.20926e-07
1.93269e-07
1.1651e-07
1.69962e-07
1.12689e-07
1.4733e-07
1.0941e-07
1.2527e-07
1.06628e-07
1.03688e-07
1.04307e-07
8.2496e-08
1.02416e-07
6.16093e-08
1.00931e-07
4.09487e-08
9.98326e-08
2.04373e-08
9.91081e-08
9.87481e-08
-2.2373e-08
1.21121e-07
-4.48268e-08
1.21562e-07
-6.74431e-08
1.22449e-07
-9.03058e-08
1.23793e-07
-1.13502e-07
1.25612e-07
-1.37122e-07
1.27927e-07
-1.61262e-07
1.30769e-07
-1.86026e-07
1.34174e-07
-2.11525e-07
1.38188e-07
-2.3788e-07
1.42865e-07
-2.65223e-07
1.4827e-07
-2.93703e-07
1.5448e-07
-3.23481e-07
1.61585e-07
-3.54742e-07
1.69691e-07
-3.87689e-07
1.78921e-07
-4.22555e-07
1.89418e-07
-4.596e-07
2.01346e-07
-4.99122e-07
2.14887e-07
-5.41456e-07
2.30247e-07
-5.86979e-07
2.4764e-07
-6.36117e-07
2.67282e-07
-6.89337e-07
2.89352e-07
-7.47147e-07
3.13937e-07
-8.1007e-07
3.40915e-07
-8.78607e-07
3.69737e-07
-9.53144e-07
3.99031e-07
-1.03378e-06
4.25846e-07
-1.11999e-06
4.44254e-07
-1.20995e-06
4.42748e-07
-1.29913e-06
3.99459e-07
-1.37718e-06
2.73684e-07
-1.4208e-06
-7.7388e-09
-1.41225e-06
-1.82717e-07
-1.378e-06
-3.27544e-07
-1.30666e-06
-5.11831e-07
-1.18407e-06
-7.36561e-07
-9.95143e-07
-9.94019e-07
-7.29003e-07
-1.26124e-06
-3.88444e-07
-1.49463e-06
8.52161e-17
-1.63491e-06
3.88444e-07
-1.63491e-06
7.29003e-07
-1.49463e-06
9.95143e-07
-1.26124e-06
1.18407e-06
-9.94019e-07
1.30666e-06
-7.36561e-07
1.378e-06
-5.11831e-07
1.41225e-06
-3.27544e-07
1.4208e-06
-1.82717e-07
1.37718e-06
-7.7388e-09
1.29913e-06
2.73684e-07
1.20995e-06
3.99459e-07
1.11999e-06
4.42748e-07
1.03378e-06
4.44254e-07
9.53144e-07
4.25846e-07
8.78607e-07
3.99031e-07
8.1007e-07
3.69737e-07
7.47147e-07
3.40915e-07
6.89337e-07
3.13937e-07
6.36117e-07
2.89352e-07
5.86979e-07
2.67282e-07
5.41456e-07
2.4764e-07
4.99122e-07
2.30247e-07
4.596e-07
2.14887e-07
4.22555e-07
2.01346e-07
3.87689e-07
1.89418e-07
3.54742e-07
1.78921e-07
3.23481e-07
1.69691e-07
2.93703e-07
1.61585e-07
2.65223e-07
1.5448e-07
2.3788e-07
1.4827e-07
2.11525e-07
1.42865e-07
1.86026e-07
1.38188e-07
1.61262e-07
1.34174e-07
1.37122e-07
1.30769e-07
1.13502e-07
1.27927e-07
9.03058e-08
1.25612e-07
6.74431e-08
1.23793e-07
4.48268e-08
1.22449e-07
2.2373e-08
1.21562e-07
1.21121e-07
-2.44758e-08
1.45597e-07
-4.90393e-08
1.46125e-07
-7.37797e-08
1.47189e-07
-9.87878e-08
1.48801e-07
-1.24158e-07
1.50982e-07
-1.49989e-07
1.53758e-07
-1.76386e-07
1.57165e-07
-2.0346e-07
1.61248e-07
-2.31332e-07
1.6606e-07
-2.60134e-07
1.71667e-07
-2.90009e-07
1.78145e-07
-3.21117e-07
1.85588e-07
-3.53635e-07
1.94102e-07
-3.8776e-07
2.03816e-07
-4.23715e-07
2.14876e-07
-4.6175e-07
2.27454e-07
-5.02151e-07
2.41746e-07
-5.45237e-07
2.57974e-07
-5.91377e-07
2.76386e-07
-6.40985e-07
2.97248e-07
-6.9453e-07
3.20827e-07
-7.52541e-07
3.47363e-07
-8.15603e-07
3.76999e-07
-8.84354e-07
4.09665e-07
-9.59459e-07
4.44843e-07
-1.04157e-06
4.81142e-07
-1.13122e-06
5.155e-07
-1.22865e-06
5.4168e-07
-1.33334e-06
5.47438e-07
-1.44304e-06
5.09153e-07
-1.55106e-06
3.81708e-07
-1.63881e-06
8.00107e-08
-1.65459e-06
-1.66934e-07
-1.6458e-06
-3.36334e-07
-1.59704e-06
-5.60591e-07
-1.48645e-06
-8.47155e-07
-1.28634e-06
-1.19412e-06
-9.69767e-07
-1.57781e-06
-5.28349e-07
-1.93604e-06
9.29174e-17
-2.16326e-06
5.28349e-07
-2.16326e-06
9.69767e-07
-1.93604e-06
1.28634e-06
-1.57781e-06
1.48645e-06
-1.19412e-06
1.59704e-06
-8.47155e-07
1.6458e-06
-5.60591e-07
1.65459e-06
-3.36334e-07
1.63881e-06
-1.66934e-07
1.55106e-06
8.00107e-08
1.44304e-06
3.81708e-07
1.33334e-06
5.09153e-07
1.22865e-06
5.47438e-07
1.13122e-06
5.4168e-07
1.04157e-06
5.155e-07
9.59459e-07
4.81142e-07
8.84354e-07
4.44843e-07
8.15603e-07
4.09665e-07
7.52541e-07
3.76999e-07
6.9453e-07
3.47363e-07
6.40985e-07
3.20827e-07
5.91377e-07
2.97248e-07
5.45237e-07
2.76386e-07
5.02151e-07
2.57974e-07
4.6175e-07
2.41746e-07
4.23715e-07
2.27454e-07
3.8776e-07
2.14876e-07
3.53635e-07
2.03816e-07
3.21117e-07
1.94102e-07
2.90009e-07
1.85588e-07
2.60134e-07
1.78145e-07
2.31332e-07
1.71667e-07
2.0346e-07
1.6606e-07
1.76386e-07
1.61248e-07
1.49989e-07
1.57165e-07
1.24158e-07
1.53758e-07
9.87878e-08
1.50982e-07
7.37797e-08
1.48801e-07
4.90393e-08
1.47189e-07
2.44758e-08
1.46125e-07
1.45597e-07
-2.6754e-08
1.72351e-07
-5.36032e-08
1.72975e-07
-8.0644e-08
1.7423e-07
-1.07975e-07
1.76133e-07
-1.35699e-07
1.78705e-07
-1.63921e-07
1.81981e-07
-1.92757e-07
1.86001e-07
-2.22326e-07
1.90817e-07
-2.5276e-07
1.96493e-07
-2.84199e-07
2.03106e-07
-3.168e-07
2.10746e-07
-3.50734e-07
2.19522e-07
-3.86192e-07
2.29561e-07
-4.23388e-07
2.41012e-07
-4.62562e-07
2.54049e-07
-5.03983e-07
2.68875e-07
-5.47959e-07
2.85722e-07
-5.9484e-07
3.04854e-07
-6.45022e-07
3.26569e-07
-6.98962e-07
3.51188e-07
-7.5718e-07
3.79045e-07
-8.20271e-07
4.10454e-07
-8.88914e-07
4.45643e-07
-9.63886e-07
4.84637e-07
-1.04607e-06
5.27026e-07
-1.13647e-06
5.7154e-07
-1.23622e-06
6.15253e-07
-1.34662e-06
6.52079e-07
-1.46908e-06
6.69897e-07
-1.60484e-06
6.44918e-07
-1.75352e-06
5.30385e-07
-1.9068e-06
2.3329e-07
-1.9634e-06
-1.10337e-07
-2.00188e-06
-2.97853e-07
-2.00305e-06
-5.59417e-07
-1.93474e-06
-9.15469e-07
-1.74746e-06
-1.3814e-06
-1.37791e-06
-1.94737e-06
-7.78823e-07
-2.53513e-06
1.06685e-16
-2.94209e-06
7.78823e-07
-2.94209e-06
1.37791e-06
-2.53513e-06
1.74746e-06
-1.94737e-06
1.93474e-06
-1.3814e-06
2.00305e-06
-9.15469e-07
2.00188e-06
-5.59417e-07
1.9634e-06
-2.97853e-07
1.9068e-06
-1.10337e-07
1.75352e-06
2.3329e-07
1.60484e-06
5.30385e-07
1.46908e-06
6.44918e-07
1.34662e-06
6.69897e-07
1.23622e-06
6.52079e-07
1.13647e-06
6.15253e-07
1.04607e-06
5.7154e-07
9.63886e-07
5.27026e-07
8.88914e-07
4.84637e-07
8.20271e-07
4.45643e-07
7.5718e-07
4.10454e-07
6.98962e-07
3.79045e-07
6.45022e-07
3.51188e-07
5.9484e-07
3.26569e-07
5.47959e-07
3.04854e-07
5.03983e-07
2.85722e-07
4.62562e-07
2.68875e-07
4.23388e-07
2.54049e-07
3.86192e-07
2.41012e-07
3.50734e-07
2.29561e-07
3.168e-07
2.19522e-07
2.84199e-07
2.10746e-07
2.5276e-07
2.03106e-07
2.22326e-07
1.96493e-07
1.92757e-07
1.90817e-07
1.63921e-07
1.86001e-07
1.35699e-07
1.81981e-07
1.07975e-07
1.78705e-07
8.0644e-08
1.76133e-07
5.36032e-08
1.7423e-07
2.6754e-08
1.72975e-07
1.72351e-07
-2.92144e-08
2.01565e-07
-5.85317e-08
2.02292e-07
-8.80558e-08
2.03754e-07
-1.17893e-07
2.0597e-07
-1.48155e-07
2.08967e-07
-1.78955e-07
2.12781e-07
-2.10417e-07
2.17463e-07
-2.4267e-07
2.2307e-07
-2.75855e-07
2.29678e-07
-3.10124e-07
2.37375e-07
-3.45645e-07
2.46267e-07
-3.82601e-07
2.56479e-07
-4.21199e-07
2.68158e-07
-4.61665e-07
2.81479e-07
-5.04259e-07
2.96643e-07
-5.49269e-07
3.13886e-07
-5.97027e-07
3.3348e-07
-6.47909e-07
3.55736e-07
-7.02345e-07
3.81005e-07
-7.60832e-07
4.09675e-07
-8.23947e-07
4.42159e-07
-8.92358e-07
4.78865e-07
-9.66855e-07
5.2014e-07
-1.04838e-06
5.66161e-07
-1.13808e-06
6.16723e-07
-1.23739e-06
6.70857e-07
-1.34824e-06
7.26099e-07
-1.47329e-06
7.77129e-07
-1.61653e-06
8.13133e-07
-1.7841e-06
8.12496e-07
-1.98523e-06
7.31513e-07
-2.23041e-06
4.78469e-07
-2.35139e-06
1.06385e-08
-2.47174e-06
-1.77503e-07
-2.57273e-06
-4.58419e-07
-2.61376e-06
-8.74446e-07
-2.51393e-06
-1.48122e-06
-2.13158e-06
-2.32972e-06
-1.28369e-06
-3.38302e-06
1.25984e-16
-4.22578e-06
1.28369e-06
-4.22578e-06
2.13158e-06
-3.38302e-06
2.51393e-06
-2.32972e-06
2.61376e-06
-1.48122e-06
2.57273e-06
-8.74446e-07
2.47174e-06
-4.58419e-07
2.35139e-06
-1.77503e-07
2.23041e-06
1.06385e-08
1.98523e-06
4.78469e-07
1.7841e-06
7.31513e-07
1.61653e-06
8.12496e-07
1.47329e-06
8.13133e-07
1.34824e-06
7.77129e-07
1.23739e-06
7.26099e-07
1.13808e-06
6.70857e-07
1.04838e-06
6.16723e-07
9.66855e-07
5.66161e-07
8.92358e-07
5.2014e-07
8.23947e-07
4.78865e-07
7.60832e-07
4.42159e-07
7.02345e-07
4.09675e-07
6.47909e-07
3.81005e-07
5.97027e-07
3.55736e-07
5.49269e-07
3.3348e-07
5.04259e-07
3.13886e-07
4.61665e-07
2.96643e-07
4.21199e-07
2.81479e-07
3.82601e-07
2.68158e-07
3.45645e-07
2.56479e-07
3.10124e-07
2.46267e-07
2.75855e-07
2.37375e-07
2.4267e-07
2.29678e-07
2.10417e-07
2.2307e-07
1.78955e-07
2.17463e-07
1.48155e-07
2.12781e-07
1.17893e-07
2.08967e-07
8.80558e-08
2.0597e-07
5.85317e-08
2.03754e-07
2.92144e-08
2.02292e-07
2.01565e-07
-3.18608e-08
2.33426e-07
-6.38323e-08
2.34263e-07
-9.60262e-08
2.35948e-07
-1.28557e-07
2.38501e-07
-1.61543e-07
2.41953e-07
-1.95109e-07
2.46347e-07
-2.29384e-07
2.51738e-07
-2.64509e-07
2.58195e-07
-3.00634e-07
2.65803e-07
-3.37922e-07
2.74663e-07
-3.76551e-07
2.84896e-07
-4.16718e-07
2.96645e-07
-4.58641e-07
3.10081e-07
-5.02563e-07
3.25401e-07
-5.4876e-07
3.42839e-07
-5.97539e-07
3.62665e-07
-6.49253e-07
3.85194e-07
-7.04305e-07
4.10788e-07
-7.63159e-07
4.39859e-07
-8.26354e-07
4.7287e-07
-8.9452e-07
5.10326e-07
-9.6841e-07
5.52754e-07
-1.04893e-06
6.0066e-07
-1.13721e-06
6.54439e-07
-1.23469e-06
7.14211e-07
-1.34335e-06
7.79513e-07
-1.46599e-06
8.48734e-07
-1.60691e-06
9.18056e-07
-1.77321e-06
9.79428e-07
-1.97716e-06
1.01645e-06
-2.24091e-06
9.95263e-07
-2.6042e-06
8.41755e-07
-2.81791e-06
2.24355e-07
-3.0677e-06
7.22824e-08
-3.35001e-06
-1.7611e-07
-3.63716e-06
-5.87289e-07
-3.83456e-06
-1.28383e-06
-3.67519e-06
-2.48909e-06
-2.47795e-06
-4.58025e-06
1.8475e-16
-6.70373e-06
2.47795e-06
-6.70373e-06
3.67519e-06
-4.58025e-06
3.83456e-06
-2.48909e-06
3.63716e-06
-1.28383e-06
3.35001e-06
-5.87289e-07
3.0677e-06
-1.7611e-07
2.81791e-06
7.22824e-08
2.6042e-06
2.24355e-07
2.24091e-06
8.41755e-07
1.97716e-06
9.95263e-07
1.77321e-06
1.01645e-06
1.60691e-06
9.79428e-07
1.46599e-06
9.18056e-07
1.34335e-06
8.48734e-07
1.23469e-06
7.79513e-07
1.13721e-06
7.14211e-07
1.04893e-06
6.54439e-07
9.6841e-07
6.0066e-07
8.9452e-07
5.52754e-07
8.26354e-07
5.10326e-07
7.63159e-07
4.7287e-07
7.04305e-07
4.39859e-07
6.49253e-07
4.10788e-07
5.97539e-07
3.85194e-07
5.4876e-07
3.62665e-07
5.02563e-07
3.42839e-07
4.58641e-07
3.25401e-07
4.16718e-07
3.10081e-07
3.76551e-07
2.96645e-07
3.37922e-07
2.84896e-07
3.00634e-07
2.74663e-07
2.64509e-07
2.65803e-07
2.29384e-07
2.58195e-07
1.95109e-07
2.51738e-07
1.61543e-07
2.46347e-07
1.28557e-07
2.41953e-07
9.60262e-08
2.38501e-07
6.38323e-08
2.35948e-07
3.18608e-08
2.34263e-07
2.33426e-07
-3.46931e-08
2.68119e-07
-6.95045e-08
2.69075e-07
-1.04554e-07
2.70997e-07
-1.39963e-07
2.7391e-07
-1.75859e-07
2.77849e-07
-2.12374e-07
2.82861e-07
-2.49646e-07
2.89011e-07
-2.87825e-07
2.96374e-07
-3.2707e-07
3.05048e-07
-3.67554e-07
3.15147e-07
-4.09466e-07
3.26808e-07
-4.53013e-07
3.40193e-07
-4.98427e-07
3.55495e-07
-5.45963e-07
3.72938e-07
-5.95912e-07
3.92788e-07
-6.48599e-07
4.15352e-07
-7.04396e-07
4.40991e-07
-7.63729e-07
4.70121e-07
-8.27093e-07
5.03223e-07
-8.95066e-07
5.40842e-07
-9.68332e-07
5.83592e-07
-1.04772e-06
6.32145e-07
-1.13427e-06
6.87204e-07
-1.22929e-06
7.49456e-07
-1.33454e-06
8.19468e-07
-1.45254e-06
8.97507e-07
-1.58702e-06
9.83213e-07
-1.74399e-06
1.07503e-06
-1.93373e-06
1.16917e-06
-2.17499e-06
1.25771e-06
-2.5042e-06
1.32447e-06
-2.9971e-06
1.33466e-06
-3.32302e-06
5.50272e-07
-3.7441e-06
4.93362e-07
-4.30236e-06
3.82154e-07
-5.05315e-06
1.63503e-07
-6.04663e-06
-2.90351e-07
-7.22486e-06
-1.31086e-06
-7.41704e-06
-4.38807e-06
1.25874e-16
-1.41208e-05
7.41704e-06
-1.41208e-05
7.22486e-06
-4.38807e-06
6.04663e-06
-1.31086e-06
5.05315e-06
-2.90351e-07
4.30236e-06
1.63503e-07
3.7441e-06
3.82154e-07
3.32302e-06
4.93362e-07
2.9971e-06
5.50272e-07
2.5042e-06
1.33466e-06
2.17499e-06
1.32447e-06
1.93373e-06
1.25771e-06
1.74399e-06
1.16917e-06
1.58702e-06
1.07503e-06
1.45254e-06
9.83213e-07
1.33454e-06
8.97507e-07
1.22929e-06
8.19468e-07
1.13427e-06
7.49456e-07
1.04772e-06
6.87204e-07
9.68332e-07
6.32145e-07
8.95066e-07
5.83592e-07
8.27093e-07
5.40842e-07
7.63729e-07
5.03223e-07
7.04396e-07
4.70121e-07
6.48599e-07
4.40991e-07
5.95912e-07
4.15352e-07
5.45963e-07
3.92788e-07
4.98427e-07
3.72938e-07
4.53013e-07
3.55495e-07
4.09466e-07
3.40193e-07
3.67554e-07
3.26808e-07
3.2707e-07
3.15147e-07
2.87825e-07
3.05048e-07
2.49646e-07
2.96374e-07
2.12374e-07
2.89011e-07
1.75859e-07
2.82861e-07
1.39963e-07
2.77849e-07
1.04554e-07
2.7391e-07
6.95045e-08
2.70997e-07
3.46931e-08
2.69075e-07
2.68119e-07
-3.77055e-08
3.05825e-07
-7.55365e-08
3.06906e-07
-1.1362e-07
3.09081e-07
-1.52086e-07
3.12376e-07
-1.91067e-07
3.16831e-07
-2.30705e-07
3.22499e-07
-2.71145e-07
3.29451e-07
-3.12546e-07
3.37774e-07
-3.55073e-07
3.47576e-07
-3.9891e-07
3.58984e-07
-4.44254e-07
3.72151e-07
-4.91322e-07
3.87261e-07
-5.40356e-07
4.04528e-07
-5.91622e-07
4.24204e-07
-6.45421e-07
4.46587e-07
-7.02094e-07
4.72025e-07
-7.62026e-07
5.00924e-07
-8.25664e-07
5.33759e-07
-8.93523e-07
5.71082e-07
-9.66215e-07
6.13534e-07
-1.04447e-06
6.61847e-07
-1.12919e-06
7.16861e-07
-1.2215e-06
7.79518e-07
-1.3229e-06
8.50857e-07
-1.43544e-06
9.32005e-07
-1.56207e-06
1.02414e-06
-1.70736e-06
1.12849e-06
-1.87868e-06
1.24635e-06
-2.08883e-06
1.37932e-06
-2.36135e-06
1.53023e-06
-2.74297e-06
1.70609e-06
-3.33581e-06
1.9275e-06
-3.74933e-06
9.63792e-07
-4.31095e-06
1.05498e-06
-5.12068e-06
1.19189e-06
-6.37633e-06
1.41915e-06
-8.50716e-06
1.84048e-06
-1.25064e-05
2.68839e-06
-5.708e-06
-1.11865e-05
1.76816e-18
-1.98288e-05
5.708e-06
-1.98288e-05
1.25064e-05
-1.11865e-05
8.50716e-06
2.68839e-06
6.37633e-06
1.84048e-06
5.12068e-06
1.41915e-06
4.31095e-06
1.19189e-06
3.74933e-06
1.05498e-06
3.33581e-06
9.63792e-07
2.74297e-06
1.9275e-06
2.36135e-06
1.70609e-06
2.08883e-06
1.53023e-06
1.87868e-06
1.37932e-06
1.70736e-06
1.24635e-06
1.56207e-06
1.12849e-06
1.43544e-06
1.02414e-06
1.3229e-06
9.32005e-07
1.2215e-06
8.50857e-07
1.12919e-06
7.79518e-07
1.04447e-06
7.16861e-07
9.66215e-07
6.61847e-07
8.93523e-07
6.13534e-07
8.25664e-07
5.71082e-07
7.62026e-07
5.33759e-07
7.02094e-07
5.00924e-07
6.45421e-07
4.72025e-07
5.91622e-07
4.46587e-07
5.40356e-07
4.24204e-07
4.91322e-07
4.04528e-07
4.44254e-07
3.87261e-07
3.9891e-07
3.72151e-07
3.55073e-07
3.58984e-07
3.12546e-07
3.47576e-07
2.71145e-07
3.37774e-07
2.30705e-07
3.29451e-07
1.91067e-07
3.22499e-07
1.52086e-07
3.16831e-07
1.1362e-07
3.12376e-07
7.55365e-08
3.09081e-07
3.77055e-08
3.06906e-07
3.05825e-07
-4.08843e-08
3.46709e-07
-8.19006e-08
3.47922e-07
-1.23183e-07
3.50363e-07
-1.64866e-07
3.5406e-07
-2.07092e-07
3.59057e-07
-2.50007e-07
3.65414e-07
-2.93765e-07
3.73209e-07
-3.38528e-07
3.82538e-07
-3.84472e-07
3.9352e-07
-4.31785e-07
4.06296e-07
-4.80672e-07
4.21038e-07
-5.31356e-07
4.37945e-07
-5.84084e-07
4.57257e-07
-6.39133e-07
4.79253e-07
-6.96808e-07
5.04262e-07
-7.57456e-07
5.32673e-07
-8.21473e-07
5.6494e-07
-8.89312e-07
6.01598e-07
-9.61503e-07
6.43273e-07
-1.03867e-06
6.90703e-07
-1.12158e-06
7.44754e-07
-1.21116e-06
8.06444e-07
-1.30862e-06
8.76978e-07
-1.41556e-06
9.57794e-07
-1.53419e-06
1.05064e-06
-1.66776e-06
1.15771e-06
-1.82121e-06
1.28195e-06
-2.00253e-06
1.42767e-06
-2.22519e-06
1.60198e-06
-2.5132e-06
1.81825e-06
-2.91188e-06
2.10477e-06
-3.51309e-06
2.52871e-06
-3.9108e-06
1.3615e-06
-4.42574e-06
1.56992e-06
-5.11416e-06
1.8803e-06
-6.0624e-06
2.36739e-06
-7.3963e-06
3.17438e-06
-8.92401e-06
4.21609e-06
-1.28955e-06
-1.88209e-05
-5.9417e-20
-2.11183e-05
1.28955e-06
-2.11183e-05
8.92401e-06
-1.88209e-05
7.3963e-06
4.21609e-06
6.0624e-06
3.17438e-06
5.11416e-06
2.36739e-06
4.42574e-06
1.8803e-06
3.9108e-06
1.56992e-06
3.51309e-06
1.3615e-06
2.91188e-06
2.52871e-06
2.5132e-06
2.10477e-06
2.22519e-06
1.81825e-06
2.00253e-06
1.60198e-06
1.82121e-06
1.42767e-06
1.66776e-06
1.28195e-06
1.53419e-06
1.15771e-06
1.41556e-06
1.05064e-06
1.30862e-06
9.57794e-07
1.21116e-06
8.76978e-07
1.12158e-06
8.06444e-07
1.03867e-06
7.44754e-07
9.61503e-07
6.90703e-07
8.89312e-07
6.43273e-07
8.21473e-07
6.01598e-07
7.57456e-07
5.6494e-07
6.96808e-07
5.32673e-07
6.39133e-07
5.04262e-07
5.84084e-07
4.79253e-07
5.31356e-07
4.57257e-07
4.80672e-07
4.37945e-07
4.31785e-07
4.21038e-07
3.84472e-07
4.06296e-07
3.38528e-07
3.9352e-07
2.93765e-07
3.82538e-07
2.50007e-07
3.73209e-07
2.07092e-07
3.65414e-07
1.64866e-07
3.59057e-07
1.23183e-07
3.5406e-07
8.19006e-08
3.50363e-07
4.08843e-08
3.47922e-07
3.46709e-07
-4.42056e-08
3.90915e-07
-8.85486e-08
3.92265e-07
-1.33168e-07
3.94982e-07
-1.78205e-07
3.99097e-07
-2.23805e-07
4.04657e-07
-2.7012e-07
4.11729e-07
-3.17308e-07
4.20397e-07
-3.65538e-07
4.30768e-07
-4.14988e-07
4.42969e-07
-4.6585e-07
4.57158e-07
-5.18332e-07
4.7352e-07
-5.7266e-07
4.92274e-07
-6.29085e-07
5.13681e-07
-6.8788e-07
5.38048e-07
-7.49353e-07
5.65735e-07
-8.13848e-07
5.97168e-07
-8.81757e-07
6.32849e-07
-9.53529e-07
6.7337e-07
-1.02969e-06
7.19432e-07
-1.11085e-06
7.71868e-07
-1.19777e-06
8.31675e-07
-1.29138e-06
9.00054e-07
-1.39288e-06
9.78474e-07
-1.50385e-06
1.06877e-06
-1.6265e-06
1.17329e-06
-1.76398e-06
1.29519e-06
-1.92101e-06
1.43898e-06
-2.10486e-06
1.61151e-06
-2.32704e-06
1.82416e-06
-2.60604e-06
2.09725e-06
-2.97115e-06
2.46987e-06
-3.46438e-06
3.02194e-06
-3.73525e-06
1.63238e-06
-4.02889e-06
1.86355e-06
-4.31409e-06
2.1655e-06
-4.50345e-06
2.55676e-06
-4.37296e-06
3.0439e-06
-2.92532e-06
2.76845e-06
-9.51731e-07
-2.07945e-05
-2.12025e-18
-2.20701e-05
9.51731e-07
-2.20701e-05
2.92532e-06
-2.07945e-05
4.37296e-06
2.76845e-06
4.50345e-06
3.0439e-06
4.31409e-06
2.55676e-06
4.02889e-06
2.1655e-06
3.73525e-06
1.86355e-06
3.46438e-06
1.63238e-06
2.97115e-06
3.02194e-06
2.60604e-06
2.46987e-06
2.32704e-06
2.09725e-06
2.10486e-06
1.82416e-06
1.92101e-06
1.61151e-06
1.76398e-06
1.43898e-06
1.6265e-06
1.29519e-06
1.50385e-06
1.17329e-06
1.39288e-06
1.06877e-06
1.29138e-06
9.78474e-07
1.19777e-06
9.00054e-07
1.11085e-06
8.31675e-07
1.02969e-06
7.71868e-07
9.53529e-07
7.19432e-07
8.81757e-07
6.7337e-07
8.13848e-07
6.32849e-07
7.49353e-07
5.97168e-07
6.8788e-07
5.65735e-07
6.29085e-07
5.38048e-07
5.7266e-07
5.13681e-07
5.18332e-07
4.92274e-07
4.6585e-07
4.7352e-07
4.14988e-07
4.57158e-07
3.65538e-07
4.42969e-07
3.17308e-07
4.30768e-07
2.7012e-07
4.20397e-07
2.23805e-07
4.11729e-07
1.78205e-07
4.04657e-07
1.33168e-07
3.99097e-07
8.85486e-08
3.94982e-07
4.42056e-08
3.92265e-07
3.90915e-07
-4.76323e-08
4.38547e-07
-9.54056e-08
4.40038e-07
-1.43462e-07
4.43038e-07
-1.91946e-07
4.47581e-07
-2.41006e-07
4.53717e-07
-2.90797e-07
4.61519e-07
-3.41478e-07
4.71079e-07