/*--------------------------------*- C++ -*----------------------------------*\
  =========                 |
  \\      /  F ield         | OpenFOAM: The Open Source CFD Toolbox
   \\    /   O peration     | Website:  https://openfoam.org
    \\  /    A nd           | Version:  10
     \\/     M anipulation  |
\*---------------------------------------------------------------------------*/
FoamFile
{
    format      ascii;
    class       surfaceScalarField;
    location    "0.43";
    object      phi;
}
// * * * * * * * * * * * * * * * * * * * * * * * * * * * * * * * * * * * * * //

dimensions      [0 3 -1 0 0 0 0];

internalField   nonuniform List<scalar> 
24170
(
1.27327e-09
-1.27327e-09
2.35568e-09
-1.08241e-09
3.20043e-09
-8.44748e-10
3.82307e-09
-6.22639e-10
4.26618e-09
-4.43106e-10
4.57596e-09
-3.09788e-10
4.7921e-09
-2.16135e-10
4.94533e-09
-1.53232e-10
5.05847e-09
-1.13134e-10
5.14829e-09
-8.98277e-11
5.22752e-09
-7.92237e-11
5.30645e-09
-7.89367e-11
5.39466e-09
-8.82019e-11
5.50297e-09
-1.08317e-10
5.64784e-09
-1.44867e-10
5.86522e-09
-2.17379e-10
6.27656e-09
-4.11338e-10
-1.24286e-09
7.51941e-09
1.48955e-09
-2.76283e-09
2.75087e-09
-2.34373e-09
3.7308e-09
-1.82468e-09
4.45001e-09
-1.34184e-09
4.95987e-09
-9.52973e-10
5.31493e-09
-6.64843e-10
5.56125e-09
-4.62459e-10
5.73407e-09
-3.2605e-10
5.8591e-09
-2.38168e-10
5.9549e-09
-1.85625e-10
6.03507e-09
-1.59389e-10
6.11015e-09
-1.54019e-10
6.1893e-09
-1.6735e-10
6.28212e-09
-2.01137e-10
6.4018e-09
-2.64553e-10
6.57206e-09
-3.87635e-10
6.83426e-09
-6.7354e-10
-1.47559e-09
7.06699e-09
1.67837e-09
-4.44119e-09
3.08962e-09
-3.75498e-09
4.17558e-09
-2.91064e-09
4.96414e-09
-2.1304e-09
5.51682e-09
-1.50565e-09
5.89677e-09
-1.0448e-09
6.15626e-09
-7.21942e-10
6.33455e-09
-5.04343e-10
6.45993e-09
-3.63545e-10
6.55251e-09
-2.78208e-10
6.62686e-09
-2.33742e-10
6.69406e-09
-2.2122e-10
6.76337e-09
-2.36651e-10
6.84366e-09
-2.81428e-10
6.94468e-09
-3.65582e-10
7.07537e-09
-5.18317e-10
7.21536e-09
-8.13531e-10
-1.37273e-09
7.1125e-09
1.88726e-09
-6.32845e-09
3.459e-09
-5.32671e-09
4.65258e-09
-4.10422e-09
5.50678e-09
-2.98461e-09
6.09643e-09
-2.0953e-09
6.4952e-09
-1.44357e-09
6.7624e-09
-9.89143e-10
6.94169e-09
-6.83626e-10
7.06393e-09
-4.85788e-10
7.15077e-09
-3.65049e-10
7.21761e-09
-3.00581e-10
7.27587e-09
-2.79479e-10
7.33461e-09
-2.9539e-10
7.40146e-09
-3.48285e-10
7.48205e-09
-4.46165e-10
7.57304e-09
-6.09311e-10
7.62959e-09
-8.70086e-10
-1.20899e-09
7.46585e-09
2.13149e-09
-8.45995e-09
3.88397e-09
-7.07919e-09
5.19145e-09
-5.41171e-09
6.10936e-09
-3.90251e-09
6.73054e-09
-2.71649e-09
7.1419e-09
-1.85493e-09
7.411e-09
-1.25824e-09
7.58627e-09
-8.58897e-10
7.70123e-09
-6.00749e-10
7.77891e-09
-4.42732e-10
7.83536e-09
-3.57031e-10
7.88211e-09
-3.26229e-10
7.92775e-09
-3.41027e-10
7.97842e-09
-3.98961e-10
8.03623e-09
-5.03973e-10
8.09167e-09
-6.64751e-10
8.10268e-09
-8.81097e-10
-1.08073e-09
7.97442e-09
2.42644e-09
-1.08864e-08
4.38755e-09
-9.04029e-09
5.81672e-09
-6.84088e-09
6.79491e-09
-4.8807e-09
7.43988e-09
-3.36146e-09
7.85536e-09
-2.27041e-09
8.11866e-09
-1.52154e-09
8.28338e-09
-1.02362e-09
8.38562e-09
-7.02991e-10
8.44958e-09
-5.06694e-10
8.49169e-09
-3.99137e-10
8.52331e-09
-3.57851e-10
8.55234e-09
-3.70058e-10
8.58353e-09
-4.30151e-10
8.61687e-09
-5.37315e-10
8.64253e-09
-6.90404e-10
8.63351e-09
-8.72077e-10
-1.00812e-09
8.5609e-09
2.7926e-09
-1.3679e-08
4.99866e-09
-1.12463e-08
6.557e-09
-8.39923e-09
7.58833e-09
-5.91202e-09
8.2451e-09
-4.01823e-09
8.65261e-09
-2.67792e-09
8.89956e-09
-1.7685e-09
9.04503e-09
-1.16908e-09
9.12744e-09
-7.85399e-10
9.17178e-09
-5.51038e-10
9.19447e-09
-4.21831e-10
9.20641e-09
-3.69787e-10
9.21461e-09
-3.78255e-10
9.22267e-09
-4.38212e-10
9.22993e-09
-5.44581e-10
9.2298e-09
-6.90273e-10
9.21181e-09
-8.54084e-10
-9.80818e-10
9.18451e-09
3.25983e-09
-1.69388e-08
5.75713e-09
-1.37437e-08
7.44942e-09
-1.00915e-08
8.51992e-09
-6.98252e-09
9.16988e-09
-4.66819e-09
9.55204e-09
-3.06008e-09
9.76823e-09
-1.98468e-09
9.8829e-09
-1.28376e-09
9.93629e-09
-8.3879e-10
9.95355e-09
-5.68298e-10
9.95055e-09
-4.18835e-10
9.9373e-09
-3.56536e-10
9.91975e-09
-3.607e-10
9.90055e-09
-4.19011e-10
9.87925e-09
-5.23279e-10
9.85333e-09
-6.64357e-10
9.82451e-09
-8.25264e-10
-9.74319e-10
9.81801e-09
3.8739e-09
-2.08127e-08
6.72036e-09
-1.65901e-08
8.54399e-09
-1.19151e-08
9.62807e-09
-8.0666e-09
1.02425e-08
-5.28261e-09
1.05746e-08
-3.39214e-09
1.07404e-08
-2.15051e-09
1.08092e-08
-1.35257e-09
1.08219e-08
-8.51484e-10
1.08028e-08
-5.49213e-10
1.07665e-08
-3.8254e-10
1.07216e-08
-3.11611e-10
1.06726e-08
-3.1174e-10
1.06213e-08
-3.67688e-10
1.05673e-08
-4.69314e-10
1.05109e-08
-6.07917e-10
1.04591e-08
-7.73508e-10
-9.54111e-10
1.04389e-08
4.70827e-09
-2.5521e-08
7.97351e-09
-1.98554e-08
9.90949e-09
-1.38511e-08
1.09619e-08
-9.11901e-09
1.1497e-08
-5.81767e-09
1.17439e-08
-3.6391e-09
1.18332e-08
-2.23979e-09
1.18367e-08
-1.35611e-09
1.17942e-08
-8.08924e-10
1.17275e-08
-4.82545e-10
1.16489e-08
-3.03955e-10
1.15649e-08
-2.27556e-10
1.14781e-08
-2.24991e-10
1.1389e-08
-2.7857e-10
1.12966e-08
-3.76926e-10
1.12011e-08
-5.12441e-10
1.11083e-08
-6.80617e-10
-8.80657e-10
1.10348e-08
5.8864e-09
-3.14074e-08
9.64644e-09
-2.36154e-08
1.16412e-08
-1.58459e-08
1.25839e-08
-1.00616e-08
1.29733e-08
-6.20714e-09
1.30865e-08
-3.75225e-09
1.30648e-08
-2.21805e-09
1.29786e-08
-1.26997e-09
1.28631e-08
-6.9339e-10
1.27355e-08
-3.55011e-10
1.26043e-08
-1.72749e-10
1.24728e-08
-9.60516e-11
1.23414e-08
-9.35225e-11
1.22083e-08
-1.45498e-10
1.2071e-08
-2.39597e-10
1.19269e-08
-3.68415e-10
1.17755e-08
-5.29139e-10
-7.22613e-10
1.16174e-08
6.32915e-09
-3.77365e-08
9.9398e-09
-2.7226e-08
1.15759e-08
-1.7482e-08
1.21842e-08
-1.067e-08
1.2323e-08
-6.34594e-09
1.2262e-08
-3.69125e-09
1.21219e-08
-2.07799e-09
1.19552e-08
-1.10321e-09
1.17837e-08
-5.21858e-10
1.16159e-08
-1.87291e-10
1.14546e-08
-1.1417e-11
1.12993e-08
5.92926e-11
1.11474e-08
5.83306e-11
1.09957e-08
6.25187e-12
1.08399e-08
-8.38317e-11
1.06751e-08
-2.03578e-10
1.04947e-08
-3.48808e-10
-5.16623e-10
1.02887e-08
9.46712e-09
-4.72037e-08
1.40684e-08
-3.18273e-08
1.56923e-08
-1.91059e-08
1.60162e-08
-1.09939e-08
1.5857e-08
-6.18677e-09
1.55478e-08
-3.38205e-09
1.52121e-08
-1.74227e-09
1.48913e-08
-7.82421e-10
1.45959e-08
-2.26486e-10
1.43261e-08
8.24922e-11
1.40775e-08
2.37218e-10
1.38438e-08
2.92977e-10
1.36195e-08
2.82628e-10
1.33984e-08
2.27335e-10
1.31732e-08
1.41393e-10
1.29348e-08
3.48711e-11
1.26712e-08
-8.51998e-11
-2.12309e-10
1.23668e-08
1.53866e-08
-6.25903e-08
2.09192e-08
-3.73599e-08
2.1902e-08
-2.00886e-08
2.14265e-08
-1.05185e-08
2.06292e-08
-5.38941e-09
1.98544e-08
-2.60725e-09
1.91808e-08
-1.06872e-09
1.8609e-08
-2.10566e-10
1.81227e-08
2.59752e-10
1.76995e-08
5.05759e-10
1.7321e-08
6.15721e-10
1.69742e-08
6.39791e-10
1.6648e-08
6.088e-10
1.63322e-08
5.43069e-10
1.60162e-08
4.57483e-10
1.56866e-08
3.64392e-10
1.53266e-08
2.7488e-10
1.97863e-10
1.49164e-08
2.83272e-08
-9.09175e-08
3.31428e-08
-4.21755e-08
3.15724e-08
-1.85182e-08
2.91526e-08
-8.09864e-09
2.70881e-08
-3.32486e-09
2.5492e-08
-1.01115e-09
2.42702e-08
1.52999e-10
2.33179e-08
7.41813e-10
2.25443e-08
1.03327e-09
2.18938e-08
1.1563e-09
2.13291e-08
1.18042e-09
2.0824e-08
1.14488e-09
2.03595e-08
1.07334e-09
1.99208e-08
9.81762e-10
1.9495e-08
8.83228e-10
1.90681e-08
7.91276e-10
1.86205e-08
7.22553e-10
6.9735e-10
1.8121e-08
6.28955e-08
-1.53813e-07
5.6286e-08
-3.55659e-08
4.66002e-08
-8.83249e-09
3.99286e-08
-1.42704e-09
3.56226e-08
9.81204e-10
3.27501e-08
1.8613e-09
3.07231e-08
2.18003e-09
2.9211e-08
2.25384e-09
2.80306e-08
2.2137e-09
2.70685e-08
2.11842e-09
2.62531e-08
1.99585e-09
2.55383e-08
1.85971e-09
2.48944e-08
1.71719e-09
2.43033e-08
1.57284e-09
2.37556e-08
1.43095e-09
2.3249e-08
1.29787e-09
2.27863e-08
1.18531e-09
1.11486e-09
2.23687e-08
1.83816e-07
1.62285e-07
9.77152e-08
5.05349e-08
6.71989e-08
2.16838e-08
5.34793e-08
1.22925e-08
4.60667e-08
8.39382e-09
4.15278e-08
6.40018e-09
3.84937e-08
5.21413e-09
3.63179e-08
4.42968e-09
3.46617e-08
3.86992e-09
3.33337e-08
3.44637e-09
3.222e-08
3.10955e-09
3.12506e-08
2.82913e-09
3.03829e-08
2.58486e-09
2.95944e-08
2.36133e-09
2.88815e-08
2.14388e-09
2.82655e-08
1.91391e-09
2.78083e-08
1.64245e-09
1.28251e-09
2.76407e-08
7.71567e-08
8.51283e-08
7.54617e-08
5.223e-08
6.55157e-08
3.16298e-08
5.7501e-08
2.03072e-08
5.1892e-08
1.40028e-08
4.79741e-08
1.0318e-08
4.51443e-08
8.04402e-09
4.3006e-08
6.56795e-09
4.13102e-08
5.56569e-09
3.98999e-08
4.85664e-09
3.86748e-08
4.33474e-09
3.75688e-08
3.93511e-09
3.65364e-08
3.61721e-09
3.55416e-08
3.35612e-09
3.45477e-08
3.13777e-09
3.35054e-08
2.95624e-09
3.23371e-08
2.81072e-09
2.6955e-09
3.09242e-08
3.61931e-08
4.89352e-08
5.04759e-08
3.79471e-08
5.4286e-08
2.78198e-08
5.42274e-08
2.03658e-08
5.2986e-08
1.52442e-08
5.15201e-08
1.17839e-08
5.01247e-08
9.43944e-09
4.88579e-08
7.8347e-09
4.77018e-08
6.72186e-09
4.66207e-08
5.93771e-09
4.55823e-08
5.37309e-09
4.45636e-08
4.95383e-09
4.35511e-08
4.62976e-09
4.25381e-08
4.36904e-09
4.152e-08
4.15592e-09
4.04859e-08
3.99038e-09
3.94132e-08
3.88342e-09
3.89065e-09
3.8218e-08
1.46812e-08
3.4254e-08
2.3907e-08
2.87214e-08
2.89226e-08
2.28041e-08
3.14674e-08
1.7821e-08
3.26927e-08
1.40189e-08
3.32304e-08
1.12462e-08
3.34008e-08
9.26906e-09
3.33583e-08
7.87721e-09
3.31737e-08
6.90649e-09
3.28778e-08
6.23363e-09
3.24852e-08
5.7657e-09
3.20081e-08
5.43086e-09
3.14663e-08
5.17157e-09
3.08953e-08
4.94002e-09
3.03555e-08
4.69578e-09
2.99352e-08
4.4107e-09
2.97253e-08
4.09332e-09
3.28611e-09
3.03298e-08
8.96765e-09
2.52864e-08
1.56727e-08
2.20163e-08
2.0196e-08
1.82808e-08
2.31272e-08
1.48897e-08
2.50131e-08
1.2133e-08
2.6234e-08
1.00254e-08
2.70248e-08
8.47824e-09
2.75212e-08
7.38078e-09
2.77964e-08
6.63134e-09
2.78862e-08
6.14383e-09
2.78062e-08
5.84565e-09
2.75637e-08
5.67333e-09
2.71666e-08
5.56871e-09
2.66338e-08
5.47283e-09
2.60267e-08
5.3029e-09
2.55803e-08
4.85707e-09
2.28788e-08
6.7948e-09
-4.91112e-09
3.10761e-08
6.17337e-09
1.9113e-08
1.11971e-08
1.69926e-08
1.49791e-08
1.44988e-08
1.77324e-08
1.21365e-08
1.97236e-08
1.01417e-08
2.11742e-08
8.57478e-09
2.22409e-08
7.41154e-09
2.30237e-08
6.59803e-09
2.35792e-08
6.07584e-09
2.39327e-08
5.79034e-09
2.40881e-08
5.69023e-09
2.40365e-08
5.72486e-09
2.37577e-08
5.84757e-09
2.31884e-08
6.04207e-09
2.20738e-08
6.41751e-09
1.92481e-08
7.68276e-09
2.6618e-08
-5.75103e-10
-5.46813e-09
2.7175e-08
4.57478e-09
1.45382e-08
8.4756e-09
1.30918e-08
1.16054e-08
1.13689e-08
1.40452e-08
9.69674e-09
1.59341e-08
8.25282e-09
1.74059e-08
7.103e-09
1.85658e-08
6.25163e-09
1.94865e-08
5.67738e-09
2.02098e-08
5.35252e-09
2.07504e-08
5.24976e-09
2.11009e-08
5.33971e-09
2.12465e-08
5.57925e-09
2.12065e-08
5.88759e-09
2.11674e-08
6.08113e-09
2.20291e-08
5.5558e-09
2.09459e-08
8.766e-09
2.57197e-08
-5.34886e-09
-4.70476e-09
2.49563e-08
3.55207e-09
1.09861e-08
6.66721e-09
9.97663e-09
9.26826e-09
8.76788e-09
1.13869e-08
7.57808e-09
1.31021e-08
6.53767e-09
1.44999e-08
5.70513e-09
1.56553e-08
5.09628e-09
1.66241e-08
4.70856e-09
1.74404e-08
4.53623e-09
1.81127e-08
4.57747e-09
1.8619e-08
4.83338e-09
1.89015e-08
5.29679e-09
1.88462e-08
5.94286e-09
1.8074e-08
6.85333e-09
1.36072e-08
1.00227e-08
2.37238e-08
-1.35066e-09
2.30967e-08
-4.72171e-09
-4.0667e-09
2.24586e-08
2.8423e-09
8.14383e-09
5.38027e-09
7.43866e-09
7.55555e-09
6.5926e-09
9.38057e-09
5.75306e-09
1.09041e-08
5.01411e-09
1.21861e-08
4.42313e-09
1.32835e-08
3.99894e-09
1.42433e-08
3.74874e-09
1.50985e-08
3.68102e-09
1.58614e-08
3.81455e-09
1.65125e-08
4.18233e-09
1.6996e-08
4.81323e-09
1.73407e-08
5.59818e-09
1.85898e-08
5.60421e-09
1.69242e-08
1.16883e-08
2.10723e-08
-5.49875e-09
2.06605e-08
-4.30994e-09
-3.49359e-09
2.00874e-08
2.31903e-09
5.82481e-09
4.41481e-09
5.34287e-09
6.24321e-09
4.76419e-09
7.80886e-09
4.18741e-09
9.14459e-09
3.67837e-09
1.02948e-08
3.27293e-09
1.13053e-08
2.98841e-09
1.22184e-08
2.83563e-09
1.30696e-08
2.82987e-09
1.38816e-08
3.00255e-09
1.46451e-08
3.41886e-09
1.52457e-08
4.21259e-09
1.51927e-08
5.65118e-09
1.27769e-08
8.02005e-09
1.96106e-08
4.85453e-09
1.91686e-08
-5.05677e-09
1.85656e-08
-3.70688e-09
-2.85788e-09
1.79299e-08
1.9148e-09
3.91e-09
3.65968e-09
3.59799e-09
5.20074e-09
3.22314e-09
6.53943e-09
2.84872e-09
7.69946e-09
2.51834e-09
8.71532e-09
2.25707e-09
9.62518e-09
2.07855e-09
1.04677e-08
1.99316e-09
1.1281e-08
2.0165e-09
1.21028e-08
2.18074e-09
1.29658e-08
2.55593e-09
1.38679e-08
3.31047e-09
1.45727e-08
4.94637e-09
9.28402e-09
1.33087e-08
1.82075e-08
-4.06891e-09
1.74091e-08
-4.25837e-09
1.66402e-08
-2.93797e-09
-2.15738e-09
1.59397e-08
1.58944e-09
2.32057e-09
3.04639e-09
2.14104e-09
4.3444e-09
1.92512e-09
5.48371e-09
1.70941e-09
6.48236e-09
1.51969e-09
7.36799e-09
1.37144e-09
8.17274e-09
1.2738e-09
8.93138e-09
1.23451e-09
9.68244e-09
1.26544e-09
1.04728e-08
1.39042e-09
1.13705e-08
1.6582e-09
1.25263e-08
2.15466e-09
1.461e-08
2.86271e-09
1.32224e-08
1.46963e-08
1.64597e-08
-7.30627e-09
1.57033e-08
-3.50195e-09
1.48288e-08
-2.06347e-09
-1.42312e-09
1.40945e-08
1.31192e-09
1.00865e-09
2.52008e-09
9.32878e-10
3.60376e-09
8.41442e-10
4.5629e-09
7.50272e-10
5.41174e-09
6.70858e-10
6.17281e-09
6.10372e-10
6.87318e-09
5.73427e-10
7.54338e-09
5.64312e-10
8.21923e-09
5.89587e-10
8.94797e-09
6.61683e-10
9.80153e-09
8.04637e-10
1.08987e-08
1.05749e-09
1.22936e-08
1.46781e-09
1.58235e-08
1.11665e-08
1.55287e-08
-7.01155e-09
1.41392e-08
-2.11243e-09
1.31277e-08
-1.05196e-09
-6.87743e-10
1.23923e-08
1.00865e-09
1.94153e-09
2.78297e-09
3.53324e-09
4.2041e-09
4.81447e-09
5.3879e-09
5.95221e-09
6.5418e-09
7.20348e-09
8.00812e-09
9.06561e-09
1.05334e-08
2.16999e-08
1.46883e-08
1.25759e-08
1.15239e-08
1.08362e-08
2.24901e-10
-2.24901e-10
4.51127e-10
-2.26226e-10
6.7845e-10
-2.27324e-10
9.06636e-10
-2.28185e-10
1.13544e-09
-2.28804e-10
1.36461e-09
-2.29174e-10
1.5939e-09
-2.2929e-10
1.82305e-09
-2.2915e-10
2.05181e-09
-2.28751e-10
2.2799e-09
-2.28093e-10
2.50707e-09
-2.27176e-10
2.73308e-09
-2.26003e-10
2.95765e-09
-2.24577e-10
3.18056e-09
-2.22904e-10
3.40155e-09
-2.20989e-10
3.62039e-09
-2.18841e-10
3.83685e-09
-2.16467e-10
4.05073e-09
-2.13877e-10
4.26181e-09
-2.11082e-10
4.46991e-09
-2.08093e-10
4.67483e-09
-2.04922e-10
4.87641e-09
-2.01581e-10
5.07449e-09
-1.98083e-10
5.26893e-09
-1.94441e-10
5.4596e-09
-1.9067e-10
5.64638e-09
-1.86781e-10
5.82917e-09
-1.82789e-10
6.00788e-09
-1.78707e-10
6.18243e-09
-1.74548e-10
6.35275e-09
-1.70325e-10
6.5188e-09
-1.66049e-10
6.68053e-09
-1.61733e-10
6.83792e-09
-1.57388e-10
6.99095e-09
-1.53025e-10
7.1396e-09
-1.48655e-10
7.28389e-09
-1.44287e-10
7.42382e-09
-1.3993e-10
7.55941e-09
-1.35593e-10
7.69069e-09
-1.31283e-10
7.8177e-09
-1.27009e-10
7.94048e-09
-1.22776e-10
8.05907e-09
-1.18591e-10
8.17353e-09
-1.1446e-10
8.28392e-09
-1.10387e-10
8.39029e-09
-1.06377e-10
8.49273e-09
-1.02434e-10
8.59129e-09
-9.85622e-11
8.68605e-09
-9.47637e-11
8.7771e-09
-9.10414e-11
8.86449e-09
-8.73978e-11
8.94833e-09
-8.38346e-11
9.02868e-09
-8.03534e-11
9.10564e-09
-7.69553e-11
9.17928e-09
-7.36414e-11
9.24969e-09
-7.04122e-11
9.31696e-09
-6.7268e-11
9.38117e-09
-6.42092e-11
9.4424e-09
-6.12353e-11
9.50075e-09
-5.83465e-11
9.55629e-09
-5.5542e-11
9.60911e-09
-5.28212e-11
9.6593e-09
-5.01835e-11
9.70692e-09
-4.76279e-11
9.75208e-09
-4.51533e-11
9.79484e-09
-4.27587e-11
9.83528e-09
-4.04428e-11
9.87348e-09
-3.82043e-11
9.90953e-09
-3.60417e-11
9.94348e-09
-3.3954e-11
9.97542e-09
-3.19389e-11
1.00054e-08
-2.99957e-11
1.00335e-08
-2.81223e-11
1.00599e-08
-2.63171e-11
1.00844e-08
-2.45787e-11
1.01073e-08
-2.29052e-11
1.01286e-08
-2.12951e-11
1.01484e-08
-1.97464e-11
1.01666e-08
-1.82579e-11
1.01835e-08
-1.68273e-11
1.01989e-08
-1.54534e-11
1.02131e-08
-1.41342e-11
1.02259e-08
-1.28681e-11
1.02376e-08
-1.16536e-11
1.02481e-08
-1.04889e-11
1.02574e-08
-9.37237e-12
1.02657e-08
-8.30225e-12
1.0273e-08
-7.27726e-12
1.02793e-08
-6.29551e-12
1.02847e-08
-5.35567e-12
1.02891e-08
-4.45623e-12
1.02927e-08
-3.59549e-12
1.02955e-08
-2.7722e-12
1.02975e-08
-1.98473e-12
1.02987e-08
-1.23197e-12
1.02992e-08
-5.12183e-13
1.0299e-08
1.7569e-13
1.02982e-08
8.32944e-13
1.02967e-08
1.46114e-12
1.02947e-08
2.06122e-12
1.02921e-08
2.63458e-12
1.02889e-08
3.1822e-12
1.02852e-08
3.70549e-12
1.0281e-08
4.20518e-12
1.02763e-08
4.68281e-12
1.02711e-08
5.13894e-12
1.02656e-08
5.57495e-12
1.02596e-08
5.99161e-12
1.02532e-08
6.38996e-12
1.02464e-08
6.77081e-12
1.02393e-08
7.13512e-12
1.02318e-08
7.48373e-12
1.0224e-08
7.81745e-12
1.02158e-08
8.13697e-12
1.02074e-08
8.44314e-12
1.01987e-08
8.73666e-12
1.01896e-08
9.01834e-12
1.01804e-08
9.28854e-12
1.01708e-08
9.54839e-12
1.0161e-08
9.79791e-12
1.0151e-08
1.00383e-11
1.01407e-08
1.02696e-11
1.01302e-08
1.04927e-11
1.01195e-08
1.07079e-11
1.01086e-08
1.09159e-11
1.00975e-08
1.11171e-11
1.00862e-08
1.13117e-11
1.00747e-08
1.15006e-11
1.0063e-08
1.16837e-11
1.00511e-08
1.18618e-11
1.00391e-08
1.20352e-11
1.00269e-08
1.2204e-11
1.00145e-08
1.23689e-11
1.0002e-08
1.25298e-11
9.98928e-09
1.26874e-11
9.97644e-09
1.28419e-11
9.96344e-09
1.29936e-11
9.9503e-09
1.31425e-11
9.93701e-09
1.32893e-11
9.92358e-09
1.34339e-11
9.91e-09
1.35768e-11
9.89628e-09
1.37181e-11
9.88243e-09
1.38581e-11
9.86843e-09
1.39973e-11
9.85429e-09
1.41357e-11
9.84002e-09
1.42736e-11
9.82561e-09
1.44114e-11
9.81106e-09
1.45494e-11
9.79637e-09
1.46881e-11
9.78154e-09
1.48281e-11
9.76657e-09
1.49696e-11
9.75146e-09
1.51134e-11
9.7362e-09
1.52604e-11
9.72079e-09
1.54115e-11
9.70522e-09
1.55678e-11
9.68949e-09
1.57309e-11
9.67359e-09
1.59027e-11
9.6575e-09
1.60857e-11
9.64122e-09
1.62827e-11
9.62472e-09
1.64977e-11
9.60798e-09
1.67357e-11
9.59098e-09
1.70032e-11
9.57367e-09
1.73084e-11
9.55601e-09
1.76624e-11
9.53793e-09
1.80793e-11
9.51935e-09
1.85783e-11
9.50017e-09
1.91844e-11
9.48024e-09
1.99312e-11
9.45937e-09
2.08651e-11
9.43732e-09
2.20494e-11
9.41375e-09
2.35732e-11
9.38818e-09
2.55648e-11
9.35997e-09
2.82135e-11
9.32816e-09
3.18095e-11
9.29134e-09
3.68194e-11
9.2473e-09
4.40406e-11
9.19235e-09
5.49561e-11
9.11968e-09
7.26678e-11
9.0148e-09
1.0488e-10
8.83847e-09
1.76324e-10
4.01111e-10
8.43736e-09
2.25928e-10
-4.50829e-10
4.53182e-10
-4.53479e-10
6.81527e-10
-4.55669e-10
9.10724e-10
-4.57382e-10
1.14052e-09
-4.58604e-10
1.37067e-09
-4.59322e-10
1.60091e-09
-4.59528e-10
1.83098e-09
-4.59216e-10
2.06061e-09
-4.58381e-10
2.28954e-09
-4.57023e-10
2.5175e-09
-4.55144e-10
2.74425e-09
-4.5275e-10
2.96952e-09
-4.49846e-10
3.19306e-09
-4.46446e-10
3.41463e-09
-4.4256e-10
3.634e-09
-4.38205e-10
3.85093e-09
-4.33398e-10
4.06521e-09
-4.28159e-10
4.27664e-09
-4.22509e-10
4.48501e-09
-4.16472e-10
4.69016e-09
-4.10071e-10
4.89192e-09
-4.03333e-10
5.09012e-09
-3.96283e-10
5.28462e-09
-3.88948e-10
5.47531e-09
-3.81355e-10
5.66206e-09
-3.73531e-10
5.84477e-09
-3.65503e-10
6.02336e-09
-3.57298e-10
6.19776e-09
-3.48941e-10
6.36789e-09
-3.40459e-10
6.53372e-09
-3.31876e-10
6.6952e-09
-3.23216e-10
6.85231e-09
-3.14501e-10
7.00504e-09
-3.05754e-10
7.15338e-09
-2.96994e-10
7.29733e-09
-2.88241e-10
7.43692e-09
-2.79513e-10
7.57215e-09
-2.70827e-10
7.70307e-09
-2.62199e-10
7.8297e-09
-2.53644e-10
7.9521e-09
-2.45174e-10
8.07031e-09
-2.36801e-10
8.18439e-09
-2.28537e-10
8.29439e-09
-2.20392e-10
8.40039e-09
-2.12375e-10
8.50245e-09
-2.04492e-10
8.60064e-09
-1.96752e-10
8.69504e-09
-1.8916e-10
8.78572e-09
-1.81722e-10
8.87276e-09
-1.74441e-10
8.95625e-09
-1.67322e-10
9.03626e-09
-1.60368e-10
9.11289e-09
-1.5358e-10
9.18621e-09
-1.46961e-10
9.25631e-09
-1.40512e-10
9.32327e-09
-1.34233e-10
9.38719e-09
-1.28124e-10
9.44814e-09
-1.22186e-10
9.50621e-09
-1.16418e-10
9.56149e-09
-1.10819e-10
9.61405e-09
-1.05387e-10
9.66399e-09
-1.00121e-10
9.71138e-09
-9.50191e-11
9.75631e-09
-9.00792e-11
9.79885e-09
-8.5299e-11
9.83908e-09
-8.06762e-11
9.87708e-09
-7.62079e-11
9.91293e-09
-7.18916e-11
9.9467e-09
-6.7724e-11
9.97847e-09
-6.37025e-11
1.00083e-08
-5.98237e-11
1.00363e-08
-5.60845e-11
1.00624e-08
-5.24818e-11
1.00869e-08
-4.90119e-11
1.01096e-08
-4.5672e-11
1.01308e-08
-4.24583e-11
1.01504e-08
-3.93677e-11
1.01685e-08
-3.63965e-11
1.01853e-08
-3.35417e-11
1.02006e-08
-3.07994e-11
1.02146e-08
-2.81667e-11
1.02274e-08
-2.56399e-11
1.0239e-08
-2.3216e-11
1.02494e-08
-2.08913e-11
1.02587e-08
-1.86628e-11
1.02669e-08
-1.65271e-11
1.02741e-08
-1.44814e-11
1.02803e-08
-1.2522e-11
1.02856e-08
-1.06463e-11
1.029e-08
-8.85092e-12
1.02935e-08
-7.13307e-12
1.02963e-08
-5.48975e-12
1.02982e-08
-3.9182e-12
1.02994e-08
-2.41553e-12
1.02998e-08
-9.7903e-13
1.02996e-08
3.93976e-13
1.02988e-08
1.70618e-12
1.02973e-08
2.95982e-12
1.02952e-08
4.15784e-12
1.02925e-08
5.30216e-12
1.02893e-08
6.3955e-12
1.02855e-08
7.43982e-12
1.02813e-08
8.43763e-12
1.02766e-08
9.39094e-12
1.02714e-08
1.03017e-11
1.02658e-08
1.11721e-11
1.02598e-08
1.20039e-11
1.02534e-08
1.27992e-11
1.02466e-08
1.35596e-11
1.02395e-08
1.42871e-11
1.0232e-08
1.49831e-11
1.02241e-08
1.56493e-11
1.0216e-08
1.62874e-11
1.02075e-08
1.68989e-11
1.01988e-08
1.7485e-11
1.01898e-08
1.80474e-11
1.01805e-08
1.85873e-11
1.01709e-08
1.91059e-11
1.01611e-08
1.96045e-11
1.01511e-08
2.00844e-11
1.01408e-08
2.05466e-11
1.01303e-08
2.09922e-11
1.01196e-08
2.14222e-11
1.01086e-08
2.18376e-11
1.00975e-08
2.22394e-11
1.00862e-08
2.26285e-11
1.00747e-08
2.30056e-11
1.0063e-08
2.33717e-11
1.00511e-08
2.37275e-11
1.00391e-08
2.40738e-11
1.00269e-08
2.44113e-11
1.00145e-08
2.47406e-11
1.0002e-08
2.50624e-11
9.9893e-09
2.53774e-11
9.97646e-09
2.56861e-11
9.96347e-09
2.5989e-11
9.95032e-09
2.6287e-11
9.93703e-09
2.65802e-11
9.92359e-09
2.68693e-11
9.91002e-09
2.71549e-11
9.8963e-09
2.74375e-11
9.88244e-09
2.77174e-11
9.86844e-09
2.79955e-11
9.8543e-09
2.8272e-11
9.84003e-09
2.85478e-11
9.82562e-09
2.88233e-11
9.81107e-09
2.90993e-11
9.79638e-09
2.93765e-11
9.78155e-09
2.96561e-11
9.76658e-09
2.99389e-11
9.75147e-09
3.02263e-11
9.73621e-09
3.05201e-11
9.7208e-09
3.08217e-11
9.70523e-09
3.1134e-11
9.6895e-09
3.14597e-11
9.6736e-09
3.18028e-11
9.65752e-09
3.21677e-11
9.64124e-09
3.25607e-11
9.62475e-09
3.29895e-11
9.60802e-09
3.34639e-11
9.59103e-09
3.39968e-11
9.57373e-09
3.46046e-11
9.55609e-09
3.53092e-11
9.53803e-09
3.61389e-11
9.51947e-09
3.7131e-11
9.50032e-09
3.83355e-11
9.48044e-09
3.98191e-11
9.45963e-09
4.16731e-11
9.43765e-09
4.40223e-11
9.41419e-09
4.70428e-11
9.38876e-09
5.09863e-11
9.36075e-09
5.62232e-11
9.32924e-09
6.33193e-11
9.29289e-09
7.31762e-11
9.24961e-09
8.73178e-11
9.19604e-09
1.08524e-10
9.1263e-09
1.42405e-10
9.02927e-09
2.01912e-10
8.88325e-09
3.22345e-10
6.16578e-10
8.66778e-09
2.28007e-10
-6.78836e-10
4.57338e-10
-6.8281e-10
6.87751e-10
-6.86082e-10
9.18993e-10
-6.88624e-10
1.1508e-09
-6.90415e-10
1.38292e-09
-6.91437e-10
1.61507e-09
-6.91678e-10
1.84698e-09
-6.91128e-10
2.07838e-09
-6.89783e-10
2.309e-09
-6.87642e-10
2.53857e-09
-6.84709e-10
2.76681e-09
-6.80992e-10
2.99347e-09
-6.76506e-10
3.21829e-09
-6.71266e-10
3.44102e-09
-6.65294e-10
3.66143e-09
-6.58614e-10
3.87929e-09
-6.51254e-10
4.09437e-09
-6.43244e-10
4.30649e-09
-6.3462e-10
4.51543e-09
-6.25415e-10
4.72103e-09
-6.15669e-10
4.92311e-09
-6.05419e-10
5.12154e-09
-5.94707e-10
5.31616e-09
-5.83573e-10
5.50687e-09
-5.72059e-10
5.69354e-09
-5.60205e-10
5.87609e-09
-5.48053e-10
6.05444e-09
-5.35642e-10
6.22851e-09
-5.23013e-10
6.39825e-09
-5.10204e-10
6.56363e-09
-4.97251e-10
6.7246e-09
-4.8419e-10
6.88115e-09
-4.71055e-10
7.03328e-09
-4.57878e-10
7.18098e-09
-4.44691e-10
7.32426e-09
-4.31521e-10
7.46314e-09
-4.18395e-10
7.59765e-09
-4.05339e-10
7.72783e-09
-3.92376e-10
7.85371e-09
-3.79526e-10
7.97535e-09
-3.6681e-10
8.09279e-09
-3.54245e-10
8.2061e-09
-3.41847e-10
8.31534e-09
-3.29631e-10
8.42057e-09
-3.1761e-10
8.52188e-09
-3.05794e-10
8.61932e-09
-2.94195e-10
8.71298e-09
-2.82821e-10
8.80294e-09
-2.71679e-10
8.88927e-09
-2.60775e-10
8.97206e-09
-2.50116e-10
9.0514e-09
-2.39704e-10
9.12736e-09
-2.29544e-10
9.20004e-09
-2.19637e-10
9.26952e-09
-2.09986e-10
9.33587e-09
-2.00591e-10
9.3992e-09
-1.91452e-10
9.45958e-09
-1.82569e-10
9.51711e-09
-1.73941e-10
9.57185e-09
-1.65566e-10
9.62391e-09
-1.57442e-10
9.67336e-09
-1.49567e-10
9.72027e-09
-1.41937e-10
9.76475e-09
-1.34551e-10
9.80685e-09
-1.27404e-10
9.84667e-09
-1.20492e-10
9.88427e-09
-1.13811e-10
9.91973e-09
-1.07358e-10
9.95314e-09
-1.01127e-10
9.98455e-09
-9.51152e-11
1.0014e-08
-8.93169e-11
1.00417e-08
-8.37273e-11
1.00675e-08
-7.83415e-11
1.00917e-08
-7.3155e-11
1.01142e-08
-6.81623e-11
1.01351e-08
-6.33586e-11
1.01545e-08
-5.87387e-11
1.01724e-08
-5.42976e-11
1.01888e-08
-5.00302e-11
1.0204e-08
-4.59313e-11
1.02178e-08
-4.1996e-11
1.02304e-08
-3.82191e-11
1.02418e-08
-3.45958e-11
1.0252e-08
-3.11211e-11
1.02611e-08
-2.779e-11
1.02692e-08
-2.45977e-11
1.02762e-08
-2.15396e-11
1.02823e-08
-1.86108e-11
1.02875e-08
-1.58067e-11
1.02918e-08
-1.31231e-11
1.02952e-08
-1.05551e-11
1.02978e-08
-8.09853e-12
1.02996e-08
-5.74918e-12
1.03007e-08
-3.50267e-12
1.03011e-08
-1.35511e-12
1.03008e-08
6.97566e-13
1.02998e-08
2.65924e-12
1.02983e-08
4.5338e-12
1.02961e-08
6.32472e-12
1.02934e-08
8.03588e-12
1.02901e-08
9.67058e-12
1.02863e-08
1.12323e-11
1.0282e-08
1.27243e-11
1.02772e-08
1.41498e-11
1.0272e-08
1.55118e-11
1.02664e-08
1.68134e-11
1.02603e-08
1.80575e-11
1.02539e-08
1.9247e-11
1.02471e-08
2.03844e-11
1.02399e-08
2.14724e-11
1.02324e-08
2.25136e-11
1.02245e-08
2.35103e-11
1.02163e-08
2.44648e-11
1.02078e-08
2.53796e-11
1.01991e-08
2.62567e-11
1.019e-08
2.70981e-11
1.01807e-08
2.79059e-11
1.01711e-08
2.86821e-11
1.01613e-08
2.94283e-11
1.01512e-08
3.01465e-11
1.01409e-08
3.08383e-11
1.01304e-08
3.15053e-11
1.01197e-08
3.21489e-11
1.01088e-08
3.2771e-11
1.00976e-08
3.33724e-11
1.00863e-08
3.39549e-11
1.00748e-08
3.45197e-11
1.00631e-08
3.50679e-11
1.00512e-08
3.56008e-11
1.00392e-08
3.61195e-11
1.0027e-08
3.66249e-11
1.00146e-08
3.71183e-11
1.00021e-08
3.76004e-11
9.98936e-09
3.80723e-11
9.97651e-09
3.85347e-11
9.96351e-09
3.89887e-11
9.95036e-09
3.9435e-11
9.93706e-09
3.98745e-11
9.92363e-09
4.03078e-11
9.91005e-09
4.07357e-11
9.89632e-09
4.11591e-11
9.88246e-09
4.15788e-11
9.86846e-09
4.19955e-11
9.85432e-09
4.24099e-11
9.84005e-09
4.28232e-11
9.82564e-09
4.32361e-11
9.81109e-09
4.36495e-11
9.7964e-09
4.40651e-11
9.78157e-09
4.44839e-11
9.7666e-09
4.49077e-11
9.75149e-09
4.53382e-11
9.73623e-09
4.57779e-11
9.72082e-09
4.62296e-11
9.70526e-09
4.6697e-11
9.68954e-09
4.71843e-11
9.67364e-09
4.76972e-11
9.65757e-09
4.82427e-11
9.6413e-09
4.88297e-11
9.62482e-09
4.94697e-11
9.6081e-09
5.01774e-11
9.59113e-09
5.09716e-11
9.57386e-09
5.18769e-11
9.55624e-09
5.29255e-11
9.53822e-09
5.4159e-11
9.51972e-09
5.5633e-11
9.50063e-09
5.74208e-11
9.48083e-09
5.96212e-11
9.46014e-09
6.23679e-11
9.43831e-09
6.58445e-11
9.41505e-09
7.03083e-11
9.38991e-09
7.61257e-11
9.3623e-09
8.38338e-11
9.33137e-09
9.42445e-11
9.29591e-09
1.08638e-10
9.25409e-09
1.29138e-10
9.20311e-09
1.59508e-10
9.13853e-09
2.0698e-10
9.05363e-09
2.86819e-10
8.9417e-09
4.34267e-10
7.31947e-10
8.82633e-09
2.31185e-10
-9.10022e-10
4.63692e-10
-9.15317e-10
6.97263e-10
-9.19653e-10
9.31628e-10
-9.22989e-10
1.16651e-09
-9.25296e-10
1.40163e-09
-9.26553e-10
1.63669e-09
-9.26743e-10
1.87141e-09
-9.25853e-10
2.10551e-09
-9.23879e-10
2.33869e-09
-9.20822e-10
2.57067e-09
-9.16691e-10
2.80118e-09
-9.11498e-10
3.02994e-09
-9.05263e-10
3.25668e-09
-8.98012e-10
3.48116e-09
-8.89775e-10
3.70314e-09
-8.80587e-10
3.92237e-09
-8.70489e-10
4.13865e-09
-8.59524e-10
4.35177e-09
-8.47739e-10
4.56154e-09
-8.35185e-10
4.76779e-09
-8.21915e-10
4.97035e-09
-8.07981e-10
5.16908e-09
-7.93441e-10
5.36386e-09
-7.78349e-10
5.55456e-09
-7.62762e-10
5.74109e-09
-7.46737e-10
5.92337e-09
-7.30328e-10
6.10132e-09
-7.13589e-10
6.27488e-09
-6.96574e-10
6.44401e-09
-6.79334e-10
6.60868e-09
-6.61918e-10
6.76886e-09
-6.44374e-10
6.92455e-09
-6.26746e-10
7.07575e-09
-6.09076e-10
7.22246e-09
-5.91406e-10
7.36471e-09
-5.73772e-10
7.50253e-09
-5.5621e-10
7.63594e-09
-5.38753e-10
7.765e-09
-5.21429e-10
7.88974e-09
-5.04268e-10
8.01022e-09
-4.87294e-10
8.12651e-09
-4.7053e-10
8.23866e-09
-4.53997e-10
8.34674e-09
-4.37713e-10
8.45082e-09
-4.21695e-10
8.55099e-09
-4.05958e-10
8.64731e-09
-3.90514e-10
8.73986e-09
-3.75374e-10
8.82873e-09
-3.60547e-10
8.914e-09
-3.46043e-10
8.99575e-09
-3.31866e-10
9.07406e-09
-3.18022e-10
9.14903e-09
-3.04515e-10
9.22075e-09
-2.91348e-10
9.28928e-09
-2.78523e-10
9.35473e-09
-2.6604e-10
9.41718e-09
-2.539e-10
9.47671e-09
-2.42101e-10
9.53341e-09
-2.30641e-10
9.58736e-09
-2.1952e-10
9.63865e-09
-2.08732e-10
9.68736e-09
-1.98277e-10
9.73357e-09
-1.88148e-10
9.77737e-09
-1.78343e-10
9.81882e-09
-1.68855e-10
9.85801e-09
-1.59681e-10
9.89501e-09
-1.50815e-10
9.9299e-09
-1.4225e-10
9.96276e-09
-1.33982e-10
9.99365e-09
-1.26004e-10
1.00226e-08
-1.18309e-10
1.00498e-08
-1.10892e-10
1.00752e-08
-1.03746e-10
1.00989e-08
-9.68638e-11
1.0121e-08
-9.02393e-11
1.01415e-08
-8.38654e-11
1.01605e-08
-7.77359e-11
1.0178e-08
-7.18433e-11
1.01942e-08
-6.61813e-11
1.0209e-08
-6.07429e-11
1.02225e-08
-5.55216e-11
1.02348e-08
-5.05105e-11
1.02459e-08
-4.57031e-11
1.02559e-08
-4.10929e-11
1.02648e-08
-3.6673e-11
1.02726e-08
-3.24375e-11
1.02795e-08
-2.83797e-11
1.02853e-08
-2.44937e-11
1.02903e-08
-2.0773e-11
1.02944e-08
-1.72119e-11
1.02977e-08
-1.38044e-11
1.03001e-08
-1.05446e-11
1.03018e-08
-7.42688e-12
1.03027e-08
-4.44567e-12
1.0303e-08
-1.59576e-12
1.03025e-08
1.12841e-12
1.03015e-08
3.73201e-12
1.02998e-08
6.21994e-12
1.02975e-08
8.597e-12
1.02947e-08
1.08683e-11
1.02913e-08
1.30381e-11
1.02874e-08
1.51112e-11
1.02831e-08
1.7092e-11
1.02782e-08
1.89843e-11
1.02729e-08
2.07928e-11
1.02672e-08
2.2521e-11
1.02611e-08
2.4173e-11
1.02546e-08
2.57523e-11
1.02477e-08
2.72629e-11
1.02405e-08
2.87078e-11
1.02329e-08
3.00905e-11
1.0225e-08
3.14145e-11
1.02168e-08
3.26826e-11
1.02083e-08
3.38977e-11
1.01995e-08
3.5063e-11
1.01904e-08
3.61812e-11
1.0181e-08
3.72545e-11
1.01714e-08
3.82859e-11
1.01616e-08
3.92778e-11
1.01515e-08
4.02324e-11
1.01412e-08
4.11519e-11
1.01307e-08
4.20387e-11
1.01199e-08
4.28945e-11
1.0109e-08
4.37215e-11
1.00978e-08
4.45215e-11
1.00865e-08
4.52961e-11
1.00749e-08
4.60475e-11
1.00632e-08
4.67766e-11
1.00513e-08
4.74857e-11
1.00393e-08
4.81757e-11
1.00271e-08
4.88483e-11
1.00147e-08
4.95048e-11
1.00021e-08
5.01465e-11
9.98943e-09
5.07746e-11
9.97658e-09
5.13901e-11