/*--------------------------------*- C++ -*----------------------------------*\
  =========                 |
  \\      /  F ield         | OpenFOAM: The Open Source CFD Toolbox
   \\    /   O peration     | Website:  https://openfoam.org
    \\  /    A nd           | Version:  10
     \\/     M anipulation  |
\*---------------------------------------------------------------------------*/
FoamFile
{
    format      ascii;
    class       volVectorField;
    location    "0.43";
    object      Ua;
}
// * * * * * * * * * * * * * * * * * * * * * * * * * * * * * * * * * * * * * //

dimensions      [0 1 -1 0 0 0 0];

internalField   nonuniform List<vector> 
12225
(
(0.000115829 -1.31792e-05 0)
(0.000339065 -1.22452e-05 0)
(0.000542748 -1.05491e-05 0)
(0.000723971 -8.61601e-06 0)
(0.000883736 -6.79411e-06 0)
(0.0010249 -5.25069e-06 0)
(0.00115068 -4.03499e-06 0)
(0.00126394 -3.13826e-06 0)
(0.00136689 -2.53276e-06 0)
(0.00146124 -2.19344e-06 0)
(0.00154832 -2.11015e-06 0)
(0.00162943 -2.29842e-06 0)
(0.00170641 -2.81742e-06 0)
(0.00178266 -3.81556e-06 0)
(0.0018658 -5.68204e-06 0)
(0.00197626 -9.69221e-06 0)
(0.00218507 -2.19353e-05 0)
(0.00289406 -9.35243e-05 0)
(7.15882e-05 -3.48069e-05 0)
(0.000210352 -3.25534e-05 0)
(0.000338321 -2.82497e-05 0)
(0.000453014 -2.32465e-05 0)
(0.00055439 -1.84683e-05 0)
(0.000643847 -1.43777e-05 0)
(0.000723376 -1.11251e-05 0)
(0.000795079 -8.70169e-06 0)
(0.000860989 -7.0421e-06 0)
(0.000923091 -6.08419e-06 0)
(0.00098346 -5.8035e-06 0)
(0.00104453 -6.2437e-06 0)
(0.00110953 -7.56615e-06 0)
(0.00118347 -1.01728e-05 0)
(0.00127526 -1.51005e-05 0)
(0.00140417 -2.55957e-05 0)
(0.00162227 -5.55187e-05 0)
(0.0021142 -0.000199276 0)
(5.6755e-05 -4.92291e-05 0)
(0.000167776 -4.64841e-05 0)
(0.000272275 -4.0746e-05 0)
(0.00036809 -3.38564e-05 0)
(0.000454729 -2.71367e-05 0)
(0.000532873 -2.12878e-05 0)
(0.00060385 -1.6568e-05 0)
(0.00066927 -1.29971e-05 0)
(0.000730856 -1.05025e-05 0)
(0.000790415 -9.00809e-06 0)
(0.000849927 -8.48794e-06 0)
(0.000911743 -9.01366e-06 0)
(0.000979004 -1.08275e-05 0)
(0.00105646 -1.4515e-05 0)
(0.00115232 -2.15162e-05 0)
(0.00128324 -3.5936e-05 0)
(0.0014897 -7.23004e-05 0)
(0.00191095 -0.000200639 0)
(4.73429e-05 -5.9494e-05 0)
(0.000140791 -5.67323e-05 0)
(0.000230536 -5.02241e-05 0)
(0.000314703 -4.21176e-05 0)
(0.00039255 -3.40287e-05 0)
(0.00046429 -2.68629e-05 0)
(0.000530767 -2.09905e-05 0)
(0.000593193 -1.64789e-05 0)
(0.000652997 -1.32687e-05 0)
(0.00071178 -1.12868e-05 0)
(0.000771369 -1.05172e-05 0)
(0.000833986 -1.1062e-05 0)
(0.000902616 -1.32309e-05 0)
(0.000981725 -1.77337e-05 0)
(0.00107884 -2.61906e-05 0)
(0.00120853 -4.26603e-05 0)
(0.00140568 -7.8771e-05 0)
(0.00180494 -0.000175934 0)
(4.03971e-05 -6.65512e-05 0)
(0.000120838 -6.41079e-05 0)
(0.000199596 -5.73066e-05 0)
(0.00027506 -4.84767e-05 0)
(0.000346374 -3.9452e-05 0)
(0.000413444 -3.13116e-05 0)
(0.000476756 -2.4536e-05 0)
(0.000537202 -1.9251e-05 0)
(0.00059595 -1.54249e-05 0)
(0.000654402 -1.29994e-05 0)
(0.000714222 -1.19751e-05 0)
(0.000777484 -1.24832e-05 0)
(0.000846998 -1.48822e-05 0)
(0.000926942 -1.99439e-05 0)
(0.00102424 -2.92785e-05 0)
(0.00115216 -4.63772e-05 0)
(0.0013437 -7.93496e-05 0)
(0.0017362 -0.00015126 0)
(3.49204e-05 -7.09034e-05 0)
(0.000105055 -6.90271e-05 0)
(0.000175004 -6.22951e-05 0)
(0.000243403 -5.31304e-05 0)
(0.000309372 -4.35235e-05 0)
(0.00037262 -3.46966e-05 0)
(0.000433376 -2.72335e-05 0)
(0.000492268 -2.13233e-05 0)
(0.00055024 -1.69706e-05 0)
(0.000608499 -1.41403e-05 0)
(0.000668548 -1.28532e-05 0)
(0.000732305 -1.3265e-05 0)
(0.000802391 -1.5763e-05 0)
(0.000882709 -2.11277e-05 0)
(0.000979722 -3.08436e-05 0)
(0.00110601 -4.77133e-05 0)
(0.00129426 -7.7219e-05 0)
(0.00168216 -0.00013388 0)
(3.04394e-05 -7.28654e-05 0)
(9.20924e-05 -7.17412e-05 0)
(0.000154685 -6.53556e-05 0)
(0.00021708 -5.6168e-05 0)
(0.000278436 -4.6276e-05 0)
(0.000338354 -3.70149e-05 0)
(0.000396874 -2.90589e-05 0)
(0.000454416 -2.26601e-05 0)
(0.00051172 -1.78645e-05 0)
(0.000569816 -1.46641e-05 0)
(0.000630042 -1.31015e-05 0)
(0.000694151 -1.33508e-05 0)
(0.000764577 -1.58093e-05 0)
(0.000844973 -2.12296e-05 0)
(0.000941464 -3.09352e-05 0)
(0.00106628 -4.71826e-05 0)
(0.00125204 -7.40804e-05 0)
(0.00163284 -0.000123777 0)
(2.66863e-05 -7.26625e-05 0)
(8.11892e-05 -7.24215e-05 0)
(0.000137476 -6.65877e-05 0)
(0.000194622 -5.76253e-05 0)
(0.000251868 -4.76995e-05 0)
(0.000308771 -3.82277e-05 0)
(0.000365243 -2.99578e-05 0)
(0.000421536 -2.31996e-05 0)
(0.000478212 -1.80404e-05 0)
(0.000536129 -1.45019e-05 0)
(0.000596463 -1.26467e-05 0)
(0.000660803 -1.26604e-05 0)
(0.000731394 -1.4935e-05 0)
(0.000811663 -2.01764e-05 0)
(0.000907474 -2.95649e-05 0)
(0.00103078 -4.50452e-05 0)
(0.00121366 -7.03524e-05 0)
(0.00158344 -0.000118285 0)
(2.34916e-05 -7.04777e-05 0)
(7.18645e-05 -7.11999e-05 0)
(0.000122649 -6.6057e-05 0)
(0.000175114 -5.75104e-05 0)
(0.000228621 -4.77611e-05 0)
(0.000282733 -3.82768e-05 0)
(0.00033728 -2.98583e-05 0)
(0.000392378 -2.2863e-05 0)
(0.000448434 -1.74164e-05 0)
(0.000506146 -1.35683e-05 0)
(0.000566529 -1.1399e-05 0)
(0.000631007 -1.10984e-05 0)
(0.000701641 -1.30403e-05 0)
(0.000781647 -1.78754e-05 0)
(0.000876638 -2.66738e-05 0)
(0.000998199 -4.12526e-05 0)
(0.00117714 -6.54896e-05 0)
(0.00153173 -0.000113624 0)
(2.07377e-05 -6.64793e-05 0)
(6.37834e-05 -6.81905e-05 0)
(0.000109694 -6.38127e-05 0)
(0.000157928 -5.58181e-05 0)
(0.000207991 -4.64173e-05 0)
(0.000259488 -3.70948e-05 0)
(0.000312202 -2.86793e-05 0)
(0.000366143 -2.15618e-05 0)
(0.000421582 -1.58996e-05 0)
(0.000479066 -1.17671e-05 0)
(0.000539456 -9.25803e-06 0)
(0.000604013 -8.55872e-06 0)
(0.000674622 -1.00142e-05 0)
(0.000754291 -1.42107e-05 0)
(0.000848353 -2.21212e-05 0)
(0.000967852 -3.54903e-05 0)
(0.00114171 -5.8345e-05 0)
(0.00147789 -0.000105544 0)
(1.83352e-05 -6.08413e-05 0)
(5.669e-05 -6.35037e-05 0)
(9.82247e-05 -5.98987e-05 0)
(0.000142591 -5.254e-05 0)
(0.000189456 -4.36229e-05 0)
(0.000238496 -3.46128e-05 0)
(0.000289466 -2.63373e-05 0)
(0.000342292 -1.92038e-05 0)
(0.000397125 -1.33919e-05 0)
(0.000454375 -8.99547e-06 0)
(0.000514758 -6.11601e-06 0)
(0.000579378 -4.92877e-06 0)
(0.000649949 -5.73761e-06 0)
(0.000729271 -9.04826e-06 0)
(0.000822364 -1.57105e-05 0)
(0.000939603 -2.73106e-05 0)
(0.00110775 -4.76305e-05 0)
(0.00142466 -9.02935e-05 0)
(1.60123e-05 -5.43098e-05 0)
(4.98589e-05 -5.77732e-05 0)
(8.72518e-05 -5.4854e-05 0)
(0.000128018 -4.81298e-05 0)
(0.000171952 -3.97568e-05 0)
(0.000218766 -3.11506e-05 0)
(0.000268182 -2.31117e-05 0)
(0.00032004 -1.60467e-05 0)
(0.00037438 -1.01466e-05 0)
(0.000431489 -5.51769e-06 0)
(0.000491935 -2.26683e-06 0)
(0.000556667 -5.22288e-07 0)
(0.000627276 -5.94695e-07 0)
(0.000706421 -2.8921e-06 0)
(0.000798809 -8.06105e-06 0)
(0.000914142 -1.74159e-05 0)
(0.00107729 -3.40408e-05 0)
(0.00137808 -6.86688e-05 0)
(1.44656e-05 -4.67696e-05 0)
(4.52065e-05 -5.08494e-05 0)
(7.95643e-05 -4.85067e-05 0)
(0.000117562 -4.24031e-05 0)
(0.000159153 -3.46253e-05 0)
(0.000204133 -2.65053e-05 0)
(0.000252238 -1.87867e-05 0)
(0.000303269 -1.18587e-05 0)
(0.000357192 -5.90899e-06 0)
(0.000414141 -1.01735e-06 0)
(0.000474562 2.71583e-06 0)
(0.000539419 5.10103e-06 0)
(0.000610215 5.89732e-06 0)
(0.000689383 4.82082e-06 0)
(0.000781391 1.45272e-06 0)
(0.000895499 -5.0647e-06 0)
(0.0010553 -1.66536e-05 0)
(0.00134579 -3.99847e-05 0)
(1.2869e-05 -3.74219e-05 0)
(4.03297e-05 -4.18287e-05 0)
(7.14117e-05 -3.99216e-05 0)
(0.000106435 -3.44476e-05 0)
(0.000145528 -2.73544e-05 0)
(0.000188562 -1.98442e-05 0)
(0.000235273 -1.25488e-05 0)
(0.000285421 -5.82956e-06 0)
(0.000338731 2.65448e-07 0)
(0.000395289 5.5492e-06 0)
(0.000455726 9.86544e-06 0)
(0.000520856 1.3044e-05 0)
(0.00059196 1.49826e-05 0)
(0.000671339 1.55511e-05 0)
(0.000763292 1.45987e-05 0)
(0.000876794 1.19424e-05 0)
(0.00103475 7.27176e-06 0)
(0.00131949 -7.34581e-07 0)
(1.11217e-05 -2.63418e-05 0)
(3.49428e-05 -3.03654e-05 0)
(6.24177e-05 -2.85992e-05 0)
(9.43073e-05 -2.37279e-05 0)
(0.000130837 -1.7366e-05 0)
(0.000171908 -1.05855e-05 0)
(0.000217106 -3.80002e-06 0)
(0.000265868 2.90953e-06 0)
(0.000318303 9.18204e-06 0)
(0.000374792 1.4852e-05 0)
(0.000435564 1.97983e-05 0)
(0.000501197 2.39849e-05 0)
(0.000572892 2.73826e-05 0)
(0.000652916 3.00166e-05 0)
(0.000745607 3.20684e-05 0)
(0.000860105 3.4116e-05 0)
(0.00101968 3.78092e-05 0)
(0.00130771 4.87841e-05 0)
(8.80828e-06 -1.38117e-05 0)
(2.7991e-05 -1.60714e-05 0)
(5.13173e-05 -1.40534e-05 0)
(8.01082e-05 -9.83873e-06 0)
(0.000114017 -4.09166e-06 0)
(0.000152407 2.20797e-06 0)
(0.000195518 8.56772e-06 0)
(0.000243534 1.51046e-05 0)
(0.000296193 2.14034e-05 0)
(0.000353223 2.74499e-05 0)
(0.000414731 3.32259e-05 0)
(0.000481263 3.87187e-05 0)
(0.000554027 4.39485e-05 0)
(0.000635398 4.90349e-05 0)
(0.000730092 5.43547e-05 0)
(0.000848325 6.09727e-05 0)
(0.00101655 7.20477e-05 0)
(0.00133115 9.96327e-05 0)
(4.42446e-06 1.99187e-07 0)
(1.54508e-05 1.71816e-06 0)
(3.2278e-05 4.30614e-06 0)
(5.63885e-05 7.87868e-06 0)
(8.78614e-05 1.27599e-05 0)
(0.000126136 1.83696e-05 0)
(0.000170133 2.42661e-05 0)
(0.000219125 3.04468e-05 0)
(0.000272735 3.69003e-05 0)
(0.000330844 4.36295e-05 0)
(0.000393618 5.06467e-05 0)
(0.000461643 5.79769e-05 0)
(0.000536201 6.56769e-05 0)
(0.000619898 7.38785e-05 0)
(0.000718101 8.28823e-05 0)
(0.00084295 9.34446e-05 0)
(0.00102772 0.000107938 0)
(0.00140462 0.000137257 0)
(1.03143e-05 1.73574e-05 0)
(3.15546e-05 2.40242e-05 0)
(5.50009e-05 2.83113e-05 0)
(8.22999e-05 3.19696e-05 0)
(0.000114475 3.59711e-05 0)
(0.000151923 4.05365e-05 0)
(0.000194599 4.57596e-05 0)
(0.000242318 5.17293e-05 0)
(0.000294923 5.85382e-05 0)
(0.000352388 6.62845e-05 0)
(0.000414932 7.50775e-05 0)
(0.000483177 8.50604e-05 0)
(0.000558468 9.64711e-05 0)
(0.000643532 0.000109772 0)
(0.000744019 0.000125948 0)
(0.000873142 0.00014741 0)
(0.00107103 0.000181886 0)
(0.00154407 0.000272025 0)
(1.42123e-05 4.14225e-05 0)
(4.36828e-05 5.17067e-05 0)
(7.54636e-05 5.81488e-05 0)
(0.00011012 6.25462e-05 0)
(0.000148295 6.62865e-05 0)
(0.000190469 7.02441e-05 0)
(0.000236911 7.49996e-05 0)
(0.00028777 8.09793e-05 0)
(0.000343178 8.85288e-05 0)
(0.00040337 9.79531e-05 0)
(0.000468856 0.000109554 0)
(0.0005407 0.000123699 0)
(0.000621091 0.000140993 0)
(0.000714555 0.000162679 0)
(0.000831189 0.000191729 0)
(0.000997899 0.00023652 0)
(0.00131841 0.000329789 0)
(0.00308809 0.000881509 0)
(1.59801e-05 6.74793e-05 0)
(4.95634e-05 7.81175e-05 0)
(8.63437e-05 8.50394e-05 0)
(0.000126375 8.95311e-05 0)
(0.000169906 9.29836e-05 0)
(0.000217211 9.65506e-05 0)
(0.000268529 0.000101149 0)
(0.000324078 0.000107528 0)
(0.000384123 0.000116334 0)
(0.000449089 0.000128155 0)
(0.000519799 0.00014357 0)
(0.000597956 0.000163246 0)
(0.000687216 0.00018819 0)
(0.000795848 0.000220462 0)
(0.000945069 0.000265579 0)
(0.00120601 0.000343652 0)
(0.00210331 0.000608262 0)
(0.0104006 0.00275429 0)
(1.87985e-05 8.86124e-05 0)
(5.80589e-05 9.77529e-05 0)
(0.000100607 0.000103645 0)
(0.000146434 0.000107287 0)
(0.000195659 0.000110005 0)
(0.000248493 0.000113056 0)
(0.000305214 0.000117551 0)
(0.00036616 0.000124491 0)
(0.000431781 0.00013483 0)
(0.000502762 0.00014953 0)
(0.000580322 0.000169637 0)
(0.00066693 0.00019644 0)
(0.000768033 0.000231934 0)
(0.000897188 0.00028034 0)
(0.00109692 0.000354117 0)
(0.00158827 0.000515017 0)
(0.00754285 0.00385953 0)
(0.0171832 -0.00103352 0)
(2.22539e-05 0.000104472 0)
(6.82872e-05 0.000111691 0)
(0.000117384 0.000116024 0)
(0.000169574 0.000118402 0)
(0.000224965 0.000120132 0)
(0.000283803 0.000122539 0)
(0.000346487 0.00012688 0)
(0.000413576 0.000134399 0)
(0.000485837 0.000146417 0)
(0.000564406 0.000164448 0)
(0.000651212 0.00019037 0)
(0.000750095 0.000226818 0)
(0.000869854 0.000278582 0)
(0.00103465 0.000358615 0)
(0.00133726 0.000523085 0)
(0.00309631 0.00169345 0)
(0.0127707 0.00311354 0)
(0.0211104 -0.00655737 0)
(2.63828e-05 0.000114214 0)
(8.04278e-05 0.000119509 0)
(0.000137066 0.000122152 0)
(0.000196365 0.00012313 0)
(0.00025848 0.000123765 0)
(0.000323778 0.000125421 0)
(0.000392884 0.000129468 0)
(0.00046672 0.000137371 0)
(0.000546585 0.00015086 0)
(0.000634392 0.00017218 0)
(0.000733346 0.000204428 0)
(0.000850126 0.000252293 0)
(0.00100275 0.000324507 0)
(0.00125741 0.000445289 0)
(0.00210465 0.000754933 0)
(0.0107755 0.00645225 0)
(0.0209775 -0.0035931 0)
(0.0228457 -0.006427 0)
(3.12476e-05 0.000117714 0)
(9.4683e-05 0.000121255 0)
(0.00016001 0.000122309 0)
(0.000227289 0.000121951 0)
(0.000296755 0.000121512 0)
(0.00036896 0.000122367 0)
(0.000444855 0.000125938 0)
(0.000525886 0.000133855 0)
(0.000614149 0.00014825 0)
(0.000712743 0.000172213 0)
(0.000826722 0.000210556 0)
(0.00096626 0.000271488 0)
(0.00115896 0.000373021 0)
(0.00151681 0.000589266 0)
(0.00398897 0.00290803 0)
(0.0153943 0.00428849 0)
(0.024246 -0.00610816 0)
(0.023591 -0.00554161 0)
(3.6977e-05 0.00011523 0)
(0.000111428 0.000117265 0)
(0.000186811 0.000116969 0)
(0.000263127 0.000115479 0)
(0.000340696 0.000114106 0)
(0.000420302 0.000114182 0)
(0.000503317 0.000117109 0)
(0.000591863 0.000124586 0)
(0.000689124 0.000139036 0)
(0.000799974 0.000164366 0)
(0.000932633 0.000207462 0)
(0.0011049 0.000281572 0)
(0.00137853 0.000417005 0)
(0.00225397 0.000747723 0)
(0.0114908 0.00897544 0)
(0.0225484 -0.00398843 0)
(0.0248251 -0.00547802 0)
(0.0242393 -0.00477641 0)
(4.38264e-05 0.00010717 0)
(0.000131399 0.00010799 0)
(0.000218633 0.000106671 0)
(0.000305405 0.000104356 0)
(0.000392118 0.000102288 0)
(0.000479834 0.000101695 0)
(0.000570413 0.00010388 0)
(0.000666781 0.000110482 0)
(0.000773456 0.00012401 0)
(0.000897715 0.000148915 0)
(0.00105232 0.000194144 0)
(0.00126357 0.000280631 0)
(0.00160821 0.000473627 0)
(0.00307266 0.00146611 0)
(0.0155573 0.00921692 0)
(0.0264971 -0.0061465 0)
(0.0257843 -0.00486248 0)
(0.0249378 -0.00401271 0)
(5.23326e-05 9.39193e-05 0)
(0.000156156 9.38462e-05 0)
(0.000257946 9.1895e-05 0)
(0.000357387 8.91417e-05 0)
(0.000454968 8.66993e-05 0)
(0.00055206 8.5638e-05 0)
(0.00065108 8.70838e-05 0)
(0.000755842 9.2488e-05 0)
(0.000872371 0.000104176 0)
(0.00101093 0.000126603 0)
(0.00119156 0.000169736 0)
(0.00146361 0.000261577 0)
(0.00202318 0.000525537 0)
(0.00620511 0.00596372 0)
(0.0192891 0.000439169 0)
(0.0279562 -0.00542422 0)
(0.026726 -0.00403034 0)
(0.0255726 -0.00316853 0)
(6.38452e-05 7.56926e-05 0)
(0.000189628 7.50784e-05 0)
(0.000311002 7.29353e-05 0)
(0.000427363 7.01895e-05 0)
(0.000539266 6.77612e-05 0)
(0.000648446 6.6509e-05 0)
(0.00075794 6.73212e-05 0)
(0.000872512 7.13491e-05 0)
(0.00099981 8.04912e-05 0)
(0.00115332 9.85288e-05 0)
(0.00136178 0.000134341 0)
(0.00170879 0.000213974 0)
(0.00270509 0.000463795 0)
(0.0135194 0.0126967 0)
(0.0266215 -0.00635915 0)
(0.0289994 -0.00451885 0)
(0.0275289 -0.00303355 0)
(0.0260784 -0.00226208 0)
(8.35588e-05 5.22872e-05 0)
(0.000246909 5.15073e-05 0)
(0.000401708 4.96524e-05 0)
(0.000546804 4.74056e-05 0)
(0.000682747 4.54249e-05 0)
(0.000811669 4.43048e-05 0)
(0.000937308 4.46459e-05 0)
(0.00106551 4.72228e-05 0)
(0.00120571 5.33266e-05 0)
(0.00137489 6.5549e-05 0)
(0.00161013 9.00255e-05 0)
(0.00202114 0.000144356 0)
(0.00338393 0.000327715 0)
(0.0186074 0.0137849 0)
(0.0324525 -0.0080042 0)
(0.0307274 -0.00326927 0)
(0.0282406 -0.00188962 0)
(0.0264313 -0.00133359 0)
(0.000187496 1.96556e-05 0)
(0.000551121 1.92725e-05 0)
(0.000889858 1.84794e-05 0)
(0.00120028 1.75448e-05 0)
(0.00148058 1.67228e-05 0)
(0.00173026 1.62375e-05 0)
(0.00195035 1.6312e-05 0)
(0.00214427 1.72315e-05 0)
(0.00232052 1.94716e-05 0)
(0.00249935 2.39836e-05 0)
(0.00273361 3.30184e-05 0)
(0.00321496 5.31705e-05 0)
(0.00659011 0.000133063 0)
(0.0306269 0.00598768 0)
(0.0432896 -0.00391972 0)
(0.0324368 -0.00123007 0)
(0.028672 -0.000638049 0)
(0.0266023 -0.0004345 0)
(9.95873e-05 -0.000212863 -2.75002e-30)
(0.000299568 -0.000212557 2.7437e-30)
(0.000500797 -0.000212033 0)
(0.000703072 -0.000211288 0)
(0.000906184 -0.000210321 0)
(0.00110992 -0.000209132 -2.68986e-30)
(0.00131405 -0.00020772 0)
(0.00151836 -0.00020609 0)
(0.00172263 -0.000204244 0)
(0.00192661 -0.000202186 0)
(0.00213009 -0.000199923 2.5588e-30)
(0.00233284 -0.000197462 0)
(0.00253462 -0.000194809 0)
(0.00273523 -0.000191975 0)
(0.00293443 -0.000188969 0)
(0.00313203 -0.000185802 2.36446e-30)
(0.00332781 -0.000182484 0)
(0.00352158 -0.000179028 0)
(0.00371315 -0.000175446 0)
(0.00390233 -0.000171751 0)
(0.00408897 -0.000167954 0)
(0.0042729 -0.00016407 0)
(0.00445397 -0.000160111 0)
(0.00463204 -0.000156089 1.96272e-30)
(0.004807 -0.000152017 -1.90803e-30)
(0.00497873 -0.000147908 1.8529e-30)
(0.00514712 -0.000143773 1.79746e-30)
(0.00531208 -0.000139624 0)
(0.00547355 -0.00013547 0)
(0.00563145 -0.000131324 -1.63084e-30)
(0.00578572 -0.000127194 -1.57564e-30)
(0.00593632 -0.000123089 0)
(0.00608321 -0.000119019 0)
(0.00622637 -0.00011499 -1.41271e-30)
(0.00636579 -0.00011101 0)
(0.00650146 -0.000107086 0)
(0.00663337 -0.000103224 1.25583e-30)
(0.00676154 -9.94275e-05 0)
(0.00688598 -9.57028e-05 1.15564e-30)
(0.00700673 -9.20535e-05 2.2141e-30)
(0.0071238 -8.84832e-05 0)
(0.00723724 -8.49948e-05 0)
(0.00734708 -8.15909e-05 0)
(0.00745338 -7.82735e-05 0)
(0.00755617 -7.50442e-05 0)
(0.00765553 -7.19041e-05 1.67794e-30)
(0.0077515 -6.88542e-05 1.59683e-30)
(0.00784414 -6.58949e-05 1.51815e-30)
(0.00793352 -6.30263e-05 0)
(0.00801971 -6.02483e-05 -1.36804e-30)
(0.00810276 -5.75604e-05 0)
(0.00818276 -5.49622e-05 1.22755e-30)
(0.00825977 -5.24526e-05 1.16086e-30)
(0.00833387 -5.00307e-05 0)
(0.00840512 -4.76953e-05 0)
(0.00847361 -4.5445e-05 0)
(0.00853939 -4.32783e-05 9.1711e-31)
(0.00860256 -4.11936e-05 0)
(0.00866318 -3.91893e-05 0)
(0.00872132 -3.72636e-05 0)
(0.00877705 -3.54146e-05 0)
(0.00883046 -3.36405e-05 0)
(0.00888162 -3.19393e-05 0)
(0.00893058 -3.0309e-05 0)
(0.00897743 -2.87477e-05 0)
(0.00902224 -2.72533e-05 -4.91472e-31)
(0.00906506 -2.58238e-05 0)
(0.00910598 -2.44573e-05 0)
(0.00914505 -2.31517e-05 3.82551e-31)
(0.00918234 -2.1905e-05 3.4944e-31)
(0.00921792 -2.07152e-05 0)
(0.00925184 -1.95805e-05 -2.87715e-31)
(0.00928418 -1.84987e-05 2.58988e-31)
(0.00931498 -1.74682e-05 0)
(0.0093443 -1.64868e-05 -2.05561e-31)
(0.00937221 -1.55529e-05 0)
(0.00939876 -1.46646e-05 0)
(0.009424 -1.38202e-05 1.34751e-31)
(0.00944799 -1.30179e-05 0)
(0.00947077 -1.2256e-05 -9.32127e-32)
(0.0094924 -1.15329e-05 0)
(0.00951292 -1.0847e-05 5.57928e-32)
(0.00953238 -1.01967e-05 3.85249e-32)
(0.00955083 -9.58049e-06 2.21613e-32)
(0.00956831 -8.99693e-06 1.33303e-32)
(0.00958487 -8.44456e-06 1.60121e-32)
(0.00960054 -7.92201e-06 0)
(0.00961536 -7.42794e-06 0)
(0.00962937 -6.96104e-06 0)
(0.00964262 -6.52006e-06 1.18229e-31)
(0.00965512 -6.10379e-06 1.40343e-31)
(0.00966693 -5.71107e-06 -1.61202e-31)
(0.00967808 -5.34075e-06 0)
(0.00968859 -4.99177e-06 1.9941e-31)
(0.00969849 -4.66306e-06 2.16876e-31)
(0.00970782 -4.35363e-06 2.33314e-31)
(0.00971661 -4.0625e-06 0)
(0.00972487 -3.78876e-06 0)
(0.00973265 -3.53149e-06 0)
(0.00973996 -3.28986e-06 2.89827e-31)
(0.00974682 -3.06304e-06 0)
(0.00975327 -2.85024e-06 0)
(0.00975932 -2.65072e-06 -3.2378e-31)
(0.009765 -2.46375e-06 0)
(0.00977032 -2.28864e-06 0)
(0.0097753 -2.12474e-06 -3.51729e-31)
(0.00977997 -1.97142e-06 0)
(0.00978433 -1.82809e-06 0)
(0.00978842 -1.69417e-06 3.74608e-31)
(0.00979223 -1.56912e-06 3.81253e-31)
(0.0097958 -1.45242e-06 0)
(0.00979913 -1.34359e-06 -3.93241e-31)
(0.00980223 -1.24215e-06 0)
(0.00980513 -1.14766e-06 4.03651e-31)
(0.00980783 -1.0597e-06 0)
(0.00981034 -9.7787e-07 4.12678e-31)
(0.00981268 -9.01788e-07 4.16716e-31)
(0.00981486 -8.31095e-07 0)
(0.00981688 -7.65452e-07 0)
(0.00981876 -7.04537e-07 0)
(0.0098205 -6.48046e-07 0)
(0.00982212 -5.95691e-07 0)
(0.00982362 -5.47199e-07 0)
(0.00982501 -5.02316e-07 0)
(0.0098263 -4.60798e-07 4.40163e-31)
(0.00982749 -4.22419e-07 -4.42199e-31)
(0.00982859 -3.86962e-07 0)
(0.00982961 -3.54226e-07 0)
(0.00983055 -3.2402e-07 0)
(0.00983141 -2.96164e-07 0)
(0.00983221 -2.70491e-07 -9.00555e-31)
(0.00983295 -2.4684e-07 0)
(0.00983363 -2.25062e-07 9.05387e-31)
(0.00983425 -2.05016e-07 -9.0752e-31)
(0.00983482 -1.86568e-07 0)
(0.00983535 -1.69593e-07 0)
(0.00983583 -1.53971e-07 0)
(0.00983627 -1.39589e-07 9.1448e-31)
(0.00983668 -1.26338e-07 9.15887e-31)
(0.00983704 -1.14113e-07 0)
(0.00983738 -1.02814e-07 9.18383e-31)
(0.00983768 -9.23401e-08 9.19491e-31)
(0.00983796 -8.25932e-08 -9.2053e-31)
(0.00983821 -7.34737e-08 0)
(0.00983843 -6.48793e-08 0)
(0.00983862 -5.67026e-08 -9.23269e-31)
(0.0098388 -4.88289e-08 0)
(0.00983895 -4.1132e-08 0)
(0.00983907 -3.34711e-08 0)
(0.00983917 -2.56847e-08 0)
(0.00983924 -1.75846e-08 9.27371e-31)
(0.00983929 -8.94728e-09 9.28268e-31)
(0.0098393 4.95999e-10 0)
(0.00983928 1.10734e-08 9.30339e-31)
(0.00983922 2.31888e-08 0)
(0.00983911 3.73449e-08 0)
(0.00983895 5.41704e-08 9.34764e-31)
(0.00983872 7.44582e-08 0)
(0.0098384 9.92134e-08 9.39371e-31)
(0.00983798 1.29717e-07 0)
(0.00983742 1.6761e-07 0)
(0.0098367 2.15004e-07 9.51181e-31)
(0.00983578 2.74638e-07 0)
(0.00983458 3.50077e-07 9.64945e-31)
(0.00983304 4.46001e-07 0)
(0.00983106 5.68604e-07 0)
(0.00982851 7.26163e-07 0)
(0.00982521 9.29874e-07 -1.02401e-30)
(0.00982094 1.19511e-06 0)
(0.00981539 1.54335e-06 1.08652e-30)
(0.00980812 2.00534e-06 0)
(0.00979855 2.62633e-06 0)
(0.00978581 3.47547e-06 0)
(0.00976865 4.66357e-06 0)
(0.00974515 6.37966e-06 0)
(0.00971215 8.97469e-06 0)
(0.00966406 1.31817e-05 0)
(0.00958953 2.08193e-05 -6.11654e-30)
(0.00945994 3.77171e-05 0)
(0.00917272 9.07015e-05 0)
(0.000100042 -0.000639563 8.2626e-30)
(0.000300934 -0.000638639 -8.24353e-30)
(0.000503073 -0.000637055 0)
(0.000706251 -0.000634804 1.63759e-29)
(0.000910254 -0.000631882 0)
(0.00111486 -0.000628288 -8.10727e-30)
(0.00131985 -0.000624025 -1.60683e-29)
(0.001525 -0.0006191 -1.59313e-29)
(0.00173006 -0.000613523 0)
(0.00193481 -0.000607309 -1.56072e-29)
(0.00213902 -0.000600476 7.73572e-30)
(0.00234245 -0.000593044 0)
(0.00254489 -0.000585039 0)
(0.00274609 -0.000576486 0)
(0.00294584 -0.000567417 0)
(0.00314394 -0.000557862 7.17309e-30)
(0.00334017 -0.000547858 0)
(0.00353433 -0.000537438 1.37255e-29)
(0.00372624 -0.000526641 0)
(0.00391571 -0.000515504 0)
(0.00410258 -0.000504067 -1.28361e-29)
(0.0042867 -0.000492367 0)
(0.0044679 -0.000480445 1.22082e-29)
(0.00464607 -0.000468338 5.99828e-30)
(0.00482107 -0.000456084 -5.83783e-30)
(0.00499279 -0.000443719 5.67599e-30)
(0.00516114 -0.00043128 5.51323e-30)
(0.00532603 -0.0004188 0)
(0.00548738 -0.000406312 0)
(0.00564513 -0.000393847 -5.02371e-30)
(0.00579923 -0.000381434 -1.44474e-29)
(0.00594962 -0.0003691 0)
(0.00609629 -0.000356871 0)
(0.0062392 -0.00034477 -4.3824e-30)
(0.00637835 -0.000332818 0)
(0.00651373 -0.000321035 0)
(0.00664534 -0.000309439 3.92096e-30)
(0.0067732 -0.000298044 0)
(0.00689732 -0.000286865 1.07158e-29)
(0.00701774 -0.000275914 6.96653e-30)
(0.00713448 -0.000265201 0)
(0.00724758 -0.000254736 0)
(0.00735708 -0.000244525 -1.19468e-29)
(0.00746304 -0.000234575 -1.14224e-29)
(0.0075655 -0.00022489 -1.0912e-29)
(0.00766451 -0.000215473 1.58048e-29)
(0.00776015 -0.000206328 5.15023e-30)
(0.00785246 -0.000197455 -4.54789e-30)
(0.00794152 -0.000188854 9.01354e-30)
(0.00802738 -0.000180526 -4.47696e-30)
(0.00811013 -0.000172469 0)
(0.00818982 -0.00016468 4.06353e-30)
(0.00826653 -0.000157158 1.12115e-29)
(0.00834033 -0.000149899 0)
(0.0084113 -0.0001429 0)
(0.00847951 -0.000136156 0)
(0.00854503 -0.000129662 3.14995e-30)
(0.00860793 -0.000123415 0)
(0.00866829 -0.000117409 5.25129e-30)
(0.00872619 -0.000111639 0)
(0.00878169 -0.000106098 4.65583e-30)
(0.00883488 -0.000100782 0)
(0.00888581 -9.5685e-05 -4.10764e-30)
(0.00893457 -9.08003e-05 0)
(0.00898121 -8.61223e-05 3.60425e-30)
(0.00902583 -8.1645e-05 -5.26595e-30)
(0.00906847 -7.73623e-05 0)
(0.0091092 -7.32682e-05 -2.92763e-30)
(0.0091481 -6.93566e-05 1.57685e-30)
(0.00918523 -6.56216e-05 1.47942e-30)
(0.00922065 -6.20572e-05 0)
(0.00925443 -5.86576e-05 -3.45633e-30)
(0.00928662 -5.54169e-05 1.21324e-30)
(0.00931728 -5.23295e-05 0)
(0.00934648 -4.93896e-05 -1.05603e-30)
(0.00937427 -4.65919e-05 -1.52346e-30)
(0.0094007 -4.39308e-05 0)
(0.00942583 -4.14011e-05 8.47656e-31)
(0.00944971 -3.89975e-05 0)
(0.00947239 -3.67152e-05 2.78151e-31)
(0.00949392 -3.4549e-05 0)
(0.00951435 -3.24942e-05 -1.66072e-31)
(0.00953373 -3.05461e-05 5.64513e-31)
(0.0095521 -2.87002e-05 1.09805e-30)
(0.0095695 -2.6952e-05 1.92087e-30)
(0.00958598 -2.52973e-05 -1.66033e-30)
(0.00960158 -2.37319e-05 0)
(0.00961633 -2.22519e-05 0)
(0.00963029 -2.08532e-05 0)
(0.00964347 -1.95322e-05 -3.56267e-31)
(0.00965593 -1.82852e-05 -4.89383e-31)
(0.00966768 -1.71087e-05 4.28007e-31)
(0.00967878 -1.59994e-05 0)
(0.00968924 -1.4954e-05 -3.17461e-32)
(0.0096991 -1.39693e-05 -2.64214e-31)
(0.00970839 -1.30423e-05 -2.15853e-31)
(0.00971714 -1.21702e-05 0)
(0.00972537 -1.13501e-05 0)
(0.00973311 -1.05795e-05 0)
(0.00974039 -9.85563e-06 -4.9595e-32)
(0.00974722 -9.17615e-06 0)
(0.00975364 -8.53868e-06 9.59328e-31)
(0.00975967 -7.94096e-06 9.71974e-31)
(0.00976532 -7.38085e-06 -1.08126e-30)
(0.00977061 -6.85628e-06 0)
(0.00977558 -6.36529e-06 -1.32071e-30)
(0.00978022 -5.906e-06 0)
(0.00978457 -5.47662e-06 -1.28179e-30)
(0.00978864 -5.07543e-06 1.52384e-30)
(0.00979244 -4.70082e-06 1.58285e-30)
(0.00979599 -4.35123e-06 0)
(0.0097993 -4.02519e-06 1.18003e-30)
(0.00980239 -3.72131e-06 -1.46664e-30)
(0.00980528 -3.43824e-06 2.85238e-31)
(0.00980797 -3.17473e-06 0)
(0.00981047 -2.92958e-06 3.11782e-31)
(0.0098128 -2.70166e-06 -1.25037e-30)
(0.00981496 -2.48988e-06 0)
(0.00981698 -2.29322e-06 -1.61706e-30)
(0.00981885 -2.11074e-06 -1.63628e-30)
(0.00982058 -1.9415e-06 -1.65411e-30)
(0.0098222 -1.78465e-06 0)
(0.00982369 -1.63938e-06 0)
(0.00982507 -1.50492e-06 0)
(0.00982636 -1.38054e-06 2.10582e-30)
(0.00982754 -1.26556e-06 -3.98612e-31)
(0.00982864 -1.15933e-06 0)
(0.00982965 -1.06126e-06 1.74683e-30)
(0.00983059 -9.70768e-07 1.75637e-30)
(0.00983145 -8.87316e-07 0)
(0.00983225 -8.10401e-07 -8.44733e-31)
(0.00983298 -7.39546e-07 3.56146e-30)
(0.00983366 -6.74302e-07 8.5894e-31)
(0.00983428 -6.14247e-07 -4.45306e-30)
(0.00983485 -5.58981e-07 0)
(0.00983537 -5.08127e-07 0)
(0.00983585 -4.61327e-07 0)
(0.00983629 -4.18241e-07 8.85669e-31)
(0.00983669 -3.78545e-07 4.52732e-30)
(0.00983706 -3.41924e-07 3.64522e-30)
(0.00983739 -3.08077e-07 8.9716e-31)
(0.0098377 -2.76704e-07 4.55937e-30)
(0.00983797 -2.4751e-07 -9.03479e-31)
(0.00983822 -2.20198e-07 0)
(0.00983844 -1.94461e-07 0)
(0.00983863 -1.69979e-07 -4.59294e-30)
(0.00983881 -1.46407e-07 0)
(0.00983895 -1.2337e-07 0)
(0.00983908 -1.00445e-07 3.69592e-30)
(0.00983918 -7.71512e-08 0)
(0.00983925 -5.29256e-08 4.62953e-30)
(0.0098393 -2.71008e-08 9.26392e-31)
(0.00983931 1.12626e-09 0)
(0.00983929 3.2735e-08 4.65612e-30)
(0.00983924 6.89321e-08 0)
(0.00983913 1.11217e-07 0)
(0.00983897 1.61469e-07 9.4586e-31)
(0.00983874 2.22052e-07 3.76249e-30)
(0.00983843 2.95969e-07 9.59718e-31)
(0.00983801 3.8704e-07 0)
(0.00983747 5.00163e-07 0)
(0.00983676 6.41642e-07 4.8438e-30)
(0.00983585 8.1964e-07 0)
(0.00983467 1.04479e-06 4.96787e-30)
(0.00983315 1.33105e-06 0)
(0.0098312 1.69687e-06 0)
(0.00982869 2.1669e-06 0)
(0.00982545 2.77446e-06 -1.21476e-30)
(0.00982125 3.56524e-06 0)
(0.00981579 4.60303e-06 1.40292e-30)
(0.00980865 5.97893e-06 0)
(0.00979926 7.82675e-06 0)
(0.00978679 1.03502e-05 5.83731e-30)
(0.00977003 1.38742e-05 -6.55972e-30)
(0.00974718 1.89485e-05 0)
(0.00971531 2.6581e-05 0)
(0.00966951 3.88282e-05 0)
(0.00960069 6.05573e-05 1.79629e-29)
(0.00949133 0.000105884 0)
(0.00931879 0.000227987 -1.01333e-28)
(0.000100963 -0.00106921 5.52645e-29)
(0.000303698 -0.00106764 -7.22744e-33)
(0.000507675 -0.00106496 0)
(0.000712678 -0.00106116 1.68829e-32)
(0.000918485 -0.00105622 0)
(0.00112486 -0.00105014 0)
(0.00133158 -0.00104294 -5.37612e-29)
(0.0015384 -0.00103461 -2.66714e-29)
(0.00174508 -0.00102519 2.63769e-29)
(0.00195138 -0.0010147 -2.61371e-29)
(0.00215706 -0.00100316 0)
(0.00236187 -0.000990614 0)
(0.0025656 -0.000977106 -2.50758e-29)
(0.002768 -0.000962682 -4.93772e-29)
(0.00296886 -0.000947393 4.85583e-29)
(0.00316795 -0.000931294 0)
(0.00336507 -0.000914443 4.67988e-29)
(0.00356001 -0.000896903 2.30163e-29)
(0.0037526 -0.000878736 0)
(0.00394264 -0.000860008 4.39027e-29)
(0.00412998 -0.000840783 -2.15387e-29)
(0.00431446 -0.000821129 -4.184e-29)
(0.00449593 -0.00080111 2.04959e-29)
(0.00467426 -0.000780791 0)
(0.00484934 -0.000760235 3.86161e-29)
(0.00502106 -0.000739505 3.75201e-29)
(0.00518931 -0.000718659 0)
(0.00535403 -0.000697755 3.53145e-29)
(0.00551514 -0.000676848 0)
(0.00567259 -0.000655988 3.31101e-29)
(0.00582632 -0.000635224 -1.6145e-29)
(0.00597629 -0.000614601 0)
(0.00612249 -0.000594161 0)
(0.0062649 -0.000573943 0)
(0.0064035 -0.000553982 0)
(0.0065383 -0.000534309 0)
(0.00666931 -0.000514954 0)
(0.00679654 -0.000495941 2.46767e-29)
(0.00692002 -0.000477294 -1.16842e-29)
(0.00703977 -0.000459032 0)
(0.00715584 -0.000441173 0)
(0.00726826 -0.00042373 0)
(0.00737709 -0.000406715 -4.03115e-29)
(0.00748236 -0.000390137 -1.9463e-29)
(0.00758414 -0.000374005 -3.58153e-31)
(0.00768248 -0.000358323 3.62792e-31)
(0.00777744 -0.000343095 -1.66358e-29)
(0.00786909 -0.000328323 -1.62307e-29)
(0.00795749 -0.000314007 3.05888e-29)
(0.00804272 -0.000300146 1.43778e-29)
(0.00812483 -0.000286738 0)
(0.00820391 -0.000273779 1.29918e-29)
(0.00828002 -0.000261264 2.50591e-29)
(0.00835324 -0.000249188 0)
(0.00842364 -0.000237545 0)
(0.00849129 -0.000226328 -1.0498e-29)
(0.00855627 -0.000215529 0)
(0.00861865 -0.00020514 0)
(0.00867851 -0.000195153 2.69891e-29)
(0.00873592 -0.000185557 1.67111e-29)
(0.00879096 -0.000176345 8.28664e-30)
(0.00884369 -0.000167507 0)
(0.00889419 -0.000159033 -7.38184e-30)
(0.00894252 -0.000150912 0)
(0.00898877 -0.000143135 1.88042e-29)
(0.00903299 -0.000135692 -6.16208e-30)
(0.00907526 -0.000128573 -1.0723e-29)
(0.00911564 -0.000121768 -1.54423e-29)
(0.0091542 -0.000115266 0)
(0.00919101 -0.000109058 8.6724e-30)
(0.00922611 -0.000103134 0)
(0.00925959 -9.74835e-05 3.29086e-30)
(0.0092915 -9.20973e-05 6.89022e-30)
(0.00932189 -8.69659e-05 6.35105e-30)