/*--------------------------------*- C++ -*----------------------------------*\
  =========                 |
  \\      /  F ield         | OpenFOAM: The Open Source CFD Toolbox
   \\    /   O peration     | Website:  https://openfoam.org
    \\  /    A nd           | Version:  10
     \\/     M anipulation  |
\*---------------------------------------------------------------------------*/
FoamFile
{
    format      ascii;
    class       volScalarField;
    location    "22500";
    object      p;
}
// * * * * * * * * * * * * * * * * * * * * * * * * * * * * * * * * * * * * * //

dimensions      [1 -1 -2 0 0 0 0];

internalField   nonuniform List<scalar> 
3200
(
101.677
101.728
101.833
102
102.248
102.61
103.147
103.98
110.007
323.133
510.747
684.675
849.199
1006.45
1157.69
1303.77
1445.29
1582.7
1716.35
1846.51
1973.41
2097.25
2218.18
2336.35
2451.88
2563.7
2665.38
2759.43
2847.88
2932.06
3012.77
3090.48
3165.35
3237.3
3305.99
3370.68
3430.1
3482.17
3523.6
3549.14
99.1169
99.1565
99.2351
99.353
99.5098
99.6992
99.8973
100.031
99.8972
99.4132
99.0398
98.7473
98.5116
98.3189
98.1611
98.0335
97.9344
97.8636
97.8236
97.8197
97.8613
97.9648
98.1581
98.4896
105.131
178.828
255.632
334.546
414.008
493.05
571.194
648.29
724.432
799.932
875.356
951.605
1030.07
1112.8
1202.7
1289.47
96.4736
96.4982
96.5449
96.6098
96.6855
96.7588
96.8071
96.7959
96.6869
96.486
96.2689
96.0637
95.879
95.7166
95.5759
95.4558
95.3552
95.2732
95.2087
95.16
95.1233
95.0902
95.0422
94.94
94.7014
94.4067
94.1534
93.9287
93.7239
93.5331
93.3519
93.177
93.0051
92.8331
92.6571
92.4722
92.272
92.0469
91.6881
88.8114
93.7786
93.7905
93.812
93.8387
93.8638
93.878
93.8694
93.8256
93.7391
93.6157
93.4738
93.3275
93.1852
93.0514
92.928
92.8155
92.7136
92.6209
92.5355
92.4543
92.3728
92.2842
92.1799
92.0504
91.8899
91.7105
91.5283
91.35
91.1779
91.0122
90.8528
90.6991
90.5506
90.4073
90.2695
90.1389
90.019
89.9166
89.8439
89.4144
91.0583
91.0617
91.0666
91.0701
91.0676
91.054
91.0237
90.9724
90.8987
90.8056
90.6995
90.5866
90.4721
90.3591
90.2498
90.1447
90.044
89.9468
89.8516
89.7563
89.6583
89.5546
89.4422
89.3193
89.1858
89.0446
88.8999
88.7549
88.6117
88.4719
88.3362
88.2053
88.0799
87.9605
87.8482
87.7442
87.6499
87.567
87.4968
87.0749
88.331
88.3291
88.3245
88.3151
88.2987
88.2725
88.2341
88.182
88.1162
88.0382
87.9509
87.8573
87.7602
87.6617
87.5631
87.4652
87.3681
87.2715
87.1746
87.0764
86.9757
86.8713
86.7625
86.6489
86.5309
86.4096
86.2866
86.1634
86.0413
85.9214
85.8047
85.6919
85.5835
85.4803
85.3828
85.2916
85.207
85.1294
85.0586
84.6516
85.6075
85.6028
85.593
85.5772
85.5542
85.5227
85.4818
85.4311
85.3708
85.3019
85.2257
85.1441
85.0585
84.9702
84.8802
84.789
84.6969
84.6039
84.5096
84.4139
84.3162
84.2162
84.1138
84.0091
83.9024
83.7944
83.6858
83.5775
83.4704
83.365
83.2622
83.1623
83.066
82.9736
82.8855
82.8019
82.7229
82.6486
82.5788
82.1915
82.8939
82.8878
82.8756
82.8569
82.8311
82.798
82.7571
82.7086
82.6526
82.5898
82.5212
82.4477
82.3702
82.2897
82.2067
82.1218
82.0352
81.9471
81.8575
81.7664
81.6737
81.5796
81.4841
81.3873
81.2897
81.1917
81.0937
80.9962
80.8998
80.805
80.7121
80.6217
80.5339
80.4491
80.3674
80.289
80.2139
80.1422
80.0738
79.706
80.1932
80.1865
80.1733
80.1536
80.1272
80.0942
80.0545
80.0083
79.9559
79.898
79.8349
79.7675
79.6964
79.6221
79.5451
79.4659
79.3848
79.302
79.2176
79.1318
79.0448
78.9566
78.8676
78.7779
78.6878
78.5976
78.5077
78.4184
78.3301
78.2431
78.1576
78.074
77.9925
77.9132
77.8363
77.7618
77.6898
77.6202
77.553
77.2038
77.5064
77.4997
77.4863
77.4666
77.4406
77.4085
77.3705
77.3268
77.2777
77.2237
77.1652
77.1027
77.0367
76.9677
76.896
76.822
76.7461
76.6684
76.5892
76.5087
76.4271
76.3446
76.2614
76.1778
76.094
76.0102
75.9268
75.8439
75.7618
75.6808
75.601
75.5227
75.4459
75.3708
75.2976
75.2261
75.1565
75.0888
75.0228
74.691
74.834
74.8273
74.8143
74.7951
74.77
74.7393
74.7031
74.6618
74.6157
74.5651
74.5105
74.4522
74.3907
74.3262
74.2592
74.19
74.1188
74.0459
73.9715
73.896
73.8194
73.742
73.6641
73.5857
73.5073
73.4288
73.3507
73.2729
73.1959
73.1196
73.0443
72.9701
72.8971
72.8254
72.755
72.686
72.6185
72.5523
72.4875
72.172
72.1756
72.1692
72.1566
72.1382
72.1142
72.085
72.0507
72.0117
71.9683
71.9209
71.8697
71.8151
71.7574
71.697
71.6342
71.5692
71.5024
71.4339
71.364
71.2929
71.2209
71.1481
71.0747
71.001
70.9271
70.8532
70.7794
70.706
70.633
70.5606
70.489
70.4182
70.3482
70.2793
70.2113
70.1445
70.0787
70.0139
69.9502
69.6502
69.5307
69.5246
69.5126
69.4951
69.4723
69.4446
69.4122
69.3754
69.3345
69.2899
69.2418
69.1905
69.1363
69.0796
69.0205
68.9594
68.8964
68.8319
68.7661
68.699
68.6311
68.5624
68.4931
68.4234
68.3534
68.2834
68.2134
68.1436
68.0741
68.005
67.9364
67.8684
67.8011
67.7345
67.6687
67.6036
67.5394
67.476
67.4134
67.128
66.8988
66.893
66.8816
66.865
66.8434
66.8172
66.7866
66.7519
66.7133
66.6713
66.6259
66.5776
66.5266
66.4732
66.4175
66.3599
66.3005
66.2396
66.1773
66.114
66.0497
65.9846
65.9189
65.8527
65.7862
65.7196
65.6529
65.5862
65.5197
65.4535
65.3876
65.3221
65.257
65.1925
65.1285
65.0652
65.0024
64.9403
64.8787
64.6075
64.2792
64.2737
64.2629
64.2471
64.2267
64.2019
64.173
64.1402
64.1039
64.0642
64.0214
63.9759
63.9277
63.8773
63.8247
63.7702
63.7141
63.6564
63.5975
63.5374
63.4764
63.4146
63.3521
63.2891
63.2257
63.1621
63.0983
63.0344
62.9706
62.9069
62.8433
62.78
62.7171
62.6544
62.5922
62.5304
62.469
62.4081
62.3476
62.09
61.6712
61.666
61.6558
61.6409
61.6216
61.5982
61.5708
61.5399
61.5055
61.468
61.4277
61.3846
61.3391
61.2914
61.2416
61.1901
61.1369
61.0822
61.0263
60.9692
60.9112
60.8523
60.7928
60.7327
60.6721
60.6112
60.55
60.4886
60.4272
60.3658
60.3044
60.2432
60.1821
60.1212
60.0606
60.0003
59.9402
59.8806
59.8211
59.5766
59.0743
59.0693
59.0597
59.0456
59.0274
59.0052
58.9794
58.9501
58.9176
58.8822
58.844
58.8033
58.7602
58.7151
58.6679
58.619
58.5686
58.5167
58.4635
58.4092
58.3539
58.2978
58.2409
58.1834
58.1254
58.067
58.0082
57.9492
57.8901
57.8308
57.7714
57.7121
57.6528
57.5936
57.5345
57.4756
57.4169
57.3585
57.3001
57.0685
56.4877
56.483
56.4739
56.4606
56.4434
56.4225
56.398
56.3704
56.3397
56.3062
56.27
56.2315
56.1907
56.1479
56.1032
56.0568
56.0088
55.9595
55.9089
55.8572
55.8045
55.7509
55.6965
55.6415
55.5859
55.5298
55.4733
55.4165
55.3594
55.3022
55.2448
55.1873
55.1297
55.0721
55.0146
54.9572
54.8998
54.8426
54.7854
54.5663
53.911
53.9066
53.898
53.8854
53.8692
53.8494
53.8263
53.8001
53.7711
53.7394
53.7052
53.6687
53.6301
53.5895
53.5471
53.503
53.4574
53.4105
53.3623
53.3131
53.2628
53.2116
53.1596
53.1069
53.0536
52.9997
52.9454
52.8907
52.8357
52.7804
52.7248
52.6691
52.6133
52.5574
52.5014
52.4454
52.3894
52.3334
52.2774
52.0707
51.3437
51.3395
51.3314
51.3195
51.3041
51.2854
51.2636
51.2389
51.2114
51.1814
51.1491
51.1145
51.0779
51.0394
50.9992
50.9574
50.9141
50.8695
50.8236
50.7767
50.7287
50.6798
50.6301
50.5797
50.5286
50.4769
50.4247
50.3721
50.319
50.2656
50.212
50.1581
50.1039
50.0497
49.9952
49.9407
49.8862
49.8315
49.7768
49.5822
48.7851
48.7811
48.7735
48.7623
48.7478
48.7301
48.7095
48.6862
48.6602
48.6319
48.6013
48.5686
48.534
48.4975
48.4594
48.4197
48.3786
48.3362
48.2926
48.2479
48.2022
48.1555
48.108
48.0598
48.0109
47.9613
47.9113
47.8607
47.8096
47.7582
47.7064
47.6543
47.6019
47.5493
47.4965
47.4436
47.3905
47.3373
47.2839
47.1015
46.2348
46.2311
46.2238
46.2133
46.1996
46.183
46.1636
46.1415
46.1171
46.0903
46.0614
46.0305
45.9978
45.9633
45.9272
45.8896
45.8507
45.8104
45.769
45.7265
45.683
45.6386
45.5933
45.5473
45.5005
45.4531
45.4051
45.3566
45.3076
45.2581
45.2082
45.158
45.1075
45.0566
45.0056
44.9542
44.9027
44.8511
44.7992
44.6286
43.6923
43.6888
43.682
43.6721
43.6592
43.6436
43.6253
43.6046
43.5815
43.5563
43.5291
43.5
43.4691
43.4365
43.4024
43.3669
43.33
43.2919
43.2527
43.2124
43.1711
43.1289
43.0858
43.042
42.9974
42.9522
42.9063
42.8599
42.813
42.7655
42.7177
42.6694
42.6207
42.5718
42.5225
42.4729
42.4231
42.373
42.3226
42.1639
41.1571
41.1539
41.1475
41.1382
41.1261
41.1114
41.0943
41.0748
41.0532
41.0295
41.0039
40.9765
40.9474
40.9168
40.8846
40.8512
40.8164
40.7804
40.7434
40.7053
40.6662
40.6262
40.5854
40.5438
40.5015
40.4585
40.4148
40.3706
40.3258
40.2805
40.2347
40.1885
40.1419
40.0948
40.0475
39.9997
39.9517
39.9034
39.8548
39.7079
38.6289
38.6258
38.6199
38.6112
38.5999
38.5861
38.5701
38.5519
38.5316
38.5094
38.4854
38.4597
38.4325
38.4037
38.3736
38.3421
38.3095
38.2757
38.2408
38.2049
38.1681
38.1304
38.0919
38.0526
38.0126
37.9719
37.9306
37.8886
37.8461
37.803
37.7595
37.7154
37.6709
37.626
37.5807
37.535
37.4889
37.4425
37.3957
37.2606
36.1071
36.1042
36.0987
36.0906
36.08
36.0672
36.0523
36.0353
36.0164
35.9957
35.9733
35.9493
35.9239
35.897
35.8689
35.8395
35.8089
35.7773
35.7446
35.711
35.6765
35.6412
35.605
35.5682
35.5305
35.4923
35.4534
35.4138
35.3737
35.333
35.2918
35.2501
35.2079
35.1653
35.1222
35.0786
35.0347
34.9904
34.9456
34.8222
33.5913
33.5886
33.5835
33.576
33.5662
33.5543
33.5404
33.5247
33.5071
33.4879
33.4671
33.4449
33.4212
33.3963
33.3701
33.3428
33.3144
33.285
33.2546
33.2233
33.1912
33.1583
33.1246
33.0902
33.0551
33.0194
32.983
32.9461
32.9085
32.8704
32.8318
32.7926
32.7529
32.7127
32.672
32.6309
32.5893
32.5472
32.5046
32.3931
31.081
31.0786
31.0738
31.0669
31.0579
31.0469
31.0341
31.0196
31.0034
30.9857
30.9665
30.946
30.9241
30.9011
30.8769
30.8517
30.8255
30.7983
30.7703
30.7414
30.7117
30.6813
30.6502
30.6184
30.586
30.5529
30.5193
30.485
30.4503
30.4149
30.3791
30.3427
30.3057
30.2683
30.2303
30.1918
30.1528
30.1133
30.0731
29.9736
28.5759
28.5737
28.5693
28.563
28.5547
28.5447
28.5329
28.5196
28.5048
28.4885
28.471
28.4521
28.4321
28.4111
28.3889
28.3658
28.3418
28.3169
28.2913
28.2648
28.2377
28.2098
28.1814
28.1523
28.1227
28.0924
28.0617
28.0304
27.9986
27.9663
27.9335
27.9002
27.8663
27.8319
27.797
27.7615
27.7254
27.6887
27.6514
27.564
26.0755
26.0735
26.0695
26.0637
26.0562
26.0471
26.0364
26.0243
26.0108
25.9961
25.9801
25.963
25.9449
25.9257
25.9056
25.8847
25.8629
25.8403
25.8171
25.7931
25.7686
25.7434
25.7177
25.6914
25.6647
25.6375
25.6098
25.5817
25.5531
25.5241
25.4946
25.4647
25.4343
25.4033
25.3719
25.3399
25.3072
25.2739
25.2398
25.1649
23.5794
23.5776
23.574
23.5688
23.562
23.5538
23.5442
23.5333
23.5212
23.5079
23.4935
23.4781
23.4618
23.4446
23.4266
23.4077
23.3882
23.368
23.3472
23.3258
23.3038
23.2814
23.2585
23.2352
23.2114
23.1873
23.1629
23.1381
23.1129
23.0875
23.0617
23.0356
23.0091
22.9822
22.9548
22.9269
22.8984
22.8692
22.8391
22.7772
21.0871
21.0855
21.0823
21.0777
21.0717
21.0643
21.0558
21.0461
21.0353
21.0235
21.0107
20.997
20.9825
20.9673
20.9513
20.9346
20.9173
20.8995
20.8811
20.8622
20.8429
20.8232
20.8032
20.7828
20.7621
20.7412
20.72
20.6987
20.6771
20.6555
20.6336
20.6117
20.5896
20.5673
20.5449
20.5221
20.499
20.4753
20.4506
20.4033
18.5983
18.5969
18.5941
18.59
18.5847
18.5783
18.5708
18.5623
18.5528
18.5424
18.5313
18.5193
18.5066
18.4933
18.4793
18.4647
18.4497
18.4342
18.4182
18.4018
18.3852
18.3682
18.3509
18.3335
18.3158
18.2981
18.2802
18.2623
18.2444
18.2265
18.2088
18.1911
18.1736
18.1564
18.1396
18.1231
18.1072
18.092
18.0779
18.0514
16.1125
16.1113
16.1089
16.1053
16.1008
16.0952
16.0888
16.0814
16.0733
16.0644
16.0547
16.0444
16.0335
16.0221
16.0101
15.9977
15.9848
15.9715
15.9579
15.9441
15.9299
15.9156
15.9011
15.8864
15.8718
15.857
15.8423
15.8277
15.8133
15.799
15.785
15.7713
15.7581
15.7454
15.7334
15.7221
15.7119
15.7028
15.6953
15.6895
13.6293
13.6282
13.6262
13.6233
13.6194
13.6147
13.6093
13.6031
13.5963
13.5888
13.5807
13.5721
13.5629
13.5533
13.5433
13.5329
13.5222
13.5111
13.4998
13.4883
13.4766
13.4648
13.4529
13.441
13.4291
13.4172
13.4054
13.3938
13.3824
13.3713
13.3606
13.3503
13.3405
13.3314
13.323
13.3154
13.3088
13.3034
13.2992
13.2965
11.1483
11.1474
11.1458
11.1433
11.1402
11.1364
11.132
11.127
11.1214
11.1153
11.1087
11.1017
11.0943
11.0865
11.0784
11.07
11.0613
11.0525
11.0434
11.0342
11.0248
11.0154
11.006
10.9965
10.9871
10.9778
10.9687
10.9598
10.9511
10.9427
10.9347
10.9271
10.92
10.9135
10.9077
10.9025
10.8982
10.8946
10.892
10.8903
8.66903
8.66837
8.66709
8.66522
8.6628
8.65985
8.65642
8.65253
8.64822
8.6435
8.63843
8.63301
8.62729
8.62129
8.61505
8.60858
8.60192
8.5951
8.58816
8.58111
8.57399
8.56685
8.5597
8.55258
8.54554
8.5386
8.53181
8.52522
8.51885
8.51276
8.50699
8.50159
8.49661
8.49207
8.48804
8.48455
8.48162
8.47929
8.47757
8.47647
6.19118
6.19071
6.1898
6.18847
6.18674
6.18464
6.1822
6.17943
6.17636
6.17301
6.1694
6.16556
6.1615
6.15724
6.15282
6.14824
6.14353
6.13872
6.13382
6.12886
6.12386
6.11885
6.11386
6.1089
6.10401
6.09922
6.09454
6.09002
6.08569
6.08156
6.07768
6.07407
6.07075
6.06777
6.06513
6.06286
6.06097
6.05948
6.05837
6.05767
3.71431
3.71403
3.71349
3.71269
3.71166
3.7104
3.70894
3.70728
3.70545
3.70344
3.70129
3.69899
3.69656
3.69402
3.69138
3.68865
3.68585
3.68298
3.68007
3.67712
3.67416
3.6712
3.66825
3.66532
3.66245
3.65964
3.6569
3.65427
3.65175
3.64936
3.64712
3.64505
3.64315
3.64145
3.63995
3.63867
3.63761
3.63677
3.63615
3.63575
1.23804
1.23795
1.23776
1.2375
1.23715
1.23674
1.23625
1.2357
1.23509
1.23442
1.2337
1.23294
1.23213
1.23129
1.23041
1.2295
1.22857
1.22762
1.22665
1.22568
1.2247
1.22372
1.22274
1.22177
1.22082
1.2199
1.219
1.21813
1.21731
1.21652
1.21579
1.21512
1.2145
1.21395
1.21346
1.21305
1.2127
1.21243
1.21223
1.2121
3552.08
3532.09
3496.13
3449.62
3396.05
3337.59
3275.6
3210.9
3143.95
3074.98
3004.02
2930.95
2855.4
2776.71
2693.67
2604.14
2504.6
2393.07
2279.4
2163.54
2045.44
1925.03
1802.24
1676.98
1549.16
1418.67
1285.4
1149.17
1009.78
866.981
720.376
569.382
412.98
249.105
106.201
104.655
103.918
103.473
103.216
103.096
1291.77
1206.54
1121.62
1044.76
972.575
902.849
834.175
765.66
696.754
627.134
556.65
485.307
413.307
341.151
269.866
201.398
139.164
98.6969
98.2027
97.9645
97.8378
97.7858
97.7872
97.8296
97.9058
98.0124
98.1479
98.3133
98.5115
98.7477
99.0308
99.3754
99.8059
100.361
100.908
100.923
100.762
100.589
100.459
100.39
90.0632
91.0178
91.3377
91.5975
91.8279
92.0391
92.2383
92.4309
92.6209
92.8116
93.006
93.207
93.4181
93.6432
93.888
94.1605
94.4721
94.7916
94.9459
95.0186
95.0656
95.1125
95.1709
95.2458
95.3397
95.4536
95.5888
95.7465
95.9286
96.1371
96.3745
96.6419
96.9357
97.2382
97.4917
97.6096
97.6286
97.6011
97.5648
97.5414
89.0052
89.1672
89.2661
89.3925
89.535
89.6869
89.8447
90.007
90.1732
90.3437
90.5192
90.7002
90.8879
91.0826
91.2846
91.4922
91.7001
91.8951
92.0565
92.1869
92.2971
92.3973
92.4957
92.5981
92.7086
92.8298
92.9636
93.1116
93.2745
93.4527
93.6451
93.8487
94.0565
94.2547
94.422
94.5373
94.6026
94.6321
94.6416
94.6432
86.7546
86.9088
86.9896
87.085
87.1934
87.3125
87.4405
87.5758
87.7175
87.8649
88.0176
88.1751
88.3371
88.5029
88.6712
88.8402
89.0065
89.166
89.3144
89.4507
89.5769
89.6961
89.812
89.9279
90.0466
90.1701
90.3002
90.4377
90.583
90.7355
90.8937
91.0543
91.2122
91.3597
91.4879
91.5891
91.6616
91.7088
91.736
91.7482
84.3763
84.5295
84.6075
84.6939
84.7889
84.8918
85.0022
85.1191
85.2421
85.3705
85.5036
85.6409
85.7817
85.9251
86.07
86.2153
86.3592
86.5
86.6364
86.7676
86.8939
87.0164
87.1363
87.2553
87.3748
87.496
87.6199
87.747
87.8771
88.0097
88.1433
88.2754
88.4028
88.5212
88.626
88.7136
88.7821
88.8316
88.8633
88.8789
81.9399
82.0914
82.1683
82.2507
82.339
82.433
82.5325
82.6374
82.7471
82.8612
82.9794
83.101
83.2256
83.3524
83.4806
83.6096
83.7382
83.8658
83.9915
84.115
84.236
84.355
84.4723
84.5885
84.7043
84.8202
84.9366
85.0537
85.171
85.2881
85.4037
85.5162
85.6233
85.7226
85.8114
85.8874
85.9491
85.9956
86.0267
86.0424
79.4697
79.6189
79.695
79.7749
79.859
79.9473
80.0398
80.1362
80.2365
80.3403
80.4473
80.5572
80.6695
80.7838
80.8996
81.0162
81.1333
81.2501
81.3663
81.4816
81.5957
81.7085
81.8202
81.9309
82.0407
82.1498
82.2582
82.3659
82.4723
82.577
82.679
82.777
82.8697
82.9554
83.0322
83.0987
83.1535
83.1956
83.2242
83.2388
76.9792
77.1253
77.2007
77.2787
77.3598
77.444
77.5313
77.6217
77.715
77.8111
77.9097
78.0106
78.1136
78.2183
78.3243
78.4313
78.5389
78.6468
78.7545
78.8619
78.9686
79.0745
79.1795
79.2836
79.3865
79.4884
79.5889
79.6879
79.7849
79.8793
79.9705
80.0575
80.1393
80.2145
80.2821
80.3408
80.3894
80.427
80.4528
80.4661
74.4766
74.6192
74.6936
74.77
74.8487
74.9297
75.0131
75.0988
75.1867
75.2768
75.3689
75.4629
75.5585
75.6555
75.7537
75.8528
75.9526
76.0527
76.1529
76.2529
76.3525
76.4515
76.5497
76.6469
76.743
76.8376
76.9307
77.0218
77.1105
77.1963
77.2787
77.3568
77.4298
77.4969
77.557
77.6092
77.6525
77.6862
77.7094
77.7213
71.9675
72.1062
72.1795
72.2543
72.3308
72.4092
72.4893
72.5712
72.6548
72.7401
72.827
72.9153
73.0049
73.0957
73.1874
73.2799
73.3729
73.4663
73.5598
73.6531
73.7461
73.8386
73.9302
74.0209
74.1103
74.1982
74.2843
74.3683
74.4497
74.5282
74.6031
74.6738
74.7398
74.8001
74.8541
74.9009
74.9398
74.97
74.9908
75.0016
69.4557
69.5902
69.6623
69.7355
69.81
69.886
69.9633
70.0419
70.1219
70.2032
70.2856
70.3692
70.4538
70.5393
70.6255
70.7124
70.7996
70.887
70.9745
71.0619
71.1488
71.2352
71.3208
71.4053
71.4885
71.5702
71.65
71.7276
71.8026
71.8746
71.9432
72.0077
72.0676
72.1223
72.1712
72.2135
72.2486
72.2759
72.2947
72.3044
66.9441
67.0741
67.1448
67.2164
67.289
67.3627
67.4374
67.5132
67.59
67.6677
67.7464
67.8259
67.9062
67.9871
68.0685
68.1504
68.2325
68.3147
68.3969
68.4788
68.5602
68.6411
68.7211
68.8
68.8775
68.9535
69.0276
69.0995
69.1688
69.2352
69.2982
69.3573
69.4121
69.462
69.5065
69.5451
69.577
69.6018
69.6188
69.6276
64.4346
64.5599
64.6292
64.6991
64.7698
64.8413
64.9136
64.9867
65.0606
65.1352
65.2105
65.2863
65.3627
65.4396
65.5168
65.5942
65.6718
65.7493
65.8267
65.9037
65.9802
66.056
66.1309
66.2047
66.2771
66.3479
66.4168
66.4836
66.5478
66.6092
66.6673
66.7218
66.7721
66.8179
66.8587
66.8939
66.9231
66.9457
66.9613
66.9693
61.9288
62.0492
62.1169
62.185
62.2538
62.3232
62.3932
62.4638
62.535
62.6067
62.6788
62.7513
62.8243
62.8974
62.9708
63.0443
63.1177
63.191
63.264
63.3366
63.4085
63.4798
63.55
63.6192
63.6869
63.753
63.8173
63.8794
63.9391
63.996
64.0498
64.1001
64.1466
64.1888
64.2263
64.2587
64.2855
64.3063
64.3205
64.3279
59.4276
59.5431
59.6091
59.6755
59.7423
59.8096
59.8774
59.9455
60.0141
60.083
60.1522
60.2217
60.2914
60.3612
60.431
60.5008
60.5705
60.6399
60.7089
60.7774
60.8453
60.9123
60.9783
61.0432
61.1066
61.1685
61.2285
61.2865
61.3421
61.395
61.445
61.4916
61.5347
61.5737
61.6083
61.6382
61.6629
61.682
61.6951
61.7019
56.932
57.0425
57.1067
57.1712
57.2361
57.3013
57.3668
57.4326
57.4986
57.5649
57.6313
57.6979
57.7645
57.8312
57.8977
57.9641
58.0303
58.0961
58.1614
58.2262
58.2902
58.3534
58.4155
58.4765
58.5361
58.594
58.6502
58.7043
58.7562
58.8055
58.852
58.8954
58.9354
58.9715
59.0036
59.0313
59.0541
59.0718
59.0839
59.0902
54.4426
54.548
54.6104
54.673
54.7358
54.7989
54.8622
54.9256
54.9892
55.0529
55.1166
55.1804
55.2441
55.3078
55.3712
55.4344
55.4973
55.5597
55.6216
55.6829
55.7434
55.803
55.8615
55.9189
55.9748
56.0292
56.0818
56.1325
56.181
56.227
56.2704
56.3108
56.3479
56.3815
56.4113
56.437
56.4582
56.4745
56.4858
56.4916
51.9598
52.0601
52.1206
52.1812
52.242
52.3029
52.3639
52.425
52.4862
52.5474
52.6085
52.6696
52.7305
52.7912
52.8517
52.9118
52.9716
53.0308
53.0895
53.1475
53.2046
53.2609
53.316
53.37
53.4226
53.4737
53.523
53.5705
53.6158
53.6588
53.6993
53.737
53.7716
53.8029
53.8306
53.8545
53.8741
53.8893
53.8998
53.9051
49.484
49.5792
49.6378
49.6963
49.755
49.8137
49.8725
49.9312
49.99
50.0486
50.1072
50.1656
50.2237
50.2817
50.3393
50.3965
50.4532
50.5094
50.565
50.6198
50.6738
50.7269
50.7789
50.8296
50.8791
50.927
50.9733
51.0178
51.0602
51.1005
51.1383
51.1734
51.2057
51.2349
51.2607
51.2829
51.3012
51.3153
51.325
51.33
47.0155
47.1056
47.1621
47.2186
47.2751
47.3316
47.388
47.4444
47.5007
47.5569
47.6128
47.6686
47.7241
47.7792
47.834
47.8883
47.9421
47.9954
48.048
48.0998
48.1508
48.2008
48.2497
48.2975
48.344
48.389
48.4324
48.4741
48.5138
48.5514
48.5867
48.6195
48.6496
48.6768
48.7009
48.7215
48.7385
48.7517
48.7607
48.7653
44.5545
44.6396
44.6939
44.7482
44.8025
44.8567
44.9108
44.9648
45.0186
45.0722
45.1256
45.1787
45.2315
45.2839
45.3359
45.3874
45.4383
45.4887
45.5384
45.5873
45.6353
45.6824
45.7284
45.7733
45.8169
45.8591
45.8998
45.9388
45.9759
46.0111
46.044
46.0747
46.1027
46.1281
46.1505
46.1697
46.1855
46.1977
46.2061
46.2104
42.1013
42.1812
42.2334
42.2854
42.3374
42.3892
42.4409
42.4924
42.5437
42.5947
42.6455
42.6959
42.746
42.7957
42.8449
42.8936
42.9417
42.9892
43.036
43.082
43.1272
43.1714
43.2146
43.2567
43.2976
43.3371
43.3751
43.4115
43.4462
43.479
43.5098
43.5383
43.5644
43.588
43.6089
43.6267
43.6414
43.6528
43.6606
43.6646
39.6559
39.7307
39.7806
39.8303
39.8798
39.9292
39.9784
40.0274
40.0761
40.1245
40.1725
40.2203
40.2676
40.3145
40.3608
40.4067
40.452
40.4967
40.5406
40.5838
40.6261
40.6676
40.708
40.7474
40.7856
40.8224
40.8579
40.8919
40.9242
40.9547
40.9834
41.0099
41.0342
41.0561
41.0755
41.0921
41.1057
41.1163
41.1235
41.1272
37.2184
37.2881
37.3356
37.3829
37.4299
37.4768
37.5234
37.5697
37.6157
37.6614
37.7067
37.7516
37.7961
37.8401
37.8837
37.9267
37.9691
38.0109
38.052
38.0924
38.1319
38.1706
38.2083
38.245
38.2805
38.3148
38.3478
38.3794
38.4094
38.4378
38.4643
38.4889
38.5115
38.5318
38.5497
38.5651
38.5777
38.5875
38.5942
38.5976
34.789
34.8536
34.8986
34.9433
34.9877
35.0319
35.0758
35.1193
35.1625
35.2053
35.2478
35.2898
35.3314
35.3725
35.4131
35.4532
35.4927
35.5316
35.5699
35.6074
35.6441
35.68
35.715
35.749
35.782
35.8138
35.8443
35.8736
35.9014
35.9276
35.9521
35.9749
35.9957
36.0145
36.031
36.0452
36.0569
36.0659
36.0721
36.0753
32.368
32.4273
32.4697
32.5116
32.5533
32.5946
32.6356
32.6762
32.7164
32.7562
32.7957
32.8347
32.8732
32.9113
32.949
32.9861
33.0226
33.0585
33.0939
33.1285
33.1624
33.1956
33.2278
33.2592
33.2896
33.3189
33.3471
33.374
33.3996
33.4237
33.4463
33.4673
33.4864
33.5037
33.5189
33.532
33.5427
33.551
33.5567
33.5596
29.9556
30.0095
30.049
30.088
30.1266
30.1649
30.2027
30.2402
30.2772
30.3139
30.3501
30.3859
30.4213
30.4563
30.4908
30.5248
30.5583
30.5912
30.6236
30.6553
30.6864
30.7167
30.7463
30.775
30.8029
30.8297
30.8555
30.8802
30.9036
30.9257
30.9464
30.9656
30.9831
30.9989
31.0128
31.0248
31.0346
31.0422
31.0474
31.0501
27.5521
27.6005
27.6367
27.6725
27.7078
27.7427
27.7771
27.8111
27.8447
27.8779
27.9108
27.9432
27.9752
28.0069
28.0381
28.0689
28.0993
28.1292
28.1585
28.1873
28.2155
28.2431
28.2699
28.2961
28.3213
28.3457
28.3692
28.3916
28.4129
28.433
28.4518
28.4693
28.4852
28.4996
28.5123
28.5231
28.5321
28.539
28.5437
28.5461
25.1579
25.2004
25.2331
25.2651
25.2967
25.3277
25.3583
25.3885
25.4184
25.4479
25.477
25.5059
25.5344
25.5626
25.5905
25.618
25.6451
25.6719
25.6982
25.724
25.7493
25.7741
25.7983
25.8218
25.8445
25.8665
25.8877
25.9079
25.9271
25.9452
25.9622
25.9779
25.9923
26.0053
26.0168
26.0266
26.0346
26.0409
26.0451
26.0473
22.7741
22.8101
22.8384
22.866
22.8931
22.9197
22.9459
22.9719
22.9975
23.023
23.0482
23.0732
23.0981
23.1227
23.1471
23.1713
23.1951
23.2187
23.242
23.2648
23.2873
23.3093
23.3307
23.3516
23.3719
23.3915
23.4104
23.4284
23.4456
23.4618
23.477
23.491
23.5039
23.5155
23.5258
23.5345
23.5418
23.5473
23.5512
23.5531
20.4023
20.4304
20.4529
20.4747
20.4962
20.5175
20.5387
20.5598
20.5809
20.6021
20.6231
20.6442
20.6653
20.6863
20.7072
20.7279
20.7486
20.769
20.7892
20.8091
20.8287
20.848
20.8668
20.8852
20.903
20.9203
20.9369
20.9528
20.9679
20.9822
20.9957
21.0081
21.0195
21.0298
21.0388
21.0466
21.053
21.0579
21.0613
21.063
18.0465
18.062
18.0752
18.0892
18.1037
18.1188
18.1344
18.1504
18.1668
18.1834
18.2004
18.2175
18.2348
18.2522
18.2697
18.2872
18.3046
18.322
18.3392
18.3563
18.3731
18.3897
18.4059
18.4218
18.4372
18.4522
18.4666
18.4805
18.4937
18.5061
18.5178
18.5287
18.5386
18.5476
18.5555
18.5623
18.5678
18.5722
18.5751
18.5766
15.6875
15.6895
15.6941
15.7008
15.709
15.7185
15.7291
15.7404
15.7525
15.7651
15.7782
15.7917
15.8055
15.8195
15.8337
15.8481
15.8625
15.8769
15.8913
15.9057
15.9198
15.9338
15.9476
15.961
15.9742
15.9869
15.9992
16.011
16.0223
16.033
16.043
16.0523
16.0608
16.0685
16.0752
16.0811
16.0859
16.0896
16.0921
16.0934
13.2954
13.2959
13.298
13.3016
13.3064
13.3124
13.3194
13.3273
13.336
13.3453
13.3551
13.3654
13.3761
13.3872
13.3984
13.4099
13.4215
13.4332
13.445
13.4567
13.4683
13.4799
13.4912
13.5024
13.5133
13.5239
13.5341
13.544
13.5534
13.5623
13.5707
13.5784
13.5856
13.592
13.5977
13.6026
13.6066
13.6097
13.6118
13.6129
10.8896
10.8898
10.891
10.8931
10.8962
10.9001
10.9048
10.9103
10.9164
10.9231
10.9303
10.938
10.9461
10.9545
10.9632
10.9721
10.9812
10.9903
10.9996
11.0089
11.0181
11.0273
11.0364
11.0454
11.0541
11.0627
11.0709
11.0789
11.0865
11.0937
11.1005
11.1068
11.1125
11.1178
11.1224
11.1263
11.1296
11.1321
11.1339
11.1347
8.47597
8.47607
8.47679
8.47814
8.48011
8.4827
8.48587
8.4896
8.49384
8.49855
8.50369
8.50921
8.51507
8.52122
8.52762
8.53422
8.54099
8.54787
8.55484
8.56186
8.56888
8.57588
8.58281
8.58964
8.59635
8.60289
8.60923
8.61534
8.62119
8.62675
8.63197
8.63683
8.64129
8.64532
8.64888
8.65194
8.65447
8.65641
8.65775
8.65844
6.05734
6.05738
6.05782
6.05866
6.05991
6.06156
6.0636
6.06603
6.06881
6.07193
6.07535
6.07907
6.08303
6.08722
6.0916
6.09614
6.10081
6.10559
6.11044
6.11533
6.12025
6.12516
6.13003
6.13484
6.13957
6.14419
6.14867
6.153
6.15714
6.16107
6.16478
6.16822
6.17139
6.17425
6.17678
6.17896
6.18075
6.18213
6.18308
6.18357
3.63556
3.63558
3.63582
3.63629
3.63698
3.6379
3.63905
3.64042
3.642
3.64377
3.64574
3.64788
3.65017
3.6526
3.65515
3.65781
3.66055
3.66335
3.66621
3.6691
3.67201
3.67492
3.67781
3.68067
3.68348
3.68623
3.6889
3.69147
3.69394
3.69629
3.6985
3.70056
3.70245
3.70416
3.70568
3.70698
3.70805
3.70887
3.70944
3.70973
1.21204
1.21205
1.21212
1.21227
1.21249
1.21279
1.21316
1.2136
1.21412
1.21469
1.21534
1.21603
1.21678
1.21758
1.21842
1.21929
1.22019
1.22112
1.22206
1.22302
1.22398
1.22494
1.2259
1.22685
1.22778
1.22869
1.22958
1.23044
1.23126
1.23204
1.23277
1.23346
1.23409
1.23466
1.23516
1.23559
1.23595
1.23622
1.23641
1.23651
)
;

boundaryField
{
    top
    {
        type            fixedValue;
        value           uniform 0;
    }
    inlet
    {
        type            darcyGradPressure;
        gradient        nonuniform List<scalar> 
80
(
9.81
9.81
9.81
9.81
9.81
9.81
9.81
9.81
16.8156
8954.66
9594.81
9707.52
9750.31
9771.29
9783.08
9790.32
9795.05
9798.3
9800.61
9802.31
9803.6
9804.59
9805.37
9805.99
9806.49
9806.89
9807.2
9807.45
9807.66
9807.83
9807.98
9808.1
9808.21
9808.3
9808.38
9808.46
9808.53
9808.6
9808.66
9808.75
9809.63
9809.6
9809.58
9809.55
9809.53
9809.5
9809.48
9809.45
9809.42
9809.38
9809.34
9809.29
9809.23
9809.16
9809.08
9808.97
9808.84
9808.67
9808.46
9808.2
9807.87
9807.45
9806.9
9806.16
9805.16
9803.73
9801.65
9798.46
9793.29
9784.2
9766.36
9724.19
9576.33
6607.43
9.88
9.81
9.81
9.81
9.81
9.81
)
;
        value           nonuniform List<scalar> 
80
(
102.903
102.954
103.059
103.227
103.475
103.836
104.373
105.207
112.109
1442.46
1710.1
1898.11
2067.99
2227.86
2380.57
2527.56
2669.67
2807.49
2941.43
3071.8
3198.86
3322.82
3443.85
3562.1
3677.69
3789.56
3891.28
3985.36
4073.84
4158.04
4238.77
4316.49
4391.37
4463.34
4532.04
4596.74
4656.16
4708.25
4749.68
4775.24
4778.29
4758.29
4722.32
4675.82
4622.24
4563.78
4501.79
4437.08
4370.13
4301.15
4230.19
4157.11
4081.55
4002.86
3919.8
3830.26
3730.71
3619.15
3505.46
3389.57
3271.43
3150.96
3028.1
2902.75
2774.8
2644.14
2510.6
2373.97
2233.94
2090.01
1941.17
1784.91
1610.02
1075.03
107.436
105.881
105.144
104.7
104.442
104.322
)
;
    }
    axis
    {
        type            darcyGradPressure;
        gradient        uniform -0;
        value           nonuniform List<scalar> 
80
(
101.677
99.1169
96.4736
93.7786
91.0583
88.331
85.6075
82.8939
80.1932
77.5064
74.834
72.1756
69.5307
66.8988
64.2792
61.6712
59.0743
56.4877
53.911
51.3437
48.7851
46.2348
43.6923
41.1571
38.6289
36.1071
33.5913
31.081
28.5759
26.0755
23.5794
21.0871
18.5983
16.1125
13.6293
11.1483
8.66903
6.19118
3.71431
1.23804
103.096
100.39
97.5414
94.6432
91.7482
88.8789
86.0424
83.2388
80.4661
77.7213
75.0016
72.3044
69.6276
66.9693
64.3279
61.7019
59.0902
56.4916
53.9051
51.33
48.7653
46.2104
43.6646
41.1272
38.5976
36.0753
33.5596
31.0501
28.5461
26.0473
23.5531
21.063
18.5766
16.0934
13.6129
11.1347
8.65844
6.18357
3.70973
1.23651
)
;
    }
    frontAndBack
    {
        type            empty;
    }
}


// ************************************************************************* //
