/*--------------------------------*- C++ -*----------------------------------*\
  =========                 |
  \\      /  F ield         | OpenFOAM: The Open Source CFD Toolbox
   \\    /   O peration     | Website:  https://openfoam.org
    \\  /    A nd           | Version:  10
     \\/     M anipulation  |
\*---------------------------------------------------------------------------*/
FoamFile
{
    format      ascii;
    class       volVectorField;
    location    "22500";
    object      Ub;
}
// * * * * * * * * * * * * * * * * * * * * * * * * * * * * * * * * * * * * * //

dimensions      [0 1 -1 0 0 0 0];

internalField   nonuniform List<vector> 
3200
(
(-1.50205e-20 -9.87877e-16 0)
(-4.63853e-20 -9.87875e-16 0)
(-8.23305e-20 -9.8787e-16 0)
(-1.27735e-19 -9.8786e-16 0)
(-1.90717e-19 -9.87841e-16 0)
(-2.86374e-19 -9.87807e-16 0)
(-4.64631e-19 -9.87738e-16 0)
(-1.83372e-08 -1.02344e-15 0)
(-3.42533e-05 -4.51461e-06 0)
(-7.20878e-05 -2.04506e-05 0)
(-7.67728e-05 -6.34831e-06 0)
(-7.84603e-05 -3.29423e-06 0)
(-7.95126e-05 -2.02444e-06 0)
(-8.02701e-05 -1.36414e-06 0)
(-8.08534e-05 -9.76845e-07 0)
(-8.13212e-05 -7.31093e-07 0)
(-8.17068e-05 -5.66042e-07 0)
(-8.20314e-05 -4.50259e-07 0)
(-8.23092e-05 -3.66174e-07 0)
(-8.25501e-05 -3.03347e-07 0)
(-8.27612e-05 -2.55271e-07 0)
(-8.2948e-05 -2.1773e-07 0)
(-8.31146e-05 -1.879e-07 0)
(-8.32642e-05 -1.63834e-07 0)
(-8.29528e-05 -1.13205e-06 0)
(-7.96865e-05 -6.75342e-06 0)
(-7.47083e-05 -5.03479e-06 0)
(-7.11944e-05 -3.52689e-06 0)
(-6.87967e-05 -2.52004e-06 0)
(-6.71049e-05 -1.90961e-06 0)
(-6.58108e-05 -1.59917e-06 0)
(-6.46791e-05 -1.54324e-06 0)
(-6.35002e-05 -1.7522e-06 0)
(-6.20432e-05 -2.29899e-06 0)
(-6.00029e-05 -3.33699e-06 0)
(-5.69326e-05 -5.1349e-06 0)
(-5.21472e-05 -8.13714e-06 0)
(-4.4577e-05 -1.30673e-05 0)
(-3.25288e-05 -2.11214e-05 0)
(-1.42169e-05 -3.1615e-05 0)
(-1.16185e-20 -9.87838e-16 0)
(-3.51163e-20 -9.87833e-16 0)
(-5.94063e-20 -9.87821e-16 0)
(-8.44871e-20 -9.87801e-16 0)
(-1.08319e-19 -9.87766e-16 0)
(-1.23327e-19 -9.87708e-16 0)
(-1.07209e-19 -9.87609e-16 0)
(8.32832e-22 -9.87439e-16 0)
(2.08343e-19 -9.86202e-16 0)
(2.92571e-19 -9.43194e-16 0)
(2.31344e-19 -9.05325e-16 0)
(1.86833e-19 -8.70219e-16 0)
(1.54231e-19 -8.37012e-16 0)
(1.28475e-19 -8.05277e-16 0)
(1.06454e-19 -7.74757e-16 0)
(8.60787e-20 -7.45281e-16 0)
(6.56645e-20 -7.16729e-16 0)
(4.35055e-20 -6.8901e-16 0)
(1.74673e-20 -6.62053e-16 0)
(-1.55561e-20 -6.35801e-16 0)
(-6.0528e-20 -6.10209e-16 0)
(-1.25838e-19 -5.85236e-16 0)
(-6.64249e-19 -5.60845e-16 0)
(-1.36037e-07 -6.68591e-16 0)
(-1.62505e-05 -9.87871e-07 0)
(-3.61926e-05 -6.6249e-06 0)
(-4.26847e-05 -4.91858e-06 0)
(-4.69285e-05 -3.42068e-06 0)
(-4.98506e-05 -2.42209e-06 0)
(-5.19583e-05 -1.81857e-06 0)
(-5.35964e-05 -1.51399e-06 0)
(-5.502e-05 -1.46306e-06 0)
(-5.64505e-05 -1.67635e-06 0)
(-5.8127e-05 -2.22691e-06 0)
(-6.03601e-05 -3.26826e-06 0)
(-6.36005e-05 -5.06923e-06 0)
(-6.85356e-05 -8.07434e-06 0)
(-7.62333e-05 -1.30163e-05 0)
(-8.11234e-05 -4.16737e-05 0)
(-4.19331e-05 -0.000176935 0)
(-7.2199e-21 -9.87811e-16 0)
(-2.12064e-20 -9.87806e-16 0)
(-3.37387e-20 -9.87794e-16 0)
(-4.32025e-20 -9.87776e-16 0)
(-4.65617e-20 -9.87749e-16 0)
(-3.8604e-20 -9.87714e-16 0)
(-1.1843e-20 -9.87672e-16 0)
(3.99099e-20 -9.87636e-16 0)
(1.04303e-19 -9.87646e-16 0)
(1.42866e-19 -9.87719e-16 0)
(1.46826e-19 -9.87765e-16 0)
(1.37962e-19 -9.87795e-16 0)
(1.25009e-19 -9.87814e-16 0)
(1.11127e-19 -9.87825e-16 0)
(9.73264e-20 -9.87832e-16 0)
(8.38183e-20 -9.87835e-16 0)
(7.05743e-20 -9.87835e-16 0)
(5.76194e-20 -9.8783e-16 0)
(4.53129e-20 -9.87821e-16 0)
(3.48119e-20 -9.87806e-16 0)
(2.8994e-20 -9.87781e-16 0)
(3.43529e-20 -9.87742e-16 0)
(6.48849e-20 -9.87682e-16 0)
(1.49884e-19 -9.87589e-16 0)
(2.3807e-19 -9.86218e-16 0)
(2.48634e-19 -9.71324e-16 0)
(2.20795e-19 -9.55803e-16 0)
(2.0197e-19 -9.39857e-16 0)
(1.89421e-19 -9.23802e-16 0)
(1.81313e-19 -9.07833e-16 0)
(1.76687e-19 -8.92047e-16 0)
(1.75168e-19 -8.76473e-16 0)
(1.76833e-19 -8.61092e-16 0)
(1.82196e-19 -8.45841e-16 0)
(1.92298e-19 -8.30608e-16 0)
(2.08919e-19 -8.15209e-16 0)
(2.3495e-19 -7.99379e-16 0)
(6.36319e-12 -9.03029e-09 0)
(1.26523e-07 -2.99198e-05 0)
(-3.83319e-07 -0.000274858 0)
(-3.51972e-21 -9.87796e-16 0)
(-9.95194e-21 -9.87791e-16 0)
(-1.45495e-20 -9.87783e-16 0)
(-1.59033e-20 -9.87771e-16 0)
(-1.22587e-20 -9.87755e-16 0)
(-1.696e-21 -9.87737e-16 0)
(1.70973e-20 -9.87721e-16 0)
(4.30838e-20 -9.87713e-16 0)
(7.05342e-20 -9.8772e-16 0)
(9.06944e-20 -9.87742e-16 0)
(1.00274e-19 -9.87765e-16 0)
(1.02172e-19 -9.87783e-16 0)
(9.94732e-20 -9.87797e-16 0)
(9.43135e-20 -9.87807e-16 0)
(8.8027e-20 -9.87814e-16 0)
(8.14658e-20 -9.87817e-16 0)
(7.52729e-20 -9.87817e-16 0)
(7.00944e-20 -9.87814e-16 0)
(6.67577e-20 -9.87807e-16 0)
(6.64303e-20 -9.87798e-16 0)
(7.07244e-20 -9.87786e-16 0)
(8.16073e-20 -9.87771e-16 0)
(1.00727e-19 -9.87758e-16 0)
(1.27197e-19 -9.87754e-16 0)
(1.51678e-19 -9.87775e-16 0)
(1.64172e-19 -9.87806e-16 0)
(1.66587e-19 -9.87828e-16 0)
(1.64867e-19 -9.87844e-16 0)
(1.61743e-19 -9.87857e-16 0)
(1.58415e-19 -9.87867e-16 0)
(1.55349e-19 -9.87876e-16 0)
(1.52626e-19 -9.87885e-16 0)
(1.50055e-19 -9.87894e-16 0)
(1.47144e-19 -9.87905e-16 0)
(1.42953e-19 -9.87918e-16 0)
(1.35787e-19 -9.87934e-16 0)
(1.22636e-19 -9.87956e-16 0)
(1.07484e-19 -1.3256e-15 0)
(4.67135e-09 -1.91697e-05 0)
(6.70527e-08 -0.000253293 0)
(-9.87299e-22 -9.87789e-16 0)
(-2.47547e-21 -9.87786e-16 0)
(-2.53939e-21 -9.87781e-16 0)
(-2.92588e-22 -9.87774e-16 0)
(5.06163e-21 -9.87765e-16 0)
(1.40349e-20 -9.87757e-16 0)
(2.65001e-20 -9.87751e-16 0)
(4.12764e-20 -9.8775e-16 0)
(5.6022e-20 -9.87754e-16 0)
(6.81038e-20 -9.87763e-16 0)
(7.6187e-20 -9.87774e-16 0)
(8.05155e-20 -9.87785e-16 0)
(8.19773e-20 -9.87794e-16 0)
(8.15383e-20 -9.87801e-16 0)
(8.00413e-20 -9.87806e-16 0)
(7.81878e-20 -9.87809e-16 0)
(7.65836e-20 -9.8781e-16 0)
(7.57937e-20 -9.87809e-16 0)
(7.63788e-20 -9.87807e-16 0)
(7.88935e-20 -9.87803e-16 0)
(8.38182e-20 -9.87799e-16 0)
(9.13918e-20 -9.87796e-16 0)
(1.01322e-19 -9.87795e-16 0)
(1.12429e-19 -9.87798e-16 0)
(1.22553e-19 -9.87807e-16 0)
(1.2981e-19 -9.87819e-16 0)
(1.33909e-19 -9.87831e-16 0)
(1.35559e-19 -9.87842e-16 0)
(1.35509e-19 -9.87852e-16 0)
(1.34303e-19 -9.87861e-16 0)
(1.32247e-19 -9.8787e-16 0)
(1.29448e-19 -9.87878e-16 0)
(1.25841e-19 -9.87886e-16 0)
(1.21215e-19 -9.87894e-16 0)
(1.15242e-19 -9.87902e-16 0)
(1.07532e-19 -9.8791e-16 0)
(9.77623e-20 -9.87917e-16 0)
(1.04255e-19 -1.53647e-15 0)
(4.85986e-09 -1.94286e-05 0)
(5.16081e-08 -0.000241976 0)
(5.40507e-22 -9.87788e-16 0)
(1.93459e-21 -9.87787e-16 0)
(4.23398e-21 -9.87784e-16 0)
(7.93403e-21 -9.8778e-16 0)
(1.33655e-20 -9.87776e-16 0)
(2.06012e-20 -9.87772e-16 0)
(2.93519e-20 -9.8777e-16 0)
(3.89173e-20 -9.8777e-16 0)
(4.82931e-20 -9.87773e-16 0)
(5.64932e-20 -9.87778e-16 0)
(6.29289e-20 -9.87784e-16 0)
(6.75142e-20 -9.8779e-16 0)
(7.05018e-20 -9.87796e-16 0)
(7.23013e-20 -9.87801e-16 0)
(7.33615e-20 -9.87805e-16 0)
(7.41144e-20 -9.87808e-16 0)
(7.49545e-20 -9.87809e-16 0)
(7.62312e-20 -9.8781e-16 0)
(7.82385e-20 -9.8781e-16 0)
(8.11918e-20 -9.8781e-16 0)
(8.5187e-20 -9.8781e-16 0)
(9.01461e-20 -9.87811e-16 0)
(9.57676e-20 -9.87813e-16 0)
(1.01523e-19 -9.87817e-16 0)
(1.06758e-19 -9.87822e-16 0)
(1.10931e-19 -9.87829e-16 0)
(1.13804e-19 -9.87836e-16 0)
(1.15398e-19 -9.87844e-16 0)
(1.1585e-19 -9.87851e-16 0)
(1.15313e-19 -9.87858e-16 0)
(1.1391e-19 -9.87864e-16 0)
(1.11712e-19 -9.87871e-16 0)
(1.0875e-19 -9.87877e-16 0)
(1.05025e-19 -9.87882e-16 0)
(1.00537e-19 -9.87887e-16 0)
(9.53236e-20 -9.87891e-16 0)
(8.95083e-20 -9.87894e-16 0)
(1.09527e-19 -1.70447e-15 0)
(4.55057e-09 -1.86097e-05 0)
(4.29029e-08 -0.000230766 0)
(1.37737e-21 -9.87791e-16 0)
(4.30593e-21 -9.8779e-16 0)
(7.74186e-21 -9.87789e-16 0)
(1.1949e-20 -9.87787e-16 0)
(1.70612e-20 -9.87785e-16 0)
(2.30489e-20 -9.87784e-16 0)
(2.97004e-20 -9.87783e-16 0)
(3.66418e-20 -9.87784e-16 0)
(4.34121e-20 -9.87786e-16 0)
(4.95854e-20 -9.87789e-16 0)
(5.48844e-20 -9.87793e-16 0)
(5.9223e-20 -9.87797e-16 0)
(6.26748e-20 -9.87801e-16 0)
(6.54153e-20 -9.87804e-16 0)
(6.76685e-20 -9.87808e-16 0)
(6.9669e-20 -9.8781e-16 0)
(7.16367e-20 -9.87812e-16 0)
(7.37589e-20 -9.87814e-16 0)
(7.61758e-20 -9.87815e-16 0)
(7.89657e-20 -9.87817e-16 0)
(8.21308e-20 -9.87818e-16 0)
(8.55875e-20 -9.87821e-16 0)
(8.91685e-20 -9.87823e-16 0)
(9.26443e-20 -9.87827e-16 0)
(9.5768e-20 -9.87831e-16 0)
(9.83324e-20 -9.87835e-16 0)
(1.0021e-19 -9.8784e-16 0)
(1.01352e-19 -9.87846e-16 0)
(1.01766e-19 -9.87851e-16 0)
(1.01491e-19 -9.87856e-16 0)
(1.00575e-19 -9.87861e-16 0)
(9.90658e-20 -9.87865e-16 0)
(9.70132e-20 -9.87869e-16 0)
(9.44687e-20 -9.87873e-16 0)
(9.14949e-20 -9.87876e-16 0)
(8.81736e-20 -9.87879e-16 0)
(8.46116e-20 -9.87881e-16 0)
(1.1259e-19 -1.88357e-15 0)
(4.09112e-09 -1.75233e-05 0)
(3.74895e-08 -0.000219713 0)
(1.78996e-21 -9.87796e-16 0)
(5.45207e-21 -9.87795e-16 0)
(9.36611e-21 -9.87795e-16 0)
(1.36695e-20 -9.87794e-16 0)
(1.84168e-20 -9.87793e-16 0)
(2.35694e-20 -9.87793e-16 0)
(2.89989e-20 -9.87793e-16 0)
(3.45092e-20 -9.87794e-16 0)
(3.9877e-20 -9.87796e-16 0)
(4.49009e-20 -9.87798e-16 0)
(4.94436e-20 -9.87801e-16 0)
(5.34498e-20 -9.87803e-16 0)
(5.69396e-20 -9.87806e-16 0)
(5.9989e-20 -9.87809e-16 0)
(6.27057e-20 -9.87812e-16 0)
(6.52086e-20 -9.87814e-16 0)
(6.76101e-20 -9.87816e-16 0)
(7.00036e-20 -9.87818e-16 0)
(7.24532e-20 -9.8782e-16 0)
(7.49863e-20 -9.87822e-16 0)
(7.75907e-20 -9.87825e-16 0)
(8.02145e-20 -9.87827e-16 0)
(8.27734e-20 -9.8783e-16 0)
(8.5163e-20 -9.87833e-16 0)
(8.7277e-20 -9.87836e-16 0)
(8.9024e-20 -9.8784e-16 0)
(9.03398e-20 -9.87843e-16 0)
(9.11902e-20 -9.87847e-16 0)
(9.15668e-20 -9.87851e-16 0)
(9.14809e-20 -9.87855e-16 0)
(9.09572e-20 -9.87858e-16 0)
(9.00296e-20 -9.87862e-16 0)
(8.8739e-20 -9.87865e-16 0)
(8.71331e-20 -9.87867e-16 0)
(8.52664e-20 -9.87869e-16 0)
(8.32002e-20 -9.87871e-16 0)
(8.10018e-20 -9.87873e-16 0)
(1.18161e-19 -2.13614e-15 0)
(3.64451e-09 -1.64254e-05 0)
(3.3485e-08 -0.000208832 0)
(1.95897e-21 -9.87801e-16 0)
(5.90471e-21 -9.87801e-16 0)
(9.95259e-21 -9.87801e-16 0)
(1.41731e-20 -9.87801e-16 0)
(1.85881e-20 -9.87801e-16 0)
(2.3169e-20 -9.87801e-16 0)
(2.78425e-20 -9.87801e-16 0)
(3.25051e-20 -9.87802e-16 0)
(3.70435e-20 -9.87804e-16 0)
(4.1357e-20 -9.87806e-16 0)
(4.53743e-20 -9.87808e-16 0)
(4.90622e-20 -9.8781e-16 0)
(5.24237e-20 -9.87812e-16 0)
(5.5491e-20 -9.87814e-16 0)
(5.83141e-20 -9.87817e-16 0)
(6.09501e-20 -9.87819e-16 0)
(6.34535e-20 -9.87821e-16 0)
(6.58688e-20 -9.87823e-16 0)
(6.82241e-20 -9.87825e-16 0)
(7.05291e-20 -9.87827e-16 0)
(7.27734e-20 -9.8783e-16 0)
(7.49288e-20 -9.87832e-16 0)
(7.69538e-20 -9.87834e-16 0)
(7.87997e-20 -9.87837e-16 0)
(8.0418e-20 -9.8784e-16 0)
(8.17672e-20 -9.87843e-16 0)
(8.28168e-20 -9.87846e-16 0)
(8.35499e-20 -9.87849e-16 0)
(8.39623e-20 -9.87852e-16 0)
(8.40614e-20 -9.87854e-16 0)
(8.38638e-20 -9.87857e-16 0)
(8.33936e-20 -9.87859e-16 0)
(8.2681e-20 -9.87862e-16 0)
(8.17607e-20 -9.87864e-16 0)
(8.06713e-20 -9.87865e-16 0)
(7.94539e-20 -9.87867e-16 0)
(7.81508e-20 -9.87868e-16 0)
(1.26767e-19 -2.43672e-15 0)
(3.24074e-09 -1.53705e-05 0)
(3.01757e-08 -0.00019813 0)
(1.99455e-21 -9.87807e-16 0)
(5.98121e-21 -9.87807e-16 0)
(9.98698e-21 -9.87807e-16 0)
(1.4047e-20 -9.87807e-16 0)
(1.81693e-20 -9.87807e-16 0)
(2.23351e-20 -9.87808e-16 0)
(2.65029e-20 -9.87809e-16 0)
(3.0617e-20 -9.8781e-16 0)
(3.46178e-20 -9.87811e-16 0)
(3.84525e-20 -9.87812e-16 0)
(4.20825e-20 -9.87814e-16 0)
(4.54873e-20 -9.87816e-16 0)
(4.86646e-20 -9.87818e-16 0)
(5.16269e-20 -9.8782e-16 0)
(5.43963e-20 -9.87822e-16 0)
(5.69988e-20 -9.87824e-16 0)
(5.94599e-20 -9.87826e-16 0)
(6.17998e-20 -9.87828e-16 0)
(6.40307e-20 -9.8783e-16 0)
(6.61559e-20 -9.87832e-16 0)
(6.81689e-20 -9.87834e-16 0)
(7.00556e-20 -9.87836e-16 0)
(7.17961e-20 -9.87838e-16 0)
(7.3368e-20 -9.87841e-16 0)
(7.47496e-20 -9.87843e-16 0)
(7.59229e-20 -9.87845e-16 0)
(7.68752e-20 -9.87848e-16 0)
(7.76007e-20 -9.8785e-16 0)
(7.81002e-20 -9.87852e-16 0)
(7.83812e-20 -9.87854e-16 0)
(7.84567e-20 -9.87857e-16 0)
(7.83446e-20 -9.87858e-16 0)
(7.80663e-20 -9.8786e-16 0)
(7.76464e-20 -9.87862e-16 0)
(7.7111e-20 -9.87863e-16 0)
(7.64876e-20 -9.87864e-16 0)
(7.58033e-20 -9.87865e-16 0)
(1.35825e-19 -2.73953e-15 0)
(2.8801e-09 -1.43664e-05 0)
(2.72469e-08 -0.000187604 0)
(1.96009e-21 -9.87813e-16 0)
(5.86195e-21 -9.87813e-16 0)
(9.73895e-21 -9.87813e-16 0)
(1.36076e-20 -9.87813e-16 0)
(1.74697e-20 -9.87814e-16 0)
(2.13129e-20 -9.87814e-16 0)
(2.51134e-20 -9.87815e-16 0)
(2.88403e-20 -9.87816e-16 0)
(3.2461e-20 -9.87817e-16 0)
(3.59466e-20 -9.87818e-16 0)
(3.9275e-20 -9.8782e-16 0)
(4.24334e-20 -9.87821e-16 0)
(4.5418e-20 -9.87823e-16 0)
(4.82326e-20 -9.87825e-16 0)
(5.08861e-20 -9.87827e-16 0)
(5.33899e-20 -9.87828e-16 0)
(5.57552e-20 -9.8783e-16 0)
(5.79911e-20 -9.87832e-16 0)
(6.01029e-20 -9.87834e-16 0)
(6.20918e-20 -9.87836e-16 0)
(6.39546e-20 -9.87838e-16 0)
(6.56848e-20 -9.8784e-16 0)
(6.72738e-20 -9.87842e-16 0)
(6.87121e-20 -9.87844e-16 0)
(6.99911e-20 -9.87846e-16 0)
(7.11042e-20 -9.87848e-16 0)
(7.2048e-20 -9.8785e-16 0)
(7.28226e-20 -9.87852e-16 0)
(7.34319e-20 -9.87853e-16 0)
(7.38834e-20 -9.87855e-16 0)
(7.41879e-20 -9.87857e-16 0)
(7.43591e-20 -9.87858e-16 0)
(7.44125e-20 -9.8786e-16 0)
(7.43656e-20 -9.87861e-16 0)
(7.42366e-20 -9.87862e-16 0)
(7.40442e-20 -9.87863e-16 0)
(7.38067e-20 -9.87864e-16 0)
(1.44275e-19 -3.02723e-15 0)
(2.55804e-09 -1.34099e-05 0)
(2.45437e-08 -0.000177254 0)
(1.89089e-21 -9.87818e-16 0)
(5.6466e-21 -9.87818e-16 0)
(9.35538e-21 -9.87819e-16 0)
(1.30239e-20 -9.87819e-16 0)
(1.66511e-20 -9.87819e-16 0)
(2.02286e-20 -9.8782e-16 0)
(2.3742e-20 -9.87821e-16 0)
(2.71735e-20 -9.87822e-16 0)
(3.05046e-20 -9.87823e-16 0)
(3.37185e-20 -9.87824e-16 0)
(3.68022e-20 -9.87825e-16 0)
(3.97473e-20 -9.87827e-16 0)
(4.25499e-20 -9.87828e-16 0)
(4.52105e-20 -9.8783e-16 0)
(4.77319e-20 -9.87831e-16 0)
(5.0119e-20 -9.87833e-16 0)
(5.23765e-20 -9.87835e-16 0)
(5.45085e-20 -9.87836e-16 0)
(5.65176e-20 -9.87838e-16 0)
(5.84044e-20 -9.8784e-16 0)
(6.01681e-20 -9.87841e-16 0)
(6.18064e-20 -9.87843e-16 0)
(6.33164e-20 -9.87845e-16 0)
(6.46953e-20 -9.87847e-16 0)
(6.59407e-20 -9.87848e-16 0)
(6.7052e-20 -9.8785e-16 0)
(6.803e-20 -9.87852e-16 0)
(6.88777e-20 -9.87853e-16 0)
(6.96004e-20 -9.87855e-16 0)
(7.02052e-20 -9.87856e-16 0)
(7.07012e-20 -9.87858e-16 0)
(7.1099e-20 -9.87859e-16 0)
(7.14103e-20 -9.8786e-16 0)
(7.16477e-20 -9.87861e-16 0)
(7.18244e-20 -9.87862e-16 0)
(7.19534e-20 -9.87863e-16 0)
(7.20475e-20 -9.87863e-16 0)
(1.51836e-19 -3.30056e-15 0)
(2.2689e-09 -1.24954e-05 0)
(2.19972e-08 -0.000167077 0)
(1.80616e-21 -9.87824e-16 0)
(5.38913e-21 -9.87824e-16 0)
(8.91512e-21 -9.87824e-16 0)
(1.23857e-20 -9.87824e-16 0)
(1.57985e-20 -9.87825e-16 0)
(1.91474e-20 -9.87825e-16 0)
(2.24232e-20 -9.87826e-16 0)
(2.56152e-20 -9.87827e-16 0)
(2.87122e-20 -9.87828e-16 0)
(3.17041e-20 -9.87829e-16 0)
(3.45829e-20 -9.8783e-16 0)
(3.73429e-20 -9.87831e-16 0)
(3.9981e-20 -9.87833e-16 0)
(4.24962e-20 -9.87834e-16 0)
(4.48893e-20 -9.87836e-16 0)
(4.7162e-20 -9.87837e-16 0)
(4.93165e-20 -9.87839e-16 0)
(5.13549e-20 -9.8784e-16 0)
(5.32786e-20 -9.87842e-16 0)
(5.50888e-20 -9.87843e-16 0)
(5.67857e-20 -9.87845e-16 0)
(5.83696e-20 -9.87846e-16 0)
(5.98404e-20 -9.87848e-16 0)
(6.11986e-20 -9.87849e-16 0)
(6.2445e-20 -9.87851e-16 0)
(6.35815e-20 -9.87852e-16 0)
(6.46111e-20 -9.87854e-16 0)
(6.55379e-20 -9.87855e-16 0)
(6.63673e-20 -9.87857e-16 0)
(6.71059e-20 -9.87858e-16 0)
(6.77612e-20 -9.87859e-16 0)
(6.83416e-20 -9.8786e-16 0)
(6.88561e-20 -9.87861e-16 0)
(6.93142e-20 -9.87862e-16 0)
(6.97255e-20 -9.87863e-16 0)
(7.00998e-20 -9.87863e-16 0)
(7.04464e-20 -9.87864e-16 0)
(1.58806e-19 -3.56506e-15 0)
(2.00836e-09 -1.16189e-05 0)
(1.95765e-08 -0.000157072 0)
(1.71615e-21 -9.87829e-16 0)
(5.11821e-21 -9.87829e-16 0)
(8.45975e-21 -9.87829e-16 0)
(1.17398e-20 -9.87829e-16 0)
(1.49554e-20 -9.8783e-16 0)
(1.81018e-20 -9.8783e-16 0)
(2.11729e-20 -9.87831e-16 0)
(2.41617e-20 -9.87832e-16 0)
(2.70612e-20 -9.87833e-16 0)
(2.98651e-20 -9.87834e-16 0)
(3.25683e-20 -9.87835e-16 0)
(3.51668e-20 -9.87836e-16 0)
(3.76583e-20 -9.87837e-16 0)
(4.00418e-20 -9.87839e-16 0)
(4.23173e-20 -9.8784e-16 0)
(4.44854e-20 -9.87841e-16 0)
(4.65473e-20 -9.87843e-16 0)
(4.85044e-20 -9.87844e-16 0)
(5.0358e-20 -9.87845e-16 0)
(5.21094e-20 -9.87847e-16 0)
(5.37599e-20 -9.87848e-16 0)
(5.53108e-20 -9.8785e-16 0)
(5.67637e-20 -9.87851e-16 0)
(5.81205e-20 -9.87852e-16 0)
(5.93835e-20 -9.87854e-16 0)
(6.05558e-20 -9.87855e-16 0)
(6.16409e-20 -9.87856e-16 0)
(6.26432e-20 -9.87857e-16 0)
(6.3568e-20 -9.87858e-16 0)
(6.44208e-20 -9.8786e-16 0)
(6.5208e-20 -9.87861e-16 0)
(6.59361e-20 -9.87862e-16 0)
(6.66123e-20 -9.87862e-16 0)
(6.72434e-20 -9.87863e-16 0)
(6.78367e-20 -9.87864e-16 0)
(6.83989e-20 -9.87865e-16 0)
(6.89366e-20 -9.87865e-16 0)
(1.65195e-19 -3.82855e-15 0)
(1.77287e-09 -1.07796e-05 0)
(1.7277e-08 -0.000147236 0)
(1.62615e-21 -9.87833e-16 0)
(4.84859e-21 -9.87834e-16 0)
(8.01042e-21 -9.87834e-16 0)
(1.11095e-20 -9.87834e-16 0)
(1.41428e-20 -9.87835e-16 0)
(1.71064e-20 -9.87835e-16 0)
(1.99961e-20 -9.87836e-16 0)
(2.28071e-20 -9.87837e-16 0)
(2.55349e-20 -9.87837e-16 0)
(2.81752e-20 -9.87838e-16 0)
(3.07249e-20 -9.87839e-16 0)
(3.31812e-20 -9.8784e-16 0)
(3.55426e-20 -9.87842e-16 0)
(3.78082e-20 -9.87843e-16 0)
(3.99781e-20 -9.87844e-16 0)
(4.20526e-20 -9.87845e-16 0)
(4.40327e-20 -9.87846e-16 0)
(4.59196e-20 -9.87848e-16 0)
(4.77147e-20 -9.87849e-16 0)
(4.94196e-20 -9.8785e-16 0)
(5.1036e-20 -9.87851e-16 0)
(5.25659e-20 -9.87853e-16 0)
(5.40116e-20 -9.87854e-16 0)
(5.53754e-20 -9.87855e-16 0)
(5.66605e-20 -9.87856e-16 0)
(5.787e-20 -9.87858e-16 0)
(5.90078e-20 -9.87859e-16 0)
(6.0078e-20 -9.8786e-16 0)
(6.10852e-20 -9.87861e-16 0)
(6.20342e-20 -9.87862e-16 0)
(6.29303e-20 -9.87863e-16 0)
(6.37788e-20 -9.87863e-16 0)
(6.45851e-20 -9.87864e-16 0)
(6.53545e-20 -9.87865e-16 0)
(6.60925e-20 -9.87866e-16 0)
(6.6804e-20 -9.87866e-16 0)
(6.74938e-20 -9.87867e-16 0)
(1.71496e-19 -4.09586e-15 0)
(1.56066e-09 -9.97649e-06 0)
(1.50925e-08 -0.000137571 0)
(1.53874e-21 -9.87838e-16 0)
(4.5874e-21 -9.87838e-16 0)
(7.57717e-21 -9.87838e-16 0)
(1.05055e-20 -9.87839e-16 0)
(1.33695e-20 -9.87839e-16 0)
(1.6166e-20 -9.8784e-16 0)
(1.88919e-20 -9.8784e-16 0)
(2.15438e-20 -9.87841e-16 0)
(2.41186e-20 -9.87842e-16 0)
(2.66137e-20 -9.87843e-16 0)
(2.90268e-20 -9.87844e-16 0)
(3.13564e-20 -9.87845e-16 0)
(3.36014e-20 -9.87846e-16 0)
(3.57614e-20 -9.87847e-16 0)
(3.78366e-20 -9.87848e-16 0)
(3.98274e-20 -9.87849e-16 0)
(4.17349e-20 -9.8785e-16 0)
(4.35604e-20 -9.87851e-16 0)
(4.53053e-20 -9.87852e-16 0)
(4.69714e-20 -9.87854e-16 0)
(4.85608e-20 -9.87855e-16 0)
(5.00755e-20 -9.87856e-16 0)
(5.15182e-20 -9.87857e-16 0)
(5.28916e-20 -9.87858e-16 0)
(5.41985e-20 -9.87859e-16 0)
(5.54424e-20 -9.8786e-16 0)
(5.66267e-20 -9.87861e-16 0)
(5.77553e-20 -9.87862e-16 0)
(5.8832e-20 -9.87863e-16 0)
(5.98612e-20 -9.87864e-16 0)
(6.0847e-20 -9.87865e-16 0)
(6.17937e-20 -9.87866e-16 0)
(6.27058e-20 -9.87866e-16 0)
(6.35875e-20 -9.87867e-16 0)
(6.44429e-20 -9.87868e-16 0)
(6.52762e-20 -9.87868e-16 0)
(6.60914e-20 -9.87869e-16 0)
(1.77568e-19 -4.36727e-15 0)
(1.36874e-09 -9.20445e-06 0)
(1.30336e-08 -0.000128075 0)
(1.45502e-21 -9.87842e-16 0)
(4.33759e-21 -9.87842e-16 0)
(7.16388e-21 -9.87843e-16 0)
(9.93134e-21 -9.87843e-16 0)
(1.26374e-20 -9.87843e-16 0)
(1.52796e-20 -9.87844e-16 0)
(1.78554e-20 -9.87845e-16 0)
(2.03624e-20 -9.87845e-16 0)
(2.27987e-20 -9.87846e-16 0)
(2.51624e-20 -9.87847e-16 0)
(2.74522e-20 -9.87848e-16 0)
(2.96671e-20 -9.87848e-16 0)
(3.18067e-20 -9.87849e-16 0)
(3.3871e-20 -9.8785e-16 0)
(3.58603e-20 -9.87851e-16 0)
(3.77754e-20 -9.87852e-16 0)
(3.96173e-20 -9.87854e-16 0)
(4.13875e-20 -9.87855e-16 0)
(4.30876e-20 -9.87856e-16 0)
(4.47194e-20 -9.87857e-16 0)
(4.6285e-20 -9.87858e-16 0)
(4.77867e-20 -9.87859e-16 0)
(4.9227e-20 -9.8786e-16 0)
(5.06086e-20 -9.87861e-16 0)
(5.19343e-20 -9.87862e-16 0)
(5.32073e-20 -9.87863e-16 0)
(5.44306e-20 -9.87864e-16 0)
(5.56077e-20 -9.87865e-16 0)
(5.67419e-20 -9.87866e-16 0)
(5.78368e-20 -9.87867e-16 0)
(5.88959e-20 -9.87867e-16 0)
(5.99227e-20 -9.87868e-16 0)
(6.09205e-20 -9.87869e-16 0)
(6.18928e-20 -9.87869e-16 0)
(6.28428e-20 -9.8787e-16 0)
(6.37733e-20 -9.87871e-16 0)
(6.46872e-20 -9.87871e-16 0)
(1.83396e-19 -4.65411e-15 0)
(1.19433e-09 -8.46125e-06 0)
(1.112e-08 -0.000118752 0)
(1.37527e-21 -9.87846e-16 0)
(4.09982e-21 -9.87847e-16 0)
(6.77112e-21 -9.87847e-16 0)
(9.38686e-21 -9.87847e-16 0)
(1.19449e-20 -9.87847e-16 0)
(1.44431e-20 -9.87848e-16 0)
(1.68797e-20 -9.87848e-16 0)
(1.92531e-20 -9.87849e-16 0)
(2.15618e-20 -9.8785e-16 0)
(2.38047e-20 -9.87851e-16 0)
(2.59812e-20 -9.87851e-16 0)
(2.80908e-20 -9.87852e-16 0)
(3.01335e-20 -9.87853e-16 0)
(3.21096e-20 -9.87854e-16 0)
(3.40196e-20 -9.87855e-16 0)
(3.58646e-20 -9.87856e-16 0)
(3.76458e-20 -9.87857e-16 0)
(3.93646e-20 -9.87858e-16 0)
(4.10227e-20 -9.87859e-16 0)
(4.26221e-20 -9.8786e-16 0)
(4.41647e-20 -9.87861e-16 0)
(4.56529e-20 -9.87862e-16 0)
(4.70891e-20 -9.87863e-16 0)
(4.84757e-20 -9.87864e-16 0)
(4.98154e-20 -9.87865e-16 0)
(5.11111e-20 -9.87866e-16 0)
(5.23654e-20 -9.87867e-16 0)
(5.35814e-20 -9.87868e-16 0)
(5.47619e-20 -9.87868e-16 0)
(5.59099e-20 -9.87869e-16 0)
(5.70283e-20 -9.8787e-16 0)
(5.81198e-20 -9.87871e-16 0)
(5.91874e-20 -9.87871e-16 0)
(6.02337e-20 -9.87872e-16 0)
(6.12612e-20 -9.87873e-16 0)
(6.22724e-20 -9.87873e-16 0)
(6.32698e-20 -9.87874e-16 0)
(1.89607e-19 -4.99097e-15 0)
(1.0364e-09 -7.74525e-06 0)
(9.35815e-09 -0.000109605 0)
(1.29934e-21 -9.8785e-16 0)
(3.87353e-21 -9.8785e-16 0)
(6.39766e-21 -9.87851e-16 0)
(8.86975e-21 -9.87851e-16 0)
(1.1288e-20 -9.87851e-16 0)
(1.36509e-20 -9.87852e-16 0)
(1.59571e-20 -9.87852e-16 0)
(1.82054e-20 -9.87853e-16 0)
(2.0395e-20 -9.87854e-16 0)
(2.25253e-20 -9.87854e-16 0)
(2.4596e-20 -9.87855e-16 0)
(2.66072e-20 -9.87856e-16 0)
(2.85591e-20 -9.87857e-16 0)
(3.04523e-20 -9.87857e-16 0)
(3.22876e-20 -9.87858e-16 0)
(3.40662e-20 -9.87859e-16 0)
(3.57894e-20 -9.8786e-16 0)
(3.74587e-20 -9.87861e-16 0)
(3.90758e-20 -9.87862e-16 0)
(4.06427e-20 -9.87863e-16 0)
(4.21613e-20 -9.87864e-16 0)
(4.36338e-20 -9.87865e-16 0)
(4.50625e-20 -9.87866e-16 0)
(4.64497e-20 -9.87867e-16 0)
(4.77978e-20 -9.87868e-16 0)
(4.91092e-20 -9.87869e-16 0)
(5.03865e-20 -9.8787e-16 0)
(5.16322e-20 -9.8787e-16 0)
(5.28486e-20 -9.87871e-16 0)
(5.40383e-20 -9.87872e-16 0)
(5.52037e-20 -9.87873e-16 0)
(5.63471e-20 -9.87873e-16 0)
(5.74706e-20 -9.87874e-16 0)
(5.85765e-20 -9.87875e-16 0)
(5.96667e-20 -9.87875e-16 0)
(6.07429e-20 -9.87876e-16 0)
(6.18068e-20 -9.87877e-16 0)
(1.97626e-19 -5.33442e-15 0)
(8.92968e-10 -7.05475e-06 0)
(7.7619e-09 -0.000100638 0)
(1.22685e-21 -9.87854e-16 0)
(3.65755e-21 -9.87854e-16 0)
(6.04139e-21 -9.87854e-16 0)
(8.37675e-21 -9.87855e-16 0)
(1.06622e-20 -9.87855e-16 0)
(1.28967e-20 -9.87855e-16 0)
(1.50793e-20 -9.87856e-16 0)
(1.72093e-20 -9.87856e-16 0)
(1.92861e-20 -9.87857e-16 0)
(2.13098e-20 -9.87858e-16 0)
(2.32802e-20 -9.87858e-16 0)
(2.51978e-20 -9.87859e-16 0)
(2.70631e-20 -9.8786e-16 0)
(2.88769e-20 -9.87861e-16 0)
(3.06402e-20 -9.87862e-16 0)
(3.23542e-20 -9.87863e-16 0)
(3.40204e-20 -9.87863e-16 0)
(3.56404e-20 -9.87864e-16 0)
(3.72159e-20 -9.87865e-16 0)
(3.87487e-20 -9.87866e-16 0)
(4.02407e-20 -9.87867e-16 0)
(4.16942e-20 -9.87868e-16 0)
(4.3111e-20 -9.87869e-16 0)
(4.44935e-20 -9.8787e-16 0)
(4.58437e-20 -9.87871e-16 0)
(4.71638e-20 -9.87872e-16 0)
(4.84561e-20 -9.87872e-16 0)
(4.97226e-20 -9.87873e-16 0)
(5.09655e-20 -9.87874e-16 0)
(5.21867e-20 -9.87875e-16 0)
(5.33882e-20 -9.87876e-16 0)
(5.4572e-20 -9.87876e-16 0)
(5.57399e-20 -9.87877e-16 0)
(5.68936e-20 -9.87878e-16 0)
(5.80347e-20 -9.87878e-16 0)
(5.91652e-20 -9.87879e-16 0)
(6.02867e-20 -9.8788e-16 0)
(2.02968e-19 -5.69171e-15 0)
(7.6334e-10 -6.38846e-06 0)
(6.33367e-09 -9.18568e-05 0)
(1.15733e-21 -9.87857e-16 0)
(3.45045e-21 -9.87857e-16 0)
(5.69982e-21 -9.87858e-16 0)
(7.9042e-21 -9.87858e-16 0)
(1.00626e-20 -9.87858e-16 0)
(1.21742e-20 -9.87859e-16 0)
(1.42385e-20 -9.87859e-16 0)
(1.62551e-20 -9.8786e-16 0)
(1.82239e-20 -9.8786e-16 0)
(2.01451e-20 -9.87861e-16 0)
(2.2019e-20 -9.87862e-16 0)
(2.38461e-20 -9.87862e-16 0)
(2.56272e-20 -9.87863e-16 0)
(2.73633e-20 -9.87864e-16 0)
(2.90556e-20 -9.87865e-16 0)
(3.07054e-20 -9.87866e-16 0)
(3.23142e-20 -9.87867e-16 0)
(3.38836e-20 -9.87867e-16 0)
(3.54153e-20 -9.87868e-16 0)
(3.69112e-20 -9.87869e-16 0)
(3.83732e-20 -9.8787e-16 0)
(3.98031e-20 -9.87871e-16 0)
(4.1203e-20 -9.87872e-16 0)
(4.25748e-20 -9.87873e-16 0)
(4.39205e-20 -9.87874e-16 0)
(4.52421e-20 -9.87875e-16 0)
(4.65415e-20 -9.87875e-16 0)
(4.78204e-20 -9.87876e-16 0)
(4.90807e-20 -9.87877e-16 0)
(5.0324e-20 -9.87878e-16 0)
(5.15519e-20 -9.87879e-16 0)
(5.27658e-20 -9.87879e-16 0)
(5.39672e-20 -9.8788e-16 0)
(5.51571e-20 -9.87881e-16 0)
(5.63368e-20 -9.87881e-16 0)
(5.75071e-20 -9.87882e-16 0)
(5.86687e-20 -9.87883e-16 0)
(2.10162e-19 -6.06866e-15 0)
(6.46112e-10 -5.74834e-06 0)
(5.08032e-09 -8.32703e-05 0)
(1.09029e-21 -9.87861e-16 0)
(3.25072e-21 -9.87861e-16 0)
(5.3704e-21 -9.87861e-16 0)
(7.44845e-21 -9.87861e-16 0)
(9.48419e-21 -9.87862e-16 0)
(1.14772e-20 -9.87862e-16 0)
(1.34271e-20 -9.87862e-16 0)
(1.5334e-20 -9.87863e-16 0)
(1.7198e-20 -9.87863e-16 0)
(1.90195e-20 -9.87864e-16 0)
(2.0799e-20 -9.87865e-16 0)
(2.25372e-20 -9.87866e-16 0)
(2.42352e-20 -9.87866e-16 0)
(2.5894e-20 -9.87867e-16 0)
(2.7515e-20 -9.87868e-16 0)
(2.90995e-20 -9.87869e-16 0)
(3.0649e-20 -9.8787e-16 0)
(3.21653e-20 -9.8787e-16 0)
(3.36501e-20 -9.87871e-16 0)
(3.51052e-20 -9.87872e-16 0)
(3.65323e-20 -9.87873e-16 0)
(3.79335e-20 -9.87874e-16 0)
(3.93105e-20 -9.87875e-16 0)
(4.06652e-20 -9.87876e-16 0)
(4.19995e-20 -9.87877e-16 0)
(4.33151e-20 -9.87878e-16 0)
(4.46136e-20 -9.87878e-16 0)
(4.58968e-20 -9.87879e-16 0)
(4.71661e-20 -9.8788e-16 0)
(4.84228e-20 -9.87881e-16 0)
(4.96684e-20 -9.87882e-16 0)
(5.09039e-20 -9.87882e-16 0)
(5.21302e-20 -9.87883e-16 0)
(5.33483e-20 -9.87884e-16 0)
(5.45586e-20 -9.87885e-16 0)
(5.57615e-20 -9.87885e-16 0)
(5.69568e-20 -9.87886e-16 0)
(2.14842e-19 -6.4577e-15 0)
(5.41619e-10 -5.13736e-06 0)
(3.99185e-09 -7.48875e-05 0)
(1.02524e-21 -9.87864e-16 0)
(3.05692e-21 -9.87864e-16 0)
(5.05071e-21 -9.87864e-16 0)
(7.00605e-21 -9.87864e-16 0)
(8.92256e-21 -9.87865e-16 0)
(1.08e-20 -9.87865e-16 0)
(1.26385e-20 -9.87865e-16 0)
(1.44381e-20 -9.87866e-16 0)
(1.61993e-20 -9.87866e-16 0)
(1.79225e-20 -9.87867e-16 0)
(1.96086e-20 -9.87868e-16 0)
(2.12584e-20 -9.87868e-16 0)
(2.2873e-20 -9.87869e-16 0)
(2.44537e-20 -9.8787e-16 0)
(2.60017e-20 -9.87871e-16 0)
(2.75186e-20 -9.87872e-16 0)
(2.9006e-20 -9.87872e-16 0)
(3.04656e-20 -9.87873e-16 0)
(3.18991e-20 -9.87874e-16 0)
(3.33084e-20 -9.87875e-16 0)
(3.46952e-20 -9.87876e-16 0)
(3.60614e-20 -9.87877e-16 0)
(3.74089e-20 -9.87878e-16 0)
(3.87394e-20 -9.87879e-16 0)
(4.00546e-20 -9.8788e-16 0)
(4.13563e-20 -9.8788e-16 0)
(4.2646e-20 -9.87881e-16 0)
(4.39252e-20 -9.87882e-16 0)
(4.51952e-20 -9.87883e-16 0)
(4.64573e-20 -9.87884e-16 0)
(4.77125e-20 -9.87885e-16 0)
(4.89617e-20 -9.87886e-16 0)
(5.0206e-20 -9.87886e-16 0)
(5.14459e-20 -9.87887e-16 0)
(5.26824e-20 -9.87888e-16 0)
(5.39161e-20 -9.87889e-16 0)
(5.51481e-20 -9.87889e-16 0)
(2.20783e-19 -6.80377e-15 0)
(4.48668e-10 -4.54886e-06 0)
(3.06013e-09 -6.67194e-05 0)
(9.61744e-22 -9.87867e-16 0)
(2.86774e-21 -9.87867e-16 0)
(4.73856e-21 -9.87867e-16 0)
(6.57392e-21 -9.87867e-16 0)
(8.37369e-21 -9.87867e-16 0)
(1.01379e-20 -9.87868e-16 0)
(1.18667e-20 -9.87868e-16 0)
(1.35605e-20 -9.87869e-16 0)
(1.52198e-20 -9.87869e-16 0)
(1.68454e-20 -9.8787e-16 0)
(1.8438e-20 -9.87871e-16 0)
(1.99987e-20 -9.87871e-16 0)
(2.15286e-20 -9.87872e-16 0)
(2.30291e-20 -9.87873e-16 0)
(2.45017e-20 -9.87874e-16 0)
(2.59477e-20 -9.87874e-16 0)
(2.7369e-20 -9.87875e-16 0)
(2.87672e-20 -9.87876e-16 0)
(3.01441e-20 -9.87877e-16 0)
(3.15016e-20 -9.87878e-16 0)
(3.28415e-20 -9.87879e-16 0)
(3.41657e-20 -9.8788e-16 0)
(3.54761e-20 -9.87881e-16 0)
(3.67743e-20 -9.87882e-16 0)
(3.80623e-20 -9.87882e-16 0)
(3.93416e-20 -9.87883e-16 0)
(4.06138e-20 -9.87884e-16 0)
(4.18802e-20 -9.87885e-16 0)
(4.31423e-20 -9.87886e-16 0)
(4.4401e-20 -9.87887e-16 0)
(4.56574e-20 -9.87888e-16 0)
(4.69121e-20 -9.87889e-16 0)
(4.81658e-20 -9.87889e-16 0)
(4.9419e-20 -9.8789e-16 0)
(5.06718e-20 -9.87891e-16 0)
(5.19245e-20 -9.87892e-16 0)
(5.31773e-20 -9.87893e-16 0)
(2.20675e-19 -7.01611e-15 0)
(3.65383e-10 -3.98333e-06 0)
(2.28859e-09 -5.87793e-05 0)
(8.99434e-22 -9.87869e-16 0)
(2.68205e-21 -9.87869e-16 0)
(4.43208e-21 -9.8787e-16 0)
(6.14946e-21 -9.8787e-16 0)
(7.83422e-21 -9.8787e-16 0)
(9.48655e-21 -9.8787e-16 0)
(1.11068e-20 -9.87871e-16 0)
(1.26954e-20 -9.87871e-16 0)
(1.42531e-20 -9.87872e-16 0)
(1.57806e-20 -9.87873e-16 0)
(1.72789e-20 -9.87873e-16 0)
(1.8749e-20 -9.87874e-16 0)
(2.01922e-20 -9.87875e-16 0)
(2.16098e-20 -9.87875e-16 0)
(2.30033e-20 -9.87876e-16 0)
(2.43744e-20 -9.87877e-16 0)
(2.57246e-20 -9.87878e-16 0)
(2.70558e-20 -9.87879e-16 0)
(2.83699e-20 -9.8788e-16 0)
(2.96686e-20 -9.87881e-16 0)
(3.0954e-20 -9.87881e-16 0)
(3.2228e-20 -9.87882e-16 0)
(3.34925e-20 -9.87883e-16 0)
(3.47494e-20 -9.87884e-16 0)
(3.60006e-20 -9.87885e-16 0)
(3.72479e-20 -9.87886e-16 0)
(3.84928e-20 -9.87887e-16 0)
(3.9737e-20 -9.87888e-16 0)
(4.09816e-20 -9.87889e-16 0)
(4.22279e-20 -9.8789e-16 0)
(4.34768e-20 -9.87891e-16 0)
(4.47289e-20 -9.87892e-16 0)
(4.59845e-20 -9.87893e-16 0)
(4.72438e-20 -9.87894e-16 0)
(4.85065e-20 -9.87894e-16 0)
(4.97716e-20 -9.87895e-16 0)
(5.1038e-20 -9.87896e-16 0)
(2.16415e-19 -7.03769e-15 0)
(2.92597e-10 -3.44825e-06 0)
(1.65921e-09 -5.10828e-05 0)
(8.38e-22 -9.87872e-16 0)
(2.49894e-21 -9.87872e-16 0)
(4.12976e-21 -9.87872e-16 0)
(5.73052e-21 -9.87872e-16 0)
(7.30141e-21 -9.87873e-16 0)
(8.84271e-21 -9.87873e-16 0)
(1.03549e-20 -9.87873e-16 0)
(1.18384e-20 -9.87874e-16 0)
(1.3294e-20 -9.87874e-16 0)
(1.47226e-20 -9.87875e-16 0)
(1.6125e-20 -9.87876e-16 0)
(1.75025e-20 -9.87876e-16 0)
(1.88562e-20 -9.87877e-16 0)
(2.01875e-20 -9.87878e-16 0)
(2.14979e-20 -9.87879e-16 0)
(2.2789e-20 -9.87879e-16 0)