/*--------------------------------*- C++ -*----------------------------------*\
  =========                 |
  \\      /  F ield         | OpenFOAM: The Open Source CFD Toolbox
   \\    /   O peration     | Website:  https://openfoam.org
    \\  /    A nd           | Version:  10
     \\/     M anipulation  |
\*---------------------------------------------------------------------------*/
FoamFile
{
    format      ascii;
    class       volVectorField;
    location    "0.112";
    object      U;
}
// * * * * * * * * * * * * * * * * * * * * * * * * * * * * * * * * * * * * * //

dimensions      [0 1 -1 0 0 0 0];

internalField   nonuniform List<vector> 
4000
(
(5.00002 -7.36228e-05 0)
(5.00015 -0.000220711 0)
(5.00043 -0.000368003 0)
(5.00087 -0.000515542 0)
(5.00146 -0.000663404 0)
(5.0022 -0.000811736 0)
(5.00308 -0.00096063 0)
(5.00411 -0.00111028 0)
(5.00529 -0.00126077 0)
(5.00663 -0.00141236 0)
(5.00811 -0.00156516 0)
(5.00975 -0.00171948 0)
(5.01154 -0.00187546 0)
(5.01349 -0.00203346 0)
(5.0156 -0.00219367 0)
(5.01787 -0.00235648 0)
(5.0203 -0.0025221 0)
(5.0229 -0.00269101 0)
(5.02567 -0.00286344 0)
(5.02862 -0.0030399 0)
(5.03174 -0.00322069 0)
(5.03505 -0.00340636 0)
(5.03854 -0.00359724 0)
(5.04223 -0.00379392 0)
(5.04611 -0.00399676 0)
(5.05021 -0.00420641 0)
(5.05451 -0.00442324 0)
(5.05903 -0.00464792 0)
(5.06379 -0.00488088 0)
(5.06878 -0.00512281 0)
(5.07401 -0.00537414 0)
(5.0795 -0.00563562 0)
(5.08526 -0.00590769 0)
(5.09129 -0.00619113 0)
(5.09761 -0.0064864 0)
(5.10424 -0.00679429 0)
(5.11117 -0.00711529 0)
(5.11844 -0.0074502 0)
(5.12604 -0.00779951 0)
(5.134 -0.00816405 0)
(5.14233 -0.00854431 0)
(5.15105 -0.00894113 0)
(5.16018 -0.00935497 0)
(5.16972 -0.00978668 0)
(5.17971 -0.0102367 0)
(5.19015 -0.0107059 0)
(5.20107 -0.0111946 0)
(5.21249 -0.0117037 0)
(5.22443 -0.0122335 0)
(5.23691 -0.0127848 0)
(5.24995 -0.0133577 0)
(5.26357 -0.013953 0)
(5.2778 -0.0145707 0)
(5.29266 -0.0152113 0)
(5.30817 -0.0158748 0)
(5.32435 -0.0165614 0)
(5.34123 -0.0172709 0)
(5.35883 -0.0180031 0)
(5.37718 -0.0187574 0)
(5.39629 -0.0195334 0)
(5.41619 -0.0203299 0)
(5.43689 -0.021146 0)
(5.45843 -0.0219799 0)
(5.4808 -0.0228301 0)
(5.50404 -0.023694 0)
(5.52815 -0.0245694 0)
(5.55314 -0.0254528 0)
(5.57902 -0.026341 0)
(5.6058 -0.0272297 0)
(5.63347 -0.0281148 0)
(5.66203 -0.0289909 0)
(5.69146 -0.0298529 0)
(5.72175 -0.0306947 0)
(5.75288 -0.0315102 0)
(5.78481 -0.0322926 0)
(5.81752 -0.0330355 0)
(5.85096 -0.0337315 0)
(5.88507 -0.0343742 0)
(5.9198 -0.0349565 0)
(5.9551 -0.0354722 0)
(5.99088 -0.0359152 0)
(6.02707 -0.0362803 0)
(6.06359 -0.0365627 0)
(6.10036 -0.036759 0)
(6.13728 -0.0368663 0)
(6.17427 -0.0368833 0)
(6.21123 -0.0368091 0)
(6.24807 -0.0366446 0)
(6.2847 -0.0363912 0)
(6.32103 -0.036052 0)
(6.35698 -0.0356303 0)
(6.39246 -0.0351308 0)
(6.4274 -0.0345584 0)
(6.46173 -0.033919 0)
(6.49538 -0.0332187 0)
(6.5283 -0.0324641 0)
(6.56043 -0.0316616 0)
(6.59173 -0.0308182 0)
(6.62216 -0.0299403 0)
(6.65169 -0.0290345 0)
(6.6803 -0.0281069 0)
(6.70796 -0.0271636 0)
(6.73467 -0.02621 0)
(6.76041 -0.0252515 0)
(6.78519 -0.0242927 0)
(6.809 -0.0233383 0)
(6.83186 -0.022392 0)
(6.85378 -0.0214576 0)
(6.87477 -0.0205384 0)
(6.89484 -0.0196369 0)
(6.91402 -0.0187559 0)
(6.93232 -0.0178972 0)
(6.94978 -0.0170625 0)
(6.96641 -0.0162532 0)
(6.98225 -0.0154703 0)
(6.99731 -0.0147144 0)
(7.01164 -0.0139861 0)
(7.02524 -0.0132855 0)
(7.03816 -0.0126127 0)
(7.05042 -0.0119675 0)
(7.06205 -0.0113496 0)
(7.07308 -0.0107585 0)
(7.08352 -0.0101939 0)
(7.09342 -0.00965504 0)
(7.10279 -0.00914133 0)
(7.11166 -0.00865191 0)
(7.12006 -0.00818617 0)
(7.128 -0.00774312 0)
(7.13551 -0.00732209 0)
(7.14261 -0.00692204 0)
(7.14932 -0.00654227 0)
(7.15566 -0.00618175 0)
(7.16165 -0.00583978 0)
(7.16731 -0.00551536 0)
(7.17265 -0.00520783 0)
(7.1777 -0.00491625 0)
(7.18246 -0.00464 0)
(7.18695 -0.0043782 0)
(7.19119 -0.00413023 0)
(7.19519 -0.0038953 0)
(7.19896 -0.0036728 0)
(7.20252 -0.003462 0)
(7.20587 -0.00326233 0)
(7.20902 -0.00307313 0)
(7.21199 -0.00289388 0)
(7.21479 -0.00272404 0)
(7.21743 -0.00256311 0)
(7.21991 -0.0024107 0)
(7.22224 -0.00226632 0)
(7.22443 -0.00212967 0)
(7.22649 -0.00200027 0)
(7.22843 -0.00187788 0)
(7.23024 -0.00176198 0)
(7.23195 -0.00165238 0)
(7.23355 -0.00154853 0)
(7.23505 -0.0014503 0)
(7.23645 -0.00135709 0)
(7.23777 -0.00126888 0)
(7.239 -0.00118506 0)
(7.24015 -0.00110574 0)
(7.24122 -0.00103027 0)
(7.24222 -0.000958901 0)
(7.24316 -0.000890979 0)
(7.24403 -0.000826868 0)
(7.24484 -0.000765867 0)
(7.24559 -0.000708447 0)
(7.24629 -0.000653839 0)
(7.24694 -0.000602609 0)
(7.24753 -0.000553901 0)
(7.24809 -0.00050838 0)
(7.24859 -0.000465104 0)
(7.24906 -0.000424844 0)
(7.24949 -0.000386571 0)
(7.24988 -0.000351181 0)
(7.25024 -0.000317553 0)
(7.25056 -0.000286711 0)
(7.25086 -0.000257439 0)
(7.25112 -0.000230879 0)
(7.25136 -0.000205705 0)
(7.25157 -0.000183171 0)
(7.25177 -0.000161821 0)
(7.25194 -0.000143015 0)
(7.25209 -0.000125157 0)
(7.25222 -0.000109708 0)
(7.25234 -9.49339e-05 0)
(7.25245 -8.24037e-05 0)
(7.25254 -7.02517e-05 0)
(7.25262 -6.01672e-05 0)
(7.25269 -5.01672e-05 0)
(7.25275 -4.20694e-05 0)
(7.25281 -3.37855e-05 0)
(7.25285 -2.72693e-05 0)
(7.25289 -2.03389e-05 0)
(7.25293 -1.509e-05 0)
(7.25296 -9.33838e-06 0)
(7.25298 -5.30671e-06 0)
(7.253 -1.03488e-06 0)
(7.25301 1.64403e-06 0)
(7.25304 3.72868e-06 0)
(7.25305 5.00346e-06 0)
(5.00002 -0.000220537 0)
(5.00015 -0.000661309 0)
(5.00043 -0.00110268 0)
(5.00087 -0.00154479 0)
(5.00146 -0.00198788 0)
(5.00219 -0.00243233 0)
(5.00307 -0.00287845 0)
(5.0041 -0.00332673 0)
(5.00528 -0.00377754 0)
(5.00661 -0.0042315 0)
(5.00809 -0.0046891 0)
(5.00972 -0.00515108 0)
(5.0115 -0.00561806 0)
(5.01345 -0.00609091 0)
(5.01555 -0.00657036 0)
(5.0178 -0.00705743 0)
(5.02023 -0.00755297 0)
(5.02281 -0.00805816 0)
(5.02557 -0.00857396 0)
(5.0285 -0.00910168 0)
(5.0316 -0.00964241 0)
(5.03489 -0.0101976 0)
(5.03836 -0.0107684 0)
(5.04202 -0.0113565 0)
(5.04588 -0.011963 0)
(5.04995 -0.0125898 0)
(5.05422 -0.013238 0)
(5.05872 -0.0139097 0)
(5.06343 -0.0146061 0)
(5.06839 -0.0153292 0)
(5.07358 -0.0160806 0)
(5.07903 -0.0168621 0)
(5.08475 -0.0176755 0)
(5.09074 -0.0185227 0)
(5.09701 -0.0194055 0)
(5.10358 -0.0203258 0)
(5.11047 -0.0212856 0)
(5.11767 -0.0222868 0)
(5.12522 -0.0233313 0)
(5.13312 -0.0244214 0)
(5.14139 -0.0255586 0)
(5.15004 -0.0267453 0)
(5.1591 -0.0279832 0)
(5.16857 -0.0292746 0)
(5.17848 -0.0306211 0)
(5.18885 -0.0320249 0)
(5.19969 -0.0334876 0)
(5.21103 -0.0350113 0)
(5.22289 -0.0365974 0)
(5.23528 -0.0382478 0)
(5.24823 -0.0399637 0)
(5.26177 -0.0417467 0)
(5.27591 -0.0435976 0)
(5.29067 -0.0455176 0)
(5.30609 -0.0475069 0)
(5.32219 -0.0495661 0)
(5.33898 -0.0516946 0)
(5.35649 -0.053892 0)
(5.37475 -0.056157 0)
(5.39378 -0.0584878 0)
(5.4136 -0.0608817 0)
(5.43423 -0.0633354 0)
(5.4557 -0.0658443 0)
(5.47802 -0.0684033 0)
(5.50121 -0.0710056 0)
(5.52528 -0.0736438 0)
(5.55025 -0.0763083 0)
(5.57613 -0.0789889 0)
(5.60292 -0.0816735 0)
(5.63061 -0.0843487 0)
(5.65922 -0.0869992 0)
(5.68872 -0.0896089 0)
(5.71911 -0.0921596 0)
(5.75036 -0.0946327 0)
(5.78245 -0.0970076 0)
(5.81533 -0.0992639 0)
(5.84897 -0.10138 0)
(5.88331 -0.103335 0)
(5.91831 -0.105108 0)
(5.95388 -0.106679 0)
(5.98997 -0.10803 0)
(6.02649 -0.109144 0)
(6.06335 -0.110006 0)
(6.10047 -0.110607 0)
(6.13776 -0.110936 0)
(6.17511 -0.11099 0)
(6.21244 -0.110766 0)
(6.24964 -0.110267 0)
(6.28663 -0.109497 0)
(6.3233 -0.108466 0)
(6.35957 -0.107185 0)
(6.39536 -0.105667 0)
(6.43059 -0.103929 0)
(6.46518 -0.101987 0)
(6.49906 -0.0998623 0)
(6.53219 -0.0975732 0)
(6.5645 -0.0951403 0)
(6.59595 -0.0925842 0)
(6.62651 -0.089925 0)
(6.65614 -0.0871826 0)
(6.68483 -0.084376 0)
(6.71254 -0.0815233 0)
(6.73928 -0.0786415 0)
(6.76504 -0.0757466 0)
(6.78981 -0.072853 0)
(6.81361 -0.0699742 0)
(6.83643 -0.0671221 0)
(6.85829 -0.0643075 0)
(6.87922 -0.0615398 0)
(6.89921 -0.0588272 0)
(6.91831 -0.056177 0)
(6.93652 -0.053595 0)
(6.95388 -0.0510861 0)
(6.97041 -0.0486542 0)
(6.98614 -0.0463023 0)
(7.0011 -0.0440324 0)
(7.01531 -0.041846 0)
(7.02881 -0.0397436 0)
(7.04162 -0.0377253 0)
(7.05377 -0.0357905 0)
(7.06529 -0.0339385 0)
(7.07621 -0.0321676 0)
(7.08656 -0.0304764 0)
(7.09635 -0.0288629 0)
(7.10563 -0.027325 0)
(7.1144 -0.0258603 0)
(7.1227 -0.0244665 0)
(7.13055 -0.023141 0)
(7.13798 -0.0218814 0)
(7.145 -0.0206849 0)
(7.15163 -0.0195489 0)
(7.1579 -0.0184708 0)
(7.16381 -0.0174481 0)
(7.1694 -0.0164781 0)
(7.17468 -0.0155585 0)
(7.17967 -0.0146868 0)
(7.18437 -0.0138608 0)
(7.1888 -0.0130781 0)
(7.19299 -0.0123369 0)
(7.19694 -0.0116348 0)
(7.20066 -0.01097 0)
(7.20417 -0.0103405 0)
(7.20748 -0.00974463 0)
(7.21059 -0.00918048 0)
(7.21352 -0.0086464 0)
(7.21629 -0.00814079 0)
(7.21889 -0.00766209 0)
(7.22133 -0.00720896 0)
(7.22363 -0.00677995 0)
(7.2258 -0.00637397 0)
(7.22783 -0.00598969 0)
(7.22974 -0.00562623 0)
(7.23153 -0.00528233 0)
(7.23321 -0.00495725 0)
(7.23479 -0.00464976 0)
(7.23626 -0.00435923 0)
(7.23765 -0.00408439 0)
(7.23895 -0.00382476 0)
(7.24016 -0.00357903 0)
(7.24129 -0.00334688 0)
(7.24235 -0.00312699 0)
(7.24334 -0.00291921 0)
(7.24426 -0.00272224 0)
(7.24511 -0.00253612 0)
(7.24591 -0.00235954 0)
(7.24665 -0.00219274 0)
(7.24734 -0.00203439 0)
(7.24797 -0.00188493 0)
(7.24856 -0.001743 0)
(7.2491 -0.00160923 0)
(7.2496 -0.00148221 0)
(7.25006 -0.00136279 0)
(7.25048 -0.00124951 0)
(7.25086 -0.00114344 0)
(7.25121 -0.00104305 0)
(7.25152 -0.000949629 0)
(7.25181 -0.00086155 0)
(7.25206 -0.000780285 0)
(7.25229 -0.000704062 0)
(7.2525 -0.000634504 0)
(7.25269 -0.000569644 0)
(7.25285 -0.000511219 0)
(7.253 -0.00045704 0)
(7.25312 -0.000408934 0)
(7.25324 -0.0003645 0)
(7.25334 -0.000325647 0)
(7.25343 -0.000289793 0)
(7.2535 -0.000258947 0)
(7.25357 -0.000230393 0)
(7.25363 -0.000206267 0)
(7.25368 -0.000183753 0)
(7.25372 -0.000165146 0)
(7.25376 -0.000147564 0)
(7.25379 -0.000133484 0)
(7.25381 -0.000120073 0)
(7.25383 -0.000109944 0)
(7.25385 -0.000100694 0)
(7.25386 -9.40779e-05 0)
(7.25389 -9.03474e-05 0)
(7.25389 -8.61919e-05 0)
(5.00002 -0.000366869 0)
(5.00015 -0.00110034 0)
(5.00043 -0.00183472 0)
(5.00087 -0.00257024 0)
(5.00145 -0.00330731 0)
(5.00218 -0.00404644 0)
(5.00306 -0.00478821 0)
(5.00408 -0.00553329 0)
(5.00525 -0.00628243 0)
(5.00657 -0.00703648 0)
(5.00804 -0.00779639 0)
(5.00966 -0.00856325 0)
(5.01143 -0.00933819 0)
(5.01336 -0.0101225 0)
(5.01544 -0.0109177 0)
(5.01768 -0.0117251 0)
(5.02007 -0.0125465 0)
(5.02264 -0.0133835 0)
(5.02536 -0.0142381 0)
(5.02826 -0.0151122 0)
(5.03133 -0.0160078 0)
(5.03457 -0.0169272 0)
(5.038 -0.0178726 0)
(5.04162 -0.0188463 0)
(5.04543 -0.0198507 0)
(5.04944 -0.0208885 0)
(5.05365 -0.0219622 0)
(5.05808 -0.0230746 0)
(5.06274 -0.0242282 0)
(5.06762 -0.0254261 0)
(5.07274 -0.026671 0)
(5.07811 -0.027966 0)
(5.08373 -0.0293141 0)
(5.08963 -0.0307184 0)
(5.09581 -0.032182 0)
(5.10228 -0.0337081 0)
(5.10906 -0.0353 0)
(5.11615 -0.0369609 0)
(5.12358 -0.0386941 0)
(5.13136 -0.0405029 0)
(5.1395 -0.0423907 0)
(5.14802 -0.0443608 0)
(5.15694 -0.0464166 0)
(5.16627 -0.0485615 0)
(5.17604 -0.0507985 0)
(5.18625 -0.0531312 0)
(5.19694 -0.0555625 0)
(5.20812 -0.0580957 0)
(5.2198 -0.0607336 0)
(5.23203 -0.063479 0)
(5.24481 -0.0663346 0)
(5.25816 -0.0693027 0)
(5.27212 -0.0723852 0)
(5.28671 -0.0755839 0)
(5.30194 -0.0788999 0)
(5.31785 -0.0823339 0)
(5.33446 -0.0858858 0)
(5.3518 -0.0895549 0)
(5.36988 -0.0933395 0)
(5.38874 -0.0972369 0)
(5.4084 -0.101243 0)
(5.42889 -0.105353 0)
(5.45022 -0.10956 0)
(5.47241 -0.113855 0)
(5.4955 -0.118228 0)
(5.5195 -0.122666 0)
(5.54441 -0.127154 0)
(5.57026 -0.131675 0)
(5.59706 -0.13621 0)
(5.62481 -0.140735 0)
(5.65351 -0.145225 0)
(5.68315 -0.149653 0)
(5.71372 -0.153988 0)
(5.74521 -0.158197 0)
(5.77759 -0.162246 0)
(5.81083 -0.166098 0)
(5.84488 -0.169717 0)
(5.87969 -0.173064 0)
(5.91521 -0.176104 0)
(5.95136 -0.178802 0)
(5.98806 -0.181123 0)
(6.02525 -0.183039 0)
(6.06281 -0.184525 0)
(6.10065 -0.18556 0)
(6.13868 -0.186129 0)
(6.17679 -0.186224 0)
(6.21487 -0.185842 0)
(6.25281 -0.184986 0)
(6.29052 -0.183667 0)
(6.32789 -0.181899 0)
(6.36482 -0.179703 0)
(6.40123 -0.177104 0)
(6.43703 -0.17413 0)
(6.47215 -0.170813 0)
(6.50651 -0.167185 0)
(6.54005 -0.163281 0)
(6.57273 -0.159137 0)
(6.60449 -0.154789 0)
(6.6353 -0.15027 0)
(6.66514 -0.145615 0)
(6.69397 -0.140857 0)
(6.72179 -0.136026 0)
(6.74859 -0.131152 0)
(6.77437 -0.126261 0)
(6.79913 -0.121378 0)
(6.82287 -0.116526 0)
(6.84561 -0.111724 0)
(6.86736 -0.106991 0)
(6.88815 -0.102341 0)
(6.90799 -0.0977886 0)
(6.92692 -0.0933448 0)
(6.94495 -0.0890192 0)
(6.96211 -0.0848197 0)
(6.97844 -0.0807523 0)
(6.99395 -0.0768217 0)
(7.00869 -0.073031 0)
(7.02268 -0.0693824 0)
(7.03596 -0.0658767 0)
(7.04855 -0.0625136 0)
(7.06048 -0.059292 0)
(7.07178 -0.0562102 0)
(7.08249 -0.0532657 0)
(7.09263 -0.0504552 0)
(7.10222 -0.0477754 0)
(7.11129 -0.0452224 0)
(7.11988 -0.0427921 0)
(7.128 -0.0404801 0)
(7.13567 -0.0382822 0)
(7.14293 -0.036194 0)
(7.14978 -0.0342108 0)
(7.15626 -0.0323284 0)
(7.16237 -0.0305423 0)
(7.16815 -0.0288482 0)
(7.1736 -0.0272419 0)
(7.17875 -0.0257193 0)
(7.18361 -0.0242762 0)
(7.1882 -0.0229087 0)
(7.19252 -0.0216132 0)
(7.1966 -0.0203859 0)
(7.20045 -0.0192235 0)
(7.20407 -0.0181226 0)
(7.20749 -0.0170801 0)
(7.21071 -0.0160931 0)
(7.21374 -0.0151586 0)
(7.2166 -0.0142739 0)
(7.21929 -0.0134364 0)
(7.22182 -0.0126436 0)
(7.2242 -0.0118929 0)
(7.22644 -0.0111822 0)
(7.22854 -0.0105092 0)
(7.23052 -0.00987185 0)
(7.23237 -0.00926844 0)
(7.23411 -0.00869715 0)
(7.23575 -0.00815648 0)
(7.23728 -0.00764488 0)
(7.23871 -0.00716107 0)
(7.24005 -0.00670362 0)
(7.24131 -0.00627133 0)
(7.24249 -0.00586281 0)
(7.24358 -0.00547687 0)
(7.24461 -0.00511214 0)
(7.24557 -0.00476745 0)
(7.24646 -0.00444146 0)
(7.24729 -0.00413312 0)
(7.24806 -0.00384116 0)
(7.24878 -0.00356471 0)
(7.24944 -0.00330267 0)
(7.25005 -0.00305438 0)
(7.25062 -0.00281895 0)
(7.25114 -0.00259594 0)
(7.25162 -0.00238466 0)
(7.25206 -0.00218487 0)
(7.25247 -0.00199603 0)
(7.25283 -0.00181807 0)
(7.25316 -0.00165054 0)
(7.25346 -0.00149348 0)
(7.25373 -0.00134647 0)
(7.25397 -0.00120961 0)
(7.25419 -0.00108241 0)
(7.25438 -0.000964986 0)
(7.25455 -0.000856729 0)
(7.2547 -0.000757714 0)
(7.25483 -0.000667189 0)
(7.25495 -0.000585165 0)
(7.25505 -0.000510785 0)
(7.25514 -0.000443992 0)
(7.25521 -0.000383891 0)
(7.25528 -0.000330398 0)
(7.25534 -0.000282676 0)
(7.25539 -0.000240654 0)
(7.25543 -0.000203623 0)
(7.25546 -0.000171557 0)
(7.25549 -0.000143914 0)
(7.25552 -0.000120716 0)
(7.25554 -0.000101584 0)
(7.25555 -8.64864e-05 0)
(7.25557 -7.53953e-05 0)
(7.25557 -6.70521e-05 0)
(7.2556 -6.43695e-05 0)
(7.25558 -5.63989e-05 0)
(5.00002 -0.000512488 0)
(5.00015 -0.00153714 0)
(5.00043 -0.0025629 0)
(5.00086 -0.00359002 0)
(5.00144 -0.00461901 0)
(5.00217 -0.00565052 0)
(5.00304 -0.00668529 0)
(5.00405 -0.00772422 0)
(5.00521 -0.00876829 0)
(5.00652 -0.00981869 0)
(5.00797 -0.0108767 0)
(5.00958 -0.0119438 0)
(5.01133 -0.0130216 0)
(5.01323 -0.0141119 0)
(5.01528 -0.0152167 0)
(5.01749 -0.0163382 0)
(5.01986 -0.0174784 0)
(5.02238 -0.0186401 0)
(5.02506 -0.0198257 0)
(5.02791 -0.0210379 0)
(5.03093 -0.0222798 0)
(5.03411 -0.0235543 0)
(5.03748 -0.0248647 0)
(5.04103 -0.0262141 0)
(5.04476 -0.0276061 0)
(5.04869 -0.0290442 0)
(5.05282 -0.0305321 0)
(5.05715 -0.0320736 0)
(5.0617 -0.0336725 0)
(5.06648 -0.0353328 0)
(5.07148 -0.0370585 0)
(5.07673 -0.038854 0)
(5.08223 -0.0407234 0)
(5.08799 -0.0426711 0)
(5.09402 -0.0447015 0)
(5.10034 -0.0468191 0)
(5.10696 -0.0490285 0)
(5.11389 -0.0513343 0)
(5.12114 -0.0537411 0)
(5.12874 -0.0562537 0)
(5.13669 -0.0588769 0)
(5.14501 -0.0616153 0)
(5.15372 -0.0644738 0)
(5.16284 -0.0674572 0)
(5.17238 -0.0705701 0)
(5.18237 -0.0738174 0)
(5.19282 -0.0772034 0)
(5.20375 -0.0807329 0)
(5.21519 -0.0844101 0)
(5.22715 -0.0882393 0)
(5.23967 -0.0922242 0)
(5.25275 -0.0963686 0)
(5.26644 -0.100676 0)
(5.28075 -0.105148 0)
(5.29571 -0.109788 0)
(5.31134 -0.114597 0)
(5.32767 -0.119576 0)
(5.34473 -0.124724 0)
(5.36254 -0.13004 0)
(5.38114 -0.135521 0)
(5.40054 -0.141162 0)
(5.42079 -0.146957 0)
(5.4419 -0.152898 0)
(5.4639 -0.158973 0)
(5.48682 -0.165168 0)
(5.51067 -0.171468 0)
(5.53549 -0.177851 0)
(5.56129 -0.184295 0)
(5.58808 -0.190771 0)
(5.61588 -0.197249 0)
(5.6447 -0.203692 0)
(5.67453 -0.21006 0)
(5.70538 -0.21631 0)
(5.73722 -0.222394 0)
(5.77004 -0.22826 0)
(5.8038 -0.233855 0)
(5.83847 -0.239123 0)
(5.87399 -0.244008 0)
(5.9103 -0.248453 0)
(5.94734 -0.252405 0)
(5.98501 -0.255812 0)
(6.02322 -0.258629 0)
(6.06186 -0.260818 0)
(6.10084 -0.262345 0)
(6.14003 -0.263188 0)
(6.17931 -0.263335 0)
(6.21856 -0.26278 0)
(6.25766 -0.261531 0)
(6.29649 -0.259603 0)
(6.33494 -0.257021 0)
(6.37289 -0.253815 0)
(6.41026 -0.250025 0)
(6.44694 -0.245694 0)
(6.48286 -0.240869 0)
(6.51793 -0.235603 0)
(6.55211 -0.229947 0)
(6.58533 -0.223953 0)
(6.61755 -0.217675 0)
(6.64874 -0.211165 0)
(6.67887 -0.20447 0)
(6.70792 -0.19764 0)
(6.73588 -0.190717 0)
(6.76276 -0.183745 0)
(6.78855 -0.176761 0)
(6.81326 -0.1698 0)
(6.8369 -0.162894 0)
(6.8595 -0.15607 0)
(6.88107 -0.149354 0)
(6.90164 -0.142767 0)
(6.92124 -0.136327 0)
(6.93989 -0.13005 0)
(6.95763 -0.123949 0)
(6.97448 -0.118034 0)
(6.99049 -0.112312 0)
(7.00567 -0.106789 0)
(7.02007 -0.10147 0)
(7.03373 -0.0963551 0)
(7.04666 -0.0914462 0)
(7.05891 -0.0867419 0)
(7.0705 -0.0822402 0)
(7.08148 -0.0779378 0)
(7.09186 -0.0738306 0)
(7.10168 -0.069914 0)
(7.11097 -0.0661823 0)
(7.11975 -0.0626299 0)
(7.12805 -0.0592505 0)
(7.13589 -0.0560378 0)
(7.1433 -0.0529853 0)
(7.1503 -0.0500863 0)
(7.15691 -0.0473346 0)
(7.16315 -0.0447235 0)
(7.16904 -0.042247 0)
(7.17461 -0.0398989 0)
(7.17986 -0.0376733 0)
(7.18481 -0.0355643 0)
(7.18949 -0.0335665 0)
(7.1939 -0.0316742 0)
(7.19806 -0.0298823 0)
(7.20198 -0.0281855 0)
(7.20568 -0.026579 0)
(7.20916 -0.0250578 0)
(7.21244 -0.0236177 0)
(7.21554 -0.0222541 0)
(7.21845 -0.0209631 0)
(7.22119 -0.0197409 0)
(7.22377 -0.0185838 0)
(7.2262 -0.0174886 0)
(7.22848 -0.0164519 0)
(7.23063 -0.0154707 0)
(7.23265 -0.014542 0)
(7.23454 -0.013663 0)
(7.23632 -0.0128311 0)
(7.23799 -0.0120437 0)
(7.23955 -0.0112984 0)
(7.24101 -0.0105931 0)
(7.24239 -0.00992593 0)
(7.24367 -0.00929482 0)
(7.24487 -0.00869812 0)
(7.24599 -0.00813407 0)
(7.24703 -0.00760106 0)
(7.24801 -0.00709738 0)
(7.24892 -0.00662141 0)
(7.24977 -0.00617143 0)
(7.25056 -0.00574586 0)
(7.25129 -0.00534304 0)
(7.25197 -0.00496155 0)
(7.2526 -0.00459992 0)
(7.25319 -0.00425703 0)
(7.25372 -0.00393172 0)
(7.25422 -0.00362327 0)
(7.25467 -0.0033309 0)
(7.25508 -0.00305426 0)
(7.25546 -0.00279291 0)
(7.2558 -0.00254674 0)
(7.2561 -0.00231552 0)
(7.25638 -0.00209922 0)
(7.25662 -0.00189765 0)
(7.25684 -0.0017107 0)
(7.25703 -0.00153804 0)
(7.2572 -0.00137938 0)
(7.25735 -0.00123419 0)
(7.25748 -0.00110192 0)
(7.25759 -0.000981822 0)
(7.25769 -0.000873134 0)
(7.25777 -0.000774964 0)
(7.25784 -0.000686386 0)
(7.2579 -0.000606515 0)
(7.25796 -0.000534394 0)
(7.258 -0.000469301 0)
(7.25804 -0.000410367 0)
(7.25807 -0.000357167 0)
(7.25809 -0.000308997 0)
(7.25811 -0.000265773 0)
(7.25812 -0.000226974 0)
(7.25813 -0.000192847 0)
(7.25814 -0.000162924 0)
(7.25814 -0.000138209 0)
(7.25814 -0.000116729 0)
(7.25816 -0.000104773 0)
(7.25815 -8.45218e-05 0)
(5.00002 -0.000657136 0)
(5.00015 -0.00197097 0)
(5.00042 -0.00328597 0)
(5.00086 -0.00460234 0)
(5.00143 -0.00592059 0)
(5.00215 -0.00724143 0)
(5.00301 -0.00856571 0)
(5.00402 -0.00989446 0)
(5.00517 -0.0112289 0)
(5.00646 -0.0125705 0)
(5.0079 -0.0139208 0)
(5.00948 -0.0152817 0)
(5.0112 -0.0166552 0)
(5.01308 -0.0180438 0)
(5.0151 -0.0194499 0)
(5.01727 -0.0208763 0)
(5.01959 -0.0223259 0)
(5.02206 -0.023802 0)
(5.02469 -0.0253079 0)
(5.02747 -0.0268472 0)
(5.03042 -0.0284237 0)
(5.03353 -0.0300414 0)
(5.03681 -0.0317043 0)
(5.04027 -0.0334167 0)
(5.04391 -0.0351832 0)
(5.04773 -0.0370083 0)
(5.05174 -0.0388968 0)
(5.05595 -0.0408536 0)
(5.06037 -0.0428836 0)
(5.065 -0.0449922 0)
(5.06985 -0.0471844 0)
(5.07494 -0.0494659 0)
(5.08027 -0.051842 0)
(5.08585 -0.0543183 0)
(5.09169 -0.0569006 0)
(5.09781 -0.0595948 0)
(5.10422 -0.0624066 0)
(5.11092 -0.065342 0)
(5.11794 -0.0684072 0)
(5.1253 -0.0716082 0)
(5.13299 -0.0749513 0)
(5.14105 -0.0784425 0)
(5.14949 -0.0820881 0)
(5.15832 -0.0858945 0)
(5.16756 -0.0898678 0)
(5.17724 -0.0940143 0)
(5.18737 -0.0983401 0)
(5.19797 -0.102851 0)
(5.20907 -0.107554 0)
(5.22069 -0.112453 0)
(5.23285 -0.117556 0)
(5.24557 -0.122865 0)
(5.25889 -0.128388 0)
(5.27282 -0.134127 0)
(5.28739 -0.140087 0)
(5.30264 -0.14627 0)
(5.31858 -0.152678 0)
(5.33526 -0.159313 0)
(5.35269 -0.166173 0)
(5.37092 -0.173256 0)
(5.38996 -0.180559 0)
(5.40987 -0.188074 0)
(5.43065 -0.195792 0)
(5.45236 -0.203702 0)
(5.47502 -0.211788 0)
(5.49865 -0.220029 0)
(5.5233 -0.228402 0)
(5.54899 -0.236878 0)
(5.57574 -0.245422 0)
(5.60358 -0.253994 0)
(5.63252 -0.262548 0)
(5.66257 -0.271031 0)
(5.69374 -0.279384 0)
(5.72602 -0.287543 0)
(5.7594 -0.295437 0)
(5.79386 -0.302992 0)
(5.82936 -0.310128 0)
(5.86585 -0.316766 0)
(5.90326 -0.322824 0)
(5.94151 -0.328224 0)
(5.98052 -0.332892 0)
(6.02017 -0.33676 0)
(6.06034 -0.33977 0)
(6.10091 -0.341875 0)
(6.14173 -0.343043 0)
(6.18266 -0.343253 0)
(6.22356 -0.342502 0)
(6.26428 -0.3408 0)
(6.30469 -0.33817 0)
(6.34464 -0.334649 0)
(6.38402 -0.330284 0)
(6.42271 -0.325133 0)
(6.4606 -0.319258 0)
(6.49761 -0.31273 0)
(6.53366 -0.305619 0)
(6.56868 -0.298001 0)
(6.60263 -0.289949 0)
(6.63545 -0.281537 0)
(6.66712 -0.272835 0)
(6.69762 -0.263912 0)
(6.72693 -0.25483 0)
(6.75506 -0.24565 0)
(6.782 -0.236426 0)
(6.80778 -0.227209 0)
(6.8324 -0.218043 0)
(6.85588 -0.20897 0)
(6.87826 -0.200025 0)
(6.89956 -0.191239 0)
(6.91982 -0.182639 0)
(6.93906 -0.174249 0)
(6.95733 -0.166086 0)
(6.97465 -0.158167 0)
(6.99107 -0.150502 0)
(7.00663 -0.143102 0)
(7.02136 -0.135971 0)
(7.0353 -0.129114 0)
(7.04849 -0.122531 0)
(7.06096 -0.116222 0)
(7.07275 -0.110185 0)
(7.08389 -0.104415 0)
(7.09442 -0.0989068 0)
(7.10437 -0.0936548 0)
(7.11376 -0.0886515 0)
(7.12264 -0.0838893 0)
(7.13103 -0.0793599 0)
(7.13894 -0.0750548 0)
(7.14642 -0.0709651 0)
(7.15348 -0.067082 0)
(7.16014 -0.0633966 0)
(7.16643 -0.0599004 0)
(7.17236 -0.0565844 0)
(7.17796 -0.0534406 0)
(7.18325 -0.0504605 0)
(7.18823 -0.0476365 0)
(7.19293 -0.0449608 0)
(7.19736 -0.0424264 0)
(7.20154 -0.0400262 0)
(7.20549 -0.0377535 0)
(7.2092 -0.035602 0)
(7.2127 -0.0335654 0)
(7.216 -0.0316375 0)
(7.21911 -0.0298127 0)
(7.22203 -0.0280852 0)
(7.22479 -0.0264497 0)
(7.22738 -0.0249011 0)
(7.22982 -0.0234346 0)
(7.23212 -0.0220457 0)
(7.23427 -0.0207306 0)
(7.2363 -0.0194853 0)
(7.2382 -0.0183064 0)
(7.23998 -0.0171907 0)
(7.24166 -0.0161349 0)
(7.24323 -0.0151361 0)
(7.2447 -0.0141914 0)
(7.24608 -0.0132978 0)
(7.24737 -0.0124529 0)
(7.24857 -0.011654 0)
(7.24969 -0.0108988 0)
(7.25074 -0.010185 0)
(7.25172 -0.00951036 0)
(7.25264 -0.00887279 0)
(7.25349 -0.00827022 0)
(7.25428 -0.00770051 0)
(7.25502 -0.00716162 0)
(7.2557 -0.00665145 0)
(7.25634 -0.00616804 0)
(7.25692 -0.00570942 0)
(7.25747 -0.00527394 0)
(7.25796 -0.00485999 0)
(7.25842 -0.00446644 0)
(7.25884 -0.00409221 0)
(7.25922 -0.00373689 0)
(7.25956 -0.00339995 0)
(7.25986 -0.00308158 0)
(7.26014 -0.00278172 0)
(7.26038 -0.00250088 0)
(7.26059 -0.00223913 0)
(7.26077 -0.0019969 0)
(7.26093 -0.00177412 0)
(7.26107 -0.00157078 0)
(7.26118 -0.0013864 0)
(7.26128 -0.00122042 0)
(7.26137 -0.00107188 0)
(7.26144 -0.000939686 0)
(7.2615 -0.000822578 0)
(7.26155 -0.000719115 0)
(7.2616 -0.000627978 0)
(7.26163 -0.000547634 0)
(7.26166 -0.000476986 0)
(7.26169 -0.000414629 0)
(7.26171 -0.000359902 0)
(7.26172 -0.000311644 0)
(7.26174 -0.000269721 0)
(7.26174 -0.000233215 0)
(7.26175 -0.000202487 0)
(7.26174 -0.000176685 0)
(7.26173 -0.000156976 0)
(7.26172 -0.000140816 0)
(7.26173 -0.000134457 0)
(7.26168 -0.000122336 0)
(5.00002 -0.000800854 0)
(5.00015 -0.00240195 0)
(5.00042 -0.00400413 0)
(5.00085 -0.00560734 0)
(5.00142 -0.00721201 0)
(5.00214 -0.00881877 0)
(5.00299 -0.0104285 0)
(5.00398 -0.0120423 0)
(5.00512 -0.0136615 0)
(5.0064 -0.0152879 0)
(5.00782 -0.0169232 0)
(5.00937 -0.0185698 0)
(5.01107 -0.02023 0)
(5.01291 -0.0219069 0)
(5.01489 -0.0236034 0)
(5.01702 -0.0253228 0)
(5.01928 -0.027069 0)
(5.0217 -0.0288457 0)
(5.02426 -0.0306572 0)
(5.02697 -0.0325079 0)
(5.02983 -0.0344024 0)
(5.03285 -0.0363455 0)
(5.03603 -0.0383424 0)
(5.03937 -0.0403984 0)
(5.04288 -0.0425189 0)
(5.04657 -0.0447096 0)
(5.05044 -0.0469764 0)
(5.0545 -0.0493252 0)
(5.05875 -0.0517624 0)
(5.0632 -0.0542943 0)
(5.06787 -0.0569274 0)
(5.07275 -0.0596684 0)
(5.07787 -0.0625241 0)
(5.08322 -0.0655015 0)
(5.08883 -0.0686077 0)
(5.09469 -0.0718498 0)
(5.10083 -0.0752351 0)
(5.10726 -0.0787712 0)
(5.114 -0.0824655 0)
(5.12104 -0.0863257 0)
(5.12842 -0.0903594 0)
(5.13615 -0.0945743 0)
(5.14424 -0.0989784 0)
(5.15271 -0.103579 0)
(5.16158 -0.108385 0)
(5.17087 -0.113404 0)
(5.1806 -0.118643 0)
(5.19079 -0.124111 0)
(5.20147 -0.129815 0)
(5.21264 -0.135762 0)
(5.22435 -0.141961 0)
(5.23661 -0.148418 0)
(5.24945 -0.15514 0)
(5.2629 -0.162133 0)
(5.27699 -0.169404 0)
(5.29174 -0.176956 0)
(5.30718 -0.184794 0)
(5.32336 -0.192922 0)
(5.34029 -0.201339 0)
(5.35802 -0.210047 0)
(5.37659 -0.219042 0)
(5.39602 -0.22832 0)
(5.41636 -0.237872 0)
(5.43765 -0.247686 0)
(5.45993 -0.257748 0)
(5.48324 -0.268034 0)
(5.50761 -0.278521 0)
(5.53309 -0.289173 0)
(5.55972 -0.299952 0)
(5.58753 -0.31081 0)
(5.61656 -0.321689 0)
(5.64682 -0.332525 0)
(5.67835 -0.343243 0)
(5.71114 -0.35376 0)
(5.7452 -0.363981 0)
(5.78051 -0.373807 0)
(5.81705 -0.38313 0)
(5.85476 -0.391838 0)
(5.89359 -0.399816 0)
(5.93344 -0.406954 0)
(5.97422 -0.413142 0)
(6.01578 -0.418284 0)
(6.05799 -0.422294 0)
(6.10069 -0.425104 0)
(6.14371 -0.426667 0)
(6.18686 -0.426957 0)
(6.22997 -0.425969 0)
(6.27287 -0.42372 0)
(6.31537 -0.420248 0)
(6.35732 -0.415606 0)
(6.39858 -0.409866 0)
(6.439 -0.403109 0)
(6.47847 -0.395426 0)
(6.5169 -0.386914 0)
(6.55419 -0.377674 0)
(6.59029 -0.367807 0)
(6.62514 -0.357413 0)
(6.6587 -0.346591 0)
(6.69096 -0.335434 0)
(6.72189 -0.32403 0)
(6.7515 -0.312462 0)
(6.7798 -0.300806 0)
(6.80679 -0.289131 0)
(6.83252 -0.277501 0)
(6.85699 -0.265969 0)
(6.88024 -0.254586 0)
(6.90231 -0.243395 0)
(6.92324 -0.232432 0)
(6.94307 -0.221728 0)
(6.96183 -0.211311 0)
(6.97959 -0.2012 0)
(6.99637 -0.191413 0)
(7.01222 -0.181962 0)
(7.0272 -0.172857 0)
(7.04133 -0.164101 0)
(7.05468 -0.155698 0)
(7.06726 -0.147647 0)
(7.07914 -0.139946 0)
(7.09034 -0.132589 0)
(7.1009 -0.12557 0)
(7.11086 -0.118881 0)
(7.12026 -0.112511 0)
(7.12912 -0.106452 0)
(7.13748 -0.100693 0)
(7.14536 -0.0952205 0)
(7.15279 -0.0900248 0)
(7.15981 -0.0850937 0)
(7.16642 -0.0804157 0)
(7.17266 -0.0759795 0)
(7.17854 -0.0717741 0)
(7.18409 -0.0677885 0)
(7.18932 -0.0640123 0)
(7.19425 -0.0604352 0)
(7.1989 -0.0570474 0)
(7.20328 -0.0538393 0)
(7.20741 -0.0508019 0)
(7.2113 -0.0479262 0)
(7.21496 -0.045204 0)
(7.21842 -0.0426274 0)
(7.22167 -0.0401889 0)
(7.22473 -0.0378812 0)
(7.22761 -0.0356976 0)
(7.23033 -0.0336313 0)
(7.23288 -0.0316759 0)
(7.23529 -0.0298251 0)
(7.23755 -0.028073 0)
(7.23967 -0.0264138 0)
(7.24166 -0.0248422 0)
(7.24354 -0.0233533 0)
(7.24529 -0.0219429 0)
(7.24694 -0.020607 0)
(7.24848 -0.0193421 0)
(7.24992 -0.0181451 0)
(7.25127 -0.0170129 0)
(7.25253 -0.0159427 0)
(7.25371 -0.0149316 0)
(7.25481 -0.0139767 0)
(7.25583 -0.0130752 0)
(7.25679 -0.0122242 0)
(7.25768 -0.0114209 0)
(7.2585 -0.0106625 0)
(7.25927 -0.00994624 0)
(7.25999 -0.00926931 0)
(7.26065 -0.00862918 0)
(7.26127 -0.00802308 0)
(7.26184 -0.00744856 0)
(7.26237 -0.00690315 0)
(7.26286 -0.0063846 0)
(7.26331 -0.00589095 0)
(7.26372 -0.00542047 0)
(7.26409 -0.0049719 0)
(7.26442 -0.00454435 0)
(7.26472 -0.00413733 0)
(7.26498 -0.00375093 0)
(7.2652 -0.00338533 0)
(7.2654 -0.00304133 0)
(7.26556 -0.00271945 0)
(7.26569 -0.00242069 0)
(7.2658 -0.00214534 0)
(7.26589 -0.00189396 0)
(7.26596 -0.00166615 0)
(7.26601 -0.0014615 0)
(7.26605 -0.00127876 0)
(7.26607 -0.00111644 0)
(7.26609 -0.000972657 0)
(7.26611 -0.000845192 0)
(7.26612 -0.000732034 0)
(7.26612 -0.000630816 0)
(7.26612 -0.000539951 0)
(7.26612 -0.000457449 0)
(7.26612 -0.000382511 0)
(7.26611 -0.000313831 0)
(7.2661 -0.000251485 0)
(7.26609 -0.000194896 0)
(7.26607 -0.000144979 0)
(7.26605 -0.000101493 0)
(7.26602 -6.67165e-05 0)
(7.26599 -3.76618e-05 0)
(7.26599 -2.42246e-05 0)
(7.26593 2.42948e-06 0)
(5.00002 -0.000943936 0)
(5.00014 -0.00283095 0)
(5.00042 -0.00471868 0)
(5.00085 -0.00660667 0)
(5.00142 -0.00849502 0)
(5.00213 -0.0103842 0)
(5.00298 -0.012275 0)
(5.00396 -0.0141684 0)
(5.00509 -0.0160659 0)
(5.00635 -0.0179694 0)
(5.00775 -0.019881 0)
(5.00928 -0.0218033 0)
(5.01095 -0.0237393 0)
(5.01275 -0.0256925 0)
(5.01469 -0.0276664 0)
(5.01676 -0.0296653 0)
(5.01897 -0.0316935 0)
(5.02132 -0.0337558 0)
(5.0238 -0.0358573 0)
(5.02642 -0.0380032 0)
(5.02919 -0.0401991 0)
(5.0321 -0.0424511 0)
(5.03516 -0.044765 0)
(5.03838 -0.0471474 0)
(5.04175 -0.0496046 0)
(5.04528 -0.0521436 0)
(5.04898 -0.0547713 0)
(5.05286 -0.0574949 0)
(5.05692 -0.0603216 0)
(5.06116 -0.0632591 0)
(5.0656 -0.066315 0)
(5.07025 -0.0694973 0)
(5.07511 -0.072814 0)
(5.0802 -0.0762733 0)
(5.08552 -0.0798836 0)
(5.09109 -0.0836535 0)
(5.09692 -0.0875916 0)
(5.10301 -0.0917067 0)
(5.1094 -0.0960078 0)
(5.11608 -0.100504 0)
(5.12308 -0.105204 0)
(5.1304 -0.110118 0)
(5.13808 -0.115255 0)
(5.14612 -0.120625 0)
(5.15454 -0.126236 0)
(5.16336 -0.132099 0)
(5.17261 -0.138223 0)
(5.1823 -0.144619 0)
(5.19245 -0.151295 0)
(5.20309 -0.158262 0)
(5.21425 -0.165529 0)
(5.22594 -0.173105 0)
(5.2382 -0.181 0)
(5.25105 -0.189223 0)
(5.26453 -0.197782 0)
(5.27866 -0.206685 0)
(5.29348 -0.21594 0)
(5.30902 -0.225551 0)
(5.32531 -0.235525 0)
(5.34241 -0.245864 0)
(5.36034 -0.256569 0)
(5.37915 -0.267639 0)
(5.39889 -0.279069 0)
(5.41961 -0.29085 0)
(5.44135 -0.302969 0)
(5.46416 -0.315405 0)
(5.48811 -0.328135 0)
(5.51325 -0.341123 0)
(5.53962 -0.354327 0)
(5.56729 -0.367693 0)
(5.59631 -0.381158 0)
(5.62672 -0.394642 0)
(5.65857 -0.408056 0)
(5.69189 -0.421294 0)
(5.72669 -0.434237 0)
(5.76299 -0.446752 0)
(5.80077 -0.458694 0)