/*--------------------------------*- C++ -*----------------------------------*\
  =========                 |
  \\      /  F ield         | OpenFOAM: The Open Source CFD Toolbox
   \\    /   O peration     | Website:  https://openfoam.org
    \\  /    A nd           | Version:  10
     \\/     M anipulation  |
\*---------------------------------------------------------------------------*/
FoamFile
{
    format      ascii;
    class       volVectorField;
    location    "31";
    object      Ub;
}
// * * * * * * * * * * * * * * * * * * * * * * * * * * * * * * * * * * * * * //

dimensions      [0 1 -1 0 0 0 0];

internalField   nonuniform List<vector> 
100
(
(4.9591e-07 0 0)
(1.49781e-06 0 0)
(2.516e-06 0 0)
(3.5435e-06 0 0)
(4.57596e-06 0 0)
(5.61159e-06 0 0)
(6.64959e-06 0 0)
(7.68959e-06 0 0)
(8.73145e-06 0 0)
(9.77515e-06 0 0)
(1.08207e-05 0 0)
(1.18683e-05 0 0)
(1.2918e-05 0 0)
(1.397e-05 0 0)
(1.50244e-05 0 0)
(1.60814e-05 0 0)
(1.71411e-05 0 0)
(1.82038e-05 0 0)
(1.92697e-05 0 0)
(2.03388e-05 0 0)
(2.14116e-05 0 0)
(2.24881e-05 0 0)
(2.35686e-05 0 0)
(2.46533e-05 0 0)
(2.57425e-05 0 0)
(2.68366e-05 0 0)
(2.79356e-05 0 0)
(2.90401e-05 0 0)
(3.01503e-05 0 0)
(3.12667e-05 0 0)
(3.23895e-05 0 0)
(3.35194e-05 0 0)
(3.46567e-05 0 0)
(3.58022e-05 0 0)
(3.69563e-05 0 0)
(3.812e-05 0 0)
(3.92939e-05 0 0)
(4.04792e-05 0 0)
(4.16769e-05 0 0)
(4.28884e-05 0 0)
(4.41154e-05 0 0)
(4.53597e-05 0 0)
(4.66237e-05 0 0)
(4.79103e-05 0 0)
(4.9223e-05 0 0)
(5.05664e-05 0 0)
(5.1946e-05 0 0)
(5.33691e-05 0 0)
(5.48455e-05 0 0)
(5.63878e-05 0 0)
(5.80137e-05 0 0)
(5.97485e-05 0 0)
(6.16292e-05 0 0)
(6.37135e-05 0 0)
(6.60959e-05 0 0)
(6.89425e-05 0 0)
(7.25699e-05 0 0)
(7.7666e-05 0 0)
(8.60643e-05 0 0)
(0.000105166 0 0)
(0.000203558 0 0)
(0.00034566 0 0)
(0.000403108 0 0)
(0.000403108 0 0)
(0.000403108 0 0)
(0.000403108 0 0)
(0.000403108 0 0)
(0.000403108 0 0)
(0.000403108 0 0)
(0.000403108 0 0)
(0.000403108 0 0)
(0.000403108 0 0)
(0.000403108 0 0)
(0.000403108 0 0)
(0.000403108 0 0)
(0.000403108 0 0)
(0.000403108 0 0)
(0.000403108 0 0)
(0.000403108 0 0)
(0.000403108 0 0)
(0.000403108 0 0)
(0.000403108 0 0)
(0.000403108 0 0)
(0.000403108 0 0)
(0.000403108 0 0)
(0.000403108 0 0)
(0.000403108 0 0)
(0.000403108 0 0)
(0.000403108 0 0)
(0.000403108 0 0)
(0.000403108 0 0)
(0.000403108 0 0)
(0.000403108 0 0)
(0.000403108 0 0)
(0.000403108 0 0)
(0.000403108 0 0)
(0.000403108 0 0)
(0.000403108 0 0)
(0.000403108 0 0)
(0.000403108 0 0)
)
;

boundaryField
{
    inlet
    {
        type            fixedValue;
        value           uniform (0 0 0);
    }
    outlet
    {
        type            zeroGradient;
    }
    yzfaces
    {
        type            empty;
    }
}


// ************************************************************************* //
