/*--------------------------------*- C++ -*----------------------------------*\
| =========                 |                                                 |
| \\      /  F ield         | foam-extend: Open Source CFD                    |
|  \\    /   O peration     | Version:     5.0                                |
|   \\  /    A nd           | Web:         http://www.foam-extend.org         |
|    \\/     M anipulation  |                                                 |
\*---------------------------------------------------------------------------*/
FoamFile
{
    version     2.0;
    format      ascii;
    class       volVectorField;
    location    "6";
    object      U.gas;
}
// * * * * * * * * * * * * * * * * * * * * * * * * * * * * * * * * * * * * * //

dimensions      [0 1 -1 0 0 0 0];

internalField   nonuniform List<vector> 
100
(
(0.011544 0 0)
(0.0117413 0 0)
(0.0119673 0 0)
(0.012131 0 0)
(0.012326 0 0)
(0.0125225 0 0)
(0.0126902 0 0)
(0.0128906 0 0)
(0.0130612 0 0)
(0.0132329 0 0)
(0.013402 0 0)
(0.0135418 0 0)
(0.0137132 0 0)
(0.0138768 0 0)
(0.0140419 0 0)
(0.014249 0 0)
(0.0144578 0 0)
(0.0146207 0 0)
(0.0148049 0 0)
(0.0149581 0 0)
(0.0151065 0 0)
(0.0152569 0 0)
(0.0153824 0 0)
(0.0155404 0 0)
(0.0156871 0 0)
(0.015828 0 0)
(0.015937 0 0)
(0.0161303 0 0)
(0.0163005 0 0)
(0.0164411 0 0)
(0.0165661 0 0)
(0.0166547 0 0)
(0.0167661 0 0)
(0.0169005 0 0)
(0.0170021 0 0)
(0.0170911 0 0)
(0.0171946 0 0)
(0.0172971 0 0)
(0.0174281 0 0)
(0.0175208 0 0)
(0.0176178 0 0)
(0.0177443 0 0)
(0.0178321 0 0)
(0.0179397 0 0)
(0.0180429 0 0)
(0.0181262 0 0)
(0.0181954 0 0)
(0.018254 0 0)
(0.0183461 0 0)
(0.0184489 0 0)
(0.0185543 0 0)
(0.0186696 0 0)
(0.0187784 0 0)
(0.0188639 0 0)
(0.0189609 0 0)
(0.0190497 0 0)
(0.0191512 0 0)
(0.0192341 0 0)
(0.0193048 0 0)
(0.0193815 0 0)
(0.0194553 0 0)
(0.0195137 0 0)
(0.0195964 0 0)
(0.0196903 0 0)
(0.0197604 0 0)
(0.0198393 0 0)
(0.0198986 0 0)
(0.0199587 0 0)
(0.0200236 0 0)
(0.0200757 0 0)
(0.0201436 0 0)
(0.0201855 0 0)
(0.0202376 0 0)
(0.0202941 0 0)
(0.0203575 0 0)
(0.0204092 0 0)
(0.0204526 0 0)
(0.0205007 0 0)
(0.0205475 0 0)
(0.0206044 0 0)
(0.0206546 0 0)
(0.0207126 0 0)
(0.0207665 0 0)
(0.020822 0 0)
(0.0208503 0 0)
(0.0208664 0 0)
(0.0208947 0 0)
(0.0209181 0 0)
(0.0209505 0 0)
(0.0209955 0 0)
(0.0210429 0 0)
(0.0210889 0 0)
(0.0211214 0 0)
(0.0211616 0 0)
(0.0211931 0 0)
(0.0212305 0 0)
(0.021252 0 0)
(0.0213015 0 0)
(0.0213083 0 0)
(0.0212686 0 0)
)
;

boundaryField
{
    inlet
    {
        type            fixedValue;
        value           uniform (0.005 0 0);
    }
    outlet
    {
        type            zeroGradient;
    }
    yzfaces
    {
        type            empty;
    }
}


// ************************************************************************* //
