/*--------------------------------*- C++ -*----------------------------------*\
  =========                 |
  \\      /  F ield         | OpenFOAM: The Open Source CFD Toolbox
   \\    /   O peration     | Website:  https://openfoam.org
    \\  /    A nd           | Version:  10
     \\/     M anipulation  |
\*---------------------------------------------------------------------------*/
FoamFile
{
    format      ascii;
    class       surfaceScalarField;
    location    "22400";
    object      phi;
}
// * * * * * * * * * * * * * * * * * * * * * * * * * * * * * * * * * * * * * //

dimensions      [0 3 -1 0 0 0 0];

internalField   nonuniform List<scalar> 
12640
(
-8.00464e-07
8.00464e-07
-3.09175e-06
2.29128e-06
-3.12337e-06
3.16204e-08
-2.90387e-06
-2.19496e-07
-3.14535e-06
2.41479e-07
-3.1088e-06
-3.65444e-08
-3.10068e-06
-8.12644e-09
-3.0557e-06
-4.49772e-08
-3.01664e-06
-3.90582e-08
-2.8801e-06
-1.36547e-07
-2.84175e-06
-3.83417e-08
-2.87387e-06
3.21118e-08
-2.8588e-06
-1.50611e-08
-2.84191e-06
-1.6892e-08
-2.83338e-06
-8.53098e-09
-2.81024e-06
-2.31425e-08
-2.785e-06
-2.52362e-08
-2.7486e-06
-3.64067e-08
-2.67896e-06
-6.96385e-08
-2.63171e-06
-4.72515e-08
-2.59958e-06
-3.21309e-08
-2.56297e-06
-3.66017e-08
-2.51136e-06
-5.16106e-08
-2.46989e-06
-4.14719e-08
-2.43303e-06
-3.68588e-08
-2.3827e-06
-5.03332e-08
-2.30713e-06
-7.55712e-08
-2.24091e-06
-6.62191e-08
-2.18451e-06
-5.64013e-08
-2.11497e-06
-6.95406e-08
-1.99756e-06
-1.17402e-07
-1.79842e-06
-1.99144e-07
-1.6807e-06
-1.17723e-07
-1.54089e-06
-1.39803e-07
-1.37306e-06
-1.67834e-07
-1.17069e-06
-2.02372e-07
-9.28974e-07
-2.41715e-07
-6.47628e-07
-2.81346e-07
-3.33285e-07
-3.14343e-07
4.53731e-17
-3.33285e-07
3.33285e-07
-3.33285e-07
6.47628e-07
-3.14343e-07
9.28974e-07
-2.81346e-07
1.17069e-06
-2.41715e-07
1.37306e-06
-2.02372e-07
1.54089e-06
-1.67834e-07
1.6807e-06
-1.39803e-07
1.79842e-06
-1.17723e-07
1.99756e-06
-1.99144e-07
2.11497e-06
-1.17402e-07
2.18451e-06
-6.95406e-08
2.24091e-06
-5.64013e-08
2.30713e-06
-6.62191e-08
2.3827e-06
-7.55712e-08
2.43303e-06
-5.03332e-08
2.46989e-06
-3.68588e-08
2.51136e-06
-4.14719e-08
2.56297e-06
-5.16106e-08
2.59958e-06
-3.66017e-08
2.63171e-06
-3.21309e-08
2.67896e-06
-4.72515e-08
2.7486e-06
-6.96385e-08
2.785e-06
-3.64067e-08
2.81024e-06
-2.52362e-08
2.83338e-06
-2.31425e-08
2.84191e-06
-8.53098e-09
2.8588e-06
-1.6892e-08
2.87387e-06
-1.50611e-08
2.84175e-06
3.21118e-08
2.8801e-06
-3.83417e-08
3.01664e-06
-1.36547e-07
3.0557e-06
-3.90582e-08
3.10068e-06
-4.49772e-08
3.1088e-06
-8.12644e-09
3.14535e-06
-3.65444e-08
2.90387e-06
2.41479e-07
3.12337e-06
-2.19496e-07
3.09175e-06
3.16204e-08
8.00464e-07
2.29128e-06
8.00464e-07
-2.13473e-07
1.01394e-06
-9.48752e-08
2.17268e-06
-2.49023e-06
2.42698e-06
-2.93416e-06
2.24426e-07
-3.30477e-06
6.1209e-07
-3.28332e-06
-5.79928e-08
-3.29367e-06
2.22671e-09
-3.2535e-06
-8.51534e-08
-3.22334e-06
-6.9214e-08
-3.0729e-06
-2.86989e-07
-3.03682e-06
-7.44194e-08
-3.07959e-06
7.48783e-08
-3.06372e-06
-3.09257e-08
-3.04716e-06
-3.34564e-08
-3.04085e-06
-1.48407e-08
-3.01694e-06
-4.70519e-08
-2.99161e-06
-5.0568e-08
-2.95472e-06
-7.32959e-08
-2.87827e-06
-1.4609e-07
-2.82872e-06
-9.67935e-08
-2.79591e-06
-6.49435e-08
-2.75776e-06
-7.47489e-08
-2.70168e-06
-1.07691e-07
-2.65789e-06
-8.52648e-08
-2.61959e-06
-7.51589e-08
-2.56642e-06
-1.03503e-07
-2.48381e-06
-1.58179e-07
-2.41284e-06
-1.37196e-07
-2.3535e-06
-1.15742e-07
-2.28051e-06
-1.42526e-07
-2.15586e-06
-2.42049e-07
-1.94191e-06
-4.13099e-07
-1.8161e-06
-2.43528e-07
-1.66693e-06
-2.88972e-07
-1.48768e-06
-3.47088e-07
-1.27079e-06
-4.19262e-07
-1.01042e-06
-5.02084e-07
-7.05695e-07
-5.86073e-07
-3.63637e-07
-6.564e-07
4.04136e-17
-6.96923e-07
3.63637e-07
-6.96923e-07
7.05695e-07
-6.564e-07
1.01042e-06
-5.86073e-07
1.27079e-06
-5.02084e-07
1.48768e-06
-4.19262e-07
1.66693e-06
-3.47088e-07
1.8161e-06
-2.88972e-07
1.94191e-06
-2.43528e-07
2.15586e-06
-4.13099e-07
2.28051e-06
-2.42049e-07
2.3535e-06
-1.42526e-07
2.41284e-06
-1.15742e-07
2.48381e-06
-1.37196e-07
2.56642e-06
-1.58179e-07
2.61959e-06
-1.03503e-07
2.65789e-06
-7.51589e-08
2.70168e-06
-8.52648e-08
2.75776e-06
-1.07691e-07
2.79591e-06
-7.47489e-08
2.82872e-06
-6.49435e-08
2.87827e-06
-9.67935e-08
2.95472e-06
-1.4609e-07
2.99161e-06
-7.32959e-08
3.01694e-06
-5.0568e-08
3.04085e-06
-4.70519e-08
3.04716e-06
-1.48407e-08
3.06372e-06
-3.34564e-08
3.07959e-06
-3.09257e-08
3.03682e-06
7.48783e-08
3.0729e-06
-7.44194e-08
3.22334e-06
-2.86989e-07
3.2535e-06
-6.9214e-08
3.29367e-06
-8.51534e-08
3.28332e-06
2.22671e-09
3.30477e-06
-5.79928e-08
2.93416e-06
6.1209e-07
2.49023e-06
2.24426e-07
9.48752e-08
2.42698e-06
2.13473e-07
2.17268e-06
1.01394e-06
-1.67909e-07
1.18185e-06
-9.57218e-09
2.01435e-06
2.5778e-07
2.15963e-06
-2.40498e-07
7.22704e-07
-3.12752e-06
3.49911e-06
-3.3697e-06
1.84193e-07
-3.48131e-06
1.13832e-07
-3.46462e-06
-1.01843e-07
-3.46136e-06
-7.24768e-08
-3.28432e-06
-4.64028e-07
-3.25502e-06
-1.03712e-07
-3.31947e-06
1.39325e-07
-3.29953e-06
-5.08625e-08
-3.28281e-06
-5.01793e-08
-3.2808e-06
-1.68514e-08
-3.25493e-06
-7.29262e-08
-3.23e-06
-7.54913e-08
-3.19416e-06
-1.09139e-07
-3.10558e-06
-2.34669e-07
-3.0539e-06
-1.4847e-07
-3.02157e-06
-9.72794e-08
-2.98231e-06
-1.14007e-07
-2.9191e-06
-1.70905e-07
-2.87296e-06
-1.31402e-07
-2.83419e-06
-1.1393e-07
-2.77858e-06
-1.59107e-07
-2.68526e-06
-2.51507e-07
-2.60876e-06
-2.13695e-07
-2.54758e-06
-1.76919e-07
-2.47299e-06
-2.17112e-07
-2.34238e-06
-3.72665e-07
-2.11186e-06
-6.43615e-07
-1.97823e-06
-3.77156e-07
-1.82049e-06
-4.46716e-07
-1.63058e-06
-5.36999e-07
-1.39895e-06
-6.50887e-07
-1.11755e-06
-7.83488e-07
-7.83871e-07
-9.19748e-07
-4.05152e-07
-1.03512e-06
5.16827e-17
-1.10207e-06
4.05152e-07
-1.10207e-06
7.83871e-07
-1.03512e-06
1.11755e-06
-9.19748e-07
1.39895e-06
-7.83488e-07
1.63058e-06
-6.50887e-07
1.82049e-06
-5.36999e-07
1.97823e-06
-4.46716e-07
2.11186e-06
-3.77156e-07
2.34238e-06
-6.43615e-07
2.47299e-06
-3.72665e-07
2.54758e-06
-2.17112e-07
2.60876e-06
-1.76919e-07
2.68526e-06
-2.13695e-07
2.77858e-06
-2.51507e-07
2.83419e-06
-1.59107e-07
2.87296e-06
-1.1393e-07
2.9191e-06
-1.31402e-07
2.98231e-06
-1.70905e-07
3.02157e-06
-1.14007e-07
3.0539e-06
-9.72794e-08
3.10558e-06
-1.4847e-07
3.19416e-06
-2.34669e-07
3.23e-06
-1.09139e-07
3.25493e-06
-7.54913e-08
3.2808e-06
-7.29262e-08
3.28281e-06
-1.68514e-08
3.29953e-06
-5.01793e-08
3.31947e-06
-5.08625e-08
3.25502e-06
1.39325e-07
3.28432e-06
-1.03712e-07
3.46136e-06
-4.64028e-07
3.46462e-06
-7.24768e-08
3.48131e-06
-1.01843e-07
3.3697e-06
1.13832e-07
3.12752e-06
1.84193e-07
2.40498e-07
3.49911e-06
-2.5778e-07
7.22704e-07
9.57218e-09
2.15963e-06
1.67909e-07
2.01435e-06
1.18185e-06
-1.26921e-07
1.30877e-06
-5.08999e-10
1.88793e-06
1.83934e-07
1.97518e-06
-2.36786e-07
1.14342e-06
4.49607e-07
2.81272e-06
-2.31848e-07
8.65648e-07
-3.18647e-06
3.06845e-06
-3.52083e-06
2.32518e-07
-3.6755e-06
8.21933e-08
-3.47865e-06
-6.60882e-07
-3.47513e-06
-1.07224e-07
-3.58439e-06
2.48581e-07
-3.55639e-06
-7.88608e-08
-3.54043e-06
-6.61386e-08
-3.54748e-06
-9.79966e-09
-3.51812e-06
-1.02287e-07
-3.49509e-06
-9.85214e-08
-3.46406e-06
-1.40174e-07
-3.35479e-06
-3.43939e-07
-3.30223e-06
-2.01026e-07
-3.27271e-06
-1.26801e-07
-3.23365e-06
-1.53066e-07
-3.15915e-06
-2.45409e-07
-3.1112e-06
-1.79348e-07
-3.07395e-06
-1.5118e-07
-3.01733e-06
-2.15725e-07
-2.90757e-06
-3.61271e-07
-2.82502e-06
-2.96244e-07
-2.76425e-06
-2.3769e-07
-2.69152e-06
-2.89837e-07
-2.55799e-06
-5.06203e-07
-2.30901e-06
-8.92588e-07
-2.16884e-06
-5.17328e-07
-2.00501e-06
-6.10547e-07
-1.8073e-06
-7.34711e-07
-1.56266e-06
-8.95524e-07
-1.25884e-06
-1.08731e-06
-8.89849e-07
-1.28874e-06
-4.62461e-07
-1.46251e-06
4.16262e-17
-1.56453e-06
4.62461e-07
-1.56453e-06
8.89849e-07
-1.46251e-06
1.25884e-06
-1.28874e-06
1.56266e-06
-1.08731e-06
1.8073e-06
-8.95524e-07
2.00501e-06
-7.34711e-07
2.16884e-06
-6.10547e-07
2.30901e-06
-5.17328e-07
2.55799e-06
-8.92588e-07
2.69152e-06
-5.06203e-07
2.76425e-06
-2.89837e-07
2.82502e-06
-2.3769e-07
2.90757e-06
-2.96244e-07
3.01733e-06
-3.61271e-07
3.07395e-06
-2.15725e-07
3.1112e-06
-1.5118e-07
3.15915e-06
-1.79348e-07
3.23365e-06
-2.45409e-07
3.27271e-06
-1.53066e-07
3.30223e-06
-1.26801e-07
3.35479e-06
-2.01026e-07
3.46406e-06
-3.43939e-07
3.49509e-06
-1.40174e-07
3.51812e-06
-9.85214e-08
3.54748e-06
-1.02287e-07
3.54043e-06
-9.79966e-09
3.55639e-06
-6.61386e-08
3.58439e-06
-7.88608e-08
3.47513e-06
2.48581e-07
3.47865e-06
-1.07224e-07
3.6755e-06
-6.60882e-07
3.52083e-06
8.21933e-08
3.18647e-06
2.32518e-07
2.31848e-07
3.06845e-06
-4.49607e-07
8.65648e-07
2.36786e-07
2.81272e-06
-1.83934e-07
1.14342e-06
5.08999e-10
1.97518e-06
1.26921e-07
1.88793e-06
1.30877e-06
-9.12986e-08
1.40007e-06
6.65931e-09
1.78998e-06
1.32937e-07
1.84891e-06
-1.2162e-07
1.39798e-06
3.3207e-07
2.35903e-06
-7.24371e-08
1.27016e-06
5.28066e-07
2.46795e-06
-1.0498e-07
8.65563e-07
-2.2357e-06
2.21292e-06
-3.36648e-06
4.69893e-07
-3.59123e-06
1.17523e-07
-3.83849e-06
4.9585e-07
-3.81162e-06
-1.05736e-07
-3.80655e-06
-7.12114e-08
-3.83553e-06
1.91847e-08
-3.80152e-06
-1.36299e-07
-3.78419e-06
-1.15846e-07
-3.76669e-06
-1.57682e-07
-3.62157e-06
-4.89051e-07
-3.57181e-06
-2.50793e-07
-3.54927e-06
-1.49334e-07
-3.5133e-06
-1.89039e-07
-3.42015e-06
-3.38563e-07
-3.37191e-06
-2.27587e-07
-3.33969e-06
-1.83395e-07
-3.28541e-06
-2.70013e-07
-3.14925e-06
-4.97423e-07
-3.06054e-06
-3.84962e-07
-3.00401e-06
-2.94217e-07
-2.93886e-06
-3.54981e-07
-2.80811e-06
-6.36959e-07
-2.53703e-06
-1.16367e-06
-2.39284e-06
-6.61517e-07
-2.22794e-06
-7.75446e-07
-2.02865e-06
-9.34003e-07
-1.77606e-06
-1.14811e-06
-1.45035e-06
-1.41302e-06
-1.03833e-06
-1.70076e-06
-5.44512e-07
-1.95632e-06
7.46567e-18
-2.10905e-06
5.44512e-07
-2.10905e-06
1.03833e-06
-1.95632e-06
1.45035e-06
-1.70076e-06
1.77606e-06
-1.41302e-06
2.02865e-06
-1.14811e-06
2.22794e-06
-9.34003e-07
2.39284e-06
-7.75446e-07
2.53703e-06
-6.61517e-07
2.80811e-06
-1.16367e-06
2.93886e-06
-6.36959e-07
3.00401e-06
-3.54981e-07
3.06054e-06
-2.94217e-07
3.14925e-06
-3.84962e-07
3.28541e-06
-4.97423e-07
3.33969e-06
-2.70013e-07
3.37191e-06
-1.83395e-07
3.42015e-06
-2.27587e-07
3.5133e-06
-3.38563e-07
3.54927e-06
-1.89039e-07
3.57181e-06
-1.49334e-07
3.62157e-06
-2.50793e-07
3.76669e-06
-4.89051e-07
3.78419e-06
-1.57682e-07
3.80152e-06
-1.15846e-07
3.83553e-06
-1.36299e-07
3.80655e-06
1.91847e-08
3.81162e-06
-7.12114e-08
3.83849e-06
-1.05736e-07
3.59123e-06
4.9585e-07
3.36648e-06
1.17523e-07
2.2357e-06
4.69893e-07
1.0498e-07
2.21292e-06
-5.28066e-07
8.65563e-07
7.24371e-08
2.46795e-06
-3.3207e-07
1.27016e-06
1.2162e-07
2.35903e-06
-1.32937e-07
1.39798e-06
-6.65931e-09
1.84891e-06
9.12986e-08
1.78998e-06
1.40007e-06
-6.13346e-08
1.4614e-06
1.31687e-08
1.71547e-06
1.00932e-07
1.76114e-06
-3.7753e-08
1.53667e-06
2.55858e-07
2.06541e-06
3.97537e-08
1.48626e-06
4.19726e-07
2.08798e-06
1.00423e-07
1.18487e-06
4.8689e-07
1.82645e-06
1.78059e-07
7.78724e-07
-4.02752e-07
6.98334e-07
-3.49444e-06
3.58754e-06
-3.81784e-06
2.1766e-07
-3.97995e-06
9.09027e-08
-4.1064e-06
1.45638e-07
-4.08233e-06
-1.60378e-07
-4.08547e-06
-1.12699e-07
-4.10433e-06
-1.38827e-07
-3.89602e-06
-6.97358e-07
-3.85939e-06
-2.87422e-07
-3.85149e-06
-1.5724e-07
-3.82513e-06
-2.15396e-07
-3.6994e-06
-4.64291e-07
-3.65469e-06
-2.723e-07
-3.63349e-06
-2.04592e-07
-3.58914e-06
-3.14361e-07
-3.40794e-06
-6.78628e-07
-3.31416e-06
-4.78742e-07
-3.26816e-06
-3.40217e-07
-3.21964e-06
-4.035e-07
-3.10209e-06
-7.54513e-07
-2.79997e-06
-1.46578e-06
-2.65601e-06
-8.05476e-07
-2.49933e-06
-9.32126e-07
-2.31079e-06
-1.12254e-06
-2.062e-06
-1.39691e-06
-1.71975e-06
-1.75527e-06
-1.25615e-06
-2.16437e-06
-6.68131e-07
-2.54434e-06
3.4908e-18
-2.77718e-06
6.68131e-07
-2.77718e-06
1.25615e-06
-2.54434e-06
1.71975e-06
-2.16437e-06
2.062e-06
-1.75527e-06
2.31079e-06
-1.39691e-06
2.49933e-06
-1.12254e-06
2.65601e-06
-9.32126e-07
2.79997e-06
-8.05476e-07
3.10209e-06
-1.46578e-06
3.21964e-06
-7.54513e-07
3.26816e-06
-4.035e-07
3.31416e-06
-3.40217e-07
3.40794e-06
-4.78742e-07
3.58914e-06
-6.78628e-07
3.63349e-06
-3.14361e-07
3.65469e-06
-2.04592e-07
3.6994e-06
-2.723e-07
3.82513e-06
-4.64291e-07
3.85149e-06
-2.15396e-07
3.85939e-06
-1.5724e-07
3.89602e-06
-2.87422e-07
4.10433e-06
-6.97358e-07
4.08547e-06
-1.38827e-07
4.08233e-06
-1.12699e-07
4.1064e-06
-1.60378e-07
3.97995e-06
1.45638e-07
3.81784e-06
9.09027e-08
3.49444e-06
2.1766e-07
4.02752e-07
3.58754e-06
-1.78059e-07
6.98334e-07
-4.8689e-07
7.78724e-07
-1.00423e-07
1.82645e-06
-4.19726e-07
1.18487e-06
-3.97537e-08
2.08798e-06
-2.55858e-07
1.48626e-06
3.7753e-08
2.06541e-06
-1.00932e-07
1.53667e-06
-1.31687e-08
1.76114e-06
6.13346e-08
1.71547e-06
1.4614e-06
-3.68544e-08
1.49825e-06
1.99114e-08
1.65871e-06
8.38296e-08
1.69722e-06
2.18961e-08
1.5986e-06
2.11292e-07
1.87602e-06
1.15644e-07
1.58191e-06
3.52241e-07
1.85138e-06
1.8696e-07
1.35015e-06
4.08594e-07
1.60482e-06
1.85685e-07
1.00163e-06
-1.74207e-07
1.05823e-06
8.05165e-07
2.60817e-06
2.73694e-07
7.49131e-07
-4.40806e-07
8.05402e-07
-3.68499e-06
3.38983e-06
-4.05321e-06
2.07834e-07
-4.25726e-06
9.13538e-08
-4.43605e-06
3.99626e-08
-4.13511e-06
-9.983e-07
-4.14874e-06
-2.73792e-07
-4.17329e-06
-1.32684e-07
-4.17375e-06
-2.14935e-07
-3.98849e-06
-6.49558e-07
-3.95745e-06
-3.03336e-07
-3.9574e-06
-2.04643e-07
-3.94085e-06
-3.30907e-07
-3.67727e-06
-9.42209e-07
-3.58338e-06
-5.72634e-07
-3.55801e-06
-3.65581e-07
-3.54003e-06
-4.21482e-07
-3.45555e-06
-8.38997e-07
-3.09951e-06
-1.82182e-06
-2.96241e-06
-9.42577e-07
-2.83072e-06
-1.06381e-06
-2.67663e-06
-1.27663e-06
-2.45714e-06
-1.6164e-06
-2.11603e-06
-2.09637e-06
-1.59477e-06
-2.68564e-06
-8.66846e-07
-3.27226e-06
1.77011e-17
-3.64402e-06
8.66846e-07
-3.64402e-06
1.59477e-06
-3.27226e-06
2.11603e-06
-2.68564e-06
2.45714e-06
-2.09637e-06
2.67663e-06
-1.6164e-06
2.83072e-06
-1.27663e-06
2.96241e-06
-1.06381e-06
3.09951e-06
-9.42577e-07
3.45555e-06
-1.82182e-06
3.54003e-06
-8.38997e-07
3.55801e-06
-4.21482e-07
3.58338e-06
-3.65581e-07
3.67727e-06
-5.72634e-07
3.94085e-06
-9.42209e-07
3.9574e-06
-3.30907e-07
3.95745e-06
-2.04643e-07
3.98849e-06
-3.03336e-07
4.17375e-06
-6.49558e-07
4.17329e-06
-2.14935e-07
4.14874e-06
-1.32684e-07
4.13511e-06
-2.73792e-07
4.43605e-06
-9.983e-07
4.25726e-06
3.99626e-08
4.05321e-06
9.13538e-08
3.68499e-06
2.07834e-07
4.40806e-07
3.38983e-06
-2.73694e-07
8.05402e-07
-8.05165e-07
7.49131e-07
1.74207e-07
2.60817e-06
-1.85685e-07
1.05823e-06
-4.08594e-07
1.00163e-06
-1.8696e-07
1.60482e-06
-3.52241e-07
1.35015e-06
-1.15644e-07
1.85138e-06
-2.11292e-07
1.58191e-06
-2.18961e-08
1.87602e-06
-8.38296e-08
1.5986e-06
-1.99114e-08
1.69722e-06
3.68544e-08
1.65871e-06
1.49825e-06
-1.73124e-08
1.51557e-06
2.73868e-08
1.61401e-06
7.77413e-08
1.64687e-06
6.39735e-08
1.61237e-06
1.89389e-07
1.7506e-06
1.65653e-07
1.60564e-06
3.14153e-07
1.70288e-06
2.41742e-07
1.42256e-06
3.61279e-07
1.48528e-06
2.11815e-07
1.1511e-06
3.2167e-08
1.23787e-06
6.15364e-07
2.02497e-06
3.08326e-07
1.05617e-06
-9.29262e-09
1.12302e-06
9.71823e-07
2.40871e-06
4.58403e-07
7.21253e-07
-1.96187e-07
7.45944e-07
-2.44891e-06
2.29268e-06
-3.81932e-06
3.72111e-07
-4.20645e-06
1.13339e-07
-4.40526e-06
6.61246e-08
-4.5287e-06
-9.14875e-08
-4.24726e-06
-9.31006e-07
-4.26537e-06
-2.85224e-07
-4.3065e-06
-1.63508e-07
-4.3635e-06
-2.73916e-07
-3.93897e-06
-1.36674e-06
-3.86234e-06
-6.4926e-07
-3.87382e-06
-3.54107e-07
-3.90702e-06
-3.88276e-07
-3.89691e-06
-8.4911e-07
-3.42795e-06
-2.29078e-06
-3.30778e-06
-1.06275e-06
-3.23134e-06
-1.14025e-06
-3.15629e-06
-1.35168e-06
-3.01985e-06
-1.75285e-06
-2.72883e-06
-2.38738e-06
-2.16054e-06
-3.25393e-06
-1.21297e-06
-4.21983e-06
-1.3976e-17
-4.857e-06
1.21297e-06
-4.857e-06
2.16054e-06
-4.21983e-06
2.72883e-06
-3.25393e-06
3.01985e-06
-2.38738e-06
3.15629e-06
-1.75285e-06
3.23134e-06
-1.35168e-06
3.30778e-06
-1.14025e-06
3.42795e-06
-1.06275e-06
3.89691e-06
-2.29078e-06
3.90702e-06
-8.4911e-07
3.87382e-06
-3.88276e-07
3.86234e-06
-3.54107e-07
3.93897e-06
-6.4926e-07
4.3635e-06
-1.36674e-06
4.3065e-06
-2.73916e-07
4.26537e-06
-1.63508e-07
4.24726e-06
-2.85224e-07
4.5287e-06
-9.31006e-07
4.40526e-06
-9.14875e-08
4.20645e-06
6.61246e-08
3.81932e-06
1.13339e-07
2.44891e-06
3.72111e-07
1.96187e-07
2.29268e-06
-4.58403e-07
7.45944e-07
-9.71823e-07
7.21253e-07
9.29262e-09
2.40871e-06
-3.08326e-07
1.12302e-06
-6.15364e-07
1.05617e-06
-3.2167e-08
2.02497e-06
-2.11815e-07
1.23787e-06
-3.61279e-07
1.1511e-06
-2.41742e-07
1.48528e-06
-3.14153e-07
1.42256e-06
-1.65653e-07
1.70288e-06
-1.89389e-07
1.60564e-06
-6.39735e-08
1.7506e-06
-7.77413e-08
1.61237e-06
-2.73868e-08
1.64687e-06
1.73124e-08
1.61401e-06
1.51557e-06
-1.93125e-09
1.5175e-06
3.57324e-08
1.57635e-06
7.92903e-08
1.60331e-06
9.41204e-08
1.59754e-06
1.82609e-07
1.66211e-06
1.98541e-07
1.58971e-06
2.95999e-07
1.60542e-06
2.76017e-07
1.44254e-06
3.38355e-07
1.42294e-06
2.4736e-07
1.24209e-06
1.71665e-07
1.31357e-06
5.07078e-07
1.68956e-06
3.49763e-07
1.21348e-06
2.12585e-07
1.2602e-06
7.73526e-07
1.84777e-06
5.07066e-07
9.87713e-07
2.88271e-07
9.64739e-07
9.23546e-07
1.65741e-06
6.46397e-07
6.49261e-07
3.44759e-07
4.14976e-07
-3.58017e-07
7.68901e-07
-2.79351e-06
2.344e-06
-3.94692e-06
2.22405e-07
-4.32229e-06
9.01435e-08
-4.54322e-06
5.74306e-08
-4.8582e-06
4.10584e-08
-4.12149e-06
-2.10345e-06
-4.1295e-06
-6.41241e-07
-4.2078e-06
-2.75811e-07
-4.32241e-06
-2.73666e-07
-4.48366e-06
-6.87864e-07
-3.74901e-06
-3.02542e-06
-3.66278e-06
-1.14899e-06
-3.69726e-06
-1.10577e-06
-3.78206e-06
-1.26688e-06
-3.83832e-06
-1.69659e-06
-3.72554e-06
-2.50016e-06
-3.19527e-06
-3.78419e-06
-1.87733e-06
-5.53777e-06
-4.71899e-17
-6.73433e-06
1.87733e-06
-6.73433e-06
3.19527e-06
-5.53777e-06
3.72554e-06
-3.78419e-06
3.83832e-06
-2.50016e-06
3.78206e-06
-1.69659e-06
3.69726e-06
-1.26688e-06
3.66278e-06
-1.10577e-06
3.74901e-06
-1.14899e-06
4.48366e-06
-3.02542e-06
4.32241e-06
-6.87864e-07
4.2078e-06
-2.73666e-07
4.1295e-06
-2.75811e-07
4.12149e-06
-6.41241e-07
4.8582e-06
-2.10345e-06
4.54322e-06
4.10584e-08
4.32229e-06
5.74306e-08
3.94692e-06
9.01435e-08
2.79351e-06
2.22405e-07
3.58017e-07
2.344e-06
-3.44759e-07
7.68901e-07
-6.46397e-07
4.14976e-07
-9.23546e-07
6.49261e-07
-2.88271e-07
1.65741e-06
-5.07066e-07
9.64739e-07
-7.73526e-07
9.87713e-07
-2.12585e-07
1.84777e-06
-3.49763e-07
1.2602e-06
-5.07078e-07
1.21348e-06
-1.71665e-07
1.68956e-06
-2.4736e-07
1.31357e-06
-3.38355e-07
1.24209e-06
-2.76017e-07
1.42294e-06
-2.95999e-07
1.44254e-06
-1.98541e-07
1.60542e-06
-1.82609e-07
1.58971e-06
-9.41204e-08
1.66211e-06
-7.92903e-08
1.59754e-06
-3.57324e-08
1.60331e-06
1.93125e-09
1.57635e-06
1.5175e-06
1.01485e-08
1.50735e-06
4.48135e-08
1.54168e-06
8.5764e-08
1.56236e-06
1.16695e-07
1.56661e-06
1.85198e-07
1.59361e-06
2.21039e-07
1.55387e-06
2.90705e-07
1.53575e-06
2.98657e-07
1.43459e-06
3.33417e-07
1.38818e-06
2.86209e-07
1.2893e-06
2.66663e-07
1.33311e-06
4.56937e-07
1.49928e-06
3.93367e-07
1.27705e-06
3.5565e-07
1.29791e-06
6.6914e-07
1.53428e-06
5.51374e-07
1.10548e-06
4.60572e-07
1.05554e-06
8.02816e-07
1.31516e-06
6.60146e-07
7.9193e-07
4.51923e-07
6.232e-07
3.44487e-07
8.76336e-07
1.12224e-06
1.56625e-06
8.27472e-07
5.17168e-07
6.22127e-07
2.95488e-07
2.67249e-07
4.12309e-07
-8.8618e-07
1.19449e-06
-3.29478e-06
3.05146e-07
-4.02113e-06
8.51139e-08
-4.35062e-06
5.36785e-08
-4.66475e-06
4.04633e-08
-5.30887e-06
-4.37457e-08
-3.92241e-06
-4.41188e-06
-3.92073e-06
-1.15066e-06
-4.17951e-06
-8.46986e-07
-4.55852e-06
-8.87878e-07
-5.01601e-06
-1.2391e-06
-5.40154e-06
-2.11464e-06
-5.32189e-06
-3.86385e-06
-3.3033e-06
-7.55635e-06
-6.51063e-17
-1.00376e-05
3.3033e-06
-1.00376e-05
5.32189e-06
-7.55635e-06
5.40154e-06
-3.86385e-06
5.01601e-06
-2.11464e-06
4.55852e-06
-1.2391e-06
4.17951e-06
-8.87878e-07
3.92073e-06
-8.46986e-07
3.92241e-06
-1.15066e-06
5.30887e-06
-4.41188e-06
4.66475e-06
-4.37457e-08
4.35062e-06
4.04633e-08
4.02113e-06
5.36785e-08
3.29478e-06
8.51139e-08
8.8618e-07
3.05146e-07
-2.67249e-07
1.19449e-06
-6.22127e-07
4.12309e-07
-8.27472e-07
2.95488e-07
-1.12224e-06
5.17168e-07
-3.44487e-07
1.56625e-06
-4.51923e-07
8.76336e-07
-6.60146e-07
6.232e-07
-8.02816e-07
7.9193e-07
-4.60572e-07
1.31516e-06
-5.51374e-07
1.05554e-06
-6.6914e-07
1.10548e-06
-3.5565e-07
1.53428e-06
-3.93367e-07
1.29791e-06
-4.56937e-07
1.27705e-06
-2.66663e-07
1.49928e-06
-2.86209e-07
1.33311e-06
-3.33417e-07
1.2893e-06
-2.98657e-07
1.38818e-06
-2.90705e-07
1.43459e-06
-2.21039e-07
1.53575e-06
-1.85198e-07
1.55387e-06
-1.16695e-07
1.59361e-06
-8.5764e-08
1.56661e-06
-4.48135e-08
1.56236e-06
-1.01485e-08
1.54168e-06
1.50735e-06
1.97403e-08
1.48761e-06
5.43387e-08
1.50708e-06
9.51329e-08
1.52157e-06
1.34766e-07
1.52697e-06
1.93165e-07
1.53521e-06
2.37898e-07
1.50914e-06
2.93483e-07
1.48017e-06
3.15937e-07
1.41213e-06
3.40904e-07
1.36321e-06
3.24909e-07
1.3053e-06
3.34154e-07
1.32387e-06
4.45451e-07
1.38799e-06
4.36685e-07
1.28582e-06
4.49361e-07
1.28524e-06
6.26397e-07
1.35725e-06
5.92237e-07
1.13964e-06
5.70274e-07
1.0775e-06
7.49336e-07
1.1361e-06
6.81752e-07
8.59514e-07
5.5916e-07
7.45792e-07
5.50857e-07
8.8464e-07
9.67812e-07
1.1493e-06
8.52e-07
6.3298e-07
7.1166e-07
4.35828e-07
6.28669e-07
4.953e-07
1.02217e-06
8.00989e-07
9.64846e-07
3.62469e-07
9.009e-07
1.4906e-07
8.81746e-07
7.28323e-08
8.57005e-07
6.52043e-08
6.69514e-07
1.43746e-07
-2.17586e-06
-1.56651e-06
-3.33689e-06
1.03669e-08
-4.19498e-06
1.11055e-08
-5.09392e-06
1.10651e-08
-6.34367e-06
1.06526e-08
-7.95683e-06
-5.0148e-07
-1.04021e-05
-1.41861e-06
-6.7191e-06
-1.12393e-05
-1.57681e-16
-1.67567e-05
6.7191e-06
-1.67567e-05
1.04021e-05
-1.12393e-05
7.95683e-06
-1.41861e-06
6.34367e-06
-5.0148e-07
5.09392e-06
1.06526e-08
4.19498e-06
1.10651e-08
3.33689e-06
1.11055e-08
2.17586e-06
1.03669e-08
-6.69514e-07
-1.56651e-06
-8.57005e-07
1.43746e-07
-8.81746e-07
6.52043e-08
-9.009e-07
7.28323e-08
-9.64846e-07
1.4906e-07
-1.02217e-06
3.62469e-07
-6.28669e-07
8.00989e-07
-7.1166e-07
4.953e-07
-8.52e-07
4.35828e-07
-9.67812e-07
6.3298e-07
-5.50857e-07
1.1493e-06
-5.5916e-07
8.8464e-07
-6.81752e-07
7.45792e-07
-7.49336e-07
8.59514e-07
-5.70274e-07
1.1361e-06
-5.92237e-07
1.0775e-06
-6.26397e-07
1.13964e-06
-4.49361e-07
1.35725e-06
-4.36685e-07
1.28524e-06
-4.45451e-07
1.28582e-06
-3.34154e-07
1.38799e-06
-3.24909e-07
1.32387e-06
-3.40904e-07
1.3053e-06
-3.15937e-07
1.36321e-06
-2.93483e-07
1.41213e-06
-2.37898e-07
1.48017e-06
-1.93165e-07
1.50914e-06
-1.34766e-07
1.53521e-06
-9.51329e-08
1.52697e-06
-5.43387e-08
1.52157e-06
-1.97403e-08
1.50708e-06
1.48761e-06
2.75261e-08
1.46008e-06
6.397e-08
1.47064e-06
1.05975e-07
1.47956e-06
1.50299e-07
1.48265e-06
2.04003e-07
1.48151e-06
2.52192e-07
1.46095e-06
3.01374e-07
1.43099e-06
3.31769e-07
1.38174e-06
3.56438e-07
1.33855e-06
3.61972e-07
1.29976e-06
3.85851e-07
1.29999e-06
4.57759e-07
1.31608e-06
4.78792e-07
1.26479e-06
5.14594e-07
1.24944e-06
6.21399e-07
1.25044e-06
6.30834e-07
1.1302e-06
6.4317e-07
1.06517e-06
7.38447e-07
1.04082e-06
7.13454e-07
8.84508e-07
6.55189e-07
8.04056e-07
6.84038e-07
8.55791e-07
9.05752e-07
9.27586e-07
8.75016e-07
6.63716e-07
7.98509e-07
5.12335e-07
7.81763e-07
5.12046e-07
9.88843e-07
5.93908e-07
9.93884e-07
3.57429e-07
9.65133e-07
1.7781e-07
9.6482e-07
7.3145e-08
1.03276e-06
-2.74069e-09
1.31896e-06
-1.42445e-07
6.35659e-07
-8.83215e-07
8.4855e-07
-2.02524e-07
1.03764e-06
-1.77983e-07
1.25364e-06
-2.04935e-07
1.53994e-06
-2.75647e-07
1.45888e-06
-4.20423e-07
1.49285e-06
-1.45257e-06
-3.8806e-06
-5.86587e-06
3.24581e-17
-2.06373e-05
3.8806e-06
-2.06373e-05
-1.49285e-06
-5.86587e-06
-1.45888e-06
-1.45257e-06
-1.53994e-06
-4.20423e-07
-1.25364e-06
-2.75647e-07
-1.03764e-06
-2.04935e-07
-8.4855e-07
-1.77983e-07
-6.35659e-07
-2.02524e-07
-1.31896e-06
-8.83215e-07
-1.03276e-06
-1.42445e-07
-9.6482e-07
-2.74069e-09
-9.65133e-07
7.3145e-08
-9.93884e-07
1.7781e-07
-9.88843e-07
3.57429e-07
-7.81763e-07
5.93908e-07
-7.98509e-07
5.12046e-07
-8.75016e-07
5.12335e-07
-9.05752e-07
6.63716e-07
-6.84038e-07
9.27586e-07
-6.55189e-07
8.55791e-07
-7.13454e-07
8.04056e-07
-7.38447e-07
8.84508e-07
-6.4317e-07
1.04082e-06
-6.30834e-07
1.06517e-06
-6.21399e-07
1.1302e-06
-5.14594e-07
1.25044e-06
-4.78792e-07
1.24944e-06
-4.57759e-07
1.26479e-06
-3.85851e-07
1.31608e-06
-3.61972e-07
1.29999e-06
-3.56438e-07
1.29976e-06
-3.31769e-07
1.33855e-06
-3.01374e-07
1.38174e-06
-2.52192e-07
1.43099e-06
-2.04003e-07
1.46095e-06
-1.50299e-07
1.48151e-06
-1.05975e-07
1.48265e-06
-6.397e-08
1.47956e-06
-2.75261e-08
1.47064e-06
1.46008e-06
3.40219e-08
1.42606e-06
7.34025e-08
1.43126e-06
1.17357e-07
1.43561e-06
1.64438e-07
1.43557e-06
2.16294e-07
1.42965e-06
2.65736e-07
1.41151e-06
3.1268e-07
1.38404e-06
3.48216e-07
1.3462e-06
3.76875e-07
1.30989e-06
3.97102e-07
1.27954e-06
4.2905e-07
1.26804e-06
4.83467e-07
1.26166e-06
5.1958e-07
1.22867e-06
5.64784e-07
1.20423e-06
6.37927e-07
1.1773e-06
6.68309e-07
1.09982e-06
6.9661e-07
1.03687e-06
7.53214e-07
9.84219e-07
7.53335e-07
8.84387e-07
7.37405e-07
8.19987e-07
7.76327e-07
8.16868e-07
8.97683e-07
8.0623e-07
9.04798e-07
6.566e-07
8.75719e-07
5.41414e-07
8.87168e-07
5.00597e-07
9.98761e-07
4.82316e-07
1.02493e-06
3.31263e-07
1.02059e-06
1.82142e-07
1.0307e-06
6.30427e-08
1.08206e-06
-5.41023e-08
1.17781e-06
-2.38196e-07
9.12057e-07
-6.17463e-07
9.75803e-07
-2.6627e-07
1.08859e-06
-2.90767e-07
1.2451e-06
-3.61443e-07
1.47317e-06
-5.03717e-07
1.83008e-06
-7.77338e-07
1.0404e-06
-6.62888e-07
4.37962e-07
-5.26343e-06
-3.31337e-18
-2.01994e-05
-4.37962e-07
-2.01994e-05
-1.0404e-06
-5.26343e-06
-1.83008e-06
-6.62888e-07
-1.47317e-06
-7.77338e-07
-1.2451e-06
-5.03717e-07
-1.08859e-06
-3.61443e-07
-9.75803e-07
-2.90767e-07
-9.12057e-07
-2.6627e-07
-1.17781e-06
-6.17463e-07
-1.08206e-06
-2.38196e-07
-1.0307e-06
-5.41023e-08
-1.02059e-06
6.30427e-08
-1.02493e-06
1.82142e-07
-9.98761e-07
3.31263e-07
-8.87168e-07
4.82316e-07
-8.75719e-07
5.00597e-07
-9.04798e-07
5.41414e-07
-8.97683e-07
6.566e-07
-7.76327e-07
8.0623e-07
-7.37405e-07
8.16868e-07
-7.53335e-07
8.19987e-07
-7.53214e-07
8.84387e-07
-6.9661e-07
9.84219e-07
-6.68309e-07
1.03687e-06
-6.37927e-07
1.09982e-06
-5.64784e-07
1.1773e-06
-5.1958e-07
1.20423e-06
-4.83467e-07
1.22867e-06
-4.2905e-07
1.26166e-06
-3.97102e-07
1.26804e-06
-3.76875e-07
1.27954e-06
-3.48216e-07
1.30989e-06
-3.1268e-07
1.3462e-06
-2.65736e-07
1.38404e-06
-2.16294e-07
1.41151e-06
-1.64438e-07
1.42965e-06
-1.17357e-07
1.43557e-06
-7.34025e-08
1.43561e-06
-3.40219e-08
1.43126e-06
1.42606e-06
3.95847e-08
1.38648e-06
8.24086e-08
1.38843e-06
1.28705e-07
1.38931e-06
1.77775e-07
1.3865e-06
2.29315e-07
1.37811e-06
2.79474e-07
1.36135e-06
3.26432e-07
1.33709e-06
3.66077e-07
1.30656e-06
4.00113e-07
1.27585e-06
4.30533e-07
1.24912e-06
4.67806e-07
1.23077e-06
5.15876e-07
1.21359e-06
5.59218e-07
1.18533e-06
6.07708e-07
1.15574e-06
6.65867e-07
1.11914e-06
7.05529e-07
1.06016e-06
7.41073e-07
1.00132e-06
7.82555e-07
9.42737e-07
7.98158e-07
8.68784e-07
8.07442e-07
8.10702e-07
8.4685e-07
7.7746e-07
9.19269e-07
7.33812e-07
9.42112e-07
6.33756e-07
9.42689e-07
5.40837e-07
9.65086e-07
4.782e-07
1.02951e-06
4.1789e-07
1.05905e-06
3.01722e-07
1.06741e-06
1.73785e-07
1.07935e-06
5.11088e-08
1.10645e-06
-8.12056e-08
1.12625e-06
-2.58e-07
1.01146e-06
-5.02672e-07
1.01614e-06
-2.70946e-07
1.03776e-06
-3.12394e-07
1.05117e-06
-3.74848e-07
1.01022e-06
-4.62765e-07
8.02788e-07
-5.69909e-07
5.84841e-07
-4.44941e-07
3.33642e-07
-5.01224e-06
-2.51145e-17
-1.98657e-05
-3.33642e-07
-1.98657e-05
-5.84841e-07
-5.01224e-06
-8.02788e-07
-4.44941e-07
-1.01022e-06
-5.69909e-07
-1.05117e-06
-4.62765e-07
-1.03776e-06
-3.74848e-07
-1.01614e-06
-3.12394e-07
-1.01146e-06
-2.70946e-07
-1.12625e-06
-5.02672e-07
-1.10645e-06
-2.58e-07
-1.07935e-06
-8.12056e-08
-1.06741e-06
5.11088e-08
-1.05905e-06
1.73785e-07
-1.02951e-06
3.01722e-07
-9.65086e-07
4.1789e-07
-9.42689e-07
4.782e-07
-9.42112e-07
5.40837e-07
-9.19269e-07
6.33756e-07
-8.4685e-07
7.33812e-07
-8.07442e-07
7.7746e-07
-7.98158e-07
8.10702e-07
-7.82555e-07
8.68784e-07
-7.41073e-07
9.42737e-07
-7.05529e-07
1.00132e-06
-6.65867e-07
1.06016e-06
-6.07708e-07
1.11914e-06
-5.59218e-07
1.15574e-06
-5.15876e-07
1.18533e-06
-4.67806e-07
1.21359e-06
-4.30533e-07
1.23077e-06
-4.00113e-07
1.24912e-06
-3.66077e-07
1.27585e-06
-3.26432e-07
1.30656e-06
-2.79474e-07
1.33709e-06
-2.29315e-07
1.36135e-06
-1.77775e-07
1.37811e-06
-1.28705e-07
1.3865e-06
-8.24086e-08
1.38931e-06
-3.95847e-08
1.38843e-06
1.38648e-06
4.44451e-08
1.34203e-06
9.08483e-08
1.34203e-06
1.3969e-07
1.34047e-06
1.90582e-07
1.33561e-06
2.42714e-07
1.32598e-06
2.93789e-07
1.31027e-06
3.42003e-07
1.28887e-06
3.85393e-07
1.26317e-06
4.2481e-07
1.23643e-06
4.62583e-07
1.21134e-06
5.04076e-07
1.18928e-06
5.50983e-07
1.16668e-06
5.97822e-07
1.13849e-06
6.47322e-07
1.10624e-06
6.99359e-07
1.0671e-06
7.42936e-07
1.01658e-06
7.82054e-07
9.62203e-07
8.1948e-07
9.05312e-07
8.44931e-07
8.43333e-07
8.68162e-07
7.87471e-07
9.0592e-07
7.39702e-07
9.55721e-07
6.84011e-07
9.84525e-07
6.04952e-07
1.00106e-06
5.24299e-07
1.02685e-06
4.52411e-07
1.06818e-06
3.76567e-07
1.0944e-06
2.75501e-07
1.10633e-06
1.61854e-07
1.11435e-06
4.30825e-08
1.12072e-06
-8.75696e-08
1.10678e-06
-2.44067e-07
1.03161e-06
-4.27498e-07
1.00431e-06
-2.43644e-07
9.72169e-07
-2.80255e-07
9.19161e-07
-3.21839e-07
8.22541e-07
-3.66145e-07
6.57414e-07
-4.04782e-07
5.7432e-07
-3.61847e-07
3.55186e-07
-4.7931e-06
-8.83448e-18
-1.95105e-05
-3.55186e-07
-1.95105e-05
-5.7432e-07
-4.7931e-06
-6.57414e-07
-3.61847e-07
-8.22541e-07
-4.04782e-07
-9.19161e-07
-3.66145e-07
-9.72169e-07
-3.21839e-07
-1.00431e-06
-2.80255e-07
-1.03161e-06
-2.43644e-07
-1.10678e-06
-4.27498e-07
-1.12072e-06
-2.44067e-07
-1.11435e-06
-8.75696e-08
-1.10633e-06
4.30825e-08
-1.0944e-06
1.61854e-07
-1.06818e-06
2.75501e-07
-1.02685e-06
3.76567e-07
-1.00106e-06
4.52411e-07
-9.84525e-07
5.24299e-07
-9.55721e-07
6.04952e-07
-9.0592e-07
6.84011e-07
-8.68162e-07
7.39702e-07
-8.44931e-07
7.87471e-07
-8.1948e-07
8.43333e-07
-7.82054e-07
9.05312e-07
-7.42936e-07
9.62203e-07
-6.99359e-07
1.01658e-06
-6.47322e-07
1.0671e-06
-5.97822e-07
1.10624e-06
-5.50983e-07
1.13849e-06
-5.04076e-07
1.16668e-06
-4.62583e-07
1.18928e-06
-4.2481e-07
1.21134e-06
-3.85393e-07