/*--------------------------------*- C++ -*----------------------------------*\
  =========                 |
  \\      /  F ield         | OpenFOAM: The Open Source CFD Toolbox
   \\    /   O peration     | Website:  https://openfoam.org
    \\  /    A nd           | Version:  10
     \\/     M anipulation  |
\*---------------------------------------------------------------------------*/
FoamFile
{
    format      ascii;
    class       volVectorField;
    location    "1.81";
    object      Ub;
}
// * * * * * * * * * * * * * * * * * * * * * * * * * * * * * * * * * * * * * //

dimensions      [0 1 -1 0 0 0 0];

internalField   nonuniform List<vector> 
12225
(
(0.00225703 -0.00045627 0)
(0.00644537 -0.000406856 0)
(0.00990459 -0.000335576 0)
(0.0125869 -0.000264458 0)
(0.0145986 -0.000204956 0)
(0.0160985 -0.000160396 0)
(0.0172399 -0.000130035 0)
(0.0181497 -0.000111857 0)
(0.0189271 -0.000103995 0)
(0.01965 -0.000105368 0)
(0.0203838 -0.000116036 0)
(0.021192 -0.000137668 0)
(0.0221489 -0.000174611 0)
(0.0233613 -0.00023665 0)
(0.0250162 -0.000347057 0)
(0.0275183 -0.000571182 0)
(0.0320253 -0.00115187 0)
(0.0434809 -0.00341886 0)
(0.0023996 -0.00143218 0)
(0.00684392 -0.00127512 0)
(0.0104966 -0.00104941 0)
(0.013311 -0.00082492 0)
(0.015407 -0.000637615 0)
(0.0169584 -0.000497682 0)
(0.0181309 -0.000402537 0)
(0.0190602 -0.000345664 0)
(0.0198512 -0.000321088 0)
(0.0205858 -0.000325321 0)
(0.0213319 -0.000358429 0)
(0.0221546 -0.000425426 0)
(0.0231286 -0.000539435 0)
(0.0243579 -0.000729698 0)
(0.0260159 -0.00106412 0)
(0.0284351 -0.00172332 0)
(0.032291 -0.00330061 0)
(0.0381555 -0.00833515 0)
(0.00250914 -0.00253404 0)
(0.00714405 -0.00225053 0)
(0.0109282 -0.00184566 0)
(0.0138201 -0.0014452 0)
(0.0159556 -0.00111267 0)
(0.0175234 -0.000865253 0)
(0.0186997 -0.000697582 0)
(0.0196265 -0.000597607 0)
(0.0204124 -0.000554416 0)
(0.0211406 -0.000561559 0)
(0.0218794 -0.000618767 0)
(0.022692 -0.000734158 0)
(0.0236484 -0.000929151 0)
(0.02484 -0.00125055 0)
(0.0264022 -0.00180216 0)
(0.0285376 -0.00283558 0)
(0.0314304 -0.00503312 0)
(0.0341957 -0.0103498 0)
(0.00262041 -0.00376775 0)
(0.00744279 -0.00333501 0)
(0.0113434 -0.0027224 0)
(0.0142909 -0.00212121 0)
(0.0164428 -0.0016254 0)
(0.0180063 -0.00125856 0)
(0.019169 -0.00101105 0)
(0.020079 -0.000863921 0)
(0.0208469 -0.000800291 0)
(0.0215561 -0.00081002 0)
(0.0222733 -0.000891902 0)
(0.0230578 -0.00105637 0)
(0.0239705 -0.0013314 0)
(0.0250829 -0.00177643 0)
(0.0264801 -0.00251502 0)
(0.0282331 -0.00381304 0)
(0.0302118 -0.00625024 0)
(0.0313184 -0.0109184 0)
(0.00274753 -0.00515124 0)
(0.0077777 -0.00453919 0)
(0.011794 -0.00368287 0)
(0.0147822 -0.00285157 0)
(0.0169306 -0.00217231 0)
(0.0184703 -0.00167352 0)
(0.0196024 -0.00133894 0)
(0.0204808 -0.0011408 0)
(0.0212177 -0.00105492 0)
(0.0218954 -0.0010665 0)
(0.0225772 -0.00117249 0)
(0.023316 -0.00138427 0)
(0.0241612 -0.00173357 0)
(0.02516 -0.00228539 0)
(0.0263471 -0.00316463 0)
(0.0276922 -0.00460504 0)
(0.0289274 -0.00700615 0)
(0.0291601 -0.0108118 0)
(0.00290203 -0.00671167 0)
(0.00817756 -0.00587895 0)
(0.0123159 -0.00473189 0)
(0.0153305 -0.00363438 0)
(0.0174535 -0.00274861 0)
(0.0189475 -0.00210458 0)
(0.0200297 -0.00167585 0)
(0.0208602 -0.00142317 0)
(0.0215519 -0.00131333 0)
(0.0221844 -0.00132564 0)
(0.0228163 -0.00145394 0)
(0.0234925 -0.00170875 0)
(0.0242488 -0.00212195 0)
(0.0251083 -0.00275646 0)
(0.0260636 -0.00372257 0)
(0.0270243 -0.00519614 0)
(0.0277028 -0.00740066 0)
(0.0274841 -0.0104087 0)
(0.00309708 -0.00848751 0)
(0.00867355 -0.00737536 0)
(0.0129443 -0.00587447 0)
(0.0159678 -0.00446564 0)
(0.0180385 -0.00334677 0)
(0.0194602 -0.00254363 0)
(0.0204698 -0.00201417 0)
(0.0212335 -0.00170407 0)
(0.0218638 -0.0015689 0)
(0.0224364 -0.0015805 0)
(0.0230036 -0.00172816 0)
(0.0236011 -0.00201937 0)
(0.0242508 -0.00248237 0)
(0.0249548 -0.00317124 0)
(0.0256768 -0.00417139 0)
(0.0263032 -0.00559491 0)
(0.0265864 -0.00753168 0)
(0.026143 -0.00988614 0)
(0.00335041 -0.0105331 0)
(0.00930573 -0.00905547 0)
(0.0137209 -0.00711442 0)
(0.016728 -0.00533731 0)
(0.0187107 -0.00395495 0)
(0.0200269 -0.00297881 0)
(0.0209364 -0.00234327 0)
(0.0216115 -0.00197413 0)
(0.0221624 -0.00181296 0)
(0.0226593 -0.00182241 0)
(0.0231468 -0.00198557 0)
(0.0236511 -0.00230472 0)
(0.0241812 -0.00280112 0)
(0.0247231 -0.00351527 0)
(0.0252255 -0.00450381 0)
(0.0255769 -0.00582293 0)
(0.0255898 -0.00747813 0)
(0.0250428 -0.0093231 0)
(0.003688 -0.0129266 0)
(0.0101302 -0.0109533 0)
(0.0146994 -0.00845176 0)
(0.017651 -0.00623442 0)
(0.0194968 -0.00455475 0)
(0.0206646 -0.00339305 0)
(0.0214408 -0.00264856 0)
(0.0220018 -0.00222092 0)
(0.0224533 -0.00203449 0)
(0.022858 -0.00204082 0)
(0.0232517 -0.00221524 0)
(0.0236506 -0.00255292 0)
(0.0240531 -0.00306577 0)
(0.0244349 -0.00377854 0)
(0.0247406 -0.00472057 0)
(0.0248749 -0.00590637 0)
(0.0247082 -0.00729749 0)
(0.0241217 -0.00875249 0)
(0.00415023 -0.0157838 0)
(0.0112299 -0.0131103 0)
(0.0159529 -0.00987795 0)
(0.0187852 -0.00713037 0)
(0.0204252 -0.00511802 0)
(0.0213896 -0.00376211 0)
(0.021992 -0.00291037 0)
(0.0224096 -0.0024284 0)
(0.0227401 -0.00221979 0)
(0.0230359 -0.00222326 0)
(0.0233226 -0.0024051 0)
(0.023607 -0.00275215 0)
(0.0238789 -0.00326579 0)
(0.0241089 -0.00395531 0)
(0.024245 -0.00482768 0)
(0.0242131 -0.00587062 0)
(0.0239297 -0.00702901 0)
(0.0233369 -0.00818636 0)
(0.00480324 -0.0192828 0)
(0.0127336 -0.0155736 0)
(0.0175828 -0.0113663 0)
(0.0201905 -0.00797927 0)
(0.0215266 -0.00560224 0)
(0.0222159 -0.00405215 0)
(0.0225958 -0.00310274 0)
(0.0228372 -0.00257633 0)
(0.0230239 -0.00235237 0)
(0.0231945 -0.0023555 0)
(0.0233631 -0.00254238 0)
(0.0235271 -0.0028911 0)
(0.0236699 -0.0033928 0)
(0.0237607 -0.00404343 0)
(0.0237548 -0.00483386 0)
(0.0235982 -0.00573753 0)
(0.0232406 -0.0066983 0)
(0.0226578 -0.00762756 0)
(0.00569105 -0.0232855 0)
(0.0146963 -0.0181416 0)
(0.0195828 -0.0127416 0)
(0.0218225 -0.0086602 0)
(0.0227493 -0.00593094 0)
(0.0230998 -0.0042152 0)
(0.0232215 -0.00319413 0)
(0.0232668 -0.00264208 0)
(0.0232989 -0.00241419 0)
(0.0233397 -0.002422 0)
(0.0233907 -0.00261357 0)
(0.0234408 -0.00295954 0)
(0.0234686 -0.00344275 0)
(0.0234442 -0.00404959 0)
(0.0233301 -0.00476135 0)
(0.0230876 -0.00554605 0)
(0.0226862 -0.0063532 0)
(0.0221177 -0.00711684 0)
(0.00693765 -0.0284203 0)
(0.017322 -0.0209846 0)
(0.0220625 -0.0139848 0)
(0.0237132 -0.00911636 0)
(0.0240855 -0.006054 0)
(0.0240161 -0.00421453 0)
(0.0238358 -0.00315897 0)
(0.0236616 -0.00260808 0)
(0.0235266 -0.00239337 0)
(0.0234316 -0.00241507 0)
(0.0233638 -0.00261443 0)
(0.0233033 -0.00295634 0)
(0.0232254 -0.00341769 0)
(0.023101 -0.00397878 0)
(0.0228998 -0.00461624 0)
(0.0225943 -0.00529799 0)
(0.0221672 -0.0059816 0)
(0.0216184 -0.00661857 0)
(0.00918776 -0.0364433 0)
(0.0217597 -0.024476 0)
(0.0258323 -0.0150125 0)
(0.0263511 -0.00919639 0)
(0.0258309 -0.00584467 0)
(0.0251521 -0.00395728 0)
(0.0245631 -0.00293114 0)
(0.0241062 -0.00242728 0)
(0.0237644 -0.00225612 0)
(0.0235072 -0.00231004 0)
(0.0233029 -0.00252632 0)
(0.0231213 -0.00286644 0)
(0.0229335 -0.0033037 0)
(0.0227119 -0.00381519 0)
(0.022432 -0.00437644 0)
(0.022075 -0.00495862 0)
(0.0216319 -0.00552869 0)
(0.0211061 -0.00605309 0)
(0.0137866 -0.0504572 0)
(0.0299952 -0.0280381 0)
(0.0317427 -0.0149395 0)
(0.0299934 -0.00830076 0)
(0.0280284 -0.00493985 0)
(0.026485 -0.00322072 0)
(0.0253649 -0.00236671 0)
(0.0245623 -0.00200033 0)
(0.0239785 -0.00192895 0)
(0.0235387 -0.00204892 0)
(0.023187 -0.0023011 0)
(0.0228807 -0.00264879 0)
(0.0225859 -0.00306595 0)
(0.0222757 -0.00353047 0)
(0.0219293 -0.00402045 0)
(0.0215334 -0.00451285 0)
(0.0210831 -0.00498416 0)
(0.0205818 -0.00541281 0)
(0.0249521 -0.0795032 0)
(0.0473312 -0.0275542 0)
(0.0409827 -0.0111841 0)
(0.0346514 -0.00519596 0)
(0.0304813 -0.00273669 0)
(0.0278288 -0.00168267 0)
(0.0260981 -0.00127479 0)
(0.0249244 -0.0012025 0)
(0.0240925 -0.00132307 0)
(0.023472 -0.00156393 0)
(0.0229792 -0.00188437 0)
(0.0225579 -0.00225871 0)
(0.0221688 -0.002668 0)
(0.0217844 -0.00309587 0)
(0.0213861 -0.0035266 0)
(0.0209633 -0.00394473 0)
(0.0205123 -0.00433578 0)
(0.0200354 -0.0046875 0)
(0.0592564 0.00048688 0)
(0.0906362 0.00293537 0)
(0.0529782 0.00245094 0)
(0.0388783 0.00187473 0)
(0.0322937 0.00138118 0)
(0.0286884 0.00093112 0)
(0.0264883 0.000497412 0)
(0.0250362 6.80636e-05 0)
(0.0240143 -0.000361734 0)
(0.0232487 -0.000791055 0)
(0.0226368 -0.00122039 0)
(0.0221155 -0.00164823 0)
(0.0216449 -0.00206994 0)
(0.0211985 -0.00247967 0)
(0.0207597 -0.00287075 0)
(0.0203191 -0.00323622 0)
(0.0198729 -0.00356967 0)
(0.0194213 -0.00386607 0)
(0.0205011 0.0760608 0)
(0.0405254 0.0318681 0)
(0.037384 0.0162445 0)
(0.0325958 0.00948651 0)
(0.0290131 0.00601954 0)
(0.0265615 0.00397159 0)
(0.0248763 0.0026125 0)
(0.02368 0.00162064 0)
(0.0227935 0.000840234 0)
(0.0221047 0.000192507 0)
(0.0215426 -0.000368243 0)
(0.0210576 -0.000863157 0)
(0.0206162 -0.00131025 0)
(0.0201992 -0.00171687 0)
(0.0197949 -0.00208585 0)
(0.0193968 -0.00241818 0)
(0.0190018 -0.00271407 0)
(0.0186097 -0.00297374 0)
(0.00782468 0.040301 0)
(0.0187343 0.0277871 0)
(0.0226186 0.0184155 0)
(0.0233772 0.0123972 0)
(0.023047 0.00854462 0)
(0.0224307 0.00598736 0)
(0.0218034 0.00420743 0)
(0.0212415 0.00290711 0)
(0.0207525 0.00191351 0)
(0.0203231 0.00112394 0)
(0.0199369 0.000475736 0)
(0.0195814 -6.54097e-05 0)
(0.0192466 -0.000527818 0)
(0.018923 -0.000927146 0)
(0.0186044 -0.00127607 0)
(0.0182886 -0.00158118 0)
(0.0179747 -0.00184723 0)
(0.0176631 -0.00207791 0)
(0.00425167 0.0244232 0)
(0.0111701 0.020164 0)
(0.0152605 0.0155046 0)
(0.0173772 0.0116196 0)
(0.018376 0.00864293 0)
(0.0187909 0.00641288 0)
(0.0189099 0.0047359 0)
(0.0188786 0.00345499 0)
(0.0187688 0.00245633 0)
(0.0186153 0.00166079 0)
(0.0184348 0.00101405 0)
(0.0182358 0.000478912 0)
(0.0180234 3.09327e-05 0)
(0.0178015 -0.000345903 0)
(0.0175715 -0.000667009 0)
(0.0173345 -0.000943093 0)
(0.0170925 -0.00118076 0)
(0.0168477 -0.00138515 0)
(0.00292172 0.0171968 0)
(0.00802034 0.0151075 0)
(0.0116393 0.012407 0)
(0.0139836 0.0098345 0)
(0.0154338 0.00765269 0)
(0.0163076 0.00588995 0)
(0.0168198 0.00449019 0)
(0.0171044 0.00338009 0)
(0.0172425 0.00249349 0)
(0.0172827 0.00177752 0)
(0.0172552 0.00119215 0)
(0.0171788 0.000707744 0)
(0.0170663 0.000302594 0)
(0.0169271 -3.8005e-05 0)
(0.0167685 -0.000324365 0)
(0.0165946 -0.000568577 0)
(0.0164094 -0.000777802 0)
(0.0162162 -0.00095716 0)
(0.00226182 0.0126658 0)
(0.00635436 0.0114668 0)
(0.00953646 0.00977054 0)
(0.011837 0.00801849 0)
(0.0134357 0.00643032 0)
(0.0145231 0.00507811 0)
(0.0152513 0.00396048 0)
(0.0157291 0.00304757 0)
(0.0160312 0.00230312 0)
(0.0162077 0.00169358 0)
(0.0162928 0.00119108 0)
(0.01631 0.000773522 0)
(0.0162761 0.00042384 0)
(0.0162032 0.000128984 0)
(0.0161016 -0.000119072 0)
(0.0159784 -0.000328727 0)
(0.0158384 -0.000508043 0)
(0.0156861 -0.000661614 0)
(0.0018883 0.00951359 0)
(0.00537508 0.0087565 0)
(0.00822852 0.00762738 0)
(0.0104251 0.00640032 0)
(0.0120546 0.00523794 0)
(0.0132369 0.00421177 0)
(0.0140812 0.00333893 0)
(0.0146745 0.00261008 0)
(0.0150817 0.00200592 0)
(0.0153504 0.00150548 0)
(0.0155148 0.00108966 0)
(0.0156 0.000742424 0)
(0.0156247 0.000450833 0)
(0.0156027 0.000204636 0)
(0.0155451 -3.84154e-06 0)
(0.0154605 -0.000179096 0)
(0.0153554 -0.0003287 0)
(0.0152347 -0.00045685 0)
(0.00165681 0.00717191 0)
(0.00475357 0.00666686 0)
(0.00736731 0.00588827 0)
(0.00945855 0.00501387 0)
(0.011074 0.00416074 0)
(0.0122933 0.00338851 0)
(0.0131981 0.00271815 0)
(0.0138589 0.00214931 0)
(0.0143322 0.00167194 0)
(0.0146617 0.00127288 0)
(0.0148806 0.00093912 0)
(0.015014 0.000659148 0)
(0.0150811 0.000423338 0)
(0.0150967 0.000223861 0)
(0.0150722 5.44465e-05 0)
(0.0150172 -8.84164e-05 0)
(0.0149388 -0.000209839 0)
(0.0148424 -0.000313927 0)
(0.00150322 0.00535574 0)
(0.00433445 0.00501001 0)
(0.00677115 0.00446518 0)
(0.0087696 0.00383985 0)
(0.0103543 0.00321742 0)
(0.0115815 0.00264421 0)
(0.0125149 0.00213942 0)
(0.0132136 0.00170609 0)
(0.0137272 0.00133911 0)
(0.0140959 0.00103019 0)
(0.0143514 0.000770462 0)
(0.0145181 0.000551759 0)
(0.0146154 0.000367047 0)
(0.0146583 0.000210485 0)
(0.0146585 7.73175e-05 0)
(0.0146257 -3.5662e-05 0)
(0.0145675 -0.000131187 0)
(0.0144897 -0.000213155 0)
(0.00139505 0.00390594 0)
(0.00403557 0.00366902 0)
(0.0063371 0.00328995 0)
(0.00825554 0.00284847 0)
(0.00980339 0.00240306 0)
(0.0110228 0.00198795 0)
(0.0119659 0.00161871 0)
(0.0126834 0.0012991 0)
(0.01322 0.00102663 0)
(0.0136129 0.000796064 0)
(0.0138921 0.000601425 0)
(0.0140814 0.000437017 0)
(0.0141998 0.000297827 0)
(0.0142623 0.000179631 0)
(0.0142806 7.89463e-05 0)
(0.0142644 -6.90894e-06 0)
(0.0142216 -7.92065e-05 0)
(0.0141579 -0.000141295 0)
(0.00131375 0.00272628 0)
(0.00380849 0.00256815 0)
(0.00600114 0.00231241 0)
(0.00784857 0.00201161 0)
(0.00935653 0.00170534 0)
(0.0105584 0.00141759 0)
(0.0114986 0.00115983 0)
(0.0122221 0.000935412 0)
(0.0127697 0.000743173 0)
(0.0131761 0.000579859 0)
(0.0134698 0.000441558 0)
(0.0136739 0.000324441 0)
(0.0138068 0.000225084 0)
(0.0138832 0.000140569 0)
(0.0139149 6.84702e-05 0)
(0.0139112 6.79944e-06 0)
(0.0138802 -4.50972e-05 0)
(0.0138278 -8.96113e-05 0)
(0.001247 0.0017552 0)
(0.0036201 0.00165662 0)
(0.00571736 0.00149597 0)
(0.0074971 0.00130575 0)
(0.00896126 0.00111089 0)
(0.0101377 0.00092679 0)
(0.0110653 0.000761091 0)
(0.011785 0.000616231 0)
(0.0123345 0.000491708 0)
(0.0127463 0.000385608 0)
(0.0130477 0.000295536 0)
(0.0132607 0.000219099 0)
(0.0134031 0.000154137 0)
(0.0134894 9.87904e-05 0)
(0.013531 5.15072e-05 0)
(0.0135372 1.10045e-05 0)
(0.0135156 -2.31523e-05 0)
(0.0134725 -5.23193e-05 0)
(0.00118366 0.000952294 0)
(0.00343945 0.000900043 0)
(0.0054404 0.000814406 0)
(0.00714661 0.000712568 0)
(0.0085579 0.000607821 0)
(0.0096983 0.0005085 0)
(0.0106029 0.000418811 0)
(0.0113092 0.000340174 0)
(0.0118521 0.000272403 0)
(0.0122622 0.00021453 0)
(0.0125652 0.0001653 0)
(0.0127823 0.000123448 0)
(0.0129304 8.78206e-05 0)
(0.0130235 5.74216e-05 0)
(0.0130726 3.14141e-05 0)
(0.0130866 9.10428e-06 0)
(0.0130731 -9.70458e-06 0)
(0.0130379 -2.55962e-05 0)
(0.00110021 0.000294437 0)
(0.00319905 0.000278508 0)
(0.00506544 0.000252312 0)
(0.00666218 0.000221084 0)
(0.00798797 0.000188892 0)
(0.00906375 0.000158304 0)
(0.00992089 0.00013063 0)
(0.0105933 0.000106324 0)
(0.0111129 8.53432e-05 0)
(0.0115078 6.74e-05 0)
(0.0118018 5.21162e-05 0)
(0.0120143 3.91066e-05 0)
(0.0121614 2.80187e-05 0)
(0.012256 1.85472e-05 0)
(0.0123084 1.04351e-05 0)
(0.0123272 3.46847e-06 0)
(0.0123195 -2.38954e-06 0)
(0.0122914 -7.26373e-06 0)
(0.000104665 -0.000704481 -9.10396e-30)
(0.000319401 -0.000714343 9.2289e-30)
(0.000552255 -0.000736447 0)
(0.000817254 -0.000776262 0)
(0.00113777 -0.000843966 0)
(0.00154288 -0.000961878 -1.24138e-29)
(0.00204957 -0.00116577 0)
(0.00263854 -0.00151161 0)
(0.00311534 -0.00207938 0)
(0.00273043 -0.00291861 0)
(0.00132438 -0.00367051 4.74246e-29)
(0.000268457 -0.00368652 0)
(3.65823e-05 -0.00329833 0)
(3.64952e-06 -0.00269086 0)
(-1.65104e-07 -0.0018049 0)
(-1.22697e-07 -0.000523113 6.76107e-30)
(-2.59865e-09 -1.06619e-05 0)
(1.24203e-18 -5.672e-22 0)
(3.23147e-26 1.30396e-22 0)
(1.6838e-31 5.20878e-33 0)
(1.64093e-31 1.50201e-33 0)
(1.62776e-31 -2.80955e-34 0)
(1.6292e-31 -1.0859e-33 0)
(1.63389e-31 -6.37725e-34 6.31366e-60)
(1.61935e-31 2.64467e-33 3.60931e-59)
(1.5834e-31 3.27989e-33 -4.42607e-59)
(1.54719e-31 2.6696e-33 -3.63301e-59)
(1.51696e-31 2.20281e-33 0)
(1.48863e-31 2.29993e-33 0)
(1.45638e-31 2.82262e-33 3.82008e-59)
(1.41955e-31 3.02554e-33 4.07799e-59)
(1.38098e-31 3.06077e-33 0)
(1.34163e-31 3.10096e-33 0)
(1.30171e-31 3.09982e-33 4.16008e-59)
(1.26185e-31 3.03832e-33 0)
(1.22273e-31 2.92839e-33 0)
(1.18487e-31 2.78419e-33 -3.73835e-59)
(1.14864e-31 2.62095e-33 0)
(1.11424e-31 2.45044e-33 -3.29865e-59)
(1.08173e-31 2.28051e-33 -6.15036e-59)
(1.05113e-31 2.11601e-33 0)
(1.02237e-31 1.95966e-33 0)
(9.95361e-32 1.81282e-33 0)
(9.70016e-32 1.67592e-33 0)
(9.46228e-32 1.54884e-33 0)
(9.23895e-32 1.43113e-33 -3.91751e-59)
(9.0292e-32 1.3222e-33 -3.63097e-59)
(8.83211e-32 1.22138e-33 -3.36571e-59)
(8.64682e-32 1.12803e-33 0)
(8.47254e-32 1.04155e-33 2.89236e-59)
(8.30854e-32 9.61358e-34 0)
(8.15416e-32 8.86957e-34 -2.48524e-59)
(8.00875e-32 8.17879e-34 -2.30325e-59)
(7.87176e-32 7.537e-34 0)
(7.74264e-32 6.94035e-34 0)
(7.62089e-32 6.38533e-34 0)
(7.50606e-32 5.86872e-34 -1.69424e-59)
(7.39772e-32 5.38759e-34 0)
(7.29547e-32 4.93924e-34 0)
(7.19894e-32 4.52122e-34 0)
(7.10779e-32 4.13125e-34 0)
(7.0217e-32 3.76726e-34 0)
(6.94037e-32 3.42734e-34 0)
(6.86352e-32 3.10972e-34 0)
(6.79089e-32 2.8128e-34 0)
(6.72224e-32 2.53508e-34 8.14008e-60)
(6.65734e-32 2.27519e-34 0)
(6.59599e-32 2.03187e-34 0)
(6.53798e-32 1.80396e-34 -6.20667e-60)
(6.48313e-32 1.59039e-34 -5.6417e-60)
(6.43126e-32 1.39018e-34 0)
(6.38222e-32 1.20242e-34 4.61496e-60)
(6.33585e-32 1.02627e-34 -4.1487e-60)
(6.292e-32 8.6097e-35 0)
(6.25055e-32 7.05804e-35 3.30018e-60)
(6.21136e-32 5.60114e-35 0)
(6.17432e-32 4.23294e-35 0)
(6.13931e-32 2.94782e-35 -2.21143e-60)
(6.10622e-32 1.74057e-35 0)
(6.07497e-32 6.06341e-36 1.59099e-60)
(6.04544e-32 -4.59349e-36 0)
(6.01756e-32 -1.46068e-35 -1.04314e-60)
(5.99123e-32 -2.40156e-35 -7.937e-61)
(5.96638e-32 -3.2856e-35 -5.59311e-61)
(5.94292e-32 -4.11621e-35 -6.78115e-61)
(5.92079e-32 -4.89655e-35 2.64266e-61)
(5.89992e-32 -5.62959e-35 0)
(5.88024e-32 -6.31811e-35 0)
(5.86169e-32 -6.96472e-35 0)
(5.84421e-32 -7.57185e-35 -1.15501e-60)
(5.82775e-32 -8.14181e-35 -1.45743e-60)
(5.81225e-32 -8.67675e-35 1.74132e-60)
(5.79765e-32 -9.17872e-35 0)
(5.78392e-32 -9.64961e-35 -2.25766e-60)
(5.77101e-32 -1.00912e-34 -2.49204e-60)
(5.75887e-32 -1.05053e-34 -2.71184e-60)
(5.74746e-32 -1.08934e-34 0)
(5.73674e-32 -1.1257e-34 0)
(5.72668e-32 -1.15976e-34 0)
(5.71723e-32 -1.19165e-34 -3.46106e-60)
(5.70837e-32 -1.22149e-34 0)
(5.70007e-32 -1.24942e-34 0)
(5.69228e-32 -1.27553e-34 3.90656e-60)
(5.68498e-32 -1.29995e-34 0)
(5.67815e-32 -1.32276e-34 0)
(5.67176e-32 -1.34407e-34 4.27055e-60)
(5.66578e-32 -1.36396e-34 0)
(5.66019e-32 -1.38253e-34 0)
(5.65497e-32 -1.39984e-34 -4.56681e-60)
(5.65009e-32 -1.41598e-34 -4.65257e-60)
(5.64554e-32 -1.43102e-34 0)
(5.64129e-32 -1.44503e-34 4.80688e-60)
(5.63733e-32 -1.45807e-34 0)
(5.63364e-32 -1.4702e-34 -4.94064e-60)
(5.6302e-32 -1.48148e-34 0)
(5.627e-32 -1.49196e-34 -5.05627e-60)
(5.62403e-32 -1.5017e-34 -5.10804e-60)
(5.62126e-32 -1.51074e-34 0)
(5.61869e-32 -1.51912e-34 0)
(5.6163e-32 -1.5269e-34 0)
(5.61408e-32 -1.5341e-34 0)
(5.61203e-32 -1.54078e-34 0)
(5.61012e-32 -1.54695e-34 0)
(5.60836e-32 -1.55266e-34 0)
(5.60672e-32 -1.55794e-34 -5.40695e-60)
(5.60521e-32 -1.56282e-34 5.4329e-60)
(5.60381e-32 -1.56732e-34 0)
(5.60252e-32 -1.57148e-34 0)
(5.60133e-32 -1.57531e-34 0)
(5.60023e-32 -1.57883e-34 0)
(5.59921e-32 -1.58208e-34 1.10706e-59)
(5.59828e-32 -1.58507e-34 0)
(5.59742e-32 -1.58781e-34 -1.11315e-59)
(5.59662e-32 -1.59033e-34 1.11584e-59)
(5.59589e-32 -1.59264e-34 0)
(5.59522e-32 -1.59476e-34 0)
(5.59461e-32 -1.59671e-34 0)
(5.59404e-32 -1.59848e-34 -1.1245e-59)
(5.59352e-32 -1.6001e-34 -1.12623e-59)
(5.59304e-32 -1.60158e-34 0)
(5.59261e-32 -1.60292e-34 -1.12923e-59)
(5.5922e-32 -1.60414e-34 -1.13053e-59)
(5.59183e-32 -1.60524e-34 1.1317e-59)
(5.59149e-32 -1.60623e-34 0)
(5.59118e-32 -1.60712e-34 0)
(5.59089e-32 -1.60791e-34 1.13455e-59)
(5.59063e-32 -1.60861e-34 0)
(5.59038e-32 -1.60921e-34 0)
(5.59015e-32 -1.60972e-34 0)
(5.58993e-32 -1.61013e-34 0)
(5.58972e-32 -1.61045e-34 -1.13729e-59)
(5.58952e-32 -1.61066e-34 -1.13753e-59)
(5.58932e-32 -1.61076e-34 0)
(5.58912e-32 -1.61074e-34 -1.13765e-59)
(5.58892e-32 -1.61058e-34 0)
(5.58871e-32 -1.61024e-34 0)
(5.58847e-32 -1.60971e-34 -1.13664e-59)
(5.58822e-32 -1.60895e-34 0)
(5.58792e-32 -1.60789e-34 -1.13481e-59)
(5.58758e-32 -1.60647e-34 0)
(5.58718e-32 -1.60459e-34 0)
(5.58669e-32 -1.60215e-34 -1.129e-59)
(5.58608e-32 -1.59899e-34 0)
(5.58534e-32 -1.59491e-34 -1.12164e-59)
(5.5844e-32 -1.58965e-34 0)
(5.58323e-32 -1.58285e-34 0)
(5.58173e-32 -1.57405e-34 0)
(5.57982e-32 -1.56261e-34 1.08876e-59)
(5.57735e-32 -1.54766e-34 0)
(5.57416e-32 -1.52799e-34 -1.0535e-59)
(5.57001e-32 -1.50185e-34 0)
(5.56454e-32 -1.46667e-34 0)
(5.55728e-32 -1.41852e-34 0)
(5.54752e-32 -1.35111e-34 0)
(5.53415e-32 -1.25372e-34 0)
(5.51539e-32 -1.10641e-34 0)
(5.48807e-32 -8.67541e-35 0)
(5.44573e-32 -4.33863e-35 -1.31353e-60)
(5.37213e-32 5.25692e-35 0)
(5.20901e-32 3.53453e-34 0)
(0.000243119 -0.00197888 2.55677e-29)
(0.000735506 -0.00200722 -2.59165e-29)
(0.00124364 -0.00206857 0)
(0.00177472 -0.00217216 5.60651e-29)
(0.00233385 -0.00233497 0)
(0.00292018 -0.00259183 -3.34642e-29)
(0.00351623 -0.00299265 -7.7192e-29)
(0.00406857 -0.00360596 -9.30195e-29)
(0.00445754 -0.00451432 0)
(0.00447757 -0.00574099 -1.48189e-28)
(0.00401103 -0.00683738 8.83237e-29)
(0.00335179 -0.00705246 0)
(0.00291773 -0.00674754 0)
(0.00289322 -0.00621179 0)
(0.00331584 -0.00556729 0)
(0.00285773 -0.00506911 6.54829e-29)
(0.00105832 -0.00573894 0)
(1.7497e-05 -0.00601515 1.55487e-28)
(1.90009e-07 -2.60314e-10 0)
(-1.86727e-30 7.92468e-33 0)
(-2.63787e-30 5.27166e-33 1.17125e-59)
(-2.51724e-30 3.32285e-33 0)
(-2.06609e-30 1.89989e-33 4.84467e-59)
(-1.12345e-30 1.05684e-33 -3.97476e-61)
(-2.42353e-31 3.13147e-33 3.76124e-59)
(1.09137e-31 5.52345e-32 -7.15177e-58)
(1.52854e-31 7.0969e-33 -9.35296e-59)
(1.5106e-31 4.54368e-33 0)
(1.49914e-31 5.7061e-33 0)
(1.46868e-31 9.68872e-33 1.26957e-58)
(1.4236e-31 9.87002e-33 3.91103e-58)
(1.38228e-31 9.49286e-33 0)
(1.34233e-31 9.73752e-33 0)
(1.30076e-31 9.782e-33 1.27965e-58)
(1.25915e-31 9.56299e-33 0)
(1.21872e-31 9.1942e-33 0)
(1.18004e-31 8.72134e-33 -1.14114e-58)
(1.14344e-31 8.2015e-33 0)
(1.10897e-31 7.67047e-33 -3.03961e-58)
(1.0766e-31 7.1492e-33 -1.87344e-58)
(1.04624e-31 6.64959e-33 0)
(1.01779e-31 6.17794e-33 0)
(9.91111e-32 5.73696e-33 3.05953e-58)
(9.66095e-32 5.32709e-33 2.84527e-58)
(9.42623e-32 4.94736e-33 2.64674e-58)
(9.20585e-32 4.59605e-33 -3.67282e-58)
(8.99883e-32 4.27111e-33 -1.1253e-58)
(8.80423e-32 3.97044e-33 1.08869e-58)
(8.62122e-32 3.69203e-33 -1.99015e-58)
(8.44901e-32 3.43405e-33 9.07629e-59)
(8.28691e-32 3.19482e-33 0)
(8.13425e-32 2.97281e-33 -7.87657e-59)
(7.99042e-32 2.76664e-33 -2.2398e-58)
(7.85486e-32 2.57507e-33 0)
(7.72706e-32 2.39694e-33 0)
(7.60652e-32 2.23121e-33 0)
(7.49279e-32 2.07693e-33 -5.54563e-59)
(7.38547e-32 1.93322e-33 0)
(7.28415e-32 1.79929e-33 -9.98999e-59)
(7.18847e-32 1.6744e-33 0)
(7.09811e-32 1.55788e-33 -8.72435e-59)
(7.01273e-32 1.44911e-33 0)
(6.93207e-32 1.34751e-33 7.62111e-59)
(6.85582e-32 1.25258e-33 0)
(6.78376e-32 1.16381e-33 -6.65741e-59)
(6.71562e-32 1.08078e-33 9.17403e-59)
(6.6512e-32 1.00308e-33 0)
(6.59029e-32 9.30318e-34 5.43199e-59)
(6.53268e-32 8.62159e-34 -2.38286e-59)
(6.47821e-32 7.98283e-34 -2.21646e-59)
(6.42669e-32 7.38396e-34 0)
(6.37797e-32 6.82229e-34 6.04345e-59)
(6.33189e-32 6.29531e-34 -1.77679e-59)
(6.28832e-32 5.80073e-34 0)
(6.24712e-32 5.33645e-34 1.52693e-59)
(6.20817e-32 4.90048e-34 3.11977e-59)
(6.17135e-32 4.49103e-34 0)
(6.13654e-32 4.10642e-34 -1.20636e-59)
(6.10365e-32 3.74508e-34 0)
(6.07257e-32 3.40559e-34 -1.31043e-59)
(6.04321e-32 3.08659e-34 0)
(6.01547e-32 2.78684e-34 1.14644e-59)
(5.98929e-32 2.50517e-34 -7.88974e-60)
(5.96457e-32 2.24051e-34 -2.44157e-59)
(5.94124e-32 1.99183e-34 -4.49193e-59)
(5.91922e-32 1.75819e-34 4.12438e-59)
(5.89846e-32 1.53871e-34 0)
(5.87888e-32 1.33255e-34 0)
(5.86043e-32 1.13894e-34 0)
(5.84304e-32 9.57133e-35 -1.32252e-59)
(5.82665e-32 7.86458e-35 6.81715e-60)
(5.81123e-32 6.26263e-35 -5.98167e-60)
(5.79671e-32 4.75941e-35 0)
(5.78304e-32 3.34921e-35 1.88478e-59)
(5.77019e-32 2.02663e-35 3.77235e-60)
(5.75811e-32 7.86593e-36 3.12557e-60)
(5.74675e-32 -3.75685e-36 0)
(5.73609e-32 -1.46472e-35 0)
(5.72607e-32 -2.48479e-35 0)
(5.71667e-32 -3.4399e-35 9.20954e-61)
(5.70785e-32 -4.33386e-35 0)
(5.69958e-32 -5.17026e-35 5.41908e-60)
(5.69183e-32 -5.95249e-35 4.98543e-60)
(5.68457e-32 -6.68375e-35 -3.82586e-60)
(5.67777e-32 -7.36708e-35 0)
(5.6714e-32 -8.00533e-35 -9.73812e-61)
(5.66545e-32 -8.6012e-35 0)
(5.65989e-32 -9.15725e-35 -1.22172e-60)
(5.65469e-32 -9.67589e-35 -1.65666e-60)
(5.64983e-32 -1.01594e-34 -2.418e-60)
(5.6453e-32 -1.061e-34 0)
(5.64107e-32 -1.10296e-34 2.28874e-60)
(5.63713e-32 -1.14202e-34 1.16111e-60)
(5.63345e-32 -1.17835e-34 -3.43192e-60)
(5.63003e-32 -1.21214e-34 0)
(5.62684e-32 -1.24355e-34 -3.77206e-60)
(5.62388e-32 -1.27271e-34 -1.38681e-60)
(5.62112e-32 -1.29979e-34 0)
(5.61856e-32 -1.32491e-34 3.08723e-60)
(5.61618e-32 -1.3482e-34 3.33253e-60)
(5.61398e-32 -1.36978e-34 3.55986e-60)
(5.61193e-32 -1.38977e-34 0)
(5.61003e-32 -1.40827e-34 0)
(5.60828e-32 -1.42538e-34 0)
(5.60665e-32 -1.4412e-34 -9.11557e-60)
(5.60514e-32 -1.45581e-34 4.87971e-60)
(5.60375e-32 -1.4693e-34 0)
(5.60247e-32 -1.48174e-34 -4.73924e-60)
(5.60128e-32 -1.49321e-34 -4.86008e-60)
(5.60018e-32 -1.50378e-34 0)
(5.59917e-32 -1.51351e-34 1.03616e-59)
(5.59824e-32 -1.52246e-34 -1.03364e-59)
(5.59738e-32 -1.53068e-34 -1.05409e-59)
(5.59659e-32 -1.53823e-34 2.12886e-59)
(5.59587e-32 -1.54516e-34 0)
(5.5952e-32 -1.55151e-34 0)
(5.59458e-32 -1.55733e-34 0)
(5.59402e-32 -1.56264e-34 -1.08745e-59)
(5.5935e-32 -1.5675e-34 -2.22109e-59)
(5.59303e-32 -1.57192e-34 -1.1379e-59)
(5.59259e-32 -1.57595e-34 -1.10135e-59)
(5.59219e-32 -1.5796e-34 -2.25926e-59)
(5.59182e-32 -1.58291e-34 1.10861e-59)
(5.59148e-32 -1.58588e-34 0)
(5.59117e-32 -1.58854e-34 0)
(5.59088e-32 -1.59091e-34 2.29495e-59)
(5.59062e-32 -1.59299e-34 0)
(5.59037e-32 -1.5948e-34 0)
(5.59014e-32 -1.59632e-34 -1.18944e-59)
(5.58992e-32 -1.59756e-34 0)
(5.58972e-32 -1.59852e-34 -2.3191e-59)
(5.58952e-32 -1.59916e-34 -1.12563e-59)
(5.58932e-32 -1.59947e-34 0)
(5.58912e-32 -1.5994e-34 -2.32213e-59)
(5.58892e-32 -1.59891e-34 0)
(5.58871e-32 -1.59792e-34 0)
(5.58848e-32 -1.59635e-34 -1.12282e-59)
(5.58823e-32 -1.59406e-34 -1.18548e-59)
(5.58794e-32 -1.5909e-34 -1.11724e-59)
(5.5876e-32 -1.58666e-34 0)
(5.5872e-32 -1.58107e-34 0)
(5.58672e-32 -1.57379e-34 -2.24383e-59)
(5.58612e-32 -1.56436e-34 0)
(5.58539e-32 -1.55219e-34 -2.17743e-59)
(5.58447e-32 -1.53648e-34 0)
(5.58331e-32 -1.51619e-34 0)
(5.58183e-32 -1.48994e-34 0)
(5.57995e-32 -1.45582e-34 9.78332e-60)
(5.57753e-32 -1.41127e-34 0)
(5.57439e-32 -1.35264e-34 -8.72171e-60)
(5.57031e-32 -1.27479e-34 0)
(5.56495e-32 -1.1701e-34 0)
(5.55784e-32 -1.02702e-34 -2.43557e-61)
(5.5483e-32 -8.27096e-35 -3.85468e-60)
(5.5353e-32 -5.3911e-35 0)
(5.51719e-32 -1.05833e-35 0)
(5.49116e-32 5.89524e-35 0)
(5.45207e-32 1.82335e-34 6.85985e-59)
(5.38995e-32 4.39722e-34 0)
(5.29196e-32 1.13311e-33 -5.08624e-58)
(0.000231611 -0.00306827 1.58598e-28)
(0.000697418 -0.00310586 -1.66325e-32)
(0.00116756 -0.0031846 0)
(0.00164059 -0.00331027 3.89113e-32)
(0.0021121 -0.00349207 0)
(0.00257313 -0.0037473 0)
(0.00300687 -0.00409323 -2.1126e-28)
(0.00338376 -0.00454172 -1.17241e-28)
(0.00366083 -0.00508825 1.31268e-28)
(0.00379369 -0.00569048 -1.46916e-28)
(0.00377457 -0.00623471 0)
(0.00367007 -0.00659885 0)
(0.00357656 -0.00681595 -1.75934e-28)
(0.00353824 -0.0070134 -3.62082e-28)
(0.00347918 -0.00739977 3.82065e-28)
(0.00304268 -0.00834654 0)
(0.00167178 -0.00958073 4.95074e-28)
(-0.000651043 -0.0095236 2.4621e-28)
(-0.000731795 -0.00253012 0)
(0.00150104 -0.00209152 1.07916e-28)
(0.00332892 -0.00199936 -5.1525e-29)
(0.00498281 -0.00225308 -1.15775e-28)
(0.00586275 -0.00305734 7.87535e-29)
(0.00300327 -0.00482234 0)
(3.25918e-05 -0.004569 2.36206e-28)
(4.52761e-08 -1.03381e-10 -1.06894e-36)
(-3.12116e-30 1.16119e-32 0)
(-3.40011e-30 1.01614e-32 -4.36847e-59)
(-1.68011e-30 7.29903e-33 0)
(-2.91477e-31 7.58553e-33 -3.50872e-58)
(1.22722e-31 5.50127e-32 1.42784e-57)
(1.37887e-31 1.34984e-32 0)
(1.34657e-31 1.67965e-32 0)
(1.2991e-31 1.71608e-32 0)
(1.25257e-31 1.64735e-32 0)
(1.20944e-31 1.57201e-32 0)
(1.16928e-31 1.47691e-32 0)
(1.13225e-31 1.38015e-32 -7.29558e-58)
(1.09795e-31 1.28585e-32 3.4275e-58)
(1.06606e-31 1.1958e-32 0)
(1.03634e-31 1.11098e-32 0)
(1.00858e-31 1.03182e-32 0)
(9.82614e-32 9.5838e-33 1.01414e-57)
(9.58286e-32 8.90485e-33 4.69419e-58)
(9.3546e-32 8.27792e-33 -4.41623e-60)
(9.14018e-32 7.69898e-33 4.31501e-60)
(8.9386e-32 7.16389e-33 3.83025e-58)
(8.74896e-32 6.66881e-33 3.53031e-58)
(8.57045e-32 6.2103e-33 -6.62362e-58)
(8.40235e-32 5.78526e-33 -3.10992e-58)
(8.24399e-32 5.39094e-33 0)
(8.09474e-32 5.02486e-33 -2.71245e-58)
(7.95403e-32 4.68479e-33 -5.03173e-58)
(7.82132e-32 4.36867e-33 0)
(7.69612e-32 4.07464e-33 0)
(7.57797e-32 3.801e-33 2.07241e-58)
(7.46644e-32 3.54619e-33 0)
(7.36112e-32 3.30878e-33 0)
(7.26164e-32 3.08745e-33 -5.06282e-58)
(7.16766e-32 2.88101e-33 -3.18195e-58)
(7.07885e-32 2.68836e-33 -1.4567e-58)
(6.9949e-32 2.50847e-33 0)
(6.91555e-32 2.34043e-33 1.27528e-58)
(6.84052e-32 2.18335e-33 0)
(6.76956e-32 2.03647e-33 -3.41419e-58)
(6.70246e-32 1.89903e-33 1.04507e-58)
(6.63898e-32 1.77038e-33 2.01861e-58)
(6.57894e-32 1.6499e-33 2.80744e-58)
(6.52214e-32 1.53701e-33 0)
(6.46841e-32 1.43119e-33 -1.66307e-58)
(6.41758e-32 1.33197e-33 0)
(6.36949e-32 1.23889e-33 -7.60788e-59)
(6.32401e-32 1.15154e-33 -1.36983e-58)
(6.28098e-32 1.06955e-33 -1.28383e-58)
(6.24029e-32 9.92574e-34 1.20309e-58)
(6.20181e-32 9.20279e-34 -5.92906e-59)
(6.16543e-32 8.52372e-34 0)
(6.13103e-32 7.88576e-34 0)
(6.09851e-32 7.28633e-34 9.26163e-59)
(6.06778e-32 6.72307e-34 4.62177e-59)
(6.03875e-32 6.19376e-34 0)
(6.01132e-32 5.69633e-34 3.51262e-59)
(5.98542e-32 5.22887e-34 0)
(5.96096e-32 4.78959e-34 3.60201e-59)
(5.93788e-32 4.37681e-34 -1.18548e-58)
(5.9161e-32 3.98896e-34 1.10424e-58)
(5.89555e-32 3.62458e-34 -5.41799e-59)
(5.87617e-32 3.2823e-34 0)
(5.8579e-32 2.96082e-34 4.72102e-59)
(5.84069e-32 2.65894e-34 -8.25643e-59)
(5.82447e-32 2.37552e-34 0)
(5.80919e-32 2.10949e-34 0)
(5.79481e-32 1.85984e-34 0)
(5.78128e-32 1.62563e-34 2.77279e-59)
(5.76856e-32 1.40596e-34 0)
(5.75659e-32 1.2e-34 0)
(5.74534e-32 1.00694e-34 0)
(5.73477e-32 8.26036e-35 0)
(5.72485e-32 6.56587e-35 0)
(5.71554e-32 4.97923e-35 -2.13411e-59)