/*--------------------------------*- C++ -*----------------------------------*\
  =========                 |
  \\      /  F ield         | OpenFOAM: The Open Source CFD Toolbox
   \\    /   O peration     | Website:  https://openfoam.org
    \\  /    A nd           | Version:  11
     \\/     M anipulation  |
\*---------------------------------------------------------------------------*/
FoamFile
{
    format      ascii;
    class       surfaceScalarField;
    location    "21";
    object      phi;
}
// * * * * * * * * * * * * * * * * * * * * * * * * * * * * * * * * * * * * * //

dimensions      [0 3 -1 0 0 0 0];

internalField   nonuniform List<scalar> 
4000
(
0.0250301
-3.00741e-05
0.0251206
-9.04911e-05
0.0252724
-0.000151852
0.0254876
-0.000215138
0.0257685
-0.000280937
0.026118
-0.000349467
0.0265384
-0.000420447
0.0270314
-0.000493015
0.0275971
-0.00056567
0.0282333
-0.000636243
0.0289352
-0.000701909
0.0296946
-0.00075937
0.0304998
-0.000805156
0.0313358
-0.00083607
0.0321856
-0.000849743
0.0330307
-0.00084514
0.0338537
-0.000822971
0.0346396
-0.000785925
0.0353778
-0.000738153
0.0360619
-0.000684104
0.0366894
-0.000627528
0.0372606
-0.000571196
0.0377777
-0.000517084
0.0382443
-0.000466578
0.0386648
-0.000420551
0.0390442
-0.000379426
0.0393875
-0.000343298
0.0396996
-0.000312067
0.0399851
-0.000285516
0.0402485
-0.000263342
0.0404936
-0.00024518
0.0407243
-0.000230629
0.0409435
-0.000219277
0.0411543
-0.000210712
0.0413588
-0.000204528
0.0415591
-0.000200317
0.0417568
-0.000197681
0.041953
-0.000196225
0.0421486
-0.000195562
0.0423439
-0.000195316
0.042539
-0.000195125
0.0427337
-0.000194646
0.0429272
-0.000193558
0.0431188
-0.000191567
0.0433072
-0.000188417
0.0434911
-0.000183883
0.0436689
-0.000177794
0.0438389
-0.000170006
0.0439993
-0.000160453
0.0441484
-0.000149071
0.0442843
-0.000135921
0.0444053
-0.000120996
0.0445099
-0.000104527
0.0445963
-8.64828e-05
0.0446637
-6.73883e-05
0.0447107
-4.69829e-05
0.044737
-2.63418e-05
0.0447417
-4.64201e-06
0.0447261
1.55509e-05
0.0446888
3.73657e-05
0.044634
5.47573e-05
0.0445582
7.58157e-05
0.0444719
8.62767e-05
0.000108028
0.0250298
-5.98358e-05
0.0251192
-0.000179906
0.0252693
-0.000302016
0.0254825
-0.000428273
0.0257615
-0.00055994
0.0261096
-0.00069754
0.0265297
-0.000840609
0.0270242
-0.00098748
0.0275937
-0.00113517
0.0282367
-0.00127928
0.0289488
-0.001414
0.0297219
-0.00153244
0.0305438
-0.00162712
0.0313988
-0.00169104
0.032268
-0.00171895
0.0331314
-0.00170849
0.0339696
-0.00166124
0.0347671
-0.00158335
0.0355129
-0.00148402
0.0362014
-0.00137261
0.0368306
-0.00125673
0.0374013
-0.0011419
0.0379164
-0.0010321
0.0383798
-0.00093006
0.0387967
-0.000837421
0.0391722
-0.000754894
0.0395115
-0.000682575
0.0398196
-0.000620208
0.0401014
-0.00056732
0.0403613
-0.000523264
0.0406034
-0.000487276
0.0408313
-0.000458535
0.0410483
-0.000436207
0.041257
-0.000419465
0.04146
-0.000407486
0.0416591
-0.000399457
0.041856
-0.000394573
0.0420518
-0.000392042
0.0422473
-0.000391088
0.042443
-0.000390954
0.0426388
-0.000390912
0.0428344
-0.000390267
0.0430292
-0.000388372
0.0432223
-0.000384634
0.0434124
-0.000378535
0.0435981
-0.000369622
0.0437779
-0.000357546
0.0439499
-0.000342021
0.0441123
-0.00032291
0.0442634
-0.00030009
0.0444011
-0.000273674
0.0445238
-0.000243658
0.0446297
-0.000210485
0.0447174
-0.000174126
0.0447856
-0.000135586
0.044833
-9.44262e-05
0.0448594
-5.27081e-05
0.0448636
-8.84243e-06
0.0448469
3.22016e-05
0.044808
7.63422e-05
0.0447509
0.000111776
0.0446724
0.00015431
0.0445828
0.00017589
0.00021954
0.0250289
-8.87806e-05
0.025116
-0.000266981
0.0252626
-0.000448551
0.0254713
-0.000636993
0.0257458
-0.000834505
0.0260904
-0.00104214
0.0265094
-0.00125952
0.0270061
-0.00148425
0.0275829
-0.00171194
0.0282394
-0.00193577
0.028972
-0.00214659
0.0297729
-0.0023334
0.0306295
-0.00248364
0.0315236
-0.0025852
0.0324334
-0.00262871
0.0333344
-0.00260946
0.0342036
-0.00253049
0.0350238
-0.0024035
0.0357844
-0.00224468
0.0364809
-0.00206914
0.0371126
-0.0018884
0.0376815
-0.00171076
0.0381916
-0.00154221
0.0386482
-0.00138673
0.0390572
-0.00124643
0.0394244
-0.00112204
0.0397553
-0.00101348
0.0400553
-0.000920248
0.0403295
-0.000841511
0.0405825
-0.000776196
0.0408183
-0.000723081
0.0410406
-0.00068089
0.0412528
-0.000648352
0.0414575
-0.000624209
0.0416572
-0.000607218
0.0418539
-0.000596149
0.0420492
-0.000589788
0.0422441
-0.000586942
0.0424394
-0.000586434
0.0426356
-0.00058712
0.0428325
-0.000587891
0.04303
-0.000587691
0.0432271
-0.000585537
0.043423
-0.000580523
0.0436163
-0.000571857
0.0438056
-0.00055885
0.043989
-0.00054097
0.0441648
-0.000517784
0.0443309
-0.00048908
0.0444855
-0.000454679
0.0446266
-0.000414747
0.0447522
-0.00036929
0.0448607
-0.000318952
0.0449503
-0.000263724
0.0450198
-0.000205051
0.0450677
-0.000142351
0.0450937
-7.87766e-05
0.0450967
-1.17953e-05
0.0450775
5.13526e-05
0.0450349
0.000118952
0.0449732
0.000173508
0.0448888
0.000238696
0.0447926
0.000272153
0.000338508
0.0250276
-0.000116381
0.0251107
-0.000350121
0.0252511
-0.000588907
0.0254522
-0.000838056
0.0257187
-0.00110104
0.0260564
-0.00137983
0.0264715
-0.00167461
0.0269698
-0.00198256
0.027556
-0.00229816
0.0282319
-0.00261172
0.0289955
-0.00291013
0.0298395
-0.00317737
0.0307498
-0.00339403
0.0317061
-0.00354141
0.0326805
-0.00360314
0.0336406
-0.00356963
0.0345573
-0.00344714
0.0354111
-0.00325734
0.0361928
-0.0030264
0.0368998
-0.00277604
0.0375332
-0.00252182
0.0380973
-0.00227489
0.0385984
-0.00204328
0.0390435
-0.00183183
0.0394396
-0.00164257
0.0397934
-0.00147582
0.040111
-0.00133112
0.0403984
-0.00120756
0.0406607
-0.00110381
0.0409027
-0.00101824
0.0411287
-0.000949068
0.0413423
-0.00089454
0.0415469
-0.00085292
0.0417452
-0.000822507
0.0419396
-0.000801626
0.0421321
-0.000788626
0.0423242
-0.000781879
0.042517
-0.000779779
0.0427113
-0.000780741
0.0429074
-0.000783215
0.0431052
-0.000785701
0.0433043
-0.000786762
0.0435038
-0.000785058
0.0437027
-0.000779358
0.0438994
-0.00076858
0.0440923
-0.00075179
0.0442796
-0.000728263
0.0444592
-0.000697423
0.0446291
-0.000658977
0.0447872
-0.000612704
0.0449312
-0.000558821
0.0450593
-0.000497367
0.0451696
-0.000429187
0.0452602
-0.000354323
0.0453297
-0.000274619
0.0453767
-0.000189355
0.0454007
-0.000102759
0.0454003
-1.134e-05
0.045376
7.56005e-05
0.0453269
0.000168074
0.045257
0.000243389
0.045163
0.000332696
0.0450558
0.000379305
0.000469357
0.0250255
-0.000141905
0.0251026
-0.000427202
0.0252333
-0.000719643
0.0254223
-0.00102699
0.0256755
-0.0013543
0.0260008
-0.00170506
0.0264069
-0.00208074
0.0269029
-0.00247858
0.027498
-0.00289327
0.0281976
-0.00331128
0.0290029
-0.00371548
0.0299075
-0.00408189
0.0308948
-0.00438138
0.0319411
-0.00458772
0.0330092
-0.0046712
0.0340524
-0.0046128
0.0350328
-0.00442757
0.0359302
-0.00415477
0.0367378
-0.00383395
0.0374555
-0.00349381
0.0380878
-0.00315412
0.0386424
-0.00282942
0.0391287
-0.00252958
0.0395562
-0.00225934
0.0399333
-0.00201966
0.0402675
-0.00181003
0.0405658
-0.00162941
0.0408345
-0.00147629
0.0410793
-0.0013486
0.041305
-0.00124395
0.0415159
-0.00115998
0.0417157
-0.00109438
0.0419078
-0.00104494
0.0420947
-0.00100949
0.042279
-0.000985909
0.0424625
-0.00097213
0.0426467
-0.000966101
0.0428328
-0.000965793
0.0430212
-0.000969203
0.0432124
-0.00097436
0.043406
-0.00097935
0.0436016
-0.000982342
0.0437982
-0.000981622
0.0439944
-0.000975622
0.0441888
-0.000962963
0.0443795
-0.00094247
0.0445644
-0.000913227
0.0447416
-0.000874536
0.0449086
-0.000826029
0.0450634
-0.000767484
0.0452037
-0.000699158
0.0453275
-0.000621179
0.0454329
-0.000534569
0.0455181
-0.000439517
0.0455817
-0.000338192
0.0456224
-0.000230065
0.0456393
-0.000119709
0.0456305
-2.45252e-06
0.0455966
0.00010948
0.0455369
0.000227785
0.0454547
0.000325518
0.0453473
0.000440168
0.0452253
0.000501309
0.000615485
0.0250225
-0.000164359
0.0250907
-0.000495439
0.0252071
-0.000836079
0.0253778
-0.00119767
0.0256102
-0.00158667
0.0259148
-0.00200963
0.0263033
-0.00246931
0.026789
-0.00296424
0.0273874
-0.0034917
0.0281094
-0.00403328
0.028966
-0.00457202
0.0299515
-0.00506747
0.0310466
-0.00547647
0.0322224
-0.00576351
0.0334211
-0.00586986
0.0345735
-0.0057652
0.0356341
-0.00548819
0.0365849
-0.00510552
0.0374221
-0.00467122
0.038149
-0.00422072
0.038774
-0.00377906
0.0393099
-0.00336535
0.0397711
-0.00299074
0.0401696
-0.00265782
0.0405152
-0.00236528
0.0408166
-0.00211148
0.0410819
-0.00189469
0.041318
-0.0017124
0.0415309
-0.00156145
0.0417255
-0.00143858
0.0419062
-0.00134069
0.0420768
-0.00126491
0.0422403
-0.00120849
0.0423996
-0.00116878
0.0425569
-0.00114319
0.042714
-0.00112923
0.0428723
-0.00112443
0.0430328
-0.00112632
0.0431961
-0.00113248
0.0433623
-0.00114052
0.043531
-0.00114811
0.0437017
-0.00115303
0.0438733
-0.00115321
0.0440445
-0.00114676
0.0442135
-0.00113204
0.0443787
-0.00110766
0.0445381
-0.00107258
0.0446896
-0.00102603
0.0448311
-0.000967588
0.0449608
-0.000897122
0.0450765
-0.000814916
0.0451766
-0.000721248
0.0452593
-0.000617254
0.0453231
-0.000503347
0.0453667
-0.000381829
0.0453894
-0.000252739
0.0453912
-0.000121488
0.0453677
2.10861e-05
0.0453205
0.000156597
0.0452488
0.000299515
0.0451545
0.000419784
0.0450352
0.000559525
0.0449005
0.000635943
0.000773152
0.0250181
-0.00018246
0.025074
-0.000551362
0.0251699
-0.000931972
0.0253142
-0.00134195
0.0255146
-0.00178702
0.0257869
-0.00228196
0.0261444
-0.00282688
0.0266076
-0.00342738
0.0271979
-0.00408199
0.0279316
-0.00476704
0.028842
-0.00548233
0.0299257
-0.0061512
0.0311706
-0.00672135
0.032537
-0.00712992
0.0339198
-0.00725274
0.0352178
-0.00706318
0.0363821
-0.00665242
0.0373971
-0.00612056
0.0382603
-0.0055344
0.0389778
-0.00493826
0.0395655
-0.00436676
0.0400461
-0.00384595
0.0404411
-0.00338569
0.0407662
-0.00298292
0.0410338
-0.00263296
0.0412553
-0.00233293
0.0414402
-0.00207963
0.0415965
-0.00186871
0.0417305
-0.00169543
0.0418473
-0.0015554
0.0419513
-0.0014447
0.0420461
-0.00135972
0.0421347
-0.0012971
0.0422196
-0.00125365
0.0423028
-0.00122636
0.0423858
-0.00121229
0.04247
-0.00120859
0.0425561
-0.00121241
0.0426445
-0.00122094
0.0427355
-0.00123144
0.0428286
-0.00124124
0.0429234
-0.00124781
0.043019
-0.0012488
0.0431143
-0.00124211
0.0432082
-0.00122593
0.0432993
-0.00119878
0.0433863
-0.00115954
0.0434677
-0.00110746
0.0435423
-0.00104216
0.0436088
-0.000963592
0.0436659
-0.000872089
0.0437127
-0.000768071
0.0437482
-0.000652668
0.0437712
-0.000526395
0.0437809
-0.000391519
0.0437769
-0.000248782
0.0437595
-0.000104001
0.043724
5.65146e-05
0.0436719
0.000208709
0.043601
0.000370455
0.0435121
0.00050868
0.0434013
0.000670295
0.0432765
0.000760752
0.000919988
0.0250122
-0.000194703
0.0250518
-0.00059095
0.0251194
-0.00099951
0.025227
-0.00144962
0.0253792
-0.00193914
0.0256029
-0.00250572
0.0259062
-0.00313018
0.026332
-0.00385316
0.0268951
-0.00464514
0.0276272
-0.00549906
0.0285881
-0.0064433
0.0297601
-0.0073232
0.0312147
-0.00817593
0.0328805
-0.00879569
0.0345383
-0.00891057
0.0360321
-0.00855697
0.037304
-0.00792435
0.0383359
-0.00715246
0.0391304
-0.0063289
0.0397103
-0.00551814
0.0401161
-0.00477257
0.0403933
-0.0041231
0.0405751
-0.00356753
0.0406837
-0.00309155
0.0407373
-0.00268652
0.0407512
-0.00234678
0.0407368
-0.0020653
0.0407024
-0.00183431
0.0406539
-0.00164688
0.0405957
-0.00149721
0.0405313
-0.00138034
0.0404634
-0.00129184
0.040394
-0.00122766
0.0403245
-0.0011842
0.0402563
-0.00115813
0.0401903
-0.00114628
0.0401273
-0.00114556
0.0400678
-0.00115294
0.0400123
-0.00116542
0.039961
-0.00118013
0.039914
-0.00119425
0.0398713
-0.00120514
0.0398329
-0.00121036
0.0397985
-0.00120773
0.0397679
-0.00119537
0.039741
-0.00117179
0.0397172
-0.00113582
0.0396965
-0.00108673
0.0396785
-0.00102411
0.0396628
-0.000947927
0.0396492
-0.000858462
0.0396373
-0.000756158
0.0396266
-0.000641993
0.0396167
-0.000516466
0.0396067
-0.000381596
0.0395956
-0.000237688
0.0395813
-8.97101e-05
0.0395643
7.35232e-05
0.0395424
0.000230622
0.0395122
0.000400686
0.0394743
0.000546606
0.0394201
0.000724461
0.0393573
0.000823504
0.00101127
0.0250049
-0.000199639
0.0250238
-0.000609782
0.0250546
-0.00103031
0.0251136
-0.00150865
0.0251969
-0.00202245
0.025349
-0.00265782
0.0255565
-0.00333766
0.0259221
-0.00421881
0.0264103
-0.00513327
0.027157
-0.00624576
0.0281614
-0.00744769
0.029381
-0.00854281
0.0311916
-0.00998653
0.0333381
-0.0109422
0.0353104
-0.0108828
0.036879
-0.0101256
0.0379966
-0.00904201
0.0386816
-0.00783745
0.0389976
-0.00664489
0.0390283
-0.00554884
0.0388729
-0.00461717
0.0386128
-0.003863
0.038289
-0.00324374
0.0379279
-0.00273043
0.0375525
-0.00231117
0.0371787
-0.00197298
0.0368149
-0.00170144
0.036465
-0.00148447
0.0361311
-0.00131296
0.0358137
-0.0011798
0.0355125
-0.00107916
0.0352268
-0.00100615
0.0349556
-0.000956445
0.034698
-0.000926588
0.0344534
-0.000913477
0.0342213
-0.000914191
0.0340016
-0.000925919
0.0337946
-0.000945884
0.0336005
-0.000971325
0.0334198
-0.00099951
0.0332533
-0.00102774
0.0331016
-0.00105341
0.0329653
-0.00107402
0.0328448
-0.00108727
0.0327406
-0.0010911
0.0326525
-0.00108379
0.0325807
-0.00106394
0.0325245
-0.00103059
0.0324836
-0.000983147
0.0324571
-0.000921419
0.0324442
-0.000845615
0.0324441
-0.000756088
0.0324559
-0.000653786
0.0324786
-0.000539119
0.032511
-0.000413978
0.0325507
-0.000277411
0.0325959
-0.000134963
0.032649
2.04489e-05
0.0327076
0.000172073
0.0327662
0.000342102
0.0328264
0.000486318
0.0328739
0.000677011
0.03292
0.000777362
0.00100859
0.0249967
-0.000196301
0.02499
-0.000603111
0.0249773
-0.00101764
0.0249739
-0.00150523
0.0249699
-0.00201847
0.0250175
-0.00270545
0.0250769
-0.00339702
0.025322
-0.00446393
0.0256174
-0.00542864
0.0264215
-0.00704984
0.0273607
-0.00838694
0.0288263
-0.0100084
0.0312891
-0.0124494
0.0337679
-0.013421
0.0354362
-0.0125512
0.0362223
-0.0109116
0.0362539
-0.0090736
0.0357081
-0.0072917
0.0347962
-0.00573292
0.0336791
-0.00443176
0.0325203
-0.00345837
0.0314164
-0.00275915
0.0303859
-0.00221322
0.0294454
-0.0017899
0.0286073
-0.00147311
0.0278702
-0.00123585
0.0272257
-0.00105689
0.0266639
-0.000922694
0.026175
-0.000824067
0.0257494
-0.000754171
0.0253781
-0.00070786
0.0250532
-0.000681315
0.0247685
-0.00067166
0.0245186
-0.000676722
0.0242998
-0.00069465
0.0241092
-0.000723662
0.0239452
-0.000761887
0.0238066
-0.000807236
0.0236926
-0.00085739
0.0236029
-0.000909822
0.023537
-0.000961815
0.0234941
-0.00101053
0.0234732
-0.00105312
0.0234728
-0.00108687
0.023491
-0.00110931
0.0235256
-0.0011184
0.0235743
-0.00111257
0.0236345
-0.00109084
0.0237042
-0.0010528
0.0237813
-0.00099858
0.0238645
-0.000928829
0.0239527
-0.000844274
0.0240453
-0.000746343
0.0241416
-0.000635445
0.0242415
-0.000513892
0.0243449
-0.000380818
0.0244524
-0.000242391
0.0245634
-9.06169e-05
0.024681
5.45336e-05
0.0248017
0.000221387
0.0249269
0.000361082
0.0250439
0.00056007
0.0251606
0.000660575
0.000941169
0.0249879
-0.000184247
0.0249516
-0.000566734
0.0248918
-0.000957876
0.0248122
-0.00142564
0.0247119
-0.00191818
0.0246141
-0.00260765
0.0244967
-0.00327955
0.0244928
-0.00446007
0.0244562
-0.00539201
0.0250856
-0.00767928
0.0256189
-0.0089202
0.0282255
-0.012615
0.0308398
-0.0150636
0.0319449
-0.0145262
0.0314263
-0.0120326
0.0298687
-0.00935398
0.0276884
-0.00689327
0.0252536
-0.00485694
0.0228619
-0.00334116
0.0206062
-0.00217607
0.018714
-0.00156624
0.0171995
-0.00124465
0.0160214
-0.00103508
0.0151534
-0.000921953
0.0145395
-0.000859168
0.0141211
-0.000817447
0.0138507
-0.000786527
0.0136911
-0.000763075
0.0136131
-0.000746028
0.0135946
-0.000735672
0.0136194
-0.000732742
0.0136762
-0.000738019
0.0137566
-0.00075214
0.0138554
-0.000775454
0.0139686
-0.000807882
0.0140938
-0.000848857
0.0142292
-0.000897248
0.0143731
-0.000951196
0.0145241
-0.00100838
0.0146804
-0.00106607
0.0148398
-0.00112127
0.0150002
-0.00117088
0.0151589
-0.00121189
0.0153136
-0.00124157
0.015462
-0.00125764
0.015602
-0.00125841
0.0157322
-0.00124281
0.0158518
-0.00121046
0.0159607
-0.00116167
0.0160594
-0.00109727
0.0161492
-0.00101863
0.0162319
-0.000926978
0.0163096
-0.000824055
0.0163844
-0.000710201
0.016458
-0.00058758
0.0165328
-0.000455587
0.0166097
-0.000319263
0.0166925
-0.000173386
0.0167774
-3.03764e-05
0.0168737
0.000125097
0.0169761
0.000258646
0.0170893
0.000446876
0.0171974
0.000552447
0.000868622
0.0249788
-0.000163038
0.0249114
-0.000499318
0.0248026
-0.000849122
0.0246405
-0.00126348
0.0244396
-0.00171734
0.0241698
-0.00233777
0.023874
-0.00298379
0.0234947
-0.0040808
0.0231016
-0.00499886
0.0228322
-0.00740987
0.0225176
-0.00860566
0.0256629
-0.0157603
0.0258066
-0.0152073
0.02236
-0.0110796
0.0184172
-0.00808975
0.0146265
-0.0055633
0.011271
-0.00353781
0.00856127
-0.0021472
0.00646037
-0.00124026
0.00480101
-0.000516709
0.00412833
-0.000893555
0.00405591
-0.00117223
0.00426094
-0.00124012
0.00457782
-0.00123883
0.00490834
-0.00118969
0.00521899
-0.0011281
0.00550608
-0.00107362
0.00577325
-0.00103025
0.00602421
-0.000996985
0.00626271
-0.000974171
0.00649173
-0.000961766
0.00671327
-0.000959564
0.00692842
-0.000967282
0.00713744
-0.000984475
0.00733996
-0.00101041
0.00753506
-0.00104395
0.00772134
-0.00108353
0.0078972
-0.00112706
0.00806091
-0.00117209
0.00821073
-0.00121589
0.00834505
-0.0012556
0.00846259
-0.00128842
0.00856248
-0.00131177
0.00864439
-0.00132348
0.00870857
-0.00132183
0.00875587
-0.00130571
0.00878766
-0.00127459
0.0088058
-0.0012286
0.00881262
-0.00116849
0.00881089
-0.00109554
0.00880374
-0.00101148
0.00879463
-0.00091787
0.00878683
-0.000816255
0.00878338
-0.000706754
0.00878597
-0.000590163
0.0087958
-0.000465422
0.00881273
-0.000336191
0.00883868
-0.000199341
0.00887351
-6.52021e-05
0.0089233
7.53081e-05
0.00898572
0.000196223
0.00908209
0.000350507
0.00918133
0.000453203
0.000752501
0.0249693
-0.000132346
0.0248736
-0.000403587
0.0247151
-0.000690656
0.024477
-0.00102538
0.0241693
-0.00140961
0.0237408
-0.00190926
0.0232466
-0.0024896
0.0225183
-0.00335249
0.0217884
-0.00426896
0.0204132
-0.00603467
0.0189764
-0.00716888
0.015174
-0.011958
0.00836325
-0.0083965
0.0041944
-0.00691072
0.00199338
-0.00588874
0.000970982
-0.0045409
0.000540462
-0.00310729
0.000341984
-0.00194872
0.000211728
-0.00111
0.000142867
-0.000447848
0.000353589
-0.00110428
0.000688125
-0.00150677
0.000949564
-0.00150156
0.00117137
-0.00146063
0.00136112
-0.00137944
0.00152844
-0.00129542
0.00167545
-0.00122063
0.00180427
-0.00115907
0.00191802
-0.00111073
0.00201882
-0.00107497
0.00210802
-0.00105097
0.0021862
-0.00103775
0.0022533
-0.00103437
0.00230868
-0.00103986
0.00235142
-0.00105314
0.00238039
-0.00107292
0.00239453
-0.00109767
0.00239297
-0.0011255
0.00237517
-0.00115429
0.002341
-0.00118172
0.00229077
-0.00120537
0.00222528
-0.00122292
0.00214576
-0.00123225
0.00205386
-0.00123158
0.00195156
-0.00121953
0.00184111
-0.00119525
0.0017249
-0.00115838
0.00160548
-0.00110919
0.00148561
-0.00104862
0.00136831
-0.000978236
0.00125682
-0.000899992
0.00115459
-0.00081564
0.00106472
-0.000726377
0.000990153
-0.000632192
0.000932353
-0.000532363
0.000891793
-0.000424863
0.000865705
-0.000310104
0.000853264
-0.0001869
0.000850031
-6.19684e-05
0.000876258
4.90811e-05
0.000923997
0.000148483
0.00102976
0.000244742
0.00121246
0.000270498
0.000396345
0.0249609
-9.31995e-05
0.0248415
-0.000284264
0.0246383
-0.000487396
0.0243376
-0.000724697
0.0239284
-0.0010004
0.0233765
-0.00135734
0.0226694
-0.00178251
0.0217074
-0.0023905
0.020508
-0.00306959
0.0186706
-0.00419723
0.0165257
-0.00502405
0.0122515
-0.00768367
0.00884273
-0.00498777
0.00620622
-0.00427421
0.00409503
-0.00377755
0.00253342
-0.00297928
0.00152012
-0.00209399
0.000911908
-0.00134051
0.00056896
-0.000767054
0.000418926
-0.000297813
0.000203619
-0.000888971
-1.06877e-05
-0.00129246
-0.000165207
-0.00134704
-0.000342932
-0.00128291
-0.000519086
-0.00120328
-0.000690025
-0.00112448
-0.000856284
-0.00105437
-0.00101956
-0.000995789
-0.00118147
-0.000948822
-0.00134365
-0.000912789
-0.00150783
-0.000886784
-0.0016757
-0.000869882
-0.00184889
-0.000861191
-0.00202891
-0.000859841
-0.00221713
-0.000864918
-0.00241467
-0.000875382
-0.00262234
-0.000889994
-0.00284058
-0.000907265
-0.00306941
-0.000925463
-0.00330844
-0.000942685
-0.00355684
-0.000956972
-0.00381334
-0.000966417
-0.00407627
-0.000969327
-0.00434351
-0.000964333
-0.00461258
-0.000950463
-0.00488065
-0.000927188
-0.00514457
-0.000894463
-0.00540095
-0.000852801
-0.00564623
-0.000803334
-0.00587676
-0.000747707
-0.00608904
-0.000687711
-0.00627994
-0.000624748
-0.00644686
-0.000559449
-0.00658755
-0.000491504
-0.00669993
-0.000419987
-0.00678078
-0.000344007
-0.0068265
-0.000264392
-0.00682881
-0.000184584
-0.00677909
-0.000111689
-0.00667826
-5.17496e-05
-0.00652306
-6.72385e-06
-0.00629917
2.0855e-05
-0.00607043
4.17559e-05
6.56781e-05
0.024955
-4.81767e-05
0.0248176
-0.000146936
0.0245824
-0.000252194
0.0242332
-0.000375456
0.0237521
-0.000519256
0.0231006
-0.000705911
0.0222462
-0.000928123
0.0211006
-0.0012449
0.0196231
-0.00159209
0.0175864
-0.0021605
0.0151211
-0.00255873
0.011266
-0.00382862
0.00862279
-0.00234453
0.00633062
-0.00198204
0.0043453
-0.00179222
0.00282546
-0.00145944
0.00179009
-0.00105862
0.00114232
-0.000692742
0.00077487
-0.000399602
0.000629399
-0.000152342
0.000240815
-0.000500387
-0.000304027
-0.000747617
-0.000866288
-0.000784775
-0.00140307
-0.000746123
-0.00191053
-0.000695828
-0.00238724
-0.000647762
-0.0028365
-0.000605115
-0.00326318
-0.000569107
-0.0036722
-0.000539804
-0.0040681
-0.000516884
-0.004455
-0.000499891
-0.00483652
-0.000488364
-0.00521584
-0.000481862
-0.00559574
-0.000479949
-0.00597851
-0.000482145
-0.00636602
-0.000487867
-0.00675964
-0.000496375
-0.00716018
-0.000506725
-0.00756791
-0.000517742
-0.00798244
-0.000528155
-0.0084027
-0.000536709
-0.00882696
-0.00054216
-0.00925279
-0.000543497
-0.00967708
-0.000540037
-0.0100961
-0.000531474
-0.0105054
-0.000517881
-0.0109002
-0.000499674
-0.0112754
-0.000477577
-0.0116262
-0.000452562
-0.0119482
-0.000425672
-0.0122382
-0.000397706
-0.012494
-0.000368929
-0.0127144
-0.000339096
-0.0128982
-0.000307709
-0.013044
-0.000274189
-0.01315
-0.000237989
-0.0132149
-0.0001995
-0.0132387
-0.000160779
-0.0132258
-0.000124584
-0.0131875
-9.00297e-05
-0.0131363
-5.79443e-05
-0.0130866
-2.88137e-05
-0.0130407
-4.20289e-06
7.08414e-06
0.0249519
-2.75706e-08
0.024805
-7.59323e-08
0.0245529
-1.18952e-07
0.0241776
-1.56472e-07
0.0236586
-1.89264e-07
0.0229529
-2.16202e-07
0.022025
-2.4002e-07
0.0207803
-2.57495e-07
0.0191885
-2.75683e-07
0.0170283
-2.87163e-07
0.0144699
-3.00593e-07
0.0106416
-3.39032e-07
0.00829725
-1.82699e-07
0.00631543
-2.17524e-07
0.00452351
-3.02216e-07
0.00306445
-3.90418e-07
0.00200631
-4.76446e-07
0.00131412
-5.53812e-07
0.000915138
-6.1905e-07
0.000763427
-6.30988e-07
0.000264018
-9.78296e-07
-0.000483407
-1.91974e-07
-0.00126865
4.63563e-07
-0.0020162
1.43181e-06
-0.00271484
2.81215e-06
-0.00336717
4.56963e-06
-0.00397892
6.63306e-06
-0.00455692
8.89311e-06
-0.00510792
1.11995e-05
-0.00563818
1.3375e-05
-0.0061533
1.52243e-05
-0.0066582
1.65406e-05
-0.0071572
1.7133e-05
-0.00765399
1.68416e-05
-0.00815168
1.55499e-05
-0.00865276
1.32145e-05
-0.00915899
9.84913e-06
-0.00967125
5.53736e-06
-0.0101896
6.05955e-07
-0.010713
-4.7051e-06
-0.0112394
-1.03247e-05
-0.0117658
-1.58367e-05
-0.0122883
-2.09828e-05
-0.0128027
-2.55532e-05
-0.0133048
-2.9387e-05
-0.0137904
-3.23555e-05
-0.0142557
-3.43357e-05
-0.0146981
-3.52044e-05
-0.0151158
-3.4854e-05
-0.0155082
-3.32138e-05
-0.0158757
-3.02554e-05
-0.0162186
-2.60177e-05
-0.016537
-2.07083e-05
-0.01683
-1.47186e-05
-0.0170955
-8.70179e-06
-0.0173302
-3.29835e-06
-0.0175303
5.96721e-07
-0.017694
2.97222e-06
-0.0178222
3.57844e-06
-0.0179151
2.85283e-06
-0.0179745
1.51766e-06
-0.0180036
3.1126e-07
-0.0180077
-1.59155e-07
-7.39549e-08
0.0249519
4.8122e-05
0.024805
0.000146785
0.0245529
0.000251958
0.0241776
0.000375146
0.0236585
0.00051888
0.0229528
0.000705482
0.022025
0.000927647
0.0207803
0.00124439
0.0191885
0.00159155
0.0170283
0.00215993
0.0144698
0.00255814
0.0106415
0.00382794
0.00829721
0.00234416
0.00631538
0.00198161
0.00452346
0.00179162
0.00306441
0.00145866
0.00200627
0.00105767
0.00131408
0.00069163
0.000915104
0.000398358
0.000763422
0.000151051
0.00026417
0.000498274
-0.000483077
0.000747055
-0.00126816
0.000785546
-0.00201555
0.000748821
-0.002714
0.000701261
-0.0033661
0.000656672
-0.00397758
0.000618109
-0.00455525
0.000586567
-0.00510586
0.000561814
-0.00563566
0.000543174
-0.00615024
0.000529806
-0.00665455
0.000520849
-0.00715291
0.000515488
-0.00764904
0.000512975
-0.0081461
0.00051261
-0.00864661
0.000513718
-0.00915236
0.000515609
-0.00966439
0.000517564
-0.0101826
0.000518862
-0.0107061
0.000518716
-0.0112327
0.000516313
-0.0117596
0.000511012
-0.0122829
0.000502329
-0.0127984
0.00049
-0.0133018
0.000474032
-0.0137889
0.000454738
-0.014256
0.000432754
-0.0147002
0.000409022
-0.0151198
0.000384711
-0.015514
0.000361004
-0.015883
0.000338762
-0.0162272
0.000318179
-0.0165466
0.000298647
-0.0168402
0.000278871
-0.0171059
0.000257058
-0.0173405
0.000231293
-0.0175406
0.000200612
-0.017704
0.00016645
-0.017832
0.00013157
-0.0179247
9.55557e-05
-0.0179839
6.07034e-05
-0.0180131
2.95106e-05
-0.0180173
4.03778e-06
-7.12146e-06
0.024955
9.31459e-05
0.0248176
0.000284117
0.0245824
0.000487166
0.0242332
0.000724394
0.023752
0.00100003
0.0231006
0.00135693
0.0222462
0.00178205
0.0211006
0.00239001
0.0196231
0.00306906
0.0175863
0.00419668
0.015121
0.00502348
0.0112659
0.00768301
0.00862266
0.00498739
0.00633048
0.00427378
0.00434515
0.00377695
0.00282532
0.0029785
0.00178996
0.00209302
0.00114221
0.00133938
0.000774768
0.000765798
0.000629382
0.000296438
0.000241212
0.000886443
-0.000303107
0.00129137
-0.000864868
0.00134731
-0.00140112
0.00128507
-0.00190798
0.00120812
-0.00238401
0.0011327
-0.00283248
0.00106658
-0.00325827
0.00101236
-0.00366626
0.000969799
-0.00406096
0.00093788
-0.00444648
0.000915324
-0.00482646
0.000900831
-0.00520414
0.000893164
-0.00558233
0.000891166
-0.00596344
0.000893727
-0.00634946
0.000899729
-0.00674185
0.000907999
-0.00714156
0.000917275
-0.0075489
0.000926203
-0.00796353
0.00093335
-0.00838448
0.000937266
-0.00881007
0.000936594
-0.00923788
0.00093014
-0.00966482
0.000916943
-0.0100871
0.000896334
-0.0105004
0.000867996
-0.0108997
0.000832041
-0.0112798
0.000789119
-0.0116355
0.00074048
-0.0119624
0.000687857
-0.0122567
0.000633081
-0.012516
0.000577481
-0.0127387
0.00052139
-0.0129237
0.000463863
-0.0130697
0.000402997
-0.013175
0.000336661
-0.013239
0.000264539
-0.0132619
0.000189382
-0.0132487
0.000118364
-0.0132108
5.76206e-05
-0.0131605
1.04058e-05
-0.013112
-1.89868e-05
-0.0130672
-4.07486e-05
-6.51404e-05
0.0249609
0.000132294
0.0248415
0.000403445
0.0246383
0.000690434
0.0243376
0.00102509
0.0239283
0.00140926
0.0233764
0.00190886
0.0226693
0.00248916
0.0217073
0.00335202
0.0205079
0.00426846
0.0186704
0.00603415
0.0165255
0.00716835
0.0122512
0.0119573
0.0088425
0.00839612
0.00620599
0.00691029
0.00409479
0.00588815
0.00253318
0.00454011
0.0015199
0.0031063
0.000911714
0.00194757
0.000568778
0.00110873
0.000418795
0.000446421
0.000203972
0.00110127
-9.43677e-06
0.00150478
-0.000163069
0.00150094
-0.00033988
0.00146188
-0.000514932
0.00138317
-0.000684639
0.00130241
-0.000849607
0.00123155
-0.00101154
0.00117429
-0.001172
0.00113027
-0.00133263
0.00109851
-0.00149512
0.00107781
-0.00166116
0.00106687
-0.00183241
0.00106441
-0.00201046
0.00106922
-0.00219679
0.00108005
-0.00239263
0.00109557
-0.00259893
0.0011143
-0.00281626
0.0011346
-0.00304475
0.00115469
-0.00328408
0.00117268
-0.00353348
0.00118667
-0.00379172
0.00119483
-0.00405712
0.00119553
-0.00432756
0.00118739
-0.00460058
0.00116935
-0.00487331
0.00114073
-0.00514261
0.00110133
-0.00540496
0.00105147
-0.00565659
0.00099211
-0.00589351
0.000924778
-0.00611179
0.000851356
-0.00630779
0.00077348
-0.0064785
0.000692101
-0.00662134
0.000606706
-0.00673424
0.000515892
-0.00681436
0.000416783
-0.00685875
0.000308933
-0.00686023
0.000190855
-0.00681027
6.84084e-05
-0.00671022
-4.24286e-05
-0.00655774
-0.000142083
-0.00633735
-0.000239373
-0.00611197
-0.000266135
-0.000393644
0.0249693
0.000162989
0.0248736
0.000499184
0.0247151
0.000848912
0.024477
0.00126321
0.0241692
0.00171701
0.0237407
0.0023374
0.0232465
0.00298338
0.0225181
0.00408036
0.0217882
0.00499841
0.0204129
0.00740939
0.0189761
0.0086052
0.0151737
0.0157597
0.00836299
0.0152068
0.00419419
0.0110791
0.00199319
0.00808915
0.000970794
0.0055625
0.000540283
0.00353681
0.00034181
0.00214605
0.000211528
0.00123902
0.000142594
0.000515356
0.000352942
0.000890918
0.000687857
0.00116987
0.000950185
0.00123861
0.00117333
0.00123874
0.00136471
0.00119179
0.00153389
0.00113323
0.00168281
0.00108263
0.00181358
0.00104351
0.00192928
0.00101457
0.00203202
0.00099577
0.00212311
0.000986721
0.00220311
0.000986866
0.00227191
0.000995619
0.00232884
0.00101229
0.00237291
0.00103598
0.00240296
0.00106552
0.00241784
0.00109942
0.00241661
0.00113583
0.00239869
0.00117262
0.00236387
0.0012075
0.00231244
0.0012381
0.00224516
0.00126212
0.00216325
0.00127744
0.00206837
0.00128227
0.0019625
0.00127521
0.00184789
0.00125534
0.00172697
0.00122225
0.00160238
0.00117607
0.00147696
0.00111753
0.00135394
0.00104779
0.00123686
0.000968445
0.00112949
0.000880846
0.00103532
0.000786271
0.000957561
0.000684464
0.00089771
0.000575744
0.000856405
0.000458089
0.000830309
0.000335028
0.000817748
0.000203416
0.000813408
7.27483e-05
0.000837643
-6.6664e-05
0.000882311
-0.000186751
0.000983999
-0.000341064
0.00116224
-0.000444375
-0.000745034
0.0249788
0.000184201
0.0249114
0.000566608
0.0248026
0.00095768
0.0246404
0.00142538
0.0244396
0.00191787
0.0241697
0.00260731
0.0238739
0.00327917
0.0234945
0.00445968
0.0231013
0.0053916
0.0228319
0.00767886
0.0225173
0.0089198
0.0256624
0.0126146
0.025806
0.0150633
0.0223593
0.0145258
0.0184162
0.0120322
0.0146251
0.00935359
0.0112691
0.0068928
0.00855876
0.00485637
0.00645731
0.00334047
0.00479753
0.00217513
0.00412372
0.00156472
0.00405072
0.00124288
0.0042558
0.00103353
0.00457323
0.000921306
0.00490476
0.000860262
0.00521688
0.000821112
0.00550603
0.000793481
0.00577576
0.000773785
0.00602965
0.000760671
0.00627132