/*--------------------------------*- C++ -*----------------------------------*\
  =========                 |
  \\      /  F ield         | OpenFOAM: The Open Source CFD Toolbox
   \\    /   O peration     | Website:  https://openfoam.org
    \\  /    A nd           | Version:  10
     \\/     M anipulation  |
\*---------------------------------------------------------------------------*/
FoamFile
{
    format      ascii;
    class       volScalarField;
    location    "2.12";
    object      p;
}
// * * * * * * * * * * * * * * * * * * * * * * * * * * * * * * * * * * * * * //

dimensions      [1 -1 -2 0 0 0 0];

internalField   nonuniform List<scalar> 
12225
(
1.72009e+07
1.71474e+07
1.70515e+07
1.69252e+07
1.67787e+07
1.66196e+07
1.64533e+07
1.62833e+07
1.61118e+07
1.594e+07
1.57685e+07
1.55972e+07
1.54258e+07
1.52532e+07
1.50776e+07
1.4896e+07
1.47022e+07
1.44803e+07
1.72031e+07
1.71493e+07
1.70531e+07
1.69265e+07
1.67797e+07
1.66204e+07
1.64539e+07
1.62838e+07
1.61123e+07
1.59405e+07
1.5769e+07
1.55979e+07
1.54266e+07
1.52543e+07
1.50793e+07
1.48988e+07
1.47077e+07
1.44967e+07
1.72079e+07
1.71536e+07
1.70567e+07
1.69293e+07
1.67819e+07
1.66221e+07
1.64553e+07
1.6285e+07
1.61134e+07
1.59416e+07
1.57702e+07
1.55993e+07
1.54285e+07
1.52568e+07
1.50829e+07
1.49046e+07
1.47186e+07
1.45215e+07
1.7216e+07
1.71608e+07
1.70626e+07
1.6934e+07
1.67855e+07
1.66249e+07
1.64576e+07
1.62869e+07
1.61152e+07
1.59434e+07
1.57722e+07
1.56017e+07
1.54314e+07
1.52608e+07
1.50886e+07
1.49135e+07
1.47339e+07
1.45504e+07
1.72279e+07
1.71714e+07
1.70713e+07
1.69408e+07
1.67908e+07
1.6629e+07
1.64608e+07
1.62897e+07
1.61177e+07
1.5946e+07
1.57751e+07
1.56051e+07
1.54357e+07
1.52665e+07
1.50967e+07
1.49255e+07
1.47529e+07
1.45813e+07
1.72445e+07
1.71862e+07
1.70834e+07
1.69502e+07
1.6798e+07
1.66345e+07
1.64653e+07
1.62935e+07
1.61212e+07
1.59495e+07
1.57789e+07
1.56096e+07
1.54414e+07
1.52739e+07
1.51069e+07
1.49402e+07
1.47746e+07
1.46131e+07
1.72669e+07
1.7206e+07
1.70994e+07
1.69626e+07
1.68074e+07
1.66418e+07
1.6471e+07
1.62984e+07
1.61257e+07
1.5954e+07
1.57838e+07
1.56154e+07
1.54486e+07
1.52833e+07
1.51194e+07
1.49574e+07
1.47984e+07
1.46454e+07
1.72964e+07
1.72317e+07
1.71201e+07
1.69784e+07
1.68193e+07
1.66508e+07
1.64782e+07
1.63044e+07
1.61312e+07
1.59596e+07
1.579e+07
1.56225e+07
1.54573e+07
1.52944e+07
1.5134e+07
1.49767e+07
1.48238e+07
1.46778e+07
1.73345e+07
1.72647e+07
1.71462e+07
1.69982e+07
1.6834e+07
1.66619e+07
1.64869e+07
1.63118e+07
1.61379e+07
1.59663e+07
1.57973e+07
1.5631e+07
1.54677e+07
1.53074e+07
1.51505e+07
1.49977e+07
1.48503e+07
1.47103e+07
1.73834e+07
1.73065e+07
1.71786e+07
1.70222e+07
1.68516e+07
1.66751e+07
1.64972e+07
1.63204e+07
1.61458e+07
1.59742e+07
1.58059e+07
1.56409e+07
1.54795e+07
1.53219e+07
1.51685e+07
1.50201e+07
1.48777e+07
1.47427e+07
1.7446e+07
1.73588e+07
1.72183e+07
1.7051e+07
1.68724e+07
1.66904e+07
1.6509e+07
1.63302e+07
1.61548e+07
1.59832e+07
1.58156e+07
1.56521e+07
1.54928e+07
1.5338e+07
1.5188e+07
1.50436e+07
1.49056e+07
1.47749e+07
1.75197e+07
1.74186e+07
1.72621e+07
1.70818e+07
1.68941e+07
1.67061e+07
1.65211e+07
1.63402e+07
1.61639e+07
1.59923e+07
1.58255e+07
1.56634e+07
1.5506e+07
1.53538e+07
1.52068e+07
1.50659e+07
1.49314e+07
1.48042e+07
1.76105e+07
1.74896e+07
1.7312e+07
1.71159e+07
1.69175e+07
1.67228e+07
1.65337e+07
1.63507e+07
1.61735e+07
1.6002e+07
1.58359e+07
1.56752e+07
1.55199e+07
1.53701e+07
1.52261e+07
1.50883e+07
1.49571e+07
1.4833e+07
1.77447e+07
1.75883e+07
1.73775e+07
1.71585e+07
1.69457e+07
1.67424e+07
1.65484e+07
1.63628e+07
1.61847e+07
1.60134e+07
1.58484e+07
1.56894e+07
1.55364e+07
1.53894e+07
1.52485e+07
1.5114e+07
1.49862e+07
1.48651e+07
1.79538e+07
1.77256e+07
1.74601e+07
1.72084e+07
1.69772e+07
1.67636e+07
1.65641e+07
1.63758e+07
1.61969e+07
1.60261e+07
1.58625e+07
1.57057e+07
1.55553e+07
1.54114e+07
1.52739e+07
1.51429e+07
1.50184e+07
1.49005e+07
1.83074e+07
1.79087e+07
1.75523e+07
1.72576e+07
1.70055e+07
1.67817e+07
1.65773e+07
1.63872e+07
1.62083e+07
1.60387e+07
1.58772e+07
1.57231e+07
1.55759e+07
1.54354e+07
1.53015e+07
1.51741e+07
1.5053e+07
1.49383e+07
1.89931e+07
1.80925e+07
1.76117e+07
1.72797e+07
1.70147e+07
1.67864e+07
1.65812e+07
1.63921e+07
1.62153e+07
1.60485e+07
1.58903e+07
1.57398e+07
1.55965e+07
1.54599e+07
1.53299e+07
1.52062e+07
1.50887e+07
1.49773e+07
1.81482e+07
1.78156e+07
1.74928e+07
1.72152e+07
1.69743e+07
1.67596e+07
1.65636e+07
1.63819e+07
1.62114e+07
1.60503e+07
1.58975e+07
1.57522e+07
1.56138e+07
1.54819e+07
1.53564e+07
1.52369e+07
1.51232e+07
1.50152e+07
1.75828e+07
1.74473e+07
1.72616e+07
1.70655e+07
1.68735e+07
1.66897e+07
1.65149e+07
1.63485e+07
1.61899e+07
1.60386e+07
1.58941e+07
1.5756e+07
1.56241e+07
1.5498e+07
1.53777e+07
1.52629e+07
1.51535e+07
1.50492e+07
1.72608e+07
1.71836e+07
1.70609e+07
1.6916e+07
1.67624e+07
1.6607e+07
1.64534e+07
1.63033e+07
1.61575e+07
1.60166e+07
1.58806e+07
1.57498e+07
1.5624e+07
1.55034e+07
1.53877e+07
1.52771e+07
1.51713e+07
1.50702e+07
1.70771e+07
1.70218e+07
1.69279e+07
1.68103e+07
1.66798e+07
1.6543e+07
1.64042e+07
1.62659e+07
1.61296e+07
1.59964e+07
1.58669e+07
1.57414e+07
1.56202e+07
1.55035e+07
1.53913e+07
1.52836e+07
1.51804e+07
1.50815e+07
1.69557e+07
1.69113e+07
1.68332e+07
1.67322e+07
1.66167e+07
1.64927e+07
1.63646e+07
1.6235e+07
1.6106e+07
1.59788e+07
1.58542e+07
1.5733e+07
1.56154e+07
1.55017e+07
1.53921e+07
1.52867e+07
1.51854e+07
1.50882e+07
1.68736e+07
1.68352e+07
1.67665e+07
1.66758e+07
1.65701e+07
1.6455e+07
1.63343e+07
1.62111e+07
1.60874e+07
1.59646e+07
1.58437e+07
1.57256e+07
1.56107e+07
1.54993e+07
1.53917e+07
1.52879e+07
1.51881e+07
1.50922e+07
1.68178e+07
1.6783e+07
1.672e+07
1.66359e+07
1.65367e+07
1.64275e+07
1.63121e+07
1.61933e+07
1.60733e+07
1.59537e+07
1.58356e+07
1.57197e+07
1.56067e+07
1.5497e+07
1.53908e+07
1.52883e+07
1.51895e+07
1.50946e+07
1.678e+07
1.67474e+07
1.66881e+07
1.66083e+07
1.65134e+07
1.64081e+07
1.62962e+07
1.61805e+07
1.60631e+07
1.59457e+07
1.58295e+07
1.57153e+07
1.56037e+07
1.54951e+07
1.53899e+07
1.52883e+07
1.51903e+07
1.5096e+07
1.67549e+07
1.67238e+07
1.66668e+07
1.65896e+07
1.64975e+07
1.63949e+07
1.62853e+07
1.61716e+07
1.60561e+07
1.59402e+07
1.58252e+07
1.57121e+07
1.56014e+07
1.54936e+07
1.53891e+07
1.52881e+07
1.51906e+07
1.50967e+07
1.67388e+07
1.67085e+07
1.6653e+07
1.65775e+07
1.64871e+07
1.63862e+07
1.62781e+07
1.61658e+07
1.60513e+07
1.59364e+07
1.58223e+07
1.57099e+07
1.55998e+07
1.54926e+07
1.53886e+07
1.52879e+07
1.51907e+07
1.50972e+07
1.67291e+07
1.66993e+07
1.66446e+07
1.65701e+07
1.64808e+07
1.63808e+07
1.62737e+07
1.61622e+07
1.60484e+07
1.59341e+07
1.58205e+07
1.57085e+07
1.55988e+07
1.54919e+07
1.53882e+07
1.52877e+07
1.51908e+07
1.50974e+07
1.67238e+07
1.66943e+07
1.664e+07
1.65661e+07
1.64774e+07
1.63779e+07
1.62713e+07
1.61602e+07
1.60468e+07
1.59328e+07
1.58195e+07
1.57077e+07
1.55983e+07
1.54915e+07
1.53879e+07
1.52876e+07
1.51908e+07
1.50975e+07
1.67217e+07
1.66922e+07
1.66381e+07
1.65645e+07
1.6476e+07
1.63767e+07
1.62703e+07
1.61594e+07
1.60462e+07
1.59323e+07
1.58191e+07
1.57074e+07
1.5598e+07
1.54914e+07
1.53878e+07
1.52876e+07
1.51908e+07
1.50975e+07
1.23607e+07
1.23595e+07
1.2357e+07
1.23532e+07
1.2348e+07
1.23415e+07
1.23336e+07
1.23243e+07
1.23135e+07
1.23013e+07
1.22876e+07
1.22724e+07
1.22557e+07
1.22374e+07
1.22175e+07
1.2196e+07
1.21728e+07
1.2148e+07
1.21216e+07
1.20933e+07
1.20634e+07
1.20316e+07
1.19979e+07
1.19623e+07
1.19248e+07
1.18852e+07
1.18435e+07
1.17996e+07
1.17534e+07
1.17047e+07
1.16534e+07
1.15993e+07
1.15421e+07
1.14815e+07
1.14171e+07
1.13483e+07
1.12744e+07
1.11943e+07
1.11062e+07
1.10072e+07
1.08916e+07
1.07452e+07
1.07318e+07
1.07277e+07
1.07238e+07
1.07202e+07
1.07167e+07
1.07133e+07
1.071e+07
1.07068e+07
1.07036e+07
1.07005e+07
1.06974e+07
1.06944e+07
1.06914e+07
1.06885e+07
1.06855e+07
1.06827e+07
1.06798e+07
1.0677e+07
1.06742e+07
1.06714e+07
1.06686e+07
1.06659e+07
1.06632e+07
1.06605e+07
1.06578e+07
1.06551e+07
1.06524e+07
1.06497e+07
1.0647e+07
1.06444e+07
1.06417e+07
1.06391e+07
1.06364e+07
1.06337e+07
1.06311e+07
1.06284e+07
1.06258e+07
1.06231e+07
1.06204e+07
1.06178e+07
1.06151e+07
1.06124e+07
1.06097e+07
1.0607e+07
1.06043e+07
1.06016e+07
1.05989e+07
1.05961e+07
1.05934e+07
1.05906e+07
1.05879e+07
1.05851e+07
1.05823e+07
1.05795e+07
1.05767e+07
1.05738e+07
1.0571e+07
1.05681e+07
1.05652e+07
1.05623e+07
1.05594e+07
1.05564e+07
1.05535e+07
1.05505e+07
1.05475e+07
1.05445e+07
1.05414e+07
1.05384e+07
1.05353e+07
1.05322e+07
1.05291e+07
1.0526e+07
1.05228e+07
1.05196e+07
1.05164e+07
1.05132e+07
1.05099e+07
1.05067e+07
1.05034e+07
1.05e+07
1.04967e+07
1.04933e+07
1.04899e+07
1.04865e+07
1.04831e+07
1.04796e+07
1.04761e+07
1.04726e+07
1.0469e+07
1.04654e+07
1.04618e+07
1.04582e+07
1.04545e+07
1.04509e+07
1.04471e+07
1.04434e+07
1.04396e+07
1.04358e+07
1.0432e+07
1.04281e+07
1.04242e+07
1.04203e+07
1.04164e+07
1.04124e+07
1.04084e+07
1.04043e+07
1.04003e+07
1.03962e+07
1.0392e+07
1.03879e+07
1.03837e+07
1.03794e+07
1.03752e+07
1.03709e+07
1.03665e+07
1.03622e+07
1.03578e+07
1.03533e+07
1.03489e+07
1.03444e+07
1.03398e+07
1.03352e+07
1.03306e+07
1.0326e+07
1.03213e+07
1.03166e+07
1.03119e+07
1.03071e+07
1.03023e+07
1.02974e+07
1.02926e+07
1.02876e+07
1.02827e+07
1.02777e+07
1.02728e+07
1.02678e+07
1.02628e+07
1.02579e+07
1.23657e+07
1.23644e+07
1.23619e+07
1.2358e+07
1.23529e+07
1.23463e+07
1.23384e+07
1.23291e+07
1.23183e+07
1.2306e+07
1.22923e+07
1.22771e+07
1.22603e+07
1.22419e+07
1.2222e+07
1.22005e+07
1.21773e+07
1.21525e+07
1.21261e+07
1.20979e+07
1.2068e+07
1.20363e+07
1.20028e+07
1.19673e+07
1.193e+07
1.18906e+07
1.18491e+07
1.18055e+07
1.17595e+07
1.17112e+07
1.16602e+07
1.16066e+07
1.155e+07
1.14901e+07
1.14267e+07
1.13594e+07
1.12876e+07
1.12107e+07
1.1128e+07
1.10386e+07
1.09418e+07
1.08379e+07
1.07319e+07
1.07269e+07
1.07233e+07
1.07199e+07
1.07164e+07
1.07131e+07
1.07098e+07
1.07066e+07
1.07034e+07
1.07003e+07
1.06973e+07
1.06943e+07
1.06913e+07
1.06883e+07
1.06854e+07
1.06826e+07
1.06797e+07
1.06769e+07
1.06741e+07
1.06713e+07
1.06686e+07
1.06658e+07
1.06631e+07
1.06604e+07
1.06577e+07
1.0655e+07
1.06523e+07
1.06497e+07
1.0647e+07
1.06443e+07
1.06417e+07
1.0639e+07
1.06364e+07
1.06337e+07
1.06311e+07
1.06284e+07
1.06258e+07
1.06231e+07
1.06204e+07
1.06178e+07
1.06151e+07
1.06124e+07
1.06097e+07
1.0607e+07
1.06043e+07
1.06016e+07
1.05989e+07
1.05961e+07
1.05934e+07
1.05906e+07
1.05879e+07
1.05851e+07
1.05823e+07
1.05795e+07
1.05766e+07
1.05738e+07
1.05709e+07
1.05681e+07
1.05652e+07
1.05623e+07
1.05594e+07
1.05564e+07
1.05535e+07
1.05505e+07
1.05475e+07
1.05445e+07
1.05414e+07
1.05384e+07
1.05353e+07
1.05322e+07
1.05291e+07
1.0526e+07
1.05228e+07
1.05196e+07
1.05164e+07
1.05132e+07
1.05099e+07
1.05067e+07
1.05034e+07
1.05e+07
1.04967e+07
1.04933e+07
1.04899e+07
1.04865e+07
1.04831e+07
1.04796e+07
1.04761e+07
1.04726e+07
1.0469e+07
1.04654e+07
1.04618e+07
1.04582e+07
1.04545e+07
1.04509e+07
1.04471e+07
1.04434e+07
1.04396e+07
1.04358e+07
1.0432e+07
1.04281e+07
1.04242e+07
1.04203e+07
1.04164e+07
1.04124e+07
1.04084e+07
1.04043e+07
1.04003e+07
1.03962e+07
1.0392e+07
1.03879e+07
1.03837e+07
1.03794e+07
1.03752e+07
1.03709e+07
1.03665e+07
1.03622e+07
1.03578e+07
1.03533e+07
1.03489e+07
1.03444e+07
1.03398e+07
1.03352e+07
1.03306e+07
1.0326e+07
1.03213e+07
1.03166e+07
1.03119e+07
1.03071e+07
1.03023e+07
1.02974e+07
1.02925e+07
1.02876e+07
1.02827e+07
1.02777e+07
1.02727e+07
1.02678e+07
1.02628e+07
1.02578e+07
1.23757e+07
1.23745e+07
1.23719e+07
1.23681e+07
1.23629e+07
1.23563e+07
1.23484e+07
1.2339e+07
1.23282e+07
1.23159e+07
1.23021e+07
1.22868e+07
1.22699e+07
1.22516e+07
1.22316e+07
1.221e+07
1.21868e+07
1.2162e+07
1.21356e+07
1.21074e+07
1.20775e+07
1.20459e+07
1.20125e+07
1.19772e+07
1.194e+07
1.19009e+07
1.18597e+07
1.18164e+07
1.17708e+07
1.1723e+07
1.16727e+07
1.16198e+07
1.15642e+07
1.15057e+07
1.1444e+07
1.13789e+07
1.13102e+07
1.12377e+07
1.11611e+07
1.10804e+07
1.09961e+07
1.0909e+07
1.08197e+07
1.07272e+07
1.07227e+07
1.07193e+07
1.07159e+07
1.07127e+07
1.07094e+07
1.07062e+07
1.07031e+07
1.07e+07
1.0697e+07
1.0694e+07
1.06911e+07
1.06881e+07
1.06852e+07
1.06824e+07
1.06796e+07
1.06768e+07
1.0674e+07
1.06712e+07
1.06685e+07
1.06657e+07
1.0663e+07
1.06603e+07
1.06576e+07
1.06549e+07
1.06523e+07
1.06496e+07
1.06469e+07
1.06443e+07
1.06416e+07
1.0639e+07
1.06363e+07
1.06337e+07
1.0631e+07
1.06284e+07
1.06257e+07
1.0623e+07
1.06204e+07
1.06177e+07
1.0615e+07
1.06124e+07
1.06097e+07
1.0607e+07
1.06043e+07
1.06016e+07
1.05988e+07
1.05961e+07
1.05934e+07
1.05906e+07
1.05878e+07
1.05851e+07
1.05823e+07
1.05795e+07
1.05766e+07
1.05738e+07
1.05709e+07
1.05681e+07
1.05652e+07
1.05623e+07
1.05594e+07
1.05564e+07
1.05535e+07
1.05505e+07
1.05475e+07
1.05445e+07
1.05414e+07
1.05384e+07
1.05353e+07
1.05322e+07
1.05291e+07
1.0526e+07
1.05228e+07
1.05196e+07
1.05164e+07
1.05132e+07
1.05099e+07
1.05067e+07
1.05034e+07
1.05e+07
1.04967e+07
1.04933e+07
1.04899e+07
1.04865e+07
1.04831e+07
1.04796e+07
1.04761e+07
1.04726e+07
1.0469e+07
1.04654e+07
1.04618e+07
1.04582e+07
1.04545e+07
1.04508e+07
1.04471e+07
1.04434e+07
1.04396e+07
1.04358e+07
1.0432e+07
1.04281e+07
1.04242e+07
1.04203e+07
1.04164e+07
1.04124e+07
1.04084e+07
1.04043e+07
1.04003e+07
1.03962e+07
1.0392e+07
1.03878e+07
1.03836e+07
1.03794e+07
1.03751e+07
1.03708e+07
1.03665e+07
1.03622e+07
1.03578e+07
1.03533e+07
1.03489e+07
1.03444e+07
1.03398e+07
1.03352e+07
1.03306e+07
1.0326e+07
1.03213e+07
1.03166e+07
1.03119e+07
1.03071e+07
1.03023e+07
1.02974e+07
1.02925e+07
1.02876e+07
1.02827e+07
1.02777e+07
1.02727e+07
1.02677e+07
1.02627e+07
1.02577e+07
1.23911e+07
1.23898e+07
1.23872e+07
1.23833e+07
1.23781e+07
1.23715e+07
1.23635e+07
1.23541e+07
1.23432e+07
1.23309e+07
1.23171e+07
1.23017e+07
1.22848e+07
1.22664e+07
1.22464e+07
1.22248e+07
1.22016e+07
1.21767e+07
1.21503e+07
1.21221e+07
1.20923e+07
1.20607e+07
1.20273e+07
1.19922e+07
1.19551e+07
1.19162e+07
1.18753e+07
1.18324e+07
1.17873e+07
1.17401e+07
1.16906e+07
1.16386e+07
1.15842e+07
1.15272e+07
1.14675e+07
1.1405e+07
1.13395e+07
1.12711e+07
1.11998e+07
1.11259e+07
1.10496e+07
1.09717e+07
1.08925e+07
1.08115e+07
1.07245e+07
1.07186e+07
1.07153e+07
1.07121e+07
1.07089e+07
1.07057e+07
1.07026e+07
1.06996e+07
1.06966e+07
1.06936e+07
1.06907e+07
1.06878e+07
1.0685e+07
1.06821e+07
1.06793e+07
1.06765e+07
1.06738e+07
1.0671e+07
1.06683e+07
1.06655e+07
1.06628e+07
1.06602e+07
1.06575e+07
1.06548e+07
1.06521e+07
1.06495e+07
1.06468e+07
1.06442e+07
1.06415e+07
1.06389e+07
1.06362e+07
1.06336e+07
1.06309e+07
1.06283e+07
1.06256e+07
1.0623e+07
1.06203e+07
1.06177e+07
1.0615e+07
1.06123e+07
1.06096e+07
1.06069e+07
1.06042e+07
1.06015e+07
1.05988e+07
1.05961e+07
1.05933e+07
1.05906e+07
1.05878e+07
1.0585e+07
1.05822e+07
1.05794e+07
1.05766e+07
1.05738e+07
1.05709e+07
1.0568e+07
1.05652e+07
1.05623e+07
1.05593e+07
1.05564e+07
1.05534e+07
1.05505e+07
1.05475e+07
1.05445e+07
1.05414e+07
1.05384e+07
1.05353e+07
1.05322e+07
1.05291e+07
1.05259e+07
1.05228e+07
1.05196e+07
1.05164e+07
1.05132e+07
1.05099e+07
1.05066e+07
1.05034e+07
1.05e+07
1.04967e+07
1.04933e+07
1.04899e+07
1.04865e+07
1.04831e+07
1.04796e+07
1.04761e+07
1.04726e+07
1.0469e+07
1.04654e+07
1.04618e+07
1.04582e+07
1.04545e+07
1.04508e+07
1.04471e+07
1.04434e+07
1.04396e+07
1.04358e+07
1.0432e+07
1.04281e+07
1.04242e+07
1.04203e+07
1.04164e+07
1.04124e+07
1.04084e+07
1.04043e+07
1.04003e+07
1.03962e+07
1.0392e+07
1.03878e+07
1.03836e+07
1.03794e+07
1.03751e+07
1.03708e+07
1.03665e+07
1.03621e+07
1.03578e+07
1.03533e+07
1.03488e+07
1.03443e+07
1.03398e+07
1.03352e+07
1.03306e+07
1.0326e+07
1.03213e+07
1.03166e+07
1.03119e+07
1.03071e+07
1.03023e+07
1.02974e+07
1.02925e+07
1.02876e+07
1.02827e+07
1.02777e+07
1.02727e+07
1.02677e+07
1.02627e+07
1.02577e+07
1.24117e+07
1.24104e+07
1.24078e+07
1.24038e+07
1.23986e+07
1.23919e+07
1.23838e+07
1.23744e+07
1.23634e+07
1.2351e+07
1.23371e+07
1.23217e+07
1.23047e+07
1.22862e+07
1.22661e+07
1.22445e+07
1.22212e+07
1.21963e+07
1.21698e+07
1.21416e+07
1.21118e+07
1.20802e+07
1.20469e+07
1.20119e+07
1.1975e+07
1.19363e+07
1.18957e+07
1.18531e+07
1.18086e+07
1.1762e+07
1.17132e+07
1.16623e+07
1.16092e+07
1.15538e+07
1.1496e+07
1.14359e+07
1.13734e+07
1.13087e+07
1.12417e+07
1.11728e+07
1.11022e+07
1.10303e+07
1.09574e+07
1.08834e+07
1.08072e+07
1.0725e+07
1.07145e+07
1.07113e+07
1.07082e+07
1.07051e+07
1.0702e+07
1.0699e+07
1.06961e+07
1.06932e+07
1.06903e+07
1.06874e+07
1.06846e+07
1.06818e+07
1.0679e+07
1.06762e+07
1.06735e+07
1.06707e+07
1.0668e+07
1.06653e+07
1.06626e+07
1.06599e+07
1.06573e+07
1.06546e+07
1.0652e+07
1.06493e+07
1.06467e+07
1.0644e+07
1.06414e+07
1.06387e+07
1.06361e+07
1.06335e+07
1.06308e+07
1.06282e+07
1.06256e+07
1.06229e+07
1.06202e+07
1.06176e+07
1.06149e+07
1.06123e+07
1.06096e+07
1.06069e+07
1.06042e+07
1.06015e+07
1.05988e+07
1.0596e+07
1.05933e+07
1.05905e+07
1.05878e+07
1.0585e+07
1.05822e+07
1.05794e+07
1.05766e+07
1.05737e+07
1.05709e+07
1.0568e+07
1.05651e+07
1.05622e+07
1.05593e+07
1.05564e+07
1.05534e+07
1.05504e+07
1.05475e+07
1.05444e+07
1.05414e+07
1.05384e+07
1.05353e+07
1.05322e+07
1.05291e+07
1.05259e+07
1.05228e+07
1.05196e+07
1.05164e+07
1.05132e+07
1.05099e+07
1.05066e+07
1.05033e+07
1.05e+07
1.04967e+07
1.04933e+07
1.04899e+07
1.04865e+07
1.0483e+07
1.04796e+07
1.04761e+07
1.04726e+07
1.0469e+07
1.04654e+07
1.04618e+07
1.04582e+07
1.04545e+07
1.04508e+07
1.04471e+07
1.04434e+07
1.04396e+07
1.04358e+07
1.0432e+07
1.04281e+07
1.04242e+07
1.04203e+07
1.04164e+07
1.04124e+07
1.04084e+07
1.04043e+07
1.04003e+07
1.03961e+07
1.0392e+07
1.03878e+07
1.03836e+07
1.03794e+07
1.03751e+07
1.03708e+07
1.03665e+07
1.03621e+07
1.03577e+07
1.03533e+07
1.03488e+07
1.03443e+07
1.03398e+07
1.03352e+07
1.03306e+07
1.0326e+07
1.03213e+07
1.03166e+07
1.03119e+07
1.03071e+07
1.03023e+07
1.02974e+07
1.02925e+07
1.02876e+07
1.02827e+07
1.02777e+07
1.02727e+07
1.02677e+07
1.02626e+07
1.02576e+07
1.24376e+07
1.24363e+07
1.24336e+07
1.24296e+07
1.24243e+07
1.24175e+07
1.24094e+07
1.23998e+07
1.23888e+07
1.23762e+07
1.23622e+07
1.23467e+07
1.23296e+07
1.23109e+07
1.22907e+07
1.2269e+07
1.22456e+07
1.22206e+07
1.2194e+07
1.21658e+07
1.21359e+07
1.21043e+07
1.2071e+07
1.2036e+07
1.19992e+07
1.19607e+07
1.19204e+07
1.18782e+07
1.18341e+07
1.17881e+07
1.17402e+07
1.16903e+07
1.16384e+07
1.15845e+07
1.15285e+07
1.14706e+07
1.14107e+07
1.13489e+07
1.12854e+07
1.12204e+07
1.1154e+07
1.10867e+07
1.10185e+07
1.09497e+07
1.08801e+07
1.08091e+07
1.07346e+07
1.07104e+07
1.07073e+07
1.07043e+07
1.07013e+07
1.06984e+07
1.06955e+07
1.06926e+07
1.06897e+07
1.06869e+07
1.06841e+07
1.06813e+07
1.06786e+07
1.06758e+07
1.06731e+07
1.06704e+07
1.06677e+07
1.0665e+07
1.06624e+07
1.06597e+07
1.0657e+07
1.06544e+07
1.06518e+07
1.06491e+07
1.06465e+07
1.06439e+07
1.06412e+07
1.06386e+07
1.0636e+07
1.06333e+07
1.06307e+07
1.06281e+07
1.06254e+07
1.06228e+07
1.06202e+07
1.06175e+07
1.06148e+07
1.06122e+07
1.06095e+07
1.06068e+07
1.06041e+07
1.06014e+07
1.05987e+07
1.0596e+07
1.05932e+07
1.05905e+07
1.05877e+07
1.0585e+07
1.05822e+07
1.05794e+07
1.05765e+07
1.05737e+07
1.05709e+07
1.0568e+07
1.05651e+07
1.05622e+07
1.05593e+07
1.05564e+07
1.05534e+07
1.05504e+07
1.05474e+07
1.05444e+07
1.05414e+07
1.05383e+07
1.05353e+07
1.05322e+07
1.05291e+07
1.05259e+07
1.05228e+07
1.05196e+07
1.05164e+07
1.05132e+07
1.05099e+07
1.05066e+07
1.05033e+07
1.05e+07
1.04967e+07
1.04933e+07
1.04899e+07
1.04865e+07
1.0483e+07
1.04796e+07
1.04761e+07
1.04725e+07
1.0469e+07
1.04654e+07
1.04618e+07
1.04582e+07
1.04545e+07
1.04508e+07
1.04471e+07
1.04434e+07
1.04396e+07
1.04358e+07
1.0432e+07
1.04281e+07
1.04242e+07
1.04203e+07
1.04164e+07
1.04124e+07
1.04084e+07
1.04043e+07
1.04002e+07
1.03961e+07
1.0392e+07
1.03878e+07
1.03836e+07
1.03794e+07
1.03751e+07
1.03708e+07
1.03665e+07
1.03621e+07
1.03577e+07
1.03533e+07
1.03488e+07
1.03443e+07
1.03398e+07
1.03352e+07
1.03306e+07
1.0326e+07
1.03213e+07
1.03166e+07
1.03118e+07
1.03071e+07
1.03023e+07
1.02974e+07
1.02925e+07
1.02876e+07
1.02826e+07
1.02777e+07
1.02727e+07
1.02676e+07
1.02626e+07
1.02575e+07
1.24689e+07
1.24675e+07
1.24648e+07
1.24607e+07
1.24553e+07
1.24484e+07
1.24401e+07
1.24304e+07
1.24192e+07
1.24065e+07
1.23923e+07
1.23765e+07
1.23593e+07
1.23405e+07
1.23201e+07
1.22981e+07
1.22746e+07
1.22494e+07
1.22226e+07
1.21943e+07
1.21643e+07
1.21326e+07
1.20993e+07
1.20643e+07
1.20276e+07
1.19892e+07
1.19491e+07
1.19072e+07
1.18636e+07
1.18182e+07
1.1771e+07
1.1722e+07
1.16711e+07
1.16185e+07
1.15641e+07
1.1508e+07
1.14503e+07
1.13909e+07
1.13302e+07
1.12682e+07
1.12052e+07
1.11413e+07
1.10768e+07
1.1012e+07
1.09471e+07
1.08824e+07
1.0818e+07
1.07542e+07
1.07064e+07
1.07033e+07
1.07005e+07
1.06976e+07
1.06947e+07
1.06919e+07
1.06891e+07
1.06863e+07
1.06836e+07
1.06808e+07
1.06781e+07
1.06754e+07
1.06727e+07
1.067e+07
1.06674e+07
1.06647e+07
1.0662e+07
1.06594e+07
1.06568e+07
1.06541e+07
1.06515e+07
1.06489e+07
1.06463e+07
1.06437e+07
1.0641e+07
1.06384e+07
1.06358e+07
1.06332e+07
1.06306e+07
1.06279e+07
1.06253e+07
1.06227e+07
1.062e+07
1.06174e+07
1.06147e+07
1.06121e+07
1.06094e+07
1.06067e+07
1.0604e+07
1.06013e+07
1.05986e+07
1.05959e+07
1.05932e+07
1.05904e+07
1.05877e+07
1.05849e+07
1.05821e+07
1.05793e+07
1.05765e+07
1.05737e+07
1.05708e+07
1.0568e+07
1.05651e+07
1.05622e+07
1.05593e+07
1.05563e+07
1.05534e+07
1.05504e+07
1.05474e+07
1.05444e+07
1.05414e+07
1.05383e+07
1.05353e+07
1.05322e+07
1.0529e+07
1.05259e+07
1.05228e+07
1.05196e+07
1.05164e+07
1.05131e+07
1.05099e+07
1.05066e+07
1.05033e+07
1.05e+07
1.04967e+07
1.04933e+07
1.04899e+07
1.04865e+07
1.0483e+07
1.04796e+07
1.04761e+07
1.04725e+07
1.0469e+07
1.04654e+07
1.04618e+07
1.04582e+07
1.04545e+07
1.04508e+07
1.04471e+07
1.04434e+07
1.04396e+07
1.04358e+07
1.0432e+07
1.04281e+07
1.04242e+07
1.04203e+07
1.04164e+07
1.04124e+07
1.04084e+07
1.04043e+07
1.04002e+07
1.03961e+07
1.0392e+07
1.03878e+07
1.03836e+07
1.03794e+07
1.03751e+07
1.03708e+07
1.03665e+07
1.03621e+07
1.03577e+07
1.03533e+07
1.03488e+07
1.03443e+07
1.03398e+07
1.03352e+07
1.03306e+07
1.0326e+07
1.03213e+07
1.03166e+07
1.03118e+07
1.03071e+07
1.03022e+07
1.02974e+07
1.02925e+07
1.02876e+07
1.02826e+07
1.02776e+07
1.02726e+07
1.02676e+07
1.02625e+07
1.02574e+07
1.25056e+07
1.25042e+07
1.25014e+07
1.24972e+07
1.24916e+07
1.24846e+07
1.24761e+07
1.24662e+07
1.24547e+07
1.24418e+07
1.24273e+07
1.24113e+07
1.23938e+07
1.23747e+07
1.2354e+07
1.23318e+07
1.2308e+07
1.22826e+07
1.22556e+07
1.2227e+07
1.21968e+07
1.2165e+07
1.21315e+07
1.20965e+07
1.20598e+07
1.20215e+07
1.19815e+07
1.19398e+07
1.18965e+07
1.18516e+07
1.1805e+07
1.17567e+07
1.17068e+07
1.16553e+07
1.16022e+07
1.15476e+07
1.14916e+07
1.14342e+07
1.13756e+07
1.1316e+07
1.12555e+07
1.11943e+07
1.11326e+07
1.10707e+07
1.10088e+07
1.09473e+07
1.08863e+07
1.0826e+07
1.0765e+07
1.07029e+07
1.06995e+07
1.06967e+07
1.06939e+07
1.06912e+07
1.06884e+07
1.06857e+07
1.0683e+07
1.06803e+07
1.06776e+07
1.06749e+07
1.06722e+07
1.06696e+07
1.06669e+07
1.06643e+07
1.06617e+07
1.06591e+07
1.06565e+07
1.06538e+07
1.06512e+07
1.06486e+07
1.0646e+07
1.06434e+07
1.06408e+07
1.06382e+07
1.06356e+07
1.0633e+07
1.06304e+07
1.06278e+07
1.06252e+07
1.06225e+07
1.06199e+07
1.06173e+07
1.06146e+07
1.0612e+07
1.06093e+07
1.06066e+07
1.0604e+07
1.06013e+07
1.05986e+07
1.05958e+07
1.05931e+07
1.05904e+07
1.05876e+07
1.05849e+07
1.05821e+07
1.05793e+07
1.05765e+07
1.05736e+07
1.05708e+07
1.05679e+07
1.0565e+07
1.05621e+07
1.05592e+07
1.05563e+07
1.05534e+07
1.05504e+07
1.05474e+07
1.05444e+07
1.05414e+07
1.05383e+07
1.05352e+07
1.05321e+07
1.0529e+07
1.05259e+07
1.05227e+07
1.05196e+07
1.05164e+07
1.05131e+07
1.05099e+07
1.05066e+07
1.05033e+07
1.05e+07
1.04967e+07
1.04933e+07
1.04899e+07
1.04865e+07
1.0483e+07
1.04796e+07
1.04761e+07
1.04725e+07
1.0469e+07
1.04654e+07
1.04618e+07
1.04582e+07
1.04545e+07
1.04508e+07
1.04471e+07
1.04434e+07
1.04396e+07
1.04358e+07
1.0432e+07
1.04281e+07
1.04242e+07
1.04203e+07
1.04163e+07
1.04124e+07
1.04084e+07
1.04043e+07
1.04002e+07
1.03961e+07
1.0392e+07
1.03878e+07
1.03836e+07
1.03794e+07
1.03751e+07
1.03708e+07
1.03665e+07
1.03621e+07
1.03577e+07
1.03533e+07
1.03488e+07
1.03443e+07
1.03398e+07
1.03352e+07
1.03306e+07
1.0326e+07
1.03213e+07
1.03166e+07
1.03118e+07
1.03071e+07
1.03022e+07
1.02974e+07
1.02925e+07
1.02876e+07
1.02826e+07
1.02776e+07
1.02726e+07
1.02675e+07
1.02625e+07
1.02573e+07
1.25479e+07
1.25463e+07
1.25434e+07
1.25391e+07
1.25333e+07
1.25261e+07
1.25174e+07
1.25072e+07
1.24954e+07
1.24822e+07
1.24674e+07
1.2451e+07
1.24331e+07
1.24136e+07
1.23926e+07
1.237e+07
1.23458e+07
1.232e+07
1.22927e+07
1.22637e+07
1.22333e+07
1.22012e+07
1.21675e+07
1.21323e+07
1.20955e+07
1.20571e+07
1.20172e+07
1.19757e+07
1.19326e+07
1.1888e+07
1.18418e+07
1.17941e+07
1.17449e+07
1.16943e+07
1.16423e+07
1.15889e+07
1.15342e+07
1.14783e+07
1.14214e+07
1.13636e+07
1.13049e+07
1.12457e+07
1.1186e+07
1.11261e+07
1.10662e+07
1.10064e+07
1.09469e+07
1.08876e+07
1.0828e+07
1.07662e+07
1.06995e+07
1.06958e+07
1.0693e+07
1.06903e+07
1.06876e+07
1.06849e+07
1.06823e+07
1.06796e+07
1.0677e+07
1.06744e+07
1.06717e+07
1.06691e+07
1.06665e+07
1.06639e+07
1.06613e+07
1.06587e+07
1.06561e+07
1.06535e+07
1.06509e+07
1.06483e+07
1.06458e+07
1.06432e+07
1.06406e+07
1.0638e+07
1.06354e+07
1.06328e+07
1.06302e+07
1.06276e+07
1.0625e+07
1.06224e+07
1.06198e+07
1.06171e+07
1.06145e+07
1.06119e+07
1.06092e+07
1.06065e+07
1.06039e+07
1.06012e+07
1.05985e+07
1.05958e+07
1.0593e+07
1.05903e+07
1.05876e+07
1.05848e+07
1.0582e+07
1.05792e+07
1.05764e+07
1.05736e+07
1.05707e+07
1.05679e+07
1.0565e+07
1.05621e+07
1.05592e+07
1.05563e+07
1.05533e+07
1.05504e+07
1.05474e+07
1.05444e+07
1.05413e+07
1.05383e+07
1.05352e+07
1.05321e+07
1.0529e+07
1.05259e+07
1.05227e+07
1.05195e+07
1.05163e+07
1.05131e+07
1.05099e+07
1.05066e+07
1.05033e+07
1.05e+07
1.04966e+07
1.04933e+07
1.04899e+07
1.04865e+07
1.0483e+07
1.04795e+07
1.04761e+07
1.04725e+07
1.0469e+07
1.04654e+07
1.04618e+07
1.04582e+07
1.04545e+07
1.04508e+07
1.04471e+07
1.04434e+07
1.04396e+07
1.04358e+07
1.0432e+07
1.04281e+07
1.04242e+07
1.04203e+07
1.04163e+07
1.04124e+07
1.04084e+07
1.04043e+07
1.04002e+07
1.03961e+07
1.0392e+07
1.03878e+07
1.03836e+07
1.03794e+07
1.03751e+07
1.03708e+07
1.03665e+07
1.03621e+07
1.03577e+07
1.03533e+07
1.03488e+07
1.03443e+07
1.03398e+07
1.03352e+07
1.03306e+07
1.0326e+07
1.03213e+07
1.03166e+07
1.03118e+07
1.0307e+07
1.03022e+07
1.02974e+07
1.02925e+07
1.02876e+07
1.02826e+07
1.02776e+07
1.02726e+07
1.02675e+07
1.02624e+07
1.02573e+07
1.25957e+07
1.25941e+07
1.25911e+07
1.25866e+07
1.25806e+07
1.25731e+07
1.2564e+07
1.25535e+07
1.25413e+07
1.25277e+07
1.25124e+07
1.24956e+07
1.24772e+07
1.24572e+07
1.24357e+07
1.24125e+07
1.23878e+07
1.23616e+07
1.23338e+07
1.23044e+07
1.22735e+07
1.22411e+07
1.22071e+07
1.21716e+07
1.21345e+07
1.2096e+07
1.2056e+07
1.20144e+07
1.19714e+07
1.1927e+07
1.18811e+07
1.18338e+07
1.17852e+07
1.17352e+07
1.16839e+07
1.16314e+07
1.15777e+07
1.1523e+07
1.14674e+07
1.14108e+07
1.13536e+07
1.12958e+07
1.12375e+07
1.1179e+07
1.11203e+07
1.10616e+07
1.1003e+07
1.09443e+07
1.08854e+07
1.08256e+07
1.07634e+07
1.06959e+07
1.06921e+07
1.06894e+07
1.06868e+07
1.06842e+07
1.06815e+07
1.06789e+07
1.06763e+07
1.06737e+07
1.06712e+07
1.06686e+07
1.0666e+07
1.06634e+07
1.06608e+07
1.06583e+07
1.06557e+07
1.06531e+07
1.06506e+07
1.0648e+07
1.06454e+07
1.06429e+07
1.06403e+07
1.06377e+07
1.06352e+07
1.06326e+07
1.063e+07
1.06274e+07
1.06248e+07
1.06222e+07
1.06196e+07
1.0617e+07
1.06144e+07
1.06117e+07
1.06091e+07
1.06064e+07
1.06037e+07
1.06011e+07
1.05984e+07
1.05957e+07
1.0593e+07
1.05902e+07
1.05875e+07
1.05847e+07
1.05819e+07
1.05792e+07
1.05764e+07
1.05735e+07
1.05707e+07
1.05678e+07
1.0565e+07
1.05621e+07
1.05592e+07
1.05562e+07
1.05533e+07
1.05503e+07
1.05473e+07
1.05443e+07
1.05413e+07
1.05383e+07
1.05352e+07
1.05321e+07
1.0529e+07
1.05259e+07
1.05227e+07
1.05195e+07
1.05163e+07
1.05131e+07
1.05099e+07
1.05066e+07
1.05033e+07
1.05e+07
1.04966e+07
1.04933e+07
1.04899e+07
1.04865e+07
1.0483e+07
1.04795e+07
1.0476e+07
1.04725e+07
1.0469e+07
1.04654e+07
1.04618e+07
1.04582e+07
1.04545e+07
1.04508e+07
1.04471e+07
1.04434e+07
1.04396e+07
1.04358e+07
1.0432e+07
1.04281e+07
1.04242e+07
1.04203e+07
1.04163e+07
1.04124e+07
1.04084e+07
1.04043e+07
1.04002e+07
1.03961e+07
1.0392e+07
1.03878e+07
1.03836e+07
1.03794e+07
1.03751e+07
1.03708e+07
1.03665e+07
1.03621e+07
1.03577e+07
1.03533e+07
1.03488e+07
1.03443e+07
1.03398e+07
1.03352e+07
1.03306e+07
1.0326e+07
1.03213e+07
1.03166e+07
1.03118e+07
1.0307e+07
1.03022e+07
1.02974e+07
1.02925e+07
1.02875e+07
1.02826e+07
1.02776e+07
1.02725e+07
1.02675e+07
1.02623e+07
1.02572e+07
1.26494e+07
1.26477e+07
1.26445e+07
1.26398e+07
1.26335e+07
1.26256e+07
1.26162e+07
1.26051e+07
1.25925e+07
1.25783e+07
1.25625e+07
1.2545e+07
1.2526e+07
1.25054e+07
1.24832e+07
1.24594e+07
1.24341e+07
1.24072e+07
1.23788e+07
1.23488e+07
1.23174e+07
1.22844e+07
1.22499e+07
1.2214e+07
1.21766e+07
1.21378e+07
1.20975e+07
1.20558e+07
1.20128e+07
1.19683e+07
1.19226e+07
1.18755e+07
1.18271e+07
1.17776e+07
1.17268e+07
1.16749e+07
1.1622e+07
1.15681e+07
1.15133e+07
1.14577e+07
1.14015e+07
1.13447e+07
1.12874e+07
1.12298e+07
1.11719e+07
1.1114e+07
1.10559e+07
1.09977e+07
1.09394e+07
1.08805e+07
1.08208e+07
1.07588e+07
1.06922e+07
1.06884e+07
1.06858e+07
1.06833e+07
1.06808e+07
1.06782e+07
1.06757e+07
1.06731e+07
1.06705e+07
1.0668e+07
1.06655e+07
1.06629e+07
1.06604e+07
1.06578e+07
1.06553e+07
1.06527e+07
1.06502e+07
1.06477e+07
1.06451e+07
1.06426e+07
1.064e+07
1.06375e+07
1.06349e+07
1.06323e+07
1.06298e+07
1.06272e+07
1.06246e+07
1.0622e+07
1.06194e+07
1.06168e+07
1.06142e+07
1.06116e+07
1.06089e+07
1.06063e+07
1.06036e+07
1.0601e+07
1.05983e+07
1.05956e+07
1.05929e+07
1.05901e+07
1.05874e+07
1.05846e+07
1.05819e+07
1.05791e+07
1.05763e+07
1.05735e+07
1.05706e+07
1.05678e+07
1.05649e+07
1.0562e+07
1.05591e+07
1.05562e+07
1.05533e+07
1.05503e+07
1.05473e+07
1.05443e+07
1.05413e+07
1.05382e+07
1.05352e+07
1.05321e+07
1.0529e+07
1.05258e+07
1.05227e+07
1.05195e+07
1.05163e+07
1.05131e+07
1.05098e+07
1.05066e+07
1.05033e+07
1.05e+07
1.04966e+07
1.04933e+07
1.04899e+07
1.04864e+07
1.0483e+07
1.04795e+07