/*--------------------------------*- C++ -*----------------------------------*\
  =========                 |
  \\      /  F ield         | OpenFOAM: The Open Source CFD Toolbox
   \\    /   O peration     | Website:  https://openfoam.org
    \\  /    A nd           | Version:  10
     \\/     M anipulation  |
\*---------------------------------------------------------------------------*/
FoamFile
{
    format      ascii;
    class       volScalarField;
    location    "0.082";
    object      pPrime2Mean;
}
// * * * * * * * * * * * * * * * * * * * * * * * * * * * * * * * * * * * * * //

dimensions      [0 4 -4 0 0 0 0];

internalField   nonuniform List<scalar> 
12225
(
5.24491e+06
5.1626e+06
5.0777e+06
4.9955e+06
4.91628e+06
4.8399e+06
4.7662e+06
4.69499e+06
4.62607e+06
4.55922e+06
4.49417e+06
4.43063e+06
4.36823e+06
4.3065e+06
4.24479e+06
4.18208e+06
4.11656e+06
4.04359e+06
5.24505e+06
5.16267e+06
5.07776e+06
4.99556e+06
4.91634e+06
4.83996e+06
4.76627e+06
4.69507e+06
4.62617e+06
4.55934e+06
4.49432e+06
4.43082e+06
4.36849e+06
4.30686e+06
4.24532e+06
4.18295e+06
4.1182e+06
4.04769e+06
5.24526e+06
5.1628e+06
5.07788e+06
4.99568e+06
4.91647e+06
4.8401e+06
4.76642e+06
4.69525e+06
4.62639e+06
4.55961e+06
4.49466e+06
4.43125e+06
4.36905e+06
4.30764e+06
4.24647e+06
4.18478e+06
4.12149e+06
4.05529e+06
5.24551e+06
5.16301e+06
5.07808e+06
4.99587e+06
4.91667e+06
4.84033e+06
4.76668e+06
4.69555e+06
4.62674e+06
4.56004e+06
4.4952e+06
4.43196e+06
4.36999e+06
4.30892e+06
4.24832e+06
4.18763e+06
4.1263e+06
4.0644e+06
5.24581e+06
5.16332e+06
5.07837e+06
4.99617e+06
4.91698e+06
4.84066e+06
4.76705e+06
4.69599e+06
4.62727e+06
4.56068e+06
4.496e+06
4.43298e+06
4.37133e+06
4.31075e+06
4.25089e+06
4.19145e+06
4.13232e+06
4.07423e+06
5.24628e+06
5.16374e+06
5.07878e+06
4.99657e+06
4.9174e+06
4.84112e+06
4.76757e+06
4.69659e+06
4.62799e+06
4.56156e+06
4.4971e+06
4.43437e+06
4.37313e+06
4.31316e+06
4.25422e+06
4.1962e+06
4.13928e+06
4.08442e+06
5.24688e+06
5.1643e+06
5.07931e+06
4.99711e+06
4.91796e+06
4.84173e+06
4.76825e+06
4.69738e+06
4.62893e+06
4.56271e+06
4.49851e+06
4.43616e+06
4.37544e+06
4.31618e+06
4.25828e+06
4.20176e+06
4.14696e+06
4.09477e+06
5.24759e+06
5.16502e+06
5.08001e+06
4.9978e+06
4.91868e+06
4.8425e+06
4.76913e+06
4.69839e+06
4.63013e+06
4.56415e+06
4.5003e+06
4.43838e+06
4.37826e+06
4.31982e+06
4.26304e+06
4.20803e+06
4.15518e+06
4.10521e+06
5.2486e+06
5.16595e+06
5.08089e+06
4.99867e+06
4.91957e+06
4.84347e+06
4.77022e+06
4.69965e+06
4.63161e+06
4.56594e+06
4.50247e+06
4.44107e+06
4.38163e+06
4.32408e+06
4.26846e+06
4.21492e+06
4.16382e+06
4.11571e+06
5.24979e+06
5.1671e+06
5.08197e+06
4.99973e+06
4.92068e+06
4.84466e+06
4.77155e+06
4.70118e+06
4.63341e+06
4.56808e+06
4.50507e+06
4.44425e+06
4.38554e+06
4.32892e+06
4.27446e+06
4.22232e+06
4.17278e+06
4.12624e+06
5.25154e+06
5.16854e+06
5.0833e+06
5.00103e+06
4.92201e+06
4.8461e+06
4.77315e+06
4.70301e+06
4.63555e+06
4.57062e+06
4.5081e+06
4.44791e+06
4.38998e+06
4.33432e+06
4.28099e+06
4.23014e+06
4.18198e+06
4.13678e+06
5.25313e+06
5.17011e+06
5.08476e+06
5.00245e+06
4.92347e+06
4.84766e+06
4.77488e+06
4.70499e+06
4.63784e+06
4.57331e+06
4.51129e+06
4.45171e+06
4.39452e+06
4.33973e+06
4.2874e+06
4.23764e+06
4.1906e+06
4.14645e+06
5.2554e+06
5.17195e+06
5.08643e+06
5.00407e+06
4.92512e+06
4.84943e+06
4.77684e+06
4.7072e+06
4.6404e+06
4.5763e+06
4.5148e+06
4.45585e+06
4.3994e+06
4.34545e+06
4.29406e+06
4.2453e+06
4.19926e+06
4.15602e+06
5.25836e+06
5.1744e+06
5.08863e+06
5.0062e+06
4.92729e+06
4.85175e+06
4.77939e+06
4.71008e+06
4.6437e+06
4.58011e+06
4.51924e+06
4.46101e+06
4.4054e+06
4.35238e+06
4.30199e+06
4.25426e+06
4.20922e+06
4.1669e+06
5.2622e+06
5.17761e+06
5.09152e+06
5.00898e+06
4.93013e+06
4.85476e+06
4.7827e+06
4.71379e+06
4.6479e+06
4.58493e+06
4.52477e+06
4.46737e+06
4.41267e+06
4.36065e+06
4.31129e+06
4.26459e+06
4.22054e+06
4.17911e+06
5.26696e+06
5.1817e+06
5.09523e+06
5.01257e+06
4.93378e+06
4.85863e+06
4.78692e+06
4.71848e+06
4.65319e+06
4.59092e+06
4.53156e+06
4.47505e+06
4.42132e+06
4.37031e+06
4.32199e+06
4.2763e+06
4.2332e+06
4.19262e+06
5.27289e+06
5.18672e+06
5.09982e+06
5.01703e+06
4.93834e+06
4.86347e+06
4.79218e+06
4.72429e+06
4.65967e+06
4.59816e+06
4.53967e+06
4.48409e+06
4.43134e+06
4.38134e+06
4.33401e+06
4.28928e+06
4.24707e+06
4.20727e+06
5.27927e+06
5.1924e+06
5.10517e+06
5.02234e+06
4.94382e+06
4.86929e+06
4.79849e+06
4.73122e+06
4.66732e+06
4.60662e+06
4.54901e+06
4.49436e+06
4.44256e+06
4.39352e+06
4.34712e+06
4.30326e+06
4.26185e+06
4.22275e+06
5.28566e+06
5.19823e+06
5.11087e+06
5.02816e+06
4.94995e+06
4.87586e+06
4.80563e+06
4.73903e+06
4.67588e+06
4.616e+06
4.55925e+06
4.50548e+06
4.45457e+06
4.40639e+06
4.36081e+06
4.31772e+06
4.277e+06
4.23853e+06
5.28853e+06
5.20176e+06
5.11483e+06
5.03252e+06
4.95473e+06
4.88111e+06
4.81139e+06
4.74534e+06
4.68277e+06
4.6235e+06
4.56736e+06
4.51421e+06
4.4639e+06
4.41629e+06
4.37127e+06
4.32868e+06
4.28841e+06
4.25034e+06
5.28929e+06
5.2034e+06
5.11705e+06
5.03519e+06
4.9578e+06
4.88457e+06
4.81523e+06
4.74956e+06
4.68738e+06
4.6285e+06
4.57275e+06
4.51998e+06
4.47004e+06
4.42279e+06
4.37809e+06
4.33581e+06
4.29581e+06
4.25797e+06
5.28968e+06
5.20427e+06
5.11841e+06
5.03697e+06
4.95993e+06
4.88702e+06
4.81798e+06
4.75261e+06
4.69071e+06
4.63211e+06
4.57664e+06
4.52414e+06
4.47446e+06
4.42745e+06
4.38297e+06
4.34088e+06
4.30107e+06
4.26339e+06
5.28889e+06
5.20449e+06
5.11918e+06
5.03812e+06
4.96139e+06
4.88874e+06
4.81993e+06
4.75478e+06
4.69309e+06
4.63469e+06
4.57942e+06
4.5271e+06
4.47759e+06
4.43075e+06
4.38642e+06
4.34447e+06
4.30478e+06
4.26721e+06
5.28846e+06
5.2045e+06
5.11961e+06
5.03886e+06
4.96238e+06
4.88992e+06
4.82129e+06
4.7563e+06
4.69476e+06
4.63651e+06
4.58137e+06
4.52918e+06
4.47979e+06
4.43306e+06
4.38883e+06
4.34698e+06
4.30737e+06
4.26988e+06
5.28795e+06
5.20439e+06
5.11983e+06
5.03933e+06
4.96303e+06
4.89072e+06
4.82222e+06
4.75734e+06
4.69591e+06
4.63776e+06
4.58271e+06
4.53061e+06
4.48131e+06
4.43465e+06
4.39049e+06
4.3487e+06
4.30915e+06
4.2717e+06
5.28709e+06
5.20418e+06
5.11993e+06
5.03962e+06
4.96346e+06
4.89126e+06
4.82284e+06
4.75804e+06
4.69668e+06
4.63859e+06
4.58361e+06
4.53157e+06
4.48232e+06
4.43571e+06
4.3916e+06
4.34985e+06
4.31034e+06
4.27292e+06
5.2865e+06
5.204e+06
5.11998e+06
5.0398e+06
4.96373e+06
4.8916e+06
4.82324e+06
4.75849e+06
4.69718e+06
4.63913e+06
4.58419e+06
4.53219e+06
4.48297e+06
4.4364e+06
4.39232e+06
4.3506e+06
4.3111e+06
4.27371e+06
5.28614e+06
5.20388e+06
5.12e+06
5.03991e+06
4.96389e+06
4.8918e+06
4.82348e+06
4.75877e+06
4.69748e+06
4.63946e+06
4.58454e+06
4.53256e+06
4.48337e+06
4.43681e+06
4.39275e+06
4.35104e+06
4.31156e+06
4.27419e+06
5.28596e+06
5.20381e+06
5.12001e+06
5.03996e+06
4.96398e+06
4.89191e+06
4.82361e+06
4.75891e+06
4.69764e+06
4.63964e+06
4.58473e+06
4.53276e+06
4.48358e+06
4.43704e+06
4.39298e+06
4.35129e+06
4.31181e+06
4.27444e+06
5.28589e+06
5.20378e+06
5.12001e+06
5.03998e+06
4.96401e+06
4.89196e+06
4.82367e+06
4.75897e+06
4.69771e+06
4.63971e+06
4.58481e+06
4.53284e+06
4.48367e+06
4.43713e+06
4.39308e+06
4.35138e+06
4.31192e+06
4.27455e+06
3.41796e+06
3.41769e+06
3.41714e+06
3.41631e+06
3.41519e+06
3.41377e+06
3.41206e+06
3.41005e+06
3.40774e+06
3.40512e+06
3.40218e+06
3.39893e+06
3.39536e+06
3.39147e+06
3.38725e+06
3.38271e+06
3.37784e+06
3.37264e+06
3.36712e+06
3.36127e+06
3.35509e+06
3.34859e+06
3.34177e+06
3.33463e+06
3.32718e+06
3.31941e+06
3.31133e+06
3.30295e+06
3.29426e+06
3.28527e+06
3.27598e+06
3.2664e+06
3.25653e+06
3.24638e+06
3.23593e+06
3.22521e+06
3.21422e+06
3.20297e+06
3.19145e+06
3.17968e+06
3.16765e+06
3.15537e+06
3.14284e+06
3.13006e+06
3.11703e+06
3.10377e+06
3.09027e+06
3.07654e+06
3.06258e+06
3.04841e+06
3.03402e+06
3.01942e+06
3.00462e+06
2.98962e+06
2.97443e+06
2.95905e+06
2.94348e+06
2.92772e+06
2.91178e+06
2.89566e+06
2.87936e+06
2.86289e+06
2.84626e+06
2.82947e+06
2.81251e+06
2.79539e+06
2.7781e+06
2.76066e+06
2.74307e+06
2.72533e+06
2.70745e+06
2.68942e+06
2.67125e+06
2.65294e+06
2.63449e+06
2.61592e+06
2.59722e+06
2.57839e+06
2.55944e+06
2.54038e+06
2.52121e+06
2.50194e+06
2.48255e+06
2.46306e+06
2.44346e+06
2.42375e+06
2.40395e+06
2.38404e+06
2.36405e+06
2.34395e+06
2.32377e+06
2.3035e+06
2.28316e+06
2.26275e+06
2.24225e+06
2.22167e+06
2.201e+06
2.18025e+06
2.1594e+06
2.13846e+06
2.11743e+06
2.09631e+06
2.07511e+06
2.05383e+06
2.03248e+06
2.01106e+06
1.98957e+06
1.96803e+06
1.94643e+06
1.92479e+06
1.9031e+06
1.88137e+06
1.85959e+06
1.83777e+06
1.81592e+06
1.79402e+06
1.77209e+06
1.75012e+06
1.72812e+06
1.70609e+06
1.68403e+06
1.66194e+06
1.63983e+06
1.6177e+06
1.59556e+06
1.57339e+06
1.55121e+06
1.52901e+06
1.50681e+06
1.4846e+06
1.46238e+06
1.44016e+06
1.41794e+06
1.39572e+06
1.3735e+06
1.35129e+06
1.32909e+06
1.30691e+06
1.28474e+06
1.26259e+06
1.24046e+06
1.21835e+06
1.19628e+06
1.17424e+06
1.15223e+06
1.13026e+06
1.10833e+06
1.08645e+06
1.06461e+06
1.04283e+06
1.02111e+06
999454
977860
956336
934888
913519
892234
871040
849940
828938
808041
787251
766573
746016
725585
705284
685122
665105
645239
625532
605993
586629
567452
548473
529708
511176
492899
474917
457293
440167
3.4192e+06
3.41893e+06
3.41838e+06
3.41754e+06
3.41642e+06
3.41499e+06
3.41327e+06
3.41125e+06
3.40893e+06
3.40629e+06
3.40334e+06
3.40007e+06
3.39648e+06
3.39257e+06
3.38833e+06
3.38377e+06
3.37888e+06
3.37366e+06
3.36811e+06
3.36223e+06
3.35603e+06
3.3495e+06
3.34266e+06
3.33549e+06
3.32801e+06
3.32021e+06
3.31211e+06
3.3037e+06
3.29498e+06
3.28597e+06
3.27666e+06
3.26706e+06
3.25717e+06
3.24699e+06
3.23653e+06
3.22579e+06
3.21478e+06
3.2035e+06
3.19197e+06
3.18017e+06
3.16812e+06
3.15582e+06
3.14326e+06
3.13046e+06
3.11741e+06
3.10413e+06
3.09062e+06
3.07688e+06
3.06291e+06
3.04872e+06
3.03431e+06
3.0197e+06
3.00489e+06
2.98988e+06
2.97468e+06
2.95928e+06
2.9437e+06
2.92793e+06
2.91198e+06
2.89585e+06
2.87955e+06
2.86308e+06
2.84644e+06
2.82963e+06
2.81266e+06
2.79553e+06
2.77824e+06
2.7608e+06
2.7432e+06
2.72546e+06
2.70758e+06
2.68955e+06
2.67138e+06
2.65306e+06
2.63461e+06
2.61603e+06
2.59732e+06
2.57848e+06
2.55953e+06
2.54047e+06
2.52129e+06
2.50201e+06
2.48262e+06
2.46312e+06
2.44352e+06
2.42382e+06
2.40401e+06
2.3841e+06
2.3641e+06
2.344e+06
2.32382e+06
2.30356e+06
2.28322e+06
2.26281e+06
2.24231e+06
2.22172e+06
2.20105e+06
2.18029e+06
2.15944e+06
2.1385e+06
2.11747e+06
2.09635e+06
2.07515e+06
2.05386e+06
2.03251e+06
2.01108e+06
1.98959e+06
1.96805e+06
1.94645e+06
1.92481e+06
1.90312e+06
1.88138e+06
1.8596e+06
1.83778e+06
1.81592e+06
1.79403e+06
1.77209e+06
1.75012e+06
1.72812e+06
1.70609e+06
1.68403e+06
1.66194e+06
1.63984e+06
1.61771e+06
1.59556e+06
1.57339e+06
1.55121e+06
1.52902e+06
1.50681e+06
1.4846e+06
1.46238e+06
1.44016e+06
1.41794e+06
1.39572e+06
1.3735e+06
1.35129e+06
1.3291e+06
1.30691e+06
1.28474e+06
1.26259e+06
1.24046e+06
1.21836e+06
1.19628e+06
1.17424e+06
1.15223e+06
1.13026e+06
1.10833e+06
1.08645e+06
1.06461e+06
1.04284e+06
1.02111e+06
999455
977862
956338
934889
913521
892237
871042
849941
828940
808041
787251
766573
746016
725585
705284
685122
665104
645238
625531
605991
586627
567448
548468
529700
511163
492879
474885
457234
440026
3.42168e+06
3.4214e+06
3.42084e+06
3.42e+06
3.41886e+06
3.41743e+06
3.4157e+06
3.41366e+06
3.41131e+06
3.40865e+06
3.40566e+06
3.40236e+06
3.39874e+06
3.39479e+06
3.39051e+06
3.3859e+06
3.38096e+06
3.37569e+06
3.37009e+06
3.36416e+06
3.35791e+06
3.35133e+06
3.34443e+06
3.33721e+06
3.32967e+06
3.32182e+06
3.31366e+06
3.30519e+06
3.29642e+06
3.28736e+06
3.278e+06
3.26835e+06
3.25841e+06
3.24819e+06
3.23769e+06
3.22691e+06
3.21586e+06
3.20454e+06
3.19297e+06
3.18113e+06
3.16904e+06
3.1567e+06
3.1441e+06
3.13126e+06
3.11818e+06
3.10487e+06
3.09132e+06
3.07755e+06
3.06355e+06
3.04933e+06
3.0349e+06
3.02026e+06
3.00542e+06
2.99039e+06
2.97516e+06
2.95974e+06
2.94413e+06
2.92834e+06
2.91237e+06
2.89623e+06
2.87991e+06
2.86342e+06
2.84677e+06
2.82995e+06
2.81296e+06
2.79582e+06
2.77852e+06
2.76107e+06
2.74346e+06
2.72572e+06
2.70782e+06
2.68978e+06
2.6716e+06
2.65327e+06
2.63481e+06
2.61622e+06
2.5975e+06
2.57865e+06
2.55969e+06
2.54061e+06
2.52143e+06
2.50214e+06
2.48274e+06
2.46324e+06
2.44363e+06
2.42392e+06
2.40411e+06
2.3842e+06
2.3642e+06
2.3441e+06
2.32392e+06
2.30366e+06
2.28332e+06
2.2629e+06
2.2424e+06
2.22181e+06
2.20114e+06
2.18037e+06
2.15952e+06
2.13857e+06
2.11754e+06
2.09641e+06
2.07521e+06
2.05392e+06
2.03256e+06
2.01113e+06
1.98964e+06
1.96809e+06
1.94649e+06
1.92484e+06
1.90315e+06
1.88141e+06
1.85963e+06
1.8378e+06
1.81594e+06
1.79404e+06
1.77211e+06
1.75013e+06
1.72813e+06
1.7061e+06
1.68404e+06
1.66195e+06
1.63984e+06
1.61771e+06
1.59556e+06
1.57339e+06
1.55121e+06
1.52902e+06
1.50681e+06
1.4846e+06
1.46238e+06
1.44016e+06
1.41794e+06
1.39572e+06
1.3735e+06
1.3513e+06
1.3291e+06
1.30691e+06
1.28474e+06
1.26259e+06
1.24046e+06
1.21836e+06
1.19628e+06
1.17424e+06
1.15223e+06
1.13026e+06
1.10833e+06
1.08645e+06
1.06462e+06
1.04284e+06
1.02112e+06
999457
977864
956340
934892
913523
892239
871044
849943
828941
808042
787251
766574
746017
725585
705284
685121
665103
645236
625528
605988
586622
567440
548456
529683
511137
492841
474823
457128
439808
3.42541e+06
3.42513e+06
3.42456e+06
3.42371e+06
3.42256e+06
3.4211e+06
3.41934e+06
3.41727e+06
3.41489e+06
3.41218e+06
3.40915e+06
3.4058e+06
3.40211e+06
3.3981e+06
3.39375e+06
3.38907e+06
3.38406e+06
3.37872e+06
3.37305e+06
3.36704e+06
3.36071e+06
3.35405e+06
3.34707e+06
3.33977e+06
3.33215e+06
3.32422e+06
3.31598e+06
3.30744e+06
3.29859e+06
3.28944e+06
3.28001e+06
3.27028e+06
3.26027e+06
3.24998e+06
3.23941e+06
3.22856e+06
3.21745e+06
3.20608e+06
3.19445e+06
3.18256e+06
3.17041e+06
3.15801e+06
3.14536e+06
3.13247e+06
3.11934e+06
3.10598e+06
3.09238e+06
3.07856e+06
3.06451e+06
3.05025e+06
3.03577e+06
3.02109e+06
3.00621e+06
2.99114e+06
2.97587e+06
2.96042e+06
2.94478e+06
2.92896e+06
2.91296e+06
2.89679e+06
2.88045e+06
2.86394e+06
2.84726e+06
2.83041e+06
2.81341e+06
2.79625e+06
2.77893e+06
2.76146e+06
2.74384e+06
2.72608e+06
2.70816e+06
2.69011e+06
2.67191e+06
2.65357e+06
2.63509e+06
2.61648e+06
2.59775e+06
2.57889e+06
2.55991e+06
2.54082e+06
2.52163e+06
2.50233e+06
2.48292e+06
2.46341e+06
2.44379e+06
2.42408e+06
2.40426e+06
2.38435e+06
2.36434e+06
2.34425e+06
2.32407e+06
2.3038e+06
2.28346e+06
2.26304e+06
2.24253e+06
2.22194e+06
2.20126e+06
2.18049e+06
2.15963e+06
2.13868e+06
2.11764e+06
2.09651e+06
2.07529e+06
2.054e+06
2.03263e+06
2.0112e+06
1.9897e+06
1.96815e+06
1.94654e+06
1.92489e+06
1.90319e+06
1.88145e+06
1.85966e+06
1.83784e+06
1.81597e+06
1.79407e+06
1.77213e+06
1.75015e+06
1.72815e+06
1.70611e+06
1.68405e+06
1.66196e+06
1.63985e+06
1.61772e+06
1.59556e+06
1.5734e+06
1.55121e+06
1.52902e+06
1.50682e+06
1.4846e+06
1.46239e+06
1.44016e+06
1.41794e+06
1.39572e+06
1.37351e+06
1.3513e+06
1.3291e+06
1.30691e+06
1.28474e+06
1.26259e+06
1.24046e+06
1.21836e+06
1.19628e+06
1.17424e+06
1.15223e+06
1.13026e+06
1.10833e+06
1.08645e+06
1.06462e+06
1.04284e+06
1.02112e+06
999460
977867
956343
934895
913526
892242
871046
849945
828942
808042
787251
766574
746016
725584
705283
685119
665101
645233
625525
605983
586615
567430
548440
529659
511101
492786
474738
456987
439556
3.43043e+06
3.43014e+06
3.42956e+06
3.42869e+06
3.42751e+06
3.42603e+06
3.42423e+06
3.42211e+06
3.41967e+06
3.4169e+06
3.41381e+06
3.41038e+06
3.40661e+06
3.40252e+06
3.39808e+06
3.39331e+06
3.3882e+06
3.38276e+06
3.37698e+06
3.37088e+06
3.36444e+06
3.35768e+06
3.35059e+06
3.34318e+06
3.33546e+06
3.32742e+06
3.31907e+06
3.31042e+06
3.30147e+06
3.29222e+06
3.28268e+06
3.27286e+06
3.26275e+06
3.25236e+06
3.2417e+06
3.23077e+06
3.21957e+06
3.20812e+06
3.1964e+06
3.18444e+06
3.17222e+06
3.15975e+06
3.14704e+06
3.13408e+06
3.12088e+06
3.10745e+06
3.09379e+06
3.07989e+06
3.06578e+06
3.05145e+06
3.03692e+06
3.02218e+06
3.00725e+06
2.99212e+06
2.97681e+06
2.96131e+06
2.94563e+06
2.92977e+06
2.91374e+06
2.89753e+06
2.88115e+06
2.8646e+06
2.84789e+06
2.83102e+06
2.81399e+06
2.79681e+06
2.77947e+06
2.76197e+06
2.74433e+06
2.72653e+06
2.7086e+06
2.69051e+06
2.67229e+06
2.65393e+06
2.63543e+06
2.61681e+06
2.59805e+06
2.57918e+06
2.56019e+06
2.54108e+06
2.52188e+06
2.50256e+06
2.48314e+06
2.46362e+06
2.444e+06
2.42427e+06
2.40445e+06
2.38453e+06
2.36452e+06
2.34443e+06
2.32424e+06
2.30398e+06
2.28363e+06
2.2632e+06
2.24269e+06
2.22209e+06
2.2014e+06
2.18063e+06
2.15976e+06
2.13881e+06
2.11776e+06
2.09663e+06
2.0754e+06
2.0541e+06
2.03273e+06
2.01129e+06
1.98978e+06
1.96822e+06
1.94661e+06
1.92495e+06
1.90325e+06
1.8815e+06
1.85971e+06
1.83788e+06
1.81601e+06
1.7941e+06
1.77215e+06
1.75018e+06
1.72817e+06
1.70613e+06
1.68406e+06
1.66197e+06
1.63986e+06
1.61772e+06
1.59557e+06
1.5734e+06
1.55122e+06
1.52902e+06
1.50682e+06
1.48461e+06
1.46239e+06
1.44017e+06
1.41795e+06
1.39573e+06
1.37351e+06
1.3513e+06
1.3291e+06
1.30692e+06
1.28475e+06
1.2626e+06
1.24047e+06
1.21836e+06
1.19629e+06
1.17424e+06
1.15224e+06
1.13027e+06
1.10834e+06
1.08646e+06
1.06462e+06
1.04284e+06
1.02112e+06
999464
977870
956347
934899
913530
892245
871049
849947
828944
808044
787252
766574
746015
725582
705280
685116
665096
645228
625518
605975
586604
567415
548418
529627
511055
492718
474634
456824
439291
3.43678e+06
3.43647e+06
3.43588e+06
3.43498e+06
3.43376e+06
3.43223e+06
3.43038e+06
3.42819e+06
3.42568e+06
3.42283e+06
3.41965e+06
3.41613e+06
3.41227e+06
3.40806e+06
3.40351e+06
3.39862e+06
3.39339e+06
3.38783e+06
3.38192e+06
3.37568e+06
3.36911e+06
3.36221e+06
3.35499e+06
3.34744e+06
3.33958e+06
3.33141e+06
3.32293e+06
3.31415e+06
3.30507e+06
3.29569e+06
3.28602e+06
3.27607e+06
3.26584e+06
3.25534e+06
3.24456e+06
3.23352e+06
3.22222e+06
3.21066e+06
3.19885e+06
3.18678e+06
3.17447e+06
3.16191e+06
3.14911e+06
3.13607e+06
3.12279e+06
3.10928e+06
3.09553e+06
3.08155e+06
3.06735e+06
3.05295e+06
3.03833e+06
3.02352e+06
3.00852e+06
2.99333e+06
2.97796e+06
2.9624e+06
2.94667e+06
2.93076e+06
2.91468e+06
2.89843e+06
2.88201e+06
2.86542e+06
2.84868e+06
2.83177e+06
2.81471e+06
2.7975e+06
2.78012e+06
2.7626e+06
2.74492e+06
2.72709e+06
2.70912e+06
2.691e+06
2.67274e+06
2.65435e+06
2.63583e+06
2.61718e+06
2.5984e+06
2.57951e+06
2.5605e+06
2.54139e+06
2.52216e+06
2.50284e+06
2.48341e+06
2.46387e+06
2.44424e+06
2.42451e+06
2.40468e+06
2.38475e+06
2.36474e+06
2.34464e+06
2.32445e+06
2.30418e+06
2.28383e+06
2.2634e+06
2.24288e+06
2.22227e+06
2.20158e+06
2.1808e+06
2.15993e+06
2.13896e+06
2.11791e+06
2.09677e+06
2.07554e+06
2.05423e+06
2.03285e+06
2.0114e+06
1.98988e+06
1.96832e+06
1.9467e+06
1.92504e+06
1.90333e+06
1.88157e+06
1.85977e+06
1.83793e+06
1.81606e+06
1.79414e+06
1.77219e+06
1.75021e+06
1.72819e+06
1.70615e+06
1.68408e+06
1.66199e+06
1.63987e+06
1.61773e+06
1.59558e+06
1.57341e+06
1.55123e+06
1.52903e+06
1.50682e+06
1.48461e+06
1.46239e+06
1.44017e+06
1.41795e+06
1.39573e+06
1.37351e+06
1.35131e+06
1.32911e+06
1.30692e+06
1.28475e+06
1.2626e+06
1.24047e+06
1.21837e+06
1.19629e+06
1.17425e+06
1.15224e+06
1.13027e+06
1.10834e+06
1.08646e+06
1.06463e+06
1.04285e+06
1.02113e+06
999468
977875
956352
934903
913534
892249
871053
849951
828946
808046
787253
766574
746015
725580
705277
685111
665089
645219
625508
605962
586588
567394
548390
529588
511000
492638
474517
456649
439027
3.44448e+06
3.44417e+06
3.44354e+06
3.4426e+06
3.44133e+06
3.43974e+06
3.43781e+06
3.43555e+06
3.43295e+06
3.43e+06
3.42671e+06
3.42307e+06
3.41908e+06
3.41475e+06
3.41006e+06
3.40503e+06
3.39964e+06
3.39392e+06
3.38786e+06
3.38146e+06
3.37472e+06
3.36766e+06
3.36027e+06
3.35256e+06
3.34453e+06
3.3362e+06
3.32755e+06
3.31861e+06
3.30937e+06
3.29984e+06
3.29002e+06
3.27992e+06
3.26954e+06
3.2589e+06
3.24798e+06
3.23681e+06
3.22538e+06
3.21369e+06
3.20176e+06
3.18958e+06
3.17715e+06
3.16449e+06
3.15159e+06
3.13845e+06
3.12506e+06
3.11145e+06
3.0976e+06
3.08352e+06
3.06922e+06
3.05472e+06
3.04001e+06
3.02511e+06
3.01003e+06
2.99476e+06
2.97931e+06
2.96369e+06
2.9479e+06
2.93193e+06
2.91579e+06
2.89949e+06
2.88302e+06
2.86639e+06
2.84961e+06
2.83267e+06
2.81557e+06
2.79831e+06
2.7809e+06
2.76334e+06
2.74562e+06
2.72775e+06
2.70973e+06
2.69157e+06
2.67328e+06
2.65485e+06
2.63629e+06
2.61761e+06
2.5988e+06
2.57989e+06
2.56086e+06
2.54173e+06
2.52249e+06
2.50315e+06
2.48371e+06
2.46417e+06
2.44452e+06
2.42478e+06
2.40494e+06
2.385e+06
2.36498e+06
2.34488e+06
2.32469e+06
2.30441e+06
2.28406e+06
2.26361e+06
2.24309e+06
2.22248e+06
2.20178e+06
2.18099e+06
2.16011e+06
2.13914e+06
2.11808e+06
2.09693e+06
2.07569e+06
2.05438e+06
2.03298e+06
2.01152e+06
1.99e+06
1.96843e+06
1.94681e+06
1.92514e+06
1.90342e+06
1.88165e+06
1.85985e+06
1.838e+06
1.81611e+06
1.79419e+06
1.77223e+06
1.75024e+06
1.72822e+06
1.70618e+06
1.6841e+06
1.66201e+06
1.63989e+06
1.61775e+06
1.59559e+06
1.57342e+06
1.55123e+06
1.52904e+06
1.50683e+06
1.48462e+06
1.4624e+06
1.44018e+06
1.41795e+06
1.39573e+06
1.37352e+06
1.35131e+06
1.32911e+06
1.30693e+06
1.28476e+06
1.26261e+06
1.24048e+06
1.21838e+06
1.1963e+06
1.17426e+06
1.15225e+06
1.13028e+06
1.10835e+06
1.08647e+06
1.06463e+06
1.04285e+06
1.02113e+06
999474
977880
956357
934909
913539
892254
871058
849955
828950
808048
787255
766576
746015
725579
705274
685106
665082
645209
625494
605945
586567
567367
548355
529542
510937
492549
474391
456467
438767
3.4536e+06
3.45325e+06
3.45259e+06
3.4516e+06
3.45027e+06
3.4486e+06
3.44658e+06
3.44422e+06
3.4415e+06
3.43843e+06
3.43501e+06
3.43122e+06
3.42708e+06
3.42258e+06
3.41773e+06
3.41252e+06
3.40696e+06
3.40105e+06
3.3948e+06
3.3882e+06
3.38128e+06
3.37402e+06
3.36643e+06
3.35852e+06
3.3503e+06
3.34177e+06
3.33294e+06
3.3238e+06
3.31438e+06
3.30466e+06
3.29466e+06
3.28439e+06
3.27384e+06
3.26302e+06
3.25195e+06
3.24062e+06
3.22903e+06
3.2172e+06
3.20513e+06
3.19282e+06
3.18027e+06
3.16748e+06
3.15445e+06
3.14119e+06
3.1277e+06
3.11396e+06
3.09999e+06
3.0858e+06
3.07139e+06
3.05677e+06
3.04195e+06
3.02695e+06
3.01176e+06
2.9964e+06
2.98087e+06
2.96517e+06
2.94931e+06
2.93327e+06
2.91707e+06
2.90071e+06
2.88419e+06
2.86751e+06
2.85068e+06
2.83369e+06
2.81655e+06
2.79925e+06
2.7818e+06
2.76419e+06
2.74642e+06
2.72851e+06
2.71044e+06
2.69224e+06
2.6739e+06
2.65542e+06
2.63682e+06
2.6181e+06
2.59927e+06
2.58032e+06
2.56128e+06
2.54212e+06
2.52287e+06
2.50352e+06
2.48406e+06
2.4645e+06
2.44484e+06
2.42508e+06
2.40522e+06
2.38528e+06
2.36525e+06
2.34513e+06
2.32493e+06
2.30465e+06
2.28429e+06
2.26385e+06
2.24331e+06
2.22269e+06
2.20198e+06
2.18119e+06
2.1603e+06
2.13932e+06
2.11826e+06
2.0971e+06
2.07586e+06
2.05453e+06
2.03314e+06
2.01167e+06
1.99014e+06
1.96856e+06
1.94693e+06
1.92525e+06
1.90352e+06
1.88175e+06
1.85993e+06
1.83808e+06
1.81618e+06
1.79425e+06
1.77228e+06
1.75029e+06
1.72826e+06
1.70621e+06
1.68413e+06
1.66203e+06
1.6399e+06
1.61776e+06
1.5956e+06
1.57343e+06
1.55124e+06
1.52904e+06
1.50684e+06
1.48462e+06
1.46241e+06
1.44018e+06
1.41796e+06
1.39574e+06
1.37353e+06
1.35132e+06
1.32912e+06
1.30694e+06
1.28477e+06
1.26262e+06
1.24049e+06
1.21838e+06
1.19631e+06
1.17426e+06
1.15226e+06
1.13028e+06
1.10836e+06
1.08647e+06
1.06464e+06
1.04286e+06
1.02114e+06
999481
977887
956364
934915
913546
892260
871063
849960
828955
808053
787259
766578
746016
725579
705272
685102
665075
645198
625478
605923
586539
567333
548313
529488
510866
492453
474259
456283
438516
3.46417e+06
3.4638e+06
3.46309e+06
3.46203e+06
3.46062e+06
3.45886e+06
3.45673e+06
3.45424e+06
3.45138e+06
3.44816e+06
3.44457e+06
3.44061e+06
3.43629e+06
3.4316e+06
3.42654e+06
3.42112e+06
3.41535e+06
3.40922e+06
3.40275e+06
3.39593e+06
3.38877e+06
3.38128e+06
3.37347e+06
3.36533e+06
3.35689e+06
3.34813e+06
3.33907e+06
3.32972e+06
3.32008e+06
3.31015e+06
3.29994e+06
3.28947e+06
3.27872e+06
3.26771e+06
3.25645e+06
3.24494e+06
3.23319e+06
3.22119e+06
3.20896e+06
3.1965e+06
3.18381e+06
3.17088e+06
3.15772e+06
3.14432e+06
3.13069e+06
3.11682e+06
3.10271e+06
3.08838e+06
3.07384e+06
3.05909e+06
3.04414e+06
3.02902e+06
3.01372e+06
2.99826e+06
2.98264e+06
2.96685e+06
2.9509e+06
2.93479e+06
2.91852e+06
2.90209e+06
2.88551e+06
2.86878e+06
2.85189e+06
2.83485e+06
2.81766e+06
2.80031e+06
2.7828e+06
2.76514e+06
2.74733e+06
2.72936e+06
2.71125e+06
2.69299e+06
2.6746e+06
2.65607e+06
2.63743e+06
2.61867e+06
2.5998e+06
2.58082e+06
2.56175e+06
2.54258e+06
2.5233e+06
2.50393e+06
2.48445e+06
2.46487e+06
2.44519e+06
2.42541e+06
2.40554e+06
2.38558e+06
2.36553e+06
2.3454e+06
2.32519e+06
2.30491e+06
2.28454e+06
2.26408e+06
2.24354e+06
2.22291e+06
2.20219e+06
2.18139e+06
2.16049e+06
2.13951e+06
2.11844e+06
2.09728e+06
2.07603e+06
2.0547e+06
2.0333e+06
2.01182e+06
1.99029e+06
1.9687e+06
1.94706e+06
1.92537e+06
1.90364e+06
1.88186e+06
1.86003e+06
1.83816e+06
1.81626e+06
1.79431e+06
1.77234e+06
1.75033e+06
1.7283e+06
1.70624e+06
1.68416e+06
1.66205e+06
1.63993e+06
1.61778e+06
1.59562e+06
1.57344e+06
1.55125e+06
1.52905e+06
1.50685e+06
1.48463e+06
1.46241e+06
1.44019e+06
1.41797e+06
1.39575e+06
1.37354e+06
1.35133e+06
1.32913e+06
1.30695e+06
1.28478e+06
1.26263e+06
1.2405e+06
1.21839e+06
1.19632e+06
1.17428e+06
1.15227e+06
1.1303e+06
1.10837e+06
1.08648e+06
1.06465e+06
1.04287e+06
1.02115e+06
999489
977895
956371
934923
913553
892267
871070
849966
828960
808058
787263
766581
746018
725579
705271
685098
665068
645187
625462
605900
586509
567294
548265
529427
510788
492351
474122
456101
438275
3.47627e+06
3.47587e+06
3.47511e+06
3.47397e+06
3.47247e+06
3.47059e+06
3.46833e+06
3.46568e+06
3.46266e+06
3.45925e+06
3.45546e+06
3.45129e+06
3.44675e+06
3.44183e+06
3.43653e+06
3.43087e+06
3.42484e+06
3.41846e+06
3.41172e+06
3.40464e+06
3.39722e+06
3.38947e+06
3.38139e+06
3.37299e+06
3.36429e+06
3.35528e+06
3.34597e+06
3.33637e+06
3.32648e+06
3.31631e+06
3.30587e+06
3.29516e+06
3.28419e+06
3.27297e+06
3.2615e+06
3.24979e+06
3.23784e+06
3.22566e+06
3.21326e+06
3.20063e+06
3.18778e+06
3.17469e+06
3.16138e+06
3.14783e+06
3.13404e+06
3.12001e+06
3.10575e+06
3.09127e+06
3.07657e+06
3.06167e+06
3.04659e+06
3.03133e+06
3.01591e+06
3.00033e+06
2.9846e+06
2.96871e+06
2.95267e+06
2.93648e+06
2.92013e+06
2.90363e+06
2.88698e+06
2.87018e+06
2.85323e+06
2.83612e+06
2.81887e+06
2.80146e+06
2.7839e+06
2.76619e+06
2.74832e+06
2.7303e+06
2.71213e+06
2.69382e+06
2.67537e+06
2.6568e+06
2.63811e+06
2.6193e+06
2.6004e+06
2.58139e+06
2.56229e+06
2.54309e+06
2.52379e+06
2.50439e+06
2.48489e+06
2.46529e+06
2.44558e+06
2.42578e+06
2.40588e+06
2.3859e+06
2.36583e+06
2.34568e+06
2.32546e+06
2.30516e+06
2.28479e+06
2.26432e+06
2.24377e+06
2.22313e+06
2.2024e+06
2.18159e+06
2.16069e+06
2.1397e+06
2.11862e+06
2.09746e+06
2.07621e+06
2.05487e+06
2.03346e+06
2.01198e+06
1.99044e+06
1.96884e+06
1.9472e+06
1.92551e+06
1.90376e+06
1.88197e+06
1.86014e+06
1.83826e+06
1.81634e+06
1.79439e+06
1.7724e+06
1.75039e+06
1.72835e+06
1.70628e+06
1.68419e+06
1.66208e+06
1.63995e+06
1.6178e+06
1.59564e+06
1.57346e+06
1.55127e+06
1.52907e+06
1.50686e+06
1.48464e+06
1.46242e+06
1.4402e+06
1.41798e+06
1.39576e+06
1.37355e+06
1.35134e+06
1.32914e+06
1.30696e+06
1.28479e+06
1.26264e+06
1.24051e+06
1.21841e+06
1.19633e+06
1.17429e+06
1.15228e+06
1.13031e+06
1.10838e+06
1.0865e+06
1.06466e+06
1.04288e+06
1.02116e+06
999499
977905
956381
934932
913562
892276
871078
849974
828968
808064
787268
766585
746021
725580
705270
685095
665062
645177
625446
605877
586477
567253
548212
529361
510704
492243
473983
455920
438045
3.49002e+06
3.48958e+06
3.48875e+06
3.48752e+06
3.4859e+06
3.48388e+06
3.48146e+06
3.47864e+06
3.47541e+06
3.47178e+06
3.46775e+06
3.46333e+06
3.45852e+06
3.45333e+06
3.44775e+06
3.4418e+06
3.43547e+06
3.42879e+06
3.42175e+06
3.41437e+06
3.40664e+06
3.39859e+06
3.39021e+06
3.38151e+06
3.37251e+06
3.36321e+06
3.35362e+06
3.34374e+06
3.33358e+06
3.32314e+06
3.31244e+06
3.30147e+06
3.29025e+06
3.27879e+06
3.26709e+06
3.25515e+06
3.24299e+06
3.2306e+06
3.218e+06
3.20518e+06
3.19214e+06
3.17888e+06
3.16539e+06
3.15167e+06
3.13771e+06
3.12351e+06
3.10908e+06
3.09443e+06
3.07957e+06
3.06451e+06
3.04927e+06
3.03387e+06
3.01832e+06
3.00261e+06
2.98676e+06
2.97077e+06
2.95463e+06
2.93834e+06
2.9219e+06
2.90531e+06
2.88858e+06
2.8717e+06
2.85468e+06
2.8375e+06
2.82018e+06
2.80271e+06
2.78508e+06
2.76731e+06
2.74938e+06
2.7313e+06
2.71307e+06
2.6947e+06
2.6762e+06
2.65758e+06
2.63884e+06
2.62e+06
2.60105e+06
2.58202e+06
2.56289e+06
2.54366e+06
2.52434e+06
2.50491e+06
2.48538e+06
2.46575e+06
2.44602e+06
2.42618e+06
2.40626e+06
2.38624e+06
2.36615e+06
2.34598e+06
2.32575e+06
2.30544e+06
2.28504e+06
2.26457e+06
2.244e+06
2.22335e+06
2.20261e+06
2.18179e+06
2.16088e+06
2.13989e+06
2.11881e+06
2.09764e+06
2.07638e+06
2.05504e+06
2.03362e+06
2.01213e+06
1.99059e+06
1.96899e+06
1.94734e+06
1.92564e+06
1.9039e+06
1.8821e+06
1.86025e+06
1.83836e+06
1.81643e+06
1.79446e+06
1.77247e+06
1.75044e+06
1.72839e+06
1.70632e+06
1.68423e+06
1.66211e+06
1.63998e+06
1.61783e+06
1.59566e+06
1.57348e+06
1.55128e+06
1.52908e+06
1.50687e+06
1.48466e+06
1.46244e+06
1.44022e+06
1.41799e+06
1.39578e+06
1.37356e+06
1.35136e+06
1.32916e+06
1.30698e+06
1.28481e+06
1.26266e+06
1.24053e+06
1.21843e+06
1.19635e+06
1.17431e+06
1.1523e+06
1.13033e+06
1.1084e+06
1.08651e+06
1.06468e+06
1.0429e+06
1.02117e+06
999512
977918
956393
934944
913573
892287
871089
849983
828976
808072
787275
766591
746025
725583
705270
685093
665056
645167
625431
605856
586447
567212
548158
529292
510616
492132
473842
455743
437825
3.50553e+06
3.50504e+06
3.50413e+06
3.5028e+06
3.50104e+06
3.49886e+06
3.49624e+06
3.4932e+06
3.48973e+06
3.48584e+06
3.48153e+06
3.47681e+06
3.47169e+06
3.46617e+06
3.46025e+06
3.45396e+06
3.44729e+06
3.44026e+06
3.43287e+06
3.42513e+06
3.41705e+06
3.40865e+06
3.39993e+06
3.3909e+06
3.38157e+06
3.37194e+06
3.36203e+06
3.35183e+06
3.34137e+06
3.33063e+06
3.31963e+06
3.30838e+06
3.29689e+06
3.28515e+06
3.27319e+06
3.261e+06
3.24859e+06
3.23597e+06
3.22314e+06
3.2101e+06
3.19685e+06
3.18338e+06
3.16969e+06
3.15578e+06
3.14163e+06
3.12725e+06
3.11264e+06
3.09782e+06
3.08279e+06
3.06757e+06
3.05217e+06
3.03662e+06
3.02092e+06
3.00509e+06
2.98911e+06
2.973e+06
2.95675e+06
2.94035e+06
2.92382e+06
2.90713e+06
2.89031e+06
2.87334e+06
2.85623e+06
2.83897e+06
2.82157e+06
2.80403e+06
2.78633e+06
2.76848e+06
2.75049e+06
2.73235e+06
2.71406e+06
2.69564e+06
2.67708e+06
2.65841e+06
2.63963e+06
2.62074e+06
2.60176e+06
2.5827e+06