/*--------------------------------*- C++ -*----------------------------------*\
  =========                 |
  \\      /  F ield         | OpenFOAM: The Open Source CFD Toolbox
   \\    /   O peration     | Website:  https://openfoam.org
    \\  /    A nd           | Version:  10
     \\/     M anipulation  |
\*---------------------------------------------------------------------------*/
FoamFile
{
    format      ascii;
    class       volScalarField;
    location    "2";
    object      Sb;
}
// * * * * * * * * * * * * * * * * * * * * * * * * * * * * * * * * * * * * * //

dimensions      [0 0 0 0 0 0 0];

internalField   nonuniform List<scalar> 
12225
(
0.870248
0.869232
0.867967
0.866585
0.865175
0.863796
0.862483
0.86126
0.860141
0.859135
0.858252
0.857505
0.85691
0.856501
0.856338
0.856554
0.857509
0.86029
0.882409
0.881123
0.87954
0.877827
0.876098
0.874421
0.872838
0.871373
0.87004
0.868848
0.867805
0.866922
0.866217
0.865721
0.865493
0.865651
0.866436
0.868259
0.890035
0.888523
0.886678
0.884698
0.882714
0.880803
0.87901
0.877359
0.875862
0.874526
0.873358
0.872367
0.871569
0.87099
0.870679
0.87072
0.871245
0.872368
0.896094
0.894362
0.892267
0.890037
0.887817
0.885692
0.883708
0.881889
0.880244
0.878778
0.877496
0.876404
0.875512
0.874842
0.874428
0.874318
0.874566
0.875164
0.901399
0.899441
0.897092
0.89461
0.892157
0.889822
0.887653
0.885671
0.883882
0.882291
0.880896
0.879701
0.878711
0.877939
0.877403
0.877123
0.877104
0.877292
0.906304
0.904102
0.901485
0.898743
0.89605
0.893502
0.891146
0.888999
0.887067
0.885348
0.883838
0.882535
0.881439
0.880553
0.879882
0.879423
0.879154
0.879011
0.911002
0.908531
0.905625
0.902605
0.899661
0.896891
0.894341
0.892025
0.889944
0.888092
0.886462
0.885044
0.883833
0.882824
0.882007
0.881368
0.88087
0.880452
0.915617
0.912844
0.909619
0.906299
0.903086
0.900081
0.897327
0.894835
0.892598
0.890608
0.888848
0.887308
0.885974
0.884831
0.883864
0.883047
0.88234
0.881691
0.920242
0.917122
0.91354
0.909891
0.906387
0.903131
0.900161
0.897481
0.895081
0.892943
0.891048
0.889376
0.88791
0.886629
0.885508
0.884518
0.883622
0.882772
0.924954
0.921427
0.917441
0.913426
0.909606
0.906078
0.902877
0.899998
0.897423
0.895129
0.89309
0.89128
0.889675
0.88825
0.886975
0.885821
0.88475
0.883725
0.929825
0.925813
0.921363
0.916937
0.912767
0.908945
0.905495
0.902404
0.899645
0.897186
0.894994
0.893038
0.89129
0.889717
0.888291
0.886979
0.885749
0.884568
0.934927
0.930327
0.925335
0.920444
0.915886
0.911743
0.908026
0.904709
0.901755
0.899121
0.89677
0.894663
0.892766
0.891046
0.88947
0.888008
0.886629
0.885308
0.939531
0.934307
0.928764
0.923418
0.918489
0.914046
0.910083
0.90656
0.903429
0.900639
0.898144
0.895903
0.893877
0.89203
0.890331
0.888749
0.887255
0.885828
0.945114
0.939018
0.932742
0.926807
0.921412
0.916599
0.912338
0.908569
0.905229
0.902257
0.899597
0.897203
0.895033
0.893048
0.891216
0.889506
0.887892
0.886352
0.951983
0.944622
0.937343
0.930632
0.924645
0.919377
0.914758
0.9107
0.907118
0.903938
0.901095
0.898534
0.896207
0.894073
0.892098
0.89025
0.888504
0.886839
0.96067
0.951397
0.942677
0.934912
0.928161
0.922331
0.91729
0.912905
0.90906
0.90566
0.902621
0.899877
0.897373
0.895064
0.892914
0.890893
0.888981
0.887159
0.972875
0.96068
0.949755
0.940487
0.93273
0.926189
0.920601
0.915766
0.91153
0.907752
0.904336
0.901225
0.898373
0.895742
0.893298
0.891017
0.888878
0.886864
0.956932
0.948533
0.94066
0.933534
0.927194
0.921588
0.916625
0.912212
0.908263
0.904724
0.901545
0.898616
0.895891
0.893353
0.890983
0.888762
0.886677
0.884715
0.941319
0.935625
0.929848
0.924346
0.919249
0.914587
0.910344
0.906482
0.902959
0.899734
0.896768
0.894066
0.891589
0.889278
0.887116
0.885086
0.883178
0.881378
0.930119
0.925961
0.921457
0.916977
0.912692
0.908672
0.904939
0.901485
0.898293
0.895339
0.892598
0.89005
0.887685
0.885504
0.883453
0.881524
0.879705
0.877989
0.920529
0.917348
0.913735
0.910017
0.906367
0.902872
0.899573
0.89648
0.893589
0.89089
0.888368
0.886008
0.883797
0.881735
0.879814
0.878002
0.876291
0.874674
0.912074
0.909546
0.906578
0.903442
0.900298
0.897237
0.894308
0.89153
0.88891
0.886445
0.884127
0.881947
0.879895
0.877962
0.87616
0.87446
0.872853
0.871334
0.904413
0.902348
0.899863
0.897182
0.894448
0.89175
0.889138
0.886638
0.88426
0.882008
0.879878
0.877866
0.875965
0.874168
0.872471
0.870881
0.869375
0.867947
0.897287
0.895566
0.893455
0.89114
0.888746
0.886356
0.884019
0.881764
0.879604
0.877547
0.875592
0.873736
0.871976
0.870308
0.868725
0.867235
0.865824
0.864484
0.890474
0.88902
0.887209
0.885195
0.883089
0.880965
0.878871
0.876835
0.874874
0.872995
0.871201
0.869492
0.867866
0.866319
0.864848
0.863455
0.862135
0.860881
0.88375
0.882512
0.880949
0.879191
0.877335
0.875446
0.87357
0.871734
0.869956
0.868243
0.866601
0.865031
0.863531
0.862101
0.860736
0.859436
0.858205
0.857033
0.876841
0.875784
0.874435
0.872901
0.871267
0.869592
0.867917
0.866268
0.864662
0.863108
0.861612
0.860175
0.858799
0.857481
0.856221
0.855017
0.853872
0.85278
0.869312
0.868414
0.867256
0.865928
0.864501
0.863028
0.861545
0.860076
0.858639
0.857241
0.855889
0.854587
0.853334
0.852131
0.850977
0.84987
0.848815
0.847806
0.860219
0.859472
0.858496
0.857368
0.856146
0.854875
0.853587
0.852305
0.851041
0.849807
0.848608
0.847447
0.846326
0.845245
0.844204
0.843203
0.842244
0.841324
0.845875
0.845282
0.844497
0.843579
0.842574
0.841519
0.84044
0.839356
0.838279
0.837218
0.83618
0.835167
0.834181
0.833225
0.832298
0.831401
0.830535
0.829716
0.717246
0.717457
0.717778
0.718202
0.718732
0.719378
0.720157
0.721086
0.722183
0.723469
0.724963
0.726691
0.728675
0.730942
0.733515
0.736412
0.739639
0.743182
0.747001
0.751015
0.755102
0.759103
0.762847
0.766179
0.768986
0.771194
0.772738
0.77351
0.773249
0.771273
0.765402
0.744127
0.486686
0.0232672
3.55863e-05
1.1e-06
1.1e-06
1.1e-06
1.1e-06
1.1e-06
1.1e-06
1.1e-06
1.1e-06
1.1e-06
1.1e-06
1.1e-06
1.1e-06
1.1e-06
1.1e-06
1.1e-06
1.1e-06
1.1e-06
1.1e-06
1.1e-06
1.1e-06
1.1e-06
1.1e-06
1.1e-06
1.1e-06
1.1e-06
1.1e-06
1.1e-06
1.1e-06
1.1e-06
1.1e-06
1.1e-06
1.1e-06
1.1e-06
1.1e-06
1.1e-06
1.1e-06
1.1e-06
1.1e-06
1.1e-06
1.1e-06
1.1e-06
1.1e-06
1.1e-06
1.1e-06
1.1e-06
1.1e-06
1.1e-06
1.1e-06
1.1e-06
1.1e-06
1.1e-06
1.1e-06
1.1e-06
1.1e-06
1.1e-06
1.1e-06
1.1e-06
1.1e-06
1.1e-06
1.1e-06
1.1e-06
1.1e-06
1.1e-06
1.1e-06
1.1e-06
1.1e-06
1.1e-06
1.1e-06
1.1e-06
1.1e-06
1.1e-06
1.1e-06
1.1e-06
1.1e-06
1.1e-06
1.1e-06
1.1e-06
1.1e-06
1.1e-06
1.1e-06
1.1e-06
1.1e-06
1.1e-06
1.1e-06
1.1e-06
1.1e-06
1.1e-06
1.1e-06
1.1e-06
1.1e-06
1.1e-06
1.1e-06
1.1e-06
1.1e-06
1.1e-06
1.1e-06
1.1e-06
1.1e-06
1.1e-06
1.1e-06
1.1e-06
1.1e-06
1.1e-06
1.1e-06
1.1e-06
1.1e-06
1.1e-06
1.1e-06
1.1e-06
1.1e-06
1.1e-06
1.1e-06
1.1e-06
1.1e-06
1.1e-06
1.1e-06
1.1e-06
1.1e-06
1.1e-06
1.1e-06
1.1e-06
1.1e-06
1.1e-06
1.1e-06
1.1e-06
1.1e-06
1.1e-06
1.1e-06
1.1e-06
1.1e-06
1.1e-06
1.1e-06
1.1e-06
1.1e-06
1.1e-06
1.1e-06
1.1e-06
1.1e-06
1.1e-06
1.1e-06
1.1e-06
1.1e-06
1.1e-06
1.1e-06
1.1e-06
0.794911
0.794999
0.795144
0.795329
0.795559
0.795873
0.796313
0.796913
0.797688
0.798636
0.79974
0.800968
0.802277
0.803614
0.804921
0.806141
0.807225
0.808144
0.808887
0.809438
0.809771
0.809859
0.809691
0.809267
0.808592
0.807658
0.80643
0.804829
0.802701
0.799758
0.795382
0.787997
0.771645
0.694676
0.212347
6.11814e-05
1.1e-06
1.43971e-06
1.1e-06
1.1e-06
1.1e-06
1.1e-06
1.1e-06
1.1e-06
1.1e-06
1.1e-06
1.1e-06
1.1e-06
1.1e-06
1.1e-06
1.1e-06
1.1e-06
1.1e-06
1.1e-06
1.1e-06
1.1e-06
1.1e-06
1.1e-06
1.1e-06
1.1e-06
1.1e-06
1.1e-06
1.1e-06
1.1e-06
1.1e-06
1.1e-06
1.1e-06
1.1e-06
1.1e-06
1.1e-06
1.1e-06
1.1e-06
1.1e-06
1.1e-06
1.1e-06
1.1e-06
1.1e-06
1.1e-06
1.1e-06
1.1e-06
1.1e-06
1.1e-06
1.1e-06
1.1e-06
1.1e-06
1.1e-06
1.1e-06
1.1e-06
1.1e-06
1.1e-06
1.1e-06
1.1e-06
1.1e-06
1.1e-06
1.1e-06
1.1e-06
1.1e-06
1.1e-06
1.1e-06
1.1e-06
1.1e-06
1.1e-06
1.1e-06
1.1e-06
1.1e-06
1.1e-06
1.1e-06
1.1e-06
1.1e-06
1.1e-06
1.1e-06
1.1e-06
1.1e-06
1.1e-06
1.1e-06
1.1e-06
1.1e-06
1.1e-06
1.1e-06
1.1e-06
1.1e-06
1.1e-06
1.1e-06
1.1e-06
1.1e-06
1.1e-06
1.1e-06
1.1e-06
1.1e-06
1.1e-06
1.1e-06
1.1e-06
1.1e-06
1.1e-06
1.1e-06
1.1e-06
1.1e-06
1.1e-06
1.1e-06
1.1e-06
1.1e-06
1.1e-06
1.1e-06
1.1e-06
1.1e-06
1.1e-06
1.1e-06
1.1e-06
1.1e-06
1.1e-06
1.1e-06
1.1e-06
1.1e-06
1.1e-06
1.1e-06
1.1e-06
1.1e-06
1.1e-06
1.1e-06
1.1e-06
1.1e-06
1.1e-06
1.1e-06
1.1e-06
1.1e-06
1.1e-06
1.1e-06
1.1e-06
1.1e-06
1.1e-06
1.1e-06
1.1e-06
1.1e-06
1.1e-06
1.1e-06
1.1e-06
1.1e-06
1.1e-06
1.1e-06
1.1e-06
0.810084
0.810155
0.810244
0.810346
0.810453
0.810609
0.810872
0.811287
0.811883
0.812669
0.813645
0.814797
0.816097
0.817496
0.81893
0.820322
0.821599
0.822696
0.823562
0.824163
0.824478
0.824499
0.824224
0.823658
0.822798
0.821652
0.820241
0.818547
0.816527
0.814109
0.811142
0.807319
0.802093
0.794004
0.778268
0.726182
0.302156
0.0315205
6.79767e-05
1.1023e-06
1.1e-06
1.1e-06
1.1e-06
1.1e-06
1.1e-06
1.1e-06
1.1e-06
1.1e-06
1.1e-06
1.1e-06
1.1e-06
1.1e-06
1.1e-06
1.1e-06
1.1e-06
1.1e-06
1.1e-06
1.1e-06
1.1e-06
1.1e-06
1.1e-06
1.1e-06
1.1e-06
1.1e-06
1.1e-06
1.1e-06
1.1e-06
1.1e-06
1.1e-06
1.1e-06
1.1e-06
1.1e-06
1.1e-06
1.1e-06
1.1e-06
1.1e-06
1.1e-06
1.1e-06
1.1e-06
1.1e-06
1.1e-06
1.1e-06
1.1e-06
1.1e-06
1.1e-06
1.1e-06
1.1e-06
1.1e-06
1.1e-06
1.1e-06
1.1e-06
1.1e-06
1.1e-06
1.1e-06
1.1e-06
1.1e-06
1.1e-06
1.1e-06
1.1e-06
1.1e-06
1.1e-06
1.1e-06
1.1e-06
1.1e-06
1.1e-06
1.1e-06
1.1e-06
1.1e-06
1.1e-06
1.1e-06
1.1e-06
1.1e-06
1.1e-06
1.1e-06
1.1e-06
1.1e-06
1.1e-06
1.1e-06
1.1e-06
1.1e-06
1.1e-06
1.1e-06
1.1e-06
1.1e-06
1.1e-06
1.1e-06
1.1e-06
1.1e-06
1.1e-06
1.1e-06
1.1e-06
1.1e-06
1.1e-06
1.1e-06
1.1e-06
1.1e-06
1.1e-06
1.1e-06
1.1e-06
1.1e-06
1.1e-06
1.1e-06
1.1e-06
1.1e-06
1.1e-06
1.1e-06
1.1e-06
1.1e-06
1.1e-06
1.1e-06
1.1e-06
1.1e-06
1.1e-06
1.1e-06
1.1e-06
1.1e-06
1.1e-06
1.1e-06
1.1e-06
1.1e-06
1.1e-06
1.1e-06
1.1e-06
1.1e-06
1.1e-06
1.1e-06
1.1e-06
1.1e-06
1.1e-06
1.1e-06
1.1e-06
1.1e-06
1.1e-06
1.1e-06
1.1e-06
1.1e-06
1.1e-06
1.1e-06
1.1e-06
1.1e-06
0.817976
0.818061
0.818144
0.818233
0.81831
0.818392
0.818504
0.818669
0.818903
0.819213
0.8196
0.82006
0.820581
0.821146
0.82173
0.822299
0.822813
0.823236
0.823539
0.823704
0.823715
0.823554
0.823209
0.822669
0.821929
0.820986
0.819833
0.818462
0.81686
0.814998
0.81283
0.810267
0.807156
0.803206
0.7978
0.789485
0.772401
0.705528
0.251158
0.0112835
1.44436e-05
1.1e-06
1.1e-06
1.1e-06
1.1e-06
1.1e-06
1.1e-06
1.1e-06
1.1e-06
1.1e-06
1.1e-06
1.1e-06
1.1e-06
1.1e-06
1.1e-06
1.1e-06
1.1e-06
1.1e-06
1.1e-06
1.1e-06
1.1e-06
1.1e-06
1.1e-06
1.1e-06
1.1e-06
1.1e-06
1.1e-06
1.1e-06
1.1e-06
1.1e-06
1.1e-06
1.1e-06
1.1e-06
1.1e-06
1.1e-06
1.1e-06
1.1e-06
1.1e-06
1.1e-06
1.1e-06
1.1e-06
1.1e-06
1.1e-06
1.1e-06
1.1e-06
1.1e-06
1.1e-06
1.1e-06
1.1e-06
1.1e-06
1.1e-06
1.1e-06
1.1e-06
1.1e-06
1.1e-06
1.1e-06
1.1e-06
1.1e-06
1.1e-06
1.1e-06
1.1e-06
1.1e-06
1.1e-06
1.1e-06
1.1e-06
1.1e-06
1.1e-06
1.1e-06
1.1e-06
1.1e-06
1.1e-06
1.1e-06
1.1e-06
1.1e-06
1.1e-06
1.1e-06
1.1e-06
1.1e-06
1.1e-06
1.1e-06
1.1e-06
1.1e-06
1.1e-06
1.1e-06
1.1e-06
1.1e-06
1.1e-06
1.1e-06
1.1e-06
1.1e-06
1.1e-06
1.1e-06
1.1e-06
1.1e-06
1.1e-06
1.1e-06
1.1e-06
1.1e-06
1.1e-06
1.1e-06
1.1e-06
1.1e-06
1.1e-06
1.1e-06
1.1e-06
1.1e-06
1.1e-06
1.1e-06
1.1e-06
1.1e-06
1.1e-06
1.1e-06
1.1e-06
1.1e-06
1.1e-06
1.1e-06
1.1e-06
1.1e-06
1.1e-06
1.1e-06
1.1e-06
1.1e-06
1.1e-06
1.1e-06
1.1e-06
1.1e-06
1.1e-06
1.1e-06
1.1e-06
1.1e-06
1.1e-06
1.1e-06
1.1e-06
1.1e-06
1.1e-06
1.1e-06
1.1e-06
1.1e-06
1.1e-06
1.1e-06
0.82343
0.823544
0.823643
0.823738
0.823813
0.82387
0.823921
0.823978
0.824051
0.824144
0.82426
0.824395
0.824547
0.824706
0.824862
0.824999
0.8251
0.825147
0.825125
0.825021
0.824822
0.824516
0.824091
0.823538
0.82285
0.822021
0.821046
0.81992
0.818633
0.817174
0.815522
0.813644
0.811485
0.808953
0.805876
0.801927
0.79637
0.787064
0.765842
0.651044
0.128966
0.000758051
1.51984e-06
1.1e-06
1.1e-06
1.1e-06
1.1e-06
1.1e-06
1.1e-06
1.1e-06
1.1e-06
1.1e-06
1.1e-06
1.1e-06
1.1e-06
1.1e-06
1.1e-06
1.1e-06
1.1e-06
1.1e-06
1.1e-06
1.1e-06
1.1e-06
1.1e-06
1.1e-06
1.1e-06
1.1e-06
1.1e-06
1.1e-06
1.1e-06
1.1e-06
1.1e-06
1.1e-06
1.1e-06
1.1e-06
1.1e-06
1.1e-06
1.1e-06
1.1e-06
1.1e-06
1.1e-06
1.1e-06
1.1e-06
1.1e-06
1.1e-06
1.1e-06
1.1e-06
1.1e-06
1.1e-06
1.1e-06
1.1e-06
1.1e-06
1.1e-06
1.1e-06
1.1e-06
1.1e-06
1.1e-06
1.1e-06
1.1e-06
1.1e-06
1.1e-06
1.1e-06
1.1e-06
1.1e-06
1.1e-06
1.1e-06
1.1e-06
1.1e-06
1.1e-06
1.1e-06
1.1e-06
1.1e-06
1.1e-06
1.1e-06
1.1e-06
1.1e-06
1.1e-06
1.1e-06
1.1e-06
1.1e-06
1.1e-06
1.1e-06
1.1e-06
1.1e-06
1.1e-06
1.1e-06
1.1e-06
1.1e-06
1.1e-06
1.1e-06
1.1e-06
1.1e-06
1.1e-06
1.1e-06
1.1e-06
1.1e-06
1.1e-06
1.1e-06
1.1e-06
1.1e-06
1.1e-06
1.1e-06
1.1e-06
1.1e-06
1.1e-06
1.1e-06
1.1e-06
1.1e-06
1.1e-06
1.1e-06
1.1e-06
1.1e-06
1.1e-06
1.1e-06
1.1e-06
1.1e-06
1.1e-06
1.1e-06
1.1e-06
1.1e-06
1.1e-06
1.1e-06
1.1e-06
1.1e-06
1.1e-06
1.1e-06
1.1e-06
1.1e-06
1.1e-06
1.1e-06
1.1e-06
1.1e-06
1.1e-06
1.1e-06
1.1e-06
1.1e-06
1.1e-06
1.1e-06
1.1e-06
1.1e-06
0.827713
0.827864
0.827992
0.828101
0.828183
0.828238
0.828269
0.828283
0.828283
0.828273
0.828254
0.828224
0.828184
0.828128
0.828052
0.82795
0.827814
0.827637
0.82741
0.827125
0.826775
0.826351
0.825847
0.825256
0.824571
0.82379
0.822906
0.821915
0.820813
0.819592
0.818243
0.81675
0.815088
0.813216
0.811068
0.808525
0.805369
0.801149
0.794824
0.783326
0.750962
0.475466
0.0332093
3.47316e-05
1.1e-06
1.1e-06
1.1e-06
1.1e-06
1.1e-06
1.1e-06
1.1e-06
1.1e-06
1.1e-06
1.1e-06
1.1e-06
1.1e-06
1.1e-06
1.1e-06
1.1e-06
1.1e-06
1.1e-06
1.1e-06
1.1e-06
1.1e-06
1.1e-06
1.1e-06
1.1e-06
1.1e-06
1.1e-06
1.1e-06
1.1e-06
1.1e-06
1.1e-06
1.1e-06
1.1e-06
1.1e-06
1.1e-06
1.1e-06
1.1e-06
1.1e-06
1.1e-06
1.1e-06
1.1e-06
1.1e-06
1.1e-06
1.1e-06
1.1e-06
1.1e-06
1.1e-06
1.1e-06
1.1e-06
1.1e-06
1.1e-06
1.1e-06
1.1e-06
1.1e-06
1.1e-06
1.1e-06
1.1e-06
1.1e-06
1.1e-06
1.1e-06
1.1e-06
1.1e-06
1.1e-06
1.1e-06
1.1e-06
1.1e-06
1.1e-06
1.1e-06
1.1e-06
1.1e-06
1.1e-06
1.1e-06
1.1e-06
1.1e-06
1.1e-06
1.1e-06
1.1e-06
1.1e-06
1.1e-06
1.1e-06
1.1e-06
1.1e-06
1.1e-06
1.1e-06
1.1e-06
1.1e-06
1.1e-06
1.1e-06
1.1e-06
1.1e-06
1.1e-06
1.1e-06
1.1e-06
1.1e-06
1.1e-06
1.1e-06
1.1e-06
1.1e-06
1.1e-06
1.1e-06
1.1e-06
1.1e-06
1.1e-06
1.1e-06
1.1e-06
1.1e-06
1.1e-06
1.1e-06
1.1e-06
1.1e-06
1.1e-06
1.1e-06
1.1e-06
1.1e-06
1.1e-06
1.1e-06
1.1e-06
1.1e-06
1.1e-06
1.1e-06
1.1e-06
1.1e-06
1.1e-06
1.1e-06
1.1e-06
1.1e-06
1.1e-06
1.1e-06
1.1e-06
1.1e-06
1.1e-06
1.1e-06
1.1e-06
1.1e-06
1.1e-06
1.1e-06
1.1e-06
1.1e-06
0.831321
0.831514
0.831676
0.831809
0.831908
0.831972
0.832003
0.832002
0.83197
0.83191
0.831821
0.831705
0.83156
0.831385
0.83118
0.830941
0.830665
0.83035
0.829992
0.829586
0.829129
0.828617
0.828045
0.82741
0.826707
0.825934
0.825087
0.824163
0.823159
0.82207
0.82089
0.81961
0.818216
0.816687
0.814991
0.813074
0.810845
0.808146
0.804677
0.799807
0.791926
0.775347
0.702061
0.187158
0.000607603
1.10461e-06
1.1e-06
1.1e-06
1.1e-06
1.1e-06
1.1e-06
1.1e-06
1.1e-06
1.1e-06
1.1e-06
1.1e-06
1.1e-06
1.1e-06
1.1e-06
1.1e-06
1.1e-06
1.1e-06
1.1e-06
1.1e-06
1.1e-06
1.1e-06
1.1e-06
1.1e-06
1.1e-06
1.1e-06
1.1e-06
1.1e-06
1.1e-06
1.1e-06
1.1e-06
1.1e-06
1.1e-06
1.1e-06
1.1e-06
1.1e-06
1.1e-06
1.1e-06
1.1e-06
1.1e-06
1.1e-06
1.1e-06
1.1e-06
1.1e-06
1.1e-06
1.1e-06
1.1e-06
1.1e-06
1.1e-06
1.1e-06
1.1e-06
1.1e-06
1.1e-06
1.1e-06
1.1e-06
1.1e-06
1.1e-06
1.1e-06
1.1e-06
1.1e-06
1.1e-06
1.1e-06
1.1e-06
1.1e-06
1.1e-06
1.1e-06
1.1e-06
1.1e-06
1.1e-06
1.1e-06
1.1e-06
1.1e-06
1.1e-06
1.1e-06
1.1e-06
1.1e-06
1.1e-06
1.1e-06
1.1e-06
1.1e-06
1.1e-06
1.1e-06
1.1e-06
1.1e-06
1.1e-06
1.1e-06
1.1e-06
1.1e-06
1.1e-06
1.1e-06
1.1e-06
1.1e-06
1.1e-06
1.1e-06
1.1e-06
1.1e-06
1.1e-06
1.1e-06
1.1e-06
1.1e-06
1.1e-06
1.1e-06
1.1e-06
1.1e-06
1.1e-06
1.1e-06
1.1e-06
1.1e-06
1.1e-06
1.1e-06
1.1e-06
1.1e-06
1.1e-06
1.1e-06
1.1e-06
1.1e-06
1.1e-06
1.1e-06
1.1e-06
1.1e-06
1.1e-06
1.1e-06
1.1e-06
1.1e-06
1.1e-06
1.1e-06
1.1e-06
1.1e-06
1.1e-06
1.1e-06
1.1e-06
1.1e-06
1.1e-06
1.1e-06
1.1e-06
1.1e-06
0.8345
0.834737
0.834938
0.835101
0.835224
0.835305
0.835344
0.835341
0.835297
0.835212
0.835087
0.834923
0.834718
0.834475
0.834192
0.833869
0.833506
0.833102
0.832655
0.832166
0.831631
0.83105
0.83042
0.829739
0.829007
0.82822
0.827377
0.826477
0.825515
0.824491
0.823399
0.822233
0.820986
0.819644
0.81819
0.816593
0.814809
0.812764
0.810335
0.807303
0.803231
0.79711
0.785913
0.7541
0.453355
0.0127183
3.89729e-06
1.1e-06
1.1e-06
1.1e-06
1.1e-06
1.1e-06
1.1e-06
1.1e-06
1.1e-06
1.1e-06
1.1e-06
1.1e-06
1.1e-06
1.1e-06
1.1e-06
1.1e-06
1.1e-06
1.1e-06
1.1e-06
1.1e-06
1.1e-06
1.1e-06
1.1e-06
1.1e-06
1.1e-06
1.1e-06
1.1e-06
1.1e-06
1.1e-06
1.1e-06
1.1e-06
1.1e-06
1.1e-06
1.1e-06
1.1e-06
1.1e-06
1.1e-06
1.1e-06
1.1e-06
1.1e-06
1.1e-06
1.1e-06
1.1e-06
1.1e-06
1.1e-06
1.1e-06
1.1e-06
1.1e-06
1.1e-06
1.1e-06
1.1e-06
1.1e-06
1.1e-06
1.1e-06
1.1e-06
1.1e-06
1.1e-06
1.1e-06
1.1e-06
1.1e-06
1.1e-06
1.1e-06
1.1e-06
1.1e-06
1.1e-06
1.1e-06
1.1e-06
1.1e-06
1.1e-06
1.1e-06
1.1e-06
1.1e-06
1.1e-06
1.1e-06
1.1e-06
1.1e-06
1.1e-06
1.1e-06
1.1e-06
1.1e-06
1.1e-06
1.1e-06
1.1e-06
1.1e-06
1.1e-06
1.1e-06
1.1e-06
1.1e-06
1.1e-06
1.1e-06
1.1e-06
1.1e-06
1.1e-06
1.1e-06
1.1e-06
1.1e-06
1.1e-06
1.1e-06
1.1e-06
1.1e-06
1.1e-06
1.1e-06
1.1e-06
1.1e-06
1.1e-06
1.1e-06
1.1e-06
1.1e-06
1.1e-06
1.1e-06
1.1e-06
1.1e-06
1.1e-06
1.1e-06
1.1e-06
1.1e-06
1.1e-06
1.1e-06
1.1e-06
1.1e-06
1.1e-06
1.1e-06
1.1e-06
1.1e-06
1.1e-06
1.1e-06
1.1e-06
1.1e-06
1.1e-06
1.1e-06
1.1e-06
1.1e-06
1.1e-06
1.1e-06
0.837391
0.837675
0.837917
0.838114
0.838265
0.838367
0.83842
0.838423
0.838376
0.838279
0.838133
0.837939
0.837697
0.837408
0.837074
0.836694
0.836271
0.835803
0.835293
0.83474
0.834144
0.833506
0.832825
0.832101
0.831333
0.830521
0.829665
0.828762
0.827812
0.826812
0.825761
0.824653
0.823484
0.822246
0.820925
0.819505
0.817959
0.816248
0.81431
0.812045
0.809277
0.805677
0.800527
0.791896
0.772124
0.647676
0.0707046
5.12173e-06
1.1e-06
1.1e-06
1.1e-06
1.1e-06
1.1e-06
1.1e-06
1.1e-06
1.1e-06
1.1e-06
1.1e-06
1.1e-06
1.1e-06
1.1e-06
1.1e-06
1.1e-06
1.1e-06
1.1e-06
1.1e-06
1.1e-06
1.1e-06
1.1e-06
1.1e-06
1.1e-06
1.1e-06
1.1e-06
1.1e-06
1.1e-06
1.1e-06
1.1e-06
1.1e-06
1.1e-06
1.1e-06
1.1e-06
1.1e-06
1.1e-06
1.1e-06
1.1e-06
1.1e-06
1.1e-06
1.1e-06
1.1e-06
1.1e-06
1.1e-06
1.1e-06
1.1e-06
1.1e-06
1.1e-06
1.1e-06
1.1e-06
1.1e-06
1.1e-06
1.1e-06
1.1e-06
1.1e-06
1.1e-06
1.1e-06
1.1e-06
1.1e-06
1.1e-06
1.1e-06
1.1e-06
1.1e-06
1.1e-06
1.1e-06
1.1e-06
1.1e-06
1.1e-06
1.1e-06
1.1e-06
1.1e-06
1.1e-06
1.1e-06
1.1e-06
1.1e-06
1.1e-06
1.1e-06
1.1e-06
1.1e-06
1.1e-06
1.1e-06
1.1e-06
1.1e-06
1.1e-06
1.1e-06
1.1e-06
1.1e-06
1.1e-06
1.1e-06
1.1e-06
1.1e-06
1.1e-06
1.1e-06
1.1e-06
1.1e-06
1.1e-06
1.1e-06
1.1e-06
1.1e-06
1.1e-06
1.1e-06
1.1e-06
1.1e-06
1.1e-06
1.1e-06
1.1e-06
1.1e-06
1.1e-06
1.1e-06
1.1e-06
1.1e-06
1.1e-06
1.1e-06
1.1e-06
1.1e-06
1.1e-06
1.1e-06
1.1e-06
1.1e-06
1.1e-06
1.1e-06
1.1e-06
1.1e-06
1.1e-06
1.1e-06
1.1e-06
1.1e-06
1.1e-06
1.1e-06
1.1e-06
1.1e-06
1.1e-06
1.1e-06
0.840084
0.840416
0.840701
0.840935
0.841116
0.841242
0.841311
0.841323
0.841277
0.841174
0.841014
0.840799
0.840529
0.840206
0.839832
0.839409
0.838937
0.838419
0.837857
0.837251
0.836603
0.835915
0.835187
0.83442
0.833614
0.832771
0.83189
0.83097
0.830012
0.829014
0.827975
0.826892
0.825761
0.824577
0.823331
0.822012
0.820602
0.819079
0.817407
0.81553
0.813363
0.810758
0.807445
0.802854
0.795549
0.780424
0.714974
0.176012
9.85041e-05
1.1e-06
1.1e-06
1.1e-06
1.1e-06
1.1e-06
1.1e-06
1.1e-06
1.1e-06
1.1e-06
1.1e-06
1.1e-06
1.1e-06
1.1e-06
1.1e-06
1.1e-06
1.1e-06
1.1e-06
1.1e-06
1.1e-06
1.1e-06
1.1e-06
1.1e-06
1.1e-06
1.1e-06
1.1e-06
1.1e-06
1.1e-06
1.1e-06
1.1e-06
1.1e-06
1.1e-06
1.1e-06
1.1e-06
1.1e-06
1.1e-06
1.1e-06
1.1e-06
1.1e-06
1.1e-06
1.1e-06
1.1e-06
1.1e-06
1.1e-06
1.1e-06
1.1e-06
1.1e-06
1.1e-06
1.1e-06
1.1e-06
1.1e-06
1.1e-06
1.1e-06
1.1e-06
1.1e-06
1.1e-06
1.1e-06
1.1e-06
1.1e-06
1.1e-06
1.1e-06
1.1e-06
1.1e-06
1.1e-06
1.1e-06
1.1e-06
1.1e-06
1.1e-06
1.1e-06
1.1e-06
1.1e-06
1.1e-06
1.1e-06
1.1e-06
1.1e-06
1.1e-06
1.1e-06
1.1e-06
1.1e-06
1.1e-06
1.1e-06
1.1e-06
1.1e-06
1.1e-06
1.1e-06
1.1e-06
1.1e-06
1.1e-06
1.1e-06
1.1e-06
1.1e-06
1.1e-06
1.1e-06
1.1e-06
1.1e-06
1.1e-06
1.1e-06
1.1e-06
1.1e-06
1.1e-06
1.1e-06
1.1e-06
1.1e-06
1.1e-06
1.1e-06
1.1e-06
1.1e-06
1.1e-06
1.1e-06
1.1e-06
1.1e-06
1.1e-06
1.1e-06
1.1e-06
1.1e-06
1.1e-06
1.1e-06
1.1e-06
1.1e-06
1.1e-06
1.1e-06
1.1e-06
1.1e-06
1.1e-06
1.1e-06
1.1e-06
1.1e-06
1.1e-06
1.1e-06
1.1e-06
1.1e-06
1.1e-06
0.84263
0.843013
0.843344
0.843618
0.843831
0.843983
0.84407
0.844092
0.84405
0.843942
0.843771
0.843537
0.843242
0.842889
0.84248
0.842017
0.841502
0.840939
0.84033
0.839676
0.83898
0.838245
0.837471
0.836661
0.835816
0.834936
0.834024
0.833079
0.832101
0.831091
0.830047
0.828967
0.82785
0.82669
0.825484
0.824221
0.822892
0.82148
0.819963
0.818308
0.816464
0.814353
0.811845
0.8087
0.804431
0.797844
0.784999
0.739957
0.273438
0.000248228
1.1e-06
1.1e-06
1.1e-06
1.1e-06
1.1e-06
1.1e-06
1.1e-06
1.1e-06
1.1e-06
1.1e-06
1.1e-06
1.1e-06
1.1e-06
1.1e-06
1.1e-06
1.1e-06
1.1e-06
1.1e-06
1.1e-06
1.1e-06
1.1e-06
1.1e-06
1.1e-06
1.1e-06
1.1e-06
1.1e-06
1.1e-06
1.1e-06
1.1e-06
1.1e-06
1.1e-06
1.1e-06
1.1e-06
1.1e-06
1.1e-06
1.1e-06
1.1e-06
1.1e-06
1.1e-06
1.1e-06
1.1e-06
1.1e-06
1.1e-06
1.1e-06
1.1e-06
1.1e-06
1.1e-06
1.1e-06
1.1e-06
1.1e-06
1.1e-06
1.1e-06
1.1e-06
1.1e-06
1.1e-06
1.1e-06
1.1e-06
1.1e-06
1.1e-06
1.1e-06
1.1e-06
1.1e-06
1.1e-06
1.1e-06
1.1e-06
1.1e-06
1.1e-06
1.1e-06
1.1e-06
1.1e-06
1.1e-06
1.1e-06
1.1e-06
1.1e-06
1.1e-06
1.1e-06
1.1e-06
1.1e-06
1.1e-06
1.1e-06
1.1e-06
1.1e-06
1.1e-06
1.1e-06
1.1e-06
1.1e-06
1.1e-06
1.1e-06
1.1e-06
1.1e-06
1.1e-06
1.1e-06
1.1e-06
1.1e-06
1.1e-06
1.1e-06
1.1e-06
1.1e-06
1.1e-06
1.1e-06
1.1e-06
1.1e-06
1.1e-06
1.1e-06
1.1e-06
1.1e-06
1.1e-06
1.1e-06
1.1e-06
1.1e-06
1.1e-06
1.1e-06
1.1e-06
1.1e-06
1.1e-06
1.1e-06
1.1e-06
1.1e-06
1.1e-06
1.1e-06
1.1e-06
1.1e-06
1.1e-06
1.1e-06
1.1e-06
1.1e-06
1.1e-06
1.1e-06
1.1e-06
1.1e-06
0.845061
0.845499
0.845879
0.846195
0.846444
0.846623
0.84673
0.846764
0.846725
0.846613
0.84643
0.846177
0.845858
0.845474
0.84503
0.844528
0.843971
0.843364
0.842708
0.842007
0.841264
0.840482
0.839662
0.838808
0.837921
0.837003
0.836055
0.835079
0.834074
0.833042
0.831982
0.830893
0.829773
0.828621
0.827431
0.826199
0.824915
0.823571
0.822149
0.820627
0.818976
0.817146
0.815063
0.812606
0.809553
0.805457
0.799251
0.787553
0.750353
0.332518
0.00040501
1.1e-06
1.1e-06
1.1e-06
1.1e-06
1.1e-06
1.1e-06
1.1e-06
1.1e-06
1.1e-06
1.1e-06
1.1e-06
1.1e-06
1.1e-06
1.1e-06
1.1e-06
1.1e-06
1.1e-06
1.1e-06
1.1e-06
1.1e-06
1.1e-06
1.1e-06
1.1e-06
1.1e-06
1.1e-06
1.1e-06
1.1e-06
1.1e-06
1.1e-06
1.1e-06
1.1e-06
1.1e-06
1.1e-06
1.1e-06
1.1e-06
1.1e-06
1.1e-06
1.1e-06
1.1e-06
1.1e-06
1.1e-06
1.1e-06
1.1e-06
1.1e-06
1.1e-06
1.1e-06
1.1e-06
1.1e-06
1.1e-06
1.1e-06
1.1e-06
1.1e-06
1.1e-06
1.1e-06
1.1e-06
1.1e-06
1.1e-06
1.1e-06
1.1e-06
1.1e-06
1.1e-06
1.1e-06
1.1e-06
1.1e-06
1.1e-06
1.1e-06
1.1e-06
1.1e-06
1.1e-06
1.1e-06
1.1e-06
1.1e-06
1.1e-06
1.1e-06
1.1e-06
1.1e-06
1.1e-06
1.1e-06
1.1e-06
1.1e-06
1.1e-06
1.1e-06
1.1e-06
1.1e-06
1.1e-06
1.1e-06
1.1e-06
1.1e-06
1.1e-06
1.1e-06
1.1e-06
1.1e-06
1.1e-06
1.1e-06
1.1e-06
1.1e-06
1.1e-06
1.1e-06
1.1e-06
1.1e-06
1.1e-06
1.1e-06
1.1e-06
1.1e-06
1.1e-06
1.1e-06
1.1e-06
1.1e-06
1.1e-06
1.1e-06
1.1e-06
1.1e-06
1.1e-06
1.1e-06
1.1e-06
1.1e-06
1.1e-06
1.1e-06
1.1e-06
1.1e-06
1.1e-06
1.1e-06
1.1e-06
1.1e-06
1.1e-06
1.1e-06
1.1e-06
1.1e-06
1.1e-06
0.847393
0.847891
0.848324
0.848687
0.848974
0.849183
0.849312
0.849358
0.849322
0.849204
0.849008
0.848735
0.848389
0.847973
0.847492
0.846949
0.846349
0.845695
0.844991
0.844242
0.843451
0.842621
0.841754
0.840855
0.839924
0.838965
0.837979
0.836967
0.835931
0.834871
0.833788
0.832681
0.83155
0.830392
0.829205
0.827985
0.826727
0.825421
0.824058
0.822622
0.821091
0.819434
0.817605
0.81553
0.813091
0.810071
0.806041
0.799974
0.788651
0.753466
0.344532
0.000411434
1.1e-06
1.1e-06
1.1e-06
1.1e-06
1.1e-06
1.1e-06
1.1e-06
1.1e-06
1.1e-06
1.1e-06
1.1e-06
1.1e-06
1.1e-06
1.1e-06
1.1e-06
1.1e-06
1.1e-06
1.1e-06
1.1e-06
1.1e-06
1.1e-06
1.1e-06
1.1e-06
1.1e-06
1.1e-06
1.1e-06
1.1e-06
1.1e-06
1.1e-06
1.1e-06
1.1e-06
1.1e-06
1.1e-06
1.1e-06
1.1e-06
1.1e-06
1.1e-06
1.1e-06
1.1e-06
1.1e-06
1.1e-06
1.1e-06
1.1e-06
1.1e-06
1.1e-06
1.1e-06
1.1e-06
1.1e-06
1.1e-06
1.1e-06
1.1e-06
1.1e-06
1.1e-06
1.1e-06
1.1e-06
1.1e-06
1.1e-06
1.1e-06
1.1e-06
1.1e-06
1.1e-06
1.1e-06
1.1e-06
1.1e-06
1.1e-06
1.1e-06
1.1e-06
1.1e-06
1.1e-06
1.1e-06
1.1e-06
1.1e-06
1.1e-06
1.1e-06
1.1e-06
1.1e-06
1.1e-06
1.1e-06
1.1e-06
1.1e-06
1.1e-06
1.1e-06
1.1e-06
1.1e-06
1.1e-06
1.1e-06
1.1e-06
1.1e-06
1.1e-06
1.1e-06
1.1e-06
1.1e-06
1.1e-06
1.1e-06
1.1e-06
1.1e-06
1.1e-06
1.1e-06
1.1e-06
1.1e-06
1.1e-06
1.1e-06
1.1e-06
1.1e-06
1.1e-06
1.1e-06
1.1e-06
1.1e-06
1.1e-06
1.1e-06
1.1e-06
1.1e-06
1.1e-06
1.1e-06
1.1e-06
1.1e-06
1.1e-06
1.1e-06
1.1e-06
1.1e-06
1.1e-06
1.1e-06
1.1e-06
1.1e-06
1.1e-06
1.1e-06
1.1e-06
1.1e-06
0.849634
0.850197
0.850689
0.851103
0.851433
0.851675
0.851826
0.851885
0.851851
0.851727
0.851516
0.85122
0.850844
0.850392
0.84987
0.849283
0.848636
0.847933
0.84718
0.84638
0.845539
0.844659
0.843745
0.842798
0.841823
0.840821
0.839795
0.838746
0.837676
0.836585
0.835475
0.834345
0.833195
0.832024
0.830831
0.829612
0.828363
0.827079
0.825752
0.82437
0.822918
0.821373
0.819705
0.817866
0.815783
0.813334
0.810299
0.80624
0.800101
0.788516
0.751076
0.309204
0.000253992
1.1e-06
1.1e-06
1.1e-06
1.1e-06
1.1e-06
1.1e-06
1.1e-06
1.1e-06
1.1e-06
1.1e-06
1.1e-06
1.1e-06
1.1e-06
1.1e-06
1.1e-06
1.1e-06
1.1e-06
1.1e-06
1.1e-06
1.1e-06
1.1e-06
1.1e-06
1.1e-06
1.1e-06
1.1e-06
1.1e-06
1.1e-06
1.1e-06
1.1e-06
1.1e-06
1.1e-06
1.1e-06
1.1e-06
1.1e-06
1.1e-06
1.1e-06
1.1e-06
1.1e-06
1.1e-06
1.1e-06
1.1e-06
1.1e-06
1.1e-06
1.1e-06
1.1e-06
1.1e-06
1.1e-06
1.1e-06
1.1e-06
1.1e-06
1.1e-06
1.1e-06
1.1e-06
1.1e-06
1.1e-06
1.1e-06
1.1e-06
1.1e-06
1.1e-06
1.1e-06
1.1e-06
1.1e-06
1.1e-06
1.1e-06
1.1e-06
1.1e-06
1.1e-06
1.1e-06
1.1e-06
1.1e-06
1.1e-06
1.1e-06
1.1e-06
1.1e-06
1.1e-06
1.1e-06
1.1e-06
1.1e-06
1.1e-06
1.1e-06
1.1e-06
1.1e-06
1.1e-06
1.1e-06
1.1e-06
1.1e-06
1.1e-06
1.1e-06
1.1e-06
1.1e-06
1.1e-06
1.1e-06
1.1e-06
1.1e-06
1.1e-06
1.1e-06
1.1e-06
1.1e-06
1.1e-06
1.1e-06
1.1e-06
1.1e-06
1.1e-06
1.1e-06
1.1e-06
1.1e-06
1.1e-06
1.1e-06
1.1e-06
1.1e-06
1.1e-06
1.1e-06
1.1e-06
1.1e-06
1.1e-06
1.1e-06
1.1e-06
1.1e-06
1.1e-06
1.1e-06
1.1e-06
1.1e-06
1.1e-06
1.1e-06
1.1e-06
1.1e-06
1.1e-06
0.851786
0.852421
0.852979
0.85345
0.853827
0.854105
0.85428
0.854352
0.85432
0.854187
0.853956
0.853633
0.853223
0.852731
0.852164
0.851529
0.850831
0.850076
0.84927
0.848418
0.847525
0.846594
0.84563
0.844637
0.843616
0.842571
0.841504
0.840417
0.839311
0.838188
0.837048
0.835893
0.834721
0.833533
0.832327
0.831101
0.829853
0.828578
0.82727
0.825921
0.82452
0.823051
0.82149
0.819806
0.81795
0.815843
0.813358
0.810263
0.806083
0.799661
0.787144
0.74211
0.232725
9.8317e-05
1.1e-06
1.1e-06
1.1e-06
1.1e-06
1.1e-06
1.1e-06
1.1e-06
1.1e-06
1.1e-06
1.1e-06
1.1e-06
1.1e-06
1.1e-06
1.1e-06
1.1e-06
1.1e-06
1.1e-06
1.1e-06
1.1e-06
1.1e-06
1.1e-06
1.1e-06
1.1e-06
1.1e-06
1.1e-06
1.1e-06
1.1e-06
1.1e-06
1.1e-06
1.1e-06
1.1e-06
1.1e-06
1.1e-06
1.1e-06
1.1e-06
1.1e-06
1.1e-06
1.1e-06
1.1e-06
1.1e-06
1.1e-06
1.1e-06
1.1e-06
1.1e-06
1.1e-06
1.1e-06
1.1e-06
1.1e-06
1.1e-06
1.1e-06
1.1e-06
1.1e-06
1.1e-06
1.1e-06
1.1e-06
1.1e-06
1.1e-06
1.1e-06
1.1e-06
1.1e-06
1.1e-06
1.1e-06
1.1e-06
1.1e-06
1.1e-06
1.1e-06
1.1e-06
1.1e-06
1.1e-06
1.1e-06
1.1e-06
1.1e-06
1.1e-06
1.1e-06
1.1e-06
1.1e-06
1.1e-06
1.1e-06
1.1e-06
1.1e-06
1.1e-06
1.1e-06
1.1e-06
1.1e-06
1.1e-06
1.1e-06
1.1e-06
1.1e-06
1.1e-06
1.1e-06
1.1e-06
1.1e-06
1.1e-06
1.1e-06
1.1e-06
1.1e-06
1.1e-06
1.1e-06
1.1e-06
1.1e-06
1.1e-06
1.1e-06
1.1e-06
1.1e-06
1.1e-06
1.1e-06
1.1e-06
1.1e-06
1.1e-06
1.1e-06
1.1e-06
1.1e-06
1.1e-06
1.1e-06
1.1e-06
1.1e-06
1.1e-06
1.1e-06
1.1e-06
1.1e-06
1.1e-06
1.1e-06
1.1e-06
1.1e-06
1.1e-06
1.1e-06
0.853844
0.854562
0.855194
0.85573
0.856159
0.856477
0.856679
0.856763
0.85673
0.856585
0.856331
0.855975
0.855525
0.854988
0.854371
0.853682
0.852929
0.852119
0.851257
0.85035
0.849403
0.848421
0.847407
0.846366
0.8453
0.844212
0.843104
0.841979
0.840839
0.839683
0.838514
0.837332
0.836137
0.834929
0.833707
0.83247
0.831215
0.829941
0.828642
0.827312
0.825943
0.824523
0.823036
0.821457
0.819753
0.81787
0.815727
0.813182
0.809977
0.805576
0.798622
0.784312
0.72204
0.136662
2.30955e-05
1.1e-06
1.1e-06
1.1e-06
1.1e-06
1.1e-06
1.1e-06
1.1e-06
1.1e-06
1.1e-06
1.1e-06
1.1e-06
1.1e-06
1.1e-06
1.1e-06
1.1e-06
1.1e-06
1.1e-06
1.1e-06
1.1e-06
1.1e-06
1.1e-06
1.1e-06
1.1e-06
1.1e-06
1.1e-06
1.1e-06
1.1e-06
1.1e-06
1.1e-06
1.1e-06
1.1e-06
1.1e-06
1.1e-06
1.1e-06
1.1e-06
1.1e-06
1.1e-06
1.1e-06
1.1e-06
1.1e-06
1.1e-06
1.1e-06
1.1e-06
1.1e-06
1.1e-06
1.1e-06
1.1e-06
1.1e-06
1.1e-06
1.1e-06
1.1e-06
1.1e-06
1.1e-06
1.1e-06
1.1e-06
1.1e-06
1.1e-06
1.1e-06
1.1e-06
1.1e-06
1.1e-06
1.1e-06
1.1e-06
1.1e-06
1.1e-06
1.1e-06
1.1e-06
1.1e-06
1.1e-06
1.1e-06
1.1e-06
1.1e-06
1.1e-06
1.1e-06
1.1e-06
1.1e-06
1.1e-06
1.1e-06
1.1e-06
1.1e-06
1.1e-06
1.1e-06
1.1e-06
1.1e-06
1.1e-06
1.1e-06
1.1e-06
1.1e-06
1.1e-06
1.1e-06
1.1e-06
1.1e-06
1.1e-06
1.1e-06
1.1e-06
1.1e-06
1.1e-06
1.1e-06
1.1e-06
1.1e-06
1.1e-06
1.1e-06
1.1e-06
1.1e-06
1.1e-06
1.1e-06
1.1e-06
1.1e-06
1.1e-06
1.1e-06
1.1e-06
1.1e-06
1.1e-06
1.1e-06
1.1e-06
1.1e-06
1.1e-06
1.1e-06
1.1e-06
1.1e-06
1.1e-06
1.1e-06
1.1e-06
1.1e-06
1.1e-06
0.855916
0.856735
0.857458
0.858072
0.858566
0.858931
0.859162
0.859259
0.859223
0.859059
0.858774
0.858376
0.857876
0.857283
0.856606
0.855855
0.855039
0.854166
0.853243
0.852276
0.851271
0.850233
0.849167
0.848076
0.846963
0.845831
0.844682
0.843519
0.842343
0.841154
0.839955
0.838745
0.837526
0.836296
0.835056
0.833805
0.83254
0.831261
0.829964
0.828644
0.827295
0.825908
0.824472
0.822969
0.821375
0.819655
0.817752
0.81558
0.812985
0.809683
0.805064
0.79751
0.780739
0.679564
0.048638
2.6355e-06
1.1e-06
1.1e-06
1.1e-06
1.1e-06
1.1e-06
1.1e-06
1.1e-06
1.1e-06
1.1e-06
1.1e-06
1.1e-06
1.1e-06
1.1e-06
1.1e-06
1.1e-06
1.1e-06
1.1e-06
1.1e-06
1.1e-06
1.1e-06
1.1e-06
1.1e-06
1.1e-06
1.1e-06
1.1e-06
1.1e-06
1.1e-06
1.1e-06
1.1e-06
1.1e-06
1.1e-06
1.1e-06
1.1e-06