/*--------------------------------*- C++ -*----------------------------------*\
  =========                 |
  \\      /  F ield         | OpenFOAM: The Open Source CFD Toolbox
   \\    /   O peration     | Website:  https://openfoam.org
    \\  /    A nd           | Version:  10
     \\/     M anipulation  |
\*---------------------------------------------------------------------------*/
FoamFile
{
    format      ascii;
    class       surfaceScalarField;
    location    "12500";
    object      phi;
}
// * * * * * * * * * * * * * * * * * * * * * * * * * * * * * * * * * * * * * //

dimensions      [0 3 -1 0 0 0 0];

internalField   nonuniform List<scalar> 
6280
(
-1.52359e-07
1.52359e-07
-3.0349e-07
1.51132e-07
-4.5481e-07
1.5132e-07
-6.07706e-07
1.52896e-07
-7.63598e-07
1.55892e-07
-9.24e-07
1.60402e-07
-1.09059e-06
1.66586e-07
-1.26527e-06
1.74686e-07
-1.45032e-06
1.85049e-07
-1.64848e-06
1.98161e-07
-1.86318e-06
2.14704e-07
-2.09882e-06
2.35634e-07
-2.36114e-06
2.62318e-07
-2.65788e-06
2.96743e-07
-2.99973e-06
3.41852e-07
-3.40185e-06
4.02117e-07
-3.88635e-06
4.84502e-07
-4.48648e-06
6.00136e-07
-5.25375e-06
7.6727e-07
-6.27033e-06
1.01658e-06
-7.67115e-06
1.40081e-06
-9.68367e-06
2.01252e-06
-1.27006e-05
3.01694e-06
-1.74138e-05
4.71322e-06
-2.50571e-05
7.64326e-06
-3.05383e-05
5.48118e-06
-3.09504e-05
4.12091e-07
-3.12552e-05
3.0483e-07
-3.15069e-05
2.51764e-07
-3.17195e-05
2.1254e-07
-3.1901e-05
1.81499e-07
-3.20574e-05
1.56371e-07
-3.21933e-05
1.35899e-07
-3.23122e-05
1.18954e-07
-3.24169e-05
1.0466e-07
-3.25089e-05
9.20316e-08
-2.82803e-05
-4.22856e-06
-2.18528e-05
-6.42755e-06
-1.41236e-05
-7.72915e-06
-1.03416e-05
-3.78208e-06
-1.49238e-07
3.01596e-07
-2.97165e-07
2.99058e-07
-4.45056e-07
2.99211e-07
-5.94148e-07
3.01988e-07
-7.45682e-07
3.07427e-07
-9.0095e-07
3.15669e-07
-1.06133e-06
3.26968e-07
-1.22835e-06
3.41704e-07
-1.40372e-06
3.60416e-07
-1.5894e-06
3.83839e-07
-1.78766e-06
4.12969e-07
-2.00117e-06
4.49144e-07
-2.23302e-06
4.94164e-07
-2.48673e-06
5.5046e-07
-2.7662e-06
6.21315e-07
-3.07524e-06
7.11158e-07
-3.41666e-06
8.25926e-07
-3.78997e-06
9.73437e-07
-4.18633e-06
1.16363e-06
-4.57801e-06
1.40826e-06
-4.89614e-06
1.71895e-06
-4.98519e-06
2.10157e-06
-4.51004e-06
2.54179e-06
-2.76852e-06
2.9717e-06
1.67849e-06
3.19625e-06
4.42191e-06
2.73775e-06
2.91443e-06
1.91958e-06
1.77027e-06
1.44899e-06
8.39299e-07
1.18273e-06
5.31164e-09
1.04653e-06
-8.19917e-07
1.00673e-06
-1.71881e-06
1.05526e-06
-2.78761e-06
1.2047e-06
-4.15899e-06
1.49034e-06
-6.03332e-06
1.97899e-06
-8.35996e-06
2.41867e-06
-1.31168e-05
5.28241e-07
-1.96861e-05
1.41792e-07
-2.67715e-05
-6.43714e-07
-3.45413e-05
-2.57177e-06
-1.43294e-07
4.44891e-07
-2.85134e-07
4.40898e-07
-4.26548e-07
4.40626e-07
-5.68511e-07
4.4395e-07
-7.11959e-07
4.50875e-07
-8.57815e-07
4.61526e-07
-1.007e-06
4.76148e-07
-1.16041e-06
4.95122e-07
-1.31897e-06
5.18975e-07
-1.48354e-06
5.48404e-07
-1.65488e-06
5.84307e-07
-1.83355e-06
6.27818e-07
-2.01973e-06
6.80343e-07
-2.21286e-06
7.43589e-07
-2.41112e-06
8.19575e-07
-2.61055e-06
9.10587e-07
-2.80365e-06
1.01903e-06
-2.97727e-06
1.14707e-06
-3.10959e-06
1.29595e-06
-3.16612e-06
1.46479e-06
-3.09565e-06
1.64848e-06
-2.82885e-06
1.83477e-06
-2.28763e-06
2.00057e-06
-1.42519e-06
2.10926e-06
-3.43241e-07
2.1143e-06
4.11486e-07
1.98303e-06
5.57062e-07
1.774e-06
4.23985e-07
1.58207e-06
1.70741e-07
1.43598e-06
-1.22966e-07
1.34023e-06
-4.07609e-07
1.29137e-06
-6.35544e-07
1.2832e-06
-7.37704e-07
1.30686e-06
-5.94816e-07
1.34745e-06
7.62162e-09
1.37655e-06
1.08796e-06
1.33833e-06
4.42336e-07
1.17386e-06
-5.18786e-07
1.10291e-06
-1.41018e-06
2.47679e-07
-3.66435e-05
6.9201e-07
-1.35059e-07
5.7995e-07
-2.68501e-07
5.7434e-07
-4.01053e-07
5.73177e-07
-5.33373e-07
5.7627e-07
-6.6605e-07
5.83553e-07
-7.99602e-07
5.95077e-07
-9.34458e-07
6.11004e-07
-1.07093e-06
6.31597e-07
-1.20919e-06
6.57228e-07
-1.34915e-06
6.8837e-07
-1.49044e-06
7.25598e-07
-1.6322e-06
7.69572e-07
-1.77287e-06
8.2102e-07
-1.90997e-06
8.80681e-07
-2.03961e-06
9.49223e-07
-2.15613e-06
1.0271e-06
-2.25142e-06
1.11432e-06
-2.31451e-06
1.21015e-06
-2.33119e-06
1.31264e-06
-2.28452e-06
1.41811e-06
-2.15669e-06
1.52065e-06
-1.93367e-06
1.61174e-06
-1.61374e-06
1.68064e-06
-1.2205e-06
1.71602e-06
-8.15889e-07
1.70969e-06
-4.95304e-07
1.66244e-06
-3.10195e-07
1.5889e-06
-2.37158e-07
1.50903e-06
-2.3749e-07
1.43631e-06
-2.74596e-07
1.37734e-06
-3.1693e-07
1.3337e-06
-3.37262e-07
1.30353e-06
-3.12762e-07
1.28236e-06
-2.29053e-07
1.26374e-06
-9.25764e-08
1.24008e-06
4.08394e-08
1.20492e-06
5.59645e-08
1.15874e-06
4.32695e-08
1.11561e-06
-1.78468e-07
4.69416e-07
-3.71069e-05
2.84887e-07
-1.25194e-07
7.05144e-07
-2.48626e-07
6.97773e-07
-3.70721e-07
6.95272e-07
-4.91828e-07
6.97377e-07
-6.12212e-07
7.03937e-07
-7.32035e-07
7.149e-07
-8.51329e-07
7.30297e-07
-9.69961e-07
7.50229e-07
-1.08759e-06
7.74855e-07
-1.20359e-06
8.04371e-07
-1.31699e-06
8.38996e-07
-1.42635e-06
8.78932e-07
-1.52965e-06
9.24325e-07
-1.62417e-06
9.75204e-07
-1.70635e-06
1.03139e-06
-1.77166e-06
1.09242e-06
-1.81469e-06
1.15735e-06
-1.82925e-06
1.22471e-06
-1.8089e-06
1.29229e-06
-1.74789e-06
1.3571e-06
-1.64268e-06
1.41545e-06
-1.49407e-06
1.46313e-06
-1.30948e-06
1.49605e-06
-1.10453e-06
1.51107e-06
-9.02011e-07
1.50717e-06
-7.25847e-07
1.48628e-06
-5.90183e-07
1.45323e-06
-4.95178e-07
1.41402e-06
-4.32594e-07
1.37372e-06
-3.90904e-07
1.33565e-06
-3.58503e-07
1.3013e-06
-3.25698e-07
1.27072e-06
-2.86231e-07
1.24289e-06
-2.3876e-07
1.21627e-06
-1.88062e-07
1.18938e-06
-1.44613e-07
1.16147e-06
-1.18967e-07
1.13309e-06
-1.09293e-07
1.10593e-06
-1.33586e-07
4.93709e-07
-3.74863e-05
2.45852e-07
-1.14375e-07
8.19519e-07
-2.26896e-07
8.10293e-07
-3.37715e-07
8.06091e-07
-4.46922e-07
8.06584e-07
-5.54524e-07
8.11539e-07
-6.60421e-07
8.20797e-07
-7.64382e-07
8.34257e-07
-8.66011e-07
8.51859e-07
-9.64719e-07
8.73562e-07
-1.05968e-06
8.99328e-07
-1.14977e-06
9.29091e-07
-1.23357e-06
9.6273e-07
-1.30928e-06
1.00003e-06
-1.37472e-06
1.04064e-06
-1.42735e-06
1.08403e-06
-1.46436e-06
1.12943e-06
-1.48279e-06
1.17578e-06
-1.47982e-06
1.22174e-06
-1.4532e-06
1.26566e-06
-1.40175e-06
1.30566e-06
-1.32603e-06
1.33973e-06
-1.22888e-06
1.36598e-06
-1.11574e-06
1.3829e-06
-9.94329e-07
1.38966e-06
-8.73573e-07
1.38641e-06
-7.61592e-07
1.3743e-06
-6.63632e-07
1.35527e-06
-5.81242e-07
1.33163e-06
-5.13012e-07
1.30549e-06
-4.55841e-07
1.27848e-06
-4.06147e-07
1.25161e-06
-3.60807e-07
1.22538e-06
-3.17813e-07
1.1999e-06
-2.76595e-07
1.17505e-06
-2.37951e-07
1.15073e-06
-2.03453e-07
1.12697e-06
-1.74361e-07
1.104e-06
-1.50621e-07
1.0822e-06
-1.3031e-07
4.73397e-07
-3.78647e-05
2.48098e-07
-1.03214e-07
9.22733e-07
-2.04542e-07
9.11621e-07
-3.03924e-07
9.05474e-07
-4.01257e-07
9.03917e-07
-4.96366e-07
9.06649e-07
-5.8899e-07
9.13421e-07
-6.78758e-07
9.24025e-07
-7.6517e-07
9.38271e-07
-8.47578e-07
9.5597e-07
-9.25167e-07
9.76918e-07
-9.96947e-07
1.00087e-06
-1.06174e-06
1.02753e-06
-1.11821e-06
1.0565e-06
-1.16487e-06
1.0873e-06
-1.20015e-06
1.11931e-06
-1.22252e-06
1.15179e-06
-1.23059e-06
1.18385e-06
-1.22331e-06
1.21447e-06
-1.20021e-06
1.24256e-06
-1.16158e-06
1.26702e-06
-1.10865e-06
1.2868e-06
-1.04372e-06
1.30104e-06
-9.69996e-07
1.30917e-06
-8.9134e-07
1.31101e-06
-8.11717e-07
1.30679e-06
-7.34582e-07
1.29716e-06
-6.62357e-07
1.28305e-06
-5.96232e-07
1.26551e-06
-5.36305e-07
1.24557e-06
-4.81937e-07
1.22411e-06
-4.32145e-07
1.20182e-06
-3.85945e-07
1.17918e-06
-3.42584e-07
1.15654e-06
-3.01643e-07
1.13411e-06
-2.62989e-07
1.11208e-06
-2.26626e-07
1.09061e-06
-1.92482e-07
1.06986e-06
-1.60246e-07
1.04996e-06
-1.30139e-07
4.4329e-07
-3.82477e-05
2.52873e-07
-9.22e-08
1.01493e-06
-1.82543e-07
1.00196e-06
-2.70822e-07
9.93753e-07
-3.56804e-07
9.89898e-07
-4.40208e-07
9.90052e-07
-5.20692e-07
9.93906e-07
-5.9784e-07
1.00117e-06
-6.71148e-07
1.01158e-06
-7.40019e-07
1.02484e-06
-8.03764e-07
1.04066e-06
-8.616e-07
1.05871e-06
-9.12673e-07
1.0786e-06
-9.56076e-07
1.0999e-06
-9.90895e-07
1.12212e-06
-1.01626e-06
1.14468e-06
-1.03144e-06
1.16696e-06
-1.03587e-06
1.18828e-06
-1.02934e-06
1.20793e-06
-1.01198e-06
1.22521e-06
-9.84406e-07
1.23945e-06
-9.4771e-07
1.25011e-06
-9.03426e-07
1.25676e-06
-8.53431e-07
1.25918e-06
-7.99764e-07
1.25734e-06
-7.44408e-07
1.25144e-06
-6.89073e-07
1.24183e-06
-6.35033e-07
1.22901e-06
-5.83068e-07
1.21354e-06
-5.33501e-07
1.196e-06
-4.86308e-07
1.17692e-06
-4.41254e-07
1.15677e-06
-3.98022e-07
1.13595e-06
-3.56301e-07
1.11482e-06
-3.15844e-07
1.09365e-06
-2.76478e-07
1.07271e-06
-2.38077e-07
1.05221e-06
-2.00529e-07
1.03231e-06
-1.63702e-07
1.01313e-06
-1.30608e-07
4.10195e-07
-3.86367e-05
2.58312e-07
-8.16841e-08
1.09662e-06
-1.61593e-07
1.08187e-06
-2.39428e-07
1.07159e-06
-3.14883e-07
1.06535e-06
-3.8763e-07
1.0628e-06
-4.57303e-07
1.06358e-06
-5.23498e-07
1.06737e-06
-5.85763e-07
1.07384e-06
-6.43601e-07
1.08268e-06
-6.96472e-07
1.09353e-06
-7.43812e-07
1.10605e-06
-7.85042e-07
1.11983e-06
-8.196e-07
1.13446e-06
-8.4697e-07
1.14949e-06
-8.66725e-07
1.16444e-06
-8.78566e-07
1.1788e-06
-8.82369e-07
1.19209e-06
-8.78225e-07
1.20379e-06
-8.66466e-07
1.21345e-06
-8.47676e-07
1.22066e-06
-8.22673e-07
1.2251e-06
-7.92466e-07
1.22655e-06
-7.58179e-07
1.22489e-06
-7.20964e-07
1.22013e-06
-6.81898e-07
1.21237e-06
-6.41895e-07
1.20182e-06
-6.01651e-07
1.18876e-06
-5.61613e-07
1.1735e-06
-5.21996e-07
1.15638e-06
-4.82822e-07
1.13774e-06
-4.43975e-07
1.11792e-06
-4.05264e-07
1.09724e-06
-3.66478e-07
1.07603e-06
-3.27434e-07
1.05461e-06
-2.88019e-07
1.0333e-06
-2.48214e-07
1.0124e-06
-2.08106e-07
9.92201e-07
-1.67883e-07
9.72909e-07
-1.31362e-07
3.73674e-07
-3.90325e-05
2.64476e-07
-7.18884e-08
1.16851e-06
-1.42121e-07
1.1521e-06
-2.10353e-07
1.13982e-06
-2.76251e-07
1.13125e-06
-3.39474e-07
1.12602e-06
-3.99674e-07
1.12378e-06
-4.56485e-07
1.12418e-06
-5.09529e-07
1.12689e-06
-5.58416e-07
1.13157e-06
-6.0275e-07
1.13787e-06
-6.42146e-07
1.14544e-06
-6.76239e-07
1.15392e-06
-7.04709e-07
1.16293e-06
-7.273e-07
1.17208e-06
-7.43842e-07
1.18098e-06
-7.54276e-07
1.18924e-06
-7.58674e-07
1.19648e-06
-7.57247e-07
1.20236e-06
-7.50353e-07
1.20655e-06
-7.38486e-07
1.20879e-06
-7.22253e-07
1.20887e-06
-7.0234e-07
1.20664e-06
-6.79465e-07
1.20202e-06
-6.54326e-07
1.19499e-06
-6.2755e-07
1.18559e-06
-5.99649e-07
1.17392e-06
-5.70983e-07
1.1601e-06
-5.41749e-07
1.14427e-06
-5.1197e-07
1.1266e-06
-4.81513e-07
1.10729e-06
-4.50109e-07
1.08651e-06
-4.1739e-07
1.06452e-06
-3.82939e-07
1.04158e-06
-3.46353e-07
1.01802e-06
-3.07336e-07
9.94282e-07
-2.65807e-07
9.70873e-07
-2.22023e-07
9.48417e-07
-1.76706e-07
9.27593e-07
-1.32146e-07
3.29114e-07
-3.94362e-05
2.71547e-07
-6.29275e-08
1.23143e-06
-1.24341e-07
1.21352e-06
-1.83885e-07
1.19936e-06
-2.41224e-07
1.18859e-06
-2.96035e-07
1.18083e-06
-3.47999e-07
1.17574e-06
-3.96806e-07
1.17299e-06
-4.4215e-07
1.17223e-06
-4.83737e-07
1.17315e-06
-5.21291e-07
1.17542e-06
-5.54563e-07
1.17871e-06
-5.83341e-07
1.1827e-06
-6.07466e-07
1.18706e-06
-6.26842e-07
1.19146e-06
-6.41448e-07
1.19559e-06
-6.51353e-07
1.19914e-06
-6.56717e-07
1.20185e-06
-6.57794e-07
1.20344e-06
-6.5493e-07
1.20369e-06
-6.48547e-07
1.20241e-06
-6.39126e-07
1.19945e-06
-6.27183e-07
1.1947e-06
-6.13237e-07
1.18807e-06
-5.97777e-07
1.17953e-06
-5.81234e-07
1.16905e-06
-5.63942e-07
1.15663e-06
-5.46112e-07
1.14227e-06
-5.27807e-07
1.12596e-06
-5.08912e-07
1.10771e-06
-4.89111e-07
1.08749e-06
-4.67867e-07
1.06527e-06
-4.44405e-07
1.04106e-06
-4.1771e-07
1.01488e-06
-3.86558e-07
9.86872e-07
-3.49607e-07
9.57332e-07
-3.05592e-07
9.26858e-07
-2.53677e-07
8.96502e-07
-1.94052e-07
8.67968e-07
-1.32646e-07
2.67708e-07
-3.98487e-05
2.79839e-07
-5.48353e-08
1.28627e-06
-1.08309e-07
1.26699e-06
-1.60075e-07
1.25113e-06
-2.09817e-07
1.23833e-06
-2.57238e-07
1.22825e-06
-3.02061e-07
1.22057e-06
-3.44027e-07
1.21495e-06
-3.82895e-07
1.2111e-06
-4.18453e-07
1.20871e-06
-4.50512e-07
1.20748e-06
-4.78921e-07
1.20712e-06
-5.03574e-07
1.20735e-06
-5.24412e-07
1.20789e-06
-5.41437e-07
1.20848e-06
-5.54713e-07
1.20886e-06
-5.64372e-07
1.2088e-06
-5.70617e-07
1.20809e-06
-5.73717e-07
1.20654e-06
-5.74004e-07
1.20398e-06
-5.71864e-07
1.20027e-06
-5.67722e-07
1.19531e-06
-5.62028e-07
1.189e-06
-5.55241e-07
1.18128e-06
-5.47809e-07
1.1721e-06
-5.40148e-07
1.16139e-06
-5.32619e-07
1.1491e-06
-5.25504e-07
1.13515e-06
-5.18971e-07
1.11943e-06
-5.13029e-07
1.10177e-06
-5.07466e-07
1.08192e-06
-5.01756e-07
1.05956e-06
-4.9493e-07
1.03423e-06
-4.85396e-07
1.00535e-06
-4.70698e-07
9.72174e-07
-4.47218e-07
9.33852e-07
-4.09853e-07
8.89493e-07
-3.51739e-07
8.38389e-07
-2.64253e-07
7.80482e-07
-1.31833e-07
1.35288e-07
-4.0271e-05
2.90525e-07
-4.75916e-08
1.33386e-06
-9.39733e-08
1.31337e-06
-1.38824e-07
1.29598e-06
-1.81852e-07
1.28136e-06
-2.22795e-07
1.2692e-06
-2.61414e-07
1.25919e-06
-2.97496e-07
1.25103e-06
-3.30858e-07
1.24446e-06
-3.61343e-07
1.23919e-06
-3.88829e-07
1.23497e-06
-4.13232e-07
1.23153e-06
-4.34511e-07
1.22863e-06
-4.52668e-07
1.22605e-06
-4.6776e-07
1.22357e-06
-4.79894e-07
1.221e-06
-4.89233e-07
1.21814e-06
-4.95995e-07
1.21485e-06
-5.00449e-07
1.21099e-06
-5.02918e-07
1.20644e-06
-5.03766e-07
1.20112e-06
-5.034e-07
1.19494e-06
-5.02263e-07
1.18787e-06
-5.00827e-07
1.17985e-06
-4.99589e-07
1.17086e-06
-4.99075e-07
1.16087e-06
-4.99832e-07
1.14986e-06
-5.02433e-07
1.13775e-06
-5.07471e-07
1.12447e-06
-5.15557e-07
1.10985e-06
-5.2729e-07
1.09366e-06
-5.43212e-07
1.07548e-06
-5.63691e-07
1.05471e-06
-5.88703e-07
1.03036e-06
-6.17411e-07
1.00088e-06
-6.47391e-07
9.63832e-07
-6.73206e-07
9.15308e-07
-6.83868e-07
8.49051e-07
-6.58311e-07
7.54925e-07
-1.25029e-07
-3.97994e-07
-4.0704e-05
3.07919e-07
-4.11437e-08
1.375e-06
-8.1223e-08
1.35345e-06
-1.19946e-07
1.3347e-06
-1.57051e-07
1.31847e-06
-1.92308e-07
1.30445e-06
-2.25514e-07
1.29239e-06
-2.56495e-07
1.28202e-06
-2.85108e-07
1.27307e-06
-3.11239e-07
1.26533e-06
-3.34811e-07
1.25854e-06
-3.5578e-07
1.2525e-06
-3.74142e-07
1.24699e-06
-3.89934e-07
1.24184e-06
-4.03236e-07
1.23687e-06
-4.1417e-07
1.23193e-06
-4.22903e-07
1.22688e-06
-4.29648e-07
1.2216e-06
-4.34659e-07
1.216e-06
-4.38234e-07
1.21002e-06
-4.40712e-07
1.2036e-06
-4.42473e-07
1.1967e-06
-4.43943e-07
1.18934e-06
-4.45597e-07
1.1815e-06
-4.47966e-07
1.17323e-06
-4.51657e-07
1.16457e-06
-4.57374e-07
1.15557e-06
-4.65956e-07
1.14634e-06
-4.78435e-07
1.13695e-06
-4.9612e-07
1.12754e-06
-5.20725e-07
1.11826e-06
-5.54572e-07
1.10933e-06
-6.00902e-07
1.10104e-06
-6.64368e-07
1.09383e-06
-7.51829e-07
1.08834e-06
-8.73646e-07
1.08565e-06
-1.04579e-06
1.08746e-06
-1.29337e-06
1.09663e-06
-1.65627e-06
1.11783e-06
-9.99748e-08
-1.95429e-06
-4.11426e-05
3.38664e-07
-3.5423e-08
1.41043e-06
-6.99165e-08
1.38795e-06
-1.03219e-07
1.36801e-06
-1.35098e-07
1.35035e-06
-1.65353e-07
1.33471e-06
-1.9381e-07
1.32085e-06
-2.20327e-07
1.30853e-06
-2.44789e-07
1.29754e-06
-2.67112e-07
1.28765e-06
-2.87244e-07
1.27867e-06
-3.05165e-07
1.27042e-06
-3.20888e-07
1.26272e-06
-3.3446e-07
1.25542e-06
-3.45965e-07
1.24838e-06
-3.55518e-07
1.24148e-06
-3.63272e-07
1.23463e-06
-3.69411e-07
1.22774e-06
-3.74154e-07
1.22075e-06
-3.77752e-07
1.21362e-06
-3.80487e-07
1.20633e-06
-3.82678e-07
1.1989e-06
-3.84678e-07
1.19134e-06
-3.8688e-07
1.1837e-06
-3.89729e-07
1.17608e-06
-3.9373e-07
1.16857e-06
-3.99467e-07
1.16131e-06
-4.07632e-07
1.1545e-06
-4.19059e-07
1.14837e-06
-4.34772e-07
1.14325e-06
-4.56059e-07
1.13955e-06
-4.84558e-07
1.13783e-06
-5.22381e-07
1.13886e-06
-5.72267e-07
1.14371e-06
-6.37777e-07
1.15385e-06
-7.23502e-07
1.17137e-06
-8.35268e-07
1.19922e-06
-9.80229e-07
1.24159e-06
-1.16597e-06
1.30357e-06
-9.56919e-08
-3.02457e-06
-4.15872e-05
3.48907e-07
-3.03565e-08
1.44078e-06
-5.99056e-08
1.4175e-06
-8.84139e-08
1.39652e-06
-1.15677e-07
1.37761e-06
-1.41518e-07
1.36055e-06
-1.65789e-07
1.34512e-06
-1.88368e-07
1.33111e-06
-2.09162e-07
1.31833e-06
-2.28103e-07
1.30659e-06
-2.45153e-07
1.29572e-06
-2.60302e-07
1.28557e-06
-2.73565e-07
1.27598e-06
-2.84987e-07
1.26684e-06
-2.94638e-07
1.25803e-06
-3.02614e-07
1.24946e-06
-3.09035e-07
1.24105e-06
-3.14046e-07
1.23275e-06
-3.1781e-07
1.22451e-06
-3.20512e-07
1.21632e-06
-3.22353e-07
1.20817e-06
-3.23551e-07
1.20009e-06
-3.24337e-07
1.19212e-06
-3.24955e-07
1.18432e-06
-3.25661e-07
1.17678e-06
-3.26717e-07
1.16962e-06
-3.28387e-07
1.16298e-06
-3.3093e-07
1.15704e-06
-3.34581e-07
1.15203e-06
-3.39524e-07
1.14819e-06
-3.45838e-07
1.14586e-06
-3.53411e-07
1.1454e-06
-3.61788e-07
1.14724e-06
-3.6993e-07
1.15185e-06
-3.75807e-07
1.15973e-06
-3.75749e-07
1.17131e-06
-3.63407e-07
1.18688e-06
-3.2812e-07
1.2063e-06
-2.51268e-07
1.22672e-06
-1.46713e-07
-3.12913e-06
-4.20457e-05
3.11806e-07
-2.58739e-08
1.46666e-06
-5.10492e-08
1.44267e-06
-7.53183e-08
1.42078e-06
-9.84997e-08
1.40079e-06
-1.20438e-07
1.38249e-06
-1.41003e-07
1.36568e-06
-1.60089e-07
1.3502e-06
-1.77616e-07
1.33586e-06
-1.93526e-07
1.3225e-06
-2.07786e-07
1.30998e-06
-2.20385e-07
1.29816e-06
-2.31334e-07
1.28693e-06
-2.40665e-07
1.27617e-06
-2.48428e-07
1.26579e-06
-2.54691e-07
1.25572e-06
-2.59537e-07
1.2459e-06
-2.63062e-07
1.23627e-06
-2.6537e-07
1.22682e-06
-2.66575e-07
1.21752e-06
-2.66789e-07
1.20839e-06
-2.66126e-07
1.19943e-06
-2.6469e-07
1.19069e-06
-2.62571e-07
1.1822e-06
-2.59837e-07
1.17405e-06
-2.56521e-07
1.16631e-06
-2.52606e-07
1.15907e-06
-2.48003e-07
1.15244e-06
-2.4252e-07
1.14654e-06
-2.35827e-07
1.1415e-06
-2.27394e-07
1.13743e-06
-2.16425e-07
1.13443e-06
-2.01761e-07
1.13258e-06
-1.81767e-07
1.13186e-06
-1.54204e-07
1.13217e-06
-1.16104e-07
1.13322e-06
-6.36941e-08
1.13447e-06
7.54671e-09
1.13506e-06
1.02697e-07
1.13157e-06
-1.71241e-07
-2.85519e-06
-4.25028e-05
2.85838e-07
-2.19112e-08
1.48857e-06
-4.32199e-08
1.46398e-06
-6.37406e-08
1.4413e-06
-8.33116e-08
1.42036e-06
-1.01794e-07
1.40097e-06
-1.19073e-07
1.38296e-06
-1.35053e-07
1.36618e-06
-1.49662e-07
1.35047e-06
-1.62847e-07
1.33569e-06
-1.74576e-07
1.32171e-06
-1.84832e-07
1.30842e-06
-1.93618e-07
1.29571e-06
-2.00949e-07
1.2835e-06
-2.06853e-07
1.2717e-06
-2.11371e-07
1.26024e-06
-2.1455e-07
1.24908e-06
-2.16442e-07
1.23816e-06
-2.17099e-07
1.22748e-06
-2.16572e-07
1.217e-06
-2.14903e-07
1.20672e-06
-2.12123e-07
1.19665e-06
-2.0824e-07
1.1868e-06
-2.0324e-07
1.1772e-06
-1.9707e-07
1.16788e-06
-1.89633e-07
1.15887e-06
-1.80771e-07
1.15021e-06
-1.70257e-07
1.14193e-06
-1.57771e-07
1.13406e-06
-1.42891e-07
1.12662e-06
-1.25071e-07
1.11961e-06
-1.03633e-07
1.11299e-06
-7.77595e-08
1.1067e-06
-4.65166e-08
1.10062e-06
-8.89627e-09
1.09455e-06
3.60835e-08
1.08824e-06
8.92082e-08
1.08135e-06
1.50797e-07
1.07347e-06
2.20284e-07
1.06208e-06
-1.70329e-07
-2.46458e-06
-4.29377e-05
2.64598e-07
-1.84124e-08
1.50698e-06
-3.63065e-08
1.48187e-06
-5.35159e-08
1.45851e-06
-6.98953e-08
1.43674e-06
-8.53199e-08
1.41639e-06
-9.96851e-08
1.39733e-06
-1.12905e-07
1.3794e-06
-1.24912e-07
1.36247e-06
-1.35655e-07
1.34643e-06
-1.45099e-07
1.33115e-06
-1.53223e-07
1.31655e-06
-1.60018e-07
1.30251e-06
-1.65487e-07
1.28897e-06
-1.69639e-07
1.27585e-06
-1.7249e-07
1.26309e-06
-1.74059e-07
1.25065e-06
-1.74365e-07
1.23847e-06
-1.73424e-07
1.22654e-06
-1.71243e-07
1.21482e-06
-1.6782e-07
1.2033e-06
-1.63136e-07
1.19197e-06
-1.57151e-07
1.18082e-06
-1.49799e-07
1.16985e-06
-1.40981e-07
1.15906e-06
-1.30561e-07
1.14845e-06
-1.1836e-07
1.138e-06
-1.04147e-07
1.12771e-06
-8.76425e-08
1.11755e-06
-6.85097e-08
1.10749e-06
-4.63638e-08
1.09746e-06
-2.07801e-08
1.08741e-06
8.68413e-09
1.07724e-06
4.24541e-08
1.06685e-06
8.08823e-08
1.05612e-06
1.24169e-07
1.04495e-06
1.72249e-07
1.03327e-06
2.24645e-07
1.02107e-06
2.80279e-07
1.00645e-06
-1.43915e-07
-2.04038e-06
-4.33039e-05
2.22298e-07
-1.53287e-08
1.52231e-06
-3.02131e-08
1.49676e-06
-4.45028e-08
1.4728e-06
-5.80665e-08
1.4503e-06
-7.07909e-08
1.42912e-06
-8.25803e-08
1.40912e-06
-9.33554e-08
1.39017e-06
-1.03052e-07
1.37217e-06
-1.11621e-07
1.355e-06
-1.19024e-07
1.33856e-06
-1.25237e-07
1.32276e-06
-1.30242e-07
1.30752e-06
-1.3403e-07
1.29276e-06
-1.36599e-07
1.27842e-06
-1.37948e-07
1.26444e-06
-1.38077e-07
1.25077e-06
-1.36987e-07
1.23738e-06
-1.34671e-07
1.22422e-06
-1.31116e-07
1.21126e-06
-1.26299e-07
1.19848e-06
-1.20184e-07
1.18585e-06
-1.12716e-07
1.17335e-06
-1.03825e-07
1.16096e-06
-9.34155e-08
1.14865e-06
-8.13691e-08
1.1364e-06
-6.75416e-08
1.12418e-06
-5.17628e-08
1.11193e-06
-3.38365e-08
1.09963e-06
-1.35426e-08
1.08719e-06
9.35898e-09
1.07456e-06
3.51247e-08
1.06164e-06
6.40227e-08
1.04834e-06
9.63318e-08
1.03454e-06
1.32347e-07
1.0201e-06
1.72402e-07
1.00489e-06
2.16917e-07
9.88751e-07
2.66499e-07
9.71492e-07
3.22093e-07
9.50853e-07
-6.7327e-08
-1.65096e-06
-4.35041e-05
1.32781e-07
-1.26186e-08
1.53493e-06
-2.48575e-08
1.509e-06
-3.65804e-08
1.48453e-06
-4.76681e-08
1.46139e-06
-5.80171e-08
1.43947e-06
-6.75394e-08
1.41864e-06
-7.61614e-08
1.3988e-06
-8.38224e-08
1.37983e-06
-9.04739e-08
1.36165e-06
-9.60781e-08
1.34416e-06
-1.00606e-07
1.32729e-06
-1.04037e-07
1.31095e-06
-1.06356e-07
1.29508e-06
-1.07552e-07
1.27961e-06
-1.07617e-07
1.2645e-06
-1.06542e-07
1.2497e-06
-1.04318e-07
1.23516e-06
-1.00933e-07
1.22083e-06
-9.63682e-08
1.2067e-06
-9.05999e-08
1.19271e-06
-8.35949e-08
1.17884e-06
-7.53105e-08
1.16507e-06
-6.56937e-08
1.15134e-06
-5.46805e-08
1.13764e-06
-4.21962e-08
1.12392e-06
-2.81565e-08
1.11014e-06
-1.24692e-08
1.09625e-06
4.96351e-09
1.08219e-06
2.42412e-08
1.06792e-06
4.54617e-08
1.05334e-06
6.87166e-08
1.03839e-06
9.40884e-08
1.02297e-06
1.21649e-07
1.00698e-06
1.5146e-07
9.90292e-07
1.83584e-07
9.7277e-07
2.18095e-07
9.5424e-07
2.55105e-07
9.34483e-07
2.94811e-07
9.11147e-07
1.28923e-09
-1.35744e-06
-4.35593e-05
5.65733e-08
-1.02458e-08
1.54517e-06
-2.01684e-08
1.51892e-06
-2.96442e-08
1.494e-06
-3.85643e-08
1.47031e-06
-4.68342e-08
1.44774e-06
-5.4373e-08
1.42618e-06
-6.11121e-08
1.40553e-06
-6.69949e-08
1.38571e-06
-7.19747e-08
1.36663e-06
-7.60144e-08
1.3482e-06
-7.90849e-08
1.33036e-06
-8.11637e-08
1.31302e-06
-8.22334e-08
1.29615e-06
-8.22811e-08
1.27966e-06
-8.12959e-08
1.26352e-06
-7.92687e-08
1.24767e-06
-7.61902e-08
1.23208e-06
-7.20501e-08
1.21669e-06
-6.68361e-08
1.20148e-06
-6.05331e-08
1.18641e-06
-5.3123e-08
1.17143e-06
-4.45844e-08
1.15653e-06
-3.48931e-08
1.14165e-06
-2.40229e-08
1.12677e-06
-1.19474e-08
1.11184e-06
1.35798e-09
1.09683e-06
1.59129e-08
1.08169e-06
3.17278e-08
1.06638e-06
4.87994e-08
1.05084e-06
6.71038e-08
1.03504e-06
8.65888e-08
1.01891e-06
1.07163e-07
1.0024e-06
1.28683e-07
9.85458e-07
1.50931e-07
9.68043e-07
1.73589e-07
9.50113e-07
1.96187e-07
9.31642e-07
2.18036e-07
9.12634e-07
2.38144e-07
8.91039e-07
3.08511e-09
-1.12238e-06
-4.36072e-05
5.09453e-08
-8.17833e-09
1.55335e-06
-1.60832e-08
1.52682e-06
-2.3602e-08
1.50152e-06
-3.06354e-08
1.47735e-06
-3.7097e-08
1.4542e-06
-4.29125e-08
1.43199e-06
-4.80187e-08
1.41064e-06
-5.23629e-08
1.39006e-06
-5.59015e-08
1.37017e-06
-5.85996e-08
1.3509e-06
-6.04292e-08
1.33219e-06
-6.1369e-08
1.31396e-06
-6.14028e-08
1.29618e-06
-6.05185e-08
1.27878e-06
-5.87076e-08
1.26171e-06
-5.5964e-08
1.24493e-06
-5.22833e-08
1.2284e-06
-4.76626e-08
1.21207e-06
-4.20995e-08
1.19592e-06
-3.55926e-08
1.1799e-06
-2.81413e-08
1.16398e-06
-1.97464e-08
1.14813e-06
-1.0411e-08
1.13232e-06
-1.41715e-10
1.1165e-06
1.10496e-08
1.10065e-06
2.31435e-08
1.08474e-06
3.61102e-08
1.06873e-06
4.99063e-08
1.05258e-06
6.44709e-08
1.03628e-06
7.97211e-08
1.01979e-06
9.55471e-08
1.00308e-06
1.11806e-07
9.86137e-07
1.28318e-07
9.68946e-07
1.44858e-07
9.51503e-07
1.61155e-07
9.33817e-07
1.76886e-07
9.15911e-07
1.91693e-07
8.97827e-07
2.0526e-07
8.77472e-07
4.52622e-09
-9.21648e-07
-4.36488e-05
4.61498e-08
-6.38796e-09
1.55974e-06
-1.2546e-08
1.53298e-06
-1.83714e-08
1.50735e-06
-2.37737e-08
1.48275e-06
-2.86741e-08
1.4591e-06
-3.30045e-08
1.43632e-06
-3.67071e-08
1.41434e-06
-3.97334e-08
1.39308e-06
-4.20436e-08
1.37248e-06
-4.36057e-08
1.35246e-06
-4.43945e-08
1.33297e-06
-4.43912e-08
1.31396e-06
-4.35824e-08
1.29537e-06
-4.19594e-08
1.27715e-06
-3.95176e-08
1.25927e-06
-3.62563e-08
1.24167e-06
-3.21778e-08
1.22432e-06
-2.72876e-08
1.20718e-06
-2.15941e-08
1.19023e-06
-1.51088e-08
1.17342e-06
-7.84661e-09
1.15672e-06
1.73721e-10
1.14011e-06
8.92865e-09
1.12356e-06
1.8389e-08
1.10704e-06
2.85186e-08
1.09052e-06
3.92731e-08
1.07398e-06
5.05981e-08
1.0574e-06
6.24277e-08
1.04075e-06
7.46826e-08
1.02402e-06
8.72684e-08
1.0072e-06
1.00075e-07
9.90273e-07
1.12974e-07
9.73237e-07
1.25822e-07
9.56098e-07
1.38458e-07
9.38867e-07
1.5071e-07
9.21564e-07
1.62402e-07
9.04219e-07
1.73359e-07
8.8687e-07
1.83456e-07
8.67376e-07
5.82936e-09
-7.44021e-07
-4.36848e-05
4.18327e-08
-4.84907e-09
1.56459e-06
-9.50616e-09
1.53764e-06
-1.38778e-08
1.51172e-06
-1.78815e-08
1.48675e-06
-2.14454e-08
1.46266e-06
-2.45076e-08
1.43939e-06
-2.70153e-08
1.41685e-06
-2.89245e-08
1.39499e-06
-3.01994e-08
1.37375e-06
-3.08112e-08
1.35307e-06
-3.07381e-08
1.3329e-06
-2.99646e-08
1.31319e-06
-2.84805e-08
1.29389e-06
-2.62812e-08
1.27495e-06
-2.33666e-08
1.25635e-06
-1.97414e-08
1.23804e-06
-1.54145e-08
1.21999e-06
-1.03988e-08
1.20217e-06
-4.71186e-09
1.18454e-06
1.62467e-09
1.16708e-06
8.58447e-09
1.14976e-06
1.61363e-08
1.13256e-06
2.42437e-08
1.11545e-06
3.28643e-08
1.09842e-06
4.19496e-08
1.08144e-06
5.14443e-08
1.06449e-06
6.12862e-08
1.04756e-06
7.14055e-08
1.03063e-06
8.1725e-08
1.01371e-06
9.21605e-08
9.96765e-07
1.02621e-07
9.79812e-07
1.1301e-07
9.62849e-07
1.23227e-07
9.45882e-07
1.3317e-07
9.28924e-07
1.42741e-07
9.11994e-07
1.51845e-07
8.95115e-07
1.604e-07
8.78315e-07
1.6835e-07
8.59426e-07
7.19226e-09
-5.82864e-07
-4.37154e-05
3.78042e-08
-3.53843e-09
1.56813e-06
-6.91782e-09
1.54102e-06
-1.00531e-08
1.51485e-06
-1.28692e-08
1.48957e-06
-1.53007e-08
1.4651e-06
-1.72912e-08
1.44138e-06
-1.87929e-08
1.41835e-06
-1.97661e-08
1.39597e-06
-2.01785e-08
1.37417e-06
-2.00048e-08
1.3529e-06
-1.92265e-08
1.33212e-06
-1.78309e-08
1.31179e-06
-1.58113e-08
1.29187e-06
-1.31665e-08
1.27231e-06
-9.90021e-09
1.25309e-06
-6.02154e-09
1.23416e-06
-1.54436e-09
1.21551e-06
3.51251e-09
1.19711e-06
9.12536e-09
1.17893e-06
1.52655e-08
1.16094e-06
2.18993e-08
1.14313e-06
2.89878e-08
1.12547e-06
3.64872e-08
1.10795e-06
4.43485e-08
1.09056e-06
5.25177e-08
1.07327e-06
6.09362e-08
1.05607e-06
6.95411e-08
1.03895e-06
7.82663e-08
1.02191e-06
8.70425e-08
1.00493e-06
9.57993e-08
9.88009e-07
1.04466e-07
9.71146e-07
1.12973e-07
9.54341e-07
1.21255e-07
9.376e-07
1.29251e-07
9.20928e-07
1.36907e-07
9.04338e-07
1.44179e-07
8.87843e-07
1.51032e-07
8.71461e-07
1.57407e-07
8.53051e-07
8.82545e-09
-4.34283e-07
-4.37406e-05
3.39517e-08
-2.43491e-09
1.57056e-06
-4.73918e-09
1.54332e-06
-6.83536e-09
1.51695e-06
-8.65514e-09
1.49139e-06
-1.0139e-08
1.46658e-06
-1.12356e-08
1.44247e-06
-1.19016e-08
1.41902e-06
-1.2101e-08
1.39617e-06
-1.1805e-08
1.37387e-06
-1.0991e-08
1.35209e-06
-9.64309e-09
1.33078e-06
-7.75113e-09
1.3099e-06
-5.3107e-09
1.28943e-06
-2.32287e-09
1.26932e-06
1.20595e-09
1.24956e-06
5.26407e-09
1.23011e-06
9.83462e-09
1.21094e-06
1.48955e-08
1.19205e-06
2.04195e-08
1.1734e-06
2.6374e-08
1.15498e-06
3.27213e-08
1.13678e-06
3.94186e-08
1.11877e-06
4.6418e-08
1.10095e-06
5.36671e-08
1.08331e-06
6.11092e-08
1.06583e-06
6.86842e-08
1.04849e-06
7.63296e-08
1.03131e-06
8.39816e-08
1.01426e-06
9.15766e-08
9.97334e-07
9.90529e-08
9.80532e-07
1.06353e-07
9.63846e-07
1.13424e-07
9.4727e-07
1.20221e-07
9.30802e-07
1.2671e-07
9.1444e-07
1.32864e-07
8.98184e-07
1.38668e-07
8.82039e-07
1.44118e-07
8.66011e-07
1.49142e-07
8.48027e-07
1.0915e-08
-2.96056e-07
-4.37599e-05
3.0198e-08
-1.51934e-09
1.57208e-06
-2.93229e-09
1.54474e-06
-4.16833e-09
1.51819e-06
-5.16526e-09
1.49238e-06
-5.86882e-09
1.46728e-06
-6.23229e-09
1.44284e-06
-6.21612e-09
1.419e-06
-5.78757e-09
1.39574e-06
-4.92034e-09
1.373e-06
-3.59424e-09
1.35076e-06
-1.79496e-09
1.32898e-06
4.86251e-10
1.30762e-06
3.2527e-09
1.28666e-06
6.50244e-09
1.26607e-06
1.02283e-08
1.24583e-06
1.44181e-08
1.22592e-06
1.90542e-08
1.20631e-06
2.41141e-08
1.18699e-06
2.95698e-08
1.16795e-06
3.53879e-08
1.14917e-06
4.15298e-08
1.13064e-06
4.79512e-08
1.11235e-06
5.46027e-08
1.0943e-06
6.14298e-08
1.07648e-06
6.83734e-08
1.05888e-06
7.53706e-08
1.0415e-06
8.23557e-08
1.02432e-06
8.92619e-08
1.00735e-06
9.6023e-08
9.90573e-07
1.02576e-07
9.7398e-07
1.08862e-07
9.57559e-07
1.14834e-07
9.41299e-07
1.20453e-07
9.25183e-07
1.25695e-07
9.09198e-07
1.3055e-07
8.93329e-07
1.35025e-07
8.77564e-07
1.3914e-07
8.61896e-07
1.42806e-07
8.44361e-07
1.35271e-08
-1.66777e-07
-4.37728e-05
2.64873e-08
-7.74342e-10
1.57286e-06
-1.46277e-09
1.54542e-06
-2.00109e-09
1.51872e-06
-2.33261e-09
1.49272e-06
-2.40778e-09
1.46736e-06
-2.18389e-09
1.44261e-06
-1.62464e-09
1.41844e-06
-6.99893e-10
1.39481e-06
6.14706e-10
1.37169e-06
2.33799e-09
1.34904e-06
4.48351e-09
1.32683e-06
7.05977e-09
1.30504e-06
1.00704e-08
1.28365e-06
1.35142e-08
1.26263e-06
1.73853e-08
1.24196e-06
2.1673e-08
1.22163e-06
2.63621e-08
1.20162e-06
3.14321e-08
1.18192e-06
3.68577e-08
1.16252e-06
4.26082e-08
1.14342e-06
4.86474e-08
1.1246e-06
5.4933e-08
1.10607e-06
6.14167e-08
1.08782e-06
6.80439e-08
1.06985e-06
7.47534e-08
1.05217e-06
8.14777e-08
1.03477e-06
8.81436e-08
1.01766e-06
9.46735e-08
1.00082e-06
1.00987e-07
9.8426e-07
1.07002e-07
9.67964e-07
1.12643e-07
9.51918e-07
1.17841e-07
9.361e-07
1.22543e-07
9.20482e-07
1.26715e-07
9.05026e-07
1.30351e-07
8.89693e-07
1.33475e-07
8.7444e-07
1.36145e-07
8.59227e-07
1.38282e-07
8.42224e-07
1.65021e-08
-4.49972e-08
-4.37791e-05
2.27835e-08
-1.8414e-10
1.57304e-06
-2.99492e-10
1.54554e-06
-2.87632e-10
1.51871e-06
-9.68744e-11
1.49252e-06
3.18071e-10
1.46694e-06
9.96441e-10
1.44193e-06
1.97175e-09
1.41747e-06
3.27212e-09
1.39351e-06
4.92057e-09
1.37004e-06
6.93533e-09
1.34702e-06
9.33007e-09
1.32444e-06
1.21141e-08
1.30226e-06
1.52927e-08
1.28047e-06
1.88669e-08
1.25905e-06
2.2834e-08
1.23799e-06
2.71873e-08
1.21727e-06
3.19163e-08
1.19689e-06
3.70062e-08
1.17683e-06
4.24379e-08
1.15709e-06
4.81876e-08
1.13767e-06
5.42264e-08
1.11856e-06
6.05193e-08
1.09977e-06
6.70245e-08
1.08131e-06
7.36925e-08
1.06319e-06
8.04646e-08
1.0454e-06
8.72715e-08
1.02797e-06
9.40326e-08
1.0109e-06
1.00654e-07
9.94199e-07
1.0703e-07
9.77884e-07
1.13041e-07
9.61953e-07
1.18561e-07
9.46398e-07
1.2346e-07
9.31201e-07
1.27618e-07