/*--------------------------------*- C++ -*----------------------------------*\
  =========                 |
  \\      /  F ield         | OpenFOAM: The Open Source CFD Toolbox
   \\    /   O peration     | Website:  https://openfoam.org
    \\  /    A nd           | Version:  10
     \\/     M anipulation  |
\*---------------------------------------------------------------------------*/
FoamFile
{
    format      ascii;
    class       volVectorField;
    location    "6000";
    object      Ub;
}
// * * * * * * * * * * * * * * * * * * * * * * * * * * * * * * * * * * * * * //

dimensions      [0 1 -1 0 0 0 0];

internalField   nonuniform List<vector> 
3200
(
(-3.07674e-21 -9.87894e-16 0)
(-9.17707e-21 -9.87894e-16 0)
(-1.5173e-20 -9.87894e-16 0)
(-2.10677e-20 -9.87894e-16 0)
(-2.68641e-20 -9.87894e-16 0)
(-3.25642e-20 -9.87894e-16 0)
(-3.81692e-20 -9.87894e-16 0)
(-4.36797e-20 -9.87894e-16 0)
(-4.90952e-20 -9.87894e-16 0)
(-5.44144e-20 -9.87894e-16 0)
(-5.9635e-20 -9.87894e-16 0)
(-6.47538e-20 -9.87894e-16 0)
(-6.97665e-20 -9.87894e-16 0)
(-7.46674e-20 -9.87894e-16 0)
(-7.94499e-20 -9.87894e-16 0)
(-8.41054e-20 -9.87894e-16 0)
(-8.86238e-20 -9.87894e-16 0)
(-9.29926e-20 -9.87894e-16 0)
(-9.71968e-20 -9.87895e-16 0)
(-1.01217e-19 -9.87895e-16 0)
(-1.05031e-19 -9.87895e-16 0)
(-1.08607e-19 -9.87895e-16 0)
(-1.11909e-19 -9.87895e-16 0)
(-1.14886e-19 -9.87896e-16 0)
(-1.17477e-19 -9.87896e-16 0)
(-1.19598e-19 -9.87897e-16 0)
(-1.21144e-19 -9.87897e-16 0)
(-1.2198e-19 -9.87898e-16 0)
(-1.21933e-19 -9.87899e-16 0)
(-1.20787e-19 -9.87901e-16 0)
(-1.18273e-19 -9.87903e-16 0)
(-1.14072e-19 -9.87905e-16 0)
(-1.0781e-19 -9.87908e-16 0)
(-9.90718e-20 -9.87912e-16 0)
(-8.74314e-20 -9.87916e-16 0)
(-7.24991e-20 -9.87921e-16 0)
(-5.40063e-20 -9.87926e-16 0)
(-3.19247e-20 -9.87932e-16 0)
(-6.61917e-21 -9.87937e-16 0)
(2.09983e-20 -9.8794e-16 0)
(-3.07446e-21 -9.87885e-16 0)
(-9.17048e-21 -9.87885e-16 0)
(-1.51627e-20 -9.87885e-16 0)
(-2.10549e-20 -9.87885e-16 0)
(-2.68501e-20 -9.87885e-16 0)
(-3.25507e-20 -9.87885e-16 0)
(-3.81584e-20 -9.87885e-16 0)
(-4.36741e-20 -9.87885e-16 0)
(-4.90977e-20 -9.87885e-16 0)
(-5.44285e-20 -9.87885e-16 0)
(-5.96647e-20 -9.87885e-16 0)
(-6.48037e-20 -9.87885e-16 0)
(-6.98421e-20 -9.87885e-16 0)
(-7.47753e-20 -9.87885e-16 0)
(-7.95979e-20 -9.87885e-16 0)
(-8.43034e-20 -9.87885e-16 0)
(-8.88841e-20 -9.87886e-16 0)
(-9.33313e-20 -9.87886e-16 0)
(-9.76346e-20 -9.87886e-16 0)
(-1.01782e-19 -9.87886e-16 0)
(-1.0576e-19 -9.87887e-16 0)
(-1.0955e-19 -9.87887e-16 0)
(-1.13134e-19 -9.87888e-16 0)
(-1.16485e-19 -9.87889e-16 0)
(-1.19572e-19 -9.8789e-16 0)
(-1.22354e-19 -9.87891e-16 0)
(-1.24775e-19 -9.87893e-16 0)
(-1.26762e-19 -9.87895e-16 0)
(-1.28212e-19 -9.87898e-16 0)
(-1.28985e-19 -9.87902e-16 0)
(-1.28882e-19 -9.87907e-16 0)
(-1.27622e-19 -9.87914e-16 0)
(-1.24808e-19 -9.87922e-16 0)
(-1.19888e-19 -9.87933e-16 0)
(-1.12101e-19 -9.87946e-16 0)
(-1.00436e-19 -9.87962e-16 0)
(-8.36205e-20 -9.87981e-16 0)
(-6.02139e-20 -9.88003e-16 0)
(-2.89377e-20 -9.88025e-16 0)
(1.04759e-20 -9.88043e-16 0)
(-3.06947e-21 -9.87876e-16 0)
(-9.15599e-21 -9.87876e-16 0)
(-1.514e-20 -9.87876e-16 0)
(-2.10261e-20 -9.87876e-16 0)
(-2.68178e-20 -9.87876e-16 0)
(-3.25184e-20 -9.87876e-16 0)
(-3.81302e-20 -9.87876e-16 0)
(-4.36547e-20 -9.87876e-16 0)
(-4.90928e-20 -9.87876e-16 0)
(-5.44446e-20 -9.87876e-16 0)
(-5.97093e-20 -9.87876e-16 0)
(-6.48854e-20 -9.87876e-16 0)
(-6.99708e-20 -9.87876e-16 0)
(-7.49627e-20 -9.87876e-16 0)
(-7.98576e-20 -9.87876e-16 0)
(-8.46518e-20 -9.87877e-16 0)
(-8.93415e-20 -9.87877e-16 0)
(-9.39228e-20 -9.87877e-16 0)
(-9.83924e-20 -9.87878e-16 0)
(-1.02748e-19 -9.87878e-16 0)
(-1.06989e-19 -9.87879e-16 0)
(-1.11117e-19 -9.87879e-16 0)
(-1.15139e-19 -9.8788e-16 0)
(-1.19064e-19 -9.87881e-16 0)
(-1.22912e-19 -9.87883e-16 0)
(-1.26707e-19 -9.87884e-16 0)
(-1.30488e-19 -9.87886e-16 0)
(-1.34302e-19 -9.87889e-16 0)
(-1.38212e-19 -9.87892e-16 0)
(-1.42287e-19 -9.87897e-16 0)
(-1.46595e-19 -9.87903e-16 0)
(-1.51177e-19 -9.8791e-16 0)
(-1.55998e-19 -9.87921e-16 0)
(-1.60848e-19 -9.87934e-16 0)
(-1.65143e-19 -9.87953e-16 0)
(-1.67576e-19 -9.87979e-16 0)
(-1.65455e-19 -9.88015e-16 0)
(-1.53519e-19 -9.88066e-16 0)
(-1.21813e-19 -9.88139e-16 0)
(-5.19317e-20 -9.92205e-16 0)
(-3.06093e-21 -9.87867e-16 0)
(-9.13107e-21 -9.87867e-16 0)
(-1.51007e-20 -9.87867e-16 0)
(-2.09751e-20 -9.87867e-16 0)
(-2.67592e-20 -9.87867e-16 0)
(-3.24569e-20 -9.87867e-16 0)
(-3.80716e-20 -9.87867e-16 0)
(-4.36059e-20 -9.87867e-16 0)
(-4.90616e-20 -9.87867e-16 0)
(-5.444e-20 -9.87867e-16 0)
(-5.97415e-20 -9.87867e-16 0)
(-6.49659e-20 -9.87867e-16 0)
(-7.01125e-20 -9.87867e-16 0)
(-7.51801e-20 -9.87867e-16 0)
(-8.01673e-20 -9.87867e-16 0)
(-8.50726e-20 -9.87868e-16 0)
(-8.98949e-20 -9.87868e-16 0)
(-9.46339e-20 -9.87868e-16 0)
(-9.92911e-20 -9.87869e-16 0)
(-1.03871e-19 -9.87869e-16 0)
(-1.08381e-19 -9.8787e-16 0)
(-1.12835e-19 -9.8787e-16 0)
(-1.17258e-19 -9.87871e-16 0)
(-1.21686e-19 -9.87872e-16 0)
(-1.2617e-19 -9.87873e-16 0)
(-1.30792e-19 -9.87875e-16 0)
(-1.35663e-19 -9.87876e-16 0)
(-1.40948e-19 -9.87878e-16 0)
(-1.46878e-19 -9.8788e-16 0)
(-1.53789e-19 -9.87883e-16 0)
(-1.62163e-19 -9.87886e-16 0)
(-1.72707e-19 -9.8789e-16 0)
(-1.8647e-19 -9.87894e-16 0)
(-2.05044e-19 -9.879e-16 0)
(-2.30889e-19 -9.87908e-16 0)
(-2.67894e-19 -9.87919e-16 0)
(-3.22315e-19 -9.87934e-16 0)
(-4.04394e-19 -9.87954e-16 0)
(-5.33551e-19 -9.87983e-16 0)
(-6.87486e-09 -7.43747e-13 0)
(-3.04766e-21 -9.87859e-16 0)
(-9.09218e-21 -9.87859e-16 0)
(-1.50386e-20 -9.87859e-16 0)
(-2.08935e-20 -9.87859e-16 0)
(-2.66628e-20 -9.87858e-16 0)
(-3.23517e-20 -9.87858e-16 0)
(-3.79648e-20 -9.87858e-16 0)
(-4.35059e-20 -9.87858e-16 0)
(-4.8978e-20 -9.87858e-16 0)
(-5.43837e-20 -9.87858e-16 0)
(-5.97246e-20 -9.87858e-16 0)
(-6.50021e-20 -9.87858e-16 0)
(-7.02166e-20 -9.87858e-16 0)
(-7.53682e-20 -9.87858e-16 0)
(-8.04566e-20 -9.87858e-16 0)
(-8.54814e-20 -9.87858e-16 0)
(-9.0442e-20 -9.87859e-16 0)
(-9.53387e-20 -9.87859e-16 0)
(-1.00173e-19 -9.87859e-16 0)
(-1.04947e-19 -9.8786e-16 0)
(-1.09667e-19 -9.8786e-16 0)
(-1.14345e-19 -9.87861e-16 0)
(-1.18999e-19 -9.87861e-16 0)
(-1.23657e-19 -9.87862e-16 0)
(-1.28361e-19 -9.87863e-16 0)
(-1.33174e-19 -9.87864e-16 0)
(-1.38184e-19 -9.87864e-16 0)
(-1.43517e-19 -9.87865e-16 0)
(-1.49347e-19 -9.87865e-16 0)
(-1.55909e-19 -9.87865e-16 0)
(-1.6352e-19 -9.87864e-16 0)
(-1.72593e-19 -9.87862e-16 0)
(-1.8366e-19 -9.87859e-16 0)
(-1.97371e-19 -9.87853e-16 0)
(-2.14478e-19 -9.87843e-16 0)
(-2.35753e-19 -9.87828e-16 0)
(-2.6177e-19 -9.87806e-16 0)
(-2.92441e-19 -9.8777e-16 0)
(-2.63927e-16 -9.87716e-16 0)
(-1.90837e-06 -1.20631e-10 0)
(-3.02823e-21 -9.8785e-16 0)
(-9.03496e-21 -9.8785e-16 0)
(-1.49464e-20 -9.8785e-16 0)
(-2.07706e-20 -9.8785e-16 0)
(-2.65147e-20 -9.8785e-16 0)
(-3.21853e-20 -9.87849e-16 0)
(-3.77881e-20 -9.87849e-16 0)
(-4.33284e-20 -9.87849e-16 0)
(-4.88107e-20 -9.87849e-16 0)
(-5.42388e-20 -9.87849e-16 0)
(-5.96161e-20 -9.87849e-16 0)
(-6.49449e-20 -9.87849e-16 0)
(-7.02272e-20 -9.87849e-16 0)
(-7.54642e-20 -9.87849e-16 0)
(-8.06561e-20 -9.87849e-16 0)
(-8.58025e-20 -9.87849e-16 0)
(-9.09023e-20 -9.87849e-16 0)
(-9.59532e-20 -9.87849e-16 0)
(-1.00952e-19 -9.87849e-16 0)
(-1.05896e-19 -9.8785e-16 0)
(-1.10779e-19 -9.8785e-16 0)
(-1.15597e-19 -9.87851e-16 0)
(-1.20344e-19 -9.87852e-16 0)
(-1.25014e-19 -9.87852e-16 0)
(-1.29603e-19 -9.87853e-16 0)
(-1.34106e-19 -9.87853e-16 0)
(-1.38517e-19 -9.87854e-16 0)
(-1.42833e-19 -9.87854e-16 0)
(-1.47046e-19 -9.87853e-16 0)
(-1.51142e-19 -9.87852e-16 0)
(-1.55086e-19 -9.87849e-16 0)
(-1.58809e-19 -9.87845e-16 0)
(-1.6217e-19 -9.87839e-16 0)
(-1.64902e-19 -9.8783e-16 0)
(-1.66525e-19 -9.87817e-16 0)
(-1.6621e-19 -9.87799e-16 0)
(-1.62583e-19 -9.87774e-16 0)
(-1.53452e-19 -9.87742e-16 0)
(-1.63709e-14 -9.87701e-16 0)
(-1.04239e-06 -4.44379e-10 0)
(-3.00103e-21 -9.87841e-16 0)
(-8.95462e-21 -9.87841e-16 0)
(-1.48161e-20 -9.87841e-16 0)
(-2.05949e-20 -9.87841e-16 0)
(-2.62995e-20 -9.87841e-16 0)
(-3.19378e-20 -9.87841e-16 0)
(-3.75171e-20 -9.8784e-16 0)
(-4.3044e-20 -9.8784e-16 0)
(-4.85246e-20 -9.8784e-16 0)
(-5.39644e-20 -9.8784e-16 0)
(-5.93683e-20 -9.8784e-16 0)
(-6.47404e-20 -9.87839e-16 0)
(-7.00842e-20 -9.87839e-16 0)
(-7.54024e-20 -9.87839e-16 0)
(-8.06963e-20 -9.87839e-16 0)
(-8.59662e-20 -9.87839e-16 0)
(-9.12103e-20 -9.87839e-16 0)
(-9.64248e-20 -9.87839e-16 0)
(-1.01603e-19 -9.87839e-16 0)
(-1.06734e-19 -9.8784e-16 0)
(-1.11802e-19 -9.8784e-16 0)
(-1.16786e-19 -9.87841e-16 0)
(-1.21656e-19 -9.87841e-16 0)
(-1.2637e-19 -9.87842e-16 0)
(-1.30874e-19 -9.87843e-16 0)
(-1.35097e-19 -9.87844e-16 0)
(-1.38944e-19 -9.87844e-16 0)
(-1.42295e-19 -9.87845e-16 0)
(-1.44994e-19 -9.87845e-16 0)
(-1.46841e-19 -9.87845e-16 0)
(-1.47587e-19 -9.87844e-16 0)
(-1.46916e-19 -9.87843e-16 0)
(-1.44441e-19 -9.8784e-16 0)
(-1.39688e-19 -9.87835e-16 0)
(-1.32095e-19 -9.87828e-16 0)
(-1.21008e-19 -9.87818e-16 0)
(-1.05709e-19 -9.87806e-16 0)
(-8.54717e-20 -9.87791e-16 0)
(-1.66573e-14 -9.87775e-16 0)
(-1.84081e-07 -6.92941e-10 0)
(-2.96445e-21 -9.87833e-16 0)
(-8.84623e-21 -9.87832e-16 0)
(-1.46393e-20 -9.87832e-16 0)
(-2.03543e-20 -9.87832e-16 0)
(-2.60011e-20 -9.87832e-16 0)
(-3.15889e-20 -9.87832e-16 0)
(-3.71264e-20 -9.87831e-16 0)
(-4.26218e-20 -9.87831e-16 0)
(-4.80827e-20 -9.87831e-16 0)
(-5.35164e-20 -9.87831e-16 0)
(-5.89298e-20 -9.8783e-16 0)
(-6.43292e-20 -9.8783e-16 0)
(-6.97205e-20 -9.8783e-16 0)
(-7.51084e-20 -9.87829e-16 0)
(-8.04972e-20 -9.87829e-16 0)
(-8.58892e-20 -9.87829e-16 0)
(-9.12853e-20 -9.87829e-16 0)
(-9.66833e-20 -9.87829e-16 0)
(-1.02078e-19 -9.87829e-16 0)
(-1.07458e-19 -9.87829e-16 0)
(-1.12806e-19 -9.87829e-16 0)
(-1.18096e-19 -9.8783e-16 0)
(-1.2329e-19 -9.87831e-16 0)
(-1.28332e-19 -9.87832e-16 0)
(-1.33146e-19 -9.87833e-16 0)
(-1.37632e-19 -9.87834e-16 0)
(-1.41652e-19 -9.87836e-16 0)
(-1.45028e-19 -9.87838e-16 0)
(-1.47529e-19 -9.8784e-16 0)
(-1.48867e-19 -9.87843e-16 0)
(-1.48684e-19 -9.87846e-16 0)
(-1.46553e-19 -9.87849e-16 0)
(-1.41976e-19 -9.87852e-16 0)
(-1.34406e-19 -9.87855e-16 0)
(-1.23272e-19 -9.87857e-16 0)
(-1.0804e-19 -9.87859e-16 0)
(-8.82923e-20 -9.87861e-16 0)
(-6.38346e-20 -9.87861e-16 0)
(-8.03988e-15 -9.87861e-16 0)
(-2.86017e-15 -7.48972e-10 0)
(-2.91695e-21 -9.87824e-16 0)
(-8.70517e-21 -9.87824e-16 0)
(-1.44081e-20 -9.87824e-16 0)
(-2.00375e-20 -9.87824e-16 0)
(-2.56043e-20 -9.87823e-16 0)
(-3.11189e-20 -9.87823e-16 0)
(-3.65913e-20 -9.87823e-16 0)
(-4.2031e-20 -9.87822e-16 0)
(-4.74475e-20 -9.87822e-16 0)
(-5.28497e-20 -9.87821e-16 0)
(-5.82468e-20 -9.87821e-16 0)
(-6.36476e-20 -9.8782e-16 0)
(-6.90608e-20 -9.8782e-16 0)
(-7.44948e-20 -9.87819e-16 0)
(-7.99579e-20 -9.87819e-16 0)
(-8.54574e-20 -9.87819e-16 0)
(-9.09997e-20 -9.87818e-16 0)
(-9.659e-20 -9.87818e-16 0)
(-1.02231e-19 -9.87818e-16 0)
(-1.07922e-19 -9.87818e-16 0)
(-1.13657e-19 -9.87818e-16 0)
(-1.19424e-19 -9.87818e-16 0)
(-1.25202e-19 -9.87819e-16 0)
(-1.30956e-19 -9.8782e-16 0)
(-1.36632e-19 -9.87821e-16 0)
(-1.42154e-19 -9.87823e-16 0)
(-1.47411e-19 -9.87826e-16 0)
(-1.52249e-19 -9.87829e-16 0)
(-1.56456e-19 -9.87833e-16 0)
(-1.59748e-19 -9.87839e-16 0)
(-1.61743e-19 -9.87845e-16 0)
(-1.61946e-19 -9.87854e-16 0)
(-1.59727e-19 -9.87864e-16 0)
(-1.54302e-19 -9.87876e-16 0)
(-1.44747e-19 -9.8789e-16 0)
(-1.30035e-19 -9.87906e-16 0)
(-1.09155e-19 -9.87924e-16 0)
(-8.13462e-20 -9.87942e-16 0)
(-1.18793e-14 -9.8796e-16 0)
(-7.08916e-15 -7.58001e-10 0)
(-2.85726e-21 -9.87816e-16 0)
(-8.52757e-21 -9.87816e-16 0)
(-1.41159e-20 -9.87815e-16 0)
(-1.96347e-20 -9.87815e-16 0)
(-2.50959e-20 -9.87815e-16 0)
(-3.05107e-20 -9.87814e-16 0)
(-3.58899e-20 -9.87814e-16 0)
(-4.12444e-20 -9.87813e-16 0)
(-4.65848e-20 -9.87813e-16 0)
(-5.1922e-20 -9.87812e-16 0)
(-5.7267e-20 -9.87812e-16 0)
(-6.26311e-20 -9.87811e-16 0)
(-6.80261e-20 -9.8781e-16 0)
(-7.34644e-20 -9.8781e-16 0)
(-7.89591e-20 -9.87809e-16 0)
(-8.45239e-20 -9.87808e-16 0)
(-9.01732e-20 -9.87807e-16 0)
(-9.59227e-20 -9.87807e-16 0)
(-1.01788e-19 -9.87806e-16 0)
(-1.07787e-19 -9.87806e-16 0)
(-1.13937e-19 -9.87806e-16 0)
(-1.20255e-19 -9.87806e-16 0)
(-1.2676e-19 -9.87806e-16 0)
(-1.33468e-19 -9.87806e-16 0)
(-1.40392e-19 -9.87807e-16 0)
(-1.4754e-19 -9.87809e-16 0)
(-1.54909e-19 -9.87811e-16 0)
(-1.62478e-19 -9.87815e-16 0)
(-1.70195e-19 -9.8782e-16 0)
(-1.77956e-19 -9.87826e-16 0)
(-1.85571e-19 -9.87835e-16 0)
(-1.9271e-19 -9.87846e-16 0)
(-1.98821e-19 -9.87861e-16 0)
(-2.03004e-19 -9.87881e-16 0)
(-2.03822e-19 -9.87908e-16 0)
(-1.99039e-19 -9.87941e-16 0)
(-1.85263e-19 -9.87984e-16 0)
(-1.57504e-19 -9.88036e-16 0)
(-3.34907e-14 -9.88104e-16 0)
(-3.08411e-14 -3.33644e-09 0)
(-2.78449e-21 -9.87808e-16 0)
(-8.3107e-21 -9.87807e-16 0)
(-1.3758e-20 -9.87807e-16 0)
(-1.91392e-20 -9.87807e-16 0)
(-2.44665e-20 -9.87807e-16 0)
(-2.97516e-20 -9.87806e-16 0)
(-3.50059e-20 -9.87805e-16 0)
(-4.02409e-20 -9.87805e-16 0)
(-4.5468e-20 -9.87804e-16 0)
(-5.06991e-20 -9.87803e-16 0)
(-5.59467e-20 -9.87802e-16 0)
(-6.12239e-20 -9.87802e-16 0)
(-6.6545e-20 -9.87801e-16 0)
(-7.19254e-20 -9.878e-16 0)
(-7.73822e-20 -9.87799e-16 0)
(-8.29347e-20 -9.87798e-16 0)
(-8.86046e-20 -9.87797e-16 0)
(-9.4417e-20 -9.87795e-16 0)
(-1.00401e-19 -9.87794e-16 0)
(-1.06591e-19 -9.87793e-16 0)
(-1.13029e-19 -9.87793e-16 0)
(-1.19764e-19 -9.87792e-16 0)
(-1.26858e-19 -9.87791e-16 0)
(-1.34385e-19 -9.87791e-16 0)
(-1.42442e-19 -9.8779e-16 0)
(-1.51149e-19 -9.87791e-16 0)
(-1.60658e-19 -9.87791e-16 0)
(-1.71164e-19 -9.87793e-16 0)
(-1.82918e-19 -9.87796e-16 0)
(-1.96235e-19 -9.87799e-16 0)
(-2.11511e-19 -9.87805e-16 0)
(-2.29227e-19 -9.87814e-16 0)
(-2.49933e-19 -9.87826e-16 0)
(-2.74195e-19 -9.87844e-16 0)
(-3.02438e-19 -9.87869e-16 0)
(-3.34602e-19 -9.87906e-16 0)
(-3.6942e-19 -9.87961e-16 0)
(-4.02981e-19 -9.88043e-16 0)
(-1.58279e-12 -3.81508e-15 0)
(3.24446e-08 -3.43662e-05 0)
(-2.69824e-21 -9.878e-16 0)
(-8.05338e-21 -9.878e-16 0)
(-1.33324e-20 -9.87799e-16 0)
(-1.85478e-20 -9.87799e-16 0)
(-2.37117e-20 -9.87798e-16 0)
(-2.88357e-20 -9.87798e-16 0)
(-3.39311e-20 -9.87797e-16 0)
(-3.90093e-20 -9.87796e-16 0)
(-4.40819e-20 -9.87796e-16 0)
(-4.91611e-20 -9.87795e-16 0)
(-5.42594e-20 -9.87794e-16 0)
(-5.93908e-20 -9.87792e-16 0)
(-6.457e-20 -9.87791e-16 0)
(-6.98138e-20 -9.8779e-16 0)
(-7.51408e-20 -9.87789e-16 0)
(-8.05726e-20 -9.87787e-16 0)
(-8.61341e-20 -9.87786e-16 0)
(-9.18545e-20 -9.87784e-16 0)
(-9.7769e-20 -9.87782e-16 0)
(-1.0392e-19 -9.87781e-16 0)
(-1.1036e-19 -9.87779e-16 0)
(-1.17152e-19 -9.87777e-16 0)
(-1.24379e-19 -9.87775e-16 0)
(-1.32143e-19 -9.87773e-16 0)
(-1.40578e-19 -9.87771e-16 0)
(-1.49859e-19 -9.87769e-16 0)
(-1.60217e-19 -9.87767e-16 0)
(-1.71966e-19 -9.87765e-16 0)
(-1.8554e-19 -9.87763e-16 0)
(-2.01546e-19 -9.87761e-16 0)
(-2.20863e-19 -9.87759e-16 0)
(-2.44787e-19 -9.87757e-16 0)
(-2.75278e-19 -9.87754e-16 0)
(-3.15383e-19 -9.8775e-16 0)
(-3.69939e-19 -9.87746e-16 0)
(-4.46784e-19 -9.87739e-16 0)
(-5.58844e-19 -9.87729e-16 0)
(-3.10828e-18 -9.87716e-16 0)
(-6.88294e-07 -1.18925e-09 0)
(-5.82782e-07 -0.00018678 0)
(-2.59872e-21 -9.87792e-16 0)
(-7.75619e-21 -9.87792e-16 0)
(-1.28399e-20 -9.87792e-16 0)
(-1.78617e-20 -9.87791e-16 0)
(-2.2833e-20 -9.87791e-16 0)
(-2.77645e-20 -9.8779e-16 0)
(-3.26669e-20 -9.87789e-16 0)
(-3.7551e-20 -9.87788e-16 0)
(-4.24275e-20 -9.87787e-16 0)
(-4.73076e-20 -9.87786e-16 0)
(-5.22032e-20 -9.87785e-16 0)
(-5.71268e-20 -9.87784e-16 0)
(-6.20923e-20 -9.87782e-16 0)
(-6.71148e-20 -9.87781e-16 0)
(-7.22113e-20 -9.87779e-16 0)
(-7.74014e-20 -9.87777e-16 0)
(-8.27073e-20 -9.87775e-16 0)
(-8.81552e-20 -9.87773e-16 0)
(-9.37757e-20 -9.87771e-16 0)
(-9.96056e-20 -9.87768e-16 0)
(-1.05689e-19 -9.87766e-16 0)
(-1.12078e-19 -9.87763e-16 0)
(-1.18837e-19 -9.8776e-16 0)
(-1.26044e-19 -9.87757e-16 0)
(-1.33795e-19 -9.87753e-16 0)
(-1.42204e-19 -9.87749e-16 0)
(-1.51411e-19 -9.87744e-16 0)
(-1.61582e-19 -9.87738e-16 0)
(-1.72909e-19 -9.87732e-16 0)
(-1.85606e-19 -9.87724e-16 0)
(-1.99889e-19 -9.87714e-16 0)
(-2.15932e-19 -9.87702e-16 0)
(-2.33774e-19 -9.87686e-16 0)
(-2.53117e-19 -9.87665e-16 0)
(-2.72956e-19 -9.87636e-16 0)
(-2.90856e-19 -9.87596e-16 0)
(-3.01604e-19 -9.87539e-16 0)
(-4.01957e-13 -9.87504e-16 0)
(-3.15417e-06 -1.90907e-08 0)
(-2.12297e-06 -0.000326316 0)
(-2.48672e-21 -9.87785e-16 0)
(-7.42155e-21 -9.87784e-16 0)
(-1.22847e-20 -9.87784e-16 0)
(-1.70868e-20 -9.87784e-16 0)
(-2.18379e-20 -9.87783e-16 0)
(-2.65477e-20 -9.87782e-16 0)
(-3.12255e-20 -9.87781e-16 0)
(-3.58807e-20 -9.8778e-16 0)
(-4.05224e-20 -9.87779e-16 0)
(-4.516e-20 -9.87778e-16 0)
(-4.98033e-20 -9.87777e-16 0)
(-5.44625e-20 -9.87775e-16 0)
(-5.91482e-20 -9.87773e-16 0)
(-6.38721e-20 -9.87772e-16 0)
(-6.86467e-20 -9.8777e-16 0)
(-7.34858e-20 -9.87767e-16 0)
(-7.84046e-20 -9.87765e-16 0)
(-8.34199e-20 -9.87763e-16 0)
(-8.85507e-20 -9.8776e-16 0)
(-9.38179e-20 -9.87757e-16 0)
(-9.92448e-20 -9.87754e-16 0)
(-1.04857e-19 -9.8775e-16 0)
(-1.10681e-19 -9.87746e-16 0)
(-1.16746e-19 -9.87742e-16 0)
(-1.23078e-19 -9.87737e-16 0)
(-1.29701e-19 -9.87731e-16 0)
(-1.36627e-19 -9.87725e-16 0)
(-1.43849e-19 -9.87717e-16 0)
(-1.5133e-19 -9.87709e-16 0)
(-1.58974e-19 -9.87698e-16 0)
(-1.66603e-19 -9.87686e-16 0)
(-1.73905e-19 -9.87672e-16 0)
(-1.80375e-19 -9.87655e-16 0)
(-1.85245e-19 -9.87634e-16 0)
(-1.87397e-19 -9.87609e-16 0)
(-1.85312e-19 -9.8758e-16 0)
(-1.77123e-19 -9.87548e-16 0)
(-3.75712e-12 -9.87753e-16 0)
(-2.13954e-06 -7.2723e-08 0)
(-1.43741e-06 -0.000359266 0)
(-2.3636e-21 -9.87778e-16 0)
(-7.05353e-21 -9.87777e-16 0)
(-1.16736e-20 -9.87777e-16 0)
(-1.62329e-20 -9.87777e-16 0)
(-2.07398e-20 -9.87776e-16 0)
(-2.52025e-20 -9.87775e-16 0)
(-2.96284e-20 -9.87774e-16 0)
(-3.40251e-20 -9.87773e-16 0)
(-3.83996e-20 -9.87772e-16 0)
(-4.27589e-20 -9.8777e-16 0)
(-4.711e-20 -9.87769e-16 0)
(-5.14597e-20 -9.87767e-16 0)
(-5.58146e-20 -9.87765e-16 0)
(-6.01816e-20 -9.87763e-16 0)
(-6.45673e-20 -9.87761e-16 0)
(-6.89781e-20 -9.87759e-16 0)
(-7.34202e-20 -9.87756e-16 0)
(-7.78991e-20 -9.87753e-16 0)
(-8.24197e-20 -9.8775e-16 0)
(-8.69854e-20 -9.87747e-16 0)
(-9.15973e-20 -9.87743e-16 0)
(-9.62533e-20 -9.87739e-16 0)
(-1.00946e-19 -9.87735e-16 0)
(-1.05662e-19 -9.8773e-16 0)
(-1.10376e-19 -9.87724e-16 0)
(-1.15049e-19 -9.87718e-16 0)
(-1.19621e-19 -9.87711e-16 0)
(-1.24003e-19 -9.87704e-16 0)
(-1.28072e-19 -9.87695e-16 0)
(-1.31655e-19 -9.87685e-16 0)
(-1.34518e-19 -9.87674e-16 0)
(-1.36358e-19 -9.87661e-16 0)
(-1.36792e-19 -9.87648e-16 0)
(-1.35359e-19 -9.87632e-16 0)
(-1.3154e-19 -9.87615e-16 0)
(-1.248e-19 -9.87598e-16 0)
(-1.14696e-19 -9.8758e-16 0)
(-7.94345e-12 -9.88234e-16 0)
(-1.47914e-06 -1.6471e-07 0)
(-9.36982e-07 -0.000378379 0)
(-2.23115e-21 -9.87771e-16 0)
(-6.65754e-21 -9.87771e-16 0)
(-1.10158e-20 -9.8777e-16 0)
(-1.53133e-20 -9.8777e-16 0)
(-1.95565e-20 -9.87769e-16 0)
(-2.37517e-20 -9.87768e-16 0)
(-2.79044e-20 -9.87767e-16 0)
(-3.20201e-20 -9.87766e-16 0)
(-3.61036e-20 -9.87765e-16 0)
(-4.01591e-20 -9.87763e-16 0)
(-4.41907e-20 -9.87762e-16 0)
(-4.82017e-20 -9.8776e-16 0)
(-5.21947e-20 -9.87758e-16 0)
(-5.61717e-20 -9.87756e-16 0)
(-6.01334e-20 -9.87753e-16 0)
(-6.40794e-20 -9.87751e-16 0)
(-6.80076e-20 -9.87748e-16 0)
(-7.19138e-20 -9.87745e-16 0)
(-7.57911e-20 -9.87742e-16 0)
(-7.96291e-20 -9.87738e-16 0)
(-8.34127e-20 -9.87735e-16 0)
(-8.71213e-20 -9.8773e-16 0)
(-9.0727e-20 -9.87726e-16 0)
(-9.41927e-20 -9.87721e-16 0)
(-9.74701e-20 -9.87716e-16 0)
(-1.00497e-19 -9.8771e-16 0)
(-1.03194e-19 -9.87703e-16 0)
(-1.05464e-19 -9.87696e-16 0)
(-1.07187e-19 -9.87689e-16 0)
(-1.08221e-19 -9.8768e-16 0)
(-1.084e-19 -9.87671e-16 0)
(-1.07538e-19 -9.87662e-16 0)
(-1.05441e-19 -9.87652e-16 0)
(-1.01911e-19 -9.87641e-16 0)
(-9.67757e-20 -9.8763e-16 0)
(-8.99107e-20 -9.87619e-16 0)
(-8.13105e-20 -9.87609e-16 0)
(-1.22111e-11 -9.88964e-16 0)
(-1.1219e-06 -2.88756e-07 0)
(-5.82375e-07 -0.00039208 0)
(-2.09144e-21 -9.87765e-16 0)
(-6.23984e-21 -9.87765e-16 0)
(-1.0322e-20 -9.87764e-16 0)
(-1.43433e-20 -9.87764e-16 0)
(-1.83083e-20 -9.87763e-16 0)
(-2.22215e-20 -9.87762e-16 0)
(-2.60864e-20 -9.87761e-16 0)
(-2.99065e-20 -9.8776e-16 0)
(-3.36842e-20 -9.87758e-16 0)
(-3.74216e-20 -9.87757e-16 0)
(-4.112e-20 -9.87755e-16 0)
(-4.47797e-20 -9.87753e-16 0)
(-4.83998e-20 -9.87751e-16 0)
(-5.19785e-20 -9.87749e-16 0)
(-5.55121e-20 -9.87746e-16 0)
(-5.89952e-20 -9.87744e-16 0)
(-6.24198e-20 -9.87741e-16 0)
(-6.57753e-20 -9.87738e-16 0)
(-6.90476e-20 -9.87735e-16 0)
(-7.22185e-20 -9.87731e-16 0)
(-7.52648e-20 -9.87728e-16 0)
(-7.81576e-20 -9.87724e-16 0)
(-8.08613e-20 -9.87719e-16 0)
(-8.33326e-20 -9.87715e-16 0)
(-8.55196e-20 -9.8771e-16 0)
(-8.73613e-20 -9.87705e-16 0)
(-8.87873e-20 -9.87699e-16 0)
(-8.97176e-20 -9.87693e-16 0)
(-9.00643e-20 -9.87687e-16 0)
(-8.97337e-20 -9.8768e-16 0)
(-8.86298e-20 -9.87674e-16 0)
(-8.66601e-20 -9.87667e-16 0)
(-8.37427e-20 -9.87659e-16 0)
(-7.98158e-20 -9.87652e-16 0)
(-7.48472e-20 -9.87645e-16 0)
(-6.88454e-20 -9.87639e-16 0)
(-6.19194e-20 -9.87633e-16 0)
(-1.63207e-11 -9.89983e-16 0)
(-9.01848e-07 -4.43429e-07 0)
(-3.04416e-07 -0.000403451 0)
(-1.94668e-21 -9.87759e-16 0)
(-5.80709e-21 -9.87759e-16 0)
(-9.60337e-21 -9.87758e-16 0)
(-1.33389e-20 -9.87758e-16 0)
(-1.70166e-20 -9.87757e-16 0)
(-2.0639e-20 -9.87756e-16 0)
(-2.42081e-20 -9.87755e-16 0)
(-2.77253e-20 -9.87754e-16 0)
(-3.11914e-20 -9.87752e-16 0)
(-3.46066e-20 -9.87751e-16 0)
(-3.797e-20 -9.87749e-16 0)
(-4.12799e-20 -9.87747e-16 0)
(-4.45332e-20 -9.87745e-16 0)
(-4.77256e-20 -9.87743e-16 0)
(-5.08508e-20 -9.8774e-16 0)
(-5.39008e-20 -9.87738e-16 0)
(-5.6865e-20 -9.87735e-16 0)
(-5.97301e-20 -9.87732e-16 0)
(-6.24795e-20 -9.87729e-16 0)
(-6.5093e-20 -9.87726e-16 0)
(-6.75459e-20 -9.87722e-16 0)
(-6.9809e-20 -9.87718e-16 0)
(-7.18478e-20 -9.87715e-16 0)
(-7.36224e-20 -9.8771e-16 0)
(-7.50873e-20 -9.87706e-16 0)
(-7.61916e-20 -9.87702e-16 0)
(-7.68797e-20 -9.87697e-16 0)
(-7.70923e-20 -9.87692e-16 0)
(-7.67686e-20 -9.87688e-16 0)
(-7.58487e-20 -9.87683e-16 0)
(-7.42776e-20 -9.87678e-16 0)
(-7.20093e-20 -9.87673e-16 0)
(-6.90127e-20 -9.87668e-16 0)
(-6.52767e-20 -9.87663e-16 0)
(-6.08166e-20 -9.87659e-16 0)
(-5.56783e-20 -9.87655e-16 0)
(-5.00112e-20 -9.87651e-16 0)
(-2.09409e-11 -9.91462e-16 0)
(-7.52675e-07 -6.41641e-07 0)
(-7.577e-08 -0.000413723 0)
(-1.79904e-21 -9.87754e-16 0)
(-5.36582e-21 -9.87753e-16 0)
(-8.87087e-21 -9.87753e-16 0)
(-1.23158e-20 -9.87752e-16 0)
(-1.57019e-20 -9.87752e-16 0)
(-1.90301e-20 -9.87751e-16 0)
(-2.2301e-20 -9.8775e-16 0)
(-2.55146e-20 -9.87748e-16 0)
(-2.86704e-20 -9.87747e-16 0)
(-3.17672e-20 -9.87745e-16 0)
(-3.4803e-20 -9.87744e-16 0)
(-3.77748e-20 -9.87742e-16 0)
(-4.06786e-20 -9.8774e-16 0)
(-4.35091e-20 -9.87737e-16 0)
(-4.62597e-20 -9.87735e-16 0)
(-4.89218e-20 -9.87732e-16 0)
(-5.1485e-20 -9.8773e-16 0)
(-5.39367e-20 -9.87727e-16 0)
(-5.62617e-20 -9.87724e-16 0)
(-5.8442e-20 -9.87721e-16 0)
(-6.04565e-20 -9.87718e-16 0)
(-6.22806e-20 -9.87714e-16 0)
(-6.38863e-20 -9.87711e-16 0)
(-6.52416e-20 -9.87707e-16 0)
(-6.63111e-20 -9.87704e-16 0)
(-6.70554e-20 -9.877e-16 0)
(-6.74323e-20 -9.87696e-16 0)
(-6.73969e-20 -9.87693e-16 0)
(-6.69031e-20 -9.87689e-16 0)
(-6.59049e-20 -9.87686e-16 0)
(-6.43589e-20 -9.87682e-16 0)
(-6.22275e-20 -9.87679e-16 0)
(-5.94822e-20 -9.87676e-16 0)
(-5.61095e-20 -9.87673e-16 0)
(-5.21163e-20 -9.87671e-16 0)
(-4.75375e-20 -9.87669e-16 0)
(-4.2538e-20 -9.87667e-16 0)
(-2.68875e-11 -9.9356e-16 0)
(-6.34884e-07 -8.89445e-07 0)
(1.41698e-07 -0.00042348 0)
(-1.65056e-21 -9.87749e-16 0)
(-4.92214e-21 -9.87748e-16 0)
(-8.1347e-21 -9.87748e-16 0)
(-1.12883e-20 -9.87747e-16 0)
(-1.43828e-20 -9.87747e-16 0)
(-1.7418e-20 -9.87746e-16 0)
(-2.03931e-20 -9.87745e-16 0)
(-2.33073e-20 -9.87743e-16 0)
(-2.61591e-20 -9.87742e-16 0)
(-2.89467e-20 -9.8774e-16 0)
(-3.16675e-20 -9.87739e-16 0)
(-3.43184e-20 -9.87737e-16 0)
(-3.68954e-20 -9.87735e-16 0)
(-3.93937e-20 -9.87733e-16 0)
(-4.18074e-20 -9.8773e-16 0)
(-4.41297e-20 -9.87728e-16 0)
(-4.63522e-20 -9.87725e-16 0)
(-4.84656e-20 -9.87723e-16 0)
(-5.04587e-20 -9.8772e-16 0)
(-5.23188e-20 -9.87717e-16 0)
(-5.40317e-20 -9.87714e-16 0)
(-5.55807e-20 -9.87711e-16 0)
(-5.69476e-20 -9.87708e-16 0)
(-5.81117e-20 -9.87705e-16 0)
(-5.90495e-20 -9.87702e-16 0)
(-5.9735e-20 -9.87699e-16 0)
(-6.01385e-20 -9.87696e-16 0)
(-6.02268e-20 -9.87693e-16 0)
(-5.99615e-20 -9.87691e-16 0)
(-5.92988e-20 -9.87688e-16 0)
(-5.81885e-20 -9.87686e-16 0)
(-5.65732e-20 -9.87685e-16 0)
(-5.43887e-20 -9.87683e-16 0)
(-5.1566e-20 -9.87682e-16 0)
(-4.80364e-20 -9.87682e-16 0)
(-4.37422e-20 -9.87681e-16 0)
(-3.87849e-20 -9.87681e-16 0)
(-3.39175e-11 -9.96641e-16 0)
(-5.26336e-07 -1.1974e-06 0)
(3.76334e-07 -0.000433059 0)
(-1.50306e-21 -9.87744e-16 0)
(-4.4815e-21 -9.87744e-16 0)
(-7.40393e-21 -9.87743e-16 0)
(-1.02691e-20 -9.87743e-16 0)
(-1.30756e-20 -9.87742e-16 0)
(-1.58223e-20 -9.87741e-16 0)
(-1.85075e-20 -9.8774e-16 0)
(-2.11298e-20 -9.87739e-16 0)
(-2.36871e-20 -9.87737e-16 0)
(-2.61774e-20 -9.87736e-16 0)
(-2.85983e-20 -9.87734e-16 0)
(-3.09468e-20 -9.87732e-16 0)
(-3.32198e-20 -9.8773e-16 0)
(-3.54139e-20 -9.87728e-16 0)
(-3.75249e-20 -9.87726e-16 0)
(-3.95486e-20 -9.87724e-16 0)
(-4.14802e-20 -9.87721e-16 0)
(-4.33147e-20 -9.87719e-16 0)
(-4.50465e-20 -9.87716e-16 0)
(-4.66702e-20 -9.87714e-16 0)
(-4.81798e-20 -9.87711e-16 0)
(-4.95693e-20 -9.87708e-16 0)
(-5.08327e-20 -9.87705e-16 0)
(-5.19633e-20 -9.87703e-16 0)
(-5.29541e-20 -9.877e-16 0)
(-5.37969e-20 -9.87697e-16 0)
(-5.44813e-20 -9.87695e-16 0)
(-5.49931e-20 -9.87693e-16 0)
(-5.53116e-20 -9.87691e-16 0)
(-5.54057e-20 -9.87689e-16 0)
(-5.52286e-20 -9.87688e-16 0)
(-5.4709e-20 -9.87688e-16 0)
(-5.37417e-20 -9.87688e-16 0)
(-5.2173e-20 -9.87689e-16 0)
(-4.97863e-20 -9.87691e-16 0)
(-4.62867e-20 -9.87693e-16 0)
(-4.15031e-20 -9.87697e-16 0)
(-4.94862e-11 -1.00275e-15 0)
(-4.35865e-07 -1.68158e-06 0)
(6.04456e-07 -0.000442693 0)
(-1.35813e-21 -9.8774e-16 0)
(-4.04863e-21 -9.8774e-16 0)
(-6.68635e-21 -9.87739e-16 0)
(-9.26886e-21 -9.87739e-16 0)
(-1.17939e-20 -9.87738e-16 0)
(-1.42593e-20 -9.87737e-16 0)
(-1.6663e-20 -9.87736e-16 0)
(-1.90028e-20 -9.87735e-16 0)
(-2.12767e-20 -9.87733e-16 0)
(-2.34825e-20 -9.87732e-16 0)
(-2.56181e-20 -9.8773e-16 0)
(-2.76814e-20 -9.87729e-16 0)
(-2.96701e-20 -9.87727e-16 0)
(-3.15823e-20 -9.87725e-16 0)
(-3.34162e-20 -9.87723e-16 0)
(-3.51702e-20 -9.8772e-16 0)
(-3.68431e-20 -9.87718e-16 0)
(-3.84345e-20 -9.87716e-16 0)
(-3.99447e-20 -9.87713e-16 0)
(-4.13751e-20 -9.87711e-16 0)
(-4.27286e-20 -9.87708e-16 0)
(-4.401e-20 -9.87705e-16 0)
(-4.52262e-20 -9.87703e-16 0)
(-4.63867e-20 -9.877e-16 0)
(-4.75041e-20 -9.87698e-16 0)
(-4.85943e-20 -9.87695e-16 0)
(-4.96766e-20 -9.87693e-16 0)
(-5.07734e-20 -9.87691e-16 0)
(-5.19089e-20 -9.87689e-16 0)
(-5.31069e-20 -9.87688e-16 0)
(-5.43853e-20 -9.87687e-16 0)
(-5.57472e-20 -9.87687e-16 0)
(-5.71642e-20 -9.87688e-16 0)
(-5.85475e-20 -9.8769e-16 0)
(-5.96982e-20 -9.87693e-16 0)
(-6.02219e-20 -9.87699e-16 0)
(-5.99559e-20 -9.87707e-16 0)
(-1.38973e-10 -1.03155e-15 0)
(-4.22796e-07 -3.59978e-06 0)
(6.79426e-07 -0.000452499 0)
(-1.21713e-21 -9.87736e-16 0)
(-3.62756e-21 -9.87736e-16 0)
(-5.98857e-21 -9.87736e-16 0)
(-8.29674e-21 -9.87735e-16 0)
(-1.0549e-20 -9.87734e-16 0)
(-1.27425e-20 -9.87733e-16 0)
(-1.48745e-20 -9.87732e-16 0)
(-1.69427e-20 -9.87731e-16 0)
(-1.89447e-20 -9.8773e-16 0)
(-2.08786e-20 -9.87729e-16 0)
(-2.27425e-20 -9.87727e-16 0)
(-2.45347e-20 -9.87725e-16 0)
(-2.62542e-20 -9.87723e-16 0)
(-2.79001e-20 -9.87722e-16 0)
(-2.94724e-20 -9.87719e-16 0)
(-3.09717e-20 -9.87717e-16 0)
(-3.23997e-20 -9.87715e-16 0)
(-3.37592e-20 -9.87713e-16 0)
(-3.50549e-20 -9.8771e-16 0)
(-3.62935e-20 -9.87708e-16 0)
(-3.74843e-20 -9.87705e-16 0)
(-3.86398e-20 -9.87703e-16 0)
(-3.97769e-20 -9.877e-16 0)
(-4.09175e-20 -9.87698e-16 0)
(-4.20904e-20 -9.87695e-16 0)
(-4.33327e-20 -9.87693e-16 0)
(-4.46928e-20 -9.8769e-16 0)
(-4.62332e-20 -9.87688e-16 0)
(-4.80359e-20 -9.87686e-16 0)
(-5.02085e-20 -9.87684e-16 0)
(-5.28944e-20 -9.87682e-16 0)
(-5.62871e-20 -9.8768e-16 0)
(-6.0651e-20 -9.8768e-16 0)
(-6.63546e-20 -9.8768e-16 0)
(-7.39186e-20 -9.87681e-16 0)
(-8.40923e-20 -9.87683e-16 0)
(-1.01644e-19 -9.87688e-16 0)
(-1.18573e-09 -1.3748e-15 0)
(-4.04182e-07 -1.4054e-05 0)
(7.78103e-07 -0.000462527 0)
(-1.08123e-21 -9.87733e-16 0)
(-3.22177e-21 -9.87733e-16 0)
(-5.31628e-21 -9.87732e-16 0)
(-7.36046e-21 -9.87732e-16 0)
(-9.3505e-21 -9.87731e-16 0)
(-1.12829e-20 -9.8773e-16 0)
(-1.31546e-20 -9.87729e-16 0)
(-1.49628e-20 -9.87728e-16 0)
(-1.67049e-20 -9.87727e-16 0)
(-1.8379e-20 -9.87726e-16 0)
(-1.99832e-20 -9.87724e-16 0)
(-2.15163e-20 -9.87722e-16 0)
(-2.29777e-20 -9.87721e-16 0)
(-2.43671e-20 -9.87719e-16 0)
(-2.56855e-20 -9.87717e-16 0)
(-2.69344e-20 -9.87715e-16 0)
(-2.81168e-20 -9.87713e-16 0)
(-2.92373e-20 -9.8771e-16 0)
(-3.03019e-20 -9.87708e-16 0)
(-3.13192e-20 -9.87706e-16 0)
(-3.23005e-20 -9.87703e-16 0)
(-3.32605e-20 -9.87701e-16 0)
(-3.4218e-20 -9.87698e-16 0)
(-3.51974e-20 -9.87695e-16 0)
(-3.62295e-20 -9.87693e-16 0)
(-3.73541e-20 -9.8769e-16 0)
(-3.86219e-20 -9.87687e-16 0)
(-4.00984e-20 -9.87684e-16 0)
(-4.18692e-20 -9.87681e-16 0)
(-4.40468e-20 -9.87678e-16 0)
(-4.67815e-20 -9.87674e-16 0)
(-5.02773e-20 -9.87671e-16 0)
(-5.48147e-20 -9.87667e-16 0)
(-6.07866e-20 -9.87662e-16 0)
(-6.87513e-20 -9.87657e-16 0)
(-7.95144e-20 -9.87651e-16 0)
(-1.31037e-19 -9.87642e-16 0)
(-1.05928e-08 -3.35108e-15 0)
(-3.98993e-07 -3.29794e-05 0)
(8.7043e-07 -0.000472828 0)
(-9.51436e-22 -9.8773e-16 0)
(-2.83428e-21 -9.8773e-16 0)
(-4.67439e-21 -9.87729e-16 0)
(-6.46675e-21 -9.87729e-16 0)
(-8.20683e-21 -9.87728e-16 0)
(-9.89059e-21 -9.87727e-16 0)
(-1.15144e-20 -9.87727e-16 0)
(-1.30751e-20 -9.87725e-16 0)
(-1.45698e-20 -9.87724e-16 0)
(-1.59963e-20 -9.87723e-16 0)
(-1.73526e-20 -9.87722e-16 0)
(-1.86374e-20 -9.8772e-16 0)
(-1.98499e-20 -9.87718e-16 0)
(-2.099e-20 -9.87717e-16 0)
(-2.20583e-20 -9.87715e-16 0)
(-2.30565e-20 -9.87713e-16 0)
(-2.39871e-20 -9.87711e-16 0)
(-2.48539e-20 -9.87709e-16 0)
(-2.56624e-20 -9.87706e-16 0)
(-2.64193e-20 -9.87704e-16 0)
(-2.71335e-20 -9.87702e-16 0)
(-2.7816e-20 -9.87699e-16 0)
(-2.848e-20 -9.87696e-16 0)
(-2.91418e-20 -9.87694e-16 0)
(-2.98206e-20 -9.87691e-16 0)