/*--------------------------------*- C++ -*----------------------------------*\
  =========                 |
  \\      /  F ield         | OpenFOAM: The Open Source CFD Toolbox
   \\    /   O peration     | Website:  https://openfoam.org
    \\  /    A nd           | Version:  10
     \\/     M anipulation  |
\*---------------------------------------------------------------------------*/
FoamFile
{
    format      ascii;
    class       volScalarField;
    location    "0.041";
    object      pPrime2Mean;
}
// * * * * * * * * * * * * * * * * * * * * * * * * * * * * * * * * * * * * * //

dimensions      [0 4 -4 0 0 0 0];

internalField   nonuniform List<scalar> 
12225
(
1.01975e+07
1.00358e+07
9.86925e+06
9.70835e+06
9.55356e+06
9.4045e+06
9.2608e+06
9.12207e+06
8.98788e+06
8.85776e+06
8.7312e+06
8.6076e+06
8.48624e+06
8.36621e+06
8.24624e+06
8.12435e+06
7.99702e+06
7.85526e+06
1.01978e+07
1.00359e+07
9.86934e+06
9.70844e+06
9.55366e+06
9.40461e+06
9.26093e+06
9.12222e+06
8.98806e+06
8.85799e+06
8.73149e+06
8.60797e+06
8.48674e+06
8.36691e+06
8.24727e+06
8.12603e+06
8.0002e+06
7.86317e+06
1.01981e+07
1.00361e+07
9.86953e+06
9.70865e+06
9.55388e+06
9.40486e+06
9.26121e+06
9.12256e+06
8.98847e+06
8.8585e+06
8.73213e+06
8.6088e+06
8.48784e+06
8.36844e+06
8.24951e+06
8.1296e+06
8.00659e+06
7.87791e+06
1.01985e+07
1.00364e+07
9.86985e+06
9.70898e+06
9.55424e+06
9.40526e+06
9.26169e+06
9.12312e+06
8.98915e+06
8.85933e+06
8.73318e+06
8.61016e+06
8.48965e+06
8.37092e+06
8.25309e+06
8.13512e+06
8.01592e+06
7.89561e+06
1.01989e+07
1.00369e+07
9.87032e+06
9.70947e+06
9.55478e+06
9.40586e+06
9.26238e+06
9.12394e+06
8.99015e+06
8.86056e+06
8.73473e+06
8.61214e+06
8.49225e+06
8.37445e+06
8.25809e+06
8.14256e+06
8.02761e+06
7.91471e+06
1.01996e+07
1.00375e+07
9.87097e+06
9.71016e+06
9.55552e+06
9.40669e+06
9.26334e+06
9.12507e+06
8.99151e+06
8.86224e+06
8.73682e+06
8.61482e+06
8.49574e+06
8.37913e+06
8.26455e+06
8.15176e+06
8.04113e+06
7.93449e+06
1.02004e+07
1.00384e+07
9.87184e+06
9.71106e+06
9.55649e+06
9.40779e+06
9.2646e+06
9.12656e+06
8.9933e+06
8.86443e+06
8.73955e+06
8.61827e+06
8.5002e+06
8.38499e+06
8.27242e+06
8.16256e+06
8.05604e+06
7.9546e+06
1.02014e+07
1.00395e+07
9.87296e+06
9.71222e+06
9.55775e+06
9.40919e+06
9.26621e+06
9.12846e+06
8.99558e+06
8.8672e+06
8.74298e+06
8.62257e+06
8.50566e+06
8.39205e+06
8.28166e+06
8.17474e+06
8.072e+06
7.97489e+06
1.02029e+07
1.00409e+07
9.87437e+06
9.71368e+06
9.55932e+06
9.41094e+06
9.26822e+06
9.13082e+06
8.9984e+06
8.87062e+06
8.74717e+06
8.62776e+06
8.51218e+06
8.40029e+06
8.29216e+06
8.1881e+06
8.08877e+06
7.99527e+06
1.02046e+07
1.00427e+07
9.87613e+06
9.71548e+06
9.56125e+06
9.41309e+06
9.27068e+06
9.13369e+06
9.00181e+06
8.87472e+06
8.75216e+06
8.63388e+06
8.51974e+06
8.40968e+06
8.3038e+06
8.20245e+06
8.10616e+06
8.01571e+06
1.02073e+07
1.00449e+07
9.87827e+06
9.71767e+06
9.56359e+06
9.41568e+06
9.27363e+06
9.13712e+06
9.00586e+06
8.87956e+06
8.75799e+06
8.64095e+06
8.52833e+06
8.42012e+06
8.31646e+06
8.21763e+06
8.12403e+06
8.03618e+06
1.02096e+07
1.00473e+07
9.88062e+06
9.72006e+06
9.56614e+06
9.4185e+06
9.27683e+06
9.14083e+06
9.01021e+06
8.88471e+06
8.76412e+06
8.64828e+06
8.53711e+06
8.4306e+06
8.32888e+06
8.23217e+06
8.14076e+06
8.05494e+06
1.0213e+07
1.00502e+07
9.88332e+06
9.72279e+06
9.56904e+06
9.42169e+06
9.28044e+06
9.14499e+06
9.01506e+06
8.89041e+06
8.77086e+06
8.65625e+06
8.54652e+06
8.44167e+06
8.34179e+06
8.24702e+06
8.15754e+06
8.07352e+06
1.02174e+07
1.0054e+07
9.88689e+06
9.72639e+06
9.57285e+06
9.42588e+06
9.28516e+06
9.15039e+06
9.02131e+06
8.8977e+06
8.77937e+06
8.6662e+06
8.5581e+06
8.45508e+06
8.35715e+06
8.26439e+06
8.17687e+06
8.09463e+06
1.02232e+07
1.00589e+07
9.89157e+06
9.73111e+06
9.57784e+06
9.43133e+06
9.29127e+06
9.15734e+06
9.02929e+06
8.90691e+06
8.79e+06
8.67844e+06
8.57214e+06
8.47105e+06
8.37515e+06
8.28441e+06
8.19882e+06
8.11832e+06
1.02301e+07
1.00652e+07
9.8976e+06
9.7372e+06
9.58427e+06
9.43835e+06
9.29908e+06
9.16616e+06
9.03932e+06
8.91833e+06
8.80302e+06
8.69323e+06
8.58883e+06
8.48973e+06
8.39585e+06
8.30709e+06
8.22335e+06
8.1445e+06
1.02385e+07
1.0073e+07
9.9051e+06
9.74486e+06
9.59238e+06
9.44717e+06
9.30884e+06
9.17708e+06
9.05161e+06
8.93217e+06
8.81857e+06
8.71062e+06
8.60816e+06
8.51104e+06
8.41911e+06
8.33222e+06
8.25021e+06
8.17289e+06
1.0248e+07
1.0082e+07
9.91409e+06
9.75413e+06
9.60223e+06
9.45787e+06
9.32062e+06
9.19015e+06
9.06615e+06
8.94834e+06
8.8365e+06
8.73039e+06
8.62981e+06
8.53456e+06
8.44445e+06
8.35927e+06
8.27883e+06
8.2029e+06
1.02582e+07
1.0092e+07
9.92419e+06
9.7647e+06
9.61354e+06
9.47016e+06
9.3341e+06
9.20499e+06
9.0825e+06
8.96631e+06
8.85617e+06
8.7518e+06
8.65296e+06
8.55942e+06
8.47092e+06
8.38725e+06
8.30818e+06
8.23346e+06
1.02655e+07
1.00995e+07
9.93209e+06
9.77318e+06
9.62277e+06
9.48024e+06
9.34516e+06
9.21711e+06
9.09574e+06
8.98074e+06
8.8718e+06
8.76864e+06
8.67098e+06
8.57857e+06
8.49114e+06
8.40846e+06
8.33026e+06
8.25633e+06
1.02687e+07
1.01037e+07
9.93702e+06
9.77872e+06
9.62891e+06
9.48703e+06
9.35262e+06
9.22528e+06
9.10466e+06
8.99041e+06
8.88222e+06
8.7798e+06
8.68287e+06
8.59113e+06
8.50435e+06
8.42225e+06
8.34458e+06
8.27112e+06
1.02713e+07
1.01065e+07
9.94038e+06
9.78261e+06
9.63332e+06
9.49195e+06
9.35805e+06
9.23124e+06
9.11114e+06
8.99743e+06
8.88976e+06
8.78786e+06
8.69141e+06
8.60014e+06
8.51379e+06
8.43208e+06
8.35477e+06
8.28161e+06
1.02714e+07
1.0108e+07
9.94255e+06
9.78528e+06
9.63642e+06
9.49545e+06
9.36194e+06
9.23551e+06
9.11579e+06
9.00245e+06
8.89515e+06
8.7936e+06
8.69749e+06
8.60654e+06
8.52047e+06
8.43903e+06
8.36196e+06
8.28901e+06
1.02719e+07
1.01089e+07
9.94394e+06
9.78709e+06
9.63857e+06
9.4979e+06
9.36467e+06
9.23852e+06
9.11907e+06
9.00598e+06
8.89894e+06
8.79763e+06
8.70175e+06
8.61102e+06
8.52515e+06
8.44389e+06
8.36698e+06
8.29417e+06
1.02719e+07
1.01094e+07
9.94481e+06
9.78828e+06
9.64002e+06
9.49958e+06
9.36656e+06
9.24059e+06
9.12132e+06
9.00842e+06
8.90155e+06
8.80041e+06
8.70468e+06
8.6141e+06
8.52836e+06
8.44723e+06
8.37042e+06
8.29772e+06
1.0271e+07
1.01094e+07
9.94533e+06
9.78906e+06
9.64099e+06
9.5007e+06
9.36782e+06
9.24198e+06
9.12284e+06
9.01006e+06
8.90331e+06
8.80227e+06
8.70665e+06
8.61616e+06
8.53052e+06
8.44946e+06
8.37273e+06
8.30008e+06
1.02704e+07
1.01094e+07
9.94563e+06
9.78955e+06
9.6416e+06
9.50142e+06
9.36863e+06
9.24288e+06
9.12382e+06
9.01112e+06
8.90444e+06
8.80347e+06
8.70792e+06
8.61749e+06
8.5319e+06
8.4509e+06
8.37421e+06
8.30161e+06
1.02701e+07
1.01094e+07
9.94581e+06
9.78983e+06
9.64197e+06
9.50186e+06
9.36912e+06
9.24343e+06
9.12442e+06
9.01176e+06
8.90512e+06
8.8042e+06
8.70869e+06
8.61829e+06
8.53274e+06
8.45177e+06
8.37511e+06
8.30253e+06
1.027e+07
1.01094e+07
9.9459e+06
9.78999e+06
9.64217e+06
9.50209e+06
9.36939e+06
9.24372e+06
9.12474e+06
9.0121e+06
8.90549e+06
8.80459e+06
8.7091e+06
8.61873e+06
8.5332e+06
8.45224e+06
8.37559e+06
8.30303e+06
1.027e+07
1.01094e+07
9.94593e+06
9.79005e+06
9.64225e+06
9.50218e+06
9.3695e+06
9.24384e+06
9.12486e+06
9.01224e+06
8.90564e+06
8.80475e+06
8.70927e+06
8.6189e+06
8.53338e+06
8.45243e+06
8.37579e+06
8.30323e+06
6.63959e+06
6.63907e+06
6.63801e+06
6.63639e+06
6.63422e+06
6.63147e+06
6.62814e+06
6.62422e+06
6.61972e+06
6.61463e+06
6.60893e+06
6.60262e+06
6.59569e+06
6.58813e+06
6.57995e+06
6.57113e+06
6.56167e+06
6.55157e+06
6.54084e+06
6.52947e+06
6.51747e+06
6.50484e+06
6.49158e+06
6.47771e+06
6.46322e+06
6.44813e+06
6.43244e+06
6.41616e+06
6.39928e+06
6.38181e+06
6.36376e+06
6.34515e+06
6.32597e+06
6.30624e+06
6.28596e+06
6.26514e+06
6.24379e+06
6.22192e+06
6.19956e+06
6.17669e+06
6.15332e+06
6.12946e+06
6.1051e+06
6.08026e+06
6.05494e+06
6.02916e+06
6.00292e+06
5.97623e+06
5.9491e+06
5.92154e+06
5.89356e+06
5.86518e+06
5.8364e+06
5.80723e+06
5.77769e+06
5.74777e+06
5.71749e+06
5.68686e+06
5.65587e+06
5.62454e+06
5.59286e+06
5.56085e+06
5.52851e+06
5.49584e+06
5.46286e+06
5.42955e+06
5.39594e+06
5.36201e+06
5.32778e+06
5.29326e+06
5.25845e+06
5.22335e+06
5.18797e+06
5.15232e+06
5.11641e+06
5.08025e+06
5.04384e+06
5.00719e+06
4.97031e+06
4.9332e+06
4.89587e+06
4.85833e+06
4.82058e+06
4.78263e+06
4.74448e+06
4.70613e+06
4.66759e+06
4.62887e+06
4.58996e+06
4.55088e+06
4.51162e+06
4.47219e+06
4.4326e+06
4.39284e+06
4.35292e+06
4.31285e+06
4.27263e+06
4.23226e+06
4.19175e+06
4.1511e+06
4.11032e+06
4.0694e+06
4.02835e+06
3.98717e+06
3.94587e+06
3.90444e+06
3.8629e+06
3.82124e+06
3.77948e+06
3.7376e+06
3.69563e+06
3.65355e+06
3.61138e+06
3.56912e+06
3.52677e+06
3.48433e+06
3.44182e+06
3.39923e+06
3.35657e+06
3.31385e+06
3.27106e+06
3.22821e+06
3.18531e+06
3.14237e+06
3.09937e+06
3.05634e+06
3.01327e+06
2.97018e+06
2.92706e+06
2.88391e+06
2.84076e+06
2.79759e+06
2.75442e+06
2.71125e+06
2.66809e+06
2.62494e+06
2.58181e+06
2.53871e+06
2.49563e+06
2.45259e+06
2.40959e+06
2.36665e+06
2.32376e+06
2.28093e+06
2.23817e+06
2.19549e+06
2.15289e+06
2.11038e+06
2.06797e+06
2.02566e+06
1.98347e+06
1.94139e+06
1.89945e+06
1.85765e+06
1.81599e+06
1.77448e+06
1.73314e+06
1.69197e+06
1.65098e+06
1.61018e+06
1.56958e+06
1.52919e+06
1.48903e+06
1.4491e+06
1.40941e+06
1.36997e+06
1.3308e+06
1.29192e+06
1.25332e+06
1.21504e+06
1.17707e+06
1.13946e+06
1.1022e+06
1.06533e+06
1.02888e+06
992875
957372
922441
888205
854933
6.64201e+06
6.64149e+06
6.64042e+06
6.63879e+06
6.6366e+06
6.63383e+06
6.63049e+06
6.62656e+06
6.62203e+06
6.61691e+06
6.61119e+06
6.60484e+06
6.59788e+06
6.59028e+06
6.58206e+06
6.57319e+06
6.56369e+06
6.55355e+06
6.54277e+06
6.53135e+06
6.5193e+06
6.50661e+06
6.4933e+06
6.47938e+06
6.46484e+06
6.4497e+06
6.43395e+06
6.41761e+06
6.40068e+06
6.38317e+06
6.36509e+06
6.34644e+06
6.32722e+06
6.30746e+06
6.28714e+06
6.26628e+06
6.24488e+06
6.22298e+06
6.20057e+06
6.17766e+06
6.15424e+06
6.13033e+06
6.10593e+06
6.08105e+06
6.0557e+06
6.02988e+06
6.0036e+06
5.97689e+06
5.94973e+06
5.92214e+06
5.89413e+06
5.86572e+06
5.83692e+06
5.80773e+06
5.77816e+06
5.74822e+06
5.71792e+06
5.68726e+06
5.65625e+06
5.62489e+06
5.5932e+06
5.56117e+06
5.52881e+06
5.49613e+06
5.46313e+06
5.42981e+06
5.39618e+06
5.36224e+06
5.328e+06
5.29346e+06
5.25863e+06
5.22352e+06
5.18813e+06
5.15248e+06
5.11656e+06
5.08038e+06
5.04396e+06
5.0073e+06
4.97041e+06
4.9333e+06
4.89597e+06
4.85842e+06
4.82067e+06
4.78271e+06
4.74455e+06
4.7062e+06
4.66766e+06
4.62893e+06
4.59002e+06
4.55093e+06
4.51167e+06
4.47224e+06
4.43264e+06
4.39288e+06
4.35296e+06
4.31289e+06
4.27266e+06
4.23229e+06
4.19178e+06
4.15113e+06
4.11034e+06
4.06942e+06
4.02837e+06
3.98719e+06
3.94588e+06
3.90446e+06
3.86291e+06
3.82126e+06
3.77949e+06
3.73761e+06
3.69564e+06
3.65356e+06
3.61139e+06
3.56912e+06
3.52677e+06
3.48434e+06
3.44182e+06
3.39924e+06
3.35658e+06
3.31385e+06
3.27106e+06
3.22822e+06
3.18532e+06
3.14237e+06
3.09938e+06
3.05634e+06
3.01328e+06
2.97018e+06
2.92706e+06
2.88392e+06
2.84076e+06
2.79759e+06
2.75442e+06
2.71125e+06
2.66809e+06
2.62494e+06
2.58181e+06
2.53871e+06
2.49563e+06
2.45259e+06
2.40959e+06
2.36665e+06
2.32376e+06
2.28093e+06
2.23817e+06
2.19549e+06
2.15289e+06
2.11038e+06
2.06797e+06
2.02566e+06
1.98347e+06
1.94139e+06
1.89945e+06
1.85765e+06
1.81599e+06
1.77448e+06
1.73314e+06
1.69197e+06
1.65098e+06
1.61018e+06
1.56958e+06
1.52919e+06
1.48903e+06
1.44909e+06
1.4094e+06
1.36997e+06
1.3308e+06
1.29191e+06
1.25332e+06
1.21503e+06
1.17707e+06
1.13945e+06
1.10219e+06
1.06532e+06
1.02886e+06
992847
957331
922377
888090
854660
6.64682e+06
6.64628e+06
6.6452e+06
6.64355e+06
6.64135e+06
6.63856e+06
6.63519e+06
6.63123e+06
6.62667e+06
6.6215e+06
6.61571e+06
6.60931e+06
6.60227e+06
6.5946e+06
6.58629e+06
6.57734e+06
6.56775e+06
6.55751e+06
6.54663e+06
6.53511e+06
6.52295e+06
6.51016e+06
6.49675e+06
6.48272e+06
6.46807e+06
6.45282e+06
6.43696e+06
6.42052e+06
6.40349e+06
6.38588e+06
6.3677e+06
6.34896e+06
6.32966e+06
6.30981e+06
6.28941e+06
6.26846e+06
6.247e+06
6.22501e+06
6.20252e+06
6.17953e+06
6.15604e+06
6.13205e+06
6.10757e+06
6.08261e+06
6.05719e+06
6.0313e+06
6.00496e+06
5.97818e+06
5.95096e+06
5.92332e+06
5.89526e+06
5.86679e+06
5.83793e+06
5.80869e+06
5.77907e+06
5.74908e+06
5.71873e+06
5.68803e+06
5.65697e+06
5.62558e+06
5.59385e+06
5.56178e+06
5.52939e+06
5.49668e+06
5.46365e+06
5.4303e+06
5.39665e+06
5.36269e+06
5.32842e+06
5.29386e+06
5.25901e+06
5.22387e+06
5.18846e+06
5.15278e+06
5.11684e+06
5.08065e+06
5.04421e+06
5.00753e+06
4.97063e+06
4.9335e+06
4.89615e+06
4.8586e+06
4.82083e+06
4.78286e+06
4.7447e+06
4.70634e+06
4.66779e+06
4.62905e+06
4.59013e+06
4.55104e+06
4.51177e+06
4.47233e+06
4.43273e+06
4.39296e+06
4.35303e+06
4.31295e+06
4.27272e+06
4.23235e+06
4.19183e+06
4.15118e+06
4.11038e+06
4.06946e+06
4.0284e+06
3.98722e+06
3.94591e+06
3.90448e+06
3.86294e+06
3.82128e+06
3.77951e+06
3.73763e+06
3.69565e+06
3.65358e+06
3.6114e+06
3.56914e+06
3.52679e+06
3.48435e+06
3.44184e+06
3.39925e+06
3.35659e+06
3.31386e+06
3.27107e+06
3.22822e+06
3.18532e+06
3.14237e+06
3.09938e+06
3.05635e+06
3.01328e+06
2.97018e+06
2.92706e+06
2.88392e+06
2.84076e+06
2.79759e+06
2.75442e+06
2.71126e+06
2.66809e+06
2.62494e+06
2.58181e+06
2.53871e+06
2.49563e+06
2.45259e+06
2.4096e+06
2.36665e+06
2.32376e+06
2.28093e+06
2.23817e+06
2.19549e+06
2.15289e+06
2.11038e+06
2.06797e+06
2.02566e+06
1.98347e+06
1.94139e+06
1.89945e+06
1.85765e+06
1.81599e+06
1.77448e+06
1.73314e+06
1.69197e+06
1.65098e+06
1.61018e+06
1.56958e+06
1.52919e+06
1.48903e+06
1.44909e+06
1.4094e+06
1.36997e+06
1.3308e+06
1.29191e+06
1.25331e+06
1.21502e+06
1.17706e+06
1.13943e+06
1.10217e+06
1.06529e+06
1.02882e+06
992792
957251
922254
887881
854237
6.65408e+06
6.65353e+06
6.65242e+06
6.65075e+06
6.64852e+06
6.6457e+06
6.64228e+06
6.63826e+06
6.63363e+06
6.62838e+06
6.62251e+06
6.61599e+06
6.60884e+06
6.60105e+06
6.59261e+06
6.58353e+06
6.57379e+06
6.56341e+06
6.55238e+06
6.54071e+06
6.5284e+06
6.51546e+06
6.50189e+06
6.4877e+06
6.4729e+06
6.45749e+06
6.44148e+06
6.42488e+06
6.40769e+06
6.38993e+06
6.3716e+06
6.35271e+06
6.33326e+06
6.31327e+06
6.29274e+06
6.27167e+06
6.25009e+06
6.22799e+06
6.20539e+06
6.18228e+06
6.15867e+06
6.13457e+06
6.10999e+06
6.08492e+06
6.0594e+06
6.03341e+06
6.00698e+06
5.9801e+06
5.95279e+06
5.92505e+06
5.89691e+06
5.86836e+06
5.83942e+06
5.8101e+06
5.7804e+06
5.75034e+06
5.71993e+06
5.68916e+06
5.65804e+06
5.62659e+06
5.59481e+06
5.56269e+06
5.53026e+06
5.4975e+06
5.46443e+06
5.43104e+06
5.39735e+06
5.36335e+06
5.32905e+06
5.29445e+06
5.25956e+06
5.2244e+06
5.18895e+06
5.15324e+06
5.11727e+06
5.08104e+06
5.04458e+06
5.00788e+06
4.97095e+06
4.9338e+06
4.89643e+06
4.85886e+06
4.82108e+06
4.78309e+06
4.74491e+06
4.70654e+06
4.66798e+06
4.62923e+06
4.5903e+06
4.5512e+06
4.51192e+06
4.47247e+06
4.43286e+06
4.39308e+06
4.35314e+06
4.31305e+06
4.27282e+06
4.23243e+06
4.19191e+06
4.15125e+06
4.11045e+06
4.06952e+06
4.02846e+06
3.98727e+06
3.94596e+06
3.90453e+06
3.86298e+06
3.82132e+06
3.77954e+06
3.73766e+06
3.69568e+06
3.6536e+06
3.61143e+06
3.56916e+06
3.52681e+06
3.48437e+06
3.44185e+06
3.39926e+06
3.3566e+06
3.31387e+06
3.27108e+06
3.22823e+06
3.18533e+06
3.14238e+06
3.09939e+06
3.05635e+06
3.01329e+06
2.97019e+06
2.92707e+06
2.88392e+06
2.84077e+06
2.7976e+06
2.75443e+06
2.71126e+06
2.6681e+06
2.62495e+06
2.58182e+06
2.53871e+06
2.49563e+06
2.45259e+06
2.4096e+06
2.36665e+06
2.32376e+06
2.28093e+06
2.23817e+06
2.19549e+06
2.15289e+06
2.11038e+06
2.06797e+06
2.02566e+06
1.98347e+06
1.9414e+06
1.89945e+06
1.85765e+06
1.81599e+06
1.77448e+06
1.73314e+06
1.69196e+06
1.65098e+06
1.61018e+06
1.56958e+06
1.52919e+06
1.48902e+06
1.44909e+06
1.4094e+06
1.36996e+06
1.33079e+06
1.2919e+06
1.2533e+06
1.21501e+06
1.17704e+06
1.13941e+06
1.10214e+06
1.06524e+06
1.02876e+06
992712
957137
922083
887604
853745
6.66383e+06
6.66326e+06
6.66213e+06
6.66044e+06
6.65816e+06
6.65528e+06
6.65179e+06
6.64768e+06
6.64294e+06
6.63757e+06
6.63156e+06
6.62491e+06
6.6176e+06
6.60965e+06
6.60103e+06
6.59176e+06
6.58184e+06
6.57126e+06
6.56003e+06
6.54816e+06
6.53565e+06
6.5225e+06
6.50872e+06
6.49432e+06
6.47931e+06
6.46369e+06
6.44748e+06
6.43067e+06
6.41328e+06
6.39532e+06
6.37679e+06
6.3577e+06
6.33806e+06
6.31788e+06
6.29717e+06
6.27593e+06
6.25418e+06
6.23192e+06
6.20915e+06
6.18589e+06
6.16214e+06
6.13789e+06
6.11317e+06
6.08798e+06
6.06231e+06
6.0362e+06
6.00963e+06
5.98263e+06
5.95519e+06
5.92734e+06
5.89908e+06
5.87042e+06
5.84137e+06
5.81195e+06
5.78216e+06
5.752e+06
5.7215e+06
5.69064e+06
5.65945e+06
5.62792e+06
5.59607e+06
5.56389e+06
5.53139e+06
5.49858e+06
5.46545e+06
5.43201e+06
5.39827e+06
5.36422e+06
5.32987e+06
5.29523e+06
5.2603e+06
5.22508e+06
5.18959e+06
5.15384e+06
5.11782e+06
5.08156e+06
5.04506e+06
5.00833e+06
4.97137e+06
4.93419e+06
4.8968e+06
4.8592e+06
4.8214e+06
4.78339e+06
4.7452e+06
4.70681e+06
4.66823e+06
4.62947e+06
4.59053e+06
4.55141e+06
4.51212e+06
4.47266e+06
4.43303e+06
4.39324e+06
4.35329e+06
4.31319e+06
4.27294e+06
4.23255e+06
4.19201e+06
4.15134e+06
4.11054e+06
4.0696e+06
4.02853e+06
3.98734e+06
3.94602e+06
3.90459e+06
3.86303e+06
3.82137e+06
3.77959e+06
3.73771e+06
3.69572e+06
3.65364e+06
3.61146e+06
3.56919e+06
3.52683e+06
3.48439e+06
3.44187e+06
3.39928e+06
3.35662e+06
3.31389e+06
3.2711e+06
3.22825e+06
3.18534e+06
3.14239e+06
3.0994e+06
3.05636e+06
3.01329e+06
2.9702e+06
2.92707e+06
2.88393e+06
2.84077e+06
2.7976e+06
2.75443e+06
2.71126e+06
2.6681e+06
2.62495e+06
2.58182e+06
2.53871e+06
2.49563e+06
2.4526e+06
2.4096e+06
2.36665e+06
2.32376e+06
2.28093e+06
2.23817e+06
2.19549e+06
2.15289e+06
2.11038e+06
2.06797e+06
2.02566e+06
1.98347e+06
1.9414e+06
1.89945e+06
1.85765e+06
1.81599e+06
1.77448e+06
1.73314e+06
1.69196e+06
1.65097e+06
1.61017e+06
1.56958e+06
1.52919e+06
1.48902e+06
1.44908e+06
1.40939e+06
1.36995e+06
1.33078e+06
1.29188e+06
1.25328e+06
1.21499e+06
1.17701e+06
1.13937e+06
1.10209e+06
1.06519e+06
1.02869e+06
992609
956993
921872
887282
853228
6.67615e+06
6.67556e+06
6.6744e+06
6.67266e+06
6.67031e+06
6.66734e+06
6.66374e+06
6.65951e+06
6.65464e+06
6.64912e+06
6.64294e+06
6.6361e+06
6.6286e+06
6.62043e+06
6.6116e+06
6.6021e+06
6.59193e+06
6.5811e+06
6.56962e+06
6.55749e+06
6.54471e+06
6.5313e+06
6.51726e+06
6.50259e+06
6.48731e+06
6.47143e+06
6.45496e+06
6.43789e+06
6.42025e+06
6.40203e+06
6.38325e+06
6.36392e+06
6.34404e+06
6.32363e+06
6.30269e+06
6.28124e+06
6.25928e+06
6.23681e+06
6.21385e+06
6.19039e+06
6.16644e+06
6.14202e+06
6.11712e+06
6.09176e+06
6.06593e+06
6.03965e+06
6.01292e+06
5.98575e+06
5.95816e+06
5.93016e+06
5.90175e+06
5.87295e+06
5.84378e+06
5.81423e+06
5.78431e+06
5.75405e+06
5.72343e+06
5.69247e+06
5.66119e+06
5.62957e+06
5.59763e+06
5.56537e+06
5.53279e+06
5.49991e+06
5.46671e+06
5.43321e+06
5.39941e+06
5.3653e+06
5.33089e+06
5.29619e+06
5.2612e+06
5.22593e+06
5.19039e+06
5.15458e+06
5.11852e+06
5.0822e+06
5.04566e+06
5.00888e+06
4.97188e+06
4.93467e+06
4.89725e+06
4.85962e+06
4.82179e+06
4.78377e+06
4.74555e+06
4.70714e+06
4.66854e+06
4.62976e+06
4.5908e+06
4.55167e+06
4.51236e+06
4.47289e+06
4.43325e+06
4.39344e+06
4.35347e+06
4.31336e+06
4.27309e+06
4.23269e+06
4.19214e+06
4.15146e+06
4.11065e+06
4.0697e+06
4.02863e+06
3.98742e+06
3.9461e+06
3.90466e+06
3.8631e+06
3.82143e+06
3.77964e+06
3.73776e+06
3.69577e+06
3.65368e+06
3.6115e+06
3.56922e+06
3.52686e+06
3.48442e+06
3.4419e+06
3.39931e+06
3.35664e+06
3.31391e+06
3.27111e+06
3.22826e+06
3.18536e+06
3.14241e+06
3.09941e+06
3.05638e+06
3.0133e+06
2.9702e+06
2.92708e+06
2.88394e+06
2.84078e+06
2.79761e+06
2.75444e+06
2.71127e+06
2.6681e+06
2.62495e+06
2.58182e+06
2.53871e+06
2.49564e+06
2.4526e+06
2.4096e+06
2.36665e+06
2.32376e+06
2.28093e+06
2.23817e+06
2.19549e+06
2.15289e+06
2.11038e+06
2.06797e+06
2.02566e+06
1.98347e+06
1.9414e+06
1.89945e+06
1.85765e+06
1.81599e+06
1.77448e+06
1.73313e+06
1.69196e+06
1.65097e+06
1.61017e+06
1.56957e+06
1.52918e+06
1.48902e+06
1.44908e+06
1.40938e+06
1.36994e+06
1.33077e+06
1.29187e+06
1.25326e+06
1.21496e+06
1.17698e+06
1.13933e+06
1.10204e+06
1.06512e+06
1.0286e+06
992488
956825
921633
886931
852706
6.69113e+06
6.69052e+06
6.68931e+06
6.68748e+06
6.68503e+06
6.68195e+06
6.67821e+06
6.67382e+06
6.66877e+06
6.66306e+06
6.65667e+06
6.64961e+06
6.64186e+06
6.63344e+06
6.62433e+06
6.61454e+06
6.60408e+06
6.59295e+06
6.58115e+06
6.5687e+06
6.5556e+06
6.54187e+06
6.5275e+06
6.5125e+06
6.4969e+06
6.4807e+06
6.4639e+06
6.44652e+06
6.42857e+06
6.41005e+06
6.39097e+06
6.37134e+06
6.35118e+06
6.33049e+06
6.30929e+06
6.28757e+06
6.26536e+06
6.24264e+06
6.21944e+06
6.19575e+06
6.17159e+06
6.14695e+06
6.12184e+06
6.09627e+06
6.07024e+06
6.04376e+06
6.01684e+06
5.98948e+06
5.9617e+06
5.93352e+06
5.90493e+06
5.87597e+06
5.84663e+06
5.81693e+06
5.78687e+06
5.75647e+06
5.72572e+06
5.69464e+06
5.66324e+06
5.63151e+06
5.59947e+06
5.56712e+06
5.53445e+06
5.50149e+06
5.46821e+06
5.43464e+06
5.40076e+06
5.36659e+06
5.33211e+06
5.29734e+06
5.26229e+06
5.22695e+06
5.19134e+06
5.15547e+06
5.11934e+06
5.08297e+06
5.04636e+06
5.00954e+06
4.97249e+06
4.93524e+06
4.89778e+06
4.86012e+06
4.82226e+06
4.7842e+06
4.74596e+06
4.70752e+06
4.6689e+06
4.6301e+06
4.59113e+06
4.55198e+06
4.51265e+06
4.47316e+06
4.4335e+06
4.39368e+06
4.35369e+06
4.31356e+06
4.27327e+06
4.23285e+06
4.19229e+06
4.1516e+06
4.11078e+06
4.06982e+06
4.02874e+06
3.98753e+06
3.94619e+06
3.90474e+06
3.86318e+06
3.8215e+06
3.77971e+06
3.73782e+06
3.69582e+06
3.65373e+06
3.61154e+06
3.56927e+06
3.5269e+06
3.48446e+06
3.44193e+06
3.39933e+06
3.35667e+06
3.31393e+06
3.27114e+06
3.22828e+06
3.18538e+06
3.14242e+06
3.09943e+06
3.05639e+06
3.01332e+06
2.97022e+06
2.92709e+06
2.88394e+06
2.84078e+06
2.79762e+06
2.75444e+06
2.71127e+06
2.66811e+06
2.62496e+06
2.58183e+06
2.53872e+06
2.49564e+06
2.4526e+06
2.4096e+06
2.36666e+06
2.32376e+06
2.28094e+06
2.23818e+06
2.19549e+06
2.15289e+06
2.11038e+06
2.06797e+06
2.02566e+06
1.98347e+06
1.9414e+06
1.89945e+06
1.85765e+06
1.81599e+06
1.77448e+06
1.73313e+06
1.69196e+06
1.65097e+06
1.61017e+06
1.56957e+06
1.52918e+06
1.48901e+06
1.44907e+06
1.40938e+06
1.36993e+06
1.33075e+06
1.29185e+06
1.25324e+06
1.21493e+06
1.17694e+06
1.13929e+06
1.10198e+06
1.06504e+06
1.02849e+06
992351
956638
921374
886566
852191
6.70886e+06
6.7082e+06
6.70691e+06
6.70499e+06
6.70241e+06
6.69917e+06
6.69526e+06
6.69068e+06
6.68541e+06
6.67945e+06
6.6728e+06
6.66545e+06
6.65741e+06
6.64867e+06
6.63923e+06
6.6291e+06
6.61828e+06
6.60679e+06
6.59462e+06
6.58179e+06
6.56831e+06
6.55419e+06
6.53943e+06
6.52405e+06
6.50806e+06
6.49148e+06
6.4743e+06
6.45655e+06
6.43823e+06
6.41935e+06
6.39992e+06
6.37995e+06
6.35946e+06
6.33844e+06
6.31692e+06
6.2949e+06
6.27239e+06
6.24939e+06
6.22591e+06
6.20197e+06
6.17755e+06
6.15267e+06
6.12732e+06
6.10152e+06
6.07526e+06
6.04855e+06
6.02139e+06
5.99381e+06
5.96581e+06
5.9374e+06
5.90861e+06
5.87945e+06
5.84992e+06
5.82004e+06
5.78981e+06
5.75925e+06
5.72836e+06
5.69714e+06
5.6656e+06
5.63375e+06
5.6016e+06
5.56914e+06
5.53637e+06
5.50331e+06
5.46995e+06
5.43629e+06
5.40234e+06
5.36808e+06
5.33353e+06
5.29868e+06
5.26355e+06
5.22813e+06
5.19244e+06
5.15649e+06
5.12029e+06
5.08385e+06
5.04718e+06
5.0103e+06
4.9732e+06
4.9359e+06
4.89839e+06
4.86069e+06
4.82279e+06
4.78471e+06
4.74643e+06
4.70797e+06
4.66932e+06
4.6305e+06
4.5915e+06
4.55233e+06
4.51299e+06
4.47348e+06
4.4338e+06
4.39396e+06
4.35395e+06
4.31379e+06
4.27348e+06
4.23304e+06
4.19247e+06
4.15176e+06
4.11093e+06
4.06996e+06
4.02886e+06
3.98764e+06
3.9463e+06
3.90484e+06
3.86327e+06
3.82158e+06
3.77979e+06
3.73789e+06
3.69589e+06
3.65379e+06
3.6116e+06
3.56931e+06
3.52695e+06
3.4845e+06
3.44197e+06
3.39937e+06
3.3567e+06
3.31396e+06
3.27116e+06
3.22831e+06
3.1854e+06
3.14244e+06
3.09944e+06
3.0564e+06
3.01333e+06
2.97023e+06
2.9271e+06
2.88395e+06
2.84079e+06
2.79762e+06
2.75445e+06
2.71128e+06
2.66811e+06
2.62496e+06
2.58183e+06
2.53872e+06
2.49564e+06
2.4526e+06
2.40961e+06
2.36666e+06
2.32377e+06
2.28094e+06
2.23818e+06
2.19549e+06
2.15289e+06
2.11038e+06
2.06797e+06
2.02566e+06
1.98347e+06
1.9414e+06
1.89945e+06
1.85765e+06
1.81599e+06
1.77448e+06
1.73313e+06
1.69196e+06
1.65097e+06
1.61017e+06
1.56957e+06
1.52918e+06
1.48901e+06
1.44907e+06
1.40937e+06
1.36992e+06
1.33074e+06
1.29183e+06
1.25322e+06
1.2149e+06
1.1769e+06
1.13924e+06
1.10192e+06
1.06496e+06
1.02838e+06
992201
956438
921102
886196
851691
6.72942e+06
6.7287e+06
6.72732e+06
6.72528e+06
6.72255e+06
6.71912e+06
6.71499e+06
6.71016e+06
6.70462e+06
6.69836e+06
6.69139e+06
6.6837e+06
6.67529e+06
6.66617e+06
6.65633e+06
6.64579e+06
6.63456e+06
6.62264e+06
6.61003e+06
6.59676e+06
6.58283e+06
6.56825e+06
6.55304e+06
6.53722e+06
6.52078e+06
6.50375e+06
6.48614e+06
6.46796e+06
6.44922e+06
6.42992e+06
6.41009e+06
6.38972e+06
6.36884e+06
6.34745e+06
6.32557e+06
6.3032e+06
6.28035e+06
6.25704e+06
6.23326e+06
6.20903e+06
6.18433e+06
6.15918e+06
6.13357e+06
6.1075e+06
6.08098e+06
6.054e+06
6.02658e+06
5.99873e+06
5.97047e+06
5.94182e+06
5.91278e+06
5.88338e+06
5.85364e+06
5.82355e+06
5.79313e+06
5.76239e+06
5.73133e+06
5.69995e+06
5.66827e+06
5.63628e+06
5.60399e+06
5.57141e+06
5.53854e+06
5.50537e+06
5.47191e+06
5.43816e+06
5.40412e+06
5.36978e+06
5.33514e+06
5.3002e+06
5.26498e+06
5.22948e+06
5.1937e+06
5.15766e+06
5.12138e+06
5.08486e+06
5.04811e+06
5.01116e+06
4.974e+06
4.93664e+06
4.89908e+06
4.86133e+06
4.8234e+06
4.78527e+06
4.74696e+06
4.70847e+06
4.66979e+06
4.63094e+06
4.59191e+06
4.55272e+06
4.51336e+06
4.47383e+06
4.43413e+06
4.39426e+06
4.35423e+06
4.31405e+06
4.27372e+06
4.23326e+06
4.19267e+06
4.15195e+06
4.1111e+06
4.07011e+06
4.02901e+06
3.98777e+06
3.94642e+06
3.90495e+06
3.86337e+06
3.82167e+06
3.77987e+06
3.73796e+06
3.69596e+06
3.65385e+06
3.61166e+06
3.56937e+06
3.527e+06
3.48454e+06
3.44201e+06
3.39941e+06
3.35673e+06
3.31399e+06
3.27119e+06
3.22833e+06
3.18542e+06
3.14246e+06
3.09946e+06
3.05642e+06
3.01335e+06
2.97024e+06
2.92711e+06
2.88397e+06
2.8408e+06
2.79763e+06
2.75446e+06
2.71129e+06
2.66812e+06
2.62497e+06
2.58184e+06
2.53873e+06
2.49565e+06
2.45261e+06
2.40961e+06
2.36666e+06
2.32377e+06
2.28094e+06
2.23818e+06
2.1955e+06
2.1529e+06
2.11039e+06
2.06797e+06
2.02567e+06
1.98347e+06
1.9414e+06
1.89945e+06
1.85765e+06
1.81599e+06
1.77448e+06
1.73313e+06
1.69196e+06
1.65097e+06
1.61017e+06
1.56956e+06
1.52917e+06
1.489e+06
1.44906e+06
1.40936e+06
1.36991e+06
1.33072e+06
1.29181e+06
1.25319e+06
1.21487e+06
1.17686e+06
1.13918e+06
1.10184e+06
1.06486e+06
1.02826e+06
992043
956228
920824
885827
851209
6.75296e+06
6.75218e+06
6.75069e+06
6.7485e+06
6.74558e+06
6.74192e+06
6.73753e+06
6.7324e+06
6.72652e+06
6.7199e+06
6.71253e+06
6.70443e+06
6.69558e+06
6.68601e+06
6.6757e+06
6.66468e+06
6.65295e+06
6.64052e+06
6.6274e+06
6.61361e+06
6.59916e+06
6.58406e+06
6.56833e+06
6.55198e+06
6.53504e+06
6.5175e+06
6.49939e+06
6.48072e+06
6.4615e+06
6.44173e+06
6.42144e+06
6.40062e+06
6.37931e+06
6.3575e+06
6.33521e+06
6.31246e+06
6.28924e+06
6.26558e+06
6.24147e+06
6.21691e+06
6.19191e+06
6.16645e+06
6.14055e+06
6.11418e+06
6.08736e+06
6.06009e+06
6.03237e+06
6.00423e+06
5.97567e+06
5.94673e+06
5.91742e+06
5.88776e+06
5.85777e+06
5.82745e+06
5.79682e+06
5.76587e+06
5.73462e+06
5.70307e+06
5.67122e+06
5.63908e+06
5.60665e+06
5.57394e+06
5.54094e+06
5.50766e+06
5.47409e+06
5.44024e+06
5.4061e+06
5.37166e+06
5.33692e+06
5.30189e+06
5.26657e+06
5.23097e+06
5.19509e+06
5.15896e+06
5.12258e+06
5.08597e+06
5.04914e+06
5.01211e+06
4.97488e+06
4.93746e+06
4.89985e+06
4.86205e+06
4.82406e+06
4.78589e+06
4.74754e+06
4.70901e+06
4.67031e+06
4.63142e+06
4.59237e+06
4.55315e+06
4.51377e+06
4.47422e+06
4.43449e+06
4.3946e+06
4.35454e+06
4.31433e+06
4.27398e+06
4.2335e+06
4.19289e+06
4.15215e+06
4.11128e+06
4.07029e+06
4.02916e+06
3.98792e+06
3.94656e+06
3.90508e+06
3.86348e+06
3.82178e+06
3.77997e+06
3.73805e+06
3.69604e+06
3.65393e+06
3.61172e+06
3.56943e+06
3.52705e+06
3.48459e+06
3.44206e+06
3.39945e+06
3.35677e+06
3.31403e+06
3.27122e+06
3.22836e+06
3.18545e+06
3.14249e+06
3.09948e+06
3.05644e+06
3.01336e+06
2.97026e+06
2.92713e+06
2.88398e+06
2.84081e+06
2.79764e+06
2.75447e+06
2.71129e+06
2.66813e+06
2.62497e+06
2.58184e+06
2.53873e+06
2.49565e+06
2.45261e+06
2.40962e+06
2.36667e+06
2.32377e+06
2.28094e+06
2.23818e+06
2.1955e+06
2.1529e+06
2.11039e+06
2.06798e+06
2.02567e+06
1.98347e+06
1.9414e+06
1.89946e+06
1.85765e+06
1.81599e+06
1.77448e+06
1.73313e+06
1.69196e+06
1.65097e+06
1.61016e+06
1.56956e+06
1.52917e+06
1.48899e+06
1.44905e+06
1.40935e+06
1.36989e+06
1.3307e+06
1.29179e+06
1.25316e+06
1.21483e+06
1.17681e+06
1.13912e+06
1.10177e+06
1.06477e+06
1.02813e+06
991878
956014
920545
885464
850748
6.77967e+06
6.77881e+06
6.7772e+06
6.77483e+06
6.77168e+06
6.76776e+06
6.76304e+06
6.75754e+06
6.75126e+06
6.7442e+06
6.73636e+06
6.72776e+06
6.71839e+06
6.70827e+06
6.6974e+06
6.68581e+06
6.67349e+06
6.66046e+06
6.64675e+06
6.63236e+06
6.6173e+06
6.60161e+06
6.58528e+06
6.56835e+06
6.55082e+06
6.53271e+06
6.51404e+06
6.49482e+06
6.47505e+06
6.45476e+06
6.43395e+06
6.41263e+06
6.39084e+06
6.36856e+06
6.34583e+06
6.32265e+06
6.29902e+06
6.27496e+06
6.25047e+06
6.22555e+06
6.2002e+06
6.17441e+06
6.14817e+06
6.12148e+06
6.09433e+06
6.06673e+06
6.03869e+06
6.01022e+06
5.98135e+06
5.9521e+06
5.92249e+06
5.89255e+06
5.86229e+06
5.83172e+06
5.80086e+06
5.76969e+06
5.73823e+06
5.70649e+06
5.67446e+06
5.64215e+06
5.60956e+06
5.5767e+06
5.54356e+06
5.51015e+06
5.47646e+06
5.4425e+06
5.40824e+06
5.3737e+06
5.33885e+06
5.30372e+06
5.26829e+06
5.23258e+06
5.1966e+06
5.16036e+06
5.12388e+06
5.08718e+06
5.05026e+06
5.01315e+06
4.97585e+06
4.93836e+06
4.90068e+06
4.86283e+06
4.82479e+06
4.78658e+06
4.74818e+06
4.70961e+06
4.67087e+06
4.63195e+06
4.59287e+06
4.55362e+06
4.51421e+06
4.47463e+06
4.43488e+06
4.39495e+06
4.35487e+06
4.31464e+06
4.27426e+06
4.23376e+06
4.19313e+06
4.15237e+06
4.11149e+06
4.07048e+06
4.02934e+06
3.98808e+06
3.9467e+06
3.90521e+06
3.8636e+06
3.82189e+06
3.78007e+06
3.73815e+06
3.69612e+06
3.654e+06
3.61179e+06
3.5695e+06
3.52711e+06
3.48465e+06
3.44211e+06
3.39949e+06
3.35681e+06
3.31407e+06
3.27126e+06
3.22839e+06
3.18548e+06
3.14251e+06
3.09951e+06
3.05646e+06
3.01338e+06
2.97027e+06
2.92714e+06
2.88399e+06
2.84083e+06
2.79765e+06
2.75448e+06
2.7113e+06
2.66814e+06
2.62498e+06
2.58185e+06
2.53874e+06
2.49566e+06
2.45262e+06
2.40962e+06
2.36667e+06
2.32378e+06
2.28095e+06
2.23819e+06
2.1955e+06