/*--------------------------------*- C++ -*----------------------------------*\
  =========                 |
  \\      /  F ield         | OpenFOAM: The Open Source CFD Toolbox
   \\    /   O peration     | Website:  https://openfoam.org
    \\  /    A nd           | Version:  11
     \\/     M anipulation  |
\*---------------------------------------------------------------------------*/
FoamFile
{
    format      ascii;
    class       volScalarField;
    location    "71";
    object      p;
}
// * * * * * * * * * * * * * * * * * * * * * * * * * * * * * * * * * * * * * //

dimensions      [0 2 -2 0 0 0 0];

internalField   nonuniform List<scalar> 
2048
(
0.357955
0.35596
0.351941
0.34573
0.337214
0.326287
0.312825
0.296703
0.277827
0.256175
0.231833
0.205029
0.176165
0.145831
0.114795
0.0839653
0.0543069
0.0267376
0.00200378
-0.0194202
-0.0373775
-0.052009
-0.0636911
-0.0729574
-0.080418
-0.0866697
-0.0921929
-0.0972502
-0.101816
-0.105553
-0.107849
-0.107968
-0.10515
-0.0988227
-0.0886715
-0.0747733
-0.0576109
-0.0379836
-0.0168799
0.0046624
0.0256894
0.045426
0.0633212
0.0790521
0.092506
0.103749
0.112992
0.120549
0.12681
0.132199
0.137143
0.142014
0.147068
0.152421
0.157869
0.163032
0.166993
0.168947
0.166784
0.159951
0.14401
0.121173
0.0818485
0.0383534
0.360014
0.358042
0.354066
0.347913
0.339458
0.328574
0.315117
0.298931
0.279897
0.257965
0.233196
0.205808
0.176208
0.145017
0.113069
0.0813601
0.050956
0.0228625
-0.00212423
-0.0235286
-0.0412291
-0.0554195
-0.0665383
-0.0751927
-0.0820782
-0.08788
-0.0931547
-0.0982134
-0.103037
-0.10725
-0.110176
-0.110981
-0.108748
-0.102881
-0.0930063
-0.0791677
-0.0618664
-0.0419443
-0.0204396
0.00155491
0.0230344
0.0431896
0.061454
0.0775027
0.0912264
0.102697
0.112131
0.119848
0.126244
0.131744
0.136775
0.141704
0.146776
0.152145
0.157561
0.16266
0.166537
0.168418
0.16621
0.159342
0.14346
0.120685
0.0814889
0.038273
0.364113
0.362191
0.35831
0.352286
0.343969
0.333195
0.31977
0.303482
0.284149
0.26166
0.236029
0.207447
0.176329
0.14336
0.1095
0.075939
0.0439707
0.0147981
-0.0106824
-0.0320067
-0.049136
-0.0623731
-0.0722821
-0.079625
-0.0852849
-0.0901431
-0.0949178
-0.100009
-0.105402
-0.110654
-0.114944
-0.117228
-0.116236
-0.1114
-0.102146
-0.0884393
-0.0708237
-0.050246
-0.0278734
-0.00492173
0.0175071
0.038539
0.0575732
0.0742761
0.0885465
0.100472
0.110284
0.118316
0.12497
0.130679
0.135873
0.140903
0.145977
0.151403
0.156736
0.161704
0.165436
0.167175
0.164906
0.157908
0.142168
0.119388
0.0806672
0.0378118
0.370195
0.368358
0.364641
0.358844
0.350781
0.340229
0.326918
0.310543
0.290816
0.267516
0.24057
0.210118
0.176591
0.140772
0.103826
0.0672616
0.0327772
0.00191985
-0.0242668
-0.0453691
-0.0614966
-0.073124
-0.0810062
-0.0861516
-0.0897609
-0.0930586
-0.0970485
-0.102282
-0.10873
-0.115797
-0.122406
-0.127317
-0.128401
-0.12532
-0.117089
-0.103585
-0.0854363
-0.0637395
-0.0398754
-0.0152986
0.00870327
0.0311518
0.0514052
0.0691253
0.0842307
0.0968381
0.107207
0.115691
0.122705
0.128704
0.134119
0.139273
0.144238
0.14972
0.154853
0.159545
0.162987
0.164374
0.161862
0.154512
0.138899
0.116106
0.0784139
0.0363841
0.378162
0.376461
0.373004
0.367575
0.359937
0.34979
0.336759
0.320407
0.300283
0.275981
0.247255
0.214139
0.177079
0.137039
0.0955031
0.0545003
0.0163884
-0.016781
-0.0438167
-0.0644295
-0.078944
-0.088067
-0.0928287
-0.0946018
-0.0950652
-0.0959808
-0.0988031
-0.104332
-0.112544
-0.122572
-0.132831
-0.141198
-0.146492
-0.146281
-0.139614
-0.126316
-0.10723
-0.0837508
-0.0575746
-0.0304927
-0.00408353
0.0204949
0.0425326
0.0616956
0.0779435
0.0914502
0.102525
0.111551
0.118979
0.125308
0.130975
0.136312
0.141609
0.146185
0.150663
0.154682
0.157457
0.158185
0.155262
0.147547
0.132226
0.109658
0.0738637
0.0334865
0.387867
0.386369
0.383305
0.378441
0.371475
0.362011
0.34954
0.333451
0.313078
0.287723
0.256838
0.220157
0.178073
0.131835
0.0835078
0.0361136
-0.00689943
-0.0429042
-0.0707476
-0.0904066
-0.102433
-0.10777
-0.107841
-0.104617
-0.100503
-0.0980222
-0.0992769
-0.105407
-0.116373
-0.131026
-0.147243
-0.162098
-0.172808
-0.176837
-0.172511
-0.159495
-0.138824
-0.112377
-0.0825178
-0.0516373
-0.0217141
0.00588633
0.0303868
0.0514825
0.069213
0.0838343
0.0957157
0.105308
0.113157
0.119776
0.125499
0.130493
0.134866
0.13865
0.142044
0.145165
0.147355
0.147712
0.144615
0.136804
0.122073
0.10012
0.0671119
0.0292353
0.399086
0.397881
0.395384
0.391351
0.385405
0.37704
0.365561
0.350144
0.329831
0.303565
0.270365
0.229317
0.180459
0.12515
0.066487
0.0097265
-0.0397398
-0.0788638
-0.10711
-0.125027
-0.13334
-0.133061
-0.126019
-0.115234
-0.104461
-0.0973573
-0.0967859
-0.104331
-0.119952
-0.141876
-0.166893
-0.191159
-0.210294
-0.221075
-0.219643
-0.20671
-0.183705
-0.152817
-0.117305
-0.0806135
-0.0454573
-0.0135313
0.0143376
0.0379501
0.057514
0.0734223
0.0861424
0.0962695
0.104464
0.111144
0.116375
0.120163
0.122876
0.125208
0.127877
0.130743
0.132895
0.133233
0.130157
0.122511
0.108706
0.0879353
0.0585151
0.0240563
0.411505
0.410702
0.408985
0.406123
0.401663
0.395007
0.385193
0.371133
0.351367
0.324421
0.288816
0.242763
0.185661
0.117607
0.0432766
-0.0272795
-0.0853356
-0.127829
-0.155708
-0.170588
-0.173479
-0.16524
-0.147696
-0.125112
-0.103787
-0.0898105
-0.0868812
-0.0967539
-0.119494
-0.152754
-0.191574
-0.229869
-0.260066
-0.282458
-0.286297
-0.273456
-0.246479
-0.208595
-0.164545
-0.119313
-0.0766679
-0.0387503
-0.00638486
0.0204599
0.0422398
0.0595439
0.0730893
0.0837036
0.0919673
0.0979415
0.101547
0.103275
0.104321
0.105908
0.108474
0.111574
0.113946
0.114465
0.111695
0.104687
0.0923165
0.0735126
0.0483716
0.0182614
0.424704
0.424421
0.423715
0.422422
0.42001
0.415906
0.408784
0.397365
0.379096
0.351951
0.313138
0.260445
0.193298
0.107537
0.0105764
-0.0788399
-0.147907
-0.194453
-0.221246
-0.231078
-0.225834
-0.206568
-0.174991
-0.136158
-0.0986189
-0.0729269
-0.0649135
-0.0760791
-0.106144
-0.152381
-0.208824
-0.267278
-0.320182
-0.352658
-0.367137
-0.359609
-0.330581
-0.284359
-0.228283
-0.170425
-0.116831
-0.0705389
-0.0322428
-0.00140508
0.0228973
0.0416655
0.0559773
0.0667171
0.0741919
0.0783382
0.0795438
0.0791742
0.0790441
0.0803913
0.0832848
0.0869341
0.0899292
0.0911713
0.0893734
0.0837788
0.0735515
0.0576002
0.037263
0.0122852
0.438149
0.438499
0.439021
0.439693
0.439921
0.439365
0.436297
0.429736
0.41521
0.390298
0.346904
0.283212
0.197006
0.0808574
-0.0468347
-0.155875
-0.234145
-0.283711
-0.308577
-0.311231
-0.294302
-0.259458
-0.209924
-0.154474
-0.100934
-0.0593503
-0.0410955
-0.0505981
-0.0860303
-0.142204
-0.211744
-0.285401
-0.353172
-0.405541
-0.437042
-0.443077
-0.42073
-0.372368
-0.306376
-0.234537
-0.167121
-0.109755
-0.0637087
-0.027937
-0.000776233
0.01943
0.0341395
0.0442401
0.0499501
0.0514652
0.0499215
0.0475066
0.0464227
0.0478263
0.0515085
0.0563645
0.0608185
0.0636861
0.0637972
0.0605338
0.053287
0.0410771
0.0259481
0.00670766
0.45121
0.452268
0.454193
0.457135
0.46051
0.464393
0.466819
0.46786
0.461116
0.44566
0.401767
0.326384
0.192971
0.01439
-0.149189
-0.264848
-0.337984
-0.381182
-0.401584
-0.400532
-0.375593
-0.323831
-0.252792
-0.179519
-0.118982
-0.0773041
-0.0562645
-0.0589944
-0.0889272
-0.144381
-0.21852
-0.300717
-0.379123
-0.443633
-0.487991
-0.50706
-0.49611
-0.453611
-0.385163
-0.303673
-0.223609
-0.154636
-0.0999797
-0.0587515
-0.0286471
-0.00728227
0.00721798
0.0158305
0.018865
0.0169972
0.0122702
0.00769658
0.005808
0.00769634
0.012921
0.0199733
0.0270091
0.0326461
0.0357922
0.03588
0.0325302
0.0248698
0.0152386
0.00202314
0.463184
0.46497
0.468385
0.473723
0.480564
0.489336
0.498372
0.508851
0.514477
0.518018
0.491923
0.436266
0.237069
-0.0589127
-0.258202
-0.360452
-0.409821
-0.431671
-0.437619
-0.434762
-0.420631
-0.373817
-0.312372
-0.246558
-0.186137
-0.138371
-0.108239
-0.101003
-0.121321
-0.169734
-0.24111
-0.325437
-0.409581
-0.481312
-0.532489
-0.55833
-0.55525
-0.519378
-0.453053
-0.367476
-0.278905
-0.200555
-0.138319
-0.0922253
-0.0597127
-0.0378323
-0.0243755
-0.0182665
-0.0189637
-0.0250553
-0.0334388
-0.040292
-0.0427378
-0.039757
-0.0320606
-0.0215987
-0.0106208
-0.000865348
0.00655496
0.0110288
0.0124297
0.00992115
0.0058947
-0.0014264
0.473335
0.475809
0.480673
0.488309
0.498607
0.512154
0.528149
0.548027
0.568229
0.593149
0.606595
0.626645
0.5044
0.00787139
-0.254812
-0.379395
-0.432317
-0.446962
-0.445663
-0.441256
-0.443741
-0.412188
-0.374923
-0.330336
-0.283462
-0.241331
-0.210463
-0.194972
-0.200148
-0.229645
-0.283047
-0.355178
-0.434823
-0.508157
-0.563761
-0.593987
-0.596803
-0.566039
-0.503119
-0.417489
-0.325256
-0.241553
-0.17453
-0.125432
-0.0918661
-0.0706687
-0.0594774
-0.0571102
-0.0626515
-0.0737866
-0.0863215
-0.0955928
-0.0982259
-0.093429
-0.0821868
-0.0669811
-0.0506068
-0.0353469
-0.022473
-0.0127127
-0.00593195
-0.00298945
-0.00156285
-0.00353006
0.480963
0.484028
0.49013
0.499753
0.513041
0.530786
0.55288
0.581036
0.613876
0.655136
0.696348
0.74347
0.700942
0.247278
-0.0435433
-0.22523
-0.339384
-0.40615
-0.444199
-0.45821
-0.470119
-0.461477
-0.450576
-0.435292
-0.416357
-0.394137
-0.372459
-0.350413
-0.33412
-0.332002
-0.351084
-0.393323
-0.452769
-0.517403
-0.572754
-0.607924
-0.613386
-0.587112
-0.52873
-0.446411
-0.355438
-0.271367
-0.203617
-0.154504
-0.122119
-0.103409
-0.0960283
-0.0987521
-0.110243
-0.127224
-0.144366
-0.156056
-0.158446
-0.151302
-0.135393
-0.114086
-0.0909757
-0.0690015
-0.0497269
-0.0340558
-0.0216239
-0.013312
-0.00692085
-0.0044263
0.485482
0.488975
0.495954
0.507022
0.522444
0.543297
0.569657
0.603881
0.644381
0.696073
0.748068
0.810367
0.786235
0.325118
0.0152618
-0.187328
-0.322193
-0.407916
-0.461755
-0.494075
-0.516186
-0.524804
-0.541814
-0.563214
-0.582046
-0.587428
-0.579857
-0.550919
-0.508428
-0.466049
-0.438874
-0.436731
-0.461674
-0.50558
-0.552929
-0.587278
-0.5968
-0.575947
-0.523959
-0.44845
-0.363657
-0.284527
-0.220758
-0.175371
-0.147022
-0.132954
-0.131055
-0.140222
-0.158716
-0.182304
-0.204484
-0.218604
-0.219958
-0.210145
-0.188656
-0.160208
-0.129376
-0.0998679
-0.0736589
-0.0518666
-0.0339532
-0.0207634
-0.0102381
-0.00441317
0.486479
0.490184
0.497599
0.509363
0.525837
0.548186
0.576656
0.61359
0.657648
0.713156
0.769656
0.835592
0.818786
0.367318
0.0517886
-0.165425
-0.317474
-0.420066
-0.490046
-0.544142
-0.573975
-0.595296
-0.641124
-0.699803
-0.756098
-0.790881
-0.790686
-0.749434
-0.678115
-0.593958
-0.51858
-0.468625
-0.452608
-0.46782
-0.500228
-0.530565
-0.542792
-0.528278
-0.485175
-0.420273
-0.346459
-0.277396
-0.222328
-0.18455
-0.163163
-0.155868
-0.161074
-0.177955
-0.204365
-0.235079
-0.262532
-0.279506
-0.281892
-0.266417
-0.238374
-0.202238
-0.163277
-0.126017
-0.0929085
-0.0652916
-0.042523
-0.0253231
-0.0117601
-0.00384689
0.483716
0.48738
0.494713
0.506352
0.52264
0.544724
0.57283
0.609272
0.65265
0.707285
0.762625
0.827411
0.808045
0.352539
0.0335084
-0.18716
-0.343273
-0.451068
-0.528183
-0.599666
-0.629518
-0.661004
-0.730309
-0.816346
-0.898867
-0.95192
-0.952875
-0.891587
-0.793649
-0.673346
-0.558071
-0.468993
-0.417037
-0.402704
-0.416191
-0.439094
-0.452609
-0.44537
-0.413375
-0.36254
-0.30381
-0.249108
-0.206728
-0.179826
-0.167828
-0.169086
-0.182759
-0.20831
-0.243125
-0.281013
-0.31343
-0.332432
-0.333211
-0.314594
-0.280503
-0.236929
-0.190229
-0.14575
-0.106438
-0.0738302
-0.0472405
-0.0271859
-0.0118176
-0.00304882
0.477241
0.480622
0.487368
0.498064
0.512932
0.533028
0.55831
0.591096
0.629509
0.678647
0.726839
0.785428
0.753791
0.279233
-0.0413349
-0.253708
-0.400264
-0.500887
-0.574
-0.651232
-0.670111
-0.708202
-0.788183
-0.888351
-0.981507
-1.03835
-1.03638
-0.966223
-0.842662
-0.692621
-0.54734
-0.430297
-0.35236
-0.314444
-0.30962
-0.322748
-0.33569
-0.335942
-0.31558
-0.280804
-0.239723
-0.202089
-0.174892
-0.160852
-0.159705
-0.170621
-0.193551
-0.228143
-0.27126
-0.315875
-0.352721
-0.373383
-0.372981
-0.351089
-0.311618
-0.261545
-0.208249
-0.157832
-0.113658
-0.0773814
-0.048308
-0.0267086
-0.0107485
-0.00224459
0.467343
0.470224
0.475945
0.484966
0.497373
0.513904
0.534302
0.56015
0.589727
0.626544
0.661572
0.700628
0.645244
0.172368
-0.134893
-0.331689
-0.463773
-0.552564
-0.615406
-0.68752
-0.687051
-0.723035
-0.805837
-0.90938
-1.00396
-1.06041
-1.05404
-0.973727
-0.833016
-0.663274
-0.498851
-0.363933
-0.269015
-0.214859
-0.195324
-0.198259
-0.207914
-0.210757
-0.203658
-0.185059
-0.161863
-0.141758
-0.130177
-0.129287
-0.139195
-0.159933
-0.192114
-0.235381
-0.286043
-0.336415
-0.376831
-0.398811
-0.397544
-0.372848
-0.329111
-0.274113
-0.21607
-0.16165
-0.114491
-0.0762385
-0.0461846
-0.0243629
-0.00887065
-0.00154077
0.454512
0.456737
0.461096
0.467925
0.477069
0.488991
0.50281
0.519606
0.53569
0.554454
0.559037
0.565632
0.416528
-0.107022
-0.385374
-0.526383
-0.60465
-0.650405
-0.681374
-0.705102
-0.677251
-0.708735
-0.78946
-0.889739
-0.979743
-1.03139
-1.01589
-0.924358
-0.773735
-0.597579
-0.429541
-0.290463
-0.187699
-0.121991
-0.0900739
-0.0832096
-0.0885645
-0.0940196
-0.0944466
-0.0884341
-0.0803622
-0.0755313
-0.0776962
-0.0884639
-0.108338
-0.138071
-0.178644
-0.229462
-0.286278
-0.341019
-0.383983
-0.406833
-0.404877
-0.378168
-0.331663
-0.273793
-0.213362
-0.157329
-0.109393
-0.0710454
-0.0415247
-0.020687
-0.00648703
-0.000954763
0.439401
0.440887
0.443686
0.448054
0.453489
0.460336
0.466722
0.473646
0.474163
0.47082
0.43316
0.361998
0.131979
-0.19271
-0.411315
-0.534315
-0.6111
-0.660297
-0.687303
-0.687712
-0.664876
-0.693487
-0.769771
-0.861629
-0.93834
-0.967921
-0.930918
-0.825468
-0.673129
-0.505834
-0.350991
-0.223239
-0.124537
-0.0531645
-0.00933649
0.00911376
0.0104282
0.00512705
0.000298808
-0.00208253
-0.00463964
-0.0108083
-0.0230566
-0.0426276
-0.070357
-0.107418
-0.154794
-0.21143
-0.272576
-0.330031
-0.374358
-0.397505
-0.394854
-0.367004
-0.319421
-0.260994
-0.200805
-0.145747
-0.0993149
-0.0627199
-0.0350995
-0.0162336
-0.00388489
-0.000462618
0.422769
0.423487
0.424701
0.426548
0.428302
0.430053
0.429422
0.426651
0.414061
0.391514
0.335442
0.245684
0.0876665
-0.118708
-0.306438
-0.443981
-0.539756
-0.60337
-0.640908
-0.658426
-0.661493
-0.686527
-0.746445
-0.81403
-0.858332
-0.855124
-0.794918
-0.685446
-0.547514
-0.404854
-0.275018
-0.166751
-0.0804448
-0.0121059
0.0390095
0.0702358
0.0823117
0.0817624
0.075941
0.0690546
0.0603357
0.0477117
0.0294078
0.00424695
-0.0288625
-0.0712016
-0.123422
-0.183857
-0.247325
-0.305695
-0.349983
-0.372794
-0.369172
-0.340948
-0.293971
-0.237353
-0.180043
-0.128449
-0.0855956
-0.052346
-0.0277106
-0.0115161
-0.00132446
-3.40113e-05
0.405397
0.405375
0.405117
0.404593
0.403054
0.400199
0.39387
0.383293
0.362868
0.330886
0.27689
0.20076
0.097975
-0.0395785
-0.190221
-0.321889
-0.423284
-0.49713
-0.548635
-0.584821
-0.610275
-0.637152
-0.672748
-0.708062
-0.720551
-0.695737
-0.632163
-0.538513
-0.428732
-0.317117
-0.213936
-0.124342
-0.0498095
0.0114585
0.0618498
0.100426
0.124146
0.133175
0.131742
0.124502
0.113474
0.0980393
0.0768588
0.0486857
0.0123031
-0.0333975
-0.0884861
-0.150619
-0.214281
-0.271558
-0.313966
-0.334397
-0.330551
-0.302783
-0.258051
-0.205527
-0.153494
-0.107464
-0.069801
-0.0410404
-0.0200955
-0.0069573
0.000980743
0.000349178
0.388026
0.387345
0.385814
0.383249
0.378991
0.372465
0.362047
0.346514
0.322684
0.288758
0.241067
0.177629
0.0975789
-0.00471065
-0.121165
-0.23162
-0.323093
-0.394321
-0.448381
-0.489243
-0.51936
-0.543456
-0.565373
-0.580924
-0.5774
-0.548728
-0.49551
-0.422913
-0.33891
-0.252123
-0.169499
-0.0949492
-0.0300073
0.0253531
0.0721562
0.110515
0.139578
0.158223
0.165658
0.163324
0.153736
0.138232
0.116396
0.0871226
0.0492532
0.00206264
-0.0538372
-0.115485
-0.177218
-0.231546
-0.270721
-0.288595
-0.283015
-0.256222
-0.215347
-0.168937
-0.124063
-0.085044
-0.0535243
-0.0298258
-0.0128505
-0.00284495
0.00289506
0.000688928
0.37131
0.370092
0.367524
0.363342
0.356998
0.347861
0.334789
0.316643
0.291664
0.258316
0.214813
0.159075
0.0903692
0.00815396
-0.0828403
-0.171846
-0.249744
-0.313703
-0.364586
-0.404178
-0.433865
-0.455478
-0.470253
-0.475404
-0.466406
-0.44044
-0.39734
-0.340016
-0.273733
-0.204347
-0.136777
-0.0742044
-0.0180928
0.0311613
0.0738184
0.110233
0.14
0.161298
0.174963
0.180256
0.176753
0.164471
0.143956
0.115133
0.0774013
0.0305955
-0.024001
-0.0829419
-0.140576
-0.189822
-0.223848
-0.237597
-0.230236
-0.2054
-0.170026
-0.131323
-0.0947207
-0.0633165
-0.0381583
-0.0195198
-0.00639616
0.000676695
0.0043826
0.000981972
0.355801
0.354171
0.350811
0.345433
0.337593
0.326735
0.312052
0.29263
0.267341
0.234977
0.19437
0.144329
0.0847612
0.0168612
-0.0562366
-0.128904
-0.195339
-0.252336
-0.299199
-0.336344
-0.364333
-0.383501
-0.394405
-0.395486
-0.385219
-0.362058
-0.326023
-0.279331
-0.225708
-0.169205
-0.113268
-0.0603059
-0.0116682
0.0320866
0.070806
0.104369
0.132269
0.154525
0.170106
0.178661
0.179618
0.172112
0.155419
0.129197
0.0935406
0.0492303
-0.00165832
-0.055263
-0.106085
-0.147778
-0.174692
-0.183838
-0.175803
-0.154741
-0.126443
-0.0962786
-0.0680653
-0.0439657
-0.0247007
-0.010646
-0.000966103
0.00356504
0.00547977
0.00122715
0.341929
0.340002
0.336071
0.329854
0.320996
0.309051
0.293425
0.273413
0.24822
0.217
0.179058
0.133962
0.082027
0.0244898
-0.0365167
-0.0977294
-0.155339
-0.206402
-0.249448
-0.284031
-0.310058
-0.327357
-0.336209
-0.335778
-0.325472
-0.304742
-0.27405
-0.235166
-0.190737
-0.143624
-0.0963526
-0.0508309
-0.00830154
0.030566
0.0654879
0.0962908
0.122591
0.144103
0.160092
0.169953
0.172939
0.168179
0.154868
0.132493
0.101177
0.0620696
0.0176613
-0.028076
-0.0702012
-0.103691
-0.124454
-0.131142
-0.12495
-0.109453
-0.0888081
-0.0667273
-0.0459022
-0.028001
-0.013662
-0.00341275
0.00339242
0.00585936
0.00626362
0.00140784
0.330014
0.327883
0.323559
0.316779
0.307258
0.294647
0.278504
0.2583
0.233477
0.203506
0.168032
0.126994
0.0807958
0.0304303
-0.0225154
-0.0757923
-0.12669
-0.172735
-0.212256
-0.244359
-0.26859
-0.284662
-0.292165
-0.291143
-0.28135
-0.262816
-0.236218
-0.203001
-0.165163
-0.12487
-0.0840955
-0.0444042
-0.00686376
0.0279109
0.0595976
0.0879606
0.112663
0.133319
0.149357
0.160074
0.164636
0.162169
0.15195
0.133613
0.10743
0.074631
0.037587
-0.000235029
-0.0347937
-0.0622916
-0.0799277
-0.0867465
-0.0839004
-0.0739244
-0.0597232
-0.0439936
-0.0288162
-0.0156309
-0.00507932
0.00222239
0.00675639
0.00763648
0.00684318
0.00151393
0.320279
0.318014
0.313433
0.306291
0.296355
0.283359
0.26697
0.246805
0.222479
0.193675
0.160232
0.122231
0.0800859
0.0346323
-0.0128268
-0.0605322
-0.106407
-0.148419
-0.184953
-0.214928
-0.23767
-0.25275
-0.25955
-0.258417
-0.249346
-0.232638
-0.209062
-0.179886
-0.146745
-0.111389
-0.0754238
-0.0401309
-0.00641149
0.0251654
0.0542539
0.0805978
0.103902
0.12379
0.139744
0.151085
0.156982
0.156576
0.149178
0.134489
0.112829
0.0853606
0.0541858
0.0222228
-0.00722984
-0.0311019
-0.0472263
-0.0548692
-0.0547725
-0.0487351
-0.0389694
-0.0276037
-0.0163579
-0.00651357
0.00129046
0.006427
0.0092536
0.00895249
0.00728764
0.00156765
0.312874
0.310525
0.305785
0.29842
0.28824
0.275039
0.258565
0.238535
0.214682
0.186811
0.154866
0.118995
0.0796178
0.0374963
-0.00623861
-0.0501176
-0.0924447
-0.131502
-0.165784
-0.194138
-0.21575
-0.230086
-0.236553
-0.235504
-0.227089
-0.211748
-0.190297
-0.163912
-0.134014
-0.102091
-0.0694967
-0.0373258
-0.0063741
0.0228317
0.0499594
0.0747636
0.0969793
0.116249
0.132067
0.143768
0.150549
0.151584
0.146202
0.134116
0.11563
0.0918194
0.064588
0.0364989
0.0103935
-0.0110754
-0.0261266
-0.0341638
-0.0356949
-0.0320574
-0.0250538
-0.0164682
-0.00779063
-0.000176999
0.00574908
0.00938473
0.0110135
0.00986785
0.00761014
0.00159702
0.307894
0.305496
0.300664
0.293175
0.282864
0.269565
0.253079
0.233186
0.209685
0.18245
0.151482
0.116971
0.0793433
0.0393165
-0.00208859
-0.0435778
-0.0836683
-0.120825
-0.153627
-0.180896
-0.201746
-0.215586
-0.221892
-0.220955
-0.213013
-0.198577
-0.178486
-0.153861
-0.126002
-0.0962395
-0.0657837
-0.0356219
-0.00647889
0.0211608
0.0469871
0.0707683
0.092251
0.111083
0.126764
0.138638
0.145921
0.147807
0.143642
0.13314
0.116591
0.0950167
0.0701934
0.044482
0.0204749
0.000523618
-0.0138157
-0.0219666
-0.0243222
-0.0220018
-0.0165688
-0.00960304
-0.00245715
0.00379968
0.00856447
0.0112575
0.0121325
0.0104417
0.00781235
0.00162087
0.305396
0.302975
0.2981
0.290557
0.280189
0.266853
0.250374
0.23056
0.207243
0.180328
0.149844
0.115998
0.0792225
0.0402089
-7.71165e-05
-0.0404229
-0.0794393
-0.115672
-0.14774
-0.174462
-0.194922
-0.208507
-0.214754
-0.21389
-0.206193
-0.192209
-0.172783
-0.14901
-0.122134
-0.0934151
-0.0640004
-0.0348242
-0.00657353
0.0202916
0.0454748
0.0687496
0.0898633
0.108466
0.124064
0.136008
0.14352
0.145805
0.142214
0.132465
0.116839
0.0963281
0.0726445
0.0480601
0.0250514
0.00581127
-0.00818484
-0.0163449
-0.0190321
-0.0172864
-0.0125604
-0.00633835
9.3945e-05
0.00570939
0.0099207
0.0121591
0.0126698
0.0107151
0.00789496
0.0016375
)
;

boundaryField
{
    inlet
    {
        type            zeroGradient;
    }
    outlet
    {
        type            fixedValue;
        value           uniform 0;
    }
    top
    {
        type            symmetryPlane;
    }
    bottom
    {
        type            symmetryPlane;
    }
    frontAndBack
    {
        type            empty;
    }
}


// ************************************************************************* //
