/*--------------------------------*- C++ -*----------------------------------*\
  =========                 |
  \\      /  F ield         | OpenFOAM: The Open Source CFD Toolbox
   \\    /   O peration     | Website:  https://openfoam.org
    \\  /    A nd           | Version:  10
     \\/     M anipulation  |
\*---------------------------------------------------------------------------*/
FoamFile
{
    format      ascii;
    class       volVectorField;
    location    "24600";
    object      Ua;
}
// * * * * * * * * * * * * * * * * * * * * * * * * * * * * * * * * * * * * * //

dimensions      [0 1 -1 0 0 0 0];

internalField   nonuniform List<vector> 
6400
(
(-9.21792e-10 1.15128e-07 0)
(-1.69865e-09 8.22146e-08 0)
(-1.46414e-09 5.66089e-08 0)
(-2.27371e-09 4.27393e-08 0)
(-2.97114e-09 3.37253e-08 0)
(-2.55173e-09 2.77659e-08 0)
(-2.16993e-09 2.35099e-08 0)
(-1.87468e-09 2.03255e-08 0)
(-1.64129e-09 1.78749e-08 0)
(-1.45523e-09 1.59314e-08 0)
(-1.30195e-09 1.43576e-08 0)
(-1.17528e-09 1.30626e-08 0)
(-1.06691e-09 1.1981e-08 0)
(-9.68028e-10 1.10693e-08 0)
(-8.83025e-10 1.0292e-08 0)
(-8.13252e-10 9.62101e-09 0)
(-7.47015e-10 9.03586e-09 0)
(-6.82634e-10 8.52504e-09 0)
(-6.2895e-10 8.07565e-09 0)
(-5.86372e-10 7.67824e-09 0)
(-5.45546e-10 7.32569e-09 0)
(-4.97483e-10 7.0108e-09 0)
(-4.49983e-10 6.73137e-09 0)
(-4.15253e-10 6.48338e-09 0)
(-3.9049e-10 6.25854e-09 0)
(-3.68879e-10 6.05499e-09 0)
(-3.43999e-10 5.87248e-09 0)
(-3.11498e-10 5.70782e-09 0)
(-2.72771e-10 5.56128e-09 0)
(-2.37384e-10 5.42906e-09 0)
(-2.11703e-10 5.30881e-09 0)
(-1.91753e-10 5.20047e-09 0)
(-1.77198e-10 5.10907e-09 0)
(-1.65873e-10 5.07163e-09 0)
(-1.5204e-10 5.03756e-09 0)
(-1.34704e-10 5.00755e-09 0)
(-1.12922e-10 4.98204e-09 0)
(-8.60671e-11 4.96257e-09 0)
(-5.41951e-11 4.94983e-09 0)
(-1.85346e-11 4.93906e-09 0)
(1.85346e-11 4.93906e-09 0)
(5.41951e-11 4.94983e-09 0)
(8.60671e-11 4.96257e-09 0)
(1.12922e-10 4.98204e-09 0)
(1.34704e-10 5.00755e-09 0)
(1.5204e-10 5.03756e-09 0)
(1.65873e-10 5.07163e-09 0)
(1.77198e-10 5.10907e-09 0)
(1.91753e-10 5.20047e-09 0)
(2.11703e-10 5.30881e-09 0)
(2.37384e-10 5.42906e-09 0)
(2.72771e-10 5.56128e-09 0)
(3.11498e-10 5.70782e-09 0)
(3.43999e-10 5.87248e-09 0)
(3.68879e-10 6.05499e-09 0)
(3.9049e-10 6.25854e-09 0)
(4.15253e-10 6.48338e-09 0)
(4.49983e-10 6.73137e-09 0)
(4.97483e-10 7.0108e-09 0)
(5.45546e-10 7.32569e-09 0)
(5.86372e-10 7.67824e-09 0)
(6.2895e-10 8.07565e-09 0)
(6.82634e-10 8.52504e-09 0)
(7.47015e-10 9.03586e-09 0)
(8.13252e-10 9.62101e-09 0)
(8.83025e-10 1.0292e-08 0)
(9.68028e-10 1.10693e-08 0)
(1.06691e-09 1.1981e-08 0)
(1.17528e-09 1.30626e-08 0)
(1.30195e-09 1.43576e-08 0)
(1.45523e-09 1.59314e-08 0)
(1.64129e-09 1.78749e-08 0)
(1.87468e-09 2.03255e-08 0)
(2.16993e-09 2.35099e-08 0)
(2.55173e-09 2.77659e-08 0)
(2.97114e-09 3.37253e-08 0)
(2.27371e-09 4.27393e-08 0)
(1.46414e-09 5.66089e-08 0)
(1.69865e-09 8.22146e-08 0)
(9.21792e-10 1.15128e-07 0)
(-3.16579e-09 2.43795e-07 0)
(-5.58459e-09 1.77982e-07 0)
(-4.20153e-09 1.16539e-07 0)
(-6.06815e-09 8.2841e-08 0)
(-7.81399e-09 6.13444e-08 0)
(-6.4304e-09 4.91631e-08 0)
(-5.36148e-09 4.09789e-08 0)
(-4.57622e-09 3.50721e-08 0)
(-3.97247e-09 3.06326e-08 0)
(-3.50165e-09 2.71691e-08 0)
(-3.1194e-09 2.44012e-08 0)
(-2.80728e-09 2.21456e-08 0)
(-2.54281e-09 2.02702e-08 0)
(-2.30197e-09 1.86955e-08 0)
(-2.09601e-09 1.73655e-08 0)
(-1.92885e-09 1.62168e-08 0)
(-1.77006e-09 1.52129e-08 0)
(-1.61516e-09 1.4343e-08 0)
(-1.48686e-09 1.35837e-08 0)
(-1.38625e-09 1.29105e-08 0)
(-1.29012e-09 1.23098e-08 0)
(-1.17532e-09 1.17703e-08 0)
(-1.06138e-09 1.13017e-08 0)
(-9.79273e-10 1.08874e-08 0)
(-9.21332e-10 1.05101e-08 0)
(-8.70923e-10 1.01665e-08 0)
(-8.12641e-10 9.85598e-09 0)
(-7.35774e-10 9.57415e-09 0)
(-6.43366e-10 9.32507e-09 0)
(-5.59226e-10 9.10723e-09 0)
(-4.99174e-10 8.91007e-09 0)
(-4.53119e-10 8.7316e-09 0)
(-4.19668e-10 8.57994e-09 0)
(-3.9366e-10 8.5182e-09 0)
(-3.61783e-10 8.46206e-09 0)
(-3.21569e-10 8.41259e-09 0)
(-2.70574e-10 8.3704e-09 0)
(-2.07009e-10 8.33782e-09 0)
(-1.30771e-10 8.31591e-09 0)
(-4.4808e-11 8.29746e-09 0)
(4.4808e-11 8.29746e-09 0)
(1.30771e-10 8.31591e-09 0)
(2.07009e-10 8.33782e-09 0)
(2.70574e-10 8.3704e-09 0)
(3.21569e-10 8.41259e-09 0)
(3.61783e-10 8.46206e-09 0)
(3.9366e-10 8.5182e-09 0)
(4.19668e-10 8.57994e-09 0)
(4.53119e-10 8.7316e-09 0)
(4.99174e-10 8.91007e-09 0)
(5.59226e-10 9.10723e-09 0)
(6.43366e-10 9.32507e-09 0)
(7.35774e-10 9.57415e-09 0)
(8.12641e-10 9.85598e-09 0)
(8.70923e-10 1.01665e-08 0)
(9.21332e-10 1.05101e-08 0)
(9.79273e-10 1.08874e-08 0)
(1.06138e-09 1.13017e-08 0)
(1.17532e-09 1.17703e-08 0)
(1.29012e-09 1.23098e-08 0)
(1.38625e-09 1.29105e-08 0)
(1.48686e-09 1.35837e-08 0)
(1.61516e-09 1.4343e-08 0)
(1.77006e-09 1.52129e-08 0)
(1.92885e-09 1.62168e-08 0)
(2.09601e-09 1.73655e-08 0)
(2.30197e-09 1.86955e-08 0)
(2.54281e-09 2.02702e-08 0)
(2.80728e-09 2.21456e-08 0)
(3.1194e-09 2.44012e-08 0)
(3.50165e-09 2.71691e-08 0)
(3.97247e-09 3.06326e-08 0)
(4.57622e-09 3.50721e-08 0)
(5.36148e-09 4.09789e-08 0)
(6.4304e-09 4.91631e-08 0)
(7.81399e-09 6.13444e-08 0)
(6.06815e-09 8.2841e-08 0)
(4.20153e-09 1.16539e-07 0)
(5.58459e-09 1.77982e-07 0)
(3.16579e-09 2.43795e-07 0)
(-3.59882e-08 6.32346e-06 0)
(-4.90158e-08 1.46327e-06 0)
(-1.76263e-08 5.74525e-07 0)
(-1.59321e-08 2.65231e-07 0)
(-1.88809e-08 1.55102e-07 0)
(-1.32484e-08 1.10338e-07 0)
(-1.03324e-08 8.66331e-08 0)
(-8.51087e-09 7.17758e-08 0)
(-7.22479e-09 6.1462e-08 0)
(-6.27796e-09 5.38077e-08 0)
(-5.53617e-09 4.79004e-08 0)
(-4.94801e-09 4.32025e-08 0)
(-4.4614e-09 3.9359e-08 0)
(-4.0206e-09 3.61717e-08 0)
(-3.64826e-09 3.35203e-08 0)
(-3.35404e-09 3.12397e-08 0)
(-3.07333e-09 2.92504e-08 0)
(-2.79654e-09 2.75439e-08 0)
(-2.57066e-09 2.60681e-08 0)
(-2.39804e-09 2.4758e-08 0)
(-2.23419e-09 2.35853e-08 0)
(-2.03138e-09 2.25267e-08 0)
(-1.82802e-09 2.16271e-08 0)
(-1.68636e-09 2.08337e-08 0)
(-1.58864e-09 2.01094e-08 0)
(-1.50411e-09 1.94475e-08 0)
(-1.40536e-09 1.88456e-08 0)
(-1.27218e-09 1.82962e-08 0)
(-1.10863e-09 1.78132e-08 0)
(-9.60772e-10 1.74043e-08 0)
(-8.59103e-10 1.70365e-08 0)
(-7.8325e-10 1.6704e-08 0)
(-7.2864e-10 1.64215e-08 0)
(-6.86228e-10 1.63091e-08 0)
(-6.33906e-10 1.62084e-08 0)
(-5.67055e-10 1.6121e-08 0)
(-4.80709e-10 1.60476e-08 0)
(-3.70677e-10 1.59912e-08 0)
(-2.3578e-10 1.59526e-08 0)
(-8.11238e-11 1.59189e-08 0)
(8.11238e-11 1.59189e-08 0)
(2.3578e-10 1.59526e-08 0)
(3.70677e-10 1.59912e-08 0)
(4.80709e-10 1.60476e-08 0)
(5.67055e-10 1.6121e-08 0)
(6.33906e-10 1.62084e-08 0)
(6.86228e-10 1.63091e-08 0)
(7.2864e-10 1.64215e-08 0)
(7.8325e-10 1.6704e-08 0)
(8.59103e-10 1.70365e-08 0)
(9.60772e-10 1.74043e-08 0)
(1.10863e-09 1.78132e-08 0)
(1.27218e-09 1.82962e-08 0)
(1.40536e-09 1.88456e-08 0)
(1.50411e-09 1.94475e-08 0)
(1.58864e-09 2.01094e-08 0)
(1.68636e-09 2.08337e-08 0)
(1.82802e-09 2.16271e-08 0)
(2.03138e-09 2.25267e-08 0)
(2.23419e-09 2.35853e-08 0)
(2.39804e-09 2.4758e-08 0)
(2.57066e-09 2.60681e-08 0)
(2.79654e-09 2.75439e-08 0)
(3.07333e-09 2.92504e-08 0)
(3.35404e-09 3.12397e-08 0)
(3.64826e-09 3.35203e-08 0)
(4.0206e-09 3.61717e-08 0)
(4.4614e-09 3.9359e-08 0)
(4.94801e-09 4.32025e-08 0)
(5.53617e-09 4.79004e-08 0)
(6.27796e-09 5.38077e-08 0)
(7.22479e-09 6.1462e-08 0)
(8.51087e-09 7.17758e-08 0)
(1.03324e-08 8.66331e-08 0)
(1.32484e-08 1.10338e-07 0)
(1.88809e-08 1.55102e-07 0)
(1.59321e-08 2.65231e-07 0)
(1.76263e-08 5.74525e-07 0)
(4.90158e-08 1.46327e-06 0)
(3.59882e-08 6.32346e-06 0)
(1.78463e-06 1.17961e-05 0)
(-8.09436e-07 3.82726e-06 0)
(-1.05877e-05 2.83723e-06 0)
(-8.1634e-06 2.80507e-05 0)
(-2.05597e-07 8.10864e-07 0)
(-5.06084e-08 3.70859e-07 0)
(-2.4106e-08 2.05895e-07 0)
(-1.63404e-08 1.41515e-07 0)
(-1.26293e-08 1.11253e-07 0)
(-1.04408e-08 9.30871e-08 0)
(-8.932e-09 8.06895e-08 0)
(-7.83379e-09 7.1554e-08 0)
(-6.98086e-09 6.44403e-08 0)
(-6.22703e-09 5.87408e-08 0)
(-5.60859e-09 5.41516e-08 0)
(-5.14497e-09 5.02615e-08 0)
(-4.70054e-09 4.6897e-08 0)
(-4.2547e-09 4.40611e-08 0)
(-3.90063e-09 4.16445e-08 0)
(-3.64262e-09 3.95009e-08 0)
(-3.40118e-09 3.75794e-08 0)
(-3.08172e-09 3.58318e-08 0)
(-2.75569e-09 3.43934e-08 0)
(-2.54219e-09 3.31279e-08 0)
(-2.40056e-09 3.19682e-08 0)
(-2.27916e-09 3.09051e-08 0)
(-2.13471e-09 2.99318e-08 0)
(-1.93198e-09 2.90371e-08 0)
(-1.67329e-09 2.82549e-08 0)
(-1.44208e-09 2.76215e-08 0)
(-1.29339e-09 2.7055e-08 0)
(-1.18773e-09 2.65429e-08 0)
(-1.11281e-09 2.61087e-08 0)
(-1.05479e-09 2.59412e-08 0)
(-9.8249e-10 2.57941e-08 0)
(-8.88131e-10 2.56693e-08 0)
(-7.62353e-10 2.5566e-08 0)
(-5.95809e-10 2.5486e-08 0)
(-3.83594e-10 2.54284e-08 0)
(-1.32965e-10 2.5376e-08 0)
(1.32965e-10 2.5376e-08 0)
(3.83594e-10 2.54284e-08 0)
(5.95809e-10 2.5486e-08 0)
(7.62353e-10 2.5566e-08 0)
(8.88131e-10 2.56693e-08 0)
(9.8249e-10 2.57941e-08 0)
(1.05479e-09 2.59412e-08 0)
(1.11281e-09 2.61087e-08 0)
(1.18773e-09 2.65429e-08 0)
(1.29339e-09 2.7055e-08 0)
(1.44208e-09 2.76215e-08 0)
(1.67329e-09 2.82549e-08 0)
(1.93198e-09 2.90371e-08 0)
(2.13471e-09 2.99318e-08 0)
(2.27916e-09 3.09051e-08 0)
(2.40056e-09 3.19682e-08 0)
(2.54219e-09 3.31279e-08 0)
(2.75569e-09 3.43934e-08 0)
(3.08172e-09 3.58318e-08 0)
(3.40118e-09 3.75794e-08 0)
(3.64262e-09 3.95009e-08 0)
(3.90063e-09 4.16445e-08 0)
(4.2547e-09 4.40611e-08 0)
(4.70054e-09 4.6897e-08 0)
(5.14497e-09 5.02615e-08 0)
(5.60859e-09 5.41516e-08 0)
(6.22703e-09 5.87408e-08 0)
(6.98086e-09 6.44403e-08 0)
(7.83379e-09 7.1554e-08 0)
(8.932e-09 8.06895e-08 0)
(1.04408e-08 9.30871e-08 0)
(1.26293e-08 1.11253e-07 0)
(1.63404e-08 1.41515e-07 0)
(2.4106e-08 2.05895e-07 0)
(5.06084e-08 3.70859e-07 0)
(2.05597e-07 8.10864e-07 0)
(8.1634e-06 2.80507e-05 0)
(1.05877e-05 2.83723e-06 0)
(8.09436e-07 3.82726e-06 0)
(-1.78463e-06 1.17961e-05 0)
(8.96643e-07 1.10536e-05 0)
(-1.74477e-06 6.04254e-06 0)
(-1.3618e-05 7.15392e-06 0)
(3.81944e-06 4.81117e-05 0)
(1.8729e-05 4.59622e-06 0)
(1.85199e-06 5.54796e-06 0)
(-2.18039e-06 6.92197e-06 0)
(-1.27331e-07 5.89082e-07 0)
(-4.07901e-08 3.03241e-07 0)
(-2.16087e-08 1.91593e-07 0)
(-1.55224e-08 1.40983e-07 0)
(-1.25626e-08 1.16226e-07 0)
(-1.07303e-08 1.00625e-07 0)
(-9.2905e-09 8.95185e-08 0)
(-8.2001e-09 8.12969e-08 0)
(-7.46229e-09 7.46627e-08 0)
(-6.76539e-09 6.91047e-08 0)
(-6.05775e-09 6.45886e-08 0)
(-5.5226e-09 6.08511e-08 0)
(-5.16298e-09 5.75638e-08 0)
(-4.8378e-09 5.46345e-08 0)
(-4.35732e-09 5.19447e-08 0)
(-3.854e-09 4.98389e-08 0)
(-3.55689e-09 4.7988e-08 0)
(-3.37154e-09 4.62843e-08 0)
(-3.21479e-09 4.47201e-08 0)
(-3.02283e-09 4.32789e-08 0)
(-2.73552e-09 4.19415e-08 0)
(-2.3451e-09 4.07773e-08 0)
(-2.00204e-09 3.98948e-08 0)
(-1.80483e-09 3.91057e-08 0)
(-1.67558e-09 3.83912e-08 0)
(-1.58623e-09 3.77882e-08 0)
(-1.51765e-09 3.75652e-08 0)
(-1.43101e-09 3.73754e-08 0)
(-1.31408e-09 3.72192e-08 0)
(-1.14987e-09 3.70913e-08 0)
(-9.18052e-10 3.69878e-08 0)
(-6.02916e-10 3.69033e-08 0)
(-2.11619e-10 3.68225e-08 0)
(2.11619e-10 3.68225e-08 0)
(6.02916e-10 3.69033e-08 0)
(9.18052e-10 3.69878e-08 0)
(1.14987e-09 3.70913e-08 0)
(1.31408e-09 3.72192e-08 0)
(1.43101e-09 3.73754e-08 0)
(1.51765e-09 3.75652e-08 0)
(1.58623e-09 3.77882e-08 0)
(1.67558e-09 3.83912e-08 0)
(1.80483e-09 3.91057e-08 0)
(2.00204e-09 3.98948e-08 0)
(2.3451e-09 4.07773e-08 0)
(2.73552e-09 4.19415e-08 0)
(3.02283e-09 4.32789e-08 0)
(3.21479e-09 4.47201e-08 0)
(3.37154e-09 4.62843e-08 0)
(3.55689e-09 4.7988e-08 0)
(3.854e-09 4.98389e-08 0)
(4.35732e-09 5.19447e-08 0)
(4.8378e-09 5.46345e-08 0)
(5.16298e-09 5.75638e-08 0)
(5.5226e-09 6.08511e-08 0)
(6.05775e-09 6.45886e-08 0)
(6.76539e-09 6.91047e-08 0)
(7.46229e-09 7.46627e-08 0)
(8.2001e-09 8.12969e-08 0)
(9.2905e-09 8.95185e-08 0)
(1.07303e-08 1.00625e-07 0)
(1.25626e-08 1.16226e-07 0)
(1.55224e-08 1.40983e-07 0)
(2.16087e-08 1.91593e-07 0)
(4.07901e-08 3.03241e-07 0)
(1.27331e-07 5.89082e-07 0)
(2.18039e-06 6.92197e-06 0)
(-1.85199e-06 5.54796e-06 0)
(-1.8729e-05 4.59622e-06 0)
(-3.81944e-06 4.81117e-05 0)
(1.3618e-05 7.15392e-06 0)
(1.74477e-06 6.04254e-06 0)
(-8.96643e-07 1.10536e-05 0)
(3.25057e-07 1.06849e-05 0)
(-1.92733e-06 7.91504e-06 0)
(-8.4601e-06 1.08823e-05 0)
(3.53969e-06 3.53816e-05 0)
(1.42181e-05 9.4946e-06 0)
(8.45071e-06 1.06627e-05 0)
(1.08812e-05 1.26044e-05 0)
(9.01501e-06 2.53363e-06 0)
(-4.42018e-07 4.2088e-06 0)
(-2.66144e-06 7.71603e-06 0)
(-1.35525e-07 5.30466e-07 0)
(-4.38896e-08 2.86771e-07 0)
(-2.29532e-08 2.03121e-07 0)
(-1.57006e-08 1.49504e-07 0)
(-1.25514e-08 1.24963e-07 0)
(-1.09679e-08 1.10098e-07 0)
(-9.67292e-09 9.92688e-08 0)
(-8.42847e-09 9.13141e-08 0)
(-7.57016e-09 8.51901e-08 0)
(-7.06424e-09 8.00056e-08 0)
(-6.64629e-09 7.55286e-08 0)
(-5.92072e-09 7.13946e-08 0)
(-5.13662e-09 6.84165e-08 0)
(-4.74597e-09 6.57994e-08 0)
(-4.5235e-09 6.3387e-08 0)
(-4.33924e-09 6.1182e-08 0)
(-4.10434e-09 5.9143e-08 0)
(-3.71578e-09 5.72284e-08 0)
(-3.13314e-09 5.55628e-08 0)
(-2.63305e-09 5.44261e-08 0)
(-2.39475e-09 5.33958e-08 0)
(-2.25856e-09 5.24572e-08 0)
(-2.16828e-09 5.16735e-08 0)
(-2.10107e-09 5.14013e-08 0)
(-2.01494e-09 5.1181e-08 0)
(-1.89217e-09 5.1009e-08 0)
(-1.70329e-09 5.0868e-08 0)
(-1.40525e-09 5.07371e-08 0)
(-9.52825e-10 5.06e-08 0)
(-3.41452e-10 5.04596e-08 0)
(3.41452e-10 5.04596e-08 0)
(9.52825e-10 5.06e-08 0)
(1.40525e-09 5.07371e-08 0)
(1.70329e-09 5.0868e-08 0)
(1.89217e-09 5.1009e-08 0)
(2.01494e-09 5.1181e-08 0)
(2.10107e-09 5.14013e-08 0)
(2.16828e-09 5.16735e-08 0)
(2.25856e-09 5.24572e-08 0)
(2.39475e-09 5.33958e-08 0)
(2.63305e-09 5.44261e-08 0)
(3.13314e-09 5.55628e-08 0)
(3.71578e-09 5.72284e-08 0)
(4.10434e-09 5.9143e-08 0)
(4.33924e-09 6.1182e-08 0)
(4.5235e-09 6.3387e-08 0)
(4.74597e-09 6.57994e-08 0)
(5.13662e-09 6.84165e-08 0)
(5.92072e-09 7.13946e-08 0)
(6.64629e-09 7.55286e-08 0)
(7.06424e-09 8.00056e-08 0)
(7.57016e-09 8.51901e-08 0)
(8.42847e-09 9.13141e-08 0)
(9.67292e-09 9.92688e-08 0)
(1.09679e-08 1.10098e-07 0)
(1.25514e-08 1.24963e-07 0)
(1.57006e-08 1.49504e-07 0)
(2.29532e-08 2.03121e-07 0)
(4.38896e-08 2.86771e-07 0)
(1.35525e-07 5.30466e-07 0)
(2.66144e-06 7.71603e-06 0)
(4.42018e-07 4.2088e-06 0)
(-9.01501e-06 2.53363e-06 0)
(-1.08812e-05 1.26044e-05 0)
(-8.45071e-06 1.06627e-05 0)
(-1.42181e-05 9.4946e-06 0)
(-3.53969e-06 3.53816e-05 0)
(8.4601e-06 1.08823e-05 0)
(1.92733e-06 7.91504e-06 0)
(-3.25057e-07 1.06849e-05 0)
(1.49529e-08 1.05748e-05 0)
(-1.66034e-06 9.3449e-06 0)
(-4.82573e-06 1.26806e-05 0)
(3.37709e-06 2.68082e-05 0)
(1.09346e-05 1.19477e-05 0)
(8.52928e-06 1.09218e-05 0)
(9.74073e-06 1.11322e-05 0)
(8.45402e-06 5.06335e-06 0)
(5.36178e-06 8.06352e-06 0)
(9.8551e-06 1.34662e-05 0)
(1.08553e-05 2.22466e-06 0)
(1.08293e-06 2.54529e-06 0)
(-2.6529e-06 7.77631e-06 0)
(-2.54613e-07 6.6782e-07 0)
(-6.44451e-08 3.10678e-07 0)
(-3.00023e-08 2.15373e-07 0)
(-1.80943e-08 1.70651e-07 0)
(-1.29358e-08 1.38681e-07 0)
(-1.07909e-08 1.22187e-07 0)
(-9.80449e-09 1.11233e-07 0)
(-9.17191e-09 1.03011e-07 0)
(-7.96651e-09 9.5806e-08 0)
(-6.65141e-09 9.13099e-08 0)
(-6.1524e-09 8.74189e-08 0)
(-5.90093e-09 8.39094e-08 0)
(-5.70092e-09 8.0786e-08 0)
(-5.43699e-09 7.79259e-08 0)
(-4.93019e-09 7.52124e-08 0)
(-4.04665e-09 7.28349e-08 0)
(-3.31157e-09 7.14844e-08 0)
(-3.06066e-09 7.01957e-08 0)
(-2.95088e-09 6.9007e-08 0)
(-2.88356e-09 6.80374e-08 0)
(-2.83989e-09 6.77326e-08 0)
(-2.78459e-09 6.75103e-08 0)
(-2.69596e-09 6.73572e-08 0)
(-2.52728e-09 6.72289e-08 0)
(-2.1916e-09 6.70584e-08 0)
(-1.56456e-09 6.67907e-08 0)
(-5.80489e-10 6.64873e-08 0)
(5.80489e-10 6.64873e-08 0)
(1.56456e-09 6.67907e-08 0)
(2.1916e-09 6.70584e-08 0)
(2.52728e-09 6.72289e-08 0)
(2.69596e-09 6.73572e-08 0)
(2.78459e-09 6.75103e-08 0)
(2.83989e-09 6.77326e-08 0)
(2.88356e-09 6.80374e-08 0)
(2.95088e-09 6.9007e-08 0)
(3.06066e-09 7.01957e-08 0)
(3.31157e-09 7.14844e-08 0)
(4.04665e-09 7.28349e-08 0)
(4.93019e-09 7.52124e-08 0)
(5.43699e-09 7.79259e-08 0)
(5.70092e-09 8.0786e-08 0)
(5.90093e-09 8.39094e-08 0)
(6.1524e-09 8.74189e-08 0)
(6.65141e-09 9.13099e-08 0)
(7.96651e-09 9.5806e-08 0)
(9.17191e-09 1.03011e-07 0)
(9.80449e-09 1.11233e-07 0)
(1.07909e-08 1.22187e-07 0)
(1.29358e-08 1.38681e-07 0)
(1.80943e-08 1.70651e-07 0)
(3.00023e-08 2.15373e-07 0)
(6.44451e-08 3.10678e-07 0)
(2.54613e-07 6.6782e-07 0)
(2.6529e-06 7.77631e-06 0)
(-1.08293e-06 2.54529e-06 0)
(-1.08553e-05 2.22466e-06 0)
(-9.8551e-06 1.34662e-05 0)
(-5.36178e-06 8.06352e-06 0)
(-8.45402e-06 5.06335e-06 0)
(-9.74073e-06 1.11322e-05 0)
(-8.52928e-06 1.09218e-05 0)
(-1.09346e-05 1.19477e-05 0)
(-3.37709e-06 2.68082e-05 0)
(4.82573e-06 1.26806e-05 0)
(1.66034e-06 9.3449e-06 0)
(-1.49529e-08 1.05748e-05 0)
(-1.01255e-07 1.06088e-05 0)
(-1.17182e-06 1.03194e-05 0)
(-2.33232e-06 1.32769e-05 0)
(3.28349e-06 2.11289e-05 0)
(8.6415e-06 1.28724e-05 0)
(8.14052e-06 1.10429e-05 0)
(8.81787e-06 1.03195e-05 0)
(8.00326e-06 6.64765e-06 0)
(6.42264e-06 8.18717e-06 0)
(9.00121e-06 1.07513e-05 0)
(9.53724e-06 4.37743e-06 0)
(6.00029e-06 5.22744e-06 0)
(1.01359e-05 1.30977e-05 0)
(1.31876e-05 2.13081e-06 0)
(8.74855e-06 1.20487e-06 0)
(1.92088e-06 2.22678e-06 0)
(-1.64331e-06 4.4282e-06 0)
(-1.77022e-07 4.34261e-07 0)
(-5.61213e-08 2.42794e-07 0)
(-2.82303e-08 1.84708e-07 0)
(-1.79048e-08 1.54761e-07 0)
(-1.2146e-08 1.36063e-07 0)
(-8.86941e-09 1.25366e-07 0)
(-8.07139e-09 1.16861e-07 0)
(-7.70332e-09 1.10291e-07 0)
(-7.44694e-09 1.05085e-07 0)
(-7.15492e-09 1.00659e-07 0)
(-6.50434e-09 9.6561e-08 0)
(-5.09978e-09 9.29425e-08 0)
(-3.97936e-09 9.1488e-08 0)
(-3.79529e-09 8.98792e-08 0)
(-3.76982e-09 8.83813e-08 0)
(-3.76027e-09 8.72214e-08 0)
(-3.7749e-09 8.69161e-08 0)
(-3.80367e-09 8.67494e-08 0)
(-3.8316e-09 8.66935e-08 0)
(-3.80066e-09 8.66476e-08 0)
(-3.55449e-09 8.64266e-08 0)
(-2.76108e-09 8.58115e-08 0)
(-1.08625e-09 8.49788e-08 0)
(1.08625e-09 8.49788e-08 0)
(2.76108e-09 8.58115e-08 0)
(3.55449e-09 8.64266e-08 0)
(3.80066e-09 8.66476e-08 0)
(3.8316e-09 8.66935e-08 0)
(3.80367e-09 8.67494e-08 0)
(3.7749e-09 8.69161e-08 0)
(3.76027e-09 8.72214e-08 0)
(3.76982e-09 8.83813e-08 0)
(3.79529e-09 8.98792e-08 0)
(3.97936e-09 9.1488e-08 0)
(5.09978e-09 9.29425e-08 0)
(6.50434e-09 9.6561e-08 0)
(7.15492e-09 1.00659e-07 0)
(7.44694e-09 1.05085e-07 0)
(7.70332e-09 1.10291e-07 0)
(8.07139e-09 1.16861e-07 0)
(8.86941e-09 1.25366e-07 0)
(1.2146e-08 1.36063e-07 0)
(1.79048e-08 1.54761e-07 0)
(2.82303e-08 1.84708e-07 0)
(5.61213e-08 2.42794e-07 0)
(1.77022e-07 4.34261e-07 0)
(1.64331e-06 4.4282e-06 0)
(-1.92088e-06 2.22678e-06 0)
(-8.74855e-06 1.20487e-06 0)
(-1.31876e-05 2.13081e-06 0)
(-1.01359e-05 1.30977e-05 0)
(-6.00029e-06 5.22744e-06 0)
(-9.53724e-06 4.37743e-06 0)
(-9.00121e-06 1.07513e-05 0)
(-6.42264e-06 8.18717e-06 0)
(-8.00326e-06 6.64765e-06 0)
(-8.81787e-06 1.03195e-05 0)
(-8.14052e-06 1.10429e-05 0)
(-8.6415e-06 1.28724e-05 0)
(-3.28349e-06 2.11289e-05 0)
(2.33232e-06 1.32769e-05 0)
(1.17182e-06 1.03194e-05 0)
(1.01255e-07 1.06088e-05 0)
(-9.158e-08 1.06871e-05 0)
(-6.21795e-07 1.08824e-05 0)
(-6.67981e-07 1.3184e-05 0)
(3.22154e-06 1.73858e-05 0)
(7.05193e-06 1.29048e-05 0)
(7.52796e-06 1.10023e-05 0)
(8.04136e-06 9.87855e-06 0)
(7.62987e-06 7.58e-06 0)
(6.92916e-06 8.16673e-06 0)
(8.38732e-06 9.15001e-06 0)
(8.73492e-06 5.62269e-06 0)
(7.1687e-06 6.02199e-06 0)
(9.59138e-06 9.66629e-06 0)
(1.13593e-05 3.62487e-06 0)
(8.96014e-06 2.45544e-06 0)
(7.72081e-06 4.1682e-06 0)
(1.06527e-05 7.37015e-06 0)
(1.23949e-05 1.21801e-06 0)
(1.06949e-05 5.43717e-07 0)
(1.00619e-05 3.05389e-07 0)
(9.98271e-06 1.58134e-07 0)
(4.98728e-06 -1.41165e-06 0)
(-6.33676e-08 1.67445e-07 0)
(-3.36721e-08 1.48305e-07 0)
(-2.02138e-08 1.33502e-07 0)
(-1.39292e-08 1.22752e-07 0)
(-1.0883e-08 1.14809e-07 0)
(-9.12722e-09 1.13935e-07 0)
(-6.43361e-09 1.16187e-07 0)
(-4.53152e-09 1.1592e-07 0)
(-4.61044e-09 1.13389e-07 0)
(-4.74908e-09 1.11219e-07 0)
(-4.8305e-09 1.09748e-07 0)
(-4.94443e-09 1.09458e-07 0)
(-5.13285e-09 1.09433e-07 0)
(-5.42233e-09 1.09637e-07 0)
(-5.7986e-09 1.0988e-07 0)
(-6.08258e-09 1.0972e-07 0)
(-5.44352e-09 1.08215e-07 0)
(-2.36196e-09 1.05412e-07 0)
(2.36196e-09 1.05412e-07 0)
(5.44352e-09 1.08215e-07 0)
(6.08258e-09 1.0972e-07 0)
(5.7986e-09 1.0988e-07 0)
(5.42233e-09 1.09637e-07 0)
(5.13285e-09 1.09433e-07 0)
(4.94443e-09 1.09458e-07 0)
(4.8305e-09 1.09748e-07 0)
(4.74908e-09 1.11219e-07 0)
(4.61044e-09 1.13389e-07 0)
(4.53152e-09 1.1592e-07 0)
(6.43361e-09 1.16187e-07 0)
(9.12722e-09 1.13935e-07 0)
(1.0883e-08 1.14809e-07 0)
(1.39292e-08 1.22752e-07 0)
(2.02138e-08 1.33502e-07 0)
(3.36721e-08 1.48305e-07 0)
(6.33676e-08 1.67445e-07 0)
(-4.98728e-06 -1.41165e-06 0)
(-9.98271e-06 1.58134e-07 0)
(-1.00619e-05 3.05389e-07 0)
(-1.06949e-05 5.43717e-07 0)
(-1.23949e-05 1.21801e-06 0)
(-1.06527e-05 7.37015e-06 0)
(-7.72081e-06 4.1682e-06 0)
(-8.96014e-06 2.45544e-06 0)
(-1.13593e-05 3.62487e-06 0)
(-9.59138e-06 9.66629e-06 0)
(-7.1687e-06 6.02199e-06 0)
(-8.73492e-06 5.62269e-06 0)
(-8.38732e-06 9.15001e-06 0)
(-6.92916e-06 8.16673e-06 0)
(-7.62987e-06 7.58e-06 0)
(-8.04136e-06 9.87855e-06 0)
(-7.52796e-06 1.10023e-05 0)
(-7.05193e-06 1.29048e-05 0)
(-3.22154e-06 1.73858e-05 0)
(6.67981e-07 1.3184e-05 0)
(6.21795e-07 1.08824e-05 0)
(9.158e-08 1.06871e-05 0)
(-1.50102e-08 1.07331e-05 0)
(-1.10504e-07 1.11067e-05 0)
(4.09513e-07 1.27365e-05 0)
(3.16484e-06 1.48906e-05 0)
(5.94594e-06 1.24704e-05 0)
(6.84899e-06 1.08123e-05 0)
(7.36543e-06 9.60881e-06 0)
(7.2753e-06 8.06702e-06 0)
(7.07442e-06 8.07186e-06 0)
(7.92505e-06 8.22682e-06 0)
(8.21865e-06 6.26078e-06 0)
(7.69213e-06 6.29663e-06 0)
(9.11859e-06 7.69402e-06 0)
(1.01459e-05 4.36469e-06 0)
(8.97119e-06 3.28567e-06 0)
(8.42134e-06 4.12241e-06 0)
(1.01073e-05 5.3803e-06 0)
(1.11984e-05 1.9566e-06 0)
(1.03898e-05 9.0649e-07 0)
(9.92756e-06 4.28e-07 0)
(1.00156e-05 2.78951e-08 0)
(8.78785e-06 -2.31471e-06 0)
(7.83471e-06 -3.78228e-08 0)
(8.62547e-06 1.89832e-08 0)
(9.18008e-06 2.58013e-08 0)
(8.8863e-06 3.15145e-07 0)
(6.07221e-06 -1.1334e-06 0)
(2.36591e-06 -5.97772e-06 0)
(4.62715e-07 -1.16745e-05 0)
(-9.0166e-09 7.13448e-08 0)
(-1.04773e-08 7.90179e-08 0)
(-9.03296e-09 8.2968e-08 0)
(-8.39622e-09 8.53824e-08 0)
(-8.23353e-09 8.74835e-08 0)
(-8.34894e-09 8.99841e-08 0)
(-8.85798e-09 9.30192e-08 0)
(-9.93601e-09 9.66449e-08 0)
(-1.18684e-08 1.00745e-07 0)
(-1.30089e-08 1.04534e-07 0)
(-6.46113e-09 1.07263e-07 0)
(6.46113e-09 1.07263e-07 0)
(1.30089e-08 1.04534e-07 0)
(1.18684e-08 1.00745e-07 0)
(9.93601e-09 9.66449e-08 0)
(8.85798e-09 9.30192e-08 0)
(8.34894e-09 8.99841e-08 0)
(8.23353e-09 8.74835e-08 0)
(8.39622e-09 8.53824e-08 0)
(9.03296e-09 8.2968e-08 0)
(1.04773e-08 7.90179e-08 0)
(9.0166e-09 7.13448e-08 0)
(-4.62715e-07 -1.16745e-05 0)
(-2.36591e-06 -5.97772e-06 0)
(-6.07221e-06 -1.1334e-06 0)
(-8.8863e-06 3.15145e-07 0)
(-9.18008e-06 2.58013e-08 0)
(-8.62547e-06 1.89832e-08 0)
(-7.83471e-06 -3.78228e-08 0)
(-8.78785e-06 -2.31471e-06 0)
(-1.00156e-05 2.78951e-08 0)
(-9.92756e-06 4.28e-07 0)
(-1.03898e-05 9.0649e-07 0)
(-1.11984e-05 1.9566e-06 0)
(-1.01073e-05 5.3803e-06 0)
(-8.42134e-06 4.12241e-06 0)
(-8.97119e-06 3.28567e-06 0)
(-1.01459e-05 4.36469e-06 0)
(-9.11859e-06 7.69402e-06 0)
(-7.69213e-06 6.29663e-06 0)
(-8.21865e-06 6.26078e-06 0)
(-7.92505e-06 8.22682e-06 0)
(-7.07442e-06 8.07186e-06 0)
(-7.2753e-06 8.06702e-06 0)
(-7.36543e-06 9.60881e-06 0)
(-6.84899e-06 1.08123e-05 0)
(-5.94594e-06 1.24704e-05 0)
(-3.16484e-06 1.48906e-05 0)
(-4.09513e-07 1.27365e-05 0)
(1.10504e-07 1.11067e-05 0)
(1.50102e-08 1.07331e-05 0)
(8.39433e-08 1.06971e-05 0)
(3.09564e-07 1.10717e-05 0)
(1.08026e-06 1.21339e-05 0)
(3.09676e-06 1.31736e-05 0)
(5.16227e-06 1.18306e-05 0)
(6.19268e-06 1.05025e-05 0)
(6.76274e-06 9.38538e-06 0)
(6.91171e-06 8.25624e-06 0)
(6.99333e-06 7.93464e-06 0)
(7.54537e-06 7.68404e-06 0)
(7.83989e-06 6.5156e-06 0)
(7.81973e-06 6.29801e-06 0)
(8.69128e-06 6.58008e-06 0)
(9.31846e-06 4.67764e-06 0)
(8.84045e-06 3.76613e-06 0)
(8.6785e-06 3.98168e-06 0)
(9.64514e-06 4.23857e-06 0)
(1.03204e-05 2.24297e-06 0)
(9.97605e-06 1.17405e-06 0)
(9.64957e-06 5.43546e-07 0)
(9.4946e-06 -4.93935e-08 0)
(8.74037e-06 -1.27776e-06 0)
(8.20664e-06 -3.56293e-07 0)
(8.66805e-06 -2.68159e-07 0)
(9.42245e-06 -3.32461e-07 0)
(1.13275e-05 -2.2975e-07 0)
(1.40534e-05 -3.04621e-06 0)
(1.32062e-05 -1.09781e-05 0)
(2.51315e-06 -1.90977e-05 0)
(-2.51366e-06 -1.79213e-06 0)
(1.77009e-06 -7.1258e-07 0)
(2.54099e-06 -1.0826e-06 0)
(2.60826e-06 -1.44943e-06 0)
(2.79116e-06 -1.77519e-06 0)
(3.23952e-06 -2.30727e-06 0)
(4.65914e-06 -3.60993e-06 0)
(6.8588e-06 -4.16467e-06 0)
(9.11829e-06 -4.89695e-06 0)
(9.20839e-06 -3.13971e-06 0)
(4.07005e-06 -2.47273e-06 0)
(-4.07005e-06 -2.47273e-06 0)
(-9.20839e-06 -3.13971e-06 0)
(-9.11829e-06 -4.89695e-06 0)
(-6.8588e-06 -4.16467e-06 0)
(-4.65914e-06 -3.60993e-06 0)
(-3.23952e-06 -2.30727e-06 0)
(-2.79116e-06 -1.77519e-06 0)
(-2.60826e-06 -1.44943e-06 0)
(-2.54099e-06 -1.0826e-06 0)
(-1.77009e-06 -7.1258e-07 0)
(2.51366e-06 -1.79213e-06 0)
(-2.51315e-06 -1.90977e-05 0)
(-1.32062e-05 -1.09781e-05 0)
(-1.40534e-05 -3.04621e-06 0)
(-1.13275e-05 -2.2975e-07 0)
(-9.42245e-06 -3.32461e-07 0)
(-8.66805e-06 -2.68159e-07 0)
(-8.20664e-06 -3.56293e-07 0)
(-8.74037e-06 -1.27776e-06 0)
(-9.4946e-06 -4.93935e-08 0)
(-9.64957e-06 5.43546e-07 0)
(-9.97605e-06 1.17405e-06 0)
(-1.03204e-05 2.24297e-06 0)
(-9.64514e-06 4.23857e-06 0)
(-8.6785e-06 3.98168e-06 0)
(-8.84045e-06 3.76613e-06 0)
(-9.31846e-06 4.67764e-06 0)
(-8.69128e-06 6.58008e-06 0)
(-7.81973e-06 6.29801e-06 0)
(-7.83989e-06 6.5156e-06 0)
(-7.54537e-06 7.68404e-06 0)
(-6.99333e-06 7.93464e-06 0)
(-6.91171e-06 8.25624e-06 0)
(-6.76274e-06 9.38538e-06 0)
(-6.19268e-06 1.05025e-05 0)
(-5.16227e-06 1.18306e-05 0)
(-3.09676e-06 1.31736e-05 0)
(-1.08026e-06 1.21339e-05 0)
(-3.09564e-07 1.10717e-05 0)
(-8.39433e-08 1.06971e-05 0)
(1.76598e-07 1.05549e-05 0)
(6.20378e-07 1.08491e-05 0)
(1.47329e-06 1.14826e-05 0)
(3.00859e-06 1.19295e-05 0)
(4.58743e-06 1.11298e-05 0)
(5.59943e-06 1.0107e-05 0)
(6.21752e-06 9.14166e-06 0)
(6.53145e-06 8.24729e-06 0)
(6.775e-06 7.76496e-06 0)
(7.19977e-06 7.33232e-06 0)
(7.51102e-06 6.5416e-06 0)
(7.71441e-06 6.16807e-06 0)
(8.28982e-06 5.94034e-06 0)
(8.71491e-06 4.75732e-06 0)
(8.61012e-06 3.99016e-06 0)
(8.65014e-06 3.81812e-06 0)
(9.21838e-06 3.58778e-06 0)
(9.63774e-06 2.31233e-06 0)
(9.51731e-06 1.34871e-06 0)
(9.29748e-06 6.5962e-07 0)
(9.088e-06 3.15922e-08 0)
(8.62764e-06 -7.13793e-07 0)
(8.34086e-06 -4.85762e-07 0)
(8.63415e-06 -5.39797e-07 0)
(9.27452e-06 -8.06995e-07 0)
(1.04859e-05 -1.41153e-06 0)
(1.16589e-05 -3.91967e-06 0)
(1.02504e-05 -8.87936e-06 0)
(4.20034e-06 -1.23205e-05 0)
(1.04686e-06 -4.22292e-06 0)
(3.50819e-06 -2.21417e-06 0)
(5.74913e-06 -2.70922e-06 0)
(7.07538e-06 -3.49531e-06 0)
(7.99221e-06 -4.21503e-06 0)
(9.00239e-06 -5.3384e-06 0)
(9.71512e-06 -7.51913e-06 0)
(1.01691e-05 -9.21633e-06 0)
(9.19438e-06 -8.49764e-06 0)
(6.16502e-06 -4.70308e-06 0)
(2.18906e-06 -3.13222e-06 0)
(-2.18906e-06 -3.13222e-06 0)
(-6.16502e-06 -4.70308e-06 0)
(-9.19438e-06 -8.49764e-06 0)
(-1.01691e-05 -9.21633e-06 0)
(-9.71512e-06 -7.51913e-06 0)
(-9.00239e-06 -5.3384e-06 0)
(-7.99221e-06 -4.21503e-06 0)
(-7.07538e-06 -3.49531e-06 0)
(-5.74913e-06 -2.70922e-06 0)
(-3.50819e-06 -2.21417e-06 0)
(-1.04686e-06 -4.22292e-06 0)
(-4.20034e-06 -1.23205e-05 0)
(-1.02504e-05 -8.87936e-06 0)
(-1.16589e-05 -3.91967e-06 0)
(-1.04859e-05 -1.41153e-06 0)
(-9.27452e-06 -8.06995e-07 0)
(-8.63415e-06 -5.39797e-07 0)
(-8.34086e-06 -4.85762e-07 0)
(-8.62764e-06 -7.13793e-07 0)
(-9.088e-06 3.15922e-08 0)
(-9.29748e-06 6.5962e-07 0)
(-9.51731e-06 1.34871e-06 0)
(-9.63774e-06 2.31233e-06 0)
(-9.21838e-06 3.58778e-06 0)
(-8.65014e-06 3.81812e-06 0)
(-8.61012e-06 3.99016e-06 0)
(-8.71491e-06 4.75732e-06 0)
(-8.28982e-06 5.94034e-06 0)
(-7.71441e-06 6.16807e-06 0)
(-7.51102e-06 6.5416e-06 0)
(-7.19977e-06 7.33232e-06 0)
(-6.775e-06 7.76496e-06 0)
(-6.53145e-06 8.24729e-06 0)
(-6.21752e-06 9.14166e-06 0)
(-5.59943e-06 1.0107e-05 0)
(-4.58743e-06 1.11298e-05 0)
(-3.00859e-06 1.19295e-05 0)
(-1.47329e-06 1.14826e-05 0)
(-6.20378e-07 1.08491e-05 0)
(-1.76598e-07 1.05549e-05 0)
(2.4825e-07 1.03027e-05 0)
(8.25907e-07 1.0496e-05 0)
(1.67857e-06 1.08311e-05 0)
(2.89749e-06 1.09673e-05 0)
(4.1445e-06 1.04366e-05 0)
(5.07909e-06 9.65583e-06 0)
(5.72016e-06 8.85058e-06 0)
(6.13766e-06 8.10474e-06 0)
(6.47555e-06 7.56248e-06 0)
(6.85828e-06 7.06033e-06 0)
(7.186e-06 6.4368e-06 0)
(7.47578e-06 5.98005e-06 0)
(7.89923e-06 5.54418e-06 0)
(8.22825e-06 4.71193e-06 0)
(8.30956e-06 4.04432e-06 0)
(8.44425e-06 3.65848e-06 0)
(8.79956e-06 3.20924e-06 0)
(9.06764e-06 2.29008e-06 0)
(9.04703e-06 1.45131e-06 0)
(8.90788e-06 7.66263e-07 0)
(8.72504e-06 1.55302e-07 0)
(8.44657e-06 -4.07283e-07 0)
(8.29613e-06 -5.38457e-07 0)
(8.48212e-06 -7.66482e-07 0)
(8.92332e-06 -1.21194e-06 0)
(9.57559e-06 -2.08907e-06 0)
(9.88675e-06 -4.09286e-06 0)
(8.54428e-06 -7.08764e-06 0)
(5.09242e-06 -8.58627e-06 0)
(3.0942e-06 -4.95422e-06 0)
(3.99044e-06 -3.4179e-06 0)
(5.33934e-06 -3.59564e-06 0)
(6.217e-06 -4.39415e-06 0)
(6.69275e-06 -5.13471e-06 0)
(7.06217e-06 -6.20782e-06 0)
(7.18949e-06 -7.72716e-06 0)
(6.91714e-06 -9.68231e-06 0)
(5.39014e-06 -5.42788e-06 0)
(3.05157e-06 -2.22023e-06 0)
(9.93661e-07 -8.2511e-07 0)
(-9.93661e-07 -8.2511e-07 0)
(-3.05157e-06 -2.22023e-06 0)
(-5.39014e-06 -5.42788e-06 0)
(-6.91714e-06 -9.68231e-06 0)
(-7.18949e-06 -7.72716e-06 0)
(-7.06217e-06 -6.20782e-06 0)
(-6.69275e-06 -5.13471e-06 0)
(-6.217e-06 -4.39415e-06 0)
(-5.33934e-06 -3.59564e-06 0)
(-3.99044e-06 -3.4179e-06 0)
(-3.0942e-06 -4.95422e-06 0)
(-5.09242e-06 -8.58627e-06 0)
(-8.54428e-06 -7.08764e-06 0)
(-9.88675e-06 -4.09286e-06 0)
(-9.57559e-06 -2.08907e-06 0)
(-8.92332e-06 -1.21194e-06 0)
(-8.48212e-06 -7.66482e-07 0)
(-8.29613e-06 -5.38457e-07 0)
(-8.44657e-06 -4.07283e-07 0)
(-8.72504e-06 1.55302e-07 0)
(-8.90788e-06 7.66263e-07 0)
(-9.04703e-06 1.45131e-06 0)
(-9.06764e-06 2.29008e-06 0)
(-8.79956e-06 3.20924e-06 0)
(-8.44425e-06 3.65848e-06 0)
(-8.30956e-06 4.04432e-06 0)
(-8.22825e-06 4.71193e-06 0)
(-7.89923e-06 5.54418e-06 0)
(-7.47578e-06 5.98005e-06 0)
(-7.186e-06 6.4368e-06 0)
(-6.85828e-06 7.06033e-06 0)
(-6.47555e-06 7.56248e-06 0)
(-6.13766e-06 8.10474e-06 0)