/*--------------------------------*- C++ -*----------------------------------*\
  =========                 |
  \\      /  F ield         | OpenFOAM: The Open Source CFD Toolbox
   \\    /   O peration     | Website:  https://openfoam.org
    \\  /    A nd           | Version:  11
     \\/     M anipulation  |
\*---------------------------------------------------------------------------*/
FoamFile
{
    format      ascii;
    class       volVectorField;
    location    "40";
    object      U;
}
// * * * * * * * * * * * * * * * * * * * * * * * * * * * * * * * * * * * * * //

dimensions      [0 1 -1 0 0 0 0];

internalField   nonuniform List<vector> 
2048
(
(1.00014 -0.000597384 0)
(1.00256 -0.00180154 0)
(1.00733 -0.00302981 0)
(1.01461 -0.0042963 0)
(1.0245 -0.00561148 0)
(1.03706 -0.00697856 0)
(1.05239 -0.00839072 0)
(1.07056 -0.00982926 0)
(1.09161 -0.0112626 0)
(1.11549 -0.0126464 0)
(1.14208 -0.0139241 0)
(1.17111 -0.0150305 0)
(1.20219 -0.0158968 0)
(1.23478 -0.0164598 0)
(1.26824 -0.0166744 0)
(1.30185 -0.0165241 0)
(1.33487 -0.016028 0)
(1.36661 -0.0152404 0)
(1.39651 -0.0142387 0)
(1.42419 -0.0131044 0)
(1.44943 -0.0119079 0)
(1.47218 -0.0107032 0)
(1.49247 -0.00952978 0)
(1.51042 -0.00841632 0)
(1.52618 -0.00738223 0)
(1.53993 -0.00643912 0)
(1.55188 -0.00559274 0)
(1.56223 -0.00484504 0)
(1.57117 -0.0041955 0)
(1.5789 -0.00364183 0)
(1.58562 -0.00318021 0)
(1.59151 -0.00280553 0)
(1.59673 -0.00251156 0)
(1.60144 -0.00229094 0)
(1.60579 -0.00213506 0)
(1.60989 -0.00203397 0)
(1.61383 -0.00197635 0)
(1.61771 -0.00194961 0)
(1.62156 -0.00194009 0)
(1.62541 -0.00193337 0)
(1.62925 -0.00191479 0)
(1.63305 -0.00187001 0)
(1.63673 -0.00178583 0)
(1.6402 -0.00165082 0)
(1.64336 -0.00145616 0)
(1.64607 -0.00119641 0)
(1.64821 -0.000870286 0)
(1.64963 -0.000481418 0)
(1.65022 -3.78693e-05 0)
(1.64987 0.000447027 0)
(1.6485 0.000956852 0)
(1.6461 0.00147038 0)
(1.64266 0.00196725 0)
(1.63824 0.00242338 0)
(1.63295 0.00282318 0)
(1.62689 0.00314233 0)
(1.62031 0.00338186 0)
(1.61323 0.00351282 0)
(1.60619 0.00357327 0)
(1.5987 0.00350331 0)
(1.59225 0.0034251 0)
(1.58449 0.00316533 0)
(1.58023 0.00305829 0)
(1.57092 0.00258884 0)
(1.00013 -0.00178686 0)
(1.00253 -0.00538863 0)
(1.00725 -0.00906463 0)
(1.01446 -0.0128603 0)
(1.02426 -0.0168095 0)
(1.03676 -0.0209239 0)
(1.05206 -0.025185 0)
(1.07025 -0.0295375 0)
(1.09139 -0.0338861 0)
(1.11549 -0.0380947 0)
(1.14242 -0.0419891 0)
(1.17193 -0.0453681 0)
(1.20362 -0.0480187 0)
(1.23694 -0.0497433 0)
(1.27119 -0.0503971 0)
(1.30559 -0.0499236 0)
(1.33931 -0.0483816 0)
(1.37163 -0.045946 0)
(1.40195 -0.0428649 0)
(1.42988 -0.0393936 0)
(1.45525 -0.0357474 0)
(1.47802 -0.0320885 0)
(1.49827 -0.0285356 0)
(1.51611 -0.025173 0)
(1.53174 -0.022057 0)
(1.54534 -0.01922 0)
(1.55712 -0.0166775 0)
(1.56728 -0.0144343 0)
(1.57605 -0.0124882 0)
(1.58361 -0.0108315 0)
(1.59017 -0.00945243 0)
(1.5959 -0.00833536 0)
(1.60098 -0.0074616 0)
(1.60556 -0.00680909 0)
(1.6098 -0.00635203 0)
(1.6138 -0.0060605 0)
(1.61769 -0.00590045 0)
(1.62152 -0.00583385 0)
(1.62536 -0.00581937 0)
(1.62922 -0.00581324 0)
(1.63311 -0.00577083 0)
(1.63697 -0.00564829 0)
(1.64074 -0.00540514 0)
(1.64433 -0.00500642 0)
(1.64761 -0.00442526 0)
(1.65045 -0.00364539 0)
(1.6527 -0.00266223 0)
(1.65423 -0.00148595 0)
(1.6549 -0.000140636 0)
(1.65459 0.00133298 0)
(1.65324 0.00288407 0)
(1.6508 0.0044468 0)
(1.64728 0.00595846 0)
(1.64273 0.00734539 0)
(1.63727 0.00855955 0)
(1.63103 0.00952655 0)
(1.62423 0.0102492 0)
(1.61694 0.0106395 0)
(1.60968 0.0108137 0)
(1.602 0.0105897 0)
(1.59538 0.0103408 0)
(1.5875 0.00953983 0)
(1.58315 0.00920731 0)
(1.57378 0.00777714 0)
(1.00013 -0.00295381 0)
(1.00247 -0.00891027 0)
(1.00707 -0.0149991 0)
(1.01412 -0.0213044 0)
(1.02375 -0.0278912 0)
(1.03609 -0.0347863 0)
(1.05129 -0.0419668 0)
(1.06949 -0.0493454 0)
(1.09082 -0.0567636 0)
(1.11532 -0.0639852 0)
(1.14292 -0.0707013 0)
(1.1734 -0.0765527 0)
(1.20634 -0.0811561 0)
(1.24115 -0.0841549 0)
(1.27703 -0.0852806 0)
(1.31306 -0.0844169 0)
(1.34826 -0.0816699 0)
(1.38175 -0.0773745 0)
(1.41288 -0.0719946 0)
(1.4413 -0.0659875 0)
(1.46689 -0.0597236 0)
(1.48968 -0.0534767 0)
(1.5098 -0.0474443 0)
(1.52743 -0.0417633 0)
(1.54276 -0.0365197 0)
(1.55602 -0.0317603 0)
(1.56745 -0.0275055 0)
(1.57726 -0.0237603 0)
(1.58566 -0.0205186 0)
(1.59288 -0.017766 0)
(1.59909 -0.0154811 0)
(1.60451 -0.0136376 0)
(1.6093 -0.0122043 0)
(1.61362 -0.0111445 0)
(1.61763 -0.0104153 0)
(1.62145 -0.00996672 0)
(1.62519 -0.00974155 0)
(1.62894 -0.00967565 0)
(1.63274 -0.00969886 0)
(1.63663 -0.00973656 0)
(1.6406 -0.00971208 0)
(1.6446 -0.00954988 0)
(1.64856 -0.0091793 0)
(1.65237 -0.00853942 0)
(1.6559 -0.00758252 0)
(1.659 -0.00628003 0)
(1.6615 -0.00462464 0)
(1.66324 -0.00263219 0)
(1.66408 -0.000341667 0)
(1.66388 0.00217744 0)
(1.66254 0.00483621 0)
(1.66003 0.0075184 0)
(1.65633 0.0101135 0)
(1.65153 0.0124933 0)
(1.64573 0.0145724 0)
(1.63909 0.016222 0)
(1.63186 0.0174447 0)
(1.62412 0.0180906 0)
(1.61642 0.0183581 0)
(1.60837 0.0179391 0)
(1.6014 0.0174743 0)
(1.59328 0.0160675 0)
(1.58874 0.0154689 0)
(1.57928 0.0130093 0)
(1.00013 -0.00407555 0)
(1.00236 -0.0123028 0)
(1.00677 -0.0207361 0)
(1.01356 -0.0295093 0)
(1.02287 -0.0387298 0)
(1.03491 -0.0484514 0)
(1.04988 -0.0586609 0)
(1.06803 -0.069249 0)
(1.08956 -0.0800038 0)
(1.11462 -0.0905797 0)
(1.14321 -0.100506 0)
(1.17516 -0.109213 0)
(1.21004 -0.116079 0)
(1.24719 -0.120535 0)
(1.28566 -0.122148 0)
(1.32428 -0.120721 0)
(1.36178 -0.116449 0)
(1.39705 -0.109915 0)
(1.42937 -0.10187 0)
(1.45846 -0.093006 0)
(1.4843 -0.0838565 0)
(1.50706 -0.0748115 0)
(1.52692 -0.066148 0)
(1.54415 -0.0580477 0)
(1.55899 -0.0506129 0)
(1.57173 -0.0438923 0)
(1.5826 -0.0379045 0)
(1.59184 -0.0326503 0)
(1.59969 -0.028117 0)
(1.60636 -0.0242805 0)
(1.61206 -0.0211092 0)
(1.61698 -0.0185653 0)
(1.62131 -0.0166052 0)
(1.62522 -0.0151784 0)
(1.62887 -0.0142248 0)
(1.63239 -0.0136742 0)
(1.63591 -0.0134458 0)
(1.6395 -0.013448 0)
(1.64324 -0.0135802 0)
(1.64716 -0.0137341 0)
(1.65123 -0.0137979 0)
(1.65543 -0.0136605 0)
(1.65965 -0.0132173 0)
(1.66379 -0.0123766 0)
(1.66768 -0.0110664 0)
(1.67116 -0.00923954 0)
(1.67403 -0.00688343 0)
(1.67611 -0.00402271 0)
(1.6772 -0.000712432 0)
(1.67715 0.00294969 0)
(1.67584 0.0068256 0)
(1.67321 0.0107434 0)
(1.66925 0.014538 0)
(1.66405 0.0180172 0)
(1.65773 0.0210489 0)
(1.65047 0.0234428 0)
(1.64255 0.0251961 0)
(1.63414 0.026093 0)
(1.62576 0.0264175 0)
(1.61711 0.0257332 0)
(1.60961 0.0249696 0)
(1.60113 0.0228464 0)
(1.59629 0.0219059 0)
(1.5867 0.0183005 0)
(1.00012 -0.00512663 0)
(1.00219 -0.0154927 0)
(1.00631 -0.0261593 0)
(1.01267 -0.0373266 0)
(1.02148 -0.0491591 0)
(1.033 -0.0617561 0)
(1.04754 -0.0751336 0)
(1.06545 -0.089174 0)
(1.08709 -0.103641 0)
(1.11277 -0.118076 0)
(1.14261 -0.13184 0)
(1.17656 -0.144077 0)
(1.2142 -0.153776 0)
(1.25472 -0.160034 0)
(1.29694 -0.162126 0)
(1.3393 -0.159751 0)
(1.38001 -0.153341 0)
(1.41764 -0.143923 0)
(1.45145 -0.132643 0)
(1.4813 -0.120446 0)
(1.50737 -0.10803 0)
(1.52994 -0.0959025 0)
(1.54935 -0.0844163 0)
(1.56595 -0.0737788 0)
(1.58007 -0.0640846 0)
(1.59203 -0.0553672 0)
(1.6021 -0.0476329 0)
(1.61054 -0.0408721 0)
(1.61759 -0.0350603 0)
(1.62348 -0.0301614 0)
(1.62842 -0.0261325 0)
(1.63262 -0.0229252 0)
(1.63627 -0.0204847 0)
(1.63956 -0.0187469 0)
(1.64264 -0.0176356 0)
(1.64567 -0.0170604 0)
(1.64878 -0.0169162 0)
(1.65207 -0.0170829 0)
(1.65561 -0.0174261 0)
(1.65944 -0.0178005 0)
(1.66356 -0.0180543 0)
(1.6679 -0.0180351 0)
(1.67237 -0.017599 0)
(1.67685 -0.0166181 0)
(1.68114 -0.0149902 0)
(1.68506 -0.0126483 0)
(1.68836 -0.00956656 0)
(1.69082 -0.00576988 0)
(1.69221 -0.00133411 0)
(1.69235 0.00362584 0)
(1.69106 0.00888558 0)
(1.68827 0.0142063 0)
(1.68397 0.0193645 0)
(1.67824 0.0240945 0)
(1.67122 0.0282034 0)
(1.66315 0.0314304 0)
(1.65433 0.0337581 0)
(1.64498 0.0349005 0)
(1.63569 0.0352291 0)
(1.62624 0.0341757 0)
(1.61802 0.0329878 0)
(1.60905 0.0299791 0)
(1.60383 0.0285804 0)
(1.59408 0.0236571 0)
(1.0001 -0.00607264 0)
(1.00195 -0.0183813 0)
(1.00562 -0.0311056 0)
(1.01134 -0.044542 0)
(1.01938 -0.0589238 0)
(1.03006 -0.0744341 0)
(1.04383 -0.0911369 0)
(1.06118 -0.108923 0)
(1.08266 -0.127573 0)
(1.10882 -0.146499 0)
(1.14004 -0.164976 0)
(1.1765 -0.181771 0)
(1.21786 -0.195345 0)
(1.26312 -0.204189 0)
(1.31071 -0.206873 0)
(1.35826 -0.202916 0)
(1.40321 -0.193358 0)
(1.44376 -0.180039 0)
(1.47929 -0.164654 0)
(1.50992 -0.148423 0)
(1.53606 -0.132201 0)
(1.55817 -0.116613 0)
(1.57676 -0.102063 0)
(1.59232 -0.0887407 0)
(1.60528 -0.0766994 0)
(1.61601 -0.0659386 0)
(1.62481 -0.0564413 0)
(1.63195 -0.048176 0)
(1.6377 -0.0410976 0)
(1.64229 -0.035154 0)
(1.64597 -0.0302912 0)
(1.64893 -0.0264531 0)
(1.65137 -0.0235761 0)
(1.6535 -0.0215846 0)
(1.65549 -0.0203869 0)
(1.65751 -0.0198733 0)
(1.65969 -0.0199153 0)
(1.66217 -0.0203632 0)
(1.66502 -0.0210462 0)
(1.6683 -0.0217769 0)
(1.672 -0.0223574 0)
(1.67607 -0.0225871 0)
(1.68042 -0.0222738 0)
(1.68491 -0.0212457 0)
(1.68933 -0.0193618 0)
(1.69346 -0.01653 0)
(1.69705 -0.0127157 0)
(1.69982 -0.00794128 0)
(1.70153 -0.00229145 0)
(1.70189 0.00410506 0)
(1.70067 0.0109469 0)
(1.69779 0.0178943 0)
(1.69323 0.0246392 0)
(1.68706 0.0308306 0)
(1.67941 0.0361952 0)
(1.67053 0.0403891 0)
(1.66079 0.043364 0)
(1.65047 0.0447608 0)
(1.6402 0.0450347 0)
(1.62986 0.0434856 0)
(1.62088 0.0417076 0)
(1.61133 0.0375857 0)
(1.60573 0.0355604 0)
(1.59581 0.0290833 0)
(1.00008 -0.0068688 0)
(1.0016 -0.0208422 0)
(1.00465 -0.0353547 0)
(1.00944 -0.0508608 0)
(1.01633 -0.0676414 0)
(1.02571 -0.0860738 0)
(1.03822 -0.106251 0)
(1.05448 -0.128162 0)
(1.07534 -0.15161 0)
(1.10158 -0.175773 0)
(1.13397 -0.200028 0)
(1.1733 -0.222572 0)
(1.21936 -0.24152 0)
(1.27113 -0.254319 0)
(1.32651 -0.257869 0)
(1.38158 -0.251479 0)
(1.43229 -0.237458 0)
(1.47643 -0.218923 0)
(1.5137 -0.198265 0)
(1.54465 -0.177024 0)
(1.56995 -0.156259 0)
(1.59035 -0.136717 0)
(1.60666 -0.118785 0)
(1.61961 -0.102556 0)
(1.62982 -0.0880051 0)
(1.6377 -0.0750936 0)
(1.64362 -0.0637724 0)
(1.64791 -0.0539717 0)
(1.65084 -0.0456109 0)
(1.65269 -0.0386142 0)
(1.65367 -0.0329153 0)
(1.65399 -0.0284518 0)
(1.65387 -0.025155 0)
(1.65349 -0.0229411 0)
(1.65305 -0.0217048 0)
(1.65272 -0.0213199 0)
(1.65264 -0.0216375 0)
(1.65297 -0.0224812 0)
(1.65381 -0.0236445 0)
(1.65522 -0.0248965 0)
(1.65724 -0.0259895 0)
(1.65984 -0.0266687 0)
(1.66296 -0.0266854 0)
(1.66647 -0.0258113 0)
(1.67019 -0.0238542 0)
(1.6739 -0.0206786 0)
(1.67734 -0.0162266 0)
(1.68025 -0.0105186 0)
(1.68236 -0.00366311 0)
(1.68329 0.00414342 0)
(1.68269 0.0126294 0)
(1.68042 0.0213653 0)
(1.67642 0.0299116 0)
(1.67067 0.0378056 0)
(1.6633 0.0446673 0)
(1.65449 0.0500483 0)
(1.64467 0.0538363 0)
(1.63407 0.0555871 0)
(1.62348 0.0558197 0)
(1.61269 0.0537028 0)
(1.60341 0.0511953 0)
(1.59352 0.0457277 0)
(1.58783 0.0428887 0)
(1.57792 0.0345554 0)
(1.00005 -0.00746033 0)
(1.00115 -0.0227267 0)
(1.00331 -0.0386242 0)
(1.00685 -0.0559051 0)
(1.01205 -0.0747506 0)
(1.01953 -0.0960593 0)
(1.03 -0.119711 0)
(1.04432 -0.146289 0)
(1.06392 -0.175386 0)
(1.08948 -0.205926 0)
(1.12277 -0.237576 0)
(1.16506 -0.266977 0)
(1.21617 -0.292637 0)
(1.27698 -0.310551 0)
(1.34472 -0.31478 0)
(1.41125 -0.3049 0)
(1.46925 -0.285159 0)
(1.51602 -0.260001 0)
(1.55207 -0.232567 0)
(1.57891 -0.204911 0)
(1.59808 -0.178528 0)
(1.61113 -0.154351 0)
(1.61959 -0.13261 0)
(1.62467 -0.11317 0)
(1.62718 -0.0958965 0)
(1.62768 -0.0807104 0)
(1.62661 -0.0675135 0)
(1.62434 -0.0561723 0)
(1.62115 -0.0465498 0)
(1.61725 -0.038532 0)
(1.61282 -0.0320306 0)
(1.60801 -0.0269723 0)
(1.60297 -0.0232821 0)
(1.59785 -0.02087 0)
(1.59281 -0.0196212 0)
(1.588 -0.0194023 0)
(1.58356 -0.0200537 0)
(1.57963 -0.0213824 0)
(1.57636 -0.0231532 0)
(1.57387 -0.0251041 0)
(1.57224 -0.0269475 0)
(1.57154 -0.0283807 0)
(1.57179 -0.0291018 0)
(1.57296 -0.0288225 0)
(1.57496 -0.0272858 0)
(1.57766 -0.0242904 0)
(1.58082 -0.0197242 0)
(1.58418 -0.0135377 0)
(1.58748 -0.00580387 0)
(1.59033 0.00309099 0)
(1.5922 0.0129188 0)
(1.59274 0.0232731 0)
(1.59176 0.0336037 0)
(1.58908 0.0433099 0)
(1.58471 0.0518785 0)
(1.57864 0.0587312 0)
(1.57131 0.063643 0)
(1.56275 0.0660576 0)
(1.55397 0.0665001 0)
(1.54446 0.0639994 0)
(1.53642 0.0608462 0)
(1.52732 0.0540081 0)
(1.52244 0.0502991 0)
(1.51352 0.0398944 0)
(0.999993 -0.00778803 0)
(1.00059 -0.0238729 0)
(1.00152 -0.0405858 0)
(1.00357 -0.0592351 0)
(1.00623 -0.0794938 0)
(1.01128 -0.10356 0)
(1.01812 -0.130118 0)
(1.02967 -0.162198 0)
(1.04627 -0.197551 0)
(1.07011 -0.236877 0)
(1.10476 -0.27958 0)
(1.14918 -0.31737 0)
(1.20635 -0.352115 0)
(1.28278 -0.376805 0)
(1.36924 -0.380728 0)
(1.44683 -0.365222 0)
(1.50417 -0.337065 0)
(1.54055 -0.301886 0)
(1.55979 -0.264117 0)
(1.56632 -0.226972 0)
(1.56392 -0.192943 0)
(1.55578 -0.163113 0)
(1.54451 -0.13718 0)
(1.53175 -0.114526 0)
(1.51833 -0.0947867 0)
(1.5047 -0.0777378 0)
(1.49123 -0.0631396 0)
(1.47814 -0.0507388 0)
(1.46554 -0.0403135 0)
(1.45339 -0.0316926 0)
(1.44164 -0.0247499 0)
(1.43023 -0.0193952 0)
(1.41914 -0.0155443 0)
(1.40837 -0.0130921 0)
(1.39795 -0.01193 0)
(1.38794 -0.0119472 0)
(1.37844 -0.0129976 0)
(1.36961 -0.0148991 0)
(1.36163 -0.0174005 0)
(1.35471 -0.0202333 0)
(1.34907 -0.0231006 0)
(1.3449 -0.0256787 0)
(1.34241 -0.0276324 0)
(1.34174 -0.0286271 0)
(1.34293 -0.0283436 0)
(1.34597 -0.0265081 0)
(1.3507 -0.0229082 0)
(1.35686 -0.0174082 0)
(1.36398 -0.010003 0)
(1.3717 -0.000894405 0)
(1.37949 0.00954625 0)
(1.38665 0.0209135 0)
(1.39272 0.0326186 0)
(1.39724 0.0439493 0)
(1.40005 0.0542446 0)
(1.40083 0.0627824 0)
(1.39998 0.0691807 0)
(1.39712 0.0727505 0)
(1.39355 0.0739264 0)
(1.38821 0.0716174 0)
(1.38396 0.0682737 0)
(1.37769 0.0605361 0)
(1.3751 0.0561788 0)
(1.36907 0.0439839 0)
(0.999888 -0.00780364 0)
(0.999997 -0.024109 0)
(0.999252 -0.0409267 0)
(0.99976 -0.0603643 0)
(0.998589 -0.0810434 0)
(1.00133 -0.107554 0)
(1.00119 -0.135392 0)
(1.01066 -0.174152 0)
(1.01747 -0.213841 0)
(1.04171 -0.267695 0)
(1.07309 -0.325665 0)
(1.11956 -0.377747 0)
(1.19397 -0.440603 0)
(1.29343 -0.478129 0)
(1.38587 -0.472633 0)
(1.44328 -0.437386 0)
(1.46121 -0.386828 0)
(1.45004 -0.329933 0)
(1.41994 -0.27362 0)
(1.38 -0.222148 0)
(1.33576 -0.178916 0)
(1.29148 -0.143894 0)
(1.25067 -0.115276 0)
(1.21458 -0.0917012 0)
(1.18288 -0.0722621 0)
(1.15517 -0.0561892 0)
(1.13114 -0.0428271 0)
(1.11039 -0.0316879 0)
(1.09242 -0.0224408 0)
(1.07668 -0.0148632 0)
(1.06264 -0.00880032 0)
(1.04988 -0.00420612 0)
(1.03807 -0.00099971 0)
(1.02701 0.000882219 0)
(1.01658 0.00147221 0)
(1.00673 0.000833763 0)
(0.997555 -0.000949348 0)
(0.989267 -0.00371454 0)
(0.982135 -0.00731405 0)
(0.976452 -0.0115221 0)
(0.972555 -0.0160541 0)
(0.970765 -0.0205768 0)
(0.971346 -0.0247139 0)
(0.974478 -0.0280588 0)
(0.98022 -0.0301975 0)
(0.988513 -0.030741 0)
(0.999145 -0.0293486 0)
(1.0118 -0.0257733 0)
(1.02603 -0.0198601 0)
(1.0413 -0.0115566 0)
(1.0571 -0.00125027 0)
(1.07271 0.0105674 0)
(1.08746 0.0232564 0)
(1.10071 0.0360217 0)
(1.11216 0.0480644 0)
(1.12128 0.058515 0)
(1.12836 0.0668142 0)
(1.1327 0.0721407 0)
(1.13573 0.0747389 0)
(1.13585 0.0734743 0)
(1.1365 0.070657 0)
(1.13395 0.0629367 0)
(1.13435 0.0583556 0)
(1.13196 0.0451649 0)
(0.999762 -0.00748582 0)
(0.999355 -0.0232563 0)
(0.996621 -0.0394476 0)
(0.995536 -0.0587474 0)
(0.989436 -0.078838 0)
(0.990126 -0.106697 0)
(0.979016 -0.133749 0)
(0.988664 -0.179217 0)
(0.971624 -0.217335 0)
(1.00683 -0.295194 0)
(1.00162 -0.357707 0)
(1.0757 -0.457135 0)
(1.16767 -0.595846 0)
(1.25287 -0.622405 0)
(1.282 -0.561408 0)
(1.2438 -0.467673 0)
(1.1637 -0.369693 0)
(1.06953 -0.279677 0)
(0.972308 -0.203936 0)
(0.883126 -0.14257 0)
(0.801193 -0.0987781 0)
(0.732695 -0.0683151 0)
(0.681502 -0.0466515 0)
(0.644612 -0.0318197 0)
(0.618279 -0.0219148 0)
(0.599876 -0.015018 0)
(0.587448 -0.00975594 0)
(0.579378 -0.00539096 0)
(0.574332 -0.00161574 0)
(0.571286 0.0016575 0)
(0.569429 0.00440111 0)
(0.568278 0.00657593 0)
(0.567564 0.00803852 0)
(0.56709 0.00859136 0)
(0.566805 0.00811094 0)
(0.566738 0.00647193 0)
(0.567087 0.00361851 0)
(0.568094 -0.000434306 0)
(0.569995 -0.00558937 0)
(0.573105 -0.0116301 0)
(0.577698 -0.0182561 0)
(0.583988 -0.025086 0)
(0.592127 -0.0316652 0)
(0.602187 -0.0374848 0)
(0.614152 -0.0420193 0)
(0.627915 -0.044764 0)
(0.643301 -0.0452789 0)
(0.660054 -0.0432124 0)
(0.677853 -0.0383459 0)
(0.696341 -0.0306585 0)
(0.715114 -0.020347 0)
(0.733714 -0.00793879 0)
(0.751607 0.00587531 0)
(0.76823 0.0202177 0)
(0.783235 0.0341928 0)
(0.796109 0.046843 0)
(0.806901 0.0574407 0)
(0.814934 0.0650851 0)
(0.821226 0.0697651 0)
(0.824389 0.0703873 0)
(0.827342 0.0689041 0)
(0.827161 0.0621108 0)
(0.828852 0.0579368 0)
(0.830463 0.0441384 0)
(0.999686 -0.00682897 0)
(0.998577 -0.0211846 0)
(0.994035 -0.0360808 0)
(0.990757 -0.0539064 0)
(0.980143 -0.0727634 0)
(0.977188 -0.0993987 0)
(0.955422 -0.125101 0)
(0.96208 -0.172172 0)
(0.915139 -0.205978 0)
(0.962334 -0.304843 0)
(0.864488 -0.344859 0)
(1.02902 -0.563466 0)
(0.976664 -0.717888 0)
(0.954934 -0.632725 0)
(0.844747 -0.476537 0)
(0.680459 -0.324486 0)
(0.523817 -0.199727 0)
(0.399609 -0.111328 0)
(0.304134 -0.0572779 0)
(0.236113 -0.0205575 0)
(0.182906 -0.0149918 0)
(0.165405 -0.0210473 0)
(0.170589 -0.0250077 0)
(0.180014 -0.0270016 0)
(0.189831 -0.026732 0)
(0.199213 -0.0246043 0)
(0.207722 -0.021259 0)
(0.215199 -0.0172524 0)
(0.221708 -0.0129866 0)
(0.227444 -0.00878606 0)
(0.23264 -0.0049359 0)
(0.237443 -0.00162254 0)
(0.241837 0.000847492 0)
(0.246046 0.00215998 0)
(0.250204 0.00207838 0)
(0.254456 0.000493909 0)
(0.258991 -0.00259715 0)
(0.263992 -0.00718762 0)
(0.269638 -0.0131156 0)
(0.276072 -0.0201427 0)
(0.28342 -0.0279241 0)
(0.291763 -0.036017 0)
(0.301162 -0.0439011 0)
(0.311632 -0.0510053 0)
(0.323157 -0.0567441 0)
(0.335667 -0.0605595 0)
(0.349095 -0.0619598 0)
(0.363282 -0.0605524 0)
(0.378056 -0.0560925 0)
(0.393224 -0.0485352 0)
(0.408551 -0.0380681 0)
(0.423751 -0.0251367 0)
(0.438478 -0.0104081 0)
(0.452371 0.00525104 0)
(0.465132 0.0208392 0)
(0.47639 0.0354171 0)
(0.485978 0.048124 0)
(0.493512 0.0580407 0)
(0.499513 0.0647569 0)
(0.503329 0.0674089 0)
(0.507019 0.0668529 0)
(0.509323 0.0608862 0)
(0.513077 0.0558451 0)
(0.522691 0.0391586 0)
(0.999688 -0.00581492 0)
(0.997669 -0.0179218 0)
(0.991816 -0.030781 0)
(0.985591 -0.0458195 0)
(0.972069 -0.0627033 0)
(0.962579 -0.0851288 0)
(0.93553 -0.109709 0)
(0.928578 -0.149219 0)
(0.869197 -0.184509 0)
(0.891947 -0.271972 0)
(0.724721 -0.301424 0)
(0.910881 -0.590373 0)
(0.333082 -0.394047 0)
(0.237408 -0.238222 0)
(0.118154 -0.178242 0)
(0.0550484 -0.134783 0)
(0.0293834 -0.0932746 0)
(0.0175285 -0.0610396 0)
(0.0112433 -0.0368787 0)
(0.0051938 -0.0166202 0)
(0.00875457 -0.0460198 0)
(0.013614 -0.057684 0)
(0.0246226 -0.05487 0)
(0.0289468 -0.0494958 0)
(0.0325782 -0.0426257 0)
(0.0355636 -0.0356446 0)
(0.0380475 -0.0290634 0)
(0.0401495 -0.0229428 0)
(0.0419475 -0.0172855 0)
(0.0435386 -0.0121901 0)
(0.0450318 -0.0077927 0)
(0.0465004 -0.00432157 0)
(0.0479901 -0.00197229 0)
(0.0495648 -0.000906786 0)
(0.051357 -0.00133214 0)
(0.0534926 -0.00331474 0)
(0.056001 -0.00690177 0)
(0.0589326 -0.012041 0)
(0.0623573 -0.0185974 0)
(0.0663338 -0.0263216 0)
(0.0709188 -0.0348492 0)
(0.0761506 -0.0437177 0)
(0.082059 -0.0523838 0)
(0.0886524 -0.0602505 0)
(0.0959256 -0.0667086 0)
(0.103849 -0.0711761 0)
(0.112359 -0.0731243 0)
(0.121375 -0.0721312 0)
(0.130825 -0.0679439 0)
(0.140548 -0.060501 0)
(0.150404 -0.0499629 0)
(0.16022 -0.0367266 0)
(0.169847 -0.0214451 0)
(0.179038 -0.00497191 0)
(0.187697 0.0116678 0)
(0.19571 0.027448 0)
(0.202851 0.0414221 0)
(0.209032 0.0526205 0)
(0.214438 0.0603234 0)
(0.219067 0.0636875 0)
(0.224043 0.0626328 0)
(0.229157 0.0563032 0)
(0.236853 0.0469461 0)
(0.251684 0.0281812 0)
(0.999691 -0.00444246 0)
(0.996876 -0.0136514 0)
(0.989902 -0.0235719 0)
(0.981066 -0.0350099 0)
(0.965139 -0.048408 0)
(0.949485 -0.0652872 0)
(0.918956 -0.086091 0)
(0.896728 -0.114224 0)
(0.836197 -0.149346 0)
(0.815092 -0.201493 0)
(0.672845 -0.25726 0)
(0.734496 -0.384411 0)
(0.311843 -0.266661 0)
(0.300217 -0.253705 0)
(0.20788 -0.230019 0)
(0.129033 -0.179221 0)
(0.0785308 -0.122859 0)
(0.0468599 -0.0766208 0)
(0.0290401 -0.0431867 0)
(0.0142385 -0.0169527 0)
(0.0200906 -0.0388245 0)
(-0.00614345 -0.0505583 0)
(-0.00929242 -0.0479688 0)
(-0.0200238 -0.0432498 0)
(-0.0282339 -0.0375815 0)
(-0.0358364 -0.0317082 0)
(-0.0428236 -0.0258833 0)
(-0.0492027 -0.0202603 0)
(-0.0550218 -0.0149894 0)
(-0.060313 -0.0102639 0)
(-0.0650901 -0.0062337 0)
(-0.0693947 -0.00311283 0)
(-0.0732496 -0.00109358 0)
(-0.0766491 -0.000368134 0)
(-0.0795714 -0.0010913 0)
(-0.0819926 -0.00342574 0)
(-0.0839069 -0.00742728 0)
(-0.0853065 -0.0130382 0)
(-0.0861705 -0.0201142 0)
(-0.0864734 -0.0283978 0)
(-0.0861859 -0.0375178 0)
(-0.0852863 -0.0469988 0)
(-0.0837659 -0.0562804 0)
(-0.0816304 -0.0647499 0)
(-0.0788832 -0.0717777 0)
(-0.0755572 -0.0767512 0)
(-0.0717478 -0.0791287 0)
(-0.0674863 -0.0784959 0)
(-0.0628326 -0.0745759 0)
(-0.0578857 -0.0672842 0)
(-0.0527151 -0.0567856 0)
(-0.0474427 -0.0434923 0)
(-0.0421281 -0.0280694 0)
(-0.0368544 -0.0113858 0)
(-0.0316009 0.00553726 0)
(-0.0263253 0.0216349 0)
(-0.0211445 0.0358931 0)
(-0.0161662 0.0473468 0)
(-0.0114565 0.0551522 0)
(-0.00693674 0.0584402 0)
(-0.00211508 0.0566171 0)
(0.00368455 0.0488628 0)
(0.0126847 0.0353884 0)
(0.0267197 0.0170296 0)
(0.999657 -0.00278448 0)
(0.996366 -0.0085858 0)
(0.988351 -0.0147927 0)
(0.977989 -0.0220814 0)
(0.959485 -0.0304322 0)
(0.94079 -0.0414682 0)
(0.904694 -0.0541888 0)
(0.877405 -0.0733487 0)
(0.80507 -0.0931825 0)
(0.778984 -0.129977 0)
(0.615647 -0.152755 0)
(0.68432 -0.238304 0)
(0.291115 -0.144077 0)
(0.30036 -0.112607 0)
(0.215928 -0.0967922 0)
(0.140381 -0.0781932 0)
(0.0901249 -0.0573269 0)
(0.0568839 -0.0381879 0)
(0.0381055 -0.0224151 0)
(0.0203183 -0.00814596 0)
(0.0331789 -0.0236577 0)
(-0.00592903 -0.0333564 0)
(-0.0182375 -0.032703 0)
(-0.0393412 -0.0291133 0)
(-0.0565704 -0.024597 0)
(-0.0722807 -0.0198589 0)
(-0.0865799 -0.0151001 0)
(-0.0996004 -0.0104621 0)
(-0.111511 -0.0060907 0)
(-0.122408 -0.00211142 0)
(-0.132363 0.00123098 0)
(-0.141497 0.00371647 0)
(-0.149886 0.00513868 0)
(-0.1576 0.00528256 0)
(-0.164666 0.00396259 0)
(-0.171085 0.0010338 0)
(-0.176861 -0.00356756 0)
(-0.182015 -0.00976987 0)
(-0.186559 -0.0174502 0)
(-0.190486 -0.0263544 0)
(-0.193783 -0.0361074 0)
(-0.196441 -0.046223 0)
(-0.19847 -0.0561287 0)
(-0.199885 -0.0651967 0)
(-0.200706 -0.0727791 0)
(-0.200969 -0.0782551 0)
(-0.20074 -0.0810791 0)
(-0.200069 -0.0808129 0)
(-0.199016 -0.0771764 0)
(-0.197634 -0.0701063 0)
(-0.195965 -0.0597935 0)
(-0.194029 -0.0466898 0)
(-0.191822 -0.0314843 0)
(-0.189368 -0.0150685 0)
(-0.186563 0.00156598 0)
(-0.183332 0.0174001 0)
(-0.179926 0.0315259 0)
(-0.176588 0.0431014 0)
(-0.173491 0.0511796 0)
(-0.170475 0.0544825 0)
(-0.166851 0.051526 0)
(-0.161581 0.0412616 0)
(-0.153678 0.024749 0)
(-0.144754 0.00632517 0)
(0.999649 -0.000964258 0)
(0.996075 -0.00295089 0)
(0.987567 -0.00509631 0)
(0.976273 -0.00756139 0)
(0.956631 -0.0104808 0)
(0.935866 -0.0141539 0)
(0.897729 -0.0187274 0)
(0.866234 -0.0249034 0)
(0.791234 -0.0323366 0)
(0.757682 -0.043431 0)
(0.594303 -0.0526608 0)
(0.653044 -0.0777225 0)
(0.274231 -0.0453017 0)
(0.293945 -0.0416325 0)
(0.219662 -0.0403983 0)
(0.149376 -0.0335419 0)
(0.0995149 -0.0242511 0)
(0.0646484 -0.015771 0)
(0.0445855 -0.00910972 0)
(0.0244463 -0.00326781 0)
(0.0420187 -0.00760858 0)
(-0.00364429 -0.0104923 0)
(-0.0205264 -0.0098051 0)
(-0.0468925 -0.00779048 0)
(-0.0687472 -0.0051353 0)
(-0.0886142 -0.00216089 0)
(-0.10668 0.00100191 0)
(-0.123146 0.00422214 0)
(-0.138154 0.00734484 0)
(-0.15192 0.0102241 0)
(-0.164621 0.0125933 0)
(-0.176338 0.0142102 0)
(-0.187178 0.0148257 0)
(-0.197226 0.014214 0)
(-0.206538 0.0121837 0)
(-0.215147 0.00858659 0)
(-0.223049 0.00333965 0)
(-0.230295 -0.00356087 0)
(-0.236943 -0.0118941 0)
(-0.242986 -0.0214356 0)
(-0.248422 -0.0318226 0)
(-0.253255 -0.0425646 0)
(-0.2575 -0.0530802 0)
(-0.261185 -0.0627286 0)
(-0.264342 -0.0708541 0)
(-0.267011 -0.0768306 0)
(-0.26923 -0.0800998 0)
(-0.271037 -0.0802176 0)
(-0.272466 -0.0769142 0)
(-0.273545 -0.0701463 0)
(-0.274275 -0.0601403 0)
(-0.274629 -0.0473933 0)
(-0.274567 -0.0326274 0)
(-0.274051 -0.0167055 0)
(-0.273074 -0.000514418 0)
(-0.271656 0.0150216 0)
(-0.269972 0.0291227 0)
(-0.268222 0.0409062 0)
(-0.266494 0.049107 0)
(-0.264606 0.0519378 0)
(-0.262098 0.0475644 0)
(-0.258571 0.0355155 0)
(-0.254275 0.0186108 0)
(-0.250705 0.00325514 0)
(0.999649 0.00092512 0)
(0.996074 0.00285581 0)
(0.987565 0.00496673 0)
(0.976269 0.00741729 0)
(0.956625 0.0103394 0)
(0.935858 0.0140312 0)
(0.897719 0.0186335 0)
(0.86622 0.0248513 0)
(0.791219 0.0323214 0)
(0.757659 0.0434704 0)
(0.594281 0.0527067 0)
(0.652999 0.0778326 0)
(0.274199 0.0453149 0)
(0.293906 0.0414551 0)
(0.219618 0.0400529 0)
(0.149332 0.033048 0)
(0.0994746 0.0236234 0)
(0.0646144 0.0150354 0)
(0.0445733 0.00830135 0)
(0.024425 0.00264575 0)
(0.0422265 0.00927032 0)
(-0.00300957 0.0143396 0)
(-0.0196701 0.0154201 0)
(-0.0457916 0.0157254 0)
(-0.0673693 0.0163057 0)
(-0.0869708 0.0173276 0)
(-0.104777 0.018744 0)
(-0.120992 0.0204373 0)
(-0.13579 0.0222329 0)
(-0.149359 0.0238851 0)
(-0.161862 0.0251813 0)
(-0.173419 0.0258553 0)
(-0.184129 0.0256339 0)
(-0.194078 0.0242698 0)
(-0.203335 0.0215472 0)
(-0.211947 0.0172981 0)
(-0.219985 0.0114246 0)
(-0.227398 0.0039134 0)
(-0.234236 -0.00506654 0)
(-0.240609 -0.0151857 0)
(-0.246499 -0.0261441 0)
(-0.251899 -0.0374414 0)
(-0.256829 -0.0484866 0)
(-0.261326 -0.0586318 0)
(-0.265426 -0.0672157 0)
(-0.269162 -0.0736086 0)
(-0.272563 -0.0772595 0)
(-0.275655 -0.0777431 0)
(-0.278439 -0.0747966 0)
(-0.280904 -0.068373 0)
(-0.283004 -0.0587163 0)
(-0.2847 -0.0463656 0)
(-0.285951 -0.032046 0)
(-0.286748 -0.0166203 0)
(-0.287088 -0.000925957 0)
(-0.286973 0.0142036 0)
(-0.286384 0.0280304 0)
(-0.285348 0.0396422 0)
(-0.283959 0.0476722 0)
(-0.282387 0.0502374 0)
(-0.280868 0.045535 0)
(-0.279663 0.0333129 0)
(-0.279072 0.0166925 0)
(-0.279117 0.00239897 0)
(0.999657 0.00274603 0)
(0.996364 0.00849263 0)
(0.988345 0.0146658 0)
(0.977979 0.0219409 0)
(0.959469 0.0302947 0)
(0.940768 0.041351 0)
(0.904664 0.0540995 0)
(0.877367 0.0733047 0)
(0.805021 0.0931712 0)
(0.778922 0.130029 0)
(0.615575 0.152803 0)
(0.684199 0.238434 0)
(0.291028 0.144095 0)
(0.300246 0.112426 0)
(0.21579 0.0964473 0)
(0.140243 0.0777035 0)
(0.0900014 0.0567007 0)
(0.0567802 0.0374423 0)
(0.0380552 0.0215743 0)
(0.0202477 0.00739414 0)
(0.0337301 0.024749 0)
(-0.00416598 0.0366228 0)
(-0.0158193 0.0377984 0)
(-0.03618 0.0365514 0)
(-0.0525732 0.035265 0)
(-0.0674829 0.0345158 0)
(-0.0810091 0.0343437 0)
(-0.0932942 0.0346387 0)
(-0.104479 0.0352105 0)
(-0.114705 0.0358111 0)
(-0.124094 0.0361801 0)
(-0.132747 0.0360372 0)
(-0.14075 0.0350974 0)
(-0.148178 0.0330896 0)
(-0.155097 0.0297809 0)
(-0.161561 0.0249888 0)
(-0.167603 0.018609 0)
(-0.173233 0.0106713 0)
(-0.178436 0.00123238 0)
(-0.183302 -0.00934793 0)
(-0.187927 -0.0207479 0)
(-0.192242 -0.0324581 0)
(-0.196271 -0.0438808 0)
(-0.20006 -0.0543645 0)
(-0.203644 -0.0632457 0)
(-0.207056 -0.0699035 0)
(-0.210335 -0.073808 0)
(-0.213475 -0.0745572 0)
(-0.216419 -0.0719169 0)
(-0.219149 -0.0658514 0)
(-0.221597 -0.0565643 0)
(-0.223667 -0.0445633 0)
(-0.225339 -0.0306061 0)
(-0.226574 -0.0155832 0)
(-0.227408 -0.000380022 0)
(-0.227885 0.0141574 0)
(-0.227791 0.0272998 0)
(-0.226989 0.0382494 0)
(-0.225485 0.0458985 0)
(-0.223629 0.0486923 0)
(-0.222143 0.0450152 0)
(-0.221803 0.0342033 0)
(-0.223165 0.0183456 0)
(-0.225569 0.00317015 0)
(0.99969 0.00440533 0)
(0.996873 0.0135618 0)
(0.989893 0.0234502 0)
(0.981049 0.0348764 0)
(0.965114 0.0482785 0)
(0.949448 0.0651794 0)
(0.91891 0.0860127 0)
(0.896662 0.114192 0)
(0.836126 0.149352 0)
(0.814977 0.201556 0)
(0.672755 0.257345 0)
(0.734254 0.38453 0)
(0.311673 0.266717 0)
(0.300025 0.253589 0)
(0.207656 0.229692 0)
(0.128804 0.178686 0)
(0.0783188 0.122151 0)
(0.0466741 0.0757845 0)
(0.0289135 0.0422419 0)
(0.0140932 0.0158762 0)
(0.0206397 0.0389268 0)
(-0.00387714 0.0527424 0)
(-0.00600658 0.0519963 0)
(-0.0155567 0.049703 0)
(-0.0223943 0.0472512 0)
(-0.0286406 0.0453798 0)
(-0.0342693 0.0441859 0)
(-0.0393171 0.0435686 0)
(-0.0438414 0.0433269 0)
(-0.0478989 0.0432113 0)
(-0.0515375 0.0429485 0)
(-0.0548049 0.0422526 0)
(-0.0577457 0.0408369 0)
(-0.0604091 0.0384236 0)
(-0.0628462 0.0347634 0)
(-0.065101 0.0296583 0)
(-0.0671947 0.0230081 0)
(-0.0691554 0.0148144 0)
(-0.0709767 0.0052031 0)
(-0.0727285 -0.00567369 0)
(-0.0745134 -0.017317 0)
(-0.0762935 -0.029224 0)
(-0.0780948 -0.0408034 0)
(-0.0799681 -0.0514081 0)
(-0.0819308 -0.0603766 0)
(-0.0839916 -0.0670967 0)
(-0.0861549 -0.0710621 0)
(-0.0883905 -0.0718892 0)
(-0.0906178 -0.0693732 0)
(-0.0927805 -0.0635385 0)
(-0.0947307 -0.0545996 0)
(-0.0963237 -0.0429736 0)
(-0.0975637 -0.0293726 0)
(-0.0983469 -0.0146689 0)
(-0.0987012 0.000206716 0)
(-0.0987324 0.0143402 0)
(-0.0983154 0.0268934 0)
(-0.0973327 0.0370602 0)
(-0.0957602 0.0439779 0)
(-0.0938169 0.0465556 0)
(-0.0922672 0.0438012 0)
(-0.0918817 0.0349698 0)
(-0.0938929 0.0213282 0)
(-0.0965366 0.00531706 0)
(0.999688 0.00577979 0)
(0.997664 0.0178371 0)
(0.991804 0.0306672 0)
(0.985568 0.0456951 0)
(0.972038 0.0625858 0)
(0.962528 0.0850329 0)
(0.935474 0.109649 0)
(0.928484 0.149201 0)
(0.869115 0.184544 0)
(0.891778 0.272058 0)
(0.724606 0.301551 0)
(0.910568 0.59056 0)
(0.332837 0.39401 0)
(0.23714 0.238048 0)
(0.117882 0.177972 0)
(0.0548115 0.134389 0)
(0.0291695 0.0927616 0)
(0.0173189 0.0604049 0)
(0.01098 0.0361002 0)
(0.00493235 0.015649 0)
(0.0080252 0.0454314 0)
(0.0140168 0.0586658 0)
(0.0262224 0.0575916 0)
(0.0319771 0.0546265 0)
(0.0372427 0.0509638 0)
(0.0420432 0.047982 0)
(0.0464967 0.0459998 0)
(0.0507058 0.0448249 0)
(0.0547493 0.044153 0)
(0.0587005 0.0436856 0)
(0.0626218 0.0431267 0)
(0.0665421 0.042181 0)
(0.0704765 0.0405614 0)
(0.0743881 0.0379965 0)
(0.0782397 0.0342558 0)
(0.0819915 0.029144 0)
(0.0855989 0.0225277 0)
(0.089035 0.0144274 0)