/*--------------------------------*- C++ -*----------------------------------*\
  =========                 |
  \\      /  F ield         | OpenFOAM: The Open Source CFD Toolbox
   \\    /   O peration     | Website:  https://openfoam.org
    \\  /    A nd           | Version:  10
     \\/     M anipulation  |
\*---------------------------------------------------------------------------*/
FoamFile
{
    format      ascii;
    class       volVectorField;
    location    "1.8";
    object      Ua;
}
// * * * * * * * * * * * * * * * * * * * * * * * * * * * * * * * * * * * * * //

dimensions      [0 1 -1 0 0 0 0];

internalField   nonuniform List<vector> 
12225
(
(-2.18765e-06 4.40672e-07 0)
(-7.19825e-06 5.92308e-07 0)
(-1.42095e-05 9.15351e-07 0)
(-2.48229e-05 1.46267e-06 0)
(-4.10334e-05 2.32028e-06 0)
(-6.54341e-05 3.60984e-06 0)
(-0.000101393 5.4909e-06 0)
(-0.000153187 8.15994e-06 0)
(-0.000226071 1.18442e-05 0)
(-0.000326249 1.67889e-05 0)
(-0.000460744 2.32427e-05 0)
(-0.00063722 3.14583e-05 0)
(-0.000864039 4.17585e-05 0)
(-0.00115124 5.47968e-05 0)
(-0.00151446 7.24053e-05 0)
(-0.00198844 0.000100583 0)
(-0.0026813 0.000163211 0)
(-0.00407653 0.000392096 0)
(-2.15536e-06 1.34667e-06 0)
(-7.09432e-06 1.81059e-06 0)
(-1.40114e-05 2.79892e-06 0)
(-2.44901e-05 4.4735e-06 0)
(-4.05038e-05 7.09767e-06 0)
(-6.46198e-05 1.10442e-05 0)
(-0.000100176 1.68021e-05 0)
(-0.000151417 2.49742e-05 0)
(-0.000223568 3.62584e-05 0)
(-0.000322807 5.14084e-05 0)
(-0.00045613 7.11866e-05 0)
(-0.000631156 9.63609e-05 0)
(-0.000856076 0.000127887 0)
(-0.00114034 0.000167648 0)
(-0.00149747 0.00022079 0)
(-0.00195324 0.000303413 0)
(-0.00256314 0.000472747 0)
(-0.00336528 0.000978129 0)
(-2.0841e-06 2.29424e-06 0)
(-6.86492e-06 3.08652e-06 0)
(-1.35741e-05 4.77447e-06 0)
(-2.37555e-05 7.63478e-06 0)
(-3.93345e-05 1.21179e-05 0)
(-6.28214e-05 1.88624e-05 0)
(-9.74873e-05 2.8707e-05 0)
(-0.000147506 4.26876e-05 0)
(-0.000218034 6.20058e-05 0)
(-0.000315191 8.79612e-05 0)
(-0.000445924 0.000121864 0)
(-0.000617752 0.000165009 0)
(-0.000838544 0.000218922 0)
(-0.00111662 0.000286417 0)
(-0.0014617 0.000374839 0)
(-0.00188637 0.000505475 0)
(-0.00239711 0.000742016 0)
(-0.00289214 0.00127309 0)
(-1.9667e-06 3.26422e-06 0)
(-6.48699e-06 4.39611e-06 0)
(-1.28537e-05 6.80781e-06 0)
(-2.25447e-05 1.08952e-05 0)
(-3.74068e-05 1.73039e-05 0)
(-5.98549e-05 2.69502e-05 0)
(-9.30496e-05 4.1041e-05 0)
(-0.000141045 6.10716e-05 0)
(-0.000208883 8.87822e-05 0)
(-0.000302589 0.00012606 0)
(-0.00042903 0.000174801 0)
(-0.000595605 0.000236822 0)
(-0.000809759 0.000314083 0)
(-0.00107837 0.000409798 0)
(-0.00140675 0.000531755 0)
(-0.00179486 0.000700589 0)
(-0.00221902 0.000967673 0)
(-0.00255895 0.00143574 0)
(-1.79582e-06 4.22928e-06 0)
(-5.93684e-06 5.70503e-06 0)
(-1.18049e-05 8.84972e-06 0)
(-2.07814e-05 1.41808e-05 0)
(-3.45978e-05 2.25432e-05 0)
(-5.55288e-05 3.51402e-05 0)
(-8.65709e-05 5.35617e-05 0)
(-0.000131601 7.97865e-05 0)
(-0.000195487 0.00011613 0)
(-0.000284114 0.000165116 0)
(-0.000404253 0.000229269 0)
(-0.000563185 0.000310929 0)
(-0.00076797 0.000412306 0)
(-0.00102412 0.000536346 0)
(-0.00133301 0.000689358 0)
(-0.00168556 0.000886587 0)
(-0.00204524 0.00115948 0)
(-0.0023121 0.00154642 0)
(-1.56436e-06 5.15225e-06 0)
(-5.19161e-06 6.96644e-06 0)
(-1.03838e-05 1.08328e-05 0)
(-1.83912e-05 1.73894e-05 0)
(-3.07873e-05 2.76809e-05 0)
(-4.96536e-05 4.32001e-05 0)
(-7.77589e-05 6.59297e-05 0)
(-0.00011873 9.83529e-05 0)
(-0.000177191 0.000143398 0)
(-0.00025883 0.000204281 0)
(-0.000370303 0.000284223 0)
(-0.000518839 0.000386104 0)
(-0.000711314 0.000512226 0)
(-0.000952387 0.000664626 0)
(-0.00124094 0.000846511 0)
(-0.00156331 0.00106492 0)
(-0.00188142 0.0013313 0)
(-0.00212118 0.00164591 0)
(-1.26616e-06 5.98448e-06 0)
(-4.23139e-06 8.11891e-06 0)
(-8.55219e-06 1.26685e-05 0)
(-1.53088e-05 2.03866e-05 0)
(-2.58684e-05 3.2511e-05 0)
(-4.20578e-05 5.08195e-05 0)
(-6.63425e-05 7.76884e-05 0)
(-0.000102012 0.000116119 0)
(-0.000153353 0.000169691 0)
(-0.000225783 0.00024238 0)
(-0.000325825 0.000338202 0)
(-0.000460776 0.000460664 0)
(-0.000637713 0.000612118 0)
(-0.000861366 0.000793276 0)
(-0.00113018 0.00100323 0)
(-0.00143009 0.00123975 0)
(-0.00172724 0.00149739 0)
(-0.00196793 0.00175647 0)
(-8.96931e-07 6.66457e-06 0)
(-3.04233e-06 9.0848e-06 0)
(-6.28339e-06 1.42444e-05 0)
(-1.1488e-05 2.30012e-05 0)
(-1.97631e-05 3.67705e-05 0)
(-3.26114e-05 5.75986e-05 0)
(-5.2106e-05 8.82442e-05 0)
(-8.10903e-05 0.00013223 0)
(-0.000123397 0.000193815 0)
(-0.000184062 0.000277822 0)
(-0.000269444 0.000389211 0)
(-0.000387048 0.000532321 0)
(-0.000544692 0.000709743 0)
(-0.000748436 0.000920885 0)
(-0.000998682 0.00116048 0)
(-0.00128451 0.00141717 0)
(-0.00157868 0.00167163 0)
(-0.00184035 0.00189321 0)
(-4.55532e-07 7.11784e-06 0)
(-1.6207e-06 9.76958e-06 0)
(-3.56992e-06 1.54235e-05 0)
(-6.91455e-06 2.50234e-05 0)
(-1.24439e-05 4.01345e-05 0)
(-2.12585e-05 6.30402e-05 0)
(-3.49367e-05 9.68504e-05 0)
(-5.57446e-05 0.000145591 0)
(-8.69021e-05 0.000214224 0)
(-0.000132905 0.000308505 0)
(-0.000199845 0.000434552 0)
(-0.000295549 0.00059792 0)
(-0.000429164 0.000801996 0)
(-0.000609543 0.00104555 0)
(-0.000841691 0.00131964 0)
(-0.00112116 0.00160449 0)
(-0.0014285 0.00186831 0)
(-0.0017295 0.00207072 0)
(5.44235e-08 7.25714e-06 0)
(2.18862e-08 1.00629e-05 0)
(-4.33785e-07 1.60456e-05 0)
(-1.62427e-06 2.62068e-05 0)
(-3.96203e-06 4.22191e-05 0)
(-8.06236e-06 6.65493e-05 0)
(-1.48933e-05 0.000102602 0)
(-2.59857e-05 0.000154856 0)
(-4.37384e-05 0.000228962 0)
(-7.186e-05 0.000331697 0)
(-0.000115946 0.000470604 0)
(-0.000184093 0.000653045 0)
(-0.000287237 0.000884257 0)
(-0.000438499 0.00116396 0)
(-0.000650438 0.00148138 0)
(-0.000929068 0.00180976 0)
(-0.00126509 0.002104 0)
(-0.00162711 0.00230852 0)
(6.22637e-07 6.98584e-06 0)
(1.85216e-06 9.84225e-06 0)
(3.06124e-06 1.59327e-05 0)
(4.27581e-06 2.62771e-05 0)
(5.51643e-06 4.25919e-05 0)
(6.73719e-06 6.74477e-05 0)
(7.70409e-06 0.000104448 0)
(7.80518e-06 0.000158425 0)
(5.7309e-06 0.000235649 0)
(-1.06683e-06 0.000343942 0)
(-1.72299e-05 0.000492552 0)
(-5.07117e-05 0.00069142 0)
(-0.000114221 0.00094926 0)
(-0.000226271 0.00126955 0)
(-0.000410241 0.00164355 0)
(-0.00068855 0.0020406 0)
(-0.0010687 0.00240015 0)
(-0.00152286 0.00263813 0)
(1.17972e-06 6.30712e-06 0)
(3.64643e-06 9.10137e-06 0)
(6.48695e-06 1.50582e-05 0)
(1.00608e-05 2.51702e-05 0)
(1.48282e-05 4.11212e-05 0)
(2.13362e-05 6.54825e-05 0)
(3.01356e-05 0.000101921 0)
(4.16387e-05 0.000155453 0)
(5.58364e-05 0.000232768 0)
(7.17295e-05 0.000342576 0)
(8.62831e-05 0.000495829 0)
(9.26511e-05 0.000705513 0)
(7.74603e-05 0.000985302 0)
(1.73457e-05 0.00134575 0)
(-0.000123727 0.0017859 0)
(-0.000391662 0.00227815 0)
(-0.000824411 0.00274815 0)
(-0.00140922 0.00306579 0)
(1.74142e-06 5.10931e-06 0)
(5.45525e-06 7.70682e-06 0)
(9.93821e-06 1.32426e-05 0)
(1.5886e-05 2.26246e-05 0)
(2.42159e-05 3.74019e-05 0)
(3.61093e-05 6.00149e-05 0)
(5.29724e-05 9.40182e-05 0)
(7.63762e-05 0.000144369 0)
(0.000107873 0.000217881 0)
(0.000148505 0.000323833 0)
(0.00019773 0.000474696 0)
(0.000251286 0.000686829 0)
(0.000297273 0.000980586 0)
(0.000309716 0.00137836 0)
(0.000239837 0.00189715 0)
(9.68506e-06 0.00252897 0)
(-0.00047504 0.00319975 0)
(-0.00125433 0.00370871 0)
(2.35686e-06 3.06913e-06 0)
(7.43663e-06 5.26987e-06 0)
(1.37124e-05 9.96073e-06 0)
(2.22392e-05 1.78776e-05 0)
(3.44551e-05 3.0261e-05 0)
(5.22935e-05 4.92172e-05 0)
(7.81908e-05 7.7917e-05 0)
(0.000115169 0.000120862 0)
(0.000166877 0.000184453 0)
(0.000237393 0.000277868 0)
(0.0003305 0.000414411 0)
(0.000447799 0.000613545 0)
(0.00058434 0.000903719 0)
(0.000719278 0.00132551 0)
(0.000797526 0.00193224 0)
(0.000699039 0.00277784 0)
(0.000207145 0.00386105 0)
(-0.000935611 0.00494077 0)
(2.94946e-06 -1.38914e-07 0)
(9.34545e-06 1.38266e-06 0)
(1.7334e-05 4.64553e-06 0)
(2.82746e-05 1.00972e-05 0)
(4.4128e-05 1.83544e-05 0)
(6.76519e-05 3.08809e-05 0)
(0.000102387 5.00439e-05 0)
(0.000152964 7.91775e-05 0)
(0.00022555 0.000123175 0)
(0.00032827 0.000189435 0)
(0.000471574 0.000289536 0)
(0.000668181 0.000442339 0)
(0.000931466 0.000679862 0)
(0.00126881 0.00105857 0)
(0.00165979 0.00168107 0)
(0.00199018 0.00273719 0)
(0.00185889 0.00457805 0)
(2.49047e-05 0.00783559 0)
(3.35883e-06 -4.76676e-06 0)
(1.06783e-05 -4.27996e-06 0)
(1.98466e-05 -3.11736e-06 0)
(3.22578e-05 -1.17337e-06 0)
(5.02452e-05 8.75398e-07 0)
(7.73742e-05 3.49644e-06 0)
(0.000118044 7.82209e-06 0)
(0.000178102 1.49631e-05 0)
(0.000265854 2.6597e-05 0)
(0.000393246 4.53659e-05 0)
(0.000577939 7.56726e-05 0)
(0.000847063 0.000125296 0)
(0.00124444 0.000208834 0)
(0.00184506 0.000355345 0)
(0.00278557 0.000625916 0)
(0.0043305 0.00115527 0)
(0.00702174 0.00225288 0)
(0.0120248 0.00465364 0)
(2.71999e-08 -3.71143e-06 0)
(4.95484e-08 -3.78632e-06 0)
(4.3148e-08 -3.81931e-06 0)
(4.13758e-08 -3.84602e-06 0)
(4.58784e-08 -5.08977e-06 0)
(6.0613e-08 -8.39508e-06 0)
(8.52587e-08 -1.29543e-05 0)
(1.20828e-07 -1.90414e-05 0)
(1.71448e-07 -2.7062e-05 0)
(2.43411e-07 -3.76498e-05 0)
(3.46579e-07 -5.17572e-05 0)
(4.96758e-07 -7.08293e-05 0)
(7.20208e-07 -9.71141e-05 0)
(1.06237e-06 -0.000134215 0)
(1.60546e-06 -0.000188082 0)
(2.50534e-06 -0.000268836 0)
(4.07322e-06 -0.000394242 0)
(6.96939e-06 -0.000596921 0)
(5.39311e-06 6.18149e-06 0)
(1.63206e-05 7.09197e-06 0)
(2.82658e-05 6.87619e-06 0)
(4.24229e-05 5.91305e-06 0)
(5.87004e-05 3.7672e-06 0)
(7.60375e-05 -2.07363e-07 0)
(9.42101e-05 -5.75717e-06 0)
(0.000113883 -1.35967e-05 0)
(0.000135361 -2.34417e-05 0)
(0.00015855 -3.59776e-05 0)
(0.000183405 -5.21502e-05 0)
(0.000209806 -7.32782e-05 0)
(0.00023736 -0.000101216 0)
(0.000265 -0.000138595 0)
(0.00029023 -0.000189188 0)
(0.000307631 -0.000258472 0)
(0.000305972 -0.000354578 0)
(0.000262518 -0.00049022 0)
(8.13453e-06 1.87748e-05 0)
(2.46389e-05 2.06944e-05 0)
(4.1713e-05 2.00248e-05 0)
(5.95521e-05 1.751e-05 0)
(7.81694e-05 1.33774e-05 0)
(9.74708e-05 7.90827e-06 0)
(0.00011716 7.56322e-07 0)
(0.000136892 -9.28402e-06 0)
(0.0001568 -2.18709e-05 0)
(0.000176936 -3.71191e-05 0)
(0.000196937 -5.57542e-05 0)
(0.000216228 -7.86057e-05 0)
(0.000233923 -0.000106571 0)
(0.000248711 -0.000140508 0)
(0.000258757 -0.000180991 0)
(0.000261738 -0.000227817 0)
(0.000255211 -0.000279059 0)
(0.000237773 -0.000329291 0)
(9.35673e-06 2.97453e-05 0)
(2.84166e-05 3.13653e-05 0)
(4.80578e-05 3.01097e-05 0)
(6.81177e-05 2.66249e-05 0)
(8.84808e-05 2.1361e-05 0)
(0.000109037 1.46003e-05 0)
(0.000129679 6.37482e-06 0)
(0.000149975 -4.11728e-06 0)
(0.000169721 -1.7837e-05 0)
(0.000188905 -3.37666e-05 0)
(0.000207103 -5.22792e-05 0)
(0.000223749 -7.36774e-05 0)
(0.000238119 -9.81129e-05 0)
(0.000249356 -0.000125475 0)
(0.000256541 -0.000155249 0)
(0.000258859 -0.000186369 0)
(0.000255863 -0.000217123 0)
(0.000247803 -0.000245238 0)
(1.08079e-05 3.749e-05 0)
(3.26613e-05 3.83316e-05 0)
(5.48466e-05 3.64157e-05 0)
(7.71228e-05 3.22762e-05 0)
(9.93134e-05 2.63666e-05 0)
(0.000121274 1.89696e-05 0)
(0.000142868 1.01764e-05 0)
(0.000163753 -2.1275e-07 0)
(0.000183548 -1.38583e-05 0)
(0.000202085 -2.9345e-05 0)
(0.000219102 -4.66872e-05 0)
(0.000234154 -6.59198e-05 0)
(0.000246743 -8.69147e-05 0)
(0.000256375 -0.000109327 0)
(0.000262625 -0.000132558 0)
(0.000265242 -0.000155756 0)
(0.000264248 -0.000177885 0)
(0.000260006 -0.000197877 0)
(1.23576e-05 4.26404e-05 0)
(3.71524e-05 4.2741e-05 0)
(6.19627e-05 4.02553e-05 0)
(8.65272e-05 3.56628e-05 0)
(0.000110633 2.93962e-05 0)
(0.000134101 2.1739e-05 0)
(0.000156764 1.2817e-05 0)
(0.000178428 2.63683e-06 0)
(0.000198606 -1.01625e-05 0)
(0.000216956 -2.46629e-05 0)
(0.00023337 -4.04479e-05 0)
(0.000247554 -5.74268e-05 0)
(0.000259216 -7.53808e-05 0)
(0.0002681 -9.39458e-05 0)
(0.000274047 -0.000112617 0)
(0.000277036 -0.000130785 0)
(0.000277223 -0.000147802 0)
(0.000274942 -0.00016308 0)
(1.40707e-05 4.52898e-05 0)
(4.21122e-05 4.47995e-05 0)
(6.98069e-05 4.1901e-05 0)
(9.68773e-05 3.70576e-05 0)
(0.000123085 3.06858e-05 0)
(0.00014823 2.30702e-05 0)
(0.00017213 1.43605e-05 0)
(0.000194602 4.60934e-06 0)
(0.000215237 -7.01914e-06 0)
(0.000233719 -2.02608e-05 0)
(0.000249948 -3.43721e-05 0)
(0.00026374 -4.92132e-05 0)
(0.00027494 -6.45547e-05 0)
(0.000283458 -8.00754e-05 0)
(0.000289288 -9.53793e-05 0)
(0.000292533 -0.000110029 0)
(0.000293409 -0.000123596 0)
(0.000292227 -0.000135711 0)
(1.6008e-05 4.56168e-05 0)
(4.77287e-05 4.47042e-05 0)
(7.8696e-05 4.15734e-05 0)
(0.000108603 3.66834e-05 0)
(0.000137191 3.04382e-05 0)
(0.000164248 2.312e-05 0)
(0.00018959 1.48915e-05 0)
(0.000213053 5.83211e-06 0)
(0.000234308 -4.5345e-06 0)
(0.000253094 -1.63733e-05 0)
(0.000269342 -2.87887e-05 0)
(0.000282963 -4.1633e-05 0)
(0.000293915 -5.46977e-05 0)
(0.000302221 -6.77182e-05 0)
(0.000307977 -8.03909e-05 0)
(0.000311365 -9.24e-05 0)
(0.000312644 -0.000103449 0)
(0.000312125 -0.000113287 0)
(1.82427e-05 4.38213e-05 0)
(5.42169e-05 4.26467e-05 0)
(8.89755e-05 3.94667e-05 0)
(0.000122166 3.47318e-05 0)
(0.000153506 2.883e-05 0)
(0.000182781 2.20343e-05 0)
(0.000209823 1.45095e-05 0)
(0.000234493 6.34528e-06 0)
(0.000256557 -2.7046e-06 0)
(0.00027582 -1.30646e-05 0)
(0.000292253 -2.37967e-05 0)
(0.000305856 -3.47659e-05 0)
(0.000316683 -4.57973e-05 0)
(0.000324848 -5.66826e-05 0)
(0.000330534 -6.71948e-05 0)
(0.000333989 -7.7107e-05 0)
(0.000335518 -8.62117e-05 0)
(0.000335454 -9.43343e-05 0)
(2.08795e-05 4.0086e-05 0)
(6.1881e-05 3.87971e-05 0)
(0.000101129 3.57464e-05 0)
(0.000138204 3.13635e-05 0)
(0.000172802 2.60101e-05 0)
(0.000204711 1.99407e-05 0)
(0.000233792 1.3312e-05 0)
(0.000259951 6.21204e-06 0)
(0.000283052 -1.47214e-06 0)
(0.000302985 -1.03055e-05 0)
(0.000319773 -1.93728e-05 0)
(0.000333509 -2.85611e-05 0)
(0.000344336 -3.77325e-05 0)
(0.000352459 -4.67301e-05 0)
(0.000358141 -5.53886e-05 0)
(0.000361697 -6.3547e-05 0)
(0.000363481 -7.10602e-05 0)
(0.000363855 -7.7806e-05 0)
(2.40971e-05 3.45459e-05 0)
(7.12418e-05 3.32796e-05 0)
(0.000115986 3.05332e-05 0)
(0.000157821 2.66957e-05 0)
(0.000196415 2.20886e-05 0)
(0.000231575 1.69369e-05 0)
(0.000263204 1.13793e-05 0)
(0.000291269 5.49369e-06 0)
(0.000315749 -7.7267e-07 0)
(0.000336645 -8.04179e-06 0)
(0.000354059 -1.54574e-05 0)
(0.000368183 -2.29313e-05 0)
(0.000379263 -3.0361e-05 0)
(0.000387595 -3.76314e-05 0)
(0.00039352 -4.46229e-05 0)
(0.000397408 -5.12192e-05 0)
(0.000399645 -5.73166e-05 0)
(0.000400618 -6.28278e-05 0)
(2.82687e-05 2.72457e-05 0)
(8.33909e-05 2.61343e-05 0)
(0.000135294 2.38696e-05 0)
(0.000183352 2.0776e-05 0)
(0.000227204 1.71165e-05 0)
(0.000266689 1.30739e-05 0)
(0.000301775 8.76025e-06 0)
(0.00033251 4.23785e-06 0)
(0.000359037 -5.49333e-07 0)
(0.000381529 -6.21679e-06 0)
(0.000400203 -1.19807e-05 0)
(0.000415373 -1.77744e-05 0)
(0.000427376 -2.35205e-05 0)
(0.000436572 -2.91319e-05 0)
(0.000443332 -3.4517e-05 0)
(0.000448038 -3.95879e-05 0)
(0.000451075 -4.42673e-05 0)
(0.000452829 -4.84942e-05 0)
(3.44644e-05 1.80563e-05 0)
(0.000101473 1.72412e-05 0)
(0.000164131 1.5658e-05 0)
(0.000221651 1.35351e-05 0)
(0.000273644 1.10553e-05 0)
(0.000320009 8.34376e-06 0)
(0.00036082 5.47683e-06 0)
(0.000396252 2.49793e-06 0)
(0.000426781 -7.3815e-07 0)
(0.00045291 -4.74887e-06 0)
(0.000474908 -8.80195e-06 0)
(0.000493057 -1.28411e-05 0)
(0.000507629 -1.68051e-05 0)
(0.000518916 -2.06289e-05 0)
(0.00052724 -2.42476e-05 0)
(0.000532969 -2.76027e-05 0)
(0.000536514 -3.06475e-05 0)
(0.000538324 -3.33511e-05 0)
(4.92795e-05 6.4165e-06 0)
(0.000145004 6.10118e-06 0)
(0.000234359 5.50617e-06 0)
(0.000316323 4.71753e-06 0)
(0.000390518 3.80332e-06 0)
(0.000457004 2.80986e-06 0)
(0.000516109 1.76512e-06 0)
(0.000568309 6.85778e-07 0)
(0.00061359 -5.36653e-07 0)
(0.00065097 -2.12052e-06 0)
(0.000680054 -3.70697e-06 0)
(0.000701511 -5.26876e-06 0)
(0.00071611 -6.77893e-06 0)
(0.000724701 -8.21112e-06 0)
(0.000728194 -9.54124e-06 0)
(0.000727531 -1.07494e-05 0)
(0.000723666 -1.18218e-05 0)
(0.000717539 -1.2752e-05 0)
(-1.01384e-05 2.16703e-05 2.79963e-31)
(-3.04885e-05 2.16206e-05 -2.7908e-31)
(-5.0939e-05 2.15299e-05 0)
(-7.1451e-05 2.13978e-05 0)
(-9.19842e-05 2.12241e-05 0)
(-0.000112497 2.10089e-05 2.70205e-31)
(-0.000132948 2.07525e-05 0)
(-0.000153293 2.04555e-05 0)
(-0.000173491 2.01187e-05 0)
(-0.000193497 1.97434e-05 0)
(-0.000213269 1.93308e-05 -2.47327e-31)
(-0.000232765 1.88826e-05 0)
(-0.000251944 1.84005e-05 0)
(-0.000270763 1.78865e-05 0)
(-0.000289185 1.7343e-05 0)
(-0.000307172 1.67722e-05 -2.13149e-31)
(-0.000324687 1.61765e-05 0)
(-0.000341696 1.55587e-05 0)
(-0.000358168 1.49213e-05 0)
(-0.000374072 1.4267e-05 0)
(-0.000389381 1.35988e-05 0)
(-0.00040407 1.29192e-05 0)
(-0.000418117 1.22311e-05 0)
(-0.000431502 1.15372e-05 -1.44021e-31)
(-0.000444208 1.084e-05 1.3486e-31)
(-0.000456221 1.01422e-05 -1.257e-31)
(-0.000467528 9.44624e-06 -1.16571e-31)
(-0.000478122 8.7544e-06 0)
(-0.000487996 8.06894e-06 0)
(-0.000497145 7.39194e-06 8.96698e-32)
(-0.000505569 6.72533e-06 8.09548e-32)
(-0.000513268 6.07092e-06 0)
(-0.000520245 5.43033e-06 0)
(-0.000526506 4.80504e-06 5.58884e-32)
(-0.000532058 4.19637e-06 0)
(-0.00053691 3.60548e-06 0)
(-0.000541073 3.03339e-06 -3.28184e-32)
(-0.00054456 2.48095e-06 0)
(-0.000547384 1.94888e-06 -1.8727e-32)
(-0.000549561 1.43775e-06 -2.41903e-32)
(-0.000551107 9.48006e-07 0)
(-0.00055204 4.79956e-07 0)
(-0.000552377 3.37961e-08 0)
(-0.000552139 -3.90389e-07 0)
(-0.000551345 -7.92618e-07 0)
(-0.000550015 -1.17301e-06 4.3307e-32)
(-0.00054817 -1.53175e-06 5.25367e-32)
(-0.000545831 -1.86914e-06 6.12027e-32)
(-0.000543019 -2.18551e-06 0)
(-0.000539755 -2.48129e-06 -7.6883e-32)
(-0.000536061 -2.75694e-06 0)
(-0.000531958 -3.01297e-06 9.04426e-32)
(-0.000527467 -3.24995e-06 9.64625e-32)
(-0.000522608 -3.46847e-06 0)
(-0.000517403 -3.66914e-06 0)
(-0.000511872 -3.85261e-06 0)
(-0.000506034 -4.01955e-06 1.1585e-31)
(-0.000499909 -4.17062e-06 0)
(-0.000493515 -4.30651e-06 0)
(-0.000486872 -4.42791e-06 0)
(-0.000479997 -4.53549e-06 0)
(-0.000472907 -4.62995e-06 0)
(-0.00046562 -4.71197e-06 0)
(-0.000458151 -4.7822e-06 0)
(-0.000450515 -4.84131e-06 0)
(-0.000442729 -4.88995e-06 -1.36855e-31)
(-0.000434806 -4.92873e-06 0)
(-0.000426759 -4.95828e-06 0)
(-0.000418603 -4.97918e-06 1.38592e-31)
(-0.000410349 -4.99202e-06 1.38729e-31)
(-0.00040201 -4.99734e-06 0)
(-0.000393596 -4.9957e-06 -1.38428e-31)
(-0.000385119 -4.98759e-06 1.38019e-31)
(-0.000376587 -4.97353e-06 0)
(-0.000368012 -4.95397e-06 -1.36746e-31)
(-0.000359402 -4.92937e-06 0)
(-0.000350766 -4.90017e-06 0)
(-0.00034211 -4.86677e-06 1.3388e-31)
(-0.000333444 -4.82957e-06 0)
(-0.000324773 -4.78892e-06 -1.31458e-31)
(-0.000316104 -4.74518e-06 0)
(-0.000307443 -4.69868e-06 1.28717e-31)
(-0.000298796 -4.64972e-06 1.27247e-31)
(-0.000290167 -4.59861e-06 1.25722e-31)
(-0.000281562 -4.54559e-06 2.48296e-31)
(-0.000272985 -4.49094e-06 -2.45066e-31)
(-0.00026444 -4.43489e-06 0)
(-0.00025593 -4.37765e-06 0)
(-0.000247459 -4.31942e-06 0)
(-0.000239029 -4.2604e-06 -2.31544e-31)
(-0.000230644 -4.20075e-06 -2.28064e-31)
(-0.000222306 -4.14063e-06 2.24562e-31)
(-0.000214016 -4.08018e-06 0)
(-0.000205778 -4.01952e-06 -2.17521e-31)
(-0.000197593 -3.95876e-06 -2.13993e-31)
(-0.000189462 -3.898e-06 -2.10468e-31)
(-0.000181386 -3.83733e-06 0)
(-0.000173368 -3.77682e-06 0)
(-0.000165408 -3.71651e-06 0)
(-0.000157507 -3.65646e-06 -1.96472e-31)
(-0.000149666 -3.59669e-06 0)
(-0.000141887 -3.53723e-06 0)
(-0.00013417 -3.47807e-06 1.86147e-31)
(-0.000126516 -3.41921e-06 0)
(-0.000118926 -3.36063e-06 0)
(-0.000111401 -3.30229e-06 1.75985e-31)
(-0.000103943 -3.24415e-06 0)
(-9.6552e-05 -3.18614e-06 0)
(-8.92303e-05 -3.1282e-06 -1.65937e-31)
(-8.19795e-05 -3.07023e-06 -1.62598e-31)
(-7.48014e-05 -3.01214e-06 0)
(-6.76984e-05 -2.95381e-06 1.55905e-31)
(-6.06728e-05 -2.89514e-06 0)
(-5.37275e-05 -2.83597e-06 -1.49153e-31)
(-4.6866e-05 -2.77618e-06 0)
(-4.00918e-05 -2.71562e-06 -1.42287e-31)
(-3.34091e-05 -2.65413e-06 -1.38793e-31)
(-2.68226e-05 -2.59156e-06 0)
(-2.03372e-05 -2.52776e-06 0)
(-1.39588e-05 -2.46257e-06 0)
(-7.69334e-06 -2.39586e-06 0)
(-1.54745e-06 -2.3275e-06 0)
(4.47184e-06 -2.2574e-06 0)
(1.03571e-05 -2.18549e-06 0)
(1.61006e-05 -2.11173e-06 -1.08414e-31)
(2.16945e-05 -2.03614e-06 1.04242e-31)
(2.71306e-05 -1.95879e-06 0)
(3.24012e-05 -1.8798e-06 0)
(3.74986e-05 -1.79939e-06 0)
(4.24157e-05 -1.71785e-06 0)
(4.71463e-05 -1.63556e-06 1.64661e-31)
(5.16852e-05 -1.553e-06 0)
(5.60286e-05 -1.47076e-06 -1.46782e-31)
(6.01745e-05 -1.38953e-06 1.37991e-31)
(6.41233e-05 -1.31013e-06 0)
(6.78778e-05 -1.23349e-06 0)
(7.1444e-05 -1.16067e-06 0)
(7.48314e-05 -1.09286e-06 -1.05932e-31)
(7.80538e-05 -1.03137e-06 -9.92702e-32)
(8.11294e-05 -9.77652e-07 0)
(8.40818e-05 -9.33293e-07 -8.85597e-32)
(8.69403e-05 -9.00037e-07 -8.48513e-32)
(8.97411e-05 -8.79791e-07 8.24933e-32)
(9.25275e-05 -8.74637e-07 0)
(9.53511e-05 -8.86859e-07 0)
(9.82726e-05 -9.18961e-07 8.57377e-32)
(0.000101363 -9.737e-07 0)
(0.000104705 -1.05412e-06 0)
(0.000108394 -1.16357e-06 0)
(0.000112541 -1.30576e-06 0)
(0.00011727 -1.48482e-06 -1.42452e-31)
(0.000122727 -1.70527e-06 -1.6473e-31)
(0.000129076 -1.97212e-06 0)
(0.000136506 -2.29087e-06 -2.23979e-31)
(0.000145229 -2.66754e-06 0)
(0.000155486 -3.10864e-06 0)
(0.000167549 -3.62118e-06 -3.58598e-31)
(0.000181723 -4.21261e-06 0)
(0.00019835 -4.89068e-06 -4.86952e-31)
(0.000217809 -5.66333e-06 0)
(0.000240519 -6.53842e-06 0)
(0.00026694 -7.5234e-06 -7.52692e-31)
(0.000297569 -8.62485e-06 0)
(0.00033294 -9.84789e-06 -9.86806e-31)
(0.000373619 -1.11954e-05 0)
(0.000420187 -1.2667e-05 0)
(0.000473235 -1.42579e-05 0)
(0.000533338 -1.59577e-05 1.59962e-30)
(0.000601027 -1.77484e-05 0)
(0.000676758 -1.96029e-05 -1.96298e-30)
(0.000760864 -2.14828e-05 0)
(0.000853498 -2.33364e-05 0)
(0.000954568 -2.50956e-05 0)
(0.00106365 -2.66725e-05 0)
(0.00117986 -2.79513e-05 0)
(0.00130171 -2.87717e-05 0)
(0.00142676 -2.88816e-05 0)
(0.00155086 -2.77829e-05 5.45245e-30)
(0.00166555 -2.40874e-05 0)
(0.00174563 -1.18098e-05 0)
(-1.0224e-05 6.51942e-05 -8.4225e-31)
(-3.07456e-05 6.50437e-05 8.39579e-31)
(-5.13671e-05 6.47693e-05 0)
(-7.20486e-05 6.43696e-05 -1.66051e-30)
(-9.27487e-05 6.38441e-05 0)
(-0.000113425 6.3193e-05 8.15411e-31)
(-0.000134035 6.24174e-05 1.60712e-30)
(-0.000154533 6.15192e-05 1.58293e-30)
(-0.000174878 6.0501e-05 0)
(-0.000195024 5.93662e-05 1.52537e-30)
(-0.000214928 5.81191e-05 -7.48635e-31)
(-0.000234546 5.67645e-05 0)
(-0.000253838 5.5308e-05 0)
(-0.000272761 5.37557e-05 0)
(-0.000291276 5.21142e-05 0)
(-0.000309344 5.03908e-05 -6.47634e-31)
(-0.00032693 4.85931e-05 0)
(-0.000344 4.67288e-05 -1.19166e-30)
(-0.00036052 4.4806e-05 0)
(-0.000376462 4.28332e-05 0)
(-0.000391799 4.08185e-05 1.03663e-30)
(-0.000406505 3.87705e-05 0)
(-0.000420558 3.66972e-05 -9.28741e-31)
(-0.00043394 3.4607e-05 -4.42162e-31)
(-0.000446634 3.25077e-05 4.1488e-31)
(-0.000458626 3.04071e-05 -3.87589e-31)
(-0.000469905 2.83126e-05 -3.60384e-31)
(-0.000480463 2.62311e-05 0)
(-0.000490293 2.41694e-05 0)
(-0.000499393 2.21337e-05 2.80176e-31)
(-0.000507761 2.01298e-05 7.50545e-31)
(-0.0005154 1.81631e-05 0)
(-0.000522313 1.62385e-05 0)
(-0.000528506 1.43602e-05 1.79363e-31)
(-0.000533987 1.25324e-05 0)
(-0.000538765 1.07584e-05 0)
(-0.000542853 9.04128e-06 -1.10448e-31)
(-0.000546263 7.38351e-06 0)
(-0.000549009 5.78722e-06 -1.9199e-31)
(-0.000551108 4.25411e-06 -9.69549e-32)
(-0.000552576 2.78545e-06 0)
(-0.000553431 1.38216e-06 0)
(-0.000553692 4.47854e-08 -4.99738e-32)
(-0.000553378 -1.22646e-06 -1.15666e-31)
(-0.000552509 -2.43165e-06 -1.7789e-31)
(-0.000551106 -3.57117e-06 3.41994e-31)
(-0.00054919 -4.64565e-06 1.33053e-31)
(-0.000546781 -5.65594e-06 -1.8493e-31)
(-0.000543902 -6.60312e-06 3.92737e-31)
(-0.000540574 -7.48845e-06 -2.06334e-31)
(-0.000536817 -8.31336e-06 0)
(-0.000532654 -9.07941e-06 2.47273e-31)
(-0.000528106 -9.78829e-06 8.21404e-31)
(-0.000523192 -1.04418e-05 0)
(-0.000517935 -1.10418e-05 0)
(-0.000512354 -1.15902e-05 0)
(-0.000506468 -1.20891e-05 3.24452e-31)
(-0.000500299 -1.25404e-05 0)
(-0.000493863 -1.29462e-05 7.15942e-31)
(-0.00048718 -1.33086e-05 0)
(-0.000480268 -1.36297e-05 7.49992e-31)
(-0.000473143 -1.39114e-05 0)
(-0.000465823 -1.41559e-05 -7.75832e-31)
(-0.000458323 -1.43651e-05 0)
(-0.00045066 -1.4541e-05 7.94309e-31)
(-0.000442847 -1.46855e-05 -1.19111e-30)
(-0.000434899 -1.48006e-05 0)
(-0.00042683 -1.4888e-05 -8.09998e-31)
(-0.000418653 -1.49496e-05 3.96321e-31)
(-0.00041038 -1.4987e-05 3.97093e-31)
(-0.000402023 -1.5002e-05 0)
(-0.000393594 -1.49961e-05 -1.20938e-30)
(-0.000385102 -1.49709e-05 3.9608e-31)
(-0.000376558 -1.49279e-05 0)
(-0.000367971 -1.48684e-05 -3.93027e-31)
(-0.00035935 -1.47939e-05 -7.98762e-31)
(-0.000350704 -1.47057e-05 0)
(-0.00034204 -1.46048e-05 3.85602e-31)
(-0.000333366 -1.44927e-05 0)
(-0.000324688 -1.43702e-05 3.94457e-31)
(-0.000316014 -1.42385e-05 0)
(-0.000307348 -1.40986e-05 -3.86208e-31)
(-0.000298697 -1.39513e-05 3.67685e-31)
(-0.000290065 -1.37976e-05 1.10422e-30)
(-0.000281457 -1.36382e-05 2.18169e-30)
(-0.000272877 -1.3474e-05 -2.15419e-30)
(-0.00026433 -1.33056e-05 0)
(-0.000255819 -1.31336e-05 0)
(-0.000247347 -1.29587e-05 0)
(-0.000238917 -1.27815e-05 6.94629e-31)
(-0.000230531 -1.26024e-05 -6.62412e-31)
(-0.000222193 -1.24219e-05 6.52687e-31)
(-0.000213904 -1.22404e-05 0)
(-0.000205667 -1.20583e-05 -1.91875e-30)
(-0.000197482 -1.18759e-05 -6.23296e-31)
(-0.000189352 -1.16936e-05 -6.13486e-31)
(-0.000181278 -1.15115e-05 0)
(-0.000173261 -1.13299e-05 0)
(-0.000165302 -1.1149e-05 0)
(-0.000157402 -1.09688e-05 -5.74507e-31)
(-0.000149563 -1.07895e-05 0)
(-0.000141785 -1.06111e-05 -1.12394e-30)
(-0.000134069 -1.04337e-05 -5.58399e-31)
(-0.000126417 -1.02571e-05 1.08444e-30)
(-0.000118828 -1.00814e-05 0)
(-0.000111305 -9.90647e-06 1.56273e-30)
(-0.000103847 -9.73209e-06 0)
(-9.64573e-05 -9.55813e-06 1.0065e-30)
(-8.91365e-05 -9.38437e-06 -1.47652e-30)
(-8.18863e-05 -9.21053e-06 -1.44785e-30)
(-7.47087e-05 -9.03634e-06 0)
(-6.76059e-05 -8.86145e-06 -4.67702e-31)
(-6.05804e-05 -8.68551e-06 9.09501e-31)
(-5.3635e-05 -8.50811e-06 -4.42392e-31)
(-4.67731e-05 -8.32884e-06 0)
(-3.99983e-05 -8.14724e-06 -4.23091e-31)
(-3.33147e-05 -7.96287e-06 4.16389e-31)
(-2.67271e-05 -7.77524e-06 0)
(-2.02405e-05 -7.5839e-06 7.87979e-31)
(-1.38606e-05 -7.3884e-06 7.6656e-31)
(-7.59347e-06 -7.18833e-06 7.44689e-31)
(-1.44579e-06 -6.98331e-06 0)
(4.57538e-06 -6.77303e-06 0)
(1.04626e-05 -6.55729e-06 0)
(1.6208e-05 -6.33599e-06 -9.78861e-31)
(2.18036e-05 -6.10916e-06 3.14807e-31)
(2.72414e-05 -5.87701e-06 0)
(3.25133e-05 -5.63993e-06 -5.77013e-31)
(3.76116e-05 -5.39855e-06 -5.51092e-31)
(4.25292e-05 -5.15373e-06 0)
(4.72596e-05 -4.90661e-06 5.02869e-31)
(5.17976e-05 -4.65865e-06 -9.43818e-31)
(5.61392e-05 -4.41159e-06 -4.50846e-31)
(6.02823e-05 -4.16753e-06 1.26427e-30)
(6.42271e-05 -3.92892e-06 0)
(6.79763e-05 -3.69856e-06 0)
(7.15359e-05 -3.47963e-06 0)
(7.49151e-05 -3.27568e-06 -3.31622e-31)
(7.81275e-05 -3.09065e-06 -9.21805e-31)
(8.11914e-05 -2.92889e-06 -5.7501e-31)
(8.41301e-05 -2.79519e-06 -2.81071e-31)
(8.69729e-05 -2.69476e-06 -7.94826e-31)
(8.97557e-05 -2.63331e-06 2.63801e-31)
(9.25216e-05 -2.61709e-06 0)
(9.5322e-05 -2.65295e-06 0)
(9.82176e-05 -2.74839e-06 8.06152e-31)
(0.000101279 -2.91167e-06 0)
(0.000104589 -3.15192e-06 0)
(0.000108242 -3.47918e-06 -6.78588e-31)
(0.000112348 -3.90459e-06 0)
(0.000117033 -4.44048e-06 -1.32214e-30)
(0.00012244 -5.10046e-06 -5.15812e-31)
(0.000128735 -5.89954e-06 0)
(0.000136105 -6.85423e-06 -2.06186e-30)
(0.000144762 -7.98257e-06 0)
(0.000154946 -9.30413e-06 0)
(0.00016693 -1.084e-05 -1.10506e-30)
(0.000181017 -1.26124e-05 -2.53981e-30)
(0.000197551 -1.46449e-05 -1.49559e-30)
(0.000216909 -1.69612e-05 0)
(0.000239513 -1.9585e-05 0)
(0.000265821 -2.25388e-05 -6.86583e-30)
(0.000296333 -2.58424e-05 0)
(0.000331586 -2.95115e-05 -8.99767e-30)
(0.000372147 -3.35548e-05 0)
(0.000418602 -3.79715e-05 0)
(0.000471547 -4.27477e-05 0)
(0.000531562 -4.78521e-05 4.89759e-30)
(0.000599188 -5.32313e-05 0)
(0.000674889 -5.88043e-05 -6.01648e-30)
(0.000759009 -6.44563e-05 0)
(0.000851715 -7.00326e-05 0)
(0.00095293 -7.53299e-05 -1.52179e-29)
(0.00106225 -8.00852e-05 1.61599e-29)
(0.00117882 -8.39551e-05 0)
(0.00130122 -8.64678e-05 0)
(0.00142716 -8.68986e-05 0)
(0.00155298 -8.38826e-05 -1.64665e-29)
(0.00167267 -7.39911e-05 0)
(0.00177835 -4.5174e-05 1.734e-29)
(-1.03976e-05 0.000109272 -5.64801e-30)
(-3.12665e-05 0.000109017 7.44036e-34)
(-5.22343e-05 0.000108552 0)
(-7.3259e-05 0.000107874 -1.73539e-33)
(-9.42971e-05 0.000106983 0)
(-0.000115304 0.00010588 0)
(-0.000136235 0.000104566 5.38983e-30)
(-0.000157044 0.000103044 2.65621e-30)
(-0.000177685 0.00010132 -2.60647e-30)
(-0.000198112 9.93996e-05 2.56006e-30)
(-0.000218281 9.72895e-05 0)
(-0.000238147 9.49985e-05 0)
(-0.000257666 9.25363e-05 2.37375e-30)
(-0.000276796 8.99134e-05 4.60919e-30)
(-0.000295497 8.71413e-05 -4.46322e-30)
(-0.000313729 8.42324e-05 0)
(-0.000331457 8.11996e-05 -4.15095e-30)
(-0.000348646 7.80564e-05 -2.00124e-30)
(-0.000365264 7.48165e-05 0)
(-0.00038128 7.14941e-05 -3.64213e-30)
(-0.00039667 6.81033e-05 1.74169e-30)
(-0.000411408 6.46582e-05 3.28446e-30)
(-0.000425473 6.11729e-05 -1.56119e-30)
(-0.000438847 5.76612e-05 0)
(-0.000451514 5.41363e-05 -2.73481e-30)
(-0.000463462 5.06112e-05 -2.55088e-30)
(-0.000474681 4.70984e-05 0)
(-0.000485163 4.36095e-05 -2.18582e-30)
(-0.000494904 4.01557e-05 0)
(-0.000503903 3.67473e-05 -1.8284e-30)
(-0.000512159 3.33941e-05 8.39032e-31)
(-0.000519675 3.01048e-05 0)
(-0.000526458 2.68875e-05 0)
(-0.000532513 2.37495e-05 0)
(-0.00053785 2.06971e-05 0)
(-0.00054248 1.77362e-05 0)
(-0.000546416 1.48715e-05 0)
(-0.000549671 1.21071e-05 -5.48056e-31)
(-0.000552261 9.44647e-06 1.9203e-31)
(-0.000554202 6.89229e-06 0)
(-0.000555513 4.44657e-06 0)
(-0.000556212 2.1107e-06 0)
(-0.000556318 -1.14503e-07 -1.43182e-31)
(-0.000555851 -2.22879e-06 -1.67718e-31)
(-0.000554833 -4.2324e-06 2.6198e-32)
(-0.000553283 -6.12605e-06 -2.61244e-32)
(-0.000551224 -7.91089e-06 -4.87066e-31)
(-0.000548677 -9.58844e-06 -5.47525e-31)
(-0.000545664 -1.11605e-05 1.2828e-30)