/*--------------------------------*- C++ -*----------------------------------*\
  =========                 |
  \\      /  F ield         | OpenFOAM: The Open Source CFD Toolbox
   \\    /   O peration     | Website:  https://openfoam.org
    \\  /    A nd           | Version:  10
     \\/     M anipulation  |
\*---------------------------------------------------------------------------*/
FoamFile
{
    format      ascii;
    class       surfaceScalarField;
    location    "0.077";
    object      phi;
}
// * * * * * * * * * * * * * * * * * * * * * * * * * * * * * * * * * * * * * //

dimensions      [0 3 -1 0 0 0 0];

internalField   nonuniform List<scalar> 
7780
(
2.50004e-09
-3.68728e-14
2.50015e-09
-1.10376e-13
2.50034e-09
-1.84002e-13
2.5006e-09
-2.57732e-13
2.50094e-09
-3.31585e-13
2.50135e-09
-4.05645e-13
2.50183e-09
-4.79966e-13
2.50239e-09
-5.54677e-13
2.50302e-09
-6.29802e-13
2.50373e-09
-7.05517e-13
2.50452e-09
-7.81823e-13
2.50538e-09
-8.58934e-13
2.50632e-09
-9.36846e-13
2.50734e-09
-1.0158e-12
2.50844e-09
-1.09581e-12
2.50962e-09
-1.17713e-12
2.51089e-09
-1.25982e-12
2.51223e-09
-1.34416e-12
2.51367e-09
-1.43023e-12
2.51519e-09
-1.51832e-12
2.51681e-09
-1.60856e-12
2.51851e-09
-1.70123e-12
2.52032e-09
-1.7965e-12
2.52222e-09
-1.89466e-12
2.52422e-09
-1.99591e-12
2.52632e-09
-2.10054e-12
2.52854e-09
-2.20877e-12
2.53087e-09
-2.3209e-12
2.53331e-09
-2.43718e-12
2.53587e-09
-2.55791e-12
2.53856e-09
-2.68337e-12
2.54138e-09
-2.81385e-12
2.54434e-09
-2.94966e-12
2.54744e-09
-3.0911e-12
2.55069e-09
-3.23851e-12
2.55409e-09
-3.39216e-12
2.55764e-09
-3.55242e-12
2.56137e-09
-3.71958e-12
2.56527e-09
-3.894e-12
2.56936e-09
-4.07597e-12
2.57363e-09
-4.26588e-12
2.57811e-09
-4.46398e-12
2.58279e-09
-4.6707e-12
2.58768e-09
-4.88626e-12
2.5928e-09
-5.11109e-12
2.59816e-09
-5.34541e-12
2.60376e-09
-5.58963e-12
2.60961e-09
-5.84393e-12
2.61573e-09
-6.10873e-12
2.62213e-09
-6.38415e-12
2.62881e-09
-6.67059e-12
2.63579e-09
-6.96809e-12
2.64307e-09
-7.27703e-12
2.65069e-09
-7.59734e-12
2.65862e-09
-7.92932e-12
2.66691e-09
-8.2728e-12
2.67555e-09
-8.62796e-12
2.68456e-09
-8.99444e-12
2.69395e-09
-9.37229e-12
2.70372e-09
-9.76093e-12
2.7139e-09
-1.01602e-11
2.72448e-09
-1.05692e-11
2.73548e-09
-1.09876e-11
2.74692e-09
-1.14141e-11
2.75878e-09
-1.1848e-11
2.77109e-09
-1.22876e-11
2.78383e-09
-1.27317e-11
2.79703e-09
-1.31783e-11
2.81067e-09
-1.36257e-11
2.82476e-09
-1.40712e-11
2.83929e-09
-1.4513e-11
2.85426e-09
-1.49475e-11
2.86965e-09
-1.53727e-11
2.88546e-09
-1.57845e-11
2.90166e-09
-1.61805e-11
2.91824e-09
-1.65563e-11
2.93516e-09
-1.69093e-11
2.95243e-09
-1.72352e-11
2.96998e-09
-1.75314e-11
2.9878e-09
-1.77937e-11
3.00584e-09
-1.802e-11
3.02408e-09
-1.82065e-11
3.04244e-09
-1.8352e-11
3.06093e-09
-1.84534e-11
3.07946e-09
-1.85105e-11
3.09802e-09
-1.85213e-11
3.11652e-09
-1.84868e-11
3.13497e-09
-1.8406e-11
3.15326e-09
-1.82811e-11
3.17142e-09
-1.8112e-11
3.18933e-09
-1.79022e-11
3.20703e-09
-1.76523e-11
3.22441e-09
-1.73666e-11
3.2415e-09
-1.70463e-11
3.25821e-09
-1.66964e-11
3.27458e-09
-1.63183e-11
3.29051e-09
-1.59173e-11
3.30605e-09
-1.54947e-11
3.32112e-09
-1.5056e-11
3.33577e-09
-1.46025e-11
3.34992e-09
-1.41394e-11
3.36364e-09
-1.36676e-11
3.37685e-09
-1.31921e-11
3.38961e-09
-1.27133e-11
3.40186e-09
-1.2236e-11
3.41367e-09
-1.17601e-11
3.42497e-09
-1.12899e-11
3.43585e-09
-1.08249e-11
3.44623e-09
-1.03689e-11
3.4562e-09
-9.92097e-12
3.4657e-09
-9.48468e-12
3.47481e-09
-9.05861e-12
3.48347e-09
-8.64603e-12
3.49177e-09
-8.24515e-12
3.49963e-09
-7.85895e-12
3.50717e-09
-7.48539e-12
3.51431e-09
-7.12718e-12
3.52115e-09
-6.78203e-12
3.52761e-09
-6.45245e-12
3.5338e-09
-6.13597e-12
3.53964e-09
-5.83492e-12
3.54524e-09
-5.54669e-12
3.55052e-09
-5.27348e-12
3.55559e-09
-5.01258e-12
3.56036e-09
-4.76611e-12
3.56495e-09
-4.53128e-12
3.56926e-09
-4.31019e-12
3.57342e-09
-4.1e-12
3.57733e-09
-3.9028e-12
3.5811e-09
-3.71572e-12
3.58464e-09
-3.54089e-12
3.58808e-09
-3.37541e-12
3.5913e-09
-3.22149e-12
3.59444e-09
-3.07615e-12
3.59738e-09
-2.94171e-12
3.60026e-09
-2.81515e-12
3.60295e-09
-2.69891e-12
3.60561e-09
-2.58988e-12
3.6081e-09
-2.49066e-12
3.61056e-09
-2.39805e-12
3.61287e-09
-2.31484e-12
3.61518e-09
-2.23768e-12
3.61734e-09
-2.1696e-12
3.61952e-09
-2.1071e-12
3.62156e-09
-2.05347e-12
3.62364e-09
-2.005e-12
3.62559e-09
-1.9653e-12
3.6276e-09
-1.9304e-12
3.62948e-09
-1.90428e-12
3.63145e-09
-1.88263e-12
3.63329e-09
-1.86983e-12
3.63524e-09
-1.86122e-12
3.63708e-09
-1.86153e-12
3.63903e-09
-1.8657e-12
3.64088e-09
-1.87881e-12
3.64287e-09
-1.89539e-12
3.64476e-09
-1.92083e-12
3.64681e-09
-1.94918e-12
3.64876e-09
-1.98615e-12
3.65089e-09
-2.02535e-12
3.65292e-09
-2.07273e-12
3.65515e-09
-2.12151e-12
3.65729e-09
-2.17793e-12
3.65964e-09
-2.23486e-12
3.6619e-09
-2.29885e-12
3.66438e-09
-2.36251e-12
3.66677e-09
-2.43279e-12
3.6694e-09
-2.50211e-12
3.67193e-09
-2.5779e-12
3.67472e-09
-2.65242e-12
3.67741e-09
-2.73375e-12
3.68037e-09
-2.81389e-12
3.68322e-09
-2.90176e-12
3.68637e-09
-2.98895e-12
3.68939e-09
-3.08533e-12
3.69276e-09
-3.18189e-12
3.69598e-09
-3.28959e-12
3.69957e-09
-3.39844e-12
3.70301e-09
-3.52067e-12
3.70688e-09
-3.64491e-12
3.71057e-09
-3.78478e-12
3.71474e-09
-3.92705e-12
3.71872e-09
-4.08686e-12
3.72324e-09
-4.24873e-12
3.72755e-09
-4.42937e-12
3.73245e-09
-4.61063e-12
3.73712e-09
-4.81093e-12
3.74245e-09
-5.00926e-12
3.7475e-09
-5.22583e-12
3.75327e-09
-5.43685e-12
3.75873e-09
-5.66429e-12
3.76496e-09
-5.88177e-12
3.77085e-09
-6.11308e-12
3.77754e-09
-6.32955e-12
3.78385e-09
-6.55671e-12
3.79097e-09
-6.76498e-12
3.79786e-09
-6.97716e-12
3.805e-09
-7.17983e-12
3.81234e-09
-7.33334e-12
-7.63605e-12
2.50004e-09
-7.3527e-14
2.50015e-09
-2.20269e-13
2.50034e-09
-3.67232e-13
2.5006e-09
-5.1445e-13
2.50094e-09
-6.61974e-13
2.50134e-09
-8.09922e-13
2.50183e-09
-9.58403e-13
2.50238e-09
-1.10758e-12
2.50301e-09
-1.25758e-12
2.50372e-09
-1.4086e-12
2.5045e-09
-1.56082e-12
2.50536e-09
-1.71447e-12
2.5063e-09
-1.86976e-12
2.50732e-09
-2.02697e-12
2.50841e-09
-2.18636e-12
2.50959e-09
-2.34825e-12
2.51085e-09
-2.51295e-12
2.51219e-09
-2.68081e-12
2.51361e-09
-2.8522e-12
2.51513e-09
-3.02752e-12
2.51673e-09
-3.20717e-12
2.51843e-09
-3.3916e-12
2.52022e-09
-3.58123e-12
2.52211e-09
-3.77657e-12
2.5241e-09
-3.97807e-12
2.52619e-09
-4.18627e-12
2.52839e-09
-4.40166e-12
2.5307e-09
-4.62481e-12
2.53312e-09
-4.85623e-12
2.53567e-09
-5.09652e-12
2.53834e-09
-5.34624e-12
2.54114e-09
-5.60599e-12
2.54407e-09
-5.87638e-12
2.54715e-09
-6.15802e-12
2.55037e-09
-6.45153e-12
2.55374e-09
-6.75757e-12
2.55727e-09
-7.07677e-12
2.56097e-09
-7.40979e-12
2.56485e-09
-7.75728e-12
2.5689e-09
-8.11992e-12
2.57314e-09
-8.49836e-12
2.57758e-09
-8.89329e-12
2.58222e-09
-9.30536e-12
2.58708e-09
-9.73524e-12
2.59216e-09
-1.01836e-11
2.59748e-09
-1.0651e-11
2.60304e-09
-1.11382e-11
2.60885e-09
-1.16458e-11
2.61493e-09
-1.21743e-11
2.62128e-09
-1.27243e-11
2.62792e-09
-1.32962e-11
2.63486e-09
-1.38907e-11
2.6421e-09
-1.45079e-11
2.64966e-09
-1.51484e-11
2.65756e-09
-1.58122e-11
2.6658e-09
-1.64994e-11
2.67439e-09
-1.72102e-11
2.68336e-09
-1.79442e-11
2.6927e-09
-1.87011e-11
2.70244e-09
-1.94804e-11
2.71257e-09
-2.02812e-11
2.72312e-09
-2.11024e-11
2.73409e-09
-2.19428e-11
2.7455e-09
-2.28004e-11
2.75734e-09
-2.36732e-11
2.76963e-09
-2.45587e-11
2.78237e-09
-2.54538e-11
2.79557e-09
-2.63552e-11
2.80922e-09
-2.72587e-11
2.82333e-09
-2.816e-11
2.83789e-09
-2.90541e-11
2.8529e-09
-2.99353e-11
2.86834e-09
-3.07977e-11
2.88422e-09
-3.16348e-11
2.90049e-09
-3.24399e-11
2.91717e-09
-3.32057e-11
2.93421e-09
-3.39251e-11
2.95159e-09
-3.45906e-11
2.96927e-09
-3.51953e-11
2.98724e-09
-3.57321e-11
3.00544e-09
-3.61948e-11
3.02384e-09
-3.65773e-11
3.04238e-09
-3.6875e-11
3.06105e-09
-3.70836e-11
3.07976e-09
-3.72004e-11
3.0985e-09
-3.72236e-11
3.11718e-09
-3.71526e-11
3.1358e-09
-3.69881e-11
3.15427e-09
-3.6732e-11
3.17259e-09
-3.63872e-11
3.19066e-09
-3.59578e-11
3.2085e-09
-3.54484e-11
3.22602e-09
-3.48648e-11
3.24323e-09
-3.42128e-11
3.26005e-09
-3.34994e-11
3.27651e-09
-3.27309e-11
3.29253e-09
-3.19147e-11
3.30814e-09
-3.10575e-11
3.32327e-09
-3.01664e-11
3.33796e-09
-2.92478e-11
3.35215e-09
-2.83086e-11
3.36588e-09
-2.73545e-11
3.3791e-09
-2.63917e-11
3.39186e-09
-2.54252e-11
3.4041e-09
-2.44602e-11
3.41589e-09
-2.3501e-11
3.42717e-09
-2.25519e-11
3.43802e-09
-2.16161e-11
3.44836e-09
-2.06972e-11
3.45829e-09
-1.97975e-11
3.46774e-09
-1.89197e-11
3.4768e-09
-1.80654e-11
3.4854e-09
-1.72365e-11
3.49364e-09
-1.6434e-11
3.50146e-09
-1.56591e-11
3.50894e-09
-1.49123e-11
3.51602e-09
-1.41943e-11
3.52279e-09
-1.35051e-11
3.5292e-09
-1.2845e-11
3.53533e-09
-1.22135e-11
3.54112e-09
-1.16109e-11
3.54666e-09
-1.10362e-11
3.55189e-09
-1.04895e-11
3.5569e-09
-9.96973e-12
3.56162e-09
-9.47658e-12
3.56615e-09
-9.00913e-12
3.57042e-09
-8.56683e-12
3.57452e-09
-8.14875e-12
3.57839e-09
-7.75429e-12
3.58211e-09
-7.38251e-12
3.58561e-09
-7.03282e-12
3.58899e-09
-6.70429e-12
3.59218e-09
-6.39634e-12
3.59527e-09
-6.10809e-12
3.59817e-09
-5.83901e-12
3.601e-09
-5.58825e-12
3.60366e-09
-5.35535e-12
3.60627e-09
-5.13951e-12
3.60873e-09
-4.94035e-12
3.61115e-09
-4.75715e-12
3.61343e-09
-4.58963e-12
3.61569e-09
-4.43714e-12
3.61782e-09
-4.2995e-12
3.61995e-09
-4.17617e-12
3.62197e-09
-4.06705e-12
3.624e-09
-3.97172e-12
3.62592e-09
-3.89014e-12
3.62788e-09
-3.82201e-12
3.62974e-09
-3.76733e-12
3.63165e-09
-3.7259e-12
3.63347e-09
-3.6977e-12
3.63537e-09
-3.68258e-12
3.63717e-09
-3.68051e-12
3.63908e-09
-3.69128e-12
3.6409e-09
-3.7148e-12
3.64284e-09
-3.75074e-12
3.6447e-09
-3.7989e-12
3.64669e-09
-3.85876e-12
3.64862e-09
-3.92998e-12
3.65069e-09
-4.01181e-12
3.65271e-09
-4.1038e-12
3.65488e-09
-4.20495e-12
3.657e-09
-4.3148e-12
3.65929e-09
-4.4322e-12
3.66153e-09
-4.55677e-12
3.66396e-09
-4.68733e-12
3.66633e-09
-4.82379e-12
3.6689e-09
-4.96508e-12
3.67141e-09
-5.11161e-12
3.67414e-09
-5.26256e-12
3.6768e-09
-5.41898e-12
3.67969e-09
-5.58041e-12
3.68252e-09
-5.7486e-12
3.68559e-09
-5.92348e-12
3.68858e-09
-6.10745e-12
3.69185e-09
-6.30076e-12
3.69503e-09
-6.5063e-12
3.69853e-09
-6.72441e-12
3.70193e-09
-6.95825e-12
3.70568e-09
-7.20804e-12
3.70932e-09
-7.47677e-12
3.71337e-09
-7.76427e-12
3.71729e-09
-8.07297e-12
3.72168e-09
-8.40206e-12
3.72593e-09
-8.75294e-12
3.73069e-09
-9.12389e-12
3.73532e-09
-9.51504e-12
3.7405e-09
-9.92365e-12
3.74552e-09
-1.03485e-11
3.75114e-09
-1.07858e-11
3.75658e-09
-1.1233e-11
3.76266e-09
-1.16858e-11
3.76854e-09
-1.21407e-11
3.7751e-09
-1.25929e-11
3.78142e-09
-1.30383e-11
3.78841e-09
-1.34739e-11
3.79529e-09
-1.38888e-11
3.80237e-09
-1.43076e-11
3.80966e-09
-1.46203e-11
-1.52305e-11
2.50004e-09
-1.10044e-13
2.50015e-09
-3.29736e-13
2.50034e-09
-5.49708e-13
2.5006e-09
-7.70028e-13
2.50093e-09
-9.90777e-13
2.50134e-09
-1.2121e-12
2.50182e-09
-1.43418e-12
2.50237e-09
-1.65719e-12
2.503e-09
-1.88135e-12
2.5037e-09
-2.10693e-12
2.50448e-09
-2.3342e-12
2.50533e-09
-2.56349e-12
2.50626e-09
-2.79514e-12
2.50727e-09
-3.02954e-12
2.50835e-09
-3.26711e-12
2.50952e-09
-3.50831e-12
2.51076e-09
-3.75363e-12
2.51209e-09
-4.00358e-12
2.5135e-09
-4.25873e-12
2.515e-09
-4.51967e-12
2.51659e-09
-4.78701e-12
2.51826e-09
-5.06141e-12
2.52003e-09
-5.34355e-12
2.52189e-09
-5.63413e-12
2.52385e-09
-5.9339e-12
2.52592e-09
-6.24361e-12
2.52809e-09
-6.56405e-12
2.53037e-09
-6.89603e-12
2.53276e-09
-7.24037e-12
2.53526e-09
-7.59794e-12
2.53789e-09
-7.9696e-12
2.54065e-09
-8.35625e-12
2.54354e-09
-8.75879e-12
2.54657e-09
-9.17817e-12
2.54974e-09
-9.61531e-12
2.55306e-09
-1.00712e-11
2.55654e-09
-1.05468e-11
2.56018e-09
-1.10431e-11
2.564e-09
-1.1561e-11
2.56799e-09
-1.21017e-11
2.57216e-09
-1.26661e-11
2.57654e-09
-1.32552e-11
2.58111e-09
-1.387e-11
2.5859e-09
-1.45116e-11
2.5909e-09
-1.5181e-11
2.59614e-09
-1.58791e-11
2.60162e-09
-1.66069e-11
2.60735e-09
-1.73655e-11
2.61334e-09
-1.81556e-11
2.61961e-09
-1.89781e-11
2.62616e-09
-1.98339e-11
2.63301e-09
-2.07238e-11
2.64016e-09
-2.16483e-11
2.64763e-09
-2.26081e-11
2.65543e-09
-2.36035e-11
2.66358e-09
-2.46348e-11
2.67209e-09
-2.57021e-11
2.68097e-09
-2.68052e-11
2.69022e-09
-2.79438e-11
2.69988e-09
-2.91171e-11
2.70993e-09
-3.03241e-11
2.72041e-09
-3.15634e-11
2.73131e-09
-3.28329e-11
2.74266e-09
-3.41304e-11
2.75446e-09
-3.54527e-11
2.76672e-09
-3.67962e-11
2.77943e-09
-3.81566e-11
2.79263e-09
-3.95287e-11
2.80629e-09
-4.09067e-11
2.82044e-09
-4.22838e-11
2.83506e-09
-4.36525e-11
2.85015e-09
-4.50042e-11
2.8657e-09
-4.63296e-11
2.88171e-09
-4.76189e-11
2.89815e-09
-4.88613e-11
2.91502e-09
-5.00455e-11
2.93227e-09
-5.116e-11
2.9499e-09
-5.21931e-11
2.96786e-09
-5.31332e-11
2.98613e-09
-5.39693e-11
3.00464e-09
-5.46908e-11
3.02338e-09
-5.52883e-11
3.04228e-09
-5.57537e-11
3.06131e-09
-5.60806e-11
3.0804e-09
-5.6264e-11
3.09951e-09
-5.63013e-11
3.11857e-09
-5.61915e-11
3.13756e-09
-5.59359e-11
3.15638e-09
-5.55376e-11
3.17504e-09
-5.50014e-11
3.19343e-09
-5.43339e-11
3.21157e-09
-5.3543e-11
3.22936e-09
-5.26377e-11
3.24682e-09
-5.1628e-11
3.26387e-09
-5.05244e-11
3.28052e-09
-4.93378e-11
3.2967e-09
-4.80792e-11
3.31245e-09
-4.67597e-11
3.32769e-09
-4.53901e-11
3.34247e-09
-4.39808e-11
3.35673e-09
-4.25419e-11
3.3705e-09
-4.10826e-11
3.38374e-09
-3.96118e-11
3.3965e-09
-3.81377e-11
3.40873e-09
-3.66678e-11
3.42048e-09
-3.52087e-11
3.43172e-09
-3.37666e-11
3.4425e-09
-3.23468e-11
3.45277e-09
-3.0954e-11
3.46262e-09
-2.95923e-11
3.47198e-09
-2.82651e-11
3.48094e-09
-2.69752e-11
3.48945e-09
-2.57249e-11
3.49758e-09
-2.45159e-11
3.50528e-09
-2.33497e-11
3.51265e-09
-2.2227e-11
3.51962e-09
-2.11485e-11
3.52628e-09
-2.01143e-11
3.53257e-09
-1.91244e-11
3.53859e-09
-1.81785e-11
3.54427e-09
-1.72761e-11
3.5497e-09
-1.64164e-11
3.55482e-09
-1.55988e-11
3.55972e-09
-1.48221e-11
3.56435e-09
-1.40854e-11
3.56878e-09
-1.33875e-11
3.57295e-09
-1.27274e-11
3.57696e-09
-1.21038e-11
3.58073e-09
-1.15156e-11
3.58436e-09
-1.09615e-11
3.58778e-09
-1.04404e-11
3.59108e-09
-9.95114e-12
3.59419e-09
-9.49258e-12
3.5972e-09
-9.06357e-12
3.60003e-09
-8.66314e-12
3.60279e-09
-8.29017e-12
3.60538e-09
-7.94378e-12
3.60792e-09
-7.6229e-12
3.61032e-09
-7.32679e-12
3.61267e-09
-7.05445e-12
3.61489e-09
-6.8053e-12
3.61709e-09
-6.57845e-12
3.61917e-09
-6.37349e-12
3.62125e-09
-6.18971e-12
3.62321e-09
-6.02685e-12
3.62518e-09
-5.88441e-12
3.62705e-09
-5.76227e-12
3.62896e-09
-5.66014e-12
3.63076e-09
-5.57797e-12
3.63263e-09
-5.51567e-12
3.63439e-09
-5.47317e-12
3.63623e-09
-5.45053e-12
3.63799e-09
-5.44752e-12
3.63984e-09
-5.46426e-12
3.64161e-09
-5.50028e-12
3.6435e-09
-5.55563e-12
3.64531e-09
-5.62949e-12
3.64726e-09
-5.7217e-12
3.64915e-09
-5.83107e-12
3.65118e-09
-5.95712e-12
3.65316e-09
-6.09834e-12
3.6553e-09
-6.25389e-12
3.65739e-09
-6.42211e-12
3.65965e-09
-6.60187e-12
3.66187e-09
-6.79163e-12
3.66427e-09
-6.99014e-12
3.66662e-09
-7.19635e-12
3.66917e-09
-7.40912e-12
3.67167e-09
-7.62827e-12
3.67437e-09
-7.85301e-12
3.67701e-09
-8.08434e-12
3.67987e-09
-8.32202e-12
3.68267e-09
-8.56831e-12
3.6857e-09
-8.82359e-12
3.68866e-09
-9.09135e-12
3.69188e-09
-9.37246e-12
3.69502e-09
-9.67128e-12
3.69844e-09
-9.98901e-12
3.70178e-09
-1.03304e-11
3.70546e-09
-1.06966e-11
3.70903e-09
-1.1092e-11
3.71299e-09
-1.15175e-11
3.71685e-09
-1.19763e-11
3.72114e-09
-1.24685e-11
3.72533e-09
-1.29953e-11
3.73001e-09
-1.3556e-11
3.73458e-09
-1.4149e-11
3.7397e-09
-1.47723e-11
3.74468e-09
-1.54216e-11
3.75027e-09
-1.60937e-11
3.75571e-09
-1.67816e-11
3.76178e-09
-1.74812e-11
3.76769e-09
-1.81833e-11
3.77427e-09
-1.8884e-11
3.78066e-09
-1.95723e-11
3.78771e-09
-2.02471e-11
3.7947e-09
-2.08883e-11
3.80186e-09
-2.15333e-11
3.80926e-09
-2.20173e-11
-2.29535e-11
2.50004e-09
-1.46325e-13
2.50015e-09
-4.38532e-13
2.50034e-09
-7.31047e-13
2.5006e-09
-1.02395e-12
2.50093e-09
-1.31733e-12
2.50133e-09
-1.61136e-12
2.50181e-09
-1.90625e-12
2.50235e-09
-2.20222e-12
2.50298e-09
-2.49956e-12
2.50367e-09
-2.79859e-12
2.50444e-09
-3.09967e-12
2.50528e-09
-3.40323e-12
2.5062e-09
-3.70972e-12
2.5072e-09
-4.01967e-12
2.50827e-09
-4.33363e-12
2.50942e-09
-4.65222e-12
2.51064e-09
-4.97609e-12
2.51195e-09
-5.30594e-12
2.51334e-09
-5.64252e-12
2.51481e-09
-5.98663e-12
2.51637e-09
-6.33909e-12
2.51802e-09
-6.70078e-12
2.51975e-09
-7.07262e-12
2.52158e-09
-7.45554e-12
2.5235e-09
-7.85056e-12
2.52552e-09
-8.25867e-12
2.52765e-09
-8.68094e-12
2.52987e-09
-9.11845e-12
2.53221e-09
-9.57231e-12
2.53467e-09
-1.00437e-11
2.53724e-09
-1.05337e-11
2.53993e-09
-1.10437e-11
2.54275e-09
-1.15747e-11
2.54571e-09
-1.2128e-11
2.54881e-09
-1.2705e-11
2.55205e-09
-1.33069e-11
2.55545e-09
-1.3935e-11
2.55901e-09
-1.45906e-11
2.56273e-09
-1.52751e-11
2.56663e-09
-1.59899e-11
2.5707e-09
-1.67363e-11
2.57498e-09
-1.75156e-11
2.57944e-09
-1.83293e-11
2.58412e-09
-1.91787e-11
2.58901e-09
-2.00652e-11
2.59414e-09
-2.09902e-11
2.59949e-09
-2.19551e-11
2.6051e-09
-2.2961e-11
2.61097e-09
-2.40094e-11
2.6171e-09
-2.51015e-11
2.62352e-09
-2.62384e-11
2.63023e-09
-2.74213e-11
2.63724e-09
-2.86511e-11
2.64458e-09
-2.99288e-11
2.65224e-09
-3.1255e-11
2.66025e-09
-3.26303e-11
2.66862e-09
-3.4055e-11
2.67736e-09
-3.55292e-11
2.68648e-09
-3.70526e-11
2.696e-09
-3.86246e-11
2.70594e-09
-4.02441e-11
2.7163e-09
-4.19094e-11
2.7271e-09
-4.36184e-11
2.73836e-09
-4.53681e-11
2.75007e-09
-4.7155e-11
2.76227e-09
-4.89744e-11
2.77495e-09
-5.08208e-11
2.78813e-09
-5.26878e-11
2.80181e-09
-5.45675e-11
2.816e-09
-5.6451e-11
2.83069e-09
-5.83281e-11
2.8459e-09
-6.01873e-11
2.8616e-09
-6.20157e-11
2.87781e-09
-6.37995e-11
2.89449e-09
-6.55234e-11
2.91164e-09
-6.71715e-11
2.92923e-09
-6.87269e-11
2.94724e-09
-7.01727e-11
2.96561e-09
-7.14917e-11
2.98434e-09
-7.26674e-11
3.00335e-09
-7.36841e-11
3.02263e-09
-7.45277e-11
3.04208e-09
-7.51859e-11
3.06168e-09
-7.56489e-11
3.08135e-09
-7.59095e-11
3.10105e-09
-7.59638e-11
3.12068e-09
-7.58106e-11
3.14024e-09
-7.54519e-11
3.15961e-09
-7.48926e-11
3.17879e-09
-7.41402e-11
3.19768e-09
-7.32045e-11
3.21628e-09
-7.20974e-11
3.23449e-09
-7.08323e-11
3.25233e-09
-6.94238e-11
3.26972e-09
-6.78873e-11
3.28666e-09
-6.62388e-11
3.3031e-09
-6.44941e-11
3.31905e-09
-6.26692e-11
3.33446e-09
-6.07792e-11
3.34937e-09
-5.88391e-11
3.36371e-09
-5.68626e-11
3.37753e-09
-5.48628e-11
3.39079e-09
-5.28518e-11
3.40354e-09
-5.08405e-11
3.41573e-09
-4.8839e-11
3.42743e-09
-4.68562e-11
3.43858e-09
-4.49001e-11
3.44926e-09
-4.29777e-11
3.45942e-09
-4.10952e-11
3.46913e-09
-3.92576e-11
3.47836e-09
-3.74695e-11
3.48716e-09
-3.57342e-11
3.49551e-09
-3.40548e-11
3.50348e-09
-3.24333e-11
3.51102e-09
-3.08714e-11
3.51821e-09
-2.93699e-11
3.525e-09
-2.79295e-11
3.53149e-09
-2.655e-11
3.53761e-09
-2.52314e-11
3.54345e-09
-2.39727e-11
3.54897e-09
-2.27732e-11
3.55423e-09
-2.16317e-11
3.55919e-09
-2.05469e-11
3.56394e-09
-1.95173e-11
3.56841e-09
-1.85415e-11
3.57269e-09
-1.76177e-11
3.57672e-09
-1.67445e-11
3.58058e-09
-1.592e-11
3.58422e-09
-1.51428e-11
3.58772e-09
-1.44109e-11
3.59102e-09
-1.3723e-11
3.5942e-09
-1.30772e-11
3.59719e-09
-1.24722e-11
3.60008e-09
-1.19063e-11
3.60281e-09
-1.13783e-11
3.60546e-09
-1.08866e-11
3.60795e-09
-1.043e-11
3.61039e-09
-1.00072e-11
3.61269e-09
-9.61711e-12
3.61495e-09
-9.25842e-12
3.61708e-09
-8.93032e-12
3.61919e-09
-8.63161e-12
3.62118e-09
-8.36168e-12
3.62318e-09
-8.11951e-12
3.62505e-09
-7.90476e-12
3.62695e-09
-7.71664e-12
3.62874e-09
-7.55512e-12
3.63057e-09
-7.4197e-12
3.6323e-09
-7.31055e-12
3.63408e-09
-7.2275e-12
3.63577e-09
-7.17079e-12
3.63753e-09
-7.14051e-12
3.63921e-09
-7.13673e-12
3.64098e-09
-7.15972e-12
3.64268e-09
-7.20913e-12
3.64449e-09
-7.28519e-12
3.64623e-09
-7.38694e-12
3.64811e-09
-7.51431e-12
3.64993e-09
-7.66564e-12
3.6519e-09
-7.84034e-12
3.65382e-09
-8.03611e-12
3.65591e-09
-8.25173e-12
3.65796e-09
-8.48452e-12
3.66018e-09
-8.73266e-12
3.66236e-09
-8.99359e-12
3.66474e-09
-9.2651e-12
3.66707e-09
-9.54543e-12
3.66959e-09
-9.83237e-12
3.67207e-09
-1.01256e-11
3.67474e-09
-1.04233e-11
3.67737e-09
-1.07271e-11
3.6802e-09
-1.10362e-11
3.68296e-09
-1.13541e-11
3.68595e-09
-1.16811e-11
3.68886e-09
-1.20227e-11
3.69201e-09
-1.23801e-11
3.69507e-09
-1.27602e-11
3.69841e-09
-1.31648e-11
3.70166e-09
-1.36017e-11
3.70522e-09
-1.40727e-11
3.70868e-09
-1.4585e-11
3.71251e-09
-1.51404e-11
3.71624e-09
-1.57443e-11
3.72041e-09
-1.63974e-11
3.72447e-09
-1.71022e-11
3.72904e-09
-1.7858e-11
3.7335e-09
-1.86632e-11
3.73852e-09
-1.95153e-11
3.74344e-09
-2.04079e-11
3.74897e-09
-2.13368e-11
3.75438e-09
-2.2291e-11
3.76046e-09
-2.32649e-11
3.7664e-09
-2.42442e-11
3.77305e-09
-2.52228e-11
3.77952e-09
-2.61839e-11
3.78669e-09
-2.71251e-11
3.7938e-09
-2.80179e-11
3.80112e-09
-2.89114e-11
3.80869e-09
-2.958e-11
-3.08646e-11
2.50004e-09
-1.82352e-13
2.50015e-09
-5.46589e-13
2.50033e-09
-9.11132e-13
2.50059e-09
-1.27603e-12
2.50092e-09
-1.64136e-12
2.50132e-09
-2.0073e-12
2.50179e-09
-2.37406e-12
2.50233e-09
-2.7419e-12
2.50295e-09
-3.11114e-12
2.50364e-09
-3.48217e-12
2.5044e-09
-3.85543e-12
2.50523e-09
-4.23143e-12
2.50613e-09
-4.61075e-12
2.50711e-09
-4.99403e-12
2.50816e-09
-5.38198e-12
2.50929e-09
-5.77535e-12
2.5105e-09
-6.17499e-12
2.51178e-09
-6.58179e-12
2.51314e-09
-6.99668e-12
2.51458e-09
-7.42067e-12
2.5161e-09
-7.85482e-12
2.5177e-09
-8.30022e-12
2.51939e-09
-8.75802e-12
2.52117e-09
-9.22944e-12
2.52304e-09
-9.7157e-12
2.52501e-09
-1.02181e-11
2.52707e-09
-1.07379e-11
2.52924e-09
-1.12766e-11
2.53151e-09
-1.18355e-11
2.53389e-09
-1.24161e-11
2.53638e-09
-1.30198e-11
2.53899e-09
-1.36482e-11
2.54173e-09
-1.43028e-11
2.54459e-09
-1.49851e-11
2.54759e-09
-1.56968e-11
2.55073e-09
-1.64395e-11
2.55402e-09
-1.72148e-11
2.55746e-09
-1.80245e-11
2.56107e-09
-1.88702e-11
2.56484e-09
-1.97536e-11
2.56879e-09
-2.06765e-11
2.57292e-09
-2.16406e-11
2.57725e-09
-2.26477e-11
2.58178e-09
-2.36995e-11
2.58652e-09
-2.47979e-11
2.59149e-09
-2.59445e-11
2.59668e-09
-2.71412e-11
2.60212e-09
-2.83896e-11
2.60782e-09
-2.96915e-11
2.61378e-09
-3.10486e-11
2.62001e-09
-3.24624e-11
2.62654e-09
-3.39345e-11
2.63336e-09
-3.54664e-11
2.64051e-09
-3.70593e-11
2.64798e-09
-3.87145e-11
2.6558e-09
-4.04329e-11
2.66397e-09
-4.22152e-11
2.67252e-09
-4.4062e-11
2.68145e-09
-4.59733e-11
2.69079e-09
-4.79489e-11
2.70055e-09
-4.99878e-11
2.71075e-09
-5.20886e-11
2.72139e-09
-5.42492e-11
2.73251e-09
-5.64667e-11
2.74411e-09
-5.87369e-11
2.75621e-09
-6.1055e-11
2.76882e-09
-6.34145e-11
2.78196e-09
-6.58077e-11
2.79563e-09
-6.82254e-11
2.80986e-09
-7.06566e-11
2.82464e-09
-7.30885e-11
2.83998e-09
-7.55064e-11
2.85588e-09
-7.78938e-11
2.87233e-09
-8.02321e-11
2.88933e-09
-8.2501e-11
2.90686e-09
-8.46786e-11
2.9249e-09
-8.67418e-11
2.94342e-09
-8.86666e-11
2.96238e-09
-9.04288e-11
2.98174e-09
-9.20045e-11
3.00145e-09
-9.3371e-11
3.02146e-09
-9.45075e-11
3.04169e-09
-9.53962e-11
3.0621e-09
-9.60225e-11
3.08259e-09
-9.63761e-11
3.10311e-09
-9.64511e-11
3.12357e-09
-9.62463e-11
3.14392e-09
-9.57652e-11
3.16406e-09
-9.50152e-11
3.18397e-09
-9.4008e-11
3.20354e-09
-9.27581e-11
3.22277e-09
-9.12828e-11
3.24156e-09
-8.96015e-11
3.25992e-09
-8.7735e-11
3.27775e-09
-8.57047e-11
3.29509e-09
-8.35326e-11
3.31186e-09
-8.12406e-11
3.32808e-09
-7.88502e-11
3.34371e-09
-7.63819e-11
3.35877e-09
-7.38555e-11
3.37322e-09
-7.12892e-11
3.3871e-09
-6.87003e-11
3.40037e-09
-6.61041e-11
3.4131e-09
-6.3515e-11
3.42522e-09
-6.09454e-11
3.43682e-09
-5.84066e-11
3.44785e-09
-5.59084e-11
3.45838e-09
-5.34593e-11
3.46836e-09
-5.10664e-11
3.47789e-09
-4.87359e-11
3.48691e-09
-4.64727e-11
3.49551e-09
-4.4281e-11
3.50363e-09
-4.21638e-11
3.51137e-09
-4.01235e-11
3.51868e-09
-3.81615e-11
3.52563e-09
-3.62787e-11
3.5322e-09
-3.44755e-11
3.53845e-09
-3.27515e-11
3.54434e-09
-3.11059e-11
3.54995e-09
-2.95375e-11
3.55523e-09
-2.80449e-11
3.56028e-09
-2.66263e-11
3.56502e-09
-2.52798e-11
3.56956e-09
-2.40031e-11
3.57382e-09
-2.27943e-11
3.57791e-09
-2.16509e-11
3.58175e-09
-2.05709e-11
3.58543e-09
-1.95519e-11
3.58889e-09
-1.8592e-11
3.59222e-09
-1.76887e-11
3.59534e-09
-1.68401e-11
3.59836e-09
-1.60441e-11
3.6012e-09
-1.52988e-11
3.60395e-09
-1.4602e-11
3.60653e-09
-1.39521e-11
3.60904e-09
-1.3347e-11
3.61141e-09
-1.27853e-11
3.61372e-09
-1.22651e-11
3.61589e-09
-1.17851e-11
3.61803e-09
-1.13436e-11
3.62005e-09
-1.09396e-11
3.62205e-09
-1.05716e-11
3.62393e-09
-1.0239e-11
3.62581e-09
-9.94035e-12
3.62758e-09
-9.67532e-12
3.62937e-09
-9.44289e-12
3.63105e-09
-9.24302e-12
3.63278e-09
-9.07506e-12
3.6344e-09
-8.93938e-12
3.63608e-09
-8.83575e-12
3.63766e-09
-8.76481e-12
3.63933e-09
-8.72674e-12
3.6409e-09
-8.72215e-12
3.64257e-09
-8.75154e-12
3.64417e-09
-8.81505e-12
3.64588e-09
-8.91318e-12
3.64753e-09
-9.04517e-12
3.64931e-09
-9.21119e-12
3.65104e-09
-9.4092e-12
3.65293e-09
-9.63865e-12
3.65477e-09
-9.89622e-12
3.65679e-09
-1.01803e-11
3.65878e-09
-1.04867e-11
3.66095e-09
-1.08128e-11
3.66309e-09
-1.11541e-11
3.66542e-09
-1.15074e-11
3.66773e-09
-1.1869e-11
3.67022e-09
-1.22358e-11
3.67268e-09
-1.26059e-11
3.67533e-09
-1.29771e-11
3.67794e-09
-1.33505e-11
3.68073e-09
-1.37251e-11
3.68346e-09
-1.41054e-11
3.68639e-09
-1.44919e-11
3.68924e-09
-1.48925e-11
3.6923e-09
-1.53089e-11
3.69528e-09
-1.57516e-11
3.69849e-09
-1.62234e-11
3.70161e-09
-1.67361e-11
3.70501e-09
-1.72929e-11
3.70831e-09
-1.79053e-11
3.71196e-09
-1.85761e-11
3.71551e-09
-1.93146e-11
3.71949e-09
-2.01226e-11
3.72336e-09
-2.10053e-11
3.72775e-09
-2.19619e-11
3.73204e-09
-2.29921e-11
3.73692e-09
-2.4092e-11
3.74171e-09
-2.52541e-11
3.74716e-09
-2.64715e-11
3.75251e-09
-2.77296e-11
3.75859e-09
-2.90189e-11
3.76455e-09
-3.0319e-11
3.77128e-09
-3.162e-11
3.77786e-09
-3.28977e-11
3.78519e-09
-3.41472e-11
3.7925e-09
-3.53291e-11
3.80004e-09
-3.65063e-11
3.80785e-09
-3.73857e-11
-3.90493e-11
2.50004e-09
-2.18149e-13
2.50015e-09
-6.54013e-13
2.50033e-09
-1.09013e-12
2.50059e-09
-1.52647e-12
2.50091e-09
-1.96306e-12
2.50131e-09
-2.40004e-12
2.50178e-09
-2.83761e-12
2.50231e-09
-3.27605e-12
2.50292e-09
-3.71569e-12
2.5036e-09
-4.15697e-12
2.50435e-09
-4.60041e-12
2.50517e-09
-5.04661e-12
2.50606e-09
-5.49624e-12
2.50702e-09
-5.95009e-12
2.50805e-09
-6.409e-12
2.50915e-09
-6.8739e-12
2.51033e-09
-7.3458e-12
2.51158e-09
-7.82578e-12
2.5129e-09
-8.315e-12
2.5143e-09
-8.81467e-12
2.51578e-09
-9.32608e-12
2.51733e-09
-9.85057e-12
2.51897e-09
-1.03896e-11
2.52069e-09
-1.09445e-11
2.5225e-09
-1.15168e-11
2.5244e-09
-1.21082e-11
2.52638e-09
-1.27202e-11
2.52847e-09
-1.33545e-11
2.53065e-09
-1.40128e-11
2.53294e-09
-1.46967e-11
2.53534e-09
-1.54082e-11
2.53784e-09
-1.6149e-11
2.54047e-09
-1.69209e-11
2.54322e-09
-1.7726e-11
2.54609e-09
-1.8566e-11
2.54911e-09
-1.94431e-11
2.55226e-09
-2.03591e-11
2.55556e-09
-2.13161e-11
2.55901e-09
-2.23163e-11
2.56263e-09
-2.33616e-11
2.56642e-09
-2.44542e-11
2.57038e-09
-2.55963e-11
2.57453e-09
-2.67899e-11
2.57888e-09
-2.80372e-11
2.58343e-09
-2.93406e-11
2.5882e-09
-3.0702e-11
2.59319e-09
-3.21238e-11
2.59842e-09
-3.36081e-11
2.6039e-09
-3.5157e-11
2.60964e-09
-3.67729e-11
2.61564e-09
-3.84577e-11
2.62193e-09
-4.02136e-11
2.62852e-09
-4.20425e-11
2.63542e-09
-4.39464e-11
2.64265e-09
-4.5927e-11
2.65021e-09
-4.79859e-11
2.65814e-09
-5.01246e-11
2.66643e-09
-5.23441e-11
2.67512e-09
-5.46452e-11
2.68421e-09
-5.70283e-11
2.69373e-09
-5.94931e-11
2.7037e-09
-6.20389e-11
2.71413e-09
-6.46639e-11
2.72505e-09
-6.73657e-11
2.73647e-09
-7.01406e-11
2.74841e-09
-7.29835e-11
2.7609e-09
-7.5888e-11
2.77396e-09
-7.88456e-11
2.7876e-09
-8.18461e-11
2.80184e-09
-8.48769e-11
2.81669e-09
-8.79229e-11
2.83218e-09
-9.09662e-11
2.84829e-09
-9.39864e-11
2.86504e-09
-9.69599e-11
2.88242e-09
-9.98604e-11
2.90043e-09
-1.02659e-10
2.91902e-09
-1.05323e-10
2.93821e-09
-1.07822e-10
2.95792e-09
-1.10119e-10
2.97813e-09
-1.12182e-10
2.99875e-09
-1.13977e-10
3.01975e-09
-1.15474e-10
3.04102e-09
-1.16648e-10
3.06251e-09
-1.17477e-10
3.0841e-09
-1.17946e-10
3.10573e-09
-1.18047e-10
3.12729e-09
-1.17778e-10
3.14871e-09
-1.17146e-10
3.16987e-09
-1.16162e-10
3.19075e-09
-1.14843e-10
3.21122e-09
-1.13212e-10
3.23127e-09
-1.11293e-10
3.25081e-09
-1.09115e-10
3.26982e-09
-1.06706e-10
3.28824e-09
-1.04097e-10
3.30607e-09
-1.01317e-10
3.32324e-09
-9.8396e-11
3.3398e-09
-9.53612e-11
3.35568e-09
-9.22395e-11
3.37092e-09
-8.90561e-11
3.38549e-09
-8.58341e-11
3.39943e-09
-8.25949e-11
3.4127e-09
-7.93576e-11
3.42537e-09
-7.61398e-11
3.4374e-09
-7.29564e-11
3.44887e-09
-6.98212e-11
3.45972e-09
-6.67454e-11
3.47005e-09
-6.37389e-11
3.47981e-09
-6.08099e-11
3.48909e-09
-5.79651e-11
3.49784e-09
-5.52098e-11
3.50616e-09
-5.25482e-11
3.51399e-09
-4.99834e-11
3.52143e-09
-4.75172e-11
3.52844e-09
-4.5151e-11
3.53509e-09
-4.28851e-11
3.54135e-09
-4.07193e-11
3.5473e-09
-3.86524e-11
3.55289e-09
-3.66834e-11
3.55821e-09
-3.48099e-11
3.56321e-09
-3.30299e-11
3.56797e-09
-3.13407e-11
3.57244e-09
-2.97397e-11
3.57671e-09
-2.82237e-11
3.58072e-09
-2.679e-11
3.58455e-09
-2.54352e-11
3.58815e-09
-2.41566e-11
3.5916e-09
-2.29511e-11
3.59483e-09
-2.18161e-11
3.59794e-09
-2.07488e-11
3.60086e-09
-1.97468e-11
3.60367e-09
-1.88074e-11
3.60631e-09
-1.79286e-11
3.60887e-09
-1.71078e-11
3.61127e-09
-1.6343e-11
3.61361e-09
-1.56316e-11
3.6158e-09
-1.49719e-11
3.61795e-09
-1.43611e-11
3.61997e-09
-1.37978e-11
3.62196e-09
-1.32793e-11
3.62383e-09
-1.28047e-11
3.62569e-09
-1.23716e-11
3.62743e-09
-1.19793e-11
3.62918e-09
-1.16262e-11
3.63082e-09
-1.13119e-11
3.63247e-09
-1.10353e-11
3.63402e-09
-1.07966e-11
3.63561e-09
-1.05952e-11
3.6371e-09
-1.04317e-11
3.63864e-09
-1.03061e-11
3.64009e-09
-1.02194e-11
3.64161e-09
-1.01723e-11
3.64305e-09
-1.01659e-11
3.64458e-09
-1.02015e-11
3.64604e-09
-1.02796e-11
3.64761e-09
-1.04016e-11
3.64912e-09
-1.0567e-11
3.65078e-09
-1.07766e-11
3.65239e-09
-1.1028e-11
3.65416e-09
-1.1321e-11
3.6559e-09
-1.1651e-11
3.65783e-09
-1.2016e-11
3.65974e-09
-1.24096e-11
3.66184e-09
-1.28279e-11
3.66393e-09
-1.32637e-11
3.66622e-09
-1.37118e-11
3.6685e-09
-1.41659e-11
3.67097e-09
-1.46206e-11
3.67341e-09
-1.50724e-11
3.67604e-09
-1.55172e-11
3.67863e-09
-1.59558e-11
3.68138e-09
-1.63862e-11
3.68407e-09
-1.68146e-11
3.68693e-09
-1.72413e-11
3.6897e-09
-1.76776e-11
3.69264e-09
-1.81262e-11
3.69549e-09
-1.86021e-11
3.69853e-09
-1.91098e-11
3.70146e-09
-1.96666e-11
3.70463e-09
-2.0278e-11
3.70769e-09
-2.09614e-11
3.71106e-09
-2.1722e-11
3.71432e-09
-2.25748e-11
3.71799e-09
-2.35235e-11
3.72156e-09
-2.45776e-11
3.72564e-09
-2.57381e-11
3.72964e-09