/*--------------------------------*- C++ -*----------------------------------*\
  =========                 |
  \\      /  F ield         | OpenFOAM: The Open Source CFD Toolbox
   \\    /   O peration     | Website:  https://openfoam.org
    \\  /    A nd           | Version:  10
     \\/     M anipulation  |
\*---------------------------------------------------------------------------*/
FoamFile
{
    format      ascii;
    class       volScalarField;
    location    "1.75";
    object      p;
}
// * * * * * * * * * * * * * * * * * * * * * * * * * * * * * * * * * * * * * //

dimensions      [1 -1 -2 0 0 0 0];

internalField   nonuniform List<scalar> 
12225
(
1.66134e+07
1.65586e+07
1.64605e+07
1.63311e+07
1.61808e+07
1.60174e+07
1.58463e+07
1.56712e+07
1.54942e+07
1.53166e+07
1.5139e+07
1.49612e+07
1.47828e+07
1.46026e+07
1.44188e+07
1.4228e+07
1.40233e+07
1.37876e+07
1.66157e+07
1.65606e+07
1.64621e+07
1.63324e+07
1.61818e+07
1.60182e+07
1.5847e+07
1.56718e+07
1.54947e+07
1.53172e+07
1.51396e+07
1.49619e+07
1.47837e+07
1.46039e+07
1.44207e+07
1.4231e+07
1.40294e+07
1.38055e+07
1.66206e+07
1.6565e+07
1.64658e+07
1.63353e+07
1.61841e+07
1.602e+07
1.58484e+07
1.5673e+07
1.54959e+07
1.53184e+07
1.51409e+07
1.49635e+07
1.47857e+07
1.46066e+07
1.44246e+07
1.42374e+07
1.40413e+07
1.38326e+07
1.66288e+07
1.65724e+07
1.64718e+07
1.63401e+07
1.61878e+07
1.60229e+07
1.58508e+07
1.56751e+07
1.54978e+07
1.53203e+07
1.51431e+07
1.49661e+07
1.4789e+07
1.4611e+07
1.4431e+07
1.42472e+07
1.40581e+07
1.38642e+07
1.6641e+07
1.65832e+07
1.64808e+07
1.63471e+07
1.61932e+07
1.60271e+07
1.58542e+07
1.5678e+07
1.55006e+07
1.53231e+07
1.51462e+07
1.49698e+07
1.47937e+07
1.46173e+07
1.44398e+07
1.42604e+07
1.40789e+07
1.38981e+07
1.66579e+07
1.65983e+07
1.64931e+07
1.63568e+07
1.62006e+07
1.60329e+07
1.58589e+07
1.5682e+07
1.55043e+07
1.5327e+07
1.51504e+07
1.49748e+07
1.48e+07
1.46256e+07
1.44512e+07
1.42766e+07
1.41029e+07
1.39332e+07
1.66808e+07
1.66184e+07
1.65095e+07
1.63695e+07
1.62104e+07
1.60404e+07
1.58649e+07
1.56872e+07
1.55092e+07
1.53319e+07
1.51558e+07
1.49812e+07
1.48079e+07
1.46359e+07
1.4465e+07
1.42956e+07
1.41291e+07
1.39687e+07
1.67107e+07
1.66447e+07
1.65306e+07
1.63857e+07
1.62226e+07
1.60498e+07
1.58725e+07
1.56937e+07
1.55152e+07
1.5338e+07
1.51625e+07
1.49891e+07
1.48176e+07
1.46482e+07
1.44811e+07
1.43169e+07
1.41572e+07
1.40046e+07
1.67495e+07
1.66784e+07
1.65573e+07
1.64059e+07
1.62378e+07
1.60614e+07
1.58816e+07
1.57015e+07
1.55224e+07
1.53453e+07
1.51706e+07
1.49985e+07
1.48291e+07
1.46626e+07
1.44993e+07
1.43402e+07
1.41865e+07
1.40405e+07
1.67993e+07
1.67209e+07
1.65904e+07
1.64306e+07
1.6256e+07
1.60751e+07
1.58925e+07
1.57106e+07
1.55309e+07
1.53539e+07
1.518e+07
1.50094e+07
1.48422e+07
1.46787e+07
1.45194e+07
1.4365e+07
1.42169e+07
1.40764e+07
1.6863e+07
1.67742e+07
1.66309e+07
1.646e+07
1.62773e+07
1.60909e+07
1.59049e+07
1.57211e+07
1.55406e+07
1.53638e+07
1.51908e+07
1.50218e+07
1.48569e+07
1.46965e+07
1.4541e+07
1.43911e+07
1.42478e+07
1.41123e+07
1.69378e+07
1.6835e+07
1.66755e+07
1.64916e+07
1.62997e+07
1.61073e+07
1.59176e+07
1.57318e+07
1.55505e+07
1.53738e+07
1.52017e+07
1.50343e+07
1.48716e+07
1.47141e+07
1.45619e+07
1.44159e+07
1.42766e+07
1.41449e+07
1.70299e+07
1.69071e+07
1.67264e+07
1.65265e+07
1.63238e+07
1.61246e+07
1.59309e+07
1.5743e+07
1.55609e+07
1.53844e+07
1.52132e+07
1.50475e+07
1.48871e+07
1.47323e+07
1.45834e+07
1.44409e+07
1.43052e+07
1.41769e+07
1.7166e+07
1.70073e+07
1.67931e+07
1.65701e+07
1.6353e+07
1.61451e+07
1.59465e+07
1.57561e+07
1.55731e+07
1.53969e+07
1.52271e+07
1.50633e+07
1.49055e+07
1.47538e+07
1.46084e+07
1.44696e+07
1.43377e+07
1.42129e+07
1.73777e+07
1.71466e+07
1.68772e+07
1.66212e+07
1.63854e+07
1.61673e+07
1.59631e+07
1.57702e+07
1.55866e+07
1.54111e+07
1.52429e+07
1.50815e+07
1.49267e+07
1.47785e+07
1.46368e+07
1.45019e+07
1.43737e+07
1.42525e+07
1.77348e+07
1.73321e+07
1.69711e+07
1.66716e+07
1.64149e+07
1.61865e+07
1.59775e+07
1.57829e+07
1.55995e+07
1.54255e+07
1.52596e+07
1.51013e+07
1.495e+07
1.48056e+07
1.46679e+07
1.45369e+07
1.44127e+07
1.4295e+07
1.84253e+07
1.7518e+07
1.70317e+07
1.66947e+07
1.6425e+07
1.61922e+07
1.59825e+07
1.57891e+07
1.56081e+07
1.54371e+07
1.52749e+07
1.51205e+07
1.49735e+07
1.48334e+07
1.47001e+07
1.45733e+07
1.4453e+07
1.43389e+07
1.75753e+07
1.7239e+07
1.69119e+07
1.663e+07
1.63848e+07
1.61659e+07
1.59658e+07
1.57801e+07
1.56057e+07
1.54409e+07
1.52845e+07
1.51357e+07
1.4994e+07
1.4859e+07
1.47306e+07
1.46084e+07
1.44923e+07
1.4382e+07
1.70044e+07
1.6867e+07
1.66784e+07
1.64789e+07
1.62833e+07
1.60959e+07
1.59175e+07
1.57476e+07
1.55856e+07
1.5431e+07
1.52833e+07
1.51422e+07
1.50074e+07
1.48787e+07
1.47559e+07
1.46389e+07
1.45273e+07
1.44212e+07
1.66786e+07
1.66001e+07
1.64752e+07
1.63277e+07
1.61711e+07
1.60127e+07
1.5856e+07
1.57028e+07
1.5554e+07
1.54101e+07
1.52713e+07
1.51378e+07
1.50095e+07
1.48866e+07
1.47688e+07
1.46561e+07
1.45485e+07
1.44458e+07
1.64925e+07
1.64362e+07
1.63405e+07
1.62207e+07
1.60876e+07
1.59481e+07
1.58065e+07
1.56654e+07
1.55264e+07
1.53905e+07
1.52584e+07
1.51306e+07
1.50071e+07
1.48883e+07
1.47741e+07
1.46646e+07
1.45597e+07
1.44594e+07
1.63693e+07
1.6324e+07
1.62445e+07
1.61415e+07
1.60237e+07
1.58974e+07
1.57667e+07
1.56346e+07
1.5503e+07
1.53733e+07
1.52464e+07
1.51228e+07
1.50031e+07
1.48875e+07
1.47761e+07
1.4669e+07
1.45662e+07
1.44677e+07
1.6286e+07
1.62469e+07
1.61768e+07
1.60843e+07
1.59766e+07
1.58592e+07
1.57362e+07
1.56105e+07
1.54844e+07
1.53593e+07
1.52362e+07
1.5116e+07
1.49991e+07
1.48858e+07
1.47765e+07
1.46712e+07
1.457e+07
1.44728e+07
1.62293e+07
1.61938e+07
1.61297e+07
1.60439e+07
1.59428e+07
1.58314e+07
1.57137e+07
1.55926e+07
1.54704e+07
1.53486e+07
1.52283e+07
1.51104e+07
1.49955e+07
1.4884e+07
1.47762e+07
1.46722e+07
1.45721e+07
1.44759e+07
1.61909e+07
1.61577e+07
1.60973e+07
1.60158e+07
1.59191e+07
1.58118e+07
1.56977e+07
1.55798e+07
1.54602e+07
1.53407e+07
1.52224e+07
1.51062e+07
1.49927e+07
1.48824e+07
1.47757e+07
1.46726e+07
1.45732e+07
1.44778e+07
1.61654e+07
1.61336e+07
1.60755e+07
1.59969e+07
1.5903e+07
1.57983e+07
1.56867e+07
1.55709e+07
1.54531e+07
1.53351e+07
1.52182e+07
1.51031e+07
1.49906e+07
1.48812e+07
1.47751e+07
1.46727e+07
1.45739e+07
1.44789e+07
1.61491e+07
1.61181e+07
1.60615e+07
1.59846e+07
1.58924e+07
1.57895e+07
1.56794e+07
1.5565e+07
1.54484e+07
1.53314e+07
1.52153e+07
1.5101e+07
1.49892e+07
1.48803e+07
1.47747e+07
1.46726e+07
1.45742e+07
1.44795e+07
1.61391e+07
1.61087e+07
1.6053e+07
1.59771e+07
1.5886e+07
1.57841e+07
1.5675e+07
1.55613e+07
1.54455e+07
1.53291e+07
1.52135e+07
1.50997e+07
1.49882e+07
1.48797e+07
1.47744e+07
1.46726e+07
1.45744e+07
1.44799e+07
1.61338e+07
1.61036e+07
1.60483e+07
1.5973e+07
1.58825e+07
1.57812e+07
1.56725e+07
1.55593e+07
1.54439e+07
1.53279e+07
1.52126e+07
1.50989e+07
1.49877e+07
1.48793e+07
1.47742e+07
1.46725e+07
1.45744e+07
1.448e+07
1.61316e+07
1.61016e+07
1.60464e+07
1.59713e+07
1.58811e+07
1.578e+07
1.56715e+07
1.55585e+07
1.54432e+07
1.53273e+07
1.52121e+07
1.50986e+07
1.49875e+07
1.48792e+07
1.47741e+07
1.46725e+07
1.45744e+07
1.44801e+07
1.08727e+07
1.08711e+07
1.08679e+07
1.08633e+07
1.08576e+07
1.0851e+07
1.08448e+07
1.08394e+07
1.0835e+07
1.08311e+07
1.08275e+07
1.08238e+07
1.08201e+07
1.08166e+07
1.08134e+07
1.08101e+07
1.08069e+07
1.08035e+07
1.08001e+07
1.07966e+07
1.07931e+07
1.07896e+07
1.0786e+07
1.07824e+07
1.07788e+07
1.07752e+07
1.07716e+07
1.07679e+07
1.07643e+07
1.07608e+07
1.07572e+07
1.07537e+07
1.07503e+07
1.07469e+07
1.07435e+07
1.07402e+07
1.07369e+07
1.07337e+07
1.07306e+07
1.07275e+07
1.07244e+07
1.07214e+07
1.07185e+07
1.07156e+07
1.07127e+07
1.07098e+07
1.0707e+07
1.07042e+07
1.07015e+07
1.06987e+07
1.0696e+07
1.06933e+07
1.06907e+07
1.0688e+07
1.06854e+07
1.06828e+07
1.06802e+07
1.06776e+07
1.0675e+07
1.06725e+07
1.06699e+07
1.06674e+07
1.06649e+07
1.06623e+07
1.06598e+07
1.06573e+07
1.06547e+07
1.06522e+07
1.06497e+07
1.06472e+07
1.06447e+07
1.06421e+07
1.06396e+07
1.06371e+07
1.06345e+07
1.0632e+07
1.06294e+07
1.06269e+07
1.06243e+07
1.06217e+07
1.06192e+07
1.06166e+07
1.0614e+07
1.06114e+07
1.06087e+07
1.06061e+07
1.06035e+07
1.06008e+07
1.05981e+07
1.05955e+07
1.05928e+07
1.059e+07
1.05873e+07
1.05846e+07
1.05818e+07
1.0579e+07
1.05763e+07
1.05734e+07
1.05706e+07
1.05678e+07
1.05649e+07
1.0562e+07
1.05591e+07
1.05562e+07
1.05533e+07
1.05503e+07
1.05473e+07
1.05443e+07
1.05413e+07
1.05383e+07
1.05352e+07
1.05321e+07
1.0529e+07
1.05259e+07
1.05228e+07
1.05196e+07
1.05164e+07
1.05132e+07
1.05099e+07
1.05067e+07
1.05034e+07
1.05e+07
1.04967e+07
1.04933e+07
1.04899e+07
1.04865e+07
1.04831e+07
1.04796e+07
1.04761e+07
1.04726e+07
1.04691e+07
1.04655e+07
1.04619e+07
1.04582e+07
1.04546e+07
1.04509e+07
1.04472e+07
1.04434e+07
1.04397e+07
1.04359e+07
1.0432e+07
1.04282e+07
1.04243e+07
1.04204e+07
1.04164e+07
1.04124e+07
1.04084e+07
1.04044e+07
1.04003e+07
1.03962e+07
1.03921e+07
1.03879e+07
1.03837e+07
1.03795e+07
1.03752e+07
1.03709e+07
1.03666e+07
1.03622e+07
1.03578e+07
1.03534e+07
1.03489e+07
1.03444e+07
1.03399e+07
1.03353e+07
1.03307e+07
1.03261e+07
1.03214e+07
1.03167e+07
1.03119e+07
1.03071e+07
1.03023e+07
1.02975e+07
1.02926e+07
1.02877e+07
1.02827e+07
1.02778e+07
1.02728e+07
1.02678e+07
1.02628e+07
1.02579e+07
1.09394e+07
1.09381e+07
1.09355e+07
1.09317e+07
1.09267e+07
1.09206e+07
1.09132e+07
1.09037e+07
1.089e+07
1.08682e+07
1.08368e+07
1.08239e+07
1.08187e+07
1.0816e+07
1.08131e+07
1.08101e+07
1.0807e+07
1.08037e+07
1.08003e+07
1.07967e+07
1.07931e+07
1.07895e+07
1.0786e+07
1.07824e+07
1.07788e+07
1.07751e+07
1.07714e+07
1.07678e+07
1.07642e+07
1.07606e+07
1.0757e+07
1.07535e+07
1.07501e+07
1.07467e+07
1.07433e+07
1.074e+07
1.07367e+07
1.07336e+07
1.07304e+07
1.07273e+07
1.07243e+07
1.07213e+07
1.07183e+07
1.07154e+07
1.07125e+07
1.07097e+07
1.07069e+07
1.07041e+07
1.07014e+07
1.06986e+07
1.06959e+07
1.06933e+07
1.06906e+07
1.0688e+07
1.06853e+07
1.06827e+07
1.06801e+07
1.06776e+07
1.0675e+07
1.06724e+07
1.06699e+07
1.06673e+07
1.06648e+07
1.06623e+07
1.06598e+07
1.06572e+07
1.06547e+07
1.06522e+07
1.06497e+07
1.06471e+07
1.06446e+07
1.06421e+07
1.06396e+07
1.0637e+07
1.06345e+07
1.0632e+07
1.06294e+07
1.06269e+07
1.06243e+07
1.06217e+07
1.06191e+07
1.06166e+07
1.0614e+07
1.06114e+07
1.06087e+07
1.06061e+07
1.06035e+07
1.06008e+07
1.05981e+07
1.05954e+07
1.05927e+07
1.059e+07
1.05873e+07
1.05846e+07
1.05818e+07
1.0579e+07
1.05762e+07
1.05734e+07
1.05706e+07
1.05678e+07
1.05649e+07
1.0562e+07
1.05591e+07
1.05562e+07
1.05533e+07
1.05503e+07
1.05473e+07
1.05443e+07
1.05413e+07
1.05383e+07
1.05352e+07
1.05321e+07
1.0529e+07
1.05259e+07
1.05227e+07
1.05196e+07
1.05164e+07
1.05132e+07
1.05099e+07
1.05066e+07
1.05034e+07
1.05e+07
1.04967e+07
1.04933e+07
1.04899e+07
1.04865e+07
1.04831e+07
1.04796e+07
1.04761e+07
1.04726e+07
1.0469e+07
1.04655e+07
1.04619e+07
1.04582e+07
1.04546e+07
1.04509e+07
1.04472e+07
1.04434e+07
1.04397e+07
1.04359e+07
1.0432e+07
1.04282e+07
1.04243e+07
1.04204e+07
1.04164e+07
1.04124e+07
1.04084e+07
1.04044e+07
1.04003e+07
1.03962e+07
1.03921e+07
1.03879e+07
1.03837e+07
1.03795e+07
1.03752e+07
1.03709e+07
1.03666e+07
1.03622e+07
1.03578e+07
1.03534e+07
1.03489e+07
1.03444e+07
1.03399e+07
1.03353e+07
1.03307e+07
1.0326e+07
1.03214e+07
1.03167e+07
1.03119e+07
1.03071e+07
1.03023e+07
1.02975e+07
1.02926e+07
1.02877e+07
1.02827e+07
1.02778e+07
1.02728e+07
1.02678e+07
1.02628e+07
1.02578e+07
1.1005e+07
1.10038e+07
1.10016e+07
1.09982e+07
1.09936e+07
1.09878e+07
1.09809e+07
1.09727e+07
1.09634e+07
1.09538e+07
1.09466e+07
1.09479e+07
1.09631e+07
1.0966e+07
1.09585e+07
1.09409e+07
1.09115e+07
1.08656e+07
1.08054e+07
1.07964e+07
1.07927e+07
1.07894e+07
1.0786e+07
1.07825e+07
1.07788e+07
1.07749e+07
1.07712e+07
1.07675e+07
1.07639e+07
1.07603e+07
1.07567e+07
1.07531e+07
1.07496e+07
1.07462e+07
1.07429e+07
1.07396e+07
1.07363e+07
1.07332e+07
1.073e+07
1.0727e+07
1.0724e+07
1.0721e+07
1.0718e+07
1.07151e+07
1.07123e+07
1.07095e+07
1.07067e+07
1.07039e+07
1.07012e+07
1.06984e+07
1.06958e+07
1.06931e+07
1.06904e+07
1.06878e+07
1.06852e+07
1.06826e+07
1.068e+07
1.06774e+07
1.06749e+07
1.06723e+07
1.06698e+07
1.06673e+07
1.06647e+07
1.06622e+07
1.06597e+07
1.06572e+07
1.06546e+07
1.06521e+07
1.06496e+07
1.06471e+07
1.06446e+07
1.06421e+07
1.06395e+07
1.0637e+07
1.06345e+07
1.06319e+07
1.06294e+07
1.06268e+07
1.06243e+07
1.06217e+07
1.06191e+07
1.06165e+07
1.06139e+07
1.06113e+07
1.06087e+07
1.06061e+07
1.06034e+07
1.06008e+07
1.05981e+07
1.05954e+07
1.05927e+07
1.059e+07
1.05873e+07
1.05846e+07
1.05818e+07
1.0579e+07
1.05762e+07
1.05734e+07
1.05706e+07
1.05678e+07
1.05649e+07
1.0562e+07
1.05591e+07
1.05562e+07
1.05533e+07
1.05503e+07
1.05473e+07
1.05443e+07
1.05413e+07
1.05383e+07
1.05352e+07
1.05321e+07
1.0529e+07
1.05259e+07
1.05227e+07
1.05196e+07
1.05164e+07
1.05132e+07
1.05099e+07
1.05066e+07
1.05034e+07
1.05e+07
1.04967e+07
1.04933e+07
1.04899e+07
1.04865e+07
1.04831e+07
1.04796e+07
1.04761e+07
1.04726e+07
1.0469e+07
1.04655e+07
1.04619e+07
1.04582e+07
1.04546e+07
1.04509e+07
1.04472e+07
1.04434e+07
1.04397e+07
1.04359e+07
1.0432e+07
1.04282e+07
1.04243e+07
1.04204e+07
1.04164e+07
1.04124e+07
1.04084e+07
1.04044e+07
1.04003e+07
1.03962e+07
1.03921e+07
1.03879e+07
1.03837e+07
1.03795e+07
1.03752e+07
1.03709e+07
1.03666e+07
1.03622e+07
1.03578e+07
1.03534e+07
1.03489e+07
1.03444e+07
1.03399e+07
1.03353e+07
1.03307e+07
1.0326e+07
1.03214e+07
1.03167e+07
1.03119e+07
1.03071e+07
1.03023e+07
1.02975e+07
1.02926e+07
1.02877e+07
1.02827e+07
1.02778e+07
1.02728e+07
1.02678e+07
1.02628e+07
1.02578e+07
1.10725e+07
1.10714e+07
1.10693e+07
1.10662e+07
1.10622e+07
1.10571e+07
1.10512e+07
1.10445e+07
1.10373e+07
1.10303e+07
1.10241e+07
1.10195e+07
1.10159e+07
1.10096e+07
1.09991e+07
1.09839e+07
1.09641e+07
1.09412e+07
1.092e+07
1.09108e+07
1.09153e+07
1.09053e+07
1.08817e+07
1.08418e+07
1.07825e+07
1.07739e+07
1.07705e+07
1.07672e+07
1.07637e+07
1.07597e+07
1.0756e+07
1.07525e+07
1.0749e+07
1.07456e+07
1.07422e+07
1.07389e+07
1.07357e+07
1.07326e+07
1.07295e+07
1.07265e+07
1.07235e+07
1.07205e+07
1.07176e+07
1.07147e+07
1.07119e+07
1.07091e+07
1.07063e+07
1.07036e+07
1.07009e+07
1.06982e+07
1.06955e+07
1.06928e+07
1.06902e+07
1.06876e+07
1.0685e+07
1.06824e+07
1.06798e+07
1.06773e+07
1.06747e+07
1.06722e+07
1.06697e+07
1.06671e+07
1.06646e+07
1.06621e+07
1.06596e+07
1.06571e+07
1.06545e+07
1.0652e+07
1.06495e+07
1.0647e+07
1.06445e+07
1.0642e+07
1.06395e+07
1.06369e+07
1.06344e+07
1.06319e+07
1.06293e+07
1.06268e+07
1.06242e+07
1.06217e+07
1.06191e+07
1.06165e+07
1.06139e+07
1.06113e+07
1.06087e+07
1.0606e+07
1.06034e+07
1.06008e+07
1.05981e+07
1.05954e+07
1.05927e+07
1.059e+07
1.05873e+07
1.05845e+07
1.05818e+07
1.0579e+07
1.05762e+07
1.05734e+07
1.05706e+07
1.05677e+07
1.05649e+07
1.0562e+07
1.05591e+07
1.05562e+07
1.05533e+07
1.05503e+07
1.05473e+07
1.05443e+07
1.05413e+07
1.05383e+07
1.05352e+07
1.05321e+07
1.0529e+07
1.05259e+07
1.05227e+07
1.05196e+07
1.05164e+07
1.05131e+07
1.05099e+07
1.05066e+07
1.05033e+07
1.05e+07
1.04967e+07
1.04933e+07
1.04899e+07
1.04865e+07
1.04831e+07
1.04796e+07
1.04761e+07
1.04726e+07
1.0469e+07
1.04655e+07
1.04619e+07
1.04582e+07
1.04546e+07
1.04509e+07
1.04472e+07
1.04434e+07
1.04397e+07
1.04359e+07
1.0432e+07
1.04282e+07
1.04243e+07
1.04204e+07
1.04164e+07
1.04124e+07
1.04084e+07
1.04044e+07
1.04003e+07
1.03962e+07
1.03921e+07
1.03879e+07
1.03837e+07
1.03795e+07
1.03752e+07
1.03709e+07
1.03666e+07
1.03622e+07
1.03578e+07
1.03534e+07
1.03489e+07
1.03444e+07
1.03399e+07
1.03353e+07
1.03307e+07
1.0326e+07
1.03214e+07
1.03167e+07
1.03119e+07
1.03071e+07
1.03023e+07
1.02975e+07
1.02926e+07
1.02877e+07
1.02827e+07
1.02777e+07
1.02728e+07
1.02677e+07
1.02627e+07
1.02577e+07
1.11423e+07
1.11413e+07
1.11394e+07
1.11365e+07
1.11327e+07
1.11281e+07
1.11226e+07
1.11164e+07
1.11096e+07
1.11024e+07
1.1095e+07
1.10872e+07
1.10789e+07
1.10691e+07
1.10573e+07
1.10434e+07
1.10277e+07
1.10109e+07
1.09947e+07
1.09804e+07
1.09672e+07
1.0951e+07
1.09302e+07
1.09052e+07
1.08793e+07
1.08621e+07
1.0852e+07
1.08246e+07
1.07759e+07
1.07584e+07
1.07548e+07
1.07517e+07
1.07481e+07
1.07446e+07
1.07413e+07
1.07381e+07
1.07349e+07
1.07318e+07
1.07288e+07
1.07258e+07
1.07228e+07
1.07199e+07
1.0717e+07
1.07142e+07
1.07114e+07
1.07086e+07
1.07059e+07
1.07032e+07
1.07005e+07
1.06978e+07
1.06952e+07
1.06925e+07
1.06899e+07
1.06873e+07
1.06847e+07
1.06822e+07
1.06796e+07
1.06771e+07
1.06745e+07
1.0672e+07
1.06695e+07
1.06669e+07
1.06644e+07
1.06619e+07
1.06594e+07
1.06569e+07
1.06544e+07
1.06519e+07
1.06494e+07
1.06469e+07
1.06444e+07
1.06419e+07
1.06394e+07
1.06369e+07
1.06343e+07
1.06318e+07
1.06293e+07
1.06267e+07
1.06242e+07
1.06216e+07
1.0619e+07
1.06164e+07
1.06139e+07
1.06112e+07
1.06086e+07
1.0606e+07
1.06034e+07
1.06007e+07
1.05981e+07
1.05954e+07
1.05927e+07
1.059e+07
1.05873e+07
1.05845e+07
1.05818e+07
1.0579e+07
1.05762e+07
1.05734e+07
1.05706e+07
1.05677e+07
1.05649e+07
1.0562e+07
1.05591e+07
1.05562e+07
1.05532e+07
1.05503e+07
1.05473e+07
1.05443e+07
1.05413e+07
1.05383e+07
1.05352e+07
1.05321e+07
1.0529e+07
1.05259e+07
1.05227e+07
1.05196e+07
1.05164e+07
1.05131e+07
1.05099e+07
1.05066e+07
1.05033e+07
1.05e+07
1.04967e+07
1.04933e+07
1.04899e+07
1.04865e+07
1.04831e+07
1.04796e+07
1.04761e+07
1.04726e+07
1.0469e+07
1.04655e+07
1.04619e+07
1.04582e+07
1.04546e+07
1.04509e+07
1.04472e+07
1.04434e+07
1.04397e+07
1.04359e+07
1.0432e+07
1.04282e+07
1.04243e+07
1.04204e+07
1.04164e+07
1.04124e+07
1.04084e+07
1.04044e+07
1.04003e+07
1.03962e+07
1.03921e+07
1.03879e+07
1.03837e+07
1.03795e+07
1.03752e+07
1.03709e+07
1.03666e+07
1.03622e+07
1.03578e+07
1.03534e+07
1.03489e+07
1.03444e+07
1.03399e+07
1.03353e+07
1.03307e+07
1.0326e+07
1.03214e+07
1.03166e+07
1.03119e+07
1.03071e+07
1.03023e+07
1.02975e+07
1.02926e+07
1.02877e+07
1.02827e+07
1.02777e+07
1.02727e+07
1.02677e+07
1.02627e+07
1.02576e+07
1.12148e+07
1.12137e+07
1.12118e+07
1.1209e+07
1.12053e+07
1.12007e+07
1.11953e+07
1.1189e+07
1.1182e+07
1.11743e+07
1.11659e+07
1.11567e+07
1.11466e+07
1.11354e+07
1.11229e+07
1.11092e+07
1.10943e+07
1.10786e+07
1.10625e+07
1.10461e+07
1.10292e+07
1.10109e+07
1.09909e+07
1.09695e+07
1.09476e+07
1.09265e+07
1.09053e+07
1.08807e+07
1.08533e+07
1.08292e+07
1.08064e+07
1.07622e+07
1.07465e+07
1.07433e+07
1.07401e+07
1.0737e+07
1.07339e+07
1.07309e+07
1.07279e+07
1.07249e+07
1.0722e+07
1.07192e+07
1.07163e+07
1.07135e+07
1.07108e+07
1.0708e+07
1.07053e+07
1.07027e+07
1.07e+07
1.06974e+07
1.06947e+07
1.06921e+07
1.06895e+07
1.0687e+07
1.06844e+07
1.06819e+07
1.06793e+07
1.06768e+07
1.06743e+07
1.06717e+07
1.06692e+07
1.06667e+07
1.06642e+07
1.06617e+07
1.06592e+07
1.06568e+07
1.06543e+07
1.06518e+07
1.06493e+07
1.06468e+07
1.06443e+07
1.06418e+07
1.06393e+07
1.06368e+07
1.06342e+07
1.06317e+07
1.06292e+07
1.06266e+07
1.06241e+07
1.06215e+07
1.0619e+07
1.06164e+07
1.06138e+07
1.06112e+07
1.06086e+07
1.0606e+07
1.06033e+07
1.06007e+07
1.0598e+07
1.05953e+07
1.05926e+07
1.05899e+07
1.05872e+07
1.05845e+07
1.05817e+07
1.0579e+07
1.05762e+07
1.05734e+07
1.05705e+07
1.05677e+07
1.05648e+07
1.0562e+07
1.05591e+07
1.05562e+07
1.05532e+07
1.05503e+07
1.05473e+07
1.05443e+07
1.05413e+07
1.05382e+07
1.05352e+07
1.05321e+07
1.0529e+07
1.05259e+07
1.05227e+07
1.05196e+07
1.05164e+07
1.05131e+07
1.05099e+07
1.05066e+07
1.05033e+07
1.05e+07
1.04967e+07
1.04933e+07
1.04899e+07
1.04865e+07
1.04831e+07
1.04796e+07
1.04761e+07
1.04726e+07
1.0469e+07
1.04655e+07
1.04619e+07
1.04582e+07
1.04546e+07
1.04509e+07
1.04472e+07
1.04434e+07
1.04397e+07
1.04359e+07
1.0432e+07
1.04282e+07
1.04243e+07
1.04204e+07
1.04164e+07
1.04124e+07
1.04084e+07
1.04044e+07
1.04003e+07
1.03962e+07
1.03921e+07
1.03879e+07
1.03837e+07
1.03795e+07
1.03752e+07
1.03709e+07
1.03666e+07
1.03622e+07
1.03578e+07
1.03534e+07
1.03489e+07
1.03444e+07
1.03399e+07
1.03353e+07
1.03307e+07
1.0326e+07
1.03214e+07
1.03166e+07
1.03119e+07
1.03071e+07
1.03023e+07
1.02974e+07
1.02926e+07
1.02876e+07
1.02827e+07
1.02777e+07
1.02727e+07
1.02677e+07
1.02626e+07
1.02575e+07
1.12899e+07
1.12888e+07
1.12868e+07
1.12839e+07
1.12801e+07
1.12754e+07
1.12698e+07
1.12633e+07
1.1256e+07
1.12477e+07
1.12385e+07
1.12285e+07
1.12175e+07
1.12054e+07
1.11923e+07
1.11782e+07
1.11631e+07
1.11471e+07
1.11304e+07
1.11129e+07
1.10946e+07
1.10753e+07
1.1055e+07
1.10338e+07
1.10118e+07
1.09893e+07
1.0966e+07
1.09415e+07
1.0916e+07
1.08901e+07
1.08632e+07
1.08338e+07
1.0806e+07
1.07747e+07
1.07391e+07
1.07355e+07
1.07326e+07
1.07297e+07
1.07268e+07
1.07239e+07
1.07211e+07
1.07183e+07
1.07155e+07
1.07128e+07
1.07101e+07
1.07074e+07
1.07047e+07
1.07021e+07
1.06994e+07
1.06968e+07
1.06942e+07
1.06917e+07
1.06891e+07
1.06865e+07
1.0684e+07
1.06815e+07
1.0679e+07
1.06765e+07
1.0674e+07
1.06715e+07
1.0669e+07
1.06665e+07
1.0664e+07
1.06615e+07
1.0659e+07
1.06566e+07
1.06541e+07
1.06516e+07
1.06491e+07
1.06466e+07
1.06441e+07
1.06416e+07
1.06391e+07
1.06366e+07
1.06341e+07
1.06316e+07
1.06291e+07
1.06265e+07
1.0624e+07
1.06214e+07
1.06189e+07
1.06163e+07
1.06137e+07
1.06111e+07
1.06085e+07
1.06059e+07
1.06033e+07
1.06006e+07
1.0598e+07
1.05953e+07
1.05926e+07
1.05899e+07
1.05872e+07
1.05844e+07
1.05817e+07
1.05789e+07
1.05761e+07
1.05733e+07
1.05705e+07
1.05677e+07
1.05648e+07
1.0562e+07
1.05591e+07
1.05561e+07
1.05532e+07
1.05503e+07
1.05473e+07
1.05443e+07
1.05413e+07
1.05382e+07
1.05352e+07
1.05321e+07
1.0529e+07
1.05259e+07
1.05227e+07
1.05195e+07
1.05163e+07
1.05131e+07
1.05099e+07
1.05066e+07
1.05033e+07
1.05e+07
1.04967e+07
1.04933e+07
1.04899e+07
1.04865e+07
1.04831e+07
1.04796e+07
1.04761e+07
1.04726e+07
1.0469e+07
1.04655e+07
1.04619e+07
1.04582e+07
1.04546e+07
1.04509e+07
1.04472e+07
1.04434e+07
1.04397e+07
1.04359e+07
1.0432e+07
1.04282e+07
1.04243e+07
1.04204e+07
1.04164e+07
1.04124e+07
1.04084e+07
1.04044e+07
1.04003e+07
1.03962e+07
1.03921e+07
1.03879e+07
1.03837e+07
1.03795e+07
1.03752e+07
1.03709e+07
1.03666e+07
1.03622e+07
1.03578e+07
1.03534e+07
1.03489e+07
1.03444e+07
1.03399e+07
1.03353e+07
1.03307e+07
1.0326e+07
1.03214e+07
1.03166e+07
1.03119e+07
1.03071e+07
1.03023e+07
1.02974e+07
1.02925e+07
1.02876e+07
1.02827e+07
1.02777e+07
1.02727e+07
1.02676e+07
1.02626e+07
1.02575e+07
1.13678e+07
1.13666e+07
1.13646e+07
1.13615e+07
1.13576e+07
1.13526e+07
1.13467e+07
1.13398e+07
1.1332e+07
1.13232e+07
1.13134e+07
1.13027e+07
1.12909e+07
1.12781e+07
1.12644e+07
1.12496e+07
1.12339e+07
1.12172e+07
1.11997e+07
1.11812e+07
1.1162e+07
1.11418e+07
1.11207e+07
1.10988e+07
1.10761e+07
1.10526e+07
1.10283e+07
1.10031e+07
1.0977e+07
1.09502e+07
1.09225e+07
1.08939e+07
1.08646e+07
1.08341e+07
1.08022e+07
1.07689e+07
1.07317e+07
1.07285e+07
1.07256e+07
1.07228e+07
1.072e+07
1.07173e+07
1.07146e+07
1.07119e+07
1.07092e+07
1.07066e+07
1.0704e+07
1.07014e+07
1.06988e+07
1.06962e+07
1.06937e+07
1.06911e+07
1.06886e+07
1.06861e+07
1.06836e+07
1.06811e+07
1.06786e+07
1.06761e+07
1.06736e+07
1.06711e+07
1.06687e+07
1.06662e+07
1.06637e+07
1.06613e+07
1.06588e+07
1.06563e+07
1.06539e+07
1.06514e+07
1.06489e+07
1.06464e+07
1.0644e+07
1.06415e+07
1.0639e+07
1.06365e+07
1.0634e+07
1.06315e+07
1.0629e+07
1.06264e+07
1.06239e+07
1.06214e+07
1.06188e+07
1.06162e+07
1.06136e+07
1.06111e+07
1.06085e+07
1.06058e+07
1.06032e+07
1.06006e+07
1.05979e+07
1.05952e+07
1.05926e+07
1.05899e+07
1.05871e+07
1.05844e+07
1.05817e+07
1.05789e+07
1.05761e+07
1.05733e+07
1.05705e+07
1.05677e+07
1.05648e+07
1.05619e+07
1.0559e+07
1.05561e+07
1.05532e+07
1.05502e+07
1.05473e+07
1.05443e+07
1.05413e+07
1.05382e+07
1.05352e+07
1.05321e+07
1.0529e+07
1.05259e+07
1.05227e+07
1.05195e+07
1.05163e+07
1.05131e+07
1.05099e+07
1.05066e+07
1.05033e+07
1.05e+07
1.04967e+07
1.04933e+07
1.04899e+07
1.04865e+07
1.04831e+07
1.04796e+07
1.04761e+07
1.04726e+07
1.0469e+07
1.04655e+07
1.04618e+07
1.04582e+07
1.04546e+07
1.04509e+07
1.04472e+07
1.04434e+07
1.04396e+07
1.04358e+07
1.0432e+07
1.04282e+07
1.04243e+07
1.04204e+07
1.04164e+07
1.04124e+07
1.04084e+07
1.04044e+07
1.04003e+07
1.03962e+07
1.03921e+07
1.03879e+07
1.03837e+07
1.03795e+07
1.03752e+07
1.03709e+07
1.03666e+07
1.03622e+07
1.03578e+07
1.03534e+07
1.03489e+07
1.03444e+07
1.03398e+07
1.03353e+07
1.03307e+07
1.0326e+07
1.03213e+07
1.03166e+07
1.03119e+07
1.03071e+07
1.03023e+07
1.02974e+07
1.02925e+07
1.02876e+07
1.02827e+07
1.02777e+07
1.02726e+07
1.02676e+07
1.02625e+07
1.02574e+07
1.14488e+07
1.14475e+07
1.14453e+07
1.14421e+07
1.14378e+07
1.14326e+07
1.14263e+07
1.1419e+07
1.14106e+07
1.14012e+07
1.13908e+07
1.13793e+07
1.13668e+07
1.13532e+07
1.13387e+07
1.13231e+07
1.13065e+07
1.1289e+07
1.12706e+07
1.12512e+07
1.12309e+07
1.12098e+07
1.11878e+07
1.11649e+07
1.11412e+07
1.11166e+07
1.10913e+07
1.10651e+07
1.10381e+07
1.10103e+07
1.09817e+07
1.09523e+07
1.0922e+07
1.08908e+07
1.08583e+07
1.08244e+07
1.07879e+07
1.07461e+07
1.07243e+07
1.07216e+07
1.07188e+07
1.07161e+07
1.07135e+07
1.07109e+07
1.07083e+07
1.07057e+07
1.07032e+07
1.07006e+07
1.06981e+07
1.06955e+07
1.0693e+07
1.06905e+07
1.0688e+07
1.06855e+07
1.06831e+07
1.06806e+07
1.06781e+07
1.06757e+07
1.06732e+07
1.06708e+07
1.06683e+07
1.06659e+07
1.06634e+07
1.0661e+07
1.06585e+07
1.06561e+07
1.06536e+07
1.06512e+07
1.06487e+07
1.06462e+07
1.06438e+07
1.06413e+07
1.06388e+07
1.06363e+07
1.06338e+07
1.06313e+07
1.06288e+07
1.06263e+07
1.06238e+07
1.06212e+07
1.06187e+07
1.06161e+07
1.06136e+07
1.0611e+07
1.06084e+07
1.06058e+07
1.06031e+07
1.06005e+07
1.05979e+07
1.05952e+07
1.05925e+07
1.05898e+07
1.05871e+07
1.05844e+07
1.05816e+07
1.05789e+07
1.05761e+07
1.05733e+07
1.05705e+07
1.05676e+07
1.05648e+07
1.05619e+07
1.0559e+07
1.05561e+07
1.05532e+07
1.05502e+07
1.05472e+07
1.05443e+07
1.05412e+07
1.05382e+07
1.05351e+07
1.05321e+07
1.0529e+07
1.05258e+07
1.05227e+07
1.05195e+07
1.05163e+07
1.05131e+07
1.05099e+07
1.05066e+07
1.05033e+07
1.05e+07
1.04967e+07
1.04933e+07
1.04899e+07
1.04865e+07
1.04831e+07
1.04796e+07
1.04761e+07
1.04726e+07
1.0469e+07
1.04654e+07
1.04618e+07
1.04582e+07
1.04546e+07
1.04509e+07
1.04472e+07
1.04434e+07
1.04396e+07
1.04358e+07
1.0432e+07
1.04282e+07
1.04243e+07
1.04203e+07
1.04164e+07
1.04124e+07
1.04084e+07
1.04044e+07
1.04003e+07
1.03962e+07
1.03921e+07
1.03879e+07
1.03837e+07
1.03794e+07
1.03752e+07
1.03709e+07
1.03666e+07
1.03622e+07
1.03578e+07
1.03534e+07
1.03489e+07
1.03444e+07
1.03398e+07
1.03353e+07
1.03307e+07
1.0326e+07
1.03213e+07
1.03166e+07
1.03119e+07
1.03071e+07
1.03023e+07
1.02974e+07
1.02925e+07
1.02876e+07
1.02826e+07
1.02776e+07
1.02726e+07
1.02675e+07
1.02624e+07
1.02573e+07
1.15331e+07
1.15318e+07
1.15293e+07
1.15259e+07
1.15213e+07
1.15156e+07
1.15089e+07
1.1501e+07
1.1492e+07
1.14819e+07
1.14708e+07
1.14585e+07
1.14451e+07
1.14307e+07
1.14152e+07
1.13987e+07
1.13812e+07
1.13627e+07
1.13432e+07
1.13227e+07
1.13014e+07
1.12791e+07
1.1256e+07
1.1232e+07
1.12071e+07
1.11815e+07
1.1155e+07
1.11277e+07
1.10996e+07
1.10707e+07
1.1041e+07
1.10105e+07
1.09792e+07
1.09471e+07
1.09139e+07
1.08797e+07
1.08442e+07
1.08074e+07
1.07701e+07
1.07231e+07
1.07174e+07
1.07149e+07
1.07123e+07
1.07098e+07
1.07073e+07
1.07048e+07
1.07023e+07
1.06998e+07
1.06973e+07
1.06948e+07
1.06923e+07
1.06899e+07
1.06874e+07
1.0685e+07
1.06825e+07
1.06801e+07
1.06777e+07
1.06752e+07
1.06728e+07
1.06704e+07
1.06679e+07
1.06655e+07
1.06631e+07
1.06607e+07
1.06582e+07
1.06558e+07
1.06534e+07
1.06509e+07
1.06485e+07
1.0646e+07
1.06436e+07
1.06411e+07
1.06386e+07
1.06362e+07
1.06337e+07
1.06312e+07
1.06287e+07
1.06262e+07
1.06237e+07
1.06211e+07
1.06186e+07
1.0616e+07
1.06135e+07
1.06109e+07
1.06083e+07
1.06057e+07
1.06031e+07
1.06004e+07
1.05978e+07
1.05951e+07
1.05924e+07
1.05898e+07
1.0587e+07
1.05843e+07
1.05816e+07
1.05788e+07
1.0576e+07
1.05732e+07
1.05704e+07
1.05676e+07
1.05647e+07
1.05619e+07
1.0559e+07
1.05561e+07
1.05531e+07
1.05502e+07
1.05472e+07
1.05442e+07
1.05412e+07
1.05382e+07
1.05351e+07
1.05321e+07
1.0529e+07
1.05258e+07
1.05227e+07
1.05195e+07
1.05163e+07
1.05131e+07
1.05099e+07
1.05066e+07
1.05033e+07
1.05e+07
1.04967e+07
1.04933e+07
1.04899e+07
1.04865e+07
1.0483e+07
1.04796e+07
1.04761e+07
1.04726e+07
1.0469e+07
1.04654e+07
1.04618e+07
1.04582e+07
1.04546e+07
1.04509e+07
1.04472e+07
1.04434e+07
1.04396e+07
1.04358e+07
1.0432e+07
1.04282e+07
1.04243e+07
1.04203e+07
1.04164e+07
1.04124e+07
1.04084e+07
1.04044e+07
1.04003e+07
1.03962e+07
1.0392e+07
1.03879e+07
1.03837e+07
1.03794e+07
1.03752e+07
1.03709e+07
1.03665e+07
1.03622e+07
1.03578e+07
1.03533e+07
1.03489e+07
1.03444e+07
1.03398e+07
1.03353e+07
1.03307e+07
1.0326e+07
1.03213e+07
1.03166e+07
1.03119e+07
1.03071e+07
1.03023e+07
1.02974e+07
1.02925e+07
1.02876e+07
1.02826e+07
1.02776e+07
1.02726e+07
1.02675e+07
1.02624e+07
1.02572e+07
1.16212e+07
1.16197e+07
1.1617e+07
1.16132e+07
1.16082e+07
1.16021e+07
1.15948e+07
1.15862e+07
1.15765e+07
1.15657e+07
1.15536e+07
1.15404e+07
1.15261e+07
1.15107e+07
1.14941e+07
1.14765e+07
1.14579e+07
1.14382e+07
1.14175e+07
1.13959e+07
1.13733e+07
1.13498e+07
1.13254e+07
1.13001e+07
1.1274e+07
1.12471e+07
1.12194e+07
1.11909e+07
1.11616e+07
1.11315e+07
1.11006e+07
1.1069e+07
1.10366e+07
1.10034e+07
1.09694e+07
1.09345e+07
1.08987e+07
1.08621e+07
1.08244e+07
1.07848e+07
1.07438e+07
1.07137e+07
1.07112e+07
1.07087e+07
1.07062e+07
1.07038e+07
1.07013e+07
1.06989e+07
1.06964e+07
1.0694e+07
1.06916e+07
1.06892e+07
1.06867e+07
1.06843e+07
1.06819e+07
1.06795e+07
1.06771e+07
1.06747e+07
1.06723e+07
1.06699e+07
1.06675e+07
1.06651e+07
1.06627e+07
1.06603e+07
1.06579e+07
1.06555e+07
1.06531e+07
1.06506e+07
1.06482e+07
1.06458e+07
1.06433e+07
1.06409e+07
1.06384e+07
1.0636e+07
1.06335e+07
1.0631e+07
1.06285e+07
1.0626e+07
1.06235e+07
1.0621e+07
1.06185e+07
1.06159e+07
1.06134e+07
1.06108e+07
1.06082e+07
1.06056e+07
1.0603e+07
1.06004e+07
1.05977e+07
1.05951e+07
1.05924e+07
1.05897e+07
1.0587e+07
1.05843e+07
1.05815e+07
1.05788e+07
1.0576e+07
1.05732e+07
1.05704e+07
1.05676e+07
1.05647e+07
1.05618e+07
1.0559e+07
1.05561e+07
1.05531e+07
1.05502e+07
1.05472e+07
1.05442e+07
1.05412e+07
1.05382e+07
1.05351e+07
1.0532e+07
1.05289e+07
1.05258e+07
1.05227e+07
1.05195e+07
1.05163e+07
1.05131e+07
1.05099e+07
1.05066e+07
1.05033e+07
1.05e+07
1.04966e+07
1.04933e+07
1.04899e+07
1.04865e+07
1.0483e+07