/*--------------------------------*- C++ -*----------------------------------*\
  =========                 |
  \\      /  F ield         | OpenFOAM: The Open Source CFD Toolbox
   \\    /   O peration     | Website:  https://openfoam.org
    \\  /    A nd           | Version:  11
     \\/     M anipulation  |
\*---------------------------------------------------------------------------*/
FoamFile
{
    format      ascii;
    class       volScalarField;
    location    "56";
    object      p;
}
// * * * * * * * * * * * * * * * * * * * * * * * * * * * * * * * * * * * * * //

dimensions      [0 2 -2 0 0 0 0];

internalField   nonuniform List<scalar> 
2048
(
0.444509
0.442249
0.437696
0.430646
0.420943
0.408433
0.392927
0.374211
0.35208
0.326378
0.297044
0.264151
0.227945
0.188875
0.147603
0.104978
0.061979
0.0196272
-0.021125
-0.0594812
-0.094836
-0.126745
-0.154865
-0.178888
-0.198505
-0.213379
-0.223145
-0.227373
-0.225866
-0.218422
-0.205019
-0.185889
-0.161549
-0.13277
-0.100514
-0.0658398
-0.0298027
0.00663539
0.0426754
0.0777111
0.111319
0.143218
0.173199
0.201058
0.226513
0.249159
0.268414
0.283509
0.293528
0.297486
0.294499
0.283948
0.265749
0.240463
0.209533
0.175001
0.139656
0.105947
0.0765977
0.0523164
0.0346373
0.020885
0.0121345
0.00229364
0.446838
0.444606
0.440104
0.433123
0.423497
0.411052
0.395578
0.376831
0.354579
0.328637
0.29892
0.265485
0.228578
0.188673
0.146488
0.102951
0.059131
0.0161223
-0.0250916
-0.0637353
-0.0992566
-0.131272
-0.159488
-0.18364
-0.203444
-0.218577
-0.228678
-0.23322
-0.232017
-0.224788
-0.211452
-0.192199
-0.167527
-0.138213
-0.105247
-0.0697309
-0.0327757
0.0046056
0.0415696
0.0774754
0.111873
0.144464
0.175031
0.203362
0.229173
0.25205
0.2714
0.286446
0.296264
0.299858
0.296329
0.285049
0.265933
0.239561
0.207431
0.171678
0.135239
0.10072
0.0710023
0.0468503
0.0297735
0.017087
0.00987085
0.00139052
0.451476
0.449301
0.444908
0.43808
0.428625
0.416333
0.400944
0.382158
0.35968
0.333264
0.302771
0.268227
0.229875
0.188239
0.144147
0.0987016
0.0531755
0.00883111
-0.0332884
-0.0724666
-0.108276
-0.140461
-0.16884
-0.193229
-0.213403
-0.229048
-0.239742
-0.245112
-0.2446
-0.237859
-0.224697
-0.20522
-0.179883
-0.149477
-0.115046
-0.0777928
-0.0389444
0.000372193
0.0392211
0.0768937
0.112893
0.146888
0.17864
0.207922
0.234436
0.257752
0.277265
0.292183
0.301558
0.304368
0.299689
0.286872
0.26583
0.237174
0.202519
0.164195
0.125438
0.0891635
0.058583
0.0346749
0.0190272
0.00872808
0.0048115
-0.000550865
0.458356
0.456277
0.452069
0.445503
0.43635
0.424343
0.409147
0.390368
0.367603
0.340495
0.308812
0.272522
0.231871
0.187467
0.140314
0.0918055
0.0435846
-0.00279263
-0.0462099
-0.0860838
-0.122207
-0.154539
-0.183078
-0.207792
-0.228551
-0.245069
-0.256884
-0.263494
-0.264177
-0.258344
-0.245567
-0.225802
-0.199458
-0.167343
-0.1306
-0.0905941
-0.0487542
-0.00639922
0.0353804
0.0757701
0.114212
0.150336
0.183881
0.214595
0.242148
0.266087
0.285785
0.300426
0.309026
0.310527
0.303967
0.288657
0.264485
0.232098
0.193289
0.15072
0.108144
0.0690002
0.0370283
0.0135675
0.000392912
-0.00579359
-0.00409507
-0.00386433
0.467371
0.465441
0.461522
0.455367
0.446701
0.435179
0.420364
0.40173
0.378712
0.350757
0.317457
0.278656
0.234609
0.186089
0.134395
0.0814104
0.0294031
-0.0196513
-0.0646209
-0.105189
-0.141485
-0.173778
-0.20235
-0.227419
-0.249014
-0.266877
-0.280456
-0.289004
-0.291608
-0.287332
-0.275363
-0.255377
-0.227682
-0.193135
-0.153055
-0.109084
-0.0629596
-0.0162877
0.0296148
0.0737732
0.115541
0.154524
0.190463
0.223085
0.25199
0.2767
0.296563
0.310736
0.31823
0.317971
0.308946
0.290357
0.261976
0.224416
0.179651
0.130807
0.0823667
0.0386242
0.00424191
-0.0187812
-0.0285584
-0.0286118
-0.0184104
-0.00900009
0.478357
0.476647
0.473155
0.467618
0.459697
0.448955
0.434817
0.416592
0.393496
0.364683
0.32943
0.287253
0.238338
0.183731
0.125289
0.0659001
0.00890591
-0.0432723
-0.0897473
-0.130708
-0.166745
-0.198538
-0.226797
-0.252131
-0.274806
-0.294615
-0.310909
-0.322573
-0.328235
-0.326448
-0.315947
-0.296016
-0.266704
-0.228881
-0.184165
-0.134678
-0.0826678
-0.0301676
0.0212058
0.0702949
0.116349
0.158929
0.197809
0.23279
0.263331
0.288916
0.308864
0.322398
0.32865
0.326583
0.315069
0.2931
0.260244
0.216994
0.165382
0.108904
0.0527696
0.00229547
-0.0365846
-0.0608857
-0.0675713
-0.0604319
-0.0392964
-0.0164034
0.491075
0.489678
0.486791
0.482147
0.475328
0.465793
0.452774
0.435377
0.412523
0.383017
0.345709
0.299412
0.243954
0.180417
0.111686
0.0429848
-0.0204132
-0.075868
-0.123341
-0.163911
-0.198782
-0.229184
-0.2565
-0.281898
-0.305915
-0.328353
-0.348526
-0.365156
-0.376075
-0.378372
-0.370272
-0.350791
-0.319619
-0.277525
-0.226526
-0.169493
-0.109487
-0.0492153
0.00924618
0.0645165
0.115812
0.1627
0.204967
0.242497
0.274674
0.301063
0.32081
0.333196
0.337665
0.333217
0.318675
0.293165
0.256358
0.208536
0.151384
0.0882618
0.024776
-0.0328571
-0.0774984
-0.104971
-0.110606
-0.0972912
-0.0649705
-0.0257421
0.505188
0.504216
0.502152
0.498751
0.493506
0.485802
0.474572
0.458697
0.436533
0.406553
0.367071
0.316051
0.252745
0.176712
0.0924863
0.010351
-0.0611972
-0.119885
-0.167356
-0.206032
-0.23799
-0.265398
-0.290717
-0.315818
-0.341506
-0.367569
-0.393056
-0.41661
-0.43624
-0.445943
-0.442437
-0.424286
-0.390897
-0.3431
-0.283607
-0.216426
-0.145795
-0.0753642
-0.00782583
0.0551407
0.112673
0.164426
0.21031
0.25019
0.283461
0.309116
0.327221
0.336277
0.336116
0.326521
0.30781
0.279659
0.241097
0.191401
0.131465
0.064275
-0.00425461
-0.0671508
-0.116356
-0.146401
-0.151725
-0.133638
-0.0914737
-0.0357755
0.520253
0.519829
0.518822
0.517071
0.513971
0.50896
0.500539
0.487488
0.466882
0.436868
0.394136
0.336626
0.263622
0.169945
0.0634302
-0.0364565
-0.117468
-0.17878
-0.224252
-0.257982
-0.283401
-0.304651
-0.325924
-0.349609
-0.376674
-0.407303
-0.440473
-0.474822
-0.505193
-0.526997
-0.533226
-0.519997
-0.485563
-0.430891
-0.360042
-0.279055
-0.1942
-0.110652
-0.0318645
0.0403015
0.104983
0.161978
0.211289
0.252341
0.284778
0.307243
0.318514
0.318018
0.310283
0.296522
0.276284
0.248142
0.210402
0.161612
0.101862
0.0335678
-0.03728
-0.103035
-0.15464
-0.185501
-0.189182
-0.166802
-0.116002
-0.0454365
0.535711
0.535946
0.536222
0.536523
0.536172
0.534866
0.530633
0.522655
0.505802
0.47819
0.430346
0.361702
0.268733
0.14372
0.00738829
-0.109384
-0.195897
-0.255338
-0.293607
-0.316318
-0.328495
-0.338294
-0.352205
-0.371964
-0.398124
-0.43154
-0.472175
-0.518031
-0.564479
-0.603411
-0.626922
-0.626759
-0.597774
-0.539793
-0.457934
-0.360937
-0.258351
-0.158084
-0.0652839
0.0174354
0.0894162
0.151304
0.203095
0.242666
0.267656
0.278575
0.278783
0.271857
0.261089
0.246771
0.227585
0.20173
0.167261
0.122205
0.0657847
-0.000435099
-0.0707825
-0.137142
-0.189494
-0.220317
-0.22333
-0.195005
-0.136682
-0.0538917
0.550902
0.551873
0.553612
0.556271
0.559198
0.562482
0.563944
0.563769
0.554863
0.536842
0.487892
0.407184
0.263757
0.0757985
-0.0924347
-0.21064
-0.287096
-0.333083
-0.35598
-0.361741
-0.356333
-0.353446
-0.359773
-0.375361
-0.399994
-0.434481
-0.479276
-0.533154
-0.592217
-0.648932
-0.693006
-0.713037
-0.69922
-0.647853
-0.56285
-0.454451
-0.335735
-0.218567
-0.111053
-0.0171219
0.0625415
0.128038
0.177418
0.207816
0.219932
0.219752
0.215431
0.204993
0.195677
0.184544
0.16926
0.147879
0.118567
0.0792324
0.0284772
-0.0330229
-0.100202
-0.164837
-0.216218
-0.245777
-0.246455
-0.214946
-0.151479
-0.0601387
0.565092
0.566818
0.570114
0.575253
0.581796
0.590106
0.598459
0.607869
0.611826
0.612787
0.582015
0.520014
0.308381
0.00742312
-0.188479
-0.289018
-0.342846
-0.371811
-0.383275
-0.379731
-0.36698
-0.362911
-0.367348
-0.379533
-0.400953
-0.433391
-0.477907
-0.534213
-0.599316
-0.666449
-0.725346
-0.763149
-0.767122
-0.729524
-0.651068
-0.541081
-0.414322
-0.285924
-0.167338
-0.0648415
0.0189834
0.0820735
0.121915
0.13909
0.139737
0.132856
0.123972
0.123173
0.121404
0.117343
0.108716
0.0937333
0.0710136
0.0387642
-0.00470501
-0.0594894
-0.121299
-0.182148
-0.231062
-0.258757
-0.257812
-0.224442
-0.158712
-0.0633789
0.577513
0.579957
0.584765
0.592296
0.602435
0.615683
0.631251
0.650287
0.66933
0.691867
0.701876
0.715092
0.580095
0.0820584
-0.174009
-0.293692
-0.348947
-0.373054
-0.383161
-0.384914
-0.374135
-0.371632
-0.375916
-0.386632
-0.405584
-0.434966
-0.476553
-0.53099
-0.596419
-0.667096
-0.73293
-0.781145
-0.79858
-0.775036
-0.70813
-0.60511
-0.480459
-0.350776
-0.229853
-0.126637
-0.0466049
0.0070243
0.0341698
0.0402656
0.0355187
0.0299833
0.0286228
0.0343936
0.0424465
0.0486337
0.0496146
0.0434276
0.0290924
0.00537035
-0.0293618
-0.0757417
-0.130333
-0.185668
-0.230915
-0.256485
-0.254736
-0.221522
-0.157073
-0.0630094
0.587432
0.5905
0.596607
0.606227
0.619483
0.637128
0.658998
0.686679
0.718658
0.758353
0.797207
0.840589
0.793923
0.341131
0.0529599
-0.126178
-0.240074
-0.309731
-0.351627
-0.382911
-0.382518
-0.380445
-0.384221
-0.392988
-0.408633
-0.433577
-0.469818
-0.518634
-0.579233
-0.647213
-0.712973
-0.764637
-0.789906
-0.77807
-0.724832
-0.63541
-0.52285
-0.403202
-0.29099
-0.197094
-0.128707
-0.0887479
-0.0740524
-0.075867
-0.0822039
-0.0829712
-0.0766594
-0.0604048
-0.039399
-0.0195645
-0.00568221
-0.000373046
-0.00440758
-0.0182841
-0.0431487
-0.0798191
-0.125679
-0.174034
-0.214597
-0.237863
-0.236262
-0.205578
-0.146133
-0.0587885
0.594224
0.597755
0.604808
0.615975
0.631508
0.652462
0.678861
0.712984
0.753128
0.804133
0.854859
0.915682
0.889579
0.431118
0.126012
-0.0720327
-0.203693
-0.288091
-0.341913
-0.384427
-0.389078
-0.386442
-0.389652
-0.396257
-0.407912
-0.427404
-0.456095
-0.495508
-0.545659
-0.604845
-0.662799
-0.710789
-0.738216
-0.734245
-0.694793
-0.623214
-0.530036
-0.429511
-0.335735
-0.259979
-0.209683
-0.187243
-0.186188
-0.195895
-0.204053
-0.202417
-0.184737
-0.154959
-0.11843
-0.0825366
-0.0535611
-0.0349537
-0.0274542
-0.0307916
-0.0453172
-0.0716607
-0.107875
-0.148202
-0.183263
-0.20409
-0.203539
-0.177574
-0.126525
-0.0509539
0.59744
0.601208
0.608755
0.62072
0.637461
0.660109
0.688921
0.726161
0.770506
0.826075
0.882613
0.948153
0.931736
0.486984
0.178542
-0.0321246
-0.177772
-0.273943
-0.336614
-0.385573
-0.394419
-0.390949
-0.393496
-0.397519
-0.405121
-0.417772
-0.436901
-0.463818
-0.498956
-0.54084
-0.583971
-0.620662
-0.643081
-0.642142
-0.614279
-0.561144
-0.490695
-0.415262
-0.347704
-0.298346
-0.273299
-0.274283
-0.289112
-0.307524
-0.31704
-0.309917
-0.282492
-0.238633
-0.186009
-0.133877
-0.0898132
-0.0579201
-0.0389648
-0.0320447
-0.0366138
-0.0528629
-0.0793236
-0.11122
-0.140361
-0.158663
-0.159771
-0.140129
-0.100073
-0.0402545
0.596842
0.600599
0.608124
0.620054
0.636745
0.659334
0.688075
0.725239
0.769502
0.824999
0.881455
0.946894
0.930345
0.484763
0.175329
-0.0363065
-0.182802
-0.279532
-0.342368
-0.389268
-0.400111
-0.396141
-0.397551
-0.398933
-0.401627
-0.406428
-0.414283
-0.426137
-0.442533
-0.462902
-0.484505
-0.502534
-0.511611
-0.507465
-0.486488
-0.449888
-0.403825
-0.358178
-0.323665
-0.308803
-0.316122
-0.341214
-0.373212
-0.399482
-0.409237
-0.396324
-0.359044
-0.302038
-0.234821
-0.168374
-0.111293
-0.067984
-0.0390967
-0.0232391
-0.0190683
-0.026233
-0.0436077
-0.0673703
-0.0906923
-0.106598
-0.109694
-0.0971774
-0.0695501
-0.027835
0.592442
0.595941
0.602927
0.61399
0.629381
0.650155
0.676343
0.710233
0.750145
0.800917
0.851464
0.911996
0.88549
0.424961
0.116807
-0.0844312
-0.21882
-0.305061
-0.359734
-0.397599
-0.407446
-0.40437
-0.40415
-0.402468
-0.399544
-0.395526
-0.390926
-0.386463
-0.382761
-0.379992
-0.37739
-0.373162
-0.364692
-0.352435
-0.333905
-0.311118
-0.289304
-0.27594
-0.27812
-0.300716
-0.3393
-0.386934
-0.431925
-0.462937
-0.471557
-0.453181
-0.40727
-0.339496
-0.260778
-0.183475
-0.116901
-0.0654116
-0.0292762
-0.00665476
0.00438255
0.004691
-0.00485372
-0.0213468
-0.039355
-0.0531905
-0.0584736
-0.0531855
-0.0381536
-0.0150083
0.5845
0.587517
0.593517
0.60297
0.615997
0.633353
0.654874
0.682171
0.713742
0.753085
0.791613
0.834854
0.787247
0.330431
0.0373549
-0.146997
-0.265616
-0.338993
-0.383519
-0.410969
-0.418241
-0.416011
-0.414581
-0.40955
-0.400396
-0.386622
-0.36869
-0.347678
-0.324727
-0.300729
-0.27631
-0.251974
-0.228334
-0.207342
-0.189977
-0.179478
-0.180103
-0.196657
-0.232181
-0.284612
-0.347229
-0.409956
-0.461859
-0.494296
-0.500576
-0.477277
-0.424626
-0.349179
-0.263011
-0.179366
-0.107726
-0.0520107
-0.0119193
0.0148234
0.0305118
0.0363348
0.0329566
0.0224078
0.00882839
-0.00332429
-0.0107282
-0.0122214
-0.00890007
-0.00301484
0.573487
0.575863
0.580529
0.587843
0.597675
0.610547
0.62563
0.644165
0.662571
0.684667
0.694137
0.70772
0.57365
0.0700055
-0.195306
-0.32457
-0.3876
-0.41728
-0.431885
-0.440793
-0.436508
-0.430096
-0.428447
-0.419743
-0.403942
-0.379638
-0.347808
-0.310746
-0.270844
-0.230016
-0.189846
-0.152027
-0.118832
-0.0934357
-0.0790729
-0.0799634
-0.0988185
-0.137969
-0.196096
-0.267469
-0.34277
-0.411491
-0.464561
-0.4951
-0.498317
-0.470531
-0.412828
-0.332872
-0.243737
-0.158797
-0.086834
-0.0308885
0.0099338
0.0381978
0.0563537
0.0657184
0.0667315
0.0605893
0.0502989
0.0392748
0.0299504
0.0225778
0.0159422
0.00724814
0.560042
0.561688
0.564816
0.569698
0.575879
0.583738
0.591523
0.600307
0.603537
0.603815
0.572466
0.509837
0.297813
-0.00779126
-0.212638
-0.322713
-0.384605
-0.421455
-0.441952
-0.450424
-0.449194
-0.446414
-0.440724
-0.42762
-0.403996
-0.369226
-0.325058
-0.27473
-0.221824
-0.169477
-0.120263
-0.076598
-0.0412211
-0.017426
-0.00903808
-0.0196093
-0.0512124
-0.103514
-0.172561
-0.250733
-0.328288
-0.395739
-0.445693
-0.472275
-0.470773
-0.438099
-0.376543
-0.29522
-0.207726
-0.126458
-0.0585586
-0.00582664
0.0330941
0.0607547
0.0795328
0.0907205
0.0945339
0.0913883
0.083249
0.0726911
0.0616122
0.0494986
0.0351361
0.0153037
0.544915
0.545795
0.547352
0.549722
0.552259
0.555032
0.5559
0.554986
0.545351
0.52639
0.476782
0.394834
0.250655
0.0607017
-0.112394
-0.237508
-0.321665
-0.376649
-0.40978
-0.427107
-0.43363
-0.433659
-0.426788
-0.410938
-0.383635
-0.344346
-0.294887
-0.238751
-0.179951
-0.122399
-0.0697407
-0.0253842
0.00680209
0.0246203
0.0251417
0.00637288
-0.0322467
-0.08898
-0.159023
-0.234832
-0.307631
-0.36908
-0.412597
-0.432637
-0.424217
-0.385744
-0.321656
-0.242544
-0.161307
-0.088016
-0.0275371
0.0195615
0.0548164
0.0804173
0.0984336
0.110077
0.115419
0.114221
0.107411
0.0967751
0.0840649
0.0683371
0.0484713
0.0210753
0.52888
0.529019
0.529106
0.529102
0.528348
0.526505
0.521664
0.512909
0.495293
0.466677
0.417975
0.348119
0.253884
0.127619
-0.0109295
-0.131359
-0.222525
-0.287413
-0.331654
-0.359945
-0.375606
-0.381005
-0.377491
-0.365418
-0.340132
-0.303867
-0.258551
-0.207111
-0.152619
-0.0980171
-0.0469268
-0.00326241
0.0258546
0.0381592
0.0320777
0.00770997
-0.0336852
-0.0894656
-0.15493
-0.223349
-0.287033
-0.338292
-0.37128
-0.380411
-0.362267
-0.318086
-0.254597
-0.18231
-0.111554
-0.0491704
0.0021272
0.0424934
0.0732625
0.0960159
0.112328
0.123336
0.129161
0.129172
0.123348
0.112529
0.0983906
0.0800443
0.0564859
0.0247535
0.512677
0.512156
0.510958
0.5089
0.505395
0.499855
0.490822
0.477021
0.455626
0.424678
0.381
0.32245
0.248263
0.153568
0.0459896
-0.0554113
-0.138276
-0.201252
-0.247678
-0.280605
-0.301834
-0.312533
-0.313486
-0.304829
-0.28743
-0.259518
-0.223072
-0.180779
-0.13575
-0.0907726
-0.0499514
-0.0163771
0.00732087
0.0167877
0.010628
-0.0116236
-0.0488798
-0.0980646
-0.154261
-0.211159
-0.262378
-0.297926
-0.315964
-0.312263
-0.286167
-0.241156
-0.184125
-0.12326
-0.0654104
-0.0146403
0.0275634
0.0613681
0.0876277
0.107303
0.121396
0.130907
0.136233
0.136747
0.131811
0.121212
0.106146
0.0861608
0.0601892
0.0267339
0.496967
0.495901
0.493648
0.489951
0.48431
0.476102
0.464281
0.447713
0.424797
0.394002
0.353683
0.301876
0.237848
0.161323
0.0768881
-0.00527324
-0.0765558
-0.13421
-0.179287
-0.213367
-0.237364
-0.251802
-0.257101
-0.253705
-0.242061
-0.222075
-0.195066
-0.163219
-0.1289
-0.0949567
-0.0626962
-0.0365324
-0.0188953
-0.0123011
-0.0180108
-0.036207
-0.0656604
-0.103477
-0.145167
-0.185504
-0.218303
-0.240927
-0.246731
-0.235344
-0.208265
-0.168869
-0.122259
-0.0738284
-0.0278694
0.0129976
0.0476086
0.0758007
0.0979573
0.114643
0.126416
0.133953
0.137876
0.137998
0.133649
0.123816
0.108647
0.0881118
0.0606633
0.0274831
0.482306
0.48082
0.477752
0.472827
0.465633
0.45563
0.442064
0.42405
0.400537
0.370368
0.332442
0.285671
0.229964
0.16652
0.0983435
0.030734
-0.0308864
-0.0835143
-0.126601
-0.160579
-0.185852
-0.202665
-0.211284
-0.212077
-0.205516
-0.192148
-0.173033
-0.149687
-0.124026
-0.0981976
-0.0742509
-0.054706
-0.0414742
-0.0362639
-0.0400061
-0.0526226
-0.0729149
-0.0985236
-0.126215
-0.152275
-0.172666
-0.183859
-0.18271
-0.169481
-0.145434
-0.112937
-0.07545
-0.0366256
0.000522612
0.0339869
0.0626957
0.086287
0.104842
0.118703
0.12824
0.13383
0.135948
0.134781
0.130144
0.121099
0.1066
0.0867961
0.0590186
0.0273345
0.469135
0.467341
0.463679
0.45788
0.449612
0.438445
0.423819
0.405063
0.381427
0.35212
0.316486
0.274138
0.225368
0.171344
0.114071
0.0565906
0.00242452
-0.0457233
-0.0865726
-0.119839
-0.145576
-0.163884
-0.174933
-0.179026
-0.176637
-0.168421
-0.155307
-0.138542
-0.119675
-0.100426
-0.0824856
-0.0675699
-0.0571778
-0.052491
-0.0540992
-0.0618485
-0.0748049
-0.0912474
-0.108789
-0.124354
-0.135965
-0.140032
-0.135387
-0.121875
-0.100358
-0.0727097
-0.0414908
-0.00933967
0.0215143
0.0494862
0.0736167
0.0934785
0.10899
0.120329
0.127743
0.131517
0.131948
0.129317
0.123618
0.114837
0.100441
0.0821912
0.0559266
0.0262354
0.457784
0.455776
0.451698
0.445302
0.436319
0.424418
0.409178
0.390101
0.366665
0.338377
0.304906
0.266197
0.222621
0.175089
0.125062
0.0745999
0.0261627
-0.0180424
-0.056595
-0.0888526
-0.114612
-0.133847
-0.146647
-0.153255
-0.154101
-0.149809
-0.141215
-0.129382
-0.115573
-0.101157
-0.0875006
-0.0759184
-0.0675373
-0.0631959
-0.0632995
-0.0677063
-0.0756863
-0.0859156
-0.096596
-0.105744
-0.11029
-0.109669
-0.102511
-0.0885828
-0.0686998
-0.0443532
-0.0174314
0.0101069
0.0365277
0.0605169
0.0812037
0.0981425
0.111164
0.120357
0.125884
0.128031
0.126941
0.122891
0.115738
0.105386
0.0920933
0.0749985
0.0509734
0.023487
0.448486
0.446335
0.441981
0.435192
0.425752
0.413408
0.397845
0.378703
0.355628
0.328326
0.296649
0.26067
0.220762
0.177678
0.132588
0.0870635
0.0429324
0.00194572
-0.0345708
-0.0658236
-0.0914261
-0.111233
-0.125266
-0.133714
-0.136957
-0.135564
-0.130288
-0.122054
-0.111918
-0.101003
-0.0904274
-0.0812325
-0.0742986
-0.0702574
-0.0693928
-0.0715558
-0.0761211
-0.0820259
-0.0878494
-0.0919969
-0.0926615
-0.0889614
-0.0800532
-0.0658803
-0.047114
-0.0249232
-0.000804592
0.0236561
0.0470193
0.0681623
0.0862998
0.100999
0.112054
0.119519
0.123483
0.124238
0.121869
0.11678
0.108734
0.098268
0.0843998
0.0678715
0.0454195
0.0200404
0.441399
0.439157
0.434629
0.427595
0.417877
0.405283
0.389576
0.370493
0.347789
0.321288
0.290942
0.256882
0.219483
0.17942
0.137682
0.095544
0.0544526
0.0158369
-0.0191051
-0.0495285
-0.0749316
-0.0950779
-0.109935
-0.119657
-0.124582
-0.12523
-0.122283
-0.116561
-0.108975
-0.100483
-0.0920274
-0.0844752
-0.0785431
-0.0747263
-0.0732253
-0.0738866
-0.0761877
-0.0792562
-0.0819367
-0.0829674
-0.0810699
-0.0753712
-0.0653388
-0.0509811
-0.0328713
-0.0120196
0.010291
0.0327124
0.0540081
0.0731895
0.0895324
0.102621
0.11223
0.118397
0.121164
0.120858
0.11751
0.11165
0.102942
0.0922126
0.0781267
0.0621842
0.0408815
0.0178662
0.436627
0.434331
0.429701
0.422527
0.412656
0.399934
0.384175
0.365176
0.342758
0.316809
0.287334
0.254503
0.218692
0.180526
0.140882
0.100856
0.0616801
0.0245956
-0.00929256
-0.0391319
-0.0643615
-0.084689
-0.100047
-0.110566
-0.116558
-0.118504
-0.117034
-0.112895
-0.106913
-0.0999422
-0.092818
-0.0862958
-0.080991
-0.0773177
-0.0754337
-0.075196
-0.0761444
-0.0775137
-0.0783207
-0.0775093
-0.0740439
-0.0671598
-0.0564411
-0.0419458
-0.0242155
-0.0041678
0.0170506
0.0382347
0.0582622
0.0762198
0.0914214
0.103467
0.11212
0.117421
0.119384
0.118363
0.114347
0.107967
0.0988078
0.087902
0.0737675
0.0583296
0.0379308
0.0168692
0.434232
0.43191
0.427233
0.419995
0.410057
0.397282
0.38151
0.362566
0.340299
0.314629
0.285586
0.253357
0.218319
0.18107
0.142431
0.103415
0.0651588
0.0288212
-0.00454044
-0.0340776
-0.059207
-0.0796109
-0.0952052
-0.106107
-0.112615
-0.11519
-0.114435
-0.111061
-0.105852
-0.0996158
-0.0931332
-0.0871065
-0.0821037
-0.0785036
-0.0764448
-0.0757873
-0.076097
-0.07667
-0.0766006
-0.0749216
-0.0707171
-0.0632797
-0.0522393
-0.0376823
-0.0201331
-0.000460016
0.0202504
0.0408524
0.0602743
0.0776398
0.0922838
0.103814
0.111994
0.116861
0.118422
0.117038
0.11269
0.106049
0.0966766
0.0856774
0.0715622
0.0563739
0.0365302
0.0163742
)
;

boundaryField
{
    inlet
    {
        type            zeroGradient;
    }
    outlet
    {
        type            fixedValue;
        value           uniform 0;
    }
    top
    {
        type            symmetryPlane;
    }
    bottom
    {
        type            symmetryPlane;
    }
    frontAndBack
    {
        type            empty;
    }
}


// ************************************************************************* //
