/*--------------------------------*- C++ -*----------------------------------*\
  =========                 |
  \\      /  F ield         | OpenFOAM: The Open Source CFD Toolbox
   \\    /   O peration     | Website:  https://openfoam.org
    \\  /    A nd           | Version:  10
     \\/     M anipulation  |
\*---------------------------------------------------------------------------*/
FoamFile
{
    format      ascii;
    class       volScalarField;
    location    "0.045";
    object      pPrime2Mean;
}
// * * * * * * * * * * * * * * * * * * * * * * * * * * * * * * * * * * * * * //

dimensions      [0 4 -4 0 0 0 0];

internalField   nonuniform List<scalar> 
12225
(
9.31801e+06
9.17037e+06
9.01834e+06
8.87143e+06
8.73007e+06
8.59393e+06
8.46266e+06
8.33593e+06
8.21333e+06
8.09446e+06
7.97882e+06
7.86589e+06
7.75501e+06
7.64534e+06
7.53572e+06
7.42435e+06
7.30802e+06
7.1785e+06
9.31823e+06
9.17046e+06
9.01842e+06
8.87152e+06
8.73016e+06
8.59403e+06
8.46278e+06
8.33607e+06
8.2135e+06
8.09467e+06
7.97909e+06
7.86624e+06
7.75547e+06
7.64598e+06
7.53667e+06
7.42589e+06
7.31092e+06
7.18572e+06
9.31855e+06
9.17066e+06
9.0186e+06
8.8717e+06
8.73036e+06
8.59425e+06
8.46304e+06
8.33638e+06
8.21388e+06
8.09513e+06
7.97967e+06
7.86699e+06
7.75647e+06
7.64737e+06
7.53871e+06
7.42915e+06
7.31675e+06
7.19919e+06
9.31892e+06
9.17096e+06
9.0189e+06
8.87202e+06
8.7307e+06
8.59463e+06
8.46348e+06
8.33689e+06
8.2145e+06
8.0959e+06
7.98064e+06
7.86823e+06
7.75812e+06
7.64964e+06
7.54198e+06
7.43419e+06
7.32528e+06
7.21535e+06
9.31929e+06
9.1714e+06
9.01934e+06
8.87247e+06
8.7312e+06
8.59518e+06
8.46411e+06
8.33765e+06
8.21541e+06
8.09702e+06
7.98205e+06
7.87004e+06
7.7605e+06
7.65287e+06
7.54655e+06
7.44098e+06
7.33596e+06
7.2328e+06
9.31989e+06
9.172e+06
9.01995e+06
8.87311e+06
8.73188e+06
8.59595e+06
8.46499e+06
8.33868e+06
8.21666e+06
8.09855e+06
7.98397e+06
7.87249e+06
7.76369e+06
7.65714e+06
7.55244e+06
7.44939e+06
7.34831e+06
7.25087e+06
9.32066e+06
9.1728e+06
9.02076e+06
8.87395e+06
8.73278e+06
8.59696e+06
8.46615e+06
8.34005e+06
8.2183e+06
8.10056e+06
7.98646e+06
7.87565e+06
7.76776e+06
7.6625e+06
7.55964e+06
7.45926e+06
7.36193e+06
7.26924e+06
9.32163e+06
9.17383e+06
9.02181e+06
8.87503e+06
8.73394e+06
8.59825e+06
8.46763e+06
8.34179e+06
8.22039e+06
8.1031e+06
7.9896e+06
7.87958e+06
7.77276e+06
7.66895e+06
7.56808e+06
7.47038e+06
7.37651e+06
7.28777e+06
9.32304e+06
9.17517e+06
9.02313e+06
8.87638e+06
8.7354e+06
8.59986e+06
8.46948e+06
8.34395e+06
8.22297e+06
8.10622e+06
7.99342e+06
7.88432e+06
7.77871e+06
7.67648e+06
7.57768e+06
7.48259e+06
7.39183e+06
7.30639e+06
9.32467e+06
9.17684e+06
9.02476e+06
8.87806e+06
8.73718e+06
8.60184e+06
8.47174e+06
8.34659e+06
8.22609e+06
8.10998e+06
7.99799e+06
7.88992e+06
7.78562e+06
7.68506e+06
7.58832e+06
7.4957e+06
7.40772e+06
7.32506e+06
9.32719e+06
9.17892e+06
9.02676e+06
8.88009e+06
8.73934e+06
8.60423e+06
8.47445e+06
8.34974e+06
8.22981e+06
8.11441e+06
8.00332e+06
7.89638e+06
7.79348e+06
7.6946e+06
7.59988e+06
7.50957e+06
7.42405e+06
7.34376e+06
9.32937e+06
9.18121e+06
9.02897e+06
8.88231e+06
8.7417e+06
8.60683e+06
8.47739e+06
8.35314e+06
8.23379e+06
8.11912e+06
8.00893e+06
7.90309e+06
7.8015e+06
7.70418e+06
7.61123e+06
7.52286e+06
7.43932e+06
7.36091e+06
9.33259e+06
9.18388e+06
9.03149e+06
8.88485e+06
8.74438e+06
8.60977e+06
8.48071e+06
8.35695e+06
8.23823e+06
8.12434e+06
8.0151e+06
7.91038e+06
7.81011e+06
7.7143e+06
7.62303e+06
7.53643e+06
7.45467e+06
7.37788e+06
9.33676e+06
9.18746e+06
9.03483e+06
8.8882e+06
8.74791e+06
8.61363e+06
8.48505e+06
8.36191e+06
8.24396e+06
8.13101e+06
8.02289e+06
7.91947e+06
7.8207e+06
7.72655e+06
7.63706e+06
7.5523e+06
7.47233e+06
7.39717e+06
9.3422e+06
9.19212e+06
9.0392e+06
8.89258e+06
8.75252e+06
8.61865e+06
8.49066e+06
8.36828e+06
8.25127e+06
8.13944e+06
8.03261e+06
7.93067e+06
7.83354e+06
7.74116e+06
7.65352e+06
7.5706e+06
7.49239e+06
7.41882e+06
9.34878e+06
9.19806e+06
9.04483e+06
8.89823e+06
8.75847e+06
8.62511e+06
8.49784e+06
8.37637e+06
8.26046e+06
8.1499e+06
8.04452e+06
7.94419e+06
7.84879e+06
7.75823e+06
7.67244e+06
7.59133e+06
7.5148e+06
7.44275e+06
9.35682e+06
9.20534e+06
9.05183e+06
8.90533e+06
8.76595e+06
8.63323e+06
8.50681e+06
8.38639e+06
8.27172e+06
8.16257e+06
8.05875e+06
7.9601e+06
7.86647e+06
7.77771e+06
7.6937e+06
7.6143e+06
7.53935e+06
7.4687e+06
9.36572e+06
9.21378e+06
9.06019e+06
8.91392e+06
8.77504e+06
8.64307e+06
8.51762e+06
8.39837e+06
8.28504e+06
8.17737e+06
8.07516e+06
7.97818e+06
7.88627e+06
7.79922e+06
7.71687e+06
7.63903e+06
7.56551e+06
7.49613e+06
9.3754e+06
9.22305e+06
9.06953e+06
8.92365e+06
8.78544e+06
8.65435e+06
8.52998e+06
8.41197e+06
8.3e+06
8.19382e+06
8.09315e+06
7.99777e+06
7.90744e+06
7.82194e+06
7.74107e+06
7.66461e+06
7.59234e+06
7.52406e+06
9.38179e+06
9.22982e+06
9.07671e+06
8.9314e+06
8.79387e+06
8.66358e+06
8.54009e+06
8.42305e+06
8.31212e+06
8.20702e+06
8.10745e+06
8.01317e+06
7.92392e+06
7.83946e+06
7.75956e+06
7.68399e+06
7.61253e+06
7.54497e+06
9.38452e+06
9.23358e+06
9.08115e+06
8.93642e+06
8.79947e+06
8.66977e+06
8.54691e+06
8.43052e+06
8.32027e+06
8.21585e+06
8.11698e+06
8.02337e+06
7.93478e+06
7.85094e+06
7.77163e+06
7.6966e+06
7.62562e+06
7.55848e+06
9.3867e+06
9.23605e+06
9.08414e+06
8.93993e+06
8.80347e+06
8.67425e+06
8.55187e+06
8.43596e+06
8.3262e+06
8.22226e+06
8.12387e+06
8.03073e+06
7.94259e+06
7.85918e+06
7.78026e+06
7.70558e+06
7.63493e+06
7.56807e+06
9.38663e+06
9.23729e+06
9.08605e+06
8.94232e+06
8.80627e+06
8.67743e+06
8.55541e+06
8.43986e+06
8.33044e+06
8.22685e+06
8.12879e+06
8.03598e+06
7.94814e+06
7.86502e+06
7.78637e+06
7.71194e+06
7.6415e+06
7.57484e+06
9.38697e+06
9.23804e+06
9.08728e+06
8.94393e+06
8.80821e+06
8.67965e+06
8.5579e+06
8.4426e+06
8.33343e+06
8.23008e+06
8.13225e+06
8.03966e+06
7.95204e+06
7.86912e+06
7.79064e+06
7.71638e+06
7.64609e+06
7.57956e+06
9.38692e+06
9.23838e+06
9.08803e+06
8.945e+06
8.80952e+06
8.68117e+06
8.55961e+06
8.44449e+06
8.33549e+06
8.23231e+06
8.13464e+06
8.0422e+06
7.95472e+06
7.87193e+06
7.79358e+06
7.71943e+06
7.64924e+06
7.58279e+06
9.38604e+06
9.2384e+06
9.08847e+06
8.94569e+06
8.81039e+06
8.68219e+06
8.56076e+06
8.44576e+06
8.33688e+06
8.2338e+06
8.13624e+06
8.04391e+06
7.95652e+06
7.87382e+06
7.79555e+06
7.72147e+06
7.65135e+06
7.58496e+06
9.38539e+06
9.23836e+06
9.08872e+06
8.94612e+06
8.81094e+06
8.68284e+06
8.56149e+06
8.44658e+06
8.33777e+06
8.23477e+06
8.13728e+06
8.045e+06
7.95768e+06
7.87503e+06
7.79682e+06
7.72279e+06
7.6527e+06
7.58635e+06
9.38507e+06
9.23832e+06
9.08887e+06
8.94637e+06
8.81127e+06
8.68324e+06
8.56194e+06
8.44707e+06
8.33831e+06
8.23535e+06
8.1379e+06
8.04567e+06
7.95838e+06
7.87577e+06
7.79758e+06
7.72358e+06
7.65352e+06
7.58719e+06
9.38493e+06
9.2383e+06
9.08894e+06
8.94651e+06
8.81145e+06
8.68345e+06
8.56218e+06
8.44734e+06
8.3386e+06
8.23567e+06
8.13824e+06
8.04603e+06
7.95876e+06
7.87617e+06
7.798e+06
7.72401e+06
7.65397e+06
7.58765e+06
9.38489e+06
9.23829e+06
9.08897e+06
8.94656e+06
8.81152e+06
8.68353e+06
8.56228e+06
8.44745e+06
8.33872e+06
8.2358e+06
8.13838e+06
8.04617e+06
7.95891e+06
7.87633e+06
7.79817e+06
7.72418e+06
7.65415e+06
7.58783e+06
6.06749e+06
6.06702e+06
6.06605e+06
6.06457e+06
6.06258e+06
6.06007e+06
6.05702e+06
6.05345e+06
6.04934e+06
6.04468e+06
6.03947e+06
6.03371e+06
6.02738e+06
6.02047e+06
6.01299e+06
6.00493e+06
5.99629e+06
5.98707e+06
5.97726e+06
5.96687e+06
5.9559e+06
5.94436e+06
5.93225e+06
5.91957e+06
5.90633e+06
5.89254e+06
5.8782e+06
5.86332e+06
5.8479e+06
5.83194e+06
5.81545e+06
5.79844e+06
5.78092e+06
5.76289e+06
5.74435e+06
5.72532e+06
5.70581e+06
5.68582e+06
5.66538e+06
5.64448e+06
5.62313e+06
5.60132e+06
5.57906e+06
5.55636e+06
5.53322e+06
5.50966e+06
5.48568e+06
5.46129e+06
5.4365e+06
5.41131e+06
5.38575e+06
5.35981e+06
5.33351e+06
5.30686e+06
5.27987e+06
5.25254e+06
5.22489e+06
5.19691e+06
5.16861e+06
5.14001e+06
5.11109e+06
5.08187e+06
5.05235e+06
5.02253e+06
4.99241e+06
4.96201e+06
4.93132e+06
4.90034e+06
4.86908e+06
4.83755e+06
4.80574e+06
4.77367e+06
4.74134e+06
4.70876e+06
4.67594e+06
4.64288e+06
4.60959e+06
4.57608e+06
4.54235e+06
4.50842e+06
4.47429e+06
4.43997e+06
4.40546e+06
4.37076e+06
4.33588e+06
4.30082e+06
4.26559e+06
4.23019e+06
4.19463e+06
4.1589e+06
4.12301e+06
4.08696e+06
4.05077e+06
4.01442e+06
3.97794e+06
3.94131e+06
3.90455e+06
3.86765e+06
3.83063e+06
3.79348e+06
3.7562e+06
3.71881e+06
3.68129e+06
3.64365e+06
3.60591e+06
3.56805e+06
3.53008e+06
3.49201e+06
3.45384e+06
3.41557e+06
3.37721e+06
3.33876e+06
3.30022e+06
3.2616e+06
3.2229e+06
3.18412e+06
3.14527e+06
3.10635e+06
3.06736e+06
3.02832e+06
2.98922e+06
2.95006e+06
2.91086e+06
2.87161e+06
2.83233e+06
2.793e+06
2.75365e+06
2.71426e+06
2.67486e+06
2.63543e+06
2.59599e+06
2.55655e+06
2.5171e+06
2.47765e+06
2.43821e+06
2.39878e+06
2.35936e+06
2.31997e+06
2.28061e+06
2.24127e+06
2.20198e+06
2.16274e+06
2.12354e+06
2.0844e+06
2.04533e+06
2.00632e+06
1.96739e+06
1.92855e+06
1.88979e+06
1.85113e+06
1.81257e+06
1.77412e+06
1.73579e+06
1.69759e+06
1.65952e+06
1.62159e+06
1.58381e+06
1.54619e+06
1.50873e+06
1.47145e+06
1.43435e+06
1.39744e+06
1.36073e+06
1.32424e+06
1.28797e+06
1.25193e+06
1.21614e+06
1.1806e+06
1.14534e+06
1.11035e+06
1.07566e+06
1.04128e+06
1.00724e+06
973544
940231
907330
874886
842964
811678
781273
6.06971e+06
6.06922e+06
6.06825e+06
6.06676e+06
6.06476e+06
6.06223e+06
6.05917e+06
6.05558e+06
6.05145e+06
6.04677e+06
6.04154e+06
6.03574e+06
6.02938e+06
6.02244e+06
6.01492e+06
6.00682e+06
5.99814e+06
5.98887e+06
5.97902e+06
5.96859e+06
5.95757e+06
5.94598e+06
5.93382e+06
5.9211e+06
5.90781e+06
5.89397e+06
5.87958e+06
5.86465e+06
5.84918e+06
5.83318e+06
5.81666e+06
5.79962e+06
5.78206e+06
5.764e+06
5.74543e+06
5.72637e+06
5.70681e+06
5.68679e+06
5.66631e+06
5.64537e+06
5.62397e+06
5.60212e+06
5.57982e+06
5.55708e+06
5.53391e+06
5.51031e+06
5.4863e+06
5.46189e+06
5.43707e+06
5.41186e+06
5.38627e+06
5.36031e+06
5.33399e+06
5.30732e+06
5.28031e+06
5.25296e+06
5.22528e+06
5.19728e+06
5.16897e+06
5.14034e+06
5.11141e+06
5.08217e+06
5.05263e+06
5.0228e+06
4.99267e+06
4.96226e+06
4.93155e+06
4.90056e+06
4.86929e+06
4.83774e+06
4.80593e+06
4.77384e+06
4.7415e+06
4.70891e+06
4.67608e+06
4.643e+06
4.60971e+06
4.57619e+06
4.54246e+06
4.50852e+06
4.47438e+06
4.44005e+06
4.40553e+06
4.37083e+06
4.33595e+06
4.30089e+06
4.26566e+06
4.23025e+06
4.19468e+06
4.15895e+06
4.12306e+06
4.08701e+06
4.05081e+06
4.01446e+06
3.97797e+06
3.94134e+06
3.90458e+06
3.86768e+06
3.83065e+06
3.7935e+06
3.75622e+06
3.71883e+06
3.68131e+06
3.64367e+06
3.60592e+06
3.56806e+06
3.5301e+06
3.49202e+06
3.45385e+06
3.41558e+06
3.37722e+06
3.33877e+06
3.30023e+06
3.26161e+06
3.2229e+06
3.18412e+06
3.14527e+06
3.10635e+06
3.06737e+06
3.02832e+06
2.98922e+06
2.95007e+06
2.91086e+06
2.87162e+06
2.83233e+06
2.793e+06
2.75365e+06
2.71426e+06
2.67486e+06
2.63543e+06
2.596e+06
2.55655e+06
2.5171e+06
2.47765e+06
2.43821e+06
2.39878e+06
2.35936e+06
2.31997e+06
2.28061e+06
2.24128e+06
2.20198e+06
2.16274e+06
2.12354e+06
2.0844e+06
2.04533e+06
2.00632e+06
1.96739e+06
1.92855e+06
1.88979e+06
1.85113e+06
1.81257e+06
1.77412e+06
1.73579e+06
1.69759e+06
1.65952e+06
1.62159e+06
1.58381e+06
1.54619e+06
1.50873e+06
1.47145e+06
1.43435e+06
1.39744e+06
1.36073e+06
1.32424e+06
1.28797e+06
1.25193e+06
1.21614e+06
1.1806e+06
1.14533e+06
1.11034e+06
1.07565e+06
1.04127e+06
1.00723e+06
973530
940212
907304
874848
842906
811573
781024
6.0741e+06
6.07361e+06
6.07261e+06
6.07111e+06
6.0691e+06
6.06655e+06
6.06347e+06
6.05985e+06
6.05568e+06
6.05096e+06
6.04568e+06
6.03982e+06
6.0334e+06
6.02639e+06
6.01879e+06
6.01061e+06
6.00185e+06
5.99249e+06
5.98255e+06
5.97203e+06
5.96092e+06
5.94923e+06
5.93698e+06
5.92415e+06
5.91077e+06
5.89683e+06
5.88234e+06
5.86731e+06
5.85175e+06
5.83566e+06
5.81904e+06
5.80192e+06
5.78428e+06
5.76614e+06
5.7475e+06
5.72836e+06
5.70874e+06
5.68865e+06
5.6681e+06
5.64709e+06
5.62562e+06
5.60369e+06
5.58131e+06
5.5585e+06
5.53527e+06
5.51162e+06
5.48755e+06
5.46307e+06
5.4382e+06
5.41294e+06
5.3873e+06
5.36129e+06
5.33492e+06
5.3082e+06
5.28114e+06
5.25375e+06
5.22603e+06
5.198e+06
5.16964e+06
5.14098e+06
5.11202e+06
5.08275e+06
5.05318e+06
5.02332e+06
4.99317e+06
4.96273e+06
4.932e+06
4.90099e+06
4.86969e+06
4.83812e+06
4.80628e+06
4.77418e+06
4.74182e+06
4.7092e+06
4.67635e+06
4.64326e+06
4.60994e+06
4.5764e+06
4.54266e+06
4.50871e+06
4.47456e+06
4.44022e+06
4.40569e+06
4.37098e+06
4.33609e+06
4.30102e+06
4.26578e+06
4.23037e+06
4.1948e+06
4.15906e+06
4.12316e+06
4.0871e+06
4.05089e+06
4.01454e+06
3.97804e+06
3.9414e+06
3.90463e+06
3.86773e+06
3.8307e+06
3.79355e+06
3.75627e+06
3.71886e+06
3.68134e+06
3.6437e+06
3.60595e+06
3.56809e+06
3.53012e+06
3.49205e+06
3.45387e+06
3.4156e+06
3.37724e+06
3.33878e+06
3.30024e+06
3.26162e+06
3.22291e+06
3.18413e+06
3.14528e+06
3.10636e+06
3.06738e+06
3.02833e+06
2.98923e+06
2.95007e+06
2.91087e+06
2.87162e+06
2.83233e+06
2.79301e+06
2.75365e+06
2.71427e+06
2.67486e+06
2.63544e+06
2.596e+06
2.55655e+06
2.5171e+06
2.47765e+06
2.43821e+06
2.39878e+06
2.35936e+06
2.31997e+06
2.28061e+06
2.24128e+06
2.20198e+06
2.16274e+06
2.12354e+06
2.0844e+06
2.04533e+06
2.00632e+06
1.96739e+06
1.92855e+06
1.88979e+06
1.85113e+06
1.81257e+06
1.77412e+06
1.73579e+06
1.69759e+06
1.65952e+06
1.62159e+06
1.58381e+06
1.54619e+06
1.50873e+06
1.47144e+06
1.43434e+06
1.39744e+06
1.36073e+06
1.32424e+06
1.28797e+06
1.25193e+06
1.21613e+06
1.1806e+06
1.14532e+06
1.11033e+06
1.07564e+06
1.04126e+06
1.00721e+06
973503
940176
907254
874775
842794
811382
780637
6.08074e+06
6.08023e+06
6.07922e+06
6.07769e+06
6.07565e+06
6.07307e+06
6.06995e+06
6.06628e+06
6.06205e+06
6.05726e+06
6.05188e+06
6.04594e+06
6.0394e+06
6.03228e+06
6.02457e+06
6.01627e+06
6.00738e+06
5.99789e+06
5.98781e+06
5.97715e+06
5.9659e+06
5.95408e+06
5.94168e+06
5.92872e+06
5.91519e+06
5.9011e+06
5.88647e+06
5.8713e+06
5.85559e+06
5.83936e+06
5.82261e+06
5.80534e+06
5.78757e+06
5.7693e+06
5.75054e+06
5.73129e+06
5.71156e+06
5.69137e+06
5.67071e+06
5.6496e+06
5.62803e+06
5.606e+06
5.58353e+06
5.56063e+06
5.5373e+06
5.51355e+06
5.48939e+06
5.46483e+06
5.43987e+06
5.41453e+06
5.38881e+06
5.36273e+06
5.33629e+06
5.3095e+06
5.28237e+06
5.25492e+06
5.22714e+06
5.19905e+06
5.17064e+06
5.14193e+06
5.11292e+06
5.0836e+06
5.054e+06
5.0241e+06
4.99391e+06
4.96343e+06
4.93266e+06
4.90162e+06
4.87029e+06
4.83868e+06
4.80681e+06
4.77467e+06
4.74228e+06
4.70963e+06
4.67675e+06
4.64363e+06
4.61028e+06
4.57672e+06
4.54296e+06
4.50899e+06
4.47482e+06
4.44046e+06
4.40592e+06
4.37119e+06
4.33629e+06
4.30121e+06
4.26597e+06
4.23055e+06
4.19496e+06
4.15921e+06
4.1233e+06
4.08724e+06
4.05102e+06
4.01465e+06
3.97814e+06
3.9415e+06
3.90472e+06
3.86781e+06
3.83077e+06
3.79361e+06
3.75633e+06
3.71892e+06
3.68139e+06
3.64375e+06
3.606e+06
3.56813e+06
3.53016e+06
3.49208e+06
3.45391e+06
3.41563e+06
3.37727e+06
3.33881e+06
3.30027e+06
3.26164e+06
3.22293e+06
3.18415e+06
3.1453e+06
3.10638e+06
3.06739e+06
3.02834e+06
2.98924e+06
2.95008e+06
2.91088e+06
2.87163e+06
2.83234e+06
2.79301e+06
2.75366e+06
2.71427e+06
2.67487e+06
2.63544e+06
2.596e+06
2.55656e+06
2.5171e+06
2.47765e+06
2.43821e+06
2.39878e+06
2.35937e+06
2.31997e+06
2.28061e+06
2.24128e+06
2.20199e+06
2.16274e+06
2.12354e+06
2.08441e+06
2.04533e+06
2.00632e+06
1.96739e+06
1.92855e+06
1.88979e+06
1.85113e+06
1.81257e+06
1.77412e+06
1.73579e+06
1.69759e+06
1.65952e+06
1.62159e+06
1.58381e+06
1.54619e+06
1.50873e+06
1.47144e+06
1.43434e+06
1.39744e+06
1.36073e+06
1.32424e+06
1.28796e+06
1.25192e+06
1.21613e+06
1.18059e+06
1.14531e+06
1.11032e+06
1.07562e+06
1.04124e+06
1.00718e+06
973464
940123
907181
874671
842637
811129
780188
6.08964e+06
6.08912e+06
6.08809e+06
6.08654e+06
6.08446e+06
6.08183e+06
6.07864e+06
6.07489e+06
6.07056e+06
6.06566e+06
6.06016e+06
6.05408e+06
6.04741e+06
6.04014e+06
6.03227e+06
6.0238e+06
6.01473e+06
6.00507e+06
5.99481e+06
5.98396e+06
5.97253e+06
5.96051e+06
5.94793e+06
5.93477e+06
5.92105e+06
5.90678e+06
5.89196e+06
5.8766e+06
5.8607e+06
5.84428e+06
5.82735e+06
5.8099e+06
5.79195e+06
5.7735e+06
5.75458e+06
5.73517e+06
5.71529e+06
5.69495e+06
5.67415e+06
5.6529e+06
5.6312e+06
5.60905e+06
5.58645e+06
5.56343e+06
5.53998e+06
5.51611e+06
5.49183e+06
5.46715e+06
5.44207e+06
5.41662e+06
5.3908e+06
5.36461e+06
5.33808e+06
5.3112e+06
5.28399e+06
5.25645e+06
5.22859e+06
5.20042e+06
5.17195e+06
5.14317e+06
5.1141e+06
5.08473e+06
5.05507e+06
5.02511e+06
4.99487e+06
4.96435e+06
4.93353e+06
4.90244e+06
4.87106e+06
4.83941e+06
4.8075e+06
4.77531e+06
4.74288e+06
4.71019e+06
4.67726e+06
4.64411e+06
4.61073e+06
4.57714e+06
4.54334e+06
4.50934e+06
4.47515e+06
4.44077e+06
4.40621e+06
4.37147e+06
4.33656e+06
4.30147e+06
4.26621e+06
4.23078e+06
4.19518e+06
4.15942e+06
4.1235e+06
4.08742e+06
4.05118e+06
4.0148e+06
3.97828e+06
3.94162e+06
3.90483e+06
3.86791e+06
3.83087e+06
3.7937e+06
3.75641e+06
3.719e+06
3.68146e+06
3.64382e+06
3.60605e+06
3.56818e+06
3.53021e+06
3.49213e+06
3.45395e+06
3.41567e+06
3.3773e+06
3.33884e+06
3.30029e+06
3.26167e+06
3.22296e+06
3.18417e+06
3.14532e+06
3.10639e+06
3.06741e+06
3.02836e+06
2.98925e+06
2.9501e+06
2.91089e+06
2.87164e+06
2.83235e+06
2.79302e+06
2.75366e+06
2.71428e+06
2.67487e+06
2.63545e+06
2.59601e+06
2.55656e+06
2.51711e+06
2.47766e+06
2.43821e+06
2.39878e+06
2.35937e+06
2.31998e+06
2.28061e+06
2.24128e+06
2.20199e+06
2.16274e+06
2.12355e+06
2.08441e+06
2.04533e+06
2.00633e+06
1.9674e+06
1.92855e+06
1.88979e+06
1.85113e+06
1.81257e+06
1.77412e+06
1.7358e+06
1.69759e+06
1.65952e+06
1.62159e+06
1.58381e+06
1.54618e+06
1.50873e+06
1.47144e+06
1.43434e+06
1.39743e+06
1.36073e+06
1.32423e+06
1.28796e+06
1.25192e+06
1.21612e+06
1.18058e+06
1.1453e+06
1.1103e+06
1.0756e+06
1.04121e+06
1.00714e+06
973413
940054
907087
874539
842445
810834
779715
6.1009e+06
6.10036e+06
6.09931e+06
6.09771e+06
6.09557e+06
6.09285e+06
6.08957e+06
6.0857e+06
6.08125e+06
6.0762e+06
6.07056e+06
6.06431e+06
6.05746e+06
6.05e+06
6.04193e+06
6.03325e+06
6.02396e+06
6.01407e+06
6.00358e+06
5.99249e+06
5.98082e+06
5.96856e+06
5.95573e+06
5.94233e+06
5.92837e+06
5.91385e+06
5.89879e+06
5.88319e+06
5.86706e+06
5.85041e+06
5.83325e+06
5.81558e+06
5.79741e+06
5.77875e+06
5.75962e+06
5.74001e+06
5.71995e+06
5.69942e+06
5.67844e+06
5.65701e+06
5.63514e+06
5.61282e+06
5.59008e+06
5.5669e+06
5.54329e+06
5.51927e+06
5.49484e+06
5.47001e+06
5.44479e+06
5.4192e+06
5.39325e+06
5.36693e+06
5.34028e+06
5.31329e+06
5.28597e+06
5.25833e+06
5.23038e+06
5.20212e+06
5.17356e+06
5.1447e+06
5.11555e+06
5.08611e+06
5.05639e+06
5.02637e+06
4.99607e+06
4.96548e+06
4.93461e+06
4.90345e+06
4.87202e+06
4.84031e+06
4.80834e+06
4.7761e+06
4.74361e+06
4.71088e+06
4.6779e+06
4.6447e+06
4.61128e+06
4.57765e+06
4.54381e+06
4.50978e+06
4.47556e+06
4.44115e+06
4.40657e+06
4.37181e+06
4.33687e+06
4.30177e+06
4.26649e+06
4.23105e+06
4.19545e+06
4.15967e+06
4.12374e+06
4.08764e+06
4.05139e+06
4.01499e+06
3.97845e+06
3.94178e+06
3.90497e+06
3.86804e+06
3.83099e+06
3.79381e+06
3.75651e+06
3.71909e+06
3.68155e+06
3.6439e+06
3.60613e+06
3.56825e+06
3.53027e+06
3.49218e+06
3.454e+06
3.41572e+06
3.37734e+06
3.33888e+06
3.30033e+06
3.2617e+06
3.22299e+06
3.1842e+06
3.14534e+06
3.10642e+06
3.06743e+06
3.02838e+06
2.98927e+06
2.95011e+06
2.9109e+06
2.87165e+06
2.83236e+06
2.79303e+06
2.75367e+06
2.71429e+06
2.67488e+06
2.63545e+06
2.59601e+06
2.55657e+06
2.51711e+06
2.47766e+06
2.43822e+06
2.39879e+06
2.35937e+06
2.31998e+06
2.28061e+06
2.24128e+06
2.20199e+06
2.16274e+06
2.12355e+06
2.08441e+06
2.04533e+06
2.00633e+06
1.9674e+06
1.92855e+06
1.88979e+06
1.85113e+06
1.81257e+06
1.77413e+06
1.7358e+06
1.69759e+06
1.65952e+06
1.62159e+06
1.58381e+06
1.54618e+06
1.50872e+06
1.47144e+06
1.43434e+06
1.39743e+06
1.36072e+06
1.32423e+06
1.28795e+06
1.25191e+06
1.21611e+06
1.18056e+06
1.14528e+06
1.11028e+06
1.07557e+06
1.04117e+06
1.00709e+06
973351
939972
906976
874386
842226
810514
779238
6.1146e+06
6.11403e+06
6.11293e+06
6.11126e+06
6.10903e+06
6.10621e+06
6.10279e+06
6.09878e+06
6.09417e+06
6.08895e+06
6.08311e+06
6.07666e+06
6.06958e+06
6.06188e+06
6.05356e+06
6.04462e+06
6.03506e+06
6.02489e+06
6.01412e+06
6.00274e+06
5.99077e+06
5.97822e+06
5.96509e+06
5.95139e+06
5.93713e+06
5.92232e+06
5.90697e+06
5.89108e+06
5.87467e+06
5.85774e+06
5.8403e+06
5.82236e+06
5.80393e+06
5.78502e+06
5.76564e+06
5.7458e+06
5.7255e+06
5.70475e+06
5.68355e+06
5.66191e+06
5.63984e+06
5.61733e+06
5.59439e+06
5.57103e+06
5.54724e+06
5.52303e+06
5.49842e+06
5.47342e+06
5.44803e+06
5.42227e+06
5.39616e+06
5.36969e+06
5.34289e+06
5.31576e+06
5.28832e+06
5.26056e+06
5.23249e+06
5.20413e+06
5.17547e+06
5.14652e+06
5.11729e+06
5.08776e+06
5.05796e+06
5.02786e+06
4.99749e+06
4.96683e+06
4.93588e+06
4.90466e+06
4.87316e+06
4.84139e+06
4.80935e+06
4.77705e+06
4.74449e+06
4.7117e+06
4.67866e+06
4.6454e+06
4.61193e+06
4.57825e+06
4.54437e+06
4.51029e+06
4.47604e+06
4.4416e+06
4.40699e+06
4.3722e+06
4.33724e+06
4.30212e+06
4.26683e+06
4.23137e+06
4.19575e+06
4.15996e+06
4.12402e+06
4.08791e+06
4.05164e+06
4.01522e+06
3.97866e+06
3.94197e+06
3.90514e+06
3.8682e+06
3.83113e+06
3.79394e+06
3.75663e+06
3.7192e+06
3.68165e+06
3.64399e+06
3.60622e+06
3.56833e+06
3.53034e+06
3.49225e+06
3.45406e+06
3.41577e+06
3.3774e+06
3.33893e+06
3.30037e+06
3.26174e+06
3.22302e+06
3.18423e+06
3.14537e+06
3.10644e+06
3.06745e+06
3.0284e+06
2.98929e+06
2.95013e+06
2.91092e+06
2.87167e+06
2.83237e+06
2.79305e+06
2.75369e+06
2.7143e+06
2.67489e+06
2.63546e+06
2.59602e+06
2.55657e+06
2.51712e+06
2.47767e+06
2.43822e+06
2.39879e+06
2.35937e+06
2.31998e+06
2.28062e+06
2.24128e+06
2.20199e+06
2.16275e+06
2.12355e+06
2.08441e+06
2.04533e+06
2.00633e+06
1.9674e+06
1.92855e+06
1.88979e+06
1.85113e+06
1.81257e+06
1.77413e+06
1.7358e+06
1.69759e+06
1.65952e+06
1.62159e+06
1.58381e+06
1.54618e+06
1.50872e+06
1.47144e+06
1.43434e+06
1.39743e+06
1.36072e+06
1.32422e+06
1.28794e+06
1.2519e+06
1.2161e+06
1.18055e+06
1.14526e+06
1.11026e+06
1.07554e+06
1.04113e+06
1.00704e+06
973280
939879
906850
874215
841989
810180
778767
6.1308e+06
6.13019e+06
6.12902e+06
6.12726e+06
6.12491e+06
6.12195e+06
6.11838e+06
6.11419e+06
6.10937e+06
6.10393e+06
6.09785e+06
6.09114e+06
6.08379e+06
6.0758e+06
6.06718e+06
6.05792e+06
6.04804e+06
6.03754e+06
6.02643e+06
6.01471e+06
6.00239e+06
5.98948e+06
5.976e+06
5.96194e+06
5.94733e+06
5.93217e+06
5.91647e+06
5.90025e+06
5.8835e+06
5.86624e+06
5.84848e+06
5.83023e+06
5.81149e+06
5.79228e+06
5.77262e+06
5.75249e+06
5.73192e+06
5.71091e+06
5.68947e+06
5.66759e+06
5.64529e+06
5.62256e+06
5.5994e+06
5.57582e+06
5.55182e+06
5.52741e+06
5.50259e+06
5.47737e+06
5.45178e+06
5.42583e+06
5.39952e+06
5.37288e+06
5.34591e+06
5.31862e+06
5.29102e+06
5.26313e+06
5.23493e+06
5.20645e+06
5.17768e+06
5.14862e+06
5.11929e+06
5.08967e+06
5.05977e+06
5.02959e+06
4.99913e+06
4.96839e+06
4.93737e+06
4.90607e+06
4.87449e+06
4.84264e+06
4.81053e+06
4.77815e+06
4.74552e+06
4.71265e+06
4.67955e+06
4.64622e+06
4.61269e+06
4.57895e+06
4.54501e+06
4.51089e+06
4.47659e+06
4.44212e+06
4.40747e+06
4.37265e+06
4.33766e+06
4.30251e+06
4.2672e+06
4.23172e+06
4.19608e+06
4.16028e+06
4.12432e+06
4.0882e+06
4.05192e+06
4.01548e+06
3.9789e+06
3.94218e+06
3.90534e+06
3.86838e+06
3.8313e+06
3.79409e+06
3.75677e+06
3.71933e+06
3.68177e+06
3.6441e+06
3.60632e+06
3.56842e+06
3.53043e+06
3.49233e+06
3.45413e+06
3.41584e+06
3.37746e+06
3.33898e+06
3.30042e+06
3.26178e+06
3.22307e+06
3.18427e+06
3.14541e+06
3.10648e+06
3.06748e+06
3.02843e+06
2.98932e+06
2.95015e+06
2.91094e+06
2.87169e+06
2.83239e+06
2.79306e+06
2.7537e+06
2.71431e+06
2.6749e+06
2.63547e+06
2.59603e+06
2.55658e+06
2.51713e+06
2.47767e+06
2.43823e+06
2.3988e+06
2.35938e+06
2.31999e+06
2.28062e+06
2.24129e+06
2.202e+06
2.16275e+06
2.12355e+06
2.08441e+06
2.04534e+06
2.00633e+06
1.9674e+06
1.92855e+06
1.8898e+06
1.85113e+06
1.81257e+06
1.77413e+06
1.7358e+06
1.69759e+06
1.65952e+06
1.62159e+06
1.58381e+06
1.54618e+06
1.50872e+06
1.47144e+06
1.43433e+06
1.39742e+06
1.36071e+06
1.32421e+06
1.28794e+06
1.25189e+06
1.21608e+06
1.18053e+06
1.14524e+06
1.11023e+06
1.0755e+06
1.04108e+06
1.00697e+06
973201
939775
906714
874032
841741
809842
778310
6.14959e+06
6.14893e+06
6.14768e+06
6.14581e+06
6.14331e+06
6.14018e+06
6.13641e+06
6.13199e+06
6.12693e+06
6.12121e+06
6.11484e+06
6.10781e+06
6.10013e+06
6.0918e+06
6.08281e+06
6.07319e+06
6.06292e+06
6.05203e+06
6.04051e+06
6.02839e+06
6.01566e+06
6.00234e+06
5.98844e+06
5.97397e+06
5.95895e+06
5.94339e+06
5.92729e+06
5.91067e+06
5.89354e+06
5.8759e+06
5.85777e+06
5.83915e+06
5.82006e+06
5.80052e+06
5.78052e+06
5.76008e+06
5.73921e+06
5.7179e+06
5.69618e+06
5.67404e+06
5.65148e+06
5.62851e+06
5.60511e+06
5.58129e+06
5.55705e+06
5.53239e+06
5.50733e+06
5.48187e+06
5.45605e+06
5.42986e+06
5.40333e+06
5.37648e+06
5.34931e+06
5.32184e+06
5.29408e+06
5.26602e+06
5.23768e+06
5.20906e+06
5.18017e+06
5.15099e+06
5.12154e+06
5.09181e+06
5.06181e+06
5.03153e+06
5.00098e+06
4.97015e+06
4.93904e+06
4.90765e+06
4.87599e+06
4.84406e+06
4.81186e+06
4.77941e+06
4.7467e+06
4.71374e+06
4.68056e+06
4.64716e+06
4.61355e+06
4.57975e+06
4.54575e+06
4.51158e+06
4.47722e+06
4.4427e+06
4.40801e+06
4.37315e+06
4.33814e+06
4.30295e+06
4.26761e+06
4.23211e+06
4.19645e+06
4.16063e+06
4.12465e+06
4.08852e+06
4.05222e+06
4.01576e+06
3.97916e+06
3.94242e+06
3.90556e+06
3.86858e+06
3.83148e+06
3.79426e+06
3.75693e+06
3.71947e+06
3.6819e+06
3.64422e+06
3.60643e+06
3.56853e+06
3.53052e+06
3.49242e+06
3.45421e+06
3.41591e+06
3.37752e+06
3.33904e+06
3.30048e+06
3.26184e+06
3.22311e+06
3.18432e+06
3.14545e+06
3.10651e+06
3.06751e+06
3.02846e+06
2.98934e+06
2.95018e+06
2.91096e+06
2.87171e+06
2.83241e+06
2.79308e+06
2.75371e+06
2.71432e+06
2.67491e+06
2.63548e+06
2.59604e+06
2.55659e+06
2.51713e+06
2.47768e+06
2.43824e+06
2.3988e+06
2.35938e+06
2.31999e+06
2.28062e+06
2.24129e+06
2.202e+06
2.16275e+06
2.12355e+06
2.08442e+06
2.04534e+06
2.00633e+06
1.9674e+06
1.92855e+06
1.8898e+06
1.85113e+06
1.81258e+06
1.77413e+06
1.7358e+06
1.69759e+06
1.65952e+06
1.62159e+06
1.58381e+06
1.54618e+06
1.50872e+06
1.47143e+06
1.43433e+06
1.39742e+06
1.36071e+06
1.32421e+06
1.28793e+06
1.25188e+06
1.21607e+06
1.18051e+06
1.14522e+06
1.1102e+06
1.07546e+06
1.04103e+06
1.00691e+06
973116
939665
906569
873841
841487
809505
777870
6.1711e+06
6.17039e+06
6.16903e+06
6.16703e+06
6.16436e+06
6.16102e+06
6.15701e+06
6.15232e+06
6.14695e+06
6.1409e+06
6.13417e+06
6.12676e+06
6.11868e+06
6.10993e+06
6.10051e+06
6.09044e+06
6.07972e+06
6.06837e+06
6.05638e+06
6.04378e+06
6.03058e+06
6.01678e+06
6.00241e+06
5.98747e+06
5.97198e+06
5.95595e+06
5.9394e+06
5.92233e+06
5.90475e+06
5.88669e+06
5.86814e+06
5.84911e+06
5.82963e+06
5.8097e+06
5.78933e+06
5.76854e+06
5.74733e+06
5.72571e+06
5.70368e+06
5.68125e+06
5.65841e+06
5.63515e+06
5.61148e+06
5.58739e+06
5.56288e+06
5.53795e+06
5.51262e+06
5.48689e+06
5.4608e+06
5.43435e+06
5.40757e+06
5.38048e+06
5.3531e+06
5.32542e+06
5.29747e+06
5.26924e+06
5.24074e+06
5.21197e+06
5.18293e+06
5.15362e+06
5.12404e+06
5.09419e+06
5.06407e+06
5.03368e+06
5.00302e+06
4.97209e+06
4.94089e+06
4.90941e+06
4.87766e+06
4.84564e+06
4.81335e+06
4.7808e+06
4.748e+06
4.71496e+06
4.68169e+06
4.6482e+06
4.61452e+06
4.58064e+06
4.54658e+06
4.51234e+06
4.47793e+06
4.44335e+06
4.40862e+06
4.37372e+06
4.33866e+06
4.30345e+06
4.26807e+06
4.23254e+06
4.19685e+06
4.16101e+06
4.12501e+06
4.08886e+06
4.05254e+06
4.01606e+06
3.97944e+06
3.94268e+06
3.9058e+06
3.8688e+06
3.83168e+06
3.79445e+06
3.7571e+06
3.71963e+06
3.68205e+06
3.64436e+06
3.60655e+06
3.56864e+06
3.53063e+06
3.49251e+06
3.4543e+06
3.41599e+06
3.3776e+06
3.33911e+06
3.30054e+06
3.26189e+06
3.22316e+06
3.18436e+06
3.14549e+06
3.10655e+06
3.06755e+06
3.02849e+06
2.98937e+06
2.9502e+06
2.91099e+06
2.87173e+06
2.83243e+06
2.7931e+06
2.75373e+06
2.71434e+06
2.67492e+06
2.63549e+06
2.59605e+06
2.5566e+06
2.51714e+06
2.47769e+06
2.43824e+06
2.39881e+06
2.35939e+06
2.32e+06
2.28063e+06
2.2413e+06
2.202e+06
2.16275e+06
2.12356e+06
2.08442e+06
2.04534e+06
2.00634e+06
1.9674e+06
1.92856e+06
1.8898e+06
1.85114e+06
1.81258e+06
1.77413e+06
1.7358e+06
1.69759e+06
1.65952e+06
1.62159e+06
1.58381e+06
1.54618e+06
1.50872e+06
1.47143e+06
1.43433e+06
1.39741e+06
1.3607e+06
1.3242e+06
1.28792e+06
1.25186e+06
1.21605e+06
1.18049e+06
1.14519e+06
1.11016e+06
1.07542e+06
1.04097e+06
1.00684e+06
973027
939549
906419
873645
841232
809174
777449
6.19552e+06
6.19473e+06
6.19326e+06
6.19109e+06
6.18821e+06
6.18463e+06
6.18032e+06
6.1753e+06
6.16956e+06
6.16311e+06
6.15595e+06
6.14808e+06
6.13952e+06
6.13027e+06
6.12035e+06
6.10975e+06
6.0985e+06
6.0866e+06
6.07407e+06
6.06091e+06
6.04716e+06
6.03281e+06
6.0179e+06
6.00242e+06
5.9864e+06
5.96985e+06
5.95278e+06
5.9352e+06
5.91714e+06
5.89859e+06
5.87957e+06
5.86009e+06
5.84017e+06
5.81981e+06
5.79904e+06
5.77786e+06
5.75627e+06
5.73429e+06
5.71192e+06
5.68915e+06
5.66599e+06
5.64242e+06
5.61845e+06
5.59406e+06
5.56924e+06
5.54402e+06
5.51838e+06
5.49237e+06
5.46598e+06
5.43926e+06
5.41221e+06
5.38486e+06
5.35724e+06
5.32934e+06
5.30118e+06
5.27276e+06
5.24408e+06
5.21514e+06
5.18594e+06
5.15648e+06
5.12676e+06
5.09677e+06
5.06652e+06
5.03601e+06
5.00524e+06
4.9742e+06
4.94289e+06
4.9113e+06
4.87945e+06
4.84733e+06
4.81495e+06
4.7823e+06
4.74941e+06
4.71627e+06
4.68291e+06
4.64934e+06
4.61557e+06
4.58161e+06
4.54748e+06
4.51317e+06
4.4787e+06
4.44407e+06
4.40929e+06
4.37434e+06
4.33924e+06
4.30399e+06
4.26858e+06
4.23301e+06
4.19729e+06
4.16142e+06
4.1254e+06
4.08922e+06
4.05288e+06
4.01638e+06
3.97974e+06
3.94296e+06
3.90606e+06
3.86904e+06
3.83191e+06
3.79466e+06
3.75729e+06
3.71981e+06
3.68221e+06
3.6445e+06
3.60669e+06
3.56877e+06
3.53074e+06
3.49262e+06
3.4544e+06
3.41608e+06
3.37768e+06
3.33919e+06
3.30061e+06
3.26195e+06
3.22322e+06
3.18442e+06
3.14554e+06
3.1066e+06
3.06759e+06
3.02853e+06
2.98941e+06
2.95023e+06
2.91102e+06
2.87175e+06
2.83245e+06
2.79312e+06
2.75375e+06
2.71436e+06
2.67494e+06
2.63551e+06
2.59606e+06
2.55661e+06
2.51715e+06
2.4777e+06
2.43825e+06
2.39881e+06
2.3594e+06
2.32e+06
2.28063e+06
2.2413e+06
2.20201e+06
2.16276e+06
2.12356e+06
2.08442e+06
2.04535e+06
2.00634e+06
1.96741e+06
1.92856e+06
1.8898e+06
1.85114e+06
1.81258e+06
1.77413e+06
1.7358e+06
1.69759e+06
1.65952e+06
1.62159e+06