/*--------------------------------*- C++ -*----------------------------------*\
  =========                 |
  \\      /  F ield         | OpenFOAM: The Open Source CFD Toolbox
   \\    /   O peration     | Website:  https://openfoam.org
    \\  /    A nd           | Version:  10
     \\/     M anipulation  |
\*---------------------------------------------------------------------------*/
FoamFile
{
    format      ascii;
    class       volVectorField;
    location    "2.2";
    object      Ub;
}
// * * * * * * * * * * * * * * * * * * * * * * * * * * * * * * * * * * * * * //

dimensions      [0 1 -1 0 0 0 0];

internalField   nonuniform List<vector> 
12225
(
(0.00227645 -0.000459836 0)
(0.0064994 -0.000409702 0)
(0.00998309 -0.000337247 0)
(0.0126779 -0.000264844 0)
(0.0146909 -0.000204131 0)
(0.0161825 -0.000158482 0)
(0.0173078 -0.000127118 0)
(0.0181945 -0.000107953 0)
(0.0189423 -9.90315e-05 0)
(0.0196287 -9.91686e-05 0)
(0.0203182 -0.000108285 0)
(0.0210723 -0.000127848 0)
(0.0219618 -0.00016186 0)
(0.0230875 -0.000219454 0)
(0.0246255 -0.000322459 0)
(0.0269563 -0.00053234 0)
(0.0311698 -0.0010779 0)
(0.0419266 -0.00321356 0)
(0.00241306 -0.00144189 0)
(0.00688108 -0.00128278 0)
(0.0105494 -0.00105366 0)
(0.0133695 -0.000825416 0)
(0.0154616 -0.000634541 0)
(0.0170007 -0.000491362 0)
(0.0181537 -0.000393192 0)
(0.0190571 -0.000333307 0)
(0.0198158 -0.000305467 0)
(0.0205111 -0.000305863 0)
(0.0212099 -0.000334138 0)
(0.021975 -0.000394682 0)
(0.0228777 -0.000499567 0)
(0.024016 -0.000676054 0)
(0.0255527 -0.000987772 0)
(0.0277994 -0.00160443 0)
(0.0313892 -0.00308444 0)
(0.0368502 -0.00782048 0)
(0.00251891 -0.00254823 0)
(0.00717083 -0.00226154 0)
(0.0109653 -0.00185125 0)
(0.0138591 -0.00144472 0)
(0.0159879 -0.00110635 0)
(0.0175415 -0.000853561 0)
(0.0186971 -0.000680811 0)
(0.019597 -0.000575705 0)
(0.0203498 -0.000526891 0)
(0.0210382 -0.000527376 0)
(0.021729 -0.000576178 0)
(0.0224836 -0.000680353 0)
(0.0233687 -0.000859561 0)
(0.0244702 -0.00115737 0)
(0.0259152 -0.00167091 0)
(0.0278931 -0.00263625 0)
(0.0305739 -0.00469444 0)
(0.0331165 -0.00968363 0)
(0.00262726 -0.0037852 0)
(0.0074614 -0.00334832 0)
(0.0113682 -0.0027284 0)
(0.0143145 -0.00211894 0)
(0.0164578 -0.0016151 0)
(0.0180059 -0.00124076 0)
(0.0191471 -0.000986096 0)
(0.0200297 -0.000831642 0)
(0.0207645 -0.000759916 0)
(0.021434 -0.00076002 0)
(0.0221038 -0.000829745 0)
(0.0228312 -0.000978053 0)
(0.0236746 -0.00123056 0)
(0.0247012 -0.00164245 0)
(0.0259907 -0.0023292 0)
(0.0276088 -0.00353981 0)
(0.029431 -0.00581789 0)
(0.0304203 -0.0101866 0)
(0.00275193 -0.00517083 0)
(0.00778942 -0.00455383 0)
(0.0118085 -0.00368845 0)
(0.014793 -0.00284676 0)
(0.0169311 -0.00215733 0)
(0.0184545 -0.00164896 0)
(0.0195647 -0.00130512 0)
(0.0204158 -0.00109742 0)
(0.0211199 -0.0010009 0)
(0.0217587 -0.000999808 0)
(0.0223944 -0.00108983 0)
(0.0230784 -0.00128053 0)
(0.023858 -0.00160082 0)
(0.0247779 -0.00211092 0)
(0.0258704 -0.00292727 0)
(0.0271064 -0.00426837 0)
(0.0282328 -0.00650778 0)
(0.0284095 -0.0100587 0)
(0.00290429 -0.00673232 0)
(0.00818329 -0.005894 0)
(0.0123214 -0.00473621 0)
(0.0153302 -0.00362629 0)
(0.0174416 -0.00272826 0)
(0.0189185 -0.00207261 0)
(0.0199787 -0.00163254 0)
(0.0207823 -0.00136805 0)
(0.021442 -0.00124502 0)
(0.022037 -0.0012416 0)
(0.022625 -0.00135019 0)
(0.0232498 -0.00157925 0)
(0.0239458 -0.00195758 0)
(0.0247351 -0.00254326 0)
(0.0256108 -0.00343885 0)
(0.0264879 -0.00480821 0)
(0.0270956 -0.00685932 0)
(0.0268569 -0.00965691 0)
(0.00309745 -0.00850815 0)
(0.00867403 -0.00738989 0)
(0.012942 -0.00587671 0)
(0.0159577 -0.0044535 0)
(0.0180156 -0.00332039 0)
(0.0194198 -0.00250365 0)
(0.0204076 -0.00196082 0)
(0.0211452 -0.00163672 0)
(0.0217448 -0.00148584 0)
(0.0222819 -0.00147877 0)
(0.022808 -0.00160318 0)
(0.0233584 -0.00186441 0)
(0.0239544 -0.00228763 0)
(0.0245984 -0.00292246 0)
(0.0252566 -0.00384794 0)
(0.0258224 -0.00516801 0)
(0.0260636 -0.00696531 0)
(0.0256216 -0.00914757 0)
(0.00334911 -0.0105526 0)
(0.00930158 -0.00906857 0)
(0.0137117 -0.00711371 0)
(0.0167094 -0.00532036 0)
(0.0186784 -0.00392187 0)
(0.0199767 -0.00293028 0)
(0.0208649 -0.00227943 0)
(0.0215149 -0.00189419 0)
(0.0220369 -0.00171494 0)
(0.0225009 -0.00170297 0)
(0.0229511 -0.00183972 0)
(0.0234135 -0.00212531 0)
(0.0238973 -0.0025782 0)
(0.0243901 -0.00323511 0)
(0.0248439 -0.00414805 0)
(0.0251545 -0.00536852 0)
(0.0251466 -0.00690025 0)
(0.0246139 -0.00860425 0)
(0.00368523 -0.0129439 0)
(0.010122 -0.0109641 0)
(0.0146841 -0.00844724 0)
(0.0176248 -0.00621187 0)
(0.0194561 -0.00451433 0)
(0.0206062 -0.00333547 0)
(0.0213617 -0.00257391 0)
(0.0218991 -0.00212824 0)
(0.0223239 -0.00192157 0)
(0.0226989 -0.00190405 0)
(0.0230595 -0.00204938 0)
(0.0234225 -0.00235078 0)
(0.0237868 -0.0028177 0)
(0.0241303 -0.00347203 0)
(0.0244015 -0.00434017 0)
(0.0245114 -0.00543462 0)
(0.024339 -0.00671822 0)
(0.0237746 -0.00805728 0)
(0.00414619 -0.0157979 0)
(0.0112182 -0.0131178 0)
(0.0159323 -0.00986868 0)
(0.0187524 -0.00710141 0)
(0.0203774 -0.00506964 0)
(0.0213243 -0.00369509 0)
(0.021907 -0.00282475 0)
(0.0223029 -0.00232307 0)
(0.0226094 -0.00209237 0)
(0.0228791 -0.00206999 0)
(0.0231376 -0.00222071 0)
(0.0233924 -0.00252965 0)
(0.0236345 -0.00299629 0)
(0.0238366 -0.00362797 0)
(0.0239506 -0.00443012 0)
(0.0239073 -0.00539029 0)
(0.0236292 -0.00645601 0)
(0.0230632 -0.00751747 0)
(0.00479814 -0.0192924 0)
(0.0127189 -0.0155769 0)
(0.0175576 -0.0113513 0)
(0.020152 -0.00794306 0)
(0.0214726 -0.00554535 0)
(0.0221449 -0.00397545 0)
(0.0225067 -0.00300621 0)
(0.0227286 -0.00245875 0)
(0.0228944 -0.00221124 0)
(0.023043 -0.00218704 0)
(0.0231887 -0.00234147 0)
(0.0233296 -0.00265125 0)
(0.0234507 -0.00310615 0)
(0.0235233 -0.00370101 0)
(0.0235059 -0.00442622 0)
(0.0233482 -0.00525611 0)
(0.0230036 -0.0061375 0)
(0.0224504 -0.00698702 0)
(0.00568466 -0.0232899 0)
(0.0146781 -0.0181402 0)
(0.0195524 -0.0127205 0)
(0.0217777 -0.0086166 0)
(0.0226889 -0.00586582 0)
(0.0230234 -0.00412953 0)
(0.0231286 -0.00308784 0)
(0.023157 -0.00251383 0)
(0.0231716 -0.00226145 0)
(0.0231945 -0.00224106 0)
(0.0232277 -0.00239961 0)
(0.0232609 -0.00270667 0)
(0.0232742 -0.00314422 0)
(0.0232396 -0.00369816 0)
(0.0231222 -0.00434999 0)
(0.0228859 -0.00506908 0)
(0.0225027 -0.00580772 0)
(0.0219654 -0.00650396 0)
(0.00693093 -0.0284187 0)
(0.0173027 -0.0209776 0)
(0.0220298 -0.0139566 0)
(0.0236653 -0.00906479 0)
(0.0240221 -0.00598053 0)
(0.0239378 -0.00412023 0)
(0.0237429 -0.00304368 0)
(0.0235545 -0.00247037 0)
(0.0234054 -0.00223071 0)
(0.0232967 -0.0022239 0)
(0.0232161 -0.00239033 0)
(0.0231446 -0.00269416 0)
(0.0230586 -0.00311181 0)
(0.0229309 -0.00362351 0)
(0.0227331 -0.00420654 0)
(0.0224394 -0.00483027 0)
(0.022034 -0.00545466 0)
(0.0215171 -0.00603423 0)
(0.00918114 -0.0364343 0)
(0.0217397 -0.0244616 0)
(0.0257973 -0.0149749 0)
(0.0262999 -0.00913496 0)
(0.0257646 -0.0057616 0)
(0.0250725 -0.00385365 0)
(0.0244717 -0.00280662 0)
(0.024004 -0.00228033 0)
(0.0236523 -0.00208423 0)
(0.0233863 -0.00210994 0)
(0.0231747 -0.00229411 0)
(0.0229884 -0.00259784 0)
(0.0227992 -0.00299431 0)
(0.022581 -0.00346091 0)
(0.0223106 -0.00397399 0)
(0.0219703 -0.00450611 0)
(0.0215517 -0.00502615 0)
(0.021058 -0.00550266 0)
(0.0137807 -0.0504398 0)
(0.0299747 -0.0280128 0)
(0.031704 -0.0148891 0)
(0.0299374 -0.00822745 0)
(0.0279587 -0.0048464 0)
(0.026405 -0.0031079 0)
(0.0252769 -0.00223379 0)
(0.0244678 -0.00184557 0)
(0.0238792 -0.00174993 0)
(0.023436 -0.00184274 0)
(0.0230831 -0.00206453 0)
(0.0227783 -0.0023785 0)
(0.0224887 -0.00275878 0)
(0.022188 -0.00318374 0)
(0.0218564 -0.00363235 0)
(0.0214811 -0.00408275 0)
(0.0210573 -0.00451284 0)
(0.0205881 -0.00490246 0)
(0.0249453 -0.0794755 0)
(0.0473042 -0.0275108 0)
(0.0409322 -0.0111166 0)
(0.0345847 -0.00510999 0)
(0.0304053 -0.00263404 0)
(0.0277479 -0.00156283 0)
(0.0260148 -0.00113629 0)
(0.0248403 -0.00104334 0)
(0.0240093 -0.001141 0)
(0.0233914 -0.00135664 0)
(0.0229035 -0.00164939 0)
(0.02249 -0.00199368 0)
(0.0221122 -0.00237089 0)
(0.0217428 -0.00276519 0)
(0.0213639 -0.00316161 0)
(0.0209648 -0.0035456 0)
(0.0205417 -0.00390362 0)
(0.0200966 -0.00422432 0)
(0.0592137 0.000538117 0)
(0.0905392 0.00300276 0)
(0.0528692 0.00252929 0)
(0.0387714 0.00196485 0)
(0.0321927 0.00148491 0)
(0.0285944 0.00105032 0)
(0.0264017 0.000633935 0)
(0.024958 0.000223829 0)
(0.0239452 -0.000184765 0)
(0.0231909 -0.000592281 0)
(0.0225922 -0.000996957 0)
(0.0220861 -0.0013989 0)
(0.021633 -0.0017937 0)
(0.0212069 -0.00217594 0)
(0.0207912 -0.00253946 0)
(0.0203765 -0.00287794 0)
(0.0199588 -0.00318559 0)
(0.0195379 -0.00345789 0)
(0.0204983 0.0761337 0)
(0.0405125 0.0319576 0)
(0.037357 0.0163341 0)
(0.0325581 0.00958073 0)
(0.0289709 0.00612269 0)
(0.0265201 0.00408671 0)
(0.0248395 0.00274192 0)
(0.0236508 0.00176633 0)
(0.0227745 0.00100397 0)
(0.0220977 0.000374567 0)
(0.0215493 -0.000165397 0)
(0.0210812 -0.000640927 0)
(0.0206598 -0.00106626 0)
(0.0202647 -0.0014511 0)
(0.0198843 -0.00179867 0)
(0.0195118 -0.00211032 0)
(0.0191441 -0.00238664 0)
(0.0187806 -0.00262814 0)
(0.0078237 0.0403808 0)
(0.0187338 0.0278854 0)
(0.0226202 0.0185157 0)
(0.02338 0.012498 0)
(0.023052 0.00864898 0)
(0.0224401 0.00609831 0)
(0.0218198 0.00432761 0)
(0.0212674 0.00303866 0)
(0.0207901 0.00205811 0)
(0.0203749 0.00128286 0)
(0.0200049 0.000650052 0)
(0.0196668 0.000122837 0)
(0.019351 -0.000324609 0)
(0.0190486 -0.000708162 0)
(0.018753 -0.00104149 0)
(0.0184613 -0.0013317 0)
(0.0181726 -0.0015837 0)
(0.017887 -0.00180137 0)
(0.00425228 0.024506 0)
(0.0111748 0.0202585 0)
(0.0152727 0.015602 0)
(0.0173972 0.0117174 0)
(0.0184043 0.00874201 0)
(0.0188286 0.0065152 0)
(0.0189585 0.00484359 0)
(0.0189397 0.0035699 0)
(0.0188441 0.00258001 0)
(0.0187065 0.00179438 0)
(0.0185434 0.00115836 0)
(0.0183633 0.00063442 0)
(0.0181704 0.000196631 0)
(0.017969 -0.000170281 0)
(0.0177611 -0.000480342 0)
(0.017547 -0.000745802 0)
(0.0173284 -0.000973467 0)
(0.0171075 -0.00116858 0)
(0.00292491 0.017278 0)
(0.00803189 0.0151952 0)
(0.0116617 0.0124964 0)
(0.0140174 0.00992379 0)
(0.0154794 0.00774214 0)
(0.0163655 0.0059809 0)
(0.016891 0.00458428 0)
(0.0171901 0.00347887 0)
(0.0173437 0.00259828 0)
(0.0174008 0.00188935 0)
(0.0173912 0.00131174 0)
(0.0173338 0.000835551 0)
(0.0172412 0.000438806 0)
(0.017122 0.000105421 0)
(0.016984 -0.000173787 0)
(0.016832 -0.000410007 0)
(0.0166689 -0.000611674 0)
(0.016498 -0.000784001 0)
(0.0022672 0.0127416 0)
(0.0063717 0.011546 0)
(0.00956734 0.00985024 0)
(0.0118819 0.00809739 0)
(0.0134948 0.00650859 0)
(0.0145967 0.00515673 0)
(0.0153398 0.00404075 0)
(0.0158334 0.00313078 0)
(0.0161519 0.00239038 0)
(0.0163458 0.00178581 0)
(0.016449 0.00128892 0)
(0.0164851 0.000877396 0)
(0.0164707 0.000533966 0)
(0.016418 0.000245391 0)
(0.0163365 2.10039e-06 0)
(0.0162336 -0.000202045 0)
(0.0161145 -0.000375596 0)
(0.0159833 -0.000523776 0)
(0.0018955 0.00958177 0)
(0.00539733 0.00882624 0)
(0.00826668 0.00769671 0)
(0.0104793 0.00646833 0)
(0.0121249 0.00530476 0)
(0.0133232 0.00427818 0)
(0.0141837 0.00340597 0)
(0.0147935 0.00267883 0)
(0.0152178 0.00207735 0)
(0.015504 0.00158035 0)
(0.0156866 0.00116857 0)
(0.0157906 0.00082577 0)
(0.0158344 0.000538835 0)
(0.015832 0.000297369 0)
(0.015794 9.32059e-05 0)
(0.0157291 -7.87447e-05 0)
(0.015644 -0.000223976 0)
(0.0155433 -0.000348001 0)
(0.00166556 0.00723131 0)
(0.00478011 0.00672675 0)
(0.0074119 0.00594718 0)
(0.00952097 0.00507112 0)
(0.0111539 0.00421647 0)
(0.0123904 0.00344335 0)
(0.0133123 0.00277296 0)
(0.0139902 0.00220498 0)
(0.0144809 0.00172929 0)
(0.0148282 0.00133259 0)
(0.0150651 0.0010017 0)
(0.015217 0.00072495 0)
(0.0153029 0.000492583 0)
(0.0153375 0.000296645 0)
(0.0153322 0.00013076 0)
(0.0152963 -9.86731e-06 0)
(0.015237 -0.000128093 0)
(0.0151597 -0.000229032 0)
(0.00151337 0.00540588 0)
(0.00436489 0.00506003 0)
(0.00682163 0.00451392 0)
(0.0088395 0.0038868 0)
(0.0104429 0.00326271 0)
(0.0116883 0.00268835 0)
(0.0126395 0.00218312 0)
(0.0133558 0.00175009 0)
(0.013887 0.0013841 0)
(0.0142734 0.00107673 0)
(0.0145468 0.000818999 0)
(0.0147317 0.000602605 0)
(0.0148473 0.0004204 0)
(0.0149087 0.000266447 0)
(0.0149276 0.000135906 0)
(0.0149132 2.48636e-05 0)
(0.0148733 -6.86256e-05 0)
(0.0148139 -0.000148225 0)
(0.00140651 0.0039467 0)
(0.00406971 0.00370935 0)
(0.0063932 0.00332893 0)
(0.0083326 0.00288571 0)
(0.00990036 0.00243866 0)
(0.0111388 0.00202233 0)
(0.0121002 0.00165244 0)
(0.0128356 0.00133279 0)
(0.01339 0.00106083 0)
(0.0138005 0.000831238 0)
(0.0140974 0.000637935 0)
(0.0143046 0.000475129 0)
(0.0144409 0.000337714 0)
(0.0145214 0.000221389 0)
(0.0145579 0.000122604 0)
(0.0145597 3.84637e-05 0)
(0.0145347 -3.27558e-05 0)
(0.0144889 -9.31209e-05 0)
(0.00132652 0.00275779 0)
(0.00384633 0.00259911 0)
(0.00606288 0.00234212 0)
(0.0079328 0.00203977 0)
(0.00946183 0.00173204 0)
(0.0106836 0.00144314 0)
(0.0116426 0.00118468 0)
(0.0123843 0.000960037 0)
(0.0129497 0.000767995 0)
(0.0133736 0.000605238 0)
(0.0136849 0.000467781 0)
(0.0139064 0.000351718 0)
(0.0140569 0.000253558 0)
(0.0141509 0.000170322 0)
(0.0142003 9.95365e-05 0)
(0.0142143 3.91706e-05 0)
(0.0142007 -1.21722e-05 0)
(0.0141656 -5.54796e-05 0)
(0.00126116 0.00177767 0)
(0.00366187 0.00167858 0)
(0.00578514 0.0015169 0)
(0.00758902 0.00132545 0)
(0.00907547 0.00112941 0)
(0.0102725 0.000944372 0)
(0.0112196 0.000778048 0)
(0.0119578 0.000632895 0)
(0.0125252 0.000508383 0)
(0.0129545 0.000402555 0)
(0.0132732 0.00031296 0)
(0.0135034 0.000237155 0)
(0.0136631 0.00017293 0)
(0.0137666 0.000118386 0)
(0.0138254 7.19374e-05 0)
(0.0138488 3.22758e-05 0)
(0.0138443 -1.60929e-06 0)
(0.0138179 -3.0018e-05 0)
(0.00119945 0.000965948 0)
(0.00348593 0.000913324 0)
(0.00551545 0.000826996 0)
(0.00724784 0.000724339 0)
(0.00868298 0.000618809 0)
(0.0098452 0.000518846 0)
(0.01077 0.000428705 0)
(0.0114952 0.000349817 0)
(0.0120563 0.000281979 0)
(0.012484 0.000224194 0)
(0.0128043 0.000175178 0)
(0.0130385 0.000133636 0)
(0.0132036 9.83841e-05 0)
(0.0133136 6.84035e-05 0)
(0.0133796 4.28377e-05 0)
(0.0134105 2.09786e-05 0)
(0.0134136 2.24222e-06 0)
(0.0133949 -1.33496e-05 0)
(0.00111947 0.000299084 0)
(0.00325555 0.000283015 0)
(0.00515633 0.00025657 0)
(0.00678426 0.000225049 0)
(0.00813812 0.000192575 0)
(0.00923924 0.000161753 0)
(0.0101195 0.000133908 0)
(0.0108133 0.000109498 0)
(0.0113531 8.84758e-05 0)
(0.0117672 7.05436e-05 0)
(0.0120799 5.53131e-05 0)
(0.0123107 4.2389e-05 0)
(0.0124758 3.14097e-05 0)
(0.0125881 2.20619e-05 0)
(0.0126583 1.40822e-05 0)
(0.0126946 7.25237e-06 0)
(0.0127039 1.39124e-06 0)
(0.0126923 -3.45335e-06 0)
(7.77428e-05 -0.000193884 -2.50498e-30)
(0.000233949 -0.000193704 2.5008e-30)
(0.00039134 -0.000193414 0)
(0.000549863 -0.000193007 0)
(0.000709452 -0.000192474 0)
(0.000870035 -0.000191808 -2.46879e-30)
(0.00103154 -0.000191007 0)
(0.00119389 -0.000190071 0)
(0.00135703 -0.000189004 0)
(0.0015209 -0.000187816 0)
(0.00168549 -0.000186525 2.39088e-30)
(0.00185078 -0.000185156 0)
(0.00201683 -0.000183743 0)
(0.00218374 -0.000182333 0)
(0.00235168 -0.000180986 0)
(0.00252093 -0.000179774 2.29376e-30)
(0.00269185 -0.000178777 0)
(0.00286494 -0.000178083 0)
(0.00304083 -0.00017778 0)
(0.00322028 -0.000177948 0)
(0.00340416 -0.000178662 0)
(0.00359347 -0.000179985 0)
(0.00378929 -0.000181972 0)
(0.00399276 -0.000184665 2.33961e-30)
(0.00420504 -0.000188085 -2.38131e-30)
(0.00442721 -0.000192228 2.43222e-30)
(0.00466019 -0.000197056 2.49188e-30)
(0.00490463 -0.000202503 0)
(0.00516083 -0.00020848 0)
(0.00542871 -0.000214901 -2.71344e-30)
(0.00570788 -0.00022172 -2.79828e-30)
(0.00599787 -0.000228978 0)
(0.00629833 -0.000236848 0)
(0.00660941 -0.000245661 -3.09707e-30)
(0.00693203 -0.000255933 0)
(0.00726812 -0.000268375 0)
(0.00762084 -0.000283933 3.57978e-30)
(0.00799485 -0.000303852 0)
(0.00839667 -0.000329819 4.16369e-30)
(0.00883515 -0.00036417 9.20498e-30)
(0.00932213 -0.000410205 0)
(0.00987281 -0.00047255 0)
(0.0105041 -0.000557332 0)
(0.0112215 -0.000671048 0)
(0.0119182 -0.000812937 0)
(0.00923209 -0.000912681 2.33743e-29)
(0.00311472 -1.31508e-05 2.66405e-31)
(1.53092e-07 -6.99122e-11 -1.80719e-36)
(4.95681e-29 -1.82866e-32 0)
(1.00017e-31 3.07777e-33 8.19198e-59)
(9.59353e-32 2.3898e-33 0)
(9.26413e-32 1.92135e-33 -5.18529e-59)
(8.98907e-32 1.59261e-33 -4.32902e-59)
(8.75275e-32 1.35324e-33 0)
(8.54507e-32 1.17234e-33 0)
(8.35932e-32 1.03093e-33 0)
(8.19092e-32 9.1709e-34 -2.564e-59)
(8.03663e-32 8.23085e-34 0)
(7.89411e-32 7.43715e-34 0)
(7.76161e-32 6.75363e-34 0)
(7.63783e-32 6.15454e-34 0)
(7.52175e-32 5.6213e-34 0)
(7.4126e-32 5.14046e-34 0)
(7.30975e-32 4.70222e-34 0)
(7.21269e-32 4.29948e-34 0)
(7.12101e-32 3.92701e-34 1.18323e-59)
(7.03435e-32 3.58094e-34 0)
(6.95239e-32 3.25833e-34 0)
(6.87485e-32 2.95689e-34 -9.26646e-60)
(6.80148e-32 2.67475e-34 -8.51986e-60)
(6.73205e-32 2.41038e-34 0)
(6.66633e-32 2.16243e-34 7.16362e-60)
(6.60414e-32 1.92976e-34 -6.5475e-60)
(6.54527e-32 1.7113e-34 0)
(6.48956e-32 1.5061e-34 5.42532e-60)
(6.43684e-32 1.31329e-34 0)
(6.38696e-32 1.13206e-34 0)
(6.33976e-32 9.61685e-35 -3.98266e-60)
(6.29511e-32 8.01468e-35 0)
(6.25288e-32 6.50778e-35 3.15848e-60)
(6.21294e-32 5.09027e-35 0)
(6.17518e-32 3.7567e-35 -2.42901e-60)
(6.13949e-32 2.502e-35 -2.09624e-60)
(6.10577e-32 1.32148e-35 -1.78312e-60)
(6.0739e-32 2.10741e-36 -2.97695e-60)
(6.04381e-32 -8.3428e-36 2.4225e-60)
(6.0154e-32 -1.8174e-35 0)
(5.98859e-32 -2.74217e-35 0)
(5.96329e-32 -3.61193e-35 0)
(5.93943e-32 -4.4298e-35 5.14351e-61)
(5.91694e-32 -5.19871e-35 1.06227e-61)
(5.89574e-32 -5.92141e-35 2.77421e-61)
(5.87577e-32 -6.60051e-35 0)
(5.85697e-32 -7.23843e-35 -9.76619e-61)
(5.83927e-32 -7.8375e-35 -1.29466e-60)
(5.82262e-32 -8.39987e-35 -1.59326e-60)
(5.80696e-32 -8.92762e-35 0)
(5.79224e-32 -9.42269e-35 0)
(5.77841e-32 -9.88691e-35 0)
(5.76542e-32 -1.0322e-34 -2.61401e-60)
(5.75323e-32 -1.07297e-34 0)
(5.7418e-32 -1.11115e-34 0)
(5.73108e-32 -1.14689e-34 3.22316e-60)
(5.72103e-32 -1.18033e-34 0)
(5.71161e-32 -1.2116e-34 0)
(5.7028e-32 -1.24083e-34 3.72215e-60)
(5.69455e-32 -1.26814e-34 0)
(5.68684e-32 -1.29364e-34 0)
(5.67963e-32 -1.31744e-34 -4.12917e-60)
(5.6729e-32 -1.33964e-34 -4.24713e-60)
(5.66661e-32 -1.36034e-34 0)
(5.66074e-32 -1.37963e-34 4.45958e-60)
(5.65527e-32 -1.39759e-34 0)
(5.65017e-32 -1.41431e-34 -4.64389e-60)
(5.64542e-32 -1.42986e-34 0)
(5.64099e-32 -1.44432e-34 -4.80337e-60)
(5.63688e-32 -1.45776e-34 -4.8748e-60)
(5.63305e-32 -1.47024e-34 0)
(5.62949e-32 -1.48181e-34 0)
(5.62619e-32 -1.49255e-34 0)
(5.62312e-32 -1.50251e-34 0)
(5.62028e-32 -1.51173e-34 0)
(5.61764e-32 -1.52026e-34 0)
(5.6152e-32 -1.52816e-34 0)
(5.61294e-32 -1.53546e-34 -5.28779e-60)
(5.61084e-32 -1.54221e-34 5.32368e-60)
(5.60891e-32 -1.54844e-34 0)
(5.60712e-32 -1.55418e-34 0)
(5.60547e-32 -1.55948e-34 0)
(5.60394e-32 -1.56437e-34 0)
(5.60254e-32 -1.56886e-34 1.09308e-59)
(5.60124e-32 -1.573e-34 0)
(5.60005e-32 -1.5768e-34 -1.10152e-59)
(5.59895e-32 -1.58029e-34 1.10523e-59)
(5.59794e-32 -1.5835e-34 0)
(5.59701e-32 -1.58644e-34 0)
(5.59616e-32 -1.58913e-34 0)
(5.59538e-32 -1.59159e-34 -1.11725e-59)
(5.59466e-32 -1.59384e-34 -1.11965e-59)
(5.594e-32 -1.5959e-34 0)
(5.59339e-32 -1.59777e-34 -1.12383e-59)
(5.59283e-32 -1.59947e-34 -1.12565e-59)
(5.59233e-32 -1.60101e-34 1.12729e-59)
(5.59186e-32 -1.60241e-34 0)
(5.59143e-32 -1.60366e-34 0)
(5.59103e-32 -1.60479e-34 1.13131e-59)
(5.59067e-32 -1.60579e-34 0)
(5.59033e-32 -1.60666e-34 0)
(5.59002e-32 -1.60742e-34 0)
(5.58973e-32 -1.60807e-34 0)
(5.58945e-32 -1.60859e-34 -1.13539e-59)
(5.58919e-32 -1.60899e-34 -1.13583e-59)
(5.58894e-32 -1.60926e-34 0)
(5.58869e-32 -1.60939e-34 -1.13629e-59)
(5.58844e-32 -1.60937e-34 0)
(5.58819e-32 -1.60916e-34 0)
(5.58792e-32 -1.60874e-34 -1.13569e-59)
(5.58763e-32 -1.60808e-34 0)
(5.58731e-32 -1.60711e-34 -1.13406e-59)
(5.58694e-32 -1.60577e-34 0)
(5.58651e-32 -1.60398e-34 0)
(5.586e-32 -1.60161e-34 -1.12849e-59)
(5.58538e-32 -1.59851e-34 0)
(5.58461e-32 -1.59448e-34 -1.12126e-59)
(5.58366e-32 -1.58926e-34 0)
(5.58247e-32 -1.58251e-34 0)
(5.58096e-32 -1.57375e-34 0)
(5.57904e-32 -1.56235e-34 1.08856e-59)
(5.57656e-32 -1.54743e-34 0)
(5.57337e-32 -1.52779e-34 -1.05337e-59)
(5.5692e-32 -1.50168e-34 0)
(5.56373e-32 -1.46652e-34 0)
(5.55647e-32 -1.4184e-34 0)
(5.5467e-32 -1.35103e-34 0)
(5.53333e-32 -1.25366e-34 0)
(5.51457e-32 -1.10638e-34 0)
(5.48724e-32 -8.67569e-35 0)
(5.44491e-32 -4.33967e-35 -1.3098e-60)
(5.37131e-32 5.2543e-35 0)
(5.20822e-32 3.5338e-34 0)
(0.0001046 -0.000618842 7.99461e-30)
(0.000314747 -0.00061838 -7.9812e-30)
(0.000526469 -0.000617584 0)
(0.000739692 -0.000616441 1.58997e-29)
(0.00095434 -0.000614929 0)
(0.00117035 -0.000613056 -7.90975e-30)
(0.0013877 -0.000610844 -1.57244e-29)
(0.00160642 -0.000608328 -1.5649e-29)
(0.00182659 -0.000605544 0)
(0.00204831 -0.000602536 -1.54785e-29)
(0.00227173 -0.000599353 7.71964e-30)
(0.00249697 -0.000596049 0)
(0.00272416 -0.000592692 0)
(0.00295336 -0.000589361 0)
(0.00318463 -0.000586149 0)
(0.00341789 -0.000583167 7.4969e-30)
(0.00365303 -0.000580537 0)
(0.0038898 -0.000578393 1.47674e-29)
(0.0041279 -0.000576877 0)
(0.00436697 -0.000576131 0)
(0.00460662 -0.000576297 -1.46794e-29)
(0.00484648 -0.00057751 0)
(0.0050862 -0.000579898 1.47498e-29)
(0.00532547 -0.000583577 7.47969e-30)
(0.00556405 -0.000588649 -7.54242e-30)
(0.00580181 -0.000595192 7.62419e-30)
(0.00603874 -0.000603259 7.72565e-30)
(0.00627505 -0.000612877 0)
(0.00651118 -0.000624068 0)
(0.00674784 -0.00063689 -8.15194e-30)
(0.00698603 -0.000651498 -2.48489e-29)
(0.00722709 -0.00066823 0)
(0.00747265 -0.000687685 0)
(0.00772469 -0.000710801 -9.09569e-30)
(0.00798557 -0.000738923 0)
(0.00825807 -0.000773881 0)
(0.00854562 -0.000818119 1.04731e-29)
(0.00885244 -0.000874912 0)
(0.0091839 -0.000948739 3.62444e-29)
(0.00954694 -0.00104589 2.68101e-29)
(0.0099507 -0.00117542 0)
(0.0104075 -0.00135074 0)
(0.0109344 -0.0015921 -8.12768e-29)
(0.0115561 -0.00193018 -9.86963e-29)
(0.0122962 -0.00240816 -1.23338e-28)
(0.0128955 -0.00302853 2.33335e-28)
(0.00658071 -0.0025406 6.55176e-29)
(3.28133e-05 -1.30761e-07 -1.05598e-33)
(1.27269e-17 -1.7436e-20 -3.00468e-46)
(9.75653e-32 8.89018e-33 2.32109e-58)
(9.43038e-32 7.04698e-33 0)
(9.15266e-32 5.80799e-33 -1.52294e-58)
(8.91036e-32 4.92502e-33 -3.92444e-58)
(8.69506e-32 4.2694e-33 0)
(8.50124e-32 3.76466e-33 0)
(8.32493e-32 3.36398e-33 0)
(8.16317e-32 3.03755e-33 -8.04459e-59)
(8.0137e-32 2.76558e-33 0)
(7.87476e-32 2.53438e-33 -1.38461e-58)
(7.74496e-32 2.33419e-33 0)
(7.62326e-32 2.15793e-33 -1.18761e-58)
(7.50882e-32 2.00045e-33 0)
(7.40098e-32 1.858e-33 1.03046e-58)
(7.29921e-32 1.72784e-33 0)
(7.20307e-32 1.60797e-33 -8.99326e-59)
(7.11217e-32 1.49695e-33 1.24481e-58)
(7.02619e-32 1.39368e-33 0)
(6.94484e-32 1.29733e-33 7.36285e-59)
(6.86785e-32 1.20724e-33 -3.28279e-59)
(6.79498e-32 1.12289e-33 -3.06304e-59)
(6.72601e-32 1.04383e-33 0)
(6.66072e-32 9.69673e-34 8.3059e-59)
(6.59891e-32 9.00067e-34 -2.48241e-59)
(6.54041e-32 8.34706e-34 0)
(6.48503e-32 7.73306e-34 2.15206e-59)
(6.43262e-32 7.15608e-34 4.30708e-59)
(6.38302e-32 6.61374e-34 0)
(6.33609e-32 6.10381e-34 -1.72739e-59)
(6.29169e-32 5.62427e-34 0)
(6.24969e-32 5.17321e-34 -1.77989e-59)
(6.20996e-32 4.74888e-34 0)
(6.17241e-32 4.34965e-34 1.56153e-59)
(6.1369e-32 3.97402e-34 -1.17215e-59)
(6.10335e-32 3.62057e-34 -3.52816e-59)
(6.07165e-32 3.288e-34 -6.53304e-59)
(6.04171e-32 2.9751e-34 6.04067e-59)
(6.01345e-32 2.68072e-34 0)
(5.98676e-32 2.40379e-34 0)
(5.96159e-32 2.14334e-34 0)
(5.93785e-32 1.89841e-34 -1.82258e-59)
(5.91546e-32 1.66814e-34 1.14173e-59)
(5.89436e-32 1.4517e-34 -1.02884e-59)
(5.87449e-32 1.24832e-34 0)
(5.85577e-32 1.05726e-34 3.02228e-59)
(5.83816e-32 8.77841e-35 7.29504e-60)
(5.82158e-32 7.09403e-35 6.41641e-60)
(5.80599e-32 5.51334e-35 0)
(5.79134e-32 4.03052e-35 0)
(5.77758e-32 2.64006e-35 0)
(5.76465e-32 1.33674e-35 3.41308e-60)
(5.75252e-32 1.15629e-36 0)
(5.74113e-32 -1.02796e-35 9.7806e-60)
(5.73046e-32 -2.09846e-35 7.03264e-60)
(5.72045e-32 -3.10008e-35 -7.59907e-60)
(5.71108e-32 -4.03679e-35 0)
(5.70231e-32 -4.91239e-35 -5.8438e-60)
(5.6941e-32 -5.73044e-35 0)
(5.68642e-32 -6.49434e-35 -4.02521e-60)
(5.67924e-32 -7.2073e-35 2.23e-60)
(5.67254e-32 -7.87237e-35 1.18272e-60)
(5.66628e-32 -8.49244e-35 0)
(5.66043e-32 -9.07022e-35 3.32912e-60)
(5.65499e-32 -9.60832e-35 -7.46019e-61)
(5.64991e-32 -1.01092e-34 -2.55851e-60)
(5.64518e-32 -1.05751e-34 0)
(5.64077e-32 -1.10082e-34 -3.02762e-60)
(5.63667e-32 -1.14107e-34 -2.08551e-60)
(5.63286e-32 -1.17845e-34 0)
(5.62932e-32 -1.21313e-34 1.91115e-60)
(5.62603e-32 -1.2453e-34 2.24998e-60)
(5.62298e-32 -1.27512e-34 2.56407e-60)
(5.62014e-32 -1.30274e-34 0)
(5.61752e-32 -1.32832e-34 0)
(5.61508e-32 -1.35197e-34 0)
(5.61283e-32 -1.37385e-34 -8.05634e-60)
(5.61075e-32 -1.39406e-34 4.5578e-60)
(5.60882e-32 -1.41272e-34 0)
(5.60704e-32 -1.42994e-34 -4.19492e-60)
(5.6054e-32 -1.44581e-34 -4.36216e-60)
(5.60388e-32 -1.46044e-34 0)
(5.60248e-32 -1.47391e-34 9.94903e-60)
(5.60119e-32 -1.4863e-34 -9.57747e-60)
(5.6e-32 -1.49769e-34 -1.01973e-59)
(5.59891e-32 -1.50815e-34 2.03446e-59)
(5.5979e-32 -1.51776e-34 0)
(5.59697e-32 -1.52656e-34 0)
(5.59612e-32 -1.53463e-34 0)
(5.59534e-32 -1.54201e-34 -1.06599e-59)
(5.59463e-32 -1.54876e-34 -2.16242e-59)
(5.59397e-32 -1.55491e-34 -1.10236e-59)
(5.59337e-32 -1.56052e-34 -1.08532e-59)
(5.59281e-32 -1.56562e-34 -2.21558e-59)
(5.59231e-32 -1.57024e-34 1.09547e-59)
(5.59184e-32 -1.57442e-34 0)
(5.59141e-32 -1.57818e-34 0)
(5.59102e-32 -1.58155e-34 2.26584e-59)
(5.59066e-32 -1.58454e-34 0)
(5.59032e-32 -1.58717e-34 0)
(5.59001e-32 -1.58945e-34 -1.17528e-59)
(5.58972e-32 -1.59137e-34 0)
(5.58945e-32 -1.59295e-34 -2.30194e-59)
(5.58919e-32 -1.59415e-34 -1.12049e-59)
(5.58894e-32 -1.59497e-34 0)
(5.58869e-32 -1.59536e-34 -2.3098e-59)
(5.58845e-32 -1.59529e-34 0)
(5.58819e-32 -1.59468e-34 0)
(5.58793e-32 -1.59344e-34 -1.11987e-59)
(5.58764e-32 -1.59146e-34 -1.18033e-59)
(5.58732e-32 -1.58857e-34 -1.11489e-59)
(5.58696e-32 -1.58459e-34 0)
(5.58653e-32 -1.57923e-34 0)
(5.58603e-32 -1.57215e-34 -2.23905e-59)
(5.58541e-32 -1.5629e-34 0)
(5.58466e-32 -1.55089e-34 -2.17374e-59)
(5.58373e-32 -1.53532e-34 0)
(5.58255e-32 -1.51517e-34 0)
(5.58106e-32 -1.48904e-34 0)
(5.57917e-32 -1.45503e-34 9.7759e-60)
(5.57674e-32 -1.41058e-34 0)
(5.57359e-32 -1.35205e-34 -8.71628e-60)
(5.5695e-32 -1.27428e-34 0)
(5.56413e-32 -1.16967e-34 0)
(5.55702e-32 -1.02667e-34 -2.39433e-61)
(5.54748e-32 -8.2683e-35 -3.85708e-60)
(5.53448e-32 -5.38935e-35 0)
(5.51636e-32 -1.05765e-35 0)
(5.49034e-32 5.89448e-35 0)
(5.45124e-32 1.82305e-34 6.85877e-59)
(5.38913e-32 4.3965e-34 0)
(5.29116e-32 1.13293e-33 -5.08543e-58)
(0.000112076 -0.00109489 5.65913e-29)
(0.000337249 -0.00109418 -8.02098e-33)
(0.000564089 -0.00109285 0)
(0.000792461 -0.0010909 1.87681e-32)
(0.00102223 -0.00108831 0)
(0.00125329 -0.00108511 0)
(0.00148553 -0.0010814 -5.57313e-29)
(0.00171894 -0.00107724 -2.77649e-29)
(0.00195352 -0.00107275 2.75914e-29)
(0.00218931 -0.001068 -2.75037e-29)
(0.00242638 -0.00106307 0)
(0.00266483 -0.00105804 0)
(0.00290471 -0.00105296 -2.70126e-29)
(0.00314611 -0.0010479 -5.37291e-29)
(0.00338902 -0.00104289 5.34357e-29)
(0.00363339 -0.00103797 0)
(0.00387906 -0.00103318 5.28643e-29)
(0.00412573 -0.00102854 2.63924e-29)
(0.004373 -0.00102413 0)
(0.00462035 -0.00102001 5.20786e-29)
(0.00486722 -0.00101632 -2.60413e-29)
(0.00511301 -0.00101321 -5.16574e-29)
(0.00535719 -0.0010109 2.58782e-29)
(0.0055993 -0.00100963 0)
(0.00583903 -0.00100966 5.13711e-29)
(0.00607624 -0.0010113 5.14222e-29)
(0.00631096 -0.00101486 0)
(0.00654341 -0.0010207 5.18419e-29)
(0.00677406 -0.0010292 0)
(0.00700361 -0.00104084 5.28178e-29)
(0.00723298 -0.00105619 -2.69603e-29)
(0.00746335 -0.00107603 0)
(0.00769615 -0.00110139 0)
(0.00793304 -0.00113366 0)
(0.00817594 -0.00117469 0)
(0.00842699 -0.00122691 0)
(0.00868866 -0.00129352 0)
(0.00896361 -0.00137881 7.00129e-29)
(0.00925474 -0.00148854 -3.76036e-29)
(0.0095649 -0.00163065 0)
(0.0098964 -0.00181632 0)
(0.0102496 -0.00206174 0)
(0.0106195 -0.00239108 -2.44724e-28)
(0.010986 -0.00284152 -1.45866e-28)
(0.0112855 -0.00347063 -5.33262e-31)
(0.0113126 -0.0043505 5.34631e-31)
(0.00984639 -0.00511222 -2.629e-28)
(0.00423964 -0.00193784 -9.97835e-29)
(2.19679e-06 -5.0354e-08 4.68782e-33)
(1.78659e-23 -4.07939e-26 -4.21802e-52)
(9.162e-32 1.05384e-32 0)
(8.96742e-32 8.98141e-33 -4.77029e-58)
(8.77592e-32 7.80846e-33 -8.28092e-58)
(8.59349e-32 6.8918e-33 0)
(8.42195e-32 6.15716e-33 0)
(8.26136e-32 5.55632e-33 2.98957e-58)
(8.11105e-32 5.05618e-33 0)
(7.9701e-32 4.63282e-33 0)
(7.83759e-32 4.2685e-33 -6.91634e-58)
(7.71274e-32 3.94987e-33 -4.30256e-58)
(7.5949e-32 3.66692e-33 -1.96748e-58)
(7.48352e-32 3.41227e-33 0)
(7.37815e-32 3.1805e-33 1.71396e-58)
(7.27843e-32 2.96767e-33 0)
(7.18403e-32 2.77092e-33 -4.56896e-58)
(7.09464e-32 2.58814e-33 1.40504e-58)
(7.00999e-32 2.41776e-33 2.6985e-58)
(6.92984e-32 2.25855e-33 3.7647e-58)
(6.85393e-32 2.10955e-33 0)
(6.78205e-32 1.96992e-33 -2.22899e-58)
(6.71399e-32 1.83898e-33 0)
(6.64953e-32 1.71611e-33 -1.01279e-58)
(6.5885e-32 1.60075e-33 -1.84179e-58)
(6.53071e-32 1.4924e-33 -1.72812e-58)
(6.476e-32 1.39059e-33 1.62131e-58)
(6.42421e-32 1.29491e-33 -7.90786e-59)
(6.37518e-32 1.20496e-33 0)
(6.32878e-32 1.12037e-33 0)
(6.28487e-32 1.04082e-33 1.25423e-58)
(6.24333e-32 9.65976e-34 6.17315e-59)
(6.20403e-32 8.95561e-34 0)
(6.16688e-32 8.29304e-34 4.86978e-59)
(6.13174e-32 7.66956e-34 0)
(6.09854e-32 7.08284e-34 4.81358e-59)
(6.06716e-32 6.53074e-34 -1.637e-58)
(6.03753e-32 6.01122e-34 1.52817e-58)
(6.00954e-32 5.52243e-34 -7.4126e-59)
(5.98312e-32 5.06259e-34 0)
(5.95819e-32 4.63006e-34 6.47537e-59)
(5.93468e-32 4.2233e-34 -1.15358e-58)
(5.91251e-32 3.84085e-34 0)
(5.89161e-32 3.48136e-34 0)
(5.87193e-32 3.14354e-34 0)
(5.85339e-32 2.82617e-34 4.02774e-59)
(5.83594e-32 2.52812e-34 0)
(5.81952e-32 2.24831e-34 0)
(5.80407e-32 1.98571e-34 0)
(5.78956e-32 1.73937e-34 0)
(5.77592e-32 1.50836e-34 0)
(5.76311e-32 1.29182e-34 -2.96846e-59)
(5.75109e-32 1.08894e-34 0)
(5.7398e-32 8.98932e-35 2.01357e-59)