/*--------------------------------*- C++ -*----------------------------------*\
  =========                 |
  \\      /  F ield         | OpenFOAM: The Open Source CFD Toolbox
   \\    /   O peration     | Website:  https://openfoam.org
    \\  /    A nd           | Version:  10
     \\/     M anipulation  |
\*---------------------------------------------------------------------------*/
FoamFile
{
    format      ascii;
    class       surfaceScalarField;
    location    "700";
    object      phi;
}
// * * * * * * * * * * * * * * * * * * * * * * * * * * * * * * * * * * * * * //

dimensions      [0 3 -1 0 0 0 0];

internalField   nonuniform List<scalar> 
12640
(
-5.10051e-10
5.10051e-10
-1.01638e-09
5.0633e-10
-1.51529e-09
4.9891e-10
-2.00312e-09
4.87833e-10
-2.47629e-09
4.73163e-10
-2.93127e-09
4.54987e-10
-3.36469e-09
4.33412e-10
-3.77326e-09
4.08569e-10
-4.15386e-09
3.80607e-10
-4.50356e-09
3.49701e-10
-4.81961e-09
3.16047e-10
-5.09947e-09
2.79861e-10
-5.34085e-09
2.41381e-10
-5.54172e-09
2.00867e-10
-5.70032e-09
1.58599e-10
-5.81519e-09
1.14875e-10
-5.88521e-09
7.00117e-11
-5.90955e-09
2.43408e-11
-5.88776e-09
-2.17905e-11
-5.81973e-09
-6.80236e-11
-5.70574e-09
-1.1399e-10
-5.54643e-09
-1.59316e-10
-5.3428e-09
-2.03624e-10
-5.09627e-09
-2.46537e-10
-4.80858e-09
-2.87682e-10
-4.48189e-09
-3.26696e-10
-4.11866e-09
-3.63227e-10
-3.72172e-09
-3.9694e-10
-3.2942e-09
-4.27522e-10
-2.83951e-09
-4.54685e-10
-2.36134e-09
-4.78169e-10
-1.86359e-09
-4.97748e-10
-1.6374e-09
-2.26192e-10
-1.40852e-09
-2.28881e-10
-1.17733e-09
-2.31196e-10
-9.44195e-10
-2.33132e-10
-7.09509e-10
-2.34685e-10
-4.73656e-10
-2.35853e-10
-2.37023e-10
-2.36633e-10
3.91397e-17
-2.37023e-10
2.37023e-10
-2.37023e-10
4.73656e-10
-2.36633e-10
7.09509e-10
-2.35853e-10
9.44195e-10
-2.34685e-10
1.17733e-09
-2.33132e-10
1.40852e-09
-2.31196e-10
1.6374e-09
-2.28881e-10
1.8636e-09
-2.26192e-10
2.36134e-09
-4.97748e-10
2.83951e-09
-4.78169e-10
3.2942e-09
-4.54685e-10
3.72172e-09
-4.27522e-10
4.11866e-09
-3.9694e-10
4.48189e-09
-3.63227e-10
4.80858e-09
-3.26696e-10
5.09627e-09
-2.87682e-10
5.3428e-09
-2.46537e-10
5.54643e-09
-2.03624e-10
5.70574e-09
-1.59316e-10
5.81973e-09
-1.1399e-10
5.88776e-09
-6.80236e-11
5.90955e-09
-2.17905e-11
5.88521e-09
2.43408e-11
5.81519e-09
7.00117e-11
5.70032e-09
1.14875e-10
5.54172e-09
1.58599e-10
5.34085e-09
2.00867e-10
5.09947e-09
2.41381e-10
4.81961e-09
2.79861e-10
4.50356e-09
3.16047e-10
4.15386e-09
3.49701e-10
3.77326e-09
3.80607e-10
3.36469e-09
4.08569e-10
2.93127e-09
4.33412e-10
2.47629e-09
4.54987e-10
2.00312e-09
4.73163e-10
1.51529e-09
4.87833e-10
1.01638e-09
4.9891e-10
5.10051e-10
5.0633e-10
5.10051e-10
-5.59614e-10
1.06967e-09
-1.11515e-09
1.06186e-09
-1.66254e-09
1.0463e-09
-2.19777e-09
1.02307e-09
-2.71692e-09
9.92307e-10
-3.21612e-09
9.5419e-10
-3.69165e-09
9.08945e-10
-4.13993e-09
8.56845e-10
-4.55753e-09
7.98206e-10
-4.94122e-09
7.33393e-10
-5.28799e-09
6.62815e-10
-5.59506e-09
5.86928e-10
-5.85991e-09
5.0623e-10
-6.0803e-09
4.21267e-10
-6.25433e-09
3.32624e-10
-6.38038e-09
2.40928e-10
-6.45721e-09
1.46841e-10
-6.48393e-09
5.10602e-11
-6.46003e-09
-4.56861e-11
-6.38541e-09
-1.42646e-10
-6.26035e-09
-2.39048e-10
-6.08556e-09
-3.34107e-10
-5.86216e-09
-4.2703e-10
-5.59167e-09
-5.17029e-10
-5.27603e-09
-6.03321e-10
-4.91758e-09
-6.85142e-10
-4.51905e-09
-7.61757e-10
-4.08353e-09
-8.32463e-10
-3.61445e-09
-8.96602e-10
-3.11556e-09
-9.5357e-10
-2.59091e-09
-1.00282e-09
-2.04477e-09
-1.04389e-09
-1.79659e-09
-4.74373e-10
-1.54546e-09
-4.80013e-10
-1.29179e-09
-4.84869e-10
-1.03599e-09
-4.88929e-10
-7.78488e-10
-4.92187e-10
-5.19705e-10
-4.94636e-10
-2.60067e-10
-4.96271e-10
4.39644e-17
-4.9709e-10
2.60067e-10
-4.9709e-10
5.19705e-10
-4.96271e-10
7.78488e-10
-4.94636e-10
1.03599e-09
-4.92187e-10
1.29179e-09
-4.88929e-10
1.54546e-09
-4.84869e-10
1.79659e-09
-4.80013e-10
2.04477e-09
-4.74373e-10
2.59091e-09
-1.04389e-09
3.11556e-09
-1.00282e-09
3.61445e-09
-9.5357e-10
4.08353e-09
-8.96602e-10
4.51905e-09
-8.32463e-10
4.91758e-09
-7.61757e-10
5.27603e-09
-6.85142e-10
5.59167e-09
-6.03321e-10
5.86216e-09
-5.17029e-10
6.08556e-09
-4.2703e-10
6.26035e-09
-3.34107e-10
6.38541e-09
-2.39048e-10
6.46003e-09
-1.42646e-10
6.48393e-09
-4.56861e-11
6.45721e-09
5.10602e-11
6.38038e-09
1.46841e-10
6.25433e-09
2.40928e-10
6.0803e-09
3.32624e-10
5.8599e-09
4.21267e-10
5.59506e-09
5.0623e-10
5.28799e-09
5.86928e-10
4.94122e-09
6.62815e-10
4.55753e-09
7.33393e-10
4.13993e-09
7.98206e-10
3.69165e-09
8.56845e-10
3.21612e-09
9.08945e-10
2.71692e-09
9.5419e-10
2.19777e-09
9.92307e-10
1.66254e-09
1.02307e-09
1.11515e-09
1.0463e-09
5.59614e-10
1.06186e-09
1.06967e-09
-6.14244e-10
1.68391e-09
-1.22401e-09
1.67163e-09
-1.82484e-09
1.64713e-09
-2.41233e-09
1.61056e-09
-2.98216e-09
1.56214e-09
-3.53011e-09
1.50214e-09
-4.05208e-09
1.43091e-09
-4.54413e-09
1.3489e-09
-5.00252e-09
1.25659e-09
-5.42369e-09
1.15457e-09
-5.80434e-09
1.04346e-09
-6.14141e-09
9.24001e-10
-6.43215e-09
7.96968e-10
-6.6741e-09
6.63218e-10
-6.86515e-09
5.23674e-10
-7.00354e-09
3.79322e-10
-7.08791e-09
2.31205e-10
-7.11727e-09
8.0422e-11
-7.09107e-09
-7.18832e-11
-7.00919e-09
-2.24526e-10
-6.87195e-09
-3.76291e-10
-6.68011e-09
-5.25943e-10
-6.43491e-09
-6.72235e-10
-6.13801e-09
-8.13923e-10
-5.79156e-09
-9.49776e-10
-5.39811e-09
-1.07859e-09
-4.96065e-09
-1.19921e-09
-4.48258e-09
-1.31053e-09
-3.96767e-09
-1.41151e-09
-3.42004e-09
-1.5012e-09
-2.84412e-09
-1.57874e-09
-2.24461e-09
-1.64339e-09
-1.97218e-09
-7.46809e-10
-1.6965e-09
-7.55689e-10
-1.41804e-09
-7.63333e-10
-1.13724e-09
-7.69726e-10
-8.54574e-10
-7.74855e-10
-5.70499e-10
-7.78711e-10
-2.85485e-10
-7.81286e-10
4.66745e-17
-7.82575e-10
2.85485e-10
-7.82575e-10
5.70499e-10
-7.81286e-10
8.54574e-10
-7.78711e-10
1.13724e-09
-7.74855e-10
1.41804e-09
-7.69726e-10
1.6965e-09
-7.63333e-10
1.97218e-09
-7.55689e-10
2.24461e-09
-7.46809e-10
2.84412e-09
-1.64339e-09
3.42004e-09
-1.57874e-09
3.96767e-09
-1.5012e-09
4.48258e-09
-1.41151e-09
4.96065e-09
-1.31053e-09
5.39811e-09
-1.19921e-09
5.79156e-09
-1.07859e-09
6.13801e-09
-9.49776e-10
6.43491e-09
-8.13923e-10
6.68011e-09
-6.72235e-10
6.87195e-09
-5.25943e-10
7.00919e-09
-3.76291e-10
7.09107e-09
-2.24526e-10
7.11727e-09
-7.18832e-11
7.08791e-09
8.0422e-11
7.00354e-09
2.31205e-10
6.86515e-09
3.79322e-10
6.6741e-09
5.23674e-10
6.43215e-09
6.63218e-10
6.14141e-09
7.96968e-10
5.80434e-09
9.24001e-10
5.42369e-09
1.04346e-09
5.00252e-09
1.15457e-09
4.54413e-09
1.25659e-09
4.05208e-09
1.3489e-09
3.53011e-09
1.43091e-09
2.98216e-09
1.50214e-09
2.41233e-09
1.56214e-09
1.82484e-09
1.61056e-09
1.22401e-09
1.64713e-09
6.14244e-10
1.67163e-09
1.68391e-09
-6.74563e-10
2.35847e-09
-1.34421e-09
2.34127e-09
-2.00404e-09
2.30697e-09
-2.64924e-09
2.25576e-09
-3.27504e-09
2.18794e-09
-3.87681e-09
2.10391e-09
-4.45006e-09
2.00416e-09
-4.99046e-09
1.8893e-09
-5.4939e-09
1.76003e-09
-5.95648e-09
1.61714e-09
-6.37456e-09
1.46154e-09
-6.74479e-09
1.29423e-09
-7.06414e-09
1.11632e-09
-7.32991e-09
9.28993e-10
-7.53979e-09
7.33552e-10
-7.69184e-09
5.31375e-10
-7.78456e-09
3.23922e-10
-7.81687e-09
1.12731e-10
-7.78816e-09
-1.00594e-10
-7.69829e-09
-3.14394e-10
-7.54761e-09
-5.26969e-10
-7.33697e-09
-7.36585e-10
-7.06771e-09
-9.41499e-10
-6.74167e-09
-1.13996e-09
-6.36118e-09
-1.33026e-09
-5.92907e-09
-1.5107e-09
-5.44862e-09
-1.67966e-09
-4.92355e-09
-1.8356e-09
-4.35801e-09
-1.97705e-09
-3.75652e-09
-2.10269e-09
-3.12395e-09
-2.21132e-09
-2.46546e-09
-2.30188e-09
-2.16623e-09
-1.04605e-09
-1.86343e-09
-1.05849e-09
-1.55757e-09
-1.0692e-09
-1.24914e-09
-1.07815e-09
-9.3866e-10
-1.08534e-09
-6.26634e-10
-1.09074e-09
-3.13575e-10
-1.09434e-09
4.88428e-17
-1.09615e-09
3.13575e-10
-1.09615e-09
6.26634e-10
-1.09434e-09
9.3866e-10
-1.09074e-09
1.24914e-09
-1.08534e-09
1.55757e-09
-1.07815e-09
1.86343e-09
-1.0692e-09
2.16623e-09
-1.05849e-09
2.46547e-09
-1.04605e-09
3.12395e-09
-2.30188e-09
3.75652e-09
-2.21132e-09
4.35801e-09
-2.10269e-09
4.92355e-09
-1.97705e-09
5.44862e-09
-1.8356e-09
5.92907e-09
-1.67966e-09
6.36118e-09
-1.5107e-09
6.74167e-09
-1.33026e-09
7.06771e-09
-1.13996e-09
7.33697e-09
-9.41499e-10
7.54761e-09
-7.36585e-10
7.69829e-09
-5.26969e-10
7.78816e-09
-3.14394e-10
7.81687e-09
-1.00594e-10
7.78456e-09
1.12731e-10
7.69184e-09
3.23922e-10
7.53979e-09
5.31375e-10
7.32991e-09
7.33553e-10
7.06414e-09
9.28993e-10
6.74479e-09
1.11632e-09
6.37456e-09
1.29423e-09
5.95648e-09
1.46154e-09
5.4939e-09
1.61714e-09
4.99046e-09
1.76003e-09
4.45006e-09
1.8893e-09
3.87681e-09
2.00416e-09
3.27504e-09
2.10391e-09
2.64924e-09
2.18794e-09
2.00404e-09
2.25576e-09
1.34421e-09
2.30697e-09
6.74563e-10
2.34127e-09
2.35847e-09
-7.41301e-10
3.09977e-09
-1.4772e-09
3.07717e-09
-2.20232e-09
3.03209e-09
-2.91136e-09
2.96479e-09
-3.59909e-09
2.87567e-09
-4.26043e-09
2.76525e-09
-4.89044e-09
2.63417e-09
-5.48436e-09
2.48323e-09
-6.03767e-09
2.31334e-09
-6.54608e-09
2.12556e-09
-7.00561e-09
1.92107e-09
-7.41257e-09
1.70119e-09
-7.76362e-09
1.46737e-09
-8.0558e-09
1.22117e-09
-8.28656e-09
9.6431e-10
-8.45377e-09
6.98586e-10
-8.55577e-09
4.25925e-10
-8.59138e-09
1.48346e-10
-8.55993e-09
-1.32044e-10
-8.46126e-09
-4.13065e-10
-8.29575e-09
-6.9248e-10
-8.06432e-09
-9.68012e-10
-7.76846e-09
-1.23737e-09
-7.41017e-09
-1.49825e-09
-6.99203e-09
-1.7484e-09
-6.51713e-09
-1.9856e-09
-5.98908e-09
-2.20771e-09
-5.41198e-09
-2.4127e-09
-4.79037e-09
-2.59866e-09
-4.12923e-09
-2.76383e-09
-3.43392e-09
-2.90663e-09
-2.71011e-09
-3.02569e-09
-2.38118e-09
-1.37497e-09
-2.04834e-09
-1.39133e-09
-1.71213e-09
-1.40541e-09
-1.3731e-09
-1.41718e-09
-1.03181e-09
-1.42663e-09
-6.88818e-10
-1.43373e-09
-3.44693e-10
-1.43847e-09
5.06312e-17
-1.44084e-09
3.44693e-10
-1.44084e-09
6.88818e-10
-1.43847e-09
1.03181e-09
-1.43373e-09
1.3731e-09
-1.42663e-09
1.71213e-09
-1.41718e-09
2.04834e-09
-1.40541e-09
2.38118e-09
-1.39133e-09
2.71011e-09
-1.37497e-09
3.43392e-09
-3.02569e-09
4.12923e-09
-2.90663e-09
4.79037e-09
-2.76383e-09
5.41198e-09
-2.59866e-09
5.98908e-09
-2.4127e-09
6.51713e-09
-2.20771e-09
6.99203e-09
-1.9856e-09
7.41017e-09
-1.7484e-09
7.76846e-09
-1.49825e-09
8.06432e-09
-1.23737e-09
8.29575e-09
-9.68012e-10
8.46126e-09
-6.9248e-10
8.55993e-09
-4.13065e-10
8.59138e-09
-1.32044e-10
8.55577e-09
1.48346e-10
8.45377e-09
4.25925e-10
8.28656e-09
6.98586e-10
8.0558e-09
9.6431e-10
7.76362e-09
1.22117e-09
7.41257e-09
1.46737e-09
7.00561e-09
1.70119e-09
6.54608e-09
1.92107e-09
6.03767e-09
2.12556e-09
5.48436e-09
2.31334e-09
4.89044e-09
2.48323e-09
4.26043e-09
2.63417e-09
3.59909e-09
2.76525e-09
2.91136e-09
2.87567e-09
2.20232e-09
2.96479e-09
1.4772e-09
3.03209e-09
7.41301e-10
3.07717e-09
3.09977e-09
-8.15327e-10
3.9151e-09
-1.62471e-09
3.88656e-09
-2.42226e-09
3.82963e-09
-3.20212e-09
3.74465e-09
-3.95856e-09
3.63211e-09
-4.68599e-09
3.49267e-09
-5.37897e-09
3.32715e-09
-6.03229e-09
3.13654e-09
-6.64095e-09
2.922e-09
-7.20026e-09
2.68487e-09
-7.70581e-09
2.42662e-09
-8.15356e-09
2.14894e-09
-8.53983e-09
1.85364e-09
-8.86136e-09
1.54271e-09
-9.11535e-09
1.21829e-09
-9.29944e-09
8.82679e-10
-9.41181e-09
5.38294e-10
-9.45115e-09
1.87688e-10
-9.41672e-09
-1.66478e-10
-9.30833e-09
-5.2145e-10
-9.12641e-09
-8.74403e-10
-8.87196e-09
-1.22246e-09
-8.5466e-09
-1.56273e-09
-8.15255e-09
-1.8923e-09
-7.69264e-09
-2.20832e-09
-7.17026e-09
-2.50798e-09
-6.58937e-09
-2.7886e-09
-5.9545e-09
-3.04758e-09
-5.27063e-09
-3.28252e-09
-4.54326e-09
-3.4912e-09
-3.77826e-09
-3.67163e-09
-2.98189e-09
-3.82206e-09
-2.61998e-09
-1.73688e-09
-2.25376e-09
-1.75754e-09
-1.88384e-09
-1.77533e-09
-1.51081e-09
-1.79021e-09
-1.13529e-09
-1.80214e-09
-7.57902e-10
-1.81112e-09
-3.79264e-10
-1.81711e-09
5.2961e-17
-1.82011e-09
3.79264e-10
-1.82011e-09
7.57902e-10
-1.81711e-09
1.13529e-09
-1.81112e-09
1.51081e-09
-1.80214e-09
1.88384e-09
-1.79021e-09
2.25376e-09
-1.77533e-09
2.61998e-09
-1.75754e-09
2.98189e-09
-1.73688e-09
3.77826e-09
-3.82206e-09
4.54326e-09
-3.67163e-09
5.27063e-09
-3.4912e-09
5.9545e-09
-3.28252e-09
6.58937e-09
-3.04758e-09
7.17026e-09
-2.7886e-09
7.69264e-09
-2.50798e-09
8.15255e-09
-2.20832e-09
8.5466e-09
-1.8923e-09
8.87196e-09
-1.56273e-09
9.12641e-09
-1.22246e-09
9.30833e-09
-8.74403e-10
9.41672e-09
-5.2145e-10
9.45115e-09
-1.66478e-10
9.41181e-09
1.87688e-10
9.29944e-09
5.38294e-10
9.11535e-09
8.82679e-10
8.86136e-09
1.21829e-09
8.53983e-09
1.54271e-09
8.15356e-09
1.85364e-09
7.70581e-09
2.14894e-09
7.20026e-09
2.42662e-09
6.64095e-09
2.68487e-09
6.03229e-09
2.922e-09
5.37897e-09
3.13654e-09
4.68599e-09
3.32715e-09
3.95856e-09
3.49267e-09
3.20212e-09
3.63211e-09
2.42226e-09
3.74465e-09
1.62471e-09
3.82963e-09
8.15327e-10
3.88656e-09
3.9151e-09
-8.97688e-10
4.81279e-09
-1.78884e-09
4.77771e-09
-2.66697e-09
4.70776e-09
-3.52564e-09
4.60332e-09
-4.35855e-09
4.46502e-09
-5.15953e-09
4.29366e-09
-5.92261e-09
4.09024e-09
-6.64205e-09
3.85598e-09
-7.31235e-09
3.59231e-09
-7.92834e-09
3.30085e-09
-8.48517e-09
2.98345e-09
-8.97838e-09
2.64215e-09
-9.40393e-09
2.27918e-09
-9.75821e-09
1.89699e-09
-1.00381e-08
1.49821e-09
-1.02411e-08
1.08565e-09
-1.03651e-08
6.62288e-10
-1.04087e-08
2.31266e-10
-1.0371e-08
-2.04149e-10
-1.02519e-08
-6.40571e-10
-1.00517e-08
-1.07453e-09
-9.77172e-09
-1.50248e-09
-9.41358e-09
-1.92087e-09
-8.97976e-09
-2.32612e-09
-8.47336e-09
-2.71472e-09
-7.89811e-09
-3.08323e-09
-7.2584e-09
-3.42831e-09
-6.55917e-09
-3.74681e-09
-5.80595e-09
-4.03574e-09
-5.00476e-09
-4.29239e-09
-4.1621e-09
-4.51429e-09
-3.28485e-09
-4.69931e-09
-2.88618e-09
-2.13555e-09
-2.48276e-09
-2.16096e-09
-2.07526e-09
-2.18284e-09
-1.66433e-09
-2.20114e-09
-1.25065e-09
-2.21582e-09
-8.34917e-10
-2.22685e-09
-4.17803e-10
-2.23422e-09
5.65375e-17
-2.23791e-09
4.17804e-10
-2.23791e-09
8.34917e-10
-2.23422e-09
1.25065e-09
-2.22685e-09
1.66433e-09
-2.21582e-09
2.07526e-09
-2.20114e-09
2.48276e-09
-2.18284e-09
2.88618e-09
-2.16096e-09
3.28485e-09
-2.13555e-09
4.1621e-09
-4.69931e-09
5.00476e-09
-4.51429e-09
5.80595e-09
-4.29239e-09
6.55917e-09
-4.03574e-09
7.2584e-09
-3.74681e-09
7.89811e-09
-3.42831e-09
8.47336e-09
-3.08323e-09
8.97976e-09
-2.71472e-09
9.41358e-09
-2.32612e-09
9.77172e-09
-1.92087e-09
1.00517e-08
-1.50248e-09
1.02519e-08
-1.07453e-09
1.0371e-08
-6.40571e-10
1.04087e-08
-2.04149e-10
1.03651e-08
2.31266e-10
1.02411e-08
6.62288e-10
1.00381e-08
1.08565e-09
9.75821e-09
1.49821e-09
9.40393e-09
1.89699e-09
8.97838e-09
2.27918e-09
8.48517e-09
2.64215e-09
7.92834e-09
2.98345e-09
7.31235e-09
3.30085e-09
6.64205e-09
3.59231e-09
5.92261e-09
3.85598e-09
5.15953e-09
4.09024e-09
4.35855e-09
4.29366e-09
3.52564e-09
4.46502e-09
2.66697e-09
4.60332e-09
1.78884e-09
4.70776e-09
8.97688e-10
4.77771e-09
4.81279e-09
-9.89659e-10
5.80245e-09
-1.97212e-09
5.76017e-09
-2.94024e-09
5.67587e-09
-3.88693e-09
5.55002e-09
-4.80524e-09
5.38334e-09
-5.6884e-09
5.17681e-09
-6.52981e-09
4.93165e-09
-7.32314e-09
4.64931e-09
-8.06235e-09
4.33152e-09
-8.74172e-09
3.98022e-09
-9.35591e-09
3.59764e-09
-9.89999e-09
3.18623e-09
-1.03695e-08
2.74869e-09
-1.07605e-08
2.28796e-09
-1.10695e-08
1.80721e-09
-1.12937e-08
1.30982e-09
-1.14308e-08
7.99391e-10
-1.14792e-08
2.79696e-10
-1.1438e-08
-2.45322e-10
-1.1307e-08
-7.71581e-10
-1.10866e-08
-1.29489e-09
-1.07781e-08
-1.81099e-09
-1.03834e-08
-2.31558e-09
-9.9052e-09
-2.80435e-09
-9.34686e-09
-3.27306e-09
-8.71255e-09
-3.71754e-09
-8.00706e-09
-4.1338e-09
-7.23588e-09
-4.51799e-09
-6.40507e-09
-4.86654e-09
-5.52131e-09
-5.17616e-09
-4.59174e-09
-5.44386e-09
-3.62398e-09
-5.66707e-09
-3.18417e-09
-2.57536e-09
-2.73911e-09
-2.60602e-09
-2.28953e-09
-2.63242e-09
-1.83618e-09
-2.65449e-09
-1.37979e-09
-2.6722e-09
-9.21132e-10
-2.68552e-09
-4.60947e-10
-2.69441e-09
5.76822e-17
-2.69886e-09
4.60947e-10
-2.69886e-09
9.21132e-10
-2.69441e-09
1.3798e-09
-2.68552e-09
1.83618e-09
-2.6722e-09
2.28953e-09
-2.65449e-09
2.73911e-09
-2.63242e-09
3.18417e-09
-2.60602e-09
3.62398e-09
-2.57536e-09
4.59174e-09
-5.66707e-09
5.52131e-09
-5.44386e-09
6.40507e-09
-5.17616e-09
7.23588e-09
-4.86654e-09
8.00706e-09
-4.51799e-09
8.71255e-09
-4.1338e-09
9.34686e-09
-3.71754e-09
9.9052e-09
-3.27306e-09
1.03834e-08
-2.80435e-09
1.07781e-08
-2.31558e-09
1.10866e-08
-1.81099e-09
1.1307e-08
-1.29489e-09
1.1438e-08
-7.71581e-10
1.14792e-08
-2.45322e-10
1.14308e-08
2.79696e-10
1.12937e-08
7.99391e-10
1.10695e-08
1.30982e-09
1.07605e-08
1.80721e-09
1.03695e-08
2.28796e-09
9.89999e-09
2.74869e-09
9.35591e-09
3.18623e-09
8.74172e-09
3.59764e-09
8.06235e-09
3.98022e-09
7.32314e-09
4.33152e-09
6.52981e-09
4.64931e-09
5.6884e-09
4.93165e-09
4.80524e-09
5.17681e-09
3.88693e-09
5.38334e-09
2.94024e-09
5.55002e-09
1.97212e-09
5.67587e-09
9.89659e-10
5.76017e-09
5.80245e-09
-1.09281e-09
6.89526e-09
-2.17768e-09
6.84505e-09
-3.24673e-09
6.74492e-09
-4.29216e-09
6.59544e-09
-5.3063e-09
6.39748e-09
-6.28166e-09
6.15217e-09
-7.21098e-09
5.86097e-09
-8.08727e-09
5.5256e-09
-8.90386e-09
5.1481e-09
-9.65443e-09
4.73079e-09
-1.03331e-08
4.2763e-09
-1.09344e-08
3.78753e-09
-1.14534e-08
3.26768e-09
-1.18857e-08
2.72026e-09
-1.22275e-08
2.14901e-09
-1.24756e-08
1.55796e-09
-1.26276e-08
9.51375e-10
-1.26816e-08
3.33738e-10
-1.26367e-08
-2.90266e-10
-1.24925e-08
-9.15787e-10
-1.22495e-08
-1.53784e-09
-1.19092e-08
-2.15137e-09
-1.14735e-08
-2.75124e-09
-1.09455e-08
-3.33235e-09
-1.03289e-08
-3.88964e-09
-9.62827e-09
-4.41817e-09
-8.84892e-09
-4.91315e-09
-7.99689e-09
-5.37003e-09
-7.07889e-09
-5.78454e-09
-6.10229e-09
-6.15275e-09
-5.07501e-09
-6.47115e-09
-4.00546e-09
-6.73662e-09
-3.51937e-09
-3.06145e-09
-3.02748e-09
-3.09792e-09
-2.53058e-09
-3.12931e-09
-2.0295e-09
-3.15557e-09
-1.52507e-09
-3.17663e-09
-1.01812e-09
-3.19247e-09
-5.09481e-10
-3.20305e-09
5.84385e-17
-3.20834e-09
5.09481e-10
-3.20834e-09
1.01812e-09
-3.20305e-09
1.52507e-09
-3.19247e-09
2.0295e-09
-3.17663e-09
2.53058e-09
-3.15557e-09
3.02748e-09
-3.12931e-09
3.51937e-09
-3.09792e-09
4.00546e-09
-3.06145e-09
5.07501e-09
-6.73662e-09
6.10229e-09
-6.47115e-09
7.07889e-09
-6.15275e-09
7.99689e-09
-5.78454e-09
8.84892e-09
-5.37003e-09
9.62827e-09
-4.91315e-09
1.03289e-08
-4.41817e-09
1.09455e-08
-3.88964e-09
1.14735e-08
-3.33235e-09
1.19092e-08
-2.75124e-09
1.22495e-08
-2.15137e-09
1.24925e-08
-1.53784e-09
1.26367e-08
-9.15787e-10
1.26816e-08
-2.90266e-10
1.26276e-08
3.33738e-10
1.24756e-08
9.51375e-10
1.22275e-08
1.55796e-09
1.18857e-08
2.14901e-09
1.14534e-08
2.72026e-09
1.09344e-08
3.26768e-09
1.03331e-08
3.78753e-09
9.65443e-09
4.2763e-09
8.90386e-09
4.73079e-09
8.08727e-09
5.1481e-09
7.21098e-09
5.5256e-09
6.28166e-09
5.86097e-09
5.3063e-09
6.15217e-09
4.29216e-09
6.39748e-09
3.24673e-09
6.59544e-09
2.17768e-09
6.74492e-09
1.09281e-09
6.84505e-09
6.89526e-09
-1.20909e-09
8.10434e-09
-2.40941e-09
8.04537e-09
-3.59226e-09
7.92777e-09
-4.74902e-09
7.7522e-09
-5.87121e-09
7.51968e-09
-6.95058e-09
7.23154e-09
-7.97909e-09
6.88948e-09
-8.94901e-09
6.49552e-09
-9.85296e-09
6.05205e-09
-1.0684e-08
5.56179e-09
-1.14355e-08
5.02781e-09
-1.21015e-08
4.45352e-09
-1.26765e-08
3.84268e-09
-1.31556e-08
3.19938e-09
-1.35346e-08
2.52804e-09
-1.381e-08
1.83337e-09
-1.3979e-08
1.12038e-09
-1.40396e-08
3.94339e-10
-1.39906e-08
-3.39246e-10
-1.38317e-08
-1.07468e-09
-1.35635e-08
-1.8061e-09
-1.31873e-08
-2.52755e-09
-1.27055e-08
-3.233e-09
-1.21214e-08
-3.91645e-09
-1.14392e-08
-4.57193e-09
-1.06637e-08
-5.19362e-09
-9.80095e-09
-5.7759e-09
-8.85759e-09
-6.31339e-09
-7.84106e-09
-6.80106e-09
-6.75952e-09
-7.2343e-09
-5.62174e-09
-7.60893e-09
-4.43706e-09
-7.9213e-09
-3.89862e-09
-3.59988e-09
-3.35374e-09
-3.6428e-09
-2.80331e-09
-3.67974e-09
-2.24824e-09
-3.71064e-09
-1.68945e-09
-3.73543e-09
-1.12786e-09
-3.75406e-09
-5.64397e-10
-3.76651e-09
6.03901e-17
-3.77273e-09
5.64397e-10
-3.77273e-09
1.12786e-09
-3.76651e-09
1.68945e-09
-3.75406e-09
2.24824e-09
-3.73543e-09
2.80331e-09
-3.71064e-09
3.35374e-09
-3.67974e-09
3.89862e-09
-3.6428e-09
4.43706e-09
-3.59988e-09
5.62174e-09
-7.9213e-09
6.75952e-09
-7.60893e-09
7.84106e-09
-7.2343e-09
8.85759e-09
-6.80107e-09
9.80095e-09
-6.31339e-09
1.06637e-08
-5.7759e-09
1.14392e-08
-5.19362e-09
1.21214e-08
-4.57193e-09
1.27055e-08
-3.91645e-09
1.31873e-08
-3.233e-09
1.35635e-08
-2.52755e-09
1.38317e-08
-1.8061e-09
1.39906e-08
-1.07468e-09
1.40396e-08
-3.39246e-10
1.3979e-08
3.94339e-10
1.381e-08
1.12038e-09
1.35346e-08
1.83337e-09
1.31556e-08
2.52804e-09
1.26765e-08
3.19938e-09
1.21015e-08
3.84268e-09
1.14355e-08
4.45352e-09
1.0684e-08
5.02781e-09
9.85296e-09
5.56179e-09
8.94901e-09
6.05205e-09
7.97909e-09
6.49552e-09
6.95058e-09
6.88948e-09
5.87121e-09
7.23154e-09
4.74902e-09
7.51968e-09
3.59226e-09
7.7522e-09
2.40941e-09
7.92777e-09
1.20909e-09
8.04537e-09
8.10434e-09
-1.34094e-09
9.44528e-09
-2.67219e-09
9.37662e-09
-3.98411e-09
9.23968e-09
-5.26715e-09
9.03525e-09
-6.51195e-09
8.76448e-09
-7.70935e-09
8.42894e-09
-8.85046e-09
8.03059e-09
-9.92671e-09
7.57177e-09
-1.09299e-08
7.05526e-09
-1.18523e-08
6.48421e-09
-1.26867e-08
5.86219e-09
-1.34264e-08
5.19316e-09
-1.40652e-08
4.48149e-09
-1.45977e-08
3.73193e-09
-1.50193e-08
2.94961e-09
-1.5326e-08
2.14003e-09
-1.55146e-08
1.30902e-09
-1.5583e-08
4.627e-10
-1.55297e-08
-3.92506e-10
-1.53544e-08
-1.24996e-09
-1.50577e-08
-2.10283e-09
-1.46411e-08
-2.94416e-09
-1.41071e-08
-3.76693e-09
-1.34595e-08
-4.56411e-09
-1.27027e-08
-5.32876e-09
-1.18422e-08
-6.05405e-09
-1.08847e-08
-6.73342e-09
-9.83752e-09
-7.36058e-09
-8.70892e-09
-7.92967e-09
-7.50796e-09
-8.43526e-09
-6.2444e-09
-8.87248e-09
-4.92863e-09
-9.23707e-09
-4.33059e-09
-4.19793e-09
-3.72537e-09
-4.24802e-09
-3.11397e-09
-4.29114e-09
-2.4974e-09
-4.3272e-09
-1.87669e-09
-4.35614e-09
-1.25286e-09
-4.37789e-09
-6.26952e-10
-4.39242e-09
6.52654e-17
-4.39969e-09
6.26952e-10
-4.39969e-09
1.25286e-09
-4.39242e-09
1.87669e-09
-4.37789e-09
2.4974e-09
-4.35614e-09
3.11397e-09
-4.3272e-09
3.72537e-09
-4.29114e-09
4.33059e-09
-4.24802e-09
4.92863e-09
-4.19793e-09
6.2444e-09
-9.23707e-09
7.50796e-09
-8.87248e-09
8.70892e-09
-8.43526e-09
9.83752e-09
-7.92967e-09
1.08847e-08
-7.36058e-09
1.18422e-08
-6.73342e-09
1.27027e-08
-6.05405e-09
1.34595e-08
-5.32876e-09
1.41071e-08
-4.56411e-09
1.46411e-08
-3.76693e-09
1.50577e-08
-2.94416e-09
1.53544e-08
-2.10283e-09
1.55297e-08
-1.24996e-09
1.5583e-08
-3.92506e-10
1.55146e-08
4.627e-10
1.5326e-08
1.30902e-09
1.50193e-08
2.14003e-09
1.45977e-08
2.94961e-09
1.40652e-08
3.73193e-09
1.34264e-08
4.48149e-09
1.26867e-08
5.19316e-09
1.18523e-08
5.86219e-09
1.09299e-08
6.48421e-09
9.92671e-09
7.05526e-09
8.85046e-09
7.57177e-09
7.70935e-09
8.03059e-09
6.51195e-09
8.42894e-09
5.26715e-09
8.76448e-09
3.98411e-09
9.03525e-09
2.67219e-09
9.23968e-09
1.34094e-09
9.37662e-09
9.44528e-09
-1.49149e-09
1.09368e-08
-2.97224e-09
1.08574e-08
-4.43154e-09
1.0699e-08
-5.85883e-09
1.04625e-08
-7.2437e-09
1.01493e-08
-8.57599e-09
9.76123e-09
-9.84582e-09
9.30042e-09
-1.10437e-08
8.76964e-09
-1.21605e-08
8.17206e-09
-1.31876e-08
7.51133e-09
-1.4117e-08
6.79154e-09
-1.49411e-08
6.01728e-09
-1.56532e-08
5.19358e-09
-1.62472e-08
4.32592e-09
-1.67178e-08
3.42023e-09
-1.70606e-08
2.48286e-09
-1.72721e-08
1.52054e-09
-1.73498e-08
5.40362e-10
-1.7292e-08
-4.50245e-10
-1.70984e-08
-1.44359e-09
-1.67695e-08
-2.43177e-09
-1.63069e-08
-3.40671e-09
-1.57136e-08
-4.36028e-09
-1.49934e-08
-5.28431e-09
-1.41514e-08
-6.17073e-09
-1.31938e-08
-7.01164e-09
-1.21278e-08
-7.79939e-09
-1.09617e-08
-8.5267e-09
-9.70469e-09
-9.18671e-09
-8.36682e-09
-9.77313e-09
-6.95901e-09
-1.02803e-08
-5.49284e-09
-1.07032e-08
-4.8264e-09
-4.86438e-09
-4.15193e-09
-4.92249e-09
-3.47056e-09
-4.97251e-09
-2.78341e-09
-5.01435e-09
-2.09162e-09
-5.04792e-09
-1.39636e-09
-5.07316e-09
-6.9876e-10
-5.09001e-09
6.70115e-17
-5.09845e-09
6.9876e-10
-5.09845e-09
1.39636e-09
-5.09001e-09
2.09162e-09
-5.07316e-09
2.78341e-09
-5.04792e-09
3.47056e-09
-5.01435e-09
4.15193e-09
-4.97251e-09
4.8264e-09
-4.92249e-09
5.49284e-09
-4.86438e-09
6.95901e-09
-1.07032e-08
8.36682e-09
-1.02803e-08
9.70469e-09
-9.77313e-09
1.09617e-08
-9.18671e-09
1.21278e-08
-8.5267e-09
1.31938e-08
-7.79939e-09
1.41514e-08
-7.01164e-09
1.49934e-08
-6.17073e-09
1.57136e-08
-5.28431e-09
1.63069e-08
-4.36028e-09
1.67695e-08
-3.40671e-09
1.70984e-08
-2.43177e-09
1.7292e-08
-1.44359e-09
1.73498e-08
-4.50245e-10
1.72721e-08
5.40362e-10
1.70606e-08
1.52054e-09
1.67178e-08
2.48286e-09
1.62472e-08
3.42023e-09
1.56532e-08
4.32592e-09
1.49411e-08
5.19358e-09
1.4117e-08
6.01728e-09
1.31876e-08
6.79154e-09
1.21605e-08
7.51133e-09
1.10437e-08
8.17206e-09
9.84582e-09
8.76964e-09
8.57599e-09
9.30042e-09
7.2437e-09
9.76123e-09
5.85883e-09
1.01493e-08
4.43154e-09
1.04625e-08
2.97224e-09
1.0699e-08
1.49149e-09
1.08574e-08
1.09368e-08
-1.66473e-09
1.26015e-08
-3.31751e-09
1.25101e-08
-4.94644e-09
1.23279e-08
-6.53978e-09
1.20559e-08
-8.08594e-09
1.16955e-08
-9.5736e-09
1.12489e-08
-1.09918e-08
1.07186e-08
-1.23299e-08
1.01077e-08
-1.35777e-08
9.41992e-09
-1.47257e-08
8.65932e-09
-1.57648e-08
7.83065e-09
-1.66867e-08
6.93914e-09
-1.74837e-08
5.99057e-09
-1.8149e-08
4.99123e-09
-1.86767e-08
3.94792e-09
-1.90618e-08
2.86794e-09
-1.93002e-08
1.75902e-09
-1.93892e-08
6.29331e-10
-1.93269e-08
-5.12579e-10
-1.91126e-08
-1.65785e-09
-1.8747e-08
-2.79736e-09
-1.82319e-08
-3.92181e-09
-1.75704e-08
-5.02179e-09
-1.67668e-08
-6.08788e-09
-1.58268e-08
-7.11075e-09
-1.47572e-08
-8.08124e-09
-1.35661e-08
-8.99052e-09
-1.22626e-08
-9.83014e-09
-1.08572e-08
-1.05922e-08
-9.361e-09
-1.12693e-08
-7.78631e-09
-1.1855e-08
-6.14611e-09
-1.23434e-08
-5.40048e-09
-5.61e-09
-4.64585e-09
-5.67712e-09
-3.88347e-09
-5.7349e-09
-3.11459e-09
-5.78322e-09
-2.34052e-09
-5.822e-09
-1.56252e-09
-5.85115e-09
-7.81915e-10
-5.87062e-09
7.19996e-17
-5.88036e-09
7.81915e-10
-5.88036e-09
1.56252e-09
-5.87062e-09
2.34052e-09
-5.85115e-09
3.11459e-09
-5.822e-09
3.88347e-09
-5.78322e-09
4.64585e-09
-5.7349e-09
5.40048e-09
-5.67712e-09
6.14611e-09
-5.61e-09
7.78631e-09
-1.23434e-08
9.361e-09
-1.1855e-08
1.08572e-08
-1.12693e-08
1.22626e-08
-1.05922e-08
1.35661e-08
-9.83014e-09
1.47572e-08
-8.99052e-09
1.58268e-08
-8.08124e-09
1.67668e-08
-7.11075e-09
1.75704e-08
-6.08788e-09
1.82319e-08
-5.02179e-09
1.8747e-08
-3.92181e-09
1.91126e-08
-2.79736e-09
1.93269e-08
-1.65785e-09
1.93892e-08
-5.12579e-10
1.93002e-08
6.29331e-10
1.90618e-08
1.75902e-09
1.86767e-08
2.86794e-09
1.8149e-08
3.94792e-09
1.74837e-08
4.99123e-09
1.66867e-08
5.99057e-09
1.57648e-08
6.93914e-09
1.47257e-08
7.83065e-09
1.35777e-08
8.65932e-09
1.23299e-08
9.41992e-09
1.09918e-08
1.01077e-08
9.5736e-09
1.07186e-08
8.08594e-09
1.12489e-08
6.53978e-09
1.16955e-08
4.94644e-09
1.20559e-08
3.31751e-09
1.23279e-08
1.66473e-09
1.25101e-08
1.26015e-08
-1.86581e-09
1.44673e-08
-3.71829e-09
1.43626e-08
-5.54417e-09
1.41538e-08
-7.33033e-09
1.3842e-08
-9.06386e-09
1.3429e-08
-1.07321e-08
1.29171e-08
-1.23228e-08
1.23093e-08
-1.3824e-08
1.1609e-08
-1.52245e-08
1.08204e-08
-1.65134e-08
9.94819e-09
-1.76805e-08
8.9978e-09
-1.87166e-08
7.97517e-09
-1.96129e-08
6.88689e-09
-2.03618e-08
5.74015e-09
-2.09566e-08
4.54272e-09
-2.13916e-08
3.30293e-09
-2.16622e-08
2.02965e-09
-2.17652e-08
7.32251e-10
-2.16983e-08
-5.79482e-10
-2.14607e-08
-1.89537e-09
-2.10532e-08
-3.20493e-09
-2.04775e-08
-4.49747e-09
-1.97371e-08
-5.76215e-09
-1.88369e-08
-6.98813e-09
-1.7783e-08
-8.16464e-09
-1.65831e-08
-9.28114e-09
-1.52462e-08
-1.03274e-08
-1.37827e-08
-1.12937e-08
-1.22041e-08
-1.21708e-08
-1.05231e-08
-1.29503e-08
-8.75349e-09
-1.36246e-08
-6.90991e-09
-1.4187e-08
-6.07174e-09
-6.44816e-09
-5.2234e-09
-6.52546e-09
-4.36631e-09
-6.592e-09
-3.50188e-09
-6.64765e-09
-2.63157e-09
-6.69231e-09
-1.75684e-09
-6.72588e-09
-8.7916e-10
-6.7483e-09
8.33845e-17
-6.75952e-09
8.7916e-10
-6.75952e-09
1.75684e-09
-6.7483e-09
2.63157e-09
-6.72588e-09
3.50188e-09
-6.69231e-09
4.36631e-09
-6.64765e-09
5.2234e-09
-6.592e-09
6.07174e-09
-6.52546e-09
6.90991e-09
-6.44816e-09
8.75349e-09
-1.4187e-08
1.05231e-08
-1.36246e-08
1.22041e-08
-1.29503e-08
1.37827e-08
-1.21708e-08
1.52462e-08
-1.12937e-08
1.65831e-08
-1.03274e-08
1.7783e-08
-9.28114e-09
1.88369e-08
-8.16464e-09
1.97371e-08
-6.98813e-09
2.04775e-08
-5.76215e-09
2.10532e-08
-4.49747e-09
2.14607e-08
-3.20493e-09
2.16983e-08
-1.89537e-09
2.17652e-08
-5.79482e-10
2.16622e-08
7.32251e-10
2.13916e-08
2.02965e-09
2.09566e-08
3.30293e-09
2.03618e-08
4.54272e-09
1.96129e-08
5.74015e-09
1.87166e-08
6.88689e-09
1.76805e-08
7.97517e-09
1.65134e-08
8.9978e-09
1.52245e-08
9.94819e-09
1.3824e-08
1.08204e-08
1.23228e-08
1.1609e-08
1.07321e-08
1.23093e-08
9.06386e-09
1.29171e-08
7.33033e-09
1.3429e-08
5.54417e-09
1.3842e-08
3.71829e-09
1.41538e-08
1.86581e-09
1.43626e-08
1.44673e-08
-2.10146e-09
1.65688e-08
-4.18799e-09
1.64492e-08
-6.24475e-09
1.62106e-08
-8.25703e-09
1.58543e-08
-1.02103e-08
1.53824e-08
-1.20905e-08
1.47973e-08
-1.38838e-08
1.41025e-08
-1.55768e-08
1.3302e-08
-1.71567e-08
1.24003e-08
-1.86115e-08
1.14029e-08
-1.99296e-08
1.03159e-08
-2.11004e-08
9.14601e-09
-2.21143e-08
7.90072e-09
-2.29623e-08
6.58821e-09
-2.3637e-08
5.21735e-09
-2.41317e-08
3.79763e-09
-2.44412e-08
2.33917e-09
-2.45616e-08
8.52664e-10
-2.44904e-08
-6.5068e-10
-2.42265e-08
-2.15921e-09
-2.37706e-08
-3.66091e-09
-2.31245e-08
-5.1435e-09
-2.22922e-08
-6.59453e-09
-2.12788e-08
-8.00153e-09
-2.00913e-08
-9.35211e-09
-1.87383e-08
-1.06341e-08
-1.723e-08
-1.18357e-08
-1.55779e-08
-1.29457e-08
-1.37952e-08
-1.39535e-08
-1.18962e-08
-1.48493e-08
-9.89648e-09
-1.56243e-08
-7.81268e-09
-1.62708e-08
-6.86517e-09
-7.39567e-09
-5.9061e-09
-7.48453e-09
-4.93707e-09
-7.56103e-09
-3.9597e-09
-7.62502e-09
-2.97565e-09
-7.67636e-09
-1.98657e-09
-7.71496e-09
-9.94123e-10
-7.74074e-09
6.10508e-17
-7.75364e-09
9.94123e-10
-7.75364e-09
1.98657e-09
-7.74074e-09
2.97565e-09
-7.71496e-09
3.9597e-09
-7.67636e-09
4.93707e-09
-7.62502e-09
5.9061e-09
-7.56103e-09
6.86517e-09
-7.48453e-09
7.81268e-09
-7.39567e-09
9.89648e-09
-1.62708e-08
1.18962e-08
-1.56243e-08
1.37952e-08
-1.48493e-08
1.55779e-08
-1.39535e-08
1.723e-08
-1.29457e-08
1.87383e-08
-1.18357e-08
2.00913e-08
-1.06341e-08
2.12788e-08
-9.35211e-09
2.22922e-08
-8.00153e-09
2.31245e-08
-6.59453e-09
2.37706e-08
-5.1435e-09
2.42265e-08
-3.66091e-09
2.44904e-08
-2.15921e-09
2.45616e-08
-6.5068e-10
2.44412e-08
8.52664e-10
2.41317e-08
2.33917e-09
2.36369e-08
3.79763e-09
2.29623e-08
5.21735e-09
2.21143e-08