/*--------------------------------*- C++ -*----------------------------------*\
  =========                 |
  \\      /  F ield         | OpenFOAM: The Open Source CFD Toolbox
   \\    /   O peration     | Website:  https://openfoam.org
    \\  /    A nd           | Version:  10
     \\/     M anipulation  |
\*---------------------------------------------------------------------------*/
FoamFile
{
    format      ascii;
    class       volVectorField;
    location    "1.24";
    object      Ua;
}
// * * * * * * * * * * * * * * * * * * * * * * * * * * * * * * * * * * * * * //

dimensions      [0 1 -1 0 0 0 0];

internalField   nonuniform List<vector> 
12225
(
(3.50008e-05 -4.50446e-06 0)
(0.000102337 -4.21925e-06 0)
(0.000163431 -3.6958e-06 0)
(0.000217326 -3.10657e-06 0)
(0.000264443 -2.56778e-06 0)
(0.000305894 -2.137e-06 0)
(0.000342991 -1.83381e-06 0)
(0.000376992 -1.6601e-06 0)
(0.000409022 -1.61434e-06 0)
(0.000440088 -1.70075e-06 0)
(0.000471158 -1.93706e-06 0)
(0.000503272 -2.36496e-06 0)
(0.000537738 -3.07073e-06 0)
(0.000576483 -4.23445e-06 0)
(0.000622866 -6.26767e-06 0)
(0.000683972 -1.02869e-05 0)
(0.000779282 -2.02762e-05 0)
(0.000987306 -5.68586e-05 0)
(2.38513e-05 -1.16884e-05 0)
(7.02524e-05 -1.10169e-05 0)
(0.000113484 -9.71679e-06 0)
(0.000152846 -8.22369e-06 0)
(0.000188375 -6.84123e-06 0)
(0.000220548 -5.72722e-06 0)
(0.000250035 -4.94132e-06 0)
(0.00027754 -4.49578e-06 0)
(0.000303741 -4.39233e-06 0)
(0.000329281 -4.6471e-06 0)
(0.000354805 -5.31188e-06 0)
(0.000381031 -6.50284e-06 0)
(0.000408866 -8.4559e-06 0)
(0.000439622 -1.16559e-05 0)
(0.000475461 -1.71845e-05 0)
(0.000520351 -2.78346e-05 0)
(0.000581428 -5.25132e-05 0)
(0.000657087 -0.000128106 0)
(1.85455e-05 -1.61097e-05 0)
(5.49671e-05 -1.53229e-05 0)
(8.96518e-05 -1.36449e-05 0)
(0.000122042 -1.16541e-05 0)
(0.000152017 -9.7747e-06 0)
(0.000179773 -8.24211e-06 0)
(0.00020568 -7.15699e-06 0)
(0.000230176 -6.55137e-06 0)
(0.000253715 -6.43952e-06 0)
(0.000276753 -6.8542e-06 0)
(0.000299764 -7.87833e-06 0)
(0.000323281 -9.68689e-06 0)
(0.000347967 -1.2625e-05 0)
(0.000374723 -1.7381e-05 0)
(0.000404841 -2.54208e-05 0)
(0.000439995 -4.02002e-05 0)
(0.000480286 -7.0855e-05 0)
(0.000508803 -0.000142797 0)
(1.51006e-05 -1.90021e-05 0)
(4.5016e-05 -1.82444e-05 0)
(7.407e-05 -1.64011e-05 0)
(0.000101807 -1.41321e-05 0)
(0.000128029 -1.19461e-05 0)
(0.000152771 -1.01421e-05 0)
(0.00017622 -8.86094e-06 0)
(0.000198645 -8.15853e-06 0)
(0.000220351 -8.06597e-06 0)
(0.000241665 -8.63415e-06 0)
(0.000262935 -9.97314e-06 0)
(0.000284552 -1.23027e-05 0)
(0.000306975 -1.60414e-05 0)
(0.000330754 -2.19903e-05 0)
(0.000356464 -3.1746e-05 0)
(0.00038416 -4.86606e-05 0)
(0.00041078 -7.98985e-05 0)
(0.000420664 -0.000138643 0)
(1.25902e-05 -2.07998e-05 0)
(3.77418e-05 -2.01668e-05 0)
(6.26215e-05 -1.83006e-05 0)
(8.68535e-05 -1.59036e-05 0)
(0.000110205 -1.35445e-05 0)
(0.000132611 -1.15745e-05 0)
(0.000154136 -1.01725e-05 0)
(0.000174929 -9.41974e-06 0)
(0.000195186 -9.36593e-06 0)
(0.000215133 -1.00796e-05 0)
(0.000235013 -1.16927e-05 0)
(0.000255095 -1.44544e-05 0)
(0.000275661 -1.88202e-05 0)
(0.000296963 -2.5617e-05 0)
(0.000319026 -3.63641e-05 0)
(0.000340962 -5.38482e-05 0)
(0.000358923 -8.27834e-05 0)
(0.000361849 -0.000128398 0)
(1.06472e-05 -2.17264e-05 0)
(3.20929e-05 -2.12859e-05 0)
(5.36808e-05 -1.94991e-05 0)
(7.51008e-05 -1.70859e-05 0)
(9.61089e-05 -1.4656e-05 0)
(0.000116578 -1.26034e-05 0)
(0.000136491 -1.11411e-05 0)
(0.000155906 -1.03757e-05 0)
(0.000174933 -1.03753e-05 0)
(0.000193714 -1.12242e-05 0)
(0.000212405 -1.30695e-05 0)
(0.000231164 -1.61738e-05 0)
(0.000250123 -2.09942e-05 0)
(0.000269296 -2.83098e-05 0)
(0.000288347 -3.94218e-05 0)
(0.000305987 -5.63797e-05 0)
(0.000318746 -8.18253e-05 0)
(0.000319692 -0.00011685 0)
(9.08817e-06 -2.19213e-05 0)
(2.75437e-05 -2.17216e-05 0)
(4.64373e-05 -2.00887e-05 0)
(6.5513e-05 -1.77441e-05 0)
(8.45314e-05 -1.5325e-05 0)
(0.000103331 -1.32585e-05 0)
(0.000121836 -1.17874e-05 0)
(0.000140038 -1.10413e-05 0)
(0.000157978 -1.11057e-05 0)
(0.000175724 -1.20774e-05 0)
(0.000193358 -1.41111e-05 0)
(0.000210943 -1.74672e-05 0)
(0.000228488 -2.25739e-05 0)
(0.000245837 -3.01093e-05 0)
(0.000262461 -4.10899e-05 0)
(0.000277036 -5.6859e-05 0)
(0.000286871 -7.86181e-05 0)
(0.000287918 -0.000105712 0)
(7.80744e-06 -2.14842e-05 0)
(2.37924e-05 -2.15573e-05 0)
(4.0426e-05 -2.01303e-05 0)
(5.74975e-05 -1.79184e-05 0)
(7.47836e-05 -1.55753e-05 0)
(9.21069e-05 -1.35528e-05 0)
(0.000109352 -1.21175e-05 0)
(0.000126459 -1.14188e-05 0)
(0.000143412 -1.15569e-05 0)
(0.000160221 -1.26371e-05 0)
(0.000176897 -1.48144e-05 0)
(0.000193431 -1.83329e-05 0)
(0.000209732 -2.35694e-05 0)
(0.000225546 -3.10721e-05 0)
(0.000240281 -4.15667e-05 0)
(0.000252772 -5.58265e-05 0)
(0.000261114 -7.41904e-05 0)
(0.000263061 -9.54941e-05 0)
(6.73833e-06 -2.04953e-05 0)
(2.06479e-05 -2.08584e-05 0)
(3.53524e-05 -1.9669e-05 0)
(5.06805e-05 -1.76358e-05 0)
(6.64328e-05 -1.54207e-05 0)
(8.24291e-05 -1.3491e-05 0)
(9.85285e-05 -1.21305e-05 0)
(0.000114633 -1.15041e-05 0)
(0.000130681 -1.17229e-05 0)
(0.000146628 -1.28967e-05 0)
(0.000162434 -1.51734e-05 0)
(0.000178024 -1.87706e-05 0)
(0.000193249 -2.39998e-05 0)
(0.000207801 -3.12729e-05 0)
(0.000221117 -4.10597e-05 0)
(0.000232264 -5.37275e-05 0)
(0.000239973 -6.91708e-05 0)
(0.000243049 -8.62508e-05 0)
(5.83533e-06 -1.90268e-05 0)
(1.79794e-05 -1.96808e-05 0)
(3.10152e-05 -1.87419e-05 0)
(4.48074e-05 -1.69167e-05 0)
(5.91864e-05 -1.48694e-05 0)
(7.39788e-05 -1.30734e-05 0)
(8.90289e-05 -1.18221e-05 0)
(0.000104209 -1.12903e-05 0)
(0.000119419 -1.15957e-05 0)
(0.000134575 -1.28482e-05 0)
(0.000149588 -1.51833e-05 0)
(0.000164342 -1.87852e-05 0)
(0.000178647 -2.38957e-05 0)
(0.000192191 -3.08004e-05 0)
(0.000204479 -3.97676e-05 0)
(0.000214813 -5.09059e-05 0)
(0.000222381 -6.39249e-05 0)
(0.000226573 -7.78876e-05 0)
(5.06511e-06 -1.71496e-05 0)
(1.56906e-05 -1.80768e-05 0)
(2.72659e-05 -1.73819e-05 0)
(3.96918e-05 -1.5779e-05 0)
(5.2833e-05 -1.39284e-05 0)
(6.65288e-05 -1.22999e-05 0)
(8.06153e-05 -1.11877e-05 0)
(9.49424e-05 -1.07703e-05 0)
(0.000109379 -1.11678e-05 0)
(0.000123807 -1.24857e-05 0)
(0.000138105 -1.48434e-05 0)
(0.000152124 -1.83889e-05 0)
(0.00016566 -2.32978e-05 0)
(0.000178418 -2.97496e-05 0)
(0.000189991 -3.78679e-05 0)
(0.000199876 -4.76149e-05 0)
(0.00020757 -5.86565e-05 0)
(0.000212774 -7.02771e-05 0)
(4.34786e-06 -1.51073e-05 0)
(1.35672e-05 -1.62584e-05 0)
(2.38091e-05 -1.57733e-05 0)
(3.50069e-05 -1.43813e-05 0)
(4.70483e-05 -1.27325e-05 0)
(5.97763e-05 -1.1284e-05 0)
(7.30159e-05 -1.03237e-05 0)
(8.65972e-05 -1.00282e-05 0)
(0.000100365 -1.05161e-05 0)
(0.000114176 -1.18866e-05 0)
(0.000127886 -1.42425e-05 0)
(0.000141331 -1.76993e-05 0)
(0.000154308 -2.23786e-05 0)
(0.000166551 -2.83823e-05 0)
(0.000177732 -3.57431e-05 0)
(0.000187485 -4.43529e-05 0)
(0.000195485 -5.38942e-05 0)
(0.00020157 -6.38263e-05 0)
(3.87826e-06 -1.28598e-05 0)
(1.21456e-05 -1.41755e-05 0)
(2.14291e-05 -1.38622e-05 0)
(3.17027e-05 -1.26706e-05 0)
(4.28882e-05 -1.1232e-05 0)
(5.48439e-05 -9.98078e-06 0)
(6.7394e-05 -9.19008e-06 0)
(8.03581e-05 -9.02914e-06 0)
(9.35651e-05 -9.61155e-06 0)
(0.000106854 -1.10281e-05 0)
(0.000120064 -1.3365e-05 0)
(0.000133024 -1.67086e-05 0)
(0.000145532 -2.11371e-05 0)
(0.000157355 -2.6697e-05 0)
(0.000168227 -3.33661e-05 0)
(0.000177881 -4.10096e-05 0)
(0.000186109 -4.9349e-05 0)
(0.000192833 -5.79753e-05 0)
(3.4066e-06 -1.01646e-05 0)
(1.06961e-05 -1.15559e-05 0)
(1.89737e-05 -1.13692e-05 0)
(2.82825e-05 -1.03796e-05 0)
(3.85828e-05 -9.18183e-06 0)
(4.97438e-05 -8.16941e-06 0)
(6.15848e-05 -7.58834e-06 0)
(7.39127e-05 -7.59298e-06 0)
(8.65409e-05 -8.28713e-06 0)
(9.92927e-05 -9.74995e-06 0)
(0.000111996 -1.2049e-05 0)
(0.000124474 -1.52421e-05 0)
(0.000136538 -1.93689e-05 0)
(0.000147988 -2.44336e-05 0)
(0.000158618 -3.03806e-05 0)
(0.000168246 -3.70727e-05 0)
(0.000176747 -4.42828e-05 0)
(0.000184088 -5.1714e-05 0)
(2.91018e-06 -7.07091e-06 0)
(9.15409e-06 -8.33142e-06 0)
(1.63599e-05 -8.17944e-06 0)
(2.46782e-05 -7.38043e-06 0)
(3.40997e-05 -6.45485e-06 0)
(4.44864e-05 -5.72685e-06 0)
(5.56381e-05 -5.39895e-06 0)
(6.73423e-05 -5.60201e-06 0)
(7.93962e-05 -6.42511e-06 0)
(9.1611e-05 -7.933e-06 0)
(0.000103809 -1.01747e-05 0)
(0.000115817 -1.31838e-05 0)
(0.000127469 -1.69717e-05 0)
(0.000138602 -2.15169e-05 0)
(0.000149069 -2.67517e-05 0)
(0.000158752 -3.25539e-05 0)
(0.000167579 -3.87488e-05 0)
(0.000175537 -4.51267e-05 0)
(2.2851e-06 -3.6851e-06 0)
(7.25673e-06 -4.43053e-06 0)
(1.32703e-05 -4.18966e-06 0)
(2.06056e-05 -3.57454e-06 0)
(2.92307e-05 -2.9591e-06 0)
(3.89472e-05 -2.56085e-06 0)
(4.94964e-05 -2.5229e-06 0)
(6.06266e-05 -2.94693e-06 0)
(7.21194e-05 -3.90639e-06 0)
(8.37899e-05 -5.45436e-06 0)
(9.54802e-05 -7.62913e-06 0)
(0.000107051 -1.0449e-05 0)
(0.000118372 -1.39095e-05 0)
(0.000129326 -1.79774e-05 0)
(0.000139806 -2.25851e-05 0)
(0.000149728 -2.76298e-05 0)
(0.000159038 -3.29788e-05 0)
(0.000167716 -3.84823e-05 0)
(1.15601e-06 1.20407e-08 0)
(4.01988e-06 2.75836e-07 0)
(8.36121e-06 6.4208e-07 0)
(1.44948e-05 1.01089e-06 0)
(2.21975e-05 1.27299e-06 0)
(3.11532e-05 1.31495e-06 0)
(4.10811e-05 1.03741e-06 0)
(5.17388e-05 3.62847e-07 0)
(6.29103e-05 -7.64783e-07 0)
(7.44166e-05 -2.42745e-06 0)
(8.61342e-05 -4.66713e-06 0)
(9.79281e-05 -7.42395e-06 0)
(0.000109634 -1.06853e-05 0)
(0.000121109 -1.44132e-05 0)
(0.000132236 -1.85445e-05 0)
(0.00014292 -2.29942e-05 0)
(0.000153099 -2.76611e-05 0)
(0.000162736 -3.2437e-05 0)
(2.71818e-06 4.40845e-06 0)
(8.3213e-06 5.96719e-06 0)
(1.44688e-05 6.66007e-06 0)
(2.14829e-05 6.85933e-06 0)
(2.94943e-05 6.74111e-06 0)
(3.84748e-05 6.33471e-06 0)
(4.82966e-05 5.61571e-06 0)
(5.87886e-05 4.55122e-06 0)
(6.97701e-05 3.11521e-06 0)
(8.10531e-05 1.24825e-06 0)
(9.24305e-05 -1.07022e-06 0)
(0.000103784 -3.90205e-06 0)
(0.000115086 -7.16858e-06 0)
(0.000126255 -1.0736e-05 0)
(0.00013718 -1.45519e-05 0)
(0.000147769 -1.85516e-05 0)
(0.000157959 -2.26632e-05 0)
(0.000167708 -2.68132e-05 0)
(3.79288e-06 1.04477e-05 0)
(1.16353e-05 1.28487e-05 0)
(2e-05 1.39283e-05 0)
(2.89258e-05 1.4076e-05 0)
(3.84559e-05 1.35957e-05 0)
(4.85872e-05 1.26665e-05 0)
(5.92611e-05 1.13802e-05 0)
(7.03777e-05 9.78112e-06 0)
(8.18149e-05 7.89149e-06 0)
(9.34443e-05 5.72597e-06 0)
(0.000105141 3.30083e-06 0)
(0.000116748 4.99147e-07 0)
(0.000128091 -2.59244e-06 0)
(0.000139133 -6.03381e-06 0)
(0.000149876 -9.57659e-06 0)
(0.000160266 -1.31786e-05 0)
(0.000170266 -1.6795e-05 0)
(0.000179856 -2.03815e-05 0)
(4.32377e-06 1.71259e-05 0)
(1.33477e-05 1.95133e-05 0)
(2.30661e-05 2.0551e-05 0)
(3.33875e-05 2.04991e-05 0)
(4.42493e-05 1.96587e-05 0)
(5.5584e-05 1.82665e-05 0)
(6.73054e-05 1.64837e-05 0)
(7.93101e-05 1.44131e-05 0)
(9.14862e-05 1.21188e-05 0)
(0.000103721 9.64263e-06 0)
(0.000115909 7.01522e-06 0)
(0.000127954 4.26192e-06 0)
(0.000139773 1.41082e-06 0)
(0.000151215 -1.70281e-06 0)
(0.000162234 -5.00241e-06 0)
(0.00017288 -8.27459e-06 0)
(0.000183122 -1.14938e-05 0)
(0.000192944 -1.46355e-05 0)
(5.14774e-06 2.28414e-05 0)
(1.58054e-05 2.47657e-05 0)
(2.71304e-05 2.54177e-05 0)
(3.90112e-05 2.49864e-05 0)
(5.13411e-05 2.37502e-05 0)
(6.40161e-05 2.19574e-05 0)
(7.69293e-05 1.97936e-05 0)
(8.99712e-05 1.73862e-05 0)
(0.000103034 1.48183e-05 0)
(0.000116015 1.21439e-05 0)
(0.000128822 9.39941e-06 0)
(0.000141375 6.61154e-06 0)
(0.000153609 3.80272e-06 0)
(0.00016547 9.90849e-07 0)
(0.000176845 -2.00398e-06 0)
(0.000187713 -5.03894e-06 0)
(0.000198139 -7.97688e-06 0)
(0.000208111 -1.08049e-05 0)
(6.15714e-06 2.74427e-05 0)
(1.87764e-05 2.88192e-05 0)
(3.19608e-05 2.89846e-05 0)
(4.5602e-05 2.81155e-05 0)
(5.95712e-05 2.64807e-05 0)
(7.37401e-05 2.43303e-05 0)
(8.79858e-05 2.18585e-05 0)
(0.000102193 1.92021e-05 0)
(0.000116258 1.64511e-05 0)
(0.000130087 1.36627e-05 0)
(0.000143601 1.08732e-05 0)
(0.000156737 8.10646e-06 0)
(0.000169443 5.37987e-06 0)
(0.000181683 2.70732e-06 0)
(0.000193418 6.25895e-08 0)
(0.000204594 -2.68902e-06 0)
(0.000215216 -5.36405e-06 0)
(0.000225329 -7.90857e-06 0)
(7.37967e-06 3.06468e-05 0)
(2.23609e-05 3.15002e-05 0)
(3.77467e-05 3.11835e-05 0)
(5.34293e-05 2.98952e-05 0)
(6.92669e-05 2.79067e-05 0)
(8.51171e-05 2.54686e-05 0)
(0.000100849 2.27756e-05 0)
(0.000116349 1.99642e-05 0)
(0.000131518 1.71231e-05 0)
(0.000146279 1.43068e-05 0)
(0.000160568 1.15473e-05 0)
(0.000174337 8.86308e-06 0)
(0.000187556 6.26531e-06 0)
(0.000200202 3.76127e-06 0)
(0.000212267 1.35639e-06 0)
(0.000223707 -1.04696e-06 0)
(0.000234531 -3.46051e-06 0)
(0.000244795 -5.73287e-06 0)
(8.85424e-06 3.2329e-05 0)
(2.66787e-05 3.27262e-05 0)
(4.46906e-05 3.19912e-05 0)
(6.27708e-05 3.03554e-05 0)
(8.07667e-05 2.80984e-05 0)
(9.853e-05 2.5469e-05 0)
(0.000115932 2.26571e-05 0)
(0.000132866 1.97929e-05 0)
(0.000149252 1.69584e-05 0)
(0.00016503 1.42012e-05 0)
(0.000180158 1.15466e-05 0)
(0.00019461 9.00645e-06 0)
(0.000208375 6.58548e-06 0)
(0.000221451 4.2847e-06 0)
(0.000233846 2.10358e-06 0)
(0.000245568 2.24632e-08 0)
(0.000256608 -2.10167e-06 0)
(0.000266994 -4.10566e-06 0)
(1.06406e-05 3.24469e-05 0)
(3.1905e-05 3.24721e-05 0)
(5.30736e-05 3.14164e-05 0)
(7.40008e-05 2.95405e-05 0)
(9.45227e-05 2.71295e-05 0)
(0.000114493 2.44265e-05 0)
(0.000133794 2.16113e-05 0)
(0.000152343 1.88033e-05 0)
(0.000170084 1.60743e-05 0)
(0.000186985 1.34629e-05 0)
(0.000203032 1.09866e-05 0)
(0.000218228 8.6503e-06 0)
(0.000232584 6.45285e-06 0)
(0.000246123 4.38996e-06 0)
(0.00025887 2.45641e-06 0)
(0.00027086 6.46967e-07 0)
(0.000282093 -1.15583e-06 0)
(0.000292607 -2.8923e-06 0)
(1.28351e-05 3.09875e-05 0)
(3.83198e-05 3.0734e-05 0)
(6.334e-05 2.94763e-05 0)
(8.77059e-05 2.74924e-05 0)
(0.000111241 2.50638e-05 0)
(0.000133811 2.2421e-05 0)
(0.000155324 1.97285e-05 0)
(0.000175732 1.70911e-05 0)
(0.000195019 1.45682e-05 0)
(0.000213193 1.21885e-05 0)
(0.000230278 9.96173e-06 0)
(0.000246309 7.8869e-06 0)
(0.00026133 5.95779e-06 0)
(0.000275387 4.16618e-06 0)
(0.000288532 2.50349e-06 0)
(0.000300816 9.61559e-07 0)
(0.000312266 -5.20213e-07 0)
(0.000322934 -1.98792e-06 0)
(1.56085e-05 2.79215e-05 0)
(4.64194e-05 2.74896e-05 0)
(7.62767e-05 2.61656e-05 0)
(0.000104926 2.42257e-05 0)
(0.000132177 2.19344e-05 0)
(0.000157919 1.95002e-05 0)
(0.000182105 1.7066e-05 0)
(0.000204743 1.47191e-05 0)
(0.000225873 1.25054e-05 0)
(0.000245558 1.0444e-05 0)
(0.000263873 8.53778e-06 0)
(0.000280897 6.78112e-06 0)
(0.00029671 5.16453e-06 0)
(0.000311393 3.67742e-06 0)
(0.000325024 2.30948e-06 0)
(0.000337675 1.05125e-06 0)
(0.000349409 -1.20091e-07 0)
(0.000360283 -1.31531e-06 0)
(1.93096e-05 2.31396e-05 0)
(5.72196e-05 2.26392e-05 0)
(9.34991e-05 2.14037e-05 0)
(0.000127799 1.96831e-05 0)
(0.000159917 1.77065e-05 0)
(0.000189783 1.56479e-05 0)
(0.000217426 1.36223e-05 0)
(0.000242934 1.16966e-05 0)
(0.000266433 9.90298e-06 0)
(0.000288063 8.25189e-06 0)
(0.000307967 6.74132e-06 0)
(0.000326284 5.36298e-06 0)
(0.000343145 4.10619e-06 0)
(0.00035867 2.95991e-06 0)
(0.000372972 1.91382e-06 0)
(0.000386154 9.58696e-07 0)
(0.00039831 8.6592e-08 0)
(0.000409508 -8.20354e-07 0)
(2.48557e-05 1.63058e-05 0)
(7.33984e-05 1.58663e-05 0)
(0.000119279 1.49092e-05 0)
(0.000162002 1.3625e-05 0)
(0.000201356 1.2182e-05 0)
(0.000237347 1.07043e-05 0)
(0.000270123 9.27071e-06 0)
(0.00029991 7.92467e-06 0)
(0.000326964 6.68504e-06 0)
(0.000351546 5.55569e-06 0)
(0.000373902 4.53232e-06 0)
(0.000394256 3.6068e-06 0)
(0.000412813 2.76981e-06 0)
(0.000429753 2.01221e-06 0)
(0.000445237 1.32566e-06 0)
(0.000459409 7.02827e-07 0)
(0.000472395 1.37239e-07 0)
(0.000484308 -4.7139e-07 0)
(3.71141e-05 6.16904e-06 0)
(0.000109233 5.98263e-06 0)
(0.000176583 5.60061e-06 0)
(0.000238382 5.09851e-06 0)
(0.000294412 4.54175e-06 0)
(0.000344852 3.97746e-06 0)
(0.000390108 3.4349e-06 0)
(0.000430687 2.92952e-06 0)
(0.000467115 2.4675e-06 0)
(0.00049989 2.04943e-06 0)
(0.000529462 1.67296e-06 0)
(0.000556227 1.33448e-06 0)
(0.000580526 1.03004e-06 0)
(0.000602654 7.55856e-07 0)
(0.000622866 5.08534e-07 0)
(0.000641379 2.85111e-07 0)
(0.000658382 8.2969e-08 0)
(0.000673958 -1.47114e-07 0)
(0.00017609 -0.000376384 -4.86257e-30)
(0.000529397 -0.00037521 4.84323e-30)
(0.000884009 -0.000373021 0)
(0.00123896 -0.000369833 0)
(0.0015933 -0.000365691 0)
(0.0019461 -0.000360668 -4.63856e-30)
(0.00229648 -0.000354852 0)
(0.00264366 -0.000348327 0)
(0.00298688 -0.000341163 0)
(0.00332543 -0.000333397 0)
(0.00365861 -0.000325042 4.15787e-30)
(0.00398571 -0.000316096 0)
(0.004306 -0.000306564 0)
(0.00461875 -0.000296467 0)
(0.00492325 -0.000285841 0)
(0.0052188 -0.000274731 3.48921e-30)
(0.00550474 -0.000263193 0)
(0.00578049 -0.000251287 0)
(0.00604549 -0.000239084 0)
(0.00629926 -0.000226667 0)
(0.00654142 -0.000214128 0)
(0.00677168 -0.000201568 0)
(0.00698987 -0.000189088 0)
(0.0071959 -0.000176787 2.19998e-30)
(0.00738983 -0.000164757 -2.0422e-30)
(0.0075718 -0.000153077 1.88909e-30)
(0.00774203 -0.000141817 1.74154e-30)
(0.00790084 -0.000131031 0)
(0.00804862 -0.000120764 0)
(0.0081858 -0.000111047 -1.33862e-30)
(0.00831287 -0.000101901 -1.2189e-30)
(0.00843033 -9.33343e-05 0)
(0.00853873 -8.53494e-05 0)
(0.00863862 -7.79394e-05 -9.05367e-31)
(0.00873055 -7.10907e-05 0)
(0.00881506 -6.47839e-05 0)
(0.00889269 -5.89956e-05 6.57524e-31)
(0.00896396 -5.36986e-05 0)
(0.00902936 -4.88638e-05 5.2496e-31)
(0.00908937 -4.44606e-05 9.34685e-31)
(0.00914444 -4.04578e-05 0)
(0.00919497 -3.68245e-05 0)
(0.00924135 -3.35307e-05 0)
(0.00928395 -3.05471e-05 0)
(0.0093231 -2.78464e-05 0)
(0.0093591 -2.54026e-05 4.3568e-31)
(0.00939223 -2.31917e-05 3.77748e-31)
(0.00942274 -2.11913e-05 3.25318e-31)
(0.00945087 -1.9381e-05 0)
(0.00947682 -1.77423e-05 -2.34887e-31)
(0.00950079 -1.6258e-05 0)
(0.00952295 -1.49129e-05 1.6066e-31)
(0.00954346 -1.3693e-05 1.28639e-31)
(0.00956246 -1.25858e-05 0)
(0.00958008 -1.158e-05 0)
(0.00959643 -1.06656e-05 0)
(0.00961163 -9.83334e-06 2.72644e-32)
(0.00962577 -9.07513e-06 0)
(0.00963893 -8.38362e-06 0)
(0.0096512 -7.75226e-06 0)
(0.00966265 -7.17515e-06 0)
(0.00967334 -6.64701e-06 0)
(0.00968333 -6.16312e-06 0)
(0.00969268 -5.71922e-06 0)
(0.00970143 -5.31152e-06 0)
(0.00970963 -4.9366e-06 1.01629e-31)
(0.00971732 -4.59139e-06 0)
(0.00972453 -4.27316e-06 0)
(0.0097313 -3.97943e-06 -1.26881e-31)
(0.00973766 -3.708e-06 -1.34052e-31)
(0.00974365 -3.45687e-06 0)
(0.00974927 -3.22426e-06 1.46827e-31)
(0.00975456 -3.00856e-06 -1.52529e-31)
(0.00975954 -2.80833e-06 0)
(0.00976423 -2.62227e-06 1.62744e-31)
(0.00976865 -2.4492e-06 0)
(0.00977281 -2.28808e-06 0)
(0.00977674 -2.13794e-06 -1.75556e-31)
(0.00978043 -1.99792e-06 0)
(0.00978392 -1.86725e-06 1.82723e-31)
(0.0097872 -1.74521e-06 0)
(0.0097903 -1.63117e-06 -1.88979e-31)
(0.00979321 -1.52454e-06 -1.91803e-31)
(0.00979597 -1.42479e-06 -1.94446e-31)
(0.00979856 -1.33144e-06 -3.93837e-31)
(0.009801 -1.24405e-06 3.98475e-31)
(0.00980331 -1.1622e-06 0)
(0.00980548 -1.08554e-06 0)
(0.00980752 -1.01371e-06 0)
(0.00980945 -9.46396e-07 4.14258e-31)
(0.00981126 -8.83319e-07 4.17607e-31)
(0.00981297 -8.24204e-07 -4.20743e-31)
(0.00981457 -7.68803e-07 0)
(0.00981608 -7.16886e-07 4.26437e-31)
(0.00981751 -6.68238e-07 4.29023e-31)
(0.00981884 -6.22659e-07 4.31443e-31)
(0.0098201 -5.79962e-07 0)
(0.00982128 -5.39973e-07 0)
(0.00982238 -5.0253e-07 0)
(0.00982342 -4.67479e-07 4.39682e-31)
(0.0098244 -4.34677e-07 0)
(0.00982531 -4.03989e-07 0)
(0.00982617 -3.75289e-07 -4.44573e-31)
(0.00982697 -3.48459e-07 0)
(0.00982772 -3.23385e-07 0)
(0.00982843 -2.99963e-07 -4.48577e-31)
(0.00982909 -2.78092e-07 0)
(0.0098297 -2.5768e-07 0)
(0.00983028 -2.38638e-07 4.51834e-31)
(0.00983082 -2.20881e-07 4.52777e-31)
(0.00983132 -2.04332e-07 0)
(0.00983179 -1.88915e-07 -4.54478e-31)
(0.00983222 -1.74561e-07 0)
(0.00983263 -1.61204e-07 4.55948e-31)
(0.00983301 -1.4878e-07 0)
(0.00983336 -1.3723e-07 4.57225e-31)
(0.00983369 -1.265e-07 4.5779e-31)
(0.00983399 -1.16536e-07 0)
(0.00983428 -1.07288e-07 0)
(0.00983454 -9.87094e-08 0)
(0.00983479 -9.07564e-08 0)
(0.00983501 -8.3387e-08 0)
(0.00983522 -7.65618e-08 0)
(0.00983542 -7.02436e-08 0)
(0.0098356 -6.43973e-08 4.61096e-31)
(0.00983576 -5.89896e-08 -4.61379e-31)
(0.00983592 -5.39891e-08 0)
(0.00983606 -4.9366e-08 0)
(0.00983619 -4.50922e-08 0)
(0.00983631 -4.11407e-08 0)
(0.00983642 -3.74858e-08 -9.25044e-31)
(0.00983652 -3.41029e-08 0)
(0.00983662 -3.09682e-08 9.25738e-31)
(0.0098367 -2.80583e-08 -9.26048e-31)
(0.00983678 -2.53506e-08 0)
(0.00983685 -2.28224e-08 0)
(0.00983691 -2.04508e-08 0)
(0.00983697 -1.82124e-08 9.27096e-31)
(0.00983703 -1.60826e-08 9.27321e-31)
(0.00983707 -1.40355e-08 0)
(0.00983711 -1.20427e-08 9.27743e-31)
(0.00983715 -1.00729e-08 9.27946e-31)
(0.00983717 -8.09073e-09 -9.28159e-31)
(0.0098372 -6.05528e-09 0)
(0.00983721 -3.91899e-09 0)
(0.00983722 -1.62526e-09 -9.28832e-31)
(0.00983722 8.93801e-10 0)
(0.00983722 3.72045e-09 0)
(0.0098372 6.95538e-09 0)
(0.00983717 1.07227e-08 0)
(0.00983712 1.5176e-08 9.30558e-31)
(0.00983706 2.0507e-08 9.31104e-31)
(0.00983698 2.6955e-08 0)
(0.00983687 3.48208e-08 9.32567e-31)
(0.00983673 4.44837e-08 0)
(0.00983655 5.64225e-08 0)
(0.00983633 7.12453e-08 9.36281e-31)
(0.00983603 8.97251e-08 0)
(0.00983566 1.12849e-07 9.40523e-31)
(0.00983519 1.41881e-07 0)
(0.0098346 1.78446e-07 0)
(0.00983384 2.24644e-07 9.51907e-31)
(0.00983288 2.83197e-07 0)
(0.00983165 3.5766e-07 9.65452e-31)
(0.00983008 4.52699e-07 0)
(0.00982808 5.74498e-07 0)
(0.00982551 7.31323e-07 0)
(0.00982219 9.34357e-07 -1.02419e-30)
(0.00981791 1.19896e-06 0)
(0.00981234 1.5466e-06 1.08656e-30)
(0.00980506 2.00801e-06 0)
(0.00979547 2.62841e-06 0)
(0.00978273 3.47693e-06 0)
(0.00976557 4.66434e-06 0)
(0.00974206 6.37961e-06 0)
(0.00970906 8.97357e-06 0)
(0.00966098 1.31791e-05 0)
(0.00958647 2.0814e-05 -6.11486e-30)
(0.00945691 3.77062e-05 0)
(0.00916978 9.06735e-05 0)
(0.00017824 -0.00113375 1.4647e-29)
(0.000535823 -0.00113014 -1.45877e-29)
(0.000894614 -0.00112339 0)
(0.00125355 -0.00111353 2.87248e-29)
(0.00161156 -0.00110071 0)
(0.00196765 -0.00108519 -1.40025e-29)
(0.00232092 -0.0010673 -2.74795e-29)
(0.00267062 -0.00104739 -2.69483e-29)
(0.00301611 -0.00102569 0)
(0.0033568 -0.0010023 -2.57502e-29)
(0.00369205 -0.000977181 1.25862e-29)
(0.00402119 -0.000950276 0)
(0.00434343 -0.000921561 0)
(0.00465799 -0.000891095 0)
(0.0049641 -0.000859007 0)
(0.00526106 -0.000825451 1.06066e-29)
(0.00554817 -0.000790591 0)
(0.00582481 -0.000754604 1.9231e-29)
(0.00609041 -0.000717699 0)
(0.00634445 -0.000680126 0)
(0.00658652 -0.000642179 -1.62889e-29)
(0.00681633 -0.000604173 0)
(0.0070337 -0.000566432 1.43098e-29)
(0.00723861 -0.000529263 6.75512e-30)
(0.00743112 -0.000492948 -6.28348e-30)
(0.00761143 -0.000457731 5.82618e-30)
(0.00777981 -0.000423817 5.38587e-30)
(0.00793663 -0.000391371 0)
(0.00808232 -0.000360519 0)
(0.00821735 -0.00033135 -4.1856e-30)
(0.00834225 -0.000303922 -1.12919e-29)
(0.00845756 -0.000278259 0)
(0.00856386 -0.000254362 0)
(0.0086617 -0.000232206 -2.89894e-30)
(0.00875167 -0.000211746 0)
(0.00883432 -0.000192921 0)
(0.00891019 -0.000175656 2.16511e-30)
(0.00897982 -0.000159867 0)
(0.00904371 -0.000145465 5.10648e-30)
(0.00910232 -0.000132355 3.2064e-30)
(0.00915609 -0.000120443 0)
(0.00920545 -0.000109634 0)
(0.00925078 -9.98371e-05 -4.28783e-30)
(0.00929242 -9.09653e-05 -3.82524e-30)
(0.0093307 -8.29353e-05 -3.40649e-30)
(0.00936592 -7.56698e-05 4.76243e-30)
(0.00939834 -6.90964e-05 1.56421e-30)
(0.00942823 -6.31489e-05 -9.64572e-31)
(0.00945579 -5.77662e-05 2.09346e-30)
(0.00948124 -5.28927e-05 -1.1434e-30)
(0.00950476 -4.84781e-05 0)
(0.00952652 -4.44766e-05 9.24781e-31)
(0.00954667 -4.0847e-05 2.04065e-30)
(0.00956535 -3.7552e-05 0)
(0.00958268 -3.45583e-05 0)
(0.00959878 -3.18357e-05 0)
(0.00961375 -2.93573e-05 5.31896e-31)
(0.00962768 -2.70988e-05 0)
(0.00964067 -2.50386e-05 3.84029e-31)
(0.00965277 -2.31571e-05 0)
(0.00966407 -2.14369e-05 1.95617e-31)
(0.00967463 -1.98624e-05 0)
(0.00968451 -1.84194e-05 -3.76819e-32)
(0.00969375 -1.70954e-05 0)
(0.0097024 -1.5879e-05 -9.53451e-32)
(0.00971052 -1.47602e-05 1.66086e-33)
(0.00971813 -1.37299e-05 0)
(0.00972527 -1.27799e-05 2.57717e-31)
(0.00973198 -1.19029e-05 7.79189e-32)
(0.00973829 -1.10922e-05 5.6811e-32)
(0.00974422 -1.03421e-05 0)
(0.00974979 -9.64716e-06 4.02807e-31)
(0.00975504 -9.00263e-06 2.40215e-33)
(0.00975999 -8.40421e-06 0)
(0.00976464 -7.84805e-06 2.76703e-32)
(0.00976903 -7.33066e-06 5.43572e-31)
(0.00977316 -6.84889e-06 0)
(0.00977706 -6.3999e-06 -6.53942e-32)
(0.00978073 -5.98113e-06 0)
(0.00978419 -5.59026e-06 -5.48491e-31)
(0.00978746 -5.22518e-06 0)
(0.00979053 -4.88398e-06 5.67194e-31)
(0.00979343 -4.56492e-06 -1.13216e-31)
(0.00979617 -4.26643e-06 -8.25549e-31)
(0.00979875 -3.98706e-06 -1.69503e-30)
(0.00980118 -3.72548e-06 1.73619e-30)
(0.00980347 -3.4805e-06 0)
(0.00980563 -3.25099e-06 0)
(0.00980766 -3.03596e-06 0)
(0.00980958 -2.83444e-06 -1.24305e-30)
(0.00981138 -2.64559e-06 3.26506e-31)
(0.00981308 -2.46859e-06 -3.35735e-31)
(0.00981468 -2.3027e-06 0)
(0.00981618 -2.14724e-06 1.9845e-30)
(0.0098176 -2.00156e-06 3.60096e-31)
(0.00981893 -1.86507e-06 3.67216e-31)
(0.00982017 -1.7372e-06 0)
(0.00982135 -1.61744e-06 0)
(0.00982245 -1.5053e-06 0)
(0.00982348 -1.40032e-06 3.91458e-31)
(0.00982446 -1.30208e-06 0)
(0.00982537 -1.21017e-06 1.73062e-30)
(0.00982622 -1.12421e-06 1.33382e-30)
(0.00982702 -1.04384e-06 -1.74814e-30)
(0.00982777 -9.68739e-07 0)
(0.00982847 -8.98582e-07 -2.18106e-30)
(0.00982912 -8.33072e-07 0)
(0.00982974 -7.71929e-07 -1.77677e-30)
(0.00983031 -7.14888e-07 2.20998e-30)
(0.00983084 -6.61698e-07 2.21837e-30)
(0.00983134 -6.12125e-07 0)
(0.00983181 -5.65944e-07 1.36347e-30)
(0.00983224 -5.22946e-07 -1.80298e-30)
(0.00983265 -4.82932e-07 4.39316e-31)
(0.00983303 -4.45715e-07 0)
(0.00983338 -4.11118e-07 4.43066e-31)
(0.00983371 -3.78973e-07 -1.37341e-30)
(0.00983401 -3.49123e-07 0)
(0.00983429 -3.21419e-07 -1.82421e-30)
(0.00983455 -2.95721e-07 -1.82692e-30)
(0.0098348 -2.71897e-07 -1.82943e-30)
(0.00983502 -2.4982e-07 0)
(0.00983523 -2.29374e-07 0)
(0.00983543 -2.10446e-07 0)
(0.0098356 -1.92932e-07 2.29219e-30)
(0.00983577 -1.76732e-07 -4.55292e-31)
(0.00983592 -1.61751e-07 0)
(0.00983606 -1.47902e-07 1.84248e-30)
(0.00983619 -1.35099e-07 1.84383e-30)
(0.00983631 -1.23262e-07 0)
(0.00983643 -1.12313e-07 -9.17308e-31)
(0.00983653 -1.02179e-07 3.6946e-30)
(0.00983662 -9.27889e-08 9.19347e-31)
(0.00983671 -8.40728e-08 -4.61866e-30)
(0.00983678 -7.59625e-08 0)
(0.00983685 -6.83904e-08 0)
(0.00983692 -6.12878e-08 0)
(0.00983698 -5.45846e-08 9.23335e-31)
(0.00983703 -4.82078e-08 4.62995e-30)
(0.00983707 -4.20792e-08 3.70723e-30)
(0.00983711 -3.61146e-08 9.25254e-31)
(0.00983715 -3.02199e-08 4.63557e-30)
(0.00983718 -2.42896e-08 -9.26484e-31)
(0.0098372 -1.82015e-08 0)
(0.00983722 -1.18135e-08 0)
(0.00983722 -4.95669e-09 -4.64346e-30)
(0.00983723 2.57177e-09 0)
(0.00983722 1.10176e-08 0)
(0.0098372 2.06814e-08 3.72026e-30)
(0.00983717 3.19336e-08 0)
(0.00983713 4.52332e-08 4.65897e-30)
(0.00983707 6.11517e-08 9.35307e-31)
(0.00983699 8.04044e-08 0)
(0.00983688 1.03889e-07 4.67706e-30)
(0.00983675 1.32738e-07 0)
(0.00983657 1.6838e-07 0)
(0.00983634 2.12631e-07 9.50902e-31)
(0.00983606 2.67797e-07 3.77093e-30)
(0.00983569 3.36826e-07 9.63684e-31)
(0.00983523 4.23488e-07 0)
(0.00983464 5.32635e-07 0)
(0.0098339 6.70527e-07 4.85141e-30)
(0.00983295 8.45288e-07 0)
(0.00983174 1.06751e-06 4.97354e-30)
(0.0098302 1.35112e-06 0)
(0.00982822 1.71453e-06 0)
(0.00982569 2.18236e-06 0)
(0.00982243 2.78789e-06 -1.21586e-30)
(0.00981821 3.57678e-06 0)
(0.00981274 4.61278e-06 1.40364e-30)
(0.00980559 5.98694e-06 0)
(0.00979618 7.83301e-06 0)
(0.0097837 1.03546e-05 5.83706e-30)
(0.00976695 1.38765e-05 -6.55904e-30)
(0.00974409 1.89484e-05 0)
(0.00971222 2.65777e-05 0)
(0.00966643 3.88204e-05 0)
(0.00959762 6.05419e-05 1.7958e-29)
(0.00948829 0.000105853 0)
(0.00931581 0.000227917 -1.01302e-28)
(0.000182716 -0.00190529 9.84791e-29)
(0.000549227 -0.00189901 -1.30689e-32)
(0.0009168 -0.00188721 0)
(0.00128414 -0.00186977 3.04181e-32)
(0.00164983 -0.00184684 0)
(0.00201255 -0.00181915 0)
(0.00237134 -0.00178762 -9.21375e-29)
(0.00272564 -0.00175316 -4.51894e-29)
(0.00307518 -0.00171638 4.41494e-29)
(0.00341981 -0.00167732 -4.3196e-29)
(0.00375915 -0.00163556 0)
(0.00409248 -0.00159063 0)
(0.00441883 -0.00154236 -3.9556e-29)
(0.00473718 -0.00149092 -7.64076e-29)
(0.00504664 -0.00143669 7.35598e-29)
(0.00534646 -0.00138 0)
(0.00563597 -0.00132111 6.75009e-29)
(0.0059145 -0.00126025 3.22973e-29)
(0.00618139 -0.00119773 0)
(0.00643601 -0.00113399 5.77142e-29)
(0.0066779 -0.00106959 -2.73328e-29)
(0.00690675 -0.00100511 -5.09843e-29)
(0.0071224 -0.000941162 2.39921e-29)
(0.00732489 -0.000878305 0)
(0.0075144 -0.000817029 4.11748e-29)
(0.00769123 -0.000757746 3.80849e-29)
(0.00785576 -0.000700793 0)
(0.00800845 -0.00064643 3.22851e-29)
(0.00814984 -0.000594853 0)
(0.00828047 -0.000546194 2.70645e-29)
(0.00840095 -0.000500533 -1.25418e-29)
(0.00851189 -0.000457898 0)
(0.0086139 -0.000418273 0)
(0.00870761 -0.000381604 0)
(0.00879362 -0.000347801 0)
(0.00887252 -0.000316751 0)
(0.00894488 -0.000288318 0)
(0.00901123 -0.000262351 1.22867e-29)
(0.00907209 -0.000238693 -5.31329e-30)
(0.00912791 -0.00021718 0)
(0.00917913 -0.000197648 0)
(0.00922617 -0.000179937 0)
(0.00926938 -0.000163894 -1.47577e-29)
(0.00930912 -0.00014937 -6.84311e-30)
(0.00934568 -0.000136227 -4.41306e-31)
(0.00937936 -0.000124337 4.42891e-31)
(0.0094104 -0.000113579 -4.53882e-30)
(0.00943905 -0.000103844 -4.47718e-30)
(0.0094655 -9.50315e-05 7.59126e-30)
(0.00948996 -8.70509e-05 3.15611e-30)
(0.0095126 -7.98194e-05 0)
(0.00953356 -7.32622e-05 2.43707e-30)
(0.00955301 -6.7312e-05 4.70449e-30)
(0.00957106 -6.19082e-05 0)
(0.00958782 -5.69962e-05 0)
(0.00960342 -5.25272e-05 -1.3552e-30)
(0.00961794 -4.8457e-05 0)
(0.00963147 -4.47464e-05 0)
(0.0096441 -4.13599e-05 2.7717e-30)
(0.00965588 -3.82657e-05 1.22096e-30)
(0.00966689 -3.54355e-05 9.19058e-31)
(0.00967719 -3.28437e-05 0)
(0.00968683 -3.04674e-05 -6.60328e-31)
(0.00969587 -2.8286e-05 0)
(0.00970433 -2.62812e-05 4.10315e-31)
(0.00971228 -2.44363e-05 -3.46129e-31)