/*--------------------------------*- C++ -*----------------------------------*\
  =========                 |
  \\      /  F ield         | OpenFOAM: The Open Source CFD Toolbox
   \\    /   O peration     | Website:  https://openfoam.org
    \\  /    A nd           | Version:  10
     \\/     M anipulation  |
\*---------------------------------------------------------------------------*/
FoamFile
{
    format      ascii;
    class       volScalarField;
    location    "2.19";
    object      Sb;
}
// * * * * * * * * * * * * * * * * * * * * * * * * * * * * * * * * * * * * * //

dimensions      [0 0 0 0 0 0 0];

internalField   nonuniform List<scalar> 
12225
(
0.873477
0.872481
0.87124
0.869884
0.868499
0.867144
0.865854
0.864651
0.863548
0.862555
0.861682
0.86094
0.860347
0.859932
0.859755
0.859945
0.860851
0.863538
0.885376
0.884116
0.882564
0.880883
0.879185
0.877537
0.875981
0.87454
0.873227
0.872051
0.87102
0.870145
0.869443
0.868944
0.868705
0.868841
0.86959
0.871357
0.89284
0.89136
0.889552
0.887611
0.885665
0.883789
0.882028
0.880405
0.878932
0.877617
0.876465
0.875486
0.874693
0.874114
0.873796
0.873822
0.874321
0.875409
0.898766
0.897073
0.895022
0.892837
0.890661
0.888577
0.88663
0.884843
0.883227
0.881786
0.880524
0.879446
0.878564
0.877898
0.877481
0.877362
0.877594
0.878173
0.903953
0.902039
0.899741
0.897311
0.894908
0.89262
0.890493
0.888548
0.886793
0.88523
0.883858
0.882682
0.881706
0.880942
0.880408
0.880126
0.8801
0.88028
0.908747
0.906595
0.904036
0.901353
0.898717
0.896221
0.893912
0.891808
0.889913
0.888226
0.886744
0.885463
0.884385
0.883512
0.882848
0.882393
0.882126
0.881986
0.913336
0.910923
0.908082
0.905129
0.902248
0.899537
0.897039
0.894771
0.892732
0.890917
0.889317
0.887926
0.886737
0.885744
0.884942
0.884312
0.883824
0.883418
0.917843
0.915135
0.911984
0.908738
0.905596
0.902657
0.899961
0.897521
0.895332
0.893382
0.891658
0.890149
0.88884
0.88772
0.886772
0.885971
0.885281
0.884649
0.922358
0.919312
0.915814
0.912247
0.908822
0.905638
0.902733
0.900111
0.897762
0.89567
0.893815
0.892179
0.890743
0.889489
0.888392
0.887425
0.886551
0.885725
0.926956
0.923515
0.919623
0.9157
0.911966
0.908518
0.905388
0.902573
0.900055
0.897812
0.895817
0.894047
0.892478
0.891084
0.889839
0.888712
0.887669
0.886673
0.931708
0.927795
0.92345
0.919128
0.915054
0.911319
0.907947
0.904926
0.902229
0.899826
0.897683
0.895772
0.894064
0.892528
0.891136
0.889857
0.888659
0.887511
0.936684
0.932198
0.927326
0.922551
0.918099
0.914052
0.91042
0.90718
0.904293
0.901721
0.899424
0.897366
0.895514
0.893835
0.892298
0.890873
0.889531
0.888246
0.941172
0.936078
0.930671
0.925452
0.920639
0.916301
0.91243
0.908989
0.905931
0.903206
0.90077
0.898582
0.896604
0.894803
0.893146
0.891604
0.89015
0.888761
0.946614
0.940671
0.93455
0.928758
0.923492
0.918793
0.914632
0.910952
0.907691
0.904788
0.902192
0.899856
0.897738
0.895802
0.894016
0.89235
0.890778
0.88928
0.953304
0.946133
0.939035
0.932488
0.926646
0.921504
0.916995
0.913033
0.909537
0.906432
0.903657
0.901158
0.898888
0.896807
0.894881
0.893081
0.89138
0.88976
0.961761
0.952731
0.944232
0.93666
0.930074
0.924385
0.919465
0.915184
0.911432
0.908112
0.905147
0.90247
0.900028
0.897776
0.89568
0.893711
0.891848
0.890074
0.97362
0.961762
0.951118
0.942081
0.934514
0.928133
0.922683
0.917967
0.913837
0.910159
0.906829
0.903796
0.901014
0.898446
0.896062
0.893836
0.891748
0.889782
0.95811
0.949926
0.942247
0.935293
0.929104
0.92363
0.918784
0.914476
0.910619
0.907161
0.904055
0.901204
0.89855
0.896074
0.89376
0.891593
0.889557
0.887641
0.942884
0.93733
0.931691
0.926318
0.921339
0.916784
0.912637
0.908863
0.90542
0.902268
0.899369
0.896721
0.894303
0.892048
0.889936
0.887955
0.886091
0.884333
0.931946
0.927889
0.923491
0.919113
0.914924
0.910995
0.907344
0.903967
0.900844
0.897955
0.895274
0.892781
0.89046
0.888328
0.886325
0.884439
0.882661
0.880982
0.922571
0.919466
0.915937
0.912302
0.908732
0.905313
0.902085
0.899058
0.896228
0.893586
0.891116
0.888806
0.886641
0.884613
0.882733
0.88096
0.879286
0.877703
0.914298
0.91183
0.90893
0.905862
0.902785
0.899789
0.896921
0.8942
0.891634
0.889218
0.886947
0.88481
0.882799
0.880904
0.87913
0.877465
0.875891
0.874401
0.906797
0.90478
0.90235
0.899726
0.89705
0.894407
0.891847
0.889396
0.887066
0.884857
0.882769
0.880795
0.87893
0.877167
0.875499
0.873936
0.872457
0.871056
0.899815
0.898133
0.896068
0.893801
0.891455
0.889113
0.886821
0.884609
0.88249
0.880471
0.878552
0.87673
0.875003
0.873364
0.871809
0.870344
0.868956
0.867639
0.893135
0.891713
0.88994
0.887967
0.885902
0.883819
0.881764
0.879766
0.877841
0.875995
0.874234
0.872555
0.870956
0.869436
0.86799
0.866615
0.865317
0.864083
0.88654
0.885328
0.883797
0.882073
0.880252
0.878398
0.876556
0.874753
0.873006
0.871323
0.869709
0.868166
0.866691
0.865284
0.863942
0.862662
0.861449
0.860294
0.879759
0.878724
0.8774
0.875896
0.874292
0.872647
0.871001
0.869381
0.867802
0.866274
0.864803
0.863391
0.862037
0.860741
0.859501
0.858316
0.857189
0.856113
0.872366
0.871487
0.87035
0.869046
0.867644
0.866196
0.864739
0.863296
0.861882
0.860508
0.859179
0.857898
0.856666
0.855483
0.854348
0.853259
0.85222
0.851227
0.863438
0.862705
0.861747
0.860639
0.859438
0.85819
0.856924
0.855664
0.854423
0.85321
0.852032
0.850892
0.84979
0.848729
0.847707
0.846724
0.845779
0.844876
0.849429
0.848849
0.848081
0.847184
0.846202
0.845171
0.844118
0.84306
0.84201
0.840976
0.839965
0.838979
0.838021
0.837092
0.836192
0.835321
0.83448
0.833679
0.743588
0.743655
0.743743
0.74385
0.743976
0.744121
0.744289
0.744484
0.744711
0.744974
0.74528
0.745635
0.746045
0.74652
0.747068
0.747699
0.748425
0.749259
0.750216
0.751311
0.75256
0.753979
0.755583
0.757384
0.759386
0.761583
0.763957
0.766469
0.769062
0.771664
0.774194
0.776576
0.778743
0.78065
0.782268
0.783587
0.784602
0.785305
0.785676
0.785662
0.785134
0.783781
0.780749
0.77299
0.738964
0.271666
0.00012707
1.1e-06
1.1e-06
1.1e-06
1.1e-06
1.1e-06
1.1e-06
1.1e-06
1.1e-06
1.1e-06
1.1e-06
1.1e-06
1.1e-06
1.1e-06
1.1e-06
1.1e-06
1.1e-06
1.1e-06
1.1e-06
1.1e-06
1.1e-06
1.1e-06
1.1e-06
1.1e-06
1.1e-06
1.1e-06
1.1e-06
1.1e-06
1.1e-06
1.1e-06
1.1e-06
1.1e-06
1.1e-06
1.1e-06
1.1e-06
1.1e-06
1.1e-06
1.1e-06
1.1e-06
1.1e-06
1.1e-06
1.1e-06
1.1e-06
1.1e-06
1.1e-06
1.1e-06
1.1e-06
1.1e-06
1.1e-06
1.1e-06
1.1e-06
1.1e-06
1.1e-06
1.1e-06
1.1e-06
1.1e-06
1.1e-06
1.1e-06
1.1e-06
1.1e-06
1.1e-06
1.1e-06
1.1e-06
1.1e-06
1.1e-06
1.1e-06
1.1e-06
1.1e-06
1.1e-06
1.1e-06
1.1e-06
1.1e-06
1.1e-06
1.1e-06
1.1e-06
1.1e-06
1.1e-06
1.1e-06
1.1e-06
1.1e-06
1.1e-06
1.1e-06
1.1e-06
1.1e-06
1.1e-06
1.1e-06
1.1e-06
1.1e-06
1.1e-06
1.1e-06
1.1e-06
1.1e-06
1.1e-06
1.1e-06
1.1e-06
1.1e-06
1.1e-06
1.1e-06
1.1e-06
1.1e-06
1.1e-06
1.1e-06
1.1e-06
1.1e-06
1.1e-06
1.1e-06
1.1e-06
1.1e-06
1.1e-06
1.1e-06
1.1e-06
1.1e-06
1.1e-06
1.1e-06
1.1e-06
1.1e-06
1.1e-06
1.1e-06
1.1e-06
1.1e-06
1.1e-06
1.1e-06
1.1e-06
1.1e-06
1.1e-06
1.1e-06
1.1e-06
1.1e-06
1.1e-06
1.1e-06
1.1e-06
1.1e-06
1.1e-06
1.1e-06
0.801138
0.801194
0.801272
0.801367
0.801478
0.801615
0.801795
0.802035
0.802353
0.802761
0.803269
0.803879
0.804592
0.8054
0.80629
0.80724
0.808225
0.809213
0.810172
0.81107
0.811881
0.812583
0.813159
0.813597
0.813888
0.814029
0.814021
0.81387
0.813584
0.81317
0.812637
0.811989
0.811231
0.810363
0.809386
0.808295
0.807084
0.80574
0.804237
0.802526
0.800508
0.797968
0.794402
0.788375
0.773926
0.66984
0.03787
1.66387e-06
1.1e-06
1.1e-06
1.1e-06
1.1e-06
1.1e-06
1.1e-06
1.1e-06
1.1e-06
1.1e-06
1.1e-06
1.1e-06
1.1e-06
1.1e-06
1.1e-06
1.1e-06
1.1e-06
1.1e-06
1.1e-06
1.1e-06
1.1e-06
1.1e-06
1.1e-06
1.1e-06
1.1e-06
1.1e-06
1.1e-06
1.1e-06
1.1e-06
1.1e-06
1.1e-06
1.1e-06
1.1e-06
1.1e-06
1.1e-06
1.1e-06
1.1e-06
1.1e-06
1.1e-06
1.1e-06
1.1e-06
1.1e-06
1.1e-06
1.1e-06
1.1e-06
1.1e-06
1.1e-06
1.1e-06
1.1e-06
1.1e-06
1.1e-06
1.1e-06
1.1e-06
1.1e-06
1.1e-06
1.1e-06
1.1e-06
1.1e-06
1.1e-06
1.1e-06
1.1e-06
1.1e-06
1.1e-06
1.1e-06
1.1e-06
1.1e-06
1.1e-06
1.1e-06
1.1e-06
1.1e-06
1.1e-06
1.1e-06
1.1e-06
1.1e-06
1.1e-06
1.1e-06
1.1e-06
1.1e-06
1.1e-06
1.1e-06
1.1e-06
1.1e-06
1.1e-06
1.1e-06
1.1e-06
1.1e-06
1.1e-06
1.1e-06
1.1e-06
1.1e-06
1.1e-06
1.1e-06
1.1e-06
1.1e-06
1.1e-06
1.1e-06
1.1e-06
1.1e-06
1.1e-06
1.1e-06
1.1e-06
1.1e-06
1.1e-06
1.1e-06
1.1e-06
1.1e-06
1.1e-06
1.1e-06
1.1e-06
1.1e-06
1.1e-06
1.1e-06
1.1e-06
1.1e-06
1.1e-06
1.1e-06
1.1e-06
1.1e-06
1.1e-06
1.1e-06
1.1e-06
1.1e-06
1.1e-06
1.1e-06
1.1e-06
1.1e-06
1.1e-06
1.1e-06
1.1e-06
1.1e-06
1.1e-06
1.1e-06
1.1e-06
0.814297
0.814356
0.81442
0.814488
0.814555
0.814632
0.814734
0.814881
0.815092
0.81538
0.815755
0.816223
0.816789
0.817447
0.81819
0.818999
0.819848
0.820705
0.821531
0.822286
0.822936
0.82345
0.823807
0.823993
0.824001
0.823833
0.823492
0.822988
0.822334
0.821542
0.820627
0.8196
0.818471
0.817251
0.815946
0.814561
0.813096
0.811545
0.809892
0.8081
0.806097
0.803743
0.800738
0.796376
0.788546
0.767017
0.508989
0.00280815
1.1e-06
1.1e-06
1.1e-06
1.1e-06
1.1e-06
1.1e-06
1.1e-06
1.1e-06
1.1e-06
1.1e-06
1.1e-06
1.1e-06
1.1e-06
1.1e-06
1.1e-06
1.1e-06
1.1e-06
1.1e-06
1.1e-06
1.1e-06
1.1e-06
1.1e-06
1.1e-06
1.1e-06
1.1e-06
1.1e-06
1.1e-06
1.1e-06
1.1e-06
1.1e-06
1.1e-06
1.1e-06
1.1e-06
1.1e-06
1.1e-06
1.1e-06
1.1e-06
1.1e-06
1.1e-06
1.1e-06
1.1e-06
1.1e-06
1.1e-06
1.1e-06
1.1e-06
1.1e-06
1.1e-06
1.1e-06
1.1e-06
1.1e-06
1.1e-06
1.1e-06
1.1e-06
1.1e-06
1.1e-06
1.1e-06
1.1e-06
1.1e-06
1.1e-06
1.1e-06
1.1e-06
1.1e-06
1.1e-06
1.1e-06
1.1e-06
1.1e-06
1.1e-06
1.1e-06
1.1e-06
1.1e-06
1.1e-06
1.1e-06
1.1e-06
1.1e-06
1.1e-06
1.1e-06
1.1e-06
1.1e-06
1.1e-06
1.1e-06
1.1e-06
1.1e-06
1.1e-06
1.1e-06
1.1e-06
1.1e-06
1.1e-06
1.1e-06
1.1e-06
1.1e-06
1.1e-06
1.1e-06
1.1e-06
1.1e-06
1.1e-06
1.1e-06
1.1e-06
1.1e-06
1.1e-06
1.1e-06
1.1e-06
1.1e-06
1.1e-06
1.1e-06
1.1e-06
1.1e-06
1.1e-06
1.1e-06
1.1e-06
1.1e-06
1.1e-06
1.1e-06
1.1e-06
1.1e-06
1.1e-06
1.1e-06
1.1e-06
1.1e-06
1.1e-06
1.1e-06
1.1e-06
1.1e-06
1.1e-06
1.1e-06
1.1e-06
1.1e-06
1.1e-06
1.1e-06
1.1e-06
1.1e-06
1.1e-06
1.1e-06
0.821529
0.821611
0.821685
0.821756
0.821818
0.821872
0.821926
0.821987
0.822066
0.822168
0.822299
0.82246
0.822653
0.822875
0.823122
0.823387
0.82366
0.823925
0.824167
0.824371
0.824521
0.824603
0.824607
0.824522
0.824343
0.824064
0.823685
0.823205
0.822629
0.821959
0.821203
0.820367
0.819456
0.818477
0.817433
0.816327
0.815155
0.813909
0.812571
0.81111
0.80947
0.807554
0.805186
0.802004
0.797161
0.788047
0.760732
0.41447
0.000879149
1.1e-06
1.1e-06
1.1e-06
1.1e-06
1.1e-06
1.1e-06
1.1e-06
1.1e-06
1.1e-06
1.1e-06
1.1e-06
1.1e-06
1.1e-06
1.1e-06
1.1e-06
1.1e-06
1.1e-06
1.1e-06
1.1e-06
1.1e-06
1.1e-06
1.1e-06
1.1e-06
1.1e-06
1.1e-06
1.1e-06
1.1e-06
1.1e-06
1.1e-06
1.1e-06
1.1e-06
1.1e-06
1.1e-06
1.1e-06
1.1e-06
1.1e-06
1.1e-06
1.1e-06
1.1e-06
1.1e-06
1.1e-06
1.1e-06
1.1e-06
1.1e-06
1.1e-06
1.1e-06
1.1e-06
1.1e-06
1.1e-06
1.1e-06
1.1e-06
1.1e-06
1.1e-06
1.1e-06
1.1e-06
1.1e-06
1.1e-06
1.1e-06
1.1e-06
1.1e-06
1.1e-06
1.1e-06
1.1e-06
1.1e-06
1.1e-06
1.1e-06
1.1e-06
1.1e-06
1.1e-06
1.1e-06
1.1e-06
1.1e-06
1.1e-06
1.1e-06
1.1e-06
1.1e-06
1.1e-06
1.1e-06
1.1e-06
1.1e-06
1.1e-06
1.1e-06
1.1e-06
1.1e-06
1.1e-06
1.1e-06
1.1e-06
1.1e-06
1.1e-06
1.1e-06
1.1e-06
1.1e-06
1.1e-06
1.1e-06
1.1e-06
1.1e-06
1.1e-06
1.1e-06
1.1e-06
1.1e-06
1.1e-06
1.1e-06
1.1e-06
1.1e-06
1.1e-06
1.1e-06
1.1e-06
1.1e-06
1.1e-06
1.1e-06
1.1e-06
1.1e-06
1.1e-06
1.1e-06
1.1e-06
1.1e-06
1.1e-06
1.1e-06
1.1e-06
1.1e-06
1.1e-06
1.1e-06
1.1e-06
1.1e-06
1.1e-06
1.1e-06
1.1e-06
1.1e-06
1.1e-06
1.1e-06
1.1e-06
0.826685
0.826798
0.826895
0.826981
0.827051
0.827103
0.82714
0.827166
0.827185
0.8272
0.827214
0.827228
0.827243
0.827258
0.82727
0.827277
0.827274
0.827254
0.827212
0.827141
0.827033
0.826882
0.826683
0.82643
0.826118
0.825745
0.825307
0.824804
0.824237
0.823606
0.822913
0.822162
0.821354
0.820492
0.819575
0.818603
0.817572
0.816473
0.815291
0.814001
0.812562
0.810912
0.80894
0.806455
0.803069
0.797868
0.788025
0.757991
0.389872
0.000716183
1.1e-06
1.1e-06
1.1e-06
1.1e-06
1.1e-06
1.1e-06
1.1e-06
1.1e-06
1.1e-06
1.1e-06
1.1e-06
1.1e-06
1.1e-06
1.1e-06
1.1e-06
1.1e-06
1.1e-06
1.1e-06
1.1e-06
1.1e-06
1.1e-06
1.1e-06
1.1e-06
1.1e-06
1.1e-06
1.1e-06
1.1e-06
1.1e-06
1.1e-06
1.1e-06
1.1e-06
1.1e-06
1.1e-06
1.1e-06
1.1e-06
1.1e-06
1.1e-06
1.1e-06
1.1e-06
1.1e-06
1.1e-06
1.1e-06
1.1e-06
1.1e-06
1.1e-06
1.1e-06
1.1e-06
1.1e-06
1.1e-06
1.1e-06
1.1e-06
1.1e-06
1.1e-06
1.1e-06
1.1e-06
1.1e-06
1.1e-06
1.1e-06
1.1e-06
1.1e-06
1.1e-06
1.1e-06
1.1e-06
1.1e-06
1.1e-06
1.1e-06
1.1e-06
1.1e-06
1.1e-06
1.1e-06
1.1e-06
1.1e-06
1.1e-06
1.1e-06
1.1e-06
1.1e-06
1.1e-06
1.1e-06
1.1e-06
1.1e-06
1.1e-06
1.1e-06
1.1e-06
1.1e-06
1.1e-06
1.1e-06
1.1e-06
1.1e-06
1.1e-06
1.1e-06
1.1e-06
1.1e-06
1.1e-06
1.1e-06
1.1e-06
1.1e-06
1.1e-06
1.1e-06
1.1e-06
1.1e-06
1.1e-06
1.1e-06
1.1e-06
1.1e-06
1.1e-06
1.1e-06
1.1e-06
1.1e-06
1.1e-06
1.1e-06
1.1e-06
1.1e-06
1.1e-06
1.1e-06
1.1e-06
1.1e-06
1.1e-06
1.1e-06
1.1e-06
1.1e-06
1.1e-06
1.1e-06
1.1e-06
1.1e-06
1.1e-06
1.1e-06
1.1e-06
1.1e-06
1.1e-06
1.1e-06
0.830816
0.830966
0.831094
0.831201
0.831286
0.831346
0.831383
0.831397
0.83139
0.831364
0.83132
0.831259
0.831181
0.831085
0.830972
0.83084
0.830688
0.830512
0.830312
0.830083
0.829823
0.82953
0.8292
0.828831
0.828421
0.827967
0.827468
0.826923
0.826332
0.825695
0.825013
0.824285
0.823513
0.822695
0.821832
0.82092
0.819955
0.818928
0.817828
0.816635
0.815321
0.813842
0.81213
0.810075
0.807479
0.803948
0.798558
0.788448
0.758013
0.393237
0.000777678
1.1e-06
1.1e-06
1.1e-06
1.1e-06
1.1e-06
1.1e-06
1.1e-06
1.1e-06
1.1e-06
1.1e-06
1.1e-06
1.1e-06
1.1e-06
1.1e-06
1.1e-06
1.1e-06
1.1e-06
1.1e-06
1.1e-06
1.1e-06
1.1e-06
1.1e-06
1.1e-06
1.1e-06
1.1e-06
1.1e-06
1.1e-06
1.1e-06
1.1e-06
1.1e-06
1.1e-06
1.1e-06
1.1e-06
1.1e-06
1.1e-06
1.1e-06
1.1e-06
1.1e-06
1.1e-06
1.1e-06
1.1e-06
1.1e-06
1.1e-06
1.1e-06
1.1e-06
1.1e-06
1.1e-06
1.1e-06
1.1e-06
1.1e-06
1.1e-06
1.1e-06
1.1e-06
1.1e-06
1.1e-06
1.1e-06
1.1e-06
1.1e-06
1.1e-06
1.1e-06
1.1e-06
1.1e-06
1.1e-06
1.1e-06
1.1e-06
1.1e-06
1.1e-06
1.1e-06
1.1e-06
1.1e-06
1.1e-06
1.1e-06
1.1e-06
1.1e-06
1.1e-06
1.1e-06
1.1e-06
1.1e-06
1.1e-06
1.1e-06
1.1e-06
1.1e-06
1.1e-06
1.1e-06
1.1e-06
1.1e-06
1.1e-06
1.1e-06
1.1e-06
1.1e-06
1.1e-06
1.1e-06
1.1e-06
1.1e-06
1.1e-06
1.1e-06
1.1e-06
1.1e-06
1.1e-06
1.1e-06
1.1e-06
1.1e-06
1.1e-06
1.1e-06
1.1e-06
1.1e-06
1.1e-06
1.1e-06
1.1e-06
1.1e-06
1.1e-06
1.1e-06
1.1e-06
1.1e-06
1.1e-06
1.1e-06
1.1e-06
1.1e-06
1.1e-06
1.1e-06
1.1e-06
1.1e-06
1.1e-06
1.1e-06
1.1e-06
1.1e-06
1.1e-06
1.1e-06
1.1e-06
0.83435
0.83454
0.834702
0.834836
0.834942
0.835017
0.835062
0.835076
0.835059
0.835013
0.834939
0.834835
0.834704
0.834545
0.834358
0.834144
0.833902
0.833632
0.833333
0.833004
0.832646
0.832256
0.831835
0.831381
0.830893
0.83037
0.829813
0.82922
0.828591
0.827926
0.827225
0.826488
0.825713
0.824901
0.824049
0.823154
0.822212
0.821216
0.820156
0.819018
0.817782
0.816416
0.814878
0.813098
0.810967
0.808286
0.804664
0.799179
0.788997
0.758819
0.400559
0.000836229
1.1e-06
1.1e-06
1.1e-06
1.1e-06
1.1e-06
1.1e-06
1.1e-06
1.1e-06
1.1e-06
1.1e-06
1.1e-06
1.1e-06
1.1e-06
1.1e-06
1.1e-06
1.1e-06
1.1e-06
1.1e-06
1.1e-06
1.1e-06
1.1e-06
1.1e-06
1.1e-06
1.1e-06
1.1e-06
1.1e-06
1.1e-06
1.1e-06
1.1e-06
1.1e-06
1.1e-06
1.1e-06
1.1e-06
1.1e-06
1.1e-06
1.1e-06
1.1e-06
1.1e-06
1.1e-06
1.1e-06
1.1e-06
1.1e-06
1.1e-06
1.1e-06
1.1e-06
1.1e-06
1.1e-06
1.1e-06
1.1e-06
1.1e-06
1.1e-06
1.1e-06
1.1e-06
1.1e-06
1.1e-06
1.1e-06
1.1e-06
1.1e-06
1.1e-06
1.1e-06
1.1e-06
1.1e-06
1.1e-06
1.1e-06
1.1e-06
1.1e-06
1.1e-06
1.1e-06
1.1e-06
1.1e-06
1.1e-06
1.1e-06
1.1e-06
1.1e-06
1.1e-06
1.1e-06
1.1e-06
1.1e-06
1.1e-06
1.1e-06
1.1e-06
1.1e-06
1.1e-06
1.1e-06
1.1e-06
1.1e-06
1.1e-06
1.1e-06
1.1e-06
1.1e-06
1.1e-06
1.1e-06
1.1e-06
1.1e-06
1.1e-06
1.1e-06
1.1e-06
1.1e-06
1.1e-06
1.1e-06
1.1e-06
1.1e-06
1.1e-06
1.1e-06
1.1e-06
1.1e-06
1.1e-06
1.1e-06
1.1e-06
1.1e-06
1.1e-06
1.1e-06
1.1e-06
1.1e-06
1.1e-06
1.1e-06
1.1e-06
1.1e-06
1.1e-06
1.1e-06
1.1e-06
1.1e-06
1.1e-06
1.1e-06
1.1e-06
1.1e-06
1.1e-06
1.1e-06
0.837504
0.837735
0.837934
0.838099
0.83823
0.838324
0.838381
0.8384
0.838382
0.838326
0.838233
0.838104
0.837938
0.837737
0.837502
0.837232
0.836929
0.836593
0.836226
0.835826
0.835396
0.834934
0.834442
0.833919
0.833366
0.832783
0.832169
0.831526
0.830852
0.830148
0.829414
0.828649
0.827853
0.827024
0.826161
0.82526
0.824319
0.82333
0.822287
0.821178
0.819989
0.818698
0.817276
0.815678
0.813836
0.811641
0.808894
0.805204
0.799644
0.789367
0.758981
0.397311
0.00076015
1.1e-06
1.1e-06
1.1e-06
1.1e-06
1.1e-06
1.1e-06
1.1e-06
1.1e-06
1.1e-06
1.1e-06
1.1e-06
1.1e-06
1.1e-06
1.1e-06
1.1e-06
1.1e-06
1.1e-06
1.1e-06
1.1e-06
1.1e-06
1.1e-06
1.1e-06
1.1e-06
1.1e-06
1.1e-06
1.1e-06
1.1e-06
1.1e-06
1.1e-06
1.1e-06
1.1e-06
1.1e-06
1.1e-06
1.1e-06
1.1e-06
1.1e-06
1.1e-06
1.1e-06
1.1e-06
1.1e-06
1.1e-06
1.1e-06
1.1e-06
1.1e-06
1.1e-06
1.1e-06
1.1e-06
1.1e-06
1.1e-06
1.1e-06
1.1e-06
1.1e-06
1.1e-06
1.1e-06
1.1e-06
1.1e-06
1.1e-06
1.1e-06
1.1e-06
1.1e-06
1.1e-06
1.1e-06
1.1e-06
1.1e-06
1.1e-06
1.1e-06
1.1e-06
1.1e-06
1.1e-06
1.1e-06
1.1e-06
1.1e-06
1.1e-06
1.1e-06
1.1e-06
1.1e-06
1.1e-06
1.1e-06
1.1e-06
1.1e-06
1.1e-06
1.1e-06
1.1e-06
1.1e-06
1.1e-06
1.1e-06
1.1e-06
1.1e-06
1.1e-06
1.1e-06
1.1e-06
1.1e-06
1.1e-06
1.1e-06
1.1e-06
1.1e-06
1.1e-06
1.1e-06
1.1e-06
1.1e-06
1.1e-06
1.1e-06
1.1e-06
1.1e-06
1.1e-06
1.1e-06
1.1e-06
1.1e-06
1.1e-06
1.1e-06
1.1e-06
1.1e-06
1.1e-06
1.1e-06
1.1e-06
1.1e-06
1.1e-06
1.1e-06
1.1e-06
1.1e-06
1.1e-06
1.1e-06
1.1e-06
1.1e-06
1.1e-06
1.1e-06
1.1e-06
0.840402
0.840676
0.840914
0.841112
0.84127
0.841385
0.841456
0.841484
0.841467
0.841406
0.841301
0.841152
0.840961
0.840728
0.840454
0.840142
0.839791
0.839404
0.838981
0.838524
0.838034
0.837512
0.83696
0.836378
0.835766
0.835127
0.834459
0.833765
0.833044
0.832296
0.831522
0.830722
0.829893
0.829037
0.82815
0.827232
0.826277
0.825283
0.824242
0.823146
0.821985
0.820743
0.819399
0.817922
0.81627
0.814373
0.81212
0.809311
0.805546
0.799874
0.78934
0.757532
0.374148
0.000536454
1.1e-06
1.1e-06
1.1e-06
1.1e-06
1.1e-06
1.1e-06
1.1e-06
1.1e-06
1.1e-06
1.1e-06
1.1e-06
1.1e-06
1.1e-06
1.1e-06
1.1e-06
1.1e-06
1.1e-06
1.1e-06
1.1e-06
1.1e-06
1.1e-06
1.1e-06
1.1e-06
1.1e-06
1.1e-06
1.1e-06
1.1e-06
1.1e-06
1.1e-06
1.1e-06
1.1e-06
1.1e-06
1.1e-06
1.1e-06
1.1e-06
1.1e-06
1.1e-06
1.1e-06
1.1e-06
1.1e-06
1.1e-06
1.1e-06
1.1e-06
1.1e-06
1.1e-06
1.1e-06
1.1e-06
1.1e-06
1.1e-06
1.1e-06
1.1e-06
1.1e-06
1.1e-06
1.1e-06
1.1e-06
1.1e-06
1.1e-06
1.1e-06
1.1e-06
1.1e-06
1.1e-06
1.1e-06
1.1e-06
1.1e-06
1.1e-06
1.1e-06
1.1e-06
1.1e-06
1.1e-06
1.1e-06
1.1e-06
1.1e-06
1.1e-06
1.1e-06
1.1e-06
1.1e-06
1.1e-06
1.1e-06
1.1e-06
1.1e-06
1.1e-06
1.1e-06
1.1e-06
1.1e-06
1.1e-06
1.1e-06
1.1e-06
1.1e-06
1.1e-06
1.1e-06
1.1e-06
1.1e-06
1.1e-06
1.1e-06
1.1e-06
1.1e-06
1.1e-06
1.1e-06
1.1e-06
1.1e-06
1.1e-06
1.1e-06
1.1e-06
1.1e-06
1.1e-06
1.1e-06
1.1e-06
1.1e-06
1.1e-06
1.1e-06
1.1e-06
1.1e-06
1.1e-06
1.1e-06
1.1e-06
1.1e-06
1.1e-06
1.1e-06
1.1e-06
1.1e-06
1.1e-06
1.1e-06
1.1e-06
1.1e-06
1.1e-06
1.1e-06
0.843118
0.843437
0.843715
0.843948
0.844135
0.844273
0.844361
0.844398
0.844384
0.844319
0.844203
0.844038
0.843824
0.843562
0.843255
0.842904
0.842511
0.842077
0.841605
0.841096
0.840553
0.839977
0.839369
0.838732
0.838065
0.837372
0.836652
0.835908
0.835138
0.834345
0.833528
0.832687
0.831822
0.830932
0.830016
0.829072
0.828097
0.827089
0.826042
0.824949
0.823802
0.822591
0.821299
0.819905
0.818379
0.816676
0.814727
0.812416
0.809537
0.80567
0.799807
0.788742
0.753478
0.325569
0.000285886
1.1e-06
1.1e-06
1.1e-06
1.1e-06
1.1e-06
1.1e-06
1.1e-06
1.1e-06
1.1e-06
1.1e-06
1.1e-06
1.1e-06
1.1e-06
1.1e-06
1.1e-06
1.1e-06
1.1e-06
1.1e-06
1.1e-06
1.1e-06
1.1e-06
1.1e-06
1.1e-06
1.1e-06
1.1e-06
1.1e-06
1.1e-06
1.1e-06
1.1e-06
1.1e-06
1.1e-06
1.1e-06
1.1e-06
1.1e-06
1.1e-06
1.1e-06
1.1e-06
1.1e-06
1.1e-06
1.1e-06
1.1e-06
1.1e-06
1.1e-06
1.1e-06
1.1e-06
1.1e-06
1.1e-06
1.1e-06
1.1e-06
1.1e-06
1.1e-06
1.1e-06
1.1e-06
1.1e-06
1.1e-06
1.1e-06
1.1e-06
1.1e-06
1.1e-06
1.1e-06
1.1e-06
1.1e-06
1.1e-06
1.1e-06
1.1e-06
1.1e-06
1.1e-06
1.1e-06
1.1e-06
1.1e-06
1.1e-06
1.1e-06
1.1e-06
1.1e-06
1.1e-06
1.1e-06
1.1e-06
1.1e-06
1.1e-06
1.1e-06
1.1e-06
1.1e-06
1.1e-06
1.1e-06
1.1e-06
1.1e-06
1.1e-06
1.1e-06
1.1e-06
1.1e-06
1.1e-06
1.1e-06
1.1e-06
1.1e-06
1.1e-06
1.1e-06
1.1e-06
1.1e-06
1.1e-06
1.1e-06
1.1e-06
1.1e-06
1.1e-06
1.1e-06
1.1e-06
1.1e-06
1.1e-06
1.1e-06
1.1e-06
1.1e-06
1.1e-06
1.1e-06
1.1e-06
1.1e-06
1.1e-06
1.1e-06
1.1e-06
1.1e-06
1.1e-06
1.1e-06
1.1e-06
1.1e-06
1.1e-06
1.1e-06
1.1e-06
0.845694
0.846061
0.846382
0.846653
0.84687
0.847033
0.847138
0.847186
0.847176
0.847107
0.846981
0.846799
0.846562
0.846272
0.845931
0.845542
0.845107
0.844629
0.844109
0.843551
0.842956
0.842327
0.841666
0.840975
0.840256
0.83951
0.838739
0.837943
0.837126
0.836285
0.835424
0.834541
0.833636
0.83271
0.831762
0.830789
0.82979
0.828763
0.827703
0.826606
0.825465
0.824272
0.823014
0.821677
0.820238
0.818666
0.816915
0.814912
0.812537
0.809569
0.805556
0.799387
0.787391
0.745125
0.250641
0.000113812
1.1e-06
1.1e-06
1.1e-06
1.1e-06
1.1e-06
1.1e-06
1.1e-06
1.1e-06
1.1e-06
1.1e-06
1.1e-06
1.1e-06
1.1e-06
1.1e-06
1.1e-06
1.1e-06
1.1e-06
1.1e-06
1.1e-06
1.1e-06
1.1e-06
1.1e-06
1.1e-06
1.1e-06
1.1e-06
1.1e-06
1.1e-06
1.1e-06
1.1e-06
1.1e-06
1.1e-06
1.1e-06
1.1e-06
1.1e-06
1.1e-06
1.1e-06
1.1e-06
1.1e-06
1.1e-06
1.1e-06
1.1e-06
1.1e-06
1.1e-06
1.1e-06
1.1e-06
1.1e-06
1.1e-06
1.1e-06
1.1e-06
1.1e-06
1.1e-06
1.1e-06
1.1e-06
1.1e-06
1.1e-06
1.1e-06
1.1e-06
1.1e-06
1.1e-06
1.1e-06
1.1e-06
1.1e-06
1.1e-06
1.1e-06
1.1e-06
1.1e-06
1.1e-06
1.1e-06
1.1e-06
1.1e-06
1.1e-06
1.1e-06
1.1e-06
1.1e-06
1.1e-06
1.1e-06
1.1e-06
1.1e-06
1.1e-06
1.1e-06
1.1e-06
1.1e-06
1.1e-06
1.1e-06
1.1e-06
1.1e-06
1.1e-06
1.1e-06
1.1e-06
1.1e-06
1.1e-06
1.1e-06
1.1e-06
1.1e-06
1.1e-06
1.1e-06
1.1e-06
1.1e-06
1.1e-06
1.1e-06
1.1e-06
1.1e-06
1.1e-06
1.1e-06
1.1e-06
1.1e-06
1.1e-06
1.1e-06
1.1e-06
1.1e-06
1.1e-06
1.1e-06
1.1e-06
1.1e-06
1.1e-06
1.1e-06
1.1e-06
1.1e-06
1.1e-06
1.1e-06
1.1e-06
1.1e-06
1.1e-06
1.1e-06
0.848156
0.848574
0.848941
0.849252
0.849503
0.849692
0.849817
0.849876
0.849868
0.849796
0.849658
0.849458
0.849197
0.848877
0.848502
0.848074
0.847596
0.847071
0.846503
0.845895
0.845248
0.844567
0.843853
0.843109
0.842337
0.841539
0.840716
0.839871
0.839005
0.838118
0.837212
0.836286
0.835342
0.834378
0.833395
0.832392
0.831367
0.830318
0.829242
0.828135
0.826993
0.825809
0.824573
0.823274
0.821895
0.820415
0.818799
0.817
0.814939
0.812487
0.809402
0.805181
0.798551
0.78504
0.728617
0.156623
3.01914e-05
1.1e-06
1.1e-06
1.1e-06
1.1e-06
1.1e-06
1.1e-06
1.1e-06
1.1e-06
1.1e-06
1.1e-06
1.1e-06
1.1e-06
1.1e-06
1.1e-06
1.1e-06
1.1e-06
1.1e-06
1.1e-06
1.1e-06
1.1e-06
1.1e-06
1.1e-06
1.1e-06
1.1e-06
1.1e-06
1.1e-06
1.1e-06
1.1e-06
1.1e-06
1.1e-06
1.1e-06
1.1e-06
1.1e-06
1.1e-06
1.1e-06
1.1e-06
1.1e-06
1.1e-06
1.1e-06
1.1e-06
1.1e-06
1.1e-06
1.1e-06
1.1e-06
1.1e-06
1.1e-06
1.1e-06
1.1e-06
1.1e-06
1.1e-06
1.1e-06
1.1e-06
1.1e-06
1.1e-06
1.1e-06
1.1e-06
1.1e-06
1.1e-06
1.1e-06
1.1e-06
1.1e-06
1.1e-06
1.1e-06
1.1e-06
1.1e-06
1.1e-06
1.1e-06
1.1e-06
1.1e-06
1.1e-06
1.1e-06
1.1e-06
1.1e-06
1.1e-06
1.1e-06
1.1e-06
1.1e-06
1.1e-06
1.1e-06
1.1e-06
1.1e-06
1.1e-06
1.1e-06
1.1e-06
1.1e-06
1.1e-06
1.1e-06
1.1e-06
1.1e-06
1.1e-06
1.1e-06
1.1e-06
1.1e-06
1.1e-06
1.1e-06
1.1e-06
1.1e-06
1.1e-06
1.1e-06
1.1e-06
1.1e-06
1.1e-06
1.1e-06
1.1e-06
1.1e-06
1.1e-06
1.1e-06
1.1e-06
1.1e-06
1.1e-06
1.1e-06
1.1e-06
1.1e-06
1.1e-06
1.1e-06
1.1e-06
1.1e-06
1.1e-06
1.1e-06
1.1e-06
1.1e-06
1.1e-06
1.1e-06
0.850516
0.85099
0.851408
0.851763
0.85205
0.852268
0.852412
0.852483
0.852479
0.852401
0.852251
0.85203
0.851743
0.851391
0.850978
0.850508
0.849985
0.849412
0.848794
0.848133
0.847434
0.846699
0.845932
0.845135
0.84431
0.84346
0.842587
0.841693
0.840779
0.839846
0.838895
0.837927
0.836943
0.835942
0.834925
0.83389
0.832837
0.831764
0.83067
0.82955
0.828402
0.82722
0.825996
0.824723
0.823387
0.821971
0.820451
0.818792
0.816941
0.814813
0.812265
0.809026
0.804517
0.797211
0.781285
0.693223
0.0661578
4.19502e-06
1.1e-06
1.1e-06
1.1e-06
1.1e-06
1.1e-06
1.1e-06
1.1e-06
1.1e-06
1.1e-06
1.1e-06
1.1e-06
1.1e-06
1.1e-06
1.1e-06
1.1e-06
1.1e-06
1.1e-06
1.1e-06
1.1e-06
1.1e-06
1.1e-06
1.1e-06
1.1e-06
1.1e-06
1.1e-06
1.1e-06
1.1e-06
1.1e-06
1.1e-06
1.1e-06
1.1e-06
1.1e-06
1.1e-06
1.1e-06
1.1e-06
1.1e-06
1.1e-06
1.1e-06
1.1e-06
1.1e-06
1.1e-06
1.1e-06
1.1e-06
1.1e-06
1.1e-06
1.1e-06
1.1e-06
1.1e-06
1.1e-06
1.1e-06
1.1e-06
1.1e-06
1.1e-06
1.1e-06
1.1e-06
1.1e-06
1.1e-06
1.1e-06
1.1e-06
1.1e-06
1.1e-06
1.1e-06
1.1e-06
1.1e-06
1.1e-06
1.1e-06
1.1e-06
1.1e-06
1.1e-06
1.1e-06
1.1e-06
1.1e-06
1.1e-06
1.1e-06
1.1e-06
1.1e-06
1.1e-06
1.1e-06
1.1e-06
1.1e-06
1.1e-06
1.1e-06
1.1e-06
1.1e-06
1.1e-06
1.1e-06
1.1e-06
1.1e-06
1.1e-06
1.1e-06
1.1e-06
1.1e-06
1.1e-06
1.1e-06
1.1e-06
1.1e-06
1.1e-06
1.1e-06
1.1e-06
1.1e-06
1.1e-06
1.1e-06
1.1e-06
1.1e-06
1.1e-06
1.1e-06
1.1e-06
1.1e-06
1.1e-06
1.1e-06
1.1e-06
1.1e-06
1.1e-06
1.1e-06
1.1e-06
1.1e-06
1.1e-06
1.1e-06
1.1e-06
1.1e-06
1.1e-06
1.1e-06
0.85278
0.853317
0.85379
0.854193
0.854521
0.854769
0.854935
0.855018
0.855016
0.854932
0.854767
0.854523
0.854206
0.853818
0.853364
0.852849
0.852278
0.851654
0.850983
0.850269
0.849516
0.848727
0.847905
0.847054
0.846177
0.845276
0.844353
0.84341
0.842449
0.841471
0.840477
0.839468
0.838445
0.837407
0.836356
0.83529
0.834209
0.833112
0.831997
0.830862
0.829705
0.828519
0.827302
0.826044
0.824737
0.823367
0.821916
0.820357
0.818653
0.816745
0.814538
0.811869
0.808426
0.803514
0.795204
0.77523
0.603845
0.0127294
1.10663e-06
1.1e-06
1.1e-06
1.1e-06
1.1e-06
1.1e-06
1.1e-06
1.1e-06
1.1e-06
1.1e-06
1.1e-06
1.1e-06
1.1e-06
1.1e-06
1.1e-06
1.1e-06
1.1e-06
1.1e-06
1.1e-06
1.1e-06
1.1e-06
1.1e-06
1.1e-06
1.1e-06
1.1e-06
1.1e-06
1.1e-06
1.1e-06
1.1e-06
1.1e-06
1.1e-06
1.1e-06
1.1e-06
1.1e-06
1.1e-06
1.1e-06
1.1e-06
1.1e-06
1.1e-06
1.1e-06
1.1e-06
1.1e-06
1.1e-06
1.1e-06
1.1e-06
1.1e-06
1.1e-06
1.1e-06
1.1e-06
1.1e-06
1.1e-06
1.1e-06
1.1e-06
1.1e-06
1.1e-06
1.1e-06
1.1e-06
1.1e-06
1.1e-06
1.1e-06
1.1e-06
1.1e-06
1.1e-06
1.1e-06
1.1e-06
1.1e-06
1.1e-06
1.1e-06
1.1e-06
1.1e-06
1.1e-06
1.1e-06
1.1e-06
1.1e-06
1.1e-06
1.1e-06
1.1e-06
1.1e-06
1.1e-06
1.1e-06
1.1e-06
1.1e-06
1.1e-06
1.1e-06
1.1e-06
1.1e-06
1.1e-06
1.1e-06
1.1e-06
1.1e-06
1.1e-06
1.1e-06
1.1e-06
1.1e-06
1.1e-06
1.1e-06
1.1e-06
1.1e-06
1.1e-06
1.1e-06
1.1e-06
1.1e-06
1.1e-06
1.1e-06
1.1e-06
1.1e-06
1.1e-06
1.1e-06
1.1e-06
1.1e-06
1.1e-06
1.1e-06
1.1e-06
1.1e-06
1.1e-06
1.1e-06
1.1e-06
1.1e-06
1.1e-06
1.1e-06
1.1e-06
1.1e-06
0.854951
0.855555
0.85609
0.856547
0.856919
0.857202
0.857392
0.857487
0.857487
0.857394
0.85721
0.85694
0.856589
0.85616
0.855661
0.855097
0.854474
0.853797
0.85307
0.8523
0.851491
0.850646
0.84977
0.848866
0.847937
0.846985
0.846014
0.845024
0.844017
0.842995
0.84196
0.840912
0.839851
0.838779
0.837694
0.836598
0.83549
0.834369
0.833233
0.832082
0.830912
0.829721
0.828503
0.827255
0.825966
0.824629
0.823227
0.821742
0.820144
0.818391
0.816416
0.814113
0.811289
0.807568
0.802074
0.792165
0.76398
0.408314
0.000767044
1.1e-06
1.1e-06
1.1e-06
1.1e-06
1.1e-06
1.1e-06
1.1e-06
1.1e-06
1.1e-06
1.1e-06
1.1e-06
1.1e-06
1.1e-06
1.1e-06
1.1e-06
1.1e-06
1.1e-06
1.1e-06
1.1e-06
1.1e-06
1.1e-06
1.1e-06
1.1e-06
1.1e-06
1.1e-06
1.1e-06
1.1e-06
1.1e-06
1.1e-06
1.1e-06
1.1e-06
1.1e-06
1.1e-06
1.1e-06
1.1e-06
1.1e-06
1.1e-06
1.1e-06
1.1e-06
1.1e-06
1.1e-06
1.1e-06
1.1e-06
1.1e-06
1.1e-06
1.1e-06
1.1e-06
1.1e-06
1.1e-06
1.1e-06
1.1e-06
1.1e-06
1.1e-06
1.1e-06
1.1e-06
1.1e-06
1.1e-06
1.1e-06
1.1e-06
1.1e-06
1.1e-06
1.1e-06
1.1e-06
1.1e-06
1.1e-06
1.1e-06
1.1e-06
1.1e-06
1.1e-06
1.1e-06
1.1e-06
1.1e-06
1.1e-06
1.1e-06
1.1e-06
1.1e-06
1.1e-06
1.1e-06
1.1e-06
1.1e-06
1.1e-06
1.1e-06
1.1e-06
1.1e-06
1.1e-06
1.1e-06
1.1e-06
1.1e-06
1.1e-06
1.1e-06
1.1e-06
1.1e-06
1.1e-06
1.1e-06
1.1e-06
1.1e-06
1.1e-06
1.1e-06
1.1e-06
1.1e-06
1.1e-06
1.1e-06
1.1e-06
1.1e-06
1.1e-06
1.1e-06
1.1e-06
1.1e-06
1.1e-06
1.1e-06
1.1e-06
1.1e-06
1.1e-06
1.1e-06
1.1e-06
1.1e-06
1.1e-06
1.1e-06
1.1e-06
1.1e-06
1.1e-06
0.857023
0.857705
0.85831
0.858827
0.85925
0.85957
0.859785
0.859893
0.859893
0.859788
0.859582
0.85928
0.858889
0.858416
0.857867
0.857249
0.856569
0.855834
0.85505
0.854222
0.853356
0.852455
0.851525
0.850568
0.849587
0.848586
0.847567
0.846532
0.845483
0.84442
0.843345
0.84226
0.841164
0.840059
0.838944
0.83782
0.836685
0.835541
0.834385
0.833216
0.832033
0.830833
0.829613
0.828367
0.827091
0.825775
0.824409
0.822977
0.821457
0.819817
0.818009
0.815957
0.813534
0.810507
0.8064
0.800037
0.787438
0.739711
0.191737
5.43218e-05
1.1e-06
1.1e-06
1.1e-06
1.1e-06
1.1e-06
1.1e-06
1.1e-06
1.1e-06
1.1e-06
1.1e-06
1.1e-06
1.1e-06
1.1e-06
1.1e-06
1.1e-06
1.1e-06
1.1e-06
1.1e-06
1.1e-06
1.1e-06
1.1e-06
1.1e-06
1.1e-06
1.1e-06
1.1e-06
1.1e-06
1.1e-06
1.1e-06
1.1e-06
1.1e-06
1.1e-06
1.1e-06
1.1e-06
1.1e-06
1.1e-06
1.1e-06
1.1e-06
1.1e-06
1.1e-06
1.1e-06
1.1e-06
1.1e-06
1.1e-06
1.1e-06
1.1e-06
1.1e-06
1.1e-06
1.1e-06
1.1e-06
1.1e-06
1.1e-06
1.1e-06
1.1e-06
1.1e-06
1.1e-06
1.1e-06
1.1e-06
1.1e-06
1.1e-06
1.1e-06
1.1e-06
1.1e-06
1.1e-06
1.1e-06
1.1e-06
1.1e-06
1.1e-06
1.1e-06
1.1e-06
1.1e-06
1.1e-06
1.1e-06
1.1e-06
1.1e-06
1.1e-06
1.1e-06
1.1e-06
1.1e-06
1.1e-06
1.1e-06
1.1e-06
1.1e-06
1.1e-06
1.1e-06
1.1e-06
1.1e-06
1.1e-06
1.1e-06
1.1e-06
1.1e-06
1.1e-06
1.1e-06
1.1e-06
1.1e-06
1.1e-06
1.1e-06
1.1e-06
1.1e-06
1.1e-06
1.1e-06
1.1e-06
1.1e-06
1.1e-06
1.1e-06
1.1e-06
1.1e-06
1.1e-06
1.1e-06
1.1e-06
1.1e-06
1.1e-06
1.1e-06
1.1e-06
1.1e-06
1.1e-06
1.1e-06
1.1e-06
1.1e-06
1.1e-06
1.1e-06
0.859103
0.859879
0.860569
0.861161
0.861645
0.862011
0.862255
0.862376
0.862373
0.862251
0.862016
0.861674
0.861234
0.860705
0.860096
0.859415
0.858671
0.857872
0.857023
0.856132
0.855204
0.854244
0.853257
0.852245
0.851212
0.850162
0.849095
0.848015
0.846923
0.84582
0.844707
0.843586
0.842456
0.841319
0.840175
0.839023
0.837863
0.836696
0.835519
0.834334
0.833136
0.831926
0.8307
0.829454
0.828184
0.826883
0.825542
0.824151
0.822691
0.82114
0.819461
0.817601
0.815473
0.812929
0.809688
0.805144
0.797692
0.781054
0.678426
0.0454926
2.3375e-06
1.1e-06
1.1e-06
1.1e-06
1.1e-06
1.1e-06
1.1e-06
1.1e-06
1.1e-06
1.1e-06
1.1e-06
1.1e-06
1.1e-06
1.1e-06
1.1e-06
1.1e-06
1.1e-06
1.1e-06
1.1e-06