/*--------------------------------*- C++ -*----------------------------------*\
  =========                 |
  \\      /  F ield         | OpenFOAM: The Open Source CFD Toolbox
   \\    /   O peration     | Website:  https://openfoam.org
    \\  /    A nd           | Version:  10
     \\/     M anipulation  |
\*---------------------------------------------------------------------------*/
FoamFile
{
    format      ascii;
    class       volVectorField;
    location    "1.74";
    object      Ua;
}
// * * * * * * * * * * * * * * * * * * * * * * * * * * * * * * * * * * * * * //

dimensions      [0 1 -1 0 0 0 0];

internalField   nonuniform List<vector> 
12225
(
(2.33783e-05 -3.00847e-06 0)
(6.83461e-05 -2.81755e-06 0)
(0.000109121 -2.46661e-06 0)
(0.000145057 -2.07138e-06 0)
(0.00017643 -1.71007e-06 0)
(0.000203986 -1.42162e-06 0)
(0.000228607 -1.21937e-06 0)
(0.00025114 -1.10474e-06 0)
(0.000272344 -1.07678e-06 0)
(0.000292899 -1.13842e-06 0)
(0.000313461 -1.30166e-06 0)
(0.000334733 -1.5946e-06 0)
(0.0003576 -2.07529e-06 0)
(0.000383362 -2.8647e-06 0)
(0.000414281 -4.23864e-06 0)
(0.000455107 -6.94363e-06 0)
(0.000518862 -1.36354e-05 0)
(0.000657762 -3.80031e-05 0)
(1.58706e-05 -7.78197e-06 0)
(4.67494e-05 -7.33376e-06 0)
(7.55298e-05 -6.46506e-06 0)
(0.000101749 -5.46683e-06 0)
(0.000125427 -4.54275e-06 0)
(0.000146877 -3.79912e-06 0)
(0.000166541 -3.27649e-06 0)
(0.000184885 -2.98347e-06 0)
(0.000202359 -2.92151e-06 0)
(0.000219387 -3.10165e-06 0)
(0.0002364 -3.55876e-06 0)
(0.000253873 -4.37081e-06 0)
(0.000272408 -5.69579e-06 0)
(0.000292871 -7.85776e-06 0)
(0.000316687 -1.15782e-05 0)
(0.000346458 -1.87153e-05 0)
(0.000386809 -3.51786e-05 0)
(0.000436294 -8.53574e-05 0)
(1.22732e-05 -1.06808e-05 0)
(3.63796e-05 -1.01579e-05 0)
(5.93474e-05 -9.0417e-06 0)
(8.08114e-05 -7.71647e-06 0)
(0.000100689 -6.46554e-06 0)
(0.000119105 -5.4467e-06 0)
(0.000136299 -4.728e-06 0)
(0.000152557 -4.33152e-06 0)
(0.000168176 -4.26723e-06 0)
(0.000183453 -4.55731e-06 0)
(0.0001987 -5.25723e-06 0)
(0.000214264 -6.48369e-06 0)
(0.000230578 -8.46629e-06 0)
(0.000248225 -1.16622e-05 0)
(0.000268039 -1.70424e-05 0)
(0.000291079 -2.68904e-05 0)
(0.000317301 -4.72241e-05 0)
(0.000335319 -9.47132e-05 0)
(9.95105e-06 -1.25557e-05 0)
(2.96671e-05 -1.2054e-05 0)
(4.88243e-05 -1.08323e-05 0)
(6.71263e-05 -9.32741e-06 0)
(8.44407e-05 -7.87751e-06 0)
(0.000100785 -6.68237e-06 0)
(0.000116277 -5.83678e-06 0)
(0.000131088 -5.37884e-06 0)
(0.000145416 -5.32979e-06 0)
(0.000159472 -5.72376e-06 0)
(0.00017348 -6.63395e-06 0)
(0.000187691 -8.20603e-06 0)
(0.0002024 -1.07168e-05 0)
(0.000217956 -1.46948e-05 0)
(0.000234712 -2.11915e-05 0)
(0.000252662 -3.24074e-05 0)
(0.000269714 -5.30299e-05 0)
(0.000275472 -9.16336e-05 0)
(8.26768e-06 -1.37041e-05 0)
(2.47858e-05 -1.32864e-05 0)
(4.11323e-05 -1.20537e-05 0)
(5.70642e-05 -1.0469e-05 0)
(7.24258e-05 -8.90896e-06 0)
(8.71689e-05 -7.60777e-06 0)
(0.000101331 -6.68527e-06 0)
(0.000115004 -6.19644e-06 0)
(0.000128312 -6.17487e-06 0)
(0.000141398 -6.66623e-06 0)
(0.000154417 -7.75767e-06 0)
(0.000167538 -9.61354e-06 0)
(0.000180938 -1.25333e-05 0)
(0.000194768 -1.70597e-05 0)
(0.000209024 -2.41873e-05 0)
(0.000223088 -3.57349e-05 0)
(0.000234393 -5.47653e-05 0)
(0.000235659 -8.46373e-05 0)
(6.9707e-06 -1.42786e-05 0)
(2.10123e-05 -1.39894e-05 0)
(3.51527e-05 -1.2813e-05 0)
(4.91916e-05 -1.1222e-05 0)
(6.29662e-05 -9.61955e-06 0)
(7.63883e-05 -8.26739e-06 0)
(8.94401e-05 -7.30802e-06 0)
(0.000102155 -6.81297e-06 0)
(0.000114601 -6.8281e-06 0)
(0.000126863 -7.40921e-06 0)
(0.00013904 -8.65294e-06 0)
(0.000151228 -1.07316e-05 0)
(0.000163504 -1.39442e-05 0)
(0.000175866 -1.87994e-05 0)
(0.000188076 -2.61445e-05 0)
(0.00019927 -3.73093e-05 0)
(0.000207156 -5.39966e-05 0)
(0.000207204 -7.68764e-05 0)
(5.93419e-06 -1.43742e-05 0)
(1.79859e-05 -1.42448e-05 0)
(3.03284e-05 -1.31733e-05 0)
(4.27961e-05 -1.16318e-05 0)
(5.52294e-05 -1.00404e-05 0)
(6.75178e-05 -8.68249e-06 0)
(7.96053e-05 -7.72001e-06 0)
(9.14817e-05 -7.2397e-06 0)
(0.000103168 -7.29864e-06 0)
(0.000114705 -7.9607e-06 0)
(0.000126138 -9.32706e-06 0)
(0.000137504 -1.15677e-05 0)
(0.0001488 -1.49614e-05 0)
(0.000159916 -1.99489e-05 0)
(0.000170493 -2.71883e-05 0)
(0.000179655 -3.7546e-05 0)
(0.000185638 -5.17868e-05 0)
(0.000185817 -6.94594e-05 0)
(5.08595e-06 -1.40586e-05 0)
(1.54999e-05 -1.41098e-05 0)
(2.63403e-05 -1.31767e-05 0)
(3.74705e-05 -1.17264e-05 0)
(4.87415e-05 -1.01888e-05 0)
(6.0032e-05 -8.86299e-06 0)
(7.12611e-05 -7.92659e-06 0)
(8.23849e-05 -7.47931e-06 0)
(9.33877e-05 -7.58769e-06 0)
(0.00010427 -8.32103e-06 0)
(0.000115036 -9.78019e-06 0)
(0.000125672 -1.21239e-05 0)
(0.000136115 -1.55962e-05 0)
(0.000146189 -2.05518e-05 0)
(0.000155503 -2.7458e-05 0)
(0.000163294 -3.68097e-05 0)
(0.00016832 -4.88147e-05 0)
(0.000169135 -6.27029e-05 0)
(4.3804e-06 -1.33862e-05 0)
(1.34236e-05 -1.36286e-05 0)
(2.29868e-05 -1.28545e-05 0)
(3.29585e-05 -1.15249e-05 0)
(4.32048e-05 -1.00748e-05 0)
(5.36032e-05 -8.81295e-06 0)
(6.40564e-05 -7.92816e-06 0)
(7.44954e-05 -7.53013e-06 0)
(8.48746e-05 -7.69253e-06 0)
(9.51618e-05 -8.48723e-06 0)
(0.000105325 -1.00103e-05 0)
(0.000115312 -1.24026e-05 0)
(0.00012502 -1.58649e-05 0)
(0.000134246 -2.06623e-05 0)
(0.000142618 -2.70957e-05 0)
(0.00014953 -3.53974e-05 0)
(0.000154162 -4.54907e-05 0)
(0.000155751 -5.66304e-05 0)
(3.78655e-06 -1.24056e-05 0)
(1.16678e-05 -1.28393e-05 0)
(2.01305e-05 -1.22318e-05 0)
(2.90855e-05 -1.10419e-05 0)
(3.84186e-05 -9.70491e-06 0)
(4.80116e-05 -8.53363e-06 0)
(5.7758e-05 -7.72283e-06 0)
(6.75698e-05 -7.38862e-06 0)
(7.7377e-05 -7.60898e-06 0)
(8.71207e-05 -8.45555e-06 0)
(9.67405e-05 -1.00161e-05 0)
(0.000106156 -1.24093e-05 0)
(0.000115242 -1.57904e-05 0)
(0.000123794 -2.03424e-05 0)
(0.000131488 -2.62356e-05 0)
(0.000137875 -3.35362e-05 0)
(0.000142433 -4.20512e-05 0)
(0.000144778 -5.11709e-05 0)
(3.28175e-06 -1.11638e-05 0)
(1.01671e-05 -1.17768e-05 0)
(1.76698e-05 -1.13311e-05 0)
(2.57241e-05 -1.02895e-05 0)
(3.42378e-05 -9.08437e-06 0)
(4.31011e-05 -8.02556e-06 0)
(5.22022e-05 -7.30833e-06 0)
(6.14389e-05 -7.05108e-06 0)
(7.07221e-05 -7.33313e-06 0)
(7.99712e-05 -8.22331e-06 0)
(8.91044e-05 -9.79868e-06 0)
(9.80233e-05 -1.21542e-05 0)
(0.000106593 -1.54023e-05 0)
(0.000114623 -1.9657e-05 0)
(0.000121851 -2.4996e-05 0)
(0.000127953 -3.1392e-05 0)
(0.00013261 -3.86261e-05 0)
(0.000135636 -4.62346e-05 0)
(2.81324e-06 -9.82116e-06 0)
(8.77943e-06 -1.05804e-05 0)
(1.54089e-05 -1.02733e-05 0)
(2.26565e-05 -9.372e-06 0)
(3.04452e-05 -8.30144e-06 0)
(3.86678e-05 -7.36309e-06 0)
(4.72054e-05 -6.74768e-06 0)
(5.59431e-05 -6.57235e-06 0)
(6.47765e-05 -6.91533e-06 0)
(7.36095e-05 -7.84127e-06 0)
(8.23468e-05 -9.41642e-06 0)
(9.08812e-05 -1.17147e-05 0)
(9.908e-05 -1.48136e-05 0)
(0.000106773 -1.87774e-05 0)
(0.00011375 -2.36256e-05 0)
(0.000119776 -2.92864e-05 0)
(0.000124648 -3.55533e-05 0)
(0.000128267 -4.20768e-05 0)
(2.50763e-06 -8.35032e-06 0)
(7.85372e-06 -9.21652e-06 0)
(1.38575e-05 -9.02257e-06 0)
(2.05001e-05 -8.25397e-06 0)
(2.77266e-05 -7.32328e-06 0)
(3.54403e-05 -6.51656e-06 0)
(4.35222e-05 -6.01469e-06 0)
(5.18508e-05 -5.92984e-06 0)
(6.03113e-05 -6.33691e-06 0)
(6.87971e-05 -7.29509e-06 0)
(7.72028e-05 -8.85988e-06 0)
(8.54161e-05 -1.10865e-05 0)
(9.33086e-05 -1.40246e-05 0)
(0.000100729 -1.77029e-05 0)
(0.00010751 -2.2106e-05 0)
(0.000113481 -2.71458e-05 0)
(0.000118514 -3.2642e-05 0)
(0.000122563 -3.83307e-05 0)
(2.20139e-06 -6.59257e-06 0)
(6.91197e-06 -7.50686e-06 0)
(1.22606e-05 -7.39593e-06 0)
(1.82728e-05 -6.76061e-06 0)
(2.49193e-05 -5.98966e-06 0)
(3.21112e-05 -5.34209e-06 0)
(3.9727e-05 -4.98057e-06 0)
(4.76369e-05 -5.00731e-06 0)
(5.57167e-05 -5.49075e-06 0)
(6.38496e-05 -6.48257e-06 0)
(7.19234e-05 -8.02632e-06 0)
(7.98238e-05 -1.01589e-05 0)
(8.74302e-05 -1.29054e-05 0)
(9.46145e-05 -1.62676e-05 0)
(0.000101248 -2.02091e-05 0)
(0.000107216 -2.46413e-05 0)
(0.000112442 -2.94179e-05 0)
(0.000116911 -3.4348e-05 0)
(1.87994e-06 -4.58211e-06 0)
(5.91273e-06 -5.40919e-06 0)
(1.05649e-05 -5.32048e-06 0)
(1.59313e-05 -4.81023e-06 0)
(2.20028e-05 -4.21902e-06 0)
(2.86879e-05 -3.76046e-06 0)
(3.58536e-05 -3.56832e-06 0)
(4.33586e-05 -3.72906e-06 0)
(5.10678e-05 -4.30141e-06 0)
(5.88565e-05 -5.32775e-06 0)
(6.66083e-05 -6.83976e-06 0)
(7.42122e-05 -8.85888e-06 0)
(8.15612e-05 -1.13924e-05 0)
(8.85533e-05 -1.44264e-05 0)
(9.50971e-05 -1.79176e-05 0)
(0.000101121 -2.17879e-05 0)
(0.000106585 -2.59256e-05 0)
(0.000111485 -3.01963e-05 0)
(1.47646e-06 -2.39127e-06 0)
(4.68678e-06 -2.87893e-06 0)
(8.56649e-06 -2.7314e-06 0)
(1.32934e-05 -2.34141e-06 0)
(1.88434e-05 -1.95388e-06 0)
(2.50889e-05 -1.71273e-06 0)
(3.18648e-05 -1.71273e-06 0)
(3.9007e-05 -2.02107e-06 0)
(4.63683e-05 -2.68612e-06 0)
(5.3823e-05 -3.74374e-06 0)
(6.12648e-05 -5.21906e-06 0)
(6.86029e-05 -7.12465e-06 0)
(7.57573e-05 -9.45852e-06 0)
(8.26568e-05 -1.22001e-05 0)
(8.92403e-05 -1.53067e-05 0)
(9.54603e-05 -1.87129e-05 0)
(0.000101287 -2.23335e-05 0)
(0.000106712 -2.60716e-05 0)
(7.51576e-07 6.26176e-09 0)
(2.60432e-06 1.73457e-07 0)
(5.41023e-06 4.03801e-07 0)
(9.3807e-06 6.31629e-07 0)
(1.43601e-05 7.84649e-07 0)
(2.01308e-05 7.87896e-07 0)
(2.65024e-05 5.76003e-07 0)
(3.33154e-05 9.83031e-08 0)
(4.04314e-05 -6.81642e-07 0)
(4.77564e-05 -1.83973e-06 0)
(5.52232e-05 -3.37285e-06 0)
(6.27392e-05 -5.25711e-06 0)
(7.0202e-05 -7.48524e-06 0)
(7.75221e-05 -1.00334e-05 0)
(8.46232e-05 -1.28614e-05 0)
(9.14447e-05 -1.5914e-05 0)
(9.79435e-05 -1.91251e-05 0)
(0.000104095 -2.24231e-05 0)
(1.7677e-06 2.86415e-06 0)
(5.41386e-06 3.8774e-06 0)
(9.4187e-06 4.32553e-06 0)
(1.39895e-05 4.44315e-06 0)
(1.9206e-05 4.34353e-06 0)
(2.50448e-05 4.04604e-06 0)
(3.14189e-05 3.53553e-06 0)
(3.82161e-05 2.79128e-06 0)
(4.53197e-05 1.79674e-06 0)
(5.25941e-05 4.91308e-07 0)
(5.98974e-05 -1.10625e-06 0)
(6.7197e-05 -3.1065e-06 0)
(7.44876e-05 -5.36632e-06 0)
(8.16918e-05 -7.83785e-06 0)
(8.8734e-05 -1.04868e-05 0)
(9.5555e-05 -1.32704e-05 0)
(0.000102112 -1.61406e-05 0)
(0.000108377 -1.90482e-05 0)
(2.47873e-06 6.81093e-06 0)
(7.60637e-06 8.38599e-06 0)
(1.30807e-05 9.09363e-06 0)
(1.89265e-05 9.18069e-06 0)
(2.51691e-05 8.84332e-06 0)
(3.18038e-05 8.19894e-06 0)
(3.87903e-05 7.30868e-06 0)
(4.60625e-05 6.20236e-06 0)
(5.35404e-05 4.89511e-06 0)
(6.114e-05 3.39607e-06 0)
(6.87804e-05 1.7174e-06 0)
(7.63293e-05 -2.73327e-07 0)
(8.36792e-05 -2.47747e-06 0)
(9.08342e-05 -4.88707e-06 0)
(9.77914e-05 -7.37572e-06 0)
(0.000104515 -9.91508e-06 0)
(0.000110979 -1.24747e-05 0)
(0.00011717 -1.50243e-05 0)
(2.83714e-06 1.12223e-05 0)
(8.75958e-06 1.27948e-05 0)
(1.51423e-05 1.34778e-05 0)
(2.19279e-05 1.34348e-05 0)
(2.90749e-05 1.28599e-05 0)
(3.65379e-05 1.19081e-05 0)
(4.42591e-05 1.06858e-05 0)
(5.21699e-05 9.26138e-06 0)
(6.01959e-05 7.67765e-06 0)
(6.82628e-05 5.96248e-06 0)
(7.63005e-05 4.13621e-06 0)
(8.42452e-05 2.21527e-06 0)
(9.20186e-05 1.68149e-07 0)
(9.95334e-05 -2.08267e-06 0)
(0.000106781 -4.4242e-06 0)
(0.000113778 -6.75779e-06 0)
(0.000120505 -9.06566e-06 0)
(0.000126951 -1.13304e-05 0)
(3.39367e-06 1.50508e-05 0)
(1.04198e-05 1.63208e-05 0)
(1.78901e-05 1.67495e-05 0)
(2.57362e-05 1.64545e-05 0)
(3.38897e-05 1.56157e-05 0)
(4.22825e-05 1.43956e-05 0)
(5.08434e-05 1.29169e-05 0)
(5.94994e-05 1.1264e-05 0)
(6.8178e-05 9.49267e-06 0)
(7.68108e-05 7.63888e-06 0)
(8.53357e-05 5.72709e-06 0)
(9.36984e-05 3.7754e-06 0)
(0.000101853 1.7988e-06 0)
(0.000109732 -2.46967e-07 0)
(0.000117287 -2.44209e-06 0)
(0.00012453 -4.62398e-06 0)
(0.000131469 -6.74938e-06 0)
(0.000138099 -8.80855e-06 0)
(4.07868e-06 1.81826e-05 0)
(1.24375e-05 1.90915e-05 0)
(2.11751e-05 1.91964e-05 0)
(3.02276e-05 1.86082e-05 0)
(3.95137e-05 1.75009e-05 0)
(4.89496e-05 1.60388e-05 0)
(5.84538e-05 1.43504e-05 0)
(6.79492e-05 1.25267e-05 0)
(7.73646e-05 1.06279e-05 0)
(8.66371e-05 8.69261e-06 0)
(9.57122e-05 6.74544e-06 0)
(0.000104545 4.80279e-06 0)
(0.0001131 2.87668e-06 0)
(0.000121349 9.76868e-07 0)
(0.000129229 -9.96638e-07 0)
(0.000136726 -3.02292e-06 0)
(0.000143881 -4.97199e-06 0)
(0.000150695 -6.83974e-06 0)
(4.91242e-06 2.04142e-05 0)
(1.48844e-05 2.09764e-05 0)
(2.51311e-05 2.07585e-05 0)
(3.55912e-05 1.98868e-05 0)
(4.61759e-05 1.85386e-05 0)
(5.67924e-05 1.6879e-05 0)
(6.73537e-05 1.50374e-05 0)
(7.77824e-05 1.31049e-05 0)
(8.80117e-05 1.11412e-05 0)
(9.79862e-05 9.18308e-06 0)
(0.000107661 7.25255e-06 0)
(0.000117003 5.36256e-06 0)
(0.000125986 3.52114e-06 0)
(0.000134595 1.73376e-06 0)
(0.000142806 -1.68128e-08 0)
(0.000150597 -1.85379e-06 0)
(0.000157976 -3.62286e-06 0)
(0.000164971 -5.30205e-06 0)
(5.92315e-06 2.16464e-05 0)
(1.7847e-05 2.19051e-05 0)
(2.99037e-05 2.14048e-05 0)
(4.2026e-05 2.02958e-05 0)
(5.41185e-05 1.87618e-05 0)
(6.60844e-05 1.69679e-05 0)
(7.78375e-05 1.50408e-05 0)
(8.93056e-05 1.30679e-05 0)
(0.000100432 1.11046e-05 0)
(0.000111172 9.18342e-06 0)
(0.000121496 7.32187e-06 0)
(0.000131383 5.52855e-06 0)
(0.000140821 3.80718e-06 0)
(0.000149807 2.15912e-06 0)
(0.000158341 5.84705e-07 0)
(0.000166401 -1.02216e-06 0)
(0.000173994 -2.60407e-06 0)
(0.000181161 -4.09316e-06 0)
(7.15398e-06 2.18358e-05 0)
(2.14516e-05 2.1846e-05 0)
(3.56954e-05 2.11273e-05 0)
(4.98011e-05 1.98515e-05 0)
(6.3666e-05 1.82074e-05 0)
(7.71941e-05 1.63576e-05 0)
(9.03069e-05 1.44227e-05 0)
(0.000102945 1.24833e-05 0)
(0.000115069 1.05883e-05 0)
(0.000126653 8.76419e-06 0)
(0.000137684 7.0233e-06 0)
(0.00014816 5.36963e-06 0)
(0.000158085 3.80283e-06 0)
(0.00016747 2.3206e-06 0)
(0.00017633 9.19972e-07 0)
(0.00018466 -4.49458e-07 0)
(0.000192475 -1.83634e-06 0)
(0.00019982 -3.13212e-06 0)
(8.67408e-06 2.09597e-05 0)
(2.58993e-05 2.07829e-05 0)
(4.28249e-05 1.99246e-05 0)
(5.93371e-05 1.85701e-05 0)
(7.53244e-05 1.69076e-05 0)
(9.06973e-05 1.50923e-05 0)
(0.000105394 1.32354e-05 0)
(0.00011938 1.1408e-05 0)
(0.000132638 9.651e-06 0)
(0.000145172 7.98426e-06 0)
(0.000156992 6.41483e-06 0)
(0.00016812 4.94254e-06 0)
(0.000178579 3.56363e-06 0)
(0.000188399 2.27297e-06 0)
(0.000197611 1.06526e-06 0)
(0.000206236 -7.63034e-08 0)
(0.000214294 -1.25615e-06 0)
(0.000221823 -2.35506e-06 0)
(1.06051e-05 1.89844e-05 0)
(3.1544e-05 1.86871e-05 0)
(5.18534e-05 1.77803e-05 0)
(7.13745e-05 1.64499e-05 0)
(8.99857e-05 1.48746e-05 0)
(0.000107612 1.31955e-05 0)
(0.000124222 1.15102e-05 0)
(0.000139815 9.87838e-06 0)
(0.000154416 8.33177e-06 0)
(0.000168063 6.88378e-06 0)
(0.000180801 5.5368e-06 0)
(0.000192682 4.28735e-06 0)
(0.000203756 3.12931e-06 0)
(0.000214075 2.05581e-06 0)
(0.000223687 1.06019e-06 0)
(0.000232641 1.36501e-07 0)
(0.000240961 -8.17138e-07 0)
(0.000248686 -1.71474e-06 0)
(1.31938e-05 1.58199e-05 0)
(3.91038e-05 1.54758e-05 0)
(6.39221e-05 1.46259e-05 0)
(8.74221e-05 1.344e-05 0)
(0.000109471 1.20742e-05 0)
(0.000130022 1.06476e-05 0)
(0.000149091 9.23916e-06 0)
(0.000166734 7.89497e-06 0)
(0.000183033 6.6375e-06 0)
(0.000198079 5.47427e-06 0)
(0.000211967 4.40416e-06 0)
(0.000224787 3.42176e-06 0)
(0.000236626 2.51995e-06 0)
(0.000247563 1.69138e-06 0)
(0.000257674 9.29219e-07 0)
(0.000267025 2.27324e-07 0)
(0.000275662 -4.86396e-07 0)
(0.000283638 -1.17623e-06 0)
(1.70735e-05 1.12132e-05 0)
(5.04264e-05 1.09102e-05 0)
(8.19723e-05 1.02484e-05 0)
(0.000111377 9.35832e-06 0)
(0.000138497 8.35594e-06 0)
(0.000163334 7.32674e-06 0)
(0.000185985 6.32543e-06 0)
(0.000206601 5.38215e-06 0)
(0.000225356 4.5102e-06 0)
(0.000242425 3.71244e-06 0)
(0.000257973 2.98606e-06 0)
(0.000272154 2.32559e-06 0)
(0.000285106 1.7247e-06 0)
(0.000296952 1.1772e-06 0)
(0.000307801 6.77427e-07 0)
(0.000317751 2.20388e-07 0)
(0.000326875 -2.43516e-07 0)
(0.000335253 -7.17413e-07 0)
(2.51759e-05 4.2603e-06 0)
(7.40853e-05 4.13145e-06 0)
(0.000119722 3.8663e-06 0)
(0.000161531 3.51699e-06 0)
(0.000199352 3.12879e-06 0)
(0.000233301 2.73444e-06 0)
(0.000263655 2.35432e-06 0)
(0.000290761 1.99926e-06 0)
(0.000314984 1.67362e-06 0)
(0.000336668 1.37786e-06 0)
(0.000356126 1.11043e-06 0)
(0.000373634 8.68839e-07 0)
(0.000389431 6.50386e-07 0)
(0.000403723 4.52478e-07 0)
(0.000416689 2.72787e-07 0)
(0.000428483 1.09262e-07 0)
(0.000439204 -5.81651e-08 0)
(0.000448884 -2.39812e-07 0)
(0.00122643 -0.000523602 -6.75292e-30)
(0.00368958 -0.000526528 6.76166e-30)
(0.00617029 -0.000528474 0)
(0.00866205 -0.000533851 0)
(0.01115 -0.000526998 0)
(0.0136035 -0.000528129 -6.66531e-30)
(0.0159512 -0.000553013 0)
(0.0180678 -0.000634837 0)
(0.0198357 -0.000913144 0)
(0.0214464 -0.0015798 0)
(0.022609 -0.000659941 8.26264e-30)
(0.0223984 0.00107133 0)
(0.0216239 0.000436323 0)
(0.0213453 0.000102141 0)
(0.0213407 -9.27548e-05 0)
(0.021513 -0.000233585 2.76506e-30)
(0.0218307 -0.000363598 0)
(0.0222414 -0.00040242 0)
(0.0225047 -8.57902e-05 0)
(0.0224977 9.78393e-05 0)
(0.0223955 8.8246e-05 0)
(0.0223261 3.72304e-05 0)
(0.0223056 -4.12866e-07 0)
(0.0223026 5.83567e-06 -3.38697e-31)
(0.0222474 9.10794e-05 1.4398e-30)
(0.0220986 0.000168484 -2.43847e-30)
(0.0218808 0.000208595 -2.95432e-30)
(0.0216224 0.000235125 0)
(0.0213279 0.000266491 0)
(0.0209926 0.000300046 4.12581e-30)
(0.0206207 0.000322988 4.41795e-30)
(0.0202243 0.00033574 0)
(0.0198131 0.000341966 0)
(0.0193939 0.000343128 4.66377e-30)
(0.0189723 0.000340264 0)
(0.0185528 0.000334132 0)
(0.0181391 0.000325393 -4.41973e-30)
(0.0177343 0.000314661 0)
(0.0173407 0.000302496 -4.11437e-30)
(0.0169601 0.000289384 -7.8808e-30)
(0.0165936 0.00027573 0)
(0.0162421 0.000261862 0)
(0.0159059 0.000248036 0)
(0.0155851 0.000234448 0)
(0.0152796 0.00022124 0)
(0.014989 0.000208511 -5.74377e-30)
(0.014713 0.000196327 -5.4223e-30)
(0.014451 0.000184725 -5.11621e-30)
(0.0142025 0.000173721 0)
(0.0139669 0.000163315 4.55133e-30)
(0.0137435 0.000153496 0)
(0.0135319 0.000144246 -4.04815e-30)
(0.0133313 0.000135542 -3.81842e-30)
(0.0131412 0.000127357 0)
(0.0129611 0.000119665 0)
(0.0127904 0.000112436 0)
(0.0126287 0.000105644 -3.02899e-30)
(0.0124755 9.92633e-05 0)
(0.0123303 9.3268e-05 0)
(0.0121928 8.76346e-05 0)
(0.0120624 8.23408e-05 0)
(0.0119389 7.73655e-05 0)
(0.0118219 7.2689e-05 0)
(0.011711 6.82928e-05 0)
(0.0116059 6.41594e-05 0)
(0.0115063 6.02727e-05 1.82967e-30)
(0.011412 5.66175e-05 0)
(0.0113227 5.31795e-05 0)
(0.011238 4.99453e-05 -1.55638e-30)
(0.0111579 4.69026e-05 -1.47584e-30)
(0.011082 4.40398e-05 0)
(0.0110101 4.13458e-05 1.3287e-30)
(0.010942 3.88106e-05 -1.26156e-30)
(0.0108776 3.64247e-05 0)
(0.0108166 3.41791e-05 1.13888e-30)
(0.0107589 3.20655e-05 0)
(0.0107043 3.00762e-05 0)
(0.0106527 2.82038e-05 -9.80552e-31)
(0.0106038 2.64416e-05 0)
(0.0105577 2.47832e-05 8.89889e-31)
(0.010514 2.32225e-05 0)
(0.0104728 2.1754e-05 -8.09584e-31)
(0.0104338 2.03723e-05 -7.72947e-31)
(0.010397 1.90725e-05 -7.38479e-31)
(0.0103623 1.785e-05 -1.41211e-30)
(0.0103295 1.67002e-05 1.35113e-30)
(0.0102985 1.56192e-05 0)
(0.0102694 1.4603e-05 0)
(0.0102419 1.3648e-05 0)
(0.0102159 1.27506e-05 1.14157e-30)
(0.0101915 1.19076e-05 1.09684e-30)
(0.0101685 1.1116e-05 -1.05482e-30)
(0.0101468 1.03728e-05 0)
(0.0101264 9.6753e-06 9.78353e-31)
(0.0101072 9.02085e-06 9.43618e-31)
(0.0100892 8.40703e-06 9.11033e-31)
(0.0100723 7.83152e-06 0)
(0.0100563 7.29211e-06 0)
(0.0100414 6.78673e-06 0)
(0.0100273 6.31342e-06 7.99874e-31)
(0.0100142 5.87032e-06 0)
(0.0100018 5.45567e-06 0)
(0.00999024 5.0678e-06 -7.33721e-31)
(0.0099794 4.70516e-06 0)
(0.00996924 4.36624e-06 0)
(0.00995974 4.04964e-06 -6.79646e-31)
(0.00995085 3.75403e-06 0)
(0.00994254 3.47815e-06 0)
(0.00993477 3.22081e-06 6.35617e-31)
(0.00992752 2.98087e-06 6.2287e-31)
(0.00992075 2.75728e-06 0)
(0.00991443 2.54904e-06 -5.99929e-31)
(0.00990854 2.35518e-06 0)
(0.00990305 2.17482e-06 5.80043e-31)
(0.00989794 2.0071e-06 0)
(0.00989318 1.85123e-06 5.6285e-31)
(0.00988875 1.70644e-06 5.55151e-31)
(0.00988463 1.57204e-06 0)
(0.00988081 1.44734e-06 0)
(0.00987726 1.33171e-06 0)
(0.00987396 1.22457e-06 0)
(0.0098709 1.12534e-06 0)
(0.00986807 1.0335e-06 0)
(0.00986545 9.48548e-07 0)
(0.00986302 8.70026e-07 5.10699e-31)
(0.00986077 7.9749e-07 -5.06838e-31)
(0.00985869 7.3053e-07 0)
(0.00985677 6.68758e-07 0)
(0.00985499 6.11814e-07 0)
(0.00985336 5.59357e-07 0)
(0.00985185 5.1107e-07 -9.8322e-31)
(0.00985045 4.66658e-07 0)
(0.00984917 4.25842e-07 9.74157e-31)
(0.00984799 3.88365e-07 -9.70171e-31)
(0.00984691 3.53986e-07 0)
(0.00984591 3.22482e-07 0)
(0.00984499 2.93648e-07 0)
(0.00984415 2.67292e-07 9.57294e-31)
(0.00984337 2.43239e-07 9.54733e-31)
(0.00984266 2.2133e-07 0)
(0.00984201 2.0142e-07 9.50277e-31)
(0.00984141 1.83378e-07 9.48351e-31)
(0.00984086 1.67092e-07 -9.4662e-31)
(0.00984035 1.52462e-07 0)
(0.00983988 1.39407e-07 0)
(0.00983945 1.27864e-07 -9.42431e-31)
(0.00983905 1.1779e-07 0)
(0.00983867 1.09165e-07 0)
(0.00983832 1.01993e-07 0)
(0.00983799 9.63117e-08 0)
(0.00983767 9.21928e-08 9.38573e-31)
(0.00983736 8.97529e-08 9.38292e-31)
(0.00983705 8.91623e-08 0)
(0.00983674 9.0658e-08 9.38327e-31)
(0.00983641 9.456e-08 0)
(0.00983606 1.01294e-07 0)
(0.00983568 1.11417e-07 9.40374e-31)
(0.00983525 1.25657e-07 0)
(0.00983476 1.44959e-07 9.43757e-31)
(0.00983418 1.70549e-07 0)
(0.00983348 2.04015e-07 0)
(0.00983263 2.47425e-07 9.54148e-31)
(0.00983159 3.03472e-07 0)
(0.00983029 3.75681e-07 9.67187e-31)
(0.00982865 4.68695e-07 0)
(0.00982659 5.88673e-07 0)
(0.00982396 7.43859e-07 0)
(0.0098206 9.45416e-07 -1.02518e-30)
(0.00981628 1.20868e-06 0)
(0.00981067 1.55511e-06 1.08729e-30)
(0.00980336 2.0154e-06 0)
(0.00979375 2.63478e-06 0)
(0.00978098 3.48233e-06 0)
(0.00976379 4.66879e-06 0)
(0.00974027 6.38308e-06 0)
(0.00970726 8.97596e-06 0)
(0.00965917 1.31801e-05 0)
(0.00958466 2.08131e-05 -6.11434e-30)
(0.00945512 3.77016e-05 0)
(0.00916803 9.06583e-05 0)
(1.78444e-05 -0.000746122 9.64274e-30)
(5.39295e-05 -0.000747926 -9.66477e-30)
(9.13523e-05 -0.000748638 0)
(0.000132041 -0.000753885 1.94812e-29)
(0.000177688 -0.000746438 0)
(0.000240052 -0.000738429 -9.54114e-30)
(0.000363768 -0.000747966 -1.93173e-29)
(0.000695214 -0.000817087 -2.10883e-29)
(0.00188509 -0.00109743 0)
(0.00512497 -0.00178357 -4.58622e-29)
(0.00962112 -0.000861258 1.10179e-29)
(0.0154201 0.000873893 0)
(0.0193851 0.000168541 0)
(0.0199804 -0.000236923 0)
(0.0203904 -0.000526635 0)
(0.0207588 -0.000823052 1.03926e-29)
(0.0213732 -0.0015245 0)
(0.0227105 -0.0024994 6.35355e-29)
(0.0234244 0.000193756 0)
(0.0228178 0.000941131 0)
(0.022286 0.000400535 1.14059e-29)
(0.0221662 6.76158e-05 0)
(0.0222487 -0.000140999 2.59417e-30)
(0.0224632 -0.000228743 2.69127e-30)
(0.0225326 0.000298689 4.12645e-30)
(0.0223036 0.000619462 -8.26964e-30)
(0.0219962 0.000666952 -8.87981e-30)
(0.0217218 0.0006918 0)
(0.0214385 0.000793737 0)
(0.0210882 0.000930678 1.22777e-29)
(0.0206809 0.000997681 3.99048e-29)
(0.0202563 0.00102527 0)
(0.0198258 0.00103961 0)
(0.0193917 0.00104004 1.36711e-29)
(0.0189584 0.00102923 0)
(0.0185296 0.00100894 0)
(0.0181088 0.000981037 -1.28934e-29)
(0.0176988 0.000947347 0)
(0.0173018 0.000909591 -3.62897e-29)
(0.0169191 0.000869237 -2.28687e-29)
(0.0165518 0.000827482 0)
(0.0162004 0.000785277 0)
(0.0158649 0.000743362 3.99291e-29)
(0.0155454 0.000702294 3.77757e-29)
(0.0152414 0.000662473 3.56883e-29)
(0.0149527 0.000624176 -5.01688e-29)
(0.0146786 0.000587576 -1.5535e-29)
(0.0144186 0.000552767 1.53099e-29)
(0.0141721 0.000519785 -2.82105e-29)
(0.0139384 0.000488619 1.29596e-29)
(0.0137169 0.000459229 0)
(0.013507 0.000431554 -1.14743e-29)
(0.0133081 0.000405519 -3.30182e-29)
(0.0131196 0.000381042 0)
(0.0129409 0.000358038 0)
(0.0127717 0.000336424 0)
(0.0126112 0.000316116 -8.46914e-30)
(0.0124592 0.000297036 0)
(0.0123151 0.000279108 -1.55925e-29)
(0.0121786 0.000262262 0)
(0.0120492 0.00024643 -1.3878e-29)
(0.0119266 0.00023155 0)
(0.0118104 0.000217563 1.23631e-29)
(0.0117003 0.000204414 0)
(0.0115959 0.00019205 -1.10238e-29)
(0.0114971 0.000180423 1.53486e-29)
(0.0114034 0.000169488 0)
(0.0113146 0.000159202 9.29903e-30)
(0.0112305 0.000149525 -4.13028e-30)
(0.0111509 0.000140421 -3.89306e-30)
(0.0110754 0.000131854 0)
(0.011004 0.000123793 1.08989e-29)
(0.0109363 0.000116206 -3.26204e-30)
(0.0108723 0.000109065 0)
(0.0108117 0.000102344 2.90078e-30)
(0.0107543 9.60176e-05 5.97959e-30)
(0.0107 9.0063e-05 0)
(0.0106486 8.44583e-05 -2.4346e-30)
(0.0106001 7.91831e-05 0)
(0.0105542 7.42183e-05 -2.66602e-30)
(0.0105107 6.9546e-05 0)
(0.0104697 6.51493e-05 2.42561e-30)
(0.010431 6.10126e-05 -1.82341e-30)
(0.0103944 5.71209e-05 -5.65663e-30)
(0.0103598 5.34603e-05 -1.07374e-29)
(0.0103272 5.00177e-05 1.01957e-29)
(0.0102964 4.67808e-05 0)
(0.0102674 4.37378e-05 0)
(0.01024 4.08778e-05 0)
(0.0102142 3.81906e-05 -3.4213e-30)
(0.0101899 3.56662e-05 2.32505e-30)
(0.010167 3.32955e-05 -2.2014e-30)
(0.0101454 3.10697e-05 0)
(0.0101251 2.89808e-05 6.88527e-30)
(0.010106 2.70208e-05 1.87413e-30)
(0.0100881 2.51824e-05 1.77825e-30)
(0.0100712 2.34587e-05 0)
(0.0100554 2.18432e-05 0)
(0.0100405 2.03295e-05 0)
(0.0100265 1.89119e-05 1.45116e-30)
(0.0100134 1.75847e-05 0)
(0.0100011 1.63427e-05 3.57874e-30)
(0.00998957 1.5181e-05 2.19991e-30)
(0.00997878 1.40948e-05 -3.3421e-30)
(0.00996867 1.30796e-05 0)
(0.00995921 1.21313e-05 -4.23281e-30)
(0.00995036 1.12458e-05 0)
(0.00994208 1.04194e-05 -2.95514e-30)
(0.00993435 9.64854e-06 3.84187e-30)
(0.00992713 8.92983e-06 3.72871e-30)
(0.00992039 8.26007e-06 0)
(0.0099141 7.63626e-06 1.79917e-30)
(0.00990823 7.05556e-06 -2.60093e-30)
(0.00990277 6.51526e-06 8.04425e-31)
(0.00989768 6.01285e-06 0)
(0.00989294 5.54591e-06 7.53849e-31)
(0.00988853 5.11219e-06 -1.66506e-30)
(0.00988443 4.70956e-06 0)
(0.00988062 4.336e-06 -2.31452e-30)
(0.00987709 3.98963e-06 -2.27804e-30)
(0.0098738 3.66865e-06 -2.24424e-30)
(0.00987076 3.37138e-06 0)
(0.00986794 3.09625e-06 0)
(0.00986532 2.84177e-06 0)
(0.0098629 2.60653e-06 2.73283e-30)
(0.00986066 2.38923e-06 -5.89124e-31)
(0.00985859 2.18863e-06 0)
(0.00985668 2.00357e-06 2.06883e-30)
(0.00985491 1.83298e-06 2.05086e-30)
(0.00985328 1.67582e-06 0)
(0.00985178 1.53116e-06 -1.08869e-30)
(0.00985039 1.39811e-06 4.01009e-30)
(0.00984912 1.27582e-06 1.06204e-30)
(0.00984794 1.16355e-06 -5.01097e-30)
(0.00984686 1.06055e-06 0)
(0.00984587 9.66164e-07 0)
(0.00984495 8.79775e-07 0)
(0.00984411 8.0081e-07 1.01246e-30)
(0.00984334 7.28745e-07 4.87393e-30)
(0.00984263 6.63101e-07 3.85516e-30)
(0.00984198 6.03444e-07 9.91843e-31)
(0.00984139 5.49385e-07 4.81736e-30)
(0.00984084 5.00582e-07 -9.811e-31)
(0.00984033 4.5674e-07 0)
(0.00983987 4.17615e-07 0)
(0.00983944 3.83016e-07 -4.76485e-30)
(0.00983904 3.52815e-07 0)
(0.00983866 3.2695e-07 0)
(0.00983832 3.05435e-07 3.77957e-30)
(0.00983798 2.88377e-07 0)
(0.00983767 2.75994e-07 4.73081e-30)
(0.00983736 2.6863e-07 9.56787e-31)
(0.00983705 2.66794e-07 0)
(0.00983674 2.71192e-07 4.72889e-30)
(0.00983642 2.82781e-07 0)
(0.00983607 3.02828e-07 0)
(0.0098357 3.32998e-07 9.63286e-31)
(0.00983527 3.75462e-07 3.7929e-30)
(0.00983478 4.33039e-07 9.73546e-31)
(0.00983421 5.09387e-07 0)
(0.00983352 6.09248e-07 0)
(0.00983269 7.38788e-07 4.87201e-30)
(0.00983165 9.06038e-07 0)
(0.00983037 1.12151e-06 4.98964e-30)
(0.00982876 1.39905e-06 0)
(0.00982673 1.75701e-06 0)
(0.00982415 2.21993e-06 0)
(0.00982084 2.82103e-06 -1.21914e-30)
(0.00981658 3.60592e-06 0)
(0.00981107 4.63829e-06 1.40612e-30)
(0.00980389 6.00912e-06 0)
(0.00979446 7.8521e-06 0)
(0.00978195 1.03708e-05 5.83974e-30)
(0.00976517 1.38899e-05 -6.56113e-30)
(0.00974229 1.89588e-05 0)
(0.00971042 2.65849e-05 0)
(0.00966462 3.88237e-05 0)
(0.00959581 6.05397e-05 1.79565e-29)
(0.00948649 0.000105841 0)
(0.00931403 0.00022788 -1.01285e-28)
(7.92003e-06 -0.000394056 2.03712e-29)
(2.39407e-05 -0.000394064 -5.86451e-34)
(4.05078e-05 -0.000394235 0)
(5.82779e-05 -0.000396182 1.39724e-33)
(7.79307e-05 -0.000398459 0)
(9.72644e-05 -0.000391329 0)
(0.000112122 -0.000376832 -1.94685e-29)
(0.000119047 -0.000364114 -9.4065e-30)
(0.000112093 -0.000364777 9.4213e-30)
(7.61747e-05 -0.000378287 -9.77489e-30)
(2.46295e-05 -0.000359783 0)
(-5.47667e-05 -0.000329056 0)
(-5.73136e-05 -0.000352438 -9.11434e-30)
(5.21611e-05 -0.000404479 -2.09036e-29)
(0.000212363 -0.000494875 2.55542e-29)
(0.000601277 -0.000661368 0)
(0.00246529 -0.00126933 6.52731e-29)
(0.00814102 -0.00227826 5.85072e-29)
(0.015493 7.83897e-05 0)
(0.0193581 0.000579882 -3.27213e-29)
(0.0203272 -2.38921e-05 3.42225e-31)
(0.020949 -0.000408258 -1.81388e-29)
(0.0215229 -0.000835931 2.0592e-29)
(0.0229852 -0.00250546 0)
(0.0237284 0.00113071 -6.18172e-29)
(0.022744 0.00190214 -1.0156e-28)
(0.022007 0.00119508 0)
(0.0218391 0.000924203 -5.08736e-29)
(0.021734 0.00122169 0)
(0.0213381 0.00176094 -9.40606e-29)
(0.0207808 0.00178326 4.70775e-29)
(0.0202956 0.00175159 0)
(0.0198392 0.00177487 0)
(0.0193789 0.00176663 0)
(0.018924 0.00174261 0)
(0.0184775 0.00170288 0)
(0.0180431 0.00165074 0)
(0.0176235 0.00158953 -8.46727e-29)
(0.0172204 0.00152239 4.09789e-29)
(0.0168345 0.0014518 0)
(0.0164662 0.00137964 0)
(0.0161154 0.00130738 0)
(0.0157819 0.00123614 1.31539e-28)
(0.0154652 0.00116675 6.17798e-29)
(0.0151647 0.00109978 -7.15939e-31)
(0.0148798 0.00103563 7.02487e-31)
(0.0146097 0.000974505 5.24501e-29)
(0.0143538 0.000916514 4.87381e-29)
(0.0141113 0.00086167 -9.24259e-29)
(0.0138815 0.000809921 -4.38382e-29)
(0.0136637 0.000761173 0)
(0.0134574 0.000715304 -3.88865e-29)
(0.0132618 0.000672176 -7.26322e-29)
(0.0130765 0.000631641 0)
(0.0129008 0.000593553 0)
(0.0127343 0.000557767 3.06397e-29)
(0.0125764 0.000524145 0)
(0.0124268 0.000492554 0)
(0.0122849 0.000462868 -7.64296e-29)
(0.0121504 0.000434971 -4.84171e-29)
(0.012023 0.00040875 -2.22673e-29)
(0.0119021 0.000384103 0)
(0.0117876 0.000360932 1.97729e-29)
(0.011679 0.000339146 0)
(0.0115761 0.000318659 -5.37955e-29)
(0.0114786 0.000299391 1.65621e-29)
(0.0113861 0.000281267 3.2308e-29)
(0.0112985 0.000264217 4.5247e-29)
(0.0112155 0.000248176 0)
(0.0111369 0.000233081 -2.72551e-29)
(0.0110624 0.000218876 0)
(0.0109918 0.000205507 -1.27005e-29)
(0.010925 0.000192924 -2.30429e-29)
(0.0108617 0.000181079 -2.18003e-29)
(0.0108018 0.00016993 2.06305e-29)
(0.0107451 0.000159434 -1.0272e-29)
(0.0106914 0.000149555 0)
(0.0106406 0.000140254 0)
(0.0105926 0.0001315 1.65977e-29)
(0.0105472 0.00012326 8.36446e-30)
(0.0105042 0.000115505 0)