/*--------------------------------*- C++ -*----------------------------------*\
  =========                 |
  \\      /  F ield         | OpenFOAM: The Open Source CFD Toolbox
   \\    /   O peration     | Website:  https://openfoam.org
    \\  /    A nd           | Version:  10
     \\/     M anipulation  |
\*---------------------------------------------------------------------------*/
FoamFile
{
    format      ascii;
    class       volScalarField;
    location    "0.067";
    object      pMean;
}
// * * * * * * * * * * * * * * * * * * * * * * * * * * * * * * * * * * * * * //

dimensions      [0 2 -2 0 0 0 0];

internalField   nonuniform List<scalar> 
12225
(
11.2488
10.4677
10.0224
9.80178
9.64855
9.50253
9.35784
9.22275
9.10314
9.00017
8.91282
8.83907
8.77665
8.71818
8.65337
8.5322
8.30542
7.63753
11.0136
10.4376
10.0203
9.79235
9.63768
9.4932
9.34924
9.21403
9.09339
8.98945
8.8996
8.82416
8.75532
8.6953
8.61352
8.50888
8.2583
7.84951
10.9743
10.4328
10.0269
9.78952
9.62972
9.48534
9.34203
9.20604
9.0841
8.9774
8.88482
8.80266
8.72827
8.65205
8.5628
8.42675
8.20201
7.82318
10.8304
10.3842
10.0165
9.7784
9.61449
9.4711
9.32945
9.19369
9.06997
8.96099
8.864
8.77693
8.69296
8.60678
8.50073
8.3558
8.13674
7.82047
10.7265
10.3471
10.013
9.77514
9.60424
9.45868
9.31798
9.18224
9.057
8.94456
8.84328
8.74958
8.65788
8.56066
8.44482
8.29471
8.0914
7.83168
10.6389
10.2985
9.99446
9.76356
9.58873
9.4411
9.30099
9.16559
9.03895
8.92354
8.8178
8.71803
8.6187
8.51263
8.39011
8.24002
8.05384
7.83146
10.5343
10.241
9.97372
9.75318
9.57517
9.42408
9.28371
9.14853
9.02044
8.90162
8.79104
8.68519
8.57892
8.466
8.33912
8.19133
8.01848
7.82207
10.4744
10.194
9.94674
9.73796
9.55995
9.40538
9.26341
9.12794
8.99853
8.87647
8.76113
8.6495
8.53708
8.41873
8.28927
8.14425
7.98169
7.80359
10.3876
10.1305
9.91091
9.71694
9.54124
9.3843
9.24051
9.10419
8.97352
8.84868
8.72905
8.61223
8.49458
8.37201
8.24068
8.09786
7.94274
7.77729
10.3296
10.0842
9.87758
9.69479
9.52242
9.36333
9.21692
9.07903
8.94663
8.81876
8.69468
8.57276
8.45026
8.32399
8.19111
8.04986
7.89994
7.74297
10.2672
10.0249
9.83286
9.66233
9.49574
9.33748
9.18966
9.04982
8.9153
8.7847
8.65721
8.53131
8.40484
8.27543
8.1411
8.00068
7.85412
7.70237
10.2052
9.98388
9.80265
9.6378
9.47397
9.3152
9.16502
9.02294
8.88629
8.75305
8.62199
8.49217
8.36208
8.22989
8.09409
7.95377
7.80888
7.65995
10.1463
9.93014
9.75693
9.60086
9.44306
9.28651
9.13583
8.99176
8.85284
8.71725
8.5836
8.45072
8.31754
8.18283
8.04551
7.90486
7.76079
7.6135
10.1385
9.89672
9.71719
9.56676
9.41459
9.2586
9.10504
8.95761
8.81565
8.67695
8.53983
8.40332
8.26664
8.12896
7.98955
7.84783
7.70364
7.55696
10.0585
9.82606
9.6576
9.51672
9.37001
9.21616
9.0623
8.91301
8.76845
8.62677
8.48636
8.34634
8.20625
8.0656
7.92388
7.78067
7.63568
7.48885
10.0029
9.77664
9.6136
9.47488
9.32873
9.17403
9.0182
8.86589
8.71765
8.57215
8.42798
8.28429
8.14066
7.99682
7.85242
7.70717
7.56081
7.41333
9.90466
9.70183
9.55128
9.41658
9.27178
9.11848
8.96304
8.80931
8.65823
8.50913
8.36112
8.21365
8.06641
7.91921
7.77188
7.62425
7.47603
7.32712
9.85169
9.64593
9.49571
9.36393
9.22193
9.06807
8.90953
8.75216
8.59754
8.44498
8.2935
8.14257
7.99202
7.84183
7.69197
7.54236
7.39292
7.24362
9.93042
9.66829
9.47721
9.32619
9.17668
9.01953
8.85763
8.69563
8.53579
8.37832
8.22257
8.06794
7.91419
7.76134
7.60941
7.4584
7.30823
7.15886
9.81842
9.6004
9.43967
9.2976
9.14546
8.98326
8.81766
8.65344
8.49214
8.33313
8.17546
8.0188
7.86324
7.70904
7.55629
7.40499
7.2551
7.10668
9.84191
9.6232
9.45312
9.29743
9.13415
8.96567
8.79697
8.63048
8.46655
8.30469
8.14449
7.98592
7.82911
7.67415
7.52111
7.36998
7.22076
7.07337
9.84965
9.63617
9.46323
9.30332
9.13587
8.9628
8.79028
8.62123
8.45528
8.29148
8.12959
7.96971
7.81203
7.65661
7.50342
7.35242
7.20364
7.05718
9.95845
9.68157
9.47258
9.30106
9.13091
8.95645
8.7821
8.61076
8.44267
8.27729
8.11431
7.95378
7.79579
7.64033
7.48741
7.33704
7.18921
7.04387
10.0391
9.75079
9.51994
9.32752
9.14523
8.96643
8.79044
8.61711
8.44638
8.27852
8.1138
7.95225
7.79365
7.63783
7.48472
7.33435
7.18676
7.0421
9.98262
9.74142
9.52317
9.32336
9.13554
8.95688
8.78243
8.60933
8.43777
8.26915
8.10419
7.9427
7.7843
7.62883
7.47621
7.32647
7.17971
7.03589
10.1475
9.83254
9.56508
9.34495
9.15202
8.97239
8.79603
8.61991
8.44559
8.27506
8.10889
7.94666
7.78777
7.63189
7.479
7.3292
7.18253
7.03904
10.1728
9.83769
9.55533
9.33352
9.14556
8.96924
8.79298
8.61579
8.44088
8.27047
8.10466
7.9427
7.78398
7.6283
7.47575
7.3264
7.18031
7.03758
10.2905
9.90439
9.58141
9.34728
9.15974
8.98275
8.80334
8.62338
8.44702
8.27589
8.10956
7.94716
7.78811
7.63228
7.4797
7.33045
7.18447
7.04158
10.3137
9.90164
9.56911
9.34212
9.1601
8.98318
8.8025
8.62208
8.44586
8.2749
8.10859
7.94615
7.78704
7.63123
7.4787
7.32976
7.18426
7.04243
10.5306
9.93802
9.56712
9.34803
9.16911
8.99001
8.80733
8.62614
8.44969
8.27856
8.11206
7.94944
7.79019
7.63433
7.48178
7.33299
7.18779
7.04703
3.51104
3.3617
3.22257
3.17377
3.2411
3.38384
3.50437
3.49578
3.29713
2.91106
2.376
1.75172
1.10918
0.510562
0.000768394
-0.395257
-0.666117
-0.808852
-0.830187
-0.748279
-0.594974
-0.389573
-0.160105
0.0666704
0.244459
0.345406
0.316761
0.182666
0.00620905
-0.181789
-0.400941
-0.705784
-1.12593
-1.62493
-2.14118
-2.63848
-3.10181
-3.62327
-4.29964
-5.08126
-5.8003
-6.38352
-6.84065
-7.24175
-7.67235
-8.08369
-8.43218
-8.72745
-8.88519
-8.94346
-9.09572
-9.29553
-9.50494
-9.73086
-9.94794
-10.1019
-10.1453
-10.1969
-10.328
-10.5184
-10.7119
-10.8765
-10.9782
-11.0033
-10.9433
-10.7946
-10.553
-10.2138
-9.77451
-9.23916
-8.61787
-7.92653
-7.18134
-6.41378
-5.65913
-4.91831
-4.17007
-3.38354
-2.5347
-1.60776
-0.616582
0.38556
1.37124
2.30828
3.21573
4.03673
4.85689
5.63861
6.27904
6.50867
6.32283
5.95564
5.58078
5.29091
5.13768
5.14556
5.32789
5.69135
6.23999
6.97443
7.89124
8.98163
10.2304
11.6158
13.1101
14.6801
16.2894
17.9007
19.4779
20.9877
22.4013
23.6951
24.8538
25.8706
26.746
27.4852
28.0954
28.5839
28.9576
29.2227
29.3851
29.451
29.4272
29.3216
29.1426
28.8995
28.6013
28.2576
27.8777
27.4702
27.0434
26.6046
26.1607
25.7175
25.2803
24.8537
24.4414
24.0467
23.6724
23.3203
22.9922
22.6889
22.4112
22.1593
21.9333
21.733
21.5578
21.4069
21.2794
21.1744
21.0911
21.0288
20.9869
20.9643
20.9586
20.9644
20.9745
20.9788
20.9675
20.9344
20.8803
20.8207
20.7509
20.6598
20.5795
20.5178
20.4459
20.3782
20.3453
20.379
20.489
20.6473
20.81
20.9487
21.0551
21.1423
21.2233
21.3243
21.466
21.6542
2.81106
2.66386
2.53517
2.45265
2.48412
2.5612
2.58408
2.46368
2.16601
1.71411
1.15899
0.559648
-0.0284405
-0.559505
-1.00193
-1.33621
-1.55626
-1.66306
-1.66057
-1.56732
-1.39416
-1.17553
-0.950243
-0.735666
-0.551341
-0.461801
-0.456314
-0.569254
-0.739728
-0.990994
-1.40903
-1.94418
-2.55048
-3.18023
-3.77263
-4.32023
-4.82934
-5.35283
-5.95747
-6.64721
-7.29679
-7.82482
-8.21853
-8.51885
-8.85552
-9.1644
-9.55371
-10.0651
-10.3282
-10.4312
-10.5755
-10.7263
-10.8622
-10.9806
-11.0654
-11.1651
-11.2182
-11.2562
-11.3556
-11.4827
-11.609
-11.7014
-11.7363
-11.7039
-11.5969
-11.4097
-11.136
-10.7704
-10.3112
-9.76159
-9.12654
-8.4231
-7.66964
-6.89196
-6.12144
-5.36327
-4.59655
-3.78971
-2.92343
-1.99536
-1.00316
0.00601114
0.99893
1.95705
2.86739
3.68624
4.38523
4.95476
5.37478
5.49636
5.32825
5.05482
4.78887
4.6064
4.54469
4.62698
4.8675
5.27677
5.86153
6.62546
7.56786
8.68212
9.95398
11.3619
12.8777
14.4684
16.0978
17.7284
19.3241
20.8515
22.2813
23.5892
24.7589
25.7836
26.6642
27.4067
28.0194
28.5103
28.8865
29.1543
29.3195
29.388
29.3665
29.2634
29.0868
28.8459
28.55
28.2085
27.8307
27.4253
27.0005
26.5636
26.1213
25.6796
25.2435
24.8176
24.4058
24.0115
23.6372
23.2851
22.9568
22.6534
22.3754
22.1232
21.8968
21.6958
21.5197
21.3675
21.2385
21.1315
21.0454
20.9795
20.9327
20.9035
20.889
20.8838
20.8815
20.8743
20.8569
20.8293
20.7943
20.766
20.7256
20.6459
20.5652
20.4983
20.4227
20.3534
20.3212
20.3574
20.4736
20.639
20.8069
20.9463
21.0521
21.1338
21.2108
21.2943
21.4156
21.523
3.02067
2.9459
2.75913
2.48366
2.17173
1.83175
1.43956
0.967499
0.409161
-0.207519
-0.834881
-1.43358
-1.96934
-2.41809
-2.76331
-2.9979
-3.12229
-3.14291
-3.07458
-2.9387
-2.74822
-2.51778
-2.27452
-2.04963
-1.85476
-1.74669
-1.71916
-1.78745
-1.9862
-2.32175
-2.795
-3.38058
-4.05642
-4.76823
-5.46359
-6.09698
-6.71489
-7.36653
-8.04962
-8.73921
-9.33009
-9.76643
-10.0327
-10.2964
-10.6697
-11.0742
-11.4508
-11.8573
-12.2009
-12.4297
-12.5894
-12.6837
-12.7135
-12.7032
-12.6902
-12.6766
-12.6753
-12.6865
-12.7134
-12.7412
-12.759
-12.754
-12.7167
-12.6379
-12.5079
-12.3137
-12.0398
-11.6709
-11.1996
-10.6269
-9.9622
-9.23228
-8.46436
-7.68455
-6.90983
-6.1305
-5.33056
-4.48748
-3.57838
-2.60713
-1.58458
-0.543321
0.480815
1.45108
2.31986
3.03166
3.53142
3.85944
4.03201
4.05821
3.97263
3.84511
3.72767
3.67091
3.70792
3.8659
4.16325
4.61561
5.23444
6.02783
6.99785
8.13992
9.44118
10.8809
12.4311
14.0577
15.7228
17.3881
19.0171
20.5762
22.0354
23.3695
24.5603
25.6004
26.4916
27.2416
27.8601
28.3564
28.7381
29.0115
29.1824
29.2563
29.2401
29.1419
28.9701
28.7338
28.4425
28.1056
27.7322
27.3312
26.9105
26.4775
26.0387
25.6001
25.1669
24.7435
24.3339
23.9413
23.5686
23.2178
22.8905
22.5875
22.3097
22.0574
21.8305
21.6287
21.4515
21.298
21.1672
21.0581
20.9694
20.9001
20.849
20.8148
20.7951
20.7852
20.78
20.7728
20.7592
20.7386
20.7108
20.68
20.6398
20.5849
20.5298
20.47
20.3913
20.3151
20.2812
20.3211
20.4457
20.6222
20.7977
20.9379
21.0407
21.1138
21.18
21.241
21.3299
21.3883
2.97183
2.87259
2.5556
2.06991
1.45645
0.767715
0.0492672
-0.68045
-1.40214
-2.09025
-2.72059
-3.27645
-3.74144
-4.10417
-4.36036
-4.51505
-4.57717
-4.55754
-4.47493
-4.34022
-4.17086
-3.9816
-3.78622
-3.61075
-3.48622
-3.41796
-3.42572
-3.5111
-3.68816
-3.96974
-4.36528
-4.87256
-5.47483
-6.13239
-6.80539
-7.48183
-8.20112
-8.99839
-9.83673
-10.6192
-11.2638
-11.7552
-12.0826
-12.3684
-12.7202
-13.1352
-13.5679
-13.9716
-14.304
-14.5433
-14.679
-14.7181
-14.6771
-14.5921
-14.507
-14.4255
-14.3488
-14.273
-14.1984
-14.1233
-14.0476
-13.9687
-13.8816
-13.7766
-13.6414
-13.4567
-13.1973
-12.8374
-12.3585
-11.7534
-11.0352
-10.2484
-9.44122
-8.64103
-7.85454
-7.07723
-6.269
-5.39039
-4.42809
-3.40066
-2.33031
-1.25896
-0.238358
0.681294
1.46145
2.01438
2.34749
2.51059
2.57641
2.57683
2.53819
2.49478
2.47543
2.51344
2.63484
2.86365
3.21825
3.71611
4.37269
5.2003
6.20471
7.38342
8.72429
10.2066
11.8022
13.4761
15.1884
16.8993
18.5716
20.1719
21.6704
23.0403
24.2609
25.3233
26.2304
26.9918
27.6195
28.1242
28.5143
28.7963
28.9755
29.0573
29.0487
28.9576
28.7926
28.563
28.2782
27.9479
27.5812
27.1866
26.7722
26.345
25.9116
25.4778
25.0488
24.6289
24.2222
23.8321
23.4615
23.1125
22.7866
22.4848
22.208
21.9563
21.7297
21.5281
21.3508
21.1969
21.0653
20.9546
20.8635
20.7912
20.7366
20.6988
20.6758
20.6638
20.6588
20.6556
20.6498
20.6406
20.6252
20.6044
20.5755
20.5313
20.4777
20.4174
20.3458
20.2723
20.2341
20.2765
20.4113
20.6016
20.7881
20.9293
21.0272
21.0908
21.1427
21.1831
21.2383
21.2572
2.71584
2.46325
1.93407
1.20585
0.380907
-0.473156
-1.31648
-2.12361
-2.88328
-3.58364
-4.21528
-4.76472
-5.21755
-5.56157
-5.79423
-5.92693
-5.97723
-5.96299
-5.90296
-5.81163
-5.69941
-5.57616
-5.46342
-5.38192
-5.34974
-5.3787
-5.47087
-5.62155
-5.82438
-6.07748
-6.38666
-6.76036
-7.20356
-7.71449
-8.2901
-8.93971
-9.68722
-10.5389
-11.432
-12.2757
-12.9943
-13.5841
-14.0616
-14.4799
-14.8906
-15.3182
-15.7478
-16.1397
-16.464
-16.6992
-16.8256
-16.8424
-16.7652
-16.6341
-16.488
-16.3333
-16.1723
-16.0104
-15.8515
-15.6952
-15.5422
-15.3925
-15.244
-15.0903
-14.9202
-14.7125
-14.4356
-14.054
-13.5421
-12.8898
-12.1145
-11.267
-10.4024
-9.55352
-8.72622
-7.91149
-7.07785
-6.18061
-5.1972
-4.14327
-3.05502
-1.9884
-1.01092
-0.182571
0.448456
0.842452
1.03548
1.10838
1.12059
1.09682
1.06497
1.05402
1.08815
1.19137
1.38168
1.67552
2.08677
2.6317
3.32832
4.19318
5.23587
6.45597
7.84232
9.37455
11.024
12.7538
14.5213
16.2841
18.0041
19.6495
21.1916
22.6029
23.8595
24.9504
25.8787
26.6558
27.2962
27.8124
28.2138
28.5071
28.6969
28.7887
28.7895
28.7072
28.5507
28.3296
28.0536
27.7321
27.3743
26.9886
26.5824
26.1629
25.7364
25.3087
24.8846
24.4689
24.0659
23.6791
23.3114
22.9649
22.6413
22.3415
22.0663
21.8161
21.591
21.3907
21.2146
21.0618
20.9307
20.8199
20.728
20.654
20.5973
20.5572
20.5324
20.5204
20.5178
20.5203
20.5239
20.5266
20.525
20.5182
20.5045
20.4769
20.4371
20.3882
20.3266
20.259
20.2201
20.2596
20.3986
20.5971
20.7861
20.923
21.0117
21.064
21.1003
21.1217
21.1466
21.1385
2.16921
1.72914
0.983563
0.141923
-0.755104
-1.65973
-2.53385
-3.36428
-4.14999
-4.88958
-5.57179
-6.17694
-6.68458
-7.0792
-7.35904
-7.53758
-7.63248
-7.66254
-7.64932
-7.61218
-7.56485
-7.52121
-7.49791
-7.50994
-7.57206
-7.69195
-7.86746
-8.08839
-8.34001
-8.61096
-8.89854
-9.21001
-9.56151
-9.97545
-10.4738
-11.0874
-11.823
-12.672
-13.5736
-14.455
-15.2534
-15.9439
-16.534
-17.0446
-17.5019
-17.9319
-18.3361
-18.6946
-18.9842
-19.1825
-19.2741
-19.2594
-19.1414
-18.9445
-18.7073
-18.4528
-18.1962
-17.9472
-17.708
-17.4759
-17.248
-17.0207
-16.7917
-16.5569
-16.305
-16.0155
-15.6609
-15.2075
-14.6277
-13.9124
-13.0772
-12.1637
-11.2169
-10.273
-9.35481
-8.46333
-7.56875
-6.6335
-5.63583
-4.58831
-3.52954
-2.53263
-1.66261
-0.974987
-0.513107
-0.276795
-0.205349
-0.217412
-0.273711
-0.348945
-0.408783
-0.42387
-0.369005
-0.224904
0.0194261
0.37083
0.836021
1.42797
2.1653
3.0683
4.15022
5.41328
6.84821
8.43463
10.1432
11.9348
13.7628
15.5809
17.3497
19.0386
20.6221
22.0732
23.3675
24.4906
25.4443
26.2412
26.8975
27.4283
27.8442
28.1507
28.3527
28.4558
28.4671
28.395
28.2487
28.038
27.7728
27.4624
27.1157
26.7407
26.3447
25.9344
25.5159
25.0945
24.6758
24.2647
23.8656
23.4821
23.1174
22.7737
22.4526
22.1553
21.8825
21.6347
21.4122
21.2148
21.0416
20.8915
20.7628
20.6541
20.5634
20.4899
20.433
20.3925
20.3679
20.3573
20.3583
20.3674
20.3806
20.3952
20.4079
20.4166
20.4197
20.4119
20.3931
20.3654
20.325
20.2763
20.2484
20.289
20.4222
20.6118
20.7913
20.918
20.9949
21.0349
21.0557
21.0594
21.0587
21.0293
1.01283
0.556733
-0.153162
-0.941087
-1.77086
-2.62335
-3.47467
-4.31405
-5.13969
-5.94342
-6.70302
-7.39184
-7.98651
-8.47015
-8.84078
-9.11068
-9.29757
-9.42363
-9.51208
-9.58039
-9.64146
-9.70837
-9.79529
-9.91664
-10.0833
-10.2993
-10.562
-10.8612
-11.1823
-11.5103
-11.8359
-12.1598
-12.4963
-12.8812
-13.3569
-13.9699
-14.7165
-15.5728
-16.4933
-17.4194
-18.289
-19.0644
-19.7322
-20.2967
-20.774
-21.181
-21.5246
-21.7997
-21.99
-22.0838
-22.077
-21.9725
-21.7596
-21.4481
-21.084
-20.7079
-20.3425
-19.9999
-19.6804
-19.3771
-19.0797
-18.7778
-18.4645
-18.1361
-17.7842
-17.3911
-16.9294
-16.3691
-15.6887
-14.8828
-13.9635
-12.9587
-11.9029
-10.8309
-9.77385
-8.7483
-7.74675
-6.74595
-5.73147
-4.71334
-3.72821
-2.84655
-2.12702
-1.61619
-1.33447
-1.2516
-1.29559
-1.40433
-1.5488
-1.69848
-1.81497
-1.86536
-1.81941
-1.65838
-1.37638
-0.976235
-0.461726
0.173903
0.948165
1.88553
3.00513
4.31201
5.79642
7.43807
9.20714
11.0621
12.9523
14.8269
16.644
18.3731
19.9913
21.4762
22.8049
23.9595
24.9396
25.7577
26.4322
26.9802
27.4118
27.7325
27.9472
28.062
28.0846
28.0236
27.8889
27.6905
27.4381
27.1409
26.8072
26.4445
26.0597
25.659
25.2484
24.8338
24.4207
24.014
23.6185
23.2382
22.8762
22.5352
22.2166
21.922
21.6522
21.408
21.1898
20.9969
20.8284
20.6831
20.559
20.4542
20.367
20.2962
20.2416
20.2033
20.1813
20.1744
20.1807
20.1975
20.2211
20.2484
20.276
20.3012
20.3226
20.3362
20.341
20.3386
20.3269
20.3086
20.3034
20.3495
20.4713
20.642
20.8022
20.9136
20.9763
21.0032
21.0092
20.9971
20.9756
20.929
-0.119972
-0.488496
-1.01895
-1.68012
-2.43294
-3.23558
-4.06043
-4.89993
-5.75702
-6.61854
-7.45455
-8.23519
-8.93652
-9.54312
-10.0513
-10.4673
-10.8053
-11.0852
-11.3262
-11.543
-11.7483
-11.9554
-12.178
-12.4281
-12.7137
-13.0381
-13.398
-13.7849
-14.1865
-14.5881
-14.9784
-15.3563
-15.7359
-16.161
-16.6876
-17.3559
-18.1604
-19.0768
-20.0663
-21.0714
-22.0267
-22.8877
-23.6275
-24.2334
-24.7053
-25.0525
-25.2895
-25.4237
-25.4484
-25.3699
-25.1976
-24.9316
-24.5544
-24.0762
-23.5504
-23.0329
-22.5518
-22.1137
-21.7114
-21.3358
-20.9727
-20.6029
-20.2149
-19.8024
-19.3557
-18.8594
-18.2906
-17.6246
-16.8415
-15.933
-14.9051
-13.7766
-12.5771
-11.3435
-10.1153
-8.92364
-7.78121
-6.6849
-5.63392
-4.64402
-3.75366
-3.01202
-2.46199
-2.13376
-2.02171
-2.07341
-2.21957
-2.42153
-2.65661
-2.88894
-3.07894
-3.18756
-3.17415
-3.01598
-2.71024
-2.27039
-1.71252
-1.03839
-0.232127
0.734419
1.8873
3.23411
4.76359
6.45512
8.27787
10.1891
12.1355
14.0617
15.9225
17.6847
19.3296
20.8409
22.197
23.3776
24.3807
25.2188
25.9124
26.4779
26.9251
27.2597
27.487
27.6136
27.6478
27.5992
27.4778
27.2936
27.056
26.7737
26.4542
26.1045
25.731
25.34
24.9373
24.529
24.1208
23.7181
23.3258
22.9481
22.5887
22.25
21.9339
21.6421
21.3757
21.1358
20.9224
20.7352
20.5731
20.4343
20.3166
20.2177
20.1357
20.0697
20.0199
19.9869
19.9706
19.9704
19.9847
20.0111
20.0464
20.0875
20.1311
20.1742
20.215
20.2503
20.2788
20.3018
20.3194
20.3337
20.3571
20.4155
20.5281
20.676
20.8125
20.9059
20.955
20.97
20.9631
20.9376
20.8995
20.8387
-0.760724
-1.0341
-1.4683
-2.04903
-2.73489
-3.48555
-4.28002
-5.11485
-5.99497
-6.90358
-7.8075
-8.6805
-9.49987
-10.2483
-10.9185
-11.5121
-12.0394
-12.514
-12.947
-13.3476
-13.7283
-14.1033
-14.4857
-14.8848
-15.3065
-15.753
-16.221
-16.7039
-17.1916
-17.6725
-18.1396
-18.5983
-19.0693
-19.6017
-20.2511
-21.0426
-21.9698
-23.0077
-24.1163
-25.2333
-26.2929
-27.2437
-28.0444
-28.6671
-29.1003
-29.3509
-29.4446
-29.3978
-29.2145
-28.9173
-28.5251
-28.0373
-27.4434
-26.7657
-26.0646
-25.3986
-24.7934
-24.2511
-23.7583
-23.3032
-22.8685
-22.4331
-21.9801
-21.4993
-20.978
-20.3983
-19.7367
-18.9693
-18.0784
-17.0549
-15.9015
-14.6326
-13.2768
-11.8737
-10.4695
-9.10836
-7.82113
-6.62388
-5.52925
-4.5594
-3.75175
-3.14146
-2.75236
-2.58923
-2.61852
-2.77223
-2.99451
-3.27088
-3.58369
-3.89304
-4.16101
-4.33809
-4.36818
-4.22214
-3.89966
-3.42684
-2.83313
-2.12775
-1.29598
-0.306707
0.873023
2.25361
3.8216
5.55413
7.41877
9.37324
11.3627
13.3265
15.2172
17.0023
18.6644
20.1932
21.5668
22.7641
23.7841
24.6396
25.3505
25.932
26.3935
26.7407
26.9796
27.1178
27.1643
27.1293
27.0229
26.8546
26.6333
26.3665
26.0612
25.724
25.3611
24.9787
24.5832
24.1805
23.7765
23.3768
22.9868
22.6113
22.2538
21.9171
21.6032
21.3138
21.0506
20.8146
20.6062
20.4249
20.2697
20.1383
20.0283
19.937
19.8623
19.8036
19.7619
19.7379
19.7317
19.7425
19.7685
19.8076
19.8569
19.9135
19.9747
20.0372
20.0989
20.1568
20.2092
20.2573
20.3022
20.3462
20.3967
20.4698
20.5771
20.7051
20.8193
20.8958
20.9327
20.9374
20.9198
20.883
20.8316
20.759
-1.00395
-1.22317
-1.59452
-2.11542
-2.75018
-3.46552
-4.23877
-5.06747
-5.95597
-6.8921
-7.85035
-8.80946
-9.74781
-10.6451
-11.489
-12.2759
-13.0092
-13.6939
-14.3337
-14.9352
-15.5111
-16.0749
-16.6368
-17.2037
-17.7798
-18.3662
-18.9598
-19.5556
-20.1466
-20.728
-21.3017
-21.8827
-22.5022
-23.206
-24.0364
-25.0058
-26.1028
-27.2994
-28.5493
-29.7855
-30.9416
-31.9592
-32.7901
-33.4008
-33.7746
-33.9175
-33.8617
-33.6221
-33.2112
-32.6677
-32.0226
-31.2778
-30.4349
-29.5323
-28.6403
-27.8145
-27.071
-26.4088
-25.8147
-25.2715
-24.7586
-24.2541
-23.7381
-23.1946
-22.6065
-21.9514
-21.2029
-20.3364
-19.3342
-18.1886
-16.9032
-15.494
-13.9905
-12.4348
-10.877
-9.36942
-7.95654
-6.67113
-5.53853
-4.58518
-3.84178
-3.33406
-3.0717
-3.03674
-3.17069
-3.39166
-3.66225
-3.9902
-4.35979
-4.72774
-5.06085
-5.29756
-5.36485
-5.22775
-4.88876
-4.38508
-3.75934
-3.02814
-2.17834
-1.17497
0.0212196
1.42443
3.01988
4.78268
6.67804
8.66131
10.6743
12.6559
14.5585
16.3528
18.0212
19.5541
20.9324
22.1369
23.1669
24.0351
24.7596
25.3541
25.8272
26.1849
26.4342
26.5837
26.6432
26.623
26.5327
26.3811
26.176
25.9241
25.6319
25.3057
24.9518
24.5768
24.1867
23.7881
23.3869
22.9891
22.6005
22.2262
21.87
21.5347
21.2225
20.9351
20.6744
20.4418
20.2378
20.062
19.9131
19.7892
19.6872
19.6043
19.5385
19.49
19.4603
19.4504
19.4597
19.4869
19.5297
19.5857
19.6525
19.7274
19.8081
19.8918
19.9757
20.0573
20.1343
20.2074
20.2777
20.3471
20.4206
20.5073
20.6128
20.7259
20.8222
20.8843
20.9108
20.9071
20.8807
20.8346
20.7726
20.6901
-0.98353
-1.1729
-1.5226
-2.0223
-2.64019
-3.34655
-4.1219
-4.96179
-5.86938
-6.83831
-7.85274
-8.89481
-9.9441
-10.9794
-11.9849
-12.9516
-13.8752
-14.7532
-15.5853
-16.3788
-17.1463
-17.8998
-18.647
-19.3917
-20.1343
-20.8725
-21.6035
-22.3255
-23.0376
-23.7433
-24.454
-25.1909
-25.9879
-26.8842
-27.9072
-29.0577
-30.3181
-31.6555
-33.0198
-34.3465
-35.5712
-36.634
-37.4837
-38.081
-38.4034
-38.4538
-38.2666
-37.8513
-37.2319
-36.4586
-35.5671
-34.5685
-33.4816
-32.3563
-31.2687
-30.2747
-29.3838
-28.59
-27.8823
-27.2407
-26.6398
-26.0559
-25.4675
-24.8528
-24.1894
-23.4502
-22.607
-21.636
-20.5207
-19.2565
-17.8489
-16.3151
-14.687
-13.0102
-11.3376
-9.72388
-8.21914
-6.86938
-5.71163
-4.77422
-4.08125
-3.648
-3.4736
-3.52429
-3.72438
-3.98071
-4.27053
-4.62476
-5.02784
-5.42892
-5.80032
-6.06931
-6.14925
-6.00436
-5.63896
-5.10168
-4.44576
-3.69498
-2.83532
-1.82727
-0.626141
0.787346
2.40007
4.18276
6.09392
8.08567
10.0986
12.0756
13.9707
15.7566
17.4168
18.9407
20.3113
21.5126
22.5445
23.419
24.1519
24.7549
25.2359
25.6015
25.86
26.0206
26.0935
26.0885
26.0144
25.8788
25.6884
25.4493
25.1678
24.8503
24.5032
24.133
23.7462
23.3493
22.949
22.5516
22.1635
21.7895
21.4338
21.0992
20.7881
20.5025
20.2442
20.0148
19.8148
19.6438
19.5005
19.3831
19.2887
19.2143
19.1588
19.1234
19.1102
19.1199
19.1507
19.2
19.2651
19.3431
19.4317
19.5285
19.6316
19.7386
19.8466
19.9532
20.056
20.1546
20.2494
20.3418
20.4347
20.5329
20.6383
20.7411
20.8238
20.8744
20.8923
20.8817
20.848
20.7942
20.7234
20.6325
-0.868796
-1.05329
-1.40716
-1.92053
-2.56736
-3.31878
-4.15051
-5.04935
-6.01322
-7.03727
-8.11277
-9.22545
-10.3582
-11.4926
-12.6133
-13.7088
-14.7709
-15.7946
-16.7819
-17.7407
-18.6806
-19.6089
-20.529
-21.4392
-22.3357
-23.214
-24.0717
-24.9108
-25.7371
-26.5634
-27.4088
-28.2974
-29.2596
-30.3219
-31.495
-32.771
-34.131
-35.5442
-36.9645
-38.3335
-39.5889
-40.6687
-41.5176
-42.0928
-42.37
-42.3455
-42.0426
-41.4782
-40.6923
-39.7508
-38.6934
-37.531
-36.2898
-35.0218
-33.7948
-32.6651
-31.6477
-30.7334
-29.9101
-29.1639
-28.4664
-27.7909
-27.1139
-26.4098
-25.6514
-24.8096
-23.8575
-22.7753
-21.5499
-20.178
-18.6677
-17.0375
-15.3201
-13.5636
-11.8223
-10.1499
-8.59603
-7.21265
-6.04687
-5.12975
-4.47546
-4.08891
-3.96389
-4.05856
-4.29099
-4.56261
-4.85661
-5.21566
-5.62414
-6.03034
-6.39826
-6.65396
-6.70958
-6.5305
-6.12645
-5.55429
-4.87312
-4.10758
-3.24041
-2.22854
-1.02483
0.391273
2.00763
3.79121
5.69492
7.66928
9.65588
11.6025
13.4685
15.2281
16.8652
18.3669
19.7174
20.9044
21.9293
22.8029
23.5379
24.1442
24.6292
25.0003
25.2666
25.4379
25.5237
25.533
25.4734
25.3512
25.1723
24.9428
24.6688
24.3568
24.0131
23.6446
23.258
22.8606
22.4595
22.0616
21.673
21.299
20.9435
20.6094
20.299
20.0147
19.7586
19.532
19.3353
19.1683
19.0298
18.9182
18.8311
18.7662
18.7238
18.7059
18.7144
18.7483
18.8048
18.8804
18.972
19.0763
19.1908
19.3135
19.4424
19.5756
19.7103
19.8438
19.9739
20.099
20.2186
20.3328
20.4431
20.5516
20.6577
20.7536
20.8264
20.8679
20.8786
20.8621
20.8224
20.762
20.6839
20.5857
-0.754666
-0.952656
-1.34644
-1.92491
-2.66091
-3.51806
-4.46172
-5.46743
-6.52301
-7.62286
-8.76098
-9.92756
-11.1099
-12.2946
-13.4705
-14.6299
-15.7669
-16.8788
-17.9688
-19.0435
-20.1083
-21.1648
-22.211
-23.2406
-24.2465
-25.2247
-26.1757
-27.1056
-28.0253
-28.9502
-29.8991
-30.8931
-31.9538
-33.0981
-34.3297
-35.6429
-37.0242
-38.447
-39.8672
-41.2277
-42.4665
-43.5237
-44.345
-44.8891
-45.1362
-45.0711
-44.6966
-44.0442
-43.1726
-42.1502
-41.027
-39.8185
-38.5471
-37.2507
-35.9825
-34.7917
-33.7038
-32.71
-31.793
-30.9449
-30.1446
-29.3667
-28.5857
-27.7739
-26.9015
-25.9419
-24.8738
-23.6818
-22.3547
-20.8907
-19.3039
-17.6121
-15.8466
-14.0552
-12.2918
-10.6069
-9.04672
-7.66917
-6.51912
-5.62448
-4.99681
-4.63425
-4.52735
-4.63132
-4.86787
-5.13925
-5.42524
-5.76072
-6.1414
-6.51701
-6.84025
-7.04127
-7.04099
-6.8078
-6.35926
-5.75571
-5.05296
-4.27021
-3.38827
-2.36462
-1.15574
0.255881
1.85782
3.61803
5.48708
7.41529
9.34935
11.2426
13.0596
14.7763
16.3754
17.8415
19.1599
20.3222
21.3313
22.1963
22.927
23.5312
24.0162
24.3903
24.6629
24.8433
24.9402
24.9611
24.9123
24.7995
24.6283
24.4044
24.134
23.8235
23.4795
23.1091
22.7201
22.3206
21.918
21.5192
21.1304
20.7566
20.4013
20.0673
19.7572
19.4735
19.2185
18.9935
18.7986
18.6334
18.498
18.3919
18.3131
18.2613
18.2375
18.2436
18.2791
18.3411
18.4256
18.5295
18.6496
18.7828
18.9264
19.0785
19.2369
19.3995
19.5635
19.7265
19.8857
20.0388
20.1842
20.3207
20.4479
20.5663
20.6743
20.7657
20.8312
20.8656
20.8704
20.8487
20.8039
20.7379
20.6533
20.5486
-0.654897
-0.886712
-1.35313
-2.03683
-2.90343
-3.90126
-4.98058
-6.1058
-7.25641
-8.4245
-9.60617
-10.7991
-11.9984
-13.199
-14.3977
-15.5926
-16.7787
-17.9474
-19.0938
-20.2196
-21.329
-22.4262
-23.5123
-24.5836
-25.6346
-26.661
-27.661
-28.6373
-29.5965
-30.5503
-31.5161
-32.515
-33.5681
-34.6909
-35.8902
-37.1638
-38.4995
-39.8713
-41.237
-42.5434
-43.7356
-44.7587
-45.5626
-46.1043
-46.3657
-46.328
-45.9778
-45.341
-44.492
-43.4951
-42.4102
-41.2597
-40.0609
-38.841
-37.6341
-36.4734
-35.3873
-34.368
-33.3953
-32.4606
-31.5562
-30.6677
-29.7721
-28.8425
-27.8503
-26.7731
-25.5948
-24.3025
-22.8859
-21.3488
-19.7144
-18.0026
-16.2368
-14.4564
-12.7137
-11.0594
-9.53537
-8.19105
-7.07251
-6.21095
-5.60613
-5.24735
-5.12441
-5.20359
-5.42186
-5.68565
-5.95228
-6.23944
-6.55812
-6.86661
-7.109
-7.2227
-7.14464
-6.85059
-6.36233
-5.73487
-5.01379
-4.21049
-3.30439
-2.25887
-1.0417
0.357311
1.92706
3.63926
5.44917
7.30839
9.16956
10.9922
12.7451
14.4047
15.9519
17.3694
18.6444
19.7727
20.7579
21.607
22.3269
22.9238
23.4051
23.7795
24.0558
24.2425
24.347
24.3755
24.3333
24.2255
24.0575
23.8348
23.5635
23.2498
22.9013
22.5264
22.1337
21.7315
21.3276
20.9288
20.5408
20.1676
19.8129
19.4791
19.1687
18.8847
18.6294
18.4034
18.2071
18.0417
17.9076
17.8062
17.7381
17.7042
17.7055
17.7413
17.8084
17.9014
18.0158
18.149
18.2983
18.4614
18.6361
18.8203
19.0114
19.2067
19.4032
19.5981
19.7886
19.9717
20.1444
20.3041
20.4489
20.5779
20.6892
20.7781
20.8385
20.8676
20.8674
20.8412
20.7919
20.7209
20.6307
20.5201
-0.454268
-0.726643
-1.2757
-2.07085
-3.06832
-4.20195
-5.41135
-6.6499
-7.89421
-9.13633
-10.3782
-11.6242
-12.8718
-14.1117
-15.3362
-16.543
-17.7313
-18.891
-20.0135
-21.0998
-22.1577
-23.1979
-24.2289
-25.2496
-26.2537
-27.2328
-28.1805
-29.0955
-29.9852
-30.8645
-31.7543
-32.6786
-33.6574
-34.7036
-35.8238
-37.018
-38.2713
-39.5592
-40.8449
-42.0833
-43.227
-44.226
-45.036
-45.6173
-45.9452
-46.0053
-45.7763
-45.2714
-44.5555
-43.6987
-42.7605
-41.7663
-40.7278
-39.6608
-38.5864
-37.5266
-36.4997
-35.5057
-34.5266
-33.5458
-32.5609
-31.5728
-30.5701
-29.53
-28.4286
-27.2489
-25.9795
-24.6105
-23.1359
-21.5612
-19.917
-18.2197
-16.4854
-14.7485
-13.0608
-11.4711
-10.0173
-8.7443
-7.6859
-6.85739
-6.26209
-5.8874
-5.71689
-5.73324
-5.90156
-6.13902
-6.3761
-6.60319
-6.83739
-7.05052
-7.18848
-7.1971
-7.03227
-6.68052
-6.163
-5.5211
-4.78543
-3.96027
-3.02723
-1.96045
-0.739679
0.639625
2.16619
3.81596
5.55046
7.32637
9.10255
10.8439
12.5218
14.1121
15.594
16.9507
18.173
19.2598
20.2144
21.041
21.7439
22.3286
22.8025
23.1737
23.4504
23.6397
23.7477
23.7793
23.7391
23.6317
23.462
23.2351
22.9573
22.6359
22.2798
21.8988
21.5026
21.0994
20.6965
20.3003
19.915
19.5441
19.191
18.8577
18.5466
18.2609
18.0024
17.7724
17.5716
17.4017
17.267
17.1711
17.117
17.1056
17.1355
17.2033
17.3035
17.429
17.5751
17.739
17.9187
18.1126
18.3193
18.537
18.7628
18.9938
19.2262
19.4563
19.6808
19.8959
20.0975
20.2819
20.4457
20.5866
20.7029
20.7912
20.8484
20.8735
20.8693
20.8391
20.7857
20.7102
20.6149
20.499
0.0776795
-0.242645
-0.87026
-1.76997
-2.89578
-4.17198
-5.5344
-6.92904
-8.32579
-9.71011
-11.0774
-12.4247
-13.7404
-15.0009
-16.1899
-17.3086
-18.3734
-19.394
-20.3717
-21.3086
-22.2101
-23.0861
-23.9456
-24.7922
-25.6232
-26.4361
-27.2298
-28.0061
-28.775
-29.552
-30.3545
-31.1989
-32.0982
-33.0623
-34.0994
-35.208
-36.3742
-37.5776
-38.7888
-39.9719
-41.0861
-42.0857
-42.9295
-43.5838
-44.0223
-44.2334
-44.1981
-43.9206
-43.4373
-42.8163
-42.11
-41.3529
-40.5417
-39.6789
-38.7766
-37.8535
-36.9241
-35.9896
-35.0389
-34.0574
-33.0407
-31.9936
-30.9142
-29.7914
-28.609
-27.3566
-26.0285
-24.6201
-23.1279
-21.5567
-19.9319
-18.2734
-16.5939
-14.9249
-13.3231
-11.8321
-10.4772
-9.29522
-8.31034
-7.53381
-6.95354
-6.55486
-6.32149
-6.24142
-6.30754
-6.47139
-6.65157
-6.80789
-6.944
-7.04397
-7.06606
-6.96739
-6.72008
-6.31703
-5.77598
-5.12404
-4.37586
-3.53112
-2.57724
-1.4982
-0.283389
1.06702
2.5426
4.1209
5.77
7.45376
9.13703
10.7882
12.3795
13.8864
15.2889
16.5742
17.737
18.7768
19.6949
20.4927
21.1729
21.7406
22.203
22.5676
22.841
23.0289
23.136
23.1662
23.1231
23.0106
22.833
22.5958
22.3065
21.9744
21.6104
21.2253
20.8286
20.4284
20.0312
19.6414
19.2626
18.8972
18.5477
18.2155
17.903
17.6135
17.3495
17.1105
16.8998
16.722
16.5852
16.4967
16.4592
16.4717
16.53
16.6288
16.7612
16.9191
17.0979
17.2946
17.5068
17.7332
17.9734
18.2258
18.4882
18.7574
19.0291
19.2982
19.5601
19.8099
20.0426
20.2533
20.4378
20.5925
20.7154
20.8051
20.8607
20.883
20.8754
20.8417
20.7845
20.705
20.605
20.4841
1.10769
0.715878
-0.00900066
-1.03279
-2.31343
-3.77659
-5.351
-6.95804
-8.54159
-10.0642
-11.5087
-12.8647
-14.1237
-15.2683
-16.2865
-17.1908
-18.014
-18.786
-19.5128
-20.1929
-20.8366
-21.4577
-22.0732
-22.6924
-23.319
-23.9534
-24.5966
-25.2524
-25.9313
-26.6465
-27.4088
-28.2241
-29.0964
-30.0341
-31.044
-32.1209
-33.2478
-34.4079
-35.5786
-36.7323
-37.8372
-38.8564
-39.7535
-40.4973
-41.0669
-41.4489
-41.6319
-41.6111
-41.4
-41.0456
-40.5956
-40.0839
-39.5165
-38.8823
-38.1764
-37.4087
-36.5943
-35.7418
-34.8503
-33.9096
-32.9143
-31.8654
-30.7652
-29.6109
-28.3958
-27.1154
-25.7687
-24.3566
-22.8809
-21.3466
-19.7711
-18.1734
-16.5673
-14.9831
-13.477
-12.0895
-10.8378
-9.75408
-8.84888
-8.1203
-7.56283
-7.15425
-6.87371
-6.70978
-6.66434
-6.7103
-6.78647
-6.84272
-6.86597