/*--------------------------------*- C++ -*----------------------------------*\
  =========                 |
  \\      /  F ield         | OpenFOAM: The Open Source CFD Toolbox
   \\    /   O peration     | Website:  https://openfoam.org
    \\  /    A nd           | Version:  10
     \\/     M anipulation  |
\*---------------------------------------------------------------------------*/
FoamFile
{
    format      ascii;
    class       volSymmTensorField;
    location    "0.067";
    object      UPrime2Mean;
}
// * * * * * * * * * * * * * * * * * * * * * * * * * * * * * * * * * * * * * //

dimensions      [0 2 -2 0 0 0 0];

internalField   nonuniform List<symmTensor> 
12225
(
(0.0364908 0.000436042 0 0.0022138 0 0)
(0.0170092 -0.000198374 0 0.00103583 0 0)
(0.0195048 -0.000482325 0 0.000729716 0 0)
(0.0211194 -0.000628726 0 0.00059273 0 0)
(0.0268097 -0.000929625 0 0.000515735 0 0)
(0.0386213 -0.0014009 0 0.000473027 0 0)
(0.058074 -0.0021364 0 0.000456973 0 0)
(0.0855053 -0.0028717 0 0.000423886 0 0)
(0.125742 -0.00450806 0 0.000484335 0 0)
(0.17829 -0.00512552 0 0.000436892 0 0)
(0.258875 -0.00985403 0 0.000667833 0 0)
(0.358124 -0.00868925 0 0.000543722 0 0)
(0.527115 -0.0246354 0 0.00149604 0 0)
(0.725532 -0.0137299 0 0.00111948 0 0)
(1.10757 -0.0731338 0 0.00597801 0 0)
(1.58134 -0.0167427 0 0.00500972 0 0)
(2.56976 -0.284169 0 0.044056 0 0)
(4.21095 -0.0767363 0 0.0215776 0 0)
(0.0349076 0.00113048 0 0.00280513 0 0)
(0.0154897 0.000758762 0 0.00135883 0 0)
(0.0146121 0.000424444 0 0.000924905 0 0)
(0.0133143 0.000366028 0 0.000778528 0 0)
(0.0132061 0.000315193 0 0.000730647 0 0)
(0.0141976 1.81424e-05 0 0.000750894 0 0)
(0.016493 -0.000506246 0 0.000783408 0 0)
(0.0211423 -0.00157322 0 0.000933071 0 0)
(0.0290323 -0.00280433 0 0.00102764 0 0)
(0.042962 -0.0054916 0 0.00149709 0 0)
(0.0633105 -0.00792268 0 0.00169864 0 0)
(0.0990998 -0.015032 0 0.00304152 0 0)
(0.147289 -0.0201754 0 0.00356568 0 0)
(0.238915 -0.0405427 0 0.007776 0 0)
(0.353307 -0.053883 0 0.00972235 0 0)
(0.608003 -0.120938 0 0.0258277 0 0)
(0.899228 -0.185705 0 0.0403478 0 0)
(1.62143 -0.480299 0 0.159246 0 0)
(0.0380391 0.00116761 0 0.00337412 0 0)
(0.0163315 0.000842553 0 0.00168505 0 0)
(0.0148488 0.000325914 0 0.00116289 0 0)
(0.0132822 -3.31211e-05 0 0.00102032 0 0)
(0.0131995 -0.000356426 0 0.00100218 0 0)
(0.0143674 -0.00078501 0 0.00105288 0 0)
(0.0167486 -0.00153613 0 0.00121252 0 0)
(0.0206881 -0.00263244 0 0.00141206 0 0)
(0.026856 -0.0044491 0 0.00189351 0 0)
(0.0360929 -0.0066726 0 0.00236122 0 0)
(0.0499151 -0.0109531 0 0.00368507 0 0)
(0.0701926 -0.0157333 0 0.00481757 0 0)
(0.100682 -0.0267935 0 0.00866751 0 0)
(0.145827 -0.0382487 0 0.0118768 0 0)
(0.215175 -0.0695348 0 0.0249412 0 0)
(0.319209 -0.106112 0 0.0388349 0 0)
(0.470339 -0.206198 0 0.097441 0 0)
(0.670645 -0.371942 0 0.221399 0 0)
(0.0356869 5.06606e-05 0 0.00343542 0 0)
(0.0151417 3.72236e-05 0 0.00192493 0 0)
(0.0143834 -0.000281611 0 0.00133342 0 0)
(0.013038 -0.000529914 0 0.00116245 0 0)
(0.012802 -0.000853078 0 0.00118151 0 0)
(0.013765 -0.00143281 0 0.00132847 0 0)
(0.0160882 -0.00234822 0 0.00157523 0 0)
(0.0201069 -0.00380015 0 0.00202781 0 0)
(0.0262323 -0.0058079 0 0.00264316 0 0)
(0.0354158 -0.00897996 0 0.0037409 0 0)
(0.0485925 -0.0133717 0 0.00523351 0 0)
(0.0680602 -0.0206668 0 0.0079812 0 0)
(0.0956508 -0.0311719 0 0.0120826 0 0)
(0.136069 -0.0490683 0 0.0199729 0 0)
(0.19313 -0.0769972 0 0.0337507 0 0)
(0.272376 -0.124992 0 0.0620013 0 0)
(0.375468 -0.208163 0 0.123797 0 0)
(0.483455 -0.331017 0 0.244584 0 0)
(0.0392451 0.000586591 0 0.00415613 0 0)
(0.0171035 0.000305952 0 0.00246228 0 0)
(0.015735 -0.000171967 0 0.00174299 0 0)
(0.0138943 -0.000505571 0 0.00160036 0 0)
(0.0132203 -0.000878828 0 0.00170856 0 0)
(0.0138535 -0.00158636 0 0.00197999 0 0)
(0.015925 -0.00279942 0 0.00242552 0 0)
(0.0197159 -0.00458887 0 0.00305819 0 0)
(0.0257012 -0.0072033 0 0.00408699 0 0)
(0.034598 -0.0109023 0 0.00558703 0 0)
(0.0475001 -0.0165356 0 0.00806725 0 0)
(0.0658852 -0.024774 0 0.0118053 0 0)
(0.0918864 -0.0376873 0 0.0182136 0 0)
(0.127814 -0.0572044 0 0.0287825 0 0)
(0.176987 -0.0880857 0 0.0478615 0 0)
(0.239534 -0.13678 0 0.0837921 0 0)
(0.314515 -0.209577 0 0.149184 0 0)
(0.382695 -0.312997 0 0.280058 0 0)
(0.0373651 0.000106316 0 0.00471598 0 0)
(0.0172793 0.000152616 0 0.0027715 0 0)
(0.0166261 -0.000502576 0 0.00190049 0 0)
(0.0145224 -0.000807027 0 0.0017248 0 0)
(0.0136105 -0.00116015 0 0.00186666 0 0)
(0.0141687 -0.00191478 0 0.00225593 0 0)
(0.0160188 -0.00322519 0 0.00289295 0 0)
(0.0192729 -0.00518831 0 0.00385985 0 0)
(0.024404 -0.00801872 0 0.00529976 0 0)
(0.0320963 -0.0121337 0 0.00747387 0 0)
(0.0433388 -0.018233 0 0.0108213 0 0)
(0.0592163 -0.0272935 0 0.0160546 0 0)
(0.0814028 -0.0409713 0 0.0244993 0 0)
(0.111091 -0.0613916 0 0.0383972 0 0)
(0.150189 -0.0922499 0 0.0621051 0 0)
(0.196849 -0.137306 0 0.103179 0 0)
(0.248554 -0.200593 0 0.174166 0 0)
(0.291535 -0.28011 0 0.295086 0 0)
(0.0343091 0.000620703 0 0.00484235 0 0)
(0.015254 0.000277916 0 0.00350986 0 0)
(0.0153692 -2.63455e-05 0 0.0026998 0 0)
(0.0139603 -0.000411978 0 0.00257726 0 0)
(0.0136758 -0.00110014 0 0.00284704 0 0)
(0.0148056 -0.00225582 0 0.0034071 0 0)
(0.0172412 -0.00398493 0 0.00428171 0 0)
(0.0210073 -0.00643216 0 0.00559237 0 0)
(0.0264378 -0.00986846 0 0.00755237 0 0)
(0.0340743 -0.0147212 0 0.0105004 0 0)
(0.0447487 -0.0216773 0 0.0149525 0 0)
(0.059311 -0.0317461 0 0.02184 0 0)
(0.0789605 -0.0463462 0 0.0325571 0 0)
(0.104175 -0.0674612 0 0.0498229 0 0)
(0.135636 -0.0974615 0 0.0774688 0 0)
(0.170737 -0.138858 0 0.123063 0 0)
(0.206777 -0.192315 0 0.194885 0 0)
(0.234018 -0.253758 0 0.306523 0 0)
(0.0376297 0.000824028 0 0.00491325 0 0)
(0.0151098 0.000435385 0 0.00307286 0 0)
(0.0147937 -7.6851e-05 0 0.00237061 0 0)
(0.0139622 -0.000520102 0 0.00242086 0 0)
(0.0139668 -0.00114649 0 0.00283019 0 0)
(0.0148087 -0.00222538 0 0.0035896 0 0)
(0.0165257 -0.00391741 0 0.00476636 0 0)
(0.019334 -0.00634951 0 0.00649655 0 0)
(0.0236457 -0.00979265 0 0.00903094 0 0)
(0.0299556 -0.0147078 0 0.0127879 0 0)
(0.0388714 -0.0217807 0 0.0183946 0 0)
(0.0509102 -0.0319161 0 0.0269121 0 0)
(0.0667068 -0.0463029 0 0.039878 0 0)
(0.086267 -0.0663798 0 0.0600155 0 0)
(0.109452 -0.0936078 0 0.0909148 0 0)
(0.133931 -0.128968 0 0.138812 0 0)
(0.157289 -0.171563 0 0.209501 0 0)
(0.173443 -0.217104 0 0.312037 0 0)
(0.0399828 0.000383753 0 0.00531518 0 0)
(0.0184184 -0.000602438 0 0.00364116 0 0)
(0.0177561 -0.00123152 0 0.00302107 0 0)
(0.0161813 -0.00163838 0 0.00312616 0 0)
(0.0156654 -0.00225345 0 0.0036725 0 0)
(0.0162851 -0.00340568 0 0.00463528 0 0)
(0.017986 -0.00528477 0 0.00612388 0 0)
(0.0208339 -0.00803173 0 0.00833568 0 0)
(0.0250531 -0.011877 0 0.0115603 0 0)
(0.0309507 -0.0172052 0 0.0162748 0 0)
(0.038909 -0.0245831 0 0.0231603 0 0)
(0.0491584 -0.0347811 0 0.033357 0 0)
(0.0619134 -0.0487205 0 0.0484182 0 0)
(0.0767884 -0.0673689 0 0.0709435 0 0)
(0.0932146 -0.0914317 0 0.104045 0 0)
(0.109231 -0.120828 0 0.152684 0 0)
(0.12309 -0.153992 0 0.22072 0 0)
(0.131314 -0.186828 0 0.313831 0 0)
(0.0375222 0.00110383 0 0.00606579 0 0)
(0.0161915 -0.000346844 0 0.00430956 0 0)
(0.0152943 -0.00103764 0 0.003563 0 0)
(0.0137747 -0.00136586 0 0.00375383 0 0)
(0.013457 -0.00190138 0 0.00441741 0 0)
(0.0142404 -0.00305838 0 0.00557492 0 0)
(0.015897 -0.00497794 0 0.00738049 0 0)
(0.0182969 -0.00771074 0 0.010063 0 0)
(0.021529 -0.0114372 0 0.0139485 0 0)
(0.025866 -0.0165103 0 0.0195588 0 0)
(0.0316801 -0.0234415 0 0.0276245 0 0)
(0.0391579 -0.032829 0 0.0393174 0 0)
(0.0483511 -0.0453054 0 0.056133 0 0)
(0.0586926 -0.0613405 0 0.0804178 0 0)
(0.0695055 -0.0810965 0 0.114687 0 0)
(0.0791672 -0.103839 0 0.162769 0 0)
(0.0866226 -0.12787 0 0.226912 0 0)
(0.090003 -0.149578 0 0.310875 0 0)
(0.0338497 0.000823991 0 0.00637315 0 0)
(0.0141632 -0.000547917 0 0.00505984 0 0)
(0.0136902 -0.00135704 0 0.00429079 0 0)
(0.0122732 -0.0017303 0 0.00445803 0 0)
(0.0117127 -0.00231342 0 0.00527129 0 0)
(0.0120654 -0.00348225 0 0.00676202 0 0)
(0.0132594 -0.00535738 0 0.00902656 0 0)
(0.0151552 -0.00802834 0 0.0122717 0 0)
(0.0177205 -0.0116841 0 0.0168576 0 0)
(0.0210774 -0.0166208 0 0.0233667 0 0)
(0.0254654 -0.0232305 0 0.0325627 0 0)
(0.0309738 -0.0319091 0 0.0455775 0 0)
(0.037559 -0.0430241 0 0.0637608 0 0)
(0.0446646 -0.0566758 0 0.0891223 0 0)
(0.0516965 -0.0726609 0 0.123565 0 0)
(0.0574075 -0.089972 0 0.169947 0 0)
(0.0612967 -0.107036 0 0.229367 0 0)
(0.0622829 -0.120893 0 0.304408 0 0)
(0.0386467 0.00141567 0 0.00635704 0 0)
(0.017177 -9.0018e-05 0 0.00522334 0 0)
(0.0163975 -0.000815178 0 0.00437977 0 0)
(0.0147066 -0.000899657 0 0.00454825 0 0)
(0.0135922 -0.00125098 0 0.00553565 0 0)
(0.0132882 -0.00226504 0 0.00729116 0 0)
(0.013762 -0.00392492 0 0.00990228 0 0)
(0.0148671 -0.00620625 0 0.0136142 0 0)
(0.0164878 -0.00926172 0 0.0188121 0 0)
(0.0186008 -0.0133747 0 0.026088 0 0)
(0.0212935 -0.0188793 0 0.0361891 0 0)
(0.0245943 -0.0260314 0 0.0501818 0 0)
(0.0284369 -0.0349809 0 0.0692467 0 0)
(0.0324132 -0.0456059 0 0.0950766 0 0)
(0.0361386 -0.0575018 0 0.129052 0 0)
(0.0389195 -0.0696357 0 0.173296 0 0)
(0.0405521 -0.0806178 0 0.22816 0 0)
(0.0406079 -0.0881749 0 0.295512 0 0)
(0.0341927 0.000586313 0 0.00762933 0 0)
(0.0147095 -0.00111236 0 0.00660268 0 0)
(0.0141384 -0.00200255 0 0.00542733 0 0)
(0.012902 -0.0021278 0 0.0057124 0 0)
(0.0125199 -0.00247497 0 0.00699542 0 0)
(0.0126462 -0.00347056 0 0.0090652 0 0)
(0.0130739 -0.00511908 0 0.0120077 0 0)
(0.0138214 -0.00736244 0 0.0161203 0 0)
(0.0149879 -0.010265 0 0.0218423 0 0)
(0.0166037 -0.0140108 0 0.0297822 0 0)
(0.0186299 -0.0188221 0 0.0406374 0 0)
(0.0209275 -0.0248178 0 0.0553569 0 0)
(0.0233574 -0.0319687 0 0.0749192 0 0)
(0.0256 -0.0399669 0 0.100708 0 0)
(0.0274326 -0.0482683 0 0.133667 0 0)
(0.0284886 -0.0558845 0 0.175395 0 0)
(0.0288395 -0.0616354 0 0.225682 0 0)
(0.0285147 -0.0637314 0 0.286027 0 0)
(0.035403 0.00077764 0 0.00851887 0 0)
(0.0157757 -0.000602144 0 0.00748206 0 0)
(0.0150007 -0.00128493 0 0.00661949 0 0)
(0.0136225 -0.00131903 0 0.00691923 0 0)
(0.0130171 -0.00147277 0 0.00814927 0 0)
(0.0128666 -0.00214912 0 0.0103408 0 0)
(0.0129818 -0.00345397 0 0.0135801 0 0)
(0.0133095 -0.00533043 0 0.0181046 0 0)
(0.0138664 -0.00774379 0 0.0242991 0 0)
(0.0146564 -0.0107175 0 0.0327124 0 0)
(0.015654 -0.0143226 0 0.0439665 0 0)
(0.0167404 -0.018536 0 0.0588859 0 0)
(0.0178009 -0.0232479 0 0.0782428 0 0)
(0.0185941 -0.0280362 0 0.103113 0 0)
(0.0190401 -0.0323742 0 0.134044 0 0)
(0.0190536 -0.0352954 0 0.172186 0 0)
(0.0189291 -0.0359774 0 0.216967 0 0)
(0.0189247 -0.032939 0 0.26957 0 0)
(0.0355438 0.00195625 0 0.00933367 0 0)
(0.0148303 -0.000482718 0 0.00858895 0 0)
(0.0139713 -0.00153234 0 0.00766757 0 0)
(0.0127671 -0.00155161 0 0.00819137 0 0)
(0.0122551 -0.00167775 0 0.00984621 0 0)
(0.0120965 -0.00234104 0 0.0124837 0 0)
(0.0121799 -0.00354328 0 0.0161747 0 0)
(0.0123916 -0.00511717 0 0.0211727 0 0)
(0.0126437 -0.00696908 0 0.0278535 0 0)
(0.0129112 -0.00909354 0 0.0367224 0 0)
(0.0132307 -0.0115162 0 0.0482931 0 0)
(0.0135802 -0.0141277 0 0.0632211 0 0)
(0.0139355 -0.0167277 0 0.0820216 0 0)
(0.0141771 -0.0188382 0 0.105471 0 0)
(0.0142907 -0.0200106 0 0.133735 0 0)
(0.0143714 -0.0194127 0 0.167647 0 0)
(0.0146984 -0.0165816 0 0.20634 0 0)
(0.0157856 -0.010322 0 0.250896 0 0)
(0.037105 0.00178851 0 0.0107853 0 0)
(0.0155713 -0.00108356 0 0.0100247 0 0)
(0.0141209 -0.00214257 0 0.00849686 0 0)
(0.0123443 -0.00197215 0 0.00875154 0 0)
(0.011417 -0.00185186 0 0.0103964 0 0)
(0.0108833 -0.00221897 0 0.0130598 0 0)
(0.0105515 -0.00297894 0 0.0167295 0 0)
(0.0103567 -0.00390866 0 0.0216561 0 0)
(0.010248 -0.00489407 0 0.0282147 0 0)
(0.0101636 -0.00588842 0 0.0368546 0 0)
(0.0100618 -0.0068292 0 0.047958 0 0)
(0.00990642 -0.00751014 0 0.0619712 0 0)
(0.00971048 -0.00767402 0 0.0791728 0 0)
(0.00954322 -0.00687105 0 0.100045 0 0)
(0.00953816 -0.00476714 0 0.124515 0 0)
(0.00998704 -0.000756271 0 0.153142 0 0)
(0.011204 0.00536867 0 0.185027 0 0)
(0.0137166 0.0144409 0 0.221071 0 0)
(0.0346505 0.00188609 0 0.0113129 0 0)
(0.0153481 -0.000312934 0 0.0104483 0 0)
(0.0144769 -0.00116111 0 0.00807539 0 0)
(0.0126571 -0.0011314 0 0.00832257 0 0)
(0.0116338 -0.00110366 0 0.0103231 0 0)
(0.0109334 -0.00134319 0 0.0134451 0 0)
(0.0103758 -0.00175773 0 0.0175366 0 0)
(0.00997993 -0.00213797 0 0.02276 0 0)
(0.00975984 -0.00234319 0 0.029409 0 0)
(0.00965574 -0.00227501 0 0.0378321 0 0)
(0.00960818 -0.00183992 0 0.0482894 0 0)
(0.00962194 -0.000838266 0 0.0610714 0 0)
(0.00976538 0.000937044 0 0.0762661 0 0)
(0.0101822 0.00385437 0 0.0941559 0 0)
(0.0110255 0.00809796 0 0.114507 0 0)
(0.0126101 0.0141353 0 0.137724 0 0)
(0.0151428 0.0219248 0 0.162934 0 0)
(0.0191064 0.0321496 0 0.19098 0 0)
(0.0345904 0.00202942 0 0.0117731 0 0)
(0.0145655 -0.000724835 0 0.0115679 0 0)
(0.014037 -0.0024439 0 0.0098579 0 0)
(0.0128211 -0.00252639 0 0.00996574 0 0)
(0.0120601 -0.00222906 0 0.0113953 0 0)
(0.0112452 -0.0020085 0 0.0138221 0 0)
(0.0104749 -0.0018585 0 0.0171775 0 0)
(0.00998902 -0.0016101 0 0.0215704 0 0)
(0.0098315 -0.00108058 0 0.0271817 0 0)
(0.00991621 -0.000103977 0 0.0342109 0 0)
(0.0101841 0.00146719 0 0.0427741 0 0)
(0.0107013 0.00382 0 0.0530086 0 0)
(0.0115881 0.00711144 0 0.0649056 0 0)
(0.0130678 0.0115639 0 0.0786185 0 0)
(0.015268 0.0172587 0 0.0938899 0 0)
(0.0185073 0.0244476 0 0.111003 0 0)
(0.0228483 0.0330313 0 0.129254 0 0)
(0.0287511 0.0434064 0 0.149233 0 0)
(0.0349552 0.0022401 0 0.0113499 0 0)
(0.0166759 0.000753139 0 0.0112152 0 0)
(0.0162139 -0.000293826 0 0.00936481 0 0)
(0.013498 -0.000203628 0 0.00933576 0 0)
(0.0117201 0.000376646 0 0.0106241 0 0)
(0.0106887 0.00105897 0 0.0128412 0 0)
(0.0102351 0.00184303 0 0.0158789 0 0)
(0.0102841 0.00293761 0 0.0197431 0 0)
(0.0107204 0.00453419 0 0.0244741 0 0)
(0.011409 0.00674178 0 0.0301501 0 0)
(0.0123137 0.00961344 0 0.0368184 0 0)
(0.0135701 0.0132417 0 0.0445543 0 0)
(0.0153691 0.0177082 0 0.0533217 0 0)
(0.017947 0.0231588 0 0.0631918 0 0)
(0.0214249 0.0296174 0 0.0739445 0 0)
(0.0260391 0.0372185 0 0.085754 0 0)
(0.0318273 0.0458464 0 0.0981112 0 0)
(0.0390689 0.0557067 0 0.111438 0 0)
(0.0370904 0.00134084 0 0.0126522 0 0)
(0.0158398 -0.000312531 0 0.0120581 0 0)
(0.0133203 -0.000863056 0 0.00940921 0 0)
(0.0110419 -0.000124319 0 0.00856585 0 0)
(0.0101055 0.000814367 0 0.00908275 0 0)
(0.00958584 0.0015925 0 0.0104921 0 0)
(0.00931016 0.00241358 0 0.0126022 0 0)
(0.00944602 0.00363666 0 0.0153091 0 0)
(0.0101061 0.00547452 0 0.018569 0 0)
(0.0113242 0.00796206 0 0.0224178 0 0)
(0.0131254 0.0110723 0 0.0268904 0 0)
(0.0155871 0.0148277 0 0.0320258 0 0)
(0.0188259 0.0192755 0 0.0377869 0 0)
(0.0229969 0.0245142 0 0.0442005 0 0)
(0.0282067 0.0305568 0 0.0511052 0 0)
(0.0346058 0.0374739 0 0.0586143 0 0)
(0.0422352 0.0451664 0 0.0664092 0 0)
(0.0512093 0.0537311 0 0.0747242 0 0)
(0.0351056 0.00161937 0 0.0112938 0 0)
(0.0150062 0.0010529 0 0.0105385 0 0)
(0.0130835 0.000969096 0 0.00820393 0 0)
(0.0112046 0.00184478 0 0.0075469 0 0)
(0.010868 0.00282106 0 0.00791935 0 0)
(0.011184 0.00378689 0 0.0089807 0 0)
(0.0118253 0.0049323 0 0.0105374 0 0)
(0.0128709 0.00647422 0 0.0124997 0 0)
(0.0144208 0.00853373 0 0.0148516 0 0)
(0.0165222 0.0111476 0 0.0176187 0 0)
(0.0192554 0.0143189 0 0.020813 0 0)
(0.0227502 0.018074 0 0.024447 0 0)
(0.0271302 0.0224263 0 0.0284771 0 0)
(0.0325286 0.0274284 0 0.0329089 0 0)
(0.0389947 0.0330515 0 0.0376347 0 0)
(0.0466751 0.0393548 0 0.0427435 0 0)
(0.0555518 0.0462286 0 0.0480285 0 0)
(0.0657576 0.0537717 0 0.0536412 0 0)
(0.0353967 0.000960143 0 0.0117217 0 0)
(0.0158352 3.3414e-05 0 0.0102617 0 0)
(0.0151135 -2.84362e-06 0 0.007562 0 0)
(0.0137182 0.000560244 0 0.00648721 0 0)
(0.0132169 0.0011611 0 0.00643137 0 0)
(0.0131894 0.0018311 0 0.00701465 0 0)
(0.0135611 0.00277333 0 0.00797569 0 0)
(0.0144182 0.00412591 0 0.00919836 0 0)
(0.0158442 0.00593213 0 0.0106937 0 0)
(0.0179035 0.00818973 0 0.0124879 0 0)
(0.0206584 0.0108866 0 0.0145803 0 0)
(0.0242251 0.0140399 0 0.0169749 0 0)
(0.0287078 0.0176678 0 0.0196499 0 0)
(0.0342272 0.0218187 0 0.0226049 0 0)
(0.0408323 0.0264696 0 0.0257507 0 0)
(0.0486527 0.0316585 0 0.0291485 0 0)
(0.0576789 0.0372872 0 0.0326493 0 0)
(0.0679979 0.0434273 0 0.0363253 0 0)
(0.0389577 0.000764459 0 0.00922687 0 0)
(0.0162272 -0.000229668 0 0.00742702 0 0)
(0.0143279 -0.000242593 0 0.00549559 0 0)
(0.013233 0.000269778 0 0.00493749 0 0)
(0.0132146 0.000871306 0 0.00509537 0 0)
(0.0134439 0.00157748 0 0.00558739 0 0)
(0.0138842 0.00247893 0 0.00625779 0 0)
(0.0147882 0.0036675 0 0.00708531 0 0)
(0.0163491 0.00520005 0 0.00809128 0 0)
(0.0186389 0.00709919 0 0.00929568 0 0)
(0.0216868 0.00936837 0 0.0107023 0 0)
(0.0255639 0.0120169 0 0.0123136 0 0)
(0.0303673 0.0150435 0 0.0141082 0 0)
(0.0362288 0.0184659 0 0.016086 0 0)
(0.043207 0.0222622 0 0.0181854 0 0)
(0.0514223 0.0264499 0 0.0204478 0 0)
(0.0608509 0.0309783 0 0.0227757 0 0)
(0.0715182 0.0358949 0 0.0252168 0 0)
(0.0407165 -0.000202039 0 0.00833133 0 0)
(0.0179414 -0.000505428 0 0.00624148 0 0)
(0.0156938 -0.000251539 0 0.0043144 0 0)
(0.0142751 0.000462188 0 0.00368389 0 0)
(0.0139547 0.00116253 0 0.00370987 0 0)
(0.0142323 0.0018974 0 0.00400946 0 0)
(0.0151451 0.00278217 0 0.00441595 0 0)
(0.0167935 0.00392453 0 0.00490288 0 0)
(0.0192346 0.00537575 0 0.00549752 0 0)
(0.0224811 0.00713284 0 0.00622945 0 0)
(0.0265384 0.0091641 0 0.00710235 0 0)
(0.0314612 0.0114573 0 0.00811173 0 0)
(0.0373224 0.0140161 0 0.00924378 0 0)
(0.044226 0.016871 0 0.010492 0 0)
(0.0521896 0.0200253 0 0.0118153 0 0)
(0.0613047 0.023506 0 0.0132387 0 0)
(0.071545 0.0272666 0 0.0147014 0 0)
(0.0828906 0.0313431 0 0.0162251 0 0)
(0.0374782 0.00102479 0 0.00785484 0 0)
(0.0173746 0.000215589 0 0.00587816 0 0)
(0.0160737 -0.000161062 0 0.00410389 0 0)
(0.0147577 4.83128e-05 0 0.0034256 0 0)
(0.0143137 0.000407307 0 0.00325242 0 0)
(0.0142337 0.000804361 0 0.00334846 0 0)
(0.0146454 0.00129848 0 0.00359135 0 0)
(0.0158115 0.00200803 0 0.0039108 0 0)
(0.0178725 0.00298464 0 0.00428786 0 0)
(0.0208254 0.00422454 0 0.00473509 0 0)
(0.024604 0.00571097 0 0.00526602 0 0)
(0.0291833 0.00743806 0 0.00588355 0 0)
(0.0345899 0.0093972 0 0.00658013 0 0)
(0.0409194 0.0115954 0 0.00735311 0 0)
(0.0482164 0.014018 0 0.00817173 0 0)
(0.0566324 0.0166867 0 0.00906474 0 0)
(0.0661457 0.0195622 0 0.00998882 0 0)
(0.0768346 0.02267 0 0.01094 0 0)
(0.0362158 0.000156955 0 0.00709173 0 0)
(0.0166445 -0.000226109 0 0.00551988 0 0)
(0.0155879 -0.000213304 0 0.00381101 0 0)
(0.0142851 -1.00277e-05 0 0.003058 0 0)
(0.0138949 0.000183801 0 0.00282196 0 0)
(0.0139906 0.000407913 0 0.00279753 0 0)
(0.0146534 0.000736432 0 0.00285188 0 0)
(0.0159623 0.00124084 0 0.00295177 0 0)
(0.0179333 0.00195948 0 0.00310035 0 0)
(0.0206118 0.00290058 0 0.00330418 0 0)
(0.0240755 0.00405945 0 0.00356553 0 0)
(0.0284295 0.0054244 0 0.00388116 0 0)
(0.0337691 0.00697028 0 0.00424679 0 0)
(0.0401931 0.00868459 0 0.00466259 0 0)
(0.0477209 0.0105509 0 0.00510812 0 0)
(0.0564286 0.012581 0 0.00560424 0 0)
(0.0662885 0.0147581 0 0.00612665 0 0)
(0.0772589 0.0171094 0 0.00666061 0 0)
(0.0351442 -0.00101817 0 0.00574775 0 0)
(0.0141677 -0.00129644 0 0.0038051 0 0)
(0.0131207 -0.00101841 0 0.00260686 0 0)
(0.0124838 -0.000645801 0 0.00212145 0 0)
(0.0127587 -0.000446692 0 0.00194502 0 0)
(0.0129484 -0.000331974 0 0.00190442 0 0)
(0.0130917 -0.000116938 0 0.00190283 0 0)
(0.013641 0.000283899 0 0.0019183 0 0)
(0.0149985 0.000861865 0 0.00196358 0 0)
(0.0173722 0.00157918 0 0.00204851 0 0)
(0.0208035 0.00241566 0 0.00217405 0 0)
(0.025271 0.00337 0 0.00233788 0 0)
(0.0307524 0.00444071 0 0.00253565 0 0)
(0.037272 0.00563253 0 0.00276382 0 0)
(0.0448183 0.00694206 0 0.00301117 0 0)
(0.0534503 0.0083782 0 0.00329142 0 0)
(0.0631575 0.0099286 0 0.00358785 0 0)
(0.0739148 0.0116172 0 0.00389237 0 0)
(0.0375845 -0.000711174 0 0.00473579 0 0)
(0.0172076 -0.000554771 0 0.00267325 0 0)
(0.0157286 -0.000470452 0 0.00176233 0 0)
(0.0149997 -0.000364806 0 0.00140901 0 0)
(0.0154881 -0.000260839 0 0.00126307 0 0)
(0.0161151 -9.58099e-05 0 0.00120062 0 0)
(0.0169399 0.000135687 0 0.00116829 0 0)
(0.0183045 0.000414803 0 0.00115115 0 0)
(0.0204375 0.000741168 0 0.0011496 0 0)
(0.0234458 0.00114428 0 0.00116712 0 0)
(0.0273732 0.00166708 0 0.00120358 0 0)
(0.0322433 0.00233409 0 0.00125725 0 0)
(0.0380877 0.00313754 0 0.0013283 0 0)
(0.0449597 0.00405432 0 0.00141782 0 0)
(0.0528608 0.00505327 0 0.00152242 0 0)
(0.0618596 0.00612463 0 0.00165132 0 0)
(0.0719529 0.00725802 0 0.00179651 0 0)
(0.083066 0.00845619 0 0.00194786 0 0)
(0.0352295 -0.00109602 0 0.0036025 0 0)
(0.0142446 -0.000429341 0 0.00175213 0 0)
(0.0132317 -0.000373442 0 0.00116983 0 0)
(0.012576 -0.000400735 0 0.000978445 0 0)
(0.0124279 -0.000446498 0 0.000896729 0 0)
(0.0122448 -0.000425779 0 0.000845481 0 0)
(0.0125536 -0.000307262 0 0.000805701 0 0)
(0.0138067 -0.000118535 0 0.000781216 0 0)
(0.0160698 0.000107178 0 0.000772797 0 0)
(0.0192408 0.000366668 0 0.000777415 0 0)
(0.0232518 0.000679708 0 0.000792065 0 0)
(0.0281492 0.00106293 0 0.000815064 0 0)
(0.0340432 0.00151918 0 0.000846271 0 0)
(0.0410878 0.00204151 0 0.000885696 0 0)
(0.0493426 0.00262146 0 0.000930069 0 0)
(0.058941 0.00326083 0 0.000985674 0 0)
(0.0698436 0.0039592 0 0.00104868 0 0)
(0.0820944 0.00472564 0 0.00110876 0 0)
(0.0341569 -0.000342892 0 0.00272826 0 0)
(0.0155599 0.000220251 0 0.00132026 0 0)
(0.0154911 0.000324298 0 0.000983761 0 0)
(0.0141075 0.00030251 0 0.000834499 0 0)
(0.0135881 0.000347112 0 0.000733542 0 0)
(0.0141137 0.000446168 0 0.000664331 0 0)
(0.0155897 0.000519419 0 0.000614322 0 0)
(0.017732 0.000533285 0 0.000573482 0 0)
(0.0204365 0.000527141 0 0.000537221 0 0)
(0.0238956 0.000559152 0 0.000504225 0 0)
(0.0284353 0.000661258 0 0.000475004 0 0)
(0.0343425 0.000831654 0 0.000450408 0 0)
(0.0417975 0.00104777 0 0.000430469 0 0)
(0.0508912 0.0012835 0 0.00041339 0 0)
(0.0616542 0.00152601 0 0.000398658 0 0)
(0.0741535 0.0017747 0 0.000390753 0 0)
(0.0884078 0.00203448 0 0.000384495 0 0)
(0.104412 0.00232485 0 0.000374468 0 0)
(0.0220768 -0.0468592 6.33785e-22 0.106752 -1.38872e-21 1.68725e-37)
(0.159643 -0.0939331 -1.5687e-21 0.0623317 7.86201e-22 1.66361e-37)
(0.375513 -0.106317 0 0.043568 0 0)
(0.615705 -0.0870856 0 0.0410202 0 0)
(0.782799 -0.0412248 0 0.046507 0 0)
(0.877585 -0.00842769 1.08591e-21 0.0674088 8.26256e-22 1.56699e-37)
(0.943001 -0.0118371 0 0.0932315 0 0)
(1.04594 -0.0576658 0 0.111759 0 0)
(1.25738 -0.130318 0 0.122007 0 0)
(1.60718 -0.208133 0 0.123225 0 0)
(2.10471 -0.27547 2.22084e-21 0.114908 -3.45468e-22 1.45133e-37)
(2.72232 -0.31452 0 0.0984323 0 0)
(3.41021 -0.320253 0 0.0809813 0 0)
(4.11655 -0.309165 0 0.0684664 0 0)
(4.79322 -0.292687 0 0.0593832 0 0)
(5.41973 -0.276884 2.42502e-21 0.0539441 4.95026e-22 1.34145e-37)
(5.99664 -0.202078 0 0.0420727 0 0)
(6.4109 -0.0616824 0 0.039067 0 0)
(6.65461 0.0387749 0 0.0514275 0 0)
(6.73876 0.102904 0 0.0660125 0 0)
(6.72577 0.150014 0 0.0818191 0 0)
(6.65348 0.189039 0 0.100709 0 0)
(6.55648 0.20702 0 0.113148 0 0)
(6.40293 0.195614 -4.07898e-21 0.120421 9.32765e-22 1.17747e-37)
(6.29254 0.136454 5.32667e-21 0.150119 -1.01333e-21 1.15798e-37)
(6.20444 0.0769381 -6.52811e-21 0.192364 8.77315e-22 1.1387e-37)
(6.23154 -0.0151808 -7.65425e-21 0.257953 6.32934e-22 1.11964e-37)
(6.41531 -0.152798 0 0.295381 0 0)
(6.77789 -0.244986 0 0.271158 0 0)
(7.21833 -0.319979 1.0611e-20 0.318246 -4.65009e-22 1.06373e-37)
(7.74557 -0.392268 1.1669e-20 0.336815 -6.2041e-22 1.04552e-37)
(8.37794 -0.450216 0 0.323568 0 0)
(9.135 -0.495607 0 0.298622 0 0)
(9.96684 -0.516075 1.52422e-20 0.285882 -7.43801e-22 9.92211e-38)
(10.829 -0.530226 0 0.288336 0 0)
(11.7424 -0.550081 0 0.314171 0 0)
(12.7979 -0.636382 -1.81438e-20 0.375937 4.17658e-22 9.40904e-38)
(14.1124 -0.772867 0 0.403223 0 0)
(15.6653 -0.867571 -1.97756e-20 0.367818 4.37945e-22 9.07807e-38)
(17.2007 -0.781218 -4.12788e-20 0.279658 1.07967e-21 3.56634e-37)
(18.3436 -0.542909 0 0.224049 0 0)
(18.9564 -0.365773 0 0.217307 0 0)
(19.1253 -0.262627 0 0.24224 0 0)
(19.1247 -0.405629 0 0.257178 0 0)
(19.6302 -0.522812 0 0.311742 0 0)
(20.2226 -0.533819 -5.27729e-20 0.357234 1.07677e-21 3.19504e-37)
(20.8402 -0.870549 -5.39033e-20 0.364522 5.39336e-22 3.13612e-37)
(21.2539 -0.90962 -5.4701e-20 0.447985 3.86426e-22 3.07802e-37)
(21.589 -0.294091 0 0.242551 0 0)
(21.2405 -0.130684 5.65337e-20 0.322503 -9.96084e-22 2.96428e-37)
(21.3533 -0.252012 0 0.258091 0 0)
(21.6407 -0.308828 -5.79172e-20 0.246011 8.46511e-22 2.85384e-37)
(22.0563 -0.327462 -5.85404e-20 0.223459 7.61455e-22 2.79985e-37)
(22.5462 -0.375693 0 0.191408 0 0)
(23.2724 -0.421502 0 0.159381 0 0)
(23.9472 -0.63653 0 0.165209 0 0)
(24.7236 -0.504027 -6.09234e-20 0.154105 5.90395e-22 2.5919e-37)
(25.2303 -0.432691 0 0.233383 0 0)
(26.1004 -0.515874 0 0.184546 0 0)
(27.1974 -0.544101 0 0.159384 0 0)
(28.4587 -0.566362 0 0.128258 0 0)
(29.8357 -0.576667 0 0.10375 0 0)
(31.2813 -0.573546 0 0.0835777 0 0)
(32.6971 -0.547933 0 0.0703249 0 0)
(34.0366 -0.50669 0 0.0614243 0 0)
(35.2128 -0.450313 6.46676e-20 0.0554435 -1.72338e-22 2.16881e-37)
(36.1864 -0.385098 0 0.0514836 0 0)
(36.9142 -0.311504 0 0.0497512 0 0)
(37.3924 -0.232798 -6.33041e-20 0.0500992 1.05747e-24 2.04078e-37)
(37.6319 -0.158255 -6.23672e-20 0.0517066 -4.31817e-23 1.99948e-37)
(37.6954 -0.0982901 0 0.0536902 0 0)
(37.6351 -0.0518207 5.99328e-20 0.0559763 6.83489e-23 1.91889e-37)
(37.5305 -0.030367 -5.84991e-20 0.0610939 -3.73018e-23 1.87958e-37)
(37.4266 -0.0257138 0 0.0665303 0 0)
(37.2906 -0.0136351 5.5276e-20 0.0660776 1.31467e-23 1.80287e-37)
(37.0863 0.0202012 0 0.0587589 0 0)
(36.7642 0.0713436 0 0.0493167 0 0)
(36.2528 0.139346 -4.98366e-20 0.0441408 -7.30758e-23 1.69257e-37)
(35.4835 0.218914 0 0.0483598 0 0)
(34.4214 0.295391 4.64735e-20 0.0567082 1.37473e-22 1.62212e-37)
(33.1446 0.330189 0 0.0708289 0 0)
(31.8127 0.287296 -4.37218e-20 0.0872961 -8.44113e-23 1.55407e-37)
(30.6561 0.23275 -4.25599e-20 0.0947391 -6.05182e-23 1.52093e-37)
(29.5839 0.145092 -4.15514e-20 0.104139 -3.80087e-23 1.48835e-37)
(28.8549 -0.00219924 -8.13155e-20 0.107859 -2.04841e-23 5.82535e-37)
(28.2842 -0.122022 7.9996e-20 0.146794 -5.93921e-23 5.69953e-37)
(27.9063 -0.210786 0 0.15782 0 0)
(27.5464 -0.192488 0 0.215977 0 0)
(27.4198 -0.128264 0 0.213743 0 0)
(27.9806 -0.382888 8.03955e-20 0.247594 -1.30925e-21 5.21779e-37)
(29.5276 -0.569655 8.20619e-20 0.171209 -1.33717e-21 5.10266e-37)
(31.5447 -0.639862 -8.44287e-20 0.123679 1.34379e-21 4.98961e-37)
(33.6917 -0.625363 0 0.0870063 0 0)
(35.7762 -0.573502 9.00184e-20 0.0634593 -1.15687e-21 4.76962e-37)
(37.6922 -0.497956 9.25673e-20 0.0470348 -9.98466e-22 4.66259e-37)
(39.355 -0.412927 9.45797e-20 0.035757 -8.19392e-22 4.55748e-37)
(40.7216 -0.320636 0 0.0275246 0 0)
(41.7461 -0.225009 0 0.0214654 0 0)
(42.4075 -0.126653 0 0.0169033 0 0)
(42.6778 -0.027627 9.41119e-20 0.0135245 -1.21695e-23 4.15561e-37)
(42.5474 0.0701257 0 0.0111717 0 0)
(42.0069 0.164657 0 0.00962691 0 0)
(41.0674 0.252808 -8.33507e-20 0.00882999 -5.10349e-22 3.87283e-37)
(39.7512 0.331849 0 0.00864265 0 0)
(38.1014 0.399541 0 0.00892935 0 0)
(36.1635 0.454447 -6.58954e-20 0.00953483 -7.90829e-22 3.60531e-37)
(33.9898 0.495561 0 0.0103154 0 0)
(31.64 0.522531 0 0.0111319 0 0)
(29.1753 0.535635 4.66076e-20 0.0118598 7.97901e-22 3.35246e-37)
(26.6572 0.535706 4.06125e-20 0.012398 7.54271e-22 3.27135e-37)
(24.1441 0.524105 0 0.0126873 0 0)
(21.6884 0.502745 -3.00408e-20 0.0127098 -6.28099e-22 3.11371e-37)
(19.3322 0.474272 0 0.0125083 0 0)
(17.1041 0.441512 2.17327e-20 0.0121599 4.84899e-22 2.96206e-37)
(15.0201 0.406946 0 0.0117496 0 0)
(13.0868 0.372377 1.56301e-20 0.0113434 3.55732e-22 2.81619e-37)
(11.3056 0.338511 1.32973e-20 0.0109657 3.00031e-22 2.74535e-37)
(9.6754 0.305695 0 0.0106193 0 0)
(8.19515 0.273787 0 0.0102786 0 0)
(6.8635 0.242546 0 0.00990677 0 0)
(5.67895 0.211993 0 0.00947366 0 0)
(4.63948 0.182295 0 0.00895726 0 0)
(3.74263 0.154374 0 0.00845821 0 0)
(2.98448 0.128439 0 0.00792305 0 0)
(2.35513 0.104551 5.3949e-21 0.00737396 6.50588e-23 2.22618e-37)
(1.84636 0.0824189 -5.09012e-21 0.00677568 -5.77686e-23 2.16688e-37)
(1.44723 0.0626989 0 0.00618185 0 0)
(1.14691 0.0454484 0 0.00560968 0 0)
(0.934057 0.0305877 0 0.00506669 0 0)
(0.797231 0.0180282 0 0.00456356 0 0)
(0.725266 0.00763596 -7.45541e-21 0.00410882 -9.10291e-23 7.55123e-37)
(0.707544 -0.000766893 0 0.00370764 0 0)
(0.734336 -0.0073804 6.21901e-21 0.00336184 8.19121e-23 7.13581e-37)
(0.796666 -0.0124044 -5.57448e-21 0.00307074 -7.44575e-23 6.93447e-37)
(0.886723 -0.0160123 0 0.0028334 0 0)
(0.997043 -0.0183271 0 0.00264996 0 0)
(1.12109 -0.0194775 0 0.00252071 0 0)
(1.2531 -0.0196219 3.10079e-21 0.00244425 2.39085e-23 6.17004e-37)
(1.3882 -0.0189357 2.576e-21 0.00241919 5.65669e-24 5.98882e-37)
(1.52231 -0.0175895 0 0.00244288 0 0)
(1.65231 -0.0157467 1.70788e-21 0.00251178 -2.86497e-23 5.63781e-37)
(1.77587 -0.0135691 1.37665e-21 0.00262242 -4.78611e-23 5.46789e-37)
(1.89147 -0.0112193 -1.12185e-21 0.00277197 6.82609e-23 5.30162e-37)
(1.99834 -0.0088157 0 0.00295905 0 0)
(2.09591 -0.00643933 0 0.00318195 0 0)
(2.18435 -0.00414616 -8.23068e-22 0.00343901 1.25939e-22 4.82406e-37)
(2.26284 -0.00184808 0 0.00374057 0 0)
(2.33116 0.000516865 0 0.00409621 0 0)
(2.38863 0.00299236 0 0.00451165 0 0)
(2.4343 0.00570423 0 0.00501206 0 0)
(2.46643 0.00890921 1.76472e-21 0.00558926 -2.20252e-22 4.09564e-37)
(2.48182 0.0128698 2.18111e-21 0.00626921 -2.34015e-22 3.9596e-37)
(2.47712 0.0175927 0 0.00715053 0 0)
(2.45024 0.0234725 3.25512e-21 0.00828363 -2.71448e-22 3.69674e-37)
(2.39801 0.0301276 0 0.00997307 0 0)
(2.32716 0.03813 0 0.012456 0 0)
(2.23849 0.0495981 5.68259e-21 0.0156486 -2.81824e-22 3.32482e-37)
(2.13373 0.0607277 0 0.0193188 0 0)
(2.03946 0.0762432 7.65414e-21 0.0223456 -1.88292e-22 3.09124e-37)
(1.91185 0.0906171 0 0.0235654 0 0)
(1.78218 0.087123 0 0.0217881 0 0)
(1.64935 0.077956 9.77765e-21 0.0183499 -1.60051e-23 2.76148e-37)
(1.45358 0.0301528 0 0.0137374 0 0)
(1.43826 -0.0318827 1.00905e-20 0.00678503 -1.10509e-22 2.55489e-37)