/*--------------------------------*- C++ -*----------------------------------*\
  =========                 |
  \\      /  F ield         | OpenFOAM: The Open Source CFD Toolbox
   \\    /   O peration     | Website:  https://openfoam.org
    \\  /    A nd           | Version:  10
     \\/     M anipulation  |
\*---------------------------------------------------------------------------*/
FoamFile
{
    format      ascii;
    class       volVectorField;
    location    "0.039";
    object      U;
}
// * * * * * * * * * * * * * * * * * * * * * * * * * * * * * * * * * * * * * //

dimensions      [0 1 -1 0 0 0 0];

internalField   nonuniform List<vector> 
4000
(
(5 -7.27699e-05 0)
(5.00023 -0.000220552 0)
(5.00056 -0.000366585 0)
(5.00105 -0.000513357 0)
(5.0017 -0.000660301 0)
(5.0025 -0.000808281 0)
(5.00345 -0.000956482 0)
(5.00454 -0.00110598 0)
(5.00579 -0.00125589 0)
(5.00718 -0.00140742 0)
(5.00874 -0.00155962 0)
(5.01044 -0.00171383 0)
(5.0123 -0.0018691 0)
(5.01431 -0.00202692 0)
(5.01649 -0.00218632 0)
(5.01883 -0.00234889 0)
(5.02133 -0.00251366 0)
(5.024 -0.00268233 0)
(5.02684 -0.0028539 0)
(5.02985 -0.00303017 0)
(5.03304 -0.00321014 0)
(5.03642 -0.00339566 0)
(5.03999 -0.00358576 0)
(5.04375 -0.00378236 0)
(5.04771 -0.00398448 0)
(5.05188 -0.0041941 0)
(5.05626 -0.00441027 0)
(5.06086 -0.00463501 0)
(5.06569 -0.00486739 0)
(5.07076 -0.00510945 0)
(5.07608 -0.00536032 0)
(5.08166 -0.00562203 0)
(5.0875 -0.00589378 0)
(5.09363 -0.00617757 0)
(5.10004 -0.00647267 0)
(5.10675 -0.00678106 0)
(5.11379 -0.00710208 0)
(5.12115 -0.00743766 0)
(5.12885 -0.00778722 0)
(5.13692 -0.00815265 0)
(5.14535 -0.00853344 0)
(5.15418 -0.00893137 0)
(5.16342 -0.00934607 0)
(5.17308 -0.00977919 0)
(5.18318 -0.0102304 0)
(5.19375 -0.0107013 0)
(5.2048 -0.0111917 0)
(5.21635 -0.0117029 0)
(5.22843 -0.0122348 0)
(5.24104 -0.0127885 0)
(5.25423 -0.013364 0)
(5.268 -0.0139621 0)
(5.28239 -0.0145829 0)
(5.29741 -0.0152269 0)
(5.31308 -0.0158941 0)
(5.32944 -0.0165845 0)
(5.3465 -0.0172982 0)
(5.36429 -0.0180347 0)
(5.38283 -0.0187938 0)
(5.40214 -0.0195744 0)
(5.42224 -0.0203763 0)
(5.44316 -0.0211974 0)
(5.46492 -0.0220372 0)
(5.48752 -0.0228926 0)
(5.511 -0.0237628 0)
(5.53535 -0.0246437 0)
(5.5606 -0.0255337 0)
(5.58674 -0.0264276 0)
(5.61378 -0.0273232 0)
(5.64173 -0.028214 0)
(5.67056 -0.0290972 0)
(5.70028 -0.0299648 0)
(5.73087 -0.0308138 0)
(5.7623 -0.0316348 0)
(5.79455 -0.0324245 0)
(5.82757 -0.0331727 0)
(5.86133 -0.0338762 0)
(5.89577 -0.0345241 0)
(5.93084 -0.0351139 0)
(5.96648 -0.0356348 0)
(6.0026 -0.0360856 0)
(6.03915 -0.036456 0)
(6.07603 -0.0367468 0)
(6.11316 -0.0369487 0)
(6.15046 -0.0370653 0)
(6.18782 -0.0370885 0)
(6.22516 -0.0370247 0)
(6.2624 -0.0368676 0)
(6.29943 -0.0366265 0)
(6.33617 -0.0362964 0)
(6.37253 -0.0358891 0)
(6.40844 -0.0354009 0)
(6.44382 -0.034846 0)
(6.47859 -0.0342209 0)
(6.51271 -0.0335415 0)
(6.54611 -0.0328046 0)
(6.57873 -0.0320272 0)
(6.61055 -0.0312054 0)
(6.64151 -0.030357 0)
(6.67161 -0.0294773 0)
(6.7008 -0.0285845 0)
(6.72908 -0.0276725 0)
(6.75644 -0.0267597 0)
(6.78287 -0.0258387 0)
(6.80837 -0.0249276 0)
(6.83296 -0.0240178 0)
(6.85663 -0.0231272 0)
(6.87941 -0.0222456 0)
(6.90132 -0.0213908 0)
(6.92237 -0.0205513 0)
(6.94258 -0.0197445 0)
(6.962 -0.0189576 0)
(6.98064 -0.018208 0)
(6.99854 -0.0174814 0)
(7.01572 -0.0167953 0)
(7.03222 -0.0161342 0)
(7.04807 -0.0155156 0)
(7.06332 -0.0149228 0)
(7.07798 -0.0143737 0)
(7.0921 -0.0138504 0)
(7.10571 -0.0133714 0)
(7.11884 -0.0129175 0)
(7.13153 -0.0125082 0)
(7.14382 -0.012123 0)
(7.15574 -0.0117827 0)
(7.16732 -0.0114654 0)
(7.17859 -0.0111932 0)
(7.1896 -0.0109431 0)
(7.20036 -0.010739 0)
(7.21093 -0.0105563 0)
(7.22132 -0.0104206 0)
(7.23158 -0.0103061 0)
(7.24174 -0.0102399 0)
(7.25183 -0.0101946 0)
(7.26189 -0.0101987 0)
(7.27196 -0.0102227 0)
(7.28206 -0.0102961 0)
(7.29224 -0.0103869 0)
(7.30253 -0.0105245 0)
(7.31295 -0.0106743 0)
(7.32353 -0.0108639 0)
(7.33429 -0.0110563 0)
(7.34527 -0.0112757 0)
(7.35644 -0.0114826 0)
(7.36783 -0.0116963 0)
(7.37941 -0.0118755 0)
(7.39118 -0.0120332 0)
(7.40305 -0.0121281 0)
(7.41503 -0.0121656 0)
(7.42698 -0.0121071 0)
(7.43887 -0.0119502 0)
(7.45052 -0.0116624 0)
(7.46187 -0.0112345 0)
(7.47269 -0.0106439 0)
(7.48291 -0.00987559 0)
(7.49225 -0.00892076 0)
(7.50061 -0.00776056 0)
(7.5077 -0.00640259 0)
(7.5134 -0.00482627 0)
(7.51744 -0.00305691 0)
(7.51967 -0.00107167 0)
(7.51983 0.00108821 0)
(7.51781 0.00344617 0)
(7.51338 0.00594578 0)
(7.50643 0.00861096 0)
(7.49678 0.0113746 0)
(7.48437 0.0142616 0)
(7.46907 0.0171983 0)
(7.45083 0.0202101 0)
(7.42962 0.0232215 0)
(7.40541 0.0262581 0)
(7.37823 0.0292464 0)
(7.34807 0.0322115 0)
(7.31503 0.0350858 0)
(7.27915 0.0378926 0)
(7.24056 0.0405731 0)
(7.19932 0.0431483 0)
(7.15562 0.0455702 0)
(7.10952 0.0478563 0)
(7.06126 0.0499711 0)
(7.01092 0.0519278 0)
(6.95874 0.0537038 0)
(6.90482 0.0553076 0)
(6.8494 0.0567292 0)
(6.79259 0.0579722 0)
(6.73463 0.0590382 0)
(6.67565 0.0599259 0)
(6.61585 0.0606473 0)
(6.55536 0.061196 0)
(6.49439 0.0615927 0)
(6.43305 0.0618264 0)
(6.37151 0.0619247 0)
(6.30991 0.0618726 0)
(6.24836 0.0617022 0)
(6.18713 0.0613955 0)
(6.12585 0.0609852 0)
(6.06632 0.060463 0)
(6.00334 0.0598137 0)
(5.95478 0.0592238 0)
(5.86533 0.0578953 0)
(5 -0.00021889 0)
(5.00024 -0.000660796 0)
(5.00057 -0.0010997 0)
(5.00106 -0.00153993 0)
(5.00172 -0.00198106 0)
(5.00252 -0.0024243 0)
(5.00346 -0.00286881 0)
(5.00456 -0.00331614 0)
(5.0058 -0.00376545 0)
(5.00719 -0.00421851 0)
(5.00874 -0.00467448 0)
(5.01044 -0.00513541 0)
(5.0123 -0.00560055 0)
(5.01431 -0.0060722 0)
(5.01647 -0.00654967 0)
(5.0188 -0.00703549 0)
(5.0213 -0.00752903 0)
(5.02395 -0.00803301 0)
(5.02678 -0.00854686 0)
(5.02979 -0.00907348 0)
(5.03296 -0.00961238 0)
(5.03633 -0.0101666 0)
(5.03987 -0.0107358 0)
(5.04362 -0.011323 0)
(5.04756 -0.0119281 0)
(5.0517 -0.0125543 0)
(5.05606 -0.0132014 0)
(5.06063 -0.0138727 0)
(5.06544 -0.0145683 0)
(5.07048 -0.0152914 0)
(5.07576 -0.0160423 0)
(5.0813 -0.0168243 0)
(5.08711 -0.0176376 0)
(5.09319 -0.0184858 0)
(5.09956 -0.019369 0)
(5.10623 -0.0202909 0)
(5.11321 -0.0212518 0)
(5.12052 -0.0222552 0)
(5.12817 -0.0233017 0)
(5.13618 -0.0243946 0)
(5.14456 -0.0255346 0)
(5.15333 -0.0267251 0)
(5.1625 -0.0279669 0)
(5.1721 -0.029263 0)
(5.18213 -0.0306144 0)
(5.19263 -0.0320241 0)
(5.20361 -0.033493 0)
(5.21508 -0.0350237 0)
(5.22708 -0.0366174 0)
(5.23962 -0.0382761 0)
(5.25272 -0.0400009 0)
(5.26641 -0.0417936 0)
(5.28071 -0.0436549 0)
(5.29565 -0.0455859 0)
(5.31124 -0.047587 0)
(5.32751 -0.0496585 0)
(5.34448 -0.0518003 0)
(5.36219 -0.0540114 0)
(5.38065 -0.0562911 0)
(5.39988 -0.0586367 0)
(5.41992 -0.0610465 0)
(5.44077 -0.063516 0)
(5.46246 -0.066042 0)
(5.48502 -0.0686176 0)
(5.50845 -0.0712379 0)
(5.53277 -0.0738932 0)
(5.558 -0.0765763 0)
(5.58414 -0.0792744 0)
(5.61119 -0.0819779 0)
(5.63917 -0.0846705 0)
(5.66806 -0.0873401 0)
(5.69786 -0.089967 0)
(5.72854 -0.0925367 0)
(5.7601 -0.0950265 0)
(5.7925 -0.0974202 0)
(5.8257 -0.0996927 0)
(5.85967 -0.101828 0)
(5.89435 -0.103798 0)
(5.92968 -0.10559 0)
(5.9656 -0.107177 0)
(6.00203 -0.108547 0)
(6.0389 -0.109677 0)
(6.07612 -0.11056 0)
(6.11361 -0.111178 0)
(6.15126 -0.111529 0)
(6.18899 -0.111603 0)
(6.2267 -0.111404 0)
(6.26429 -0.110928 0)
(6.30167 -0.110189 0)
(6.33874 -0.109187 0)
(6.37543 -0.107942 0)
(6.41163 -0.10646 0)
(6.44729 -0.104767 0)
(6.48232 -0.10287 0)
(6.51665 -0.1008 0)
(6.55025 -0.0985668 0)
(6.58304 -0.0962024 0)
(6.615 -0.093715 0)
(6.64609 -0.0911389 0)
(6.67627 -0.0884802 0)
(6.70552 -0.0857729 0)
(6.73385 -0.0830206 0)
(6.76122 -0.080256 0)
(6.78764 -0.0774799 0)
(6.81312 -0.0747233 0)
(6.83766 -0.0719838 0)
(6.86127 -0.0692906 0)
(6.88398 -0.066638 0)
(6.90579 -0.0640536 0)
(6.92674 -0.0615283 0)
(6.94685 -0.0590884 0)
(6.96614 -0.0567217 0)
(6.98465 -0.0544531 0)
(7.00241 -0.0522676 0)
(7.01945 -0.0501893 0)
(7.03581 -0.0482004 0)
(7.05151 -0.0463244 0)
(7.0666 -0.0445411 0)
(7.08111 -0.0428738 0)
(7.09507 -0.0413001 0)
(7.10852 -0.0398437 0)
(7.1215 -0.03848 0)
(7.13404 -0.0372336 0)
(7.14617 -0.0360781 0)
(7.15792 -0.0350394 0)
(7.16934 -0.0340896 0)
(7.18045 -0.0332564 0)
(7.19129 -0.0325106 0)
(7.20188 -0.0318822 0)
(7.21228 -0.0313407 0)
(7.2225 -0.0309186 0)
(7.23258 -0.0305843 0)
(7.24256 -0.0303721 0)
(7.25247 -0.0302492 0)
(7.26234 -0.0302508 0)
(7.27223 -0.0303418 0)
(7.28215 -0.0305568 0)
(7.29215 -0.0308574 0)
(7.30227 -0.0312746 0)
(7.31253 -0.031765 0)
(7.32298 -0.0323528 0)
(7.33364 -0.0329878 0)
(7.34453 -0.0336839 0)
(7.35568 -0.0343823 0)
(7.36709 -0.0350834 0)
(7.37874 -0.0357196 0)
(7.39065 -0.0362758 0)
(7.40275 -0.0366767 0)
(7.41503 -0.0368921 0)
(7.42737 -0.0368436 0)
(7.43973 -0.0364883 0)
(7.45194 -0.0357521 0)
(7.46394 -0.0345855 0)
(7.47549 -0.0329276 0)
(7.4865 -0.0307298 0)
(7.4967 -0.027954 0)
(7.50595 -0.0245603 0)
(7.51398 -0.0205427 0)
(7.52063 -0.0158766 0)
(7.52561 -0.01059 0)
(7.52876 -0.00466811 0)
(7.52982 0.00182854 0)
(7.52864 0.00889703 0)
(7.52499 0.0164452 0)
(7.51874 0.0244597 0)
(7.50973 0.0328264 0)
(7.49785 0.0415258 0)
(7.483 0.0504306 0)
(7.46512 0.0595191 0)
(7.44417 0.0686598 0)
(7.42013 0.0778322 0)
(7.39302 0.0869083 0)
(7.36286 0.0958712 0)
(7.32974 0.104603 0)
(7.29369 0.113092 0)
(7.25487 0.121235 0)
(7.21334 0.129025 0)
(7.1693 0.13638 0)
(7.12283 0.143297 0)
(7.07414 0.149715 0)
(7.02336 0.155635 0)
(6.9707 0.161017 0)
(6.9163 0.165868 0)
(6.8604 0.170169 0)
(6.80311 0.173926 0)
(6.74468 0.177141 0)
(6.68523 0.179821 0)
(6.62499 0.181985 0)
(6.56409 0.183639 0)
(6.50272 0.184814 0)
(6.44101 0.185515 0)
(6.37913 0.185783 0)
(6.31723 0.18562 0)
(6.25541 0.185073 0)
(6.19394 0.184142 0)
(6.13245 0.182873 0)
(6.07273 0.181284 0)
(6.00961 0.179315 0)
(5.96099 0.177468 0)
(5.87135 0.173509 0)
(5 -0.000365249 0)
(5.00024 -0.0010978 0)
(5.00057 -0.00182884 0)
(5.00106 -0.00256118 0)
(5.00171 -0.00329524 0)
(5.0025 -0.00403163 0)
(5.00344 -0.00477062 0)
(5.00453 -0.00551307 0)
(5.00577 -0.00625947 0)
(5.00715 -0.00701088 0)
(5.00869 -0.00776798 0)
(5.01038 -0.0085321 0)
(5.01222 -0.00930415 0)
(5.01421 -0.0100857 0)
(5.01636 -0.0108779 0)
(5.01867 -0.0116826 0)
(5.02114 -0.0125012 0)
(5.02377 -0.0133356 0)
(5.02657 -0.0141875 0)
(5.02954 -0.0150592 0)
(5.03269 -0.0159523 0)
(5.03601 -0.0168694 0)
(5.03951 -0.0178125 0)
(5.04321 -0.0187841 0)
(5.0471 -0.0197865 0)
(5.05119 -0.0208226 0)
(5.05548 -0.0218945 0)
(5.06 -0.0230054 0)
(5.06473 -0.0241577 0)
(5.0697 -0.0253546 0)
(5.07491 -0.0265986 0)
(5.08036 -0.0278932 0)
(5.08608 -0.029241 0)
(5.09207 -0.0306455 0)
(5.09835 -0.0321095 0)
(5.10491 -0.0336366 0)
(5.11179 -0.0352298 0)
(5.11899 -0.0368927 0)
(5.12652 -0.0386283 0)
(5.13441 -0.0404403 0)
(5.14266 -0.0423317 0)
(5.15129 -0.0443064 0)
(5.16033 -0.0463674 0)
(5.16978 -0.0485184 0)
(5.17966 -0.0507624 0)
(5.19001 -0.0531031 0)
(5.20082 -0.0555433 0)
(5.21214 -0.0580865 0)
(5.22396 -0.0607355 0)
(5.23633 -0.0634933 0)
(5.24926 -0.0663623 0)
(5.26277 -0.0693451 0)
(5.27689 -0.0724435 0)
(5.29164 -0.0756594 0)
(5.30704 -0.0789937 0)
(5.32313 -0.0824474 0)
(5.33992 -0.0860202 0)
(5.35744 -0.0897114 0)
(5.37573 -0.0935192 0)
(5.39479 -0.097441 0)
(5.41466 -0.101473 0)
(5.43536 -0.105609 0)
(5.45691 -0.109843 0)
(5.47934 -0.114166 0)
(5.50267 -0.118568 0)
(5.52691 -0.123035 0)
(5.55208 -0.127553 0)
(5.57819 -0.132105 0)
(5.60526 -0.13667 0)
(5.63328 -0.141225 0)
(5.66226 -0.145746 0)
(5.69219 -0.150204 0)
(5.72307 -0.154569 0)
(5.75486 -0.158808 0)
(5.78755 -0.162886 0)
(5.82111 -0.166767 0)
(5.85548 -0.170414 0)
(5.89062 -0.17379 0)
(5.92647 -0.176859 0)
(5.96296 -0.179584 0)
(6.00001 -0.181935 0)
(6.03753 -0.18388 0)
(6.07545 -0.185397 0)
(6.11365 -0.186463 0)
(6.15204 -0.187066 0)
(6.19052 -0.187196 0)
(6.22897 -0.186852 0)
(6.26729 -0.186038 0)
(6.30538 -0.184764 0)
(6.34314 -0.183046 0)
(6.38046 -0.180905 0)
(6.41728 -0.178366 0)
(6.45349 -0.17546 0)
(6.48903 -0.172217 0)
(6.52382 -0.168673 0)
(6.55781 -0.164863 0)
(6.59095 -0.160823 0)
(6.62319 -0.15659 0)
(6.65451 -0.152201 0)
(6.68487 -0.147688 0)
(6.71425 -0.143089 0)
(6.74265 -0.138431 0)
(6.77006 -0.133748 0)
(6.79647 -0.129064 0)
(6.8219 -0.124407 0)
(6.84636 -0.119798 0)
(6.86986 -0.115261 0)
(6.89243 -0.11081 0)
(6.91408 -0.106465 0)
(6.93484 -0.102237 0)
(6.95474 -0.0981412 0)
(6.97381 -0.0941853 0)
(6.99208 -0.0903813 0)
(7.00959 -0.0867326 0)
(7.02637 -0.083249 0)
(7.04247 -0.0799306 0)
(7.0579 -0.0767853 0)
(7.07272 -0.0738107 0)
(7.08695 -0.0710132 0)
(7.10064 -0.0683884 0)
(7.11381 -0.0659416 0)
(7.12652 -0.063667 0)
(7.13878 -0.0615693 0)
(7.15064 -0.0596417 0)
(7.16212 -0.0578893 0)
(7.17327 -0.0563047 0)
(7.18411 -0.0548937 0)
(7.19468 -0.0536495 0)
(7.20501 -0.0525788 0)
(7.21514 -0.0516762 0)
(7.22508 -0.0509493 0)
(7.23489 -0.0503944 0)
(7.24459 -0.0500198 0)
(7.25423 -0.0498233 0)
(7.26382 -0.0498119 0)
(7.27342 -0.0499842 0)
(7.28307 -0.0503429 0)
(7.29281 -0.0508853 0)
(7.30267 -0.0516057 0)
(7.31271 -0.052496 0)
(7.32297 -0.053537 0)
(7.33348 -0.0547109 0)
(7.34429 -0.0559796 0)
(7.35542 -0.0573099 0)
(7.36692 -0.0586411 0)
(7.37876 -0.0599201 0)
(7.39099 -0.0610623 0)
(7.40354 -0.061993 0)
(7.41641 -0.0626069 0)
(7.42951 -0.0628109 0)
(7.4428 -0.062488 0)
(7.4561 -0.0615355 0)
(7.46933 -0.0598395 0)
(7.48227 -0.0573019 0)
(7.49478 -0.0538286 0)
(7.50659 -0.0493426 0)
(7.51751 -0.0437871 0)
(7.52725 -0.0371222 0)
(7.53561 -0.0293413 0)
(7.54227 -0.0204443 0)
(7.54704 -0.0104657 0)
(7.54962 0.000558294 0)
(7.54983 0.0125391 0)
(7.54743 0.0253975 0)
(7.54225 0.039017 0)
(7.53412 0.0532922 0)
(7.52292 0.0680869 0)
(7.50856 0.0832807 0)
(7.49094 0.0987308 0)
(7.47006 0.114312 0)
(7.44588 0.129886 0)
(7.41844 0.145333 0)
(7.38776 0.160525 0)
(7.35395 0.175353 0)
(7.31707 0.18971 0)
(7.27726 0.203502 0)
(7.23463 0.216643 0)
(7.18938 0.22906 0)
(7.14161 0.240691 0)
(7.09156 0.251484 0)
(7.03937 0.261401 0)
(6.98527 0.27041 0)
(6.9294 0.278497 0)
(6.87203 0.285649 0)
(6.8133 0.291873 0)
(6.75345 0.297172 0)
(6.69262 0.30157 0)
(6.63104 0.305083 0)
(6.56885 0.307748 0)
(6.50626 0.309591 0)
(6.44341 0.310655 0)
(6.38045 0.310973 0)
(6.31754 0.310593 0)
(6.25478 0.309549 0)
(6.19245 0.307892 0)
(6.13017 0.305649 0)
(6.06974 0.302898 0)
(6.00595 0.299517 0)
(5.9568 0.296308 0)
(5.86638 0.289647 0)
(5 -0.00051062 0)
(5.00024 -0.00153163 0)
(5.00056 -0.00255233 0)
(5.00105 -0.00357472 0)
(5.0017 -0.00459926 0)
(5.00249 -0.00562648 0)
(5.00342 -0.00665703 0)
(5.0045 -0.0076918 0)
(5.00573 -0.00873176 0)
(5.0071 -0.00977808 0)
(5.00862 -0.010832 0)
(5.01029 -0.0118951 0)
(5.01212 -0.012969 0)
(5.01409 -0.0140554 0)
(5.01621 -0.0151564 0)
(5.01849 -0.016274 0)
(5.02092 -0.0174107 0)
(5.02352 -0.0185688 0)
(5.02627 -0.0197509 0)
(5.02919 -0.0209598 0)
(5.03228 -0.0221985 0)
(5.03555 -0.02347 0)
(5.03899 -0.0247775 0)
(5.04261 -0.0261243 0)
(5.04643 -0.0275138 0)
(5.05043 -0.0289497 0)
(5.05464 -0.0304357 0)
(5.05906 -0.0319755 0)
(5.06369 -0.033573 0)
(5.06855 -0.0352324 0)
(5.07365 -0.0369576 0)
(5.07898 -0.038753 0)
(5.08457 -0.0406228 0)
(5.09042 -0.0425716 0)
(5.09655 -0.0446035 0)
(5.10297 -0.0467235 0)
(5.10968 -0.0489358 0)
(5.11671 -0.0512454 0)
(5.12407 -0.0536568 0)
(5.13177 -0.0561749 0)
(5.13983 -0.0588045 0)
(5.14826 -0.0615505 0)
(5.15709 -0.0644176 0)
(5.16632 -0.0674108 0)
(5.17598 -0.0705347 0)
(5.18609 -0.0737943 0)
(5.19667 -0.077194 0)
(5.20773 -0.0807387 0)
(5.2193 -0.0844324 0)
(5.23141 -0.0882797 0)
(5.24407 -0.0922843 0)
(5.25731 -0.0964501 0)
(5.27115 -0.10078 0)
(5.28562 -0.105277 0)
(5.30074 -0.109944 0)
(5.31654 -0.114781 0)
(5.33305 -0.119789 0)
(5.3503 -0.124969 0)
(5.3683 -0.130317 0)
(5.3871 -0.135833 0)
(5.40671 -0.141509 0)
(5.42717 -0.147341 0)
(5.4485 -0.15332 0)
(5.47073 -0.159434 0)
(5.49388 -0.16567 0)
(5.51798 -0.17201 0)
(5.54304 -0.178435 0)
(5.5691 -0.184921 0)
(5.59616 -0.191439 0)
(5.62424 -0.197959 0)
(5.65333 -0.204443 0)
(5.68346 -0.210853 0)
(5.71459 -0.217144 0)
(5.74674 -0.223269 0)
(5.77986 -0.229175 0)
(5.81394 -0.234808 0)
(5.84892 -0.240115 0)
(5.88477 -0.245037 0)
(5.92142 -0.249519 0)
(5.95878 -0.253508 0)
(5.99679 -0.256952 0)
(6.03534 -0.259807 0)
(6.07433 -0.262034 0)
(6.11366 -0.263602 0)
(6.1532 -0.264489 0)
(6.19283 -0.264682 0)
(6.23244 -0.264178 0)
(6.2719 -0.262985 0)
(6.3111 -0.261119 0)
(6.34992 -0.258605 0)
(6.38825 -0.255476 0)
(6.426 -0.25177 0)
(6.46308 -0.247532 0)
(6.49939 -0.24281 0)
(6.53488 -0.237657 0)
(6.56947 -0.232125 0)
(6.60313 -0.226269 0)
(6.6358 -0.220142 0)
(6.66745 -0.213798 0)
(6.69806 -0.207288 0)
(6.72762 -0.200662 0)
(6.75612 -0.193965 0)
(6.78355 -0.187241 0)
(6.80994 -0.18053 0)
(6.83527 -0.173869 0)
(6.85959 -0.167291 0)
(6.8829 -0.160826 0)
(6.90523 -0.154499 0)
(6.92661 -0.148334 0)
(6.94707 -0.142349 0)
(6.96664 -0.136562 0)
(6.98537 -0.130985 0)
(7.00327 -0.125631 0)
(7.02041 -0.120506 0)
(7.0368 -0.115619 0)
(7.05249 -0.110974 0)
(7.06752 -0.106574 0)
(7.08192 -0.10242 0)
(7.09574 -0.0985148 0)
(7.10902 -0.0948551 0)
(7.12178 -0.0914427 0)
(7.13408 -0.0882726 0)
(7.14593 -0.085346 0)
(7.15738 -0.0826568 0)
(7.16846 -0.0802065 0)
(7.17921 -0.077989 0)
(7.18966 -0.0760071 0)
(7.19983 -0.0742558 0)
(7.20976 -0.0727396 0)
(7.21948 -0.0714563 0)
(7.22902 -0.0704125 0)
(7.23841 -0.0696098 0)
(7.24769 -0.0690561 0)
(7.25689 -0.0687577 0)
(7.26605 -0.0687214 0)
(7.27521 -0.0689573 0)
(7.28441 -0.069467 0)
(7.29371 -0.070261 0)
(7.30315 -0.0713293 0)
(7.31279 -0.0726775 0)
(7.3227 -0.0742758 0)
(7.33292 -0.0761165 0)
(7.34353 -0.0781412 0)
(7.35457 -0.0803191 0)
(7.36611 -0.0825561 0)
(7.37816 -0.0847889 0)
(7.39079 -0.0868841 0)
(7.40396 -0.0887404 0)
(7.41771 -0.0901889 0)
(7.43194 -0.0910929 0)
(7.44663 -0.0912624 0)
(7.4616 -0.0905379 0)
(7.47678 -0.0887326 0)
(7.49189 -0.0856881 0)
(7.5068 -0.0812508 0)
(7.52116 -0.0752913 0)
(7.53476 -0.0677197 0)
(7.54724 -0.058465 0)
(7.55834 -0.0475228 0)
(7.56769 -0.0348861 0)
(7.57504 -0.0206224 0)
(7.58004 -0.00476691 0)
(7.58246 0.0125198 0)
(7.58201 0.0311269 0)
(7.5785 0.0508573 0)
(7.57174 0.0715637 0)
(7.56158 0.0930202 0)
(7.54792 0.115061 0)
(7.53068 0.137452 0)
(7.50983 0.160024 0)
(7.48536 0.182553 0)
(7.45732 0.204876 0)
(7.42575 0.226793 0)
(7.39077 0.248157 0)
(7.35246 0.268798 0)
(7.31101 0.288593 0)
(7.26653 0.307408 0)
(7.21926 0.325148 0)
(7.16933 0.341717 0)
(7.11701 0.357049 0)
(7.06245 0.371088 0)
(7.00594 0.383795 0)
(6.94764 0.395152 0)
(6.88782 0.405146 0)
(6.82665 0.413791 0)
(6.7644 0.421096 0)
(6.70123 0.427101 0)
(6.63739 0.431833 0)
(6.57302 0.435352 0)
(6.50834 0.437694 0)
(6.4435 0.438935 0)
(6.37867 0.439115 0)
(6.314 0.438317 0)
(6.24959 0.436582 0)
(6.18572 0.433997 0)
(6.12201 0.430593 0)
(6.06028 0.426493 0)
(5.99522 0.421518 0)
(5.94511 0.416819 0)
(5.85318 0.407197 0)
(5 -0.000654893 0)
(5.00024 -0.00196257 0)
(5.00056 -0.00327085 0)
(5.00105 -0.00458114 0)
(5.00169 -0.00589372 0)
(5.00247 -0.00720907 0)
(5.0034 -0.00852797 0)
(5.00447 -0.00985144 0)
(5.00568 -0.0111807 0)
(5.00704 -0.0125171 0)
(5.00855 -0.0138624 0)
(5.01019 -0.0152183 0)
(5.01199 -0.016587 0)
(5.01393 -0.0179707 0)
(5.01602 -0.019372 0)
(5.01826 -0.0207937 0)
(5.02065 -0.0222387 0)
(5.02319 -0.0237101 0)
(5.02589 -0.0252115 0)
(5.02875 -0.0267463 0)
(5.03177 -0.0283183 0)
(5.03496 -0.0299316 0)
(5.03832 -0.0315902 0)
(5.04185 -0.0332984 0)
(5.04556 -0.0350608 0)
(5.04946 -0.0368819 0)
(5.05356 -0.0387666 0)
(5.05785 -0.0407198 0)
(5.06235 -0.0427465 0)
(5.06707 -0.044852 0)
(5.07201 -0.0470415 0)
(5.07718 -0.0493207 0)
(5.08259 -0.0516949 0)
(5.08826 -0.05417 0)
(5.0942 -0.0567516 0)
(5.10041 -0.0594459 0)
(5.10691 -0.0622586 0)
(5.11372 -0.065196 0)
(5.12084 -0.068264 0)
(5.1283 -0.0714692 0)
(5.1361 -0.0748175 0)
(5.14426 -0.0783155 0)
(5.15281 -0.0819693 0)
(5.16175 -0.0857856 0)
(5.17111 -0.0897705 0)
(5.18091 -0.0939304 0)
(5.19117 -0.0982715 0)
(5.2019 -0.1028 0)
(5.21313 -0.107522 0)
(5.22488 -0.112444 0)
(5.23718 -0.11757 0)
(5.25005 -0.122906 0)
(5.26352 -0.128457 0)
(5.2776 -0.134228 0)
(5.29234 -0.140221 0)
(5.30775 -0.14644 0)
(5.32387 -0.152887 0)
(5.34073 -0.159562 0)
(5.35835 -0.166465 0)
(5.37677 -0.173594 0)
(5.39602 -0.180943 0)
(5.41613 -0.188508 0)
(5.43713 -0.196277 0)
(5.45906 -0.204239 0)
(5.48195 -0.212378 0)
(5.50582 -0.220675 0)
(5.53072 -0.229103 0)
(5.55666 -0.237635 0)
(5.58368 -0.246235 0)
(5.61179 -0.254863 0)
(5.641 -0.263472 0)
(5.67134 -0.27201 0)
(5.7028 -0.280417 0)
(5.73539 -0.288629 0)
(5.76908 -0.296575 0)
(5.80385 -0.30418 0)
(5.83966 -0.311366 0)
(5.87647 -0.318052 0)
(5.91421 -0.324157 0)
(5.95279 -0.329602 0)
(5.99213 -0.334315 0)
(6.03211 -0.338227 0)
(6.07262 -0.341281 0)
(6.11352 -0.343432 0)
(6.15468 -0.344646 0)
(6.19596 -0.344907 0)
(6.2372 -0.344212 0)
(6.27826 -0.342572 0)
(6.31901 -0.340013 0)
(6.35932 -0.336574 0)
(6.39905 -0.332304 0)
(6.43809 -0.327261 0)
(6.47635 -0.321509 0)
(6.51373 -0.315119 0)
(6.55016 -0.308163 0)
(6.58558 -0.300717 0)
(6.61992 -0.292853 0)
(6.65315 -0.284646 0)
(6.68525 -0.276168 0)
(6.71619 -0.267486 0)
(6.74596 -0.258665 0)
(6.77457 -0.249767 0)
(6.80202 -0.240849 0)
(6.82833 -0.231963 0)
(6.85351 -0.223157 0)
(6.8776 -0.214475 0)
(6.90061 -0.205955 0)
(6.92259 -0.197632 0)
(6.94358 -0.189536 0)
(6.9636 -0.18169 0)
(6.9827 -0.174119 0)
(7.00093 -0.166838 0)
(7.01832 -0.159862 0)
(7.03492 -0.153202 0)
(7.05076 -0.146865 0)
(7.0659 -0.140857 0)
(7.08037 -0.13518 0)
(7.09423 -0.129834 0)
(7.10749 -0.124821 0)
(7.12022 -0.120134 0)
(7.13243 -0.115773 0)
(7.14419 -0.111731 0)
(7.15551 -0.108004 0)
(7.16644 -0.104584 0)
(7.177 -0.10147 0)
(7.18724 -0.0986503 0)
(7.19717 -0.0961268 0)
(7.20684 -0.093891 0)
(7.21626 -0.0919467 0)
(7.22546 -0.0902901 0)
(7.23447 -0.0889295 0)
(7.24333 -0.0878678 0)
(7.25205 -0.0871179 0)
(7.26067 -0.0866914 0)
(7.26923 -0.0866036 0)
(7.27777 -0.0868746 0)
(7.28633 -0.0875163 0)
(7.29498 -0.0885539 0)
(7.30377 -0.0899872 0)
(7.31279 -0.0918383 0)
(7.3221 -0.0940824 0)
(7.33179 -0.0967264 0)
(7.34197 -0.099706 0)
(7.35272 -0.102997 0)
(7.36415 -0.10648 0)
(7.37632 -0.110084 0)
(7.38933 -0.113626 0)
(7.40322 -0.11697 0)
(7.41804 -0.119876 0)
(7.43373 -0.122145 0)
(7.45031 -0.123492 0)
(7.46759 -0.123675 0)
(7.48548 -0.122406 0)
(7.5037 -0.119436 0)
(7.52205 -0.114523 0)
(7.54012 -0.107462 0)
(7.55764 -0.0981096 0)
(7.57412 -0.0863538 0)
(7.58923 -0.0721855 0)
(7.6025 -0.0556039 0)
(7.61361 -0.036713 0)
(7.62211 -0.0155713 0)
(7.6277 0.00759508 0)
(7.63006 0.032608 0)
(7.62893 0.0591777 0)
(7.62409 0.0870885 0)
(7.61539 0.116014 0)
(7.60269 0.145718 0)
(7.58592 0.175869 0)
(7.56507 0.206231 0)
(7.54013 0.23649 0)
(7.51118 0.266426 0)
(7.47828 0.295759 0)
(7.4416 0.324295 0)
(7.40123 0.351799 0)
(7.35741 0.378109 0)
(7.31029 0.403045 0)
(7.26015 0.426482 0)
(7.20716 0.448295 0)
(7.15163 0.4684 0)
(7.09375 0.486727 0)
(7.03385 0.503232 0)
(6.97211 0.517896 0)
(6.90887 0.53071 0)
(6.84431 0.541702 0)
(6.77873 0.550891 0)
(6.71231 0.558341 0)
(6.64533 0.564094 0)
(6.57794 0.568241 0)
(6.51039 0.570836 0)
(6.44281 0.571989 0)
(6.3754 0.571758 0)
(6.3083 0.570262 0)
(6.24163 0.567558 0)
(6.17565 0.563768 0)
(6.10998 0.558936 0)
(6.04646 0.553228 0)
(5.97967 0.546409 0)
(5.92821 0.540009 0)
(5.8342 0.527099 0)
(5 -0.000798205 0)
(5.00024 -0.00239074 0)
(5.00056 -0.00398451 0)
(5.00104 -0.00558028 0)
(5.00168 -0.00717802 0)
(5.00246 -0.00877808 0)
(5.00337 -0.0103812 0)
(5.00443 -0.0119886 0)
(5.00564 -0.0136014 0)
(5.00698 -0.0152215 0)
(5.00847 -0.0168506 0)
(5.01009 -0.018491 0)
(5.01186 -0.0201453 0)
(5.01377 -0.0218162 0)
(5.01582 -0.0235068 0)
(5.01801 -0.0252206 0)
(5.02035 -0.0269612 0)
(5.02283 -0.0287325 0)
(5.02546 -0.0305387 0)
(5.02825 -0.0323843 0)
(5.03118 -0.0342739 0)
(5.03428 -0.0362125 0)
(5.03753 -0.0382052 0)
(5.04095 -0.0402572 0)
(5.04454 -0.0423741 0)
(5.04831 -0.0445617 0)
(5.05226 -0.0468258 0)
(5.0564 -0.0491725 0)
(5.06073 -0.0516081 0)
(5.06527 -0.0541389 0)
(5.07002 -0.0567715 0)
(5.07499 -0.0595126 0)
(5.08019 -0.0623691 0)
(5.08564 -0.0653481 0)
(5.09133 -0.0684565 0)
(5.09729 -0.0717018 0)
(5.10353 -0.0750911 0)
(5.11005 -0.0786323 0)
(5.11688 -0.0823326 0)
(5.12403 -0.0862001 0)
(5.13151 -0.0902421 0)
(5.13934 -0.0944671 0)
(5.14754 -0.0988824 0)
(5.15612 -0.103497 0)
(5.1651 -0.108317 0)
(5.17451 -0.113352 0)
(5.18436 -0.11861 0)
(5.19467 -0.124099 0)
(5.20547 -0.129825 0)
(5.21678 -0.135799 0)
(5.22862 -0.142025 0)
(5.24102 -0.148513 0)
(5.25401 -0.155268 0)
(5.2676 -0.162298 0)
(5.28184 -0.169607 0)
(5.29675 -0.177201 0)
(5.31236 -0.185084 0)
(5.32871 -0.19326 0)
(5.34583 -0.201728 0)
(5.36375 -0.210489 0)
(5.3825 -0.21954 0)
(5.40214 -0.228876 0)
(5.42269 -0.238489 0)
(5.4442 -0.248366 0)
(5.4667 -0.258492 0)
(5.49024 -0.268845 0)
(5.51486 -0.279398 0)
(5.5406 -0.290118 0)
(5.56749 -0.300964 0)
(5.59557 -0.311889 0)
(5.62487 -0.322836 0)
(5.65542 -0.333738 0)
(5.68723 -0.34452 0)
(5.72032 -0.3551 0)
(5.75469 -0.365382 0)
(5.79031 -0.375267 0)
(5.82716 -0.384648 0)
(5.8652 -0.393411 0)
(5.90435 -0.401444 0)
(5.94453 -0.408635 0)
(5.98563 -0.414876 0)
(6.02752 -0.420069 0)
(6.07006 -0.424131 0)
(6.1131 -0.426993 0)
(6.15644 -0.428607 0)
(6.19992 -0.428947 0)
(6.24335 -0.42801 0)
(6.28657 -0.425816 0)
(6.32939 -0.422403 0)
(6.37165 -0.417829 0)
(6.41322 -0.412169 0)
(6.45396 -0.405509 0)
(6.49375 -0.397942 0)
(6.5325 -0.389571 0)
(6.57012 -0.380498 0)
(6.60656 -0.370828 0)
(6.64176 -0.360662 0)
(6.6757 -0.350098 0)
(6.70833 -0.339231 0)
(6.73967 -0.328149 0)
(6.76969 -0.316932 0)
(6.79843 -0.305656 0)
(6.82588 -0.29439 0)
(6.85208 -0.283197 0)
(6.87705 -0.272134 0)
(6.90084 -0.26125 0)
(6.92347 -0.250591 0)
(6.945 -0.240196 0)
(6.96547 -0.2301 0)
(6.98493 -0.220331 0)
(7.00342 -0.210916 0)
(7.02099 -0.201873 0)
(7.0377 -0.19322 0)
(7.0536 -0.184968 0)
(7.06873 -0.177129 0)
(7.08314 -0.169705 0)
(7.09688 -0.162702 0)
(7.11 -0.156118 0)
(7.12254 -0.149953 0)
(7.13455 -0.144201 0)
(7.14606 -0.13886 0)
(7.15711 -0.133918 0)
(7.16775 -0.129371 0)
(7.17802 -0.125205 0)
(7.18793 -0.121415 0)
(7.19752 -0.117986 0)
(7.20682 -0.114917 0)
(7.21587 -0.112191 0)
(7.22466 -0.109813 0)
(7.23324 -0.107773 0)
(7.24161 -0.106082 0)
(7.24981 -0.104741 0)
(7.25784 -0.103771 0)
(7.26574 -0.103189 0)
(7.27352 -0.103023 0)
(7.28124 -0.103307 0)
(7.28893 -0.104071 0)
(7.29666 -0.105362 0)
(7.3045 -0.1072 0)
(7.31254 -0.109638 0)
(7.32088 -0.112667 0)
(7.32965 -0.116325 0)
(7.33898 -0.120555 0)
(7.34903 -0.125353 0)
(7.35995 -0.130587 0)
(7.3719 -0.136183 0)
(7.38505 -0.141909 0)
(7.39949 -0.147592 0)
(7.41538 -0.152898 0)
(7.43271 -0.157545 0)
(7.45154 -0.161117 0)
(7.4717 -0.16325 0)
(7.49312 -0.163503 0)
(7.51546 -0.16149 0)
(7.53845 -0.156831 0)
(7.56159 -0.149205 0)
(7.58448 -0.138389 0)
(7.6065 -0.12421 0)
(7.62718 -0.106661 0)
(7.64588 -0.0857536 0)
(7.66218 -0.061661 0)
(7.67553 -0.0345055 0)
(7.6855 -0.00456477 0)
(7.69168 0.0278578 0)
(7.69379 0.062348 0)
(7.69153 0.0985941 0)
(7.68475 0.136142 0)
(7.6733 0.174662 0)
(7.65713 0.213706 0)
(7.63623 0.252956 0)
(7.61061 0.291996 0)
(7.58041 0.330534 0)
(7.5457 0.368205 0)
(7.50671 0.404755 0)
(7.46357 0.439883 0)
(7.41659 0.47338 0)
(7.36594 0.505016 0)
(7.31199 0.534635 0)
(7.25494 0.562081 0)
(7.19517 0.587254 0)
(7.13292 0.610073 0)
(7.06857 0.63049 0)
(7.00236 0.648493 0)
(6.93467 0.664083 0)
(6.86571 0.677307 0)
(6.79584 0.688204 0)
(6.72526 0.696872 0)
(6.65427 0.703373 0)
(6.58305 0.707841 0)
(6.51185 0.710355 0)
(6.44084 0.711066 0)
(6.37021 0.710062 0)
(6.3001 0.707499 0)
(6.23062 0.703462 0)
(6.16206 0.69811 0)
(6.09399 0.691503 0)
(6.02831 0.683859 0)
(5.95942 0.674878 0)
(5.90633 0.666508 0)
(5.80983 0.649907 0)
(5 -0.000940873 0)
(5.00024 -0.00281698 0)
(5.00055 -0.00469463 0)
(5.00104 -0.00657383 0)
(5.00167 -0.00845403 0)
(5.00245 -0.0103353 0)
(5.00336 -0.0122184 0)
(5.00441 -0.0141042 0)
(5.0056 -0.0159943 0)
(5.00693 -0.0178903 0)
(5.0084 -0.0197946 0)
(5.01 -0.0217097 0)
(5.01174 -0.0236385 0)
(5.01361 -0.0255844 0)
(5.01562 -0.0275511 0)
(5.01776 -0.0295426 0)
(5.02004 -0.0315634 0)
(5.02245 -0.033618 0)
(5.02501 -0.0357116 0)
(5.0277 -0.0378495 0)
(5.03054 -0.0400373 0)
(5.03353 -0.0422808 0)
(5.03666 -0.0445862 0)
(5.03995 -0.0469598 0)
(5.0434 -0.0494083 0)
(5.04701 -0.0519386 0)
(5.05079 -0.0545576 0)
(5.05474 -0.0572728 0)
(5.05888 -0.0600914 0)
(5.06321 -0.0630213 0)
(5.06773 -0.0660703 0)
(5.07246 -0.0692465 0)
(5.07741 -0.0725579 0)
(5.08258 -0.0760132 0)
(5.08799 -0.0796206 0)
(5.09365 -0.083389 0)
(5.09957 -0.0873271 0)
(5.10576 -0.0914441 0)
(5.11224 -0.0957487 0)
(5.11902 -0.100251 0)
(5.12612 -0.104959 0)
(5.13355 -0.109883 0)
(5.14132 -0.115032 0)
(5.14947 -0.120416 0)
(5.158 -0.126045 0)
(5.16693 -0.131929 0)
(5.17629 -0.138077 0)
(5.1861 -0.144499 0)
(5.19638 -0.151204 0)
(5.20714 -0.158204 0)
(5.21843 -0.165507 0)
(5.23026 -0.173123 0)
(5.24265 -0.181061 0)
(5.25565 -0.18933 0)
(5.26927 -0.197939 0)
(5.28355 -0.206896 0)
(5.29853 -0.216208 0)
(5.31424 -0.225881 0)
(5.33071 -0.235918 0)
(5.34798 -0.246325 0)
(5.3661 -0.257101 0)
(5.38511 -0.268245 0)
(5.40505 -0.279751 0)
(5.42598 -0.291611 0)
(5.44794 -0.30381 0)
(5.47099 -0.316329 0)
(5.49518 -0.329142 0)
(5.52056 -0.342214 0)
(5.54719 -0.355502 0)
(5.57513 -0.368952 0)
(5.60442 -0.382499 0)
(5.63512 -0.396064 0)
(5.66726 -0.409555 0)
(5.70088 -0.422868 0)
(5.73598 -0.435883 0)
(5.77259 -0.448465 0)
(5.81069 -0.460471 0)
(5.85022 -0.471745 0)
(5.89114 -0.482131 0)
(5.93334 -0.491467 0)
(5.9767 -0.499601 0)
(6.02108 -0.506393 0)
(6.06628 -0.511718 0)
(6.11212 -0.515481 0)
(6.15835 -0.51761 0)
(6.20476 -0.51807 0)
(6.25111 -0.516855 0)
(6.29717 -0.513995 0)
(6.34272 -0.509545 0)
(6.38756 -0.503591 0)
(6.43152 -0.496236 0)
(6.47444 -0.487602 0)
(6.51619 -0.477825 0)
(6.55666 -0.467045 0)
(6.59577 -0.455407 0)
(6.63345 -0.443055 0)
(6.66966 -0.430129 0)
(6.70439 -0.416761 0)
(6.73761 -0.403078 0)
(6.76933 -0.389193 0)
(6.79957 -0.375212 0)
(6.82834 -0.361229 0)
(6.85569 -0.347328 0)
(6.88165 -0.333583 0)
(6.90626 -0.320059 0)
(6.92957 -0.306812 0)
(6.95163 -0.293891 0)
(6.9725 -0.281337 0)
(6.99224 -0.269185 0)
(7.0109 -0.257464 0)
(7.02854 -0.246199 0)
(7.04521 -0.235407 0)
(7.06099 -0.225104 0)
(7.07592 -0.215298 0)
(7.09007 -0.206 0)
(7.10348 -0.197209 0)
(7.11622 -0.18893 0)
(7.12833 -0.181156 0)
(7.13987 -0.173886 0)