/*--------------------------------*- C++ -*----------------------------------*\
  =========                 |
  \\      /  F ield         | OpenFOAM: The Open Source CFD Toolbox
   \\    /   O peration     | Website:  https://openfoam.org
    \\  /    A nd           | Version:  10
     \\/     M anipulation  |
\*---------------------------------------------------------------------------*/
FoamFile
{
    format      ascii;
    class       volVectorField;
    location    "1.02";
    object      Ub;
}
// * * * * * * * * * * * * * * * * * * * * * * * * * * * * * * * * * * * * * //

dimensions      [0 1 -1 0 0 0 0];

internalField   nonuniform List<vector> 
12225
(
(0.00216271 -0.000438861 0)
(0.00617516 -0.000391352 0)
(0.00948811 -0.000323064 0)
(0.0120567 -0.000254957 0)
(0.0139825 -0.000197881 0)
(0.0154165 -0.000154969 0)
(0.0165045 -0.000125501 0)
(0.0173672 -0.000107546 0)
(0.0180986 -9.93144e-05 0)
(0.0187724 -9.97508e-05 0)
(0.0194507 -0.000108864 0)
(0.0201928 -0.000128164 0)
(0.0210681 -0.000161648 0)
(0.0221759 -0.000218363 0)
(0.0236897 -0.000319892 0)
(0.0259854 -0.000526975 0)
(0.0301402 -0.00106581 0)
(0.0407636 -0.00317739 0)
(0.00232342 -0.00138241 0)
(0.00662526 -0.00123071 0)
(0.0101591 -0.0010136 0)
(0.0128814 -0.000797798 0)
(0.0149081 -0.000617501 0)
(0.0164069 -0.000482308 0)
(0.0175368 -0.00038968 0)
(0.0184279 -0.000333349 0)
(0.0191809 -0.000307552 0)
(0.0198738 -0.000308868 0)
(0.0205714 -0.000337204 0)
(0.021335 -0.000397094 0)
(0.0222346 -0.000500616 0)
(0.0233676 -0.000674847 0)
(0.0248955 -0.000982841 0)
(0.0271285 -0.00159267 0)
(0.0306973 -0.00305734 0)
(0.0361363 -0.00774658 0)
(0.00244222 -0.00245538 0)
(0.00695123 -0.00218009 0)
(0.010629 -0.00178877 0)
(0.0134375 -0.00140213 0)
(0.0155092 -0.00108074 0)
(0.0170274 -0.000840808 0)
(0.0181627 -0.000677003 0)
(0.019052 -0.000577656 0)
(0.0197999 -0.000532185 0)
(0.0204862 -0.000534226 0)
(0.021176 -0.000583237 0)
(0.0219294 -0.000686533 0)
(0.0228121 -0.000863838 0)
(0.0239096 -0.00115852 0)
(0.0253483 -0.00166707 0)
(0.0273172 -0.00262375 0)
(0.0299875 -0.00466458 0)
(0.032529 -0.0096128 0)
(0.00256093 -0.00366203 0)
(0.00727069 -0.00323983 0)
(0.0110749 -0.00264527 0)
(0.0139457 -0.00206261 0)
(0.0160379 -0.00158173 0)
(0.017554 -0.00122483 0)
(0.0186764 -0.00098231 0)
(0.0195486 -0.000835691 0)
(0.0202779 -0.000768532 0)
(0.0209444 -0.000770793 0)
(0.0216121 -0.000840881 0)
(0.0223372 -0.000988129 0)
(0.0231773 -0.00123829 0)
(0.0241993 -0.00164639 0)
(0.0254825 -0.00232727 0)
(0.0270929 -0.00352832 0)
(0.0289075 -0.00578929 0)
(0.0298973 -0.0101252 0)
(0.00269454 -0.00501998 0)
(0.00762366 -0.00442034 0)
(0.0115524 -0.00358615 0)
(0.0144699 -0.00277773 0)
(0.0165625 -0.00211687 0)
(0.0180567 -0.00163019 0)
(0.0191491 -0.00130147 0)
(0.0199896 -0.00110351 0)
(0.0206873 -0.00101268 0)
(0.0213217 -0.00101428 0)
(0.0219536 -0.00110478 0)
(0.0226337 -0.00129424 0)
(0.0234084 -0.00161177 0)
(0.0243222 -0.00211748 0)
(0.0254072 -0.00292728 0)
(0.0266346 -0.00425829 0)
(0.0277526 -0.00648131 0)
(0.0279258 -0.0100053 0)
(0.00285489 -0.00655634 0)
(0.00803983 -0.00573741 0)
(0.0120987 -0.00461622 0)
(0.0150485 -0.00354563 0)
(0.0171195 -0.00268139 0)
(0.01857 -0.00205134 0)
(0.0196134 -0.00162907 0)
(0.0204061 -0.00137604 0)
(0.0210582 -0.00125966 0)
(0.0216472 -0.00125937 0)
(0.0222295 -0.00136849 0)
(0.0228482 -0.00159606 0)
(0.0235373 -0.00197118 0)
(0.0243185 -0.00255187 0)
(0.0251848 -0.00344021 0)
(0.0260511 -0.00479895 0)
(0.0266478 -0.00683409 0)
(0.0264002 -0.00960815 0)
(0.00305534 -0.00830958 0)
(0.0085509 -0.00721212 0)
(0.0127498 -0.00574062 0)
(0.0157143 -0.00436244 0)
(0.0177369 -0.00326788 0)
(0.0191175 -0.00248026 0)
(0.0200894 -0.00195757 0)
(0.0208157 -0.00164636 0)
(0.0214065 -0.00150291 0)
(0.0219358 -0.00149925 0)
(0.0224541 -0.00162413 0)
(0.0229962 -0.00188354 0)
(0.0235829 -0.00230301 0)
(0.0242163 -0.00293213 0)
(0.0248624 -0.00384955 0)
(0.0254146 -0.00515828 0)
(0.0256415 -0.00693953 0)
(0.0251858 -0.0090998 0)
(0.0033137 -0.0103341 0)
(0.00919718 -0.00887161 0)
(0.0135479 -0.00696329 0)
(0.016502 -0.00522031 0)
(0.0184408 -0.00386469 0)
(0.0197185 -0.00290521 0)
(0.0205918 -0.00227642 0)
(0.0212301 -0.00190517 0)
(0.021742 -0.00173386 0)
(0.0221962 -0.0017254 0)
(0.0226364 -0.00186239 0)
(0.023088 -0.00214571 0)
(0.0235599 -0.00259417 0)
(0.0240393 -0.00324452 0)
(0.0244782 -0.00414841 0)
(0.0247723 -0.00535659 0)
(0.0247467 -0.00687173 0)
(0.0241963 -0.00855418 0)
(0.00365602 -0.0127082 0)
(0.0100349 -0.01075 0)
(0.0145472 -0.00828453 0)
(0.0174519 -0.00610457 0)
(0.0192584 -0.00445365 0)
(0.0203908 -0.0033093 0)
(0.0211325 -0.00257117 0)
(0.0216578 -0.00214017 0)
(0.0220711 -0.00194163 0)
(0.0224343 -0.00192747 0)
(0.0227825 -0.00207263 0)
(0.023132 -0.00237111 0)
(0.0234815 -0.00283277 0)
(0.0238088 -0.00347952 0)
(0.0240621 -0.00433745 0)
(0.0241525 -0.00541847 0)
(0.0239596 -0.00668469 0)
(0.0233743 -0.00800209 0)
(0.00412271 -0.0155478 0)
(0.0111474 -0.0128889 0)
(0.0158207 -0.00969613 0)
(0.0186129 -0.00698902 0)
(0.0202188 -0.00500692 0)
(0.0211512 -0.0036685 0)
(0.0217211 -0.0028223 0)
(0.0221044 -0.00233544 0)
(0.0223979 -0.00211267 0)
(0.0226536 -0.00209322 0)
(0.0228972 -0.00224312 0)
(0.0231358 -0.00254832 0)
(0.0233602 -0.00300869 0)
(0.0235431 -0.00363162 0)
(0.0236364 -0.0044223 0)
(0.0235711 -0.00536783 0)
(0.02327 -0.00641528 0)
(0.0226808 -0.00745476 0)
(0.00477991 -0.019031 0)
(0.0126633 -0.0153357 0)
(0.0174707 -0.0111719 0)
(0.0200456 -0.00782823 0)
(0.0213532 -0.00548234 0)
(0.0220143 -0.00394921 0)
(0.0223641 -0.003004 0)
(0.0225728 -0.00247089 0)
(0.0227239 -0.00223068 0)
(0.0228563 -0.00220863 0)
(0.0229843 -0.00236136 0)
(0.0231063 -0.00266638 0)
(0.0232068 -0.00311387 0)
(0.0232575 -0.00369871 0)
(0.0232169 -0.00441116 0)
(0.0230349 -0.00522524 0)
(0.0226655 -0.00608752 0)
(0.0220874 -0.00691475 0)
(0.00567291 -0.0230214 0)
(0.0146409 -0.0178905 0)
(0.0194944 -0.0125381 0)
(0.0217089 -0.00850224 0)
(0.0226125 -0.00580415 0)
(0.0229381 -0.00410418 0)
(0.0230315 -0.00308559 0)
(0.0230453 -0.00252491 0)
(0.0230429 -0.00227881 0)
(0.023047 -0.00225958 0)
(0.0230598 -0.00241541 0)
(0.023071 -0.00271665 0)
(0.023061 -0.00314566 0)
(0.0230019 -0.00368841 0)
(0.0228591 -0.00432634 0)
(0.0225965 -0.00502863 0)
(0.0221869 -0.00574753 0)
(0.0216235 -0.00642129 0)
(0.00692202 -0.0281465 0)
(0.0172753 -0.0207232 0)
(0.021991 -0.0137757 0)
(0.0236246 -0.00895431 0)
(0.0239796 -0.00592208 0)
(0.023889 -0.00409631 0)
(0.0236829 -0.00304095 0)
(0.023479 -0.00247929 0)
(0.0233114 -0.00224448 0)
(0.0231817 -0.00223758 0)
(0.0230784 -0.00240013 0)
(0.0229827 -0.00269699 0)
(0.0228714 -0.00310496 0)
(0.0227175 -0.00360438 0)
(0.0224926 -0.00417251 0)
(0.0221716 -0.00477867 0)
(0.0217391 -0.00538289 0)
(0.0211956 -0.00593997 0)
(0.00917386 -0.0361592 0)
(0.0217221 -0.0242064 0)
(0.0257818 -0.0148021 0)
(0.0262941 -0.00903356 0)
(0.0257634 -0.00570917 0)
(0.0250673 -0.00383192 0)
(0.0244551 -0.00280271 0)
(0.0239705 -0.0022854 0)
(0.0235981 -0.00209207 0)
(0.0233087 -0.00211596 0)
(0.023072 -0.00229479 0)
(0.0228592 -0.00259023 0)
(0.0226428 -0.00297579 0)
(0.0223967 -0.003429 0)
(0.022098 -0.00392626 0)
(0.0217296 -0.00444019 0)
(0.0212833 -0.00493984 0)
(0.020763 -0.00539409 0)
(0.0137733 -0.0501613 0)
(0.0299691 -0.0277685 0)
(0.0317229 -0.0147372 0)
(0.0299803 -0.00814271 0)
(0.0280113 -0.00480294 0)
(0.0264538 -0.00308831 0)
(0.0253124 -0.00222684 0)
(0.0244838 -0.00184386 0)
(0.0238717 -0.00174824 0)
(0.0234026 -0.00183715 0)
(0.0230221 -0.00205189 0)
(0.0226889 -0.00235612 0)
(0.0223701 -0.00272424 0)
(0.0220401 -0.00313479 0)
(0.0216794 -0.00356688 0)
(0.0212754 -0.0039988 0)
(0.020824 -0.00440871 0)
(0.0203286 -0.00477677 0)
(0.0249451 -0.0791978 0)
(0.0473394 -0.0273093 0)
(0.0410277 -0.0110049 0)
(0.0347122 -0.00504713 0)
(0.0305371 -0.00259785 0)
(0.0278681 -0.00154138 0)
(0.0261156 -0.00112181 0)
(0.0249176 -0.0010302 0)
(0.0240604 -0.00112486 0)
(0.0234142 -0.00133403 0)
(0.0228964 -0.00161761 0)
(0.0224519 -0.00195049 0)
(0.0220426 -0.00231437 0)
(0.0216422 -0.00269362 0)
(0.0212331 -0.00307344 0)
(0.0208052 -0.00343946 0)
(0.0203551 -0.00377835 0)
(0.0198849 -0.00407904 0)
(0.0593714 0.00073114 0)
(0.0908971 0.00312445 0)
(0.0532619 0.00261922 0)
(0.0391351 0.0020348 0)
(0.0325111 0.00154071 0)
(0.0288646 0.00109703 0)
(0.0266241 0.000676413 0)
(0.0251336 0.000266415 0)
(0.0240761 -0.000138424 0)
(0.02328 -0.000539772 0)
(0.0226429 -0.000935396 0)
(0.0221011 -0.00132618 0)
(0.0216148 -0.00170824 0)
(0.0211579 -0.00207638 0)
(0.0207138 -0.00242465 0)
(0.0202728 -0.0027469 0)
(0.019831 -0.00303749 0)
(0.019388 -0.00329205 0)
(0.0205066 0.0762303 0)
(0.0405586 0.031991 0)
(0.037461 0.0163847 0)
(0.0327063 0.00964148 0)
(0.0291389 0.00618719 0)
(0.0266887 0.00415327 0)
(0.0249963 0.00281111 0)
(0.0237886 0.0018396 0)
(0.0228891 0.00108293 0)
(0.0221866 0.000460197 0)
(0.0216112 -7.11515e-05 0)
(0.0211169 -0.000537856 0)
(0.0206707 -0.00095174 0)
(0.0202518 -0.00132407 0)
(0.0198488 -0.00165823 0)
(0.0194551 -0.00195569 0)
(0.0190677 -0.00221713 0)
(0.0186859 -0.0024432 0)
(0.00783729 0.040436 0)
(0.0187635 0.0278657 0)
(0.0226593 0.018504 0)
(0.0234335 0.0125099 0)
(0.0231181 0.00868248 0)
(0.0225126 0.0061494 0)
(0.0218924 0.00439318 0)
(0.0213346 0.00311683 0)
(0.020848 0.00214793 0)
(0.0204206 0.00138395 0)
(0.0200368 0.000762316 0)
(0.0196831 0.000245161 0)
(0.0193509 -0.000190593 0)
(0.0190329 -0.000563361 0)
(0.0187225 -0.000884255 0)
(0.0184169 -0.00116171 0)
(0.0181151 -0.00140068 0)
(0.0178174 -0.00160505 0)
(0.004268 0.0245117 0)
(0.0112086 0.0202184 0)
(0.0153097 0.0155634 0)
(0.0174364 0.0116996 0)
(0.0184457 0.00874921 0)
(0.0188709 0.00654618 0)
(0.0189993 0.00489551 0)
(0.0189768 0.00364005 0)
(0.0188755 0.0026662 0)
(0.0187308 0.00189503 0)
(0.0185598 0.00127238 0)
(0.0183713 0.000761101 0)
(0.01817 0.00033544 0)
(0.0179598 -2.09218e-05 0)
(0.0177436 -0.000320609 0)
(0.0175225 -0.000574483 0)
(0.0172977 -0.000790646 0)
(0.0170713 -0.000974293 0)
(0.00293506 0.0172461 0)
(0.00805306 0.0151396 0)
(0.0116824 0.0124455 0)
(0.0140354 0.0098925 0)
(0.0154952 0.00773558 0)
(0.0163794 0.00599896 0)
(0.0169027 0.0046248 0)
(0.0171991 0.00353922 0)
(0.0173496 0.00267603 0)
(0.0174032 0.0019825 0)
(0.0173901 0.00141874 0)
(0.0173292 0.000955258 0)
(0.0172334 0.000570387 0)
(0.0171115 0.000248248 0)
(0.0169706 -2.2016e-05 0)
(0.0168163 -0.00024855 0)
(0.016652 -0.000440013 0)
(0.0164806 -0.000602308 0)
(0.00227175 0.0126858 0)
(0.00637934 0.0114796 0)
(0.00957029 0.00979192 0)
(0.0118786 0.00805829 0)
(0.0134862 0.00649306 0)
(0.0145841 0.00516499 0)
(0.0153245 0.00407102 0)
(0.0158162 0.00318065 0)
(0.0161334 0.00245747 0)
(0.0163265 0.00186803 0)
(0.0164296 0.00138458 0)
(0.0164661 0.00098516 0)
(0.0164527 0.000652833 0)
(0.0164016 0.000374623 0)
(0.0163219 0.000140602 0)
(0.0162212 -5.59972e-05 0)
(0.0161052 -0.000220731 0)
(0.0159776 -0.000360228 0)
(0.00189483 0.00951291 0)
(0.00539157 0.00875418 0)
(0.00825119 0.00763486 0)
(0.0104539 0.00642502 0)
(0.0120914 0.0052834 0)
(0.013284 0.0042789 0)
(0.0141412 0.00342723 0)
(0.0147496 0.00271843 0)
(0.015174 0.00213304 0)
(0.0154618 0.00165013 0)
(0.0156469 0.00125075 0)
(0.0157545 0.000919012 0)
(0.0158028 0.00064209 0)
(0.0158057 0.000409844 0)
(0.0157737 0.000214303 0)
(0.015715 4.91956e-05 0)
(0.0156366 -8.91322e-05 0)
(0.0155435 -0.000205672 0)
(0.00165992 0.00715739 0)
(0.00476109 0.00665371 0)
(0.00737744 0.00588517 0)
(0.00947246 0.00502644 0)
(0.0110944 0.00419165 0)
(0.0123235 0.00343838 0)
(0.0132413 0.00278641 0)
(0.0139182 0.00223489 0)
(0.0144102 0.00177361 0)
(0.0147607 0.00138947 0)
(0.0150026 0.00106958 0)
(0.0151607 0.000802565 0)
(0.015254 0.000578934 0)
(0.0152971 0.000390962 0)
(0.0153011 0.000232457 0)
(0.0152749 9.84655e-05 0)
(0.0152257 -1.46424e-05 0)
(0.0151593 -0.000109346 0)
(0.00150286 0.00533293 0)
(0.00433253 0.00499002 0)
(0.00676759 0.0044547 0)
(0.00876683 0.00384313 0)
(0.0103561 0.00323644 0)
(0.0115921 0.0026793 0)
(0.0125383 0.00219 0)
(0.0132534 0.00177115 0)
(0.0137867 0.00141755 0)
(0.0141778 0.00112095 0)
(0.014458 0.00087259 0)
(0.0146514 0.000664446 0)
(0.0147771 0.000489601 0)
(0.0148496 0.000342318 0)
(0.0148806 0.000217924 0)
(0.0148792 0.000112641 0)
(0.0148525 2.34211e-05 0)
(0.0148068 -5.14207e-05 0)
(0.00139107 0.00387929 0)
(0.00402362 0.00364567 0)
(0.00631863 0.00327501 0)
(0.00823431 0.00284511 0)
(0.00978427 0.00241267 0)
(0.0110109 0.00201067 0)
(0.0119661 0.00165397 0)
(0.0127 0.00134602 0)
(0.0132568 0.00108425 0)
(0.013673 0.000863468 0)
(0.0139781 0.000677815 0)
(0.0141956 0.000521709 0)
(0.014344 0.000390243 0)
(0.0144379 0.000279285 0)
(0.0144888 0.000185425 0)
(0.014506 0.000105881 0)
(0.0144969 3.83809e-05 0)
(0.0144674 -1.85906e-05 0)
(0.00130588 0.00269941 0)
(0.00378564 0.00254444 0)
(0.00596622 0.00229562 0)
(0.00780664 0.00200402 0)
(0.00931363 0.00170787 0)
(0.0105207 0.00143025 0)
(0.0114716 0.00118212 0)
(0.0122109 0.000966588 0)
(0.0127785 0.000782457 0)
(0.0132085 0.000626521 0)
(0.0135288 0.000494959 0)
(0.0137618 0.00038404 0)
(0.0139257 0.000290428 0)
(0.0140347 0.000211281 0)
(0.0141003 0.000144233 0)
(0.0141315 8.73418e-05 0)
(0.0141358 3.90123e-05 0)
(0.014119 -1.98352e-06 0)
(0.00123472 0.00173115 0)
(0.00358475 0.00163517 0)
(0.0056633 0.00147969 0)
(0.00743075 0.00129615 0)
(0.00888984 0.00110855 0)
(0.0100683 0.000931648 0)
(0.0110045 0.000772735 0)
(0.0117383 0.000634103 0)
(0.0123068 0.000515228 0)
(0.0127416 0.000414241 0)
(0.0130691 0.000328817 0)
(0.0133109 0.000256637 0)
(0.0134844 0.000195607 0)
(0.0136035 0.000143926 0)
(0.0136794 0.000100086 0)
(0.0137209 6.2841e-05 0)
(0.0137353 3.11667e-05 0)
(0.0137285 4.21744e-06 0)
(0.00116545 0.000933909 0)
(0.00338709 0.000883395 0)
(0.00535981 0.000801008 0)
(0.00704571 0.000703277 0)
(0.00844524 0.00060294 0)
(0.00958212 0.000507957 0)
(0.0104906 0.000422332 0)
(0.011207 0.000347403 0)
(0.0117655 0.000282978 0)
(0.0121956 0.000228117 0)
(0.0125222 0.000181613 0)
(0.0127657 0.000142247 0)
(0.0129428 0.000108907 0)
(0.0130667 8.06331e-05 0)
(0.0131483 5.66168e-05 0)
(0.0131961 3.61885e-05 0)
(0.0132172 1.87941e-05 0)
(0.0132172 3.96889e-06 0)
(0.00106286 0.000287011 0)
(0.00309073 0.000271706 0)
(0.00489506 0.000246637 0)
(0.00644071 0.000216814 0)
(0.0077268 0.00018612 0)
(0.00877363 0.000156998 0)
(0.00961139 0.000130691 0)
(0.0102726 0.000107628 0)
(0.0107879 8.77642e-05 0)
(0.0111843 7.08237e-05 0)
(0.0114844 5.64438e-05 0)
(0.0117071 4.42555e-05 0)
(0.0118676 3.39209e-05 0)
(0.0119783 2.5147e-05 0)
(0.0120491 1.76866e-05 0)
(0.0120882 1.13345e-05 0)
(0.0121022 5.92035e-06 0)
(0.0120962 1.30076e-06 0)
(7.09317e-34 -1.67778e-33 -2.16764e-59)
(2.13347e-33 -1.67513e-33 2.16254e-59)
(3.56585e-33 -1.67045e-33 0)
(5.0045e-33 -1.66367e-33 0)
(6.44739e-33 -1.65471e-33 0)
(7.89234e-33 -1.6435e-33 -2.11485e-59)
(9.33705e-33 -1.62997e-33 0)
(1.07791e-32 -1.61406e-33 0)
(1.2216e-32 -1.59574e-33 0)
(1.36451e-32 -1.575e-33 0)
(1.50638e-32 -1.55186e-33 1.98795e-59)
(1.64694e-32 -1.52638e-33 0)
(1.78591e-32 -1.49867e-33 0)
(1.92306e-32 -1.46885e-33 0)
(2.05811e-32 -1.43709e-33 0)
(2.19083e-32 -1.4036e-33 1.78825e-59)
(2.32102e-32 -1.36858e-33 0)
(2.44845e-32 -1.33229e-33 0)
(2.57296e-32 -1.29495e-33 0)
(2.69439e-32 -1.25683e-33 0)
(2.8126e-32 -1.21818e-33 0)
(2.9275e-32 -1.17923e-33 0)
(3.03899e-32 -1.14021e-33 0)
(3.14702e-32 -1.10134e-33 1.3863e-59)
(3.25155e-32 -1.06281e-33 -1.33526e-59)
(3.35256e-32 -1.02479e-33 1.28493e-59)
(3.45006e-32 -9.87437e-34 1.2355e-59)
(3.54407e-32 -9.50878e-34 0)
(3.63462e-32 -9.15223e-34 0)
(3.72177e-32 -8.80558e-34 -1.09416e-59)
(3.80556e-32 -8.46954e-34 -1.04974e-59)
(3.88608e-32 -8.14462e-34 0)
(3.96339e-32 -7.83117e-34 0)
(4.03759e-32 -7.52944e-34 -9.25495e-60)
(4.10875e-32 -7.23952e-34 0)
(4.17697e-32 -6.96141e-34 0)
(4.24235e-32 -6.69503e-34 8.15233e-60)
(4.30498e-32 -6.44022e-34 0)
(4.36495e-32 -6.19675e-34 7.49383e-60)
(4.42237e-32 -5.96435e-34 1.43734e-59)
(4.47732e-32 -5.74272e-34 0)
(4.5299e-32 -5.53152e-34 0)
(4.5802e-32 -5.33039e-34 0)
(4.62832e-32 -5.13895e-34 0)
(4.67433e-32 -4.95683e-34 0)
(4.71833e-32 -4.78364e-34 1.12514e-59)
(4.76039e-32 -4.61898e-34 1.08159e-59)
(4.8006e-32 -4.4625e-34 1.04019e-59)
(4.83904e-32 -4.3138e-34 0)
(4.87577e-32 -4.17252e-34 -9.63459e-60)
(4.91086e-32 -4.03832e-34 0)
(4.94439e-32 -3.91084e-34 8.94195e-60)
(4.97642e-32 -3.78976e-34 8.62139e-60)
(5.00702e-32 -3.67476e-34 0)
(5.03624e-32 -3.56555e-34 0)
(5.06414e-32 -3.46182e-34 0)
(5.09077e-32 -3.36331e-34 7.49207e-60)
(5.1162e-32 -3.26976e-34 0)
(5.14046e-32 -3.18091e-34 0)
(5.16361e-32 -3.09654e-34 0)
(5.1857e-32 -3.01641e-34 0)
(5.20677e-32 -2.94033e-34 0)
(5.22686e-32 -2.86808e-34 0)
(5.24601e-32 -2.79948e-34 0)
(5.26426e-32 -2.73435e-34 0)
(5.28166e-32 -2.67252e-34 -5.66135e-60)
(5.29823e-32 -2.61383e-34 0)
(5.314e-32 -2.55812e-34 0)
(5.32903e-32 -2.50526e-34 5.21781e-60)
(5.34333e-32 -2.4551e-34 5.08475e-60)
(5.35693e-32 -2.40751e-34 0)
(5.36987e-32 -2.36238e-34 -4.83882e-60)
(5.38217e-32 -2.31958e-34 4.72527e-60)
(5.39387e-32 -2.279e-34 0)
(5.40498e-32 -2.24053e-34 -4.51555e-60)
(5.41554e-32 -2.20408e-34 0)
(5.42556e-32 -2.16955e-34 0)
(5.43507e-32 -2.13685e-34 4.24044e-60)
(5.4441e-32 -2.10588e-34 0)
(5.45266e-32 -2.07657e-34 -4.08048e-60)
(5.46077e-32 -2.04884e-34 0)
(5.46846e-32 -2.02261e-34 3.93724e-60)
(5.47575e-32 -1.9978e-34 3.87141e-60)
(5.48264e-32 -1.97436e-34 3.80918e-60)
(5.48917e-32 -1.95221e-34 7.50077e-60)
(5.49534e-32 -1.93128e-34 -7.38967e-60)
(5.50118e-32 -1.91153e-34 0)
(5.5067e-32 -1.89289e-34 0)
(5.51192e-32 -1.8753e-34 0)
(5.51684e-32 -1.85872e-34 -7.00441e-60)
(5.52149e-32 -1.8431e-34 -6.92141e-60)
(5.52587e-32 -1.82837e-34 6.84323e-60)
(5.53e-32 -1.81451e-34 0)
(5.5339e-32 -1.80146e-34 -6.7003e-60)
(5.53757e-32 -1.78918e-34 -6.63507e-60)
(5.54103e-32 -1.77764e-34 -6.57376e-60)
(5.54428e-32 -1.76679e-34 0)
(5.54734e-32 -1.75659e-34 0)
(5.55021e-32 -1.74702e-34 0)
(5.55292e-32 -1.73804e-34 -6.36343e-60)
(5.55545e-32 -1.72961e-34 0)
(5.55784e-32 -1.72172e-34 0)
(5.56007e-32 -1.71432e-34 6.23743e-60)
(5.56217e-32 -1.70738e-34 0)
(5.56413e-32 -1.7009e-34 0)
(5.56597e-32 -1.69483e-34 6.13388e-60)
(5.56769e-32 -1.68915e-34 0)
(5.5693e-32 -1.68385e-34 0)
(5.57081e-32 -1.6789e-34 -6.04925e-60)
(5.57221e-32 -1.67428e-34 -6.02469e-60)
(5.57353e-32 -1.66997e-34 0)
(5.57475e-32 -1.66595e-34 5.9804e-60)
(5.5759e-32 -1.6622e-34 0)
(5.57697e-32 -1.65871e-34 -5.94198e-60)
(5.57796e-32 -1.65547e-34 0)
(5.57889e-32 -1.65245e-34 -5.90867e-60)
(5.57975e-32 -1.64964e-34 -5.89379e-60)
(5.58055e-32 -1.64704e-34 0)
(5.58129e-32 -1.64462e-34 0)
(5.58198e-32 -1.64237e-34 0)
(5.58263e-32 -1.64029e-34 0)
(5.58322e-32 -1.63836e-34 0)
(5.58377e-32 -1.63657e-34 0)
(5.58429e-32 -1.63492e-34 0)
(5.58476e-32 -1.63339e-34 -5.80736e-60)
(5.5852e-32 -1.63197e-34 5.79987e-60)
(5.5856e-32 -1.63067e-34 0)
(5.58598e-32 -1.62946e-34 0)
(5.58632e-32 -1.62835e-34 0)
(5.58664e-32 -1.62732e-34 0)
(5.58694e-32 -1.62638e-34 1.15402e-59)
(5.58721e-32 -1.6255e-34 0)
(5.58745e-32 -1.6247e-34 -1.15224e-59)
(5.58768e-32 -1.62396e-34 1.15145e-59)
(5.58789e-32 -1.62328e-34 0)
(5.58809e-32 -1.62265e-34 0)
(5.58826e-32 -1.62207e-34 0)
(5.58842e-32 -1.62154e-34 -1.14887e-59)
(5.58857e-32 -1.62104e-34 -1.14835e-59)
(5.58871e-32 -1.62059e-34 0)
(5.58883e-32 -1.62016e-34 -1.14741e-59)
(5.58894e-32 -1.61976e-34 -1.14699e-59)
(5.58904e-32 -1.61939e-34 1.1466e-59)
(5.58913e-32 -1.61904e-34 0)
(5.5892e-32 -1.6187e-34 0)
(5.58927e-32 -1.61837e-34 1.14552e-59)
(5.58933e-32 -1.61805e-34 0)
(5.58938e-32 -1.61773e-34 0)
(5.58941e-32 -1.61739e-34 0)
(5.58944e-32 -1.61704e-34 0)
(5.58946e-32 -1.61667e-34 -1.14374e-59)
(5.58946e-32 -1.61626e-34 -1.14332e-59)
(5.58944e-32 -1.61579e-34 0)
(5.58941e-32 -1.61525e-34 -1.14228e-59)
(5.58936e-32 -1.61462e-34 0)
(5.58928e-32 -1.61387e-34 0)
(5.58917e-32 -1.61296e-34 -1.13993e-59)
(5.58903e-32 -1.61185e-34 0)
(5.58883e-32 -1.61048e-34 -1.1374e-59)
(5.58858e-32 -1.60878e-34 0)
(5.58826e-32 -1.60666e-34 0)
(5.58784e-32 -1.60399e-34 -1.13079e-59)
(5.5873e-32 -1.60063e-34 0)
(5.58662e-32 -1.59637e-34 -1.12302e-59)
(5.58574e-32 -1.59094e-34 0)
(5.58461e-32 -1.58399e-34 0)
(5.58315e-32 -1.57506e-34 0)
(5.58127e-32 -1.5635e-34 1.08954e-59)
(5.57885e-32 -1.54845e-34 0)
(5.57569e-32 -1.52868e-34 -1.05406e-59)
(5.57156e-32 -1.50244e-34 0)
(5.56611e-32 -1.46718e-34 0)
(5.55887e-32 -1.41895e-34 0)
(5.54913e-32 -1.35146e-34 0)
(5.53577e-32 -1.25399e-34 0)
(5.51702e-32 -1.10658e-34 0)
(5.48971e-32 -8.67604e-35 0)
(5.44737e-32 -4.33756e-35 -1.31883e-60)
(5.37375e-32 5.26126e-35 0)
(5.2106e-32 3.53592e-34 0)
(7.13524e-34 -4.71904e-33 6.09667e-59)
(2.14615e-33 -4.71114e-33 -6.08138e-59)
(3.5871e-33 -4.69717e-33 0)
(5.03449e-33 -4.67692e-33 1.20658e-58)
(6.48627e-33 -4.65015e-33 0)
(7.94027e-33 -4.6166e-33 -5.95744e-59)
(9.39415e-33 -4.57603e-33 -1.17844e-58)
(1.08454e-32 -4.52825e-33 -1.1654e-58)
(1.22915e-32 -4.47311e-33 0)
(1.37295e-32 -4.41057e-33 -1.13362e-58)
(1.51569e-32 -4.34071e-33 5.59234e-59)
(1.65706e-32 -4.2637e-33 0)
(1.7968e-32 -4.17987e-33 0)
(1.93463e-32 -4.08963e-33 0)
(2.0703e-32 -3.9935e-33 0)
(2.20354e-32 -3.89211e-33 5.00442e-59)
(2.33415e-32 -3.78613e-33 0)
(2.46191e-32 -3.6763e-33 9.38674e-59)
(2.58665e-32 -3.56338e-33 0)
(2.70822e-32 -3.44814e-33 0)
(2.82648e-32 -3.33136e-33 -8.47789e-59)
(2.94133e-32 -3.21376e-33 0)
(3.0527e-32 -3.09604e-33 7.85893e-59)
(3.16053e-32 -2.97885e-33 3.81277e-59)
(3.26481e-32 -2.86277e-33 -3.6615e-59)
(3.36551e-32 -2.74831e-33 3.51238e-59)
(3.46266e-32 -2.63592e-33 3.36598e-59)
(3.55628e-32 -2.526e-33 0)
(3.64642e-32 -2.41885e-33 0)
(3.73313e-32 -2.31474e-33 -2.94767e-59)
(3.81647e-32 -2.21387e-33 -8.35879e-59)
(3.89653e-32 -2.11637e-33 0)
(3.97338e-32 -2.02236e-33 0)
(4.04711e-32 -1.9319e-33 -2.44914e-59)
(4.11782e-32 -1.845e-33 0)
(4.18559e-32 -1.76167e-33 0)
(4.25054e-32 -1.68187e-33 2.12359e-59)
(4.31274e-32 -1.60556e-33 0)
(4.3723e-32 -1.53265e-33 5.68465e-59)
(4.42932e-32 -1.46308e-33 3.67739e-59)
(4.48389e-32 -1.39673e-33 0)
(4.53611e-32 -1.33352e-33 0)
(4.58607e-32 -1.27332e-33 -6.14983e-59)
(4.63385e-32 -1.21604e-33 -5.84914e-59)
(4.67955e-32 -1.16154e-33 -5.56307e-59)
(4.72325e-32 -1.10971e-33 8.04803e-59)
(4.76503e-32 -1.06044e-33 2.62868e-59)
(4.80497e-32 -1.01362e-33 -2.27981e-59)
(4.84315e-32 -9.69127e-34 4.55289e-59)
(4.87964e-32 -9.26855e-34 -2.28066e-59)
(4.91451e-32 -8.86697e-34 0)
(4.94783e-32 -8.48552e-34 2.07664e-59)
(4.97966e-32 -8.12321e-34 5.71156e-59)
(5.01007e-32 -7.77909e-34 0)
(5.03911e-32 -7.45225e-34 0)
(5.06684e-32 -7.14183e-34 0)
(5.09332e-32 -6.84702e-34 1.64966e-59)
(5.1186e-32 -6.56702e-34 0)
(5.14272e-32 -6.30111e-34 2.77193e-59)
(5.16574e-32 -6.04856e-34 0)
(5.18771e-32 -5.80873e-34 2.51313e-59)
(5.20866e-32 -5.58098e-34 0)
(5.22863e-32 -5.3647e-34 -2.27971e-59)
(5.24768e-32 -5.15934e-34 0)
(5.26584e-32 -4.96436e-34 2.06922e-59)
(5.28314e-32 -4.77925e-34 -3.08256e-59)
(5.29962e-32 -4.60353e-34 0)
(5.31532e-32 -4.43674e-34 -1.79178e-59)
(5.33026e-32 -4.27846e-34 9.80112e-60)
(5.34449e-32 -4.12826e-34 9.4095e-60)
(5.35802e-32 -3.98578e-34 0)
(5.3709e-32 -3.85062e-34 -2.35207e-59)
(5.38314e-32 -3.72245e-34 8.35138e-60)
(5.39478e-32 -3.60093e-34 0)
(5.40583e-32 -3.48574e-34 -7.73414e-60)
(5.41634e-32 -3.37658e-34 -1.23415e-59)
(5.42631e-32 -3.27317e-34 0)
(5.43578e-32 -3.17523e-34 6.92442e-60)
(5.44476e-32 -3.08249e-34 0)
(5.45328e-32 -2.99471e-34 3.87867e-60)
(5.46135e-32 -2.91165e-34 0)
(5.46901e-32 -2.83308e-34 -3.44975e-60)
(5.47626e-32 -2.7588e-34 5.83841e-60)
(5.48312e-32 -2.68858e-34 1.43768e-59)
(5.48962e-32 -2.62223e-34 2.77092e-59)
(5.49577e-32 -2.55956e-34 -2.67227e-59)
(5.50158e-32 -2.5004e-34 0)
(5.50707e-32 -2.44456e-34 0)
(5.51226e-32 -2.39189e-34 0)
(5.51716e-32 -2.34223e-34 4.29361e-60)
(5.52179e-32 -2.29541e-34 -9.2597e-60)
(5.52615e-32 -2.25131e-34 9.02965e-60)
(5.53027e-32 -2.20978e-34 0)
(5.53415e-32 -2.17069e-34 -2.0601e-59)
(5.5378e-32 -2.13392e-34 -8.41722e-60)
(5.54124e-32 -2.09934e-34 -8.23682e-60)
(5.54448e-32 -2.06684e-34 0)
(5.54752e-32 -2.0363e-34 0)
(5.55039e-32 -2.00763e-34 0)
(5.55308e-32 -1.98073e-34 -7.61802e-60)
(5.5556e-32 -1.95549e-34 0)
(5.55797e-32 -1.93183e-34 -9.47707e-60)
(5.5602e-32 -1.90966e-34 -1.99635e-60)
(5.56228e-32 -1.8889e-34 9.02497e-60)
(5.56424e-32 -1.86946e-34 0)
(5.56607e-32 -1.85128e-34 1.55716e-59)
(5.56778e-32 -1.83429e-34 0)
(5.56939e-32 -1.8184e-34 8.28266e-60)
(5.57089e-32 -1.80357e-34 -1.48202e-59)
(5.57229e-32 -1.78972e-34 -1.46021e-59)
(5.5736e-32 -1.77681e-34 0)
(5.57482e-32 -1.76476e-34 -1.22656e-60)
(5.57596e-32 -1.75354e-34 7.59969e-60)
(5.57702e-32 -1.7431e-34 -6.3782e-60)
(5.57801e-32 -1.73337e-34 0)
(5.57893e-32 -1.72433e-34 -6.28026e-60)
(5.57979e-32 -1.71592e-34 9.66967e-61)
(5.58059e-32 -1.70811e-34 0)
(5.58133e-32 -1.70086e-34 7.04481e-60)
(5.58202e-32 -1.69414e-34 6.97393e-60)
(5.58266e-32 -1.6879e-34 6.90824e-60)
(5.58325e-32 -1.68212e-34 0)
(5.5838e-32 -1.67677e-34 0)
(5.58431e-32 -1.67181e-34 0)
(5.58478e-32 -1.66723e-34 -1.26728e-59)
(5.58522e-32 -1.66299e-34 5.96023e-60)
(5.58562e-32 -1.65908e-34 0)
(5.58599e-32 -1.65547e-34 -6.56662e-60)
(5.58634e-32 -1.65213e-34 -6.53148e-60)
(5.58666e-32 -1.64906e-34 0)
(5.58695e-32 -1.64622e-34 1.17454e-59)
(5.58722e-32 -1.64361e-34 -1.28834e-59)
(5.58747e-32 -1.6412e-34 -1.1693e-59)
(5.58769e-32 -1.63899e-34 2.44559e-59)
(5.5879e-32 -1.63694e-34 0)
(5.58809e-32 -1.63506e-34 0)
(5.58827e-32 -1.63333e-34 0)
(5.58843e-32 -1.63173e-34 -1.15941e-59)
(5.58858e-32 -1.63025e-34 -2.41806e-59)
(5.58871e-32 -1.62888e-34 -1.25731e-59)
(5.58883e-32 -1.6276e-34 -1.15511e-59)
(5.58894e-32 -1.62641e-34 -2.406e-59)
(5.58904e-32 -1.6253e-34 1.1527e-59)
(5.58913e-32 -1.62424e-34 0)
(5.58921e-32 -1.62323e-34 0)
(5.58928e-32 -1.62225e-34 2.39291e-59)
(5.58933e-32 -1.62128e-34 0)
(5.58938e-32 -1.62031e-34 0)
(5.58942e-32 -1.61932e-34 -1.23728e-59)
(5.58945e-32 -1.61828e-34 0)
(5.58946e-32 -1.61715e-34 -2.37703e-59)
(5.58946e-32 -1.61592e-34 -1.14297e-59)
(5.58945e-32 -1.61452e-34 0)
(5.58942e-32 -1.61292e-34 -2.3639e-59)
(5.58937e-32 -1.61103e-34 0)
(5.58929e-32 -1.60878e-34 0)
(5.58918e-32 -1.60607e-34 -1.13281e-59)
(5.58904e-32 -1.60275e-34 -1.20316e-59)
(5.58885e-32 -1.59867e-34 -1.12519e-59)
(5.5886e-32 -1.5936e-34 0)
(5.58828e-32 -1.58726e-34 0)
(5.58787e-32 -1.57931e-34 -2.26038e-59)
(5.58734e-32 -1.56927e-34 0)
(5.58667e-32 -1.55655e-34 -2.19034e-59)
(5.5858e-32 -1.54035e-34 0)
(5.58469e-32 -1.51962e-34 0)
(5.58326e-32 -1.49297e-34 0)
(5.58141e-32 -1.4585e-34 9.80957e-60)
(5.57902e-32 -1.41361e-34 0)
(5.57591e-32 -1.3547e-34 -8.74148e-60)
(5.57186e-32 -1.27657e-34 0)
(5.56652e-32 -1.17163e-34 0)
(5.55943e-32 -1.02831e-34 -2.64174e-61)
(5.54991e-32 -8.28148e-35 -3.83901e-60)
(5.53692e-32 -5.39918e-35 0)
(5.51882e-32 -1.0637e-35 0)
(5.4928e-32 5.89324e-35 0)
(5.45371e-32 1.82364e-34 6.86138e-59)
(5.39158e-32 4.3984e-34 0)
(5.29357e-32 1.13345e-33 -5.08776e-58)
(7.21835e-34 -7.78707e-33 4.02496e-58)
(2.1712e-33 -7.77405e-33 -5.16782e-62)
(3.62918e-33 -7.7511e-33 0)
(5.09398e-33 -7.7178e-33 1.2068e-61)
(6.56361e-33 -7.67365e-33 0)
(8.03588e-33 -7.61813e-33 0)
(9.50838e-33 -7.5507e-33 -3.89238e-58)
(1.09785e-32 -7.47091e-33 -1.926e-58)
(1.24433e-32 -7.37846e-33 1.89847e-58)
(1.38998e-32 -7.27321e-33 -1.87352e-58)
(1.53449e-32 -7.15527e-33 0)
(1.67756e-32 -7.02498e-33 0)
(1.81886e-32 -6.88289e-33 -1.7663e-58)
(1.9581e-32 -6.72978e-33 -3.45146e-58)
(2.09501e-32 -6.56661e-33 3.36517e-58)
(2.22931e-32 -6.39448e-33 0)
(2.36077e-32 -6.21464e-33 3.17944e-58)
(2.48919e-32 -6.02838e-33 1.54654e-58)
(2.61437e-32 -5.83706e-33 0)
(2.73619e-32 -5.64204e-33 2.87809e-58)
(2.85451e-32 -5.44464e-33 -1.39393e-58)
(2.96924e-32 -5.24614e-33 -2.67012e-58)
(3.08034e-32 -5.04772e-33 1.29026e-58)
(3.18776e-32 -4.85047e-33 0)
(3.29149e-32 -4.65536e-33 2.36013e-58)
(3.39155e-32 -4.46326e-33 2.2594e-58)
(3.48797e-32 -4.27489e-33 0)
(3.58079e-32 -4.09087e-33 2.0642e-58)
(3.67007e-32 -3.91172e-33 0)
(3.75588e-32 -3.73784e-33 1.87921e-58)
(3.8383e-32 -3.56952e-33 -9.04574e-59)
(3.91743e-32 -3.40699e-33 0)
(3.99334e-32 -3.2504e-33 0)
(4.06614e-32 -3.09983e-33 0)
(4.13593e-32 -2.95529e-33 0)
(4.20281e-32 -2.81675e-33 0)
(4.26687e-32 -2.68416e-33 0)
(4.32822e-32 -2.55741e-33 1.26084e-58)
(4.38696e-32 -2.43637e-33 -5.88355e-59)
(4.44319e-32 -2.3209e-33 0)
(4.497e-32 -2.21081e-33 0)
(4.54849e-32 -2.10594e-33 0)
(4.59775e-32 -2.0061e-33 -1.96571e-58)
(4.64488e-32 -1.91109e-33 -9.44146e-59)
(4.68995e-32 -1.82072e-33 -2.21473e-60)
(4.73305e-32 -1.73479e-33 2.23506e-60)
(4.77427e-32 -1.65311e-33 -7.87004e-59)
(4.81368e-32 -1.57548e-33 -7.69042e-59)
(4.85136e-32 -1.50171e-33 1.43819e-58)
(4.88737e-32 -1.43162e-33 6.70897e-59)
(4.92179e-32 -1.36504e-33 0)
(4.95469e-32 -1.30179e-33 6.02823e-59)
(4.98612e-32 -1.24172e-33 1.16618e-58)
(5.01615e-32 -1.18465e-33 0)
(5.04484e-32 -1.13045e-33 0)
(5.07223e-32 -1.07897e-33 -4.85959e-59)
(5.0984e-32 -1.03007e-33 0)
(5.12338e-32 -9.83622e-34 0)
(5.14722e-32 -9.39508e-34 1.2627e-58)
(5.16998e-32 -8.9761e-34 7.81633e-59)
(5.1917e-32 -8.57818e-34 3.94452e-59)
(5.21242e-32 -8.20026e-34 0)
(5.23217e-32 -7.84136e-34 -3.55977e-59)
(5.25101e-32 -7.50054e-34 0)
(5.26897e-32 -7.17693e-34 9.14078e-59)
(5.28609e-32 -6.86967e-34 -3.05233e-59)
(5.3024e-32 -6.57798e-34 -5.29922e-59)
(5.31793e-32 -6.3011e-34 -7.76391e-59)
(5.33272e-32 -6.03832e-34 0)
(5.3468e-32 -5.78895e-34 4.47081e-59)
(5.3602e-32 -5.55237e-34 0)
(5.37294e-32 -5.32795e-34 1.73967e-59)
(5.38506e-32 -5.11511e-34 3.76323e-59)
(5.39659e-32 -4.91331e-34 3.55132e-59)
(5.40753e-32 -4.72201e-34 -3.35042e-59)
(5.41794e-32 -4.54073e-34 1.32418e-59)
(5.42781e-32 -4.36897e-34 0)
(5.43719e-32 -4.20629e-34 0)
(5.44608e-32 -4.05225e-34 -2.64699e-59)
(5.45452e-32 -3.90645e-34 -9.89361e-60)
(5.46252e-32 -3.76848e-34 0)
(5.4701e-32 -3.63797e-34 -1.3642e-59)
(5.47728e-32 -3.51456e-34 0)
(5.48408e-32 -3.39791e-34 -7.20871e-60)
(5.49052e-32 -3.28769e-34 4.20623e-59)
(5.49661e-32 -3.18358e-34 -3.98806e-59)
(5.50236e-32 -3.08529e-34 1.63123e-59)
(5.50781e-32 -2.99253e-34 0)
(5.51295e-32 -2.90502e-34 -1.44183e-59)
(5.5178e-32 -2.8225e-34 3.23136e-59)
(5.52239e-32 -2.74472e-34 0)