/*--------------------------------*- C++ -*----------------------------------*\
  =========                 |
  \\      /  F ield         | OpenFOAM: The Open Source CFD Toolbox
   \\    /   O peration     | Website:  https://openfoam.org
    \\  /    A nd           | Version:  10
     \\/     M anipulation  |
\*---------------------------------------------------------------------------*/
FoamFile
{
    format      ascii;
    class       volVectorField;
    location    "21100";
    object      Ua;
}
// * * * * * * * * * * * * * * * * * * * * * * * * * * * * * * * * * * * * * //

dimensions      [0 1 -1 0 0 0 0];

internalField   nonuniform List<vector> 
6400
(
(-1.54775e-06 3.1461e-07 0)
(-5.07494e-06 4.02358e-07 0)
(-5.90024e-06 4.8106e-07 0)
(-2.42931e-06 7.40333e-05 0)
(-7.1182e-08 6.60332e-07 0)
(-2.17438e-08 2.04109e-07 0)
(-1.1504e-08 1.09305e-07 0)
(-8.04061e-09 7.19431e-08 0)
(-6.06747e-09 5.27591e-08 0)
(-4.87925e-09 4.11746e-08 0)
(-3.96811e-09 3.35529e-08 0)
(-3.28998e-09 2.81918e-08 0)
(-2.78377e-09 2.42591e-08 0)
(-2.43233e-09 2.12657e-08 0)
(-2.15967e-09 1.89131e-08 0)
(-1.92964e-09 1.70263e-08 0)
(-1.7267e-09 1.54801e-08 0)
(-1.55492e-09 1.4202e-08 0)
(-1.42579e-09 1.31259e-08 0)
(-1.32973e-09 1.22135e-08 0)
(-1.24929e-09 1.14325e-08 0)
(-1.17286e-09 1.07588e-08 0)
(-1.10181e-09 1.01728e-08 0)
(-1.03392e-09 9.66475e-09 0)
(-9.71672e-10 9.21645e-09 0)
(-9.1913e-10 8.81995e-09 0)
(-8.73098e-10 8.47168e-09 0)
(-8.293e-10 8.16292e-09 0)
(-7.87751e-10 7.89175e-09 0)
(-7.49062e-10 7.64751e-09 0)
(-7.0851e-10 7.4272e-09 0)
(-6.56468e-10 7.23048e-09 0)
(-6.06577e-10 7.0661e-09 0)
(-5.63025e-10 6.99855e-09 0)
(-5.09416e-10 6.93706e-09 0)
(-4.4388e-10 6.88286e-09 0)
(-3.65141e-10 6.83681e-09 0)
(-2.7311e-10 6.80173e-09 0)
(-1.69296e-10 6.7789e-09 0)
(-5.73726e-11 6.7599e-09 0)
(5.73726e-11 6.7599e-09 0)
(1.69296e-10 6.7789e-09 0)
(2.7311e-10 6.80173e-09 0)
(3.65141e-10 6.83681e-09 0)
(4.4388e-10 6.88286e-09 0)
(5.09416e-10 6.93706e-09 0)
(5.63025e-10 6.99855e-09 0)
(6.06577e-10 7.0661e-09 0)
(6.56468e-10 7.23048e-09 0)
(7.0851e-10 7.4272e-09 0)
(7.49062e-10 7.64751e-09 0)
(7.87751e-10 7.89175e-09 0)
(8.293e-10 8.16292e-09 0)
(8.73098e-10 8.47168e-09 0)
(9.1913e-10 8.81995e-09 0)
(9.71672e-10 9.21645e-09 0)
(1.03392e-09 9.66475e-09 0)
(1.10181e-09 1.01728e-08 0)
(1.17286e-09 1.07588e-08 0)
(1.24929e-09 1.14325e-08 0)
(1.32973e-09 1.22135e-08 0)
(1.42579e-09 1.31259e-08 0)
(1.55492e-09 1.4202e-08 0)
(1.7267e-09 1.54801e-08 0)
(1.92964e-09 1.70263e-08 0)
(2.15967e-09 1.89131e-08 0)
(2.43233e-09 2.12657e-08 0)
(2.78377e-09 2.42591e-08 0)
(3.28998e-09 2.81918e-08 0)
(3.96811e-09 3.35529e-08 0)
(4.87925e-09 4.11746e-08 0)
(6.06747e-09 5.27591e-08 0)
(8.04061e-09 7.19431e-08 0)
(1.1504e-08 1.09305e-07 0)
(2.17438e-08 2.04109e-07 0)
(7.1182e-08 6.60332e-07 0)
(2.42931e-06 7.40333e-05 0)
(5.90024e-06 4.8106e-07 0)
(5.07494e-06 4.02358e-07 0)
(1.54775e-06 3.1461e-07 0)
(-1.52905e-06 9.70122e-07 0)
(-5.07933e-06 1.25535e-06 0)
(-1.21042e-05 2.07769e-06 0)
(-1.01504e-05 2.04178e-05 0)
(-1.78055e-06 8.44423e-06 0)
(-2.15274e-07 8.91572e-07 0)
(-4.59997e-08 3.0767e-07 0)
(-2.41103e-08 1.49556e-07 0)
(-1.63432e-08 9.95458e-08 0)
(-1.25345e-08 7.41569e-08 0)
(-9.91172e-09 5.90136e-08 0)
(-8.08118e-09 4.88636e-08 0)
(-6.75866e-09 4.17023e-08 0)
(-5.86423e-09 3.63426e-08 0)
(-5.18065e-09 3.21758e-08 0)
(-4.61082e-09 2.88703e-08 0)
(-4.11226e-09 2.61737e-08 0)
(-3.69264e-09 2.39776e-08 0)
(-3.38024e-09 2.21381e-08 0)
(-3.14945e-09 2.05835e-08 0)
(-2.95667e-09 1.92467e-08 0)
(-2.77318e-09 1.8098e-08 0)
(-2.60347e-09 1.7101e-08 0)
(-2.44137e-09 1.62363e-08 0)
(-2.29308e-09 1.54801e-08 0)
(-2.16872e-09 1.48124e-08 0)
(-2.06006e-09 1.42245e-08 0)
(-1.9564e-09 1.37026e-08 0)
(-1.85815e-09 1.32464e-08 0)
(-1.76755e-09 1.28359e-08 0)
(-1.67355e-09 1.24637e-08 0)
(-1.55348e-09 1.21283e-08 0)
(-1.43834e-09 1.18461e-08 0)
(-1.33762e-09 1.17285e-08 0)
(-1.21313e-09 1.16206e-08 0)
(-1.05996e-09 1.15247e-08 0)
(-8.74444e-10 1.14428e-08 0)
(-6.55745e-10 1.138e-08 0)
(-4.07264e-10 1.13384e-08 0)
(-1.38156e-10 1.13051e-08 0)
(1.38156e-10 1.13051e-08 0)
(4.07264e-10 1.13384e-08 0)
(6.55745e-10 1.138e-08 0)
(8.74444e-10 1.14428e-08 0)
(1.05996e-09 1.15247e-08 0)
(1.21313e-09 1.16206e-08 0)
(1.33762e-09 1.17285e-08 0)
(1.43834e-09 1.18461e-08 0)
(1.55348e-09 1.21283e-08 0)
(1.67355e-09 1.24637e-08 0)
(1.76755e-09 1.28359e-08 0)
(1.85815e-09 1.32464e-08 0)
(1.9564e-09 1.37026e-08 0)
(2.06006e-09 1.42245e-08 0)
(2.16872e-09 1.48124e-08 0)
(2.29308e-09 1.54801e-08 0)
(2.44137e-09 1.62363e-08 0)
(2.60347e-09 1.7101e-08 0)
(2.77318e-09 1.8098e-08 0)
(2.95667e-09 1.92467e-08 0)
(3.14945e-09 2.05835e-08 0)
(3.38024e-09 2.21381e-08 0)
(3.69264e-09 2.39776e-08 0)
(4.11226e-09 2.61737e-08 0)
(4.61082e-09 2.88703e-08 0)
(5.18065e-09 3.21758e-08 0)
(5.86423e-09 3.63426e-08 0)
(6.75866e-09 4.17023e-08 0)
(8.08118e-09 4.88636e-08 0)
(9.91172e-09 5.90136e-08 0)
(1.25345e-08 7.41569e-08 0)
(1.63432e-08 9.95458e-08 0)
(2.41103e-08 1.49556e-07 0)
(4.59997e-08 3.0767e-07 0)
(2.15274e-07 8.91572e-07 0)
(1.78055e-06 8.44423e-06 0)
(1.01504e-05 2.04178e-05 0)
(1.21042e-05 2.07769e-06 0)
(5.07933e-06 1.25535e-06 0)
(1.52905e-06 9.70122e-07 0)
(-1.48289e-06 1.67365e-06 0)
(-4.85935e-06 2.16904e-06 0)
(-1.00986e-05 4.01141e-06 0)
(-7.9358e-06 1.75196e-05 0)
(9.58859e-07 1.54582e-05 0)
(-1.29572e-06 2.96766e-06 0)
(-3.6178e-06 1.24094e-05 0)
(-1.81036e-07 7.03837e-07 0)
(-4.82124e-08 3.23129e-07 0)
(-2.79945e-08 1.79938e-07 0)
(-1.97779e-08 1.28975e-07 0)
(-1.52604e-08 1.01446e-07 0)
(-1.23536e-08 8.42591e-08 0)
(-1.05359e-08 7.22173e-08 0)
(-9.20468e-09 6.32342e-08 0)
(-8.12873e-09 5.63191e-08 0)
(-7.20449e-09 5.07715e-08 0)
(-6.4346e-09 4.63572e-08 0)
(-5.8733e-09 4.26975e-08 0)
(-5.46495e-09 3.96293e-08 0)
(-5.12528e-09 3.69871e-08 0)
(-4.7996e-09 3.47319e-08 0)
(-4.50151e-09 3.27825e-08 0)
(-4.21625e-09 3.10934e-08 0)
(-3.95575e-09 2.96318e-08 0)
(-3.74045e-09 2.8345e-08 0)
(-3.55339e-09 2.72104e-08 0)
(-3.3736e-09 2.62026e-08 0)
(-3.20328e-09 2.53273e-08 0)
(-3.04924e-09 2.45413e-08 0)
(-2.89258e-09 2.38276e-08 0)
(-2.69427e-09 2.31826e-08 0)
(-2.504e-09 2.26405e-08 0)
(-2.33674e-09 2.24149e-08 0)
(-2.12834e-09 2.22091e-08 0)
(-1.86881e-09 2.20273e-08 0)
(-1.54971e-09 2.18734e-08 0)
(-1.16759e-09 2.17563e-08 0)
(-7.27696e-10 2.16786e-08 0)
(-2.47313e-10 2.1617e-08 0)
(2.47313e-10 2.1617e-08 0)
(7.27696e-10 2.16786e-08 0)
(1.16759e-09 2.17563e-08 0)
(1.54971e-09 2.18734e-08 0)
(1.86881e-09 2.20273e-08 0)
(2.12834e-09 2.22091e-08 0)
(2.33674e-09 2.24149e-08 0)
(2.504e-09 2.26405e-08 0)
(2.69427e-09 2.31826e-08 0)
(2.89258e-09 2.38276e-08 0)
(3.04924e-09 2.45413e-08 0)
(3.20328e-09 2.53273e-08 0)
(3.3736e-09 2.62026e-08 0)
(3.55339e-09 2.72104e-08 0)
(3.74045e-09 2.8345e-08 0)
(3.95575e-09 2.96318e-08 0)
(4.21625e-09 3.10934e-08 0)
(4.50151e-09 3.27825e-08 0)
(4.7996e-09 3.47319e-08 0)
(5.12528e-09 3.69871e-08 0)
(5.46495e-09 3.96293e-08 0)
(5.8733e-09 4.26975e-08 0)
(6.4346e-09 4.63572e-08 0)
(7.20449e-09 5.07715e-08 0)
(8.12873e-09 5.63191e-08 0)
(9.20468e-09 6.32342e-08 0)
(1.05359e-08 7.22173e-08 0)
(1.23536e-08 8.42591e-08 0)
(1.52604e-08 1.01446e-07 0)
(1.97779e-08 1.28975e-07 0)
(2.79945e-08 1.79938e-07 0)
(4.82124e-08 3.23129e-07 0)
(1.81036e-07 7.03837e-07 0)
(3.6178e-06 1.24094e-05 0)
(1.29572e-06 2.96766e-06 0)
(-9.58859e-07 1.54582e-05 0)
(7.9358e-06 1.75196e-05 0)
(1.00986e-05 4.01141e-06 0)
(4.85935e-06 2.16904e-06 0)
(1.48289e-06 1.67365e-06 0)
(-1.40651e-06 2.41352e-06 0)
(-4.50128e-06 3.0849e-06 0)
(-8.3629e-06 5.41249e-06 0)
(-6.67948e-06 1.51381e-05 0)
(-5.55822e-07 1.40221e-05 0)
(-4.04493e-06 5.89968e-06 0)
(-8.65111e-07 2.19161e-05 0)
(2.16022e-08 3.35197e-06 0)
(-4.19577e-06 1.36863e-05 0)
(-2.21772e-07 7.833e-07 0)
(-5.87266e-08 3.76282e-07 0)
(-3.14251e-08 2.1386e-07 0)
(-2.20784e-08 1.56402e-07 0)
(-1.76648e-08 1.26149e-07 0)
(-1.49002e-08 1.06823e-07 0)
(-1.28789e-08 9.32816e-08 0)
(-1.12436e-08 8.29831e-08 0)
(-9.92328e-09 7.51809e-08 0)
(-9.00121e-09 6.88692e-08 0)
(-8.35123e-09 6.36842e-08 0)
(-7.81713e-09 5.92373e-08 0)
(-7.29933e-09 5.54944e-08 0)
(-6.83537e-09 5.22859e-08 0)
(-6.38941e-09 4.95123e-08 0)
(-5.98285e-09 4.71486e-08 0)
(-5.65559e-09 4.50755e-08 0)
(-5.37407e-09 4.32463e-08 0)
(-5.09944e-09 4.16212e-08 0)
(-4.8392e-09 4.02234e-08 0)
(-4.61165e-09 3.89723e-08 0)
(-4.38787e-09 3.78347e-08 0)
(-4.10922e-09 3.68045e-08 0)
(-3.84171e-09 3.59402e-08 0)
(-3.60462e-09 3.55817e-08 0)
(-3.30538e-09 3.52561e-08 0)
(-2.92518e-09 3.49695e-08 0)
(-2.44572e-09 3.47279e-08 0)
(-1.85651e-09 3.45438e-08 0)
(-1.16358e-09 3.44205e-08 0)
(-3.96635e-10 3.43243e-08 0)
(3.96635e-10 3.43243e-08 0)
(1.16358e-09 3.44205e-08 0)
(1.85651e-09 3.45438e-08 0)
(2.44572e-09 3.47279e-08 0)
(2.92518e-09 3.49695e-08 0)
(3.30538e-09 3.52561e-08 0)
(3.60462e-09 3.55817e-08 0)
(3.84171e-09 3.59402e-08 0)
(4.10922e-09 3.68045e-08 0)
(4.38787e-09 3.78347e-08 0)
(4.61165e-09 3.89723e-08 0)
(4.8392e-09 4.02234e-08 0)
(5.09944e-09 4.16212e-08 0)
(5.37407e-09 4.32463e-08 0)
(5.65559e-09 4.50755e-08 0)
(5.98285e-09 4.71486e-08 0)
(6.38941e-09 4.95123e-08 0)
(6.83537e-09 5.22859e-08 0)
(7.29933e-09 5.54944e-08 0)
(7.81713e-09 5.92373e-08 0)
(8.35123e-09 6.36842e-08 0)
(9.00121e-09 6.88692e-08 0)
(9.92328e-09 7.51809e-08 0)
(1.12436e-08 8.29831e-08 0)
(1.28789e-08 9.32816e-08 0)
(1.49002e-08 1.06823e-07 0)
(1.76648e-08 1.26149e-07 0)
(2.20784e-08 1.56402e-07 0)
(3.14251e-08 2.1386e-07 0)
(5.87266e-08 3.76282e-07 0)
(2.21772e-07 7.833e-07 0)
(4.19577e-06 1.36863e-05 0)
(-2.16022e-08 3.35197e-06 0)
(8.65111e-07 2.19161e-05 0)
(4.04493e-06 5.89968e-06 0)
(5.55822e-07 1.40221e-05 0)
(6.67948e-06 1.51381e-05 0)
(8.3629e-06 5.41249e-06 0)
(4.50128e-06 3.0849e-06 0)
(1.40651e-06 2.41352e-06 0)
(-1.30149e-06 3.17365e-06 0)
(-4.05071e-06 3.96362e-06 0)
(-6.87732e-06 6.40106e-06 0)
(-5.63641e-06 1.3333e-05 0)
(-1.49224e-06 1.29657e-05 0)
(-3.18653e-06 8.39041e-06 0)
(-1.13492e-06 1.7969e-05 0)
(-1.78338e-06 7.26465e-06 0)
(2.12124e-06 2.39828e-05 0)
(2.96846e-06 3.95472e-06 0)
(-3.34627e-06 1.03098e-05 0)
(-4.02751e-07 1.2629e-06 0)
(-8.38111e-08 4.8133e-07 0)
(-3.86117e-08 2.74782e-07 0)
(-2.65147e-08 1.90594e-07 0)
(-2.08172e-08 1.52508e-07 0)
(-1.72275e-08 1.29395e-07 0)
(-1.46802e-08 1.14253e-07 0)
(-1.30737e-08 1.02984e-07 0)
(-1.20174e-08 9.42847e-08 0)
(-1.11859e-08 8.70306e-08 0)
(-1.03788e-08 8.11316e-08 0)
(-9.68818e-09 7.61749e-08 0)
(-9.02253e-09 7.1924e-08 0)
(-8.41809e-09 6.83908e-08 0)
(-7.95323e-09 6.53121e-08 0)
(-7.56021e-09 6.26002e-08 0)
(-7.16679e-09 6.01909e-08 0)
(-6.79319e-09 5.81523e-08 0)
(-6.48406e-09 5.63356e-08 0)
(-6.19622e-09 5.46834e-08 0)
(-5.84821e-09 5.31851e-08 0)
(-5.51433e-09 5.19327e-08 0)
(-5.21503e-09 5.14165e-08 0)
(-4.83001e-09 5.09491e-08 0)
(-4.32482e-09 5.05364e-08 0)
(-3.66101e-09 5.01849e-08 0)
(-2.8106e-09 4.99112e-08 0)
(-1.77656e-09 4.97225e-08 0)
(-6.0832e-10 4.95802e-08 0)
(6.0832e-10 4.95802e-08 0)
(1.77656e-09 4.97225e-08 0)
(2.8106e-09 4.99112e-08 0)
(3.66101e-09 5.01849e-08 0)
(4.32482e-09 5.05364e-08 0)
(4.83001e-09 5.09491e-08 0)
(5.21503e-09 5.14165e-08 0)
(5.51433e-09 5.19327e-08 0)
(5.84821e-09 5.31851e-08 0)
(6.19622e-09 5.46834e-08 0)
(6.48406e-09 5.63356e-08 0)
(6.79319e-09 5.81523e-08 0)
(7.16679e-09 6.01909e-08 0)
(7.56021e-09 6.26002e-08 0)
(7.95323e-09 6.53121e-08 0)
(8.41809e-09 6.83908e-08 0)
(9.02253e-09 7.1924e-08 0)
(9.68818e-09 7.61749e-08 0)
(1.03788e-08 8.11316e-08 0)
(1.11859e-08 8.70306e-08 0)
(1.20174e-08 9.42847e-08 0)
(1.30737e-08 1.02984e-07 0)
(1.46802e-08 1.14253e-07 0)
(1.72275e-08 1.29395e-07 0)
(2.08172e-08 1.52508e-07 0)
(2.65147e-08 1.90594e-07 0)
(3.86117e-08 2.74782e-07 0)
(8.38111e-08 4.8133e-07 0)
(4.02751e-07 1.2629e-06 0)
(3.34627e-06 1.03098e-05 0)
(-2.96846e-06 3.95472e-06 0)
(-2.12124e-06 2.39828e-05 0)
(1.78338e-06 7.26465e-06 0)
(1.13492e-06 1.7969e-05 0)
(3.18653e-06 8.39041e-06 0)
(1.49224e-06 1.29657e-05 0)
(5.63641e-06 1.3333e-05 0)
(6.87732e-06 6.40106e-06 0)
(4.05071e-06 3.96362e-06 0)
(1.30149e-06 3.17365e-06 0)
(-1.17303e-06 3.93503e-06 0)
(-3.54949e-06 4.77782e-06 0)
(-5.61697e-06 7.08551e-06 0)
(-4.75577e-06 1.20056e-05 0)
(-1.98958e-06 1.21814e-05 0)
(-2.58489e-06 9.86525e-06 0)
(-1.18603e-06 1.54392e-05 0)
(-1.06252e-06 9.94534e-06 0)
(1.74954e-06 1.92461e-05 0)
(2.99971e-06 8.03903e-06 0)
(4.69521e-06 1.805e-05 0)
(5.4976e-06 3.96307e-06 0)
(-3.50982e-06 4.56156e-06 0)
(-3.7276e-06 1.07666e-05 0)
(-1.94626e-07 7.48235e-07 0)
(-6.27832e-08 3.97584e-07 0)
(-3.38435e-08 2.46978e-07 0)
(-2.40479e-08 1.87041e-07 0)
(-1.97043e-08 1.56506e-07 0)
(-1.73577e-08 1.37729e-07 0)
(-1.5779e-08 1.24004e-07 0)
(-1.43613e-08 1.13907e-07 0)
(-1.32757e-08 1.05935e-07 0)
(-1.22548e-08 9.93208e-08 0)
(-1.1346e-08 9.40954e-08 0)
(-1.07012e-08 8.96259e-08 0)
(-1.01739e-08 8.5733e-08 0)
(-9.62484e-09 8.22859e-08 0)
(-9.10144e-09 7.94537e-08 0)
(-8.70523e-09 7.69466e-08 0)
(-8.36776e-09 7.46721e-08 0)
(-7.98192e-09 7.26106e-08 0)
(-7.61354e-09 7.09005e-08 0)
(-7.27928e-09 7.02042e-08 0)
(-6.8379e-09 6.95747e-08 0)
(-6.22763e-09 6.90097e-08 0)
(-5.36848e-09 6.85099e-08 0)
(-4.19039e-09 6.80969e-08 0)
(-2.68166e-09 6.77955e-08 0)
(-9.24291e-10 6.75794e-08 0)
(9.24291e-10 6.75794e-08 0)
(2.68166e-09 6.77955e-08 0)
(4.19039e-09 6.80969e-08 0)
(5.36848e-09 6.85099e-08 0)
(6.22763e-09 6.90097e-08 0)
(6.8379e-09 6.95747e-08 0)
(7.27928e-09 7.02042e-08 0)
(7.61354e-09 7.09005e-08 0)
(7.98192e-09 7.26106e-08 0)
(8.36776e-09 7.46721e-08 0)
(8.70523e-09 7.69466e-08 0)
(9.10144e-09 7.94537e-08 0)
(9.62484e-09 8.22859e-08 0)
(1.01739e-08 8.5733e-08 0)
(1.07012e-08 8.96259e-08 0)
(1.1346e-08 9.40954e-08 0)
(1.22548e-08 9.93208e-08 0)
(1.32757e-08 1.05935e-07 0)
(1.43613e-08 1.13907e-07 0)
(1.5779e-08 1.24004e-07 0)
(1.73577e-08 1.37729e-07 0)
(1.97043e-08 1.56506e-07 0)
(2.40479e-08 1.87041e-07 0)
(3.38435e-08 2.46978e-07 0)
(6.27832e-08 3.97584e-07 0)
(1.94626e-07 7.48235e-07 0)
(3.7276e-06 1.07666e-05 0)
(3.50982e-06 4.56156e-06 0)
(-5.4976e-06 3.96307e-06 0)
(-4.69521e-06 1.805e-05 0)
(-2.99971e-06 8.03903e-06 0)
(-1.74954e-06 1.92461e-05 0)
(1.06252e-06 9.94534e-06 0)
(1.18603e-06 1.54392e-05 0)
(2.58489e-06 9.86525e-06 0)
(1.98958e-06 1.21814e-05 0)
(4.75577e-06 1.20056e-05 0)
(5.61697e-06 7.08551e-06 0)
(3.54949e-06 4.77782e-06 0)
(1.17303e-06 3.93503e-06 0)
(-1.02882e-06 4.67764e-06 0)
(-3.03346e-06 5.51148e-06 0)
(-4.55426e-06 7.5572e-06 0)
(-3.9978e-06 1.10591e-05 0)
(-2.16815e-06 1.15878e-05 0)
(-2.14268e-06 1.06419e-05 0)
(-1.10288e-06 1.38432e-05 0)
(-5.65347e-07 1.13113e-05 0)
(1.51234e-06 1.62374e-05 0)
(2.7731e-06 1.01981e-05 0)
(4.05452e-06 1.48904e-05 0)
(4.25478e-06 6.79293e-06 0)
(-5.64977e-07 8.97144e-06 0)
(4.50344e-06 1.87417e-05 0)
(4.62386e-06 3.6066e-06 0)
(-2.63165e-06 7.03993e-06 0)
(-1.73599e-06 4.52378e-06 0)
(-1.65014e-07 6.83888e-07 0)
(-5.99063e-08 3.84434e-07 0)
(-3.39359e-08 2.61813e-07 0)
(-2.5662e-08 1.96902e-07 0)
(-2.11514e-08 1.66671e-07 0)
(-1.86266e-08 1.48427e-07 0)
(-1.66493e-08 1.35516e-07 0)
(-1.50602e-08 1.26589e-07 0)
(-1.40879e-08 1.19497e-07 0)
(-1.33558e-08 1.13646e-07 0)
(-1.25665e-08 1.08587e-07 0)
(-1.18174e-08 1.04673e-07 0)
(-1.13273e-08 1.01265e-07 0)
(-1.09687e-08 9.82114e-08 0)
(-1.0606e-08 9.54624e-08 0)
(-1.02664e-08 9.32181e-08 0)
(-9.95785e-09 9.23295e-08 0)
(-9.53882e-09 9.15277e-08 0)
(-8.90134e-09 9.07796e-08 0)
(-7.87943e-09 9.00573e-08 0)
(-6.3002e-09 8.93857e-08 0)
(-4.1036e-09 8.88528e-08 0)
(-1.42766e-09 8.84919e-08 0)
(1.42766e-09 8.84919e-08 0)
(4.1036e-09 8.88528e-08 0)
(6.3002e-09 8.93857e-08 0)
(7.87943e-09 9.00573e-08 0)
(8.90134e-09 9.07796e-08 0)
(9.53882e-09 9.15277e-08 0)
(9.95785e-09 9.23295e-08 0)
(1.02664e-08 9.32181e-08 0)
(1.0606e-08 9.54624e-08 0)
(1.09687e-08 9.82114e-08 0)
(1.13273e-08 1.01265e-07 0)
(1.18174e-08 1.04673e-07 0)
(1.25665e-08 1.08587e-07 0)
(1.33558e-08 1.13646e-07 0)
(1.40879e-08 1.19497e-07 0)
(1.50602e-08 1.26589e-07 0)
(1.66493e-08 1.35516e-07 0)
(1.86266e-08 1.48427e-07 0)
(2.11514e-08 1.66671e-07 0)
(2.5662e-08 1.96902e-07 0)
(3.39359e-08 2.61813e-07 0)
(5.99063e-08 3.84434e-07 0)
(1.65014e-07 6.83888e-07 0)
(1.73599e-06 4.52378e-06 0)
(2.63165e-06 7.03993e-06 0)
(-4.62386e-06 3.6066e-06 0)
(-4.50344e-06 1.87417e-05 0)
(5.64977e-07 8.97144e-06 0)
(-4.25478e-06 6.79293e-06 0)
(-4.05452e-06 1.48904e-05 0)
(-2.7731e-06 1.01981e-05 0)
(-1.51234e-06 1.62374e-05 0)
(5.65347e-07 1.13113e-05 0)
(1.10288e-06 1.38432e-05 0)
(2.14268e-06 1.06419e-05 0)
(2.16815e-06 1.15878e-05 0)
(3.9978e-06 1.10591e-05 0)
(4.55426e-06 7.5572e-06 0)
(3.03346e-06 5.51148e-06 0)
(1.02882e-06 4.67764e-06 0)
(-8.77604e-07 5.38242e-06 0)
(-2.53101e-06 6.15799e-06 0)
(-3.66145e-06 7.88774e-06 0)
(-3.33363e-06 1.04044e-05 0)
(-2.12708e-06 1.11266e-05 0)
(-1.79085e-06 1.09636e-05 0)
(-9.45719e-07 1.28255e-05 0)
(-2.2228e-07 1.18579e-05 0)
(1.35946e-06 1.43415e-05 0)
(2.52183e-06 1.11966e-05 0)
(3.49378e-06 1.3061e-05 0)
(3.48629e-06 8.55431e-06 0)
(1.00254e-06 9.87996e-06 0)
(3.83302e-06 1.49406e-05 0)
(4.42482e-06 7.13529e-06 0)
(3.87368e-06 1.2519e-05 0)
(6.45754e-06 8.66414e-06 0)
(2.42649e-06 2.74252e-06 0)
(-6.48649e-06 4.07696e-06 0)
(-5.83767e-06 1.39867e-05 0)
(-2.71309e-07 7.96171e-07 0)
(-8.38446e-08 4.28949e-07 0)
(-4.29667e-08 3.04538e-07 0)
(-2.84795e-08 2.21597e-07 0)
(-2.21981e-08 1.84682e-07 0)
(-1.94382e-08 1.64353e-07 0)
(-1.78378e-08 1.51346e-07 0)
(-1.6379e-08 1.41765e-07 0)
(-1.51191e-08 1.35428e-07 0)
(-1.44687e-08 1.30327e-07 0)
(-1.41067e-08 1.26034e-07 0)
(-1.38561e-08 1.22316e-07 0)
(-1.36434e-08 1.19404e-07 0)
(-1.34702e-08 1.18334e-07 0)
(-1.32492e-08 1.17383e-07 0)
(-1.28007e-08 1.16427e-07 0)
(-1.17812e-08 1.15334e-07 0)
(-9.75391e-09 1.14102e-07 0)
(-6.5116e-09 1.13035e-07 0)
(-2.29525e-09 1.12339e-07 0)
(2.29525e-09 1.12339e-07 0)
(6.5116e-09 1.13035e-07 0)
(9.75391e-09 1.14102e-07 0)
(1.17812e-08 1.15334e-07 0)
(1.28007e-08 1.16427e-07 0)
(1.32492e-08 1.17383e-07 0)
(1.34702e-08 1.18334e-07 0)
(1.36434e-08 1.19404e-07 0)
(1.38561e-08 1.22316e-07 0)
(1.41067e-08 1.26034e-07 0)
(1.44687e-08 1.30327e-07 0)
(1.51191e-08 1.35428e-07 0)
(1.6379e-08 1.41765e-07 0)
(1.78378e-08 1.51346e-07 0)
(1.94382e-08 1.64353e-07 0)
(2.21981e-08 1.84682e-07 0)
(2.84795e-08 2.21597e-07 0)
(4.29667e-08 3.04538e-07 0)
(8.38446e-08 4.28949e-07 0)
(2.71309e-07 7.96171e-07 0)
(5.83767e-06 1.39867e-05 0)
(6.48649e-06 4.07696e-06 0)
(-2.42649e-06 2.74252e-06 0)
(-6.45754e-06 8.66414e-06 0)
(-3.87368e-06 1.2519e-05 0)
(-4.42482e-06 7.13529e-06 0)
(-3.83302e-06 1.49406e-05 0)
(-1.00254e-06 9.87996e-06 0)
(-3.48629e-06 8.55431e-06 0)
(-3.49378e-06 1.3061e-05 0)
(-2.52183e-06 1.11966e-05 0)
(-1.35946e-06 1.43415e-05 0)
(2.2228e-07 1.18579e-05 0)
(9.45719e-07 1.28255e-05 0)
(1.79085e-06 1.09636e-05 0)
(2.12708e-06 1.11266e-05 0)
(3.33363e-06 1.04044e-05 0)
(3.66145e-06 7.88774e-06 0)
(2.53101e-06 6.15799e-06 0)
(8.77604e-07 5.38242e-06 0)
(-7.27829e-07 6.03297e-06 0)
(-2.06252e-06 6.71751e-06 0)
(-2.91255e-06 8.12894e-06 0)
(-2.74398e-06 9.96414e-06 0)
(-1.94454e-06 1.07581e-05 0)
(-1.48535e-06 1.10061e-05 0)
(-7.54117e-07 1.21436e-05 0)
(1.84123e-08 1.19301e-05 0)
(1.25802e-06 1.31276e-05 0)
(2.27631e-06 1.15258e-05 0)
(3.03347e-06 1.20322e-05 0)
(3.03459e-06 9.58556e-06 0)
(1.8823e-06 1.03035e-05 0)
(3.45135e-06 1.27504e-05 0)
(4.02234e-06 8.85273e-06 0)
(3.93714e-06 1.10518e-05 0)
(4.99067e-06 8.67981e-06 0)
(2.22895e-06 5.46747e-06 0)
(-2.51987e-06 8.48424e-06 0)
(5.44767e-06 2.33129e-05 0)
(1.02713e-05 3.59127e-06 0)
(-8.78419e-07 3.15703e-06 0)
(-4.20622e-06 9.41261e-06 0)
(-9.50528e-07 2.01638e-06 0)
(-1.64016e-07 6.06576e-07 0)
(-6.8204e-08 3.7772e-07 0)
(-3.90344e-08 2.86281e-07 0)
(-2.69177e-08 2.20941e-07 0)
(-2.13572e-08 1.894e-07 0)
(-1.92571e-08 1.7261e-07 0)
(-1.83717e-08 1.62379e-07 0)
(-1.81229e-08 1.55384e-07 0)
(-1.80587e-08 1.50803e-07 0)
(-1.81368e-08 1.49412e-07 0)
(-1.84497e-08 1.48288e-07 0)
(-1.87229e-08 1.47086e-07 0)
(-1.82669e-08 1.45301e-07 0)
(-1.59021e-08 1.42656e-07 0)
(-1.09734e-08 1.40265e-07 0)
(-3.93946e-09 1.38695e-07 0)
(3.93946e-09 1.38695e-07 0)
(1.09734e-08 1.40265e-07 0)
(1.59021e-08 1.42656e-07 0)
(1.82669e-08 1.45301e-07 0)
(1.87229e-08 1.47086e-07 0)
(1.84497e-08 1.48288e-07 0)
(1.81368e-08 1.49412e-07 0)
(1.80587e-08 1.50803e-07 0)
(1.81229e-08 1.55384e-07 0)
(1.83717e-08 1.62379e-07 0)
(1.92571e-08 1.7261e-07 0)
(2.13572e-08 1.894e-07 0)
(2.69177e-08 2.20941e-07 0)
(3.90344e-08 2.86281e-07 0)
(6.8204e-08 3.7772e-07 0)
(1.64016e-07 6.06576e-07 0)
(9.50528e-07 2.01638e-06 0)
(4.20622e-06 9.41261e-06 0)
(8.78419e-07 3.15703e-06 0)
(-1.02713e-05 3.59127e-06 0)
(-5.44767e-06 2.33129e-05 0)
(2.51987e-06 8.48424e-06 0)
(-2.22895e-06 5.46747e-06 0)
(-4.99067e-06 8.67981e-06 0)
(-3.93714e-06 1.10518e-05 0)
(-4.02234e-06 8.85273e-06 0)
(-3.45135e-06 1.27504e-05 0)
(-1.8823e-06 1.03035e-05 0)
(-3.03459e-06 9.58556e-06 0)
(-3.03347e-06 1.20322e-05 0)
(-2.27631e-06 1.15258e-05 0)
(-1.25802e-06 1.31276e-05 0)
(-1.84123e-08 1.19301e-05 0)
(7.54117e-07 1.21436e-05 0)
(1.48535e-06 1.10061e-05 0)
(1.94454e-06 1.07581e-05 0)
(2.74398e-06 9.96414e-06 0)
(2.91255e-06 8.12894e-06 0)
(2.06252e-06 6.71751e-06 0)
(7.27829e-07 6.03297e-06 0)
(-5.86542e-07 6.61677e-06 0)
(-1.64078e-06 7.1943e-06 0)
(-2.28474e-06 8.31479e-06 0)
(-2.21714e-06 9.67495e-06 0)
(-1.67967e-06 1.04559e-05 0)
(-1.20197e-06 1.08896e-05 0)
(-5.51812e-07 1.16451e-05 0)
(1.93641e-07 1.17516e-05 0)
(1.18882e-06 1.23136e-05 0)
(2.05665e-06 1.1501e-05 0)
(2.67227e-06 1.14472e-05 0)
(2.75835e-06 1.01299e-05 0)
(2.33006e-06 1.04497e-05 0)
(3.2224e-06 1.15194e-05 0)
(3.70559e-06 9.61498e-06 0)
(3.79034e-06 1.02862e-05 0)
(4.10686e-06 8.849e-06 0)
(2.37413e-06 7.28329e-06 0)
(2.54643e-07 9.68008e-06 0)
(4.65437e-06 1.66701e-05 0)
(7.29061e-06 6.94921e-06 0)
(2.67145e-06 6.70338e-06 0)
(6.08192e-06 1.57514e-05 0)
(9.51087e-06 4.78391e-06 0)
(4.69051e-06 2.20208e-06 0)
(-2.10908e-06 2.52488e-06 0)
(-4.3796e-06 7.68817e-06 0)
(-1.3707e-06 2.65354e-06 0)
(-1.99223e-07 6.37513e-07 0)
(-8.04616e-08 3.89306e-07 0)
(-4.55543e-08 2.96079e-07 0)
(-3.26802e-08 2.48544e-07 0)
(-2.81997e-08 2.12894e-07 0)
(-2.67975e-08 2.01829e-07 0)
(-2.72152e-08 1.94446e-07 0)
(-2.88302e-08 1.89214e-07 0)
(-3.04133e-08 1.84063e-07 0)
(-2.82601e-08 1.76329e-07 0)
(-2.02499e-08 1.70226e-07 0)
(-7.46309e-09 1.65964e-07 0)
(7.46309e-09 1.65964e-07 0)
(2.02499e-08 1.70226e-07 0)
(2.82601e-08 1.76329e-07 0)
(3.04133e-08 1.84063e-07 0)
(2.88302e-08 1.89214e-07 0)
(2.72152e-08 1.94446e-07 0)
(2.67975e-08 2.01829e-07 0)
(2.81997e-08 2.12894e-07 0)
(3.26802e-08 2.48544e-07 0)
(4.55543e-08 2.96079e-07 0)
(8.04616e-08 3.89306e-07 0)
(1.99223e-07 6.37513e-07 0)
(1.3707e-06 2.65354e-06 0)
(4.3796e-06 7.68817e-06 0)
(2.10908e-06 2.52488e-06 0)
(-4.69051e-06 2.20208e-06 0)
(-9.51087e-06 4.78391e-06 0)
(-6.08192e-06 1.57514e-05 0)
(-2.67145e-06 6.70338e-06 0)
(-7.29061e-06 6.94921e-06 0)
(-4.65437e-06 1.66701e-05 0)
(-2.54643e-07 9.68008e-06 0)
(-2.37413e-06 7.28329e-06 0)
(-4.10686e-06 8.849e-06 0)
(-3.79034e-06 1.02862e-05 0)
(-3.70559e-06 9.61498e-06 0)
(-3.2224e-06 1.15194e-05 0)
(-2.33006e-06 1.04497e-05 0)
(-2.75835e-06 1.01299e-05 0)
(-2.67227e-06 1.14472e-05 0)
(-2.05665e-06 1.1501e-05 0)
(-1.18882e-06 1.23136e-05 0)
(-1.93641e-07 1.17516e-05 0)
(5.51812e-07 1.16451e-05 0)
(1.20197e-06 1.08896e-05 0)
(1.67967e-06 1.04559e-05 0)
(2.21714e-06 9.67495e-06 0)
(2.28474e-06 8.31479e-06 0)
(1.64078e-06 7.1943e-06 0)
(5.86542e-07 6.61677e-06 0)
(-4.5875e-07 7.12565e-06 0)
(-1.272e-06 7.59429e-06 0)
(-1.75882e-06 8.46488e-06 0)
(-1.74671e-06 9.48709e-06 0)
(-1.37548e-06 1.02026e-05 0)
(-9.30584e-07 1.0692e-05 0)
(-3.51707e-07 1.12426e-05 0)
(3.28741e-07 1.14574e-05 0)
(1.14203e-06 1.17265e-05 0)
(1.87339e-06 1.13082e-05 0)
(2.39718e-06 1.10842e-05 0)
(2.57297e-06 1.03627e-05 0)
(2.51921e-06 1.04445e-05 0)
(3.06484e-06 1.08284e-05 0)
(3.44927e-06 9.88341e-06 0)
(3.57634e-06 9.91315e-06 0)
(3.606e-06 9.05909e-06 0)
(2.62179e-06 8.38648e-06 0)
(1.80726e-06 9.98387e-06 0)
(4.18745e-06 1.30925e-05 0)
(5.68019e-06 8.53108e-06 0)
(3.90828e-06 8.18619e-06 0)
(5.60992e-06 1.18043e-05 0)
(7.13707e-06 6.34746e-06 0)
(4.36377e-06 4.31009e-06 0)
(1.00336e-06 5.31343e-06 0)
(3.64297e-06 1.2799e-05 0)
(6.97984e-06 5.4952e-06 0)
(3.98763e-06 2.11199e-06 0)
(-3.57368e-07 1.7419e-06 0)
(-6.83646e-06 2.71478e-06 0)
(-5.92157e-06 1.03829e-05 0)
(-5.82444e-07 7.09158e-07 0)
(-2.9203e-07 5.09667e-07 0)
(-1.81179e-07 4.06138e-07 0)
(-1.28615e-07 3.4111e-07 0)
(-9.6857e-08 2.93381e-07 0)
(-6.92979e-08 2.40036e-07 0)
(-4.46948e-08 2.07452e-07 0)
(-1.68607e-08 1.90256e-07 0)
(1.68607e-08 1.90256e-07 0)
(4.46948e-08 2.07452e-07 0)
(6.92979e-08 2.40036e-07 0)
(9.6857e-08 2.93381e-07 0)
(1.28615e-07 3.4111e-07 0)
(1.81179e-07 4.06138e-07 0)
(2.9203e-07 5.09667e-07 0)
(5.82444e-07 7.09158e-07 0)
(5.92157e-06 1.03829e-05 0)
(6.83646e-06 2.71478e-06 0)
(3.57368e-07 1.7419e-06 0)
(-3.98763e-06 2.11199e-06 0)
(-6.97984e-06 5.4952e-06 0)
(-3.64297e-06 1.2799e-05 0)
(-1.00336e-06 5.31343e-06 0)
(-4.36377e-06 4.31009e-06 0)
(-7.13707e-06 6.34746e-06 0)
(-5.60992e-06 1.18043e-05 0)
(-3.90828e-06 8.18619e-06 0)
(-5.68019e-06 8.53108e-06 0)
(-4.18745e-06 1.30925e-05 0)
(-1.80726e-06 9.98387e-06 0)
(-2.62179e-06 8.38648e-06 0)
(-3.606e-06 9.05909e-06 0)
(-3.57634e-06 9.91315e-06 0)
(-3.44927e-06 9.88341e-06 0)
(-3.06484e-06 1.08284e-05 0)
(-2.51921e-06 1.04445e-05 0)
(-2.57297e-06 1.03627e-05 0)
(-2.39718e-06 1.10842e-05 0)
(-1.87339e-06 1.13082e-05 0)
(-1.14203e-06 1.17265e-05 0)
(-3.28741e-07 1.14574e-05 0)
(3.51707e-07 1.12426e-05 0)
(9.30584e-07 1.0692e-05 0)
(1.37548e-06 1.02026e-05 0)
(1.74671e-06 9.48709e-06 0)
(1.75882e-06 8.46488e-06 0)
(1.272e-06 7.59429e-06 0)
(4.5875e-07 7.12565e-06 0)
(-3.47257e-07 7.55571e-06 0)
(-9.57311e-07 7.9235e-06 0)
(-1.31922e-06 8.58833e-06 0)
(-1.3295e-06 9.36321e-06 0)
(-1.0621e-06 9.98614e-06 0)
(-6.69773e-07 1.04602e-05 0)
(-1.60165e-07 1.08916e-05 0)
(4.40383e-07 1.11224e-05 0)
(1.11324e-06 1.12668e-05 0)
(1.72949e-06 1.1047e-05 0)
(2.19118e-06 1.08176e-05 0)
(2.43279e-06 1.04034e-05 0)
(2.56182e-06 1.03588e-05 0)
(2.93636e-06 1.04242e-05 0)
(3.23892e-06 9.92073e-06 0)
(3.3684e-06 9.73801e-06 0)
(3.33553e-06 9.2375e-06 0)
(2.84676e-06 8.98678e-06 0)
(2.63148e-06 9.92172e-06 0)
(3.91942e-06 1.1212e-05 0)
(4.81181e-06 9.1457e-06 0)
(4.30945e-06 8.76138e-06 0)
(5.14022e-06 9.89084e-06 0)
(5.71628e-06 7.15512e-06 0)
(4.16687e-06 5.79338e-06 0)
(2.45746e-06 6.5117e-06 0)
(3.59588e-06 9.6091e-06 0)
(4.98081e-06 6.19782e-06 0)
(3.1659e-06 3.96161e-06 0)
(1.38318e-07 3.81871e-06 0)
(-3.08177e-06 5.91551e-06 0)
(2.16902e-06 1.65983e-05 0)
(6.93213e-06 3.78966e-06 0)
(3.18275e-06 2.89245e-06 0)
(-2.7143e-07 2.84451e-06 0)
(-4.61173e-06 3.74749e-06 0)
(-4.21204e-06 3.19022e-06 0)
(-7.81251e-07 6.3398e-07 0)
(-2.14703e-07 2.59651e-07 0)
(-6.18057e-08 1.91719e-07 0)
(6.18057e-08 1.91719e-07 0)
(2.14703e-07 2.59651e-07 0)
(7.81251e-07 6.3398e-07 0)
(4.21204e-06 3.19022e-06 0)
(4.61173e-06 3.74749e-06 0)
(2.7143e-07 2.84451e-06 0)
(-3.18275e-06 2.89245e-06 0)
(-6.93213e-06 3.78966e-06 0)
(-2.16902e-06 1.65983e-05 0)
(3.08177e-06 5.91551e-06 0)
(-1.38318e-07 3.81871e-06 0)
(-3.1659e-06 3.96161e-06 0)
(-4.98081e-06 6.19782e-06 0)
(-3.59588e-06 9.6091e-06 0)
(-2.45746e-06 6.5117e-06 0)
(-4.16687e-06 5.79338e-06 0)
(-5.71628e-06 7.15512e-06 0)
(-5.14022e-06 9.89084e-06 0)
(-4.30945e-06 8.76138e-06 0)
(-4.81181e-06 9.1457e-06 0)
(-3.91942e-06 1.1212e-05 0)
(-2.63148e-06 9.92172e-06 0)
(-2.84676e-06 8.98678e-06 0)
(-3.33553e-06 9.2375e-06 0)
(-3.3684e-06 9.73801e-06 0)
(-3.23892e-06 9.92073e-06 0)
(-2.93636e-06 1.04242e-05 0)
(-2.56182e-06 1.03588e-05 0)
(-2.43279e-06 1.04034e-05 0)
(-2.19118e-06 1.08176e-05 0)
(-1.72949e-06 1.1047e-05 0)
(-1.11324e-06 1.12668e-05 0)
(-4.40383e-07 1.11224e-05 0)
(1.60165e-07 1.08916e-05 0)
(6.69773e-07 1.04602e-05 0)
(1.0621e-06 9.98614e-06 0)
(1.3295e-06 9.36321e-06 0)
(1.31922e-06 8.58833e-06 0)
(9.57311e-07 7.9235e-06 0)
(3.47257e-07 7.55571e-06 0)
(-2.52916e-07 7.90665e-06 0)
(-6.94262e-07 8.18725e-06 0)
(-9.53402e-07 8.68758e-06 0)
(-9.63793e-07 9.27614e-06 0)
(-7.59722e-07 9.79724e-06 0)
(-4.22516e-07 1.02209e-05 0)
(1.9832e-08 1.0572e-05 0)
(5.38907e-07 1.07848e-05 0)
(1.10041e-06 1.08804e-05 0)
(1.62279e-06 1.07653e-05 0)
(2.03804e-06 1.05841e-05 0)
(2.31628e-06 1.03298e-05 0)
(2.52731e-06 1.02299e-05 0)
(2.81926e-06 1.01627e-05 0)
(3.06548e-06 9.8605e-06 0)
(3.19405e-06 9.64627e-06 0)
(3.18972e-06 9.35037e-06 0)
(3.00301e-06 9.26356e-06 0)
(3.0381e-06 9.74427e-06 0)
(3.75633e-06 1.02233e-05 0)
(4.32087e-06 9.28518e-06 0)
(4.30832e-06 8.91185e-06 0)
(4.70932e-06 9.02654e-06 0)
(4.86124e-06 7.60217e-06 0)
(4.00386e-06 6.7451e-06 0)
(3.11002e-06 7.0711e-06 0)
(3.46265e-06 8.19284e-06 0)
(3.84704e-06 6.59917e-06 0)
(2.6659e-06 5.30769e-06 0)
(7.4559e-07 5.35682e-06 0)
(-7.19694e-07 7.08935e-06 0)
(1.33621e-06 1.12077e-05 0)
(3.41061e-06 7.0216e-06 0)
(2.30921e-06 5.92696e-06 0)
(1.07633e-06 5.88557e-06 0)
(5.44994e-07 6.97885e-06 0)
(2.50818e-07 6.45653e-06 0)
(-4.16196e-07 1.53929e-06 0)
(-5.11045e-07 4.17797e-07 0)
(-1.3401e-07 1.72134e-07 0)
(1.3401e-07 1.72134e-07 0)
(5.11045e-07 4.17797e-07 0)
(4.16196e-07 1.53929e-06 0)
(-2.50818e-07 6.45653e-06 0)
(-5.44994e-07 6.97885e-06 0)
(-1.07633e-06 5.88557e-06 0)
(-2.30921e-06 5.92696e-06 0)
(-3.41061e-06 7.0216e-06 0)
(-1.33621e-06 1.12077e-05 0)
(7.19694e-07 7.08935e-06 0)
(-7.4559e-07 5.35682e-06 0)
(-2.6659e-06 5.30769e-06 0)
(-3.84704e-06 6.59917e-06 0)
(-3.46265e-06 8.19284e-06 0)
(-3.11002e-06 7.0711e-06 0)
(-4.00386e-06 6.7451e-06 0)
(-4.86124e-06 7.60217e-06 0)
(-4.70932e-06 9.02654e-06 0)
(-4.30832e-06 8.91185e-06 0)
(-4.32087e-06 9.28518e-06 0)
(-3.75633e-06 1.02233e-05 0)
(-3.0381e-06 9.74427e-06 0)
(-3.00301e-06 9.26356e-06 0)
(-3.18972e-06 9.35037e-06 0)
(-3.19405e-06 9.64627e-06 0)
(-3.06548e-06 9.8605e-06 0)
(-2.81926e-06 1.01627e-05 0)
(-2.52731e-06 1.02299e-05 0)
(-2.31628e-06 1.03298e-05 0)
(-2.03804e-06 1.05841e-05 0)
(-1.62279e-06 1.07653e-05 0)
(-1.10041e-06 1.08804e-05 0)
(-5.38907e-07 1.07848e-05 0)
(-1.9832e-08 1.0572e-05 0)
(4.22516e-07 1.02209e-05 0)
(7.59722e-07 9.79724e-06 0)
(9.63793e-07 9.27614e-06 0)