/*--------------------------------*- C++ -*----------------------------------*\
  =========                 |
  \\      /  F ield         | OpenFOAM: The Open Source CFD Toolbox
   \\    /   O peration     | Website:  https://openfoam.org
    \\  /    A nd           | Version:  11
     \\/     M anipulation  |
\*---------------------------------------------------------------------------*/
FoamFile
{
    format      ascii;
    class       volScalarField;
    location    "28";
    object      p;
}
// * * * * * * * * * * * * * * * * * * * * * * * * * * * * * * * * * * * * * //

dimensions      [0 2 -2 0 0 0 0];

internalField   nonuniform List<scalar> 
2048
(
0.847773
0.845448
0.840765
0.833513
0.823537
0.810685
0.794767
0.775574
0.752904
0.726612
0.696647
0.663095
0.626214
0.586466
0.544517
0.501215
0.457528
0.414444
0.372863
0.333495
0.29682
0.263099
0.232428
0.204781
0.180053
0.158078
0.138655
0.121567
0.106593
0.093516
0.0821328
0.072254
0.0637078
0.05634
0.0500134
0.0446058
0.0400088
0.0361258
0.0328701
0.0301635
0.0279342
0.026116
0.0246469
0.0234684
0.0225248
0.0217632
0.0211332
0.0205874
0.0200809
0.0195737
0.0190281
0.0184137
0.0177009
0.0168722
0.0159047
0.014799
0.0135321
0.0121331
0.0105605
0.00889897
0.00704409
0.00520501
0.00310533
0.00129493
0.850169
0.847872
0.843241
0.836059
0.826162
0.813377
0.797493
0.77827
0.755481
0.728951
0.698605
0.664511
0.62693
0.586349
0.54349
0.499285
0.454792
0.411082
0.369091
0.329524
0.29282
0.259196
0.22871
0.20131
0.176862
0.155181
0.136049
0.11924
0.104527
0.0916907
0.0805246
0.0708396
0.062465
0.0552486
0.049055
0.0437646
0.0392711
0.0354801
0.0323069
0.0296751
0.0275146
0.0257603
0.0243511
0.0232292
0.0223391
0.0216282
0.0210457
0.0205438
0.0200775
0.019606
0.0190913
0.0185026
0.0178098
0.0169956
0.0160367
0.0149342
0.0136649
0.012259
0.0106744
0.00899801
0.00712338
0.00526453
0.00313872
0.00130932
0.85494
0.852702
0.848181
0.841155
0.831432
0.818804
0.803009
0.783752
0.760742
0.733741
0.702621
0.66742
0.628396
0.586086
0.541328
0.495229
0.449059
0.404068
0.361272
0.32134
0.284618
0.25123
0.221157
0.194284
0.170425
0.14935
0.130816
0.114577
0.100395
0.0880444
0.077315
0.0680188
0.0599877
0.0530734
0.0471453
0.0420881
0.0378005
0.0341925
0.0311836
0.028701
0.0266776
0.0250508
0.0237615
0.022753
0.0219706
0.0213617
0.0208751
0.0204622
0.0200769
0.0196777
0.0192255
0.0186886
0.0180364
0.017251
0.0163095
0.0152128
0.0139387
0.0125177
0.0109094
0.00920092
0.00728776
0.00538501
0.0032109
0.00133434
0.862019
0.859878
0.855546
0.848785
0.83937
0.827033
0.811438
0.792195
0.768905
0.741219
0.708915
0.671974
0.630655
0.585582
0.537771
0.488626
0.439797
0.392844
0.348883
0.308489
0.271843
0.238912
0.209556
0.183556
0.160643
0.140527
0.122924
0.107567
0.0942003
0.0825889
0.0725209
0.06381
0.056294
0.0498315
0.044299
0.0395889
0.0356072
0.032271
0.0295063
0.0272458
0.025427
0.0239911
0.0228817
0.0220441
0.0214246
0.0209706
0.02063
0.0203529
0.0200915
0.0198029
0.0194462
0.0189881
0.0183974
0.0176555
0.0167396
0.0156507
0.0143686
0.0129231
0.0112781
0.00951849
0.00754701
0.00557258
0.00332661
0.00136619
0.871297
0.869307
0.865267
0.858925
0.850005
0.838162
0.822959
0.803871
0.780338
0.751816
0.717906
0.678465
0.633761
0.584582
0.532241
0.478639
0.426057
0.376494
0.33112
0.290301
0.253954
0.221833
0.193622
0.168942
0.147404
0.128646
0.112345
0.0982067
0.0859575
0.0753507
0.0661738
0.0582466
0.0514164
0.0455523
0.0405418
0.0362881
0.0327079
0.0297285
0.0272848
0.025317
0.0237686
0.022586
0.0217167
0.0211086
0.0207092
0.0204653
0.0203235
0.0202314
0.0201393
0.0200019
0.0197758
0.0194251
0.0189179
0.018234
0.0173519
0.0162712
0.0149765
0.0134947
0.0117995
0.0099662
0.00791734
0.00583582
0.0034964
0.00139333
0.882608
0.880842
0.877234
0.871517
0.863353
0.852303
0.837792
0.819129
0.795535
0.766171
0.730325
0.687525
0.637974
0.582729
0.523662
0.463675
0.406125
0.353481
0.306716
0.26576
0.230172
0.19944
0.172993
0.150223
0.130587
0.113655
0.0990742
0.086524
0.0757112
0.0663821
0.058329
0.0513837
0.0454074
0.0402839
0.0359157
0.0322213
0.0291318
0.0265878
0.0245364
0.0229279
0.0217131
0.0208443
0.0202733
0.0199538
0.0198343
0.0198591
0.0199718
0.0201181
0.0202444
0.0203015
0.0202425
0.0200285
0.0196271
0.0190155
0.0181741
0.0171001
0.0157863
0.0142534
0.0124936
0.0105606
0.00841831
0.00618665
0.00373847
0.00139969
0.89571
0.89426
0.891265
0.886452
0.879404
0.869579
0.856208
0.838397
0.81507
0.78504
0.74716
0.700267
0.644199
0.580055
0.510734
0.441451
0.377479
0.321539
0.273805
0.233408
0.199432
0.171015
0.147219
0.127131
0.110058
0.0955254
0.083156
0.0726044
0.0635646
0.0557902
0.0490918
0.0433212
0.0383591
0.034109
0.0304937
0.0274519
0.0249332
0.0228943
0.021297
0.0201055
0.0192823
0.018784
0.0185616
0.0185848
0.0188032
0.0191547
0.0195767
0.0200138
0.0204096
0.0207097
0.0208557
0.0208076
0.0205328
0.0200062
0.0192099
0.0181382
0.016796
0.015195
0.0133549
0.0112976
0.00905026
0.00663065
0.00406692
0.00138492
0.910263
0.909242
0.907079
0.903523
0.898068
0.890096
0.878544
0.862286
0.839692
0.809228
0.76922
0.717652
0.653767
0.577174
0.492413
0.409693
0.337474
0.278139
0.230208
0.191584
0.160668
0.136004
0.116062
0.0996092
0.0859045
0.0744768
0.0649102
0.0568212
0.0499081
0.0439603
0.0388286
0.034399
0.0305811
0.0273057
0.0245227
0.022197
0.0203027
0.0188167
0.0177127
0.016968
0.0165709
0.0164902
0.016646
0.0170488
0.0176412
0.0183578
0.0191276
0.0198901
0.0205771
0.0211541
0.0215358
0.0216778
0.0215467
0.0211162
0.0203659
0.0192915
0.0179106
0.0162285
0.0142938
0.0121011
0.00974179
0.00713332
0.00445431
0.00140278
0.925818
0.92535
0.924256
0.922366
0.91908
0.913827
0.905123
0.891727
0.870757
0.84032
0.797161
0.7392
0.665697
0.571604
0.464694
0.364212
0.28232
0.219939
0.173321
0.138787
0.113607
0.095056
0.0806196
0.0689303
0.0594937
0.0519281
0.0457549
0.0405526
0.0360568
0.0321264
0.028678
0.0256508
0.0229994
0.0206949
0.0187227
0.0170797
0.0157694
0.0148009
0.014163
0.013816
0.0137864
0.0140589
0.0146341
0.0154155
0.0163626
0.0174208
0.0185282
0.019615
0.0206178
0.0214333
0.0220287
0.022352
0.022353
0.0220238
0.0213186
0.0202432
0.0188243
0.017068
0.01504
0.012734
0.0102705
0.00753912
0.00476092
0.00150941
0.941812
0.942009
0.942212
0.942393
0.941885
0.940368
0.935899
0.92762
0.910487
0.88252
0.834431
0.765492
0.672311
0.54729
0.410795
0.293336
0.2056
0.144336
0.103647
0.0782189
0.0636087
0.0546734
0.0476388
0.0416395
0.0369074
0.0333106
0.0304232
0.0278989
0.0255746
0.0233993
0.0213615
0.0194617
0.0177087
0.0161204
0.0147202
0.0135357
0.0125906
0.0119217
0.0115509
0.0114754
0.0116826
0.012181
0.0129523
0.0139438
0.0151078
0.0163865
0.0177131
0.0190122
0.0202072
0.0212186
0.0219859
0.0224534
0.0225782
0.0223041
0.0216276
0.0205576
0.0191172
0.0173178
0.0152267
0.0128606
0.0103331
0.00758304
0.00477183
0.00159747
0.957577
0.958518
0.960198
0.962762
0.965564
0.968678
0.969952
0.969535
0.960422
0.942132
0.893134
0.812316
0.669292
0.48181
0.313305
0.193999
0.115918
0.067416
0.0410684
0.0306775
0.0303315
0.0315474
0.0309858
0.0294452
0.027776
0.0261732
0.0245994
0.0230238
0.0214462
0.0198778
0.0183344
0.0168364
0.0154098
0.0140859
0.012899
0.0118856
0.0110783
0.0105073
0.0101971
0.0101691
0.0104347
0.0109893
0.0118038
0.012843
0.0140639
0.0154036
0.0167956
0.0181648
0.0194335
0.020521
0.0213562
0.0218864
0.0220608
0.0218754
0.0211804
0.0201228
0.018682
0.0168754
0.0147673
0.0123958
0.00986662
0.00717318
0.00444837
0.00151426
0.97237
0.974076
0.977331
0.982405
0.988856
0.997049
1.00526
1.01451
1.0183
1.01911
0.988363
0.92646
0.715706
0.415177
0.218215
0.116072
0.0608147
0.0299536
0.0155926
0.0142018
0.0211211
0.0249284
0.0258992
0.0260937
0.0257559
0.0249198
0.0237447
0.0223846
0.020929
0.0194272
0.0179195
0.0164427
0.0150316
0.0137201
0.0125421
0.0115315
0.0107197
0.0101358
0.00980598
0.00974672
0.00996643
0.0104557
0.0112004
0.0121739
0.0133315
0.0146016
0.0159313
0.0172454
0.0184675
0.0195193
0.0203281
0.020849
0.0209785
0.0206919
0.0201094
0.0190928
0.0176778
0.0158998
0.013819
0.0114885
0.00901004
0.0064116
0.00385036
0.00120302
0.985416
0.98785
0.992638
1.00013
1.01023
1.02341
1.0389
1.05785
1.07679
1.09927
1.10927
1.12269
0.988589
0.491255
0.234305
0.113107
0.0566951
0.0317247
0.0205676
0.0169236
0.0235341
0.0268178
0.0270717
0.026767
0.0259419
0.0248151
0.0235155
0.0221129
0.0206549
0.0191797
0.0177184
0.0162991
0.0149497
0.0136986
0.0125751
0.0116084
0.0108265
0.0102555
0.00991709
0.00982438
0.00998433
0.010393
0.0110358
0.0118859
0.0129013
0.0140401
0.0152281
0.0164014
0.017488
0.0184166
0.0191154
0.0195173
0.0196288
0.0193682
0.0187529
0.0177526
0.0163789
0.0146614
0.0126528
0.0104151
0.00803548
0.00557626
0.00316717
0.00081114
0.995969
0.999039
1.00515
1.01477
1.02802
1.04566
1.06753
1.0952
1.12717
1.16685
1.20573
1.24909
1.2026
0.750941
0.463418
0.284374
0.170414
0.100623
0.058476
0.0298238
0.0251487
0.0283019
0.0276374
0.0272373
0.0263388
0.025168
0.023841
0.022427
0.0209734
0.0195164
0.0180853
0.0167059
0.0154029
0.0142009
0.0131245
0.0121977
0.0114429
0.0108805
0.0105273
0.0103926
0.0104804
0.0107864
0.0112968
0.0119876
0.0128245
0.0137629
0.0147456
0.0157127
0.0166008
0.017349
0.017898
0.0181968
0.0182183
0.0179247
0.0173027
0.0163399
0.0150409
0.0134297
0.0115518
0.00946967
0.00726152
0.00499413
0.00274148
0.000641681
1.00339
1.00694
1.01402
1.02522
1.0408
1.06181
1.08828
1.12247
1.16269
1.21373
1.26453
1.32525
1.29947
0.842984
0.53936
0.342279
0.211395
0.127615
0.074186
0.0340309
0.0262697
0.0298528
0.028845
0.0282697
0.0272661
0.0260077
0.0246072
0.0231379
0.0216499
0.0201797
0.0187555
0.0174005
0.0161355
0.0149802
0.0139531
0.0130714
0.0123503
0.0118028
0.0114425
0.0112706
0.0112868
0.0114847
0.0118506
0.0123623
0.012993
0.0137051
0.014449
0.0151762
0.0158351
0.0163753
0.0167503
0.0169205
0.01685
0.0165172
0.0159045
0.0150013
0.0138083
0.0123456
0.0106485
0.00876802
0.00676755
0.00471131
0.00267815
0.00078847
1.00723
1.01102
1.01862
1.03066
1.0475
1.07026
1.09922
1.1366
1.1811
1.23678
1.29344
1.35893
1.34297
0.900746
0.594659
0.385927
0.241889
0.146901
0.0849082
0.0368899
0.0269952
0.0309088
0.02973
0.029044
0.0279655
0.026645
0.0251938
0.0236892
0.0221841
0.0207166
0.0193147
0.0179999
0.0167896
0.0156987
0.0147397
0.013923
0.0132558
0.0127398
0.0123967
0.0122068
0.0121683
0.0122725
0.0125052
0.0128479
0.013275
0.013754
0.0142526
0.0147348
0.0151614
0.0154928
0.0156922
0.0157268
0.0155752
0.0152105
0.014618
0.0137924
0.0127261
0.011442
0.00995679
0.00829924
0.00650854
0.00463139
0.00273185
0.000881362
1.00722
1.01102
1.01861
1.03065
1.04749
1.07026
1.09921
1.13659
1.18109
1.23677
1.29343
1.35892
1.34296
0.900725
0.594632
0.385893
0.241848
0.146855
0.0848573
0.0368374
0.0269353
0.0308454
0.0296606
0.0289691
0.0278886
0.0265719
0.0251331
0.023652
0.0221834
0.0207667
0.0194297
0.0181928
0.0170708
0.0160751
0.0152132
0.0144899
0.0139076
0.0134686
0.0131491
0.0129606
0.0128902
0.0129246
0.0130484
0.0132447
0.0134941
0.0137736
0.0140588
0.0143248
0.0145448
0.0146912
0.0147374
0.0146586
0.0144343
0.0140448
0.0134775
0.0127249
0.0117987
0.0106961
0.00941693
0.00797098
0.00637319
0.00463821
0.00280493
0.000932733
1.00338
1.00692
1.014
1.0252
1.04079
1.0618
1.08826
1.12245
1.16267
1.2137
1.2645
1.32522
1.29942
0.842922
0.539278
0.342175
0.211272
0.127476
0.0740322
0.0338701
0.0260888
0.0296611
0.0286348
0.0280427
0.027033
0.0257859
0.0244225
0.0230234
0.0216444
0.0203249
0.0190929
0.017968
0.0169636
0.0160879
0.0153446
0.0147335
0.0142504
0.0138878
0.0136309
0.0134712
0.0133953
0.0133884
0.0134353
0.0135213
0.0136314
0.0137514
0.0138663
0.0139609
0.0140189
0.0140225
0.0139533
0.0137926
0.0135228
0.0131285
0.0125981
0.0119252
0.0111094
0.0101461
0.00903857
0.00777696
0.00634148
0.00470928
0.00289068
0.000954536
0.995945
0.999015
1.00512
1.01474
1.028
1.04563
1.0675
1.09516
1.12713
1.16681
1.20568
1.24903
1.20253
0.750837
0.463281
0.284205
0.170214
0.100394
0.0582217
0.0295519
0.0248473
0.0279794
0.0272824
0.0268532
0.0259447
0.0247932
0.0235288
0.0222323
0.020959
0.0197492
0.0186312
0.017624
0.0167397
0.0159845
0.0153585
0.0148572
0.0144713
0.014188
0.0139911
0.0138651
0.0137939
0.0137621
0.0137554
0.0137614
0.0137701
0.0137737
0.0137653
0.0137382
0.0136844
0.0135941
0.0134553
0.0132536
0.0129741
0.0126021
0.0121255
0.0115341
0.0108209
0.0099762
0.00898818
0.00783295
0.00648068
0.00488265
0.00302096
0.000935142
0.985383
0.987817
0.992604
1.0001
1.01019
1.02337
1.03885
1.0578
1.07673
1.09921
1.1092
1.12261
0.988492
0.491113
0.234112
0.112862
0.0564001
0.0313872
0.0201956
0.0165132
0.0231181
0.0263667
0.0265702
0.0262249
0.0253839
0.0242847
0.023074
0.021837
0.0206295
0.019493
0.0184558
0.0175361
0.016744
0.0160823
0.0155475
0.0151309
0.0148189
0.0145945
0.0144385
0.0143317
0.0142569
0.0141992
0.0141457
0.0140868
0.0140168
0.0139336
0.0138369
0.0137268
0.013602
0.0134587
0.0132894
0.0130828
0.0128249
0.0124999
0.0120922
0.0115854
0.0109648
0.0102114
0.00930589
0.00820904
0.00689208
0.00528436
0.00340606
0.00114684
0.972329
0.974035
0.977288
0.98236
0.988809
0.996998
1.0052
1.01445
1.01823
1.01903
0.988274
0.926357
0.715576
0.415006
0.217992
0.115794
0.0604857
0.0295783
0.0151747
0.0137433
0.020624
0.0243662
0.0252639
0.0254013
0.025046
0.0242527
0.0231983
0.0220513
0.0209118
0.0198309
0.0188431
0.0179713
0.0172273
0.0166134
0.016124
0.0157472
0.0154664
0.015262
0.0151121
0.0149938
0.0148905
0.0147916
0.0146849
0.0145629
0.0144239
0.0142703
0.0141065
0.0139378
0.0137675
0.0135956
0.0134179
0.0132246
0.013002
0.0127321
0.012397
0.0119729
0.0114375
0.0107588
0.00991596
0.00884793
0.00754273
0.00589208
0.00393631
0.00148262
0.957528
0.958468
0.960147
0.962709
0.965507
0.968618
0.969887
0.969463
0.960343
0.942043
0.893033
0.812198
0.669151
0.481639
0.313096
0.193745
0.115618
0.0670666
0.0406687
0.0302227
0.0298085
0.0309392
0.0302939
0.0286941
0.0270129
0.0254677
0.0240414
0.0227182
0.0215066
0.0204181
0.01946
0.018635
0.0179417
0.0173744
0.0169226
0.0165721
0.0163047
0.0161008
0.0159399
0.0157923
0.0156409
0.01549
0.0153252
0.01514
0.0149388
0.0147273
0.0145129
0.0143032
0.0141044
0.0139185
0.0137429
0.0135682
0.0133803
0.0131575
0.0128765
0.0125045
0.0120151
0.0113761
0.0105653
0.00949815
0.00817429
0.00646024
0.00437631
0.00171544
0.941755
0.941953
0.942154
0.942333
0.941821
0.9403
0.935826
0.92754
0.910399
0.882422
0.834322
0.765367
0.672168
0.547125
0.410603
0.293111
0.205338
0.144033
0.103298
0.0778168
0.0631443
0.0541422
0.0470529
0.0410231
0.0363032
0.0327851
0.0300649
0.0278121
0.0258708
0.0241887
0.0227435
0.0215154
0.0204837
0.0196274
0.0189252
0.0183539
0.0178887
0.0175035
0.017174
0.0168947
0.0166472
0.0163897
0.0161233
0.0158424
0.0155598
0.0152792
0.0150079
0.014753
0.0145196
0.0143086
0.0141166
0.0139329
0.013743
0.013523
0.0132508
0.0128902
0.0124209
0.0117816
0.0109631
0.0098707
0.0085188
0.006732
0.00457715
0.00172609
0.925756
0.925287
0.924191
0.922298
0.91901
0.913752
0.905043
0.891641
0.870663
0.840216
0.797046
0.739072
0.665554
0.571442
0.464512
0.364007
0.282088
0.219678
0.173028
0.13846
0.113246
0.0946649
0.0802122
0.0685319
0.0591456
0.0516902
0.0457042
0.0407781
0.0366518
0.0331815
0.0302725
0.0278447
0.0258248
0.0241488
0.022761
0.0216123
0.0206583
0.0198594
0.0191819
0.0186008
0.0180875
0.0176116
0.0171601
0.0167372
0.0163328
0.015951
0.0155956
0.0152694
0.0149737
0.0147067
0.0144628
0.0142295
0.0139904
0.0137201
0.0134001
0.0129924
0.0124748
0.0117877
0.0109259
0.00978428
0.00839853
0.00656703
0.00443252
0.0015522
0.910195
0.909173
0.907008
0.90345
0.897992
0.890015
0.878458
0.862194
0.839592
0.80912
0.769102
0.717522
0.653625
0.577018
0.492242
0.409506
0.33727
0.277917
0.22997
0.191332
0.160407
0.135742
0.115816
0.0994038
0.085778
0.0744802
0.0651055
0.0572779
0.0506982
0.0451515
0.0404781
0.0365466
0.0332426
0.0304668
0.0281348
0.0261738
0.0245213
0.0231226
0.0219312
0.0209069
0.0200142
0.0192229
0.0185118
0.0178687
0.0172822
0.0167469
0.0162595
0.0158166
0.0154142
0.0150457
0.014702
0.0143688
0.0140295
0.0136603
0.0132417
0.0127395
0.0121298
0.0113616
0.010423
0.00923257
0.00781382
0.00601548
0.00396251
0.0013351
0.895637
0.894186
0.891189
0.886374
0.879323
0.869494
0.856118
0.838301
0.814967
0.784929
0.747041
0.700138
0.64406
0.579905
0.510574
0.441281
0.377301
0.321353
0.273616
0.233221
0.199254
0.170859
0.147101
0.127076
0.1101
0.0957048
0.0835224
0.0732107
0.0644642
0.0570317
0.050714
0.045348
0.0407941
0.0369313
0.0336548
0.0308744
0.0285122
0.0265007
0.0247811
0.023303
0.022023
0.0209046
0.0199187
0.0190429
0.0182595
0.0175552
0.0169191
0.0163419
0.0158137
0.0153239
0.0148601
0.0144074
0.0139478
0.0134607
0.0129234
0.012309
0.0115903
0.0107355
0.00971707
0.00849905
0.00706006
0.00536267
0.00341553
0.0012011
0.882531
0.880764
0.877154
0.871436
0.863268
0.852214
0.837699
0.81903
0.795429
0.766059
0.730204
0.687397
0.637838
0.582586
0.523512
0.46352
0.405968
0.353326
0.306568
0.265625
0.230061
0.199366
0.172973
0.150281
0.130752
0.11396
0.0995583
0.0872275
0.0766733
0.067637
0.0599018
0.0532863
0.0476349
0.0428111
0.0386958
0.0351847
0.0321872
0.0296247
0.0274287
0.0255399
0.0239075
0.0224883
0.0212462
0.0201517
0.0191806
0.018313
0.0175322
0.0168232
0.0161717
0.015564
0.0149845
0.0144177
0.0138444
0.0132462
0.0125989
0.0118839
0.01107
0.0101444
0.00906414
0.00783787
0.00639986
0.0048204
0.00298327
0.0011394
0.871216
0.869226
0.865184
0.85884
0.849917
0.83807
0.822862
0.80377
0.780231
0.751703
0.717786
0.678339
0.633629
0.584445
0.532101
0.478498
0.425919
0.376365
0.331006
0.290209
0.253896
0.221824
0.193677
0.169085
0.147659
0.12904
0.112911
0.0989748
0.0869566
0.0766044
0.0676969
0.0600427
0.0534745
0.0478449
0.0430233
0.038895
0.0353594
0.0323287
0.0297266
0.0274867
0.0255517
0.0238727
0.0224078
0.0211219
0.0199855
0.0189737
0.0180646
0.0172393
0.0164799
0.0157697
0.0150912
0.0144279
0.0137595
0.01307
0.0123341
0.0115397
0.0106533
0.00967578
0.00855573
0.00733194
0.00591183
0.00443079
0.00269263
0.00109531
0.861935
0.859794
0.85546
0.848698
0.83928
0.826939
0.81134
0.792092
0.768797
0.741106
0.708796
0.671849
0.630526
0.58545
0.537638
0.488496
0.439675
0.392735
0.348794
0.308431
0.271826
0.238951
0.209667
0.183761
0.160962
0.140985
0.123547
0.108378
0.0952209
0.0838352
0.0740008
0.0655209
0.058221
0.0519453
0.0465556
0.0419292
0.0379583
0.0345482
0.0316163
0.0290906
0.0269088
0.0250171
0.0233691
0.0219254
0.0206523
0.0195208
0.0185056
0.0175844
0.0167366
0.0159434
0.0151853
0.0144454
0.0137028
0.0129426
0.0121399
0.0112863
0.0103482
0.00933472
0.00819201
0.00697413
0.00557764
0.00416564
0.00250662
0.00105282
0.854854
0.852615
0.848094
0.841065
0.83134
0.818708
0.80291
0.783648
0.760633
0.733627
0.702502
0.667297
0.62827
0.585959
0.541202
0.495108
0.448949
0.403975
0.361204
0.321306
0.284631
0.251304
0.221309
0.194531
0.170788
0.149851
0.131476
0.115416
0.101428
0.089282
0.0787608
0.0696662
0.061819
0.0550586
0.0492412
0.0442392
0.0399393
0.0362422
0.0330605
0.030318
0.0279487
0.0258949
0.0241072
0.0225427
0.0211648
0.0199415
0.0188449
0.0178504
0.0169352
0.0160792
0.0152615
0.0144648
0.0136679
0.0128566
0.0120065
0.0111113
0.0101386
0.00910135
0.00794647
0.00673418
0.00535871
0.00399118
0.00238961
0.00101664
0.850082
0.847785
0.843152
0.835969
0.826069
0.813281
0.797392
0.778166
0.755372
0.728837
0.698486
0.664389
0.626806
0.586224
0.543368
0.49917
0.45469
0.410998
0.369035
0.329506
0.292852
0.259292
0.228887
0.201585
0.177254
0.155708
0.136732
0.120095
0.105566
0.0929213
0.081947
0.072445
0.064234
0.0571506
0.0510477
0.0457945
0.0412744
0.0373849
0.0340356
0.0311476
0.0286521
0.0264893
0.0246072
0.0229612
0.0215124
0.0202269
0.0190752
0.0180312
0.0170707
0.0161726
0.0153153
0.0144812
0.0136487
0.0128042
0.0119238
0.0110023
0.0100084
0.00895671
0.00779563
0.00658724
0.00522669
0.00388543
0.00232106
0.000991789
0.847685
0.84536
0.840675
0.833421
0.823443
0.810588
0.794667
0.775469
0.752794
0.726498
0.696529
0.662973
0.626091
0.586343
0.544397
0.501103
0.457429
0.414365
0.372813
0.333485
0.296862
0.263207
0.232617
0.205069
0.180458
0.158618
0.139349
0.122429
0.107634
0.0947426
0.0835434
0.0738385
0.0654461
0.0582012
0.0519556
0.0465766
0.0419462
0.0379602
0.0345269
0.0315658
0.0290069
0.0267892
0.0248597
0.0231726
0.021688
0.0203712
0.0191917
0.0181227
0.0171394
0.0162202
0.0153432
0.0144904
0.0136404
0.0127795
0.0118844
0.0109501
0.00994621
0.00888756
0.00772408
0.00651724
0.00516498
0.00383508
0.00229026
0.000977878
)
;

boundaryField
{
    inlet
    {
        type            zeroGradient;
    }
    outlet
    {
        type            fixedValue;
        value           uniform 0;
    }
    top
    {
        type            symmetryPlane;
    }
    bottom
    {
        type            symmetryPlane;
    }
    frontAndBack
    {
        type            empty;
    }
}


// ************************************************************************* //
