/*--------------------------------*- C++ -*----------------------------------*\
  =========                 |
  \\      /  F ield         | OpenFOAM: The Open Source CFD Toolbox
   \\    /   O peration     | Website:  https://openfoam.org
    \\  /    A nd           | Version:  10
     \\/     M anipulation  |
\*---------------------------------------------------------------------------*/
FoamFile
{
    format      ascii;
    class       surfaceScalarField;
    location    "0.076";
    object      phi;
}
// * * * * * * * * * * * * * * * * * * * * * * * * * * * * * * * * * * * * * //

dimensions      [0 3 -1 0 0 0 0];

internalField   nonuniform List<scalar> 
7780
(
2.50004e-09
-3.68821e-14
2.50015e-09
-1.10359e-13
2.50034e-09
-1.8401e-13
2.5006e-09
-2.57751e-13
2.50094e-09
-3.31625e-13
2.50135e-09
-4.05696e-13
2.50183e-09
-4.80029e-13
2.50239e-09
-5.54739e-13
2.50302e-09
-6.29864e-13
2.50373e-09
-7.05575e-13
2.50451e-09
-7.81877e-13
2.50538e-09
-8.58993e-13
2.50632e-09
-9.36903e-13
2.50734e-09
-1.01587e-12
2.50844e-09
-1.09589e-12
2.50962e-09
-1.17724e-12
2.51088e-09
-1.25994e-12
2.51223e-09
-1.34432e-12
2.51366e-09
-1.43039e-12
2.51519e-09
-1.51853e-12
2.5168e-09
-1.60876e-12
2.51851e-09
-1.70148e-12
2.52031e-09
-1.79673e-12
2.52221e-09
-1.89495e-12
2.52421e-09
-1.99618e-12
2.52632e-09
-2.10086e-12
2.52853e-09
-2.20907e-12
2.53086e-09
-2.32125e-12
2.5333e-09
-2.43751e-12
2.53587e-09
-2.55829e-12
2.53856e-09
-2.68372e-12
2.54138e-09
-2.81425e-12
2.54434e-09
-2.95004e-12
2.54743e-09
-3.09153e-12
2.55068e-09
-3.2389e-12
2.55408e-09
-3.39261e-12
2.55764e-09
-3.55283e-12
2.56137e-09
-3.72004e-12
2.56527e-09
-3.89442e-12
2.56936e-09
-4.07645e-12
2.57363e-09
-4.26631e-12
2.57811e-09
-4.46448e-12
2.58279e-09
-4.67114e-12
2.58768e-09
-4.88677e-12
2.59281e-09
-5.11156e-12
2.59816e-09
-5.34595e-12
2.60376e-09
-5.59012e-12
2.60962e-09
-5.8445e-12
2.61574e-09
-6.10925e-12
2.62214e-09
-6.38476e-12
2.62882e-09
-6.67115e-12
2.6358e-09
-6.96876e-12
2.64309e-09
-7.27765e-12
2.6507e-09
-7.59806e-12
2.65865e-09
-7.93001e-12
2.66694e-09
-8.2736e-12
2.67558e-09
-8.62871e-12
2.68459e-09
-8.99532e-12
2.69398e-09
-9.37315e-12
2.70376e-09
-9.76193e-12
2.71393e-09
-1.01612e-11
2.72452e-09
-1.05704e-11
2.73553e-09
-1.09887e-11
2.74696e-09
-1.14154e-11
2.75883e-09
-1.18493e-11
2.77114e-09
-1.2289e-11
2.78389e-09
-1.27332e-11
2.79709e-09
-1.318e-11
2.81074e-09
-1.36274e-11
2.82484e-09
-1.40732e-11
2.83937e-09
-1.4515e-11
2.85435e-09
-1.49498e-11
2.86974e-09
-1.5375e-11
2.88556e-09
-1.57872e-11
2.90176e-09
-1.61832e-11
2.91835e-09
-1.65594e-11
2.93528e-09
-1.69126e-11
2.95255e-09
-1.72388e-11
2.97011e-09
-1.75352e-11
2.98794e-09
-1.77979e-11
3.00599e-09
-1.80243e-11
3.02424e-09
-1.82112e-11
3.04262e-09
-1.83569e-11
3.06112e-09
-1.84588e-11
3.07966e-09
-1.85161e-11
3.09822e-09
-1.85274e-11
3.11674e-09
-1.84931e-11
3.1352e-09
-1.84128e-11
3.15351e-09
-1.82881e-11
3.17168e-09
-1.81195e-11
3.18961e-09
-1.791e-11
3.20732e-09
-1.76605e-11
3.22472e-09
-1.73751e-11
3.24183e-09
-1.70553e-11
3.25856e-09
-1.67056e-11
3.27494e-09
-1.63279e-11
3.29089e-09
-1.59271e-11
3.30645e-09
-1.55049e-11
3.32154e-09
-1.50664e-11
3.33621e-09
-1.46131e-11
3.35038e-09
-1.41502e-11
3.36412e-09
-1.36785e-11
3.37735e-09
-1.32032e-11
3.39013e-09
-1.27246e-11
3.4024e-09
-1.22474e-11
3.41424e-09
-1.17716e-11
3.42556e-09
-1.13015e-11
3.43646e-09
-1.08365e-11
3.44686e-09
-1.03807e-11
3.45686e-09
-9.93282e-12
3.46638e-09
-9.49673e-12
3.47552e-09
-9.07074e-12
3.48419e-09
-8.65842e-12
3.49252e-09
-8.25764e-12
3.50041e-09
-7.8718e-12
3.50798e-09
-7.49839e-12
3.51513e-09
-7.14067e-12
3.522e-09
-6.79575e-12
3.52848e-09
-6.46684e-12
3.53471e-09
-6.15072e-12
3.54057e-09
-5.85055e-12
3.54621e-09
-5.56286e-12
3.55151e-09
-5.29079e-12
3.55662e-09
-5.03064e-12
3.56141e-09
-4.78561e-12
3.56604e-09
-4.55179e-12
3.57038e-09
-4.33246e-12
3.57458e-09
-4.12354e-12
3.57852e-09
-3.92845e-12
3.58234e-09
-3.74292e-12
3.58591e-09
-3.57055e-12
3.5894e-09
-3.40691e-12
3.59266e-09
-3.25579e-12
3.59586e-09
-3.11258e-12
3.59884e-09
-2.98132e-12
3.60178e-09
-2.85719e-12
3.60452e-09
-2.74452e-12
3.60725e-09
-2.63826e-12
3.60978e-09
-2.54304e-12
3.61233e-09
-2.45357e-12
3.61469e-09
-2.37485e-12
3.61709e-09
-2.30129e-12
3.61931e-09
-2.23825e-12
3.6216e-09
-2.17987e-12
3.6237e-09
-2.13192e-12
3.6259e-09
-2.08815e-12
3.62793e-09
-2.05482e-12
3.63006e-09
-2.02525e-12
3.63204e-09
-2.0062e-12
3.63414e-09
-1.99052e-12
3.63609e-09
-1.98547e-12
3.6382e-09
-1.98336e-12
3.64015e-09
-1.99198e-12
3.64228e-09
-2.00303e-12
3.64425e-09
-2.02482e-12
3.64643e-09
-2.04843e-12
3.64846e-09
-2.08263e-12
3.65072e-09
-2.11787e-12
3.65283e-09
-2.16339e-12
3.65518e-09
-2.20901e-12
3.65739e-09
-2.26446e-12
3.65986e-09
-2.31897e-12
3.66218e-09
-2.38279e-12
3.66479e-09
-2.44463e-12
3.66724e-09
-2.51536e-12
3.66999e-09
-2.58323e-12
3.67258e-09
-2.65984e-12
3.6755e-09
-2.733e-12
3.67824e-09
-2.81523e-12
3.68133e-09
-2.89383e-12
3.68424e-09
-2.98244e-12
3.68752e-09
-3.06773e-12
3.6906e-09
-3.16463e-12
3.69409e-09
-3.25895e-12
3.69736e-09
-3.36712e-12
3.70108e-09
-3.47371e-12
3.70457e-09
-3.59686e-12
3.70857e-09
-3.7195e-12
3.71231e-09
-3.86159e-12
3.71662e-09
-4.00397e-12
3.72064e-09
-4.16858e-12
3.72531e-09
-4.33366e-12
3.72967e-09
-4.52325e-12
3.73474e-09
-4.71253e-12
3.73949e-09
-4.92769e-12
3.74502e-09
-5.14047e-12
3.75019e-09
-5.3793e-12
3.75622e-09
-5.61232e-12
3.76185e-09
-5.87025e-12
3.7684e-09
-6.11782e-12
3.77451e-09
-6.38798e-12
3.78159e-09
-6.6423e-12
3.78821e-09
-6.91606e-12
3.79584e-09
-7.16797e-12
3.80295e-09
-7.43588e-12
3.8111e-09
-7.67669e-12
3.8189e-09
-7.92614e-12
3.82702e-09
-8.15957e-12
3.83537e-09
-8.3398e-12
-8.68258e-12
2.50004e-09
-7.35358e-14
2.50015e-09
-2.20221e-13
2.50034e-09
-3.67212e-13
2.5006e-09
-5.14439e-13
2.50094e-09
-6.61984e-13
2.50134e-09
-8.09959e-13
2.50183e-09
-9.58465e-13
2.50238e-09
-1.10766e-12
2.50301e-09
-1.25768e-12
2.50372e-09
-1.40872e-12
2.5045e-09
-1.56096e-12
2.50536e-09
-1.71464e-12
2.5063e-09
-1.86995e-12
2.50731e-09
-2.02719e-12
2.50841e-09
-2.18661e-12
2.50958e-09
-2.34854e-12
2.51084e-09
-2.51326e-12
2.51218e-09
-2.68116e-12
2.51361e-09
-2.85258e-12
2.51512e-09
-3.02794e-12
2.51673e-09
-3.20761e-12
2.51842e-09
-3.39207e-12
2.52021e-09
-3.58173e-12
2.5221e-09
-3.7771e-12
2.52409e-09
-3.97863e-12
2.52618e-09
-4.18686e-12
2.52838e-09
-4.40227e-12
2.53069e-09
-4.62544e-12
2.53312e-09
-4.85687e-12
2.53566e-09
-5.09719e-12
2.53833e-09
-5.34692e-12
2.54113e-09
-5.6067e-12
2.54407e-09
-5.87709e-12
2.54714e-09
-6.15876e-12
2.55036e-09
-6.45228e-12
2.55374e-09
-6.75834e-12
2.55727e-09
-7.07754e-12
2.56097e-09
-7.41059e-12
2.56484e-09
-7.75808e-12
2.5689e-09
-8.12074e-12
2.57314e-09
-8.49919e-12
2.57758e-09
-8.89414e-12
2.58222e-09
-9.30622e-12
2.58708e-09
-9.73613e-12
2.59217e-09
-1.01845e-11
2.59748e-09
-1.0652e-11
2.60305e-09
-1.11392e-11
2.60886e-09
-1.16468e-11
2.61494e-09
-1.21753e-11
2.62129e-09
-1.27253e-11
2.62793e-09
-1.32973e-11
2.63487e-09
-1.38918e-11
2.64211e-09
-1.45091e-11
2.64968e-09
-1.51496e-11
2.65758e-09
-1.58135e-11
2.66582e-09
-1.65008e-11
2.67442e-09
-1.72116e-11
2.68339e-09
-1.79458e-11
2.69273e-09
-1.87028e-11
2.70247e-09
-1.94822e-11
2.71261e-09
-2.02831e-11
2.72316e-09
-2.11045e-11
2.73414e-09
-2.19449e-11
2.74554e-09
-2.28027e-11
2.75739e-09
-2.36757e-11
2.76968e-09
-2.45614e-11
2.78243e-09
-2.54567e-11
2.79563e-09
-2.63583e-11
2.80928e-09
-2.72621e-11
2.8234e-09
-2.81637e-11
2.83796e-09
-2.9058e-11
2.85298e-09
-2.99396e-11
2.86843e-09
-3.08023e-11
2.88431e-09
-3.16398e-11
2.9006e-09
-3.24453e-11
2.91728e-09
-3.32115e-11
2.93432e-09
-3.39314e-11
2.95171e-09
-3.45975e-11
2.96941e-09
-3.52027e-11
2.98738e-09
-3.57401e-11
3.00559e-09
-3.62033e-11
3.024e-09
-3.65865e-11
3.04256e-09
-3.68848e-11
3.06123e-09
-3.70941e-11
3.07995e-09
-3.72116e-11
3.0987e-09
-3.72354e-11
3.1174e-09
-3.71652e-11
3.13603e-09
-3.70014e-11
3.15452e-09
-3.6746e-11
3.17285e-09
-3.6402e-11
3.19094e-09
-3.59732e-11
3.20879e-09
-3.54646e-11
3.22633e-09
-3.48816e-11
3.24356e-09
-3.42304e-11
3.2604e-09
-3.35176e-11
3.27687e-09
-3.27498e-11
3.29291e-09
-3.19341e-11
3.30854e-09
-3.10775e-11
3.32369e-09
-3.01869e-11
3.3384e-09
-2.92688e-11
3.35261e-09
-2.83299e-11
3.36637e-09
-2.73762e-11
3.37961e-09
-2.64137e-11
3.39239e-09
-2.54475e-11
3.40465e-09
-2.44827e-11
3.41647e-09
-2.35237e-11
3.42777e-09
-2.25747e-11
3.43863e-09
-2.16391e-11
3.449e-09
-2.07203e-11
3.45895e-09
-1.98207e-11
3.46843e-09
-1.89431e-11
3.47751e-09
-1.8089e-11
3.48614e-09
-1.72604e-11
3.49441e-09
-1.64582e-11
3.50224e-09
-1.56838e-11
3.50975e-09
-1.49375e-11
3.51685e-09
-1.42202e-11
3.52366e-09
-1.35317e-11
3.53009e-09
-1.28725e-11
3.53625e-09
-1.22422e-11
3.54206e-09
-1.16409e-11
3.54763e-09
-1.10678e-11
3.55289e-09
-1.05229e-11
3.55793e-09
-1.00051e-11
3.56268e-09
-9.51431e-12
3.56725e-09
-9.04937e-12
3.57154e-09
-8.61001e-12
3.57569e-09
-8.19503e-12
3.57958e-09
-7.80411e-12
3.58335e-09
-7.43603e-12
3.58688e-09
-7.0905e-12
3.59032e-09
-6.7663e-12
3.59354e-09
-6.46315e-12
3.59668e-09
-6.17987e-12
3.59963e-09
-5.91625e-12
3.60252e-09
-5.67113e-12
3.60523e-09
-5.44441e-12
3.60791e-09
-5.23493e-12
3.61041e-09
-5.04274e-12
3.61291e-09
-4.86673e-12
3.61524e-09
-4.70706e-12
3.61759e-09
-4.5627e-12
3.61979e-09
-4.43394e-12
3.62202e-09
-4.31984e-12
3.6241e-09
-4.22079e-12
3.62624e-09
-4.13593e-12
3.62824e-09
-4.06576e-12
3.63032e-09
-4.00947e-12
3.63227e-09
-3.96761e-12
3.63432e-09
-3.9394e-12
3.63624e-09
-3.92538e-12
3.63829e-09
-3.92475e-12
3.64021e-09
-3.93802e-12
3.64228e-09
-3.96424e-12
3.64424e-09
-4.00386e-12
3.64636e-09
-4.05571e-12
3.64837e-09
-4.12016e-12
3.65056e-09
-4.19575e-12
3.65265e-09
-4.28276e-12
3.65495e-09
-4.37944e-12
3.65714e-09
-4.48606e-12
3.65955e-09
-4.6006e-12
3.66186e-09
-4.72346e-12
3.6644e-09
-4.85247e-12
3.66684e-09
-4.98834e-12
3.66953e-09
-5.12889e-12
3.67211e-09
-5.27536e-12
3.67495e-09
-5.42576e-12
3.67769e-09
-5.58204e-12
3.6807e-09
-5.7425e-12
3.68359e-09
-5.90995e-12
3.68678e-09
-6.08306e-12
3.68984e-09
-6.2655e-12
3.69323e-09
-6.45626e-12
3.69647e-09
-6.65975e-12
3.70008e-09
-6.87518e-12
3.70354e-09
-7.10746e-12
3.70741e-09
-7.35575e-12
3.7111e-09
-7.62516e-12
3.71527e-09
-7.91452e-12
3.71925e-09
-8.22869e-12
3.72376e-09
-8.56586e-12
3.72807e-09
-8.9302e-12
3.73298e-09
-9.31894e-12
3.73768e-09
-9.73513e-12
3.74304e-09
-1.01747e-11
3.74818e-09
-1.06393e-11
3.75403e-09
-1.11236e-11
3.75964e-09
-1.16277e-11
3.76602e-09
-1.2145e-11
3.77213e-09
-1.26742e-11
3.77905e-09
-1.3208e-11
3.78567e-09
-1.37441e-11
3.79315e-09
-1.42747e-11
3.8003e-09
-1.47972e-11
3.8083e-09
-1.53055e-11
3.81613e-09
-1.57898e-11
3.82417e-09
-1.62741e-11
3.83247e-09
-1.66396e-11
-1.73346e-11
2.50004e-09
-1.10049e-13
2.50015e-09
-3.29663e-13
2.50034e-09
-5.49669e-13
2.5006e-09
-7.70002e-13
2.50093e-09
-9.90777e-13
2.50134e-09
-1.21214e-12
2.50182e-09
-1.43425e-12
2.50237e-09
-1.6573e-12
2.503e-09
-1.8815e-12
2.5037e-09
-2.10712e-12
2.50448e-09
-2.33443e-12
2.50533e-09
-2.56376e-12
2.50626e-09
-2.79545e-12
2.50726e-09
-3.02989e-12
2.50835e-09
-3.26751e-12
2.50951e-09
-3.50875e-12
2.51076e-09
-3.75411e-12
2.51208e-09
-4.00411e-12
2.5135e-09
-4.2593e-12
2.51499e-09
-4.52028e-12
2.51658e-09
-4.78766e-12
2.51825e-09
-5.06211e-12
2.52002e-09
-5.34428e-12
2.52188e-09
-5.63491e-12
2.52385e-09
-5.93471e-12
2.52591e-09
-6.24446e-12
2.52808e-09
-6.56493e-12
2.53036e-09
-6.89693e-12
2.53275e-09
-7.2413e-12
2.53526e-09
-7.5989e-12
2.53789e-09
-7.97058e-12
2.54065e-09
-8.35725e-12
2.54354e-09
-8.75982e-12
2.54656e-09
-9.17922e-12
2.54974e-09
-9.61638e-12
2.55306e-09
-1.00723e-11
2.55654e-09
-1.05479e-11
2.56018e-09
-1.10442e-11
2.56399e-09
-1.15622e-11
2.56798e-09
-1.21029e-11
2.57216e-09
-1.26673e-11
2.57653e-09
-1.32564e-11
2.58111e-09
-1.38713e-11
2.5859e-09
-1.45129e-11
2.59091e-09
-1.51823e-11
2.59614e-09
-1.58804e-11
2.60163e-09
-1.66083e-11
2.60736e-09
-1.73669e-11
2.61335e-09
-1.8157e-11
2.61962e-09
-1.89796e-11
2.62617e-09
-1.98355e-11
2.63302e-09
-2.07255e-11
2.64017e-09
-2.16501e-11
2.64765e-09
-2.26099e-11
2.65545e-09
-2.36054e-11
2.6636e-09
-2.46368e-11
2.67211e-09
-2.57042e-11
2.68099e-09
-2.68075e-11
2.69025e-09
-2.79462e-11
2.69991e-09
-2.91197e-11
2.70997e-09
-3.03269e-11
2.72045e-09
-3.15663e-11
2.73136e-09
-3.28361e-11
2.74271e-09
-3.41338e-11
2.75451e-09
-3.54563e-11
2.76677e-09
-3.68001e-11
2.77949e-09
-3.81608e-11
2.79269e-09
-3.95333e-11
2.80636e-09
-4.09117e-11
2.82051e-09
-4.22892e-11
2.83513e-09
-4.36583e-11
2.85023e-09
-4.50104e-11
2.86579e-09
-4.63365e-11
2.8818e-09
-4.76263e-11
2.89825e-09
-4.88692e-11
2.91512e-09
-5.00541e-11
2.93239e-09
-5.11693e-11
2.95002e-09
-5.22032e-11
2.96799e-09
-5.31441e-11
2.98626e-09
-5.3981e-11
3.00479e-09
-5.47034e-11
3.02354e-09
-5.53019e-11
3.04245e-09
-5.57683e-11
3.06149e-09
-5.60961e-11
3.08059e-09
-5.62806e-11
3.09972e-09
-5.6319e-11
3.11879e-09
-5.62103e-11
3.13779e-09
-5.59558e-11
3.15663e-09
-5.55586e-11
3.1753e-09
-5.50236e-11
3.19371e-09
-5.43572e-11
3.21186e-09
-5.35674e-11
3.22967e-09
-5.26632e-11
3.24715e-09
-5.16545e-11
3.26421e-09
-5.05517e-11
3.28088e-09
-4.9366e-11
3.29708e-09
-4.81083e-11
3.31285e-09
-4.67896e-11
3.32812e-09
-4.54207e-11
3.34291e-09
-4.40122e-11
3.35719e-09
-4.25738e-11
3.37098e-09
-4.11151e-11
3.38425e-09
-3.96448e-11
3.39703e-09
-3.81711e-11
3.40928e-09
-3.67015e-11
3.42106e-09
-3.52426e-11
3.43231e-09
-3.38007e-11
3.44312e-09
-3.23811e-11
3.45341e-09
-3.09885e-11
3.46328e-09
-2.96269e-11
3.47267e-09
-2.82998e-11
3.48165e-09
-2.701e-11
3.49018e-09
-2.576e-11
3.49834e-09
-2.45514e-11
3.50607e-09
-2.33856e-11
3.51346e-09
-2.22636e-11
3.52045e-09
-2.11859e-11
3.52714e-09
-2.01528e-11
3.53345e-09
-1.91643e-11
3.5395e-09
-1.822e-11
3.5452e-09
-1.73195e-11
3.55066e-09
-1.64621e-11
3.55581e-09
-1.56471e-11
3.56074e-09
-1.48734e-11
3.56539e-09
-1.41401e-11
3.56986e-09
-1.34461e-11
3.57406e-09
-1.27902e-11
3.5781e-09
-1.21713e-11
3.5819e-09
-1.15883e-11
3.58558e-09
-1.10398e-11
3.58903e-09
-1.05248e-11
3.59238e-09
-1.00421e-11
3.59552e-09
-9.59057e-12
3.59859e-09
-9.16906e-12
3.60146e-09
-8.77665e-12
3.60428e-09
-8.41217e-12
3.60691e-09
-8.07482e-12
3.60952e-09
-7.76351e-12
3.61196e-09
-7.47757e-12
3.6144e-09
-7.21601e-12
3.61667e-09
-6.97833e-12
3.61896e-09
-6.76366e-12
3.62109e-09
-6.57172e-12
3.62326e-09
-6.40177e-12
3.62529e-09
-6.25372e-12
3.62737e-09
-6.12704e-12
3.62932e-09
-6.02176e-12
3.63134e-09
-5.93755e-12
3.63324e-09
-5.87446e-12
3.63523e-09
-5.83234e-12
3.6371e-09
-5.81114e-12
3.63909e-09
-5.81079e-12
3.64096e-09
-5.83104e-12
3.64298e-09
-5.87177e-12
3.64488e-09
-5.9324e-12
3.64695e-09
-6.01265e-12
3.64892e-09
-6.11154e-12
3.65106e-09
-6.22847e-12
3.65312e-09
-6.36212e-12
3.65537e-09
-6.51149e-12
3.65753e-09
-6.67502e-12
3.6599e-09
-6.85134e-12
3.66219e-09
-7.03897e-12
3.6647e-09
-7.23628e-12
3.66713e-09
-7.4422e-12
3.66979e-09
-7.65511e-12
3.67236e-09
-7.87478e-12
3.67518e-09
-8.09988e-12
3.6779e-09
-8.33136e-12
3.68088e-09
-8.56844e-12
3.68375e-09
-8.8135e-12
3.6869e-09
-9.06643e-12
3.68993e-09
-9.33102e-12
3.69326e-09
-9.60784e-12
3.69646e-09
-9.90188e-12
3.70001e-09
-1.02142e-11
3.7034e-09
-1.05506e-11
3.70718e-09
-1.09123e-11
3.71081e-09
-1.13051e-11
3.71487e-09
-1.17303e-11
3.71877e-09
-1.21929e-11
3.72317e-09
-1.26936e-11
3.7274e-09
-1.3236e-11
3.7322e-09
-1.38197e-11
3.73682e-09
-1.44458e-11
3.74208e-09
-1.51126e-11
3.74716e-09
-1.58182e-11
3.75294e-09
-1.65594e-11
3.75851e-09
-1.73309e-11
3.76484e-09
-1.81282e-11
3.77095e-09
-1.89428e-11
3.77787e-09
-1.97694e-11
3.78454e-09
-2.05972e-11
3.79205e-09
-2.1421e-11
3.79929e-09
-2.22282e-11
3.80736e-09
-2.30165e-11
3.81531e-09
-2.37643e-11
3.82347e-09
-2.45105e-11
3.83191e-09
-2.50753e-11
-2.61411e-11
2.50004e-09
-1.46328e-13
2.50015e-09
-4.3844e-13
2.50034e-09
-7.31e-13
2.50059e-09
-1.02392e-12
2.50093e-09
-1.31733e-12
2.50133e-09
-1.61142e-12
2.5018e-09
-1.90635e-12
2.50235e-09
-2.20237e-12
2.50297e-09
-2.49976e-12
2.50367e-09
-2.79884e-12
2.50444e-09
-3.09997e-12
2.50528e-09
-3.40359e-12
2.5062e-09
-3.71013e-12
2.50719e-09
-4.02014e-12
2.50826e-09
-4.33415e-12
2.50941e-09
-4.6528e-12
2.51064e-09
-4.97672e-12
2.51194e-09
-5.30663e-12
2.51333e-09
-5.64327e-12
2.51481e-09
-5.98743e-12
2.51636e-09
-6.33994e-12
2.51801e-09
-6.70169e-12
2.51974e-09
-7.07357e-12
2.52157e-09
-7.45655e-12
2.52349e-09
-7.8516e-12
2.52551e-09
-8.25976e-12
2.52764e-09
-8.68207e-12
2.52987e-09
-9.11961e-12
2.53221e-09
-9.57352e-12
2.53466e-09
-1.00449e-11
2.53723e-09
-1.0535e-11
2.53992e-09
-1.10449e-11
2.54275e-09
-1.1576e-11
2.54571e-09
-1.21294e-11
2.5488e-09
-1.27064e-11
2.55205e-09
-1.33083e-11
2.55545e-09
-1.39364e-11
2.559e-09
-1.45921e-11
2.56273e-09
-1.52766e-11
2.56662e-09
-1.59914e-11
2.5707e-09
-1.67378e-11
2.57497e-09
-1.75171e-11
2.57944e-09
-1.83309e-11
2.58412e-09
-1.91803e-11
2.58902e-09
-2.00669e-11
2.59414e-09
-2.0992e-11
2.5995e-09
-2.19568e-11
2.60511e-09
-2.29629e-11
2.61097e-09
-2.40113e-11
2.61711e-09
-2.51035e-11
2.62353e-09
-2.62405e-11
2.63024e-09
-2.74234e-11
2.63726e-09
-2.86534e-11
2.64459e-09
-2.99311e-11
2.65226e-09
-3.12575e-11
2.66027e-09
-3.26329e-11
2.66864e-09
-3.40578e-11
2.67738e-09
-3.55322e-11
2.68651e-09
-3.70558e-11
2.69603e-09
-3.86279e-11
2.70597e-09
-4.02476e-11
2.71634e-09
-4.19132e-11
2.72714e-09
-4.36225e-11
2.7384e-09
-4.53725e-11
2.75012e-09
-4.71597e-11
2.76232e-09
-4.89795e-11
2.77501e-09
-5.08263e-11
2.78819e-09
-5.26937e-11
2.80187e-09
-5.45739e-11
2.81607e-09
-5.64579e-11
2.83077e-09
-5.83356e-11
2.84598e-09
-6.01954e-11
2.86169e-09
-6.20246e-11
2.8779e-09
-6.38091e-11
2.89459e-09
-6.55339e-11
2.91175e-09
-6.71828e-11
2.92934e-09
-6.87392e-11
2.94736e-09
-7.01859e-11
2.96574e-09
-7.1506e-11
2.98448e-09
-7.26828e-11
3.0035e-09
-7.37007e-11
3.02278e-09
-7.45456e-11
3.04225e-09
-7.52051e-11
3.06186e-09
-7.56695e-11
3.08154e-09
-7.59316e-11
3.10125e-09
-7.59873e-11
3.1209e-09
-7.58356e-11
3.14047e-09
-7.54784e-11
3.15986e-09
-7.49206e-11
3.17905e-09
-7.41698e-11
3.19796e-09
-7.32356e-11
3.21657e-09
-7.213e-11
3.2348e-09
-7.08664e-11
3.25266e-09
-6.94593e-11
3.27006e-09
-6.79241e-11
3.28702e-09
-6.62768e-11
3.30348e-09
-6.45333e-11
3.31945e-09
-6.27094e-11
3.33488e-09
-6.08204e-11
3.34981e-09
-5.88811e-11
3.36417e-09
-5.69053e-11
3.37802e-09
-5.49062e-11
3.3913e-09
-5.28956e-11
3.40407e-09
-5.08848e-11
3.41628e-09
-4.88836e-11
3.428e-09
-4.69012e-11
3.43917e-09
-4.49453e-11
3.44988e-09
-4.30231e-11
3.46006e-09
-4.11407e-11
3.4698e-09
-3.93032e-11
3.47904e-09
-3.75151e-11
3.48787e-09
-3.578e-11
3.49624e-09
-3.41008e-11
3.50423e-09
-3.24796e-11
3.51179e-09
-3.09181e-11
3.51901e-09
-2.94172e-11
3.52583e-09
-2.79777e-11
3.53234e-09
-2.65994e-11
3.53848e-09
-2.52823e-11
3.54435e-09
-2.40255e-11
3.54989e-09
-2.28284e-11
3.55518e-09
-2.16897e-11
3.56016e-09
-2.06083e-11
3.56494e-09
-1.95826e-11
3.56943e-09
-1.86113e-11
3.57375e-09
-1.76926e-11
3.5778e-09
-1.6825e-11
3.58171e-09
-1.60068e-11
3.58537e-09
-1.52364e-11
3.58892e-09
-1.4512e-11
3.59224e-09
-1.38322e-11
3.59546e-09
-1.31952e-11
3.59849e-09
-1.25996e-11
3.60144e-09
-1.20437e-11
3.6042e-09
-1.15263e-11
3.60691e-09
-1.10457e-11
3.60944e-09
-1.06011e-11
3.61195e-09
-1.01908e-11
3.61429e-09
-9.81395e-12
3.61662e-09
-9.46929e-12
3.6188e-09
-9.15611e-12
3.621e-09
-8.87324e-12
3.62304e-09
-8.62023e-12
3.62512e-09
-8.39613e-12
3.62707e-09
-8.20074e-12
3.62906e-09
-8.0334e-12
3.63093e-09
-7.89416e-12
3.63287e-09
-7.78263e-12
3.63468e-09
-7.69903e-12
3.63659e-09
-7.64324e-12
3.63838e-09
-7.61545e-12
3.64028e-09
-7.6157e-12
3.64208e-09
-7.64393e-12
3.64401e-09
-7.70017e-12
3.64584e-09
-7.78385e-12
3.64784e-09
-7.89476e-12
3.64973e-09
-8.03164e-12
3.65181e-09
-8.19379e-12
3.6538e-09
-8.37925e-12
3.656e-09
-8.58664e-12
3.65811e-09
-8.81348e-12
3.66044e-09
-9.05771e-12
3.66269e-09
-9.31676e-12
3.66516e-09
-9.58806e-12
3.66756e-09
-9.86959e-12
3.6702e-09
-1.01586e-11
3.67275e-09
-1.04544e-11
3.67554e-09
-1.07547e-11
3.67824e-09
-1.10605e-11
3.68119e-09
-1.13703e-11
3.68403e-09
-1.16876e-11
3.68714e-09
-1.20119e-11
3.69012e-09
-1.2349e-11
3.6934e-09
-1.26996e-11
3.69653e-09
-1.30712e-11
3.69998e-09
-1.34656e-11
3.70328e-09
-1.38916e-11
3.70694e-09
-1.43514e-11
3.71044e-09
-1.48541e-11
3.71436e-09
-1.54019e-11
3.71812e-09
-1.60029e-11
3.72236e-09
-1.66589e-11
3.72644e-09
-1.73754e-11
3.73108e-09
-1.81531e-11
3.73555e-09
-1.89938e-11
3.74068e-09
-1.98963e-11
3.74562e-09
-2.08575e-11
3.7513e-09
-2.18739e-11
3.75679e-09
-2.29372e-11
3.76307e-09
-2.40417e-11
3.76915e-09
-2.51739e-11
3.77608e-09
-2.63265e-11
3.78278e-09
-2.74824e-11
3.79038e-09
-2.86341e-11
3.79773e-09
-2.97618e-11
3.80595e-09
-3.08619e-11
3.81407e-09
-3.1903e-11
3.82242e-09
-3.29369e-11
3.83107e-09
-3.37166e-11
-3.51785e-11
2.50004e-09
-1.82353e-13
2.50015e-09
-5.4648e-13
2.50033e-09
-9.11079e-13
2.50059e-09
-1.276e-12
2.50092e-09
-1.64137e-12
2.50132e-09
-2.00737e-12
2.50179e-09
-2.37418e-12
2.50233e-09
-2.74208e-12
2.50295e-09
-3.11139e-12
2.50363e-09
-3.48248e-12
2.50439e-09
-3.8558e-12
2.50522e-09
-4.23187e-12
2.50613e-09
-4.61126e-12
2.50711e-09
-4.9946e-12
2.50816e-09
-5.38262e-12
2.50929e-09
-5.77606e-12
2.51049e-09
-6.17577e-12
2.51177e-09
-6.58263e-12
2.51313e-09
-6.99759e-12
2.51457e-09
-7.42164e-12
2.51609e-09
-7.85585e-12
2.51769e-09
-8.30131e-12
2.51939e-09
-8.75917e-12
2.52116e-09
-9.23064e-12
2.52304e-09
-9.71696e-12
2.525e-09
-1.02194e-11
2.52707e-09
-1.07393e-11
2.52923e-09
-1.1278e-11
2.5315e-09
-1.1837e-11
2.53388e-09
-1.24176e-11
2.53637e-09
-1.30213e-11
2.53898e-09
-1.36498e-11
2.54172e-09
-1.43044e-11
2.54459e-09
-1.49867e-11
2.54759e-09
-1.56984e-11
2.55073e-09
-1.64412e-11
2.55402e-09
-1.72165e-11
2.55746e-09
-1.80262e-11
2.56106e-09
-1.88719e-11
2.56484e-09
-1.97554e-11
2.56879e-09
-2.06783e-11
2.57292e-09
-2.16425e-11
2.57725e-09
-2.26496e-11
2.58178e-09
-2.37015e-11
2.58653e-09
-2.47999e-11
2.59149e-09
-2.59466e-11
2.59669e-09
-2.71433e-11
2.60213e-09
-2.83919e-11
2.60782e-09
-2.96938e-11
2.61378e-09
-3.1051e-11
2.62002e-09
-3.24649e-11
2.62655e-09
-3.39371e-11
2.63338e-09
-3.54691e-11
2.64052e-09
-3.70622e-11
2.648e-09
-3.87175e-11
2.65582e-09
-4.04361e-11
2.66399e-09
-4.22186e-11
2.67254e-09
-4.40656e-11
2.68148e-09
-4.59772e-11
2.69082e-09
-4.79529e-11
2.70058e-09
-4.99921e-11
2.71078e-09
-5.20933e-11
2.72143e-09
-5.42542e-11
2.73255e-09
-5.6472e-11
2.74415e-09
-5.87427e-11
2.75626e-09
-6.10611e-11
2.76887e-09
-6.34211e-11
2.78201e-09
-6.58149e-11
2.79569e-09
-6.82332e-11
2.80993e-09
-7.06651e-11
2.82471e-09
-7.30977e-11
2.84006e-09
-7.55164e-11
2.85596e-09
-7.79046e-11
2.87242e-09
-8.02438e-11
2.88943e-09
-8.25136e-11
2.90697e-09
-8.46924e-11
2.92501e-09
-8.67568e-11
2.94354e-09
-8.86829e-11
2.9625e-09
-9.04464e-11
2.98188e-09
-9.20235e-11
3.00159e-09
-9.33915e-11
3.02161e-09
-9.45297e-11
3.04186e-09
-9.542e-11
3.06227e-09
-9.60481e-11
3.08277e-09
-9.64035e-11
3.10331e-09
-9.64804e-11
3.12378e-09
-9.62775e-11
3.14414e-09
-9.57983e-11
3.1643e-09
-9.50503e-11
3.18422e-09
-9.4045e-11
3.20381e-09
-9.2797e-11
3.22305e-09
-9.13237e-11
3.24186e-09
-8.96443e-11
3.26023e-09
-8.77796e-11
3.27809e-09
-8.5751e-11
3.29545e-09
-8.35807e-11
3.31223e-09
-8.12902e-11
3.32848e-09
-7.89012e-11
3.34412e-09
-7.64341e-11
3.35921e-09
-7.39087e-11
3.37368e-09
-7.13433e-11
3.38758e-09
-6.8755e-11
3.40088e-09
-6.61594e-11
3.41362e-09
-6.35707e-11
3.42577e-09
-6.10013e-11
3.43739e-09
-5.84628e-11
3.44844e-09
-5.59646e-11
3.45899e-09
-5.35155e-11
3.469e-09
-5.11226e-11
3.47855e-09
-4.8792e-11
3.4876e-09
-4.65288e-11
3.49622e-09
-4.4337e-11
3.50436e-09
-4.22198e-11
3.51212e-09
-4.01795e-11
3.51945e-09
-3.82178e-11
3.52643e-09
-3.63356e-11
3.53301e-09
-3.45331e-11
3.53929e-09
-3.28102e-11
3.5452e-09
-3.11661e-11
3.55084e-09
-2.95998e-11
3.55614e-09
-2.81099e-11
3.56121e-09
-2.66945e-11
3.56597e-09
-2.5352e-11
3.57054e-09
-2.408e-11
3.57482e-09
-2.28766e-11
3.57894e-09
-2.17395e-11
3.5828e-09
-2.06665e-11
3.58652e-09
-1.96553e-11
3.59e-09
-1.87039e-11
3.59337e-09
-1.781e-11
3.59652e-09
-1.69717e-11
3.59958e-09
-1.61866e-11
3.60245e-09
-1.5453e-11
3.60525e-09
-1.47687e-11
3.60786e-09
-1.41321e-11
3.61043e-09
-1.35409e-11
3.61283e-09
-1.29939e-11
3.61521e-09
-1.2489e-11
3.61743e-09
-1.20252e-11
3.61964e-09
-1.16007e-11
3.6217e-09
-1.12148e-11
3.62377e-09
-1.08659e-11
3.6257e-09
-1.05536e-11
3.62767e-09
-1.02767e-11
3.6295e-09
-1.0035e-11
3.63138e-09
-9.82781e-12
3.63314e-09
-9.65522e-12
3.63496e-09
-9.5168e-12
3.63667e-09
-9.41304e-12
3.63846e-09
-9.34388e-12
3.64014e-09
-9.3099e-12
3.64194e-09
-9.31134e-12
3.64363e-09
-9.34857e-12
3.64546e-09
-9.42188e-12
3.64718e-09
-9.53098e-12
3.64908e-09
-9.67589e-12
3.65088e-09
-9.85523e-12
3.65287e-09
-1.00683e-11
3.65478e-09
-1.03125e-11
3.6569e-09
-1.05861e-11
3.65894e-09
-1.08853e-11
3.66121e-09
-1.12073e-11
3.66341e-09
-1.15475e-11
3.66585e-09
-1.19025e-11
3.66822e-09
-1.22681e-11
3.67082e-09
-1.26405e-11
3.67335e-09
-1.30172e-11
3.67612e-09
-1.33949e-11
3.6788e-09
-1.3774e-11
3.68172e-09
-1.41525e-11
3.68454e-09
-1.45342e-11
3.68759e-09
-1.49188e-11
3.69052e-09
-1.53139e-11
3.69371e-09
-1.57208e-11
3.69676e-09
-1.61502e-11
3.70009e-09
-1.66048e-11
3.70326e-09
-1.70977e-11
3.70676e-09
-1.76323e-11
3.71009e-09
-1.82224e-11
3.71381e-09
-1.88717e-11
3.71736e-09
-1.95931e-11
3.72138e-09
-2.03895e-11
3.72522e-09
-2.12708e-11
3.72963e-09
-2.22384e-11
3.73388e-09
-2.32968e-11
3.73878e-09
-2.44448e-11
3.74353e-09
-2.568e-11
3.74904e-09
-2.69973e-11
3.75438e-09
-2.83862e-11
3.76058e-09
-2.98379e-11
3.7666e-09
-3.1334e-11
3.77354e-09
-3.28625e-11
3.78028e-09
-3.4399e-11
3.78799e-09
-3.5931e-11
3.79547e-09
-3.74304e-11
3.8039e-09
-3.88904e-11
3.81226e-09
-4.02677e-11
3.82087e-09
-4.16291e-11
3.82982e-09
-4.26533e-11
-4.4546e-11
2.50004e-09
-2.18149e-13
2.50015e-09
-6.53887e-13
2.50033e-09
-1.09006e-12
2.50059e-09
-1.52643e-12
2.50091e-09
-1.96306e-12
2.50131e-09
-2.40011e-12
2.50178e-09
-2.83776e-12
2.50231e-09
-3.27626e-12
2.50292e-09
-3.71597e-12
2.5036e-09
-4.15733e-12
2.50435e-09
-4.60084e-12
2.50517e-09
-5.04712e-12
2.50606e-09
-5.49683e-12
2.50701e-09
-5.95076e-12
2.50805e-09
-6.40974e-12
2.50915e-09
-6.87472e-12
2.51032e-09
-7.3467e-12
2.51157e-09
-7.82676e-12
2.5129e-09
-8.31606e-12
2.51429e-09
-8.8158e-12
2.51577e-09
-9.32728e-12
2.51733e-09
-9.85184e-12
2.51896e-09
-1.03909e-11
2.52068e-09
-1.09459e-11
2.52249e-09
-1.15183e-11
2.52439e-09
-1.21097e-11
2.52638e-09
-1.27218e-11
2.52846e-09
-1.33561e-11
2.53064e-09
-1.40144e-11
2.53293e-09
-1.46984e-11
2.53533e-09
-1.54099e-11
2.53784e-09
-1.61507e-11
2.54046e-09
-1.69227e-11
2.54321e-09
-1.77278e-11
2.54609e-09
-1.85679e-11
2.5491e-09
-1.9445e-11
2.55225e-09
-2.03611e-11
2.55555e-09
-2.13182e-11
2.55901e-09
-2.23183e-11
2.56263e-09
-2.33637e-11
2.56641e-09
-2.44564e-11
2.57038e-09
-2.55984e-11
2.57453e-09
-2.67921e-11
2.57888e-09
-2.80395e-11
2.58343e-09
-2.93429e-11
2.5882e-09
-3.07044e-11
2.5932e-09
-3.21263e-11
2.59843e-09
-3.36106e-11
2.6039e-09
-3.51597e-11
2.60964e-09
-3.67757e-11
2.61565e-09
-3.84606e-11
2.62194e-09
-4.02166e-11
2.62853e-09
-4.20457e-11
2.63544e-09
-4.39497e-11
2.64266e-09
-4.59305e-11
2.65023e-09
-4.79897e-11
2.65816e-09
-5.01285e-11
2.66646e-09
-5.23483e-11
2.67514e-09
-5.46496e-11
2.68424e-09
-5.7033e-11
2.69376e-09
-5.94981e-11
2.70373e-09
-6.20442e-11
2.71417e-09
-6.46697e-11
2.72509e-09
-6.73719e-11
2.73651e-09
-7.01472e-11
2.74846e-09
-7.29907e-11
2.76096e-09
-7.58957e-11
2.77402e-09
-7.88539e-11
2.78766e-09
-8.18551e-11
2.80191e-09
-8.48866e-11
2.81676e-09
-8.79334e-11
2.83225e-09
-9.09777e-11
2.84837e-09
-9.39989e-11
2.86512e-09
-9.69735e-11
2.88251e-09
-9.98751e-11
2.90052e-09
-1.02675e-10
2.91913e-09
-1.05341e-10
2.93832e-09
-1.0784e-10
2.95804e-09
-1.1014e-10
2.97825e-09
-1.12204e-10
2.99889e-09
-1.14001e-10
3.0199e-09
-1.15501e-10
3.04118e-09
-1.16676e-10
3.06268e-09
-1.17507e-10
3.08428e-09
-1.17978e-10
3.10592e-09
-1.18082e-10
3.12749e-09
-1.17816e-10
3.14892e-09
-1.17186e-10
3.1701e-09
-1.16204e-10
3.19099e-09
-1.14888e-10
3.21149e-09
-1.13259e-10
3.23155e-09
-1.11343e-10
3.25111e-09
-1.09167e-10
3.27014e-09
-1.0676e-10
3.28857e-09
-1.04153e-10
3.30642e-09
-1.01375e-10
3.32361e-09
-9.8456e-11
3.34019e-09
-9.54229e-11
3.35609e-09
-9.23028e-11
3.37136e-09
-8.91208e-11
3.38594e-09
-8.58999e-11
3.39991e-09
-8.26616e-11
3.4132e-09
-7.94249e-11
3.4259e-09
-7.62075e-11
3.43795e-09
-7.30243e-11
3.44944e-09
-6.98891e-11
3.46031e-09
-6.68131e-11
3.47067e-09
-6.38063e-11
3.48045e-09
-6.08769e-11
3.48975e-09
-5.80317e-11
3.49852e-09
-5.52759e-11
3.50686e-09
-5.26138e-11
3.51472e-09
-5.00485e-11
3.52218e-09
-4.75821e-11
3.52921e-09
-4.52158e-11
3.53588e-09
-4.295e-11
3.54216e-09
-4.07846e-11
3.54813e-09
-3.87187e-11
3.55374e-09
-3.67509e-11
3.55908e-09
-3.48795e-11
3.5641e-09
-3.31022e-11
3.56888e-09
-3.14165e-11
3.57337e-09
-2.98199e-11
3.57767e-09
-2.83092e-11
3.58169e-09
-2.68818e-11
3.58555e-09
-2.55343e-11
3.58917e-09
-2.42641e-11
3.59265e-09
-2.30679e-11
3.5959e-09
-2.19434e-11
3.59905e-09
-2.08874e-11
3.60199e-09
-1.98977e-11
3.60484e-09
-1.89716e-11
3.60751e-09
-1.81069e-11
3.61011e-09
-1.73011e-11
3.61254e-09
-1.6552e-11
3.61493e-09
-1.58572e-11
3.61716e-09
-1.52148e-11
3.61937e-09
-1.46221e-11
3.62143e-09
-1.40778e-11
3.62348e-09
-1.35791e-11
3.62539e-09
-1.31252e-11
3.62732e-09
-1.27139e-11
3.62911e-09
-1.23448e-11
3.63094e-09
-1.20163e-11
3.63262e-09
-1.17287e-11
3.63437e-09
-1.14809e-11
3.63598e-09
-1.12737e-11
3.63766e-09
-1.11066e-11
3.63922e-09
-1.09808e-11
3.64087e-09
-1.08965e-11
3.6424e-09
-1.08549e-11
3.64405e-09
-1.08568e-11
3.64559e-09
-1.0903e-11
3.64727e-09
-1.09948e-11
3.64885e-09
-1.1132e-11
3.65061e-09
-1.13154e-11
3.65228e-09
-1.15436e-11
3.65414e-09
-1.18161e-11
3.65593e-09
-1.21295e-11
3.65795e-09
-1.24817e-11
3.65991e-09
-1.28672e-11
3.6621e-09
-1.32819e-11
3.66424e-09
-1.37189e-11
3.66663e-09
-1.41725e-11
3.66896e-09
-1.46359e-11
3.67154e-09
-1.51026e-11
3.67406e-09
-1.55681e-11
3.67681e-09
-1.60267e-11
3.67948e-09
-1.64781e-11
3.68237e-09
-1.69184e-11
3.68516e-09
-1.73528e-11
3.68816e-09
-1.77801e-11
3.69103e-09
-1.8211e-11
3.69411e-09
-1.86471e-11
3.69704e-09
-1.91037e-11
3.7002e-09
-1.95847e-11
3.70319e-09
-2.01088e-11
3.70646e-09
-2.06815e-11
3.70954e-09
-2.13228e-11
3.71296e-09
-2.2039e-11
3.7162e-09
-2.28493e-11
3.71987e-09
-2.37597e-11
3.72336e-09
-2.47855e-11
3.7274e-09
-2.59308e-11
3.73127e-09
-2.72042e-11
3.73582e-09