/*--------------------------------*- C++ -*----------------------------------*\
  =========                 |
  \\      /  F ield         | OpenFOAM: The Open Source CFD Toolbox
   \\    /   O peration     | Website:  https://openfoam.org
    \\  /    A nd           | Version:  10
     \\/     M anipulation  |
\*---------------------------------------------------------------------------*/
FoamFile
{
    format      ascii;
    class       volVectorField;
    location    "21500";
    object      Ub;
}
// * * * * * * * * * * * * * * * * * * * * * * * * * * * * * * * * * * * * * //

dimensions      [0 1 -1 0 0 0 0];

internalField   nonuniform List<vector> 
3200
(
(-1.30505e-20 -9.8788e-16 0)
(-3.99101e-20 -9.87879e-16 0)
(-6.94265e-20 -9.87875e-16 0)
(-1.04338e-19 -9.8787e-16 0)
(-1.48822e-19 -9.8786e-16 0)
(-2.10028e-19 -9.87842e-16 0)
(-3.01197e-19 -9.8781e-16 0)
(-4.48442e-19 -9.87749e-16 0)
(-2.44645e-10 -9.8783e-16 0)
(-3.11663e-05 -1.57092e-07 0)
(-7.05509e-05 -3.66334e-05 0)
(-8.02222e-05 -7.99211e-06 0)
(-8.2447e-05 -3.89575e-06 0)
(-8.37377e-05 -2.33197e-06 0)
(-8.46396e-05 -1.54767e-06 0)
(-8.53222e-05 -1.09696e-06 0)
(-8.58634e-05 -8.1482e-07 0)
(-8.63058e-05 -6.27181e-07 0)
(-8.66759e-05 -4.96554e-07 0)
(-8.6991e-05 -4.02263e-07 0)
(-8.72629e-05 -3.32159e-07 0)
(-8.75005e-05 -2.78739e-07 0)
(-8.771e-05 -2.37176e-07 0)
(-8.78964e-05 -2.04252e-07 0)
(-8.80634e-05 -1.77763e-07 0)
(-8.81891e-05 -2.11515e-07 0)
(-8.77336e-05 -1.43241e-06 0)
(-8.66313e-05 -1.65436e-06 0)
(-8.54497e-05 -1.61234e-06 0)
(-8.43163e-05 -1.54782e-06 0)
(-8.32092e-05 -1.56366e-06 0)
(-8.2035e-05 -1.7357e-06 0)
(-8.06382e-05 -2.15699e-06 0)
(-7.87793e-05 -2.97056e-06 0)
(-7.60892e-05 -4.40766e-06 0)
(-7.19913e-05 -6.84303e-06 0)
(-6.55802e-05 -1.08813e-05 0)
(-5.54278e-05 -1.74999e-05 0)
(-3.92622e-05 -2.83182e-05 0)
(-1.63528e-05 -3.75912e-05 0)
(-1.09331e-20 -9.87845e-16 0)
(-3.304e-20 -9.87841e-16 0)
(-5.59956e-20 -9.87834e-16 0)
(-8.0376e-20 -9.87821e-16 0)
(-1.06152e-19 -9.878e-16 0)
(-1.31603e-19 -9.87766e-16 0)
(-1.50422e-19 -9.8771e-16 0)
(-1.44249e-19 -9.87619e-16 0)
(-6.37079e-20 -9.87463e-16 0)
(1.48589e-19 -9.86996e-16 0)
(2.70024e-19 -9.42033e-16 0)
(2.17329e-19 -9.01976e-16 0)
(1.65398e-19 -8.65056e-16 0)
(1.25332e-19 -8.30227e-16 0)
(9.21427e-20 -7.96991e-16 0)
(6.23147e-20 -7.6506e-16 0)
(3.33029e-20 -7.34246e-16 0)
(2.88788e-21 -7.04414e-16 0)
(-3.13498e-20 -6.75467e-16 0)
(-7.25922e-20 -6.47327e-16 0)
(-1.25583e-19 -6.19934e-16 0)
(-1.97951e-19 -5.93236e-16 0)
(-3.02558e-19 -5.67189e-16 0)
(-1.09637e-18 -5.41754e-16 0)
(-2.23563e-07 -5.69692e-16 0)
(-2.80502e-05 -5.53279e-08 0)
(-5.80729e-05 -1.2933e-06 0)
(-6.18066e-05 -1.52881e-06 0)
(-6.41582e-05 -1.49777e-06 0)
(-6.60881e-05 -1.4423e-06 0)
(-6.78063e-05 -1.46569e-06 0)
(-6.94752e-05 -1.64411e-06 0)
(-7.12848e-05 -2.07084e-06 0)
(-7.34948e-05 -2.88912e-06 0)
(-7.64872e-05 -4.33036e-06 0)
(-8.08469e-05 -6.76949e-06 0)
(-8.74849e-05 -1.08112e-05 0)
(-9.78301e-05 -1.74399e-05 0)
(-9.0565e-05 -9.52037e-05 0)
(-3.92763e-05 -0.00018407 0)
(-7.88783e-21 -9.87818e-16 0)
(-2.34555e-20 -9.87814e-16 0)
(-3.84226e-20 -9.87805e-16 0)
(-5.21505e-20 -9.87792e-16 0)
(-6.3233e-20 -9.87772e-16 0)
(-6.8937e-20 -9.87745e-16 0)
(-6.45122e-20 -9.87709e-16 0)
(-4.2918e-20 -9.87666e-16 0)
(2.79796e-21 -9.87625e-16 0)
(6.71026e-20 -9.87618e-16 0)
(1.11462e-19 -9.87688e-16 0)
(1.18508e-19 -9.87739e-16 0)
(1.08649e-19 -9.87771e-16 0)
(9.25437e-20 -9.87791e-16 0)
(7.42777e-20 -9.87803e-16 0)
(5.52567e-20 -9.87808e-16 0)
(3.58522e-20 -9.87809e-16 0)
(1.61195e-20 -9.87804e-16 0)
(-3.79023e-21 -9.87794e-16 0)
(-2.32024e-20 -9.87777e-16 0)
(-4.02002e-20 -9.8775e-16 0)
(-5.0208e-20 -9.87708e-16 0)
(-4.31209e-20 -9.87645e-16 0)
(2.49984e-21 -9.87549e-16 0)
(1.30948e-19 -9.87403e-16 0)
(2.69787e-19 -9.85114e-16 0)
(2.86899e-19 -9.59914e-16 0)
(2.35736e-19 -9.36892e-16 0)
(1.97171e-19 -9.14953e-16 0)
(1.66738e-19 -8.93746e-16 0)
(1.41201e-19 -8.73105e-16 0)
(1.18469e-19 -8.52917e-16 0)
(9.7082e-20 -8.33077e-16 0)
(7.58818e-20 -8.13454e-16 0)
(5.37799e-20 -7.93871e-16 0)
(2.95654e-20 -7.74068e-16 0)
(-2.55114e-13 -7.53674e-16 0)
(-6.63015e-07 -6.72884e-09 0)
(-2.28347e-05 -7.4018e-05 0)
(-1.61974e-05 -0.000374628 0)
(-4.99051e-21 -9.87799e-16 0)
(-1.45898e-20 -9.87796e-16 0)
(-2.30723e-20 -9.87789e-16 0)
(-2.95925e-20 -9.87778e-16 0)
(-3.29669e-20 -9.87764e-16 0)
(-3.16163e-20 -9.87746e-16 0)
(-2.37215e-20 -9.87727e-16 0)
(-7.86665e-21 -9.87709e-16 0)
(1.54715e-20 -9.87697e-16 0)
(4.16801e-20 -9.87699e-16 0)
(6.19368e-20 -9.87717e-16 0)
(7.14858e-20 -9.87738e-16 0)
(7.24301e-20 -9.87756e-16 0)
(6.78596e-20 -9.87769e-16 0)
(6.01205e-20 -9.87777e-16 0)
(5.07735e-20 -9.87781e-16 0)
(4.08915e-20 -9.87781e-16 0)
(3.13617e-20 -9.87776e-16 0)
(2.31458e-20 -9.87767e-16 0)
(1.75161e-20 -9.87754e-16 0)
(1.62714e-20 -9.87736e-16 0)
(2.18727e-20 -9.87713e-16 0)
(3.72792e-20 -9.87688e-16 0)
(6.49073e-20 -9.87665e-16 0)
(1.0333e-19 -9.87655e-16 0)
(1.38624e-19 -9.87684e-16 0)
(1.54868e-19 -9.8773e-16 0)
(1.54118e-19 -9.87761e-16 0)
(1.45719e-19 -9.87782e-16 0)
(1.34031e-19 -9.87796e-16 0)
(1.21032e-19 -9.87805e-16 0)
(1.07596e-19 -9.87811e-16 0)
(9.41137e-20 -9.87813e-16 0)
(8.08114e-20 -9.87813e-16 0)
(6.7948e-20 -9.8781e-16 0)
(5.59977e-20 -9.87804e-16 0)
(4.5887e-20 -9.87795e-16 0)
(3.75055e-20 -1.32533e-15 0)
(2.13286e-09 -1.67921e-05 0)
(-6.29594e-08 -0.000451297 0)
(-2.72265e-21 -9.87788e-16 0)
(-7.80431e-21 -9.87785e-16 0)
(-1.18388e-20 -9.8778e-16 0)
(-1.41603e-20 -9.87773e-16 0)
(-1.40593e-20 -9.87764e-16 0)
(-1.08498e-20 -9.87753e-16 0)
(-4.05308e-21 -9.87743e-16 0)
(6.27595e-21 -9.87735e-16 0)
(1.91463e-20 -9.8773e-16 0)
(3.24347e-20 -9.87731e-16 0)
(4.34755e-20 -9.87738e-16 0)
(5.06255e-20 -9.87746e-16 0)
(5.38609e-20 -9.87755e-16 0)
(5.39754e-20 -9.87762e-16 0)
(5.19644e-20 -9.87766e-16 0)
(4.87711e-20 -9.87768e-16 0)
(4.52401e-20 -9.87768e-16 0)
(4.21538e-20 -9.87764e-16 0)
(4.0286e-20 -9.87759e-16 0)
(4.04335e-20 -9.87751e-16 0)
(4.33954e-20 -9.87742e-16 0)
(4.9857e-20 -9.87732e-16 0)
(6.01315e-20 -9.87724e-16 0)
(7.37275e-20 -9.87718e-16 0)
(8.88313e-20 -9.87719e-16 0)
(1.02179e-19 -9.87728e-16 0)
(1.10853e-19 -9.87741e-16 0)
(1.14324e-19 -9.87755e-16 0)
(1.13694e-19 -9.87766e-16 0)
(1.10218e-19 -9.87775e-16 0)
(1.04908e-19 -9.87781e-16 0)
(9.84984e-20 -9.87785e-16 0)
(9.15123e-20 -9.87787e-16 0)
(8.43297e-20 -9.87786e-16 0)
(7.72389e-20 -9.87784e-16 0)
(7.04525e-20 -9.8778e-16 0)
(6.4076e-20 -9.87774e-16 0)
(7.06324e-20 -1.53623e-15 0)
(4.12679e-09 -2.01372e-05 0)
(-1.13669e-07 -0.000440357 0)
(-1.13094e-21 -9.87783e-16 0)
(-3.11969e-21 -9.87781e-16 0)
(-4.32988e-21 -9.87777e-16 0)
(-4.31993e-21 -9.87773e-16 0)
(-2.71262e-21 -9.87767e-16 0)
(7.48937e-22 -9.87761e-16 0)
(6.11085e-21 -9.87755e-16 0)
(1.31045e-20 -9.87751e-16 0)
(2.10837e-20 -9.87749e-16 0)
(2.90925e-20 -9.87749e-16 0)
(3.61325e-20 -9.87751e-16 0)
(4.15384e-20 -9.87755e-16 0)
(4.51428e-20 -9.87759e-16 0)
(4.71571e-20 -9.87762e-16 0)
(4.7997e-20 -9.87764e-16 0)
(4.81568e-20 -9.87765e-16 0)
(4.81415e-20 -9.87764e-16 0)
(4.84358e-20 -9.87762e-16 0)
(4.94854e-20 -9.87759e-16 0)
(5.16731e-20 -9.87756e-16 0)
(5.52768e-20 -9.87751e-16 0)
(6.04043e-20 -9.87747e-16 0)
(6.69109e-20 -9.87744e-16 0)
(7.4328e-20 -9.87743e-16 0)
(8.18613e-20 -9.87744e-16 0)
(8.85438e-20 -9.87748e-16 0)
(9.35856e-20 -9.87753e-16 0)
(9.66642e-20 -9.87758e-16 0)
(9.78791e-20 -9.87764e-16 0)
(9.7545e-20 -9.87768e-16 0)
(9.60431e-20 -9.87771e-16 0)
(9.37459e-20 -9.87773e-16 0)
(9.09892e-20 -9.87774e-16 0)
(8.80696e-20 -9.87773e-16 0)
(8.52526e-20 -9.87771e-16 0)
(8.27855e-20 -9.87768e-16 0)
(8.09151e-20 -9.87764e-16 0)
(1.05923e-19 -1.70423e-15 0)
(5.40626e-09 -2.0447e-05 0)
(-1.51681e-07 -0.000427024 0)
(-8.15879e-23 -9.87781e-16 0)
(-6.55921e-23 -9.8778e-16 0)
(4.61535e-22 -9.87777e-16 0)
(1.77265e-21 -9.87774e-16 0)
(4.06248e-21 -9.87771e-16 0)
(7.41838e-21 -9.87767e-16 0)
(1.17883e-20 -9.87764e-16 0)
(1.69598e-20 -9.87762e-16 0)
(2.25715e-20 -9.8776e-16 0)
(2.81733e-20 -9.8776e-16 0)
(3.33351e-20 -9.87761e-16 0)
(3.77594e-20 -9.87762e-16 0)
(4.13373e-20 -9.87764e-16 0)
(4.413e-20 -9.87765e-16 0)
(4.63176e-20 -9.87766e-16 0)
(4.81447e-20 -9.87766e-16 0)
(4.98779e-20 -9.87766e-16 0)
(5.17745e-20 -9.87765e-16 0)
(5.40568e-20 -9.87763e-16 0)
(5.68897e-20 -9.87762e-16 0)
(6.03567e-20 -9.8776e-16 0)
(6.44389e-20 -9.87758e-16 0)
(6.9e-20 -9.87757e-16 0)
(7.37909e-20 -9.87757e-16 0)
(7.84821e-20 -9.87757e-16 0)
(8.27301e-20 -9.87759e-16 0)
(8.62623e-20 -9.87761e-16 0)
(8.89366e-20 -9.87764e-16 0)
(9.07444e-20 -9.87766e-16 0)
(9.17769e-20 -9.87768e-16 0)
(9.21841e-20 -9.87769e-16 0)
(9.21433e-20 -9.8777e-16 0)
(9.18378e-20 -9.8777e-16 0)
(9.14461e-20 -9.87769e-16 0)
(9.11358e-20 -9.87767e-16 0)
(9.1061e-20 -9.87765e-16 0)
(9.13604e-20 -9.87762e-16 0)
(1.29242e-19 -1.88334e-15 0)
(5.7419e-09 -1.94468e-05 0)
(-1.67966e-07 -0.000411517 0)
(5.8708e-22 -9.87782e-16 0)
(1.86726e-21 -9.87781e-16 0)
(3.45546e-21 -9.87779e-16 0)
(5.51625e-21 -9.87778e-16 0)
(8.15247e-21 -9.87775e-16 0)
(1.13927e-20 -9.87773e-16 0)
(1.51834e-20 -9.87771e-16 0)
(1.93914e-20 -9.8777e-16 0)
(2.3822e-20 -9.87769e-16 0)
(2.82537e-20 -9.87768e-16 0)
(3.24846e-20 -9.87769e-16 0)
(3.63724e-20 -9.87769e-16 0)
(3.98562e-20 -9.8777e-16 0)
(4.2954e-20 -9.8777e-16 0)
(4.57448e-20 -9.8777e-16 0)
(4.83451e-20 -9.8777e-16 0)
(5.08856e-20 -9.8777e-16 0)
(5.34917e-20 -9.8777e-16 0)
(5.62662e-20 -9.87769e-16 0)
(5.92759e-20 -9.87768e-16 0)
(6.25421e-20 -9.87767e-16 0)
(6.60349e-20 -9.87766e-16 0)
(6.96747e-20 -9.87766e-16 0)
(7.33423e-20 -9.87766e-16 0)
(7.6898e-20 -9.87766e-16 0)
(8.02066e-20 -9.87767e-16 0)
(8.31631e-20 -9.87768e-16 0)
(8.57092e-20 -9.87769e-16 0)
(8.7837e-20 -9.8777e-16 0)
(8.95819e-20 -9.8777e-16 0)
(9.10112e-20 -9.87771e-16 0)
(9.22113e-20 -9.87771e-16 0)
(9.32776e-20 -9.87771e-16 0)
(9.43065e-20 -9.8777e-16 0)
(9.53886e-20 -9.87769e-16 0)
(9.66044e-20 -9.87767e-16 0)
(9.80194e-20 -9.87765e-16 0)
(1.50769e-19 -2.1359e-15 0)
(5.65934e-09 -1.82018e-05 0)
(-1.68372e-07 -0.000394365 0)
(1.00653e-21 -9.87784e-16 0)
(3.07544e-21 -9.87783e-16 0)
(5.31545e-21 -9.87782e-16 0)
(7.82598e-21 -9.87781e-16 0)
(1.06645e-20 -9.8778e-16 0)
(1.38416e-20 -9.87779e-16 0)
(1.73215e-20 -9.87778e-16 0)
(2.10276e-20 -9.87777e-16 0)
(2.48561e-20 -9.87776e-16 0)
(2.86948e-20 -9.87775e-16 0)
(3.24433e-20 -9.87775e-16 0)
(3.60298e-20 -9.87775e-16 0)
(3.94204e-20 -9.87775e-16 0)
(4.26184e-20 -9.87776e-16 0)
(4.56577e-20 -9.87776e-16 0)
(4.85912e-20 -9.87776e-16 0)
(5.14797e-20 -9.87775e-16 0)
(5.43808e-20 -9.87775e-16 0)
(5.73397e-20 -9.87775e-16 0)
(6.03824e-20 -9.87774e-16 0)
(6.35123e-20 -9.87774e-16 0)
(6.6709e-20 -9.87774e-16 0)
(6.99317e-20 -9.87773e-16 0)
(7.31255e-20 -9.87773e-16 0)
(7.62303e-20 -9.87773e-16 0)
(7.91909e-20 -9.87774e-16 0)
(8.1966e-20 -9.87774e-16 0)
(8.45336e-20 -9.87774e-16 0)
(8.68934e-20 -9.87775e-16 0)
(8.90642e-20 -9.87775e-16 0)
(9.10804e-20 -9.87775e-16 0)
(9.29871e-20 -9.87775e-16 0)
(9.48349e-20 -9.87774e-16 0)
(9.6676e-20 -9.87773e-16 0)
(9.85603e-20 -9.87773e-16 0)
(1.00533e-19 -9.87771e-16 0)
(1.02633e-19 -9.8777e-16 0)
(1.74509e-19 -2.43647e-15 0)
(5.3953e-09 -1.69714e-05 0)
(-1.57381e-07 -0.000376058 0)
(1.26834e-21 -9.87787e-16 0)
(3.82871e-21 -9.87787e-16 0)
(6.47336e-21 -9.87786e-16 0)
(9.26349e-21 -9.87786e-16 0)
(1.22336e-20 -9.87785e-16 0)
(1.53901e-20 -9.87784e-16 0)
(1.87126e-20 -9.87783e-16 0)
(2.21596e-20 -9.87782e-16 0)
(2.56761e-20 -9.87782e-16 0)
(2.92039e-20 -9.87782e-16 0)
(3.26914e-20 -9.87781e-16 0)
(3.61007e-20 -9.87781e-16 0)
(3.94122e-20 -9.87781e-16 0)
(4.2624e-20 -9.87781e-16 0)
(4.57494e-20 -9.87781e-16 0)
(4.88112e-20 -9.87781e-16 0)
(5.18361e-20 -9.87781e-16 0)
(5.48493e-20 -9.87781e-16 0)
(5.78698e-20 -9.87781e-16 0)
(6.09074e-20 -9.8778e-16 0)
(6.3961e-20 -9.8778e-16 0)
(6.70194e-20 -9.8778e-16 0)
(7.00631e-20 -9.8778e-16 0)
(7.30674e-20 -9.8778e-16 0)
(7.6007e-20 -9.8778e-16 0)
(7.88597e-20 -9.8778e-16 0)
(8.161e-20 -9.8778e-16 0)
(8.42517e-20 -9.8778e-16 0)
(8.67878e-20 -9.8778e-16 0)
(8.92306e-20 -9.8778e-16 0)
(9.15997e-20 -9.8778e-16 0)
(9.39202e-20 -9.8778e-16 0)
(9.622e-20 -9.87779e-16 0)
(9.85278e-20 -9.87779e-16 0)
(1.00871e-19 -9.87778e-16 0)
(1.03276e-19 -9.87777e-16 0)
(1.05763e-19 -9.87777e-16 0)
(1.975e-19 -2.73928e-15 0)
(5.02964e-09 -1.58038e-05 0)
(-1.3841e-07 -0.000357027 0)
(1.43154e-21 -9.87791e-16 0)
(4.29841e-21 -9.87791e-16 0)
(7.19624e-21 -9.8779e-16 0)
(1.0164e-20 -9.8779e-16 0)
(1.3224e-20 -9.8779e-16 0)
(1.6382e-20 -9.87789e-16 0)
(1.96283e-20 -9.87789e-16 0)
(2.29413e-20 -9.87788e-16 0)
(2.62924e-20 -9.87788e-16 0)
(2.96512e-20 -9.87787e-16 0)
(3.29905e-20 -9.87787e-16 0)
(3.62896e-20 -9.87787e-16 0)
(3.95368e-20 -9.87787e-16 0)
(4.27289e-20 -9.87787e-16 0)
(4.587e-20 -9.87787e-16 0)
(4.89691e-20 -9.87787e-16 0)
(5.20373e-20 -9.87787e-16 0)
(5.50849e-20 -9.87787e-16 0)
(5.81196e-20 -9.87787e-16 0)
(6.11448e-20 -9.87787e-16 0)
(6.41591e-20 -9.87787e-16 0)
(6.71571e-20 -9.87786e-16 0)
(7.01298e-20 -9.87786e-16 0)
(7.30669e-20 -9.87786e-16 0)
(7.59582e-20 -9.87786e-16 0)
(7.87954e-20 -9.87786e-16 0)
(8.1574e-20 -9.87786e-16 0)
(8.42935e-20 -9.87786e-16 0)
(8.69582e-20 -9.87786e-16 0)
(8.95764e-20 -9.87786e-16 0)
(9.21602e-20 -9.87786e-16 0)
(9.47241e-20 -9.87786e-16 0)
(9.72844e-20 -9.87786e-16 0)
(9.98576e-20 -9.87785e-16 0)
(1.0246e-19 -9.87785e-16 0)
(1.05107e-19 -9.87784e-16 0)
(1.07814e-19 -9.87784e-16 0)
(2.1852e-19 -3.02699e-15 0)
(4.62282e-09 -1.47042e-05 0)
(-1.15054e-07 -0.000337628 0)
(1.53262e-21 -9.87795e-16 0)
(4.58956e-21 -9.87795e-16 0)
(7.64522e-21 -9.87795e-16 0)
(1.07255e-20 -9.87795e-16 0)
(1.3846e-20 -9.87794e-16 0)
(1.70126e-20 -9.87794e-16 0)
(2.02218e-20 -9.87794e-16 0)
(2.34633e-20 -9.87793e-16 0)
(2.67228e-20 -9.87793e-16 0)
(2.99844e-20 -9.87793e-16 0)
(3.32339e-20 -9.87793e-16 0)
(3.64597e-20 -9.87793e-16 0)
(3.96547e-20 -9.87793e-16 0)
(4.2816e-20 -9.87793e-16 0)
(4.5944e-20 -9.87793e-16 0)
(4.90419e-20 -9.87793e-16 0)
(5.21137e-20 -9.87793e-16 0)
(5.51634e-20 -9.87793e-16 0)
(5.8194e-20 -9.87793e-16 0)
(6.12066e-20 -9.87793e-16 0)
(6.42003e-20 -9.87793e-16 0)
(6.71727e-20 -9.87793e-16 0)
(7.01202e-20 -9.87793e-16 0)
(7.30387e-20 -9.87793e-16 0)
(7.59247e-20 -9.87793e-16 0)
(7.87759e-20 -9.87793e-16 0)
(8.15916e-20 -9.87793e-16 0)
(8.43734e-20 -9.87793e-16 0)
(8.71251e-20 -9.87793e-16 0)
(8.98525e-20 -9.87793e-16 0)
(9.25627e-20 -9.87793e-16 0)
(9.52645e-20 -9.87793e-16 0)
(9.79668e-20 -9.87792e-16 0)
(1.00679e-19 -9.87792e-16 0)
(1.03409e-19 -9.87792e-16 0)
(1.06164e-19 -9.87792e-16 0)
(1.0895e-19 -9.87791e-16 0)
(2.36829e-19 -3.30032e-15 0)
(4.1966e-09 -1.36658e-05 0)
(-9.02546e-08 -0.000318143 0)
(1.59369e-21 -9.878e-16 0)
(4.76547e-21 -9.878e-16 0)
(7.91661e-21 -9.878e-16 0)
(1.10652e-20 -9.87799e-16 0)
(1.42231e-20 -9.87799e-16 0)
(1.7396e-20 -9.87799e-16 0)
(2.0584e-20 -9.87799e-16 0)
(2.37832e-20 -9.87799e-16 0)
(2.69868e-20 -9.87799e-16 0)
(3.0187e-20 -9.87799e-16 0)
(3.33764e-20 -9.87798e-16 0)
(3.65489e-20 -9.87798e-16 0)
(3.97002e-20 -9.87798e-16 0)
(4.28279e-20 -9.87798e-16 0)
(4.59317e-20 -9.87798e-16 0)
(4.90122e-20 -9.87798e-16 0)
(5.20708e-20 -9.87799e-16 0)
(5.51088e-20 -9.87799e-16 0)
(5.81274e-20 -9.87799e-16 0)
(6.11269e-20 -9.87799e-16 0)
(6.4107e-20 -9.87799e-16 0)
(6.70668e-20 -9.87799e-16 0)
(7.00051e-20 -9.87799e-16 0)
(7.29206e-20 -9.87799e-16 0)
(7.58125e-20 -9.87799e-16 0)
(7.86806e-20 -9.87799e-16 0)
(8.15256e-20 -9.87799e-16 0)
(8.43494e-20 -9.87799e-16 0)
(8.71547e-20 -9.87799e-16 0)
(8.99452e-20 -9.87799e-16 0)
(9.27252e-20 -9.87799e-16 0)
(9.54996e-20 -9.87799e-16 0)
(9.82734e-20 -9.87799e-16 0)
(1.01052e-19 -9.87799e-16 0)
(1.03839e-19 -9.87799e-16 0)
(1.06639e-19 -9.87799e-16 0)
(1.09458e-19 -9.87799e-16 0)
(2.53426e-19 -3.56482e-15 0)
(3.77961e-09 -1.26779e-05 0)
(-6.6613e-08 -0.000298776 0)
(1.62803e-21 -9.87804e-16 0)
(4.86414e-21 -9.87804e-16 0)
(8.06803e-21 -9.87804e-16 0)
(1.12531e-20 -9.87804e-16 0)
(1.44289e-20 -9.87804e-16 0)
(1.76009e-20 -9.87804e-16 0)
(2.07712e-20 -9.87804e-16 0)
(2.39392e-20 -9.87804e-16 0)
(2.71025e-20 -9.87804e-16 0)
(3.02577e-20 -9.87804e-16 0)
(3.34013e-20 -9.87804e-16 0)
(3.65303e-20 -9.87804e-16 0)
(3.96423e-20 -9.87804e-16 0)
(4.2736e-20 -9.87804e-16 0)
(4.58107e-20 -9.87804e-16 0)
(4.88665e-20 -9.87804e-16 0)
(5.19038e-20 -9.87804e-16 0)
(5.4923e-20 -9.87804e-16 0)
(5.79247e-20 -9.87805e-16 0)
(6.0909e-20 -9.87805e-16 0)
(6.38758e-20 -9.87805e-16 0)
(6.68251e-20 -9.87805e-16 0)
(6.97567e-20 -9.87805e-16 0)
(7.26703e-20 -9.87805e-16 0)
(7.55661e-20 -9.87806e-16 0)
(7.84446e-20 -9.87806e-16 0)
(8.13066e-20 -9.87806e-16 0)
(8.41535e-20 -9.87806e-16 0)
(8.6987e-20 -9.87806e-16 0)
(8.98092e-20 -9.87806e-16 0)
(9.26224e-20 -9.87806e-16 0)
(9.54287e-20 -9.87806e-16 0)
(9.82305e-20 -9.87806e-16 0)
(1.0103e-19 -9.87807e-16 0)
(1.03828e-19 -9.87807e-16 0)
(1.06626e-19 -9.87807e-16 0)
(1.09427e-19 -9.87807e-16 0)
(2.68285e-19 -3.82832e-15 0)
(3.374e-09 -1.17298e-05 0)
(-4.56579e-08 -0.000279672 0)
(1.64365e-21 -9.87809e-16 0)
(4.90845e-21 -9.87809e-16 0)
(8.13419e-21 -9.87809e-16 0)
(1.13314e-20 -9.87809e-16 0)
(1.4508e-20 -9.87809e-16 0)
(1.76694e-20 -9.87809e-16 0)
(2.08188e-20 -9.87809e-16 0)
(2.39573e-20 -9.87809e-16 0)
(2.7085e-20 -9.87809e-16 0)
(3.0201e-20 -9.87809e-16 0)
(3.33041e-20 -9.87809e-16 0)
(3.63931e-20 -9.87809e-16 0)
(3.9467e-20 -9.87809e-16 0)
(4.25253e-20 -9.8781e-16 0)
(4.55677e-20 -9.8781e-16 0)
(4.85942e-20 -9.8781e-16 0)
(5.16049e-20 -9.8781e-16 0)
(5.46002e-20 -9.8781e-16 0)
(5.75804e-20 -9.87811e-16 0)
(6.05456e-20 -9.87811e-16 0)
(6.3496e-20 -9.87811e-16 0)
(6.64318e-20 -9.87811e-16 0)
(6.93531e-20 -9.87811e-16 0)
(7.22602e-20 -9.87812e-16 0)
(7.51534e-20 -9.87812e-16 0)
(7.80332e-20 -9.87812e-16 0)
(8.09003e-20 -9.87812e-16 0)
(8.37554e-20 -9.87813e-16 0)
(8.65995e-20 -9.87813e-16 0)
(8.94334e-20 -9.87813e-16 0)
(9.2258e-20 -9.87813e-16 0)
(9.50737e-20 -9.87813e-16 0)
(9.78808e-20 -9.87814e-16 0)
(1.00679e-19 -9.87814e-16 0)
(1.03466e-19 -9.87814e-16 0)
(1.06241e-19 -9.87814e-16 0)
(1.08999e-19 -9.87814e-16 0)
(2.82336e-19 -4.09564e-15 0)
(2.99448e-09 -1.08337e-05 0)
(-2.83595e-08 -0.000260918 0)
(1.64542e-21 -9.87814e-16 0)
(4.91234e-21 -9.87814e-16 0)
(8.13623e-21 -9.87814e-16 0)
(1.13259e-20 -9.87814e-16 0)
(1.44882e-20 -9.87814e-16 0)
(1.76283e-20 -9.87814e-16 0)
(2.075e-20 -9.87814e-16 0)
(2.38556e-20 -9.87814e-16 0)
(2.69462e-20 -9.87814e-16 0)
(3.00226e-20 -9.87814e-16 0)
(3.3085e-20 -9.87815e-16 0)
(3.61333e-20 -9.87815e-16 0)
(3.91676e-20 -9.87815e-16 0)
(4.21879e-20 -9.87815e-16 0)
(4.51943e-20 -9.87815e-16 0)
(4.8187e-20 -9.87816e-16 0)
(5.11664e-20 -9.87816e-16 0)
(5.41327e-20 -9.87816e-16 0)
(5.70862e-20 -9.87816e-16 0)
(6.00273e-20 -9.87817e-16 0)
(6.29561e-20 -9.87817e-16 0)
(6.58731e-20 -9.87817e-16 0)
(6.87783e-20 -9.87818e-16 0)
(7.16722e-20 -9.87818e-16 0)
(7.45551e-20 -9.87818e-16 0)
(7.74274e-20 -9.87819e-16 0)
(8.02894e-20 -9.87819e-16 0)
(8.31416e-20 -9.87819e-16 0)
(8.59845e-20 -9.8782e-16 0)
(8.88184e-20 -9.8782e-16 0)
(9.16434e-20 -9.8782e-16 0)
(9.44595e-20 -9.8782e-16 0)
(9.72663e-20 -9.87821e-16 0)
(1.00063e-19 -9.87821e-16 0)
(1.02849e-19 -9.87821e-16 0)
(1.05621e-19 -9.87822e-16 0)
(1.08379e-19 -9.87822e-16 0)
(2.96133e-19 -4.36706e-15 0)
(2.64991e-09 -9.97842e-06 0)
(-1.50825e-08 -0.000242564 0)
(1.63633e-21 -9.87819e-16 0)
(4.88437e-21 -9.87819e-16 0)
(8.08726e-21 -9.87819e-16 0)
(1.12526e-20 -9.87819e-16 0)
(1.43867e-20 -9.87819e-16 0)
(1.74946e-20 -9.87819e-16 0)
(2.05802e-20 -9.87819e-16 0)
(2.36463e-20 -9.87819e-16 0)
(2.6695e-20 -9.87819e-16 0)
(2.97279e-20 -9.8782e-16 0)
(3.27461e-20 -9.8782e-16 0)
(3.57502e-20 -9.8782e-16 0)
(3.8741e-20 -9.8782e-16 0)
(4.1719e-20 -9.87821e-16 0)
(4.46848e-20 -9.87821e-16 0)
(4.76387e-20 -9.87821e-16 0)
(5.05813e-20 -9.87822e-16 0)
(5.3513e-20 -9.87822e-16 0)
(5.64342e-20 -9.87822e-16 0)
(5.93452e-20 -9.87823e-16 0)
(6.22463e-20 -9.87823e-16 0)
(6.5138e-20 -9.87823e-16 0)
(6.80204e-20 -9.87824e-16 0)
(7.08938e-20 -9.87824e-16 0)
(7.37585e-20 -9.87825e-16 0)
(7.66148e-20 -9.87825e-16 0)
(7.9463e-20 -9.87825e-16 0)
(8.23033e-20 -9.87826e-16 0)
(8.51359e-20 -9.87826e-16 0)
(8.79611e-20 -9.87827e-16 0)
(9.0779e-20 -9.87827e-16 0)
(9.35897e-20 -9.87827e-16 0)
(9.63931e-20 -9.87828e-16 0)
(9.91889e-20 -9.87828e-16 0)
(1.01976e-19 -9.87829e-16 0)
(1.04753e-19 -9.87829e-16 0)
(1.07515e-19 -9.87829e-16 0)
(3.09394e-19 -4.65391e-15 0)
(2.32917e-09 -9.15811e-06 0)
(-5.42174e-09 -0.00022463 0)
(1.61826e-21 -9.87823e-16 0)
(4.82991e-21 -9.87823e-16 0)
(7.9955e-21 -9.87823e-16 0)
(1.11219e-20 -9.87824e-16 0)
(1.42149e-20 -9.87824e-16 0)
(1.72794e-20 -9.87824e-16 0)
(2.03193e-20 -9.87824e-16 0)
(2.3338e-20 -9.87824e-16 0)
(2.6338e-20 -9.87824e-16 0)
(2.93212e-20 -9.87825e-16 0)
(3.22894e-20 -9.87825e-16 0)
(3.52439e-20 -9.87825e-16 0)
(3.81858e-20 -9.87826e-16 0)
(4.11159e-20 -9.87826e-16 0)
(4.40353e-20 -9.87826e-16 0)
(4.69445e-20 -9.87827e-16 0)
(4.98442e-20 -9.87827e-16 0)
(5.2735e-20 -9.87828e-16 0)
(5.56173e-20 -9.87828e-16 0)
(5.84917e-20 -9.87829e-16 0)
(6.13584e-20 -9.87829e-16 0)
(6.42178e-20 -9.87829e-16 0)
(6.70701e-20 -9.8783e-16 0)
(6.99155e-20 -9.8783e-16 0)
(7.27543e-20 -9.87831e-16 0)
(7.55865e-20 -9.87831e-16 0)
(7.84124e-20 -9.87832e-16 0)
(8.12319e-20 -9.87832e-16 0)
(8.40454e-20 -9.87833e-16 0)
(8.6853e-20 -9.87833e-16 0)
(8.96552e-20 -9.87834e-16 0)
(9.24525e-20 -9.87835e-16 0)
(9.52462e-20 -9.87835e-16 0)
(9.8038e-20 -9.87836e-16 0)
(1.00831e-19 -9.87836e-16 0)
(1.03631e-19 -9.87837e-16 0)
(1.06448e-19 -9.87837e-16 0)
(3.23671e-19 -4.99078e-15 0)
(2.04028e-09 -8.3719e-06 0)
(1.09016e-09 -0.00020712 0)
(1.5924e-21 -9.87828e-16 0)
(4.75242e-21 -9.87828e-16 0)
(7.86625e-21 -9.87828e-16 0)
(1.09402e-20 -9.87828e-16 0)
(1.39799e-20 -9.87828e-16 0)
(1.69899e-20 -9.87829e-16 0)
(1.99744e-20 -9.87829e-16 0)
(2.29368e-20 -9.87829e-16 0)
(2.58798e-20 -9.87829e-16 0)
(2.88059e-20 -9.8783e-16 0)
(3.1717e-20 -9.8783e-16 0)
(3.46149e-20 -9.8783e-16 0)
(3.7501e-20 -9.87831e-16 0)
(4.03766e-20 -9.87831e-16 0)
(4.32428e-20 -9.87832e-16 0)
(4.61004e-20 -9.87832e-16 0)
(4.89503e-20 -9.87833e-16 0)
(5.17932e-20 -9.87833e-16 0)
(5.46298e-20 -9.87834e-16 0)
(5.74604e-20 -9.87834e-16 0)
(6.02855e-20 -9.87835e-16 0)
(6.31054e-20 -9.87835e-16 0)
(6.59202e-20 -9.87836e-16 0)
(6.87302e-20 -9.87837e-16 0)
(7.15354e-20 -9.87837e-16 0)
(7.43357e-20 -9.87838e-16 0)
(7.7131e-20 -9.87838e-16 0)
(7.99212e-20 -9.87839e-16 0)
(8.2706e-20 -9.8784e-16 0)
(8.54854e-20 -9.8784e-16 0)
(8.82589e-20 -9.87841e-16 0)
(9.10265e-20 -9.87841e-16 0)
(9.37879e-20 -9.87842e-16 0)
(9.65428e-20 -9.87843e-16 0)
(9.92909e-20 -9.87843e-16 0)
(1.02031e-19 -9.87844e-16 0)
(1.04762e-19 -9.87845e-16 0)
(3.38879e-19 -5.33425e-15 0)
(1.75814e-09 -7.61708e-06 0)
(5.38428e-09 -0.000190029 0)
(1.55953e-21 -9.87833e-16 0)
(4.65414e-21 -9.87833e-16 0)
(7.703e-21 -9.87833e-16 0)
(1.07121e-20 -9.87833e-16 0)
(1.36867e-20 -9.87833e-16 0)
(1.66314e-20 -9.87833e-16 0)
(1.95502e-20 -9.87834e-16 0)
(2.24467e-20 -9.87834e-16 0)
(2.53239e-20 -9.87834e-16 0)
(2.81843e-20 -9.87835e-16 0)
(3.10303e-20 -9.87835e-16 0)
(3.38637e-20 -9.87835e-16 0)
(3.66864e-20 -9.87836e-16 0)
(3.94997e-20 -9.87836e-16 0)
(4.2305e-20 -9.87837e-16 0)
(4.51034e-20 -9.87837e-16 0)
(4.78959e-20 -9.87838e-16 0)
(5.06833e-20 -9.87839e-16 0)
(5.34664e-20 -9.87839e-16 0)
(5.62457e-20 -9.8784e-16 0)
(5.90217e-20 -9.87841e-16 0)
(6.17947e-20 -9.87841e-16 0)
(6.45648e-20 -9.87842e-16 0)
(6.73321e-20 -9.87843e-16 0)
(7.00965e-20 -9.87843e-16 0)
(7.28578e-20 -9.87844e-16 0)
(7.56156e-20 -9.87845e-16 0)
(7.83695e-20 -9.87845e-16 0)
(8.11189e-20 -9.87846e-16 0)
(8.38629e-20 -9.87847e-16 0)
(8.66006e-20 -9.87848e-16 0)
(8.9331e-20 -9.87848e-16 0)
(9.20527e-20 -9.87849e-16 0)
(9.47642e-20 -9.8785e-16 0)
(9.74638e-20 -9.87851e-16 0)
(1.00149e-19 -9.87851e-16 0)
(1.02818e-19 -9.87852e-16 0)
(3.49456e-19 -5.69156e-15 0)
(1.5047e-09 -6.8907e-06 0)
(7.83835e-09 -0.000173353 0)
(1.5202e-21 -9.87837e-16 0)
(4.53664e-21 -9.87837e-16 0)
(7.50819e-21 -9.87837e-16 0)
(1.04405e-20 -9.87837e-16 0)
(1.33387e-20 -9.87838e-16 0)
(1.62073e-20 -9.87838e-16 0)
(1.90502e-20 -9.87838e-16 0)
(2.18711e-20 -9.87838e-16 0)
(2.4673e-20 -9.87839e-16 0)
(2.74587e-20 -9.87839e-16 0)
(3.02306e-20 -9.8784e-16 0)
(3.29909e-20 -9.8784e-16 0)
(3.57414e-20 -9.87841e-16 0)
(3.84839e-20 -9.87841e-16 0)
(4.12199e-20 -9.87842e-16 0)
(4.39507e-20 -9.87843e-16 0)
(4.66774e-20 -9.87843e-16 0)
(4.9401e-20 -9.87844e-16 0)
(5.21225e-20 -9.87845e-16 0)
(5.48424e-20 -9.87846e-16 0)
(5.75614e-20 -9.87846e-16 0)
(6.02797e-20 -9.87847e-16 0)
(6.29977e-20 -9.87848e-16 0)
(6.57153e-20 -9.87849e-16 0)
(6.84324e-20 -9.87849e-16 0)
(7.11487e-20 -9.8785e-16 0)
(7.38636e-20 -9.87851e-16 0)
(7.65765e-20 -9.87852e-16 0)
(7.92864e-20 -9.87853e-16 0)
(8.19922e-20 -9.87853e-16 0)
(8.46925e-20 -9.87854e-16 0)
(8.73857e-20 -9.87855e-16 0)
(9.00697e-20 -9.87856e-16 0)
(9.27426e-20 -9.87857e-16 0)
(9.54018e-20 -9.87858e-16 0)
(9.80448e-20 -9.87858e-16 0)
(1.00669e-19 -9.87859e-16 0)
(3.63561e-19 -6.06852e-15 0)
(1.27411e-09 -6.18815e-06 0)
(8.87005e-09 -0.000157094 0)
(1.47479e-21 -9.87841e-16 0)
(4.40107e-21 -9.87841e-16 0)
(7.28362e-21 -9.87842e-16 0)
(1.01279e-20 -9.87842e-16 0)
(1.29387e-20 -9.87842e-16 0)
(1.57205e-20 -9.87842e-16 0)
(1.84773e-20 -9.87843e-16 0)
(2.12125e-20 -9.87843e-16 0)
(2.39294e-20 -9.87843e-16 0)
(2.66307e-20 -9.87844e-16 0)
(2.93191e-20 -9.87845e-16 0)
(3.19969e-20 -9.87845e-16 0)
(3.46661e-20 -9.87846e-16 0)
(3.73285e-20 -9.87846e-16 0)
(3.9986e-20 -9.87847e-16 0)
(4.26399e-20 -9.87848e-16 0)
(4.52917e-20 -9.87849e-16 0)
(4.79424e-20 -9.87849e-16 0)
(5.05933e-20 -9.8785e-16 0)
(5.32451e-20 -9.87851e-16 0)
(5.58984e-20 -9.87852e-16 0)
(5.8554e-20 -9.87853e-16 0)
(6.1212e-20 -9.87854e-16 0)
(6.38727e-20 -9.87854e-16 0)
(6.65359e-20 -9.87855e-16 0)
(6.92015e-20 -9.87856e-16 0)
(7.18689e-20 -9.87857e-16 0)
(7.45373e-20 -9.87858e-16 0)
(7.72058e-20 -9.87859e-16 0)
(7.9873e-20 -9.8786e-16 0)
(8.25375e-20 -9.87861e-16 0)
(8.51974e-20 -9.87862e-16 0)
(8.78503e-20 -9.87863e-16 0)
(9.04935e-20 -9.87864e-16 0)
(9.31239e-20 -9.87865e-16 0)
(9.57373e-20 -9.87865e-16 0)
(9.83284e-20 -9.87866e-16 0)
(3.73444e-19 -6.45757e-15 0)
(1.06907e-09 -5.52507e-06 0)
(8.8229e-09 -0.000141255 0)
(1.42364e-21 -9.87846e-16 0)
(4.24838e-21 -9.87846e-16 0)
(7.03078e-21 -9.87846e-16 0)
(9.77603e-21 -9.87846e-16 0)
(1.24888e-20 -9.87846e-16 0)
(1.51735e-20 -9.87847e-16 0)
(1.78338e-20 -9.87847e-16 0)
(2.04733e-20 -9.87847e-16 0)
(2.30952e-20 -9.87848e-16 0)
(2.57024e-20 -9.87848e-16 0)
(2.82974e-20 -9.87849e-16 0)
(3.08828e-20 -9.8785e-16 0)
(3.34607e-20 -9.8785e-16 0)
(3.60332e-20 -9.87851e-16 0)
(3.86021e-20 -9.87852e-16 0)
(4.11692e-20 -9.87853e-16 0)
(4.37359e-20 -9.87854e-16 0)
(4.63038e-20 -9.87854e-16 0)
(4.8874e-20 -9.87855e-16 0)
(5.14478e-20 -9.87856e-16 0)
(5.4026e-20 -9.87857e-16 0)
(5.66095e-20 -9.87858e-16 0)
(5.91988e-20 -9.87859e-16 0)
(6.17944e-20 -9.8786e-16 0)
(6.43964e-20 -9.87861e-16 0)
(6.70048e-20 -9.87862e-16 0)
(6.96193e-20 -9.87863e-16 0)
(7.22395e-20 -9.87864e-16 0)
(7.48644e-20 -9.87865e-16 0)
(7.74931e-20 -9.87866e-16 0)
(8.01242e-20 -9.87867e-16 0)
(8.27562e-20 -9.87868e-16 0)
(8.53874e-20 -9.87869e-16 0)
(8.80158e-20 -9.87871e-16 0)
(9.06395e-20 -9.87872e-16 0)
(9.32566e-20 -9.87872e-16 0)
(9.58655e-20 -9.87873e-16 0)
(3.86227e-19 -6.80366e-15 0)
(8.90513e-10 -4.89028e-06 0)
(8.00276e-09 -0.000125844 0)
(1.36703e-21 -9.8785e-16 0)
(4.07942e-21 -9.8785e-16 0)
(6.75104e-21 -9.8785e-16 0)
(9.38685e-21 -9.8785e-16 0)
(1.19913e-20 -9.8785e-16 0)
(1.45686e-20 -9.87851e-16 0)
(1.71224e-20 -9.87851e-16 0)
(1.96562e-20 -9.87852e-16 0)
(2.2173e-20 -9.87852e-16 0)
(2.46759e-20 -9.87853e-16 0)
(2.71675e-20 -9.87853e-16 0)
(2.96502e-20 -9.87854e-16 0)
(3.21265e-20 -9.87855e-16 0)
(3.45984e-20 -9.87856e-16 0)
(3.7068e-20 -9.87857e-16 0)
(3.95373e-20 -9.87857e-16 0)
(4.20079e-20 -9.87858e-16 0)
(4.44817e-20 -9.87859e-16 0)
(4.69601e-20 -9.8786e-16 0)
(4.94446e-20 -9.87861e-16 0)
(5.19365e-20 -9.87862e-16 0)
(5.4437e-20 -9.87863e-16 0)
(5.6947e-20 -9.87865e-16 0)
(5.94674e-20 -9.87866e-16 0)
(6.19988e-20 -9.87867e-16 0)
(6.45416e-20 -9.87868e-16 0)
(6.7096e-20 -9.87869e-16 0)
(6.96617e-20 -9.8787e-16 0)
(7.22385e-20 -9.87872e-16 0)
(7.48256e-20 -9.87873e-16 0)
(7.74222e-20 -9.87874e-16 0)
(8.0027e-20 -9.87875e-16 0)
(8.26385e-20 -9.87876e-16 0)
(8.52554e-20 -9.87877e-16 0)
(8.78759e-20 -9.87878e-16 0)
(9.04987e-20 -9.8788e-16 0)
(9.31229e-20 -9.87881e-16 0)
(3.88825e-19 -7.01603e-15 0)
(7.28042e-10 -4.27417e-06 0)
(6.79945e-09 -0.000110877 0)
(1.30527e-21 -9.87853e-16 0)
(3.89506e-21 -9.87853e-16 0)
(6.44582e-21 -9.87854e-16 0)
(8.9622e-21 -9.87854e-16 0)
(1.14485e-20 -9.87854e-16 0)
(1.39085e-20 -9.87855e-16 0)
(1.63459e-20 -9.87855e-16 0)
(1.87641e-20 -9.87856e-16 0)
(2.11659e-20 -9.87856e-16 0)
(2.35544e-20 -9.87857e-16 0)
(2.59322e-20 -9.87858e-16 0)
(2.83017e-20 -9.87858e-16 0)
(3.06655e-20 -9.87859e-16 0)
(3.30257e-20 -9.8786e-16 0)
(3.53846e-20 -9.87861e-16 0)
(3.77442e-20 -9.87862e-16 0)
(4.01066e-20 -9.87863e-16 0)
(4.24737e-20 -9.87864e-16 0)
(4.48475e-20 -9.87865e-16 0)
(4.72297e-20 -9.87866e-16 0)
(4.96222e-20 -9.87867e-16 0)
(5.20264e-20 -9.87869e-16 0)
(5.4444e-20 -9.8787e-16 0)
(5.68764e-20 -9.87871e-16 0)
(5.93248e-20 -9.87872e-16 0)
(6.17902e-20 -9.87874e-16 0)
(6.42734e-20 -9.87875e-16 0)
(6.6775e-20 -9.87876e-16 0)
(6.92951e-20 -9.87878e-16 0)
(7.18337e-20 -9.87879e-16 0)
(7.43903e-20 -9.8788e-16 0)
(7.6964e-20 -9.87882e-16 0)
(7.95533e-20 -9.87883e-16 0)
(8.21565e-20 -9.87884e-16 0)
(8.4771e-20 -9.87885e-16 0)
(8.73935e-20 -9.87887e-16 0)
(9.00194e-20 -9.87888e-16 0)
(3.83913e-19 -7.03764e-15 0)
(5.84553e-10 -3.69638e-06 0)
(5.42907e-09 -9.63747e-05 0)
(1.23867e-21 -9.87857e-16 0)
(3.69627e-21 -9.87857e-16 0)
(6.11667e-21 -9.87857e-16 0)
(8.50421e-21 -9.87858e-16 0)
(1.08629e-20 -9.87858e-16 0)
(1.31963e-20 -9.87858e-16 0)
(1.55079e-20 -9.87859e-16 0)
(1.78008e-20 -9.87859e-16 0)
(2.00779e-20 -9.8786e-16 0)
(2.2342e-20 -9.87861e-16 0)
(2.45956e-20 -9.87862e-16 0)
(2.68414e-20 -9.87862e-16 0)
(2.90816e-20 -9.87863e-16 0)
(3.13186e-20 -9.87864e-16 0)
(3.35546e-20 -9.87865e-16 0)