/*--------------------------------*- C++ -*----------------------------------*\
  =========                 |
  \\      /  F ield         | OpenFOAM: The Open Source CFD Toolbox
   \\    /   O peration     | Website:  https://openfoam.org
    \\  /    A nd           | Version:  10
     \\/     M anipulation  |
\*---------------------------------------------------------------------------*/
FoamFile
{
    format      ascii;
    class       volScalarField;
    location    "11600";
    object      p;
}
// * * * * * * * * * * * * * * * * * * * * * * * * * * * * * * * * * * * * * //

dimensions      [1 -1 -2 0 0 0 0];

internalField   nonuniform List<scalar> 
6400
(
111.314
111.327
111.353
111.392
111.445
111.512
111.593
111.69
111.802
111.931
112.078
112.244
112.432
112.643
112.881
113.149
113.454
113.803
114.208
114.69
115.287
116.333
402.708
693.198
973.819
1240.28
1499.33
1780.75
2060.32
2325.87
2583.7
2833.4
3006.63
3109.46
3206.82
3296.32
3374.75
3438.42
3483.54
3506.99
3506.99
3483.54
3438.42
3374.75
3296.32
3206.82
3109.46
3006.63
2833.4
2583.7
2325.87
2060.32
1780.75
1499.33
1240.28
973.819
693.198
402.708
116.333
115.287
114.69
114.208
113.803
113.454
113.149
112.881
112.643
112.432
112.244
112.078
111.931
111.802
111.69
111.593
111.512
111.445
111.392
111.353
111.327
111.314
111.019
111.032
111.058
111.098
111.151
111.217
111.299
111.395
111.507
111.636
111.783
111.949
112.137
112.348
112.585
112.854
113.158
113.506
113.911
114.391
114.988
115.874
116.82
399.361
680.317
946.519
1204.29
1486.79
1766.92
2032.19
2290.05
2539.83
2713.49
2816.69
2914.6
3004.82
3084.1
3148.63
3194.46
3218.3
3218.3
3194.46
3148.63
3084.1
3004.82
2914.6
2816.69
2713.49
2539.83
2290.05
2032.19
1766.92
1486.79
1204.29
946.519
680.317
399.361
116.82
115.874
114.988
114.391
113.911
113.506
113.158
112.854
112.585
112.348
112.137
111.949
111.783
111.636
111.507
111.395
111.299
111.217
111.151
111.098
111.058
111.032
111.019
110.695
110.708
110.734
110.774
110.827
110.894
110.975
111.071
111.183
111.312
111.458
111.625
111.812
112.023
112.26
112.528
112.831
113.178
113.581
114.057
114.645
115.447
116.184
116.728
359.145
624.599
879.231
1164.4
1445.85
1710.44
1968.37
2218.33
2392.95
2497.03
2596.2
2688.13
2769.39
2835.94
2883.46
2908.26
2908.26
2883.46
2835.94
2769.39
2688.13
2596.2
2497.03
2392.95
2218.33
1968.37
1710.44
1445.85
1164.4
879.231
624.599
359.145
116.728
116.184
115.447
114.645
114.057
113.581
113.178
112.831
112.528
112.26
112.023
111.812
111.625
111.458
111.312
111.183
111.071
110.975
110.894
110.827
110.774
110.734
110.708
110.695
110.339
110.352
110.378
110.418
110.471
110.537
110.618
110.715
110.826
110.955
111.101
111.267
111.454
111.664
111.901
112.168
112.47
112.815
113.214
113.684
114.256
114.982
115.657
116.116
116.414
271.86
520.443
810.893
1094.74
1357.91
1616.03
1866.21
2042.5
2148.05
2249.41
2344.35
2429.15
2499.38
2549.98
2576.53
2576.53
2549.98
2499.38
2429.15
2344.35
2249.41
2148.05
2042.5
1866.21
1616.03
1357.91
1094.74
810.893
520.443
271.86
116.414
116.116
115.657
114.982
114.256
113.684
113.214
112.815
112.47
112.168
111.901
111.664
111.454
111.267
111.101
110.955
110.826
110.715
110.618
110.537
110.471
110.418
110.378
110.352
110.339
109.948
109.961
109.987
110.026
110.079
110.146
110.227
110.323
110.434
110.562
110.708
110.874
111.06
111.269
111.505
111.77
112.071
112.413
112.806
113.267
113.817
114.477
115.095
115.548
115.871
116.258
122.64
423.407
711.22
971.566
1230.15
1480.47
1659.3
1766.98
1871.69
1971.46
2061.95
2138.25
2194.04
2223.52
2223.52
2194.04
2138.25
2061.95
1971.46
1871.69
1766.98
1659.3
1480.47
1230.15
971.566
711.22
423.407
122.64
116.258
115.871
115.548
115.095
114.477
113.817
113.267
112.806
112.413
112.071
111.77
111.505
111.269
111.06
110.874
110.708
110.562
110.434
110.323
110.227
110.146
110.079
110.026
109.987
109.961
109.948
109.518
109.53
109.556
109.596
109.648
109.715
109.795
109.891
110.002
110.13
110.276
110.44
110.625
110.834
111.068
111.331
111.629
111.966
112.353
112.801
113.325
113.927
114.494
114.937
115.284
115.681
116.363
116.207
295.237
547.912
807.645
1057.62
1240.15
1350.54
1459.91
1567.12
1666.3
1752.35
1816.66
1850.91
1850.91
1816.66
1752.35
1666.3
1567.12
1459.91
1350.54
1240.15
1057.62
807.645
547.912
295.237
116.207
116.363
115.681
115.284
114.937
114.494
113.927
113.325
112.801
112.353
111.966
111.629
111.331
111.068
110.834
110.625
110.44
110.276
110.13
110.002
109.891
109.795
109.715
109.648
109.596
109.556
109.53
109.518
109.044
109.057
109.083
109.122
109.174
109.24
109.321
109.416
109.527
109.654
109.799
109.962
110.147
110.353
110.585
110.846
111.14
111.472
111.85
112.282
112.778
113.327
113.848
114.278
114.635
115.017
115.502
115.386
115.19
116.322
345.933
593.568
781.669
894.584
1009.82
1128.68
1240.44
1342.26
1420.79
1462.76
1462.76
1420.79
1342.26
1240.44
1128.68
1009.82
894.584
781.669
593.568
345.933
116.322
115.19
115.386
115.502
115.017
114.635
114.278
113.848
113.327
112.778
112.282
111.85
111.472
111.14
110.846
110.585
110.353
110.147
109.962
109.799
109.654
109.527
109.416
109.321
109.24
109.174
109.122
109.083
109.057
109.044
108.523
108.536
108.562
108.6
108.653
108.718
108.798
108.893
109.003
109.13
109.273
109.436
109.618
109.823
110.052
110.309
110.598
110.923
111.29
111.705
112.17
112.672
113.152
113.564
113.919
114.275
114.637
114.624
114.542
114.724
114.5
116.015
282.958
394.119
514.994
654.287
781.597
909.903
1013.33
1067.64
1067.64
1013.33
909.903
781.597
654.287
514.994
394.119
282.958
116.015
114.5
114.724
114.542
114.624
114.637
114.275
113.919
113.564
113.152
112.672
112.17
111.705
111.29
110.923
110.598
110.309
110.052
109.823
109.618
109.436
109.273
109.13
109.003
108.893
108.798
108.718
108.653
108.6
108.562
108.536
108.523
107.949
107.962
107.988
108.026
108.078
108.144
108.223
108.317
108.426
108.552
108.694
108.855
109.035
109.237
109.463
109.716
109.998
110.315
110.669
111.064
111.499
111.957
112.399
112.79
113.134
113.46
113.747
113.799
113.788
113.889
113.807
113.996
113.803
113.83
114.378
172.626
288.881
463.6
611.563
683.78
683.78
611.563
463.6
288.881
172.626
114.378
113.83
113.803
113.996
113.807
113.889
113.788
113.799
113.747
113.46
113.134
112.79
112.399
111.957
111.499
111.064
110.669
110.315
109.998
109.716
109.463
109.237
109.035
108.855
108.694
108.552
108.426
108.317
108.223
108.144
108.078
108.026
107.988
107.962
107.949
107.318
107.331
107.356
107.394
107.446
107.51
107.589
107.682
107.79
107.914
108.055
108.214
108.392
108.591
108.812
109.059
109.334
109.64
109.979
110.353
110.757
111.177
111.582
111.95
112.277
112.574
112.816
112.907
112.941
113.009
112.994
113.084
113.011
113.004
113.004
112.93
113.001
133.226
273.681
354.231
354.231
273.681
133.226
113.001
112.93
113.004
113.004
113.011
113.084
112.994
113.009
112.941
112.907
112.816
112.574
112.277
111.95
111.582
111.177
110.757
110.353
109.979
109.64
109.334
109.059
108.812
108.591
108.392
108.214
108.055
107.914
107.79
107.682
107.589
107.51
107.446
107.394
107.356
107.331
107.318
106.622
106.635
106.66
106.698
106.749
106.813
106.891
106.983
107.089
107.212
107.35
107.506
107.681
107.876
108.092
108.333
108.599
108.892
109.215
109.566
109.94
110.324
110.696
111.038
111.344
111.614
111.828
111.942
112.004
112.063
112.08
112.126
112.099
112.088
112.077
112.054
112.05
112.308
133.66
170.531
170.531
133.66
112.308
112.05
112.054
112.077
112.088
112.099
112.126
112.08
112.063
112.004
111.942
111.828
111.614
111.344
111.038
110.696
110.324
109.94
109.566
109.215
108.892
108.599
108.333
108.092
107.876
107.681
107.506
107.35
107.212
107.089
106.983
106.891
106.813
106.749
106.698
106.66
106.635
106.622
105.856
105.868
105.893
105.931
105.981
106.044
106.121
106.211
106.316
106.436
106.572
106.725
106.896
107.086
107.296
107.529
107.784
108.065
108.369
108.697
109.041
109.392
109.731
110.047
110.331
110.578
110.773
110.898
110.976
111.036
111.069
111.099
111.091
111.084
111.077
111.068
111.064
111.088
115.005
126.353
126.353
115.005
111.088
111.064
111.068
111.077
111.084
111.091
111.099
111.069
111.036
110.976
110.898
110.773
110.578
110.331
110.047
109.731
109.392
109.041
108.697
108.369
108.065
107.784
107.529
107.296
107.086
106.896
106.725
106.572
106.436
106.316
106.211
106.121
106.044
105.981
105.931
105.893
105.868
105.856
105.011
105.024
105.048
105.085
105.134
105.196
105.271
105.36
105.463
105.581
105.714
105.863
106.029
106.213
106.416
106.639
106.883
107.148
107.434
107.738
108.054
108.372
108.682
108.971
109.231
109.457
109.639
109.767
109.856
109.92
109.96
109.987
109.987
109.985
109.981
109.976
109.971
109.967
110.716
116.075
116.075
110.716
109.967
109.971
109.976
109.981
109.985
109.987
109.987
109.96
109.92
109.856
109.767
109.639
109.457
109.231
108.971
108.682
108.372
108.054
107.738
107.434
107.148
106.883
106.639
106.416
106.213
106.029
105.863
105.714
105.581
105.463
105.36
105.271
105.196
105.134
105.085
105.048
105.024
105.011
104.08
104.092
104.116
104.152
104.2
104.261
104.335
104.421
104.522
104.636
104.765
104.91
105.07
105.248
105.442
105.655
105.886
106.135
106.401
106.681
106.969
107.258
107.539
107.802
108.039
108.246
108.415
108.544
108.637
108.704
108.749
108.777
108.783
108.783
108.782
108.778
108.773
108.766
108.755
112.006
112.006
108.755
108.766
108.773
108.778
108.782
108.783
108.783
108.777
108.749
108.704
108.637
108.544
108.415
108.246
108.039
107.802
107.539
107.258
106.969
106.681
106.401
106.135
105.886
105.655
105.442
105.248
105.07
104.91
104.765
104.636
104.522
104.421
104.335
104.261
104.2
104.152
104.116
104.092
104.08
103.053
103.065
103.088
103.123
103.17
103.229
103.301
103.385
103.482
103.593
103.718
103.857
104.011
104.18
104.366
104.567
104.784
105.016
105.262
105.518
105.78
106.041
106.294
106.531
106.747
106.936
107.094
107.218
107.312
107.382
107.43
107.459
107.468
107.47
107.47
107.468
107.464
107.457
107.442
109.946
109.946
107.442
107.457
107.464
107.468
107.47
107.47
107.468
107.459
107.43
107.382
107.312
107.218
107.094
106.936
106.747
106.531
106.294
106.041
105.78
105.518
105.262
105.016
104.784
104.567
104.366
104.18
104.011
103.857
103.718
103.593
103.482
103.385
103.301
103.229
103.17
103.123
103.088
103.065
103.053
101.92
101.931
101.954
101.988
102.033
102.09
102.16
102.241
102.335
102.441
102.561
102.693
102.84
103.001
103.176
103.364
103.567
103.781
104.006
104.239
104.475
104.71
104.937
105.15
105.345
105.517
105.663
105.781
105.874
105.943
105.993
106.024
106.034
106.038
106.039
106.037
106.033
106.027
106.012
108.365
108.365
106.012
106.027
106.033
106.037
106.039
106.038
106.034
106.024
105.993
105.943
105.874
105.781
105.663
105.517
105.345
105.15
104.937
104.71
104.475
104.239
104.006
103.781
103.567
103.364
103.176
103.001
102.84
102.693
102.561
102.441
102.335
102.241
102.16
102.09
102.033
101.988
101.954
101.931
101.92
100.59
100.6
100.622
100.655
100.698
100.753
100.819
100.897
100.986
101.088
101.201
101.326
101.464
101.615
101.777
101.952
102.137
102.333
102.536
102.744
102.955
103.163
103.364
103.553
103.726
103.881
104.014
104.125
104.213
104.281
104.33
104.362
104.373
104.378
104.379
104.378
104.374
104.367
104.352
106.711
106.711
104.352
104.367
104.374
104.378
104.379
104.378
104.373
104.362
104.33
104.281
104.213
104.125
104.014
103.881
103.726
103.553
103.364
103.163
102.955
102.744
102.536
102.333
102.137
101.952
101.777
101.615
101.464
101.326
101.201
101.088
100.986
100.897
100.819
100.753
100.698
100.655
100.622
100.6
100.59
99.1114
99.1217
99.1424
99.1734
99.2149
99.2669
99.3296
99.403
99.4872
99.5824
99.6886
99.8059
99.9341
100.073
100.223
100.382
100.551
100.727
100.909
101.094
101.28
101.463
101.64
101.807
101.96
102.098
102.218
102.319
102.402
102.466
102.513
102.544
102.556
102.56
102.561
102.56
102.556
102.55
102.535
104.947
104.947
102.535
102.55
102.556
102.56
102.561
102.56
102.556
102.544
102.513
102.466
102.402
102.319
102.218
102.098
101.96
101.807
101.64
101.463
101.28
101.094
100.909
100.727
100.551
100.382
100.223
100.073
99.9341
99.8059
99.6886
99.5824
99.4872
99.403
99.3296
99.2669
99.2149
99.1734
99.1424
99.1217
99.1114
97.6229
97.6327
97.6523
97.6816
97.7209
97.77
97.829
97.8981
97.9772
98.0663
98.1654
98.2744
98.3932
98.5213
98.6585
98.8039
98.9565
99.1152
99.2781
99.4433
99.6082
99.7701
99.9262
100.074
100.21
100.333
100.441
100.533
100.608
100.668
100.712
100.741
100.752
100.756
100.757
100.756
100.752
100.745
100.73
103.209
103.209
100.73
100.745
100.752
100.756
100.757
100.756
100.752
100.741
100.712
100.668
100.608
100.533
100.441
100.333
100.21
100.074
99.9262
99.7701
99.6082
99.4433
99.2781
99.1152
98.9565
98.8039
98.6585
98.5213
98.3932
98.2744
98.1654
98.0663
97.9772
97.8981
97.829
97.77
97.7209
97.6816
97.6523
97.6327
97.6229
96.1247
96.1339
96.1523
96.18
96.2169
96.2631
96.3185
96.3832
96.4571
96.5401
96.6322
96.7332
96.8428
96.9605
97.0859
97.2182
97.3564
97.4993
97.6453
97.7927
97.9392
98.0828
98.2211
98.3518
98.4728
98.5823
98.6791
98.7621
98.8309
98.8855
98.9261
98.9529
98.9627
98.9661
98.967
98.9653
98.9611
98.9544
98.9392
101.49
101.49
98.9392
98.9544
98.9611
98.9653
98.967
98.9661
98.9627
98.9529
98.9261
98.8855
98.8309
98.7621
98.6791
98.5823
98.4728
98.3518
98.2211
98.0828
97.9392
97.7927
97.6453
97.4993
97.3564
97.2182
97.0859
96.9605
96.8428
96.7332
96.6322
96.5401
96.4571
96.3832
96.3185
96.2631
96.2169
96.18
96.1523
96.1339
96.1247
94.6172
94.6259
94.6432
94.6691
94.7037
94.7469
94.7987
94.859
94.9278
95.0049
95.0902
95.1834
95.2842
95.392
95.5064
95.6266
95.7516
95.8802
96.0112
96.1428
96.2733
96.4009
96.5237
96.6397
96.7472
96.8448
96.9313
97.0058
97.0679
97.1172
97.1538
97.1779
97.1863
97.189
97.1893
97.1873
97.1829
97.176
97.1607
99.7917
99.7917
97.1607
97.176
97.1829
97.1873
97.1893
97.189
97.1863
97.1779
97.1538
97.1172
97.0679
97.0058
96.9313
96.8448
96.7472
96.6397
96.5237
96.4009
96.2733
96.1428
96.0112
95.8802
95.7516
95.6266
95.5064
95.392
95.2842
95.1834
95.0902
95.0049
94.9278
94.859
94.7987
94.7469
94.7037
94.6691
94.6432
94.6259
94.6172
93.1011
93.1092
93.1253
93.1496
93.1819
93.2222
93.2704
93.3265
93.3903
93.4616
93.5403
93.626
93.7184
93.817
93.9212
94.0302
94.1431
94.2589
94.3763
94.494
94.6104
94.7239
94.833
94.936
95.0316
95.1184
95.1955
95.2621
95.3175
95.3616
95.3942
95.4152
95.4221
95.4241
95.4238
95.4213
95.4166
95.4097
95.3942
98.1129
98.1129
95.3942
95.4097
95.4166
95.4213
95.4238
95.4241
95.4221
95.4152
95.3942
95.3616
95.3175
95.2621
95.1955
95.1184
95.0316
94.936
94.833
94.7239
94.6104
94.494
94.3763
94.2589
94.1431
94.0302
93.9212
93.817
93.7184
93.626
93.5403
93.4616
93.3903
93.3265
93.2704
93.2222
93.1819
93.1496
93.1253
93.1092
93.1011
91.5769
91.5844
91.5995
91.622
91.6521
91.6895
91.7342
91.7862
91.8451
91.9109
91.9833
92.062
92.1465
92.2364
92.3311
92.4298
92.5318
92.636
92.7412
92.8465
92.9503
93.0513
93.1483
93.2398
93.3246
93.4018
93.4702
93.5294
93.5786
93.6175
93.646
93.6639
93.6693
93.6705
93.6696
93.6666
93.6616
93.6545
93.639
96.4543
96.4543
93.639
93.6545
93.6616
93.6666
93.6696
93.6705
93.6693
93.6639
93.646
93.6175
93.5786
93.5294
93.4702
93.4018
93.3246
93.2398
93.1483
93.0513
92.9503
92.8465
92.7412
92.636
92.5318
92.4298
92.3311
92.2364
92.1465
92.062
91.9833
91.9109
91.8451
91.7862
91.7342
91.6895
91.6521
91.622
91.5995
91.5844
91.5769
90.0451
90.0521
90.0661
90.087
90.1149
90.1495
90.1909
90.2388
90.2931
90.3537
90.4201
90.4921
90.5692
90.6511
90.737
90.8263
90.9182
91.0119
91.1063
91.2003
91.2929
91.3829
91.469
91.5502
91.6255
91.6938
91.7544
91.8066
91.8498
91.8839
91.9084
91.9233
91.927
91.9274
91.9259
91.9224
91.9171
91.9098
91.8941
94.8164
94.8164
91.8941
91.9098
91.9171
91.9224
91.9259
91.9274
91.927
91.9233
91.9084
91.8839
91.8498
91.8066
91.7544
91.6938
91.6255
91.5502
91.469
91.3829
91.2929
91.2003
91.1063
91.0119
90.9182
90.8263
90.737
90.6511
90.5692
90.4921
90.4201
90.3537
90.2931
90.2388
90.1909
90.1495
90.1149
90.087
90.0661
90.0521
90.0451
88.5063
88.5128
88.5257
88.5451
88.5708
88.6028
88.6409
88.6851
88.735
88.7905
88.8513
88.917
88.9873
89.0616
89.1395
89.2201
89.3029
89.3871
89.4716
89.5556
89.6382
89.7182
89.7947
89.8666
89.9332
89.9935
90.0469
90.0926
90.1304
90.1598
90.1805
90.1923
90.1945
90.1941
90.1919
90.1879
90.1822
90.1747
90.1589
93.1997
93.1997
90.1589
90.1747
90.1822
90.1879
90.1919
90.1941
90.1945
90.1923
90.1805
90.1598
90.1304
90.0926
90.0469
89.9935
89.9332
89.8666
89.7947
89.7182
89.6382
89.5556
89.4716
89.3871
89.3029
89.2201
89.1395
89.0616
88.9873
88.917
88.8513
88.7905
88.735
88.6851
88.6409
88.6028
88.5708
88.5451
88.5257
88.5128
88.5063
86.9611
86.9671
86.979
86.9968
87.0205
87.05
87.085
87.1255
87.1713
87.222
87.2775
87.3374
87.4013
87.4687
87.5391
87.6118
87.6863
87.7618
87.8375
87.9125
87.986
88.0571
88.1248
88.1885
88.2472
88.3002
88.3469
88.3868
88.4194
88.4443
88.4613
88.4703
88.4709
88.4696
88.4668
88.4623
88.4562
88.4485
88.4326
91.6056
91.6056
88.4326
88.4485
88.4562
88.4623
88.4668
88.4696
88.4709
88.4703
88.4613
88.4443
88.4194
88.3868
88.3469
88.3002
88.2472
88.1885
88.1248
88.0571
87.986
87.9125
87.8375
87.7618
87.6863
87.6118
87.5391
87.4687
87.4013
87.3374
87.2775
87.222
87.1713
87.1255
87.085
87.05
87.0205
86.9968
86.979
86.9671
86.9611
85.4098
85.4153
85.4263
85.4427
85.4645
85.4915
85.5236
85.5607
85.6025
85.6488
85.6994
85.7538
85.8118
85.8728
85.9363
86.0018
86.0687
86.1364
86.204
86.2709
86.3362
86.3992
86.4592
86.5153
86.5668
86.6132
86.6538
86.6882
86.7159
86.7367
86.7502
86.7564
86.7555
86.7534
86.7499
86.7449
86.7384
86.7304
86.7143
90.0357
90.0357
86.7143
86.7304
86.7384
86.7449
86.7499
86.7534
86.7555
86.7564
86.7502
86.7367
86.7159
86.6882
86.6538
86.6132
86.5668
86.5153
86.4592
86.3992
86.3362
86.2709
86.204
86.1364
86.0687
86.0018
85.9363
85.8728
85.8118
85.7538
85.6994
85.6488
85.6025
85.5607
85.5236
85.4915
85.4645
85.4427
85.4263
85.4153
85.4098
83.8531
83.8582
83.8682
83.8833
83.9032
83.9279
83.9573
83.9911
84.0293
84.0714
84.1174
84.1668
84.2192
84.2743
84.3315
84.3904
84.4505
84.5109
84.5713
84.6308
84.6887
84.7445
84.7973
84.8466
84.8917
84.932
84.967
84.9963
85.0195
85.0363
85.0465
85.05
85.0475
85.0447
85.0404
85.0349
85.028
85.0197
85.0034
88.4924
88.4924
85.0034
85.0197
85.028
85.0349
85.0404
85.0447
85.0475
85.05
85.0465
85.0363
85.0195
84.9963
84.967
84.932
84.8917
84.8466
84.7973
84.7445
84.6887
84.6308
84.5713
84.5109
84.4505
84.3904
84.3315
84.2743
84.2192
84.1668
84.1174
84.0714
84.0293
83.9911
83.9573
83.9279
83.9032
83.8833
83.8682
83.8582
83.8531
82.2913
82.296
82.3052
82.3189
82.3371
82.3597
82.3864
82.4173
82.452
82.4903
82.5319
82.5766
82.624
82.6736
82.7251
82.778
82.8317
82.8857
82.9394
82.9922
83.0435
83.0926
83.139
83.1821
83.2213
83.256
83.2859
83.3105
83.3295
83.3426
83.3496
83.3504
83.3464
83.3427
83.3378
83.3317
83.3243
83.3157
83.2992
86.9789
86.9789
83.2992
83.3157
83.3243
83.3317
83.3378
83.3427
83.3464
83.3504
83.3496
83.3426
83.3295
83.3105
83.2859
83.256
83.2213
83.1821
83.139
83.0926
83.0435
82.9922
82.9394
82.8857
82.8317
82.778
82.7251
82.6736
82.624
82.5766
82.5319
82.4903
82.452
82.4173
82.3864
82.3597
82.3371
82.3189
82.3052
82.296
82.2913
80.725
80.7292
80.7376
80.7501
80.7667
80.7872
80.8116
80.8396
80.8711
80.9058
80.9434
80.9838
81.0265
81.0711
81.1173
81.1646
81.2126
81.2607
81.3084
81.3551
81.4003
81.4435
81.4841
81.5215
81.5553
81.5849
81.6101
81.6303
81.6453
81.6549
81.6589
81.6571
81.6516
81.6471
81.6415
81.6347
81.6268
81.6179
81.6011
85.5001
85.5001
81.6011
81.6179
81.6268
81.6347
81.6415
81.6471
81.6516
81.6571
81.6589
81.6549
81.6453
81.6303
81.6101
81.5849
81.5553
81.5215
81.4841
81.4435
81.4003
81.3551
81.3084
81.2607
81.2126
81.1646
81.1173
81.0711
81.0265
80.9838
80.9434
80.9058
80.8711
80.8396
80.8116
80.7872
80.7667
80.7501
80.7376
80.7292
80.725
79.1544
79.1582
79.1658
79.1772
79.1923
79.2109
79.233
79.2584
79.2869
79.3183
79.3523
79.3886
79.427
79.4671
79.5084
79.5507
79.5934
79.6361
79.6783
79.7195
79.7593
79.797
79.8323
79.8645
79.8934
79.9184
79.9391
79.9553
79.9666
79.9729
79.9739
79.9695
79.9625
79.9572
79.9508
79.9434
79.9349
79.9255
79.9084
84.0623
84.0623
79.9084
79.9255
79.9349
79.9434
79.9508
79.9572
79.9625
79.9695
79.9739
79.9729
79.9666
79.9553
79.9391
79.9184
79.8934
79.8645
79.8323
79.797
79.7593
79.7195
79.6783
79.6361
79.5934
79.5507
79.5084
79.4671
79.427
79.3886
79.3523
79.3183
79.2869
79.2584
79.233
79.2109
79.1923
79.1772
79.1658
79.1582
79.1544
77.5799
77.5834
77.5903
77.6007
77.6143
77.6312
77.6512
77.6742
77.6999
77.7282
77.7588
77.7914
77.8258
77.8617
77.8986
77.9363
77.9742
78.012
78.0493
78.0855
78.1202
78.153
78.1834
78.211
78.2354
78.2561
78.2728
78.2852
78.293
78.2961
78.2942
78.2873
78.2788
78.2726
78.2654
78.2572
78.2481
78.2382
78.2207
82.6742
82.6742
78.2207
78.2382
78.2481
78.2572
78.2654
78.2726
78.2788
78.2873
78.2942
78.2961
78.293
78.2852
78.2728
78.2561
78.2354
78.211
78.1834
78.153
78.1202
78.0855
78.0493
78.012
77.9742
77.9363
77.8986
77.8617
77.8258
77.7914
77.7588
77.7282
77.6999
77.6742
77.6512
77.6312
77.6143
77.6007
77.5903
77.5834
77.5799
76.002
76.0052
76.0114
76.0208
76.0331
76.0484
76.0664
76.0871
76.1103
76.1357
76.1632
76.1925
76.2233
76.2553
76.2881
76.3216
76.3551
76.3885
76.4212
76.4529
76.4831
76.5114
76.5374
76.5607
76.581
76.5977
76.6107
76.6196
76.6242
76.6242
76.6195
76.6101
76.6
76.5928
76.5847
76.5758
76.5659
76.5553
76.5375
81.3503
81.3503
76.5375
76.5553
76.5659
76.5758
76.5847
76.5928
76.6
76.6101
76.6195
76.6242
76.6242
76.6196
76.6107
76.5977
76.581
76.5607
76.5374
76.5114
76.4831
76.4529
76.4212
76.3885
76.3551
76.3216
76.2881
76.2553
76.2233
76.1925
76.1632
76.1357
76.1103
76.0871
76.0664
76.0484
76.0331
76.0208
76.0114
76.0052
76.002
74.421
74.4238
74.4295
74.4379
74.449
74.4628
74.479
74.4976
74.5184
74.5412
74.5658
74.592
74.6195
74.6479
74.6771
74.7067
74.7363
74.7656
74.7942
74.8218
74.8479
74.8721
74.8941
74.9136
74.93
74.9432
74.9528
74.9584
74.9599
74.957
74.9496
74.9376
74.9257
74.9175
74.9085
74.8986
74.888
74.8765
74.8583
80.1111
80.1111
74.8583
74.8765
74.888
74.8986
74.9085
74.9175
74.9257
74.9376
74.9496
74.957
74.9599
74.9584
74.9528
74.9432
74.93
74.9136
74.8941
74.8721
74.8479
74.8218
74.7942
74.7656
74.7363
74.7067
74.6771
74.6479
74.6195
74.592
74.5658
74.5412
74.5184
74.4976
74.479
74.4628
74.449
74.4379
74.4295
74.4238
74.421
72.8371
72.8396
72.8447
72.8523
72.8623
72.8747
72.8893
72.9059
72.9246
72.945
72.9669
72.9902
73.0146
73.0399
73.0657
73.0918
73.1178
73.1434
73.1683
73.1921
73.2145
73.235
73.2534
73.2693
73.2824
73.2923
73.2987
73.3013
73.2999
73.2943
73.2842
73.2697
73.2559
73.2466
73.2365
73.2255
73.2138
73.2014
73.1827
78.9887
78.9887
73.1827
73.2014
73.2138
73.2255
73.2365
73.2466
73.2559
73.2697
73.2842
73.2943
73.2999
73.3013
73.2987
73.2923
73.2824
73.2693
73.2534
73.235
73.2145
73.1921
73.1683
73.1434
73.1178
73.0918
73.0657
73.0399
73.0146
72.9902
72.9669
72.945
72.9246
72.9059
72.8893
72.8747
72.8623
72.8523
72.8447
72.8396
72.8371
71.2506
71.2529
71.2575
71.2643
71.2733
71.2843
71.2974
71.3123
71.3289
71.3471
71.3666
71.3873
71.409
71.4313
71.454
71.4769
71.4996
71.5219
71.5434
71.5639
71.5829
71.6001
71.6152
71.628
71.638
71.6449
71.6484
71.6483
71.6442
71.636
71.6233
71.6061
71.5904
71.5799
71.5685
71.5563
71.5433
71.5297
71.5104
78.0356
78.0356
71.5104
71.5297
71.5433
71.5563
71.5685
71.5799
71.5904
71.6061
71.6233
71.636
71.6442
71.6483
71.6484
71.6449
71.638
71.628
71.6152
71.6001
71.5829
71.5639
71.5434
71.5219
71.4996
71.4769
71.454
71.4313
71.409
71.3873
71.3666
71.3471
71.3289
71.3123
71.2974
71.2843
71.2733
71.2643
71.2575
71.2529
71.2506
69.6619
69.6639
69.668
69.6741
69.6821
69.692
69.7037
69.7169
69.7317
69.7479
69.7652
69.7835
69.8026
69.8223
69.8422
69.8622
69.882
69.9012
69.9197
69.9371
69.953
69.9673
69.9795
69.9893
69.9966
70.0008
70.0018
69.9992
69.9927
69.9821
69.967
69.9472
69.9294
69.9175
69.9047
69.891
69.8764
69.8612
69.8412
77.3395
77.3395
69.8412
69.8612
69.8764
69.891
69.9047
69.9175
69.9294
69.9472
69.967
69.9821
69.9927
69.9992
70.0018
70.0008
69.9966
69.9893
69.9795
69.9673
69.953
69.9371
69.9197
69.9012
69.882
69.8622
69.8422
69.8223
69.8026
69.7835
69.7652
69.7479
69.7317
69.7169
69.7037
69.692
69.6821
69.6741
69.668
69.6639
69.6619
68.0711
68.0729
68.0766
68.082
68.0891
68.0979
68.1083
68.1201
68.1332
68.1475
68.1628
68.179
68.1957
68.2129
68.2303
68.2477
68.2648
68.2813
68.297
68.3117
68.3249
68.3364
68.346
68.3534
68.3581
68.36
68.3588
68.354
68.3454
68.3326
68.3153
68.293
68.2731
68.2598
68.2454
68.2299
68.2134
68.196
68.1752
77.0305
77.0305
68.1752
68.196
68.2134
68.2299
68.2454
68.2598
68.2731
68.293
68.3153
68.3326
68.3454
68.354
68.3588
68.36
68.3581
68.3534
68.346
68.3364
68.3249
68.3117
68.297
68.2813
68.2648
68.2477
68.2303
68.2129
68.1957
68.179
68.1628
68.1475
68.1332
68.1201
68.1083
68.0979
68.0891
68.082
68.0766
68.0729
68.0711
66.4784
66.4801
66.4833
66.4881
66.4945
66.5023
66.5115
66.5219
66.5335
66.5461
66.5596
66.5737
66.5884
66.6034
66.6185
66.6335
66.6482
66.6623
66.6755
66.6876
66.6984
66.7076
66.7149
66.72
66.7226
66.7224
66.7192
66.7126
66.7023
66.6877
66.6686
66.6442
66.6223
66.6075
66.5914
66.5739
66.555
66.5347
66.5124
77.1065
77.1065
66.5124
66.5347
66.555
66.5739
66.5914
66.6075
66.6223
66.6442
66.6686
66.6877
66.7023
66.7126
66.7192
66.7224
66.7226
66.72
66.7149
66.7076
66.6984
66.6876
66.6755
66.6623
66.6482
66.6335
66.6185
66.6034
66.5884
66.5737
66.5596
66.5461
66.5335
66.5219
66.5115
66.5023
66.4945
66.4881
66.4833
66.4801
66.4784
64.8842
64.8856
64.8885
64.8928
64.8984
64.9053
64.9134
64.9226
64.9328
64.9438
64.9556
64.968
64.9808
64.9938
65.0068
65.0197
65.0321
65.044
65.055
65.065
65.0736
65.0807
65.0859
65.089
65.0898
65.0879
65.0831
65.075
65.0633
65.0475
65.0271
65.0013
64.978
64.9621
64.9445
64.925
64.9033
64.8793
64.8547
75.483
75.483
64.8547
64.8793
64.9033
64.925
64.9445
64.9621
64.978
65.0013
65.0271
65.0475
65.0633
65.075
65.0831
65.0879
65.0898
65.089
65.0859
65.0807
65.0736
65.065
65.055
65.044
65.0321
65.0197
65.0068
64.9938
64.9808
64.968
64.9556
64.9438
64.9328
64.9226
64.9134
64.9053
64.8984
64.8928
64.8885
64.8856
64.8842
63.2885
63.2898
63.2923
63.296
63.301
63.307
63.3142
63.3222
63.3312
63.3408
63.3511
63.3619
63.3729
63.3841
63.3953
63.4062
63.4167
63.4266
63.4356
63.4436
63.4503
63.4555
63.459
63.4604
63.4596
63.4563
63.4502
63.441
63.4284
63.4119
63.391
63.3649
63.3415
63.3254
63.3075
63.287
63.2632
63.2345
63.2046
63.2001
63.2001
63.2046
63.2345
63.2632
63.287
63.3075
63.3254
63.3415
63.3649
63.391
63.4119
63.4284
63.441
63.4502
63.4563
63.4596
63.4604
63.459
63.4555
63.4503
63.4436
63.4356
63.4266
63.4167
63.4062
63.3953
63.3841
63.3729
63.3619
63.3511
63.3408
63.3312
63.3222
63.3142
63.307
63.301
63.296
63.2923
63.2898
63.2885
61.6917
61.6928
61.6951
61.6984
61.7027
61.708
61.7142
61.7213
61.7291
61.7375
61.7464
61.7556
61.7651
61.7747
61.7842
61.7934
61.8021
61.8103
61.8176
61.8238
61.8288
61.8324
61.8343
61.8343
61.8322
61.8278
61.8207
61.8107
61.7976
61.7809
61.7603
61.7352
61.7134
61.6988
61.6831
61.6663
61.6485
61.6303
61.6126
61.6092
61.6092
61.6126
61.6303
61.6485
61.6663
61.6831
61.6988
61.7134
61.7352
61.7603
61.7809
61.7976
61.8107
61.8207
61.8278
61.8322
61.8343
61.8343
61.8324
61.8288
61.8238
61.8176
61.8103
61.8021
61.7934
61.7842
61.7747
61.7651
61.7556
61.7464
61.7375
61.7291
61.7213
61.7142
61.708
61.7027
61.6984
61.6951
61.6928
61.6917
60.0938
60.0948
60.0968
60.0996
60.1034
60.108
60.1135
60.1196
60.1263
60.1336
60.1412
60.1492
60.1573
60.1654
60.1733
60.181
60.1882
60.1948
60.2005
60.2053
60.2088
60.211
60.2116
60.2104
60.2072
60.2018
60.194
60.1836
60.1703
60.1539
60.134
60.1106
60.0909
60.0781
60.0645
60.0505
60.036
60.0214
60.0068
60.0036
60.0036
60.0068
60.0214
60.036
60.0505
60.0645
60.0781
60.0909
60.1106
60.134
60.1539
60.1703
60.1836
60.194
60.2018
60.2072
60.2104
60.2116
60.211
60.2088
60.2053
60.2005
60.1948
60.1882
60.181
60.1733
60.1654
60.1573
60.1492
60.1412
60.1336
60.1263
60.1196
60.1135
60.108
60.1034
60.0996
60.0968
60.0948
60.0938
58.495
58.4958
58.4975
58.5
58.5033
58.5073
58.512
58.5173
58.5231
58.5293
58.5358
58.5426
58.5494
58.5562
58.5628
58.5691
58.5749
58.5801
58.5845
58.5879
58.5901
58.5911
58.5906
58.5884
58.5843
58.5783
58.57
58.5594
58.5462
58.5302
58.5115
58.4898
58.472
58.4607
58.4488
58.4366
58.4242
58.4116
58.3988
58.3957
58.3957
58.3988
58.4116
58.4242
58.4366
58.4488
58.4607
58.472
58.4898
58.5115
58.5302
58.5462
58.5594
58.57
58.5783
58.5843
58.5884
58.5906
58.5911
58.5901
58.5879
58.5845
58.5801
58.5749
58.5691
58.5628
58.5562
58.5494
58.5426
58.5358
58.5293
58.5231
58.5173
58.512
58.5073
58.5033
58.5
58.4975
58.4958
58.495
56.8953
56.896
56.8975
56.8996
56.9024
56.9059
56.9099
56.9144
56.9194
56.9247
56.9302
56.9359
56.9416
56.9472
56.9526
56.9577
56.9623
56.9662
56.9694
56.9716
56.9728
56.9727
56.9712
56.9682
56.9635
56.957
56.9484
56.9377
56.9248
56.9095
56.8918
56.8718
56.8557
56.8455
56.8349
56.8241
56.813
56.8018
56.7904
56.7874
56.7874
56.7904
56.8018
56.813
56.8241
56.8349
56.8455
56.8557
56.8718
56.8918
56.9095
56.9248
56.9377
56.9484
56.957
56.9635
56.9682
56.9712
56.9727
56.9728
56.9716
56.9694
56.9662
56.9623
56.9577
56.9526
56.9472
56.9416
56.9359
56.9302
56.9247
56.9194
56.9144
56.9099
56.9059
56.9024
56.8996
56.8975
56.896
56.8953
55.2948
55.2955
55.2967
55.2986
55.301
55.3039
55.3073
55.3112
55.3154
55.3198
55.3244
55.3292
55.3339
55.3384
55.3428
55.3468
55.3502
55.3531
55.3552
55.3565
55.3567
55.3557
55.3535
55.3498
55.3445
55.3376
55.3289
55.3183
55.3057
55.2911
55.2745
55.2559
55.2413
55.232
55.2224
55.2126
55.2026
55.1925
55.1821
55.1792
55.1792
55.1821
55.1925
55.2026
55.2126
55.2224
55.232
55.2413
55.2559
55.2745
55.2911
55.3057
55.3183
55.3289
55.3376
55.3445
55.3498
55.3535
55.3557
55.3567
55.3565
55.3552
55.3531
55.3502
55.3468
55.3428
55.3384
55.3339
55.3292
55.3244
55.3198
55.3154
55.3112
55.3073
55.3039
55.301
55.2986
55.2967
55.2955
55.2948
53.6938
53.6943
53.6954
53.6969
53.699
53.7015
53.7043
53.7076
53.7111
53.7148
53.7186
53.7225
53.7263
53.7299
53.7333
53.7363
53.7388
53.7408
53.742
53.7423
53.7417
53.74
53.7371
53.7329
53.7273
53.7201
53.7113
53.7008
53.6887
53.6747
53.6591
53.6418
53.6283
53.6198
53.611
53.602
53.5929
53.5836
53.5741