/*--------------------------------*- C++ -*----------------------------------*\
  =========                 |
  \\      /  F ield         | OpenFOAM: The Open Source CFD Toolbox
   \\    /   O peration     | Website:  https://openfoam.org
    \\  /    A nd           | Version:  10
     \\/     M anipulation  |
\*---------------------------------------------------------------------------*/
FoamFile
{
    format      ascii;
    class       surfaceScalarField;
    location    "1.7";
    object      phi;
}
// * * * * * * * * * * * * * * * * * * * * * * * * * * * * * * * * * * * * * //

dimensions      [0 3 -1 0 0 0 0];

internalField   nonuniform List<scalar> 
24170
(
1.44894e-09
-1.44894e-09
2.68985e-09
-1.24091e-09
3.67313e-09
-9.83285e-10
4.41776e-09
-7.44624e-10
4.97241e-09
-5.54653e-10
5.38967e-09
-4.17261e-10
5.71488e-09
-3.25212e-10
5.98381e-09
-2.68929e-10
6.22412e-09
-2.40304e-10
6.45805e-09
-2.33933e-10
6.70548e-09
-2.47435e-10
6.98737e-09
-2.81889e-10
7.33064e-09
-3.43262e-10
7.77725e-09
-4.46613e-10
8.40598e-09
-6.28735e-10
9.39919e-09
-9.93202e-10
1.13213e-08
-1.92211e-09
-5.47312e-09
1.67944e-08
1.64635e-09
-3.09528e-09
3.05025e-09
-2.64482e-09
4.1558e-09
-2.08884e-09
4.98704e-09
-1.57586e-09
5.60155e-09
-1.16916e-09
6.06041e-09
-8.7612e-10
6.41567e-09
-6.80474e-10
6.708e-09
-5.61255e-10
6.96856e-09
-5.00861e-10
7.22218e-09
-4.87556e-10
7.49079e-09
-5.16046e-10
7.79715e-09
-5.88249e-10
8.16989e-09
-7.16005e-10
8.65222e-09
-9.28941e-10
9.32036e-09
-1.29687e-09
1.03273e-08
-2.00012e-09
1.19853e-08
-3.58017e-09
-7.86076e-09
1.4373e-08
1.84284e-09
-4.93812e-09
3.40515e-09
-4.20713e-09
4.62545e-09
-3.30914e-09
5.53494e-09
-2.48535e-09
6.20155e-09
-1.83577e-09
6.6954e-09
-1.36998e-09
7.07523e-09
-1.0603e-09
7.38627e-09
-8.72289e-10
7.66272e-09
-7.77316e-10
7.93146e-09
-7.56298e-10
8.21574e-09
-8.00317e-10
8.53894e-09
-9.11453e-10
8.92917e-09
-1.10624e-09
9.42576e-09
-1.42553e-09
1.00892e-08
-1.9603e-09
1.10085e-08
-2.91941e-09
1.22297e-08
-4.80135e-09
-8.68137e-09
1.30503e-08
2.06128e-09
-6.99941e-09
3.79444e-09
-5.94028e-09
5.13295e-09
-4.64765e-09
6.11881e-09
-3.47121e-09
6.83345e-09
-2.55041e-09
7.35781e-09
-1.89434e-09
7.75798e-09
-1.46047e-09
8.08385e-09
-1.19816e-09
8.37248e-09
-1.06594e-09
8.65233e-09
-1.03615e-09
8.94727e-09
-1.09526e-09
9.28017e-09
-1.24435e-09
9.67635e-09
-1.50241e-09
1.01668e-08
-1.91594e-09
1.07877e-08
-2.58122e-09
1.15587e-08
-3.69039e-09
1.23565e-08
-5.59921e-09
-8.75869e-09
1.24339e-08
2.31538e-09
-9.31479e-09
4.24e-09
-7.8649e-09
5.70334e-09
-6.11099e-09
6.76401e-09
-4.53187e-09
7.52169e-09
-3.3081e-09
8.07077e-09
-2.44342e-09
8.48576e-09
-1.87546e-09
8.82142e-09
-1.53382e-09
9.1174e-09
-1.36192e-09
9.40326e-09
-1.32201e-09
9.70272e-09
-1.39471e-09
1.00368e-08
-1.57846e-09
1.04261e-08
-1.89167e-09
1.08899e-08
-2.37978e-09
1.14381e-08
-3.1294e-09
1.20349e-08
-4.28723e-09
1.24884e-08
-6.05263e-09
-8.50305e-09
1.22327e-08
2.6203e-09
-1.19351e-08
4.76438e-09
-1.0009e-08
6.36028e-09
-7.70689e-09
7.49227e-09
-5.66386e-09
8.28525e-09
-4.10108e-09
8.8506e-09
-3.00877e-09
9.27261e-09
-2.29747e-09
9.61109e-09
-1.87229e-09
9.90791e-09
-1.65875e-09
1.01931e-08
-1.60722e-09
1.04894e-08
-1.69096e-09
1.08147e-08
-1.90382e-09
1.11833e-08
-2.26024e-09
1.16018e-08
-2.79832e-09
1.20568e-08
-3.58432e-09
1.24794e-08
-4.70983e-09
1.26765e-08
-6.24978e-09
-8.1088e-09
1.22823e-08
2.99645e-09
-1.49315e-08
5.3963e-09
-1.24088e-08
7.13192e-09
-9.4425e-09
8.32764e-09
-6.85959e-09
9.14356e-09
-4.91699e-09
9.71275e-09
-3.57796e-09
1.01308e-08
-2.71548e-09
1.04625e-08
-2.20403e-09
1.07515e-08
-1.94778e-09
1.10276e-08
-1.88325e-09
1.13113e-08
-1.97467e-09
1.16167e-08
-2.20924e-09
1.19508e-08
-2.59436e-09
1.23085e-08
-3.15602e-09
1.26596e-08
-3.93537e-09
1.29233e-08
-4.97359e-09
1.29392e-08
-6.26568e-09
-7.66391e-09
1.24943e-08
3.47363e-09
-1.84052e-08
6.17537e-09
-1.51106e-08
8.05476e-09
-1.13219e-08
9.29942e-09
-8.10425e-09
1.01189e-08
-5.73644e-09
1.06738e-08
-4.13287e-09
1.10725e-08
-3.1142e-09
1.13847e-08
-2.51623e-09
1.16548e-08
-2.21786e-09
1.19111e-08
-2.13956e-09
1.21714e-08
-2.23494e-09
1.24449e-08
-2.48281e-09
1.27317e-08
-2.88112e-09
1.30171e-08
-3.44145e-09
1.3262e-08
-4.18031e-09
1.33892e-08
-5.10075e-09
1.32801e-08
-6.15661e-09
-7.20601e-09
1.28222e-08
4.09753e-09
-2.25027e-08
7.15861e-09
-1.81717e-08
9.17797e-09
-1.33413e-08
1.04446e-08
-9.37084e-09
1.12375e-08
-6.52942e-09
1.17522e-08
-4.64756e-09
1.21108e-08
-3.47274e-09
1.23867e-08
-2.79213e-09
1.26237e-08
-2.4549e-09
1.28476e-08
-2.36347e-09
1.30723e-08
-2.45957e-09
1.33018e-08
-2.71237e-09
1.353e-08
-3.10926e-09
1.37359e-08
-3.6474e-09
1.38785e-08
-4.32289e-09
1.38922e-08
-5.1145e-09
1.36974e-08
-5.96182e-09
-6.74978e-09
1.32412e-08
4.94149e-09
-2.74442e-08
8.43065e-09
-2.16608e-08
1.0569e-08
-1.54796e-08
1.18102e-08
-1.0612e-08
1.2531e-08
-7.25028e-09
1.29689e-08
-5.08541e-09
1.32593e-08
-3.76322e-09
1.34775e-08
-3.01027e-09
1.36642e-08
-2.64166e-09
1.3841e-08
-2.54027e-09
1.40168e-08
-2.63534e-09
1.41905e-08
-2.88608e-09
1.43508e-08
-3.26957e-09
1.44739e-08
-3.77045e-09
1.45213e-08
-4.37031e-09
1.44425e-08
-5.03567e-09
1.41879e-08
-5.70727e-09
-6.29963e-09
1.37378e-08
6.12889e-09
-3.35731e-08
1.01204e-08
-2.56523e-08
1.23211e-08
-1.76802e-08
1.34557e-08
-1.17466e-08
1.40358e-08
-7.83043e-09
1.43461e-08
-5.39568e-09
1.4532e-08
-3.94914e-09
1.46657e-08
-3.1439e-09
1.47816e-08
-2.75764e-09
1.48948e-08
-2.65341e-09
1.50079e-08
-2.74847e-09
1.51147e-08
-2.99293e-09
1.52002e-08
-3.35502e-09
1.52398e-08
-3.81009e-09
1.52007e-08
-4.33119e-09
1.50464e-08
-4.88132e-09
1.47486e-08
-5.40951e-09
-5.85556e-09
1.43045e-08
6.53706e-09
-4.01101e-08
1.03453e-08
-2.94606e-08
1.21544e-08
-1.94893e-08
1.29252e-08
-1.25175e-08
1.32277e-08
-8.13294e-09
1.33374e-08
-5.50538e-09
1.33772e-08
-3.98891e-09
1.33993e-08
-3.16596e-09
1.34238e-08
-2.78217e-09
1.34557e-08
-2.68537e-09
1.34917e-08
-2.78442e-09
1.35221e-08
-3.02336e-09
1.35321e-08
-3.365e-09
1.35017e-08
-3.77968e-09
1.34078e-08
-4.23726e-09
1.32284e-08
-4.70197e-09
1.29505e-08
-5.1316e-09
-5.48271e-09
1.25776e-08
9.71343e-09
-4.98236e-08
1.45412e-08
-3.42883e-08
1.63568e-08
-2.13049e-08
1.6862e-08
-1.30227e-08
1.6889e-08
-8.15993e-09
1.67762e-08
-5.3926e-09
1.66479e-08
-3.86062e-09
1.65436e-08
-3.06164e-09
1.64701e-08
-2.70871e-09
1.64215e-08
-2.63677e-09
1.63858e-08
-2.74868e-09
1.6347e-08
-2.9846e-09
1.62861e-08
-3.30407e-09
1.61816e-08
-3.67513e-09
1.60119e-08
-4.06762e-09
1.576e-08
-4.45007e-09
1.54186e-08
-4.79019e-09
-5.05886e-09
1.49948e-08
1.56796e-08
-6.55032e-08
2.14583e-08
-4.0067e-08
2.26391e-08
-2.24857e-08
2.23565e-08
-1.27401e-08
2.17648e-08
-7.56828e-09
2.12114e-08
-4.8392e-09
2.07729e-08
-3.42202e-09
2.04447e-08
-2.73346e-09
2.02022e-08
-2.46626e-09
2.0018e-08
-2.45255e-09
1.98655e-08
-2.59622e-09
1.97196e-08
-2.83862e-09
1.95557e-08
-3.14023e-09
1.93512e-08
-3.4706e-09
1.90866e-08
-3.80306e-09
1.87493e-08
-4.11275e-09
1.83364e-08
-4.37724e-09
-4.57886e-09
1.78564e-08
2.86779e-08
-9.41811e-08
3.37222e-08
-4.51113e-08
3.23279e-08
-2.10914e-08
3.01006e-08
-1.05128e-08
2.82567e-08
-5.72439e-09
2.69054e-08
-3.48793e-09
2.59416e-08
-2.45816e-09
2.52501e-08
-2.04201e-09
2.47414e-08
-1.95749e-09
2.4349e-08
-2.06015e-09
2.40231e-08
-2.27031e-09
2.37246e-08
-2.54012e-09
2.3422e-08
-2.83764e-09
2.30903e-08
-3.1389e-09
2.27114e-08
-3.42421e-09
2.22756e-08
-3.67694e-09
2.17822e-08
-3.88384e-09
-4.03596e-09
2.12393e-08
6.32679e-08
-1.57449e-07
5.67567e-08
-3.86001e-08
4.7196e-08
-1.15307e-08
4.07247e-08
-4.04154e-09
3.66398e-08
-1.63945e-09
3.40149e-08
-8.6308e-10
3.22667e-08
-7.09935e-10
3.10539e-08
-8.29227e-10
3.01728e-08
-1.07637e-09
2.94956e-08
-1.38298e-09
2.8938e-08
-1.7127e-09
2.84416e-08
-2.04371e-09
2.79651e-08
-2.36112e-09
2.74797e-08
-2.6535e-09
2.69672e-08
-2.91169e-09
2.64187e-08
-3.12847e-09
2.58338e-08
-3.29898e-09
-3.42102e-09
2.52189e-08
1.83182e-07
1.59029e-07
9.70401e-08
4.75423e-08
6.68135e-08
1.86959e-08
5.34693e-08
9.30266e-09
4.64695e-08
5.36037e-09
4.23352e-08
3.27121e-09
3.96804e-08
1.94495e-09
3.78598e-08
9.91364e-10
3.65352e-08
2.48144e-10
3.55084e-08
-3.5614e-10
3.46594e-08
-8.63691e-10
3.39134e-08
-1.29769e-09
3.32209e-08
-1.66862e-09
3.25498e-08
-1.98238e-09
3.18805e-08
-2.24244e-09
3.12034e-08
-2.45134e-09
3.0516e-08
-2.61162e-09
-2.72637e-09
2.98214e-08
7.7249e-08
8.17797e-08
7.5469e-08
4.93222e-08
6.54472e-08
2.87177e-08
5.74612e-08
1.72886e-08
5.19765e-08
1.08451e-08
4.82491e-08
6.99857e-09
4.56496e-08
4.54446e-09
4.37641e-08
2.87686e-09
4.23316e-08
1.68068e-09
4.11906e-08
7.84821e-10
4.02352e-08
9.17622e-11
3.93846e-08
-4.4718e-10
3.85937e-08
-8.77682e-10
3.78347e-08
-1.22339e-09
3.70912e-08
-1.49893e-09
3.63547e-08
-1.71487e-09
3.56226e-08
-1.87947e-09
-1.99963e-09
3.48958e-08
3.59533e-08
4.58264e-08
5.0135e-08
3.51405e-08
5.38225e-08
2.50302e-08
5.36525e-08
1.74586e-08
5.2341e-08
1.21566e-08
5.08563e-08
8.48324e-09
4.94938e-08
5.90703e-09
4.83087e-08
4.0619e-09
4.728e-08
2.70938e-09
4.63688e-08
1.6961e-09
4.55378e-08
9.22759e-10
4.47663e-08
3.24268e-10
4.40296e-08
-1.4099e-10
4.33082e-08
-5.01944e-10
4.25942e-08
-7.84924e-10
4.18842e-08
-1.00493e-09
4.11782e-08
-1.17339e-09
-1.29929e-09
4.04778e-08
1.43087e-08
3.15177e-08
2.32858e-08
2.61633e-08
2.80844e-08
2.02316e-08
3.04264e-08
1.51166e-08
3.14677e-08
1.11153e-08
3.18477e-08
8.1033e-09
3.1894e-08
5.86072e-09
3.17688e-08
4.18707e-09
3.1551e-08
2.92724e-09
3.12784e-08
1.96864e-09
3.09697e-08
1.23152e-09
3.06342e-08
6.59707e-10
3.02798e-08
2.13454e-10
2.99115e-08
-1.33691e-10
2.95293e-08
-4.02719e-10
2.91367e-08
-6.12293e-10
2.87371e-08
-7.7383e-10
-8.9625e-10
2.83341e-08
8.56394e-09
2.29538e-08
1.49465e-08
1.97807e-08
1.91785e-08
1.59997e-08
2.18306e-08
1.24645e-08
2.34469e-08
9.49897e-09
2.44125e-08
7.13777e-09
2.4971e-08
5.30215e-09
2.52706e-08
3.88748e-09
2.54001e-08
2.7978e-09
2.54133e-08
1.95544e-09
2.53438e-08
1.30096e-09
2.52136e-08
7.89925e-10
2.50376e-08
3.89459e-10
2.48287e-08
7.51614e-11
2.45947e-08
-1.68646e-10
2.43408e-08
-3.58386e-10
2.40725e-08
-5.05597e-10
-6.18345e-10
2.37946e-08
5.77443e-09
1.71794e-08
1.04498e-08
1.51054e-08
1.39039e-08
1.25456e-08
1.63335e-08
1.00349e-08
1.80003e-08
7.83218e-09
1.91276e-08
6.01049e-09
1.98794e-08
4.55028e-09
2.03691e-08
3.39783e-09
2.06729e-08
2.494e-09
2.08424e-08
1.78598e-09
2.09127e-08
1.23057e-09
2.09088e-08
7.93912e-10
2.08482e-08
4.49985e-10
2.07445e-08
1.78931e-10
2.06097e-08
-3.38874e-11
2.045e-08
-1.98677e-10
2.02716e-08
-3.27244e-10
-4.26507e-10
2.00798e-08
4.19929e-09
1.29801e-08
7.75543e-09
1.15492e-08
1.05497e-08
9.75126e-09
1.26492e-08
7.93536e-09
1.41865e-08
6.29491e-09
1.52943e-08
4.90269e-09
1.60821e-08
3.76247e-09
1.66331e-08
2.84687e-09
1.70081e-08
2.11899e-09
1.72513e-08
1.54283e-09
1.73946e-08
1.08727e-09
1.74615e-08
7.2694e-10
1.74697e-08
4.41779e-10
1.74325e-08
2.16143e-10
1.73607e-08
3.78918e-11
1.7263e-08
-1.00896e-10
1.71449e-08
-2.0923e-10
-2.934e-10
1.70118e-08
3.20985e-09
9.77021e-09
6.00082e-09
8.75825e-09
8.27794e-09
7.47413e-09
1.00603e-08
6.153e-09
1.14191e-08
4.93614e-09
1.24367e-08
3.88502e-09
1.31882e-08
3.01105e-09
1.37346e-08
2.30046e-09
1.41237e-08
1.72987e-09
1.43919e-08
1.27462e-09
1.45668e-08
9.12393e-10
1.46693e-08
6.24451e-10
1.47154e-08
3.95638e-10
1.47176e-08
2.13932e-10
1.46856e-08
6.9878e-11
1.4628e-08
-4.32551e-11
1.45501e-08
-1.31388e-10
-2.00203e-10
1.44569e-08
2.53757e-09
7.23264e-09
4.78051e-09
6.51532e-09
6.65481e-09
5.59983e-09
8.16118e-09
4.64663e-09
9.34012e-09
3.75721e-09
1.02456e-08
2.97956e-09
1.09305e-08
2.3261e-09
1.14409e-08
1.79005e-09
1.18144e-08
1.35644e-09
1.20806e-08
1.00839e-09
1.22629e-08
7.30113e-10
1.23793e-08
5.08007e-10
1.24441e-08
3.309e-10
1.24682e-08
1.89816e-10
1.24604e-08
7.76269e-11
1.24283e-08
-1.11208e-11
1.2377e-08
-8.01159e-11
-1.34216e-10
1.2311e-08
2.05245e-09
5.18019e-09
3.88586e-09
4.6819e-09
5.44204e-09
4.04366e-09
6.71477e-09
3.3739e-09
7.72849e-09
2.74348e-09
8.52034e-09
2.18771e-09
9.12922e-09
1.71722e-09
9.59046e-09
1.32881e-09
9.93397e-09
1.01293e-09
1.01841e-08
7.58235e-10
1.03604e-08
5.53818e-10
1.04783e-08
3.9013e-10
1.055e-08
2.59226e-10
1.05851e-08
1.54667e-10
1.05914e-08
7.13041e-11
1.05753e-08
5.0505e-12
1.05417e-08
-4.6529e-11
-8.70584e-11
1.04945e-08
1.68515e-09
3.49504e-09
3.20094e-09
3.16611e-09
4.50084e-09
2.74377e-09
5.57645e-09
2.29828e-09
6.44343e-09
1.87651e-09
7.12857e-09
1.50256e-09
7.66142e-09
1.18437e-09
8.06974e-09
9.20485e-10
8.37764e-09
7.05026e-10
8.60518e-09
5.30704e-10
8.76862e-09
3.90369e-10
8.88106e-09
2.77691e-10
8.95294e-09
1.87354e-10
8.99258e-09
1.15025e-10
9.00666e-09
5.72187e-11
9.00056e-09
1.11505e-11
8.97891e-09
-2.4874e-11
-5.3143e-11
8.94499e-09
1.39539e-09
2.09965e-09
2.65634e-09
1.90516e-09
3.7451e-09
1.655e-09
4.65313e-09
1.39025e-09
5.39104e-09
1.13861e-09
5.97896e-09
9.14637e-10
6.43997e-09
7.23369e-10
6.79624e-09
5.64218e-10
7.06738e-09
4.33885e-10
7.26993e-09
3.2815e-10
7.41748e-09
2.42816e-10
7.52103e-09
1.7414e-10
7.58943e-09
1.18957e-10
7.62978e-09
7.46756e-11
7.6478e-09
3.92035e-11
7.64808e-09
1.08628e-11
7.63458e-09
-1.13722e-11
-2.87598e-11
7.6102e-09
1.15685e-09
9.428e-10
2.20551e-09
8.56499e-10
3.11515e-09
7.45368e-10
3.87791e-09
6.27482e-10
4.50138e-09
5.15141e-10
5.00113e-09
4.14884e-10
5.39546e-09
3.29041e-10
5.70225e-09
2.57432e-10
5.93748e-09
1.98649e-10
6.11478e-09
1.50851e-10
6.24541e-09
1.1219e-10
6.33854e-09
8.10091e-11
6.4016e-09
5.59008e-11
6.44056e-09
3.57088e-11
6.46027e-09
1.94969e-11
6.46462e-09
6.5115e-12
6.45692e-09
-3.66859e-12
-1.14889e-11
6.43965e-09
9.428e-10
1.7993e-09
2.54467e-09
3.17215e-09
3.68729e-09
4.10217e-09
4.43121e-09
4.68865e-09
4.8873e-09
5.03815e-09
5.15034e-09
5.23135e-09
5.28725e-09
5.32295e-09
5.34245e-09
5.34896e-09
5.34529e-09
5.33381e-09
2.68127e-09
-2.68127e-09
5.33984e-09
-2.65857e-09
7.8951e-09
-2.55526e-09
1.02978e-08
-2.40268e-09
1.22623e-08
-1.96448e-09
1.41867e-08
-1.92445e-09
1.61387e-08
-1.95195e-09
1.722e-08
-1.0813e-09
1.66316e-08
5.8835e-10
1.64956e-08
1.36057e-10
1.66359e-08
-1.40297e-10
1.69947e-08
-3.58866e-10
1.75926e-08
-5.97925e-10
1.84348e-08
-8.42111e-10
1.91192e-08
-6.84417e-10
1.95016e-08
-3.82449e-10
1.97692e-08
-2.67599e-10
2.00074e-08
-2.38217e-10
2.02574e-08
-2.49978e-10
2.05338e-08
-2.76414e-10
2.08164e-08
-2.8256e-10
2.1033e-08
-2.16562e-10
2.11699e-08
-1.36956e-10
2.12485e-08
-7.85525e-11
2.12818e-08
-3.33366e-11
2.12677e-08
1.41354e-11
2.11932e-08
7.44273e-11
2.10568e-08
1.36407e-10
2.08677e-08
1.89154e-10
2.06348e-08
2.32846e-10
2.03648e-08
2.7004e-10
2.00643e-08
3.00513e-10
1.97405e-08
3.23808e-10
1.94005e-08
3.39986e-10
1.90509e-08
3.49573e-10
1.86974e-08
3.53474e-10
1.83447e-08
3.52743e-10
1.79963e-08
3.48409e-10
1.76549e-08
3.41384e-10
1.73225e-08
3.32425e-10
1.70003e-08
3.22137e-10
1.66893e-08
3.1099e-10
1.639e-08
2.99344e-10
1.61025e-08
2.87464e-10
1.5827e-08
2.75547e-10
1.55633e-08
2.63737e-10
1.53111e-08
2.52135e-10
1.50703e-08
2.40816e-10
1.48405e-08
2.29831e-10
1.46213e-08
2.19212e-10
1.44123e-08
2.08983e-10
1.42131e-08
1.99154e-10
1.40234e-08
1.89731e-10
1.38427e-08
1.80712e-10
1.36706e-08
1.72093e-10
1.35067e-08
1.63865e-10
1.33507e-08
1.56018e-10
1.32022e-08
1.4854e-10
1.30607e-08
1.41419e-10
1.29261e-08
1.34641e-10
1.27979e-08
1.28193e-10
1.26759e-08
1.2206e-10
1.25596e-08
1.16229e-10
1.24489e-08
1.10686e-10
1.23435e-08
1.05418e-10
1.22431e-08
1.00411e-10
1.21475e-08
9.56542e-11
1.20563e-08
9.11346e-11
1.19695e-08
8.68405e-11
1.18867e-08
8.27617e-11
1.18078e-08
7.88868e-11
1.17326e-08
7.52064e-11
1.16609e-08
7.17111e-11
1.15925e-08
6.83915e-11
1.15273e-08
6.52395e-11
1.1465e-08
6.22468e-11
1.14056e-08
5.94058e-11
1.13489e-08
5.67093e-11
1.12948e-08
5.41506e-11
1.1243e-08
5.17229e-11
1.11936e-08
4.94202e-11
1.11464e-08
4.72368e-11
1.11012e-08
4.51667e-11
1.1058e-08
4.3205e-11
1.10167e-08
4.13465e-11
1.09771e-08
3.95866e-11
1.09392e-08
3.79205e-11
1.09028e-08
3.63441e-11
1.0868e-08
3.4853e-11
1.08345e-08
3.34434e-11
1.08024e-08
3.21116e-11
1.07716e-08
3.08539e-11
1.07419e-08
2.96669e-11
1.07133e-08
2.85472e-11
1.06859e-08
2.74919e-11
1.06594e-08
2.64978e-11
1.06338e-08
2.5562e-11
1.06091e-08
2.4682e-11
1.05853e-08
2.38549e-11
1.05622e-08
2.30784e-11
1.05398e-08
2.23499e-11
1.05182e-08
2.16673e-11
1.04971e-08
2.10281e-11
1.04767e-08
2.04307e-11
1.04568e-08
1.98724e-11
1.04375e-08
1.93519e-11
1.04186e-08
1.8867e-11
1.04002e-08
1.8416e-11
1.03822e-08
1.79972e-11
1.03646e-08
1.7609e-11
1.03473e-08
1.725e-11
1.03304e-08
1.69185e-11
1.03138e-08
1.66131e-11
1.02975e-08
1.63326e-11
1.02814e-08
1.60756e-11
1.02656e-08
1.5841e-11
1.02499e-08
1.56273e-11
1.02345e-08
1.5434e-11
1.02192e-08
1.52592e-11
1.02041e-08
1.51027e-11
1.01892e-08
1.49629e-11
1.01743e-08
1.48394e-11
1.01596e-08
1.47308e-11
1.0145e-08
1.46368e-11
1.01304e-08
1.45562e-11
1.01159e-08
1.44883e-11
1.01015e-08
1.44327e-11
1.00871e-08
1.43883e-11
1.00727e-08
1.43547e-11
1.00584e-08
1.43314e-11
1.00441e-08
1.43175e-11
1.00298e-08
1.43128e-11
1.00155e-08
1.43165e-11
1.00011e-08
1.43283e-11
9.98679e-09
1.43477e-11
9.97241e-09
1.43744e-11
9.95801e-09
1.44077e-11
9.94356e-09
1.44478e-11
9.92906e-09
1.44938e-11
9.91452e-09
1.45456e-11
9.89992e-09
1.4603e-11
9.88525e-09
1.46656e-11
9.87052e-09
1.47336e-11
9.85571e-09
1.48064e-11
9.84083e-09
1.48841e-11
9.82586e-09
1.49666e-11
9.81081e-09
1.50538e-11
9.79566e-09
1.51459e-11
9.78042e-09
1.52431e-11
9.76507e-09
1.53456e-11
9.74962e-09
1.54536e-11
9.73405e-09
1.55678e-11
9.71836e-09
1.56891e-11
9.70254e-09
1.5818e-11
9.68659e-09
1.59563e-11
9.67048e-09
1.61053e-11
9.65421e-09
1.62676e-11
9.63777e-09
1.64458e-11
9.62112e-09
1.66438e-11
9.60426e-09
1.68661e-11
9.58714e-09
1.71195e-11
9.56973e-09
1.74119e-11
9.55197e-09
1.77542e-11
9.53381e-09
1.81605e-11
9.51516e-09
1.86498e-11
9.49592e-09
1.92471e-11
9.47593e-09
1.9986e-11
9.45502e-09
2.09124e-11
9.43293e-09
2.20899e-11
9.40932e-09
2.36074e-11
9.38373e-09
2.55929e-11
9.35549e-09
2.82358e-11
9.32366e-09
3.18259e-11
9.28684e-09
3.68297e-11
9.24279e-09
4.4044e-11
9.18784e-09
5.49511e-11
9.11519e-09
7.26513e-11
9.01034e-09
1.04845e-10
8.83409e-09
1.76252e-10
4.00925e-10
8.43317e-09
3.95135e-10
-3.0764e-09
8.54346e-10
-3.11778e-09
1.48805e-09
-3.18896e-09
2.40251e-09
-3.31715e-09
3.99572e-09
-3.55769e-09
6.20904e-09
-4.13778e-09
9.09984e-09
-4.84275e-09
1.35119e-08
-5.49335e-09
1.44805e-08
-3.80303e-10
1.50796e-08
-4.62984e-10
1.55081e-08
-5.68798e-10
1.58889e-08
-7.39632e-10
1.66088e-08
-1.31785e-09
1.90173e-08
-3.25063e-09
2.02181e-08
-1.88521e-09
1.99166e-08
-8.09953e-11
1.98778e-08
-2.28739e-10
1.99729e-08
-3.33363e-10
2.01743e-08
-4.51322e-10
2.05194e-08
-6.21533e-10
2.10367e-08
-7.99856e-10
2.12919e-08
-4.71827e-10
2.13564e-08
-2.01386e-10
2.13898e-08
-1.11993e-10
2.14267e-08
-7.02196e-11
2.14476e-08
-6.74444e-12
2.1374e-08
1.47964e-10
2.12068e-08
3.0366e-10
2.09884e-08
4.07542e-10
2.07346e-08
4.86674e-10
2.04437e-08
5.6089e-10
2.01219e-08
6.22301e-10
1.97778e-08
6.67919e-10
1.94197e-08
6.98128e-10
1.9055e-08
7.14271e-10
1.86897e-08
7.18811e-10
1.83281e-08
7.14317e-10
1.79734e-08
7.03068e-10
1.76279e-08
6.86938e-10
1.72929e-08
6.67408e-10
1.69694e-08
6.45622e-10
1.66579e-08
6.22444e-10
1.63588e-08
5.98517e-10
1.60719e-08
5.74314e-10
1.57973e-08
5.5018e-10
1.55347e-08
5.26361e-10
1.52838e-08
5.03035e-10
1.50442e-08
4.80329e-10
1.48158e-08
4.58328e-10
1.45979e-08
4.37091e-10
1.43902e-08
4.16651e-10
1.41923e-08
3.97028e-10
1.40038e-08
3.78225e-10
1.38243e-08
3.60237e-10
1.36534e-08
3.43052e-10
1.34906e-08
3.26652e-10
1.33356e-08
3.11014e-10
1.3188e-08
2.96115e-10
1.30475e-08
2.81928e-10
1.29137e-08
2.68427e-10
1.27863e-08
2.55581e-10
1.2665e-08
2.43365e-10
1.25495e-08
2.3175e-10
1.24395e-08
2.20709e-10
1.23347e-08
2.10215e-10
1.22348e-08
2.00242e-10
1.21397e-08
1.90765e-10
1.20491e-08
1.81761e-10
1.19627e-08
1.73206e-10
1.18804e-08
1.65079e-10
1.18019e-08
1.57359e-10
1.17271e-08
1.50025e-10
1.16558e-08
1.43059e-10
1.15877e-08
1.36444e-10
1.15228e-08
1.30162e-10
1.14609e-08
1.24197e-10
1.14017e-08
1.18534e-10
1.13453e-08
1.13159e-10
1.12914e-08
1.08058e-10
1.12399e-08
1.03219e-10
1.11907e-08
9.86279e-11
1.11436e-08
9.42745e-11
1.10986e-08
9.01472e-11
1.10556e-08
8.62359e-11
1.10144e-08
8.25302e-11
1.0975e-08
7.90208e-11
1.09372e-08
7.56984e-11
1.0901e-08
7.25547e-11
1.08663e-08
6.95812e-11
1.0833e-08
6.67702e-11
1.08009e-08
6.41141e-11
1.07702e-08
6.16058e-11
1.07406e-08
5.92384e-11
1.07122e-08
5.70054e-11
1.06848e-08
5.49005e-11
1.06583e-08
5.29178e-11
1.06328e-08
5.10516e-11
1.06082e-08
4.92961e-11
1.05844e-08
4.76467e-11
1.05614e-08
4.60977e-11
1.05391e-08
4.46449e-11
1.05175e-08
4.32832e-11
1.04965e-08
4.20086e-11
1.04761e-08
4.08167e-11
1.04563e-08
3.97035e-11
1.0437e-08
3.86652e-11
1.04182e-08
3.7698e-11
1.03998e-08
3.67986e-11
1.03818e-08
3.59633e-11
1.03642e-08
3.51893e-11
1.0347e-08
3.44731e-11
1.03301e-08
3.3812e-11
1.03135e-08
3.3203e-11
1.02972e-08
3.26438e-11
1.02812e-08
3.21313e-11
1.02653e-08
3.16635e-11
1.02497e-08
3.12378e-11
1.02343e-08
3.08519e-11
1.02191e-08
3.0504e-11
1.0204e-08
3.01918e-11
1.0189e-08
2.99135e-11
1.01742e-08
2.96672e-11
1.01595e-08
2.94511e-11
1.01449e-08
2.92637e-11
1.01303e-08
2.91033e-11
1.01158e-08
2.89685e-11
1.01014e-08
2.88576e-11
1.0087e-08
2.87695e-11
1.00727e-08
2.8703e-11
1.00584e-08
2.86567e-11
1.0044e-08
2.86296e-11
1.00297e-08
2.86205e-11
1.00154e-08
2.86283e-11
1.00011e-08
2.86524e-11
9.98675e-09
2.86917e-11
9.97238e-09
2.87451e-11
9.95798e-09
2.88124e-11
9.94353e-09
2.88924e-11
9.92904e-09
2.89847e-11
9.9145e-09
2.90886e-11
9.8999e-09
2.92036e-11
9.88523e-09
2.93292e-11
9.8705e-09
2.94651e-11
9.8557e-09
2.96108e-11
9.84081e-09
2.97663e-11
9.82585e-09
2.99314e-11
9.8108e-09
3.0106e-11
9.79565e-09
3.02902e-11
9.78041e-09
3.04845e-11
9.76507e-09
3.06893e-11
9.74962e-09
3.09053e-11
9.73405e-09
3.11337e-11
9.71836e-09
3.13756e-11
9.70255e-09
3.16335e-11
9.6866e-09
3.19095e-11
9.67049e-09
3.22073e-11
9.65423e-09
3.2531e-11
9.63779e-09
3.28864e-11
9.62115e-09
3.3281e-11
9.60429e-09
3.37243e-11
9.58718e-09
3.42291e-11
9.56979e-09
3.48112e-11
9.55205e-09
3.54925e-11
9.53391e-09
3.6301e-11
9.51528e-09
3.72738e-11
9.49607e-09
3.84607e-11
9.47613e-09
3.99284e-11
9.45527e-09
4.17676e-11
9.43326e-09
4.41033e-11
9.40975e-09
4.71111e-11
9.3843e-09
5.10426e-11
9.35627e-09
5.62678e-11
9.32475e-09
6.33523e-11
9.28838e-09
7.31969e-11
9.2451e-09
8.7325e-11
9.19153e-09
1.08515e-10
9.12181e-09
1.42374e-10
9.02481e-09
2.01847e-10
8.87885e-09
3.22215e-10
6.16297e-10
8.66347e-09
2.4153e-10
-3.31793e-09
4.83171e-10
-3.35942e-09
7.13761e-10
-3.41955e-09
8.95621e-10
-3.49901e-09
9.36677e-10
-3.59874e-09
5.12339e-10
-3.71344e-09
-5.8367e-10
-3.74674e-09
-2.53834e-09
-3.53868e-09
-9.05587e-11
-2.82808e-09
2.00777e-09
-2.56131e-09
4.0833e-09
-2.64433e-09
6.49176e-09
-3.14809e-09
9.55368e-09
-4.37977e-09
1.30445e-08
-6.74142e-09
1.85421e-08
-7.38288e-09
1.87565e-08
-2.95345e-10
1.89e-08
-3.7227e-10
1.90387e-08
-4.72004e-10
1.92205e-08
-6.33143e-10
1.97783e-08
-1.17939e-09
2.21046e-08
-3.12613e-09
2.21675e-08
-5.34754e-10
2.16426e-08
3.23501e-10
2.15213e-08
9.39887e-12
2.16203e-08
-1.69295e-10
2.19098e-08
-2.96176e-10
2.18293e-08
2.28394e-10
2.15018e-08
6.31167e-10
2.1206e-08
7.03398e-10
2.09333e-08
7.5935e-10
2.06026e-08
8.91553e-10
2.02344e-08
9.90541e-10
1.98466e-08
1.05572e-09
1.94499e-08
1.09477e-09
1.90546e-08
1.10964e-09
1.86663e-08
1.10712e-09
1.82883e-08
1.09228e-09
1.79225e-08
1.06886e-09
1.75699e-08
1.03959e-09
1.72308e-08
1.00648e-09
1.69054e-08
9.70989e-10
1.65937e-08
9.34198e-10
1.62953e-08
8.96885e-10
1.601e-08
8.59601e-10
1.57374e-08
8.22743e-10
1.54772e-08
7.8659e-10
1.52289e-08
7.51345e-10
1.49921e-08
7.1715e-10
1.47663e-08
6.84101e-10
1.45511e-08
6.5226e-10
1.43461e-08
6.21663e-10
1.41508e-08
5.92322e-10
1.39648e-08
5.64233e-10
1.37877e-08
5.37382e-10
1.3619e-08
5.11742e-10
1.34584e-08
4.87284e-10
1.33054e-08
4.63972e-10
1.31598e-08
4.41765e-10
1.30211e-08
4.20623e-10
1.2889e-08
4.00505e-10
1.27632e-08
3.81366e-10
1.26434e-08
3.63166e-10
1.25293e-08
3.45861e-10
1.24206e-08
3.29411e-10
1.2317e-08
3.13775e-10
1.22184e-08
2.98916e-10
1.21243e-08
2.84795e-10
1.20347e-08
2.71376e-10
1.19493e-08
2.58627e-10
1.18679e-08
2.46513e-10
1.17902e-08
2.35004e-10
1.17162e-08
2.24071e-10
1.16455e-08
2.13685e-10
1.15782e-08
2.03821e-10
1.15139e-08
1.94452e-10
1.14525e-08
1.85556e-10
1.13939e-08
1.7711e-10
1.1338e-08
1.69092e-10
1.12846e-08
1.61482e-10
1.12335e-08
1.54262e-10
1.11847e-08
1.47412e-10
1.11381e-08
1.40916e-10
1.10935e-08
1.34757e-10
1.10508e-08
1.2892e-10
1.101e-08
1.23389e-10
1.09708e-08
1.18151e-10
1.09333e-08
1.13192e-10
1.08974e-08
1.08499e-10
1.08629e-08
1.04061e-10
1.08298e-08
9.98642e-11
1.0798e-08
9.5899e-11
1.07675e-08
9.21542e-11
1.07381e-08
8.86197e-11
1.07098e-08
8.52858e-11
1.06826e-08
8.21431e-11
1.06563e-08
7.91827e-11
1.0631e-08
7.63961e-11
1.06065e-08
7.37753e-11
1.05828e-08
7.13121e-11
1.05599e-08
6.89994e-11
1.05377e-08
6.68299e-11
1.05162e-08
6.47968e-11
1.04953e-08
6.28936e-11
1.0475e-08
6.11139e-11
1.04553e-08
5.94517e-11
1.04361e-08
5.79014e-11
1.04173e-08
5.64573e-11
1.0399e-08
5.51145e-11
1.03811e-08
5.38675e-11
1.03636e-08
5.27117e-11
1.03464e-08
5.16427e-11
1.03295e-08
5.06559e-11
1.0313e-08
4.97469e-11
1.02967e-08
4.89121e-11
1.02807e-08
4.81475e-11
1.02649e-08
4.74493e-11
1.02493e-08
4.68141e-11
1.0234e-08
4.62387e-11
1.02187e-08
4.57196e-11
1.02037e-08
4.52541e-11
1.01888e-08
4.48391e-11
1.0174e-08
4.44721e-11
1.01593e-08
4.41502e-11
1.01446e-08
4.38712e-11
1.01301e-08
4.36324e-11
1.01157e-08
4.34318e-11
1.01012e-08
4.32673e-11
1.00869e-08
4.31367e-11
1.00725e-08
4.30383e-11
1.00582e-08
4.29703e-11
1.00439e-08
4.29306e-11
1.00296e-08
4.29181e-11
1.00153e-08
4.29311e-11
1.0001e-08
4.29681e-11
9.98668e-09
4.30277e-11
9.97231e-09
4.31089e-11
9.95791e-09
4.32103e-11
9.94348e-09
4.33312e-11
9.92899e-09
4.34701e-11
9.91445e-09
4.36265e-11
9.89986e-09
4.37994e-11
9.8852e-09
4.39883e-11
9.87047e-09
4.41925e-11
9.85567e-09
4.44114e-11
9.84079e-09
4.4645e-11
9.82583e-09
4.48927e-11
9.81078e-09
4.51546e-11
9.79564e-09
4.54311e-11
9.7804e-09
4.57225e-11
9.76506e-09
4.60296e-11
9.74961e-09
4.63533e-11
9.73405e-09
4.66953e-11
9.71837e-09
4.70579e-11
9.70256e-09
4.74438e-11
9.68661e-09
4.78568e-11
9.67052e-09
4.83019e-11
9.65426e-09
4.87857e-11
9.63783e-09
4.93166e-11
9.62121e-09
4.99055e-11
9.60437e-09
5.05667e-11
9.58728e-09
5.13187e-11
9.5699e-09
5.21857e-11
9.55219e-09
5.31995e-11
9.53409e-09
5.44014e-11
9.51552e-09
5.58466e-11
9.49637e-09
5.76081e-11
9.47652e-09
5.97846e-11
9.45578e-09
6.25093e-11
9.43391e-09
6.59656e-11
9.41061e-09
7.04104e-11
9.38545e-09
7.62099e-11
9.35781e-09
8.39007e-11
9.32687e-09
9.4294e-11
9.2914e-09
1.08669e-10
9.24958e-09
1.29149e-10
9.19859e-09
1.59496e-10
9.13403e-09
2.06936e-10
9.04915e-09
2.86728e-10
8.93727e-09
4.34096e-10
7.31622e-10
8.82195e-09
1.86822e-10
-3.50475e-09
3.64989e-10
-3.53759e-09
5.20207e-10
-3.57477e-09
6.34856e-10
-3.61366e-09
6.81774e-10
-3.64566e-09
6.30674e-10
-3.66234e-09
5.26363e-10
-3.64243e-09
5.53553e-10
-3.56587e-09
1.1722e-09
-3.44673e-09
2.01851e-09
-3.40762e-09
2.87132e-09
-3.49713e-09
3.45291e-09
-3.72968e-09
3.15273e-09
-4.0796e-09
7.98207e-10
-4.3869e-09
-2.42313e-09
-4.16153e-09
3.82722e-10
-3.1012e-09
2.65015e-09
-2.63969e-09
4.76771e-09
-2.58957e-09
7.11409e-09
-2.97953e-09
1.00331e-08
-4.09842e-09
1.34052e-08
-6.49816e-09
1.93399e-08
-6.46947e-09
1.99952e-08
-3.31822e-10
2.04516e-08
-4.47001e-10
2.09804e-08
-6.98092e-10
2.3439e-08
-2.7548e-09
2.30135e-08
6.53937e-10
2.17015e-08
1.94316e-09
2.13516e-08
1.05324e-09
2.12891e-08
8.21921e-10
2.08595e-08
1.32112e-09
2.03937e-08
1.45639e-09
1.99325e-08
1.51689e-09
1.94703e-08
1.55693e-09
1.90295e-08
1.55049e-09
1.86103e-08
1.52629e-09
1.82121e-08
1.49051e-09
1.78336e-08
1.44739e-09
1.74735e-08
1.39962e-09
1.71309e-08
1.34909e-09
1.68047e-08
1.2972e-09
1.6494e-08
1.24493e-09
1.61979e-08
1.19297e-09
1.59157e-08
1.14178e-09
1.56468e-08
1.09166e-09
1.53905e-08
1.04285e-09
1.51464e-08
9.95502e-10
1.49138e-08
9.49744e-10
1.46922e-08
9.05654e-10
1.44812e-08
8.63276e-10
1.42802e-08
8.22629e-10
1.40889e-08
7.83707e-10
1.39066e-08
7.46491e-10
1.3733e-08
7.10945e-10
1.35678e-08
6.77027e-10
1.34103e-08
6.44689e-10
1.32604e-08
6.13878e-10
1.31177e-08
5.84537e-10
1.29817e-08
5.56609e-10
1.28521e-08
5.30036e-10
1.27288e-08
5.04761e-10
1.26112e-08
4.80725e-10
1.24992e-08
4.57871e-10
1.23925e-08
4.36146e-10
1.22907e-08
4.15496e-10
1.21938e-08
3.95868e-10
1.21014e-08
3.77214e-10
1.20133e-08
3.59486e-10
1.19292e-08
3.42639e-10
1.18491e-08
3.2663e-10
1.17727e-08
3.11419e-10
1.16998e-08
2.96966e-10
1.16303e-08
2.83235e-10
1.15639e-08
2.70191e-10
1.15005e-08
2.57802e-10
1.14401e-08
2.46035e-10
1.13823e-08
2.34862e-10
1.13271e-08
2.24254e-10
1.12744e-08
2.14185e-10
1.12241e-08
2.0463e-10
1.11759e-08
1.95565e-10
1.11299e-08
1.86966e-10
1.10858e-08
1.78814e-10
1.10437e-08
1.71086e-10
1.10033e-08
1.63764e-10
1.09646e-08
1.56828e-10
1.09275e-08
1.50262e-10
1.0892e-08
1.44047e-10
1.08579e-08
1.38169e-10
1.08251e-08
1.32611e-10
1.07937e-08
1.27359e-10
1.07634e-08
1.22399e-10
1.07343e-08
1.17717e-10
1.07063e-08
1.13301e-10
1.06793e-08
1.09138e-10
1.06533e-08
1.05216e-10
1.06282e-08
1.01525e-10
1.06039e-08
9.80524e-11
1.05804e-08
9.47891e-11
1.05577e-08
9.17253e-11
1.05357e-08
8.8851e-11
1.05143e-08
8.61575e-11
1.04936e-08
8.36361e-11
1.04734e-08
8.12782e-11
1.04538e-08
7.90763e-11
1.04346e-08
7.70225e-11
1.0416e-08
7.51096e-11
1.03978e-08
7.33306e-11
1.038e-08
7.1679e-11
1.03625e-08
7.01483e-11
1.03454e-08
6.87323e-11
1.03287e-08
6.74255e-11
1.03122e-08
6.62221e-11
1.0296e-08
6.51166e-11
1.028e-08
6.41043e-11
1.02643e-08
6.31803e-11
1.02488e-08
6.23396e-11
1.02334e-08
6.15782e-11
1.02183e-08
6.08918e-11
1.02032e-08
6.02762e-11
1.01883e-08
5.97276e-11
1.01736e-08
5.92428e-11
1.01589e-08
5.88176e-11
1.01443e-08
5.84494e-11
1.01298e-08
5.81347e-11
1.01154e-08
5.78704e-11
1.0101e-08
5.76543e-11
1.00867e-08
5.74829e-11
1.00723e-08
5.73544e-11
1.0058e-08
5.7266e-11
1.00438e-08
5.72155e-11
1.00295e-08
5.72008e-11
1.00152e-08
5.722e-11
1.00009e-08
5.72711e-11
9.98656e-09
5.73522e-11
9.97221e-09
5.7462e-11
9.95782e-09
5.75986e-11
9.94339e-09
5.77608e-11
9.92891e-09
5.79473e-11
9.91438e-09
5.81569e-11
9.8998e-09
5.83883e-11
9.88514e-09
5.8641e-11
9.87042e-09
5.89139e-11