/*--------------------------------*- C++ -*----------------------------------*\
  =========                 |
  \\      /  F ield         | OpenFOAM: The Open Source CFD Toolbox
   \\    /   O peration     | Website:  https://openfoam.org
    \\  /    A nd           | Version:  10
     \\/     M anipulation  |
\*---------------------------------------------------------------------------*/
FoamFile
{
    format      ascii;
    class       volVectorField;
    location    "1.7";
    object      Ub;
}
// * * * * * * * * * * * * * * * * * * * * * * * * * * * * * * * * * * * * * //

dimensions      [0 1 -1 0 0 0 0];

internalField   nonuniform List<vector> 
12225
(
(0.00224815 -0.000454608 0)
(0.00642008 -0.000405406 0)
(0.0098661 -0.000334462 0)
(0.0125388 -0.000263693 0)
(0.014544 -0.000204487 0)
(0.0160398 -0.000160152 0)
(0.0171788 -0.000129949 0)
(0.0180874 -0.000111875 0)
(0.0188641 -0.000104078 0)
(0.0195867 -0.000105487 0)
(0.0203204 -0.00011617 0)
(0.0211286 -0.000137803 0)
(0.0220854 -0.000174735 0)
(0.0232976 -0.000236753 0)
(0.0249522 -0.000347129 0)
(0.0274537 -0.000571206 0)
(0.0319598 -0.00115181 0)
(0.0434141 -0.00341871 0)
(0.00239255 -0.00142746 0)
(0.00682381 -0.001271 0)
(0.010466 -0.00104625 0)
(0.0132728 -0.000822768 0)
(0.0153638 -0.000636323 0)
(0.0169123 -0.000497045 0)
(0.0180833 -0.000402363 0)
(0.0190119 -0.000345798 0)
(0.0198029 -0.000321415 0)
(0.0205377 -0.00032576 0)
(0.0212843 -0.000358923 0)
(0.0221077 -0.000425938 0)
(0.0230822 -0.00053994 0)
(0.0243123 -0.000730183 0)
(0.0259711 -0.00106458 0)
(0.0283914 -0.00172377 0)
(0.0322491 -0.00330115 0)
(0.0381177 -0.00833624 0)
(0.00250319 -0.00252667 0)
(0.00712703 -0.00224408 0)
(0.0109022 -0.00184073 0)
(0.0137876 -0.00144187 0)
(0.0159188 -0.00111072 0)
(0.0174841 -0.000864357 0)
(0.0186592 -0.000697434 0)
(0.0195856 -0.00059796 0)
(0.0203716 -0.00055509 0)
(0.0211001 -0.000562426 0)
(0.0218394 -0.000619743 0)
(0.0226527 -0.000735192 0)
(0.0236099 -0.000930219 0)
(0.0248024 -0.00125166 0)
(0.0263656 -0.00180335 0)
(0.0285026 -0.00283699 0)
(0.0313978 -0.00503511 0)
(0.0341666 -0.0103535 0)
(0.00261534 -0.00375801 0)
(0.00742825 -0.00332644 0)
(0.0113211 -0.00271587 0)
(0.0142629 -0.00211683 0)
(0.0164112 -0.00162288 0)
(0.0179725 -0.00125746 0)
(0.0191342 -0.00101097 0)
(0.0200438 -0.000864529 0)
(0.0208117 -0.000801343 0)
(0.0215214 -0.000811349 0)
(0.0222391 -0.0008934 0)
(0.0230242 -0.00105797 0)
(0.0239377 -0.00133311 0)
(0.025051 -0.00177826 0)
(0.0264493 -0.00251708 0)
(0.0282038 -0.00381556 0)
(0.0301846 -0.00625375 0)
(0.0312934 -0.0109239 0)
(0.00274322 -0.00513936 0)
(0.00776528 -0.00452871 0)
(0.0117749 -0.00367488 0)
(0.0147582 -0.00284625 0)
(0.0169034 -0.0021693 0)
(0.0184413 -0.00167227 0)
(0.0195725 -0.00133897 0)
(0.0204505 -0.00114168 0)
(0.0211875 -0.00105637 0)
(0.0218655 -0.00106831 0)
(0.0225477 -0.00117453 0)
(0.0232872 -0.00138647 0)
(0.0241331 -0.00173594 0)
(0.0251327 -0.00228797 0)
(0.0263208 -0.00316757 0)
(0.0276671 -0.00460862 0)
(0.0289036 -0.0070109 0)
(0.0291373 -0.0108185 0)
(0.0028984 -0.00669789 0)
(0.00816703 -0.00586673 0)
(0.0122996 -0.00472258 0)
(0.01531 -0.00362823 0)
(0.0174304 -0.00274518 0)
(0.0189228 -0.00210324 0)
(0.0200042 -0.001676 0)
(0.0208344 -0.00142434 0)
(0.0215261 -0.00131517 0)
(0.0221588 -0.00132791 0)
(0.0227911 -0.00145651 0)
(0.0234678 -0.00171154 0)
(0.0242246 -0.00212496 0)
(0.0250847 -0.00275976 0)
(0.0260407 -0.00372632 0)
(0.0270022 -0.00520062 0)
(0.0276813 -0.00740627 0)
(0.0274626 -0.0104158 0)
(0.00309406 -0.00847206 0)
(0.00866474 -0.00736157 0)
(0.0129306 -0.00586401 0)
(0.0159506 -0.00445878 0)
(0.0180191 -0.00334301 0)
(0.0194395 -0.00254225 0)
(0.0204484 -0.00201448 0)
(0.0212119 -0.00170554 0)
(0.0218421 -0.00157113 0)
(0.0224148 -0.00158323 0)
(0.0229822 -0.00173124 0)
(0.02358 -0.00202271 0)
(0.02423 -0.00248598 0)
(0.0249343 -0.00317518 0)
(0.0256567 -0.00417581 0)
(0.0262834 -0.00560004 0)
(0.0265665 -0.00753776 0)
(0.0261224 -0.00989333 0)
(0.00334795 -0.0105162 0)
(0.00929849 -0.00904031 0)
(0.0137096 -0.00710297 0)
(0.0167139 -0.00532987 0)
(0.0186948 -0.00395096 0)
(0.0200099 -0.00297745 0)
(0.0209189 -0.00234377 0)
(0.0215937 -0.0019759 0)
(0.0221445 -0.00181557 0)
(0.0226414 -0.00182557 0)
(0.023129 -0.00198911 0)
(0.0236334 -0.00230855 0)
(0.0241635 -0.00280524 0)
(0.0247054 -0.00351972 0)
(0.0252078 -0.00450871 0)
(0.025559 -0.00582842 0)
(0.0255712 -0.00748431 0)
(0.0250231 -0.00932992 0)
(0.00368606 -0.0129085 0)
(0.0101244 -0.010937 0)
(0.0146904 -0.00843951 0)
(0.0176398 -0.00622657 0)
(0.0194842 -0.00455065 0)
(0.0206513 -0.00339178 0)
(0.0214271 -0.00264928 0)
(0.0219877 -0.00222298 0)
(0.022439 -0.00203743 0)
(0.0228436 -0.00204435 0)
(0.0232371 -0.00221916 0)
(0.0236359 -0.00255714 0)
(0.0240382 -0.00307027 0)
(0.0244196 -0.00378333 0)
(0.0247249 -0.00472572 0)
(0.0248586 -0.00591192 0)
(0.0246907 -0.00730343 0)
(0.0241027 -0.00875864 0)
(0.00414877 -0.0157649 0)
(0.0112255 -0.013093 0)
(0.0159459 -0.00986511 0)
(0.0187767 -0.00712232 0)
(0.020416 -0.00511395 0)
(0.0213798 -0.003761 0)
(0.0219819 -0.00291133 0)
(0.0223992 -0.00243073 0)
(0.0227293 -0.00222302 0)
(0.0230248 -0.00222708 0)
(0.0233112 -0.00240931 0)
(0.0235952 -0.00275663 0)
(0.0238665 -0.0032705 0)
(0.0240958 -0.00396023 0)
(0.0242311 -0.00483282 0)
(0.0241982 -0.00587595 0)
(0.0239133 -0.00703442 0)
(0.0233186 -0.00819163 0)
(0.00480222 -0.0192632 0)
(0.0127305 -0.0155555 0)
(0.0175779 -0.0113531 0)
(0.0201848 -0.00797123 0)
(0.0215206 -0.00559836 0)
(0.0222096 -0.00405129 0)
(0.0225893 -0.00310395 0)
(0.0228303 -0.00257891 0)
(0.0230165 -0.00235582 0)
(0.0231866 -0.00235951 0)
(0.0233546 -0.00254673 0)
(0.0235179 -0.00289568 0)
(0.0236598 -0.00339753 0)
(0.0237496 -0.00404826 0)
(0.0237426 -0.00483874 0)
(0.0235846 -0.00574237 0)
(0.0232253 -0.00670295 0)
(0.0226405 -0.00763178 0)
(0.00569057 -0.0232656 0)
(0.0146947 -0.0181232 0)
(0.0195803 -0.0127285 0)
(0.0218198 -0.00865241 0)
(0.0227467 -0.00592738 0)
(0.0230972 -0.00421464 0)
(0.0232186 -0.00319558 0)
(0.0232634 -0.00264483 0)
(0.0232949 -0.00241776 0)
(0.023335 -0.00242606 0)
(0.0233851 -0.00261792 0)
(0.0234341 -0.00296404 0)
(0.0234609 -0.0034473 0)
(0.0234351 -0.00405412 0)
(0.0233196 -0.00476576 0)
(0.0230754 -0.00555022 0)
(0.0226721 -0.00635696 0)
(0.0221016 -0.00711995 0)
(0.00693741 -0.0284004 0)
(0.0173212 -0.0209661 0)
(0.0220615 -0.013972 0)
(0.0237128 -0.0091091 0)
(0.0240856 -0.00605092 0)
(0.0240164 -0.00421431 0)
(0.0238358 -0.00316063 0)
(0.023661 -0.00261092 0)
(0.0235253 -0.00239693 0)
(0.0234293 -0.00241904 0)
(0.0233604 -0.0026186 0)
(0.0232987 -0.00296056 0)
(0.0232194 -0.00342187 0)
(0.0230935 -0.00398279 0)
(0.0228906 -0.00461998 0)
(0.0225832 -0.00530131 0)
(0.0221541 -0.00598432 0)
(0.0216032 -0.00662047 0)
(0.00918768 -0.0364236 0)
(0.0217597 -0.0244578 0)
(0.0258332 -0.0150006 0)
(0.0263535 -0.0091901 0)
(0.0258342 -0.00584232 0)
(0.0251557 -0.0039575 0)
(0.0245664 -0.00293299 0)
(0.0241088 -0.00243012 0)
(0.0237661 -0.00225953 0)
(0.0235076 -0.00231372 0)
(0.023302 -0.00253008 0)
(0.0231189 -0.00287013 0)
(0.0229295 -0.00330721 0)
(0.0227061 -0.00381839 0)
(0.0224244 -0.00437921 0)
(0.0220654 -0.00496079 0)
(0.0216203 -0.0055301 0)
(0.0210923 -0.00605355 0)
(0.0137866 -0.0504377 0)
(0.0299962 -0.028021 0)
(0.0317464 -0.0149296 0)
(0.0299996 -0.00829609 0)
(0.0280358 -0.0049385 0)
(0.0264927 -0.00322141 0)
(0.0253722 -0.00236863 0)
(0.0245686 -0.00200296 0)
(0.0239835 -0.00193193 0)
(0.0235422 -0.00205201 0)
(0.0231889 -0.00230412 0)
(0.0228808 -0.00265161 0)
(0.0225842 -0.00306843 0)
(0.022272 -0.00353249 0)
(0.0219237 -0.00402188 0)
(0.0215257 -0.00451354 0)
(0.0210733 -0.00498397 0)
(0.02057 -0.00541159 0)
(0.0249527 -0.0794846 0)
(0.0473355 -0.027541 0)
(0.0409924 -0.0111777 0)
(0.0346641 -0.00519334 0)
(0.0304948 -0.00273621 0)
(0.0278419 -0.00168348 0)
(0.0261101 -0.00127638 0)
(0.0249348 -0.0012045 0)
(0.0241014 -0.00132521 0)
(0.0234791 -0.001566 0)
(0.0229844 -0.00188621 0)
(0.0225611 -0.00226018 0)
(0.0221699 -0.00266898 0)
(0.0217834 -0.00309625 0)
(0.021383 -0.00352626 0)
(0.0209581 -0.00394357 0)
(0.0205051 -0.00433367 0)
(0.0200263 -0.00468435 0)
(0.0592694 0.000498976 0)
(0.0906656 0.0029421 0)
(0.0530106 0.00245529 0)
(0.0389088 0.00187752 0)
(0.0323212 0.0013828 0)
(0.0287127 0.000931906 0)
(0.0265095 0.000497657 0)
(0.0250544 6.80276e-05 0)
(0.0240294 -0.000361835 0)
(0.0232611 -0.000791043 0)
(0.0226464 -0.00122009 0)
(0.0221226 -0.00164751 0)
(0.0216495 -0.00206868 0)
(0.0212007 -0.00247778 0)
(0.0207597 -0.00286814 0)
(0.020317 -0.00323279 0)
(0.0198689 -0.00356535 0)
(0.0194154 -0.00386075 0)
(0.0205021 0.0760656 0)
(0.0405298 0.0318678 0)
(0.0373931 0.0162455 0)
(0.0326087 0.00948826 0)
(0.0290278 0.00602148 0)
(0.0265767 0.00397354 0)
(0.0248908 0.00261445 0)
(0.0236934 0.00162266 0)
(0.0228054 0.00084242 0)
(0.0221148 0.00019493 0)
(0.0215508 -0.000365476 0)
(0.021064 -0.000859967 0)
(0.0206208 -0.00130651 0)
(0.0202019 -0.00171251 0)
(0.0197959 -0.00208081 0)
(0.019396 -0.00241239 0)
(0.0189995 -0.00270745 0)
(0.0186058 -0.00296624 0)
(0.00782585 0.0403023 0)
(0.0187369 0.0277825 0)
(0.0226221 0.0184115 0)
(0.023382 0.012395 0)
(0.023053 0.00854402 0)
(0.0224373 0.005988 0)
(0.0218101 0.00420903 0)
(0.0212479 0.00290948 0)
(0.0207582 0.00191656 0)
(0.020328 0.00112762 0)
(0.0199408 0.000480016 0)
(0.0195841 -6.05487e-05 0)
(0.0192481 -0.000522367 0)
(0.0189233 -0.000921005 0)
(0.0186036 -0.00126922 0)
(0.0182866 -0.00157361 0)
(0.0179716 -0.0018389 0)
(0.017659 -0.0020688 0)
(0.0042529 0.0244206 0)
(0.0111727 0.0201579 0)
(0.0152634 0.0154986 0)
(0.0173803 0.0116152 0)
(0.0183792 0.00864037 0)
(0.0187943 0.00641207 0)
(0.0189131 0.00473659 0)
(0.0188815 0.00345693 0)
(0.0187712 0.00245934 0)
(0.0186171 0.00166472 0)
(0.0184359 0.0010188 0)
(0.0182361 0.000484438 0)
(0.0180229 3.71278e-05 0)
(0.0178002 -0.00033905 0)
(0.0175696 -0.00065944 0)
(0.0173319 -0.000934826 0)
(0.0170894 -0.0011718 0)
(0.016844 -0.00137552 0)
(0.00292243 0.0171914 0)
(0.00802178 0.0151004 0)
(0.0116406 0.0124002 0)
(0.0139845 0.00982924 0)
(0.0154345 0.0076493 0)
(0.016308 0.00588838 0)
(0.0168199 0.00449026 0)
(0.0171042 0.00338157 0)
(0.0172418 0.00249617 0)
(0.0172817 0.00178125 0)
(0.0172537 0.00119678 0)
(0.0171769 0.000713181 0)
(0.0170639 0.000308771 0)
(0.0169243 -3.1203e-05 0)
(0.0167652 -0.000316958 0)
(0.016591 -0.000560536 0)
(0.0164055 -0.000769148 0)
(0.0162121 -0.000947908 0)
(0.00226204 0.0126589 0)
(0.00635457 0.0114591 0)
(0.00953608 0.00976349 0)
(0.0118359 0.00801291 0)
(0.013434 0.00642653 0)
(0.0145209 0.00507611 0)
(0.0152486 0.0039601 0)
(0.0157261 0.00304861 0)
(0.0160278 0.00230537 0)
(0.016204 0.00169688 0)
(0.0162888 0.00119528 0)
(0.0163058 0.000778513 0)
(0.0162717 0.000429538 0)
(0.0161987 0.000135327 0)
(0.016097 -0.000112252 0)
(0.0159737 -0.000321332 0)
(0.0158337 -0.000500105 0)
(0.0156814 -0.000653159 0)
(0.00188807 0.00950602 0)
(0.00537411 0.0087487 0)
(0.00822647 0.00762039 0)
(0.0104219 0.00639475 0)
(0.0120506 0.00523405 0)
(0.0132321 0.00420955 0)
(0.0140758 0.00333823 0)
(0.0146687 0.00261072 0)
(0.0150756 0.00200772 0)
(0.015344 0.00150826 0)
(0.0155083 0.00109328 0)
(0.0155935 0.000746783 0)
(0.0156182 0.000455836 0)
(0.0155963 0.000210215 0)
(0.0155387 2.20824e-06 0)
(0.0154542 -0.000172594 0)
(0.0153494 -0.000321732 0)
(0.015229 -0.000449444 0)
(0.00165615 0.00716429 0)
(0.00475144 0.00665934 0)
(0.00736358 0.00588161 0)
(0.00945334 0.00500855 0)
(0.0110676 0.00415694 0)
(0.0122859 0.00338622 0)
(0.01319 0.00271725 0)
(0.0138503 0.00214962 0)
(0.0143233 0.00167329 0)
(0.0146527 0.00127512 0)
(0.0148715 0.000942109 0)
(0.015005 0.000662787 0)
(0.0150723 0.000427542 0)
(0.0150881 0.000228567 0)
(0.0150639 5.96051e-05 0)
(0.0150092 -8.29416e-05 0)
(0.0149313 -0.00020398 0)
(0.0148354 -0.000307707 0)
(0.00150214 0.00534856 0)
(0.00433117 0.00500308 0)
(0.00676571 0.00445909 0)
(0.00876224 0.00383496 0)
(0.0103454 0.00321388 0)
(0.0115714 0.00264198 0)
(0.012504 0.0021384 0)
(0.0132021 0.00170612 0)
(0.0137154 0.00134004 0)
(0.014084 0.00103188 0)
(0.0143395 0.000772804 0)
(0.0145064 0.000554655 0)
(0.014604 0.000370419 0)
(0.0146472 0.000214276 0)
(0.0146479 8.14784e-05 0)
(0.0146156 -3.12485e-05 0)
(0.014558 -0.000126451 0)
(0.0144807 -0.000208119 0)
(0.00139355 0.00389953 0)
(0.00403112 0.00366292 0)
(0.00632987 0.00328462 0)
(0.00824594 0.00284417 0)
(0.00979188 0.00239989 0)
(0.0110099 0.00198588 0)
(0.0119519 0.00161764 0)
(0.0126688 0.00129891 0)
(0.0132051 0.00102719 0)
(0.0135979 0.00079725 0)
(0.0138771 0.000603143 0)
(0.0140667 0.000439186 0)
(0.0141855 0.000300383 0)
(0.0142484 0.000182522 0)
(0.0142673 8.21318e-05 0)
(0.0142518 -3.49475e-06 0)
(0.0142095 -7.55697e-05 0)
(0.0141466 -0.000137428 0)
(0.00131182 0.00272091 0)
(0.00380279 0.00256307 0)
(0.00599202 0.00230797 0)
(0.00783656 0.00200802 0)
(0.00934223 0.00170265 0)
(0.0105424 0.00141577 0)
(0.0114814 0.00115879 0)
(0.0122041 0.000935067 0)
(0.0127513 0.000743413 0)
(0.0131576 0.00058059 0)
(0.0134514 0.000442702 0)
(0.0136558 0.000325932 0)
(0.0137891 0.000226871 0)
(0.013866 0.00014261 0)
(0.0138984 7.07343e-05 0)
(0.0138955 9.26452e-06 0)
(0.0138651 -4.25064e-05 0)
(0.0138136 -8.6856e-05 0)
(0.00124458 0.00175106 0)
(0.00361303 0.00165273 0)
(0.00570614 0.00149256 0)
(0.00748239 0.00130297 0)
(0.00894379 0.00110876 0)
(0.0101181 0.000925299 0)
(0.0110443 0.00076017 0)
(0.0117631 0.000615805 0)
(0.0123121 0.0004917 0)
(0.0127237 0.000385951 0)
(0.0130251 0.000296172 0)
(0.0132384 0.000219982 0)
(0.0133813 0.000155227 0)
(0.0134681 0.000100059 0)
(0.0135104 5.29302e-05 0)
(0.0135173 1.25633e-05 0)
(0.0134965 -2.15132e-05 0)
(0.0134542 -5.05673e-05 0)
(0.00118064 0.000949566 0)
(0.00343067 0.00089748 0)
(0.00542651 0.000812154 0)
(0.00712845 0.000710703 0)
(0.00853635 0.000606363 0)
(0.00967419 0.00050743 0)
(0.010577 0.000418089 0)
(0.011282 0.000339753 0)
(0.0118241 0.000272238 0)
(0.0122338 0.000214576 0)
(0.0125368 0.000165524 0)
(0.012754 0.00012382 0)
(0.0129025 8.83174e-05 0)
(0.012996 5.80245e-05 0)
(0.0130457 3.21084e-05 0)
(0.0130604 9.87757e-06 0)
(0.0130475 -8.89088e-06 0)
(0.0130131 -2.47112e-05 0)
(0.00109581 0.000293448 0)
(0.00318624 0.000277578 0)
(0.00504515 0.00025149 0)
(0.00663551 0.000220396 0)
(0.00795606 0.000188343 0)
(0.00902765 0.000157887 0)
(0.00988152 0.000130331 0)
(0.0105514 0.000106128 0)
(0.0110691 8.52331e-05 0)
(0.0114626 6.7362e-05 0)
(0.0117556 5.21382e-05 0)
(0.0119674 3.91786e-05 0)
(0.012114 2.81328e-05 0)
(0.0122083 1.8697e-05 0)
(0.0122606 1.06156e-05 0)
(0.0122794 3.67512e-06 0)
(0.0122717 -2.17185e-06 0)
(0.0122437 -7.01894e-06 0)
(-1.69537e-07 -0.000793123 -1.02509e-29)
(-1.64527e-07 -0.000763644 9.86987e-30)
(-1.53966e-07 -0.000708898 0)
(-1.30757e-07 -0.00059708 0)
(-1.04035e-07 -0.000471075 0)
(-3.46585e-08 -0.000155645 -2.01167e-30)
(-3.58352e-09 -1.59583e-05 0)
(-5.08868e-10 -2.24765e-06 0)
(5.04583e-22 -2.30426e-25 0)
(8.37024e-32 1.253e-34 0)
(8.37676e-32 -1.31176e-33 1.59652e-59)
(8.50691e-32 -2.37294e-33 0)
(8.75302e-32 -3.49479e-33 0)
(9.12174e-32 -4.50967e-33 0)
(9.51281e-32 -3.56934e-33 0)
(9.78781e-32 -2.03712e-33 2.51738e-59)
(9.95741e-32 -1.47821e-33 0)
(1.00906e-31 -1.33053e-33 0)
(1.02195e-31 -1.37746e-33 0)
(1.03582e-31 -1.49176e-33 0)
(1.05055e-31 -1.51084e-33 0)
(1.06377e-31 -1.19982e-33 0)
(1.0733e-31 -8.31659e-34 0)
(1.07934e-31 -5.64368e-34 6.02017e-60)
(1.08275e-31 -3.59925e-34 -3.37377e-60)
(1.0838e-31 -1.48514e-34 6.40126e-61)
(1.08212e-31 1.16122e-34 -2.77825e-60)
(1.07732e-31 3.84179e-34 0)
(1.06959e-31 6.08254e-34 0)
(1.0594e-31 7.90061e-34 1.14619e-59)
(1.04713e-31 9.41423e-34 1.34037e-59)
(1.03313e-31 1.06206e-33 0)
(1.01774e-31 1.15071e-33 0)
(1.00132e-31 1.20834e-33 1.67995e-59)
(9.84238e-32 1.23781e-33 0)
(9.66792e-32 1.24346e-33 0)
(9.49248e-32 1.23011e-33 -1.70193e-59)
(9.31819e-32 1.20234e-33 0)
(9.14664e-32 1.16413e-33 -1.61257e-59)
(8.97904e-32 1.11873e-33 -3.10383e-59)
(8.81623e-32 1.0687e-33 0)
(8.65877e-32 1.01599e-33 0)
(8.50703e-32 9.62063e-34 0)
(8.3612e-32 9.07978e-34 0)
(8.22135e-32 8.545e-34 0)
(8.08749e-32 8.02168e-34 -2.26449e-59)
(7.95953e-32 7.5135e-34 -2.13011e-59)
(7.83736e-32 7.02294e-34 -2.00042e-59)
(7.72084e-32 6.55158e-34 0)
(7.60979e-32 6.1003e-34 1.75655e-59)
(7.50402e-32 5.66951e-34 0)
(7.40333e-32 5.25924e-34 -1.53427e-59)
(7.30754e-32 4.86927e-34 -1.4312e-59)
(7.21643e-32 4.49916e-34 0)
(7.12981e-32 4.14835e-34 0)
(7.04748e-32 3.81618e-34 0)
(6.96925e-32 3.50192e-34 -1.06976e-59)
(6.89493e-32 3.20481e-34 0)
(6.82433e-32 2.92409e-34 0)
(6.75729e-32 2.65896e-34 0)
(6.69364e-32 2.40865e-34 0)
(6.6332e-32 2.17241e-34 0)
(6.57584e-32 1.9495e-34 0)
(6.52139e-32 1.7392e-34 0)
(6.46972e-32 1.54082e-34 0)
(6.4207e-32 1.35372e-34 5.01516e-60)
(6.37419e-32 1.17726e-34 0)
(6.33008e-32 1.01084e-34 0)
(6.28825e-32 8.53904e-35 -3.69189e-60)
(6.24858e-32 7.05916e-35 -3.30001e-60)
(6.21097e-32 5.6637e-35 0)
(6.17533e-32 4.3479e-35 2.58185e-60)
(6.14155e-32 3.10725e-35 -2.25318e-60)
(6.10954e-32 1.93752e-35 0)
(6.07923e-32 8.3474e-36 1.65105e-60)
(6.05052e-32 -2.04853e-36 0)
(6.02334e-32 -1.18479e-35 0)
(5.99761e-32 -2.1084e-35 -8.70974e-61)
(5.97326e-32 -2.97881e-35 0)
(5.95023e-32 -3.79897e-35 4.22791e-61)
(5.92845e-32 -4.57168e-35 0)
(5.90785e-32 -5.29954e-35 -2.49156e-62)
(5.88839e-32 -5.98504e-35 1.56886e-61)
(5.87e-32 -6.63051e-35 3.28079e-61)
(5.85263e-32 -7.23815e-35 9.78523e-61)
(5.83623e-32 -7.81006e-35 -1.28191e-60)
(5.82075e-32 -8.3482e-35 0)
(5.80615e-32 -8.85443e-35 0)
(5.79237e-32 -9.33051e-35 0)
(5.77938e-32 -9.77811e-35 -2.32623e-60)
(5.76714e-32 -1.01988e-34 -2.54949e-60)
(5.75561e-32 -1.05941e-34 2.7593e-60)
(5.74476e-32 -1.09654e-34 0)
(5.73453e-32 -1.1314e-34 -3.14144e-60)
(5.72492e-32 -1.16412e-34 -3.31513e-60)
(5.71588e-32 -1.19482e-34 -3.47813e-60)
(5.70737e-32 -1.22362e-34 0)
(5.69939e-32 -1.25062e-34 0)
(5.69188e-32 -1.27593e-34 0)
(5.68484e-32 -1.29963e-34 -4.03463e-60)
(5.67823e-32 -1.32183e-34 0)
(5.67203e-32 -1.34261e-34 0)
(5.66622e-32 -1.36205e-34 4.36614e-60)
(5.66078e-32 -1.38023e-34 0)
(5.65568e-32 -1.39723e-34 0)
(5.65091e-32 -1.4131e-34 4.63729e-60)
(5.64645e-32 -1.42793e-34 0)
(5.64227e-32 -1.44177e-34 0)
(5.63837e-32 -1.45468e-34 -4.85818e-60)
(5.63473e-32 -1.46672e-34 -4.92215e-60)
(5.63133e-32 -1.47795e-34 0)
(5.62816e-32 -1.4884e-34 5.03729e-60)
(5.6252e-32 -1.49813e-34 0)
(5.62244e-32 -1.50718e-34 -5.13712e-60)
(5.61987e-32 -1.51561e-34 0)
(5.61748e-32 -1.52343e-34 -5.22345e-60)
(5.61526e-32 -1.5307e-34 -5.26211e-60)
(5.61319e-32 -1.53745e-34 0)
(5.61127e-32 -1.54371e-34 0)
(5.60948e-32 -1.54952e-34 0)
(5.60783e-32 -1.5549e-34 0)
(5.60629e-32 -1.55989e-34 0)
(5.60487e-32 -1.5645e-34 0)
(5.60355e-32 -1.56877e-34 0)
(5.60233e-32 -1.57271e-34 -5.48538e-60)
(5.6012e-32 -1.57636e-34 5.50478e-60)
(5.60015e-32 -1.57972e-34 0)
(5.59919e-32 -1.58283e-34 0)
(5.5983e-32 -1.58569e-34 0)
(5.59747e-32 -1.58832e-34 0)
(5.59671e-32 -1.59075e-34 1.11626e-59)
(5.59601e-32 -1.59298e-34 0)
(5.59537e-32 -1.59503e-34 -1.12081e-59)
(5.59478e-32 -1.59691e-34 1.12281e-59)
(5.59423e-32 -1.59864e-34 0)
(5.59373e-32 -1.60022e-34 0)
(5.59327e-32 -1.60167e-34 0)
(5.59284e-32 -1.60299e-34 -1.12928e-59)
(5.59245e-32 -1.6042e-34 -1.13056e-59)
(5.5921e-32 -1.6053e-34 0)
(5.59177e-32 -1.60629e-34 -1.1328e-59)
(5.59147e-32 -1.6072e-34 -1.13376e-59)
(5.59119e-32 -1.60801e-34 1.13463e-59)
(5.59093e-32 -1.60874e-34 0)
(5.59069e-32 -1.60939e-34 0)
(5.59048e-32 -1.60996e-34 1.13671e-59)
(5.59027e-32 -1.61045e-34 0)
(5.59008e-32 -1.61087e-34 0)
(5.5899e-32 -1.61122e-34 0)
(5.58973e-32 -1.61148e-34 0)
(5.58957e-32 -1.61167e-34 -1.13856e-59)
(5.58941e-32 -1.61176e-34 -1.13867e-59)
(5.58925e-32 -1.61175e-34 0)
(5.58908e-32 -1.61162e-34 -1.13856e-59)
(5.58891e-32 -1.61137e-34 0)
(5.58872e-32 -1.61095e-34 0)
(5.58851e-32 -1.61035e-34 -1.1373e-59)
(5.58828e-32 -1.60951e-34 0)
(5.588e-32 -1.60839e-34 -1.13532e-59)
(5.58768e-32 -1.60692e-34 0)
(5.58729e-32 -1.605e-34 0)
(5.58681e-32 -1.60251e-34 -1.12936e-59)
(5.58622e-32 -1.59931e-34 0)
(5.58549e-32 -1.5952e-34 -1.12192e-59)
(5.58457e-32 -1.5899e-34 0)
(5.5834e-32 -1.58307e-34 0)
(5.58191e-32 -1.57425e-34 0)
(5.58e-32 -1.56278e-34 1.08892e-59)
(5.57755e-32 -1.54782e-34 0)
(5.57436e-32 -1.52813e-34 -1.05362e-59)
(5.57021e-32 -1.50197e-34 0)
(5.56475e-32 -1.46677e-34 0)
(5.5575e-32 -1.41861e-34 0)
(5.54773e-32 -1.35119e-34 0)
(5.53437e-32 -1.25378e-34 0)
(5.51561e-32 -1.10645e-34 0)
(5.48829e-32 -8.67567e-35 0)
(5.44596e-32 -4.33863e-35 -1.31394e-60)
(5.37235e-32 5.25739e-35 0)
(5.20923e-32 3.53471e-34 0)
(5.43073e-05 -0.00339713 4.39049e-29)
(0.000170091 -0.00338194 -4.37043e-29)
(0.000311738 -0.00336584 0)
(0.000482156 -0.00333413 8.61623e-29)
(0.000748575 -0.00338041 0)
(0.000703376 -0.00355592 -4.59509e-29)
(0.000264974 -0.0040382 -1.04372e-28)
(2.60893e-05 -0.00459794 -1.18852e-28)
(2.45884e-06 -3.36862e-09 0)
(-1.84937e-30 2.77803e-33 -1.55152e-59)
(-2.63109e-30 2.41193e-33 -1.14242e-61)
(-2.51333e-30 1.19001e-33 0)
(-2.12007e-30 -4.69491e-34 0)
(-1.30916e-30 -2.59363e-33 0)
(-4.56139e-31 -2.82016e-33 0)
(-1.45159e-33 6.81799e-32 -8.81187e-58)
(1.00861e-31 -3.4207e-33 0)
(1.01094e-31 -3.84326e-33 9.45724e-59)
(1.01896e-31 -4.40338e-33 0)
(1.03334e-31 -5.21956e-33 0)
(1.05577e-31 -5.68595e-33 -1.41993e-58)
(1.07595e-31 -3.51864e-33 0)
(1.08463e-31 -1.84441e-33 4.25552e-59)
(1.08768e-31 -1.16798e-33 1.38119e-59)
(1.09003e-31 -7.7332e-34 -8.70817e-60)
(1.09207e-31 -2.78515e-34 2.31057e-60)
(1.09131e-31 6.6648e-34 -9.9023e-60)
(1.08575e-31 1.60922e-33 0)
(1.0765e-31 2.27364e-33 0)
(1.06502e-31 2.78282e-33 3.72243e-59)
(1.05169e-31 3.23562e-33 1.31666e-58)
(1.03662e-31 3.59895e-33 0)
(1.02017e-31 3.86028e-33 0)
(1.00277e-31 4.02372e-33 5.31891e-59)
(9.84835e-32 4.09914e-33 0)
(9.66697e-32 4.10232e-33 0)
(9.48623e-32 4.04962e-33 -5.34599e-59)
(9.30806e-32 3.95566e-33 0)
(9.13384e-32 3.83255e-33 -1.53994e-58)
(8.96451e-32 3.68984e-33 -9.74967e-59)
(8.80068e-32 3.53492e-33 0)
(8.64275e-32 3.37329e-33 0)
(8.49092e-32 3.20903e-33 1.73921e-58)
(8.34528e-32 3.04507e-33 1.65307e-58)
(8.20582e-32 2.8835e-33 1.56823e-58)
(8.07247e-32 2.72577e-33 -2.20908e-58)
(7.9451e-32 2.57288e-33 -6.83832e-59)
(7.82358e-32 2.42549e-33 6.82385e-59)
(7.70773e-32 2.284e-33 -1.25359e-58)
(7.59736e-32 2.14864e-33 5.73347e-59)
(7.49227e-32 2.0195e-33 0)
(7.39225e-32 1.89657e-33 -5.07704e-59)
(7.2971e-32 1.77976e-33 -1.46631e-58)
(7.20661e-32 1.66893e-33 0)
(7.12059e-32 1.56391e-33 0)
(7.03883e-32 1.46447e-33 0)
(6.96113e-32 1.37042e-33 -3.70678e-59)
(6.88732e-32 1.2815e-33 0)
(6.81721e-32 1.19749e-33 -6.83466e-59)
(6.75062e-32 1.11815e-33 0)
(6.68739e-32 1.04325e-33 -6.025e-59)
(6.62736e-32 9.7256e-34 0)
(6.57037e-32 9.05857e-34 5.30365e-59)
(6.51628e-32 8.42928e-34 0)
(6.46494e-32 7.83566e-34 -4.66147e-59)
(6.41623e-32 7.27576e-34 6.39962e-59)
(6.37001e-32 6.74769e-34 0)
(6.32617e-32 6.24967e-34 3.82842e-59)
(6.28459e-32 5.78e-34 -1.64247e-59)
(6.24516e-32 5.3371e-34 -1.52705e-59)
(6.20778e-32 4.91944e-34 0)
(6.17234e-32 4.52561e-34 4.23814e-59)
(6.13876e-32 4.15426e-34 -1.21878e-59)
(6.10693e-32 3.80412e-34 0)
(6.07679e-32 3.47401e-34 1.04148e-59)
(6.04824e-32 3.1628e-34 2.2063e-59)
(6.02121e-32 2.86944e-34 0)
(5.99562e-32 2.59293e-34 -8.11809e-60)
(5.9714e-32 2.33234e-34 0)
(5.94849e-32 2.08679e-34 -9.60741e-60)
(5.92683e-32 1.85544e-34 0)
(5.90634e-32 1.6375e-34 8.41616e-60)
(5.88698e-32 1.43225e-34 -5.09215e-60)
(5.86868e-32 1.23897e-34 -1.65358e-59)
(5.8514e-32 1.05702e-34 -3.02087e-59)
(5.83508e-32 8.85763e-35 2.75141e-59)
(5.81968e-32 7.24615e-35 0)
(5.80515e-32 5.7302e-35 0)
(5.79144e-32 4.30449e-35 0)
(5.77851e-32 2.96404e-35 -9.71797e-60)
(5.76633e-32 1.70415e-35 3.60381e-60)
(5.75486e-32 5.20341e-36 -2.98636e-60)
(5.74405e-32 -5.91612e-36 0)
(5.73388e-32 -1.63571e-35 1.10003e-59)
(5.72431e-32 -2.61576e-35 1.35063e-60)
(5.71531e-32 -3.53534e-35 8.70972e-61)
(5.70685e-32 -4.39786e-35 0)
(5.6989e-32 -5.20655e-35 0)
(5.69143e-32 -5.96447e-35 0)
(5.68442e-32 -6.6745e-35 -7.66523e-61)
(5.67784e-32 -7.3394e-35 0)
(5.67167e-32 -7.96177e-35 2.48002e-60)
(5.66589e-32 -8.54407e-35 3.60888e-60)
(5.66047e-32 -9.08863e-35 -1.29377e-60)
(5.65539e-32 -9.59767e-35 0)
(5.65064e-32 -1.00733e-34 2.28251e-60)
(5.6462e-32 -1.05174e-34 0)
(5.64205e-32 -1.0932e-34 6.47043e-61)
(5.63816e-32 -1.13188e-34 -4.24376e-60)
(5.63454e-32 -1.16795e-34 -4.81165e-60)
(5.63115e-32 -1.20156e-34 0)
(5.62799e-32 -1.23287e-34 1.59857e-60)
(5.62504e-32 -1.26202e-34 2.42476e-60)
(5.6223e-32 -1.28915e-34 -4.00996e-60)
(5.61974e-32 -1.31437e-34 0)
(5.61736e-32 -1.33782e-34 -4.26391e-60)
(5.61515e-32 -1.3596e-34 -9.25266e-61)
(5.61309e-32 -1.37982e-34 0)
(5.61117e-32 -1.39858e-34 3.86291e-60)
(5.6094e-32 -1.41598e-34 4.04612e-60)
(5.60775e-32 -1.4321e-34 4.21594e-60)
(5.60622e-32 -1.44703e-34 0)
(5.6048e-32 -1.46085e-34 0)
(5.60349e-32 -1.47363e-34 0)
(5.60227e-32 -1.48545e-34 -9.81223e-60)
(5.60115e-32 -1.49637e-34 5.09128e-60)
(5.60011e-32 -1.50645e-34 0)
(5.59914e-32 -1.51574e-34 -5.09708e-60)
(5.59826e-32 -1.52431e-34 -5.18736e-60)
(5.59744e-32 -1.53221e-34 0)
(5.59668e-32 -1.53948e-34 1.06325e-59)
(5.59598e-32 -1.54616e-34 -1.08351e-59)
(5.59534e-32 -1.5523e-34 -1.07664e-59)
(5.59475e-32 -1.55794e-34 2.19087e-59)
(5.59421e-32 -1.56312e-34 0)
(5.59371e-32 -1.56786e-34 0)
(5.59325e-32 -1.57219e-34 0)
(5.59283e-32 -1.57616e-34 -1.10153e-59)
(5.59244e-32 -1.57977e-34 -2.25966e-59)
(5.59208e-32 -1.58306e-34 -1.1613e-59)
(5.59176e-32 -1.58605e-34 -1.11187e-59)
(5.59145e-32 -1.58876e-34 -2.28801e-59)
(5.59118e-32 -1.5912e-34 1.11724e-59)
(5.59092e-32 -1.59338e-34 0)
(5.59069e-32 -1.59533e-34 0)
(5.59047e-32 -1.59704e-34 2.31416e-59)
(5.59027e-32 -1.59853e-34 0)
(5.59008e-32 -1.59979e-34 0)
(5.5899e-32 -1.60082e-34 -1.19883e-59)
(5.58973e-32 -1.60161e-34 0)
(5.58957e-32 -1.60216e-34 -2.33047e-59)
(5.58941e-32 -1.60244e-34 -1.12903e-59)
(5.58925e-32 -1.60241e-34 0)
(5.58908e-32 -1.60205e-34 -2.33034e-59)
(5.58891e-32 -1.60128e-34 0)
(5.58872e-32 -1.60005e-34 0)
(5.58852e-32 -1.59825e-34 -1.12478e-59)
(5.58829e-32 -1.59576e-34 -1.18898e-59)
(5.58802e-32 -1.59242e-34 -1.1188e-59)
(5.5877e-32 -1.58802e-34 0)
(5.58731e-32 -1.58228e-34 0)
(5.58684e-32 -1.57487e-34 -2.24711e-59)
(5.58626e-32 -1.56532e-34 0)
(5.58554e-32 -1.55304e-34 -2.18e-59)
(5.58463e-32 -1.53723e-34 0)
(5.58348e-32 -1.51686e-34 0)
(5.58201e-32 -1.49053e-34 0)
(5.58013e-32 -1.45635e-34 9.78858e-60)
(5.57772e-32 -1.41173e-34 0)
(5.57459e-32 -1.35305e-34 -8.72571e-60)
(5.57051e-32 -1.27514e-34 0)
(5.56515e-32 -1.17041e-34 0)
(5.55805e-32 -1.02728e-34 -2.48178e-61)
(5.54852e-32 -8.27315e-35 -3.85096e-60)
(5.53552e-32 -5.39288e-35 0)
(5.51741e-32 -1.05965e-35 0)
(5.49139e-32 5.89445e-35 0)
(5.45229e-32 1.82335e-34 6.85997e-59)
(5.39018e-32 4.39735e-34 0)
(5.29218e-32 1.13315e-33 -5.08643e-58)
(9.56366e-05 -0.00554104 2.86453e-28)
(0.000287179 -0.00556944 -7.08014e-33)
(0.000474462 -0.00563794 0)
(0.000637479 -0.00576269 1.53609e-32)
(0.000724979 -0.00599562 0)
(0.000575883 -0.00656398 0)
(-3.64093e-05 -0.00719837 -3.7215e-28)
(-0.00130312 -0.00758223 -1.96057e-28)
(-0.00109979 -0.00237927 6.15803e-29)
(0.00079075 -0.00215215 -5.55944e-29)
(0.00246712 -0.00221866 0)
(0.00406273 -0.00263353 0)
(0.00482137 -0.00364553 -9.3893e-29)
(0.00246169 -0.00557095 -2.87661e-28)
(6.38143e-05 -0.00606013 3.13291e-28)
(4.92339e-07 -1.12418e-09 0)
(-3.3255e-30 5.66267e-33 1.78322e-58)
(-4.53655e-30 7.85742e-33 1.11006e-59)
(-4.34111e-30 6.89844e-33 0)
(-3.61951e-30 4.55026e-33 2.77482e-58)
(-2.09133e-30 6.15971e-34 -8.28275e-59)
(-6.05358e-31 -9.18573e-34 -1.33241e-58)
(2.35134e-32 7.20789e-32 -1.8643e-57)
(1.09806e-31 -2.08189e-33 0)
(1.0983e-31 -2.66926e-33 1.22439e-58)
(1.10877e-31 -2.54444e-33 1.15838e-58)
(1.11469e-31 1.05564e-33 0)
(1.10489e-31 3.66385e-33 -2.05067e-58)
(1.08957e-31 4.39821e-33 0)
(1.07565e-31 4.94448e-33 -2.7086e-58)
(1.06083e-31 5.78632e-33 1.54582e-58)
(1.04355e-31 6.42084e-33 0)
(1.0248e-31 6.83743e-33 0)
(1.00531e-31 7.07451e-33 0)
(9.85599e-32 7.14955e-33 0)
(9.66088e-32 7.10416e-33 0)
(9.47005e-32 6.97208e-33 0)
(9.28481e-32 6.77964e-33 -3.6365e-58)
(9.1059e-32 6.54669e-33 1.77826e-58)
(8.93368e-32 6.28802e-33 0)
(8.7683e-32 6.01454e-33 0)
(8.60979e-32 5.73426e-33 0)
(8.45807e-32 5.45289e-33 5.83782e-58)
(8.31302e-32 5.17444e-33 2.75363e-58)
(8.17447e-32 4.90174e-33 -3.85935e-60)
(8.04225e-32 4.63669e-33 3.79691e-60)
(7.91615e-32 4.38061e-33 2.37685e-58)
(7.79598e-32 4.13432e-33 2.21101e-58)
(7.68151e-32 3.89833e-33 -4.21212e-58)
(7.57252e-32 3.67289e-33 -2.0061e-58)
(7.4688e-32 3.45804e-33 0)
(7.37012e-32 3.25369e-33 -1.78651e-58)
(7.27627e-32 3.05964e-33 -3.33538e-58)
(7.18703e-32 2.87563e-33 0)
(7.1022e-32 2.70131e-33 0)
(7.02157e-32 2.53633e-33 1.41071e-58)
(6.94495e-32 2.38031e-33 0)
(6.87216e-32 2.23283e-33 0)
(6.80301e-32 2.09351e-33 -3.50394e-58)
(6.73732e-32 1.96195e-33 -2.21948e-58)
(6.67495e-32 1.83776e-33 -1.01313e-58)
(6.61571e-32 1.72054e-33 0)
(6.55948e-32 1.60994e-33 8.94266e-59)
(6.50609e-32 1.5056e-33 0)
(6.45541e-32 1.40717e-33 -2.42631e-58)
(6.40732e-32 1.31432e-33 7.39994e-59)
(6.36168e-32 1.22674e-33 1.44865e-58)
(6.31838e-32 1.14415e-33 2.0132e-58)
(6.27731e-32 1.06625e-33 0)
(6.23835e-32 9.92784e-34 -1.20325e-58)
(6.20141e-32 9.23501e-34 0)
(6.16639e-32 8.58164e-34 -5.60124e-59)
(6.13319e-32 7.96553e-34 -9.97373e-59)
(6.10173e-32 7.38456e-34 -9.36411e-59)
(6.07193e-32 6.83678e-34 8.78928e-59)
(6.04369e-32 6.32033e-34 -4.40901e-59)
(6.01696e-32 5.83346e-34 0)
(5.99165e-32 5.37453e-34 0)
(5.96769e-32 4.94198e-34 6.80058e-59)
(5.94503e-32 4.53436e-34 3.46706e-59)
(5.92359e-32 4.1503e-34 0)
(5.90332e-32 3.78849e-34 2.51609e-59)
(5.88416e-32 3.44771e-34 0)
(5.86605e-32 3.12681e-34 2.72445e-59)
(5.84894e-32 2.82468e-34 -8.60306e-59)
(5.83279e-32 2.5403e-34 8.00737e-59)
(5.81754e-32 2.2727e-34 -3.99808e-59)
(5.80315e-32 2.02095e-34 0)
(5.78958e-32 1.78417e-34 3.48504e-59)
(5.77678e-32 1.56155e-34 -5.9569e-59)
(5.76472e-32 1.35229e-34 0)
(5.75336e-32 1.15567e-34 0)
(5.74265e-32 9.70975e-35 0)
(5.73258e-32 7.97543e-35 1.90737e-59)
(5.7231e-32 6.34747e-35 0)
(5.71418e-32 4.8199e-35 0)
(5.7058e-32 3.38708e-35 0)