/*--------------------------------*- C++ -*----------------------------------*\
  =========                 |
  \\      /  F ield         | OpenFOAM: The Open Source CFD Toolbox
   \\    /   O peration     | Website:  https://openfoam.org
    \\  /    A nd           | Version:  10
     \\/     M anipulation  |
\*---------------------------------------------------------------------------*/
FoamFile
{
    format      ascii;
    class       volVectorField;
    location    "0.024";
    object      U;
}
// * * * * * * * * * * * * * * * * * * * * * * * * * * * * * * * * * * * * * //

dimensions      [0 1 -1 0 0 0 0];

internalField   nonuniform List<vector> 
4000
(
(5.00001 -7.08411e-05 0)
(5.00015 -0.000220873 0)
(5.00043 -0.00036643 0)
(5.00087 -0.000510544 0)
(5.00145 -0.000654994 0)
(5.00218 -0.000799063 0)
(5.00305 -0.000944085 0)
(5.00407 -0.00108887 0)
(5.00522 -0.00123513 0)
(5.00653 -0.00138136 0)
(5.00798 -0.00152963 0)
(5.00958 -0.00167812 0)
(5.01133 -0.00182926 0)
(5.01323 -0.00198094 0)
(5.01528 -0.00213597 0)
(5.01749 -0.00229198 0)
(5.01985 -0.00245212 0)
(5.02237 -0.00261376 0)
(5.02506 -0.00278042 0)
(5.02792 -0.0029492 0)
(5.03094 -0.00312399 0)
(5.03414 -0.00330158 0)
(5.03752 -0.00348627 0)
(5.04109 -0.00367454 0)
(5.04485 -0.00387107 0)
(5.0488 -0.00407204 0)
(5.05296 -0.00428251 0)
(5.05734 -0.00449834 0)
(5.06193 -0.00472502 0)
(5.06675 -0.00495804 0)
(5.07181 -0.00520331 0)
(5.07712 -0.00545599 0)
(5.08268 -0.0057224 0)
(5.08852 -0.00599734 0)
(5.09464 -0.00628755 0)
(5.10105 -0.00658745 0)
(5.10776 -0.00690423 0)
(5.1148 -0.00723191 0)
(5.12217 -0.00757813 0)
(5.1299 -0.00793649 0)
(5.13799 -0.00831507 0)
(5.14646 -0.00870704 0)
(5.15534 -0.00912095 0)
(5.16464 -0.00954949 0)
(5.17437 -0.0100017 0)
(5.18456 -0.0104697 0)
(5.19523 -0.010963 0)
(5.20641 -0.0114734 0)
(5.2181 -0.0120106 0)
(5.23034 -0.0125658 0)
(5.24314 -0.0131494 0)
(5.25654 -0.0137517 0)
(5.27055 -0.0143837 0)
(5.28521 -0.015035 0)
(5.30052 -0.0157169 0)
(5.31653 -0.0164181 0)
(5.33325 -0.0171504 0)
(5.35071 -0.0179017 0)
(5.36894 -0.0186839 0)
(5.38796 -0.0194839 0)
(5.40778 -0.0203138 0)
(5.42845 -0.0211593 0)
(5.44997 -0.0220327 0)
(5.47238 -0.0229182 0)
(5.49568 -0.0238281 0)
(5.51989 -0.0247452 0)
(5.54503 -0.0256817 0)
(5.57111 -0.0266186 0)
(5.59813 -0.027568 0)
(5.6261 -0.028509 0)
(5.65501 -0.0294535 0)
(5.68486 -0.0303789 0)
(5.71563 -0.0312969 0)
(5.7473 -0.032183 0)
(5.77986 -0.033049 0)
(5.81326 -0.0338693 0)
(5.84747 -0.0346555 0)
(5.88244 -0.0353812 0)
(5.91811 -0.0360589 0)
(5.95442 -0.0366619 0)
(5.99131 -0.0372037 0)
(6.0287 -0.0376582 0)
(6.0665 -0.0380405 0)
(6.10464 -0.038326 0)
(6.14302 -0.0385317 0)
(6.18155 -0.038635 0)
(6.22014 -0.038655 0)
(6.25869 -0.0385715 0)
(6.29711 -0.0384054 0)
(6.3353 -0.0381393 0)
(6.37318 -0.0377955 0)
(6.41066 -0.0373592 0)
(6.44766 -0.0368533 0)
(6.48409 -0.0362656 0)
(6.5199 -0.0356188 0)
(6.55501 -0.0349027 0)
(6.58938 -0.0341395 0)
(6.62293 -0.0333208 0)
(6.65565 -0.032467 0)
(6.68747 -0.0315716 0)
(6.71838 -0.0306528 0)
(6.74834 -0.0297056 0)
(6.77734 -0.0287454 0)
(6.80536 -0.0277691 0)
(6.83241 -0.0267886 0)
(6.85845 -0.0258026 0)
(6.88352 -0.0248197 0)
(6.90758 -0.0238403 0)
(6.93069 -0.022869 0)
(6.95281 -0.0219087 0)
(6.97399 -0.0209596 0)
(6.99422 -0.0200271 0)
(7.01353 -0.0191069 0)
(7.03192 -0.0182075 0)
(7.04944 -0.0173197 0)
(7.06607 -0.0164554 0)
(7.08187 -0.0156 0)
(7.09681 -0.014769 0)
(7.11096 -0.0139422 0)
(7.12428 -0.0131392 0)
(7.13683 -0.0123333 0)
(7.14858 -0.0115486 0)
(7.15959 -0.0107515 0)
(7.16979 -0.00997099 0)
(7.17926 -0.00916559 0)
(7.18791 -0.00836994 0)
(7.19581 -0.00753418 0)
(7.20288 -0.00669904 0)
(7.20915 -0.00580602 0)
(7.21452 -0.00490271 0)
(7.21902 -0.00392206 0)
(7.22254 -0.00291896 0)
(7.22508 -0.00181821 0)
(7.22652 -0.000682805 0)
(7.22684 0.000569563 0)
(7.22591 0.00186665 0)
(7.22369 0.00329539 0)
(7.22005 0.00477396 0)
(7.21492 0.00639174 0)
(7.20819 0.00805741 0)
(7.19978 0.00986023 0)
(7.18959 0.0117004 0)
(7.17754 0.0136646 0)
(7.16356 0.0156468 0)
(7.14758 0.0177294 0)
(7.12956 0.0198027 0)
(7.10945 0.0219438 0)
(7.08727 0.0240433 0)
(7.06296 0.0261719 0)
(7.03662 0.0282249 0)
(7.0082 0.0302659 0)
(6.97785 0.0321984 0)
(6.94555 0.0340792 0)
(6.91148 0.0358233 0)
(6.87566 0.0374802 0)
(6.83831 0.038979 0)
(6.79946 0.0403616 0)
(6.75935 0.041573 0)
(6.71804 0.0426475 0)
(6.67578 0.0435461 0)
(6.63262 0.0442954 0)
(6.58883 0.0448725 0)
(6.54447 0.0452963 0)
(6.4998 0.0455585 0)
(6.45487 0.0456708 0)
(6.40992 0.0456378 0)
(6.36501 0.045464 0)
(6.32035 0.0451655 0)
(6.276 0.0447399 0)
(6.23212 0.0442125 0)
(6.18878 0.0435746 0)
(6.14611 0.0428587 0)
(6.10416 0.0420507 0)
(6.06303 0.0411882 0)
(6.02276 0.0402523 0)
(5.98343 0.0392844 0)
(5.94506 0.0382614 0)
(5.90769 0.0372268 0)
(5.87136 0.0361542 0)
(5.83607 0.0350883 0)
(5.80183 0.0339998 0)
(5.76864 0.0329337 0)
(5.7365 0.0318587 0)
(5.70539 0.0308193 0)
(5.6753 0.0297825 0)
(5.6462 0.028792 0)
(5.61806 0.0278138 0)
(5.59085 0.0268903 0)
(5.56453 0.0259869 0)
(5.53906 0.0251444 0)
(5.51441 0.0243279 0)
(5.49051 0.0235769 0)
(5.46734 0.0228559 0)
(5.44484 0.0222038 0)
(5.42301 0.0215834 0)
(5.40164 0.0210337 0)
(5.38126 0.0205201 0)
(5.36002 0.0200601 0)
(5.34338 0.0196993 0)
(5.314 0.0191769 0)
(5.00001 -0.000212121 0)
(5.00015 -0.00066262 0)
(5.00043 -0.00109838 0)
(5.00086 -0.00153011 0)
(5.00145 -0.00196199 0)
(5.00217 -0.00239375 0)
(5.00304 -0.0028274 0)
(5.00405 -0.00326167 0)
(5.0052 -0.00369903 0)
(5.0065 -0.00413784 0)
(5.00794 -0.00458107 0)
(5.00954 -0.00502676 0)
(5.01128 -0.0054784 0)
(5.01317 -0.00593375 0)
(5.01521 -0.00639688 0)
(5.01741 -0.00686527 0)
(5.01976 -0.00734353 0)
(5.02227 -0.00782889 0)
(5.02494 -0.00832651 0)
(5.02778 -0.00883334 0)
(5.03079 -0.00935511 0)
(5.03397 -0.00988846 0)
(5.03733 -0.0104397 0)
(5.04087 -0.0110051 0)
(5.04461 -0.0115916 0)
(5.04854 -0.0121951 0)
(5.05267 -0.0128232 0)
(5.05701 -0.0134714 0)
(5.06157 -0.0141478 0)
(5.06636 -0.0148476 0)
(5.07138 -0.0155796 0)
(5.07665 -0.0163385 0)
(5.08217 -0.0171336 0)
(5.08796 -0.0179593 0)
(5.09403 -0.0188256 0)
(5.10039 -0.0197263 0)
(5.10706 -0.020672 0)
(5.11404 -0.0216562 0)
(5.12136 -0.02269 0)
(5.12902 -0.0237663 0)
(5.13705 -0.024897 0)
(5.14546 -0.0260743 0)
(5.15427 -0.0273107 0)
(5.16349 -0.0285979 0)
(5.17315 -0.0299489 0)
(5.18327 -0.0313548 0)
(5.19386 -0.0328291 0)
(5.20495 -0.0343622 0)
(5.21656 -0.035968 0)
(5.22872 -0.0376362 0)
(5.24143 -0.039381 0)
(5.25474 -0.0411913 0)
(5.26866 -0.0430815 0)
(5.28322 -0.0450393 0)
(5.29844 -0.0470795 0)
(5.31436 -0.0491883 0)
(5.33098 -0.0513806 0)
(5.34835 -0.0536409 0)
(5.36649 -0.0559838 0)
(5.38541 -0.058392 0)
(5.40516 -0.0608796 0)
(5.42574 -0.0634266 0)
(5.44719 -0.0660465 0)
(5.46952 -0.0687166 0)
(5.49276 -0.0714488 0)
(5.51693 -0.0742172 0)
(5.54203 -0.0770321 0)
(5.56808 -0.0798637 0)
(5.59509 -0.0827206 0)
(5.62307 -0.0855687 0)
(5.65201 -0.0884144 0)
(5.68191 -0.0912197 0)
(5.71276 -0.0939886 0)
(5.74454 -0.0966797 0)
(5.77722 -0.0992949 0)
(5.81078 -0.10179 0)
(5.84517 -0.104167 0)
(5.88035 -0.106379 0)
(5.91626 -0.108428 0)
(5.95284 -0.11027 0)
(5.99001 -0.111908 0)
(6.02771 -0.1133 0)
(6.06584 -0.114454 0)
(6.10433 -0.115332 0)
(6.14306 -0.115949 0)
(6.18195 -0.116272 0)
(6.22091 -0.116324 0)
(6.25982 -0.116079 0)
(6.29859 -0.115565 0)
(6.33712 -0.114765 0)
(6.37533 -0.113712 0)
(6.41312 -0.112395 0)
(6.45041 -0.110851 0)
(6.48711 -0.109076 0)
(6.52317 -0.107107 0)
(6.5585 -0.104944 0)
(6.59306 -0.102626 0)
(6.62678 -0.100155 0)
(6.65964 -0.0975676 0)
(6.69158 -0.0948676 0)
(6.72259 -0.0920883 0)
(6.75263 -0.0892352 0)
(6.78169 -0.0863367 0)
(6.80974 -0.0833992 0)
(6.8368 -0.0804457 0)
(6.86285 -0.0774832 0)
(6.8879 -0.0745286 0)
(6.91195 -0.0715897 0)
(6.93502 -0.0686771 0)
(6.95711 -0.0657997 0)
(6.97825 -0.0629611 0)
(6.99843 -0.0601721 0)
(7.0177 -0.0574289 0)
(7.03605 -0.0547447 0)
(7.05353 -0.0521081 0)
(7.07014 -0.049535 0)
(7.08591 -0.0470058 0)
(7.10084 -0.0445396 0)
(7.11499 -0.0421076 0)
(7.12834 -0.0397327 0)
(7.14093 -0.0373763 0)
(7.15275 -0.0350648 0)
(7.16385 -0.0327489 0)
(7.17418 -0.0304589 0)
(7.1838 -0.0281338 0)
(7.19266 -0.0258078 0)
(7.2008 -0.0234077 0)
(7.20815 -0.0209722 0)
(7.21475 -0.0184156 0)
(7.22052 -0.0157818 0)
(7.22545 -0.0129734 0)
(7.22947 -0.0100398 0)
(7.23256 -0.00687347 0)
(7.2346 -0.00353272 0)
(7.23557 9.49917e-05 0)
(7.23533 0.00393852 0)
(7.23384 0.00811085 0)
(7.23095 0.0125249 0)
(7.22659 0.0172887 0)
(7.22064 0.0222966 0)
(7.213 0.0276465 0)
(7.20358 0.0332133 0)
(7.19226 0.0390816 0)
(7.17898 0.0451088 0)
(7.16364 0.051365 0)
(7.14622 0.0576947 0)
(7.12664 0.0641548 0)
(7.10491 0.0705838 0)
(7.081 0.0770279 0)
(7.05496 0.0833276 0)
(7.02678 0.0895217 0)
(6.99658 0.0954608 0)
(6.96438 0.101179 0)
(6.93034 0.106544 0)
(6.8945 0.111588 0)
(6.85706 0.116202 0)
(6.8181 0.120416 0)
(6.77782 0.124146 0)
(6.73633 0.127424 0)
(6.69385 0.130193 0)
(6.65048 0.132484 0)
(6.60646 0.134266 0)
(6.56189 0.135568 0)
(6.517 0.136384 0)
(6.47188 0.136742 0)
(6.42675 0.136655 0)
(6.3817 0.136147 0)
(6.3369 0.13525 0)
(6.29246 0.133982 0)
(6.24851 0.132389 0)
(6.20514 0.130483 0)
(6.16246 0.12832 0)
(6.12054 0.125904 0)
(6.07947 0.123299 0)
(6.0393 0.120503 0)
(6.00008 0.117583 0)
(5.96186 0.11453 0)
(5.92466 0.111412 0)
(5.88852 0.108216 0)
(5.85344 0.105009 0)
(5.81942 0.10177 0)
(5.78647 0.0985677 0)
(5.75459 0.0953752 0)
(5.72374 0.0922573 0)
(5.69392 0.0891844 0)
(5.66509 0.0862181 0)
(5.63723 0.0833251 0)
(5.6103 0.0805638 0)
(5.58426 0.0778982 0)
(5.55906 0.0753832 0)
(5.53467 0.0729805 0)
(5.51104 0.0707421 0)
(5.48812 0.0686276 0)
(5.46587 0.0666868 0)
(5.44427 0.0648758 0)
(5.42313 0.0632426 0)
(5.40295 0.061749 0)
(5.38194 0.0603995 0)
(5.36547 0.0593284 0)
(5.33633 0.0578209 0)
(5.00001 -0.000353159 0)
(5.00015 -0.00110178 0)
(5.00043 -0.0018257 0)
(5.00086 -0.00254363 0)
(5.00144 -0.00326086 0)
(5.00216 -0.00397898 0)
(5.00302 -0.00469903 0)
(5.00403 -0.00542144 0)
(5.00517 -0.00614729 0)
(5.00646 -0.00687707 0)
(5.0079 -0.0076121 0)
(5.00948 -0.008353 0)
(5.01121 -0.00910137 0)
(5.01308 -0.009858 0)
(5.01511 -0.0106248 0)
(5.01728 -0.0114027 0)
(5.01961 -0.0121941 0)
(5.02209 -0.0129999 0)
(5.02474 -0.0138227 0)
(5.02754 -0.0146639 0)
(5.03052 -0.0155263 0)
(5.03366 -0.0164113 0)
(5.03697 -0.017322 0)
(5.04047 -0.0182601 0)
(5.04415 -0.0192289 0)
(5.04803 -0.0202301 0)
(5.0521 -0.0212676 0)
(5.05638 -0.022343 0)
(5.06087 -0.0234603 0)
(5.06558 -0.0246215 0)
(5.07052 -0.0258308 0)
(5.07571 -0.0270902 0)
(5.08114 -0.0284042 0)
(5.08684 -0.0297749 0)
(5.09281 -0.0312069 0)
(5.09906 -0.0327025 0)
(5.10561 -0.0342665 0)
(5.11248 -0.0359011 0)
(5.11967 -0.0376115 0)
(5.12721 -0.0393997 0)
(5.1351 -0.0412712 0)
(5.14337 -0.043228 0)
(5.15203 -0.0452756 0)
(5.16111 -0.0474158 0)
(5.17061 -0.0496544 0)
(5.18056 -0.051993 0)
(5.19098 -0.0544373 0)
(5.2019 -0.0569888 0)
(5.21333 -0.0596529 0)
(5.2253 -0.0624308 0)
(5.23783 -0.0653277 0)
(5.25094 -0.0683442 0)
(5.26467 -0.0714851 0)
(5.27903 -0.0747501 0)
(5.29405 -0.0781435 0)
(5.30976 -0.0816637 0)
(5.32619 -0.0853141 0)
(5.34336 -0.0890915 0)
(5.36129 -0.0929979 0)
(5.38003 -0.0970281 0)
(5.39959 -0.101182 0)
(5.42 -0.105452 0)
(5.44128 -0.109834 0)
(5.46347 -0.114319 0)
(5.48657 -0.118899 0)
(5.51063 -0.123559 0)
(5.53565 -0.128288 0)
(5.56165 -0.133067 0)
(5.58864 -0.137879 0)
(5.61663 -0.142699 0)
(5.64563 -0.147506 0)
(5.67564 -0.152268 0)
(5.70664 -0.156958 0)
(5.73863 -0.16154 0)
(5.77157 -0.165982 0)
(5.80545 -0.170244 0)
(5.84023 -0.174291 0)
(5.87585 -0.178081 0)
(5.91226 -0.181578 0)
(5.9494 -0.184741 0)
(5.98718 -0.187539 0)
(6.02554 -0.189936 0)
(6.06437 -0.191906 0)
(6.10357 -0.193422 0)
(6.14306 -0.19447 0)
(6.18272 -0.195033 0)
(6.22244 -0.195109 0)
(6.26212 -0.194696 0)
(6.30164 -0.193801 0)
(6.34091 -0.192435 0)
(6.37982 -0.190617 0)
(6.41827 -0.188368 0)
(6.45618 -0.185715 0)
(6.49345 -0.182687 0)
(6.53003 -0.179315 0)
(6.56583 -0.175634 0)
(6.60081 -0.171677 0)
(6.63489 -0.167479 0)
(6.66806 -0.163075 0)
(6.70025 -0.158498 0)
(6.73147 -0.153782 0)
(6.76166 -0.148957 0)
(6.79082 -0.144053 0)
(6.81895 -0.139096 0)
(6.84604 -0.134112 0)
(6.87208 -0.129124 0)
(6.89709 -0.124151 0)
(6.92107 -0.119213 0)
(6.94405 -0.114324 0)
(6.96602 -0.1095 0)
(6.98703 -0.104748 0)
(7.00706 -0.100083 0)
(7.02617 -0.0955047 0)
(7.04436 -0.0910248 0)
(7.06167 -0.0866398 0)
(7.0781 -0.0823567 0)
(7.09371 -0.0781667 0)
(7.10849 -0.0740742 0)
(7.12248 -0.0700641 0)
(7.13569 -0.0661378 0)
(7.14817 -0.0622736 0)
(7.15989 -0.0584691 0)
(7.17092 -0.0546952 0)
(7.18123 -0.0509444 0)
(7.19085 -0.04718 0)
(7.19977 -0.043388 0)
(7.20801 -0.0395242 0)
(7.21553 -0.035567 0)
(7.22235 -0.0314649 0)
(7.22841 -0.027189 0)
(7.23371 -0.0226816 0)
(7.23816 -0.0179057 0)
(7.24175 -0.0128026 0)
(7.24436 -0.00733136 0)
(7.24596 -0.00144096 0)
(7.24641 0.0049031 0)
(7.24565 0.0117391 0)
(7.24352 0.0190885 0)
(7.23993 0.026967 0)
(7.23473 0.0353747 0)
(7.22783 0.0442985 0)
(7.21907 0.0537109 0)
(7.20836 0.0635683 0)
(7.19558 0.0738145 0)
(7.18064 0.084378 0)
(7.16349 0.0951777 0)
(7.14404 0.106122 0)
(7.12231 0.117113 0)
(7.09823 0.128049 0)
(7.07188 0.138824 0)
(7.04325 0.149339 0)
(7.01247 0.159488 0)
(6.97955 0.169184 0)
(6.94467 0.178334 0)
(6.9079 0.186867 0)
(6.86944 0.194708 0)
(6.82939 0.201809 0)
(6.78799 0.208116 0)
(6.74533 0.213608 0)
(6.70167 0.218253 0)
(6.65714 0.222051 0)
(6.61197 0.224996 0)
(6.56628 0.227107 0)
(6.52032 0.228397 0)
(6.47419 0.228903 0)
(6.42811 0.228654 0)
(6.38219 0.227698 0)
(6.33661 0.226076 0)
(6.29146 0.223843 0)
(6.2469 0.221049 0)
(6.203 0.217752 0)
(6.15989 0.214004 0)
(6.11762 0.209864 0)
(6.07629 0.205386 0)
(6.03594 0.200623 0)
(5.99663 0.195629 0)
(5.95839 0.190453 0)
(5.92125 0.185144 0)
(5.88522 0.179746 0)
(5.85032 0.174304 0)
(5.81655 0.168853 0)
(5.78389 0.163435 0)
(5.75234 0.158077 0)
(5.72187 0.152816 0)
(5.69247 0.147673 0)
(5.66409 0.14268 0)
(5.6367 0.137851 0)
(5.61027 0.133214 0)
(5.58475 0.128776 0)
(5.56009 0.124561 0)
(5.53625 0.120572 0)
(5.51318 0.116827 0)
(5.49083 0.113327 0)
(5.46914 0.110086 0)
(5.44812 0.107099 0)
(5.42755 0.104377 0)
(5.40793 0.101922 0)
(5.38752 0.0996921 0)
(5.37151 0.0979083 0)
(5.34321 0.0954451 0)
(5.00001 -0.000493542 0)
(5.00015 -0.00153881 0)
(5.00043 -0.00254956 0)
(5.00085 -0.00355202 0)
(5.00143 -0.00455318 0)
(5.00215 -0.00555548 0)
(5.003 -0.00655996 0)
(5.004 -0.00756751 0)
(5.00514 -0.00857918 0)
(5.00641 -0.00959602 0)
(5.00784 -0.0106194 0)
(5.0094 -0.0116506 0)
(5.01111 -0.0126913 0)
(5.01296 -0.0137432 0)
(5.01496 -0.0148084 0)
(5.0171 -0.0158889 0)
(5.0194 -0.0169871 0)
(5.02184 -0.0181053 0)
(5.02444 -0.0192463 0)
(5.0272 -0.0204128 0)
(5.03012 -0.0216078 0)
(5.03321 -0.0228344 0)
(5.03646 -0.0240959 0)
(5.03989 -0.0253956 0)
(5.04349 -0.0267372 0)
(5.04728 -0.0281243 0)
(5.05126 -0.0295609 0)
(5.05545 -0.0310507 0)
(5.05983 -0.0325982 0)
(5.06444 -0.0342072 0)
(5.06926 -0.0358823 0)
(5.07432 -0.0376279 0)
(5.07962 -0.0394488 0)
(5.08517 -0.0413493 0)
(5.09099 -0.0433347 0)
(5.09709 -0.0454093 0)
(5.10348 -0.0475787 0)
(5.11017 -0.0498476 0)
(5.11717 -0.0522214 0)
(5.12452 -0.0547049 0)
(5.13221 -0.0573039 0)
(5.14027 -0.0600233 0)
(5.14871 -0.0628687 0)
(5.15755 -0.0658452 0)
(5.16681 -0.0689584 0)
(5.17652 -0.0722132 0)
(5.18669 -0.0756154 0)
(5.19734 -0.0791694 0)
(5.2085 -0.0828809 0)
(5.22019 -0.0867541 0)
(5.23243 -0.0907941 0)
(5.24525 -0.0950045 0)
(5.25868 -0.0993899 0)
(5.27273 -0.103953 0)
(5.28745 -0.108698 0)
(5.30285 -0.113625 0)
(5.31897 -0.118737 0)
(5.33583 -0.124034 0)
(5.35346 -0.129515 0)
(5.3719 -0.135178 0)
(5.39116 -0.14102 0)
(5.4113 -0.147035 0)
(5.43232 -0.153216 0)
(5.45427 -0.159552 0)
(5.47716 -0.166031 0)
(5.50103 -0.172637 0)
(5.5259 -0.179352 0)
(5.5518 -0.186153 0)
(5.57874 -0.193013 0)
(5.60674 -0.199902 0)
(5.6358 -0.206784 0)
(5.66595 -0.21362 0)
(5.69717 -0.220367 0)
(5.72945 -0.226976 0)
(5.76279 -0.233396 0)
(5.79715 -0.239572 0)
(5.8325 -0.245446 0)
(5.86879 -0.250961 0)
(5.90597 -0.256056 0)
(5.94396 -0.260676 0)
(5.98268 -0.264765 0)
(6.02205 -0.268274 0)
(6.06196 -0.271157 0)
(6.10231 -0.273379 0)
(6.14297 -0.274911 0)
(6.18382 -0.275735 0)
(6.22474 -0.27584 0)
(6.26561 -0.27523 0)
(6.3063 -0.273913 0)
(6.3467 -0.27191 0)
(6.38669 -0.269247 0)
(6.42616 -0.26596 0)
(6.46502 -0.262089 0)
(6.50318 -0.257679 0)
(6.54055 -0.252778 0)
(6.57706 -0.247438 0)
(6.61266 -0.241709 0)
(6.64729 -0.235644 0)
(6.68091 -0.229294 0)
(6.71348 -0.222709 0)
(6.74499 -0.215936 0)
(6.77539 -0.209021 0)
(6.80471 -0.202005 0)
(6.83292 -0.194929 0)
(6.86004 -0.187825 0)
(6.88605 -0.18073 0)
(6.91099 -0.173667 0)
(6.93485 -0.166667 0)
(6.95767 -0.159747 0)
(6.97946 -0.15293 0)
(7.00025 -0.146227 0)
(7.02005 -0.139655 0)
(7.03891 -0.133218 0)
(7.05683 -0.126929 0)
(7.07387 -0.120786 0)
(7.09003 -0.114796 0)
(7.10537 -0.10895 0)
(7.11989 -0.103252 0)
(7.13364 -0.0976869 0)
(7.14663 -0.092252 0)
(7.1589 -0.0869238 0)
(7.17046 -0.0816947 0)
(7.18137 -0.0765318 0)
(7.1916 -0.071419 0)
(7.20121 -0.0663134 0)
(7.21018 -0.0611877 0)
(7.21855 -0.0559888 0)
(7.22629 -0.0506755 0)
(7.23342 -0.0451845 0)
(7.2399 -0.039459 0)
(7.24573 -0.0334267 0)
(7.25082 -0.0270127 0)
(7.25518 -0.0201444 0)
(7.25867 -0.0127313 0)
(7.26125 -0.00471467 0)
(7.26277 0.00398839 0)
(7.26314 0.0134196 0)
(7.2622 0.0236447 0)
(7.25981 0.0346684 0)
(7.25579 0.0465246 0)
(7.25001 0.0591699 0)
(7.24228 0.0725948 0)
(7.23246 0.0867049 0)
(7.22042 0.101444 0)
(7.20602 0.116674 0)
(7.18918 0.132297 0)
(7.16981 0.148144 0)
(7.14789 0.164091 0)
(7.12337 0.179954 0)
(7.09632 0.195597 0)
(7.06673 0.210843 0)
(7.03474 0.225555 0)
(7.0004 0.239581 0)
(6.9639 0.252798 0)
(6.92533 0.265086 0)
(6.88493 0.276349 0)
(6.84282 0.286506 0)
(6.79927 0.29549 0)
(6.75441 0.303262 0)
(6.70852 0.309788 0)
(6.66176 0.315068 0)
(6.61439 0.319098 0)
(6.56657 0.321912 0)
(6.51853 0.323532 0)
(6.47043 0.324018 0)
(6.42249 0.323413 0)
(6.37483 0.321797 0)
(6.32764 0.319226 0)
(6.28102 0.315792 0)
(6.23514 0.31156 0)
(6.19007 0.306626 0)
(6.14593 0.301058 0)
(6.10278 0.294952 0)
(6.06071 0.288376 0)
(6.01976 0.28142 0)
(5.97998 0.274148 0)
(5.9414 0.266643 0)
(5.90404 0.258964 0)
(5.8679 0.251183 0)
(5.833 0.243353 0)
(5.79931 0.235535 0)
(5.76684 0.227776 0)
(5.73555 0.220126 0)
(5.70541 0.212623 0)
(5.67641 0.205309 0)
(5.64848 0.198215 0)
(5.6216 0.191372 0)
(5.59572 0.184806 0)
(5.57079 0.178539 0)
(5.54675 0.17259 0)
(5.52356 0.166975 0)
(5.50116 0.161709 0)
(5.47949 0.156799 0)
(5.45851 0.152255 0)
(5.43819 0.148081 0)
(5.41833 0.144279 0)
(5.39941 0.140861 0)
(5.37975 0.137765 0)
(5.36432 0.13529 0)
(5.33707 0.131894 0)
(5.00001 -0.000633036 0)
(5.00014 -0.00197304 0)
(5.00042 -0.00326863 0)
(5.00085 -0.00455339 0)
(5.00142 -0.00583607 0)
(5.00213 -0.00711962 0)
(5.00298 -0.00840523 0)
(5.00397 -0.00969397 0)
(5.00509 -0.010987 0)
(5.00636 -0.0122858 0)
(5.00776 -0.0135917 0)
(5.00931 -0.0149067 0)
(5.01099 -0.0162328 0)
(5.01281 -0.0175722 0)
(5.01478 -0.0189274 0)
(5.01689 -0.0203011 0)
(5.01914 -0.0216964 0)
(5.02153 -0.0231164 0)
(5.02408 -0.0245645 0)
(5.02678 -0.0260443 0)
(5.02962 -0.0275596 0)
(5.03263 -0.0291146 0)
(5.0358 -0.0307133 0)
(5.03914 -0.0323603 0)
(5.04264 -0.0340601 0)
(5.04633 -0.0358175 0)
(5.05019 -0.0376376 0)
(5.05424 -0.0395253 0)
(5.0585 -0.0414861 0)
(5.06295 -0.0435253 0)
(5.06762 -0.0456488 0)
(5.07251 -0.047862 0)
(5.07764 -0.0501713 0)
(5.083 -0.0525824 0)
(5.08862 -0.0551018 0)
(5.09451 -0.0577355 0)
(5.10067 -0.0604905 0)
(5.10713 -0.0633729 0)
(5.11389 -0.0663897 0)
(5.12098 -0.0695474 0)
(5.1284 -0.0728533 0)
(5.13617 -0.0763139 0)
(5.14432 -0.0799366 0)
(5.15286 -0.083728 0)
(5.1618 -0.0876955 0)
(5.17118 -0.0918457 0)
(5.18101 -0.0961861 0)
(5.19131 -0.100723 0)
(5.2021 -0.105464 0)
(5.21341 -0.110414 0)
(5.22527 -0.115581 0)
(5.23769 -0.12097 0)
(5.25071 -0.126588 0)
(5.26436 -0.132438 0)
(5.27865 -0.138527 0)
(5.29363 -0.144856 0)
(5.30932 -0.151431 0)
(5.32576 -0.158251 0)
(5.34297 -0.165318 0)
(5.36099 -0.172629 0)
(5.37985 -0.180184 0)
(5.39959 -0.187976 0)
(5.42024 -0.195997 0)
(5.44183 -0.204236 0)
(5.46441 -0.21268 0)
(5.488 -0.22131 0)
(5.51264 -0.230104 0)
(5.53836 -0.239034 0)
(5.56519 -0.248067 0)
(5.59315 -0.257164 0)
(5.62227 -0.266281 0)
(5.65256 -0.275366 0)
(5.68403 -0.284361 0)
(5.71669 -0.293202 0)
(5.75052 -0.301817 0)
(5.78551 -0.310131 0)
(5.82163 -0.318062 0)
(5.85883 -0.32553 0)
(5.89705 -0.332448 0)
(5.93622 -0.338735 0)
(5.97625 -0.344308 0)
(6.01704 -0.349098 0)
(6.05847 -0.353036 0)
(6.1004 -0.356072 0)
(6.14271 -0.358161 0)
(6.18525 -0.35928 0)
(6.22786 -0.359412 0)
(6.27041 -0.358565 0)
(6.31274 -0.356751 0)
(6.35472 -0.354004 0)
(6.39622 -0.350361 0)
(6.43711 -0.345878 0)
(6.47728 -0.34061 0)
(6.51664 -0.334626 0)
(6.55509 -0.327992 0)
(6.59256 -0.320783 0)
(6.629 -0.31307 0)
(6.66434 -0.304928 0)
(6.69855 -0.296426 0)
(6.7316 -0.287635 0)
(6.76347 -0.278618 0)
(6.79415 -0.269437 0)
(6.82364 -0.260147 0)
(6.85193 -0.250802 0)
(6.87905 -0.241447 0)
(6.905 -0.232126 0)
(6.92981 -0.222872 0)
(6.95349 -0.213721 0)
(6.97608 -0.204697 0)
(6.99759 -0.195827 0)
(7.01808 -0.187125 0)
(7.03755 -0.178612 0)
(7.05605 -0.170292 0)
(7.07361 -0.162182 0)
(7.09027 -0.154278 0)
(7.10605 -0.146589 0)
(7.12101 -0.139106 0)
(7.13515 -0.131834 0)
(7.14855 -0.124754 0)
(7.16121 -0.117867 0)
(7.17318 -0.111143 0)
(7.18449 -0.104577 0)
(7.19518 -0.0981291 0)
(7.20526 -0.0917816 0)
(7.21481 -0.0854816 0)
(7.22379 -0.0791969 0)
(7.23229 -0.0728591 0)
(7.24027 -0.0664151 0)
(7.24778 -0.0597799 0)
(7.25479 -0.0528751 0)
(7.26131 -0.0455986 0)
(7.26728 -0.0378418 0)
(7.27269 -0.0294961 0)
(7.2774 -0.0204229 0)
(7.28139 -0.0105254 0)
(7.28446 0.000326552 0)
(7.28652 0.0122075 0)
(7.28733 0.0252278 0)
(7.28676 0.0394075 0)
(7.28454 0.0548086 0)
(7.28048 0.0713764 0)
(7.27435 0.0891047 0)
(7.26594 0.107858 0)
(7.25506 0.127558 0)
(7.24153 0.147998 0)
(7.22524 0.169039 0)
(7.20604 0.190429 0)
(7.18392 0.211986 0)
(7.15881 0.233443 0)
(7.13079 0.2546 0)
(7.09984 0.275202 0)
(7.06615 0.295057 0)
(7.02978 0.313942 0)
(6.99096 0.331691 0)
(6.9498 0.348134 0)
(6.90662 0.363141 0)
(6.86154 0.3766 0)
(6.81491 0.388429 0)
(6.76689 0.398576 0)
(6.71782 0.407004 0)
(6.66787 0.413719 0)
(6.61737 0.418724 0)
(6.56649 0.422074 0)
(6.51551 0.423808 0)
(6.4646 0.424017 0)
(6.414 0.422765 0)
(6.36386 0.420169 0)
(6.31438 0.416312 0)
(6.26567 0.411322 0)
(6.21789 0.405293 0)
(6.17113 0.398357 0)
(6.12551 0.39061 0)
(6.08109 0.382181 0)
(6.03793 0.373164 0)
(5.99609 0.36368 0)
(5.9556 0.353814 0)
(5.91648 0.343677 0)
(5.87874 0.333346 0)
(5.84238 0.322916 0)
(5.80739 0.312454 0)
(5.77376 0.302042 0)
(5.74144 0.291738 0)
(5.71043 0.281606 0)
(5.68066 0.271695 0)
(5.65212 0.262056 0)
(5.62473 0.252729 0)
(5.59846 0.243753 0)
(5.57323 0.235158 0)
(5.54902 0.226972 0)
(5.52573 0.219218 0)
(5.50333 0.211914 0)
(5.48175 0.205077 0)
(5.46093 0.198717 0)
(5.44081 0.192845 0)
(5.42136 0.187463 0)
(5.40238 0.182574 0)
(5.38432 0.178191 0)
(5.36557 0.174235 0)
(5.35086 0.171082 0)
(5.32491 0.166787 0)
(5.00001 -0.000771802 0)
(5.00014 -0.00240459 0)
(5.00042 -0.00398313 0)
(5.00084 -0.00554805 0)
(5.00141 -0.00710968 0)
(5.00212 -0.00867133 0)
(5.00296 -0.0102342 0)
(5.00394 -0.0117996 0)
(5.00505 -0.0133687 0)
(5.0063 -0.0149431 0)
(5.00769 -0.0165246 0)
(5.00921 -0.0181153 0)
(5.01086 -0.0197178 0)
(5.01266 -0.0213347 0)
(5.01458 -0.0229691 0)
(5.01665 -0.0246244 0)
(5.01885 -0.0263043 0)
(5.02118 -0.0280125 0)
(5.02366 -0.0297534 0)
(5.02628 -0.0315313 0)
(5.02905 -0.0333511 0)
(5.03197 -0.0352177 0)
(5.03503 -0.0371362 0)
(5.03826 -0.0391122 0)
(5.04164 -0.0411513 0)
(5.04519 -0.0432593 0)
(5.04891 -0.0454424 0)
(5.05281 -0.0477069 0)
(5.05689 -0.0500594 0)
(5.06116 -0.0525064 0)
(5.06564 -0.0550552 0)
(5.07033 -0.0577125 0)
(5.07523 -0.060486 0)
(5.08036 -0.0633829 0)
(5.08573 -0.0664111 0)
(5.09136 -0.0695781 0)
(5.09725 -0.0728924 0)
(5.10341 -0.0763616 0)
(5.10987 -0.0799944 0)
(5.11663 -0.0837989 0)
(5.12372 -0.0877841 0)
(5.13114 -0.091958 0)
(5.13892 -0.09633 0)
(5.14708 -0.100908 0)
(5.15562 -0.105702 0)
(5.16458 -0.11072 0)
(5.17398 -0.115971 0)
(5.18383 -0.121464 0)
(5.19417 -0.127208 0)
(5.205 -0.13321 0)
(5.21637 -0.139481 0)
(5.22829 -0.146027 0)
(5.2408 -0.152856 0)
(5.25392 -0.159976 0)
(5.26768 -0.167394 0)
(5.28212 -0.175116 0)
(5.29725 -0.183146 0)
(5.31314 -0.191488 0)
(5.32979 -0.200146 0)
(5.34726 -0.209121 0)
(5.36558 -0.21841 0)
(5.38479 -0.228012 0)
(5.40492 -0.237919 0)
(5.42603 -0.248121 0)
(5.44816 -0.258605 0)
(5.47134 -0.269351 0)
(5.49563 -0.280336 0)
(5.52106 -0.291529 0)
(5.54768 -0.302893 0)
(5.57552 -0.314382 0)
(5.60463 -0.325941 0)
(5.63504 -0.337508 0)
(5.66677 -0.349009 0)
(5.69984 -0.360362 0)
(5.73425 -0.371472 0)
(5.77 -0.382241 0)
(5.80707 -0.392556 0)
(5.84542 -0.402306 0)
(5.88499 -0.411368 0)
(5.9257 -0.419629 0)
(5.96745 -0.42697 0)
(6.01012 -0.43329 0)
(6.05357 -0.438491 0)
(6.09765 -0.442498 0)
(6.14218 -0.44525 0)
(6.18697 -0.446714 0)
(6.23186 -0.446869 0)
(6.27666 -0.445727 0)
(6.32118 -0.443311 0)
(6.36526 -0.43967 0)
(6.40876 -0.434861 0)
(6.45151 -0.428964 0)
(6.4934 -0.422057 0)
(6.53431 -0.414237 0)
(6.57416 -0.405597 0)
(6.61286 -0.396239 0)
(6.65035 -0.386259 0)
(6.68658 -0.375758 0)
(6.72153 -0.364828 0)
(6.75516 -0.353563 0)
(6.78747 -0.342044 0)
(6.81845 -0.330354 0)
(6.84812 -0.318562 0)
(6.87648 -0.306738 0)
(6.90357 -0.294938 0)
(6.92939 -0.283217 0)
(6.954 -0.271616 0)
(6.9774 -0.26018 0)
(6.99966 -0.248936 0)
(7.02079 -0.237917 0)
(7.04085 -0.227139 0)
(7.05986 -0.216625 0)
(7.07788 -0.206381 0)
(7.09493 -0.196424 0)
(7.11107 -0.186749 0)
(7.12632 -0.177369 0)
(7.14076 -0.16827 0)
(7.15439 -0.159461 0)
(7.16728 -0.150919 0)
(7.17946 -0.14265 0)
(7.19099 -0.134621 0)
(7.20188 -0.126831 0)
(7.21223 -0.119235 0)
(7.22203 -0.11182 0)
(7.23138 -0.104524 0)
(7.24028 -0.0973164 0)
(7.24882 -0.0901131 0)
(7.257 -0.0828547 0)
(7.2649 -0.075432 0)
(7.27249 -0.0677443 0)
(7.27984 -0.0596546 0)
(7.28688 -0.0510126 0)
(7.29364 -0.0416557 0)
(7.29998 -0.0313924 0)
(7.30587 -0.0200466 0)
(7.31109 -0.00742684 0)
(7.31552 0.00660299 0)
(7.31886 0.0222233 0)
(7.32092 0.0394908 0)
(7.32134 0.058512 0)
(7.31984 0.0792284 0)
(7.3161 0.101638 0)
(7.30982 0.125555 0)
(7.30071 0.150863 0)
(7.28854 0.177271 0)
(7.27312 0.204568 0)
(7.25427 0.232396 0)
(7.23196 0.26049 0)
(7.2061 0.28847 0)
(7.17678 0.316053 0)
(7.14402 0.34288 0)
(7.10801 0.368684 0)
(7.06887 0.393161 0)
(7.02688 0.416084 0)
(6.98222 0.437224 0)
(6.93526 0.456412 0)
(6.88618 0.473507 0)
(6.83541 0.488403 0)
(6.78316 0.501045 0)
(6.72983 0.511394 0)
(6.67566 0.519472 0)
(6.62102 0.525297 0)
(6.56612 0.528955 0)
(6.51129 0.53051 0)
(6.45673 0.530095 0)
(6.40271 0.527807 0)
(6.3494 0.523809 0)
(6.297 0.518219 0)
(6.24565 0.511213 0)
(6.1955 0.502918 0)
(6.14665 0.493512 0)
(6.0992 0.483123 0)
(6.05322 0.471921 0)
(6.00876 0.460026 0)
(5.96587 0.447596 0)
(5.92456 0.43474 0)
(5.88484 0.421598 0)
(5.8467 0.408266 0)
(5.81014 0.394863 0)
(5.77512 0.381473 0)
(5.74162 0.368195 0)
(5.70959 0.355098 0)
(5.67899 0.342263 0)
(5.64975 0.329746 0)
(5.62183 0.317607 0)
(5.59517 0.305895 0)
(5.5697 0.294652 0)
(5.54536 0.283915 0)
(5.52207 0.273714 0)
(5.49977 0.264077 0)
(5.4784 0.255021 0)
(5.45787 0.246567 0)
(5.43813 0.238722 0)
(5.4191 0.231499 0)
(5.40076 0.224899 0)
(5.3829 0.218923 0)
(5.36594 0.213586 0)
(5.34834 0.208791 0)
(5.33452 0.204987 0)
(5.3102 0.199848 0)
(5.00001 -0.000910178 0)
(5.00014 -0.00283422 0)
(5.00042 -0.00469426 0)
(5.00084 -0.00653753 0)
(5.00141 -0.00837571 0)
(5.00211 -0.0102123 0)
(5.00295 -0.0120484 0)
(5.00392 -0.0138853 0)
(5.00502 -0.0157243 0)
(5.00626 -0.017567 0)
(5.00763 -0.0194155 0)
(5.00912 -0.0212723 0)
(5.01075 -0.0231403 0)
(5.01251 -0.0250227 0)
(5.01439 -0.0269231 0)
(5.01641 -0.0288455 0)
(5.01855 -0.0307943 0)
(5.02082 -0.0327742 0)
(5.02323 -0.0347902 0)
(5.02576 -0.0368476 0)
(5.02843 -0.0389522 0)
(5.03124 -0.0411097 0)
(5.03419 -0.0433264 0)
(5.03728 -0.0456088 0)
(5.04052 -0.0479637 0)
(5.04391 -0.050398 0)
(5.04746 -0.0529191 0)
(5.05118 -0.0555344 0)
(5.05506 -0.0582518 0)
(5.05912 -0.0610791 0)
(5.06337 -0.0640248 0)
(5.06781 -0.067097 0)
(5.07245 -0.0703049 0)
(5.07731 -0.073657 0)
(5.08239 -0.0771627 0)
(5.0877 -0.0808311 0)
(5.09326 -0.0846722 0)
(5.09908 -0.0886951 0)
(5.10517 -0.0929104 0)
(5.11155 -0.0973276 0)
(5.11823 -0.101958 0)
(5.12523 -0.10681 0)
(5.13257 -0.111896 0)
(5.14027 -0.117226 0)
(5.14833 -0.122811 0)
(5.1568 -0.128661 0)
(5.16567 -0.134789 0)
(5.17499 -0.141203 0)
(5.18476 -0.147916 0)
(5.19502 -0.154937 0)
(5.2058 -0.162279 0)
(5.21711 -0.169951 0)
(5.22898 -0.177965 0)
(5.24146 -0.186328 0)
(5.25456 -0.195053 0)
(5.26832 -0.204146 0)
(5.28277 -0.213618 0)
(5.29796 -0.223475 0)
(5.31391 -0.233723 0)
(5.33068 -0.244366 0)
(5.34829 -0.255408 0)
(5.36681 -0.266848 0)
(5.38627 -0.278685 0)
(5.40672 -0.29091 0)
(5.42822 -0.303513 0)
(5.45083 -0.316478 0)
(5.47459 -0.329782 0)
(5.49957 -0.343394 0)
(5.52583 -0.357276 0)
(5.55342 -0.371377 0)
(5.5824 -0.385636 0)
(5.61284 -0.399981 0)
(5.64477 -0.414322 0)
(5.67823 -0.428557 0)
(5.71326 -0.442568 0)
(5.74988 -0.456223 0)
(5.78807 -0.469375 0)
(5.82781 -0.481867 0)
(5.86905 -0.493532 0)
(5.9117 -0.504204 0)
(5.95565 -0.513716 0)
(6.00077 -0.521918 0)
(6.04686 -0.528668 0)
(6.09374 -0.533859 0)
(6.14118 -0.537404 0)
(6.18896 -0.539258 0)
(6.23683 -0.539401 0)
(6.28457 -0.537854 0)
(6.33196 -0.534657 0)
(6.37877 -0.52989 0)
(6.42485 -0.523639 0)
(6.47 -0.51602 0)
(6.51409 -0.507147 0)
(6.55698 -0.497154 0)
(6.59859 -0.486168 0)
(6.63883 -0.474326 0)
(6.67763 -0.461752 0)
(6.71495 -0.448578 0)
(6.75076 -0.434918 0)
(6.78505 -0.420891 0)
(6.81783 -0.406598 0)
(6.84908 -0.392141 0)
(6.87886 -0.377604 0)
(6.90716 -0.363072 0)
(6.93405 -0.348611 0)
(6.95956 -0.334288 0)
(6.98373 -0.320154 0)
(7.00661 -0.306259 0)
(7.02826 -0.292636 0)
(7.04872 -0.279324 0)
(7.06805 -0.26634 0)
(7.0863 -0.253711 0)
(7.10352 -0.241445 0)
(7.11976 -0.229559 0)
(7.13508 -0.218048 0)
(7.14951 -0.206927 0)
(7.16313 -0.196181 0)
(7.17596 -0.185821 0)
(7.18806 -0.175826 0)
(7.19948 -0.166205 0)
(7.21029 -0.156927 0)
(7.22052 -0.147998 0)
(7.23025 -0.139374 0)
(7.23952 -0.131052 0)