/*--------------------------------*- C++ -*----------------------------------*\
  =========                 |
  \\      /  F ield         | OpenFOAM: The Open Source CFD Toolbox
   \\    /   O peration     | Website:  https://openfoam.org
    \\  /    A nd           | Version:  10
     \\/     M anipulation  |
\*---------------------------------------------------------------------------*/
FoamFile
{
    format      ascii;
    class       volVectorField;
    location    "12750";
    object      Ub;
}
// * * * * * * * * * * * * * * * * * * * * * * * * * * * * * * * * * * * * * //

dimensions      [0 1 -1 0 0 0 0];

internalField   nonuniform List<vector> 
3200
(
(-5.46069e-21 -9.87891e-16 0)
(-1.634e-20 -9.87891e-16 0)
(-2.71877e-20 -9.87891e-16 0)
(-3.81081e-20 -9.8789e-16 0)
(-4.92064e-20 -9.8789e-16 0)
(-6.05929e-20 -9.8789e-16 0)
(-7.23887e-20 -9.87889e-16 0)
(-8.47312e-20 -9.87888e-16 0)
(-9.77822e-20 -9.87888e-16 0)
(-1.11738e-19 -9.87886e-16 0)
(-1.26843e-19 -9.87885e-16 0)
(-1.43412e-19 -9.87883e-16 0)
(-1.61857e-19 -9.87881e-16 0)
(-1.82739e-19 -9.87878e-16 0)
(-2.06833e-19 -9.87875e-16 0)
(-2.35252e-19 -9.8787e-16 0)
(-2.69632e-19 -9.87862e-16 0)
(-3.12462e-19 -9.87852e-16 0)
(-3.67641e-19 -9.87837e-16 0)
(-4.41468e-19 -9.87813e-16 0)
(-5.44422e-19 -9.87774e-16 0)
(-6.94404e-19 -9.87711e-16 0)
(-9.2349e-19 -9.87602e-16 0)
(-1.71609e-09 -9.88134e-16 0)
(-4.8756e-05 -5.10788e-07 0)
(-0.000105188 -2.97771e-05 0)
(-0.000114536 -8.72916e-06 0)
(-0.000117149 -4.81704e-06 0)
(-0.000118756 -3.12528e-06 0)
(-0.000119926 -2.19926e-06 0)
(-0.000120843 -1.6294e-06 0)
(-0.000121589 -1.25218e-06 0)
(-0.000122212 -9.90088e-07 0)
(-0.000122742 -8.00313e-07 0)
(-0.000123199 -6.57855e-07 0)
(-0.000123563 -6.43102e-07 0)
(-0.00011422 -2.6903e-05 0)
(-9.30428e-05 -3.33113e-05 0)
(-6.70232e-05 -4.12893e-05 0)
(-3.31131e-05 -5.70357e-05 0)
(-5.3448e-21 -9.87875e-16 0)
(-1.5989e-20 -9.87875e-16 0)
(-2.65894e-20 -9.87874e-16 0)
(-3.72391e-20 -9.87874e-16 0)
(-4.80302e-20 -9.87873e-16 0)
(-5.90569e-20 -9.87871e-16 0)
(-7.04196e-20 -9.8787e-16 0)
(-8.22276e-20 -9.87868e-16 0)
(-9.46034e-20 -9.87866e-16 0)
(-1.07687e-19 -9.87863e-16 0)
(-1.2164e-19 -9.87859e-16 0)
(-1.3665e-19 -9.87854e-16 0)
(-1.52937e-19 -9.87848e-16 0)
(-1.70748e-19 -9.87841e-16 0)
(-1.90353e-19 -9.87831e-16 0)
(-2.12008e-19 -9.87819e-16 0)
(-2.35874e-19 -9.87802e-16 0)
(-2.61832e-19 -9.87779e-16 0)
(-2.8906e-19 -9.87747e-16 0)
(-3.15157e-19 -9.87701e-16 0)
(-3.34282e-19 -9.87636e-16 0)
(-3.33318e-19 -9.87539e-16 0)
(-2.84004e-19 -9.87395e-16 0)
(-1.2695e-19 -9.87177e-16 0)
(1.41364e-19 -9.86432e-16 0)
(2.50798e-19 -9.3584e-16 0)
(1.67394e-19 -8.91288e-16 0)
(9.47186e-20 -8.49973e-16 0)
(3.31776e-20 -8.10888e-16 0)
(-2.37851e-20 -7.73544e-16 0)
(-8.18142e-20 -7.3765e-16 0)
(-1.46637e-19 -7.03013e-16 0)
(-2.25345e-19 -6.69489e-16 0)
(-3.28857e-19 -6.36972e-16 0)
(-7.50149e-10 -6.05851e-16 0)
(-1.59561e-05 -9.68552e-08 0)
(-4.46154e-05 -2.64522e-05 0)
(-6.98833e-05 -3.29429e-05 0)
(-9.55404e-05 -4.58903e-05 0)
(-5.92377e-05 -0.000256826 0)
(-5.12456e-21 -9.8786e-16 0)
(-1.53226e-20 -9.8786e-16 0)
(-2.5456e-20 -9.87859e-16 0)
(-3.55981e-20 -9.87858e-16 0)
(-4.58187e-20 -9.87856e-16 0)
(-5.61859e-20 -9.87854e-16 0)
(-6.67665e-20 -9.87852e-16 0)
(-7.76268e-20 -9.87849e-16 0)
(-8.88319e-20 -9.87846e-16 0)
(-1.00443e-19 -9.87841e-16 0)
(-1.12516e-19 -9.87836e-16 0)
(-1.25088e-19 -9.87829e-16 0)
(-1.38167e-19 -9.87821e-16 0)
(-1.5171e-19 -9.87812e-16 0)
(-1.65574e-19 -9.87799e-16 0)
(-1.79458e-19 -9.87784e-16 0)
(-1.92793e-19 -9.87766e-16 0)
(-2.04588e-19 -9.87742e-16 0)
(-2.13204e-19 -9.87713e-16 0)
(-2.16077e-19 -9.87677e-16 0)
(-2.09465e-19 -9.87634e-16 0)
(-1.88492e-19 -9.87586e-16 0)
(-1.48239e-19 -9.87538e-16 0)
(-8.76924e-20 -9.87504e-16 0)
(-2.07807e-20 -9.87517e-16 0)
(1.98507e-20 -9.87593e-16 0)
(2.57458e-20 -9.87646e-16 0)
(1.47625e-20 -9.87679e-16 0)
(-3.56106e-21 -9.87697e-16 0)
(-2.42583e-20 -9.87703e-16 0)
(-4.40329e-20 -9.87699e-16 0)
(-5.94273e-20 -9.87683e-16 0)
(-6.51689e-20 -9.87653e-16 0)
(-5.19843e-20 -9.87606e-16 0)
(-3.07821e-21 -9.87535e-16 0)
(6.29105e-20 -9.873e-16 0)
(6.16253e-20 -9.72641e-16 0)
(-9.95313e-10 -1.01796e-15 0)
(-2.79983e-06 -5.29429e-06 0)
(-1.40527e-06 -0.000413042 0)
(-4.82045e-21 -9.87846e-16 0)
(-1.44038e-20 -9.87845e-16 0)
(-2.38983e-20 -9.87844e-16 0)
(-3.33535e-20 -9.87843e-16 0)
(-4.28136e-20 -9.87841e-16 0)
(-5.23176e-20 -9.87839e-16 0)
(-6.18975e-20 -9.87836e-16 0)
(-7.15775e-20 -9.87832e-16 0)
(-8.13698e-20 -9.87828e-16 0)
(-9.12707e-20 -9.87823e-16 0)
(-1.01253e-19 -9.87817e-16 0)
(-1.11255e-19 -9.87809e-16 0)
(-1.21166e-19 -9.87801e-16 0)
(-1.30805e-19 -9.8779e-16 0)
(-1.39894e-19 -9.87778e-16 0)
(-1.48021e-19 -9.87764e-16 0)
(-1.54604e-19 -9.87748e-16 0)
(-1.58857e-19 -9.87729e-16 0)
(-1.59772e-19 -9.87707e-16 0)
(-1.56174e-19 -9.87684e-16 0)
(-1.46883e-19 -9.8766e-16 0)
(-1.31088e-19 -9.87637e-16 0)
(-1.09006e-19 -9.87619e-16 0)
(-8.27956e-20 -9.8761e-16 0)
(-5.71925e-20 -9.87614e-16 0)
(-3.79951e-20 -9.87629e-16 0)
(-2.75295e-20 -9.87646e-16 0)
(-2.40967e-20 -9.8766e-16 0)
(-2.51254e-20 -9.87669e-16 0)
(-2.81802e-20 -9.87674e-16 0)
(-3.11152e-20 -9.87673e-16 0)
(-3.20227e-20 -9.87668e-16 0)
(-2.92619e-20 -9.8766e-16 0)
(-2.18001e-20 -9.87652e-16 0)
(-1.02064e-20 -9.87648e-16 0)
(1.06922e-21 -9.87657e-16 0)
(5.5373e-21 -9.87676e-16 0)
(4.42515e-21 -9.90604e-16 0)
(-3.16957e-07 -7.00181e-07 0)
(1.56627e-07 -0.000428593 0)
(-4.45766e-21 -9.87832e-16 0)
(-1.33099e-20 -9.87832e-16 0)
(-2.20506e-20 -9.87831e-16 0)
(-3.07062e-20 -9.87829e-16 0)
(-3.92972e-20 -9.87827e-16 0)
(-4.78366e-20 -9.87824e-16 0)
(-5.63283e-20 -9.87821e-16 0)
(-6.47643e-20 -9.87817e-16 0)
(-7.31218e-20 -9.87813e-16 0)
(-8.1358e-20 -9.87807e-16 0)
(-8.94047e-20 -9.87801e-16 0)
(-9.7161e-20 -9.87794e-16 0)
(-1.04485e-19 -9.87786e-16 0)
(-1.11183e-19 -9.87776e-16 0)
(-1.17004e-19 -9.87765e-16 0)
(-1.2163e-19 -9.87753e-16 0)
(-1.2468e-19 -9.8774e-16 0)
(-1.25726e-19 -9.87726e-16 0)
(-1.2433e-19 -9.87711e-16 0)
(-1.20119e-19 -9.87696e-16 0)
(-1.12896e-19 -9.87682e-16 0)
(-1.02792e-19 -9.87669e-16 0)
(-9.0421e-20 -9.8766e-16 0)
(-7.69483e-20 -9.87655e-16 0)
(-6.39498e-20 -9.87654e-16 0)
(-5.29156e-20 -9.87657e-16 0)
(-4.46018e-20 -9.87662e-16 0)
(-3.88935e-20 -9.87666e-16 0)
(-3.51643e-20 -9.8767e-16 0)
(-3.25949e-20 -9.87672e-16 0)
(-3.03759e-20 -9.87673e-16 0)
(-2.78391e-20 -9.87672e-16 0)
(-2.45681e-20 -9.87671e-16 0)
(-2.05128e-20 -9.87671e-16 0)
(-1.6086e-20 -9.87672e-16 0)
(-1.21316e-20 -9.87674e-16 0)
(-9.49187e-21 -9.87678e-16 0)
(-4.99908e-12 -9.91861e-16 0)
(-2.39728e-07 -6.43991e-07 0)
(1.68445e-07 -0.00043333 0)
(-4.06178e-21 -9.8782e-16 0)
(-1.21187e-20 -9.87819e-16 0)
(-2.00468e-20 -9.87818e-16 0)
(-2.7853e-20 -9.87817e-16 0)
(-3.55386e-20 -9.87814e-16 0)
(-4.30975e-20 -9.87812e-16 0)
(-5.05145e-20 -9.87808e-16 0)
(-5.77631e-20 -9.87805e-16 0)
(-6.48027e-20 -9.878e-16 0)
(-7.15761e-20 -9.87795e-16 0)
(-7.80061e-20 -9.87789e-16 0)
(-8.39925e-20 -9.87782e-16 0)
(-8.94101e-20 -9.87775e-16 0)
(-9.4107e-20 -9.87766e-16 0)
(-9.79063e-20 -9.87757e-16 0)
(-1.00612e-19 -9.87748e-16 0)
(-1.02022e-19 -9.87738e-16 0)
(-1.01945e-19 -9.87727e-16 0)
(-1.00235e-19 -9.87716e-16 0)
(-9.68276e-20 -9.87706e-16 0)
(-9.17826e-20 -9.87697e-16 0)
(-8.53228e-20 -9.87689e-16 0)
(-7.78473e-20 -9.87683e-16 0)
(-6.98999e-20 -9.87678e-16 0)
(-6.20787e-20 -9.87676e-16 0)
(-5.48963e-20 -9.87675e-16 0)
(-4.86535e-20 -9.87676e-16 0)
(-4.34046e-20 -9.87677e-16 0)
(-3.9015e-20 -9.87678e-16 0)
(-3.52487e-20 -9.87679e-16 0)
(-3.18493e-20 -9.8768e-16 0)
(-2.86047e-20 -9.8768e-16 0)
(-2.53916e-20 -9.8768e-16 0)
(-2.21991e-20 -9.87681e-16 0)
(-1.9122e-20 -9.87681e-16 0)
(-1.63157e-20 -9.87682e-16 0)
(-1.39431e-20 -9.87683e-16 0)
(-7.51968e-12 -9.92685e-16 0)
(-2.3579e-07 -6.9759e-07 0)
(1.79947e-07 -0.000437637 0)
(-3.65547e-21 -9.87809e-16 0)
(-1.08986e-20 -9.87808e-16 0)
(-1.80028e-20 -9.87807e-16 0)
(-2.49604e-20 -9.87805e-16 0)
(-3.1759e-20 -9.87803e-16 0)
(-3.83807e-20 -9.87801e-16 0)
(-4.48e-20 -9.87797e-16 0)
(-5.09824e-20 -9.87794e-16 0)
(-5.68832e-20 -9.87789e-16 0)
(-6.2446e-20 -9.87785e-16 0)
(-6.76021e-20 -9.87779e-16 0)
(-7.22701e-20 -9.87773e-16 0)
(-7.63565e-20 -9.87767e-16 0)
(-7.97586e-20 -9.8776e-16 0)
(-8.23686e-20 -9.87752e-16 0)
(-8.40807e-20 -9.87745e-16 0)
(-8.48015e-20 -9.87737e-16 0)
(-8.44628e-20 -9.87729e-16 0)
(-8.30368e-20 -9.87721e-16 0)
(-8.05512e-20 -9.87714e-16 0)
(-7.71004e-20 -9.87707e-16 0)
(-7.28497e-20 -9.87701e-16 0)
(-6.80259e-20 -9.87696e-16 0)
(-6.28927e-20 -9.87693e-16 0)
(-5.77133e-20 -9.8769e-16 0)
(-5.27075e-20 -9.87689e-16 0)
(-4.80199e-20 -9.87688e-16 0)
(-4.3711e-20 -9.87687e-16 0)
(-3.97701e-20 -9.87687e-16 0)
(-3.61416e-20 -9.87687e-16 0)
(-3.27524e-20 -9.87688e-16 0)
(-2.95362e-20 -9.87688e-16 0)
(-2.64487e-20 -9.87688e-16 0)
(-2.34744e-20 -9.87689e-16 0)
(-2.06214e-20 -9.87689e-16 0)
(-1.79091e-20 -9.87689e-16 0)
(-1.5389e-20 -9.8769e-16 0)
(-8.90943e-12 -9.93322e-16 0)
(-2.37132e-07 -7.64675e-07 0)
(1.90508e-07 -0.000441974 0)
(-3.25659e-21 -9.87799e-16 0)
(-9.70308e-21 -9.87798e-16 0)
(-1.60078e-20 -9.87797e-16 0)
(-2.21532e-20 -9.87796e-16 0)
(-2.81188e-20 -9.87794e-16 0)
(-3.38804e-20 -9.87791e-16 0)
(-3.94089e-20 -9.87788e-16 0)
(-4.46691e-20 -9.87785e-16 0)
(-4.96197e-20 -9.87781e-16 0)
(-5.42127e-20 -9.87776e-16 0)
(-5.83939e-20 -9.87772e-16 0)
(-6.21041e-20 -9.87766e-16 0)
(-6.52804e-20 -9.87761e-16 0)
(-6.786e-20 -9.87755e-16 0)
(-6.97833e-20 -9.87749e-16 0)
(-7.09998e-20 -9.87743e-16 0)
(-7.14738e-20 -9.87736e-16 0)
(-7.11914e-20 -9.8773e-16 0)
(-7.01658e-20 -9.87724e-16 0)
(-6.84423e-20 -9.87719e-16 0)
(-6.6099e-20 -9.87714e-16 0)
(-6.32442e-20 -9.87709e-16 0)
(-6.00073e-20 -9.87705e-16 0)
(-5.65264e-20 -9.87702e-16 0)
(-5.29329e-20 -9.877e-16 0)
(-4.93364e-20 -9.87698e-16 0)
(-4.58153e-20 -9.87697e-16 0)
(-4.24137e-20 -9.87696e-16 0)
(-3.91456e-20 -9.87696e-16 0)
(-3.60031e-20 -9.87695e-16 0)
(-3.29662e-20 -9.87695e-16 0)
(-3.0012e-20 -9.87695e-16 0)
(-2.71207e-20 -9.87696e-16 0)
(-2.42793e-20 -9.87696e-16 0)
(-2.14815e-20 -9.87696e-16 0)
(-1.87261e-20 -9.87697e-16 0)
(-1.60573e-20 -9.87697e-16 0)
(-1.01676e-11 -9.93936e-16 0)
(-2.39444e-07 -8.37567e-07 0)
(2.01233e-07 -0.000446377 0)
(-2.87767e-21 -9.8779e-16 0)
(-8.56944e-21 -9.87789e-16 0)
(-1.41225e-20 -9.87788e-16 0)
(-1.95138e-20 -9.87787e-16 0)
(-2.4719e-20 -9.87785e-16 0)
(-2.97119e-20 -9.87783e-16 0)
(-3.44637e-20 -9.8778e-16 0)
(-3.89427e-20 -9.87777e-16 0)
(-4.31139e-20 -9.87773e-16 0)
(-4.69398e-20 -9.8777e-16 0)
(-5.0381e-20 -9.87765e-16 0)
(-5.33975e-20 -9.87761e-16 0)
(-5.59502e-20 -9.87756e-16 0)
(-5.80038e-20 -9.87751e-16 0)
(-5.9529e-20 -9.87746e-16 0)
(-6.05061e-20 -9.87741e-16 0)
(-6.09274e-20 -9.87736e-16 0)
(-6.08006e-20 -9.87731e-16 0)
(-6.01503e-20 -9.87727e-16 0)
(-5.90182e-20 -9.87722e-16 0)
(-5.74623e-20 -9.87718e-16 0)
(-5.55528e-20 -9.87715e-16 0)
(-5.33675e-20 -9.87711e-16 0)
(-5.09845e-20 -9.87709e-16 0)
(-4.84757e-20 -9.87707e-16 0)
(-4.59011e-20 -9.87705e-16 0)
(-4.33043e-20 -9.87704e-16 0)
(-4.0712e-20 -9.87703e-16 0)
(-3.81344e-20 -9.87702e-16 0)
(-3.55689e-20 -9.87702e-16 0)
(-3.30032e-20 -9.87702e-16 0)
(-3.04199e-20 -9.87702e-16 0)
(-2.78003e-20 -9.87703e-16 0)
(-2.51278e-20 -9.87703e-16 0)
(-2.2391e-20 -9.87704e-16 0)
(-1.95864e-20 -9.87704e-16 0)
(-1.67712e-20 -9.87705e-16 0)
(-1.16394e-11 -9.94681e-16 0)
(-2.42102e-07 -9.26161e-07 0)
(2.12927e-07 -0.000450857 0)
(-2.52637e-21 -9.87782e-16 0)
(-7.52e-21 -9.87782e-16 0)
(-1.23825e-20 -9.87781e-16 0)
(-1.70883e-20 -9.87779e-16 0)
(-2.16123e-20 -9.87778e-16 0)
(-2.59291e-20 -9.87776e-16 0)
(-3.00123e-20 -9.87773e-16 0)
(-3.38349e-20 -9.8777e-16 0)
(-3.73693e-20 -9.87767e-16 0)
(-4.05876e-20 -9.87764e-16 0)
(-4.34629e-20 -9.8776e-16 0)
(-4.59695e-20 -9.87756e-16 0)
(-4.80854e-20 -9.87752e-16 0)
(-4.97928e-20 -9.87748e-16 0)
(-5.10802e-20 -9.87744e-16 0)
(-5.19442e-20 -9.8774e-16 0)
(-5.23902e-20 -9.87736e-16 0)
(-5.2434e-20 -9.87732e-16 0)
(-5.21011e-20 -9.87728e-16 0)
(-5.14271e-20 -9.87724e-16 0)
(-5.04548e-20 -9.87721e-16 0)
(-4.92328e-20 -9.87718e-16 0)
(-4.78113e-20 -9.87716e-16 0)
(-4.62393e-20 -9.87713e-16 0)
(-4.45602e-20 -9.87711e-16 0)
(-4.28094e-20 -9.8771e-16 0)
(-4.10116e-20 -9.87709e-16 0)
(-3.91796e-20 -9.87708e-16 0)
(-3.7314e-20 -9.87708e-16 0)
(-3.54033e-20 -9.87708e-16 0)
(-3.34249e-20 -9.87708e-16 0)
(-3.1347e-20 -9.87708e-16 0)
(-2.91307e-20 -9.87709e-16 0)
(-2.67341e-20 -9.8771e-16 0)
(-2.41179e-20 -9.87711e-16 0)
(-2.12541e-20 -9.87712e-16 0)
(-1.82003e-20 -9.87713e-16 0)
(-1.41051e-11 -9.95946e-16 0)
(-2.44613e-07 -1.05147e-06 0)
(2.26506e-07 -0.000455424 0)
(-2.20638e-21 -9.87775e-16 0)
(-6.56528e-21 -9.87775e-16 0)
(-1.08033e-20 -9.87774e-16 0)
(-1.48949e-20 -9.87773e-16 0)
(-1.88159e-20 -9.87771e-16 0)
(-2.25428e-20 -9.87769e-16 0)
(-2.60529e-20 -9.87767e-16 0)
(-2.93241e-20 -9.87765e-16 0)
(-3.23352e-20 -9.87762e-16 0)
(-3.50664e-20 -9.87759e-16 0)
(-3.75e-20 -9.87756e-16 0)
(-3.9621e-20 -9.87753e-16 0)
(-4.14181e-20 -9.87749e-16 0)
(-4.28845e-20 -9.87746e-16 0)
(-4.40191e-20 -9.87742e-16 0)
(-4.48266e-20 -9.87739e-16 0)
(-4.53187e-20 -9.87735e-16 0)
(-4.55136e-20 -9.87732e-16 0)
(-4.54361e-20 -9.87729e-16 0)
(-4.51164e-20 -9.87726e-16 0)
(-4.45892e-20 -9.87723e-16 0)
(-4.38916e-20 -9.8772e-16 0)
(-4.30613e-20 -9.87718e-16 0)
(-4.21346e-20 -9.87716e-16 0)
(-4.11437e-20 -9.87714e-16 0)
(-4.01151e-20 -9.87713e-16 0)
(-3.90676e-20 -9.87712e-16 0)
(-3.80097e-20 -9.87712e-16 0)
(-3.69385e-20 -9.87711e-16 0)
(-3.58368e-20 -9.87711e-16 0)
(-3.46704e-20 -9.87712e-16 0)
(-3.33851e-20 -9.87713e-16 0)
(-3.19037e-20 -9.87714e-16 0)
(-3.01231e-20 -9.87716e-16 0)
(-2.79152e-20 -9.87718e-16 0)
(-2.51322e-20 -9.8772e-16 0)
(-2.17156e-20 -9.87723e-16 0)
(-1.90762e-11 -9.98084e-16 0)
(-2.46202e-07 -1.22575e-06 0)
(2.43614e-07 -0.000460089 0)
(-1.91851e-21 -9.87769e-16 0)
(-5.70724e-21 -9.87769e-16 0)
(-9.38678e-21 -9.87768e-16 0)
(-1.29329e-20 -9.87767e-16 0)
(-1.63233e-20 -9.87766e-16 0)
(-1.95372e-20 -9.87764e-16 0)
(-2.25554e-20 -9.87762e-16 0)
(-2.53603e-20 -9.8776e-16 0)
(-2.7936e-20 -9.87758e-16 0)
(-3.02688e-20 -9.87755e-16 0)
(-3.23476e-20 -9.87752e-16 0)
(-3.41645e-20 -9.87749e-16 0)
(-3.5715e-20 -9.87746e-16 0)
(-3.69989e-20 -9.87743e-16 0)
(-3.80205e-20 -9.8774e-16 0)
(-3.87891e-20 -9.87737e-16 0)
(-3.93187e-20 -9.87734e-16 0)
(-3.96284e-20 -9.87732e-16 0)
(-3.97417e-20 -9.87729e-16 0)
(-3.96861e-20 -9.87726e-16 0)
(-3.94921e-20 -9.87724e-16 0)
(-3.91925e-20 -9.87721e-16 0)
(-3.88212e-20 -9.87719e-16 0)
(-3.84122e-20 -9.87718e-16 0)
(-3.79984e-20 -9.87716e-16 0)
(-3.76105e-20 -9.87715e-16 0)
(-3.72756e-20 -9.87714e-16 0)
(-3.70159e-20 -9.87713e-16 0)
(-3.68458e-20 -9.87713e-16 0)
(-3.67689e-20 -9.87713e-16 0)
(-3.67715e-20 -9.87713e-16 0)
(-3.68144e-20 -9.87714e-16 0)
(-3.6818e-20 -9.87716e-16 0)
(-3.66414e-20 -9.87719e-16 0)
(-3.60491e-20 -9.87722e-16 0)
(-3.46641e-20 -9.87727e-16 0)
(-3.20765e-20 -9.87733e-16 0)
(-3.70305e-11 -1.00456e-15 0)
(-2.43906e-07 -1.71693e-06 0)
(2.70525e-07 -0.000464863 0)
(-1.66168e-21 -9.87764e-16 0)
(-4.94229e-21 -9.87764e-16 0)
(-8.12572e-21 -9.87763e-16 0)
(-1.11898e-20 -9.87762e-16 0)
(-1.41145e-20 -9.87761e-16 0)
(-1.68818e-20 -9.87759e-16 0)
(-1.94757e-20 -9.87758e-16 0)
(-2.18822e-20 -9.87756e-16 0)
(-2.40895e-20 -9.87754e-16 0)
(-2.60884e-20 -9.87752e-16 0)
(-2.78722e-20 -9.87749e-16 0)
(-2.94373e-20 -9.87747e-16 0)
(-3.07834e-20 -9.87744e-16 0)
(-3.19138e-20 -9.87742e-16 0)
(-3.28356e-20 -9.87739e-16 0)
(-3.35597e-20 -9.87736e-16 0)
(-3.41009e-20 -9.87734e-16 0)
(-3.44778e-20 -9.87731e-16 0)
(-3.47126e-20 -9.87729e-16 0)
(-3.48308e-20 -9.87726e-16 0)
(-3.48608e-20 -9.87724e-16 0)
(-3.48337e-20 -9.87722e-16 0)
(-3.47834e-20 -9.8772e-16 0)
(-3.47459e-20 -9.87718e-16 0)
(-3.47601e-20 -9.87716e-16 0)
(-3.48681e-20 -9.87715e-16 0)
(-3.51157e-20 -9.87714e-16 0)
(-3.55539e-20 -9.87713e-16 0)
(-3.62403e-20 -9.87712e-16 0)
(-3.72403e-20 -9.87711e-16 0)
(-3.86294e-20 -9.87711e-16 0)
(-4.04931e-20 -9.87712e-16 0)
(-4.29259e-20 -9.87713e-16 0)
(-4.6025e-20 -9.87715e-16 0)
(-4.98732e-20 -9.87718e-16 0)
(-5.45023e-20 -9.87723e-16 0)
(-6.05142e-20 -9.8773e-16 0)
(-1.91407e-10 -1.07414e-15 0)
(-2.24266e-07 -5.92395e-06 0)
(3.31753e-07 -0.000469749 0)
(-1.43373e-21 -9.8776e-16 0)
(-4.2637e-21 -9.87759e-16 0)
(-7.00811e-21 -9.87759e-16 0)
(-9.64706e-21 -9.87758e-16 0)
(-1.21629e-20 -9.87757e-16 0)
(-1.45401e-20 -9.87756e-16 0)
(-1.67653e-20 -9.87754e-16 0)
(-1.88274e-20 -9.87752e-16 0)
(-2.07177e-20 -9.87751e-16 0)
(-2.24295e-20 -9.87749e-16 0)
(-2.39592e-20 -9.87746e-16 0)
(-2.53057e-20 -9.87744e-16 0)
(-2.64707e-20 -9.87742e-16 0)
(-2.7459e-20 -9.8774e-16 0)
(-2.82785e-20 -9.87737e-16 0)
(-2.894e-20 -9.87735e-16 0)
(-2.94576e-20 -9.87733e-16 0)
(-2.98482e-20 -9.8773e-16 0)
(-3.01317e-20 -9.87728e-16 0)
(-3.03305e-20 -9.87726e-16 0)
(-3.04703e-20 -9.87724e-16 0)
(-3.05793e-20 -9.87722e-16 0)
(-3.06889e-20 -9.8772e-16 0)
(-3.08344e-20 -9.87718e-16 0)
(-3.10557e-20 -9.87716e-16 0)
(-3.13989e-20 -9.87714e-16 0)
(-3.1919e-20 -9.87713e-16 0)
(-3.2683e-20 -9.87711e-16 0)
(-3.37759e-20 -9.87709e-16 0)
(-3.53085e-20 -9.87708e-16 0)
(-3.74309e-20 -9.87706e-16 0)
(-4.03523e-20 -9.87705e-16 0)
(-4.43733e-20 -9.87703e-16 0)
(-4.99376e-20 -9.87702e-16 0)
(-5.77164e-20 -9.877e-16 0)
(-6.87481e-20 -9.87699e-16 0)
(-9.18613e-20 -9.87697e-16 0)
(-2.73215e-09 -1.77277e-15 0)
(-1.76714e-07 -2.02037e-05 0)
(4.41786e-07 -0.000474711 0)
(-1.23201e-21 -9.87756e-16 0)
(-3.66337e-21 -9.87756e-16 0)
(-6.01999e-21 -9.87755e-16 0)
(-8.28418e-21 -9.87754e-16 0)
(-1.04404e-20 -9.87753e-16 0)
(-1.24754e-20 -9.87752e-16 0)
(-1.4378e-20 -9.87751e-16 0)
(-1.6139e-20 -9.87749e-16 0)
(-1.77516e-20 -9.87748e-16 0)
(-1.92113e-20 -9.87746e-16 0)
(-2.05157e-20 -9.87744e-16 0)
(-2.16649e-20 -9.87742e-16 0)
(-2.26614e-20 -9.8774e-16 0)
(-2.35099e-20 -9.87738e-16 0)
(-2.42177e-20 -9.87736e-16 0)
(-2.47945e-20 -9.87734e-16 0)
(-2.5252e-20 -9.87732e-16 0)
(-2.56043e-20 -9.8773e-16 0)
(-2.58673e-20 -9.87728e-16 0)
(-2.60593e-20 -9.87726e-16 0)
(-2.62002e-20 -9.87724e-16 0)
(-2.6312e-20 -9.87722e-16 0)
(-2.64189e-20 -9.8772e-16 0)
(-2.65475e-20 -9.87718e-16 0)
(-2.67272e-20 -9.87716e-16 0)
(-2.69911e-20 -9.87713e-16 0)
(-2.73766e-20 -9.87711e-16 0)
(-2.79266e-20 -9.87709e-16 0)
(-2.8691e-20 -9.87707e-16 0)
(-2.97281e-20 -9.87704e-16 0)
(-3.11053e-20 -9.87701e-16 0)
(-3.28996e-20 -9.87698e-16 0)
(-3.51944e-20 -9.87694e-16 0)
(-3.8071e-20 -9.87689e-16 0)
(-4.15883e-20 -9.87683e-16 0)
(-4.57383e-20 -9.87675e-16 0)
(-8.83274e-20 -9.87664e-16 0)
(-7.79824e-09 -3.28243e-15 0)
(-2.17324e-07 -3.42545e-05 0)
(3.92224e-07 -0.000479748 0)
(-1.05378e-21 -9.87752e-16 0)
(-3.13303e-21 -9.87752e-16 0)
(-5.14729e-21 -9.87752e-16 0)
(-7.08093e-21 -9.87751e-16 0)
(-8.92033e-21 -9.8775e-16 0)
(-1.06539e-20 -9.87749e-16 0)
(-1.22722e-20 -9.87748e-16 0)
(-1.37674e-20 -9.87747e-16 0)
(-1.51341e-20 -9.87745e-16 0)
(-1.63687e-20 -9.87744e-16 0)
(-1.74693e-20 -9.87742e-16 0)
(-1.84365e-20 -9.87741e-16 0)
(-1.92722e-20 -9.87739e-16 0)
(-1.99806e-20 -9.87737e-16 0)
(-2.05673e-20 -9.87735e-16 0)
(-2.10399e-20 -9.87733e-16 0)
(-2.14071e-20 -9.87731e-16 0)
(-2.16793e-20 -9.87729e-16 0)
(-2.18677e-20 -9.87727e-16 0)
(-2.19846e-20 -9.87725e-16 0)
(-2.20431e-20 -9.87724e-16 0)
(-2.20567e-20 -9.87722e-16 0)
(-2.20394e-20 -9.8772e-16 0)
(-2.20047e-20 -9.87717e-16 0)
(-2.1966e-20 -9.87715e-16 0)
(-2.19355e-20 -9.87713e-16 0)
(-2.19232e-20 -9.87711e-16 0)
(-2.19358e-20 -9.87708e-16 0)
(-2.19739e-20 -9.87706e-16 0)
(-2.20291e-20 -9.87703e-16 0)
(-2.20773e-20 -9.87699e-16 0)
(-2.2071e-20 -9.87695e-16 0)
(-2.19256e-20 -9.87691e-16 0)
(-2.14997e-20 -9.87686e-16 0)
(-2.05673e-20 -9.8768e-16 0)
(-1.87772e-20 -9.87672e-16 0)
(-3.74528e-20 -9.87663e-16 0)
(-1.35699e-09 -4.33071e-15 0)
(-3.00039e-07 -3.68957e-05 0)
(2.35634e-07 -0.000484891 0)
(-8.9643e-22 -9.8775e-16 0)
(-2.66484e-21 -9.87749e-16 0)
(-4.37694e-21 -9.87749e-16 0)
(-6.01885e-21 -9.87748e-16 0)
(-7.57856e-21 -9.87748e-16 0)
(-9.04592e-21 -9.87747e-16 0)
(-1.04126e-20 -9.87746e-16 0)
(-1.16719e-20 -9.87745e-16 0)
(-1.28191e-20 -9.87743e-16 0)
(-1.38509e-20 -9.87742e-16 0)
(-1.47658e-20 -9.87741e-16 0)
(-1.55637e-20 -9.87739e-16 0)
(-1.62461e-20 -9.87738e-16 0)
(-1.68157e-20 -9.87736e-16 0)
(-1.72763e-20 -9.87734e-16 0)
(-1.7633e-20 -9.87733e-16 0)
(-1.78914e-20 -9.87731e-16 0)
(-1.80581e-20 -9.87729e-16 0)
(-1.81395e-20 -9.87727e-16 0)
(-1.81424e-20 -9.87725e-16 0)
(-1.80732e-20 -9.87724e-16 0)
(-1.79377e-20 -9.87722e-16 0)
(-1.77402e-20 -9.8772e-16 0)
(-1.74835e-20 -9.87718e-16 0)
(-1.71675e-20 -9.87716e-16 0)
(-1.67888e-20 -9.87714e-16 0)
(-1.6339e-20 -9.87711e-16 0)
(-1.5803e-20 -9.87709e-16 0)
(-1.51573e-20 -9.87706e-16 0)
(-1.43666e-20 -9.87704e-16 0)
(-1.33807e-20 -9.87701e-16 0)
(-1.21308e-20 -9.87697e-16 0)
(-1.05245e-20 -9.87694e-16 0)
(-8.44204e-21 -9.8769e-16 0)
(-5.7334e-21 -9.87685e-16 0)
(-2.21921e-21 -9.87681e-16 0)
(2.30118e-21 -9.87676e-16 0)
(2.80447e-20 -4.65317e-15 0)
(-3.22328e-07 -3.39762e-05 0)
(1.7464e-07 -0.000490033 0)
(-7.57624e-22 -9.87747e-16 0)
(-2.25182e-21 -9.87747e-16 0)
(-3.69731e-21 -9.87747e-16 0)
(-5.08174e-21 -9.87746e-16 0)
(-6.39442e-21 -9.87746e-16 0)
(-7.62631e-21 -9.87745e-16 0)
(-8.76995e-21 -9.87744e-16 0)
(-9.81942e-21 -9.87743e-16 0)
(-1.07703e-20 -9.87742e-16 0)
(-1.16194e-20 -9.87741e-16 0)
(-1.23652e-20 -9.87739e-16 0)
(-1.30068e-20 -9.87738e-16 0)
(-1.3545e-20 -9.87737e-16 0)
(-1.39809e-20 -9.87735e-16 0)
(-1.43169e-20 -9.87734e-16 0)
(-1.45556e-20 -9.87732e-16 0)
(-1.47001e-20 -9.8773e-16 0)
(-1.47534e-20 -9.87729e-16 0)
(-1.47185e-20 -9.87727e-16 0)
(-1.45979e-20 -9.87726e-16 0)
(-1.4393e-20 -9.87724e-16 0)
(-1.41041e-20 -9.87722e-16 0)
(-1.37297e-20 -9.8772e-16 0)
(-1.32661e-20 -9.87719e-16 0)
(-1.27066e-20 -9.87717e-16 0)
(-1.20409e-20 -9.87715e-16 0)
(-1.12543e-20 -9.87713e-16 0)
(-1.0327e-20 -9.87711e-16 0)
(-9.23319e-21 -9.87709e-16 0)
(-7.94043e-21 -9.87706e-16 0)
(-6.40931e-21 -9.87704e-16 0)
(-4.59381e-21 -9.87701e-16 0)
(-2.44274e-21 -9.87699e-16 0)
(9.6985e-23 -9.87696e-16 0)
(3.07441e-21 -9.87694e-16 0)
(6.5247e-21 -9.87691e-16 0)
(1.04542e-20 -9.87689e-16 0)
(4.79241e-20 -4.99002e-15 0)
(-3.07322e-07 -2.97229e-05 0)
(1.42491e-07 -0.000494918 0)
(-6.35319e-22 -9.87745e-16 0)
(-1.88788e-21 -9.87745e-16 0)
(-3.09839e-21 -9.87745e-16 0)
(-4.25575e-21 -9.87744e-16 0)
(-5.35039e-21 -9.87744e-16 0)
(-6.37415e-21 -9.87743e-16 0)
(-7.32029e-21 -9.87742e-16 0)
(-8.18334e-21 -9.87741e-16 0)
(-8.9591e-21 -9.8774e-16 0)
(-9.64449e-21 -9.87739e-16 0)
(-1.02375e-20 -9.87738e-16 0)
(-1.07369e-20 -9.87737e-16 0)
(-1.11426e-20 -9.87736e-16 0)
(-1.14546e-20 -9.87734e-16 0)
(-1.16738e-20 -9.87733e-16 0)
(-1.18012e-20 -9.87732e-16 0)
(-1.18379e-20 -9.8773e-16 0)
(-1.17848e-20 -9.87729e-16 0)
(-1.16424e-20 -9.87728e-16 0)
(-1.14105e-20 -9.87726e-16 0)
(-1.1088e-20 -9.87725e-16 0)
(-1.06726e-20 -9.87723e-16 0)
(-1.01604e-20 -9.87722e-16 0)
(-9.54535e-21 -9.8772e-16 0)
(-8.81955e-21 -9.87718e-16 0)
(-7.97234e-21 -9.87717e-16 0)
(-6.99034e-21 -9.87715e-16 0)
(-5.8572e-21 -9.87713e-16 0)
(-4.55358e-21 -9.87712e-16 0)
(-3.05737e-21 -9.8771e-16 0)
(-1.34419e-21 -9.87708e-16 0)
(6.11681e-22 -9.87707e-16 0)
(2.83584e-21 -9.87705e-16 0)
(5.35176e-21 -9.87703e-16 0)
(8.1781e-21 -9.87702e-16 0)
(1.13257e-20 -9.877e-16 0)
(1.47945e-20 -9.87699e-16 0)
(6.223e-20 -5.33345e-15 0)
(-2.37643e-07 -2.51221e-05 0)
(1.17314e-07 -0.000499086 0)
(-5.27756e-22 -9.87744e-16 0)
(-1.5678e-21 -9.87743e-16 0)
(-2.57157e-21 -9.87743e-16 0)
(-3.52909e-21 -9.87743e-16 0)
(-4.43169e-21 -9.87742e-16 0)
(-5.27199e-21 -9.87742e-16 0)
(-6.04376e-21 -9.87741e-16 0)
(-6.74196e-21 -9.8774e-16 0)
(-7.36253e-21 -9.87739e-16 0)
(-7.9024e-21 -9.87738e-16 0)
(-8.35932e-21 -9.87737e-16 0)
(-8.73177e-21 -9.87736e-16 0)
(-9.01883e-21 -9.87735e-16 0)
(-9.22001e-21 -9.87734e-16 0)
(-9.33515e-21 -9.87733e-16 0)
(-9.36421e-21 -9.87732e-16 0)
(-9.30715e-21 -9.8773e-16 0)
(-9.1637e-21 -9.87729e-16 0)
(-8.93325e-21 -9.87728e-16 0)
(-8.61459e-21 -9.87727e-16 0)
(-8.2058e-21 -9.87725e-16 0)
(-7.70405e-21 -9.87724e-16 0)
(-7.10542e-21 -9.87723e-16 0)
(-6.40482e-21 -9.87722e-16 0)
(-5.59586e-21 -9.8772e-16 0)
(-4.67082e-21 -9.87719e-16 0)
(-3.62062e-21 -9.87718e-16 0)
(-2.435e-21 -9.87716e-16 0)
(-1.10262e-21 -9.87715e-16 0)
(3.88603e-22 -9.87714e-16 0)
(2.05121e-21 -9.87713e-16 0)
(3.89779e-21 -9.87712e-16 0)
(5.94079e-21 -9.87711e-16 0)
(8.19255e-21 -9.8771e-16 0)
(1.06661e-20 -9.87709e-16 0)
(1.3377e-20 -9.87709e-16 0)
(1.63473e-20 -9.87708e-16 0)
(6.83385e-20 -5.69072e-15 0)
(-1.02813e-07 -2.08384e-05 0)
(9.81087e-08 -0.000501843 0)
(-4.33419e-22 -9.87742e-16 0)
(-1.28706e-21 -9.87742e-16 0)
(-2.10949e-21 -9.87742e-16 0)
(-2.89169e-21 -9.87741e-16 0)
(-3.62577e-21 -9.87741e-16 0)
(-4.30499e-21 -9.87741e-16 0)
(-4.92364e-21 -9.8774e-16 0)
(-5.47699e-21 -9.87739e-16 0)
(-5.96118e-21 -9.87738e-16 0)
(-6.3732e-21 -9.87738e-16 0)
(-6.7107e-21 -9.87737e-16 0)
(-6.97195e-21 -9.87736e-16 0)
(-7.1557e-21 -9.87735e-16 0)
(-7.26107e-21 -9.87734e-16 0)
(-7.28745e-21 -9.87733e-16 0)
(-7.23433e-21 -9.87732e-16 0)
(-7.10122e-21 -9.87731e-16 0)
(-6.88752e-21 -9.8773e-16 0)
(-6.59241e-21 -9.87729e-16 0)
(-6.21474e-21 -9.87728e-16 0)
(-5.75294e-21 -9.87726e-16 0)
(-5.205e-21 -9.87725e-16 0)
(-4.56836e-21 -9.87724e-16 0)
(-3.84e-21 -9.87723e-16 0)
(-3.0164e-21 -9.87722e-16 0)
(-2.09369e-21 -9.87721e-16 0)
(-1.0678e-21 -9.8772e-16 0)
(6.53419e-23 -9.87719e-16 0)
(1.30949e-21 -9.87718e-16 0)
(2.66771e-21 -9.87717e-16 0)
(4.14201e-21 -9.87717e-16 0)
(5.73279e-21 -9.87716e-16 0)
(7.43834e-21 -9.87716e-16 0)
(9.25428e-21 -9.87715e-16 0)
(1.11729e-20 -9.87715e-16 0)
(1.31825e-20 -9.87715e-16 0)
(1.52658e-20 -9.87716e-16 0)
(6.33937e-20 -6.06763e-15 0)
(-5.0878e-09 -1.74507e-05 0)
(8.53825e-08 -0.000503065 0)
(-3.50997e-22 -9.87741e-16 0)
(-1.04178e-21 -9.87741e-16 0)
(-1.70579e-21 -9.87741e-16 0)
(-2.33483e-21 -9.8774e-16 0)
(-2.92173e-21 -9.8774e-16 0)
(-3.46033e-21 -9.8774e-16 0)
(-3.94536e-21 -9.87739e-16 0)
(-4.37244e-21 -9.87738e-16 0)
(-4.73796e-21 -9.87738e-16 0)
(-5.039e-21 -9.87737e-16 0)
(-5.27326e-21 -9.87736e-16 0)
(-5.43899e-21 -9.87736e-16 0)
(-5.53487e-21 -9.87735e-16 0)
(-5.5599e-21 -9.87734e-16 0)
(-5.51338e-21 -9.87733e-16 0)
(-5.39476e-21 -9.87732e-16 0)
(-5.20359e-21 -9.87731e-16 0)
(-4.93945e-21 -9.8773e-16 0)
(-4.60187e-21 -9.87729e-16 0)
(-4.19033e-21 -9.87728e-16 0)
(-3.70418e-21 -9.87727e-16 0)
(-3.14269e-21 -9.87727e-16 0)
(-2.50507e-21 -9.87726e-16 0)
(-1.79052e-21 -9.87725e-16 0)
(-9.98343e-22 -9.87724e-16 0)
(-1.28105e-22 -9.87723e-16 0)
(8.2018e-22 -9.87722e-16 0)
(1.8458e-21 -9.87722e-16 0)
(2.94701e-21 -9.87721e-16 0)
(4.12071e-21 -9.87721e-16 0)
(5.36193e-21 -9.8772e-16 0)
(6.66329e-21 -9.8772e-16 0)
(8.01431e-21 -9.8772e-16 0)
(9.40044e-21 -9.8772e-16 0)
(1.08018e-20 -9.8772e-16 0)
(1.21915e-20 -9.8772e-16 0)
(1.35327e-20 -9.8772e-16 0)
(5.57742e-20 -6.45662e-15 0)
(-8.76044e-11 -1.48652e-05 0)
(7.65623e-08 -0.000503591 0)
(-2.79335e-22 -9.8774e-16 0)
(-8.28539e-22 -9.8774e-16 0)
(-1.35485e-21 -9.8774e-16 0)
(-1.85083e-21 -9.8774e-16 0)
(-2.30994e-21 -9.87739e-16 0)
(-2.72657e-21 -9.87739e-16 0)
(-3.09589e-21 -9.87738e-16 0)
(-3.41386e-21 -9.87738e-16 0)
(-3.67714e-21 -9.87737e-16 0)
(-3.883e-21 -9.87737e-16 0)
(-4.0293e-21 -9.87736e-16 0)
(-4.11439e-21 -9.87735e-16 0)
(-4.13703e-21 -9.87735e-16 0)
(-4.09635e-21 -9.87734e-16 0)
(-3.99177e-21 -9.87733e-16 0)
(-3.82295e-21 -9.87732e-16 0)
(-3.58974e-21 -9.87732e-16 0)
(-3.29215e-21 -9.87731e-16 0)
(-2.9303e-21 -9.8773e-16 0)
(-2.50445e-21 -9.87729e-16 0)
(-2.01497e-21 -9.87729e-16 0)
(-1.46238e-21 -9.87728e-16 0)
(-8.47432e-22 -9.87727e-16 0)
(-1.71117e-22 -9.87726e-16 0)
(5.65173e-22 -9.87726e-16 0)
(1.35955e-21 -9.87725e-16 0)
(2.20948e-21 -9.87725e-16 0)
(3.1116e-21 -9.87724e-16 0)
(4.06152e-21 -9.87724e-16 0)
(5.05365e-21 -9.87723e-16 0)
(6.08094e-21 -9.87723e-16 0)
(7.13471e-21 -9.87723e-16 0)
(8.20451e-21 -9.87723e-16 0)
(9.27803e-21 -9.87723e-16 0)
(1.03413e-20 -9.87723e-16 0)
(1.13789e-20 -9.87723e-16 0)
(1.23755e-20 -9.87723e-16 0)
(5.30652e-20 -6.80263e-15 0)
(1.66689e-11 -1.27046e-05 0)
(6.7977e-08 -0.000503998 0)
(-2.17406e-22 -9.87739e-16 0)
(-6.44275e-22 -9.87739e-16 0)
(-1.05166e-21 -9.87739e-16 0)
(-1.4328e-21 -9.87739e-16 0)
(-1.78175e-21 -9.87739e-16 0)
(-2.0934e-21 -9.87738e-16 0)
(-2.36334e-21 -9.87738e-16 0)
(-2.58789e-21 -9.87737e-16 0)
(-2.76399e-21 -9.87737e-16 0)
(-2.88917e-21 -9.87736e-16 0)
(-2.96149e-21 -9.87736e-16 0)
(-2.97948e-21 -9.87735e-16 0)
(-2.94211e-21 -9.87735e-16 0)
(-2.8487e-21 -9.87734e-16 0)
(-2.69894e-21 -9.87733e-16 0)
(-2.49279e-21 -9.87733e-16 0)
(-2.23049e-21 -9.87732e-16 0)
(-1.91251e-21 -9.87732e-16 0)
(-1.5396e-21 -9.87731e-16 0)
(-1.11271e-21 -9.8773e-16 0)
(-6.33074e-22 -9.8773e-16 0)
(-1.02191e-22 -9.87729e-16 0)
(4.78112e-22 -9.87728e-16 0)
(1.10564e-21 -9.87728e-16 0)
(1.77777e-21 -9.87727e-16 0)
(2.49138e-21 -9.87727e-16 0)
(3.24277e-21 -9.87726e-16 0)
(4.02758e-21 -9.87726e-16 0)
(4.84075e-21 -9.87726e-16 0)
(5.67641e-21 -9.87726e-16 0)
(6.52788e-21 -9.87725e-16 0)
(7.38763e-21 -9.87725e-16 0)
(8.24734e-21 -9.87725e-16 0)
(9.09797e-21 -9.87725e-16 0)
(9.92994e-21 -9.87725e-16 0)
(1.07333e-20 -9.87725e-16 0)
(1.14979e-20 -9.87726e-16 0)
(5.01433e-20 -7.01492e-15 0)
(1.79838e-11 -1.08184e-05 0)
(6.0659e-08 -0.000504306 0)
(-1.64287e-22 -9.87739e-16 0)
(-4.86245e-22 -9.87739e-16 0)
(-7.917e-22 -9.87739e-16 0)
(-1.07451e-21 -9.87738e-16 0)
(-1.32928e-21 -9.87738e-16 0)
(-1.55136e-21 -9.87738e-16 0)
(-1.73675e-21 -9.87738e-16 0)
(-1.8821e-21 -9.87737e-16 0)
(-1.98465e-21 -9.87737e-16 0)
(-2.0422e-21 -9.87736e-16 0)
(-2.05303e-21 -9.87736e-16 0)
(-2.01589e-21 -9.87735e-16 0)
(-1.92998e-21 -9.87735e-16 0)
(-1.79487e-21 -9.87734e-16 0)
(-1.61048e-21 -9.87734e-16 0)
(-1.3771e-21 -9.87733e-16 0)
(-1.09531e-21 -9.87733e-16 0)
(-7.66039e-22 -9.87732e-16 0)
(-3.90483e-22 -9.87732e-16 0)
(2.9838e-23 -9.87731e-16 0)
(4.93093e-22 -9.87731e-16 0)
(9.97128e-22 -9.8773e-16 0)
(1.53945e-21 -9.8773e-16 0)
(2.11719e-21 -9.87729e-16 0)
(2.72715e-21 -9.87729e-16 0)
(3.36568e-21 -9.87728e-16 0)
(4.02879e-21 -9.87728e-16 0)
(4.71205e-21 -9.87728e-16 0)
(5.41065e-21 -9.87728e-16 0)