/*--------------------------------*- C++ -*----------------------------------*\
  =========                 |
  \\      /  F ield         | OpenFOAM: The Open Source CFD Toolbox
   \\    /   O peration     | Website:  https://openfoam.org
    \\  /    A nd           | Version:  10
     \\/     M anipulation  |
\*---------------------------------------------------------------------------*/
FoamFile
{
    format      ascii;
    class       volVectorField;
    location    "18";
    object      Ua;
}
// * * * * * * * * * * * * * * * * * * * * * * * * * * * * * * * * * * * * * //

dimensions      [0 1 -1 0 0 0 0];

internalField   nonuniform List<vector> 
100
(
(0.000201743 0 0)
(0.000402599 0 0)
(0.000400818 0 0)
(0.000399024 0 0)
(0.000397221 0 0)
(0.000395411 0 0)
(0.000393594 0 0)
(0.000391768 0 0)
(0.000389933 0 0)
(0.000388089 0 0)
(0.000386233 0 0)
(0.000384365 0 0)
(0.000382484 0 0)
(0.000380588 0 0)
(0.000378675 0 0)
(0.000376743 0 0)
(0.00037479 0 0)
(0.000372813 0 0)
(0.00037081 0 0)
(0.000368776 0 0)
(0.000366708 0 0)
(0.000364598 0 0)
(0.00036244 0 0)
(0.000360223 0 0)
(0.000357936 0 0)
(0.000355559 0 0)
(0.000353067 0 0)
(0.000350421 0 0)
(0.000347563 0 0)
(0.000344394 0 0)
(0.000340745 0 0)
(0.000336294 0 0)
(0.00033034 0 0)
(0.000320997 0 0)
(0.000300498 0 0)
(0.000196157 0 0)
(5.32245e-05 0 0)
(2.63012e-10 0 0)
(0 0 0)
(0 0 0)
(0 0 0)
(0 0 0)
(0 0 0)
(0 0 0)
(0 0 0)
(0 0 0)
(0 0 0)
(0 0 0)
(0 0 0)
(0 0 0)
(0 0 0)
(0 0 0)
(0 0 0)
(0 0 0)
(0 0 0)
(0 0 0)
(0 0 0)
(0 0 0)
(0 0 0)
(0 0 0)
(0 0 0)
(0 0 0)
(0 0 0)
(0 0 0)
(0 0 0)
(0 0 0)
(0 0 0)
(0 0 0)
(0 0 0)
(0 0 0)
(0 0 0)
(0 0 0)
(0 0 0)
(0 0 0)
(0 0 0)
(0 0 0)
(0 0 0)
(0 0 0)
(0 0 0)
(0 0 0)
(0 0 0)
(0 0 0)
(0 0 0)
(0 0 0)
(0 0 0)
(0 0 0)
(0 0 0)
(0 0 0)
(0 0 0)
(0 0 0)
(0 0 0)
(0 0 0)
(0 0 0)
(0 0 0)
(0 0 0)
(0 0 0)
(0 0 0)
(0 0 0)
(0 0 0)
(0 0 0)
)
;

boundaryField
{
    inlet
    {
        type            fixedValue;
        value           uniform (0 0 0);
    }
    outlet
    {
        type            zeroGradient;
    }
    yzfaces
    {
        type            empty;
    }
}


// ************************************************************************* //
