/*--------------------------------*- C++ -*----------------------------------*\
  =========                 |
  \\      /  F ield         | OpenFOAM: The Open Source CFD Toolbox
   \\    /   O peration     | Website:  https://openfoam.org
    \\  /    A nd           | Version:  10
     \\/     M anipulation  |
\*---------------------------------------------------------------------------*/
FoamFile
{
    format      ascii;
    class       surfaceScalarField;
    location    "3.6";
    object      phi;
}
// * * * * * * * * * * * * * * * * * * * * * * * * * * * * * * * * * * * * * //

dimensions      [0 3 -1 0 0 0 0];

internalField   nonuniform List<scalar> 
24170
(
-1.68659e-12
1.68659e-12
-3.76892e-12
2.08233e-12
-6.71215e-12
2.94323e-12
-1.10661e-11
4.35398e-12
-1.75324e-11
6.46623e-12
-2.70214e-11
9.48908e-12
-4.07015e-11
1.368e-11
-6.00317e-11
1.93302e-11
-8.67727e-11
2.6741e-11
-1.22966e-10
3.61935e-11
-1.70889e-10
4.79227e-11
-2.33022e-10
6.21327e-11
-3.12158e-10
7.91359e-11
-4.11979e-10
9.98213e-11
-5.39033e-10
1.27054e-10
-7.09439e-10
1.70406e-10
-9.76857e-10
2.67418e-10
6.20679e-10
-1.59754e-09
-1.78547e-12
3.47206e-12
-3.99038e-12
4.28724e-12
-7.10776e-12
6.0606e-12
-1.17206e-11
8.9668e-12
-1.8573e-11
1.33187e-11
-2.86319e-11
1.9548e-11
-4.31388e-11
2.81869e-11
-6.3647e-11
3.98384e-11
-9.20335e-11
5.51275e-11
-1.30478e-10
7.46377e-11
-1.81409e-10
9.8854e-11
-2.47458e-10
1.28182e-10
-3.31524e-10
1.63202e-10
-4.37233e-10
2.0553e-10
-5.70459e-10
2.60281e-10
-7.43466e-10
3.43413e-10
-9.82724e-10
5.06677e-10
9.2691e-10
-1.28895e-09
-1.86115e-12
5.33321e-12
-4.16074e-12
6.58683e-12
-7.41407e-12
9.31393e-12
-1.22309e-11
1.37837e-11
-1.93908e-11
2.04785e-11
-2.9908e-11
3.00652e-11
-4.50887e-11
4.33676e-11
-6.6572e-11
6.13217e-11
-9.6346e-11
8.49015e-11
-1.36726e-10
1.15018e-10
-1.90293e-10
1.5242e-10
-2.59805e-10
1.97695e-10
-3.48171e-10
2.51567e-10
-4.58618e-10
3.15977e-10
-5.95291e-10
3.96954e-10
-7.6375e-10
5.11871e-10
-9.63941e-10
7.06868e-10
1.08516e-09
-1.12219e-09
-1.90207e-12
7.23527e-12
-4.2544e-12
8.93916e-12
-7.58611e-12
1.26456e-11
-1.25242e-11
1.87217e-11
-1.98716e-11
2.78259e-11
-3.0677e-11
4.08705e-11
-4.6296e-11
5.89867e-11
-6.84397e-11
8.34654e-11
-9.91962e-11
1.15658e-10
-1.41012e-10
1.56834e-10
-1.96616e-10
2.08024e-10
-2.68882e-10
2.69961e-10
-3.60643e-10
3.43328e-10
-4.74463e-10
4.29797e-10
-6.1214e-10
5.34632e-10
-7.72313e-10
6.72043e-10
-9.38434e-10
8.72989e-10
1.18001e-09
-1.03329e-09
-1.89395e-12
9.12922e-12
-4.23978e-12
1.1285e-11
-7.56835e-12
1.59742e-11
-1.25099e-11
2.36633e-11
-1.98742e-11
3.51903e-11
-3.0724e-11
5.17203e-11
-4.64422e-11
7.47049e-11
-6.87889e-11
1.05812e-10
-9.99342e-11
1.46803e-10
-1.42446e-10
1.99345e-10
-1.99205e-10
2.64783e-10
-2.73204e-10
3.4396e-10
-3.67183e-10
4.37307e-10
-4.82957e-10
5.45571e-10
-6.19987e-10
6.71662e-10
-7.71568e-10
8.23624e-10
-9.14308e-10
1.01573e-09
1.25384e-09
-9.88133e-10
-1.81976e-12
1.0949e-11
-4.07917e-12
1.35444e-11
-7.29437e-12
1.91894e-11
-1.20798e-11
2.84487e-11
-1.92288e-11
4.23392e-11
-2.97894e-11
6.2281e-11
-4.51396e-11
9.00551e-11
-6.70548e-11
1.27727e-10
-9.77576e-11
1.77506e-10
-1.39922e-10
2.4151e-10
-1.9659e-10
3.21451e-10
-2.7092e-10
4.1829e-10
-3.65648e-10
5.32036e-10
-4.82032e-10
6.61955e-10
-6.17803e-10
8.07433e-10
-7.63205e-10
9.69026e-10
-8.94276e-10
1.1468e-09
1.32848e-09
-9.68914e-10
-1.65994e-12
1.26089e-11
-3.72922e-12
1.56137e-11
-6.68773e-12
2.21479e-11
-1.1109e-11
3.28699e-11
-1.77382e-11
4.89685e-11
-2.75707e-11
7.21134e-11
-4.1933e-11
1.04417e-10
-6.25666e-11
1.48361e-10
-9.17015e-11
2.06641e-10
-1.32092e-10
2.81901e-10
-1.8696e-10
3.76318e-10
-2.59729e-10
4.91059e-10
-3.53375e-10
6.25682e-10
-4.69103e-10
7.77683e-10
-6.04004e-10
9.42334e-10
-7.47538e-10
1.11256e-09
-8.78144e-10
1.2774e-09
1.41678e-09
-9.66445e-10
-1.39313e-12
1.4002e-11
-3.14258e-12
1.73631e-11
-5.66479e-12
2.46701e-11
-9.46011e-12
3.66653e-11
-1.51853e-11
5.46937e-11
-2.37307e-11
8.06589e-11
-3.63094e-11
1.16996e-10
-5.45579e-11
1.66609e-10
-8.06436e-11
2.32727e-10
-1.17355e-10
3.18613e-10
-1.68113e-10
4.27076e-10
-2.36763e-10
5.59709e-10
-3.26935e-10
7.15854e-10
-4.40623e-10
8.91371e-10
-5.75739e-10
1.07745e-09
-7.22958e-10
1.25978e-09
-8.63951e-10
1.4184e-09
1.5289e-09
-9.76078e-10
-9.97732e-13
1.49998e-11
-2.27128e-12
1.86367e-11
-4.14059e-12
2.65395e-11
-6.99327e-12
3.95179e-11
-1.13463e-11
5.90467e-11
-1.79189e-11
8.72315e-11
-2.77263e-11
1.26804e-10
-4.22e-11
1.81083e-10
-6.33382e-11
2.53865e-10
-9.38765e-11
3.49151e-10
-1.37426e-10
4.70625e-10
-1.98444e-10
6.20727e-10
-2.81778e-10
7.99188e-10
-3.91385e-10
1.00098e-09
-5.2787e-10
1.21394e-09
-6.8513e-10
1.41704e-09
-8.4808e-10
1.58135e-09
1.67641e-09
-9.95587e-10
-4.54469e-13
1.54542e-11
-1.07251e-12
1.92547e-11
-2.0391e-12
2.7506e-11
-3.58235e-12
4.10612e-11
-6.01745e-12
6.14818e-11
-9.80922e-12
9.10232e-11
-1.56659e-11
1.3266e-10
-2.46748e-11
1.90092e-10
-3.85015e-11
2.67692e-10
-5.96655e-11
3.70315e-10
-9.18772e-11
5.02837e-10
-1.40338e-10
6.69187e-10
-2.11743e-10
8.70593e-10
-3.13491e-10
1.10273e-09
-4.51379e-10
1.35182e-09
-6.25341e-10
1.591e-09
-8.2427e-10
1.78028e-09
1.87628e-09
-1.02414e-09
2.49518e-13
1.52047e-11
4.82303e-13
1.90219e-11
6.90656e-13
2.72977e-11
8.58274e-13
4.08936e-11
9.43267e-13
6.13968e-11
8.35206e-13
9.11313e-11
2.7044e-13
1.33225e-10
-1.30768e-12
1.9167e-10
-4.9872e-12
2.71371e-10
-1.2779e-11
3.78107e-10
-2.82115e-11
5.18269e-10
-5.71301e-11
6.98106e-10
-1.08535e-10
9.21998e-10
-1.94896e-10
1.18909e-09
-3.30676e-10
1.4876e-09
-5.26975e-10
1.7873e-09
-7.80697e-10
2.034e-09
2.1574e-09
-1.06182e-09
8.77531e-13
1.43272e-11
1.88078e-12
1.80187e-11
3.17278e-12
2.60057e-11
4.94452e-12
3.91218e-11
7.43048e-12
5.89108e-11
1.08977e-11
8.76641e-11
1.55916e-11
1.28531e-10
2.16354e-11
1.85626e-10
2.88229e-11
2.64184e-10
3.62248e-11
3.70705e-10
4.14862e-11
5.13008e-10
3.96759e-11
6.99916e-10
2.16099e-11
9.40064e-10
-2.80691e-11
1.23877e-09
-1.31727e-10
1.59126e-09
-3.14917e-10
1.97049e-09
-5.91498e-10
2.31058e-09
2.49967e-09
-9.33777e-10
1.87602e-12
1.24512e-11
4.07904e-12
1.58157e-11
7.01855e-12
2.30662e-11
1.11841e-11
3.49562e-11
1.72088e-11
5.28862e-11
2.58982e-11
7.89747e-11
3.82012e-11
1.16228e-10
5.51451e-11
1.68683e-10
7.76444e-11
2.41684e-10
1.06051e-10
3.42298e-10
1.39218e-10
4.79841e-10
1.72694e-10
6.6644e-10
1.95522e-10
9.17236e-10
1.85215e-10
1.24907e-09
1.01673e-10
1.6748e-09
-1.14771e-10
2.18693e-09
-5.24855e-10
2.72066e-09
3.09331e-09
-1.11849e-09
3.37211e-12
9.07906e-12
7.37553e-12
1.18123e-11
1.27935e-11
1.76482e-11
2.05695e-11
2.71802e-11
3.19586e-11
4.14971e-11
4.86411e-11
6.22922e-11
7.27388e-11
9.21302e-11
1.06877e-10
1.34544e-10
1.54145e-10
1.94416e-10
2.17799e-10
2.78644e-10
3.00399e-10
3.97242e-10
4.01684e-10
5.65155e-10
5.13835e-10
8.05084e-10
6.11591e-10
1.15132e-09
6.33544e-10
1.65285e-09
4.53152e-10
2.36733e-09
-1.41145e-10
3.31496e-09
4.29047e-09
-1.33831e-09
5.4034e-12
3.67566e-12
1.18486e-11
5.3671e-12
2.06273e-11
8.8694e-12
3.32888e-11
1.45187e-11
5.19495e-11
2.28364e-11
7.95878e-11
3.46539e-11
1.20065e-10
5.16531e-11
1.78501e-10
7.61078e-11
2.61663e-10
1.11255e-10
3.7835e-10
1.61956e-10
5.39644e-10
2.35948e-10
7.58461e-10
3.46338e-10
1.04677e-09
5.16778e-10
1.40551e-09
7.92573e-10
1.79304e-09
1.26532e-09
2.0312e-09
2.12917e-09
1.53359e-09
3.81257e-09
7.2931e-09
-1.46904e-09
7.72747e-12
-4.05181e-12
1.69457e-11
-3.85117e-12
2.95302e-11
-3.71507e-12
4.76307e-11
-3.58175e-12
7.42724e-11
-3.80535e-12
1.14168e-10
-5.24164e-12
1.732e-10
-7.37936e-12
2.5953e-10
-1.02217e-11
3.84672e-10
-1.38875e-11
5.65224e-10
-1.85949e-11
8.25872e-10
-2.47e-11
1.20497e-09
-3.27634e-11
1.76542e-09
-4.36694e-11
2.61683e-09
-5.88378e-11
3.96276e-09
-8.06042e-11
6.20484e-09
-1.12914e-10
1.018e-08
-1.62638e-10
-2.42325e-10
1.77155e-08
2.94734e-07
2.04542e-07
2.27396e-07
6.73338e-08
2.02678e-07
2.47144e-08
1.9385e-07
8.824e-09
1.92392e-07
1.45513e-09
1.93669e-07
-1.2827e-09
1.96502e-07
-2.84079e-09
2.00733e-07
-4.24041e-09
2.06278e-07
-5.55904e-09
2.13149e-07
-6.88946e-09
2.21449e-07
-8.32494e-09
2.31382e-07
-9.96542e-09
2.43269e-07
-1.1931e-08
2.5759e-07
-1.43803e-08
2.75046e-07
-1.75362e-08
2.96651e-07
-2.17184e-08
3.2387e-07
-2.73808e-08
-3.51255e-08
3.58753e-07
1.023e-07
1.02243e-07
1.09059e-07
6.05747e-08
1.0021e-07
3.35629e-08
9.09322e-08
1.81021e-08
8.32495e-08
9.13791e-09
7.82012e-08
3.76559e-09
7.51505e-08
2.09883e-10
7.30608e-08
-2.15075e-09
7.16055e-08
-4.10371e-09
7.05835e-08
-5.86741e-09
6.98173e-08
-7.55877e-09
6.91027e-08
-9.25088e-09
6.81546e-08
-1.09828e-08
6.65306e-08
-1.27563e-08
6.35158e-08
-1.45214e-08
5.79449e-08
-1.61476e-08
4.79435e-08
-1.73793e-08
-1.77714e-08
3.05894e-08
4.83414e-08
5.39011e-08
6.91776e-08
3.97385e-08
7.59104e-08
2.68301e-08
7.68254e-08
1.7187e-08
7.55995e-08
1.03639e-08
7.38236e-08
5.54148e-09
7.20085e-08
2.02505e-09
7.04534e-08
-5.95673e-10
6.89043e-08
-2.55467e-09
6.72385e-08
-4.20159e-09
6.53047e-08
-5.62499e-09
6.29243e-08
-6.87044e-09
5.98924e-08
-7.9509e-09
5.59889e-08
-8.85279e-09
5.10081e-08
-9.54064e-09
4.48237e-08
-9.9632e-09
3.75085e-08
-1.00641e-08
-9.80177e-09
2.95389e-08
1.92251e-08
3.46761e-08
3.12779e-08
2.76857e-08
3.77899e-08
2.03181e-08
4.09351e-08
1.40417e-08
4.21925e-08
9.10655e-09
4.24122e-08
5.3217e-09
4.20289e-08
2.40837e-09
4.13062e-08
1.27028e-10
4.02992e-08
-1.54765e-09
3.90117e-08
-2.91415e-09
3.74327e-08
-4.04594e-09
3.55389e-08
-4.97667e-09
3.33081e-08
-5.7201e-09
3.07322e-08
-6.27681e-09
2.78319e-08
-6.64033e-09
2.46725e-08
-6.80383e-09
2.13755e-08
-6.76711e-09
-6.54371e-09
1.81174e-08
1.10772e-08
2.35989e-08
1.91372e-08
1.96257e-08
2.43534e-08
1.51018e-08
2.74653e-08
1.09298e-08
2.91531e-08
7.41882e-09
2.98969e-08
4.57789e-09
2.99977e-08
2.30753e-09
2.96328e-08
4.91989e-10
2.897e-08
-8.84876e-10
2.80256e-08
-1.96971e-09
2.68279e-08
-2.84832e-09
2.53983e-08
-3.54706e-09
2.37593e-08
-4.08108e-09
2.19415e-08
-4.45896e-09
1.99882e-08
-4.68704e-09
1.79575e-08
-4.77318e-09
1.59202e-08
-4.72978e-09
-4.57541e-09
1.39519e-08
7.06182e-09
1.6537e-08
1.26062e-08
1.40813e-08
1.65509e-08
1.11572e-08
1.91585e-08
8.32219e-09
2.07504e-08
5.82699e-09
2.15951e-08
3.73315e-09
2.18879e-08
2.01475e-09
2.17619e-08
6.17933e-10
2.1347e-08
-4.69921e-10
2.06874e-08
-1.3101e-09
1.98231e-08
-1.98403e-09
1.87878e-08
-2.51175e-09
1.76138e-08
-2.9071e-09
1.63354e-08
-3.18054e-09
1.49901e-08
-3.34172e-09
1.36183e-08
-3.40141e-09
1.22612e-08
-3.37266e-09
-3.27099e-09
1.09567e-08
4.81059e-09
1.17264e-08
8.75659e-09
1.01353e-08
1.17266e-08
8.1871e-09
1.38134e-08
6.23543e-09
1.51758e-08
4.46463e-09
1.59685e-08
2.94041e-09
1.63182e-08
1.66506e-09
1.63214e-08
6.14735e-10
1.60729e-08
-2.21468e-10
1.56224e-08
-8.59546e-10
1.50083e-08
-1.36996e-09
1.4264e-08
-1.76747e-09
1.34203e-08
-2.06334e-09
1.25068e-08
-2.26708e-09
1.15529e-08
-2.38782e-09
1.05868e-08
-2.43535e-09
9.63469e-09
-2.42051e-09
-2.35508e-09
8.71879e-09
3.429e-09
8.29745e-09
6.31996e-09
7.24435e-09
8.57607e-09
5.93099e-09
1.02257e-08
4.5858e-09
1.13512e-08
3.33918e-09
1.20452e-08
2.2464e-09
1.23915e-08
1.31869e-09
1.24597e-08
5.46511e-10
1.23181e-08
-7.983e-11
1.20124e-08
-5.53826e-10
1.15759e-08
-9.33423e-10
1.10375e-08
-1.22907e-09
1.04234e-08
-1.44929e-09
9.75795e-09
-1.60162e-09
9.06361e-09
-1.69348e-09
8.36089e-09
-1.73263e-09
7.66774e-09
-1.72735e-09
-1.68625e-09
6.9989e-09
2.52147e-09
5.77598e-09
4.68656e-09
5.07926e-09
6.41824e-09
4.1993e-09
7.72003e-09
3.28402e-09
8.63632e-09
2.42289e-09
9.22489e-09
1.65783e-09
9.54257e-09
1.00101e-09
9.63964e-09
4.4944e-10
9.56516e-09
-5.34526e-12
9.35821e-09
-3.46881e-10
9.04617e-09
-6.21385e-10
8.65298e-09
-8.35882e-10
8.20006e-09
-9.96362e-10
7.70678e-09
-1.10834e-09
7.19059e-09
-1.17729e-09
6.6669e-09
-1.20894e-09
6.14879e-09
-1.20924e-09
-1.1843e-09
5.64684e-09
1.89204e-09
3.88394e-09
3.53759e-09
3.43371e-09
4.87692e-09
2.85997e-09
5.90432e-09
2.25662e-09
6.64455e-09
1.68265e-09
7.13487e-09
1.16751e-09
7.41461e-09
7.21276e-10
7.52041e-09
3.43635e-10
7.48545e-09
2.96152e-11
7.34652e-09
-2.07948e-10
7.1229e-09
-3.97761e-10
6.83382e-09
-5.46803e-10
6.49647e-09
-6.59014e-10
6.12625e-09
-7.38116e-10
5.73682e-09
-7.87863e-10
5.34004e-09
-8.12168e-10
4.94591e-09
-8.15104e-10
-8.00795e-10
4.5624e-09
1.43474e-09
2.4492e-09
2.69423e-09
2.17422e-09
3.73266e-09
1.82154e-09
4.54159e-09
1.44769e-09
5.13517e-09
1.08908e-09
5.53803e-09
7.64642e-10
5.77778e-09
4.81525e-10
5.88111e-09
2.40312e-10
5.87217e-09
3.85528e-11
5.77945e-09
-1.15224e-10
5.61879e-09
-2.371e-10
5.40534e-09
-3.33359e-10
5.15268e-09
-4.06349e-10
4.87292e-09
-4.58358e-10
4.57679e-09
-4.91733e-10
4.27356e-09
-5.08944e-10
3.97102e-09
-5.12564e-10
-5.05192e-10
3.67542e-09
1.08735e-09
1.36186e-09
2.04863e-09
1.21294e-09
2.84911e-09
1.02106e-09
3.48037e-09
8.16432e-10
3.95057e-09
6.18876e-10
4.27623e-09
4.38975e-10
4.47678e-09
2.80983e-10
4.57154e-09
1.45551e-10
4.57846e-09
3.16301e-11
4.51828e-09
-5.50478e-11
4.40396e-09
-1.22777e-10
4.24723e-09
-1.76623e-10
4.05868e-09
-2.178e-10
3.84785e-09
-2.47528e-10
3.62319e-09
-2.67074e-10
3.39202e-09
-2.77774e-10
3.16047e-09
-2.81013e-10
-2.78188e-10
2.93346e-09
8.08252e-10
5.53606e-10
1.52679e-09
4.94399e-10
2.13e-09
4.17849e-10
2.6106e-09
3.35831e-10
2.97326e-09
2.56222e-10
3.22892e-09
1.83314e-10
3.39099e-09
1.18913e-10
3.47316e-09
6.33855e-11
3.48835e-09
1.64346e-11
3.4512e-09
-1.78989e-11
3.37207e-09
-4.36482e-11
3.25996e-09
-6.4507e-11
3.12305e-09
-8.08918e-11
2.96871e-09
-9.31876e-11
2.80342e-09
-1.01781e-10
2.63272e-09
-1.0708e-10
2.46123e-09
-1.09525e-10
-1.09573e-10
2.29262e-09
5.53606e-10
1.048e-09
1.46585e-09
1.80168e-09
2.05791e-09
2.24122e-09
2.36013e-09
2.42352e-09
2.43995e-09
2.42205e-09
2.37841e-09
2.3139e-09
2.23301e-09
2.13982e-09
2.03804e-09
1.93096e-09
1.82143e-09
1.71186e-09
-2.61463e-11
2.61463e-11
-5.24329e-11
2.62866e-11
-7.88189e-11
2.6386e-11
-1.05262e-10
2.64432e-11
-1.31719e-10
2.64571e-11
-1.58146e-10
2.64267e-11
-1.84497e-10
2.63514e-11
-2.10728e-10
2.62307e-11
-2.36793e-10
2.60646e-11
-2.62646e-10
2.58531e-11
-2.88243e-10
2.55968e-11
-3.13539e-10
2.52964e-11
-3.38492e-10
2.49528e-11
-3.63059e-10
2.45673e-11
-3.87201e-10
2.41414e-11
-4.10877e-10
2.36768e-11
-4.34053e-10
2.31755e-11
-4.56692e-10
2.26395e-11
-4.78764e-10
2.20712e-11
-5.00237e-10
2.1473e-11
-5.21084e-10
2.08475e-11
-5.41281e-10
2.01973e-11
-5.60806e-10
1.95251e-11
-5.7964e-10
1.88336e-11
-5.97766e-10
1.81256e-11
-6.15169e-10
1.74038e-11
-6.3184e-10
1.6671e-11
-6.4777e-10
1.59299e-11
-6.62953e-10
1.51829e-11
-6.77386e-10
1.44327e-11
-6.91068e-10
1.36816e-11
-7.04e-10
1.29321e-11
-7.16186e-10
1.21861e-11
-7.27632e-10
1.14459e-11
-7.38345e-10
1.07132e-11
-7.48335e-10
9.98999e-12
-7.57613e-10
9.27781e-12
-7.66191e-10
8.57818e-12
-7.74083e-10
7.89242e-12
-7.81305e-10
7.22178e-12
-7.87872e-10
6.56732e-12
-7.93802e-10
5.92997e-12
-7.99113e-10
5.31053e-12
-8.03822e-10
4.70972e-12
-8.07951e-10
4.12805e-12
-8.11517e-10
3.56599e-12
-8.1454e-10
3.02388e-12
-8.17042e-10
2.50194e-12
-8.19043e-10
2.00031e-12
-8.20562e-10
1.51906e-12
-8.2162e-10
1.05814e-12
-8.22237e-10
6.17463e-13
-8.22434e-10
1.9684e-13
-8.2223e-10
-2.03932e-13
-8.21645e-10
-5.8517e-13
-8.20698e-10
-9.472e-13
-8.19407e-10
-1.29038e-12
-8.17792e-10
-1.61516e-12
-8.1587e-10
-1.92195e-12
-8.13659e-10
-2.21125e-12
-8.11176e-10
-2.48355e-12
-8.08436e-10
-2.73935e-12
-8.05457e-10
-2.97919e-12
-8.02253e-10
-3.20362e-12
-7.9884e-10
-3.41315e-12
-7.95232e-10
-3.60836e-12
-7.91442e-10
-3.78979e-12
-7.87484e-10
-3.95797e-12
-7.83371e-10
-4.11345e-12
-7.79114e-10
-4.25679e-12
-7.74725e-10
-4.38847e-12
-7.70216e-10
-4.50904e-12
-7.65597e-10
-4.61901e-12
-7.60879e-10
-4.71885e-12
-7.56069e-10
-4.80905e-12
-7.51179e-10
-4.89007e-12
-7.46217e-10
-4.96237e-12
-7.41191e-10
-5.02636e-12
-7.36108e-10
-5.08249e-12
-7.30977e-10
-5.13112e-12
-7.25804e-10
-5.17265e-12
-7.20597e-10
-5.20745e-12
-7.15361e-10
-5.23585e-12
-7.10103e-10
-5.25817e-12
-7.04828e-10
-5.27473e-12
-6.99542e-10
-5.28582e-12
-6.94251e-10
-5.29169e-12
-6.88958e-10
-5.29262e-12
-6.83669e-10
-5.28882e-12
-6.78389e-10
-5.28051e-12
-6.73121e-10
-5.2679e-12
-6.6787e-10
-5.25114e-12
-6.62639e-10
-5.23041e-12
-6.57433e-10
-5.20583e-12
-6.52256e-10
-5.17755e-12
-6.4711e-10
-5.14565e-12
-6.42e-10
-5.11023e-12
-6.36929e-10
-5.07137e-12
-6.319e-10
-5.02911e-12
-6.26916e-10
-4.9835e-12
-6.21982e-10
-4.93455e-12
-6.17099e-10
-4.8823e-12
-6.12273e-10
-4.82672e-12
-6.07505e-10
-4.76784e-12
-6.02799e-10
-4.7056e-12
-5.98159e-10
-4.64002e-12
-5.93588e-10
-4.57104e-12
-5.89089e-10
-4.49865e-12
-5.84667e-10
-4.42283e-12
-5.80323e-10
-4.34355e-12
-5.76062e-10
-4.26083e-12
-5.71887e-10
-4.17467e-12
-5.67802e-10
-4.0851e-12
-5.6381e-10
-3.99219e-12
-5.59914e-10
-3.89601e-12
-5.56117e-10
-3.79671e-12
-5.52423e-10
-3.69442e-12
-5.48834e-10
-3.58938e-12
-5.45352e-10
-3.48182e-12
-5.4198e-10
-3.37206e-12
-5.38719e-10
-3.26045e-12
-5.35572e-10
-3.14742e-12
-5.32538e-10
-3.03343e-12
-5.29619e-10
-2.91904e-12
-5.26815e-10
-2.80484e-12
-5.24123e-10
-2.6915e-12
-5.21543e-10
-2.57977e-12
-5.19073e-10
-2.47046e-12
-5.16708e-10
-2.36446e-12
-5.14446e-10
-2.26275e-12
-5.12279e-10
-2.16639e-12
-5.10203e-10
-2.07659e-12
-5.08208e-10
-1.9946e-12
-5.06286e-10
-1.92187e-12
-5.04426e-10
-1.85998e-12
-5.02616e-10
-1.81069e-12
-5.0084e-10
-1.77594e-12
-4.99082e-10
-1.75794e-12
-4.97323e-10
-1.75916e-12
-4.9554e-10
-1.78235e-12
-4.93709e-10
-1.83067e-12
-4.91802e-10
-1.90766e-12
-4.89784e-10
-2.01734e-12
-4.8762e-10
-2.16428e-12
-4.85267e-10
-2.35364e-12
-4.82675e-10
-2.5913e-12
-4.79791e-10
-2.88392e-12
-4.76552e-10
-3.23907e-12
-4.72887e-10
-3.66529e-12
-4.68715e-10
-4.17225e-12
-4.63944e-10
-4.77084e-12
-4.58471e-10
-5.47329e-12
-4.52177e-10
-6.29333e-12
-4.44931e-10
-7.2462e-12
-4.36582e-10
-8.34885e-12
-4.26962e-10
-9.61988e-12
-4.15883e-10
-1.10796e-11
-4.03133e-10
-1.27499e-11
-3.88479e-10
-1.4654e-11
-3.71662e-10
-1.68163e-11
-3.52401e-10
-1.92615e-11
-3.30387e-10
-2.2014e-11
-3.05291e-10
-2.50965e-11
-2.76762e-10
-2.85288e-11
-2.44437e-10
-3.23252e-11
-2.07944e-10
-3.64923e-11
-1.66919e-10
-4.10254e-11
-1.21014e-10
-4.59045e-11
-6.99243e-11
-5.10901e-11
-1.3407e-11
-5.65173e-11
4.86838e-11
-6.20908e-11
1.16362e-10
-6.7678e-11
1.89464e-10
-7.31026e-11
2.67599e-10
-7.81349e-11
3.50076e-10
-8.24766e-11
4.35802e-10
-8.57265e-11
5.23088e-10
-8.7286e-11
6.09138e-10
-8.60497e-11
6.8825e-10
-7.91114e-11
-5.43393e-11
7.42589e-10
-2.63281e-11
5.24744e-11
-5.27962e-11
5.27547e-11
-7.93627e-11
5.29524e-11
-1.05984e-10
5.30647e-11
-1.32616e-10
5.30891e-11
-1.59213e-10
5.30239e-11
-1.8573e-10
5.28678e-11
-2.12119e-10
5.262e-11
-2.38335e-10
5.22804e-11
-2.64331e-10
5.18493e-11
-2.90062e-10
5.13278e-11
-3.15483e-10
5.07172e-11
-3.4055e-10
5.00198e-11
-3.6522e-10
4.9238e-11
-3.89454e-10
4.83751e-11
-4.13212e-10
4.74346e-11
-4.36457e-10
4.64204e-11
-4.59154e-10
4.5337e-11
-4.81272e-10
4.4189e-11
-5.0278e-10
4.29814e-11
-5.23652e-10
4.17193e-11
-5.43863e-10
4.04082e-11
-5.63392e-10
3.90536e-11
-5.82219e-10
3.76609e-11
-6.00329e-10
3.62357e-11
-6.17709e-10
3.47836e-11
-6.34348e-10
3.33101e-11
-6.50239e-10
3.18204e-11
-6.65376e-10
3.03199e-11
-6.79756e-10
2.88135e-11
-6.93381e-10
2.73061e-11
-7.06251e-10
2.58023e-11
-7.18371e-10
2.43064e-11
-7.29748e-10
2.28225e-11
-7.40389e-10
2.13545e-11
-7.50305e-10
1.99059e-11
-7.59507e-10
1.84799e-11
-7.68009e-10
1.70794e-11
-7.75823e-10
1.57073e-11
-7.82967e-10
1.43658e-11
-7.89457e-10
1.3057e-11
-7.9531e-10
1.17829e-11
-8.00544e-10
1.05449e-11
-8.05179e-10
9.34437e-12
-8.09233e-10
8.18246e-12
-8.12727e-10
7.05997e-12
-8.15681e-10
5.97757e-12
-8.18115e-10
4.93567e-12
-8.20049e-10
3.93456e-12
-8.21504e-10
2.97427e-12
-8.22501e-10
2.05476e-12
-8.23059e-10
1.17579e-12
-8.23199e-10
3.36973e-13
-8.22941e-10
-4.62138e-13
-8.22304e-10
-1.22216e-12
-8.21308e-10
-1.94375e-12
-8.1997e-10
-2.62771e-12
-8.18311e-10
-3.27484e-12
-8.16347e-10
-3.88609e-12
-8.14095e-10
-4.46239e-12
-8.11574e-10
-5.00473e-12
-8.08799e-10
-5.51416e-12
-8.05787e-10
-5.99174e-12
-8.02552e-10
-6.43854e-12
-7.99109e-10
-6.85566e-12
-7.95474e-10
-7.24418e-12
-7.91658e-10
-7.60523e-12
-7.87676e-10
-7.93986e-12
-7.83541e-10
-8.2492e-12
-7.79263e-10
-8.53428e-12
-7.74855e-10
-8.79619e-12
-7.70328e-10
-9.03592e-12
-7.65693e-10
-9.25451e-12
-7.60959e-10
-9.45295e-12
-7.56136e-10
-9.63217e-12
-7.51233e-10
-9.79311e-12
-7.46258e-10
-9.93666e-12
-7.41221e-10
-1.00637e-11
-7.36129e-10
-1.0175e-11
-7.30988e-10
-1.02714e-11
-7.25807e-10
-1.03537e-11
-7.20592e-10
-1.04226e-11
-7.15349e-10
-1.04787e-11
-7.10085e-10
-1.05227e-11
-7.04804e-10
-1.05552e-11
-6.99513e-10
-1.05769e-11
-6.94217e-10
-1.05881e-11
-6.8892e-10
-1.05896e-11
-6.83627e-10
-1.05815e-11
-6.78343e-10
-1.05646e-11
-6.73072e-10
-1.0539e-11
-6.67818e-10
-1.05052e-11
-6.62585e-10
-1.04634e-11
-6.57377e-10
-1.0414e-11
-6.52197e-10
-1.03572e-11
-6.47049e-10
-1.02933e-11
-6.41937e-10
-1.02223e-11
-6.36864e-10
-1.01444e-11
-6.31834e-10
-1.00597e-11
-6.26849e-10
-9.96839e-12
-6.21913e-10
-9.87042e-12
-6.17029e-10
-9.76582e-12
-6.12201e-10
-9.65461e-12
-6.07432e-10
-9.53677e-12
-6.02726e-10
-9.41225e-12
-5.98085e-10
-9.28102e-12
-5.93513e-10
-9.14301e-12
-5.89013e-10
-8.99818e-12
-5.8459e-10
-8.84648e-12
-5.80245e-10
-8.68787e-12
-5.75984e-10
-8.52235e-12
-5.71809e-10
-8.34995e-12
-5.67723e-10
-8.17071e-12
-5.6373e-10
-7.98478e-12
-5.59834e-10
-7.79229e-12
-5.56037e-10
-7.59353e-12
-5.52343e-10
-7.3888e-12
-5.48754e-10
-7.17851e-12
-5.45272e-10
-6.96319e-12
-5.41901e-10
-6.74343e-12
-5.38642e-10
-6.51997e-12
-5.35495e-10
-6.29363e-12
-5.32463e-10
-6.06537e-12
-5.29546e-10
-5.83627e-12
-5.26743e-10
-5.60755e-12
-5.24054e-10
-5.38053e-12
-5.21477e-10
-5.15671e-12
-5.1901e-10
-4.93771e-12
-5.16649e-10
-4.72531e-12
-5.14391e-10
-4.52147e-12
-5.12229e-10
-4.32833e-12
-5.10157e-10
-4.14824e-12
-5.08168e-10
-3.98377e-12
-5.06252e-10
-3.83778e-12
-5.04399e-10
-3.71343e-12
-5.02595e-10
-3.6142e-12
-5.00827e-10
-3.54404e-12
-4.99078e-10
-3.50728e-12
-4.97328e-10
-3.50887e-12
-4.95556e-10
-3.55434e-12
-4.93737e-10
-3.64996e-12
-4.91841e-10
-3.80279e-12
-4.89838e-10
-4.02088e-12
-4.87689e-10
-4.31332e-12
-4.85352e-10
-4.69045e-12
-4.82779e-10
-5.164e-12
-4.79916e-10
-5.74728e-12
-4.767e-10
-6.45538e-12
-4.7306e-10
-7.3054e-12
-4.68915e-10
-8.31663e-12
-4.64175e-10
-9.51084e-12
-4.58736e-10
-1.09125e-11
-4.5248e-10
-1.25491e-11
-4.45275e-10
-1.4451e-11
-4.36972e-10
-1.66523e-11
-4.27402e-10
-1.91901e-11
-4.16376e-10
-2.21051e-11
-4.03685e-10
-2.54411e-11
-3.89094e-10
-2.92449e-11
-3.72345e-10
-3.35652e-11
-3.53155e-10
-3.84517e-11
-3.31216e-10
-4.39535e-11
-3.06195e-10
-5.01167e-11
-2.77743e-10
-5.69809e-11
-2.45493e-10
-6.45756e-11
-2.09071e-10
-7.29145e-11
-1.68107e-10
-8.1989e-11
-1.22251e-10
-9.17602e-11
-7.11919e-11
-1.0215e-10
-1.46807e-11
-1.13029e-10
4.74357e-11
-1.24207e-10
1.15179e-10
-1.35422e-10
1.88397e-10
-1.4632e-10
2.66708e-10
-1.56446e-10
3.49441e-10
-1.65209e-10
4.3554e-10
-1.71825e-10
5.23412e-10
-1.75159e-10
6.10617e-10
-1.73254e-10
6.93258e-10
-1.61752e-10
-1.28069e-10
7.66987e-10
-2.66963e-11
7.91707e-11
-5.35322e-11
7.95907e-11
-8.0464e-11
7.98842e-11
-1.07446e-10
8.00468e-11
-1.34432e-10
8.00749e-11
-1.61374e-10
7.99659e-11
-1.88224e-10
7.97178e-11
-2.14934e-10
7.93297e-11
-2.41455e-10
7.88015e-11
-2.67739e-10
7.81339e-11
-2.9374e-10
7.73286e-11
-3.19411e-10
7.63881e-11
-3.44707e-10
7.53159e-11
-3.69585e-10
7.4116e-11
-3.94004e-10
7.27934e-11
-4.17923e-10
7.13539e-11
-4.41306e-10
6.98035e-11
-4.64118e-10
6.81493e-11
-4.86328e-10
6.63984e-11
-5.07905e-10
6.45585e-11
-5.28823e-10
6.26378e-11
-5.49059e-10
6.06444e-11
-5.68593e-10
5.85867e-11
-5.87405e-10
5.64733e-11
-6.05482e-10
5.43126e-11
-6.22811e-10
5.2113e-11
-6.39384e-10
4.98828e-11
-6.55194e-10
4.76301e-11
-6.70237e-10
4.53628e-11
-6.84511e-10
4.30884e-11
-6.98019e-10
4.08141e-11
-7.10764e-10
3.85469e-11
-7.22751e-10
3.62932e-11
-7.33988e-10
3.40592e-11
-7.44483e-10
3.18504e-11
-7.5425e-10
2.96721e-11
-7.63299e-10
2.75291e-11
-7.71645e-10
2.54258e-11
-7.79304e-10
2.3366e-11
-7.86291e-10
2.13533e-11
-7.92625e-10
1.93907e-11
-7.98323e-10
1.74809e-11
-8.03404e-10
1.56262e-11
-8.07888e-10
1.38284e-11
-8.11795e-10
1.20892e-11
-8.15145e-10
1.04096e-11
-8.17958e-10
8.79064e-12
-8.20255e-10
7.23284e-12
-8.22057e-10
5.73653e-12
-8.23384e-10
4.30176e-12
-8.24258e-10
2.92833e-12
-8.24698e-10
1.61585e-12
-8.24725e-10
3.63741e-13
-8.24358e-10
-8.28784e-13
-8.23618e-10
-1.96264e-12
-8.22523e-10
-3.0389e-12
-8.21092e-10
-4.05874e-12
-8.19343e-10
-5.02345e-12
-8.17295e-10
-5.93443e-12
-8.14964e-10
-6.7931e-12
-8.12368e-10
-7.601e-12
-8.09522e-10
-8.35969e-12
-8.06443e-10
-9.07078e-12
-8.03146e-10
-9.73589e-12
-7.99645e-10
-1.03567e-11
-7.95954e-10
-1.09347e-11
-7.92088e-10
-1.14718e-11
-7.88058e-10
-1.19695e-11
-7.83878e-10
-1.24293e-11
-7.79559e-10
-1.28531e-11
-7.75113e-10
-1.32422e-11
-7.70551e-10
-1.35983e-11
-7.65882e-10
-1.39229e-11
-7.61118e-10
-1.42174e-11
-7.56267e-10
-1.44833e-11
-7.51338e-10
-1.4722e-11
-7.4634e-10
-1.49347e-11
-7.41281e-10
-1.51228e-11
-7.36168e-10
-1.52875e-11
-7.31009e-10
-1.543e-11
-7.25812e-10
-1.55515e-11
-7.20581e-10
-1.56529e-11
-7.15325e-10
-1.57354e-11
-7.10047e-10
-1.57999e-11
-7.04755e-10
-1.58473e-11
-6.99454e-10
-1.58784e-11
-6.94148e-10
-1.58941e-11
-6.88842e-10
-1.58951e-11
-6.83542e-10
-1.5882e-11
-6.78251e-10
-1.58556e-11
-6.72973e-10
-1.58164e-11
-6.67714e-10
-1.57649e-11
-6.62475e-10
-1.57016e-11
-6.57263e-10
-1.5627e-11
-6.52079e-10
-1.55412e-11
-6.46927e-10
-1.54448e-11
-6.41811e-10
-1.53379e-11
-6.36735e-10
-1.52207e-11
-6.31701e-10
-1.50934e-11
-6.26714e-10
-1.49561e-11
-6.21775e-10
-1.48089e-11
-6.16889e-10
-1.46518e-11
-6.12059e-10
-1.44848e-11
-6.07288e-10
-1.43079e-11
-6.02579e-10
-1.4121e-11
-5.97936e-10
-1.3924e-11
-5.93363e-10
-1.37168e-11
-5.88861e-10
-1.34995e-11
-5.84436e-10
-1.32718e-11
-5.8009e-10
-1.30337e-11
-5.75827e-10
-1.27853e-11
-5.71651e-10
-1.25264e-11
-5.67564e-10
-1.22573e-11
-5.63571e-10
-1.19781e-11
-5.59674e-10
-1.16891e-11
-5.55877e-10
-1.13906e-11
-5.52183e-10
-1.10831e-11
-5.48594e-10
-1.07672e-11
-5.45113e-10
-1.04437e-11
-5.41743e-10
-1.01134e-11
-5.38486e-10
-9.77761e-12
-5.35342e-10
-9.43743e-12
-5.32313e-10
-9.09431e-12
-5.29399e-10
-8.7499e-12
-5.26601e-10
-8.40599e-12
-5.23917e-10
-8.06462e-12
-5.21346e-10
-7.72799e-12
-5.18885e-10
-7.39854e-12
-5.16531e-10
-7.07896e-12
-5.1428e-10
-6.77216e-12
-5.12127e-10
-6.48135e-12
-5.10066e-10
-6.21005e-12
-5.08087e-10
-5.96212e-12
-5.06183e-10
-5.74181e-12
-5.04343e-10
-5.55383e-12
-5.02554e-10
-5.40343e-12
-5.00801e-10
-5.29646e-12
-4.99069e-10
-5.23945e-12
-4.97338e-10
-5.23976e-12
-4.95587e-10
-5.30566e-12
-4.9379e-10
-5.44651e-12
-4.9192e-10
-5.67291e-12
-4.89944e-10
-5.99685e-12
-4.87826e-10
-6.43195e-12
-4.85522e-10
-6.99368e-12
-4.82987e-10
-7.69957e-12
-4.80164e-10
-8.56956e-12
-4.76994e-10
-9.62625e-12
-4.73404e-10
-1.08952e-11
-4.69315e-10
-1.24053e-11
-4.64637e-10
-1.41893e-11
-4.59265e-10
-1.62837e-11
-4.53085e-10
-1.87297e-11
-4.45963e-10
-2.15732e-11
-4.3775e-10
-2.48649e-11
-4.28279e-10
-2.86609e-11
-4.17362e-10
-3.30222e-11
-4.04788e-10
-3.80149e-11
-3.90324e-10
-4.37093e-11
-3.7371e-10
-5.0179e-11
-3.54663e-10
-5.74991e-11
-3.32872e-10
-6.5744e-11
-3.08005e-10
-7.49837e-11
-2.79707e-10
-8.52791e-11
-2.47607e-10
-9.66756e-11
-2.11326e-10
-1.09196e-10
-1.70487e-10
-1.22828e-10
-1.2473e-10
-1.37517e-10
-7.37331e-11
-1.53146e-10
-1.72357e-11
-1.69526e-10
4.49301e-11
-1.86373e-10
1.12803e-10
-2.03294e-10
1.86247e-10
-2.19765e-10
2.64907e-10
-2.35106e-10
3.48144e-10
-2.48446e-10
4.34968e-10
-2.58649e-10
5.23941e-10
-2.64133e-10
6.13088e-10
-2.62401e-10
7.00099e-10
-2.48763e-10
-2.13319e-10
7.85349e-10
-2.72605e-11
1.06431e-10
-5.466e-11
1.0699e-10
-8.21515e-11
1.07376e-10
-1.09686e-10
1.07581e-10
-1.37213e-10
1.07602e-10
-1.64682e-10
1.07435e-10
-1.92041e-10
1.07077e-10
-2.19239e-10
1.06528e-10
-2.46225e-10
1.05787e-10
-2.72948e-10
1.04857e-10
-2.99358e-10
1.03739e-10
-3.25408e-10
1.02438e-10
-3.5105e-10
1.00958e-10
-3.7624e-10
9.93058e-11
-4.00935e-10
9.74886e-11
-4.25095e-10
9.55143e-11
-4.48684e-10
9.33918e-11
-4.71665e-10
9.11308e-11
-4.94008e-10
8.87414e-11
-5.15684e-10
8.62346e-11
-5.36668e-10
8.36213e-11
-5.56936e-10
8.0913e-11
-5.76471e-10
7.81211e-11
-5.95255e-10
7.52575e-11
-6.13276e-10
7.23335e-11
-6.30523e-10
6.93606e-11
-6.46991e-10
6.63499e-11
-6.62673e-10
6.33125e-11
-6.77569e-10
6.02587e-11
-6.91679e-10
5.71987e-11
-7.05007e-10
5.41421e-11
-7.17558e-10
5.10981e-11
-7.2934e-10
4.80752e-11
-7.40362e-10
4.50813e-11
-7.50636e-10
4.2124e-11
-7.60174e-10
3.92101e-11
-7.68991e-10
3.63457e-11
-7.77102e-10
3.35366e-11
-7.84523e-10
3.07878e-11
-7.91274e-10
2.81037e-11
-7.97371e-10
2.54883e-11
-8.02835e-10
2.29449e-11
-8.07686e-10
2.04765e-11
-8.11943e-10
1.80853e-11
-8.15627e-10
1.57733e-11
-8.18759e-10
1.35419e-11
-8.21361e-10
1.13922e-11
-8.23453e-10
9.32473e-12
-8.25056e-10
7.33985e-12
-8.26192e-10
5.43748e-12
-8.26881e-10
3.61729e-12
-8.27143e-10
1.87863e-12
-8.27e-10
2.20626e-13
-8.26471e-10
-1.35785e-12
-8.25576e-10
-2.85808e-12
-8.24333e-10
-4.28157e-12
-8.22762e-10
-5.62995e-12
-8.2088e-10
-6.905e-12
-8.18706e-10
-8.10859e-12
-8.16256e-10
-9.24272e-12
-8.13548e-10
-1.03094e-11
-8.10597e-10
-1.13108e-11
-8.07419e-10
-1.22491e-11
-8.04028e-10
-1.31264e-11
-8.0044e-10
-1.39449e-11
-7.96668e-10
-1.47069e-11
-7.92725e-10
-1.54146e-11
-7.88624e-10
-1.60701e-11
-7.84378e-10
-1.66757e-11
-7.79997e-10
-1.72334e-11
-7.75494e-10
-1.77454e-11
-7.70879e-10
-1.82136e-11
-7.66162e-10
-1.86402e-11
-7.61352e-10
-1.90271e-11
-7.56459e-10
-1.93762e-11
-7.51492e-10
-1.96892e-11
-7.46459e-10
-1.9968e-11
-7.41367e-10
-2.02144e-11
-7.36225e-10
-2.04298e-11
-7.31039e-10
-2.06159e-11
-7.25816e-10
-2.07741e-11
-7.20563e-10
-2.0906e-11
-7.15286e-10
-2.10128e-11
-7.0999e-10
-2.10959e-11
-7.04681e-10
-2.11564e-11
-6.99364e-10
-2.11954e-11
-6.94044e-10
-2.1214e-11
-6.88725e-10
-2.12133e-11
-6.83413e-10
-2.1194e-11
-6.78112e-10
-2.11571e-11
-6.72825e-10
-2.11033e-11
-6.67557e-10
-2.10332e-11
-6.62311e-10
-2.09476e-11
-6.57091e-10
-2.08469e-11
-6.51901e-10
-2.07316e-11
-6.46743e-10
-2.06021e-11
-6.41622e-10
-2.04588e-11
-6.36541e-10
-2.03018e-11
-6.31503e-10
-2.01315e-11
-6.26511e-10
-1.9948e-11
-6.21569e-10
-1.97513e-11
-6.16679e-10
-1.95414e-11
-6.11846e-10
-1.93184e-11