/*--------------------------------*- C++ -*----------------------------------*\
  =========                 |
  \\      /  F ield         | OpenFOAM: The Open Source CFD Toolbox
   \\    /   O peration     | Website:  https://openfoam.org
    \\  /    A nd           | Version:  10
     \\/     M anipulation  |
\*---------------------------------------------------------------------------*/
FoamFile
{
    format      ascii;
    class       surfaceScalarField;
    location    "20750";
    object      phi;
}
// * * * * * * * * * * * * * * * * * * * * * * * * * * * * * * * * * * * * * //

dimensions      [0 3 -1 0 0 0 0];

internalField   nonuniform List<scalar> 
6280
(
-3.35258e-07
3.35258e-07
-6.83916e-07
3.48658e-07
-1.06748e-06
3.83563e-07
-1.51445e-06
4.46976e-07
-2.06803e-06
5.53575e-07
-2.80017e-06
7.32143e-07
-3.83971e-06
1.03953e-06
-5.43075e-06
1.59105e-06
-8.05815e-06
2.6274e-06
-1.27227e-05
4.66458e-06
-1.95136e-05
6.79083e-06
-2.066e-05
1.14639e-06
-2.10625e-05
4.0252e-07
-2.13363e-05
2.7387e-07
-2.15431e-05
2.068e-07
-2.17066e-05
1.635e-07
-2.18397e-05
1.33097e-07
-2.19505e-05
1.1071e-07
-2.20441e-05
9.36772e-08
-2.21245e-05
8.03864e-08
-2.21943e-05
6.97999e-08
-2.22555e-05
6.12215e-08
-2.23097e-05
5.41673e-08
-2.2358e-05
4.82915e-08
-2.24013e-05
4.33421e-08
-2.24405e-05
3.91308e-08
-2.24341e-05
-6.32585e-09
-2.21255e-05
-3.08662e-07
-2.17852e-05
-3.40329e-07
-2.14562e-05
-3.28926e-07
-2.11321e-05
-3.24139e-07
-2.07837e-05
-3.48389e-07
-2.03628e-05
-4.20856e-07
-1.97956e-05
-5.67227e-07
-1.89682e-05
-8.27378e-07
-1.77035e-05
-1.26474e-06
-1.57234e-05
-1.98007e-06
-1.25896e-05
-3.13384e-06
-7.60116e-06
-4.98843e-06
-6.65313e-06
-9.48027e-07
-2.93908e-07
6.29166e-07
-5.92816e-07
6.47566e-07
-9.06109e-07
6.96855e-07
-1.24168e-06
7.82545e-07
-1.60304e-06
9.14942e-07
-1.98072e-06
1.10982e-06
-2.32907e-06
1.38789e-06
-2.50691e-06
1.76888e-06
-2.1278e-06
2.24829e-06
-1.87765e-07
2.72454e-06
3.81129e-06
2.79177e-06
3.10701e-06
1.85067e-06
2.25345e-06
1.25609e-06
1.60457e-06
9.22747e-07
1.08028e-06
7.31085e-07
6.22762e-07
6.21022e-07
1.92579e-07
5.6328e-07
-2.41404e-07
5.44694e-07
-7.09615e-07
5.61889e-07
-1.24865e-06
6.19419e-07
-1.9098e-06
7.30951e-07
-2.77225e-06
9.23675e-07
-3.96559e-06
1.2475e-06
-5.70992e-06
1.79262e-06
-8.38882e-06
2.72224e-06
-1.26689e-05
4.31924e-06
-1.524e-05
2.56473e-06
-1.57716e-05
2.2298e-07
-1.62803e-05
1.68359e-07
-1.67506e-05
1.41322e-07
-1.71957e-05
1.20959e-07
-1.76485e-05
1.04495e-07
-1.81603e-05
9.08609e-08
-1.88068e-05
7.93191e-08
-1.97034e-05
6.92487e-08
-2.10282e-05
6.00541e-08
-2.30594e-05
5.10674e-08
-2.62345e-05
4.12724e-08
-2.05706e-05
-1.06523e-05
-2.67447e-05
-4.78992e-07
-2.30758e-07
8.59924e-07
-4.58107e-07
8.74915e-07
-6.80817e-07
9.19565e-07
-8.93341e-07
9.9507e-07
-1.08207e-06
1.10367e-06
-1.21926e-06
1.24701e-06
-1.25423e-06
1.42286e-06
-1.10437e-06
1.61902e-06
-6.59477e-07
1.8034e-06
1.52079e-07
1.91299e-06
1.08546e-06
1.85839e-06
1.3274e-06
1.60873e-06
1.23227e-06
1.35121e-06
1.00818e-06
1.14683e-06
7.37899e-07
1.00137e-06
4.51909e-07
9.07013e-07
1.59809e-07
8.5538e-07
-1.36399e-07
8.40901e-07
-4.35768e-07
8.61258e-07
-7.33365e-07
9.17016e-07
-1.01327e-06
1.01085e-06
-1.23556e-06
1.14597e-06
-1.31053e-06
1.32247e-06
-1.04688e-06
1.52898e-06
-4.87088e-08
1.72407e-06
2.47434e-06
1.79619e-06
3.55637e-06
1.4827e-06
2.73448e-06
1.04487e-06
2.12205e-06
7.80789e-07
1.64699e-06
6.16376e-07
1.2573e-06
5.10646e-07
9.20594e-07
4.41205e-07
6.15849e-07
3.95606e-07
3.28249e-07
3.66919e-07
4.59934e-08
3.51504e-07
-2.4193e-07
3.47977e-07
-5.47754e-07
3.56892e-07
-8.40644e-07
3.34162e-07
-1.07868e-05
-7.06202e-07
-4.07776e-05
3.24607e-06
-1.66204e-07
1.02613e-06
-3.24807e-07
1.03352e-06
-4.69926e-07
1.06468e-06
-5.92784e-07
1.11793e-06
-6.80145e-07
1.19103e-06
-7.1315e-07
1.28001e-06
-6.67761e-07
1.37747e-06
-5.19508e-07
1.47076e-06
-2.57135e-07
1.54103e-06
9.04446e-08
1.56541e-06
4.22528e-07
1.52631e-06
6.01659e-07
1.4296e-06
6.39736e-07
1.31314e-06
5.82301e-07
1.20427e-06
4.67619e-07
1.11605e-06
3.21749e-07
1.05288e-06
1.62039e-07
1.01509e-06
1.45204e-09
1.00149e-06
-1.47697e-07
1.01041e-06
-2.70496e-07
1.03982e-06
-3.46428e-07
1.08678e-06
-3.46865e-07
1.14641e-06
-2.34587e-07
1.21019e-06
3.02128e-08
1.26418e-06
4.66476e-07
1.28781e-06
1.00629e-06
1.25637e-06
1.33431e-06
1.15468e-06
1.36052e-06
1.01867e-06
1.249e-06
8.92308e-07
1.07733e-06
7.88049e-07
8.81223e-07
7.0675e-07
6.76732e-07
6.45697e-07
4.70766e-07
6.01572e-07
2.66287e-07
5.71398e-07
6.51093e-08
5.52682e-07
-1.3012e-07
5.43207e-07
-3.1384e-07
5.40612e-07
-5.21306e-07
5.41628e-07
2.78999e-08
-1.25541e-06
-4.07957e-05
4.60368e-08
-1.11658e-07
1.13779e-06
-2.15234e-07
1.13709e-06
-3.04348e-07
1.1538e-06
-3.71655e-07
1.18523e-06
-4.08632e-07
1.22801e-06
-4.06118e-07
1.2775e-06
-3.56107e-07
1.32746e-06
-2.55312e-07
1.36997e-06
-1.1048e-07
1.3962e-06
5.64571e-08
1.39847e-06
2.0915e-07
1.37362e-06
3.12606e-07
1.32615e-06
3.58401e-07
1.26734e-06
3.54502e-07
1.20817e-06
3.14333e-07
1.15622e-06
2.51495e-07
1.11572e-06
1.78224e-07
1.08836e-06
1.0556e-07
1.07415e-06
4.40288e-08
1.07194e-06
4.2493e-09
1.07959e-06
-2.95806e-09
1.09399e-06
3.25807e-08
1.11087e-06
1.18002e-07
1.12477e-06
2.52865e-07
1.12932e-06
4.22501e-07
1.11817e-06
5.9186e-07
1.08701e-06
7.10022e-07
1.03651e-06
7.54222e-07
9.74466e-07
7.35926e-07
9.10603e-07
6.72517e-07
8.51458e-07
5.78823e-07
8.00444e-07
4.65593e-07
7.58927e-07
3.39992e-07
7.27174e-07
2.06404e-07
7.04987e-07
6.69817e-08
6.92104e-07
-7.82876e-08
6.88476e-07
-2.32207e-07
6.94531e-07
-4.01918e-07
7.1134e-07
4.09405e-08
-1.69827e-06
-4.07916e-05
3.68322e-08
-7.02113e-08
1.208e-06
-1.33708e-07
1.20059e-06
-1.85308e-07
1.2054e-06
-2.19975e-07
1.2199e-06
-2.33019e-07
1.24105e-06
-2.2072e-07
1.2652e-06
-1.8142e-07
1.28816e-06
-1.16963e-07
1.30551e-06
-3.40044e-08
1.31324e-06
5.5806e-08
1.30866e-06
1.38027e-07
1.29139e-06
2.00375e-07
1.2638e-06
2.3748e-07
1.23024e-06
2.50253e-07
1.19539e-06
2.43408e-07
1.16307e-06
2.23363e-07
1.13577e-06
1.96999e-07
1.11472e-06
1.71052e-07
1.1001e-06
1.51814e-07
1.09118e-06
1.4487e-07
1.08654e-06
1.54668e-07
1.08419e-06
1.8381e-07
1.08173e-06
2.32065e-07
1.07651e-06
2.95303e-07
1.06608e-06
3.64897e-07
1.04858e-06
4.28554e-07
1.02336e-06
4.73692e-07
9.91375e-07
4.9307e-07
9.55089e-07
4.86147e-07
9.17527e-07
4.56262e-07
8.81344e-07
4.08242e-07
8.48463e-07
3.47073e-07
8.20096e-07
2.7735e-07
7.96897e-07
2.03192e-07
7.79145e-07
1.28409e-07
7.66887e-07
5.68488e-08
7.60036e-07
-7.03724e-09
7.58417e-07
-5.70456e-08
7.61348e-07
3.47479e-08
-1.79006e-06
-4.07608e-05
3.99759e-09
-4.04965e-08
1.24849e-06
-7.61047e-08
1.2362e-06
-1.03118e-07
1.23241e-06
-1.18363e-07
1.23515e-06
-1.19414e-07
1.2421e-06
-1.04959e-07
1.25075e-06
-7.52596e-08
1.25846e-06
-3.25581e-08
1.26281e-06
1.88089e-08
1.26187e-06
7.28717e-08
1.2546e-06
1.23213e-07
1.24105e-06
1.64603e-07
1.22241e-06
1.94254e-07
1.20059e-06
2.11944e-07
1.1777e-06
2.19409e-07
1.1556e-06
2.19587e-07
1.13559e-06
2.15955e-07
1.11836e-06
2.12039e-07
1.10401e-06
2.11047e-07
1.09217e-06
2.15551e-07
1.08203e-06
2.27189e-07
1.07256e-06
2.46361e-07
1.06255e-06
2.72002e-07
1.05087e-06
3.01506e-07
1.03658e-06
3.30969e-07
1.01912e-06
3.55866e-07
9.98461e-07
3.72105e-07
9.75135e-07
3.77099e-07
9.50095e-07
3.70134e-07
9.24491e-07
3.52055e-07
8.99422e-07
3.24739e-07
8.75779e-07
2.90647e-07
8.54188e-07
2.52541e-07
8.35003e-07
2.13351e-07
8.18334e-07
1.76169e-07
8.04069e-07
1.44319e-07
7.91886e-07
1.21496e-07
7.8124e-07
1.12007e-07
7.70838e-07
2.0402e-08
-1.69846e-06
-4.07156e-05
-2.47865e-08
-1.97237e-08
1.26822e-06
-3.61834e-08
1.25266e-06
-4.68991e-08
1.24313e-06
-4.99354e-08
1.23818e-06
-4.40483e-08
1.23622e-06
-2.8851e-08
1.23555e-06
-4.95624e-09
1.23457e-06
2.59767e-08
1.23188e-06
6.13732e-08
1.22648e-06
9.81042e-08
1.21787e-06
1.33047e-07
1.20611e-06
1.63691e-07
1.19176e-06
1.88566e-07
1.17571e-06
2.07336e-07
1.15893e-06
2.20622e-07
1.14231e-06
2.2971e-07
1.1265e-06
2.36224e-07
1.11184e-06
2.41835e-07
1.0984e-06
2.48025e-07
1.08598e-06
2.55883e-07
1.07418e-06
2.65957e-07
1.06248e-06
2.78158e-07
1.05035e-06
2.91741e-07
1.03729e-06
3.05383e-07
1.02293e-06
3.17388e-07
1.00711e-06
3.25985e-07
9.89864e-07
3.29673e-07
9.71447e-07
3.2751e-07
9.52258e-07
3.19235e-07
9.32767e-07
3.05229e-07
9.13427e-07
2.86391e-07
8.94618e-07
2.63973e-07
8.76605e-07
2.3945e-07
8.59526e-07
2.14394e-07
8.4339e-07
1.90378e-07
8.28085e-07
1.68876e-07
8.13388e-07
1.51137e-07
7.98978e-07
1.38121e-07
7.83854e-07
8.83181e-09
-1.56917e-06
-4.06658e-05
-4.10298e-08
-5.19783e-09
1.27342e-06
-8.36689e-09
1.25583e-06
-7.90565e-09
1.24266e-06
-2.64388e-09
1.23292e-06
8.07279e-09
1.2255e-06
2.43198e-08
1.2193e-06
4.55726e-08
1.21331e-06
7.07533e-08
1.2067e-06
9.8364e-08
1.19887e-06
1.26704e-07
1.18953e-06
1.54135e-07
1.17868e-06
1.79338e-07
1.16656e-06
2.01477e-07
1.15357e-06
2.20244e-07
1.14017e-06
2.35801e-07
1.12676e-06
2.48649e-07
1.11365e-06
2.5947e-07
1.10102e-06
2.68978e-07
1.08889e-06
2.77787e-07
1.07717e-06
2.86307e-07
1.06566e-06
2.94677e-07
1.05411e-06
3.02744e-07
1.04229e-06
3.10077e-07
1.02996e-06
3.16037e-07
1.01697e-06
3.19878e-07
1.00327e-06
3.2088e-07
9.88862e-07
3.1847e-07
9.73857e-07
3.12318e-07
9.5841e-07
3.02383e-07
9.42701e-07
2.88908e-07
9.26902e-07
2.72371e-07
9.11155e-07
2.53421e-07
8.95555e-07
2.32807e-07
8.80141e-07
2.11293e-07
8.64903e-07
1.89591e-07
8.49787e-07
1.68273e-07
8.34706e-07
1.47691e-07
8.19561e-07
1.28036e-07
8.03509e-07
-9.53354e-10
-1.44018e-06
-4.06171e-05
-4.96491e-08
5.17882e-09
1.26824e-06
1.15165e-08
1.24949e-06
2.00293e-08
1.23415e-06
3.14283e-08
1.22152e-06
4.60727e-08
1.21086e-06
6.39511e-08
1.20142e-06
8.46957e-08
1.19257e-06
1.07637e-07
1.18376e-06
1.31895e-07
1.17461e-06
1.56508e-07
1.16491e-06
1.80557e-07
1.15463e-06
2.03285e-07
1.14383e-06
2.24169e-07
1.13269e-06
2.42941e-07
1.12139e-06
2.59562e-07
1.11014e-06
2.7416e-07
1.09905e-06
2.8696e-07
1.08822e-06
2.98206e-07
1.07765e-06
3.08094e-07
1.06728e-06
3.16725e-07
1.05703e-06
3.24078e-07
1.04676e-06
3.30002e-07
1.03636e-06
3.34239e-07
1.02572e-06
3.36457e-07
1.01476e-06
3.36303e-07
1.00342e-06
3.33459e-07
9.91707e-07
3.2769e-07
9.79627e-07
3.18883e-07
9.67217e-07
3.07065e-07
9.54519e-07
2.924e-07
9.41567e-07
2.75172e-07
9.28383e-07
2.55758e-07
9.14969e-07
2.3459e-07
9.01309e-07
2.12122e-07
8.87371e-07
1.88794e-07
8.73116e-07
1.64995e-07
8.58505e-07
1.41044e-07
8.43512e-07
1.17329e-07
8.27223e-07
-4.79077e-09
-1.31806e-06
-4.05714e-05
-5.04372e-08
1.28779e-08
1.25536e-06
2.63247e-08
1.23604e-06
4.09823e-08
1.21949e-06
5.72883e-08
1.20522e-06
7.54505e-08
1.19269e-06
9.54434e-08
1.18143e-06
1.17027e-07
1.17098e-06
1.3979e-07
1.16099e-06
1.63203e-07
1.15119e-06
1.86697e-07
1.14142e-06
2.09721e-07
1.13161e-06
2.31803e-07
1.12175e-06
2.52585e-07
1.11191e-06
2.7183e-07
1.10215e-06
2.89414e-07
1.09255e-06
3.05295e-07
1.08317e-06
3.19478e-07
1.07404e-06
3.3198e-07
1.06515e-06
3.42798e-07
1.05646e-06
3.51885e-07
1.04794e-06
3.59142e-07
1.0395e-06
3.64413e-07
1.03109e-06
3.67504e-07
1.02263e-06
3.68194e-07
1.01407e-06
3.66267e-07
1.00535e-06
3.61533e-07
9.96441e-07
3.53852e-07
9.87307e-07
3.43156e-07
9.77913e-07
3.29452e-07
9.68223e-07
3.12832e-07
9.58187e-07
2.93468e-07
9.47748e-07
2.71603e-07
9.36834e-07
2.47545e-07
9.25367e-07
2.21651e-07
9.13264e-07
1.94318e-07
9.00449e-07
1.65962e-07
8.86861e-07
1.3701e-07
8.72464e-07
1.08027e-07
8.56206e-07
-7.66673e-09
-1.20236e-06
-4.05281e-05
-5.10518e-08
1.88728e-08
1.23649e-06
3.79198e-08
1.217e-06
5.75505e-08
1.19986e-06
7.80407e-08
1.18473e-06
9.95183e-08
1.17122e-06
1.21964e-07
1.15899e-06
1.45227e-07
1.14772e-06
1.69051e-07
1.13717e-06
1.93111e-07
1.12713e-06
2.17051e-07
1.11748e-06
2.40522e-07
1.10813e-06
2.63207e-07
1.09907e-06
2.84841e-07
1.09027e-06
3.05216e-07
1.08177e-06
3.24177e-07
1.07359e-06
3.41606e-07
1.06574e-06
3.57408e-07
1.05824e-06
3.71492e-07
1.05106e-06
3.83756e-07
1.0442e-06
3.94076e-07
1.03762e-06
4.02303e-07
1.03128e-06
4.0826e-07
1.02513e-06
4.11751e-07
1.01914e-06
4.1257e-07
1.01325e-06
4.10512e-07
1.00741e-06
4.05385e-07
1.00157e-06
3.97024e-07
9.95668e-07
3.85301e-07
9.89636e-07
3.70135e-07
9.83388e-07
3.51502e-07
9.7682e-07
3.29443e-07
9.69807e-07
3.04072e-07
9.62205e-07
2.75592e-07
9.53847e-07
2.44306e-07
9.44551e-07
2.10625e-07
9.34131e-07
1.75079e-07
9.22407e-07
1.38311e-07
9.09232e-07
1.01207e-07
8.9331e-07
-9.71757e-09
-1.09144e-06
-4.04858e-05
-5.19583e-08
2.37823e-08
1.2127e-06
4.74748e-08
1.1933e-06
7.13468e-08
1.17599e-06
9.55802e-08
1.16049e-06
1.20262e-07
1.14653e-06
1.45383e-07
1.13386e-06
1.70852e-07
1.12225e-06
1.9651e-07
1.11151e-06
2.22152e-07
1.10149e-06
2.47548e-07
1.09209e-06
2.72462e-07
1.08322e-06
2.96673e-07
1.07485e-06
3.19976e-07
1.06697e-06
3.4219e-07
1.05956e-06
3.63158e-07
1.05262e-06
3.82735e-07
1.04617e-06
4.00784e-07
1.04019e-06
4.17166e-07
1.03468e-06
4.31731e-07
1.02964e-06
4.44313e-07
1.02504e-06
4.54728e-07
1.02086e-06
4.62772e-07
1.01709e-06
4.68221e-07
1.01369e-06
4.70836e-07
1.01063e-06
4.70366e-07
1.00788e-06
4.66553e-07
1.00538e-06
4.59135e-07
1.00309e-06
4.47854e-07
1.00092e-06
4.32459e-07
9.98783e-07
4.1272e-07
9.96559e-07
3.88436e-07
9.94091e-07
3.59464e-07
9.91177e-07
3.25744e-07
9.87567e-07
2.87351e-07
9.82943e-07
2.44562e-07
9.7692e-07
1.97931e-07
9.69038e-07
1.48379e-07
9.58784e-07
9.7433e-08
9.44256e-07
-1.10196e-08
-9.82987e-07
-4.04434e-05
-5.34742e-08
2.79867e-08
1.18472e-06
5.57054e-08
1.16559e-06
8.33446e-08
1.14835e-06
1.11035e-07
1.1328e-06
1.38845e-07
1.11873e-06
1.66779e-07
1.10593e-06
1.94787e-07
1.09424e-06
2.22773e-07
1.08353e-06
2.50608e-07
1.07366e-06
2.78142e-07
1.06455e-06
3.05214e-07
1.05615e-06
3.31663e-07
1.04841e-06
3.57333e-07
1.0413e-06
3.82073e-07
1.03482e-06
4.05738e-07
1.02896e-06
4.28184e-07
1.02372e-06
4.49266e-07
1.01911e-06
4.68831e-07
1.01512e-06
4.86714e-07
1.01175e-06
5.02736e-07
1.00901e-06
5.16695e-07
1.0069e-06
5.28369e-07
1.00541e-06
5.3751e-07
1.00455e-06
5.43845e-07
1.0043e-06
5.47069e-07
1.00465e-06
5.46847e-07
1.0056e-06
5.42803e-07
1.00713e-06
5.34521e-07
1.0092e-06
5.21531e-07
1.01177e-06
5.03309e-07
1.01478e-06
4.79267e-07
1.01813e-06
4.48754e-07
1.02169e-06
4.11072e-07
1.02525e-06
3.65515e-07
1.0285e-06
3.11465e-07
1.03097e-06
2.48591e-07
1.03191e-06
1.77246e-07
1.03013e-06
9.94326e-08
1.02207e-06
-1.07881e-08
-8.72766e-07
-4.0397e-05
-5.71383e-08
3.17093e-08
1.15301e-06
6.30286e-08
1.13427e-06
9.41046e-08
1.11728e-06
1.25044e-07
1.10186e-06
1.55911e-07
1.08786e-06
1.86726e-07
1.07511e-06
2.17472e-07
1.0635e-06
2.48098e-07
1.0529e-06
2.78527e-07
1.04323e-06
3.08667e-07
1.03441e-06
3.38411e-07
1.0264e-06
3.67647e-07
1.01917e-06
3.9626e-07
1.01269e-06
4.24131e-07
1.00695e-06
4.51142e-07
1.00195e-06
4.77168e-07
9.97695e-07
5.02079e-07
9.94195e-07
5.25734e-07
9.9146e-07
5.47982e-07
9.89504e-07
5.68651e-07
9.88344e-07
5.87554e-07
9.87999e-07
6.04479e-07
9.8849e-07
6.19185e-07
9.89842e-07
6.314e-07
9.92082e-07
6.40813e-07
9.9524e-07
6.47064e-07
9.99353e-07
6.49734e-07
1.00446e-06
6.48328e-07
1.01061e-06
6.42251e-07
1.01785e-06
6.30776e-07
1.02626e-06
6.1299e-07
1.03592e-06
5.87728e-07
1.04695e-06
5.53442e-07
1.05953e-06
5.08022e-07
1.07392e-06
4.48482e-07
1.09051e-06
3.70445e-07
1.10995e-06
2.67276e-07
1.1333e-06
1.28957e-07
1.16039e-06
-1.84887e-09
-7.4196e-07
-4.03214e-05
-7.74677e-08
3.50709e-08
1.11794e-06
6.96673e-08
1.09967e-06
1.03919e-07
1.08302e-06
1.37928e-07
1.06785e-06
1.71763e-07
1.05402e-06
2.05463e-07
1.04141e-06
2.3904e-07
1.02992e-06
2.72478e-07
1.01946e-06
3.05746e-07
1.00996e-06
3.38793e-07
1.00137e-06
3.71558e-07
9.93639e-07
4.03973e-07
9.86754e-07
4.35963e-07
9.80697e-07
4.67447e-07
9.75464e-07
4.9834e-07
9.71056e-07
5.2855e-07
9.67485e-07
5.57981e-07
9.64765e-07
5.86525e-07
9.62916e-07
6.14064e-07
9.61965e-07
6.40468e-07
9.6194e-07
6.6559e-07
9.62877e-07
6.89266e-07
9.64814e-07
7.11309e-07
9.67799e-07
7.31507e-07
9.71884e-07
7.49617e-07
9.7713e-07
7.65359e-07
9.8361e-07
7.78411e-07
9.91407e-07
7.88397e-07
1.00062e-06
7.94877e-07
1.01137e-06
7.9734e-07
1.02379e-06
7.9519e-07
1.03807e-06
7.87741e-07
1.0544e-06
7.74222e-07
1.07305e-06
7.53808e-07
1.09433e-06
7.25697e-07
1.11862e-06
6.89287e-07
1.14636e-06
6.44546e-07
1.17804e-06
5.92916e-07
1.21202e-06
4.88746e-07
-6.3779e-07
-3.96852e-05
-1.4741e-07
3.81256e-08
1.07981e-06
7.57177e-08
1.06208e-06
1.12906e-07
1.04584e-06
1.49798e-07
1.03096e-06
1.86475e-07
1.01735e-06
2.22998e-07
1.00489e-06
2.59404e-07
9.93516e-07
2.95712e-07
9.83153e-07
3.31924e-07
9.73747e-07
3.68031e-07
9.65258e-07
4.04012e-07
9.57658e-07
4.39839e-07
9.50927e-07
4.75477e-07
9.45059e-07
5.10886e-07
9.40054e-07
5.46023e-07
9.3592e-07
5.80838e-07
9.3267e-07
6.15277e-07
9.30325e-07
6.49282e-07
9.28912e-07
6.82787e-07
9.2846e-07
7.1572e-07
9.29007e-07
7.48003e-07
9.30594e-07
7.79546e-07
9.33271e-07
8.10253e-07
9.37092e-07
8.40016e-07
9.42121e-07
8.68717e-07
9.4843e-07
8.96225e-07
9.56102e-07
9.22398e-07
9.65234e-07
9.47084e-07
9.75935e-07
9.70121e-07
9.88332e-07
9.91344e-07
1.00257e-06
1.01059e-06
1.01882e-06
1.02773e-06
1.03727e-06
1.04266e-06
1.05812e-06
1.05537e-06
1.08162e-06
1.06598e-06
1.10801e-06
1.07481e-06
1.13752e-06
1.08247e-06
1.17038e-06
1.08998e-06
1.20451e-06
1.00632e-06
-5.54124e-07
-3.84691e-05
-2.09852e-07
4.08845e-08
1.03893e-06
8.11942e-08
1.02177e-06
1.21069e-07
1.00596e-06
1.60629e-07
9.91402e-07
1.99974e-07
9.78001e-07
2.39186e-07
9.6568e-07
2.78328e-07
9.54374e-07
3.1745e-07
9.44031e-07
3.56587e-07
9.3461e-07
3.95765e-07
9.2608e-07
4.35e-07
9.18422e-07
4.74304e-07
9.11624e-07
5.13681e-07
9.05682e-07
5.53133e-07
9.00602e-07
5.92659e-07
8.96393e-07
6.32257e-07
8.93072e-07
6.71922e-07
8.9066e-07
7.11649e-07
8.89185e-07
7.51434e-07
8.88676e-07
7.91271e-07
8.8917e-07
8.31158e-07
8.90707e-07
8.71095e-07
8.93334e-07
9.11084e-07
8.97102e-07
9.51137e-07
9.02068e-07
9.91272e-07
9.08295e-07
1.03152e-06
9.15855e-07
1.07193e-06
9.24827e-07
1.11256e-06
9.35299e-07
1.15353e-06
9.47368e-07
1.19495e-06
9.61143e-07
1.23703e-06
9.76743e-07
1.28e-06
9.94301e-07
1.32416e-06
1.01396e-06
1.3699e-06
1.03588e-06
1.41767e-06
1.06024e-06
1.46795e-06
1.08724e-06
1.52121e-06
1.11712e-06
1.57778e-06
1.14794e-06
1.50508e-06
-4.81424e-07
-3.67113e-05
-2.52729e-07
4.33316e-08
9.95596e-07
8.60601e-08
9.79039e-07
1.28341e-07
9.6368e-07
1.70311e-07
9.49432e-07
2.12091e-07
9.36221e-07
2.53784e-07
9.23987e-07
2.95479e-07
9.12679e-07
3.37253e-07
9.02257e-07
3.79172e-07
8.92691e-07
4.21293e-07
8.83959e-07
4.63669e-07
8.76047e-07
5.06344e-07
8.68949e-07
5.49362e-07
8.62664e-07
5.92764e-07
8.572e-07
6.36591e-07
8.52566e-07
6.80884e-07
8.48779e-07
7.25688e-07
8.45857e-07
7.71049e-07
8.43823e-07
8.17019e-07
8.42705e-07
8.63659e-07
8.4253e-07
9.11034e-07
8.43332e-07
9.59224e-07
8.45144e-07
1.00832e-06
8.48004e-07
1.05844e-06
8.51951e-07
1.10971e-06
8.57027e-07
1.16229e-06
8.63275e-07
1.21637e-06
8.70741e-07
1.2722e-06
8.7947e-07
1.33006e-06
8.8951e-07
1.39029e-06
9.00909e-07
1.45333e-06
9.13711e-07
1.51966e-06
9.27962e-07
1.58992e-06
9.43703e-07
1.66484e-06
9.60969e-07
1.74529e-06
9.79792e-07
1.83234e-06
1.00019e-06
1.92729e-06
1.02217e-06
2.03165e-06
1.04357e-06
1.97874e-06
-4.28515e-07
-3.44572e-05
-2.75354e-07
4.54356e-08
9.5016e-07
9.02491e-08
9.34226e-07
1.34614e-07
9.19315e-07
1.78686e-07
9.05359e-07
2.22605e-07
8.92302e-07
2.66497e-07
8.80096e-07
3.10473e-07
8.68703e-07
3.54635e-07
8.58095e-07
3.99077e-07
8.48249e-07
4.43885e-07
8.39151e-07
4.89139e-07
8.30792e-07
5.34918e-07
8.2317e-07
5.81297e-07
8.16286e-07
6.28351e-07
8.10145e-07
6.76159e-07
8.04758e-07
7.248e-07
8.00138e-07
7.74359e-07
7.96298e-07
8.24927e-07
7.93256e-07
8.76601e-07
7.9103e-07
9.29491e-07
7.8964e-07
9.83718e-07
7.89106e-07
1.03942e-06
7.89445e-07
1.09674e-06
7.90678e-07
1.15587e-06
7.92822e-07
1.21701e-06
7.95892e-07
1.28038e-06
7.99899e-07
1.34627e-06
8.04851e-07
1.41499e-06
8.1075e-07
1.48691e-06
8.17591e-07
1.56246e-06
8.25361e-07
1.64214e-06
8.34033e-07
1.72653e-06
8.43569e-07
1.81632e-06
8.53914e-07
1.9123e-06
8.64992e-07
2.01539e-06
8.76704e-07
2.12665e-06
8.88923e-07
2.24734e-06
9.01488e-07
2.37867e-06
9.12239e-07
2.33547e-06
-3.85316e-07
-3.1852e-05
-2.69677e-07
4.71578e-08
9.03002e-07
9.36815e-08
8.87702e-07
1.39763e-07
8.73234e-07
1.85576e-07
8.59547e-07
2.31278e-07
8.46599e-07
2.77015e-07
8.34359e-07
3.22919e-07
8.22799e-07
3.69113e-07
8.119e-07
4.15714e-07
8.01648e-07
4.62832e-07
7.92034e-07
5.10572e-07
7.83053e-07
5.59037e-07
7.74704e-07
6.08332e-07
7.66991e-07
6.58559e-07
7.59918e-07
7.09825e-07
7.53493e-07
7.62238e-07
7.47724e-07
8.15914e-07
7.42622e-07
8.70975e-07
7.38195e-07
9.2755e-07
7.34456e-07
9.85779e-07
7.31411e-07
1.04582e-06
7.2907e-07
1.10782e-06
7.27436e-07
1.17199e-06
7.26512e-07
1.23852e-06
7.26296e-07
1.30763e-06
7.26781e-07
1.37957e-06
7.27952e-07
1.45464e-06
7.29789e-07
1.53313e-06
7.32259e-07
1.6154e-06
7.35321e-07
1.70184e-06
7.3892e-07
1.79289e-06
7.42985e-07
1.88903e-06
7.47425e-07
1.99081e-06
7.52129e-07
2.09884e-06
7.56962e-07
2.21379e-06
7.61754e-07
2.33641e-06
7.66303e-07
2.46754e-06
7.7036e-07
2.60791e-06
7.71875e-07
2.57e-06
-3.47414e-07
-2.90419e-05
-2.4014e-07
4.84585e-08
8.54544e-07
9.62768e-08
8.39884e-07
1.43663e-07
8.25848e-07
1.90805e-07
8.12404e-07
2.37879e-07
7.99526e-07
2.85044e-07
7.87194e-07
3.3245e-07
7.75392e-07
3.80239e-07
7.64111e-07
4.28545e-07
7.53343e-07
4.77495e-07
7.43084e-07
5.27215e-07
7.33333e-07
5.77828e-07
7.24091e-07
6.29458e-07
7.15361e-07
6.82228e-07
7.07148e-07
7.36264e-07
6.99457e-07
7.91696e-07
6.92293e-07
8.48656e-07
6.85661e-07
9.07286e-07
6.79566e-07
9.67731e-07
6.7401e-07
1.03015e-06
6.68996e-07
1.0947e-06
6.64521e-07
1.16155e-06
6.6058e-07
1.2309e-06
6.57164e-07
1.30294e-06
6.54259e-07
1.37787e-06
6.51845e-07
1.45593e-06
6.49892e-07
1.53736e-06
6.48366e-07
1.62239e-06
6.47221e-07
1.71131e-06
6.464e-07
1.8044e-06
6.45834e-07
1.90194e-06
6.45441e-07
2.00424e-06
6.45124e-07
2.11161e-06
6.44769e-07
2.22432e-06
6.44246e-07
2.34267e-06
6.43406e-07
2.46689e-06
6.42084e-07
2.59715e-06
6.40094e-07
2.73329e-06
6.35743e-07
2.70283e-06
-3.16956e-07
-2.61443e-05
-1.94731e-07
4.93023e-08
8.05241e-07
9.79627e-08
7.91224e-07
1.46201e-07
7.77609e-07
1.9422e-07
7.64385e-07
2.42205e-07
7.51541e-07
2.90329e-07
7.3907e-07
3.38755e-07
7.26967e-07
3.87635e-07
7.15231e-07
4.37117e-07
7.03861e-07
4.87343e-07
6.92858e-07
5.38451e-07
6.82224e-07
5.90578e-07
6.71964e-07
6.43859e-07
6.6208e-07
6.98432e-07
6.52575e-07
7.54434e-07
6.43455e-07
8.12005e-07
6.34722e-07
8.71289e-07
6.26377e-07
9.32433e-07
6.18422e-07
9.95588e-07
6.10856e-07
1.06091e-06
6.03674e-07
1.12856e-06
5.96872e-07
1.1987e-06
5.9044e-07
1.2715e-06
5.84363e-07
1.34714e-06
5.78623e-07
1.42578e-06
5.73198e-07
1.50762e-06
5.68057e-07
1.59282e-06
5.63165e-07
1.68156e-06
5.58477e-07
1.77402e-06
5.53942e-07
1.87036e-06
5.495e-07
1.97071e-06
5.45083e-07
2.07522e-06
5.40613e-07
2.18399e-06
5.36006e-07
2.29707e-06
5.31168e-07
2.41447e-06
5.25999e-07
2.53616e-06
5.20395e-07
2.662e-06
5.14251e-07
2.79153e-06
5.06213e-07
2.76221e-06
-2.87632e-07
-2.32399e-05
-1.42167e-07
4.96607e-08
7.55581e-07
9.86819e-08
7.42202e-07
1.47292e-07
7.28999e-07
1.95701e-07
7.15977e-07
2.44101e-07
7.0314e-07
2.92675e-07
6.90496e-07
3.41591e-07
6.78051e-07
3.91012e-07
6.6581e-07
4.41091e-07
6.53781e-07
4.91979e-07
6.4197e-07
5.43822e-07
6.30382e-07
5.96762e-07
6.19023e-07
6.50944e-07
6.07898e-07
7.06509e-07
5.97011e-07
7.63599e-07
5.86364e-07
8.22361e-07
5.7596e-07
8.82937e-07
5.658e-07
9.45476e-07
5.55883e-07
1.01013e-06
5.46206e-07
1.07704e-06
5.36764e-07
1.14636e-06
5.27552e-07
1.21824e-06
5.18559e-07
1.29282e-06
5.09775e-07
1.37026e-06
5.01183e-07
1.4507e-06
4.92765e-07
1.53426e-06
4.845e-07
1.62106e-06
4.7636e-07
1.71122e-06
4.68316e-07
1.80483e-06
4.60333e-07
1.90196e-06
4.52373e-07
2.00265e-06
4.44392e-07
2.10692e-06
4.36344e-07
2.21474e-06
4.28181e-07
2.32606e-06
4.19853e-07
2.44074e-06
4.11312e-07
2.55863e-06
4.02513e-07
2.67945e-06
3.93421e-07
2.80262e-06
3.83045e-07
2.77495e-06
-2.59963e-07
-2.03792e-05
-8.58118e-08
4.95152e-08
7.06065e-07
9.83968e-08
6.93321e-07
1.46877e-07
6.80519e-07
1.95167e-07
6.67686e-07
2.43465e-07
6.54842e-07
2.91954e-07
6.42007e-07
3.40807e-07
6.29198e-07
3.90188e-07
6.16429e-07
4.40254e-07
6.03715e-07
4.91157e-07
5.91067e-07
5.43045e-07
5.78494e-07
5.96064e-07
5.66004e-07
6.50358e-07
5.53605e-07
7.06068e-07
5.413e-07
7.63338e-07
5.29094e-07
8.22309e-07
5.16989e-07
8.83125e-07
5.04984e-07
9.45928e-07
4.9308e-07
1.01086e-06
4.81275e-07
1.07806e-06
4.69564e-07
1.14767e-06
4.57944e-07
1.21982e-06
4.46408e-07
1.29464e-06
4.34951e-07
1.37226e-06
4.23565e-07
1.45278e-06
4.1224e-07
1.53632e-06
4.00968e-07
1.62294e-06
3.89738e-07
1.71271e-06
3.78539e-07
1.80569e-06
3.67357e-07
1.90188e-06
3.5618e-07
2.00128e-06
3.44994e-07
2.10384e-06
3.33782e-07
2.2095e-06
3.22529e-07
2.31813e-06
3.11218e-07
2.42961e-06
2.99836e-07
2.54375e-06
2.88369e-07
2.66036e-06
2.76812e-07
2.77891e-06
2.64493e-07
2.75934e-06
-2.40386e-07
-1.75915e-05
-2.83178e-08
4.88582e-08
6.57207e-07
9.70925e-08
6.45086e-07
1.44933e-07
6.32679e-07
1.92589e-07
6.2003e-07
2.40257e-07
6.07174e-07
2.88117e-07
5.94146e-07
3.36342e-07
5.80973e-07
3.85092e-07
5.67679e-07
4.34523e-07
5.54284e-07
4.84784e-07
5.40806e-07
5.3602e-07
5.27258e-07
5.88373e-07
5.13651e-07
6.41983e-07
4.99995e-07
6.96988e-07
4.86295e-07
7.53526e-07
4.72556e-07
8.11734e-07
4.58781e-07
8.71747e-07
4.44971e-07
9.33701e-07
4.31126e-07
9.97731e-07
4.17245e-07
1.06397e-06
4.03326e-07
1.13254e-06
3.89368e-07
1.20358e-06
3.75369e-07
1.27721e-06
3.6133e-07
1.35352e-06
3.47251e-07
1.43263e-06
3.33133e-07
1.51461e-06
3.18982e-07
1.59955e-06
3.04805e-07
1.68747e-06
2.9061e-07
1.77842e-06
2.76409e-07
1.87239e-06
2.62215e-07
1.96934e-06
2.48045e-07
2.0692e-06
2.33914e-07
2.1719e-06
2.19836e-07
2.27729e-06
2.05824e-07
2.38525e-06
1.91881e-07
2.49561e-06
1.78002e-07
2.60826e-06
1.64163e-07
2.72282e-06
1.49934e-07
2.70606e-06
-2.23622e-07
-1.48943e-05
8.85624e-09
4.76941e-08
6.09513e-07
9.47774e-08
5.98003e-07
1.41473e-07
5.85984e-07
1.87983e-07
5.73519e-07
2.34498e-07
5.60659e-07
2.81193e-07
5.47452e-07
3.28231e-07
5.33935e-07
3.75767e-07
5.20143e-07
4.23951e-07
5.06101e-07
4.72923e-07
4.91834e-07
5.22822e-07
4.77359e-07
5.73781e-07
4.62692e-07
6.25932e-07
4.47844e-07
6.79403e-07
4.32823e-07
7.34324e-07
4.17635e-07
7.90823e-07
4.02283e-07
8.49026e-07
3.86769e-07
9.0906e-07
3.71092e-07
9.71053e-07
3.55253e-07
1.03513e-06
3.3925e-07
1.10141e-06
3.23084e-07
1.17003e-06
3.06756e-07
1.24109e-06
2.90269e-07
1.31471e-06
2.7363e-07
1.39099e-06
2.56848e-07
1.47003e-06
2.39941e-07
1.55191e-06
2.22928e-07
1.63669e-06
2.05837e-07
1.72439e-06
1.88703e-07
1.81504e-06
1.71569e-07
1.9086e-06
1.54483e-07
2.00501e-06
1.37503e-07
2.10416e-06
1.20688e-07
2.20588e-06
1.04105e-07
2.30994e-06
8.78151e-08
2.41607e-06
7.18807e-08
2.52387e-06
5.63548e-08
2.63263e-06
4.11797e-08
2.61957e-06
-2.1056e-07
-1.23013e-05
2.65085e-08
4.60385e-08
5.63475e-07
9.14832e-08
5.52558e-07
1.36545e-07
5.40923e-07
1.81416e-07
5.28648e-07
2.26274e-07
5.15801e-07
2.71284e-07
5.02442e-07
3.166e-07
4.8862e-07
3.62365e-07
4.74377e-07
4.08717e-07
4.59749e-07
4.55786e-07
4.44765e-07
5.03698e-07
4.29448e-07
5.52573e-07
4.13817e-07
6.02531e-07
3.97886e-07
6.53687e-07
3.81667e-07
7.06158e-07
3.65165e-07
7.60057e-07
3.48384e-07
8.15499e-07
3.31326e-07
8.726e-07
3.13991e-07
9.31477e-07
2.96376e-07
9.92247e-07
2.7848e-07
1.05503e-06
2.603e-07
1.11995e-06
2.41837e-07
1.18713e-06
2.23092e-07
1.25668e-06
2.04072e-07
1.32875e-06
1.84786e-07
1.40343e-06
1.65252e-07
1.48086e-06
1.45498e-07
1.56114e-06
1.25558e-07
1.64436e-06
1.05483e-07
1.7306e-06
8.53359e-08
1.81988e-06
6.51954e-08
1.91223e-06
4.51581e-08
2.00758e-06
2.53377e-08
2.10582e-06
5.8643e-09
2.20675e-06
-1.3118e-08
2.31009e-06
-3.1456e-08
2.41544e-06
-4.89936e-08
2.52206e-06
-6.54406e-08
2.51727e-06
-2.05771e-07
-9.82601e-06
4.20198e-08
4.39177e-08
5.19557e-07
8.72625e-08
5.09214e-07
1.30229e-07
4.97956e-07
1.72995e-07
4.85881e-07
2.15724e-07
4.73072e-07
2.58566e-07
4.596e-07
3.01661e-07
4.45525e-07
3.45137e-07
4.309e-07
3.89118e-07
4.15768e-07
4.33719e-07
4.00164e-07
4.79048e-07
3.84118e-07
5.25211e-07
3.67654e-07
5.72308e-07
3.50789e-07
6.2044e-07
3.33536e-07
6.69701e-07
3.15903e-07
7.2019e-07
2.97895e-07
7.72003e-07
2.79513e-07
8.25239e-07
2.60755e-07
8.79998e-07
2.41616e-07
9.36387e-07
2.22091e-07
9.94516e-07
2.02171e-07
1.0545e-06
1.81851e-07
1.11647e-06
1.61122e-07
1.18056e-06
1.39982e-07
1.24692e-06
1.18429e-07
1.3157e-06
9.647e-08
1.38708e-06
7.41175e-08
1.46124e-06
5.13967e-08
1.53838e-06
2.83473e-08
1.61869e-06
5.02819e-09
1.70236e-06
-1.84774e-08
1.78957e-06
-4.20565e-08
1.88047e-06
-6.55606e-08
1.97514e-06
-8.88011e-08
2.07357e-06
-1.11546e-07
2.17563e-06
-1.33521e-07
2.28106e-06
-1.54419e-07
2.38921e-06
-1.73591e-07
2.39518e-06
-2.1174e-07
-7.48489e-06
5.40606e-08
4.13672e-08
4.7819e-07
8.21864e-08
4.68394e-07
1.22634e-07
4.57509e-07
1.62868e-07
4.45647e-07
2.03036e-07
4.32904e-07
2.43271e-07
4.19365e-07
2.83695e-07
4.05102e-07
3.2442e-07
3.90175e-07
3.65552e-07
3.74637e-07
4.07185e-07
3.58531e-07
4.49411e-07
3.41893e-07
4.92313e-07
3.24751e-07
5.35973e-07
3.07129e-07
5.80465e-07
2.89043e-07
6.25865e-07
2.70503e-07
6.72243e-07
2.51516e-07
7.19674e-07
2.32083e-07
7.68229e-07
2.122e-07
8.17985e-07
1.9186e-07
8.69025e-07
1.71051e-07
9.21436e-07
1.4976e-07
9.75319e-07
1.27968e-07
1.03079e-06
1.05655e-07
1.08797e-06
8.27993e-08
1.14702e-06
5.9377e-08
1.20813e-06
3.53653e-08
1.2715e-06
1.07429e-08
1.3374e-06
-1.45067e-08
1.40614e-06
-4.0392e-08
1.47808e-06
-6.69081e-08
1.55363e-06
-9.40285e-08
1.63327e-06
-1.21694e-07
1.71751e-06
-1.49799e-07
1.80687e-06
-1.78167e-07
1.90186e-06
-2.06532e-07
2.00284e-06
-2.34498e-07
2.10994e-06
-2.61523e-07
2.2228e-06
-2.86449e-07
2.24375e-06
-2.32695e-07
-5.30112e-06
5.9984e-08
3.84294e-08
4.3976e-07
7.63405e-08
4.30483e-07
1.13888e-07
4.19962e-07
1.51211e-07
4.08323e-07
1.88437e-07
3.95678e-07
2.25679e-07
3.82123e-07
2.63042e-07
3.67739e-07
3.00618e-07
3.52598e-07
3.38493e-07
3.36762e-07
3.76741e-07
3.20283e-07
4.15431e-07
3.03202e-07
4.54626e-07
2.85557e-07
4.94379e-07
2.67376e-07
5.34742e-07
2.4868e-07
5.7576e-07
2.29485e-07
6.17475e-07
2.09801e-07
6.59928e-07
1.8963e-07
7.03157e-07
1.68971e-07
7.47202e-07
1.47815e-07
7.92105e-07
1.26148e-07
8.37915e-07
1.03951e-07
8.84687e-07