/*--------------------------------*- C++ -*----------------------------------*\
  =========                 |
  \\      /  F ield         | OpenFOAM: The Open Source CFD Toolbox
   \\    /   O peration     | Website:  https://openfoam.org
    \\  /    A nd           | Version:  10
     \\/     M anipulation  |
\*---------------------------------------------------------------------------*/
FoamFile
{
    format      ascii;
    class       surfaceScalarField;
    location    "0.93";
    object      phi;
}
// * * * * * * * * * * * * * * * * * * * * * * * * * * * * * * * * * * * * * //

dimensions      [0 3 -1 0 0 0 0];

internalField   nonuniform List<scalar> 
24170
(
1.39858e-09
-1.39858e-09
2.59656e-09
-1.19799e-09
3.54662e-09
-9.50062e-10
4.26686e-09
-7.20235e-10
4.80365e-09
-5.36791e-10
5.20707e-09
-4.03419e-10
5.52029e-09
-3.13224e-10
5.77736e-09
-2.57066e-10
6.00454e-09
-2.27181e-10
6.22288e-09
-2.18339e-10
6.45102e-09
-2.28143e-10
6.70843e-09
-2.57411e-10
7.01991e-09
-3.11475e-10
7.42393e-09
-4.04021e-10
7.99261e-09
-5.68681e-10
8.89305e-09
-9.00439e-10
1.06436e-08
-1.75051e-09
-5.01353e-09
1.56571e-08
1.60059e-09
-2.99917e-09
2.96526e-09
-2.56265e-09
4.04048e-09
-2.02529e-09
4.84963e-09
-1.52938e-09
5.44812e-09
-1.13528e-09
5.89462e-09
-8.4992e-10
6.23906e-09
-6.57664e-10
6.52038e-09
-5.3839e-10
6.76835e-09
-4.75149e-10
7.00655e-09
-4.5654e-10
7.25563e-09
-4.77217e-10
7.53678e-09
-5.38561e-10
7.87643e-09
-6.51126e-10
8.31423e-09
-8.41827e-10
8.92003e-09
-1.17447e-09
9.83395e-09
-1.81436e-09
1.13421e-08
-3.2587e-09
-7.18304e-09
1.35116e-08
1.7981e-09
-4.79726e-09
3.32147e-09
-4.08603e-09
4.51123e-09
-3.21505e-09
5.39803e-09
-2.41618e-09
6.04776e-09
-1.78501e-09
6.52818e-09
-1.33035e-09
6.89593e-09
-1.02541e-09
7.19452e-09
-8.36974e-10
7.45673e-09
-7.37361e-10
7.70816e-09
-7.07967e-10
7.97072e-09
-7.39783e-10
8.26625e-09
-8.34087e-10
8.62066e-09
-1.00554e-09
9.07002e-09
-1.29119e-09
9.6696e-09
-1.77404e-09
1.05005e-08
-2.64525e-09
1.16032e-08
-4.3614e-09
-7.90619e-09
1.23263e-08
2.01741e-09
-6.81467e-09
3.7118e-09
-5.78043e-09
5.01945e-09
-4.52269e-09
5.98192e-09
-3.37866e-09
6.67869e-09
-2.48177e-09
7.18837e-09
-1.84003e-09
7.57499e-09
-1.41204e-09
7.88676e-09
-1.14874e-09
8.15929e-09
-1.0099e-09
8.4198e-09
-9.68477e-10
8.69085e-09
-1.01083e-09
8.99379e-09
-1.13703e-09
9.352e-09
-1.36375e-09
9.79383e-09
-1.73301e-09
1.03522e-08
-2.33244e-09
1.10443e-08
-3.33735e-09
1.17552e-08
-5.07226e-09
-7.94579e-09
1.17948e-08
2.27244e-09
-9.08711e-09
4.15853e-09
-7.66652e-09
5.5908e-09
-5.95495e-09
6.6275e-09
-4.41536e-09
7.36639e-09
-3.22066e-09
7.89957e-09
-2.37321e-09
8.29955e-09
-1.81202e-09
8.61943e-09
-1.46862e-09
8.89749e-09
-1.28795e-09
9.16206e-09
-1.23304e-09
9.43563e-09
-1.2844e-09
9.73794e-09
-1.43934e-09
1.00879e-08
-1.71375e-09
1.05034e-08
-2.14844e-09
1.09928e-08
-2.82189e-09
1.15228e-08
-3.86731e-09
1.19156e-08
-5.46509e-09
-7.68114e-09
1.1651e-08
2.57845e-09
-1.16656e-08
4.68436e-09
-9.77243e-09
6.24916e-09
-7.51975e-09
7.35681e-09
-5.52301e-09
8.13023e-09
-3.99409e-09
8.67859e-09
-2.92157e-09
9.08419e-09
-2.21762e-09
9.40527e-09
-1.7897e-09
9.68243e-09
-1.56511e-09
9.94456e-09
-1.49517e-09
1.02133e-08
-1.55311e-09
1.05055e-08
-1.73162e-09
1.08345e-08
-2.04272e-09
1.12063e-08
-2.52021e-09
1.16081e-08
-3.22368e-09
1.19763e-08
-4.23553e-09
1.21331e-08
-5.62194e-09
-7.29142e-09
1.17434e-08
2.95588e-09
-1.46214e-08
5.31808e-09
-1.21346e-08
7.02285e-09
-9.22452e-09
8.19416e-09
-6.69432e-09
8.99001e-09
-4.78995e-09
9.54126e-09
-3.47282e-09
9.9416e-09
-2.61796e-09
1.02545e-08
-2.10255e-09
1.05222e-08
-1.83289e-09
1.07737e-08
-1.7466e-09
1.10286e-08
-1.80802e-09
1.13003e-08
-2.00336e-09
1.15955e-08
-2.33786e-09
1.19093e-08
-2.83403e-09
1.22138e-08
-3.52824e-09
1.24349e-08
-4.45662e-09
1.24253e-08
-5.61237e-09
-6.85738e-09
1.19913e-08
3.43457e-09
-1.8056e-08
6.0994e-09
-1.47995e-08
7.94857e-09
-1.10737e-08
9.16914e-09
-7.91489e-09
9.96834e-09
-5.58915e-09
1.05046e-08
-4.00911e-09
1.08846e-08
-2.99792e-09
1.11766e-08
-2.39456e-09
1.1424e-08
-2.08034e-09
1.16545e-08
-1.9771e-09
1.18853e-08
-2.03873e-09
1.21252e-08
-2.24332e-09
1.23745e-08
-2.58717e-09
1.26199e-08
-3.07939e-09
1.28254e-08
-3.73373e-09
1.29201e-08
-4.5514e-09
1.27962e-08
-5.48845e-09
-6.41333e-09
1.23522e-08
4.06027e-09
-2.21163e-08
7.08546e-09
-1.78247e-08
9.07575e-09
-1.3064e-08
1.03191e-08
-9.15824e-09
1.10921e-08
-6.36214e-09
1.15878e-08
-4.50479e-09
1.19267e-08
-3.33686e-09
1.21813e-08
-2.64917e-09
1.23947e-08
-2.29367e-09
1.2592e-08
-2.17438e-09
1.27868e-08
-2.23355e-09
1.29835e-08
-2.44002e-09
1.31765e-08
-2.78015e-09
1.33468e-08
-3.24972e-09
1.34568e-08
-3.84375e-09
1.34469e-08
-4.54148e-09
1.32448e-08
-5.2864e-09
-5.97244e-09
1.28039e-08
4.90632e-09
-2.70226e-08
8.36102e-09
-2.12793e-08
1.04722e-08
-1.51751e-08
1.16917e-08
-1.03778e-08
1.23933e-08
-7.06379e-09
1.28122e-08
-4.92363e-09
1.30825e-08
-3.60717e-09
1.32785e-08
-2.8452e-09
1.34408e-08
-2.45595e-09
1.35905e-08
-2.32413e-09
1.37368e-08
-2.3798e-09
1.3879e-08
-2.58225e-09
1.40071e-08
-2.90819e-09
1.40992e-08
-3.34187e-09
1.41206e-08
-3.86511e-09
1.40253e-08
-4.44618e-09
1.3769e-08
-5.0301e-09
-5.53849e-09
1.3335e-08
6.09609e-09
-3.31187e-08
1.00552e-08
-2.52385e-08
1.22316e-08
-1.73515e-08
1.33471e-08
-1.14932e-08
1.39094e-08
-7.62614e-09
1.42011e-08
-5.21529e-09
1.43666e-08
-3.77265e-09
1.44776e-08
-2.9562e-09
1.45686e-08
-2.54701e-09
1.46547e-08
-2.41022e-09
1.47391e-08
-2.4642e-09
1.48164e-08
-2.65953e-09
1.48729e-08
-2.96468e-09
1.48864e-08
-3.3554e-09
1.48271e-08
-3.80583e-09
1.46622e-08
-4.28128e-09
1.43669e-08
-4.73473e-09
-5.11125e-09
1.39396e-08
6.51324e-09
-3.96319e-08
1.02973e-08
-2.90225e-08
1.20894e-08
-1.91437e-08
1.28467e-08
-1.22505e-08
1.31355e-08
-7.91494e-09
1.32298e-08
-5.30955e-09
1.3252e-08
-3.79487e-09
1.32545e-08
-2.95867e-09
1.32577e-08
-2.55018e-09
1.32669e-08
-2.41947e-09
1.32794e-08
-2.47667e-09
1.32865e-08
-2.66664e-09
1.32746e-08
-2.95282e-09
1.32256e-08
-3.30644e-09
1.31187e-08
-3.69886e-09
1.29341e-08
-4.09674e-09
1.26607e-08
-4.46126e-09
-4.75301e-09
1.23024e-08
9.68771e-09
-4.93196e-08
1.44912e-08
-3.38259e-08
1.62926e-08
-2.09452e-08
1.67865e-08
-1.27444e-08
1.68002e-08
-7.92865e-09
1.66708e-08
-5.1802e-09
1.65228e-08
-3.64686e-09
1.63962e-08
-2.83207e-09
1.62986e-08
-2.45261e-09
1.62249e-08
-2.34569e-09
1.61638e-08
-2.41562e-09
1.61008e-08
-2.60362e-09
1.60182e-08
-2.87023e-09
1.58965e-08
-3.1847e-09
1.57162e-08
-3.51856e-09
1.54621e-08
-3.84262e-09
1.51281e-08
-4.12731e-09
-4.34642e-09
1.47215e-08
1.56509e-08
-6.49705e-08
2.14099e-08
-3.95849e-08
2.25848e-08
-2.21201e-08
2.22962e-08
-1.24558e-08
2.16931e-08
-7.32558e-09
2.11225e-08
-4.60959e-09
2.06621e-08
-3.18648e-09
2.03091e-08
-2.47903e-09
2.00401e-08
-2.18358e-09
1.98288e-08
-2.13441e-09
1.96501e-08
-2.2369e-09
1.94801e-08
-2.43362e-09
1.9296e-08
-2.68622e-09
1.9077e-08
-2.96563e-09
1.88052e-08
-3.24682e-09
1.84695e-08
-3.50689e-09
1.80677e-08
-3.72549e-09
-3.88687e-09
1.76081e-08
2.86435e-08
-9.3614e-08
3.36869e-08
-4.46283e-08
3.2305e-08
-2.07382e-08
3.00807e-08
-1.02314e-08
2.82278e-08
-5.47272e-09
2.68586e-08
-3.24032e-09
2.58708e-08
-2.19876e-09
2.51523e-08
-1.76046e-09
2.46152e-08
-1.64649e-09
2.4195e-08
-1.71421e-09
2.38433e-08
-1.88518e-09
2.35225e-08
-2.1128e-09
2.32026e-08
-2.36637e-09
2.28603e-08
-2.62328e-09
2.24788e-08
-2.86534e-09
2.20493e-08
-3.07746e-09
2.15717e-08
-3.24781e-09
-3.36863e-09
2.10534e-08
6.3242e-08
-1.56856e-07
5.67893e-08
-3.81755e-08
4.72675e-08
-1.12165e-08
4.08019e-08
-3.76577e-09
3.67031e-08
-1.37392e-09
3.40561e-08
-5.93329e-10
3.22824e-08
-4.25053e-10
3.10424e-08
-5.20492e-10
3.01333e-08
-7.37444e-10
2.94289e-08
-1.00981e-09
2.88465e-08
-1.30272e-09
2.83297e-08
-1.59598e-09
2.78391e-08
-1.87579e-09
2.73476e-08
-2.13182e-09
2.68382e-08
-2.35589e-09
2.63024e-08
-2.54174e-09
2.57399e-08
-2.68523e-09
-2.78473e-09
2.5156e-08
1.83555e-07
1.59403e-07
9.75151e-08
4.78641e-08
6.72625e-08
1.90362e-08
5.38587e-08
9.63799e-09
4.67944e-08
5.69041e-09
4.25971e-08
3.60391e-09
3.98835e-08
2.28859e-09
3.80103e-08
1.3527e-09
3.66406e-08
6.32257e-10
3.55813e-08
4.94987e-11
3.47098e-08
-4.31206e-10
3.39509e-08
-8.37081e-10
3.32552e-08
-1.18011e-09
3.25907e-08
-1.46731e-09
3.19377e-08
-1.70292e-09
3.12861e-08
-1.89007e-09
3.06326e-08
-2.03173e-09
-2.13129e-09
2.99791e-08
7.72743e-08
8.2129e-08
7.55893e-08
4.95491e-08
6.56617e-08
2.89638e-08
5.77317e-08
1.7568e-08
5.22705e-08
1.11517e-08
4.85465e-08
7.32784e-09
4.59402e-08
4.89491e-09
4.40444e-08
3.24854e-09
4.26025e-08
2.07416e-09
4.14515e-08
1.20045e-09
4.04905e-08
5.29834e-10
3.96497e-08
3.7156e-12
3.8876e-08
-4.06446e-10
3.81421e-08
-7.33405e-10
3.74313e-08
-9.92168e-10
3.67349e-08
-1.19361e-09
3.60494e-08
-1.3462e-09
-1.45694e-09
3.5375e-08
3.60303e-08
4.60987e-08
5.02476e-08
3.53319e-08
5.39887e-08
2.52226e-08
5.38768e-08
1.76799e-08
5.2617e-08
1.24115e-08
5.11754e-08
8.76944e-09
4.98491e-08
6.22122e-09
4.86965e-08
4.40109e-09
4.76996e-08
3.07116e-09
4.68216e-08
2.07841e-09
4.60276e-08
1.32378e-09
4.52892e-08
7.42128e-10
4.4593e-08
2.89825e-10
4.39222e-08
-6.26902e-11
4.32646e-08
-3.34561e-10
4.26166e-08
-5.45526e-10
4.19773e-08
-7.06966e-10
-8.27796e-10
4.13482e-08
1.43835e-08
3.17151e-08
2.33983e-08
2.63171e-08
2.82313e-08
2.03896e-08
3.06104e-08
1.53009e-08
3.16897e-08
1.13321e-08
3.21074e-08
8.35174e-09
3.2191e-08
6.13758e-09
3.21033e-08
4.48878e-09
3.19239e-08
3.25056e-09
3.16916e-08
2.31074e-09
3.14255e-08
1.58992e-09
3.11354e-08
1.03219e-09
3.08273e-08
5.97947e-10
3.05058e-08
2.58823e-10
3.01771e-08
-5.92583e-12
2.98407e-08
-2.09133e-10
2.94997e-08
-3.65964e-10
-4.85247e-10
2.91572e-08
8.62358e-09
2.30916e-08
1.50432e-08
1.98975e-08
1.93072e-08
1.61256e-08
2.19926e-08
1.26155e-08
2.36445e-08
9.68025e-09
2.46475e-08
7.34875e-09
2.52452e-08
5.53988e-09
2.55855e-08
4.14843e-09
2.57575e-08
3.07857e-09
2.58152e-08
2.25302e-09
2.57925e-08
1.61269e-09
2.57111e-08
1.11352e-09
2.55862e-08
7.22854e-10
2.54286e-08
4.16501e-10
2.52463e-08
1.76356e-10
2.50483e-08
-1.11064e-11
2.48372e-08
-1.54948e-10
-2.65635e-10
2.46176e-08
5.82012e-09
1.72714e-08
1.05282e-08
1.51894e-08
1.40115e-08
1.26422e-08
1.64716e-08
1.01554e-08
1.81714e-08
7.98042e-09
1.93345e-08
6.18565e-09
2.01247e-08
4.74965e-09
2.06551e-08
3.61806e-09
2.10018e-08
2.73184e-09
2.12163e-08
2.03853e-09
2.13337e-08
1.49529e-09
2.13786e-08
1.06863e-09
2.13687e-08
7.32797e-10
2.1317e-08
4.68186e-10
2.12335e-08
2.59818e-10
2.11262e-08
9.61971e-11
2.10025e-08
-3.12207e-11
-1.28998e-10
2.08659e-08
4.23362e-09
1.30378e-08
7.81679e-09
1.16063e-08
1.06366e-08
9.82242e-09
1.27633e-08
8.02873e-09
1.43307e-08
6.41297e-09
1.54719e-08
5.0445e-09
1.6296e-08
3.92549e-09
1.6886e-08
3.02807e-09
1.73025e-08
2.31541e-09
1.75892e-08
1.75184e-09
1.77779e-08
1.30658e-09
1.78919e-08
9.54602e-10
1.79486e-08
6.76122e-10
1.7961e-08
4.55727e-10
1.79394e-08
2.81453e-10
1.78916e-08
1.44002e-10
1.78243e-08
3.6107e-11
-4.74683e-11
1.77427e-08
3.23509e-09
9.80274e-09
6.04743e-09
8.79393e-09
8.34594e-09
7.52391e-09
1.0152e-08
6.22264e-09
1.15378e-08
5.02718e-09
1.25859e-08
3.99638e-09
1.3371e-08
3.14044e-09
1.39539e-08
2.4452e-09
1.43819e-08
1.8874e-09
1.46911e-08
1.44264e-09
1.49087e-08
1.08895e-09
1.50554e-08
8.07875e-10
1.5147e-08
5.84526e-10
1.51957e-08
4.07089e-10
1.52108e-08
2.6628e-10
1.52e-08
1.5481e-10
1.51692e-08
6.69407e-11
-1.84255e-12
1.51236e-08
2.55558e-09
7.24715e-09
4.81479e-09
6.53472e-09
6.70651e-09
5.63218e-09
8.23315e-09
4.696e-09
9.43589e-09
3.82445e-09
1.03687e-08
3.06357e-09
1.10842e-08
2.42489e-09
1.16281e-08
1.90134e-09
1.20374e-08
1.4781e-09
1.23415e-08
1.13854e-09
1.25633e-08
8.67126e-10
1.27207e-08
6.50535e-10
1.28274e-08
4.77811e-10
1.28943e-08
3.40158e-10
1.293e-08
2.30593e-10
1.29412e-08
1.43591e-10
1.29334e-08
7.47722e-11
2.0651e-11
1.29109e-08
2.06474e-09
5.18241e-09
3.91008e-09
4.68938e-09
5.48007e-09
4.06219e-09
6.76982e-09
3.40625e-09
7.80421e-09
2.79006e-09
8.6203e-09
2.24749e-09
9.25663e-09
1.78855e-09
9.7481e-09
1.40988e-09
1.01242e-08
1.10204e-09
1.04088e-08
8.53909e-10
1.06211e-08
6.54801e-10
1.07763e-08
4.95382e-10
1.08862e-08
3.67883e-10
1.09603e-08
2.66008e-10
1.10062e-08
1.8472e-10
1.10298e-08
1.2001e-10
1.10359e-08
6.86856e-11
2.81944e-11
1.10283e-08
1.69293e-09
3.48948e-09
3.21702e-09
3.16529e-09
4.52759e-09
2.75163e-09
5.61725e-09
2.31659e-09
6.50193e-09
1.90538e-09
7.20826e-09
1.54116e-09
7.7654e-09
1.23141e-09
8.20065e-09
9.74624e-10
8.53768e-09
7.65017e-10
8.79612e-09
5.95466e-10
8.99192e-09
4.58998e-10
9.13786e-09
3.49443e-10
9.24412e-09
2.61618e-10
9.31884e-09
1.91293e-10
9.3685e-09
1.35065e-10
9.39829e-09
9.0215e-11
9.41241e-09
5.45667e-11
2.63755e-11
9.41423e-09
1.39955e-09
2.08993e-09
2.66576e-09
1.89908e-09
3.76242e-09
1.65497e-09
4.68175e-09
1.39725e-09
5.43451e-09
1.15262e-09
6.04061e-09
9.35053e-10
6.5227e-09
7.49324e-10
6.90251e-09
5.94818e-10
7.19921e-09
4.68315e-10
7.42897e-09
3.6571e-10
7.60504e-09
2.82928e-10
7.73815e-09
2.16329e-10
7.83693e-09
1.62836e-10
7.9083e-09
1.19927e-10
7.9578e-09
8.55632e-11
7.98991e-09
5.81094e-11
8.00822e-09
3.62537e-11
1.89384e-11
8.01566e-09
1.15759e-09
9.32345e-10
2.20845e-09
8.48214e-10
3.12306e-09
7.40361e-10
3.89413e-09
6.26182e-10
4.52926e-09
5.17488e-10
5.04378e-09
4.20539e-10
5.45554e-09
3.37558e-10
5.78201e-09
2.68356e-10
6.03875e-09
2.11569e-10
6.23905e-09
1.65416e-10
6.39386e-09
1.2811e-10
6.51215e-09
9.80479e-11
6.60112e-09
7.38656e-11
6.6666e-09
5.44416e-11
6.7133e-09
3.8867e-11
6.745e-09
2.64105e-11
6.76477e-09
1.64837e-11
8.6078e-12
6.7751e-09
9.32345e-10
1.78056e-09
2.52092e-09
3.1471e-09
3.66459e-09
4.08513e-09
4.42269e-09
4.69104e-09
4.90261e-09
5.06803e-09
5.19614e-09
5.29419e-09
5.36805e-09
5.42249e-09
5.46136e-09
5.48777e-09
5.50425e-09
5.51286e-09
2.54215e-10
-2.54215e-10
5.09882e-10
-2.55666e-10
7.66688e-10
-2.56807e-10
1.02431e-09
-2.57624e-10
1.28242e-09
-2.58107e-10
1.54066e-09
-2.58243e-10
1.79869e-09
-2.58023e-10
2.05612e-09
-2.57438e-10
2.31261e-09
-2.56481e-10
2.56775e-09
-2.55146e-10
2.82118e-09
-2.53432e-10
3.07252e-09
-2.51339e-10
3.32139e-09
-2.48871e-10
3.56743e-09
-2.46036e-10
3.81028e-09
-2.42845e-10
4.04959e-09
-2.39314e-10
4.28505e-09
-2.35461e-10
4.51636e-09
-2.31308e-10
4.74324e-09
-2.2688e-10
4.96544e-09
-2.22204e-10
5.18275e-09
-2.17306e-10
5.39496e-09
-2.12216e-10
5.60193e-09
-2.06964e-10
5.80351e-09
-2.01578e-10
5.99959e-09
-1.96086e-10
6.19011e-09
-1.90515e-10
6.375e-09
-1.84892e-10
6.55424e-09
-1.79241e-10
6.72782e-09
-1.73583e-10
6.89576e-09
-1.6794e-10
7.05809e-09
-1.62329e-10
7.21486e-09
-1.56769e-10
7.36613e-09
-1.51272e-10
7.51199e-09
-1.45853e-10
7.65251e-09
-1.40521e-10
7.78779e-09
-1.35287e-10
7.91795e-09
-1.30158e-10
8.04309e-09
-1.25141e-10
8.16333e-09
-1.20241e-10
8.27879e-09
-1.15461e-10
8.3896e-09
-1.10804e-10
8.49587e-09
-1.06273e-10
8.59774e-09
-1.01868e-10
8.69533e-09
-9.759e-11
8.78877e-09
-9.34381e-11
8.87818e-09
-8.94121e-11
8.96369e-09
-8.55104e-11
9.04542e-09
-8.17315e-11
9.1235e-09
-7.80735e-11
9.19803e-09
-7.45344e-11
9.26914e-09
-7.11116e-11
9.33694e-09
-6.78028e-11
9.40155e-09
-6.46053e-11
9.46307e-09
-6.15166e-11
9.5216e-09
-5.85338e-11
9.57725e-09
-5.56542e-11
9.63013e-09
-5.28752e-11
9.68032e-09
-5.01938e-11
9.72793e-09
-4.76074e-11
9.77304e-09
-4.51133e-11
9.81575e-09
-4.27088e-11
9.85614e-09
-4.03914e-11
9.8943e-09
-3.81584e-11
9.93031e-09
-3.60072e-11
9.96424e-09
-3.39355e-11
9.99619e-09
-3.19408e-11
1.00262e-08
-3.00207e-11
1.00544e-08
-2.81729e-11
1.00808e-08
-2.63953e-11
1.01055e-08
-2.46853e-11
1.01285e-08
-2.30413e-11
1.015e-08
-2.14607e-11
1.01699e-08
-1.99416e-11
1.01884e-08
-1.84822e-11
1.02055e-08
-1.70802e-11
1.02212e-08
-1.57339e-11
1.02356e-08
-1.44414e-11
1.02488e-08
-1.3201e-11
1.02609e-08
-1.20105e-11
1.02717e-08
-1.08687e-11
1.02815e-08
-9.77355e-12
1.02902e-08
-8.72345e-12
1.02979e-08
-7.71697e-12
1.03047e-08
-6.75237e-12
1.03105e-08
-5.82819e-12
1.03155e-08
-4.94277e-12
1.03196e-08
-4.09493e-12
1.03228e-08
-3.28297e-12
1.03253e-08
-2.5057e-12
1.03271e-08
-1.76178e-12
1.03282e-08
-1.0497e-12
1.03285e-08
-3.68394e-13
1.03282e-08
2.83579e-13
1.03273e-08
9.07128e-13
1.03258e-08
1.50381e-12
1.03238e-08
2.07447e-12
1.03211e-08
2.62022e-12
1.0318e-08
3.1424e-12
1.03143e-08
3.64178e-12
1.03102e-08
4.11954e-12
1.03057e-08
4.57646e-12
1.03006e-08
5.01379e-12
1.02952e-08
5.43204e-12
1.02894e-08
5.83258e-12
1.02832e-08
6.21578e-12
1.02766e-08
6.58285e-12
1.02696e-08
6.93439e-12
1.02624e-08
7.27126e-12
1.02548e-08
7.59411e-12
1.02469e-08
7.90374e-12
1.02387e-08
8.20084e-12
1.02302e-08
8.48607e-12
1.02214e-08
8.75996e-12
1.02124e-08
9.02323e-12
1.02031e-08
9.27644e-12
1.01936e-08
9.52028e-12
1.01839e-08
9.75497e-12
1.01739e-08
9.98153e-12
1.01637e-08
1.01999e-11
1.01533e-08
1.0411e-11
1.01426e-08
1.0615e-11
1.01318e-08
1.08125e-11
1.01208e-08
1.10038e-11
1.01096e-08
1.11896e-11
1.00983e-08
1.13699e-11
1.00867e-08
1.15451e-11
1.0075e-08
1.17159e-11
1.00631e-08
1.18822e-11
1.00511e-08
1.20446e-11
1.00389e-08
1.22034e-11
1.00265e-08
1.23587e-11
1.0014e-08
1.2511e-11
1.00013e-08
1.26603e-11
9.98854e-09
1.28071e-11
9.97559e-09
1.29515e-11
9.96249e-09
1.30939e-11
9.94926e-09
1.32342e-11
9.93589e-09
1.33731e-11
9.92238e-09
1.35104e-11
9.90873e-09
1.36465e-11
9.89495e-09
1.37816e-11
9.88103e-09
1.39158e-11
9.86698e-09
1.40497e-11
9.8528e-09
1.41832e-11
9.83848e-09
1.43166e-11
9.82403e-09
1.44503e-11
9.80945e-09
1.45845e-11
9.79473e-09
1.47197e-11
9.77987e-09
1.48565e-11
9.76488e-09
1.49951e-11
9.74974e-09
1.51362e-11
9.73446e-09
1.52807e-11
9.71903e-09
1.54296e-11
9.70345e-09
1.55839e-11
9.6877e-09
1.57451e-11
9.67179e-09
1.59152e-11
9.65569e-09
1.60966e-11
9.6394e-09
1.62921e-11
9.62289e-09
1.65059e-11
9.60615e-09
1.67426e-11
9.58914e-09
1.7009e-11
9.57183e-09
1.73133e-11
9.55416e-09
1.76664e-11
9.53608e-09
1.80824e-11
9.5175e-09
1.85806e-11
9.49831e-09
1.91859e-11
9.47838e-09
1.99321e-11
9.45751e-09
2.08652e-11
9.43547e-09
2.20488e-11
9.41189e-09
2.35719e-11
9.38633e-09
2.55627e-11
9.35812e-09
2.82106e-11
9.32631e-09
3.18055e-11
9.2895e-09
3.68142e-11
9.24547e-09
4.40337e-11
9.19052e-09
5.49468e-11
9.11786e-09
7.26548e-11
9.013e-09
1.0486e-10
8.83671e-09
1.7629e-10
4.01032e-10
8.43568e-09
2.55603e-10
-5.09819e-10
5.1266e-10
-5.12723e-10
7.70858e-10
-5.15004e-10
1.02987e-09
-5.16635e-10
1.28935e-09
-5.17592e-10
1.54896e-09
-5.1785e-10
1.80833e-09
-5.1739e-10
2.06708e-09
-5.16193e-10
2.32484e-09
-5.14242e-10
2.58122e-09
-5.11527e-10
2.83583e-09
-5.08043e-10
3.08828e-09
-5.03789e-10
3.33819e-09
-4.98775e-10
3.58517e-09
-4.93015e-10
3.82886e-09
-4.86535e-10
4.06891e-09
-4.79366e-10
4.305e-09
-4.71548e-10
4.53681e-09
-4.63127e-10
4.76409e-09
-4.54153e-10
4.98657e-09
-4.44683e-10
5.20404e-09
-4.34775e-10
5.41631e-09
-4.24487e-10
5.62322e-09
-4.13881e-10
5.82466e-09
-4.03014e-10
6.02052e-09
-3.91945e-10
6.21073e-09
-3.80727e-10
6.39525e-09
-3.69413e-10
6.57406e-09
-3.58052e-10
6.74717e-09
-3.46687e-10
6.91459e-09
-3.35359e-10
7.07636e-09
-3.24105e-10
7.23255e-09
-3.12958e-10
7.38322e-09
-3.01946e-10
7.52847e-09
-2.91095e-10
7.66837e-09
-2.80425e-10
7.80304e-09
-2.69954e-10
7.93258e-09
-2.59699e-10
8.05711e-09
-2.4967e-10
8.17675e-09
-2.39878e-10
8.29161e-09
-2.3033e-10
8.40184e-09
-2.2103e-10
8.50755e-09
-2.11983e-10
8.60887e-09
-2.03189e-10
8.70593e-09
-1.94651e-10
8.79886e-09
-1.86365e-10
8.88778e-09
-1.78331e-10
8.97281e-09
-1.70547e-10
9.05409e-09
-1.63008e-10
9.13173e-09
-1.5571e-10
9.20584e-09
-1.4865e-10
9.27655e-09
-1.41823e-10
9.34397e-09
-1.35223e-10
9.40821e-09
-1.28845e-10
9.46938e-09
-1.22684e-10
9.52758e-09
-1.16735e-10
9.58292e-09
-1.10992e-10
9.63549e-09
-1.05448e-10
9.6854e-09
-1.001e-10
9.73273e-09
-9.49411e-11
9.77759e-09
-8.99661e-11
9.82005e-09
-8.517e-11
9.8602e-09
-8.05473e-11
9.89814e-09
-7.60929e-11
9.93393e-09
-7.18017e-11
9.96767e-09
-6.76689e-11
9.99942e-09
-6.36897e-11
1.00293e-08
-5.98592e-11
1.00573e-08
-5.6173e-11
1.00835e-08
-5.26263e-11
1.0108e-08
-4.92151e-11
1.01309e-08
-4.59348e-11
1.01522e-08
-4.27814e-11
1.0172e-08
-3.97507e-11
1.01904e-08
-3.68385e-11
1.02074e-08
-3.40413e-11
1.0223e-08
-3.13551e-11
1.02373e-08
-2.87762e-11
1.02504e-08
-2.63007e-11
1.02623e-08
-2.39257e-11
1.02731e-08
-2.1647e-11
1.02828e-08
-1.94617e-11
1.02914e-08
-1.73663e-11
1.02991e-08
-1.53579e-11
1.03058e-08
-1.34328e-11
1.03115e-08
-1.15884e-11
1.03164e-08
-9.82154e-12
1.03204e-08
-8.12953e-12
1.03237e-08
-6.50909e-12
1.03261e-08
-4.95795e-12
1.03278e-08
-3.47305e-12
1.03288e-08
-2.05197e-12
1.03291e-08
-6.92073e-13
1.03288e-08
6.09005e-13
1.03279e-08
1.85377e-12
1.03263e-08
3.04454e-12
1.03242e-08
4.18359e-12
1.03216e-08
5.27322e-12
1.03184e-08
6.31527e-12
1.03147e-08
7.31229e-12
1.03106e-08
8.2658e-12
1.0306e-08
9.17813e-12
1.03009e-08
1.00509e-11
1.02955e-08
1.08861e-11
1.02896e-08
1.16856e-11
1.02834e-08
1.24508e-11
1.02768e-08
1.31836e-11
1.02698e-08
1.38855e-11
1.02626e-08
1.45581e-11
1.0255e-08
1.52027e-11
1.0247e-08
1.58211e-11
1.02388e-08
1.64143e-11
1.02303e-08
1.69837e-11
1.02216e-08
1.75307e-11
1.02125e-08
1.80567e-11
1.02032e-08
1.85623e-11
1.01937e-08
1.90492e-11
1.01839e-08
1.95182e-11
1.0174e-08
1.99703e-11
1.01637e-08
2.04067e-11
1.01533e-08
2.08283e-11
1.01427e-08
2.12359e-11
1.01319e-08
2.16305e-11
1.01209e-08
2.20128e-11
1.01097e-08
2.23837e-11
1.00983e-08
2.2744e-11
1.00868e-08
2.30943e-11
1.0075e-08
2.34353e-11
1.00632e-08
2.37678e-11
1.00511e-08
2.40924e-11
1.00389e-08
2.44096e-11
1.00265e-08
2.472e-11
1.0014e-08
2.50243e-11
1.00014e-08
2.53227e-11
9.98856e-09
2.56161e-11
9.97561e-09
2.59049e-11
9.96251e-09
2.61892e-11
9.94927e-09
2.64701e-11
9.9359e-09
2.67474e-11
9.92239e-09
2.70219e-11
9.90874e-09
2.7294e-11
9.89496e-09
2.75641e-11
9.88104e-09
2.78325e-11
9.86699e-09
2.81e-11
9.85281e-09
2.83668e-11
9.83849e-09
2.86336e-11
9.82404e-09
2.89008e-11
9.80946e-09
2.91693e-11
9.79474e-09
2.94396e-11
9.77988e-09
2.97128e-11
9.76489e-09
2.99897e-11
9.74975e-09
3.02718e-11
9.73447e-09
3.05607e-11
9.71904e-09
3.08578e-11
9.70346e-09
3.1166e-11
9.68772e-09
3.1488e-11
9.6718e-09
3.18277e-11
9.65571e-09
3.21895e-11
9.63942e-09
3.25796e-11
9.62292e-09
3.30058e-11
9.60619e-09
3.34778e-11
9.58919e-09
3.40086e-11
9.57189e-09
3.46144e-11
9.55424e-09
3.53171e-11
9.53617e-09
3.61451e-11
9.51762e-09
3.71355e-11
9.49847e-09
3.83385e-11
9.47858e-09
3.98208e-11
9.45777e-09
4.16733e-11
9.4358e-09
4.40212e-11
9.41233e-09
4.70403e-11
9.38691e-09
5.09822e-11
9.3589e-09
5.62174e-11
9.3274e-09
6.33115e-11
9.29105e-09
7.31658e-11
9.24777e-09
8.73042e-11
9.19422e-09
1.08505e-10
9.12449e-09
1.4238e-10
9.02748e-09
2.01875e-10
8.88148e-09
3.22283e-10
6.16458e-10
8.66606e-09
2.58394e-10
-7.68213e-10
5.18249e-10
-7.72578e-10
7.79245e-10
-7.76e-10
1.04105e-09
-7.78438e-10
1.30331e-09
-7.79853e-10
1.56567e-09
-7.80209e-10
1.82775e-09
-7.79472e-10
2.08917e-09
-7.7761e-10
2.34952e-09
-7.74597e-10
2.60841e-09
-7.70413e-10
2.86541e-09
-7.65047e-10
3.12012e-09
-7.58498e-10
3.37212e-09
-7.50776e-10
3.62102e-09
-7.41909e-10
3.86642e-09
-7.31935e-10
4.10796e-09
-7.20907e-10
4.3453e-09
-7.0889e-10
4.57813e-09
-6.95959e-10
4.80618e-09
-6.82199e-10
5.02919e-09
-6.67696e-10
5.24696e-09
-6.52546e-10
5.45932e-09
-6.3684e-10
5.66611e-09
-6.20673e-10
5.86723e-09
-6.04137e-10
6.0626e-09
-5.87317e-10
6.25218e-09
-5.703e-10
6.43592e-09
-5.53161e-10
6.61385e-09
-5.35974e-10
6.78596e-09
-5.18804e-10
6.95232e-09
-5.01712e-10
7.11296e-09
-4.84752e-10
7.26797e-09
-4.67969e-10
7.41744e-09
-4.51407e-10
7.56144e-09
-4.35101e-10
7.7001e-09
-4.1908e-10
7.83351e-09
-4.03372e-10
7.96181e-09
-3.87995e-10
8.08511e-09
-3.72968e-10
8.20353e-09
-3.58304e-10
8.31722e-09
-3.44011e-10
8.42628e-09
-3.30096e-10
8.53086e-09
-3.16564e-10
8.63109e-09
-3.03416e-10
8.72709e-09
-2.90652e-10
8.819e-09
-2.7827e-10
8.90693e-09
-2.66266e-10
8.99102e-09
-2.54636e-10
9.07139e-09
-2.43374e-10
9.14815e-09
-2.32475e-10
9.22143e-09
-2.21931e-10
9.29134e-09
-2.11736e-10
9.358e-09
-2.0188e-10
9.42151e-09
-1.92356e-10
9.48198e-09
-1.83157e-10
9.53952e-09
-1.74273e-10
9.59423e-09
-1.65696e-10
9.6462e-09
-1.57419e-10
9.69553e-09
-1.49433e-10
9.74232e-09
-1.41729e-10
9.78665e-09
-1.343e-10
9.82862e-09
-1.27137e-10
9.8683e-09
-1.20233e-10
9.90579e-09
-1.13581e-10
9.94116e-09
-1.07172e-10
9.97449e-09
-1.00999e-10
1.00059e-08
-9.50557e-11
1.00353e-08
-8.93342e-11
1.0063e-08
-8.38279e-11
1.00889e-08
-7.85301e-11
1.01131e-08
-7.34342e-11
1.01357e-08
-6.85339e-11
1.01568e-08
-6.38229e-11
1.01763e-08
-5.92948e-11
1.01944e-08
-5.49442e-11
1.02111e-08
-5.07648e-11
1.02265e-08
-4.67513e-11
1.02406e-08
-4.28979e-11
1.02535e-08
-3.91992e-11
1.02653e-08
-3.56501e-11
1.02759e-08
-3.22451e-11
1.02854e-08
-2.89796e-11
1.02939e-08
-2.58483e-11
1.03014e-08
-2.28466e-11
1.03079e-08
-1.99698e-11
1.03135e-08
-1.72134e-11
1.03183e-08
-1.45727e-11
1.03222e-08
-1.20436e-11
1.03253e-08
-9.62186e-12
1.03276e-08
-7.30315e-12
1.03292e-08
-5.08381e-12
1.03302e-08
-2.95957e-12
1.03304e-08
-9.26814e-13
1.033e-08
1.01813e-12
1.0329e-08
2.87905e-12
1.03273e-08
4.65923e-12
1.03252e-08
6.36214e-12
1.03224e-08
7.99108e-12
1.03192e-08
9.54932e-12
1.03155e-08
1.10398e-11
1.03113e-08
1.24657e-11
1.03066e-08
1.38298e-11
1.03015e-08
1.51351e-11
1.02961e-08
1.63841e-11
1.02902e-08
1.75796e-11
1.02839e-08
1.87241e-11
1.02772e-08
1.98201e-11
1.02703e-08
2.08699e-11
1.02629e-08
2.1876e-11
1.02553e-08
2.28404e-11
1.02474e-08
2.37652e-11
1.02391e-08
2.46528e-11
1.02306e-08
2.55049e-11
1.02218e-08
2.63232e-11
1.02128e-08
2.711e-11
1.02035e-08
2.78669e-11
1.01939e-08
2.85955e-11
1.01841e-08
2.92973e-11
1.01741e-08
2.99742e-11
1.01639e-08
3.06274e-11
1.01535e-08
3.12584e-11
1.01428e-08
3.18686e-11
1.0132e-08
3.24594e-11
1.0121e-08
3.30318e-11
1.01098e-08
3.35873e-11
1.00984e-08
3.41267e-11
1.00868e-08
3.46513e-11
1.00751e-08
3.51621e-11
1.00632e-08
3.56601e-11
1.00512e-08
3.61462e-11
1.0039e-08
3.66215e-11
1.00266e-08
3.70865e-11
1.00141e-08
3.75423e-11
1.00014e-08
3.79896e-11
9.9886e-09
3.84292e-11
9.97564e-09
3.88617e-11
9.96254e-09
3.92881e-11
9.94931e-09
3.97087e-11
9.93593e-09
4.01245e-11
9.92241e-09
4.05359e-11
9.90876e-09
4.09436e-11
9.89498e-09
4.13484e-11
9.88106e-09
4.17509e-11
9.86701e-09
4.21518e-11
9.85283e-09
4.25516e-11
9.83851e-09
4.29515e-11
9.82406e-09
4.3352e-11
9.80947e-09
4.37542e-11
9.79475e-09
4.41594e-11
9.7799e-09
4.45687e-11
9.7649e-09
4.49837e-11
9.74977e-09
4.54062e-11
9.73449e-09
4.58386e-11
9.71906e-09
4.62836e-11
9.70348e-09
4.67449e-11
9.68775e-09
4.72266e-11
9.67184e-09
4.77343e-11
9.65575e-09
4.82752e-11
9.63948e-09
4.88579e-11
9.62299e-09
4.9494e-11
9.60627e-09
5.01981e-11
9.58929e-09
5.09891e-11
9.57201e-09
5.18914e-11
9.55439e-09
5.29372e-11
9.53637e-09
5.41683e-11
9.51786e-09
5.56399e-11
9.49878e-09
5.74254e-11
9.47897e-09
5.96237e-11
9.45828e-09
6.23683e-11
9.43646e-09
6.58428e-11
9.41319e-09
7.03045e-11
9.38805e-09
7.61196e-11
9.36045e-09
8.38252e-11
9.32952e-09
9.42329e-11
9.29407e-09
1.08622e-10
9.25225e-09
1.29118e-10
9.20128e-09
1.59481e-10
9.13672e-09
2.06943e-10
9.05183e-09
2.86765e-10
8.93992e-09
4.34184e-10
7.31805e-10
8.82458e-09
2.62619e-10
-1.03083e-09
5.26708e-10
-1.03667e-09
7.91943e-10
-1.04124e-09
1.05798e-09
-1.04447e-09
1.32446e-09
-1.04633e-09
1.591e-09
-1.04675e-09
1.85722e-09
-1.04569e-09
2.12272e-09
-1.0431e-09
2.38705e-09
-1.03893e-09
2.64979e-09
-1.03316e-09
2.91049e-09
-1.02574e-09
3.16869e-09
-1.01669e-09
3.42392e-09
-1.00601e-09
3.67576e-09
-9.93748e-10
3.92378e-09
-9.79953e-10
4.16759e-09
-9.64712e-10
4.40682e-09
-9.48123e-10
4.64116e-09
-9.303e-10
4.87033e-09
-9.11368e-10
5.09409e-09
-8.91458e-10
5.31225e-09
-8.70704e-10
5.52465e-09
-8.49241e-10
5.73117e-09
-8.27198e-10
5.93174e-09
-8.04704e-10
6.1263e-09
-7.81877e-10
6.31483e-09
-7.58831e-10
6.49734e-09
-7.3567e-10
6.67386e-09
-7.12489e-10
6.84443e-09
-6.89375e-10
7.00912e-09
-6.66405e-10
7.16802e-09
-6.43648e-10
7.32121e-09
-6.21164e-10
7.46881e-09
-5.99005e-10
7.61092e-09
-5.77216e-10
7.74768e-09
-5.55833e-10
7.87919e-09
-5.34887e-10
8.0056e-09
-5.14404e-10
8.12704e-09
-4.94403e-10
8.24363e-09
-4.74898e-10
8.35552e-09
-4.559e-10
8.46284e-09
-4.37416e-10
8.56572e-09
-4.19448e-10
8.66431e-09
-4.01998e-10
8.75872e-09
-3.85063e-10
8.84909e-09
-3.6864e-10
8.93555e-09
-3.52724e-10
9.01822e-09
-3.37306e-10
9.09722e-09
-3.2238e-10
9.17268e-09
-3.07936e-10
9.24471e-09
-2.93964e-10
9.31343e-09
-2.80454e-10
9.37895e-09
-2.67396e-10
9.44137e-09
-2.54778e-10
9.5008e-09
-2.4259e-10
9.55735e-09
-2.3082e-10
9.61111e-09
-2.19457e-10
9.66218e-09
-2.08491e-10
9.71066e-09
-1.97909e-10
9.75663e-09
-1.87702e-10
9.80019e-09
-1.77858e-10
9.84142e-09
-1.68367e-10
9.8804e-09
-1.59218e-10
9.91723e-09
-1.50402e-10
9.95196e-09
-1.41909e-10
9.98469e-09
-1.33728e-10
1.00155e-08
-1.2585e-10
1.00444e-08
-1.18267e-10
1.00716e-08
-1.10968e-10
1.0097e-08
-1.03945e-10
1.01207e-08
-9.71895e-11
1.01429e-08
-9.0693e-11
1.01635e-08
-8.4447e-11
1.01827e-08
-7.84438e-11
1.02004e-08
-7.26752e-11
1.02168e-08
-6.71335e-11
1.02318e-08
-6.18114e-11
1.02456e-08
-5.67016e-11
1.02582e-08
-5.17966e-11
1.02697e-08
-4.70898e-11
1.028e-08
-4.2574e-11
1.02893e-08
-3.8243e-11
1.02975e-08
-3.40898e-11
1.03048e-08
-3.01084e-11
1.03111e-08
-2.62925e-11
1.03165e-08
-2.26359e-11
1.03211e-08
-1.91331e-11
1.03248e-08
-1.57779e-11
1.03277e-08
-1.25651e-11
1.03299e-08
-9.48889e-12
1.03314e-08
-6.54417e-12
1.03322e-08
-3.72572e-12
1.03323e-08
-1.02851e-12
1.03317e-08
1.55243e-12
1.03306e-08
4.02186e-12
1.03289e-08
6.38419e-12
1.03266e-08
8.64419e-12
1.03238e-08
1.08062e-11
1.03204e-08
1.28744e-11
1.03166e-08
1.48527e-11
1.03123e-08
1.67456e-11
1.03076e-08
1.85564e-11
1.03025e-08
2.02892e-11
1.02969e-08
2.19476e-11
1.02909e-08
2.35348e-11
1.02846e-08
2.50546e-11
1.02779e-08
2.651e-11
1.02709e-08
2.79042e-11
1.02635e-08
2.92403e-11
1.02558e-08
3.05213e-11
1.02479e-08
3.17498e-11
1.02396e-08
3.29287e-11
1.0231e-08
3.40608e-11
1.02222e-08
3.51483e-11
1.02131e-08
3.61937e-11
1.02038e-08
3.71994e-11
1.01942e-08
3.81678e-11
1.01844e-08
3.91006e-11
1.01744e-08
4.00003e-11
1.01641e-08
4.08687e-11
1.01537e-08
4.17077e-11
1.0143e-08
4.2519e-11
1.01322e-08
4.33047e-11
1.01212e-08
4.40659e-11
1.01099e-08
4.48046e-11
1.00985e-08
4.55223e-11
1.0087e-08
4.62201e-11
1.00752e-08
4.68998e-11
1.00633e-08
4.75624e-11
1.00513e-08
4.82093e-11
1.00391e-08
4.88417e-11
1.00267e-08
4.94607e-11
1.00142e-08
5.00674e-11