/*--------------------------------*- C++ -*----------------------------------*\
  =========                 |
  \\      /  F ield         | OpenFOAM: The Open Source CFD Toolbox
   \\    /   O peration     | Website:  https://openfoam.org
    \\  /    A nd           | Version:  10
     \\/     M anipulation  |
\*---------------------------------------------------------------------------*/
FoamFile
{
    format      ascii;
    class       volVectorField;
    location    "0.93";
    object      Ua;
}
// * * * * * * * * * * * * * * * * * * * * * * * * * * * * * * * * * * * * * //

dimensions      [0 1 -1 0 0 0 0];

internalField   nonuniform List<vector> 
12225
(
(4.89322e-05 -6.26603e-06 0)
(0.00014311 -5.86871e-06 0)
(0.000228658 -5.13978e-06 0)
(0.000304267 -4.31858e-06 0)
(0.000370528 -3.56578e-06 0)
(0.000428984 -2.96066e-06 0)
(0.000481447 -2.52975e-06 0)
(0.000529649 -2.27515e-06 0)
(0.00057513 -2.19409e-06 0)
(0.000619266 -2.29162e-06 0)
(0.000663366 -2.59114e-06 0)
(0.000708836 -3.14867e-06 0)
(0.000757437 -4.08095e-06 0)
(0.000811774 -5.63282e-06 0)
(0.0008764 -8.36608e-06 0)
(0.000960967 -1.38112e-05 0)
(0.00109219 -2.74564e-05 0)
(0.00137853 -7.78872e-05 0)
(3.32965e-05 -1.63198e-05 0)
(9.80655e-05 -1.53813e-05 0)
(0.000158386 -1.35644e-05 0)
(0.000213273 -1.14758e-05 0)
(0.000262779 -9.53705e-06 0)
(0.000307582 -7.96618e-06 0)
(0.000348624 -6.84451e-06 0)
(0.000386894 -6.18746e-06 0)
(0.000423336 -5.99562e-06 0)
(0.000458846 -6.28914e-06 0)
(0.000494321 -7.13694e-06 0)
(0.000530753 -8.69598e-06 0)
(0.000569396 -1.12873e-05 0)
(0.000612068 -1.5574e-05 0)
(0.000661781 -2.30417e-05 0)
(0.000724102 -3.75422e-05 0)
(0.000809182 -7.14177e-05 0)
(0.000915794 -0.000176051 0)
(2.60386e-05 -2.26046e-05 0)
(7.71708e-05 -2.15005e-05 0)
(0.000125842 -1.91439e-05 0)
(0.000171257 -1.6345e-05 0)
(0.000213246 -1.36961e-05 0)
(0.000252096 -1.15235e-05 0)
(0.000288335 -9.96562e-06 0)
(0.000322589 -9.06446e-06 0)
(0.000355502 -8.83721e-06 0)
(0.000387719 -9.32633e-06 0)
(0.000419912 -1.06433e-05 0)
(0.000452833 -1.30267e-05 0)
(0.00048742 -1.695e-05 0)
(0.000524956 -2.33627e-05 0)
(0.000567296 -3.42951e-05 0)
(0.000616902 -5.45566e-05 0)
(0.000674218 -9.69245e-05 0)
(0.000716275 -0.000197166 0)
(2.13045e-05 -2.67733e-05 0)
(6.35089e-05 -2.57063e-05 0)
(0.000104484 -2.31068e-05 0)
(0.000143573 -1.99031e-05 0)
(0.0001805 -1.68083e-05 0)
(0.000215322 -1.4239e-05 0)
(0.000248315 -1.23893e-05 0)
(0.000279868 -1.13346e-05 0)
(0.000310425 -1.11149e-05 0)
(0.000340454 -1.17978e-05 0)
(0.000370457 -1.35329e-05 0)
(0.000400997 -1.66223e-05 0)
(0.000432742 -2.16449e-05 0)
(0.0004665 -2.97146e-05 0)
(0.000503142 -4.30618e-05 0)
(0.000542873 -6.63909e-05 0)
(0.000581633 -0.000109816 0)
(0.000597746 -0.000192108 0)
(1.78359e-05 -2.9409e-05 0)
(5.3468e-05 -2.85148e-05 0)
(8.87071e-05 -2.58731e-05 0)
(0.000123011 -2.24761e-05 0)
(0.000156052 -1.9123e-05 0)
(0.000187747 -1.63051e-05 0)
(0.0002182 -1.42702e-05 0)
(0.000247635 -1.31289e-05 0)
(0.000276342 -1.29474e-05 0)
(0.000304649 -1.3818e-05 0)
(0.000332918 -1.59218e-05 0)
(0.000361544 -1.9604e-05 0)
(0.000390954 -2.54995e-05 0)
(0.00042154 -3.47667e-05 0)
(0.000453404 -4.95444e-05 0)
(0.000485397 -7.37756e-05 0)
(0.000512247 -0.000114179 0)
(0.000518471 -0.000178326 0)
(1.5138e-05 -3.08137e-05 0)
(4.56313e-05 -3.01892e-05 0)
(7.63241e-05 -2.7651e-05 0)
(0.000106768 -2.42189e-05 0)
(0.000136621 -2.07525e-05 0)
(0.000165713 -1.78043e-05 0)
(0.00019403 -1.56707e-05 0)
(0.00022167 -1.44977e-05 0)
(0.000248802 -1.43777e-05 0)
(0.000275639 -1.54257e-05 0)
(0.000302419 -1.7845e-05 0)
(0.000329388 -2.20023e-05 0)
(0.000356756 -2.85391e-05 0)
(0.000384584 -3.85544e-05 0)
(0.000412448 -5.38937e-05 0)
(0.000438602 -7.74806e-05 0)
(0.000458216 -0.000113122 0)
(0.000461495 -0.000162495 0)
(1.29634e-05 -3.11763e-05 0)
(3.92911e-05 -3.08907e-05 0)
(6.62444e-05 -2.85624e-05 0)
(9.34541e-05 -2.52167e-05 0)
(0.000120586 -2.17535e-05 0)
(0.00014742 -1.87734e-05 0)
(0.000173861 -1.6615e-05 0)
(0.000199911 -1.54571e-05 0)
(0.000225642 -1.54169e-05 0)
(0.000251165 -1.66277e-05 0)
(0.000276611 -1.93051e-05 0)
(0.000302093 -2.3815e-05 0)
(0.000327644 -3.07622e-05 0)
(0.000353079 -4.11101e-05 0)
(0.000377687 -5.63101e-05 0)
(0.000399636 -7.82957e-05 0)
(0.000415139 -0.000108828 0)
(0.000418429 -0.000147058 0)
(1.11693e-05 -3.06317e-05 0)
(3.40402e-05 -3.07316e-05 0)
(5.78416e-05 -2.86883e-05 0)
(8.22721e-05 -2.55211e-05 0)
(0.000107021 -2.21552e-05 0)
(0.000131846 -1.92264e-05 0)
(0.000156597 -1.71076e-05 0)
(0.000181201 -1.60061e-05 0)
(0.00020565 -1.60601e-05 0)
(0.00022997 -1.74161e-05 0)
(0.000254196 -2.02912e-05 0)
(0.000278329 -2.50307e-05 0)
(0.000302265 -3.217e-05 0)
(0.000325665 -4.2493e-05 0)
(0.000347716 -5.70439e-05 0)
(0.000366786 -7.69477e-05 0)
(0.000380166 -0.000102727 0)
(0.00038463 -0.00013277 0)
(9.66562e-06 -2.92893e-05 0)
(2.96202e-05 -2.97999e-05 0)
(5.0719e-05 -2.80882e-05 0)
(7.27195e-05 -2.51662e-05 0)
(9.53464e-05 -2.19727e-05 0)
(0.000118355 -1.91658e-05 0)
(0.000141557 -1.71435e-05 0)
(0.000164826 -1.61351e-05 0)
(0.000188086 -1.6295e-05 0)
(0.00021129 -1.77765e-05 0)
(0.000234392 -2.07887e-05 0)
(0.000257304 -2.56407e-05 0)
(0.000279825 -3.2778e-05 0)
(0.00030154 -4.27932e-05 0)
(0.000321658 -5.63683e-05 0)
(0.00033886 -7.40471e-05 0)
(0.000351325 -9.57062e-05 0)
(0.000357319 -0.000119744 0)
(8.39037e-06 -2.72482e-05 0)
(2.58536e-05 -2.81717e-05 0)
(4.46039e-05 -2.68112e-05 0)
(6.44526e-05 -2.41779e-05 0)
(8.5169e-05 -2.12146e-05 0)
(0.000106518 -1.85893e-05 0)
(0.000128291 -1.67134e-05 0)
(0.000150319 -1.58308e-05 0)
(0.00017247 -1.61061e-05 0)
(0.000194636 -1.76935e-05 0)
(0.000216704 -2.07853e-05 0)
(0.000238519 -2.56446e-05 0)
(0.000259823 -3.26196e-05 0)
(0.00028018 -4.21238e-05 0)
(0.000298891 -5.4551e-05 0)
(0.000314957 -7.00714e-05 0)
(0.000327204 -8.82865e-05 0)
(0.000334731 -0.000107868 0)
(7.29814e-06 -2.46066e-05 0)
(2.26095e-05 -2.59192e-05 0)
(3.92946e-05 -2.49018e-05 0)
(5.72196e-05 -2.25788e-05 0)
(7.62041e-05 -1.98883e-05 0)
(9.60321e-05 -1.74935e-05 0)
(0.000116483 -1.58076e-05 0)
(0.000137354 -1.50801e-05 0)
(0.00015847 -1.54792e-05 0)
(0.000179672 -1.7154e-05 0)
(0.000200796 -2.02744e-05 0)
(0.000221638 -2.50531e-05 0)
(0.000241914 -3.1744e-05 0)
(0.000261205 -4.06094e-05 0)
(0.000278931 -5.18343e-05 0)
(0.000294364 -6.53751e-05 0)
(0.000306772 -8.07631e-05 0)
(0.0003157 -9.69787e-05 0)
(6.27621e-06 -2.17105e-05 0)
(1.95855e-05 -2.33428e-05 0)
(3.43762e-05 -2.26213e-05 0)
(5.05627e-05 -2.05937e-05 0)
(6.79987e-05 -1.81843e-05 0)
(8.64746e-05 -1.60391e-05 0)
(0.000105754 -1.45624e-05 0)
(0.000125606 -1.40016e-05 0)
(0.000145817 -1.45231e-05 0)
(0.000166193 -1.62671e-05 0)
(0.000186532 -1.93806e-05 0)
(0.000206607 -2.40301e-05 0)
(0.000226128 -3.03925e-05 0)
(0.000244716 -3.86186e-05 0)
(0.000261896 -4.87612e-05 0)
(0.000277136 -6.06729e-05 0)
(0.000289956 -7.39044e-05 0)
(0.000300112 -8.76831e-05 0)
(5.60443e-06 -1.8505e-05 0)
(1.7553e-05 -2.03736e-05 0)
(3.09768e-05 -1.9895e-05 0)
(4.58498e-05 -1.81489e-05 0)
(6.20745e-05 -1.60333e-05 0)
(7.94632e-05 -1.41622e-05 0)
(9.77793e-05 -1.292e-05 0)
(0.000116776 -1.25438e-05 0)
(0.000136219 -1.31931e-05 0)
(0.000155884 -1.49964e-05 0)
(0.000175545 -1.80769e-05 0)
(0.000194958 -2.25596e-05 0)
(0.000213838 -2.85591e-05 0)
(0.000231844 -3.6146e-05 0)
(0.000248591 -4.52932e-05 0)
(0.00026369 -5.58122e-05 0)
(0.000276831 -6.73077e-05 0)
(0.000287886 -7.91936e-05 0)
(4.92757e-06 -1.46461e-05 0)
(1.54741e-05 -1.66245e-05 0)
(2.74591e-05 -1.63255e-05 0)
(4.09566e-05 -1.48637e-05 0)
(5.59237e-05 -1.30848e-05 0)
(7.21876e-05 -1.15458e-05 0)
(8.95047e-05 -1.05934e-05 0)
(0.000107612 -1.04443e-05 0)
(0.000126251 -1.12441e-05 0)
(0.000145173 -1.31048e-05 0)
(0.000164134 -1.61228e-05 0)
(0.00018288 -2.03822e-05 0)
(0.00020114 -2.59423e-05 0)
(0.000218621 -3.28117e-05 0)
(0.000235027 -4.09141e-05 0)
(0.000250086 -5.00554e-05 0)
(0.000263607 -5.99109e-05 0)
(0.000275532 -7.00539e-05 0)
(4.21253e-06 -1.01995e-05 0)
(1.32545e-05 -1.19932e-05 0)
(2.37013e-05 -1.17434e-05 0)
(3.57836e-05 -1.05513e-05 0)
(4.94992e-05 -9.15436e-06 0)
(6.46588e-05 -8.01055e-06 0)
(8.09894e-05 -7.40675e-06 0)
(9.82031e-05 -7.52793e-06 0)
(0.000116021 -8.49943e-06 0)
(0.000134177 -1.04128e-05 0)
(0.000152416 -1.33379e-05 0)
(0.000170494 -1.73235e-05 0)
(0.000188166 -2.23874e-05 0)
(0.000205198 -2.84993e-05 0)
(0.00022137 -3.55626e-05 0)
(0.000236499 -4.34014e-05 0)
(0.000250468 -5.17642e-05 0)
(0.000263245 -6.03483e-05 0)
(3.30834e-06 -5.31256e-06 0)
(1.05121e-05 -6.37086e-06 0)
(1.92416e-05 -5.99311e-06 0)
(2.99182e-05 -5.06189e-06 0)
(4.25037e-05 -4.10601e-06 0)
(5.66983e-05 -3.43032e-06 0)
(7.21209e-05 -3.23587e-06 0)
(8.84336e-05 -3.66579e-06 0)
(0.000105366 -4.8237e-06 0)
(0.000122689 -6.78382e-06 0)
(0.000140186 -9.59721e-06 0)
(0.000157648 -1.32901e-05 0)
(0.000174872 -1.78549e-05 0)
(0.000191662 -2.32424e-05 0)
(0.000207842 -2.93547e-05 0)
(0.000223273 -3.60434e-05 0)
(0.000237859 -4.31182e-05 0)
(0.000251564 -5.03651e-05 0)
(1.66677e-06 2.26219e-08 0)
(5.80769e-06 4.18554e-07 0)
(1.20918e-05 9.79564e-07 0)
(2.09763e-05 1.56779e-06 0)
(3.21781e-05 2.03183e-06 0)
(4.5287e-05 2.21313e-06 0)
(5.99216e-05 1.97124e-06 0)
(7.57262e-05 1.1961e-06 0)
(9.23712e-05 -1.91565e-07 0)
(0.000109561 -2.24367e-06 0)
(0.000127073 -5.10132e-06 0)
(0.000144714 -8.66042e-06 0)
(0.000162268 -1.2885e-05 0)
(0.000179534 -1.77203e-05 0)
(0.000196344 -2.30767e-05 0)
(0.000212566 -2.88339e-05 0)
(0.00022811 -3.48504e-05 0)
(0.000242929 -4.09754e-05 0)
(3.91008e-06 6.3591e-06 0)
(1.19651e-05 8.6127e-06 0)
(2.07991e-05 9.64285e-06 0)
(3.08917e-05 1.00003e-05 0)
(4.24531e-05 9.94291e-06 0)
(5.54647e-05 9.51243e-06 0)
(6.97561e-05 8.67136e-06 0)
(8.50862e-05 7.37091e-06 0)
(0.000101196 5.57421e-06 0)
(0.000117834 3.26164e-06 0)
(0.000134739 3.18485e-07 0)
(0.000151669 -3.1288e-06 0)
(0.000168518 -7.29712e-06 0)
(0.000185209 -1.18452e-05 0)
(0.000201599 -1.66975e-05 0)
(0.000217569 -2.17644e-05 0)
(0.000233031 -2.69474e-05 0)
(0.000247932 -3.21465e-05 0)
(5.43045e-06 1.50262e-05 0)
(1.66561e-05 1.84743e-05 0)
(2.86272e-05 2.00564e-05 0)
(4.14097e-05 2.03461e-05 0)
(5.50801e-05 1.97838e-05 0)
(6.96474e-05 1.8625e-05 0)
(8.50375e-05 1.69986e-05 0)
(0.000101114 1.49661e-05 0)
(0.000117707 1.25592e-05 0)
(0.000134637 9.80008e-06 0)
(0.000151727 6.71108e-06 0)
(0.000168816 3.32272e-06 0)
(0.000185699 -5.91401e-07 0)
(0.000202202 -4.73746e-06 0)
(0.000218301 -9.1722e-06 0)
(0.000233977 -1.36518e-05 0)
(0.000249176 -1.81167e-05 0)
(0.000263867 -2.25083e-05 0)
(6.16323e-06 2.45142e-05 0)
(1.90289e-05 2.79379e-05 0)
(3.28882e-05 2.94618e-05 0)
(4.76122e-05 2.94722e-05 0)
(6.31193e-05 2.84044e-05 0)
(7.93224e-05 2.65969e-05 0)
(9.61065e-05 2.4278e-05 0)
(0.000113331 2.15926e-05 0)
(0.000130843 1.86312e-05 0)
(0.000148487 1.54528e-05 0)
(0.000166118 1.21005e-05 0)
(0.000183602 8.611e-06 0)
(0.000200828 5.0195e-06 0)
(0.000217701 1.32219e-06 0)
(0.00023408 -2.56041e-06 0)
(0.000249914 -6.56758e-06 0)
(0.000265246 -1.04693e-05 0)
(0.000280062 -1.42349e-05 0)
(7.30195e-06 3.25132e-05 0)
(2.24261e-05 3.52763e-05 0)
(3.85047e-05 3.62552e-05 0)
(5.53732e-05 3.57317e-05 0)
(7.2882e-05 3.41083e-05 0)
(9.08887e-05 3.17393e-05 0)
(0.000109248 2.88881e-05 0)
(0.000127812 2.57344e-05 0)
(0.000146434 2.2395e-05 0)
(0.000164977 1.89454e-05 0)
(0.000183317 1.5436e-05 0)
(0.000201348 1.19038e-05 0)
(0.000218983 8.37897e-06 0)
(0.000236154 4.88887e-06 0)
(0.000252811 1.45448e-06 0)
(0.000268868 -2.07091e-06 0)
(0.000284307 -5.58981e-06 0)
(0.000299178 -8.93178e-06 0)
(8.69125e-06 3.88407e-05 0)
(2.65129e-05 4.0826e-05 0)
(4.51408e-05 4.11188e-05 0)
(6.44093e-05 3.99813e-05 0)
(8.41332e-05 3.78003e-05 0)
(0.000104134 3.49322e-05 0)
(0.000124242 3.16521e-05 0)
(0.000144304 2.81522e-05 0)
(0.00016418 2.45586e-05 0)
(0.000183747 2.09508e-05 0)
(0.000202906 1.73785e-05 0)
(0.000221573 1.38738e-05 0)
(0.000239686 1.0459e-05 0)
(0.000257203 7.1516e-06 0)
(0.000274095 3.96619e-06 0)
(0.000290351 9.06392e-07 0)
(0.000305922 -2.16922e-06 0)
(0.000320825 -5.14107e-06 0)
(1.03661e-05 4.31328e-05 0)
(3.14192e-05 4.43767e-05 0)
(5.30466e-05 4.39921e-05 0)
(7.50785e-05 4.2269e-05 0)
(9.73081e-05 3.95961e-05 0)
(0.000119535 3.63289e-05 0)
(0.000141581 3.27419e-05 0)
(0.000163293 2.90267e-05 0)
(0.000184543 2.53067e-05 0)
(0.000205232 2.16569e-05 0)
(0.000225282 1.81205e-05 0)
(0.000244639 1.47217e-05 0)
(0.000263268 1.14738e-05 0)
(0.00028115 8.38453e-06 0)
(0.000298282 5.459e-06 0)
(0.000314672 2.70075e-06 0)
(0.000330338 7.94509e-08 0)
(0.000345266 -2.50545e-06 0)
(1.23759e-05 4.52499e-05 0)
(3.72979e-05 4.58482e-05 0)
(6.24827e-05 4.4878e-05 0)
(8.77399e-05 4.26725e-05 0)
(0.000112846 3.96289e-05 0)
(0.000137591 3.60985e-05 0)
(0.000161799 3.23477e-05 0)
(0.000185332 2.85583e-05 0)
(0.000208087 2.48435e-05 0)
(0.000229993 2.12685e-05 0)
(0.000251004 1.78667e-05 0)
(0.000271097 1.46529e-05 0)
(0.000290269 1.16312e-05 0)
(0.000308529 8.80099e-06 0)
(0.000325899 6.15898e-06 0)
(0.00034241 3.70126e-06 0)
(0.000358101 1.42367e-06 0)
(0.000373 -7.39131e-07 0)
(1.47974e-05 4.51664e-05 0)
(4.43744e-05 4.5239e-05 0)
(7.38112e-05 4.38219e-05 0)
(0.000102877 4.12859e-05 0)
(0.000131331 3.80326e-05 0)
(0.000158965 3.44031e-05 0)
(0.000185624 3.06483e-05 0)
(0.000211199 2.69337e-05 0)
(0.000235624 2.33579e-05 0)
(0.00025887 1.99731e-05 0)
(0.000280931 1.68018e-05 0)
(0.000301824 1.38492e-05 0)
(0.00032158 1.11117e-05 0)
(0.000340242 8.58111e-06 0)
(0.000357859 6.2481e-06 0)
(0.000374487 4.10316e-06 0)
(0.000390186 2.1372e-06 0)
(0.000405017 3.39872e-07 0)
(1.77562e-05 4.28964e-05 0)
(5.30134e-05 4.25754e-05 0)
(8.76105e-05 4.08786e-05 0)
(0.000121254 3.81967e-05 0)
(0.000153685 3.49233e-05 0)
(0.000184713 3.13792e-05 0)
(0.000214219 2.77924e-05 0)
(0.000242146 2.43072e-05 0)
(0.000268482 2.10048e-05 0)
(0.000293254 1.79234e-05 0)
(0.000316509 1.50749e-05 0)
(0.000338312 1.24565e-05 0)
(0.000358735 1.00579e-05 0)
(0.000377859 7.86591e-06 0)
(0.000395765 5.86708e-06 0)
(0.000412535 4.04838e-06 0)
(0.000428252 2.39778e-06 0)
(0.000442997 9.04074e-07 0)
(2.14772e-05 3.84312e-05 0)
(6.38682e-05 3.78581e-05 0)
(0.000104917 3.60705e-05 0)
(0.000144242 3.34529e-05 0)
(0.000181568 3.03718e-05 0)
(0.000216737 2.71151e-05 0)
(0.000249694 2.38794e-05 0)
(0.000280457 2.07839e-05 0)
(0.000309096 1.7891e-05 0)
(0.000335711 1.52257e-05 0)
(0.000360418 1.27907e-05 0)
(0.00038334 1.05772e-05 0)
(0.000404603 8.57081e-06 0)
(0.000424328 6.75574e-06 0)
(0.000442634 5.11649e-06 0)
(0.000459635 3.63873e-06 0)
(0.000475439 2.30942e-06 0)
(0.000490147 1.11673e-06 0)
(2.64281e-05 3.16577e-05 0)
(7.83021e-05 3.09861e-05 0)
(0.000127902 2.93208e-05 0)
(0.000174722 2.70063e-05 0)
(0.000218475 2.43572e-05 0)
(0.000259063 2.16118e-05 0)
(0.000296531 1.89271e-05 0)
(0.000331012 1.63935e-05 0)
(0.000362688 1.40544e-05 0)
(0.000391763 1.19233e-05 0)
(0.000418444 9.99646e-06 0)
(0.000442933 8.26191e-06 0)
(0.000465419 6.70419e-06 0)
(0.000486077 5.30742e-06 0)
(0.000505071 4.05661e-06 0)
(0.00052255 2.93823e-06 0)
(0.000538652 1.94016e-06 0)
(0.000553504 1.05151e-06 0)
(3.38982e-05 2.2173e-05 0)
(0.000100084 2.15815e-05 0)
(0.000162595 2.02954e-05 0)
(0.000220743 1.85745e-05 0)
(0.000274237 1.6648e-05 0)
(0.000323089 1.46842e-05 0)
(0.000367506 1.27898e-05 0)
(0.000407802 1.10231e-05 0)
(0.000444335 9.40923e-06 0)
(0.000477462 7.95303e-06 0)
(0.000507524 6.64822e-06 0)
(0.000534832 5.48337e-06 0)
(0.000559664 4.44543e-06 0)
(0.00058227 3.5216e-06 0)
(0.000602873 2.70012e-06 0)
(0.000621668 1.97056e-06 0)
(0.000638831 1.32372e-06 0)
(0.00065452 7.51278e-07 0)
(5.21847e-05 8.35461e-06 0)
(0.000153628 8.10369e-06 0)
(0.000248497 7.59151e-06 0)
(0.000335769 6.92049e-06 0)
(0.000415179 6.17909e-06 0)
(0.000486984 5.43086e-06 0)
(0.000551743 4.71518e-06 0)
(0.000610142 4.05271e-06 0)
(0.000662888 3.45162e-06 0)
(0.00071065 2.91256e-06 0)
(0.000754025 2.43227e-06 0)
(0.000793537 2.00573e-06 0)
(0.000829639 1.62751e-06 0)
(0.000862716 1.29239e-06 0)
(0.000893099 9.9568e-07 0)
(0.000921073 7.33236e-07 0)
(0.000946882 5.01448e-07 0)
(0.000970734 2.97019e-07 0)
(0.000112568 -0.000240609 -3.10847e-30)
(0.000338595 -0.000240219 3.10076e-30)
(0.000565967 -0.000239533 0)
(0.000794407 -0.000238548 0)
(0.00102363 -0.000237257 0)
(0.00125333 -0.00023566 -3.03103e-30)
(0.0014832 -0.000233752 0)
(0.00171293 -0.000231535 0)
(0.00194218 -0.000229008 0)
(0.00217064 -0.000226174 0)
(0.00239795 -0.00022304 2.85441e-30)
(0.00262379 -0.000219612 0)
(0.00284782 -0.000215901 0)
(0.00306971 -0.000211921 0)
(0.00328913 -0.000207688 0)
(0.00350578 -0.000203221 2.58518e-30)
(0.00371935 -0.000198542 0)
(0.00392958 -0.000193675 0)
(0.00413619 -0.000188644 0)
(0.00433896 -0.000183476 0)
(0.00453766 -0.000178197 0)
(0.00473211 -0.000172833 0)
(0.00492215 -0.000167412 0)
(0.00510764 -0.000161957 2.03295e-30)
(0.00528847 -0.000156493 -1.96019e-30)
(0.00546455 -0.000151041 1.88766e-30)
(0.00563581 -0.000145623 1.81561e-30)
(0.00580223 -0.000140257 0)
(0.00596376 -0.000134959 0)
(0.00612042 -0.000129744 -1.60466e-30)
(0.00627221 -0.000124626 -1.53671e-30)
(0.00641917 -0.000119615 0)
(0.00656135 -0.00011472 0)
(0.0066988 -0.000109949 -1.34198e-30)
(0.00683159 -0.000105308 0)
(0.00695979 -0.000100801 0)
(0.0070835 -9.64324e-05 1.16274e-30)
(0.00720281 -9.22031e-05 0)
(0.0073178 -8.81147e-05 1.05247e-30)
(0.00742859 -8.41674e-05 2.00029e-30)
(0.00753528 -8.03604e-05 0)
(0.00763798 -7.66927e-05 0)
(0.00773679 -7.31622e-05 0)
(0.00783182 -6.97668e-05 0)
(0.00792319 -6.65036e-05 0)
(0.008011 -6.33699e-05 1.44894e-30)
(0.00809536 -6.03622e-05 1.3692e-30)
(0.00817637 -5.74772e-05 1.29271e-30)
(0.00825415 -5.47113e-05 0)
(0.0083288 -5.2061e-05 -1.14911e-30)
(0.00840042 -4.95224e-05 0)
(0.00846911 -4.70919e-05 1.01735e-30)
(0.00853497 -4.47659e-05 9.55664e-31)
(0.00859809 -4.25406e-05 0)
(0.00865857 -4.04125e-05 0)
(0.0087165 -3.83779e-05 0)
(0.00877197 -3.64335e-05 7.34686e-31)
(0.00882507 -3.45758e-05 0)
(0.00887588 -3.28016e-05 0)
(0.00892448 -3.11075e-05 0)
(0.00897095 -2.94906e-05 0)
(0.00901538 -2.79477e-05 0)
(0.00905783 -2.64759e-05 0)
(0.00909838 -2.50724e-05 0)
(0.0091371 -2.37345e-05 0)
(0.00917405 -2.24595e-05 -3.63972e-31)
(0.00920932 -2.12449e-05 0)
(0.00924295 -2.00881e-05 0)
(0.00927502 -1.89868e-05 2.71824e-31)
(0.00930558 -1.79388e-05 2.44007e-31)
(0.0093347 -1.69418e-05 0)
(0.00936243 -1.59936e-05 -1.92386e-31)
(0.00938882 -1.50922e-05 1.68461e-31)
(0.00941394 -1.42357e-05 0)
(0.00943782 -1.3422e-05 -1.24129e-31)
(0.00946053 -1.26494e-05 0)
(0.00948212 -1.19161e-05 0)
(0.00950262 -1.12203e-05 6.56893e-32)
(0.00952208 -1.05604e-05 0)
(0.00954056 -9.93492e-06 -3.15663e-32)
(0.00955809 -9.34218e-06 0)
(0.0095747 -8.78076e-06 9.23389e-34)
(0.00959046 -8.24923e-06 -1.31866e-32)
(0.00960538 -7.74623e-06 -2.65409e-32)
(0.00961951 -7.27045e-06 -7.83435e-32)
(0.00963288 -6.82062e-06 1.02235e-31)
(0.00964553 -6.39551e-06 0)
(0.0096575 -5.99397e-06 0)
(0.0096688 -5.61486e-06 0)
(0.00967948 -5.25711e-06 1.85263e-31)
(0.00968957 -4.91967e-06 2.03187e-31)
(0.00969908 -4.60156e-06 -2.20081e-31)
(0.00970806 -4.30181e-06 0)
(0.00971652 -4.0195e-06 2.50994e-31)
(0.0097245 -3.75377e-06 2.65114e-31)
(0.00973201 -3.50375e-06 2.78394e-31)
(0.00973908 -3.26865e-06 0)
(0.00974573 -3.0477e-06 0)
(0.00975198 -2.84015e-06 0)
(0.00975786 -2.64529e-06 3.23996e-31)
(0.00976338 -2.46245e-06 0)
(0.00976856 -2.29097e-06 0)
(0.00977343 -2.13025e-06 -3.51353e-31)
(0.00977799 -1.97968e-06 0)
(0.00978226 -1.83872e-06 0)
(0.00978627 -1.70681e-06 -3.73853e-31)
(0.00979001 -1.58346e-06 0)
(0.00979352 -1.46816e-06 0)
(0.0097968 -1.36046e-06 3.92256e-31)
(0.00979987 -1.25991e-06 3.97599e-31)
(0.00980273 -1.1661e-06 0)
(0.0098054 -1.07863e-06 -4.07235e-31)
(0.00980789 -9.97114e-07 0)
(0.00981022 -9.21194e-07 4.156e-31)
(0.00981238 -8.50529e-07 0)
(0.0098144 -7.84797e-07 4.22851e-31)
(0.00981628 -7.23691e-07 4.26094e-31)
(0.00981802 -6.6692e-07 0)
(0.00981965 -6.1421e-07 0)
(0.00982115 -5.65301e-07 0)
(0.00982255 -5.19947e-07 0)
(0.00982385 -4.77917e-07 0)
(0.00982506 -4.38991e-07 0)
(0.00982617 -4.02964e-07 0)
(0.0098272 -3.69639e-07 4.44919e-31)
(0.00982816 -3.38834e-07 -4.46552e-31)
(0.00982904 -3.10375e-07 0)
(0.00982986 -2.84099e-07 0)
(0.00983061 -2.59854e-07 0)
(0.00983131 -2.37493e-07 0)
(0.00983195 -2.16882e-07 -9.06073e-31)
(0.00983254 -1.97891e-07 0)
(0.00983308 -1.80401e-07 9.09954e-31)
(0.00983358 -1.64295e-07 -9.11667e-31)
(0.00983404 -1.49468e-07 0)
(0.00983446 -1.35816e-07 0)
(0.00983485 -1.23243e-07 0)
(0.0098352 -1.11654e-07 9.17267e-31)
(0.00983552 -1.00962e-07 9.18402e-31)
(0.00983582 -9.10793e-08 0)
(0.00983608 -8.19213e-08 9.20421e-31)
(0.00983633 -7.34045e-08 9.2132e-31)
(0.00983654 -6.54446e-08 -9.22169e-31)
(0.00983674 -5.79555e-08 0)
(0.00983691 -5.08475e-08 0)
(0.00983707 -4.4025e-08 -9.24433e-31)
(0.0098372 -3.73839e-08 0)
(0.00983731 -3.08083e-08 0)
(0.0098374 -2.41664e-08 0)
(0.00983747 -1.73056e-08 0)
(0.00983752 -1.00453e-08 9.27988e-31)
(0.00983754 -2.16975e-09 9.28804e-31)
(0.00983753 6.58334e-09 0)
(0.00983749 1.65356e-08 9.30735e-31)
(0.00983742 2.80852e-08 0)
(0.00983729 4.17294e-08 0)
(0.00983711 5.8092e-08 9.34996e-31)
(0.00983687 7.79614e-08 0)
(0.00983654 1.02338e-07 9.39518e-31)
(0.0098361 1.32499e-07 0)
(0.00983554 1.70082e-07 0)
(0.00983481 2.17195e-07 9.51229e-31)
(0.00983388 2.76573e-07 0)
(0.00983267 3.51778e-07 9.64941e-31)
(0.00983113 4.47486e-07 0)
(0.00982914 5.69889e-07 0)
(0.00982658 7.27259e-07 0)
(0.00982329 9.30789e-07 -1.02392e-30)
(0.00981901 1.19584e-06 0)
(0.00981346 1.5439e-06 1.08639e-30)
(0.00980619 2.0057e-06 0)
(0.00979661 2.62648e-06 0)
(0.00978387 3.47537e-06 0)
(0.00976672 4.66316e-06 0)
(0.00974322 6.37885e-06 0)
(0.00971022 8.97331e-06 0)
(0.00966214 1.31795e-05 0)
(0.00958763 2.08155e-05 -6.11539e-30)
(0.00945806 3.77099e-05 0)
(0.00917089 9.06837e-05 0)
(0.000113183 -0.000723142 9.34235e-30)
(0.000340441 -0.000721965 -9.31909e-30)
(0.000569047 -0.0007199 0)
(0.00079872 -0.00071693 1.84945e-29)
(0.00102917 -0.000713044 0)
(0.00126009 -0.00070823 -9.13878e-30)
(0.00149117 -0.000702482 -1.80883e-29)
(0.00172208 -0.000695796 -1.79046e-29)
(0.0019525 -0.000688176 0)
(0.00218207 -0.000679628 -1.74649e-29)
(0.00241046 -0.000670168 8.63326e-30)
(0.00263733 -0.000659819 0)
(0.00286232 -0.000648613 0)
(0.00308509 -0.00063659 0)
(0.00330532 -0.000623803 0)
(0.00352268 -0.000610308 7.84646e-30)
(0.00373688 -0.000596173 0)
(0.00394762 -0.000581472 1.48443e-29)
(0.00415464 -0.00056628 0)
(0.00435771 -0.000550678 0)
(0.00455662 -0.000534748 -1.36077e-29)
(0.00475118 -0.000518571 0)
(0.00494124 -0.000502225 1.27489e-29)
(0.00512665 -0.000485786 6.21812e-30)
(0.00530733 -0.000469327 -6.00325e-30)
(0.00548318 -0.000452913 5.78904e-30)
(0.00565415 -0.000436607 5.57627e-30)
(0.00582021 -0.000420465 0)
(0.00598135 -0.000404536 0)
(0.00613756 -0.000388863 -4.95348e-30)
(0.00628888 -0.000373486 -1.41104e-29)
(0.00643534 -0.000358436 0)
(0.006577 -0.00034374 0)
(0.00671391 -0.000329421 -4.17841e-30)
(0.00684616 -0.000315495 0)
(0.00697381 -0.000301976 0)
(0.00709697 -0.000288873 3.64982e-30)
(0.00721573 -0.000276192 0)
(0.00733019 -0.000263936 9.80122e-30)
(0.00744045 -0.000252104 6.34108e-30)
(0.00754661 -0.000240695 0)
(0.0076488 -0.000229705 0)
(0.00774711 -0.000219127 -1.0597e-29)
(0.00784167 -0.000208955 -1.00621e-29)
(0.00793257 -0.00019918 -9.54821e-30)
(0.00801993 -0.000189793 1.37713e-29)
(0.00810385 -0.000180784 4.48183e-30)
(0.00818445 -0.000172143 -3.8701e-30)
(0.00826183 -0.00016386 7.69111e-30)
(0.0083361 -0.000155922 -3.83368e-30)
(0.00840735 -0.00014832 0)
(0.00847568 -0.000141041 3.44572e-30)
(0.0085412 -0.000134075 9.389e-30)
(0.00860401 -0.000127411 0)
(0.00866418 -0.000121038 0)
(0.00872182 -0.000114945 0)
(0.00877701 -0.000109122 2.61353e-30)
(0.00882984 -0.000103559 0)
(0.0088804 -9.82457e-05 4.24054e-30)
(0.00892876 -9.31724e-05 0)
(0.008975 -8.833e-05 3.71897e-30)
(0.00901921 -8.37093e-05 0)
(0.00906145 -7.93016e-05 -3.24405e-30)
(0.0091018 -7.50984e-05 0)
(0.00914033 -7.10914e-05 2.81215e-30)
(0.00917711 -6.72729e-05 -4.13356e-30)
(0.00921221 -6.36351e-05 0)
(0.00924568 -6.01706e-05 -2.23761e-30)
(0.00927759 -5.68723e-05 1.25108e-30)
(0.00930801 -5.37334e-05 1.16922e-30)
(0.00933699 -5.07472e-05 0)
(0.00936459 -4.79073e-05 -2.60967e-30)
(0.00939086 -4.52075e-05 9.46875e-31)
(0.00941585 -4.2642e-05 0)
(0.00943963 -4.02049e-05 -8.16408e-31)
(0.00946223 -3.78908e-05 -1.06532e-30)
(0.00948371 -3.56943e-05 0)
(0.00950412 -3.36103e-05 6.44422e-31)
(0.0095235 -3.16339e-05 0)
(0.00954189 -2.97602e-05 9.34478e-32)
(0.00955933 -2.79848e-05 0)
(0.00957587 -2.63031e-05 -1.67955e-33)
(0.00959155 -2.4711e-05 4.12314e-31)
(0.00960641 -2.32043e-05 6.6545e-31)
(0.00962047 -2.17792e-05 1.10655e-30)
(0.00963379 -2.04317e-05 -8.94409e-31)
(0.00964638 -1.91584e-05 0)
(0.00965829 -1.79556e-05 0)
(0.00966954 -1.682e-05 0)
(0.00968018 -1.57483e-05 -5.57086e-31)
(0.00969022 -1.47375e-05 -3.04355e-31)
(0.00969969 -1.37846e-05 2.54644e-31)
(0.00970863 -1.28867e-05 0)
(0.00971705 -1.20411e-05 4.26595e-31)
(0.00972499 -1.12451e-05 -1.22154e-31)
(0.00973247 -1.04961e-05 -8.30822e-32)
(0.00973951 -9.79189e-06 0)
(0.00974613 -9.13e-06 0)
(0.00975235 -8.50826e-06 0)
(0.00975821 -7.92455e-06 5.1081e-32)
(0.0097637 -7.37682e-06 0)
(0.00976886 -6.86315e-06 1.13545e-30)
(0.0097737 -6.38169e-06 1.05458e-30)
(0.00977825 -5.93066e-06 -1.23365e-30)
(0.0097825 -5.50837e-06 0)
(0.00978649 -5.11323e-06 -1.51747e-30)
(0.00979022 -4.7437e-06 0)
(0.00979371 -4.39831e-06 -1.39501e-30)
(0.00979698 -4.07567e-06 1.68087e-30)
(0.00980003 -3.77447e-06 1.72831e-30)
(0.00980288 -3.49344e-06 0)
(0.00980554 -3.2314e-06 1.22195e-30)
(0.00980802 -2.9872e-06 -1.54361e-30)
(0.00981034 -2.75976e-06 3.20554e-31)
(0.00981249 -2.54807e-06 0)
(0.0098145 -2.35115e-06 3.41877e-31)
(0.00981637 -2.16809e-06 -1.27846e-30)
(0.00981811 -1.99802e-06 0)
(0.00981973 -1.84011e-06 -1.66443e-30)
(0.00982123 -1.69359e-06 -1.67986e-30)
(0.00982262 -1.55772e-06 -1.69417e-30)
(0.00982391 -1.43181e-06 0)
(0.00982511 -1.31519e-06 0)
(0.00982622 -1.20726e-06 0)
(0.00982725 -1.10742e-06 2.14839e-30)
(0.0098282 -1.01514e-06 -4.1159e-31)
(0.00982908 -9.29879e-07 0)
(0.00982989 -8.51162e-07 1.7686e-30)
(0.00983064 -7.78525e-07 1.77626e-30)
(0.00983134 -7.11536e-07 0)
(0.00983198 -6.49788e-07 -8.61314e-31)
(0.00983256 -5.92894e-07 3.59163e-30)
(0.0098331 -5.40495e-07 8.72723e-31)
(0.0098336 -4.92247e-07 -4.49059e-30)
(0.00983406 -4.47827e-07 0)
(0.00983448 -4.06929e-07 0)
(0.00983486 -3.69261e-07 0)
(0.00983521 -3.34546e-07 8.94222e-31)
(0.00983554 -3.02516e-07 4.55036e-30)
(0.00983583 -2.72911e-07 3.65903e-30)
(0.0098361 -2.4548e-07 9.0351e-31)
(0.00983634 -2.1997e-07 4.57633e-30)
(0.00983655 -1.9613e-07 -9.08658e-31)
(0.00983675 -1.73703e-07 0)
(0.00983692 -1.52419e-07 0)
(0.00983708 -1.31994e-07 -4.60398e-30)
(0.00983721 -1.12116e-07 0)
(0.00983732 -9.24375e-08 0)
(0.00983741 -7.25663e-08 3.70106e-30)
(0.00983748 -5.20454e-08 0)
(0.00983753 -3.03361e-08 4.63572e-30)
(0.00983755 -6.79348e-09 9.28327e-31)
(0.00983754 1.93655e-08 0)
(0.00983751 4.91013e-08 4.66036e-30)
(0.00983743 8.36033e-08 0)
(0.00983731 1.24355e-07 0)
(0.00983713 1.73219e-07 9.46901e-31)
(0.00983689 2.32549e-07 3.76396e-30)
(0.00983657 3.05332e-07 9.6051e-31)
(0.00983614 3.95377e-07 0)
(0.00983559 5.07571e-07 0)
(0.00983487 6.48207e-07 4.84495e-30)
(0.00983395 8.25438e-07 0)
(0.00983276 1.04989e-06 4.96855e-30)
(0.00983124 1.3355e-06 0)
(0.00982928 1.70072e-06 0)
(0.00982677 2.17019e-06 0)
(0.00982352 2.7772e-06 -1.21486e-30)
(0.00981932 3.56745e-06 0)
(0.00981386 4.60469e-06 1.40291e-30)
(0.00980672 5.98002e-06 0)
(0.00979732 7.82721e-06 0)
(0.00978485 1.03499e-05 5.83652e-30)
(0.0097681 1.3873e-05 -6.55874e-30)
(0.00974524 1.89461e-05 0)
(0.00971338 2.65769e-05 0)
(0.00966759 3.88215e-05 0)
(0.00959878 6.05462e-05 1.79595e-29)
(0.00948944 0.000105863 0)
(0.00931694 0.000227942 -1.01313e-28)
(0.000114419 -0.00120963 6.25228e-29)
(0.000344154 -0.00120765 -8.19012e-33)
(0.000575243 -0.00120418 0)
(0.0008074 -0.00119919 1.91266e-32)
(0.00104032 -0.00119266 0)
(0.0012737 -0.00118457 0)
(0.00150722 -0.00117491 -6.05633e-29)
(0.00174053 -0.00116366 -2.99977e-29)
(0.00197329 -0.00115083 2.96085e-29)
(0.00220514 -0.00113643 -2.92719e-29)
(0.00243572 -0.00112048 0)
(0.00266467 -0.00110301 0)
(0.00289161 -0.00108408 -2.7818e-29)
(0.00311619 -0.00106377 -5.4554e-29)
(0.00333805 -0.00104215 5.3405e-29)
(0.00355685 -0.00101934 0)
(0.00377229 -0.00099545 5.0929e-29)
(0.00398406 -0.000970608 2.49015e-29)
(0.0041919 -0.000944951 0)
(0.00439557 -0.00091862 4.68687e-29)
(0.00459488 -0.000891755 -2.28343e-29)
(0.00478963 -0.000864497 -4.40148e-29)
(0.00497968 -0.00083698 2.14002e-29)
(0.00516492 -0.000809333 0)
(0.00534526 -0.000781678 3.96545e-29)
(0.00552062 -0.000754127 3.82053e-29)
(0.00569098 -0.000726782 0)
(0.00585632 -0.000699735 3.53457e-29)
(0.00601663 -0.000673069 0)
(0.00617194 -0.000646854 3.25671e-29)
(0.0063223 -0.000621152 -1.57578e-29)
(0.00646774 -0.000596015 0)
(0.00660834 -0.000571487 0)
(0.00674416 -0.000547601 0)
(0.0068753 -0.000524386 0)
(0.00700185 -0.000501859 0)
(0.0071239 -0.000480037 0)
(0.00724156 -0.000458925 2.27e-29)
(0.00735493 -0.000438528 -1.06411e-29)
(0.00746412 -0.000418845 0)
(0.00756924 -0.00039987 0)
(0.0076704 -0.000381596 0)
(0.00776772 -0.000364012 -3.5804e-29)
(0.00786131 -0.000347106 -1.72025e-29)
(0.00795128 -0.000330862 -3.75485e-31)
(0.00803774 -0.000315265 3.79563e-31)
(0.0081208 -0.000300299 -1.43747e-29)
(0.00820057 -0.000285945 -1.40085e-29)
(0.00827715 -0.000272185 2.61891e-29)
(0.00835065 -0.000259002 1.22071e-29)
(0.00842116 -0.000246375 0)
(0.0084888 -0.000234286 1.09098e-29)
(0.00855365 -0.000222718 2.10089e-29)
(0.00861581 -0.00021165 0)
(0.00867537 -0.000201066 0)
(0.00873243 -0.000190948 -8.63472e-30)
(0.00878706 -0.000181277 0)
(0.00883936 -0.000172038 0)
(0.00888941 -0.000163213 2.19558e-29)
(0.00893729 -0.000154788 1.34726e-29)
(0.00898308 -0.000146745 6.73819e-30)
(0.00902685 -0.000139071 0)
(0.00906868 -0.00013175 -5.95487e-30)
(0.00910863 -0.000124768 0)
(0.00914679 -0.000118113 1.48636e-29)
(0.00918321 -0.00011177 -4.91113e-30)