/*--------------------------------*- C++ -*----------------------------------*\
  =========                 |
  \\      /  F ield         | OpenFOAM: The Open Source CFD Toolbox
   \\    /   O peration     | Website:  https://openfoam.org
    \\  /    A nd           | Version:  10
     \\/     M anipulation  |
\*---------------------------------------------------------------------------*/
FoamFile
{
    format      ascii;
    class       volScalarField;
    location    "0.016";
    object      T;
}
// * * * * * * * * * * * * * * * * * * * * * * * * * * * * * * * * * * * * * //

dimensions      [0 0 0 1 0 0 0];

internalField   nonuniform List<scalar> 
12225
(
3.12771e-09
3.11295e-09
3.10965e-09
3.10745e-09
3.10633e-09
3.10693e-09
3.10696e-09
3.10611e-09
3.10605e-09
3.10728e-09
3.10864e-09
3.10936e-09
3.1099e-09
3.11951e-09
3.42137e-09
1.06165e-08
1.48219e-07
2.32529e-06
3.11258e-09
3.10928e-09
3.10759e-09
3.10588e-09
3.10481e-09
3.10591e-09
3.10698e-09
3.10651e-09
3.10591e-09
3.10659e-09
3.10796e-09
3.10892e-09
3.10937e-09
3.11266e-09
3.22917e-09
6.23422e-09
6.71763e-08
1.0691e-06
3.1039e-09
3.10871e-09
3.10779e-09
3.10487e-09
3.10361e-09
3.10462e-09
3.10559e-09
3.10542e-09
3.1053e-09
3.10603e-09
3.10714e-09
3.108e-09
3.10895e-09
3.11074e-09
3.14904e-09
4.21647e-09
2.74083e-08
4.31098e-07
3.10486e-09
3.10287e-09
3.10205e-09
3.10199e-09
3.10208e-09
3.103e-09
3.10405e-09
3.10468e-09
3.10545e-09
3.10677e-09
3.10834e-09
3.1096e-09
3.11052e-09
3.11132e-09
3.12255e-09
3.47967e-09
1.1874e-08
1.66617e-07
3.10015e-09
3.10062e-09
3.1022e-09
3.10062e-09
3.09985e-09
3.10202e-09
3.10456e-09
3.10562e-09
3.10599e-09
3.10678e-09
3.10802e-09
3.10917e-09
3.11021e-09
3.11133e-09
3.11535e-09
3.22951e-09
6.1397e-09
6.27422e-08
3.08947e-09
3.091e-09
3.09461e-09
3.09701e-09
3.09848e-09
3.10053e-09
3.10244e-09
3.10378e-09
3.10548e-09
3.1078e-09
3.11017e-09
3.11203e-09
3.11342e-09
3.1146e-09
3.11628e-09
3.14906e-09
4.06586e-09
2.31864e-08
3.08359e-09
3.08796e-09
3.09544e-09
3.09733e-09
3.09736e-09
3.10046e-09
3.10458e-09
3.10738e-09
3.1092e-09
3.11079e-09
3.11238e-09
3.11387e-09
3.11528e-09
3.11674e-09
3.11826e-09
3.12746e-09
3.39056e-09
9.37086e-09
3.08433e-09
3.08436e-09
3.09093e-09
3.09497e-09
3.09818e-09
3.10262e-09
3.10606e-09
3.10832e-09
3.11077e-09
3.11388e-09
3.11706e-09
3.1197e-09
3.1218e-09
3.12353e-09
3.12504e-09
3.12808e-09
3.19856e-09
4.93601e-09
3.05981e-09
3.08271e-09
3.09574e-09
3.09927e-09
3.10158e-09
3.10687e-09
3.11278e-09
3.1172e-09
3.12039e-09
3.12295e-09
3.125e-09
3.12668e-09
3.12826e-09
3.1299e-09
3.13154e-09
3.13334e-09
3.15095e-09
3.61089e-09
3.07948e-09
3.09117e-09
3.10103e-09
3.10753e-09
3.11289e-09
3.1186e-09
3.1232e-09
3.12613e-09
3.12887e-09
3.13212e-09
3.13541e-09
3.13826e-09
3.14064e-09
3.14266e-09
3.14437e-09
3.14579e-09
3.15017e-09
3.26084e-09
3.079e-09
3.10224e-09
3.119e-09
3.1252e-09
3.12924e-09
3.13544e-09
3.1417e-09
3.14599e-09
3.14896e-09
3.15138e-09
3.15314e-09
3.1542e-09
3.15495e-09
3.15572e-09
3.15649e-09
3.15721e-09
3.15836e-09
3.18292e-09
3.13799e-09
3.14067e-09
3.1481e-09
3.15338e-09
3.15666e-09
3.16059e-09
3.16372e-09
3.16534e-09
3.16665e-09
3.16839e-09
3.17034e-09
3.17199e-09
3.17318e-09
3.17398e-09
3.17452e-09
3.1748e-09
3.17508e-09
3.1806e-09
3.1527e-09
3.17664e-09
3.18633e-09
3.18891e-09
3.18873e-09
3.19058e-09
3.19307e-09
3.19411e-09
3.19425e-09
3.19409e-09
3.19341e-09
3.19227e-09
3.19107e-09
3.19004e-09
3.18926e-09
3.18848e-09
3.18776e-09
3.18803e-09
3.24935e-09
3.24246e-09
3.23394e-09
3.23155e-09
3.22995e-09
3.22861e-09
3.22677e-09
3.22378e-09
3.22056e-09
3.21796e-09
3.2159e-09
3.21409e-09
3.21225e-09
3.21043e-09
3.20854e-09
3.20683e-09
3.20492e-09
3.20351e-09
3.30153e-09
3.29475e-09
3.29355e-09
3.29188e-09
3.28444e-09
3.27471e-09
3.26546e-09
3.25739e-09
3.25024e-09
3.24373e-09
3.2378e-09
3.23235e-09
3.22725e-09
3.22257e-09
3.21825e-09
3.21446e-09
3.21085e-09
3.20773e-09
3.43394e-09
3.37866e-09
3.33946e-09
3.30813e-09
3.28545e-09
3.26946e-09
3.25717e-09
3.2474e-09
3.23921e-09
3.23177e-09
3.225e-09
3.21907e-09
3.21387e-09
3.20914e-09
3.20476e-09
3.20065e-09
3.1968e-09
3.19326e-09
3.17566e-09
3.17641e-09
3.17562e-09
3.17769e-09
3.17917e-09
3.17815e-09
3.1742e-09
3.16869e-09
3.16266e-09
3.15639e-09
3.1503e-09
3.14469e-09
3.1395e-09
3.13474e-09
3.13039e-09
3.12646e-09
3.1228e-09
3.11958e-09
3.03339e-09
3.02073e-09
3.00991e-09
3.00019e-09
2.99192e-09
2.98639e-09
2.98264e-09
2.97959e-09
2.97677e-09
2.97423e-09
2.97189e-09
2.96963e-09
2.9675e-09
2.9657e-09
2.9643e-09
2.96312e-09
2.962e-09
2.9611e-09
2.61112e-09
2.62883e-09
2.64161e-09
2.64959e-09
2.65803e-09
2.66634e-09
2.67312e-09
2.67844e-09
2.68266e-09
2.68619e-09
2.6895e-09
2.6927e-09
2.69569e-09
2.6984e-09
2.70071e-09
2.7025e-09
2.70384e-09
2.70503e-09
2.41915e-09
2.4251e-09
2.42688e-09
2.42483e-09
2.42518e-09
2.42697e-09
2.42919e-09
2.43168e-09
2.43428e-09
2.43707e-09
2.44027e-09
2.44384e-09
2.44756e-09
2.45127e-09
2.45479e-09
2.45799e-09
2.46089e-09
2.46372e-09
2.18899e-09
2.20733e-09
2.22321e-09
2.23404e-09
2.24373e-09
2.25189e-09
2.25876e-09
2.26456e-09
2.26928e-09
2.27346e-09
2.27774e-09
2.28222e-09
2.28664e-09
2.2908e-09
2.29458e-09
2.29798e-09
2.30101e-09
2.30393e-09
2.09913e-09
2.10931e-09
2.12137e-09
2.12984e-09
2.13477e-09
2.14006e-09
2.14597e-09
2.15067e-09
2.15433e-09
2.15809e-09
2.16204e-09
2.16586e-09
2.16954e-09
2.17312e-09
2.17666e-09
2.18011e-09
2.18345e-09
2.18676e-09
2.06977e-09
2.06284e-09
2.06128e-09
2.06397e-09
2.06651e-09
2.06971e-09
2.07376e-09
2.07747e-09
2.08079e-09
2.08425e-09
2.08765e-09
2.09064e-09
2.09339e-09
2.09622e-09
2.0992e-09
2.10208e-09
2.10482e-09
2.10745e-09
2.01368e-09
2.01279e-09
2.01499e-09
2.01761e-09
2.01857e-09
2.01975e-09
2.02191e-09
2.02431e-09
2.02661e-09
2.02889e-09
2.03128e-09
2.03378e-09
2.03648e-09
2.03934e-09
2.04222e-09
2.04505e-09
2.04784e-09
2.05057e-09
1.96429e-09
1.96811e-09
1.97037e-09
1.97265e-09
1.97461e-09
1.97677e-09
1.97996e-09
1.98371e-09
1.98741e-09
1.99087e-09
1.99399e-09
1.99679e-09
1.99948e-09
2.00215e-09
2.00466e-09
2.00701e-09
2.00922e-09
2.01145e-09
1.91351e-09
1.92884e-09
1.93679e-09
1.94205e-09
1.94593e-09
1.94917e-09
1.95259e-09
1.95591e-09
1.95894e-09
1.96201e-09
1.96518e-09
1.96828e-09
1.97114e-09
1.97388e-09
1.97668e-09
1.97954e-09
1.98236e-09
1.98509e-09
1.89728e-09
1.90823e-09
1.91397e-09
1.91733e-09
1.92128e-09
1.92587e-09
1.93087e-09
1.93559e-09
1.93969e-09
1.94346e-09
1.94725e-09
1.95092e-09
1.9542e-09
1.95709e-09
1.95971e-09
1.9622e-09
1.96462e-09
1.96705e-09
1.88255e-09
1.89308e-09
1.89979e-09
1.9048e-09
1.91003e-09
1.91482e-09
1.91943e-09
1.92375e-09
1.92759e-09
1.93112e-09
1.93462e-09
1.9381e-09
1.94154e-09
1.94491e-09
1.94823e-09
1.95147e-09
1.9545e-09
1.95731e-09
1.86929e-09
1.88203e-09
1.88922e-09
1.89517e-09
1.90124e-09
1.90683e-09
1.91203e-09
1.91682e-09
1.92117e-09
1.9253e-09
1.92939e-09
1.93333e-09
1.93696e-09
1.94025e-09
1.94323e-09
1.94601e-09
1.94865e-09
1.95133e-09
1.87906e-09
1.88087e-09
1.88714e-09
1.8937e-09
1.89939e-09
1.90453e-09
1.90963e-09
1.91445e-09
1.91875e-09
1.92286e-09
1.92702e-09
1.93115e-09
1.93497e-09
1.93837e-09
1.94144e-09
1.94437e-09
1.94716e-09
1.9501e-09
0.000525185
0.000525203
0.000524129
0.000522222
0.000521964
0.000523404
0.000524916
0.000527144
0.000529455
0.000530839
0.000531537
0.000532112
0.000532836
0.000533764
0.000534876
0.000536131
0.000537489
0.00053892
0.000540403
0.000541913
0.000543453
0.000544987
0.000546511
0.000547983
0.000549392
0.000550912
0.000552627
0.000554481
0.000556499
0.000558813
0.000561791
0.000566231
0.000572733
0.000579187
0.000583079
0.000585623
0.000589235
0.000598375
0.000610282
0.000626272
0.000644542
0.000659979
0.000683032
0.000706075
0.000726766
0.000748494
0.000771561
0.000796342
0.00081528
0.000828851
0.000844176
0.000863822
0.000897339
0.000921093
0.000918615
0.00090532
0.000893604
0.000885797
0.000880031
0.00087521
0.000870801
0.000866608
0.000862527
0.000858516
0.000854527
0.000850536
0.000846513
0.000842441
0.000838301
0.000834083
0.000829776
0.000825375
0.000820878
0.000816294
0.000811649
0.00080697
0.000802187
0.00079729
0.000792315
0.000787259
0.000782131
0.000776939
0.00077169
0.000766392
0.00076105
0.000755667
0.000750244
0.000744776
0.000739259
0.000733686
0.000728041
0.000722303
0.000716459
0.000710508
0.000704447
0.000698248
0.000691871
0.000685324
0.000678683
0.000672003
0.00066519
0.000658093
0.000650831
0.000643758
0.000636615
0.000628553
0.00062025
0.000612384
0.000604383
0.000596032
0.000587995
0.000583124
0.000584338
0.000583676
0.000570863
0.000558346
0.000556649
0.000553589
0.00054925
0.000549837
0.000552588
0.000564085
0.000604978
0.000719326
0.000974728
0.00140692
0.00192943
0.00235397
0.00256239
0.0026071
0.00258308
0.002545
0.00250937
0.00247775
0.00244899
0.00242212
0.00239641
0.00237115
0.00234542
0.00231844
0.00229028
0.00225985
0.00222552
0.00218639
0.00214229
0.00209489
0.00204619
0.00199827
0.00195432
0.00191856
0.00189066
0.00185978
0.00182678
0.0017954
0.00176664
0.00174088
0.00171818
0.00169826
0.00168067
0.0016653
0.00165158
0.00163884
0.00162776
0.00161765
0.00160697
0.00159797
0.00158984
0.0015789
0.00157037
0.00156391
0.00155209
0.0015401
0.00153424
0.00152056
0.00149249
0.00147555
0.00148439
0.00147799
0.0014378
0.00140689
0.000518332
0.000518191
0.000517689
0.000515661
0.000514792
0.000515738
0.000517921
0.000519966
0.000521422
0.000522453
0.000523482
0.000524838
0.000526605
0.000528711
0.000531045
0.000533498
0.00053599
0.000538461
0.000540869
0.000543205
0.00054545
0.000547624
0.000549699
0.000551668
0.000553476
0.000554909
0.000555965
0.0005568
0.000557569
0.00055844
0.000559747
0.000562032
0.000566176
0.000571089
0.000575085
0.000580035
0.000584896
0.000589105
0.000596777
0.000611556
0.000626365
0.000642519
0.00066423
0.000689756
0.00071349
0.000735629
0.000765627
0.000779497
0.000806466
0.000842897
0.000856479
0.000867044
0.00089779
0.000913382
0.000905634
0.000893802
0.000885466
0.000880221
0.000876665
0.000873998
0.000871825
0.000869864
0.00086796
0.000865995
0.000863915
0.000861694
0.000859316
0.000856776
0.000854062
0.000851171
0.000848089
0.00084481
0.000841317
0.00083758
0.000833547
0.00082918
0.000824554
0.000819715
0.00081466
0.000809423
0.000804026
0.000798493
0.000792846
0.000787105
0.000781284
0.000775395
0.000769438
0.000763415
0.000757322
0.000751157
0.000744919
0.000738601
0.000732192
0.000725674
0.000719021
0.000712176
0.000705069
0.000697665
0.000690014
0.000682185
0.000674129
0.000665691
0.000656923
0.000648277
0.00063998
0.000631293
0.00062192
0.000612305
0.00060199
0.000590604
0.000580249
0.00057258
0.000569013
0.000564563
0.00055117
0.000538751
0.000538385
0.000541769
0.000543261
0.000545163
0.000549862
0.000568768
0.00062772
0.000778356
0.00108831
0.00156631
0.00207684
0.00243806
0.00259245
0.00261148
0.00258045
0.00254235
0.00250869
0.0024803
0.00245652
0.00243679
0.00242048
0.00240655
0.00239324
0.00237775
0.00235697
0.00232982
0.00229493
0.00225037
0.002196
0.00213522
0.00207243
0.00201129
0.00195554
0.00190944
0.00187236
0.00183344
0.00179495
0.0017603
0.00173001
0.00170401
0.00168188
0.00166297
0.00164676
0.0016328
0.00162028
0.00160896
0.00159943
0.00159014
0.00157998
0.00157211
0.00156431
0.00155249
0.00154419
0.00153781
0.00152313
0.00150873
0.00150141
0.00148516
0.00145441
0.0014327
0.00143393
0.00142413
0.00140553
0.00139269
0.000517051
0.000517007
0.000515992
0.000515465
0.000514548
0.000514012
0.00051406
0.000514585
0.000515802
0.000517931
0.000520968
0.000524684
0.000528781
0.000533014
0.000537231
0.000541332
0.000545236
0.000548872
0.000552174
0.000555081
0.000557558
0.00055961
0.000561289
0.00056271
0.000563972
0.000565077
0.000565874
0.000566143
0.000565781
0.000564964
0.000563993
0.000563246
0.000563539
0.000565208
0.000568203
0.000572964
0.000578189
0.000583567
0.000590408
0.000599853
0.000612231
0.000626992
0.000649072
0.000682873
0.000713847
0.000752967
0.000789513
0.000818616
0.000831487
0.000863923
0.000881676
0.000889763
0.000896943
0.000894862
0.000887729
0.000883619
0.000883421
0.000885283
0.00088778
0.00089003
0.000891781
0.000892974
0.000893692
0.000894013
0.000893984
0.000893635
0.000892972
0.000892001
0.000890703
0.000889065
0.000887065
0.000884682
0.000881905
0.000878727
0.000875118
0.000871067
0.000866572
0.000861621
0.00085623
0.000850435
0.000844288
0.000837857
0.000831216
0.00082444
0.000817602
0.000810759
0.000803948
0.000797182
0.000790447
0.000783708
0.00077691
0.000769989
0.000762878
0.000755506
0.000747793
0.000739641
0.000730942
0.000721629
0.000711711
0.000701261
0.000690358
0.000679102
0.000667607
0.000655981
0.000644327
0.000632848
0.000621706
0.000610457
0.000597916
0.000583713
0.000570109
0.000558913
0.000550403
0.000540169
0.000524797
0.000513915
0.000517121
0.000528254
0.000535825
0.000540255
0.000549606
0.000579012
0.000661111
0.000853877
0.00121372
0.0017088
0.00218072
0.00248293
0.00259886
0.00260535
0.00257615
0.00254565
0.00252252
0.00250711
0.00249826
0.00249456
0.00249438
0.00249543
0.00249478
0.0024893
0.00247651
0.00245398
0.00241752
0.00236353
0.00229126
0.00220686
0.00211897
0.0020343
0.00195769
0.00189309
0.00183805
0.00178523
0.00173707
0.00169618
0.00166246
0.00163514
0.00161329
0.00159582
0.00158157
0.00156984
0.00155997
0.00155088
0.00154284
0.00153572
0.00152742
0.0015194
0.0015126
0.00150278
0.00149189
0.00148343
0.00147016
0.00145009
0.00143263
0.00141177
0.00138187
0.0013566
0.00135276
0.00135593
0.00135818
0.0013552
0.000506367
0.000506475
0.000507254
0.000506309
0.000505326
0.000506059
0.000508917
0.0005134
0.000518765
0.00052456
0.000530614
0.000536813
0.000543002
0.000549023
0.00055476
0.000560137
0.000565099
0.0005696
0.0005736
0.000577062
0.000579942
0.000582209
0.000583824
0.000584736
0.000584983
0.000584836
0.000584471
0.00058384
0.000582819
0.000581226
0.000579058
0.000576425
0.000573645
0.000571445
0.000570619
0.000571699
0.000574548
0.000579567
0.000586131
0.000593937
0.000605747
0.000619737
0.000644686
0.000678499
0.000719088
0.000774089
0.000814072
0.000848684
0.000871123
0.00088576
0.000892323
0.000895468
0.000896799
0.000896093
0.000895978
0.000898481
0.000902929
0.000908039
0.000912966
0.000917369
0.000921233
0.000924629
0.000927622
0.00093029
0.000932647
0.0009347
0.000936409
0.000937735
0.000938616
0.000938991
0.000938798
0.000937994
0.000936545
0.000934439
0.000931622
0.000928003
0.000923585
0.000918398
0.000912478
0.000905882
0.000898691
0.000891004
0.000882936
0.000874612
0.000866153
0.000857671
0.000849252
0.000840949
0.000832774
0.000824694
0.000816635
0.000808497
0.000800168
0.000791526
0.000782427
0.000772688
0.000762106
0.000750498
0.000737779
0.000723993
0.000709315
0.000694077
0.000678648
0.000663247
0.000647708
0.000632188
0.000617709
0.000604917
0.000591325
0.000575226
0.000557977
0.000542327
0.000529261
0.000514661
0.000496731
0.000486517
0.000492765
0.000508086
0.000521094
0.000532054
0.00054889
0.000590807
0.000696769
0.000924475
0.00131368
0.00180404
0.00224035
0.00250632
0.00260501
0.00261056
0.00258848
0.0025689
0.00255938
0.00255974
0.00256802
0.00258167
0.00259762
0.00261227
0.00262242
0.00262572
0.00261854
0.0025971
0.00255822
0.00249611
0.00240659
0.00229651
0.00217905
0.00206569
0.00196318
0.00187447
0.00179503
0.00172351
0.00166192
0.00161214
0.00157342
0.00154398
0.00152186
0.00150528
0.00149268
0.00148294
0.00147521
0.00146846
0.00146255
0.00145731
0.00145115
0.00144495
0.00143968
0.00143189
0.00142186
0.00141179
0.0013956
0.0013693
0.00134206
0.00131108
0.00127245
0.00124243
0.00123462
0.00123998
0.00125578
0.00127768
0.000500098
0.000501
0.000499384
0.000498897
0.000501699
0.000506511
0.000512099
0.000518535
0.000525775
0.000533429
0.000541138
0.000548699
0.000555996
0.00056294
0.000569445
0.000575421
0.000580763
0.000585365
0.000589144
0.000592062
0.00059415
0.000595492
0.000596205
0.000596519
0.000596706
0.000596813
0.000596919
0.000597176
0.000597431
0.000597141
0.000595777
0.0005932
0.000589402
0.00058482
0.000580541
0.000577807
0.00057733
0.000579735
0.000584354
0.00059169
0.000603514
0.000619461
0.000648174
0.000685511
0.000738497
0.000797268
0.000850095
0.000871932
0.000887249
0.000894832
0.000899291
0.000903425
0.000907611
0.000911978
0.000916824
0.000922421
0.000928333
0.000934369
0.000940434
0.000946588
0.000952778
0.000958988
0.000965125
0.000971124
0.000976862
0.000982235
0.000987111
0.000991381
0.000994928
0.000997666
0.000999526
0.00100047
0.00100044
0.000999387
0.000997234
0.000993914
0.000989465
0.00098395
0.00097742
0.000969955
0.000961655
0.000952648
0.00094308
0.000933108
0.000922892
0.000912582
0.000902305
0.000892154
0.00088217
0.000872339
0.000862598
0.000852838
0.000842928
0.000832722
0.000822041
0.00081065
0.000798251
0.000784494
0.000769092
0.000751974
0.000733281
0.000713432
0.000692952
0.000672465
0.000652091
0.00063191
0.000611794
0.000593868
0.000577636
0.000559893
0.000540713
0.000522912
0.000507373
0.000490824
0.000472668
0.000463604
0.000471085
0.000488613
0.000506573
0.00052334
0.000546949
0.000600597
0.000725347
0.00097371
0.00137073
0.00184684
0.00226049
0.00251429
0.00261404
0.00262735
0.00261585
0.00260892
0.00261394
0.00263017
0.00265445
0.00268213
0.00270795
0.00272791
0.00274032
0.00274423
0.0027359
0.00271204
0.00267345
0.00261199
0.00251468
0.00238504
0.0022399
0.00209766
0.00196781
0.00185289
0.00174828
0.00165562
0.00157725
0.00151505
0.00146827
0.00143456
0.00141102
0.00139488
0.00138373
0.00137595
0.00137056
0.00136647
0.00136315
0.00136064
0.00135808
0.0013553
0.00135302
0.00134866
0.00134025
0.00132795
0.00130689
0.00127262
0.00123267
0.00118918
0.00114195
0.00110646
0.00109335
0.00109525
0.00111821
0.00115971
0.000494377
0.00049325
0.000491504
0.00049463
0.00050008
0.000506733
0.000514181
0.000522112
0.000530465
0.0005393
0.000548498
0.00055776
0.000566733
0.000575139
0.000582792
0.000589561
0.000595334
0.00060002
0.000603576
0.000606016
0.000607414
0.0006079
0.000607714
0.000607112
0.00060653
0.000606238
0.000606056
0.000605756
0.00060545
0.000605316
0.000604931
0.000603632
0.000601097
0.000597236
0.000592193
0.000587133
0.000583707
0.000583069
0.000585628
0.000592276
0.000602831
0.000620393
0.000649735
0.000690545
0.000746231
0.000808834
0.000856158
0.00087901
0.000894243
0.000902356
0.000909244
0.000916126
0.000922851
0.000929542
0.000936265
0.000943318
0.000950857
0.000959158
0.000968266
0.000978109
0.00098837
0.000998762
0.00100896
0.00101874
0.00102789
0.00103629
0.00104382
0.00105043
0.00105605
0.00106065
0.00106415
0.00106646
0.00106744
0.00106693
0.00106499
0.00106177
0.00105724
0.00105138
0.00104424
0.0010359
0.0010265
0.00101619
0.00100516
0.000993577
0.000981634
0.000969512
0.000957354
0.000945262
0.000933284
0.000921436
0.000909708
0.000898043
0.000886296
0.00087425
0.000861631
0.000848131
0.000833428
0.000817129
0.000798855
0.000778482
0.000756059
0.000731982
0.00070669
0.000681163
0.000656194
0.000632109
0.000607926
0.000584206
0.000563788
0.000544042
0.000523041
0.000503402
0.000486098
0.000468233
0.000450247
0.00044215
0.000450971
0.000470401
0.000492204
0.000513733
0.000543452
0.000606119
0.000741479
0.000995674
0.00138505
0.00184589
0.00225224
0.00251387
0.00262715
0.00265242
0.00265159
0.00265632
0.0026748
0.00270522
0.0027419
0.00277807
0.00280916
0.00283398
0.00285074
0.00285367
0.00283766
0.00280623
0.00276571
0.0027069
0.00260593
0.00246249
0.00229419
0.00212553
0.00196853
0.00182719
0.0017003
0.00158857
0.00149432
0.00141943
0.00136312
0.00132278
0.00129516
0.00127702
0.00126553
0.00125856
0.00125477
0.00125311
0.00125277
0.0012536
0.00125504
0.00125621
0.00125734
0.00125617
0.00124886
0.00123416
0.00120734
0.00116263
0.00110907
0.00105406
0.000999292
0.000956154
0.000938924
0.000940745
0.000965963
0.00101693
0.000480597
0.000480364
0.00048334
0.000490017
0.000497747
0.000505435
0.000513996
0.000523888
0.000534781
0.000546249
0.000557682
0.000568419
0.000578017
0.000586322
0.000593357
0.00059917
0.000603746
0.000607023
0.000609048
0.000610012
0.000610162
0.000609913
0.000609689
0.000609421
0.000609367
0.000609929
0.000610734
0.000611165
0.00061117
0.00061128
0.000611478
0.000610703
0.000608141
0.000604237
0.000599424
0.000594229
0.000590007
0.000587913
0.000588847
0.000593667
0.000603273
0.000622256
0.000651437
0.000695456
0.000752501
0.00081535
0.000857046
0.000882789
0.000900421
0.000910954
0.000920098
0.000928469
0.00093629
0.000944419
0.000953255
0.000963401
0.000975016
0.000987993
0.00100188
0.00101615
0.00103028
0.00104387
0.00105667
0.00106859
0.00107961
0.00108977
0.00109905
0.00110746
0.00111492
0.00112131
0.00112645
0.00113008
0.00113193
0.00113203
0.00113062
0.0011276
0.00112285
0.00111637
0.00110822
0.00109855
0.00108758
0.00107553
0.00106268
0.00104926
0.00103555
0.00102177
0.00100814
0.00099478
0.00098175
0.000968971
0.000956284
0.000943458
0.000930161
0.000916017
0.000900706
0.000883987
0.000865767
0.000845835
0.000823829
0.000799642
0.000773272
0.000745046
0.00071515
0.000684792
0.000655747
0.000627957
0.000601592
0.000574507
0.000549769
0.000527984
0.000505492
0.000484067
0.000465441
0.000446817
0.00042917
0.000421827
0.00043176
0.000453347
0.000478523
0.000503873
0.000538177
0.00060605
0.000743813
0.00099212
0.00136566
0.00181222
0.00222301
0.00250498
0.00263933
0.00267863
0.00268859
0.00270517
0.00273659
0.00277816
0.00282198
0.00286295
0.00290132
0.00293813
0.00296745
0.00297424
0.00294783
0.00290045
0.00284657
0.00277836
0.0026664
0.0025083
0.00231983
0.00212944
0.00195068
0.00178769
0.00164246
0.0015157
0.0014092
0.00132465
0.00126111
0.00121545
0.00118388
0.0011629
0.00114961
0.00114191
0.00113843
0.00113809
0.00113994
0.00114332
0.00114751
0.00115168
0.00115592
0.00115825
0.00115321
0.00113534
0.00110002
0.00104408
0.000977891
0.000911486
0.000851226
0.000803655
0.000782123
0.000783613
0.000809165
0.000863411
0.000474466
0.000476208
0.000480767
0.000487525
0.00049536
0.000504678
0.000515948
0.000528522
0.000541562
0.000554373
0.000566159
0.000576519
0.000585536
0.000593418
0.000600208
0.000605694
0.000609522
0.000611458
0.000611626
0.00061044
0.000608515
0.000606765
0.000606068
0.000606286
0.000606787
0.000607564
0.000608563
0.00060934
0.000609885
0.000610855
0.000612115
0.000612535
0.00061139
0.000608735
0.00060473
0.000600102
0.000596087
0.00059345
0.000593326
0.000597206
0.000607147
0.000626327
0.000655707
0.000700542
0.000758636
0.000819606
0.000859073
0.000887599
0.000907057
0.000919364
0.000929963
0.00093955
0.000949304
0.000960485
0.000973374
0.000988233
0.00100452
0.00102153
0.00103853
0.00105501
0.00107073
0.00108569
0.00109998
0.00111371
0.00112693
0.00113961
0.00115163
0.00116276
0.0011727
0.00118112
0.00118766
0.00119214
0.00119464
0.00119509
0.00119331
0.00118938
0.00118345
0.00117564
0.00116613
0.00115507
0.00114264
0.00112912
0.00111482
0.00110007
0.00108514
0.00107025
0.00105563
0.00104149
0.0010279
0.00101459
0.00100106
0.00098676
0.000971211
0.000954064
0.000935165
0.000914404
0.000891931
0.000867868
0.000842002
0.000814217
0.000784393
0.000752562
0.000718834
0.000684295
0.000651742
0.000620271
0.000590699
0.000562094
0.000534193
0.000510173
0.000487145
0.000464849
0.000445827
0.000427679
0.000410341
0.000402503
0.00041202
0.000435527
0.000464192
0.000493139
0.000530704
0.000600272
0.00073393
0.000968306
0.00132077
0.00175364
0.00217447
0.00248396
0.0026452
0.00270232
0.0027253
0.00275402
0.00279536
0.00284241
0.00288928
0.00293702
0.00298918
0.00304344
0.00308853
0.00310379
0.00306747
0.00298944
0.00290555
0.00281479
0.0026881
0.00251176
0.00230102
0.00208933
0.00189305
0.00171698
0.00156256
0.00142922
0.00131714
0.00122732
0.00115918
0.00110996
0.00107592
0.00105323
0.00103875
0.00103036
0.00102678
0.00102701
0.0010299
0.0010344
0.00104001
0.00104673
0.0010549
0.00106144
0.00105759
0.00103395
0.000987781
0.000920601
0.000844021
0.000769309
0.000705377
0.000656584
0.000631996
0.000632544
0.000657874
0.000711688
0.000468128
0.000469945
0.000475289
0.000483418
0.000493462
0.000505458
0.000518885
0.000532896
0.000546989
0.000560429
0.000572688
0.000583969
0.00059443
0.000603982
0.000612266
0.000618643
0.000622539
0.000623804
0.000622805
0.000620127
0.000616378
0.000612772
0.000610514
0.000609106
0.000607359
0.000606012
0.000605976
0.000606745
0.000608078
0.000610199
0.000612143
0.000612662
0.000611649
0.0006095
0.000606345
0.000602703
0.00059936
0.00059695
0.000596971
0.000601308
0.000611898
0.000630789
0.000661986
0.000707325
0.000766027
0.000822692
0.000862695
0.000893133
0.000913694
0.000927409
0.000939673
0.000951333
0.00096429
0.00097932
0.000996163
0.00101447
0.0010333
0.00105208
0.00107045
0.00108843
0.00110615
0.00112377
0.0011413
0.0011586
0.00117534
0.00119111
0.00120546
0.00121797
0.0012283
0.00123623
0.00124169
0.00124483
0.00124579
0.00124452
0.00124109
0.00123575
0.00122883
0.00122052
0.00121096
0.00120024
0.00118842
0.00117561
0.00116201
0.00114778
0.00113307
0.00111794
0.00110248
0.00108681
0.001071
0.00105496
0.00103843
0.00102118
0.00100282
0.000982804
0.000960761
0.000936421
0.000909636
0.000880752
0.000850281
0.0008185
0.000785721
0.000751584
0.000715639
0.00067831
0.000642516
0.000608311
0.000575368
0.000545525
0.000516799
0.000491
0.000467762
0.000445233
0.000426503
0.000410492
0.000395241
0.00038752
0.000395256
0.000419043
0.000450166
0.000481663
0.000521131
0.00058949
0.000714437
0.000929633
0.00125674
0.00167432
0.00210665
0.00244896
0.00264294
0.00272299
0.00276091
0.00279957
0.00284561
0.00289343
0.00294364
0.00300315
0.00307319
0.00314325
0.00319717
0.00321614
0.00316715
0.00305263
0.00293466
0.00282103
0.00268083
0.00248297
0.00224902
0.00201701
0.00180153
0.0016075
0.00144532
0.00131521
0.00121051
0.0011253
0.0010581
0.00100768
0.000971758
0.000947423
0.000931864
0.000923082
0.000919737
0.000920598
0.000924167
0.000929157
0.000935713
0.000945347
0.000958132
0.00096791
0.000962197
0.00093067
0.000873382
0.000796454
0.000712833
0.000634205
0.000569002
0.000521082
0.000495023
0.000493551
0.000517509
0.000569575
0.000460526
0.000463636
0.000470477
0.000479925
0.000491422
0.000505092
0.000520071
0.000535714
0.00055122
0.000565523
0.000578683
0.000591228
0.00060292
0.000613498
0.000622539
0.00062926
0.000633121
0.000634173
0.000632921
0.000630007
0.000626119
0.000622246
0.000619165
0.000616927
0.000614814
0.000612565
0.000610903
0.000609752
0.000609392
0.000610213
0.000610891
0.000610232
0.000608273
0.000605471
0.000602336
0.000599446
0.000597289
0.000596449
0.000598283
0.000604452
0.000616709
0.000637307
0.000670615
0.000716941
0.000774029
0.00082656
0.000867752
0.00089879
0.00092014
0.000935455
0.000949745
0.000963883
0.000979961
0.000997924
0.00101728
0.00103755
0.00105809
0.00107886
0.00109986
0.00112121
0.00114282
0.00116442
0.00118547
0.0012053
0.00122321
0.0012387
0.00125157
0.00126185
0.0012697
0.00127528
0.00127872
0.00128
0.00127931
0.00127707
0.00127329
0.00126794
0.00126116
0.00125315
0.00124412
0.00123426
0.00122362
0.00121224
0.0012001
0.00118714
0.00117335
0.00115863
0.00114288
0.00112595
0.0011079
0.00108907
0.00106984
0.0010502
0.00102971
0.00100756
0.000982743
0.000954994
0.000923767
0.000889271
0.000852994
0.000816352
0.000780645
0.000745041
0.0007072
0.00066753
0.000628032
0.000590537
0.00055496
0.000523261
0.000495068
0.000469519
0.00044663
0.000424702
0.000406567
0.000393075
0.000381725
0.000377005
0.000385661
0.000408899
0.000439487
0.000470817
0.000510203
0.000574759
0.00068773
0.000880377
0.00117881
0.00157791
0.00201975
0.00239818
0.00263113
0.00273915
0.00279284
0.00283821
0.0028847
0.00293178
0.00298833
0.00306346
0.00314878
0.00321706
0.0032552
0.00327371
0.0032319
0.00310086
0.00295527
0.00282057
0.00265994
0.00243516
0.00217931
0.00193246
0.00170199
0.00148718
0.00130668
0.00117214
0.00107918
0.00101032
0.000953937
0.000908055
0.000872949
0.000847866
0.000831335
0.00082212
0.000819068
0.00082053
0.000824353
0.000829245
0.000836762
0.000849845
0.000866747
0.000877548
0.000867584
0.000827441
0.000760287
0.000676519
0.000589917
0.000511668
0.000448298
0.000402938
0.000377514
0.000373847
0.000393751
0.000441507
0.000452083
0.000455491
0.00046315
0.000473761
0.000486916
0.000502704
0.000519639
0.000536646
0.000552755
0.000567212
0.000580483
0.000592966
0.000604622
0.000615363
0.000624692
0.000631841
0.000636335
0.000638226
0.000638009
0.000636235
0.000633384
0.000630213
0.000627522
0.000625652
0.000624034
0.000622058
0.000619954
0.000617811
0.000615776
0.000614001
0.000612222
0.00061018
0.000607903
0.000605582
0.000603509
0.00060207
0.000601636
0.000602641
0.00060622
0.000613733
0.000626615
0.000648176
0.00068137
0.000727716
0.000782774
0.000833017
0.000873657
0.00090443
0.000926358
0.000943421
0.000959645
0.000976068
0.000994614
0.00101473
0.00103619
0.0010587
0.00108202
0.0011062
0.00113106
0.00115622
0.001181
0.00120454
0.00122595
0.00124459
0.00126025
0.00127326
0.00128416
0.0012934
0.00130111
0.0013072
0.00131146
0.00131349
0.00131322
0.00131112
0.00130706
0.00130087
0.00129279
0.00128322
0.00127259
0.00126124
0.00124935
0.00123701
0.0012242
0.00121084
0.00119687
0.0011821
0.00116632
0.00114934
0.00113112
0.00111192
0.00109213
0.00107142
0.00104898
0.00102406
0.000995518
0.00096304
0.000926831
0.000887626
0.000847255
0.000808295
0.000771707
0.000734893
0.000694465
0.000652252
0.000610781
0.000570976
0.000533534
0.000499275
0.000469918
0.000444949
0.000423212
0.000402913
0.000385744
0.000374217
0.000366874
0.000366553
0.00037867
0.000402192
0.000430609
0.000460106
0.000497777
0.000556685
0.000655793
0.000824123
0.00109164
0.00146809
0.00191404
0.00232772
0.00260701
0.00274798
0.00281834
0.0028683
0.00291317
0.00295958
0.00302403
0.00311462
0.00320718
0.00325592
0.00326449
0.00328106
0.00326835
0.00314009
0.00296981
0.00281291
0.0026273
0.00237616
0.00209928
0.00184092
0.00160198
0.00137506
0.00117509
0.00102505
0.000932412
0.00088018
0.00084195
0.000807207
0.000777049
0.000753748
0.000737904
0.000729306
0.000726936
0.000728612
0.000731847
0.000736219
0.000745016
0.000761417
0.000781127
0.000790864
0.000774916
0.000726257
0.000651672
0.000564751
0.000479046
0.000404191
0.000344897
0.000303229
0.000280055
0.000275758
0.000291307
0.00033207
0.000441474
0.000445511
0.000454247
0.000466143
0.000480621
0.000497394
0.000515047
0.00053245
0.000548568