/*--------------------------------*- C++ -*----------------------------------*\
  =========                 |
  \\      /  F ield         | OpenFOAM: The Open Source CFD Toolbox
   \\    /   O peration     | Website:  https://openfoam.org
    \\  /    A nd           | Version:  10
     \\/     M anipulation  |
\*---------------------------------------------------------------------------*/
FoamFile
{
    format      ascii;
    class       volScalarField;
    location    "74";
    object      p;
}
// * * * * * * * * * * * * * * * * * * * * * * * * * * * * * * * * * * * * * //

dimensions      [1 -1 -2 0 0 0 0];

internalField   nonuniform List<scalar> 
100
(
1.01908e+07
1.01905e+07
1.01901e+07
1.01896e+07
1.0189e+07
1.01883e+07
1.01877e+07
1.01869e+07
1.01861e+07
1.01853e+07
1.01844e+07
1.01835e+07
1.01826e+07
1.01816e+07
1.01806e+07
1.01795e+07
1.01784e+07
1.01773e+07
1.01762e+07
1.0175e+07
1.01738e+07
1.01725e+07
1.01712e+07
1.01699e+07
1.01686e+07
1.01672e+07
1.01658e+07
1.01644e+07
1.01629e+07
1.01614e+07
1.01599e+07
1.01584e+07
1.01568e+07
1.01553e+07
1.01536e+07
1.0152e+07
1.01503e+07
1.01487e+07
1.0147e+07
1.01452e+07
1.01435e+07
1.01417e+07
1.01399e+07
1.0138e+07
1.01362e+07
1.01343e+07
1.01324e+07
1.01305e+07
1.01285e+07
1.01265e+07
1.01246e+07
1.01225e+07
1.01205e+07
1.01184e+07
1.01164e+07
1.01143e+07
1.01121e+07
1.011e+07
1.01078e+07
1.01056e+07
1.01034e+07
1.01012e+07
1.00989e+07
1.00967e+07
1.00944e+07
1.0092e+07
1.00897e+07
1.00874e+07
1.0085e+07
1.00826e+07
1.00802e+07
1.00777e+07
1.00753e+07
1.00728e+07
1.00703e+07
1.00678e+07
1.00652e+07
1.00627e+07
1.00601e+07
1.00575e+07
1.00549e+07
1.00523e+07
1.00496e+07
1.00469e+07
1.00442e+07
1.00415e+07
1.00388e+07
1.0036e+07
1.00333e+07
1.00305e+07
1.00277e+07
1.00248e+07
1.0022e+07
1.00191e+07
1.00162e+07
1.00133e+07
1.00104e+07
1.00074e+07
1.00045e+07
1.00015e+07
)
;

boundaryField
{
    inlet
    {
        type            zeroGradient;
    }
    outlet
    {
        type            fixedValue;
        value           uniform 1e+07;
    }
    yzfaces
    {
        type            empty;
    }
}


// ************************************************************************* //
