/*--------------------------------*- C++ -*----------------------------------*\
  =========                 |
  \\      /  F ield         | OpenFOAM: The Open Source CFD Toolbox
   \\    /   O peration     | Website:  https://openfoam.org
    \\  /    A nd           | Version:  10
     \\/     M anipulation  |
\*---------------------------------------------------------------------------*/
FoamFile
{
    format      ascii;
    class       surfaceScalarField;
    location    "4800";
    object      phi;
}
// * * * * * * * * * * * * * * * * * * * * * * * * * * * * * * * * * * * * * //

dimensions      [0 3 -1 0 0 0 0];

internalField   nonuniform List<scalar> 
12640
(
-6.46671e-09
6.46671e-09
-1.29198e-08
6.4531e-09
-1.93454e-08
6.42554e-09
-2.57287e-08
6.38331e-09
-3.2054e-08
6.32535e-09
-3.83042e-08
6.25022e-09
-4.44603e-08
6.15609e-09
-5.0501e-08
6.04073e-09
-5.64025e-08
5.90148e-09
-6.21378e-08
5.73524e-09
-6.76763e-08
5.53848e-09
-7.29834e-08
5.30719e-09
-7.80204e-08
5.03695e-09
-8.27433e-08
4.72288e-09
-8.71031e-08
4.35978e-09
-9.10452e-08
3.94217e-09
-9.45096e-08
3.46441e-09
-9.74306e-08
2.92096e-09
-9.97372e-08
2.30659e-09
-1.01354e-07
1.61674e-09
-1.02202e-07
8.48016e-10
-1.02201e-07
-1.32885e-12
-1.0127e-07
-9.30693e-10
-9.93335e-08
-1.93643e-09
-9.63224e-08
-3.01108e-09
-9.21798e-08
-4.14265e-09
-8.68658e-08
-5.31397e-09
-8.03634e-08
-6.5024e-09
-7.26836e-08
-7.67978e-09
-6.38706e-08
-8.81307e-09
-5.4005e-08
-9.86554e-09
-4.32063e-08
-1.07987e-08
-3.81578e-08
-5.04856e-09
-3.29718e-08
-5.18594e-09
-2.76657e-08
-5.30616e-09
-2.22575e-08
-5.40813e-09
-1.67666e-08
-5.4909e-09
-1.1213e-08
-5.55368e-09
-5.61708e-09
-5.59588e-09
7.86042e-18
-5.61708e-09
5.61708e-09
-5.61708e-09
1.1213e-08
-5.59588e-09
1.67666e-08
-5.55368e-09
2.22575e-08
-5.4909e-09
2.76657e-08
-5.40813e-09
3.29718e-08
-5.30616e-09
3.81578e-08
-5.18594e-09
4.32063e-08
-5.04856e-09
5.4005e-08
-1.07987e-08
6.38706e-08
-9.86554e-09
7.26836e-08
-8.81307e-09
8.03634e-08
-7.67978e-09
8.68658e-08
-6.5024e-09
9.21798e-08
-5.31397e-09
9.63224e-08
-4.14265e-09
9.93335e-08
-3.01108e-09
1.0127e-07
-1.93643e-09
1.02201e-07
-9.30693e-10
1.02202e-07
-1.32885e-12
1.01354e-07
8.48016e-10
9.97372e-08
1.61674e-09
9.74306e-08
2.30659e-09
9.45096e-08
2.92096e-09
9.10452e-08
3.46441e-09
8.71031e-08
3.94217e-09
8.27433e-08
4.35978e-09
7.80204e-08
4.72288e-09
7.29834e-08
5.03695e-09
6.76763e-08
5.30719e-09
6.21378e-08
5.53848e-09
5.64025e-08
5.73524e-09
5.0501e-08
5.90148e-09
4.44603e-08
6.04073e-09
3.83042e-08
6.15609e-09
3.2054e-08
6.25022e-09
2.57287e-08
6.32535e-09
1.93454e-08
6.38331e-09
1.29198e-08
6.42554e-09
6.46671e-09
6.4531e-09
6.46671e-09
-7.0935e-09
1.35602e-08
-1.41721e-08
1.35317e-08
-2.12205e-08
1.34739e-08
-2.82226e-08
1.33854e-08
-3.51612e-08
1.3264e-08
-4.20175e-08
1.31065e-08
-4.87707e-08
1.29093e-08
-5.53974e-08
1.26675e-08
-6.18716e-08
1.23757e-08
-6.81636e-08
1.20273e-08
-7.424e-08
1.16149e-08
-8.00629e-08
1.11301e-08
-8.55896e-08
1.05637e-08
-9.07721e-08
9.90538e-09
-9.55566e-08
9.14429e-09
-9.98834e-08
8.26889e-09
-1.03686e-07
7.26739e-09
-1.06894e-07
6.12812e-09
-1.09427e-07
4.8401e-09
-1.11204e-07
3.39378e-09
-1.12138e-07
1.78197e-09
-1.1214e-07
1.0156e-12
-1.11123e-07
-1.94787e-09
-1.09003e-07
-4.05708e-09
-1.05703e-07
-6.311e-09
-1.01161e-07
-8.68451e-09
-9.5333e-08
-1.11417e-08
-8.82005e-08
-1.36349e-08
-7.97751e-08
-1.61052e-08
-7.01048e-08
-1.84833e-08
-5.92784e-08
-2.0692e-08
-4.74266e-08
-2.26504e-08
-4.18854e-08
-1.05898e-08
-3.61932e-08
-1.08781e-08
-3.03689e-08
-1.11305e-08
-2.44325e-08
-1.13445e-08
-1.84052e-08
-1.15183e-08
-1.23088e-08
-1.165e-08
-6.16605e-09
-1.17386e-08
4.17418e-18
-1.17831e-08
6.16605e-09
-1.17831e-08
1.23088e-08
-1.17386e-08
1.84052e-08
-1.165e-08
2.44325e-08
-1.15183e-08
3.03689e-08
-1.13445e-08
3.61932e-08
-1.11305e-08
4.18854e-08
-1.08781e-08
4.74266e-08
-1.05898e-08
5.92784e-08
-2.26504e-08
7.01048e-08
-2.0692e-08
7.97751e-08
-1.84833e-08
8.82005e-08
-1.61052e-08
9.5333e-08
-1.36349e-08
1.01161e-07
-1.11417e-08
1.05703e-07
-8.68451e-09
1.09003e-07
-6.311e-09
1.11123e-07
-4.05708e-09
1.1214e-07
-1.94787e-09
1.12138e-07
1.0156e-12
1.11204e-07
1.78197e-09
1.09427e-07
3.39378e-09
1.06894e-07
4.8401e-09
1.03686e-07
6.12812e-09
9.98834e-08
7.26739e-09
9.55566e-08
8.26889e-09
9.07721e-08
9.14429e-09
8.55896e-08
9.90538e-09
8.00629e-08
1.05637e-08
7.424e-08
1.11301e-08
6.81636e-08
1.16149e-08
6.18716e-08
1.20273e-08
5.53974e-08
1.23757e-08
4.87707e-08
1.26675e-08
4.20175e-08
1.29093e-08
3.51612e-08
1.31065e-08
2.82226e-08
1.3264e-08
2.12205e-08
1.33854e-08
1.41721e-08
1.34739e-08
7.0935e-09
1.35317e-08
1.35602e-08
-7.78196e-09
2.13422e-08
-1.55476e-08
2.12973e-08
-2.32802e-08
2.12065e-08
-3.09622e-08
2.10674e-08
-3.85747e-08
2.08765e-08
-4.60971e-08
2.0629e-08
-5.35067e-08
2.03188e-08
-6.0778e-08
1.99387e-08
-6.78822e-08
1.94799e-08
-7.47871e-08
1.89321e-08
-8.1456e-08
1.82837e-08
-8.78474e-08
1.75215e-08
-9.39145e-08
1.66308e-08
-9.96047e-08
1.55956e-08
-1.04859e-07
1.43986e-08
-1.09612e-07
1.30218e-08
-1.13791e-07
1.14465e-08
-1.17317e-07
9.65431e-09
-1.20105e-07
7.62797e-09
-1.22064e-07
5.35233e-09
-1.23098e-07
2.81602e-09
-1.2311e-07
1.31859e-11
-1.22003e-07
-3.05437e-09
-1.19686e-07
-6.37479e-09
-1.16073e-07
-9.92361e-09
-1.11096e-07
-1.36614e-08
-1.04706e-07
-1.75315e-08
-9.68817e-08
-2.14593e-08
-8.76352e-08
-2.53518e-08
-7.7019e-08
-2.90995e-08
-6.513e-08
-3.2581e-08
-5.21118e-08
-3.56686e-08
-4.60244e-08
-1.66772e-08
-3.97707e-08
-1.71319e-08
-3.33713e-08
-1.75298e-08
-2.68485e-08
-1.78674e-08
-2.02254e-08
-1.81414e-08
-1.35262e-08
-1.83492e-08
-6.77596e-09
-1.84889e-08
5.52901e-18
-1.85591e-08
6.77596e-09
-1.85591e-08
1.35262e-08
-1.84889e-08
2.02254e-08
-1.83492e-08
2.68485e-08
-1.81414e-08
3.33713e-08
-1.78674e-08
3.97707e-08
-1.75298e-08
4.60244e-08
-1.71319e-08
5.21118e-08
-1.66772e-08
6.513e-08
-3.56686e-08
7.7019e-08
-3.2581e-08
8.76352e-08
-2.90995e-08
9.68817e-08
-2.53518e-08
1.04706e-07
-2.14593e-08
1.11096e-07
-1.75315e-08
1.16073e-07
-1.36614e-08
1.19686e-07
-9.92361e-09
1.22003e-07
-6.37479e-09
1.2311e-07
-3.05437e-09
1.23098e-07
1.31859e-11
1.22064e-07
2.81602e-09
1.20105e-07
5.35233e-09
1.17317e-07
7.62797e-09
1.13791e-07
9.65431e-09
1.09612e-07
1.14465e-08
1.04859e-07
1.30218e-08
9.96047e-08
1.43986e-08
9.39145e-08
1.55956e-08
8.78474e-08
1.66308e-08
8.1456e-08
1.75215e-08
7.47871e-08
1.82837e-08
6.78822e-08
1.89321e-08
6.0778e-08
1.94799e-08
5.35067e-08
1.99387e-08
4.60971e-08
2.03188e-08
3.85747e-08
2.0629e-08
3.09622e-08
2.08765e-08
2.32802e-08
2.10674e-08
1.55476e-08
2.12065e-08
7.78196e-09
2.12973e-08
2.13422e-08
-8.53853e-09
2.98807e-08
-1.70592e-08
2.98181e-08
-2.55439e-08
2.96912e-08
-3.39732e-08
2.94968e-08
-4.23267e-08
2.92299e-08
-5.05818e-08
2.88841e-08
-5.87136e-08
2.84507e-08
-6.66943e-08
2.79195e-08
-7.44926e-08
2.72782e-08
-8.2073e-08
2.65125e-08
-8.93954e-08
2.56061e-08
-9.64144e-08
2.45406e-08
-1.03079e-07
2.32953e-08
-1.09331e-07
2.18478e-08
-1.15107e-07
2.0174e-08
-1.20333e-07
1.82485e-08
-1.24932e-07
1.60451e-08
-1.28816e-07
1.3538e-08
-1.31891e-07
1.07029e-08
-1.34057e-07
7.51845e-09
-1.35209e-07
3.96853e-09
-1.35241e-07
4.47379e-11
-1.34045e-07
-4.25063e-09
-1.31518e-07
-8.9012e-09
-1.27569e-07
-1.3873e-08
-1.22119e-07
-1.9111e-08
-1.15114e-07
-2.45362e-08
-1.0653e-07
-3.00438e-08
-9.63782e-08
-3.55036e-08
-8.47157e-08
-4.0762e-08
-7.16485e-08
-4.56482e-08
-5.73342e-08
-4.99828e-08
-5.0639e-08
-2.33724e-08
-4.376e-08
-2.40109e-08
-3.672e-08
-2.45698e-08
-2.95435e-08
-2.50439e-08
-2.22561e-08
-2.54288e-08
-1.48845e-08
-2.57207e-08
-7.45648e-09
-2.5917e-08
8.34789e-18
-2.60156e-08
7.45648e-09
-2.60156e-08
1.48845e-08
-2.5917e-08
2.22561e-08
-2.57207e-08
2.95435e-08
-2.54288e-08
3.672e-08
-2.50439e-08
4.376e-08
-2.45698e-08
5.0639e-08
-2.40109e-08
5.73342e-08
-2.33724e-08
7.16485e-08
-4.99828e-08
8.47157e-08
-4.56482e-08
9.63782e-08
-4.0762e-08
1.0653e-07
-3.55036e-08
1.15114e-07
-3.00438e-08
1.22119e-07
-2.45362e-08
1.27569e-07
-1.9111e-08
1.31518e-07
-1.3873e-08
1.34045e-07
-8.9012e-09
1.35241e-07
-4.25063e-09
1.35209e-07
4.47379e-11
1.34057e-07
3.96853e-09
1.31891e-07
7.51845e-09
1.28816e-07
1.07029e-08
1.24932e-07
1.3538e-08
1.20333e-07
1.60451e-08
1.15107e-07
1.82485e-08
1.09331e-07
2.0174e-08
1.03079e-07
2.18478e-08
9.64144e-08
2.32953e-08
8.93954e-08
2.45406e-08
8.2073e-08
2.56061e-08
7.44926e-08
2.65125e-08
6.66943e-08
2.72782e-08
5.87136e-08
2.79195e-08
5.05818e-08
2.84507e-08
4.23267e-08
2.88841e-08
3.39732e-08
2.92299e-08
2.55439e-08
2.94968e-08
1.70592e-08
2.96912e-08
8.53853e-09
2.98181e-08
2.98807e-08
-9.37045e-09
3.92511e-08
-1.87215e-08
3.91691e-08
-2.80332e-08
3.90029e-08
-3.72848e-08
3.87483e-08
-4.64536e-08
3.83988e-08
-5.55152e-08
3.79457e-08
-6.44425e-08
3.73779e-08
-7.32051e-08
3.6682e-08
-8.17687e-08
3.58418e-08
-9.00947e-08
3.48385e-08
-9.81392e-08
3.36507e-08
-1.05853e-07
3.22541e-08
-1.13179e-07
3.06218e-08
-1.20056e-07
2.87241e-08
-1.26411e-07
2.65295e-08
-1.32167e-07
2.40042e-08
-1.37236e-07
2.11141e-08
-1.41523e-07
1.78249e-08
-1.44924e-07
1.41045e-08
-1.4733e-07
9.92453e-09
-1.48625e-07
5.26355e-09
-1.48691e-07
1.10083e-10
-1.47408e-07
-5.53332e-09
-1.44664e-07
-1.16457e-08
-1.40354e-07
-1.81828e-08
-1.34392e-07
-2.50728e-08
-1.26716e-07
-3.22122e-08
-1.17296e-07
-3.94634e-08
-1.06145e-07
-4.66549e-08
-9.33225e-08
-5.35845e-08
-7.89444e-08
-6.00263e-08
-6.3184e-08
-6.57433e-08
-5.58096e-08
-3.07468e-08
-4.82311e-08
-3.15894e-08
-4.0474e-08
-3.23269e-08
-3.25652e-08
-3.29527e-08
-2.45333e-08
-3.34607e-08
-1.64079e-08
-3.38461e-08
-8.21975e-09
-3.41051e-08
7.31735e-18
-3.42353e-08
8.21975e-09
-3.42353e-08
1.64079e-08
-3.41051e-08
2.45333e-08
-3.38461e-08
3.25652e-08
-3.34607e-08
4.0474e-08
-3.29527e-08
4.82311e-08
-3.23269e-08
5.58096e-08
-3.15894e-08
6.3184e-08
-3.07468e-08
7.89444e-08
-6.57433e-08
9.33225e-08
-6.00263e-08
1.06145e-07
-5.35845e-08
1.17296e-07
-4.66549e-08
1.26716e-07
-3.94634e-08
1.34392e-07
-3.22122e-08
1.40354e-07
-2.50728e-08
1.44664e-07
-1.81828e-08
1.47408e-07
-1.16457e-08
1.48691e-07
-5.53332e-09
1.48625e-07
1.10083e-10
1.4733e-07
5.26355e-09
1.44924e-07
9.92453e-09
1.41523e-07
1.41045e-08
1.37236e-07
1.78249e-08
1.32167e-07
2.11141e-08
1.26411e-07
2.40042e-08
1.20056e-07
2.65295e-08
1.13179e-07
2.87241e-08
1.05853e-07
3.06218e-08
9.81392e-08
3.22541e-08
9.00947e-08
3.36507e-08
8.17687e-08
3.48385e-08
7.32051e-08
3.58418e-08
6.44425e-08
3.6682e-08
5.55152e-08
3.73779e-08
4.64536e-08
3.79457e-08
3.72848e-08
3.83988e-08
2.80332e-08
3.87483e-08
1.87215e-08
3.90029e-08
9.37045e-09
3.91691e-08
3.92511e-08
-1.02859e-08
4.95371e-08
-2.05507e-08
4.94339e-08
-3.07729e-08
4.9225e-08
-4.09296e-08
4.8905e-08
-5.09966e-08
4.84657e-08
-6.0947e-08
4.78961e-08
-7.07514e-08
4.71824e-08
-8.03768e-08
4.63074e-08
-8.97858e-08
4.52508e-08
-9.89363e-08
4.3989e-08
-1.07781e-07
4.2495e-08
-1.16264e-07
4.0738e-08
-1.24327e-07
3.86841e-08
-1.31898e-07
3.62958e-08
-1.38902e-07
3.35332e-08
-1.45252e-07
3.03536e-08
-1.50851e-07
2.67136e-08
-1.55596e-07
2.25698e-08
-1.59373e-07
1.78811e-08
-1.6206e-07
1.26115e-08
-1.63529e-07
6.73298e-09
-1.63649e-07
2.30515e-10
-1.62289e-07
-6.89354e-09
-1.59321e-07
-1.46136e-08
-1.54629e-07
-2.28748e-08
-1.48115e-07
-3.1587e-08
-1.39707e-07
-4.06203e-08
-1.29369e-07
-4.9801e-08
-1.17112e-07
-5.89121e-08
-1.03e-07
-6.7697e-08
-8.71572e-08
-7.58688e-08
-6.97754e-08
-8.31251e-08
-6.16378e-08
-3.88843e-08
-5.32727e-08
-3.99545e-08
-4.47081e-08
-4.08915e-08
-3.59743e-08
-4.16865e-08
-2.71029e-08
-4.2332e-08
-1.81271e-08
-4.28218e-08
-9.08121e-09
-4.31511e-08
-9.77995e-19
-4.33165e-08
9.08121e-09
-4.33165e-08
1.81271e-08
-4.31511e-08
2.71029e-08
-4.28218e-08
3.59743e-08
-4.2332e-08
4.47081e-08
-4.16865e-08
5.32727e-08
-4.08915e-08
6.16378e-08
-3.99545e-08
6.97754e-08
-3.88843e-08
8.71572e-08
-8.31251e-08
1.03e-07
-7.58688e-08
1.17112e-07
-6.7697e-08
1.29369e-07
-5.89121e-08
1.39707e-07
-4.9801e-08
1.48115e-07
-4.06203e-08
1.54629e-07
-3.1587e-08
1.59321e-07
-2.28748e-08
1.62289e-07
-1.46136e-08
1.63649e-07
-6.89354e-09
1.63529e-07
2.30515e-10
1.6206e-07
6.73298e-09
1.59373e-07
1.26115e-08
1.55596e-07
1.78811e-08
1.50851e-07
2.25698e-08
1.45252e-07
2.67136e-08
1.38902e-07
3.03536e-08
1.31898e-07
3.35332e-08
1.24327e-07
3.62958e-08
1.16264e-07
3.86841e-08
1.07781e-07
4.0738e-08
9.89363e-08
4.2495e-08
8.97858e-08
4.3989e-08
8.03768e-08
4.52508e-08
7.07514e-08
4.63074e-08
6.0947e-08
4.71824e-08
5.09966e-08
4.78961e-08
4.09296e-08
4.84657e-08
3.07729e-08
4.8905e-08
2.05507e-08
4.9225e-08
1.02859e-08
4.94339e-08
4.95371e-08
-1.12942e-08
6.08312e-08
-2.25656e-08
6.07053e-08
-3.37908e-08
6.04503e-08
-4.49452e-08
6.00595e-08
-5.60025e-08
5.95229e-08
-6.69336e-08
5.88273e-08
-7.77067e-08
5.79554e-08
-8.82857e-08
5.68864e-08
-9.86303e-08
5.55954e-08
-1.08695e-07
5.40534e-08
-1.18427e-07
5.22271e-08
-1.27768e-07
5.00789e-08
-1.36651e-07
4.7567e-08
-1.45e-07
4.46455e-08
-1.52732e-07
4.12649e-08
-1.59751e-07
3.73729e-08
-1.65953e-07
3.29156e-08
-1.71223e-07
2.78394e-08
-1.75435e-07
2.2093e-08
-1.78455e-07
1.56314e-08
-1.80141e-07
8.41938e-09
-1.80348e-07
4.37027e-10
-1.78927e-07
-8.31412e-09
-1.75737e-07
-1.78041e-08
-1.70644e-07
-2.7967e-08
-1.63538e-07
-3.86936e-08
-1.54333e-07
-4.98249e-08
-1.42986e-07
-6.11479e-08
-1.29503e-07
-7.23952e-08
-1.13951e-07
-8.32494e-08
-9.64649e-08
-9.33547e-08
-7.72549e-08
-1.02335e-07
-6.82546e-08
-4.78847e-08
-5.89987e-08
-4.92104e-08
-4.95188e-08
-5.03714e-08
-3.98487e-08
-5.13566e-08
-3.0024e-08
-5.21568e-08
-2.00819e-08
-5.2764e-08
-1.00608e-08
-5.31722e-08
-5.96674e-18
-5.33773e-08
1.00608e-08
-5.33773e-08
2.00819e-08
-5.31722e-08
3.0024e-08
-5.2764e-08
3.98487e-08
-5.21568e-08
4.95188e-08
-5.13566e-08
5.89987e-08
-5.03714e-08
6.82546e-08
-4.92104e-08
7.72549e-08
-4.78847e-08
9.64649e-08
-1.02335e-07
1.13951e-07
-9.33547e-08
1.29503e-07
-8.32494e-08
1.42986e-07
-7.23952e-08
1.54333e-07
-6.11479e-08
1.63538e-07
-4.98249e-08
1.70644e-07
-3.86936e-08
1.75737e-07
-2.7967e-08
1.78927e-07
-1.78041e-08
1.80348e-07
-8.31412e-09
1.80141e-07
4.37027e-10
1.78455e-07
8.41938e-09
1.75435e-07
1.56314e-08
1.71223e-07
2.2093e-08
1.65953e-07
2.78394e-08
1.59751e-07
3.29156e-08
1.52732e-07
3.73729e-08
1.45e-07
4.12649e-08
1.36651e-07
4.46455e-08
1.27768e-07
4.7567e-08
1.18427e-07
5.00789e-08
1.08695e-07
5.22271e-08
9.86303e-08
5.40534e-08
8.82857e-08
5.55954e-08
7.77067e-08
5.68864e-08
6.69336e-08
5.79554e-08
5.60025e-08
5.88273e-08
4.49452e-08
5.95229e-08
3.37908e-08
6.00595e-08
2.25656e-08
6.04503e-08
1.12942e-08
6.07053e-08
6.08312e-08
-1.24059e-08
7.32371e-08
-2.47872e-08
7.30867e-08
-3.71189e-08
7.27819e-08
-4.93743e-08
7.23149e-08
-6.15251e-08
7.16737e-08
-7.35401e-08
7.08423e-08
-8.53846e-08
6.98e-08
-9.702e-08
6.85217e-08
-1.08402e-07
6.69778e-08
-1.19482e-07
6.51331e-08
-1.30203e-07
6.29478e-08
-1.40501e-07
6.03766e-08
-1.50303e-07
5.7369e-08
-1.59527e-07
5.38698e-08
-1.68081e-07
4.9819e-08
-1.75861e-07
4.51533e-08
-1.82753e-07
3.98073e-08
-1.88629e-07
3.37157e-08
-1.93352e-07
2.68158e-08
-1.96772e-07
1.90519e-08
-1.98733e-07
1.038e-08
-1.9907e-07
7.74266e-10
-1.97619e-07
-9.76582e-09
-1.94216e-07
-2.12066e-08
-1.88712e-07
-3.34711e-08
-1.80976e-07
-4.643e-08
-1.70907e-07
-5.98931e-08
-1.58451e-07
-7.36044e-08
-1.43606e-07
-8.72403e-08
-1.2644e-07
-1.00416e-07
-1.07099e-07
-1.12696e-07
-8.58131e-08
-1.23621e-07
-7.583e-08
-5.78678e-08
-6.55578e-08
-5.94826e-08
-5.50319e-08
-6.08972e-08
-4.42905e-08
-6.20981e-08
-3.33738e-08
-6.30735e-08
-2.23239e-08
-6.38138e-08
-1.11845e-08
-6.43116e-08
8.70008e-19
-6.45618e-08
1.11845e-08
-6.45618e-08
2.23239e-08
-6.43116e-08
3.33738e-08
-6.38138e-08
4.42905e-08
-6.30735e-08
5.50319e-08
-6.20981e-08
6.55578e-08
-6.08972e-08
7.583e-08
-5.94826e-08
8.58131e-08
-5.78678e-08
1.07099e-07
-1.23621e-07
1.2644e-07
-1.12696e-07
1.43606e-07
-1.00416e-07
1.58451e-07
-8.72403e-08
1.70907e-07
-7.36044e-08
1.80976e-07
-5.98931e-08
1.88712e-07
-4.643e-08
1.94216e-07
-3.34711e-08
1.97619e-07
-2.12066e-08
1.9907e-07
-9.76582e-09
1.98733e-07
7.74266e-10
1.96772e-07
1.038e-08
1.93352e-07
1.90519e-08
1.88629e-07
2.68158e-08
1.82753e-07
3.37157e-08
1.75861e-07
3.98073e-08
1.68081e-07
4.51533e-08
1.59527e-07
4.9819e-08
1.50303e-07
5.38698e-08
1.40501e-07
5.7369e-08
1.30203e-07
6.03766e-08
1.19482e-07
6.29478e-08
1.08402e-07
6.51331e-08
9.702e-08
6.69778e-08
8.53846e-08
6.85217e-08
7.35401e-08
6.98e-08
6.15251e-08
7.08423e-08
4.93743e-08
7.16737e-08
3.71189e-08
7.23149e-08
2.47872e-08
7.27819e-08
1.24059e-08
7.30867e-08
7.32371e-08
-1.36331e-08
8.68703e-08
-2.72401e-08
8.66936e-08
-4.07938e-08
8.63357e-08
-5.42661e-08
8.57872e-08
-6.76264e-08
8.5034e-08
-8.08412e-08
8.40571e-08
-9.38735e-08
8.28322e-08
-1.06681e-07
8.13297e-08
-1.19218e-07
7.95143e-08
-1.3143e-07
7.73447e-08
-1.43255e-07
7.47735e-08
-1.54626e-07
7.1747e-08
-1.65462e-07
6.82054e-08
-1.75675e-07
6.40827e-08
-1.85164e-07
5.93078e-08
-1.93815e-07
5.38048e-08
-2.01503e-07
4.74955e-08
-2.08089e-07
4.0301e-08
-2.13419e-07
3.21455e-08
-2.17328e-07
2.29609e-08
-2.1964e-07
1.26923e-08
-2.20172e-07
1.30605e-09
-2.18735e-07
-1.1202e-08
-2.15146e-07
-2.47958e-08
-2.09229e-07
-3.93878e-08
-2.00831e-07
-5.4828e-08
-1.89831e-07
-7.08932e-08
-1.76156e-07
-8.728e-08
-1.59793e-07
-1.03603e-07
-1.4081e-07
-1.19399e-07
-1.19361e-07
-1.34144e-07
-9.57011e-08
-1.47281e-07
-8.45888e-08
-6.898e-08
-7.31463e-08
-7.09251e-08
-6.14138e-08
-7.26297e-08
-4.94346e-08
-7.40773e-08
-3.72546e-08
-7.52535e-08
-2.49221e-08
-7.61464e-08
-1.24869e-08
-7.67468e-08
8.99888e-18
-7.70487e-08
1.24869e-08
-7.70487e-08
2.49221e-08
-7.67468e-08
3.72546e-08
-7.61464e-08
4.94346e-08
-7.52535e-08
6.14138e-08
-7.40773e-08
7.31463e-08
-7.26297e-08
8.45888e-08
-7.09251e-08
9.57011e-08
-6.898e-08
1.19361e-07
-1.47281e-07
1.4081e-07
-1.34144e-07
1.59793e-07
-1.19399e-07
1.76156e-07
-1.03603e-07
1.89831e-07
-8.728e-08
2.00831e-07
-7.08932e-08
2.09229e-07
-5.4828e-08
2.15146e-07
-3.93878e-08
2.18735e-07
-2.47958e-08
2.20172e-07
-1.1202e-08
2.1964e-07
1.30605e-09
2.17328e-07
1.26923e-08
2.13419e-07
2.29609e-08
2.08089e-07
3.21455e-08
2.01503e-07
4.0301e-08
1.93815e-07
4.74955e-08
1.85164e-07
5.38048e-08
1.75675e-07
5.93078e-08
1.65462e-07
6.40827e-08
1.54626e-07
6.82054e-08
1.43255e-07
7.1747e-08
1.3143e-07
7.47735e-08
1.19218e-07
7.73447e-08
1.06681e-07
7.95143e-08
9.38735e-08
8.13297e-08
8.08412e-08
8.28322e-08
6.76264e-08
8.40571e-08
5.42661e-08
8.5034e-08
4.07938e-08
8.57872e-08
2.72401e-08
8.63357e-08
1.36331e-08
8.66936e-08
8.68703e-08
-1.499e-08
1.0186e-07
-2.99522e-08
1.01656e-07
-4.4858e-08
1.01242e-07
-5.96774e-08
1.00607e-07
-7.43779e-08
9.97345e-08
-8.8924e-08
9.86031e-08
-1.03276e-07
9.71842e-08
-1.17389e-07
9.54431e-08
-1.31214e-07
9.33386e-08
-1.44691e-07
9.08224e-08
-1.57757e-07
8.7839e-08
-1.70336e-07
8.43257e-08
-1.82342e-07
8.0212e-08
-1.9368e-07
7.54205e-08
-2.04239e-07
6.98671e-08
-2.13897e-07
6.34622e-08
-2.22514e-07
5.61126e-08
-2.29937e-07
4.77242e-08
-2.35997e-07
3.82058e-08
-2.40511e-07
2.74743e-08
-2.4328e-07
1.54615e-08
-2.44097e-07
2.12317e-09
-2.42748e-07
-1.2551e-08
-2.39019e-07
-2.85244e-08
-2.32707e-07
-4.57007e-08
-2.23626e-07
-6.39089e-08
-2.11628e-07
-8.28913e-08
-1.96615e-07
-1.02293e-07
-1.78558e-07
-1.21659e-07
-1.57518e-07
-1.40439e-07
-1.33657e-07
-1.58005e-07
-1.07254e-07
-1.73683e-07
-9.48318e-08
-8.14027e-08
-8.20275e-08
-8.37294e-08
-6.88878e-08
-8.57695e-08
-5.54623e-08
-8.75028e-08
-4.18041e-08
-8.89117e-08
-2.79689e-08
-8.99816e-08
-1.40144e-08
-9.07013e-08
2.1684e-19
-9.10631e-08
1.40144e-08
-9.10631e-08
2.79689e-08
-9.07013e-08
4.18041e-08
-8.99816e-08
5.54623e-08
-8.89117e-08
6.88878e-08
-8.75028e-08
8.20275e-08
-8.57695e-08
9.48318e-08
-8.37294e-08
1.07254e-07
-8.14027e-08
1.33657e-07
-1.73683e-07
1.57518e-07
-1.58005e-07
1.78558e-07
-1.40439e-07
1.96615e-07
-1.21659e-07
2.11628e-07
-1.02293e-07
2.23626e-07
-8.28913e-08
2.32707e-07
-6.39089e-08
2.39019e-07
-4.57007e-08
2.42748e-07
-2.85244e-08
2.44097e-07
-1.2551e-08
2.4328e-07
2.12317e-09
2.40511e-07
1.54615e-08
2.35997e-07
2.74743e-08
2.29937e-07
3.82058e-08
2.22514e-07
4.77242e-08
2.13897e-07
5.61126e-08
2.04239e-07
6.34622e-08
1.9368e-07
6.98671e-08
1.82342e-07
7.54205e-08
1.70336e-07
8.0212e-08
1.57757e-07
8.43257e-08
1.44691e-07
8.7839e-08
1.31214e-07
9.08224e-08
1.17389e-07
9.33386e-08
1.03276e-07
9.54431e-08
8.8924e-08
9.71842e-08
7.43779e-08
9.86031e-08
5.96774e-08
9.97345e-08
4.4858e-08
1.00607e-07
2.99522e-08
1.01242e-07
1.499e-08
1.01656e-07
1.0186e-07
-1.64927e-08
1.18353e-07
-3.29562e-08
1.18119e-07
-4.93606e-08
1.17646e-07
-6.56744e-08
1.1692e-07
-8.18633e-08
1.15923e-07
-9.78899e-08
1.1463e-07
-1.13712e-07
1.13007e-07
-1.29283e-07
1.11014e-07
-1.44549e-07
1.08605e-07
-1.59449e-07
1.05722e-07
-1.73913e-07
1.02303e-07
-1.8786e-07
9.82729e-08
-2.01199e-07
9.35512e-08
-2.13826e-07
8.80472e-08
-2.25621e-07
8.16624e-08
-2.3645e-07
7.42915e-08
-2.46162e-07
6.58246e-08
-2.54588e-07
5.61496e-08
-2.61539e-07
4.51572e-08
-2.66811e-07
3.2746e-08
-2.7018e-07
1.88313e-08
-2.71412e-07
3.35438e-09
-2.70258e-07
-1.37047e-08
-2.6647e-07
-3.23125e-08
-2.59805e-07
-5.2366e-08
-2.50039e-07
-7.3675e-08
-2.36984e-07
-9.59459e-08
-2.20508e-07
-1.18769e-07
-2.00557e-07
-1.41611e-07
-1.77175e-07
-1.63821e-07
-1.5053e-07
-1.8465e-07
-1.20929e-07
-2.03285e-07
-1.06968e-07
-9.53636e-08
-9.25598e-08
-9.81372e-08
-7.77584e-08
-1.00571e-07
-6.26211e-08
-1.0264e-07
-4.72101e-08
-1.04323e-07
-3.15906e-08
-1.05601e-07
-1.58307e-08
-1.06461e-07
-1.57244e-17
-1.06894e-07
1.58307e-08
-1.06894e-07
3.15906e-08
-1.06461e-07
4.72101e-08
-1.05601e-07
6.26211e-08
-1.04323e-07
7.77584e-08
-1.0264e-07
9.25598e-08
-1.00571e-07
1.06968e-07
-9.81372e-08
1.20929e-07
-9.53636e-08
1.5053e-07
-2.03285e-07
1.77175e-07
-1.8465e-07
2.00557e-07
-1.63821e-07
2.20508e-07
-1.41611e-07
2.36984e-07
-1.18769e-07
2.50039e-07
-9.59459e-08
2.59805e-07
-7.3675e-08
2.6647e-07
-5.2366e-08
2.70258e-07
-3.23125e-08
2.71412e-07
-1.37047e-08
2.7018e-07
3.35438e-09
2.66811e-07
1.88313e-08
2.61539e-07
3.2746e-08
2.54588e-07
4.51572e-08
2.46162e-07
5.61496e-08
2.3645e-07
6.58246e-08
2.25621e-07
7.42915e-08
2.13826e-07
8.16624e-08
2.01199e-07
8.80472e-08
1.8786e-07
9.35512e-08
1.73913e-07
9.82729e-08
1.59449e-07
1.02303e-07
1.44549e-07
1.05722e-07
1.29283e-07
1.08605e-07
1.13712e-07
1.11014e-07
9.78899e-08
1.13007e-07
8.18633e-08
1.1463e-07
6.56744e-08
1.15923e-07
4.93606e-08
1.1692e-07
3.29562e-08
1.17646e-07
1.64927e-08
1.18119e-07
1.18353e-07
-1.81601e-08
1.36513e-07
-3.629e-08
1.36249e-07
-5.43589e-08
1.35715e-07
-7.2334e-08
1.34895e-07
-9.018e-08
1.33769e-07
-1.07858e-07
1.32307e-07
-1.25324e-07
1.30472e-07
-1.42528e-07
1.28219e-07
-1.59415e-07
1.25491e-07
-1.75919e-07
1.22227e-07
-1.91967e-07
1.18351e-07
-2.07474e-07
1.13779e-07
-2.22341e-07
1.08418e-07
-2.36456e-07
1.02162e-07
-2.4969e-07
9.48972e-08
-2.61899e-07
8.65001e-08
-2.72916e-07
7.68414e-08
-2.82554e-07
6.57883e-08
-2.90607e-07
5.32095e-08
-2.96843e-07
3.89818e-08
-3.0101e-07
2.29986e-08
-3.02838e-07
5.18211e-09
-3.02039e-07
-1.45028e-08
-2.98321e-07
-3.60312e-08
-2.91389e-07
-5.92978e-08
-2.80967e-07
-8.40964e-08
-2.66815e-07
-1.10098e-07
-2.4875e-07
-1.36834e-07
-2.26676e-07
-1.63685e-07
-2.00613e-07
-1.89884e-07
-1.70727e-07
-2.14536e-07
-1.37351e-07
-2.36661e-07
-1.21561e-07
-1.11153e-07
-1.05239e-07
-1.14459e-07
-8.84474e-08
-1.17363e-07
-7.12544e-08
-1.19833e-07
-5.37337e-08
-1.21843e-07
-3.59631e-08
-1.23372e-07
-1.8024e-08
-1.244e-07
-9.75028e-18
-1.24918e-07
1.8024e-08
-1.24918e-07
3.59631e-08
-1.244e-07
5.37337e-08
-1.23372e-07
7.12544e-08
-1.21843e-07
8.84474e-08
-1.19833e-07
1.05239e-07
-1.17363e-07
1.21561e-07
-1.14459e-07
1.37351e-07
-1.11153e-07
1.70727e-07
-2.36661e-07
2.00613e-07
-2.14536e-07
2.26676e-07
-1.89884e-07
2.4875e-07
-1.63685e-07
2.66815e-07
-1.36834e-07
2.80967e-07
-1.10098e-07
2.91389e-07
-8.40964e-08
2.98321e-07
-5.92978e-08
3.02039e-07
-3.60312e-08
3.02838e-07
-1.45028e-08
3.0101e-07
5.18211e-09
2.96843e-07
2.29986e-08
2.90607e-07
3.89818e-08
2.82554e-07
5.32095e-08
2.72916e-07
6.57883e-08
2.61899e-07
7.68414e-08
2.4969e-07
8.65001e-08
2.36456e-07
9.48972e-08
2.22341e-07
1.02162e-07
2.07474e-07
1.08418e-07
1.91967e-07
1.13779e-07
1.75919e-07
1.18351e-07
1.59415e-07
1.22227e-07
1.42528e-07
1.25491e-07
1.25324e-07
1.28219e-07
1.07858e-07
1.30472e-07
9.018e-08
1.32307e-07
7.2334e-08
1.33769e-07
5.43589e-08
1.34895e-07
3.629e-08
1.35715e-07
1.81601e-08
1.36249e-07
1.36513e-07
-2.00141e-08
1.56527e-07
-3.99978e-08
1.56233e-07
-5.99196e-08
1.55637e-07
-7.97465e-08
1.54722e-07
-9.94422e-08
1.53465e-07
-1.18967e-07
1.51832e-07
-1.38276e-07
1.49781e-07
-1.57318e-07
1.47261e-07
-1.76035e-07
1.44208e-07
-1.9436e-07
1.40551e-07
-2.12214e-07
1.36205e-07
-2.29508e-07
1.31074e-07
-2.46139e-07
1.25049e-07
-2.61987e-07
1.1801e-07
-2.76914e-07
1.09824e-07
-2.90763e-07
1.00349e-07
-3.03352e-07
8.94309e-08
-3.14478e-07
7.6914e-08
-3.23909e-07
6.26401e-08
-3.31385e-07
4.64584e-08
-3.36621e-07
2.82348e-08
-3.39304e-07
7.86494e-09
-3.39098e-07
-1.47092e-08
-3.3565e-07
-3.9479e-08
-3.28603e-07
-6.63449e-08
-3.17609e-07
-9.50902e-08
-3.02353e-07
-1.25354e-07
-2.82581e-07
-1.56606e-07
-2.58133e-07
-1.88133e-07
-2.28985e-07
-2.19032e-07
-1.95288e-07
-2.48233e-07
-1.574e-07
-2.74549e-07
-1.39405e-07
-1.29149e-07
-1.20763e-07
-1.33101e-07
-1.0155e-07
-1.36576e-07
-8.18477e-08
-1.39536e-07
-6.17444e-08
-1.41947e-07
-4.13353e-08
-1.43781e-07
-2.07197e-08
-1.45016e-07
2.74385e-17
-1.45637e-07
2.07197e-08
-1.45637e-07
4.13353e-08
-1.45016e-07
6.17444e-08
-1.43781e-07
8.18477e-08
-1.41947e-07
1.0155e-07
-1.39536e-07
1.20763e-07
-1.36576e-07
1.39405e-07
-1.33101e-07
1.574e-07
-1.29149e-07
1.95288e-07
-2.74549e-07
2.28985e-07
-2.48233e-07
2.58133e-07
-2.19032e-07
2.82581e-07
-1.88133e-07
3.02353e-07
-1.56606e-07
3.17609e-07
-1.25354e-07
3.28603e-07
-9.50902e-08
3.3565e-07
-6.63449e-08
3.39098e-07
-3.9479e-08
3.39304e-07
-1.47092e-08
3.36621e-07
7.86494e-09
3.31385e-07
2.82348e-08
3.23909e-07
4.64584e-08
3.14478e-07
6.26401e-08
3.03352e-07
7.6914e-08
2.90763e-07
8.94309e-08
2.76914e-07
1.00349e-07
2.61987e-07
1.09824e-07
2.46139e-07
1.1801e-07
2.29508e-07
1.25049e-07
2.12214e-07
1.31074e-07
1.9436e-07
1.36205e-07
1.76035e-07
1.40551e-07
1.57318e-07
1.44208e-07
1.38276e-07
1.47261e-07
1.18967e-07
1.49781e-07
9.94422e-08
1.51832e-07
7.97465e-08
1.53465e-07
5.99196e-08
1.54722e-07
3.99978e-08
1.55637e-07
2.00141e-08
1.56233e-07
1.56527e-07
-2.20804e-08
1.78608e-07
-4.41309e-08
1.78283e-07
-6.61206e-08
1.77626e-07
-8.80168e-08
1.76618e-07
-1.09784e-07
1.75232e-07
-1.31381e-07
1.7343e-07
-1.52765e-07
1.71165e-07
-1.73883e-07
1.68379e-07
-1.94677e-07
1.65002e-07
-2.15076e-07
1.60951e-07
-2.35002e-07
1.56131e-07
-2.54361e-07
1.50433e-07
-2.73045e-07
1.43733e-07
-2.90928e-07
1.35893e-07
-3.07864e-07
1.2676e-07
-3.23683e-07
1.16168e-07
-3.3819e-07
1.03938e-07
-3.5116e-07
8.9884e-08
-3.62336e-07
7.38167e-08
-3.71428e-07
5.55505e-08
-3.78109e-07
3.49151e-08
-3.82014e-07
1.177e-08
-3.82746e-07
-1.3977e-08
-3.7988e-07
-4.23455e-08
-3.72971e-07
-7.32537e-08
-3.61576e-07
-1.06486e-07
-3.45274e-07
-1.41655e-07
-3.23707e-07
-1.78174e-07
-2.96617e-07
-2.15222e-07
-2.63906e-07
-2.51743e-07
-2.25687e-07
-2.86453e-07
-1.82335e-07
-3.179e-07
-1.61637e-07
-1.49847e-07
-1.40138e-07
-1.546e-07
-1.17926e-07
-1.58787e-07
-9.51022e-08
-1.62359e-07
-7.1777e-08
-1.65272e-07
-4.80679e-08
-1.6749e-07
-2.40994e-08
-1.68985e-07
3.36192e-17
-1.69737e-07
2.40994e-08
-1.69737e-07
4.80679e-08
-1.68985e-07
7.1777e-08
-1.6749e-07
9.51022e-08
-1.65272e-07
1.17926e-07
-1.62359e-07
1.40138e-07
-1.58787e-07
1.61637e-07
-1.546e-07
1.82335e-07
-1.49847e-07
2.25687e-07
-3.179e-07
2.63906e-07
-2.86453e-07
2.96617e-07
-2.51743e-07
3.23707e-07
-2.15222e-07
3.45274e-07
-1.78174e-07
3.61576e-07
-1.41655e-07
3.72971e-07
-1.06486e-07
3.7988e-07
-7.32537e-08
3.82746e-07
-4.23455e-08
3.82014e-07
-1.3977e-08
3.78109e-07
1.177e-08
3.71428e-07
3.49151e-08
3.62336e-07
5.55505e-08
3.5116e-07
7.38167e-08
3.3819e-07
8.9884e-08
3.23683e-07
1.03938e-07
3.07864e-07
1.16168e-07
2.90928e-07
1.2676e-07
2.73045e-07
1.35893e-07
2.54361e-07
1.43733e-07
2.35002e-07
1.50433e-07
2.15076e-07
1.56131e-07
1.94677e-07
1.60951e-07
1.73883e-07
1.65002e-07
1.52765e-07
1.68379e-07
1.31381e-07
1.71165e-07
1.09784e-07
1.7343e-07
8.80168e-08
1.75232e-07
6.61206e-08
1.76618e-07
4.41309e-08
1.77626e-07
2.20804e-08
1.78283e-07
1.78608e-07
-2.43885e-08
2.02996e-07
-4.8749e-08
2.02644e-07
-7.30522e-08
2.0193e-07
-9.72673e-08
2.00833e-07
-1.2136e-07
1.99325e-07
-1.45292e-07
1.97362e-07
-1.6902e-07
1.94893e-07
-1.92494e-07
1.91852e-07
-2.15654e-07
1.88162e-07
-2.38432e-07
1.83729e-07
-2.60749e-07
1.78447e-07
-2.82509e-07
1.72193e-07
-3.03601e-07
1.64825e-07
-3.23895e-07
1.56187e-07
-3.43237e-07
1.46102e-07
-3.61447e-07
1.34378e-07
-3.78317e-07
1.20807e-07
-3.936e-07
1.05168e-07
-4.07014e-07
8.72305e-08
-4.18231e-07
6.67674e-08
-4.26877e-07
4.35606e-08
-4.32526e-07
1.74198e-08
-4.34707e-07
-1.17969e-08
-4.32897e-07
-4.41554e-08
-4.26539e-07
-7.96108e-08
-4.15059e-07
-1.17966e-07
-3.97887e-07
-1.58827e-07
-3.7451e-07
-2.01551e-07
-3.4452e-07
-2.45212e-07
-3.07691e-07
-2.88572e-07
-2.64057e-07
-3.30086e-07
-2.13994e-07
-3.67964e-07
-1.89929e-07
-1.73912e-07
-1.64841e-07
-1.79688e-07
-1.38842e-07
-1.84787e-07
-1.12056e-07
-1.89144e-07
-8.46245e-08
-1.92704e-07
-5.66968e-08
-1.95418e-07
-2.84332e-08
-1.97248e-07
3.03674e-17
-1.9817e-07
2.84332e-08
-1.9817e-07
5.66968e-08
-1.97248e-07
8.46245e-08
-1.95418e-07
1.12056e-07
-1.92704e-07
1.38842e-07
-1.89144e-07
1.64841e-07
-1.84787e-07
1.89929e-07
-1.79688e-07
2.13994e-07
-1.73912e-07
2.64057e-07
-3.67964e-07
3.07691e-07
-3.30086e-07
3.4452e-07
-2.88572e-07
3.7451e-07
-2.45212e-07
3.97887e-07
-2.01551e-07
4.15059e-07
-1.58827e-07
4.26539e-07
-1.17966e-07
4.32897e-07
-7.96108e-08
4.34707e-07
-4.41554e-08
4.32526e-07
-1.17969e-08
4.26877e-07
1.74198e-08
4.18231e-07
4.35606e-08
4.07014e-07
6.67674e-08
3.936e-07
8.72305e-08
3.78317e-07
1.05168e-07
3.61447e-07
1.20807e-07
3.43237e-07
1.34378e-07
3.23895e-07
1.46102e-07
3.03601e-07
1.56187e-07
2.82509e-07
1.64825e-07
2.60749e-07
1.72193e-07
2.38432e-07
1.78447e-07
2.15654e-07
1.83729e-07
1.92494e-07
1.88162e-07
1.6902e-07
1.91852e-07
1.45292e-07
1.94893e-07
1.2136e-07
1.97362e-07