/*--------------------------------*- C++ -*----------------------------------*\
  =========                 |
  \\      /  F ield         | OpenFOAM: The Open Source CFD Toolbox
   \\    /   O peration     | Website:  https://openfoam.org
    \\  /    A nd           | Version:  10
     \\/     M anipulation  |
\*---------------------------------------------------------------------------*/
FoamFile
{
    format      ascii;
    class       volScalarField;
    location    "0.049";
    object      p;
}
// * * * * * * * * * * * * * * * * * * * * * * * * * * * * * * * * * * * * * //

dimensions      [0 2 -2 0 0 0 0];

internalField   nonuniform List<scalar> 
4000
(
9.8229
9.82234
9.821
9.81881
9.81589
9.81227
9.80799
9.80297
9.79724
9.79073
9.78349
9.77542
9.76658
9.75686
9.74636
9.73494
9.72271
9.70955
9.69557
9.68062
9.66483
9.64803
9.63036
9.61162
9.59195
9.57116
9.54936
9.52636
9.50228
9.47689
9.45032
9.42234
9.39308
9.36228
9.33008
9.29621
9.26079
9.22355
9.18462
9.1437
9.10092
9.05596
9.00897
8.95959
8.90798
8.85377
8.79709
8.73758
8.67537
8.61007
8.5418
8.47017
8.3953
8.31678
8.23472
8.14871
8.05884
7.96471
7.86642
7.76353
7.65615
7.54388
7.42679
7.3045
7.17712
7.04425
6.90603
6.76211
6.61263
6.45729
6.29629
6.12938
5.95679
5.77837
5.59441
5.40484
5.21002
5.00999
4.8052
4.59578
4.38226
4.16489
3.94426
3.72071
3.49489
3.26722
3.03838
2.80883
2.57926
2.35016
2.12218
1.8958
1.67164
1.45013
1.23181
1.01708
0.806371
0.60003
0.398397
0.201741
0.0103007
-0.175719
-0.356179
-0.530937
-0.69995
-0.863124
-1.02051
-1.17205
-1.31787
-1.45794
-1.59247
-1.72145
-1.84512
-1.9635
-2.07689
-2.18529
-2.28904
-2.38814
-2.48297
-2.5735
-2.66014
-2.74286
-2.82208
-2.89773
-2.97026
-3.03957
-3.10611
-3.16975
-3.23096
-3.28958
-3.34608
-3.40026
-3.45259
-3.50285
-3.5515
-3.59832
-3.64373
-3.68753
-3.7301
-3.77128
-3.81139
-3.85035
-3.88839
-3.92558
-3.96197
-3.99786
-4.03307
-4.06819
-4.10273
-4.13764
-4.17201
-4.20728
-4.24194
-4.27803
-4.31331
-4.35049
-4.38646
-4.42467
-4.46101
-4.49971
-4.53558
-4.57366
-4.60762
-4.64328
-4.67319
-4.70394
-4.72705
-4.74978
-4.76279
-4.77394
-4.77321
-4.76896
-4.75078
-4.72739
-4.68825
-4.64231
-4.57918
-4.50794
-4.41859
-4.32017
-4.20333
-4.07695
-3.93244
-3.77843
-3.60721
-3.42708
-3.23124
-3.0276
-2.81025
-2.58674
-2.35189
-2.11291
-1.8652
-1.61566
-1.35993
-1.10513
-0.845553
-0.592853
-0.328694
-0.137222
9.82584
9.82529
9.82395
9.82176
9.81884
9.81523
9.81096
9.80596
9.80024
9.79376
9.78653
9.7785
9.76969
9.76003
9.74957
9.73821
9.72604
9.71296
9.69904
9.68419
9.66848
9.65179
9.63421
9.6156
9.59605
9.5754
9.55375
9.53091
9.50698
9.48178
9.4554
9.42764
9.39858
9.36802
9.33605
9.30244
9.26728
9.23033
9.19168
9.15108
9.1086
9.06399
9.01733
8.96832
8.91707
8.86325
8.80695
8.74786
8.68605
8.62118
8.55334
8.48216
8.40772
8.32966
8.24803
8.16248
8.07304
7.97936
7.88146
7.77899
7.67197
7.56005
7.44325
7.32124
7.19404
7.06132
6.92315
6.77921
6.62959
6.47404
6.31267
6.14529
5.97207
5.79289
5.60799
5.41733
5.22125
5.01982
4.81345
4.60232
4.38694
4.1676
3.94489
3.71919
3.49116
3.26127
3.03019
2.79845
2.56673
2.33557
2.10563
1.87741
1.65154
1.42849
1.20878
0.992821
0.781067
0.57385
0.371514
0.174321
-0.0174875
-0.203724
-0.384246
-0.558934
-0.72774
-0.890601
-1.04755
-1.19858
-1.3438
-1.48322
-1.61703
-1.74525
-1.86812
-1.9857
-2.09825
-2.20582
-2.30872
-2.407
-2.50098
-2.5907
-2.67652
-2.75846
-2.83688
-2.91179
-2.98355
-3.05215
-3.11795
-3.18093
-3.24145
-3.29945
-3.35529
-3.4089
-3.46063
-3.51038
-3.55848
-3.60483
-3.64974
-3.6931
-3.73519
-3.77594
-3.81559
-3.85412
-3.89168
-3.9284
-3.96431
-3.99968
-4.03439
-4.06896
-4.10302
-4.13739
-4.17137
-4.20616
-4.24061
-4.27638
-4.31175
-4.34889
-4.38539
-4.42396
-4.46141
-4.50099
-4.53865
-4.5782
-4.61467
-4.6524
-4.68554
-4.71891
-4.74584
-4.7716
-4.78886
-4.80324
-4.80695
-4.80591
-4.79208
-4.77163
-4.73647
-4.69296
-4.63322
-4.56369
-4.47691
-4.37935
-4.26412
-4.13764
-3.99372
-3.83863
-3.66696
-3.48479
-3.28748
-3.08091
-2.86118
-2.63394
-2.39593
-2.15258
-1.90109
-1.6467
-1.38677
-1.12685
-0.862848
-0.60515
-0.336096
-0.139574
9.83172
9.83116
9.82983
9.82766
9.82475
9.82115
9.8169
9.81193
9.80625
9.7998
9.79263
9.78466
9.77593
9.76635
9.75598
9.74474
9.73269
9.71974
9.70597
9.69128
9.67575
9.65925
9.64189
9.62351
9.60421
9.58383
9.56247
9.53995
9.51636
9.49152
9.46552
9.43816
9.40954
9.37944
9.34795
9.31484
9.28022
9.24383
9.20576
9.16577
9.12394
9.07999
9.03401
8.98573
8.93521
8.88216
8.82665
8.76837
8.70739
8.64338
8.5764
8.50611
8.43256
8.35541
8.27469
8.19004
8.10149
8.00869
7.91164
7.80999
7.70374
7.59253
7.47637
7.3549
7.22813
7.09573
6.95771
6.81376
6.66393
6.50795
6.34591
6.17759
6.00314
5.82243
5.63567
5.44283
5.24422
5.03993
4.83037
4.61574
4.39657
4.1732
3.94624
3.71613
3.48358
3.24912
3.01348
2.77724
2.54114
2.30578
2.07185
1.83991
1.61061
1.38443
1.16195
0.943563
0.729731
0.520786
0.317067
0.118825
-0.073711
-0.260369
-0.441023
-0.615571
-0.783983
-0.946219
-1.10233
-1.25233
-1.39634
-1.53442
-1.66674
-1.79338
-1.91458
-2.03042
-2.14118
-2.24695
-2.34803
-2.44449
-2.53667
-2.62463
-2.70872
-2.78898
-2.86578
-2.93912
-3.00937
-3.07653
-3.14095
-3.20261
-3.26187
-3.31868
-3.37339
-3.42593
-3.47664
-3.52542
-3.5726
-3.61806
-3.66211
-3.70462
-3.74588
-3.78579
-3.82457
-3.8622
-3.89884
-3.93455
-3.96944
-4.0037
-4.0373
-4.07068
-4.1036
-4.13679
-4.16971
-4.20349
-4.23717
-4.27232
-4.30745
-4.34462
-4.3817
-4.42125
-4.46036
-4.50214
-4.54278
-4.58591
-4.62679
-4.66953
-4.70847
-4.74813
-4.78204
-4.81509
-4.84011
-4.86234
-4.87409
-4.88091
-4.87487
-4.86173
-4.83357
-4.7963
-4.74226
-4.67747
-4.59472
-4.50007
-4.38694
-4.26135
-4.11746
-3.96119
-3.78747
-3.60208
-3.40075
-3.18907
-2.96353
-2.72951
-2.48418
-2.23269
-1.97268
-1.70916
-1.4399
-1.17024
-0.896464
-0.628962
-0.34972
-0.144723
9.84051
9.83996
9.83864
9.83648
9.83359
9.83002
9.8258
9.82086
9.81523
9.80885
9.80175
9.79387
9.78524
9.77578
9.76554
9.75445
9.74258
9.72982
9.71627
9.70181
9.68655
9.67034
9.65329
9.63526
9.61634
9.59637
9.57544
9.55339
9.53031
9.50601
9.48058
9.45384
9.42586
9.39644
9.36567
9.33333
9.2995
9.26395
9.22677
9.18769
9.14681
9.10386
9.05892
9.01171
8.96231
8.91041
8.85609
8.79904
8.73931
8.67659
8.61093
8.54199
8.4698
8.39403
8.31469
8.23143
8.14426
8.05282
7.9571
7.85673
7.75169
7.64162
7.52649
7.40591
7.27989
7.14803
7.01034
6.86647
6.71642
6.55989
6.39692
6.22727
6.05104
5.86806
5.67854
5.4824
5.27996
5.07129
4.85682
4.63679
4.41176
4.18211
3.94852
3.71154
3.47193
3.23031
2.98754
2.74428
2.50135
2.25945
2.01934
1.78166
1.5471
1.31619
1.08952
0.867521
0.650647
0.439227
0.233579
0.033932
-0.159517
-0.346629
-0.527315
-0.701508
-0.869215
-1.03043
-1.18523
-1.33366
-1.47588
-1.61195
-1.74209
-1.86639
-1.98512
-2.09838
-2.20647
-2.30949
-2.40779
-2.50144
-2.59081
-2.67599
-2.75733
-2.83491
-2.9091
-2.97992
-3.04775
-3.11259
-3.17481
-3.23439
-3.29168
-3.34665
-3.39965
-3.45058
-3.49981
-3.5472
-3.5931
-3.63734
-3.68025
-3.72165
-3.76183
-3.80062
-3.8383
-3.87471
-3.91011
-3.94443
-3.97786
-4.0105
-4.04243
-4.07397
-4.10506
-4.13632
-4.16743
-4.19941
-4.23159
-4.26545
-4.29979
-4.33663
-4.3741
-4.41478
-4.45597
-4.5008
-4.54561
-4.59406
-4.64144
-4.69188
-4.73962
-4.7892
-4.83389
-4.8786
-4.91577
-4.95065
-4.97511
-4.99467
-5.00096
-4.99973
-4.98262
-4.95556
-4.9105
-4.85351
-4.77706
-4.68727
-4.57737
-4.45342
-4.3095
-4.15155
-3.97454
-3.78426
-3.57655
-3.35699
-3.12228
-2.87779
-2.62093
-2.35684
-2.08346
-1.80578
-1.52191
-1.23718
-0.94815
-0.665477
-0.370582
-0.152596
9.85221
9.85167
9.85035
9.8482
9.84534
9.8418
9.83761
9.83272
9.82715
9.82084
9.81383
9.80605
9.79755
9.78823
9.77817
9.76727
9.75562
9.74311
9.72984
9.7157
9.70077
9.68495
9.66832
9.65075
9.63232
9.61289
9.59254
9.57112
9.5487
9.52512
9.50045
9.47452
9.4474
9.41889
9.38909
9.35776
9.32499
9.29056
9.25454
9.21669
9.17709
9.13547
9.09191
9.04614
8.99822
8.94787
8.89514
8.83973
8.7817
8.72072
8.65683
8.5897
8.51936
8.44546
8.36802
8.28666
8.20139
8.11183
8.01797
7.91939
7.81609
7.70765
7.59403
7.4748
7.34993
7.21898
7.08192
6.93833
6.78818
6.6311
6.46707
6.2958
6.11732
5.93142
5.73824
5.5377
5.33006
5.11541
4.89418
4.66664
4.4334
4.19495
3.95206
3.70537
3.45581
3.20414
2.95134
2.6982
2.44572
2.19467
1.94594
1.70026
1.45839
1.22094
0.988528
0.761614
0.540663
0.325999
0.117921
-0.0833743
-0.277736
-0.465079
-0.645377
-0.818633
-0.984917
-1.14429
-1.2969
-1.44285
-1.58233
-1.71547
-1.84251
-1.96357
-2.07895
-2.18878
-2.29337
-2.39284
-2.48753
-2.57757
-2.66332
-2.74489
-2.82266
-2.89671
-2.96744
-3.03488
-3.09942
-3.16109
-3.22027
-3.27693
-3.33147
-3.38384
-3.4344
-3.48306
-3.53019
-3.57564
-3.61974
-3.66231
-3.70367
-3.74358
-3.78233
-3.81967
-3.8559
-3.89073
-3.9245
-3.95696
-3.98844
-4.01884
-4.04845
-4.07736
-4.1058
-4.13418
-4.16253
-4.1917
-4.22141
-4.25302
-4.28576
-4.3216
-4.35907
-4.40076
-4.44429
-4.49288
-4.54304
-4.59856
-4.65471
-4.71577
-4.77575
-4.8393
-4.89924
-4.96058
-5.01513
-5.0682
-5.11094
-5.14891
-5.17298
-5.18897
-5.18784
-5.17559
-5.14355
-5.09789
-5.03063
-4.94799
-4.84288
-4.72149
-4.57771
-4.41762
-4.23614
-4.03913
-3.82257
-3.59207
-3.34457
-3.08544
-2.81245
-2.53072
-2.23861
-1.9411
-1.63674
-1.3309
-1.02051
-0.716597
-0.399845
-0.163557
9.8668
9.86625
9.86495
9.86281
9.85996
9.85645
9.8523
9.84746
9.84195
9.83572
9.8288
9.82114
9.81278
9.80363
9.79377
9.7831
9.7717
9.7595
9.74656
9.7328
9.7183
9.70295
9.68683
9.66982
9.652
9.63323
9.6136
9.59295
9.57136
9.54866
9.52495
9.50002
9.47397
9.4466
9.41798
9.38792
9.35648
9.32345
9.28889
9.25257
9.21457
9.17463
9.13281
9.08885
9.04281
8.99441
8.94369
8.89036
8.83447
8.77569
8.71407
8.64926
8.58129
8.50979
8.43479
8.35589
8.2731
8.18601
8.0946
7.99844
7.89748
7.79127
7.67976
7.56246
7.43929
7.30977
7.17379
7.03088
6.88093
6.72349
6.55845
6.38542
6.20438
6.015
5.81736
5.61131
5.39706
5.17468
4.9446
4.70713
4.46296
4.21269
3.95725
3.69747
3.43449
3.16928
2.90304
2.63679
2.37168
2.10866
1.84875
1.59277
1.34156
1.09578
0.856067
0.622914
0.396783
0.177993
-0.0331709
-0.236539
-0.431995
-0.619504
-0.799099
-0.970856
-1.13493
-1.29147
-1.44072
-1.58287
-1.71821
-1.84695
-1.96941
-2.08576
-2.19636
-2.30138
-2.40116
-2.49586
-2.58582
-2.67118
-2.75232
-2.82937
-2.90271
-2.97244
-3.03895
-3.1023
-3.16288
-3.22072
-3.27621
-3.32937
-3.38059
-3.42983
-3.47748
-3.52347
-3.56814
-3.61136
-3.65347
-3.69422
-3.73394
-3.7723
-3.80961
-3.84545
-3.88015
-3.91326
-3.94514
-3.97536
-4.00435
-4.03176
-4.05811
-4.08324
-4.10769
-4.13162
-4.15551
-4.18001
-4.20535
-4.23279
-4.26214
-4.29533
-4.33148
-4.37326
-4.41875
-4.47133
-4.52781
-4.59216
-4.6597
-4.73486
-4.81137
-4.89401
-4.975
-5.05938
-5.13811
-5.21648
-5.28464
-5.34816
-5.39686
-5.43662
-5.45745
-5.46547
-5.45122
-5.42101
-5.36624
-5.29332
-5.19473
-5.07687
-4.93339
-4.77053
-4.58319
-4.37735
-4.14911
-3.90417
-3.63974
-3.36124
-3.06686
-2.76172
-2.44474
-2.12086
-1.78928
-1.45535
-1.11658
-0.784404
-0.438713
-0.177961
9.88424
9.8837
9.8824
9.88027
9.87744
9.87394
9.86981
9.86501
9.85956
9.8534
9.84658
9.83904
9.83082
9.82186
9.81221
9.80179
9.7907
9.77883
9.76629
9.75296
9.73895
9.72414
9.70863
9.69228
9.67518
9.6572
9.63842
9.61868
9.59807
9.57642
9.55383
9.53009
9.50531
9.47928
9.45208
9.42351
9.39365
9.36227
9.32945
9.29496
9.25886
9.2209
9.18116
9.13936
9.09557
9.0495
9.00121
8.95038
8.89709
8.84098
8.78211
8.72013
8.65506
8.58653
8.51456
8.43874
8.35907
8.27511
8.18684
8.0938
7.99591
7.8927
7.78405
7.66945
7.54875
7.4214
7.28723
7.14567
6.9965
6.83916
6.67345
6.49884
6.31516
6.12197
5.91922
5.70664
5.48437
5.25241
5.01118
4.76101
4.50269
4.23695
3.96494
3.68776
3.40685
3.12355
2.8394
2.55579
2.27415
1.9957
1.72165
1.45296
1.19053
0.93503
0.687079
0.447096
0.215466
-0.00757548
-0.221822
-0.427176
-0.623578
-0.811047
-0.989662
-1.15955
-1.32092
-1.47399
-1.61908
-1.75647
-1.88654
-2.0096
-2.12605
-2.23619
-2.34044
-2.43906
-2.53243
-2.62076
-2.70445
-2.78366
-2.8588
-2.93
-2.99766
-3.06188
-3.12305
-3.18124
-3.23684
-3.28988
-3.34078
-3.38954
-3.43658
-3.48189
-3.52588
-3.56849
-3.61012
-3.65064
-3.69039
-3.72913
-3.76718
-3.80411
-3.84023
-3.87494
-3.90857
-3.94038
-3.97079
-3.99901
-4.02563
-4.04989
-4.07255
-4.09305
-4.11233
-4.13015
-4.14758
-4.16493
-4.18319
-4.20344
-4.22631
-4.25375
-4.28571
-4.32502
-4.37055
-4.42597
-4.48859
-4.56277
-4.64392
-4.73684
-4.83485
-4.94296
-5.05248
-5.16849
-5.28067
-5.3942
-5.49774
-5.59675
-5.67958
-5.7521
-5.80304
-5.83868
-5.84852
-5.83909
-5.80102
-5.74101
-5.65105
-5.5378
-5.3947
-5.22822
-5.03324
-4.81589
-4.5725
-4.30881
-4.02246
-3.71884
-3.39676
-3.06126
-2.71203
-2.35393
-1.98703
-1.61665
-1.24107
-0.872247
-0.489195
-0.196418
9.90455
9.90401
9.9027
9.90056
9.89772
9.89422
9.89011
9.88532
9.8799
9.8738
9.86706
9.85963
9.85155
9.84277
9.83334
9.8232
9.81241
9.80092
9.7888
9.77596
9.76249
9.7483
9.73347
9.71787
9.7016
9.68452
9.66673
9.64805
9.62859
9.60818
9.58691
9.56458
9.5413
9.51685
9.49134
9.46454
9.43654
9.40712
9.37636
9.34401
9.31016
9.27455
9.23725
9.19799
9.15684
9.1135
9.06806
9.02018
8.96993
8.91697
8.86135
8.80271
8.74109
8.6761
8.60775
8.53564
8.45975
8.37964
8.29525
8.20611
8.11212
8.01277
7.9079
7.79695
7.67969
7.55552
7.42415
7.28492
7.13747
6.98111
6.81545
6.6398
6.45379
6.25678
6.04851
5.82854
5.59684
5.35329
5.09827
4.83216
4.55586
4.2703
3.97693
3.67719
3.37295
3.06598
2.75832
2.45179
2.14831
1.8495
1.55692
1.2718
0.995223
0.72792
0.470493
0.223256
-0.0135776
-0.239985
-0.455994
-0.661731
-0.857341
-1.04302
-1.21896
-1.38541
-1.54265
-1.69094
-1.83065
-1.96211
-2.08576
-2.20195
-2.31118
-2.41383
-2.5104
-2.60123
-2.6868
-2.76738
-2.84344
-2.91519
-2.98308
-3.04727
-3.10818
-3.16589
-3.2208
-3.27297
-3.32279
-3.3703
-3.41593
-3.45967
-3.50197
-3.54282
-3.58265
-3.62142
-3.65955
-3.69693
-3.73394
-3.77031
-3.80639
-3.84169
-3.87649
-3.91003
-3.94262
-3.97323
-4.00228
-4.0286
-4.05282
-4.07374
-4.0923
-4.1074
-4.12037
-4.13045
-4.13931
-4.14686
-4.15491
-4.16432
-4.17677
-4.19422
-4.21778
-4.25059
-4.2926
-4.34803
-4.41506
-4.49868
-4.59467
-4.7084
-4.83288
-4.9734
-5.12014
-5.27814
-5.43527
-5.59643
-5.74813
-5.89552
-6.02489
-6.14195
-6.23369
-6.30656
-6.34874
-6.36707
-6.35124
-6.30837
-6.2299
-6.12292
-5.98062
-5.80979
-5.60534
-5.37363
-5.11121
-4.82395
-4.50995
-4.17463
-3.81746
-3.44349
-3.05326
-2.6516
-2.23963
-1.82271
-1.40011
-0.984433
-0.553852
-0.21977
9.92772
9.92717
9.92584
9.92368
9.92081
9.91727
9.91313
9.90832
9.9029
9.89681
9.89012
9.88278
9.87483
9.86621
9.857
9.84713
9.83668
9.82557
9.8139
9.80158
9.7887
9.77516
9.76106
9.74626
9.73088
9.71476
9.69802
9.68048
9.66226
9.64317
9.62333
9.60253
9.58088
9.55818
9.53452
9.50969
9.48378
9.45655
9.42811
9.39819
9.3669
9.33396
9.29946
9.26312
9.22501
9.18484
9.14269
9.09822
9.05152
9.00222
8.9504
8.89569
8.83813
8.77732
8.71328
8.6456
8.57425
8.49879
8.41916
8.33486
8.24578
8.15135
8.05141
7.94532
7.83281
7.71318
7.58603
7.45058
7.30633
7.15239
6.98816
6.81268
6.62531
6.42511
6.21148
5.98363
5.74123
5.4839
5.21184
4.92542
4.62571
4.31409
3.99259
3.6634
3.3291
2.99213
2.65507
2.3202
1.98982
1.66592
1.35038
1.04471
0.750252
0.467932
0.198466
-0.0578075
-0.300759
-0.530547
-0.747466
-0.951964
-1.14454
-1.32573
-1.49606
-1.65605
-1.80618
-1.94688
-2.07863
-2.20181
-2.3169
-2.42427
-2.52444
-2.61781
-2.70496
-2.78624
-2.86223
-2.93327
-2.99991
-3.06246
-3.12143
-3.177
-3.22964
-3.27942
-3.32674
-3.37159
-3.4144
-3.45515
-3.49433
-3.53197
-3.56859
-3.60426
-3.63949
-3.67432
-3.7092
-3.74406
-3.77925
-3.81447
-3.84997
-3.88511
-3.92005
-3.95378
-3.98647
-4.01678
-4.04506
-4.06968
-4.09137
-4.10831
-4.12171
-4.12975
-4.13424
-4.1337
-4.13057
-4.12414
-4.11734
-4.1106
-4.10702
-4.10851
-4.11778
-4.13839
-4.17187
-4.22331
-4.29215
-4.38452
-4.49684
-4.63551
-4.79318
-4.97573
-5.17177
-5.38621
-5.60423
-5.8301
-6.04715
-6.25996
-6.45183
-6.62834
-6.7741
-6.89585
-6.98008
-7.03418
-7.04669
-7.02545
-6.96124
-6.86189
-6.72027
-6.54375
-6.3272
-6.07734
-5.79099
-5.47414
-5.12548
-4.75038
-4.34919
-3.92681
-3.48493
-3.02826
-2.55928
-2.08335
-1.60104
-1.12588
-0.635059
-0.249186
9.9538
9.95323
9.95186
9.94963
9.94668
9.94306
9.93883
9.93395
9.92846
9.92233
9.91563
9.90831
9.90044
9.89195
9.88293
9.87332
9.86321
9.85252
9.84135
9.82963
9.81744
9.80469
9.79146
9.77764
9.76333
9.74838
9.7329
9.71673
9.69997
9.68244
9.66425
9.64522
9.62544
9.60472
9.58316
9.56053
9.53695
9.51217
9.4863
9.45908
9.43062
9.40064
9.36924
9.33612
9.30139
9.26474
9.22624
9.18558
9.14282
9.09764
9.05008
8.99979
8.94681
8.89075
8.83164
8.76906
8.70299
8.63298
8.55898
8.48047
8.39734
8.30902
8.21528
8.11548
8.00927
7.89587
7.7748
7.64511
7.50615
7.3568
7.19617
7.023
6.83624
6.6345
6.41668
6.18147
5.92798
5.6553
5.36315
5.05155
4.72148
4.37461
4.0139
3.64303
3.26635
2.88803
2.51194
2.14123
1.77862
1.42626
1.08593
0.758942
0.446406
0.149094
-0.132364
-0.397664
-0.646695
-0.879658
-1.09695
-1.2992
-1.48718
-1.66176
-1.82387
-1.9744
-2.11422
-2.24409
-2.36474
-2.47674
-2.58065
-2.67693
-2.76611
-2.84857
-2.92486
-2.99533
-3.06056
-3.12091
-3.17701
-3.22921
-3.2781
-3.32394
-3.36726
-3.40815
-3.44702
-3.4838
-3.51878
-3.5518
-3.58325
-3.61311
-3.64199
-3.67008
-3.69816
-3.72653
-3.75598
-3.78674
-3.81941
-3.85383
-3.89018
-3.92765
-3.96595
-4.00359
-4.0402
-4.07384
-4.1045
-4.12995
-4.15076
-4.16441
-4.17221
-4.17156
-4.16465
-4.14925
-4.12858
-4.10128
-4.07151
-4.03933
-4.00957
-3.98424
-3.96824
-3.96586
-3.9811
-4.02035
-4.08536
-4.18395
-4.31406
-4.48361
-4.6854
-4.92597
-5.192
-5.48749
-5.79366
-6.11271
-6.42335
-6.72823
-7.00686
-7.26394
-7.48161
-7.66682
-7.80473
-7.90352
-7.95089
-7.95559
-7.90799
-7.81673
-7.67456
-7.48947
-7.25643
-6.98254
-6.66496
-6.30988
-5.91656
-5.49043
-5.03275
-4.54836
-4.0402
-3.51293
-2.97059
-2.41862
-1.85916
-1.30711
-0.738054
-0.287477
9.98287
9.98227
9.98082
9.97847
9.97537
9.97159
9.96719
9.96215
9.95652
9.95028
9.94349
9.93613
9.92824
9.9198
9.91087
9.9014
9.89148
9.88107
9.87026
9.85897
9.84732
9.8352
9.82273
9.80978
9.79646
9.78263
9.76839
9.7536
9.73835
9.72248
9.70608
9.68897
9.67126
9.65273
9.63351
9.61336
9.5924
9.57038
9.54741
9.52325
9.49798
9.47134
9.44344
9.41398
9.38306
9.35037
9.316
9.27963
9.24135
9.20081
9.15807
9.11279
9.06502
9.01438
8.96089
8.90416
8.84418
8.78051
8.71311
8.64148
8.56551
8.48462
8.3986
8.30677
8.20877
8.10376
7.99117
7.86993
7.7392
7.59762
7.44399
7.27659
7.09384
6.89368
6.67424
6.43335
6.16921
5.88013
5.56519
5.22404
4.85748
4.46718
4.05642
3.63011
3.1949
2.75784
2.32555
1.90356
1.4963
1.10678
0.736817
0.387105
0.0577917
-0.251403
-0.540823
-0.810939
-1.06217
-1.29501
-1.50998
-1.70779
-1.88926
-2.05539
-2.20728
-2.3461
-2.47303
-2.58917
-2.69556
-2.79304
-2.88242
-2.96434
-3.03942
-3.10812
-3.17097
-3.22834
-3.28079
-3.32865
-3.37256
-3.41285
-3.45015
-3.48473
-3.51719
-3.54768
-3.57677
-3.60443
-3.63103
-3.65625
-3.68033
-3.70289
-3.72434
-3.74465
-3.76466
-3.78487
-3.80649
-3.83036
-3.85772
-3.88922
-3.92555
-3.9663
-4.01088
-4.05723
-4.10383
-4.14766
-4.18753
-4.22013
-4.24522
-4.25924
-4.26312
-4.25323
-4.23193
-4.19599
-4.14947
-4.09006
-4.02353
-3.94939
-3.87493
-3.80244
-3.74013
-3.69364
-3.67098
-3.68109
-3.7298
-3.82798
-3.9768
-4.18695
-4.45253
-4.78088
-5.15588
-5.57821
-6.0222
-6.48434
-6.93598
-7.37536
-7.77711
-8.1442
-8.45668
-8.72184
-8.92496
-9.07598
-9.16317
-9.19636
-9.1662
-9.08204
-8.93686
-8.739
-8.48372
-8.17818
-7.82005
-7.41538
-6.96427
-6.4719
-5.94077
-5.37547
-4.78059
-4.16058
-3.52153
-2.8689
-2.20671
-1.55175
-0.877077
-0.339265
10.0151
10.0144
10.0129
10.0103
10.0069
10.0028
9.99812
9.99277
9.98686
9.9804
9.97347
9.96605
9.95823
9.94994
9.94127
9.93216
9.92271
9.91284
9.90266
9.8921
9.88125
9.87002
9.85852
9.84664
9.83449
9.82193
9.80907
9.79578
9.78215
9.76802
9.75351
9.73842
9.72288
9.70667
9.6899
9.67236
9.65416
9.63506
9.61516
9.59423
9.57235
9.54926
9.52508
9.4995
9.47263
9.44417
9.41421
9.38244
9.34894
9.31338
9.27583
9.23596
9.19382
9.14905
9.10171
9.0514
8.99815
8.94154
8.88156
8.81775
8.75002
8.67784
8.60103
8.51893
8.43121
8.33701
8.23574
8.12627
8.00763
7.87824
7.73659
7.58049
7.40767
7.21513
6.99973
6.75764
6.48503
6.17793
5.83334
5.44986
5.02914
4.57612
4.09788
3.60212
3.097
2.59019
2.08931
1.60198
1.13531
0.694565
0.282812
-0.0989266
-0.450987
-0.77474
-1.07199
-1.34473
-1.59466
-1.82328
-2.03172
-2.22106
-2.39232
-2.54665
-2.68527
-2.8095
-2.92068
-3.02012
-3.10905
-3.18855
-3.25966
-3.32322
-3.38003
-3.43071
-3.47589
-3.51607
-3.55185
-3.58368
-3.61216
-3.63767
-3.66085
-3.68197
-3.70152
-3.71947
-3.73607
-3.75105
-3.76475
-3.77714
-3.78887
-3.79982
-3.8105
-3.82073
-3.83124
-3.84247
-3.85584
-3.87249
-3.89402
-3.92164
-3.95663
-3.99955
-4.05047
-4.10769
-4.16906
-4.23037
-4.28864
-4.3388
-4.37886
-4.40355
-4.4124
-4.40022
-4.36872
-4.31339
-4.23805
-4.13904
-4.02279
-3.8883
-3.74532
-3.59736
-3.4572
-3.33337
-3.2398
-3.18992
-3.19642
-3.27579
-3.43503
-3.69005
-4.03782
-4.48699
-5.01761
-5.62305
-6.26511
-6.9283
-7.57263
-8.18923
-8.748
-9.25047
-9.67679
-10.0355
-10.3138
-10.5238
-10.6562
-10.7222
-10.7138
-10.6408
-10.4967
-10.2897
-10.0151
-9.67964
-9.28098
-8.82444
-8.31057
-7.74382
-7.12774
-6.46638
-5.76609
-5.03104
-4.26965
-3.48741
-2.6906
-1.89767
-1.07993
-0.410656
10.0507
10.05
10.0482
10.0453
10.0416
10.037
10.0318
10.0259
10.0193
10.0122
10.0047
9.99663
9.98825
9.97949
9.97048
9.96115
9.95164
9.94187
9.93196
9.92182
9.91157
9.9011
9.89051
9.87969
9.86874
9.85754
9.84619
9.83455
9.82273
9.81056
9.79818
9.78539
9.7723
9.75873
9.74477
9.73022
9.71518
9.69942
9.68304
9.66579
9.64779
9.62875
9.60879
9.58762
9.56534
9.54165
9.51665
9.49001
9.46185
9.43183
9.40003
9.36613
9.33021
9.2919
9.25131
9.20806
9.16222
9.11341
9.06168
9.0066
8.94818
8.88595
8.81981
8.74919
8.67385
8.59303
8.50621
8.4123
8.31035
8.19873
8.07573
7.93886
7.78528
7.61118
7.41212
7.18244
6.91561
6.6035
6.2372
5.80716
5.30782
4.7439
4.13568
3.51051
2.8892
2.28109
1.69111
1.12536
0.590653
0.0921474
-0.367
-0.785454
-1.16346
-1.50289
-1.80666
-2.07817
-2.32061
-2.53671
-2.72868
-2.89839
-3.04753
-3.17778
-3.29084
-3.38848
-3.4724
-3.54424
-3.60545
-3.65739
-3.70125
-3.73802
-3.76863
-3.79381
-3.81428
-3.83063
-3.84357
-3.85363
-3.86152
-3.86774
-3.87305
-3.87813
-3.88393
-3.8908
-3.89861
-3.90552
-3.90994
-3.91059
-3.90792
-3.90221
-3.89491
-3.88674
-3.87951
-3.87472
-3.87504
-3.88306
-3.9018
-3.93308
-3.97692
-4.03197
-4.0967
-4.16898
-4.24684
-4.32625
-4.40343
-4.47203
-4.52853
-4.56658
-4.58421
-4.57493
-4.53882
-4.4702
-4.37093
-4.23508
-4.06724
-3.86504
-3.63856
-3.3933
-3.1453
-2.90755
-2.70083
-2.54614
-2.46536
-2.4843
-2.61477
-2.88022
-3.28873
-3.8608
-4.5722
-5.40045
-6.28233
-7.18162
-8.04251
-8.849
-9.56825
-10.2036
-10.7383
-11.1854
-11.5361
-11.8056
-11.9875
-12.0954
-12.1225
-12.0791
-11.9589
-11.7691
-11.5047
-11.1706
-10.7635
-10.2866
-9.73966
-9.12512
-8.4464
-7.70595
-6.91111
-6.06505
-5.17834
-4.25594
-3.3068
-2.34955
-1.35778
-0.500532
10.0903
10.0894
10.0872
10.0837
10.0792
10.0741
10.0684
10.0621
10.0554
10.0482
10.0407
10.0328
10.0245
10.016
10.0071
9.99806
9.98883
9.97942
9.96995
9.96036
9.95076
9.94106
9.93137
9.92157
9.91176
9.90183
9.89188
9.88176
9.87161
9.86127
9.85085
9.84019
9.8294
9.8183
9.807
9.79529
9.78328
9.77075
9.75781
9.74419
9.73003
9.71503
9.69933
9.68261
9.665
9.64618
9.62627
9.60494
9.5823
9.55801
9.53219
9.50449
9.47503
9.44347
9.40992
9.37405
9.33598
9.29536
9.25232
9.20651
9.15804
9.10655
9.05209
8.99424
8.93293
8.86763
8.79802
8.72328
8.64263
8.55463
8.45762
8.34897
8.22536
8.08203
7.91293
7.71013
7.46441
7.16491
6.80091
6.35676
5.81427
5.1437
4.35107
3.50017
2.65224
1.83682
1.06987
0.363499
-0.276323
-0.849185
-1.35645
-1.80012
-2.18341
-2.51152
-2.79086
-3.02815
-3.22948
-3.39997
-3.54375
-3.66417
-3.76404
-3.84583
-3.91184
-3.9642
-4.00491
-4.03574
-4.05833
-4.07397
-4.08388
-4.08894
-4.09
-4.08765
-4.08251
-4.07499
-4.06559
-4.05461
-4.04264
-4.03006
-4.01753
-4.00563
-3.99597
-3.99069
-3.99051
-3.9934
-3.99666
-3.99679
-3.99167
-3.97958
-3.96093
-3.93626
-3.90809
-3.87946
-3.85477
-3.8391
-3.83932
-3.86311
-3.9144
-3.99111
-4.0867
-4.19281
-4.30237
-4.4103
-4.51277
-4.60397
-4.67984
-4.73506
-4.76797
-4.77459
-4.75342
-4.6962
-4.59949
-4.45534
-4.26298
-4.01955
-3.73332
-3.40955
-3.06443
-2.7182
-2.39303
-2.11884
-1.92321
-1.84223
-1.90194
-2.14669
-2.60936
-3.31575
-4.22159
-5.27416
-6.3802
-7.48279
-8.51454
-9.45683
-10.2784
-10.9878
-11.5743
-12.0576
-12.4341
-12.7238
-12.924
-13.0509
-13.0995
-13.0804
-12.9872
-12.8265
-12.5917
-12.286
-11.9043
-11.4469
-10.9112
-10.2961
-9.60289
-8.83077
-7.98588
-7.06869
-6.09005
-5.05273
-3.96744
-2.84975
-1.68139
-0.597444
10.1346
10.1335
10.1307
10.126
10.1199
10.1127
10.1047
10.0962
10.0873
10.0781
10.0689
10.0596
10.0504
10.0411
10.0318
10.0224
10.0131
10.0039
9.99481
9.9858
9.977
9.9683
9.95981
9.95141
9.9432
9.93506
9.92708
9.91912
9.91131
9.90348
9.89575
9.88795
9.88021
9.87233
9.86443
9.85631
9.84808
9.83951
9.83073
9.82147
9.81185
9.8016
9.79084
9.77925
9.76697
9.75367
9.73946
9.72401
9.70744
9.6894
9.67002
9.64895
9.62634
9.60183
9.5756
9.54731
9.51715
9.48484
9.45057
9.41411
9.37567
9.33506
9.29253
9.2479
9.20143
9.15295
9.10265
9.05029
8.9958
8.93858
8.87781
8.81166
8.7372
8.64913
8.53859
8.39095
8.18232
7.88024
7.44116
6.83255
6.04479
5.15024
4.15587
3.1163
2.06444
1.03188
0.0757255
-0.758641
-1.45929
-2.03522
-2.50132
-2.87302
-3.16588
-3.39514
-3.5748
-3.71644
-3.82911
-3.91927
-3.9916
-4.04928
-4.09475
-4.1297
-4.15571
-4.17392
-4.18562
-4.19164
-4.19308
-4.19052
-4.18484
-4.17639
-4.16585
-4.15337
-4.13954
-4.12447
-4.10866
-4.09196
-4.07482
-4.05716
-4.04008
-4.02353
-4.00935
-4.00445
-4.00455
-4.0062
-4.00883
-4.01062
-4.00851
-4.00001
-3.98308
-3.95723
-3.92332
-3.88478
-3.84545
-3.8108
-3.78959
-3.79144
-3.82792
-3.90476
-4.01862
-4.1557
-4.30005
-4.4374
-4.55886
-4.65743
-4.73509
-4.78842
-4.81835
-4.82459
-4.81194
-4.77192
-4.70216
-4.58773
-4.42006
-4.18876
-3.90824
-3.58497
-3.24148
-2.89698
-2.56926
-2.29372
-2.12111
-2.09613
-2.21902
-2.51719
-3.0536
-3.85983
-4.87259
-6.01982
-7.20256
-8.35898
-9.42414
-10.3779
-11.1933
-11.8804
-12.4352
-12.8803
-13.2183
-13.471
-13.6395
-13.7404
-13.7715
-13.7429
-13.6484
-13.4931
-13.2705
-12.9823
-12.6224
-12.1894
-11.6785
-11.0857
-10.4093
-9.64461
-8.79464
-7.85555
-6.83589
-5.73329
-4.5576
-3.31608
-2.00129
-0.689714
10.1846
10.1831
10.1797
10.1748
10.1688
10.1621
10.1546
10.1462
10.1371
10.1276
10.1179
10.108
10.0982
10.0883
10.0785
10.0687
10.0591
10.0495
10.0402
10.031
10.0221
10.0135
10.0052
9.99716
9.98948
9.98205
9.97498
9.96814
9.96167
9.9554
9.94947
9.94369
9.93821
9.93282
9.92766
9.9225
9.91749
9.91239
9.90732
9.90202
9.89662
9.89084
9.88479
9.87818
9.8711
9.86324
9.85471
9.84516
9.8347
9.82297
9.81011
9.79575
9.78004
9.76264
9.74373
9.72302
9.70071
9.67659
9.65093
9.62361
9.59501
9.56511
9.53442
9.50311
9.47186
9.44109
9.41177
9.38471
9.36138
9.34324
9.33244
9.33115
9.3419
9.36679
9.40582
9.45464
9.48842
9.46484
9.22062
8.6095
7.01026
4.9278
3.20547
1.93706
0.855924
-0.120353
-0.957664
-1.64106
-2.18559
-2.61621
-2.95603
-3.2244
-3.43689
-3.60621
-3.74207
-3.85191
-3.94096
-4.01312
-4.07104
-4.11687
-4.15221
-4.17856
-4.19718
-4.20922
-4.21565
-4.21733
-4.21507
-4.20947
-4.20119
-4.19061
-4.17822
-4.16424
-4.14904
-4.1328
-4.11585
-4.09823
-4.08017
-4.06167
-4.04379
-4.02595
-4.01181
-4.01117
-4.01583
-4.02016
-4.02328
-4.02346
-4.01928
-4.0087
-3.99057
-3.96328
-3.92904
-3.89161
-3.85851
-3.83552
-3.82863
-3.84146
-3.88181
-3.95923
-4.07582
-4.22089
-4.38106
-4.53636
-4.67102
-4.77198
-4.84787
-4.89743
-4.92859
-4.94685
-4.96305
-4.96491
-4.95264
-4.90403
-4.81268
-4.66723
-4.49186
-4.28059
-4.05475
-3.81508
-3.58106
-3.38633
-3.28231
-3.32244
-3.4919
-3.80827
-4.35299
-5.12371
-6.07469
-7.14172
-8.2408
-9.30665
-10.291
-11.1638
-11.9134
-12.5357
-13.0404
-13.4339
-13.7328
-13.9439
-14.0829
-14.1522
-14.1633
-14.1131
-14.0084
-13.8418
-13.6177
-13.3275
-12.9746
-12.5488
-12.0523
-11.4743
-10.8165
-10.0688
-9.23487
-8.30611
-7.28893
-6.17478
-4.96872
-3.66462
-2.26124
-0.765472
10.2436
10.2399
10.2302
10.2163
10.2019
10.1886
10.176
10.1638
10.1518
10.1401
10.129
10.1183
10.1082
10.0985
10.0892
10.0803
10.0718
10.0638
10.0561
10.0488
10.042
10.0354
10.0294
10.0236
10.0184
10.0134
10.009
10.005
10.0014
9.99827
9.9956
9.99325
9.99138
9.98977
9.98858
9.98758
9.98692
9.98635
9.98602
9.98566
9.98541
9.98497
9.98447
9.9836
9.98247
9.98073
9.97851
9.97543
9.97164
9.96674
9.96089
9.95372
9.94542
9.93566
9.92466
9.91218
9.89851
9.88348
9.86751
9.85055
9.83313
9.81539
9.79802
9.7814
9.76642
9.75381
9.74483
9.74076
9.74362
9.75594
9.78187
9.82762
9.90333
10.0245
10.2131
10.5029
10.9274
11.5663
12.3692
13.6052
13.4986
9.2328
5.75553
3.40199
1.52677
0.09165
-0.949471
-1.70556
-2.25613
-2.66114
-2.96561
-3.20111
-3.38897
-3.54311
-3.67228
-3.7818
-3.87485
-3.95342
-4.0189
-4.07241
-4.11508
-4.14799
-4.1723
-4.18907
-4.19939
-4.20418
-4.20438
-4.20069
-4.19386
-4.1844
-4.17287
-4.1596
-4.14501
-4.1293
-4.11279
-4.09551
-4.07774
-4.05866
-4.04033
-4.00983
-4.00737
-4.00817
-4.01097
-4.01513
-4.01924
-4.0212
-4.02015
-4.01451
-4.00381
-3.98648
-3.96309
-3.93606
-3.91156
-3.896
-3.89628
-3.91925
-3.97225
-4.06253
-4.1891
-4.34498
-4.51328
-4.67518
-4.80948
-4.91031
-4.98461
-5.04104
-5.07808
-5.10942
-5.14085
-5.16632
-5.17556
-5.15826
-5.10439
-5.00889
-4.88749
-4.75034
-4.61095
-4.47632
-4.33254
-4.20279
-4.14316
-4.23294
-4.3892
-4.60321
-4.9832
-5.62977
-6.49031
-7.50902
-8.55274
-9.58197
-10.5145
-11.3632
-12.0797
-12.692
-13.1739
-13.5634
-13.8449
-14.0545
-14.1791
-14.2466
-14.2439
-14.1909
-14.0734
-13.9023
-13.6651
-13.3689
-13.0044
-12.5732
-12.0698
-11.4909
-10.8346
-10.0944
-9.27415
-8.36564
-7.37639
-6.29243
-5.11699
-3.82555
-2.41442
-0.818573
10.315
10.324
10.323
10.312
10.2975
10.2821
10.266
10.2494
10.2329
10.217
10.2016
10.1868
10.1725
10.1588
10.1457
10.1334
10.1219
10.1112
10.1013
10.0921
10.0838
10.076
10.0691
10.0627
10.0571
10.0521
10.0479
10.0444
10.0418
10.0398
10.0386
10.0381
10.0384
10.0393
10.0409
10.0431
10.046
10.0494
10.0534
10.0578
10.0627
10.0679
10.0735
10.0792
10.0851
10.0909
10.0967
10.1022
10.1075
10.1121
10.1162
10.1194
10.1219
10.1231
10.1234
10.1224
10.1203
10.1168
10.1123
10.1067
10.1003
10.0932
10.0861
10.0792
10.0732
10.0686