/*--------------------------------*- C++ -*----------------------------------*\
  =========                 |
  \\      /  F ield         | OpenFOAM: The Open Source CFD Toolbox
   \\    /   O peration     | Website:  https://openfoam.org
    \\  /    A nd           | Version:  10
     \\/     M anipulation  |
\*---------------------------------------------------------------------------*/
FoamFile
{
    format      ascii;
    class       volVectorField;
    location    "16500";
    object      Ub;
}
// * * * * * * * * * * * * * * * * * * * * * * * * * * * * * * * * * * * * * //

dimensions      [0 1 -1 0 0 0 0];

internalField   nonuniform List<vector> 
3200
(
(-7.14773e-21 -9.87888e-16 0)
(-2.14584e-20 -9.87888e-16 0)
(-3.59401e-20 -9.87888e-16 0)
(-5.08843e-20 -9.87887e-16 0)
(-6.66159e-20 -9.87886e-16 0)
(-8.35253e-20 -9.87885e-16 0)
(-1.02112e-19 -9.87883e-16 0)
(-1.23053e-19 -9.87881e-16 0)
(-1.47309e-19 -9.87877e-16 0)
(-1.76309e-19 -9.87872e-16 0)
(-2.12271e-19 -9.87864e-16 0)
(-2.58792e-19 -9.87852e-16 0)
(-3.2194e-19 -9.87833e-16 0)
(-4.12372e-19 -9.87801e-16 0)
(-5.49485e-19 -9.87744e-16 0)
(-8.56402e-17 -9.87641e-16 0)
(-2.9911e-06 -9.24686e-14 0)
(-4.90307e-05 -5.71732e-05 0)
(-9.43731e-05 -1.29509e-05 0)
(-9.7658e-05 -5.65343e-06 0)
(-9.92871e-05 -3.30519e-06 0)
(-0.000100393 -2.17805e-06 0)
(-0.000101227 -1.54004e-06 0)
(-0.000101889 -1.14293e-06 0)
(-0.000102432 -8.79477e-07 0)
(-0.000102889 -6.96231e-07 0)
(-0.000103279 -5.64014e-07 0)
(-0.000103617 -4.65736e-07 0)
(-0.000103913 -3.9086e-07 0)
(-0.000104175 -3.32598e-07 0)
(-0.000104408 -2.86417e-07 0)
(-0.000104447 -6.77484e-07 0)
(-0.000101322 -8.23222e-06 0)
(-9.53298e-05 -8.02426e-06 0)
(-8.94404e-05 -8.15722e-06 0)
(-8.3054e-05 -9.56662e-06 0)
(-7.50414e-05 -1.28316e-05 0)
(-6.37983e-05 -1.88521e-05 0)
(-4.69331e-05 -2.91881e-05 0)
(-2.17282e-05 -4.35628e-05 0)
(-6.84557e-21 -9.87868e-16 0)
(-2.05301e-20 -9.87867e-16 0)
(-3.43124e-20 -9.87866e-16 0)
(-4.84168e-20 -9.87864e-16 0)
(-6.30766e-20 -9.87862e-16 0)
(-7.85461e-20 -9.87858e-16 0)
(-9.51089e-20 -9.87853e-16 0)
(-1.13082e-19 -9.87847e-16 0)
(-1.32802e-19 -9.87838e-16 0)
(-1.54578e-19 -9.87825e-16 0)
(-1.78543e-19 -9.87808e-16 0)
(-2.04289e-19 -9.87782e-16 0)
(-2.29988e-19 -9.87745e-16 0)
(-2.50342e-19 -9.87689e-16 0)
(-2.51884e-19 -9.87601e-16 0)
(-2.02325e-19 -9.87464e-16 0)
(-2.78664e-20 -9.87241e-16 0)
(1.88899e-19 -9.74926e-16 0)
(2.29636e-19 -9.30066e-16 0)
(1.52532e-19 -8.89565e-16 0)
(9.52809e-20 -8.51668e-16 0)
(4.93283e-20 -8.15673e-16 0)
(9.04892e-21 -7.81198e-16 0)
(-2.94037e-20 -7.48005e-16 0)
(-6.92151e-20 -7.15928e-16 0)
(-1.13723e-19 -6.84846e-16 0)
(-1.67202e-19 -6.54667e-16 0)
(-2.35884e-19 -6.25315e-16 0)
(-3.29547e-19 -5.96732e-16 0)
(-5.57035e-19 -5.68862e-16 0)
(-4.81366e-08 -5.58026e-16 0)
(-2.43022e-05 -4.2824e-07 0)
(-5.36601e-05 -8.01264e-06 0)
(-6.24771e-05 -7.8282e-06 0)
(-6.95585e-05 -7.98008e-06 0)
(-7.6752e-05 -9.40528e-06 0)
(-8.53694e-05 -1.26841e-05 0)
(-9.70799e-05 -1.8717e-05 0)
(-0.000105813 -5.31676e-05 0)
(-5.68128e-05 -0.000234026 0)
(-6.29937e-21 -9.87849e-16 0)
(-1.88584e-20 -9.87848e-16 0)
(-3.14041e-20 -9.87846e-16 0)
(-4.40619e-20 -9.87844e-16 0)
(-5.69407e-20 -9.8784e-16 0)
(-7.01264e-20 -9.87835e-16 0)
(-8.36648e-20 -9.87828e-16 0)
(-9.75302e-20 -9.8782e-16 0)
(-1.11568e-19 -9.87809e-16 0)
(-1.25392e-19 -9.87794e-16 0)
(-1.38219e-19 -9.87776e-16 0)
(-1.48598e-19 -9.87752e-16 0)
(-1.5403e-19 -9.87721e-16 0)
(-1.50536e-19 -9.87683e-16 0)
(-1.32485e-19 -9.87638e-16 0)
(-9.37741e-20 -9.87593e-16 0)
(-3.34441e-20 -9.87565e-16 0)
(2.64485e-20 -9.87599e-16 0)
(5.45543e-20 -9.8767e-16 0)
(5.22384e-20 -9.87715e-16 0)
(3.74323e-20 -9.87744e-16 0)
(1.76963e-20 -9.87761e-16 0)
(-3.83898e-21 -9.8777e-16 0)
(-2.5828e-20 -9.87771e-16 0)
(-4.74688e-20 -9.87766e-16 0)
(-6.77522e-20 -9.87754e-16 0)
(-8.47164e-20 -9.87732e-16 0)
(-9.43269e-20 -9.87699e-16 0)
(-8.84828e-20 -9.87647e-16 0)
(-5.13298e-20 -9.87572e-16 0)
(4.75633e-20 -9.87459e-16 0)
(1.54885e-19 -9.86437e-16 0)
(1.6593e-19 -9.65723e-16 0)
(1.18254e-19 -9.45097e-16 0)
(7.92864e-20 -9.24091e-16 0)
(4.56786e-20 -9.02587e-16 0)
(-8.56571e-21 -8.80346e-16 0)
(-2.20784e-08 -1.27473e-14 0)
(-9.02894e-06 -2.51403e-05 0)
(-5.4598e-06 -0.000418002 0)
(-5.60057e-21 -9.87832e-16 0)
(-1.67306e-20 -9.87831e-16 0)
(-2.77409e-20 -9.87829e-16 0)
(-3.8665e-20 -9.87826e-16 0)
(-4.95085e-20 -9.87822e-16 0)
(-6.02356e-20 -9.87816e-16 0)
(-7.07489e-20 -9.87809e-16 0)
(-8.08605e-20 -9.878e-16 0)
(-9.02513e-20 -9.8779e-16 0)
(-9.8419e-20 -9.87777e-16 0)
(-1.04619e-19 -9.87761e-16 0)
(-1.07815e-19 -9.87743e-16 0)
(-1.06684e-19 -9.87722e-16 0)
(-9.97641e-20 -9.877e-16 0)
(-8.58904e-20 -9.87679e-16 0)
(-6.51013e-20 -9.87663e-16 0)
(-4.00287e-20 -9.87658e-16 0)
(-1.68712e-20 -9.87667e-16 0)
(-1.97378e-21 -9.87686e-16 0)
(3.37654e-21 -9.87705e-16 0)
(1.65862e-21 -9.8772e-16 0)
(-4.47433e-21 -9.87731e-16 0)
(-1.29294e-20 -9.87736e-16 0)
(-2.20966e-20 -9.87738e-16 0)
(-3.06012e-20 -9.87734e-16 0)
(-3.70607e-20 -9.87727e-16 0)
(-3.99023e-20 -9.87715e-16 0)
(-3.72954e-20 -9.877e-16 0)
(-2.73449e-20 -9.87684e-16 0)
(-8.8842e-21 -9.87669e-16 0)
(1.64015e-20 -9.87666e-16 0)
(3.90266e-20 -9.87689e-16 0)
(4.8175e-20 -9.87725e-16 0)
(4.49302e-20 -9.8775e-16 0)
(3.59425e-20 -9.87766e-16 0)
(2.47857e-20 -9.87776e-16 0)
(1.36156e-20 -9.87781e-16 0)
(-3.91214e-14 -9.93461e-16 0)
(-3.45125e-07 -1.81598e-06 0)
(1.33483e-07 -0.000457439 0)
(-4.84265e-21 -9.87817e-16 0)
(-1.44357e-20 -9.87816e-16 0)
(-2.3834e-20 -9.87814e-16 0)
(-3.30065e-20 -9.87811e-16 0)
(-4.18966e-20 -9.87806e-16 0)
(-5.04103e-20 -9.87801e-16 0)
(-5.84029e-20 -9.87795e-16 0)
(-6.56649e-20 -9.87787e-16 0)
(-7.19079e-20 -9.87777e-16 0)
(-7.67548e-20 -9.87767e-16 0)
(-7.97444e-20 -9.87755e-16 0)
(-8.03609e-20 -9.87742e-16 0)
(-7.81095e-20 -9.87729e-16 0)
(-7.26588e-20 -9.87716e-16 0)
(-6.40545e-20 -9.87705e-16 0)
(-5.2972e-20 -9.87697e-16 0)
(-4.08714e-20 -9.87694e-16 0)
(-2.97907e-20 -9.87696e-16 0)
(-2.1518e-20 -9.87702e-16 0)
(-1.67507e-20 -9.87709e-16 0)
(-1.51569e-20 -9.87716e-16 0)
(-1.5925e-20 -9.87721e-16 0)
(-1.81155e-20 -9.87724e-16 0)
(-2.08107e-20 -9.87725e-16 0)
(-2.31581e-20 -9.87723e-16 0)
(-2.43821e-20 -9.8772e-16 0)
(-2.38121e-20 -9.87716e-16 0)
(-2.09632e-20 -9.87712e-16 0)
(-1.56921e-20 -9.87708e-16 0)
(-8.42797e-21 -9.87707e-16 0)
(-4.028e-22 -9.8771e-16 0)
(6.38785e-21 -9.87718e-16 0)
(1.02158e-20 -9.87728e-16 0)
(1.07843e-20 -9.87739e-16 0)
(8.84488e-21 -9.87748e-16 0)
(5.31102e-21 -9.87755e-16 0)
(9.45997e-22 -9.8776e-16 0)
(-1.16532e-11 -9.98553e-16 0)
(-2.24584e-07 -1.61131e-06 0)
(1.36094e-07 -0.000461889 0)
(-4.09954e-21 -9.87804e-16 0)
(-1.21976e-20 -9.87803e-16 0)
(-2.00638e-20 -9.87801e-16 0)
(-2.76325e-20 -9.87798e-16 0)
(-3.48207e-20 -9.87794e-16 0)
(-4.15217e-20 -9.87789e-16 0)
(-4.7599e-20 -9.87784e-16 0)
(-5.28831e-20 -9.87777e-16 0)
(-5.7172e-20 -9.8777e-16 0)
(-6.02392e-20 -9.87761e-16 0)
(-6.1853e-20 -9.87753e-16 0)
(-6.18098e-20 -9.87744e-16 0)
(-5.99857e-20 -9.87735e-16 0)
(-5.64017e-20 -9.87726e-16 0)
(-5.12908e-20 -9.8772e-16 0)
(-4.51365e-20 -9.87715e-16 0)
(-3.86434e-20 -9.87712e-16 0)
(-3.25995e-20 -9.87712e-16 0)
(-2.76526e-20 -9.87713e-16 0)
(-2.41269e-20 -9.87715e-16 0)
(-2.20065e-20 -9.87718e-16 0)
(-2.10369e-20 -9.8772e-16 0)
(-2.08382e-20 -9.87721e-16 0)
(-2.09906e-20 -9.87721e-16 0)
(-2.10926e-20 -9.87721e-16 0)
(-2.0803e-20 -9.8772e-16 0)
(-1.98789e-20 -9.87719e-16 0)
(-1.82145e-20 -9.87719e-16 0)
(-1.58779e-20 -9.87719e-16 0)
(-1.31301e-20 -9.8772e-16 0)
(-1.0399e-20 -9.87723e-16 0)
(-8.17476e-21 -9.87727e-16 0)
(-6.8211e-21 -9.87732e-16 0)
(-6.42714e-21 -9.87738e-16 0)
(-6.82845e-21 -9.87743e-16 0)
(-7.72454e-21 -9.87748e-16 0)
(-8.84542e-21 -9.87753e-16 0)
(-2.1105e-11 -1.00244e-15 0)
(-2.20794e-07 -1.75539e-06 0)
(1.43982e-07 -0.000465618 0)
(-3.41818e-21 -9.87793e-16 0)
(-1.01549e-20 -9.87792e-16 0)
(-1.66547e-20 -9.8779e-16 0)
(-2.2839e-20 -9.87788e-16 0)
(-2.86222e-20 -9.87785e-16 0)
(-3.39078e-20 -9.8778e-16 0)
(-3.85872e-20 -9.87776e-16 0)
(-4.25418e-20 -9.8777e-16 0)
(-4.56476e-20 -9.87764e-16 0)
(-4.77855e-20 -9.87758e-16 0)
(-4.88572e-20 -9.87751e-16 0)
(-4.88051e-20 -9.87745e-16 0)
(-4.76368e-20 -9.87739e-16 0)
(-4.54472e-20 -9.87733e-16 0)
(-4.24318e-20 -9.87728e-16 0)
(-3.88806e-20 -9.87724e-16 0)
(-3.51446e-20 -9.87722e-16 0)
(-3.15761e-20 -9.87721e-16 0)
(-2.84581e-20 -9.8772e-16 0)
(-2.5954e-20 -9.8772e-16 0)
(-2.40978e-20 -9.87721e-16 0)
(-2.28184e-20 -9.87721e-16 0)
(-2.19787e-20 -9.87721e-16 0)
(-2.14141e-20 -9.87722e-16 0)
(-2.09656e-20 -9.87722e-16 0)
(-2.0506e-20 -9.87722e-16 0)
(-1.99594e-20 -9.87722e-16 0)
(-1.93134e-20 -9.87722e-16 0)
(-1.86217e-20 -9.87723e-16 0)
(-1.79934e-20 -9.87724e-16 0)
(-1.75649e-20 -9.87726e-16 0)
(-1.74561e-20 -9.87729e-16 0)
(-1.77183e-20 -9.87733e-16 0)
(-1.82919e-20 -9.87737e-16 0)
(-1.89857e-20 -9.87742e-16 0)
(-1.94697e-20 -9.87747e-16 0)
(-1.94252e-20 -9.87752e-16 0)
(-3.92329e-11 -1.00858e-15 0)
(-2.19407e-07 -2.12942e-06 0)
(1.59117e-07 -0.000469375 0)
(-2.82115e-21 -9.87784e-16 0)
(-8.37199e-21 -9.87783e-16 0)
(-1.37012e-20 -9.87782e-16 0)
(-1.87317e-20 -9.8778e-16 0)
(-2.33862e-20 -9.87777e-16 0)
(-2.75861e-20 -9.87773e-16 0)
(-3.12521e-20 -9.87769e-16 0)
(-3.43068e-20 -9.87765e-16 0)
(-3.66799e-20 -9.8776e-16 0)
(-3.83153e-20 -9.87756e-16 0)
(-3.91804e-20 -9.87751e-16 0)
(-3.92755e-20 -9.87746e-16 0)
(-3.86432e-20 -9.87741e-16 0)
(-3.73733e-20 -9.87737e-16 0)
(-3.56018e-20 -9.87733e-16 0)
(-3.35003e-20 -9.8773e-16 0)
(-3.12572e-20 -9.87728e-16 0)
(-2.90516e-20 -9.87726e-16 0)
(-2.70292e-20 -9.87725e-16 0)
(-2.52853e-20 -9.87724e-16 0)
(-2.38615e-20 -9.87724e-16 0)
(-2.2754e-20 -9.87723e-16 0)
(-2.19286e-20 -9.87723e-16 0)
(-2.13379e-20 -9.87723e-16 0)
(-2.09372e-20 -9.87722e-16 0)
(-2.0698e-20 -9.87722e-16 0)
(-2.06171e-20 -9.87722e-16 0)
(-2.07216e-20 -9.87722e-16 0)
(-2.10678e-20 -9.87723e-16 0)
(-2.17354e-20 -9.87724e-16 0)
(-2.28165e-20 -9.87725e-16 0)
(-2.4399e-20 -9.87727e-16 0)
(-2.65484e-20 -9.87729e-16 0)
(-2.9286e-20 -9.87732e-16 0)
(-3.256e-20 -9.87736e-16 0)
(-3.61984e-20 -9.87741e-16 0)
(-4.03533e-20 -9.87748e-16 0)
(-1.46014e-10 -1.04648e-15 0)
(-2.05626e-07 -4.60893e-06 0)
(1.97123e-07 -0.000473187 0)
(-2.3136e-21 -9.87777e-16 0)
(-6.86071e-21 -9.87776e-16 0)
(-1.12121e-20 -9.87775e-16 0)
(-1.52988e-20 -9.87773e-16 0)
(-1.9056e-20 -9.87771e-16 0)
(-2.24227e-20 -9.87768e-16 0)
(-2.53429e-20 -9.87765e-16 0)
(-2.7768e-20 -9.87761e-16 0)
(-2.96598e-20 -9.87757e-16 0)
(-3.0995e-20 -9.87754e-16 0)
(-3.17696e-20 -9.8775e-16 0)
(-3.20026e-20 -9.87746e-16 0)
(-3.17381e-20 -9.87742e-16 0)
(-3.10457e-20 -9.87739e-16 0)
(-3.00163e-20 -9.87736e-16 0)
(-2.8755e-20 -9.87733e-16 0)
(-2.73712e-20 -9.87731e-16 0)
(-2.59672e-20 -9.87729e-16 0)
(-2.46288e-20 -9.87728e-16 0)
(-2.34191e-20 -9.87727e-16 0)
(-2.2378e-20 -9.87726e-16 0)
(-2.15253e-20 -9.87725e-16 0)
(-2.08679e-20 -9.87724e-16 0)
(-2.04069e-20 -9.87724e-16 0)
(-2.01464e-20 -9.87723e-16 0)
(-2.01003e-20 -9.87722e-16 0)
(-2.02978e-20 -9.87722e-16 0)
(-2.0788e-20 -9.87721e-16 0)
(-2.16436e-20 -9.87721e-16 0)
(-2.2964e-20 -9.87721e-16 0)
(-2.48815e-20 -9.87721e-16 0)
(-2.7571e-20 -9.8772e-16 0)
(-3.12694e-20 -9.8772e-16 0)
(-3.63089e-20 -9.87721e-16 0)
(-4.31745e-20 -9.87721e-16 0)
(-5.25989e-20 -9.87721e-16 0)
(-6.91466e-20 -9.87723e-16 0)
(-1.27581e-09 -1.37552e-15 0)
(-1.66259e-07 -1.4604e-05 0)
(2.75467e-07 -0.000477009 0)
(-1.89031e-21 -9.8777e-16 0)
(-5.60301e-21 -9.8777e-16 0)
(-9.14918e-21 -9.87769e-16 0)
(-1.24704e-20 -9.87767e-16 0)
(-1.55141e-20 -9.87766e-16 0)
(-1.8234e-20 -9.87763e-16 0)
(-2.05908e-20 -9.87761e-16 0)
(-2.25541e-20 -9.87758e-16 0)
(-2.41035e-20 -9.87755e-16 0)
(-2.52313e-20 -9.87752e-16 0)
(-2.59439e-20 -9.87749e-16 0)
(-2.62631e-20 -9.87746e-16 0)
(-2.62256e-20 -9.87743e-16 0)
(-2.58819e-20 -9.8774e-16 0)
(-2.52929e-20 -9.87738e-16 0)
(-2.45255e-20 -9.87735e-16 0)
(-2.36478e-20 -9.87733e-16 0)
(-2.27232e-20 -9.87732e-16 0)
(-2.18067e-20 -9.8773e-16 0)
(-2.09428e-20 -9.87729e-16 0)
(-2.01649e-20 -9.87728e-16 0)
(-1.94968e-20 -9.87726e-16 0)
(-1.89564e-20 -9.87725e-16 0)
(-1.85584e-20 -9.87724e-16 0)
(-1.83188e-20 -9.87723e-16 0)
(-1.82581e-20 -9.87722e-16 0)
(-1.84043e-20 -9.87721e-16 0)
(-1.87951e-20 -9.8772e-16 0)
(-1.94805e-20 -9.87719e-16 0)
(-2.05247e-20 -9.87717e-16 0)
(-2.20091e-20 -9.87716e-16 0)
(-2.40364e-20 -9.87714e-16 0)
(-2.67359e-20 -9.87711e-16 0)
(-3.02711e-20 -9.87708e-16 0)
(-3.48477e-20 -9.87704e-16 0)
(-4.07199e-20 -9.87698e-16 0)
(-6.63298e-20 -9.8769e-16 0)
(-5.06869e-09 -2.24035e-15 0)
(-1.67632e-07 -2.70422e-05 0)
(2.69832e-07 -0.000480777 0)
(-1.54116e-21 -9.87766e-16 0)
(-4.56708e-21 -9.87765e-16 0)
(-7.45464e-21 -9.87764e-16 0)
(-1.01557e-20 -9.87763e-16 0)
(-1.26287e-20 -9.87761e-16 0)
(-1.48383e-20 -9.8776e-16 0)
(-1.67567e-20 -9.87758e-16 0)
(-1.83643e-20 -9.87755e-16 0)
(-1.965e-20 -9.87753e-16 0)
(-2.06128e-20 -9.8775e-16 0)
(-2.12615e-20 -9.87748e-16 0)
(-2.16149e-20 -9.87746e-16 0)
(-2.17012e-20 -9.87743e-16 0)
(-2.1556e-20 -9.87741e-16 0)
(-2.12205e-20 -9.87739e-16 0)
(-2.07386e-20 -9.87737e-16 0)
(-2.01543e-20 -9.87735e-16 0)
(-1.95085e-20 -9.87733e-16 0)
(-1.88379e-20 -9.87732e-16 0)
(-1.81731e-20 -9.8773e-16 0)
(-1.75386e-20 -9.87729e-16 0)
(-1.69536e-20 -9.87728e-16 0)
(-1.64326e-20 -9.87726e-16 0)
(-1.59873e-20 -9.87725e-16 0)
(-1.56273e-20 -9.87724e-16 0)
(-1.53614e-20 -9.87723e-16 0)
(-1.51975e-20 -9.87721e-16 0)
(-1.51428e-20 -9.87719e-16 0)
(-1.52018e-20 -9.87718e-16 0)
(-1.53746e-20 -9.87716e-16 0)
(-1.56517e-20 -9.87713e-16 0)
(-1.60083e-20 -9.8771e-16 0)
(-1.63933e-20 -9.87707e-16 0)
(-1.67127e-20 -9.87702e-16 0)
(-1.68038e-20 -9.87697e-16 0)
(-1.63944e-20 -9.8769e-16 0)
(-2.80284e-20 -9.87681e-16 0)
(-1.43623e-09 -2.98774e-15 0)
(-2.17457e-07 -3.11969e-05 0)
(1.34819e-07 -0.00048441 0)
(-1.25463e-21 -9.87761e-16 0)
(-3.71767e-21 -9.87761e-16 0)
(-6.0674e-21 -9.8776e-16 0)
(-8.26488e-21 -9.87759e-16 0)
(-1.02771e-20 -9.87758e-16 0)
(-1.20772e-20 -9.87757e-16 0)
(-1.3645e-20 -9.87755e-16 0)
(-1.49669e-20 -9.87753e-16 0)
(-1.60366e-20 -9.87751e-16 0)
(-1.68552e-20 -9.87749e-16 0)
(-1.74308e-20 -9.87747e-16 0)
(-1.77779e-20 -9.87745e-16 0)
(-1.7917e-20 -9.87743e-16 0)
(-1.78731e-20 -9.87741e-16 0)
(-1.76738e-20 -9.87739e-16 0)
(-1.73485e-20 -9.87738e-16 0)
(-1.69258e-20 -9.87736e-16 0)
(-1.64324e-20 -9.87734e-16 0)
(-1.58923e-20 -9.87733e-16 0)
(-1.53255e-20 -9.87732e-16 0)
(-1.47478e-20 -9.8773e-16 0)
(-1.4171e-20 -9.87729e-16 0)
(-1.36026e-20 -9.87728e-16 0)
(-1.30465e-20 -9.87726e-16 0)
(-1.25023e-20 -9.87725e-16 0)
(-1.19657e-20 -9.87723e-16 0)
(-1.14269e-20 -9.87722e-16 0)
(-1.087e-20 -9.8772e-16 0)
(-1.02702e-20 -9.87718e-16 0)
(-9.59106e-21 -9.87716e-16 0)
(-8.78034e-21 -9.87714e-16 0)
(-7.76483e-21 -9.87711e-16 0)
(-6.44374e-21 -9.87708e-16 0)
(-4.6811e-21 -9.87705e-16 0)
(-2.29765e-21 -9.87701e-16 0)
(9.36279e-22 -9.87696e-16 0)
(5.3036e-21 -9.87691e-16 0)
(2.71137e-20 -3.29997e-15 0)
(-1.89626e-07 -2.88328e-05 0)
(6.83248e-08 -0.000487571 0)
(-1.01973e-21 -9.87758e-16 0)
(-3.02161e-21 -9.87758e-16 0)
(-4.93141e-21 -9.87757e-16 0)
(-6.71782e-21 -9.87757e-16 0)
(-8.35468e-21 -9.87755e-16 0)
(-9.82116e-21 -9.87754e-16 0)
(-1.11019e-20 -9.87753e-16 0)
(-1.21872e-20 -9.87751e-16 0)
(-1.30729e-20 -9.8775e-16 0)
(-1.37601e-20 -9.87748e-16 0)
(-1.42551e-20 -9.87746e-16 0)
(-1.45684e-20 -9.87745e-16 0)
(-1.47146e-20 -9.87743e-16 0)
(-1.47106e-20 -9.87741e-16 0)
(-1.45751e-20 -9.8774e-16 0)
(-1.43275e-20 -9.87738e-16 0)
(-1.39864e-20 -9.87737e-16 0)
(-1.35692e-20 -9.87735e-16 0)
(-1.30908e-20 -9.87734e-16 0)
(-1.25636e-20 -9.87733e-16 0)
(-1.19967e-20 -9.87731e-16 0)
(-1.13956e-20 -9.8773e-16 0)
(-1.07625e-20 -9.87729e-16 0)
(-1.00953e-20 -9.87728e-16 0)
(-9.38794e-21 -9.87726e-16 0)
(-8.6296e-21 -9.87725e-16 0)
(-7.804e-21 -9.87723e-16 0)
(-6.88848e-21 -9.87722e-16 0)
(-5.85277e-21 -9.8772e-16 0)
(-4.65757e-21 -9.87719e-16 0)
(-3.25302e-21 -9.87717e-16 0)
(-1.57712e-21 -9.87715e-16 0)
(4.45526e-22 -9.87713e-16 0)
(2.90433e-21 -9.87711e-16 0)
(5.90225e-21 -9.87709e-16 0)
(9.5535e-21 -9.87706e-16 0)
(1.39789e-20 -9.87704e-16 0)
(4.68432e-20 -3.56447e-15 0)
(-4.49347e-08 -2.5044e-05 0)
(3.66552e-08 -0.000489354 0)
(-8.26853e-22 -9.87756e-16 0)
(-2.45011e-21 -9.87755e-16 0)
(-3.99881e-21 -9.87755e-16 0)
(-5.44777e-21 -9.87754e-16 0)
(-6.7761e-21 -9.87753e-16 0)
(-7.96734e-21 -9.87752e-16 0)
(-9.0095e-21 -9.87751e-16 0)
(-9.89501e-21 -9.8775e-16 0)
(-1.06206e-20 -9.87749e-16 0)
(-1.11868e-20 -9.87747e-16 0)
(-1.15981e-20 -9.87746e-16 0)
(-1.18618e-20 -9.87744e-16 0)
(-1.19876e-20 -9.87743e-16 0)
(-1.1987e-20 -9.87742e-16 0)
(-1.18725e-20 -9.8774e-16 0)
(-1.16568e-20 -9.87739e-16 0)
(-1.1352e-20 -9.87738e-16 0)
(-1.09691e-20 -9.87736e-16 0)
(-1.05174e-20 -9.87735e-16 0)
(-1.00042e-20 -9.87734e-16 0)
(-9.4343e-21 -9.87733e-16 0)
(-8.80992e-21 -9.87731e-16 0)
(-8.13035e-21 -9.8773e-16 0)
(-7.39187e-21 -9.87729e-16 0)
(-6.58755e-21 -9.87728e-16 0)
(-5.70702e-21 -9.87727e-16 0)
(-4.73633e-21 -9.87726e-16 0)
(-3.65772e-21 -9.87724e-16 0)
(-2.44959e-21 -9.87723e-16 0)
(-1.08654e-21 -9.87722e-16 0)
(4.60265e-22 -9.87721e-16 0)
(2.22226e-21 -9.8772e-16 0)
(4.23212e-21 -9.87718e-16 0)
(6.52147e-21 -9.87717e-16 0)
(9.11765e-21 -9.87717e-16 0)
(1.20392e-20 -9.87716e-16 0)
(1.52901e-20 -9.87716e-16 0)
(4.72952e-20 -3.82797e-15 0)
(1.74529e-10 -2.16755e-05 0)
(1.42267e-08 -0.000489619 0)
(-6.68002e-22 -9.87753e-16 0)
(-1.97937e-21 -9.87753e-16 0)
(-3.23042e-21 -9.87753e-16 0)
(-4.40081e-21 -9.87752e-16 0)
(-5.47368e-21 -9.87752e-16 0)
(-6.4358e-21 -9.87751e-16 0)
(-7.27748e-21 -9.8775e-16 0)
(-7.99251e-21 -9.87749e-16 0)
(-8.57791e-21 -9.87748e-16 0)
(-9.03374e-21 -9.87746e-16 0)
(-9.36262e-21 -9.87745e-16 0)
(-9.56938e-21 -9.87744e-16 0)
(-9.66052e-21 -9.87743e-16 0)
(-9.64366e-21 -9.87742e-16 0)
(-9.52706e-21 -9.8774e-16 0)
(-9.31903e-21 -9.87739e-16 0)
(-9.02748e-21 -9.87738e-16 0)
(-8.65951e-21 -9.87737e-16 0)
(-8.221e-21 -9.87736e-16 0)
(-7.71639e-21 -9.87735e-16 0)
(-7.14846e-21 -9.87734e-16 0)
(-6.51814e-21 -9.87733e-16 0)
(-5.82452e-21 -9.87732e-16 0)
(-5.06475e-21 -9.87731e-16 0)
(-4.2341e-21 -9.8773e-16 0)
(-3.32608e-21 -9.87729e-16 0)
(-2.3326e-21 -9.87728e-16 0)
(-1.24434e-21 -9.87727e-16 0)
(-5.11758e-23 -9.87726e-16 0)
(1.25704e-21 -9.87725e-16 0)
(2.68948e-21 -9.87725e-16 0)
(4.25291e-21 -9.87724e-16 0)
(5.94981e-21 -9.87723e-16 0)
(7.77582e-21 -9.87723e-16 0)
(9.7166e-21 -9.87723e-16 0)
(1.17437e-20 -9.87723e-16 0)
(1.38092e-20 -9.87723e-16 0)
(4.12405e-20 -4.09527e-15 0)
(1.33445e-10 -1.9069e-05 0)
(4.82299e-09 -0.000489351 0)
(-5.36717e-22 -9.87752e-16 0)
(-1.59023e-21 -9.87751e-16 0)
(-2.59492e-21 -9.87751e-16 0)
(-3.53421e-21 -9.87751e-16 0)
(-4.3944e-21 -9.8775e-16 0)
(-5.16464e-21 -9.87749e-16 0)
(-5.83692e-21 -9.87749e-16 0)
(-6.40592e-21 -9.87748e-16 0)
(-6.86885e-21 -9.87747e-16 0)
(-7.22518e-21 -9.87746e-16 0)
(-7.47632e-21 -9.87745e-16 0)
(-7.62527e-21 -9.87744e-16 0)
(-7.67626e-21 -9.87743e-16 0)
(-7.63433e-21 -9.87742e-16 0)
(-7.50497e-21 -9.87741e-16 0)
(-7.29374e-21 -9.8774e-16 0)
(-7.00596e-21 -9.87739e-16 0)
(-6.64641e-21 -9.87738e-16 0)
(-6.21911e-21 -9.87737e-16 0)
(-5.7272e-21 -9.87736e-16 0)
(-5.17276e-21 -9.87735e-16 0)
(-4.55683e-21 -9.87734e-16 0)
(-3.87942e-21 -9.87733e-16 0)
(-3.13955e-21 -9.87733e-16 0)
(-2.33545e-21 -9.87732e-16 0)
(-1.46478e-21 -9.87731e-16 0)
(-5.24892e-22 -9.8773e-16 0)
(4.86713e-22 -9.8773e-16 0)
(1.57189e-21 -9.87729e-16 0)
(2.73122e-21 -9.87728e-16 0)
(3.96324e-21 -9.87728e-16 0)
(5.2636e-21 -9.87728e-16 0)
(6.62413e-21 -9.87727e-16 0)
(8.03196e-21 -9.87727e-16 0)
(9.4687e-21 -9.87727e-16 0)
(1.09101e-20 -9.87728e-16 0)
(1.23263e-20 -9.87728e-16 0)
(3.72827e-20 -4.36665e-15 0)
(1.10091e-10 -1.69726e-05 0)
(-1.49741e-09 -0.000489044 0)
(-4.27852e-22 -9.8775e-16 0)
(-1.26745e-21 -9.8775e-16 0)
(-2.06749e-21 -9.8775e-16 0)
(-2.81438e-21 -9.87749e-16 0)
(-3.49682e-21 -9.87749e-16 0)
(-4.10582e-21 -9.87748e-16 0)
(-4.63464e-21 -9.87748e-16 0)
(-5.07864e-21 -9.87747e-16 0)
(-5.43516e-21 -9.87746e-16 0)
(-5.70326e-21 -9.87745e-16 0)
(-5.88352e-21 -9.87745e-16 0)
(-5.97772e-21 -9.87744e-16 0)
(-5.98856e-21 -9.87743e-16 0)
(-5.91941e-21 -9.87742e-16 0)
(-5.77403e-21 -9.87741e-16 0)
(-5.55627e-21 -9.8774e-16 0)
(-5.26991e-21 -9.87739e-16 0)
(-4.91848e-21 -9.87739e-16 0)
(-4.50509e-21 -9.87738e-16 0)
(-4.03235e-21 -9.87737e-16 0)
(-3.50237e-21 -9.87736e-16 0)
(-2.91674e-21 -9.87735e-16 0)
(-2.27659e-21 -9.87735e-16 0)
(-1.58274e-21 -9.87734e-16 0)
(-8.3578e-22 -9.87734e-16 0)
(-3.63768e-23 -9.87733e-16 0)
(8.14538e-22 -9.87732e-16 0)
(1.71544e-21 -9.87732e-16 0)
(2.66388e-21 -9.87731e-16 0)
(3.65613e-21 -9.87731e-16 0)
(4.6868e-21 -9.87731e-16 0)
(5.74851e-21 -9.87731e-16 0)
(6.83161e-21 -9.87731e-16 0)
(7.92405e-21 -9.87731e-16 0)
(9.01134e-21 -9.87731e-16 0)
(1.00768e-20 -9.87731e-16 0)
(1.11022e-20 -9.87731e-16 0)
(3.44386e-20 -4.65345e-15 0)
(8.36366e-11 -1.52033e-05 0)
(-5.36675e-09 -0.000488706 0)
(-3.37331e-22 -9.87749e-16 0)
(-9.98993e-22 -9.87749e-16 0)
(-1.62858e-21 -9.87749e-16 0)
(-2.21485e-21 -9.87748e-16 0)
(-2.74843e-21 -9.87748e-16 0)
(-3.22177e-21 -9.87748e-16 0)
(-3.62913e-21 -9.87747e-16 0)
(-3.96645e-21 -9.87746e-16 0)
(-4.2312e-21 -9.87746e-16 0)
(-4.42224e-21 -9.87745e-16 0)
(-4.53961e-21 -9.87744e-16 0)
(-4.58429e-21 -9.87744e-16 0)
(-4.55805e-21 -9.87743e-16 0)
(-4.46319e-21 -9.87742e-16 0)
(-4.30239e-21 -9.87741e-16 0)
(-4.0785e-21 -9.87741e-16 0)
(-3.79442e-21 -9.8774e-16 0)
(-3.45298e-21 -9.87739e-16 0)
(-3.05687e-21 -9.87739e-16 0)
(-2.60858e-21 -9.87738e-16 0)
(-2.1104e-21 -9.87737e-16 0)
(-1.56446e-21 -9.87737e-16 0)
(-9.72756e-22 -9.87736e-16 0)
(-3.37288e-22 -9.87736e-16 0)
(3.39856e-22 -9.87735e-16 0)
(1.05634e-21 -9.87735e-16 0)
(1.80944e-21 -9.87734e-16 0)
(2.59584e-21 -9.87734e-16 0)
(3.41152e-21 -9.87734e-16 0)
(4.25155e-21 -9.87733e-16 0)
(5.11003e-21 -9.87733e-16 0)
(5.97998e-21 -9.87733e-16 0)
(6.85337e-21 -9.87733e-16 0)
(7.72121e-21 -9.87733e-16 0)
(8.57376e-21 -9.87733e-16 0)
(9.40084e-21 -9.87733e-16 0)
(1.01923e-20 -9.87734e-16 0)
(3.28244e-20 -4.99026e-15 0)
(6.66015e-11 -1.36541e-05 0)
(-8.20171e-09 -0.000488347 0)
(-2.61926e-22 -9.87748e-16 0)
(-7.75308e-22 -9.87748e-16 0)
(-1.26269e-21 -9.87748e-16 0)
(-1.71472e-21 -9.87748e-16 0)
(-2.12353e-21 -9.87747e-16 0)
(-2.48276e-21 -9.87747e-16 0)
(-2.78749e-21 -9.87747e-16 0)
(-3.03413e-21 -9.87746e-16 0)
(-3.22038e-21 -9.87745e-16 0)
(-3.345e-21 -9.87745e-16 0)
(-3.40772e-21 -9.87744e-16 0)
(-3.40907e-21 -9.87744e-16 0)
(-3.35021e-21 -9.87743e-16 0)
(-3.23282e-21 -9.87742e-16 0)
(-3.0589e-21 -9.87742e-16 0)
(-2.8307e-21 -9.87741e-16 0)
(-2.55063e-21 -9.87741e-16 0)
(-2.22113e-21 -9.8774e-16 0)
(-1.84466e-21 -9.87739e-16 0)
(-1.42369e-21 -9.87739e-16 0)
(-9.60638e-22 -9.87738e-16 0)
(-4.57962e-22 -9.87738e-16 0)
(8.18519e-23 -9.87737e-16 0)
(6.56207e-22 -9.87737e-16 0)
(1.26233e-21 -9.87737e-16 0)
(1.89722e-21 -9.87736e-16 0)
(2.55751e-21 -9.87736e-16 0)
(3.23947e-21 -9.87736e-16 0)
(3.93892e-21 -9.87735e-16 0)
(4.65117e-21 -9.87735e-16 0)
(5.37108e-21 -9.87735e-16 0)
(6.09305e-21 -9.87735e-16 0)
(6.81109e-21 -9.87735e-16 0)
(7.51902e-21 -9.87735e-16 0)
(8.21055e-21 -9.87735e-16 0)
(8.87959e-21 -9.87735e-16 0)
(9.52042e-21 -9.87736e-16 0)
(3.2304e-20 -5.33365e-15 0)
(5.40399e-11 -1.22597e-05 0)
(-1.0251e-08 -0.000487975 0)
(-1.99062e-22 -9.87748e-16 0)
(-5.8879e-22 -9.87748e-16 0)
(-9.57486e-22 -9.87747e-16 0)
(-1.2973e-21 -9.87747e-16 0)
(-1.60159e-21 -9.87747e-16 0)
(-1.86498e-21 -9.87747e-16 0)
(-2.08322e-21 -9.87746e-16 0)
(-2.25319e-21 -9.87746e-16 0)
(-2.37278e-21 -9.87745e-16 0)
(-2.44079e-21 -9.87745e-16 0)
(-2.4568e-21 -9.87744e-16 0)
(-2.42108e-21 -9.87744e-16 0)
(-2.33443e-21 -9.87743e-16 0)
(-2.19815e-21 -9.87743e-16 0)
(-2.01383e-21 -9.87742e-16 0)
(-1.78337e-21 -9.87742e-16 0)
(-1.50883e-21 -9.87741e-16 0)
(-1.19243e-21 -9.87741e-16 0)
(-8.36476e-22 -9.8774e-16 0)
(-4.43359e-22 -9.8774e-16 0)
(-1.55442e-23 -9.87739e-16 0)
(4.44425e-22 -9.87739e-16 0)
(9.33905e-22 -9.87739e-16 0)
(1.45013e-21 -9.87738e-16 0)
(1.99018e-21 -9.87738e-16 0)
(2.55095e-21 -9.87738e-16 0)
(3.12914e-21 -9.87737e-16 0)
(3.72122e-21 -9.87737e-16 0)
(4.32345e-21 -9.87737e-16 0)
(4.93188e-21 -9.87737e-16 0)
(5.54238e-21 -9.87737e-16 0)
(6.15071e-21 -9.87737e-16 0)
(6.75261e-21 -9.87737e-16 0)
(7.34387e-21 -9.87737e-16 0)
(7.92045e-21 -9.87737e-16 0)
(8.47864e-21 -9.87737e-16 0)
(9.01517e-21 -9.87737e-16 0)
(3.18792e-20 -5.69089e-15 0)
(4.44692e-11 -1.09794e-05 0)
(-1.17198e-08 -0.000487593 0)
(-1.46676e-22 -9.87747e-16 0)
(-4.33332e-22 -9.87747e-16 0)
(-7.03027e-22 -9.87747e-16 0)
(-9.49129e-22 -9.87747e-16 0)
(-1.16603e-21 -9.87746e-16 0)
(-1.34911e-21 -9.87746e-16 0)
(-1.49474e-21 -9.87746e-16 0)
(-1.6002e-21 -9.87746e-16 0)
(-1.6636e-21 -9.87745e-16 0)
(-1.68382e-21 -9.87745e-16 0)
(-1.66039e-21 -9.87744e-16 0)
(-1.59345e-21 -9.87744e-16 0)
(-1.48362e-21 -9.87743e-16 0)
(-1.33192e-21 -9.87743e-16 0)
(-1.13971e-21 -9.87743e-16 0)
(-9.08638e-22 -9.87742e-16 0)
(-6.40548e-22 -9.87742e-16 0)
(-3.37463e-22 -9.87741e-16 0)
(-1.54373e-24 -9.87741e-16 0)
(3.6493e-22 -9.87741e-16 0)
(7.59576e-22 -9.8774e-16 0)
(1.17991e-21 -9.8774e-16 0)
(1.62336e-21 -9.8774e-16 0)
(2.08725e-21 -9.87739e-16 0)
(2.5688e-21 -9.87739e-16 0)
(3.06512e-21 -9.87739e-16 0)
(3.57323e-21 -9.87739e-16 0)
(4.09007e-21 -9.87738e-16 0)
(4.6125e-21 -9.87738e-16 0)
(5.13733e-21 -9.87738e-16 0)
(5.66138e-21 -9.87738e-16 0)
(6.18151e-21 -9.87738e-16 0)
(6.69465e-21 -9.87738e-16 0)
(7.19792e-21 -9.87738e-16 0)
(7.68861e-21 -9.87738e-16 0)
(8.16431e-21 -9.87738e-16 0)
(8.62289e-21 -9.87738e-16 0)
(3.21726e-20 -6.06777e-15 0)
(3.69907e-11 -9.78837e-06 0)
(-1.27424e-08 -0.000487202 0)
(-1.03094e-22 -9.87747e-16 0)
(-3.0399e-22 -9.87747e-16 0)
(-4.91272e-22 -9.87747e-16 0)
(-6.59309e-22 -9.87746e-16 0)
(-8.03319e-22 -9.87746e-16 0)
(-9.19361e-22 -9.87746e-16 0)
(-1.0043e-21 -9.87746e-16 0)
(-1.05577e-21 -9.87745e-16 0)
(-1.07211e-21 -9.87745e-16 0)
(-1.0523e-21 -9.87745e-16 0)
(-9.959e-22 -9.87744e-16 0)
(-9.02967e-22 -9.87744e-16 0)
(-7.74006e-22 -9.87744e-16 0)
(-6.09892e-22 -9.87743e-16 0)
(-4.11818e-22 -9.87743e-16 0)
(-1.81239e-22 -9.87743e-16 0)
(8.017e-23 -9.87742e-16 0)
(3.70555e-22 -9.87742e-16 0)
(6.87911e-22 -9.87742e-16 0)
(1.03011e-21 -9.87741e-16 0)
(1.39491e-21 -9.87741e-16 0)
(1.78e-21 -9.87741e-16 0)
(2.18297e-21 -9.8774e-16 0)
(2.60137e-21 -9.8774e-16 0)
(3.03266e-21 -9.8774e-16 0)
(3.47431e-21 -9.8774e-16 0)
(3.92373e-21 -9.8774e-16 0)
(4.37835e-21 -9.8774e-16 0)
(4.83562e-21 -9.8774e-16 0)
(5.29302e-21 -9.87739e-16 0)
(5.74814e-21 -9.87739e-16 0)
(6.19865e-21 -9.87739e-16 0)
(6.64237e-21 -9.87739e-16 0)
(7.07732e-21 -9.87739e-16 0)
(7.50171e-21 -9.87739e-16 0)
(7.91398e-21 -9.8774e-16 0)
(8.31286e-21 -9.8774e-16 0)
(3.24187e-20 -6.45674e-15 0)
(3.10207e-11 -8.67139e-06 0)
(-1.34188e-08 -0.000486804 0)
(-6.69584e-23 -9.87746e-16 0)
(-1.96738e-22 -9.87746e-16 0)
(-3.15659e-22 -9.87746e-16 0)
(-4.18909e-22 -9.87746e-16 0)
(-5.02394e-22 -9.87746e-16 0)
(-5.62727e-22 -9.87746e-16 0)
(-5.97203e-22 -9.87746e-16 0)
(-6.03764e-22 -9.87745e-16 0)
(-5.80951e-22 -9.87745e-16 0)
(-5.27862e-22 -9.87745e-16 0)
(-4.44088e-22 -9.87745e-16 0)
(-3.2967e-22 -9.87744e-16 0)
(-1.85036e-22 -9.87744e-16 0)
(-1.09547e-23 -9.87744e-16 0)
(1.9151e-22 -9.87743e-16 0)
(4.21045e-22 -9.87743e-16 0)
(6.76129e-22 -9.87743e-16 0)
(9.55059e-22 -9.87743e-16 0)
(1.25599e-21 -9.87742e-16 0)
(1.57696e-21 -9.87742e-16 0)
(1.91589e-21 -9.87742e-16 0)
(2.27067e-21 -9.87742e-16 0)
(2.63909e-21 -9.87741e-16 0)
(3.01894e-21 -9.87741e-16 0)
(3.40798e-21 -9.87741e-16 0)
(3.80399e-21 -9.87741e-16 0)
(4.20478e-21 -9.87741e-16 0)
(4.60821e-21 -9.87741e-16 0)
(5.0122e-21 -9.87741e-16 0)
(5.41481e-21 -9.8774e-16 0)
(5.81417e-21 -9.8774e-16 0)
(6.20859e-21 -9.8774e-16 0)
(6.59652e-21 -9.8774e-16 0)
(6.97658e-21 -9.8774e-16 0)
(7.34758e-21 -9.87741e-16 0)
(7.70848e-21 -9.87741e-16 0)
(8.05845e-21 -9.87741e-16 0)
(3.31153e-20 -6.80274e-15 0)
(2.6126e-11 -7.61904e-06 0)
(-1.38146e-08 -0.000486398 0)
(-3.71571e-23 -9.87746e-16 0)
(-1.08284e-22 -9.87746e-16 0)
(-1.70815e-22 -9.87746e-16 0)
(-2.2061e-22 -9.87746e-16 0)
(-2.54143e-22 -9.87746e-16 0)
(-2.68485e-22 -9.87746e-16 0)
(-2.61288e-22 -9.87746e-16 0)
(-2.30759e-22 -9.87745e-16 0)
(-1.75618e-22 -9.87745e-16 0)
(-9.50656e-23 -9.87745e-16 0)
(1.12639e-23 -9.87745e-16 0)
(1.43344e-22 -9.87745e-16 0)
(3.00797e-22 -9.87744e-16 0)
(4.82939e-22 -9.87744e-16 0)
(6.88813e-22 -9.87744e-16 0)
(9.1723e-22 -9.87744e-16 0)
(1.1668e-21 -9.87743e-16 0)
(1.43597e-21 -9.87743e-16 0)
(1.72303e-21 -9.87743e-16 0)
(2.02618e-21 -9.87743e-16 0)
(2.34351e-21 -9.87742e-16 0)
(2.67307e-21 -9.87742e-16 0)
(3.01287e-21 -9.87742e-16 0)
(3.36088e-21 -9.87742e-16 0)
(3.71512e-21 -9.87742e-16 0)
(4.07363e-21 -9.87742e-16 0)
(4.43451e-21 -9.87742e-16 0)
(4.79597e-21 -9.87742e-16 0)
(5.1563e-21 -9.87741e-16 0)
(5.51396e-21 -9.87741e-16 0)
(5.86752e-21 -9.87741e-16 0)
(6.21573e-21 -9.87741e-16 0)
(6.55754e-21 -9.87741e-16 0)
(6.89205e-21 -9.87741e-16 0)
(7.21854e-21 -9.87741e-16 0)
(7.53649e-21 -9.87741e-16 0)
(7.84552e-21 -9.87742e-16 0)
(3.31982e-20 -7.01503e-15 0)
(2.19525e-11 -6.62587e-06 0)
(-1.39766e-08 -0.000485986 0)
(-1.27807e-23 -9.87746e-16 0)
(-3.59314e-23 -9.87746e-16 0)
(-5.23361e-23 -9.87746e-16 0)
(-5.84076e-23 -9.87746e-16 0)
(-5.10806e-23 -9.87746e-16 0)
(-2.78041e-23 -9.87746e-16 0)
(1.34748e-23 -9.87746e-16 0)
(7.4334e-23 -9.87746e-16 0)
(1.55905e-22 -9.87745e-16 0)
(2.58903e-22 -9.87745e-16 0)
(3.83664e-22 -9.87745e-16 0)
(5.30173e-22 -9.87745e-16 0)
(6.98104e-22 -9.87745e-16 0)
(8.86851e-22 -9.87744e-16 0)
(1.09556e-21 -9.87744e-16 0)
(1.32314e-21 -9.87744e-16 0)
(1.56835e-21 -9.87744e-16 0)
(1.82974e-21 -9.87744e-16 0)
(2.10576e-21 -9.87743e-16 0)
(2.39472e-21 -9.87743e-16 0)
(2.69486e-21 -9.87743e-16 0)
(3.00436e-21 -9.87743e-16 0)
(3.32136e-21 -9.87743e-16 0)
(3.644e-21 -9.87743e-16 0)
(3.97043e-21 -9.87743e-16 0)
(4.29886e-21 -9.87742e-16 0)
(4.62758e-21 -9.87742e-16 0)
(4.95499e-21 -9.87742e-16 0)
(5.27961e-21 -9.87742e-16 0)
(5.60016e-21 -9.87742e-16 0)
(5.91549e-21 -9.87742e-16 0)
(6.22469e-21 -9.87742e-16 0)
(6.52703e-21 -9.87742e-16 0)