/*--------------------------------*- C++ -*----------------------------------*\
  =========                 |
  \\      /  F ield         | OpenFOAM: The Open Source CFD Toolbox
   \\    /   O peration     | Website:  https://openfoam.org
    \\  /    A nd           | Version:  10
     \\/     M anipulation  |
\*---------------------------------------------------------------------------*/
FoamFile
{
    format      ascii;
    class       surfaceScalarField;
    location    "0.14";
    object      phi;
}
// * * * * * * * * * * * * * * * * * * * * * * * * * * * * * * * * * * * * * //

dimensions      [0 3 -1 0 0 0 0];

internalField   nonuniform List<scalar> 
24170
(
1.74405e-08
-1.74405e-08
3.79697e-08
-2.05292e-08
2.72742e-08
1.06955e-08
2.05449e-08
6.72931e-09
1.66413e-08
3.90357e-09
1.4012e-08
2.62927e-09
1.22316e-08
1.7804e-09
1.10156e-08
1.216e-09
1.01879e-08
8.27742e-10
9.64003e-09
5.47845e-10
9.30472e-09
3.35313e-10
9.14302e-09
1.61697e-10
9.13991e-09
3.10989e-12
9.30697e-09
-1.67059e-10
9.69909e-09
-3.9212e-10
1.04752e-08
-7.7609e-10
1.21599e-08
-1.68476e-09
-5.05878e-09
1.72187e-08
1.96904e-09
-1.94096e-08
3.98985e-09
-2.255e-08
2.89612e-08
-1.42758e-08
2.18631e-08
1.38274e-08
1.77615e-08
8.00515e-09
1.49642e-08
5.42661e-09
1.3071e-08
3.67358e-09
1.17775e-08
2.50953e-09
1.08964e-08
1.7088e-09
1.03129e-08
1.13133e-09
9.95521e-09
6.93017e-10
9.78139e-09
3.35522e-10
9.77426e-09
1.02432e-11
9.94294e-09
-3.3574e-10
1.03353e-08
-7.84484e-10
1.10741e-08
-1.51492e-09
1.24252e-08
-3.03585e-09
-7.03032e-09
1.43968e-08
2.03458e-09
-2.14441e-08
2.59097e-09
-2.31064e-08
9.96735e-09
-2.16522e-08
2.30576e-08
7.37128e-10
1.88642e-08
1.21986e-08
1.59112e-08
8.3796e-09
1.39179e-08
5.66686e-09
1.25546e-08
3.87283e-09
1.16247e-08
2.6387e-09
1.10081e-08
1.74797e-09
1.06287e-08
1.07235e-09
1.04414e-08
5.22887e-10
1.04252e-08
2.63942e-11
1.05832e-08
-4.93723e-10
1.09459e-08
-1.14716e-09
1.15734e-08
-2.14245e-09
1.24825e-08
-3.94491e-09
-7.53278e-09
1.29849e-08
2.07302e-09
-2.35172e-08
2.8324e-09
-2.38657e-08
2.36774e-09
-2.11875e-08
2.32184e-08
-2.01135e-08
1.99264e-08
1.54905e-08
1.68273e-08
1.14787e-08
1.47553e-08
7.7389e-09
1.3335e-08
5.2931e-09
1.23638e-08
3.60991e-09
1.17184e-08
2.39334e-09
1.13193e-08
1.47152e-09
1.11171e-08
7.25042e-10
1.10862e-08
5.72706e-11
1.122e-08
-6.27526e-10
1.15255e-08
-1.45263e-09
1.19987e-08
-2.61568e-09
1.25059e-08
-4.45214e-09
-7.37109e-09
1.23443e-08
2.1536e-09
-2.56708e-08
3.18507e-09
-2.48972e-08
4.12342e-09
-2.21259e-08
4.72824e-09
-2.07183e-08
2.09874e-08
-7.6867e-10
1.76771e-08
1.47891e-08
1.55614e-08
9.85457e-09
1.41031e-08
6.75141e-09
1.31017e-08
4.61123e-09
1.24346e-08
3.0605e-09
1.20189e-08
1.88724e-09
1.18013e-08
9.42591e-10
1.17501e-08
1.08461e-10
1.18472e-08
-7.24609e-10
1.20752e-08
-1.68059e-09
1.23812e-08
-2.92176e-09
1.2575e-08
-4.64585e-09
-6.93025e-09
1.21341e-08
2.29901e-09
-2.79698e-08
3.58345e-09
-2.61816e-08
4.41304e-09
-2.29555e-08
3.22412e-09
-1.95294e-08
2.0335e-08
-1.78795e-08
1.84014e-08
1.67227e-08
1.63098e-08
1.19461e-08
1.48393e-08
8.22191e-09
1.38234e-08
5.62721e-09
1.31445e-08
3.73933e-09
1.27177e-08
2.31406e-09
1.24855e-08
1.17479e-09
1.24097e-08
1.84317e-10
1.24605e-08
-7.75456e-10
1.26002e-08
-1.82033e-09
1.27484e-08
-3.06994e-09
1.27183e-08
-4.61576e-09
-6.38731e-09
1.21754e-08
2.52949e-09
-3.04993e-08
4.07255e-09
-2.77247e-08
4.99458e-09
-2.38775e-08
5.69404e-09
-2.02288e-08
6.63197e-09
-1.88175e-08
1.91155e-08
4.23913e-09
1.69733e-08
1.40883e-08
1.55204e-08
9.67485e-09
1.45097e-08
6.63784e-09
1.38334e-08
4.41564e-09
1.34039e-08
2.74355e-09
1.31601e-08
1.41866e-09
1.30577e-08
2.86704e-10
1.30574e-08
-7.75209e-10
1.3108e-08
-1.87091e-09
1.31205e-08
-3.08242e-09
1.29406e-08
-4.43589e-09
-5.82051e-09
1.23738e-08
2.87242e-09
-3.33717e-08
4.69318e-09
-2.95455e-08
5.69037e-09
-2.48747e-08
6.03199e-09
-2.05705e-08
3.7668e-09
-1.65523e-08
1.90392e-08
-1.10333e-08
1.75006e-08
1.56269e-08
1.61183e-08
1.10571e-08
1.51378e-08
7.61836e-09
1.44836e-08
5.06988e-09
1.40638e-08
3.16329e-09
1.38146e-08
1.66793e-09
1.36874e-08
4.13821e-10
1.36369e-08
-7.24622e-10
1.36057e-08
-1.83975e-09
1.35103e-08
-2.98699e-09
1.3236e-08
-4.16166e-09
-5.26314e-09
1.26787e-08
3.37044e-09
-3.67421e-08
5.50537e-09
-3.16804e-08
6.5826e-09
-2.59519e-08
6.91269e-09
-2.09006e-08
7.05284e-09
-1.66924e-08
1.24472e-08
-1.64277e-08
1.79407e-08
1.01335e-08
1.6605e-08
1.23928e-08
1.56798e-08
8.54355e-09
1.50745e-08
5.67518e-09
1.46823e-08
3.55557e-09
1.44381e-08
1.91207e-09
1.42927e-08
5.59283e-10
1.41983e-08
-6.30273e-10
1.40991e-08
-1.74055e-09
1.39243e-08
-2.8122e-09
1.35954e-08
-3.83277e-09
-4.7291e-09
1.30614e-08
4.09357e-09
-4.08357e-08
6.59526e-09
-3.41821e-08
7.73467e-09
-2.70913e-08
7.99216e-09
-2.11581e-08
7.80705e-09
-1.65073e-08
4.3272e-09
-1.29478e-08
1.91041e-08
-4.64337e-09
1.69352e-08
1.45616e-08
1.6101e-08
9.37784e-09
1.55841e-08
6.192e-09
1.52435e-08
3.89622e-09
1.50201e-08
2.13549e-09
1.48677e-08
7.1162e-10
1.47416e-08
-5.04161e-10
1.45923e-08
-1.59119e-09
1.43649e-08
-2.58487e-09
1.40096e-08
-3.47747e-09
-4.2245e-09
1.3505e-08
5.16143e-09
-4.59971e-08
8.09204e-09
-3.71127e-08
9.2394e-09
-2.82387e-08
9.34917e-09
-2.12678e-08
8.8923e-09
-1.60504e-08
7.32761e-09
-1.13831e-08
1.70331e-08
-1.43489e-08
1.67923e-08
1.48024e-08
1.63566e-08
9.81351e-09
1.59912e-08
6.55744e-09
1.57327e-08
4.1547e-09
1.55508e-08
2.31737e-09
1.54081e-08
8.54317e-10
1.52668e-08
-3.62833e-10
1.50875e-08
-1.41192e-09
1.48317e-08
-2.32908e-09
1.44706e-08
-3.11629e-09
-3.75271e-09
1.39988e-08
5.62853e-09
-5.16257e-08
8.47735e-09
-3.99615e-08
9.35624e-09
-2.91176e-08
9.24749e-09
-2.11591e-08
8.79974e-09
-1.56027e-08
9.07723e-09
-1.16606e-08
9.30843e-09
-1.45801e-08
1.39584e-08
1.01525e-08
1.39139e-08
9.85797e-09
1.37383e-08
6.73305e-09
1.36062e-08
4.28675e-09
1.3504e-08
2.41959e-09
1.3407e-08
9.51326e-10
1.32912e-08
-2.4701e-10
1.31329e-08
-1.25364e-09
1.29112e-08
-2.10736e-09
1.26134e-08
-2.81854e-09
-3.38134e-09
1.2242e-08
8.55699e-09
-6.01826e-08
1.22107e-08
-4.36152e-08
1.29196e-08
-2.98265e-08
1.23933e-08
-2.06328e-08
1.15219e-08
-1.47312e-08
1.08626e-08
-1.10014e-08
5.84423e-09
-9.56168e-09
1.64085e-08
-4.11793e-10
1.59696e-08
1.02969e-08
1.58894e-08
6.81324e-09
1.58613e-08
4.31485e-09
1.58255e-08
2.45541e-09
1.57595e-08
1.01733e-09
1.56472e-08
-1.34734e-10
1.54739e-08
-1.08028e-09
1.52278e-08
-1.86128e-09
1.49051e-08
-2.49581e-09
-2.98971e-09
1.45134e-08
1.41965e-08
-7.43792e-08
1.85508e-08
-4.79695e-08
1.84323e-08
-2.97079e-08
1.69386e-08
-1.91392e-08
1.5204e-08
-1.29966e-08
1.3362e-08
-9.15943e-09
9.85241e-09
-6.05208e-09
1.76748e-08
-8.23417e-09
1.78092e-08
1.01625e-08
1.80663e-08
6.55614e-09
1.82637e-08
4.11741e-09
1.83682e-08
2.35095e-09
1.83801e-08
1.00536e-09
1.83028e-08
-5.74533e-11
1.81375e-08
-9.14976e-10
1.7886e-08
-1.60973e-09
1.75545e-08
-2.1643e-09
-2.59155e-09
1.71563e-08
2.67477e-08
-1.01127e-07
3.01187e-08
-5.13405e-08
2.72376e-08
-2.68268e-08
2.3614e-08
-1.55156e-08
2.04578e-08
-9.84038e-09
1.78843e-08
-6.58589e-09
1.60755e-08
-4.24333e-09
1.7427e-08
-9.58561e-09
1.91354e-08
8.45402e-09
2.01295e-08
5.56212e-09
2.07518e-08
3.49507e-09
2.11094e-08
1.99339e-09
2.12695e-08
8.45227e-10
2.1275e-08
-6.29836e-11
2.11535e-08
-7.93475e-10
2.09251e-08
-1.38136e-09
2.06083e-08
-1.84747e-09
-2.20589e-09
2.02227e-08
6.07893e-08
-1.61916e-07
5.24923e-08
-4.30435e-08
4.12616e-08
-1.55961e-08
3.3166e-08
-7.41998e-09
2.75922e-08
-4.26658e-09
2.37875e-08
-2.78122e-09
2.17101e-08
-2.16589e-09
1.67137e-08
-4.58923e-09
2.01438e-08
5.02388e-09
2.21534e-08
3.55252e-09
2.33865e-08
2.26198e-09
2.41067e-08
1.27321e-09
2.44842e-08
4.67751e-10
2.46216e-08
-2.00401e-10
2.45824e-08
-7.54236e-10
2.44089e-08
-1.20788e-09
2.4133e-08
-1.57162e-09
-1.85431e-09
2.37814e-08
1.81863e-07
1.56193e-07
9.35922e-08
4.52277e-08
6.08722e-08
1.71239e-08
4.51966e-08
8.25565e-09
3.61493e-08
4.78063e-09
3.01461e-08
3.22199e-09
2.53278e-08
2.65243e-09
1.56364e-08
5.10222e-09
2.1444e-08
-7.83712e-10
2.4799e-08
1.97467e-10
2.66362e-08
4.24816e-10
2.76802e-08
2.29193e-10
2.82533e-08
-1.05325e-10
2.85186e-08
-4.6576e-10
2.85692e-08
-8.04792e-10
2.84639e-08
-1.10258e-09
2.82441e-08
-1.35183e-09
-1.55149e-09
2.79413e-08
7.36705e-08
8.2522e-08
6.92847e-08
4.96135e-08
5.70788e-08
2.93298e-08
4.71126e-08
1.82219e-08
3.99374e-08
1.19558e-08
3.4994e-08
8.16547e-09
3.19991e-08
5.64725e-09
2.88314e-08
8.26998e-09
2.97545e-08
-1.70683e-09
3.09018e-08
-9.49844e-10
3.19166e-08
-5.89985e-10
3.26493e-08
-5.03515e-10
3.31118e-08
-5.67826e-10
3.335e-08
-7.03989e-10
3.34103e-08
-8.65097e-10
3.33323e-08
-1.02453e-09
3.31485e-08
-1.16801e-09
-1.28868e-09
3.28857e-08
3.26187e-08
4.99033e-08
4.35395e-08
3.86927e-08
4.43435e-08
2.85258e-08
4.16012e-08
2.09641e-08
3.81395e-08
1.54175e-08
3.49473e-08
1.13577e-08
3.08622e-08
9.73237e-09
3.95605e-08
-4.28318e-10
3.90644e-08
-1.21071e-09
3.90351e-08
-9.20601e-10
3.91962e-08
-7.51093e-10
3.93784e-08
-6.85694e-10
3.95032e-08
-6.92648e-10
3.95419e-08
-7.42693e-10
3.94906e-08
-8.13719e-10
3.93566e-08
-8.90612e-10
3.91524e-08
-9.63802e-10
-1.02774e-09
3.88915e-08
1.24659e-08
3.74374e-08
1.93645e-08
3.17941e-08
2.20585e-08
2.58318e-08
2.20924e-08
2.09302e-08
2.12781e-08
1.62318e-08
2.04747e-08
1.21611e-08
2.92823e-08
9.24756e-10
2.97426e-08
-8.88554e-10
2.9256e-08
-7.24171e-10
2.89685e-08
-6.33037e-10
2.88077e-08
-5.90329e-10
2.87082e-08
-5.8615e-10
2.86257e-08
-6.10222e-10
2.85351e-08
-6.52029e-10
2.84238e-08
-7.02413e-10
2.82875e-08
-7.54321e-10
2.81265e-08
-8.02843e-10
-8.44895e-10
2.79437e-08
7.33846e-09
3.00989e-08
1.21054e-08
2.70272e-08
1.48001e-08
2.31371e-08
1.44859e-08
2.12444e-08
1.66534e-08
1.40643e-08
2.64545e-08
2.36003e-09
2.70001e-08
3.7914e-10
2.61151e-08
-3.60192e-12
2.55854e-08
-1.94501e-10
2.52539e-08
-3.01532e-10
2.50358e-08
-3.72143e-10
2.48782e-08
-4.2863e-10
2.47483e-08
-4.80252e-10
2.46259e-08
-5.29624e-10
2.44998e-08
-5.764e-10
2.43648e-08
-6.19256e-10
2.42188e-08
-6.56858e-10
-6.88247e-10
2.40621e-08
5.12339e-09
2.49755e-08
8.24763e-09
2.39029e-08
1.1778e-08
1.96067e-08
1.55099e-08
1.75125e-08
2.42699e-08
5.30426e-09
2.3973e-08
2.65697e-09
2.30614e-08
1.29073e-09
2.24844e-08
5.73389e-10
2.21104e-08
1.79558e-10
2.18574e-08
-4.86204e-11
2.16756e-08
-1.90277e-10
2.1533e-08
-2.86095e-10
2.14097e-08
-3.56878e-10
2.1293e-08
-4.12934e-10
2.11757e-08
-4.59124e-10
2.10541e-08
-4.97606e-10
2.09265e-08
-5.29305e-10
-5.54667e-10
2.07929e-08
4.32964e-09
2.06459e-08
9.31771e-09
1.89149e-08
1.29903e-08
1.59342e-08
2.04187e-08
1.00841e-08
2.01879e-08
5.53503e-09
1.98077e-08
3.03725e-09
1.94673e-08
1.6311e-09
1.92058e-08
8.3487e-10
1.90103e-08
3.75081e-10
1.88603e-08
1.01361e-10
1.87386e-08
-6.86169e-11
1.86326e-08
-1.80034e-10
1.85333e-08
-2.57619e-10
1.84352e-08
-3.14779e-10
1.83347e-08
-3.58703e-10
1.82304e-08
-3.93218e-10
1.81214e-08
-4.20396e-10
-4.41424e-10
1.80082e-08
4.88501e-09
1.57609e-08
9.35995e-09
1.44399e-08
1.35406e-08
1.17535e-08
1.55817e-08
8.043e-09
1.62343e-08
4.88251e-09
1.64229e-08
2.84863e-09
1.64406e-08
1.61338e-09
1.6399e-08
8.76489e-10
1.63383e-08
4.35728e-10
1.6272e-08
1.67716e-10
1.62033e-08
5.7228e-14
1.61323e-08
-1.09001e-10
1.60579e-08
-1.83288e-10
1.59794e-08
-2.36286e-10
1.58963e-08
-2.75577e-10
1.58085e-08
-3.05424e-10
1.57164e-08
-3.28258e-10
-3.45524e-10
1.56205e-08
3.87399e-09
1.18869e-08
7.56042e-09
1.07535e-08
1.05606e-08
8.75331e-09
1.23971e-08
6.20653e-09
1.33123e-08
3.96731e-09
1.37541e-08
2.40685e-09
1.39592e-08
1.40826e-09
1.40449e-08
7.90753e-10
1.40684e-08
4.1225e-10
1.40576e-08
1.78512e-10
1.40264e-08
3.12413e-11
1.39819e-08
-6.4436e-11
1.39276e-08
-1.28999e-10
1.38656e-08
-1.74337e-10
1.37973e-08
-2.07305e-10
1.37238e-08
-2.31861e-10
1.36458e-08
-2.50317e-10
-2.64068e-10
1.35644e-08
3.21184e-09
8.67507e-09
6.16591e-09
7.79942e-09
8.56243e-09
6.35679e-09
1.01717e-08
4.59728e-09
1.1115e-08
3.02404e-09
1.16425e-08
1.87928e-09
1.19288e-08
1.122e-09
1.2077e-08
6.42533e-10
1.21455e-08
3.43794e-10
1.21666e-08
1.57349e-10
1.21586e-08
3.92302e-11
1.21317e-08
-3.75462e-11
1.20919e-08
-8.91326e-11
1.20426e-08
-1.25058e-10
1.19862e-08
-1.50903e-10
1.19243e-08
-1.69934e-10
1.1858e-08
-1.84084e-10
-1.94529e-10
1.17885e-08
2.69822e-09
5.97684e-09
5.14079e-09
5.35686e-09
7.12627e-09
4.37131e-09
8.52675e-09
3.19679e-09
9.41373e-09
2.13707e-09
9.94573e-09
1.34727e-09
1.02535e-08
8.14245e-10
1.04243e-08
4.71758e-10
1.05119e-08
2.56157e-10
1.05486e-08
1.20682e-10
1.05533e-08
3.45368e-11
1.05372e-08
-2.14993e-11
1.05072e-08
-5.90729e-11
1.04672e-08
-8.51237e-11
1.04201e-08
-1.03752e-10
1.03675e-08
-1.17379e-10
1.03109e-08
-1.27446e-10
-1.34837e-10
1.02512e-08
2.29551e-09
3.68133e-09
4.35799e-09
3.29438e-09
6.03881e-09
2.69049e-09
7.25614e-09
1.97946e-09
8.05832e-09
1.33488e-09
8.55729e-09
8.48307e-10
8.85532e-09
5.16211e-10
9.02605e-09
3.01031e-10
9.11744e-09
1.64765e-10
9.15932e-09
7.88029e-11
9.16983e-09
2.40205e-11
9.15997e-09
-1.16349e-11
9.13642e-09
-3.55191e-11
9.10333e-09
-5.20404e-11
9.0634e-09
-6.38165e-11
9.01842e-09
-7.23996e-11
8.96969e-09
-7.87189e-11
-8.33437e-11
8.9182e-09
1.97288e-09
1.70845e-09
3.73943e-09
1.52783e-09
5.18162e-09
1.2483e-09
6.24012e-09
9.20972e-10
6.95141e-09
6.23594e-10
7.40193e-09
3.97784e-10
7.67529e-09
2.42845e-10
7.83427e-09
1.42051e-10
7.921e-09
7.80388e-11
7.96222e-09
3.75808e-11
7.97447e-09
1.17697e-11
7.96787e-09
-5.03471e-12
7.94864e-09
-1.62866e-11
7.92066e-09
-2.40616e-11
7.88644e-09
-2.95953e-11
7.84766e-09
-3.36218e-11
7.80553e-09
-3.65815e-11
-3.87445e-11
7.76093e-09
1.70845e-09
3.23628e-09
4.48457e-09
5.40555e-09
6.02914e-09
6.42693e-09
6.66977e-09
6.81182e-09
6.88986e-09
6.92744e-09
6.93921e-09
6.93418e-09
6.91789e-09
6.89383e-09
6.86423e-09
6.83061e-09
6.79403e-09
6.75528e-09
2.44613e-10
-2.44613e-10
4.90615e-10
-2.46002e-10
7.37703e-10
-2.47089e-10
9.85566e-10
-2.47863e-10
1.23388e-09
-2.48317e-10
1.48233e-09
-2.48444e-10
1.73057e-09
-2.4824e-10
1.97827e-09
-2.47702e-10
2.2251e-09
-2.46831e-10
2.47073e-09
-2.45629e-10
2.71483e-09
-2.441e-10
2.95708e-09
-2.42249e-10
3.19717e-09
-2.40087e-10
3.43479e-09
-2.37622e-10
3.66965e-09
-2.34867e-10
3.90149e-09
-2.31835e-10
4.13003e-09
-2.28542e-10
4.35504e-09
-2.25003e-10
4.57627e-09
-2.21236e-10
4.79353e-09
-2.17258e-10
5.00662e-09
-2.13089e-10
5.21537e-09
-2.08747e-10
5.41962e-09
-2.04251e-10
5.61924e-09
-1.9962e-10
5.81411e-09
-1.94874e-10
6.00414e-09
-1.90031e-10
6.18925e-09
-1.85108e-10
6.36937e-09
-1.80125e-10
6.54447e-09
-1.75096e-10
6.71451e-09
-1.70039e-10
6.87948e-09
-1.64968e-10
7.03938e-09
-1.59898e-10
7.19422e-09
-1.54841e-10
7.34403e-09
-1.49811e-10
7.48885e-09
-1.44818e-10
7.62872e-09
-1.39873e-10
7.7637e-09
-1.34985e-10
7.89387e-09
-1.30162e-10
8.01928e-09
-1.25412e-10
8.14002e-09
-1.20742e-10
8.25618e-09
-1.16157e-10
8.36784e-09
-1.11661e-10
8.4751e-09
-1.07261e-10
8.57806e-09
-1.02958e-10
8.67681e-09
-9.8755e-11
8.77147e-09
-9.46556e-11
8.86213e-09
-9.06608e-11
8.9489e-09
-8.67717e-11
9.03189e-09
-8.29891e-11
9.1112e-09
-7.93136e-11
9.18695e-09
-7.57448e-11
9.25923e-09
-7.22825e-11
9.32816e-09
-6.89258e-11
9.39383e-09
-6.5674e-11
9.45636e-09
-6.25258e-11
9.51584e-09
-5.94797e-11
9.57237e-09
-5.65346e-11
9.62606e-09
-5.36882e-11
9.677e-09
-5.0939e-11
9.72528e-09
-4.8285e-11
9.77101e-09
-4.57241e-11
9.81426e-09
-4.32543e-11
9.85513e-09
-4.08735e-11
9.89371e-09
-3.85792e-11
9.93008e-09
-3.63695e-11
9.96433e-09
-3.4242e-11
9.99652e-09
-3.21945e-11
1.00267e-08
-3.02246e-11
1.00551e-08
-2.83304e-11
1.00816e-08
-2.65091e-11
1.01063e-08
-2.47591e-11
1.01294e-08
-2.30777e-11
1.01509e-08
-2.14629e-11
1.01708e-08
-1.99126e-11
1.01892e-08
-1.84246e-11
1.02062e-08
-1.69969e-11
1.02218e-08
-1.56274e-11
1.02362e-08
-1.43143e-11
1.02492e-08
-1.30553e-11
1.02611e-08
-1.18487e-11
1.02718e-08
-1.06926e-11
1.02813e-08
-9.58505e-12
1.02899e-08
-8.52449e-12
1.02974e-08
-7.50899e-12
1.03039e-08
-6.53694e-12
1.03095e-08
-5.6065e-12
1.03142e-08
-4.71636e-12
1.03181e-08
-3.86464e-12
1.03211e-08
-3.05003e-12
1.03234e-08
-2.27103e-12
1.03249e-08
-1.52602e-12
1.03258e-08
-8.13791e-13
1.03259e-08
-1.32798e-13
1.03254e-08
5.17988e-13
1.03242e-08
1.14023e-12
1.03225e-08
1.73487e-12
1.03202e-08
2.3031e-12
1.03174e-08
2.84639e-12
1.0314e-08
3.36554e-12
1.03101e-08
3.86186e-12
1.03058e-08
4.33618e-12
1.0301e-08
4.78981e-12
1.02958e-08
5.22335e-12
1.02901e-08
5.63821e-12
1.02841e-08
6.03484e-12
1.02777e-08
6.41448e-12
1.02709e-08
6.7778e-12
1.02638e-08
7.1257e-12
1.02563e-08
7.45888e-12
1.02485e-08
7.77818e-12
1.02405e-08
8.08432e-12
1.02321e-08
8.37802e-12
1.02234e-08
8.65983e-12
1.02145e-08
8.93049e-12
1.02053e-08
9.19063e-12
1.01959e-08
9.44094e-12
1.01862e-08
9.68167e-12
1.01763e-08
9.91387e-12
1.01661e-08
1.01375e-11
1.01558e-08
1.03535e-11
1.01452e-08
1.05621e-11
1.01344e-08
1.07639e-11
1.01235e-08
1.09592e-11
1.01123e-08
1.11486e-11
1.0101e-08
1.13324e-11
1.00895e-08
1.15109e-11
1.00778e-08
1.16846e-11
1.0066e-08
1.18538e-11
1.00539e-08
1.20187e-11
1.00418e-08
1.218e-11
1.00294e-08
1.23374e-11
1.00169e-08
1.24918e-11
1.00043e-08
1.2643e-11
9.9915e-09
1.27916e-11
9.97856e-09
1.29377e-11
9.96548e-09
1.30816e-11
9.95225e-09
1.32233e-11
9.93889e-09
1.33635e-11
9.92539e-09
1.35021e-11
9.91175e-09
1.36392e-11
9.89797e-09
1.37754e-11
9.88406e-09
1.39106e-11
9.87002e-09
1.40453e-11
9.85584e-09
1.41796e-11
9.84152e-09
1.43139e-11
9.82708e-09
1.44482e-11
9.81249e-09
1.45831e-11
9.79777e-09
1.47189e-11
9.78292e-09
1.48562e-11
9.76792e-09
1.49953e-11
9.75279e-09
1.51369e-11
9.7375e-09
1.52819e-11
9.72207e-09
1.54311e-11
9.70649e-09
1.55857e-11
9.69074e-09
1.57473e-11
9.67482e-09
1.59177e-11
9.65872e-09
1.60994e-11
9.64243e-09
1.62953e-11
9.62592e-09
1.65093e-11
9.60917e-09
1.67463e-11
9.59216e-09
1.70129e-11
9.57484e-09
1.73174e-11
9.55717e-09
1.76708e-11
9.53908e-09
1.80871e-11
9.5205e-09
1.85855e-11
9.50131e-09
1.91911e-11
9.48137e-09
1.99376e-11
9.4605e-09
2.08711e-11
9.43844e-09
2.20552e-11
9.41486e-09
2.35788e-11
9.38929e-09
2.55703e-11
9.36107e-09
2.8219e-11
9.32926e-09
3.18152e-11
9.29243e-09
3.68255e-11
9.24839e-09
4.40473e-11
9.19342e-09
5.49639e-11
9.12075e-09
7.26775e-11
9.01585e-09
1.04893e-10
8.83951e-09
1.76346e-10
4.01159e-10
8.43835e-09
2.45968e-10
-4.90581e-10
4.93323e-10
-4.93357e-10
7.41756e-10
-4.95521e-10
9.90944e-10
-4.97051e-10
1.24056e-09
-4.97932e-10
1.49027e-09
-4.98151e-10
1.73973e-09
-4.977e-10
1.9886e-09
-4.96574e-10
2.23654e-09
-4.94774e-10
2.48322e-09
-4.92305e-10
2.72829e-09
-4.89176e-10
2.97145e-09
-4.85401e-10
3.21236e-09
-4.80997e-10
3.45072e-09
-4.75986e-10
3.68624e-09
-4.70392e-10
3.91865e-09
-4.64244e-10
4.14768e-09
-4.57571e-10
4.37309e-09
-4.50409e-10
4.59464e-09
-4.42791e-10
4.81214e-09
-4.34755e-10
5.02539e-09
-4.26337e-10
5.23422e-09
-4.17578e-10
5.43848e-09
-4.08515e-10
5.63805e-09
-3.99187e-10
5.83281e-09
-3.89632e-10
6.02266e-09
-3.79888e-10
6.20755e-09
-3.69991e-10
6.3874e-09
-3.59976e-10
6.56218e-09
-3.49877e-10
6.73187e-09
-3.39725e-10
6.89645e-09
-3.29551e-10
7.05593e-09
-3.19383e-10
7.21034e-09
-3.09247e-10
7.3597e-09
-2.99167e-10
7.50404e-09
-2.89166e-10
7.64344e-09
-2.79265e-10
7.77793e-09
-2.6948e-10
7.9076e-09
-2.5983e-10
8.03251e-09
-2.50328e-10
8.15276e-09
-2.40987e-10
8.26842e-09
-2.31819e-10
8.37959e-09
-2.22833e-10
8.48637e-09
-2.14038e-10
8.58885e-09
-2.0544e-10
8.68714e-09
-1.97044e-10
8.78134e-09
-1.88856e-10
8.87156e-09
-1.80877e-10
8.9579e-09
-1.73111e-10
9.04047e-09
-1.65559e-10
9.11937e-09
-1.5822e-10
9.19473e-09
-1.51096e-10
9.26663e-09
-1.44185e-10
9.33519e-09
-1.37485e-10
9.40051e-09
-1.30995e-10
9.4627e-09
-1.24713e-10
9.52185e-09
-1.18634e-10
9.57807e-09
-1.12757e-10
9.63146e-09
-1.07077e-10
9.68212e-09
-1.01592e-10
9.73013e-09
-9.62963e-11
9.77559e-09
-9.1187e-11
9.81859e-09
-8.62593e-11
9.85923e-09
-8.15091e-11
9.89758e-09
-7.69319e-11
9.93374e-09
-7.25232e-11
9.96777e-09
-6.82787e-11
9.99977e-09
-6.41937e-11
1.00298e-08
-6.02638e-11
1.0058e-08
-5.64843e-11
1.00843e-08
-5.2851e-11
1.01089e-08
-4.93592e-11
1.01318e-08
-4.60047e-11
1.01532e-08
-4.27831e-11
1.01729e-08
-3.96898e-11
1.01912e-08
-3.67212e-11
1.02081e-08
-3.38726e-11
1.02236e-08
-3.11403e-11
1.02378e-08
-2.852e-11
1.02508e-08
-2.60082e-11
1.02625e-08
-2.36006e-11
1.02731e-08
-2.12938e-11
1.02826e-08
-1.90839e-11
1.02911e-08
-1.69677e-11
1.02985e-08
-1.49412e-11
1.0305e-08
-1.30014e-11
1.03105e-08
-1.11448e-11
1.03152e-08
-9.3685e-12
1.0319e-08
-7.66883e-12
1.0322e-08
-6.04327e-12
1.03242e-08
-4.48846e-12
1.03256e-08
-3.00175e-12
1.03264e-08
-1.58023e-12
1.03265e-08
-2.21312e-13
1.03259e-08
1.07773e-12
1.03248e-08
2.31945e-12
1.0323e-08
3.5063e-12
1.03207e-08
4.64076e-12
1.03178e-08
5.72487e-12
1.03144e-08
6.76133e-12
1.03105e-08
7.75183e-12
1.03061e-08
8.69885e-12
1.03013e-08
9.60411e-12
1.02961e-08
1.04699e-11
1.02904e-08
1.12979e-11
1.02844e-08
1.20899e-11
1.02779e-08
1.28477e-11
1.02711e-08
1.35731e-11
1.0264e-08
1.42677e-11
1.02565e-08
1.49329e-11
1.02487e-08
1.55706e-11
1.02406e-08
1.61818e-11
1.02322e-08
1.67682e-11
1.02236e-08
1.73309e-11
1.02146e-08
1.78716e-11
1.02054e-08
1.83911e-11
1.0196e-08
1.88909e-11
1.01863e-08
1.9372e-11
1.01764e-08
1.98353e-11
1.01662e-08
2.02822e-11
1.01558e-08
2.07136e-11
1.01453e-08
2.11304e-11
1.01345e-08
2.15335e-11
1.01235e-08
2.19238e-11
1.01124e-08
2.2302e-11
1.01011e-08
2.26692e-11
1.00895e-08
2.3026e-11
1.00779e-08
2.3373e-11
1.0066e-08
2.3711e-11
1.0054e-08
2.40408e-11
1.00418e-08
2.43627e-11
1.00295e-08
2.46776e-11
1.0017e-08
2.4986e-11
1.00043e-08
2.52883e-11
9.99152e-09
2.55853e-11
9.97858e-09
2.58774e-11
9.96549e-09
2.61648e-11
9.95227e-09
2.64484e-11
9.9389e-09
2.67284e-11
9.9254e-09
2.70053e-11
9.91176e-09
2.72796e-11
9.89798e-09
2.75518e-11
9.88407e-09
2.78221e-11
9.87003e-09
2.80914e-11
9.85585e-09
2.83598e-11
9.84153e-09
2.86281e-11
9.82708e-09
2.88967e-11
9.8125e-09
2.91665e-11
9.79778e-09
2.94379e-11
9.78293e-09
2.97122e-11
9.76793e-09
2.99902e-11
9.75279e-09
3.02732e-11
9.73751e-09
3.05629e-11
9.72208e-09
3.08608e-11
9.7065e-09
3.11698e-11
9.69075e-09
3.14925e-11
9.67484e-09
3.18328e-11
9.65874e-09
3.21952e-11
9.64245e-09
3.25859e-11
9.62595e-09
3.30126e-11
9.60921e-09
3.34851e-11
9.59221e-09
3.40164e-11
9.5749e-09
3.46227e-11
9.55725e-09
3.53259e-11
9.53918e-09
3.61544e-11
9.52062e-09
3.71454e-11
9.50146e-09
3.8349e-11
9.48157e-09
3.98318e-11
9.46075e-09
4.16851e-11
9.43878e-09
4.40339e-11
9.4153e-09
4.70541e-11
9.38987e-09
5.09974e-11
9.36186e-09
5.62343e-11
9.33034e-09
6.33308e-11
9.29398e-09
7.31883e-11
9.2507e-09
8.73312e-11
9.19712e-09
1.08539e-10
9.12737e-09
1.42424e-10
9.03033e-09
2.01938e-10
8.88429e-09
3.22384e-10
6.16652e-10
8.6688e-09
2.48716e-10
-7.39297e-10
4.98815e-10
-7.43456e-10
7.4997e-10
-7.46676e-10
1.00184e-09
-7.48924e-10
1.25409e-09
-7.50177e-10
1.50635e-09
-7.50415e-10
1.75828e-09
-7.49627e-10
2.00951e-09
-7.47808e-10
2.2597e-09
-7.4496e-10
2.50849e-09
-7.41092e-10
2.75553e-09
-7.3622e-10
3.00049e-09
-7.30366e-10
3.24306e-09
-7.23559e-10
3.4829e-09
-7.15834e-10
3.71974e-09
-7.0723e-10
3.95329e-09
-6.97791e-10
4.18328e-09
-6.87566e-10
4.40948e-09
-6.76608e-10
4.63166e-09
-6.6497e-10
4.84962e-09
-6.52711e-10
5.06317e-09
-6.39888e-10
5.27215e-09
-6.2656e-10
5.47642e-09
-6.12787e-10
5.67586e-09
-5.98628e-10
5.87037e-09
-5.8414e-10
6.05986e-09
-5.69381e-10
6.24428e-09
-5.54405e-10
6.42357e-09
-5.39265e-10
6.5977e-09
-5.24011e-10
6.76667e-09
-5.08691e-10
6.93047e-09
-4.9335e-10
7.08911e-09
-4.78029e-10
7.24263e-09
-4.62768e-10
7.39107e-09
-4.47602e-10
7.53446e-09
-4.32563e-10
7.67288e-09
-4.17683e-10
7.80639e-09
-4.02987e-10
7.93506e-09
-3.885e-10
8.05898e-09
-3.74243e-10
8.17822e-09
-3.60234e-10
8.29289e-09
-3.46489e-10
8.40308e-09
-3.33023e-10
8.50889e-09
-3.19846e-10
8.61042e-09
-3.0697e-10
8.70778e-09
-2.944e-10
8.80106e-09
-2.82143e-10
8.89039e-09
-2.70204e-10
8.97586e-09
-2.58585e-10
9.05759e-09
-2.47288e-10
9.13569e-09
-2.36314e-10
9.21025e-09
-2.25661e-10
9.28139e-09
-2.15328e-10
9.34922e-09
-2.05313e-10
9.41384e-09
-1.95613e-10
9.47535e-09
-1.86223e-10
9.53385e-09
-1.77139e-10
9.58945e-09
-1.68356e-10
9.64225e-09
-1.5987e-10
9.69233e-09
-1.51674e-10
9.73979e-09
-1.43762e-10
9.78473e-09
-1.36128e-10
9.82724e-09
-1.28767e-10
9.8674e-09
-1.2167e-10
9.9053e-09
-1.14832e-10
9.94103e-09
-1.08246e-10
9.97465e-09
-1.01906e-10
1.00063e-08
-9.58032e-11
1.00359e-08
-8.99325e-11
1.00637e-08
-8.42866e-11
1.00897e-08
-7.88588e-11
1.0114e-08
-7.36426e-11
1.01367e-08
-6.86313e-11
1.01577e-08
-6.38183e-11
1.01772e-08
-5.91974e-11
1.01952e-08
-5.47622e-11
1.02119e-08
-5.05066e-11
1.02272e-08
-4.64243e-11
1.02411e-08
-4.25096e-11
1.02539e-08
-3.87566e-11
1.02654e-08
-3.51593e-11
1.02759e-08
-3.17126e-11
1.02852e-08
-2.84106e-11
1.02935e-08
-2.52482e-11
1.03008e-08
-2.22202e-11
1.03071e-08
-1.93216e-11
1.03125e-08
-1.65472e-11
1.0317e-08
-1.38924e-11
1.03207e-08
-1.13525e-11
1.03236e-08
-8.92282e-12
1.03257e-08
-6.59926e-12
1.03271e-08
-4.37713e-12
1.03277e-08
-2.25248e-12
1.03277e-08
-2.21274e-13
1.03271e-08
1.72061e-12
1.03258e-08
3.57677e-12
1.0324e-08
5.35098e-12
1.03216e-08
7.0468e-12
1.03186e-08
8.66779e-12
1.03152e-08
1.02171e-11
1.03112e-08
1.16982e-11
1.03068e-08
1.31141e-11
1.03019e-08
1.44678e-11
1.02967e-08
1.57624e-11
1.0291e-08
1.70005e-11
1.02849e-08
1.81849e-11
1.02784e-08
1.93184e-11
1.02716e-08
2.04033e-11
1.02644e-08
2.14422e-11
1.02569e-08
2.24374e-11
1.02491e-08
2.3391e-11
1.02409e-08
2.43055e-11
1.02325e-08
2.51828e-11
1.02238e-08
2.60248e-11
1.02149e-08
2.68336e-11
1.02056e-08
2.76111e-11
1.01962e-08
2.8359e-11
1.01865e-08
2.90788e-11
1.01765e-08
2.97726e-11
1.01664e-08
3.04414e-11
1.0156e-08
3.10871e-11
1.01454e-08
3.1711e-11
1.01346e-08
3.23145e-11
1.01237e-08
3.28987e-11
1.01125e-08
3.34653e-11
1.01012e-08
3.4015e-11
1.00896e-08
3.45492e-11
1.00779e-08
3.5069e-11
1.00661e-08
3.55752e-11
1.0054e-08
3.60691e-11
1.00419e-08
3.65515e-11
1.00295e-08
3.70232e-11
1.0017e-08
3.74852e-11
1.00044e-08
3.79383e-11
9.99156e-09
3.83832e-11
9.97862e-09
3.88206e-11
9.96553e-09
3.92515e-11
9.9523e-09
3.96764e-11
9.93893e-09
4.00961e-11
9.92543e-09
4.05111e-11
9.91179e-09
4.09222e-11
9.89801e-09
4.133e-11
9.88409e-09
4.17354e-11
9.87005e-09
4.21389e-11
9.85587e-09
4.25412e-11
9.84155e-09
4.29433e-11
9.8271e-09
4.33459e-11
9.81252e-09
4.375e-11
9.7978e-09
4.4157e-11
9.78294e-09
4.45679e-11
9.76795e-09
4.49844e-11
9.75281e-09
4.54084e-11
9.73753e-09
4.5842e-11
9.72211e-09
4.62882e-11
9.70653e-09
4.67506e-11
9.69079e-09
4.72333e-11
9.67488e-09
4.7742e-11
9.65879e-09
4.82837e-11
9.64251e-09
4.88674e-11
9.62601e-09
4.95042e-11
9.60929e-09
5.02091e-11
9.59231e-09
5.10008e-11
9.57502e-09
5.19039e-11
9.5574e-09
5.29504e-11
9.53937e-09
5.41822e-11
9.52086e-09
5.56546e-11
9.50177e-09
5.7441e-11
9.48196e-09
5.96402e-11
9.46126e-09
6.2386e-11
9.43943e-09
6.58618e-11
9.41616e-09
7.0325e-11
9.39102e-09
7.61422e-11
9.3634e-09
8.38504e-11
9.33247e-09
9.42615e-11
9.297e-09
1.08656e-10
9.25518e-09
1.29158e-10
9.20419e-09
1.59531e-10
9.1396e-09
2.07008e-10
9.05468e-09
2.86855e-10
8.94275e-09
4.34321e-10
7.32035e-10
8.82737e-09
2.52933e-10
-9.9223e-10
5.07241e-10
-9.97764e-10
7.62573e-10
-1.00201e-09
1.01856e-09
-1.00491e-09
1.27483e-09
-1.00645e-09
1.53101e-09
-1.00659e-09
1.7867e-09
-1.00532e-09
2.04154e-09
-1.00265e-09
2.29514e-09
-9.98561e-10
2.54714e-09
-9.93085e-10
2.79716e-09
-9.86244e-10
3.04487e-09
-9.78072e-10
3.28992e-09
-9.6861e-10
3.53199e-09
-9.5791e-10
3.77079e-09
-9.46029e-10
4.00603e-09
-9.33031e-10
4.23745e-09
-9.18986e-10
4.46481e-09
-9.03967e-10
4.68789e-09
-8.88051e-10
4.9065e-09
-8.71318e-10
5.12046e-09
-8.53848e-10
5.32962e-09
-8.35723e-10
5.53386e-09
-8.17024e-10
5.73306e-09
-7.97832e-10
5.92715e-09
-7.78225e-10
6.11605e-09
-7.5828e-10
6.29971e-09
-7.3807e-10
6.47811e-09
-7.17666e-10
6.65124e-09
-6.97134e-10
6.81908e-09
-6.76537e-10
6.98167e-09
-6.55935e-10
7.13902e-09
-6.35383e-10
7.29118e-09
-6.14931e-10
7.43821e-09
-5.94625e-10
7.58015e-09
-5.74509e-10
7.71709e-09
-5.5462e-10
7.8491e-09
-5.34993e-10
7.97625e-09
-5.15658e-10
8.09865e-09
-4.96642e-10
8.21639e-09
-4.77969e-10
8.32956e-09
-4.59659e-10
8.43826e-09
-4.41729e-10
8.54261e-09
-4.24194e-10
8.64271e-09
-4.07064e-10
8.73866e-09
-3.9035e-10
8.83057e-09
-3.74059e-10
8.91856e-09
-3.58194e-10
9.00274e-09
-3.4276e-10
9.08321e-09
-3.27758e-10
9.16008e-09
-3.13187e-10
9.23346e-09
-2.99047e-10
9.30347e-09
-2.85334e-10
9.3702e-09
-2.72045e-10
9.43376e-09
-2.59175e-10
9.49426e-09
-2.46719e-10
9.55179e-09
-2.34671e-10
9.60646e-09
-2.23023e-10
9.65836e-09
-2.11769e-10
9.70759e-09
-2.00901e-10
9.75424e-09
-1.90411e-10
9.7984e-09
-1.8029e-10
9.84016e-09
-1.7053e-10
9.87961e-09
-1.61122e-10
9.91684e-09
-1.52057e-10
9.95192e-09
-1.43326e-10
9.98493e-09
-1.3492e-10
1.0016e-08
-1.26831e-10
1.00451e-08
-1.19048e-10
1.00723e-08
-1.11563e-10
1.00979e-08
-1.04368e-10
1.01217e-08
-9.74526e-11
1.01438e-08
-9.08088e-11
1.01645e-08
-8.44282e-11
1.01836e-08
-7.83019e-11
1.02012e-08
-7.24216e-11
1.02175e-08
-6.67792e-11
1.02324e-08
-6.13668e-11
1.02461e-08
-5.6176e-11
1.02585e-08
-5.11995e-11
1.02698e-08
-4.64295e-11
1.028e-08
-4.18589e-11
1.0289e-08
-3.74801e-11
1.02971e-08
-3.32862e-11
1.03041e-08
-2.92705e-11
1.03102e-08
-2.54259e-11
1.03154e-08
-2.17463e-11
1.03198e-08
-1.82249e-11
1.03233e-08
-1.4856e-11
1.0326e-08
-1.1633e-11
1.03279e-08
-8.55048e-12
1.03291e-08
-5.6026e-12
1.03297e-08
-2.78387e-12
1.03295e-08
-8.8832e-14
1.03288e-08
2.48769e-12
1.03274e-08
4.95053e-12
1.03254e-08
7.30486e-12
1.03229e-08
9.55539e-12
1.03199e-08
1.17066e-11
1.03164e-08
1.37628e-11
1.03123e-08
1.57287e-11
1.03078e-08
1.76081e-11
1.03029e-08
1.94051e-11
1.02975e-08
2.11237e-11
1.02918e-08
2.27674e-11
1.02856e-08
2.43401e-11
1.02791e-08
2.5845e-11
1.02722e-08
2.72858e-11
1.0265e-08
2.86653e-11
1.02574e-08
2.9987e-11
1.02496e-08
3.12538e-11
1.02414e-08
3.24683e-11
1.0233e-08
3.36338e-11
1.02242e-08
3.47526e-11
1.02152e-08
3.58272e-11
1.0206e-08
3.68603e-11
1.01965e-08
3.78542e-11
1.01868e-08
3.88109e-11
1.01768e-08
3.97328e-11
1.01666e-08
4.06221e-11
1.01562e-08
4.14805e-11
1.01456e-08
4.23099e-11
1.01348e-08
4.31125e-11
1.01238e-08
4.38895e-11
1.01127e-08
4.46429e-11
1.01013e-08
4.53742e-11
1.00898e-08
4.60847e-11
1.00781e-08
4.67763e-11
1.00662e-08
4.74499e-11
1.00541e-08
4.81071e-11
1.00419e-08
4.8749e-11
1.00296e-08
4.93768e-11
1.00171e-08
4.99917e-11
1.00044e-08
5.05948e-11
9.99162e-09
5.11871e-11