/*--------------------------------*- C++ -*----------------------------------*\
  =========                 |
  \\      /  F ield         | OpenFOAM: The Open Source CFD Toolbox
   \\    /   O peration     | Website:  https://openfoam.org
    \\  /    A nd           | Version:  10
     \\/     M anipulation  |
\*---------------------------------------------------------------------------*/
FoamFile
{
    format      ascii;
    class       volVectorField;
    location    "0.14";
    object      Ua;
}
// * * * * * * * * * * * * * * * * * * * * * * * * * * * * * * * * * * * * * //

dimensions      [0 1 -1 0 0 0 0];

internalField   nonuniform List<vector> 
12225
(
(0.0273189 -0.00093476 0)
(0.0868622 -0.00643724 0)
(0.102314 0.00366564 0)
(0.074989 0.0024023 0)
(0.0583147 0.00145153 0)
(0.04807 0.00101838 0)
(0.0411548 0.000718288 0)
(0.0364559 0.000511 0)
(0.0332509 0.000362318 0)
(0.0310938 0.000249782 0)
(0.0297088 0.000159243 0)
(0.0289294 7.99869e-05 0)
(0.028671 1.6024e-06 0)
(0.0289281 -8.96607e-05 0)
(0.029805 -0.00021921 0)
(0.0316369 -0.000451919 0)
(0.035496 -0.00102187 0)
(0.0460711 -0.00319602 0)
(0.000488864 -0.00140721 0)
(0.00605244 -0.00733136 0)
(0.0479385 -0.0012201 0)
(0.0743643 0.00733854 0)
(0.0579773 0.00442822 0)
(0.0478831 0.00312022 0)
(0.0410201 0.00220036 0)
(0.0363574 0.00156558 0)
(0.0331756 0.00111029 0)
(0.0310327 0.000765596 0)
(0.0296556 0.000488363 0)
(0.0288779 0.00024596 0)
(0.0286131 6.88033e-06 0)
(0.0288495 -0.000269853 0)
(0.0296704 -0.000657766 0)
(0.0313255 -0.00133406 0)
(0.0343835 -0.00286322 0)
(0.039245 -0.00763762 0)
(0.000214038 -0.000853333 0)
(0.000640299 -0.00143329 0)
(0.0140102 -0.00629354 0)
(0.0450617 0.00519939 0)
(0.0572308 0.0075127 0)
(0.0474747 0.00534745 0)
(0.0407221 0.00376831 0)
(0.0361397 0.00268206 0)
(0.0330091 0.00190298 0)
(0.0308978 0.00131278 0)
(0.0295382 0.000838388 0)
(0.0287645 0.000424632 0)
(0.0284867 1.88778e-05 0)
(0.0286803 -0.000445175 0)
(0.0293911 -0.00107986 0)
(0.0307429 -0.00212969 0)
(0.0328406 -0.00423408 0)
(0.0347676 -0.00920063 0)
(0.00014848 -0.000716482 0)
(0.000404348 -0.000965291 0)
(0.000827902 -0.00201424 0)
(0.0301466 -0.00676768 0)
(0.054956 0.0102961 0)
(0.0468154 0.00769157 0)
(0.0402286 0.00540843 0)
(0.0357802 0.0038518 0)
(0.0327341 0.00273513 0)
(0.0306749 0.00188817 0)
(0.0293445 0.00120811 0)
(0.0285785 0.000617317 0)
(0.0282817 4.31091e-05 0)
(0.0284128 -0.000601776 0)
(0.0289723 -0.00145338 0)
(0.0299642 -0.00277066 0)
(0.0312131 -0.00509311 0)
(0.0316532 -0.00941592 0)
(0.000115629 -0.000638905 0)
(0.000321046 -0.000789957 0)
(0.000614695 -0.00106529 0)
(0.00590178 -0.00817354 0)
(0.0304352 0.00547427 0)
(0.0459511 0.0101741 0)
(0.0395025 0.00709792 0)
(0.035255 0.00506147 0)
(0.0323318 0.00359855 0)
(0.0303489 0.00248659 0)
(0.0290619 0.00159511 0)
(0.0283093 0.000824933 0)
(0.0279899 8.53949e-05 0)
(0.0280445 -0.000725694 0)
(0.0284308 -0.00175159 0)
(0.0290655 -0.00322446 0)
(0.0296594 -0.00551825 0)
(0.0293657 -0.00903526 0)
(9.53582e-05 -0.000579023 0)
(0.000271847 -0.000684002 0)
(0.000472604 -0.000841751 0)
(0.000848426 -0.00171221 0)
(0.023101 -0.00688557 0)
(0.0429535 0.0122052 0)
(0.0384903 0.00879527 0)
(0.0345405 0.00629225 0)
(0.0317833 0.00448156 0)
(0.029904 0.00310028 0)
(0.0286779 0.00199523 0)
(0.0279472 0.00104741 0)
(0.0276056 0.000150857 0)
(0.0275778 -0.000805088 0)
(0.0277892 -0.00195714 0)
(0.0281084 -0.00348898 0)
(0.0282394 -0.00561749 0)
(0.027604 -0.00841373 0)
(8.167e-05 -0.00052562 0)
(0.000238272 -0.00060526 0)
(0.000408108 -0.000714559 0)
(0.000732751 -0.00100528 0)
(0.00728354 -0.0080679 0)
(0.0265795 0.00811897 0)
(0.037338 0.0105033 0)
(0.0336184 0.00752076 0)
(0.0310696 0.00536864 0)
(0.0293242 0.00371813 0)
(0.0281802 0.0024019 0)
(0.0274835 0.00128291 0)
(0.0271253 0.000242698 0)
(0.0270191 -0.000832245 0)
(0.0270711 -0.00206354 0)
(0.0271364 -0.00358253 0)
(0.0269632 -0.00549015 0)
(0.0261907 -0.00771262 0)
(7.1928e-05 -0.000474637 0)
(0.000213521 -0.000539465 0)
(0.000364226 -0.000622643 0)
(0.000574024 -0.000793427 0)
(0.00111427 -0.00206189 0)
(0.0191419 -0.00263032 0)
(0.0352728 0.0119883 0)
(0.0324533 0.0087122 0)
(0.0301725 0.0062402 0)
(0.0285944 0.00432478 0)
(0.0275576 0.00280521 0)
(0.0269118 0.00152685 0)
(0.0265485 0.000360952 0)
(0.0263769 -0.000804963 0)
(0.026298 -0.0020744 0)
(0.0261758 -0.00353423 0)
(0.025819 -0.00521472 0)
(0.0250162 -0.00700239 0)
(6.47176e-05 -0.000424376 0)
(0.000194468 -0.000480245 0)
(0.000332123 -0.000546705 0)
(0.000505622 -0.000660497 0)
(0.000916055 -0.00101611 0)
(0.0118171 -0.00784167 0)
(0.0273632 0.0103928 0)
(0.0311147 0.00985435 0)
(0.0290784 0.00707437 0)
(0.0277 0.00489904 0)
(0.0268015 0.00319084 0)
(0.0262283 0.00177093 0)
(0.0258773 0.0005014 0)
(0.0256614 -0.000727175 0)
(0.025487 -0.00200152 0)
(0.0252403 -0.00337688 0)
(0.0247866 -0.00484891 0)
(0.0240094 -0.00631287 0)
(5.91768e-05 -0.00037406 0)
(0.00017928 -0.000424312 0)
(0.00030699 -0.000479079 0)
(0.000459508 -0.000561448 0)
(0.000719095 -0.000753758 0)
(0.00248572 -0.00430891 0)
(0.0180937 0.00221496 0)
(0.0302863 0.011327 0)
(0.0277626 0.00784452 0)
(0.0266271 0.00541066 0)
(0.0259065 0.00353892 0)
(0.0254325 0.00200222 0)
(0.0251167 0.000654844 0)
(0.0248827 -0.000608853 0)
(0.0246513 -0.00186257 0)
(0.0243347 -0.00314272 0)
(0.0238451 -0.00443392 0)
(0.0231224 -0.00565668 0)
(5.47214e-05 -0.000323367 0)
(0.000166671 -0.000369797 0)
(0.000286231 -0.000415805 0)
(0.000425275 -0.000478345 0)
(0.000627431 -0.00059914 0)
(0.00122364 -0.00114056 0)
(0.0142016 -0.00764593 0)
(0.0265211 0.0123396 0)
(0.0259918 0.00840041 0)
(0.0253636 0.00581291 0)
(0.0248744 0.00382345 0)
(0.0245291 0.00220271 0)
(0.0242746 0.000806863 0)
(0.0240519 -0.000465317 0)
(0.0238005 -0.00167885 0)
(0.0234594 -0.0028614 0)
(0.0229757 -0.00399935 0)
(0.0223225 -0.00503982 0)
(5.02561e-05 -0.000276161 0)
(0.000153869 -0.000319797 0)
(0.000265657 -0.000359275 0)
(0.000395161 -0.000409098 0)
(0.000576978 -0.000495044 0)
(0.00106314 -0.000730555 0)
(0.00879928 -0.00966352 0)
(0.0202371 0.0104868 0)
(0.0242754 0.00861057 0)
(0.0240837 0.0060596 0)
(0.0238158 0.00400892 0)
(0.0236117 0.00234324 0)
(0.0234382 0.000930374 0)
(0.0232528 -0.000327304 0)
(0.0230141 -0.00149015 0)
(0.0226831 -0.00258335 0)
(0.0222307 -0.00359968 0)
(0.0216479 -0.00450713 0)
(4.7691e-05 -0.00022957 0)
(0.000146183 -0.000270455 0)
(0.000252811 -0.000304224 0)
(0.000376304 -0.000344579 0)
(0.000544496 -0.000411531 0)
(0.00088869 -0.000585708 0)
(0.00332741 -0.00477596 0)
(0.0144847 0.00409334 0)
(0.0231333 0.00882216 0)
(0.0227625 0.00617622 0)
(0.0226851 0.00408498 0)
(0.0226394 0.00241153 0)
(0.0225667 0.00101437 0)
(0.0224393 -0.000204883 0)
(0.0222352 -0.00130474 0)
(0.0219355 -0.00231095 0)
(0.0215291 -0.00322334 0)
(0.0210187 -0.00402508 0)
(4.48025e-05 -0.000177122 0)
(0.000137251 -0.000213899 0)
(0.000237659 -0.000241096 0)
(0.000354439 -0.000271918 0)
(0.000508977 -0.000321115 0)
(0.000770762 -0.000434454 0)
(0.00179597 -0.00122035 0)
(0.0116835 -0.00363006 0)
(0.0207967 0.00895546 0)
(0.0210269 0.00609556 0)
(0.0212933 0.00400455 0)
(0.0214702 0.00237758 0)
(0.0215385 0.00104221 0)
(0.0215002 -0.000103147 0)
(0.021358 -0.00111542 0)
(0.0211137 -0.00202117 0)
(0.020772 -0.00282652 0)
(0.0203443 -0.00352611 0)
(4.09217e-05 -0.000120041 0)
(0.000125224 -0.000149768 0)
(0.000217689 -0.000168989 0)
(0.000327314 -0.00018992 0)
(0.000472527 -0.000222195 0)
(0.000710566 -0.000285756 0)
(0.00149344 -0.000506423 0)
(0.00942912 -0.007346 0)
(0.0175681 0.0081488 0)
(0.0188788 0.00552513 0)
(0.0196559 0.00361523 0)
(0.0201271 0.00214903 0)
(0.020376 0.000953531 0)
(0.0204556 -6.46387e-05 0)
(0.0203999 -0.000955088 0)
(0.0202316 -0.00174172 0)
(0.0199695 -0.00243328 0)
(0.0196318 -0.00303091 0)
(3.39867e-05 -6.04604e-05 0)
(0.000104936 -7.78688e-05 0)
(0.000186522 -8.7336e-05 0)
(0.000288522 -9.77993e-05 0)
(0.000426748 -0.000114219 0)
(0.000649454 -0.000144973 0)
(0.00125183 -0.00024039 0)
(0.00721854 -0.00537475 0)
(0.0143075 0.00589953 0)
(0.0166829 0.00415568 0)
(0.0179619 0.00273407 0)
(0.0187324 0.0016159 0)
(0.0191653 0.000676523 0)
(0.0193684 -0.000141359 0)
(0.0194071 -0.000865229 0)
(0.0193232 -0.00150772 0)
(0.019146 -0.0020738 0)
(0.0188985 -0.00256514 0)
(1.74638e-05 -5.3622e-07 0)
(6.01913e-05 1.01561e-06 0)
(0.000123969 2.16406e-06 0)
(0.000216938 2.77675e-06 0)
(0.000348774 3.49737e-06 0)
(0.000552008 5.95819e-06 0)
(0.000988624 1.56116e-05 0)
(0.00454694 0.00016625 0)
(0.0108356 0.001856 0)
(0.0149623 0.00170975 0)
(0.0166423 0.00127598 0)
(0.0175745 0.000743196 0)
(0.0180977 0.000186743 0)
(0.018369 -0.00035753 0)
(0.0184712 -0.000871555 0)
(0.0184535 -0.00134538 0)
(0.0183483 -0.00177317 0)
(0.0181792 -0.0021517 0)
(4.19904e-05 7.06225e-05 0)
(0.000127307 9.6735e-05 0)
(0.000219541 0.000113272 0)
(0.000328802 0.000128577 0)
(0.000473982 0.000149582 0)
(0.000712738 0.000190943 0)
(0.00141043 0.000346999 0)
(0.00854277 0.00508923 0)
(0.0154633 -0.00109016 0)
(0.0160998 -0.000343035 0)
(0.0166736 -7.84402e-05 0)
(0.0171375 -0.000135699 0)
(0.0174547 -0.000346847 0)
(0.0176407 -0.000627806 0)
(0.0177199 -0.00093353 0)
(0.0177152 -0.00123862 0)
(0.0176457 -0.00152837 0)
(0.0175272 -0.00179435 0)
(5.8777e-05 0.00018644 0)
(0.000178384 0.000236366 0)
(0.000304694 0.000276482 0)
(0.00044837 0.000318765 0)
(0.000643829 0.000379915 0)
(0.00104941 0.000534275 0)
(0.00517862 0.00289735 0)
(0.0131235 0.00325723 0)
(0.0171196 -0.00127706 0)
(0.0170053 -0.000852801 0)
(0.017034 -0.00063689 0)
(0.0171087 -0.000588269 0)
(0.0171756 -0.00064947 0)
(0.0172112 -0.000776437 0)
(0.0172084 -0.000938521 0)
(0.0171681 -0.00111519 0)
(0.0170944 -0.00129302 0)
(0.0169932 -0.00146346 0)
(6.71598e-05 0.000344679 0)
(0.000205633 0.000412152 0)
(0.00035697 0.000482275 0)
(0.000540436 0.000583638 0)
(0.000874346 0.000789584 0)
(0.00387823 0.00295917 0)
(0.0120351 0.00300817 0)
(0.0175556 -0.000553395 0)
(0.0175479 -0.000846935 0)
(0.0173177 -0.000708358 0)
(0.0171843 -0.000637053 0)
(0.0171069 -0.000629147 0)
(0.0170528 -0.000671315 0)
(0.0170013 -0.00074855 0)
(0.0169412 -0.000847574 0)
(0.0168676 -0.000957848 0)
(0.0167792 -0.00107153 0)
(0.0166769 -0.00118309 0)
(8.73435e-05 0.000545454 0)
(0.000268015 0.000640015 0)
(0.000487031 0.00077531 0)
(0.000834243 0.00117504 0)
(0.00452912 0.00420436 0)
(0.0130395 0.00348644 0)
(0.018263 0.000525918 0)
(0.0181472 -0.000374911 0)
(0.0176638 -0.00040212 0)
(0.0173696 -0.000426102 0)
(0.0171818 -0.000457086 0)
(0.0170535 -0.000501984 0)
(0.0169552 -0.000561877 0)
(0.016869 -0.000634196 0)
(0.0167841 -0.000714904 0)
(0.0166949 -0.000799837 0)
(0.0165989 -0.00088536 0)
(0.0164955 -0.000968604 0)
(0.000141739 0.0008874 0)
(0.000442761 0.00111994 0)
(0.00117048 0.00174445 0)
(0.00678625 0.00688264 0)
(0.0154418 0.00564987 0)
(0.0189335 0.00194308 0)
(0.0184592 0.000673695 0)
(0.0178749 0.000239442 0)
(0.0175017 -6.54111e-06 0)
(0.0172556 -0.000159646 0)
(0.017085 -0.000267098 0)
(0.0169577 -0.000353555 0)
(0.0168533 -0.000431339 0)
(0.0167591 -0.000505873 0)
(0.0166673 -0.000578896 0)
(0.0165735 -0.000650351 0)
(0.0164757 -0.00071945 0)
(0.0163732 -0.000785245 0)
(0.000619365 0.00262567 0)
(0.00402758 0.00578044 0)
(0.00926345 0.00672158 0)
(0.0150604 0.00967362 0)
(0.0183062 0.00403056 0)
(0.0180308 0.0022055 0)
(0.0177059 0.00117879 0)
(0.0174346 0.000591793 0)
(0.0172285 0.000242776 0)
(0.0170728 2.40463e-05 0)
(0.0169503 -0.000122951 0)
(0.0168476 -0.000230582 0)
(0.0167551 -0.000316625 0)
(0.0166661 -0.000390565 0)
(0.0165766 -0.000457196 0)
(0.0164842 -0.000518729 0)
(0.0163881 -0.000576028 0)
(0.0162879 -0.000629308 0)
(0.00252969 0.00704711 0)
(0.00737679 0.00980023 0)
(0.0118592 0.00948583 0)
(0.0150812 0.0064712 0)
(0.0164761 0.00387373 0)
(0.0169117 0.00227973 0)
(0.0170185 0.00130896 0)
(0.0170061 0.000719165 0)
(0.0169532 0.000354906 0)
(0.0168874 0.000122682 0)
(0.0168175 -3.25596e-05 0)
(0.0167451 -0.000142978 0)
(0.0166699 -0.000227181 0)
(0.0165907 -0.000295758 0)
(0.016507 -0.000354586 0)
(0.0164185 -0.000406821 0)
(0.0163253 -0.000454086 0)
(0.016228 -0.000497176 0)
(0.00230448 0.00873254 0)
(0.00680186 0.0082895 0)
(0.0107795 0.00702825 0)
(0.0136566 0.00508695 0)
(0.0152935 0.00329078 0)
(0.0161007 0.00203556 0)
(0.0164855 0.00121905 0)
(0.0166585 0.000700625 0)
(0.0167235 0.000371175 0)
(0.016731 0.000157857 0)
(0.016706 1.4864e-05 0)
(0.016661 -8.57947e-05 0)
(0.0166022 -0.000160909 0)
(0.016533 -0.000220382 0)
(0.0164556 -0.000269949 0)
(0.0163712 -0.000312862 0)
(0.0162811 -0.000350927 0)
(0.0161863 -0.000385126 0)
(0.00219469 0.00649529 0)
(0.00640794 0.00610455 0)
(0.0100641 0.00517865 0)
(0.0128013 0.00385686 0)
(0.0145454 0.00259971 0)
(0.0155505 0.00166011 0)
(0.0161066 0.00102081 0)
(0.0164035 0.00060231 0)
(0.0165515 0.000330934 0)
(0.0166128 0.000153131 0)
(0.0166218 3.34676e-05 0)
(0.0165979 -5.04478e-05 0)
(0.0165523 -0.000112394 0)
(0.0164914 -0.000160686 0)
(0.0164192 -0.000200252 0)
(0.0163383 -0.000233966 0)
(0.0162508 -0.00026348 0)
(0.016158 -0.000289731 0)
(0.00211789 0.00462837 0)
(0.00615301 0.00432887 0)
(0.00962867 0.00367682 0)
(0.0122864 0.00278241 0)
(0.0140819 0.00191914 0)
(0.0151956 0.00124971 0)
(0.0158548 0.000781161 0)
(0.0162304 0.000468259 0)
(0.0164332 0.00026261 0)
(0.0165308 0.000126764 0)
(0.0165633 3.50326e-05 0)
(0.0165544 -2.92082e-05 0)
(0.0165182 -7.63642e-05 0)
(0.0164632 -0.000112805 0)
(0.0163949 -0.000142362 0)
(0.0163166 -0.000167303 0)
(0.0162309 -0.000188954 0)
(0.0161396 -0.000208086 0)
(0.00206972 0.00305091 0)
(0.00599905 0.00284655 0)
(0.00937415 0.00242028 0)
(0.0119872 0.00184787 0)
(0.0138081 0.00129103 0)
(0.0149813 0.000850397 0)
(0.0156999 0.00053676 0)
(0.0161225 0.000324749 0)
(0.0163588 0.000184245 0)
(0.016479 9.09522e-05 0)
(0.0165263 2.78094e-05 0)
(0.0165268 -1.63906e-05 0)
(0.0164967 -4.87393e-05 0)
(0.0164456 -7.36163e-05 0)
(0.0163798 -9.36771e-05 0)
(0.0163032 -0.000110508 0)
(0.0162188 -0.000125046 0)
(0.0161284 -0.000137842 0)
(0.00204333 0.00170257 0)
(0.00591629 0.00158667 0)
(0.00923962 0.00134993 0)
(0.0118296 0.00103543 0)
(0.0136626 0.000728254 0)
(0.0148659 0.000482639 0)
(0.0156156 0.000306234 0)
(0.0160634 0.000186196 0)
(0.0163179 0.00010628 0)
(0.0164504 5.30634e-05 0)
(0.0165058 1.69971e-05 0)
(0.0165116 -8.24598e-06 0)
(0.0164849 -2.66933e-05 0)
(0.016436 -4.08441e-05 0)
(0.0163716 -5.22207e-05 0)
(0.016296 -6.17365e-05 0)
(0.0162122 -6.99338e-05 0)
(0.0161223 -7.71326e-05 0)
(0.00203257 0.000539679 0)
(0.00588283 0.000502709 0)
(0.00918564 0.000427826 0)
(0.0117665 0.000328778 0)
(0.0136041 0.000231882 0)
(0.0148192 0.000154071 0)
(0.0155814 9.79737e-05 0)
(0.0160393 5.9694e-05 0)
(0.0163011 3.4159e-05 0)
(0.0164387 1.71344e-05 0)
(0.0164974 5.58954e-06 0)
(0.0165054 -2.49053e-06 0)
(0.0164801 -8.39181e-06 0)
(0.016432 -1.29139e-05 0)
(0.0163682 -1.65449e-05 0)
(0.016293 -1.95781e-05 0)
(0.0162095 -2.2188e-05 0)
(0.0161199 -2.44779e-05 0)
(0.000108316 -0.000231521 -2.99106e-30)
(0.000325802 -0.000231138 2.98355e-30)
(0.000544574 -0.000230469 0)
(0.000764364 -0.000229509 0)
(0.000984895 -0.000228258 0)
(0.00120588 -0.000226717 -2.91602e-30)
(0.00142703 -0.000224889 0)
(0.00164806 -0.000222778 0)
(0.00186867 -0.000220392 0)
(0.00208856 -0.000217737 0)
(0.00230745 -0.000214825 2.74931e-30)
(0.00252505 -0.000211668 0)
(0.00274107 -0.000208278 0)
(0.00295524 -0.000204669 0)
(0.0031673 -0.000200858 0)
(0.003377 -0.000196862 2.50451e-30)
(0.00358409 -0.000192696 0)
(0.00378834 -0.00018838 0)
(0.00398955 -0.000183931 0)
(0.0041875 -0.000179367 0)
(0.00438203 -0.000174708 0)
(0.00457297 -0.000169971 0)
(0.00476016 -0.000165173 0)
(0.00494348 -0.000160332 2.01389e-30)
(0.0051228 -0.000155465 -1.94887e-30)
(0.00529803 -0.000150588 1.88376e-30)
(0.00546909 -0.000145714 1.81875e-30)
(0.0056359 -0.000140859 0)
(0.00579843 -0.000136036 0)
(0.00595662 -0.000131256 -1.62613e-30)
(0.00611045 -0.000126531 -1.56325e-30)
(0.00625992 -0.000121871 0)
(0.00640502 -0.000117285 0)
(0.00654577 -0.00011278 -1.38038e-30)
(0.00668219 -0.000108365 0)
(0.00681432 -0.000104044 0)
(0.00694219 -9.9824e-05 1.20824e-30)
(0.00706585 -9.57082e-05 0)
(0.00718537 -9.17005e-05 1.10038e-30)
(0.00730081 -8.78037e-05 2.09731e-30)
(0.00741223 -8.40199e-05 0)
(0.00751971 -8.03504e-05 0)
(0.00762333 -7.67962e-05 0)
(0.00772317 -7.33577e-05 0)
(0.00781931 -7.00346e-05 0)
(0.00791184 -6.68263e-05 1.54063e-30)
(0.00800086 -6.3732e-05 1.45854e-30)
(0.00808644 -6.07504e-05 1.37944e-30)
(0.00816869 -5.78797e-05 0)
(0.00824769 -5.51182e-05 -1.23005e-30)
(0.00832353 -5.24639e-05 0)
(0.00839632 -4.99145e-05 1.09203e-30)
(0.00846614 -4.74675e-05 1.02712e-30)
(0.00853308 -4.51205e-05 0)
(0.00859724 -4.28709e-05 0)
(0.00865869 -4.0716e-05 0)
(0.00871755 -3.86529e-05 7.93341e-31)
(0.00877388 -3.6679e-05 0)
(0.00882777 -3.47914e-05 0)
(0.00887931 -3.29874e-05 0)
(0.00892859 -3.1264e-05 0)
(0.00897568 -2.96186e-05 0)
(0.00902066 -2.80484e-05 0)
(0.00906361 -2.65507e-05 0)
(0.0091046 -2.51227e-05 0)
(0.00914371 -2.37619e-05 -3.98355e-31)
(0.00918101 -2.24657e-05 0)
(0.00921657 -2.12316e-05 0)
(0.00925045 -2.00571e-05 3.00068e-31)
(0.00928273 -1.89397e-05 2.7042e-31)
(0.00931346 -1.78773e-05 0)
(0.00934271 -1.68675e-05 -2.15441e-31)
(0.00937054 -1.59081e-05 1.89982e-31)
(0.00939701 -1.4997e-05 0)
(0.00942217 -1.41321e-05 -1.42853e-31)
(0.00944607 -1.33114e-05 0)
(0.00946878 -1.2533e-05 0)
(0.00949033 -1.1795e-05 8.08349e-32)
(0.00951079 -1.10956e-05 0)
(0.0095302 -1.04332e-05 -4.46901e-32)
(0.0095486 -9.80588e-06 0)
(0.00956604 -9.21219e-06 1.22803e-32)
(0.00958256 -8.65054e-06 -2.6266e-33)
(0.00959821 -8.11943e-06 -1.67247e-32)
(0.00961301 -7.61741e-06 -6.00993e-32)
(0.00962702 -7.14312e-06 8.52857e-32)
(0.00964027 -6.69521e-06 0)
(0.00965279 -6.27241e-06 0)
(0.00966462 -5.8735e-06 0)
(0.00967579 -5.4973e-06 1.72671e-31)
(0.00968633 -5.14269e-06 1.91504e-31)
(0.00969628 -4.80858e-06 -2.09246e-31)
(0.00970566 -4.49393e-06 0)
(0.0097145 -4.19777e-06 2.41683e-31)
(0.00972283 -3.91914e-06 2.56485e-31)
(0.00973067 -3.65712e-06 2.70401e-31)
(0.00973804 -3.41086e-06 0)
(0.00974498 -3.17951e-06 0)
(0.00975151 -2.9623e-06 0)
(0.00975764 -2.75846e-06 3.18135e-31)
(0.00976339 -2.56726e-06 0)
(0.0097688 -2.38802e-06 0)
(0.00977387 -2.22008e-06 -3.4673e-31)
(0.00977862 -2.06281e-06 0)
(0.00978307 -1.91561e-06 0)
(0.00978724 -1.77791e-06 -3.70224e-31)
(0.00979115 -1.64917e-06 0)
(0.0097948 -1.52888e-06 0)
(0.00979821 -1.41655e-06 3.89423e-31)
(0.0098014 -1.3117e-06 3.94994e-31)
(0.00980438 -1.2139e-06 0)
(0.00980717 -1.12272e-06 -4.05039e-31)
(0.00980976 -1.03777e-06 0)
(0.00981218 -9.58664e-07 4.13755e-31)
(0.00981443 -8.85049e-07 0)
(0.00981653 -8.16583e-07 4.21308e-31)
(0.00981849 -7.52945e-07 4.24686e-31)
(0.0098203 -6.93831e-07 0)
(0.00982199 -6.38953e-07 0)
(0.00982356 -5.88038e-07 0)
(0.00982501 -5.4083e-07 0)
(0.00982637 -4.97087e-07 0)
(0.00982762 -4.56578e-07 0)
(0.00982878 -4.19089e-07 0)
(0.00982985 -3.84416e-07 4.4428e-31)
(0.00983084 -3.52367e-07 -4.45979e-31)
(0.00983176 -3.22762e-07 0)
(0.00983261 -2.9543e-07 0)
(0.0098334 -2.70212e-07 0)
(0.00983412 -2.46956e-07 0)
(0.00983478 -2.25521e-07 -9.05447e-31)
(0.0098354 -2.05774e-07 0)
(0.00983596 -1.87588e-07 9.09483e-31)
(0.00983648 -1.70844e-07 -9.11264e-31)
(0.00983696 -1.55431e-07 0)
(0.0098374 -1.41243e-07 0)
(0.0098378 -1.28177e-07 0)
(0.00983817 -1.16138e-07 9.17083e-31)
(0.0098385 -1.05033e-07 9.18263e-31)
(0.00983881 -9.47729e-08 0)
(0.00983909 -8.52701e-08 9.20358e-31)
(0.00983934 -7.64384e-08 9.21291e-31)
(0.00983957 -6.81912e-08 -9.22171e-31)
(0.00983977 -6.04399e-08 0)
(0.00983995 -5.3093e-08 0)
(0.00984011 -4.60528e-08 -9.24511e-31)
(0.00984025 -3.92135e-08 0)
(0.00984037 -3.24575e-08 0)
(0.00984047 -2.56515e-08 0)
(0.00984054 -1.86415e-08 0)
(0.00984059 -1.12456e-08 9.28154e-31)
(0.00984062 -3.2467e-09 9.28983e-31)
(0.00984061 5.61858e-09 0)
(0.00984057 1.5673e-08 9.30936e-31)
(0.0098405 2.73159e-08 0)
(0.00984038 4.10453e-08 0)
(0.0098402 5.74861e-08 9.35225e-31)
(0.00983996 7.74276e-08 0)
(0.00983963 1.01871e-07 9.39762e-31)
(0.0098392 1.32095e-07 0)
(0.00983864 1.69738e-07 0)
(0.00983791 2.16909e-07 9.51491e-31)
(0.00983697 2.76345e-07 0)
(0.00983577 3.51608e-07 9.65216e-31)
(0.00983423 4.47378e-07 0)
(0.00983224 5.69847e-07 0)
(0.00982968 7.27292e-07 0)
(0.00982639 9.30909e-07 -1.02423e-30)
(0.00982211 1.19607e-06 0)
(0.00981656 1.54425e-06 1.08672e-30)
(0.00980928 2.00621e-06 0)
(0.00979971 2.6272e-06 0)
(0.00978696 3.47638e-06 0)
(0.0097698 4.66455e-06 0)
(0.00974629 6.38079e-06 0)
(0.00971329 8.97608e-06 0)
(0.00966519 1.31836e-05 0)
(0.00959065 2.0822e-05 -6.11731e-30)
(0.00946105 3.77217e-05 0)
(0.00917379 9.07123e-05 0)
(0.000108916 -0.000695846 8.98971e-30)
(0.000327603 -0.000694688 -8.96701e-30)
(0.000547572 -0.000692662 0)
(0.000768547 -0.000689758 1.77935e-29)
(0.000990243 -0.000685973 0)
(0.00121237 -0.000681311 -8.79142e-30)
(0.00143463 -0.00067578 -1.74007e-29)
(0.00165672 -0.000669395 -1.72252e-29)
(0.00187835 -0.000662176 0)
(0.00209921 -0.00065415 -1.68102e-29)
(0.002319 -0.000645348 8.31354e-30)
(0.00253744 -0.000635804 0)
(0.00275423 -0.000625561 0)
(0.00296911 -0.000614661 0)
(0.0031818 -0.000603154 0)
(0.00339205 -0.000591088 7.59959e-30)
(0.00359962 -0.000578517 0)
(0.00380428 -0.000565495 1.4438e-29)
(0.00400582 -0.000552077 0)
(0.00420403 -0.000538319 0)
(0.00439875 -0.000524276 -1.33445e-29)
(0.0045898 -0.000510003 0)
(0.00477704 -0.000495553 1.25841e-29)
(0.00496035 -0.000480978 6.15793e-30)
(0.00513961 -0.000466328 -5.96647e-30)
(0.00531472 -0.000451651 5.77471e-30)
(0.0054856 -0.000436991 5.58322e-30)
(0.0056522 -0.000422391 0)
(0.00581447 -0.00040789 0)
(0.00597237 -0.000393524 -5.01568e-30)
(0.00612588 -0.000379327 -1.43465e-29)
(0.006275 -0.000365327 0)
(0.00641973 -0.000351553 0)
(0.00656008 -0.000338027 -4.29146e-30)
(0.0066961 -0.000324772 0)
(0.0068278 -0.000311804 0)
(0.00695524 -0.000299139 3.78418e-30)
(0.00707847 -0.00028679 0)
(0.00719755 -0.000274768 1.0229e-29)
(0.00731254 -0.00026308 6.6278e-30)
(0.00742353 -0.000251732 0)
(0.00753057 -0.000240729 0)
(0.00763375 -0.000230073 -1.11736e-29)
(0.00773316 -0.000219764 -1.06312e-29)
(0.00782888 -0.000209803 -1.01072e-29)
(0.00792101 -0.000200187 1.45891e-29)
(0.00800962 -0.000190914 4.7459e-30)
(0.00809481 -0.000181978 -4.13067e-30)
(0.00817667 -0.000173376 8.19114e-30)
(0.0082553 -0.000165102 -4.07288e-30)
(0.00833079 -0.000157149 0)
(0.00840323 -0.000149511 3.66637e-30)
(0.00847271 -0.00014218 1.00256e-29)
(0.00853933 -0.000135149 0)
(0.00860317 -0.00012841 0)
(0.00866433 -0.000121954 0)
(0.0087229 -0.000115775 2.78676e-30)
(0.00877895 -0.000109862 0)
(0.00883258 -0.000104208 4.5533e-30)
(0.00888387 -9.88044e-05 0)
(0.00893291 -9.36427e-05 3.99761e-30)
(0.00897976 -8.87144e-05 0)
(0.00902452 -8.40114e-05 -3.49103e-30)
(0.00906726 -7.95254e-05 0)
(0.00910805 -7.52485e-05 3.03011e-30)
(0.00914697 -7.11728e-05 -4.43955e-30)
(0.00918409 -6.72906e-05 0)
(0.00921948 -6.35942e-05 -2.41708e-30)
(0.0092532 -6.00764e-05 1.33448e-30)
(0.00928532 -5.673e-05 1.24721e-30)
(0.0093159 -5.35479e-05 0)
(0.00934501 -5.05234e-05 -2.81485e-30)
(0.00937271 -4.76499e-05 1.01044e-30)
(0.00939905 -4.4921e-05 0)
(0.00942408 -4.23305e-05 -8.71719e-31)
(0.00944788 -3.98724e-05 -1.16912e-30)
(0.00947047 -3.7541e-05 0)
(0.00949193 -3.53307e-05 6.8918e-31)
(0.00951229 -3.3236e-05 0)
(0.0095316 -3.12517e-05 1.3273e-31)
(0.00954992 -2.93729e-05 0)
(0.00956728 -2.75947e-05 -3.56743e-32)
(0.00958372 -2.59124e-05 4.43554e-31)
(0.00959929 -2.43216e-05 7.52929e-31)
(0.00961403 -2.28179e-05 1.26917e-30)
(0.00962798 -2.13973e-05 -1.04553e-30)
(0.00964116 -2.00556e-05 0)
(0.00965363 -1.87892e-05 0)
(0.0096654 -1.75943e-05 0)
(0.00967652 -1.64675e-05 -5.19388e-31)
(0.00968702 -1.54053e-05 -3.39027e-31)
(0.00969692 -1.44045e-05 2.86822e-31)
(0.00970625 -1.3462e-05 0)
(0.00971505 -1.25749e-05 3.43332e-31)
(0.00972334 -1.17403e-05 -1.47832e-31)
(0.00973115 -1.09554e-05 -1.06888e-31)
(0.00973849 -1.02177e-05 0)
(0.0097454 -9.52474e-06 0)
(0.0097519 -8.87408e-06 0)
(0.009758 -8.26346e-06 3.35498e-32)
(0.00976373 -7.69073e-06 0)
(0.00976911 -7.1538e-06 1.10544e-30)
(0.00977416 -6.65072e-06 1.04073e-30)
(0.00977889 -6.17961e-06 -1.20803e-30)
(0.00978332 -5.73866e-06 0)
(0.00978747 -5.32618e-06 -1.48468e-30)
(0.00979136 -4.94053e-06 0)
(0.009795 -4.58019e-06 -1.37644e-30)
(0.0097984 -4.24367e-06 1.65515e-30)
(0.00980157 -3.92958e-06 1.70462e-30)
(0.00980454 -3.6366e-06 0)
(0.00980731 -3.36346e-06 1.21537e-30)
(0.0098099 -3.10897e-06 -1.53137e-30)
(0.0098123 -2.872e-06 3.14844e-31)
(0.00981455 -2.65147e-06 0)
(0.00981664 -2.44637e-06 3.37055e-31)
(0.00981858 -2.25573e-06 -1.27424e-30)
(0.00982039 -2.07864e-06 0)
(0.00982207 -1.91423e-06 -1.65721e-30)
(0.00982363 -1.7617e-06 -1.67328e-30)
(0.00982508 -1.62028e-06 -1.68817e-30)
(0.00982643 -1.48923e-06 0)
(0.00982768 -1.36788e-06 0)
(0.00982883 -1.25557e-06 0)
(0.0098299 -1.15169e-06 2.14215e-30)
(0.00983089 -1.05568e-06 -4.09621e-31)
(0.0098318 -9.66989e-07 0)
(0.00983265 -8.85107e-07 1.76561e-30)
(0.00983343 -8.09556e-07 1.77358e-30)
(0.00983415 -7.39886e-07 0)
(0.00983481 -6.75671e-07 -8.58906e-31)
(0.00983542 -6.1651e-07 3.58783e-30)
(0.00983599 -5.62028e-07 8.70769e-31)
(0.0098365 -5.11867e-07 -4.48587e-30)
(0.00983698 -4.65692e-07 0)
(0.00983742 -4.23185e-07 0)
(0.00983782 -3.84043e-07 0)
(0.00983818 -3.47978e-07 8.93113e-31)
(0.00983852 -3.14712e-07 4.54798e-30)
(0.00983882 -2.83978e-07 3.65787e-30)
(0.0098391 -2.55513e-07 9.02756e-31)
(0.00983935 -2.2906e-07 4.57493e-30)
(0.00983958 -2.04359e-07 -9.08092e-31)
(0.00983978 -1.81147e-07 0)
(0.00983996 -1.59147e-07 0)
(0.00984012 -1.3807e-07 -4.60353e-30)
(0.00984026 -1.17597e-07 0)
(0.00984038 -9.73788e-08 0)
(0.00984047 -7.7016e-08 3.70129e-30)
(0.00984055 -5.60481e-08 0)
(0.0098406 -3.39325e-08 4.63606e-30)
(0.00984063 -1.00203e-08 9.28284e-31)
(0.00984062 1.64748e-08 0)
(0.00984059 4.65169e-08 4.66101e-30)
(0.00984051 8.1298e-08 0)
(0.00984039 1.22305e-07 0)
(0.00984022 1.71403e-07 9.47005e-31)
(0.00983998 2.30949e-07 3.7648e-30)
(0.00983966 3.03933e-07 9.60657e-31)
(0.00983923 3.94167e-07 0)
(0.00983868 5.0654e-07 0)
(0.00983797 6.4735e-07 4.84614e-30)
(0.00983704 8.24753e-07 0)
(0.00983586 1.04938e-06 4.96986e-30)
(0.00983434 1.33518e-06 0)
(0.00983238 1.70059e-06 0)
(0.00982987 2.17028e-06 0)
(0.00982662 2.77756e-06 -1.21519e-30)
(0.00982242 3.56811e-06 0)
(0.00981696 4.60574e-06 1.40331e-30)
(0.00980981 5.98155e-06 0)
(0.00980042 7.82936e-06 0)
(0.00978794 1.03529e-05 5.83831e-30)
(0.00977118 1.38771e-05 -6.56076e-30)
(0.00974832 1.89519e-05 0)
(0.00971645 2.65851e-05 0)
(0.00967064 3.88336e-05 0)
(0.00960181 6.05652e-05 1.79651e-29)
(0.00949244 0.000105897 0)
(0.00931988 0.000228014 -1.01345e-28)
(0.000110133 -0.00116406 6.01671e-29)
(0.000331254 -0.00116209 -7.88309e-33)
(0.000553648 -0.00115866 0)
(0.000777025 -0.00115373 1.8407e-32)
(0.00100108 -0.00114731 0)
(0.00122552 -0.00113941 0)
(0.00145001 -0.00113003 -5.825e-29)
(0.00167426 -0.00111921 -2.88519e-29)
(0.00189794 -0.00110699 2.84804e-29)
(0.00212075 -0.00109339 -2.81634e-29)
(0.00234236 -0.0010785 0)
(0.0025625 -0.00106235 0)
(0.00278085 -0.00104503 -2.68164e-29)
(0.00299713 -0.00102662 -5.265e-29)
(0.00321109 -0.00100718 5.1615e-29)
(0.00342244 -0.000986819 0)
(0.00363097 -0.000965617 4.94067e-29)
(0.00383642 -0.000943668 2.42121e-29)
(0.00403861 -0.000921067 0)
(0.00423733 -0.000897909 4.58204e-29)
(0.0044324 -0.000874287 -2.23905e-29)
(0.00462367 -0.000850293 -4.3304e-29)
(0.004811 -0.000826019 2.11249e-29)
(0.00499427 -0.000801551 0)
(0.00517338 -0.000776972 3.94355e-29)
(0.00534823 -0.000752363 3.81385e-29)
(0.00551876 -0.000727798 0)
(0.00568492 -0.000703348 3.55568e-29)
(0.00584666 -0.000679077 0)
(0.00600396 -0.000655046 3.30145e-29)
(0.00615681 -0.000631308 -1.60282e-29)
(0.00630522 -0.000607914 0)
(0.00644919 -0.000584906 0)
(0.00658875 -0.000562324 0)
(0.00672393 -0.000540202 0)
(0.00685479 -0.000518569 0)
(0.00698136 -0.00049745 0)
(0.00710371 -0.000476864 2.36469e-29)
(0.0072219 -0.000456829 -1.11267e-29)
(0.00733601 -0.000437358 0)
(0.0074461 -0.000418459 0)
(0.00755226 -0.000400138 0)
(0.00765458 -0.0003824 -3.77319e-29)
(0.00775313 -0.000365244 -1.81504e-29)
(0.00784801 -0.000348669 -3.7061e-31)
(0.0079393 -0.000332672 3.74916e-31)
(0.00802711 -0.000317247 -1.52642e-29)
(0.00811151 -0.000302387 -1.4867e-29)
(0.00819261 -0.000288084 2.78528e-29)
(0.0082705 -0.000274327 1.30107e-29)
(0.00834527 -0.000261106 0)
(0.00841702 -0.000248409 1.16501e-29)
(0.00848583 -0.000236225 2.24215e-29)
(0.0085518 -0.000224539 0)
(0.00861502 -0.00021334 0)
(0.00867559 -0.000202613 -9.24588e-30)
(0.00873358 -0.000192345 0)
(0.00878908 -0.000182521 0)
(0.00884218 -0.000173127 2.35111e-29)
(0.00889297 -0.000164149 1.44531e-29)
(0.00894152 -0.000155574 7.19854e-30)
(0.00898792 -0.000147386 0)
(0.00903224 -0.000139573 -6.36277e-30)
(0.00907456 -0.000132121 0)
(0.00911495 -0.000125016 1.59463e-29)
(0.00915349 -0.000118245 -5.2487e-30)
(0.00919024 -0.000111796 -8.9557e-30)
(0.00922528 -0.000105656 -1.29019e-29)
(0.00925867 -9.98119e-05 0)
(0.00929048 -9.42527e-05 7.11337e-30)
(0.00932077 -8.89667e-05 0)
(0.0093496 -8.39424e-05 2.57381e-30)
(0.00937703 -7.91688e-05 5.52922e-30)
(0.00940311 -7.46355e-05 5.05311e-30)
(0.00942791 -7.03321e-05 -4.60111e-30)
(0.00945147 -6.62487e-05 1.63982e-30)
(0.00947386 -6.23756e-05 0)
(0.00949511 -5.87036e-05 0)
(0.00951528 -5.52237e-05 -3.0142e-30)
(0.00953441 -5.19272e-05 -8.83762e-31)
(0.00955255 -4.88059e-05 0)
(0.00956975 -4.58516e-05 -1.46673e-30)
(0.00958604 -4.30567e-05 0)
(0.00960146 -4.04138e-05 -2.75867e-31)
(0.00961607 -3.79156e-05 3.30018e-30)
(0.00962988 -3.55552e-05 -2.80554e-30)
(0.00964295 -3.33262e-05 7.13889e-31)
(0.00965529 -3.12221e-05 0)
(0.00966696 -2.92368e-05 -2.84248e-31)
(0.00967798 -2.73646e-05 1.08906e-30)
(0.00968838 -2.55997e-05 0)
(0.00969819 -2.39369e-05 0)
(0.00970744 -2.23709e-05 0)
(0.00971616 -2.08968e-05 -3.25547e-31)
(0.00972438 -1.951e-05 0)
(0.00973211 -1.82059e-05 0)
(0.00973939 -1.69801e-05 0)
(0.00974624 -1.58286e-05 0)
(0.00975267 -1.47474e-05 0)
(0.00975872 -1.37328e-05 -1.34482e-30)
(0.0097644 -1.27811e-05 0)