/*--------------------------------*- C++ -*----------------------------------*\
  =========                 |
  \\      /  F ield         | OpenFOAM: The Open Source CFD Toolbox
   \\    /   O peration     | Website:  https://openfoam.org
    \\  /    A nd           | Version:  10
     \\/     M anipulation  |
\*---------------------------------------------------------------------------*/
FoamFile
{
    format      ascii;
    class       surfaceScalarField;
    location    "8300";
    object      phi;
}
// * * * * * * * * * * * * * * * * * * * * * * * * * * * * * * * * * * * * * //

dimensions      [0 3 -1 0 0 0 0];

internalField   nonuniform List<scalar> 
12640
(
-1.35278e-08
1.35278e-08
-2.71143e-08
1.35864e-08
-4.08189e-08
1.37046e-08
-5.47032e-08
1.38843e-08
-6.88316e-08
1.41285e-08
-8.3273e-08
1.44413e-08
-9.81013e-08
1.48284e-08
-1.13398e-07
1.52966e-08
-1.29253e-07
1.58548e-08
-1.45767e-07
1.65141e-08
-1.63055e-07
1.72881e-08
-1.81249e-07
1.81938e-08
-2.00501e-07
1.92525e-08
-2.20992e-07
2.04907e-08
-2.42934e-07
2.19419e-08
-2.66582e-07
2.36486e-08
-2.92248e-07
2.56655e-08
-3.20311e-07
2.80634e-08
-3.51247e-07
3.09357e-08
-3.85654e-07
3.44071e-08
-4.24301e-07
3.86471e-08
-4.68192e-07
4.3891e-08
-5.18665e-07
5.04724e-08
-5.77543e-07
5.88784e-08
-6.47385e-07
6.98419e-08
-7.31894e-07
8.45092e-08
-8.36652e-07
1.04757e-07
-9.7049e-07
1.33839e-07
-1.14829e-06
1.77802e-07
-1.39724e-06
2.48948e-07
-1.77235e-06
3.75108e-07
-2.39496e-06
6.2261e-07
-2.7862e-06
3.91245e-07
-2.71872e-06
-6.74782e-08
-8.60743e-06
5.8887e-06
-9.94833e-06
1.3409e-06
-9.66372e-06
-2.8461e-07
-7.23684e-06
-2.42688e-06
-3.72405e-06
-3.51279e-06
-3.10409e-18
-3.72405e-06
3.72405e-06
-3.72405e-06
7.23684e-06
-3.51279e-06
9.66372e-06
-2.42688e-06
9.94833e-06
-2.8461e-07
8.60743e-06
1.3409e-06
2.71872e-06
5.8887e-06
2.7862e-06
-6.74782e-08
2.39496e-06
3.91245e-07
1.77235e-06
6.2261e-07
1.39724e-06
3.75108e-07
1.14829e-06
2.48948e-07
9.7049e-07
1.77802e-07
8.36652e-07
1.33839e-07
7.31894e-07
1.04757e-07
6.47385e-07
8.45092e-08
5.77543e-07
6.98419e-08
5.18665e-07
5.88784e-08
4.68192e-07
5.04724e-08
4.24301e-07
4.3891e-08
3.85654e-07
3.86471e-08
3.51247e-07
3.44071e-08
3.20311e-07
3.09357e-08
2.92248e-07
2.80634e-08
2.66582e-07
2.56655e-08
2.42934e-07
2.36486e-08
2.20992e-07
2.19419e-08
2.00501e-07
2.04907e-08
1.81249e-07
1.92525e-08
1.63055e-07
1.81938e-08
1.45767e-07
1.72881e-08
1.29253e-07
1.65141e-08
1.13398e-07
1.58548e-08
9.81013e-08
1.52966e-08
8.3273e-08
1.48284e-08
6.88316e-08
1.44413e-08
5.47032e-08
1.41285e-08
4.08189e-08
1.38843e-08
2.71143e-08
1.37046e-08
1.35278e-08
1.35864e-08
1.35278e-08
-1.48349e-08
2.83627e-08
-2.9734e-08
2.84856e-08
-4.47626e-08
2.87332e-08
-5.99882e-08
2.91099e-08
-7.54814e-08
2.96217e-08
-9.13175e-08
3.02774e-08
-1.07578e-07
3.10886e-08
-1.24351e-07
3.207e-08
-1.41736e-07
3.32399e-08
-1.59844e-07
3.46217e-08
-1.788e-07
3.62438e-08
-1.98748e-07
3.8142e-08
-2.19856e-07
4.03606e-08
-2.4232e-07
4.29553e-08
-2.66375e-07
4.59962e-08
-2.92298e-07
4.95723e-08
-3.20431e-07
5.37979e-08
-3.51189e-07
5.88215e-08
-3.85092e-07
6.48383e-08
-4.22794e-07
7.21092e-08
-4.65135e-07
8.09886e-08
-5.13212e-07
9.19681e-08
-5.68485e-07
1.05745e-07
-6.32943e-07
1.23336e-07
-7.09371e-07
1.4627e-07
-8.01798e-07
1.76936e-07
-9.16279e-07
2.19238e-07
-1.06237e-06
2.79929e-07
-1.25609e-06
3.71527e-07
-1.52653e-06
5.19387e-07
-1.9322e-06
7.8077e-07
-2.6099e-06
1.30031e-06
-3.16633e-06
9.47675e-07
-4.58648e-06
1.35268e-06
-2.68623e-06
3.98845e-06
-9.82243e-06
8.4771e-06
-1.01875e-05
8.0501e-08
-7.55024e-06
-5.06418e-06
-3.80087e-06
-7.26217e-06
-2.47334e-18
-7.52491e-06
3.80087e-06
-7.52491e-06
7.55024e-06
-7.26217e-06
1.01875e-05
-5.06418e-06
9.82243e-06
8.0501e-08
2.68623e-06
8.4771e-06
4.58648e-06
3.98845e-06
3.16633e-06
1.35268e-06
2.6099e-06
9.47675e-07
1.9322e-06
1.30031e-06
1.52653e-06
7.8077e-07
1.25609e-06
5.19387e-07
1.06237e-06
3.71527e-07
9.16279e-07
2.79929e-07
8.01798e-07
2.19238e-07
7.09371e-07
1.76936e-07
6.32943e-07
1.4627e-07
5.68485e-07
1.23336e-07
5.13212e-07
1.05745e-07
4.65135e-07
9.19681e-08
4.22794e-07
8.09886e-08
3.85092e-07
7.21092e-08
3.51189e-07
6.48383e-08
3.20431e-07
5.88215e-08
2.92298e-07
5.37979e-08
2.66375e-07
4.95723e-08
2.4232e-07
4.59962e-08
2.19856e-07
4.29553e-08
1.98748e-07
4.03606e-08
1.788e-07
3.8142e-08
1.59844e-07
3.62438e-08
1.41736e-07
3.46217e-08
1.24351e-07
3.32399e-08
1.07578e-07
3.207e-08
9.13175e-08
3.10886e-08
7.54814e-08
3.02774e-08
5.99882e-08
2.96217e-08
4.47626e-08
2.91099e-08
2.9734e-08
2.87332e-08
1.48349e-08
2.84856e-08
2.83627e-08
-1.62643e-08
4.4627e-08
-3.25988e-08
4.48202e-08
-4.90753e-08
4.52097e-08
-6.57673e-08
4.58019e-08
-8.27524e-08
4.66068e-08
-1.00113e-07
4.7638e-08
-1.17938e-07
4.89136e-08
-1.36325e-07
5.04566e-08
-1.55381e-07
5.22963e-08
-1.75228e-07
5.44688e-08
-1.96003e-07
5.70191e-08
-2.17865e-07
6.00033e-08
-2.40995e-07
6.3491e-08
-2.65609e-07
6.75696e-08
-2.91962e-07
7.23489e-08
-3.20359e-07
7.79689e-08
-3.51169e-07
8.46087e-08
-3.84849e-07
9.2501e-08
-4.21962e-07
1.01952e-07
-4.63223e-07
1.1337e-07
-5.09544e-07
1.2731e-07
-5.62116e-07
1.4454e-07
-6.22523e-07
1.66152e-07
-6.92916e-07
1.9373e-07
-7.76303e-07
2.29657e-07
-8.77014e-07
2.77647e-07
-1.00153e-06
3.43753e-07
-1.16e-06
4.38398e-07
-1.36926e-06
5.80794e-07
-1.6594e-06
8.09523e-07
-2.08958e-06
1.21095e-06
-2.79676e-06
2.00748e-06
-3.35571e-06
1.50663e-06
-4.26821e-06
2.26517e-06
-4.53013e-06
4.25037e-06
-2.78372e-06
6.73068e-06
-1.07529e-05
8.04967e-06
-8.17853e-06
-7.63853e-06
-3.89287e-06
-1.15478e-05
-1.80941e-18
-1.14178e-05
3.89287e-06
-1.14178e-05
8.17853e-06
-1.15478e-05
1.07529e-05
-7.63853e-06
2.78372e-06
8.04967e-06
4.53013e-06
6.73068e-06
4.26821e-06
4.25037e-06
3.35571e-06
2.26517e-06
2.79676e-06
1.50663e-06
2.08958e-06
2.00748e-06
1.6594e-06
1.21095e-06
1.36926e-06
8.09523e-07
1.16e-06
5.80794e-07
1.00153e-06
4.38398e-07
8.77014e-07
3.43753e-07
7.76303e-07
2.77647e-07
6.92916e-07
2.29657e-07
6.22523e-07
1.9373e-07
5.62116e-07
1.66152e-07
5.09544e-07
1.4454e-07
4.63223e-07
1.2731e-07
4.21962e-07
1.1337e-07
3.84849e-07
1.01952e-07
3.51169e-07
9.2501e-08
3.20359e-07
8.46087e-08
2.91962e-07
7.79689e-08
2.65609e-07
7.23489e-08
2.40995e-07
6.75696e-08
2.17865e-07
6.3491e-08
1.96003e-07
6.00033e-08
1.75228e-07
5.70191e-08
1.55381e-07
5.44688e-08
1.36325e-07
5.22963e-08
1.17938e-07
5.04566e-08
1.00113e-07
4.89136e-08
8.27524e-08
4.7638e-08
6.57673e-08
4.66068e-08
4.90753e-08
4.58019e-08
3.25988e-08
4.52097e-08
1.62643e-08
4.48202e-08
4.4627e-08
-1.78258e-08
6.24527e-08
-3.57284e-08
6.27228e-08
-5.37862e-08
6.32675e-08
-7.20799e-08
6.40956e-08
-9.0694e-08
6.52209e-08
-1.09719e-07
6.66626e-08
-1.29251e-07
6.8446e-08
-1.49398e-07
7.06032e-08
-1.70276e-07
7.31749e-08
-1.92019e-07
7.62116e-08
-2.14776e-07
7.97762e-08
-2.3872e-07
8.39467e-08
-2.64049e-07
8.88204e-08
-2.90998e-07
9.45189e-08
-3.19845e-07
1.01196e-07
-3.50921e-07
1.09045e-07
-3.84629e-07
1.18317e-07
-4.21462e-07
1.29334e-07
-4.62034e-07
1.42524e-07
-5.07116e-07
1.58452e-07
-5.57696e-07
1.7789e-07
-6.15057e-07
2.01902e-07
-6.80902e-07
2.31997e-07
-7.57538e-07
2.70365e-07
-8.48169e-07
3.20288e-07
-9.57385e-07
3.86863e-07
-1.09199e-06
4.78361e-07
-1.26252e-06
6.08927e-07
-1.48612e-06
8.04387e-07
-1.79247e-06
1.11587e-06
-2.23714e-06
1.65562e-06
-2.93593e-06
2.70628e-06
-3.41657e-06
1.98727e-06
-3.99039e-06
2.839e-06
-4.11178e-06
4.37176e-06
-3.56544e-06
6.18435e-06
-3.48826e-06
7.97248e-06
-8.25449e-06
-2.8723e-06
-3.73047e-06
-1.60719e-05
-4.39812e-19
-1.51482e-05
3.73047e-06
-1.51482e-05
8.25449e-06
-1.60719e-05
3.48826e-06
-2.8723e-06
3.56544e-06
7.97248e-06
4.11178e-06
6.18435e-06
3.99039e-06
4.37176e-06
3.41657e-06
2.839e-06
2.93593e-06
1.98727e-06
2.23714e-06
2.70628e-06
1.79247e-06
1.65562e-06
1.48612e-06
1.11587e-06
1.26252e-06
8.04387e-07
1.09199e-06
6.08927e-07
9.57385e-07
4.78361e-07
8.48169e-07
3.86863e-07
7.57538e-07
3.20288e-07
6.80902e-07
2.70365e-07
6.15057e-07
2.31997e-07
5.57696e-07
2.01902e-07
5.07116e-07
1.7789e-07
4.62034e-07
1.58452e-07
4.21462e-07
1.42524e-07
3.84629e-07
1.29334e-07
3.50921e-07
1.18317e-07
3.19845e-07
1.09045e-07
2.90998e-07
1.01196e-07
2.64049e-07
9.45189e-08
2.3872e-07
8.88204e-08
2.14776e-07
8.39467e-08
1.92019e-07
7.97762e-08
1.70276e-07
7.62116e-08
1.49398e-07
7.31749e-08
1.29251e-07
7.06032e-08
1.09719e-07
6.8446e-08
9.0694e-08
6.66626e-08
7.20799e-08
6.52209e-08
5.37862e-08
6.40956e-08
3.57284e-08
6.32675e-08
1.78258e-08
6.27228e-08
6.24527e-08
-1.95294e-08
8.19821e-08
-3.91428e-08
8.23362e-08
-5.89256e-08
8.30503e-08
-7.89659e-08
8.41359e-08
-9.93562e-08
8.56111e-08
-1.20195e-07
8.75011e-08
-1.41587e-07
8.98387e-08
-1.6365e-07
9.26662e-08
-1.86512e-07
9.60366e-08
-2.10316e-07
1.00016e-07
-2.35227e-07
1.04687e-07
-2.6143e-07
1.1015e-07
-2.89144e-07
1.16534e-07
-3.18622e-07
1.23997e-07
-3.50164e-07
1.32738e-07
-3.84132e-07
1.43012e-07
-4.20959e-07
1.55144e-07
-4.61179e-07
1.69554e-07
-5.05453e-07
1.86797e-07
-5.5461e-07
2.07609e-07
-6.09708e-07
2.32988e-07
-6.72121e-07
2.64314e-07
-7.43657e-07
3.03533e-07
-8.26756e-07
3.53464e-07
-9.24785e-07
4.18317e-07
-1.04251e-06
5.04593e-07
-1.18692e-06
6.2277e-07
-1.3686e-06
7.906e-07
-1.60424e-06
1.04003e-06
-1.92137e-06
1.43301e-06
-2.36683e-06
2.10108e-06
-3.01802e-06
3.35747e-06
-3.39068e-06
2.35993e-06
-3.73485e-06
3.18317e-06
-3.7508e-06
4.38771e-06
-3.30207e-06
5.73561e-06
-2.13348e-06
6.8039e-06
-6.00069e-06
9.94915e-07
-2.93913e-06
-1.91334e-05
-1.8907e-18
-1.80874e-05
2.93913e-06
-1.80874e-05
6.00069e-06
-1.91334e-05
2.13348e-06
9.94915e-07
3.30207e-06
6.8039e-06
3.7508e-06
5.73561e-06
3.73485e-06
4.38771e-06
3.39068e-06
3.18317e-06
3.01802e-06
2.35993e-06
2.36683e-06
3.35747e-06
1.92137e-06
2.10108e-06
1.60424e-06
1.43301e-06
1.3686e-06
1.04003e-06
1.18692e-06
7.906e-07
1.04251e-06
6.2277e-07
9.24785e-07
5.04593e-07
8.26756e-07
4.18317e-07
7.43657e-07
3.53464e-07
6.72121e-07
3.03533e-07
6.09708e-07
2.64314e-07
5.5461e-07
2.32988e-07
5.05453e-07
2.07609e-07
4.61179e-07
1.86797e-07
4.20959e-07
1.69554e-07
3.84132e-07
1.55144e-07
3.50164e-07
1.43012e-07
3.18622e-07
1.32738e-07
2.89144e-07
1.23997e-07
2.6143e-07
1.16534e-07
2.35227e-07
1.1015e-07
2.10316e-07
1.04687e-07
1.86512e-07
1.00016e-07
1.6365e-07
9.60366e-08
1.41587e-07
9.26662e-08
1.20195e-07
8.98387e-08
9.93562e-08
8.75011e-08
7.89659e-08
8.56111e-08
5.89256e-08
8.41359e-08
3.91428e-08
8.30503e-08
1.95294e-08
8.23362e-08
8.19821e-08
-2.13851e-08
1.03367e-07
-4.28617e-08
1.03813e-07
-6.4523e-08
1.04712e-07
-8.6465e-08
1.06078e-07
-1.08788e-07
1.07934e-07
-1.316e-07
1.10313e-07
-1.55015e-07
1.13254e-07
-1.7916e-07
1.16811e-07
-2.04175e-07
1.21051e-07
-2.30216e-07
1.26057e-07
-2.57459e-07
1.3193e-07
-2.86108e-07
1.38799e-07
-3.16398e-07
1.46824e-07
-3.48602e-07
1.56201e-07
-3.83047e-07
1.67182e-07
-4.20118e-07
1.80083e-07
-4.60284e-07
1.9531e-07
-5.04117e-07
2.13387e-07
-5.52322e-07
2.35002e-07
-6.05784e-07
2.61071e-07
-6.65626e-07
2.9283e-07
-7.33296e-07
3.31984e-07
-8.10692e-07
3.80929e-07
-9.00353e-07
4.43125e-07
-1.00574e-06
5.23705e-07
-1.13169e-06
6.30546e-07
-1.28515e-06
7.76221e-07
-1.47629e-06
9.81742e-07
-1.72046e-06
1.28421e-06
-2.04092e-06
1.75346e-06
-2.47096e-06
2.53113e-06
-3.04121e-06
3.92771e-06
-3.30421e-06
2.62293e-06
-3.48961e-06
3.36858e-06
-3.43487e-06
4.33296e-06
-3.08007e-06
5.3808e-06
-2.57931e-06
6.30315e-06
-3.6413e-06
2.0569e-06
-1.98558e-06
-2.07891e-05
-4.07131e-18
-2.0073e-05
1.98558e-06
-2.0073e-05
3.6413e-06
-2.07891e-05
2.57931e-06
2.0569e-06
3.08007e-06
6.30315e-06
3.43487e-06
5.3808e-06
3.48961e-06
4.33296e-06
3.30421e-06
3.36858e-06
3.04121e-06
2.62293e-06
2.47096e-06
3.92771e-06
2.04092e-06
2.53113e-06
1.72046e-06
1.75346e-06
1.47629e-06
1.28421e-06
1.28515e-06
9.81742e-07
1.13169e-06
7.76221e-07
1.00574e-06
6.30546e-07
9.00353e-07
5.23705e-07
8.10692e-07
4.43125e-07
7.33296e-07
3.80929e-07
6.65626e-07
3.31984e-07
6.05784e-07
2.9283e-07
5.52322e-07
2.61071e-07
5.04117e-07
2.35002e-07
4.60284e-07
2.13387e-07
4.20118e-07
1.9531e-07
3.83047e-07
1.80083e-07
3.48602e-07
1.67182e-07
3.16398e-07
1.56201e-07
2.86108e-07
1.46824e-07
2.57459e-07
1.38799e-07
2.30216e-07
1.3193e-07
2.04175e-07
1.26057e-07
1.7916e-07
1.21051e-07
1.55015e-07
1.16811e-07
1.316e-07
1.13254e-07
1.08788e-07
1.10313e-07
8.6465e-08
1.07934e-07
6.4523e-08
1.06078e-07
4.28617e-08
1.04712e-07
2.13851e-08
1.03813e-07
1.03367e-07
-2.34023e-08
1.26769e-07
-4.69042e-08
1.27315e-07
-7.06069e-08
1.28414e-07
-9.46147e-08
1.30086e-07
-1.19037e-07
1.32357e-07
-1.4399e-07
1.35266e-07
-1.69599e-07
1.38863e-07
-1.96e-07
1.43213e-07
-2.23345e-07
1.48396e-07
-2.51803e-07
1.54514e-07
-2.81565e-07
1.61692e-07
-3.1285e-07
1.70084e-07
-3.4591e-07
1.79884e-07
-3.81041e-07
1.91332e-07
-4.18591e-07
2.04732e-07
-4.58973e-07
2.20466e-07
-5.02687e-07
2.39024e-07
-5.5034e-07
2.6104e-07
-6.02679e-07
2.87342e-07
-6.60637e-07
3.19029e-07
-7.25387e-07
3.57581e-07
-7.98437e-07
4.05033e-07
-8.81741e-07
4.64233e-07
-9.77882e-07
5.39266e-07
-1.09033e-06
6.36153e-07
-1.22383e-06
7.64046e-07
-1.38497e-06
9.37364e-07
-1.58302e-06
1.17978e-06
-1.83086e-06
1.53205e-06
-2.14543e-06
2.06803e-06
-2.54301e-06
2.92871e-06
-3.00846e-06
4.39317e-06
-3.1722e-06
2.78666e-06
-3.24297e-06
3.43935e-06
-3.13235e-06
4.22234e-06
-2.81708e-06
5.06554e-06
-2.40522e-06
5.89128e-06
-2.52232e-06
2.174e-06
-1.41415e-06
-2.18973e-05
-4.54331e-18
-2.14871e-05
1.41415e-06
-2.14871e-05
2.52232e-06
-2.18973e-05
2.40522e-06
2.174e-06
2.81708e-06
5.89128e-06
3.13235e-06
5.06554e-06
3.24297e-06
4.22234e-06
3.1722e-06
3.43935e-06
3.00846e-06
2.78666e-06
2.54301e-06
4.39317e-06
2.14543e-06
2.92871e-06
1.83086e-06
2.06803e-06
1.58302e-06
1.53205e-06
1.38497e-06
1.17978e-06
1.22383e-06
9.37364e-07
1.09033e-06
7.64046e-07
9.77882e-07
6.36153e-07
8.81741e-07
5.39266e-07
7.98437e-07
4.64233e-07
7.25387e-07
4.05033e-07
6.60637e-07
3.57581e-07
6.02679e-07
3.19029e-07
5.5034e-07
2.87342e-07
5.02687e-07
2.6104e-07
4.58973e-07
2.39024e-07
4.18591e-07
2.20466e-07
3.81041e-07
2.04732e-07
3.4591e-07
1.91332e-07
3.1285e-07
1.79884e-07
2.81565e-07
1.70084e-07
2.51803e-07
1.61692e-07
2.23345e-07
1.54514e-07
1.96e-07
1.48396e-07
1.69599e-07
1.43213e-07
1.4399e-07
1.38863e-07
1.19037e-07
1.35266e-07
9.46147e-08
1.32357e-07
7.06069e-08
1.30086e-07
4.69042e-08
1.28414e-07
2.34023e-08
1.27315e-07
1.26769e-07
-2.55897e-08
1.52359e-07
-5.12874e-08
1.53012e-07
-7.72027e-08
1.5433e-07
-1.03449e-07
1.56332e-07
-1.30144e-07
1.59052e-07
-1.57414e-07
1.62535e-07
-1.85393e-07
1.66843e-07
-2.14231e-07
1.7205e-07
-2.44089e-07
1.78255e-07
-2.7515e-07
1.85575e-07
-3.07619e-07
1.94161e-07
-3.4173e-07
2.04196e-07
-3.77754e-07
2.15908e-07
-4.16006e-07
2.29584e-07
-4.56854e-07
2.45581e-07
-5.0074e-07
2.64351e-07
-5.48188e-07
2.86473e-07
-5.99838e-07
3.1269e-07
-6.5647e-07
3.43973e-07
-7.1905e-07
3.81609e-07
-7.88789e-07
4.2732e-07
-8.67219e-07
4.83464e-07
-9.56308e-07
5.53322e-07
-1.05861e-06
6.41568e-07
-1.17748e-06
7.55024e-07
-1.31736e-06
9.0393e-07
-1.48416e-06
1.10416e-06
-1.68555e-06
1.38118e-06
-1.93094e-06
1.77744e-06
-2.22919e-06
2.36628e-06
-2.57831e-06
3.27782e-06
-2.92546e-06
4.74033e-06
-3.00342e-06
2.86462e-06
-2.98605e-06
3.42198e-06
-2.8208e-06
4.05709e-06
-2.4867e-06
4.73144e-06
-2.00244e-06
5.40701e-06
-1.80843e-06
1.97999e-06
-1.04349e-06
-2.26622e-05
-2.30258e-18
-2.25306e-05
1.04349e-06
-2.25306e-05
1.80843e-06
-2.26622e-05
2.00244e-06
1.97999e-06
2.4867e-06
5.40701e-06
2.8208e-06
4.73144e-06
2.98605e-06
4.05709e-06
3.00342e-06
3.42198e-06
2.92546e-06
2.86462e-06
2.57831e-06
4.74033e-06
2.22919e-06
3.27782e-06
1.93094e-06
2.36628e-06
1.68555e-06
1.77744e-06
1.48416e-06
1.38118e-06
1.31736e-06
1.10416e-06
1.17748e-06
9.0393e-07
1.05861e-06
7.55024e-07
9.56308e-07
6.41568e-07
8.67219e-07
5.53322e-07
7.88789e-07
4.83464e-07
7.1905e-07
4.2732e-07
6.5647e-07
3.81609e-07
5.99838e-07
3.43973e-07
5.48188e-07
3.1269e-07
5.0074e-07
2.86473e-07
4.56854e-07
2.64351e-07
4.16006e-07
2.45581e-07
3.77754e-07
2.29584e-07
3.4173e-07
2.15908e-07
3.07619e-07
2.04196e-07
2.7515e-07
1.94161e-07
2.44089e-07
1.85575e-07
2.14231e-07
1.78255e-07
1.85393e-07
1.7205e-07
1.57414e-07
1.66843e-07
1.30144e-07
1.62535e-07
1.03449e-07
1.59052e-07
7.72027e-08
1.56332e-07
5.12874e-08
1.5433e-07
2.55897e-08
1.53012e-07
1.52359e-07
-2.79542e-08
1.80313e-07
-5.60251e-08
1.81083e-07
-8.43309e-08
1.82635e-07
-1.12994e-07
1.84994e-07
-1.42141e-07
1.88199e-07
-1.71909e-07
1.92303e-07
-2.02442e-07
1.97376e-07
-2.33899e-07
2.03508e-07
-2.66455e-07
2.1081e-07
-3.00304e-07
2.19424e-07
-3.35665e-07
2.29522e-07
-3.72789e-07
2.41319e-07
-4.1196e-07
2.5508e-07
-4.53513e-07
2.71137e-07
-4.97837e-07
2.89904e-07
-5.45391e-07
3.11905e-07
-5.96724e-07
3.37806e-07
-6.52497e-07
3.68462e-07
-7.13511e-07
4.04988e-07
-7.80751e-07
4.48849e-07
-8.55435e-07
5.02003e-07
-9.39083e-07
5.67112e-07
-1.03361e-06
6.47851e-07
-1.14145e-06
7.49408e-07
-1.26569e-06
8.79261e-07
-1.41022e-06
1.04846e-06
-1.57986e-06
1.27379e-06
-1.7801e-06
1.58142e-06
-2.01587e-06
2.01322e-06
-2.28709e-06
2.6375e-06
-2.57454e-06
3.56527e-06
-2.79965e-06
4.96544e-06
-2.80531e-06
2.87028e-06
-2.71805e-06
3.33472e-06
-2.50239e-06
3.84144e-06
-2.13429e-06
4.36333e-06
-1.59451e-06
4.86724e-06
-1.3049e-06
1.69038e-06
-7.65458e-07
-2.32017e-05
3.21873e-20
-2.32961e-05
7.65458e-07
-2.32961e-05
1.3049e-06
-2.32017e-05
1.59451e-06
1.69038e-06
2.13429e-06
4.86724e-06
2.50239e-06
4.36333e-06
2.71805e-06
3.84144e-06
2.80531e-06
3.33472e-06
2.79965e-06
2.87028e-06
2.57454e-06
4.96544e-06
2.28709e-06
3.56527e-06
2.01587e-06
2.6375e-06
1.7801e-06
2.01322e-06
1.57986e-06
1.58142e-06
1.41022e-06
1.27379e-06
1.26569e-06
1.04846e-06
1.14145e-06
8.79261e-07
1.03361e-06
7.49408e-07
9.39083e-07
6.47851e-07
8.55435e-07
5.67112e-07
7.80751e-07
5.02003e-07
7.13511e-07
4.48849e-07
6.52497e-07
4.04988e-07
5.96724e-07
3.68462e-07
5.45391e-07
3.37806e-07
4.97837e-07
3.11905e-07
4.53513e-07
2.89904e-07
4.1196e-07
2.71137e-07
3.72789e-07
2.5508e-07
3.35665e-07
2.41319e-07
3.00304e-07
2.29522e-07
2.66455e-07
2.19424e-07
2.33899e-07
2.1081e-07
2.02442e-07
2.03508e-07
1.71909e-07
1.97376e-07
1.42141e-07
1.92303e-07
1.12994e-07
1.88199e-07
8.43309e-08
1.84994e-07
5.60251e-08
1.82635e-07
2.79542e-08
1.81083e-07
1.80313e-07
-3.05004e-08
2.10814e-07
-6.11262e-08
2.11709e-07
-9.20045e-08
2.13514e-07
-1.23266e-07
2.16256e-07
-1.55049e-07
2.19982e-07
-1.87496e-07
2.24751e-07
-2.20765e-07
2.30645e-07
-2.55024e-07
2.37766e-07
-2.90459e-07
2.46245e-07
-3.27276e-07
2.56241e-07
-3.65707e-07
2.67953e-07
-4.06015e-07
2.81627e-07
-4.48501e-07
2.97566e-07
-4.93513e-07
3.16148e-07
-5.41454e-07
3.37845e-07
-5.92799e-07
3.6325e-07
-6.48111e-07
3.93118e-07
-7.08061e-07
4.28412e-07
-7.73454e-07
4.70381e-07
-8.45267e-07
5.20662e-07
-9.2469e-07
5.81426e-07
-1.01318e-06
6.55601e-07
-1.11252e-06
7.47194e-07
-1.2249e-06
8.6179e-07
-1.35297e-06
1.00732e-06
-1.4998e-06
1.19529e-06
-1.66871e-06
1.4427e-06
-1.86244e-06
1.77515e-06
-2.08092e-06
2.2317e-06
-2.31514e-06
2.87172e-06
-2.53195e-06
3.78207e-06
-2.63989e-06
5.07338e-06
-2.58682e-06
2.81721e-06
-2.44649e-06
3.19438e-06
-2.19393e-06
3.58888e-06
-1.80876e-06
3.97816e-06
-1.27287e-06
4.33134e-06
-9.59308e-07
1.37682e-06
-5.64921e-07
-2.35961e-05
-2.70881e-18
-2.3861e-05
5.64921e-07
-2.3861e-05
9.59308e-07
-2.35961e-05
1.27287e-06
1.37682e-06
1.80876e-06
4.33134e-06
2.19393e-06
3.97816e-06
2.44649e-06
3.58888e-06
2.58682e-06
3.19438e-06
2.63989e-06
2.81721e-06
2.53195e-06
5.07338e-06
2.31514e-06
3.78207e-06
2.08092e-06
2.87172e-06
1.86244e-06
2.2317e-06
1.66871e-06
1.77515e-06
1.4998e-06
1.4427e-06
1.35297e-06
1.19529e-06
1.2249e-06
1.00732e-06
1.11252e-06
8.6179e-07
1.01318e-06
7.47194e-07
9.2469e-07
6.55601e-07
8.45267e-07
5.81426e-07
7.73454e-07
5.20662e-07
7.08061e-07
4.70381e-07
6.48111e-07
4.28412e-07
5.92799e-07
3.93118e-07
5.41454e-07
3.6325e-07
4.93513e-07
3.37845e-07
4.48501e-07
3.16148e-07
4.06015e-07
2.97566e-07
3.65707e-07
2.81627e-07
3.27276e-07
2.67953e-07
2.90459e-07
2.56241e-07
2.55024e-07
2.46245e-07
2.20765e-07
2.37766e-07
1.87496e-07
2.30645e-07
1.55049e-07
2.24751e-07
1.23266e-07
2.19982e-07
9.20045e-08
2.16256e-07
6.11262e-08
2.13514e-07
3.05004e-08
2.11709e-07
2.10814e-07
-3.32291e-08
2.44043e-07
-6.65922e-08
2.45072e-07
-1.00225e-07
2.47146e-07
-1.34267e-07
2.50299e-07
-1.68865e-07
2.54579e-07
-2.04173e-07
2.60058e-07
-2.40355e-07
2.66827e-07
-2.7759e-07
2.75002e-07
-3.16075e-07
2.8473e-07
-3.56027e-07
2.96193e-07
-3.97687e-07
3.09614e-07
-4.41331e-07
3.2527e-07
-4.87268e-07
3.43503e-07
-5.35856e-07
3.64737e-07
-5.87509e-07
3.89498e-07
-6.42707e-07
4.18449e-07
-7.02014e-07
4.52425e-07
-7.66094e-07
4.92492e-07
-8.35734e-07
5.40022e-07
-9.11872e-07
5.96799e-07
-9.95622e-07
6.65176e-07
-1.08831e-06
7.4829e-07
-1.1915e-06
8.50387e-07
-1.30701e-06
9.77296e-07
-1.43683e-06
1.13715e-06
-1.58297e-06
1.34144e-06
-1.74691e-06
1.60664e-06
-1.92828e-06
1.95653e-06
-2.12191e-06
2.42532e-06
-2.31101e-06
3.06082e-06
-2.45327e-06
3.92434e-06
-2.45613e-06
5.07623e-06
-2.35845e-06
2.71954e-06
-2.18253e-06
3.01846e-06
-1.91215e-06
3.3185e-06
-1.53514e-06
3.60115e-06
-1.04554e-06
3.84174e-06
-7.34039e-07
1.06532e-06
-4.33263e-07
-2.38968e-05
1.87664e-18
-2.42942e-05
4.33263e-07
-2.42942e-05
7.34039e-07
-2.38968e-05
1.04554e-06
1.06532e-06
1.53514e-06
3.84174e-06
1.91215e-06
3.60115e-06
2.18253e-06
3.3185e-06
2.35845e-06
3.01846e-06
2.45613e-06
2.71954e-06
2.45327e-06
5.07623e-06
2.31101e-06
3.92434e-06
2.12191e-06
3.06082e-06
1.92828e-06
2.42532e-06
1.74691e-06
1.95653e-06
1.58297e-06
1.60664e-06
1.43683e-06
1.34144e-06
1.30701e-06
1.13715e-06
1.1915e-06
9.77296e-07
1.08831e-06
8.50387e-07
9.95622e-07
7.4829e-07
9.11872e-07
6.65176e-07
8.35734e-07
5.96799e-07
7.66094e-07
5.40022e-07
7.02014e-07
4.92492e-07
6.42707e-07
4.52425e-07
5.87509e-07
4.18449e-07
5.35856e-07
3.89498e-07
4.87268e-07
3.64737e-07
4.41331e-07
3.43503e-07
3.97687e-07
3.2527e-07
3.56027e-07
3.09614e-07
3.16075e-07
2.96193e-07
2.7759e-07
2.8473e-07
2.40355e-07
2.75002e-07
2.04173e-07
2.66827e-07
1.68865e-07
2.60058e-07
1.34267e-07
2.54579e-07
1.00225e-07
2.50299e-07
6.65922e-08
2.47146e-07
3.32291e-08
2.45072e-07
2.44043e-07
-3.61361e-08
2.80179e-07
-7.24141e-08
2.8135e-07
-1.08978e-07
2.83711e-07
-1.45976e-07
2.87297e-07
-1.83563e-07
2.92166e-07
-2.219e-07
2.98395e-07
-2.61161e-07
3.06088e-07
-3.01533e-07
3.15374e-07
-3.43221e-07
3.26418e-07
-3.8645e-07
3.39422e-07
-4.3147e-07
3.54634e-07
-4.78562e-07
3.72362e-07
-5.28042e-07
3.92983e-07
-5.8027e-07
4.16965e-07
-6.3566e-07
4.44888e-07
-6.94687e-07
4.77475e-07
-7.57899e-07
5.15636e-07
-8.25932e-07
5.60525e-07
-8.99525e-07
6.13615e-07
-9.79535e-07
6.76809e-07
-1.06695e-06
7.52589e-07
-1.16289e-06
8.44227e-07
-1.26858e-06
9.56085e-07
-1.38534e-06
1.09405e-06
-1.51432e-06
1.26613e-06
-1.65623e-06
1.48335e-06
-1.81049e-06
1.76089e-06
-1.97356e-06
2.1196e-06
-2.13564e-06
2.5874e-06
-2.27426e-06
3.19943e-06
-2.3433e-06
3.99338e-06
-2.25837e-06
4.9913e-06
-2.13027e-06
2.59144e-06
-1.93562e-06
2.82382e-06
-1.6656e-06
3.04848e-06
-1.3159e-06
3.25145e-06
-8.89457e-07
3.4153e-06
-5.94381e-07
7.70244e-07
-3.55683e-07
-2.41355e-05
3.14302e-18
-2.46499e-05
3.55683e-07
-2.46499e-05
5.94381e-07
-2.41355e-05
8.89457e-07
7.70244e-07
1.3159e-06
3.4153e-06
1.6656e-06
3.25145e-06
1.93562e-06
3.04848e-06
2.13027e-06
2.82382e-06
2.25837e-06
2.59144e-06
2.3433e-06
4.9913e-06
2.27426e-06
3.99338e-06
2.13564e-06
3.19943e-06
1.97356e-06
2.5874e-06
1.81049e-06
2.1196e-06
1.65623e-06
1.76089e-06
1.51432e-06
1.48335e-06
1.38534e-06
1.26613e-06
1.26858e-06
1.09405e-06
1.16289e-06
9.56085e-07
1.06695e-06
8.44227e-07
9.79535e-07
7.52589e-07
8.99525e-07
6.76809e-07
8.25932e-07
6.13615e-07
7.57899e-07
5.60525e-07
6.94687e-07
5.15636e-07
6.3566e-07
4.77475e-07
5.8027e-07
4.44888e-07
5.28042e-07
4.16965e-07
4.78562e-07
3.92983e-07
4.3147e-07
3.72362e-07
3.8645e-07
3.54634e-07
3.43221e-07
3.39422e-07
3.01533e-07
3.26418e-07
2.61161e-07
3.15374e-07
2.219e-07
3.06088e-07
1.83563e-07
2.98395e-07
1.45976e-07
2.92166e-07
1.08978e-07
2.87297e-07
7.24141e-08
2.83711e-07
3.61361e-08
2.8135e-07
2.80179e-07
-3.92099e-08
3.19389e-07
-7.8569e-08
3.20709e-07
-1.18228e-07
3.2337e-07
-1.58344e-07
3.27412e-07
-1.99075e-07
3.32897e-07
-2.40593e-07
3.39913e-07
-2.83077e-07
3.48572e-07
-3.26721e-07
3.59018e-07
-3.71734e-07
3.71432e-07
-4.18347e-07
3.86035e-07
-4.66813e-07
4.031e-07
-5.17414e-07
4.22963e-07
-5.70465e-07
4.46034e-07
-6.26321e-07
4.72821e-07
-6.85381e-07
5.03949e-07
-7.481e-07
5.40194e-07
-8.1499e-07
5.82527e-07
-8.86634e-07
6.32169e-07
-9.63686e-07
6.90667e-07
-1.04688e-06
7.59999e-07
-1.137e-06
8.42711e-07
-1.23488e-06
9.42114e-07
-1.34134e-06
1.06254e-06
-1.45701e-06
1.20972e-06
-1.58211e-06
1.39122e-06
-1.71587e-06
1.61711e-06
-1.8556e-06
1.90063e-06
-1.99487e-06
2.25887e-06
-2.12029e-06
2.71281e-06
-2.20631e-06
3.28545e-06
-2.208e-06
3.99508e-06
-2.0552e-06
4.8385e-06
-1.90956e-06
2.4458e-06
-1.71024e-06
2.62449e-06
-1.45395e-06
2.7922e-06
-1.14174e-06
2.93923e-06
-7.80805e-07
3.05436e-06
-5.09632e-07
4.99071e-07
-3.16534e-07
-2.43286e-05
-1.26339e-18
-2.49665e-05
3.16534e-07
-2.49665e-05
5.09632e-07
-2.43286e-05
7.80805e-07
4.99071e-07
1.14174e-06
3.05436e-06
1.45395e-06
2.93923e-06
1.71024e-06
2.7922e-06
1.90956e-06
2.62449e-06
2.0552e-06
2.4458e-06
2.208e-06
4.8385e-06
2.20631e-06
3.99508e-06
2.12029e-06
3.28545e-06
1.99487e-06
2.71281e-06
1.8556e-06
2.25887e-06
1.71587e-06
1.90063e-06
1.58211e-06
1.61711e-06
1.45701e-06
1.39122e-06
1.34134e-06
1.20972e-06
1.23488e-06
1.06254e-06
1.137e-06
9.42114e-07
1.04688e-06
8.42711e-07
9.63686e-07
7.59999e-07
8.86634e-07
6.90667e-07
8.1499e-07
6.32169e-07
7.481e-07
5.82527e-07
6.85381e-07
5.40194e-07
6.26321e-07
5.03949e-07
5.70465e-07
4.72821e-07
5.17414e-07
4.46034e-07
4.66813e-07
4.22963e-07
4.18347e-07
4.031e-07
3.71734e-07
3.86035e-07
3.26721e-07
3.71432e-07
2.83077e-07
3.59018e-07
2.40593e-07
3.48572e-07
1.99075e-07
3.39913e-07
1.58344e-07
3.32897e-07
1.18228e-07
3.27412e-07
7.8569e-08
3.2337e-07
3.92099e-08
3.20709e-07
3.19389e-07
-4.24298e-08
3.61819e-07
-8.50146e-08
3.63294e-07
-1.27911e-07
3.66267e-07
-1.7128e-07
3.70781e-07
-2.15288e-07
3.76905e-07
-2.60108e-07
3.84733e-07
-3.05925e-07
3.94389e-07
-3.52936e-07
4.06029e-07
-4.01351e-07
4.19848e-07
-4.51403e-07
4.36086e-07
-5.0334e-07
4.55037e-07
-5.57439e-07
4.77062e-07
-6.14005e-07
5.026e-07
-6.73373e-07
5.3219e-07
-7.35918e-07
5.66493e-07
-8.02051e-07
6.06327e-07
-8.72227e-07
6.52703e-07
-9.46941e-07
7.06883e-07
-1.02672e-06
7.70449e-07
-1.11212e-06
8.454e-07
-1.20368e-06
9.34271e-07
-1.30187e-06
1.0403e-06
-1.40696e-06
1.16763e-06
-1.51884e-06
1.3216e-06
-1.63667e-06
1.50905e-06
-1.75822e-06
1.73866e-06
-1.87886e-06
2.02127e-06
-1.98982e-06
2.36984e-06
-2.07556e-06
2.79855e-06
-2.1101e-06
3.31999e-06
-2.05353e-06
3.93851e-06
-1.85244e-06
4.6374e-06
-1.69947e-06
2.29284e-06
-1.50514e-06
2.43016e-06
-1.26972e-06
2.55678e-06
-9.97107e-07
2.66662e-06
-6.95847e-07
2.7531e-06
-4.54025e-07
2.57249e-07
-3.02865e-07
-2.44798e-05
-2.96261e-18
-2.52693e-05
3.02865e-07
-2.52693e-05
4.54025e-07
-2.44798e-05
6.95847e-07
2.57249e-07
9.97107e-07
2.7531e-06
1.26972e-06
2.66662e-06
1.50514e-06
2.55678e-06
1.69947e-06
2.43016e-06
1.85244e-06
2.29284e-06
2.05353e-06
4.6374e-06
2.1101e-06
3.93851e-06
2.07556e-06
3.31999e-06
1.98982e-06
2.79855e-06
1.87886e-06
2.36984e-06
1.75822e-06
2.02127e-06
1.63667e-06
1.73866e-06
1.51884e-06
1.50905e-06
1.40696e-06
1.3216e-06
1.30187e-06
1.16763e-06
1.20368e-06
1.0403e-06
1.11212e-06
9.34271e-07
1.02672e-06
8.454e-07
9.46941e-07
7.70449e-07
8.72227e-07
7.06883e-07
8.02051e-07
6.52703e-07
7.35918e-07
6.06327e-07
6.73373e-07
5.66493e-07
6.14005e-07
5.3219e-07
5.57439e-07
5.026e-07
5.0334e-07
4.77062e-07
4.51403e-07
4.55037e-07
4.01351e-07
4.36086e-07
3.52936e-07
4.19848e-07
3.05925e-07
4.06029e-07
2.60108e-07
3.94389e-07
2.15288e-07
3.84733e-07
1.7128e-07
3.76905e-07
1.27911e-07
3.70781e-07
8.50146e-08
3.66267e-07
4.24298e-08
3.63294e-07
3.61819e-07
-4.57632e-08
4.07582e-07
-9.16848e-08
4.09216e-07
-1.37925e-07
4.12507e-07
-1.84647e-07
4.17503e-07
-2.32021e-07
4.24278e-07
-2.80221e-07
4.32933e-07
-3.29432e-07
4.436e-07
-3.7985e-07
4.56447e-07
-4.31683e-07
4.71681e-07
-4.85155e-07
4.89558e-07
-5.40507e-07
5.10389e-07
-5.97999e-07
5.34554e-07
-6.57913e-07
5.62514e-07
-7.20554e-07
5.94831e-07
-7.8625e-07
6.32189e-07
-8.5535e-07
6.75427e-07
-9.28221e-07
7.25574e-07
-1.00524e-06
7.839e-07
-1.08677e-06
8.51977e-07
-1.17312e-06
9.31759e-07
-1.26454e-06
1.02568e-06
-1.36104e-06
1.1368e-06
-1.46231e-06
1.2689e-06
-1.56744e-06
1.42674e-06
-1.67453e-06
1.61613e-06
-1.78001e-06
1.84414e-06
-1.87769e-06
2.11895e-06
-1.9573e-06
2.44945e-06
-2.00262e-06
2.84387e-06
-1.98951e-06
3.30688e-06
-1.88526e-06
3.83426e-06
-1.65253e-06
4.40466e-06
-1.49884e-06
2.13915e-06
-1.31418e-06
2.2455e-06
-1.10057e-06
2.34316e-06
-8.62707e-07
2.42876e-06
-6.08449e-07
2.49884e-06
-4.06513e-07
5.53126e-08
-3.0568e-07
-2.45806e-05
-2.59672e-18
-2.5575e-05
3.0568e-07
-2.5575e-05
4.06513e-07
-2.45806e-05
6.08449e-07
5.53126e-08
8.62707e-07
2.49884e-06
1.10057e-06
2.42876e-06
1.31418e-06
2.34316e-06
1.49884e-06
2.2455e-06
1.65253e-06
2.13915e-06
1.88526e-06
4.40466e-06
1.98951e-06
3.83426e-06
2.00262e-06
3.30688e-06
1.9573e-06
2.84387e-06
1.87769e-06
2.44945e-06
1.78001e-06
2.11895e-06
1.67453e-06
1.84414e-06
1.56744e-06
1.61613e-06
1.46231e-06
1.42674e-06
1.36104e-06
1.2689e-06
1.26454e-06
1.1368e-06
1.17312e-06
1.02568e-06
1.08677e-06
9.31759e-07
1.00524e-06
8.51977e-07
9.28221e-07
7.839e-07
8.5535e-07
7.25574e-07
7.8625e-07
6.75427e-07
7.20554e-07
6.32189e-07
6.57913e-07
5.94831e-07
5.97999e-07
5.62514e-07
5.40507e-07
5.34554e-07
4.85155e-07
5.10389e-07
4.31683e-07
4.89558e-07
3.7985e-07
4.71681e-07
3.29432e-07
4.56447e-07
2.80221e-07
4.436e-07
2.32021e-07
4.32933e-07
1.84647e-07
4.24278e-07
1.37925e-07
4.17503e-07
9.16848e-08
4.12507e-07
4.57632e-08
4.09216e-07
4.07582e-07
-4.91617e-08
4.56744e-07
-9.84824e-08
4.58536e-07
-1.48122e-07
4.62147e-07
-1.98245e-07
4.67626e-07
-2.49017e-07
4.7505e-07
-3.00612e-07
4.84528e-07
-3.53211e-07
4.96199e-07
-4.07002e-07
5.10238e-07
-4.62184e-07
5.26863e-07
-5.18966e-07
5.4634e-07
-5.77571e-07
5.68993e-07
-6.38232e-07
5.95214e-07
-7.01194e-07
6.25476e-07
-7.66714e-07
6.60351e-07