/*--------------------------------*- C++ -*----------------------------------*\
  =========                 |
  \\      /  F ield         | OpenFOAM: The Open Source CFD Toolbox
   \\    /   O peration     | Website:  https://openfoam.org
    \\  /    A nd           | Version:  11
     \\/     M anipulation  |
\*---------------------------------------------------------------------------*/
FoamFile
{
    format      ascii;
    class       volScalarField;
    location    "69";
    object      p;
}
// * * * * * * * * * * * * * * * * * * * * * * * * * * * * * * * * * * * * * //

dimensions      [0 2 -2 0 0 0 0];

internalField   nonuniform List<scalar> 
2048
(
0.302873
0.300557
0.295895
0.288677
0.278751
0.265966
0.250144
0.231085
0.208603
0.182576
0.152997
0.120017
0.0839946
0.0455346
0.00549739
-0.0350205
-0.0747487
-0.112344
-0.146514
-0.17613
-0.200291
-0.218329
-0.229793
-0.234435
-0.232293
-0.223606
-0.208873
-0.188904
-0.164778
-0.137737
-0.109039
-0.07982
-0.0509952
-0.0232091
0.00315163
0.0279006
0.0509671
0.0723025
0.0917864
0.10916
0.123978
0.135583
0.14314
0.145744
0.14259
0.133191
0.117599
0.0965892
0.071729
0.0452628
0.0197978
-0.0021631
-0.0188042
-0.0291427
-0.0334432
-0.0326369
-0.0281503
-0.0217041
-0.0145627
-0.00821486
-0.00282507
-2.61838e-05
0.00197805
-0.000574665
0.305261
0.30297
0.298352
0.291194
0.28133
0.268592
0.252777
0.233654
0.21101
0.184692
0.154665
0.121062
0.0842406
0.0448281
0.00373909
-0.0378506
-0.0785809
-0.117033
-0.15188
-0.182007
-0.206551
-0.224878
-0.236549
-0.241299
-0.239147
-0.23029
-0.215188
-0.194636
-0.169743
-0.141807
-0.112152
-0.0819784
-0.0522473
-0.0236395
0.00343555
0.0287827
0.0523316
0.0740357
0.0937753
0.111288
0.126124
0.137622
0.144939
0.147163
0.143481
0.1334
0.116968
0.0949742
0.0690269
0.0414617
0.0149991
-0.00773321
-0.0247942
-0.0352179
-0.0392024
-0.0377955
-0.0325469
-0.0252805
-0.017336
-0.0102615
-0.00422922
-0.000914851
0.00155047
-0.000733754
0.310019
0.30778
0.303259
0.296234
0.286514
0.273891
0.258112
0.238887
0.215934
0.189037
0.158102
0.123227
0.0847625
0.0433793
0.000100361
-0.0437284
-0.0865422
-0.126751
-0.16296
-0.194096
-0.219391
-0.238291
-0.25039
-0.255396
-0.253263
-0.244095
-0.22826
-0.20652
-0.180041
-0.150243
-0.118606
-0.0864652
-0.0548863
-0.024614
0.00390774
0.0304675
0.0549905
0.0774263
0.0976568
0.115424
0.130269
0.141514
0.1483
0.1497
0.144891
0.133367
0.115171
0.0911121
0.0628812
0.0329914
0.00442719
-0.0199413
-0.0378995
-0.0484111
-0.0516034
-0.0488157
-0.0418685
-0.0328084
-0.0231384
-0.0145187
-0.00714905
-0.00274427
0.000634524
-0.00103529
0.317088
0.314936
0.310583
0.303792
0.294334
0.281942
0.266284
0.24697
0.223609
0.195861
0.163535
0.126664
0.0855931
0.0410699
-0.00571284
-0.053125
-0.0992329
-0.142151
-0.180406
-0.213034
-0.239438
-0.259206
-0.271999
-0.277486
-0.275507
-0.265958
-0.249025
-0.225427
-0.196429
-0.163666
-0.128868
-0.0936158
-0.0591562
-0.0263329
0.00437785
0.0327649
0.0587545
0.0822822
0.103217
0.121312
0.136096
0.146863
0.15273
0.152754
0.146097
0.132224
0.111145
0.0836951
0.0517081
0.0179891
-0.0140375
-0.0410084
-0.0602597
-0.0706897
-0.0723674
-0.0671025
-0.0571743
-0.0450355
-0.0324669
-0.0213024
-0.0117698
-0.00561669
-0.000810779
-0.00147895
0.326369
0.324355
0.320268
0.313854
0.304833
0.292858
0.277488
0.258197
0.23442
0.205615
0.171401
0.131672
0.086771
0.0376033
-0.0143539
-0.0669862
-0.117737
-0.164304
-0.2052
-0.239723
-0.26757
-0.288534
-0.302387
-0.308751
-0.307298
-0.297473
-0.279098
-0.252842
-0.220183
-0.183106
-0.143738
-0.104022
-0.0654842
-0.029126
0.00453317
0.0353225
0.0632295
0.0881956
0.110023
0.128472
0.143061
0.153078
0.157652
0.155845
0.14678
0.129816
0.104851
0.0726743
0.0352553
-0.0042071
-0.041635
-0.0727917
-0.094072
-0.104434
-0.103751
-0.0945674
-0.0799358
-0.063008
-0.046017
-0.0310519
-0.0183499
-0.00967698
-0.00285412
-0.00206929
0.337709
0.335903
0.332217
0.326381
0.318047
0.306771
0.291969
0.27294
0.24889
0.218968
0.182461
0.138906
0.0885594
0.0325796
-0.0270108
-0.0870898
-0.144014
-0.195035
-0.238916
-0.275482
-0.304925
-0.327409
-0.342881
-0.350861
-0.350698
-0.34103
-0.320993
-0.291131
-0.253308
-0.210137
-0.16441
-0.118615
-0.074632
-0.033637
0.00380706
0.0375686
0.0677334
0.094381
0.117226
0.135991
0.150158
0.159174
0.162251
0.158439
0.1468
0.126589
0.0975661
0.060352
0.0168143
-0.0296528
-0.0743795
-0.112114
-0.138126
-0.149305
-0.146424
-0.132362
-0.111329
-0.08769
-0.064478
-0.0442129
-0.0271551
-0.0150802
-0.0055679
-0.00281442
0.350878
0.349373
0.346267
0.341283
0.333988
0.323833
0.310025
0.291659
0.267621
0.236702
0.197736
0.149512
0.0919007
0.0260332
-0.0450598
-0.115899
-0.180866
-0.236998
-0.283893
-0.322292
-0.353092
-0.377151
-0.395189
-0.406416
-0.40897
-0.400181
-0.37839
-0.343866
-0.298885
-0.247092
-0.192482
-0.138482
-0.0874716
-0.040758
0.00121982
0.0384624
0.0711183
0.0994061
0.123108
0.141924
0.155167
0.162449
0.163182
0.156451
0.141613
0.118273
0.0861388
0.045348
-0.00279687
-0.0552245
-0.107036
-0.152078
-0.184341
-0.199362
-0.196388
-0.178267
-0.150441
-0.118884
-0.087943
-0.0609359
-0.0383203
-0.0219214
-0.00900091
-0.00372829
0.365556
0.364465
0.362156
0.358378
0.352595
0.344189
0.332037
0.315018
0.291401
0.259655
0.218022
0.164415
0.0981009
0.0185185
-0.0696881
-0.155893
-0.231168
-0.292977
-0.342601
-0.382217
-0.413717
-0.439074
-0.460762
-0.478737
-0.487395
-0.480864
-0.457016
-0.416371
-0.361686
-0.297934
-0.23096
-0.165741
-0.105502
-0.0516588
-0.00445684
0.0364201
0.0716144
0.101361
0.125418
0.142399
0.153026
0.156221
0.152059
0.141072
0.123404
0.0983306
0.0648576
0.022448
-0.028192
-0.0843752
-0.14115
-0.191928
-0.229895
-0.249383
-0.247959
-0.227482
-0.193877
-0.154503
-0.11527
-0.0806501
-0.0515996
-0.0301037
-0.0131369
-0.00481567
0.381308
0.380756
0.379483
0.377324
0.373633
0.367853
0.358386
0.344035
0.321672
0.289508
0.243951
0.183002
0.10586
0.0069362
-0.105756
-0.212151
-0.299444
-0.36663
-0.417225
-0.45564
-0.485517
-0.511967
-0.540328
-0.569114
-0.590694
-0.591018
-0.565746
-0.51628
-0.447356
-0.366598
-0.282656
-0.202695
-0.130842
-0.0684271
-0.0153868
0.0292851
0.0666569
0.0965718
0.118336
0.131293
0.134962
0.13192
0.123951
0.111214
0.0927291
0.0672686
0.0336351
-0.00905719
-0.0606077
-0.118718
-0.178477
-0.23303
-0.274858
-0.297442
-0.297421
-0.275633
-0.237592
-0.191396
-0.144312
-0.102044
-0.066277
-0.0392683
-0.0178495
-0.00605271
0.397586
0.397688
0.397683
0.397556
0.396576
0.394459
0.389089
0.379711
0.360823
0.330729
0.279163
0.205961
0.106829
-0.0263307
-0.171922
-0.297966
-0.393342
-0.460879
-0.506011
-0.53556
-0.555118
-0.579274
-0.619004
-0.667966
-0.711529
-0.729117
-0.710903
-0.654558
-0.566863
-0.461271
-0.352645
-0.252153
-0.165111
-0.0928045
-0.0340311
0.0141627
0.0530005
0.0804718
0.0951411
0.0993159
0.0970847
0.091791
0.0836756
0.0713994
0.0535136
0.0288736
-0.00364712
-0.0451708
-0.0960168
-0.154388
-0.215522
-0.272207
-0.316316
-0.340843
-0.341609
-0.318895
-0.27761
-0.226061
-0.172387
-0.123287
-0.081236
-0.0488034
-0.0228925
-0.00739345
0.413735
0.414571
0.416024
0.418247
0.420535
0.42299
0.423288
0.421678
0.410619
0.389966
0.336534
0.250139
0.0969663
-0.103394
-0.28425
-0.41427
-0.502023
-0.557274
-0.586475
-0.595303
-0.589093
-0.603133
-0.65406
-0.730621
-0.804525
-0.852974
-0.859736
-0.812319
-0.714112
-0.583809
-0.445579
-0.318448
-0.211943
-0.127676
-0.0617068
-0.01034
0.0254812
0.0442554
0.0492617
0.0471746
0.0431621
0.0391319
0.0334497
0.0237857
0.00843552
-0.013648
-0.0434478
-0.0821808
-0.130587
-0.187401
-0.248108
-0.305247
-0.350224
-0.375585
-0.376741
-0.353441
-0.31014
-0.255046
-0.19666
-0.142298
-0.0951065
-0.0579195
-0.0279246
-0.00876867
0.429025
0.430616
0.433633
0.438341
0.444264
0.451754
0.458993
0.466984
0.468922
0.467315
0.432179
0.364299
0.140107
-0.176693
-0.386676
-0.500629
-0.568126
-0.608078
-0.626031
-0.619073
-0.591111
-0.606775
-0.665645
-0.751363
-0.843517
-0.925167
-0.962273
-0.93898
-0.848875
-0.708604
-0.548552
-0.39712
-0.270903
-0.173396
-0.100932
-0.0513988
-0.0246831
-0.016929
-0.0196391
-0.0241751
-0.0267846
-0.0265644
-0.0266644
-0.0305111
-0.040407
-0.0574831
-0.0825123
-0.116604
-0.160734
-0.214087
-0.272472
-0.328382
-0.372894
-0.398161
-0.399334
-0.37592
-0.331963
-0.275361
-0.214558
-0.157072
-0.10648
-0.0657643
-0.0325333
-0.010075
0.442685
0.445
0.449545
0.456667
0.466227
0.478703
0.493254
0.510973
0.528267
0.548509
0.555135
0.56406
0.419355
-0.0957896
-0.365617
-0.497855
-0.566852
-0.603469
-0.624718
-0.636923
-0.605408
-0.624824
-0.687557
-0.779139
-0.881131
-0.971143
-1.02759
-1.02248
-0.945399
-0.807904
-0.639828
-0.474759
-0.335554
-0.230048
-0.157574
-0.115623
-0.0999877
-0.101878
-0.109733
-0.113306
-0.112556
-0.104768
-0.0953263
-0.0893827
-0.0903162
-0.0995417
-0.11754
-0.145056
-0.183046
-0.23104
-0.285236
-0.338263
-0.381034
-0.405477
-0.406615
-0.383814
-0.34072
-0.284794
-0.224091
-0.165957
-0.11411
-0.0715239
-0.0362662
-0.0111832
0.453972
0.456924
0.462792
0.472043
0.484778
0.501745
0.522719
0.54929
0.579802
0.617749
0.65423
0.694962
0.642666
0.176156
-0.124618
-0.314793
-0.4396
-0.52022
-0.573258
-0.631228
-0.62101
-0.644221
-0.709446
-0.80487
-0.912172
-1.00754
-1.06611
-1.06628
-0.997051
-0.866699
-0.70229
-0.537707
-0.398547
-0.295937
-0.230719
-0.199212
-0.194584
-0.205133
-0.21716
-0.221245
-0.210274
-0.190451
-0.167544
-0.148265
-0.137235
-0.136233
-0.145375
-0.164802
-0.195159
-0.236166
-0.284474
-0.333055
-0.372914
-0.395973
-0.39722
-0.375871
-0.335222
-0.28216
-0.224077
-0.167852
-0.117055
-0.0745096
-0.0386798
-0.011958
0.462253
0.465684
0.47253
0.483383
0.498476
0.518867
0.544538
0.577807
0.616845
0.66671
0.715853
0.775436
0.745692
0.275577
-0.0402434
-0.247631
-0.388468
-0.482267
-0.546486
-0.61103
-0.618565
-0.643352
-0.705987
-0.798197
-0.904639
-0.999804
-1.0568
-1.0572
-0.994001
-0.875119
-0.725317
-0.575475
-0.450065
-0.360476
-0.308228
-0.29024
-0.297949
-0.316437
-0.329818
-0.328198
-0.30761
-0.273763
-0.235287
-0.20089
-0.176389
-0.163934
-0.163288
-0.173863
-0.195763
-0.228714
-0.269847
-0.312705
-0.348696
-0.369955
-0.371565
-0.352422
-0.315685
-0.26746
-0.214269
-0.162314
-0.114776
-0.0742244
-0.0393878
-0.0122798
0.467062
0.470749
0.478132
0.489847
0.506245
0.52847
0.556757
0.593421
0.637086
0.692048
0.747817
0.813021
0.794543
0.34128
0.0247168
-0.193153
-0.345682
-0.448579
-0.518694
-0.580341
-0.600348
-0.621015
-0.67406
-0.752698
-0.846168
-0.935486
-0.98732
-0.98453
-0.92966
-0.828607
-0.702614
-0.577778
-0.475985
-0.407412
-0.374684
-0.374984
-0.396529
-0.421509
-0.43382
-0.424908
-0.392954
-0.344594
-0.290562
-0.241302
-0.203622
-0.179932
-0.169661
-0.171507
-0.184909
-0.209445
-0.242708
-0.278995
-0.3104
-0.329509
-0.331797
-0.315387
-0.283721
-0.241856
-0.195341
-0.149568
-0.107167
-0.0703969
-0.0381019
-0.01206
0.468139
0.471838
0.479246
0.491001
0.507461
0.529784
0.558218
0.595108
0.639106
0.694535
0.750945
0.816758
0.799787
0.34825
0.0328628
-0.183871
-0.334712
-0.434864
-0.500667
-0.548267
-0.571514
-0.585307
-0.622169
-0.677123
-0.744223
-0.805987
-0.838397
-0.841684
-0.79985
-0.722025
-0.62647
-0.533108
-0.46361
-0.424554
-0.419106
-0.44153
-0.476507
-0.505886
-0.515808
-0.499053
-0.456112
-0.394692
-0.327072
-0.265096
-0.216244
-0.182946
-0.164285
-0.158358
-0.163959
-0.180428
-0.205772
-0.235156
-0.261549
-0.278074
-0.280143
-0.267839
-0.24206
-0.207466
-0.168752
-0.130437
-0.094539
-0.0629987
-0.0346622
-0.0112385
0.465472
0.468937
0.475856
0.486825
0.502101
0.522764
0.548874
0.582781
0.622869
0.674073
0.725416
0.78701
0.761649
0.298095
-0.0140983
-0.218722
-0.355134
-0.441527
-0.494589
-0.524749
-0.543757
-0.549067
-0.563851
-0.585928
-0.613734
-0.639143
-0.649441
-0.641305
-0.608881
-0.556054
-0.495645
-0.443461
-0.413523
-0.412157
-0.438697
-0.483145
-0.528792
-0.560022
-0.566255
-0.542743
-0.490811
-0.419192
-0.341408
-0.270305
-0.213605
-0.173427
-0.148437
-0.136301
-0.13533
-0.144635
-0.162586
-0.185246
-0.206622
-0.220697
-0.223453
-0.214253
-0.194236
-0.16708
-0.136521
-0.106202
-0.0775597
-0.0522481
-0.0290535
-0.00976981
0.459303
0.462313
0.4683
0.477742
0.490769
0.508172
0.529818
0.557406
0.589505
0.629851
0.669868
0.715555
0.670513
0.212171
-0.083305
-0.269614
-0.388455
-0.459637
-0.499337
-0.518753
-0.530752
-0.52146
-0.511013
-0.497099
-0.48145
-0.464714
-0.445117
-0.420786
-0.39282
-0.362542
-0.338065
-0.328929
-0.343763
-0.381664
-0.437998
-0.499437
-0.551143
-0.581831
-0.583723
-0.554302
-0.495623
-0.417197
-0.333464
-0.257654
-0.197141
-0.153396
-0.1246
-0.108139
-0.102082
-0.105427
-0.116895
-0.133408
-0.150061
-0.161704
-0.164797
-0.158496
-0.143835
-0.123668
-0.100917
-0.0784324
-0.0571835
-0.038605
-0.021414
-0.00760745
0.450077
0.452474
0.457178
0.464563
0.474503
0.487578
0.50295
0.522041
0.541203
0.564825
0.57646
0.594328
0.467987
-0.0354276
-0.305163
-0.437624
-0.499502
-0.523386
-0.529504
-0.538773
-0.537229
-0.505887
-0.467511
-0.419185
-0.365744
-0.313766
-0.267712
-0.230409
-0.204385
-0.192365
-0.19884
-0.227773
-0.279424
-0.348754
-0.425
-0.494747
-0.546831
-0.573326
-0.570977
-0.536412
-0.472951
-0.391159
-0.30601
-0.230197
-0.169982
-0.125954
-0.0958777
-0.0770207
-0.0674065
-0.0660609
-0.0720934
-0.0832564
-0.0956601
-0.104984
-0.108138
-0.104254
-0.0941569
-0.0800406
-0.0641964
-0.0488171
-0.0345607
-0.022742
-0.0120314
-0.00470213
0.438407
0.440097
0.443316
0.448345
0.454748
0.462941
0.471211
0.480729
0.485072
0.487028
0.45861
0.399905
0.195313
-0.107589
-0.314717
-0.426034
-0.485356
-0.517815
-0.534305
-0.539566
-0.530686
-0.488844
-0.425246
-0.348477
-0.268823
-0.197749
-0.140193
-0.0982503
-0.0767006
-0.0793201
-0.108221
-0.162461
-0.236796
-0.321504
-0.404095
-0.473116
-0.521044
-0.541823
-0.533542
-0.493988
-0.427479
-0.34589
-0.263965
-0.192631
-0.136322
-0.0947005
-0.0653991
-0.045818
-0.0340766
-0.0292885
-0.0309311
-0.0375589
-0.0462298
-0.0534295
-0.0564695
-0.0543926
-0.0478535
-0.0385826
-0.0284049
-0.0190246
-0.0109506
-0.00549966
-0.00134133
-0.001033
0.425012
0.42596
0.427659
0.430248
0.433124
0.436346
0.437905
0.437859
0.429678
0.412439
0.366039
0.287478
0.149451
-0.0348012
-0.204927
-0.328047
-0.409306
-0.460855
-0.489804
-0.497606
-0.48296
-0.438277
-0.367203
-0.279255
-0.19121
-0.117385
-0.0617849
-0.0262367
-0.0136584
-0.0278476
-0.0689609
-0.133241
-0.213065
-0.297724
-0.375785
-0.437761
-0.477698
-0.492716
-0.477546
-0.432704
-0.365235
-0.287918
-0.213658
-0.150425
-0.100572
-0.0630965
-0.0358736
-0.0167387
-0.00403914
0.00303708
0.00475959
0.00187146
-0.00360961
-0.00886729
-0.0115693
-0.0107088
-0.00676671
-0.00109037
0.00478826
0.00944348
0.0123918
0.0121901
0.0100798
0.00334471
0.410643
0.410871
0.411149
0.411435
0.411122
0.409851
0.405857
0.398136
0.382121
0.355374
0.309606
0.243041
0.153225
0.0326716
-0.100126
-0.214923
-0.29942
-0.355453
-0.386867
-0.395565
-0.383644
-0.35295
-0.299335
-0.231362
-0.159724
-0.091277
-0.0345501
-0.000744514
0.00398348
-0.0190472
-0.0653138
-0.12943
-0.204178
-0.280285
-0.348049
-0.398733
-0.427723
-0.43103
-0.406425
-0.35747
-0.293178
-0.22492
-0.161908
-0.108823
-0.0664976
-0.0338401
-0.00927158
0.00876851
0.021606
0.029995
0.0341058
0.034196
0.0314402
0.0279553
0.0257537
0.0258839
0.0280758
0.0312882
0.0341611
0.0353556
0.0343236
0.0294072
0.0215652
0.00826247
0.396013
0.395603
0.394638
0.392941
0.389964
0.385117
0.377046
0.364449
0.344716
0.315802
0.274833
0.219595
0.14944
0.0601271
-0.040879
-0.13475
-0.208543
-0.259812
-0.290961
-0.304301
-0.301266
-0.281972
-0.245933
-0.197376
-0.143342
-0.0917629
-0.0513846
-0.0284337
-0.0259698
-0.0449311
-0.0837969
-0.137992
-0.200293
-0.262044
-0.315712
-0.348298
-0.361633
-0.352637
-0.322376
-0.275922
-0.221053
-0.165611
-0.11507
-0.0719507
-0.0366456
-0.00851163
0.0133828
0.0300249
0.0424286
0.0513536
0.0570145
0.0593839
0.0589386
0.0570857
0.0554992
0.0552931
0.0564039
0.0580545
0.0589909
0.0578316
0.0538849
0.0452993
0.0323973
0.013417
0.381761
0.380827
0.378846
0.375571
0.370536
0.363132
0.352376
0.337159
0.315991
0.287381
0.249817
0.201492
0.141795
0.0708063
-0.00673688
-0.0806751
-0.142127
-0.187768
-0.218204
-0.234682
-0.237712
-0.227505
-0.20485
-0.172664
-0.136291
-0.101762
-0.0746006
-0.0590094
-0.0578549
-0.0724231
-0.101509
-0.141108
-0.185123
-0.226853
-0.258776
-0.280646
-0.283683
-0.269809
-0.241883
-0.203786
-0.16062
-0.117233
-0.0770117
-0.041735
-0.0119825
0.012399
0.0318901
0.0470757
0.0586676
0.0674267
0.0737969
0.0777716
0.0793253
0.0791008
0.0782842
0.0780443
0.0784746
0.079195
0.0790045
0.0764107
0.0704437
0.0592399
0.0419859
0.0184582
0.368423
0.367087
0.364325
0.359878
0.35336
0.344256
0.331857
0.315325
0.293685
0.265868
0.230883
0.187816
0.136724
0.0789987
0.017813
-0.0414605
-0.0932744
-0.134364
-0.163915
-0.182145
-0.189363
-0.186096
-0.17349
-0.153872
-0.130812
-0.108243
-0.0899085
-0.0790752
-0.0780624
-0.0876837
-0.106853
-0.132699
-0.161154
-0.187788
-0.20802
-0.218904
-0.21711
-0.203663
-0.180358
-0.149771
-0.115327
-0.0803534
-0.0473251
-0.017719
0.00779452
0.0291144
0.0464839
0.0602838
0.0709748
0.0791496
0.0853963
0.09003
0.0930242
0.0944604
0.0947778
0.0947051
0.0949997
0.0951406
0.0942575
0.0908867
0.083584
0.0707606
0.0499144
0.0230376
0.356422
0.354794
0.351467
0.346193
0.338666
0.328481
0.31512
0.297966
0.276342
0.249551
0.217045
0.178578
0.134578
0.0863487
0.0360365
-0.0132189
-0.0578224
-0.0949605
-0.123244
-0.142374
-0.152585
-0.154484
-0.149135
-0.138239
-0.124147
-0.109612
-0.0974583
-0.0901275
-0.0892136
-0.0951943
-0.10735
-0.123827
-0.14188
-0.158234
-0.16986
-0.174242
-0.169917
-0.156903
-0.136464
-0.110653
-0.0819304
-0.0526505
-0.0246606
0.00081847
0.0231258
0.0420322
0.0576145
0.0701343
0.0799445
0.0874827
0.0932564
0.097733
0.101163
0.103669
0.105309
0.106305
0.106785
0.106714
0.105348
0.101522
0.0932412
0.0795659
0.0558804
0.0268229
0.34607
0.344241
0.340525
0.334695
0.326508
0.315662
0.301775
0.284408
0.263108
0.237474
0.207276
0.172574
0.133859
0.0921592
0.0490466
0.00666392
-0.0324904
-0.0661984
-0.0930737
-0.112612
-0.124914
-0.130472
-0.13013
-0.125148
-0.117237
-0.108446
-0.100852
-0.0962003
-0.0956159
-0.0994615
-0.107263
-0.117684
-0.1287
-0.137916
-0.143689
-0.143782
-0.137302
-0.12426
-0.105641
-0.0829526
-0.0579609
-0.0324318
-0.00784842
0.0147358
0.0346919
0.051742
0.0658787
0.0772842
0.086251
0.0931408
0.0983844
0.102455
0.105723
0.10845
0.110762
0.112467
0.113655
0.114044
0.112673
0.108774
0.0997945
0.0857894
0.0600025
0.0297219
0.337589
0.335627
0.331656
0.325467
0.316869
0.305639
0.291504
0.27416
0.253321
0.228781
0.200484
0.168608
0.133631
0.096407
0.0581903
0.0206018
-0.0145282
-0.0455051
-0.0711253
-0.0908101
-0.10451
-0.112565
-0.115639
-0.114723
-0.111134
-0.106399
-0.102037
-0.0993309
-0.0991245
-0.101694
-0.106685
-0.113144
-0.119653
-0.124608
-0.126082
-0.123221
-0.115222
-0.102082
-0.0845155
-0.0636898
-0.041021
-0.0179404
0.00432732
0.0248749
0.0431227
0.0587803
0.0717941
0.0822882
0.0905141
0.0968069
0.101555
0.10519
0.108083
0.110597
0.112784
0.114888
0.116404
0.117212
0.116082
0.112516
0.103267
0.0893395
0.0623585
0.0315374
0.331125
0.32908
0.32495
0.318541
0.309701
0.298268
0.284045
0.266825
0.246433
0.222774
0.195888
0.166002
0.133586
0.0993979
0.0644884
0.0301549
-0.00218534
-0.0311971
-0.0558485
-0.0755449
-0.0901331
-0.0998342
-0.105182
-0.106987
-0.106287
-0.104255
-0.102057
-0.100681
-0.100788
-0.102603
-0.105869
-0.109875
-0.113542
-0.115606
-0.114557
-0.109804
-0.100763
-0.0874448
-0.070447
-0.0507586
-0.0295647
-0.00806381
0.0126894
0.0318789
0.0489576
0.0636308
0.0758216
0.0856253
0.0932665
0.099063
0.103386
0.106646
0.109218
0.111463
0.113475
0.115531
0.117052
0.11795
0.116778
0.113384
0.10396
0.0902143
0.062827
0.0319685
0.326772
0.324679
0.320458
0.313927
0.304957
0.293427
0.27919
0.2621
0.242044
0.218989
0.193028
0.164417
0.133621
0.101334
0.0684783
0.036156
0.00555047
-0.0222108
-0.0462114
-0.0658674
-0.0809716
-0.0916697
-0.0984067
-0.101869
-0.102925
-0.10254
-0.101672
-0.101135
-0.101482
-0.102909
-0.10521
-0.107788
-0.109739
-0.110028
-0.107564
-0.101691
-0.091998
-0.0785449
-0.0618669
-0.0428328
-0.0224909
-0.00191692
0.0179256
0.0362775
0.0526182
0.0666573
0.0783079
0.0876498
0.0948923
0.10034
0.104358
0.107349
0.109688
0.11173
0.113611
0.115529
0.116989
0.117886
0.116599
0.113218
0.103555
0.0898421
0.062324
0.0316018
0.324587
0.322471
0.318209
0.311623
0.302598
0.291031
0.2768
0.259787
0.239907
0.217158
0.191655
0.16367
0.13366
0.102289
0.0704156
0.0390499
0.00927188
-0.0178837
-0.041558
-0.0611791
-0.0765187
-0.0876858
-0.0950787
-0.0993235
-0.101208
-0.101604
-0.101373
-0.101249
-0.101729
-0.102988
-0.10484
-0.106749
-0.107903
-0.10738
-0.104252
-0.0978657
-0.0878697
-0.0743473
-0.0578048
-0.0390614
-0.0191108
0.00102745
0.0204372
0.0383889
0.0543745
0.068105
0.0794891
0.0886001
0.095641
0.10091
0.104768
0.107615
0.109831
0.111771
0.11358
0.115424
0.116843
0.117733
0.116404
0.113019
0.103255
0.0895084
0.0620241
0.0313088
)
;

boundaryField
{
    inlet
    {
        type            zeroGradient;
    }
    outlet
    {
        type            fixedValue;
        value           uniform 0;
    }
    top
    {
        type            symmetryPlane;
    }
    bottom
    {
        type            symmetryPlane;
    }
    frontAndBack
    {
        type            empty;
    }
}


// ************************************************************************* //
