/*--------------------------------*- C++ -*----------------------------------*\
  =========                 |
  \\      /  F ield         | OpenFOAM: The Open Source CFD Toolbox
   \\    /   O peration     | Website:  https://openfoam.org
    \\  /    A nd           | Version:  10
     \\/     M anipulation  |
\*---------------------------------------------------------------------------*/
FoamFile
{
    format      ascii;
    class       volScalarField;
    location    "4.8";
    object      Sb;
}
// * * * * * * * * * * * * * * * * * * * * * * * * * * * * * * * * * * * * * //

dimensions      [0 0 0 0 0 0 0];

internalField   nonuniform List<scalar> 
12225
(
0.595058
0.593119
0.590747
0.588194
0.585632
0.583168
0.580869
0.578774
0.576908
0.57529
0.573941
0.57289
0.572183
0.571907
0.572226
0.573514
0.57678
0.585122
0.62428
0.621833
0.618882
0.615744
0.612627
0.609656
0.606905
0.604413
0.602205
0.600297
0.598708
0.597466
0.596618
0.59625
0.596527
0.597781
0.600715
0.606559
0.642969
0.640037
0.636549
0.632878
0.629263
0.625842
0.622691
0.619852
0.617344
0.615181
0.613378
0.61196
0.610969
0.610485
0.610648
0.611709
0.614073
0.618146
0.658115
0.654678
0.650645
0.646444
0.642342
0.638487
0.634956
0.631787
0.628995
0.626587
0.624574
0.622974
0.621822
0.621181
0.621156
0.621907
0.623624
0.626361
0.671588
0.667597
0.662979
0.658221
0.653615
0.649316
0.645401
0.641898
0.638818
0.63616
0.633928
0.632131
0.630792
0.629953
0.629681
0.630056
0.631132
0.632827
0.684224
0.679606
0.674341
0.668979
0.663834
0.659067
0.654747
0.650897
0.647516
0.644595
0.642128
0.640112
0.638557
0.637483
0.636918
0.636884
0.637358
0.638215
0.696496
0.691156
0.685161
0.67913
0.673398
0.668126
0.663374
0.659154
0.655451
0.652248
0.649524
0.647266
0.645467
0.644124
0.643235
0.64278
0.6427
0.642867
0.708729
0.702541
0.69571
0.688927
0.682547
0.676723
0.671503
0.666883
0.662835
0.659325
0.656321
0.653795
0.651724
0.650085
0.648851
0.647979
0.647392
0.646976
0.72118
0.713982
0.706181
0.698543
0.691437
0.685005
0.679274
0.67422
0.669796
0.665954
0.662644
0.659825
0.657457
0.6555
0.653911
0.652631
0.651582
0.650667
0.734083
0.725663
0.716721
0.708103
0.70018
0.693072
0.686779
0.681251
0.67642
0.672216
0.668574
0.665437
0.66275
0.66046
0.658511
0.656838
0.655366
0.654015
0.747679
0.737754
0.727456
0.717702
0.708852
0.70099
0.694078
0.688033
0.682758
0.678162
0.674162
0.670684
0.66766
0.665026
0.662718
0.660668
0.658808
0.65707
0.762239
0.750425
0.738493
0.727413
0.717505
0.7088
0.701205
0.694594
0.688838
0.683819
0.679435
0.675595
0.67222
0.669236
0.666573
0.664165
0.661947
0.659859
0.775748
0.761846
0.74819
0.735761
0.724811
0.715293
0.707053
0.699915
0.693716
0.688312
0.683582
0.67942
0.675738
0.672455
0.669497
0.666798
0.664295
0.661937
0.792539
0.775631
0.759616
0.745407
0.733122
0.722587
0.713555
0.705781
0.699053
0.693195
0.688062
0.683532
0.679504
0.675888
0.672607
0.669591
0.666781
0.664125
0.813918
0.792474
0.773127
0.756525
0.742514
0.730709
0.720711
0.712177
0.704831
0.698452
0.692862
0.687917
0.683498
0.679505
0.675851
0.672466
0.669291
0.66628
0.842349
0.813621
0.789334
0.769412
0.753141
0.739749
0.728596
0.719186
0.711141
0.704168
0.698042
0.692584
0.687656
0.683147
0.678973
0.675067
0.671381
0.66788
0.885529
0.844259
0.812002
0.787122
0.767643
0.752014
0.73917
0.728396
0.719133
0.710936
0.703608
0.696992
0.690968
0.685441
0.680339
0.675604
0.671191
0.667063
0.830856
0.804985
0.782952
0.764479
0.748985
0.735884
0.724672
0.714951
0.706464
0.699057
0.692487
0.686476
0.68095
0.675848
0.671118
0.66672
0.662618
0.658783
0.783585
0.76733
0.752122
0.738518
0.726521
0.715965
0.706643
0.69836
0.69095
0.68427
0.67823
0.67283
0.667936
0.663423
0.659244
0.655359
0.651737
0.64835
0.751818
0.740593
0.729324
0.718716
0.708992
0.700174
0.6922
0.68498
0.678424
0.672444
0.666967
0.661929
0.657309
0.653108
0.649199
0.645553
0.642143
0.638949
0.725781
0.717616
0.708986
0.700529
0.692531
0.685095
0.678234
0.671922
0.666114
0.66076
0.655813
0.651231
0.646974
0.643016
0.639397
0.636013
0.632844
0.62987
0.703543
0.697362
0.69057
0.683699
0.677032
0.670702
0.664764
0.659224
0.654068
0.64927
0.644803
0.640639
0.63675
0.633112
0.629708
0.62657
0.623625
0.620857
0.683893
0.67907
0.673605
0.667931
0.662307
0.656875
0.651703
0.646821
0.642232
0.637927
0.633891
0.630106
0.626554
0.623219
0.620083
0.617141
0.614406
0.611831
0.665984
0.662135
0.65766
0.652913
0.648123
0.643426
0.638899
0.634581
0.630487
0.626618
0.622968
0.619527
0.616284
0.613226
0.610342
0.607619
0.605068
0.602673
0.649156
0.646034
0.64232
0.638308
0.634196
0.630113
0.626135
0.622306
0.618648
0.615168
0.611866
0.608739
0.605779
0.602977
0.600326
0.597817
0.595441
0.593217
0.632804
0.630241
0.62713
0.623715
0.620169
0.616607
0.613105
0.609707
0.606437
0.603308
0.600325
0.597486
0.594788
0.592226
0.589793
0.587485
0.585293
0.583216
0.616238
0.614121
0.611503
0.608587
0.605524
0.602417
0.599336
0.596324
0.593409
0.590603
0.587915
0.585346
0.582896
0.58056
0.578336
0.57622
0.574205
0.572289
0.598436
0.596687
0.594486
0.592003
0.589367
0.586669
0.583973
0.58132
0.578736
0.576237
0.573831
0.571522
0.569311
0.567197
0.565177
0.563249
0.56141
0.559655
0.577267
0.575838
0.574008
0.57192
0.56968
0.567369
0.565042
0.562737
0.560479
0.558283
0.556159
0.55411
0.552141
0.55025
0.548438
0.546702
0.545041
0.543452
0.545375
0.544249
0.542784
0.541091
0.539257
0.537348
0.535408
0.533472
0.531561
0.52969
0.527869
0.526101
0.524392
0.522743
0.521154
0.519624
0.518153
0.51674
0.371057
0.372847
0.374445
0.375849
0.377065
0.378108
0.378992
0.379734
0.380346
0.380842
0.381232
0.381527
0.381735
0.381862
0.381915
0.3819
0.381821
0.381681
0.381485
0.381235
0.380935
0.380586
0.380191
0.379752
0.37927
0.378748
0.378186
0.377586
0.376949
0.376277
0.37557
0.374829
0.374056
0.37325
0.372414
0.371548
0.370652
0.369727
0.368773
0.367792
0.366784
0.365749
0.364688
0.363601
0.362489
0.361352
0.360191
0.359005
0.357796
0.356563
0.355307
0.354028
0.352726
0.351402
0.350056
0.348688
0.347299
0.345888
0.344455
0.343002
0.341528
0.340033
0.338518
0.336983
0.335428
0.333853
0.332259
0.330646
0.329014
0.327363
0.325693
0.324006
0.3223
0.320578
0.318838
0.317081
0.315308
0.313519
0.311714
0.309894
0.308059
0.30621
0.304347
0.30247
0.300581
0.298679
0.296765
0.29484
0.292903
0.290957
0.289
0.287034
0.285058
0.283074
0.281082
0.279082
0.277074
0.27506
0.273038
0.271011
0.268976
0.266936
0.26489
0.262839
0.260781
0.258718
0.25665
0.254576
0.252496
0.25041
0.248318
0.24622
0.244115
0.242003
0.239884
0.237756
0.23562
0.233474
0.231317
0.22915
0.226969
0.224774
0.222564
0.220336
0.218087
0.215816
0.213519
0.211194
0.208835
0.206437
0.203984
0.20145
0.19879
0.195956
0.192918
0.189716
0.186515
0.183646
0.181591
0.18088
0.18188
0.184577
0.188252
0.192117
0.19604
0.200009
0.204035
0.208135
0.212332
0.216655
0.221141
0.225842
0.23083
0.236213
0.242158
0.248946
0.257037
0.26624
0.275484
0.282448
0.280881
0.247131
0.110956
0.00158141
0.0011
0.0011
0.0011
0.0011
0.0011
0.0011
0.0011
0.0011
0.0011
0.0011
0.0011
0.0011
0.0011
0.0011
0.0011
0.0011
0.457099
0.457239
0.45737
0.45749
0.457594
0.45768
0.457747
0.457793
0.457818
0.45782
0.457801
0.45776
0.457696
0.457611
0.457503
0.457375
0.457225
0.457055
0.456865
0.456655
0.456426
0.456179
0.455913
0.45563
0.455329
0.455012
0.45468
0.454332
0.453969
0.453593
0.453203
0.4528
0.452384
0.451957
0.451519
0.45107
0.450611
0.450142
0.449665
0.449179
0.448685
0.448184
0.447676
0.447161
0.446641
0.446115
0.445585
0.44505
0.444511
0.443969
0.443423
0.442875
0.442325
0.441773
0.44122
0.440667
0.440112
0.439558
0.439004
0.438451
0.437899
0.437349
0.436801
0.436255
0.435712
0.435172
0.434635
0.434102
0.433573
0.433049
0.432529
0.432015
0.431505
0.431001
0.430503
0.430011
0.429524
0.429044
0.428571
0.428104
0.427643
0.42719
0.426743
0.426302
0.425869
0.425442
0.425021
0.424608
0.4242
0.423799
0.423403
0.423014
0.42263
0.422252
0.421879
0.42151
0.421147
0.420787
0.420432
0.42008
0.419731
0.419385
0.419042
0.418702
0.418363
0.418025
0.417689
0.417353
0.417018
0.416683
0.416346
0.416009
0.415671
0.41533
0.414987
0.414641
0.414291
0.413936
0.413577
0.413212
0.412841
0.412462
0.412074
0.411676
0.411268
0.410847
0.410411
0.409958
0.409487
0.408994
0.408476
0.40793
0.407347
0.406707
0.40598
0.405111
0.404029
0.402655
0.400926
0.398828
0.396294
0.393073
0.389129
0.384864
0.380452
0.375971
0.371466
0.366979
0.362566
0.358341
0.354551
0.35168
0.350649
0.352706
0.357744
0.36497
0.373113
0.381038
0.387923
0.392939
0.39487
0.390471
0.36308
0.157313
0.00187877
0.0011
0.0011
0.0011
0.0011
0.0011
0.0011
0.0011
0.0011
0.0011
0.0011
0.0011
0.0011
0.0011
0.0011
0.0011
0.480702
0.480822
0.480929
0.48102
0.481095
0.481153
0.481193
0.481215
0.481217
0.4812
0.481163
0.481106
0.481029
0.480932
0.480815
0.480678
0.480523
0.480348
0.480154
0.479942
0.479713
0.479466
0.479202
0.478922
0.478627
0.478316
0.477991
0.477652
0.4773
0.476936
0.476559
0.476171
0.475772
0.475363
0.474945
0.474517
0.474081
0.473637
0.473186
0.472728
0.472264
0.471794
0.471319
0.470839
0.470355
0.469867
0.469376
0.468882
0.468384
0.467885
0.467384
0.466882
0.466378
0.465874
0.465369
0.464864
0.464359
0.463854
0.463351
0.462848
0.462346
0.461846
0.461347
0.46085
0.460356
0.459863
0.459373
0.458885
0.4584
0.457918
0.457438
0.456962
0.456489
0.456019
0.455552
0.455088
0.454628
0.45417
0.453717
0.453266
0.452819
0.452375
0.451934
0.451496
0.451062
0.45063
0.450201
0.449776
0.449353
0.448932
0.448514
0.448099
0.447686
0.447275
0.446866
0.446459
0.446054
0.445651
0.44525
0.44485
0.444451
0.444054
0.443658
0.443263
0.44287
0.442477
0.442086
0.441695
0.441305
0.440916
0.440527
0.440139
0.439751
0.439364
0.438977
0.43859
0.438204
0.437817
0.43743
0.437043
0.436656
0.436267
0.435877
0.435486
0.435093
0.434698
0.4343
0.433897
0.43349
0.433077
0.432654
0.432218
0.431761
0.431266
0.43071
0.430057
0.429256
0.428245
0.426961
0.425287
0.423131
0.420577
0.417785
0.414914
0.412079
0.409387
0.406962
0.40498
0.403706
0.403536
0.404972
0.408008
0.411928
0.41553
0.418397
0.420385
0.421449
0.421569
0.420678
0.418542
0.414512
0.406659
0.387426
0.300949
0.0305308
0.00110036
0.0011
0.0011
0.0011
0.0011
0.0011
0.0011
0.0011
0.0011
0.0011
0.0011
0.0011
0.0011
0.0011
0.0011
0.49514
0.495313
0.495468
0.495603
0.495719
0.495813
0.495887
0.495939
0.495968
0.495975
0.49596
0.495921
0.49586
0.495776
0.49567
0.495542
0.495392
0.49522
0.495028
0.494815
0.494582
0.49433
0.494059
0.493771
0.493465
0.493142
0.492804
0.49245
0.492083
0.491701
0.491306
0.490899
0.490481
0.490052
0.489612
0.489163
0.488706
0.488239
0.487766
0.487285
0.486798
0.486305
0.485806
0.485303
0.484796
0.484284
0.483769
0.483252
0.482731
0.482209
0.481685
0.481159
0.480632
0.480105
0.479577
0.479049
0.478521
0.477994
0.477467
0.476941
0.476416
0.475893
0.475371
0.47485
0.474331
0.473814
0.473299
0.472786
0.472276
0.471767
0.471261
0.470757
0.470255
0.469756
0.469259
0.468765
0.468273
0.467783
0.467296
0.466811
0.466328
0.465847
0.465368
0.464891
0.464417
0.463944
0.463472
0.463003
0.462535
0.462068
0.461603
0.461138
0.460676
0.460214
0.459753
0.459293
0.458834
0.458375
0.457917
0.45746
0.457003
0.456547
0.456091
0.455636
0.45518
0.454725
0.45427
0.453815
0.453361
0.452906
0.452452
0.451997
0.451542
0.451088
0.450633
0.450178
0.449722
0.449266
0.44881
0.448354
0.447896
0.447438
0.446979
0.446518
0.446056
0.445592
0.445125
0.444656
0.444182
0.443703
0.443216
0.442718
0.442204
0.441666
0.441088
0.440454
0.439736
0.4389
0.437902
0.436709
0.435341
0.433862
0.432371
0.430975
0.429784
0.42891
0.428463
0.428534
0.429144
0.430111
0.430974
0.431526
0.431755
0.431667
0.431264
0.430538
0.42946
0.427957
0.425893
0.422991
0.418666
0.411455
0.396713
0.350238
0.108686
0.00122879
0.0011
0.0011
0.0011
0.0011
0.0011
0.0011
0.0011
0.0011
0.0011
0.0011
0.0011
0.0011
0.0011
0.0011
0.506423
0.506664
0.506882
0.507076
0.507246
0.507391
0.50751
0.507603
0.50767
0.50771
0.507723
0.50771
0.507669
0.507603
0.50751
0.507391
0.507247
0.507078
0.506885
0.506668
0.506429
0.506168
0.505885
0.505582
0.50526
0.504919
0.50456
0.504184
0.503791
0.503384
0.502962
0.502526
0.502078
0.501618
0.501146
0.500664
0.500172
0.499671
0.499162
0.498645
0.498121
0.49759
0.497054
0.496512
0.495965
0.495414
0.49486
0.494302
0.493741
0.493178
0.492612
0.492045
0.491477
0.490907
0.490337
0.489766
0.489195
0.488624
0.488054
0.487484
0.486915
0.486346
0.485779
0.485213
0.484648
0.484085
0.483523
0.482963
0.482405
0.481848
0.481293
0.48074
0.480189
0.479639
0.479092
0.478546
0.478002
0.47746
0.47692
0.476381
0.475844
0.475309
0.474775
0.474242
0.473711
0.47318
0.472652
0.472124
0.471597
0.471071
0.470546
0.470021
0.469497
0.468974
0.468451
0.467929
0.467407
0.466885
0.466363
0.465841
0.465319
0.464798
0.464276
0.463754
0.463232
0.462709
0.462186
0.461663
0.461139
0.460615
0.460091
0.459566
0.45904
0.458513
0.457986
0.457458
0.456929
0.456399
0.455868
0.455336
0.454803
0.454268
0.453731
0.453193
0.452652
0.452109
0.451562
0.451012
0.450457
0.449897
0.449329
0.448752
0.448162
0.447555
0.446924
0.446263
0.445561
0.444806
0.443985
0.443104
0.442186
0.441272
0.440414
0.43966
0.439051
0.438605
0.438313
0.438128
0.437952
0.437689
0.437326
0.436851
0.436247
0.435496
0.434574
0.433446
0.432061
0.430337
0.428136
0.425212
0.421071
0.414589
0.402609
0.372051
0.209643
0.00455502
0.0011
0.0011
0.0011
0.0011
0.0011
0.0011
0.0011
0.0011
0.0011
0.0011
0.0011
0.0011
0.0011
0.0011
0.515981
0.516299
0.51659
0.516852
0.517085
0.517287
0.517459
0.517599
0.517708
0.517785
0.51783
0.517844
0.517826
0.517776
0.517696
0.517586
0.517447
0.517278
0.517082
0.516859
0.51661
0.516335
0.516037
0.515715
0.515371
0.515006
0.514621
0.514217
0.513795
0.513356
0.512901
0.512431
0.511947
0.51145
0.51094
0.510419
0.509887
0.509345
0.508794
0.508234
0.507667
0.507093
0.506512
0.505926
0.505334
0.504737
0.504136
0.503532
0.502924
0.502313
0.5017
0.501084
0.500467
0.499849
0.499229
0.498609
0.497988
0.497367
0.496746
0.496125
0.495504
0.494884
0.494264
0.493645
0.493027
0.492411
0.491795
0.49118
0.490567
0.489955
0.489345
0.488735
0.488128
0.487521
0.486916
0.486313
0.485711
0.48511
0.484511
0.483912
0.483315
0.48272
0.482125
0.481531
0.480939
0.480347
0.479756
0.479166
0.478577
0.477988
0.4774
0.476812
0.476224
0.475637
0.475051
0.474464
0.473877
0.473291
0.472705
0.472118
0.471531
0.470944
0.470357
0.46977
0.469182
0.468594
0.468005
0.467416
0.466826
0.466235
0.465644
0.465052
0.464459
0.463865
0.463271
0.462675
0.462078
0.46148
0.46088
0.460279
0.459677
0.459073
0.458466
0.457858
0.457247
0.456633
0.456016
0.455395
0.454769
0.454138
0.453501
0.452855
0.452199
0.451531
0.450848
0.450147
0.449425
0.448679
0.447907
0.447118
0.446329
0.44556
0.444831
0.444158
0.443545
0.442985
0.442461
0.441941
0.441387
0.440787
0.440126
0.439389
0.438558
0.437611
0.436522
0.435255
0.433761
0.431962
0.429732
0.426855
0.422914
0.417016
0.40687
0.384312
0.289235
0.0252023
0.00110014
0.0011
0.0011
0.0011
0.0011
0.0011
0.0011
0.0011
0.0011
0.0011
0.0011
0.0011
0.0011
0.0011
0.524393
0.524799
0.525171
0.52551
0.525813
0.52608
0.52631
0.526503
0.526658
0.526775
0.526854
0.526895
0.526899
0.526867
0.526798
0.526695
0.526557
0.526387
0.526184
0.52595
0.525686
0.525394
0.525075
0.524729
0.524359
0.523965
0.523549
0.523112
0.522655
0.522179
0.521686
0.521176
0.520651
0.520111
0.519558
0.518993
0.518416
0.517828
0.517231
0.516624
0.516009
0.515387
0.514757
0.514121
0.51348
0.512833
0.512182
0.511527
0.510868
0.510206
0.509541
0.508873
0.508204
0.507533
0.506861
0.506187
0.505513
0.504838
0.504163
0.503488
0.502812
0.502137
0.501462
0.500788
0.500115
0.499442
0.49877
0.498099
0.497428
0.496759
0.496091
0.495424
0.494758
0.494094
0.49343
0.492767
0.492106
0.491446
0.490786
0.490128
0.489471
0.488815
0.48816
0.487505
0.486852
0.486199
0.485547
0.484896
0.484245
0.483595
0.482945
0.482296
0.481647
0.480998
0.48035
0.479702
0.479054
0.478406
0.477758
0.47711
0.476462
0.475814
0.475165
0.474517
0.473868
0.473219
0.472569
0.471919
0.471268
0.470617
0.469965
0.469313
0.46866
0.468005
0.46735
0.466694
0.466037
0.465379
0.464719
0.464058
0.463395
0.46273
0.462064
0.461395
0.460724
0.46005
0.459373
0.458693
0.458008
0.457318
0.456623
0.45592
0.45521
0.454491
0.453762
0.453021
0.45227
0.451506
0.45073
0.449949
0.449173
0.448412
0.447674
0.446962
0.446276
0.445608
0.444944
0.444264
0.443555
0.442806
0.442006
0.441139
0.440189
0.439136
0.437954
0.436611
0.435058
0.433224
0.430996
0.428181
0.424423
0.418998
0.410153
0.392299
0.332651
0.073004
0.00111869
0.0011
0.0011
0.0011
0.0011
0.0011
0.0011
0.0011
0.0011
0.0011
0.0011
0.0011
0.0011
0.0011
0.531971
0.532475
0.53294
0.533365
0.533746
0.534085
0.534379
0.534628
0.534832
0.534991
0.535105
0.535175
0.535201
0.535184
0.535126
0.535026
0.534887
0.53471
0.534496
0.534247
0.533965
0.53365
0.533304
0.53293
0.532528
0.532099
0.531647
0.531171
0.530673
0.530155
0.529618
0.529063
0.528492
0.527905
0.527303
0.526689
0.526062
0.525424
0.524775
0.524117
0.52345
0.522775
0.522093
0.521404
0.520709
0.520009
0.519303
0.518594
0.517881
0.517164
0.516445
0.515723
0.514999
0.514273
0.513545
0.512816
0.512087
0.511356
0.510625
0.509894
0.509163
0.508432
0.507701
0.50697
0.50624
0.50551
0.504781
0.504053
0.503326
0.5026
0.501874
0.50115
0.500426
0.499704
0.498982
0.498262
0.497542
0.496824
0.496107
0.49539
0.494675
0.49396
0.493247
0.492534
0.491823
0.491112
0.490401
0.489692
0.488983
0.488275
0.487567
0.48686
0.486154
0.485448
0.484742
0.484037
0.483332
0.482627
0.481923
0.481218
0.480514
0.47981
0.479106
0.478402
0.477698
0.476993
0.476289
0.475584
0.474879
0.474173
0.473467
0.472761
0.472054
0.471347
0.470638
0.469929
0.469219
0.468508
0.467796
0.467083
0.466368
0.465651
0.464933
0.464213
0.463491
0.462766
0.462039
0.461308
0.460573
0.459835
0.459091
0.458342
0.457587
0.456825
0.456055
0.455279
0.454496
0.453706
0.452911
0.452113
0.45132
0.450535
0.449762
0.449001
0.44825
0.447502
0.446745
0.445969
0.445166
0.444325
0.443436
0.442485
0.441457
0.440334
0.439092
0.437699
0.436111
0.434262
0.432048
0.429297
0.425704
0.420664
0.41279
0.398016
0.356671
0.140377
0.00155405
0.0011
0.0011
0.0011
0.0011
0.0011
0.0011
0.0011
0.0011
0.0011
0.0011
0.0011
0.0011
0.0011
0.538906
0.539521
0.54009
0.540609
0.541078
0.541495
0.541859
0.54217
0.542427
0.54263
0.54278
0.542879
0.542925
0.542922
0.54287
0.542771
0.542627
0.542439
0.54221
0.54194
0.541633
0.54129
0.540913
0.540503
0.540063
0.539594
0.539099
0.538579
0.538034
0.537468
0.536882
0.536277
0.535654
0.535014
0.534359
0.533691
0.53301
0.532316
0.531612
0.530898
0.530175
0.529444
0.528705
0.52796
0.527208
0.526451
0.525689
0.524923
0.524153
0.523379
0.522603
0.521824
0.521043
0.52026
0.519476
0.51869
0.517904
0.517117
0.516329
0.515541
0.514754
0.513966
0.513178
0.512391
0.511605
0.510819
0.510034
0.509249
0.508466
0.507683
0.506902
0.506121
0.505342
0.504563
0.503786
0.50301
0.502235
0.501461
0.500688
0.499916
0.499146
0.498376
0.497608
0.49684
0.496074
0.495308
0.494544
0.49378
0.493018
0.492256
0.491495
0.490735
0.489975
0.489216
0.488458
0.487701
0.486944
0.486187
0.485432
0.484676
0.483921
0.483167
0.482412
0.481658
0.480904
0.480151
0.479397
0.478643
0.47789
0.477136
0.476383
0.475629
0.474875
0.47412
0.473365
0.47261
0.471853
0.471097
0.470339
0.46958
0.46882
0.468059
0.467297
0.466533
0.465767
0.464999
0.464228
0.463455
0.462678
0.461898
0.461114
0.460326
0.459532
0.458734
0.45793
0.457121
0.456308
0.455491
0.454671
0.45385
0.45303
0.452215
0.451405
0.450599
0.449794
0.448984
0.448161
0.447317
0.446447
0.445541
0.444588
0.443576
0.442493
0.44132
0.440034
0.438608
0.436998
0.435143
0.432949
0.430263
0.426815
0.422094
0.41497
0.402354
0.371429
0.214322
0.00524497
0.0011
0.0011
0.0011
0.0011
0.0011
0.0011
0.0011
0.0011
0.0011
0.0011
0.0011
0.0011
0.0011
0.545322
0.546062
0.546746
0.547372
0.547938
0.548442
0.548882
0.549259
0.549572
0.549822
0.550009
0.550134
0.5502
0.550208
0.55016
0.550058
0.549904
0.5497
0.549449
0.549154
0.548816
0.548438
0.548023
0.547572
0.547088
0.546572
0.546028
0.545457
0.544861
0.544241
0.543599
0.542938
0.542258
0.541561
0.540848
0.540121
0.539381
0.538628
0.537864
0.537091
0.536308
0.535517
0.534719
0.533913
0.533102
0.532286
0.531464
0.530639
0.52981
0.528978
0.528143
0.527305
0.526466
0.525625
0.524783
0.52394
0.523097
0.522252
0.521408
0.520564
0.519719
0.518875
0.518032
0.517189
0.516347
0.515506
0.514666
0.513826
0.512988
0.512151
0.511316
0.510481
0.509648
0.508816
0.507985
0.507156
0.506328
0.505502
0.504677
0.503853
0.503031
0.50221
0.50139
0.500572
0.499755
0.498939
0.498124
0.497311
0.496499
0.495688
0.494878
0.494069
0.493261
0.492455
0.491649
0.490844
0.49004
0.489237
0.488435
0.487634
0.486833
0.486033
0.485234
0.484435
0.483637
0.48284
0.482043
0.481246
0.480449
0.479653
0.478857
0.478061
0.477266
0.47647
0.475674
0.474878
0.474081
0.473285
0.472487
0.471689
0.47089
0.470091
0.46929
0.468488
0.467684
0.466879
0.466071
0.465261
0.464449
0.463634
0.462815
0.461993
0.461167
0.460338
0.459504
0.458666
0.457825
0.456981
0.456136
0.455289
0.454442
0.453596
0.452751
0.451906
0.451056
0.450197
0.449324
0.448429
0.447508
0.446551
0.44555
0.444493
0.443367
0.442156
0.440839
0.439388
0.437763
0.435909
0.433738
0.431112
0.427793
0.423339
0.416811
0.405776
0.381276
0.275433
0.0198208
0.00110005
0.0011
0.0011
0.0011
0.0011
0.0011
0.0011
0.0011
0.0011
0.0011
0.0011
0.0011
0.0011
0.551304
0.552183
0.552998
0.553743
0.554416
0.555015
0.555538
0.555987
0.556359
0.556657
0.556881
0.557034
0.557117
0.557133
0.557084
0.556974
0.556805
0.55658
0.556301
0.555973
0.555598
0.555179
0.554719
0.55422
0.553685
0.553116
0.552517
0.551889
0.551234
0.550555
0.549852
0.54913
0.548387
0.547628
0.546852
0.546062
0.545258
0.544442
0.543615
0.542778
0.541933
0.541079
0.540218
0.53935
0.538477
0.537599
0.536717
0.53583
0.534941
0.534049
0.533154
0.532257
0.531359
0.53046
0.52956
0.528659
0.527758
0.526857
0.525957
0.525056
0.524156
0.523257
0.522359
0.521462
0.520566
0.519671
0.518778
0.517885
0.516995
0.516106
0.515218
0.514332
0.513448
0.512566
0.511685
0.510806
0.509928
0.509053
0.508179
0.507307
0.506436
0.505568
0.504701
0.503835
0.502972
0.50211
0.501249
0.50039
0.499533
0.498677
0.497823
0.49697
0.496119
0.495269
0.49442
0.493573
0.492727
0.491882
0.491038
0.490196
0.489354
0.488514
0.487675
0.486836
0.485999
0.485162
0.484326
0.483491
0.482657
0.481823
0.48099
0.480157
0.479325
0.478492
0.477661
0.476829
0.475997
0.475165
0.474333
0.473501
0.472668
0.471834
0.471
0.470165
0.469329
0.468491
0.467652
0.466811
0.465967
0.465122
0.464274
0.463422
0.462568
0.461711
0.46085
0.459987
0.459121
0.458252
0.457382
0.45651
0.455637
0.454763
0.453887
0.453007
0.45212
0.451221
0.450307
0.449373
0.44841
0.447413
0.446373
0.44528
0.44412
0.44288
0.441539
0.44007
0.438437
0.436587
0.434439
0.431869
0.428664
0.424436
0.41839
0.408556
0.388317
0.315313
0.0509336
0.00110338
0.0011
0.0011
0.0011
0.0011
0.0011
0.0011
0.0011
0.0011
0.0011
0.0011
0.0011
0.0011
0.556908
0.557945
0.558906
0.559784
0.560576
0.56128
0.561895
0.56242
0.562856
0.563204
0.563465
0.563644
0.563741
0.563762
0.563708
0.563584
0.563393
0.56314
0.562828
0.56246
0.56204
0.561572
0.56106
0.560506
0.559913
0.559284
0.558623
0.557931
0.557211
0.556466
0.555698
0.554908
0.554099
0.553272
0.552429
0.551571
0.5507
0.549817
0.548923
0.54802
0.547109
0.54619
0.545264
0.544332
0.543395
0.542454
0.541509
0.540561
0.53961
0.538657
0.537702
0.536746
0.535789
0.534832
0.533874
0.532917
0.531959
0.531003
0.530046
0.529091
0.528137
0.527185
0.526234
0.525284
0.524336
0.52339
0.522445
0.521503
0.520562
0.519624
0.518687
0.517753
0.516821
0.515891
0.514963
0.514037
0.513114
0.512193
0.511273
0.510357
0.509442
0.508529
0.507619
0.50671
0.505804
0.5049
0.503998
0.503097
0.502199
0.501303
0.500408
0.499516
0.498625
0.497736
0.496849
0.495963
0.495079
0.494197
0.493316
0.492437
0.491559
0.490683
0.489808
0.488934
0.488062
0.487191
0.48632
0.485451
0.484583
0.483716
0.48285
0.481984
0.48112
0.480256
0.479392
0.478529
0.477666
0.476803
0.475941
0.475078
0.474216
0.473353
0.472489
0.471625
0.47076
0.469894
0.469027
0.468159
0.467288
0.466416
0.465542
0.464666
0.463787
0.462905
0.462021
0.461134
0.460245
0.459354
0.458461
0.457566
0.456669
0.455768
0.454864
0.453954
0.453035
0.452104
0.451157
0.450188
0.449193
0.448163
0.447091
0.445968
0.444782
0.443518
0.442157
0.440676
0.439037
0.437193
0.435069
0.43255
0.429445
0.425411
0.419761
0.410865
0.393635
0.340347
0.0961555
0.00117034
0.0011
0.0011
0.0011
0.0011
0.0011
0.0011
0.0011
0.0011
0.0011
0.0011
0.0011
0.0011
0.562175
0.56339
0.564514
0.565541
0.566467
0.567287
0.568002
0.56861
0.569113
0.569513
0.569812
0.570014
0.570123
0.570143
0.570078
0.569934
0.569715
0.569426
0.569072
0.568656
0.568184
0.567659
0.567086
0.566469
0.56581
0.565114
0.564384
0.563622
0.562831
0.562014
0.561174
0.560312
0.55943
0.558531
0.557617
0.556688
0.555746
0.554793
0.55383
0.552858
0.551879
0.550892
0.5499
0.548903
0.547901
0.546896
0.545888
0.544878
0.543865
0.542852
0.541837
0.540822
0.539807
0.538793
0.537778
0.536765
0.535753
0.534742
0.533732
0.532724
0.531718
0.530714
0.529712
0.528712
0.527715
0.52672
0.525727
0.524737
0.52375
0.522765
0.521782
0.520803
0.519826
0.518852
0.51788
0.516912
0.515946
0.514982
0.514022
0.513064
0.512108
0.511156
0.510206
0.509258
0.508313
0.50737
0.50643
0.505493
0.504557
0.503625
0.502694
0.501766
0.500839
0.499915
0.498994
0.498074
0.497156
0.49624
0.495326
0.494414
0.493504
0.492596
0.491689
0.490784
0.48988
0.488978
0.488078
0.487179
0.486281
0.485384
0.484489
0.483594
0.482701
0.481809
0.480917
0.480026
0.479136
0.478246
0.477356
0.476467
0.475578
0.474689
0.4738
0.472911
0.472021
0.47113
0.470238
0.469346
0.468452
0.467556
0.466659
0.46576
0.464859
0.463956
0.463051
0.462143
0.461234
0.460323
0.459408
0.458492
0.457572
0.456648
0.455719
0.454782
0.453836
0.452878
0.451902
0.450905
0.449881
0.448823
0.447725
0.446578
0.445369
0.444086
0.442711
0.441219
0.439577
0.43774
0.435639
0.433166
0.43015
0.426282
0.420963
0.412817
0.397809
0.356837
0.149601
0.00174609
0.0011
0.0011
0.0011
0.0011
0.0011
0.0011
0.0011
0.0011
0.0011
0.0011
0.0011
0.0011
0.567131
0.568547
0.569857
0.571052
0.572126
0.573076
0.5739
0.574599
0.575173
0.575626
0.575962
0.576185
0.5763
0.576314
0.576232
0.57606
0.575804
0.57547
0.575064
0.574591
0.574057
0.573467
0.572825
0.572136
0.571403
0.570632
0.569825
0.568986
0.568118
0.567223
0.566305
0.565366
0.564408
0.563433
0.562443
0.561439
0.560424
0.559398
0.558364
0.557321
0.556272
0.555218
0.554158
0.553095
0.552028
0.550959
0.549888
0.548816
0.547743
0.54667
0.545596
0.544524
0.543452
0.542382
0.541313
0.540245
0.53918
0.538117
0.537056
0.535998
0.534942
0.533889
0.532839
0.531792
0.530748
0.529707
0.52867
0.527635
0.526604
0.525576
0.524551
0.52353
0.522512
0.521497
0.520485
0.519477
0.518472
0.51747
0.516472
0.515476
0.514484
0.513495
0.512509
0.511526
0.510546
0.509569
0.508594
0.507623
0.506654
0.505689
0.504726
0.503765
0.502807
0.501852
0.500899
0.499949
0.499001
0.498055
0.497112
0.496171
0.495232
0.494295
0.49336
0.492427
0.491496
0.490566
0.489639
0.488713
0.487789
0.486866
0.485944
0.485024
0.484106
0.483188
0.482272
0.481356
0.480442
0.479528
0.478614
0.477702
0.476789
0.475877
0.474965
0.474053
0.473141
0.472229
0.471315
0.470401
0.469486
0.46857
0.467653
0.466734
0.465813
0.464891
0.463967
0.463041
0.462113
0.461182
0.460248
0.459312
0.458371
0.457426
0.456475
0.455515
0.454545
0.453562
0.452562
0.45154
0.450492
0.449411
0.448291
0.447123
0.445896
0.444597
0.443209
0.441709
0.440066
0.438237
0.436157
0.433727
0.430788
0.427065
0.422024
0.414487
0.401172
0.368255
0.204413
0.00449916
0.0011
0.0011
0.0011
0.0011
0.0011
0.0011
0.0011
0.0011
0.0011
0.0011
0.0011
0.0011
0.571791
0.573436
0.574956
0.576342
0.577584
0.578679
0.579624
0.580421
0.581071
0.581578
0.581949
0.582189
0.582305
0.582304
0.582196
0.581986
0.581683
0.581293
0.580825
0.580284
0.579678
0.579011
0.57829
0.57752
0.576705
0.575851
0.57496
0.574037
0.573085
0.572107
0.571106
0.570085
0.569046
0.567991
0.566923
0.565842
0.564751
0.563652
0.562544
0.56143
0.560311
0.559188
0.558061
0.556932
0.555801
0.554668
0.553536
0.552403
0.551271
0.550139
0.54901
0.547881
0.546755
0.545631
0.54451
0.543391
0.542275
0.541163
0.540054
0.538948
0.537846
0.536747
0.535652
0.534561
0.533474
0.53239
0.531311
0.530235
0.529163
0.528096
0.527032
0.525972
0.524916
0.523864
0.522816
0.521772
0.520731
0.519694
0.518661
0.517632
0.516607
0.515584
0.514566
0.513551
0.512539
0.511531
0.510526
0.509525
0.508527
0.507531
0.506539
0.50555
0.504564
0.503581
0.502601
0.501623
0.500648
0.499676
0.498706
0.497739
0.496774
0.495812
0.494852
0.493894
0.492939
0.491985
0.491034
0.490084
0.489136
0.48819
0.487246
0.486303
0.485362
0.484422
0.483484
0.482546
0.48161
0.480675
0.47974
0.478807
0.477874
0.476941
0.476009
0.475077
0.474145
0.473213
0.47228
0.471347
0.470413
0.469479
0.468543
0.467606
0.466668
0.465729
0.464788
0.463845
0.462899
0.46195
0.460999
0.460044
0.459085
0.45812
0.457149
0.456169
0.455178
0.454173
0.453151
0.452108
0.451039
0.449938
0.448799
0.447613
0.44637
0.445057
0.443659
0.442153
0.44051
0.438689
0.436628
0.434237
0.431368
0.42777
0.422966
0.41593
0.403933
0.376502
0.252465
0.0127419
0.00110001
0.0011
0.0011
0.0011
0.0011
0.0011
0.0011
0.0011
0.0011
0.0011
0.0011
0.0011
0.576162
0.578069
0.579831
0.581434
0.582867
0.584125
0.585206
0.586109
0.586839
0.587401
0.587803
0.588054
0.588162
0.588137
0.58799
0.587729
0.587366
0.586908
0.586364
0.585743
0.585052
0.584298
0.583487
0.582626
0.58172
0.580773
0.579791
0.578777
0.577735
0.576669
0.575581
0.574475
0.573352
0.572215
0.571066
0.569907
0.568739
0.567564
0.566384
0.565199
0.56401
0.562819
0.561626
0.560432
0.559238
0.558044
0.556852
0.555661
0.554471
0.553284
0.5521
0.550919
0.549741
0.548567
0.547396
0.546229
0.545066
0.543907
0.542753
0.541603
0.540457
0.539316
0.53818
0.537048
0.535921
0.534798
0.53368
0.532567
0.531458
0.530354
0.529255
0.52816
0.52707
0.525984
0.524903
0.523826
0.522753
0.521685
0.520621
0.519561
0.518506
0.517454
0.516407
0.515363
0.514323
0.513287
0.512255
0.511226
0.510201
0.50918
0.508162
0.507147
0.506136
0.505128
0.504123
0.503121
0.502122
0.501126
0.500133