/*--------------------------------*- C++ -*----------------------------------*\
  =========                 |
  \\      /  F ield         | OpenFOAM: The Open Source CFD Toolbox
   \\    /   O peration     | Website:  https://openfoam.org
    \\  /    A nd           | Version:  10
     \\/     M anipulation  |
\*---------------------------------------------------------------------------*/
FoamFile
{
    format      ascii;
    class       volScalarField;
    location    "0.038";
    object      pPrime2Mean;
}
// * * * * * * * * * * * * * * * * * * * * * * * * * * * * * * * * * * * * * //

dimensions      [0 4 -4 0 0 0 0];

internalField   nonuniform List<scalar> 
12225
(
1.09756e+07
1.08013e+07
1.06219e+07
1.04486e+07
1.02819e+07
1.01214e+07
9.96673e+06
9.81739e+06
9.67294e+06
9.53289e+06
9.39666e+06
9.26363e+06
9.13301e+06
9.00383e+06
8.87471e+06
8.74352e+06
8.60649e+06
8.45393e+06
1.09759e+07
1.08014e+07
1.0622e+07
1.04487e+07
1.0282e+07
1.01215e+07
9.96687e+06
9.81755e+06
9.67314e+06
9.53313e+06
9.39697e+06
9.26403e+06
9.13355e+06
9.00458e+06
8.87582e+06
8.74534e+06
8.60991e+06
8.46243e+06
1.09762e+07
1.08016e+07
1.06222e+07
1.04489e+07
1.02823e+07
1.01218e+07
9.96717e+06
9.81791e+06
9.67358e+06
9.53368e+06
9.39766e+06
9.26492e+06
9.13474e+06
9.00622e+06
8.87823e+06
8.74917e+06
8.61678e+06
8.4783e+06
1.09766e+07
1.0802e+07
1.06225e+07
1.04493e+07
1.02826e+07
1.01222e+07
9.96768e+06
9.81851e+06
9.67431e+06
9.53458e+06
9.3988e+06
9.26638e+06
9.13668e+06
9.00889e+06
8.88208e+06
8.75511e+06
8.62682e+06
8.49733e+06
1.0977e+07
1.08024e+07
1.0623e+07
1.04498e+07
1.02832e+07
1.01229e+07
9.96842e+06
9.8194e+06
9.67538e+06
9.53589e+06
9.40045e+06
9.26851e+06
9.13948e+06
9.01269e+06
8.88746e+06
8.76311e+06
8.63941e+06
8.5179e+06
1.09777e+07
1.08031e+07
1.06237e+07
1.04505e+07
1.0284e+07
1.01238e+07
9.96944e+06
9.82061e+06
9.67684e+06
9.5377e+06
9.40271e+06
9.27139e+06
9.14323e+06
9.01772e+06
8.8944e+06
8.77302e+06
8.65395e+06
8.53918e+06
1.09785e+07
1.0804e+07
1.06246e+07
1.04515e+07
1.0285e+07
1.01249e+07
9.97079e+06
9.82221e+06
9.67877e+06
9.54005e+06
9.40564e+06
9.2751e+06
9.14802e+06
9.02403e+06
8.90288e+06
8.78464e+06
8.67e+06
8.56082e+06
1.09795e+07
1.08051e+07
1.06258e+07
1.04527e+07
1.02864e+07
1.01264e+07
9.97252e+06
9.82424e+06
9.68121e+06
9.54303e+06
9.40933e+06
9.27973e+06
9.1539e+06
9.03162e+06
8.91282e+06
8.79774e+06
8.68717e+06
8.58265e+06
1.09811e+07
1.08066e+07
1.06273e+07
1.04542e+07
1.0288e+07
1.01283e+07
9.97467e+06
9.82677e+06
9.68423e+06
9.5467e+06
9.41383e+06
9.28531e+06
9.16091e+06
9.04049e+06
8.92411e+06
8.81211e+06
8.70522e+06
8.60459e+06
1.09829e+07
1.08085e+07
1.06291e+07
1.04561e+07
1.02901e+07
1.01306e+07
9.9773e+06
9.82985e+06
9.6879e+06
9.55111e+06
9.41919e+06
9.29189e+06
9.16904e+06
9.05059e+06
8.93664e+06
8.82756e+06
8.72393e+06
8.62658e+06
1.09856e+07
1.08108e+07
1.06314e+07
1.04585e+07
1.02926e+07
1.01334e+07
9.98047e+06
9.83353e+06
9.69225e+06
9.55631e+06
9.42546e+06
9.29949e+06
9.17828e+06
9.06183e+06
8.95026e+06
8.84389e+06
8.74316e+06
8.6486e+06
1.0988e+07
1.08133e+07
1.06339e+07
1.0461e+07
1.02953e+07
1.01364e+07
9.98389e+06
9.83751e+06
9.69691e+06
9.56184e+06
9.43205e+06
9.30738e+06
9.18772e+06
9.0731e+06
8.96363e+06
8.85954e+06
8.76115e+06
8.6688e+06
1.09916e+07
1.08163e+07
1.06367e+07
1.04639e+07
1.02984e+07
1.01398e+07
9.98776e+06
9.84197e+06
9.70212e+06
9.56797e+06
9.43929e+06
9.31595e+06
9.19785e+06
9.08501e+06
8.97751e+06
8.87552e+06
8.77922e+06
8.68879e+06
1.09962e+07
1.08203e+07
1.06405e+07
1.04677e+07
1.03025e+07
1.01443e+07
9.99281e+06
9.84776e+06
9.70884e+06
9.5758e+06
9.44845e+06
9.32664e+06
9.21031e+06
9.09943e+06
8.99403e+06
8.8942e+06
8.80001e+06
8.7115e+06
1.10022e+07
1.08255e+07
1.06454e+07
1.04727e+07
1.03078e+07
1.01501e+07
9.99935e+06
9.85522e+06
9.71741e+06
9.58569e+06
9.45987e+06
9.33981e+06
9.22541e+06
9.11661e+06
9.01339e+06
8.91574e+06
8.82363e+06
8.73699e+06
1.10095e+07
1.08321e+07
1.06518e+07
1.04792e+07
1.03146e+07
1.01576e+07
1.00077e+07
9.86467e+06
9.72817e+06
9.59797e+06
9.47387e+06
9.35571e+06
9.24336e+06
9.13671e+06
9.03566e+06
8.94014e+06
8.85002e+06
8.76516e+06
1.10183e+07
1.08403e+07
1.06597e+07
1.04873e+07
1.03233e+07
1.0167e+07
1.00182e+07
9.87639e+06
9.74137e+06
9.61284e+06
9.49058e+06
9.37441e+06
9.26414e+06
9.15962e+06
9.06068e+06
8.96717e+06
8.87891e+06
8.79571e+06
1.10281e+07
1.08498e+07
1.06692e+07
1.04972e+07
1.03338e+07
1.01785e+07
1.00308e+07
9.89042e+06
9.75699e+06
9.63022e+06
9.50986e+06
9.39567e+06
9.28743e+06
9.18492e+06
9.08795e+06
8.99628e+06
8.90971e+06
8.82799e+06
1.10389e+07
1.08604e+07
1.068e+07
1.05085e+07
1.03459e+07
1.01917e+07
1.00453e+07
9.90637e+06
9.77456e+06
9.64954e+06
9.53101e+06
9.4187e+06
9.31233e+06
9.21166e+06
9.11642e+06
9.02638e+06
8.94128e+06
8.86087e+06
1.10469e+07
1.08685e+07
1.06886e+07
1.05177e+07
1.03559e+07
1.02025e+07
1.00572e+07
9.9194e+06
9.78881e+06
9.66506e+06
9.54782e+06
9.43681e+06
9.33171e+06
9.23226e+06
9.13818e+06
9.04919e+06
8.96504e+06
8.88548e+06
1.10507e+07
1.08733e+07
1.0694e+07
1.05237e+07
1.03625e+07
1.02099e+07
1.00652e+07
9.9282e+06
9.7984e+06
9.67546e+06
9.55903e+06
9.44882e+06
9.3445e+06
9.24578e+06
9.15238e+06
9.06403e+06
8.98045e+06
8.90139e+06
1.10537e+07
1.08765e+07
1.06977e+07
1.05279e+07
1.03673e+07
1.02152e+07
1.00711e+07
9.93462e+06
9.80538e+06
9.68301e+06
9.56715e+06
9.45748e+06
9.35369e+06
9.25547e+06
9.16254e+06
9.07461e+06
8.99141e+06
8.91268e+06
1.1054e+07
1.08782e+07
1.07001e+07
1.05309e+07
1.03707e+07
1.0219e+07
1.00753e+07
9.93923e+06
9.81039e+06
9.68842e+06
9.57295e+06
9.46366e+06
9.36023e+06
9.26235e+06
9.16973e+06
9.08209e+06
8.99915e+06
8.92064e+06
1.10547e+07
1.08793e+07
1.07017e+07
1.05328e+07
1.0373e+07
1.02216e+07
1.00782e+07
9.94247e+06
9.81392e+06
9.69222e+06
9.57703e+06
9.468e+06
9.36482e+06
9.26717e+06
9.17477e+06
9.08732e+06
9.00455e+06
8.9262e+06
1.10548e+07
1.08798e+07
1.07027e+07
1.05342e+07
1.03746e+07
1.02234e+07
1.00803e+07
9.94471e+06
9.81636e+06
9.69485e+06
9.57984e+06
9.47099e+06
9.36798e+06
9.27049e+06
9.17823e+06
9.09091e+06
9.00825e+06
8.93001e+06
1.10539e+07
1.088e+07
1.07033e+07
1.0535e+07
1.03756e+07
1.02247e+07
1.00816e+07
9.94621e+06
9.81799e+06
9.69662e+06
9.58173e+06
9.473e+06
9.3701e+06
9.27271e+06
9.18054e+06
9.09331e+06
9.01073e+06
8.93255e+06
1.10533e+07
1.088e+07
1.07036e+07
1.05356e+07
1.03763e+07
1.02254e+07
1.00825e+07
9.94718e+06
9.81905e+06
9.69776e+06
9.58295e+06
9.47429e+06
9.37146e+06
9.27414e+06
9.18204e+06
9.09486e+06
9.01233e+06
8.93419e+06
1.10531e+07
1.088e+07
1.07038e+07
1.05359e+07
1.03767e+07
1.02259e+07
1.00831e+07
9.94777e+06
9.81969e+06
9.69845e+06
9.58369e+06
9.47508e+06
9.37229e+06
9.27501e+06
9.18294e+06
9.09579e+06
9.0133e+06
8.93519e+06
1.1053e+07
1.088e+07
1.07039e+07
1.05361e+07
1.03769e+07
1.02262e+07
1.00833e+07
9.94809e+06
9.82004e+06
9.69882e+06
9.58409e+06
9.4755e+06
9.37273e+06
9.27548e+06
9.18343e+06
9.0963e+06
9.01382e+06
8.93572e+06
1.1053e+07
1.088e+07
1.0704e+07
1.05361e+07
1.0377e+07
1.02263e+07
1.00835e+07
9.94822e+06
9.82018e+06
9.69897e+06
9.58425e+06
9.47567e+06
9.37291e+06
9.27566e+06
9.18362e+06
9.0965e+06
9.01403e+06
8.93594e+06
7.14554e+06
7.14497e+06
7.14383e+06
7.14209e+06
7.13975e+06
7.13679e+06
7.13321e+06
7.129e+06
7.12416e+06
7.11867e+06
7.11253e+06
7.10574e+06
7.09828e+06
7.09014e+06
7.08133e+06
7.07183e+06
7.06165e+06
7.05078e+06
7.03923e+06
7.027e+06
7.01408e+06
7.00049e+06
6.98623e+06
6.97131e+06
6.95572e+06
6.93949e+06
6.9226e+06
6.90507e+06
6.8869e+06
6.86811e+06
6.84868e+06
6.82864e+06
6.808e+06
6.78676e+06
6.76493e+06
6.74254e+06
6.71957e+06
6.69605e+06
6.67199e+06
6.64737e+06
6.62222e+06
6.59654e+06
6.57033e+06
6.5436e+06
6.51636e+06
6.48861e+06
6.46038e+06
6.43166e+06
6.40246e+06
6.37281e+06
6.3427e+06
6.31214e+06
6.28116e+06
6.24976e+06
6.21794e+06
6.18572e+06
6.15311e+06
6.1201e+06
6.08672e+06
6.05296e+06
6.01884e+06
5.98436e+06
5.94952e+06
5.91433e+06
5.8788e+06
5.84293e+06
5.80673e+06
5.77021e+06
5.73336e+06
5.6962e+06
5.65873e+06
5.62096e+06
5.58289e+06
5.54453e+06
5.5059e+06
5.46699e+06
5.42782e+06
5.38839e+06
5.34871e+06
5.30879e+06
5.26864e+06
5.22825e+06
5.18763e+06
5.1468e+06
5.10575e+06
5.06449e+06
5.02303e+06
4.98136e+06
4.93951e+06
4.89746e+06
4.85522e+06
4.81281e+06
4.77022e+06
4.72745e+06
4.68451e+06
4.64141e+06
4.59814e+06
4.55472e+06
4.51114e+06
4.4674e+06
4.42352e+06
4.37949e+06
4.33531e+06
4.291e+06
4.24655e+06
4.20198e+06
4.15727e+06
4.11244e+06
4.06749e+06
4.02243e+06
3.97726e+06
3.93197e+06
3.88659e+06
3.84111e+06
3.79553e+06
3.74986e+06
3.70411e+06
3.65827e+06
3.61236e+06
3.56638e+06
3.52033e+06
3.47422e+06
3.42805e+06
3.38183e+06
3.33556e+06
3.28925e+06
3.2429e+06
3.19652e+06
3.15011e+06
3.10368e+06
3.05723e+06
3.01078e+06
2.96432e+06
2.91786e+06
2.87141e+06
2.82497e+06
2.77855e+06
2.73216e+06
2.68581e+06
2.63949e+06
2.59321e+06
2.54699e+06
2.50083e+06
2.45474e+06
2.40872e+06
2.36279e+06
2.31694e+06
2.27119e+06
2.22555e+06
2.18002e+06
2.13461e+06
2.08933e+06
2.0442e+06
1.9992e+06
1.95437e+06
1.9097e+06
1.86521e+06
1.8209e+06
1.77679e+06
1.73288e+06
1.68919e+06
1.64572e+06
1.6025e+06
1.55952e+06
1.51681e+06
1.47437e+06
1.43221e+06
1.39036e+06
1.34883e+06
1.30762e+06
1.26677e+06
1.22629e+06
1.18619e+06
1.14651e+06
1.10728e+06
1.06853e+06
1.03033e+06
992732
955888
920080
7.14814e+06
7.14757e+06
7.14642e+06
7.14467e+06
7.14232e+06
7.13934e+06
7.13574e+06
7.13151e+06
7.12664e+06
7.12113e+06
7.11496e+06
7.10813e+06
7.10063e+06
7.09245e+06
7.08359e+06
7.07405e+06
7.06382e+06
7.0529e+06
7.0413e+06
7.02901e+06
7.01604e+06
7.00239e+06
6.98808e+06
6.97309e+06
6.95745e+06
6.94116e+06
6.92422e+06
6.90664e+06
6.88842e+06
6.86957e+06
6.8501e+06
6.83002e+06
6.80934e+06
6.78806e+06
6.76619e+06
6.74375e+06
6.72074e+06
6.69717e+06
6.67306e+06
6.6484e+06
6.6232e+06
6.59747e+06
6.57122e+06
6.54445e+06
6.51717e+06
6.48939e+06
6.46112e+06
6.43236e+06
6.40313e+06
6.37344e+06
6.3433e+06
6.31272e+06
6.28171e+06
6.25028e+06
6.21843e+06
6.18619e+06
6.15355e+06
6.12052e+06
6.08712e+06
6.05334e+06
6.01919e+06
5.98469e+06
5.94983e+06
5.91463e+06
5.87908e+06
5.8432e+06
5.80699e+06
5.77045e+06
5.73359e+06
5.69641e+06
5.65893e+06
5.62114e+06
5.58306e+06
5.5447e+06
5.50605e+06
5.46713e+06
5.42795e+06
5.38852e+06
5.34883e+06
5.3089e+06
5.26874e+06
5.22834e+06
5.18772e+06
5.14688e+06
5.10583e+06
5.06457e+06
5.0231e+06
4.98143e+06
4.93957e+06
4.89751e+06
4.85528e+06
4.81286e+06
4.77026e+06
4.72749e+06
4.68455e+06
4.64145e+06
4.59818e+06
4.55475e+06
4.51116e+06
4.46743e+06
4.42354e+06
4.37951e+06
4.33533e+06
4.29102e+06
4.24657e+06
4.20199e+06
4.15729e+06
4.11246e+06
4.06751e+06
4.02244e+06
3.97727e+06
3.93198e+06
3.8866e+06
3.84111e+06
3.79553e+06
3.74987e+06
3.70411e+06
3.65828e+06
3.61237e+06
3.56638e+06
3.52034e+06
3.47422e+06
3.42805e+06
3.38183e+06
3.33556e+06
3.28925e+06
3.2429e+06
3.19652e+06
3.15011e+06
3.10368e+06
3.05724e+06
3.01078e+06
2.96432e+06
2.91786e+06
2.87141e+06
2.82497e+06
2.77856e+06
2.73216e+06
2.68581e+06
2.63949e+06
2.59321e+06
2.54699e+06
2.50084e+06
2.45474e+06
2.40873e+06
2.36279e+06
2.31694e+06
2.27119e+06
2.22555e+06
2.18002e+06
2.13461e+06
2.08933e+06
2.0442e+06
1.9992e+06
1.95437e+06
1.9097e+06
1.86521e+06
1.8209e+06
1.77679e+06
1.73288e+06
1.68919e+06
1.64572e+06
1.6025e+06
1.55952e+06
1.5168e+06
1.47436e+06
1.43221e+06
1.39036e+06
1.34882e+06
1.30762e+06
1.26676e+06
1.22628e+06
1.18618e+06
1.1465e+06
1.10726e+06
1.0685e+06
1.03028e+06
992663
955764
919787
7.15332e+06
7.15274e+06
7.15157e+06
7.1498e+06
7.14742e+06
7.14442e+06
7.14079e+06
7.13653e+06
7.13162e+06
7.12605e+06
7.11982e+06
7.11292e+06
7.10535e+06
7.09709e+06
7.08814e+06
7.0785e+06
7.06817e+06
7.05715e+06
7.04544e+06
7.03304e+06
7.01996e+06
7.0062e+06
6.99177e+06
6.97667e+06
6.96091e+06
6.9445e+06
6.92745e+06
6.90975e+06
6.89143e+06
6.87248e+06
6.85291e+06
6.83274e+06
6.81196e+06
6.79059e+06
6.76864e+06
6.74611e+06
6.72301e+06
6.69936e+06
6.67515e+06
6.6504e+06
6.62512e+06
6.59931e+06
6.57298e+06
6.54613e+06
6.51877e+06
6.49092e+06
6.46258e+06
6.43375e+06
6.40446e+06
6.3747e+06
6.3445e+06
6.31385e+06
6.28278e+06
6.25129e+06
6.2194e+06
6.1871e+06
6.15441e+06
6.12134e+06
6.08788e+06
6.05406e+06
6.01988e+06
5.98534e+06
5.95045e+06
5.91521e+06
5.87963e+06
5.84372e+06
5.80748e+06
5.77091e+06
5.73403e+06
5.69683e+06
5.65932e+06
5.62151e+06
5.58341e+06
5.54502e+06
5.50635e+06
5.46742e+06
5.42822e+06
5.38876e+06
5.34906e+06
5.30912e+06
5.26894e+06
5.22853e+06
5.1879e+06
5.14705e+06
5.10599e+06
5.06471e+06
5.02323e+06
4.98156e+06
4.93969e+06
4.89762e+06
4.85538e+06
4.81295e+06
4.77035e+06
4.72757e+06
4.68463e+06
4.64152e+06
4.59824e+06
4.55481e+06
4.51122e+06
4.46748e+06
4.42359e+06
4.37955e+06
4.33537e+06
4.29106e+06
4.2466e+06
4.20202e+06
4.15731e+06
4.11248e+06
4.06753e+06
4.02246e+06
3.97729e+06
3.932e+06
3.88661e+06
3.84113e+06
3.79555e+06
3.74988e+06
3.70412e+06
3.65829e+06
3.61238e+06
3.56639e+06
3.52034e+06
3.47423e+06
3.42806e+06
3.38184e+06
3.33557e+06
3.28926e+06
3.24291e+06
3.19652e+06
3.15012e+06
3.10369e+06
3.05724e+06
3.01078e+06
2.96432e+06
2.91786e+06
2.87141e+06
2.82497e+06
2.77856e+06
2.73217e+06
2.68581e+06
2.63949e+06
2.59322e+06
2.547e+06
2.50084e+06
2.45474e+06
2.40873e+06
2.36279e+06
2.31694e+06
2.2712e+06
2.22555e+06
2.18002e+06
2.13461e+06
2.08933e+06
2.0442e+06
1.9992e+06
1.95437e+06
1.9097e+06
1.86521e+06
1.8209e+06
1.77678e+06
1.73288e+06
1.68919e+06
1.64572e+06
1.60249e+06
1.55952e+06
1.5168e+06
1.47436e+06
1.43221e+06
1.39035e+06
1.34881e+06
1.30761e+06
1.26675e+06
1.22626e+06
1.18616e+06
1.14647e+06
1.10722e+06
1.06844e+06
1.0302e+06
992532
955539
919331
7.16113e+06
7.16053e+06
7.15934e+06
7.15755e+06
7.15513e+06
7.1521e+06
7.14842e+06
7.14409e+06
7.1391e+06
7.13345e+06
7.12712e+06
7.12011e+06
7.11241e+06
7.10402e+06
7.09493e+06
7.08515e+06
7.07467e+06
7.06349e+06
7.05162e+06
7.03906e+06
7.02581e+06
7.01188e+06
6.99728e+06
6.98202e+06
6.96609e+06
6.94951e+06
6.93229e+06
6.91443e+06
6.89594e+06
6.87683e+06
6.85711e+06
6.83678e+06
6.81586e+06
6.79435e+06
6.77225e+06
6.74959e+06
6.72636e+06
6.70258e+06
6.67825e+06
6.65337e+06
6.62797e+06
6.60203e+06
6.57558e+06
6.54862e+06
6.52115e+06
6.49319e+06
6.46474e+06
6.43581e+06
6.40641e+06
6.37656e+06
6.34626e+06
6.31553e+06
6.28437e+06
6.2528e+06
6.22082e+06
6.18844e+06
6.15568e+06
6.12254e+06
6.08902e+06
6.05514e+06
6.0209e+06
5.98631e+06
5.95136e+06
5.91608e+06
5.88045e+06
5.8445e+06
5.80822e+06
5.77161e+06
5.73469e+06
5.69745e+06
5.65991e+06
5.62206e+06
5.58393e+06
5.5455e+06
5.5068e+06
5.46784e+06
5.42861e+06
5.38913e+06
5.3494e+06
5.30944e+06
5.26924e+06
5.22881e+06
5.18817e+06
5.1473e+06
5.10622e+06
5.06493e+06
5.02344e+06
4.98175e+06
4.93986e+06
4.89779e+06
4.85553e+06
4.81309e+06
4.77048e+06
4.72769e+06
4.68474e+06
4.64162e+06
4.59834e+06
4.5549e+06
4.5113e+06
4.46755e+06
4.42366e+06
4.37962e+06
4.33543e+06
4.29111e+06
4.24666e+06
4.20207e+06
4.15736e+06
4.11252e+06
4.06757e+06
4.0225e+06
3.97732e+06
3.93203e+06
3.88664e+06
3.84115e+06
3.79557e+06
3.7499e+06
3.70414e+06
3.6583e+06
3.61239e+06
3.56641e+06
3.52036e+06
3.47424e+06
3.42807e+06
3.38185e+06
3.33558e+06
3.28926e+06
3.24291e+06
3.19653e+06
3.15012e+06
3.10369e+06
3.05724e+06
3.01079e+06
2.96433e+06
2.91787e+06
2.87141e+06
2.82498e+06
2.77856e+06
2.73217e+06
2.68581e+06
2.63949e+06
2.59322e+06
2.547e+06
2.50084e+06
2.45474e+06
2.40873e+06
2.36279e+06
2.31695e+06
2.2712e+06
2.22555e+06
2.18002e+06
2.13461e+06
2.08934e+06
2.0442e+06
1.9992e+06
1.95437e+06
1.9097e+06
1.86521e+06
1.8209e+06
1.77678e+06
1.73288e+06
1.68918e+06
1.64572e+06
1.60249e+06
1.55951e+06
1.5168e+06
1.47435e+06
1.4322e+06
1.39034e+06
1.3488e+06
1.30759e+06
1.26673e+06
1.22623e+06
1.18612e+06
1.14642e+06
1.10715e+06
1.06836e+06
1.03007e+06
992347
955241
918802
7.17162e+06
7.17101e+06
7.16979e+06
7.16796e+06
7.1655e+06
7.1624e+06
7.15864e+06
7.15421e+06
7.14911e+06
7.14333e+06
7.13686e+06
7.12969e+06
7.12183e+06
7.11326e+06
7.10398e+06
7.094e+06
7.08331e+06
7.07193e+06
7.05984e+06
7.04706e+06
7.03359e+06
7.01944e+06
7.00462e+06
6.98913e+06
6.97298e+06
6.95618e+06
6.93873e+06
6.92066e+06
6.90195e+06
6.88263e+06
6.8627e+06
6.84216e+06
6.82104e+06
6.79933e+06
6.77705e+06
6.7542e+06
6.73079e+06
6.70683e+06
6.68233e+06
6.65729e+06
6.63172e+06
6.60563e+06
6.57902e+06
6.55191e+06
6.5243e+06
6.49619e+06
6.46759e+06
6.43853e+06
6.40899e+06
6.37901e+06
6.34859e+06
6.31773e+06
6.28646e+06
6.25477e+06
6.22269e+06
6.19022e+06
6.15736e+06
6.12413e+06
6.09053e+06
6.05656e+06
6.02224e+06
5.98758e+06
5.95257e+06
5.91722e+06
5.88154e+06
5.84552e+06
5.80919e+06
5.77253e+06
5.73556e+06
5.69827e+06
5.66068e+06
5.62279e+06
5.58461e+06
5.54614e+06
5.5074e+06
5.46839e+06
5.42913e+06
5.38961e+06
5.34985e+06
5.30986e+06
5.26963e+06
5.22918e+06
5.18851e+06
5.14763e+06
5.10653e+06
5.06522e+06
5.02371e+06
4.982e+06
4.9401e+06
4.89801e+06
4.85574e+06
4.81328e+06
4.77065e+06
4.72786e+06
4.68489e+06
4.64176e+06
4.59847e+06
4.55502e+06
4.51141e+06
4.46765e+06
4.42375e+06
4.3797e+06
4.33551e+06
4.29118e+06
4.24672e+06
4.20213e+06
4.15741e+06
4.11257e+06
4.06761e+06
4.02254e+06
3.97736e+06
3.93206e+06
3.88667e+06
3.84118e+06
3.7956e+06
3.74992e+06
3.70416e+06
3.65833e+06
3.61241e+06
3.56642e+06
3.52037e+06
3.47426e+06
3.42808e+06
3.38186e+06
3.33559e+06
3.28927e+06
3.24292e+06
3.19654e+06
3.15013e+06
3.1037e+06
3.05725e+06
3.01079e+06
2.96433e+06
2.91787e+06
2.87142e+06
2.82498e+06
2.77856e+06
2.73217e+06
2.68581e+06
2.63949e+06
2.59322e+06
2.547e+06
2.50084e+06
2.45475e+06
2.40873e+06
2.36279e+06
2.31695e+06
2.2712e+06
2.22555e+06
2.18002e+06
2.13461e+06
2.08934e+06
2.0442e+06
1.9992e+06
1.95437e+06
1.9097e+06
1.86521e+06
1.8209e+06
1.77678e+06
1.73287e+06
1.68918e+06
1.64572e+06
1.60249e+06
1.55951e+06
1.51679e+06
1.47435e+06
1.43219e+06
1.39033e+06
1.34879e+06
1.30757e+06
1.2667e+06
1.2262e+06
1.18607e+06
1.14636e+06
1.10707e+06
1.06825e+06
1.02992e+06
992121
954894
918245
7.18487e+06
7.18424e+06
7.18299e+06
7.18111e+06
7.17857e+06
7.17537e+06
7.1715e+06
7.16694e+06
7.16169e+06
7.15574e+06
7.14909e+06
7.14173e+06
7.13365e+06
7.12486e+06
7.11534e+06
7.10511e+06
7.09416e+06
7.08251e+06
7.07014e+06
7.05709e+06
7.04334e+06
7.0289e+06
7.01379e+06
6.99802e+06
6.98158e+06
6.9645e+06
6.94678e+06
6.92842e+06
6.90945e+06
6.88985e+06
6.86966e+06
6.84886e+06
6.82749e+06
6.80553e+06
6.78301e+06
6.75992e+06
6.73629e+06
6.71211e+06
6.68739e+06
6.66214e+06
6.63637e+06
6.61009e+06
6.58329e+06
6.55599e+06
6.52819e+06
6.4999e+06
6.47113e+06
6.44189e+06
6.41219e+06
6.38204e+06
6.35146e+06
6.32046e+06
6.28904e+06
6.25722e+06
6.225e+06
6.19241e+06
6.15943e+06
6.12609e+06
6.09238e+06
6.05832e+06
6.02391e+06
5.98915e+06
5.95406e+06
5.91863e+06
5.88287e+06
5.84679e+06
5.81039e+06
5.77367e+06
5.73663e+06
5.69928e+06
5.66163e+06
5.62369e+06
5.58545e+06
5.54693e+06
5.50813e+06
5.46907e+06
5.42976e+06
5.3902e+06
5.35041e+06
5.31038e+06
5.27012e+06
5.22964e+06
5.18894e+06
5.14803e+06
5.1069e+06
5.06557e+06
5.02404e+06
4.98231e+06
4.94039e+06
4.89828e+06
4.85599e+06
4.81351e+06
4.77087e+06
4.72806e+06
4.68507e+06
4.64193e+06
4.59862e+06
4.55516e+06
4.51155e+06
4.46778e+06
4.42386e+06
4.37981e+06
4.33561e+06
4.29127e+06
4.2468e+06
4.20221e+06
4.15748e+06
4.11264e+06
4.06767e+06
4.02259e+06
3.9774e+06
3.93211e+06
3.88671e+06
3.84122e+06
3.79563e+06
3.74995e+06
3.70419e+06
3.65835e+06
3.61243e+06
3.56645e+06
3.52039e+06
3.47427e+06
3.4281e+06
3.38187e+06
3.3356e+06
3.28929e+06
3.24293e+06
3.19655e+06
3.15014e+06
3.1037e+06
3.05726e+06
3.0108e+06
2.96434e+06
2.91788e+06
2.87142e+06
2.82498e+06
2.77857e+06
2.73217e+06
2.68581e+06
2.63949e+06
2.59322e+06
2.547e+06
2.50084e+06
2.45475e+06
2.40873e+06
2.36279e+06
2.31695e+06
2.2712e+06
2.22555e+06
2.18002e+06
2.13462e+06
2.08934e+06
2.0442e+06
1.9992e+06
1.95437e+06
1.9097e+06
1.8652e+06
1.8209e+06
1.77678e+06
1.73287e+06
1.68918e+06
1.64571e+06
1.60248e+06
1.5595e+06
1.51678e+06
1.47434e+06
1.43218e+06
1.39031e+06
1.34876e+06
1.30754e+06
1.26667e+06
1.22615e+06
1.18602e+06
1.14629e+06
1.10698e+06
1.06812e+06
1.02974e+06
991863
954517
917683
7.20099e+06
7.20032e+06
7.19902e+06
7.19705e+06
7.19441e+06
7.19108e+06
7.18706e+06
7.18233e+06
7.17689e+06
7.17074e+06
7.16386e+06
7.15625e+06
7.14791e+06
7.13883e+06
7.12902e+06
7.11848e+06
7.10722e+06
7.09523e+06
7.08254e+06
7.06914e+06
7.05505e+06
7.04026e+06
7.02481e+06
7.00868e+06
6.9919e+06
6.97447e+06
6.95641e+06
6.93771e+06
6.91841e+06
6.89849e+06
6.87797e+06
6.85686e+06
6.83518e+06
6.81292e+06
6.79011e+06
6.76674e+06
6.74283e+06
6.71839e+06
6.69342e+06
6.66792e+06
6.64191e+06
6.6154e+06
6.58837e+06
6.56085e+06
6.53283e+06
6.50433e+06
6.47535e+06
6.4459e+06
6.416e+06
6.38566e+06
6.35488e+06
6.3237e+06
6.2921e+06
6.26012e+06
6.22775e+06
6.195e+06
6.16189e+06
6.12841e+06
6.09458e+06
6.0604e+06
6.02588e+06
5.99102e+06
5.95583e+06
5.92031e+06
5.88446e+06
5.8483e+06
5.81182e+06
5.77502e+06
5.73791e+06
5.70049e+06
5.66277e+06
5.62475e+06
5.58645e+06
5.54786e+06
5.509e+06
5.46989e+06
5.43052e+06
5.39091e+06
5.35106e+06
5.31099e+06
5.27069e+06
5.23018e+06
5.18944e+06
5.1485e+06
5.10735e+06
5.06599e+06
5.02443e+06
4.98268e+06
4.94073e+06
4.8986e+06
4.85628e+06
4.81379e+06
4.77113e+06
4.72829e+06
4.68529e+06
4.64213e+06
4.59881e+06
4.55534e+06
4.51171e+06
4.46793e+06
4.424e+06
4.37993e+06
4.33573e+06
4.29138e+06
4.2469e+06
4.2023e+06
4.15757e+06
4.11271e+06
4.06774e+06
4.02266e+06
3.97746e+06
3.93216e+06
3.88676e+06
3.84126e+06
3.79567e+06
3.74999e+06
3.70423e+06
3.65838e+06
3.61246e+06
3.56647e+06
3.52041e+06
3.4743e+06
3.42812e+06
3.38189e+06
3.33562e+06
3.2893e+06
3.24294e+06
3.19656e+06
3.15015e+06
3.10371e+06
3.05726e+06
3.01081e+06
2.96434e+06
2.91788e+06
2.87143e+06
2.82499e+06
2.77857e+06
2.73218e+06
2.68582e+06
2.6395e+06
2.59322e+06
2.547e+06
2.50084e+06
2.45475e+06
2.40873e+06
2.3628e+06
2.31695e+06
2.2712e+06
2.22556e+06
2.18003e+06
2.13462e+06
2.08934e+06
2.0442e+06
1.9992e+06
1.95437e+06
1.9097e+06
1.8652e+06
1.82089e+06
1.77678e+06
1.73287e+06
1.68918e+06
1.64571e+06
1.60248e+06
1.5595e+06
1.51677e+06
1.47432e+06
1.43216e+06
1.39029e+06
1.34874e+06
1.30751e+06
1.26663e+06
1.2261e+06
1.18595e+06
1.1462e+06
1.10687e+06
1.06797e+06
1.02954e+06
991584
954124
917130
7.22005e+06
7.21934e+06
7.21795e+06
7.21588e+06
7.2131e+06
7.20961e+06
7.2054e+06
7.20046e+06
7.19478e+06
7.18837e+06
7.1812e+06
7.17329e+06
7.16463e+06
7.15521e+06
7.14504e+06
7.13413e+06
7.12249e+06
7.11011e+06
7.09702e+06
7.08322e+06
7.06871e+06
7.05352e+06
7.03764e+06
7.0211e+06
7.00391e+06
6.98607e+06
6.9676e+06
6.94851e+06
6.92881e+06
6.90851e+06
6.88761e+06
6.86613e+06
6.84408e+06
6.82148e+06
6.79832e+06
6.77462e+06
6.7504e+06
6.72565e+06
6.70039e+06
6.67461e+06
6.64834e+06
6.62156e+06
6.59428e+06
6.56651e+06
6.53824e+06
6.50949e+06
6.48026e+06
6.45057e+06
6.42042e+06
6.38985e+06
6.35885e+06
6.32744e+06
6.29565e+06
6.26347e+06
6.23092e+06
6.198e+06
6.16472e+06
6.13109e+06
6.09712e+06
6.0628e+06
6.02815e+06
5.99317e+06
5.95786e+06
5.92224e+06
5.8863e+06
5.85004e+06
5.81347e+06
5.77659e+06
5.73939e+06
5.70189e+06
5.66409e+06
5.626e+06
5.58761e+06
5.54895e+06
5.51001e+06
5.47083e+06
5.43139e+06
5.39172e+06
5.35182e+06
5.31169e+06
5.27135e+06
5.23079e+06
5.19002e+06
5.14904e+06
5.10786e+06
5.06647e+06
5.02488e+06
4.9831e+06
4.94112e+06
4.89896e+06
4.85662e+06
4.81411e+06
4.77142e+06
4.72856e+06
4.68555e+06
4.64237e+06
4.59903e+06
4.55554e+06
4.51189e+06
4.4681e+06
4.42416e+06
4.38008e+06
4.33586e+06
4.2915e+06
4.24702e+06
4.2024e+06
4.15766e+06
4.1128e+06
4.06782e+06
4.02273e+06
3.97753e+06
3.93222e+06
3.88682e+06
3.84132e+06
3.79572e+06
3.75003e+06
3.70427e+06
3.65842e+06
3.6125e+06
3.5665e+06
3.52044e+06
3.47432e+06
3.42814e+06
3.38191e+06
3.33563e+06
3.28932e+06
3.24296e+06
3.19657e+06
3.15016e+06
3.10372e+06
3.05727e+06
3.01081e+06
2.96435e+06
2.91789e+06
2.87143e+06
2.82499e+06
2.77857e+06
2.73218e+06
2.68582e+06
2.6395e+06
2.59323e+06
2.54701e+06
2.50085e+06
2.45475e+06
2.40873e+06
2.3628e+06
2.31695e+06
2.2712e+06
2.22556e+06
2.18003e+06
2.13462e+06
2.08934e+06
2.0442e+06
1.99921e+06
1.95437e+06
1.9097e+06
1.8652e+06
1.82089e+06
1.77678e+06
1.73287e+06
1.68917e+06
1.6457e+06
1.60247e+06
1.55949e+06
1.51676e+06
1.47431e+06
1.43214e+06
1.39027e+06
1.34872e+06
1.30748e+06
1.26659e+06
1.22605e+06
1.18588e+06
1.14611e+06
1.10674e+06
1.06781e+06
1.02932e+06
991292
953725
916592
7.24217e+06
7.24139e+06
7.23991e+06
7.2377e+06
7.23476e+06
7.23107e+06
7.22663e+06
7.22142e+06
7.21545e+06
7.20871e+06
7.2012e+06
7.19291e+06
7.18386e+06
7.17403e+06
7.16344e+06
7.15209e+06
7.13999e+06
7.12716e+06
7.11359e+06
7.09931e+06
7.08433e+06
7.06865e+06
7.05229e+06
7.03527e+06
7.0176e+06
6.99928e+06
6.98034e+06
6.96079e+06
6.94063e+06
6.91988e+06
6.89855e+06
6.87664e+06
6.85418e+06
6.83117e+06
6.80763e+06
6.78356e+06
6.75897e+06
6.73388e+06
6.7083e+06
6.68221e+06
6.65564e+06
6.62857e+06
6.60101e+06
6.57295e+06
6.5444e+06
6.51537e+06
6.48585e+06
6.45588e+06
6.42545e+06
6.3946e+06
6.36334e+06
6.33169e+06
6.29965e+06
6.26725e+06
6.23449e+06
6.20138e+06
6.16792e+06
6.13411e+06
6.09998e+06
6.06551e+06
6.03071e+06
5.9956e+06
5.96017e+06
5.92443e+06
5.88837e+06
5.85201e+06
5.81534e+06
5.77836e+06
5.74108e+06
5.70348e+06
5.66559e+06
5.6274e+06
5.58893e+06
5.55017e+06
5.51116e+06
5.47189e+06
5.43238e+06
5.39264e+06
5.35267e+06
5.31249e+06
5.27209e+06
5.23149e+06
5.19067e+06
5.14965e+06
5.10843e+06
5.06701e+06
5.02538e+06
4.98357e+06
4.94156e+06
4.89937e+06
4.857e+06
4.81446e+06
4.77175e+06
4.72887e+06
4.68583e+06
4.64263e+06
4.59927e+06
4.55576e+06
4.5121e+06
4.46829e+06
4.42434e+06
4.38024e+06
4.33601e+06
4.29164e+06
4.24715e+06
4.20252e+06
4.15777e+06
4.1129e+06
4.06791e+06
4.02281e+06
3.97761e+06
3.93229e+06
3.88688e+06
3.84137e+06
3.79577e+06
3.75008e+06
3.70431e+06
3.65846e+06
3.61253e+06
3.56653e+06
3.52047e+06
3.47435e+06
3.42817e+06
3.38193e+06
3.33565e+06
3.28933e+06
3.24298e+06
3.19659e+06
3.15017e+06
3.10374e+06
3.05728e+06
3.01082e+06
2.96436e+06
2.9179e+06
2.87144e+06
2.825e+06
2.77858e+06
2.73219e+06
2.68583e+06
2.63951e+06
2.59323e+06
2.54701e+06
2.50085e+06
2.45476e+06
2.40874e+06
2.3628e+06
2.31695e+06
2.2712e+06
2.22556e+06
2.18003e+06
2.13462e+06
2.08934e+06
2.0442e+06
1.99921e+06
1.95437e+06
1.9097e+06
1.8652e+06
1.82089e+06
1.77678e+06
1.73286e+06
1.68917e+06
1.6457e+06
1.60247e+06
1.55948e+06
1.51675e+06
1.4743e+06
1.43213e+06
1.39025e+06
1.34869e+06
1.30744e+06
1.26654e+06
1.22599e+06
1.18581e+06
1.14601e+06
1.10661e+06
1.06764e+06
1.02909e+06
990993
953328
916073
7.26749e+06
7.26665e+06
7.26505e+06
7.26269e+06
7.25954e+06
7.25561e+06
7.25087e+06
7.24534e+06
7.23901e+06
7.23188e+06
7.22395e+06
7.21522e+06
7.20569e+06
7.19537e+06
7.18428e+06
7.17241e+06
7.15978e+06
7.1464e+06
7.13228e+06
7.11745e+06
7.1019e+06
7.08566e+06
7.06875e+06
7.05117e+06
7.03294e+06
7.01409e+06
6.99461e+06
6.97453e+06
6.95385e+06
6.93259e+06
6.91076e+06
6.88838e+06
6.86545e+06
6.84198e+06
6.81801e+06
6.79352e+06
6.76854e+06
6.74307e+06
6.71712e+06
6.6907e+06
6.66379e+06
6.6364e+06
6.60852e+06
6.58014e+06
6.55128e+06
6.52192e+06
6.49209e+06
6.4618e+06
6.43106e+06
6.3999e+06
6.36834e+06
6.33641e+06
6.30411e+06
6.27146e+06
6.23846e+06
6.20513e+06
6.17147e+06
6.13747e+06
6.10315e+06
6.06851e+06
6.03356e+06
5.9983e+06
5.96273e+06
5.92685e+06
5.89068e+06
5.8542e+06
5.81743e+06
5.78034e+06
5.74295e+06
5.70525e+06
5.66726e+06
5.62897e+06
5.59039e+06
5.55154e+06
5.51243e+06
5.47307e+06
5.43348e+06
5.39366e+06
5.35362e+06
5.31337e+06
5.27292e+06
5.23226e+06
5.19139e+06
5.15033e+06
5.10906e+06
5.0676e+06
5.02594e+06
4.98409e+06
4.94205e+06
4.89983e+06
4.85743e+06
4.81485e+06
4.77211e+06
4.72921e+06
4.68614e+06
4.64292e+06
4.59954e+06
4.55601e+06
4.51233e+06
4.46851e+06
4.42454e+06
4.38043e+06
4.33618e+06
4.2918e+06
4.24729e+06
4.20265e+06
4.15789e+06
4.11301e+06
4.06801e+06
4.02291e+06
3.97769e+06
3.93237e+06
3.88695e+06
3.84144e+06
3.79583e+06
3.75014e+06
3.70436e+06
3.6585e+06
3.61257e+06
3.56657e+06
3.52051e+06
3.47438e+06
3.42819e+06
3.38196e+06
3.33568e+06
3.28935e+06
3.24299e+06
3.1966e+06
3.15019e+06
3.10375e+06
3.0573e+06
3.01083e+06
2.96437e+06
2.9179e+06
2.87145e+06
2.82501e+06
2.77859e+06
2.73219e+06
2.68583e+06
2.63951e+06
2.59324e+06
2.54701e+06
2.50085e+06
2.45476e+06
2.40874e+06
2.3628e+06
2.31696e+06
2.27121e+06
2.22556e+06
2.18003e+06
2.13462e+06
2.08934e+06
2.0442e+06
1.99921e+06
1.95437e+06
1.9097e+06
1.8652e+06
1.82089e+06
1.77677e+06
1.73286e+06
1.68916e+06
1.64569e+06
1.60246e+06
1.55947e+06
1.51674e+06
1.47428e+06
1.43211e+06
1.39023e+06
1.34866e+06
1.3074e+06
1.26649e+06
1.22592e+06
1.18572e+06
1.1459e+06
1.10648e+06
1.06746e+06
1.02886e+06
990692
952938
915577
7.29624e+06
7.29532e+06
7.29358e+06
7.29102e+06
7.28764e+06
7.2834e+06
7.27833e+06
7.27241e+06
7.26564e+06
7.25803e+06
7.24959e+06
7.24032e+06
7.23023e+06
7.21933e+06
7.20763e+06
7.19515e+06
7.18189e+06
7.16787e+06
7.15311e+06
7.13763e+06
7.12144e+06
7.10455e+06
7.087e+06
7.06879e+06
7.04994e+06
7.03046e+06
7.01038e+06
6.9897e+06
6.96844e+06
6.94661e+06
6.92423e+06
6.90131e+06
6.87786e+06
6.8539e+06
6.82944e+06
6.80449e+06
6.77907e+06
6.75318e+06
6.72682e+06
6.7e+06
6.67272e+06
6.64496e+06
6.61672e+06
6.58799e+06
6.55878e+06
6.52907e+06
6.49889e+06
6.46825e+06
6.43717e+06
6.40569e+06
6.37381e+06
6.34157e+06
6.30899e+06
6.27606e+06
6.24282e+06
6.20925e+06
6.17536e+06
6.14115e+06
6.10664e+06
6.07181e+06
6.03669e+06
6.00126e+06
5.96554e+06
5.92952e+06
5.89321e+06
5.85661e+06
5.8197e+06
5.7825e+06
5.74499e+06
5.70718e+06
5.66907e+06
5.63067e+06
5.59198e+06
5.55303e+06
5.51381e+06
5.47436e+06
5.43467e+06
5.39477e+06
5.35466e+06
5.31434e+06
5.27382e+06
5.2331e+06
5.19218e+06
5.15106e+06
5.10975e+06
5.06824e+06
5.02654e+06
4.98465e+06
4.94258e+06
4.90032e+06
4.85788e+06
4.81528e+06
4.77251e+06
4.72958e+06
4.68649e+06
4.64324e+06
4.59984e+06
4.55628e+06
4.51258e+06
4.46874e+06
4.42475e+06
4.38062e+06
4.33636e+06
4.29197e+06
4.24744e+06
4.20279e+06
4.15802e+06
4.11313e+06
4.06812e+06
4.02301e+06
3.97778e+06
3.93246e+06
3.88703e+06
3.84151e+06
3.7959e+06
3.7502e+06
3.70441e+06
3.65855e+06
3.61262e+06
3.56661e+06
3.52054e+06
3.47441e+06
3.42822e+06
3.38199e+06
3.3357e+06
3.28938e+06
3.24301e+06
3.19662e+06
3.1502e+06
3.10376e+06
3.05731e+06
3.01085e+06
2.96438e+06
2.91791e+06
2.87146e+06
2.82502e+06
2.77859e+06
2.7322e+06
2.68584e+06
2.63952e+06
2.59324e+06
2.54702e+06