/*--------------------------------*- C++ -*----------------------------------*\
  =========                 |
  \\      /  F ield         | OpenFOAM: The Open Source CFD Toolbox
   \\    /   O peration     | Website:  https://openfoam.org
    \\  /    A nd           | Version:  10
     \\/     M anipulation  |
\*---------------------------------------------------------------------------*/
FoamFile
{
    format      ascii;
    class       volSymmTensorField;
    location    "0.038";
    object      UPrime2Mean;
}
// * * * * * * * * * * * * * * * * * * * * * * * * * * * * * * * * * * * * * //

dimensions      [0 2 -2 0 0 0 0];

internalField   nonuniform List<symmTensor> 
12225
(
(0.0472063 0.0010324 0 0.00215221 0 0)
(0.0159206 -9.94351e-05 0 0.00102539 0 0)
(0.0203386 -0.000624293 0 0.000726249 0 0)
(0.0231129 -0.000885246 0 0.000591854 0 0)
(0.0322928 -0.00133283 0 0.000522812 0 0)
(0.0510308 -0.00201653 0 0.000490473 0 0)
(0.0803087 -0.00302552 0 0.000480331 0 0)
(0.120283 -0.00393865 0 0.000430726 0 0)
(0.17518 -0.00610335 0 0.000520376 0 0)
(0.246032 -0.00643339 0 0.000422475 0 0)
(0.347749 -0.0127932 0 0.000741464 0 0)
(0.472198 -0.00910813 0 0.000482039 0 0)
(0.668656 -0.030578 0 0.00177343 0 0)
(0.893621 -0.00793591 0 0.00102035 0 0)
(1.30429 -0.0876624 0 0.00764287 0 0)
(1.78881 0.0162959 0 0.00617259 0 0)
(2.82336 -0.347453 0 0.0628025 0 0)
(4.48302 0.0353292 0 0.0266212 0 0)
(0.0436894 0.000844823 0 0.00262701 0 0)
(0.0140859 0.000472176 0 0.00132598 0 0)
(0.0143642 0.000115065 0 0.000884789 0 0)
(0.0129389 0.000108372 0 0.000764229 0 0)
(0.0128656 7.78651e-06 0 0.000752855 0 0)
(0.014371 -0.000467885 0 0.000822426 0 0)
(0.0173867 -0.00117179 0 0.000891316 0 0)
(0.0231607 -0.0024885 0 0.00110692 0 0)
(0.0319225 -0.00385042 0 0.00120496 0 0)
(0.0477499 -0.00696019 0 0.00180618 0 0)
(0.0686357 -0.00925151 0 0.00191094 0 0)
(0.108239 -0.0173092 0 0.00353086 0 0)
(0.154992 -0.0208706 0 0.00361126 0 0)
(0.25464 -0.0436024 0 0.00848901 0 0)
(0.360309 -0.0500595 0 0.00862223 0 0)
(0.6358 -0.126569 0 0.0276745 0 0)
(0.906597 -0.178629 0 0.0374466 0 0)
(1.6694 -0.545239 0 0.20135 0 0)
(0.0523477 0.0015001 0 0.00327176 0 0)
(0.0177214 0.000812764 0 0.00168053 0 0)
(0.0160943 8.71513e-05 0 0.00115143 0 0)
(0.0138492 -0.000261317 0 0.00102029 0 0)
(0.013551 -0.000538696 0 0.00104436 0 0)
(0.0147467 -0.000952856 0 0.00112449 0 0)
(0.0173619 -0.00176687 0 0.00130989 0 0)
(0.0216471 -0.00291805 0 0.00149383 0 0)
(0.0284883 -0.00492303 0 0.00204422 0 0)
(0.0383346 -0.00712438 0 0.00243575 0 0)
(0.0536455 -0.0119321 0 0.00391517 0 0)
(0.0749025 -0.0162511 0 0.00470332 0 0)
(0.109128 -0.0286658 0 0.00888037 0 0)
(0.156793 -0.0379686 0 0.0107115 0 0)
(0.237906 -0.0739461 0 0.0248924 0 0)
(0.353486 -0.107203 0 0.0349889 0 0)
(0.539831 -0.229729 0 0.104977 0 0)
(0.774405 -0.430425 0 0.260335 0 0)
(0.0498309 0.000276025 0 0.00326937 0 0)
(0.0175489 -0.000149107 0 0.00195022 0 0)
(0.017244 -0.000575506 0 0.00143712 0 0)
(0.0151983 -0.000754797 0 0.00131355 0 0)
(0.0144444 -0.00107223 0 0.00138293 0 0)
(0.015083 -0.00175243 0 0.00159555 0 0)
(0.0172263 -0.00278835 0 0.00190531 0 0)
(0.0211886 -0.00435276 0 0.00243891 0 0)
(0.0273679 -0.00644956 0 0.00309183 0 0)
(0.0368796 -0.00984232 0 0.0043002 0 0)
(0.0507969 -0.0144353 0 0.00579331 0 0)
(0.0718562 -0.0222862 0 0.00869942 0 0)
(0.102364 -0.0331835 0 0.0126069 0 0)
(0.148045 -0.0525311 0 0.0206194 0 0)
(0.214713 -0.0826988 0 0.0341355 0 0)
(0.309645 -0.137183 0 0.0641029 0 0)
(0.438052 -0.237917 0 0.136298 0 0)
(0.571461 -0.388339 0 0.284183 0 0)
(0.0484422 0.00139982 0 0.00417353 0 0)
(0.0158702 0.000295903 0 0.00243072 0 0)
(0.0155127 -0.000288849 0 0.00174711 0 0)
(0.0133063 -0.000518625 0 0.00159811 0 0)
(0.0125993 -0.000857832 0 0.00171844 0 0)
(0.0133723 -0.00162049 0 0.00203049 0 0)
(0.0155527 -0.00294158 0 0.00254635 0 0)
(0.0194408 -0.00484094 0 0.00324941 0 0)
(0.0256366 -0.00762034 0 0.0043901 0 0)
(0.0349505 -0.0114823 0 0.00595811 0 0)
(0.048638 -0.0174642 0 0.00858042 0 0)
(0.0683701 -0.0260441 0 0.0123613 0 0)
(0.0968246 -0.0397808 0 0.0189666 0 0)
(0.136993 -0.0605536 0 0.0296764 0 0)
(0.193743 -0.0946019 0 0.0497826 0 0)
(0.267902 -0.150401 0 0.0895314 0 0)
(0.359223 -0.2368 0 0.16571 0 0)
(0.440371 -0.363517 0 0.331539 0 0)
(0.048778 -0.00067641 0 0.00480344 0 0)
(0.0164782 -0.000556565 0 0.00291801 0 0)
(0.0162588 -0.00143699 0 0.0020932 0 0)
(0.0138744 -0.0016404 0 0.0019646 0 0)
(0.0130002 -0.00189503 0 0.0021403 0 0)
(0.013767 -0.00269771 0 0.00260231 0 0)
(0.0158242 -0.00414259 0 0.00334836 0 0)
(0.0192163 -0.00625217 0 0.00442755 0 0)
(0.0245 -0.00924572 0 0.00598564 0 0)
(0.0325248 -0.0135905 0 0.00830802 0 0)
(0.0445117 -0.020075 0 0.0118573 0 0)
(0.0617907 -0.029751 0 0.0173618 0 0)
(0.0865324 -0.0445545 0 0.0262691 0 0)
(0.120342 -0.0669108 0 0.0409735 0 0)
(0.166051 -0.101687 0 0.066841 0 0)
(0.221375 -0.153587 0 0.113078 0 0)
(0.283284 -0.228768 0 0.197327 0 0)
(0.332555 -0.323592 0 0.346814 0 0)
(0.0479802 0.000906369 0 0.00461264 0 0)
(0.0171816 0.000189636 0 0.00350947 0 0)
(0.0177844 -0.000317471 0 0.00274696 0 0)
(0.0159053 -0.000722287 0 0.00263024 0 0)
(0.0157068 -0.0014262 0 0.0028974 0 0)
(0.0172501 -0.00263611 0 0.00348249 0 0)
(0.0201108 -0.00449348 0 0.00442936 0 0)
(0.0242746 -0.00716357 0 0.00585259 0 0)
(0.0301778 -0.0109296 0 0.00796935 0 0)
(0.0384698 -0.0162383 0 0.0111352 0 0)
(0.0501558 -0.0238451 0 0.0158996 0 0)
(0.0662508 -0.0348669 0 0.0232731 0 0)
(0.08831 -0.0509425 0 0.0347645 0 0)
(0.116951 -0.0744337 0 0.0534993 0 0)
(0.153269 -0.108331 0 0.0840595 0 0)
(0.193778 -0.155822 0 0.136063 0 0)
(0.235206 -0.217913 0 0.22046 0 0)
(0.264059 -0.288174 0 0.355239 0 0)
(0.0470005 0.00127207 0 0.00566225 0 0)
(0.0124711 0.000510755 0 0.00372089 0 0)
(0.0131239 -0.000296881 0 0.00294469 0 0)
(0.0121307 -0.000764338 0 0.00305668 0 0)
(0.0122219 -0.00141372 0 0.00355465 0 0)
(0.0135606 -0.00264683 0 0.00442741 0 0)
(0.0160753 -0.0046276 0 0.00573628 0 0)
(0.0198001 -0.00742225 0 0.00761014 0 0)
(0.0250123 -0.0112655 0 0.0103239 0 0)
(0.032171 -0.0166534 0 0.0143377 0 0)
(0.0420273 -0.0243831 0 0.0203441 0 0)
(0.0553354 -0.0354843 0 0.0295074 0 0)
(0.0730627 -0.0513732 0 0.0435513 0 0)
(0.0952963 -0.0737662 0 0.0656188 0 0)
(0.122063 -0.10458 0 0.100022 0 0)
(0.150207 -0.144955 0 0.154536 0 0)
(0.176777 -0.193771 0 0.236511 0 0)
(0.193561 -0.244578 0 0.357487 0 0)
(0.0539263 0.000940557 0 0.00552378 0 0)
(0.0199752 -0.000362546 0 0.00398844 0 0)
(0.0201532 -0.00149026 0 0.00337942 0 0)
(0.0179693 -0.00195622 0 0.00352602 0 0)
(0.0169501 -0.00258767 0 0.00414862 0 0)
(0.0175458 -0.00389457 0 0.00520721 0 0)
(0.0195865 -0.006043 0 0.00680509 0 0)
(0.0228808 -0.00910985 0 0.00915577 0 0)
(0.0275555 -0.013338 0 0.0125935 0 0)
(0.0340005 -0.0191943 0 0.0176527 0 0)
(0.0427793 -0.0273664 0 0.0250915 0 0)
(0.0542491 -0.0387332 0 0.0361942 0 0)
(0.068775 -0.054369 0 0.0527366 0 0)
(0.0858653 -0.0753739 0 0.0777496 0 0)
(0.104972 -0.102651 0 0.114931 0 0)
(0.12342 -0.135963 0 0.170292 0 0)
(0.139241 -0.173366 0 0.248451 0 0)
(0.147665 -0.209076 0 0.356033 0 0)
(0.0505141 0.00215123 0 0.00605497 0 0)
(0.0162682 -0.000615399 0 0.00443628 0 0)
(0.0157164 -0.0016134 0 0.00396894 0 0)
(0.0138018 -0.0017026 0 0.00438045 0 0)
(0.0132529 -0.0021123 0 0.00523898 0 0)
(0.0140413 -0.00335547 0 0.00657644 0 0)
(0.0159403 -0.00544815 0 0.00854516 0 0)
(0.0187417 -0.00839727 0 0.0113983 0 0)
(0.0225046 -0.0124346 0 0.0155267 0 0)
(0.0275228 -0.0179908 0 0.0215306 0 0)
(0.0342119 -0.02566 0 0.0302297 0 0)
(0.042799 -0.0361222 0 0.0429404 0 0)
(0.0533511 -0.0500951 0 0.0613688 0 0)
(0.0652369 -0.068088 0 0.0882125 0 0)
(0.0776774 -0.0902796 0 0.12641 0 0)
(0.0886598 -0.115672 0 0.180447 0 0)
(0.0969829 -0.142175 0 0.252843 0 0)
(0.100227 -0.164989 0 0.347641 0 0)
(0.0438521 0.00161526 0 0.00629056 0 0)
(0.0134826 -0.00101078 0 0.00521964 0 0)
(0.0136355 -0.00256501 0 0.00441705 0 0)
(0.0117573 -0.00297375 0 0.00464976 0 0)
(0.0111336 -0.00353823 0 0.00564407 0 0)
(0.0117748 -0.00491066 0 0.00733222 0 0)
(0.0134601 -0.0071896 0 0.00980165 0 0)
(0.0159583 -0.0103784 0 0.0133149 0 0)
(0.0192401 -0.0146556 0 0.0182909 0 0)
(0.0234749 -0.0203806 0 0.0253735 0 0)
(0.0289435 -0.0280268 0 0.0354188 0 0)
(0.0356614 -0.0380416 0 0.0497021 0 0)
(0.0434567 -0.0507953 0 0.0697698 0 0)
(0.0515664 -0.0663283 0 0.0979174 0 0)
(0.0593157 -0.0843345 0 0.13634 0 0)
(0.0652709 -0.103477 0 0.188252 0 0)
(0.0689229 -0.12189 0 0.254712 0 0)
(0.0691351 -0.13573 0 0.338237 0 0)
(0.0500185 0.00248558 0 0.00645359 0 0)
(0.0160993 -0.00100607 0 0.00572593 0 0)
(0.0154881 -0.00220041 0 0.00493105 0 0)
(0.0133037 -0.0020673 0 0.00522248 0 0)
(0.0122441 -0.00228195 0 0.00640178 0 0)
(0.0124594 -0.00341903 0 0.0083943 0 0)
(0.013602 -0.00540455 0 0.0112559 0 0)
(0.0152574 -0.00812511 0 0.0152584 0 0)
(0.0173106 -0.0116928 0 0.0208495 0 0)
(0.0198668 -0.0164063 0 0.0286841 0 0)
(0.0230985 -0.0226469 0 0.0395874 0 0)
(0.0270212 -0.0306906 0 0.0547323 0 0)
(0.0315025 -0.040677 0 0.0754637 0 0)
(0.0360063 -0.052385 0 0.103696 0 0)
(0.0400567 -0.0652945 0 0.141016 0 0)
(0.0428042 -0.078067 0 0.18975 0 0)
(0.0440601 -0.0890786 0 0.250082 0 0)
(0.0434902 -0.0955084 0 0.323729 0 0)
(0.045194 0.0017815 0 0.00751565 0 0)
(0.0152275 -0.00152188 0 0.00650143 0 0)
(0.0154705 -0.00290439 0 0.00530689 0 0)
(0.0135953 -0.00277463 0 0.00572454 0 0)
(0.0126688 -0.00283762 0 0.00722849 0 0)
(0.0126149 -0.00377408 0 0.00958337 0 0)
(0.0130682 -0.00552153 0 0.0128702 0 0)
(0.0138313 -0.00794385 0 0.0174039 0 0)
(0.0149694 -0.011113 0 0.0236615 0 0)
(0.0165727 -0.0152499 0 0.0323044 0 0)
(0.0186827 -0.0206298 0 0.0441171 0 0)
(0.0211983 -0.0273789 0 0.060152 0 0)
(0.0239703 -0.0355 0 0.081508 0 0)
(0.0265894 -0.0445778 0 0.109688 0 0)
(0.0287227 -0.0540188 0 0.145736 0 0)
(0.029835 -0.0624847 0 0.191305 0 0)
(0.0299915 -0.0687527 0 0.246048 0 0)
(0.0291127 -0.0704041 0 0.311232 0 0)
(0.0473756 0.00143358 0 0.0091676 0 0)
(0.0155485 -0.000656282 0 0.00789596 0 0)
(0.0153752 -0.00127956 0 0.00701172 0 0)
(0.0136494 -0.000666534 0 0.00757253 0 0)
(0.0126112 -0.000435081 0 0.00912998 0 0)
(0.0121299 -0.00106067 0 0.0117073 0 0)
(0.0120796 -0.00246853 0 0.0154206 0 0)
(0.0123928 -0.00446367 0 0.020466 0 0)
(0.0130901 -0.00700274 0 0.027226 0 0)
(0.014163 -0.0101653 0 0.0363471 0 0)
(0.0155275 -0.0140916 0 0.0485897 0 0)
(0.0169969 -0.0187598 0 0.0648887 0 0)
(0.018392 -0.0240357 0 0.086096 0 0)
(0.0194259 -0.0293973 0 0.113344 0 0)
(0.0199922 -0.0342588 0 0.147172 0 0)
(0.0199295 -0.0374894 0 0.188685 0 0)
(0.0195608 -0.038267 0 0.237101 0 0)
(0.0191556 -0.0348372 0 0.29341 0 0)
(0.0468723 0.00333439 0 0.00922934 0 0)
(0.013679 -0.000434122 0 0.00825766 0 0)
(0.01349 -0.00230089 0 0.00719687 0 0)
(0.0122889 -0.00220254 0 0.00795929 0 0)
(0.0119431 -0.00218929 0 0.00992231 0 0)
(0.0118412 -0.00294435 0 0.0129012 0 0)
(0.0117881 -0.00439574 0 0.0170161 0 0)
(0.0118138 -0.00623962 0 0.0225727 0 0)
(0.012014 -0.00836413 0 0.0299733 0 0)
(0.0124144 -0.0108053 0 0.0397319 0 0)
(0.0129764 -0.0136056 0 0.0524049 0 0)
(0.0135488 -0.0166138 0 0.0687005 0 0)
(0.0140118 -0.0195824 0 0.0892068 0 0)
(0.014211 -0.0219591 0 0.11472 0 0)
(0.0141425 -0.0232802 0 0.14542 0 0)
(0.0139552 -0.0225975 0 0.182032 0 0)
(0.0139484 -0.0195452 0 0.223586 0 0)
(0.0146849 -0.0126767 0 0.270971 0 0)
(0.0487158 0.00232219 0 0.0103096 0 0)
(0.0143733 -0.000697535 0 0.0103317 0 0)
(0.0130546 -0.00215759 0 0.00962343 0 0)
(0.0108951 -0.00178472 0 0.0103226 0 0)
(0.00995448 -0.00141575 0 0.0122918 0 0)
(0.00948324 -0.00175873 0 0.0153219 0 0)
(0.00924785 -0.00273507 0 0.0194472 0 0)
(0.00918754 -0.00400544 0 0.02494 0 0)
(0.00921624 -0.00531673 0 0.0321739 0 0)
(0.00923084 -0.00654972 0 0.0416117 0 0)
(0.00918604 -0.00765232 0 0.0537073 0 0)
(0.00905968 -0.00843737 0 0.0689879 0 0)
(0.00888406 -0.00866536 0 0.087796 0 0)
(0.00872078 -0.00785242 0 0.110622 0 0)
(0.00868932 -0.00568544 0 0.137354 0 0)
(0.00903592 -0.00147293 0 0.168469 0 0)
(0.0100155 0.00487775 0 0.202934 0 0)
(0.01216 0.014392 0 0.241486 0 0)
(0.0478904 0.00301855 0 0.0116476 0 0)
(0.016695 -0.000560756 0 0.0109966 0 0)
(0.0154692 -0.00225688 0 0.00900658 0 0)
(0.0131149 -0.0021365 0 0.00955055 0 0)
(0.0122384 -0.00182585 0 0.0118951 0 0)
(0.0118077 -0.0019808 0 0.0154179 0 0)
(0.0113903 -0.00251732 0 0.0199085 0 0)
(0.0109947 -0.00309328 0 0.0255254 0 0)
(0.0107002 -0.00347093 0 0.0326183 0 0)
(0.0104935 -0.0035376 0 0.0416181 0 0)
(0.0103267 -0.0032202 0 0.0528713 0 0)
(0.0102168 -0.00231518 0 0.0667165 0 0)
(0.0102354 -0.000592627 0 0.0832602 0 0)
(0.0105326 0.00235587 0 0.102762 0 0)
(0.0112206 0.00672691 0 0.124945 0 0)
(0.0126154 0.013037 0 0.15014 0 0)
(0.014849 0.0212075 0 0.177375 0 0)
(0.0184506 0.0320139 0 0.207412 0 0)
(0.0467987 0.00341369 0 0.0130989 0 0)
(0.0147308 -0.00126941 0 0.012926 0 0)
(0.0144692 -0.00401776 0 0.0110544 0 0)
(0.0126522 -0.00404077 0 0.0114326 0 0)
(0.0115595 -0.00349246 0 0.0133812 0 0)
(0.010564 -0.00314931 0 0.0162927 0 0)
(0.00967659 -0.00302187 0 0.0200406 0 0)
(0.0091021 -0.00287914 0 0.0248551 0 0)
(0.00888115 -0.00248452 0 0.0310309 0 0)
(0.00889044 -0.00163844 0 0.0388075 0 0)
(0.00902816 -0.000161248 0 0.0482934 0 0)
(0.00934643 0.00217338 0 0.0595991 0 0)
(0.00998642 0.00557284 0 0.0726976 0 0)
(0.0111926 0.0102986 0 0.0877242 0 0)
(0.0131056 0.0164484 0 0.1044 0 0)
(0.0160553 0.0242616 0 0.122996 0 0)
(0.0200969 0.0336318 0 0.142761 0 0)
(0.0256812 0.0449194 0 0.164284 0 0)
(0.0473191 0.00242237 0 0.0115201 0 0)
(0.0166685 -9.86088e-05 0 0.0118413 0 0)
(0.0165821 -0.00165998 0 0.0103447 0 0)
(0.0133789 -0.00141546 0 0.010512 0 0)
(0.0115703 -0.000549385 0 0.0119381 0 0)
(0.0106107 0.000316962 0 0.0142028 0 0)
(0.0101715 0.00119051 0 0.0172721 0 0)
(0.0102131 0.00237143 0 0.0212498 0 0)
(0.0106964 0.00411535 0 0.0262176 0 0)
(0.0115092 0.00656064 0 0.032249 0 0)
(0.0125976 0.00977441 0 0.0393826 0 0)
(0.0141031 0.01386 0 0.0476906 0 0)
(0.0162391 0.0189024 0 0.0571391 0 0)
(0.0192794 0.0250541 0 0.0677956 0 0)
(0.0233554 0.0323283 0 0.079433 0 0)
(0.0287343 0.0408755 0 0.0922309 0 0)
(0.0354 0.0505413 0 0.10564 0 0)
(0.0436833 0.0615875 0 0.120107 0 0)
(0.0487294 0.00288155 0 0.0115076 0 0)
(0.0158406 -0.00122065 0 0.0123051 0 0)
(0.0132784 -0.00254735 0 0.00982034 0 0)
(0.0106183 -0.00143259 0 0.00889392 0 0)
(0.00959458 -3.3269e-05 0 0.0094995 0 0)
(0.00896375 0.00100214 0 0.0110878 0 0)
(0.00849181 0.00185677 0 0.0134156 0 0)
(0.00840517 0.00300549 0 0.016358 0 0)
(0.00888122 0.00477277 0 0.0198663 0 0)
(0.00995788 0.00724302 0 0.0239772 0 0)
(0.0116403 0.0104024 0 0.0287214 0 0)
(0.0140166 0.0142814 0 0.0341468 0 0)
(0.0172306 0.018929 0 0.0402418 0 0)
(0.0214588 0.0244483 0 0.0470599 0 0)
(0.0268057 0.0308514 0 0.0544536 0 0)
(0.0334436 0.0382457 0 0.0625463 0 0)
(0.0413755 0.046509 0 0.0709819 0 0)
(0.0507782 0.0558124 0 0.0800266 0 0)
(0.0457112 0.00275931 0 0.0106389 0 0)
(0.0144079 0.00123141 0 0.0098895 0 0)
(0.0127155 0.000660115 0 0.00786734 0 0)
(0.0101286 0.00173204 0 0.00743435 0 0)
(0.00955128 0.00299625 0 0.00797793 0 0)
(0.00989772 0.00415344 0 0.00916371 0 0)
(0.0107095 0.00540101 0 0.0108373 0 0)
(0.0119966 0.00701999 0 0.0129258 0 0)
(0.0138388 0.00919138 0 0.0154075 0 0)
(0.0162616 0.0119655 0 0.0183123 0 0)
(0.0193099 0.0153347 0 0.0216671 0 0)
(0.0231039 0.0193201 0 0.0255022 0 0)
(0.0278041 0.0239555 0 0.0297918 0 0)
(0.0335793 0.0293133 0 0.0345483 0 0)
(0.040509 0.0353837 0 0.0396543 0 0)
(0.0487582 0.0422339 0 0.0451908 0 0)
(0.0583317 0.0497608 0 0.0509207 0 0)
(0.0693371 0.0580509 0 0.057009 0 0)
(0.0471597 0.00105574 0 0.0113371 0 0)
(0.0159039 0.000487756 0 0.0095662 0 0)
(0.0149244 0.000434343 0 0.00693091 0 0)
(0.0128992 0.00116947 0 0.00622121 0 0)
(0.0123262 0.00196509 0 0.00649886 0 0)
(0.0125384 0.00277397 0 0.00725928 0 0)
(0.0132914 0.00384549 0 0.0083472 0 0)
(0.0145814 0.00538288 0 0.00972737 0 0)
(0.0164628 0.00742976 0 0.0113829 0 0)
(0.0189853 0.00995755 0 0.0133082 0 0)
(0.0222379 0.0129467 0 0.0155028 0 0)
(0.0264118 0.0164291 0 0.017982 0 0)
(0.0316909 0.0204333 0 0.0207403 0 0)
(0.0382294 0.0250205 0 0.023805 0 0)
(0.0460638 0.0301619 0 0.0271033 0 0)
(0.055318 0.035907 0 0.0307025 0 0)
(0.0659269 0.0421523 0 0.0344434 0 0)
(0.0779915 0.0489982 0 0.0384024 0 0)
(0.0537091 0.00122487 0 0.00976684 0 0)
(0.0182913 -0.000106948 0 0.00754741 0 0)
(0.015788 -0.000657905 0 0.00536149 0 0)
(0.0142533 -0.000112829 0 0.00466237 0 0)
(0.0142881 0.000646791 0 0.00482277 0 0)
(0.0146185 0.00144528 0 0.005457 0 0)
(0.0151232 0.00243251 0 0.00628456 0 0)
(0.0161374 0.00378181 0 0.00721024 0 0)
(0.0179315 0.00554326 0 0.00825885 0 0)
(0.0205652 0.00768018 0 0.00947846 0 0)
(0.0239981 0.0101424 0 0.0108873 0 0)
(0.0282466 0.0129206 0 0.0124981 0 0)
(0.0333919 0.0160357 0 0.0143089 0 0)
(0.0395983 0.0195654 0 0.0163443 0 0)
(0.0469775 0.0235462 0 0.0185518 0 0)
(0.0557328 0.0280375 0 0.0209618 0 0)
(0.0658892 0.0329873 0 0.0234531 0 0)
(0.0775328 0.0384314 0 0.0260686 0 0)
(0.0537318 0.000583152 0 0.00844605 0 0)
(0.0181389 -0.000197092 0 0.00608379 0 0)
(0.0156125 5.53458e-05 0 0.00427066 0 0)
(0.0140851 0.000935343 0 0.00377803 0 0)
(0.0139874 0.00172592 0 0.0039064 0 0)
(0.0142094 0.00245771 0 0.00425545 0 0)
(0.014881 0.00334195 0 0.0046895 0 0)
(0.0164098 0.00456942 0 0.00520412 0 0)
(0.0190665 0.00619905 0 0.00582265 0 0)
(0.0228927 0.00819823 0 0.00657087 0 0)
(0.0278022 0.0105057 0 0.00745884 0 0)
(0.0337561 0.0130855 0 0.00848919 0 0)
(0.0407687 0.0159256 0 0.00964949 0 0)
(0.0489063 0.0190534 0 0.0109346 0 0)
(0.0581607 0.0224672 0 0.0122978 0 0)
(0.0686264 0.0262094 0 0.0137629 0 0)
(0.0802884 0.0302379 0 0.0152617 0 0)
(0.0931752 0.0346191 0 0.0168124 0 0)
(0.0470499 0.00127387 0 0.00750679 0 0)
(0.0165806 -0.000512564 0 0.00552365 0 0)
(0.0157604 -0.00113876 0 0.00395972 0 0)
(0.0141137 -0.000782815 0 0.00344911 0 0)
(0.0134572 -0.000213221 0 0.00339977 0 0)
(0.0130868 0.000301792 0 0.00356049 0 0)
(0.013297 0.000794711 0 0.00382143 0 0)
(0.014443 0.00146467 0 0.0041315 0 0)
(0.0166573 0.00244375 0 0.00447168 0 0)
(0.0199222 0.00373813 0 0.00485113 0 0)
(0.0241638 0.00529975 0 0.00530242 0 0)
(0.0293617 0.00710541 0 0.00585798 0 0)
(0.0355492 0.00915631 0 0.00652307 0 0)
(0.0428319 0.011482 0 0.00729144 0 0)
(0.0512445 0.0140848 0 0.00812173 0 0)
(0.0609242 0.0169915 0 0.00903166 0 0)
(0.0718336 0.0201561 0 0.00997569 0 0)
(0.0840541 0.0235954 0 0.0109602 0 0)
(0.0458862 -3.12277e-05 0 0.00663329 0 0)
(0.0159549 -9.39749e-05 0 0.00484612 0 0)
(0.0153381 -4.49483e-05 0 0.00319384 0 0)
(0.0139249 8.35222e-05 0 0.0025023 0 0)
(0.0138292 0.000196124 0 0.00229846 0 0)
(0.0142943 0.000371027 0 0.00231212 0 0)
(0.015373 0.000681531 0 0.00240124 0 0)
(0.0171841 0.00120769 0 0.00251874 0 0)
(0.0197751 0.00198472 0 0.00266395 0 0)
(0.0231702 0.00300771 0 0.0028487 0 0)
(0.0273876 0.00426296 0 0.00308366 0 0)
(0.0325082 0.00573614 0 0.00337198 0 0)
(0.0386563 0.0074013 0 0.00371145 0 0)
(0.045993 0.00924632 0 0.004104 0 0)
(0.0545935 0.011252 0 0.00453201 0 0)
(0.0645725 0.0134316 0 0.00501191 0 0)
(0.0759068 0.0157682 0 0.00551848 0 0)
(0.0885692 0.0182939 0 0.0060425 0 0)
(0.0450861 -0.000510053 0 0.0055864 0 0)
(0.0117265 -0.000772929 0 0.00367881 0 0)
(0.0111195 -0.000418071 0 0.00254439 0 0)
(0.0109956 -7.83796e-05 0 0.00209333 0 0)
(0.0118598 0.000114514 0 0.0019438 0 0)
(0.0122776 0.00025424 0 0.00189557 0 0)
(0.0125436 0.000486389 0 0.00187672 0 0)
(0.013325 0.00089 0 0.00188294 0 0)
(0.0151186 0.00147485 0 0.00191502 0 0)
(0.0181407 0.00221831 0 0.00196827 0 0)
(0.0223951 0.00309494 0 0.00204409 0 0)
(0.0278317 0.00408904 0 0.00215386 0 0)
(0.0344313 0.00518936 0 0.00230831 0 0)
(0.042233 0.00640671 0 0.0025083 0 0)
(0.0512323 0.00774925 0 0.00273868 0 0)
(0.0614936 0.00924263 0 0.00300373 0 0)
(0.072993 0.0108757 0 0.00328429 0 0)
(0.0856876 0.0126744 0 0.00357554 0 0)
(0.0492159 -0.00107005 0 0.00433672 0 0)
(0.0182146 -0.000404207 0 0.0021427 0 0)
(0.0168099 -0.000510763 0 0.00139296 0 0)
(0.015414 -0.000507051 0 0.00111615 0 0)
(0.0156694 -0.000379801 0 0.000994701 0 0)
(0.0163737 -0.00020757 0 0.000940626 0 0)
(0.0175245 -3.30438e-05 0 0.000911416 0 0)
(0.0193098 0.000157635 0 0.000892754 0 0)
(0.0218643 0.000408396 0 0.000881417 0 0)
(0.0253125 0.000761962 0 0.000880653 0 0)
(0.0297594 0.00125191 0 0.000894434 0 0)
(0.0352741 0.001892 0 0.000924529 0 0)
(0.0419061 0.00266895 0 0.000971537 0 0)
(0.049717 0.00355706 0 0.00103655 0 0)
(0.0587259 0.00452599 0 0.00111757 0 0)
(0.0690197 0.00556645 0 0.00121982 0 0)
(0.0806131 0.00667548 0 0.00133785 0 0)
(0.0934264 0.00786394 0 0.00146633 0 0)
(0.0443306 -0.000540382 0 0.0035577 0 0)
(0.0126955 7.43275e-05 0 0.00149132 0 0)
(0.0126118 0.000205067 0 0.0010154 0 0)
(0.012161 2.37984e-05 0 0.00087149 0 0)
(0.0122059 -0.000199349 0 0.000809817 0 0)
(0.0120609 -0.000306346 0 0.000772275 0 0)
(0.0124299 -0.000251256 0 0.000750913 0 0)
(0.0138719 -8.05491e-05 0 0.000744806 0 0)
(0.0165071 0.000137188 0 0.000748948 0 0)
(0.020249 0.000364226 0 0.000760228 0 0)
(0.0249805 0.000605428 0 0.000778559 0 0)
(0.030683 0.000883879 0 0.000803876 0 0)
(0.0373872 0.00121707 0 0.000836344 0 0)
(0.0452102 0.0016079 0 0.000875758 0 0)
(0.0541615 0.00205352 0 0.000916824 0 0)
(0.0643967 0.00255927 0 0.000966762 0 0)
(0.0758217 0.00312208 0 0.00102261 0 0)
(0.0886116 0.0037544 0 0.00106988 0 0)
(0.0466724 -0.000409238 0 0.00249602 0 0)
(0.0169241 7.52719e-05 0 0.00134519 0 0)
(0.0173523 0.000216103 0 0.0010086 0 0)
(0.0155239 0.000221991 0 0.000870337 0 0)
(0.0150976 0.000342558 0 0.000784252 0 0)
(0.0159344 0.000508063 0 0.000722725 0 0)
(0.0175041 0.000593935 0 0.000671893 0 0)
(0.0193506 0.000565593 0 0.000624408 0 0)
(0.0213994 0.000483263 0 0.000577606 0 0)
(0.0238573 0.00042847 0 0.000531677 0 0)
(0.0269952 0.000449062 0 0.000488245 0 0)
(0.031029 0.000547518 0 0.000448879 0 0)
(0.036101 0.000694536 0 0.000414131 0 0)
(0.0422659 0.000853002 0 0.00038349 0 0)
(0.0495492 0.00100667 0 0.000357203 0 0)
(0.0579982 0.0011548 0 0.000338331 0 0)
(0.0676641 0.00130227 0 0.000322282 0 0)
(0.0785015 0.00146898 0 0.000305754 0 0)
(0.0225382 -0.0490996 9.38144e-22 0.108579 -1.85615e-21 2.94265e-37)
(0.160165 -0.103996 -2.21879e-21 0.0704068 1.03684e-21 2.90149e-37)
(0.360449 -0.106756 0 0.0406868 0 0)
(0.556196 -0.0766574 0 0.0295442 0 0)
(0.663555 -0.0317718 0 0.0379674 0 0)
(0.726257 -0.0145189 2.2481e-21 0.0622765 1.02052e-21 2.73303e-37)
(0.794985 -0.0425468 0 0.0903136 0 0)
(0.955053 -0.112535 0 0.105762 0 0)
(1.26372 -0.197592 0 0.109444 0 0)
(1.73379 -0.273512 0 0.101593 0 0)
(2.33989 -0.325136 2.37674e-21 0.0863916 -7.55962e-22 2.53148e-37)
(3.03454 -0.345472 0 0.0686879 0 0)
(3.75991 -0.334062 0 0.0520784 0 0)
(4.4565 -0.295884 0 0.0386075 0 0)
(5.07461 -0.23793 0 0.0291067 0 0)
(5.58047 -0.167271 2.81486e-21 0.0235896 6.65266e-22 2.33991e-37)
(5.95116 -0.0901465 0 0.0217406 0 0)
(6.17557 -0.0116718 0 0.0229738 0 0)
(6.25093 0.0634577 0 0.026723 0 0)
(6.18252 0.131532 0 0.0322558 0 0)
(5.98325 0.188944 0 0.0392274 0 0)
(5.67443 0.232213 0 0.0485153 0 0)
(5.28471 0.256935 0 0.0609538 0 0)
(4.83931 0.249043 -1.02576e-20 0.0895345 1.76669e-21 2.05382e-37)
(4.39871 0.206671 1.23645e-20 0.116893 -1.67707e-21 2.01981e-37)
(4.04172 0.0616333 -1.41683e-20 0.174711 1.22259e-21 1.98617e-37)
(3.92685 -0.158553 -1.57557e-20 0.283764 6.65903e-22 1.95291e-37)
(4.02341 -0.421879 0 0.363542 0 0)
(4.42645 -0.622171 0 0.339215 0 0)
(4.99362 -0.715265 2.01667e-20 0.399965 -3.57044e-22 1.85537e-37)
(5.67855 -0.766842 2.18344e-20 0.457101 -7.70644e-22 1.82361e-37)
(6.50076 -0.816039 0 0.46331 0 0)
(7.52236 -0.869 0 0.432069 0 0)
(8.79542 -0.932976 2.77237e-20 0.401662 -1.5033e-21 1.73063e-37)
(10.3229 -0.999811 0 0.374137 0 0)
(12.0731 -1.03375 0 0.342501 0 0)
(13.9804 -1.03154 -3.35665e-20 0.319433 1.38841e-21 1.64114e-37)
(15.9782 -1.0185 0 0.295524 0 0)
(17.9911 -0.98133 -3.73944e-20 0.270184 1.4213e-21 1.58341e-37)
(19.844 -0.89206 -7.8663e-20 0.239634 2.83718e-21 6.22048e-37)
(21.3436 -0.760211 0 0.217125 0 0)
(22.3457 -0.624685 0 0.203309 0 0)
(23.0216 -0.539831 0 0.216149 0 0)
(23.8294 -0.690219 0 0.243552 0 0)
(24.475 -0.859941 0 0.289413 0 0)
(24.7313 -0.777027 -9.60367e-20 0.319102 1.39761e-21 5.57294e-37)
(24.7211 -0.321248 -9.76775e-20 0.20307 1.50094e-21 5.47017e-37)
(24.3615 0.0976663 -9.91147e-20 0.168355 1.59634e-21 5.36886e-37)
(24.0129 0.0526239 0 0.175332 0 0)
(24.1279 -0.0981352 1.00856e-19 0.139573 -1.21876e-21 5.17056e-37)
(24.4994 -0.193497 0 0.116791 0 0)
(25.065 -0.259994 -1.01467e-19 0.0972038 9.11464e-22 4.978e-37)
(25.7652 -0.303566 -1.01562e-19 0.0817139 7.90345e-22 4.88384e-37)
(26.5567 -0.330041 0 0.0686755 0 0)
(27.4081 -0.343895 0 0.0581814 0 0)
(28.2934 -0.348598 0 0.0496578 0 0)
(29.1952 -0.346976 -1.01082e-19 0.0427761 4.18954e-22 4.52114e-37)
(30.0994 -0.340794 0 0.0371349 0 0)
(30.9954 -0.331256 0 0.0324422 0 0)
(31.874 -0.318733 0 0.0284446 0 0)
(32.7266 -0.30341 0 0.0249655 0 0)
(33.5431 -0.284967 0 0.0218675 0 0)
(34.3133 -0.263129 0 0.0190698 0 0)
(35.0245 -0.237531 0 0.0165236 0 0)
(35.6633 -0.208052 0 0.0142155 0 0)
(36.2155 -0.174649 9.48113e-20 0.0121449 1.22843e-22 3.7829e-37)
(36.6668 -0.137858 0 0.0103351 0 0)
(37.0039 -0.0981955 0 0.00879398 0 0)
(37.2163 -0.0569097 -8.99024e-20 0.00754356 -3.28351e-22 3.55949e-37)
(37.2986 -0.0151941 -8.7811e-20 0.00657442 -3.95784e-22 3.48741e-37)
(37.2442 0.0258325 0 0.00586439 0 0)
(37.0596 0.0653932 8.29434e-20 0.00537253 5.16862e-22 3.34678e-37)
(36.7443 0.102913 -8.01995e-20 0.00506398 -5.67962e-22 3.27819e-37)
(36.305 0.137804 0 0.00490151 0 0)
(35.7485 0.169599 7.42148e-20 0.0048533 6.46264e-22 3.14441e-37)
(35.0852 0.198003 0 0.00487964 0 0)
(34.325 0.223041 0 0.00494908 0 0)
(33.4779 0.244997 -6.44843e-20 0.00503279 -7.01172e-22 2.95203e-37)
(32.5523 0.264453 0 0.00511503 0 0)
(31.5546 0.282027 5.78565e-20 0.00519884 7.0598e-22 2.82914e-37)
(30.4885 0.298452 0 0.0052915 0 0)
(29.3555 0.314316 -5.13148e-20 0.00541448 -6.98253e-22 2.71042e-37)
(28.1553 0.329974 -4.8105e-20 0.00559611 -6.92514e-22 2.65258e-37)
(26.8865 0.345507 -4.49454e-20 0.00586178 -6.86206e-22 2.59575e-37)
(25.5486 0.36067 -8.3686e-20 0.00622757 -1.35844e-21 1.01596e-36)
(24.143 0.374855 7.76121e-20 0.00670934 1.34243e-21 9.94013e-37)
(22.6738 0.387236 0 0.00729737 0 0)
(21.1491 0.396873 0 0.00797284 0 0)
(19.5808 0.402847 0 0.00870438 0 0)
(17.9844 0.404375 5.51512e-20 0.00944568 1.22881e-21 9.10004e-37)
(16.3784 0.400959 5.01577e-20 0.0101506 1.1834e-21 8.89922e-37)
(14.7831 0.392344 -4.54764e-20 0.0107668 -1.13107e-21 8.70198e-37)
(13.2193 0.3786 0 0.0112443 0 0)
(11.707 0.360173 3.71303e-20 0.011546 1.00953e-21 8.31803e-37)
(10.2649 0.337692 3.34829e-20 0.0116395 9.43211e-22 8.13121e-37)
(8.90853 0.311998 3.01818e-20 0.0115093 8.75223e-22 7.94775e-37)
(7.64984 0.284003 0 0.0111537 0 0)
(6.49726 0.254694 0 0.0105925 0 0)
(5.45667 0.225 0 0.00985658 0 0)
(4.53043 0.195829 2.00795e-20 0.0089954 6.0917e-22 7.24661e-37)
(3.7188 0.168825 0 0.00815436 0 0)
(3.01843 0.142982 0 0.00720745 0 0)
(2.42128 0.119466 -1.51009e-20 0.00627907 -4.37034e-22 6.7536e-37)
(1.91979 0.0981592 0 0.00536996 0 0)
(1.50439 0.0793588 0 0.00452059 0 0)
(1.16553 0.0630591 -1.16627e-20 0.00374566 -2.88042e-22 6.28739e-37)
(0.893434 0.0492038 0 0.00305582 0 0)
(0.678575 0.0376465 0 0.00245427 0 0)
(0.511865 0.0281843 9.31643e-21 0.00193925 1.69807e-22 5.84679e-37)
(0.384911 0.0205847 8.71781e-21 0.00150591 1.37848e-22 5.70541e-37)
(0.290174 0.0146051 0 0.00114781 0 0)
(0.221016 0.0100039 -7.73535e-21 0.000857784 -8.43039e-23 5.43063e-37)
(0.171733 0.00654919 0 0.000628276 0 0)
(0.137516 0.0040233 6.98754e-21 0.000451554 4.27456e-23 5.1662e-37)
(0.114425 0.00222674 0 0.000319536 0 0)
(0.0993418 0.00098351 6.42441e-21 0.000223737 1.1249e-23 4.91179e-37)
(0.0898884 0.000147226 6.19941e-21 0.00015595 -1.50896e-24 4.78824e-37)
(0.0843046 -0.000397182 0 0.000109268 0 0)
(0.0813197 -0.000737119 0 7.86168e-05 0 0)
(0.0800362 -0.000941649 0 6.07952e-05 0 0)
(0.0798778 -0.00106967 0 5.30904e-05 0 0)
(0.0805302 -0.00116214 0 5.19827e-05 0 0)
(0.0818359 -0.00123422 0 5.44145e-05 0 0)
(0.0836927 -0.00128571 0 5.89194e-05 0 0)
(0.0859885 -0.0013118 5.31426e-21 6.49674e-05 -5.62458e-23 3.88269e-37)
(0.0885705 -0.00130805 -5.27589e-21 7.22498e-05 5.90731e-23 3.7793e-37)
(0.0912712 -0.00128518 0 8.06721e-05 0 0)
(0.0940087 -0.00127576 0 9.00828e-05 0 0)
(0.096849 -0.00130848 0 9.87544e-05 0 0)
(0.0999484 -0.00138444 0 0.000104759 0 0)
(0.103465 -0.00148556 -1.04213e-20 0.000108136 1.28213e-22 1.31706e-36)
(0.10749 -0.00159089 0 0.000110545 0 0)
(0.112039 -0.00168581 1.04309e-20 0.000113836 -1.25833e-22 1.24461e-36)
(0.11708 -0.00176547 -1.04418e-20 0.000118795 1.24716e-22 1.2095e-36)
(0.12257 -0.00183238 0 0.00012509 0 0)
(0.128472 -0.00189145 0 0.000132028 0 0)
(0.134764 -0.00194724 0 0.000139083 0 0)
(0.141438 -0.00200344 1.05213e-20 0.000146065 -1.21926e-22 1.07617e-36)
(0.148493 -0.00206355 1.05497e-20 0.000153014 -1.20965e-22 1.04456e-36)
(0.155947 -0.0021312 0 0.000159942 0 0)
(0.163827 -0.00220919 1.06136e-20 0.000166586 -1.17072e-22 9.83331e-37)
(0.172176 -0.00229814 1.06466e-20 0.000172406 -1.13772e-22 9.53692e-37)
(0.181041 -0.00239637 -1.06783e-20 0.000176752 1.09563e-22 9.24688e-37)
(0.190475 -0.00250083 0 0.000178797 0 0)
(0.200523 -0.00260714 0 0.000177203 0 0)
(0.211218 -0.00270723 -1.07467e-20 0.000170074 9.21385e-23 8.41387e-37)
(0.222556 -0.00278697 0 0.000155874 0 0)
(0.234473 -0.00282884 0 0.000135148 0 0)
(0.246841 -0.00282047 0 0.000111234 0 0)
(0.259482 -0.00276248 0 8.85945e-05 0 0)
(0.272214 -0.0026677 1.06733e-20 7.02709e-05 -5.64299e-23 7.1433e-37)
(0.284881 -0.00255259 1.06241e-20 5.68004e-05 -5.0816e-23 6.906e-37)
(0.297363 -0.00242812 0 4.70144e-05 0 0)
(0.309563 -0.00229614 1.04949e-20 3.93731e-05 -4.13643e-23 6.44752e-37)
(0.321391 -0.00215236 0 3.27535e-05 0 0)
(0.332746 -0.00199232 0 2.65973e-05 0 0)
(0.343531 -0.00181581 1.02319e-20 2.08012e-05 -2.95298e-23 5.79878e-37)
(0.353639 -0.00162873 0 1.55641e-05 0 0)
(0.363013 -0.00144151 1.00155e-20 1.11722e-05 -2.31077e-23 5.39131e-37)
(0.371605 -0.00126527 0 7.78407e-06 0 0)