/*--------------------------------*- C++ -*----------------------------------*\
  =========                 |
  \\      /  F ield         | OpenFOAM: The Open Source CFD Toolbox
   \\    /   O peration     | Website:  https://openfoam.org
    \\  /    A nd           | Version:  10
     \\/     M anipulation  |
\*---------------------------------------------------------------------------*/
FoamFile
{
    format      ascii;
    class       volVectorField;
    location    "14100";
    object      Ub;
}
// * * * * * * * * * * * * * * * * * * * * * * * * * * * * * * * * * * * * * //

dimensions      [0 1 -1 0 0 0 0];

internalField   nonuniform List<vector> 
6400
(
(-5.53994e-21 -9.87899e-16 0)
(-1.6682e-20 -9.87899e-16 0)
(-2.80137e-20 -9.87899e-16 0)
(-3.96732e-20 -9.87899e-16 0)
(-5.18174e-20 -9.87899e-16 0)
(-6.46334e-20 -9.87899e-16 0)
(-7.83545e-20 -9.87899e-16 0)
(-9.32847e-20 -9.87899e-16 0)
(-1.09839e-19 -9.87899e-16 0)
(-1.28611e-19 -9.87898e-16 0)
(-1.50505e-19 -9.87898e-16 0)
(-1.77001e-19 -9.87897e-16 0)
(-2.10782e-19 -9.87897e-16 0)
(-2.57408e-19 -9.87895e-16 0)
(-8.66184e-14 -9.87892e-16 0)
(-2.53171e-05 -2.09555e-10 0)
(-8.40739e-05 -1.33644e-05 0)
(-0.000138047 3.58484e-06 0)
(-0.000158178 -3.12663e-07 0)
(-0.000155922 -5.12814e-07 0)
(-0.000147782 -1.37269e-06 0)
(-0.000140193 -3.36385e-07 0)
(-0.000138109 -2.16555e-07 0)
(-0.000138598 2.10044e-07 0)
(-0.000139614 -9.28629e-08 0)
(-0.000138743 -1.61589e-07 0)
(-0.000137028 -2.55651e-07 0)
(-0.000134739 -2.71226e-07 0)
(-0.000131606 -4.21541e-07 0)
(-0.000128164 -3.29937e-07 0)
(-0.000125015 -3.58111e-07 0)
(-0.000120196 -6.66368e-07 0)
(-0.000114524 -1.16425e-06 0)
(-0.000108561 -1.60375e-06 0)
(-0.000100342 -2.19541e-06 0)
(-8.92336e-05 -2.92449e-06 0)
(-7.47542e-05 -3.73656e-06 0)
(-5.67475e-05 -4.53726e-06 0)
(-3.55571e-05 -5.19229e-06 0)
(-1.21228e-05 -5.56328e-06 0)
(1.21228e-05 -5.56328e-06 0)
(3.55571e-05 -5.19229e-06 0)
(5.67475e-05 -4.53726e-06 0)
(7.47542e-05 -3.73656e-06 0)
(8.92336e-05 -2.92449e-06 0)
(0.000100342 -2.19541e-06 0)
(0.000108561 -1.60375e-06 0)
(0.000114524 -1.16425e-06 0)
(0.000120196 -6.66368e-07 0)
(0.000125015 -3.58111e-07 0)
(0.000128164 -3.29937e-07 0)
(0.000131606 -4.21541e-07 0)
(0.000134739 -2.71226e-07 0)
(0.000137028 -2.55651e-07 0)
(0.000138743 -1.61589e-07 0)
(0.000139614 -9.28629e-08 0)
(0.000138598 2.10044e-07 0)
(0.000138109 -2.16555e-07 0)
(0.000140193 -3.36385e-07 0)
(0.000147782 -1.37269e-06 0)
(0.000155922 -5.12814e-07 0)
(0.000158178 -3.12663e-07 0)
(0.000138047 3.58484e-06 0)
(8.40739e-05 -1.33644e-05 0)
(2.53171e-05 -2.09555e-10 0)
(8.66184e-14 -9.87892e-16 0)
(2.57408e-19 -9.87895e-16 0)
(2.10782e-19 -9.87897e-16 0)
(1.77001e-19 -9.87897e-16 0)
(1.50505e-19 -9.87898e-16 0)
(1.28611e-19 -9.87898e-16 0)
(1.09839e-19 -9.87899e-16 0)
(9.32847e-20 -9.87899e-16 0)
(7.83545e-20 -9.87899e-16 0)
(6.46334e-20 -9.87899e-16 0)
(5.18174e-20 -9.87899e-16 0)
(3.96732e-20 -9.87899e-16 0)
(2.80137e-20 -9.87899e-16 0)
(1.6682e-20 -9.87899e-16 0)
(5.53994e-21 -9.87899e-16 0)
(-5.53723e-21 -9.87895e-16 0)
(-1.66737e-20 -9.87895e-16 0)
(-2.79994e-20 -9.87895e-16 0)
(-3.96521e-20 -9.87895e-16 0)
(-5.17881e-20 -9.87895e-16 0)
(-6.4594e-20 -9.87894e-16 0)
(-7.83018e-20 -9.87894e-16 0)
(-9.3214e-20 -9.87894e-16 0)
(-1.09742e-19 -9.87893e-16 0)
(-1.28475e-19 -9.87892e-16 0)
(-1.50305e-19 -9.87891e-16 0)
(-1.76684e-19 -9.87889e-16 0)
(-2.10225e-19 -9.87886e-16 0)
(-2.56401e-19 -9.87881e-16 0)
(-3.33877e-19 -9.8787e-16 0)
(-3.96277e-17 -9.87769e-16 0)
(-5.15898e-06 -4.87218e-14 0)
(-7.82646e-05 3.87558e-06 0)
(-0.000148009 -4.45758e-07 0)
(-0.000148999 -1.20942e-06 0)
(-0.000142106 -4.08666e-06 0)
(-0.00013517 -8.45061e-07 0)
(-0.000133641 -5.69356e-07 0)
(-0.000134446 7.65386e-07 0)
(-0.000135716 -2.2166e-07 0)
(-0.000134967 -4.30678e-07 0)
(-0.000133399 -7.32088e-07 0)
(-0.000131275 -7.76053e-07 0)
(-0.000128276 -1.26035e-06 0)
(-0.000124957 -9.6619e-07 0)
(-0.000122023 -1.04873e-06 0)
(-0.000117502 -1.99386e-06 0)
(-0.000112134 -3.51137e-06 0)
(-0.00010646 -4.85792e-06 0)
(-9.85814e-05 -6.67983e-06 0)
(-8.78454e-05 -8.933e-06 0)
(-7.37449e-05 -1.14501e-05 0)
(-5.60911e-05 -1.39413e-05 0)
(-3.51996e-05 -1.59858e-05 0)
(-1.2011e-05 -1.71458e-05 0)
(1.2011e-05 -1.71458e-05 0)
(3.51996e-05 -1.59858e-05 0)
(5.60911e-05 -1.39413e-05 0)
(7.37449e-05 -1.14501e-05 0)
(8.78454e-05 -8.933e-06 0)
(9.85814e-05 -6.67983e-06 0)
(0.00010646 -4.85792e-06 0)
(0.000112134 -3.51137e-06 0)
(0.000117502 -1.99386e-06 0)
(0.000122023 -1.04873e-06 0)
(0.000124957 -9.6619e-07 0)
(0.000128276 -1.26035e-06 0)
(0.000131275 -7.76053e-07 0)
(0.000133399 -7.32088e-07 0)
(0.000134967 -4.30678e-07 0)
(0.000135716 -2.2166e-07 0)
(0.000134446 7.65386e-07 0)
(0.000133641 -5.69356e-07 0)
(0.00013517 -8.45061e-07 0)
(0.000142106 -4.08666e-06 0)
(0.000148999 -1.20942e-06 0)
(0.000148009 -4.45758e-07 0)
(7.82646e-05 3.87558e-06 0)
(5.15898e-06 -4.87218e-14 0)
(3.96277e-17 -9.87769e-16 0)
(3.33877e-19 -9.8787e-16 0)
(2.56401e-19 -9.87881e-16 0)
(2.10225e-19 -9.87886e-16 0)
(1.76684e-19 -9.87889e-16 0)
(1.50305e-19 -9.87891e-16 0)
(1.28475e-19 -9.87892e-16 0)
(1.09742e-19 -9.87893e-16 0)
(9.3214e-20 -9.87894e-16 0)
(7.83018e-20 -9.87894e-16 0)
(6.4594e-20 -9.87894e-16 0)
(5.17881e-20 -9.87895e-16 0)
(3.96521e-20 -9.87895e-16 0)
(2.79994e-20 -9.87895e-16 0)
(1.66737e-20 -9.87895e-16 0)
(5.53723e-21 -9.87895e-16 0)
(-5.53104e-21 -9.87892e-16 0)
(-1.66548e-20 -9.87892e-16 0)
(-2.79668e-20 -9.87892e-16 0)
(-3.96038e-20 -9.87892e-16 0)
(-5.17213e-20 -9.87892e-16 0)
(-6.45039e-20 -9.87891e-16 0)
(-7.81816e-20 -9.87891e-16 0)
(-9.30527e-20 -9.8789e-16 0)
(-1.09522e-19 -9.87889e-16 0)
(-1.28165e-19 -9.87888e-16 0)
(-1.49849e-19 -9.87886e-16 0)
(-1.75965e-19 -9.87883e-16 0)
(-2.08956e-19 -9.87878e-16 0)
(-2.53667e-19 -9.87869e-16 0)
(-3.2159e-19 -9.87849e-16 0)
(-3.88725e-19 -9.87764e-16 0)
(-4.8812e-19 -9.87671e-16 0)
(-1.93378e-08 -9.40711e-16 0)
(-6.4789e-05 -2.47516e-07 0)
(-0.000135622 -7.90229e-07 0)
(-0.000136005 -7.11179e-06 0)
(-0.00013039 -1.16355e-06 0)
(-0.000129849 -9.78672e-07 0)
(-0.000131169 1.49094e-06 0)
(-0.000132863 -3.98688e-07 0)
(-0.000132169 -7.15207e-07 0)
(-0.000130716 -1.26046e-06 0)
(-0.000128747 -1.299e-06 0)
(-0.000125817 -2.20925e-06 0)
(-0.000122547 -1.63639e-06 0)
(-0.000119905 -1.75244e-06 0)
(-0.000115814 -3.36753e-06 0)
(-0.000110887 -5.93077e-06 0)
(-0.000105638 -8.23599e-06 0)
(-9.82274e-05 -1.13928e-05 0)
(-8.79343e-05 -1.53296e-05 0)
(-7.41752e-05 -1.97571e-05 0)
(-5.66763e-05 -2.41777e-05 0)
(-3.5694e-05 -2.78331e-05 0)
(-1.22031e-05 -2.99147e-05 0)
(1.22031e-05 -2.99147e-05 0)
(3.5694e-05 -2.78331e-05 0)
(5.66763e-05 -2.41777e-05 0)
(7.41752e-05 -1.97571e-05 0)
(8.79343e-05 -1.53296e-05 0)
(9.82274e-05 -1.13928e-05 0)
(0.000105638 -8.23599e-06 0)
(0.000110887 -5.93077e-06 0)
(0.000115814 -3.36753e-06 0)
(0.000119905 -1.75244e-06 0)
(0.000122547 -1.63639e-06 0)
(0.000125817 -2.20925e-06 0)
(0.000128747 -1.299e-06 0)
(0.000130716 -1.26046e-06 0)
(0.000132169 -7.15207e-07 0)
(0.000132863 -3.98688e-07 0)
(0.000131169 1.49094e-06 0)
(0.000129849 -9.78672e-07 0)
(0.00013039 -1.16355e-06 0)
(0.000136005 -7.11179e-06 0)
(0.000135622 -7.90229e-07 0)
(6.4789e-05 -2.47516e-07 0)
(1.93378e-08 -9.40711e-16 0)
(4.8812e-19 -9.87671e-16 0)
(3.88725e-19 -9.87764e-16 0)
(3.2159e-19 -9.87849e-16 0)
(2.53667e-19 -9.87869e-16 0)
(2.08956e-19 -9.87878e-16 0)
(1.75965e-19 -9.87883e-16 0)
(1.49849e-19 -9.87886e-16 0)
(1.28165e-19 -9.87888e-16 0)
(1.09522e-19 -9.87889e-16 0)
(9.30527e-20 -9.8789e-16 0)
(7.81816e-20 -9.87891e-16 0)
(6.45039e-20 -9.87891e-16 0)
(5.17213e-20 -9.87892e-16 0)
(3.96038e-20 -9.87892e-16 0)
(2.79668e-20 -9.87892e-16 0)
(1.66548e-20 -9.87892e-16 0)
(5.53104e-21 -9.87892e-16 0)
(-5.5204e-21 -9.8789e-16 0)
(-1.66223e-20 -9.8789e-16 0)
(-2.79106e-20 -9.87889e-16 0)
(-3.95208e-20 -9.87889e-16 0)
(-5.16063e-20 -9.87889e-16 0)
(-6.43491e-20 -9.87888e-16 0)
(-7.79749e-20 -9.87887e-16 0)
(-9.27755e-20 -9.87886e-16 0)
(-1.09144e-19 -9.87884e-16 0)
(-1.27635e-19 -9.87882e-16 0)
(-1.49071e-19 -9.8788e-16 0)
(-1.74745e-19 -9.87875e-16 0)
(-2.06829e-19 -9.87868e-16 0)
(-2.49213e-19 -9.87856e-16 0)
(-3.08163e-19 -9.87829e-16 0)
(-3.65604e-19 -9.87752e-16 0)
(-4.18121e-19 -9.8765e-16 0)
(-3.19399e-19 -9.87373e-16 0)
(-4.67932e-12 -9.85283e-16 0)
(-3.49127e-05 -2.5943e-08 0)
(-9.42055e-05 -4.35071e-06 0)
(-0.000122159 -6.97266e-07 0)
(-0.000125376 -1.42334e-06 0)
(-0.000127894 2.61336e-06 0)
(-0.000130412 -6.49043e-07 0)
(-0.000129753 -9.80375e-07 0)
(-0.000128435 -1.84462e-06 0)
(-0.000126663 -1.79375e-06 0)
(-0.000123757 -3.31931e-06 0)
(-0.000120461 -2.3087e-06 0)
(-0.000118246 -2.41177e-06 0)
(-0.000114776 -4.72453e-06 0)
(-0.000110493 -8.30473e-06 0)
(-0.00010589 -1.16056e-05 0)
(-9.91782e-05 -1.6227e-05 0)
(-8.95e-05 -2.20744e-05 0)
(-7.61351e-05 -2.87225e-05 0)
(-5.86472e-05 -3.5468e-05 0)
(-3.71699e-05 -4.11224e-05 0)
(-1.27507e-05 -4.43606e-05 0)
(1.27507e-05 -4.43606e-05 0)
(3.71699e-05 -4.11224e-05 0)
(5.86472e-05 -3.5468e-05 0)
(7.61351e-05 -2.87225e-05 0)
(8.95e-05 -2.20744e-05 0)
(9.91782e-05 -1.6227e-05 0)
(0.00010589 -1.16056e-05 0)
(0.000110493 -8.30473e-06 0)
(0.000114776 -4.72453e-06 0)
(0.000118246 -2.41177e-06 0)
(0.000120461 -2.3087e-06 0)
(0.000123757 -3.31931e-06 0)
(0.000126663 -1.79375e-06 0)
(0.000128435 -1.84462e-06 0)
(0.000129753 -9.80375e-07 0)
(0.000130412 -6.49043e-07 0)
(0.000127894 2.61336e-06 0)
(0.000125376 -1.42334e-06 0)
(0.000122159 -6.97266e-07 0)
(9.42055e-05 -4.35071e-06 0)
(3.49127e-05 -2.5943e-08 0)
(4.67932e-12 -9.85283e-16 0)
(3.19399e-19 -9.87373e-16 0)
(4.18121e-19 -9.8765e-16 0)
(3.65604e-19 -9.87752e-16 0)
(3.08163e-19 -9.87829e-16 0)
(2.49213e-19 -9.87856e-16 0)
(2.06829e-19 -9.87868e-16 0)
(1.74745e-19 -9.87875e-16 0)
(1.49071e-19 -9.8788e-16 0)
(1.27635e-19 -9.87882e-16 0)
(1.09144e-19 -9.87884e-16 0)
(9.27755e-20 -9.87886e-16 0)
(7.79749e-20 -9.87887e-16 0)
(6.43491e-20 -9.87888e-16 0)
(5.16063e-20 -9.87889e-16 0)
(3.95208e-20 -9.87889e-16 0)
(2.79106e-20 -9.87889e-16 0)
(1.66223e-20 -9.8789e-16 0)
(5.5204e-21 -9.8789e-16 0)
(-5.50411e-21 -9.87887e-16 0)
(-1.65726e-20 -9.87886e-16 0)
(-2.78248e-20 -9.87886e-16 0)
(-3.93939e-20 -9.87886e-16 0)
(-5.14306e-20 -9.87885e-16 0)
(-6.41127e-20 -9.87884e-16 0)
(-7.76597e-20 -9.87883e-16 0)
(-9.23532e-20 -9.87882e-16 0)
(-1.08569e-19 -9.8788e-16 0)
(-1.26831e-19 -9.87877e-16 0)
(-1.47898e-19 -9.87873e-16 0)
(-1.72924e-19 -9.87867e-16 0)
(-2.0372e-19 -9.87858e-16 0)
(-2.43077e-19 -9.87843e-16 0)
(-2.93551e-19 -9.87812e-16 0)
(-3.40615e-19 -9.8774e-16 0)
(-3.70533e-19 -9.87639e-16 0)
(-2.85403e-19 -9.87435e-16 0)
(-1.04438e-19 -9.87425e-16 0)
(1.38747e-20 -9.87427e-16 0)
(-6.51455e-09 -7.86408e-16 0)
(-5.19725e-05 -7.81926e-08 0)
(-0.000110213 -8.26213e-07 0)
(-0.00012219 4.67703e-06 0)
(-0.000127546 -1.01317e-06 0)
(-0.000127249 -1.161e-06 0)
(-0.000126249 -2.51064e-06 0)
(-0.000124818 -2.18398e-06 0)
(-0.000121908 -4.7018e-06 0)
(-0.000118479 -2.94059e-06 0)
(-0.000116899 -2.95027e-06 0)
(-0.000114286 -5.9884e-06 0)
(-0.000110902 -1.04448e-05 0)
(-0.000107276 -1.4737e-05 0)
(-0.000101623 -2.09797e-05 0)
(-9.28532e-05 -2.90577e-05 0)
(-8.00404e-05 -3.83757e-05 0)
(-6.2463e-05 -4.80932e-05 0)
(-3.99906e-05 -5.64234e-05 0)
(-1.37905e-05 -6.12287e-05 0)
(1.37905e-05 -6.12287e-05 0)
(3.99906e-05 -5.64234e-05 0)
(6.2463e-05 -4.80932e-05 0)
(8.00404e-05 -3.83757e-05 0)
(9.28532e-05 -2.90577e-05 0)
(0.000101623 -2.09797e-05 0)
(0.000107276 -1.4737e-05 0)
(0.000110902 -1.04448e-05 0)
(0.000114286 -5.9884e-06 0)
(0.000116899 -2.95027e-06 0)
(0.000118479 -2.94059e-06 0)
(0.000121908 -4.7018e-06 0)
(0.000124818 -2.18398e-06 0)
(0.000126249 -2.51064e-06 0)
(0.000127249 -1.161e-06 0)
(0.000127546 -1.01317e-06 0)
(0.00012219 4.67703e-06 0)
(0.000110213 -8.26213e-07 0)
(5.19725e-05 -7.81926e-08 0)
(6.51455e-09 -7.86408e-16 0)
(-1.38747e-20 -9.87427e-16 0)
(1.04438e-19 -9.87425e-16 0)
(2.85403e-19 -9.87435e-16 0)
(3.70533e-19 -9.87639e-16 0)
(3.40615e-19 -9.8774e-16 0)
(2.93551e-19 -9.87812e-16 0)
(2.43077e-19 -9.87843e-16 0)
(2.0372e-19 -9.87858e-16 0)
(1.72924e-19 -9.87867e-16 0)
(1.47898e-19 -9.87873e-16 0)
(1.26831e-19 -9.87877e-16 0)
(1.08569e-19 -9.8788e-16 0)
(9.23532e-20 -9.87882e-16 0)
(7.76597e-20 -9.87883e-16 0)
(6.41127e-20 -9.87884e-16 0)
(5.14306e-20 -9.87885e-16 0)
(3.93939e-20 -9.87886e-16 0)
(2.78248e-20 -9.87886e-16 0)
(1.65726e-20 -9.87886e-16 0)
(5.50411e-21 -9.87887e-16 0)
(-5.48079e-21 -9.87883e-16 0)
(-1.65014e-20 -9.87883e-16 0)
(-2.77019e-20 -9.87883e-16 0)
(-3.92123e-20 -9.87882e-16 0)
(-5.11793e-20 -9.87881e-16 0)
(-6.37749e-20 -9.8788e-16 0)
(-7.72098e-20 -9.87879e-16 0)
(-9.17519e-20 -9.87877e-16 0)
(-1.07753e-19 -9.87874e-16 0)
(-1.25695e-19 -9.87871e-16 0)
(-1.46253e-19 -9.87866e-16 0)
(-1.70402e-19 -9.87859e-16 0)
(-1.99533e-19 -9.87848e-16 0)
(-2.35339e-19 -9.8783e-16 0)
(-2.77832e-19 -9.87796e-16 0)
(-3.14763e-19 -9.8773e-16 0)
(-3.28775e-19 -9.87636e-16 0)
(-2.56812e-19 -9.87487e-16 0)
(-1.1849e-19 -9.87472e-16 0)
(-3.15388e-20 -9.87561e-16 0)
(-1.15782e-19 -9.87711e-16 0)
(-6.66712e-20 -9.86361e-16 0)
(-9.15608e-08 -8.15931e-16 0)
(-5.54025e-05 3.02328e-06 0)
(-0.000115209 -6.13406e-07 0)
(-0.000121914 -8.38477e-07 0)
(-0.000123236 -3.23824e-06 0)
(-0.000122857 -2.27223e-06 0)
(-0.000120071 -6.56186e-06 0)
(-0.000116369 -3.44069e-06 0)
(-0.000115773 -3.245e-06 0)
(-0.000114281 -7.06819e-06 0)
(-0.000112089 -1.20372e-05 0)
(-0.000109939 -1.7217e-05 0)
(-0.000105918 -2.52703e-05 0)
(-9.85357e-05 -3.60398e-05 0)
(-8.66227e-05 -4.86312e-05 0)
(-6.89707e-05 -6.23961e-05 0)
(-4.48381e-05 -7.46244e-05 0)
(-1.55786e-05 -8.17217e-05 0)
(1.55786e-05 -8.17217e-05 0)
(4.48381e-05 -7.46244e-05 0)
(6.89707e-05 -6.23961e-05 0)
(8.66227e-05 -4.86312e-05 0)
(9.85357e-05 -3.60398e-05 0)
(0.000105918 -2.52703e-05 0)
(0.000109939 -1.7217e-05 0)
(0.000112089 -1.20372e-05 0)
(0.000114281 -7.06819e-06 0)
(0.000115773 -3.245e-06 0)
(0.000116369 -3.44069e-06 0)
(0.000120071 -6.56186e-06 0)
(0.000122857 -2.27223e-06 0)
(0.000123236 -3.23824e-06 0)
(0.000121914 -8.38477e-07 0)
(0.000115209 -6.13406e-07 0)
(5.54025e-05 3.02328e-06 0)
(9.15608e-08 -8.15931e-16 0)
(6.66712e-20 -9.86361e-16 0)
(1.15782e-19 -9.87711e-16 0)
(3.15388e-20 -9.87561e-16 0)
(1.1849e-19 -9.87472e-16 0)
(2.56812e-19 -9.87487e-16 0)
(3.28775e-19 -9.87636e-16 0)
(3.14763e-19 -9.8773e-16 0)
(2.77832e-19 -9.87796e-16 0)
(2.35339e-19 -9.8783e-16 0)
(1.99533e-19 -9.87848e-16 0)
(1.70402e-19 -9.87859e-16 0)
(1.46253e-19 -9.87866e-16 0)
(1.25695e-19 -9.87871e-16 0)
(1.07753e-19 -9.87874e-16 0)
(9.17519e-20 -9.87877e-16 0)
(7.72098e-20 -9.87879e-16 0)
(6.37749e-20 -9.8788e-16 0)
(5.11793e-20 -9.87881e-16 0)
(3.92123e-20 -9.87882e-16 0)
(2.77019e-20 -9.87883e-16 0)
(1.65014e-20 -9.87883e-16 0)
(5.48079e-21 -9.87883e-16 0)
(-5.44876e-21 -9.87879e-16 0)
(-1.64036e-20 -9.87879e-16 0)
(-2.75332e-20 -9.87879e-16 0)
(-3.89633e-20 -9.87878e-16 0)
(-5.0835e-20 -9.87877e-16 0)
(-6.33127e-20 -9.87876e-16 0)
(-7.65956e-20 -9.87874e-16 0)
(-9.0933e-20 -9.87872e-16 0)
(-1.06647e-19 -9.87869e-16 0)
(-1.24163e-19 -9.87865e-16 0)
(-1.44056e-19 -9.87859e-16 0)
(-1.67093e-19 -9.87851e-16 0)
(-1.94212e-19 -9.87838e-16 0)
(-2.26122e-19 -9.87817e-16 0)
(-2.61199e-19 -9.87782e-16 0)
(-2.8891e-19 -9.87722e-16 0)
(-2.92358e-19 -9.87638e-16 0)
(-2.32696e-19 -9.87529e-16 0)
(-1.28295e-19 -9.87511e-16 0)
(-6.26632e-20 -9.87573e-16 0)
(-1.02155e-19 -9.87658e-16 0)
(-7.85279e-20 -9.87515e-16 0)
(-1.27813e-19 -9.87702e-16 0)
(-1.7643e-20 -9.82899e-16 0)
(-9.89119e-09 -7.495e-16 0)
(-4.79697e-05 -2.298e-07 0)
(-0.000104313 -1.80433e-06 0)
(-0.000116821 -1.11209e-06 0)
(-0.00011698 -9.18434e-06 0)
(-0.00011345 -3.56494e-06 0)
(-0.00011467 -3.08272e-06 0)
(-0.000114608 -7.89492e-06 0)
(-0.000113904 -1.25632e-05 0)
(-0.000114032 -1.82843e-05 0)
(-0.0001126 -2.83929e-05 0)
(-0.000107354 -4.25829e-05 0)
(-9.70639e-05 -5.90596e-05 0)
(-7.97124e-05 -7.87295e-05 0)
(-5.29959e-05 -9.72165e-05 0)
(-1.85902e-05 -0.000107901 0)
(1.85902e-05 -0.000107901 0)
(5.29959e-05 -9.72165e-05 0)
(7.97124e-05 -7.87295e-05 0)
(9.70639e-05 -5.90596e-05 0)
(0.000107354 -4.25829e-05 0)
(0.0001126 -2.83929e-05 0)
(0.000114032 -1.82843e-05 0)
(0.000113904 -1.25632e-05 0)
(0.000114608 -7.89492e-06 0)
(0.00011467 -3.08272e-06 0)
(0.00011345 -3.56494e-06 0)
(0.00011698 -9.18434e-06 0)
(0.000116821 -1.11209e-06 0)
(0.000104313 -1.80433e-06 0)
(4.79697e-05 -2.298e-07 0)
(9.89119e-09 -7.495e-16 0)
(1.7643e-20 -9.82899e-16 0)
(1.27813e-19 -9.87702e-16 0)
(7.85279e-20 -9.87515e-16 0)
(1.02155e-19 -9.87658e-16 0)
(6.26632e-20 -9.87573e-16 0)
(1.28295e-19 -9.87511e-16 0)
(2.32696e-19 -9.87529e-16 0)
(2.92358e-19 -9.87638e-16 0)
(2.8891e-19 -9.87722e-16 0)
(2.61199e-19 -9.87782e-16 0)
(2.26122e-19 -9.87817e-16 0)
(1.94212e-19 -9.87838e-16 0)
(1.67093e-19 -9.87851e-16 0)
(1.44056e-19 -9.87859e-16 0)
(1.24163e-19 -9.87865e-16 0)
(1.06647e-19 -9.87869e-16 0)
(9.0933e-20 -9.87872e-16 0)
(7.65956e-20 -9.87874e-16 0)
(6.33127e-20 -9.87876e-16 0)
(5.0835e-20 -9.87877e-16 0)
(3.89633e-20 -9.87878e-16 0)
(2.75332e-20 -9.87879e-16 0)
(1.64036e-20 -9.87879e-16 0)
(5.44876e-21 -9.87879e-16 0)
(-5.40611e-21 -9.87875e-16 0)
(-1.62735e-20 -9.87875e-16 0)
(-2.73087e-20 -9.87875e-16 0)
(-3.86322e-20 -9.87874e-16 0)
(-5.03779e-20 -9.87873e-16 0)
(-6.27001e-20 -9.87871e-16 0)
(-7.57834e-20 -9.87869e-16 0)
(-8.98541e-20 -9.87866e-16 0)
(-1.05196e-19 -9.87863e-16 0)
(-1.22171e-19 -9.87858e-16 0)
(-1.41234e-19 -9.87851e-16 0)
(-1.62926e-19 -9.87842e-16 0)
(-1.87747e-19 -9.87828e-16 0)
(-2.15597e-19 -9.87806e-16 0)
(-2.43922e-19 -9.87771e-16 0)
(-2.63739e-19 -9.87716e-16 0)
(-2.60703e-19 -9.87644e-16 0)
(-2.1212e-19 -9.87563e-16 0)
(-1.33958e-19 -9.87544e-16 0)
(-8.29968e-20 -9.87583e-16 0)
(-9.54965e-20 -9.87629e-16 0)
(-8.19667e-20 -9.87557e-16 0)
(-9.81519e-20 -9.87636e-16 0)
(-2.74767e-20 -9.87431e-16 0)
(-1.297e-22 -9.87673e-16 0)
(6.44544e-20 -9.86089e-16 0)
(-8.67285e-12 -7.84554e-16 0)
(-2.57721e-05 -9.66241e-09 0)
(-7.37532e-05 -5.36201e-06 0)
(-0.000101847 -1.74389e-06 0)
(-0.000111133 -1.76977e-06 0)
(-0.000114202 -8.4662e-06 0)
(-0.000115507 -1.11131e-05 0)
(-0.000119418 -1.64055e-05 0)
(-0.000122395 -2.89825e-05 0)
(-0.000120334 -4.81308e-05 0)
(-0.000113161 -6.81278e-05 0)
(-9.76631e-05 -9.71705e-05 0)
(-6.70131e-05 -0.000126978 0)
(-2.37242e-05 -0.000143506 0)
(2.37242e-05 -0.000143506 0)
(6.70131e-05 -0.000126978 0)
(9.76631e-05 -9.71705e-05 0)
(0.000113161 -6.81278e-05 0)
(0.000120334 -4.81308e-05 0)
(0.000122395 -2.89825e-05 0)
(0.000119418 -1.64055e-05 0)
(0.000115507 -1.11131e-05 0)
(0.000114202 -8.4662e-06 0)
(0.000111133 -1.76977e-06 0)
(0.000101847 -1.74389e-06 0)
(7.37532e-05 -5.36201e-06 0)
(2.57721e-05 -9.66241e-09 0)
(8.67285e-12 -7.84554e-16 0)
(-6.44544e-20 -9.86089e-16 0)
(1.297e-22 -9.87673e-16 0)
(2.74767e-20 -9.87431e-16 0)
(9.81519e-20 -9.87636e-16 0)
(8.19667e-20 -9.87557e-16 0)
(9.54965e-20 -9.87629e-16 0)
(8.29968e-20 -9.87583e-16 0)
(1.33958e-19 -9.87544e-16 0)
(2.1212e-19 -9.87563e-16 0)
(2.60703e-19 -9.87644e-16 0)
(2.63739e-19 -9.87716e-16 0)
(2.43922e-19 -9.87771e-16 0)
(2.15597e-19 -9.87806e-16 0)
(1.87747e-19 -9.87828e-16 0)
(1.62926e-19 -9.87842e-16 0)
(1.41234e-19 -9.87851e-16 0)
(1.22171e-19 -9.87858e-16 0)
(1.05196e-19 -9.87863e-16 0)
(8.98541e-20 -9.87866e-16 0)
(7.57834e-20 -9.87869e-16 0)
(6.27001e-20 -9.87871e-16 0)
(5.03779e-20 -9.87873e-16 0)
(3.86322e-20 -9.87874e-16 0)
(2.73087e-20 -9.87875e-16 0)
(1.62735e-20 -9.87875e-16 0)
(5.40611e-21 -9.87875e-16 0)
(-5.35061e-21 -9.87871e-16 0)
(-1.61042e-20 -9.87871e-16 0)
(-2.7017e-20 -9.8787e-16 0)
(-3.82024e-20 -9.87869e-16 0)
(-4.97854e-20 -9.87868e-16 0)
(-6.1908e-20 -9.87866e-16 0)
(-7.47366e-20 -9.87864e-16 0)
(-8.84699e-20 -9.8786e-16 0)
(-1.03347e-19 -9.87856e-16 0)
(-1.19656e-19 -9.87851e-16 0)
(-1.37723e-19 -9.87843e-16 0)
(-1.57862e-19 -9.87833e-16 0)
(-1.80178e-19 -9.87817e-16 0)
(-2.03977e-19 -9.87795e-16 0)
(-2.26317e-19 -9.87761e-16 0)
(-2.39741e-19 -9.87712e-16 0)
(-2.33179e-19 -9.87652e-16 0)
(-1.94225e-19 -9.87591e-16 0)
(-1.35873e-19 -9.87572e-16 0)
(-9.52736e-20 -9.87592e-16 0)
(-9.23056e-20 -9.87616e-16 0)
(-8.10442e-20 -9.8758e-16 0)
(-7.93405e-20 -9.87608e-16 0)
(-3.1419e-20 -9.87508e-16 0)
(5.53662e-23 -9.8762e-16 0)
(4.60301e-20 -9.87513e-16 0)
(6.10794e-20 -9.87697e-16 0)
(6.92801e-20 -9.87481e-16 0)
(8.4572e-20 -8.67095e-16 0)
(-5.18706e-09 -7.05345e-16 0)
(-3.72254e-05 -3.43284e-07 0)
(-8.79013e-05 -4.34645e-06 0)
(-0.000106879 -4.87377e-06 0)
(-0.000120239 -7.23504e-06 0)
(-0.000133629 -2.33083e-05 0)
(-0.000136779 -5.30069e-05 0)
(-0.000136523 -7.00504e-05 0)
(-0.000128962 -0.000116249 0)
(-9.22455e-05 -0.000170047 0)
(-3.2615e-05 -0.000195573 0)
(3.2615e-05 -0.000195573 0)
(9.22455e-05 -0.000170047 0)
(0.000128962 -0.000116249 0)
(0.000136523 -7.00504e-05 0)
(0.000136779 -5.30069e-05 0)
(0.000133629 -2.33083e-05 0)
(0.000120239 -7.23504e-06 0)
(0.000106879 -4.87377e-06 0)
(8.79013e-05 -4.34645e-06 0)
(3.72254e-05 -3.43284e-07 0)
(5.18706e-09 -7.05345e-16 0)
(-8.4572e-20 -8.67095e-16 0)
(-6.92801e-20 -9.87481e-16 0)
(-6.10794e-20 -9.87697e-16 0)
(-4.60301e-20 -9.87513e-16 0)
(-5.53662e-23 -9.8762e-16 0)
(3.1419e-20 -9.87508e-16 0)
(7.93405e-20 -9.87608e-16 0)
(8.10442e-20 -9.8758e-16 0)
(9.23056e-20 -9.87616e-16 0)
(9.52736e-20 -9.87592e-16 0)
(1.35873e-19 -9.87572e-16 0)
(1.94225e-19 -9.87591e-16 0)
(2.33179e-19 -9.87652e-16 0)
(2.39741e-19 -9.87712e-16 0)
(2.26317e-19 -9.87761e-16 0)
(2.03977e-19 -9.87795e-16 0)
(1.80178e-19 -9.87817e-16 0)
(1.57862e-19 -9.87833e-16 0)
(1.37723e-19 -9.87843e-16 0)
(1.19656e-19 -9.87851e-16 0)
(1.03347e-19 -9.87856e-16 0)
(8.84699e-20 -9.8786e-16 0)
(7.47366e-20 -9.87864e-16 0)
(6.1908e-20 -9.87866e-16 0)
(4.97854e-20 -9.87868e-16 0)
(3.82024e-20 -9.87869e-16 0)
(2.7017e-20 -9.8787e-16 0)
(1.61042e-20 -9.87871e-16 0)
(5.35061e-21 -9.87871e-16 0)
(-5.27979e-21 -9.87866e-16 0)
(-1.58883e-20 -9.87866e-16 0)
(-2.66452e-20 -9.87865e-16 0)
(-3.76554e-20 -9.87864e-16 0)
(-4.90329e-20 -9.87863e-16 0)
(-6.0905e-20 -9.87861e-16 0)
(-7.34166e-20 -9.87858e-16 0)
(-8.67342e-20 -9.87854e-16 0)
(-1.01048e-19 -9.8785e-16 0)
(-1.16564e-19 -9.87843e-16 0)
(-1.33479e-19 -9.87835e-16 0)
(-1.51895e-19 -9.87824e-16 0)
(-1.71593e-19 -9.87808e-16 0)
(-1.91509e-19 -9.87785e-16 0)
(-2.08702e-19 -9.87753e-16 0)
(-2.17218e-19 -9.8771e-16 0)
(-2.09146e-19 -9.8766e-16 0)
(-1.78284e-19 -9.87613e-16 0)
(-1.34599e-19 -9.87595e-16 0)
(-1.01587e-19 -9.87603e-16 0)
(-9.03818e-20 -9.87613e-16 0)
(-7.82158e-20 -9.87594e-16 0)
(-6.74916e-20 -9.87599e-16 0)
(-3.26174e-20 -9.87553e-16 0)
(-2.49745e-21 -9.87602e-16 0)
(3.16992e-20 -9.87566e-16 0)
(4.76117e-20 -9.87658e-16 0)
(5.41372e-20 -9.87622e-16 0)
(4.92834e-20 -9.87721e-16 0)
(-4.85547e-20 -9.87737e-16 0)
(3.79639e-20 -9.86627e-16 0)
(8.43642e-20 -8.48592e-16 0)
(-4.69471e-18 -7.33419e-16 0)
(-6.291e-07 -9.79615e-15 0)
(-2.99661e-05 -9.0996e-06 0)
(-8.65965e-05 -2.77139e-05 0)
(-0.000147413 -3.40385e-05 0)
(-0.000180813 -0.000125309 0)
(-0.000137651 -0.000241974 0)
(-4.69905e-05 -0.00027634 0)
(4.69905e-05 -0.00027634 0)
(0.000137651 -0.000241974 0)
(0.000180813 -0.000125309 0)
(0.000147413 -3.40385e-05 0)
(8.65965e-05 -2.77139e-05 0)
(2.99661e-05 -9.0996e-06 0)
(6.291e-07 -9.79615e-15 0)
(4.69471e-18 -7.33419e-16 0)
(-8.43642e-20 -8.48592e-16 0)
(-3.79639e-20 -9.86627e-16 0)
(4.85547e-20 -9.87737e-16 0)
(-4.92834e-20 -9.87721e-16 0)
(-5.41372e-20 -9.87622e-16 0)
(-4.76117e-20 -9.87658e-16 0)
(-3.16992e-20 -9.87566e-16 0)
(2.49745e-21 -9.87602e-16 0)
(3.26174e-20 -9.87553e-16 0)
(6.74916e-20 -9.87599e-16 0)
(7.82158e-20 -9.87594e-16 0)
(9.03818e-20 -9.87613e-16 0)
(1.01587e-19 -9.87603e-16 0)
(1.34599e-19 -9.87595e-16 0)
(1.78284e-19 -9.87613e-16 0)
(2.09146e-19 -9.8766e-16 0)
(2.17218e-19 -9.8771e-16 0)
(2.08702e-19 -9.87753e-16 0)
(1.91509e-19 -9.87785e-16 0)
(1.71593e-19 -9.87808e-16 0)
(1.51895e-19 -9.87824e-16 0)
(1.33479e-19 -9.87835e-16 0)
(1.16564e-19 -9.87843e-16 0)
(1.01048e-19 -9.8785e-16 0)
(8.67342e-20 -9.87854e-16 0)
(7.34166e-20 -9.87858e-16 0)
(6.0905e-20 -9.87861e-16 0)
(4.90329e-20 -9.87863e-16 0)
(3.76554e-20 -9.87864e-16 0)
(2.66452e-20 -9.87865e-16 0)
(1.58883e-20 -9.87866e-16 0)
(5.27979e-21 -9.87866e-16 0)
(-5.19093e-21 -9.87861e-16 0)
(-1.56175e-20 -9.87861e-16 0)
(-2.61795e-20 -9.8786e-16 0)
(-3.69714e-20 -9.87859e-16 0)
(-4.80945e-20 -9.87857e-16 0)
(-5.96586e-20 -9.87855e-16 0)
(-7.17844e-20 -9.87852e-16 0)
(-8.46027e-20 -9.87848e-16 0)
(-9.825e-20 -9.87842e-16 0)
(-1.12852e-19 -9.87836e-16 0)
(-1.2848e-19 -9.87827e-16 0)
(-1.45056e-19 -9.87815e-16 0)
(-1.62128e-19 -9.87799e-16 0)
(-1.78457e-19 -9.87777e-16 0)
(-1.91366e-19 -9.87747e-16 0)
(-1.96307e-19 -9.8771e-16 0)
(-1.87996e-19 -9.87668e-16 0)
(-1.63731e-19 -9.87632e-16 0)
(-1.30761e-19 -9.87613e-16 0)
(-1.03527e-19 -9.87613e-16 0)
(-8.84914e-20 -9.87615e-16 0)
(-7.4784e-20 -9.87605e-16 0)
(-6.00169e-20 -9.87602e-16 0)
(-3.28447e-20 -9.8758e-16 0)
(-6.22954e-21 -9.87602e-16 0)
(2.01611e-20 -9.87596e-16 0)
(3.49862e-20 -9.87643e-16 0)
(4.01299e-20 -9.87642e-16 0)
(3.18369e-20 -9.87694e-16 0)
(-1.25384e-20 -9.87695e-16 0)
(2.71766e-20 -9.8759e-16 0)
(4.59103e-20 -9.87728e-16 0)
(-1.50858e-20 -9.87706e-16 0)
(-7.50802e-21 -9.8763e-16 0)
(7.35227e-20 -9.82202e-16 0)
(7.44423e-20 -9.33348e-16 0)
(-1.02696e-06 -2.00364e-10 0)
(-5.41372e-05 -6.76314e-05 0)
(-0.000104827 -0.000289948 0)
(-5.17166e-05 -0.00038562 0)
(5.17166e-05 -0.00038562 0)
(0.000104827 -0.000289948 0)
(5.41372e-05 -6.76314e-05 0)
(1.02696e-06 -2.00364e-10 0)
(-7.44423e-20 -9.33348e-16 0)
(-7.35227e-20 -9.82202e-16 0)
(7.50802e-21 -9.8763e-16 0)
(1.50858e-20 -9.87706e-16 0)
(-4.59103e-20 -9.87728e-16 0)
(-2.71766e-20 -9.8759e-16 0)
(1.25384e-20 -9.87695e-16 0)
(-3.18369e-20 -9.87694e-16 0)
(-4.01299e-20 -9.87642e-16 0)
(-3.49862e-20 -9.87643e-16 0)
(-2.01611e-20 -9.87596e-16 0)
(6.22954e-21 -9.87602e-16 0)
(3.28447e-20 -9.8758e-16 0)
(6.00169e-20 -9.87602e-16 0)
(7.4784e-20 -9.87605e-16 0)
(8.84914e-20 -9.87615e-16 0)
(1.03527e-19 -9.87613e-16 0)
(1.30761e-19 -9.87613e-16 0)
(1.63731e-19 -9.87632e-16 0)
(1.87996e-19 -9.87668e-16 0)
(1.96307e-19 -9.8771e-16 0)
(1.91366e-19 -9.87747e-16 0)
(1.78457e-19 -9.87777e-16 0)
(1.62128e-19 -9.87799e-16 0)
(1.45056e-19 -9.87815e-16 0)
(1.2848e-19 -9.87827e-16 0)
(1.12852e-19 -9.87836e-16 0)
(9.825e-20 -9.87842e-16 0)
(8.46027e-20 -9.87848e-16 0)
(7.17844e-20 -9.87852e-16 0)
(5.96586e-20 -9.87855e-16 0)
(4.80945e-20 -9.87857e-16 0)
(3.69714e-20 -9.87859e-16 0)
(2.61795e-20 -9.8786e-16 0)
(1.56175e-20 -9.87861e-16 0)
(5.19093e-21 -9.87861e-16 0)
(-5.08118e-21 -9.87856e-16 0)
(-1.52833e-20 -9.87855e-16 0)
(-2.56054e-20 -9.87854e-16 0)
(-3.61302e-20 -9.87853e-16 0)
(-4.69439e-20 -9.87851e-16 0)
(-5.81371e-20 -9.87848e-16 0)
(-6.98036e-20 -9.87845e-16 0)
(-8.20368e-20 -9.87841e-16 0)
(-9.4919e-20 -9.87835e-16 0)
(-1.08498e-19 -9.87828e-16 0)
(-1.22738e-19 -9.87819e-16 0)
(-1.37418e-19 -9.87806e-16 0)
(-1.51951e-19 -9.8779e-16 0)
(-1.65081e-19 -9.87769e-16 0)
(-1.74542e-19 -9.87742e-16 0)
(-1.77016e-19 -9.8771e-16 0)
(-1.69187e-19 -9.87676e-16 0)
(-1.50163e-19 -9.87647e-16 0)
(-1.24974e-19 -9.87629e-16 0)
(-1.02298e-19 -9.87624e-16 0)
(-8.60527e-20 -9.87621e-16 0)
(-7.13114e-20 -9.87614e-16 0)
(-5.52306e-20 -9.87609e-16 0)
(-3.29408e-20 -9.87599e-16 0)
(-1.02612e-20 -9.8761e-16 0)
(1.0687e-20 -9.87614e-16 0)
(2.38011e-20 -9.8764e-16 0)
(2.84621e-20 -9.8765e-16 0)
(2.26257e-20 -9.87678e-16 0)
(3.83564e-21 -9.87677e-16 0)
(2.11158e-20 -9.87637e-16 0)
(2.98919e-20 -9.87695e-16 0)
(9.80176e-21 -9.87685e-16 0)
(1.42294e-20 -9.87667e-16 0)
(3.18794e-20 -9.87666e-16 0)
(3.03587e-20 -9.87711e-16 0)
(-3.50358e-10 -2.55367e-15 0)
(-9.85817e-07 -8.91824e-06 0)
(-1.39888e-05 -0.000276942 0)
(-1.30034e-05 -0.000462224 0)
(1.30034e-05 -0.000462224 0)
(1.39888e-05 -0.000276942 0)
(9.85817e-07 -8.91824e-06 0)
(3.50358e-10 -2.55367e-15 0)
(-3.03587e-20 -9.87711e-16 0)
(-3.18794e-20 -9.87666e-16 0)
(-1.42294e-20 -9.87667e-16 0)
(-9.80176e-21 -9.87685e-16 0)
(-2.98919e-20 -9.87695e-16 0)
(-2.11158e-20 -9.87637e-16 0)
(-3.83564e-21 -9.87677e-16 0)
(-2.26257e-20 -9.87678e-16 0)
(-2.84621e-20 -9.8765e-16 0)
(-2.38011e-20 -9.8764e-16 0)
(-1.0687e-20 -9.87614e-16 0)
(1.02612e-20 -9.8761e-16 0)
(3.29408e-20 -9.87599e-16 0)
(5.52306e-20 -9.87609e-16 0)
(7.13114e-20 -9.87614e-16 0)
(8.60527e-20 -9.87621e-16 0)
(1.02298e-19 -9.87624e-16 0)
(1.24974e-19 -9.87629e-16 0)
(1.50163e-19 -9.87647e-16 0)
(1.69187e-19 -9.87676e-16 0)
(1.77016e-19 -9.8771e-16 0)
(1.74542e-19 -9.87742e-16 0)
(1.65081e-19 -9.87769e-16 0)
(1.51951e-19 -9.8779e-16 0)
(1.37418e-19 -9.87806e-16 0)
(1.22738e-19 -9.87819e-16 0)
(1.08498e-19 -9.87828e-16 0)
(9.4919e-20 -9.87835e-16 0)
(8.20368e-20 -9.87841e-16 0)
(6.98036e-20 -9.87845e-16 0)
(5.81371e-20 -9.87848e-16 0)
(4.69439e-20 -9.87851e-16 0)
(3.61302e-20 -9.87853e-16 0)
(2.56054e-20 -9.87854e-16 0)
(1.52833e-20 -9.87855e-16 0)
(5.08118e-21 -9.87856e-16 0)
(-4.94764e-21 -9.8785e-16 0)
(-1.4877e-20 -9.87849e-16 0)
(-2.49087e-20 -9.87848e-16 0)
(-3.51119e-20 -9.87847e-16 0)
(-4.55564e-20 -9.87845e-16 0)
(-5.63117e-20 -9.87842e-16 0)
(-6.74436e-20 -9.87838e-16 0)
(-7.90077e-20 -9.87834e-16 0)
(-9.10349e-20 -9.87828e-16 0)
(-1.03504e-19 -9.8782e-16 0)
(-1.16293e-19 -9.87811e-16 0)
(-1.29089e-19 -9.87798e-16 0)
(-1.41252e-19 -9.87783e-16 0)
(-1.51626e-19 -9.87763e-16 0)
(-1.584e-19 -9.87739e-16 0)
(-1.59267e-19 -9.87712e-16 0)
(-1.52262e-19 -9.87684e-16 0)
(-1.3732e-19 -9.87659e-16 0)
(-1.17795e-19 -9.87643e-16 0)
(-9.88236e-20 -9.87635e-16 0)
(-8.28801e-20 -9.87629e-16 0)
(-6.79458e-20 -9.87623e-16 0)
(-5.20354e-20 -9.87618e-16 0)
(-3.31752e-20 -9.87614e-16 0)
(-1.41104e-20 -9.87619e-16 0)
(2.88784e-21 -9.87626e-16 0)
(1.43302e-20 -9.87642e-16 0)
(1.9138e-20 -9.87654e-16 0)
(1.68091e-20 -9.8767e-16 0)
(9.85948e-21 -9.87671e-16 0)
(1.72822e-20 -9.87658e-16 0)
(2.16467e-20 -9.87682e-16 0)
(1.52365e-20 -9.8768e-16 0)
(1.59217e-20 -9.87678e-16 0)
(1.83184e-20 -9.8768e-16 0)
(1.5499e-20 -9.87691e-16 0)
(6.28446e-21 -1.60661e-15 0)
(-8.65426e-08 -7.30216e-06 0)
(-2.82503e-06 -0.000257942 0)
(-2.73849e-06 -0.000482944 0)
(2.73849e-06 -0.000482944 0)