/*--------------------------------*- C++ -*----------------------------------*\
  =========                 |
  \\      /  F ield         | OpenFOAM: The Open Source CFD Toolbox
   \\    /   O peration     | Website:  https://openfoam.org
    \\  /    A nd           | Version:  10
     \\/     M anipulation  |
\*---------------------------------------------------------------------------*/
FoamFile
{
    format      ascii;
    class       volVectorField;
    location    "3";
    object      Ua;
}
// * * * * * * * * * * * * * * * * * * * * * * * * * * * * * * * * * * * * * //

dimensions      [0 1 -1 0 0 0 0];

internalField   nonuniform List<vector> 
12225
(
(-2.58616e-06 5.20947e-07 0)
(-8.38439e-06 6.73953e-07 0)
(-1.61676e-05 9.99024e-07 0)
(-2.75371e-05 1.54762e-06 0)
(-4.44706e-05 2.40326e-06 0)
(-6.95206e-05 3.68376e-06 0)
(-0.000105983 5.54338e-06 0)
(-0.000158026 8.17223e-06 0)
(-0.000230765 1.17908e-05 0)
(-0.000330236 1.66389e-05 0)
(-0.000463294 2.2964e-05 0)
(-0.000637478 3.10255e-05 0)
(-0.000861121 4.11659e-05 0)
(-0.00114441 5.40763e-05 0)
(-0.00150341 7.16522e-05 0)
(-0.00197372 0.000100001 0)
(-0.00266511 0.000163252 0)
(-0.00406578 0.000394244 0)
(-2.55359e-06 1.5932e-06 0)
(-8.27972e-06 2.06135e-06 0)
(-1.59688e-05 3.05598e-06 0)
(-2.72045e-05 4.73463e-06 0)
(-4.39438e-05 7.35302e-06 0)
(-6.87141e-05 1.12721e-05 0)
(-0.000104782 1.69648e-05 0)
(-0.000156286 2.50142e-05 0)
(-0.000228309 3.60973e-05 0)
(-0.000326862 5.09511e-05 0)
(-0.00045877 7.03336e-05 0)
(-0.000631517 9.50328e-05 0)
(-0.000853256 0.000126064 0)
(-0.00113357 0.000165423 0)
(-0.00148637 0.000218447 0)
(-0.00193821 0.000301551 0)
(-0.00254585 0.000472618 0)
(-0.003349 0.000983084 0)
(-2.48167e-06 2.71873e-06 0)
(-8.04865e-06 3.5184e-06 0)
(-1.55298e-05 5.21748e-06 0)
(-2.64701e-05 8.08535e-06 0)
(-4.27804e-05 1.25596e-05 0)
(-6.69328e-05 1.92584e-05 0)
(-0.00010213 2.89927e-05 0)
(-0.000152441 4.27646e-05 0)
(-0.000222879 6.17393e-05 0)
(-0.000319397 8.71863e-05 0)
(-0.000448761 0.000120407 0)
(-0.000618343 0.000162727 0)
(-0.000835946 0.000215769 0)
(-0.00110998 0.00028254 0)
(-0.00145052 0.000370699 0)
(-0.00187074 0.000502026 0)
(-0.00237804 0.000741077 0)
(-0.00287102 0.00127838 0)
(-2.36317e-06 3.87902e-06 0)
(-7.66787e-06 5.02187e-06 0)
(-1.48064e-05 7.45033e-06 0)
(-2.52595e-05 1.155e-05 0)
(-4.0862e-05 1.79481e-05 0)
(-6.39941e-05 2.7532e-05 0)
(-9.77515e-05 4.14684e-05 0)
(-0.000146087 6.1203e-05 0)
(-0.000213901 8.84224e-05 0)
(-0.000307046 0.000124968 0)
(-0.0004322 0.000172717 0)
(-0.000596586 0.000233527 0)
(-0.000807545 0.000309488 0)
(-0.00107199 0.00040408 0)
(-0.00139547 0.000525519 0)
(-0.00177843 0.000695078 0)
(-0.00219779 0.000965067 0)
(-0.00253332 0.00143963 0)
(-2.1906e-06 5.04733e-06 0)
(-7.11333e-06 6.53814e-06 0)
(-1.37527e-05 9.70637e-06 0)
(-2.34956e-05 1.50563e-05 0)
(-3.80654e-05 2.34093e-05 0)
(-5.97072e-05 3.59305e-05 0)
(-9.13579e-05 5.41567e-05 0)
(-0.000136798 8.00003e-05 0)
(-0.000200757 0.000115704 0)
(-0.000288943 0.000163723 0)
(-0.000407919 0.000226554 0)
(-0.000564759 0.000306572 0)
(-0.000766358 0.000406145 0)
(-0.00101818 0.000528548 0)
(-0.00132172 0.000680625 0)
(-0.00166825 0.000878375 0)
(-0.00202166 0.0011542 0)
(-0.00228209 0.00154749 0)
(-1.95671e-06 6.187e-06 0)
(-6.36168e-06 8.02102e-06 0)
(-1.23241e-05 1.19193e-05 0)
(-2.11032e-05 1.85043e-05 0)
(-3.42696e-05 2.87918e-05 0)
(-5.38823e-05 4.42277e-05 0)
(-8.26587e-05 6.67282e-05 0)
(-0.000124136 9.86916e-05 0)
(-0.000182806 0.000142951 0)
(-0.000264173 0.000202629 0)
(-0.000374667 0.000280894 0)
(-0.000521265 0.000380649 0)
(-0.000710601 0.000504367 0)
(-0.00094717 0.000654461 0)
(-0.00122985 0.000834767 0)
(-0.00154517 0.00105319 0)
(-0.00185543 0.00132218 0)
(-0.00208681 0.00164279 0)
(-1.65514e-06 7.24977e-06 0)
(-5.39237e-06 9.40966e-06 0)
(-1.04813e-05 1.40015e-05 0)
(-1.80153e-05 2.17613e-05 0)
(-2.93658e-05 3.38938e-05 0)
(-4.63466e-05 5.2121e-05 0)
(-7.13829e-05 7.87389e-05 0)
(-0.000107685 0.000116645 0)
(-0.000159416 0.000169296 0)
(-0.000231806 0.000240545 0)
(-0.000331133 0.000334317 0)
(-0.000464385 0.000454112 0)
(-0.000638303 0.00060244 0)
(-0.000857312 0.000780417 0)
(-0.00111968 0.000987846 0)
(-0.00141138 0.0012235 0)
(-0.00169892 0.00148305 0)
(-0.00192912 0.00174762 0)
(-1.28131e-06 8.1744e-06 0)
(-4.19065e-06 1.06267e-05 0)
(-8.19575e-06 1.58415e-05 0)
(-1.41829e-05 2.46585e-05 0)
(-2.32723e-05 3.84569e-05 0)
(-3.6966e-05 5.92194e-05 0)
(-5.73114e-05 8.96107e-05 0)
(-8.70892e-05 0.000133029 0)
(-0.000130019 0.000193582 0)
(-0.000190956 0.000275929 0)
(-0.00027599 0.000384886 0)
(-0.000392263 0.000524732 0)
(-0.00054714 0.000698165 0)
(-0.000746195 0.000904989 0)
(-0.000989427 0.00114072 0)
(-0.00126578 0.00139515 0)
(-0.00154831 0.00165034 0)
(-0.00179703 0.0018767 0)
(-8.33739e-07 8.8861e-06 0)
(-2.75162e-06 1.15777e-05 0)
(-5.45774e-06 1.73026e-05 0)
(-9.58787e-06 2.69876e-05 0)
(-1.59558e-05 4.21611e-05 0)
(-2.56772e-05 6.50359e-05 0)
(-4.03238e-05 9.86158e-05 0)
(-6.21206e-05 0.000146782 0)
(-9.41954e-05 0.000214311 0)
(-0.000140876 0.000306749 0)
(-0.000207975 0.000429998 0)
(-0.000302901 0.000589461 0)
(-0.000434218 0.000788534 0)
(-0.000610069 0.00102632 0)
(-0.000834749 0.00129465 0)
(-0.00110337 0.00157518 0)
(-0.00139669 0.00183787 0)
(-0.0016816 0.002044 0)
(-3.15622e-07 9.29715e-06 0)
(-1.0855e-06 1.21516e-05 0)
(-2.28624e-06 1.82242e-05 0)
(-4.26037e-06 2.85033e-05 0)
(-7.45839e-06 4.46264e-05 0)
(-1.25306e-05 6.89862e-05 0)
(-2.04627e-05 0.00010487 0)
(-3.27737e-05 0.000156593 0)
(-5.18032e-05 0.000229591 0)
(-8.11198e-05 0.000330369 0)
(-0.000126051 0.000466166 0)
(-0.000194236 0.000644058 0)
(-0.000295895 0.000869119 0)
(-0.000443169 0.00114122 0)
(-0.000647477 0.00145033 0)
(-0.000913881 0.00177128 0)
(-0.00123296 0.00206142 0)
(-0.00157468 0.00226789 0)
(2.6321e-07 9.30975e-06 0)
(7.76118e-07 1.22247e-05 0)
(1.25886e-06 1.84268e-05 0)
(1.70039e-06 2.89298e-05 0)
(2.06707e-06 4.54232e-05 0)
(2.25373e-06 7.04017e-05 0)
(1.97869e-06 0.000107345 0)
(6.0325e-07 0.000160908 0)
(-3.17056e-06 0.000237114 0)
(-1.18049e-05 0.000343458 0)
(-2.97184e-05 0.000488774 0)
(-6.44082e-05 0.000682532 0)
(-0.00012777 0.000933013 0)
(-0.000237035 0.00124352 0)
(-0.000413849 0.00160576 0)
(-0.000678798 0.00199075 0)
(-0.00103842 0.0023413 0)
(-0.00146626 0.00257799 0)
(8.32722e-07 8.90169e-06 0)
(2.60786e-06 1.17639e-05 0)
(4.748e-06 1.78536e-05 0)
(7.57183e-06 2.81684e-05 0)
(1.14679e-05 4.43791e-05 0)
(1.6897e-05 6.89828e-05 0)
(2.43299e-05 0.000105521 0)
(3.41083e-05 0.000158827 0)
(4.61736e-05 0.000235326 0)
(5.95321e-05 0.000343349 0)
(7.12792e-05 0.000493332 0)
(7.49472e-05 0.000697586 0)
(5.79824e-05 0.000969006 0)
(-1.46598e-06 0.00131745 0)
(-0.000137011 0.00174181 0)
(-0.000391381 0.00221586 0)
(-0.000799757 0.0026694 0)
(-0.0013499 0.00298003 0)
(1.40926e-06 7.97659e-06 0)
(4.46204e-06 1.0651e-05 0)
(8.27978e-06 1.63394e-05 0)
(1.3517e-05 2.59715e-05 0)
(2.09996e-05 4.11097e-05 0)
(3.1791e-05 6.41237e-05 0)
(4.7183e-05 9.84481e-05 0)
(6.86265e-05 0.000148864 0)
(9.75488e-05 0.00022192 0)
(0.000134888 0.000326492 0)
(0.00018008 0.000474446 0)
(0.000229062 0.000681262 0)
(0.000270606 0.000966085 0)
(0.000280315 0.00134983 0)
(0.000212488 0.00184815 0)
(-5.76498e-06 0.00245304 0)
(-0.000462466 0.00309445 0)
(-0.0011947 0.00358383 0)
(2.04509e-06 6.2513e-06 0)
(6.50618e-06 8.53776e-06 0)
(1.21712e-05 1.33965e-05 0)
(2.0064e-05 2.16126e-05 0)
(3.15037e-05 3.44979e-05 0)
(4.82611e-05 5.40867e-05 0)
(7.26203e-05 8.34441e-05 0)
(0.000107424 0.000126926 0)
(0.000156098 0.000190702 0)
(0.000222448 0.000283568 0)
(0.000309973 0.000418196 0)
(0.000420082 0.000613009 0)
(0.000547982 0.000894778 0)
(0.000673923 0.00130149 0)
(0.000746055 0.00188278 0)
(0.000651812 0.00268848 0)
(0.000188536 0.00371634 0)
(-0.000884007 0.00473967 0)
(2.66512e-06 3.3981e-06 0)
(8.49752e-06 5.01394e-06 0)
(1.59547e-05 8.43877e-06 0)
(2.64074e-05 1.42084e-05 0)
(4.16541e-05 2.31609e-05 0)
(6.42174e-05 3.66452e-05 0)
(9.74604e-05 5.69501e-05 0)
(0.000145782 8.73352e-05 0)
(0.000215011 0.000132565 0)
(0.000312793 0.000199787 0)
(0.000448904 0.000300103 0)
(0.000635166 0.000451452 0)
(0.000883877 0.000684085 0)
(0.00120151 0.00105106 0)
(0.00156827 0.0016484 0)
(0.00187635 0.00265315 0)
(0.00174997 0.00439199 0)
(3.02674e-05 0.0074517 0)
(3.11116e-06 -8.4458e-07 0)
(9.92533e-06 -2.42676e-07 0)
(1.8652e-05 1.01559e-06 0)
(3.08561e-05 3.13361e-06 0)
(4.86123e-05 6.16506e-06 0)
(7.50909e-05 1.017e-05 0)
(0.000114563 1.62587e-05 0)
(0.000172642 2.56065e-05 0)
(0.000257233 3.99598e-05 0)
(0.00037964 6.20247e-05 0)
(0.000556485 9.62241e-05 0)
(0.000813186 0.000150234 0)
(0.00119061 0.000238246 0)
(0.00175848 0.000388173 0)
(0.00264344 0.00065813 0)
(0.00409036 0.00117537 0)
(0.0066005 0.00223065 0)
(0.011252 0.004512 0)
(1.23993e-08 -1.65991e-06 0)
(2.21273e-08 -1.6631e-06 0)
(1.857e-08 -1.67378e-06 0)
(1.7434e-08 -1.6823e-06 0)
(1.83704e-08 -1.90269e-06 0)
(2.41711e-08 -3.43157e-06 0)
(3.59232e-08 -5.79127e-06 0)
(5.35472e-08 -9.05039e-06 0)
(7.9156e-08 -1.34377e-05 0)
(1.16104e-07 -1.93231e-05 0)
(1.69823e-07 -2.72807e-05 0)
(2.49299e-07 -3.82042e-05 0)
(3.69849e-07 -5.35092e-05 0)
(5.58574e-07 -7.54959e-05 0)
(8.65546e-07 -0.00010801 0)
(1.38782e-06 -0.000157677 0)
(2.32384e-06 -0.000236285 0)
(4.10577e-06 -0.000365823 0)
(2.94361e-06 3.47445e-06 0)
(8.90513e-06 4.04556e-06 0)
(1.54173e-05 4.00136e-06 0)
(2.312e-05 3.54255e-06 0)
(3.22708e-05 2.71843e-06 0)
(4.23715e-05 8.03062e-07 0)
(5.29066e-05 -1.93781e-06 0)
(6.42606e-05 -6.22474e-06 0)
(7.67919e-05 -1.17012e-05 0)
(9.04812e-05 -1.87883e-05 0)
(0.000105338 -2.80742e-05 0)
(0.000121335 -4.03908e-05 0)
(0.000138285 -5.69253e-05 0)
(0.000155599 -7.93877e-05 0)
(0.000171792 -0.000110264 0)
(0.000183522 -0.000153214 0)
(0.00018366 -0.000213753 0)
(0.000157446 -0.000300657 0)
(4.53152e-06 1.07145e-05 0)
(1.37478e-05 1.19346e-05 0)
(2.33384e-05 1.17234e-05 0)
(3.34354e-05 1.04713e-05 0)
(4.40951e-05 8.34849e-06 0)
(5.52718e-05 5.39788e-06 0)
(6.68716e-05 1.62845e-06 0)
(7.86258e-05 -3.95641e-06 0)
(9.05128e-05 -1.12256e-05 0)
(0.000102651 -2.01394e-05 0)
(0.000114847 -3.11709e-05 0)
(0.00012678 -4.48725e-05 0)
(0.000137931 -6.18571e-05 0)
(0.0001475 -8.27355e-05 0)
(0.000154336 -0.000107964 0)
(0.000156938 -0.000137525 0)
(0.000153676 -0.000170303 0)
(0.000143531 -0.000202888 0)
(5.27988e-06 1.72394e-05 0)
(1.60666e-05 1.83115e-05 0)
(2.72585e-05 1.77682e-05 0)
(3.87873e-05 1.59433e-05 0)
(5.06059e-05 1.30808e-05 0)
(6.26579e-05 9.31293e-06 0)
(7.48814e-05 4.65618e-06 0)
(8.70362e-05 -1.18937e-06 0)
(9.90141e-05 -9.29209e-06 0)
(0.000110806 -1.88111e-05 0)
(0.000122154 -3.00028e-05 0)
(0.000132706 -4.30917e-05 0)
(0.000142006 -5.82162e-05 0)
(0.000149503 -7.53541e-05 0)
(0.000154591 -9.42272e-05 0)
(0.000156712 -0.000114195 0)
(0.000155522 -0.000134182 0)
(0.000151123 -0.000152711 0)
(6.18004e-06 2.20136e-05 0)
(1.87094e-05 2.26307e-05 0)
(3.15113e-05 2.16784e-05 0)
(4.44725e-05 1.94314e-05 0)
(5.75042e-05 1.61313e-05 0)
(7.05278e-05 1.19243e-05 0)
(8.34636e-05 6.85245e-06 0)
(9.61967e-05 8.72879e-07 0)
(0.00010843 -7.22178e-06 0)
(0.000119965 -1.66095e-05 0)
(0.000130699 -2.72391e-05 0)
(0.000140346 -3.91593e-05 0)
(0.000148581 -5.23184e-05 0)
(0.00015507 -6.65266e-05 0)
(0.000159516 -8.14274e-05 0)
(0.000161721 -9.6492e-05 0)
(0.000161662 -0.000111057 0)
(0.000159535 -0.000124425 0)
(7.15453e-06 2.53423e-05 0)
(2.15434e-05 2.55118e-05 0)
(3.6026e-05 2.41907e-05 0)
(5.04764e-05 2.16292e-05 0)
(6.47824e-05 1.80601e-05 0)
(7.88431e-05 1.36351e-05 0)
(9.25586e-05 8.41636e-06 0)
(0.000105817 2.39554e-06 0)
(0.000118331 -5.19613e-06 0)
(0.000129876 -1.40707e-05 0)
(0.000140349 -2.38359e-05 0)
(0.00014954 -3.44534e-05 0)
(0.000157237 -4.58036e-05 0)
(0.000163251 -5.76718e-05 0)
(0.000167451 -6.97495e-05 0)
(0.000169797 -8.16541e-05 0)
(0.00017036 -9.29719e-05 0)
(0.000169334 -0.000103321 0)
(8.24045e-06 2.72237e-05 0)
(2.4697e-05 2.70266e-05 0)
(4.10364e-05 2.54242e-05 0)
(5.71217e-05 2.26649e-05 0)
(7.2824e-05 1.89772e-05 0)
(8.80262e-05 1.4517e-05 0)
(0.000102616 9.36267e-06 0)
(0.000116476 3.53493e-06 0)
(0.000129351 -3.41475e-06 0)
(0.000141026 -1.1571e-05 0)
(0.000151411 -2.03494e-05 0)
(0.000160363 -2.96756e-05 0)
(0.000167752 -3.94163e-05 0)
(0.000173489 -4.93773e-05 0)
(0.000177536 -5.93134e-05 0)
(0.00017993 -6.89504e-05 0)
(0.000180784 -7.80169e-05 0)
(0.000180283 -8.62801e-05 0)
(9.47479e-06 2.77199e-05 0)
(2.82844e-05 2.72524e-05 0)
(4.67349e-05 2.5475e-05 0)
(6.46698e-05 2.26409e-05 0)
(8.19443e-05 1.8977e-05 0)
(9.8431e-05 1.46413e-05 0)
(0.000114013 9.72308e-06 0)
(0.000128577 4.26172e-06 0)
(0.000141906 -1.96573e-06 0)
(0.000153813 -9.28795e-06 0)
(0.000164221 -1.70314e-05 0)
(0.000173046 -2.51126e-05 0)
(0.000180227 -3.34069e-05 0)
(0.000185742 -4.17518e-05 0)
(0.000189619 -4.99574e-05 0)
(0.000191943 -5.78255e-05 0)
(0.000192851 -6.51711e-05 0)
(0.000192529 -7.18436e-05 0)
(1.0903e-05 2.69161e-05 0)
(3.24391e-05 2.62725e-05 0)
(5.33358e-05 2.44312e-05 0)
(7.34049e-05 2.16476e-05 0)
(9.24847e-05 1.81441e-05 0)
(0.000110442 1.40776e-05 0)
(0.000127164 9.5418e-06 0)
(0.00014255 4.58625e-06 0)
(0.000156429 -8.60619e-07 0)
(0.000168647 -7.27767e-06 0)
(0.000179152 -1.39673e-05 0)
(0.00018791 -2.08502e-05 0)
(0.000194919 -2.78193e-05 0)
(0.000200213 -3.47437e-05 0)
(0.00020387 -4.1479e-05 0)
(0.00020601 -4.78809e-05 0)
(0.000206796 -5.38208e-05 0)
(0.000206418 -5.91977e-05 0)
(1.259e-05 2.48951e-05 0)
(3.73493e-05 2.41642e-05 0)
(6.11373e-05 2.23702e-05 0)
(8.37198e-05 1.97621e-05 0)
(0.000104916 1.65517e-05 0)
(0.000124591 1.28886e-05 0)
(0.000142647 8.86483e-06 0)
(0.000159006 4.53227e-06 0)
(0.000173563 -9.98033e-08 0)
(0.000186185 -5.54788e-06 0)
(0.000196838 -1.11737e-05 0)
(0.000205563 -1.68954e-05 0)
(0.000212407 -2.26256e-05 0)
(0.000217454 -2.82627e-05 0)
(0.000220826 -3.36984e-05 0)
(0.000222678 -3.88284e-05 0)
(0.000223194 -4.35623e-05 0)
(0.000222578 -4.78319e-05 0)
(1.46442e-05 2.17149e-05 0)
(4.33302e-05 2.09811e-05 0)
(7.06384e-05 1.93456e-05 0)
(9.62722e-05 1.70387e-05 0)
(0.000120029 1.42523e-05 0)
(0.00014178 1.11213e-05 0)
(0.000161449 7.72951e-06 0)
(0.000178995 4.12519e-06 0)
(0.000194397 3.3718e-07 0)
(0.000207554 -4.07799e-06 0)
(0.000218441 -8.63023e-06 0)
(0.000227172 -1.32153e-05 0)
(0.000233852 -1.77657e-05 0)
(0.000238617 -2.22049e-05 0)
(0.000241634 -2.64539e-05 0)
(0.000243092 -3.04378e-05 0)
(0.000243201 -3.40936e-05 0)
(0.000242177 -3.73748e-05 0)
(1.72819e-05 1.73767e-05 0)
(5.10116e-05 1.67231e-05 0)
(8.28407e-05 1.53614e-05 0)
(0.000112388 1.3487e-05 0)
(0.000139426 1.12598e-05 0)
(0.000163839 8.79136e-06 0)
(0.00018559 6.15109e-06 0)
(0.000204688 3.37903e-06 0)
(0.000221169 4.99758e-07 0)
(0.000235016 -2.83965e-06 0)
(0.000246275 -6.2992e-06 0)
(0.000255107 -9.75442e-06 0)
(0.000261672 -1.31552e-05 0)
(0.000266155 -1.64461e-05 0)
(0.000268759 -1.95707e-05 0)
(0.000269706 -2.24765e-05 0)
(0.000269228 -2.51206e-05 0)
(0.000267557 -2.74729e-05 0)
(2.1061e-05 1.17488e-05 0)
(6.20237e-05 1.12657e-05 0)
(0.000100347 1.03088e-05 0)
(0.000135529 9.01764e-06 0)
(0.00016731 7.50525e-06 0)
(0.000195604 5.84965e-06 0)
(0.000220433 4.09885e-06 0)
(0.000241882 2.28047e-06 0)
(0.000260069 4.12053e-07 0)
(0.000275097 -1.80562e-06 0)
(0.000287099 -4.12206e-06 0)
(0.000296268 -6.40889e-06 0)
(0.0003028 -8.63079e-06 0)
(0.00030691 -1.0751e-05 0)
(0.000308835 -1.27338e-05 0)
(0.000308834 -1.45481e-05 0)
(0.000307179 -1.61701e-05 0)
(0.000304151 -1.75858e-05 0)
(2.85139e-05 4.24762e-06 0)
(8.37899e-05 4.06029e-06 0)
(0.000135083 3.70012e-06 0)
(0.000181672 3.22029e-06 0)
(0.000223247 2.66333e-06 0)
(0.00025978 2.05845e-06 0)
(0.000291408 1.42349e-06 0)
(0.000318357 7.68611e-07 0)
(0.000340895 1.0055e-07 0)
(0.000358886 -7.21266e-07 0)
(0.000372118 -1.58565e-06 0)
(0.000380881 -2.42911e-06 0)
(0.000385639 -3.23737e-06 0)
(0.000386885 -3.99677e-06 0)
(0.000385132 -4.69499e-06 0)
(0.000380892 -5.32217e-06 0)
(0.000374667 -5.87169e-06 0)
(0.00036693 -6.34077e-06 0)
(-1.13849e-05 2.43348e-05 3.14385e-31)
(-3.42404e-05 2.42857e-05 -3.13481e-31)
(-5.72182e-05 2.41974e-05 0)
(-8.02814e-05 2.40695e-05 0)
(-0.000103392 2.39018e-05 0)
(-0.00012651 2.36943e-05 3.04749e-31)
(-0.000149595 2.34475e-05 0)
(-0.000172607 2.31617e-05 0)
(-0.000195506 2.28379e-05 0)
(-0.000218249 2.24771e-05 0)
(-0.000240796 2.20806e-05 -2.82542e-31)
(-0.000263107 2.16498e-05 0)
(-0.000285142 2.11865e-05 0)
(-0.000306862 2.06925e-05 0)
(-0.00032823 2.017e-05 0)
(-0.000349209 1.96211e-05 -2.49474e-31)
(-0.000369765 1.90482e-05 0)
(-0.000389866 1.84536e-05 0)
(-0.000409479 1.784e-05 0)
(-0.000428577 1.72097e-05 0)
(-0.000447133 1.65656e-05 0)
(-0.000465123 1.591e-05 0)
(-0.000482524 1.52456e-05 0)
(-0.000499317 1.45749e-05 -1.82482e-31)
(-0.000515487 1.39004e-05 1.73573e-31)
(-0.000531017 1.32244e-05 -1.64653e-31)
(-0.000545895 1.25493e-05 -1.55752e-31)
(-0.000560114 1.18772e-05 0)
(-0.000573664 1.12102e-05 0)
(-0.000586542 1.05502e-05 1.29434e-31)
(-0.000598744 9.89901e-06 1.20874e-31)
(-0.000610271 9.25835e-06 0)
(-0.000621123 8.62972e-06 0)
(-0.000631305 8.01448e-06 9.61323e-32)
(-0.000640822 7.41387e-06 0)
(-0.000649681 6.82899e-06 0)
(-0.000657891 6.26077e-06 -7.31523e-32)
(-0.000665461 5.71002e-06 0)
(-0.000672404 5.17744e-06 -5.89792e-32)
(-0.000678732 4.66355e-06 -1.04526e-31)
(-0.000684459 4.1688e-06 0)
(-0.000689599 3.69349e-06 0)
(-0.000694169 3.23784e-06 0)
(-0.000698184 2.80194e-06 0)
(-0.000701662 2.38581e-06 0)
(-0.000704619 1.98938e-06 -3.47887e-32)
(-0.000707074 1.6125e-06 -2.49888e-32)
(-0.000709045 1.25495e-06 -1.56996e-32)
(-0.00071055 9.16434e-07 0)
(-0.000711607 5.96622e-07 -1.37812e-33)
(-0.000712235 2.95121e-07 0)
(-0.000712452 1.14962e-08 1.65232e-32)
(-0.000712277 -2.54722e-07 2.34009e-32)
(-0.000711728 -5.04035e-07 0)
(-0.000710822 -7.3697e-07 0)
(-0.000709578 -9.54076e-07 0)
(-0.000708013 -1.15591e-06 4.65952e-32)
(-0.000706144 -1.34306e-06 0)
(-0.000703987 -1.5161e-06 0)
(-0.000701559 -1.67562e-06 0)
(-0.000698876 -1.8222e-06 0)
(-0.000695953 -1.95644e-06 0)
(-0.000692805 -2.0789e-06 0)
(-0.000689446 -2.19016e-06 0)
(-0.000685891 -2.29078e-06 0)
(-0.000682152 -2.38132e-06 -7.76607e-32)
(-0.000678244 -2.46231e-06 0)
(-0.000674177 -2.53427e-06 0)
(-0.000669965 -2.59772e-06 8.29667e-32)
(-0.000665618 -2.65314e-06 8.42971e-32)
(-0.000661148 -2.70102e-06 0)
(-0.000656565 -2.7418e-06 -8.63749e-32)
(-0.00065188 -2.77594e-06 8.71468e-32)
(-0.000647101 -2.80385e-06 0)
(-0.000642238 -2.82593e-06 -8.82114e-32)
(-0.0006373 -2.84257e-06 0)
(-0.000632294 -2.85414e-06 0)
(-0.000627229 -2.86098e-06 8.87629e-32)
(-0.000622113 -2.86343e-06 0)
(-0.000616952 -2.8618e-06 -8.85415e-32)
(-0.000611752 -2.85638e-06 0)
(-0.000606521 -2.84746e-06 8.79248e-32)
(-0.000601265 -2.83529e-06 8.7486e-32)
(-0.000595988 -2.82012e-06 8.69693e-32)
(-0.000590697 -2.80218e-06 1.72761e-31)
(-0.000585397 -2.78168e-06 -1.71451e-31)
(-0.000580093 -2.75882e-06 0)
(-0.000574789 -2.73378e-06 0)
(-0.00056949 -2.70674e-06 0)
(-0.000564199 -2.67784e-06 -1.65082e-31)
(-0.000558922 -2.64723e-06 -1.6325e-31)
(-0.000553662 -2.61504e-06 1.61338e-31)
(-0.000548422 -2.58139e-06 0)
(-0.000543207 -2.54637e-06 -1.57294e-31)
(-0.000538019 -2.51009e-06 -1.55173e-31)
(-0.000532862 -2.47261e-06 -1.52992e-31)
(-0.00052774 -2.43402e-06 0)
(-0.000522655 -2.39436e-06 0)
(-0.000517611 -2.3537e-06 0)
(-0.000512612 -2.31206e-06 -1.43735e-31)
(-0.000507659 -2.26948e-06 0)
(-0.000502757 -2.22598e-06 0)
(-0.000497908 -2.18157e-06 1.36295e-31)
(-0.000493117 -2.13627e-06 0)
(-0.000488386 -2.09007e-06 0)
(-0.000483718 -2.04297e-06 1.28459e-31)
(-0.000479118 -1.99496e-06 0)
(-0.000474588 -1.94603e-06 0)
(-0.000470133 -1.89617e-06 -1.20229e-31)
(-0.000465756 -1.84537e-06 -1.17396e-31)
(-0.000461462 -1.79362e-06 0)
(-0.000457254 -1.74091e-06 1.11594e-31)
(-0.000453136 -1.68725e-06 0)
(-0.000449113 -1.63265e-06 -1.05612e-31)
(-0.000445188 -1.57712e-06 0)
(-0.000441367 -1.5207e-06 -9.94593e-32)
(-0.000437654 -1.46345e-06 -9.63236e-32)
(-0.000434052 -1.40541e-06 0)
(-0.000430565 -1.34669e-06 0)
(-0.000427199 -1.28739e-06 0)
(-0.000423955 -1.22763e-06 0)
(-0.000420839 -1.16757e-06 0)
(-0.000417852 -1.1074e-06 0)
(-0.000414998 -1.04731e-06 0)
(-0.000412279 -9.87531e-07 -7.05214e-32)
(-0.000409695 -9.28331e-07 6.73387e-32)
(-0.000407248 -8.69991e-07 0)
(-0.000404937 -8.12822e-07 0)
(-0.000402762 -7.57164e-07 0)
(-0.000400721 -7.03383e-07 0)
(-0.000398809 -6.51876e-07 1.05065e-31)
(-0.000397023 -6.03068e-07 0)
(-0.000395356 -5.5742e-07 -9.49721e-32)
(-0.000393801 -5.15428e-07 9.04834e-32)
(-0.000392348 -4.77629e-07 0)
(-0.000390987 -4.44606e-07 0)
(-0.000389704 -4.16996e-07 0)
(-0.000388482 -3.95498e-07 -7.75809e-32)
(-0.000387304 -3.80882e-07 -7.59583e-32)
(-0.000386149 -3.74e-07 0)
(-0.00038499 -3.75798e-07 -7.52139e-32)
(-0.0003838 -3.87334e-07 -7.62942e-32)
(-0.000382546 -4.0979e-07 7.84978e-32)
(-0.000381189 -4.44492e-07 0)
(-0.000379686 -4.92929e-07 0)
(-0.000377987 -5.56775e-07 9.32652e-32)
(-0.000376036 -6.37911e-07 0)
(-0.000373768 -7.38452e-07 0)
(-0.000371107 -8.60771e-07 0)
(-0.00036797 -1.00752e-06 0)
(-0.000364259 -1.18168e-06 -1.56582e-31)
(-0.000359866 -1.38654e-06 -1.7735e-31)
(-0.000354665 -1.62578e-06 0)
(-0.000348514 -1.90344e-06 -2.29724e-31)
(-0.000341253 -2.22395e-06 0)
(-0.000332701 -2.59213e-06 0)
(-0.000322653 -3.01315e-06 -3.42023e-31)
(-0.000310882 -3.49252e-06 0)
(-0.000297132 -4.03599e-06 -4.45372e-31)
(-0.000281118 -4.64943e-06 0)
(-0.000262528 -5.33866e-06 0)
(-0.000241019 -6.10919e-06 -6.54436e-31)
(-0.00021622 -6.9659e-06 0)
(-0.00018773 -7.91258e-06 -8.3587e-31)
(-0.000155131 -8.95138e-06 0)
(-0.000117987 -1.00821e-05 0)
(-7.58576e-05 -1.13012e-05 0)
(-2.83134e-05 -1.26011e-05 1.3056e-30)
(2.50444e-05 -1.39688e-05 0)
(8.45589e-05 -1.53844e-05 -1.58272e-30)
(0.000150484 -1.68203e-05 0)
(0.000222947 -1.82393e-05 0)
(0.000301897 -1.9593e-05 0)
(0.000387048 -2.08195e-05 0)
(0.000477805 -2.18396e-05 0)
(0.000573154 -2.25469e-05 0)
(0.000671474 -2.27815e-05 0)
(0.000770084 -2.22428e-05 4.45424e-30)
(0.000863768 -2.01227e-05 0)
(0.000937709 -1.30083e-05 0)
(-1.14669e-05 7.31796e-05 -9.45415e-31)
(-3.44862e-05 7.3031e-05 9.4268e-31)
(-5.76276e-05 7.2764e-05 0)
(-8.08529e-05 7.2377e-05 -1.86708e-30)
(-0.000104123 7.18697e-05 0)
(-0.000127397 7.12422e-05 9.19279e-31)
(-0.000150635 7.04956e-05 1.81515e-30)
(-0.000173794 6.96315e-05 1.79172e-30)
(-0.000196833 6.86525e-05 0)
(-0.00021971 6.75618e-05 1.73605e-30)
(-0.000242383 6.63634e-05 -8.54865e-31)
(-0.000264812 6.50617e-05 0)
(-0.000286956 6.3662e-05 0)
(-0.000308776 6.21702e-05 0)
(-0.000330233 6.05924e-05 0)
(-0.000351292 5.89355e-05 -7.57576e-31)
(-0.000371917 5.72064e-05 0)
(-0.000392076 5.54127e-05 -1.41387e-30)
(-0.000411738 5.35618e-05 0)
(-0.000430875 5.16615e-05 0)
(-0.000449459 4.97197e-05 1.264e-30)
(-0.000467466 4.77442e-05 0)
(-0.000484876 4.57426e-05 -1.15952e-30)
(-0.00050167 4.37227e-05 -5.5918e-31)
(-0.00051783 4.16918e-05 5.32741e-31)
(-0.000533342 3.96571e-05 -5.0626e-31)
(-0.000548196 3.76255e-05 -4.79827e-31)
(-0.000562383 3.56036e-05 0)
(-0.000575895 3.35975e-05 0)
(-0.000588729 3.16131e-05 4.0164e-31)
(-0.000600882 2.96558e-05 1.11441e-30)
(-0.000612355 2.77306e-05 0)
(-0.000623149 2.58419e-05 0)
(-0.00063327 2.3994e-05 3.02639e-31)
(-0.000642723 2.21904e-05 0)
(-0.000651515 2.04345e-05 0)
(-0.000659656 1.87289e-05 -2.34279e-31)
(-0.000667157 1.70762e-05 0)
(-0.000674029 1.54783e-05 -5.60374e-31)
(-0.000680286 1.39368e-05 -3.44198e-31)
(-0.000685941 1.2453e-05 0)
(-0.00069101 1.10278e-05 0)
(-0.00069551 9.6618e-06 4.3382e-31)
(-0.000699455 8.35523e-06 3.659e-31)
(-0.000702864 7.10814e-06 3.01106e-31)
(-0.000705755 5.92029e-06 -3.75795e-31)
(-0.000708144 4.79119e-06 -1.07131e-31)
(-0.000710051 3.72016e-06 4.5872e-32)
(-0.000711494 2.70633e-06 -7.27225e-32)
(-0.000712491 1.74865e-06 2.83802e-32)
(-0.000713061 8.45934e-07 0)
(-0.000713222 -3.13076e-09 1.69195e-32)
(-0.000712994 -7.99971e-07 1.46203e-31)
(-0.000712393 -1.5461e-06 0)
(-0.000711438 -2.24312e-06 0)
(-0.000710148 -2.89268e-06 0)
(-0.000708538 -3.49648e-06 1.0711e-31)
(-0.000706626 -4.05624e-06 0)
(-0.000704429 -4.57373e-06 3.0298e-31)
(-0.000701963 -5.0507e-06 0)
(-0.000699244 -5.48893e-06 3.49805e-31)
(-0.000696287 -5.89016e-06 0)
(-0.000693107 -6.25614e-06 -3.88889e-31)
(-0.000689718 -6.58858e-06 0)
(-0.000686135 -6.88918e-06 4.20958e-31)
(-0.00068237 -7.15957e-06 -6.35762e-31)
(-0.000678437 -7.40139e-06 0)
(-0.000674347 -7.61619e-06 -4.5743e-31)
(-0.000670114 -7.80551e-06 2.17588e-31)
(-0.000665747 -7.97082e-06 2.21759e-31)
(-0.000661259 -8.11353e-06 0)
(-0.000656659 -8.23504e-06 -7.16127e-31)
(-0.000651958 -8.33664e-06 2.30889e-31)
(-0.000647164 -8.41962e-06 0)
(-0.000642288 -8.48517e-06 -2.345e-31)
(-0.000637337 -8.53444e-06 -5.01408e-31)
(-0.00063232 -8.56855e-06 0)
(-0.000627245 -8.58852e-06 2.36817e-31)
(-0.000622119 -8.59536e-06 0)
(-0.000616949 -8.58999e-06 2.65743e-31)
(-0.000611742 -8.5733e-06 0)
(-0.000606504 -8.54613e-06 -2.63869e-31)
(-0.00060124 -8.50925e-06 2.34154e-31)
(-0.000595958 -8.4634e-06 7.26672e-31)
(-0.000590662 -8.40927e-06 1.4437e-30)
(-0.000585357 -8.34749e-06 -1.43286e-30)
(-0.000580048 -8.27865e-06 0)
(-0.00057474 -8.20331e-06 0)
(-0.000569437 -8.12197e-06 0)
(-0.000564144 -8.03509e-06 4.95317e-31)
(-0.000558864 -7.9431e-06 -4.37037e-31)
(-0.000553601 -7.84639e-06 4.31789e-31)
(-0.000548359 -7.74529e-06 0)
(-0.000543141 -7.64013e-06 -1.31319e-30)
(-0.000537952 -7.53117e-06 -4.14754e-31)
(-0.000532794 -7.41866e-06 -4.08694e-31)
(-0.00052767 -7.30281e-06 0)
(-0.000522584 -7.18378e-06 0)
(-0.000517539 -7.06173e-06 0)
(-0.000512538 -6.93677e-06 -3.82824e-31)
(-0.000507584 -6.809e-06 0)
(-0.000502681 -6.67848e-06 -7.8548e-31)
(-0.000497831 -6.54524e-06 -4.08901e-31)
(-0.000493039 -6.40932e-06 7.55829e-31)
(-0.000488306 -6.27071e-06 0)
(-0.000483638 -6.1294e-06 1.06483e-30)
(-0.000479036 -5.98537e-06 0)
(-0.000474506 -5.83858e-06 6.93316e-31)
(-0.00047005 -5.689e-06 -9.93317e-31)
(-0.000465672 -5.53659e-06 -9.68646e-31)
(-0.000461377 -5.38133e-06 0)
(-0.000457168 -5.22319e-06 -3.34792e-31)
(-0.000453049 -5.0622e-06 6.08987e-31)
(-0.000449025 -4.89836e-06 -2.74441e-31)
(-0.0004451 -4.73175e-06 0)
(-0.000441278 -4.56245e-06 -2.5671e-31)
(-0.000437564 -4.39063e-06 2.88973e-31)
(-0.000433962 -4.21647e-06 0)
(-0.000430475 -4.04023e-06 4.99055e-31)
(-0.000427108 -3.86224e-06 4.80015e-31)
(-0.000423865 -3.68287e-06 4.60856e-31)
(-0.000420749 -3.5026e-06 0)
(-0.000417763 -3.32195e-06 0)
(-0.00041491 -3.14156e-06 0)
(-0.000412192 -2.9621e-06 -5.56726e-31)
(-0.00040961 -2.78436e-06 1.63289e-31)
(-0.000407165 -2.60918e-06 0)
(-0.000404857 -2.43752e-06 -3.285e-31)
(-0.000402685 -2.27038e-06 -3.10808e-31)
(-0.000400647 -2.10886e-06 0)
(-0.000398739 -1.95415e-06 2.3971e-31)
(-0.000396958 -1.80754e-06 -5.2374e-31)
(-0.000395296 -1.6704e-06 -2.10045e-31)
(-0.000393747 -1.54421e-06 6.64924e-31)
(-0.000392301 -1.43059e-06 0)
(-0.000390947 -1.33129e-06 0)
(-0.000389671 -1.2482e-06 0)
(-0.000388459 -1.18344e-06 -1.5905e-31)
(-0.000387291 -1.13929e-06 -5.36273e-31)
(-0.000386146 -1.11832e-06 -3.77129e-31)
(-0.000384999 -1.12337e-06 -1.52511e-31)
(-0.000383823 -1.15758e-06 -5.40309e-31)
(-0.000382583 -1.22452e-06 1.62743e-31)
(-0.000381242 -1.32816e-06 0)
(-0.000379756 -1.47295e-06 0)
(-0.000378077 -1.66391e-06 6.94654e-31)
(-0.000376148 -1.90668e-06 0)
(-0.000373903 -2.2076e-06 0)
(-0.000371269 -2.57379e-06 -6.72492e-31)
(-0.000368162 -3.0132e-06 0)
(-0.000364484 -3.53474e-06 -1.26855e-30)
(-0.000360127 -4.14833e-06 -4.62937e-31)
(-0.000354966 -4.86497e-06 0)
(-0.000348859 -5.69679e-06 -1.93183e-30)
(-0.000341646 -6.65709e-06 0)
(-0.000333148 -7.76033e-06 0)
(-0.000323159 -9.02207e-06 -9.63378e-31)
(-0.000311451 -1.04588e-05 -2.28049e-30)
(-0.000297769 -1.20879e-05 -1.27798e-30)
(-0.00028183 -1.3927e-05 0)
(-0.000263319 -1.59936e-05 0)
(-0.000241892 -1.83043e-05 -5.79209e-30)
(-0.000217178 -2.0874e-05 0)
(-0.000188777 -2.3714e-05 -7.44503e-30)
(-0.000156265 -2.6831e-05 0)
(-0.000119204 -3.02244e-05 0)
(-7.71507e-05 -3.38843e-05 0)
(-2.96712e-05 -3.77877e-05 3.90996e-30)
(2.36394e-05 -4.18958e-05 0)
(8.31309e-05 -4.61497e-05 -4.76391e-30)
(0.000149065 -5.04663e-05 0)
(0.000221578 -5.47344e-05 0)
(0.00030063 -5.8809e-05 -1.20478e-29)
(0.000385948 -6.25055e-05 1.278e-29)
(0.000476956 -6.55879e-05 0)
(0.000572675 -6.77423e-05 0)
(0.00067157 -6.85072e-05 0)
(0.000771247 -6.70534e-05 -1.34293e-29)
(0.00086787 -6.13742e-05 0)
(0.000956416 -4.4563e-05 1.77082e-29)
(-1.16328e-05 0.000122554 -6.33452e-30)
(-3.49843e-05 0.000122302 8.32524e-34)
(-5.84568e-05 0.00012185 0)
(-8.20103e-05 0.000121194 -1.94272e-33)
(-0.000105604 0.000120334 0)
(-0.000129194 0.000119271 0)
(-0.000152739 0.000118006 6.08274e-30)
(-0.000176195 0.000116543 3.00425e-30)
(-0.000199518 0.000114886 -2.95559e-30)
(-0.000222665 0.00011304 2.9115e-30)
(-0.000245593 0.000111013 0)
(-0.000268259 0.000108812 0)
(-0.000290622 0.000106446 2.73098e-30)
(-0.000312641 0.000103926 5.32855e-30)
(-0.000334278 0.000101262 -5.18777e-30)
(-0.000355496 9.84662e-05 0)
(-0.000376259 9.555e-05 -4.8865e-30)
(-0.000396535 9.25264e-05 -2.37302e-30)
(-0.000416293 8.94083e-05 0)
(-0.000435504 8.62089e-05 -4.39519e-30)
(-0.000454142 8.29414e-05 2.12254e-30)
(-0.000472185 7.96191e-05 4.04931e-30)
(-0.00048961 7.62551e-05 -1.94803e-30)
(-0.000506401 7.28622e-05 0)
(-0.00052254 6.94529e-05 -3.5166e-30)
(-0.000538017 6.60392e-05 -3.33792e-30)
(-0.000552819 6.26326e-05 0)
(-0.00056694 5.92442e-05 -2.98253e-30)
(-0.000580373 5.58842e-05 0)
(-0.000593117 5.25623e-05 -2.63338e-30)
(-0.00060517 4.92874e-05 1.24547e-30)
(-0.000616533 4.60679e-05 0)
(-0.00062721 4.29111e-05 0)
(-0.000637206 3.98239e-05 0)
(-0.000646529 3.68123e-05 0)
(-0.000655186 3.38815e-05 0)
(-0.000663189 3.10361e-05 0)
(-0.000670549 2.828e-05 -1.36705e-30)
(-0.000677279 2.56164e-05 5.98206e-31)
(-0.000683392 2.3048e-05 0)
(-0.000688904 2.05766e-05 0)
(-0.000693831 1.82037e-05 0)
(-0.000698188 1.59302e-05 1.4823e-30)
(-0.000701994 1.37564e-05 6.44895e-31)
(-0.000705266 1.16823e-05 3.3303e-32)
(-0.000708022 9.70738e-06 -3.34326e-32)
(-0.00071028 7.83075e-06 3.04224e-31)
(-0.000712059 6.0512e-06 2.45594e-31)