/*--------------------------------*- C++ -*----------------------------------*\
  =========                 |
  \\      /  F ield         | OpenFOAM: The Open Source CFD Toolbox
   \\    /   O peration     | Website:  https://openfoam.org
    \\  /    A nd           | Version:  10
     \\/     M anipulation  |
\*---------------------------------------------------------------------------*/
FoamFile
{
    format      ascii;
    class       volScalarField;
    location    "2.21";
    object      p;
}
// * * * * * * * * * * * * * * * * * * * * * * * * * * * * * * * * * * * * * //

dimensions      [1 -1 -2 0 0 0 0];

internalField   nonuniform List<scalar> 
12225
(
1.7357e+07
1.73036e+07
1.72083e+07
1.70826e+07
1.69369e+07
1.67787e+07
1.66133e+07
1.64443e+07
1.62739e+07
1.61033e+07
1.5933e+07
1.5763e+07
1.55929e+07
1.54217e+07
1.52477e+07
1.50679e+07
1.4876e+07
1.46566e+07
1.73591e+07
1.73056e+07
1.72099e+07
1.70839e+07
1.69379e+07
1.67794e+07
1.66139e+07
1.64449e+07
1.62744e+07
1.61038e+07
1.59335e+07
1.57637e+07
1.55937e+07
1.54228e+07
1.52494e+07
1.50706e+07
1.48815e+07
1.46728e+07
1.73639e+07
1.73099e+07
1.72134e+07
1.70867e+07
1.69401e+07
1.67811e+07
1.66153e+07
1.6446e+07
1.62755e+07
1.61049e+07
1.59347e+07
1.57651e+07
1.55955e+07
1.54253e+07
1.52529e+07
1.50763e+07
1.48921e+07
1.46972e+07
1.73719e+07
1.7317e+07
1.72193e+07
1.70914e+07
1.69436e+07
1.67839e+07
1.66175e+07
1.64479e+07
1.62772e+07
1.61066e+07
1.59366e+07
1.57674e+07
1.55984e+07
1.54292e+07
1.52586e+07
1.50851e+07
1.49072e+07
1.47256e+07
1.73838e+07
1.73276e+07
1.7228e+07
1.70982e+07
1.69489e+07
1.6788e+07
1.66208e+07
1.64507e+07
1.62798e+07
1.61092e+07
1.59394e+07
1.57707e+07
1.56026e+07
1.54348e+07
1.52664e+07
1.50968e+07
1.49258e+07
1.4756e+07
1.74004e+07
1.73423e+07
1.724e+07
1.71075e+07
1.6956e+07
1.67935e+07
1.66252e+07
1.64544e+07
1.62832e+07
1.61126e+07
1.59432e+07
1.57751e+07
1.56082e+07
1.54421e+07
1.52765e+07
1.51113e+07
1.49472e+07
1.47873e+07
1.74227e+07
1.7362e+07
1.7256e+07
1.71198e+07
1.69654e+07
1.68006e+07
1.66309e+07
1.64592e+07
1.62876e+07
1.6117e+07
1.59481e+07
1.57808e+07
1.56153e+07
1.54513e+07
1.52888e+07
1.51282e+07
1.49706e+07
1.4819e+07
1.7452e+07
1.73877e+07
1.72765e+07
1.71356e+07
1.69772e+07
1.68097e+07
1.6638e+07
1.64652e+07
1.62931e+07
1.61225e+07
1.59541e+07
1.57878e+07
1.56239e+07
1.54622e+07
1.53031e+07
1.51471e+07
1.49955e+07
1.48508e+07
1.749e+07
1.74205e+07
1.73025e+07
1.71552e+07
1.69918e+07
1.68207e+07
1.66466e+07
1.64725e+07
1.62997e+07
1.61292e+07
1.59613e+07
1.57962e+07
1.5634e+07
1.54749e+07
1.53192e+07
1.51677e+07
1.50216e+07
1.48827e+07
1.75387e+07
1.74621e+07
1.73348e+07
1.71791e+07
1.70093e+07
1.68337e+07
1.66568e+07
1.6481e+07
1.63075e+07
1.61369e+07
1.59697e+07
1.58059e+07
1.56456e+07
1.54892e+07
1.5337e+07
1.51897e+07
1.50484e+07
1.49145e+07
1.76011e+07
1.75143e+07
1.73743e+07
1.72077e+07
1.703e+07
1.68489e+07
1.66685e+07
1.64907e+07
1.63163e+07
1.61458e+07
1.59792e+07
1.58168e+07
1.56586e+07
1.55049e+07
1.53561e+07
1.52128e+07
1.50758e+07
1.49461e+07
1.76746e+07
1.75739e+07
1.74179e+07
1.72384e+07
1.70515e+07
1.68645e+07
1.66804e+07
1.65005e+07
1.63253e+07
1.61547e+07
1.59889e+07
1.58279e+07
1.56716e+07
1.55204e+07
1.53745e+07
1.52346e+07
1.51011e+07
1.49748e+07
1.77651e+07
1.76446e+07
1.74677e+07
1.72723e+07
1.70748e+07
1.6881e+07
1.66929e+07
1.65109e+07
1.63347e+07
1.61642e+07
1.59992e+07
1.58395e+07
1.56852e+07
1.55364e+07
1.53934e+07
1.52566e+07
1.51263e+07
1.5003e+07
1.7899e+07
1.7743e+07
1.75329e+07
1.73147e+07
1.71029e+07
1.69005e+07
1.67075e+07
1.65228e+07
1.63457e+07
1.61754e+07
1.60113e+07
1.58534e+07
1.57014e+07
1.55553e+07
1.54154e+07
1.52818e+07
1.51547e+07
1.50345e+07
1.81075e+07
1.78799e+07
1.76152e+07
1.73644e+07
1.71341e+07
1.69215e+07
1.67229e+07
1.65356e+07
1.63577e+07
1.61878e+07
1.60252e+07
1.58693e+07
1.57199e+07
1.55768e+07
1.54402e+07
1.531e+07
1.51863e+07
1.50691e+07
1.84604e+07
1.80626e+07
1.77071e+07
1.74133e+07
1.71623e+07
1.69394e+07
1.6736e+07
1.65468e+07
1.63689e+07
1.62002e+07
1.60396e+07
1.58863e+07
1.574e+07
1.56003e+07
1.54672e+07
1.53405e+07
1.52201e+07
1.51061e+07
1.91451e+07
1.82459e+07
1.77663e+07
1.74353e+07
1.71713e+07
1.69439e+07
1.67396e+07
1.65514e+07
1.63755e+07
1.62096e+07
1.60522e+07
1.59025e+07
1.576e+07
1.56242e+07
1.54949e+07
1.53719e+07
1.5255e+07
1.51441e+07
1.83013e+07
1.79694e+07
1.76475e+07
1.73709e+07
1.71309e+07
1.6917e+07
1.67219e+07
1.6541e+07
1.63713e+07
1.6211e+07
1.6059e+07
1.59144e+07
1.57767e+07
1.56455e+07
1.55206e+07
1.54017e+07
1.52886e+07
1.51811e+07
1.7737e+07
1.76019e+07
1.74168e+07
1.72215e+07
1.70302e+07
1.68472e+07
1.66731e+07
1.65074e+07
1.63496e+07
1.6199e+07
1.60552e+07
1.59177e+07
1.57864e+07
1.5661e+07
1.55412e+07
1.54269e+07
1.5318e+07
1.52141e+07
1.74158e+07
1.73389e+07
1.72166e+07
1.70723e+07
1.69193e+07
1.67646e+07
1.66117e+07
1.64622e+07
1.63171e+07
1.61768e+07
1.60414e+07
1.59111e+07
1.57859e+07
1.56658e+07
1.55507e+07
1.54405e+07
1.53351e+07
1.52343e+07
1.72326e+07
1.71776e+07
1.7084e+07
1.69669e+07
1.68369e+07
1.67008e+07
1.65625e+07
1.64248e+07
1.62891e+07
1.61565e+07
1.60275e+07
1.59026e+07
1.57819e+07
1.56657e+07
1.55539e+07
1.54466e+07
1.53438e+07
1.52452e+07
1.71116e+07
1.70673e+07
1.69896e+07
1.6889e+07
1.6774e+07
1.66506e+07
1.6523e+07
1.6394e+07
1.62655e+07
1.61388e+07
1.60148e+07
1.5894e+07
1.57769e+07
1.56637e+07
1.55545e+07
1.54494e+07
1.53485e+07
1.52517e+07
1.70298e+07
1.69915e+07
1.69231e+07
1.68328e+07
1.67276e+07
1.66129e+07
1.64928e+07
1.63701e+07
1.62468e+07
1.61245e+07
1.60042e+07
1.58866e+07
1.57721e+07
1.56611e+07
1.55539e+07
1.54505e+07
1.5351e+07
1.52555e+07
1.69741e+07
1.69395e+07
1.68768e+07
1.6793e+07
1.66943e+07
1.65855e+07
1.64705e+07
1.63523e+07
1.62328e+07
1.61137e+07
1.5996e+07
1.58806e+07
1.57681e+07
1.56588e+07
1.55529e+07
1.54508e+07
1.53523e+07
1.52577e+07
1.69365e+07
1.69041e+07
1.6845e+07
1.67655e+07
1.6671e+07
1.65662e+07
1.64547e+07
1.63395e+07
1.62226e+07
1.61057e+07
1.59899e+07
1.58761e+07
1.57649e+07
1.56568e+07
1.5552e+07
1.54507e+07
1.5353e+07
1.52589e+07
1.69115e+07
1.68805e+07
1.68237e+07
1.67469e+07
1.66552e+07
1.65529e+07
1.64438e+07
1.63307e+07
1.62155e+07
1.61001e+07
1.59856e+07
1.58729e+07
1.57626e+07
1.56553e+07
1.55511e+07
1.54504e+07
1.53532e+07
1.52597e+07
1.68955e+07
1.68653e+07
1.68099e+07
1.67348e+07
1.66448e+07
1.65443e+07
1.64367e+07
1.63248e+07
1.62108e+07
1.60964e+07
1.59827e+07
1.58707e+07
1.57611e+07
1.56542e+07
1.55505e+07
1.54502e+07
1.53533e+07
1.526e+07
1.68857e+07
1.68561e+07
1.68016e+07
1.67275e+07
1.66385e+07
1.6539e+07
1.64323e+07
1.63212e+07
1.62079e+07
1.60941e+07
1.59809e+07
1.58693e+07
1.576e+07
1.56535e+07
1.55501e+07
1.545e+07
1.53534e+07
1.52602e+07
1.68805e+07
1.68511e+07
1.6797e+07
1.67235e+07
1.66351e+07
1.65361e+07
1.64299e+07
1.63192e+07
1.62063e+07
1.60928e+07
1.59799e+07
1.58686e+07
1.57595e+07
1.56531e+07
1.55499e+07
1.54499e+07
1.53534e+07
1.52603e+07
1.68784e+07
1.6849e+07
1.67952e+07
1.67218e+07
1.66337e+07
1.65349e+07
1.64289e+07
1.63184e+07
1.62057e+07
1.60923e+07
1.59795e+07
1.58682e+07
1.57592e+07
1.5653e+07
1.55497e+07
1.54498e+07
1.53533e+07
1.52603e+07
1.25904e+07
1.25892e+07
1.25868e+07
1.25832e+07
1.25783e+07
1.25722e+07
1.25647e+07
1.25559e+07
1.25458e+07
1.25343e+07
1.25214e+07
1.2507e+07
1.24913e+07
1.24741e+07
1.24554e+07
1.24352e+07
1.24135e+07
1.23903e+07
1.23655e+07
1.23392e+07
1.23113e+07
1.22817e+07
1.22506e+07
1.22177e+07
1.21832e+07
1.21469e+07
1.21088e+07
1.20689e+07
1.20271e+07
1.19834e+07
1.19377e+07
1.189e+07
1.18401e+07
1.17879e+07
1.17334e+07
1.16763e+07
1.16165e+07
1.15537e+07
1.14878e+07
1.14182e+07
1.13446e+07
1.12663e+07
1.11824e+07
1.10915e+07
1.09913e+07
1.08767e+07
1.0735e+07
1.07165e+07
1.07127e+07
1.07092e+07
1.07058e+07
1.07025e+07
1.06992e+07
1.06961e+07
1.0693e+07
1.06899e+07
1.06869e+07
1.06839e+07
1.0681e+07
1.06781e+07
1.06752e+07
1.06724e+07
1.06696e+07
1.06668e+07
1.0664e+07
1.06612e+07
1.06585e+07
1.06557e+07
1.0653e+07
1.06503e+07
1.06476e+07
1.06449e+07
1.06422e+07
1.06395e+07
1.06368e+07
1.06342e+07
1.06315e+07
1.06288e+07
1.06261e+07
1.06234e+07
1.06207e+07
1.06181e+07
1.06154e+07
1.06127e+07
1.061e+07
1.06072e+07
1.06045e+07
1.06018e+07
1.05991e+07
1.05963e+07
1.05935e+07
1.05908e+07
1.0588e+07
1.05852e+07
1.05824e+07
1.05796e+07
1.05767e+07
1.05739e+07
1.0571e+07
1.05682e+07
1.05653e+07
1.05623e+07
1.05594e+07
1.05565e+07
1.05535e+07
1.05505e+07
1.05475e+07
1.05445e+07
1.05415e+07
1.05384e+07
1.05353e+07
1.05322e+07
1.05291e+07
1.0526e+07
1.05228e+07
1.05196e+07
1.05164e+07
1.05132e+07
1.05099e+07
1.05067e+07
1.05034e+07
1.05e+07
1.04967e+07
1.04933e+07
1.04899e+07
1.04865e+07
1.04831e+07
1.04796e+07
1.04761e+07
1.04726e+07
1.0469e+07
1.04654e+07
1.04618e+07
1.04582e+07
1.04545e+07
1.04508e+07
1.04471e+07
1.04434e+07
1.04396e+07
1.04358e+07
1.0432e+07
1.04281e+07
1.04242e+07
1.04203e+07
1.04164e+07
1.04124e+07
1.04084e+07
1.04043e+07
1.04003e+07
1.03961e+07
1.0392e+07
1.03878e+07
1.03836e+07
1.03794e+07
1.03751e+07
1.03708e+07
1.03665e+07
1.03621e+07
1.03577e+07
1.03533e+07
1.03488e+07
1.03443e+07
1.03398e+07
1.03352e+07
1.03306e+07
1.0326e+07
1.03213e+07
1.03166e+07
1.03119e+07
1.03071e+07
1.03023e+07
1.02974e+07
1.02925e+07
1.02876e+07
1.02827e+07
1.02777e+07
1.02727e+07
1.02678e+07
1.02628e+07
1.02578e+07
1.2595e+07
1.25938e+07
1.25914e+07
1.25878e+07
1.25829e+07
1.25768e+07
1.25693e+07
1.25605e+07
1.25503e+07
1.25387e+07
1.25258e+07
1.25114e+07
1.24956e+07
1.24783e+07
1.24596e+07
1.24393e+07
1.24176e+07
1.23943e+07
1.23696e+07
1.23432e+07
1.23153e+07
1.22858e+07
1.22546e+07
1.22218e+07
1.21873e+07
1.21511e+07
1.21131e+07
1.20734e+07
1.20317e+07
1.19881e+07
1.19426e+07
1.1895e+07
1.18453e+07
1.17933e+07
1.1739e+07
1.16822e+07
1.16228e+07
1.15604e+07
1.14951e+07
1.14263e+07
1.13537e+07
1.1277e+07
1.11955e+07
1.11086e+07
1.10155e+07
1.0916e+07
1.08107e+07
1.07162e+07
1.07122e+07
1.07089e+07
1.07055e+07
1.07023e+07
1.06991e+07
1.06959e+07
1.06928e+07
1.06898e+07
1.06868e+07
1.06838e+07
1.06809e+07
1.0678e+07
1.06751e+07
1.06723e+07
1.06695e+07
1.06667e+07
1.06639e+07
1.06612e+07
1.06584e+07
1.06557e+07
1.0653e+07
1.06503e+07
1.06476e+07
1.06449e+07
1.06422e+07
1.06395e+07
1.06368e+07
1.06341e+07
1.06314e+07
1.06288e+07
1.06261e+07
1.06234e+07
1.06207e+07
1.0618e+07
1.06153e+07
1.06126e+07
1.06099e+07
1.06072e+07
1.06045e+07
1.06018e+07
1.0599e+07
1.05963e+07
1.05935e+07
1.05908e+07
1.0588e+07
1.05852e+07
1.05824e+07
1.05796e+07
1.05767e+07
1.05739e+07
1.0571e+07
1.05681e+07
1.05653e+07
1.05623e+07
1.05594e+07
1.05565e+07
1.05535e+07
1.05505e+07
1.05475e+07
1.05445e+07
1.05415e+07
1.05384e+07
1.05353e+07
1.05322e+07
1.05291e+07
1.0526e+07
1.05228e+07
1.05196e+07
1.05164e+07
1.05132e+07
1.05099e+07
1.05067e+07
1.05034e+07
1.05e+07
1.04967e+07
1.04933e+07
1.04899e+07
1.04865e+07
1.04831e+07
1.04796e+07
1.04761e+07
1.04726e+07
1.0469e+07
1.04654e+07
1.04618e+07
1.04582e+07
1.04545e+07
1.04508e+07
1.04471e+07
1.04434e+07
1.04396e+07
1.04358e+07
1.0432e+07
1.04281e+07
1.04242e+07
1.04203e+07
1.04164e+07
1.04124e+07
1.04084e+07
1.04043e+07
1.04002e+07
1.03961e+07
1.0392e+07
1.03878e+07
1.03836e+07
1.03794e+07
1.03751e+07
1.03708e+07
1.03665e+07
1.03621e+07
1.03577e+07
1.03533e+07
1.03488e+07
1.03443e+07
1.03398e+07
1.03352e+07
1.03306e+07
1.0326e+07
1.03213e+07
1.03166e+07
1.03119e+07
1.03071e+07
1.03023e+07
1.02974e+07
1.02925e+07
1.02876e+07
1.02827e+07
1.02777e+07
1.02727e+07
1.02677e+07
1.02628e+07
1.02578e+07
1.26046e+07
1.26034e+07
1.2601e+07
1.25973e+07
1.25924e+07
1.25862e+07
1.25787e+07
1.25698e+07
1.25596e+07
1.2548e+07
1.25349e+07
1.25205e+07
1.25046e+07
1.24873e+07
1.24684e+07
1.24481e+07
1.24263e+07
1.2403e+07
1.23781e+07
1.23517e+07
1.23237e+07
1.22942e+07
1.2263e+07
1.22302e+07
1.21958e+07
1.21596e+07
1.21217e+07
1.2082e+07
1.20404e+07
1.1997e+07
1.19517e+07
1.19043e+07
1.18548e+07
1.18032e+07
1.17493e+07
1.1693e+07
1.16342e+07
1.15727e+07
1.15083e+07
1.14409e+07
1.13701e+07
1.12957e+07
1.12175e+07
1.1135e+07
1.10479e+07
1.09557e+07
1.08571e+07
1.07457e+07
1.07118e+07
1.07084e+07
1.07051e+07
1.07019e+07
1.06987e+07
1.06956e+07
1.06925e+07
1.06895e+07
1.06866e+07
1.06836e+07
1.06807e+07
1.06778e+07
1.0675e+07
1.06721e+07
1.06693e+07
1.06666e+07
1.06638e+07
1.0661e+07
1.06583e+07
1.06556e+07
1.06529e+07
1.06502e+07
1.06475e+07
1.06448e+07
1.06421e+07
1.06394e+07
1.06367e+07
1.06341e+07
1.06314e+07
1.06287e+07
1.0626e+07
1.06234e+07
1.06207e+07
1.0618e+07
1.06153e+07
1.06126e+07
1.06099e+07
1.06072e+07
1.06045e+07
1.06017e+07
1.0599e+07
1.05963e+07
1.05935e+07
1.05907e+07
1.0588e+07
1.05852e+07
1.05824e+07
1.05796e+07
1.05767e+07
1.05739e+07
1.0571e+07
1.05681e+07
1.05652e+07
1.05623e+07
1.05594e+07
1.05565e+07
1.05535e+07
1.05505e+07
1.05475e+07
1.05445e+07
1.05415e+07
1.05384e+07
1.05353e+07
1.05322e+07
1.05291e+07
1.0526e+07
1.05228e+07
1.05196e+07
1.05164e+07
1.05132e+07
1.05099e+07
1.05067e+07
1.05034e+07
1.05e+07
1.04967e+07
1.04933e+07
1.04899e+07
1.04865e+07
1.0483e+07
1.04796e+07
1.04761e+07
1.04726e+07
1.0469e+07
1.04654e+07
1.04618e+07
1.04582e+07
1.04545e+07
1.04508e+07
1.04471e+07
1.04434e+07
1.04396e+07
1.04358e+07
1.0432e+07
1.04281e+07
1.04242e+07
1.04203e+07
1.04164e+07
1.04124e+07
1.04084e+07
1.04043e+07
1.04002e+07
1.03961e+07
1.0392e+07
1.03878e+07
1.03836e+07
1.03794e+07
1.03751e+07
1.03708e+07
1.03665e+07
1.03621e+07
1.03577e+07
1.03533e+07
1.03488e+07
1.03443e+07
1.03398e+07
1.03352e+07
1.03306e+07
1.0326e+07
1.03213e+07
1.03166e+07
1.03119e+07
1.03071e+07
1.03023e+07
1.02974e+07
1.02925e+07
1.02876e+07
1.02827e+07
1.02777e+07
1.02727e+07
1.02677e+07
1.02627e+07
1.02577e+07
1.26191e+07
1.26179e+07
1.26154e+07
1.26118e+07
1.26068e+07
1.26005e+07
1.2593e+07
1.2584e+07
1.25737e+07
1.2562e+07
1.25489e+07
1.25344e+07
1.25184e+07
1.2501e+07
1.24821e+07
1.24617e+07
1.24398e+07
1.24163e+07
1.23914e+07
1.23649e+07
1.23368e+07
1.23072e+07
1.22759e+07
1.22431e+07
1.22086e+07
1.21724e+07
1.21345e+07
1.20948e+07
1.20534e+07
1.20101e+07
1.19649e+07
1.19178e+07
1.18686e+07
1.18174e+07
1.1764e+07
1.17083e+07
1.16503e+07
1.15899e+07
1.15268e+07
1.1461e+07
1.13923e+07
1.13207e+07
1.12458e+07
1.11678e+07
1.10863e+07
1.10014e+07
1.09129e+07
1.08201e+07
1.07209e+07
1.07078e+07
1.07045e+07
1.07014e+07
1.06982e+07
1.06952e+07
1.06921e+07
1.06892e+07
1.06862e+07
1.06833e+07
1.06804e+07
1.06776e+07
1.06747e+07
1.06719e+07
1.06691e+07
1.06664e+07
1.06636e+07
1.06609e+07
1.06582e+07
1.06554e+07
1.06527e+07
1.065e+07
1.06474e+07
1.06447e+07
1.0642e+07
1.06393e+07
1.06366e+07
1.0634e+07
1.06313e+07
1.06286e+07
1.0626e+07
1.06233e+07
1.06206e+07
1.06179e+07
1.06152e+07
1.06126e+07
1.06099e+07
1.06071e+07
1.06044e+07
1.06017e+07
1.0599e+07
1.05962e+07
1.05935e+07
1.05907e+07
1.05879e+07
1.05851e+07
1.05823e+07
1.05795e+07
1.05767e+07
1.05738e+07
1.0571e+07
1.05681e+07
1.05652e+07
1.05623e+07
1.05594e+07
1.05564e+07
1.05535e+07
1.05505e+07
1.05475e+07
1.05445e+07
1.05414e+07
1.05384e+07
1.05353e+07
1.05322e+07
1.05291e+07
1.0526e+07
1.05228e+07
1.05196e+07
1.05164e+07
1.05132e+07
1.05099e+07
1.05067e+07
1.05034e+07
1.05e+07
1.04967e+07
1.04933e+07
1.04899e+07
1.04865e+07
1.0483e+07
1.04796e+07
1.04761e+07
1.04725e+07
1.0469e+07
1.04654e+07
1.04618e+07
1.04582e+07
1.04545e+07
1.04508e+07
1.04471e+07
1.04434e+07
1.04396e+07
1.04358e+07
1.0432e+07
1.04281e+07
1.04242e+07
1.04203e+07
1.04163e+07
1.04124e+07
1.04084e+07
1.04043e+07
1.04002e+07
1.03961e+07
1.0392e+07
1.03878e+07
1.03836e+07
1.03794e+07
1.03751e+07
1.03708e+07
1.03665e+07
1.03621e+07
1.03577e+07
1.03533e+07
1.03488e+07
1.03443e+07
1.03398e+07
1.03352e+07
1.03306e+07
1.0326e+07
1.03213e+07
1.03166e+07
1.03118e+07
1.03071e+07
1.03023e+07
1.02974e+07
1.02925e+07
1.02876e+07
1.02827e+07
1.02777e+07
1.02727e+07
1.02677e+07
1.02627e+07
1.02577e+07
1.26387e+07
1.26374e+07
1.26349e+07
1.26312e+07
1.26262e+07
1.26198e+07
1.26122e+07
1.26031e+07
1.25927e+07
1.25809e+07
1.25677e+07
1.2553e+07
1.25369e+07
1.25194e+07
1.25003e+07
1.24798e+07
1.24577e+07
1.24341e+07
1.2409e+07
1.23824e+07
1.23542e+07
1.23245e+07
1.22931e+07
1.22601e+07
1.22255e+07
1.21893e+07
1.21514e+07
1.21117e+07
1.20703e+07
1.20271e+07
1.19821e+07
1.19352e+07
1.18864e+07
1.18356e+07
1.17828e+07
1.17279e+07
1.16708e+07
1.16114e+07
1.15497e+07
1.14857e+07
1.14192e+07
1.13502e+07
1.12787e+07
1.12047e+07
1.11282e+07
1.10495e+07
1.09687e+07
1.08861e+07
1.08016e+07
1.07125e+07
1.07038e+07
1.07007e+07
1.06976e+07
1.06946e+07
1.06916e+07
1.06887e+07
1.06858e+07
1.06829e+07
1.068e+07
1.06772e+07
1.06744e+07
1.06716e+07
1.06689e+07
1.06661e+07
1.06634e+07
1.06607e+07
1.06579e+07
1.06552e+07
1.06526e+07
1.06499e+07
1.06472e+07
1.06445e+07
1.06419e+07
1.06392e+07
1.06365e+07
1.06339e+07
1.06312e+07
1.06285e+07
1.06259e+07
1.06232e+07
1.06205e+07
1.06179e+07
1.06152e+07
1.06125e+07
1.06098e+07
1.06071e+07
1.06044e+07
1.06017e+07
1.05989e+07
1.05962e+07
1.05934e+07
1.05907e+07
1.05879e+07
1.05851e+07
1.05823e+07
1.05795e+07
1.05767e+07
1.05738e+07
1.0571e+07
1.05681e+07
1.05652e+07
1.05623e+07
1.05594e+07
1.05564e+07
1.05535e+07
1.05505e+07
1.05475e+07
1.05445e+07
1.05414e+07
1.05384e+07
1.05353e+07
1.05322e+07
1.05291e+07
1.05259e+07
1.05228e+07
1.05196e+07
1.05164e+07
1.05132e+07
1.05099e+07
1.05066e+07
1.05033e+07
1.05e+07
1.04967e+07
1.04933e+07
1.04899e+07
1.04865e+07
1.0483e+07
1.04796e+07
1.04761e+07
1.04725e+07
1.0469e+07
1.04654e+07
1.04618e+07
1.04582e+07
1.04545e+07
1.04508e+07
1.04471e+07
1.04434e+07
1.04396e+07
1.04358e+07
1.0432e+07
1.04281e+07
1.04242e+07
1.04203e+07
1.04163e+07
1.04124e+07
1.04084e+07
1.04043e+07
1.04002e+07
1.03961e+07
1.0392e+07
1.03878e+07
1.03836e+07
1.03794e+07
1.03751e+07
1.03708e+07
1.03665e+07
1.03621e+07
1.03577e+07
1.03533e+07
1.03488e+07
1.03443e+07
1.03398e+07
1.03352e+07
1.03306e+07
1.0326e+07
1.03213e+07
1.03166e+07
1.03118e+07
1.03071e+07
1.03022e+07
1.02974e+07
1.02925e+07
1.02876e+07
1.02827e+07
1.02777e+07
1.02727e+07
1.02677e+07
1.02626e+07
1.02576e+07
1.26633e+07
1.2662e+07
1.26595e+07
1.26557e+07
1.26505e+07
1.26441e+07
1.26363e+07
1.26271e+07
1.26166e+07
1.26046e+07
1.25912e+07
1.25764e+07
1.25601e+07
1.25423e+07
1.25231e+07
1.25023e+07
1.24801e+07
1.24563e+07
1.2431e+07
1.24042e+07
1.23758e+07
1.23458e+07
1.23143e+07
1.22812e+07
1.22464e+07
1.22101e+07
1.21721e+07
1.21324e+07
1.2091e+07
1.20479e+07
1.20031e+07
1.19564e+07
1.19079e+07
1.18576e+07
1.18053e+07
1.17511e+07
1.16949e+07
1.16367e+07
1.15765e+07
1.15141e+07
1.14497e+07
1.13831e+07
1.13146e+07
1.1244e+07
1.11717e+07
1.10978e+07
1.10225e+07
1.09462e+07
1.08691e+07
1.07907e+07
1.0707e+07
1.06999e+07
1.06969e+07
1.06939e+07
1.0691e+07
1.06881e+07
1.06852e+07
1.06824e+07
1.06796e+07
1.06768e+07
1.0674e+07
1.06713e+07
1.06685e+07
1.06658e+07
1.06631e+07
1.06604e+07
1.06577e+07
1.0655e+07
1.06523e+07
1.06497e+07
1.0647e+07
1.06443e+07
1.06417e+07
1.0639e+07
1.06364e+07
1.06337e+07
1.06311e+07
1.06284e+07
1.06258e+07
1.06231e+07
1.06204e+07
1.06178e+07
1.06151e+07
1.06124e+07
1.06097e+07
1.0607e+07
1.06043e+07
1.06016e+07
1.05989e+07
1.05961e+07
1.05934e+07
1.05906e+07
1.05878e+07
1.05851e+07
1.05823e+07
1.05795e+07
1.05766e+07
1.05738e+07
1.05709e+07
1.05681e+07
1.05652e+07
1.05623e+07
1.05593e+07
1.05564e+07
1.05534e+07
1.05505e+07
1.05475e+07
1.05445e+07
1.05414e+07
1.05384e+07
1.05353e+07
1.05322e+07
1.05291e+07
1.05259e+07
1.05228e+07
1.05196e+07
1.05164e+07
1.05132e+07
1.05099e+07
1.05066e+07
1.05033e+07
1.05e+07
1.04967e+07
1.04933e+07
1.04899e+07
1.04865e+07
1.0483e+07
1.04796e+07
1.04761e+07
1.04725e+07
1.0469e+07
1.04654e+07
1.04618e+07
1.04582e+07
1.04545e+07
1.04508e+07
1.04471e+07
1.04434e+07
1.04396e+07
1.04358e+07
1.0432e+07
1.04281e+07
1.04242e+07
1.04203e+07
1.04163e+07
1.04124e+07
1.04084e+07
1.04043e+07
1.04002e+07
1.03961e+07
1.0392e+07
1.03878e+07
1.03836e+07
1.03794e+07
1.03751e+07
1.03708e+07
1.03665e+07
1.03621e+07
1.03577e+07
1.03533e+07
1.03488e+07
1.03443e+07
1.03398e+07
1.03352e+07
1.03306e+07
1.0326e+07
1.03213e+07
1.03166e+07
1.03118e+07
1.03071e+07
1.03022e+07
1.02974e+07
1.02925e+07
1.02876e+07
1.02826e+07
1.02777e+07
1.02727e+07
1.02676e+07
1.02626e+07
1.02575e+07
1.26931e+07
1.26917e+07
1.26891e+07
1.26852e+07
1.268e+07
1.26734e+07
1.26654e+07
1.26561e+07
1.26453e+07
1.26331e+07
1.26195e+07
1.26044e+07
1.25879e+07
1.25698e+07
1.25503e+07
1.25293e+07
1.25067e+07
1.24827e+07
1.24571e+07
1.243e+07
1.24013e+07
1.23711e+07
1.23393e+07
1.2306e+07
1.22711e+07
1.22346e+07
1.21965e+07
1.21567e+07
1.21153e+07
1.20722e+07
1.20275e+07
1.1981e+07
1.19329e+07
1.18829e+07
1.18312e+07
1.17777e+07
1.17224e+07
1.16652e+07
1.16062e+07
1.15454e+07
1.14828e+07
1.14184e+07
1.13524e+07
1.12848e+07
1.12157e+07
1.11455e+07
1.10742e+07
1.10023e+07
1.09298e+07
1.08568e+07
1.07823e+07
1.07023e+07
1.0696e+07
1.06931e+07
1.06902e+07
1.06874e+07
1.06846e+07
1.06818e+07
1.06791e+07
1.06763e+07
1.06736e+07
1.06708e+07
1.06681e+07
1.06654e+07
1.06627e+07
1.06601e+07
1.06574e+07
1.06547e+07
1.06521e+07
1.06494e+07
1.06468e+07
1.06441e+07
1.06415e+07
1.06388e+07
1.06362e+07
1.06336e+07
1.06309e+07
1.06283e+07
1.06256e+07
1.0623e+07
1.06203e+07
1.06176e+07
1.0615e+07
1.06123e+07
1.06096e+07
1.06069e+07
1.06042e+07
1.06015e+07
1.05988e+07
1.05961e+07
1.05933e+07
1.05906e+07
1.05878e+07
1.0585e+07
1.05822e+07
1.05794e+07
1.05766e+07
1.05737e+07
1.05709e+07
1.0568e+07
1.05651e+07
1.05622e+07
1.05593e+07
1.05564e+07
1.05534e+07
1.05504e+07
1.05474e+07
1.05444e+07
1.05414e+07
1.05383e+07
1.05353e+07
1.05322e+07
1.05291e+07
1.05259e+07
1.05228e+07
1.05196e+07
1.05164e+07
1.05131e+07
1.05099e+07
1.05066e+07
1.05033e+07
1.05e+07
1.04967e+07
1.04933e+07
1.04899e+07
1.04865e+07
1.0483e+07
1.04796e+07
1.04761e+07
1.04725e+07
1.0469e+07
1.04654e+07
1.04618e+07
1.04582e+07
1.04545e+07
1.04508e+07
1.04471e+07
1.04434e+07
1.04396e+07
1.04358e+07
1.0432e+07
1.04281e+07
1.04242e+07
1.04203e+07
1.04163e+07
1.04124e+07
1.04083e+07
1.04043e+07
1.04002e+07
1.03961e+07
1.0392e+07
1.03878e+07
1.03836e+07
1.03794e+07
1.03751e+07
1.03708e+07
1.03665e+07
1.03621e+07
1.03577e+07
1.03533e+07
1.03488e+07
1.03443e+07
1.03398e+07
1.03352e+07
1.03306e+07
1.0326e+07
1.03213e+07
1.03166e+07
1.03118e+07
1.03071e+07
1.03022e+07
1.02974e+07
1.02925e+07
1.02876e+07
1.02826e+07
1.02776e+07
1.02726e+07
1.02676e+07
1.02625e+07
1.02574e+07
1.27281e+07
1.27267e+07
1.2724e+07
1.27199e+07
1.27145e+07
1.27078e+07
1.26996e+07
1.269e+07
1.2679e+07
1.26665e+07
1.26526e+07
1.26372e+07
1.26203e+07
1.26019e+07
1.2582e+07
1.25606e+07
1.25376e+07
1.25132e+07
1.24873e+07
1.24598e+07
1.24308e+07
1.24002e+07
1.23681e+07
1.23345e+07
1.22993e+07
1.22626e+07
1.22243e+07
1.21844e+07
1.21429e+07
1.20998e+07
1.20551e+07
1.20088e+07
1.19609e+07
1.19113e+07
1.186e+07
1.18071e+07
1.17526e+07
1.16963e+07
1.16385e+07
1.1579e+07
1.1518e+07
1.14554e+07
1.13915e+07
1.13262e+07
1.12597e+07
1.11923e+07
1.11241e+07
1.10553e+07
1.09861e+07
1.09166e+07
1.08465e+07
1.07748e+07
1.06976e+07
1.06922e+07
1.06894e+07
1.06866e+07
1.06839e+07
1.06812e+07
1.06785e+07
1.06757e+07
1.0673e+07
1.06704e+07
1.06677e+07
1.0665e+07
1.06623e+07
1.06597e+07
1.0657e+07
1.06544e+07
1.06518e+07
1.06491e+07
1.06465e+07
1.06439e+07
1.06412e+07
1.06386e+07
1.0636e+07
1.06334e+07
1.06307e+07
1.06281e+07
1.06255e+07
1.06228e+07
1.06202e+07
1.06175e+07
1.06148e+07
1.06122e+07
1.06095e+07
1.06068e+07
1.06041e+07
1.06014e+07
1.05987e+07
1.0596e+07
1.05932e+07
1.05905e+07
1.05877e+07
1.0585e+07
1.05822e+07
1.05794e+07
1.05765e+07
1.05737e+07
1.05709e+07
1.0568e+07
1.05651e+07
1.05622e+07
1.05593e+07
1.05563e+07
1.05534e+07
1.05504e+07
1.05474e+07
1.05444e+07
1.05414e+07
1.05383e+07
1.05353e+07
1.05322e+07
1.0529e+07
1.05259e+07
1.05227e+07
1.05196e+07
1.05164e+07
1.05131e+07
1.05099e+07
1.05066e+07
1.05033e+07
1.05e+07
1.04967e+07
1.04933e+07
1.04899e+07
1.04865e+07
1.0483e+07
1.04795e+07
1.04761e+07
1.04725e+07
1.0469e+07
1.04654e+07
1.04618e+07
1.04582e+07
1.04545e+07
1.04508e+07
1.04471e+07
1.04434e+07
1.04396e+07
1.04358e+07
1.0432e+07
1.04281e+07
1.04242e+07
1.04203e+07
1.04163e+07
1.04124e+07
1.04083e+07
1.04043e+07
1.04002e+07
1.03961e+07
1.0392e+07
1.03878e+07
1.03836e+07
1.03794e+07
1.03751e+07
1.03708e+07
1.03665e+07
1.03621e+07
1.03577e+07
1.03533e+07
1.03488e+07
1.03443e+07
1.03398e+07
1.03352e+07
1.03306e+07
1.0326e+07
1.03213e+07
1.03166e+07
1.03118e+07
1.0307e+07
1.03022e+07
1.02974e+07
1.02925e+07
1.02876e+07
1.02826e+07
1.02776e+07
1.02726e+07
1.02675e+07
1.02624e+07
1.02573e+07
1.27684e+07
1.27669e+07
1.27641e+07
1.27599e+07
1.27543e+07
1.27473e+07
1.27388e+07
1.2729e+07
1.27176e+07
1.27047e+07
1.26904e+07
1.26746e+07
1.26572e+07
1.26384e+07
1.2618e+07
1.25961e+07
1.25727e+07
1.25478e+07
1.25214e+07
1.24934e+07
1.2464e+07
1.2433e+07
1.24005e+07
1.23665e+07
1.23309e+07
1.22939e+07
1.22553e+07
1.22152e+07
1.21736e+07
1.21304e+07
1.20857e+07
1.20394e+07
1.19916e+07
1.19423e+07
1.18914e+07
1.1839e+07
1.17851e+07
1.17297e+07
1.16727e+07
1.16144e+07
1.15547e+07
1.14936e+07
1.14313e+07
1.13679e+07
1.13035e+07
1.12382e+07
1.11722e+07
1.11058e+07
1.1039e+07
1.09719e+07
1.09047e+07
1.08369e+07
1.07675e+07
1.0693e+07
1.06885e+07
1.06858e+07
1.06831e+07
1.06805e+07
1.06778e+07
1.06751e+07
1.06725e+07
1.06698e+07
1.06672e+07
1.06645e+07
1.06619e+07
1.06593e+07
1.06567e+07
1.0654e+07
1.06514e+07
1.06488e+07
1.06462e+07
1.06436e+07
1.0641e+07
1.06384e+07
1.06358e+07
1.06331e+07
1.06305e+07
1.06279e+07
1.06253e+07
1.06226e+07
1.062e+07
1.06174e+07
1.06147e+07
1.0612e+07
1.06094e+07
1.06067e+07
1.0604e+07
1.06013e+07
1.05986e+07
1.05959e+07
1.05932e+07
1.05904e+07
1.05877e+07
1.05849e+07
1.05821e+07
1.05793e+07
1.05765e+07
1.05737e+07
1.05708e+07
1.05679e+07
1.05651e+07
1.05622e+07
1.05592e+07
1.05563e+07
1.05534e+07
1.05504e+07
1.05474e+07
1.05444e+07
1.05414e+07
1.05383e+07
1.05352e+07
1.05321e+07
1.0529e+07
1.05259e+07
1.05227e+07
1.05196e+07
1.05163e+07
1.05131e+07
1.05099e+07
1.05066e+07
1.05033e+07
1.05e+07
1.04966e+07
1.04933e+07
1.04899e+07
1.04865e+07
1.0483e+07
1.04795e+07
1.0476e+07
1.04725e+07
1.0469e+07
1.04654e+07
1.04618e+07
1.04582e+07
1.04545e+07
1.04508e+07
1.04471e+07
1.04434e+07
1.04396e+07
1.04358e+07
1.04319e+07
1.04281e+07
1.04242e+07
1.04203e+07
1.04163e+07
1.04124e+07
1.04083e+07
1.04043e+07
1.04002e+07
1.03961e+07
1.0392e+07
1.03878e+07
1.03836e+07
1.03794e+07
1.03751e+07
1.03708e+07
1.03665e+07
1.03621e+07
1.03577e+07
1.03533e+07
1.03488e+07
1.03443e+07
1.03398e+07
1.03352e+07
1.03306e+07
1.0326e+07
1.03213e+07
1.03166e+07
1.03118e+07
1.0307e+07
1.03022e+07
1.02974e+07
1.02925e+07
1.02875e+07
1.02826e+07
1.02776e+07
1.02726e+07
1.02675e+07
1.02624e+07
1.02572e+07
1.28142e+07
1.28126e+07
1.28096e+07
1.28052e+07
1.27994e+07
1.27921e+07
1.27833e+07
1.2773e+07
1.27612e+07
1.27479e+07
1.27331e+07
1.27167e+07
1.26988e+07
1.26794e+07
1.26584e+07
1.2636e+07
1.2612e+07
1.25864e+07
1.25594e+07
1.25309e+07
1.25009e+07
1.24693e+07
1.24363e+07
1.24018e+07
1.23658e+07
1.23283e+07
1.22894e+07
1.2249e+07
1.22071e+07
1.21637e+07
1.21189e+07
1.20726e+07
1.20249e+07
1.19757e+07
1.19251e+07
1.1873e+07
1.18196e+07
1.17648e+07
1.17086e+07
1.16512e+07
1.15925e+07
1.15326e+07
1.14716e+07
1.14096e+07
1.13468e+07
1.12832e+07
1.12189e+07
1.11542e+07
1.10892e+07
1.10239e+07
1.09585e+07
1.08929e+07
1.08269e+07
1.07594e+07
1.06886e+07
1.06849e+07
1.06823e+07
1.06797e+07
1.06771e+07
1.06745e+07
1.06719e+07
1.06693e+07
1.06666e+07
1.0664e+07
1.06614e+07
1.06588e+07
1.06562e+07
1.06536e+07
1.06511e+07
1.06485e+07
1.06459e+07
1.06433e+07
1.06407e+07
1.06381e+07
1.06355e+07
1.06329e+07
1.06303e+07
1.06277e+07
1.06251e+07
1.06225e+07
1.06198e+07
1.06172e+07
1.06146e+07
1.06119e+07
1.06092e+07
1.06066e+07
1.06039e+07
1.06012e+07
1.05985e+07
1.05958e+07
1.05931e+07
1.05903e+07
1.05876e+07
1.05848e+07
1.0582e+07
1.05792e+07
1.05764e+07
1.05736e+07
1.05707e+07
1.05679e+07
1.0565e+07
1.05621e+07
1.05592e+07
1.05563e+07
1.05533e+07
1.05504e+07
1.05474e+07
1.05444e+07
1.05413e+07
1.05383e+07
1.05352e+07
1.05321e+07
1.0529e+07
1.05259e+07
1.05227e+07
1.05195e+07
1.05163e+07
1.05131e+07
1.05099e+07
1.05066e+07
1.05033e+07
1.05e+07
1.04966e+07
1.04933e+07
1.04899e+07
1.04864e+07
1.0483e+07
1.04795e+07
1.0476e+07
1.04725e+07
1.0469e+07
1.04654e+07
1.04618e+07
1.04582e+07
1.04545e+07
1.04508e+07
1.04471e+07
1.04433e+07
1.04396e+07
1.04358e+07
1.04319e+07
1.04281e+07
1.04242e+07
1.04203e+07
1.04163e+07
1.04123e+07
1.04083e+07
1.04043e+07
1.04002e+07
1.03961e+07
1.0392e+07
1.03878e+07
1.03836e+07
1.03794e+07
1.03751e+07
1.03708e+07
1.03665e+07
1.03621e+07
1.03577e+07
1.03533e+07
1.03488e+07
1.03443e+07
1.03398e+07
1.03352e+07
1.03306e+07
1.0326e+07
1.03213e+07
1.03166e+07
1.03118e+07
1.0307e+07
1.03022e+07
1.02973e+07
1.02925e+07
1.02875e+07
1.02826e+07
1.02776e+07
1.02725e+07
1.02674e+07
1.02623e+07
1.02572e+07
1.28656e+07
1.28639e+07
1.28608e+07
1.28562e+07
1.285e+07
1.28423e+07
1.28331e+07
1.28223e+07
1.281e+07
1.27961e+07
1.27806e+07
1.27636e+07
1.2745e+07
1.27249e+07
1.27032e+07
1.268e+07
1.26553e+07
1.2629e+07
1.26013e+07
1.2572e+07
1.25413e+07
1.25091e+07
1.24754e+07
1.24403e+07
1.24037e+07
1.23657e+07
1.23263e+07
1.22855e+07
1.22432e+07
1.21996e+07
1.21545e+07
1.21081e+07
1.20603e+07
1.20112e+07
1.19607e+07
1.19089e+07
1.18558e+07
1.18014e+07
1.17458e+07
1.1689e+07
1.16311e+07
1.15721e+07
1.15122e+07
1.14513e+07
1.13896e+07
1.13272e+07
1.12643e+07
1.12008e+07
1.1137e+07
1.1073e+07
1.10088e+07
1.09444e+07
1.08798e+07
1.08147e+07
1.07479e+07
1.06846e+07
1.06815e+07
1.0679e+07
1.06764e+07
1.06738e+07
1.06712e+07
1.06686e+07
1.06661e+07
1.06635e+07
1.06609e+07
1.06583e+07
1.06558e+07
1.06532e+07
1.06506e+07
1.06481e+07
1.06455e+07
1.06429e+07
1.06404e+07
1.06378e+07
1.06352e+07
1.06326e+07
1.06301e+07
1.06275e+07
1.06249e+07
1.06223e+07
1.06196e+07
1.0617e+07
1.06144e+07
1.06117e+07
1.06091e+07
1.06064e+07
1.06038e+07
1.06011e+07
1.05984e+07
1.05957e+07
1.0593e+07
1.05902e+07
1.05875e+07
1.05847e+07
1.0582e+07
1.05792e+07
1.05764e+07
1.05735e+07
1.05707e+07
1.05678e+07
1.0565e+07
1.05621e+07
1.05592e+07
1.05562e+07
1.05533e+07
1.05503e+07
1.05473e+07
1.05443e+07
1.05413e+07
1.05383e+07
1.05352e+07
1.05321e+07
1.0529e+07
1.05259e+07
1.05227e+07
1.05195e+07
1.05163e+07
1.05131e+07
1.05098e+07
1.05066e+07
1.05033e+07
1.05e+07
1.04966e+07
1.04933e+07
1.04899e+07
1.04864e+07
1.0483e+07
1.04795e+07