/*--------------------------------*- C++ -*----------------------------------*\
  =========                 |
  \\      /  F ield         | OpenFOAM: The Open Source CFD Toolbox
   \\    /   O peration     | Website:  https://openfoam.org
    \\  /    A nd           | Version:  10
     \\/     M anipulation  |
\*---------------------------------------------------------------------------*/
FoamFile
{
    format      ascii;
    class       surfaceScalarField;
    location    "0.6";
    object      phi;
}
// * * * * * * * * * * * * * * * * * * * * * * * * * * * * * * * * * * * * * //

dimensions      [0 3 -1 0 0 0 0];

internalField   nonuniform List<scalar> 
24170
(
1.62338e-12
-1.62338e-12
2.94734e-12
-1.32396e-12
3.72309e-12
-7.75751e-13
3.62925e-12
9.38365e-14
2.22526e-12
1.40399e-12
-1.09046e-12
3.31573e-12
-7.1149e-12
6.02444e-12
-1.6862e-11
9.74709e-12
-3.15641e-11
1.47021e-11
-5.2646e-11
2.1082e-11
-8.16716e-11
2.90256e-11
-1.20285e-10
3.86132e-11
-1.70222e-10
4.9937e-11
-2.336e-10
6.33778e-11
-3.14048e-10
8.0448e-11
-4.20675e-10
1.06628e-10
-5.84693e-10
1.64017e-10
3.72705e-10
-9.57398e-10
1.75113e-12
-3.37451e-12
3.18461e-12
-2.75744e-12
4.03758e-12
-1.62872e-12
3.97009e-12
1.61326e-13
2.51554e-12
2.85854e-12
-9.64207e-13
6.79547e-12
-7.31602e-12
1.23762e-11
-1.76194e-11
2.00504e-11
-3.3189e-11
3.02717e-11
-5.55483e-11
4.34412e-11
-8.63704e-11
5.98478e-11
-1.27407e-10
7.965e-11
-1.80473e-10
1.03003e-10
-2.47656e-10
1.30561e-10
-3.3218e-10
1.64972e-10
-4.40838e-10
2.15286e-10
-5.88663e-10
3.11842e-10
5.59251e-10
-7.75209e-10
1.90334e-12
-5.27785e-12
3.47396e-12
-4.32806e-12
4.43905e-12
-2.5938e-12
4.44495e-12
1.55424e-13
3.00484e-12
4.29865e-12
-5.49497e-13
1.03498e-11
-7.10827e-12
1.8935e-11
-1.78111e-11
3.07532e-11
-3.40526e-11
4.65133e-11
-5.74564e-11
6.68451e-11
-8.98106e-11
9.22019e-11
-1.32973e-10
1.22812e-10
-1.88791e-10
1.58821e-10
-2.5914e-10
2.00911e-10
-3.46219e-10
2.52051e-10
-4.52825e-10
3.21892e-10
-5.78219e-10
4.37235e-10
6.58874e-10
-6.77841e-10
2.08663e-12
-7.36449e-12
3.83033e-12
-6.07175e-12
4.95441e-12
-3.71788e-12
5.0988e-12
1.10351e-14
3.76529e-12
5.63215e-12
2.65797e-13
1.38493e-11
-6.32258e-12
2.55234e-11
-1.71899e-11
4.16206e-11
-3.38048e-11
6.31281e-11
-5.78914e-11
9.09317e-11
-9.13594e-11
1.2567e-10
-1.36178e-10
1.67631e-10
-1.94199e-10
2.16842e-10
-2.66949e-10
2.7366e-10
-3.55256e-10
3.40358e-10
-4.57803e-10
4.24439e-10
-5.64025e-10
5.43457e-10
7.22121e-10
-6.27272e-10
2.30886e-12
-9.67335e-12
4.27148e-12
-8.03438e-12
5.61587e-12
-5.06227e-12
5.98581e-12
-3.58898e-13
4.88452e-12
6.73344e-12
1.61898e-12
1.71148e-11
-4.75011e-12
3.18925e-11
-1.54478e-11
5.23183e-11
-3.20052e-11
7.96855e-11
-5.62452e-11
1.15172e-10
-9.021e-11
1.59635e-10
-1.36001e-10
2.13422e-10
-1.95494e-10
2.76335e-10
-2.69845e-10
3.48011e-10
-3.58552e-10
4.29065e-10
-4.57128e-10
5.23015e-10
-5.50894e-10
6.37223e-10
7.74521e-10
-6.03294e-10
2.57899e-12
-1.22523e-11
4.81785e-12
-1.02732e-11
6.46065e-12
-6.70507e-12
7.16903e-12
-1.06728e-12
6.4654e-12
7.43708e-12
3.673e-12
1.99072e-11
-2.14026e-12
3.77058e-11
-1.22106e-11
6.23886e-11
-2.81125e-11
9.55875e-11
-5.17611e-11
1.3882e-10
-8.53481e-11
1.93222e-10
-1.31158e-10
2.59232e-10
-1.91178e-10
3.36355e-10
-2.66361e-10
4.23194e-10
-3.55281e-10
5.17984e-10
-4.51665e-10
6.19399e-10
-5.4041e-10
7.25968e-10
8.29543e-10
-5.95432e-10
2.90674e-12
-1.51591e-11
5.49172e-12
-1.28582e-11
7.52968e-12
-8.74303e-12
8.71847e-12
-2.25606e-12
8.62359e-12
7.53195e-12
6.61355e-12
2.19173e-11
1.79692e-12
4.25224e-11
-7.03824e-12
7.12238e-11
-2.14788e-11
1.10028e-10
-4.35169e-11
1.60858e-10
-7.55154e-11
2.2522e-10
-1.20029e-10
3.03745e-10
-1.7935e-10
3.95676e-10
-2.54602e-10
4.98446e-10
-3.44157e-10
6.07539e-10
-4.41352e-10
7.16595e-10
-5.3239e-10
8.17005e-10
8.9555e-10
-5.98397e-10
3.30184e-12
-1.84609e-11
6.31571e-12
-1.58721e-11
8.86486e-12
-1.12922e-11
1.07067e-11
-4.09787e-12
1.14811e-11
6.75753e-12
1.06406e-11
2.27577e-11
7.38054e-12
4.57825e-11
5.64676e-13
7.80396e-11
-1.13559e-11
1.21949e-10
-3.04185e-11
1.79921e-10
-5.91747e-11
2.53977e-10
-1.00571e-10
3.45142e-10
-1.57518e-10
4.52623e-10
-2.31911e-10
5.72839e-10
-3.22924e-10
6.98552e-10
-4.24796e-10
8.18467e-10
-5.2551e-10
9.1772e-10
9.79698e-10
-6.09657e-10
3.77275e-12
-2.22337e-11
7.30995e-12
-1.94093e-11
1.05041e-11
-1.44864e-11
1.32006e-11
-6.79431e-12
1.51539e-11
4.80417e-12
1.59511e-11
2.19606e-11
1.49357e-11
4.67978e-11
1.11213e-11
8.1854e-11
3.07643e-12
1.29993e-10
-1.12156e-11
1.94213e-10
-3.44872e-11
2.77248e-10
-7.02121e-11
3.80867e-10
-1.22328e-10
5.04739e-10
-1.94354e-10
6.44865e-10
-2.876e-10
7.91799e-10
-3.98628e-10
9.29494e-10
-5.17274e-10
1.03637e-09
1.09063e-09
-6.2821e-10
4.32454e-12
-2.65582e-11
8.48775e-12
-2.35725e-11
1.24734e-11
-1.8472e-11
1.62478e-11
-1.05687e-11
1.97308e-11
1.32115e-12
2.27073e-11
1.89841e-11
2.47501e-11
4.47549e-11
2.51253e-11
8.14788e-11
2.26425e-11
1.32476e-10
1.54335e-11
2.01422e-10
6.65322e-13
2.92016e-10
-2.57439e-11
4.07276e-10
-6.92063e-11
5.48201e-10
-1.35943e-10
7.11602e-10
-2.31266e-10
8.87122e-10
-3.56211e-10
1.05444e-09
-5.03203e-10
1.18336e-09
1.24144e-09
-6.54007e-10
4.95582e-12
-3.1514e-11
9.84925e-12
-2.84659e-11
1.4775e-11
-2.33977e-11
1.98559e-11
-1.56495e-11
2.52399e-11
-4.06288e-12
3.0987e-11
1.3237e-11
3.70003e-11
3.87416e-11
4.29369e-11
7.55423e-11
4.80342e-11
1.27379e-10
5.08034e-11
1.98653e-10
4.85453e-11
2.94274e-10
3.66815e-11
4.1914e-10
8.02813e-12
5.76855e-10
-4.75389e-11
7.67169e-10
-1.41986e-10
9.81569e-10
-2.84869e-10
1.19732e-09
-4.74557e-10
1.37305e-09
1.45464e-09
-6.87756e-10
4.72554e-12
-3.62396e-11
9.49627e-12
-3.32367e-11
1.44849e-11
-2.83864e-11
1.99413e-11
-2.1106e-11
2.62267e-11
-1.03483e-11
3.36718e-11
5.79197e-12
4.25402e-11
2.98732e-11
5.29793e-11
6.51031e-11
6.48791e-11
1.15479e-10
7.75703e-11
1.85961e-10
8.92694e-11
2.82575e-10
9.61522e-11
4.12257e-10
9.09921e-11
5.82015e-10
6.15823e-11
7.96578e-10
-9.99219e-12
1.05314e-09
-1.44362e-10
1.33169e-09
-3.53001e-10
1.58169e-09
1.71594e-09
-6.14303e-10
6.05455e-12
-4.22941e-11
1.22987e-11
-3.94809e-11
1.90254e-11
-3.5113e-11
2.67031e-11
-2.87837e-11
3.60916e-11
-1.97367e-11
4.79582e-11
-6.07468e-12
6.30917e-11
1.47397e-11
8.23115e-11
4.58834e-11
1.06355e-10
9.1436e-11
1.35546e-10
1.5677e-10
1.69073e-10
2.49049e-10
2.03569e-10
3.77761e-10
2.30571e-10
5.55013e-10
2.32492e-10
7.94657e-10
1.77708e-10
1.10793e-09
1.88454e-11
1.49055e-09
-2.92661e-10
1.89319e-09
2.17259e-09
-7.49313e-10
7.69627e-12
-4.99904e-11
1.58431e-11
-4.76277e-11
2.48218e-11
-4.40918e-11
3.53856e-11
-3.93474e-11
4.90087e-11
-3.33599e-11
6.71524e-11
-2.42183e-11
9.14543e-11
-9.56224e-12
1.23903e-10
1.34342e-11
1.6687e-10
4.84697e-11
2.22917e-10
1.00723e-10
2.94169e-10
1.77796e-10
3.80695e-10
2.91234e-10
4.76813e-10
4.58895e-10
5.63275e-10
7.08195e-10
5.92326e-10
1.07888e-09
4.64293e-10
1.61859e-09
1.10513e-11
2.34643e-09
3.10258e-09
-9.18939e-10
9.53445e-12
-5.95248e-11
2.00528e-11
-5.8146e-11
3.17242e-11
-5.57632e-11
4.54902e-11
-5.31134e-11
6.42605e-11
-5.21303e-11
9.04528e-11
-5.04106e-11
1.26887e-10
-4.59962e-11
1.77327e-10
-3.70061e-11
2.46864e-10
-2.10671e-11
3.42284e-10
5.30324e-12
4.72362e-10
4.77181e-11
6.47668e-10
1.15928e-10
8.78577e-10
2.27986e-10
1.16756e-09
4.19216e-10
1.48425e-09
7.62184e-10
1.69048e-09
1.41236e-09
1.32184e-09
2.71507e-09
5.4609e-09
-1.03648e-09
1.10025e-11
-7.05274e-11
2.44847e-11
-7.16281e-11
3.89804e-11
-7.0259e-11
5.45506e-11
-6.86836e-11
7.80223e-11
-7.5602e-11
1.12502e-10
-8.48906e-11
1.61916e-10
-9.54096e-11
2.32043e-10
-1.07134e-10
3.31346e-10
-1.2037e-10
4.7235e-10
-1.35701e-10
6.74152e-10
-1.54084e-10
9.67073e-10
-1.76993e-10
1.40174e-09
-2.0668e-10
2.06758e-09
-2.46627e-10
3.13202e-09
-3.02253e-10
4.92642e-09
-3.82045e-10
8.14091e-09
-4.99423e-10
-6.76005e-10
1.42778e-08
3.18881e-07
1.80928e-07
2.67077e-07
5.17327e-08
2.52576e-07
1.44305e-08
2.51363e-07
1.14473e-09
2.52889e-07
-1.60176e-09
2.55611e-07
-2.80659e-09
2.59152e-07
-3.63659e-09
2.63284e-07
-4.23956e-09
2.67884e-07
-4.72014e-09
2.72903e-07
-5.15491e-09
2.78351e-07
-5.60182e-09
2.84286e-07
-6.11214e-09
2.9082e-07
-6.74057e-09
2.98129e-07
-7.55539e-09
3.06477e-07
-8.65065e-09
3.16257e-07
-1.0162e-08
3.28046e-07
-1.22878e-08
-1.53145e-08
3.42684e-07
9.41813e-08
8.67468e-08
9.77197e-08
4.81943e-08
8.72032e-08
2.49471e-08
7.59234e-08
1.24245e-08
6.83717e-08
5.94995e-09
6.32831e-08
2.28203e-09
5.9661e-08
-1.45042e-11
5.67713e-08
-1.34985e-09
5.44145e-08
-2.36338e-09
5.24524e-08
-3.19279e-09
5.07728e-08
-3.92224e-09
4.92671e-08
-4.60641e-09
4.78064e-08
-5.27986e-09
4.62102e-08
-5.95921e-09
4.41992e-08
-6.63962e-09
4.1322e-08
-7.28486e-09
3.68437e-08
-7.80943e-09
-8.04997e-09
2.95792e-08
4.24273e-08
4.43196e-08
5.90978e-08
3.15237e-08
6.33401e-08
2.07048e-08
6.26917e-08
1.30729e-08
6.06475e-08
7.99414e-09
5.83364e-08
4.59312e-09
5.60729e-08
2.24907e-09
5.41459e-08
5.77092e-10
5.23921e-08
-6.09519e-10
5.06945e-08
-1.49528e-09
4.89911e-08
-2.21878e-09
4.72089e-08
-2.82422e-09
4.52642e-08
-3.33521e-09
4.30649e-08
-3.75986e-09
4.05192e-08
-4.09389e-09
3.75577e-08
-4.3234e-09
3.41771e-08
-4.42882e-09
-4.39218e-09
3.05193e-08
1.64367e-08
2.78829e-08
2.61757e-08
2.17847e-08
3.10763e-08
1.58042e-08
3.31772e-08
1.0972e-08
3.38165e-08
7.35488e-09
3.37026e-08
4.70701e-09
3.31885e-08
2.76317e-09
3.245e-08
1.31556e-09
3.16237e-08
2.16777e-10
3.0713e-08
-5.84585e-10
2.97025e-08
-1.20828e-09
2.85876e-08
-1.70932e-09
2.73605e-08
-2.10813e-09
2.60158e-08
-2.41509e-09
2.45562e-08
-2.63429e-09
2.29995e-08
-2.76674e-09
2.13844e-08
-2.81373e-09
-2.78004e-09
1.97723e-08
9.26477e-09
1.86181e-08
1.57592e-08
1.52903e-08
1.98149e-08
1.17485e-08
2.21502e-08
8.6367e-09
2.33775e-08
6.12757e-09
2.39073e-08
4.17723e-09
2.39917e-08
2.67875e-09
2.37812e-08
1.52606e-09
2.33648e-08
6.33135e-10
2.28388e-08
-5.85158e-11
2.21942e-08
-5.63746e-10
2.14498e-08
-9.6486e-10
2.06183e-08
-1.27664e-09
1.97126e-08
-1.50936e-09
1.87485e-08
-1.67024e-09
1.77469e-08
-1.76513e-09
1.67334e-08
-1.80026e-09
-1.78336e-09
1.57367e-08
5.80788e-09
1.28102e-08
1.02575e-08
1.08406e-08
1.33674e-08
8.6386e-09
1.54077e-08
6.59632e-09
1.66695e-08
4.86584e-09
1.73831e-08
3.46364e-09
1.77115e-08
2.35031e-09
1.77649e-08
1.47263e-09
1.76167e-08
7.81391e-10
1.73212e-08
2.37003e-10
1.69356e-08
-1.78162e-10
1.64596e-08
-4.88853e-10
1.5912e-08
-7.29023e-10
1.53098e-08
-9.07188e-10
1.46693e-08
-1.02978e-09
1.40069e-08
-1.10274e-09
1.3339e-08
-1.13233e-09
-1.12554e-09
1.26812e-08
3.90193e-09
8.9083e-09
7.05393e-09
7.68864e-09
9.41147e-09
6.28106e-09
1.10804e-08
4.92738e-09
1.22056e-08
3.74064e-09
1.29188e-08
2.75045e-09
1.33238e-08
1.94529e-09
1.34977e-08
1.29875e-09
1.34964e-08
7.82713e-10
1.33606e-08
3.72754e-10
1.31328e-08
4.96648e-11
1.28346e-08
-1.90646e-10
1.24782e-08
-3.72589e-10
1.20783e-08
-5.07378e-10
1.16489e-08
-6.00343e-10
1.12021e-08
-6.55969e-10
1.07489e-08
-6.7908e-10
-6.75293e-10
1.02986e-08
2.7459e-09
6.1624e-09
5.04141e-09
5.39313e-09
6.83632e-09
4.48616e-09
8.17169e-09
3.592e-09
9.12294e-09
2.78939e-09
9.76761e-09
2.10578e-09
1.01725e-08
1.54037e-09
1.03911e-08
1.08017e-09
1.04647e-08
7.09083e-10
1.04255e-08
4.11989e-10
1.02989e-08
1.76248e-10
1.0116e-08
-7.75924e-12
9.88504e-09
-1.41591e-10
9.61907e-09
-2.41407e-10
9.32944e-09
-3.10714e-10
9.02524e-09
-3.51771e-10
8.71335e-09
-3.6719e-10
-3.61065e-10
8.39912e-09
1.9924e-09
4.17e-09
3.69769e-09
3.68783e-09
5.0728e-09
3.11105e-09
6.13203e-09
2.53277e-09
6.91604e-09
2.00538e-09
7.47188e-09
1.54994e-09
7.84328e-09
1.16897e-09
8.06731e-09
8.56145e-10
8.1742e-09
6.0219e-10
8.18839e-09
3.97802e-10
8.12984e-09
2.348e-10
8.01567e-09
1.06408e-10
7.86719e-09
6.8874e-12
7.6906e-09
-6.48134e-11
7.49528e-09
-1.1539e-10
7.28852e-09
-1.45012e-10
7.07418e-09
-1.52855e-10
-1.40454e-10
6.85357e-09
1.47183e-09
2.69817e-09
2.75307e-09
2.40659e-09
3.80951e-09
2.05461e-09
4.64422e-09
1.69806e-09
5.27972e-09
1.36988e-09
5.74526e-09
1.0844e-09
6.06985e-09
8.4438e-10
6.27931e-09
6.46682e-10
6.39553e-09
4.85974e-10
6.43673e-09
3.56598e-10
6.41823e-09
2.53306e-10
6.35328e-09
1.71355e-10
6.25375e-09
1.0642e-10
6.13353e-09
5.53999e-11
6.00163e-09
1.65095e-11
5.86333e-09
-6.70586e-12
5.71902e-09
-8.54251e-12
1.40367e-11
5.56453e-09
1.0925e-09
1.60567e-09
2.05549e-09
1.44359e-09
2.86277e-09
1.24733e-09
3.51291e-09
1.04792e-09
4.01856e-09
8.64232e-10
4.39818e-09
7.04779e-10
4.67117e-09
5.71396e-10
4.85543e-09
4.62419e-10
4.9666e-09
3.74805e-10
5.01796e-09
3.05235e-10
5.0208e-09
2.50465e-10
4.98501e-09
2.07151e-10
4.91994e-09
1.71492e-10
4.83572e-09
1.39613e-10
4.74276e-09
1.0947e-10
4.6501e-09
8.59537e-11
4.55862e-09
8.29426e-11
1.15278e-10
4.45738e-09
7.96979e-10
8.08694e-10
1.50586e-09
7.34707e-10
2.10727e-09
6.45932e-10
2.59833e-09
5.56858e-10
2.98616e-09
4.76405e-10
3.28241e-09
4.08523e-10
3.49991e-09
3.53898e-10
3.65082e-09
3.11511e-10
3.74592e-09
2.79703e-10
3.79442e-09
2.56734e-10
3.80403e-09
2.40859e-10
3.78129e-09
2.29888e-10
3.73252e-09
2.20264e-10
3.66557e-09
2.06564e-10
3.59138e-09
1.83657e-10
3.52255e-09
1.54785e-10
3.46321e-09
1.42287e-10
1.82513e-10
3.39597e-09
5.3112e-10
2.77574e-10
1.00542e-09
2.60409e-10
1.40983e-09
2.41516e-10
1.74174e-09
2.24954e-10
2.00502e-09
2.13128e-10
2.20662e-09
2.06923e-10
2.35425e-09
2.06264e-10
2.45511e-09
2.10647e-10
2.51526e-09
2.19555e-10
2.53928e-09
2.32719e-10
2.52999e-09
2.50148e-10
2.48826e-09
2.71613e-10
2.41339e-09
2.95135e-10
2.30544e-09
3.14511e-10
2.17121e-09
3.17892e-10
2.03446e-09
2.91531e-10
1.94759e-09
2.2916e-10
1.38347e-10
1.99176e-09
2.77574e-10
5.37983e-10
7.79499e-10
1.00445e-09
1.21758e-09
1.4245e-09
1.63077e-09
1.84142e-09
2.06097e-09
2.29369e-09
2.54384e-09
2.81545e-09
3.11059e-09
3.4251e-09
3.74299e-09
4.03452e-09
4.26368e-09
4.40203e-09
-1.30442e-11
1.30442e-11
-2.61536e-11
1.31094e-11
-3.93028e-11
1.31492e-11
-5.24657e-11
1.31629e-11
-6.56153e-11
1.31497e-11
-7.87244e-11
1.31091e-11
-9.17651e-11
1.30407e-11
-1.0471e-10
1.29444e-11
-1.1753e-10
1.28202e-11
-1.30198e-10
1.26683e-11
-1.42687e-10
1.24891e-11
-1.5497e-10
1.22831e-11
-1.67021e-10
1.20511e-11
-1.78816e-10
1.17941e-11
-1.90329e-10
1.1513e-11
-2.01538e-10
1.12092e-11
-2.12422e-10
1.0884e-11
-2.22961e-10
1.0539e-11
-2.33136e-10
1.01756e-11
-2.42932e-10
9.79573e-12
-2.52333e-10
9.40101e-12
-2.61326e-10
8.99328e-12
-2.69901e-10
8.57439e-12
-2.78047e-10
8.14619e-12
-2.85758e-10
7.71054e-12
-2.93027e-10
7.26926e-12
-2.99851e-10
6.82413e-12
-3.06228e-10
6.3769e-12
-3.12157e-10
5.92922e-12
-3.1764e-10
5.48268e-12
-3.22678e-10
5.03878e-12
-3.27277e-10
4.5989e-12
-3.31442e-10
4.16432e-12
-3.35178e-10
3.73622e-12
-3.38494e-10
3.31563e-12
-3.41397e-10
2.9035e-12
-3.43898e-10
2.5006e-12
-3.46005e-10
2.10764e-12
-3.4773e-10
1.72514e-12
-3.49084e-10
1.35356e-12
-3.50077e-10
9.93203e-13
-3.50721e-10
6.44276e-13
-3.51028e-10
3.06877e-13
-3.51009e-10
-1.8989e-14
-3.50676e-10
-3.33436e-13
-3.50039e-10
-6.36632e-13
-3.4911e-10
-9.28847e-13
-3.479e-10
-1.21042e-12
-3.46418e-10
-1.48175e-12
-3.44675e-10
-1.74329e-12
-3.42679e-10
-1.99555e-12
-3.4044e-10
-2.23907e-12
-3.37966e-10
-2.47446e-12
-3.35264e-10
-2.70231e-12
-3.3234e-10
-2.92327e-12
-3.29202e-10
-3.138e-12
-3.25855e-10
-3.34716e-12
-3.22304e-10
-3.55145e-12
-3.18552e-10
-3.75156e-12
-3.14604e-10
-3.94817e-12
-3.10462e-10
-4.142e-12
-3.06128e-10
-4.33373e-12
-3.01604e-10
-4.52408e-12
-2.9689e-10
-4.71374e-12
-2.91987e-10
-4.90343e-12
-2.86893e-10
-5.09384e-12
-2.81607e-10
-5.2857e-12
-2.76128e-10
-5.47972e-12
-2.70451e-10
-5.67663e-12
-2.64574e-10
-5.87718e-12
-2.58492e-10
-6.08211e-12
-2.522e-10
-6.29221e-12
-2.45691e-10
-6.5083e-12
-2.3896e-10
-6.73119e-12
-2.31998e-10
-6.96176e-12
-2.24797e-10
-7.20093e-12
-2.17348e-10
-7.44965e-12
-2.09639e-10
-7.70894e-12
-2.01659e-10
-7.97988e-12
-1.93395e-10
-8.26362e-12
-1.84834e-10
-8.5614e-12
-1.75959e-10
-8.87454e-12
-1.66755e-10
-9.20446e-12
-1.57202e-10
-9.55271e-12
-1.47281e-10
-9.92095e-12
-1.3697e-10
-1.0311e-11
-1.26246e-10
-1.07248e-11
-1.15081e-10
-1.11645e-11
-1.03449e-10
-1.16324e-11
-9.13174e-11
-1.21311e-11
-7.8654e-11
-1.26634e-11
-6.54218e-11
-1.32322e-11
-5.15809e-11
-1.38409e-11
-3.70878e-11
-1.44931e-11
-2.18949e-11
-1.51928e-11
-5.95053e-12
-1.59444e-11
1.0802e-11
-1.67525e-11
2.84244e-11
-1.76224e-11
4.69843e-11
-1.85599e-11
6.65553e-11
-1.9571e-11
8.72181e-11
-2.06628e-11
1.09061e-10
-2.18426e-11
1.32179e-10
-2.31187e-11
1.56679e-10
-2.44999e-11
1.82675e-10
-2.59959e-11
2.10293e-10
-2.76174e-11
2.39668e-10
-2.93758e-11
2.70952e-10
-3.12836e-11
3.04306e-10
-3.33543e-11
3.39909e-10
-3.56023e-11
3.77952e-10
-3.80435e-11
4.18646e-10
-4.06944e-11
4.62219e-10
-4.35728e-11
5.08917e-10
-4.66978e-11
5.59006e-10
-5.00891e-11
6.12773e-10
-5.37673e-11
6.70527e-10
-5.7754e-11
7.32598e-10
-6.20707e-11
7.99338e-10
-6.67395e-11
8.71119e-10
-7.17817e-11
9.48337e-10
-7.72179e-11
1.0314e-09
-8.3067e-11
1.12075e-09
-8.93453e-11
1.21682e-09
-9.60656e-11
1.32005e-09
-1.03236e-10
1.43091e-09
-1.10858e-10
1.54984e-09
-1.18927e-10
1.67726e-09
-1.27426e-10
1.81359e-09
-1.36329e-10
1.95919e-09
-1.45598e-10
2.11437e-09
-1.55177e-10
2.27936e-09
-1.64996e-10
2.45433e-09
-1.74966e-10
2.63931e-09
-1.84982e-10
2.83423e-09
-1.94919e-10
3.03887e-09
-2.04637e-10
3.25284e-09
-2.13978e-10
3.47562e-09
-2.22777e-10
3.70648e-09
-2.30859e-10
3.94453e-09
-2.3805e-10
4.18871e-09
-2.44182e-10
4.43781e-09
-2.49098e-10
4.69047e-09
-2.52663e-10
4.94524e-09
-2.5477e-10
5.20059e-09
-2.55343e-10
5.45493e-09
-2.54345e-10
5.70671e-09
-2.51777e-10
5.95439e-09
-2.47679e-10
6.19652e-09
-2.42129e-10
6.43175e-09
-2.35237e-10
6.6589e-09
-2.27142e-10
6.8769e-09
-2.18002e-10
7.08489e-09
-2.07989e-10
7.28217e-09
-1.97282e-10
7.46823e-09
-1.8606e-10
7.64272e-09
-1.74495e-10
7.80547e-09
-1.62748e-10
7.95644e-09
-1.50965e-10
8.09571e-09
-1.39275e-10
8.2235e-09
-1.27788e-10
8.34009e-09
-1.16594e-10
8.44586e-09
-1.05762e-10
8.5412e-09
-9.53427e-11
8.62657e-09
-8.53655e-11
8.70241e-09
-7.58419e-11
8.76917e-09
-6.67646e-11
8.82728e-09
-5.81068e-11
8.8771e-09
-4.98201e-11
8.91893e-09
-4.18317e-11
8.95297e-09
-3.40372e-11
8.97926e-09
-2.62889e-11
8.99763e-09
-1.83751e-11
9.00761e-09
-9.98195e-12
9.00823e-09
-6.19025e-13
8.9977e-09
1.05323e-11
8.97273e-09
2.49699e-11
8.92694e-09
4.57931e-11
8.84628e-09
8.06525e-11
8.69225e-09
1.54032e-10
3.78725e-10
8.31353e-09
-1.31566e-11
2.62008e-11
-2.63782e-11
2.6331e-11
-3.96388e-11
2.64099e-11
-5.29116e-11
2.64357e-11
-6.6169e-11
2.6407e-11
-7.93828e-11
2.63228e-11
-9.25246e-11
2.61825e-11
-1.05566e-10
2.59857e-11
-1.18478e-10
2.57324e-11
-1.31233e-10
2.54231e-11
-1.43802e-10
2.50587e-11
-1.5616e-10
2.46403e-11
-1.68278e-10
2.41696e-11
-1.80132e-10
2.36484e-11
-1.91698e-10
2.30789e-11
-2.02953e-10
2.24638e-11
-2.13875e-10
2.18059e-11
-2.24444e-10
2.11083e-11
-2.34643e-10
2.03741e-11
-2.44454e-10
1.9607e-11
-2.53863e-10
1.88104e-11
-2.62858e-10
1.79881e-11
-2.71427e-10
1.71438e-11
-2.79563e-10
1.62813e-11
-2.87256e-10
1.54042e-11
-2.94503e-10
1.45163e-11
-3.013e-10
1.36213e-11
-3.07646e-10
1.27224e-11
-3.1354e-10
1.18232e-11
-3.18984e-10
1.09268e-11
-3.23981e-10
1.00361e-11
-3.28536e-10
9.15393e-12
-3.32655e-10
8.28286e-12
-3.36344e-10
7.4252e-12
-3.39611e-10
6.58302e-12
-3.42466e-10
5.75814e-12
-3.44917e-10
4.95213e-12
-3.46976e-10
4.16633e-12
-3.48653e-10
3.40182e-12
-3.49959e-10
2.65942e-12
-3.50905e-10
1.93973e-12
-3.51504e-10
1.24314e-12
-3.51767e-10
5.69809e-13
-3.51706e-10
-8.03013e-14
-3.51332e-10
-7.07411e-13
-3.50656e-10
-1.31193e-12
-3.49691e-10
-1.89439e-12
-3.48446e-10
-2.45551e-12
-3.46931e-10
-2.99609e-12
-3.45158e-10
-3.51709e-12
-3.43134e-10
-4.01953e-12
-3.40868e-10
-4.50451e-12
-3.38369e-10
-4.97325e-12
-3.35645e-10
-5.42696e-12
-3.32701e-10
-5.86695e-12
-3.29545e-10
-6.29453e-12
-3.26181e-10
-6.71106e-12
-3.22614e-10
-7.1179e-12
-3.18849e-10
-7.51645e-12
-3.14889e-10
-7.9081e-12
-3.10737e-10
-8.29423e-12
-3.06395e-10
-8.67626e-12
-3.01863e-10
-9.05558e-12
-2.97143e-10
-9.43361e-12
-2.92235e-10
-9.81174e-12
-2.87137e-10
-1.01914e-11
-2.81849e-10
-1.0574e-11
-2.76368e-10
-1.09609e-11
-2.70691e-10
-1.13537e-11
-2.64814e-10
-1.17538e-11
-2.58734e-10
-1.21627e-11
-2.52444e-10
-1.25819e-11
-2.45939e-10
-1.30132e-11
-2.39212e-10
-1.3458e-11
-2.32256e-10
-1.39182e-11
-2.25061e-10
-1.43956e-11
-2.17619e-10
-1.48921e-11
-2.09918e-10
-1.54098e-11
-2.01947e-10
-1.59507e-11
-1.93693e-10
-1.65171e-11
-1.85143e-10
-1.71116e-11
-1.76281e-10
-1.77368e-11
-1.6709e-10
-1.83955e-11
-1.57552e-10
-1.90908e-11
-1.47647e-10
-1.9826e-11
-1.37353e-10
-2.06047e-11
-1.26647e-10
-2.14309e-11
-1.15503e-10
-2.23088e-11
-1.03892e-10
-2.3243e-11
-9.17845e-11
-2.42386e-11
-7.91467e-11
-2.53012e-11
-6.59421e-11
-2.64368e-11
-5.2131e-11
-2.76521e-11
-3.767e-11
-2.89541e-11
-2.25118e-11
-3.0351e-11
-6.6048e-12
-3.18514e-11
1.01074e-11
-3.34647e-11
2.76863e-11
-3.52014e-11
4.61993e-11
-3.70728e-11
6.57198e-11
-3.90915e-11
8.63281e-11
-4.12712e-11
1.08112e-10
-4.36266e-11
1.31168e-10
-4.61742e-11
1.556e-10
-4.89318e-11
1.81522e-10
-5.19188e-11
2.09061e-10
-5.51563e-11
2.38353e-10
-5.86673e-11
2.69546e-10
-6.24768e-11
3.02803e-10
-6.66117e-11
3.38302e-10
-7.11011e-11
3.76235e-10
-7.59764e-11
4.16812e-10
-8.1271e-11
4.6026e-10
-8.70206e-11
5.06825e-10
-9.32631e-11
5.56774e-10
-1.00038e-10
6.10394e-10
-1.07387e-10
6.67994e-10
-1.15354e-10
7.29904e-10
-1.23981e-10
7.96478e-10
-1.33313e-10
8.68089e-10
-1.43393e-10
9.45133e-10
-1.54262e-10
1.02803e-09
-1.65959e-10
1.1172e-09
-1.78517e-10
1.21309e-09
-1.91961e-10
1.31617e-09
-2.06309e-10
1.42687e-09
-2.21565e-10
1.54566e-09
-2.37718e-10
1.67298e-09
-2.54737e-10
1.80922e-09
-2.72571e-10
1.95476e-09
-2.9114e-10
2.10992e-09
-3.10337e-10
2.27494e-09
-3.3002e-10
2.44999e-09
-3.50012e-10
2.63511e-09
-3.701e-10
2.83022e-09
-3.90036e-10
3.03512e-09
-4.09534e-10
3.24943e-09
-4.28282e-10
3.47259e-09
-4.45943e-10
3.7039e-09
-4.62167e-10
3.94245e-09
-4.76602e-10
4.18718e-09
-4.88909e-10
4.43685e-09
-4.98774e-10
4.69012e-09
-5.05924e-10
4.94549e-09
-5.10143e-10
5.20143e-09
-5.1128e-10
5.45634e-09
-5.09259e-10
5.70864e-09
-5.04084e-10
5.9568e-09
-4.95837e-10
6.19935e-09
-4.84677e-10
6.43494e-09
-4.70827e-10
6.66236e-09
-4.54566e-10
6.88058e-09
-4.36215e-10
7.08871e-09
-4.1612e-10
7.28607e-09
-3.94642e-10
7.47215e-09
-3.72138e-10
7.64661e-09
-3.48955e-10
7.80928e-09
-3.25416e-10
7.96012e-09
-3.01813e-10
8.09925e-09
-2.78405e-10
8.22688e-09
-2.5541e-10
8.34329e-09
-2.33007e-10
8.44886e-09
-2.11336e-10
8.54402e-09
-1.90495e-10
8.62919e-09
-1.70544e-10
8.70486e-09
-1.51506e-10
8.77146e-09
-1.33364e-10
8.82942e-09
-1.16067e-10
8.87911e-09
-9.95165e-11
8.92085e-09
-8.35694e-11
8.95483e-09
-6.80185e-11
8.98112e-09
-5.25729e-11
8.99956e-09
-3.6817e-11
9.00971e-09
-2.0137e-11
9.01068e-09
-1.58371e-12
9.0008e-09
2.04106e-11
8.97711e-09
4.86569e-11
8.93414e-09
8.87682e-11
8.86117e-09
1.53617e-10
8.73703e-09
2.78174e-10
5.74097e-10
8.54166e-09
-1.33844e-11
3.95852e-11
-2.68336e-11
3.97802e-11
-4.03201e-11
3.98964e-11
-5.38156e-11
3.99312e-11
-6.7291e-11
3.98824e-11
-8.07168e-11
3.97486e-11
-9.40631e-11
3.95288e-11
-1.073e-10
3.92226e-11
-1.20398e-10
3.88302e-11
-1.33327e-10
3.83524e-11
-1.46059e-10
3.77905e-11
-1.58565e-10
3.71466e-11
-1.70819e-10
3.64232e-11
-1.82794e-10
3.56233e-11
-1.94465e-10
3.47505e-11
-2.05811e-10
3.38089e-11
-2.16808e-10
3.28029e-11
-2.27437e-10
3.17373e-11
-2.3768e-10
3.06173e-11
-2.47521e-10
2.94481e-11
-2.56946e-10
2.82353e-11
-2.65942e-10
2.69846e-11
-2.745e-10
2.57017e-11
-2.82611e-10
2.43925e-11
-2.9027e-10
2.30625e-11
-2.97471e-10
2.17174e-11
-3.04212e-10
2.03627e-11
-3.10493e-10
1.90035e-11
-3.16315e-10
1.76451e-11
-3.2168e-10
1.62921e-11
-3.26593e-10
1.49489e-11
-3.31059e-10
1.36198e-11
-3.35085e-10
1.23085e-11
-3.38678e-10
1.10185e-11
-3.41848e-10
9.75278e-12
-3.44604e-10
8.51406e-12
-3.46956e-10
7.30462e-12
-3.48916e-10
6.12639e-12
-3.50495e-10
4.98089e-12
-3.51705e-10
3.86929e-12
-3.52558e-10
2.79243e-12
-3.53066e-10
1.7508e-12
-3.5324e-10
7.44536e-13
-3.53094e-10
-2.26466e-13
-3.52639e-10
-1.16264e-12
-3.51886e-10
-2.06463e-12
-3.50847e-10
-2.93335e-12
-3.49533e-10
-3.7699e-12
-3.47953e-10
-4.57557e-12
-3.46119e-10
-5.35182e-12
-3.44038e-10
-6.10024e-12
-3.4172e-10
-6.82255e-12
-3.39173e-10
-7.52055e-12
-3.36403e-10
-8.19614e-12
-3.33419e-10
-8.85127e-12
-3.30226e-10
-9.48795e-12
-3.26829e-10
-1.01082e-11
-3.23232e-10
-1.07142e-11
-3.19441e-10
-1.13078e-11
-3.15458e-10
-1.18913e-11
-3.11285e-10
-1.24668e-11
-3.06925e-10
-1.30362e-11
-3.02379e-10
-1.36018e-11
-2.97647e-10
-1.41656e-11
-2.92729e-10
-1.47297e-11
-2.87624e-10
-1.52962e-11
-2.82331e-10
-1.58673e-11
-2.76847e-10
-1.6445e-11
-2.71169e-10
-1.70316e-11
-2.65294e-10
-1.76292e-11
-2.59216e-10
-1.82401e-11
-2.52932e-10
-1.88666e-11
-2.46434e-10
-1.95111e-11
-2.39715e-10
-2.01761e-11
-2.3277e-10
-2.08641e-11
-2.25587e-10
-2.15779e-11
-2.18159e-10
-2.23203e-11
-2.10474e-10
-2.30944e-11
-2.02522e-10
-2.39033e-11
-1.94288e-10
-2.47505e-11
-1.8576e-10
-2.56396e-11
-1.76923e-10
-2.65747e-11
-1.67758e-10
-2.75598e-11
-1.58249e-10
-2.85998e-11
-1.48376e-10
-2.96994e-11
-1.38117e-10
-3.08641e-11
-1.27448e-10
-3.20997e-11
-1.16344e-10
-3.34126e-11
-1.04777e-10
-3.48098e-11
-9.27169e-11
-3.62989e-11
-8.01301e-11
-3.78881e-11
-6.69805e-11
-3.95864e-11
-5.32288e-11
-4.14037e-11
-3.8832e-11
-4.3351e-11
-2.3743e-11
-4.544e-11
-7.91071e-12
-4.76837e-11
8.72093e-12
-5.00963e-11
2.6213e-11
-5.26935e-11
4.46324e-11
-5.54922e-11
6.4052e-11
-5.85111e-11
8.45516e-11
-6.17708e-11
1.06218e-10
-6.52935e-11
1.29148e-10
-6.91037e-11
1.53444e-10
-7.3228e-11
1.79221e-10
-7.76956e-11
2.06603e-10
-8.25383e-11
2.35726e-10
-8.77903e-11
2.66739e-10
-9.34893e-11
2.99802e-10
-9.96756e-11
3.35094e-10
-1.06393e-10
3.72806e-10
-1.13688e-10
4.13147e-10
-1.21612e-10
4.56345e-10
-1.30218e-10
5.02645e-10
-1.39563e-10
5.52314e-10
-1.49707e-10
6.0564e-10
-1.60713e-10
6.62931e-10
-1.72645e-10
7.2452e-10
-1.8557e-10
7.9076e-10
-1.99554e-10
8.6203e-10
-2.14662e-10
9.38726e-10
-2.30958e-10
1.02127e-09
-2.48501e-10
1.11009e-09
-2.6734e-10
1.20564e-09
-2.87516e-10
1.30839e-09
-3.09056e-10
1.41879e-09
-3.31968e-10
1.53731e-09
-3.56236e-10
1.66439e-09
-3.81817e-10
1.80045e-09
-4.08634e-10
1.94588e-09
-4.36569e-10
2.10101e-09
-4.65461e-10
2.26609e-09
-4.95098e-10
2.44129e-09
-5.25215e-10
2.62668e-09
-5.55489e-10
2.82219e-09
-5.85545e-10
3.0276e-09
-6.14952e-10
3.24256e-09
-6.43237e-10
3.4665e-09
-6.69888e-10
3.69871e-09
-6.94375e-10
3.93827e-09
-7.16162e-10
4.1841e-09
-7.34734e-10
4.43494e-09
-7.49614e-10
4.6894e-09
-7.60388e-10
4.94599e-09
-7.66728e-10
5.20311e-09
-7.68407e-10
5.45917e-09
-7.65312e-10
5.71254e-09
-7.57452e-10
5.96165e-09
-7.44955e-10
6.20504e-09
-7.28064e-10
6.44134e-09
-7.07123e-10
6.66932e-09
-6.82555e-10
6.88796e-09
-6.54851e-10
7.09638e-09
-6.24535e-10
7.29389e-09
-5.92155e-10
7.48e-09
-5.5825e-10
7.65439e-09
-5.23344e-10
7.8169e-09
-4.87922e-10
7.96751e-09
-4.52426e-10
8.10634e-09
-4.17241e-10
8.23363e-09
-3.82696e-10
8.34968e-09
-3.49057e-10
8.45487e-09
-3.16531e-10
8.54964e-09
-2.85265e-10
8.63445e-09
-2.55348e-10
8.70975e-09
-2.26812e-10
8.77602e-09
-1.99633e-10
8.83369e-09
-1.73731e-10
8.88314e-09
-1.48964e-10
8.92468e-09
-1.25117e-10
8.95855e-09
-1.01885e-10
8.98482e-09
-7.88429e-11
9.00339e-09
-5.5384e-11
9.01387e-09
-3.06242e-11
9.0155e-09
-3.21023e-12
9.00686e-09
2.90491e-11
8.98555e-09
6.99692e-11
8.94752e-09
1.26797e-10
8.88641e-09
2.1473e-10
8.79586e-09
3.68725e-10
6.70607e-10
8.69935e-09
-1.37341e-11
5.33193e-11
-2.75324e-11
5.35785e-11
-4.13653e-11
5.37293e-11
-5.52022e-11
5.3768e-11
-6.90116e-11
5.36919e-11
-8.27619e-11
5.34989e-11
-9.64209e-11
5.31878e-11
-1.09957e-10
5.27584e-11
-1.23338e-10
5.22111e-11
-1.36532e-10
5.15471e-11
-1.4951e-10
5.07686e-11
-1.62242e-10
4.98787e-11
-1.747e-10
4.88809e-11
-1.86857e-10
4.77798e-11
-1.98687e-10
4.65806e-11
-2.10167e-10
4.52889e-11
-2.21275e-10
4.39111e-11
-2.31991e-10
4.2454e-11
-2.42299e-10
4.09247e-11
-2.52181e-10
3.93307e-11
-2.61626e-10
3.76797e-11
-2.70621e-10
3.59797e-11
-2.79157e-10
3.42383e-11
-2.87229e-10
3.24636e-11
-2.94829e-10
3.06633e-11
-3.01957e-10
2.8845e-11
-3.0861e-10
2.70161e-11
-3.14791e-10
2.51838e-11
-3.205e-10
2.33547e-11
-3.25743e-10
2.15352e-11
-3.30526e-10
1.97313e-11
-3.34854e-10
1.79484e-11
-3.38737e-10
1.61916e-11
-3.42184e-10
1.44652e-11
-3.45205e-10
1.27734e-11
-3.4781e-10
1.11194e-11
-3.50012e-10
9.50633e-12
-3.51822e-10
7.93651e-12
-3.53253e-10
6.41185e-12
-3.54317e-10
4.93378e-12
-3.55028e-10
3.50322e-12
-3.55398e-10
2.12068e-12
-3.5544e-10
7.86227e-13
-3.55166e-10
-5.00468e-13
-3.54588e-10
-1.74009e-12
-3.53719e-10
-2.93366e-12
-3.5257e-10
-4.0825e-12
-3.51152e-10
-5.18819e-12
-3.49475e-10
-6.25258e-12
-3.47549e-10
-7.27769e-12
-3.45383e-10
-8.26573e-12
-3.42987e-10
-9.21907e-12
-3.40367e-10
-1.01402e-11
-3.37532e-10
-1.10316e-11
-3.34487e-10
-1.18961e-11
-3.31239e-10
-1.27362e-11
-3.27792e-10
-1.35548e-11
-3.24152e-10
-1.43546e-11
-3.20321e-10
-1.51384e-11
-3.16303e-10
-1.59091e-11
-3.12101e-10
-1.66693e-11
-3.07715e-10
-1.74219e-11
-3.03147e-10
-1.81696e-11
-2.98398e-10
-1.89153e-11
-2.93466e-10
-1.96617e-11
-2.8835e-10
-2.04116e-11
-2.8305e-10
-2.11678e-11
-2.77561e-10
-2.19332e-11
-2.71883e-10
-2.27105e-11
-2.66009e-10
-2.35026e-11
-2.59937e-10
-2.43127e-11
-2.5366e-10
-2.51436e-11
-2.47172e-10
-2.59987e-11
-2.40467e-10
-2.6881e-11
-2.33537e-10
-2.77941e-11
-2.26374e-10
-2.87415e-11
-2.18967e-10
-2.97271e-11
-2.11306e-10
-3.07547e-11
-2.03381e-10
-3.18287e-11
-1.95178e-10
-3.29536e-11
-1.86683e-10
-3.41343e-11
-1.77882e-10
-3.53759e-11
-1.68758e-10
-3.66842e-11
-1.59292e-10
-3.80651e-11
-1.49466e-10
-3.95253e-11
-1.39258e-10
-4.10719e-11
-1.28645e-10
-4.27127e-11
-1.17602e-10
-4.44561e-11
-1.061e-10
-4.63114e-11
-9.41108e-11
-4.82886e-11
-8.16002e-11
-5.03986e-11
-6.8533e-11
-5.26536e-11
-5.48701e-11
-5.50666e-11
-4.05692e-11
-5.76519e-11
-2.55837e-11
-6.04255e-11
-9.86301e-12
-6.34044e-11
6.64824e-12
-6.66076e-11
2.40105e-11
-7.00557e-11
4.22899e-11
-7.37715e-11
6.15585e-11
-7.77798e-11
8.18955e-11
-8.21078e-11
1.03387e-10
-8.67851e-11
1.26128e-10
-9.18444e-11
1.50221e-10
-9.73211e-11
1.75779e-10
-1.03254e-10
2.02926e-10
-1.09685e-10
2.31797e-10
-1.16661e-10
2.62539e-10
-1.24231e-10
2.95313e-10
-1.3245e-10
3.30295e-10
-1.41375e-10
3.67675e-10
-1.51069e-10
4.07664e-10
-1.616e-10
4.50486e-10
-1.7304e-10
4.96388e-10