/*--------------------------------*- C++ -*----------------------------------*\
  =========                 |
  \\      /  F ield         | OpenFOAM: The Open Source CFD Toolbox
   \\    /   O peration     | Website:  https://openfoam.org
    \\  /    A nd           | Version:  10
     \\/     M anipulation  |
\*---------------------------------------------------------------------------*/
FoamFile
{
    format      ascii;
    class       volScalarField;
    location    "59";
    object      p;
}
// * * * * * * * * * * * * * * * * * * * * * * * * * * * * * * * * * * * * * //

dimensions      [1 -1 -2 0 0 0 0];

internalField   nonuniform List<scalar> 
100
(
1.02193e+07
1.02189e+07
1.02184e+07
1.02179e+07
1.02172e+07
1.02165e+07
1.02158e+07
1.0215e+07
1.02141e+07
1.02132e+07
1.02122e+07
1.02112e+07
1.02101e+07
1.0209e+07
1.02079e+07
1.02067e+07
1.02054e+07
1.02042e+07
1.02029e+07
1.02015e+07
1.02001e+07
1.01987e+07
1.01973e+07
1.01958e+07
1.01943e+07
1.01927e+07
1.01911e+07
1.01895e+07
1.01879e+07
1.01862e+07
1.01845e+07
1.01827e+07
1.0181e+07
1.01792e+07
1.01773e+07
1.01755e+07
1.01736e+07
1.01717e+07
1.01697e+07
1.01677e+07
1.01657e+07
1.01637e+07
1.01616e+07
1.01595e+07
1.01574e+07
1.01553e+07
1.01531e+07
1.01509e+07
1.01487e+07
1.01464e+07
1.01441e+07
1.01418e+07
1.01395e+07
1.01371e+07
1.01348e+07
1.01323e+07
1.01299e+07
1.01275e+07
1.0125e+07
1.01225e+07
1.01199e+07
1.01174e+07
1.01148e+07
1.01122e+07
1.01095e+07
1.01069e+07
1.01042e+07
1.01015e+07
1.00987e+07
1.0096e+07
1.00932e+07
1.00904e+07
1.00875e+07
1.00847e+07
1.00818e+07
1.00789e+07
1.0076e+07
1.0073e+07
1.007e+07
1.0067e+07
1.0064e+07
1.0061e+07
1.00579e+07
1.00548e+07
1.00517e+07
1.00485e+07
1.00453e+07
1.00421e+07
1.00389e+07
1.00357e+07
1.00324e+07
1.00291e+07
1.00258e+07
1.00224e+07
1.00191e+07
1.00157e+07
1.00122e+07
1.00088e+07
1.00053e+07
1.00018e+07
)
;

boundaryField
{
    inlet
    {
        type            zeroGradient;
    }
    outlet
    {
        type            fixedValue;
        value           uniform 1e+07;
    }
    yzfaces
    {
        type            empty;
    }
}


// ************************************************************************* //
