/*--------------------------------*- C++ -*----------------------------------*\
  =========                 |
  \\      /  F ield         | OpenFOAM: The Open Source CFD Toolbox
   \\    /   O peration     | Website:  https://openfoam.org
    \\  /    A nd           | Version:  10
     \\/     M anipulation  |
\*---------------------------------------------------------------------------*/
FoamFile
{
    format      ascii;
    class       volVectorField;
    location    "59";
    object      Ub;
}
// * * * * * * * * * * * * * * * * * * * * * * * * * * * * * * * * * * * * * //

dimensions      [0 1 -1 0 0 0 0];

internalField   nonuniform List<vector> 
100
(
(2.52861e-07 0 0)
(7.63391e-07 0 0)
(1.28413e-06 0 0)
(1.81293e-06 0 0)
(2.34595e-06 0 0)
(2.88154e-06 0 0)
(3.41883e-06 0 0)
(3.95732e-06 0 0)
(4.49669e-06 0 0)
(5.03675e-06 0 0)
(5.57736e-06 0 0)
(6.11845e-06 0 0)
(6.65996e-06 0 0)
(7.20186e-06 0 0)
(7.74413e-06 0 0)
(8.28676e-06 0 0)
(8.82975e-06 0 0)
(9.37311e-06 0 0)
(9.91685e-06 0 0)
(1.0461e-05 0 0)
(1.10055e-05 0 0)
(1.15505e-05 0 0)
(1.20959e-05 0 0)
(1.26418e-05 0 0)
(1.31881e-05 0 0)
(1.3735e-05 0 0)
(1.42824e-05 0 0)
(1.48303e-05 0 0)
(1.53788e-05 0 0)
(1.59279e-05 0 0)
(1.64776e-05 0 0)
(1.70279e-05 0 0)
(1.75789e-05 0 0)
(1.81306e-05 0 0)
(1.8683e-05 0 0)
(1.92361e-05 0 0)
(1.979e-05 0 0)
(2.03446e-05 0 0)
(2.09001e-05 0 0)
(2.14564e-05 0 0)
(2.20135e-05 0 0)
(2.25716e-05 0 0)
(2.31305e-05 0 0)
(2.36904e-05 0 0)
(2.42512e-05 0 0)
(2.48131e-05 0 0)
(2.53759e-05 0 0)
(2.59398e-05 0 0)
(2.65048e-05 0 0)
(2.70709e-05 0 0)
(2.76381e-05 0 0)
(2.82065e-05 0 0)
(2.87762e-05 0 0)
(2.9347e-05 0 0)
(2.99192e-05 0 0)
(3.04927e-05 0 0)
(3.10675e-05 0 0)
(3.16438e-05 0 0)
(3.22215e-05 0 0)
(3.28008e-05 0 0)
(3.33815e-05 0 0)
(3.39639e-05 0 0)
(3.45479e-05 0 0)
(3.51337e-05 0 0)
(3.57212e-05 0 0)
(3.63106e-05 0 0)
(3.69019e-05 0 0)
(3.74952e-05 0 0)
(3.80905e-05 0 0)
(3.8688e-05 0 0)
(3.92878e-05 0 0)
(3.989e-05 0 0)
(4.04946e-05 0 0)
(4.11018e-05 0 0)
(4.17117e-05 0 0)
(4.23246e-05 0 0)
(4.29404e-05 0 0)
(4.35595e-05 0 0)
(4.41819e-05 0 0)
(4.4808e-05 0 0)
(4.54379e-05 0 0)
(4.60719e-05 0 0)
(4.67103e-05 0 0)
(4.73535e-05 0 0)
(4.80018e-05 0 0)
(4.86556e-05 0 0)
(4.93155e-05 0 0)
(4.99819e-05 0 0)
(5.06556e-05 0 0)
(5.13373e-05 0 0)
(5.20277e-05 0 0)
(5.27281e-05 0 0)
(5.34394e-05 0 0)
(5.41632e-05 0 0)
(5.49012e-05 0 0)
(5.56554e-05 0 0)
(5.64283e-05 0 0)
(5.72229e-05 0 0)
(5.80433e-05 0 0)
(5.88941e-05 0 0)
)
;

boundaryField
{
    inlet
    {
        type            fixedValue;
        value           uniform (0 0 0);
    }
    outlet
    {
        type            zeroGradient;
    }
    yzfaces
    {
        type            empty;
    }
}


// ************************************************************************* //
