/*--------------------------------*- C++ -*----------------------------------*\
  =========                 |
  \\      /  F ield         | OpenFOAM: The Open Source CFD Toolbox
   \\    /   O peration     | Website:  https://openfoam.org
    \\  /    A nd           | Version:  10
     \\/     M anipulation  |
\*---------------------------------------------------------------------------*/
FoamFile
{
    format      ascii;
    class       volVectorField;
    location    "0.26";
    object      Ub;
}
// * * * * * * * * * * * * * * * * * * * * * * * * * * * * * * * * * * * * * //

dimensions      [0 1 -1 0 0 0 0];

internalField   nonuniform List<vector> 
12225
(
(0.00166042 -0.00036149 0)
(0.00473244 -0.000322716 0)
(0.0072562 -0.000268737 0)
(0.00922232 -0.000218662 0)
(0.010757 -0.000183712 0)
(0.0120452 -0.00017056 0)
(0.0133011 -0.000188918 0)
(0.0148059 -0.000272265 0)
(0.0168056 -0.000563786 0)
(0.00907277 -0.000408563 0)
(9.83463e-05 1.18795e-17 0)
(3.72292e-16 4.95804e-33 0)
(1.55856e-31 1.4232e-33 0)
(1.50502e-31 2.01026e-35 0)
(1.52514e-31 -1.06824e-33 0)
(1.61372e-31 -2.50659e-33 0)
(1.81837e-31 -5.63461e-33 0)
(2.38211e-31 -1.71723e-32 0)
(0.00203224 -0.00117282 0)
(0.00578999 -0.00104447 0)
(0.00887349 -0.000866546 0)
(0.0112644 -0.000700601 0)
(0.0130934 -0.000581998 0)
(0.014549 -0.000530724 0)
(0.0158433 -0.000574594 0)
(0.0172526 -0.000808712 0)
(0.0192604 -0.00164089 0)
(0.0110006 -0.00221576 0)
(0.000753742 3.59609e-14 0)
(1.26446e-11 1.33874e-32 0)
(1.54203e-31 4.46319e-33 0)
(1.49621e-31 3.62311e-34 0)
(1.51578e-31 -2.88984e-33 0)
(1.59602e-31 -7.09188e-33 0)
(1.75893e-31 -1.5527e-32 0)
(2.02206e-31 -4.09413e-32 0)
(0.00217177 -0.00213546 0)
(0.00617306 -0.00189481 0)
(0.00942648 -0.00156359 0)
(0.011918 -0.00125414 0)
(0.0137927 -0.00102885 0)
(0.0152495 -0.00092036 0)
(0.0164952 -0.000970163 0)
(0.0177329 -0.00131215 0)
(0.0189726 -0.00247094 0)
(0.0120588 -0.00435475 0)
(0.00227364 5.49055e-14 0)
(3.69448e-09 1.78952e-32 0)
(1.54416e-31 7.12913e-33 0)
(1.47777e-31 6.29792e-34 0)
(1.49623e-31 -4.67204e-33 0)
(1.56254e-31 -1.12572e-32 0)
(1.6758e-31 -2.29734e-32 0)
(1.78456e-31 -4.95799e-32 0)
(0.00229305 -0.00322746 0)
(0.0064974 -0.00285045 0)
(0.00987414 -0.00233674 0)
(0.0124194 -0.00185855 0)
(0.0142984 -0.0015075 0)
(0.0157226 -0.00132675 0)
(0.0168876 -0.00136344 0)
(0.0179114 -0.00175225 0)
(0.0184359 -0.00291087 0)
(0.0135486 -0.00471984 0)
(0.00431031 -9.2127e-09 0)
(1.61065e-07 3.5645e-30 0)
(2.62548e-29 9.24685e-33 0)
(1.44957e-31 7.61923e-34 0)
(1.46665e-31 -6.315e-33 0)
(1.5171e-31 -1.46805e-32 0)
(1.58712e-31 -2.77741e-32 0)
(1.61799e-31 -5.11439e-32 0)
(0.00242429 -0.00446239 0)
(0.00684088 -0.00391794 0)
(0.0103303 -0.00318554 0)
(0.0129053 -0.00250906 0)
(0.0147595 -0.00201102 0)
(0.016121 -0.00174134 0)
(0.0171767 -0.0017423 0)
(0.0179891 -0.00211522 0)
(0.0181363 -0.00306037 0)
(0.0148978 -0.00391085 0)
(0.00592754 -2.41722e-07 0)
(7.77516e-07 1.80504e-26 0)
(1.0999e-25 1.07129e-32 0)
(1.412e-31 7.01851e-34 0)
(1.42802e-31 -7.75582e-33 0)
(1.46372e-31 -1.7235e-32 0)
(1.50127e-31 -3.03639e-32 0)
(1.49429e-31 -4.96064e-32 0)
(0.00257965 -0.00586509 0)
(0.00723998 -0.00511084 0)
(0.0108432 -0.00411252 0)
(0.0134284 -0.00320117 0)
(0.0152298 -0.00253122 0)
(0.0164991 -0.00215362 0)
(0.0174228 -0.00209538 0)
(0.0180478 -0.00240664 0)
(0.0180629 -0.00309121 0)
(0.0160925 -0.00324084 0)
(0.00717206 -3.13773e-06 0)
(2.63236e-06 1.12727e-23 0)
(7.77179e-23 1.14283e-32 0)
(1.36602e-31 3.87658e-34 0)
(1.38192e-31 -8.98405e-33 0)
(1.40581e-31 -1.8959e-32 0)
(1.42149e-31 -3.13423e-32 0)
(1.39771e-31 -4.68613e-32 0)
(0.00277292 -0.00747186 0)
(0.00772776 -0.00644805 0)
(0.0114512 -0.00512059 0)
(0.0140255 -0.00392835 0)
(0.0157427 -0.00305708 0)
(0.0168886 -0.00255081 0)
(0.0176598 -0.00241204 0)
(0.0181195 -0.00263903 0)
(0.0181271 -0.00312083 0)
(0.0171458 -0.00300307 0)
(0.00816248 -3.04803e-05 0)
(9.09031e-06 2.76486e-21 0)
(3.39834e-20 1.12379e-32 0)
(1.31313e-31 -2.54469e-34 0)
(1.33023e-31 -1.00412e-32 0)
(1.34599e-31 -1.99989e-32 0)
(1.34853e-31 -3.12662e-32 0)
(1.31907e-31 -4.37863e-32 0)
(0.00302187 -0.00933456 0)
(0.00834448 -0.00795421 0)
(0.0121967 -0.0062113 0)
(0.0147323 -0.00467998 0)
(0.0163267 -0.00357329 0)
(0.0173137 -0.0029169 0)
(0.0179094 -0.0026802 0)
(0.0182066 -0.00281899 0)
(0.01822 -0.00319792 0)
(0.0180087 -0.00322984 0)
(0.00897419 -0.000312744 0)
(4.31057e-05 7.86113e-19 0)
(3.59057e-17 9.92208e-33 0)
(1.25565e-31 -1.29775e-33 0)
(1.27509e-31 -1.10046e-32 0)
(1.2862e-31 -2.05518e-32 0)
(1.28211e-31 -3.0583e-32 0)
(1.25281e-31 -4.07813e-32 0)
(0.00335228 -0.0115283 0)
(0.00914589 -0.00966056 0)
(0.0131337 -0.00738235 0)
(0.0155895 -0.00543849 0)
(0.0170109 -0.00405815 0)
(0.0177962 -0.00323111 0)
(0.0181865 -0.00288343 0)
(0.0182969 -0.00293679 0)
(0.0182122 -0.00329086 0)
(0.0182817 -0.00377837 0)
(0.0095286 -0.00216371 0)
(0.000314086 2.57156e-16 0)
(2.58329e-13 7.43677e-33 0)
(1.19691e-31 -2.76091e-33 0)
(1.21871e-31 -1.19593e-32 0)
(1.22788e-31 -2.08201e-32 0)
(1.22161e-31 -2.96249e-32 0)
(1.19549e-31 -3.80297e-32 0)
(0.00380418 -0.0141653 0)
(0.0102145 -0.0116054 0)
(0.0143351 -0.00862283 0)
(0.0166469 -0.00617485 0)
(0.0178267 -0.00448046 0)
(0.0183567 -0.00346594 0)
(0.0185045 -0.00299891 0)
(0.0183861 -0.00296359 0)
(0.0180233 -0.00328081 0)
(0.0172358 -0.00400375 0)
(0.010345 -0.00397104 0)
(0.00199878 -1.8755e-09 0)
(8.92502e-09 -3.33196e-28 0)
(1.23839e-31 -4.5514e-33 0)
(1.16307e-31 -1.29721e-32 0)
(1.17208e-31 -2.09824e-32 0)
(1.16646e-31 -2.86281e-32 0)
(1.14496e-31 -3.56193e-32 0)
(0.00444323 -0.0174185 0)
(0.0116783 -0.0138322 0)
(0.0159031 -0.00990393 0)
(0.0179667 -0.00684097 0)
(0.0188085 -0.00479512 0)
(0.0190152 -0.00358493 0)
(0.0188783 -0.0029978 0)
(0.0185033 -0.00286635 0)
(0.0178511 -0.003076 0)
(0.0165611 -0.00356606 0)
(0.0120864 -0.00351342 0)
(0.00424645 -1.30247e-07 0)
(3.87795e-07 -6.46887e-25 0)
(6.91322e-27 -6.54909e-33 0)
(1.10953e-31 -1.40936e-32 0)
(1.11956e-31 -2.11834e-32 0)
(1.11624e-31 -2.7756e-32 0)
(1.09991e-31 -3.35955e-32 0)
(0.00531865 -0.0211697 0)
(0.0136062 -0.0161593 0)
(0.0178501 -0.0110685 0)
(0.0195252 -0.00733187 0)
(0.0199268 -0.00494095 0)
(0.019753 -0.00355723 0)
(0.0193083 -0.00287038 0)
(0.0186863 -0.00265384 0)
(0.0178402 -0.00273652 0)
(0.0165163 -0.0029156 0)
(0.0136004 -0.00241911 0)
(0.00575952 -1.77933e-06 0)
(1.97867e-06 -3.23061e-22 0)
(4.70174e-23 -8.55397e-33 0)
(1.06309e-31 -1.52649e-32 0)
(1.07486e-31 -2.14951e-32 0)
(1.07449e-31 -2.71485e-32 0)
(1.06297e-31 -3.20767e-32 0)
(0.00654403 -0.026025 0)
(0.0161783 -0.0187393 0)
(0.0202592 -0.0120836 0)
(0.0213301 -0.00757795 0)
(0.0211532 -0.00485543 0)
(0.0205261 -0.00333431 0)
(0.0197434 -0.00258105 0)
(0.0188761 -0.00230653 0)
(0.0178858 -0.00229554 0)
(0.0166458 -0.00229871 0)
(0.0146202 -0.00174952 0)
(0.00665611 -1.6407e-05 0)
(6.75774e-06 -1.84517e-19 0)
(2.64871e-20 -1.06917e-32 0)
(1.01982e-31 -1.66124e-32 0)
(1.03379e-31 -2.20168e-32 0)
(1.03673e-31 -2.68294e-32 0)
(1.02985e-31 -3.09652e-32 0)
(0.00876259 -0.0336797 0)
(0.0205451 -0.0218998 0)
(0.0239492 -0.0128295 0)
(0.0238791 -0.00739248 0)
(0.0227876 -0.00437556 0)
(0.0215207 -0.0027858 0)
(0.0203017 -0.00202559 0)
(0.019148 -0.001743 0)
(0.018018 -0.00170304 0)
(0.0168653 -0.00168864 0)
(0.0154175 -0.00138907 0)
(0.00730971 -0.000102035 0)
(3.13095e-05 -1.69827e-16 0)
(2.67061e-17 -1.33591e-32 0)
(9.74343e-32 -1.84592e-32 0)
(9.9158e-32 -2.29438e-32 0)
(9.98607e-32 -2.68411e-32 0)
(9.96715e-32 -3.01409e-32 0)
(0.0133163 -0.0471956 0)
(0.028699 -0.0250585 0)
(0.029794 -0.0124166 0)
(0.0274553 -0.00616223 0)
(0.0248963 -0.00312058 0)
(0.0227347 -0.00167135 0)
(0.0209622 -0.00104772 0)
(0.0194677 -0.000863776 0)
(0.0181557 -0.000901811 0)
(0.0169644 -0.00102114 0)
(0.0156672 -0.00111472 0)
(0.00764326 -0.000302372 0)
(0.000172751 -5.27984e-14 0)
(7.26886e-14 -1.70953e-32 0)
(9.28482e-32 -2.11602e-32 0)
(9.50767e-32 -2.4542e-32 0)
(9.62586e-32 -2.73946e-32 0)
(9.65739e-32 -2.97747e-32 0)
(0.0244494 -0.0755741 0)
(0.046024 -0.0241302 0)
(0.039084 -0.00825591 0)
(0.032146 -0.00262035 0)
(0.0273369 -0.000459524 0)
(0.0240266 0.000357253 0)
(0.0216137 0.000564861 0)
(0.0197373 0.000475403 0)
(0.0181815 0.000240067 0)
(0.0167847 -7.0125e-05 0)
(0.0152164 -0.00043867 0)
(0.00775786 -0.000280207 0)
(0.000594631 -4.32942e-13 0)
(5.2728e-11 -2.31503e-32 0)
(8.88982e-32 -2.52992e-32 0)
(9.1689e-32 -2.71487e-32 0)
(9.33392e-32 -2.87081e-32 0)
(9.40876e-32 -3.00196e-32 0)
(0.0591889 0.00493982 0)
(0.0902028 0.00685921 0)
(0.0518225 0.00601261 0)
(0.036864 0.00513591 0)
(0.0294186 0.00435646 0)
(0.0249842 0.00366825 0)
(0.0219993 0.00302798 0)
(0.019797 0.00242379 0)
(0.0180377 0.00185829 0)
(0.0164849 0.00134238 0)
(0.0147577 0.000887438 0)
(0.00768731 0.000213854 0)
(0.000795601 -3.80329e-13 0)
(3.41449e-10 -3.21258e-32 0)
(8.76762e-32 -3.11179e-32 0)
(9.02445e-32 -3.07962e-32 0)
(9.20083e-32 -3.07529e-32 0)
(9.29016e-32 -3.08326e-32 0)
(0.0200408 0.0811656 0)
(0.0392523 0.0364563 0)
(0.0354356 0.0205806 0)
(0.02999 0.0135692 0)
(0.0257265 0.00984464 0)
(0.0225812 0.00755096 0)
(0.0202078 0.00595973 0)
(0.0183445 0.00474574 0)
(0.0168271 0.0037462 0)
(0.0155434 0.00286766 0)
(0.0141377 0.00200887 0)
(0.00672046 0.000294541 0)
(5.65482e-05 -1.21313e-17 0)
(6.30733e-16 -3.90753e-32 0)
(9.14294e-32 -3.6029e-32 0)
(9.27228e-32 -3.40076e-32 0)
(9.35498e-32 -3.26041e-32 0)
(9.39424e-32 -3.15832e-32 0)
(0.00743598 0.0464108 0)
(0.0175413 0.0333189 0)
(0.0206263 0.0236356 0)
(0.0206395 0.0173686 0)
(0.0195969 0.0132789 0)
(0.018284 0.0104875 0)
(0.0169639 0.00847363 0)
(0.0156967 0.00692998 0)
(0.0144536 0.00565772 0)
(0.0130854 0.00447226 0)
(0.00890291 0.00245474 0)
(0.00273289 1.55754e-05 0)
(1.50861e-07 3.26875e-18 0)
(1.97142e-28 -4.09553e-32 0)
(9.80613e-32 -3.76594e-32 0)
(9.80074e-32 -3.50025e-32 0)
(9.77976e-32 -3.2873e-32 0)
(9.74245e-32 -3.11552e-32 0)
(0.00390508 0.0313384 0)
(0.0100853 0.0266197 0)
(0.0133956 0.0216263 0)
(0.0147491 0.0174677 0)
(0.0150123 0.014241 0)
(0.0147135 0.0117716 0)
(0.0141242 0.00986155 0)
(0.0133549 0.00834447 0)
(0.0123753 0.00705908 0)
(0.0102099 0.00536748 0)
(0.00430188 0.00129511 0)
(1.62234e-06 2.02854e-09 0)
(3.07556e-23 -4.43707e-32 0)
(1.05658e-31 -4.05508e-32 0)
(1.04958e-31 -3.68847e-32 0)
(1.0404e-31 -3.38673e-32 0)
(1.03017e-31 -3.13852e-32 0)
(1.0194e-31 -2.93358e-32 0)
(0.00258071 0.0246745 0)
(0.00696349 0.0222296 0)
(0.00982637 0.0192214 0)
(0.0114155 0.0163714 0)
(0.0121311 0.0139227 0)
(0.0122945 0.0118974 0)
(0.0121048 0.010236 0)
(0.0116343 0.00883235 0)
(0.0104379 0.00724792 0)
(0.00478037 0.00267892 0)
(7.13884e-06 1.15843e-07 0)
(3.82257e-20 -3.63364e-32 0)
(1.15374e-31 -4.3464e-32 0)
(1.1325e-31 -3.84258e-32 0)
(1.11231e-31 -3.4479e-32 0)
(1.09321e-31 -3.13187e-32 0)
(1.07517e-31 -2.87515e-32 0)
(1.05813e-31 -2.66422e-32 0)
(0.00192151 0.0206088 0)
(0.005311 0.0191243 0)
(0.00775525 0.0171554 0)
(0.00930628 0.015131 0)
(0.0101685 0.0132523 0)
(0.0105418 0.0115889 0)
(0.010541 0.0101174 0)
(0.00992619 0.00852252 0)
(0.00472099 0.0035081 0)
(2.20178e-05 1.29857e-06 0)
(5.75416e-18 1.19092e-20 0)
(1.28251e-31 -4.5131e-32 0)
(1.23568e-31 -3.91314e-32 0)
(1.19809e-31 -3.44619e-32 0)
(1.16622e-31 -3.07649e-32 0)
(1.13834e-31 -2.77946e-32 0)
(1.11349e-31 -2.53787e-32 0)
(1.09104e-31 -2.33925e-32 0)
(0.00154726 0.0178419 0)
(0.0043426 0.0168403 0)
(0.00647291 0.0154775 0)
(0.00791335 0.0139885 0)
(0.00878505 0.0124967 0)
(0.00921124 0.0110591 0)
(0.00905569 0.00947441 0)
(0.00444595 0.00409812 0)
(5.22262e-05 8.33768e-06 0)
(2.91854e-16 3.87587e-18 0)
(1.42463e-31 -4.41306e-32 0)
(1.35264e-31 -3.832e-32 0)
(1.29502e-31 -3.34925e-32 0)
(1.24774e-31 -2.95672e-32 0)
(1.20792e-31 -2.63843e-32 0)
(1.17364e-31 -2.37929e-32 0)
(1.14363e-31 -2.16689e-32 0)
(1.11702e-31 -1.99148e-32 0)
(0.00131183 0.0158154 0)
(0.00373298 0.0150746 0)
(0.00564127 0.0141096 0)
(0.0069489 0.0129874 0)
(0.0077404 0.0117224 0)
(0.00796609 0.0101974 0)
(0.00405202 0.00457219 0)
(9.75562e-05 3.10596e-05 0)
(7.13987e-15 2.80348e-16 0)
(1.57139e-31 -4.11543e-32 0)
(1.47789e-31 -3.60084e-32 0)
(1.40055e-31 -3.14934e-32 0)
(1.33673e-31 -2.76673e-32 0)
(1.2835e-31 -2.44896e-32 0)
(1.23845e-31 -2.18712e-32 0)
(1.19976e-31 -1.97156e-32 0)
(1.16609e-31 -1.79359e-32 0)
(1.13646e-31 -1.64589e-32 0)
(0.00114507 0.0142517 0)
(0.00332441 0.01363 0)
(0.00508299 0.0129613 0)
(0.00622737 0.0120888 0)
(0.00674069 0.0107369 0)
(0.00355631 0.0049602 0)
(0.00013935 7.85535e-05 0)
(7.99137e-14 8.80739e-15 0)
(1.72693e-31 -3.71934e-32 0)
(1.61127e-31 -3.26096e-32 0)
(1.51428e-31 -2.85902e-32 0)
(1.43323e-31 -2.50938e-32 0)
(1.36547e-31 -2.21133e-32 0)
(1.30845e-31 -1.96126e-32 0)
(1.25997e-31 -1.75326e-32 0)
(1.21832e-31 -1.58074e-32 0)
(1.18215e-31 -1.43751e-32 0)
(1.15041e-31 -1.31819e-32 0)
(0.00100332 0.0129938 0)
(0.00302253 0.0123575 0)
(0.00467559 0.0119216 0)
(0.00548734 0.0110108 0)
(0.00296549 0.00522117 0)
(0.000134527 0.000138599 0)
(2.84132e-13 1.2159e-13 0)
(1.89763e-31 -3.24772e-32 0)
(1.75658e-31 -2.84469e-32 0)
(1.63814e-31 -2.49527e-32 0)
(1.53864e-31 -2.19065e-32 0)
(1.45508e-31 -1.92669e-32 0)
(1.38477e-31 -1.7012e-32 0)
(1.32531e-31 -1.51103e-32 0)
(1.27462e-31 -1.35198e-32 0)
(1.23101e-31 -1.21943e-32 0)
(1.19316e-31 -1.10898e-32 0)
(1.16e-31 -1.01671e-32 0)
(0.000848622 0.0119124 0)
(0.00272807 0.011074 0)
(0.00411622 0.0105023 0)
(0.00230321 0.00525098 0)
(6.64362e-05 0.000149284 0)
(1.48778e-13 5.21966e-13 0)
(2.09009e-31 -2.6955e-32 0)
(1.91894e-31 -2.35944e-32 0)
(1.77578e-31 -2.06813e-32 0)
(1.65551e-31 -1.81523e-32 0)
(1.55434e-31 -1.59528e-32 0)
(1.46915e-31 -1.40504e-32 0)
(1.39724e-31 -1.24236e-32 0)
(1.33624e-31 -1.10479e-32 0)
(1.28414e-31 -9.89368e-33 0)
(1.2393e-31 -8.92897e-33 0)
(1.20037e-31 -8.12316e-33 0)
(1.1663e-31 -7.44878e-33 0)
(0.00060772 0.0105328 0)
(0.00183371 0.00808049 0)
(0.00123532 0.00480605 0)
(9.32968e-06 6.81482e-05 0)
(3.09774e-15 3.22528e-13 0)
(2.30921e-31 -2.03145e-32 0)
(2.10374e-31 -1.79734e-32 0)
(1.93175e-31 -1.5772e-32 0)
(1.78741e-31 -1.38385e-32 0)
(1.66604e-31 -1.21562e-32 0)
(1.56385e-31 -1.06943e-32 0)
(1.47767e-31 -9.43084e-33 0)
(1.40479e-31 -8.34993e-33 0)
(1.34287e-31 -7.43454e-33 0)
(1.28994e-31 -6.66509e-33 0)
(1.24435e-31 -6.02089e-33 0)
(1.20477e-31 -5.48203e-33 0)
(1.17014e-31 -5.03056e-33 0)
(8.87335e-06 0.00484754 0)
(8.90214e-06 0.00288053 0)
(2.87889e-08 9.82652e-06 0)
(1.83532e-18 7.3407e-15 0)
(2.5477e-31 -1.19742e-32 0)
(2.31447e-31 -1.13903e-32 0)
(2.11084e-31 -1.01438e-32 0)
(1.9386e-31 -8.92297e-33 0)
(1.79368e-31 -7.84076e-33 0)
(1.67172e-31 -6.89742e-33 0)
(1.56897e-31 -6.0778e-33 0)
(1.48226e-31 -5.36975e-33 0)
(1.40887e-31 -4.76384e-33 0)
(1.34646e-31 -4.25033e-33 0)
(1.29307e-31 -3.81828e-33 0)
(1.24708e-31 -3.45623e-33 0)
(1.20716e-31 -3.15315e-33 0)
(1.17223e-31 -2.89907e-33 0)
(2.95988e-18 1.4028e-05 0)
(2.95988e-18 5.23834e-07 0)
(4.58453e-25 3.23851e-18 0)
(2.74076e-31 -2.52348e-33 0)
(2.54379e-31 -3.85769e-33 0)
(2.31633e-31 -3.71713e-33 0)
(2.11365e-31 -3.3312e-33 0)
(1.94136e-31 -2.94551e-33 0)
(1.79622e-31 -2.60209e-33 0)
(1.67403e-31 -2.30247e-33 0)
(1.57105e-31 -2.04216e-33 0)
(1.48412e-31 -1.81731e-33 0)
(1.41052e-31 -1.62488e-33 0)
(1.34791e-31 -1.46175e-33 0)
(1.29435e-31 -1.32444e-33 0)
(1.24819e-31 -1.20933e-33 0)
(1.20813e-31 -1.11294e-33 0)
(1.17308e-31 -1.03211e-33 0)
(6.00335e-34 -1.44483e-33 -1.86669e-59)
(1.80577e-33 -1.44278e-33 1.86262e-59)
(3.01843e-33 -1.4392e-33 0)
(4.23688e-33 -1.43408e-33 0)
(5.45967e-33 -1.42741e-33 0)
(6.68528e-33 -1.4192e-33 -1.82638e-59)
(7.91218e-33 -1.40946e-33 0)
(9.13881e-33 -1.39822e-33 0)
(1.03636e-32 -1.38551e-33 0)
(1.1585e-32 -1.37136e-33 0)
(1.28014e-32 -1.35584e-33 1.73727e-59)
(1.40114e-32 -1.339e-33 0)
(1.52134e-32 -1.32091e-33 0)
(1.64059e-32 -1.30165e-33 0)
(1.75875e-32 -1.28129e-33 0)
(1.87569e-32 -1.25992e-33 1.60627e-59)
(1.99127e-32 -1.23763e-33 0)
(2.10538e-32 -1.21452e-33 0)
(2.21789e-32 -1.19067e-33 0)
(2.3287e-32 -1.16618e-33 0)
(2.4377e-32 -1.14115e-33 0)
(2.54481e-32 -1.11568e-33 0)
(2.64994e-32 -1.08984e-33 0)
(2.75302e-32 -1.06375e-33 1.34236e-59)
(2.85398e-32 -1.03747e-33 -1.30721e-59)
(2.95276e-32 -1.0111e-33 1.27196e-59)
(3.04932e-32 -9.84713e-34 1.23672e-59)
(3.14361e-32 -9.58386e-34 0)
(3.2356e-32 -9.32188e-34 0)
(3.32526e-32 -9.06184e-34 -1.13196e-59)
(3.41259e-32 -8.80433e-34 -1.09765e-59)
(3.49756e-32 -8.54991e-34 0)
(3.58017e-32 -8.29905e-34 0)
(3.66043e-32 -8.05221e-34 -9.97513e-60)
(3.73833e-32 -7.80977e-34 0)
(3.8139e-32 -7.57208e-34 0)
(3.88716e-32 -7.33944e-34 9.02713e-60)
(3.95811e-32 -7.11209e-34 0)
(4.02679e-32 -6.89025e-34 8.43008e-60)
(4.09323e-32 -6.67408e-34 1.62857e-59)
(4.15746e-32 -6.46374e-34 0)
(4.21952e-32 -6.25931e-34 0)
(4.27944e-32 -6.06086e-34 0)
(4.33726e-32 -5.86845e-34 0)
(4.39303e-32 -5.68209e-34 0)
(4.44679e-32 -5.50176e-34 1.31719e-59)
(4.49858e-32 -5.32745e-34 1.27091e-59)
(4.54845e-32 -5.15911e-34 1.22621e-59)
(4.59645e-32 -4.99668e-34 0)
(4.64262e-32 -4.84008e-34 -1.14152e-59)
(4.68701e-32 -4.68922e-34 0)
(4.72967e-32 -4.544e-34 1.06293e-59)
(4.77064e-32 -4.40431e-34 1.02585e-59)
(4.80999e-32 -4.27004e-34 0)
(4.84774e-32 -4.14107e-34 0)
(4.88396e-32 -4.01726e-34 0)
(4.91868e-32 -3.89849e-34 8.9161e-60)
(4.95196e-32 -3.78461e-34 0)
(4.98383e-32 -3.6755e-34 0)
(5.01436e-32 -3.571e-34 0)
(5.04357e-32 -3.47099e-34 0)
(5.07152e-32 -3.37532e-34 0)
(5.09824e-32 -3.28386e-34 0)
(5.12379e-32 -3.19645e-34 0)
(5.14819e-32 -3.11297e-34 0)
(5.1715e-32 -3.03328e-34 -6.61989e-60)
(5.19375e-32 -2.95725e-34 0)
(5.21498e-32 -2.88474e-34 0)
(5.23523e-32 -2.81562e-34 6.0422e-60)
(5.25454e-32 -2.74976e-34 5.8674e-60)
(5.27294e-32 -2.68705e-34 0)
(5.29046e-32 -2.62736e-34 -5.54254e-60)
(5.30715e-32 -2.57057e-34 5.39179e-60)
(5.32303e-32 -2.51657e-34 0)
(5.33813e-32 -2.46524e-34 -5.11219e-60)
(5.35249e-32 -2.41647e-34 0)
(5.36615e-32 -2.37017e-34 0)
(5.37911e-32 -2.32621e-34 4.74315e-60)
(5.39143e-32 -2.28451e-34 0)
(5.40312e-32 -2.24497e-34 -4.52748e-60)
(5.4142e-32 -2.20749e-34 0)
(5.42472e-32 -2.17198e-34 4.3337e-60)
(5.43468e-32 -2.13836e-34 4.24444e-60)
(5.44413e-32 -2.10654e-34 4.15996e-60)
(5.45307e-32 -2.07644e-34 8.16008e-60)
(5.46153e-32 -2.04797e-34 -8.0089e-60)
(5.46953e-32 -2.02107e-34 0)
(5.4771e-32 -1.99566e-34 0)
(5.48425e-32 -1.97167e-34 0)
(5.49101e-32 -1.94903e-34 -7.48346e-60)
(5.49739e-32 -1.92767e-34 -7.37003e-60)
(5.50341e-32 -1.90754e-34 7.26311e-60)
(5.50909e-32 -1.88857e-34 0)
(5.51444e-32 -1.8707e-34 -7.06746e-60)
(5.51949e-32 -1.85388e-34 -6.97811e-60)
(5.52424e-32 -1.83806e-34 -6.89407e-60)
(5.52871e-32 -1.82318e-34 0)
(5.53292e-32 -1.8092e-34 0)
(5.53687e-32 -1.79607e-34 0)
(5.54059e-32 -1.78374e-34 -6.60551e-60)
(5.54408e-32 -1.77217e-34 0)
(5.54736e-32 -1.76132e-34 0)
(5.55044e-32 -1.75115e-34 6.43242e-60)
(5.55332e-32 -1.74163e-34 0)
(5.55602e-32 -1.73271e-34 0)
(5.55855e-32 -1.72437e-34 6.29009e-60)
(5.56092e-32 -1.71656e-34 0)
(5.56314e-32 -1.70927e-34 0)
(5.56522e-32 -1.70246e-34 -6.17369e-60)
(5.56715e-32 -1.6961e-34 -6.1399e-60)
(5.56896e-32 -1.69017e-34 0)
(5.57065e-32 -1.68463e-34 6.07895e-60)
(5.57223e-32 -1.67948e-34 0)
(5.5737e-32 -1.67468e-34 -6.02606e-60)
(5.57507e-32 -1.67021e-34 0)
(5.57634e-32 -1.66605e-34 -5.9802e-60)
(5.57753e-32 -1.66219e-34 -5.95969e-60)
(5.57864e-32 -1.6586e-34 0)
(5.57966e-32 -1.65527e-34 0)
(5.58061e-32 -1.65217e-34 0)
(5.5815e-32 -1.64931e-34 0)
(5.58232e-32 -1.64665e-34 0)
(5.58308e-32 -1.64419e-34 0)
(5.58379e-32 -1.64191e-34 0)
(5.58444e-32 -1.6398e-34 -5.84067e-60)
(5.58504e-32 -1.63785e-34 5.83034e-60)
(5.5856e-32 -1.63606e-34 0)
(5.58612e-32 -1.63439e-34 0)
(5.58659e-32 -1.63286e-34 0)
(5.58703e-32 -1.63145e-34 0)
(5.58744e-32 -1.63015e-34 1.15787e-59)
(5.58781e-32 -1.62895e-34 0)
(5.58816e-32 -1.62784e-34 -1.15542e-59)
(5.58847e-32 -1.62682e-34 1.15434e-59)
(5.58876e-32 -1.62589e-34 0)
(5.58903e-32 -1.62503e-34 0)
(5.58927e-32 -1.62423e-34 0)
(5.5895e-32 -1.6235e-34 -1.1508e-59)
(5.5897e-32 -1.62283e-34 -1.15009e-59)
(5.58989e-32 -1.62221e-34 0)
(5.59006e-32 -1.62163e-34 -1.14882e-59)
(5.59021e-32 -1.62109e-34 -1.14825e-59)
(5.59035e-32 -1.6206e-34 1.14772e-59)
(5.59047e-32 -1.62013e-34 0)
(5.59058e-32 -1.61969e-34 0)
(5.59068e-32 -1.61926e-34 1.14631e-59)
(5.59077e-32 -1.61885e-34 0)
(5.59084e-32 -1.61845e-34 0)
(5.5909e-32 -1.61805e-34 0)
(5.59095e-32 -1.61763e-34 0)
(5.59098e-32 -1.6172e-34 -1.14415e-59)
(5.591e-32 -1.61673e-34 -1.14366e-59)
(5.591e-32 -1.61622e-34 0)
(5.59098e-32 -1.61563e-34 -1.14253e-59)
(5.59094e-32 -1.61496e-34 0)
(5.59088e-32 -1.61418e-34 0)
(5.59078e-32 -1.61323e-34 -1.14007e-59)
(5.59064e-32 -1.61209e-34 0)
(5.59046e-32 -1.6107e-34 -1.13747e-59)
(5.59022e-32 -1.60898e-34 0)
(5.5899e-32 -1.60683e-34 0)
(5.58949e-32 -1.60415e-34 -1.13079e-59)
(5.58896e-32 -1.60077e-34 0)
(5.58827e-32 -1.59649e-34 -1.12299e-59)
(5.5874e-32 -1.59104e-34 0)
(5.58627e-32 -1.58408e-34 0)
(5.58482e-32 -1.57513e-34 0)
(5.58295e-32 -1.56356e-34 1.08945e-59)
(5.58052e-32 -1.54849e-34 0)
(5.57736e-32 -1.52871e-34 -1.05394e-59)
(5.57323e-32 -1.50246e-34 0)
(5.56779e-32 -1.46718e-34 0)
(5.56055e-32 -1.41893e-34 0)
(5.5508e-32 -1.35142e-34 0)
(5.53745e-32 -1.25391e-34 0)
(5.51869e-32 -1.10646e-34 0)
(5.49137e-32 -8.67402e-35 0)
(5.44902e-32 -4.33419e-35 -1.32891e-60)
(5.37538e-32 5.26757e-35 0)
(5.21217e-32 3.53747e-34 0)
(6.03521e-34 -4.01803e-33 5.19103e-59)
(1.81533e-33 -4.01181e-33 -5.1787e-59)
(3.03434e-33 -4.00099e-33 0)
(4.25909e-33 -3.98549e-33 1.02821e-58)
(5.48808e-33 -3.96533e-33 0)
(6.71975e-33 -3.94049e-33 -5.08503e-59)
(7.95254e-33 -3.91103e-33 -1.00722e-58)
(9.18485e-33 -3.87703e-33 -9.9785e-59)
(1.04151e-32 -3.83858e-33 0)
(1.16416e-32 -3.79582e-33 -9.75697e-59)
(1.28629e-32 -3.7489e-33 4.83016e-59)
(1.40774e-32 -3.69802e-33 0)
(1.52835e-32 -3.64337e-33 0)
(1.64799e-32 -3.58519e-33 0)
(1.76649e-32 -3.52372e-33 0)
(1.88373e-32 -3.45922e-33 4.4487e-59)
(1.99958e-32 -3.39197e-33 0)
(2.11391e-32 -3.32224e-33 8.48797e-59)
(2.22661e-32 -3.25033e-33 0)
(2.33756e-32 -3.17651e-33 0)
(2.44668e-32 -3.10108e-33 -7.90057e-59)
(2.55386e-32 -3.02433e-33 0)
(2.65903e-32 -2.94653e-33 7.49104e-59)
(2.76211e-32 -2.86796e-33 3.67414e-59)
(2.86305e-32 -2.78887e-33 -3.57073e-59)
(2.96178e-32 -2.70952e-33 3.46701e-59)
(3.05826e-32 -2.63015e-33 3.36329e-59)
(3.15245e-32 -2.55098e-33 0)
(3.24431e-32 -2.47222e-33 0)
(3.33384e-32 -2.39406e-33 -3.05489e-59)
(3.421e-32 -2.31668e-33 -8.78079e-59)
(3.50579e-32 -2.24025e-33 0)
(3.58822e-32 -2.1649e-33 0)
(3.66827e-32 -2.09078e-33 -2.65897e-59)
(3.74597e-32 -2.01799e-33 0)
(3.82133e-32 -1.94665e-33 0)
(3.89436e-32 -1.87683e-33 2.37977e-59)
(3.96508e-32 -1.80861e-33 0)
(4.03354e-32 -1.74205e-33 6.51656e-59)
(4.09975e-32 -1.67721e-33 4.23869e-59)
(4.16375e-32 -1.61412e-33 0)
(4.22557e-32 -1.55281e-33 0)
(4.28526e-32 -1.49331e-33 -7.31551e-59)
(4.34286e-32 -1.43561e-33 -7.01181e-59)
(4.3984e-32 -1.37974e-33 -6.71772e-59)
(4.45194e-32 -1.32569e-33 9.75491e-59)
(4.50352e-32 -1.27344e-33 3.18544e-59)
(4.55318e-32 -1.22298e-33 -2.83883e-59)
(4.60097e-32 -1.1743e-33 5.63648e-59)
(4.64694e-32 -1.12737e-33 -2.80447e-59)
(4.69113e-32 -1.08216e-33 0)
(4.7336e-32 -1.03865e-33 2.57308e-59)
(4.7744e-32 -9.96792e-34 7.16633e-59)
(4.81356e-32 -9.56562e-34 0)
(4.85115e-32 -9.17919e-34 0)
(4.8872e-32 -8.80826e-34 0)
(4.92176e-32 -8.45242e-34 2.0687e-59)
(4.95489e-32 -8.11126e-34 0)
(4.98662e-32 -7.78438e-34 3.5535e-59)
(5.017e-32 -7.47135e-34 0)
(5.04608e-32 -7.17174e-34 3.23116e-59)
(5.07389e-32 -6.88516e-34 0)
(5.1005e-32 -6.61116e-34 -2.93621e-59)
(5.12592e-32 -6.34933e-34 0)
(5.15021e-32 -6.09927e-34 2.66687e-59)
(5.17341e-32 -5.86056e-34 -3.93405e-59)
(5.19556e-32 -5.6328e-34 0)
(5.21669e-32 -5.41559e-34 -2.30714e-59)
(5.23685e-32 -5.20855e-34 1.22274e-59)
(5.25607e-32 -5.0113e-34 1.1713e-59)
(5.27438e-32 -4.82345e-34 0)
(5.29182e-32 -4.64465e-34 -2.97716e-59)
(5.30843e-32 -4.47455e-34 1.03131e-59)
(5.32423e-32 -4.31279e-34 0)
(5.33927e-32 -4.15904e-34 -9.49028e-60)
(5.35357e-32 -4.01296e-34 -1.56907e-59)
(5.36716e-32 -3.87425e-34 0)
(5.38006e-32 -3.74259e-34 8.40418e-60)
(5.39232e-32 -3.61768e-34 0)
(5.40396e-32 -3.49924e-34 5.21778e-60)
(5.41499e-32 -3.38697e-34 0)
(5.42546e-32 -3.28062e-34 -4.63744e-60)
(5.43538e-32 -3.17991e-34 6.9366e-60)
(5.44478e-32 -3.08459e-34 1.7493e-59)
(5.45368e-32 -2.99441e-34 3.35665e-59)
(5.4621e-32 -2.90915e-34 -3.22241e-59)
(5.47007e-32 -2.82857e-34 0)
(5.4776e-32 -2.75245e-34 0)
(5.48472e-32 -2.68058e-34 0)
(5.49145e-32 -2.61276e-34 5.72863e-60)
(5.4978e-32 -2.54878e-34 -1.05809e-59)
(5.5038e-32 -2.48847e-34 1.02663e-59)
(5.50945e-32 -2.43165e-34 0)
(5.51478e-32 -2.37813e-34 -2.38639e-59)
(5.5198e-32 -2.32775e-34 -9.42781e-60)
(5.52453e-32 -2.28036e-34 -9.18056e-60)
(5.52898e-32 -2.23579e-34 0)
(5.53317e-32 -2.19391e-34 0)
(5.53711e-32 -2.15457e-34 0)
(5.54081e-32 -2.11763e-34 -8.33161e-60)
(5.54429e-32 -2.08298e-34 0)
(5.54755e-32 -2.05048e-34 -1.07236e-59)
(5.55061e-32 -2.02002e-34 -2.58048e-60)
(5.55348e-32 -1.99149e-34 1.01023e-59)
(5.55617e-32 -1.96477e-34 0)
(5.55869e-32 -1.93978e-34 1.69615e-59)
(5.56105e-32 -1.9164e-34 0)
(5.56326e-32 -1.89455e-34 9.08162e-60)
(5.56533e-32 -1.87415e-34 -1.5928e-59)
(5.56726e-32 -1.8551e-34 -1.56279e-59)
(5.56906e-32 -1.83732e-34 0)
(5.57074e-32 -1.82075e-34 -1.52178e-60)
(5.57231e-32 -1.80531e-34 8.14178e-60)
(5.57378e-32 -1.79092e-34 -6.627e-60)
(5.57514e-32 -1.77754e-34 0)
(5.57641e-32 -1.76508e-34 -6.49216e-60)
(5.57759e-32 -1.75351e-34 1.1644e-60)
(5.57869e-32 -1.74275e-34 0)
(5.57971e-32 -1.73277e-34 7.37778e-60)
(5.58066e-32 -1.72351e-34 7.28018e-60)
(5.58154e-32 -1.71492e-34 7.18969e-60)
(5.58236e-32 -1.70695e-34 0)
(5.58312e-32 -1.69958e-34 0)
(5.58382e-32 -1.69276e-34 0)
(5.58447e-32 -1.68645e-34 -1.29716e-59)
(5.58507e-32 -1.68061e-34 6.05138e-60)
(5.58563e-32 -1.67522e-34 0)
(5.58614e-32 -1.67025e-34 -6.71915e-60)
(5.58661e-32 -1.66565e-34 -6.67077e-60)
(5.58705e-32 -1.66142e-34 0)
(5.58746e-32 -1.65752e-34 1.18617e-59)
(5.58783e-32 -1.65392e-34 -1.30943e-59)
(5.58817e-32 -1.65061e-34 -1.17896e-59)
(5.58848e-32 -1.64756e-34 2.47182e-59)
(5.58877e-32 -1.64476e-34 0)
(5.58904e-32 -1.64218e-34 0)
(5.58928e-32 -1.6398e-34 0)
(5.5895e-32 -1.63761e-34 -1.16539e-59)
(5.58971e-32 -1.63559e-34 -2.4341e-59)
(5.58989e-32 -1.63373e-34 -1.26689e-59)
(5.59006e-32 -1.632e-34 -1.15954e-59)
(5.59022e-32 -1.6304e-34 -2.41777e-59)
(5.59035e-32 -1.62891e-34 1.15631e-59)
(5.59048e-32 -1.62751e-34 0)
(5.59059e-32 -1.62618e-34 0)
(5.59069e-32 -1.62492e-34 2.40053e-59)
(5.59077e-32 -1.62369e-34 0)
(5.59085e-32 -1.62249e-34 0)
(5.59091e-32 -1.62128e-34 -1.24076e-59)
(5.59095e-32 -1.62004e-34 0)
(5.59099e-32 -1.61874e-34 -2.38123e-59)
(5.59101e-32 -1.61734e-34 -1.1443e-59)
(5.59101e-32 -1.6158e-34 0)
(5.59099e-32 -1.61407e-34 -2.36673e-59)
(5.59095e-32 -1.61206e-34 0)
(5.59089e-32 -1.60971e-34 0)
(5.59079e-32 -1.60689e-34 -1.13351e-59)
(5.59066e-32 -1.60349e-34 -1.20407e-59)
(5.59048e-32 -1.59932e-34 -1.12571e-59)
(5.59024e-32 -1.59418e-34 0)
(5.58992e-32 -1.58778e-34 0)
(5.58952e-32 -1.57977e-34 -2.26103e-59)
(5.589e-32 -1.56967e-34 0)
(5.58833e-32 -1.5569e-34 -2.19066e-59)
(5.58746e-32 -1.54065e-34 0)
(5.58635e-32 -1.51988e-34 0)
(5.58492e-32 -1.49319e-34 0)
(5.58308e-32 -1.45868e-34 9.80989e-60)
(5.58069e-32 -1.41376e-34 0)
(5.57759e-32 -1.3548e-34 -8.74096e-60)
(5.57353e-32 -1.27662e-34 0)
(5.56819e-32 -1.17163e-34 0)
(5.56111e-32 -1.02825e-34 -2.5674e-61)
(5.55159e-32 -8.28019e-35 -3.848e-60)
(5.5386e-32 -5.39689e-35 0)
(5.52049e-32 -1.05997e-35 0)
(5.49446e-32 5.89918e-35 0)
(5.45536e-32 1.82462e-34 6.86433e-59)
(5.39322e-32 4.40017e-34 0)
(5.29518e-32 1.13384e-33 -5.08949e-58)
(6.09979e-34 -6.61184e-33 3.41751e-58)
(1.83471e-33 -6.60131e-33 -4.36708e-62)
(3.06659e-33 -6.58296e-33 0)
(4.3041e-33 -6.5567e-33 1.01969e-61)
(5.54564e-33 -6.52251e-33 0)
(6.78958e-33 -6.48042e-33 0)
(8.03428e-33 -6.43051e-33 -3.315e-58)
(9.27806e-33 -6.37291e-33 -1.64298e-58)
(1.05193e-32 -6.3078e-33 1.62307e-58)
(1.17562e-32 -6.23542e-33 -1.60627e-58)
(1.29873e-32 -6.15605e-33 0)
(1.42109e-32 -6.07e-33 0)
(1.54254e-32 -5.97764e-33 -1.53425e-58)
(1.66293e-32 -5.87936e-33 -3.01599e-58)
(1.78212e-32 -5.77559e-33 2.96065e-58)
(1.89997e-32 -5.66677e-33 0)
(2.01634e-32 -5.55337e-33 2.84245e-58)
(2.13111e-32 -5.43587e-33 1.39508e-58)
(2.24418e-32 -5.31477e-33 0)
(2.35542e-32 -5.19054e-33 2.65007e-58)
(2.46475e-32 -5.06369e-33 -1.29729e-58)
(2.57207e-32 -4.93469e-33 -2.51473e-58)
(2.67731e-32 -4.80401e-33 1.22916e-58)
(2.7804e-32 -4.67212e-33 0)
(2.88128e-32 -4.53944e-33 2.30601e-58)
(2.9799e-32 -4.40641e-33 2.23584e-58)
(3.07621e-32 -4.27342e-33 0)
(3.17019e-32 -4.14083e-33 2.09584e-58)
(3.2618e-32 -4.009e-33 0)
(3.35103e-32 -3.87825e-33 1.95753e-58)
(3.43786e-32 -3.74888e-33 -9.52827e-59)
(3.5223e-32 -3.62113e-33 0)
(3.60434e-32 -3.49527e-33 0)
(3.68399e-32 -3.3715e-33 0)
(3.76126e-32 -3.25002e-33 0)
(3.83618e-32 -3.13098e-33 0)
(3.90876e-32 -3.01452e-33 0)
(3.97903e-32 -2.90078e-33 1.4433e-58)
(4.04702e-32 -2.78984e-33 -6.82935e-59)
(4.11277e-32 -2.6818e-33 0)
(4.1763e-32 -2.5767e-33 0)
(4.23767e-32 -2.47459e-33 0)
(4.2969e-32 -2.37551e-33 -2.35477e-58)
(4.35404e-32 -2.27947e-33 -1.13734e-58)
(4.40914e-32 -2.18648e-33 -2.08217e-60)
(4.46223e-32 -2.09653e-33 2.10722e-60)
(4.51338e-32 -2.00959e-33 -9.74997e-59)
(4.56262e-32 -1.92566e-33 -9.52452e-59)
(4.61e-32 -1.84468e-33 1.79851e-58)
(4.65557e-32 -1.76663e-33 8.47374e-59)
(4.69937e-32 -1.69145e-33 0)
(4.74147e-32 -1.6191e-33 7.69884e-59)
(4.78189e-32 -1.54951e-33 1.48925e-58)
(4.82071e-32 -1.48263e-33 0)
(4.85795e-32 -1.41839e-33 0)
(4.89367e-32 -1.35673e-33 -6.32089e-59)
(4.92792e-32 -1.29758e-33 0)
(4.96074e-32 -1.24088e-33 0)
(4.99217e-32 -1.18655e-33 1.65172e-58)
(5.02227e-32 -1.13453e-33 1.03079e-58)
(5.05108e-32 -1.08474e-33 5.13097e-59)
(5.07864e-32 -1.03712e-33 0)
(5.10499e-32 -9.91585e-34 -4.64427e-59)
(5.13018e-32 -9.48077e-34 0)
(5.15425e-32 -9.06525e-34 1.21128e-58)
(5.17723e-32 -8.6686e-34 -3.99263e-59)
(5.19917e-32 -8.29015e-34 -7.0988e-59)
(5.22011e-32 -7.92924e-34 -1.0326e-58)
(5.24008e-32 -7.58522e-34 0)
(5.25911e-32 -7.25747e-34 6.01405e-59)
(5.27725e-32 -6.94535e-34 0)
(5.29453e-32 -6.64827e-34 2.43706e-59)