/*--------------------------------*- C++ -*----------------------------------*\
  =========                 |
  \\      /  F ield         | OpenFOAM: The Open Source CFD Toolbox
   \\    /   O peration     | Website:  https://openfoam.org
    \\  /    A nd           | Version:  10
     \\/     M anipulation  |
\*---------------------------------------------------------------------------*/
FoamFile
{
    format      ascii;
    class       surfaceScalarField;
    location    "9750";
    object      phi;
}
// * * * * * * * * * * * * * * * * * * * * * * * * * * * * * * * * * * * * * //

dimensions      [0 3 -1 0 0 0 0];

internalField   nonuniform List<scalar> 
6280
(
-1.463e-07
1.463e-07
-2.90951e-07
1.44651e-07
-4.34855e-07
1.43903e-07
-5.78865e-07
1.4401e-07
-7.23814e-07
1.44949e-07
-8.7053e-07
1.46716e-07
-1.01986e-06
1.49331e-07
-1.17269e-06
1.52832e-07
-1.32997e-06
1.5728e-07
-1.49273e-06
1.62761e-07
-1.66213e-06
1.69392e-07
-1.83945e-06
1.77321e-07
-2.02619e-06
1.86743e-07
-2.2241e-06
1.97907e-07
-2.43523e-06
2.11135e-07
-2.66208e-06
2.26844e-07
-2.90766e-06
2.4558e-07
-3.17572e-06
2.68064e-07
-3.47099e-06
2.95266e-07
-3.7995e-06
3.28511e-07
-4.16913e-06
3.69635e-07
-4.59037e-06
4.21238e-07
-5.07744e-06
4.87074e-07
-5.65012e-06
5.72673e-07
-6.33648e-06
6.86362e-07
-7.17741e-06
8.40929e-07
-8.23381e-06
1.0564e-06
-9.59852e-06
1.36471e-06
-1.14161e-05
1.81757e-06
-1.3916e-05
2.49991e-06
-1.74688e-05
3.55281e-06
-2.26815e-05
5.21267e-06
-3.0557e-05
7.87552e-06
-3.58428e-05
5.28582e-06
-3.62425e-05
3.99649e-07
-3.65462e-05
3.03702e-07
-3.68023e-05
2.56104e-07
-3.70123e-05
2.09994e-07
-3.50316e-05
-1.98065e-06
-2.14246e-05
-1.3607e-05
-1.44312e-07
2.90612e-07
-2.86956e-07
2.87295e-07
-4.28779e-07
2.85727e-07
-5.70584e-07
2.85815e-07
-7.13145e-07
2.8751e-07
-8.57228e-07
2.90798e-07
-1.00361e-06
2.95708e-07
-1.15308e-06
3.02303e-07
-1.30648e-06
3.10685e-07
-1.46472e-06
3.21001e-07
-1.62877e-06
3.33443e-07
-1.79972e-06
3.48265e-07
-1.97876e-06
3.65786e-07
-2.16727e-06
3.86413e-07
-2.36678e-06
4.10654e-07
-2.57909e-06
4.39154e-07
-2.80624e-06
4.72728e-07
-3.05059e-06
5.1241e-07
-3.31484e-06
5.5952e-07
-3.60208e-06
6.1575e-07
-3.91572e-06
6.83274e-07
-4.25937e-06
7.64894e-07
-4.63651e-06
8.64207e-07
-5.04964e-06
9.85805e-07
-5.49872e-06
1.13544e-06
-5.97792e-06
1.32013e-06
-6.46939e-06
1.54787e-06
-6.93147e-06
1.82678e-06
-7.27646e-06
2.16256e-06
-7.3294e-06
2.55285e-06
-6.752e-06
2.97541e-06
-4.90359e-06
3.36426e-06
-5.91526e-07
3.56346e-06
1.4545e-06
3.2398e-06
-8.67211e-07
2.72136e-06
-3.13322e-06
2.56971e-06
-5.60669e-06
2.72958e-06
-8.61279e-06
3.2161e-06
-1.18874e-05
1.29391e-06
-3.15205e-05
-1.79139e-06
-1.40453e-07
4.31065e-07
-2.79203e-07
4.26045e-07
-4.17001e-07
4.23525e-07
-5.5455e-07
4.23364e-07
-6.92519e-07
4.25479e-07
-8.31559e-07
4.29839e-07
-9.72313e-07
4.36462e-07
-1.11542e-06
4.45413e-07
-1.26154e-06
4.56806e-07
-1.41135e-06
4.70803e-07
-1.56552e-06
4.87623e-07
-1.7248e-06
5.07545e-07
-1.88994e-06
5.30919e-07
-2.0617e-06
5.58177e-07
-2.24089e-06
5.89843e-07
-2.42829e-06
6.26554e-07
-2.62464e-06
6.69078e-07
-2.83056e-06
7.18331e-07
-3.04645e-06
7.75404e-07
-3.27227e-06
8.41576e-07
-3.50732e-06
9.18327e-07
-3.74976e-06
1.00733e-06
-3.99593e-06
1.11038e-06
-4.23945e-06
1.22933e-06
-4.46981e-06
1.3658e-06
-4.67052e-06
1.52083e-06
-4.81688e-06
1.69424e-06
-4.87369e-06
1.88359e-06
-4.79402e-06
2.08289e-06
-4.5221e-06
2.28093e-06
-4.0065e-06
2.45981e-06
-3.23731e-06
2.59507e-06
-2.33431e-06
2.66046e-06
-1.73907e-06
2.64456e-06
-1.61107e-06
2.59335e-06
-1.60864e-06
2.56728e-06
-1.45714e-06
2.57808e-06
-8.46733e-07
2.60569e-06
-1.0337e-06
1.48088e-06
-3.29977e-05
4.43469e-07
-1.3494e-07
5.66005e-07
-2.68139e-07
5.59243e-07
-4.00214e-07
5.55601e-07
-5.31739e-07
5.54889e-07
-6.63247e-07
5.56987e-07
-7.95241e-07
5.61833e-07
-9.28199e-07
5.6942e-07
-1.06257e-06
5.79788e-07
-1.1988e-06
5.93029e-07
-1.33728e-06
6.09282e-07
-1.47839e-06
6.28735e-07
-1.62247e-06
6.51628e-07
-1.76981e-06
6.78257e-07
-1.9206e-06
7.08972e-07
-2.07495e-06
7.44186e-07
-2.23277e-06
7.84372e-07
-2.39375e-06
8.30063e-07
-2.55727e-06
8.81848e-07
-2.72222e-06
9.40358e-07
-2.88689e-06
1.00624e-06
-3.0487e-06
1.08013e-06
-3.20394e-06
1.16257e-06
-3.34747e-06
1.25391e-06
-3.47234e-06
1.3542e-06
-3.56953e-06
1.46299e-06
-3.62777e-06
1.57908e-06
-3.63385e-06
1.70031e-06
-3.57353e-06
1.82327e-06
-3.43378e-06
1.94315e-06
-3.20669e-06
2.05384e-06
-2.89537e-06
2.14849e-06
-2.52103e-06
2.22073e-06
-2.12741e-06
2.26683e-06
-1.77107e-06
2.28822e-06
-1.47044e-06
2.29272e-06
-1.19222e-06
2.28906e-06
-8.94795e-07
2.28066e-06
-5.54623e-07
2.26551e-06
-3.94991e-07
1.32125e-06
-3.37584e-05
3.65674e-07
-1.28068e-07
6.94073e-07
-2.54359e-07
6.85534e-07
-3.79343e-07
6.80585e-07
-5.03446e-07
6.78992e-07
-6.27054e-07
6.80594e-07
-7.5051e-07
6.8529e-07
-8.74119e-07
6.93029e-07
-9.98145e-07
7.03813e-07
-1.1228e-06
7.17685e-07
-1.24825e-06
7.34727e-07
-1.37457e-06
7.55063e-07
-1.5018e-06
7.7885e-07
-1.62982e-06
8.06279e-07
-1.75841e-06
8.37568e-07
-1.88719e-06
8.7296e-07
-2.01553e-06
9.12713e-07
-2.14256e-06
9.5709e-07
-2.26705e-06
1.00634e-06
-2.38736e-06
1.06067e-06
-2.50135e-06
1.12023e-06
-2.60626e-06
1.18505e-06
-2.69869e-06
1.255e-06
-2.7745e-06
1.32972e-06
-2.82886e-06
1.40856e-06
-2.85639e-06
1.49051e-06
-2.85142e-06
1.57411e-06
-2.80857e-06
1.65745e-06
-2.72349e-06
1.73819e-06
-2.59397e-06
1.81363e-06
-2.42113e-06
1.881e-06
-2.21037e-06
1.93773e-06
-1.97162e-06
1.98198e-06
-1.71778e-06
2.01299e-06
-1.46092e-06
2.03137e-06
-1.20698e-06
2.03877e-06
-9.55011e-07
2.0371e-06
-7.01983e-07
2.02763e-06
-4.47416e-07
2.01095e-06
-2.6295e-07
1.13678e-06
-3.4371e-05
3.49669e-07
-1.20169e-07
8.14242e-07
-2.38541e-07
8.03905e-07
-3.55433e-07
7.97477e-07
-4.71126e-07
7.94685e-07
-5.85857e-07
7.95326e-07
-6.99822e-07
7.99254e-07
-8.13165e-07
8.06373e-07
-9.25982e-07
8.1663e-07
-1.0383e-06
8.30006e-07
-1.15009e-06
8.46516e-07
-1.26123e-06
8.66199e-07
-1.37149e-06
8.89113e-07
-1.48055e-06
9.15332e-07
-1.58791e-06
9.44936e-07
-1.69296e-06
9.78001e-07
-1.79483e-06
1.01459e-06
-1.89249e-06
1.05475e-06
-1.98461e-06
1.09846e-06
-2.06959e-06
1.14565e-06
-2.14553e-06
1.19617e-06
-2.21022e-06
1.24974e-06
-2.26118e-06
1.30596e-06
-2.29569e-06
1.36423e-06
-2.31094e-06
1.42381e-06
-2.30416e-06
1.48373e-06
-2.27288e-06
1.54284e-06
-2.21525e-06
1.59982e-06
-2.13033e-06
1.65327e-06
-2.01847e-06
1.70177e-06
-1.88149e-06
1.74401e-06
-1.7227e-06
1.77894e-06
-1.54659e-06
1.80587e-06
-1.35815e-06
1.82455e-06
-1.16195e-06
1.83516e-06
-9.61399e-07
1.83823e-06
-7.58688e-07
1.83439e-06
-5.55348e-07
1.82429e-06
-3.52898e-07
1.8085e-06
-1.9865e-07
9.82532e-07
-3.49236e-05
3.53927e-07
-1.11588e-07
9.2583e-07
-2.21378e-07
9.13696e-07
-3.29547e-07
9.05647e-07
-4.36241e-07
9.01378e-07
-5.41565e-07
9.0065e-07
-6.45585e-07
9.03274e-07
-7.48316e-07
9.09104e-07
-8.49719e-07
9.18033e-07
-9.49692e-07
9.29979e-07
-1.04806e-06
9.44885e-07
-1.14457e-06
9.62707e-07
-1.23887e-06
9.83411e-07
-1.3305e-06
1.00697e-06
-1.41889e-06
1.03333e-06
-1.50335e-06
1.06245e-06
-1.58301e-06
1.09425e-06
-1.65687e-06
1.12861e-06
-1.72379e-06
1.16537e-06
-1.78245e-06
1.20431e-06
-1.8314e-06
1.24512e-06
-1.86909e-06
1.28743e-06
-1.89391e-06
1.33077e-06
-1.90424e-06
1.37457e-06
-1.89859e-06
1.41816e-06
-1.87566e-06
1.4608e-06
-1.8345e-06
1.50168e-06
-1.77465e-06
1.53997e-06
-1.69621e-06
1.57483e-06
-1.59995e-06
1.6055e-06
-1.48727e-06
1.63134e-06
-1.36019e-06
1.65186e-06
-1.22109e-06
1.66677e-06
-1.07252e-06
1.67598e-06
-9.16974e-07
1.67962e-06
-7.5668e-07
1.67793e-06
-5.93588e-07
1.67129e-06
-4.29437e-07
1.66014e-06
-2.65854e-07
1.64491e-06
-1.44292e-07
8.60971e-07
-3.54431e-05
3.75244e-07
-1.02646e-07
1.02848e-06
-2.03519e-07
1.01457e-06
-3.02674e-07
1.0048e-06
-4.00138e-07
9.98843e-07
-4.95912e-07
9.96424e-07
-5.89957e-07
9.97318e-07
-6.8219e-07
1.00134e-06
-7.72478e-07
1.00832e-06
-8.60633e-07
1.01813e-06
-9.46402e-07
1.03065e-06
-1.02946e-06
1.04577e-06
-1.10942e-06
1.06336e-06
-1.18578e-06
1.08333e-06
-1.25799e-06
1.10554e-06
-1.32538e-06
1.12984e-06
-1.3872e-06
1.15608e-06
-1.44262e-06
1.18403e-06
-1.49072e-06
1.21348e-06
-1.53053e-06
1.24412e-06
-1.56104e-06
1.27563e-06
-1.58122e-06
1.30761e-06
-1.5901e-06
1.33965e-06
-1.58678e-06
1.37125e-06
-1.57052e-06
1.4019e-06
-1.54079e-06
1.43106e-06
-1.4973e-06
1.45819e-06
-1.44008e-06
1.48275e-06
-1.36952e-06
1.50427e-06
-1.28632e-06
1.52231e-06
-1.19152e-06
1.53654e-06
-1.08638e-06
1.54673e-06
-9.72374e-07
1.55276e-06
-8.51017e-07
1.55463e-06
-7.23834e-07
1.55243e-06
-5.92278e-07
1.54638e-06
-4.57712e-07
1.53673e-06
-3.2142e-07
1.52384e-06
-1.84651e-07
1.50815e-06
-8.54927e-08
7.61812e-07
-3.59456e-05
4.17036e-07
-9.36269e-08
1.1221e-06
-1.85532e-07
1.10647e-06
-2.75668e-07
1.09494e-06
-3.63974e-07
1.08715e-06
-4.50364e-07
1.08281e-06
-5.34726e-07
1.08168e-06
-6.16911e-07
1.08352e-06
-6.9673e-07
1.08814e-06
-7.73946e-07
1.09535e-06
-8.48277e-07
1.10498e-06
-9.19384e-07
1.11687e-06
-9.86872e-07
1.13085e-06
-1.05029e-06
1.14675e-06
-1.10913e-06
1.16438e-06
-1.16284e-06
1.18355e-06
-1.21079e-06
1.20403e-06
-1.25235e-06
1.22559e-06
-1.28683e-06
1.24796e-06
-1.31356e-06
1.27084e-06
-1.33185e-06
1.29392e-06
-1.34108e-06
1.31684e-06
-1.34068e-06
1.33925e-06
-1.33018e-06
1.36075e-06
-1.30925e-06
1.38097e-06
-1.2777e-06
1.39952e-06
-1.23556e-06
1.41604e-06
-1.183e-06
1.4302e-06
-1.12044e-06
1.44171e-06
-1.04846e-06
1.45032e-06
-9.67803e-07
1.45587e-06
-8.79328e-07
1.45825e-06
-7.83978e-07
1.45741e-06
-6.82715e-07
1.45336e-06
-5.76469e-07
1.44619e-06
-4.66089e-07
1.436e-06
-3.52283e-07
1.42292e-06
-2.35558e-07
1.40712e-06
-1.16134e-07
1.38872e-06
-3.16489e-08
6.77327e-07
-3.64427e-05
4.65463e-07
-8.47628e-08
1.20687e-06
-1.67878e-07
1.18959e-06
-2.49222e-07
1.17628e-06
-3.28665e-07
1.16659e-06
-4.06067e-07
1.16022e-06
-4.81263e-07
1.15688e-06
-5.54068e-07
1.15633e-06
-6.24264e-07
1.15834e-06
-6.91603e-07
1.16269e-06
-7.55799e-07
1.16918e-06
-8.16533e-07
1.17761e-06
-8.73449e-07
1.18777e-06
-9.26155e-07
1.19946e-06
-9.74228e-07
1.21245e-06
-1.01722e-06
1.22654e-06
-1.05466e-06
1.24147e-06
-1.08607e-06
1.257e-06
-1.11098e-06
1.27286e-06
-1.12892e-06
1.28878e-06
-1.13946e-06
1.30446e-06
-1.14223e-06
1.31961e-06
-1.13692e-06
1.33393e-06
-1.12329e-06
1.34713e-06
-1.10123e-06
1.35891e-06
-1.07072e-06
1.36901e-06
-1.03187e-06
1.3772e-06
-9.84925e-07
1.38325e-06
-9.30228e-07
1.38701e-06
-8.68247e-07
1.38834e-06
-7.99541e-07
1.38717e-06
-7.24743e-07
1.38345e-06
-6.44531e-07
1.3772e-06
-5.5961e-07
1.36844e-06
-4.70682e-07
1.35726e-06
-3.78419e-07
1.34373e-06
-2.83446e-07
1.32795e-06
-1.86317e-07
1.30999e-06
-8.74958e-08
1.2899e-06
-1.60606e-08
6.05892e-07
-3.69336e-05
4.74786e-07
-7.623e-08
1.2831e-06
-1.50905e-07
1.26426e-06
-2.2385e-07
1.24923e-06
-2.94889e-07
1.23763e-06
-3.63846e-07
1.22917e-06
-4.30531e-07
1.22356e-06
-4.9474e-07
1.22054e-06
-5.56253e-07
1.21985e-06
-6.14826e-07
1.22126e-06
-6.70197e-07
1.22455e-06
-7.22083e-07
1.22949e-06
-7.70182e-07
1.23587e-06
-8.14172e-07
1.24345e-06
-8.53721e-07
1.252e-06
-8.88487e-07
1.2613e-06
-9.18128e-07
1.27111e-06
-9.42308e-07
1.28118e-06
-9.60705e-07
1.29126e-06
-9.73022e-07
1.3011e-06
-9.79e-07
1.31044e-06
-9.78422e-07
1.31903e-06
-9.71127e-07
1.32664e-06
-9.57021e-07
1.33302e-06
-9.36078e-07
1.33797e-06
-9.08348e-07
1.34128e-06
-8.73963e-07
1.34281e-06
-8.3313e-07
1.34242e-06
-7.86133e-07
1.34001e-06
-7.33327e-07
1.33554e-06
-6.75134e-07
1.32898e-06
-6.12032e-07
1.32035e-06
-5.44553e-07
1.30972e-06
-4.73274e-07
1.29716e-06
-3.98817e-07
1.2828e-06
-3.21846e-07
1.26676e-06
-2.43074e-07
1.24918e-06
-1.63272e-07
1.23019e-06
-8.32954e-08
1.20992e-06
-1.97714e-08
5.42368e-07
-3.74226e-05
4.69288e-07
-6.8151e-08
1.35125e-06
-1.34854e-07
1.33097e-06
-1.99902e-07
1.31427e-06
-2.63095e-07
1.30082e-06
-3.24236e-07
1.29031e-06
-3.83127e-07
1.28245e-06
-4.39565e-07
1.27697e-06
-4.93337e-07
1.27362e-06
-5.44225e-07
1.27215e-06
-5.91997e-07
1.27232e-06
-6.36417e-07
1.27391e-06
-6.77241e-07
1.27669e-06
-7.1422e-07
1.28042e-06
-7.47106e-07
1.28489e-06
-7.75654e-07
1.28985e-06
-7.99629e-07
1.29509e-06
-8.18808e-07
1.30036e-06
-8.3299e-07
1.30544e-06
-8.41998e-07
1.31011e-06
-8.45686e-07
1.31413e-06
-8.43943e-07
1.31729e-06
-8.36699e-07
1.31939e-06
-8.23925e-07
1.32025e-06
-8.05636e-07
1.31968e-06
-7.81891e-07
1.31754e-06
-7.52792e-07
1.31371e-06
-7.18483e-07
1.30811e-06
-6.79151e-07
1.30068e-06
-6.3502e-07
1.29141e-06
-5.86357e-07
1.28031e-06
-5.33475e-07
1.26747e-06
-4.76734e-07
1.25298e-06
-4.16557e-07
1.23699e-06
-3.5343e-07
1.21968e-06
-2.87918e-07
1.20125e-06
-2.20666e-07
1.18193e-06
-1.52395e-07
1.16192e-06
-8.38794e-08
1.14141e-06
-2.61624e-08
4.84651e-07
-3.79154e-05
4.6658e-07
-6.06009e-08
1.41185e-06
-1.19871e-07
1.39024e-06
-1.77585e-07
1.37199e-06
-2.33536e-07
1.35678e-06
-2.87521e-07
1.3443e-06
-3.39347e-07
1.33428e-06
-3.88819e-07
1.32645e-06
-4.35746e-07
1.32055e-06
-4.79938e-07
1.31634e-06
-5.21202e-07
1.31359e-06
-5.59351e-07
1.31206e-06
-5.94197e-07
1.31154e-06
-6.2556e-07
1.31179e-06
-6.53269e-07
1.3126e-06
-6.77162e-07
1.31375e-06
-6.97093e-07
1.31502e-06
-7.12933e-07
1.3162e-06
-7.24575e-07
1.31709e-06
-7.31934e-07
1.31747e-06
-7.3495e-07
1.31714e-06
-7.33587e-07
1.31593e-06
-7.27835e-07
1.31364e-06
-7.17704e-07
1.31012e-06
-7.03228e-07
1.3052e-06
-6.8445e-07
1.29876e-06
-6.61426e-07
1.29069e-06
-6.34215e-07
1.2809e-06
-6.02879e-07
1.26935e-06
-5.67476e-07
1.256e-06
-5.28065e-07
1.2409e-06
-4.84716e-07
1.22412e-06
-4.37521e-07
1.20578e-06
-3.86623e-07
1.18609e-06
-3.32247e-07
1.1653e-06
-2.74746e-07
1.14375e-06
-2.1464e-07
1.12182e-06
-1.5266e-07
1.09994e-06
-8.97561e-08
1.0785e-06
-3.40378e-08
4.28932e-07
-3.84146e-05
4.65186e-07
-5.36156e-08
1.46546e-06
-1.0602e-07
1.44264e-06
-1.56988e-07
1.42296e-06
-2.06311e-07
1.4061e-06
-2.53793e-07
1.39178e-06
-2.9925e-07
1.37974e-06
-3.42509e-07
1.3697e-06
-3.83401e-07
1.36144e-06
-4.21766e-07
1.35471e-06
-4.57454e-07
1.34928e-06
-4.90322e-07
1.34493e-06
-5.20237e-07
1.34145e-06
-5.4708e-07
1.33863e-06
-5.70746e-07
1.33626e-06
-5.91145e-07
1.33414e-06
-6.08207e-07
1.33208e-06
-6.21884e-07
1.32988e-06
-6.32145e-07
1.32735e-06
-6.38985e-07
1.32431e-06
-6.42418e-07
1.32058e-06
-6.42476e-07
1.31599e-06
-6.39208e-07
1.31037e-06
-6.3267e-07
1.30358e-06
-6.22922e-07
1.29545e-06
-6.10014e-07
1.28585e-06
-5.93976e-07
1.27465e-06
-5.74803e-07
1.26173e-06
-5.5244e-07
1.24698e-06
-5.26769e-07
1.23033e-06
-4.97593e-07
1.21173e-06
-4.64635e-07
1.19116e-06
-4.27542e-07
1.16869e-06
-3.85907e-07
1.14445e-06
-3.39332e-07
1.11873e-06
-2.87519e-07
1.09194e-06
-2.30419e-07
1.06472e-06
-1.68436e-07
1.03795e-06
-1.02665e-07
1.01273e-06
-4.2212e-08
3.68479e-07
-3.89228e-05
4.6598e-07
-4.72005e-08
1.51266e-06
-9.33106e-08
1.48875e-06
-1.3811e-07
1.46776e-06
-1.814e-07
1.44939e-06
-2.22997e-07
1.43338e-06
-2.62732e-07
1.41947e-06
-3.00452e-07
1.40742e-06
-3.36015e-07
1.397e-06
-3.69293e-07
1.38798e-06
-4.00171e-07
1.38015e-06
-4.28547e-07
1.37331e-06
-4.54338e-07
1.36724e-06
-4.77475e-07
1.36177e-06
-4.97911e-07
1.3567e-06
-5.15616e-07
1.35185e-06
-5.30587e-07
1.34705e-06
-5.4284e-07
1.34213e-06
-5.52417e-07
1.33692e-06
-5.59385e-07
1.33127e-06
-5.63831e-07
1.32502e-06
-5.65865e-07
1.31802e-06
-5.65612e-07
1.31012e-06
-5.63205e-07
1.30117e-06
-5.5878e-07
1.29103e-06
-5.52458e-07
1.27953e-06
-5.44329e-07
1.26652e-06
-5.34429e-07
1.25183e-06
-5.22707e-07
1.23526e-06
-5.08988e-07
1.21661e-06
-4.92916e-07
1.19566e-06
-4.73901e-07
1.17215e-06
-4.51049e-07
1.14583e-06
-4.23093e-07
1.1165e-06
-3.88356e-07
1.08399e-06
-3.44759e-07
1.04834e-06
-2.89967e-07
1.00993e-06
-2.2178e-07
9.69764e-07
-1.38976e-07
9.2993e-07
-4.9921e-08
2.79425e-07
-3.94422e-05
4.69495e-07
-4.13398e-08
1.554e-06
-8.17061e-08
1.52912e-06
-1.20891e-07
1.50694e-06
-1.58707e-07
1.4872e-06
-1.94986e-07
1.46966e-06
-2.29579e-07
1.45406e-06
-2.62352e-07
1.4402e-06
-2.93187e-07
1.42784e-06
-3.21984e-07
1.41678e-06
-3.48659e-07
1.40683e-06
-3.73147e-07
1.3978e-06
-3.95402e-07
1.3895e-06
-4.15398e-07
1.38176e-06
-4.33133e-07
1.37443e-06
-4.48625e-07
1.36734e-06
-4.61923e-07
1.36035e-06
-4.731e-07
1.35331e-06
-4.82257e-07
1.34608e-06
-4.89525e-07
1.33854e-06
-4.95067e-07
1.33056e-06
-4.99073e-07
1.32203e-06
-5.01765e-07
1.31281e-06
-5.0339e-07
1.3028e-06
-5.0422e-07
1.29186e-06
-5.04543e-07
1.27985e-06
-5.04651e-07
1.26663e-06
-5.04825e-07
1.252e-06
-5.05304e-07
1.23574e-06
-5.06237e-07
1.21755e-06
-5.0761e-07
1.19703e-06
-5.09131e-07
1.17367e-06
-5.10048e-07
1.14675e-06
-5.08871e-07
1.11532e-06
-5.02944e-07
1.07806e-06
-4.87806e-07
1.0332e-06
-4.56245e-07
9.78368e-07
-3.96924e-07
9.10443e-07
-2.92445e-07
8.25451e-07
-5.53222e-08
4.23023e-08
-3.99753e-05
4.7773e-07
-3.60043e-08
1.59001e-06
-7.11459e-08
1.56426e-06
-1.05231e-07
1.54103e-06
-1.38088e-07
1.52006e-06
-1.69563e-07
1.50113e-06
-1.99525e-07
1.48403e-06
-2.27857e-07
1.46853e-06
-2.54465e-07
1.45445e-06
-2.7927e-07
1.44159e-06
-3.02212e-07
1.42977e-06
-3.23254e-07
1.41884e-06
-3.42378e-07
1.40862e-06
-3.59588e-07
1.39897e-06
-3.74913e-07
1.38976e-06
-3.88406e-07
1.38084e-06
-4.00149e-07
1.37209e-06
-4.10255e-07
1.36341e-06
-4.18865e-07
1.35469e-06
-4.2616e-07
1.34584e-06
-4.32354e-07
1.33676e-06
-4.37706e-07
1.32738e-06
-4.42523e-07
1.31763e-06
-4.47164e-07
1.30744e-06
-4.52051e-07
1.29674e-06
-4.57675e-07
1.28548e-06
-4.64619e-07
1.27357e-06
-4.73563e-07
1.26095e-06
-4.85317e-07
1.24749e-06
-5.0084e-07
1.23307e-06
-5.21269e-07
1.21746e-06
-5.4795e-07
1.20035e-06
-5.82446e-07
1.18125e-06
-6.26517e-07
1.15939e-06
-6.82008e-07
1.13355e-06
-7.50562e-07
1.10176e-06
-8.3297e-07
1.06078e-06
-9.27842e-07
1.00531e-06
-1.02895e-06
9.2656e-07
-4.99565e-08
-9.36693e-07
-4.05227e-05
4.97488e-07
-3.1158e-08
1.62117e-06
-6.15563e-08
1.59466e-06
-9.10161e-08
1.57049e-06
-1.1938e-07
1.54842e-06
-1.46509e-07
1.52826e-06
-1.72287e-07
1.5098e-06
-1.96613e-07
1.49286e-06
-2.19408e-07
1.47724e-06
-2.40611e-07
1.46279e-06
-2.60179e-07
1.44934e-06
-2.78092e-07
1.43675e-06
-2.94348e-07
1.42488e-06
-3.08969e-07
1.4136e-06
-3.22001e-07
1.40279e-06
-3.33513e-07
1.39235e-06
-3.43601e-07
1.38218e-06
-3.52391e-07
1.3722e-06
-3.6004e-07
1.36234e-06
-3.66739e-07
1.35254e-06
-3.72722e-07
1.34274e-06
-3.78263e-07
1.33292e-06
-3.83694e-07
1.32306e-06
-3.89408e-07
1.31315e-06
-3.9588e-07
1.30321e-06
-4.03683e-07
1.29328e-06
-4.13525e-07
1.28342e-06
-4.26287e-07
1.27371e-06
-4.43097e-07
1.2643e-06
-4.65423e-07
1.25539e-06
-4.9523e-07
1.24727e-06
-5.35219e-07
1.24034e-06
-5.89198e-07
1.23523e-06
-6.62687e-07
1.23288e-06
-7.63888e-07
1.23476e-06
-9.05286e-07
1.24315e-06
-1.10628e-06
1.26177e-06
-1.39755e-06
1.29659e-06
-1.82809e-06
1.35711e-06
-2.662e-08
-2.73817e-06
-4.10787e-05
5.29406e-07
-2.67634e-08
1.64793e-06
-5.28612e-08
1.62076e-06
-7.81287e-08
1.59575e-06
-1.02421e-07
1.57272e-06
-1.25614e-07
1.55146e-06
-1.476e-07
1.53179e-06
-1.68293e-07
1.51355e-06
-1.87624e-07
1.49657e-06
-2.05541e-07
1.48071e-06
-2.22013e-07
1.46581e-06
-2.37026e-07
1.45176e-06
-2.50587e-07
1.43844e-06
-2.62722e-07
1.42573e-06
-2.73477e-07
1.41354e-06
-2.8292e-07
1.40179e-06
-2.91142e-07
1.3904e-06
-2.98258e-07
1.37932e-06
-3.04406e-07
1.36849e-06
-3.09755e-07
1.35788e-06
-3.14501e-07
1.34749e-06
-3.18877e-07
1.3373e-06
-3.2315e-07
1.32733e-06
-3.27635e-07
1.31764e-06
-3.32695e-07
1.30827e-06
-3.38755e-07
1.29934e-06
-3.46314e-07
1.29097e-06
-3.55956e-07
1.28335e-06
-3.68371e-07
1.27672e-06
-3.84371e-07
1.27139e-06
-4.04904e-07
1.2678e-06
-4.3106e-07
1.26649e-06
-4.64043e-07
1.26821e-06
-5.05079e-07
1.27392e-06
-5.55193e-07
1.28487e-06
-6.14717e-07
1.30268e-06
-6.82305e-07
1.32935e-06
-7.53014e-07
1.3673e-06
-8.13346e-07
1.41744e-06
-5.88095e-08
-3.4927e-06
-4.16535e-05
5.15926e-07
-2.27846e-08
1.67071e-06
-4.49886e-08
1.64296e-06
-6.64596e-08
1.61722e-06
-8.70643e-08
1.59332e-06
-1.06687e-07
1.57108e-06
-1.25232e-07
1.55034e-06
-1.42619e-07
1.53094e-06
-1.58785e-07
1.51274e-06
-1.73686e-07
1.49561e-06
-1.87292e-07
1.47942e-06
-1.99591e-07
1.46406e-06
-2.10587e-07
1.44943e-06
-2.203e-07
1.43544e-06
-2.28768e-07
1.42201e-06
-2.36044e-07
1.40907e-06
-2.42195e-07
1.39655e-06
-2.47308e-07
1.38443e-06
-2.51482e-07
1.37266e-06
-2.54832e-07
1.36124e-06
-2.5749e-07
1.35014e-06
-2.59598e-07
1.33941e-06
-2.61313e-07
1.32905e-06
-2.62798e-07
1.31912e-06
-2.64224e-07
1.3097e-06
-2.65759e-07
1.30088e-06
-2.67558e-07
1.29277e-06
-2.69742e-07
1.28554e-06
-2.72375e-07
1.27935e-06
-2.75415e-07
1.27443e-06
-2.78643e-07
1.27103e-06
-2.8156e-07
1.26941e-06
-2.83222e-07
1.26987e-06
-2.82003e-07
1.2727e-06
-2.75248e-07
1.27811e-06
-2.58788e-07
1.28622e-06
-2.26286e-07
1.29685e-06
-1.68403e-07
1.30941e-06
-7.07782e-08
1.31981e-06
-1.24783e-07
-3.4387e-06
-4.22513e-05
4.73019e-07
-1.91895e-08
1.6899e-06
-3.78747e-08
1.66165e-06
-5.59133e-08
1.63526e-06
-7.3181e-08
1.61059e-06
-8.95705e-08
1.58747e-06
-1.04991e-07
1.56576e-06
-1.19368e-07
1.54531e-06
-1.32642e-07
1.52601e-06
-1.44769e-07
1.50773e-06
-1.55719e-07
1.49037e-06
-1.65475e-07
1.47382e-06
-1.74033e-07
1.45799e-06
-1.81405e-07
1.44282e-06
-1.87608e-07
1.42821e-06
-1.92675e-07
1.41413e-06
-1.96646e-07
1.40053e-06
-1.99569e-07
1.38735e-06
-2.01496e-07
1.37459e-06
-2.02486e-07
1.36222e-06
-2.02594e-07
1.35025e-06
-2.01875e-07
1.33869e-06
-2.00373e-07
1.32755e-06
-1.98115e-07
1.31686e-06
-1.95104e-07
1.30669e-06
-1.91304e-07
1.29708e-06
-1.86625e-07
1.28809e-06
-1.80897e-07
1.27981e-06
-1.73848e-07
1.2723e-06
-1.65056e-07
1.26564e-06
-1.53911e-07
1.25988e-06
-1.39549e-07
1.25505e-06
-1.20787e-07
1.25111e-06
-9.60493e-08
1.24796e-06
-6.32998e-08
1.24536e-06
-2.00039e-08
1.24292e-06
3.68457e-08
1.24e-06
1.10578e-07
1.23568e-06
2.04487e-07
1.2259e-06
-1.52326e-07
-3.08189e-06
-4.28581e-05
4.54514e-07
-1.59508e-08
1.70585e-06
-3.1465e-08
1.67716e-06
-4.6409e-08
1.65021e-06
-6.06654e-08
1.62484e-06
-7.41329e-08
1.60094e-06
-8.67249e-08
1.57835e-06
-9.83695e-08
1.55696e-06
-1.09008e-07
1.53665e-06
-1.18595e-07
1.51732e-06
-1.27097e-07
1.49887e-06
-1.34491e-07
1.48121e-06
-1.40765e-07
1.46427e-06
-1.45913e-07
1.44796e-06
-1.4994e-07
1.43224e-06
-1.52855e-07
1.41705e-06
-1.54669e-07
1.40234e-06
-1.55398e-07
1.38808e-06
-1.55054e-07
1.37425e-06
-1.53645e-07
1.36082e-06
-1.51173e-07
1.34778e-06
-1.47624e-07
1.33514e-06
-1.42966e-07
1.32289e-06
-1.37144e-07
1.31104e-06
-1.30069e-07
1.29961e-06
-1.21608e-07
1.28862e-06
-1.11579e-07
1.27806e-06
-9.97346e-08
1.26797e-06
-8.57547e-08
1.25832e-06
-6.92334e-08
1.24912e-06
-4.96739e-08
1.24032e-06
-2.64882e-08
1.23186e-06
9.90191e-10
1.22363e-06
3.34729e-08
1.21548e-06
7.16532e-08
1.20718e-06
1.16096e-07
1.19848e-06
1.67066e-07
1.18903e-06
2.24274e-07
1.17847e-06
2.86489e-07
1.16369e-06
-1.65886e-07
-2.62951e-06
-4.34608e-05
4.36775e-07
-1.30455e-08
1.7189e-06
-2.57145e-08
1.68983e-06
-3.78804e-08
1.66237e-06
-4.94315e-08
1.6364e-06
-6.0271e-08
1.61178e-06
-7.03153e-08
1.58839e-06
-7.94938e-08
1.56614e-06
-8.7748e-08
1.5449e-06
-9.50299e-08
1.5246e-06
-1.01302e-07
1.50514e-06
-1.06535e-07
1.48645e-06
-1.10708e-07
1.46844e-06
-1.13804e-07
1.45106e-06
-1.15814e-07
1.43425e-06
-1.16728e-07
1.41796e-06
-1.16539e-07
1.40215e-06
-1.15236e-07
1.38678e-06
-1.12806e-07
1.37182e-06
-1.09227e-07
1.35724e-06
-1.04467e-07
1.34302e-06
-9.84767e-08
1.32915e-06
-9.1192e-08
1.3156e-06
-8.25239e-08
1.30237e-06
-7.23569e-08
1.28945e-06
-6.05445e-08
1.2768e-06
-4.69061e-08
1.26443e-06
-3.12256e-08
1.25228e-06
-1.32518e-08
1.24035e-06
7.29651e-09
1.22857e-06
3.07206e-08
1.2169e-06
5.73238e-08
1.20526e-06
8.73837e-08
1.19357e-06
1.21112e-07
1.18175e-06
1.58602e-07
1.16969e-06
1.99764e-07
1.15732e-06
2.44249e-07
1.14455e-06
2.91393e-07
1.13133e-06
3.40181e-07
1.1149e-06
-1.59627e-07
-2.1297e-06
-4.40233e-05
4.02921e-07
-1.04542e-08
1.72935e-06
-2.05853e-08
1.69996e-06
-3.02724e-08
1.67206e-06
-3.94088e-08
1.64553e-06
-4.7901e-08
1.62027e-06
-5.5668e-08
1.59616e-06
-6.26402e-08
1.57311e-06
-6.87587e-08
1.55102e-06
-7.3974e-08
1.52982e-06
-7.8245e-08
1.50941e-06
-8.15381e-08
1.48974e-06
-8.38253e-08
1.47073e-06
-8.50834e-08
1.45232e-06
-8.5292e-08
1.43446e-06
-8.44322e-08
1.4171e-06
-8.24843e-08
1.4002e-06
-7.94263e-08
1.38372e-06
-7.52312e-08
1.36762e-06
-6.98654e-08
1.35187e-06
-6.32853e-08
1.33644e-06
-5.54361e-08
1.3213e-06
-4.62483e-08
1.30642e-06
-3.56363e-08
1.29176e-06
-2.34964e-08
1.27731e-06
-9.70574e-09
1.26301e-06
5.87809e-09
1.24884e-06
2.34155e-08
1.23475e-06
4.30823e-08
1.22068e-06
6.5064e-08
1.20659e-06
8.95483e-08
1.19241e-06
1.16713e-07
1.17809e-06
1.46712e-07
1.16357e-06
1.79653e-07
1.14881e-06
2.15569e-07
1.13378e-06
2.54385e-07
1.1185e-06
2.95857e-07
1.10308e-06
3.39478e-07
1.08771e-06
3.84285e-07
1.07009e-06
-1.14036e-07
-1.63138e-06
-4.44692e-05
3.31839e-07
-8.16067e-09
1.73751e-06
-1.60454e-08
1.70784e-06
-2.35385e-08
1.67955e-06
-3.05375e-08
1.65253e-06
-3.69523e-08
1.62668e-06
-4.2704e-08
1.60191e-06
-4.77243e-08
1.57813e-06
-5.19544e-08
1.55525e-06
-5.53441e-08
1.53321e-06
-5.78507e-08
1.51192e-06
-5.94378e-08
1.49133e-06
-6.00743e-08
1.47136e-06
-5.97332e-08
1.45198e-06
-5.83903e-08
1.43312e-06
-5.60228e-08
1.41474e-06
-5.26077e-08
1.39679e-06
-4.81208e-08
1.37923e-06
-4.25349e-08
1.36204e-06
-3.58182e-08
1.34515e-06
-2.79332e-08
1.32856e-06
-1.88351e-08
1.3122e-06
-8.47072e-09
1.29605e-06
3.22271e-09
1.28007e-06
1.63179e-08
1.26421e-06
3.0898e-08
1.24843e-06
4.70565e-08
1.23268e-06
6.4897e-08
1.21691e-06
8.45324e-08
1.20105e-06
1.06086e-07
1.18504e-06
1.2969e-07
1.16881e-06
1.55494e-07
1.15229e-06
1.8367e-07
1.1354e-06
2.14435e-07
1.11804e-06
2.48085e-07
1.10013e-06
2.8506e-07
1.08153e-06
3.26053e-07
1.06208e-06
3.72197e-07
1.04156e-06
4.2528e-07
1.01701e-06
1.6443e-08
-1.22254e-06
-4.46297e-05
1.76908e-07
-6.15029e-09
1.74366e-06
-1.20663e-08
1.71376e-06
-1.76373e-08
1.68512e-06
-2.27647e-08
1.65766e-06
-2.73618e-08
1.63128e-06
-3.1352e-08
1.6059e-06
-3.46687e-08
1.58145e-06
-3.72541e-08
1.55784e-06
-3.90581e-08
1.53501e-06
-4.0038e-08
1.5129e-06
-4.0157e-08
1.49144e-06
-3.93834e-08
1.47059e-06
-3.76901e-08
1.45028e-06
-3.5053e-08
1.43048e-06
-3.14508e-08
1.41113e-06
-2.68634e-08
1.3922e-06
-2.12717e-08
1.37364e-06
-1.46561e-08
1.35542e-06
-6.99641e-09
1.3375e-06
1.72929e-09
1.31983e-06
1.15449e-08
1.30238e-06
2.24769e-08
1.28512e-06
3.45545e-08
1.26799e-06
4.78094e-08
1.25096e-06
6.22762e-08
1.23397e-06
7.79916e-08
1.21697e-06
9.49941e-08
1.1999e-06
1.13324e-07
1.18272e-06
1.33021e-07
1.16534e-06
1.54128e-07
1.1477e-06
1.76685e-07
1.12973e-06
2.00736e-07
1.11135e-06
2.26323e-07
1.09246e-06
2.53483e-07
1.07297e-06
2.82246e-07
1.05276e-06
3.12605e-07
1.03172e-06
3.44476e-07
1.00969e-06
3.77484e-07
9.84004e-07
6.97422e-08
-9.14802e-07
-4.47226e-05
1.62668e-07
-4.40965e-09
1.74807e-06
-8.62172e-09
1.71797e-06
-1.25302e-08
1.68903e-06
-1.60407e-08
1.66117e-06
-1.90696e-08
1.63431e-06
-2.15433e-08
1.60837e-06
-2.33971e-08
1.5833e-06
-2.45748e-08
1.55902e-06
-2.50276e-08
1.53546e-06
-2.47137e-08
1.51259e-06
-2.35974e-08
1.49033e-06
-2.16484e-08
1.46864e-06
-1.88414e-08
1.44748e-06
-1.51553e-08
1.42679e-06
-1.0573e-08
1.40655e-06
-5.08076e-09
1.38671e-06
1.33215e-09
1.36723e-06
8.67343e-09
1.34808e-06
1.6948e-08
1.32922e-06
2.61581e-08
1.31062e-06
3.63029e-08
1.29224e-06
4.73786e-08
1.27404e-06
5.93778e-08
1.25599e-06
7.22891e-08
1.23805e-06
8.60969e-08
1.22016e-06
1.0078e-07
1.20228e-06
1.16312e-07
1.18437e-06
1.3266e-07
1.16637e-06
1.4978e-07
1.14822e-06
1.6762e-07
1.12986e-06
1.86113e-07
1.11124e-06
2.05173e-07
1.09229e-06
2.24682e-07
1.07295e-06
2.44481e-07
1.05317e-06
2.64345e-07
1.0329e-06
2.83947e-07
1.01212e-06
3.0282e-07
9.9082e-07
3.20165e-07
9.66659e-07
5.85557e-08
-6.53192e-07
-4.48101e-05
1.46055e-07
-2.92585e-09
1.751e-06
-5.68623e-09
1.72073e-06
-8.17997e-09
1.69153e-06
-1.03169e-08
1.66331e-06
-1.20168e-08
1.63601e-06
-1.32091e-08
1.60957e-06
-1.38314e-08
1.58392e-06
-1.38296e-08
1.55901e-06
-1.31567e-08
1.53479e-06
-1.17724e-08
1.5112e-06
-9.6426e-09
1.4882e-06
-6.73919e-09
1.46574e-06
-3.03937e-09
1.44378e-06
1.47436e-09
1.42228e-06
6.81439e-09
1.40121e-06
1.29879e-08
1.38053e-06
1.9997e-08
1.36022e-06
2.78379e-08
1.34024e-06
3.65011e-08
1.32056e-06
4.59705e-08
1.30115e-06
5.62226e-08
1.28199e-06
6.72261e-08
1.26304e-06
7.89407e-08
1.24428e-06
9.13167e-08
1.22567e-06
1.04294e-07
1.20718e-06
1.17801e-07
1.18878e-06
1.31755e-07
1.17042e-06
1.46062e-07
1.15206e-06
1.60617e-07
1.13366e-06
1.75303e-07
1.11518e-06
1.89992e-07
1.09655e-06
2.04545e-07
1.07773e-06
2.1881e-07
1.05868e-06
2.32623e-07
1.03935e-06
2.45802e-07
1.01972e-06
2.58148e-07
9.99775e-07
2.69443e-07
9.79524e-07
2.79313e-07
9.56788e-07
5.33141e-08
-4.27193e-07
-4.48895e-05
1.3273e-07
-1.68608e-09
1.75269e-06
-3.23458e-09
1.72228e-06
-4.54935e-09
1.69284e-06
-5.54451e-09
1.6643e-06
-6.14365e-09
1.63661e-06
-6.27911e-09
1.6097e-06
-5.89131e-09
1.58353e-06
-4.92813e-09
1.55805e-06
-3.34441e-09
1.53321e-06
-1.10149e-09
1.50896e-06
1.83314e-09
1.48526e-06
5.48606e-09
1.46208e-06
9.8781e-09
1.43939e-06
1.50243e-08
1.41713e-06
2.09338e-08
1.3953e-06
2.76097e-08
1.37386e-06
3.50481e-08
1.35278e-06
4.32381e-08
1.33205e-06
5.21605e-08
1.31164e-06
6.17868e-08
1.29152e-06
7.20784e-08
1.2717e-06
8.29845e-08
1.25213e-06
9.44414e-08
1.23282e-06
1.06371e-07
1.21374e-06
1.18678e-07
1.19487e-06
1.31252e-07
1.1762e-06
1.43964e-07
1.15771e-06
1.5667e-07
1.13936e-06
1.69211e-07
1.12112e-06
1.81416e-07
1.10297e-06
1.93109e-07
1.08486e-06
2.04118e-07
1.06672e-06
2.14283e-07
1.04852e-06
2.23466e-07
1.03017e-06
2.31569e-07
1.01162e-06
2.38538e-07
9.92806e-07
2.44374e-07
9.73688e-07
2.48944e-07
9.52219e-07
4.90384e-08
-2.27287e-07
-4.49604e-05
1.19929e-07
-6.77344e-10
1.75336e-06
-1.24115e-09
1.72285e-06
-1.60049e-09
1.6932e-06
-1.67405e-09
1.66437e-06
-1.38929e-09
1.63632e-06
-6.81818e-10
1.60899e-06
5.05312e-10
1.58235e-06
2.2221e-09
1.55633e-06
4.5121e-09
1.53092e-06
7.41275e-09
1.50606e-06
1.09557e-08
1.48172e-06
1.5167e-08
1.45787e-06
2.0067e-08
1.43449e-06
2.56707e-08
1.41153e-06
3.19869e-08
1.38898e-06
3.90182e-08
1.36683e-06
4.67606e-08
1.34504e-06
5.52022e-08
1.32361e-06
6.43223e-08
1.30251e-06
7.40903e-08
1.28176e-06
8.44636e-08
1.26132e-06
9.53862e-08
1.24121e-06
1.06786e-07
1.22142e-06
1.18571e-07
1.20195e-06
1.30631e-07
1.18281e-06
1.42828e-07
1.16401e-06
1.54999e-07
1.14553e-06
1.66953e-07
1.1274e-06
1.7847e-07
1.10961e-06
1.89307e-07
1.09213e-06