/*--------------------------------*- C++ -*----------------------------------*\
  =========                 |
  \\      /  F ield         | OpenFOAM: The Open Source CFD Toolbox
   \\    /   O peration     | Website:  https://openfoam.org
    \\  /    A nd           | Version:  10
     \\/     M anipulation  |
\*---------------------------------------------------------------------------*/
FoamFile
{
    format      ascii;
    class       volVectorField;
    location    "9750";
    object      Ub;
}
// * * * * * * * * * * * * * * * * * * * * * * * * * * * * * * * * * * * * * //

dimensions      [0 1 -1 0 0 0 0];

internalField   nonuniform List<vector> 
3200
(
(-5.21203e-21 -9.87891e-16 0)
(-1.55774e-20 -9.87891e-16 0)
(-2.58573e-20 -9.87891e-16 0)
(-3.61144e-20 -9.87891e-16 0)
(-4.64087e-20 -9.87891e-16 0)
(-5.67994e-20 -9.8789e-16 0)
(-6.73463e-20 -9.8789e-16 0)
(-7.8111e-20 -9.8789e-16 0)
(-8.91589e-20 -9.87889e-16 0)
(-1.00561e-19 -9.87889e-16 0)
(-1.12394e-19 -9.87888e-16 0)
(-1.24746e-19 -9.87888e-16 0)
(-1.37716e-19 -9.87887e-16 0)
(-1.51419e-19 -9.87886e-16 0)
(-1.65991e-19 -9.87885e-16 0)
(-1.81595e-19 -9.87883e-16 0)
(-1.98425e-19 -9.87882e-16 0)
(-2.16724e-19 -9.8788e-16 0)
(-2.36793e-19 -9.87878e-16 0)
(-2.59015e-19 -9.87875e-16 0)
(-2.83887e-19 -9.87872e-16 0)
(-3.12063e-19 -9.87867e-16 0)
(-3.44422e-19 -9.87862e-16 0)
(-3.82176e-19 -9.87854e-16 0)
(-4.2703e-19 -9.87845e-16 0)
(-4.8144e-19 -9.87831e-16 0)
(-5.49034e-19 -9.87812e-16 0)
(-6.35287e-19 -9.87785e-16 0)
(-7.48658e-19 -9.87745e-16 0)
(-9.0247e-19 -9.87683e-16 0)
(-1.1181e-18 -9.87587e-16 0)
(-2.11324e-18 -9.87433e-16 0)
(-4.22739e-07 -1.40401e-15 0)
(-6.70691e-05 -1.86274e-05 0)
(-0.000137169 -1.71196e-05 0)
(-0.000142487 -7.61763e-06 0)
(-0.000144861 -4.65766e-06 0)
(-0.000146482 -3.05618e-06 0)
(-0.000143429 -1.4124e-05 0)
(-9.70399e-05 -0.000125406 0)
(-5.1412e-21 -9.87876e-16 0)
(-1.53642e-20 -9.87876e-16 0)
(-2.54985e-20 -9.87876e-16 0)
(-3.56029e-20 -9.87875e-16 0)
(-4.57336e-20 -9.87875e-16 0)
(-5.59455e-20 -9.87874e-16 0)
(-6.62933e-20 -9.87873e-16 0)
(-7.68331e-20 -9.87872e-16 0)
(-8.76233e-20 -9.87871e-16 0)
(-9.87258e-20 -9.87869e-16 0)
(-1.10208e-19 -9.87868e-16 0)
(-1.22142e-19 -9.87866e-16 0)
(-1.34611e-19 -9.87863e-16 0)
(-1.47705e-19 -9.87861e-16 0)
(-1.61528e-19 -9.87857e-16 0)
(-1.762e-19 -9.87854e-16 0)
(-1.91856e-19 -9.87849e-16 0)
(-2.08653e-19 -9.87844e-16 0)
(-2.26772e-19 -9.87838e-16 0)
(-2.46419e-19 -9.8783e-16 0)
(-2.67826e-19 -9.87821e-16 0)
(-2.91243e-19 -9.8781e-16 0)
(-3.16921e-19 -9.87796e-16 0)
(-3.45075e-19 -9.87778e-16 0)
(-3.75792e-19 -9.87755e-16 0)
(-4.08862e-19 -9.87725e-16 0)
(-4.43443e-19 -9.87686e-16 0)
(-4.77413e-19 -9.87633e-16 0)
(-5.06166e-19 -9.87562e-16 0)
(-5.20342e-19 -9.87463e-16 0)
(-5.01658e-19 -9.87326e-16 0)
(-4.15237e-19 -9.87133e-16 0)
(-1.95767e-19 -9.86859e-16 0)
(3.07439e-20 -9.82565e-16 0)
(2.09224e-20 -9.3098e-16 0)
(-1.42518e-19 -8.84568e-16 0)
(-9.33764e-19 -8.4118e-16 0)
(-1.62966e-07 -1.75386e-15 0)
(-2.23314e-05 -1.22936e-05 0)
(-2.56561e-05 -0.000306955 0)
(-5.00371e-21 -9.87861e-16 0)
(-1.49505e-20 -9.87861e-16 0)
(-2.48027e-20 -9.87861e-16 0)
(-3.46121e-20 -9.8786e-16 0)
(-4.44275e-20 -9.87859e-16 0)
(-5.42962e-20 -9.87858e-16 0)
(-6.4264e-20 -9.87857e-16 0)
(-7.43768e-20 -9.87855e-16 0)
(-8.46808e-20 -9.87853e-16 0)
(-9.52232e-20 -9.87851e-16 0)
(-1.06053e-19 -9.87848e-16 0)
(-1.1722e-19 -9.87845e-16 0)
(-1.28777e-19 -9.87841e-16 0)
(-1.40779e-19 -9.87837e-16 0)
(-1.53282e-19 -9.87832e-16 0)
(-1.66342e-19 -9.87827e-16 0)
(-1.80014e-19 -9.8782e-16 0)
(-1.94345e-19 -9.87813e-16 0)
(-2.09372e-19 -9.87804e-16 0)
(-2.25108e-19 -9.87793e-16 0)
(-2.41527e-19 -9.87781e-16 0)
(-2.58538e-19 -9.87766e-16 0)
(-2.75945e-19 -9.87748e-16 0)
(-2.9339e-19 -9.87727e-16 0)
(-3.10273e-19 -9.87701e-16 0)
(-3.2563e-19 -9.87671e-16 0)
(-3.37994e-19 -9.87634e-16 0)
(-3.45232e-19 -9.8759e-16 0)
(-3.44418e-19 -9.87539e-16 0)
(-3.31892e-19 -9.87482e-16 0)
(-3.03836e-19 -9.87422e-16 0)
(-2.58065e-19 -9.87367e-16 0)
(-1.98492e-19 -9.87333e-16 0)
(-1.45117e-19 -9.87354e-16 0)
(-1.19351e-19 -9.87398e-16 0)
(-1.14704e-19 -9.87406e-16 0)
(-1.09282e-19 -9.87381e-16 0)
(-1.5867e-11 -9.88415e-16 0)
(-1.59065e-06 -2.54159e-07 0)
(-9.08235e-07 -0.000373399 0)
(-4.80733e-21 -9.87847e-16 0)
(-1.43599e-20 -9.87847e-16 0)
(-2.38104e-20 -9.87846e-16 0)
(-3.32014e-20 -9.87845e-16 0)
(-4.25721e-20 -9.87844e-16 0)
(-5.19595e-20 -9.87843e-16 0)
(-6.13986e-20 -9.87841e-16 0)
(-7.09225e-20 -9.87839e-16 0)
(-8.05627e-20 -9.87836e-16 0)
(-9.03491e-20 -9.87833e-16 0)
(-1.0031e-19 -9.8783e-16 0)
(-1.1047e-19 -9.87826e-16 0)
(-1.20852e-19 -9.87822e-16 0)
(-1.31473e-19 -9.87816e-16 0)
(-1.42344e-19 -9.8781e-16 0)
(-1.53465e-19 -9.87804e-16 0)
(-1.64822e-19 -9.87796e-16 0)
(-1.76383e-19 -9.87787e-16 0)
(-1.88085e-19 -9.87777e-16 0)
(-1.99828e-19 -9.87765e-16 0)
(-2.11459e-19 -9.87752e-16 0)
(-2.22754e-19 -9.87736e-16 0)
(-2.33398e-19 -9.87719e-16 0)
(-2.4296e-19 -9.87698e-16 0)
(-2.50871e-19 -9.87676e-16 0)
(-2.56408e-19 -9.8765e-16 0)
(-2.58699e-19 -9.87621e-16 0)
(-2.56767e-19 -9.8759e-16 0)
(-2.4964e-19 -9.87558e-16 0)
(-2.36571e-19 -9.87525e-16 0)
(-2.1739e-19 -9.87494e-16 0)
(-1.92962e-19 -9.87469e-16 0)
(-1.65603e-19 -9.87451e-16 0)
(-1.38886e-19 -9.87442e-16 0)
(-1.1548e-19 -9.87438e-16 0)
(-9.48587e-20 -9.87433e-16 0)
(-7.43843e-20 -9.87425e-16 0)
(-7.12297e-12 -9.88605e-16 0)
(-6.16558e-07 -2.32556e-07 0)
(-4.57616e-08 -0.000385805 0)
(-4.56249e-21 -9.87834e-16 0)
(-1.36242e-20 -9.87833e-16 0)
(-2.2576e-20 -9.87833e-16 0)
(-3.14499e-20 -9.87832e-16 0)
(-4.02747e-20 -9.8783e-16 0)
(-4.90765e-20 -9.87828e-16 0)
(-5.78784e-20 -9.87826e-16 0)
(-6.67005e-20 -9.87824e-16 0)
(-7.55599e-20 -9.87821e-16 0)
(-8.44699e-20 -9.87817e-16 0)
(-9.34395e-20 -9.87813e-16 0)
(-1.02472e-19 -9.87809e-16 0)
(-1.11566e-19 -9.87804e-16 0)
(-1.20708e-19 -9.87798e-16 0)
(-1.29877e-19 -9.87792e-16 0)
(-1.39037e-19 -9.87785e-16 0)
(-1.48134e-19 -9.87776e-16 0)
(-1.57095e-19 -9.87767e-16 0)
(-1.65816e-19 -9.87757e-16 0)
(-1.74163e-19 -9.87745e-16 0)
(-1.81962e-19 -9.87732e-16 0)
(-1.88992e-19 -9.87718e-16 0)
(-1.94986e-19 -9.87702e-16 0)
(-1.99623e-19 -9.87685e-16 0)
(-2.02541e-19 -9.87666e-16 0)
(-2.03344e-19 -9.87646e-16 0)
(-2.0164e-19 -9.87624e-16 0)
(-1.97083e-19 -9.87602e-16 0)
(-1.89438e-19 -9.87581e-16 0)
(-1.78666e-19 -9.8756e-16 0)
(-1.65e-19 -9.8754e-16 0)
(-1.48986e-19 -9.87523e-16 0)
(-1.31437e-19 -9.8751e-16 0)
(-1.13243e-19 -9.87499e-16 0)
(-9.50454e-20 -9.87491e-16 0)
(-7.70221e-20 -9.87484e-16 0)
(-5.90657e-20 -9.87478e-16 0)
(-6.96967e-12 -9.8904e-16 0)
(-4.19226e-07 -2.8196e-07 0)
(1.38256e-07 -0.000393634 0)
(-4.2811e-21 -9.87821e-16 0)
(-1.27793e-20 -9.87821e-16 0)
(-2.11607e-20 -9.8782e-16 0)
(-2.94467e-20 -9.87819e-16 0)
(-3.76557e-20 -9.87817e-16 0)
(-4.58031e-20 -9.87815e-16 0)
(-5.39011e-20 -9.87813e-16 0)
(-6.19581e-20 -9.8781e-16 0)
(-6.99788e-20 -9.87807e-16 0)
(-7.79629e-20 -9.87803e-16 0)
(-8.59047e-20 -9.87799e-16 0)
(-9.37922e-20 -9.87794e-16 0)
(-1.01605e-19 -9.87789e-16 0)
(-1.09316e-19 -9.87783e-16 0)
(-1.16883e-19 -9.87776e-16 0)
(-1.24255e-19 -9.87769e-16 0)
(-1.31363e-19 -9.87761e-16 0)
(-1.38124e-19 -9.87752e-16 0)
(-1.44433e-19 -9.87742e-16 0)
(-1.50166e-19 -9.87731e-16 0)
(-1.55176e-19 -9.8772e-16 0)
(-1.59296e-19 -9.87707e-16 0)
(-1.62341e-19 -9.87694e-16 0)
(-1.64114e-19 -9.87679e-16 0)
(-1.64416e-19 -9.87664e-16 0)
(-1.6306e-19 -9.87648e-16 0)
(-1.59892e-19 -9.87632e-16 0)
(-1.54814e-19 -9.87617e-16 0)
(-1.47803e-19 -9.87601e-16 0)
(-1.38938e-19 -9.87586e-16 0)
(-1.28401e-19 -9.87573e-16 0)
(-1.1647e-19 -9.8756e-16 0)
(-1.03483e-19 -9.8755e-16 0)
(-8.97798e-20 -9.87541e-16 0)
(-7.56454e-20 -9.87533e-16 0)
(-6.12791e-20 -9.87527e-16 0)
(-4.6849e-20 -9.87523e-16 0)
(-7.01408e-12 -9.89499e-16 0)
(-3.22137e-07 -3.41606e-07 0)
(2.51798e-07 -0.000400345 0)
(-3.97538e-21 -9.87809e-16 0)
(-1.18621e-20 -9.87809e-16 0)
(-1.9627e-20 -9.87808e-16 0)
(-2.72816e-20 -9.87806e-16 0)
(-3.48349e-20 -9.87805e-16 0)
(-4.22929e-20 -9.87803e-16 0)
(-4.96585e-20 -9.878e-16 0)
(-5.69309e-20 -9.87797e-16 0)
(-6.41051e-20 -9.87794e-16 0)
(-7.11711e-20 -9.8779e-16 0)
(-7.81136e-20 -9.87786e-16 0)
(-8.49112e-20 -9.87781e-16 0)
(-9.15351e-20 -9.87776e-16 0)
(-9.79487e-20 -9.8777e-16 0)
(-1.04106e-19 -9.87764e-16 0)
(-1.09953e-19 -9.87757e-16 0)
(-1.15423e-19 -9.87749e-16 0)
(-1.20438e-19 -9.87741e-16 0)
(-1.24912e-19 -9.87732e-16 0)
(-1.28745e-19 -9.87722e-16 0)
(-1.31832e-19 -9.87712e-16 0)
(-1.34059e-19 -9.87701e-16 0)
(-1.35311e-19 -9.8769e-16 0)
(-1.35478e-19 -9.87678e-16 0)
(-1.3446e-19 -9.87666e-16 0)
(-1.32177e-19 -9.87654e-16 0)
(-1.28578e-19 -9.87642e-16 0)
(-1.23652e-19 -9.8763e-16 0)
(-1.17428e-19 -9.87619e-16 0)
(-1.09984e-19 -9.87608e-16 0)
(-1.01443e-19 -9.87598e-16 0)
(-9.19594e-20 -9.87589e-16 0)
(-8.17111e-20 -9.8758e-16 0)
(-7.08769e-20 -9.87573e-16 0)
(-5.96249e-20 -9.87567e-16 0)
(-4.81041e-20 -9.87563e-16 0)
(-3.64797e-20 -9.87559e-16 0)
(-6.4732e-12 -9.89952e-16 0)
(-2.37406e-07 -4.01339e-07 0)
(3.79978e-07 -0.00040653 0)
(-3.65681e-21 -9.87798e-16 0)
(-1.09073e-20 -9.87798e-16 0)
(-1.80334e-20 -9.87797e-16 0)
(-2.50381e-20 -9.87795e-16 0)
(-3.19223e-20 -9.87794e-16 0)
(-3.86847e-20 -9.87792e-16 0)
(-4.5321e-20 -9.87789e-16 0)
(-5.18234e-20 -9.87786e-16 0)
(-5.81806e-20 -9.87783e-16 0)
(-6.43767e-20 -9.87779e-16 0)
(-7.03914e-20 -9.87775e-16 0)
(-7.61988e-20 -9.8777e-16 0)
(-8.17677e-20 -9.87765e-16 0)
(-8.70607e-20 -9.8776e-16 0)
(-9.20339e-20 -9.87754e-16 0)
(-9.66371e-20 -9.87747e-16 0)
(-1.00814e-19 -9.8774e-16 0)
(-1.04502e-19 -9.87733e-16 0)
(-1.07634e-19 -9.87725e-16 0)
(-1.10139e-19 -9.87717e-16 0)
(-1.11945e-19 -9.87708e-16 0)
(-1.1298e-19 -9.87699e-16 0)
(-1.13178e-19 -9.8769e-16 0)
(-1.12481e-19 -9.8768e-16 0)
(-1.10842e-19 -9.87671e-16 0)
(-1.08234e-19 -9.87661e-16 0)
(-1.04646e-19 -9.87652e-16 0)
(-1.00094e-19 -9.87643e-16 0)
(-9.46161e-20 -9.87634e-16 0)
(-8.82746e-20 -9.87626e-16 0)
(-8.11516e-20 -9.87618e-16 0)
(-7.33445e-20 -9.87611e-16 0)
(-6.49594e-20 -9.87605e-16 0)
(-5.6105e-20 -9.876e-16 0)
(-4.68873e-20 -9.87595e-16 0)
(-3.74065e-20 -9.87591e-16 0)
(-2.77873e-20 -9.87588e-16 0)
(-5.34935e-12 -9.90364e-16 0)
(-1.42482e-07 -4.54156e-07 0)
(5.52528e-07 -0.000412429 0)
(-3.33551e-21 -9.87788e-16 0)
(-9.9452e-21 -9.87787e-16 0)
(-1.64305e-20 -9.87787e-16 0)
(-2.27876e-20 -9.87785e-16 0)
(-2.90113e-20 -9.87784e-16 0)
(-3.50944e-20 -9.87782e-16 0)
(-4.10278e-20 -9.87779e-16 0)
(-4.67992e-20 -9.87776e-16 0)
(-5.23937e-20 -9.87773e-16 0)
(-5.77927e-20 -9.8777e-16 0)
(-6.2974e-20 -9.87766e-16 0)
(-6.79115e-20 -9.87761e-16 0)
(-7.25752e-20 -9.87756e-16 0)
(-7.69308e-20 -9.87751e-16 0)
(-8.09403e-20 -9.87746e-16 0)
(-8.4562e-20 -9.8774e-16 0)
(-8.7751e-20 -9.87734e-16 0)
(-9.046e-20 -9.87727e-16 0)
(-9.26405e-20 -9.8772e-16 0)
(-9.42443e-20 -9.87713e-16 0)
(-9.52248e-20 -9.87706e-16 0)
(-9.55392e-20 -9.87698e-16 0)
(-9.51509e-20 -9.87691e-16 0)
(-9.40311e-20 -9.87683e-16 0)
(-9.21616e-20 -9.87675e-16 0)
(-8.95363e-20 -9.87668e-16 0)
(-8.61626e-20 -9.87661e-16 0)
(-8.20617e-20 -9.87654e-16 0)
(-7.72686e-20 -9.87647e-16 0)
(-7.18307e-20 -9.87641e-16 0)
(-6.58051e-20 -9.87635e-16 0)
(-5.92562e-20 -9.8763e-16 0)
(-5.22518e-20 -9.87625e-16 0)
(-4.48592e-20 -9.87621e-16 0)
(-3.71418e-20 -9.87618e-16 0)
(-2.9155e-20 -9.87615e-16 0)
(-2.09673e-20 -9.87613e-16 0)
(-3.7877e-12 -9.90726e-16 0)
(-5.33665e-08 -4.9952e-07 0)
(7.31447e-07 -0.000418194 0)
(-3.01973e-21 -9.87779e-16 0)
(-9.00047e-21 -9.87778e-16 0)
(-1.48594e-20 -9.87777e-16 0)
(-2.05876e-20 -9.87776e-16 0)
(-2.61753e-20 -9.87775e-16 0)
(-3.16117e-20 -9.87773e-16 0)
(-3.68843e-20 -9.8777e-16 0)
(-4.19788e-20 -9.87768e-16 0)
(-4.68785e-20 -9.87765e-16 0)
(-5.15645e-20 -9.87761e-16 0)
(-5.60153e-20 -9.87757e-16 0)
(-6.02066e-20 -9.87753e-16 0)
(-6.41119e-20 -9.87749e-16 0)
(-6.77022e-20 -9.87744e-16 0)
(-7.09465e-20 -9.87739e-16 0)
(-7.38119e-20 -9.87734e-16 0)
(-7.62648e-20 -9.87729e-16 0)
(-7.82711e-20 -9.87723e-16 0)
(-7.97975e-20 -9.87717e-16 0)
(-8.08122e-20 -9.87711e-16 0)
(-8.12865e-20 -9.87705e-16 0)
(-8.11959e-20 -9.87699e-16 0)
(-8.05212e-20 -9.87693e-16 0)
(-7.92498e-20 -9.87686e-16 0)
(-7.7377e-20 -9.8768e-16 0)
(-7.49062e-20 -9.87674e-16 0)
(-7.18497e-20 -9.87669e-16 0)
(-6.82285e-20 -9.87663e-16 0)
(-6.40717e-20 -9.87658e-16 0)
(-5.94159e-20 -9.87654e-16 0)
(-5.43035e-20 -9.87649e-16 0)
(-4.87812e-20 -9.87645e-16 0)
(-4.28982e-20 -9.87642e-16 0)
(-3.67048e-20 -9.87639e-16 0)
(-3.02497e-20 -9.87637e-16 0)
(-2.35794e-20 -9.87635e-16 0)
(-1.67577e-20 -9.87633e-16 0)
(-3.17166e-12 -9.91212e-16 0)
(-2.73763e-08 -5.59018e-07 0)
(7.81837e-07 -0.000423892 0)
(-2.71574e-21 -9.8777e-16 0)
(-8.09182e-21 -9.8777e-16 0)
(-1.33509e-20 -9.87769e-16 0)
(-1.84804e-20 -9.87768e-16 0)
(-2.34678e-20 -9.87767e-16 0)
(-2.83002e-20 -9.87765e-16 0)
(-3.29633e-20 -9.87762e-16 0)
(-3.74422e-20 -9.8776e-16 0)
(-4.17203e-20 -9.87757e-16 0)
(-4.57797e-20 -9.87754e-16 0)
(-4.96008e-20 -9.87751e-16 0)
(-5.31628e-20 -9.87747e-16 0)
(-5.64435e-20 -9.87743e-16 0)
(-5.94197e-20 -9.87739e-16 0)
(-6.20672e-20 -9.87734e-16 0)
(-6.43617e-20 -9.8773e-16 0)
(-6.62791e-20 -9.87725e-16 0)
(-6.7796e-20 -9.8772e-16 0)
(-6.88902e-20 -9.87715e-16 0)
(-6.95419e-20 -9.8771e-16 0)
(-6.97343e-20 -9.87705e-16 0)
(-6.94538e-20 -9.877e-16 0)
(-6.86914e-20 -9.87695e-16 0)
(-6.74428e-20 -9.8769e-16 0)
(-6.57088e-20 -9.87685e-16 0)
(-6.34959e-20 -9.8768e-16 0)
(-6.08162e-20 -9.87676e-16 0)
(-5.76872e-20 -9.87672e-16 0)
(-5.41317e-20 -9.87668e-16 0)
(-5.01773e-20 -9.87665e-16 0)
(-4.58561e-20 -9.87661e-16 0)
(-4.1204e-20 -9.87659e-16 0)
(-3.62607e-20 -9.87656e-16 0)
(-3.10687e-20 -9.87654e-16 0)
(-2.5674e-20 -9.87653e-16 0)
(-2.01256e-20 -9.87652e-16 0)
(-1.44991e-20 -9.87651e-16 0)
(-3.53308e-12 -9.91846e-16 0)
(-3.40429e-08 -6.37577e-07 0)
(7.73909e-07 -0.000429547 0)
(-2.42792e-21 -9.87763e-16 0)
(-7.23219e-21 -9.87763e-16 0)
(-1.19259e-20 -9.87762e-16 0)
(-1.64945e-20 -9.87761e-16 0)
(-2.0924e-20 -9.87759e-16 0)
(-2.52002e-20 -9.87758e-16 0)
(-2.93089e-20 -9.87756e-16 0)
(-3.32352e-20 -9.87753e-16 0)
(-3.69638e-20 -9.87751e-16 0)
(-4.04786e-20 -9.87748e-16 0)
(-4.3763e-20 -9.87745e-16 0)
(-4.67998e-20 -9.87741e-16 0)
(-4.95716e-20 -9.87738e-16 0)
(-5.20606e-20 -9.87734e-16 0)
(-5.42492e-20 -9.8773e-16 0)
(-5.61204e-20 -9.87726e-16 0)
(-5.76578e-20 -9.87722e-16 0)
(-5.88463e-20 -9.87718e-16 0)
(-5.96724e-20 -9.87714e-16 0)
(-6.01247e-20 -9.87709e-16 0)
(-6.0194e-20 -9.87705e-16 0)
(-5.98739e-20 -9.87701e-16 0)
(-5.91607e-20 -9.87697e-16 0)
(-5.80541e-20 -9.87693e-16 0)
(-5.65566e-20 -9.87689e-16 0)
(-5.4674e-20 -9.87685e-16 0)
(-5.24151e-20 -9.87682e-16 0)
(-4.97915e-20 -9.87679e-16 0)
(-4.68181e-20 -9.87676e-16 0)
(-4.35123e-20 -9.87674e-16 0)
(-3.98947e-20 -9.87672e-16 0)
(-3.59893e-20 -9.8767e-16 0)
(-3.1824e-20 -9.87668e-16 0)
(-2.74312e-20 -9.87667e-16 0)
(-2.28484e-20 -9.87666e-16 0)
(-1.81186e-20 -9.87666e-16 0)
(-1.33154e-20 -9.87665e-16 0)
(-4.15443e-12 -9.92633e-16 0)
(-4.5477e-08 -7.30053e-07 0)
(7.6549e-07 -0.000435217 0)
(-2.15894e-21 -9.87756e-16 0)
(-6.4294e-21 -9.87756e-16 0)
(-1.0597e-20 -9.87755e-16 0)
(-1.46464e-20 -9.87754e-16 0)
(-1.8563e-20 -9.87753e-16 0)
(-2.23325e-20 -9.87751e-16 0)
(-2.59413e-20 -9.87749e-16 0)
(-2.93756e-20 -9.87747e-16 0)
(-3.26218e-20 -9.87745e-16 0)
(-3.56662e-20 -9.87742e-16 0)
(-3.84953e-20 -9.8774e-16 0)
(-4.10958e-20 -9.87737e-16 0)
(-4.34545e-20 -9.87733e-16 0)
(-4.5559e-20 -9.8773e-16 0)
(-4.73974e-20 -9.87727e-16 0)
(-4.89586e-20 -9.87723e-16 0)
(-5.0233e-20 -9.8772e-16 0)
(-5.12121e-20 -9.87716e-16 0)
(-5.1889e-20 -9.87712e-16 0)
(-5.22586e-20 -9.87709e-16 0)
(-5.23175e-20 -9.87705e-16 0)
(-5.2064e-20 -9.87702e-16 0)
(-5.14982e-20 -9.87698e-16 0)
(-5.06215e-20 -9.87695e-16 0)
(-4.94368e-20 -9.87692e-16 0)
(-4.79476e-20 -9.8769e-16 0)
(-4.6158e-20 -9.87687e-16 0)
(-4.40722e-20 -9.87685e-16 0)
(-4.16946e-20 -9.87683e-16 0)
(-3.90293e-20 -9.87681e-16 0)
(-3.60809e-20 -9.8768e-16 0)
(-3.28552e-20 -9.87679e-16 0)
(-2.93606e-20 -9.87678e-16 0)
(-2.56102e-20 -9.87678e-16 0)
(-2.16245e-20 -9.87678e-16 0)
(-1.74347e-20 -9.87678e-16 0)
(-1.31152e-20 -9.87678e-16 0)
(-5.25664e-12 -9.9361e-16 0)
(-5.9703e-08 -8.37396e-07 0)
(7.56177e-07 -0.000440945 0)
(-1.91009e-21 -9.8775e-16 0)
(-5.68712e-21 -9.8775e-16 0)
(-9.36984e-21 -9.8775e-16 0)
(-1.29427e-20 -9.87749e-16 0)
(-1.63914e-20 -9.87747e-16 0)
(-1.97025e-20 -9.87746e-16 0)
(-2.2863e-20 -9.87744e-16 0)
(-2.58609e-20 -9.87742e-16 0)
(-2.86846e-20 -9.8774e-16 0)
(-3.13228e-20 -9.87738e-16 0)
(-3.37651e-20 -9.87735e-16 0)
(-3.60018e-20 -9.87733e-16 0)
(-3.80238e-20 -9.8773e-16 0)
(-3.98232e-20 -9.87727e-16 0)
(-4.1393e-20 -9.87724e-16 0)
(-4.27276e-20 -9.87721e-16 0)
(-4.38227e-20 -9.87718e-16 0)
(-4.46755e-20 -9.87714e-16 0)
(-4.52848e-20 -9.87711e-16 0)
(-4.56507e-20 -9.87708e-16 0)
(-4.57751e-20 -9.87705e-16 0)
(-4.56607e-20 -9.87702e-16 0)
(-4.53114e-20 -9.877e-16 0)
(-4.47312e-20 -9.87697e-16 0)
(-4.39241e-20 -9.87695e-16 0)
(-4.28929e-20 -9.87693e-16 0)
(-4.16384e-20 -9.87691e-16 0)
(-4.01587e-20 -9.87689e-16 0)
(-3.84474e-20 -9.87688e-16 0)
(-3.64935e-20 -9.87687e-16 0)
(-3.42799e-20 -9.87687e-16 0)
(-3.17843e-20 -9.87687e-16 0)
(-2.89796e-20 -9.87687e-16 0)
(-2.58371e-20 -9.87687e-16 0)
(-2.2332e-20 -9.87688e-16 0)
(-1.84519e-20 -9.87689e-16 0)
(-1.42487e-20 -9.8769e-16 0)
(-7.0738e-12 -9.94911e-16 0)
(-7.46814e-08 -9.68113e-07 0)
(7.49657e-07 -0.000446763 0)
(-1.68154e-21 -9.87745e-16 0)
(-5.00579e-21 -9.87745e-16 0)
(-8.24451e-21 -9.87744e-16 0)
(-1.13827e-20 -9.87744e-16 0)
(-1.44069e-20 -9.87742e-16 0)
(-1.73044e-20 -9.87741e-16 0)
(-2.00638e-20 -9.8774e-16 0)
(-2.26745e-20 -9.87738e-16 0)
(-2.5127e-20 -9.87736e-16 0)
(-2.74126e-20 -9.87734e-16 0)
(-2.95236e-20 -9.87731e-16 0)
(-3.14533e-20 -9.87729e-16 0)
(-3.31964e-20 -9.87727e-16 0)
(-3.47487e-20 -9.87724e-16 0)
(-3.61075e-20 -9.87721e-16 0)
(-3.72716e-20 -9.87719e-16 0)
(-3.82414e-20 -9.87716e-16 0)
(-3.90192e-20 -9.87713e-16 0)
(-3.96086e-20 -9.8771e-16 0)
(-4.00152e-20 -9.87708e-16 0)
(-4.02461e-20 -9.87705e-16 0)
(-4.03095e-20 -9.87703e-16 0)
(-4.02148e-20 -9.877e-16 0)
(-3.99714e-20 -9.87698e-16 0)
(-3.95885e-20 -9.87696e-16 0)
(-3.90737e-20 -9.87695e-16 0)
(-3.84314e-20 -9.87693e-16 0)
(-3.76611e-20 -9.87692e-16 0)
(-3.67547e-20 -9.87691e-16 0)
(-3.56934e-20 -9.87691e-16 0)
(-3.44434e-20 -9.87691e-16 0)
(-3.29519e-20 -9.87692e-16 0)
(-3.11418e-20 -9.87693e-16 0)
(-2.89084e-20 -9.87695e-16 0)
(-2.61177e-20 -9.87697e-16 0)
(-2.26125e-20 -9.877e-16 0)
(-1.82953e-20 -9.87703e-16 0)
(-1.15455e-11 -9.97297e-16 0)
(-8.90531e-08 -1.16276e-06 0)
(7.48374e-07 -0.000452698 0)
(-1.47275e-21 -9.87741e-16 0)
(-4.38358e-21 -9.8774e-16 0)
(-7.21763e-21 -9.8774e-16 0)
(-9.96083e-21 -9.87739e-16 0)
(-1.26005e-20 -9.87738e-16 0)
(-1.51254e-20 -9.87737e-16 0)
(-1.75253e-20 -9.87736e-16 0)
(-1.97914e-20 -9.87734e-16 0)
(-2.19158e-20 -9.87732e-16 0)
(-2.38921e-20 -9.8773e-16 0)
(-2.57148e-20 -9.87728e-16 0)
(-2.738e-20 -9.87726e-16 0)
(-2.88853e-20 -9.87724e-16 0)
(-3.02294e-20 -9.87721e-16 0)
(-3.14131e-20 -9.87719e-16 0)
(-3.24388e-20 -9.87717e-16 0)
(-3.33108e-20 -9.87714e-16 0)
(-3.40351e-20 -9.87712e-16 0)
(-3.46203e-20 -9.87709e-16 0)
(-3.50767e-20 -9.87707e-16 0)
(-3.54168e-20 -9.87705e-16 0)
(-3.56555e-20 -9.87703e-16 0)
(-3.58093e-20 -9.877e-16 0)
(-3.58967e-20 -9.87699e-16 0)
(-3.59378e-20 -9.87697e-16 0)
(-3.59531e-20 -9.87695e-16 0)
(-3.59632e-20 -9.87694e-16 0)
(-3.59865e-20 -9.87693e-16 0)
(-3.60368e-20 -9.87693e-16 0)
(-3.61189e-20 -9.87692e-16 0)
(-3.6222e-20 -9.87693e-16 0)
(-3.63088e-20 -9.87694e-16 0)
(-3.62996e-20 -9.87696e-16 0)
(-3.60465e-20 -9.87699e-16 0)
(-3.5296e-20 -9.87703e-16 0)
(-3.36324e-20 -9.87708e-16 0)
(-3.0555e-20 -9.87715e-16 0)
(-3.13468e-11 -1.00509e-15 0)
(-9.94882e-08 -1.75364e-06 0)
(7.59393e-07 -0.000458776 0)
(-1.28267e-21 -9.87737e-16 0)
(-3.81729e-21 -9.87737e-16 0)
(-6.28353e-21 -9.87736e-16 0)
(-8.66837e-21 -9.87735e-16 0)
(-1.09602e-20 -9.87734e-16 0)
(-1.3149e-20 -9.87733e-16 0)
(-1.52257e-20 -9.87732e-16 0)
(-1.7183e-20 -9.87731e-16 0)
(-1.90146e-20 -9.87729e-16 0)
(-2.07156e-20 -9.87727e-16 0)
(-2.22826e-20 -9.87725e-16 0)
(-2.37136e-20 -9.87723e-16 0)
(-2.5008e-20 -9.87721e-16 0)
(-2.6167e-20 -9.87719e-16 0)
(-2.71937e-20 -9.87717e-16 0)
(-2.80927e-20 -9.87715e-16 0)
(-2.88711e-20 -9.87713e-16 0)
(-2.95379e-20 -9.87711e-16 0)
(-3.01045e-20 -9.87708e-16 0)
(-3.0585e-20 -9.87706e-16 0)
(-3.09964e-20 -9.87704e-16 0)
(-3.13587e-20 -9.87702e-16 0)
(-3.16956e-20 -9.877e-16 0)
(-3.20351e-20 -9.87698e-16 0)
(-3.24095e-20 -9.87696e-16 0)
(-3.28573e-20 -9.87695e-16 0)
(-3.34233e-20 -9.87693e-16 0)
(-3.41607e-20 -9.87692e-16 0)
(-3.51324e-20 -9.87691e-16 0)
(-3.64132e-20 -9.87691e-16 0)
(-3.80915e-20 -9.8769e-16 0)
(-4.0271e-20 -9.87691e-16 0)
(-4.307e-20 -9.87692e-16 0)
(-4.6617e-20 -9.87694e-16 0)
(-5.10362e-20 -9.87698e-16 0)
(-5.64143e-20 -9.87703e-16 0)
(-6.35188e-20 -9.87712e-16 0)
(-2.20124e-10 -1.09487e-15 0)
(-9.07126e-08 -6.72897e-06 0)
(8.10669e-07 -0.000465015 0)
(-1.11002e-21 -9.87733e-16 0)
(-3.303e-21 -9.87733e-16 0)
(-5.43548e-21 -9.87733e-16 0)
(-7.49547e-21 -9.87732e-16 0)
(-9.47245e-21 -9.87731e-16 0)
(-1.13573e-20 -9.8773e-16 0)
(-1.31423e-20 -9.87729e-16 0)
(-1.4821e-20 -9.87728e-16 0)
(-1.63885e-20 -9.87726e-16 0)
(-1.78409e-20 -9.87725e-16 0)
(-1.91762e-20 -9.87723e-16 0)
(-2.03935e-20 -9.87721e-16 0)
(-2.14935e-20 -9.87719e-16 0)
(-2.24787e-20 -9.87717e-16 0)
(-2.33531e-20 -9.87716e-16 0)
(-2.41226e-20 -9.87714e-16 0)
(-2.47951e-20 -9.87711e-16 0)
(-2.53808e-20 -9.87709e-16 0)
(-2.58919e-20 -9.87707e-16 0)
(-2.63437e-20 -9.87705e-16 0)
(-2.67543e-20 -9.87703e-16 0)
(-2.71452e-20 -9.87701e-16 0)
(-2.75422e-20 -9.87699e-16 0)
(-2.79763e-20 -9.87697e-16 0)
(-2.84849e-20 -9.87695e-16 0)
(-2.91135e-20 -9.87693e-16 0)
(-2.99188e-20 -9.87692e-16 0)
(-3.09723e-20 -9.8769e-16 0)
(-3.23665e-20 -9.87688e-16 0)
(-3.42238e-20 -9.87686e-16 0)
(-3.67104e-20 -9.87684e-16 0)
(-4.0058e-20 -9.87683e-16 0)
(-4.45991e-20 -9.87681e-16 0)
(-5.08226e-20 -9.87679e-16 0)
(-5.94653e-20 -9.87678e-16 0)
(-7.16631e-20 -9.87676e-16 0)
(-9.88263e-20 -9.87674e-16 0)
(-3.59661e-09 -2.03978e-15 0)
(-5.21679e-08 -2.28696e-05 0)
(9.17391e-07 -0.000471391 0)
(-9.53462e-22 -9.8773e-16 0)
(-2.83667e-21 -9.8773e-16 0)
(-4.66659e-21 -9.8773e-16 0)
(-6.4322e-21 -9.87729e-16 0)
(-8.12388e-21 -9.87728e-16 0)
(-9.73341e-21 -9.87727e-16 0)
(-1.12539e-20 -9.87726e-16 0)
(-1.26797e-20 -9.87725e-16 0)
(-1.40067e-20 -9.87724e-16 0)
(-1.52318e-20 -9.87723e-16 0)
(-1.63535e-20 -9.87721e-16 0)
(-1.73715e-20 -9.87719e-16 0)
(-1.82869e-20 -9.87718e-16 0)
(-1.91024e-20 -9.87716e-16 0)
(-1.9822e-20 -9.87714e-16 0)
(-2.04513e-20 -9.87712e-16 0)
(-2.09977e-20 -9.8771e-16 0)
(-2.14702e-20 -9.87708e-16 0)
(-2.18798e-20 -9.87706e-16 0)
(-2.22395e-20 -9.87705e-16 0)
(-2.25644e-20 -9.87702e-16 0)
(-2.28726e-20 -9.877e-16 0)
(-2.31846e-20 -9.87698e-16 0)
(-2.35246e-20 -9.87696e-16 0)
(-2.39208e-20 -9.87694e-16 0)
(-2.4406e-20 -9.87692e-16 0)
(-2.50188e-20 -9.8769e-16 0)
(-2.58046e-20 -9.87687e-16 0)
(-2.68169e-20 -9.87685e-16 0)
(-2.81184e-20 -9.87682e-16 0)
(-2.97817e-20 -9.87679e-16 0)
(-3.18886e-20 -9.87675e-16 0)
(-3.45255e-20 -9.87671e-16 0)
(-3.77728e-20 -9.87665e-16 0)
(-4.16787e-20 -9.87659e-16 0)
(-4.62071e-20 -9.8765e-16 0)
(-1.03207e-19 -9.87639e-16 0)
(-9.71197e-09 -4.14966e-15 0)
(-1.17765e-07 -3.84096e-05 0)
(8.3988e-07 -0.000477927 0)
(-8.11714e-22 -9.87728e-16 0)
(-2.41446e-21 -9.87728e-16 0)
(-3.97041e-21 -9.87727e-16 0)
(-5.46938e-21 -9.87727e-16 0)
(-6.90252e-21 -9.87726e-16 0)
(-8.26228e-21 -9.87725e-16 0)
(-9.54236e-21 -9.87724e-16 0)
(-1.07377e-20 -9.87723e-16 0)
(-1.18445e-20 -9.87722e-16 0)
(-1.286e-20 -9.87721e-16 0)
(-1.37829e-20 -9.87719e-16 0)
(-1.46128e-20 -9.87718e-16 0)
(-1.53506e-20 -9.87716e-16 0)
(-1.59983e-20 -9.87715e-16 0)
(-1.65592e-20 -9.87713e-16 0)
(-1.70376e-20 -9.87711e-16 0)
(-1.74388e-20 -9.8771e-16 0)
(-1.77697e-20 -9.87708e-16 0)
(-1.80377e-20 -9.87706e-16 0)
(-1.82518e-20 -9.87704e-16 0)
(-1.84216e-20 -9.87702e-16 0)
(-1.85577e-20 -9.877e-16 0)
(-1.86717e-20 -9.87698e-16 0)
(-1.87755e-20 -9.87696e-16 0)
(-1.8881e-20 -9.87694e-16 0)
(-1.89997e-20 -9.87691e-16 0)
(-1.91416e-20 -9.87689e-16 0)
(-1.93133e-20 -9.87686e-16 0)
(-1.95154e-20 -9.87683e-16 0)
(-1.97387e-20 -9.8768e-16 0)
(-1.99576e-20 -9.87676e-16 0)
(-2.01207e-20 -9.87672e-16 0)
(-2.01365e-20 -9.87667e-16 0)
(-1.98524e-20 -9.87661e-16 0)
(-1.90253e-20 -9.87655e-16 0)
(-1.72811e-20 -9.87647e-16 0)
(-4.09238e-20 -9.87637e-16 0)
(-1.2173e-09 -5.64477e-15 0)
(-2.32017e-07 -4.13826e-05 0)
(6.44101e-07 -0.0004847 0)
(-6.83638e-22 -9.87726e-16 0)
(-2.03295e-21 -9.87725e-16 0)
(-3.34125e-21 -9.87725e-16 0)
(-4.59906e-21 -9.87725e-16 0)
(-5.79811e-21 -9.87724e-16 0)
(-6.93137e-21 -9.87723e-16 0)
(-7.99293e-21 -9.87722e-16 0)
(-8.97802e-21 -9.87721e-16 0)
(-9.88294e-21 -9.8772e-16 0)
(-1.07051e-20 -9.87719e-16 0)
(-1.14427e-20 -9.87718e-16 0)
(-1.20952e-20 -9.87717e-16 0)
(-1.26627e-20 -9.87715e-16 0)
(-1.31463e-20 -9.87714e-16 0)
(-1.35478e-20 -9.87712e-16 0)
(-1.38698e-20 -9.87711e-16 0)
(-1.41154e-20 -9.87709e-16 0)
(-1.42882e-20 -9.87707e-16 0)
(-1.43921e-20 -9.87706e-16 0)
(-1.44312e-20 -9.87704e-16 0)
(-1.44095e-20 -9.87702e-16 0)
(-1.43303e-20 -9.877e-16 0)
(-1.41964e-20 -9.87698e-16 0)
(-1.40087e-20 -9.87696e-16 0)
(-1.3766e-20 -9.87694e-16 0)
(-1.34639e-20 -9.87691e-16 0)
(-1.30932e-20 -9.87689e-16 0)
(-1.2638e-20 -9.87686e-16 0)
(-1.20736e-20 -9.87684e-16 0)
(-1.13634e-20 -9.8768e-16 0)
(-1.04547e-20 -9.87677e-16 0)
(-9.27464e-21 -9.87673e-16 0)
(-7.72493e-21 -9.87669e-16 0)
(-5.67691e-21 -9.87665e-16 0)
(-2.96775e-21 -9.8766e-16 0)
(5.99999e-22 -9.87655e-16 0)
(5.25205e-21 -9.8765e-16 0)
(4.74931e-20 -6.0672e-15 0)
(-2.83538e-07 -3.83464e-05 0)
(5.62487e-07 -0.000491656 0)
(-5.68258e-22 -9.87724e-16 0)
(-1.68922e-21 -9.87724e-16 0)
(-2.77431e-21 -9.87723e-16 0)
(-3.81459e-21 -9.87723e-16 0)
(-4.80227e-21 -9.87722e-16 0)
(-5.73065e-21 -9.87722e-16 0)
(-6.5941e-21 -9.87721e-16 0)
(-7.38795e-21 -9.8772e-16 0)
(-8.10851e-21 -9.87719e-16 0)
(-8.75295e-21 -9.87718e-16 0)
(-9.31925e-21 -9.87717e-16 0)
(-9.80616e-21 -9.87716e-16 0)
(-1.02131e-20 -9.87714e-16 0)
(-1.054e-20 -9.87713e-16 0)
(-1.07872e-20 -9.87712e-16 0)
(-1.09557e-20 -9.8771e-16 0)
(-1.10463e-20 -9.87709e-16 0)
(-1.106e-20 -9.87707e-16 0)
(-1.09976e-20 -9.87706e-16 0)
(-1.08593e-20 -9.87704e-16 0)
(-1.06448e-20 -9.87702e-16 0)
(-1.03524e-20 -9.877e-16 0)
(-9.9791e-21 -9.87699e-16 0)
(-9.51961e-21 -9.87697e-16 0)
(-8.96612e-21 -9.87695e-16 0)
(-8.3074e-21 -9.87693e-16 0)
(-7.52816e-21 -9.8769e-16 0)
(-6.60817e-21 -9.87688e-16 0)
(-5.52154e-21 -9.87686e-16 0)
(-4.23614e-21 -9.87683e-16 0)
(-2.71332e-21 -9.8768e-16 0)
(-9.0838e-22 -9.87678e-16 0)
(1.22777e-21 -9.87675e-16 0)
(3.74518e-21 -9.87672e-16 0)
(6.68867e-21 -9.87669e-16 0)
(1.00878e-20 -9.87666e-16 0)
(1.39417e-20 -9.87663e-16 0)
(7.26572e-20 -6.45622e-15 0)
(-3.10631e-07 -3.36953e-05 0)
(5.07253e-07 -0.000498643 0)
(-4.64753e-22 -9.87722e-16 0)
(-1.38085e-21 -9.87722e-16 0)
(-2.2656e-21 -9.87722e-16 0)
(-3.11054e-21 -9.87722e-16 0)
(-3.90822e-21 -9.87721e-16 0)
(-4.65221e-21 -9.8772e-16 0)
(-5.33704e-21 -9.8772e-16 0)
(-5.95809e-21 -9.87719e-16 0)
(-6.51157e-21 -9.87718e-16 0)
(-6.99444e-21 -9.87717e-16 0)
(-7.40432e-21 -9.87716e-16 0)
(-7.7394e-21 -9.87715e-16 0)
(-7.99837e-21 -9.87714e-16 0)
(-8.18029e-21 -9.87713e-16 0)
(-8.28445e-21 -9.87711e-16 0)
(-8.31027e-21 -9.8771e-16 0)
(-8.25712e-21 -9.87709e-16 0)
(-8.12416e-21 -9.87707e-16 0)
(-7.91009e-21 -9.87706e-16 0)
(-7.61298e-21 -9.87704e-16 0)
(-7.22997e-21 -9.87703e-16 0)
(-6.75706e-21 -9.87701e-16 0)
(-6.18873e-21 -9.877e-16 0)
(-5.51772e-21 -9.87698e-16 0)
(-4.73469e-21 -9.87696e-16 0)
(-3.82799e-21 -9.87695e-16 0)
(-2.78349e-21 -9.87693e-16 0)
(-1.58453e-21 -9.87691e-16 0)
(-2.1216e-22 -9.87689e-16 0)
(1.35438e-21 -9.87687e-16 0)
(3.13663e-21 -9.87685e-16 0)
(5.15529e-21 -9.87683e-16 0)
(7.42779e-21 -9.87681e-16 0)
(9.96499e-21 -9.87679e-16 0)
(1.2767e-20 -9.87677e-16 0)
(1.58182e-20 -9.87675e-16 0)
(1.90826e-20 -9.87673e-16 0)
(9.24187e-20 -6.80227e-15 0)
(-3.00561e-07 -2.83611e-05 0)
(4.58097e-07 -0.000505376 0)
(-3.72438e-22 -9.87721e-16 0)
(-1.1058e-21 -9.87721e-16 0)
(-1.81184e-21 -9.87721e-16 0)
(-2.48243e-21 -9.8772e-16 0)
(-3.11046e-21 -9.8772e-16 0)
(-3.68971e-21 -9.87719e-16 0)
(-4.2148e-21 -9.87719e-16 0)
(-4.68116e-21 -9.87718e-16 0)
(-5.08494e-21 -9.87717e-16 0)
(-5.42289e-21 -9.87717e-16 0)
(-5.69237e-21 -9.87716e-16 0)
(-5.89117e-21 -9.87715e-16 0)
(-6.01747e-21 -9.87714e-16 0)
(-6.06972e-21 -9.87713e-16 0)
(-6.04652e-21 -9.87711e-16 0)
(-5.9465e-21 -9.8771e-16 0)
(-5.76816e-21 -9.87709e-16 0)
(-5.50976e-21 -9.87708e-16 0)
(-5.16915e-21 -9.87707e-16 0)
(-4.74357e-21 -9.87705e-16 0)
(-4.22952e-21 -9.87704e-16 0)
(-3.62256e-21 -9.87703e-16 0)
(-2.91719e-21 -9.87701e-16 0)
(-2.10664e-21 -9.877e-16 0)
(-1.18285e-21 -9.87698e-16 0)
(-1.36362e-22 -9.87697e-16 0)
(1.0436e-21 -9.87695e-16 0)
(2.36902e-21 -9.87694e-16 0)
(3.85278e-21 -9.87692e-16 0)
(5.50816e-21 -9.87691e-16 0)
(7.34819e-21 -9.8769e-16 0)
(9.38469e-21 -9.87688e-16 0)
(1.16269e-20 -9.87687e-16 0)
(1.408e-20 -9.87685e-16 0)
(1.67424e-20 -9.87684e-16 0)
(1.96027e-20 -9.87683e-16 0)
(2.26342e-20 -9.87682e-16 0)
(1.08466e-19 -7.0146e-15 0)
(-2.15747e-07 -2.28162e-05 0)
(4.12064e-07 -0.000511205 0)
(-2.90729e-22 -9.8772e-16 0)
(-8.62355e-22 -9.8772e-16 0)
(-1.4102e-21 -9.8772e-16 0)
(-1.92649e-21 -9.8772e-16 0)
(-2.40436e-21 -9.87719e-16 0)
(-2.8378e-21 -9.87719e-16 0)
(-3.22156e-21 -9.87718e-16 0)
(-3.55111e-21 -9.87718e-16 0)
(-3.82257e-21 -9.87717e-16 0)
(-4.03263e-21 -9.87716e-16 0)
(-4.17847e-21 -9.87715e-16 0)
(-4.25769e-21 -9.87714e-16 0)
(-4.26821e-21 -9.87714e-16 0)
(-4.20822e-21 -9.87713e-16 0)
(-4.07604e-21 -9.87712e-16 0)
(-3.87003e-21 -9.87711e-16 0)
(-3.58851e-21 -9.8771e-16 0)
(-3.22966e-21 -9.87709e-16 0)
(-2.79137e-21 -9.87707e-16 0)
(-2.27118e-21 -9.87706e-16 0)
(-1.66615e-21 -9.87705e-16 0)
(-9.72787e-22 -9.87704e-16 0)
(-1.86963e-22 -9.87703e-16 0)
(6.96146e-22 -9.87702e-16 0)
(1.68209e-21 -9.87701e-16 0)
(2.77718e-21 -9.87699e-16 0)
(3.98841e-21 -9.87698e-16 0)