/*--------------------------------*- C++ -*----------------------------------*\
  =========                 |
  \\      /  F ield         | OpenFOAM: The Open Source CFD Toolbox
   \\    /   O peration     | Website:  https://openfoam.org
    \\  /    A nd           | Version:  10
     \\/     M anipulation  |
\*---------------------------------------------------------------------------*/
FoamFile
{
    format      ascii;
    class       volScalarField;
    location    "8500";
    object      p;
}
// * * * * * * * * * * * * * * * * * * * * * * * * * * * * * * * * * * * * * //

dimensions      [1 -1 -2 0 0 0 0];

internalField   nonuniform List<scalar> 
6400
(
111.581
111.593
111.616
111.652
111.699
111.759
111.832
111.918
112.016
112.129
112.256
112.399
112.557
112.732
112.925
113.137
113.37
113.626
113.907
114.215
114.553
114.926
115.339
115.797
116.308
116.884
117.538
118.291
119.173
120.233
121.552
123.253
141.992
433.853
714.421
982.194
1229.39
1441.04
1594.72
1674.4
1674.4
1594.72
1441.04
1229.39
982.194
714.421
433.853
141.992
123.253
121.552
120.233
119.173
118.291
117.538
116.884
116.308
115.797
115.339
114.926
114.553
114.215
113.907
113.626
113.37
113.137
112.925
112.732
112.557
112.399
112.256
112.129
112.016
111.918
111.832
111.759
111.699
111.652
111.616
111.593
111.581
111.286
111.298
111.322
111.357
111.405
111.465
111.537
111.623
111.722
111.835
111.962
112.104
112.262
112.437
112.63
112.842
113.075
113.331
113.612
113.919
114.258
114.631
115.043
115.501
116.012
116.586
117.239
117.991
118.871
119.927
121.242
122.985
125.494
139.078
422.047
692.335
943.46
1160.66
1318.2
1399.27
1399.27
1318.2
1160.66
943.46
692.335
422.047
139.078
125.494
122.985
121.242
119.927
118.871
117.991
117.239
116.586
116.012
115.501
115.043
114.631
114.258
113.919
113.612
113.331
113.075
112.842
112.63
112.437
112.262
112.104
111.962
111.835
111.722
111.623
111.537
111.465
111.405
111.357
111.322
111.298
111.286
110.963
110.974
110.998
111.034
111.081
111.141
111.214
111.299
111.398
111.511
111.638
111.78
111.938
112.113
112.306
112.518
112.751
113.006
113.286
113.594
113.932
114.304
114.716
115.173
115.683
116.256
116.907
117.656
118.531
119.579
120.879
122.602
124.665
125.727
130.604
379.552
639.768
870.876
1037.69
1121.78
1121.78
1037.69
870.876
639.768
379.552
130.604
125.727
124.665
122.602
120.879
119.579
118.531
117.656
116.907
116.256
115.683
115.173
114.716
114.304
113.932
113.594
113.286
113.006
112.751
112.518
112.306
112.113
111.938
111.78
111.638
111.511
111.398
111.299
111.214
111.141
111.081
111.034
110.998
110.974
110.963
110.607
110.619
110.642
110.678
110.725
110.785
110.858
110.943
111.042
111.154
111.281
111.423
111.581
111.756
111.949
112.161
112.393
112.648
112.928
113.235
113.572
113.944
114.354
114.81
115.318
115.889
116.537
117.28
118.147
119.181
120.455
122.11
123.823
124.739
125.428
127.381
321.614
578.279
761.578
849.734
849.734
761.578
578.279
321.614
127.381
125.428
124.739
123.823
122.11
120.455
119.181
118.147
117.28
116.537
115.889
115.318
114.81
114.354
113.944
113.572
113.235
112.928
112.648
112.393
112.161
111.949
111.756
111.581
111.423
111.281
111.154
111.042
110.943
110.858
110.785
110.725
110.678
110.642
110.619
110.607
110.216
110.228
110.251
110.287
110.334
110.394
110.466
110.552
110.65
110.763
110.889
111.031
111.189
111.363
111.556
111.767
111.999
112.254
112.533
112.839
113.175
113.546
113.955
114.408
114.913
115.481
116.123
116.859
117.714
118.727
119.96
121.516
122.951
123.741
124.371
124.836
127.639
307.375
507.814
597.374
597.374
507.814
307.375
127.639
124.836
124.371
123.741
122.951
121.516
119.96
118.727
117.714
116.859
116.123
115.481
114.913
114.408
113.955
113.546
113.175
112.839
112.533
112.254
111.999
111.767
111.556
111.363
111.189
111.031
110.889
110.763
110.65
110.552
110.466
110.394
110.334
110.287
110.251
110.228
110.216
109.786
109.798
109.821
109.857
109.904
109.964
110.036
110.121
110.22
110.332
110.458
110.6
110.757
110.931
111.123
111.334
111.565
111.819
112.097
112.402
112.737
113.105
113.512
113.962
114.464
115.026
115.661
116.385
117.224
118.209
119.389
120.826
122.039
122.72
123.288
123.733
124.092
149.059
315.401
392.028
392.028
315.401
149.059
124.092
123.733
123.288
122.72
122.039
120.826
119.389
118.209
117.224
116.385
115.661
115.026
114.464
113.962
113.512
113.105
112.737
112.402
112.097
111.819
111.565
111.334
111.123
110.931
110.757
110.6
110.458
110.332
110.22
110.121
110.036
109.964
109.904
109.857
109.821
109.798
109.786
109.313
109.325
109.348
109.384
109.431
109.491
109.563
109.648
109.746
109.858
109.984
110.125
110.282
110.455
110.646
110.856
111.087
111.339
111.616
111.919
112.252
112.618
113.022
113.468
113.964
114.519
115.144
115.854
116.67
117.619
118.734
120.042
121.074
121.661
122.168
122.586
122.927
128.705
217.128
265.597
265.597
217.128
128.705
122.927
122.586
122.168
121.661
121.074
120.042
118.734
117.619
116.67
115.854
115.144
114.519
113.964
113.468
113.022
112.618
112.252
111.919
111.616
111.339
111.087
110.856
110.646
110.455
110.282
110.125
109.984
109.858
109.746
109.648
109.563
109.491
109.431
109.384
109.348
109.325
109.313
108.793
108.805
108.828
108.863
108.91
108.97
109.042
109.126
109.224
109.335
109.461
109.602
109.758
109.93
110.121
110.33
110.559
110.81
111.085
111.386
111.716
112.079
112.478
112.919
113.409
113.954
114.566
115.258
116.046
116.95
117.991
119.167
120.049
120.554
121
121.379
121.698
124.336
175.36
204.674
204.674
175.36
124.336
121.698
121.379
121
120.554
120.049
119.167
117.991
116.95
116.046
115.258
114.566
113.954
113.409
112.919
112.478
112.079
111.716
111.386
111.085
110.81
110.559
110.33
110.121
109.93
109.758
109.602
109.461
109.335
109.224
109.126
109.042
108.97
108.91
108.863
108.828
108.805
108.793
108.22
108.232
108.255
108.29
108.337
108.397
108.468
108.552
108.65
108.761
108.886
109.025
109.181
109.352
109.541
109.749
109.977
110.226
110.498
110.797
111.123
111.482
111.876
112.31
112.79
113.324
113.919
114.588
115.342
116.195
117.154
118.2
118.953
119.386
119.772
120.105
120.382
121.766
153.393
172.146
172.146
153.393
121.766
120.382
120.105
119.772
119.386
118.953
118.2
117.154
116.195
115.342
114.588
113.919
113.324
112.79
112.31
111.876
111.482
111.123
110.797
110.498
110.226
109.977
109.749
109.541
109.352
109.181
109.025
108.886
108.761
108.65
108.552
108.468
108.397
108.337
108.29
108.255
108.232
108.22
107.59
107.602
107.625
107.66
107.707
107.766
107.837
107.92
108.017
108.127
108.252
108.39
108.545
108.715
108.903
109.108
109.334
109.58
109.85
110.145
110.467
110.82
111.207
111.633
112.102
112.621
113.196
113.837
114.552
115.347
116.219
117.14
117.782
118.149
118.478
118.76
118.989
119.805
139.761
151.921
151.921
139.761
119.805
118.989
118.76
118.478
118.149
117.782
117.14
116.219
115.347
114.552
113.837
113.196
112.621
112.102
111.633
111.207
110.82
110.467
110.145
109.85
109.58
109.334
109.108
108.903
108.715
108.545
108.39
108.252
108.127
108.017
107.92
107.837
107.766
107.707
107.66
107.625
107.602
107.59
106.897
106.908
106.931
106.966
107.012
107.071
107.141
107.224
107.32
107.43
107.553
107.691
107.843
108.012
108.198
108.401
108.624
108.867
109.133
109.423
109.74
110.086
110.465
110.88
111.335
111.836
112.389
112.997
113.667
114.399
115.182
115.985
116.528
116.837
117.112
117.346
117.531
118.08
131.008
139.079
139.079
131.008
118.08
117.531
117.346
117.112
116.837
116.528
115.985
115.182
114.399
113.667
112.997
112.389
111.836
111.335
110.88
110.465
110.086
109.74
109.423
109.133
108.867
108.624
108.401
108.198
108.012
107.843
107.691
107.553
107.43
107.32
107.224
107.141
107.071
107.012
106.966
106.931
106.908
106.897
106.133
106.144
106.167
106.201
106.247
106.305
106.375
106.457
106.552
106.661
106.783
106.919
107.07
107.236
107.419
107.62
107.84
108.079
108.34
108.625
108.935
109.273
109.641
110.043
110.482
110.962
111.487
112.059
112.68
113.345
114.04
114.732
115.188
115.445
115.673
115.863
116.011
116.425
125.21
130.913
130.913
125.21
116.425
116.011
115.863
115.673
115.445
115.188
114.732
114.04
113.345
112.68
112.059
111.487
110.962
110.482
110.043
109.641
109.273
108.935
108.625
108.34
108.079
107.84
107.62
107.419
107.236
107.07
106.919
106.783
106.661
106.552
106.457
106.375
106.305
106.247
106.201
106.167
106.144
106.133
105.291
105.302
105.325
105.359
105.404
105.461
105.531
105.612
105.706
105.813
105.933
106.067
106.216
106.38
106.56
106.757
106.973
107.207
107.463
107.741
108.042
108.37
108.726
109.113
109.533
109.989
110.482
111.014
111.582
112.178
112.788
113.379
113.758
113.969
114.155
114.308
114.426
114.761
121.073
125.491
125.491
121.073
114.761
114.426
114.308
114.155
113.969
113.758
113.379
112.788
112.178
111.582
111.014
110.482
109.989
109.533
109.113
108.726
108.37
108.042
107.741
107.463
107.207
106.973
106.757
106.56
106.38
106.216
106.067
105.933
105.813
105.706
105.612
105.531
105.461
105.404
105.359
105.325
105.302
105.291
104.363
104.374
104.397
104.43
104.475
104.531
104.599
104.68
104.772
104.877
104.995
105.127
105.273
105.434
105.611
105.804
106.014
106.243
106.492
106.761
107.053
107.369
107.711
108.08
108.478
108.906
109.365
109.853
110.366
110.894
111.422
111.92
112.232
112.404
112.553
112.675
112.768
113.041
117.744
121.503
121.503
117.744
113.041
112.768
112.675
112.553
112.404
112.232
111.92
111.422
110.894
110.366
109.853
109.365
108.906
108.478
108.08
107.711
107.369
107.053
106.761
106.492
106.243
106.014
105.804
105.611
105.434
105.273
105.127
104.995
104.877
104.772
104.68
104.599
104.531
104.475
104.43
104.397
104.374
104.363
103.34
103.351
103.373
103.406
103.45
103.505
103.572
103.651
103.742
103.845
103.961
104.09
104.233
104.39
104.562
104.75
104.954
105.176
105.416
105.676
105.956
106.258
106.583
106.932
107.306
107.704
108.125
108.568
109.025
109.487
109.937
110.352
110.605
110.743
110.861
110.956
111.026
111.234
114.688
118.132
118.132
114.688
111.234
111.026
110.956
110.861
110.743
110.605
110.352
109.937
109.487
109.025
108.568
108.125
107.704
107.306
106.932
106.583
106.258
105.956
105.676
105.416
105.176
104.954
104.75
104.562
104.39
104.233
104.09
103.961
103.845
103.742
103.651
103.572
103.505
103.45
103.406
103.373
103.351
103.34
102.212
102.223
102.244
102.276
102.32
102.374
102.439
102.516
102.605
102.705
102.818
102.944
103.083
103.235
103.402
103.584
103.781
103.995
104.225
104.474
104.741
105.027
105.333
105.66
106.006
106.371
106.754
107.149
107.551
107.95
108.329
108.671
108.873
108.981
109.072
109.143
109.193
109.325
111.605
114.927
114.927
111.605
109.325
109.193
109.143
109.072
108.981
108.873
108.671
108.329
107.95
107.551
107.149
106.754
106.371
106.006
105.66
105.333
105.027
104.741
104.474
104.225
103.995
103.781
103.584
103.402
103.235
103.083
102.944
102.818
102.705
102.605
102.516
102.439
102.374
102.32
102.276
102.244
102.223
102.212
100.888
100.899
100.919
100.951
100.993
101.045
101.109
101.183
101.269
101.367
101.476
101.597
101.731
101.878
102.039
102.213
102.401
102.605
102.823
103.058
103.309
103.576
103.86
104.161
104.476
104.805
105.145
105.49
105.835
106.17
106.482
106.754
106.91
106.992
107.058
107.108
107.138
107.192
108.218
111.534
111.534
108.218
107.192
107.138
107.108
107.058
106.992
106.91
106.754
106.482
106.17
105.835
105.49
105.145
104.805
104.476
104.161
103.86
103.576
103.309
103.058
102.823
102.605
102.401
102.213
102.039
101.878
101.731
101.597
101.476
101.367
101.269
101.183
101.109
101.045
100.993
100.951
100.919
100.899
100.888
99.4173
99.4274
99.4475
99.4778
99.5182
99.569
99.6303
99.7021
99.7847
99.8783
99.9831
100.099
100.228
100.368
100.52
100.686
100.864
101.056
101.261
101.48
101.713
101.96
102.219
102.492
102.775
103.066
103.363
103.661
103.953
104.23
104.483
104.698
104.816
104.876
104.923
104.956
104.972
104.971
104.965
108.359
108.359
104.965
104.971
104.972
104.956
104.923
104.876
104.816
104.698
104.483
104.23
103.953
103.661
103.363
103.066
102.775
102.492
102.219
101.96
101.713
101.48
101.261
101.056
100.864
100.686
100.52
100.368
100.228
100.099
99.9831
99.8783
99.7847
99.7021
99.6303
99.569
99.5182
99.4778
99.4475
99.4274
99.4173
97.9365
97.9462
97.9655
97.9946
98.0335
98.0823
98.1411
98.21
98.2892
98.3788
98.4789
98.5899
98.7118
98.845
98.9895
99.1457
99.3136
99.4933
99.6849
99.8884
100.103
100.33
100.566
100.812
101.065
101.322
101.582
101.838
102.085
102.315
102.521
102.692
102.783
102.828
102.863
102.885
102.894
102.89
102.88
106.138
106.138
102.88
102.89
102.894
102.885
102.863
102.828
102.783
102.692
102.521
102.315
102.085
101.838
101.582
101.322
101.065
100.812
100.566
100.33
100.103
99.8884
99.6849
99.4933
99.3136
99.1457
98.9895
98.845
98.7118
98.5899
98.4789
98.3788
98.2892
98.21
98.1411
98.0823
98.0335
97.9946
97.9655
97.9462
97.9365
96.446
96.4552
96.4738
96.5017
96.539
96.5857
96.6419
96.7077
96.7832
96.8686
96.9639
97.0693
97.1849
97.3108
97.4471
97.5939
97.7512
97.9189
98.0969
98.285
98.4826
98.6891
98.9035
99.1243
99.3496
99.5769
99.8029
100.023
100.233
100.426
100.594
100.732
100.803
100.838
100.863
100.879
100.885
100.88
100.872
104.133
104.133
100.872
100.88
100.885
100.879
100.863
100.838
100.803
100.732
100.594
100.426
100.233
100.023
99.8029
99.5769
99.3496
99.1243
98.9035
98.6891
98.4826
98.285
98.0969
97.9189
97.7512
97.5939
97.4471
97.3108
97.1849
97.0693
96.9639
96.8686
96.7832
96.7077
96.6419
96.5857
96.539
96.5017
96.4738
96.4552
96.446
94.9462
94.955
94.9728
94.9994
95.0349
95.0795
95.133
95.1957
95.2675
95.3485
95.4388
95.5385
95.6476
95.7662
95.8942
96.0316
96.1783
96.3342
96.4989
96.672
96.853
97.0409
97.2345
97.4325
97.6328
97.8329
98.0298
98.2195
98.3978
98.5595
98.6991
98.8106
98.8669
98.8942
98.9138
98.9255
98.9288
98.9238
98.915
102.218
102.218
98.915
98.9238
98.9288
98.9255
98.9138
98.8942
98.8669
98.8106
98.6991
98.5595
98.3978
98.2195
98.0298
97.8329
97.6328
97.4325
97.2345
97.0409
96.853
96.672
96.4989
96.3342
96.1783
96.0316
95.8942
95.7662
95.6476
95.5385
95.4388
95.3485
95.2675
95.1957
95.133
95.0795
95.0349
94.9994
94.9728
94.955
94.9462
93.4375
93.4459
93.4628
93.4881
93.522
93.5643
93.6151
93.6745
93.7425
93.8191
93.9044
93.9984
94.1009
94.2121
94.3319
94.46
94.5964
94.7407
94.8925
95.0513
95.2164
95.3868
95.5613
95.7384
95.9161
96.0922
96.2637
96.4274
96.5794
96.7157
96.8317
96.923
96.9681
96.9896
97.0048
97.0132
97.0149
97.0097
97.0008
100.366
100.366
97.0008
97.0097
97.0149
97.0132
97.0048
96.9896
96.9681
96.923
96.8317
96.7157
96.5794
96.4274
96.2637
96.0922
95.9161
95.7384
95.5613
95.3868
95.2164
95.0513
94.8925
94.7407
94.5964
94.46
94.3319
94.2121
94.1009
93.9984
93.9044
93.8191
93.7425
93.6745
93.6151
93.5643
93.522
93.4881
93.4628
93.4459
93.4375
91.9204
91.9284
91.9444
91.9684
92.0005
92.0405
92.0886
92.1447
92.2089
92.2811
92.3613
92.4495
92.5456
92.6496
92.7611
92.8802
93.0065
93.1396
93.2791
93.4243
93.5744
93.7286
93.8855
94.0436
94.2011
94.3559
94.5055
94.6468
94.7769
94.8921
94.9891
95.0642
95.1006
95.1177
95.1293
95.1354
95.1358
95.1304
95.1215
98.5666
98.5666
95.1215
95.1304
95.1358
95.1354
95.1293
95.1177
95.1006
95.0642
94.9891
94.8921
94.7769
94.6468
94.5055
94.3559
94.2011
94.0436
93.8855
93.7286
93.5744
93.4243
93.2791
93.1396
93.0065
92.8802
92.7611
92.6496
92.5456
92.4495
92.3613
92.2811
92.2089
92.1447
92.0886
92.0405
92.0005
91.9684
91.9444
91.9284
91.9204
90.3953
90.4029
90.418
90.4407
90.4709
90.5087
90.554
90.6069
90.6672
90.735
90.8102
90.8928
90.9825
91.0793
91.1829
91.2932
91.4098
91.5322
91.6599
91.7923
91.9286
92.0677
92.2084
92.3494
92.4889
92.625
92.7554
92.8776
92.9891
93.0869
93.1682
93.2304
93.2597
93.2733
93.2822
93.2864
93.2857
93.2802
93.2713
96.8129
96.8129
93.2713
93.2802
93.2857
93.2864
93.2822
93.2733
93.2597
93.2304
93.1682
93.0869
92.9891
92.8776
92.7554
92.625
92.4889
92.3494
92.2084
92.0677
91.9286
91.7923
91.6599
91.5322
91.4098
91.2932
91.1829
91.0793
90.9825
90.8928
90.8102
90.735
90.6672
90.6069
90.554
90.5087
90.4709
90.4407
90.418
90.4029
90.3953
88.8627
88.8698
88.8841
88.9054
88.9339
88.9694
89.012
89.0616
89.1181
89.1816
89.2518
89.3288
89.4123
89.5022
89.5981
89.6999
89.8072
89.9194
90.0361
90.1565
90.2798
90.4051
90.5312
90.6567
90.7801
90.8997
91.0134
91.1193
91.2149
91.2981
91.3665
91.418
91.4417
91.4524
91.4591
91.4618
91.4603
91.4547
91.4458
95.1016
95.1016
91.4458
91.4547
91.4603
91.4618
91.4591
91.4524
91.4417
91.418
91.3665
91.2981
91.2149
91.1193
91.0134
90.8997
90.7801
90.6567
90.5312
90.4051
90.2798
90.1565
90.0361
89.9194
89.8072
89.6999
89.5981
89.5022
89.4123
89.3288
89.2518
89.1816
89.1181
89.0616
89.012
88.9694
88.9339
88.9054
88.8841
88.8698
88.8627
87.3229
87.3296
87.343
87.363
87.3897
87.423
87.4629
87.5093
87.5621
87.6213
87.6868
87.7583
87.8358
87.9189
88.0075
88.1012
88.1996
88.3022
88.4085
88.5177
88.6291
88.7417
88.8544
88.9661
89.0752
89.1802
89.2794
89.3711
89.4532
89.524
89.5816
89.6243
89.6434
89.6517
89.6566
89.658
89.6559
89.6502
89.6413
93.4303
93.4303
89.6413
89.6502
89.6559
89.658
89.6566
89.6517
89.6434
89.6243
89.5816
89.524
89.4532
89.3711
89.2794
89.1802
89.0752
88.9661
88.8544
88.7417
88.6291
88.5177
88.4085
88.3022
88.1996
88.1012
88.0075
87.9189
87.8358
87.7583
87.6868
87.6213
87.5621
87.5093
87.4629
87.423
87.3897
87.363
87.343
87.3296
87.3229
85.7765
85.7827
85.7953
85.814
85.8389
85.8701
85.9073
85.9505
85.9998
86.0548
86.1156
86.1819
86.2535
86.3302
86.4118
86.4978
86.5878
86.6814
86.7779
86.8768
86.9772
87.0782
87.1788
87.278
87.3743
87.4665
87.553
87.6324
87.7029
87.7632
87.8116
87.8469
87.8621
87.8685
87.8719
87.8723
87.8696
87.8638
87.8549
91.7981
91.7981
87.8549
87.8638
87.8696
87.8723
87.8719
87.8685
87.8621
87.8469
87.8116
87.7632
87.7029
87.6324
87.553
87.4665
87.3743
87.278
87.1788
87.0782
86.9772
86.8768
86.7779
86.6814
86.5878
86.4978
86.4118
86.3302
86.2535
86.1819
86.1156
86.0548
85.9998
85.9505
85.9073
85.8701
85.8389
85.814
85.7953
85.7827
85.7765
84.2238
84.2296
84.2413
84.2588
84.282
84.311
84.3456
84.3859
84.4316
84.4826
84.5388
84.6001
84.6662
84.7368
84.8116
84.8903
84.9725
85.0576
85.1451
85.2344
85.3246
85.4151
85.5048
85.5926
85.6776
85.7584
85.8338
85.9024
85.963
86.0142
86.0548
86.0838
86.0957
86.1004
86.1025
86.102
86.0988
86.0929
86.0842
90.2056
90.2056
86.0842
86.0929
86.0988
86.102
86.1025
86.1004
86.0957
86.0838
86.0548
86.0142
85.963
85.9024
85.8338
85.7584
85.6776
85.5926
85.5048
85.4151
85.3246
85.2344
85.1451
85.0576
84.9725
84.8903
84.8116
84.7368
84.6662
84.6001
84.5388
84.4826
84.4316
84.3859
84.3456
84.311
84.282
84.2588
84.2413
84.2296
84.2238
82.6652
82.6706
82.6815
82.6978
82.7194
82.7463
82.7784
82.8157
82.858
82.9052
82.9571
83.0135
83.0743
83.139
83.2075
83.2794
83.3541
83.4314
83.5105
83.5909
83.6719
83.7527
83.8325
83.9102
83.985
84.0557
84.1213
84.1806
84.2324
84.2758
84.3097
84.3332
84.3422
84.3455
84.3466
84.3453
84.3416
84.3357
84.327
88.6548
88.6548
84.327
84.3357
84.3416
84.3453
84.3466
84.3455
84.3422
84.3332
84.3097
84.2758
84.2324
84.1806
84.1213
84.0557
83.985
83.9102
83.8325
83.7527
83.6719
83.5909
83.5105
83.4314
83.3541
83.2794
83.2075
83.139
83.0743
83.0135
82.9571
82.9052
82.858
82.8157
82.7784
82.7463
82.7194
82.6978
82.6815
82.6706
82.6652
81.1012
81.1062
81.1163
81.1314
81.1514
81.1763
81.2061
81.2405
81.2796
81.3231
81.3708
81.4227
81.4784
81.5376
81.6001
81.6655
81.7334
81.8033
81.8746
81.9469
82.0194
82.0914
82.1622
82.2308
82.2965
82.3582
82.4151
82.4661
82.5103
82.5468
82.5748
82.5937
82.6002
82.6023
82.6023
82.6003
82.5963
82.5902
82.5816
87.1493
87.1493
82.5816
82.5902
82.5963
82.6003
82.6023
82.6023
82.6002
82.5937
82.5748
82.5468
82.5103
82.4661
82.4151
82.3582
82.2965
82.2308
82.1622
82.0914
82.0194
81.9469
81.8746
81.8033
81.7334
81.6655
81.6001
81.5376
81.4784
81.4227
81.3708
81.3231
81.2796
81.2405
81.2061
81.1763
81.1514
81.1314
81.1163
81.1062
81.1012
79.5322
79.5368
79.5461
79.5601
79.5786
79.6016
79.629
79.6607
79.6967
79.7366
79.7805
79.828
79.8789
79.9329
79.9898
80.0492
80.1106
80.1737
80.2379
80.3026
80.3673
80.4314
80.494
80.5544
80.6119
80.6656
80.7148
80.7584
80.7959
80.8264
80.8492
80.8639
80.8682
80.8691
80.8683
80.8657
80.8613
80.8551
80.8466
85.6951
85.6951
80.8466
80.8551
80.8613
80.8657
80.8683
80.8691
80.8682
80.8639
80.8492
80.8264
80.7959
80.7584
80.7148
80.6656
80.6119
80.5544
80.494
80.4314
80.3673
80.3026
80.2379
80.1737
80.1106
80.0492
79.9898
79.9329
79.8789
79.828
79.7805
79.7366
79.6967
79.6607
79.629
79.6016
79.5786
79.5601
79.5461
79.5368
79.5322
77.9584
77.9628
77.9713
77.9842
78.0012
78.0224
78.0476
78.0768
78.1097
78.1464
78.1865
78.2298
78.2763
78.3254
78.377
78.4308
78.4862
78.5429
78.6005
78.6584
78.716
78.7727
78.8279
78.881
78.9311
78.9777
79.0199
79.057
79.0884
79.1136
79.1318
79.1427
79.145
79.145
79.1433
79.1401
79.1353
79.129
79.1206
84.3004
84.3004
79.1206
79.129
79.1353
79.1401
79.1433
79.145
79.145
79.1427
79.1318
79.1136
79.0884
79.057
79.0199
78.9777
78.9311
78.881
78.8279
78.7727
78.716
78.6584
78.6005
78.5429
78.4862
78.4308
78.377
78.3254
78.2763
78.2298
78.1865
78.1464
78.1097
78.0768
78.0476
78.0224
78.0012
77.9842
77.9713
77.9628
77.9584
76.3804
76.3844
76.3923
76.4041
76.4197
76.4392
76.4623
76.489
76.5192
76.5526
76.5892
76.6287
76.6709
76.7154
76.7621
76.8106
76.8605
76.9114
76.9629
77.0144
77.0655
77.1156
77.1641
77.2104
77.2539
77.294
77.33
77.3613
77.3873
77.4076
77.4217
77.4292
77.4297
77.4286
77.4262
77.4224
77.4173
77.4107
77.4024
82.9798
82.9798
77.4024
77.4107
77.4173
77.4224
77.4262
77.4286
77.4297
77.4292
77.4217
77.4076
77.3873
77.3613
77.33
77.294
77.2539
77.2104
77.1641
77.1156
77.0655
77.0144
76.9629
76.9114
76.8605
76.8106
76.7621
76.7154
76.6709
76.6287
76.5892
76.5526
76.5192
76.489
76.4623
76.4392
76.4197
76.4041
76.3923
76.3844
76.3804
74.7985
74.8021
74.8093
74.8201
74.8345
74.8522
74.8734
74.8978
74.9253
74.9558
74.989
75.0249
75.0631
75.1034
75.1455
75.1891
75.2338
75.2793
75.3251
75.3709
75.416
75.46
75.5024
75.5427
75.5802
75.6144
75.6448
75.6708
75.692
75.7079
75.7181
75.7225
75.7212
75.7192
75.716
75.7116
75.706
75.6993
75.6911
81.7539
81.7539
75.6911
75.6993
75.706
75.7116
75.716
75.7192
75.7212
75.7225
75.7181
75.7079
75.692
75.6708
75.6448
75.6144
75.5802
75.5427
75.5024
75.46
75.416
75.3709
75.3251
75.2793
75.2338
75.1891
75.1455
75.1034
75.0631
75.0249
74.989
74.9558
74.9253
74.8978
74.8734
74.8522
74.8345
74.8201
74.8093
74.8021
74.7985
73.2129
73.2162
73.2228
73.2327
73.2458
73.262
73.2812
73.3034
73.3284
73.3561
73.3862
73.4187
73.4532
73.4895
73.5273
73.5664
73.6064
73.6469
73.6875
73.7279
73.7676
73.8061
73.843
73.8777
73.9097
73.9387
73.964
73.9852
74.0019
74.0138
74.0205
74.0218
74.0188
74.0159
74.0119
74.0068
74.0008
73.9936
73.9856
80.6546
80.6546
73.9856
73.9936
74.0008
74.0068
74.0119
74.0159
74.0188
74.0218
74.0205
74.0138
74.0019
73.9852
73.964
73.9387
73.9097
73.8777
73.843
73.8061
73.7676
73.7279
73.6875
73.6469
73.6064
73.5664
73.5273
73.4895
73.4532
73.4187
73.3862
73.3561
73.3284
73.3034
73.2812
73.262
73.2458
73.2327
73.2228
73.2162
73.2129
71.624
71.627
71.633
71.642
71.6539
71.6686
71.6861
71.7063
71.7289
71.754
71.7812
71.8104
71.8415
71.8741
71.9079
71.9428
71.9784
72.0143
72.0502
72.0857
72.1204
72.1538
72.1856
72.2153
72.2424
72.2665
72.2872
72.3041
72.3168
72.3249
72.3283
72.3267
72.3219
72.318
72.3132
72.3073
72.3006
72.293
72.2851
79.7347
79.7347
72.2851
72.293
72.3006
72.3073
72.3132
72.318
72.3219
72.3267
72.3283
72.3249
72.3168
72.3041
72.2872
72.2665
72.2424
72.2153
72.1856
72.1538
72.1204
72.0857
72.0502
72.0143
71.9784
71.9428
71.9079
71.8741
71.8415
71.8104
71.7812
71.754
71.7289
71.7063
71.6861
71.6686
71.6539
71.642
71.633
71.627
71.624
70.0321
70.0348
70.0403
70.0484
70.0592
70.0726
70.0884
70.1066
70.1271
70.1496
70.1741
70.2004
70.2282
70.2573
70.2875
70.3185
70.35
70.3817
70.4132
70.4442
70.4744
70.5032
70.5304
70.5555
70.5781
70.5978
70.6143
70.6272
70.6361
70.6408
70.641
70.6365
70.63
70.625
70.6192
70.6125
70.605
70.5967
70.5888
79.0868
79.0868
70.5888
70.5967
70.605
70.6125
70.6192
70.625
70.63
70.6365
70.641
70.6408
70.6361
70.6272
70.6143
70.5978
70.5781
70.5555
70.5304
70.5032
70.4744
70.4442
70.4132
70.3817
70.35
70.3185
70.2875
70.2573
70.2282
70.2004
70.1741
70.1496
70.1271
70.1066
70.0884
70.0726
70.0592
70.0484
70.0403
70.0348
70.0321
68.4374
68.4399
68.4448
68.4522
68.4619
68.474
68.4883
68.5047
68.5231
68.5433
68.5653
68.5888
68.6136
68.6396
68.6664
68.6938
68.7215
68.7493
68.7768
68.8037
68.8296
68.8543
68.8772
68.8981
68.9167
68.9324
68.945
68.9542
68.9597
68.9611
68.9583
68.951
68.9426
68.9365
68.9295
68.9218
68.9132
68.904
68.8962
78.8761
78.8761
68.8962
68.904
68.9132
68.9218
68.9295
68.9365
68.9426
68.951
68.9583
68.9611
68.9597
68.9542
68.945
68.9324
68.9167
68.8981
68.8772
68.8543
68.8296
68.8037
68.7768
68.7493
68.7215
68.6938
68.6664
68.6396
68.6136
68.5888
68.5653
68.5433
68.5231
68.5047
68.4883
68.474
68.4619
68.4522
68.4448
68.4399
68.4374
66.8403
66.8425
66.847
66.8536
66.8624
66.8732
66.886
66.9007
66.9172
66.9353
66.955
66.9759
66.9979
67.0209
67.0446
67.0687
67.093
67.1172
67.141
67.1641
67.1862
67.207
67.2261
67.2432
67.258
67.2701
67.2792
67.285
67.2873
67.2857
67.28
67.2701
67.2596
67.2522
67.244
67.2349
67.225
67.2145
67.2065
79.3143
79.3143
67.2065
67.2145
67.225
67.2349
67.244
67.2522
67.2596
67.2701
67.28
67.2857
67.2873
67.285
67.2792
67.2701
67.258
67.2432
67.2261
67.207
67.1862
67.1641
67.141
67.1172
67.093
67.0687
67.0446
67.0209
66.9979
66.9759
66.955
66.9353
66.9172
66.9007
66.886
66.8732
66.8624
66.8536
66.847
66.8425
66.8403
65.2409
65.2429
65.2469
65.2529
65.2607
65.2704
65.2819
65.295
65.3097
65.3259
65.3433
65.3618
65.3813
65.4015
65.4223
65.4434
65.4645
65.4854
65.5059
65.5255
65.5442
65.5614
65.577
65.5906
65.602
65.6107
65.6166
65.6194
65.6187
65.6144
65.6061
65.5936
65.5812
65.5725
65.5628
65.552
65.5401
65.5273
65.5186
79.3581
79.3581
65.5186
65.5273
65.5401
65.552
65.5628
65.5725
65.5812
65.5936
65.6061
65.6144
65.6187
65.6194
65.6166
65.6107
65.602
65.5906
65.577
65.5614
65.5442
65.5255
65.5059
65.4854
65.4645
65.4434
65.4223
65.4015
65.3813
65.3618
65.3433
65.3259
65.3097
65.295
65.2819
65.2704
65.2607
65.2529
65.2469
65.2429
65.2409
63.6395
63.6413
63.6449
63.6502
63.6572
63.6659
63.6761
63.6878
63.7008
63.7151
63.7305
63.7468
63.764
63.7817
63.7998
63.818
63.8362
63.8541
63.8715
63.888
63.9034
63.9175
63.9299
63.9403
63.9485
63.9543
63.9572
63.9572
63.9538
63.947
63.9364
63.9218
63.9079
63.8982
63.8872
63.8746
63.8598
63.8415
63.8255
65.212
65.212
63.8255
63.8415
63.8598
63.8746
63.8872
63.8982
63.9079
63.9218
63.9364
63.947
63.9538
63.9572
63.9572
63.9543
63.9485
63.9403
63.9299
63.9175
63.9034
63.888
63.8715
63.8541
63.8362
63.818
63.7998
63.7817
63.764
63.7468
63.7305
63.7151
63.7008
63.6878
63.6761
63.6659
63.6572
63.6502
63.6449
63.6413
63.6395
62.0366
62.0382
62.0414
62.0461
62.0523
62.06
62.069
62.0794
62.0909
62.1035
62.117
62.1313
62.1463
62.1616
62.1773
62.193
62.2085
62.2237
62.2382
62.2518
62.2644
62.2755
62.2849
62.2925
62.2979
62.3008
62.3011
62.2985
62.2928
62.2837
62.2711
62.2549
62.2404
62.2307
62.2202
62.209
62.1973
62.1855
62.1747
63.4419
63.4419
62.1747
62.1855
62.1973
62.209
62.2202
62.2307
62.2404
62.2549
62.2711
62.2837
62.2928
62.2985
62.3011
62.3008
62.2979
62.2925
62.2849
62.2755
62.2644
62.2518
62.2382
62.2237
62.2085
62.193
62.1773
62.1616
62.1463
62.1313
62.117
62.1035
62.0909
62.0794
62.069
62.06
62.0523
62.0461
62.0414
62.0382
62.0366
60.4321
60.4335
60.4363
60.4405
60.446
60.4527
60.4607
60.4698
60.4799
60.4909
60.5027
60.5152
60.5281
60.5414
60.5548
60.5681
60.5812
60.5938
60.6058
60.6168
60.6267
60.6351
60.6419
60.6469
60.6496
60.6501
60.6479
60.6429
60.635
60.6239
60.6095
60.5919
60.5768
60.567
60.5567
60.5459
60.5349
60.5237
60.5126
61.7881
61.7881
60.5126
60.5237
60.5349
60.5459
60.5567
60.567
60.5768
60.5919
60.6095
60.6239
60.635
60.6429
60.6479
60.6501
60.6496
60.6469
60.6419
60.6351
60.6267
60.6168
60.6058
60.5938
60.5812
60.5681
60.5548
60.5414
60.5281
60.5152
60.5027
60.4909
60.4799
60.4698
60.4607
60.4527
60.446
60.4405
60.4363
60.4335
60.4321
58.8261
58.8274
58.8298
58.8335
58.8383
58.8443
58.8513
58.8592
58.868
58.8776
58.8878
58.8985
58.9096
58.9209
58.9323
58.9435
58.9544
58.9647
58.9743
58.9829
58.9904
58.9964
59.0008
59.0034
59.0038
59.0019
58.9975
58.9903
58.9803
58.9673
58.9512
58.9321
58.9162
58.906
58.8953
58.8842
58.8729
58.8613
58.8494
60.1478
60.1478
58.8494
58.8613
58.8729
58.8842
58.8953
58.906
58.9162
58.9321
58.9512
58.9673
58.9803
58.9903
58.9975
59.0019
59.0038
59.0034
59.0008
58.9964
58.9904
58.9829
58.9743
58.9647
58.9544
58.9435
58.9323
58.9209
58.9096
58.8985
58.8878
58.8776
58.868
58.8592
58.8513
58.8443
58.8383
58.8335
58.8298
58.8274
58.8261
57.2189
57.22
57.2222
57.2254
57.2296
57.2348
57.2408
57.2477
57.2553
57.2636
57.2724
57.2815
57.2909
57.3005
57.3099
57.3192
57.328
57.3363
57.3438
57.3502
57.3555
57.3594
57.3616
57.3619
57.3602
57.3563
57.3498
57.3406
57.3287
57.3138
57.2959
57.2751
57.2581
57.2472
57.2358
57.224
57.2119
57.1996
57.1868
58.5102
58.5102
57.1868
57.1996
57.2119
57.224
57.2358
57.2472
57.2581
57.2751
57.2959
57.3138
57.3287
57.3406
57.3498
57.3563
57.3602
57.3619
57.3616
57.3594
57.3555
57.3502
57.3438
57.3363
57.328
57.3192
57.3099
57.3005
57.2909
57.2815
57.2724
57.2636
57.2553
57.2477
57.2408
57.2348
57.2296
57.2254
57.2222
57.22
57.2189
55.6107
55.6116
55.6135
55.6163
55.6199
55.6244
55.6296
55.6355
55.6421
55.6491
55.6565
55.6643
55.6721
55.68
55.6878
55.6953
55.7023
55.7087
55.7142
55.7187
55.7221
55.7239
55.7242
55.7226
55.719
55.7131
55.7047
55.6938
55.68
55.6633
55.6436
55.6209
55.6024
55.5906
55.5783
55.5655
55.5524
55.5389
55.525
56.873
56.873
55.525
55.5389
55.5524
55.5655
55.5783
55.5906
55.6024
55.6209
55.6436
55.6633
55.68
55.6938
55.7047
55.7131
55.719
55.7226
55.7242
55.7239
55.7221
55.7187
55.7142
55.7087
55.7023
55.6953
55.6878
55.68
55.6721
55.6643
55.6565
55.6491
55.6421
55.6355
55.6296
55.6244
55.6199
55.6163
55.6135
55.6116
55.6107
54.0015
54.0023
54.0039
54.0063
54.0094
54.0132
54.0177
54.0227
54.0282
54.0342
54.0404
54.0468
54.0533
54.0598
54.066
54.0719
54.0772
54.0819
54.0857
54.0885
54.09
54.0901
54.0886
54.0853
54.08
54.0724
54.0624
54.0497
54.0342
54.0157
53.9942
53.9695
53.9494
53.9364
53.9229
53.9089
53.8945
53.8796