/*--------------------------------*- C++ -*----------------------------------*\
  =========                 |
  \\      /  F ield         | OpenFOAM: The Open Source CFD Toolbox
   \\    /   O peration     | Website:  https://openfoam.org
    \\  /    A nd           | Version:  10
     \\/     M anipulation  |
\*---------------------------------------------------------------------------*/
FoamFile
{
    format      ascii;
    class       volVectorField;
    location    "8500";
    object      Ub;
}
// * * * * * * * * * * * * * * * * * * * * * * * * * * * * * * * * * * * * * //

dimensions      [0 1 -1 0 0 0 0];

internalField   nonuniform List<vector> 
6400
(
(-4.22478e-21 -9.87899e-16 0)
(-1.26929e-20 -9.87899e-16 0)
(-2.1217e-20 -9.87899e-16 0)
(-2.98355e-20 -9.87899e-16 0)
(-3.85883e-20 -9.87899e-16 0)
(-4.75178e-20 -9.87899e-16 0)
(-5.66693e-20 -9.87899e-16 0)
(-6.60923e-20 -9.87899e-16 0)
(-7.58416e-20 -9.87899e-16 0)
(-8.59781e-20 -9.87899e-16 0)
(-9.65711e-20 -9.87899e-16 0)
(-1.077e-19 -9.87899e-16 0)
(-1.19456e-19 -9.87898e-16 0)
(-1.31948e-19 -9.87898e-16 0)
(-1.45303e-19 -9.87898e-16 0)
(-1.59673e-19 -9.87898e-16 0)
(-1.75245e-19 -9.87898e-16 0)
(-1.92246e-19 -9.87898e-16 0)
(-2.10962e-19 -9.87898e-16 0)
(-2.31751e-19 -9.87897e-16 0)
(-2.55076e-19 -9.87897e-16 0)
(-2.81543e-19 -9.87897e-16 0)
(-3.11963e-19 -9.87896e-16 0)
(-3.47448e-19 -9.87896e-16 0)
(-3.89574e-19 -9.87895e-16 0)
(-4.40647e-19 -9.87894e-16 0)
(-5.04209e-19 -9.87892e-16 0)
(-5.86007e-19 -9.8789e-16 0)
(-6.96048e-19 -9.87887e-16 0)
(-8.52915e-19 -9.87881e-16 0)
(-1.32316e-18 -9.87872e-16 0)
(-8.57144e-07 -1.18301e-15 0)
(-0.000156871 -4.37486e-05 0)
(-0.000319796 -1.4639e-06 0)
(-0.000325979 -2.63056e-06 0)
(-0.000315175 -5.3786e-06 0)
(-0.000285647 -1.0131e-05 0)
(-0.000229647 -1.70084e-05 0)
(-0.000147516 -2.18516e-05 0)
(-5.05385e-05 -2.3675e-05 0)
(5.05385e-05 -2.3675e-05 0)
(0.000147516 -2.18516e-05 0)
(0.000229647 -1.70084e-05 0)
(0.000285647 -1.0131e-05 0)
(0.000315175 -5.3786e-06 0)
(0.000325979 -2.63056e-06 0)
(0.000319796 -1.4639e-06 0)
(0.000156871 -4.37486e-05 0)
(8.57144e-07 -1.18301e-15 0)
(1.32316e-18 -9.87872e-16 0)
(8.52915e-19 -9.87881e-16 0)
(6.96048e-19 -9.87887e-16 0)
(5.86007e-19 -9.8789e-16 0)
(5.04209e-19 -9.87892e-16 0)
(4.40647e-19 -9.87894e-16 0)
(3.89574e-19 -9.87895e-16 0)
(3.47448e-19 -9.87896e-16 0)
(3.11963e-19 -9.87896e-16 0)
(2.81543e-19 -9.87897e-16 0)
(2.55076e-19 -9.87897e-16 0)
(2.31751e-19 -9.87897e-16 0)
(2.10962e-19 -9.87898e-16 0)
(1.92246e-19 -9.87898e-16 0)
(1.75245e-19 -9.87898e-16 0)
(1.59673e-19 -9.87898e-16 0)
(1.45303e-19 -9.87898e-16 0)
(1.31948e-19 -9.87898e-16 0)
(1.19456e-19 -9.87898e-16 0)
(1.077e-19 -9.87899e-16 0)
(9.65711e-20 -9.87899e-16 0)
(8.59781e-20 -9.87899e-16 0)
(7.58416e-20 -9.87899e-16 0)
(6.60923e-20 -9.87899e-16 0)
(5.66693e-20 -9.87899e-16 0)
(4.75178e-20 -9.87899e-16 0)
(3.85883e-20 -9.87899e-16 0)
(2.98355e-20 -9.87899e-16 0)
(2.1217e-20 -9.87899e-16 0)
(1.26929e-20 -9.87899e-16 0)
(4.22478e-21 -9.87899e-16 0)
(-4.22397e-21 -9.87896e-16 0)
(-1.26904e-20 -9.87896e-16 0)
(-2.12129e-20 -9.87896e-16 0)
(-2.98296e-20 -9.87896e-16 0)
(-3.85806e-20 -9.87896e-16 0)
(-4.75081e-20 -9.87896e-16 0)
(-5.66574e-20 -9.87896e-16 0)
(-6.60781e-20 -9.87895e-16 0)
(-7.58246e-20 -9.87895e-16 0)
(-8.59581e-20 -9.87895e-16 0)
(-9.65477e-20 -9.87895e-16 0)
(-1.07672e-19 -9.87895e-16 0)
(-1.19424e-19 -9.87895e-16 0)
(-1.3191e-19 -9.87894e-16 0)
(-1.45258e-19 -9.87894e-16 0)
(-1.5962e-19 -9.87894e-16 0)
(-1.75182e-19 -9.87893e-16 0)
(-1.92172e-19 -9.87893e-16 0)
(-2.10872e-19 -9.87892e-16 0)
(-2.31641e-19 -9.87892e-16 0)
(-2.5494e-19 -9.87891e-16 0)
(-2.81371e-19 -9.8789e-16 0)
(-3.11743e-19 -9.87888e-16 0)
(-3.4716e-19 -9.87886e-16 0)
(-3.89185e-19 -9.87884e-16 0)
(-4.40105e-19 -9.87881e-16 0)
(-5.03418e-19 -9.87876e-16 0)
(-5.84782e-19 -9.87869e-16 0)
(-6.94018e-19 -9.87859e-16 0)
(-8.49773e-19 -9.8784e-16 0)
(-1.09597e-18 -9.87809e-16 0)
(-3.06301e-18 -9.87849e-16 0)
(-7.98046e-07 -1.40709e-15 0)
(-0.000144683 8.72482e-07 0)
(-0.000294788 -2.82323e-06 0)
(-0.000295978 -1.35892e-05 0)
(-0.000272573 -2.88845e-05 0)
(-0.000220649 -5.10608e-05 0)
(-0.000141348 -6.60863e-05 0)
(-4.81969e-05 -7.13783e-05 0)
(4.81969e-05 -7.13783e-05 0)
(0.000141348 -6.60863e-05 0)
(0.000220649 -5.10608e-05 0)
(0.000272573 -2.88845e-05 0)
(0.000295978 -1.35892e-05 0)
(0.000294788 -2.82323e-06 0)
(0.000144683 8.72482e-07 0)
(7.98046e-07 -1.40709e-15 0)
(3.06301e-18 -9.87849e-16 0)
(1.09597e-18 -9.87809e-16 0)
(8.49773e-19 -9.8784e-16 0)
(6.94018e-19 -9.87859e-16 0)
(5.84782e-19 -9.87869e-16 0)
(5.03418e-19 -9.87876e-16 0)
(4.40105e-19 -9.87881e-16 0)
(3.89185e-19 -9.87884e-16 0)
(3.4716e-19 -9.87886e-16 0)
(3.11743e-19 -9.87888e-16 0)
(2.81371e-19 -9.8789e-16 0)
(2.5494e-19 -9.87891e-16 0)
(2.31641e-19 -9.87892e-16 0)
(2.10872e-19 -9.87892e-16 0)
(1.92172e-19 -9.87893e-16 0)
(1.75182e-19 -9.87893e-16 0)
(1.5962e-19 -9.87894e-16 0)
(1.45258e-19 -9.87894e-16 0)
(1.3191e-19 -9.87894e-16 0)
(1.19424e-19 -9.87895e-16 0)
(1.07672e-19 -9.87895e-16 0)
(9.65477e-20 -9.87895e-16 0)
(8.59581e-20 -9.87895e-16 0)
(7.58246e-20 -9.87895e-16 0)
(6.60781e-20 -9.87895e-16 0)
(5.66574e-20 -9.87896e-16 0)
(4.75081e-20 -9.87896e-16 0)
(3.85806e-20 -9.87896e-16 0)
(2.98296e-20 -9.87896e-16 0)
(2.12129e-20 -9.87896e-16 0)
(1.26904e-20 -9.87896e-16 0)
(4.22397e-21 -9.87896e-16 0)
(-4.22212e-21 -9.87894e-16 0)
(-1.26849e-20 -9.87894e-16 0)
(-2.12035e-20 -9.87894e-16 0)
(-2.98162e-20 -9.87894e-16 0)
(-3.8563e-20 -9.87894e-16 0)
(-4.74859e-20 -9.87894e-16 0)
(-5.66304e-20 -9.87893e-16 0)
(-6.60456e-20 -9.87893e-16 0)
(-7.5786e-20 -9.87893e-16 0)
(-8.59127e-20 -9.87893e-16 0)
(-9.64943e-20 -9.87893e-16 0)
(-1.0761e-19 -9.87892e-16 0)
(-1.19351e-19 -9.87892e-16 0)
(-1.31824e-19 -9.87891e-16 0)
(-1.45157e-19 -9.87891e-16 0)
(-1.59501e-19 -9.8789e-16 0)
(-1.7504e-19 -9.8789e-16 0)
(-1.92001e-19 -9.87889e-16 0)
(-2.10665e-19 -9.87888e-16 0)
(-2.31388e-19 -9.87886e-16 0)
(-2.54627e-19 -9.87885e-16 0)
(-2.80978e-19 -9.87883e-16 0)
(-3.11239e-19 -9.87881e-16 0)
(-3.465e-19 -9.87878e-16 0)
(-3.88296e-19 -9.87873e-16 0)
(-4.38866e-19 -9.87868e-16 0)
(-5.01611e-19 -9.8786e-16 0)
(-5.81988e-19 -9.87848e-16 0)
(-6.89369e-19 -9.87829e-16 0)
(-8.41615e-19 -9.87797e-16 0)
(-1.08331e-18 -9.87738e-16 0)
(-1.64151e-18 -9.87612e-16 0)
(-1.96836e-18 -9.86439e-16 0)
(-9.15987e-08 -1.01565e-15 0)
(-0.000118881 -1.10754e-06 0)
(-0.000258586 -9.61658e-06 0)
(-0.000267742 -4.60776e-05 0)
(-0.000221096 -8.86545e-05 0)
(-0.000140346 -0.000114993 0)
(-4.71948e-05 -0.000122524 0)
(4.71948e-05 -0.000122524 0)
(0.000140346 -0.000114993 0)
(0.000221096 -8.86545e-05 0)
(0.000267742 -4.60776e-05 0)
(0.000258586 -9.61658e-06 0)
(0.000118881 -1.10754e-06 0)
(9.15987e-08 -1.01565e-15 0)
(1.96836e-18 -9.86439e-16 0)
(1.64151e-18 -9.87612e-16 0)
(1.08331e-18 -9.87738e-16 0)
(8.41615e-19 -9.87797e-16 0)
(6.89369e-19 -9.87829e-16 0)
(5.81988e-19 -9.87848e-16 0)
(5.01611e-19 -9.8786e-16 0)
(4.38866e-19 -9.87868e-16 0)
(3.88296e-19 -9.87873e-16 0)
(3.465e-19 -9.87878e-16 0)
(3.11239e-19 -9.87881e-16 0)
(2.80978e-19 -9.87883e-16 0)
(2.54627e-19 -9.87885e-16 0)
(2.31388e-19 -9.87886e-16 0)
(2.10665e-19 -9.87888e-16 0)
(1.92001e-19 -9.87889e-16 0)
(1.7504e-19 -9.8789e-16 0)
(1.59501e-19 -9.8789e-16 0)
(1.45157e-19 -9.87891e-16 0)
(1.31824e-19 -9.87891e-16 0)
(1.19351e-19 -9.87892e-16 0)
(1.0761e-19 -9.87892e-16 0)
(9.64943e-20 -9.87893e-16 0)
(8.59127e-20 -9.87893e-16 0)
(7.5786e-20 -9.87893e-16 0)
(6.60456e-20 -9.87893e-16 0)
(5.66304e-20 -9.87893e-16 0)
(4.74859e-20 -9.87894e-16 0)
(3.8563e-20 -9.87894e-16 0)
(2.98162e-20 -9.87894e-16 0)
(2.12035e-20 -9.87894e-16 0)
(1.26849e-20 -9.87894e-16 0)
(4.22212e-21 -9.87894e-16 0)
(-4.21893e-21 -9.87892e-16 0)
(-1.26753e-20 -9.87892e-16 0)
(-2.11873e-20 -9.87892e-16 0)
(-2.97932e-20 -9.87892e-16 0)
(-3.85327e-20 -9.87891e-16 0)
(-4.74478e-20 -9.87891e-16 0)
(-5.65837e-20 -9.87891e-16 0)
(-6.59896e-20 -9.87891e-16 0)
(-7.57195e-20 -9.87891e-16 0)
(-8.58343e-20 -9.8789e-16 0)
(-9.64024e-20 -9.8789e-16 0)
(-1.07502e-19 -9.87889e-16 0)
(-1.19225e-19 -9.87889e-16 0)
(-1.31676e-19 -9.87888e-16 0)
(-1.44983e-19 -9.87887e-16 0)
(-1.59295e-19 -9.87887e-16 0)
(-1.74795e-19 -9.87885e-16 0)
(-1.91707e-19 -9.87884e-16 0)
(-2.1031e-19 -9.87883e-16 0)
(-2.30954e-19 -9.87881e-16 0)
(-2.54089e-19 -9.87879e-16 0)
(-2.80302e-19 -9.87876e-16 0)
(-3.10373e-19 -9.87872e-16 0)
(-3.45367e-19 -9.87868e-16 0)
(-3.86772e-19 -9.87862e-16 0)
(-4.36743e-19 -9.87854e-16 0)
(-4.98523e-19 -9.87842e-16 0)
(-5.7723e-19 -9.87825e-16 0)
(-6.81456e-19 -9.87798e-16 0)
(-8.27059e-19 -9.87752e-16 0)
(-1.04959e-18 -9.87664e-16 0)
(-1.44332e-18 -9.87443e-16 0)
(-1.58872e-18 -9.86599e-16 0)
(-1.3013e-18 -9.86234e-16 0)
(-9.32058e-09 -9.86255e-16 0)
(-8.48763e-05 -8.39669e-07 0)
(-0.00021639 -3.02338e-05 0)
(-0.00022756 -0.000131316 0)
(-0.000142471 -0.000171778 0)
(-4.64348e-05 -0.000177983 0)
(4.64348e-05 -0.000177983 0)
(0.000142471 -0.000171778 0)
(0.00022756 -0.000131316 0)
(0.00021639 -3.02338e-05 0)
(8.48763e-05 -8.39669e-07 0)
(9.32058e-09 -9.86255e-16 0)
(1.3013e-18 -9.86234e-16 0)
(1.58872e-18 -9.86599e-16 0)
(1.44332e-18 -9.87443e-16 0)
(1.04959e-18 -9.87664e-16 0)
(8.27059e-19 -9.87752e-16 0)
(6.81456e-19 -9.87798e-16 0)
(5.7723e-19 -9.87825e-16 0)
(4.98523e-19 -9.87842e-16 0)
(4.36743e-19 -9.87854e-16 0)
(3.86772e-19 -9.87862e-16 0)
(3.45367e-19 -9.87868e-16 0)
(3.10373e-19 -9.87872e-16 0)
(2.80302e-19 -9.87876e-16 0)
(2.54089e-19 -9.87879e-16 0)
(2.30954e-19 -9.87881e-16 0)
(2.1031e-19 -9.87883e-16 0)
(1.91707e-19 -9.87884e-16 0)
(1.74795e-19 -9.87885e-16 0)
(1.59295e-19 -9.87887e-16 0)
(1.44983e-19 -9.87887e-16 0)
(1.31676e-19 -9.87888e-16 0)
(1.19225e-19 -9.87889e-16 0)
(1.07502e-19 -9.87889e-16 0)
(9.64024e-20 -9.8789e-16 0)
(8.58343e-20 -9.8789e-16 0)
(7.57195e-20 -9.87891e-16 0)
(6.59896e-20 -9.87891e-16 0)
(5.65837e-20 -9.87891e-16 0)
(4.74478e-20 -9.87891e-16 0)
(3.85327e-20 -9.87891e-16 0)
(2.97932e-20 -9.87892e-16 0)
(2.11873e-20 -9.87892e-16 0)
(1.26753e-20 -9.87892e-16 0)
(4.21893e-21 -9.87892e-16 0)
(-4.21404e-21 -9.87889e-16 0)
(-1.26605e-20 -9.87889e-16 0)
(-2.11624e-20 -9.87889e-16 0)
(-2.97578e-20 -9.87889e-16 0)
(-3.84861e-20 -9.87889e-16 0)
(-4.73893e-20 -9.87889e-16 0)
(-5.65122e-20 -9.87888e-16 0)
(-6.59037e-20 -9.87888e-16 0)
(-7.56176e-20 -9.87888e-16 0)
(-8.57141e-20 -9.87887e-16 0)
(-9.62613e-20 -9.87887e-16 0)
(-1.07337e-19 -9.87886e-16 0)
(-1.19031e-19 -9.87885e-16 0)
(-1.31449e-19 -9.87885e-16 0)
(-1.44716e-19 -9.87884e-16 0)
(-1.58979e-19 -9.87882e-16 0)
(-1.74419e-19 -9.87881e-16 0)
(-1.91257e-19 -9.87879e-16 0)
(-2.09766e-19 -9.87877e-16 0)
(-2.3029e-19 -9.87875e-16 0)
(-2.53267e-19 -9.87872e-16 0)
(-2.79269e-19 -9.87868e-16 0)
(-3.09052e-19 -9.87863e-16 0)
(-3.4364e-19 -9.87857e-16 0)
(-3.84453e-19 -9.87849e-16 0)
(-4.33525e-19 -9.87838e-16 0)
(-4.9386e-19 -9.87823e-16 0)
(-5.70086e-19 -9.87801e-16 0)
(-6.69658e-19 -9.87765e-16 0)
(-8.05291e-19 -9.87706e-16 0)
(-9.99679e-19 -9.87593e-16 0)
(-1.26993e-18 -9.87329e-16 0)
(-1.34892e-18 -9.86716e-16 0)
(-1.14488e-18 -9.86429e-16 0)
(-9.0753e-19 -9.86282e-16 0)
(-3.04084e-08 -1.01679e-15 0)
(-7.49115e-05 -3.32517e-06 0)
(-0.000170662 -0.000144673 0)
(-0.000139019 -0.00023902 0)
(-4.3238e-05 -0.000236943 0)
(4.3238e-05 -0.000236943 0)
(0.000139019 -0.00023902 0)
(0.000170662 -0.000144673 0)
(7.49115e-05 -3.32517e-06 0)
(3.04084e-08 -1.01679e-15 0)
(9.0753e-19 -9.86282e-16 0)
(1.14488e-18 -9.86429e-16 0)
(1.34892e-18 -9.86716e-16 0)
(1.26993e-18 -9.87329e-16 0)
(9.99679e-19 -9.87593e-16 0)
(8.05291e-19 -9.87706e-16 0)
(6.69658e-19 -9.87765e-16 0)
(5.70086e-19 -9.87801e-16 0)
(4.9386e-19 -9.87823e-16 0)
(4.33525e-19 -9.87838e-16 0)
(3.84453e-19 -9.87849e-16 0)
(3.4364e-19 -9.87857e-16 0)
(3.09052e-19 -9.87863e-16 0)
(2.79269e-19 -9.87868e-16 0)
(2.53267e-19 -9.87872e-16 0)
(2.3029e-19 -9.87875e-16 0)
(2.09766e-19 -9.87877e-16 0)
(1.91257e-19 -9.87879e-16 0)
(1.74419e-19 -9.87881e-16 0)
(1.58979e-19 -9.87882e-16 0)
(1.44716e-19 -9.87884e-16 0)
(1.31449e-19 -9.87885e-16 0)
(1.19031e-19 -9.87885e-16 0)
(1.07337e-19 -9.87886e-16 0)
(9.62613e-20 -9.87887e-16 0)
(8.57141e-20 -9.87887e-16 0)
(7.56176e-20 -9.87888e-16 0)
(6.59037e-20 -9.87888e-16 0)
(5.65122e-20 -9.87888e-16 0)
(4.73893e-20 -9.87889e-16 0)
(3.84861e-20 -9.87889e-16 0)
(2.97578e-20 -9.87889e-16 0)
(2.11624e-20 -9.87889e-16 0)
(1.26605e-20 -9.87889e-16 0)
(4.21404e-21 -9.87889e-16 0)
(-4.20701e-21 -9.87887e-16 0)
(-1.26393e-20 -9.87887e-16 0)
(-2.11267e-20 -9.87887e-16 0)
(-2.97069e-20 -9.87886e-16 0)
(-3.84192e-20 -9.87886e-16 0)
(-4.73052e-20 -9.87886e-16 0)
(-5.64094e-20 -9.87886e-16 0)
(-6.57802e-20 -9.87885e-16 0)
(-7.5471e-20 -9.87885e-16 0)
(-8.55414e-20 -9.87884e-16 0)
(-9.60587e-20 -9.87883e-16 0)
(-1.071e-19 -9.87883e-16 0)
(-1.18754e-19 -9.87882e-16 0)
(-1.31124e-19 -9.87881e-16 0)
(-1.44332e-19 -9.87879e-16 0)
(-1.58526e-19 -9.87878e-16 0)
(-1.73881e-19 -9.87876e-16 0)
(-1.90612e-19 -9.87874e-16 0)
(-2.08987e-19 -9.87871e-16 0)
(-2.29338e-19 -9.87868e-16 0)
(-2.52091e-19 -9.87864e-16 0)
(-2.77793e-19 -9.8786e-16 0)
(-3.07167e-19 -9.87854e-16 0)
(-3.41181e-19 -9.87846e-16 0)
(-3.81161e-19 -9.87836e-16 0)
(-4.28972e-19 -9.87822e-16 0)
(-4.87304e-19 -9.87803e-16 0)
(-5.60133e-19 -9.87775e-16 0)
(-6.53444e-19 -9.87732e-16 0)
(-7.76086e-19 -9.8766e-16 0)
(-9.38057e-19 -9.8753e-16 0)
(-1.11703e-18 -9.87255e-16 0)
(-1.1509e-18 -9.86805e-16 0)
(-1.00743e-18 -9.86579e-16 0)
(-8.17653e-19 -9.86443e-16 0)
(-2.86932e-14 -9.86391e-16 0)
(-4.38501e-06 -4.86951e-11 0)
(-7.25814e-05 -0.000100449 0)
(-0.000100444 -0.000303934 0)
(-3.22478e-05 -0.000292624 0)
(3.22478e-05 -0.000292624 0)
(0.000100444 -0.000303934 0)
(7.25814e-05 -0.000100449 0)
(4.38501e-06 -4.86951e-11 0)
(2.86932e-14 -9.86391e-16 0)
(8.17653e-19 -9.86443e-16 0)
(1.00743e-18 -9.86579e-16 0)
(1.1509e-18 -9.86805e-16 0)
(1.11703e-18 -9.87255e-16 0)
(9.38057e-19 -9.8753e-16 0)
(7.76086e-19 -9.8766e-16 0)
(6.53444e-19 -9.87732e-16 0)
(5.60133e-19 -9.87775e-16 0)
(4.87304e-19 -9.87803e-16 0)
(4.28972e-19 -9.87822e-16 0)
(3.81161e-19 -9.87836e-16 0)
(3.41181e-19 -9.87846e-16 0)
(3.07167e-19 -9.87854e-16 0)
(2.77793e-19 -9.8786e-16 0)
(2.52091e-19 -9.87864e-16 0)
(2.29338e-19 -9.87868e-16 0)
(2.08987e-19 -9.87871e-16 0)
(1.90612e-19 -9.87874e-16 0)
(1.73881e-19 -9.87876e-16 0)
(1.58526e-19 -9.87878e-16 0)
(1.44332e-19 -9.87879e-16 0)
(1.31124e-19 -9.87881e-16 0)
(1.18754e-19 -9.87882e-16 0)
(1.071e-19 -9.87883e-16 0)
(9.60587e-20 -9.87883e-16 0)
(8.55414e-20 -9.87884e-16 0)
(7.5471e-20 -9.87885e-16 0)
(6.57802e-20 -9.87885e-16 0)
(5.64094e-20 -9.87886e-16 0)
(4.73052e-20 -9.87886e-16 0)
(3.84192e-20 -9.87886e-16 0)
(2.97069e-20 -9.87886e-16 0)
(2.11267e-20 -9.87887e-16 0)
(1.26393e-20 -9.87887e-16 0)
(4.20701e-21 -9.87887e-16 0)
(-4.1973e-21 -9.87884e-16 0)
(-1.261e-20 -9.87884e-16 0)
(-2.10773e-20 -9.87884e-16 0)
(-2.96367e-20 -9.87884e-16 0)
(-3.83269e-20 -9.87883e-16 0)
(-4.71892e-20 -9.87883e-16 0)
(-5.62675e-20 -9.87882e-16 0)
(-6.56099e-20 -9.87882e-16 0)
(-7.52688e-20 -9.87881e-16 0)
(-8.53032e-20 -9.87881e-16 0)
(-9.57793e-20 -9.8788e-16 0)
(-1.06773e-19 -9.87879e-16 0)
(-1.18371e-19 -9.87878e-16 0)
(-1.30675e-19 -9.87876e-16 0)
(-1.43804e-19 -9.87875e-16 0)
(-1.57902e-19 -9.87873e-16 0)
(-1.7314e-19 -9.87871e-16 0)
(-1.89726e-19 -9.87868e-16 0)
(-2.07916e-19 -9.87865e-16 0)
(-2.28033e-19 -9.87861e-16 0)
(-2.50479e-19 -9.87856e-16 0)
(-2.75774e-19 -9.8785e-16 0)
(-3.04594e-19 -9.87843e-16 0)
(-3.37833e-19 -9.87834e-16 0)
(-3.76695e-19 -9.87821e-16 0)
(-4.22831e-19 -9.87805e-16 0)
(-4.78531e-19 -9.87782e-16 0)
(-5.4698e-19 -9.87748e-16 0)
(-6.3246e-19 -9.87698e-16 0)
(-7.39759e-19 -9.87617e-16 0)
(-8.68613e-19 -9.87475e-16 0)
(-9.81076e-19 -9.87212e-16 0)
(-9.85506e-19 -9.86875e-16 0)
(-8.8227e-19 -9.86696e-16 0)
(-7.45414e-19 -9.86572e-16 0)
(-2.48447e-17 -9.86506e-16 0)
(-3.23534e-07 -4.64882e-14 0)
(-3.06934e-05 -4.90729e-05 0)
(-4.76232e-05 -0.000344848 0)
(-1.72534e-05 -0.000334032 0)
(1.72534e-05 -0.000334032 0)
(4.76232e-05 -0.000344848 0)
(3.06934e-05 -4.90729e-05 0)
(3.23534e-07 -4.64882e-14 0)
(2.48447e-17 -9.86506e-16 0)
(7.45414e-19 -9.86572e-16 0)
(8.8227e-19 -9.86696e-16 0)
(9.85506e-19 -9.86875e-16 0)
(9.81076e-19 -9.87212e-16 0)
(8.68613e-19 -9.87475e-16 0)
(7.39759e-19 -9.87617e-16 0)
(6.3246e-19 -9.87698e-16 0)
(5.4698e-19 -9.87748e-16 0)
(4.78531e-19 -9.87782e-16 0)
(4.22831e-19 -9.87805e-16 0)
(3.76695e-19 -9.87821e-16 0)
(3.37833e-19 -9.87834e-16 0)
(3.04594e-19 -9.87843e-16 0)
(2.75774e-19 -9.8785e-16 0)
(2.50479e-19 -9.87856e-16 0)
(2.28033e-19 -9.87861e-16 0)
(2.07916e-19 -9.87865e-16 0)
(1.89726e-19 -9.87868e-16 0)
(1.7314e-19 -9.87871e-16 0)
(1.57902e-19 -9.87873e-16 0)
(1.43804e-19 -9.87875e-16 0)
(1.30675e-19 -9.87876e-16 0)
(1.18371e-19 -9.87878e-16 0)
(1.06773e-19 -9.87879e-16 0)
(9.57793e-20 -9.8788e-16 0)
(8.53032e-20 -9.87881e-16 0)
(7.52688e-20 -9.87881e-16 0)
(6.56099e-20 -9.87882e-16 0)
(5.62675e-20 -9.87882e-16 0)
(4.71892e-20 -9.87883e-16 0)
(3.83269e-20 -9.87883e-16 0)
(2.96367e-20 -9.87884e-16 0)
(2.10773e-20 -9.87884e-16 0)
(1.261e-20 -9.87884e-16 0)
(4.1973e-21 -9.87884e-16 0)
(-4.18428e-21 -9.87881e-16 0)
(-1.25707e-20 -9.87881e-16 0)
(-2.10111e-20 -9.87881e-16 0)
(-2.95424e-20 -9.8788e-16 0)
(-3.82031e-20 -9.8788e-16 0)
(-4.70335e-20 -9.8788e-16 0)
(-5.60773e-20 -9.87879e-16 0)
(-6.53814e-20 -9.87878e-16 0)
(-7.49978e-20 -9.87878e-16 0)
(-8.4984e-20 -9.87877e-16 0)
(-9.54049e-20 -9.87876e-16 0)
(-1.06335e-19 -9.87875e-16 0)
(-1.17858e-19 -9.87873e-16 0)
(-1.30074e-19 -9.87872e-16 0)
(-1.43098e-19 -9.8787e-16 0)
(-1.57069e-19 -9.87867e-16 0)
(-1.7215e-19 -9.87865e-16 0)
(-1.88542e-19 -9.87862e-16 0)
(-2.06489e-19 -9.87858e-16 0)
(-2.26295e-19 -9.87853e-16 0)
(-2.48337e-19 -9.87848e-16 0)
(-2.73096e-19 -9.87841e-16 0)
(-3.01191e-19 -9.87832e-16 0)
(-3.33422e-19 -9.87821e-16 0)
(-3.70841e-19 -9.87806e-16 0)
(-4.14839e-19 -9.87787e-16 0)
(-4.67233e-19 -9.8776e-16 0)
(-5.30317e-19 -9.87721e-16 0)
(-6.06578e-19 -9.87665e-16 0)
(-6.97084e-19 -9.87576e-16 0)
(-7.94597e-19 -9.87432e-16 0)
(-8.59131e-19 -9.8719e-16 0)
(-8.44821e-19 -9.86932e-16 0)
(-7.67338e-19 -9.86789e-16 0)
(-6.65756e-19 -9.86678e-16 0)
(-1.6281e-18 -9.86599e-16 0)
(-7.04642e-08 -3.44165e-15 0)
(-1.62548e-05 -2.50031e-05 0)
(-2.56768e-05 -0.000363761 0)
(-9.49248e-06 -0.00035901 0)
(9.49248e-06 -0.00035901 0)
(2.56768e-05 -0.000363761 0)
(1.62548e-05 -2.50031e-05 0)
(7.04642e-08 -3.44165e-15 0)
(1.6281e-18 -9.86599e-16 0)
(6.65756e-19 -9.86678e-16 0)
(7.67338e-19 -9.86789e-16 0)
(8.44821e-19 -9.86932e-16 0)
(8.59131e-19 -9.8719e-16 0)
(7.94597e-19 -9.87432e-16 0)
(6.97084e-19 -9.87576e-16 0)
(6.06578e-19 -9.87665e-16 0)
(5.30317e-19 -9.87721e-16 0)
(4.67233e-19 -9.8776e-16 0)
(4.14839e-19 -9.87787e-16 0)
(3.70841e-19 -9.87806e-16 0)
(3.33422e-19 -9.87821e-16 0)
(3.01191e-19 -9.87832e-16 0)
(2.73096e-19 -9.87841e-16 0)
(2.48337e-19 -9.87848e-16 0)
(2.26295e-19 -9.87853e-16 0)
(2.06489e-19 -9.87858e-16 0)
(1.88542e-19 -9.87862e-16 0)
(1.7215e-19 -9.87865e-16 0)
(1.57069e-19 -9.87867e-16 0)
(1.43098e-19 -9.8787e-16 0)
(1.30074e-19 -9.87872e-16 0)
(1.17858e-19 -9.87873e-16 0)
(1.06335e-19 -9.87875e-16 0)
(9.54049e-20 -9.87876e-16 0)
(8.4984e-20 -9.87877e-16 0)
(7.49978e-20 -9.87878e-16 0)
(6.53814e-20 -9.87878e-16 0)
(5.60773e-20 -9.87879e-16 0)
(4.70335e-20 -9.8788e-16 0)
(3.82031e-20 -9.8788e-16 0)
(2.95424e-20 -9.8788e-16 0)
(2.10111e-20 -9.87881e-16 0)
(1.25707e-20 -9.87881e-16 0)
(4.18428e-21 -9.87881e-16 0)
(-4.16717e-21 -9.87877e-16 0)
(-1.25191e-20 -9.87877e-16 0)
(-2.09242e-20 -9.87877e-16 0)
(-2.94187e-20 -9.87877e-16 0)
(-3.80404e-20 -9.87876e-16 0)
(-4.68291e-20 -9.87876e-16 0)
(-5.58275e-20 -9.87875e-16 0)
(-6.50816e-20 -9.87875e-16 0)
(-7.4642e-20 -9.87874e-16 0)
(-8.45651e-20 -9.87873e-16 0)
(-9.49139e-20 -9.87872e-16 0)
(-1.0576e-19 -9.8787e-16 0)
(-1.17186e-19 -9.87868e-16 0)
(-1.29287e-19 -9.87867e-16 0)
(-1.42174e-19 -9.87864e-16 0)
(-1.55979e-19 -9.87862e-16 0)
(-1.70857e-19 -9.87858e-16 0)
(-1.86998e-19 -9.87855e-16 0)
(-2.04631e-19 -9.8785e-16 0)
(-2.24035e-19 -9.87845e-16 0)
(-2.45557e-19 -9.87838e-16 0)
(-2.69632e-19 -9.8783e-16 0)
(-2.96804e-19 -9.8782e-16 0)
(-3.27764e-19 -9.87807e-16 0)
(-3.63382e-19 -9.8779e-16 0)
(-4.04746e-19 -9.87768e-16 0)
(-4.53154e-19 -9.87737e-16 0)
(-5.09959e-19 -9.87695e-16 0)
(-5.7594e-19 -9.87634e-16 0)
(-6.4917e-19 -9.87541e-16 0)
(-7.18625e-19 -9.874e-16 0)
(-7.48856e-19 -9.87185e-16 0)
(-7.22599e-19 -9.86982e-16 0)
(-6.60552e-19 -9.86866e-16 0)
(-5.79703e-19 -9.86767e-16 0)
(-6.78639e-19 -9.86685e-16 0)
(-1.98666e-08 -1.57028e-15 0)
(-9.9597e-06 -1.42835e-05 0)
(-1.59171e-05 -0.000374416 0)
(-5.97729e-06 -0.000374309 0)
(5.97729e-06 -0.000374309 0)
(1.59171e-05 -0.000374416 0)
(9.9597e-06 -1.42835e-05 0)
(1.98666e-08 -1.57028e-15 0)
(6.78639e-19 -9.86685e-16 0)
(5.79703e-19 -9.86767e-16 0)
(6.60552e-19 -9.86866e-16 0)
(7.22599e-19 -9.86982e-16 0)
(7.48856e-19 -9.87185e-16 0)
(7.18625e-19 -9.874e-16 0)
(6.4917e-19 -9.87541e-16 0)
(5.7594e-19 -9.87634e-16 0)
(5.09959e-19 -9.87695e-16 0)
(4.53154e-19 -9.87737e-16 0)
(4.04746e-19 -9.87768e-16 0)
(3.63382e-19 -9.8779e-16 0)
(3.27764e-19 -9.87807e-16 0)
(2.96804e-19 -9.8782e-16 0)
(2.69632e-19 -9.8783e-16 0)
(2.45557e-19 -9.87838e-16 0)
(2.24035e-19 -9.87845e-16 0)
(2.04631e-19 -9.8785e-16 0)
(1.86998e-19 -9.87855e-16 0)
(1.70857e-19 -9.87858e-16 0)
(1.55979e-19 -9.87862e-16 0)
(1.42174e-19 -9.87864e-16 0)
(1.29287e-19 -9.87867e-16 0)
(1.17186e-19 -9.87868e-16 0)
(1.0576e-19 -9.8787e-16 0)
(9.49139e-20 -9.87872e-16 0)
(8.45651e-20 -9.87873e-16 0)
(7.4642e-20 -9.87874e-16 0)
(6.50816e-20 -9.87875e-16 0)
(5.58275e-20 -9.87875e-16 0)
(4.68291e-20 -9.87876e-16 0)
(3.80404e-20 -9.87876e-16 0)
(2.94187e-20 -9.87877e-16 0)
(2.09242e-20 -9.87877e-16 0)
(1.25191e-20 -9.87877e-16 0)
(4.16717e-21 -9.87877e-16 0)
(-4.14505e-21 -9.87874e-16 0)
(-1.24524e-20 -9.87874e-16 0)
(-2.08118e-20 -9.87873e-16 0)
(-2.92587e-20 -9.87873e-16 0)
(-3.78302e-20 -9.87873e-16 0)
(-4.65651e-20 -9.87872e-16 0)
(-5.55049e-20 -9.87871e-16 0)
(-6.46944e-20 -9.8787e-16 0)
(-7.41829e-20 -9.87869e-16 0)
(-8.40248e-20 -9.87868e-16 0)
(-9.42808e-20 -9.87867e-16 0)
(-1.0502e-19 -9.87865e-16 0)
(-1.16321e-19 -9.87863e-16 0)
(-1.28275e-19 -9.87861e-16 0)
(-1.40986e-19 -9.87858e-16 0)
(-1.54579e-19 -9.87855e-16 0)
(-1.69199e-19 -9.87852e-16 0)
(-1.85022e-19 -9.87847e-16 0)
(-2.02256e-19 -9.87842e-16 0)
(-2.21154e-19 -9.87836e-16 0)
(-2.42024e-19 -9.87828e-16 0)
(-2.65244e-19 -9.87819e-16 0)
(-2.91274e-19 -9.87807e-16 0)
(-3.20673e-19 -9.87793e-16 0)
(-3.54108e-19 -9.87774e-16 0)
(-3.92338e-19 -9.87749e-16 0)
(-4.36115e-19 -9.87715e-16 0)
(-4.85886e-19 -9.8767e-16 0)
(-5.40958e-19 -9.87605e-16 0)
(-5.97334e-19 -9.87512e-16 0)
(-6.42751e-19 -9.87378e-16 0)
(-6.48572e-19 -9.87191e-16 0)
(-6.1466e-19 -9.87029e-16 0)
(-5.61517e-19 -9.86934e-16 0)
(-4.92571e-19 -9.86848e-16 0)
(-4.76038e-19 -9.86773e-16 0)
(-7.37324e-09 -1.27012e-15 0)
(-6.30693e-06 -9.82141e-06 0)
(-1.01999e-05 -0.000381309 0)
(-3.90033e-06 -0.000384813 0)
(3.90033e-06 -0.000384813 0)
(1.01999e-05 -0.000381309 0)
(6.30693e-06 -9.82141e-06 0)
(7.37324e-09 -1.27012e-15 0)
(4.76038e-19 -9.86773e-16 0)
(4.92571e-19 -9.86848e-16 0)
(5.61517e-19 -9.86934e-16 0)
(6.1466e-19 -9.87029e-16 0)
(6.48572e-19 -9.87191e-16 0)
(6.42751e-19 -9.87378e-16 0)
(5.97334e-19 -9.87512e-16 0)
(5.40958e-19 -9.87605e-16 0)
(4.85886e-19 -9.8767e-16 0)
(4.36115e-19 -9.87715e-16 0)
(3.92338e-19 -9.87749e-16 0)
(3.54108e-19 -9.87774e-16 0)
(3.20673e-19 -9.87793e-16 0)
(2.91274e-19 -9.87807e-16 0)
(2.65244e-19 -9.87819e-16 0)
(2.42024e-19 -9.87828e-16 0)
(2.21154e-19 -9.87836e-16 0)
(2.02256e-19 -9.87842e-16 0)
(1.85022e-19 -9.87847e-16 0)
(1.69199e-19 -9.87852e-16 0)
(1.54579e-19 -9.87855e-16 0)
(1.40986e-19 -9.87858e-16 0)
(1.28275e-19 -9.87861e-16 0)
(1.16321e-19 -9.87863e-16 0)
(1.0502e-19 -9.87865e-16 0)
(9.42808e-20 -9.87867e-16 0)
(8.40248e-20 -9.87868e-16 0)
(7.41829e-20 -9.87869e-16 0)
(6.46944e-20 -9.8787e-16 0)
(5.55049e-20 -9.87871e-16 0)
(4.65651e-20 -9.87872e-16 0)
(3.78302e-20 -9.87873e-16 0)
(2.92587e-20 -9.87873e-16 0)
(2.08118e-20 -9.87873e-16 0)
(1.24524e-20 -9.87874e-16 0)
(4.14505e-21 -9.87874e-16 0)
(-4.11685e-21 -9.8787e-16 0)
(-1.23673e-20 -9.8787e-16 0)
(-2.06685e-20 -9.87869e-16 0)
(-2.90549e-20 -9.87869e-16 0)
(-3.75623e-20 -9.87868e-16 0)
(-4.62286e-20 -9.87868e-16 0)
(-5.50939e-20 -9.87867e-16 0)
(-6.42015e-20 -9.87866e-16 0)
(-7.35986e-20 -9.87865e-16 0)
(-8.33374e-20 -9.87863e-16 0)
(-9.3476e-20 -9.87862e-16 0)
(-1.0408e-19 -9.8786e-16 0)
(-1.15223e-19 -9.87858e-16 0)
(-1.26991e-19 -9.87855e-16 0)
(-1.39481e-19 -9.87852e-16 0)
(-1.52809e-19 -9.87848e-16 0)
(-1.67106e-19 -9.87844e-16 0)
(-1.82531e-19 -9.87839e-16 0)
(-1.9927e-19 -9.87833e-16 0)
(-2.17542e-19 -9.87826e-16 0)
(-2.37612e-19 -9.87818e-16 0)
(-2.59789e-19 -9.87807e-16 0)
(-2.84437e-19 -9.87794e-16 0)
(-3.11972e-19 -9.87778e-16 0)
(-3.42841e-19 -9.87757e-16 0)
(-3.7746e-19 -9.8773e-16 0)
(-4.16055e-19 -9.87694e-16 0)
(-4.5827e-19 -9.87646e-16 0)
(-5.0229e-19 -9.8758e-16 0)
(-5.42984e-19 -9.8749e-16 0)
(-5.68584e-19 -9.87366e-16 0)
(-5.57273e-19 -9.87206e-16 0)
(-5.18717e-19 -9.87076e-16 0)
(-4.71183e-19 -9.86998e-16 0)
(-4.10338e-19 -9.86927e-16 0)
(-3.71597e-19 -9.86863e-16 0)
(-3.85766e-09 -1.20143e-15 0)
(-4.10646e-06 -8.3325e-06 0)
(-6.71398e-06 -0.000386056 0)
(-2.61138e-06 -0.00039253 0)
(2.61138e-06 -0.00039253 0)
(6.71398e-06 -0.000386056 0)
(4.10646e-06 -8.3325e-06 0)
(3.85766e-09 -1.20143e-15 0)
(3.71597e-19 -9.86863e-16 0)
(4.10338e-19 -9.86927e-16 0)
(4.71183e-19 -9.86998e-16 0)
(5.18717e-19 -9.87076e-16 0)
(5.57273e-19 -9.87206e-16 0)
(5.68584e-19 -9.87366e-16 0)
(5.42984e-19 -9.8749e-16 0)
(5.0229e-19 -9.8758e-16 0)
(4.5827e-19 -9.87646e-16 0)
(4.16055e-19 -9.87694e-16 0)
(3.7746e-19 -9.8773e-16 0)
(3.42841e-19 -9.87757e-16 0)
(3.11972e-19 -9.87778e-16 0)
(2.84437e-19 -9.87794e-16 0)
(2.59789e-19 -9.87807e-16 0)
(2.37612e-19 -9.87818e-16 0)
(2.17542e-19 -9.87826e-16 0)
(1.9927e-19 -9.87833e-16 0)
(1.82531e-19 -9.87839e-16 0)
(1.67106e-19 -9.87844e-16 0)
(1.52809e-19 -9.87848e-16 0)
(1.39481e-19 -9.87852e-16 0)
(1.26991e-19 -9.87855e-16 0)
(1.15223e-19 -9.87858e-16 0)
(1.0408e-19 -9.8786e-16 0)
(9.3476e-20 -9.87862e-16 0)
(8.33374e-20 -9.87863e-16 0)
(7.35986e-20 -9.87865e-16 0)
(6.42015e-20 -9.87866e-16 0)
(5.50939e-20 -9.87867e-16 0)
(4.62286e-20 -9.87868e-16 0)
(3.75623e-20 -9.87868e-16 0)
(2.90549e-20 -9.87869e-16 0)
(2.06685e-20 -9.87869e-16 0)
(1.23673e-20 -9.8787e-16 0)
(4.11685e-21 -9.8787e-16 0)
(-4.08129e-21 -9.87865e-16 0)
(-1.22601e-20 -9.87865e-16 0)
(-2.04879e-20 -9.87865e-16 0)
(-2.87979e-20 -9.87864e-16 0)
(-3.72248e-20 -9.87864e-16 0)
(-4.58049e-20 -9.87863e-16 0)
(-5.45765e-20 -9.87862e-16 0)
(-6.35811e-20 -9.87861e-16 0)
(-7.28637e-20 -9.8786e-16 0)
(-8.24735e-20 -9.87858e-16 0)
(-9.24653e-20 -9.87856e-16 0)
(-1.029e-19 -9.87854e-16 0)
(-1.13847e-19 -9.87852e-16 0)
(-1.25384e-19 -9.87849e-16 0)
(-1.37601e-19 -9.87845e-16 0)
(-1.506e-19 -9.87841e-16 0)
(-1.645e-19 -9.87836e-16 0)
(-1.79438e-19 -9.87831e-16 0)
(-1.95573e-19 -9.87824e-16 0)
(-2.13087e-19 -9.87816e-16 0)
(-2.32193e-19 -9.87807e-16 0)
(-2.53126e-19 -9.87795e-16 0)
(-2.76145e-19 -9.87781e-16 0)
(-3.01512e-19 -9.87763e-16 0)
(-3.29451e-19 -9.8774e-16 0)
(-3.60048e-19 -9.87712e-16 0)
(-3.93058e-19 -9.87674e-16 0)
(-4.27484e-19 -9.87625e-16 0)
(-4.60793e-19 -9.8756e-16 0)
(-4.87524e-19 -9.87474e-16 0)
(-4.97389e-19 -9.87363e-16 0)
(-4.74461e-19 -9.87227e-16 0)
(-4.33686e-19 -9.87123e-16 0)
(-3.90636e-19 -9.8706e-16 0)
(-3.36911e-19 -9.87003e-16 0)
(-2.97654e-19 -9.86952e-16 0)
(-2.72675e-09 -1.1968e-15 0)
(-2.80447e-06 -8.28784e-06 0)
(-4.66342e-06 -0.000389432 0)
(-1.86168e-06 -0.000398519 0)
(1.86168e-06 -0.000398519 0)
(4.66342e-06 -0.000389432 0)
(2.80447e-06 -8.28784e-06 0)
(2.72675e-09 -1.1968e-15 0)
(2.97654e-19 -9.86952e-16 0)
(3.36911e-19 -9.87003e-16 0)
(3.90636e-19 -9.8706e-16 0)
(4.33686e-19 -9.87123e-16 0)
(4.74461e-19 -9.87227e-16 0)
(4.97389e-19 -9.87363e-16 0)
(4.87524e-19 -9.87474e-16 0)
(4.60793e-19 -9.8756e-16 0)
(4.27484e-19 -9.87625e-16 0)
(3.93058e-19 -9.87674e-16 0)
(3.60048e-19 -9.87712e-16 0)
(3.29451e-19 -9.8774e-16 0)
(3.01512e-19 -9.87763e-16 0)
(2.76145e-19 -9.87781e-16 0)
(2.53126e-19 -9.87795e-16 0)
(2.32193e-19 -9.87807e-16 0)
(2.13087e-19 -9.87816e-16 0)
(1.95573e-19 -9.87824e-16 0)
(1.79438e-19 -9.87831e-16 0)
(1.645e-19 -9.87836e-16 0)
(1.506e-19 -9.87841e-16 0)
(1.37601e-19 -9.87845e-16 0)
(1.25384e-19 -9.87849e-16 0)
(1.13847e-19 -9.87852e-16 0)
(1.029e-19 -9.87854e-16 0)
(9.24653e-20 -9.87856e-16 0)
(8.24735e-20 -9.87858e-16 0)
(7.28637e-20 -9.8786e-16 0)
(6.35811e-20 -9.87861e-16 0)
(5.45765e-20 -9.87862e-16 0)
(4.58049e-20 -9.87863e-16 0)
(3.72248e-20 -9.87864e-16 0)
(2.87979e-20 -9.87864e-16 0)
(2.04879e-20 -9.87865e-16 0)
(1.22601e-20 -9.87865e-16 0)
(4.08129e-21 -9.87865e-16 0)
(-4.03693e-21 -9.8786e-16 0)
(-1.21263e-20 -9.8786e-16 0)
(-2.02625e-20 -9.8786e-16 0)
(-2.84774e-20 -9.87859e-16 0)
(-3.6804e-20 -9.87859e-16 0)
(-4.52767e-20 -9.87858e-16 0)
(-5.3932e-20 -9.87857e-16 0)
(-6.28088e-20 -9.87856e-16 0)
(-7.19493e-20 -9.87854e-16 0)
(-8.13996e-20 -9.87852e-16 0)
(-9.121e-20 -9.8785e-16 0)
(-1.01437e-19 -9.87848e-16 0)
(-1.12142e-19 -9.87845e-16 0)
(-1.23397e-19 -9.87842e-16 0)
(-1.3528e-19 -9.87838e-16 0)
(-1.4788e-19 -9.87833e-16 0)
(-1.61299e-19 -9.87828e-16 0)
(-1.7565e-19 -9.87822e-16 0)
(-1.91061e-19 -9.87815e-16 0)
(-2.07675e-19 -9.87806e-16 0)
(-2.25644e-19 -9.87795e-16 0)
(-2.45127e-19 -9.87783e-16 0)
(-2.66272e-19 -9.87767e-16 0)
(-2.89189e-19 -9.87748e-16 0)
(-3.13884e-19 -9.87724e-16 0)
(-3.40153e-19 -9.87694e-16 0)
(-3.67364e-19 -9.87656e-16 0)
(-3.94086e-19 -9.87607e-16 0)
(-4.17455e-19 -9.87545e-16 0)
(-4.32276e-19 -9.87465e-16 0)
(-4.30151e-19 -9.87368e-16 0)
(-3.99885e-19 -9.87254e-16 0)
(-3.58895e-19 -9.8717e-16 0)
(-3.20173e-19 -9.87121e-16 0)
(-2.7339e-19 -9.87075e-16 0)
(-2.39964e-19 -9.87035e-16 0)
(-2.32505e-09 -1.2196e-15 0)
(-2.02457e-06 -8.99374e-06 0)
(-3.47752e-06 -0.000391819 0)
(-1.45528e-06 -0.000403541 0)
(1.45528e-06 -0.000403541 0)