/*--------------------------------*- C++ -*----------------------------------*\
  =========                 |
  \\      /  F ield         | OpenFOAM: The Open Source CFD Toolbox
   \\    /   O peration     | Website:  https://openfoam.org
    \\  /    A nd           | Version:  10
     \\/     M anipulation  |
\*---------------------------------------------------------------------------*/
FoamFile
{
    format      ascii;
    class       volScalarField;
    location    "1300";
    object      p;
}
// * * * * * * * * * * * * * * * * * * * * * * * * * * * * * * * * * * * * * //

dimensions      [1 -1 -2 0 0 0 0];

internalField   nonuniform List<scalar> 
6400
(
104.015
104.016
104.017
104.02
104.022
104.026
104.03
104.034
104.04
104.045
104.051
104.058
104.065
104.072
104.08
104.088
104.096
104.104
104.112
104.12
104.128
104.136
104.144
104.152
104.159
104.165
104.172
104.177
104.183
104.187
104.191
104.194
104.196
104.197
104.198
104.199
104.2
104.2
104.2
104.2
104.2
104.2
104.2
104.2
104.199
104.198
104.197
104.196
104.194
104.191
104.187
104.183
104.177
104.172
104.165
104.159
104.152
104.144
104.136
104.128
104.12
104.112
104.104
104.096
104.088
104.08
104.072
104.065
104.058
104.051
104.045
104.04
104.034
104.03
104.026
104.022
104.02
104.017
104.016
104.015
103.721
103.722
103.723
103.726
103.728
103.732
103.736
103.74
103.745
103.751
103.757
103.764
103.771
103.778
103.786
103.794
103.802
103.81
103.818
103.826
103.834
103.842
103.85
103.858
103.865
103.871
103.878
103.883
103.889
103.893
103.897
103.9
103.902
103.903
103.904
103.905
103.906
103.906
103.906
103.906
103.906
103.906
103.906
103.906
103.905
103.904
103.903
103.902
103.9
103.897
103.893
103.889
103.883
103.878
103.871
103.865
103.858
103.85
103.842
103.834
103.826
103.818
103.81
103.802
103.794
103.786
103.778
103.771
103.764
103.757
103.751
103.745
103.74
103.736
103.732
103.728
103.726
103.723
103.722
103.721
103.399
103.4
103.401
103.403
103.406
103.409
103.413
103.418
103.423
103.429
103.435
103.442
103.449
103.456
103.464
103.471
103.479
103.488
103.496
103.504
103.512
103.52
103.528
103.535
103.542
103.549
103.555
103.561
103.566
103.571
103.575
103.578
103.58
103.581
103.582
103.583
103.583
103.584
103.584
103.584
103.584
103.584
103.584
103.583
103.583
103.582
103.581
103.58
103.578
103.575
103.571
103.566
103.561
103.555
103.549
103.542
103.535
103.528
103.52
103.512
103.504
103.496
103.488
103.479
103.471
103.464
103.456
103.449
103.442
103.435
103.429
103.423
103.418
103.413
103.409
103.406
103.403
103.401
103.4
103.399
103.045
103.046
103.047
103.049
103.052
103.055
103.059
103.064
103.069
103.075
103.081
103.088
103.095
103.102
103.11
103.118
103.126
103.134
103.142
103.15
103.158
103.166
103.174
103.182
103.189
103.195
103.202
103.207
103.213
103.217
103.221
103.225
103.226
103.227
103.228
103.229
103.23
103.23
103.23
103.231
103.231
103.23
103.23
103.23
103.229
103.228
103.227
103.226
103.225
103.221
103.217
103.213
103.207
103.202
103.195
103.189
103.182
103.174
103.166
103.158
103.15
103.142
103.134
103.126
103.118
103.11
103.102
103.095
103.088
103.081
103.075
103.069
103.064
103.059
103.055
103.052
103.049
103.047
103.046
103.045
102.657
102.658
102.659
102.661
102.664
102.667
102.671
102.676
102.681
102.687
102.693
102.7
102.707
102.714
102.722
102.73
102.738
102.746
102.754
102.762
102.771
102.778
102.786
102.794
102.801
102.808
102.814
102.82
102.825
102.829
102.833
102.837
102.839
102.84
102.841
102.841
102.842
102.842
102.843
102.843
102.843
102.843
102.842
102.842
102.841
102.841
102.84
102.839
102.837
102.833
102.829
102.825
102.82
102.814
102.808
102.801
102.794
102.786
102.778
102.771
102.762
102.754
102.746
102.738
102.73
102.722
102.714
102.707
102.7
102.693
102.687
102.681
102.676
102.671
102.667
102.664
102.661
102.659
102.658
102.657
102.231
102.232
102.233
102.235
102.238
102.242
102.246
102.25
102.255
102.261
102.267
102.274
102.281
102.289
102.296
102.304
102.312
102.32
102.329
102.337
102.345
102.353
102.361
102.368
102.375
102.382
102.389
102.394
102.4
102.404
102.408
102.412
102.413
102.414
102.415
102.416
102.417
102.417
102.417
102.418
102.418
102.417
102.417
102.417
102.416
102.415
102.414
102.413
102.412
102.408
102.404
102.4
102.394
102.389
102.382
102.375
102.368
102.361
102.353
102.345
102.337
102.329
102.32
102.312
102.304
102.296
102.289
102.281
102.274
102.267
102.261
102.255
102.25
102.246
102.242
102.238
102.235
102.233
102.232
102.231
101.764
101.765
101.766
101.768
101.771
101.775
101.779
101.783
101.789
101.794
101.801
101.807
101.814
101.822
101.829
101.837
101.846
101.854
101.862
101.87
101.878
101.886
101.894
101.902
101.909
101.916
101.922
101.928
101.933
101.938
101.942
101.945
101.947
101.948
101.949
101.95
101.95
101.951
101.951
101.951
101.951
101.951
101.951
101.95
101.95
101.949
101.948
101.947
101.945
101.942
101.938
101.933
101.928
101.922
101.916
101.909
101.902
101.894
101.886
101.878
101.87
101.862
101.854
101.846
101.837
101.829
101.822
101.814
101.807
101.801
101.794
101.789
101.783
101.779
101.775
101.771
101.768
101.766
101.765
101.764
101.252
101.252
101.254
101.256
101.259
101.262
101.266
101.271
101.276
101.282
101.288
101.295
101.302
101.31
101.317
101.325
101.334
101.342
101.35
101.359
101.367
101.375
101.383
101.39
101.397
101.404
101.411
101.416
101.422
101.426
101.43
101.434
101.436
101.437
101.438
101.438
101.439
101.44
101.44
101.44
101.44
101.44
101.44
101.439
101.438
101.438
101.437
101.436
101.434
101.43
101.426
101.422
101.416
101.411
101.404
101.397
101.39
101.383
101.375
101.367
101.359
101.35
101.342
101.334
101.325
101.317
101.31
101.302
101.295
101.288
101.282
101.276
101.271
101.266
101.262
101.259
101.256
101.254
101.252
101.252
100.69
100.69
100.692
100.694
100.697
100.7
100.704
100.709
100.714
100.72
100.726
100.733
100.74
100.748
100.756
100.764
100.772
100.78
100.789
100.797
100.805
100.814
100.821
100.829
100.836
100.843
100.85
100.856
100.861
100.866
100.87
100.873
100.875
100.876
100.877
100.878
100.878
100.879
100.879
100.879
100.879
100.879
100.879
100.878
100.878
100.877
100.876
100.875
100.873
100.87
100.866
100.861
100.856
100.85
100.843
100.836
100.829
100.821
100.814
100.805
100.797
100.789
100.78
100.772
100.764
100.756
100.748
100.74
100.733
100.726
100.72
100.714
100.709
100.704
100.7
100.697
100.694
100.692
100.69
100.69
100.073
100.074
100.075
100.077
100.08
100.084
100.088
100.093
100.098
100.104
100.11
100.117
100.124
100.132
100.14
100.148
100.156
100.165
100.173
100.181
100.19
100.198
100.206
100.214
100.221
100.228
100.234
100.24
100.246
100.251
100.255
100.258
100.26
100.261
100.262
100.263
100.263
100.264
100.264
100.264
100.264
100.264
100.264
100.263
100.263
100.262
100.261
100.26
100.258
100.255
100.251
100.246
100.24
100.234
100.228
100.221
100.214
100.206
100.198
100.19
100.181
100.173
100.165
100.156
100.148
100.14
100.132
100.124
100.117
100.11
100.104
100.098
100.093
100.088
100.084
100.08
100.077
100.075
100.074
100.073
99.3965
99.3973
99.3987
99.4009
99.4037
99.4073
99.4114
99.4163
99.4217
99.4276
99.4341
99.441
99.4483
99.456
99.464
99.4722
99.4806
99.4891
99.4976
99.5062
99.5146
99.5229
99.531
99.5388
99.5463
99.5533
99.5599
99.5659
99.5714
99.5762
99.5804
99.5838
99.5858
99.5869
99.5878
99.5886
99.5892
99.5897
99.59
99.5901
99.5901
99.59
99.5897
99.5892
99.5886
99.5878
99.5869
99.5858
99.5838
99.5804
99.5762
99.5714
99.5659
99.5599
99.5533
99.5463
99.5388
99.531
99.5229
99.5146
99.5062
99.4976
99.4891
99.4806
99.4722
99.464
99.456
99.4483
99.441
99.4341
99.4276
99.4217
99.4163
99.4114
99.4073
99.4037
99.4009
99.3987
99.3973
99.3965
98.6543
98.655
98.6565
98.6587
98.6616
98.6652
98.6694
98.6743
98.6798
98.6858
98.6923
98.6994
98.7068
98.7146
98.7227
98.731
98.7395
98.7482
98.7569
98.7655
98.7741
98.7826
98.7908
98.7987
98.8062
98.8134
98.8201
98.8262
98.8317
98.8367
98.8409
98.8444
98.8465
98.8475
98.8485
98.8493
98.8499
98.8504
98.8507
98.8508
98.8508
98.8507
98.8504
98.8499
98.8493
98.8485
98.8475
98.8465
98.8444
98.8409
98.8367
98.8317
98.8262
98.8201
98.8134
98.8062
98.7987
98.7908
98.7826
98.7741
98.7655
98.7569
98.7482
98.7395
98.731
98.7227
98.7146
98.7068
98.6994
98.6923
98.6858
98.6798
98.6743
98.6694
98.6652
98.6616
98.6587
98.6565
98.655
98.6543
97.84
97.8407
97.8422
97.8444
97.8474
97.851
97.8554
97.8603
97.8659
97.872
97.8787
97.8858
97.8934
97.9013
97.9096
97.918
97.9267
97.9355
97.9444
97.9532
97.962
97.9706
97.9789
97.987
97.9947
98.002
98.0088
98.0151
98.0207
98.0258
98.0301
98.0337
98.0357
98.0369
98.0378
98.0386
98.0393
98.0397
98.0401
98.0402
98.0402
98.0401
98.0397
98.0393
98.0386
98.0378
98.0369
98.0357
98.0337
98.0301
98.0258
98.0207
98.0151
98.0088
98.002
97.9947
97.987
97.9789
97.9706
97.962
97.9532
97.9444
97.9355
97.9267
97.918
97.9096
97.9013
97.8934
97.8858
97.8787
97.872
97.8659
97.8603
97.8554
97.851
97.8474
97.8444
97.8422
97.8407
97.84
96.9465
96.9473
96.9488
96.9511
96.9541
96.9578
96.9622
96.9673
96.973
96.9792
96.986
96.9933
97.0011
97.0092
97.0176
97.0263
97.0352
97.0442
97.0532
97.0623
97.0712
97.08
97.0886
97.0969
97.1048
97.1122
97.1192
97.1256
97.1315
97.1366
97.141
97.1447
97.1468
97.148
97.149
97.1498
97.1504
97.1509
97.1513
97.1514
97.1514
97.1513
97.1509
97.1504
97.1498
97.149
97.148
97.1468
97.1447
97.141
97.1366
97.1315
97.1256
97.1192
97.1122
97.1048
97.0969
97.0886
97.08
97.0712
97.0623
97.0532
97.0442
97.0352
97.0263
97.0176
97.0092
97.0011
96.9933
96.986
96.9792
96.973
96.9673
96.9622
96.9578
96.9541
96.9511
96.9488
96.9473
96.9465
95.9661
95.9669
95.9685
95.9708
95.9739
95.9777
95.9823
95.9875
95.9933
95.9997
96.0067
96.0142
96.0222
96.0305
96.0392
96.0481
96.0572
96.0665
96.0758
96.0851
96.0943
96.1034
96.1122
96.1207
96.1289
96.1366
96.1438
96.1504
96.1564
96.1617
96.1663
96.1701
96.1723
96.1734
96.1745
96.1753
96.176
96.1765
96.1768
96.177
96.177
96.1768
96.1765
96.176
96.1753
96.1745
96.1734
96.1723
96.1701
96.1663
96.1617
96.1564
96.1504
96.1438
96.1366
96.1289
96.1207
96.1122
96.1034
96.0943
96.0851
96.0758
96.0665
96.0572
96.0481
96.0392
96.0305
96.0222
96.0142
96.0067
95.9997
95.9933
95.9875
95.9823
95.9777
95.9739
95.9708
95.9685
95.9669
95.9661
94.8904
94.8912
94.8928
94.8952
94.8984
94.9024
94.907
94.9124
94.9184
94.9251
94.9323
94.94
94.9482
94.9569
94.9658
94.9751
94.9845
94.9941
95.0037
95.0134
95.0229
95.0323
95.0415
95.0503
95.0587
95.0667
95.0742
95.0811
95.0873
95.0928
95.0976
95.1015
95.1038
95.105
95.1061
95.107
95.1077
95.1082
95.1085
95.1087
95.1087
95.1085
95.1082
95.1077
95.107
95.1061
95.105
95.1038
95.1015
95.0976
95.0928
95.0873
95.0811
95.0742
95.0667
95.0587
95.0503
95.0415
95.0323
95.0229
95.0134
95.0037
94.9941
94.9845
94.9751
94.9658
94.9569
94.9482
94.94
94.9323
94.9251
94.9184
94.9124
94.907
94.9024
94.8984
94.8952
94.8928
94.8912
94.8904
93.6351
93.6359
93.6376
93.6401
93.6434
93.6475
93.6524
93.6579
93.6642
93.6711
93.6787
93.6867
93.6953
93.7043
93.7136
93.7233
93.7331
93.7432
93.7532
93.7633
93.7733
93.7832
93.7927
93.802
93.8108
93.8192
93.8271
93.8343
93.8408
93.8466
93.8516
93.8557
93.8581
93.8594
93.8605
93.8614
93.8622
93.8627
93.8631
93.8633
93.8633
93.8631
93.8627
93.8622
93.8614
93.8605
93.8594
93.8581
93.8557
93.8516
93.8466
93.8408
93.8343
93.8271
93.8192
93.8108
93.802
93.7927
93.7832
93.7733
93.7633
93.7532
93.7432
93.7331
93.7233
93.7136
93.7043
93.6953
93.6867
93.6787
93.6711
93.6642
93.6579
93.6524
93.6475
93.6434
93.6401
93.6376
93.6359
93.6351
92.2494
92.2503
92.2521
92.2547
92.2582
92.2625
92.2676
92.2735
92.2801
92.2873
92.2953
92.3037
92.3127
92.3222
92.3321
92.3422
92.3526
92.3632
92.3738
92.3845
92.3951
92.4055
92.4156
92.4254
92.4348
92.4436
92.4519
92.4596
92.4665
92.4727
92.478
92.4824
92.4849
92.4863
92.4875
92.4884
92.4892
92.4898
92.4902
92.4904
92.4904
92.4902
92.4898
92.4892
92.4884
92.4875
92.4863
92.4849
92.4824
92.478
92.4727
92.4665
92.4596
92.4519
92.4436
92.4348
92.4254
92.4156
92.4055
92.3951
92.3845
92.3738
92.3632
92.3526
92.3422
92.3321
92.3222
92.3127
92.3037
92.2953
92.2873
92.2801
92.2735
92.2676
92.2625
92.2582
92.2547
92.2521
92.2503
92.2494
90.8629
90.8638
90.8657
90.8685
90.8721
90.8767
90.8821
90.8883
90.8952
90.9029
90.9113
90.9202
90.9297
90.9397
90.9502
90.9609
90.972
90.9832
90.9945
91.0058
91.017
91.028
91.0388
91.0492
91.0592
91.0686
91.0775
91.0856
91.093
91.0996
91.1052
91.11
91.1127
91.1141
91.1154
91.1164
91.1173
91.1179
91.1183
91.1185
91.1185
91.1183
91.1179
91.1173
91.1164
91.1154
91.1141
91.1127
91.11
91.1052
91.0996
91.093
91.0856
91.0775
91.0686
91.0592
91.0492
91.0388
91.028
91.017
91.0058
90.9945
90.9832
90.972
90.9609
90.9502
90.9397
90.9297
90.9202
90.9113
90.9029
90.8952
90.8883
90.8821
90.8767
90.8721
90.8685
90.8657
90.8638
90.8629
89.4755
89.4764
89.4784
89.4813
89.4852
89.49
89.4957
89.5023
89.5096
89.5178
89.5266
89.5362
89.5463
89.5569
89.5679
89.5794
89.5911
89.603
89.615
89.6271
89.639
89.6508
89.6623
89.6735
89.6841
89.6943
89.7037
89.7125
89.7204
89.7274
89.7335
89.7385
89.7414
89.743
89.7443
89.7455
89.7464
89.747
89.7475
89.7477
89.7477
89.7475
89.747
89.7464
89.7455
89.7443
89.743
89.7414
89.7385
89.7335
89.7274
89.7204
89.7125
89.7037
89.6943
89.6841
89.6735
89.6623
89.6508
89.639
89.6271
89.615
89.603
89.5911
89.5794
89.5679
89.5569
89.5463
89.5362
89.5266
89.5178
89.5096
89.5023
89.4957
89.49
89.4852
89.4813
89.4784
89.4764
89.4755
88.087
88.0881
88.0902
88.0933
88.0974
88.1025
88.1085
88.1155
88.1233
88.132
88.1414
88.1515
88.1622
88.1736
88.1853
88.1975
88.2101
88.2228
88.2356
88.2485
88.2613
88.2739
88.2863
88.2982
88.3097
88.3205
88.3307
88.3401
88.3486
88.3562
88.3627
88.3682
88.3713
88.373
88.3744
88.3756
88.3766
88.3773
88.3778
88.3781
88.3781
88.3778
88.3773
88.3766
88.3756
88.3744
88.373
88.3713
88.3682
88.3627
88.3562
88.3486
88.3401
88.3307
88.3205
88.3097
88.2982
88.2863
88.2739
88.2613
88.2485
88.2356
88.2228
88.2101
88.1975
88.1853
88.1736
88.1622
88.1515
88.1414
88.132
88.1233
88.1155
88.1085
88.1025
88.0974
88.0933
88.0902
88.0881
88.087
86.6976
86.6987
86.7009
86.7042
86.7086
86.714
86.7204
86.7278
86.7362
86.7454
86.7554
86.7662
86.7777
86.7897
86.8024
86.8154
86.8288
86.8424
86.8562
86.87
86.8837
86.8973
86.9106
86.9234
86.9358
86.9475
86.9584
86.9686
86.9778
86.986
86.993
86.9989
87.0023
87.0041
87.0057
87.007
87.0081
87.0089
87.0094
87.0097
87.0097
87.0094
87.0089
87.0081
87.007
87.0057
87.0041
87.0023
86.9989
86.993
86.986
86.9778
86.9686
86.9584
86.9475
86.9358
86.9234
86.9106
86.8973
86.8837
86.87
86.8562
86.8424
86.8288
86.8154
86.8024
86.7897
86.7777
86.7662
86.7554
86.7454
86.7362
86.7278
86.7204
86.714
86.7086
86.7042
86.7009
86.6987
86.6976
85.307
85.3082
85.3105
85.314
85.3187
85.3245
85.3313
85.3392
85.3481
85.358
85.3687
85.3802
85.3925
85.4054
85.4189
85.4329
85.4473
85.4619
85.4767
85.4916
85.5064
85.521
85.5353
85.5492
85.5625
85.5752
85.587
85.598
85.608
85.6168
85.6245
85.6309
85.6346
85.6366
85.6383
85.6397
85.6408
85.6417
85.6423
85.6426
85.6426
85.6423
85.6417
85.6408
85.6397
85.6383
85.6366
85.6346
85.6309
85.6245
85.6168
85.608
85.598
85.587
85.5752
85.5625
85.5492
85.5353
85.521
85.5064
85.4916
85.4767
85.4619
85.4473
85.4329
85.4189
85.4054
85.3925
85.3802
85.3687
85.358
85.3481
85.3392
85.3313
85.3245
85.3187
85.314
85.3105
85.3082
85.307
83.9152
83.9165
83.919
83.9227
83.9277
83.9339
83.9412
83.9496
83.9592
83.9697
83.9811
83.9935
84.0066
84.0205
84.035
84.05
84.0655
84.0812
84.0972
84.1132
84.1292
84.145
84.1604
84.1755
84.1899
84.2036
84.2165
84.2284
84.2393
84.2489
84.2573
84.2643
84.2682
84.2704
84.2723
84.2738
84.2751
84.276
84.2766
84.277
84.277
84.2766
84.276
84.2751
84.2738
84.2723
84.2704
84.2682
84.2643
84.2573
84.2489
84.2393
84.2284
84.2165
84.2036
84.1899
84.1755
84.1604
84.145
84.1292
84.1132
84.0972
84.0812
84.0655
84.05
84.035
84.0205
84.0066
83.9935
83.9811
83.9697
83.9592
83.9496
83.9412
83.9339
83.9277
83.9227
83.919
83.9165
83.9152
82.5222
82.5235
82.5262
82.5302
82.5355
82.5421
82.55
82.559
82.5692
82.5804
82.5927
82.606
82.6201
82.635
82.6506
82.6667
82.6834
82.7003
82.7176
82.7349
82.7522
82.7692
82.786
82.8023
82.818
82.8329
82.847
82.86
82.8718
82.8823
82.8914
82.899
82.9034
82.9058
82.9078
82.9095
82.9109
82.9119
82.9126
82.9129
82.9129
82.9126
82.9119
82.9109
82.9095
82.9078
82.9058
82.9034
82.899
82.8914
82.8823
82.8718
82.86
82.847
82.8329
82.818
82.8023
82.786
82.7692
82.7522
82.7349
82.7176
82.7003
82.6834
82.6667
82.6506
82.635
82.6201
82.606
82.5927
82.5804
82.5692
82.559
82.55
82.5421
82.5355
82.5302
82.5262
82.5235
82.5222
81.1278
81.1292
81.1321
81.1364
81.1421
81.1491
81.1575
81.1672
81.1781
81.1902
81.2034
81.2176
81.2327
81.2488
81.2655
81.283
81.3009
81.3192
81.3379
81.3566
81.3753
81.3939
81.4121
81.4298
81.4469
81.4632
81.4785
81.4926
81.5056
81.5171
81.5271
81.5354
81.5402
81.5428
81.545
81.5469
81.5484
81.5495
81.5503
81.5506
81.5506
81.5503
81.5495
81.5484
81.5469
81.545
81.5428
81.5402
81.5354
81.5271
81.5171
81.5056
81.4926
81.4785
81.4632
81.4469
81.4298
81.4121
81.3939
81.3753
81.3566
81.3379
81.3192
81.3009
81.283
81.2655
81.2488
81.2327
81.2176
81.2034
81.1902
81.1781
81.1672
81.1575
81.1491
81.1421
81.1364
81.1321
81.1292
81.1278
79.732
79.7335
79.7366
79.7412
79.7473
79.7548
79.7638
79.7742
79.7858
79.7988
79.813
79.8282
79.8446
79.8618
79.8799
79.8987
79.918
79.9379
79.958
79.9783
79.9987
80.0188
80.0386
80.0579
80.0766
80.0943
80.1111
80.1266
80.1408
80.1534
80.1643
80.1735
80.1788
80.1816
80.1841
80.1861
80.1878
80.189
80.1898
80.1902
80.1902
80.1898
80.189
80.1878
80.1861
80.1841
80.1816
80.1788
80.1735
80.1643
80.1534
80.1408
80.1266
80.1111
80.0943
80.0766
80.0579
80.0386
80.0188
79.9987
79.9783
79.958
79.9379
79.918
79.8987
79.8799
79.8618
79.8446
79.8282
79.813
79.7988
79.7858
79.7742
79.7638
79.7548
79.7473
79.7412
79.7366
79.7335
79.732
78.3346
78.3363
78.3396
78.3445
78.351
78.3591
78.3687
78.3798
78.3923
78.4062
78.4214
78.4379
78.4554
78.474
78.4935
78.5138
78.5347
78.5562
78.578
78.6001
78.6222
78.6441
78.6657
78.6868
78.7071
78.7266
78.7449
78.7619
78.7775
78.7914
78.8034
78.8135
78.8193
78.8224
78.8251
78.8274
78.8292
78.8306
78.8315
78.832
78.832
78.8315
78.8306
78.8292
78.8274
78.8251
78.8224
78.8193
78.8135
78.8034
78.7914
78.7775
78.7619
78.7449
78.7266
78.7071
78.6868
78.6657
78.6441
78.6222
78.6001
78.578
78.5562
78.5347
78.5138
78.4935
78.474
78.4554
78.4379
78.4214
78.4062
78.3923
78.3798
78.3687
78.3591
78.351
78.3445
78.3396
78.3363
78.3346
76.9356
76.9374
76.9409
76.9462
76.9531
76.9618
76.9721
76.984
76.9974
77.0124
77.0287
77.0464
77.0653
77.0853
77.1063
77.1282
77.1509
77.1742
77.1978
77.2218
77.2458
77.2697
77.2933
77.3163
77.3386
77.3599
77.38
77.3987
77.4158
77.4311
77.4444
77.4556
77.462
77.4655
77.4684
77.4709
77.473
77.4745
77.4755
77.476
77.476
77.4755
77.4745
77.473
77.4709
77.4684
77.4655
77.462
77.4556
77.4444
77.4311
77.4158
77.3987
77.38
77.3599
77.3386
77.3163
77.2933
77.2697
77.2458
77.2218
77.1978
77.1742
77.1509
77.1282
77.1063
77.0853
77.0653
77.0464
77.0287
77.0124
76.9974
76.984
76.9721
76.9618
76.9531
76.9462
76.9409
76.9374
76.9356
75.5349
75.5368
75.5405
75.5461
75.5536
75.5629
75.5739
75.5866
75.6011
75.6171
75.6346
75.6536
75.674
75.6956
75.7183
75.7419
75.7665
75.7917
75.8174
75.8434
75.8696
75.8956
75.9214
75.9466
75.971
75.9944
76.0165
76.0372
76.056
76.0729
76.0876
76.1
76.1071
76.1109
76.1142
76.117
76.1192
76.1209
76.122
76.1226
76.1226
76.122
76.1209
76.1192
76.117
76.1142
76.1109
76.1071
76.1
76.0876
76.0729
76.056
76.0372
76.0165
75.9944
75.971
75.9466
75.9214
75.8956
75.8696
75.8434
75.8174
75.7917
75.7665
75.7419
75.7183
75.6956
75.674
75.6536
75.6346
75.6171
75.6011
75.5866
75.5739
75.5629
75.5536
75.5461
75.5405
75.5368
75.5349
74.1322
74.1342
74.1383
74.1443
74.1522
74.1621
74.174
74.1876
74.2031
74.2203
74.2391
74.2596
74.2815
74.3047
74.3292
74.3548
74.3814
74.4087
74.4366
74.4649
74.4934
74.5219
74.55
74.5777
74.6045
74.6302
74.6546
74.6773
74.6982
74.7169
74.7332
74.7469
74.7548
74.759
74.7627
74.7658
74.7683
74.7701
74.7714
74.772
74.772
74.7714
74.7701
74.7683
74.7658
74.7627
74.759
74.7548
74.7469
74.7332
74.7169
74.6982
74.6773
74.6546
74.6302
74.6045
74.5777
74.55
74.5219
74.4934
74.4649
74.4366
74.4087
74.3814
74.3548
74.3292
74.3047
74.2815
74.2596
74.2391
74.2203
74.2031
74.1876
74.174
74.1621
74.1522
74.1443
74.1383
74.1342
74.1322
72.7276
72.7297
72.734
72.7404
72.7489
72.7595
72.7722
72.7868
72.8034
72.8218
72.8421
72.864
72.8876
72.9126
72.9391
72.9667
72.9955
73.0251
73.0554
73.0862
73.1173
73.1484
73.1792
73.2095
73.239
73.2674
73.2943
73.3194
73.3425
73.3633
73.3814
73.3966
73.4054
73.4101
73.4142
73.4176
73.4204
73.4225
73.4239
73.4246
73.4246
73.4239
73.4225
73.4204
73.4176
73.4142
73.4101
73.4054
73.3966
73.3814
73.3633
73.3425
73.3194
73.2943
73.2674
73.239
73.2095
73.1792
73.1484
73.1173
73.0862
73.0554
73.0251
72.9955
72.9667
72.9391
72.9126
72.8876
72.864
72.8421
72.8218
72.8034
72.7868
72.7722
72.7595
72.7489
72.7404
72.734
72.7297
72.7276
71.3208
71.3231
71.3276
71.3345
71.3436
71.3549
71.3684
71.3841
71.4018
71.4216
71.4433
71.4669
71.4922
71.5192
71.5477
71.5776
71.6087
71.6408
71.6738
71.7073
71.7412
71.7752
71.809
71.8422
71.8747
71.9059
71.9357
71.9635
71.9892
72.0122
72.0324
72.0494
72.0592
72.0645
72.0691
72.0729
72.076
72.0783
72.0799
72.0807
72.0807
72.0799
72.0783
72.076
72.0729
72.0691
72.0645
72.0592
72.0494
72.0324
72.0122
71.9892
71.9635
71.9357
71.9059
71.8747
71.8422
71.809
71.7752
71.7412
71.7073
71.6738
71.6408
71.6087
71.5776
71.5477
71.5192
71.4922
71.4669
71.4433
71.4216
71.4018
71.3841
71.3684
71.3549
71.3436
71.3345
71.3276
71.3231
71.3208
69.9117
69.9141
69.919
69.9263
69.936
69.9481
69.9625
69.9792
69.9982
70.0194
70.0426
70.0679
70.0952
70.1242
70.155
70.1872
70.2209
70.2557
70.2915
70.328
70.365
70.4022
70.4392
70.4758
70.5115
70.5461
70.579
70.6099
70.6384
70.6641
70.6867
70.7057
70.7166
70.7226
70.7277
70.732
70.7355
70.7381
70.7398
70.7407
70.7407
70.7398
70.7381
70.7355
70.732
70.7277
70.7226
70.7166
70.7057
70.6867
70.6641
70.6384
70.6099
70.579
70.5461
70.5115
70.4758
70.4392
70.4022
70.365
70.328
70.2915
70.2557
70.2209
70.1872
70.155
70.1242
70.0952
70.0679
70.0426
70.0194
69.9982
69.9792
69.9625
69.9481
69.936
69.9263
69.919
69.9141
69.9117
68.5001
68.5027
68.5079
68.5157
68.526
68.5389
68.5543
68.5721
68.5924
68.615
68.64
68.6671
68.6963
68.7276
68.7607
68.7955
68.8319
68.8696
68.9085
68.9483
68.9886
69.0293
69.0699
69.1102
69.1496
69.1878
69.2243
69.2587
69.2905
69.3192
69.3444
69.3657
69.3781
69.3847
69.3905
69.3954
69.3993
69.4022
69.4042
69.4052
69.4052
69.4042
69.4022
69.3993
69.3954
69.3905
69.3847
69.3781
69.3657
69.3444
69.3192
69.2905
69.2587
69.2243
69.1878
69.1496
69.1102
69.0699
69.0293
68.9886
68.9483
68.9085
68.8696
68.8319
68.7955
68.7607
68.7276
68.6963
68.6671
68.64
68.615
68.5924
68.5721
68.5543
68.5389
68.526
68.5157
68.5079
68.5027
68.5001
67.086
67.0887
67.0943
67.1025
67.1135
67.1272
67.1436
67.1626
67.1843
67.2084
67.2351
67.2641
67.2955
67.329
67.3647
67.4022
67.4415
67.4824
67.5246
67.5679
67.6119
67.6564
67.701
67.7453
67.7889
67.8312
67.8717
67.9101
67.9456
67.9778
68.0061
68.0301
68.044
68.0515
68.0581
68.0635
68.068
68.0713
68.0735
68.0746
68.0746
68.0735
68.0713
68.068
68.0635
68.0581
68.0515
68.044
68.0301
68.0061
67.9778
67.9456
67.9101
67.8717
67.8312
67.7889
67.7453
67.701
67.6564
67.6119
67.5679
67.5246
67.4824
67.4415
67.4022
67.3647
67.329
67.2955
67.2641
67.2351
67.2084
67.1843
67.1626
67.1436
67.1272
67.1135
67.1025
67.0943
67.0887
67.086
65.6691
65.672
65.6779
65.6866
65.6983
65.7129
65.7303
65.7505
65.7736
65.7994
65.8278
65.8589
65.8924
65.9284
65.9667
66.0072
66.0496
66.0939
66.1397
66.1867
66.2348
66.2835
66.3325
66.3813
66.4294
66.4763
66.5214
66.5642
66.604
66.6402
66.6721
66.6992
66.7149
66.7235
66.7309
66.7371
66.7421
66.7459
66.7484
66.7497
66.7497
66.7484
66.7459
66.7421
66.7371
66.7309
66.7235
66.7149
66.6992
66.6721
66.6402
66.604
66.5642
66.5214
66.4763
66.4294
66.3813
66.3325
66.2835
66.2348
66.1867
66.1397
66.0939
66.0496
66.0072
65.9667
65.9284
65.8924
65.8589
65.8278
65.7994
65.7736
65.7505
65.7303
65.7129
65.6983
65.6866
65.6779
65.672
65.6691
64.2493
64.2524
64.2586
64.2678
64.2802
64.2957
64.3141
64.3357
64.3601
64.3876
64.4179
64.4511
64.487
64.5256
64.5667
64.6102
64.656
64.7038
64.7534
64.8046
64.857
64.9103
64.9641
65.0179
65.0711
65.1232
65.1735
65.2214
65.2661
65.3068
65.3429
65.3737
65.3916
65.4013
65.4097
65.4168
65.4225
65.4268
65.4297
65.4312
65.4312
65.4297
65.4268
65.4225
65.4168
65.4097
65.4013
65.3916
65.3737
65.3429
65.3068
65.2661
65.2214
65.1735
65.1232
65.0711
65.0179
64.9641
64.9103
64.857
64.8046
64.7534
64.7038
64.656
64.6102
64.5667
64.5256
64.487
64.4511
64.4179
64.3876
64.3601
64.3357
64.3141
64.2957
64.2802
64.2678
64.2586
64.2524
64.2493
62.8263
62.8296
62.8361
62.846
62.8591
62.8754
62.895
62.9178
62.9438
62.9729
63.0052
63.0405
63.0789
63.1201
63.1642
63.2109
63.2602
63.3118
63.3656
63.4212
63.4784
63.5367
63.5957
63.655
63.7139
63.7718
63.828
63.8817
63.932
63.9781
64.0191
64.0542
64.0746
64.0857
64.0954
64.1035
64.1101
64.115
64.1183
64.12
64.12
64.1183
64.115
64.1101
64.1035
64.0954
64.0857
64.0746
64.0542
64.0191
63.9781
63.932
63.8817
63.828
63.7718
63.7139
63.655
63.5957
63.5367
63.4784
63.4212
63.3656
63.3118
63.2602
63.2109
63.1642
63.1201
63.0789
63.0405
63.0052
62.9729
62.9438
62.9178
62.895
62.8754
62.8591
62.846
62.8361
62.8296
62.8263
61.4001
61.4036
61.4105
61.4208
61.4346
61.4519
61.4726
61.4967
61.5242
61.5551
61.5894
61.627
61.6678
61.7119
61.759
61.8091
61.8621
61.9178
61.9759
62.0363
62.0985
62.1623
62.2271
62.2925
62.3577
62.4222
62.4851
62.5454
62.6022
62.6546
62.7013
62.7414
62.7649
62.7777
62.7888
62.7982
62.8057
62.8114
62.8152
62.8172
62.8172
62.8152
62.8114
62.8057
62.7982
62.7888
62.7777
62.7649
62.7414
62.7013
62.6546
62.6022
62.5454
62.4851
62.4222
62.3577
62.2925
62.2271
62.1623
62.0985
62.0363
61.9759
61.9178
61.8621
61.8091
61.759
61.7119
61.6678
61.627
61.5894
61.5551
61.5242
61.4967
61.4726
61.4519
61.4346
61.4208
61.4105
61.4036
61.4001
59.9704
59.9741
59.9813
59.9922
60.0068
60.025
60.0468
60.0722
60.1013
60.134
60.1703
60.2102
60.2536
60.3005
60.3508
60.4045
60.4613
60.5213
60.5841
60.6495
60.7172
60.7869
60.858
60.93
61.0024
61.0742
61.1446
61.2125
61.2769
61.3365
61.39
61.4362
61.4633
61.4781
61.491
61.5019
61.5107
61.5173
61.5217
61.524
61.524
61.5217
61.5173
61.5107
61.5019
61.491
61.4781
61.4633
61.4362
61.39
61.3365
61.2769
61.2125
61.1446
61.0742
61.0024
60.93
60.858
60.7869
60.7172
60.6495
60.5841
60.5213
60.4613
60.4045
60.3508
60.3005
60.2536
60.2102
60.1703
60.134
60.1013
60.0722
60.0468
60.025
60.0068
59.9922
59.9813
59.9741
59.9704
58.5372
58.541
58.5486
58.5601
58.5753
58.5944
58.6174
58.6442
58.6748
58.7093
58.7477
58.7899
58.8359
58.8857
58.9393
58.9966
59.0575
59.1219
59.1896
59.2604
59.3339
59.4099
59.4879
59.5673
59.6475
59.7275
59.8065
59.8832
59.9564
60.0245
60.0861
60.1396
60.1711
60.1884
60.2035
60.2162
60.2265
60.2342
60.2394
60.2421
60.2421
60.2394
60.2342
60.2265
60.2162
60.2035
60.1884
60.1711
60.1396
60.0861
60.0245
59.9564
59.8832
59.8065
59.7275
59.6475
59.5673
59.4879
59.4099
59.3339
59.2604
59.1896
59.1219
59.0575
58.9966
58.9393
58.8857
58.8359
58.7899
58.7477
58.7093
58.6748
58.6442
58.6174
58.5944
58.5753
58.5601
58.5486
58.541
58.5372
57.1001
57.1041
57.1121
57.1241
57.1401
57.1601
57.1841
57.2123
57.2445
57.2808
57.3212
57.3657
57.4144
57.4672
57.5242
57.5852
57.6503
57.7192
57.792
57.8684
57.9482
58.031
58.1164
58.2039
58.2927
58.382
58.4707
58.5574
58.6408
58.7191
58.7904
58.8527
58.8897
58.91
58.9278
58.9428
58.9549
58.9641
58.9703
58.9734
58.9734
58.9703
58.9641
58.9549
58.9428
58.9278
58.91
58.8897
58.8527
58.7904
58.7191
58.6408
58.5574
58.4707
58.382
58.2927
58.2039
58.1164
58.031
57.9482
57.8684
57.792
57.7192
57.6503
57.5852
57.5242
57.4672
57.4144
57.3657
57.3212
57.2808
57.2445
57.2123
57.1841
57.1601
57.1401
57.1241
57.1121
57.1041
57.1001
55.6591
55.6632
55.6716
55.6841
55.7008
55.7217
55.7468
55.7763
55.81
55.8481
55.8906
55.9374
55.9888
56.0446
56.1049
56.1697
56.239
56.3128
56.3908
56.4732
56.5595
56.6495
56.7429
56.8391
56.9375
57.037
57.1367
57.2351
57.3304
57.4207
57.5037
57.5768
57.6206
57.6447
57.6659
57.6838
57.6983
57.7094
57.7168
57.7205
57.7205
57.7168
57.7094
57.6983
57.6838
57.6659
57.6447
57.6206
57.5768
57.5037
57.4207
57.3304
57.2351
57.1367
57.037
56.9375
56.8391
56.7429
56.6495
56.5595
56.4732
56.3908
56.3128
56.239
56.1697
56.1049
56.0446
55.9888
55.9374
55.8906
55.8481
55.81
55.7763
55.7468
55.7217
55.7008
55.6841
55.6716
55.6632
55.6591
54.2139
54.2182
54.2268
54.2399
54.2572
54.279
54.3053
54.336
54.3712
54.411
54.4555
54.5047
54.5587
54.6175
54.6812
54.7498
54.8234
54.9019
54.9854
55.0738
55.167
55.2647
55.3666
55.4722
55.581
55.692
55.8041
55.9157
56.025
56.1297
56.2269
56.3134
56.3658
56.3948
56.4202
56.4419
56.4595
56.4729
56.4819
56.4864
56.4864
56.4819
56.4729
56.4595
56.4419
56.4202
56.3948
56.3658
56.3134
56.2269
56.1297
56.025
55.9157
55.8041
55.692
55.581
55.4722
55.3666
55.2647
55.167
55.0738
54.9854
54.9019
54.8234
54.7498
54.6812
54.6175
54.5587
54.5047
54.4555
54.411
54.3712
54.336
54.3053
54.279
54.2572
54.2399
54.2268
54.2182
54.2139
52.7643
52.7688
52.7778
52.7913
52.8093
52.8319
52.8592
52.8911
52.9278
52.9693
53.0158
53.0672
53.1237
53.1855
53.2525
53.3249
53.4027
53.4862
53.5752
53.6698
53.77
53.8756
53.9865
54.1022
54.2223
54.3459
54.4719
54.5987
54.7243
54.8461
54.9607
55.064
55.1274
55.1627
55.1937
55.2203
55.242
55.2586
55.2697
55.2754
55.2754
55.2697
55.2586
55.242
55.2203
55.1937
55.1627
55.1274
55.064
54.9607
54.8461
54.7243
54.5987
54.4719
54.3459
54.2223
54.1022
53.9865
53.8756
53.77
53.6698
53.5752
53.4862
53.4027
53.3249
53.2525
53.1855
53.1237
53.0672
53.0158
52.9693
52.9278
52.8911
52.8592
52.8319
52.8093
52.7913
52.7778
52.7688
52.7643
51.3103
51.3149
51.3242
51.3382
51.3568
51.3802
51.4084
51.4415
51.4796
51.5227
51.571
51.6246
51.6836
51.7482
51.8184
51.8945
51.9766
52.0648
52.1593
52.2602
52.3675
52.4813
52.6015
52.7279
52.8601
52.9974
53.1388
53.2829
53.4275
53.5697
53.7056
53.8303
53.908
53.9516
53.9902
54.0234
54.0507
54.0715
54.0857
54.0928
54.0928
54.0857
54.0715
54.0507
54.0234