/*--------------------------------*- C++ -*----------------------------------*\
  =========                 |
  \\      /  F ield         | OpenFOAM: The Open Source CFD Toolbox
   \\    /   O peration     | Website:  https://openfoam.org
    \\  /    A nd           | Version:  10
     \\/     M anipulation  |
\*---------------------------------------------------------------------------*/
FoamFile
{
    format      ascii;
    class       surfaceScalarField;
    location    "1300";
    object      phi;
}
// * * * * * * * * * * * * * * * * * * * * * * * * * * * * * * * * * * * * * //

dimensions      [0 3 -1 0 0 0 0];

internalField   nonuniform List<scalar> 
12640
(
-8.02592e-10
8.02592e-10
-1.59954e-09
7.96947e-10
-2.38522e-09
7.85684e-10
-3.15408e-09
7.68855e-10
-3.90062e-09
7.4654e-10
-4.61947e-09
7.18848e-10
-5.30538e-09
6.85915e-10
-5.95329e-09
6.47907e-10
-6.55831e-09
6.05022e-10
-7.1158e-09
5.57488e-10
-7.62137e-09
5.05567e-10
-8.07092e-09
4.49556e-10
-8.46071e-09
3.89785e-10
-8.78733e-09
3.26622e-10
-9.0478e-09
2.60467e-10
-9.23956e-09
1.9176e-10
-9.36053e-09
1.20972e-10
-9.40914e-09
4.86097e-11
-9.38435e-09
-2.47905e-11
-9.28568e-09
-9.86634e-11
-9.11326e-09
-1.72419e-10
-8.86782e-09
-2.45448e-10
-8.55069e-09
-3.17125e-10
-8.16388e-09
-3.86817e-10
-7.70999e-09
-4.5389e-10
-7.19227e-09
-5.17715e-10
-6.61459e-09
-5.77679e-10
-5.9814e-09
-6.33189e-10
-5.29772e-09
-6.83687e-10
-4.56906e-09
-7.28652e-10
-3.80145e-09
-7.67614e-10
-3.00129e-09
-8.00158e-10
-2.63739e-09
-3.63899e-10
-2.26901e-09
-3.68378e-10
-1.89678e-09
-3.72236e-10
-1.52131e-09
-3.75464e-10
-1.14326e-09
-3.78054e-10
-7.63258e-10
-3.80002e-10
-3.81954e-10
-3.81303e-10
-1.37152e-17
-3.81954e-10
3.81954e-10
-3.81954e-10
7.63258e-10
-3.81303e-10
1.14326e-09
-3.80002e-10
1.52131e-09
-3.78054e-10
1.89678e-09
-3.75464e-10
2.26901e-09
-3.72236e-10
2.63739e-09
-3.68378e-10
3.00129e-09
-3.63899e-10
3.80145e-09
-8.00158e-10
4.56906e-09
-7.67614e-10
5.29772e-09
-7.28652e-10
5.9814e-09
-6.83687e-10
6.61459e-09
-6.33189e-10
7.19227e-09
-5.77679e-10
7.70999e-09
-5.17715e-10
8.16388e-09
-4.5389e-10
8.55069e-09
-3.86817e-10
8.86782e-09
-3.17125e-10
9.11326e-09
-2.45448e-10
9.28568e-09
-1.72419e-10
9.38435e-09
-9.86634e-11
9.40914e-09
-2.47905e-11
9.36053e-09
4.86098e-11
9.23956e-09
1.20972e-10
9.0478e-09
1.9176e-10
8.78733e-09
2.60467e-10
8.46071e-09
3.26622e-10
8.07092e-09
3.89785e-10
7.62136e-09
4.49556e-10
7.1158e-09
5.05567e-10
6.55831e-09
5.57488e-10
5.95329e-09
6.05022e-10
5.30538e-09
6.47907e-10
4.61947e-09
6.85915e-10
3.90062e-09
7.18848e-10
3.15408e-09
7.4654e-10
2.38522e-09
7.68855e-10
1.59954e-09
7.85684e-10
8.02592e-10
7.96947e-10
8.02592e-10
-8.80571e-10
1.68316e-09
-1.75495e-09
1.67133e-09
-2.61697e-09
1.64771e-09
-3.46053e-09
1.61241e-09
-4.27961e-09
1.56562e-09
-5.06831e-09
1.50755e-09
-5.82088e-09
1.43848e-09
-6.53175e-09
1.35878e-09
-7.19558e-09
1.26885e-09
-7.80725e-09
1.16916e-09
-8.36196e-09
1.06028e-09
-8.85523e-09
9.42819e-10
-9.28292e-09
8.17473e-10
-9.6413e-09
6.8501e-10
-9.92711e-09
5.46276e-10
-1.01375e-08
4.02186e-10
-1.02703e-08
2.53732e-10
-1.03237e-08
1.01975e-10
-1.02965e-08
-5.1959e-11
-1.01883e-08
-2.06886e-10
-9.99913e-09
-3.61567e-10
-9.72985e-09
-5.14725e-10
-9.38192e-09
-6.65049e-10
-8.95753e-09
-8.11211e-10
-8.45954e-09
-9.51882e-10
-7.89151e-09
-1.08574e-09
-7.25769e-09
-1.2115e-09
-6.56295e-09
-1.32793e-09
-5.8128e-09
-1.43383e-09
-5.01331e-09
-1.52814e-09
-4.17107e-09
-1.60986e-09
-3.29312e-09
-1.67811e-09
-2.89384e-09
-7.6318e-10
-2.48964e-09
-7.72575e-10
-2.08121e-09
-7.80666e-10
-1.66924e-09
-7.87435e-10
-1.25442e-09
-7.92868e-10
-8.37473e-10
-7.96954e-10
-4.19094e-10
-7.99682e-10
-1.4962e-17
-8.01048e-10
4.19094e-10
-8.01048e-10
8.37473e-10
-7.99682e-10
1.25442e-09
-7.96954e-10
1.66924e-09
-7.92868e-10
2.08121e-09
-7.87435e-10
2.48964e-09
-7.80665e-10
2.89384e-09
-7.72575e-10
3.29312e-09
-7.6318e-10
4.17107e-09
-1.67811e-09
5.01331e-09
-1.60986e-09
5.8128e-09
-1.52814e-09
6.56295e-09
-1.43383e-09
7.25769e-09
-1.32793e-09
7.89151e-09
-1.2115e-09
8.45954e-09
-1.08574e-09
8.95753e-09
-9.51882e-10
9.38192e-09
-8.11211e-10
9.72985e-09
-6.65049e-10
9.99913e-09
-5.14725e-10
1.01883e-08
-3.61567e-10
1.02965e-08
-2.06886e-10
1.03237e-08
-5.1959e-11
1.02703e-08
1.01975e-10
1.01375e-08
2.53732e-10
9.92711e-09
4.02186e-10
9.6413e-09
5.46276e-10
9.28292e-09
6.8501e-10
8.85523e-09
8.17473e-10
8.36196e-09
9.42819e-10
7.80725e-09
1.06028e-09
7.19558e-09
1.16916e-09
6.53175e-09
1.26885e-09
5.82088e-09
1.35878e-09
5.06831e-09
1.43848e-09
4.27961e-09
1.50755e-09
3.46053e-09
1.56562e-09
2.61697e-09
1.61241e-09
1.75495e-09
1.64771e-09
8.80571e-10
1.67133e-09
1.68316e-09
-9.66509e-10
2.64967e-09
-1.92622e-09
2.63104e-09
-2.87238e-09
2.59386e-09
-3.79827e-09
2.53831e-09
-4.6973e-09
2.46465e-09
-5.563e-09
2.37324e-09
-6.38904e-09
2.26453e-09
-7.16933e-09
2.13907e-09
-7.89799e-09
1.9975e-09
-8.56941e-09
1.84059e-09
-9.17833e-09
1.66919e-09
-9.7198e-09
1.48429e-09
-1.01893e-08
1.28698e-09
-1.05828e-08
1.07846e-09
-1.08965e-08
8.60063e-10
-1.11276e-08
6.33236e-10
-1.12734e-08
3.99536e-10
-1.13321e-08
1.60633e-10
-1.13023e-08
-8.17013e-11
-1.11836e-08
-3.256e-10
-1.0976e-08
-5.69117e-10
-1.06805e-08
-8.10237e-10
-1.02987e-08
-1.0469e-09
-9.83288e-09
-1.27701e-09
-9.28628e-09
-1.49848e-09
-8.66279e-09
-1.70923e-09
-7.96707e-09
-1.90723e-09
-7.20446e-09
-2.09053e-09
-6.38102e-09
-2.25728e-09
-5.5034e-09
-2.40576e-09
-4.57884e-09
-2.53442e-09
-3.61506e-09
-2.64189e-09
-3.17675e-09
-1.20149e-09
-2.73304e-09
-1.21628e-09
-2.28468e-09
-1.22902e-09
-1.83243e-09
-1.23968e-09
-1.37707e-09
-1.24824e-09
-9.19351e-10
-1.25467e-09
-4.60068e-10
-1.25897e-09
-1.51793e-17
-1.26112e-09
4.60068e-10
-1.26112e-09
9.19351e-10
-1.25897e-09
1.37707e-09
-1.25467e-09
1.83243e-09
-1.24824e-09
2.28468e-09
-1.23968e-09
2.73304e-09
-1.22902e-09
3.17675e-09
-1.21628e-09
3.61506e-09
-1.20149e-09
4.57884e-09
-2.64189e-09
5.5034e-09
-2.53442e-09
6.38102e-09
-2.40576e-09
7.20446e-09
-2.25728e-09
7.96707e-09
-2.09053e-09
8.66279e-09
-1.90723e-09
9.28628e-09
-1.70923e-09
9.83288e-09
-1.49848e-09
1.02987e-08
-1.27701e-09
1.06805e-08
-1.0469e-09
1.0976e-08
-8.10237e-10
1.11836e-08
-5.69117e-10
1.13023e-08
-3.256e-10
1.13321e-08
-8.17013e-11
1.12734e-08
1.60633e-10
1.11276e-08
3.99536e-10
1.08965e-08
6.33236e-10
1.05828e-08
8.60063e-10
1.01893e-08
1.07846e-09
9.7198e-09
1.28698e-09
9.17833e-09
1.48429e-09
8.56941e-09
1.66919e-09
7.89799e-09
1.84059e-09
7.16933e-09
1.9975e-09
6.38904e-09
2.13907e-09
5.563e-09
2.26453e-09
4.6973e-09
2.37324e-09
3.79827e-09
2.46465e-09
2.87238e-09
2.53831e-09
1.92622e-09
2.59386e-09
9.66509e-10
2.63104e-09
2.64967e-09
-1.06137e-09
3.71105e-09
-2.11529e-09
3.68495e-09
-3.15432e-09
3.63289e-09
-4.1711e-09
3.5551e-09
-5.15841e-09
3.45195e-09
-6.10911e-09
3.32394e-09
-7.01629e-09
3.17171e-09
-7.87323e-09
2.99601e-09
-8.6735e-09
2.79777e-09
-9.41093e-09
2.57802e-09
-1.00797e-08
2.33799e-09
-1.06745e-08
2.07905e-09
-1.11902e-08
1.80271e-09
-1.16224e-08
1.51068e-09
-1.19672e-08
1.20481e-09
-1.22211e-08
8.8713e-10
-1.23814e-08
5.59815e-10
-1.24459e-08
2.25205e-10
-1.24134e-08
-1.14216e-10
-1.22832e-08
-4.55836e-10
-1.20554e-08
-7.96927e-10
-1.17309e-08
-1.13467e-09
-1.13117e-08
-1.46617e-09
-1.08002e-08
-1.78851e-09
-1.01999e-08
-2.09874e-09
-9.51518e-09
-2.39396e-09
-8.75108e-09
-2.67133e-09
-7.9135e-09
-2.92811e-09
-7.00907e-09
-3.16171e-09
-6.04511e-09
-3.36972e-09
-5.02957e-09
-3.54996e-09
-3.97094e-09
-3.70051e-09
-3.48949e-09
-1.68295e-09
-3.0021e-09
-1.70367e-09
-2.50961e-09
-1.72152e-09
-2.01284e-09
-1.73645e-09
-1.51264e-09
-1.74844e-09
-1.00986e-09
-1.75745e-09
-5.05362e-10
-1.76347e-09
-1.33904e-17
-1.76648e-09
5.05362e-10
-1.76648e-09
1.00986e-09
-1.76347e-09
1.51264e-09
-1.75745e-09
2.01284e-09
-1.74844e-09
2.50961e-09
-1.73645e-09
3.0021e-09
-1.72152e-09
3.48949e-09
-1.70367e-09
3.97094e-09
-1.68295e-09
5.02957e-09
-3.70051e-09
6.04511e-09
-3.54996e-09
7.00907e-09
-3.36972e-09
7.9135e-09
-3.16171e-09
8.75108e-09
-2.92811e-09
9.51518e-09
-2.67133e-09
1.01999e-08
-2.39396e-09
1.08002e-08
-2.09874e-09
1.13117e-08
-1.78851e-09
1.17309e-08
-1.46617e-09
1.20554e-08
-1.13467e-09
1.22832e-08
-7.96927e-10
1.24134e-08
-4.55836e-10
1.24459e-08
-1.14216e-10
1.23814e-08
2.25205e-10
1.22211e-08
5.59815e-10
1.19672e-08
8.8713e-10
1.16224e-08
1.20481e-09
1.11902e-08
1.51068e-09
1.06745e-08
1.80271e-09
1.00797e-08
2.07905e-09
9.41093e-09
2.33799e-09
8.6735e-09
2.57802e-09
7.87323e-09
2.79777e-09
7.01629e-09
2.99601e-09
6.10911e-09
3.17171e-09
5.15841e-09
3.32394e-09
4.1711e-09
3.45195e-09
3.15432e-09
3.5551e-09
2.11529e-09
3.63289e-09
1.06137e-09
3.68495e-09
3.71105e-09
-1.1663e-09
4.87734e-09
-2.32441e-09
4.84306e-09
-3.46617e-09
4.77465e-09
-4.5835e-09
4.67244e-09
-5.66846e-09
4.5369e-09
-6.71322e-09
4.3687e-09
-7.71018e-09
4.16867e-09
-8.65196e-09
3.9378e-09
-9.53149e-09
3.67729e-09
-1.0342e-08
3.38854e-09
-1.10771e-08
3.07312e-09
-1.17309e-08
2.73283e-09
-1.22979e-08
2.36968e-09
-1.27731e-08
1.9859e-09
-1.31522e-08
1.58392e-09
-1.34315e-08
1.1664e-09
-1.36079e-08
7.36216e-10
-1.36791e-08
2.96428e-10
-1.36436e-08
-1.49697e-10
-1.35007e-08
-5.98725e-10
-1.32506e-08
-1.04707e-09
-1.28942e-08
-1.49103e-09
-1.24336e-08
-1.9268e-09
-1.18716e-08
-2.35053e-09
-1.12119e-08
-2.75836e-09
-1.04594e-08
-3.14647e-09
-9.61965e-09
-3.51112e-09
-8.69905e-09
-3.84871e-09
-7.70493e-09
-4.15583e-09
-6.64534e-09
-4.42931e-09
-5.52901e-09
-4.66629e-09
-4.36529e-09
-4.86423e-09
-3.83604e-09
-2.21221e-09
-3.30025e-09
-2.23945e-09
-2.75885e-09
-2.26292e-09
-2.21275e-09
-2.28255e-09
-1.66288e-09
-2.29831e-09
-1.11016e-09
-2.31016e-09
-5.55556e-10
-2.31807e-09
-1.10057e-17
-2.32203e-09
5.55556e-10
-2.32203e-09
1.11016e-09
-2.31807e-09
1.66288e-09
-2.31016e-09
2.21275e-09
-2.29831e-09
2.75885e-09
-2.28255e-09
3.30025e-09
-2.26292e-09
3.83604e-09
-2.23945e-09
4.36529e-09
-2.21221e-09
5.52901e-09
-4.86423e-09
6.64534e-09
-4.66629e-09
7.70493e-09
-4.42931e-09
8.69905e-09
-4.15583e-09
9.61965e-09
-3.84871e-09
1.04594e-08
-3.51112e-09
1.12119e-08
-3.14647e-09
1.18716e-08
-2.75836e-09
1.24336e-08
-2.35053e-09
1.28942e-08
-1.9268e-09
1.32506e-08
-1.49103e-09
1.35007e-08
-1.04707e-09
1.36436e-08
-5.98725e-10
1.36791e-08
-1.49697e-10
1.36079e-08
2.96428e-10
1.34315e-08
7.36216e-10
1.31522e-08
1.1664e-09
1.27731e-08
1.58392e-09
1.22979e-08
1.9859e-09
1.17309e-08
2.36968e-09
1.10771e-08
2.73283e-09
1.0342e-08
3.07312e-09
9.53149e-09
3.38854e-09
8.65196e-09
3.67729e-09
7.71017e-09
3.9378e-09
6.71322e-09
4.16867e-09
5.66846e-09
4.3687e-09
4.5835e-09
4.5369e-09
3.46617e-09
4.67244e-09
2.32441e-09
4.77465e-09
1.1663e-09
4.84306e-09
4.87734e-09
-1.28264e-09
6.15998e-09
-2.55627e-09
6.1167e-09
-3.81195e-09
6.03033e-09
-5.04079e-09
5.90128e-09
-6.23404e-09
5.73016e-09
-7.38313e-09
5.51779e-09
-8.47969e-09
5.26522e-09
-9.51561e-09
4.97372e-09
-1.04831e-08
4.64479e-09
-1.13748e-08
4.28018e-09
-1.21835e-08
3.88189e-09
-1.29029e-08
3.45219e-09
-1.35268e-08
2.9936e-09
-1.40499e-08
2.50894e-09
-1.44672e-08
2.00128e-09
-1.47748e-08
1.47398e-09
-1.49692e-08
9.30652e-10
-1.5048e-08
3.75178e-10
-1.50093e-08
-1.88324e-10
-1.48526e-08
-7.55518e-10
-1.45778e-08
-1.32187e-09
-1.41861e-08
-1.88271e-09
-1.36796e-08
-2.43322e-09
-1.30616e-08
-2.96855e-09
-1.23362e-08
-3.48382e-09
-1.15085e-08
-3.97418e-09
-1.05847e-08
-4.43492e-09
-9.5719e-09
-4.86148e-09
-8.47818e-09
-5.24955e-09
-7.31236e-09
-5.59513e-09
-6.08406e-09
-5.89458e-09
-4.80357e-09
-6.14473e-09
-4.22119e-09
-2.79459e-09
-3.63162e-09
-2.82902e-09
-3.03587e-09
-2.85867e-09
-2.43494e-09
-2.88348e-09
-1.82985e-09
-2.9034e-09
-1.22164e-09
-2.91837e-09
-6.11343e-10
-2.92837e-09
-9.00111e-18
-2.93338e-09
6.11343e-10
-2.93338e-09
1.22164e-09
-2.92837e-09
1.82985e-09
-2.91837e-09
2.43494e-09
-2.9034e-09
3.03587e-09
-2.88348e-09
3.63162e-09
-2.85867e-09
4.22119e-09
-2.82902e-09
4.80357e-09
-2.79459e-09
6.08406e-09
-6.14473e-09
7.31236e-09
-5.89458e-09
8.47818e-09
-5.59513e-09
9.5719e-09
-5.24955e-09
1.05847e-08
-4.86148e-09
1.15085e-08
-4.43492e-09
1.23362e-08
-3.97418e-09
1.30616e-08
-3.48382e-09
1.36796e-08
-2.96855e-09
1.41861e-08
-2.43322e-09
1.45778e-08
-1.88271e-09
1.48526e-08
-1.32187e-09
1.50093e-08
-7.55518e-10
1.5048e-08
-1.88324e-10
1.49692e-08
3.75178e-10
1.47748e-08
9.30652e-10
1.44672e-08
1.47398e-09
1.40499e-08
2.00128e-09
1.35268e-08
2.50894e-09
1.29029e-08
2.9936e-09
1.21835e-08
3.45219e-09
1.13748e-08
3.88189e-09
1.04831e-08
4.28018e-09
9.51561e-09
4.64479e-09
8.47969e-09
4.97372e-09
7.38313e-09
5.26522e-09
6.23404e-09
5.51779e-09
5.04079e-09
5.73016e-09
3.81195e-09
5.90128e-09
2.55627e-09
6.03033e-09
1.28264e-09
6.1167e-09
6.15998e-09
-1.41201e-09
7.57199e-09
-2.81413e-09
7.51881e-09
-4.19649e-09
7.41269e-09
-5.54935e-09
7.25414e-09
-6.86308e-09
7.04389e-09
-8.12824e-09
6.78295e-09
-9.33563e-09
6.47262e-09
-1.04763e-08
6.11443e-09
-1.15418e-08
5.71024e-09
-1.25238e-08
5.26219e-09
-1.34146e-08
4.77274e-09
-1.42071e-08
4.24466e-09
-1.48946e-08
3.68106e-09
-1.5471e-08
3.08538e-09
-1.59311e-08
2.46141e-09
-1.62704e-08
1.81325e-09
-1.64851e-08
1.14537e-09
-1.65725e-08
4.62515e-10
-1.65305e-08
-2.30249e-10
-1.63585e-08
-9.27592e-10
-1.60564e-08
-1.62395e-09
-1.56255e-08
-2.31355e-09
-1.50683e-08
-2.9905e-09
-1.4388e-08
-3.64882e-09
-1.35893e-08
-4.28249e-09
-1.26779e-08
-4.88558e-09
-1.16606e-08
-5.45225e-09
-1.05452e-08
-5.97692e-09
-9.34045e-09
-6.45426e-09
-8.05623e-09
-6.87935e-09
-6.7031e-09
-7.24772e-09
-5.29239e-09
-7.55543e-09
-4.65077e-09
-3.4362e-09
-4.00123e-09
-3.47856e-09
-3.34486e-09
-3.51504e-09
-2.68277e-09
-3.54557e-09
-2.0161e-09
-3.57007e-09
-1.34599e-09
-3.58849e-09
-6.73571e-10
-3.60079e-09
-7.26783e-18
-3.60695e-09
6.73571e-10
-3.60695e-09
1.34599e-09
-3.60079e-09
2.0161e-09
-3.58849e-09
2.68277e-09
-3.57007e-09
3.34486e-09
-3.54557e-09
4.00123e-09
-3.51504e-09
4.65077e-09
-3.47856e-09
5.29239e-09
-3.4362e-09
6.7031e-09
-7.55543e-09
8.05623e-09
-7.24772e-09
9.34045e-09
-6.87935e-09
1.05452e-08
-6.45426e-09
1.16606e-08
-5.97692e-09
1.26779e-08
-5.45225e-09
1.35893e-08
-4.88558e-09
1.4388e-08
-4.28249e-09
1.50683e-08
-3.64882e-09
1.56255e-08
-2.9905e-09
1.60564e-08
-2.31355e-09
1.63585e-08
-1.62395e-09
1.65305e-08
-9.27592e-10
1.65725e-08
-2.30249e-10
1.64851e-08
4.62514e-10
1.62704e-08
1.14537e-09
1.59311e-08
1.81325e-09
1.5471e-08
2.46141e-09
1.48946e-08
3.08538e-09
1.42071e-08
3.68106e-09
1.34146e-08
4.24466e-09
1.25238e-08
4.77274e-09
1.15418e-08
5.26219e-09
1.04763e-08
5.71024e-09
9.33563e-09
6.11443e-09
8.12824e-09
6.47262e-09
6.86308e-09
6.78295e-09
5.54935e-09
7.04389e-09
4.19649e-09
7.25414e-09
2.81413e-09
7.41269e-09
1.41201e-09
7.51881e-09
7.57199e-09
-1.55639e-09
9.12838e-09
-3.10189e-09
9.06431e-09
-4.62566e-09
8.93646e-09
-6.11695e-09
8.74543e-09
-7.56518e-09
8.49212e-09
-8.95996e-09
8.17773e-09
-1.02911e-08
7.80381e-09
-1.15489e-08
7.37221e-09
-1.27239e-08
6.88517e-09
-1.38069e-08
6.34525e-09
-1.47896e-08
5.7554e-09
-1.56639e-08
5.11897e-09
-1.64225e-08
4.43969e-09
-1.70589e-08
3.72171e-09
-1.7567e-08
2.96957e-09
-1.7942e-08
2.18822e-09
-1.81796e-08
1.38303e-09
-1.82769e-08
5.59734e-10
-1.82315e-08
-2.75575e-10
-1.80427e-08
-1.11647e-09
-1.77104e-08
-1.95624e-09
-1.7236e-08
-2.78793e-09
-1.66221e-08
-3.60442e-09
-1.58724e-08
-4.3985e-09
-1.4992e-08
-5.16291e-09
-1.39871e-08
-5.89047e-09
-1.28652e-08
-6.57414e-09
-1.16349e-08
-7.20717e-09
-1.03061e-08
-7.78314e-09
-8.88933e-09
-8.29608e-09
-7.39645e-09
-8.7406e-09
-5.83993e-09
-9.11195e-09
-5.13197e-09
-4.14417e-09
-4.41525e-09
-4.19529e-09
-3.69098e-09
-4.23931e-09
-2.9604e-09
-4.27615e-09
-2.22475e-09
-4.30571e-09
-1.48529e-09
-4.32795e-09
-7.4328e-10
-4.3428e-09
-4.00886e-18
-4.35023e-09
7.4328e-10
-4.35023e-09
1.48529e-09
-4.3428e-09
2.22475e-09
-4.32795e-09
2.9604e-09
-4.30571e-09
3.69098e-09
-4.27615e-09
4.41525e-09
-4.23931e-09
5.13197e-09
-4.19529e-09
5.83993e-09
-4.14417e-09
7.39645e-09
-9.11195e-09
8.88933e-09
-8.7406e-09
1.03061e-08
-8.29608e-09
1.16349e-08
-7.78314e-09
1.28652e-08
-7.20717e-09
1.39871e-08
-6.57414e-09
1.4992e-08
-5.89047e-09
1.58724e-08
-5.16291e-09
1.66221e-08
-4.3985e-09
1.7236e-08
-3.60442e-09
1.77104e-08
-2.78793e-09
1.80427e-08
-1.95624e-09
1.82315e-08
-1.11647e-09
1.82769e-08
-2.75575e-10
1.81796e-08
5.59734e-10
1.7942e-08
1.38303e-09
1.7567e-08
2.18822e-09
1.70589e-08
2.96957e-09
1.64225e-08
3.72171e-09
1.56639e-08
4.43969e-09
1.47896e-08
5.11897e-09
1.38069e-08
5.7554e-09
1.27239e-08
6.34525e-09
1.15489e-08
6.88517e-09
1.02911e-08
7.37221e-09
8.95996e-09
7.80381e-09
7.56518e-09
8.17773e-09
6.11695e-09
8.49212e-09
4.62566e-09
8.74543e-09
3.10189e-09
8.93646e-09
1.55639e-09
9.06431e-09
9.12838e-09
-1.71819e-09
1.08466e-08
-3.42438e-09
1.07705e-08
-5.10664e-09
1.06187e-08
-6.75312e-09
1.03919e-08
-8.35215e-09
1.00912e-08
-9.8923e-09
9.71787e-09
-1.13624e-08
9.27388e-09
-1.27515e-08
8.76139e-09
-1.40494e-08
8.18302e-09
-1.5246e-08
7.54182e-09
-1.63319e-08
6.84128e-09
-1.72983e-08
6.08537e-09
-1.81371e-08
5.27849e-09
-1.88409e-08
4.42557e-09
-1.94033e-08
3.53199e-09
-1.98187e-08
2.60363e-09
-2.00825e-08
1.64685e-09
-2.01913e-08
6.68448e-10
-2.01425e-08
-3.24321e-10
-1.99352e-08
-1.32383e-09
-1.95693e-08
-2.3221e-09
-1.90463e-08
-3.31087e-09
-1.83691e-08
-4.28167e-09
-1.75417e-08
-5.22591e-09
-1.65696e-08
-6.13496e-09
-1.54599e-08
-7.00025e-09
-1.42206e-08
-7.81344e-09
-1.28613e-08
-8.56643e-09
-1.13928e-08
-9.25161e-09
-9.82707e-09
-9.86185e-09
-8.17695e-09
-1.03907e-08
-6.45635e-09
-1.08325e-08
-5.67372e-09
-4.9268e-09
-4.88137e-09
-4.98763e-09
-4.08067e-09
-5.04001e-09
-3.27297e-09
-5.08385e-09
-2.45966e-09
-5.11903e-09
-1.64212e-09
-5.14548e-09
-8.21767e-10
-5.16315e-09
3.57787e-18
-5.172e-09
8.21767e-10
-5.172e-09
1.64212e-09
-5.16315e-09
2.45966e-09
-5.14548e-09
3.27297e-09
-5.11903e-09
4.08067e-09
-5.08385e-09
4.88137e-09
-5.04001e-09
5.67372e-09
-4.98763e-09
6.45635e-09
-4.9268e-09
8.17695e-09
-1.08325e-08
9.82707e-09
-1.03907e-08
1.13928e-08
-9.86185e-09
1.28613e-08
-9.25161e-09
1.42206e-08
-8.56643e-09
1.54599e-08
-7.81344e-09
1.65696e-08
-7.00025e-09
1.75417e-08
-6.13496e-09
1.83691e-08
-5.22591e-09
1.90463e-08
-4.28167e-09
1.95693e-08
-3.31087e-09
1.99352e-08
-2.3221e-09
2.01425e-08
-1.32383e-09
2.01913e-08
-3.24321e-10
2.00825e-08
6.68448e-10
1.98187e-08
1.64685e-09
1.94033e-08
2.60363e-09
1.88409e-08
3.53199e-09
1.81371e-08
4.42557e-09
1.72983e-08
5.27849e-09
1.63319e-08
6.08537e-09
1.5246e-08
6.84128e-09
1.40494e-08
7.54182e-09
1.27515e-08
8.18302e-09
1.13624e-08
8.76139e-09
9.8923e-09
9.27388e-09
8.35215e-09
9.71787e-09
6.75312e-09
1.00912e-08
5.10664e-09
1.03919e-08
3.42438e-09
1.06187e-08
1.71819e-09
1.07705e-08
1.08466e-08
-1.90041e-09
1.2747e-08
-3.78759e-09
1.26577e-08
-5.64836e-09
1.24795e-08
-7.46968e-09
1.22132e-08
-9.23866e-09
1.18601e-08
-1.09427e-08
1.14219e-08
-1.25694e-08
1.09006e-08
-1.41068e-08
1.02988e-08
-1.55434e-08
9.61963e-09
-1.68682e-08
8.86662e-09
-1.80708e-08
8.04385e-09
-1.91414e-08
7.15595e-09
-2.0071e-08
6.2081e-09
-2.08515e-08
5.20605e-09
-2.14756e-08
4.15611e-09
-2.19371e-08
3.06518e-09
-2.2231e-08
1.94071e-09
-2.23532e-08
7.90685e-10
-2.23012e-08
-3.76383e-10
-2.20735e-08
-1.55153e-09
-2.16702e-08
-2.72537e-09
-2.10929e-08
-3.88819e-09
-2.03445e-08
-5.03003e-09
-1.94297e-08
-6.14077e-09
-1.83544e-08
-7.21024e-09
-1.71263e-08
-8.22836e-09
-1.57544e-08
-9.18527e-09
-1.42494e-08
-1.00714e-08
-1.26231e-08
-1.08779e-08
-1.08888e-08
-1.15962e-08
-9.06078e-09
-1.22187e-08
-7.15444e-09
-1.27389e-08
-6.28726e-09
-5.79399e-09
-5.40929e-09
-5.8656e-09
-4.52204e-09
-5.92727e-09
-3.627e-09
-5.97888e-09
-2.72573e-09
-6.0203e-09
-1.81977e-09
-6.05145e-09
-9.10668e-10
-6.07225e-09
1.56125e-17
-6.08266e-09
9.10668e-10
-6.08266e-09
1.81977e-09
-6.07225e-09
2.72573e-09
-6.05145e-09
3.627e-09
-6.0203e-09
4.52204e-09
-5.97888e-09
5.40929e-09
-5.92727e-09
6.28726e-09
-5.8656e-09
7.15444e-09
-5.79399e-09
9.06078e-09
-1.27389e-08
1.08888e-08
-1.22187e-08
1.26231e-08
-1.15962e-08
1.42494e-08
-1.08779e-08
1.57544e-08
-1.00714e-08
1.71263e-08
-9.18527e-09
1.83544e-08
-8.22836e-09
1.94297e-08
-7.21024e-09
2.03445e-08
-6.14077e-09
2.10929e-08
-5.03004e-09
2.16702e-08
-3.88819e-09
2.20735e-08
-2.72537e-09
2.23012e-08
-1.55153e-09
2.23532e-08
-3.76383e-10
2.2231e-08
7.90685e-10
2.19371e-08
1.94071e-09
2.14756e-08
3.06518e-09
2.08515e-08
4.15611e-09
2.0071e-08
5.20605e-09
1.91414e-08
6.2081e-09
1.80708e-08
7.15595e-09
1.68682e-08
8.04385e-09
1.55434e-08
8.86662e-09
1.41068e-08
9.61963e-09
1.25694e-08
1.02988e-08
1.09427e-08
1.09006e-08
9.23866e-09
1.14219e-08
7.46968e-09
1.18601e-08
5.64836e-09
1.22132e-08
3.78759e-09
1.24795e-08
1.90041e-09
1.26577e-08
1.2747e-08
-2.10681e-09
1.48538e-08
-4.19901e-09
1.47499e-08
-6.26204e-09
1.45425e-08
-8.28148e-09
1.42327e-08
-1.02431e-08
1.38218e-08
-1.21329e-08
1.33117e-08
-1.39373e-08
1.2705e-08
-1.5643e-08
1.20045e-08
-1.72372e-08
1.12139e-08
-1.87078e-08
1.03372e-08
-2.00431e-08
9.37919e-09
-2.12324e-08
8.34524e-09
-2.22656e-08
7.24132e-09
-2.31337e-08
6.07411e-09
-2.38285e-08
4.85095e-09
-2.43432e-08
3.57983e-09
-2.46719e-08
2.26943e-09
-2.48102e-08
9.29031e-10
-2.47552e-08
-4.3146e-10
-2.45051e-08
-1.8016e-09
-2.406e-08
-3.17045e-09
-2.34215e-08
-4.52668e-09
-2.25929e-08
-5.85866e-09
-2.15791e-08
-7.15456e-09
-2.03869e-08
-8.40251e-09
-1.90245e-08
-9.59073e-09
-1.75021e-08
-1.07077e-08
-1.58314e-08
-1.17422e-08
-1.40255e-08
-1.26837e-08
-1.20993e-08
-1.35224e-08
-1.00685e-08
-1.42495e-08
-7.9505e-09
-1.48569e-08
-6.98694e-09
-6.75755e-09
-6.01135e-09
-6.84119e-09
-5.0254e-09
-6.91322e-09
-4.03078e-09
-6.9735e-09
-3.02919e-09
-7.02188e-09
-2.02238e-09
-7.05826e-09
-1.01206e-09
-7.08256e-09
2.63426e-17
-7.09473e-09
1.01206e-09
-7.09473e-09
2.02238e-09
-7.08256e-09
3.02919e-09
-7.05826e-09
4.03078e-09
-7.02188e-09
5.0254e-09
-6.9735e-09
6.01135e-09
-6.91322e-09
6.98694e-09
-6.84119e-09
7.9505e-09
-6.75755e-09
1.00685e-08
-1.48569e-08
1.20993e-08
-1.42495e-08
1.40255e-08
-1.35224e-08
1.58314e-08
-1.26837e-08
1.75021e-08
-1.17422e-08
1.90245e-08
-1.07077e-08
2.03869e-08
-9.59073e-09
2.15791e-08
-8.40251e-09
2.25929e-08
-7.15456e-09
2.34215e-08
-5.85866e-09
2.406e-08
-4.52668e-09
2.45051e-08
-3.17045e-09
2.47552e-08
-1.8016e-09
2.48102e-08
-4.3146e-10
2.46719e-08
9.29031e-10
2.43432e-08
2.26943e-09
2.38285e-08
3.57983e-09
2.31337e-08
4.85095e-09
2.22656e-08
6.07411e-09
2.12324e-08
7.24132e-09
2.00431e-08
8.34524e-09
1.87078e-08
9.37919e-09
1.72372e-08
1.03372e-08
1.5643e-08
1.12139e-08
1.39373e-08
1.20045e-08
1.21329e-08
1.2705e-08
1.02431e-08
1.33117e-08
8.28148e-09
1.38218e-08
6.26204e-09
1.42327e-08
4.19901e-09
1.45425e-08
2.10681e-09
1.47499e-08
1.48538e-08
-2.34215e-09
1.71959e-08
-4.66813e-09
1.70759e-08
-6.96184e-09
1.68362e-08
-9.2073e-09
1.64781e-08
-1.13888e-08
1.60032e-08
-1.34907e-08
1.54137e-08
-1.54981e-08
1.47123e-08
-1.73961e-08
1.39025e-08
-1.91707e-08
1.29884e-08
-2.08082e-08
1.19747e-08
-2.22957e-08
1.08667e-08
-2.36213e-08
9.67078e-09
-2.47736e-08
8.39367e-09
-2.57426e-08
7.04311e-09
-2.65192e-08
5.62753e-09
-2.70955e-08
4.15617e-09
-2.74651e-08
2.63903e-09
-2.76229e-08
1.08684e-09
-2.75654e-08
-4.8896e-10
-2.72908e-08
-2.07627e-09
-2.67988e-08
-3.66243e-09
-2.60912e-08
-5.2343e-09
-2.51714e-08
-6.77839e-09
-2.4045e-08
-8.28098e-09
-2.27193e-08
-9.72825e-09
-2.12035e-08
-1.11065e-08
-1.95088e-08
-1.24023e-08
-1.76483e-08
-1.36027e-08
-1.56366e-08
-1.46954e-08
-1.34901e-08
-1.56689e-08
-1.12267e-08
-1.65129e-08
-8.86549e-09
-1.72181e-08
-7.79119e-09
-7.83184e-09
-6.70342e-09
-7.92896e-09
-5.60404e-09
-8.0126e-09
-4.49495e-09
-8.08259e-09
-3.37806e-09
-8.13877e-09
-2.25531e-09
-8.18102e-09
-1.12863e-09
-8.20924e-09
3.14496e-17
-8.22336e-09
1.12863e-09
-8.22336e-09
2.25531e-09
-8.20924e-09
3.37806e-09
-8.18102e-09
4.49495e-09
-8.13877e-09
5.60404e-09
-8.08259e-09
6.70342e-09
-8.0126e-09
7.79119e-09
-7.92896e-09
8.86549e-09
-7.83184e-09
1.12267e-08
-1.72181e-08
1.34901e-08
-1.65129e-08
1.56366e-08
-1.56689e-08
1.76483e-08
-1.46954e-08
1.95088e-08
-1.36027e-08
2.12035e-08
-1.24023e-08
2.27193e-08
-1.11065e-08
2.4045e-08
-9.72825e-09
2.51714e-08
-8.28098e-09
2.60912e-08
-6.77839e-09
2.67988e-08
-5.2343e-09
2.72908e-08
-3.66243e-09
2.75654e-08
-2.07627e-09
2.76229e-08
-4.8896e-10
2.74651e-08
1.08684e-09
2.70955e-08
2.63903e-09
2.65192e-08
4.15617e-09
2.57426e-08
5.62753e-09
2.47736e-08
7.04311e-09
2.36213e-08
8.39367e-09
2.22957e-08
9.67078e-09
2.08082e-08
1.08667e-08
1.91707e-08
1.19747e-08
1.73961e-08
1.29884e-08
1.54981e-08
1.39025e-08
1.34907e-08
1.47123e-08
1.13888e-08
1.54137e-08
9.2073e-09
1.60032e-08
6.96184e-09
1.64781e-08
4.66813e-09
1.68362e-08
2.34215e-09
1.70759e-08
1.71959e-08
-2.61251e-09
1.98085e-08
-5.20709e-09
1.96704e-08
-7.76589e-09
1.9395e-08
-1.02712e-08
1.89834e-08
-1.27055e-08
1.84375e-08
-1.50515e-08
1.77598e-08
-1.72926e-08
1.69534e-08
-1.94123e-08
1.60222e-08
-2.13948e-08
1.49709e-08
-2.3225e-08
1.38049e-08
-2.48886e-08
1.25303e-08
-2.63719e-08
1.11541e-08
-2.76625e-08
9.68426e-09
-2.87489e-08
8.12952e-09
-2.96209e-08
6.49955e-09
-3.02697e-08
4.80493e-09
-3.06878e-08
3.05713e-09
-3.08695e-08
1.26848e-09
-3.08106e-08
-5.47849e-10
-3.05089e-08
-2.37795e-09
-2.99641e-08
-4.20723e-09
-2.91779e-08
-6.02052e-09
-2.8154e-08
-7.80225e-09
-2.68985e-08
-9.53653e-09
-2.54193e-08
-1.12074e-08
-2.37268e-08
-1.2799e-08
-2.18334e-08
-1.42957e-08
-1.97536e-08
-1.56825e-08
-1.75039e-08
-1.69451e-08
-1.51026e-08
-1.80703e-08
-1.25697e-08
-1.90458e-08
-9.92668e-09
-1.98611e-08
-8.72401e-09
-9.03451e-09
-7.50617e-09
-9.1468e-09
-6.27525e-09
-9.24352e-09
-5.0334e-09
-9.32445e-09
-3.78276e-09
-9.38941e-09
-2.52552e-09
-9.43826e-09
-1.26386e-09
-9.47089e-09
2.76557e-17
-9.48722e-09
1.26386e-09
-9.48722e-09
2.52552e-09
-9.47089e-09
3.78276e-09
-9.43826e-09
5.0334e-09
-9.38941e-09
6.27525e-09
-9.32445e-09
7.50617e-09
-9.24352e-09
8.72401e-09
-9.1468e-09
9.92668e-09
-9.03451e-09
1.25697e-08
-1.98611e-08
1.51026e-08
-1.90458e-08
1.75039e-08
-1.80703e-08
1.97536e-08
-1.69451e-08
2.18334e-08
-1.56825e-08
2.37268e-08
-1.42957e-08
2.54193e-08
-1.2799e-08
2.68985e-08
-1.12074e-08
2.8154e-08
-9.53653e-09
2.91779e-08
-7.80225e-09
2.99641e-08
-6.02052e-09
3.05089e-08
-4.20723e-09
3.08106e-08
-2.37795e-09
3.08695e-08
-5.47849e-10
3.06878e-08
1.26848e-09
3.02697e-08
3.05713e-09
2.96209e-08
4.80493e-09
2.87489e-08
6.49955e-09
2.76625e-08
8.12952e-09
2.63719e-08
9.68426e-09
2.48886e-08
1.11541e-08
2.3225e-08
1.25303e-08
2.13948e-08
1.38049e-08
1.94123e-08
1.49709e-08
1.72926e-08
1.60222e-08
1.50515e-08
1.69534e-08
1.27055e-08
1.77598e-08
1.02712e-08
1.84375e-08
7.76589e-09
1.89834e-08
5.2071e-09
1.9395e-08
2.61251e-09
1.96704e-08
1.98085e-08
-2.92573e-09
2.27342e-08
-5.83153e-09
2.25762e-08
-8.69753e-09
2.2261e-08
-1.1504e-08
2.17899e-08
-1.42316e-08
2.1165e-08
-1.6861e-08
2.03892e-08
-1.93735e-08
1.94659e-08
-2.17509e-08
1.83996e-08
-2.39755e-08
1.71955e-08
-2.60303e-08
1.58597e-08
-2.78993e-08
1.43992e-08
-2.95671e-08
1.2822e-08
-3.10198e-08
1.11369e-08
-3.22442e-08
9.35397e-09
-3.32289e-08
7.48424e-09
-3.39637e-08
5.53973e-09
-3.44401e-08
3.53356e-09
-3.46514e-08
1.47981e-09
-3.45929e-08
-6.06429e-10
-3.42616e-08
-2.7092e-09
-3.36571e-08
-4.81176e-09
-3.27809e-08
-6.89666e-09
-3.16372e-08
-8.94595e-09
-3.02324e-08
-1.09413e-08
-2.85754e-08
-1.28644e-08
-2.66777e-08
-1.46968e-08
-2.4553e-08
-1.64204e-08
-2.22176e-08
-1.80179e-08
-1.969e-08
-1.94727e-08
-1.69908e-08
-2.07694e-08
-1.41427e-08
-2.18939e-08
-1.11699e-08
-2.28339e-08
-9.81691e-09
-1.03875e-08
-8.44673e-09
-1.0517e-08
-7.06175e-09
-1.06285e-08
-5.66436e-09
-1.07218e-08
-4.25701e-09
-1.07968e-08
-2.84218e-09
-1.08531e-08
-1.42234e-09
-1.08907e-08
2.4946e-17
-1.09096e-08
1.42234e-09
-1.09096e-08
2.84218e-09
-1.08907e-08
4.25701e-09
-1.08531e-08
5.66436e-09
-1.07968e-08
7.06175e-09
-1.07218e-08
8.44673e-09
-1.06285e-08
9.81691e-09
-1.0517e-08
1.11699e-08
-1.03875e-08
1.41427e-08
-2.28339e-08
1.69908e-08
-2.18939e-08
1.969e-08
-2.07694e-08
2.22176e-08
-1.94727e-08
2.4553e-08
-1.80179e-08
2.66777e-08
-1.64204e-08
2.85754e-08
-1.46968e-08
3.02324e-08
-1.28644e-08
3.16372e-08
-1.09413e-08
3.27809e-08
-8.94595e-09
3.36571e-08
-6.89666e-09
3.42616e-08
-4.81176e-09
3.45929e-08
-2.7092e-09
3.46514e-08
-6.06429e-10
3.44401e-08
1.47981e-09
3.39637e-08
3.53356e-09
3.32289e-08
5.53973e-09
3.22442e-08
7.48424e-09
3.10198e-08
9.35397e-09
2.95671e-08
1.11369e-08
2.78993e-08
1.2822e-08
2.60303e-08
1.43992e-08
2.39755e-08
1.58597e-08
2.17509e-08
1.71955e-08
1.93735e-08
1.83996e-08
1.6861e-08
1.94659e-08
1.42316e-08
2.03892e-08
1.1504e-08
2.1165e-08
8.69753e-09
2.17899e-08
5.83153e-09
2.2261e-08
2.92573e-09
2.25762e-08
2.27342e-08
-3.29198e-09
2.60262e-08
-6.56174e-09
2.5846e-08
-9.78712e-09
2.54864e-08
-1.29462e-08
2.4949e-08
-1.60171e-08
2.4236e-08
-1.89785e-08
2.33506e-08
-2.18094e-08
2.22968e-08
-2.44894e-08
2.10796e-08
-2.69986e-08
1.97047e-08
-2.93179e-08
1.81791e-08
-3.14291e-08
1.65105e-08
-3.33151e-08
1.47079e-08
-3.49598e-08
1.27815e-08
-3.63484e-08
1.07426e-08
-3.74677e-08
8.60353e-09
-3.8306e-08
6.37807e-09
-3.88536e-08
4.08109e-09
-3.91024e-08
1.72867e-09
-3.90468e-08
-6.61996e-10
-3.86834e-08
-3.07265e-09
-3.80111e-08
-5.48409e-09
-3.70314e-08
-7.87632e-09
-3.57486e-08
-1.02287e-08
-3.41698e-08
-1.25202e-08
-3.23048e-08
-1.47295e-08
-3.01661e-08
-1.68354e-08
-2.77695e-08
-1.88171e-08
-2.5133e-08
-2.06544e-08
-2.22776e-08
-2.23281e-08
-1.92266e-08
-2.38204e-08
-1.60058e-08
-2.51148e-08
-1.26427e-08
-2.6197e-08
-1.11117e-08
-1.19184e-08
-9.56117e-09
-1.20675e-08
-7.99368e-09
-1.2196e-08
-6.41203e-09
-1.23035e-08
-4.81901e-09
-1.23898e-08
-3.21744e-09
-1.24547e-08
-1.61015e-09
-1.2498e-08
4.12099e-17
-1.25197e-08
1.61015e-09
-1.25197e-08
3.21744e-09
-1.2498e-08
4.81901e-09
-1.24547e-08
6.41203e-09
-1.23898e-08
7.99368e-09
-1.23035e-08
9.56117e-09
-1.2196e-08
1.11117e-08
-1.20675e-08
1.26427e-08
-1.19184e-08
1.60058e-08
-2.6197e-08
1.92266e-08
-2.51148e-08
2.22776e-08
-2.38204e-08
2.5133e-08
-2.23281e-08
2.77695e-08
-2.06544e-08
3.01661e-08
-1.88171e-08
3.23048e-08
-1.68354e-08
3.41698e-08
-1.47295e-08
3.57486e-08
-1.25202e-08
3.70314e-08
-1.02287e-08
3.80111e-08
-7.87632e-09
3.86834e-08
-5.48409e-09
3.90468e-08
-3.07265e-09
3.91024e-08
-6.61996e-10
3.88536e-08
1.72867e-09
3.8306e-08
4.08109e-09
3.74677e-08
6.37807e-09
3.63484e-08