/*--------------------------------*- C++ -*----------------------------------*\
  =========                 |
  \\      /  F ield         | OpenFOAM: The Open Source CFD Toolbox
   \\    /   O peration     | Website:  https://openfoam.org
    \\  /    A nd           | Version:  10
     \\/     M anipulation  |
\*---------------------------------------------------------------------------*/
FoamFile
{
    format      ascii;
    class       volVectorField;
    location    "1300";
    object      Ub;
}
// * * * * * * * * * * * * * * * * * * * * * * * * * * * * * * * * * * * * * //

dimensions      [0 1 -1 0 0 0 0];

internalField   nonuniform List<vector> 
6400
(
(-2.50071e-22 -9.87899e-16 0)
(-7.48454e-22 -9.87899e-16 0)
(-1.24157e-21 -9.87899e-16 0)
(-1.72593e-21 -9.87899e-16 0)
(-2.1981e-21 -9.87899e-16 0)
(-2.65468e-21 -9.87899e-16 0)
(-3.09238e-21 -9.87899e-16 0)
(-3.50797e-21 -9.87899e-16 0)
(-3.89835e-21 -9.87899e-16 0)
(-4.26057e-21 -9.87899e-16 0)
(-4.59179e-21 -9.87899e-16 0)
(-4.88939e-21 -9.87899e-16 0)
(-5.15091e-21 -9.87899e-16 0)
(-5.37413e-21 -9.87899e-16 0)
(-5.55705e-21 -9.87899e-16 0)
(-5.69796e-21 -9.87899e-16 0)
(-5.7954e-21 -9.87899e-16 0)
(-5.84824e-21 -9.87899e-16 0)
(-5.85566e-21 -9.87899e-16 0)
(-5.81719e-21 -9.87899e-16 0)
(-5.73273e-21 -9.87899e-16 0)
(-5.60253e-21 -9.87899e-16 0)
(-5.42724e-21 -9.87899e-16 0)
(-5.20791e-21 -9.87899e-16 0)
(-4.94596e-21 -9.87899e-16 0)
(-4.64323e-21 -9.87899e-16 0)
(-4.30193e-21 -9.87899e-16 0)
(-3.92465e-21 -9.87899e-16 0)
(-3.51434e-21 -9.87899e-16 0)
(-3.07428e-21 -9.87899e-16 0)
(-2.60808e-21 -9.87899e-16 0)
(-2.11959e-21 -9.87899e-16 0)
(-1.7569e-21 -9.87899e-16 0)
(-1.52873e-21 -9.87899e-16 0)
(-1.29797e-21 -9.87899e-16 0)
(-1.06501e-21 -9.87899e-16 0)
(-8.30226e-22 -9.87899e-16 0)
(-5.94031e-22 -9.87899e-16 0)
(-3.56824e-22 -9.87899e-16 0)
(-1.19009e-22 -9.87899e-16 0)
(1.19009e-22 -9.87899e-16 0)
(3.56824e-22 -9.87899e-16 0)
(5.94031e-22 -9.87899e-16 0)
(8.30226e-22 -9.87899e-16 0)
(1.06501e-21 -9.87899e-16 0)
(1.29797e-21 -9.87899e-16 0)
(1.52873e-21 -9.87899e-16 0)
(1.7569e-21 -9.87899e-16 0)
(2.11959e-21 -9.87899e-16 0)
(2.60808e-21 -9.87899e-16 0)
(3.07428e-21 -9.87899e-16 0)
(3.51434e-21 -9.87899e-16 0)
(3.92465e-21 -9.87899e-16 0)
(4.30193e-21 -9.87899e-16 0)
(4.64323e-21 -9.87899e-16 0)
(4.94596e-21 -9.87899e-16 0)
(5.20791e-21 -9.87899e-16 0)
(5.42724e-21 -9.87899e-16 0)
(5.60253e-21 -9.87899e-16 0)
(5.73273e-21 -9.87899e-16 0)
(5.81719e-21 -9.87899e-16 0)
(5.85566e-21 -9.87899e-16 0)
(5.84824e-21 -9.87899e-16 0)
(5.7954e-21 -9.87899e-16 0)
(5.69796e-21 -9.87899e-16 0)
(5.55705e-21 -9.87899e-16 0)
(5.37413e-21 -9.87899e-16 0)
(5.15091e-21 -9.87899e-16 0)
(4.88939e-21 -9.87899e-16 0)
(4.59179e-21 -9.87899e-16 0)
(4.26057e-21 -9.87899e-16 0)
(3.89835e-21 -9.87899e-16 0)
(3.50797e-21 -9.87899e-16 0)
(3.09238e-21 -9.87899e-16 0)
(2.65468e-21 -9.87899e-16 0)
(2.1981e-21 -9.87899e-16 0)
(1.72593e-21 -9.87899e-16 0)
(1.24157e-21 -9.87899e-16 0)
(7.48454e-22 -9.87899e-16 0)
(2.50071e-22 -9.87899e-16 0)
(-2.50147e-22 -9.87898e-16 0)
(-7.48682e-22 -9.87898e-16 0)
(-1.24195e-21 -9.87898e-16 0)
(-1.72646e-21 -9.87898e-16 0)
(-2.19877e-21 -9.87898e-16 0)
(-2.6555e-21 -9.87898e-16 0)
(-3.09333e-21 -9.87898e-16 0)
(-3.50906e-21 -9.87898e-16 0)
(-3.89957e-21 -9.87898e-16 0)
(-4.26191e-21 -9.87898e-16 0)
(-4.59325e-21 -9.87898e-16 0)
(-4.89095e-21 -9.87898e-16 0)
(-5.15257e-21 -9.87898e-16 0)
(-5.37587e-21 -9.87898e-16 0)
(-5.55887e-21 -9.87898e-16 0)
(-5.69984e-21 -9.87898e-16 0)
(-5.79733e-21 -9.87898e-16 0)
(-5.8502e-21 -9.87899e-16 0)
(-5.85764e-21 -9.87899e-16 0)
(-5.81918e-21 -9.87899e-16 0)
(-5.73471e-21 -9.87899e-16 0)
(-5.60448e-21 -9.87899e-16 0)
(-5.42915e-21 -9.87899e-16 0)
(-5.20976e-21 -9.87899e-16 0)
(-4.94773e-21 -9.87899e-16 0)
(-4.6449e-21 -9.87899e-16 0)
(-4.30349e-21 -9.87899e-16 0)
(-3.92608e-21 -9.87899e-16 0)
(-3.51563e-21 -9.87899e-16 0)
(-3.07541e-21 -9.87899e-16 0)
(-2.60904e-21 -9.87899e-16 0)
(-2.12038e-21 -9.87899e-16 0)
(-1.75755e-21 -9.87899e-16 0)
(-1.5293e-21 -9.87899e-16 0)
(-1.29846e-21 -9.87899e-16 0)
(-1.0654e-21 -9.87899e-16 0)
(-8.30536e-22 -9.87899e-16 0)
(-5.94253e-22 -9.87899e-16 0)
(-3.56958e-22 -9.87899e-16 0)
(-1.19054e-22 -9.87899e-16 0)
(1.19053e-22 -9.87899e-16 0)
(3.56958e-22 -9.87899e-16 0)
(5.94253e-22 -9.87899e-16 0)
(8.30536e-22 -9.87899e-16 0)
(1.0654e-21 -9.87899e-16 0)
(1.29846e-21 -9.87899e-16 0)
(1.5293e-21 -9.87899e-16 0)
(1.75755e-21 -9.87899e-16 0)
(2.12038e-21 -9.87899e-16 0)
(2.60904e-21 -9.87899e-16 0)
(3.07541e-21 -9.87899e-16 0)
(3.51563e-21 -9.87899e-16 0)
(3.92608e-21 -9.87899e-16 0)
(4.30349e-21 -9.87899e-16 0)
(4.6449e-21 -9.87899e-16 0)
(4.94773e-21 -9.87899e-16 0)
(5.20976e-21 -9.87899e-16 0)
(5.42915e-21 -9.87899e-16 0)
(5.60448e-21 -9.87899e-16 0)
(5.73471e-21 -9.87899e-16 0)
(5.81918e-21 -9.87899e-16 0)
(5.85764e-21 -9.87899e-16 0)
(5.8502e-21 -9.87899e-16 0)
(5.79733e-21 -9.87898e-16 0)
(5.69984e-21 -9.87898e-16 0)
(5.55887e-21 -9.87898e-16 0)
(5.37587e-21 -9.87898e-16 0)
(5.15257e-21 -9.87898e-16 0)
(4.89095e-21 -9.87898e-16 0)
(4.59325e-21 -9.87898e-16 0)
(4.26191e-21 -9.87898e-16 0)
(3.89957e-21 -9.87898e-16 0)
(3.50906e-21 -9.87898e-16 0)
(3.09333e-21 -9.87898e-16 0)
(2.6555e-21 -9.87898e-16 0)
(2.19877e-21 -9.87898e-16 0)
(1.72646e-21 -9.87898e-16 0)
(1.24195e-21 -9.87898e-16 0)
(7.48682e-22 -9.87898e-16 0)
(2.50147e-22 -9.87898e-16 0)
(-2.50322e-22 -9.87898e-16 0)
(-7.49207e-22 -9.87898e-16 0)
(-1.24282e-21 -9.87898e-16 0)
(-1.72767e-21 -9.87898e-16 0)
(-2.20032e-21 -9.87898e-16 0)
(-2.65738e-21 -9.87898e-16 0)
(-3.09553e-21 -9.87898e-16 0)
(-3.51157e-21 -9.87898e-16 0)
(-3.90238e-21 -9.87898e-16 0)
(-4.265e-21 -9.87898e-16 0)
(-4.5966e-21 -9.87898e-16 0)
(-4.89455e-21 -9.87898e-16 0)
(-5.15638e-21 -9.87898e-16 0)
(-5.37989e-21 -9.87898e-16 0)
(-5.56306e-21 -9.87898e-16 0)
(-5.70417e-21 -9.87898e-16 0)
(-5.80177e-21 -9.87898e-16 0)
(-5.85473e-21 -9.87898e-16 0)
(-5.86222e-21 -9.87899e-16 0)
(-5.82377e-21 -9.87899e-16 0)
(-5.73927e-21 -9.87899e-16 0)
(-5.60897e-21 -9.87899e-16 0)
(-5.43354e-21 -9.87899e-16 0)
(-5.214e-21 -9.87899e-16 0)
(-4.95179e-21 -9.87899e-16 0)
(-4.64875e-21 -9.87899e-16 0)
(-4.30707e-21 -9.87899e-16 0)
(-3.92937e-21 -9.87899e-16 0)
(-3.51859e-21 -9.87899e-16 0)
(-3.07802e-21 -9.87899e-16 0)
(-2.61126e-21 -9.87899e-16 0)
(-2.12219e-21 -9.87899e-16 0)
(-1.75905e-21 -9.87899e-16 0)
(-1.53061e-21 -9.87899e-16 0)
(-1.29957e-21 -9.87899e-16 0)
(-1.06632e-21 -9.87899e-16 0)
(-8.31249e-22 -9.87899e-16 0)
(-5.94764e-22 -9.87899e-16 0)
(-3.57264e-22 -9.87899e-16 0)
(-1.19156e-22 -9.87899e-16 0)
(1.19156e-22 -9.87899e-16 0)
(3.57264e-22 -9.87899e-16 0)
(5.94764e-22 -9.87899e-16 0)
(8.31249e-22 -9.87899e-16 0)
(1.06632e-21 -9.87899e-16 0)
(1.29957e-21 -9.87899e-16 0)
(1.53061e-21 -9.87899e-16 0)
(1.75905e-21 -9.87899e-16 0)
(2.12219e-21 -9.87899e-16 0)
(2.61126e-21 -9.87899e-16 0)
(3.07802e-21 -9.87899e-16 0)
(3.51859e-21 -9.87899e-16 0)
(3.92937e-21 -9.87899e-16 0)
(4.30707e-21 -9.87899e-16 0)
(4.64875e-21 -9.87899e-16 0)
(4.95179e-21 -9.87899e-16 0)
(5.214e-21 -9.87899e-16 0)
(5.43354e-21 -9.87899e-16 0)
(5.60897e-21 -9.87899e-16 0)
(5.73927e-21 -9.87899e-16 0)
(5.82377e-21 -9.87899e-16 0)
(5.86222e-21 -9.87899e-16 0)
(5.85473e-21 -9.87898e-16 0)
(5.80177e-21 -9.87898e-16 0)
(5.70417e-21 -9.87898e-16 0)
(5.56306e-21 -9.87898e-16 0)
(5.37989e-21 -9.87898e-16 0)
(5.15638e-21 -9.87898e-16 0)
(4.89455e-21 -9.87898e-16 0)
(4.5966e-21 -9.87898e-16 0)
(4.265e-21 -9.87898e-16 0)
(3.90238e-21 -9.87898e-16 0)
(3.51157e-21 -9.87898e-16 0)
(3.09553e-21 -9.87898e-16 0)
(2.65738e-21 -9.87898e-16 0)
(2.20032e-21 -9.87898e-16 0)
(1.72767e-21 -9.87898e-16 0)
(1.24282e-21 -9.87898e-16 0)
(7.49207e-22 -9.87898e-16 0)
(2.50322e-22 -9.87898e-16 0)
(-2.50625e-22 -9.87898e-16 0)
(-7.50113e-22 -9.87898e-16 0)
(-1.24433e-21 -9.87898e-16 0)
(-1.72977e-21 -9.87898e-16 0)
(-2.203e-21 -9.87898e-16 0)
(-2.66063e-21 -9.87898e-16 0)
(-3.09934e-21 -9.87898e-16 0)
(-3.5159e-21 -9.87898e-16 0)
(-3.90723e-21 -9.87898e-16 0)
(-4.27033e-21 -9.87898e-16 0)
(-4.60238e-21 -9.87898e-16 0)
(-4.90075e-21 -9.87898e-16 0)
(-5.16297e-21 -9.87898e-16 0)
(-5.38682e-21 -9.87898e-16 0)
(-5.57029e-21 -9.87898e-16 0)
(-5.71165e-21 -9.87898e-16 0)
(-5.80945e-21 -9.87898e-16 0)
(-5.86254e-21 -9.87898e-16 0)
(-5.87011e-21 -9.87899e-16 0)
(-5.83168e-21 -9.87899e-16 0)
(-5.74713e-21 -9.87899e-16 0)
(-5.61673e-21 -9.87899e-16 0)
(-5.44112e-21 -9.87899e-16 0)
(-5.22133e-21 -9.87899e-16 0)
(-4.95881e-21 -9.87899e-16 0)
(-4.65538e-21 -9.87899e-16 0)
(-4.31326e-21 -9.87899e-16 0)
(-3.93505e-21 -9.87899e-16 0)
(-3.52371e-21 -9.87899e-16 0)
(-3.08252e-21 -9.87899e-16 0)
(-2.6151e-21 -9.87899e-16 0)
(-2.12532e-21 -9.87899e-16 0)
(-1.76165e-21 -9.87899e-16 0)
(-1.53288e-21 -9.87899e-16 0)
(-1.30149e-21 -9.87899e-16 0)
(-1.0679e-21 -9.87899e-16 0)
(-8.32481e-22 -9.87899e-16 0)
(-5.95646e-22 -9.87899e-16 0)
(-3.57794e-22 -9.87899e-16 0)
(-1.19333e-22 -9.87899e-16 0)
(1.19333e-22 -9.87899e-16 0)
(3.57794e-22 -9.87899e-16 0)
(5.95646e-22 -9.87899e-16 0)
(8.32481e-22 -9.87899e-16 0)
(1.0679e-21 -9.87899e-16 0)
(1.30149e-21 -9.87899e-16 0)
(1.53288e-21 -9.87899e-16 0)
(1.76165e-21 -9.87899e-16 0)
(2.12532e-21 -9.87899e-16 0)
(2.6151e-21 -9.87899e-16 0)
(3.08252e-21 -9.87899e-16 0)
(3.52371e-21 -9.87899e-16 0)
(3.93505e-21 -9.87899e-16 0)
(4.31326e-21 -9.87899e-16 0)
(4.65538e-21 -9.87899e-16 0)
(4.95881e-21 -9.87899e-16 0)
(5.22133e-21 -9.87899e-16 0)
(5.44112e-21 -9.87899e-16 0)
(5.61673e-21 -9.87899e-16 0)
(5.74713e-21 -9.87899e-16 0)
(5.83168e-21 -9.87899e-16 0)
(5.87011e-21 -9.87899e-16 0)
(5.86254e-21 -9.87898e-16 0)
(5.80945e-21 -9.87898e-16 0)
(5.71165e-21 -9.87898e-16 0)
(5.57029e-21 -9.87898e-16 0)
(5.38682e-21 -9.87898e-16 0)
(5.16297e-21 -9.87898e-16 0)
(4.90075e-21 -9.87898e-16 0)
(4.60238e-21 -9.87898e-16 0)
(4.27033e-21 -9.87898e-16 0)
(3.90723e-21 -9.87898e-16 0)
(3.5159e-21 -9.87898e-16 0)
(3.09934e-21 -9.87898e-16 0)
(2.66063e-21 -9.87898e-16 0)
(2.203e-21 -9.87898e-16 0)
(1.72977e-21 -9.87898e-16 0)
(1.24433e-21 -9.87898e-16 0)
(7.50113e-22 -9.87898e-16 0)
(2.50625e-22 -9.87898e-16 0)
(-2.5109e-22 -9.87898e-16 0)
(-7.51505e-22 -9.87898e-16 0)
(-1.24664e-21 -9.87898e-16 0)
(-1.73299e-21 -9.87898e-16 0)
(-2.20712e-21 -9.87898e-16 0)
(-2.66562e-21 -9.87898e-16 0)
(-3.10518e-21 -9.87898e-16 0)
(-3.52256e-21 -9.87898e-16 0)
(-3.91467e-21 -9.87898e-16 0)
(-4.27851e-21 -9.87898e-16 0)
(-4.61127e-21 -9.87898e-16 0)
(-4.91028e-21 -9.87898e-16 0)
(-5.1731e-21 -9.87898e-16 0)
(-5.39747e-21 -9.87898e-16 0)
(-5.58139e-21 -9.87898e-16 0)
(-5.72313e-21 -9.87898e-16 0)
(-5.82124e-21 -9.87898e-16 0)
(-5.87455e-21 -9.87898e-16 0)
(-5.88224e-21 -9.87899e-16 0)
(-5.84384e-21 -9.87899e-16 0)
(-5.75922e-21 -9.87899e-16 0)
(-5.62865e-21 -9.87899e-16 0)
(-5.45276e-21 -9.87899e-16 0)
(-5.2326e-21 -9.87899e-16 0)
(-4.96959e-21 -9.87899e-16 0)
(-4.66558e-21 -9.87899e-16 0)
(-4.32278e-21 -9.87899e-16 0)
(-3.94379e-21 -9.87899e-16 0)
(-3.53157e-21 -9.87899e-16 0)
(-3.08943e-21 -9.87899e-16 0)
(-2.62099e-21 -9.87899e-16 0)
(-2.13012e-21 -9.87899e-16 0)
(-1.76564e-21 -9.87899e-16 0)
(-1.53635e-21 -9.87899e-16 0)
(-1.30445e-21 -9.87899e-16 0)
(-1.07032e-21 -9.87899e-16 0)
(-8.34374e-22 -9.87899e-16 0)
(-5.97001e-22 -9.87899e-16 0)
(-3.58609e-22 -9.87899e-16 0)
(-1.19604e-22 -9.87899e-16 0)
(1.19604e-22 -9.87899e-16 0)
(3.58609e-22 -9.87899e-16 0)
(5.97001e-22 -9.87899e-16 0)
(8.34374e-22 -9.87899e-16 0)
(1.07032e-21 -9.87899e-16 0)
(1.30445e-21 -9.87899e-16 0)
(1.53635e-21 -9.87899e-16 0)
(1.76564e-21 -9.87899e-16 0)
(2.13012e-21 -9.87899e-16 0)
(2.62099e-21 -9.87899e-16 0)
(3.08943e-21 -9.87899e-16 0)
(3.53157e-21 -9.87899e-16 0)
(3.94379e-21 -9.87899e-16 0)
(4.32278e-21 -9.87899e-16 0)
(4.66558e-21 -9.87899e-16 0)
(4.96959e-21 -9.87899e-16 0)
(5.2326e-21 -9.87899e-16 0)
(5.45276e-21 -9.87899e-16 0)
(5.62865e-21 -9.87899e-16 0)
(5.75922e-21 -9.87899e-16 0)
(5.84384e-21 -9.87899e-16 0)
(5.88224e-21 -9.87899e-16 0)
(5.87455e-21 -9.87898e-16 0)
(5.82124e-21 -9.87898e-16 0)
(5.72313e-21 -9.87898e-16 0)
(5.58139e-21 -9.87898e-16 0)
(5.39747e-21 -9.87898e-16 0)
(5.1731e-21 -9.87898e-16 0)
(4.91028e-21 -9.87898e-16 0)
(4.61127e-21 -9.87898e-16 0)
(4.27851e-21 -9.87898e-16 0)
(3.91467e-21 -9.87898e-16 0)
(3.52256e-21 -9.87898e-16 0)
(3.10518e-21 -9.87898e-16 0)
(2.66562e-21 -9.87898e-16 0)
(2.20712e-21 -9.87898e-16 0)
(1.73299e-21 -9.87898e-16 0)
(1.24664e-21 -9.87898e-16 0)
(7.51505e-22 -9.87898e-16 0)
(2.5109e-22 -9.87898e-16 0)
(-2.51759e-22 -9.87898e-16 0)
(-7.53511e-22 -9.87898e-16 0)
(-1.24997e-21 -9.87898e-16 0)
(-1.73764e-21 -9.87898e-16 0)
(-2.21305e-21 -9.87898e-16 0)
(-2.67281e-21 -9.87898e-16 0)
(-3.11359e-21 -9.87898e-16 0)
(-3.53216e-21 -9.87898e-16 0)
(-3.9254e-21 -9.87898e-16 0)
(-4.29032e-21 -9.87898e-16 0)
(-4.62408e-21 -9.87898e-16 0)
(-4.92403e-21 -9.87898e-16 0)
(-5.18769e-21 -9.87898e-16 0)
(-5.41282e-21 -9.87898e-16 0)
(-5.5974e-21 -9.87898e-16 0)
(-5.73969e-21 -9.87898e-16 0)
(-5.83823e-21 -9.87898e-16 0)
(-5.89185e-21 -9.87898e-16 0)
(-5.89973e-21 -9.87899e-16 0)
(-5.86137e-21 -9.87899e-16 0)
(-5.77665e-21 -9.87899e-16 0)
(-5.64584e-21 -9.87899e-16 0)
(-5.46955e-21 -9.87899e-16 0)
(-5.24884e-21 -9.87899e-16 0)
(-4.98514e-21 -9.87899e-16 0)
(-4.68028e-21 -9.87899e-16 0)
(-4.33649e-21 -9.87899e-16 0)
(-3.95638e-21 -9.87899e-16 0)
(-3.54291e-21 -9.87899e-16 0)
(-3.09941e-21 -9.87899e-16 0)
(-2.62948e-21 -9.87899e-16 0)
(-2.13705e-21 -9.87899e-16 0)
(-1.7714e-21 -9.87899e-16 0)
(-1.54137e-21 -9.87899e-16 0)
(-1.30871e-21 -9.87899e-16 0)
(-1.07382e-21 -9.87899e-16 0)
(-8.37104e-22 -9.87899e-16 0)
(-5.98955e-22 -9.87899e-16 0)
(-3.59783e-22 -9.87899e-16 0)
(-1.19996e-22 -9.87899e-16 0)
(1.19996e-22 -9.87899e-16 0)
(3.59783e-22 -9.87899e-16 0)
(5.98955e-22 -9.87899e-16 0)
(8.37104e-22 -9.87899e-16 0)
(1.07382e-21 -9.87899e-16 0)
(1.30871e-21 -9.87899e-16 0)
(1.54137e-21 -9.87899e-16 0)
(1.7714e-21 -9.87899e-16 0)
(2.13705e-21 -9.87899e-16 0)
(2.62948e-21 -9.87899e-16 0)
(3.09941e-21 -9.87899e-16 0)
(3.54291e-21 -9.87899e-16 0)
(3.95638e-21 -9.87899e-16 0)
(4.33649e-21 -9.87899e-16 0)
(4.68028e-21 -9.87899e-16 0)
(4.98514e-21 -9.87899e-16 0)
(5.24884e-21 -9.87899e-16 0)
(5.46955e-21 -9.87899e-16 0)
(5.64584e-21 -9.87899e-16 0)
(5.77665e-21 -9.87899e-16 0)
(5.86137e-21 -9.87899e-16 0)
(5.89973e-21 -9.87899e-16 0)
(5.89185e-21 -9.87898e-16 0)
(5.83823e-21 -9.87898e-16 0)
(5.73969e-21 -9.87898e-16 0)
(5.5974e-21 -9.87898e-16 0)
(5.41282e-21 -9.87898e-16 0)
(5.18769e-21 -9.87898e-16 0)
(4.92403e-21 -9.87898e-16 0)
(4.62408e-21 -9.87898e-16 0)
(4.29032e-21 -9.87898e-16 0)
(3.9254e-21 -9.87898e-16 0)
(3.53216e-21 -9.87898e-16 0)
(3.11359e-21 -9.87898e-16 0)
(2.67281e-21 -9.87898e-16 0)
(2.21305e-21 -9.87898e-16 0)
(1.73764e-21 -9.87898e-16 0)
(1.24997e-21 -9.87898e-16 0)
(7.53511e-22 -9.87898e-16 0)
(2.51759e-22 -9.87898e-16 0)
(-2.52687e-22 -9.87898e-16 0)
(-7.56289e-22 -9.87898e-16 0)
(-1.25459e-21 -9.87898e-16 0)
(-1.74407e-21 -9.87898e-16 0)
(-2.22127e-21 -9.87898e-16 0)
(-2.68277e-21 -9.87898e-16 0)
(-3.12525e-21 -9.87898e-16 0)
(-3.54546e-21 -9.87898e-16 0)
(-3.94026e-21 -9.87898e-16 0)
(-4.30666e-21 -9.87898e-16 0)
(-4.64182e-21 -9.87898e-16 0)
(-4.94306e-21 -9.87898e-16 0)
(-5.2079e-21 -9.87898e-16 0)
(-5.43408e-21 -9.87898e-16 0)
(-5.61958e-21 -9.87898e-16 0)
(-5.76263e-21 -9.87898e-16 0)
(-5.86177e-21 -9.87898e-16 0)
(-5.91583e-21 -9.87898e-16 0)
(-5.92395e-21 -9.87899e-16 0)
(-5.88566e-21 -9.87899e-16 0)
(-5.80081e-21 -9.87899e-16 0)
(-5.66965e-21 -9.87899e-16 0)
(-5.49282e-21 -9.87899e-16 0)
(-5.27135e-21 -9.87899e-16 0)
(-5.00669e-21 -9.87899e-16 0)
(-4.70066e-21 -9.87899e-16 0)
(-4.35551e-21 -9.87899e-16 0)
(-3.97384e-21 -9.87899e-16 0)
(-3.55863e-21 -9.87899e-16 0)
(-3.11323e-21 -9.87899e-16 0)
(-2.64126e-21 -9.87899e-16 0)
(-2.14666e-21 -9.87899e-16 0)
(-1.77938e-21 -9.87899e-16 0)
(-1.54832e-21 -9.87899e-16 0)
(-1.31462e-21 -9.87899e-16 0)
(-1.07868e-21 -9.87899e-16 0)
(-8.40888e-22 -9.87899e-16 0)
(-6.01664e-22 -9.87899e-16 0)
(-3.61411e-22 -9.87899e-16 0)
(-1.20539e-22 -9.87899e-16 0)
(1.20539e-22 -9.87899e-16 0)
(3.61411e-22 -9.87899e-16 0)
(6.01664e-22 -9.87899e-16 0)
(8.40888e-22 -9.87899e-16 0)
(1.07868e-21 -9.87899e-16 0)
(1.31462e-21 -9.87899e-16 0)
(1.54832e-21 -9.87899e-16 0)
(1.77938e-21 -9.87899e-16 0)
(2.14666e-21 -9.87899e-16 0)
(2.64126e-21 -9.87899e-16 0)
(3.11323e-21 -9.87899e-16 0)
(3.55863e-21 -9.87899e-16 0)
(3.97384e-21 -9.87899e-16 0)
(4.35551e-21 -9.87899e-16 0)
(4.70066e-21 -9.87899e-16 0)
(5.00669e-21 -9.87899e-16 0)
(5.27135e-21 -9.87899e-16 0)
(5.49282e-21 -9.87899e-16 0)
(5.66965e-21 -9.87899e-16 0)
(5.80081e-21 -9.87899e-16 0)
(5.88566e-21 -9.87899e-16 0)
(5.92395e-21 -9.87899e-16 0)
(5.91583e-21 -9.87898e-16 0)
(5.86177e-21 -9.87898e-16 0)
(5.76263e-21 -9.87898e-16 0)
(5.61958e-21 -9.87898e-16 0)
(5.43408e-21 -9.87898e-16 0)
(5.2079e-21 -9.87898e-16 0)
(4.94306e-21 -9.87898e-16 0)
(4.64182e-21 -9.87898e-16 0)
(4.30666e-21 -9.87898e-16 0)
(3.94026e-21 -9.87898e-16 0)
(3.54546e-21 -9.87898e-16 0)
(3.12525e-21 -9.87898e-16 0)
(2.68277e-21 -9.87898e-16 0)
(2.22127e-21 -9.87898e-16 0)
(1.74407e-21 -9.87898e-16 0)
(1.25459e-21 -9.87898e-16 0)
(7.56289e-22 -9.87898e-16 0)
(2.52687e-22 -9.87898e-16 0)
(-2.53937e-22 -9.87897e-16 0)
(-7.60033e-22 -9.87897e-16 0)
(-1.26081e-21 -9.87897e-16 0)
(-1.75274e-21 -9.87897e-16 0)
(-2.23234e-21 -9.87898e-16 0)
(-2.6962e-21 -9.87898e-16 0)
(-3.14096e-21 -9.87898e-16 0)
(-3.56337e-21 -9.87898e-16 0)
(-3.96029e-21 -9.87898e-16 0)
(-4.32869e-21 -9.87898e-16 0)
(-4.66573e-21 -9.87898e-16 0)
(-4.96871e-21 -9.87898e-16 0)
(-5.23514e-21 -9.87898e-16 0)
(-5.46274e-21 -9.87898e-16 0)
(-5.64947e-21 -9.87898e-16 0)
(-5.79356e-21 -9.87898e-16 0)
(-5.89351e-21 -9.87898e-16 0)
(-5.94815e-21 -9.87898e-16 0)
(-5.95662e-21 -9.87899e-16 0)
(-5.91841e-21 -9.87899e-16 0)
(-5.83338e-21 -9.87899e-16 0)
(-5.70176e-21 -9.87899e-16 0)
(-5.5242e-21 -9.87899e-16 0)
(-5.30171e-21 -9.87899e-16 0)
(-5.03575e-21 -9.87899e-16 0)
(-4.72815e-21 -9.87899e-16 0)
(-4.38115e-21 -9.87899e-16 0)
(-3.99738e-21 -9.87899e-16 0)
(-3.57984e-21 -9.87899e-16 0)
(-3.13187e-21 -9.87899e-16 0)
(-2.65715e-21 -9.879e-16 0)
(-2.15961e-21 -9.879e-16 0)
(-1.79015e-21 -9.879e-16 0)
(-1.5577e-21 -9.879e-16 0)
(-1.32259e-21 -9.879e-16 0)
(-1.08522e-21 -9.879e-16 0)
(-8.45995e-22 -9.879e-16 0)
(-6.05319e-22 -9.879e-16 0)
(-3.63607e-22 -9.879e-16 0)
(-1.21272e-22 -9.879e-16 0)
(1.21272e-22 -9.879e-16 0)
(3.63607e-22 -9.879e-16 0)
(6.05319e-22 -9.879e-16 0)
(8.45995e-22 -9.879e-16 0)
(1.08522e-21 -9.879e-16 0)
(1.32259e-21 -9.879e-16 0)
(1.5577e-21 -9.879e-16 0)
(1.79015e-21 -9.879e-16 0)
(2.15961e-21 -9.879e-16 0)
(2.65715e-21 -9.879e-16 0)
(3.13187e-21 -9.87899e-16 0)
(3.57984e-21 -9.87899e-16 0)
(3.99738e-21 -9.87899e-16 0)
(4.38115e-21 -9.87899e-16 0)
(4.72815e-21 -9.87899e-16 0)
(5.03575e-21 -9.87899e-16 0)
(5.30171e-21 -9.87899e-16 0)
(5.5242e-21 -9.87899e-16 0)
(5.70176e-21 -9.87899e-16 0)
(5.83338e-21 -9.87899e-16 0)
(5.91841e-21 -9.87899e-16 0)
(5.95662e-21 -9.87899e-16 0)
(5.94815e-21 -9.87898e-16 0)
(5.89351e-21 -9.87898e-16 0)
(5.79356e-21 -9.87898e-16 0)
(5.64947e-21 -9.87898e-16 0)
(5.46274e-21 -9.87898e-16 0)
(5.23514e-21 -9.87898e-16 0)
(4.96871e-21 -9.87898e-16 0)
(4.66573e-21 -9.87898e-16 0)
(4.32869e-21 -9.87898e-16 0)
(3.96029e-21 -9.87898e-16 0)
(3.56337e-21 -9.87898e-16 0)
(3.14096e-21 -9.87898e-16 0)
(2.6962e-21 -9.87898e-16 0)
(2.23234e-21 -9.87898e-16 0)
(1.75274e-21 -9.87897e-16 0)
(1.26081e-21 -9.87897e-16 0)
(7.60033e-22 -9.87897e-16 0)
(2.53937e-22 -9.87897e-16 0)
(-2.55588e-22 -9.87897e-16 0)
(-7.6498e-22 -9.87897e-16 0)
(-1.26903e-21 -9.87897e-16 0)
(-1.76419e-21 -9.87897e-16 0)
(-2.24697e-21 -9.87897e-16 0)
(-2.71394e-21 -9.87897e-16 0)
(-3.16172e-21 -9.87897e-16 0)
(-3.58705e-21 -9.87897e-16 0)
(-3.98676e-21 -9.87898e-16 0)
(-4.35781e-21 -9.87898e-16 0)
(-4.69734e-21 -9.87898e-16 0)
(-5.00262e-21 -9.87898e-16 0)
(-5.27115e-21 -9.87898e-16 0)
(-5.50063e-21 -9.87898e-16 0)
(-5.689e-21 -9.87898e-16 0)
(-5.83445e-21 -9.87898e-16 0)
(-5.93549e-21 -9.87898e-16 0)
(-5.9909e-21 -9.87898e-16 0)
(-5.99982e-21 -9.87899e-16 0)
(-5.96173e-21 -9.87899e-16 0)
(-5.87646e-21 -9.87899e-16 0)
(-5.74424e-21 -9.87899e-16 0)
(-5.56571e-21 -9.87899e-16 0)
(-5.34189e-21 -9.87899e-16 0)
(-5.07421e-21 -9.87899e-16 0)
(-4.76453e-21 -9.87899e-16 0)
(-4.41509e-21 -9.87899e-16 0)
(-4.02854e-21 -9.879e-16 0)
(-3.60791e-21 -9.879e-16 0)
(-3.15655e-21 -9.879e-16 0)
(-2.67818e-21 -9.879e-16 0)
(-2.17677e-21 -9.879e-16 0)
(-1.8044e-21 -9.879e-16 0)
(-1.57011e-21 -9.879e-16 0)
(-1.33314e-21 -9.879e-16 0)
(-1.09389e-21 -9.879e-16 0)
(-8.52754e-22 -9.879e-16 0)
(-6.10158e-22 -9.879e-16 0)
(-3.66514e-22 -9.879e-16 0)
(-1.22241e-22 -9.879e-16 0)
(1.22241e-22 -9.879e-16 0)
(3.66514e-22 -9.879e-16 0)
(6.10158e-22 -9.879e-16 0)
(8.52754e-22 -9.879e-16 0)
(1.09389e-21 -9.879e-16 0)
(1.33314e-21 -9.879e-16 0)
(1.57011e-21 -9.879e-16 0)
(1.8044e-21 -9.879e-16 0)
(2.17677e-21 -9.879e-16 0)
(2.67818e-21 -9.879e-16 0)
(3.15655e-21 -9.879e-16 0)
(3.60791e-21 -9.879e-16 0)
(4.02854e-21 -9.879e-16 0)
(4.41509e-21 -9.87899e-16 0)
(4.76453e-21 -9.87899e-16 0)
(5.07421e-21 -9.87899e-16 0)
(5.34189e-21 -9.87899e-16 0)
(5.56571e-21 -9.87899e-16 0)
(5.74424e-21 -9.87899e-16 0)
(5.87646e-21 -9.87899e-16 0)
(5.96173e-21 -9.87899e-16 0)
(5.99982e-21 -9.87899e-16 0)
(5.9909e-21 -9.87898e-16 0)
(5.93549e-21 -9.87898e-16 0)
(5.83445e-21 -9.87898e-16 0)
(5.689e-21 -9.87898e-16 0)
(5.50063e-21 -9.87898e-16 0)
(5.27115e-21 -9.87898e-16 0)
(5.00262e-21 -9.87898e-16 0)
(4.69734e-21 -9.87898e-16 0)
(4.35781e-21 -9.87898e-16 0)
(3.98676e-21 -9.87898e-16 0)
(3.58705e-21 -9.87897e-16 0)
(3.16172e-21 -9.87897e-16 0)
(2.71394e-21 -9.87897e-16 0)
(2.24697e-21 -9.87897e-16 0)
(1.76419e-21 -9.87897e-16 0)
(1.26903e-21 -9.87897e-16 0)
(7.6498e-22 -9.87897e-16 0)
(2.55588e-22 -9.87897e-16 0)
(-2.57739e-22 -9.87897e-16 0)
(-7.71421e-22 -9.87897e-16 0)
(-1.27973e-21 -9.87897e-16 0)
(-1.7791e-21 -9.87897e-16 0)
(-2.26603e-21 -9.87897e-16 0)
(-2.73705e-21 -9.87897e-16 0)
(-3.18876e-21 -9.87897e-16 0)
(-3.61789e-21 -9.87897e-16 0)
(-4.02124e-21 -9.87897e-16 0)
(-4.39575e-21 -9.87897e-16 0)
(-4.73851e-21 -9.87898e-16 0)
(-5.04681e-21 -9.87898e-16 0)
(-5.31808e-21 -9.87898e-16 0)
(-5.55001e-21 -9.87898e-16 0)
(-5.7405e-21 -9.87898e-16 0)
(-5.88775e-21 -9.87898e-16 0)
(-5.9902e-21 -9.87898e-16 0)
(-6.04663e-21 -9.87898e-16 0)
(-6.05615e-21 -9.87899e-16 0)
(-6.01821e-21 -9.87899e-16 0)
(-5.93263e-21 -9.87899e-16 0)
(-5.79964e-21 -9.87899e-16 0)
(-5.61985e-21 -9.87899e-16 0)
(-5.39428e-21 -9.87899e-16 0)
(-5.12437e-21 -9.87899e-16 0)
(-4.81198e-21 -9.87899e-16 0)
(-4.45937e-21 -9.879e-16 0)
(-4.0692e-21 -9.879e-16 0)
(-3.64453e-21 -9.879e-16 0)
(-3.18876e-21 -9.879e-16 0)
(-2.70562e-21 -9.879e-16 0)
(-2.19915e-21 -9.879e-16 0)
(-1.823e-21 -9.879e-16 0)
(-1.58632e-21 -9.879e-16 0)
(-1.34691e-21 -9.879e-16 0)
(-1.10519e-21 -9.879e-16 0)
(-8.61575e-22 -9.879e-16 0)
(-6.16473e-22 -9.879e-16 0)
(-3.70309e-22 -9.879e-16 0)
(-1.23507e-22 -9.879e-16 0)
(1.23507e-22 -9.879e-16 0)
(3.70309e-22 -9.879e-16 0)
(6.16473e-22 -9.879e-16 0)
(8.61575e-22 -9.879e-16 0)
(1.10519e-21 -9.879e-16 0)
(1.34691e-21 -9.879e-16 0)
(1.58632e-21 -9.879e-16 0)
(1.823e-21 -9.879e-16 0)
(2.19915e-21 -9.879e-16 0)
(2.70562e-21 -9.879e-16 0)
(3.18876e-21 -9.879e-16 0)
(3.64453e-21 -9.879e-16 0)
(4.0692e-21 -9.879e-16 0)
(4.45937e-21 -9.879e-16 0)
(4.81198e-21 -9.87899e-16 0)
(5.12437e-21 -9.87899e-16 0)
(5.39428e-21 -9.87899e-16 0)
(5.61985e-21 -9.87899e-16 0)
(5.79964e-21 -9.87899e-16 0)
(5.93263e-21 -9.87899e-16 0)
(6.01821e-21 -9.87899e-16 0)
(6.05615e-21 -9.87899e-16 0)
(6.04663e-21 -9.87898e-16 0)
(5.9902e-21 -9.87898e-16 0)
(5.88775e-21 -9.87898e-16 0)
(5.7405e-21 -9.87898e-16 0)
(5.55001e-21 -9.87898e-16 0)
(5.31808e-21 -9.87898e-16 0)
(5.04681e-21 -9.87898e-16 0)
(4.73851e-21 -9.87898e-16 0)
(4.39575e-21 -9.87897e-16 0)
(4.02124e-21 -9.87897e-16 0)
(3.61789e-21 -9.87897e-16 0)
(3.18876e-21 -9.87897e-16 0)
(2.73705e-21 -9.87897e-16 0)
(2.26603e-21 -9.87897e-16 0)
(1.7791e-21 -9.87897e-16 0)
(1.27973e-21 -9.87897e-16 0)
(7.71421e-22 -9.87897e-16 0)
(2.57739e-22 -9.87897e-16 0)
(-2.60508e-22 -9.87897e-16 0)
(-7.79716e-22 -9.87897e-16 0)
(-1.29351e-21 -9.87897e-16 0)
(-1.79831e-21 -9.87897e-16 0)
(-2.29057e-21 -9.87897e-16 0)
(-2.7668e-21 -9.87897e-16 0)
(-3.22359e-21 -9.87897e-16 0)
(-3.65761e-21 -9.87897e-16 0)
(-4.06565e-21 -9.87897e-16 0)
(-4.44461e-21 -9.87897e-16 0)
(-4.79156e-21 -9.87897e-16 0)
(-5.10373e-21 -9.87898e-16 0)
(-5.37854e-21 -9.87898e-16 0)
(-5.61364e-21 -9.87898e-16 0)
(-5.80689e-21 -9.87898e-16 0)
(-5.95644e-21 -9.87898e-16 0)
(-6.06073e-21 -9.87898e-16 0)
(-6.11848e-21 -9.87898e-16 0)
(-6.12878e-21 -9.87899e-16 0)
(-6.09104e-21 -9.87899e-16 0)
(-6.00509e-21 -9.87899e-16 0)
(-5.87111e-21 -9.87899e-16 0)
(-5.6897e-21 -9.87899e-16 0)
(-5.46188e-21 -9.87899e-16 0)
(-5.1891e-21 -9.87899e-16 0)
(-4.87322e-21 -9.879e-16 0)
(-4.51652e-21 -9.879e-16 0)
(-4.12169e-21 -9.879e-16 0)
(-3.69181e-21 -9.879e-16 0)
(-3.23033e-21 -9.879e-16 0)
(-2.74105e-21 -9.879e-16 0)
(-2.22806e-21 -9.879e-16 0)
(-1.84702e-21 -9.879e-16 0)
(-1.60724e-21 -9.879e-16 0)
(-1.3647e-21 -9.879e-16 0)
(-1.1198e-21 -9.879e-16 0)
(-8.72967e-22 -9.879e-16 0)
(-6.24628e-22 -9.879e-16 0)
(-3.75209e-22 -9.879e-16 0)
(-1.25142e-22 -9.879e-16 0)
(1.25142e-22 -9.879e-16 0)
(3.75209e-22 -9.879e-16 0)
(6.24628e-22 -9.879e-16 0)
(8.72967e-22 -9.879e-16 0)
(1.1198e-21 -9.879e-16 0)
(1.3647e-21 -9.879e-16 0)
(1.60724e-21 -9.879e-16 0)
(1.84702e-21 -9.879e-16 0)
(2.22806e-21 -9.879e-16 0)
(2.74105e-21 -9.879e-16 0)
(3.23033e-21 -9.879e-16 0)
(3.69181e-21 -9.879e-16 0)
(4.12169e-21 -9.879e-16 0)
(4.51652e-21 -9.879e-16 0)
(4.87322e-21 -9.879e-16 0)
(5.1891e-21 -9.87899e-16 0)
(5.46188e-21 -9.87899e-16 0)
(5.6897e-21 -9.87899e-16 0)
(5.87111e-21 -9.87899e-16 0)
(6.00509e-21 -9.87899e-16 0)
(6.09104e-21 -9.87899e-16 0)
(6.12878e-21 -9.87899e-16 0)
(6.11848e-21 -9.87898e-16 0)
(6.06073e-21 -9.87898e-16 0)
(5.95644e-21 -9.87898e-16 0)
(5.80689e-21 -9.87898e-16 0)
(5.61364e-21 -9.87898e-16 0)
(5.37854e-21 -9.87898e-16 0)
(5.10373e-21 -9.87898e-16 0)
(4.79156e-21 -9.87897e-16 0)
(4.44461e-21 -9.87897e-16 0)
(4.06565e-21 -9.87897e-16 0)
(3.65761e-21 -9.87897e-16 0)
(3.22359e-21 -9.87897e-16 0)
(2.7668e-21 -9.87897e-16 0)
(2.29057e-21 -9.87897e-16 0)
(1.79831e-21 -9.87897e-16 0)
(1.29351e-21 -9.87897e-16 0)
(7.79716e-22 -9.87897e-16 0)
(2.60508e-22 -9.87897e-16 0)
(-2.64042e-22 -9.87896e-16 0)
(-7.90302e-22 -9.87896e-16 0)
(-1.3111e-21 -9.87897e-16 0)
(-1.82282e-21 -9.87897e-16 0)
(-2.32189e-21 -9.87897e-16 0)
(-2.80478e-21 -9.87897e-16 0)
(-3.26805e-21 -9.87897e-16 0)
(-3.70832e-21 -9.87897e-16 0)
(-4.12235e-21 -9.87897e-16 0)
(-4.50701e-21 -9.87897e-16 0)
(-4.85931e-21 -9.87897e-16 0)
(-5.17644e-21 -9.87897e-16 0)
(-5.45579e-21 -9.87898e-16 0)
(-5.69493e-21 -9.87898e-16 0)
(-5.89172e-21 -9.87898e-16 0)
(-6.04424e-21 -9.87898e-16 0)
(-6.15088e-21 -9.87898e-16 0)
(-6.21034e-21 -9.87898e-16 0)
(-6.22165e-21 -9.87899e-16 0)
(-6.1842e-21 -9.87899e-16 0)
(-6.09777e-21 -9.87899e-16 0)
(-5.96253e-21 -9.87899e-16 0)
(-5.77907e-21 -9.87899e-16 0)
(-5.5484e-21 -9.87899e-16 0)
(-5.27196e-21 -9.879e-16 0)
(-4.95162e-21 -9.879e-16 0)
(-4.58969e-21 -9.879e-16 0)
(-4.18889e-21 -9.879e-16 0)
(-3.75236e-21 -9.879e-16 0)
(-3.28359e-21 -9.879e-16 0)
(-2.78644e-21 -9.879e-16 0)
(-2.26508e-21 -9.87901e-16 0)
(-1.87779e-21 -9.87901e-16 0)
(-1.63405e-21 -9.87901e-16 0)
(-1.38748e-21 -9.87901e-16 0)
(-1.13851e-21 -9.87901e-16 0)
(-8.87561e-22 -9.87901e-16 0)
(-6.35076e-22 -9.87901e-16 0)
(-3.81487e-22 -9.87901e-16 0)
(-1.27236e-22 -9.87901e-16 0)
(1.27236e-22 -9.87901e-16 0)
(3.81487e-22 -9.87901e-16 0)
(6.35076e-22 -9.87901e-16 0)
(8.87561e-22 -9.87901e-16 0)
(1.13851e-21 -9.87901e-16 0)
(1.38748e-21 -9.87901e-16 0)
(1.63405e-21 -9.87901e-16 0)
(1.87779e-21 -9.87901e-16 0)
(2.26508e-21 -9.87901e-16 0)
(2.78644e-21 -9.879e-16 0)
(3.28359e-21 -9.879e-16 0)
(3.75236e-21 -9.879e-16 0)
(4.18889e-21 -9.879e-16 0)
(4.58969e-21 -9.879e-16 0)
(4.95162e-21 -9.879e-16 0)
(5.27196e-21 -9.879e-16 0)
(5.5484e-21 -9.87899e-16 0)
(5.77907e-21 -9.87899e-16 0)
(5.96253e-21 -9.87899e-16 0)
(6.09777e-21 -9.87899e-16 0)
(6.1842e-21 -9.87899e-16 0)
(6.22165e-21 -9.87899e-16 0)
(6.21034e-21 -9.87898e-16 0)
(6.15088e-21 -9.87898e-16 0)
(6.04424e-21 -9.87898e-16 0)
(5.89172e-21 -9.87898e-16 0)
(5.69493e-21 -9.87898e-16 0)
(5.45578e-21 -9.87898e-16 0)
(5.17644e-21 -9.87897e-16 0)
(4.85931e-21 -9.87897e-16 0)
(4.50701e-21 -9.87897e-16 0)
(4.12235e-21 -9.87897e-16 0)
(3.70832e-21 -9.87897e-16 0)
(3.26805e-21 -9.87897e-16 0)
(2.80478e-21 -9.87897e-16 0)
(2.32189e-21 -9.87897e-16 0)
(1.82282e-21 -9.87897e-16 0)
(1.3111e-21 -9.87897e-16 0)
(7.90302e-22 -9.87896e-16 0)
(2.64042e-22 -9.87896e-16 0)
(-2.68521e-22 -9.87896e-16 0)
(-8.03721e-22 -9.87896e-16 0)
(-1.3334e-21 -9.87896e-16 0)
(-1.8539e-21 -9.87896e-16 0)
(-2.3616e-21 -9.87896e-16 0)
(-2.85294e-21 -9.87896e-16 0)
(-3.32442e-21 -9.87897e-16 0)
(-3.77263e-21 -9.87897e-16 0)
(-4.19427e-21 -9.87897e-16 0)
(-4.58615e-21 -9.87897e-16 0)
(-4.94525e-21 -9.87897e-16 0)
(-5.2687e-21 -9.87897e-16 0)
(-5.55381e-21 -9.87897e-16 0)
(-5.79812e-21 -9.87898e-16 0)
(-5.99942e-21 -9.87898e-16 0)
(-6.15573e-21 -9.87898e-16 0)
(-6.26538e-21 -9.87898e-16 0)
(-6.32703e-21 -9.87898e-16 0)
(-6.33964e-21 -9.87899e-16 0)
(-6.30258e-21 -9.87899e-16 0)
(-6.21558e-21 -9.87899e-16 0)
(-6.07877e-21 -9.87899e-16 0)
(-5.89273e-21 -9.87899e-16 0)
(-5.65844e-21 -9.879e-16 0)
(-5.37736e-21 -9.879e-16 0)
(-5.05137e-21 -9.879e-16 0)
(-4.68281e-21 -9.879e-16 0)
(-4.27444e-21 -9.879e-16 0)
(-3.82943e-21 -9.87901e-16 0)
(-3.35138e-21 -9.87901e-16 0)
(-2.84423e-21 -9.87901e-16 0)
(-2.31224e-21 -9.87901e-16 0)
(-1.91697e-21 -9.87901e-16 0)
(-1.66818e-21 -9.87901e-16 0)
(-1.41649e-21 -9.87901e-16 0)
(-1.16233e-21 -9.87901e-16 0)
(-9.06149e-22 -9.87901e-16 0)
(-6.48383e-22 -9.87901e-16 0)
(-3.89483e-22 -9.87901e-16 0)
(-1.29903e-22 -9.87901e-16 0)
(1.29903e-22 -9.87901e-16 0)
(3.89483e-22 -9.87901e-16 0)
(6.48383e-22 -9.87901e-16 0)
(9.06149e-22 -9.87901e-16 0)
(1.16233e-21 -9.87901e-16 0)