/*--------------------------------*- C++ -*----------------------------------*\
  =========                 |
  \\      /  F ield         | OpenFOAM: The Open Source CFD Toolbox
   \\    /   O peration     | Website:  https://openfoam.org
    \\  /    A nd           | Version:  10
     \\/     M anipulation  |
\*---------------------------------------------------------------------------*/
FoamFile
{
    format      ascii;
    class       surfaceScalarField;
    location    "24250";
    object      phi;
}
// * * * * * * * * * * * * * * * * * * * * * * * * * * * * * * * * * * * * * //

dimensions      [0 3 -1 0 0 0 0];

internalField   nonuniform List<scalar> 
6280
(
-5.59595e-07
5.59595e-07
-1.20562e-06
6.46024e-07
-2.06781e-06
8.62191e-07
-3.37293e-06
1.30512e-06
-5.57388e-06
2.20095e-06
-9.64175e-06
4.06786e-06
-1.5239e-05
5.59725e-06
-1.60248e-05
7.85818e-07
-1.63393e-05
3.14448e-07
-1.65522e-05
2.12933e-07
-1.67116e-05
1.59442e-07
-1.68368e-05
1.25176e-07
-1.69381e-05
1.01333e-07
-1.70221e-05
8.39217e-08
-1.70928e-05
7.0765e-08
-1.71534e-05
6.05569e-08
-1.72059e-05
5.24644e-08
-1.72518e-05
4.59327e-08
-1.72924e-05
4.05795e-08
-1.73285e-05
3.61336e-08
-1.73609e-05
3.23982e-08
-1.73901e-05
2.92275e-08
-1.74166e-05
2.65117e-08
-1.74408e-05
2.41627e-08
-1.60202e-05
-1.42063e-06
-1.31128e-05
-2.90737e-06
-1.10309e-05
-2.08188e-06
-9.74999e-06
-1.28092e-06
-8.96483e-06
-7.85161e-07
-8.47223e-06
-4.926e-07
-8.14508e-06
-3.27148e-07
-7.90212e-06
-2.42966e-07
-7.68591e-06
-2.16203e-07
-7.44724e-06
-2.38674e-07
-7.13236e-06
-3.14878e-07
-6.67033e-06
-4.62036e-07
-5.95725e-06
-7.13076e-07
-4.83384e-06
-1.12341e-06
-3.04967e-06
-1.78418e-06
-2.61238e-06
-4.37291e-07
-3.53362e-07
9.12958e-07
-7.00605e-07
9.93267e-07
-1.01428e-06
1.17586e-06
-1.18347e-06
1.47432e-06
-8.68483e-07
1.88596e-06
8.85229e-07
2.31415e-06
4.15145e-06
2.33102e-06
3.49906e-06
1.43821e-06
2.89876e-06
9.14755e-07
2.49034e-06
6.21351e-07
2.20357e-06
4.46215e-07
1.99414e-06
3.34607e-07
1.83634e-06
2.59134e-07
1.7149e-06
2.05357e-07
1.62045e-06
1.6521e-07
1.54711e-06
1.33904e-07
1.49116e-06
1.0841e-07
1.45042e-06
8.66728e-08
1.42383e-06
6.71727e-08
1.41129e-06
4.86752e-08
1.41361e-06
3.0078e-08
1.4325e-06
1.03388e-08
1.4705e-06
-1.1495e-08
1.53073e-06
-3.606e-08
1.9936e-07
-8.92633e-08
-1.32725e-06
-1.38076e-06
-3.41424e-06
5.09991e-09
-4.70555e-06
1.0385e-08
-5.50402e-06
1.33183e-08
-6.01126e-06
1.46341e-08
-6.35338e-06
1.49718e-08
-6.61109e-06
1.47467e-08
-6.8415e-06
1.42062e-08
-7.09366e-06
1.34863e-08
-7.42119e-06
1.26478e-08
-7.89491e-06
1.16907e-08
-8.61854e-06
1.05473e-08
-9.7487e-06
6.75658e-09
-9.67743e-06
-1.85545e-06
-1.20159e-05
-2.73932e-07
-1.46903e-07
1.05986e-06
-2.56522e-07
1.10289e-06
-2.80282e-07
1.19962e-06
-1.40684e-07
1.33472e-06
2.70809e-07
1.47447e-06
1.03269e-06
1.55227e-06
1.89342e-06
1.4703e-06
2.13074e-06
1.20088e-06
2.10948e-06
9.36015e-07
2.00608e-06
7.24759e-07
1.8865e-06
5.65787e-07
1.7738e-06
4.47309e-07
1.67486e-06
3.58078e-07
1.5907e-06
2.89518e-07
1.52041e-06
2.35493e-07
1.46265e-06
1.91664e-07
1.41616e-06
1.54903e-07
1.37998e-06
1.22859e-07
1.35351e-06
9.36385e-08
1.33663e-06
6.55519e-08
1.32984e-06
3.68677e-08
1.33467e-06
5.51598e-09
1.35455e-06
-3.13735e-08
1.39677e-06
-7.82881e-08
1.45039e-06
-1.42882e-07
3.03416e-07
-2.3378e-07
4.41099e-07
-1.32583e-07
5.27922e-07
-7.64378e-08
5.85892e-07
-4.46517e-08
6.27172e-07
-2.66463e-08
6.59016e-07
-1.68721e-08
6.86168e-07
-1.24053e-08
7.12162e-07
-1.17878e-08
7.40127e-07
-1.44787e-08
7.7341e-07
-2.06348e-08
8.16201e-07
-3.11007e-08
8.74325e-07
-4.75769e-08
9.54055e-07
-7.29727e-08
7.14077e-07
-1.61547e-06
-1.13208e-05
1.89953e-08
-1.47573e-08
1.07462e-06
1.29154e-09
1.08684e-06
7.9001e-08
1.12191e-06
2.48349e-07
1.16537e-06
5.27049e-07
1.19577e-06
8.92918e-07
1.1864e-06
1.24784e-06
1.11538e-06
1.46128e-06
9.87435e-07
1.5551e-06
8.42195e-07
1.57486e-06
7.04995e-07
1.55488e-06
5.85768e-07
1.51619e-06
4.86004e-07
1.47059e-06
4.03678e-07
1.42435e-06
3.35753e-07
1.38062e-06
2.79229e-07
1.34078e-06
2.315e-07
1.30527e-06
1.90411e-07
1.27393e-06
1.54201e-07
1.24614e-06
1.21429e-07
1.22078e-06
9.09104e-08
1.19596e-06
6.16849e-08
1.16843e-06
3.30546e-08
1.13231e-06
4.74246e-09
1.07672e-06
-2.26994e-08
9.8081e-07
-4.69704e-08
8.09074e-07
-6.20448e-08
7.31518e-07
-5.50257e-08
6.98154e-07
-4.30743e-08
6.85672e-07
-3.217e-08
6.83043e-07
-2.40169e-08
6.84958e-07
-1.87872e-08
6.8874e-07
-1.61874e-08
6.92799e-07
-1.58467e-08
6.95749e-07
-1.74292e-08
6.95736e-07
-2.06212e-08
6.89679e-07
-2.50437e-08
6.72183e-07
-3.00812e-08
6.33778e-07
-3.45673e-08
5.46834e-07
-1.52852e-06
-1.08289e-05
5.49899e-08
5.19622e-08
1.02266e-06
1.21629e-07
1.01717e-06
2.24397e-07
1.01915e-06
3.69697e-07
1.02007e-06
5.55932e-07
1.00953e-06
7.64669e-07
9.77665e-07
9.60751e-07
9.19293e-07
1.11009e-06
8.38094e-07
1.20681e-06
7.45482e-07
1.25985e-06
6.51954e-07
1.28153e-06
5.64087e-07
1.2826e-06
4.84931e-07
1.27104e-06
4.15238e-07
1.25228e-06
3.54513e-07
1.2298e-06
3.01712e-07
1.20567e-06
2.55627e-07
1.18099e-06
2.1509e-07
1.15613e-06
1.79063e-07
1.13088e-06
1.46677e-07
1.10453e-06
1.1726e-07
1.07586e-06
9.03586e-08
1.04313e-06
6.57805e-08
1.00422e-06
4.36527e-08
9.57036e-07
2.44865e-08
9.00874e-07
9.19173e-09
8.39942e-07
-1.11221e-09
7.9079e-07
-5.87375e-09
7.54893e-07
-7.1774e-09
7.29634e-07
-6.9112e-09
7.11904e-07
-6.28713e-09
6.99075e-07
-5.9578e-09
6.89098e-07
-6.2103e-09
6.80363e-07
-7.11181e-09
6.71529e-07
-8.59552e-09
6.6141e-07
-1.05022e-08
6.48962e-07
-1.25953e-08
6.33449e-07
-1.45683e-08
6.14939e-07
-1.60577e-08
5.30919e-07
-1.4445e-06
-1.03494e-05
5.13239e-08
7.87993e-08
9.43856e-07
1.65781e-07
9.30188e-07
2.67816e-07
9.17111e-07
3.87402e-07
9.00486e-07
5.21156e-07
8.75779e-07
6.59392e-07
8.39429e-07
7.88419e-07
7.90266e-07
8.96246e-07
7.30268e-07
9.77967e-07
6.63761e-07
1.03457e-06
5.95356e-07
1.06999e-06
5.28663e-07
1.08895e-06
4.65965e-07
1.09579e-06
4.08403e-07
1.09399e-06
3.56312e-07
1.08616e-06
3.09538e-07
1.07413e-06
2.67664e-07
1.05904e-06
2.30174e-07
1.04156e-06
1.9655e-07
1.0219e-06
1.6633e-07
1.00002e-06
1.39147e-07
9.75625e-07
1.1475e-07
9.48387e-07
9.30181e-08
9.18089e-07
7.39507e-08
8.8493e-07
5.76453e-08
8.49892e-07
4.42297e-08
8.15038e-07
3.37419e-08
7.83195e-07
2.59691e-08
7.55675e-07
2.03434e-08
7.32545e-07
1.62183e-08
7.13217e-07
1.3041e-08
6.96851e-07
1.04082e-08
6.8258e-07
8.06007e-09
6.69614e-07
5.85421e-09
6.57283e-07
3.73555e-09
6.4507e-07
1.71077e-09
6.32649e-07
-1.7412e-10
6.19937e-07
-1.85569e-09
6.07154e-07
-3.27536e-09
5.23467e-07
-1.36082e-06
-9.87477e-06
4.88853e-08
8.51368e-08
8.58719e-07
1.73126e-07
8.42199e-07
2.66736e-07
8.23501e-07
3.66328e-07
8.00894e-07
4.69497e-07
7.7261e-07
5.71442e-07
7.37484e-07
6.66265e-07
6.95443e-07
7.48891e-07
6.47642e-07
8.16544e-07
5.96108e-07
8.68795e-07
5.43105e-07
9.06837e-07
4.90621e-07
9.32665e-07
4.40137e-07
9.48473e-07
3.92595e-07
9.56297e-07
3.48488e-07
9.57851e-07
3.07983e-07
9.54484e-07
2.71031e-07
9.47194e-07
2.37465e-07
9.36679e-07
2.07065e-07
9.23404e-07
1.79605e-07
9.07665e-07
1.54885e-07
8.89674e-07
1.32742e-07
8.69637e-07
1.13055e-07
8.47849e-07
9.57388e-08
8.24773e-07
8.0721e-08
8.01089e-07
6.79143e-08
7.77648e-07
5.71825e-08
7.55301e-07
4.8316e-08
7.34609e-07
4.10356e-08
7.15789e-07
3.50386e-08
6.98787e-07
3.00429e-08
6.83382e-07
2.58128e-08
6.69275e-07
2.21676e-08
6.5615e-07
1.89788e-08
6.43723e-07
1.61623e-08
6.31767e-07
1.36669e-08
6.20129e-07
1.14641e-08
6.08736e-07
9.53723e-09
5.97594e-07
7.86688e-09
5.16473e-07
-1.2797e-06
-9.40519e-06
4.68896e-08
8.21535e-08
7.76566e-07
1.64554e-07
7.59799e-07
2.48109e-07
7.39945e-07
3.3255e-07
7.16453e-07
4.1637e-07
6.88791e-07
4.9712e-07
6.56733e-07
5.7202e-07
6.20543e-07
6.38669e-07
5.80993e-07
6.95565e-07
5.39212e-07
7.42219e-07
4.96451e-07
7.78965e-07
4.53876e-07
8.06666e-07
4.12436e-07
8.2644e-07
3.72821e-07
8.3945e-07
3.35478e-07
8.46782e-07
3.00651e-07
8.49379e-07
2.68434e-07
8.48024e-07
2.3882e-07
8.43348e-07
2.1174e-07
8.35857e-07
1.87097e-07
8.25962e-07
1.6478e-07
8.14026e-07
1.44678e-07
8.00395e-07
1.26686e-07
7.85434e-07
1.107e-07
7.69543e-07
9.66121e-08
7.53156e-07
8.43011e-08
7.36712e-07
7.36265e-08
7.20601e-07
6.44264e-08
7.05114e-07
5.65232e-08
6.90416e-07
4.97361e-08
6.76565e-07
4.38943e-08
6.63531e-07
3.88462e-08
6.51235e-07
3.44643e-08
6.39568e-07
3.06454e-08
6.28421e-07
2.73091e-08
6.17695e-07
2.43932e-08
6.07309e-07
2.18499e-08
5.97205e-07
1.96413e-08
5.8735e-07
1.7722e-08
5.09306e-07
-1.20165e-06
-8.94079e-06
4.49096e-08
7.55423e-08
7.01024e-07
1.50196e-07
6.85146e-07
2.24061e-07
6.6608e-07
2.96708e-07
6.43807e-07
3.67174e-07
6.18325e-07
4.34129e-07
5.89777e-07
4.96151e-07
5.58522e-07
5.52011e-07
5.25133e-07
6.00889e-07
4.90333e-07
6.42442e-07
4.54899e-07
6.76754e-07
4.19564e-07
7.04227e-07
3.84963e-07
7.25458e-07
3.5159e-07
7.41131e-07
3.19805e-07
7.51938e-07
2.89844e-07
7.58534e-07
2.61838e-07
7.61507e-07
2.35846e-07
7.61379e-07
2.11869e-07
7.58603e-07
1.89873e-07
7.53583e-07
1.69799e-07
7.46685e-07
1.51576e-07
7.38249e-07
1.35121e-07
7.28606e-07
1.20343e-07
7.18075e-07
1.07143e-07
7.06962e-07
9.54146e-08
6.95547e-07
8.50415e-08
6.84072e-07
7.59015e-08
6.72726e-07
6.78692e-08
6.61641e-07
6.08208e-08
6.50896e-07
5.46391e-08
6.40525e-07
4.92173e-08
6.30529e-07
4.44606e-08
6.20887e-07
4.02874e-08
6.11568e-07
3.66284e-08
6.02535e-07
3.34256e-08
5.93755e-07
3.06303e-08
5.85195e-07
2.82015e-08
5.76837e-07
2.60801e-08
5.01836e-07
-1.12665e-06
-8.4818e-06
4.28447e-08
6.79847e-08
6.33039e-07
1.34667e-07
6.18463e-07
1.99824e-07
6.00923e-07
2.63012e-07
5.80618e-07
3.2358e-07
5.57757e-07
3.80745e-07
5.32612e-07
4.33718e-07
5.05549e-07
4.81828e-07
4.77023e-07
5.24614e-07
4.47547e-07
5.61863e-07
4.1765e-07
5.93595e-07
3.87833e-07
6.20021e-07
3.58536e-07
6.41487e-07
3.30124e-07
6.58415e-07
3.02877e-07
6.71262e-07
2.76996e-07
6.80486e-07
2.52614e-07
6.86527e-07
2.29805e-07
6.89793e-07
2.08603e-07
6.90663e-07
1.89003e-07
6.89483e-07
1.70979e-07
6.86574e-07
1.54486e-07
6.82231e-07
1.39463e-07
6.76733e-07
1.25842e-07
6.70333e-07
1.13542e-07
6.63267e-07
1.02481e-07
6.55742e-07
9.25665e-08
6.47936e-07
8.37077e-08
6.39994e-07
7.58112e-08
6.32028e-07
6.87865e-08
6.2412e-07
6.25473e-08
6.16324e-07
5.70132e-08
6.08674e-07
5.21112e-08
6.01185e-07
4.77758e-08
5.93864e-07
4.39492e-08
5.8671e-07
4.05805e-08
5.79715e-07
3.76251e-08
5.72872e-07
3.50444e-08
5.66183e-07
3.27685e-08
4.94093e-07
-1.05456e-06
-8.0284e-06
4.06915e-08
6.06508e-08
5.72388e-07
1.19919e-07
5.59195e-07
1.77473e-07
5.43369e-07
2.32908e-07
5.25183e-07
2.85754e-07
5.04911e-07
3.35511e-07
4.82855e-07
3.81704e-07
4.59356e-07
4.23942e-07
4.34785e-07
4.61956e-07
4.09533e-07
4.95619e-07
3.83987e-07
5.24941e-07
3.5851e-07
5.5005e-07
3.33427e-07
5.71163e-07
3.09011e-07
5.88559e-07
2.85481e-07
6.02552e-07
2.63004e-07
6.13469e-07
2.41697e-07
6.21638e-07
2.21637e-07
6.27376e-07
2.02865e-07
6.30985e-07
1.85394e-07
6.32749e-07
1.69215e-07
6.32933e-07
1.54302e-07
6.31784e-07
1.40613e-07
6.29528e-07
1.28098e-07
6.26373e-07
1.16697e-07
6.22506e-07
1.06348e-07
6.18093e-07
9.69798e-08
6.13276e-07
8.85241e-08
6.08177e-07
8.09103e-08
6.02894e-07
7.40693e-08
5.97506e-07
6.79353e-08
5.92074e-07
6.24458e-08
5.86642e-07
5.75429e-08
5.81245e-07
5.31734e-08
5.75905e-07
4.92888e-08
5.7064e-07
4.58455e-08
5.65461e-07
4.28042e-08
5.60376e-07
4.01294e-08
5.55401e-07
3.7743e-08
4.86089e-07
-9.85248e-07
-7.5808e-06
3.84919e-08
5.39898e-08
5.18398e-07
1.06659e-07
5.06526e-07
1.57662e-07
4.92366e-07
2.06648e-07
4.76197e-07
2.53259e-07
4.58299e-07
2.97151e-07
4.38963e-07
3.38018e-07
4.1849e-07
3.75614e-07
3.97189e-07
4.09776e-07
3.7537e-07
4.4043e-07
3.53333e-07
4.67586e-07
3.31354e-07
4.91332e-07
3.09682e-07
5.11816e-07
2.88527e-07
5.29234e-07
2.68064e-07
5.43809e-07
2.48429e-07
5.55782e-07
2.29724e-07
5.65399e-07
2.12019e-07
5.72907e-07
1.95357e-07
5.78542e-07
1.79759e-07
5.82533e-07
1.65224e-07
5.85095e-07
1.5174e-07
5.86428e-07
1.3928e-07
5.86719e-07
1.27807e-07
5.86136e-07
1.1728e-07
5.84834e-07
1.0765e-07
5.82948e-07
9.88653e-08
5.80599e-07
9.0873e-08
5.77891e-07
8.3619e-08
5.7491e-07
7.70501e-08
5.7173e-07
7.11147e-08
5.68413e-07
6.57632e-08
5.65007e-07
6.09489e-08
5.61552e-07
5.66281e-08
5.58081e-07
5.27603e-08
5.54618e-07
4.93079e-08
5.51186e-07
4.62366e-08
5.47801e-07
4.35147e-08
5.44486e-07
4.10576e-08
4.77856e-07
-9.18617e-07
-7.13924e-06
3.62876e-08
4.8121e-08
4.70277e-07
9.50352e-08
4.59612e-07
1.40424e-07
4.46977e-07
1.83989e-07
4.32632e-07
2.25449e-07
4.16839e-07
2.64554e-07
3.99858e-07
3.01092e-07
3.81952e-07
3.34899e-07
3.63382e-07
3.65872e-07
3.44398e-07
3.93964e-07
3.2524e-07
4.19191e-07
3.06128e-07
4.41616e-07
2.87256e-07
4.61349e-07
2.68794e-07
4.78531e-07
2.50881e-07
4.93329e-07
2.33631e-07
5.05923e-07
2.1713e-07
5.16502e-07
2.0144e-07
5.25256e-07
1.86603e-07
5.32374e-07
1.72641e-07
5.38036e-07
1.59562e-07
5.42416e-07
1.4736e-07
5.45678e-07
1.36018e-07
5.47973e-07
1.25512e-07
5.4944e-07
1.15812e-07
5.50208e-07
1.06882e-07
5.5039e-07
9.86833e-08
5.50088e-07
9.11747e-08
5.49392e-07
8.43149e-08
5.4838e-07
7.80621e-08
5.47119e-07
7.23755e-08
5.45667e-07
6.72152e-08
5.44073e-07
6.25431e-08
5.42378e-07
5.83232e-08
5.40617e-07
5.45212e-08
5.3882e-07
5.11054e-08
5.37011e-07
4.80457e-08
5.35211e-07
4.53144e-08
5.33446e-07
4.28228e-08
4.69395e-07
-8.54567e-07
-6.70393e-06
3.40937e-08
4.30215e-08
4.27256e-07
8.49624e-08
4.17671e-07
1.25544e-07
4.06395e-07
1.64515e-07
3.93662e-07
2.01652e-07
3.79702e-07
2.36765e-07
3.64746e-07
2.69697e-07
3.4902e-07
3.00336e-07
3.32743e-07
3.2861e-07
3.16124e-07
3.54493e-07
2.99358e-07
3.77997e-07
2.82623e-07
3.99175e-07
2.66078e-07
4.18109e-07
2.4986e-07
4.34907e-07
2.34084e-07
4.49694e-07
2.18844e-07
4.6261e-07
2.04214e-07
4.73802e-07
1.90249e-07
4.83417e-07
1.76988e-07
4.91606e-07
1.64453e-07
4.98513e-07
1.52655e-07
5.04279e-07
1.41594e-07
5.09037e-07
1.3126e-07
5.1291e-07
1.21639e-07
5.16015e-07
1.12707e-07
5.18458e-07
1.0444e-07
5.20335e-07
9.68064e-08
5.21733e-07
8.97766e-08
5.2273e-07
8.33177e-08
5.23395e-07
7.73969e-08
5.2379e-07
7.19814e-08
5.23966e-07
6.7039e-08
5.2397e-07
6.25385e-08
5.23844e-07
5.84498e-08
5.23621e-07
5.47443e-08
5.23332e-07
5.13947e-08
5.23002e-07
4.83753e-08
5.22654e-07
4.5662e-08
5.22313e-07
4.31643e-08
4.60698e-07
-7.92952e-07
-6.27515e-06
3.19142e-08
3.86131e-08
3.88643e-07
7.62668e-08
3.80017e-07
1.12724e-07
3.69939e-07
1.47774e-07
3.58611e-07
1.81239e-07
3.46237e-07
2.12969e-07
3.33016e-07
2.42846e-07
3.19143e-07
2.70786e-07
3.04802e-07
2.9674e-07
2.9017e-07
3.20689e-07
2.75408e-07
3.42649e-07
2.60664e-07
3.6266e-07
2.46068e-07
3.80786e-07
2.31734e-07
3.97111e-07
2.17758e-07
4.11735e-07
2.0422e-07
4.24764e-07
1.91184e-07
4.36315e-07
1.78698e-07
4.46506e-07
1.66797e-07
4.55456e-07
1.55503e-07
4.63282e-07
1.44829e-07
4.70098e-07
1.34778e-07
4.76011e-07
1.25347e-07
4.81126e-07
1.16524e-07
4.85538e-07
1.08296e-07
4.89336e-07
1.00642e-07
4.92601e-07
9.35409e-08
4.95409e-07
8.69688e-08
4.97826e-07
8.09003e-08
4.99914e-07
7.53091e-08
5.01727e-07
7.01689e-08
5.03312e-07
6.54535e-08
5.04713e-07
6.11372e-08
5.05968e-07
5.71948e-08
5.0711e-07
5.36022e-08
5.08169e-07
5.03361e-08
5.0917e-07
4.73742e-08
5.10136e-07
4.46955e-08
5.11091e-07
4.22096e-08
4.51744e-07
-7.33604e-07
-5.85315e-06
2.97483e-08
3.48026e-08
3.5384e-07
6.87554e-08
3.46065e-07
1.01659e-07
3.37035e-07
1.33342e-07
3.26928e-07
1.63656e-07
3.15922e-07
1.92484e-07
3.04188e-07
2.19733e-07
2.91893e-07
2.45342e-07
2.79194e-07
2.69271e-07
2.66241e-07
2.91511e-07
2.53168e-07
3.12075e-07
2.40101e-07
3.30995e-07
2.27148e-07
3.48323e-07
2.14405e-07
3.64126e-07
2.01955e-07
3.78482e-07
1.89864e-07
3.91477e-07
1.78189e-07
4.03204e-07
1.66972e-07
4.13756e-07
1.56244e-07
4.23231e-07
1.46028e-07
4.31722e-07
1.36337e-07
4.39324e-07
1.27176e-07
4.46126e-07
1.18545e-07
4.52212e-07
1.10438e-07
4.57662e-07
1.02845e-07
4.62553e-07
9.57515e-08
4.66952e-07
8.91416e-08
4.70924e-07
8.29967e-08
4.74528e-07
7.72969e-08
4.77815e-07
7.20214e-08
4.80835e-07
6.7149e-08
4.83631e-07
6.26581e-08
4.8624e-07
5.85274e-08
4.88699e-07
5.4736e-08
4.91038e-07
5.12633e-08
4.93285e-07
4.80893e-08
4.95464e-07
4.5195e-08
4.97598e-07
4.25619e-08
4.99706e-07
4.01016e-08
4.42517e-07
-6.76416e-07
-5.43823e-06
2.75973e-08
3.14988e-08
3.22341e-07
6.22446e-08
3.15319e-07
9.20718e-08
3.07207e-07
1.20838e-07
2.98162e-07
1.48425e-07
2.88335e-07
1.74736e-07
2.77877e-07
1.99701e-07
2.66929e-07
2.23268e-07
2.55627e-07
2.45412e-07
2.44097e-07
2.66123e-07
2.32457e-07
2.85415e-07
2.20809e-07
3.03314e-07
2.09248e-07
3.19863e-07
1.97856e-07
3.35115e-07
1.86703e-07
3.49133e-07
1.75846e-07
3.61987e-07
1.65335e-07
3.73751e-07
1.55208e-07
3.84502e-07
1.45493e-07
3.94319e-07
1.36212e-07
4.03278e-07
1.27377e-07
4.11458e-07
1.18996e-07
4.18931e-07
1.11072e-07
4.2577e-07
1.036e-07
4.3204e-07
9.65748e-08
4.37805e-07
8.99863e-08
4.43124e-07
8.38223e-08
4.48052e-07
7.80686e-08
4.5264e-07
7.27096e-08
4.56932e-07
6.77288e-08
4.60972e-07
6.31089e-08
4.64798e-07
5.88323e-08
4.68444e-07
5.48813e-08
4.71942e-07
5.12383e-08
4.75319e-07
4.78858e-08
4.78602e-07
4.48068e-08
4.81812e-07
4.1985e-08
4.8497e-07
3.94042e-08
4.88091e-07
3.69807e-08
4.3299e-07
-6.21315e-07
-5.0307e-06
2.54558e-08
2.86197e-08
2.93722e-07
5.65703e-08
2.87368e-07
8.37154e-08
2.80062e-07
1.09938e-07
2.71939e-07
1.35142e-07
2.63132e-07
1.5925e-07
2.53769e-07
1.82205e-07
2.43974e-07
2.03967e-07
2.33864e-07
2.24516e-07
2.23548e-07
2.43848e-07
2.13125e-07
2.61972e-07
2.02685e-07
2.78911e-07
1.92309e-07
2.94702e-07
1.82066e-07
3.09386e-07
1.72018e-07
3.23016e-07
1.62216e-07
3.35649e-07
1.52703e-07
3.47346e-07
1.43512e-07
3.58169e-07
1.3467e-07
3.68183e-07
1.26197e-07
3.77453e-07
1.18107e-07
3.86043e-07
1.10407e-07
3.94013e-07
1.03101e-07
4.01423e-07
9.61896e-08
4.0833e-07
8.96675e-08
4.14788e-07
8.35287e-08
4.20846e-07
7.77641e-08
4.26552e-07
7.23631e-08
4.31948e-07
6.73134e-08
4.37075e-07
6.2602e-08
4.41969e-07
5.82147e-08
4.46664e-07
5.41373e-08
4.5119e-07
5.03549e-08
4.55576e-07
4.68526e-08
4.59846e-07
4.36158e-08
4.64023e-07
4.06296e-08
4.68128e-07
3.78799e-08
4.7218e-07
3.53525e-08
4.76191e-07
3.29697e-08
4.23124e-07
-5.68249e-07
-4.63089e-06
2.33138e-08
2.60935e-08
2.67628e-07
5.1591e-08
2.61871e-07
7.63802e-08
2.55273e-07
1.00366e-07
2.47953e-07
1.23469e-07
2.40028e-07
1.45629e-07
2.3161e-07
1.66797e-07
2.22805e-07
1.86946e-07
2.13716e-07
2.06057e-07
2.04437e-07
2.24129e-07
1.95053e-07
2.41172e-07
1.85643e-07
2.57204e-07
1.76276e-07
2.72255e-07
1.67015e-07
2.86362e-07
1.57911e-07
2.99567e-07
1.49011e-07
3.11917e-07
1.40352e-07
3.23464e-07
1.31966e-07
3.34258e-07
1.23876e-07
3.44354e-07
1.16101e-07
3.53806e-07
1.08655e-07
3.62667e-07
1.01546e-07
3.70989e-07
9.47799e-08
3.78821e-07
8.83572e-08
3.86212e-07
8.22765e-08
3.93207e-07
7.65336e-08
3.99849e-07
7.11222e-08
4.06178e-07
6.60343e-08
4.12231e-07
6.12606e-08
4.18042e-07
5.67907e-08
4.23643e-07
5.26133e-08
4.29064e-07
4.87167e-08
4.3433e-07
4.50885e-08
4.39467e-07
4.17164e-08
4.44495e-07
3.85877e-08
4.49435e-07
3.56898e-08
4.54304e-07
3.30101e-08
4.59121e-07
3.05363e-08
4.63892e-07
2.81981e-08
4.12884e-07
-5.1724e-07
-4.23917e-06
2.11647e-08
2.38596e-08
2.43769e-07
4.71864e-08
2.38544e-07
6.98888e-08
2.32571e-07
9.1889e-08
2.25953e-07
1.13123e-07
2.18794e-07
1.33542e-07
2.11191e-07
1.53107e-07
2.03239e-07
1.71797e-07
1.95027e-07
1.89598e-07
1.86636e-07
2.0651e-07
1.78141e-07
2.22541e-07
1.69612e-07
2.37709e-07
1.61108e-07
2.52038e-07
1.52685e-07
2.6556e-07
1.4439e-07
2.7831e-07
1.36261e-07
2.90327e-07
1.28335e-07
3.01655e-07
1.20638e-07
3.12338e-07
1.13193e-07
3.22419e-07
1.06019e-07
3.31946e-07
9.91279e-08
3.40963e-07
9.25296e-08
3.49513e-07
8.62296e-08
3.5764e-07
8.02307e-08
3.65383e-07
7.45331e-08
3.72782e-07
6.91345e-08
3.79874e-07
6.40308e-08
3.86692e-07
5.92164e-08
3.93268e-07
5.46843e-08
3.99632e-07
5.04266e-08
4.05811e-07
4.64342e-08
4.1183e-07
4.26978e-08
4.17711e-07
3.92073e-08
4.23475e-07
3.59523e-08
4.29141e-07
3.29222e-08
4.34724e-07
3.01062e-08
4.40241e-07
2.74935e-08
4.45704e-07
2.5073e-08
4.51118e-07
2.27846e-08
4.02216e-07
-4.68338e-07
-3.85595e-06
1.89927e-08
2.18667e-08
2.21902e-07
4.32557e-08
2.17155e-07
6.40924e-08
2.11734e-07
8.43136e-08
2.05732e-07
1.03868e-07
1.99239e-07
1.22715e-07
1.92344e-07
1.40827e-07
1.85128e-07
1.58184e-07
1.7767e-07
1.74778e-07
1.70042e-07
1.90609e-07
1.6231e-07
2.05685e-07
1.54535e-07
2.20023e-07
1.46771e-07
2.33643e-07
1.39065e-07
2.46572e-07
1.31461e-07
2.58841e-07
1.23993e-07
2.70483e-07
1.16693e-07
2.81534e-07
1.09586e-07
2.92033e-07
1.02694e-07
3.02018e-07
9.60343e-08
3.11527e-07
8.96188e-08
3.20599e-07
8.34575e-08
3.29272e-07
7.7557e-08
3.37581e-07
7.19213e-08
3.45562e-07
6.65517e-08
3.53249e-07
6.14479e-08
3.60672e-07
5.66076e-08
3.67861e-07
5.20273e-08
3.74844e-07
4.77019e-08
3.81645e-07
4.36257e-08
3.88287e-07
3.97917e-08
3.94792e-07
3.61927e-08
4.01179e-07
3.28206e-08
4.07464e-07
2.9667e-08
4.13663e-07
2.67233e-08
4.19788e-07
2.39808e-08
4.25851e-07
2.14306e-08
4.3186e-07
1.90639e-08
4.37811e-07
1.68342e-08
3.91045e-07
-4.21572e-07
-3.48167e-06
1.67676e-08
2.00721e-08
2.0183e-07
3.97146e-08
1.97512e-07
5.88672e-08
1.92582e-07
7.74787e-08
1.8712e-07
9.55078e-08
1.8121e-07
1.12923e-07
1.74929e-07
1.297e-07
1.6835e-07
1.45827e-07
1.61543e-07
1.61297e-07
1.54572e-07
1.7611e-07
1.47496e-07
1.90277e-07
1.40369e-07
2.0381e-07
1.33238e-07
2.16728e-07
1.26147e-07
2.29055e-07
1.19133e-07
2.40818e-07
1.1223e-07
2.52045e-07
1.05466e-07
2.62768e-07
9.88631e-08
2.73019e-07
9.24428e-08
2.82833e-07
8.62206e-08
2.92242e-07
8.02095e-08
3.01281e-07
7.44193e-08
3.0998e-07
6.88573e-08
3.18373e-07
6.35282e-08
3.2649e-07
5.8435e-08
3.34359e-07
5.35786e-08
3.42009e-07
4.89584e-08
3.49463e-07
4.45727e-08
3.56747e-07
4.04184e-08
3.63881e-07
3.64915e-08
3.70885e-07
3.27872e-08
3.77778e-07
2.92999e-08
3.84575e-07
2.60235e-08
3.91291e-07
2.29513e-08
3.97938e-07
2.00765e-08
4.04527e-07
1.73917e-08
4.11068e-07
1.48896e-08
4.17569e-07
1.25627e-08
4.24024e-07
1.03797e-08
3.79249e-07
-3.76798e-07
-3.11688e-06
1.44532e-08
1.84401e-08
1.8339e-07
3.64931e-08
1.79459e-07
5.41102e-08
1.74964e-07
7.12503e-08
1.6998e-07
8.78803e-08
1.6458e-07
1.03975e-07
1.58834e-07
1.19517e-07
1.52809e-07
1.34495e-07
1.46565e-07
1.48906e-07
1.40161e-07
1.62752e-07
1.3365e-07
1.76042e-07
1.27079e-07
1.88788e-07
1.20492e-07
2.01007e-07
1.13928e-07
2.1272e-07
1.0742e-07
2.2395e-07
1.01e-07
2.34724e-07
9.46915e-08
2.45069e-07
8.8518e-08
2.55014e-07
8.24978e-08
2.64589e-07
7.66464e-08
2.73822e-07
7.09763e-08
2.82743e-07
6.54977e-08
2.91382e-07
6.02183e-08
2.99767e-07
5.51437e-08
3.07924e-07
5.02779e-08
3.15879e-07
4.56233e-08
3.23657e-07
4.11808e-08
3.31279e-07
3.69502e-08
3.38767e-07
3.29304e-08
3.4614e-07
2.9119e-08
3.53414e-07
2.55132e-08
3.60604e-07
2.21093e-08
3.67725e-07
1.89029e-08
3.74787e-07
1.58889e-08
3.81802e-07
1.3062e-08
3.88778e-07
1.04157e-08
3.95724e-07
7.94338e-09
4.0265e-07
5.63716e-09
4.0955e-07
3.47978e-09
3.66797e-07
-3.34045e-07
-2.76215e-06
1.20752e-08
1.69413e-08
1.66448e-07
3.35333e-08
1.62867e-07
4.97364e-08
1.58761e-07
6.55179e-08
1.54199e-07
8.08513e-08
1.49247e-07
9.57168e-08
1.43969e-07
1.10101e-07
1.38425e-07
1.23996e-07
1.3267e-07
1.374e-07
1.26757e-07
1.50316e-07
1.20733e-07
1.62753e-07
1.14642e-07
1.74722e-07
1.08523e-07
1.86239e-07
1.02411e-07
1.97323e-07
9.63368e-08
2.07995e-07
9.03282e-08
2.18277e-07
8.44089e-08
2.28196e-07
7.85995e-08
2.37776e-07
7.29176e-08
2.47044e-07
6.73779e-08
2.56028e-07
6.19928e-08
2.64753e-07
5.67724e-08
2.73247e-07
5.17248e-08
2.81534e-07
4.68564e-08
2.8964e-07
4.21721e-08
2.97588e-07
3.76754e-08
3.054e-07
3.33688e-08
3.13097e-07
2.92535e-08
3.20697e-07
2.53301e-08
3.28217e-07
2.15984e-08
3.35673e-07
1.80572e-08
3.43078e-07
1.47049e-08
3.50441e-07
1.15394e-08
3.57772e-07
8.55779e-09
3.65078e-07
5.75672e-09
3.72361e-07
3.1323e-09
3.79624e-07
6.80066e-10
3.86867e-07
-1.605e-09
3.94065e-07
-3.71902e-09
3.53661e-07
-2.9364e-07
-2.41813e-06
9.6419e-09
1.55516e-08
1.50897e-07
3.07875e-08
1.47632e-07
4.56761e-08
1.43873e-07
6.01908e-08
1.39684e-07
7.43107e-08
1.35127e-07
8.80204e-08
1.30259e-07
1.0131e-07
1.25135e-07
1.14173e-07
1.19807e-07
1.2661e-07
1.1432e-07
1.38624e-07
1.08719e-07
1.50224e-07
1.03042e-07
1.61421e-07
9.73265e-08
1.72228e-07
9.16034e-08
1.82664e-07
8.59013e-08
1.92747e-07
8.02453e-08
2.02498e-07
7.46575e-08
2.1194e-07
6.91571e-08
2.21098e-07
6.37604e-08
2.29994e-07
5.84815e-08
2.38655e-07
5.33324e-08
2.47104e-07
4.83231e-08
2.55367e-07
4.34619e-08
2.63467e-07
3.87557e-08
2.71429e-07
3.421e-08
2.79275e-07
2.98295e-08
2.87026e-07
2.56176e-08
2.94703e-07
2.15773e-08
3.02322e-07
1.77106e-08
3.09902e-07
1.40191e-08
3.17455e-07
1.05039e-08
3.24994e-07
7.16558e-09
3.32529e-07
4.00422e-09
3.40068e-07
1.01955e-09
3.47613e-07
-1.78907e-09
3.55168e-07
-4.42265e-09
3.62731e-07
-6.88243e-09
3.70296e-07
-9.16978e-09
3.77834e-07
-1.12574e-08
3.39587e-07
-2.55393e-07
-2.08561e-06
7.0663e-09
1.42513e-08
1.36646e-07
2.82172e-08
1.33666e-07
4.18722e-08
1.30218e-07
5.5195e-08
1.26361e-07
6.8169e-08
1.22153e-07
8.07821e-08
1.17646e-07
9.30264e-08
1.12891e-07
1.04898e-07
1.07934e-07
1.16399e-07
1.0282e-07
1.27531e-07
9.7586e-08
1.38304e-07
9.22699e-08
1.48727e-07
8.69038e-08
1.58813e-07
8.1517e-08
1.68578e-07
7.61357e-08
1.78041e-07
7.07829e-08
1.87219e-07
6.54789e-08
1.96135e-07
6.02415e-08
2.0481e-07
5.50858e-08
2.13266e-07
5.00251e-08
2.21528e-07
4.50709e-08
2.29618e-07
4.02326e-08
2.37562e-07
3.55185e-08
2.45382e-07
3.09356e-08
2.53102e-07
2.64899e-08
2.60745e-07
2.21866e-08
2.68332e-07
1.80301e-08
2.75885e-07
1.40243e-08
2.83423e-07
1.01729e-08
2.90963e-07
6.47915e-09
2.98521e-07
2.94596e-09
3.0611e-07
-4.23875e-10
3.13742e-07
-3.62782e-09
3.21425e-07
-6.66365e-09
3.29166e-07
-9.52946e-09
3.36967e-07
-1.22238e-08
3.4483e-07
-1.47458e-08
3.52756e-07
-1.70953e-08
3.60724e-07
-1.92255e-08
3.2442e-07
-2.19089e-07
-1.76555e-06
4.35298e-09
1.30244e-08
1.23621e-07
2.5791e-08
1.20899e-07
3.8279e-08
1.1773e-07
5.04711e-08
1.14169e-07
6.23542e-08
1.1027e-07
7.39186e-08
1.06082e-07
8.51583e-08
1.01651e-07
9.6071e-08
9.70218e-08
1.06658e-07
9.22329e-08
1.16922e-07
8.73213e-08
1.26872e-07
8.23202e-08
1.36516e-07
7.72594e-08
1.45867e-07
7.21661e-08
1.54939e-07
6.7064e-08
1.63748e-07
6.19744e-08
1.72311e-07
5.69159e-08
1.80647e-07
5.19048e-08
1.88778e-07
4.69551e-08
1.96724e-07
4.20791e-08
2.04508e-07
3.7287e-08
2.12153e-07
3.25879e-08
2.19682e-07
2.79894e-08
2.27119e-07
2.34982e-08
2.34489e-07
1.91201e-08
2.41815e-07
1.48602e-08
2.49122e-07
1.07235e-08
2.56432e-07
6.71433e-09
2.63767e-07
2.83728e-09
2.7115e-07
-9.03147e-10
2.78598e-07
-4.50226e-09
2.86129e-07
-7.95518e-09
2.93758e-07
-1.12569e-08
3.01497e-07
-1.44022e-08
3.09353e-07
-1.73861e-08
3.17333e-07
-2.02038e-08
3.25439e-07
-2.28511e-08
3.33668e-07
-2.53248e-08
3.42002e-07
-2.75588e-08
3.08117e-07
-1.85205e-07
-1.45909e-06
1.65876e-09
1.18583e-08
1.11763e-07
2.3484e-08
1.09273e-07
3.486e-08
1.06354e-07
4.59721e-08
1.03057e-07
5.68096e-08
9.94325e-08
6.73645e-08
9.55269e-08
7.76322e-08
9.13836e-08
8.76111e-08
8.7043e-08
9.7302e-08
8.2542e-08
1.06709e-07
7.79145e-08
1.15838e-07
7.31913e-08
1.24697e-07
6.84001e-08
1.33297e-07
6.35657e-08
1.41651e-07
5.87102e-08
1.49773e-07
5.38529e-08
1.57678e-07
4.9011e-08
1.65383e-07
4.41992e-08
1.72908e-07
3.94301e-08
1.80272e-07
3.47149e-08
1.87497e-07
3.00625e-08
1.94604e-07
2.54809e-08
2.01617e-07
2.09767e-08
2.08559e-07
1.65555e-08
2.15457e-07
1.22222e-08
2.22336e-07
7.98116e-09
2.29223e-07
3.83659e-09
2.36145e-07
-2.07402e-10
2.43129e-07
-4.14645e-09
2.50201e-07
-7.97568e-09
2.57388e-07
-1.16895e-08
2.64715e-07
-1.52815e-08
2.72202e-07
-1.87442e-08
2.79869e-07
-2.2069e-08
2.87729e-07
-2.52466e-08
2.95793e-07
-2.82671e-08
3.04062e-07
-3.11207e-08
3.12536e-07
-3.37983e-08
3.21193e-07
-3.62158e-08
2.89957e-07
-1.53969e-07
-1.16768e-06
-1.45337e-09
1.07431e-08
1.0102e-07
2.12768e-08
9.87396e-08
3.15868e-08
9.60439e-08
4.16612e-08
9.29826e-08
5.1491e-08
8.96027e-08
6.10695e-08
8.59484e-08
7.03927e-08
8.20604e-08
7.9459e-08
7.79766e-08
8.82693e-08
7.37317e-08
9.68265e-08
6.93574e-08
1.05136e-07
6.48822e-08
1.13204e-07
6.03321e-08
1.21039e-07
5.57301e-08
1.28653e-07
5.10965e-08
1.36056e-07
4.64492e-08
1.43264e-07
4.18039e-08
1.50289e-07
3.71737e-08
1.57149e-07
3.25701e-08
1.63861e-07
2.80026e-08
1.70445e-07
2.3479e-08
1.7692e-07
1.90055e-08
1.8331e-07
1.45873e-08
1.89637e-07
1.02282e-08
1.95927e-07
5.93151e-09
2.02209e-07
1.69953e-09
2.08511e-07
-2.46554e-09
2.14865e-07
-6.5616e-09
2.21305e-07
-1.05862e-08
2.27866e-07
-1.45363e-08
2.34584e-07
-1.84074e-08
2.41496e-07
-2.21936e-08
2.48638e-07
-2.58866e-08
2.56045e-07
-2.94752e-08
2.63743e-07
-3.29451e-08
2.71754e-07
-3.62785e-08
2.80088e-07
-3.94541e-08
2.88737e-07
-4.24479e-08
2.97671e-07
-4.51497e-08
2.69386e-07
-1.25684e-07
-8.93176e-07
-5.11581e-09
9.67108e-09
9.13486e-08
1.91544e-08
8.92563e-08
2.84376e-08
8.67607e-08
3.75106e-08
8.39096e-08
4.63653e-08
8.0748e-08
5.49959e-08
7.73178e-08
6.33986e-08
7.36577e-08
7.15717e-08
6.98036e-08
7.95152e-08
6.57882e-08
8.72311e-08
6.16415e-08
9.4723e-08
5.73904e-08
1.01996e-07
5.30592e-08
1.09056e-07
4.86696e-08
1.15912e-07
4.42404e-08
1.22573e-07
3.97884e-08
1.29049e-07
3.53278e-08
1.35353e-07
3.08707e-08
1.41495e-07
2.64272e-08
1.47493e-07
2.20054e-08
1.5336e-07
1.76118e-08
1.59114e-07
1.32511e-08
1.64775e-07
8.92641e-09
1.70364e-07
4.63959e-09
1.75904e-07
3.91241e-10
1.81423e-07
-3.8191e-09
1.8695e-07
-7.99275e-09
1.9252e-07
-1.21317e-08
1.98172e-07
-1.6238e-08
2.03949e-07
-2.03139e-08
2.09902e-07
-2.43606e-08
2.16087e-07
-2.83778e-08
2.22563e-07
-3.23628e-08
2.29396e-07
-3.63084e-08
2.36652e-07
-4.02014e-08
2.44394e-07
-4.40203e-08
2.52672e-07
-4.77324e-08
2.61516e-07
-5.12913e-08
2.70917e-07
-5.45512e-08
2.46264e-07
-1.01031e-07
-6.38399e-07
-8.51296e-09
8.63633e-09
8.27123e-08
1.71052e-08
8.07874e-08
2.53958e-08
7.84701e-08
3.34991e-08
7.58063e-08
4.14078e-08
7.28393e-08
4.91164e-08
6.96092e-08
5.6621e-08
6.6153e-08
6.39194e-08
6.25051e-08
7.10108e-08
5.86968e-08
7.78958e-08
5.47565e-08
8.45762e-08
5.071e-08
9.1055e-08
4.65804e-08
9.73363e-08
4.23882e-08
1.03425e-07
3.81515e-08
1.09328e-07
3.38859e-08
1.15051e-07
2.96049e-08
1.20602e-07
2.53197e-08
1.25989e-07
2.10395e-08
1.31223e-07
1.67715e-08
1.36314e-07
1.25209e-08
1.41274e-07
8.29127e-09
1.46116e-07