/*--------------------------------*- C++ -*----------------------------------*\
  =========                 |
  \\      /  F ield         | OpenFOAM: The Open Source CFD Toolbox
   \\    /   O peration     | Website:  https://openfoam.org
    \\  /    A nd           | Version:  10
     \\/     M anipulation  |
\*---------------------------------------------------------------------------*/
FoamFile
{
    format      ascii;
    class       volVectorField;
    location    "24250";
    object      Ua;
}
// * * * * * * * * * * * * * * * * * * * * * * * * * * * * * * * * * * * * * //

dimensions      [0 1 -1 0 0 0 0];

internalField   nonuniform List<vector> 
3200
(
(-1.11919e-06 1.6163e-06 0)
(-3.53043e-06 1.89939e-06 0)
(-6.54686e-06 2.5804e-06 0)
(-1.08815e-05 3.97607e-06 0)
(-1.78936e-05 6.82546e-06 0)
(-3.04301e-05 1.28412e-05 0)
(-2.3356e-05 1.86974e-05 0)
(-4.87171e-06 3.13458e-05 0)
(-1.16023e-06 8.1311e-06 0)
(-5.69032e-07 4.1914e-06 0)
(-3.39633e-07 2.62209e-06 0)
(-2.24499e-07 1.8108e-06 0)
(-1.58513e-07 1.33164e-06 0)
(-1.17349e-07 1.02392e-06 0)
(-9.00663e-08 8.14247e-07 0)
(-7.11296e-08 6.64852e-07 0)
(-5.74964e-08 5.54586e-07 0)
(-4.7384e-08 4.7084e-07 0)
(-3.96945e-08 4.05708e-07 0)
(-3.37226e-08 3.54029e-07 0)
(-2.89998e-08 3.12313e-07 0)
(-2.52055e-08 2.78135e-07 0)
(-2.21143e-08 2.49767e-07 0)
(-1.95395e-08 2.25942e-07 0)
(-1.67577e-08 2.05191e-07 0)
(-1.32628e-08 1.88723e-07 0)
(-1.01072e-08 1.7572e-07 0)
(-8.0666e-09 1.64215e-07 0)
(-6.78502e-09 1.54082e-07 0)
(-5.94128e-09 1.45194e-07 0)
(-5.35014e-09 1.37401e-07 0)
(-4.90536e-09 1.30556e-07 0)
(-4.54274e-09 1.24513e-07 0)
(-4.21865e-09 1.19127e-07 0)
(-3.89727e-09 1.14243e-07 0)
(-3.54263e-09 1.09687e-07 0)
(-3.11292e-09 1.05292e-07 0)
(-2.55295e-09 1.00908e-07 0)
(-1.77976e-09 9.63029e-08 0)
(-6.91574e-10 9.04021e-08 0)
(-7.06724e-07 4.25322e-06 0)
(-2.10793e-06 4.81972e-06 0)
(-3.42976e-06 6.09958e-06 0)
(-4.3955e-06 8.4676e-06 0)
(-4.10391e-06 1.26741e-05 0)
(3.34926e-08 2.01464e-05 0)
(1.00734e-05 2.54764e-05 0)
(1.5301e-05 7.27474e-06 0)
(1.27956e-05 4.0928e-06 0)
(1.07782e-05 2.82767e-06 0)
(9.38781e-06 2.08959e-06 0)
(8.39541e-06 1.61475e-06 0)
(7.66094e-06 1.28866e-06 0)
(7.10247e-06 1.05271e-06 0)
(6.67071e-06 8.74127e-07 0)
(6.33513e-06 7.33262e-07 0)
(6.07654e-06 6.17495e-07 0)
(5.88317e-06 5.18115e-07 0)
(5.7485e-06 4.28558e-07 0)
(5.67023e-06 3.43355e-07 0)
(5.64979e-06 2.57476e-07 0)
(5.69221e-06 1.65984e-07 0)
(5.806e-06 6.41257e-08 0)
(6.00246e-06 -5.17045e-08 0)
(3.42057e-06 -2.97337e-07 0)
(3.02924e-07 -6.12756e-06 0)
(-1.36353e-07 1.09771e-07 0)
(-1.5189e-07 1.29777e-07 0)
(-1.30932e-07 1.39868e-07 0)
(-1.07311e-07 1.43108e-07 0)
(-8.73629e-08 1.42241e-07 0)
(-7.16537e-08 1.3906e-07 0)
(-5.95032e-08 1.34625e-07 0)
(-5.0091e-08 1.29487e-07 0)
(-4.26917e-08 1.23841e-07 0)
(-3.66488e-08 1.17559e-07 0)
(-3.12226e-08 1.10138e-07 0)
(-2.53993e-08 1.00502e-07 0)
(-1.82304e-08 8.69448e-08 0)
(-7.17102e-09 7.28042e-08 0)
(-2.93806e-07 5.69815e-06 0)
(-8.0685e-07 6.16295e-06 0)
(-1.07361e-06 7.10946e-06 0)
(-8.41931e-07 8.55777e-06 0)
(2.60251e-07 1.04212e-05 0)
(2.607e-06 1.22053e-05 0)
(5.85221e-06 1.2215e-05 0)
(8.04832e-06 8.63239e-06 0)
(8.48046e-06 6.16239e-06 0)
(8.23112e-06 4.56242e-06 0)
(7.78516e-06 3.49152e-06 0)
(7.32061e-06 2.74608e-06 0)
(6.89732e-06 2.20651e-06 0)
(6.53111e-06 1.80088e-06 0)
(6.22222e-06 1.48433e-06 0)
(5.96614e-06 1.22763e-06 0)
(5.75763e-06 1.01069e-06 0)
(5.59228e-06 8.1868e-07 0)
(5.46697e-06 6.39588e-07 0)
(5.38029e-06 4.62457e-07 0)
(5.33295e-06 2.75895e-07 0)
(5.32902e-06 6.65119e-08 0)
(5.37842e-06 -1.83061e-07 0)
(5.50264e-06 -4.97057e-07 0)
(5.69433e-06 -1.0272e-06 0)
(3.50762e-06 -7.27214e-06 0)
(1.48903e-06 -5.845e-07 0)
(1.93804e-06 -3.08278e-07 0)
(2.22763e-06 -1.4886e-07 0)
(2.42613e-06 -5.80916e-08 0)
(2.57238e-06 -9.35487e-09 0)
(2.69037e-06 1.17329e-08 0)
(2.79666e-06 1.23361e-08 0)
(2.90458e-06 -5.15283e-09 0)
(3.02707e-06 -4.2215e-08 0)
(3.17922e-06 -1.04431e-07 0)
(3.38105e-06 -2.02801e-07 0)
(3.65676e-06 -3.56356e-07 0)
(3.33113e-06 -1.00794e-07 0)
(1.4547e-06 -2.98208e-08 0)
(-2.95146e-08 6.16508e-06 0)
(-2.69315e-08 6.43805e-06 0)
(1.60585e-07 6.94799e-06 0)
(6.547e-07 7.61657e-06 0)
(1.55079e-06 8.28078e-06 0)
(2.83993e-06 8.64531e-06 0)
(4.28151e-06 8.30868e-06 0)
(5.41824e-06 7.15793e-06 0)
(6.03276e-06 5.92079e-06 0)
(6.25993e-06 4.84592e-06 0)
(6.25949e-06 3.973e-06 0)
(6.14214e-06 3.27778e-06 0)
(5.97356e-06 2.72325e-06 0)
(5.78989e-06 2.2754e-06 0)
(5.60994e-06 1.9067e-06 0)
(5.4428e-06 1.59565e-06 0)
(5.29211e-06 1.32544e-06 0)
(5.15841e-06 1.08252e-06 0)
(5.04014e-06 8.55379e-07 0)
(4.93384e-06 6.33449e-07 0)
(4.83349e-06 4.06153e-07 0)
(4.72878e-06 1.61807e-07 0)
(4.60147e-06 -1.13722e-07 0)
(4.41806e-06 -4.3898e-07 0)
(4.11506e-06 -8.40062e-07 0)
(3.57977e-06 -1.33245e-06 0)
(3.08118e-06 -8.60172e-07 0)
(2.85934e-06 -5.57781e-07 0)
(2.76765e-06 -3.64968e-07 0)
(2.73743e-06 -2.45009e-07 0)
(2.736e-06 -1.75542e-07 0)
(2.7474e-06 -1.43279e-07 0)
(2.76308e-06 -1.40961e-07 0)
(2.7771e-06 -1.65677e-07 0)
(2.78297e-06 -2.18057e-07 0)
(2.77083e-06 -3.02071e-07 0)
(2.72372e-06 -4.25311e-07 0)
(2.61192e-06 -5.99528e-07 0)
(2.359e-06 -1.73987e-07 0)
(1.19182e-06 -6.70485e-08 0)
(1.03924e-07 6.05762e-06 0)
(3.47183e-07 6.18604e-06 0)
(6.92052e-07 6.40785e-06 0)
(1.18819e-06 6.65799e-06 0)
(1.85126e-06 6.83895e-06 0)
(2.6412e-06 6.83142e-06 0)
(3.45084e-06 6.53812e-06 0)
(4.14169e-06 5.97127e-06 0)
(4.6338e-06 5.28639e-06 0)
(4.9333e-06 4.59916e-06 0)
(5.08275e-06 3.96713e-06 0)
(5.12826e-06 3.40991e-06 0)
(5.10728e-06 2.92759e-06 0)
(5.04664e-06 2.51192e-06 0)
(4.96416e-06 2.15199e-06 0)
(4.87094e-06 1.83684e-06 0)
(4.77332e-06 1.55646e-06 0)
(4.67424e-06 1.30212e-06 0)
(4.57402e-06 1.06633e-06 0)
(4.47083e-06 8.42793e-07 0)
(4.36078e-06 6.26598e-07 0)
(4.23798e-06 4.14621e-07 0)
(4.09471e-06 2.06662e-07 0)
(3.92252e-06 7.76807e-09 0)
(3.71582e-06 -1.67164e-07 0)
(3.48163e-06 -2.8447e-07 0)
(3.26146e-06 -2.7922e-07 0)
(3.09137e-06 -2.34532e-07 0)
(2.96905e-06 -1.85669e-07 0)
(2.88308e-06 -1.46551e-07 0)
(2.82196e-06 -1.21814e-07 0)
(2.77635e-06 -1.12235e-07 0)
(2.73892e-06 -1.17109e-07 0)
(2.70378e-06 -1.3513e-07 0)
(2.66588e-06 -1.64501e-07 0)
(2.62074e-06 -2.02507e-07 0)
(2.56482e-06 -2.44533e-07 0)
(2.49678e-06 -2.82231e-07 0)
(2.2897e-06 -4.98361e-08 0)
(1.15436e-06 -1.42212e-08 0)
(1.57599e-07 5.67993e-06 0)
(4.89161e-07 5.72547e-06 0)
(8.67194e-07 5.79491e-06 0)
(1.31044e-06 5.851e-06 0)
(1.81712e-06 5.84662e-06 0)
(2.3611e-06 5.73611e-06 0)
(2.89562e-06 5.49343e-06 0)
(3.36933e-06 5.13008e-06 0)
(3.74843e-06 4.69226e-06 0)
(4.02506e-06 4.22756e-06 0)
(4.20911e-06 3.77012e-06 0)
(4.31788e-06 3.33953e-06 0)
(4.36949e-06 2.94448e-06 0)
(4.37956e-06 2.58674e-06 0)
(4.36031e-06 2.26427e-06 0)
(4.32058e-06 1.9732e-06 0)
(4.26634e-06 1.70909e-06 0)
(4.2012e-06 1.46759e-06 0)
(4.12692e-06 1.24491e-06 0)
(4.04384e-06 1.03808e-06 0)
(3.95128e-06 8.4529e-07 0)
(3.84802e-06 6.66172e-07 0)
(3.73295e-06 5.02202e-07 0)
(3.60604e-06 3.57017e-07 0)
(3.46964e-06 2.3638e-07 0)
(3.32986e-06 1.4697e-07 0)
(3.19647e-06 9.2136e-08 0)
(3.07774e-06 6.14477e-08 0)
(2.97644e-06 4.42166e-08 0)
(2.89152e-06 3.26621e-08 0)
(2.82014e-06 2.1908e-08 0)
(2.75886e-06 9.26926e-09 0)
(2.70439e-06 -6.41488e-09 0)
(2.6538e-06 -2.52347e-08 0)
(2.60471e-06 -4.64666e-08 0)
(2.55544e-06 -6.87025e-08 0)
(2.50517e-06 -8.99497e-08 0)
(2.45418e-06 -1.0778e-07 0)
(2.25942e-06 -2.0434e-08 0)
(1.13591e-06 -9.10721e-09 0)
(1.70274e-07 5.20643e-06 0)
(5.16525e-07 5.21104e-06 0)
(8.79724e-07 5.20938e-06 0)
(1.26613e-06 5.18327e-06 0)
(1.67165e-06 5.11189e-06 0)
(2.08188e-06 4.97792e-06 0)
(2.47542e-06 4.77411e-06 0)
(2.83031e-06 4.50711e-06 0)
(3.13087e-06 4.1949e-06 0)
(3.37068e-06 3.85863e-06 0)
(3.55126e-06 3.51665e-06 0)
(3.679e-06 3.18222e-06 0)
(3.76228e-06 2.86354e-06 0)
(3.80954e-06 2.56482e-06 0)
(3.8283e-06 2.2875e-06 0)
(3.82467e-06 2.03128e-06 0)
(3.80336e-06 1.79497e-06 0)
(3.76775e-06 1.577e-06 0)
(3.72017e-06 1.37587e-06 0)
(3.66214e-06 1.19041e-06 0)
(3.59468e-06 1.01996e-06 0)
(3.51862e-06 8.64492e-07 0)
(3.43497e-06 7.24625e-07 0)
(3.34524e-06 6.01461e-07 0)
(3.25172e-06 4.96217e-07 0)
(3.15747e-06 4.09539e-07 0)
(3.0659e-06 3.40592e-07 0)
(2.97982e-06 2.86465e-07 0)
(2.9008e-06 2.43514e-07 0)
(2.82915e-06 2.08356e-07 0)
(2.76434e-06 1.78307e-07 0)
(2.70531e-06 1.51472e-07 0)
(2.65085e-06 1.26671e-07 0)
(2.59975e-06 1.03317e-07 0)
(2.55098e-06 8.12781e-08 0)
(2.50379e-06 6.0743e-08 0)
(2.45773e-06 4.20696e-08 0)
(2.41266e-06 2.55974e-08 0)
(2.22649e-06 2.02819e-09 0)
(1.11907e-06 -5.47436e-09 0)
(1.64307e-07 4.72324e-06 0)
(4.93414e-07 4.71007e-06 0)
(8.25325e-07 4.67915e-06 0)
(1.16132e-06 4.62262e-06 0)
(1.49784e-06 4.53201e-06 0)
(1.82698e-06 4.40119e-06 0)
(2.13828e-06 4.22873e-06 0)
(2.42138e-06 4.01884e-06 0)
(2.66847e-06 3.7802e-06 0)
(2.87557e-06 3.52341e-06 0)
(3.04237e-06 3.25863e-06 0)
(3.17126e-06 2.99422e-06 0)
(3.26621e-06 2.73633e-06 0)
(3.33178e-06 2.489e-06 0)
(3.37246e-06 2.25458e-06 0)
(3.39232e-06 2.03419e-06 0)
(3.39481e-06 1.82815e-06 0)
(3.38275e-06 1.63635e-06 0)
(3.35841e-06 1.45847e-06 0)
(3.32364e-06 1.29419e-06 0)
(3.27998e-06 1.14329e-06 0)
(3.22884e-06 1.00573e-06 0)
(3.17166e-06 8.81556e-07 0)
(3.10995e-06 7.70845e-07 0)
(3.0454e-06 6.73526e-07 0)
(2.97974e-06 5.89186e-07 0)
(2.91463e-06 5.16917e-07 0)
(2.85143e-06 4.55322e-07 0)
(2.79106e-06 4.02752e-07 0)
(2.73396e-06 3.57563e-07 0)
(2.68019e-06 3.18301e-07 0)
(2.62953e-06 2.83784e-07 0)
(2.58161e-06 2.53128e-07 0)
(2.53598e-06 2.25719e-07 0)
(2.49223e-06 2.01165e-07 0)
(2.45001e-06 1.79238e-07 0)
(2.40903e-06 1.59802e-07 0)
(2.36911e-06 1.42656e-07 0)
(2.19183e-06 2.28923e-08 0)
(1.10179e-06 -1.80561e-09 0)
(1.51085e-07 4.26776e-06 0)
(4.51476e-07 4.24832e-06 0)
(7.48513e-07 4.20801e-06 0)
(1.04154e-06 4.14405e-06 0)
(1.32776e-06 4.05355e-06 0)
(1.60261e-06 3.93492e-06 0)
(1.86056e-06 3.78876e-06 0)
(2.09632e-06 3.61812e-06 0)
(2.3058e-06 3.42801e-06 0)
(2.48666e-06 3.22445e-06 0)
(2.63839e-06 3.01347e-06 0)
(2.76196e-06 2.80045e-06 0)
(2.85937e-06 2.58974e-06 0)
(2.93318e-06 2.38462e-06 0)
(2.98614e-06 2.18738e-06 0)
(3.02094e-06 1.99952e-06 0)
(3.04008e-06 1.82194e-06 0)
(3.04577e-06 1.65512e-06 0)
(3.03996e-06 1.49931e-06 0)
(3.02437e-06 1.35457e-06 0)
(3.00054e-06 1.22092e-06 0)
(2.96987e-06 1.0983e-06 0)
(2.93371e-06 9.86623e-07 0)
(2.89336e-06 8.85699e-07 0)
(2.85007e-06 7.9521e-07 0)
(2.80502e-06 7.14668e-07 0)
(2.75924e-06 6.43395e-07 0)
(2.7136e-06 5.80558e-07 0)
(2.66873e-06 5.25239e-07 0)
(2.62508e-06 4.76512e-07 0)
(2.58284e-06 4.33515e-07 0)
(2.54211e-06 3.95495e-07 0)
(2.50283e-06 3.6182e-07 0)
(2.46491e-06 3.31986e-07 0)
(2.42821e-06 3.05599e-07 0)
(2.39258e-06 2.82356e-07 0)
(2.3579e-06 2.62021e-07 0)
(2.32406e-06 2.44194e-07 0)
(2.15602e-06 4.22063e-08 0)
(1.08363e-06 1.74238e-09 0)
(1.35969e-07 3.85321e-06 0)
(4.05304e-07 3.83277e-06 0)
(6.68982e-07 3.79194e-06 0)
(9.25672e-07 3.73022e-06 0)
(1.17318e-06 3.6472e-06 0)
(1.40865e-06 3.5431e-06 0)
(1.62893e-06 3.41924e-06 0)
(1.83109e-06 3.27803e-06 0)
(2.01288e-06 3.1228e-06 0)
(2.17295e-06 2.95736e-06 0)
(2.31091e-06 2.78561e-06 0)
(2.42723e-06 2.61116e-06 0)
(2.52301e-06 2.4371e-06 0)
(2.5998e-06 2.26598e-06 0)
(2.65935e-06 2.09976e-06 0)
(2.7035e-06 1.93987e-06 0)
(2.73403e-06 1.78734e-06 0)
(2.75264e-06 1.64286e-06 0)
(2.76091e-06 1.50689e-06 0)
(2.76029e-06 1.37967e-06 0)
(2.75211e-06 1.26134e-06 0)
(2.73761e-06 1.1519e-06 0)
(2.71793e-06 1.05128e-06 0)
(2.69413e-06 9.59293e-07 0)
(2.6672e-06 8.75651e-07 0)
(2.63802e-06 7.99977e-07 0)
(2.60736e-06 7.31798e-07 0)
(2.57586e-06 6.70578e-07 0)
(2.54404e-06 6.15744e-07 0)
(2.5123e-06 5.66718e-07 0)
(2.48089e-06 5.22947e-07 0)
(2.45e-06 4.83924e-07 0)
(2.41972e-06 4.492e-07 0)
(2.3901e-06 4.18388e-07 0)
(2.36115e-06 3.91156e-07 0)
(2.33285e-06 3.67231e-07 0)
(2.30517e-06 3.4638e-07 0)
(2.27811e-06 3.28077e-07 0)
(2.11936e-06 5.94433e-08 0)
(1.06466e-06 5.03304e-09 0)
(1.21302e-07 3.48167e-06 0)
(3.6114e-07 3.46246e-06 0)
(5.94784e-07 3.42469e-06 0)
(8.20762e-07 3.36884e-06 0)
(1.03733e-06 3.29548e-06 0)
(1.24253e-06 3.20558e-06 0)
(1.43443e-06 3.10059e-06 0)
(1.61129e-06 2.98251e-06 0)
(1.7718e-06 2.85376e-06 0)
(1.91515e-06 2.71702e-06 0)
(2.04112e-06 2.57497e-06 0)
(2.14998e-06 2.43017e-06 0)
(2.24243e-06 2.28489e-06 0)
(2.31945e-06 2.14108e-06 0)
(2.38222e-06 2.00033e-06 0)
(2.43204e-06 1.86392e-06 0)
(2.47021e-06 1.7328e-06 0)
(2.49803e-06 1.60768e-06 0)
(2.51672e-06 1.48907e-06 0)
(2.52747e-06 1.3773e-06 0)
(2.53137e-06 1.27257e-06 0)
(2.52943e-06 1.17494e-06 0)
(2.52262e-06 1.0844e-06 0)
(2.5118e-06 1.00082e-06 0)
(2.49776e-06 9.24028e-07 0)
(2.4812e-06 8.53749e-07 0)
(2.46274e-06 7.89672e-07 0)
(2.44291e-06 7.31443e-07 0)
(2.42214e-06 6.78686e-07 0)
(2.4008e-06 6.31018e-07 0)
(2.37916e-06 5.88067e-07 0)
(2.35743e-06 5.4948e-07 0)
(2.33577e-06 5.1493e-07 0)
(2.3143e-06 4.84125e-07 0)
(2.29309e-06 4.56802e-07 0)
(2.2722e-06 4.32729e-07 0)
(2.25167e-06 4.11706e-07 0)
(2.23155e-06 3.93097e-07 0)
(2.08192e-06 7.40851e-08 0)
(1.04497e-06 8.05943e-09 0)
(1.0798e-07 3.15055e-06 0)
(3.21297e-07 3.13335e-06 0)
(5.28641e-07 3.0998e-06 0)
(7.28619e-07 3.05072e-06 0)
(9.19813e-07 2.98705e-06 0)
(1.10082e-06 2.90995e-06 0)
(1.27034e-06 2.82083e-06 0)
(1.42726e-06 2.72137e-06 0)
(1.57078e-06 2.61344e-06 0)
(1.70041e-06 2.49903e-06 0)
(1.81603e-06 2.38011e-06 0)
(1.91784e-06 2.25859e-06 0)
(2.0063e-06 2.13618e-06 0)
(2.0821e-06 2.01439e-06 0)
(2.14609e-06 1.89451e-06 0)
(2.19918e-06 1.77761e-06 0)
(2.24236e-06 1.66453e-06 0)
(2.27661e-06 1.55593e-06 0)
(2.3029e-06 1.45231e-06 0)
(2.32215e-06 1.354e-06 0)
(2.33526e-06 1.26125e-06 0)
(2.34305e-06 1.17417e-06 0)
(2.34629e-06 1.09279e-06 0)
(2.34571e-06 1.01707e-06 0)
(2.34194e-06 9.46901e-07 0)
(2.33556e-06 8.82119e-07 0)
(2.32709e-06 8.22524e-07 0)
(2.31698e-06 7.67883e-07 0)
(2.3056e-06 7.17945e-07 0)
(2.29328e-06 6.72451e-07 0)
(2.28029e-06 6.31141e-07 0)
(2.26684e-06 5.93766e-07 0)
(2.25312e-06 5.60085e-07 0)
(2.23927e-06 5.29875e-07 0)
(2.2254e-06 5.0293e-07 0)
(2.21161e-06 4.79061e-07 0)
(2.19797e-06 4.58096e-07 0)
(2.18457e-06 4.39307e-07 0)
(2.04374e-06 8.58381e-08 0)
(1.02473e-06 1.07251e-08 0)
(9.6242e-08 2.85562e-06 0)
(2.86312e-07 2.84057e-06 0)
(4.70919e-07 2.81131e-06 0)
(6.48826e-07 2.76876e-06 0)
(8.18876e-07 2.71393e-06 0)
(9.80007e-07 2.64795e-06 0)
(1.13129e-06 2.57211e-06 0)
(1.27198e-06 2.48781e-06 0)
(1.40154e-06 2.39657e-06 0)
(1.51967e-06 2.29992e-06 0)
(1.62631e-06 2.19939e-06 0)
(1.72161e-06 2.09644e-06 0)
(1.80593e-06 1.9924e-06 0)
(1.87976e-06 1.88847e-06 0)
(1.94372e-06 1.7857e-06 0)
(1.9985e-06 1.68497e-06 0)
(2.04485e-06 1.58701e-06 0)
(2.08352e-06 1.49239e-06 0)
(2.11526e-06 1.40159e-06 0)
(2.14082e-06 1.31492e-06 0)
(2.1609e-06 1.23264e-06 0)
(2.17619e-06 1.15489e-06 0)
(2.1873e-06 1.08175e-06 0)
(2.19483e-06 1.01322e-06 0)
(2.1993e-06 9.49267e-07 0)
(2.2012e-06 8.89792e-07 0)
(2.20096e-06 8.34677e-07 0)
(2.19896e-06 7.83773e-07 0)
(2.19554e-06 7.36914e-07 0)
(2.191e-06 6.93924e-07 0)
(2.18557e-06 6.5462e-07 0)
(2.17948e-06 6.18822e-07 0)
(2.1729e-06 5.86354e-07 0)
(2.16599e-06 5.57044e-07 0)
(2.15887e-06 5.30731e-07 0)
(2.15166e-06 5.07262e-07 0)
(2.14444e-06 4.86492e-07 0)
(2.13731e-06 4.67627e-07 0)
(2.00484e-06 9.45744e-08 0)
(1.00398e-06 1.29499e-08 0)
(8.60429e-08 2.59237e-06 0)
(2.55968e-07 2.57932e-06 0)
(4.21013e-07 2.55401e-06 0)
(5.80118e-07 2.51731e-06 0)
(7.32334e-07 2.47018e-06 0)
(8.76834e-07 2.41366e-06 0)
(1.01292e-06 2.34887e-06 0)
(1.14007e-06 2.27701e-06 0)
(1.25789e-06 2.1993e-06 0)
(1.36621e-06 2.11698e-06 0)
(1.46498e-06 2.03126e-06 0)
(1.55435e-06 1.9433e-06 0)
(1.63457e-06 1.85417e-06 0)
(1.70603e-06 1.76482e-06 0)
(1.7692e-06 1.67611e-06 0)
(1.82461e-06 1.58878e-06 0)
(1.87282e-06 1.50345e-06 0)
(1.91444e-06 1.42062e-06 0)
(1.95005e-06 1.34071e-06 0)
(1.98024e-06 1.26403e-06 0)
(2.00559e-06 1.19083e-06 0)
(2.02663e-06 1.12125e-06 0)
(2.04389e-06 1.05541e-06 0)
(2.05785e-06 9.93347e-07 0)
(2.06895e-06 9.35062e-07 0)
(2.07759e-06 8.80519e-07 0)
(2.08414e-06 8.2965e-07 0)
(2.08893e-06 7.82367e-07 0)
(2.09225e-06 7.38562e-07 0)
(2.09437e-06 6.98115e-07 0)
(2.09551e-06 6.609e-07 0)
(2.09587e-06 6.26787e-07 0)
(2.09563e-06 5.95646e-07 0)
(2.09493e-06 5.67345e-07 0)
(2.0939e-06 5.4176e-07 0)
(2.09267e-06 5.18768e-07 0)
(2.09131e-06 4.98252e-07 0)
(2.08993e-06 4.79372e-07 0)
(1.96528e-06 1.00248e-07 0)
(9.8271e-07 1.46602e-08 0)
(7.72261e-08 2.35658e-06 0)
(2.2976e-07 2.3453e-06 0)
(3.77981e-07 2.32345e-06 0)
(5.20996e-07 2.29181e-06 0)
(6.58028e-07 2.25124e-06 0)
(7.88417e-07 2.20266e-06 0)
(9.1163e-07 2.14704e-06 0)
(1.02726e-06 2.0854e-06 0)
(1.13505e-06 2.01874e-06 0)
(1.23486e-06 1.94808e-06 0)
(1.32668e-06 1.8744e-06 0)
(1.41062e-06 1.79865e-06 0)
(1.48689e-06 1.72168e-06 0)
(1.55579e-06 1.64428e-06 0)
(1.61769e-06 1.56717e-06 0)
(1.673e-06 1.49095e-06 0)
(1.72216e-06 1.41615e-06 0)
(1.76564e-06 1.34323e-06 0)
(1.80392e-06 1.27254e-06 0)
(1.83748e-06 1.20438e-06 0)
(1.86676e-06 1.13898e-06 0)
(1.89222e-06 1.07649e-06 0)
(1.91428e-06 1.01703e-06 0)
(1.93333e-06 9.60672e-07 0)
(1.94975e-06 9.07449e-07 0)
(1.96387e-06 8.57356e-07 0)
(1.97602e-06 8.10367e-07 0)
(1.98647e-06 7.6643e-07 0)
(1.99548e-06 7.25482e-07 0)
(2.00328e-06 6.87444e-07 0)
(2.01008e-06 6.52228e-07 0)
(2.01605e-06 6.19742e-07 0)
(2.02136e-06 5.8989e-07 0)
(2.02616e-06 5.62573e-07 0)
(2.03056e-06 5.37694e-07 0)
(2.03468e-06 5.15156e-07 0)
(2.03861e-06 4.94863e-07 0)
(2.04246e-06 4.75954e-07 0)
(1.92502e-06 1.0283e-07 0)
(9.60889e-07 1.57776e-08 0)
(6.96051e-08 2.14454e-06 0)
(2.07116e-07 2.13477e-06 0)
(3.4083e-07 2.11586e-06 0)
(4.70002e-07 2.0885e-06 0)
(5.93995e-07 2.05345e-06 0)
(7.1228e-07 2.01149e-06 0)
(8.24435e-07 1.96348e-06 0)
(9.3015e-07 1.91024e-06 0)
(1.02923e-06 1.85265e-06 0)
(1.12156e-06 1.79153e-06 0)
(1.20717e-06 1.7277e-06 0)
(1.28614e-06 1.66192e-06 0)
(1.35864e-06 1.59493e-06 0)
(1.4249e-06 1.52736e-06 0)
(1.48522e-06 1.45982e-06 0)
(1.53992e-06 1.39281e-06 0)
(1.58936e-06 1.32681e-06 0)
(1.63392e-06 1.26218e-06 0)
(1.67397e-06 1.19927e-06 0)
(1.70991e-06 1.13832e-06 0)
(1.74209e-06 1.07956e-06 0)
(1.7709e-06 1.02314e-06 0)
(1.79668e-06 9.69197e-07 0)
(1.81975e-06 9.17802e-07 0)
(1.84043e-06 8.69006e-07 0)
(1.85901e-06 8.22833e-07 0)
(1.87575e-06 7.79281e-07 0)
(1.8909e-06 7.3833e-07 0)
(1.90469e-06 6.99944e-07 0)
(1.9173e-06 6.64074e-07 0)
(1.92893e-06 6.30662e-07 0)
(1.93974e-06 5.99643e-07 0)
(1.94988e-06 5.70947e-07 0)
(1.95948e-06 5.44499e-07 0)
(1.96865e-06 5.20224e-07 0)
(1.9775e-06 4.98045e-07 0)
(1.98612e-06 4.77884e-07 0)
(1.99461e-06 4.58879e-07 0)
(1.88387e-06 1.02338e-07 0)
(9.38494e-07 1.62275e-08 0)
(6.29977e-08 1.95304e-06 0)
(1.87487e-07 1.94455e-06 0)
(3.08633e-07 1.92812e-06 0)
(4.2582e-07 1.90435e-06 0)
(5.38526e-07 1.87389e-06 0)
(6.46323e-07 1.83743e-06 0)
(7.48874e-07 1.79569e-06 0)
(8.45938e-07 1.74939e-06 0)
(9.3736e-07 1.69924e-06 0)
(1.02307e-06 1.64595e-06 0)
(1.10308e-06 1.59019e-06 0)
(1.17746e-06 1.53262e-06 0)
(1.24635e-06 1.47382e-06 0)
(1.30996e-06 1.41435e-06 0)
(1.3685e-06 1.35471e-06 0)
(1.42224e-06 1.29534e-06 0)
(1.47148e-06 1.23664e-06 0)
(1.51651e-06 1.17895e-06 0)
(1.55764e-06 1.12254e-06 0)
(1.59519e-06 1.06766e-06 0)
(1.62947e-06 1.01452e-06 0)
(1.66078e-06 9.6326e-07 0)
(1.6894e-06 9.14007e-07 0)
(1.71562e-06 8.66853e-07 0)
(1.73969e-06 8.21857e-07 0)
(1.76186e-06 7.79058e-07 0)
(1.78235e-06 7.38474e-07 0)
(1.80138e-06 7.00103e-07 0)
(1.81914e-06 6.63931e-07 0)
(1.83581e-06 6.29932e-07 0)
(1.85154e-06 5.98068e-07 0)
(1.86648e-06 5.68295e-07 0)
(1.88077e-06 5.40563e-07 0)
(1.89452e-06 5.14817e-07 0)
(1.90784e-06 4.90999e-07 0)
(1.92083e-06 4.69049e-07 0)
(1.93356e-06 4.48905e-07 0)
(1.94612e-06 4.29729e-07 0)
(1.84166e-06 9.88362e-08 0)
(9.15466e-07 1.59386e-08 0)
(5.72393e-08 1.77939e-06 0)
(1.7038e-07 1.77197e-06 0)
(2.80571e-07 1.75761e-06 0)
(3.87308e-07 1.73682e-06 0)
(4.90161e-07 1.71018e-06 0)
(5.88785e-07 1.67827e-06 0)
(6.8291e-07 1.64171e-06 0)
(7.72344e-07 1.60112e-06 0)
(8.56967e-07 1.55709e-06 0)
(9.36729e-07 1.51023e-06 0)
(1.01164e-06 1.4611e-06 0)
(1.08177e-06 1.41026e-06 0)
(1.14723e-06 1.35821e-06 0)
(1.20818e-06 1.30541e-06 0)
(1.26481e-06 1.25229e-06 0)
(1.31733e-06 1.19924e-06 0)
(1.36599e-06 1.1466e-06 0)
(1.41103e-06 1.09465e-06 0)
(1.4527e-06 1.04367e-06 0)
(1.49127e-06 9.93859e-07 0)
(1.52699e-06 9.45412e-07 0)
(1.56011e-06 8.98472e-07 0)
(1.59087e-06 8.53162e-07 0)
(1.61951e-06 8.09572e-07 0)
(1.64624e-06 7.67773e-07 0)
(1.67127e-06 7.27812e-07 0)
(1.6948e-06 6.89719e-07 0)
(1.717e-06 6.53509e-07 0)
(1.73805e-06 6.19181e-07 0)
(1.75809e-06 5.86726e-07 0)
(1.77727e-06 5.56122e-07 0)
(1.79571e-06 5.27342e-07 0)
(1.81353e-06 5.00351e-07 0)
(1.83084e-06 4.75109e-07 0)
(1.84774e-06 4.51571e-07 0)
(1.8643e-06 4.29692e-07 0)
(1.88062e-06 4.09422e-07 0)
(1.89674e-06 3.89969e-07 0)
(1.7982e-06 9.2369e-08 0)
(8.91715e-07 1.48264e-08 0)
(5.21871e-08 1.62136e-06 0)
(1.55369e-07 1.61483e-06 0)
(2.55942e-07 1.60218e-06 0)
(3.53492e-07 1.58386e-06 0)
(4.47671e-07 1.56037e-06 0)
(5.38196e-07 1.53222e-06 0)
(6.24852e-07 1.49993e-06 0)
(7.07486e-07 1.46403e-06 0)
(7.86006e-07 1.42503e-06 0)
(8.60373e-07 1.38345e-06 0)
(9.30603e-07 1.33978e-06 0)
(9.96752e-07 1.29446e-06 0)
(1.05892e-06 1.24795e-06 0)
(1.11724e-06 1.20063e-06 0)
(1.17186e-06 1.15289e-06 0)
(1.22297e-06 1.10504e-06 0)
(1.27076e-06 1.05738e-06 0)
(1.31544e-06 1.01019e-06 0)
(1.35722e-06 9.63681e-07 0)
(1.39632e-06 9.18061e-07 0)
(1.43295e-06 8.73496e-07 0)
(1.46731e-06 8.30127e-07 0)
(1.49962e-06 7.88071e-07 0)
(1.53007e-06 7.4742e-07 0)
(1.55884e-06 7.08247e-07 0)
(1.58611e-06 6.70609e-07 0)
(1.61205e-06 6.34543e-07 0)
(1.63682e-06 6.00075e-07 0)
(1.66055e-06 5.67216e-07 0)
(1.68337e-06 5.35968e-07 0)
(1.70541e-06 5.06325e-07 0)
(1.72679e-06 4.7827e-07 0)
(1.74759e-06 4.5178e-07 0)
(1.76792e-06 4.26829e-07 0)
(1.78786e-06 4.03383e-07 0)
(1.80748e-06 3.81405e-07 0)
(1.82685e-06 3.60855e-07 0)
(1.84603e-06 3.41006e-07 0)
(1.75318e-06 8.29792e-08 0)
(8.67161e-07 1.27979e-08 0)
(4.77193e-08 1.47708e-06 0)
(1.42092e-07 1.47128e-06 0)
(2.3415e-07 1.46004e-06 0)
(3.23555e-07 1.44376e-06 0)
(4.10024e-07 1.42287e-06 0)
(4.93329e-07 1.39781e-06 0)
(5.73298e-07 1.36903e-06 0)
(6.49808e-07 1.33699e-06 0)
(7.2279e-07 1.30213e-06 0)
(7.92216e-07 1.26488e-06 0)
(8.58102e-07 1.22567e-06 0)
(9.205e-07 1.18489e-06 0)
(9.79495e-07 1.14292e-06 0)
(1.0352e-06 1.10009e-06 0)
(1.08774e-06 1.05674e-06 0)
(1.13727e-06 1.01315e-06 0)
(1.18397e-06 9.69584e-07 0)
(1.22799e-06 9.26274e-07 0)
(1.26951e-06 8.83427e-07 0)
(1.30873e-06 8.41224e-07 0)
(1.34582e-06 7.9982e-07 0)
(1.38095e-06 7.59348e-07 0)
(1.41431e-06 7.19921e-07 0)
(1.44605e-06 6.81632e-07 0)
(1.47633e-06 6.44556e-07 0)
(1.50531e-06 6.08752e-07 0)
(1.53313e-06 5.74267e-07 0)
(1.55992e-06 5.41133e-07 0)
(1.5858e-06 5.09373e-07 0)
(1.61089e-06 4.78997e-07 0)
(1.63528e-06 4.50011e-07 0)
(1.65908e-06 4.22409e-07 0)
(1.68237e-06 3.96179e-07 0)
(1.70523e-06 3.71305e-07 0)
(1.72773e-06 3.47762e-07 0)
(1.74993e-06 3.25524e-07 0)
(1.77189e-06 3.04556e-07 0)
(1.79364e-06 2.84225e-07 0)
(1.70635e-06 7.07345e-08 0)
(8.41671e-07 9.75182e-09 0)
(4.37335e-08 1.34501e-06 0)
(1.30245e-07 1.33981e-06 0)
(2.14696e-07 1.32974e-06 0)
(2.96812e-07 1.31513e-06 0)
(3.76363e-07 1.29638e-06 0)
(4.53167e-07 1.27386e-06 0)
(5.27084e-07 1.24796e-06 0)
(5.98021e-07 1.21908e-06 0)
(6.65923e-07 1.1876e-06 0)
(7.30773e-07 1.1539e-06 0)
(7.92589e-07 1.11834e-06 0)
(8.51417e-07 1.08127e-06 0)
(9.07332e-07 1.043e-06 0)
(9.6043e-07 1.00384e-06 0)
(1.01083e-06 9.64065e-07 0)
(1.05865e-06 9.23936e-07 0)
(1.10403e-06 8.83684e-07 0)
(1.14713e-06 8.43515e-07 0)
(1.1881e-06 8.03618e-07 0)
(1.22709e-06 7.64156e-07 0)
(1.26425e-06 7.25274e-07 0)
(1.29974e-06 6.87097e-07 0)
(1.33371e-06 6.49735e-07 0)
(1.36629e-06 6.13278e-07 0)
(1.39762e-06 5.77804e-07 0)
(1.42784e-06 5.43376e-07 0)
(1.45707e-06 5.10045e-07 0)
(1.48541e-06 4.77853e-07 0)
(1.51298e-06 4.46828e-07 0)
(1.53986e-06 4.16992e-07 0)
(1.56616e-06 3.88359e-07 0)
(1.59194e-06 3.60934e-07 0)
(1.61729e-06 3.34716e-07 0)
(1.64225e-06 3.09701e-07 0)
(1.6669e-06 2.85875e-07 0)
(1.69128e-06 2.63223e-07 0)
(1.71542e-06 2.41725e-07 0)
(1.73934e-06 2.20872e-07 0)
(1.65744e-06 5.56909e-08 0)
(8.15039e-07 5.55959e-09 0)
(4.01442e-08 1.22388e-06 0)
(1.19573e-07 1.21917e-06 0)
(1.97164e-07 1.21005e-06 0)
(2.72692e-07 1.19683e-06 0)
(3.45973e-07 1.17983e-06 0)
(4.16861e-07 1.15939e-06 0)
(4.85246e-07 1.13585e-06 0)
(5.51055e-07 1.10956e-06 0)
(6.14247e-07 1.08084e-06 0)
(6.74814e-07 1.05004e-06 0)
(7.32775e-07 1.01745e-06 0)
(7.88173e-07 9.83386e-07 0)
(8.41076e-07 9.48124e-07 0)
(8.91566e-07 9.11928e-07 0)
(9.39745e-07 8.75046e-07 0)
(9.85724e-07 8.37703e-07 0)
(1.02962e-06 8.00104e-07 0)
(1.07157e-06 7.62439e-07 0)
(1.1117e-06 7.24875e-07 0)
(1.15015e-06 6.87563e-07 0)
(1.18705e-06 6.50638e-07 0)
(1.22252e-06 6.14219e-07 0)
(1.25671e-06 5.7841e-07 0)
(1.28973e-06 5.43302e-07 0)
(1.3217e-06 5.08972e-07 0)
(1.35274e-06 4.75487e-07 0)
(1.38294e-06 4.42905e-07 0)
(1.41242e-06 4.11271e-07 0)
(1.44126e-06 3.80624e-07 0)
(1.46953e-06 3.50994e-07 0)
(1.49733e-06 3.22404e-07 0)
(1.52471e-06 2.94869e-07 0)
(1.55173e-06 2.684e-07 0)
(1.57846e-06 2.43001e-07 0)
(1.60493e-06 2.18673e-07 0)
(1.63119e-06 1.95411e-07 0)
(1.65727e-06 1.7321e-07 0)
(1.68319e-06 1.51715e-07 0)
(1.60632e-06 3.77198e-08 0)
(7.86952e-07 -1.20765e-10 0)
(3.68801e-08 1.11264e-06 0)
(1.09866e-07 1.10834e-06 0)
(1.81207e-07 1.10001e-06 0)
(2.50721e-07 1.08791e-06 0)
(3.18261e-07 1.07235e-06 0)
(3.83711e-07 1.05361e-06 0)
(4.46983e-07 1.032e-06 0)
(5.08023e-07 1.00782e-06 0)
(5.66801e-07 9.81353e-07 0)
(6.23316e-07 9.52898e-07 0)
(6.77588e-07 9.22725e-07 0)
(7.29659e-07 8.91096e-07 0)
(7.79588e-07 8.58258e-07 0)
(8.27453e-07 8.24445e-07 0)
(8.7334e-07 7.89873e-07 0)
(9.17349e-07 7.54742e-07 0)
(9.59588e-07 7.19237e-07 0)
(1.00017e-06 6.83527e-07 0)
(1.03921e-06 6.47764e-07 0)
(1.07682e-06 6.12087e-07 0)
(1.11313e-06 5.76623e-07 0)
(1.14825e-06 5.41482e-07 0)
(1.1823e-06 5.06765e-07 0)
(1.21538e-06 4.72561e-07 0)
(1.24761e-06 4.38951e-07 0)
(1.27907e-06 4.06002e-07 0)
(1.30987e-06 3.73778e-07 0)
(1.34009e-06 3.4233e-07 0)
(1.36981e-06 3.11705e-07 0)
(1.39911e-06 2.81943e-07 0)
(1.42804e-06 2.53075e-07 0)
(1.45666e-06 2.25127e-07 0)
(1.48502e-06 1.9812e-07 0)
(1.51318e-06 1.72067e-07 0)
(1.54116e-06 1.46975e-07 0)
(1.569e-06 1.22847e-07 0)
(1.59675e-06 9.96758e-08 0)
(1.6244e-06 7.72654e-08 0)
(1.55251e-06 1.65542e-08 0)
(7.57402e-07 -7.78839e-09 0)
(3.38826e-08 1.01045e-06 0)
(1.00949e-07 1.00648e-06 0)
(1.66539e-07 9.98789e-07 0)
(2.30509e-07 9.87616e-07 0)
(2.92738e-07 9.73223e-07 0)
(3.53136e-07 9.55874e-07 0)
(4.11635e-07 9.35836e-07 0)
(4.68193e-07 9.13371e-07 0)
(5.22791e-07 8.88739e-07 0)
(5.75433e-07 8.6219e-07 0)
(6.26139e-07 8.33966e-07 0)
(6.74951e-07 8.04297e-07 0)
(7.21923e-07 7.73402e-07 0)
(7.67125e-07 7.41486e-07 0)
(8.10635e-07 7.0874e-07 0)
(8.52543e-07 6.75343e-07 0)
(8.92946e-07 6.41458e-07 0)
(9.31943e-07 6.07238e-07 0)
(9.6964e-07 5.72822e-07 0)
(1.00614e-06 5.38336e-07 0)
(1.04156e-06 5.03896e-07 0)
(1.076e-06 4.69609e-07 0)
(1.10956e-06 4.35571e-07 0)
(1.14235e-06 4.01869e-07 0)
(1.17446e-06 3.68582e-07 0)
(1.20598e-06 3.35784e-07 0)
(1.23699e-06 3.0354e-07 0)
(1.26759e-06 2.71911e-07 0)
(1.29783e-06 2.4095e-07 0)
(1.32778e-06 2.10708e-07 0)
(1.3575e-06 1.81227e-07 0)
(1.38704e-06 1.52547e-07 0)
(1.41643e-06 1.247e-07 0)
(1.4457e-06 9.77133e-08 0)
(1.47488e-06 7.16077e-08 0)
(1.50397e-06 4.63962e-08 0)
(1.53298e-06 2.2083e-08 0)
(1.56186e-06 -1.33376e-09 0)
(1.4953e-06 -8.20125e-09 0)
(7.26353e-07 -1.76491e-08 0)
(3.11032e-08 9.16598e-07 0)
(9.26783e-08 9.12905e-07 0)
(1.52927e-07 9.05736e-07 0)
(2.11734e-07 8.95318e-07 0)
(2.69003e-07 8.81884e-07 0)
(3.24662e-07 8.6567e-07 0)
(3.7866e-07 8.46912e-07 0)
(4.30965e-07 8.25845e-07 0)
(4.81566e-07 8.02697e-07 0)
(5.30469e-07 7.7769e-07 0)
(5.77698e-07 7.51037e-07 0)
(6.2329e-07 7.2294e-07 0)
(6.67298e-07 6.93593e-07 0)
(7.09784e-07 6.63176e-07 0)
(7.50821e-07 6.31859e-07 0)
(7.90489e-07 5.99799e-07 0)
(8.28877e-07 5.67144e-07 0)
(8.66076e-07 5.34027e-07 0)
(9.02184e-07 5.00575e-07 0)
(9.37297e-07 4.66903e-07 0)
(9.71517e-07 4.33117e-07 0)
(1.00494e-06 3.99315e-07 0)
(1.03767e-06 3.65589e-07 0)
(1.06979e-06 3.32023e-07 0)
(1.10141e-06 2.98697e-07 0)
(1.1326e-06 2.65684e-07 0)
(1.16346e-06 2.33056e-07 0)
(1.19405e-06 2.00878e-07 0)
(1.22445e-06 1.69213e-07 0)
(1.25471e-06 1.38123e-07 0)
(1.2849e-06 1.07663e-07 0)
(1.31505e-06 7.78896e-08 0)
(1.34519e-06 4.8853e-08 0)
(1.37536e-06 2.06015e-08 0)
(1.40556e-06 -6.82009e-09 0)
(1.4358e-06 -3.33702e-08 0)
(1.46605e-06 -5.90105e-08 0)
(1.49626e-06 -8.34923e-08 0)
(1.43472e-06 -3.69938e-08 0)
(6.93126e-07 -3.00341e-08 0)
(2.85026e-08 8.30517e-07 0)
(8.4937e-08 8.27048e-07 0)
(1.40179e-07 8.2031e-07 0)
(1.94134e-07 8.10511e-07 0)
(2.46728e-07 7.97862e-07 0)
(2.97902e-07 7.82576e-07 0)
(3.47617e-07 7.64864e-07 0)
(3.9585e-07 7.44936e-07 0)
(4.42595e-07 7.22995e-07 0)
(4.8786e-07 6.99237e-07 0)
(5.3167e-07 6.7385e-07 0)
(5.74061e-07 6.47014e-07 0)
(6.15079e-07 6.18899e-07 0)
(6.54783e-07 5.89663e-07 0)
(6.93239e-07 5.59457e-07 0)
(7.30521e-07 5.28419e-07 0)
(7.66709e-07 4.96679e-07 0)
(8.01889e-07 4.64355e-07 0)
(8.36151e-07 4.31559e-07 0)
(8.69587e-07 3.98393e-07 0)
(9.02291e-07 3.64953e-07 0)
(9.34359e-07 3.31329e-07 0)
(9.65886e-07 2.97603e-07 0)
(9.96967e-07 2.63855e-07 0)
(1.02769e-06 2.30162e-07 0)
(1.05815e-06 1.96596e-07 0)
(1.08843e-06 1.63231e-07 0)
(1.11862e-06 1.30137e-07 0)
(1.14877e-06 9.73841e-08 0)
(1.17897e-06 6.50441e-08 0)
(1.20926e-06 3.31878e-08 0)
(1.2397e-06 1.88612e-09 0)
(1.27033e-06 -2.87899e-08 0)
(1.30118e-06 -5.87698e-08 0)
(1.33227e-06 -8.79842e-08 0)
(1.36359e-06 -1.16365e-07 0)
(1.39517e-06 -1.43846e-07 0)
(1.42696e-06 -1.6994e-07 0)
(1.37019e-06 -7.05668e-08 0)
(6.57422e-07 -4.58067e-08 0)
(2.60488e-08 7.51736e-07 0)
(7.76308e-08 7.48451e-07 0)
(1.2814e-07 7.42069e-07 0)
(1.775e-07 7.32779e-07 0)
(2.25651e-07 7.20776e-07 0)
(2.72546e-07 7.06253e-07 0)
(3.18154e-07 6.89401e-07 0)
(3.62459e-07 6.70408e-07 0)
(4.05457e-07 6.49453e-07 0)
(4.4716e-07 6.26714e-07 0)
(4.87588e-07 6.02356e-07 0)