/*--------------------------------*- C++ -*----------------------------------*\
  =========                 |
  \\      /  F ield         | OpenFOAM: The Open Source CFD Toolbox
   \\    /   O peration     | Website:  https://openfoam.org
    \\  /    A nd           | Version:  10
     \\/     M anipulation  |
\*---------------------------------------------------------------------------*/
FoamFile
{
    format      ascii;
    class       volVectorField;
    location    "1.32";
    object      Ub;
}
// * * * * * * * * * * * * * * * * * * * * * * * * * * * * * * * * * * * * * //

dimensions      [0 1 -1 0 0 0 0];

internalField   nonuniform List<vector> 
12225
(
(0.00220851 -0.000447238 0)
(0.00630675 -0.000398882 0)
(0.00969209 -0.000329271 0)
(0.0123185 -0.000259853 0)
(0.0142898 -0.000201753 0)
(0.0157608 -0.000158196 0)
(0.0168809 -0.000128455 0)
(0.0177737 -0.000110567 0)
(0.0185357 -0.000102719 0)
(0.019243 -0.000103861 0)
(0.0199594 -0.00011405 0)
(0.0207469 -0.000134913 0)
(0.0216778 -0.000170686 0)
(0.0228563 -0.000230906 0)
(0.0244647 -0.000338273 0)
(0.0268979 -0.000556567 0)
(0.0312863 -0.00112299 0)
(0.0424606 -0.00333748 0)
(0.00236048 -0.00140639 0)
(0.00673193 -0.00125231 0)
(0.0103246 -0.00103139 0)
(0.0130939 -0.000811807 0)
(0.0151575 -0.000628563 0)
(0.0166861 -0.000491532 0)
(0.017842 -0.00039817 0)
(0.0187581 -0.000342118 0)
(0.0195372 -0.000317548 0)
(0.0202592 -0.000321061 0)
(0.020991 -0.000352718 0)
(0.0217961 -0.000417408 0)
(0.0227475 -0.000527924 0)
(0.0239471 -0.000712801 0)
(0.0255644 -0.00103832 0)
(0.0279246 -0.00168093 0)
(0.0316892 -0.0032205 0)
(0.0374207 -0.00814003 0)
(0.00247537 -0.00249345 0)
(0.00704703 -0.0022145 0)
(0.0107785 -0.00181719 0)
(0.0136304 -0.00142453 0)
(0.0157368 -0.00109848 0)
(0.0172838 -0.000855677 0)
(0.0184447 -0.000690822 0)
(0.0193589 -0.000592102 0)
(0.020133 -0.000548842 0)
(0.0208489 -0.000554726 0)
(0.0215733 -0.000609477 0)
(0.0223686 -0.000721006 0)
(0.023303 -0.000910216 0)
(0.0244662 -0.00122281 0)
(0.0259907 -0.00176021 0)
(0.028075 -0.00276836 0)
(0.0308997 -0.00491448 0)
(0.0335996 -0.0101109 0)
(0.00259094 -0.00371354 0)
(0.0073578 -0.00328667 0)
(0.0112117 -0.00268411 0)
(0.0141232 -0.0020934 0)
(0.0162487 -0.00160629 0)
(0.0177929 -0.00124563 0)
(0.0189408 -0.00100187 0)
(0.0198383 -0.00085634 0)
(0.0205943 -0.000792499 0)
(0.021291 -0.000800379 0)
(0.0219938 -0.000878763 0)
(0.0227609 -0.0010378 0)
(0.0236522 -0.00130483 0)
(0.0247377 -0.00173787 0)
(0.0261006 -0.00245771 0)
(0.0278107 -0.00372429 0)
(0.0297408 -0.00610453 0)
(0.0308155 -0.0106657 0)
(0.0027218 -0.00508445 0)
(0.00770313 -0.00447931 0)
(0.0116779 -0.00363532 0)
(0.0146337 -0.00281696 0)
(0.016758 -0.00214845 0)
(0.0182798 -0.00165727 0)
(0.0193977 -0.00132724 0)
(0.0202637 -0.00113097 0)
(0.0209886 -0.00104467 0)
(0.0216536 -0.00105377 0)
(0.0223208 -0.00115519 0)
(0.0230425 -0.00136002 0)
(0.023867 -0.0016992 0)
(0.0248406 -0.00223623 0)
(0.0259973 -0.00309316 0)
(0.0273075 -0.00449849 0)
(0.0285086 -0.00684261 0)
(0.0287263 -0.0105582 0)
(0.00287964 -0.00663328 0)
(0.00811233 -0.00580826 0)
(0.0122138 -0.00467562 0)
(0.0151995 -0.00359335 0)
(0.0173008 -0.0027202 0)
(0.0187781 -0.00208505 0)
(0.0198467 -0.00166154 0)
(0.020665 -0.00141089 0)
(0.0213446 -0.00130036 0)
(0.0219642 -0.0013095 0)
(0.0225815 -0.00143219 0)
(0.0232409 -0.00167858 0)
(0.0239774 -0.00207976 0)
(0.0248136 -0.00269715 0)
(0.0257425 -0.00363848 0)
(0.0266754 -0.00507549 0)
(0.0273303 -0.00722609 0)
(0.0271049 -0.0101596 0)
(0.00307775 -0.00839852 0)
(0.00861688 -0.00729459 0)
(0.0128551 -0.00581009 0)
(0.015853 -0.00441862 0)
(0.0179043 -0.00331406 0)
(0.0193107 -0.00252089 0)
(0.0203074 -0.00199718 0)
(0.0210592 -0.00168917 0)
(0.0216774 -0.00155294 0)
(0.022237 -0.00156068 0)
(0.0227897 -0.00170169 0)
(0.0233708 -0.00198313 0)
(0.0240017 -0.00243247 0)
(0.0246846 -0.00310244 0)
(0.025384 -0.00407636 0)
(0.0259884 -0.00546345 0)
(0.0262552 -0.00735078 0)
(0.0258092 -0.00964329 0)
(0.00333391 -0.0104345 0)
(0.00925701 -0.0089654 0)
(0.0136438 -0.00704259 0)
(0.0166287 -0.00528483 0)
(0.0185944 -0.00391827 0)
(0.0198967 -0.002953 0)
(0.0207941 -0.00232356 0)
(0.0214575 -0.00195642 0)
(0.0219964 -0.00179378 0)
(0.0224804 -0.00179865 0)
(0.0229536 -0.00195417 0)
(0.023442 -0.00226234 0)
(0.0239546 -0.00274375 0)
(0.0244776 -0.00343778 0)
(0.0249607 -0.00439953 0)
(0.0252948 -0.00568343 0)
(0.025296 -0.007294 0)
(0.0247482 -0.00908686 0)
(0.00367414 -0.0128196 0)
(0.0100889 -0.0108548 0)
(0.0146339 -0.00837329 0)
(0.0175666 -0.00617717 0)
(0.0193978 -0.00451456 0)
(0.0205534 -0.00336437 0)
(0.0213184 -0.00262613 0)
(0.0218681 -0.00220027 0)
(0.0223077 -0.00201186 0)
(0.0226996 -0.00201287 0)
(0.0230793 -0.00217873 0)
(0.023463 -0.0025044 0)
(0.0238491 -0.00300126 0)
(0.024214 -0.00369321 0)
(0.0245034 -0.00460859 0)
(0.0246239 -0.00576102 0)
(0.0244487 -0.00711213 0)
(0.023862 -0.00852266 0)
(0.00413884 -0.0156695 0)
(0.0111956 -0.0130042 0)
(0.0158984 -0.00979382 0)
(0.0187154 -0.00706921 0)
(0.0203436 -0.00507492 0)
(0.0212974 -0.00373085 0)
(0.0218895 -0.00288526 0)
(0.0222963 -0.00240468 0)
(0.0226151 -0.00219349 0)
(0.0228983 -0.0021909 0)
(0.0231714 -0.00236335 0)
(0.0234413 -0.00269755 0)
(0.023698 -0.00319452 0)
(0.0239129 -0.00386299 0)
(0.0240351 -0.00470936 0)
(0.023992 -0.00572111 0)
(0.0237021 -0.00684369 0)
(0.0231092 -0.00796259 0)
(0.00479415 -0.0191623 0)
(0.012706 -0.0154609 0)
(0.0175391 -0.0112778 0)
(0.0201354 -0.00791531 0)
(0.0214625 -0.00555698 0)
(0.022143 -0.0040187 0)
(0.0225136 -0.00307504 0)
(0.0227447 -0.00254944 0)
(0.0229199 -0.00232221 0)
(0.0230781 -0.00231853 0)
(0.0232335 -0.00249528 0)
(0.0233836 -0.00283053 0)
(0.0235124 -0.00331519 0)
(0.0235897 -0.00394492 0)
(0.0235718 -0.00471038 0)
(0.023406 -0.00558514 0)
(0.0230432 -0.00651384 0)
(0.0224603 -0.00740946 0)
(0.00568477 -0.0231608 0)
(0.0146767 -0.0180242 0)
(0.0195517 -0.0126504 0)
(0.0217839 -0.00859482 0)
(0.0227042 -0.00588441 0)
(0.0230476 -0.00418006 0)
(0.0231605 -0.00316409 0)
(0.0231957 -0.00261211 0)
(0.0232164 -0.00238024 0)
(0.0232449 -0.00238057 0)
(0.0232828 -0.00256144 0)
(0.0233195 -0.00289352 0)
(0.0233342 -0.0033596 0)
(0.0232974 -0.00394595 0)
(0.0231727 -0.0046339 0)
(0.022922 -0.00539178 0)
(0.0225161 -0.00616992 0)
(0.0219472 -0.00690365 0)
(0.0069327 -0.0282929 0)
(0.017307 -0.020864 0)
(0.0220402 -0.0138929 0)
(0.0236874 -0.00905106 0)
(0.0240561 -0.00600712 0)
(0.0239811 -0.00417811 0)
(0.0237929 -0.00312665 0)
(0.0236089 -0.00257494 0)
(0.0234629 -0.00235548 0)
(0.0233558 -0.00236906 0)
(0.0232754 -0.00255726 0)
(0.0232022 -0.00288507 0)
(0.023112 -0.00332942 0)
(0.0229764 -0.00387065 0)
(0.0227657 -0.00448557 0)
(0.0224532 -0.00514251 0)
(0.0220222 -0.00579978 0)
(0.0214728 -0.00640992 0)
(0.00918372 -0.0363135 0)
(0.0217493 -0.0243538 0)
(0.0258207 -0.0149225 0)
(0.0263412 -0.00913322 0)
(0.0258205 -0.00579853 0)
(0.0251376 -0.00391988 0)
(0.0245415 -0.00289631 0)
(0.0240752 -0.0023904 0)
(0.0237225 -0.00221354 0)
(0.0234535 -0.00225868 0)
(0.0232371 -0.0024634 0)
(0.0230436 -0.00278938 0)
(0.0228445 -0.00321002 0)
(0.0226129 -0.00370256 0)
(0.0223246 -0.00424281 0)
(0.0219616 -0.00480237 0)
(0.021515 -0.00534887 0)
(0.0209886 -0.00584951 0)
(0.0137829 -0.0503248 0)
(0.0299907 -0.0279189 0)
(0.0317466 -0.0148566 0)
(0.0300055 -0.00824289 0)
(0.0280427 -0.00489574 0)
(0.0264961 -0.00318247 0)
(0.0253691 -0.00232887 0)
(0.024557 -0.00195889 0)
(0.0239625 -0.00188077 0)
(0.0235112 -0.00199133 0)
(0.0231479 -0.00223173 0)
(0.0228305 -0.00256547 0)
(0.0225255 -0.00296669 0)
(0.0222063 -0.00341348 0)
(0.0218526 -0.00388426 0)
(0.0214515 -0.00435643 0)
(0.0209981 -0.00480701 0)
(0.0204963 -0.005215 0)
(0.0249518 -0.0793703 0)
(0.0473445 -0.0274515 0)
(0.0410198 -0.0111164 0)
(0.0347008 -0.00514579 0)
(0.0305315 -0.00269421 0)
(0.0278734 -0.00164223 0)
(0.0261339 -0.00123248 0)
(0.0249499 -0.00115522 0)
(0.0241072 -0.0012682 0)
(0.0234757 -0.0014992 0)
(0.0229721 -0.00180785 0)
(0.0225404 -0.00216869 0)
(0.022142 -0.00256301 0)
(0.0217495 -0.00297471 0)
(0.0213447 -0.00338836 0)
(0.0209174 -0.00378889 0)
(0.0204639 -0.0041622 0)
(0.0199866 -0.00449643 0)
(0.0593207 0.000586243 0)
(0.090782 0.00300623 0)
(0.0531381 0.00251031 0)
(0.0390266 0.00192824 0)
(0.032424 0.00143204 0)
(0.0287998 0.000982128 0)
(0.0265813 0.000551215 0)
(0.0251115 0.000127088 0)
(0.0240729 -0.00029533 0)
(0.0232925 -0.000715971 0)
(0.0226676 -0.00113448 0)
(0.0221352 -0.00155018 0)
(0.0216551 -0.00195875 0)
(0.0212013 -0.00235462 0)
(0.020757 -0.00273133 0)
(0.0203129 -0.0030822 0)
(0.0198649 -0.00340108 0)
(0.0194132 -0.00368317 0)
(0.0205051 0.0761209 0)
(0.0405458 0.0319028 0)
(0.0374289 0.0162875 0)
(0.0326597 0.00953567 0)
(0.0290863 0.006073 0)
(0.0266365 0.00402934 0)
(0.0249482 0.00267538 0)
(0.0237465 0.00168981 0)
(0.0228532 0.000916884 0)
(0.022157 0.000277151 0)
(0.0215874 -0.000274049 0)
(0.0210962 -0.000759611 0)
(0.0206502 -0.00119569 0)
(0.0202295 -0.00159088 0)
(0.0198226 -0.0019482 0)
(0.019423 -0.00226878 0)
(0.0190277 -0.00255304 0)
(0.0186363 -0.00280133 0)
(0.00783124 0.0403424 0)
(0.0187494 0.0277984 0)
(0.0226394 0.0184313 0)
(0.0234059 0.0124244 0)
(0.0230831 0.00858299 0)
(0.0224718 0.00603579 0)
(0.0218473 0.00426512 0)
(0.0212864 0.00297369 0)
(0.020797 0.00198894 0)
(0.0203668 0.00120834 0)
(0.0199795 0.000569274 0)
(0.0196225 3.64312e-05 0)
(0.0192866 -0.000417388 0)
(0.0189627 -0.00080708 0)
(0.0186445 -0.00114648 0)
(0.0183299 -0.00144224 0)
(0.0180179 -0.00169917 0)
(0.0177089 -0.00192101 0)
(0.0042594 0.0244418 0)
(0.0111877 0.0201645 0)
(0.0152821 0.0155068 0)
(0.0174024 0.0116317 0)
(0.0184049 0.0086672 0)
(0.0188233 0.00644917 0)
(0.0189451 0.00478339 0)
(0.0189159 0.00351284 0)
(0.0188079 0.00252389 0)
(0.0186559 0.00173755 0)
(0.018477 0.00109965 0)
(0.0182798 0.000573095 0)
(0.0180692 0.000132512 0)
(0.0178494 -0.000237031 0)
(0.0176227 -0.000550198 0)
(0.0173894 -0.000818699 0)
(0.0171516 -0.00104912 0)
(0.0169114 -0.0012466 0)
(0.00292733 0.0171975 0)
(0.00803338 0.0150991 0)
(0.0116551 0.0124014 0)
(0.0140013 0.00983816 0)
(0.0154538 0.00766803 0)
(0.0163302 0.00591721 0)
(0.0168452 0.00452874 0)
(0.0171327 0.00342905 0)
(0.0172737 0.00255201 0)
(0.0173172 0.00184489 0)
(0.0172931 0.00126777 0)
(0.0172205 0.000791125 0)
(0.0171122 0.000393312 0)
(0.0169771 5.87963e-05 0)
(0.0168229 -0.000221664 0)
(0.0166546 -0.000459483 0)
(0.0164752 -0.000662666 0)
(0.0162882 -0.00083632 0)
(0.00226523 0.0126544 0)
(0.00636213 0.0114515 0)
(0.00954544 0.00975929 0)
(0.0118466 0.00801611 0)
(0.0134466 0.00643884 0)
(0.0145359 0.00509783 0)
(0.0152667 0.00399087 0)
(0.0157478 0.00308779 0)
(0.0160537 0.00235228 0)
(0.0162345 0.00175091 0)
(0.0163243 0.00125588 0)
(0.0163468 0.000845211 0)
(0.0163186 0.000501938 0)
(0.0162519 0.000213073 0)
(0.0161564 -3.05311e-05 0)
(0.0160396 -0.000235164 0)
(0.0159067 -0.000409467 0)
(0.0157618 -0.000558337 0)
(0.00188961 0.00949471 0)
(0.00537748 0.00873665 0)
(0.00823014 0.0076123 0)
(0.0104259 0.00639362 0)
(0.0120556 0.00524122 0)
(0.0132392 0.00422525 0)
(0.0140859 0.00336211 0)
(0.0146826 0.00264216 0)
(0.0150942 0.00204606 0)
(0.0153679 0.00155289 0)
(0.0155381 0.00114365 0)
(0.0156297 0.000802412 0)
(0.0156613 0.000516322 0)
(0.0156468 0.000275211 0)
(0.0155967 7.10894e-05 0)
(0.01552 -0.000100692 0)
(0.0154233 -0.00024616 0)
(0.0153112 -0.000370446 0)
(0.00165609 0.00714905 0)
(0.00475054 0.00664463 0)
(0.00736116 0.005871 0)
(0.00944992 0.00500431 0)
(0.0110643 0.00416009 0)
(0.0122841 0.00339689 0)
(0.013191 0.00273508 0)
(0.0138552 0.00217404 0)
(0.0143332 0.00170369 0)
(0.0146684 0.00131092 0)
(0.0148939 0.000982789 0)
(0.0150346 0.000707899 0)
(0.0151096 0.000476705 0)
(0.0151336 0.000281451 0)
(0.0151179 0.000115915 0)
(0.0150719 -2.44263e-05 0)
(0.0150027 -0.000142469 0)
(0.0149158 -0.000243405 0)
(0.00150048 0.00533163 0)
(0.00432588 0.00498731 0)
(0.00675684 0.00444724 0)
(0.00875086 0.00382874 0)
(0.0103331 0.00321403 0)
(0.0115599 0.00264855 0)
(0.0124949 0.00215104 0)
(0.0131969 0.00172432 0)
(0.0137154 0.00136325 0)
(0.0140902 0.00105958 0)
(0.0143527 0.00080453 0)
(0.0145275 0.00059001 0)
(0.0146335 0.000409066 0)
(0.0146856 0.000255928 0)
(0.0146955 0.000125897 0)
(0.0146725 1.51818e-05 0)
(0.0146243 -7.79284e-05 0)
(0.0145569 -0.000157409 0)
(0.00139024 0.00388269 0)
(0.00402124 0.00364744 0)
(0.00631414 0.00327262 0)
(0.00822596 0.00283695 0)
(0.00976972 0.00239795 0)
(0.0109877 0.00198921 0)
(0.0119316 0.00162592 0)
(0.0126522 0.00131169 0)
(0.0131936 0.00104401 0)
(0.0135928 0.000817659 0)
(0.0138795 0.00062675 0)
(0.0140773 0.000465656 0)
(0.0142049 0.000329433 0)
(0.0142773 0.000213913 0)
(0.014306 0.000115662 0)
(0.0143005 3.1873e-05 0)
(0.0142684 -3.89701e-05 0)
(0.0142159 -9.91391e-05 0)
(0.00130675 0.00270555 0)
(0.00378799 0.00254903 0)
(0.00596881 0.00229681 0)
(0.00780713 0.00200066 0)
(0.00930914 0.00169944 0)
(0.0105082 0.00141665 0)
(0.0114484 0.00116351 0)
(0.0121744 0.00094324 0)
(0.0127266 0.000754662 0)
(0.0131392 0.00059456 0)
(0.0134405 0.000459081 0)
(0.0136533 0.000344455 0)
(0.0137957 0.000247314 0)
(0.0138824 0.000164786 0)
(0.0139248 9.44818e-05 0)
(0.0139324 3.44367e-05 0)
(0.0139127 -1.65844e-05 0)
(0.0138719 -5.96796e-05 0)
(0.00123757 0.00173833 0)
(0.00359268 0.00164109 0)
(0.00567441 0.00148308 0)
(0.00744207 0.00129626 0)
(0.00889796 0.00110505 0)
(0.0100698 0.000924513 0)
(0.0109962 0.000762098 0)
(0.0117175 0.000620171 0)
(0.0122709 0.000498223 0)
(0.0126885 0.00039437 0)
(0.0129972 0.00030626 0)
(0.0132187 0.000231546 0)
(0.0133707 0.000168107 0)
(0.0134672 0.000114119 0)
(0.0135196 6.80575e-05 0)
(0.013537 2.86599e-05 0)
(0.0135269 -4.97628e-06 0)
(0.0134953 -3.31711e-05 0)
(0.00117111 0.00094053 0)
(0.00340312 0.000889167 0)
(0.00538356 0.0008052 0)
(0.00707355 0.00070546 0)
(0.00847318 0.000602942 0)
(0.00960624 0.00050578 0)
(0.0105073 0.00041807 0)
(0.0112133 0.000341193 0)
(0.0117586 0.00027496 0)
(0.0121732 0.000218421 0)
(0.0124824 0.000170352 0)
(0.012707 0.000129513 0)
(0.0128637 9.47783e-05 0)
(0.0129662 6.5171e-05 0)
(0.0130252 3.98724e-05 0)
(0.0130498 1.82039e-05 0)
(0.0130469 -3.66821e-07 0)
(0.0130226 -1.56955e-05 0)
(0.00107933 0.00028998 0)
(0.00313839 0.00027437 0)
(0.00496971 0.000248753 0)
(0.00653713 0.000218243 0)
(0.00783954 0.000186808 0)
(0.00889748 0.000156951 0)
(0.00974166 0.000129945 0)
(0.0104052 0.000106231 0)
(0.0109193 8.57655e-05 0)
(0.0113115 6.8269e-05 0)
(0.0116048 5.33722e-05 0)
(0.0118186 4.06996e-05 0)
(0.0119683 2.99075e-05 0)
(0.0120666 2.06977e-05 0)
(0.0121236 1.28194e-05 0)
(0.0121478 6.06436e-06 0)
(0.0121457 2.64307e-07 0)
(0.0121234 -4.4268e-06 0)
(1.18271e-33 -2.68964e-33 -3.47488e-59)
(3.55496e-33 -2.68017e-33 3.45985e-59)
(5.93359e-33 -2.66203e-33 0)
(8.31009e-33 -2.63485e-33 0)
(1.06755e-32 -2.59851e-33 0)
(1.30208e-32 -2.55339e-33 -3.28481e-59)
(1.53372e-32 -2.50037e-33 0)
(1.76171e-32 -2.44068e-33 0)
(1.98538e-32 -2.37586e-33 0)
(2.20419e-32 -2.3074e-33 0)
(2.41775e-32 -2.23632e-33 2.86183e-59)
(2.6257e-32 -2.16305e-33 0)
(2.82772e-32 -2.08768e-33 0)
(3.02349e-32 -2.01028e-33 0)
(3.21268e-32 -1.93116e-33 0)
(3.39503e-32 -1.85077e-33 2.35198e-59)
(3.57029e-32 -1.76954e-33 0)
(3.73826e-32 -1.68773e-33 0)
(3.89875e-32 -1.60546e-33 0)
(4.05158e-32 -1.52276e-33 0)
(4.19657e-32 -1.43974e-33 0)
(4.33355e-32 -1.35657e-33 0)
(4.46239e-32 -1.27358e-33 0)
(4.58298e-32 -1.19118e-33 1.48547e-59)
(4.69528e-32 -1.10992e-33 -1.37911e-59)
(4.79931e-32 -1.03038e-33 1.27508e-59)
(4.89515e-32 -9.5319e-34 1.17418e-59)
(4.98297e-32 -8.78965e-34 0)
(5.06301e-32 -8.08257e-34 0)
(5.13559e-32 -7.41526e-34 -8.97775e-60)
(5.20107e-32 -6.79117e-34 -8.16342e-60)
(5.25985e-32 -6.21249e-34 0)
(5.31239e-32 -5.68016e-34 0)
(5.35913e-32 -5.19399e-34 -6.08045e-60)
(5.40054e-32 -4.75288e-34 0)
(5.43708e-32 -4.35497e-34 0)
(5.46918e-32 -3.99789e-34 4.52153e-60)
(5.49729e-32 -3.6789e-34 0)
(5.52178e-32 -3.3951e-34 3.73623e-60)
(5.54303e-32 -3.14352e-34 6.81713e-60)
(5.56139e-32 -2.92123e-34 0)
(5.57717e-32 -2.72539e-34 0)
(5.59066e-32 -2.55335e-34 0)
(5.60212e-32 -2.4026e-34 0)
(5.61177e-32 -2.27084e-34 0)
(5.61984e-32 -2.15597e-34 4.24623e-60)
(5.62652e-32 -2.05607e-34 3.98646e-60)
(5.63196e-32 -1.96944e-34 3.76122e-60)
(5.63634e-32 -1.89451e-34 0)
(5.63977e-32 -1.82991e-34 -3.39871e-60)
(5.64239e-32 -1.7744e-34 0)
(5.6443e-32 -1.72688e-34 3.1313e-60)
(5.64559e-32 -1.68637e-34 3.02626e-60)
(5.64635e-32 -1.652e-34 0)
(5.64666e-32 -1.62302e-34 0)
(5.64658e-32 -1.59874e-34 0)
(5.64616e-32 -1.57856e-34 2.74747e-60)
(5.64547e-32 -1.56195e-34 0)
(5.64455e-32 -1.54844e-34 0)
(5.64343e-32 -1.53762e-34 0)
(5.64216e-32 -1.52913e-34 0)
(5.64076e-32 -1.52264e-34 0)
(5.63926e-32 -1.51788e-34 0)
(5.63768e-32 -1.51459e-34 0)
(5.63605e-32 -1.51257e-34 0)
(5.63438e-32 -1.51161e-34 -2.57717e-60)
(5.63269e-32 -1.51154e-34 0)
(5.63098e-32 -1.51224e-34 0)
(5.62928e-32 -1.51356e-34 2.58344e-60)
(5.6276e-32 -1.5154e-34 2.58855e-60)
(5.62593e-32 -1.51765e-34 0)
(5.62429e-32 -1.52024e-34 -2.60189e-60)
(5.62268e-32 -1.5231e-34 2.60963e-60)
(5.62111e-32 -1.52615e-34 0)
(5.61957e-32 -1.52935e-34 -2.62653e-60)
(5.61809e-32 -1.53265e-34 0)
(5.61664e-32 -1.53602e-34 0)
(5.61525e-32 -1.53941e-34 2.65357e-60)
(5.6139e-32 -1.5428e-34 0)
(5.6126e-32 -1.54617e-34 -2.67167e-60)
(5.61136e-32 -1.5495e-34 0)
(5.61016e-32 -1.55277e-34 2.68928e-60)
(5.60901e-32 -1.55596e-34 2.69782e-60)
(5.60791e-32 -1.55908e-34 2.70613e-60)
(5.60686e-32 -1.5621e-34 5.42841e-60)
(5.60586e-32 -1.56503e-34 -5.444e-60)
(5.6049e-32 -1.56786e-34 0)
(5.60399e-32 -1.57058e-34 0)
(5.60312e-32 -1.57319e-34 0)
(5.6023e-32 -1.5757e-34 -5.50084e-60)
(5.60151e-32 -1.57809e-34 -5.51359e-60)
(5.60077e-32 -1.58038e-34 5.52579e-60)
(5.60006e-32 -1.58257e-34 0)
(5.5994e-32 -1.58465e-34 -5.54849e-60)
(5.59876e-32 -1.58663e-34 -5.55899e-60)
(5.59817e-32 -1.5885e-34 -5.56898e-60)
(5.5976e-32 -1.59028e-34 0)
(5.59707e-32 -1.59197e-34 0)
(5.59657e-32 -1.59357e-34 0)
(5.59609e-32 -1.59507e-34 -5.60393e-60)
(5.59565e-32 -1.5965e-34 0)
(5.59523e-32 -1.59784e-34 0)
(5.59483e-32 -1.5991e-34 5.62539e-60)
(5.59446e-32 -1.6003e-34 0)
(5.59411e-32 -1.60141e-34 0)
(5.59378e-32 -1.60247e-34 5.64325e-60)
(5.59348e-32 -1.60345e-34 0)
(5.59319e-32 -1.60438e-34 0)
(5.59292e-32 -1.60525e-34 -5.65804e-60)
(5.59267e-32 -1.60606e-34 -5.66236e-60)
(5.59243e-32 -1.60682e-34 0)
(5.59221e-32 -1.60753e-34 5.67016e-60)
(5.592e-32 -1.60819e-34 0)
(5.59181e-32 -1.60881e-34 -5.67699e-60)
(5.59163e-32 -1.60939e-34 0)
(5.59147e-32 -1.60993e-34 -5.68291e-60)
(5.59131e-32 -1.61043e-34 -5.6856e-60)
(5.59117e-32 -1.6109e-34 0)
(5.59103e-32 -1.61133e-34 0)
(5.59091e-32 -1.61173e-34 0)
(5.59079e-32 -1.61211e-34 0)
(5.59068e-32 -1.61245e-34 0)
(5.59058e-32 -1.61277e-34 0)
(5.59049e-32 -1.61307e-34 0)
(5.5904e-32 -1.61334e-34 -5.70107e-60)
(5.59032e-32 -1.6136e-34 5.70245e-60)
(5.59025e-32 -1.61383e-34 0)
(5.59018e-32 -1.61405e-34 0)
(5.59012e-32 -1.61425e-34 0)
(5.59006e-32 -1.61443e-34 0)
(5.59e-32 -1.6146e-34 1.14155e-59)
(5.58995e-32 -1.61475e-34 0)
(5.58991e-32 -1.61489e-34 -1.14186e-59)
(5.58986e-32 -1.61501e-34 1.14199e-59)
(5.58982e-32 -1.61513e-34 0)
(5.58979e-32 -1.61523e-34 0)
(5.58975e-32 -1.61532e-34 0)
(5.58972e-32 -1.6154e-34 -1.14241e-59)
(5.58969e-32 -1.61547e-34 -1.14248e-59)
(5.58966e-32 -1.61553e-34 0)
(5.58963e-32 -1.61557e-34 -1.14259e-59)
(5.58961e-32 -1.6156e-34 -1.14263e-59)
(5.58958e-32 -1.61562e-34 1.14265e-59)
(5.58956e-32 -1.61563e-34 0)
(5.58953e-32 -1.61562e-34 0)
(5.5895e-32 -1.61559e-34 1.14262e-59)
(5.58947e-32 -1.61554e-34 0)
(5.58944e-32 -1.61546e-34 0)
(5.58941e-32 -1.61535e-34 0)
(5.58937e-32 -1.6152e-34 0)
(5.58933e-32 -1.61501e-34 -1.14204e-59)
(5.58927e-32 -1.61477e-34 -1.14179e-59)
(5.58921e-32 -1.61445e-34 0)
(5.58913e-32 -1.61405e-34 -1.14107e-59)
(5.58904e-32 -1.61354e-34 0)
(5.58893e-32 -1.6129e-34 0)
(5.58879e-32 -1.61209e-34 -1.13908e-59)
(5.58861e-32 -1.61107e-34 0)
(5.58839e-32 -1.60979e-34 -1.13673e-59)
(5.58812e-32 -1.60816e-34 0)
(5.58777e-32 -1.60611e-34 0)
(5.58733e-32 -1.6035e-34 -1.13033e-59)
(5.58678e-32 -1.6002e-34 0)
(5.58608e-32 -1.59598e-34 -1.12267e-59)
(5.58518e-32 -1.5906e-34 0)
(5.58404e-32 -1.58369e-34 0)
(5.58257e-32 -1.57479e-34 0)
(5.58069e-32 -1.56326e-34 1.08935e-59)
(5.57825e-32 -1.54824e-34 0)
(5.57508e-32 -1.5285e-34 -1.05393e-59)
(5.57094e-32 -1.50229e-34 0)
(5.5655e-32 -1.46705e-34 0)
(5.55825e-32 -1.41884e-34 0)
(5.5485e-32 -1.35138e-34 0)
(5.53514e-32 -1.25393e-34 0)
(5.51639e-32 -1.10655e-34 0)
(5.48907e-32 -8.67614e-35 0)
(5.44674e-32 -4.33827e-35 -1.31617e-60)
(5.37313e-32 5.25934e-35 0)
(5.20999e-32 3.53537e-34 0)
(1.20051e-33 -7.78368e-33 1.00559e-58)
(3.60873e-33 -7.75578e-33 -1.00113e-58)
(6.02414e-33 -7.702e-33 0)
(8.43785e-33 -7.62016e-33 1.96578e-58)
(1.08393e-32 -7.5085e-33 0)
(1.32175e-32 -7.36873e-33 -9.50825e-59)
(1.55621e-32 -7.2038e-33 -1.85479e-58)
(1.7864e-32 -7.01788e-33 -1.80564e-58)
(2.01163e-32 -6.81705e-33 0)
(2.23148e-32 -6.60734e-33 -1.69742e-58)
(2.44577e-32 -6.39223e-33 8.23288e-59)
(2.65435e-32 -6.17198e-33 0)
(2.85694e-32 -5.94536e-33 0)
(3.0532e-32 -5.71193e-33 0)
(3.24273e-32 -5.47282e-33 0)
(3.42524e-32 -5.23007e-33 6.71927e-59)
(3.60053e-32 -4.9854e-33 0)
(3.76846e-32 -4.73959e-33 1.20736e-58)
(3.92888e-32 -4.49262e-33 0)
(4.08161e-32 -4.24425e-33 0)
(4.22646e-32 -3.99456e-33 -1.01261e-58)
(4.36321e-32 -3.74407e-33 0)
(4.49168e-32 -3.49377e-33 8.81908e-59)
(4.61174e-32 -3.24502e-33 4.13964e-59)
(4.72331e-32 -2.99951e-33 -3.82101e-59)
(4.82641e-32 -2.75915e-33 3.50915e-59)
(4.92112e-32 -2.52597e-33 3.20664e-59)
(5.00764e-32 -2.30191e-33 0)
(5.08622e-32 -2.08872e-33 0)
(5.15722e-32 -1.88784e-33 -2.37909e-59)
(5.22105e-32 -1.70031e-33 -6.28462e-59)
(5.27816e-32 -1.52676e-33 0)
(5.32904e-32 -1.36741e-33 0)
(5.37416e-32 -1.22216e-33 -1.51616e-59)
(5.41403e-32 -1.09059e-33 0)
(5.44912e-32 -9.72103e-34 0)
(5.47988e-32 -8.65914e-34 1.05448e-59)
(5.50674e-32 -7.71167e-34 0)
(5.53011e-32 -6.86958e-34 2.33721e-59)
(5.55035e-32 -6.12372e-34 1.4519e-59)
(5.56779e-32 -5.46516e-34 0)
(5.58276e-32 -4.88534e-34 0)
(5.59552e-32 -4.37619e-34 -1.73401e-59)
(5.60633e-32 -3.93024e-34 -1.50244e-59)
(5.61542e-32 -3.54061e-34 -1.30015e-59)
(5.623e-32 -3.20101e-34 1.81855e-59)
(5.62923e-32 -2.90578e-34 6.18225e-60)
(5.6343e-32 -2.64979e-34 -2.85885e-60)
(5.63834e-32 -2.42844e-34 7.23006e-60)
(5.64148e-32 -2.23764e-34 -4.45226e-60)
(5.64384e-32 -2.07373e-34 0)
(5.64553e-32 -1.93345e-34 3.66499e-60)
(5.64663e-32 -1.81391e-34 7.40087e-60)
(5.64723e-32 -1.71255e-34 0)
(5.64739e-32 -1.62711e-34 0)
(5.64718e-32 -1.55556e-34 0)
(5.64666e-32 -1.49615e-34 2.53434e-60)
(5.64588e-32 -1.4473e-34 0)
(5.64487e-32 -1.40762e-34 1.94638e-60)
(5.64369e-32 -1.3759e-34 0)
(5.64235e-32 -1.35106e-34 1.65633e-60)
(5.6409e-32 -1.33214e-34 0)
(5.63936e-32 -1.31833e-34 -1.48994e-60)
(5.63775e-32 -1.30887e-34 0)
(5.63609e-32 -1.30313e-34 1.41446e-60)
(5.63439e-32 -1.30055e-34 -3.43432e-60)
(5.63268e-32 -1.30062e-34 0)
(5.63096e-32 -1.30292e-34 -1.41824e-60)
(5.62925e-32 -1.30707e-34 2.04967e-60)
(5.62755e-32 -1.31273e-34 2.06469e-60)
(5.62587e-32 -1.31963e-34 0)
(5.62422e-32 -1.32751e-34 -3.65544e-60)
(5.62261e-32 -1.33617e-34 2.12645e-60)
(5.62103e-32 -1.34541e-34 0)
(5.6195e-32 -1.35508e-34 -2.17606e-60)
(5.61801e-32 -1.36504e-34 -1.75159e-60)
(5.61657e-32 -1.37517e-34 0)
(5.61517e-32 -1.38539e-34 2.25545e-60)
(5.61383e-32 -1.39559e-34 0)
(5.61253e-32 -1.40573e-34 -3.41542e-61)
(5.61129e-32 -1.41572e-34 0)
(5.61009e-32 -1.42554e-34 2.88568e-61)
(5.60894e-32 -1.43514e-34 2.38553e-60)
(5.60785e-32 -1.44449e-34 4.58192e-60)
(5.6068e-32 -1.45357e-34 9.3071e-60)
(5.6058e-32 -1.46235e-34 -9.44562e-60)
(5.60484e-32 -1.47083e-34 0)
(5.60393e-32 -1.47899e-34 0)
(5.60307e-32 -1.48683e-34 0)
(5.60225e-32 -1.49435e-34 -2.10343e-61)
(5.60147e-32 -1.50154e-34 -5.11782e-60)
(5.60072e-32 -1.5084e-34 5.15368e-60)
(5.60002e-32 -1.51495e-34 0)
(5.59936e-32 -1.52119e-34 -1.03734e-59)
(5.59873e-32 -1.52711e-34 -5.25134e-60)
(5.59813e-32 -1.53274e-34 -5.28072e-60)
(5.59757e-32 -1.53808e-34 0)
(5.59704e-32 -1.54313e-34 0)
(5.59654e-32 -1.54792e-34 0)
(5.59607e-32 -1.55244e-34 -5.38351e-60)
(5.59562e-32 -1.5567e-34 0)
(5.5952e-32 -1.56072e-34 -5.56963e-60)
(5.59481e-32 -1.56451e-34 -1.6297e-61)
(5.59444e-32 -1.56808e-34 5.6471e-60)
(5.59409e-32 -1.57144e-34 0)
(5.59377e-32 -1.57459e-34 1.12148e-59)
(5.59346e-32 -1.57755e-34 0)
(5.59317e-32 -1.58032e-34 5.77603e-60)
(5.5929e-32 -1.58292e-34 -1.13461e-59)
(5.59265e-32 -1.58535e-34 -1.13844e-59)
(5.59242e-32 -1.58763e-34 0)
(5.5922e-32 -1.58976e-34 -2.97191e-61)
(5.59199e-32 -1.59175e-34 5.89646e-60)
(5.5918e-32 -1.5936e-34 -5.59836e-60)
(5.59162e-32 -1.59533e-34 0)
(5.59146e-32 -1.59695e-34 -5.61579e-60)
(5.5913e-32 -1.59845e-34 3.43325e-61)
(5.59116e-32 -1.59984e-34 0)
(5.59102e-32 -1.60114e-34 5.9954e-60)
(5.5909e-32 -1.60235e-34 6.00808e-60)
(5.59078e-32 -1.60347e-34 6.01988e-60)
(5.59068e-32 -1.6045e-34 0)
(5.59058e-32 -1.60547e-34 0)
(5.59048e-32 -1.60636e-34 0)
(5.5904e-32 -1.60718e-34 -1.17282e-59)
(5.59032e-32 -1.60794e-34 5.67319e-60)
(5.59024e-32 -1.60864e-34 0)
(5.59018e-32 -1.60929e-34 -6.08122e-60)
(5.59011e-32 -1.60988e-34 -6.08747e-60)
(5.59005e-32 -1.61043e-34 0)
(5.59e-32 -1.61093e-34 1.13776e-59)
(5.58995e-32 -1.61139e-34 -1.22067e-59)
(5.5899e-32 -1.6118e-34 -1.13867e-59)
(5.58986e-32 -1.61218e-34 2.36142e-59)
(5.58982e-32 -1.61252e-34 0)
(5.58978e-32 -1.61283e-34 0)
(5.58975e-32 -1.6131e-34 0)
(5.58972e-32 -1.61334e-34 -1.14028e-59)
(5.58969e-32 -1.61355e-34 -2.36573e-59)
(5.58966e-32 -1.61372e-34 -1.2256e-59)
(5.58963e-32 -1.61385e-34 -1.14082e-59)
(5.58961e-32 -1.61395e-34 -2.36703e-59)
(5.58958e-32 -1.61401e-34 1.14098e-59)
(5.58956e-32 -1.61403e-34 0)
(5.58953e-32 -1.61399e-34 0)
(5.5895e-32 -1.6139e-34 2.36692e-59)
(5.58947e-32 -1.61375e-34 0)
(5.58944e-32 -1.61352e-34 0)
(5.58941e-32 -1.6132e-34 -1.22461e-59)
(5.58937e-32 -1.61276e-34 0)
(5.58933e-32 -1.61219e-34 -2.3617e-59)
(5.58928e-32 -1.61146e-34 -1.13837e-59)
(5.58921e-32 -1.61051e-34 0)
(5.58914e-32 -1.60932e-34 -2.35287e-59)
(5.58905e-32 -1.6078e-34 0)
(5.58893e-32 -1.60589e-34 0)
(5.5888e-32 -1.60348e-34 -1.13017e-59)
(5.58862e-32 -1.60044e-34 -1.19853e-59)
(5.58841e-32 -1.5966e-34 -1.12309e-59)
(5.58814e-32 -1.59175e-34 0)
(5.58779e-32 -1.58561e-34 0)
(5.58736e-32 -1.57784e-34 -2.25607e-59)
(5.58682e-32 -1.56797e-34 0)
(5.58613e-32 -1.55539e-34 -2.18701e-59)
(5.58525e-32 -1.53932e-34 0)
(5.58412e-32 -1.51871e-34 0)
(5.58268e-32 -1.49216e-34 0)
(5.58082e-32 -1.45779e-34 9.80282e-60)
(5.57842e-32 -1.413e-34 0)
(5.57531e-32 -1.35416e-34 -8.7365e-60)
(5.57124e-32 -1.27611e-34 0)
(5.5659e-32 -1.17124e-34 0)
(5.55881e-32 -1.02798e-34 -2.59872e-61)
(5.54928e-32 -8.27896e-35 -3.84185e-60)
(5.53629e-32 -5.39742e-35 0)
(5.51819e-32 -1.06281e-35 0)
(5.49217e-32 5.89298e-35 0)
(5.45307e-32 1.82344e-34 6.86061e-59)
(5.39096e-32 4.39787e-34 0)
(5.29295e-32 1.13331e-33 -5.08715e-58)
(1.23495e-33 -1.29894e-32 6.7139e-58)
(3.71365e-33 -1.29463e-32 -8.83722e-62)
(6.20428e-33 -1.28637e-32 0)
(8.69922e-33 -1.27322e-32 2.06067e-61)
(1.11813e-32 -1.25349e-32 0)
(1.36319e-32 -1.22855e-32 0)
(1.60375e-32 -1.19891e-32 -6.17927e-58)
(1.83844e-32 -1.16505e-32 -3.00289e-58)
(2.06628e-32 -1.12882e-32 2.90329e-58)
(2.2873e-32 -1.09228e-32 -2.81268e-58)
(2.50228e-32 -1.05622e-32 0)
(2.71181e-32 -1.01993e-32 0)
(2.91571e-32 -9.82272e-33 -2.51845e-58)
(3.11318e-32 -9.42858e-33 -4.83034e-58)
(3.30346e-32 -9.02178e-33 4.61734e-58)
(3.48615e-32 -8.61031e-33 0)
(3.66127e-32 -8.19946e-33 4.18714e-58)
(3.82896e-32 -7.78974e-33 1.99552e-58)
(3.98922e-32 -7.37882e-33 0)
(4.14185e-32 -6.96457e-33 3.54191e-58)
(4.28652e-32 -6.54649e-33 -1.67198e-58)
(4.42292e-32 -6.12557e-33 -3.10418e-58)
(4.55076e-32 -5.70374e-33 1.45289e-58)
(4.66983e-32 -5.28357e-33 0)
(4.77998e-32 -4.86826e-33 2.44911e-58)
(4.88121e-32 -4.46148e-33 2.23738e-58)
(4.97361e-32 -4.06708e-33 0)
(5.0574e-32 -3.68876e-33 1.8354e-58)
(5.13294e-32 -3.32979e-33 0)
(5.20066e-32 -2.9927e-33 1.47351e-58)
(5.26107e-32 -2.67924e-33 -6.67723e-59)
(5.31472e-32 -2.39032e-33 0)
(5.36219e-32 -2.12612e-33 0)
(5.40402e-32 -1.88621e-33 0)
(5.44076e-32 -1.66967e-33 0)
(5.47292e-32 -1.47526e-33 0)
(5.50098e-32 -1.30151e-33 0)
(5.52537e-32 -1.14685e-33 5.14635e-59)
(5.54649e-32 -1.00966e-33 -2.08609e-59)
(5.56471e-32 -8.88344e-34 0)
(5.58035e-32 -7.81375e-34 0)
(5.59371e-32 -6.87301e-34 0)
(5.60505e-32 -6.04771e-34 -4.92985e-59)
(5.6146e-32 -5.32539e-34 -2.22293e-59)
(5.62258e-32 -4.6947e-34 -2.65496e-60)
(5.62917e-32 -4.1453e-34 2.65804e-60)
(5.63455e-32 -3.66791e-34 -1.0981e-59)
(5.63886e-32 -3.25416e-34 -1.14984e-59)
(5.64225e-32 -2.89657e-34 1.66288e-59)
(5.64482e-32 -2.58847e-34 5.38586e-60)
(5.64668e-32 -2.32393e-34 0)
(5.64793e-32 -2.09767e-34 2.84402e-60)
(5.64866e-32 -1.90499e-34 6.36108e-60)
(5.64893e-32 -1.74177e-34 0)
(5.64881e-32 -1.60431e-34 0)
(5.64835e-32 -1.48936e-34 3.01388e-61)
(5.64762e-32 -1.39407e-34 0)
(5.64666e-32 -1.31587e-34 0)
(5.6455e-32 -1.25253e-34 -1.89954e-60)
(5.64418e-32 -1.20207e-34 -3.56144e-60)
(5.64273e-32 -1.16275e-34 6.82444e-61)
(5.64118e-32 -1.13302e-34 0)
(5.63956e-32 -1.11154e-34 -4.20695e-61)
(5.63788e-32 -1.09711e-34 0)
(5.63616e-32 -1.08869e-34 -4.40528e-60)
(5.63442e-32 -1.08536e-34 -2.90211e-61)
(5.63266e-32 -1.08632e-34 4.72572e-60)
(5.63091e-32 -1.09086e-34 4.35174e-60)
(5.62917e-32 -1.09838e-34 0)
(5.62745e-32 -1.10834e-34 -4.48329e-60)
(5.62576e-32 -1.12027e-34 0)
(5.6241e-32 -1.13378e-34 -4.76092e-60)
(5.62247e-32 -1.14851e-34 -4.05381e-60)
(5.62089e-32 -1.16417e-34 -3.88736e-60)
(5.61935e-32 -1.1805e-34 3.71423e-60)
(5.61786e-32 -1.19727e-34 -4.42092e-60)
(5.61642e-32 -1.21431e-34 0)
(5.61502e-32 -1.23145e-34 0)
(5.61368e-32 -1.24856e-34 2.99441e-60)
(5.61239e-32 -1.26552e-34 4.05778e-60)
(5.61114e-32 -1.28224e-34 0)
(5.60995e-32 -1.29865e-34 -1.41596e-60)
(5.60881e-32 -1.31468e-34 0)
(5.60772e-32 -1.33029e-34 3.71412e-60)
(5.60667e-32 -1.34543e-34 1.34888e-60)
(5.60568e-32 -1.36007e-34 -1.65637e-60)
(5.60473e-32 -1.3742e-34 -1.66992e-60)
(5.60383e-32 -1.3878e-34 0)
(5.60297e-32 -1.40086e-34 1.38934e-60)
(5.60215e-32 -1.41337e-34 2.77536e-60)
(5.60137e-32 -1.42535e-34 0)