/*--------------------------------*- C++ -*----------------------------------*\
  =========                 |
  \\      /  F ield         | OpenFOAM: The Open Source CFD Toolbox
   \\    /   O peration     | Website:  https://openfoam.org
    \\  /    A nd           | Version:  10
     \\/     M anipulation  |
\*---------------------------------------------------------------------------*/
FoamFile
{
    format      ascii;
    class       volVectorField;
    location    "2.5";
    object      Ua;
}
// * * * * * * * * * * * * * * * * * * * * * * * * * * * * * * * * * * * * * //

dimensions      [0 1 -1 0 0 0 0];

internalField   nonuniform List<vector> 
12225
(
(-2.49126e-06 5.01831e-07 0)
(-8.10371e-06 6.54883e-07 0)
(-1.57103e-05 9.80295e-07 0)
(-2.6917e-05 1.53007e-06 0)
(-4.37118e-05 2.38865e-06 0)
(-6.8666e-05 3.67531e-06 0)
(-0.000105105 5.54629e-06 0)
(-0.000157242 8.1941e-06 0)
(-0.000230245 1.18419e-05 0)
(-0.000330219 1.67319e-05 0)
(-0.000464087 2.31126e-05 0)
(-0.00063945 3.12425e-05 0)
(-0.000864675 4.14598e-05 0)
(-0.00114995 5.44473e-05 0)
(-0.00151125 7.20889e-05 0)
(-0.00198408 0.000100481 0)
(-0.00267808 0.000163762 0)
(-0.00408171 0.000394907 0)
(-2.45868e-06 1.53447e-06 0)
(-7.99895e-06 2.00275e-06 0)
(-1.55111e-05 2.9984e-06 0)
(-2.65834e-05 4.68059e-06 0)
(-4.31827e-05 7.30793e-06 0)
(-6.7855e-05 1.12458e-05 0)
(-0.000103897 1.69731e-05 0)
(-0.000155488 2.50805e-05 0)
(-0.000227769 3.62531e-05 0)
(-0.000326815 5.1235e-05 0)
(-0.000459524 7.07883e-05 0)
(-0.00063344 9.56981e-05 0)
(-0.000856758 0.000126966 0)
(-0.00113905 0.000166564 0)
(-0.00149417 0.000219792 0)
(-0.00194854 0.000303029 0)
(-0.00255875 0.000474162 0)
(-0.00336418 0.000984847 0)
(-2.38674e-06 2.61755e-06 0)
(-7.7677e-06 3.4174e-06 0)
(-1.50715e-05 5.11812e-06 0)
(-2.58469e-05 7.99186e-06 0)
(-4.20144e-05 1.24811e-05 0)
(-6.60638e-05 1.92116e-05 0)
(-0.000101226 2.90048e-05 0)
(-0.000151613 4.28755e-05 0)
(-0.000222293 6.20031e-05 0)
(-0.000319285 8.76699e-05 0)
(-0.000449428 0.000121184 0)
(-0.000620161 0.000163868 0)
(-0.00083933 0.000217322 0)
(-0.00111535 0.00028451 0)
(-0.00145823 0.000373026 0)
(-0.00188102 0.000504583 0)
(-0.00239089 0.000743702 0)
(-0.00288601 0.001281 0)
(-2.26821e-06 3.73233e-06 0)
(-7.38665e-06 4.87533e-06 0)
(-1.43469e-05 7.30588e-06 0)
(-2.46328e-05 1.14136e-05 0)
(-4.0088e-05 1.78325e-05 0)
(-6.3109e-05 2.74609e-05 0)
(-9.68186e-05 4.14805e-05 0)
(-0.00014521 6.13557e-05 0)
(-0.00021324 8.87939e-05 0)
(-0.000306826 0.000125656 0)
(-0.000432723 0.00017383 0)
(-0.000598226 0.00023517 0)
(-0.000810731 0.000311736 0)
(-0.00107717 0.000406945 0)
(-0.00140303 0.000528919 0)
(-0.00178864 0.000698823 0)
(-0.00221067 0.000968869 0)
(-0.00254849 0.00144315 0)
(-2.09563e-06 4.85185e-06 0)
(-6.83179e-06 6.34264e-06 0)
(-1.32916e-05 9.51314e-06 0)
(-2.28642e-05 1.48727e-05 0)
(-3.72801e-05 2.32517e-05 0)
(-5.87988e-05 3.58293e-05 0)
(-9.03827e-05 5.41624e-05 0)
(-0.00013585 8.01881e-05 0)
(-0.000199986 0.000116177 0)
(-0.000288564 0.000164613 0)
(-0.000408227 0.000228008 0)
(-0.000566132 0.000308736 0)
(-0.000769244 0.00040913 0)
(-0.00102306 0.000532383 0)
(-0.00132905 0.00068521 0)
(-0.00167835 0.000883453 0)
(-0.00203463 0.00115934 0)
(-0.00229767 0.00155213 0)
(-1.86177e-06 5.93923e-06 0)
(-6.07983e-06 7.77287e-06 0)
(-1.18611e-05 1.16731e-05 0)
(-2.04657e-05 1.82685e-05 0)
(-3.34695e-05 2.85857e-05 0)
(-5.29433e-05 4.40884e-05 0)
(-8.16267e-05 6.67171e-05 0)
(-0.000123093 9.89023e-05 0)
(-0.000181884 0.000143513 0)
(-0.000263574 0.00020371 0)
(-0.000374676 0.000282685 0)
(-0.000522262 0.000383348 0)
(-0.000713058 0.00050813 0)
(-0.000951619 0.000659349 0)
(-0.00123682 0.000840678 0)
(-0.00155511 0.0010598 0)
(-0.00186853 0.00132893 0)
(-0.00210297 0.0016489 0)
(-1.56029e-06 6.94599e-06 0)
(-5.11034e-06 9.10485e-06 0)
(-1.00163e-05 1.36977e-05 0)
(-1.73708e-05 2.14675e-05 0)
(-2.85478e-05 3.36314e-05 0)
(-4.53695e-05 5.19323e-05 0)
(-7.02791e-05 7.8696e-05 0)
(-0.000106519 0.000116859 0)
(-0.000158298 0.000169923 0)
(-0.000230917 0.00024179 0)
(-0.000330742 0.000336425 0)
(-0.000464872 0.000457341 0)
(-0.000640165 0.000607014 0)
(-0.000861147 0.00078645 0)
(-0.00112613 0.000995253 0)
(-0.00142104 0.00123191 0)
(-0.00171217 0.00149176 0)
(-0.00194602 0.00175565 0)
(-1.18669e-06 7.8107e-06 0)
(-3.90879e-06 1.0261e-05 0)
(-7.72905e-06 1.54749e-05 0)
(-1.3531e-05 2.42996e-05 0)
(-2.2434e-05 3.8128e-05 0)
(-3.5944e-05 5.89666e-05 0)
(-5.61211e-05 8.95148e-05 0)
(-8.57711e-05 0.000133217 0)
(-0.000128657 0.000194237 0)
(-0.000189698 0.000277297 0)
(-0.000275081 0.000387268 0)
(-0.000392073 0.000528464 0)
(-0.000548192 0.000703562 0)
(-0.000749166 0.000912255 0)
(-0.000995112 0.00114982 0)
(-0.00127498 0.00140571 0)
(-0.00156165 0.00166152 0)
(-0.00181476 0.00188727 0)
(-7.39575e-07 8.45841e-06 0)
(-2.47057e-06 1.11465e-05 0)
(-4.99028e-06 1.68677e-05 0)
(-8.9293e-06 2.65557e-05 0)
(-1.50965e-05 4.17535e-05 0)
(-2.46057e-05 6.47001e-05 0)
(-3.90342e-05 9.84383e-05 0)
(-6.06243e-05 0.000146902 0)
(-9.25386e-05 0.000214938 0)
(-0.000139165 0.000308168 0)
(-0.000206413 0.000432576 0)
(-0.000301833 0.000593628 0)
(-0.000434182 0.00079473 0)
(-0.00061183 0.00103489 0)
(-0.000839288 0.0013057 0)
(-0.00111178 0.00158834 0)
(-0.00140994 0.0018522 0)
(-0.00170024 0.00205795 0)
(-2.22261e-07 8.80134e-06 0)
(-8.06327e-07 1.16504e-05 0)
(-1.81982e-06 1.7715e-05 0)
(-3.59753e-06 2.79896e-05 0)
(-6.58011e-06 4.41259e-05 0)
(-1.14089e-05 6.85438e-05 0)
(-1.90662e-05 0.000104574 0)
(-3.10776e-05 0.000156591 0)
(-4.98054e-05 0.00023011 0)
(-7.88679e-05 0.000331734 0)
(-0.000123684 0.000468814 0)
(-0.000192046 0.000648529 0)
(-0.00029441 0.00087602 0)
(-0.000443234 0.00115112 0)
(-0.000650297 0.00146355 0)
(-0.000920948 0.00178762 0)
(-0.00124577 0.00207985 0)
(-0.00159425 0.00228643 0)
(3.55272e-07 8.74176e-06 0)
(1.05183e-06 1.16488e-05 0)
(1.72119e-06 1.78374e-05 0)
(2.36265e-06 2.83252e-05 0)
(2.9581e-06 4.48136e-05 0)
(3.42001e-06 6.98249e-05 0)
(3.48111e-06 0.000106884 0)
(2.51006e-06 0.000160712 0)
(-7.96775e-07 0.000237419 0)
(-8.932e-06 0.000344619 0)
(-2.639e-05 0.000491293 0)
(-6.08195e-05 0.000687076 0)
(-0.000124384 0.000940402 0)
(-0.000234732 0.00125464 0)
(-0.000414072 0.00162134 0)
(-0.00068358 0.00201096 0)
(-0.00105009 0.00236518 0)
(-0.00148667 0.00260298 0)
(9.22982e-07 8.26387e-06 0)
(2.87837e-06 1.11156e-05 0)
(5.2024e-06 1.71857e-05 0)
(8.22603e-06 2.74726e-05 0)
(1.23592e-05 4.36547e-05 0)
(1.809e-05 6.82553e-05 0)
(2.59154e-05 0.000104862 0)
(3.62004e-05 0.000158375 0)
(4.89019e-05 0.000235315 0)
(6.30238e-05 0.000344149 0)
(7.56174e-05 0.000495491 0)
(8.00892e-05 0.000701886 0)
(6.36154e-05 0.000976494 0)
(3.84685e-06 0.00132941 0)
(-0.000133625 0.00175956 0)
(-0.000392572 0.00224026 0)
(-0.000809079 0.0026999 0)
(-0.00137072 0.0030135 0)
(1.49711e-06 7.2672e-06 0)
(4.72531e-06 9.92832e-06 0)
(8.72171e-06 1.55908e-05 0)
(1.41539e-05 2.51803e-05 0)
(2.18759e-05 4.02588e-05 0)
(3.2989e-05 6.32195e-05 0)
(4.88244e-05 9.75413e-05 0)
(7.08737e-05 0.00014807 0)
(0.000100606 0.00022145 0)
(0.000138995 0.0003267 0)
(0.000185484 0.000475897 0)
(0.000235942 0.00068482 0)
(0.00027892 0.000973021 0)
(0.000289497 0.00136191 0)
(0.000220953 0.00186758 0)
(-1.27876e-06 0.002482 0)
(-0.000467298 0.00313378 0)
(-0.00121515 0.00363026 0)
(2.12925e-06 5.45771e-06 0)
(6.75813e-06 7.72783e-06 0)
(1.25917e-05 1.25546e-05 0)
(2.0665e-05 2.07113e-05 0)
(3.23331e-05 3.34923e-05 0)
(4.942e-05 5.29514e-05 0)
(7.42641e-05 8.21938e-05 0)
(0.000109771 0.00012563 0)
(0.000159441 0.000189514 0)
(0.000227173 0.000282779 0)
(0.000316561 0.000418316 0)
(0.000429076 0.0006149 0)
(0.000559872 0.000899869 0)
(0.000688832 0.00131207 0)
(0.000763024 0.00190235 0)
(0.000667392 0.0027219 0)
(0.00019462 0.00376876 0)
(-0.000901239 0.00481139 0)
(2.74382e-06 2.50745e-06 0)
(8.73298e-06 4.10364e-06 0)
(1.63416e-05 7.49487e-06 0)
(2.6941e-05 1.31944e-05 0)
(4.23756e-05 2.19826e-05 0)
(6.52446e-05 3.5226e-05 0)
(9.89794e-05 5.52491e-05 0)
(0.00014806 8.53416e-05 0)
(0.000218431 0.000130319 0)
(0.000317903 0.000197423 0)
(0.000456474 0.000297923 0)
(0.000646266 0.000450076 0)
(0.000899929 0.000684728 0)
(0.00122423 0.00105607 0)
(0.00159915 0.00166232 0)
(0.00191472 0.00268476 0)
(0.00178674 0.00445815 0)
(2.90312e-05 0.00758418 0)
(3.1819e-06 -1.84359e-06 0)
(1.01403e-05 -1.26768e-06 0)
(1.89973e-05 -3.00778e-08 0)
(3.12772e-05 2.04809e-06 0)
(4.91163e-05 4.83768e-06 0)
(7.58108e-05 8.44782e-06 0)
(0.000115699 1.40349e-05 0)
(0.000174476 2.27511e-05 0)
(0.000260187 3.63285e-05 0)
(0.000384357 5.74641e-05 0)
(0.000563955 9.05869e-05 0)
(0.000824968 0.00014342 0)
(0.00120924 0.000230301 0)
(0.00178824 0.000379541 0)
(0.00269191 0.000650261 0)
(0.0041716 0.00117222 0)
(0.00674195 0.00224243 0)
(0.0115099 0.00456452 0)
(1.62128e-08 -2.18544e-06 0)
(2.91535e-08 -2.20547e-06 0)
(2.48004e-08 -2.22107e-06 0)
(2.3453e-08 -2.23356e-06 0)
(2.52268e-08 -2.60188e-06 0)
(3.34234e-08 -4.70997e-06 0)
(4.88581e-08 -7.71545e-06 0)
(7.16496e-08 -1.18117e-05 0)
(1.04539e-07 -1.72817e-05 0)
(1.5173e-07 -2.45742e-05 0)
(2.1995e-07 -3.43774e-05 0)
(3.20217e-07 -4.7754e-05 0)
(4.7117e-07 -6.63792e-05 0)
(7.05548e-07 -9.29621e-05 0)
(1.08337e-06 -0.000132011 0)
(1.72002e-06 -0.000191253 0)
(2.84924e-06 -0.000284366 0)
(4.97514e-06 -0.000436705 0)
(3.65987e-06 4.27627e-06 0)
(1.10752e-05 4.95522e-06 0)
(1.91835e-05 4.86978e-06 0)
(2.87997e-05 4.27091e-06 0)
(4.00862e-05 3.18516e-06 0)
(5.23663e-05 6.19663e-07 0)
(6.51971e-05 -2.92568e-06 0)
(7.90549e-05 -8.2592e-06 0)
(9.42973e-05 -1.50316e-05 0)
(0.000110886 -2.37466e-05 0)
(0.000128817 -3.51038e-05 0)
(0.000148034 -5.00868e-05 0)
(0.000168289 -7.00918e-05 0)
(0.000188851 -9.71191e-05 0)
(0.000207927 -0.000134062 0)
(0.00022153 -0.000185157 0)
(0.000221256 -0.000256753 0)
(0.000189838 -0.000358878 0)
(5.59727e-06 1.312e-05 0)
(1.69737e-05 1.4563e-05 0)
(2.87932e-05 1.42343e-05 0)
(4.12112e-05 1.26239e-05 0)
(5.42642e-05 9.91126e-06 0)
(6.78928e-05 6.22766e-06 0)
(8.19624e-05 1.4768e-06 0)
(9.61703e-05 -5.43111e-06 0)
(0.000110524 -1.43027e-05 0)
(0.00012513 -2.51363e-05 0)
(0.000139748 -3.8485e-05 0)
(0.000153985 -5.499e-05 0)
(0.000167212 -7.53568e-05 0)
(0.000178471 -0.000100278 0)
(0.000186397 -0.000130252 0)
(0.000189228 -0.000165209 0)
(0.000185069 -0.000203783 0)
(0.00017277 -0.000241928 0)
(6.49558e-06 2.10011e-05 0)
(1.97538e-05 2.22519e-05 0)
(3.34809e-05 2.15125e-05 0)
(4.75831e-05 1.92057e-05 0)
(6.19916e-05 1.5633e-05 0)
(7.6635e-05 1.09767e-05 0)
(9.14409e-05 5.25402e-06 0)
(0.000106113 -1.97832e-06 0)
(0.000120514 -1.17986e-05 0)
(0.000134629 -2.32867e-05 0)
(0.000148148 -3.67385e-05 0)
(0.00016065 -5.24056e-05 0)
(0.000171598 -7.04337e-05 0)
(0.000180343 -9.07763e-05 0)
(0.000186179 -0.000113084 0)
(0.000188462 -0.000136583 0)
(0.000186813 -0.000159996 0)
(0.00018137 -0.000181591 0)
(7.57068e-06 2.67021e-05 0)
(2.29061e-05 2.73991e-05 0)
(3.85427e-05 2.61712e-05 0)
(5.43316e-05 2.33669e-05 0)
(7.01584e-05 1.92891e-05 0)
(8.59253e-05 1.41256e-05 0)
(0.000101537 7.93119e-06 0)
(0.000116818 6.18945e-07 0)
(0.00013144 -9.18277e-06 0)
(0.0001452 -2.0462e-05 0)
(0.000157947 -3.31854e-05 0)
(0.000169345 -4.73989e-05 0)
(0.000179015 -6.3029e-05 0)
(0.000186569 -7.98394e-05 0)
(0.000191669 -9.73991e-05 0)
(0.000194096 -0.000115078 0)
(0.000193839 -0.000132095 0)
(0.000191144 -0.000147631 0)
(8.72884e-06 3.06186e-05 0)
(2.62703e-05 3.07775e-05 0)
(4.38924e-05 2.91158e-05 0)
(6.14316e-05 2.59498e-05 0)
(7.87462e-05 2.15708e-05 0)
(9.57127e-05 1.61695e-05 0)
(0.000112211 9.82569e-06 0)
(0.000128106 2.53351e-06 0)
(0.000143051 -6.66055e-06 0)
(0.000156782 -1.72907e-05 0)
(0.000169185 -2.89475e-05 0)
(0.000180018 -4.15772e-05 0)
(0.000189038 -5.50303e-05 0)
(0.000196034 -6.90467e-05 0)
(0.000200864 -8.32576e-05 0)
(0.000203492 -9.721e-05 0)
(0.000204018 -0.000110418 0)
(0.00020268 -0.000122435 0)
(1.00153e-05 3.27709e-05 0)
(3.00028e-05 3.24933e-05 0)
(4.98139e-05 3.05065e-05 0)
(6.92723e-05 2.71216e-05 0)
(8.82174e-05 2.26227e-05 0)
(0.000106507 1.72037e-05 0)
(0.000124008 1.09633e-05 0)
(0.00014058 3.93088e-06 0)
(0.000155921 -4.46141e-06 0)
(0.000169782 -1.42086e-05 0)
(0.000182067 -2.46679e-05 0)
(0.000192614 -3.57458e-05 0)
(0.000201281 -4.728e-05 0)
(0.000207972 -5.90377e-05 0)
(0.000212657 -7.07277e-05 0)
(0.000215389 -8.20269e-05 0)
(0.000216315 -9.26173e-05 0)
(0.000215662 -0.000102227 0)
(1.14745e-05 3.32517e-05 0)
(3.42404e-05 3.26555e-05 0)
(5.65373e-05 3.04727e-05 0)
(7.81665e-05 2.70173e-05 0)
(9.89494e-05 2.25689e-05 0)
(0.000118733 1.73224e-05 0)
(0.000137379 1.13886e-05 0)
(0.000154756 4.81821e-06 0)
(0.000170611 -2.68602e-06 0)
(0.000184731 -1.14223e-05 0)
(0.000197037 -2.06383e-05 0)
(0.000207441 -3.02319e-05 0)
(0.00021588 -4.00536e-05 0)
(0.000222341 -4.99097e-05 0)
(0.000226869 -5.95764e-05 0)
(0.000229574 -6.88208e-05 0)
(0.000230633 -7.7427e-05 0)
(0.00023027 -8.52193e-05 0)
(1.31603e-05 3.21775e-05 0)
(3.91414e-05 3.13773e-05 0)
(6.43171e-05 2.91319e-05 0)
(8.8452e-05 2.57553e-05 0)
(0.000111349 2.15194e-05 0)
(0.000132848 1.6616e-05 0)
(0.00015282 1.11602e-05 0)
(0.000171149 5.21359e-06 0)
(0.00018764 -1.34164e-06 0)
(0.000202123 -8.99056e-06 0)
(0.00021455 -1.69497e-05 0)
(0.000224893 -2.51235e-05 0)
(0.000233161 -3.33846e-05 0)
(0.000239405 -4.15783e-05 0)
(0.000243731 -4.9535e-05 0)
(0.000246293 -5.70863e-05 0)
(0.000247293 -6.4082e-05 0)
(0.000246965 -7.04048e-05 0)
(1.51498e-05 2.96591e-05 0)
(4.49295e-05 2.87617e-05 0)
(7.35077e-05 2.65863e-05 0)
(0.000100596 2.34363e-05 0)
(0.000125976 1.95689e-05 0)
(0.00014949 1.51657e-05 0)
(0.000171024 1.03384e-05 0)
(0.000190493 5.1505e-06 0)
(0.000207765 -4.03116e-07 0)
(0.000222724 -6.91169e-06 0)
(0.000235358 -1.36096e-05 0)
(0.000245704 -2.04145e-05 0)
(0.000253832 -2.72232e-05 0)
(0.000259856 -3.39165e-05 0)
(0.000263933 -4.0368e-05 0)
(0.000266259 -4.64561e-05 0)
(0.000267065 -5.20755e-05 0)
(0.000266596 -5.7146e-05 0)
(1.75722e-05 2.57761e-05 0)
(5.19807e-05 2.48822e-05 0)
(8.47059e-05 2.29081e-05 0)
(0.000115388 2.01324e-05 0)
(0.000143784 1.67863e-05 0)
(0.000169744 1.30326e-05 0)
(0.000193186 8.97202e-06 0)
(0.000214067 4.66291e-06 0)
(0.000232361 1.38612e-07 0)
(0.000247973 -5.16356e-06 0)
(0.000260915 -1.05936e-05 0)
(0.000271331 -1.60627e-05 0)
(0.00027936 -2.14919e-05 0)
(0.000285174 -2.67923e-05 0)
(0.000288979 -3.18716e-05 0)
(0.000291012 -3.66421e-05 0)
(0.000291525 -4.10292e-05 0)
(0.00029078 -4.49772e-05 0)
(2.06887e-05 2.05401e-05 0)
(6.10565e-05 1.97485e-05 0)
(9.91249e-05 1.81111e-05 0)
(0.000134437 1.58627e-05 0)
(0.000166723 1.31949e-05 0)
(0.000195854 1.02415e-05 0)
(0.00022179 7.08505e-06 0)
(0.000244552 3.77319e-06 0)
(0.000264191 3.32559e-07 0)
(0.000280724 -3.70753e-06 0)
(0.000294239 -7.85275e-06 0)
(0.000304937 -1.19984e-05 0)
(0.000313023 -1.60861e-05 0)
(0.000318727 -2.00509e-05 0)
(0.000322297 -2.38259e-05 0)
(0.000323999 -2.73485e-05 0)
(0.000324102 -3.05663e-05 0)
(0.000322882 -3.34416e-05 0)
(2.51916e-05 1.38129e-05 0)
(7.4183e-05 1.32301e-05 0)
(0.00012001 1.20823e-05 0)
(0.00016208 1.05367e-05 0)
(0.000200089 8.72782e-06 0)
(0.000233943 6.74843e-06 0)
(0.000263679 4.65545e-06 0)
(0.000289406 2.48133e-06 0)
(0.000311277 2.46088e-07 0)
(0.000329492 -2.4928e-06 0)
(0.000344264 -5.29904e-06 0)
(0.000355795 -8.07565e-06 0)
(0.000364307 -1.07805e-05 0)
(0.000370042 -1.33692e-05 0)
(0.000373267 -1.57984e-05 0)
(0.000374275 -1.80298e-05 0)
(0.000373376 -2.00335e-05 0)
(0.000370893 -2.17908e-05 0)
(3.45226e-05 4.9726e-06 0)
(0.000101479 4.74699e-06 0)
(0.000163699 4.31555e-06 0)
(0.000220349 3.74164e-06 0)
(0.000271079 3.07577e-06 0)
(0.000315871 2.35249e-06 0)
(0.000354904 1.59285e-06 0)
(0.000388458 8.08734e-07 0)
(0.000416863 8.48559e-09 0)
(0.00043978 -1.03046e-06 0)
(0.000456866 -2.0895e-06 0)
(0.000468544 -3.12526e-06 0)
(0.000475368 -4.12033e-06 0)
(0.000477931 -5.05788e-06 0)
(0.000476853 -5.92261e-06 0)
(0.000472759 -6.70207e-06 0)
(0.000466262 -7.38772e-06 0)
(0.000457939 -7.97572e-06 0)
(-1.10687e-05 2.36588e-05 3.05651e-31)
(-3.32883e-05 2.36093e-05 -3.0475e-31)
(-5.56245e-05 2.352e-05 0)
(-7.80395e-05 2.33903e-05 0)
(-0.000100494 2.32202e-05 0)
(-0.000122948 2.30096e-05 2.95941e-31)
(-0.000145361 2.2759e-05 0)
(-0.000167692 2.24688e-05 0)
(-0.000189898 2.214e-05 0)
(-0.000211937 2.17734e-05 0)
(-0.000233769 2.13706e-05 -2.73449e-31)
(-0.000255352 2.0933e-05 0)
(-0.000276646 2.04623e-05 0)
(-0.00029761 1.99604e-05 0)
(-0.000318208 1.94295e-05 0)
(-0.000338402 1.88719e-05 -2.39919e-31)
(-0.000358157 1.82899e-05 0)
(-0.000377439 1.76859e-05 0)
(-0.000396218 1.70626e-05 0)
(-0.000414463 1.64226e-05 0)
(-0.000432148 1.57684e-05 0)
(-0.000449249 1.51028e-05 0)
(-0.000465743 1.44284e-05 0)
(-0.000481611 1.37477e-05 -1.72e-31)
(-0.000496835 1.30633e-05 1.62974e-31)
(-0.0005114 1.23776e-05 -1.5394e-31)
(-0.000525296 1.16929e-05 -1.44927e-31)
(-0.000538512 1.10116e-05 0)
(-0.000551041 1.03357e-05 0)
(-0.000562878 9.66717e-06 1.18301e-31)
(-0.000574022 9.00792e-06 1.09648e-31)
(-0.000584471 8.35964e-06 0)
(-0.000594229 7.7239e-06 0)
(-0.000603299 7.1021e-06 8.46707e-32)
(-0.000611686 6.49551e-06 0)
(-0.000619399 5.90526e-06 0)
(-0.000626447 5.33231e-06 -6.15235e-32)
(-0.00063284 4.77749e-06 0)
(-0.000638591 4.2415e-06 -4.72817e-32)
(-0.000643714 3.7249e-06 -8.10889e-32)
(-0.000648222 3.22813e-06 0)
(-0.000652131 2.75151e-06 0)
(-0.000655458 2.29524e-06 0)
(-0.00065822 1.85943e-06 0)
(-0.000660434 1.44409e-06 0)
(-0.000662119 1.04913e-06 -1.14871e-32)
(-0.000663293 6.74387e-07 -1.77274e-33)
(-0.000663976 3.19637e-07 7.41351e-33)
(-0.000664186 -1.54281e-08 0)
(-0.000663943 -3.31167e-07 -2.42356e-32)
(-0.000663266 -6.2799e-07 0)
(-0.000662174 -9.06355e-07 3.90621e-32)
(-0.000660687 -1.16676e-06 4.57584e-32)
(-0.000658823 -1.40972e-06 0)
(-0.000656602 -1.6358e-06 0)
(-0.000654042 -1.84558e-06 0)
(-0.00065116 -2.03964e-06 6.80966e-32)
(-0.000647975 -2.21858e-06 0)
(-0.000644504 -2.38303e-06 0)
(-0.000640765 -2.53359e-06 0)
(-0.000636773 -2.67089e-06 0)
(-0.000632544 -2.79553e-06 0)
(-0.000628094 -2.90812e-06 0)
(-0.000623439 -3.00927e-06 0)
(-0.000618592 -3.09955e-06 0)
(-0.000613568 -3.17957e-06 -9.66757e-32)
(-0.000608379 -3.24986e-06 0)
(-0.00060304 -3.311e-06 0)
(-0.000597562 -3.36351e-06 1.01052e-31)
(-0.000591956 -3.4079e-06 1.02068e-31)
(-0.000586236 -3.44468e-06 0)
(-0.00058041 -3.47433e-06 -1.03512e-31)
(-0.00057449 -3.4973e-06 1.03966e-31)
(-0.000568485 -3.51405e-06 0)
(-0.000562405 -3.525e-06 -1.04397e-31)
(-0.000556258 -3.53055e-06 0)
(-0.000550053 -3.53108e-06 0)
(-0.000543798 -3.52696e-06 1.04008e-31)
(-0.000537501 -3.51855e-06 0)
(-0.000531168 -3.50616e-06 -1.03173e-31)
(-0.000524807 -3.49011e-06 0)
(-0.000518423 -3.47069e-06 1.01955e-31)
(-0.000512023 -3.44817e-06 1.01222e-31)
(-0.000505613 -3.42282e-06 1.00415e-31)
(-0.000499197 -3.39487e-06 1.99082e-31)
(-0.000492781 -3.36454e-06 -1.97211e-31)
(-0.00048637 -3.33205e-06 0)
(-0.000479968 -3.29759e-06 0)
(-0.000473579 -3.26132e-06 0)
(-0.000467208 -3.22343e-06 -1.88708e-31)
(-0.000460858 -3.18404e-06 -1.86372e-31)
(-0.000454533 -3.14331e-06 1.83968e-31)
(-0.000448237 -3.10134e-06 0)
(-0.000441972 -3.05825e-06 -1.78977e-31)
(-0.000435742 -3.01413e-06 -1.76402e-31)
(-0.00042955 -2.96905e-06 -1.73779e-31)
(-0.000423398 -2.9231e-06 0)
(-0.000417291 -2.87633e-06 0)
(-0.000411231 -2.82878e-06 0)
(-0.00040522 -2.78049e-06 -1.62882e-31)
(-0.000399261 -2.73149e-06 0)
(-0.000393358 -2.68178e-06 0)
(-0.000387514 -2.63137e-06 1.54337e-31)
(-0.00038173 -2.58026e-06 0)
(-0.000376011 -2.52843e-06 0)
(-0.00037036 -2.47585e-06 1.45486e-31)
(-0.000364779 -2.4225e-06 0)
(-0.000359273 -2.36834e-06 0)
(-0.000353844 -2.31332e-06 -1.36304e-31)
(-0.000348497 -2.25741e-06 -1.33161e-31)
(-0.000343236 -2.20055e-06 0)
(-0.000338065 -2.14269e-06 1.26737e-31)
(-0.000332989 -2.08379e-06 0)
(-0.000328011 -2.0238e-06 -1.20116e-31)
(-0.000323137 -1.9627e-06 0)
(-0.000318372 -1.90045e-06 -1.13284e-31)
(-0.000313721 -1.83705e-06 -1.09786e-31)
(-0.000309189 -1.77249e-06 0)
(-0.000304781 -1.7068e-06 0)
(-0.000300503 -1.64003e-06 0)
(-0.000296361 -1.57225e-06 0)
(-0.000292359 -1.50356e-06 0)
(-0.000288502 -1.43411e-06 0)
(-0.000284796 -1.36407e-06 0)
(-0.000281244 -1.29364e-06 -8.01596e-32)
(-0.00027785 -1.22308e-06 7.63514e-32)
(-0.000274617 -1.15268e-06 0)
(-0.000271548 -1.08277e-06 0)
(-0.000268643 -1.01374e-06 0)
(-0.000265904 -9.45996e-07 0)
(-0.000263328 -8.80009e-07 1.15859e-31)
(-0.000260913 -8.16286e-07 0)
(-0.000258656 -7.55383e-07 -1.02531e-31)
(-0.000256549 -6.979e-07 9.63889e-32)
(-0.000254586 -6.44489e-07 0)
(-0.000252755 -5.95856e-07 0)
(-0.000251044 -5.52766e-07 0)
(-0.000249438 -5.1605e-07 -7.69146e-32)
(-0.000247917 -4.86616e-07 -7.37275e-32)
(-0.000246459 -4.65459e-07 0)
(-0.000245039 -4.5367e-07 -7.00491e-32)
(-0.000243626 -4.52457e-07 -6.97902e-32)
(-0.000242185 -4.6316e-07 7.07609e-32)
(-0.000240675 -4.87269e-07 0)
(-0.00023905 -5.26447e-07 0)
(-0.000237256 -5.82555e-07 8.26405e-32)
(-0.000235231 -6.57675e-07 0)
(-0.000232904 -7.54141e-07 0)
(-0.000230194 -8.74565e-07 0)
(-0.000227009 -1.02187e-06 0)
(-0.000223245 -1.19931e-06 -1.45088e-31)
(-0.00021878 -1.41052e-06 -1.66506e-31)
(-0.000213479 -1.65952e-06 0)
(-0.000207187 -1.95075e-06 -2.21269e-31)
(-0.000199728 -2.28905e-06 0)
(-0.000190905 -2.67972e-06 0)
(-0.000180494 -3.12842e-06 -3.40516e-31)
(-0.000168245 -3.64119e-06 0)
(-0.000153879 -4.22433e-06 -4.51318e-31)
(-0.000137085 -4.88428e-06 0)
(-0.000117521 -5.6274e-06 0)
(-9.48106e-05 -6.45974e-06 -6.76875e-31)
(-6.85476e-05 -7.38664e-06 0)
(-3.8296e-05 -8.41224e-06 -8.73422e-31)
(-3.59533e-06 -9.53887e-06 0)
(3.60309e-05 -1.07663e-05 0)
(8.10638e-05 -1.20906e-05 0)
(0.000131973 -1.35034e-05 1.38375e-30)
(0.000189194 -1.49902e-05 0)
(0.000253101 -1.65293e-05 -1.68519e-30)
(0.000323969 -1.809e-05 0)
(0.000401933 -1.96309e-05 0)
(0.000486927 -2.10983e-05 0)
(0.000578629 -2.2423e-05 0)
(0.000676362 -2.35155e-05 0)
(0.00077898 -2.42545e-05 0)
(0.000884632 -2.44542e-05 0)
(0.000990224 -2.37586e-05 4.72613e-30)
(0.00108963 -2.11967e-05 0)
(0.00116512 -1.26329e-05 0)
(-1.1152e-05 7.11545e-05 -9.19252e-31)
(-3.35384e-05 7.10048e-05 9.16525e-31)
(-5.6041e-05 7.07345e-05 0)
(-7.86208e-05 7.03423e-05 -1.81459e-30)
(-0.000101238 6.98277e-05 0)
(-0.000123851 6.91908e-05 8.92808e-31)
(-0.000146419 6.84328e-05 1.76203e-30)
(-0.000168899 6.75553e-05 1.73829e-30)
(-0.000191248 6.6561e-05 0)
(-0.000213423 6.5453e-05 1.68184e-30)
(-0.000235384 6.42355e-05 -8.27445e-31)
(-0.000257086 6.29131e-05 0)
(-0.000278491 6.1491e-05 0)
(-0.000299556 5.99753e-05 0)
(-0.000320245 5.83723e-05 0)
(-0.00034052 5.66889e-05 -7.28667e-31)
(-0.000360345 5.49324e-05 0)
(-0.000379687 5.31102e-05 -1.35494e-30)
(-0.000398514 5.12302e-05 0)
(-0.000416798 4.93002e-05 0)
(-0.000434512 4.73283e-05 1.20289e-30)
(-0.000451631 4.53225e-05 0)
(-0.000468133 4.32906e-05 -1.09693e-30)
(-0.000483999 4.12405e-05 -5.27307e-31)
(-0.000499214 3.91797e-05 5.00493e-31)
(-0.000513761 3.71157e-05 -4.73644e-31)
(-0.000527631 3.50554e-05 -4.46852e-31)
(-0.000540814 3.30057e-05 0)
(-0.000553303 3.09728e-05 0)
(-0.000565095 2.89628e-05 3.67664e-31)
(-0.000576187 2.69811e-05 1.01216e-30)
(-0.000586581 2.50329e-05 0)
(-0.000596279 2.31229e-05 0)
(-0.000605285 2.12552e-05 2.67572e-31)
(-0.000613606 1.94337e-05 0)
(-0.000621251 1.76616e-05 0)
(-0.000628228 1.59418e-05 -1.98627e-31)
(-0.000634549 1.42769e-05 0)
(-0.000640227 1.26688e-05 -4.53432e-31)
(-0.000645276 1.11192e-05 -2.7219e-31)
(-0.000649711 9.62937e-06 0)
(-0.000653547 8.20024e-06 0)
(-0.000656801 6.83241e-06 2.912e-31)
(-0.000659491 5.52616e-06 2.23415e-31)
(-0.000661635 4.28147e-06 1.58864e-31)
(-0.000663251 3.09808e-06 -1.61956e-31)
(-0.000664357 1.97547e-06 -3.53798e-32)
(-0.000664974 9.12922e-07 -2.35005e-32)
(-0.000665121 -9.04975e-08 6.74904e-32)
(-0.000664816 -1.03589e-06 -4.24727e-32)
(-0.000664079 -1.92449e-06 0)
(-0.00066293 -2.75771e-06 8.69363e-32)
(-0.000661388 -3.53703e-06 3.52364e-31)
(-0.000659472 -4.26404e-06 0)
(-0.0006572 -4.94043e-06 0)
(-0.000654592 -5.56792e-06 0)
(-0.000651665 -6.14831e-06 1.74315e-31)
(-0.000648437 -6.6834e-06 0)
(-0.000644925 -7.17505e-06 4.31845e-31)
(-0.000641146 -7.62509e-06 0)
(-0.000637118 -8.03539e-06 4.75587e-31)
(-0.000632855 -8.40779e-06 0)
(-0.000628373 -8.74411e-06 -5.11401e-31)
(-0.000623687 -9.04615e-06 0)
(-0.000618812 -9.31569e-06 5.40048e-31)
(-0.000613761 -9.55447e-06 -8.13383e-31)
(-0.000608548 -9.76417e-06 0)
(-0.000603185 -9.94645e-06 -5.71181e-31)
(-0.000597685 -1.01029e-05 2.75264e-31)
(-0.00059206 -1.02351e-05 2.78549e-31)
(-0.000586321 -1.03445e-05 0)
(-0.000580479 -1.04325e-05 -8.77546e-31)
(-0.000574543 -1.05006e-05 2.85e-31)
(-0.000568524 -1.05501e-05 0)
(-0.00056243 -1.05822e-05 -2.86823e-31)
(-0.000556272 -1.05982e-05 -6.00446e-31)
(-0.000550056 -1.05992e-05 0)
(-0.000543791 -1.05863e-05 2.86487e-31)
(-0.000537484 -1.05605e-05 0)
(-0.000531143 -1.05228e-05 3.09628e-31)
(-0.000524775 -1.04742e-05 0)
(-0.000518384 -1.04156e-05 -3.05951e-31)
(-0.000511978 -1.03476e-05 2.79568e-31)
(-0.000505562 -1.02712e-05 8.56194e-31)
(-0.000499142 -1.01871e-05 1.69782e-30)
(-0.000492722 -1.00958e-05 -1.68215e-30)
(-0.000486307 -9.99807e-06 0)
(-0.000479901 -9.89444e-06 0)
(-0.00047351 -9.78545e-06 0)
(-0.000467136 -9.67157e-06 5.66179e-31)
(-0.000460784 -9.55325e-06 -5.15649e-31)
(-0.000454457 -9.4309e-06 5.09025e-31)
(-0.000448158 -9.30487e-06 0)
(-0.000441892 -9.17548e-06 -1.52741e-30)
(-0.000435661 -9.04302e-06 -4.88084e-31)
(-0.000429467 -8.90772e-06 -4.80797e-31)
(-0.000423315 -8.76981e-06 0)
(-0.000417207 -8.62944e-06 0)
(-0.000411146 -8.48675e-06 0)
(-0.000405134 -8.34186e-06 -4.50394e-31)
(-0.000399175 -8.19482e-06 0)
(-0.000393272 -8.04568e-06 -9.06182e-31)
(-0.000387427 -7.89446e-06 -4.63014e-31)
(-0.000381643 -7.74112e-06 8.72495e-31)
(-0.000375923 -7.58563e-06 0)
(-0.000370271 -7.42792e-06 1.23946e-30)
(-0.000364689 -7.26788e-06 0)
(-0.000359182 -7.10542e-06 8.02522e-31)
(-0.000353753 -6.9404e-06 -1.15995e-30)
(-0.000348406 -6.77268e-06 -1.13267e-30)
(-0.000343144 -6.60211e-06 0)
(-0.000337972 -6.42856e-06 -3.80223e-31)
(-0.000332894 -6.25188e-06 7.09303e-31)
(-0.000327915 -6.07194e-06 -3.29396e-31)
(-0.00032304 -5.88863e-06 0)
(-0.000318274 -5.70188e-06 -3.09809e-31)
(-0.000313622 -5.51165e-06 3.29371e-31)
(-0.000309089 -5.31794e-06 0)
(-0.00030468 -5.12084e-06 5.87027e-31)
(-0.000300402 -4.92047e-06 5.65502e-31)
(-0.000296258 -4.71706e-06 5.43687e-31)
(-0.000292256 -4.51092e-06 0)
(-0.000288399 -4.30246e-06 0)
(-0.000284693 -4.09221e-06 0)
(-0.000281141 -3.88079e-06 -6.68271e-31)
(-0.000277748 -3.66895e-06 2.02795e-31)
(-0.000274516 -3.45758e-06 0)
(-0.000271449 -3.24767e-06 -3.8707e-31)
(-0.000268547 -3.04037e-06 -3.65087e-31)
(-0.00026581 -2.83692e-06 0)
(-0.000263238 -2.63873e-06 2.97698e-31)
(-0.000260828 -2.44732e-06 -6.04621e-31)
(-0.000258575 -2.26436e-06 -2.58548e-31)
(-0.000256474 -2.09165e-06 7.69916e-31)
(-0.000254518 -1.93113e-06 0)
(-0.000252694 -1.78494e-06 0)
(-0.000250992 -1.65536e-06 0)
(-0.000249395 -1.54488e-06 -1.83289e-31)
(-0.000247884 -1.45623e-06 -5.68759e-31)
(-0.000246438 -1.39238e-06 -3.81029e-31)
(-0.000245031 -1.35661e-06 -1.6341e-31)
(-0.000243633 -1.35252e-06 -5.34582e-31)
(-0.000242208 -1.38415e-06 1.65991e-31)
(-0.000240716 -1.45595e-06 0)
(-0.00023911 -1.5729e-06 0)
(-0.000237338 -1.74058e-06 6.51984e-31)
(-0.000235336 -1.96524e-06 0)
(-0.000233036 -2.25387e-06 0)
(-0.000230356 -2.61429e-06 -6.27638e-31)
(-0.000227204 -3.05527e-06 0)
(-0.000223475 -3.58659e-06 -1.21806e-30)
(-0.000219051 -4.21913e-06 -4.56934e-31)
(-0.000213794 -4.96494e-06 0)
(-0.00020755 -5.83734e-06 -1.9087e-30)
(-0.000200145 -6.85091e-06 0)
(-0.00019138 -8.02149e-06 0)
(-0.000181034 -9.36615e-06 -9.85533e-31)
(-0.000168855 -1.0903e-05 -2.31847e-30)
(-0.000154564 -1.2651e-05 -1.32268e-30)
(-0.000137851 -1.46295e-05 0)
(-0.000118373 -1.68576e-05 0)
(-9.57542e-05 -1.93537e-05 -6.04859e-30)
(-6.95856e-05 -2.21339e-05 0)
(-3.94299e-05 -2.52106e-05 -7.83876e-30)
(-4.82469e-06 -2.85912e-05 0)
(3.47099e-05 -3.22749e-05 0)
(7.96591e-05 -3.62506e-05 0)
(0.000130497 -4.04931e-05 4.17456e-30)
(0.000187667 -4.49593e-05 0)
(0.000251549 -4.95842e-05 -5.10313e-30)
(0.000322428 -5.42759e-05 0)
(0.000400448 -5.89111e-05 0)
(0.000485557 -6.33285e-05 -1.29126e-29)
(0.000577445 -6.73217e-05 1.37036e-29)
(0.000675462 -7.06246e-05 0)
(0.000778499 -7.28794e-05 0)
(0.000884812 -7.35509e-05 0)
(0.000991655 -7.16595e-05 -1.42569e-29)
(0.00109458 -6.47994e-05 0)
(0.00118777 -4.4619e-05 1.75566e-29)
(-1.13208e-05 0.000119189 -6.16059e-30)
(-3.40451e-05 0.000118936 8.1017e-34)
(-5.68845e-05 0.000118477 0)
(-7.97982e-05 0.000117813 -1.89031e-33)
(-0.000102744 0.00011694 0)
(-0.000125679 0.000115861 0)
(-0.00014856 0.000114577 5.90595e-30)
(-0.000171341 0.000113091 2.91525e-30)
(-0.000193979 0.000111408 -2.86608e-30)
(-0.00021643 0.000109533 2.82113e-30)
(-0.000238648 0.000107473 0)
(-0.000260592 0.000105237 0)
(-0.000282219 0.000102834 2.63819e-30)
(-0.000303487 0.000100273 5.14098e-30)
(-0.000324359 9.75664e-05 -4.9981e-30)
(-0.000344795 9.47255e-05 0)
(-0.000364759 9.17628e-05 -4.69234e-30)
(-0.00038422 8.86911e-05 -2.27446e-30)
(-0.000403144 8.55237e-05 0)
(-0.000421503 8.22741e-05 -4.19375e-30)
(-0.000439272 7.89558e-05 2.02021e-30)
(-0.000456425 7.55824e-05 3.84285e-30)
(-0.000472942 7.21672e-05 -1.84314e-30)
(-0.000488804 6.87234e-05 0)
(-0.000503997 6.52637e-05 -3.30265e-30)
(-0.000518506 6.18006e-05 -3.12155e-30)
(-0.000532322 5.83458e-05 0)
(-0.000545436 5.49105e-05 -2.76153e-30)
(-0.000557844 5.15054e-05 0)
(-0.000569542 4.81404e-05 -2.40811e-30)
(-0.000580531 4.48246e-05 1.13128e-30)
(-0.000590812 4.15666e-05 0)
(-0.000600388 3.8374e-05 0)
(-0.000609266 3.52537e-05 0)
(-0.000617453 3.2212e-05 0)
(-0.000624958 2.92542e-05 0)
(-0.000631792 2.63851e-05 0)
(-0.000637968 2.36087e-05 -1.13016e-30)
(-0.0006435 2.09281e-05 4.80207e-31)
(-0.000648401 1.83462e-05 0)
(-0.000652687 1.58649e-05 0)
(-0.000656376 1.34856e-05 0)
(-0.000659485 1.12092e-05 1.0033e-30)
(-0.000662031 9.03611e-06 4.04635e-31)
(-0.000664033 6.96619e-06 3.13555e-32)
(-0.00066551 4.9989e-06 -3.14248e-32)
(-0.000666482 3.1333e-06 6.75768e-32)