/*--------------------------------*- C++ -*----------------------------------*\
  =========                 |
  \\      /  F ield         | OpenFOAM: The Open Source CFD Toolbox
   \\    /   O peration     | Website:  https://openfoam.org
    \\  /    A nd           | Version:  10
     \\/     M anipulation  |
\*---------------------------------------------------------------------------*/
FoamFile
{
    format      ascii;
    class       surfaceScalarField;
    location    "2.23";
    object      phi;
}
// * * * * * * * * * * * * * * * * * * * * * * * * * * * * * * * * * * * * * //

dimensions      [0 3 -1 0 0 0 0];

internalField   nonuniform List<scalar> 
24170
(
1.4636e-09
-1.4636e-09
2.71579e-09
-1.25218e-09
3.70555e-09
-9.89761e-10
4.45189e-09
-7.46346e-10
5.00422e-09
-5.52326e-10
5.41589e-09
-4.11673e-10
5.73286e-09
-3.16968e-10
5.99123e-09
-2.58365e-10
6.21871e-09
-2.27488e-10
6.43738e-09
-2.18665e-10
6.6666e-09
-2.29224e-10
6.92646e-09
-2.59855e-10
7.24237e-09
-3.15914e-10
7.65369e-09
-4.1132e-10
8.23407e-09
-5.80376e-10
9.15406e-09
-9.19995e-10
1.09425e-08
-1.7884e-09
-5.11709e-09
1.60596e-08
1.65794e-09
-3.12154e-09
3.07054e-09
-2.66479e-09
4.18047e-09
-2.09969e-09
5.01167e-09
-1.57755e-09
5.6223e-09
-1.16296e-09
6.07412e-09
-8.63488e-10
6.41967e-09
-6.62524e-10
6.69989e-09
-5.38584e-10
6.94594e-09
-4.73532e-10
7.18237e-09
-4.55098e-10
7.43054e-09
-4.77394e-10
7.71223e-09
-5.41543e-10
8.05444e-09
-6.5813e-10
8.49761e-09
-8.5449e-10
9.11285e-09
-1.19561e-09
1.00428e-08
-1.84996e-09
1.15787e-08
-3.32426e-09
-7.32657e-09
1.37882e-08
1.85232e-09
-4.97386e-09
3.42162e-09
-4.23409e-09
4.64492e-09
-3.32299e-09
5.55323e-09
-2.48586e-09
6.21496e-09
-1.82469e-09
6.70083e-09
-1.34936e-09
7.07e-09
-1.03169e-09
7.3679e-09
-8.36484e-10
7.62869e-09
-7.3433e-10
7.87894e-09
-7.05348e-10
8.14127e-09
-7.39726e-10
8.43809e-09
-8.38359e-10
8.7959e-09
-1.01594e-09
9.25147e-09
-1.31006e-09
9.86113e-09
-1.80527e-09
1.07075e-08
-2.69636e-09
1.18322e-08
-4.4489e-09
-8.06698e-09
1.25726e-08
2.06883e-09
-7.0427e-09
3.80742e-09
-5.97267e-09
5.14765e-09
-4.66322e-09
6.13127e-09
-3.46947e-09
6.8401e-09
-2.53352e-09
7.35561e-09
-1.86486e-09
7.74425e-09
-1.42034e-09
8.05609e-09
-1.14833e-09
8.3281e-09
-1.00633e-09
8.58839e-09
-9.65647e-10
8.86025e-09
-1.01158e-09
9.16559e-09
-1.14369e-09
9.52832e-09
-1.37867e-09
9.9774e-09
-1.75915e-09
1.05465e-08
-2.3744e-09
1.12534e-08
-3.40322e-09
1.19815e-08
-5.177e-09
-8.1146e-09
1.20291e-08
2.32103e-09
-9.36373e-09
4.24956e-09
-7.9012e-09
5.71336e-09
-6.12701e-09
6.7707e-09
-4.52682e-09
7.52165e-09
-3.28447e-09
8.06104e-09
-2.40425e-09
8.46372e-09
-1.82302e-09
8.78457e-09
-1.46917e-09
9.06312e-09
-1.28488e-09
9.32861e-09
-1.23114e-09
9.60421e-09
-1.28718e-09
9.91016e-09
-1.44965e-09
1.02659e-08
-1.73441e-09
1.06896e-08
-2.18289e-09
1.11903e-08
-2.87508e-09
1.17342e-08
-3.94708e-09
1.2141e-08
-5.58379e-09
-7.85483e-09
1.18812e-08
2.62403e-09
-1.19878e-08
4.77049e-09
-1.00477e-08
6.36553e-09
-7.72206e-09
7.49309e-09
-5.65438e-09
8.27839e-09
-4.06977e-09
8.83325e-09
-2.95911e-09
9.24223e-09
-2.232e-09
9.56523e-09
-1.79217e-09
9.84403e-09
-1.56368e-09
1.01084e-08
-1.49547e-09
1.03804e-08
-1.55925e-09
1.06777e-08
-1.74693e-09
1.10137e-08
-2.0704e-09
1.13948e-08
-2.56398e-09
1.18082e-08
-3.28852e-09
1.21897e-08
-4.32851e-09
1.23585e-08
-5.75259e-09
-7.46957e-09
1.19732e-08
2.99821e-09
-1.4986e-08
5.39887e-09
-1.24483e-08
7.13226e-09
-9.45545e-09
8.32238e-09
-6.8445e-09
9.12966e-09
-4.87705e-09
9.68758e-09
-3.51703e-09
1.0092e-08
-2.63637e-09
1.04077e-08
-2.10796e-09
1.06784e-08
-1.83435e-09
1.09334e-08
-1.7505e-09
1.11932e-08
-1.81898e-09
1.14713e-08
-2.02511e-09
1.17748e-08
-2.37387e-09
1.2099e-08
-2.88812e-09
1.24156e-08
-3.60516e-09
1.26495e-08
-4.56238e-09
1.26509e-08
-5.75399e-09
-7.04066e-09
1.2222e-08
3.47334e-09
-1.84593e-08
6.17429e-09
-1.51493e-08
8.05001e-09
-1.13312e-08
9.28783e-09
-8.08233e-09
1.00977e-08
-5.68688e-09
1.06406e-08
-4.05997e-09
1.10252e-08
-3.02097e-09
1.13212e-08
-2.40395e-09
1.15729e-08
-2.08605e-09
1.18085e-08
-1.9861e-09
1.20456e-08
-2.05608e-09
1.22935e-08
-2.27304e-09
1.25525e-08
-2.63286e-09
1.28092e-08
-3.14484e-09
1.30273e-08
-3.82321e-09
1.31347e-08
-4.66984e-09
1.30215e-08
-5.64078e-09
-6.60279e-09
1.25837e-08
4.09512e-09
-2.25544e-08
7.15378e-09
-1.82079e-08
9.16794e-09
-1.33453e-08
1.04264e-08
-9.34076e-09
1.12088e-08
-6.46928e-09
1.17109e-08
-4.56206e-09
1.2055e-08
-3.36512e-09
1.23147e-08
-2.66368e-09
1.25338e-08
-2.30508e-09
1.27378e-08
-2.19013e-09
1.29407e-08
-2.259e-09
1.3147e-08
-2.47932e-09
1.33511e-08
-2.83695e-09
1.35338e-08
-3.32758e-09
1.3657e-08
-3.94641e-09
1.36599e-08
-4.67275e-09
1.34688e-08
-5.44959e-09
-6.16918e-09
1.30351e-08
4.93694e-09
-2.74914e-08
8.42199e-09
-2.1693e-08
1.05534e-08
-1.54768e-08
1.17851e-08
-1.05724e-08
1.24944e-08
-7.17862e-09
1.29192e-08
-4.98686e-09
1.31952e-08
-3.64116e-09
1.33976e-08
-2.86602e-09
1.35672e-08
-2.47467e-09
1.37255e-08
-2.34843e-09
1.38816e-08
-2.41516e-09
1.40352e-08
-2.63287e-09
1.41758e-08
-2.97757e-09
1.42815e-08
-3.43327e-09
1.43167e-08
-3.98162e-09
1.42346e-08
-4.59064e-09
1.39896e-08
-5.20458e-09
-5.74354e-09
1.35639e-08
6.12217e-09
-3.36135e-08
1.01079e-08
-2.56786e-08
1.22997e-08
-1.76687e-08
1.34233e-08
-1.16959e-08
1.3991e-08
-7.74634e-09
1.4288e-08
-5.28381e-09
1.44598e-08
-3.81295e-09
1.45784e-08
-2.98468e-09
1.46786e-08
-2.57484e-09
1.47752e-08
-2.44505e-09
1.48715e-08
-2.51145e-09
1.49619e-08
-2.72326e-09
1.50325e-08
-3.04818e-09
1.50607e-08
-3.46148e-09
1.50161e-08
-3.93696e-09
1.48648e-08
-4.43942e-09
1.45813e-08
-4.92101e-09
-5.32551e-09
1.41632e-08
6.52896e-09
-4.01425e-08
1.03304e-08
-2.94801e-08
1.21304e-08
-1.94686e-08
1.28907e-08
-1.24563e-08
1.31822e-08
-8.03789e-09
1.32808e-08
-5.38237e-09
1.33093e-08
-3.84141e-09
1.33198e-08
-2.99517e-09
1.33325e-08
-2.58755e-09
1.33525e-08
-2.46512e-09
1.33769e-08
-2.53582e-09
1.33968e-08
-2.74312e-09
1.33982e-08
-3.04962e-09
1.33627e-08
-3.426e-09
1.32689e-08
-3.84311e-09
1.30965e-08
-4.26701e-09
1.28335e-08
-4.65806e-09
-4.97576e-09
1.24838e-08
9.70284e-09
-4.98453e-08
1.45212e-08
-3.42985e-08
1.63243e-08
-2.12717e-08
1.6816e-08
-1.2948e-08
1.683e-08
-8.05185e-09
1.67048e-08
-5.25719e-09
1.65646e-08
-3.70116e-09
1.64486e-08
-2.87915e-09
1.63637e-08
-2.50266e-09
1.63041e-08
-2.40559e-09
1.62585e-08
-2.49016e-09
1.62116e-08
-2.69624e-09
1.61455e-08
-2.98352e-09
1.60401e-08
-3.32059e-09
1.58754e-08
-3.67843e-09
1.56356e-08
-4.02719e-09
1.53141e-08
-4.33655e-09
-4.5794e-09
1.49177e-08
1.56667e-08
-6.55121e-08
2.14318e-08
-4.00635e-08
2.25949e-08
-2.24348e-08
2.22952e-08
-1.26483e-08
2.16886e-08
-7.44524e-09
2.11222e-08
-4.69077e-09
2.0672e-08
-3.25094e-09
2.03332e-08
-2.54039e-09
2.00812e-08
-2.25062e-09
1.98886e-08
-2.21304e-09
1.97297e-08
-2.33121e-09
1.95799e-08
-2.54649e-09
1.94161e-08
-2.8197e-09
1.92166e-08
-3.12112e-09
1.89633e-08
-3.42513e-09
1.86443e-08
-3.70818e-09
1.8257e-08
-3.94924e-09
-4.13186e-09
1.78095e-08
2.86638e-08
-9.41759e-08
3.36854e-08
-4.50851e-08
3.22654e-08
-2.10149e-08
3.00172e-08
-1.04001e-08
2.81577e-08
-5.58573e-09
2.67946e-08
-3.32768e-09
2.58215e-08
-2.27781e-09
2.51227e-08
-1.84157e-09
2.46083e-08
-1.73626e-09
2.42124e-08
-1.81717e-09
2.38858e-08
-2.00455e-09
2.35901e-08
-2.25079e-09
2.32948e-08
-2.52443e-09
2.29759e-08
-2.80222e-09
2.26161e-08
-3.06534e-09
2.2206e-08
-3.2981e-09
2.17449e-08
-3.48811e-09
-3.62712e-09
2.12402e-08
6.32468e-08
-1.57423e-07
5.66906e-08
-3.85289e-08
4.7095e-08
-1.14193e-08
4.06036e-08
-3.90871e-09
3.65077e-08
-1.48985e-09
3.3877e-08
-6.96972e-10
3.21258e-08
-5.26663e-10
3.09123e-08
-6.28031e-10
3.00326e-08
-8.5658e-10
2.93598e-08
-1.14432e-09
2.881e-08
-1.45478e-09
2.83257e-08
-1.76649e-09
2.78663e-08
-2.06501e-09
2.74036e-08
-2.3395e-09
2.69196e-08
-2.58139e-09
2.64056e-08
-2.78406e-09
2.58606e-08
-2.94315e-09
-3.05679e-09
2.52903e-08
1.83001e-07
1.59131e-07
9.68088e-08
4.76629e-08
6.65803e-08
1.88092e-08
5.32471e-08
9.42449e-09
4.62606e-08
5.49663e-09
4.21401e-08
3.42347e-09
3.94998e-08
2.1137e-09
3.76948e-08
1.17695e-09
3.63873e-08
4.50925e-10
3.53816e-08
-1.38644e-10
3.45559e-08
-6.29106e-10
3.38366e-08
-1.04712e-09
3.31748e-08
-1.40323e-09
3.25388e-08
-1.70352e-09
3.19092e-08
-1.9518e-09
3.12761e-08
-2.15094e-09
3.06367e-08
-2.30374e-09
-2.41339e-09
2.99933e-08
7.72317e-08
8.18992e-08
7.54115e-08
4.94831e-08
6.53502e-08
2.88705e-08
5.73413e-08
1.74335e-08
5.18485e-08
1.09894e-08
4.81238e-08
7.14815e-09
4.55346e-08
4.70284e-09
4.36655e-08
3.04609e-09
4.22546e-08
1.86185e-09
4.11377e-08
9.78258e-10
4.02109e-08
2.97667e-10
3.93972e-08
-2.33452e-10
3.86469e-08
-6.52912e-10
3.79324e-08
-9.88998e-10
3.72371e-08
-1.25651e-09
3.65523e-08
-1.46614e-09
3.58748e-08
-1.62622e-09
-1.74366e-09
3.5205e-08
3.59392e-08
4.59599e-08
5.01232e-08
3.52992e-08
5.38064e-08
2.51873e-08
5.36319e-08
1.76079e-08
5.23211e-08
1.23002e-08
5.08444e-08
8.62493e-09
4.94969e-08
6.05031e-09
4.83336e-08
4.20934e-09
4.73328e-08
2.86265e-09
4.6455e-08
1.85608e-09
4.56629e-08
1.08978e-09
4.49314e-08
4.98098e-10
4.42415e-08
3.69857e-11
4.35714e-08
-3.18917e-10
4.29121e-08
-5.97283e-10
4.22598e-08
-8.13826e-10
4.16136e-08
-9.79993e-10
-1.10477e-09
4.09747e-08
1.43035e-08
3.16565e-08
2.32893e-08
2.63133e-08
2.80978e-08
2.03788e-08
3.04498e-08
1.52559e-08
3.15025e-08
1.12475e-08
3.18964e-08
8.23107e-09
3.19597e-08
5.98698e-09
3.18548e-08
4.31422e-09
3.16605e-08
3.057e-09
3.14145e-08
2.10209e-09
3.11351e-08
1.36918e-09
3.08315e-08
8.01637e-10
3.05091e-08
3.59365e-10
3.01765e-08
1.37091e-11
2.98317e-08
-2.52515e-10
2.94778e-08
-4.59863e-10
2.91178e-08
-6.20034e-10
-7.41943e-10
2.8755e-08
8.56849e-09
2.3088e-08
1.49636e-08
1.99182e-08
1.92101e-08
1.61323e-08
2.18769e-08
1.25891e-08
2.35084e-08
9.61596e-09
2.44903e-08
7.2492e-09
2.50669e-08
5.41044e-09
2.53863e-08
3.9948e-09
2.55375e-08
2.90578e-09
2.55744e-08
2.06521e-09
2.55304e-08
1.41312e-09
2.54274e-08
9.04713e-10
2.52799e-08
5.06787e-10
2.50989e-08
1.94708e-10
2.48955e-08
-4.90621e-11
2.4673e-08
-2.37349e-10
2.44366e-08
-3.83685e-10
-4.96174e-10
2.41909e-08
5.78509e-09
1.73029e-08
1.04754e-08
1.52279e-08
1.39457e-08
1.2662e-08
1.63916e-08
1.01432e-08
1.80747e-08
7.93283e-09
1.92188e-08
6.10517e-09
1.99881e-08
4.64109e-09
2.04962e-08
3.48666e-09
2.08197e-08
2.58237e-09
2.10099e-08
1.87496e-09
2.11022e-08
1.32082e-09
2.11212e-08
8.85755e-10
2.10845e-08
5.43463e-10
2.10053e-08
2.73894e-10
2.08945e-08
6.17454e-11
2.07602e-08
-1.03093e-10
2.06077e-08
-2.31126e-10
-3.30285e-10
2.04418e-08
4.21336e-09
1.30895e-08
7.78568e-09
1.16556e-08
1.05967e-08
9.85103e-09
1.27126e-08
8.02723e-09
1.42661e-08
6.3794e-09
1.53899e-08
4.9813e-09
1.6194e-08
3.837e-09
1.67617e-08
2.91898e-09
1.71541e-08
2.19004e-09
1.74152e-08
1.61382e-09
1.75772e-08
1.15884e-09
1.76635e-08
7.99441e-10
1.76916e-08
5.15329e-10
1.76748e-08
2.90682e-10
1.76234e-08
1.13232e-10
1.75464e-08
-2.61215e-11
1.74494e-08
-1.34113e-10
-2.18243e-10
1.73373e-08
3.2256e-09
9.86394e-09
6.03317e-09
8.84801e-09
8.32679e-09
7.55741e-09
1.01251e-08
6.22895e-09
1.14992e-08
5.0053e-09
1.25318e-08
3.94871e-09
1.3298e-08
3.07081e-09
1.38592e-08
2.35773e-09
1.42634e-08
1.78583e-09
1.45471e-08
1.33016e-09
1.47378e-08
9.68105e-10
1.48566e-08
6.80683e-10
1.49194e-08
4.52539e-10
1.49385e-08
2.71504e-10
1.49237e-08
1.28018e-10
1.4883e-08
1.45793e-11
1.48225e-08
-7.35294e-11
-1.42314e-10
1.47465e-08
2.55394e-09
7.31e-09
4.81333e-09
6.58862e-09
6.70355e-09
5.66719e-09
8.22497e-09
4.70752e-09
9.41813e-09
3.81215e-09
1.03372e-08
3.02967e-09
1.10353e-08
2.37268e-09
1.15587e-08
1.83429e-09
1.19452e-08
1.39935e-09
1.22246e-08
1.05074e-09
1.24203e-08
7.72408e-10
1.25504e-08
5.50568e-10
1.26291e-08
3.73881e-10
1.26674e-08
2.3325e-10
1.26739e-08
1.21459e-10
1.26557e-08
3.28048e-11
1.26188e-08
-3.65935e-11
-9.06932e-11
1.25671e-08
2.06879e-09
5.24121e-09
3.91816e-09
4.73924e-09
5.48943e-09
4.09593e-09
6.77619e-09
3.42076e-09
7.80293e-09
2.78541e-09
8.60699e-09
2.2256e-09
9.22753e-09
1.75214e-09
9.7001e-09
1.36171e-09
1.00548e-08
1.04463e-09
1.03162e-08
7.89356e-10
1.05038e-08
5.84781e-10
1.06332e-08
4.21205e-10
1.07165e-08
2.90554e-10
1.07635e-08
1.86294e-10
1.07817e-08
1.03202e-10
1.07774e-08
3.71355e-11
1.07557e-08
-1.49166e-11
-5.54295e-11
1.07205e-08
1.70108e-09
3.54013e-09
3.23212e-09
3.2082e-09
4.54617e-09
2.78188e-09
5.63474e-09
2.33219e-09
6.51353e-09
1.90661e-09
7.20958e-09
1.52956e-09
7.75267e-09
1.20904e-09
8.17082e-09
9.43566e-10
8.48833e-09
7.27126e-10
8.7254e-09
5.52288e-10
8.89841e-09
4.11765e-10
9.02051e-09
2.99109e-10
9.10215e-09
2.08913e-10
9.15167e-09
1.36768e-10
9.17574e-09
7.91397e-11
9.17966e-09
3.32087e-11
9.16794e-09
-3.19338e-12
-3.14367e-11
9.14395e-09
1.41069e-09
2.12944e-09
2.68608e-09
1.93282e-09
3.78805e-09
1.6799e-09
4.70797e-09
1.41227e-09
5.45656e-09
1.15803e-09
6.05419e-09
9.31927e-10
6.52418e-09
7.39059e-10
6.88895e-09
5.78797e-10
7.16831e-09
4.47761e-10
7.37897e-09
3.41633e-10
7.5346e-09
2.5613e-10
7.64629e-09
1.87428e-10
7.72289e-09
1.32305e-10
7.77154e-09
8.81189e-11
7.79794e-09
5.27458e-11
7.80666e-09
2.44859e-11
7.80149e-09
1.98017e-12
-1.54346e-11
7.78548e-09
1.1715e-09
9.57946e-10
2.2338e-09
8.70512e-10
3.15577e-09
7.57935e-10
3.92949e-09
6.38554e-10
4.56265e-09
5.24863e-10
5.07108e-09
4.23497e-10
5.47333e-09
3.36812e-10
5.78752e-09
2.64608e-10
6.02984e-09
2.05434e-10
6.21407e-09
1.57403e-10
6.35158e-09
1.18624e-10
6.45161e-09
8.73992e-11
6.52162e-09
6.22927e-11
6.56761e-09
4.21247e-11
6.59442e-09
2.59426e-11
6.60592e-09
1.29831e-11
6.60527e-09
2.63384e-12
-5.33312e-12
6.59516e-09
9.57946e-10
1.82846e-09
2.58639e-09
3.22495e-09
3.74981e-09
4.17331e-09
4.51012e-09
4.77473e-09
4.98016e-09
5.13756e-09
5.25619e-09
5.34359e-09
5.40588e-09
5.448e-09
5.47395e-09
5.48693e-09
5.48956e-09
5.48423e-09
2.16148e-10
-2.16148e-10
4.33664e-10
-2.17517e-10
6.52417e-10
-2.18753e-10
8.72264e-10
-2.19847e-10
1.09305e-09
-2.20784e-10
1.3146e-09
-2.21554e-10
1.53675e-09
-2.22144e-10
1.75929e-09
-2.22545e-10
1.98204e-09
-2.22751e-10
2.20481e-09
-2.22764e-10
2.4274e-09
-2.22595e-10
2.64967e-09
-2.22264e-10
2.87147e-09
-2.21805e-10
3.09274e-09
-2.21264e-10
3.31344e-09
-2.20707e-10
3.53366e-09
-2.20214e-10
3.75354e-09
-2.19885e-10
3.97337e-09
-2.19829e-10
4.19353e-09
-2.20161e-10
4.41453e-09
-2.20994e-10
4.63696e-09
-2.22436e-10
4.86154e-09
-2.24584e-10
5.08907e-09
-2.27526e-10
5.32041e-09
-2.31341e-10
5.5565e-09
-2.3609e-10
5.79832e-09
-2.41816e-10
6.04685e-09
-2.48532e-10
6.30307e-09
-2.56217e-10
6.56788e-09
-2.64811e-10
6.8421e-09
-2.74227e-10
7.12648e-09
-2.84372e-10
7.42167e-09
-2.95192e-10
7.7284e-09
-3.06729e-10
8.04758e-09
-3.19185e-10
8.38056e-09
-3.32978e-10
8.72934e-09
-3.4878e-10
9.0969e-09
-3.6756e-10
9.48755e-09
-3.9065e-10
9.90743e-09
-4.19882e-10
1.03653e-08
-4.57863e-10
1.08738e-08
-5.08531e-10
1.14521e-08
-5.78251e-10
1.21302e-08
-6.78164e-10
1.29598e-08
-8.29516e-10
1.40363e-08
-1.07654e-09
1.55549e-08
-1.51865e-09
1.79412e-08
-2.38623e-09
2.24862e-08
-4.54504e-09
2.16099e-08
8.76285e-10
2.01047e-08
1.50521e-09
1.91124e-08
9.92302e-10
1.8358e-08
7.54418e-10
1.77365e-08
6.21472e-10
1.7203e-08
5.33505e-10
1.67348e-08
4.68259e-10
1.6318e-08
4.16725e-10
1.59433e-08
3.74715e-10
1.56034e-08
3.3989e-10
1.52928e-08
3.10689e-10
1.50068e-08
2.85943e-10
1.47421e-08
2.64731e-10
1.44958e-08
2.4632e-10
1.42656e-08
2.30135e-10
1.40499e-08
2.15728e-10
1.38471e-08
2.02756e-10
1.36562e-08
1.90962e-10
1.3476e-08
1.80151e-10
1.33059e-08
1.70175e-10
1.31449e-08
1.60922e-10
1.29926e-08
1.52303e-10
1.28484e-08
1.4425e-10
1.27117e-08
1.36706e-10
1.2582e-08
1.29625e-10
1.24591e-08
1.22966e-10
1.23424e-08
1.16697e-10
1.22316e-08
1.10787e-10
1.21264e-08
1.05211e-10
1.20264e-08
9.99454e-11
1.19315e-08
9.49693e-11
1.18412e-08
9.02641e-11
1.17554e-08
8.58131e-11
1.16738e-08
8.1601e-11
1.15962e-08
7.76136e-11
1.15223e-08
7.38383e-11
1.14521e-08
7.02632e-11
1.13852e-08
6.68776e-11
1.13215e-08
6.36713e-11
1.12609e-08
6.06352e-11
1.12031e-08
5.77605e-11
1.11481e-08
5.5039e-11
1.10956e-08
5.24633e-11
1.10456e-08
5.00261e-11
1.09979e-08
4.7721e-11
1.09523e-08
4.55412e-11
1.09089e-08
4.34812e-11
1.08673e-08
4.15349e-11
1.08276e-08
3.96971e-11
1.07897e-08
3.79628e-11
1.07533e-08
3.63269e-11
1.07186e-08
3.47849e-11
1.06852e-08
3.33322e-11
1.06533e-08
3.19649e-11
1.06226e-08
3.06784e-11
1.05931e-08
2.94694e-11
1.05648e-08
2.83337e-11
1.05375e-08
2.72681e-11
1.05112e-08
2.6269e-11
1.04859e-08
2.53333e-11
1.04614e-08
2.44577e-11
1.04378e-08
2.36394e-11
1.04149e-08
2.28754e-11
1.03928e-08
2.2163e-11
1.03713e-08
2.14996e-11
1.03504e-08
2.08826e-11
1.03301e-08
2.03097e-11
1.03103e-08
1.97786e-11
1.0291e-08
1.9287e-11
1.02722e-08
1.8833e-11
1.02538e-08
1.84143e-11
1.02357e-08
1.80293e-11
1.02181e-08
1.76759e-11
1.02007e-08
1.73526e-11
1.01836e-08
1.70575e-11
1.01669e-08
1.67892e-11
1.01503e-08
1.65462e-11
1.0134e-08
1.63267e-11
1.01179e-08
1.613e-11
1.01019e-08
1.59542e-11
1.00861e-08
1.57984e-11
1.00704e-08
1.56614e-11
1.00549e-08
1.55419e-11
1.00395e-08
1.54392e-11
1.00241e-08
1.5352e-11
1.00088e-08
1.52795e-11
9.99361e-09
1.52208e-11
9.97843e-09
1.51752e-11
9.96329e-09
1.51417e-11
9.94817e-09
1.51199e-11
9.93306e-09
1.51088e-11
9.91795e-09
1.51079e-11
9.90284e-09
1.51167e-11
9.8877e-09
1.51346e-11
9.87254e-09
1.51613e-11
9.85734e-09
1.51962e-11
9.84211e-09
1.5239e-11
9.82682e-09
1.52894e-11
9.81147e-09
1.53472e-11
9.79606e-09
1.54124e-11
9.78057e-09
1.54849e-11
9.76501e-09
1.55647e-11
9.74935e-09
1.56519e-11
9.73361e-09
1.57473e-11
9.71776e-09
1.58512e-11
9.70179e-09
1.59644e-11
9.6857e-09
1.60882e-11
9.66948e-09
1.62241e-11
9.65311e-09
1.63744e-11
9.63656e-09
1.65417e-11
9.61983e-09
1.67298e-11
9.60289e-09
1.69432e-11
9.5857e-09
1.71883e-11
9.56823e-09
1.74733e-11
9.55042e-09
1.78089e-11
9.53221e-09
1.82091e-11
9.51352e-09
1.86928e-11
9.49423e-09
1.92851e-11
9.47421e-09
2.00193e-11
9.45327e-09
2.09416e-11
9.43116e-09
2.21152e-11
9.40753e-09
2.36292e-11
9.38192e-09
2.56114e-11
9.35367e-09
2.82511e-11
9.32183e-09
3.18381e-11
9.28499e-09
3.68387e-11
9.24094e-09
4.40496e-11
9.18599e-09
5.49528e-11
9.11334e-09
7.26478e-11
9.00851e-09
1.04833e-10
8.83228e-09
1.76224e-10
4.00849e-10
8.43143e-09
2.4911e-10
-4.65258e-10
4.99862e-10
-4.68268e-10
7.52126e-10
-4.71018e-10
1.00577e-09
-4.73493e-10
1.26067e-09
-4.75681e-10
1.51669e-09
-4.77579e-10
1.77375e-09
-4.79202e-10
2.03177e-09
-4.80566e-10
2.29072e-09
-4.81695e-10
2.55056e-09
-4.82612e-10
2.81131e-09
-4.83344e-10
3.07297e-09
-4.8392e-10
3.33553e-09
-4.84371e-10
3.599e-09
-4.84735e-10
3.86335e-09
-4.85055e-10
4.12852e-09
-4.85378e-10
4.39439e-09
-4.85763e-10
4.66084e-09
-4.86275e-10
4.92767e-09
-4.8699e-10
5.19467e-09
-4.87993e-10
5.46161e-09
-4.89379e-10
5.72828e-09
-4.91248e-10
5.99446e-09
-4.93704e-10
6.25997e-09
-4.96859e-10
6.52471e-09
-5.00825e-10
6.78862e-09
-5.05725e-10
7.05177e-09
-5.11689e-10
7.31441e-09
-5.18851e-10
7.57695e-09
-5.27354e-10
7.84009e-09
-5.37362e-10
8.10479e-09
-5.49078e-10
8.37238e-09
-5.62777e-10
8.64451e-09
-5.78859e-10
8.92322e-09
-5.97896e-10
9.21094e-09
-6.20703e-10
9.51057e-09
-6.48403e-10
9.82553e-09
-6.82526e-10
1.016e-08
-7.25131e-10
1.05191e-08
-7.79013e-10
1.09093e-08
-8.48016e-10
1.13383e-08
-9.3752e-10
1.18152e-08
-1.05517e-09
1.23489e-08
-1.21189e-09
1.29422e-08
-1.42276e-09
1.35718e-08
-1.70613e-09
1.41268e-08
-2.07373e-09
1.42266e-08
-2.48599e-09
1.23724e-08
-2.69083e-09
1.89332e-08
-5.68457e-09
1.90558e-08
1.38261e-09
1.86301e-08
1.41803e-09
1.80905e-08
1.29399e-09
1.7561e-08
1.15096e-09
1.70742e-08
1.02038e-09
1.66341e-08
9.0829e-10
1.6237e-08
8.13887e-10
1.58769e-08
7.34776e-10
1.55484e-08
6.6841e-10
1.52466e-08
6.12447e-10
1.49677e-08
5.64847e-10
1.47086e-08
5.23905e-10
1.44666e-08
4.88234e-10
1.424e-08
4.56746e-10
1.40272e-08
4.28601e-10
1.38268e-08
4.03164e-10
1.36378e-08
3.79959e-10
1.34593e-08
3.58629e-10
1.32906e-08
3.38903e-10
1.31309e-08
3.20574e-10
1.29797e-08
3.03481e-10
1.28365e-08
2.87493e-10
1.27007e-08
2.72505e-10
1.25719e-08
2.58427e-10
1.24497e-08
2.45184e-10
1.23336e-08
2.3271e-10
1.22235e-08
2.20947e-10
1.21189e-08
2.09846e-10
1.20194e-08
1.9936e-10
1.1925e-08
1.89448e-10
1.18352e-08
1.80075e-10
1.17498e-08
1.71207e-10
1.16685e-08
1.62813e-10
1.15913e-08
1.54866e-10
1.15178e-08
1.47341e-10
1.14478e-08
1.40214e-10
1.13813e-08
1.33465e-10
1.13179e-08
1.27072e-10
1.12575e-08
1.21018e-10
1.11999e-08
1.15285e-10
1.11451e-08
1.09858e-10
1.10929e-08
1.04722e-10
1.1043e-08
9.98609e-11
1.09955e-08
9.5263e-11
1.09501e-08
9.09154e-11
1.09068e-08
8.68062e-11
1.08654e-08
8.2924e-11
1.08258e-08
7.92582e-11
1.0788e-08
7.57983e-11
1.07518e-08
7.25352e-11
1.07171e-08
6.94589e-11
1.06839e-08
6.65611e-11
1.0652e-08
6.3833e-11
1.06214e-08
6.12668e-11
1.05921e-08
5.88547e-11
1.05638e-08
5.65892e-11
1.05366e-08
5.44632e-11
1.05104e-08
5.24701e-11
1.04851e-08
5.06034e-11
1.04607e-08
4.88566e-11
1.04371e-08
4.72241e-11
1.04143e-08
4.56999e-11
1.03922e-08
4.42787e-11
1.03707e-08
4.29551e-11
1.03499e-08
4.17245e-11
1.03296e-08
4.05815e-11
1.03099e-08
3.95221e-11
1.02906e-08
3.85416e-11
1.02718e-08
3.76358e-11
1.02534e-08
3.68008e-11
1.02354e-08
3.60328e-11
1.02178e-08
3.53281e-11
1.02005e-08
3.46832e-11
1.01834e-08
3.40947e-11
1.01667e-08
3.35596e-11
1.01501e-08
3.30749e-11
1.01338e-08
3.26377e-11
1.01177e-08
3.22452e-11
1.01018e-08
3.18949e-11
1.0086e-08
3.15844e-11
1.00703e-08
3.13113e-11
1.00548e-08
3.10734e-11
1.00394e-08
3.08687e-11
1.0024e-08
3.06951e-11
1.00087e-08
3.05509e-11
9.99353e-09
3.04343e-11
9.97837e-09
3.03435e-11
9.96323e-09
3.02773e-11
9.94812e-09
3.02339e-11
9.93301e-09
3.02123e-11
9.91791e-09
3.0211e-11
9.9028e-09
3.02291e-11
9.88767e-09
3.02652e-11
9.87251e-09
3.03189e-11
9.85732e-09
3.03888e-11
9.84208e-09
3.04747e-11
9.82679e-09
3.05758e-11
9.81145e-09
3.06917e-11
9.79604e-09
3.08221e-11
9.78056e-09
3.0967e-11
9.765e-09
3.11266e-11
9.74935e-09
3.13012e-11
9.7336e-09
3.14918e-11
9.71775e-09
3.16992e-11
9.70179e-09
3.19255e-11
9.68571e-09
3.21728e-11
9.66949e-09
3.24444e-11
9.65312e-09
3.27442e-11
9.63658e-09
3.30779e-11
9.61986e-09
3.34527e-11
9.60292e-09
3.3878e-11
9.58575e-09
3.43665e-11
9.56829e-09
3.49338e-11
9.55049e-09
3.56016e-11
9.5323e-09
3.6398e-11
9.51364e-09
3.73597e-11
9.49439e-09
3.85365e-11
9.47441e-09
3.9995e-11
9.45353e-09
4.18259e-11
9.43149e-09
4.41538e-11
9.40796e-09
4.71546e-11
9.38249e-09
5.10794e-11
9.35445e-09
5.62983e-11
9.32291e-09
6.33766e-11
9.28653e-09
7.3215e-11
9.24324e-09
8.73364e-11
9.18968e-09
1.08518e-10
9.11996e-09
1.42367e-10
9.02297e-09
2.01825e-10
8.87703e-09
3.22166e-10
6.16185e-10
8.66169e-09
2.62098e-10
-7.27356e-10
5.25948e-10
-7.32118e-10
7.91364e-10
-7.36433e-10
1.05817e-09
-7.40298e-10
1.32618e-09
-7.43697e-10
1.59525e-09
-7.46642e-10
1.86521e-09
-7.49167e-10
2.13596e-09
-7.51317e-10
2.40741e-09
-7.53143e-10
2.67949e-09
-7.54693e-10
2.95216e-09
-7.56012e-10
3.22538e-09
-7.57142e-10
3.49913e-09
-7.58119e-10
3.77337e-09
-7.58972e-10
4.04803e-09
-7.5972e-10
4.32302e-09
-7.60368e-10
4.59818e-09
-7.60916e-10
4.87326e-09
-7.61356e-10
5.14796e-09
-7.6169e-10
5.4219e-09
-7.61939e-10
5.69468e-09
-7.6216e-10
5.96588e-09
-7.62448e-10
6.23513e-09
-7.6295e-10
6.50212e-09
-7.63854e-10
6.76669e-09
-7.65389e-10
7.02878e-09
-7.67816e-10
7.28851e-09
-7.71425e-10
7.5462e-09
-7.76532e-10
7.80232e-09
-7.83482e-10
8.05762e-09
-7.92659e-10
8.31305e-09
-8.04504e-10
8.56982e-09
-8.19547e-10
8.8294e-09
-8.38444e-10
9.09354e-09
-8.62036e-10
9.36425e-09
-8.91407e-10
9.6438e-09
-9.27959e-10
9.93479e-09
-9.7351e-10
1.02401e-08
-1.03042e-09
1.05628e-08
-1.10177e-09
1.09064e-08
-1.19156e-09
1.12739e-08
-1.30509e-09
1.1668e-08
-1.44927e-09
1.20892e-08
-1.63307e-09
1.25343e-08
-1.86782e-09
1.29953e-08
-2.16715e-09
1.34685e-08
-2.5469e-09
1.40116e-08
-3.02909e-09
1.49923e-08
-3.67154e-09
1.40209e-08
-4.71319e-09
1.90681e-08
-3.66461e-09
1.83671e-08
2.11909e-09
1.77966e-08
1.86444e-09
1.72976e-08
1.64999e-09
1.68514e-08
1.46654e-09
1.64491e-08
1.31062e-09
1.60839e-08
1.17909e-09
1.57501e-08
1.06862e-09
1.54427e-08
9.75797e-10
1.51577e-08
8.97372e-10
1.48921e-08
8.30441e-10
1.46435e-08
7.7257e-10
1.44099e-08
7.21816e-10
1.419e-08
6.76682e-10
1.39825e-08
6.36049e-10
1.37866e-08
5.99085e-10
1.36014e-08
5.65177e-10
1.34261e-08
5.33868e-10
1.32602e-08
5.04813e-10
1.31031e-08
4.77744e-10
1.29541e-08
4.52448e-10
1.28128e-08
4.28752e-10
1.26788e-08
4.06511e-10
1.25517e-08
3.85601e-10
1.24309e-08
3.65917e-10
1.23163e-08
3.47364e-10
1.22074e-08
3.29862e-10
1.21039e-08
3.13335e-10
1.20055e-08
2.97719e-10
1.1912e-08
2.82953e-10
1.18231e-08
2.68985e-10
1.17385e-08
2.55766e-10
1.16581e-08
2.43251e-10
1.15816e-08
2.314e-10
1.15087e-08
2.20176e-10
1.14394e-08
2.09544e-10
1.13734e-08
1.99473e-10
1.13105e-08
1.89933e-10
1.12506e-08
1.80898e-10
1.11936e-08
1.72341e-10
1.11392e-08
1.6424e-10
1.10874e-08
1.56571e-10
1.10379e-08
1.49314e-10
1.09907e-08
1.42448e-10
1.09457e-08
1.35957e-10
1.09027e-08
1.2982e-10
1.08616e-08
1.24022e-10
1.08223e-08
1.18548e-10
1.07847e-08
1.13381e-10
1.07487e-08
1.08506e-10
1.07143e-08
1.03912e-10
1.06812e-08
9.95835e-11
1.06496e-08
9.55088e-11
1.06192e-08
9.16756e-11
1.05899e-08
8.80725e-11
1.05618e-08
8.46884e-11
1.05348e-08
8.15129e-11
1.05087e-08
7.85356e-11
1.04836e-08
7.57472e-11
1.04593e-08
7.31381e-11
1.04358e-08
7.06994e-11
1.04131e-08
6.84228e-11
1.03911e-08
6.63e-11
1.03697e-08
6.43231e-11
1.0349e-08
6.24849e-11
1.03288e-08
6.0778e-11
1.03091e-08
5.91957e-11
1.02899e-08
5.77313e-11
1.02712e-08
5.63787e-11
1.02528e-08
5.51318e-11
1.02349e-08
5.39849e-11
1.02173e-08
5.29326e-11
1.02e-08
5.19698e-11
1.0183e-08
5.10913e-11
1.01663e-08
5.02928e-11
1.01498e-08
4.95692e-11
1.01335e-08
4.89168e-11
1.01174e-08
4.83313e-11
1.01015e-08
4.78087e-11
1.00857e-08
4.73456e-11
1.00701e-08
4.69385e-11
1.00546e-08
4.65839e-11
1.00392e-08
4.6279e-11
1.00238e-08
4.60207e-11
1.00086e-08
4.58062e-11
9.99339e-09
4.56328e-11
9.97823e-09
4.54983e-11
9.96311e-09
4.54003e-11
9.94801e-09
4.53367e-11
9.93291e-09
4.53054e-11
9.91782e-09
4.53045e-11
9.90272e-09
4.53325e-11
9.8876e-09
4.53878e-11
9.87245e-09
4.54689e-11
9.85726e-09
4.55746e-11
9.84203e-09
4.57041e-11
9.82675e-09
4.58562e-11
9.81141e-09
4.60303e-11
9.79601e-09
4.62264e-11
9.78053e-09
4.64439e-11
9.76497e-09
4.66834e-11
9.74933e-09
4.69453e-11
9.73359e-09
4.72308e-11
9.71775e-09
4.75417e-11
9.70179e-09
4.78804e-11
9.68572e-09
4.82504e-11
9.6695e-09
4.86564e-11
9.65314e-09
4.91045e-11
9.63662e-09
4.96029e-11
9.61991e-09
5.01622e-11
9.60299e-09
5.07966e-11
9.58583e-09
5.15242e-11
9.5684e-09
5.2369e-11
9.55064e-09
5.33626e-11
9.53249e-09
5.45463e-11
9.51387e-09
5.59749e-11
9.49469e-09
5.77214e-11
9.4748e-09
5.98842e-11
9.45403e-09
6.25963e-11
9.43214e-09
6.60412e-11
9.40882e-09
7.04754e-11
9.38363e-09
7.6265e-11
9.35599e-09
8.39464e-11
9.32503e-09
9.43305e-11
9.28955e-09
1.08696e-10
9.24772e-09
1.29167e-10
9.19674e-09
1.59502e-10
9.13218e-09
2.06927e-10
9.0473e-09
2.86699e-10
8.93544e-09
4.34033e-10
7.31493e-10
8.82013e-09
2.71264e-10
-9.9862e-10
5.44378e-10
-1.00523e-09
8.19094e-10
-1.01115e-09
1.09516e-09
-1.01636e-09
1.37232e-09
-1.02086e-09
1.65032e-09
-1.02464e-09
1.92889e-09
-1.02774e-09
2.20777e-09
-1.03019e-09
2.48669e-09
-1.03206e-09
2.7654e-09
-1.0334e-09
3.04366e-09
-1.03427e-09
3.32122e-09
-1.0347e-09
3.59786e-09
-1.03476e-09
3.87337e-09
-1.03448e-09
4.14754e-09
-1.03389e-09
4.42019e-09
-1.03302e-09
4.69117e-09
-1.0319e-09
4.96035e-09
-1.03053e-09
5.22762e-09
-1.02896e-09
5.49293e-09
-1.02725e-09
5.75624e-09
-1.02547e-09
6.01756e-09
-1.02376e-09
6.27691e-09
-1.0223e-09
6.53435e-09
-1.02129e-09
6.78997e-09
-1.02101e-09
7.04392e-09
-1.02177e-09
7.2964e-09
-1.02391e-09
7.5477e-09
-1.02783e-09
7.79821e-09
-1.03399e-09
8.04845e-09
-1.0429e-09
8.29907e-09
-1.05513e-09
8.5509e-09
-1.07137e-09
8.80489e-09
-1.09244e-09
9.06217e-09
-1.11931e-09
9.32395e-09
-1.15319e-09
9.59155e-09
-1.19556e-09
9.86631e-09
-1.24827e-09
1.01495e-08
-1.3136e-09
1.04422e-08
-1.39443e-09
1.07449e-08
-1.49431e-09
1.10575e-08
-1.61768e-09
1.13782e-08
-1.77e-09
1.17031e-08
-1.95791e-09
1.20245e-08
-2.18931e-09
1.23308e-08
-2.47338e-09
1.26046e-08
-2.82076e-09
1.28198e-08
-3.24426e-09
1.29074e-08
-3.7591e-09
1.25608e-08
-4.3666e-09
1.38447e-08
-4.94848e-09
1.7845e-08
-1.88128e-09
1.73566e-08
2.3529e-09
1.69267e-08
2.0798e-09
1.65407e-08
1.85255e-09
1.61905e-08
1.66085e-09
1.58694e-08
1.50016e-09
1.5572e-08
1.36605e-09
1.52939e-08
1.25385e-09
1.50323e-08
1.15907e-09
1.47849e-08
1.0778e-09
1.45505e-08
1.00692e-09
1.43283e-08
9.44062e-10
1.41175e-08
8.87509e-10
1.39175e-08
8.36035e-10
1.37278e-08
7.88769e-10
1.35479e-08
7.45082e-10
1.33773e-08
7.04504e-10
1.32154e-08
6.66679e-10
1.30618e-08
6.31321e-10
1.29161e-08
5.98195e-10
1.27777e-08
5.67106e-10
1.26463e-08
5.37882e-10
1.25216e-08
5.10376e-10
1.2403e-08
4.84458e-10
1.22904e-08
4.60011e-10
1.21833e-08
4.36931e-10
1.20815e-08
4.15126e-10
1.19847e-08
3.94511e-10
1.18927e-08
3.75011e-10
1.18051e-08
3.56556e-10
1.17218e-08
3.39084e-10
1.16425e-08
3.22538e-10
1.1567e-08
3.06864e-10
1.14952e-08
2.92016e-10
1.14268e-08
2.77948e-10
1.13616e-08
2.64619e-10
1.12996e-08
2.51991e-10
1.12405e-08
2.40028e-10
1.11841e-08
2.28698e-10
1.11304e-08
2.17968e-10
1.10791e-08
2.0781e-10
1.10302e-08
1.98197e-10
1.09836e-08
1.89102e-10
1.0939e-08
1.805e-10
1.08965e-08
1.72369e-10
1.08558e-08
1.64687e-10
1.0817e-08
1.57432e-10
1.07797e-08
1.50584e-10
1.07441e-08
1.44124e-10
1.071e-08
1.38035e-10
1.06773e-08
1.32298e-10
1.06459e-08
1.26897e-10
1.06158e-08
1.21816e-10
1.05868e-08
1.1704e-10
1.05589e-08
1.12554e-10
1.05321e-08
1.08345e-10
1.05062e-08
1.04399e-10
1.04813e-08
1.00702e-10
1.04572e-08
9.7244e-11
1.04339e-08
9.40116e-11
1.04113e-08
9.09939e-11
1.03894e-08
8.81803e-11
1.03682e-08
8.55603e-11
1.03475e-08
8.31238e-11
1.03275e-08
8.08616e-11
1.03079e-08
7.87647e-11
1.02888e-08
7.68241e-11
1.02701e-08
7.50317e-11
1.02519e-08
7.33796e-11
1.0234e-08
7.18602e-11
1.02165e-08
7.04661e-11
1.01993e-08
6.91909e-11
1.01823e-08
6.80274e-11
1.01656e-08
6.69698e-11
1.01492e-08
6.6012e-11
1.0133e-08
6.51483e-11
1.01169e-08
6.43735e-11
1.01011e-08
6.36822e-11
1.00853e-08
6.30698e-11
1.00697e-08
6.25316e-11
1.00543e-08
6.20632e-11
1.00389e-08
6.16605e-11
1.00236e-08
6.13198e-11
1.00083e-08
6.10372e-11
9.99317e-09
6.08092e-11
9.97804e-09
6.06328e-11
9.96293e-09
6.05047e-11
9.94785e-09
6.04223e-11
9.93277e-09