/*--------------------------------*- C++ -*----------------------------------*\
  =========                 |
  \\      /  F ield         | OpenFOAM: The Open Source CFD Toolbox
   \\    /   O peration     | Website:  https://openfoam.org
    \\  /    A nd           | Version:  10
     \\/     M anipulation  |
\*---------------------------------------------------------------------------*/
FoamFile
{
    format      ascii;
    class       volVectorField;
    location    "2.23";
    object      Ua;
}
// * * * * * * * * * * * * * * * * * * * * * * * * * * * * * * * * * * * * * //

dimensions      [0 1 -1 0 0 0 0];

internalField   nonuniform List<vector> 
12225
(
(1.72465e-05 -2.217e-06 0)
(5.041e-05 -2.07468e-06 0)
(8.04524e-05 -1.81266e-06 0)
(0.000106883 -1.51671e-06 0)
(0.000129898 -1.24489e-06 0)
(0.000150041 -1.02606e-06 0)
(0.000167957 -8.69961e-07 0)
(0.000184267 -7.77308e-07 0)
(0.000199522 -7.46869e-07 0)
(0.000214214 -7.8e-07 0)
(0.000228807 -8.8434e-07 0)
(0.000243797 -1.07871e-06 0)
(0.000259798 -1.40265e-06 0)
(0.000277709 -1.93923e-06 0)
(0.000299089 -2.87871e-06 0)
(0.000327217 -4.73751e-06 0)
(0.000371098 -9.35605e-06 0)
(0.000466905 -2.62236e-05 0)
(1.16636e-05 -5.72496e-06 0)
(3.4354e-05 -5.39122e-06 0)
(5.54922e-05 -4.74355e-06 0)
(7.47308e-05 -3.99708e-06 0)
(9.20765e-05 -3.3026e-06 0)
(0.000107753 -2.73874e-06 0)
(0.000122077 -2.33506e-06 0)
(0.000135384 -2.09709e-06 0)
(0.000147996 -2.02444e-06 0)
(0.000160214 -2.12304e-06 0)
(0.00017234 -2.41529e-06 0)
(0.000184703 -2.95335e-06 0)
(0.000197717 -3.84466e-06 0)
(0.000211973 -5.31125e-06 0)
(0.000228442 -7.84957e-06 0)
(0.000248897 -1.27414e-05 0)
(0.000276473 -2.40699e-05 0)
(0.000309968 -5.86942e-05 0)
(8.99183e-06 -7.83984e-06 0)
(2.66513e-05 -7.45091e-06 0)
(4.34707e-05 -6.62015e-06 0)
(5.91775e-05 -5.63071e-06 0)
(7.37041e-05 -4.69165e-06 0)
(8.71346e-05 -3.91932e-06 0)
(9.96375e-05 -3.36337e-06 0)
(0.000111415 -3.03882e-06 0)
(0.000122676 -2.9509e-06 0)
(0.000133629 -3.11268e-06 0)
(0.000144489 -3.56002e-06 0)
(0.000155496 -4.37092e-06 0)
(0.000166943 -5.70105e-06 0)
(0.000179223 -7.86257e-06 0)
(0.000192897 -1.15211e-05 0)
(0.000208668 -1.82451e-05 0)
(0.000226449 -3.21718e-05 0)
(0.000238262 -6.47528e-05 0)
(7.27383e-06 -9.19934e-06 0)
(2.16842e-05 -8.82606e-06 0)
(3.56822e-05 -7.91794e-06 0)
(4.90472e-05 -6.79547e-06 0)
(6.16763e-05 -5.70766e-06 0)
(7.3575e-05 -4.80143e-06 0)
(8.48225e-05 -4.14587e-06 0)
(9.55374e-05 -3.76745e-06 0)
(0.000105856 -3.67912e-06 0)
(0.000115924 -3.90186e-06 0)
(0.000125895 -4.48317e-06 0)
(0.00013594 -5.52023e-06 0)
(0.000146254 -7.20006e-06 0)
(0.000157072 -9.88233e-06 0)
(0.000168621 -1.42847e-05 0)
(0.000180876 -2.19116e-05 0)
(0.000192358 -3.59677e-05 0)
(0.000195861 -6.22961e-05 0)
(6.03233e-06 -1.00255e-05 0)
(1.80835e-05 -9.7142e-06 0)
(3.00067e-05 -8.79848e-06 0)
(4.16214e-05 -7.61717e-06 0)
(5.28084e-05 -6.44689e-06 0)
(6.35258e-05 -5.45949e-06 0)
(7.3794e-05 -4.74223e-06 0)
(8.36739e-05 -4.33369e-06 0)
(9.32488e-05 -4.25542e-06 0)
(0.000102615 -4.53614e-06 0)
(0.000111877 -5.23251e-06 0)
(0.000121148 -6.45387e-06 0)
(0.000130543 -8.40186e-06 0)
(0.000140161 -1.14442e-05 0)
(0.000149985 -1.62566e-05 0)
(0.000159578 -2.40762e-05 0)
(0.000167155 -3.69825e-05 0)
(0.000167707 -5.72316e-05 0)
(5.07841e-06 -1.04319e-05 0)
(1.53075e-05 -1.02152e-05 0)
(2.56067e-05 -9.34158e-06 0)
(3.58271e-05 -8.15592e-06 0)
(4.5845e-05 -6.9535e-06 0)
(5.55899e-05 -5.92615e-06 0)
(6.50425e-05 -5.17751e-06 0)
(7.4221e-05 -4.75804e-06 0)
(8.31679e-05 -4.6979e-06 0)
(9.19397e-05 -5.03268e-06 0)
(0.0001006 -5.82523e-06 0)
(0.000109212 -7.18982e-06 0)
(0.000117823 -9.32687e-06 0)
(0.000126427 -1.25794e-05 0)
(0.000134852 -1.75202e-05 0)
(0.000142496 -2.50479e-05 0)
(0.000147783 -3.63072e-05 0)
(0.000147617 -5.17199e-05 0)
(4.31792e-06 -1.04894e-05 0)
(1.30867e-05 -1.03902e-05 0)
(2.20656e-05 -9.59433e-06 0)
(3.11316e-05 -8.44543e-06 0)
(4.0164e-05 -7.25058e-06 0)
(4.90762e-05 -6.2171e-06 0)
(5.7822e-05 -5.46264e-06 0)
(6.6388e-05 -5.0486e-06 0)
(7.47841e-05 -5.01308e-06 0)
(8.30338e-05 -5.39719e-06 0)
(9.11655e-05 -6.26669e-06 0)
(9.92006e-05 -7.73381e-06 0)
(0.000107133 -9.9845e-06 0)
(0.000114881 -1.33142e-05 0)
(0.000122198 -1.81652e-05 0)
(0.000128479 -2.51177e-05 0)
(0.00013252 -3.46765e-05 0)
(0.000132541 -4.65073e-05 0)
(3.69697e-06 -1.02483e-05 0)
(1.12665e-05 -1.02817e-05 0)
(1.9145e-05 -9.58816e-06 0)
(2.72307e-05 -8.50669e-06 0)
(3.54109e-05 -7.35106e-06 0)
(4.35924e-05 -6.33974e-06 0)
(5.17106e-05 -5.6016e-06 0)
(5.97287e-05 -5.20737e-06 0)
(6.76304e-05 -5.20189e-06 0)
(7.54118e-05 -5.63005e-06 0)
(8.30714e-05 -6.55727e-06 0)
(9.05966e-05 -8.08783e-06 0)
(9.79409e-05 -1.03835e-05 0)
(0.000104982 -1.36803e-05 0)
(0.000111451 -1.82898e-05 0)
(0.000116825 -2.45389e-05 0)
(0.000120265 -3.25552e-05 0)
(0.000120801 -4.17964e-05 0)
(3.18155e-06 -9.74888e-06 0)
(9.74954e-06 -9.92247e-06 0)
(1.66944e-05 -9.34621e-06 0)
(2.39328e-05 -8.35398e-06 0)
(3.13638e-05 -7.26253e-06 0)
(3.88934e-05 -6.29717e-06 0)
(4.64462e-05 -5.59477e-06 0)
(5.39675e-05 -5.23322e-06 0)
(6.14199e-05 -5.26247e-06 0)
(6.87768e-05 -5.7293e-06 0)
(7.60123e-05 -6.69586e-06 0)
(8.30877e-05 -8.25399e-06 0)
(8.99302e-05 -1.05358e-05 0)
(9.63997e-05 -1.37162e-05 0)
(0.000102243 -1.79932e-05 0)
(0.000107051 -2.3516e-05 0)
(0.000110271 -3.02218e-05 0)
(0.0001114 -3.75923e-05 0)
(2.74855e-06 -9.02696e-06 0)
(8.46922e-06 -9.34068e-06 0)
(1.46111e-05 -8.88722e-06 0)
(2.11077e-05 -7.99804e-06 0)
(2.78725e-05 -6.98985e-06 0)
(3.48154e-05 -6.0904e-06 0)
(4.18545e-05 -5.44083e-06 0)
(4.89223e-05 -5.12362e-06 0)
(5.59645e-05 -5.19189e-06 0)
(6.29358e-05 -5.6924e-06 0)
(6.97912e-05 -6.6817e-06 0)
(7.64732e-05 -8.23655e-06 0)
(8.28945e-05 -1.04581e-05 0)
(8.89149e-05 -1.34653e-05 0)
(9.4317e-05 -1.73681e-05 0)
(9.87978e-05 -2.2204e-05 0)
(0.000102012 -2.78343e-05 0)
(0.000103711 -3.38378e-05 0)
(2.38112e-06 -8.11718e-06 0)
(7.37675e-06 -8.56199e-06 0)
(1.28197e-05 -8.2276e-06 0)
(1.86603e-05 -7.44793e-06 0)
(2.48287e-05 -6.53685e-06 0)
(3.12412e-05 -5.7198e-06 0)
(3.78131e-05 -5.1381e-06 0)
(4.44666e-05 -4.87587e-06 0)
(5.11347e-05 -4.98729e-06 0)
(5.77571e-05 -5.5174e-06 0)
(6.42743e-05 -6.51558e-06 0)
(7.06169e-05 -8.04264e-06 0)
(7.66922e-05 -1.01706e-05 0)
(8.23706e-05 -1.29724e-05 0)
(8.7476e-05 -1.64952e-05 0)
(9.17939e-05 -2.0715e-05 0)
(9.51152e-05 -2.54779e-05 0)
(9.73239e-05 -3.04649e-05 0)
(2.04044e-06 -7.13647e-06 0)
(6.36762e-06 -7.68806e-06 0)
(1.11754e-05 -7.45565e-06 0)
(1.64294e-05 -6.77938e-06 0)
(2.20709e-05 -5.96752e-06 0)
(2.80188e-05 -5.23906e-06 0)
(3.41836e-05 -4.73188e-06 0)
(4.0479e-05 -4.52917e-06 0)
(4.68272e-05 -4.6845e-06 0)
(5.31576e-05 -5.24018e-06 0)
(5.94015e-05 -6.23847e-06 0)
(6.5484e-05 -7.72609e-06 0)
(7.13142e-05 -9.75171e-06 0)
(7.67774e-05 -1.23548e-05 0)
(8.17332e-05 -1.5544e-05 0)
(8.60282e-05 -1.92665e-05 0)
(8.95303e-05 -2.33783e-05 0)
(9.21822e-05 -2.76401e-05 0)
(1.81875e-06 -6.06458e-06 0)
(5.69605e-06 -6.69409e-06 0)
(1.00497e-05 -6.5448e-06 0)
(1.48646e-05 -5.96635e-06 0)
(2.00986e-05 -5.25764e-06 0)
(2.56787e-05 -4.62625e-06 0)
(3.15158e-05 -4.20271e-06 0)
(3.75193e-05 -4.06662e-06 0)
(4.36045e-05 -4.26929e-06 0)
(4.96937e-05 -4.84951e-06 0)
(5.57118e-05 -5.84249e-06 0)
(6.15804e-05 -7.28255e-06 0)
(6.72119e-05 -9.19984e-06 0)
(7.25051e-05 -1.16103e-05 0)
(7.73483e-05 -1.44998e-05 0)
(8.1632e-05 -1.78053e-05 0)
(8.52739e-05 -2.14021e-05 0)
(8.82504e-05 -2.51099e-05 0)
(1.59677e-06 -4.78583e-06 0)
(5.01328e-06 -5.4501e-06 0)
(8.89183e-06 -5.36186e-06 0)
(1.32497e-05 -4.88162e-06 0)
(1.80637e-05 -4.29076e-06 0)
(2.32673e-05 -3.77695e-06 0)
(2.87701e-05 -3.45733e-06 0)
(3.44763e-05 -3.40425e-06 0)
(4.02947e-05 -3.66458e-06 0)
(4.61411e-05 -4.27223e-06 0)
(5.19355e-05 -5.25459e-06 0)
(5.75988e-05 -6.63396e-06 0)
(6.30487e-05 -8.42436e-06 0)
(6.81995e-05 -1.06241e-05 0)
(7.29664e-05 -1.32056e-05 0)
(7.72758e-05 -1.61065e-05 0)
(8.10813e-05 -1.92259e-05 0)
(8.4378e-05 -2.24341e-05 0)
(1.36385e-06 -3.32596e-06 0)
(4.28911e-06 -3.92601e-06 0)
(7.66281e-06 -3.85437e-06 0)
(1.15528e-05 -3.46629e-06 0)
(1.5951e-05 -3.00804e-06 0)
(2.07895e-05 -2.63411e-06 0)
(2.59708e-05 -2.44046e-06 0)
(3.13914e-05 -2.48804e-06 0)
(3.6953e-05 -2.81702e-06 0)
(4.25658e-05 -3.45523e-06 0)
(4.81474e-05 -4.42231e-06 0)
(5.36205e-05 -5.7305e-06 0)
(5.8912e-05 -7.38232e-06 0)
(6.3954e-05 -9.36599e-06 0)
(6.86868e-05 -1.16501e-05 0)
(7.30658e-05 -1.41803e-05 0)
(7.70676e-05 -1.688e-05 0)
(8.06956e-05 -1.96583e-05 0)
(1.07175e-06 -1.73909e-06 0)
(3.40094e-06 -2.08982e-06 0)
(6.21475e-06 -1.97589e-06 0)
(9.64222e-06 -1.67698e-06 0)
(1.36641e-05 -1.36968e-06 0)
(1.81874e-05 -1.15759e-06 0)
(2.30925e-05 -1.10817e-06 0)
(2.82608e-05 -1.26835e-06 0)
(3.35856e-05 -1.671e-06 0)
(3.8976e-05 -2.33941e-06 0)
(4.43562e-05 -3.28939e-06 0)
(4.9663e-05 -4.52782e-06 0)
(5.48422e-05 -6.05168e-06 0)
(5.98473e-05 -7.84551e-06 0)
(6.46401e-05 -9.87926e-06 0)
(6.9192e-05 -1.21078e-05 0)
(7.34866e-05 -1.4473e-05 0)
(7.75217e-05 -1.69096e-05 0)
(5.48936e-07 5.01581e-09 0)
(1.89461e-06 1.29175e-07 0)
(3.93012e-06 3.0401e-07 0)
(6.81678e-06 4.84036e-07 0)
(1.04375e-05 6.18169e-07 0)
(1.46303e-05 6.53283e-07 0)
(1.92542e-05 5.43506e-07 0)
(2.41923e-05 2.54e-07 0)
(2.93447e-05 -2.39493e-07 0)
(3.46407e-05 -9.67509e-07 0)
(4.00428e-05 -1.96965e-06 0)
(4.54974e-05 -3.20582e-06 0)
(5.09313e-05 -4.67062e-06 0)
(5.62824e-05 -6.34718e-06 0)
(6.14988e-05 -8.20761e-06 0)
(6.65396e-05 -1.02141e-05 0)
(7.13757e-05 -1.23218e-05 0)
(7.59903e-05 -1.44825e-05 0)
(1.28799e-06 2.09157e-06 0)
(3.94538e-06 2.83545e-06 0)
(6.86677e-06 3.17482e-06 0)
(1.02042e-05 3.27828e-06 0)
(1.40153e-05 3.22949e-06 0)
(1.82823e-05 3.04445e-06 0)
(2.29416e-05 2.71417e-06 0)
(2.79121e-05 2.22562e-06 0)
(3.31105e-05 1.56869e-06 0)
(3.84442e-05 7.23086e-07 0)
(4.38056e-05 -3.40379e-07 0)
(4.9154e-05 -1.6293e-06 0)
(5.45037e-05 -3.13752e-06 0)
(5.98223e-05 -4.78406e-06 0)
(6.5052e-05 -6.54562e-06 0)
(7.01479e-05 -8.39308e-06 0)
(7.5078e-05 -1.0294e-05 0)
(7.98213e-05 -1.22152e-05 0)
(1.81196e-06 4.98739e-06 0)
(5.56208e-06 6.15284e-06 0)
(9.57044e-06 6.69021e-06 0)
(1.38567e-05 6.77781e-06 0)
(1.844e-05 6.5593e-06 0)
(2.33174e-05 6.12214e-06 0)
(2.84603e-05 5.51304e-06 0)
(3.38216e-05 4.75571e-06 0)
(3.93443e-05 3.86274e-06 0)
(4.49688e-05 2.84188e-06 0)
(5.06379e-05 1.70224e-06 0)
(5.62667e-05 3.98289e-07 0)
(6.17588e-05 -1.05837e-06 0)
(6.71079e-05 -2.67969e-06 0)
(7.23339e-05 -4.3589e-06 0)
(7.74127e-05 -6.06717e-06 0)
(8.2325e-05 -7.78429e-06 0)
(8.70591e-05 -9.49022e-06 0)
(2.08005e-06 8.25142e-06 0)
(6.42416e-06 9.42127e-06 0)
(1.11119e-05 9.94546e-06 0)
(1.61044e-05 9.94132e-06 0)
(2.1373e-05 9.55079e-06 0)
(2.68857e-05 8.88837e-06 0)
(3.26014e-05 8.0337e-06 0)
(3.84709e-05 7.03838e-06 0)
(4.44414e-05 5.93501e-06 0)
(5.04596e-05 4.74482e-06 0)
(5.64755e-05 3.48304e-06 0)
(6.24436e-05 2.16137e-06 0)
(6.83205e-05 7.94243e-07 0)
(7.40197e-05 -6.96583e-07 0)
(7.9522e-05 -2.29503e-06 0)
(8.48662e-05 -3.88699e-06 0)
(9.00382e-05 -5.45653e-06 0)
(9.5027e-05 -6.99254e-06 0)
(2.49695e-06 1.11107e-05 0)
(7.66875e-06 1.20606e-05 0)
(1.31745e-05 1.23989e-05 0)
(1.89685e-05 1.22094e-05 0)
(2.50034e-05 1.16237e-05 0)
(3.12309e-05 1.07616e-05 0)
(3.76003e-05 9.71424e-06 0)
(4.40591e-05 8.54506e-06 0)
(5.05554e-05 7.29577e-06 0)
(5.70397e-05 5.99344e-06 0)
(6.34673e-05 4.65614e-06 0)
(6.9799e-05 3.2969e-06 0)
(7.60018e-05 1.92627e-06 0)
(8.20427e-05 5.54127e-07 0)
(8.78571e-05 -9.147e-07 0)
(9.34371e-05 -2.42051e-06 0)
(9.88186e-05 -3.88241e-06 0)
(0.000103997 -5.29468e-06 0)
(3.01222e-06 1.34735e-05 0)
(9.18774e-06 1.41577e-05 0)
(1.56511e-05 1.42564e-05 0)
(2.23612e-05 1.38485e-05 0)
(2.92618e-05 1.30614e-05 0)
(3.62935e-05 1.20163e-05 0)
(4.3398e-05 1.08086e-05 0)
(5.05196e-05 9.50617e-06 0)
(5.76067e-05 8.15411e-06 0)
(6.46135e-05 6.78117e-06 0)
(7.15002e-05 5.40547e-06 0)
(7.8234e-05 4.03879e-06 0)
(8.4788e-05 2.68941e-06 0)
(9.1142e-05 1.36374e-06 0)
(9.72603e-05 4.92579e-08 0)
(0.000103113 -1.33632e-06 0)
(0.000108715 -2.69025e-06 0)
(0.000114086 -3.98382e-06 0)
(3.64153e-06 1.51804e-05 0)
(1.10362e-05 1.56081e-05 0)
(1.86439e-05 1.54657e-05 0)
(2.64264e-05 1.48444e-05 0)
(3.43224e-05 1.38742e-05 0)
(4.22663e-05 1.2677e-05 0)
(5.01954e-05 1.13488e-05 0)
(5.80534e-05 9.95774e-06 0)
(6.57917e-05 8.54822e-06 0)
(7.33695e-05 7.14772e-06 0)
(8.07538e-05 5.77238e-06 0)
(8.79189e-05 4.43145e-06 0)
(9.48459e-05 3.1303e-06 0)
(0.000101522 1.87231e-06 0)
(0.000107938 6.59799e-07 0)
(0.000114062 -5.64621e-07 0)
(0.000119891 -1.8039e-06 0)
(0.000125454 -2.97671e-06 0)
(4.40682e-06 1.61499e-05 0)
(1.32811e-05 1.63516e-05 0)
(2.22653e-05 1.59967e-05 0)
(3.13174e-05 1.51945e-05 0)
(4.03718e-05 1.40803e-05 0)
(4.93598e-05 1.27764e-05 0)
(5.82192e-05 1.13768e-05 0)
(6.68972e-05 9.94687e-06 0)
(7.53519e-05 8.52794e-06 0)
(8.35509e-05 7.1442e-06 0)
(9.14707e-05 5.80852e-06 0)
(9.90954e-05 4.52693e-06 0)
(0.000106415 3.30168e-06 0)
(0.000113426 2.13316e-06 0)
(0.000120128 1.02095e-06 0)
(0.000126507 -4.86973e-08 0)
(0.000132559 -1.15559e-06 0)
(0.000138308 -2.20285e-06 0)
(5.34152e-06 1.63424e-05 0)
(1.60205e-05 1.63582e-05 0)
(2.66723e-05 1.58372e-05 0)
(3.72428e-05 1.49053e-05 0)
(4.76614e-05 1.37023e-05 0)
(5.78597e-05 1.23489e-05 0)
(6.77809e-05 1.09349e-05 0)
(7.73819e-05 9.52073e-06 0)
(8.66324e-05 8.14279e-06 0)
(9.55133e-05 6.82087e-06 0)
(0.000104014 5.56396e-06 0)
(0.000112132 4.37471e-06 0)
(0.00011987 3.25242e-06 0)
(0.000127233 2.19481e-06 0)
(0.000134231 1.19912e-06 0)
(0.000140875 2.62494e-07 0)
(0.000147156 -6.89429e-07 0)
(0.000153085 -1.60608e-06 0)
(6.49923e-06 1.57348e-05 0)
(1.94103e-05 1.56097e-05 0)
(3.21121e-05 1.49804e-05 0)
(4.45291e-05 1.39837e-05 0)
(5.65838e-05 1.27595e-05 0)
(6.82128e-05 1.14237e-05 0)
(7.93713e-05 1.00591e-05 0)
(9.00331e-05 8.71923e-06 0)
(0.000100187 7.43459e-06 0)
(0.000109833 6.22002e-06 0)
(0.000118979 5.08062e-06 0)
(0.000127639 4.01591e-06 0)
(0.000135831 3.02271e-06 0)
(0.000143573 2.09671e-06 0)
(0.000150888 1.23346e-06 0)
(0.000157795 4.28703e-07 0)
(0.000164302 -3.60521e-07 0)
(0.000170423 -1.14169e-06 0)
(7.97428e-06 1.42958e-05 0)
(2.37247e-05 1.40789e-05 0)
(3.90199e-05 1.34088e-05 0)
(5.37504e-05 1.24238e-05 0)
(6.78311e-05 1.12573e-05 0)
(8.12087e-05 1.0015e-05 0)
(9.38605e-05 8.77013e-06 0)
(0.000105787 7.56745e-06 0)
(0.000117006 6.43087e-06 0)
(0.000127544 5.37035e-06 0)
(0.000137436 4.38749e-06 0)
(0.000146717 3.47941e-06 0)
(0.000155424 2.64118e-06 0)
(0.000163594 1.86725e-06 0)
(0.000171261 1.15223e-06 0)
(0.000178459 4.912e-07 0)
(0.000185207 -1.35904e-07 0)
(0.00019153 -7.76226e-07 0)
(9.95748e-06 1.19514e-05 0)
(2.95196e-05 1.16973e-05 0)
(4.82788e-05 1.10652e-05 0)
(6.60745e-05 1.01822e-05 0)
(8.28123e-05 9.16546e-06 0)
(9.84591e-05 8.10451e-06 0)
(0.000113028 7.0589e-06 0)
(0.000126562 6.06334e-06 0)
(0.000139121 5.13476e-06 0)
(0.000150773 4.27872e-06 0)
(0.000161588 3.49423e-06 0)
(0.000171632 2.77696e-06 0)
(0.000180969 2.12129e-06 0)
(0.000189656 1.5214e-06 0)
(0.000197749 9.71816e-07 0)
(0.000205295 4.67681e-07 0)
(0.000212331 1.80934e-09 0)
(0.000218888 -4.86672e-07 0)
(1.29359e-05 8.50072e-06 0)
(3.82151e-05 8.27515e-06 0)
(6.21492e-05 7.78006e-06 0)
(8.44943e-05 7.11375e-06 0)
(0.000105146 6.36367e-06 0)
(0.000124108 5.59443e-06 0)
(0.000141455 4.84743e-06 0)
(0.000157301 4.14549e-06 0)
(0.000171776 3.49861e-06 0)
(0.000185011 2.90891e-06 0)
(0.000197132 2.37412e-06 0)
(0.000208251 1.88992e-06 0)
(0.000218472 1.45136e-06 0)
(0.000227886 1.05353e-06 0)
(0.000236573 6.91985e-07 0)
(0.000244605 3.62793e-07 0)
(0.000252044 6.25265e-08 0)
(0.000258932 -2.58311e-07 0)
(1.90486e-05 3.23805e-06 0)
(5.60598e-05 3.1417e-06 0)
(9.06066e-05 2.94261e-06 0)
(0.000122272 2.68018e-06 0)
(0.000150937 2.38869e-06 0)
(0.00017669 2.09296e-06 0)
(0.000199743 1.80847e-06 0)
(0.000220361 1.54342e-06 0)
(0.000238821 1.3011e-06 0)
(0.000255384 1.08186e-06 0)
(0.000270289 8.84424e-07 0)
(0.000283745 7.06869e-07 0)
(0.000295932 5.47063e-07 0)
(0.000307005 4.02969e-07 0)
(0.000317099 2.72753e-07 0)
(0.000326329 1.54816e-07 0)
(0.000334792 4.777e-08 0)
(0.000342536 -6.86452e-08 0)
(1.78725e-05 -1.24345e-05 -1.60501e-31)
(5.37255e-05 -1.24178e-05 1.59861e-31)
(8.97443e-05 -1.2388e-05 0)
(0.000125881 -1.23459e-05 0)
(0.000162089 -1.22913e-05 0)
(0.000198316 -1.22218e-05 -1.55622e-31)
(0.000234503 -1.21332e-05 0)
(0.00027058 -1.20211e-05 0)
(0.000306466 -1.18818e-05 0)
(0.000342067 -1.17129e-05 0)
(0.00037728 -1.15137e-05 1.44357e-31)
(0.00041199 -1.12852e-05 0)
(0.000446075 -1.10304e-05 0)
(0.000479401 -1.0754e-05 0)
(0.000511825 -1.04629e-05 0)
(0.000543194 -1.01656e-05 1.24975e-31)
(0.000573347 -9.87196e-06 0)
(0.000602109 -9.59256e-06 0)
(0.000629293 -9.33772e-06 0)
(0.000654697 -9.11669e-06 0)
(0.000678103 -8.93705e-06 0)
(0.000699275 -8.80477e-06 0)
(0.000717964 -8.72436e-06 0)
(0.000733915 -8.69923e-06 1.03771e-31)
(0.000746887 -8.73184e-06 -1.0404e-31)
(0.000756676 -8.82366e-06 1.05111e-31)
(0.000763164 -8.97514e-06 1.06992e-31)
(0.000766369 -9.18555e-06 0)
(0.000766507 -9.45314e-06 0)
(0.000764044 -9.77557e-06 -1.17327e-31)
(0.000759712 -1.01508e-05 -1.22228e-31)
(0.000754476 -1.05788e-05 0)
(0.000749453 -1.10635e-05 0)
(0.000745786 -1.16152e-05 -1.4132e-31)
(0.000744538 -1.22532e-05 0)
(0.000746614 -1.30077e-05 0)
(0.000752767 -1.39228e-05 1.71062e-31)
(0.000763661 -1.50613e-05 0)
(0.000779997 -1.6513e-05 2.04218e-31)
(0.000802698 -1.84123e-05 4.56996e-31)
(0.00083319 -2.09721e-05 0)
(0.000873923 -2.4556e-05 0)
(0.000929472 -2.98439e-05 0)
(0.00100935 -3.82544e-05 0)
(0.00113685 -5.31899e-05 0)
(0.00138848 -8.46611e-05 2.15566e-30)
(0.00228972 -0.000176897 4.51862e-30)
(0.0116648 -0.00136101 3.49058e-29)
(0.0199789 0.00056264 0)
(0.0189635 0.000965889 2.54154e-29)
(0.0178395 0.000629365 0)
(0.017056 0.000473153 -1.26334e-29)
(0.0164404 0.000385624 -1.03563e-29)
(0.0159248 0.00032761 0)
(0.0154785 0.000284591 0)
(0.015085 0.00025067 0)
(0.0147338 0.000223079 -6.11431e-30)
(0.0144173 0.000200258 0)
(0.0141297 0.00018116 0)
(0.0138665 0.000165005 0)
(0.013624 0.000151182 0)
(0.0133994 0.000139208 0)
(0.0131904 0.000128707 0)
(0.0129953 0.000119387 0)
(0.0128125 0.000111026 0)
(0.0126409 0.000103457 2.97274e-30)
(0.0124795 9.65516e-05 0)
(0.0123276 9.02137e-05 0)
(0.0121843 8.43683e-05 -2.46853e-30)
(0.0120491 7.89569e-05 -2.32546e-30)
(0.0119215 7.39322e-05 0)
(0.0118009 6.92557e-05 2.06883e-30)
(0.011687 6.48951e-05 -1.95342e-30)
(0.0115794 6.08227e-05 0)
(0.0114776 5.70146e-05 1.74477e-30)
(0.0113814 5.34498e-05 0)
(0.0112904 5.01098e-05 0)
(0.0112044 4.6978e-05 -1.47888e-30)
(0.011123 4.40396e-05 0)
(0.0110461 4.1281e-05 1.32788e-30)
(0.0109734 3.86901e-05 0)
(0.0109047 3.62558e-05 -1.19464e-30)
(0.0108397 3.39679e-05 -1.13397e-30)
(0.0107784 3.18172e-05 -1.07692e-30)
(0.0107204 2.97952e-05 -2.04657e-30)
(0.0106656 2.78938e-05 1.9457e-30)
(0.0106139 2.6106e-05 0)
(0.0105651 2.44249e-05 0)
(0.0105191 2.28442e-05 0)
(0.0104757 2.13581e-05 1.59883e-30)
(0.0104347 1.99612e-05 1.52468e-30)
(0.0103961 1.86483e-05 -1.45498e-30)
(0.0103598 1.74146e-05 0)
(0.0103255 1.62557e-05 1.32795e-30)
(0.0102933 1.51673e-05 1.27017e-30)
(0.010263 1.41454e-05 1.21591e-30)
(0.0102344 1.31864e-05 0)
(0.0102076 1.22865e-05 0)
(0.0101824 1.14426e-05 0)
(0.0101587 1.06514e-05 1.03035e-30)
(0.0101365 9.91e-06 0)
(0.0101157 9.21549e-06 0)
(0.0100961 8.56523e-06 -9.19533e-31)
(0.0100778 7.95666e-06 0)
(0.0100606 7.38739e-06 0)
(0.0100445 6.85515e-06 -8.2869e-31)
(0.0100295 6.35776e-06 0)
(0.0100154 5.89318e-06 0)
(0.0100022 5.45948e-06 7.54538e-31)
(0.00998992 5.05483e-06 7.33037e-31)
(0.00997844 4.67746e-06 0)
(0.00996772 4.32576e-06 -6.943e-31)
(0.00995772 3.99814e-06 0)
(0.0099484 3.69314e-06 6.6068e-31)
(0.00993972 3.40935e-06 0)
(0.00993164 3.14546e-06 6.31576e-31)
(0.00992411 2.90022e-06 6.18537e-31)
(0.00991712 2.67245e-06 0)
(0.00991061 2.46103e-06 0)
(0.00990457 2.26491e-06 0)
(0.00989897 2.08309e-06 0)
(0.00989377 1.91464e-06 0)
(0.00988894 1.75868e-06 0)
(0.00988448 1.61437e-06 0)
(0.00988034 1.48094e-06 5.431e-31)
(0.00987651 1.35763e-06 -5.3654e-31)
(0.00987297 1.24377e-06 0)
(0.0098697 1.1387e-06 0)
(0.00986668 1.04181e-06 0)
(0.00986389 9.52533e-07 0)
(0.00986132 8.70321e-07 -1.02126e-30)
(0.00985895 7.94678e-07 0)
(0.00985677 7.25132e-07 1.00582e-30)
(0.00985476 6.61244e-07 -9.99026e-31)
(0.00985291 6.02605e-07 0)
(0.00985121 5.48832e-07 0)
(0.00984965 4.99571e-07 0)
(0.00984822 4.54494e-07 9.77034e-31)
(0.0098469 4.13294e-07 9.72649e-31)
(0.00984569 3.75692e-07 0)
(0.00984458 3.41431e-07 9.64997e-31)
(0.00984357 3.10276e-07 9.61676e-31)
(0.00984264 2.82015e-07 -9.58671e-31)
(0.00984178 2.5646e-07 0)
(0.009841 2.33446e-07 0)
(0.00984027 2.1283e-07 -9.51294e-31)
(0.00983961 1.94497e-07 0)
(0.00983899 1.7836e-07 0)
(0.00983842 1.64363e-07 0)
(0.00983789 1.52483e-07 0)
(0.00983739 1.4274e-07 9.43773e-31)
(0.00983692 1.35201e-07 9.42949e-31)
(0.00983646 1.29992e-07 0)
(0.00983601 1.27307e-07 9.42048e-31)
(0.00983556 1.27428e-07 0)
(0.0098351 1.30745e-07 0)
(0.00983462 1.37783e-07 9.43e-31)
(0.0098341 1.49239e-07 0)
(0.00983353 1.66031e-07 9.4582e-31)
(0.00983287 1.89359e-07 0)
(0.00983211 2.20789e-07 0)
(0.0098312 2.62366e-07 9.55558e-31)
(0.0098301 3.16763e-07 0)
(0.00982875 3.87488e-07 9.68263e-31)
(0.00982708 4.79167e-07 0)
(0.00982498 5.97942e-07 0)
(0.00982232 7.52042e-07 0)
(0.00981892 9.52617e-07 -1.02577e-30)
(0.00981457 1.21499e-06 0)
(0.00980894 1.5606e-06 1.08769e-30)
(0.00980161 2.02013e-06 0)
(0.00979198 2.63879e-06 0)
(0.00977919 3.48565e-06 0)
(0.009762 4.6714e-06 0)
(0.00973847 6.38494e-06 0)
(0.00970545 8.97695e-06 0)
(0.00965736 1.318e-05 0)
(0.00958285 2.08112e-05 -6.1136e-30)
(0.00945332 3.76962e-05 0)
(0.00916628 9.06425e-05 0)
(6.73967e-06 -3.20977e-05 4.14613e-31)
(2.02586e-05 -3.2029e-05 -4.13246e-31)
(3.38329e-05 -3.19344e-05 0)
(4.74407e-05 -3.18146e-05 8.20148e-31)
(6.10625e-05 -3.16709e-05 0)
(7.4672e-05 -3.14979e-05 -4.0622e-31)
(8.82248e-05 -3.1286e-05 -8.04558e-31)
(0.000101655 -3.10241e-05 -7.97153e-31)
(0.000114877 -3.07026e-05 0)
(0.000127795 -3.03148e-05 -7.77583e-31)
(0.000140306 -2.98575e-05 3.84243e-31)
(0.000152308 -2.93311e-05 0)
(0.000163711 -2.87396e-05 0)
(0.000174442 -2.80913e-05 0)
(0.000184453 -2.73986e-05 0)
(0.000193734 -2.66789e-05 3.42529e-31)
(0.00020232 -2.59534e-05 0)
(0.000210292 -2.52466e-05 6.42678e-31)
(0.000217776 -2.4584e-05 0)
(0.000224933 -2.39901e-05 0)
(0.000231942 -2.34867e-05 -5.96164e-31)
(0.000238985 -2.30919e-05 0)
(0.000246244 -2.28196e-05 5.78245e-31)
(0.000253887 -2.26805e-05 2.90141e-31)
(0.000262072 -2.26822e-05 -2.90067e-31)
(0.000270941 -2.28303e-05 2.91876e-31)
(0.00028062 -2.31283e-05 2.95614e-31)
(0.000291217 -2.35785e-05 0)
(0.000302826 -2.41819e-05 0)
(0.000315535 -2.49401e-05 -3.18618e-31)
(0.000329436 -2.58565e-05 -9.83116e-31)
(0.000344636 -2.69397e-05 0)
(0.000361268 -2.82073e-05 0)
(0.000379497 -2.96905e-05 -3.79261e-31)
(0.000399529 -3.14397e-05 0)
(0.000421621 -3.35295e-05 0)
(0.00044609 -3.60673e-05 4.60893e-31)
(0.000473342 -3.9205e-05 0)
(0.000503908 -4.31592e-05 1.64372e-30)
(0.000538516 -4.82482e-05 1.23447e-30)
(0.000578212 -5.49585e-05 0)
(0.000624597 -6.40749e-05 0)
(0.00068027 -7.69487e-05 -3.91391e-30)
(0.000749779 -9.61099e-05 -4.89795e-30)
(0.000842037 -0.000126884 -6.4802e-30)
(0.000978916 -0.000182856 1.40646e-29)
(0.00124961 -0.000316511 8.15211e-30)
(0.00326703 -0.00160131 -4.11614e-29)
(0.0111495 -0.00304685 1.56465e-28)
(0.0172692 0.00184607 4.81274e-29)
(0.0171428 0.00152505 0)
(0.0167146 0.00128296 -3.35585e-29)
(0.0162386 0.00109896 -8.71394e-29)
(0.0157861 0.000953749 0)
(0.0153739 0.000836335 0)
(0.0150021 0.000740032 0)
(0.0146664 0.000660343 -1.74157e-29)
(0.0143618 0.000593931 0)
(0.0140834 0.000538151 -2.91517e-29)
(0.0138275 0.000490851 0)
(0.0135907 0.000450287 -2.45627e-29)
(0.0133707 0.000415064 0)
(0.0131653 0.000384092 2.11003e-29)
(0.0129731 0.000356533 0)
(0.0127927 0.000331752 -1.83593e-29)
(0.0126231 0.000309271 2.54735e-29)
(0.0124634 0.000288727 0)
(0.0123128 0.000269846 1.51135e-29)
(0.0121708 0.000252414 -6.81209e-30)
(0.0120367 0.000236263 -6.39145e-30)
(0.01191 0.000221258 0)
(0.0117904 0.000207286 1.74664e-29)
(0.0116773 0.000194253 -5.29701e-30)
(0.0115703 0.000182078 0)
(0.0114692 0.00017069 4.68301e-30)
(0.0113736 0.000160028 9.34732e-30)
(0.0112831 0.000150036 0)
(0.0111976 0.000140666 -3.90051e-30)
(0.0111167 0.000131874 0)
(0.0110403 0.000123618 -3.97741e-30)
(0.010968 0.000115864 0)
(0.0108996 0.000108578 3.57865e-30)
(0.010835 0.000101729 -2.88544e-30)
(0.010774 9.52907e-05 -8.66144e-30)
(0.0107163 8.9237e-05 -1.63703e-29)
(0.0106618 8.35444e-05 1.54746e-29)
(0.0106104 7.81913e-05 0)
(0.0105618 7.31575e-05 0)
(0.010516 6.84242e-05 0)
(0.0104728 6.3974e-05 -4.7909e-30)
(0.0104321 5.97906e-05 3.58369e-30)
(0.0103936 5.58587e-05 -3.3786e-30)
(0.0103575 5.2164e-05 0)
(0.0103234 4.86931e-05 9.98938e-30)
(0.0102913 4.54333e-05 2.83479e-30)
(0.0102611 4.23728e-05 2.67514e-30)
(0.0102327 3.95002e-05 0)
(0.010206 3.68051e-05 0)
(0.0101809 3.42773e-05 0)
(0.0101573 3.19075e-05 2.12919e-30)
(0.0101352 2.96867e-05 0)
(0.0101145 2.76064e-05 4.76478e-30)
(0.010095 2.56585e-05 2.75652e-30)
(0.0100767 2.38356e-05 -4.36778e-30)
(0.0100596 2.21304e-05 0)
(0.0100436 2.05361e-05 -5.55629e-30)
(0.0100286 1.90461e-05 0)
(0.0100146 1.76545e-05 -3.71693e-30)
(0.0100015 1.63553e-05 4.89792e-30)
(0.00998927 1.51431e-05 4.70703e-30)
(0.00997783 1.40127e-05 0)
(0.00996716 1.29591e-05 2.08187e-30)
(0.00995721 1.19777e-05 -3.11911e-30)
(0.00994793 1.1064e-05 1.04172e-30)
(0.00993928 1.02139e-05 0)
(0.00993123 9.42333e-06 9.56115e-31)
(0.00992374 8.68866e-06 -1.85495e-30)
(0.00991677 8.00632e-06 0)
(0.0099103 7.37295e-06 -2.63414e-30)
(0.00990428 6.78542e-06 -2.57226e-30)
(0.0098987 6.24074e-06 -2.51489e-30)
(0.00989352 5.73611e-06 0)
(0.00988872 5.26888e-06 0)
(0.00988427 4.83656e-06 0)
(0.00988015 4.43681e-06 3.02077e-30)
(0.00987634 4.06741e-06 -6.76624e-31)
(0.00987281 3.72631e-06 0)
(0.00986956 3.41153e-06 2.21685e-30)
(0.00986655 3.12126e-06 2.18627e-30)
(0.00986377 2.85379e-06 0)
(0.00986121 2.60749e-06 -1.20087e-30)
(0.00985885 2.38087e-06 4.21652e-30)
(0.00985668 2.17251e-06 1.15547e-30)
(0.00985468 1.98111e-06 -5.26775e-30)
(0.00985284 1.80543e-06 0)
(0.00985114 1.64433e-06 0)
(0.00984959 1.49674e-06 0)
(0.00984816 1.36168e-06 1.07083e-30)
(0.00984685 1.23825e-06 5.03363e-30)
(0.00984565 1.12559e-06 3.95194e-30)
(0.00984454 1.02294e-06 1.03546e-30)
(0.00984353 9.29588e-07 4.93631e-30)
(0.0098426 8.4491e-07 -1.01687e-30)
(0.00984175 7.68337e-07 0)
(0.00984097 6.99371e-07 0)
(0.00984025 6.3759e-07 -4.8442e-30)
(0.00983959 5.82645e-07 0)
(0.00983898 5.34275e-07 0)
(0.00983841 4.92308e-07 3.81825e-30)
(0.00983788 4.56679e-07 0)
(0.00983738 4.27444e-07 4.77765e-30)
(0.00983691 4.04804e-07 9.70825e-31)
(0.00983645 3.89129e-07 0)
(0.00983601 3.81002e-07 4.7626e-30)
(0.00983557 3.81262e-07 0)
(0.00983511 3.91072e-07 0)
(0.00983463 4.11998e-07 9.71355e-31)
(0.00983412 4.46121e-07 3.80708e-30)
(0.00983355 4.96178e-07 9.79958e-31)
(0.0098329 5.6575e-07 0)
(0.00983215 6.5951e-07 0)
(0.00983125 7.83557e-07 4.88522e-30)
(0.00983017 9.45866e-07 0)
(0.00982884 1.15689e-06 4.9999e-30)
(0.00982719 1.43043e-06 0)
(0.00982512 1.78478e-06 0)
(0.0098225 2.24445e-06 0)
(0.00981916 2.84261e-06 -1.22121e-30)
(0.00981487 3.62482e-06 0)
(0.00980934 4.65473e-06 1.40765e-30)
(0.00980214 6.02329e-06 0)
(0.00979269 7.86413e-06 0)
(0.00978017 1.03808e-05 5.84113e-30)
(0.00976337 1.38977e-05 -6.56207e-30)
(0.00974049 1.89644e-05 0)
(0.00970861 2.6588e-05 0)
(0.0096628 3.88234e-05 0)
(0.009594 6.05343e-05 1.79543e-29)
(0.00948469 0.000105826 0)
(0.00931225 0.000227841 -1.01268e-28)
(5.17608e-06 -4.51381e-05 2.33297e-30)
(1.55568e-05 -4.50226e-05 -3.69702e-34)
(2.59806e-05 -4.48836e-05 0)
(3.64381e-05 -4.47186e-05 8.62678e-34)
(4.69225e-05 -4.45321e-05 0)
(5.74238e-05 -4.43221e-05 0)
(6.79169e-05 -4.40809e-05 -2.2709e-30)
(7.83574e-05 -4.37987e-05 -1.12847e-30)
(8.86844e-05 -4.3467e-05 1.11731e-30)
(9.88258e-05 -4.30795e-05 -1.10891e-30)
(0.000108704 -4.26326e-05 0)
(0.000118241 -4.21255e-05 0)
(0.000127361 -4.15604e-05 -1.06529e-30)
(0.000135999 -4.09424e-05 -2.0974e-30)
(0.000144109 -4.02801e-05 2.06201e-30)
(0.000151671 -3.9586e-05 0)
(0.000158702 -3.88765e-05 1.98738e-30)
(0.000165264 -3.81718e-05 9.78912e-31)
(0.000171463 -3.74946e-05 0)
(0.000177446 -3.68687e-05 1.88092e-30)
(0.000183387 -3.63172e-05 -9.30118e-31)
(0.000189471 -3.58614e-05 -1.82714e-30)
(0.000195882 -3.55201e-05 9.08922e-31)
(0.00020279 -3.53099e-05 0)
(0.00021035 -3.52455e-05 1.79235e-30)
(0.000218693 -3.53404e-05 1.79607e-30)
(0.000227933 -3.5607e-05 0)
(0.000238169 -3.60579e-05 1.83041e-30)
(0.000249483 -3.67063e-05 0)
(0.00026195 -3.75671e-05 1.90506e-30)
(0.000275643 -3.86596e-05 -9.8631e-31)
(0.000290639 -4.00093e-05 0)
(0.000307026 -4.1652e-05 0)
(0.000324908 -4.36379e-05 0)
(0.000344409 -4.60374e-05 0)
(0.000365682 -4.89481e-05 0)
(0.000388914 -5.25051e-05 0)
(0.000414345 -5.68945e-05 2.88267e-30)
(0.000442292 -6.23767e-05 -1.57062e-30)
(0.000473187 -6.93204e-05 0)
(0.00050765 -7.826e-05 0)
(0.000546602 -8.99917e-05 0)
(0.000591508 -0.000105741 -1.07936e-29)
(0.000644901 -0.000127467 -6.52896e-30)
(0.000711829 -0.000158484 -3.36287e-32)
(0.000804762 -0.00020499 3.80216e-32)
(0.000966273 -0.000281762 -1.44298e-29)
(0.00146428 -0.000457307 -2.35039e-29)
(0.00711329 -0.00417095 4.29586e-28)
(0.0148551 -0.00150812 7.58632e-29)
(0.0170288 0.00223356 0)
(0.0164611 0.00197592 -1.04484e-28)
(0.0159848 0.00173533 -1.83203e-28)
(0.0155645 0.0015255 0)
(0.0151879 0.00134739 0)
(0.0148478 0.00119787 6.40313e-29)
(0.0145386 0.0010728 0)
(0.0142555 0.000968041 0)
(0.0139944 0.000879766 -1.41734e-28)
(0.0137522 0.000804659 -8.70956e-29)
(0.0135263 0.000739972 -3.9533e-29)
(0.0133149 0.000683518 0)
(0.0131164 0.000633606 3.39953e-29)
(0.0129296 0.000588958 0)
(0.0127537 0.000548618 -8.9906e-29)
(0.0125879 0.000511871 2.76518e-29)
(0.0124314 0.000478181 5.29645e-29)
(0.0122836 0.000447136 7.39891e-29)
(0.012144 0.000418418 0)
(0.012012 0.000391771 -4.39111e-29)
(0.0118873 0.000366985 0)
(0.0117694 0.000343885 -2.00012e-29)