/*--------------------------------*- C++ -*----------------------------------*\
  =========                 |
  \\      /  F ield         | OpenFOAM: The Open Source CFD Toolbox
   \\    /   O peration     | Website:  https://openfoam.org
    \\  /    A nd           | Version:  10
     \\/     M anipulation  |
\*---------------------------------------------------------------------------*/
FoamFile
{
    format      ascii;
    class       volVectorField;
    location    "0.72";
    object      Ub;
}
// * * * * * * * * * * * * * * * * * * * * * * * * * * * * * * * * * * * * * //

dimensions      [0 1 -1 0 0 0 0];

internalField   nonuniform List<vector> 
12225
(
(0.00208278 -0.000424473 0)
(0.0059433 -0.000377989 0)
(0.00912199 -0.000311247 0)
(0.0115745 -0.000244551 0)
(0.0133983 -0.000188376 0)
(0.0147386 -0.000145722 0)
(0.0157356 -0.000115852 0)
(0.0165048 -9.68437e-05 0)
(0.0171356 -8.68833e-05 0)
(0.0176976 -8.48233e-05 0)
(0.0182478 -9.04712e-05 0)
(0.0188397 -0.000104951 0)
(0.0195339 -0.000131533 0)
(0.0204158 -0.000177802 0)
(0.0216333 -0.000262044 0)
(0.0235065 -0.000436029 0)
(0.0269557 -0.000893409 0)
(0.0359344 -0.00270009 0)
(0.00225971 -0.00134124 0)
(0.00644018 -0.00119239 0)
(0.0098664 -0.00097966 0)
(0.0124955 -0.000767856 0)
(0.0144402 -0.000590039 0)
(0.0158626 -0.000455402 0)
(0.0169169 -0.000361347 0)
(0.0177285 -0.000301619 0)
(0.0183937 -0.000270371 0)
(0.0189863 -0.000263888 0)
(0.0195664 -0.000281456 0)
(0.0201895 -0.000326427 0)
(0.020917 -0.000408674 0)
(0.021833 -0.0005509 0)
(0.0230752 -0.000806523 0)
(0.024908 -0.00131873 0)
(0.027868 -0.00256039 0)
(0.0323989 -0.00656292 0)
(0.00238269 -0.00238947 0)
(0.00677763 -0.00211846 0)
(0.010353 -0.001734 0)
(0.0130717 -0.00135357 0)
(0.0150631 -0.00103591 0)
(0.0165058 -0.000796492 0)
(0.0175655 -0.000629881 0)
(0.0183747 -0.000524394 0)
(0.0190339 -0.00046928 0)
(0.0196186 -0.000457659 0)
(0.0201896 -0.00048792 0)
(0.0208012 -0.000565385 0)
(0.021511 -0.000706115 0)
(0.0223927 -0.000946408 0)
(0.0235537 -0.00136787 0)
(0.0251537 -0.00216967 0)
(0.0273333 -0.003894 0)
(0.0293651 -0.00809585 0)
(0.00250449 -0.00357126 0)
(0.00710543 -0.0031545 0)
(0.0108108 -0.00256898 0)
(0.0135935 -0.00199454 0)
(0.015606 -0.0015184 0)
(0.0170461 -0.00116174 0)
(0.0180918 -0.000914753 0)
(0.0188824 -0.000758928 0)
(0.0195212 -0.00067755 0)
(0.0200846 -0.000659833 0)
(0.020632 -0.000702669 0)
(0.0212146 -0.000812642 0)
(0.0218833 -0.00101056 0)
(0.0226953 -0.00134229 0)
(0.0237179 -0.00190461 0)
(0.0250048 -0.00290698 0)
(0.0264457 -0.00480696 0)
(0.0271499 -0.00846194 0)
(0.00264085 -0.00490404 0)
(0.00746587 -0.00431068 0)
(0.0112989 -0.0034875 0)
(0.0141302 -0.00268906 0)
(0.0161436 -0.00203372 0)
(0.0175615 -0.00154675 0)
(0.0185763 -0.00121163 0)
(0.0193339 -0.0010011 0)
(0.0199398 -0.000891145 0)
(0.0204701 -0.000866108 0)
(0.0209816 -0.000920547 0)
(0.0215207 -0.00106115 0)
(0.0221284 -0.00131113 0)
(0.0228432 -0.00172029 0)
(0.0236916 -0.00238573 0)
(0.0246471 -0.00349013 0)
(0.0254907 -0.00534503 0)
(0.0255047 -0.00828807 0)
(0.0028038 -0.00641486 0)
(0.00788913 -0.00560276 0)
(0.0118555 -0.00449436 0)
(0.0147211 -0.0034353 0)
(0.0167139 -0.00257711 0)
(0.0180883 -0.00194597 0)
(0.0190536 -0.0015151 0)
(0.0197628 -0.00124585 0)
(0.0203227 -0.00110518 0)
(0.0208077 -0.00107139 0)
(0.0212709 -0.00113558 0)
(0.0217523 -0.001303 0)
(0.0222821 -0.0015964 0)
(0.0228793 -0.00206331 0)
(0.0235374 -0.00278855 0)
(0.0241825 -0.00390768 0)
(0.0245827 -0.00559089 0)
(0.0242479 -0.00788125 0)
(0.00300675 -0.00814216 0)
(0.00840712 -0.00705182 0)
(0.0125169 -0.00559474 0)
(0.0153997 -0.00422947 0)
(0.0173456 -0.00314125 0)
(0.0186508 -0.00235146 0)
(0.0195449 -0.00181769 0)
(0.0201879 -0.00148639 0)
(0.020687 -0.00131333 0)
(0.0211137 -0.00126927 0)
(0.021516 -0.00134058 0)
(0.0219265 -0.00152929 0)
(0.0223643 -0.00185464 0)
(0.0228317 -0.00235655 0)
(0.0232997 -0.00309945 0)
(0.0236767 -0.00416762 0)
(0.0237653 -0.005625 0)
(0.0232638 -0.00738412 0)
(0.00326757 -0.0101404 0)
(0.00906029 -0.00868504 0)
(0.0133256 -0.00679272 0)
(0.016201 -0.0050639 0)
(0.0180654 -0.00371465 0)
(0.0192691 -0.00275164 0)
(0.0200656 -0.00210906 0)
(0.0206217 -0.00171366 0)
(0.0210435 -0.00150736 0)
(0.0213978 -0.00145177 0)
(0.0217266 -0.00152707 0)
(0.0220543 -0.00173031 0)
(0.02239 -0.00207455 0)
(0.0227231 -0.00258841 0)
(0.0230131 -0.00331306 0)
(0.0231713 -0.00428827 0)
(0.0230498 -0.00551184 0)
(0.0224776 -0.00685956 0)
(0.00361234 -0.0124879 0)
(0.00990503 -0.0105366 0)
(0.0143358 -0.00808881 0)
(0.0171656 -0.00592416 0)
(0.0189006 -0.00427939 0)
(0.0199614 -0.00312986 0)
(0.0206283 -0.00237499 0)
(0.0210733 -0.00191568 0)
(0.0213992 -0.00167685 0)
(0.0216665 -0.00160919 0)
(0.0219095 -0.00168537 0)
(0.0221445 -0.00189592 0)
(0.0223718 -0.00224586 0)
(0.022573 -0.00275093 0)
(0.0227045 -0.00343046 0)
(0.0226914 -0.00429144 0)
(0.022433 -0.00529812 0)
(0.0218402 -0.00633324 0)
(0.00408149 -0.0153007 0)
(0.0110246 -0.0126484 0)
(0.0156212 -0.00947512 0)
(0.018343 -0.00678441 0)
(0.0198813 -0.00480797 0)
(0.0207451 -0.00346243 0)
(0.021243 -0.00259632 0)
(0.0215491 -0.00207698 0)
(0.0217589 -0.00180885 0)
(0.0219239 -0.00173009 0)
(0.0220698 -0.00180477 0)
(0.0222046 -0.00201596 0)
(0.0223214 -0.00235983 0)
(0.0223979 -0.00283961 0)
(0.0223936 -0.00345691 0)
(0.0222508 -0.00419807 0)
(0.0219059 -0.00501554 0)
(0.0213176 -0.00581413 0)
(0.00474117 -0.0187568 0)
(0.012548 -0.0150678 0)
(0.0172842 -0.010926 0)
(0.0197943 -0.00759974 0)
(0.0210391 -0.00525869 0)
(0.0216356 -0.00371614 0)
(0.0219171 -0.00274768 0)
(0.0220524 -0.00217797 0)
(0.0221245 -0.00188769 0)
(0.0221725 -0.00180129 0)
(0.0222113 -0.00187382 0)
(0.0222409 -0.00208066 0)
(0.0222488 -0.00240946 0)
(0.0222114 -0.00285279 0)
(0.022094 -0.00339976 0)
(0.0218552 -0.0040261 0)
(0.0214576 -0.00468465 0)
(0.0208858 -0.0053039 0)
(0.00563746 -0.0227227 0)
(0.0145354 -0.0175978 0)
(0.0193242 -0.0122701 0)
(0.0214802 -0.00825249 0)
(0.022326 -0.00555806 0)
(0.0225911 -0.00384618 0)
(0.0226198 -0.00280112 0)
(0.022564 -0.00220018 0)
(0.0224876 -0.00190011 0)
(0.0224136 -0.00181264 0)
(0.0223453 -0.00188488 0)
(0.0222747 -0.00208571 0)
(0.0221853 -0.00239603 0)
(0.0220533 -0.00280089 0)
(0.0218499 -0.00328217 0)
(0.0215455 -0.00381192 0)
(0.0211182 -0.00434843 0)
(0.0205642 -0.00483902 0)
(0.00688848 -0.0278238 0)
(0.0171767 -0.020407 0)
(0.0218347 -0.0134877 0)
(0.0234171 -0.00868518 0)
(0.0237206 -0.00565486 0)
(0.0235747 -0.00381431 0)
(0.0233085 -0.00272918 0)
(0.0230402 -0.00212389 0)
(0.0228044 -0.00183184 0)
(0.0226039 -0.00175382 0)
(0.0224285 -0.00183073 0)
(0.0222619 -0.00202664 0)
(0.0220838 -0.00231773 0)
(0.0218709 -0.00268444 0)
(0.0215994 -0.0031054 0)
(0.0212486 -0.00355316 0)
(0.0208062 -0.00399309 0)
(0.0202742 -0.00438688 0)
(0.00914191 -0.0358089 0)
(0.0216315 -0.0238655 0)
(0.0256439 -0.0144947 0)
(0.0261151 -0.00874515 0)
(0.025541 -0.00541978 0)
(0.0247962 -0.00352384 0)
(0.0241299 -0.002461 0)
(0.0235871 -0.00189656 0)
(0.0231538 -0.00164304 0)
(0.0228024 -0.00159369 0)
(0.0225043 -0.001686 0)
(0.0222328 -0.0018815 0)
(0.021963 -0.00215385 0)
(0.021672 -0.0024814 0)
(0.02134 -0.00284246 0)
(0.0209524 -0.00321283 0)
(0.020503 -0.00356591 0)
(0.0199958 -0.00387562 0)
(0.0137424 -0.0497784 0)
(0.0298895 -0.0274058 0)
(0.0316129 -0.0144149 0)
(0.0298428 -0.00783735 0)
(0.0278398 -0.00449169 0)
(0.026241 -0.0027531 0)
(0.0250526 -0.00185351 0)
(0.0241734 -0.00142016 0)
(0.0235094 -0.0012623 0)
(0.0229889 -0.00127711 0)
(0.0225591 -0.00140602 0)
(0.0221803 -0.00161307 0)
(0.0218217 -0.00187342 0)
(0.0214598 -0.00216697 0)
(0.0210772 -0.00247492 0)
(0.0206633 -0.00277836 0)
(0.0202143 -0.00305879 0)
(0.0197336 -0.00329984 0)
(0.0249195 -0.0787792 0)
(0.0472883 -0.0269404 0)
(0.0409727 -0.0106772 0)
(0.0346416 -0.00472775 0)
(0.0304391 -0.00226593 0)
(0.0277378 -0.00118117 0)
(0.0259508 -0.000719526 0)
(0.0247151 -0.000573645 0)
(0.023817 -0.000603524 0)
(0.0231285 -0.000738179 0)
(0.02257 -0.000938055 0)
(0.022089 -0.00117859 0)
(0.0216499 -0.00144248 0)
(0.0212281 -0.0017155 0)
(0.0208072 -0.0019847 0)
(0.0203779 -0.00223788 0)
(0.0199365 -0.00246403 0)
(0.0194845 -0.00265425 0)
(0.0594335 0.00112378 0)
(0.0910345 0.00347373 0)
(0.0533972 0.00295866 0)
(0.0392325 0.00238121 0)
(0.0325606 0.001906 0)
(0.0288638 0.00149273 0)
(0.026574 0.00111444 0)
(0.0250386 0.000758062 0)
(0.023942 0.000416325 0)
(0.0231129 8.59677e-05 0)
(0.0224504 -0.000233758 0)
(0.0218917 -0.000540983 0)
(0.0213957 -0.000833317 0)
(0.0209362 -0.00110774 0)
(0.0204966 -0.00135959 0)
(0.0200674 -0.00158428 0)
(0.019644 -0.00177766 0)
(0.0192253 -0.0019367 0)
(0.0205052 0.0765768 0)
(0.0405667 0.0323055 0)
(0.0374908 0.016717 0)
(0.0327509 0.00999698 0)
(0.0291859 0.00657117 0)
(0.0267295 0.00457264 0)
(0.0250261 0.00327334 0)
(0.0238059 0.00235225 0)
(0.0228948 0.00165339 0)
(0.022183 0.00109487 0)
(0.0216005 0.000631336 0)
(0.0211022 0.000237588 0)
(0.0206588 -0.000101548 0)
(0.0202508 -0.000395183 0)
(0.0198649 -0.000646325 0)
(0.019493 -0.000860059 0)
(0.0191316 -0.00103796 0)
(0.0187795 -0.00118147 0)
(0.00784868 0.0407574 0)
(0.0187912 0.0281473 0)
(0.0226992 0.0187983 0)
(0.0234884 0.012833 0)
(0.0231879 0.00904099 0)
(0.0225958 0.00654788 0)
(0.0219876 0.00483608 0)
(0.0214415 0.0036087 0)
(0.0209674 0.00269326 0)
(0.0205543 0.00198698 0)
(0.0201874 0.00142685 0)
(0.0198535 0.000973334 0)
(0.0195425 0.000600926 0)
(0.019247 0.000293111 0)
(0.018963 4.02776e-05 0)
(0.018688 -0.000167856 0)
(0.0184204 -0.000336876 0)
(0.0181592 -0.000470556 0)
(0.00428787 0.0247839 0)
(0.0112601 0.0204672 0)
(0.0153838 0.0158207 0)
(0.0175323 0.0119824 0)
(0.0185641 0.00906613 0)
(0.0190125 0.00690206 0)
(0.0191648 0.00529389 0)
(0.0191675 0.00408396 0)
(0.0190931 0.00315843 0)
(0.0189774 0.00243815 0)
(0.018838 0.00186873 0)
(0.0186838 0.00141271 0)
(0.0185197 0.00104411 0)
(0.0183486 0.000744697 0)
(0.0181725 0.00050142 0)
(0.0179933 0.000304581 0)
(0.0178126 0.000146964 0)
(0.0176319 2.35815e-05 0)
(0.00295676 0.0174672 0)
(0.00811222 0.0153497 0)
(0.0117714 0.0126653 0)
(0.0141529 0.0101356 0)
(0.0156418 0.00800982 0)
(0.0165566 0.00630888 0)
(0.0171124 0.00497339 0)
(0.0174432 0.00392878 0)
(0.0176305 0.0031085 0)
(0.0177234 0.00245965 0)
(0.0177521 0.00194218 0)
(0.0177359 0.00152645 0)
(0.0176872 0.00119066 0)
(0.0176149 0.000918757 0)
(0.0175253 0.000698817 0)
(0.0174231 0.000521847 0)
(0.017312 0.000380965 0)
(0.0171949 0.000270793 0)
(0.00229385 0.0128601 0)
(0.00644142 0.01165 0)
(0.0096668 0.00997332 0)
(0.0120084 0.0082611 0)
(0.0136503 0.00672376 0)
(0.0147846 0.00542746 0)
(0.0155639 0.00436773 0)
(0.016097 0.00351334 0)
(0.0164585 0.00282754 0)
(0.0166987 0.00227673 0)
(0.0168517 0.00183305 0)
(0.0169409 0.00147451 0)
(0.0169828 0.0011841 0)
(0.0169894 0.000948811 0)
(0.0169695 0.00075868 0)
(0.0169299 0.000606045 0)
(0.0168758 0.000484952 0)
(0.0168112 0.000390722 0)
(0.00191652 0.00964604 0)
(0.0054537 0.00888755 0)
(0.00834997 0.00777956 0)
(0.010589 0.00658912 0)
(0.0122644 0.00547207 0)
(0.0134977 0.00449528 0)
(0.0143985 0.00367324 0)
(0.0150538 0.00299539 0)
(0.0155284 0.00244196 0)
(0.0158694 0.00199189 0)
(0.016111 0.0016262 0)
(0.0162778 0.00132898 0)
(0.0163881 0.00108742 0)
(0.0164555 0.000891388 0)
(0.0164901 0.000732958 0)
(0.0165 0.000605909 0)
(0.0164913 0.000505347 0)
(0.0164687 0.000427394 0)
(0.00168065 0.00725546 0)
(0.00482128 0.00675412 0)
(0.00747482 0.00599648 0)
(0.00960766 0.00515489 0)
(0.0112699 0.00434128 0)
(0.0125426 0.00361161 0)
(0.0135076 0.00298473 0)
(0.0142355 0.00245925 0)
(0.0147822 0.00202473 0)
(0.015191 0.00166798 0)
(0.0154945 0.0013761 0)
(0.0157174 0.00113774 0)
(0.0158784 0.000943433 0)
(0.0159917 0.000785514 0)
(0.0160683 0.000657848 0)
(0.0161168 0.00055556 0)
(0.0161439 0.000474772 0)
(0.0161549 0.000412386 0)
(0.00152219 0.00540174 0)
(0.00438928 0.00506208 0)
(0.00686078 0.00453665 0)
(0.00889814 0.00393975 0)
(0.0105288 0.00335079 0)
(0.0118103 0.00281321 0)
(0.0128063 0.00234456 0)
(0.0135756 0.00194705 0)
(0.0141673 0.0016153 0)
(0.0146207 0.00134098 0)
(0.0149668 0.00111538 0)
(0.0152297 0.000930487 0)
(0.0154277 0.000779433 0)
(0.0155755 0.000656542 0)
(0.0156842 0.000557206 0)
(0.0157628 0.000477718 0)
(0.0158181 0.000415103 0)
(0.0158558 0.000366969 0)
(0.00140862 0.00392417 0)
(0.00407565 0.00369397 0)
(0.00640536 0.00333179 0)
(0.00835843 0.00291393 0)
(0.00994997 0.00249579 0)
(0.0112231 0.00210944 0)
(0.0122297 0.00176914 0)
(0.01302 0.00147807 0)
(0.0136379 0.00123353 0)
(0.0141196 0.00103031 0)
(0.0144943 0.000862556 0)
(0.014785 0.000724734 0)
(0.0150099 0.000611987 0)
(0.0151834 0.000520238 0)
(0.0153167 0.000446136 0)
(0.0154187 0.000386965 0)
(0.0154965 0.000340525 0)
(0.0155557 0.000305036 0)
(0.00132122 0.00272515 0)
(0.00383159 0.00257331 0)
(0.00604413 0.0023313 0)
(0.00792023 0.00204905 0)
(0.00946797 0.00176387 0)
(0.0107214 0.00149812 0)
(0.0117245 0.00126237 0)
(0.0125215 0.00105955 0)
(0.0131521 0.000888358 0)
(0.0136499 0.000745593 0)
(0.0140424 0.000627458 0)
(0.0143518 0.000530262 0)
(0.0145956 0.000450717 0)
(0.014788 0.000386026 0)
(0.01494 0.000333874 0)
(0.0150604 0.00029237 0)
(0.0151564 0.000259972 0)
(0.0152334 0.000235423 0)
(0.00124712 0.0017421 0)
(0.00362244 0.00164865 0)
(0.00572873 0.00149817 0)
(0.00752867 0.00132134 0)
(0.00902624 0.00114147 0)
(0.0102496 0.000972881 0)
(0.0112372 0.000822596 0)
(0.0120287 0.000692781 0)
(0.0126605 0.000582871 0)
(0.0131641 0.000491003 0)
(0.0135655 0.00041488 0)
(0.0138857 0.000352218 0)
(0.0141419 0.000300961 0)
(0.0143475 0.000259347 0)
(0.0145134 0.000225906 0)
(0.0146482 0.000199431 0)
(0.0147588 0.000178935 0)
(0.0148509 0.000163606 0)
(0.0011726 0.000934366 0)
(0.00340972 0.00088556 0)
(0.00540168 0.000806323 0)
(0.00711276 0.000712702 0)
(0.00854452 0.000617041 0)
(0.00972104 0.000527038 0)
(0.0106765 0.000446545 0)
(0.011447 0.000376834 0)
(0.012066 0.000317695 0)
(0.012563 0.000268199 0)
(0.0129624 0.000227161 0)
(0.0132841 0.00019339 0)
(0.0135446 0.000165802 0)
(0.0137567 0.000143466 0)
(0.0139309 0.000125601 0)
(0.0140755 0.000111565 0)
(0.0141974 0.000100832 0)
(0.0143019 9.29678e-05 0)
(0.00104228 0.000285166 0)
(0.00303207 0.000270488 0)
(0.00480596 0.000246525 0)
(0.00633095 0.000218119 0)
(0.00760707 0.00018902 0)
(0.00865467 0.000161582 0)
(0.00950357 0.000137 0)
(0.0101857 0.00011568 0)
(0.0107312 9.75742e-05 0)
(0.0111663 8.24112e-05 0)
(0.0115133 6.98377e-05 0)
(0.0117906 5.94958e-05 0)
(0.012013 5.10591e-05 0)
(0.0121927 4.42461e-05 0)
(0.0123394 3.88211e-05 0)
(0.012461 3.45904e-05 0)
(0.0125639 3.13955e-05 0)
(0.0126532 2.91056e-05 0)
(5.43529e-34 -1.32341e-33 -1.70983e-59)
(1.63509e-33 -1.32197e-33 1.70667e-59)
(2.73379e-33 -1.31955e-33 0)
(3.83873e-33 -1.31616e-33 0)
(4.94899e-33 -1.31176e-33 0)
(6.06362e-33 -1.30635e-33 -1.68126e-59)
(7.1816e-33 -1.29991e-33 0)
(8.30192e-33 -1.29244e-33 0)
(9.42351e-33 -1.28394e-33 0)
(1.05453e-32 -1.27441e-33 0)
(1.16661e-32 -1.26384e-33 1.6197e-59)
(1.27849e-32 -1.25226e-33 0)
(1.39005e-32 -1.23967e-33 0)
(1.50117e-32 -1.2261e-33 0)
(1.61173e-32 -1.21158e-33 0)
(1.72163e-32 -1.19614e-33 1.52565e-59)
(1.83075e-32 -1.17981e-33 0)
(1.93898e-32 -1.16266e-33 0)
(2.04621e-32 -1.14471e-33 0)
(2.15232e-32 -1.12604e-33 0)
(2.25723e-32 -1.10669e-33 0)
(2.36083e-32 -1.08673e-33 0)
(2.46303e-32 -1.06623e-33 0)
(2.56373e-32 -1.04525e-33 1.32069e-59)
(2.66287e-32 -1.02385e-33 -1.29187e-59)
(2.76036e-32 -1.00211e-33 1.26262e-59)
(2.85613e-32 -9.80098e-34 1.23303e-59)
(2.95012e-32 -9.5787e-34 0)
(3.04228e-32 -9.35495e-34 0)
(3.13254e-32 -9.13037e-34 -1.14309e-59)
(3.22088e-32 -8.90555e-34 -1.11299e-59)
(3.30725e-32 -8.68106e-34 0)
(3.39162e-32 -8.45745e-34 0)
(3.47397e-32 -8.23522e-34 -1.02337e-59)
(3.55427e-32 -8.01483e-34 0)
(3.63251e-32 -7.79673e-34 0)
(3.70869e-32 -7.58131e-34 9.36081e-60)
(3.7828e-32 -7.36893e-34 0)
(3.85484e-32 -7.15992e-34 8.79892e-60)
(3.92482e-32 -6.95456e-34 1.70505e-59)
(3.99275e-32 -6.75311e-34 0)
(4.05863e-32 -6.55579e-34 0)
(4.1225e-32 -6.36279e-34 0)
(4.18436e-32 -6.17428e-34 0)
(4.24425e-32 -5.99039e-34 0)
(4.30219e-32 -5.81122e-34 1.40059e-59)
(4.3582e-32 -5.63685e-34 1.3542e-59)
(4.41231e-32 -5.46736e-34 1.30911e-59)
(4.46457e-32 -5.30278e-34 0)
(4.515e-32 -5.14314e-34 -1.22287e-59)
(4.56364e-32 -4.98843e-34 0)
(4.61052e-32 -4.83865e-34 1.14191e-59)
(4.65568e-32 -4.69377e-34 1.10339e-59)
(4.69917e-32 -4.55375e-34 0)
(4.74102e-32 -4.41856e-34 0)
(4.78126e-32 -4.28812e-34 0)
(4.81995e-32 -4.16238e-34 9.62154e-60)
(4.85712e-32 -4.04124e-34 0)
(4.89281e-32 -3.92465e-34 0)
(4.92707e-32 -3.8125e-34 0)
(4.95992e-32 -3.7047e-34 0)
(4.99143e-32 -3.60116e-34 0)
(5.02161e-32 -3.50177e-34 0)
(5.05052e-32 -3.40644e-34 0)
(5.0782e-32 -3.31505e-34 0)
(5.10468e-32 -3.22751e-34 -7.13773e-60)
(5.13e-32 -3.14369e-34 0)
(5.1542e-32 -3.0635e-34 0)
(5.17733e-32 -2.98682e-34 6.49844e-60)
(5.19941e-32 -2.91355e-34 6.30379e-60)
(5.22048e-32 -2.84357e-34 0)
(5.24058e-32 -2.77678e-34 -5.94054e-60)
(5.25974e-32 -2.71306e-34 5.7713e-60)
(5.278e-32 -2.65232e-34 0)
(5.2954e-32 -2.59444e-34 -5.45626e-60)
(5.31195e-32 -2.53933e-34 0)
(5.32771e-32 -2.48688e-34 0)
(5.34269e-32 -2.43699e-34 5.0381e-60)
(5.35694e-32 -2.38956e-34 0)
(5.37047e-32 -2.3445e-34 -4.79247e-60)
(5.38332e-32 -2.30171e-34 0)
(5.39551e-32 -2.26111e-34 4.57098e-60)
(5.40708e-32 -2.2226e-34 4.4687e-60)
(5.41805e-32 -2.18609e-34 4.37173e-60)
(5.42845e-32 -2.1515e-34 8.55975e-60)
(5.43829e-32 -2.11874e-34 -8.38575e-60)
(5.44761e-32 -2.08775e-34 0)
(5.45643e-32 -2.05843e-34 0)
(5.46477e-32 -2.03071e-34 0)
(5.47265e-32 -2.00453e-34 -7.77908e-60)
(5.4801e-32 -1.97981e-34 -7.64773e-60)
(5.48713e-32 -1.95647e-34 7.5238e-60)
(5.49377e-32 -1.93447e-34 0)
(5.50003e-32 -1.91372e-34 -7.2967e-60)
(5.50592e-32 -1.89418e-34 -7.19285e-60)
(5.51148e-32 -1.87578e-34 -7.09509e-60)
(5.51672e-32 -1.85846e-34 0)
(5.52164e-32 -1.84218e-34 0)
(5.52627e-32 -1.82687e-34 0)
(5.53063e-32 -1.81249e-34 -6.75883e-60)
(5.53472e-32 -1.79898e-34 0)
(5.53857e-32 -1.78632e-34 0)
(5.54217e-32 -1.77443e-34 6.55669e-60)
(5.54555e-32 -1.7633e-34 0)
(5.54873e-32 -1.75287e-34 0)
(5.5517e-32 -1.74311e-34 6.39022e-60)
(5.55448e-32 -1.73397e-34 0)
(5.55708e-32 -1.72543e-34 0)
(5.55952e-32 -1.71745e-34 -6.2539e-60)
(5.56179e-32 -1.71e-34 -6.2143e-60)
(5.56392e-32 -1.70305e-34 0)
(5.5659e-32 -1.69656e-34 6.14285e-60)
(5.56776e-32 -1.69051e-34 0)
(5.56948e-32 -1.68488e-34 -6.0808e-60)
(5.57109e-32 -1.67964e-34 0)
(5.57259e-32 -1.67476e-34 -6.02698e-60)
(5.57399e-32 -1.67022e-34 -6.0029e-60)
(5.57528e-32 -1.66601e-34 0)
(5.57649e-32 -1.66209e-34 0)
(5.57761e-32 -1.65846e-34 0)
(5.57865e-32 -1.65509e-34 0)
(5.57962e-32 -1.65197e-34 0)
(5.58051e-32 -1.64908e-34 0)
(5.58134e-32 -1.6464e-34 0)
(5.58211e-32 -1.64392e-34 -5.86308e-60)
(5.58282e-32 -1.64163e-34 5.85093e-60)
(5.58348e-32 -1.63952e-34 0)
(5.58408e-32 -1.63757e-34 0)
(5.58464e-32 -1.63576e-34 0)
(5.58516e-32 -1.6341e-34 0)
(5.58564e-32 -1.63257e-34 1.16055e-59)
(5.58608e-32 -1.63116e-34 0)
(5.58648e-32 -1.62986e-34 -1.15767e-59)
(5.58685e-32 -1.62867e-34 1.1564e-59)
(5.5872e-32 -1.62757e-34 0)
(5.58751e-32 -1.62655e-34 0)
(5.5878e-32 -1.62562e-34 0)
(5.58806e-32 -1.62477e-34 -1.15225e-59)
(5.5883e-32 -1.62398e-34 -1.15141e-59)
(5.58852e-32 -1.62325e-34 0)
(5.58872e-32 -1.62258e-34 -1.14992e-59)
(5.5889e-32 -1.62195e-34 -1.14926e-59)
(5.58907e-32 -1.62137e-34 1.14864e-59)
(5.58922e-32 -1.62083e-34 0)
(5.58935e-32 -1.62032e-34 0)
(5.58947e-32 -1.61984e-34 1.14702e-59)
(5.58957e-32 -1.61937e-34 0)
(5.58966e-32 -1.61892e-34 0)
(5.58974e-32 -1.61847e-34 0)
(5.5898e-32 -1.61801e-34 0)
(5.58984e-32 -1.61754e-34 -1.14461e-59)
(5.58987e-32 -1.61704e-34 -1.14409e-59)
(5.58988e-32 -1.61649e-34 0)
(5.58987e-32 -1.61588e-34 -1.14289e-59)
(5.58984e-32 -1.61519e-34 0)
(5.58978e-32 -1.61438e-34 0)
(5.58969e-32 -1.61341e-34 -1.14035e-59)
(5.58956e-32 -1.61225e-34 0)
(5.58938e-32 -1.61084e-34 -1.13772e-59)
(5.58915e-32 -1.6091e-34 0)
(5.58883e-32 -1.60695e-34 0)
(5.58843e-32 -1.60425e-34 -1.131e-59)
(5.5879e-32 -1.60086e-34 0)
(5.58722e-32 -1.59657e-34 -1.12317e-59)
(5.58635e-32 -1.59112e-34 0)
(5.58522e-32 -1.58415e-34 0)
(5.58377e-32 -1.5752e-34 0)
(5.5819e-32 -1.56362e-34 1.08961e-59)
(5.57948e-32 -1.54855e-34 0)
(5.57632e-32 -1.52876e-34 -1.05409e-59)
(5.5722e-32 -1.50252e-34 0)
(5.56676e-32 -1.46724e-34 0)
(5.55952e-32 -1.41899e-34 0)
(5.54977e-32 -1.35149e-34 0)
(5.53642e-32 -1.254e-34 0)
(5.51767e-32 -1.10657e-34 0)
(5.49035e-32 -8.67556e-35 0)
(5.44801e-32 -4.33651e-35 -1.3222e-60)
(5.37439e-32 5.26349e-35 0)
(5.21121e-32 3.53651e-34 0)
(5.45538e-34 -3.65125e-33 4.71718e-59)
(1.64113e-33 -3.64689e-33 -4.70767e-59)
(2.74387e-33 -3.63963e-33 0)
(3.85285e-33 -3.62941e-33 9.36359e-59)
(4.96715e-33 -3.61617e-33 0)
(6.0858e-33 -3.59989e-33 -4.64556e-59)
(7.20778e-33 -3.58052e-33 -9.22137e-59)
(8.33205e-33 -3.55804e-33 -9.15795e-59)
(9.45753e-33 -3.53244e-33 0)
(1.05831e-32 -3.50372e-33 -9.0069e-59)
(1.17077e-32 -3.47189e-33 4.47349e-59)
(1.28301e-32 -3.43699e-33 0)
(1.39491e-32 -3.39906e-33 0)
(1.50636e-32 -3.35818e-33 0)
(1.61725e-32 -3.31441e-33 0)
(1.72744e-32 -3.26788e-33 4.20324e-59)
(1.83684e-32 -3.21869e-33 0)
(1.94532e-32 -3.16698e-33 8.09459e-59)
(2.05277e-32 -3.11291e-33 0)
(2.1591e-32 -3.05664e-33 0)
(2.26418e-32 -2.99836e-33 -7.64365e-59)
(2.36793e-32 -2.93824e-33 0)
(2.47026e-32 -2.87649e-33 7.31889e-59)
(2.57106e-32 -2.8133e-33 3.60576e-59)
(2.67027e-32 -2.74889e-33 -3.52133e-59)
(2.76781e-32 -2.68345e-33 3.43561e-59)
(2.86361e-32 -2.61719e-33 3.34884e-59)
(2.95761e-32 -2.55031e-33 0)
(3.04974e-32 -2.48301e-33 0)
(3.13997e-32 -2.41547e-33 -3.08485e-59)
(3.22825e-32 -2.34787e-33 -8.91309e-59)
(3.31454e-32 -2.28038e-33 0)
(3.39881e-32 -2.21318e-33 0)
(3.48105e-32 -2.1464e-33 -2.73306e-59)
(3.56123e-32 -2.08019e-33 0)
(3.63934e-32 -2.01468e-33 0)
(3.71538e-32 -1.94998e-33 2.47644e-59)
(3.78933e-32 -1.88621e-33 0)
(3.86121e-32 -1.82347e-33 6.84241e-59)
(3.93102e-32 -1.76182e-33 4.4614e-59)
(3.99878e-32 -1.70136e-33 0)
(4.06449e-32 -1.64215e-33 0)
(4.12818e-32 -1.58424e-33 -7.80048e-59)
(4.18986e-32 -1.52769e-33 -7.50227e-59)
(4.24956e-32 -1.47253e-33 -7.21145e-59)
(4.30732e-32 -1.41878e-33 1.04939e-58)
(4.36315e-32 -1.36649e-33 3.42929e-59)
(4.41708e-32 -1.31566e-33 -3.08805e-59)
(4.46916e-32 -1.26631e-33 6.12462e-59)
(4.51941e-32 -1.21845e-33 -3.04291e-59)
(4.56788e-32 -1.17206e-33 0)
(4.61459e-32 -1.12716e-33 2.80469e-59)
(4.65958e-32 -1.08373e-33 7.85405e-59)
(4.70291e-32 -1.04176e-33 0)
(4.74459e-32 -1.00123e-33 0)
(4.78469e-32 -9.62139e-34 0)
(4.82322e-32 -9.24451e-34 2.27578e-59)
(4.86024e-32 -8.88148e-34 0)
(4.89579e-32 -8.53205e-34 3.94862e-59)
(4.92991e-32 -8.19596e-34 0)
(4.96263e-32 -7.87292e-34 3.60154e-59)
(4.994e-32 -7.56265e-34 0)
(5.02406e-32 -7.26484e-34 -3.28137e-59)
(5.05285e-32 -6.97918e-34 0)
(5.08041e-32 -6.70535e-34 2.9868e-59)
(5.10678e-32 -6.44304e-34 -4.39362e-59)
(5.132e-32 -6.19191e-34 0)
(5.1561e-32 -5.95164e-34 -2.59e-59)
(5.17912e-32 -5.7219e-34 1.3568e-59)
(5.20111e-32 -5.50237e-34 1.29953e-59)
(5.22209e-32 -5.2927e-34 0)
(5.2421e-32 -5.09258e-34 -3.33039e-59)
(5.26118e-32 -4.90169e-34 1.14284e-59)
(5.27936e-32 -4.71971e-34 0)
(5.29668e-32 -4.54632e-34 -1.05014e-59)
(5.31317e-32 -4.38121e-34 -1.76327e-59)
(5.32885e-32 -4.22407e-34 0)
(5.34377e-32 -4.07461e-34 9.27099e-60)
(5.35795e-32 -3.93253e-34 0)
(5.37143e-32 -3.79754e-34 6.01189e-60)
(5.38422e-32 -3.66936e-34 0)
(5.39636e-32 -3.54771e-34 -5.34847e-60)
(5.40788e-32 -3.43233e-34 7.59561e-60)
(5.4188e-32 -3.32296e-34 1.93722e-59)
(5.42915e-32 -3.21934e-34 3.71129e-59)
(5.43895e-32 -3.12122e-34 -3.55679e-59)
(5.44823e-32 -3.02836e-34 0)
(5.45701e-32 -2.94053e-34 0)
(5.46532e-32 -2.85751e-34 0)
(5.47316e-32 -2.77907e-34 6.61436e-60)
(5.48058e-32 -2.70501e-34 -1.13967e-59)
(5.48758e-32 -2.63511e-34 1.1032e-59)
(5.49418e-32 -2.56918e-34 0)
(5.50041e-32 -2.50704e-34 -2.58972e-59)
(5.50629e-32 -2.44849e-34 -1.00584e-59)
(5.51182e-32 -2.39337e-34 -9.7708e-60)
(5.51703e-32 -2.34149e-34 0)
(5.52194e-32 -2.2927e-34 0)
(5.52655e-32 -2.24684e-34 0)
(5.53089e-32 -2.20376e-34 -8.78157e-60)
(5.53496e-32 -2.16332e-34 0)
(5.53879e-32 -2.12536e-34 -1.15144e-59)
(5.54238e-32 -2.08977e-34 -2.95275e-60)
(5.54575e-32 -2.05642e-34 1.07883e-59)
(5.5489e-32 -2.02517e-34 0)
(5.55186e-32 -1.99592e-34 1.78485e-59)
(5.55463e-32 -1.96856e-34 0)
(5.55722e-32 -1.94298e-34 9.59372e-60)
(5.55965e-32 -1.91907e-34 -1.66382e-59)
(5.56191e-32 -1.89675e-34 -1.62865e-59)
(5.56403e-32 -1.87591e-34 0)
(5.56601e-32 -1.85648e-34 -1.7132e-60)
(5.56785e-32 -1.83837e-34 8.49203e-60)
(5.56957e-32 -1.82149e-34 -6.78702e-60)
(5.57117e-32 -1.80578e-34 0)
(5.57267e-32 -1.79117e-34 -6.62876e-60)
(5.57406e-32 -1.77758e-34 1.29383e-60)
(5.57535e-32 -1.76495e-34 0)
(5.57655e-32 -1.75322e-34 7.59522e-60)
(5.57767e-32 -1.74234e-34 7.48057e-60)
(5.5787e-32 -1.73225e-34 7.37427e-60)
(5.57966e-32 -1.72289e-34 0)
(5.58055e-32 -1.71423e-34 0)
(5.58138e-32 -1.70621e-34 0)
(5.58214e-32 -1.69879e-34 -1.31686e-59)
(5.58285e-32 -1.69193e-34 6.11096e-60)
(5.58351e-32 -1.6856e-34 0)
(5.58411e-32 -1.67975e-34 -6.82124e-60)
(5.58467e-32 -1.67435e-34 -6.76436e-60)
(5.58518e-32 -1.66937e-34 0)
(5.58566e-32 -1.66479e-34 1.19386e-59)
(5.5861e-32 -1.66056e-34 -1.32381e-59)
(5.5865e-32 -1.65667e-34 -1.18538e-59)
(5.58687e-32 -1.65309e-34 2.48971e-59)
(5.58721e-32 -1.64979e-34 0)
(5.58752e-32 -1.64676e-34 0)
(5.58781e-32 -1.64397e-34 0)
(5.58807e-32 -1.6414e-34 -1.16944e-59)
(5.58831e-32 -1.63903e-34 -2.44544e-59)
(5.58853e-32 -1.63685e-34 -1.27387e-59)
(5.58873e-32 -1.63484e-34 -1.1626e-59)
(5.58891e-32 -1.63297e-34 -2.42635e-59)
(5.58908e-32 -1.63124e-34 1.15884e-59)
(5.58922e-32 -1.62961e-34 0)
(5.58936e-32 -1.62809e-34 0)
(5.58947e-32 -1.62664e-34 2.40644e-59)
(5.58958e-32 -1.62525e-34 0)
(5.58967e-32 -1.62389e-34 0)
(5.58974e-32 -1.62254e-34 -1.24382e-59)
(5.5898e-32 -1.62118e-34 0)
(5.58985e-32 -1.61977e-34 -2.38495e-59)
(5.58988e-32 -1.61827e-34 -1.14536e-59)
(5.58989e-32 -1.61663e-34 0)
(5.58988e-32 -1.61481e-34 -2.36956e-59)
(5.58985e-32 -1.61273e-34 0)
(5.58979e-32 -1.6103e-34 0)
(5.5897e-32 -1.60743e-34 -1.13417e-59)
(5.58958e-32 -1.60397e-34 -1.20547e-59)
(5.5894e-32 -1.59975e-34 -1.12626e-59)
(5.58917e-32 -1.59457e-34 0)
(5.58886e-32 -1.58813e-34 0)
(5.58846e-32 -1.58008e-34 -2.26249e-59)
(5.58794e-32 -1.56995e-34 0)
(5.58727e-32 -1.55715e-34 -2.19194e-59)
(5.58641e-32 -1.54088e-34 0)
(5.5853e-32 -1.52009e-34 0)
(5.58388e-32 -1.49338e-34 0)
(5.58204e-32 -1.45886e-34 9.81272e-60)
(5.57965e-32 -1.41393e-34 0)
(5.57655e-32 -1.35496e-34 -8.74365e-60)
(5.5725e-32 -1.27679e-34 0)
(5.56716e-32 -1.17181e-34 0)
(5.56007e-32 -1.02844e-34 -2.64554e-61)
(5.55056e-32 -8.28235e-35 -3.83963e-60)
(5.53757e-32 -5.3995e-35 0)
(5.51947e-32 -1.06331e-35 0)
(5.49345e-32 5.89462e-35 0)
(5.45435e-32 1.82394e-34 6.86236e-59)
(5.39222e-32 4.39902e-34 0)
(5.2942e-32 1.1336e-33 -5.08841e-58)
(5.49573e-34 -5.99201e-33 3.09714e-58)
(1.65326e-33 -5.98469e-33 -3.93538e-62)
(2.76411e-33 -5.97252e-33 0)
(3.88122e-33 -5.95538e-33 9.19529e-62)
(5.00364e-33 -5.93319e-33 0)
(6.13038e-33 -5.90588e-33 0)
(7.2604e-33 -5.87338e-33 -3.02789e-58)
(8.39263e-33 -5.83565e-33 -1.50451e-58)
(9.52596e-33 -5.79267e-33 1.49062e-58)
(1.06593e-32 -5.74443e-33 -1.47987e-58)
(1.17913e-32 -5.69096e-33 0)
(1.2921e-32 -5.63231e-33 0)
(1.40471e-32 -5.56855e-33 -1.42948e-58)
(1.51683e-32 -5.49979e-33 -2.82183e-58)
(1.62835e-32 -5.4262e-33 2.7822e-58)
(1.73914e-32 -5.34793e-33 0)
(1.84909e-32 -5.26519e-33 2.69584e-58)
(1.95808e-32 -5.17823e-33 1.32929e-58)
(2.066e-32 -5.0873e-33 0)
(2.17273e-32 -4.9927e-33 2.55038e-58)
(2.27817e-32 -4.89472e-33 -1.2545e-58)
(2.38223e-32 -4.7937e-33 -2.44453e-58)
(2.4848e-32 -4.68997e-33 1.20059e-58)
(2.58581e-32 -4.58386e-33 0)
(2.68517e-32 -4.47574e-33 2.27586e-58)
(2.7828e-32 -4.36594e-33 2.21771e-58)
(2.87865e-32 -4.25481e-33 0)
(2.97264e-32 -4.14269e-33 2.0996e-58)
(3.06473e-32 -4.02991e-33 0)
(3.15487e-32 -3.91678e-33 1.98023e-58)
(3.24303e-32 -3.80361e-33 -9.67895e-59)
(3.32916e-32 -3.69068e-33 0)
(3.41324e-32 -3.57826e-33 0)
(3.49525e-32 -3.4666e-33 0)
(3.57518e-32 -3.35594e-33 0)
(3.65302e-32 -3.24649e-33 0)
(3.72876e-32 -3.13844e-33 0)
(3.80241e-32 -3.03197e-33 1.51362e-58)
(3.87396e-32 -2.92724e-33 -7.20085e-59)
(3.94344e-32 -2.82439e-33 0)
(4.01084e-32 -2.72355e-33 0)
(4.0762e-32 -2.62481e-33 0)
(4.13953e-32 -2.52827e-33 -2.51643e-58)
(4.20085e-32 -2.43401e-33 -1.21868e-58)
(4.26019e-32 -2.34209e-33 -2.01186e-60)
(4.31757e-32 -2.25256e-33 2.03893e-60)
(4.37304e-32 -2.16546e-33 -1.05756e-58)
(4.42661e-32 -2.08081e-33 -1.03395e-58)
(4.47833e-32 -1.99864e-33 1.96081e-58)
(4.52823e-32 -1.91895e-33 9.27924e-59)
(4.57635e-32 -1.84174e-33 0)
(4.62272e-32 -1.767e-33 8.48033e-59)
(4.66738e-32 -1.69473e-33 1.64211e-58)
(4.71037e-32 -1.62489e-33 0)
(4.75174e-32 -1.55747e-33 0)
(4.79152e-32 -1.49243e-33 -7.03692e-59)
(4.82975e-32 -1.42974e-33 0)
(4.86648e-32 -1.36936e-33 0)
(4.90174e-32 -1.31124e-33 1.84852e-58)
(4.93558e-32 -1.25534e-33 1.15816e-58)
(4.96803e-32 -1.20162e-33 5.74307e-59)
(4.99915e-32 -1.15003e-33 0)
(5.02896e-32 -1.10051e-33 -5.21457e-59)
(5.05751e-32 -1.05301e-33 0)
(5.08484e-32 -1.00749e-33 1.37049e-58)
(5.11098e-32 -9.63874e-34 -4.50044e-59)
(5.13598e-32 -9.22124e-34 -8.07943e-59)
(5.15988e-32 -8.82181e-34 -1.17331e-58)
(5.1827e-32 -8.4399e-34 0)
(5.2045e-32 -8.07495e-34 6.87478e-59)
(5.2253e-32 -7.72643e-34 0)
(5.24514e-32 -7.39379e-34 2.83181e-59)
(5.26405e-32 -7.07649e-34 5.82553e-59)
(5.28208e-32 -6.774e-34 5.50766e-59)
(5.29925e-32 -6.4858e-34 -5.2048e-59)
(5.31559e-32 -6.21137e-34 2.20721e-59)
(5.33114e-32 -5.95019e-34 0)
(5.34593e-32 -5.70178e-34 0)
(5.35998e-32 -5.46563e-34 -4.13277e-59)
(5.37334e-32 -5.24128e-34 -1.69478e-59)
(5.38602e-32 -5.02825e-34 0)
(5.39805e-32 -4.82608e-34 -1.98524e-59)
(5.40947e-32 -4.63432e-34 0)
(5.4203e-32 -4.45255e-34 -1.27815e-59)
(5.43055e-32 -4.28033e-34 6.28728e-59)
(5.44027e-32 -4.11727e-34 -5.94547e-59)
(5.44947e-32 -3.96295e-34 2.55368e-59)
(5.45817e-32 -3.81699e-34 0)
(5.4664e-32 -3.67901e-34 -2.2553e-59)
(5.47418e-32 -3.54865e-34 4.7536e-59)
(5.48153e-32 -3.42556e-34 0)
(5.48847e-32 -3.3094e-34 0)
(5.49501e-32 -3.19984e-34 0)