/*--------------------------------*- C++ -*----------------------------------*\
  =========                 |
  \\      /  F ield         | OpenFOAM: The Open Source CFD Toolbox
   \\    /   O peration     | Website:  https://openfoam.org
    \\  /    A nd           | Version:  11
     \\/     M anipulation  |
\*---------------------------------------------------------------------------*/
FoamFile
{
    format      ascii;
    class       volVectorField;
    location    "43";
    object      U;
}
// * * * * * * * * * * * * * * * * * * * * * * * * * * * * * * * * * * * * * //

dimensions      [0 1 -1 0 0 0 0];

internalField   nonuniform List<vector> 
2048
(
(1.00014 -0.000594027 0)
(1.00255 -0.00179263 0)
(1.00729 -0.00301657 0)
(1.01455 -0.00428002 0)
(1.0244 -0.00559352 0)
(1.03693 -0.00696036 0)
(1.05222 -0.00837384 0)
(1.07036 -0.00981538 0)
(1.09138 -0.0112536 0)
(1.11526 -0.0126443 0)
(1.14185 -0.0139313 0)
(1.1709 -0.0150497 0)
(1.20203 -0.0159312 0)
(1.23471 -0.0165131 0)
(1.2683 -0.0167508 0)
(1.30208 -0.0166284 0)
(1.33534 -0.0161659 0)
(1.36739 -0.0154182 0)
(1.39769 -0.0144634 0)
(1.42587 -0.0133837 0)
(1.45172 -0.0122498 0)
(1.47521 -0.0111152 0)
(1.4964 -0.0100188 0)
(1.51539 -0.00898708 0)
(1.53237 -0.00803585 0)
(1.54751 -0.00717146 0)
(1.56099 -0.00639242 0)
(1.57298 -0.00569166 0)
(1.58364 -0.00505818 0)
(1.5931 -0.00447817 0)
(1.60145 -0.00393606 0)
(1.60876 -0.00341561 0)
(1.61505 -0.00290123 0)
(1.62031 -0.00237889 0)
(1.62453 -0.00183726 0)
(1.62765 -0.00126845 0)
(1.62962 -0.000668675 0)
(1.63036 -4.00371e-05 0)
(1.62982 0.000609725 0)
(1.62797 0.00126778 0)
(1.6248 0.00191482 0)
(1.62035 0.00252792 0)
(1.6147 0.00308268 0)
(1.60801 0.00355402 0)
(1.60045 0.00391722 0)
(1.59226 0.00415046 0)
(1.58374 0.0042365 0)
(1.57518 0.00416457 0)
(1.56692 0.00393006 0)
(1.55929 0.003537 0)
(1.55259 0.00299474 0)
(1.54713 0.00232365 0)
(1.54313 0.00154428 0)
(1.54081 0.000692769 0)
(1.54022 -0.000207095 0)
(1.54158 -0.00110298 0)
(1.54453 -0.00198477 0)
(1.54962 -0.00277738 0)
(1.55551 -0.00351132 0)
(1.56408 -0.00406797 0)
(1.57134 -0.00456714 0)
(1.5835 -0.00480011 0)
(1.58897 -0.00504609 0)
(1.60667 -0.00493118 0)
(1.00013 -0.00177677 0)
(1.00251 -0.00536183 0)
(1.00721 -0.00902479 0)
(1.01439 -0.0128112 0)
(1.02416 -0.0167553 0)
(1.03662 -0.0208689 0)
(1.05188 -0.0251338 0)
(1.07004 -0.0294951 0)
(1.09116 -0.0338581 0)
(1.11524 -0.0380871 0)
(1.14217 -0.0420091 0)
(1.1717 -0.0454237 0)
(1.20344 -0.0481193 0)
(1.23684 -0.0498998 0)
(1.27121 -0.0506222 0)
(1.30577 -0.050232 0)
(1.33973 -0.04879 0)
(1.37235 -0.0464735 0)
(1.40305 -0.0435328 0)
(1.43146 -0.040225 0)
(1.45743 -0.0367665 0)
(1.48093 -0.0333194 0)
(1.50206 -0.0299995 0)
(1.52095 -0.0268856 0)
(1.53779 -0.0240233 0)
(1.55279 -0.0214292 0)
(1.56613 -0.0190972 0)
(1.578 -0.0170046 0)
(1.58856 -0.0151171 0)
(1.59794 -0.0133918 0)
(1.60624 -0.0117806 0)
(1.61353 -0.0102336 0)
(1.61982 -0.00870274 0)
(1.62512 -0.007145 0)
(1.62938 -0.00552585 0)
(1.63256 -0.00382107 0)
(1.63457 -0.00201933 0)
(1.63535 -0.000125936 0)
(1.63483 0.00183779 0)
(1.63296 0.00383192 0)
(1.62972 0.00579601 0)
(1.62516 0.00765949 0)
(1.61935 0.00934775 0)
(1.61243 0.0107837 0)
(1.60461 0.0118915 0)
(1.59613 0.0126042 0)
(1.58728 0.012869 0)
(1.57838 0.0126526 0)
(1.56979 0.0119412 0)
(1.56184 0.0107472 0)
(1.55487 0.00909943 0)
(1.54917 0.00706009 0)
(1.545 0.00469103 0)
(1.54258 0.00210182 0)
(1.54196 -0.00063633 0)
(1.54337 -0.00336169 0)
(1.54645 -0.0060432 0)
(1.55174 -0.00844793 0)
(1.55787 -0.0106752 0)
(1.56676 -0.0123546 0)
(1.57432 -0.0138654 0)
(1.58687 -0.0145521 0)
(1.59255 -0.015294 0)
(1.61074 -0.014921 0)
(1.00013 -0.00293693 0)
(1.00245 -0.00886541 0)
(1.00703 -0.0149323 0)
(1.01406 -0.021222 0)
(1.02365 -0.0277999 0)
(1.03595 -0.0346932 0)
(1.0511 -0.0418794 0)
(1.06927 -0.049272 0)
(1.09058 -0.0567131 0)
(1.11506 -0.0639678 0)
(1.14265 -0.0707284 0)
(1.17314 -0.0766375 0)
(1.20612 -0.081314 0)
(1.241 -0.0844039 0)
(1.27698 -0.0856415 0)
(1.31316 -0.0849139 0)
(1.34856 -0.082331 0)
(1.38232 -0.0782315 0)
(1.41381 -0.0730834 0)
(1.44269 -0.0673478 0)
(1.46884 -0.0613976 0)
(1.49234 -0.055507 0)
(1.51331 -0.0498705 0)
(1.53197 -0.0446162 0)
(1.54852 -0.0398137 0)
(1.56321 -0.0354833 0)
(1.57626 -0.0316093 0)
(1.58787 -0.0281497 0)
(1.59821 -0.0250432 0)
(1.60744 -0.0222139 0)
(1.61564 -0.0195771 0)
(1.62288 -0.0170454 0)
(1.62919 -0.0145351 0)
(1.63455 -0.0119701 0)
(1.63891 -0.00929025 0)
(1.6422 -0.00645189 0)
(1.64433 -0.00343716 0)
(1.6452 -0.000253443 0)
(1.64472 0.00306961 0)
(1.64282 0.00646169 0)
(1.63946 0.00981518 0)
(1.63467 0.0130076 0)
(1.62852 0.0159092 0)
(1.62118 0.0183844 0)
(1.61282 0.0203003 0)
(1.60373 0.0215399 0)
(1.59421 0.0220111 0)
(1.58463 0.0216555 0)
(1.57535 0.0204481 0)
(1.56675 0.0184103 0)
(1.5592 0.0155921 0)
(1.55302 0.0121014 0)
(1.54849 0.00804518 0)
(1.54585 0.00361175 0)
(1.54516 -0.0010805 0)
(1.54667 -0.00575153 0)
(1.54999 -0.0103492 0)
(1.55567 -0.014459 0)
(1.5623 -0.0182639 0)
(1.5718 -0.0211046 0)
(1.57995 -0.0236693 0)
(1.59325 -0.0247823 0)
(1.59937 -0.0260316 0)
(1.61847 -0.0253171 0)
(1.00012 -0.00405183 0)
(1.00234 -0.0122396 0)
(1.00674 -0.0206419 0)
(1.01349 -0.0293927 0)
(1.02277 -0.0386 0)
(1.03476 -0.0483181 0)
(1.04969 -0.0585345 0)
(1.0678 -0.0691406 0)
(1.0893 -0.0799256 0)
(1.11434 -0.0905454 0)
(1.14291 -0.100531 0)
(1.17485 -0.109315 0)
(1.20976 -0.11628 0)
(1.24696 -0.120859 0)
(1.28551 -0.122624 0)
(1.32425 -0.121382 0)
(1.36192 -0.117333 0)
(1.39742 -0.111067 0)
(1.43006 -0.103342 0)
(1.45955 -0.0948538 0)
(1.48591 -0.0861434 0)
(1.50931 -0.0776032 0)
(1.52999 -0.0695085 0)
(1.54822 -0.0620312 0)
(1.56428 -0.055252 0)
(1.57847 -0.0491838 0)
(1.59104 -0.0437932 0)
(1.60224 -0.0390135 0)
(1.61224 -0.0347505 0)
(1.62121 -0.0308892 0)
(1.62925 -0.0273022 0)
(1.63643 -0.0238592 0)
(1.64277 -0.0204345 0)
(1.64824 -0.0169144 0)
(1.65275 -0.013207 0)
(1.65623 -0.00924231 0)
(1.65854 -0.00499245 0)
(1.65956 -0.000469743 0)
(1.65917 0.00429531 0)
(1.65724 0.00918759 0)
(1.65371 0.0140476 0)
(1.64858 0.0186997 0)
(1.64194 0.0229506 0)
(1.63392 0.0265949 0)
(1.62474 0.0294314 0)
(1.6147 0.0312844 0)
(1.60415 0.0320146 0)
(1.59349 0.0315337 0)
(1.58314 0.0298034 0)
(1.57352 0.0268536 0)
(1.56505 0.0227573 0)
(1.55811 0.0176714 0)
(1.55299 0.011756 0)
(1.54997 0.00529361 0)
(1.54914 -0.00154355 0)
(1.55072 -0.00834284 0)
(1.55437 -0.0150378 0)
(1.56057 -0.0210019 0)
(1.5679 -0.0265211 0)
(1.57822 -0.0305812 0)
(1.5872 -0.0342613 0)
(1.60144 -0.0357398 0)
(1.60819 -0.0375087 0)
(1.62831 -0.0362951 0)
(1.00012 -0.00509599 0)
(1.00218 -0.015411 0)
(1.00627 -0.026037 0)
(1.0126 -0.0371747 0)
(1.02137 -0.0489891 0)
(1.03284 -0.0615801 0)
(1.04734 -0.0749644 0)
(1.06521 -0.0890252 0)
(1.08681 -0.103527 0)
(1.11245 -0.118015 0)
(1.14227 -0.131851 0)
(1.1762 -0.144181 0)
(1.21384 -0.154001 0)
(1.25438 -0.160408 0)
(1.29666 -0.162687 0)
(1.3391 -0.16054 0)
(1.37993 -0.154407 0)
(1.41775 -0.145323 0)
(1.45181 -0.134442 0)
(1.482 -0.122721 0)
(1.50851 -0.110866 0)
(1.53165 -0.0993944 0)
(1.5518 -0.0886612 0)
(1.56934 -0.0788667 0)
(1.58466 -0.0700813 0)
(1.5981 -0.0622929 0)
(1.60997 -0.0554399 0)
(1.62053 -0.0494218 0)
(1.63001 -0.0441029 0)
(1.63858 -0.0393207 0)
(1.64636 -0.0348973 0)
(1.65341 -0.0306527 0)
(1.65975 -0.026412 0)
(1.66531 -0.0220171 0)
(1.67002 -0.0173375 0)
(1.67373 -0.012271 0)
(1.67628 -0.00677007 0)
(1.67751 -0.00084607 0)
(1.67724 0.00549875 0)
(1.67527 0.0120554 0)
(1.6715 0.0185982 0)
(1.66594 0.0248995 0)
(1.65863 0.0306951 0)
(1.64971 0.0356948 0)
(1.63941 0.0396149 0)
(1.62806 0.0422085 0)
(1.61607 0.0432788 0)
(1.60389 0.0426993 0)
(1.59201 0.0404149 0)
(1.58093 0.0364651 0)
(1.57113 0.0309511 0)
(1.56303 0.0240843 0)
(1.55699 0.0160812 0)
(1.55331 0.00731982 0)
(1.5521 -0.0019609 0)
(1.55357 -0.0111752 0)
(1.55741 -0.0202207 0)
(1.564 -0.0282285 0)
(1.57197 -0.0356276 0)
(1.58293 -0.0409537 0)
(1.59269 -0.0458004 0)
(1.60747 -0.0474913 0)
(1.6148 -0.0497595 0)
(1.63513 -0.0477353 0)
(1.0001 -0.00603503 0)
(1.00194 -0.0182807 0)
(1.00558 -0.0309546 0)
(1.01127 -0.0443537 0)
(1.01926 -0.0587118 0)
(1.0299 -0.0742125 0)
(1.04362 -0.0909206 0)
(1.06093 -0.108728 0)
(1.08236 -0.127417 0)
(1.10847 -0.1464 0)
(1.13965 -0.164957 0)
(1.17608 -0.181858 0)
(1.21741 -0.195567 0)
(1.26267 -0.204583 0)
(1.31026 -0.207481 0)
(1.35786 -0.203788 0)
(1.40288 -0.194551 0)
(1.44355 -0.181623 0)
(1.47925 -0.16671 0)
(1.51013 -0.151045 0)
(1.53661 -0.135501 0)
(1.55918 -0.120717 0)
(1.57839 -0.107114 0)
(1.59479 -0.0948818 0)
(1.60887 -0.0840495 0)
(1.62106 -0.0745642 0)
(1.63171 -0.0663241 0)
(1.64114 -0.0591805 0)
(1.6496 -0.0529419 0)
(1.65732 -0.0473867 0)
(1.66441 -0.0422788 0)
(1.67096 -0.0373793 0)
(1.67696 -0.0324545 0)
(1.68235 -0.0272942 0)
(1.68703 -0.0217178 0)
(1.69082 -0.0155876 0)
(1.69351 -0.00884048 0)
(1.69494 -0.00146817 0)
(1.6948 0.00658058 0)
(1.69276 0.0150093 0)
(1.68873 0.0234932 0)
(1.68269 0.0317265 0)
(1.67463 0.0393553 0)
(1.66465 0.0459854 0)
(1.65301 0.0512322 0)
(1.64007 0.0547591 0)
(1.62627 0.0562996 0)
(1.61214 0.05568 0)
(1.59826 0.0528254 0)
(1.58519 0.0477845 0)
(1.5735 0.040694 0)
(1.56365 0.0318356 0)
(1.55607 0.0215093 0)
(1.55105 0.0101994 0)
(1.54877 -0.00179682 0)
(1.54944 -0.0137801 0)
(1.55271 -0.0255142 0)
(1.5588 -0.0358069 0)
(1.56645 -0.0452485 0)
(1.57681 -0.0518638 0)
(1.5863 -0.0578716 0)
(1.59978 -0.059512 0)
(1.60688 -0.0621786 0)
(1.62449 -0.0587905 0)
(1.00008 -0.0068242 0)
(1.00159 -0.0207226 0)
(1.00461 -0.0351745 0)
(1.00937 -0.0506351 0)
(1.01621 -0.0673855 0)
(1.02555 -0.0858036 0)
(1.03801 -0.105984 0)
(1.05421 -0.127914 0)
(1.07501 -0.151401 0)
(1.1012 -0.175623 0)
(1.13353 -0.199962 0)
(1.1728 -0.222618 0)
(1.21881 -0.241711 0)
(1.27054 -0.254694 0)
(1.32589 -0.258476 0)
(1.38095 -0.252374 0)
(1.43166 -0.238707 0)
(1.47585 -0.220607 0)
(1.5132 -0.200476 0)
(1.54427 -0.179875 0)
(1.56976 -0.159885 0)
(1.59043 -0.141282 0)
(1.60711 -0.124487 0)
(1.62065 -0.109607 0)
(1.63172 -0.0966056 0)
(1.64084 -0.085389 0)
(1.64847 -0.0758091 0)
(1.65501 -0.0676514 0)
(1.66078 -0.0606502 0)
(1.66604 -0.0545111 0)
(1.67096 -0.0489299 0)
(1.67564 -0.0435965 0)
(1.6801 -0.038208 0)
(1.68429 -0.032485 0)
(1.68811 -0.0261785 0)
(1.69136 -0.0191018 0)
(1.69379 -0.0111594 0)
(1.69527 -0.00232545 0)
(1.69538 0.0073707 0)
(1.69355 0.0177372 0)
(1.68965 0.0283826 0)
(1.6836 0.0388654 0)
(1.6753 0.0486995 0)
(1.66476 0.0573573 0)
(1.65219 0.0643224 0)
(1.63794 0.0691343 0)
(1.62247 0.0714274 0)
(1.60637 0.0709634 0)
(1.59025 0.0676436 0)
(1.57478 0.0615246 0)
(1.56056 0.0527861 0)
(1.54815 0.04179 0)
(1.53798 0.0289486 0)
(1.53035 0.0148855 0)
(1.52531 0.00011343 0)
(1.52317 -0.0146756 0)
(1.52367 -0.0292083 0)
(1.52676 -0.0419179 0)
(1.53128 -0.0533941 0)
(1.53778 -0.0612369 0)
(1.54389 -0.0682242 0)
(1.55201 -0.0695645 0)
(1.55659 -0.0724046 0)
(1.56587 -0.0671365 0)
(1.00005 -0.00740877 0)
(1.00113 -0.0225882 0)
(1.00327 -0.0384146 0)
(1.00678 -0.0556416 0)
(1.01193 -0.0744494 0)
(1.01936 -0.0957383 0)
(1.02979 -0.119388 0)
(1.04404 -0.145981 0)
(1.06358 -0.175115 0)
(1.08907 -0.205712 0)
(1.12228 -0.237445 0)
(1.1645 -0.266958 0)
(1.21553 -0.292764 0)
(1.27625 -0.310867 0)
(1.34391 -0.315338 0)
(1.41038 -0.30576 0)
(1.46833 -0.286393 0)
(1.51502 -0.261688 0)
(1.55099 -0.234793 0)
(1.57772 -0.207789 0)
(1.59674 -0.182205 0)
(1.60962 -0.15903 0)
(1.61791 -0.138554 0)
(1.62292 -0.12068 0)
(1.62556 -0.105281 0)
(1.62653 -0.0922359 0)
(1.62642 -0.0813437 0)
(1.62572 -0.0723073 0)
(1.62483 -0.0647717 0)
(1.62405 -0.0583598 0)
(1.6236 -0.0526904 0)
(1.62362 -0.0473703 0)
(1.62419 -0.0420174 0)
(1.62531 -0.0362669 0)
(1.6269 -0.0297609 0)
(1.62882 -0.0222585 0)
(1.63073 -0.0135354 0)
(1.63253 -0.00346662 0)
(1.63375 0.00757415 0)
(1.63365 0.019596 0)
(1.63182 0.032302 0)
(1.62798 0.0451399 0)
(1.62184 0.0574594 0)
(1.6132 0.0685722 0)
(1.60209 0.077793 0)
(1.5887 0.0844908 0)
(1.57341 0.0881495 0)
(1.55676 0.088418 0)
(1.53937 0.085139 0)
(1.5219 0.0783642 0)
(1.505 0.0683187 0)
(1.48928 0.055434 0)
(1.47514 0.0402556 0)
(1.46307 0.0235536 0)
(1.45274 0.00595069 0)
(1.44436 -0.0111744 0)
(1.4378 -0.0278344 0)
(1.43334 -0.0424511 0)
(1.42956 -0.0554041 0)
(1.42711 -0.0641233 0)
(1.42455 -0.0715583 0)
(1.4226 -0.072594 0)
(1.42098 -0.0752609 0)
(1.41735 -0.0685601 0)
(0.999991 -0.00772964 0)
(1.00058 -0.0237159 0)
(1.00149 -0.040347 0)
(1.0035 -0.0589339 0)
(1.00611 -0.0791466 0)
(1.01112 -0.103187 0)
(1.0179 -0.129736 0)
(1.02939 -0.161826 0)
(1.04592 -0.19721 0)
(1.06968 -0.236583 0)
(1.10425 -0.279367 0)
(1.14857 -0.317258 0)
(1.20562 -0.352142 0)
(1.28193 -0.377031 0)
(1.36827 -0.381211 0)
(1.44571 -0.366014 0)
(1.50284 -0.338213 0)
(1.53891 -0.303431 0)
(1.55771 -0.266105 0)
(1.56363 -0.229479 0)
(1.56043 -0.196088 0)
(1.55125 -0.167133 0)
(1.53874 -0.142408 0)
(1.52462 -0.121363 0)
(1.50981 -0.103671 0)
(1.49496 -0.089091 0)
(1.48064 -0.0772982 0)
(1.46732 -0.0678828 0)
(1.45534 -0.0603998 0)
(1.44493 -0.0544008 0)
(1.43629 -0.0494335 0)
(1.42958 -0.0450371 0)
(1.42492 -0.0407566 0)
(1.42237 -0.0361369 0)
(1.42193 -0.0307302 0)
(1.4235 -0.0241669 0)
(1.42676 -0.0161107 0)
(1.43125 -0.00625921 0)
(1.43658 0.00515104 0)
(1.44204 0.0179918 0)
(1.44679 0.0320795 0)
(1.4501 0.046863 0)
(1.45134 0.0615767 0)
(1.44993 0.0753751 0)
(1.44554 0.0873795 0)
(1.43802 0.0967458 0)
(1.42746 0.102753 0)
(1.41419 0.104878 0)
(1.39866 0.102845 0)
(1.38147 0.0966541 0)
(1.36318 0.0865545 0)
(1.3444 0.0730412 0)
(1.32546 0.0567805 0)
(1.30691 0.0386758 0)
(1.28884 0.0194963 0)
(1.27124 0.000644075 0)
(1.25319 -0.0170597 0)
(1.2366 -0.0323633 0)
(1.22003 -0.0457606 0)
(1.20587 -0.0549037 0)
(1.19213 -0.0626087 0)
(1.18111 -0.0641032 0)
(1.1726 -0.0670133 0)
(1.16112 -0.0610777 0)
(0.999887 -0.00773875 0)
(0.999985 -0.0239342 0)
(0.999215 -0.0406596 0)
(0.999693 -0.0600266 0)
(0.99848 -0.0806504 0)
(1.00117 -0.107131 0)
(1.00097 -0.134949 0)
(1.01039 -0.173715 0)
(1.01712 -0.213422 0)
(1.04128 -0.267311 0)
(1.07256 -0.325351 0)
(1.11891 -0.377497 0)
(1.19316 -0.44049 0)
(1.29247 -0.478217 0)
(1.38469 -0.472944 0)
(1.44177 -0.437927 0)
(1.45917 -0.387593 0)
(1.44728 -0.330915 0)
(1.4162 -0.274803 0)
(1.37495 -0.223538 0)
(1.32908 -0.180523 0)
(1.28262 -0.145909 0)
(1.23915 -0.118092 0)
(1.19998 -0.0958298 0)
(1.16494 -0.0782772 0)
(1.13384 -0.0646818 0)
(1.10672 -0.0543563 0)
(1.08362 -0.0467253 0)
(1.06449 -0.0413023 0)
(1.04927 -0.037632 0)
(1.0379 -0.0352567 0)
(1.0304 -0.033697 0)
(1.02676 -0.0324399 0)
(1.02693 -0.0309643 0)
(1.03082 -0.0287282 0)
(1.03818 -0.0251838 0)
(1.04862 -0.0198962 0)
(1.0615 -0.0124485 0)
(1.07635 -0.00249169 0)
(1.09235 0.00982341 0)
(1.10844 0.0242202 0)
(1.12355 0.0401297 0)
(1.13668 0.056764 0)
(1.14696 0.0731682 0)
(1.15366 0.0882699 0)
(1.15626 0.100996 0)
(1.15449 0.110388 0)
(1.14832 0.115711 0)
(1.13792 0.116517 0)
(1.12365 0.112695 0)
(1.10587 0.104471 0)
(1.08506 0.0924217 0)
(1.06149 0.077337 0)
(1.03579 0.0602317 0)
(1.00828 0.0421179 0)
(0.980666 0.0239671 0)
(0.953154 0.00663325 0)
(0.928435 -0.00918702 0)
(0.905822 -0.0241551 0)
(0.889363 -0.0359412 0)
(0.874994 -0.0468747 0)
(0.866527 -0.0513823 0)
(0.859421 -0.0571017 0)
(0.851062 -0.0532405 0)
(0.999761 -0.00741499 0)
(0.999343 -0.0230648 0)
(0.996587 -0.0391542 0)
(0.995474 -0.0583749 0)
(0.989335 -0.078402 0)
(0.989982 -0.106224 0)
(0.978818 -0.133246 0)
(0.988405 -0.178717 0)
(0.971298 -0.216834 0)
(1.00641 -0.294724 0)
(1.0011 -0.357273 0)
(1.07504 -0.456723 0)
(1.16681 -0.595535 0)
(1.25178 -0.622181 0)
(1.28053 -0.561217 0)
(1.24175 -0.467466 0)
(1.16079 -0.369436 0)
(1.06555 -0.279367 0)
(0.966965 -0.203558 0)
(0.876196 -0.142134 0)
(0.792301 -0.0979985 0)
(0.720866 -0.067246 0)
(0.666184 -0.0457393 0)
(0.625632 -0.0318351 0)
(0.595801 -0.0238461 0)
(0.574477 -0.019934 0)
(0.56016 -0.0187258 0)
(0.551643 -0.0194057 0)
(0.54795 -0.0214626 0)
(0.548334 -0.0244972 0)
(0.552259 -0.0281281 0)
(0.559343 -0.0319544 0)
(0.569307 -0.0355363 0)
(0.581931 -0.0383862 0)
(0.596998 -0.0399818 0)
(0.614278 -0.0398011 0)
(0.633463 -0.0373113 0)
(0.654202 -0.03199 0)
(0.676091 -0.0233272 0)
(0.698577 -0.0113672 0)
(0.720951 0.0036199 0)
(0.742369 0.0210206 0)
(0.761938 0.0399518 0)
(0.778701 0.0594791 0)
(0.791768 0.0784047 0)
(0.800387 0.0954744 0)
(0.803975 0.109539 0)
(0.802145 0.119682 0)
(0.79472 0.125317 0)
(0.781763 0.126242 0)
(0.763605 0.122606 0)
(0.740992 0.114846 0)
(0.71503 0.103513 0)
(0.687468 0.0892014 0)
(0.66004 0.0723014 0)
(0.635112 0.0533041 0)
(0.613548 0.0324748 0)
(0.597446 0.011382 0)
(0.584957 -0.00917448 0)
(0.578346 -0.0264068 0)
(0.572105 -0.0411951 0)
(0.569827 -0.0479554 0)
(0.565934 -0.054858 0)
(0.555755 -0.0481917 0)
(0.999685 -0.00675289 0)
(0.998566 -0.0209779 0)
(0.994006 -0.0357639 0)
(0.990701 -0.0535019 0)
(0.980056 -0.0722893 0)
(0.977058 -0.0988787 0)
(0.955252 -0.124546 0)
(0.961842 -0.171609 0)
(0.914862 -0.205406 0)
(0.961936 -0.304283 0)
(0.864059 -0.344318 0)
(1.02837 -0.562886 0)
(0.97587 -0.717338 0)
(0.953939 -0.632089 0)
(0.843367 -0.475676 0)
(0.678454 -0.323263 0)
(0.520971 -0.198099 0)
(0.395842 -0.109408 0)
(0.299338 -0.0552031 0)
(0.230577 -0.0184091 0)
(0.176091 -0.0119271 0)
(0.157128 -0.0178245 0)
(0.161553 -0.0224089 0)
(0.170582 -0.0259485 0)
(0.180386 -0.0284219 0)
(0.190291 -0.0303834 0)
(0.200031 -0.0324507 0)
(0.209687 -0.0350189 0)
(0.219535 -0.0382555 0)
(0.229821 -0.0421352 0)
(0.240726 -0.0464822 0)
(0.252381 -0.0510046 0)
(0.264868 -0.0553123 0)
(0.278232 -0.0589173 0)
(0.292481 -0.0612415 0)
(0.307581 -0.0616594 0)
(0.323406 -0.0595595 0)
(0.339838 -0.0543918 0)
(0.356734 -0.0457232 0)
(0.373769 -0.0333759 0)
(0.390606 -0.0174498 0)
(0.406631 0.00162434 0)
(0.421541 0.0229794 0)
(0.434545 0.04568 0)
(0.444695 0.0685107 0)
(0.451239 0.0901399 0)
(0.453568 0.109289 0)
(0.451289 0.124847 0)
(0.444322 0.135952 0)
(0.432981 0.142009 0)
(0.418035 0.142673 0)
(0.400657 0.137835 0)
(0.382341 0.127555 0)
(0.364613 0.11215 0)
(0.348662 0.0922163 0)
(0.335508 0.0688674 0)
(0.325236 0.0434696 0)
(0.318258 0.0181169 0)
(0.313117 -0.00548932 0)
(0.310794 -0.0249281 0)
(0.30716 -0.0394563 0)
(0.305194 -0.0459588 0)
(0.298051 -0.0486081 0)
(0.280569 -0.0364979 0)
(0.999688 -0.00573432 0)
(0.99766 -0.0177022 0)
(0.991793 -0.0304442 0)
(0.985545 -0.0453877 0)
(0.971999 -0.0621965 0)
(0.962469 -0.0845682 0)
(0.935393 -0.10911 0)
(0.928376 -0.148599 0)
(0.868977 -0.183879 0)
(0.891601 -0.271328 0)
(0.724416 -0.300812 0)
(0.910268 -0.589615 0)
(0.33267 -0.393519 0)
(0.237049 -0.237646 0)
(0.117812 -0.177485 0)
(0.0547347 -0.133786 0)
(0.0290811 -0.0920501 0)
(0.0172319 -0.0596151 0)
(0.0108849 -0.0352812 0)
(0.00491685 -0.0148262 0)
(0.00736974 -0.0416692 0)
(0.0121504 -0.0540435 0)
(0.0236314 -0.0524119 0)
(0.0290296 -0.0490581 0)
(0.0341634 -0.0454416 0)
(0.0390719 -0.0431473 0)
(0.043882 -0.0426235 0)
(0.0486837 -0.0437761 0)
(0.0535754 -0.046377 0)
(0.0586616 -0.0501352 0)
(0.0640343 -0.0546982 0)
(0.069758 -0.0596467 0)
(0.0758643 -0.0644928 0)
(0.082364 -0.0686767 0)
(0.0892493 -0.0715713 0)
(0.0964916 -0.0725112 0)
(0.104023 -0.0708462 0)
(0.111768 -0.0659739 0)
(0.119752 -0.0574349 0)
(0.12767 -0.0449437 0)
(0.135516 -0.0285992 0)
(0.142783 -0.00858743 0)
(0.149533 0.0143868 0)
(0.155342 0.0392033 0)
(0.159583 0.064649 0)
(0.161804 0.0893381 0)
(0.161669 0.111828 0)
(0.158993 0.130754 0)
(0.153887 0.144907 0)
(0.146649 0.153326 0)
(0.137871 0.155372 0)
(0.128216 0.150794 0)
(0.118523 0.139723 0)
(0.109333 0.12276 0)
(0.100935 0.100936 0)
(0.0936618 0.0756622 0)
(0.0876721 0.048552 0)
(0.0832795 0.021625 0)
(0.0801236 -0.00306653 0)
(0.0780321 -0.0229095 0)
(0.0747459 -0.0358716 0)
(0.0701634 -0.0395099 0)
(0.0583234 -0.0340889 0)
(0.0395241 -0.0206897 0)
(0.99969 -0.00435828 0)
(0.99687 -0.013422 0)
(0.989885 -0.0232191 0)
(0.981032 -0.0345573 0)
(0.965086 -0.0478746 0)
(0.949405 -0.0646962 0)
(0.918852 -0.0854543 0)
(0.896584 -0.113564 0)
(0.836026 -0.148661 0)
(0.814854 -0.200801 0)
(0.672605 -0.256556 0)
(0.734079 -0.383598 0)
(0.311522 -0.266182 0)
(0.299878 -0.253092 0)
(0.207503 -0.2291 0)
(0.128653 -0.177964 0)
(0.0781691 -0.12128 0)
(0.0465258 -0.0747766 0)
(0.0287233 -0.0411337 0)
(0.0139545 -0.0146224 0)
(0.0197369 -0.0343589 0)
(-0.00507021 -0.0476766 0)
(-0.00739536 -0.0466451 0)
(-0.0168955 -0.044187 0)
(-0.0235444 -0.0419568 0)
(-0.0294078 -0.0409155 0)
(-0.0344688 -0.0413352 0)
(-0.0387841 -0.0432391 0)
(-0.0424169 -0.0464837 0)
(-0.0454143 -0.0508288 0)
(-0.0478072 -0.0559454 0)
(-0.0496288 -0.0614165 0)
(-0.0509261 -0.0667431 0)
(-0.0517519 -0.0713507 0)
(-0.0521695 -0.0745989 0)
(-0.0522408 -0.0758057 0)
(-0.052047 -0.0743069 0)
(-0.0516549 -0.069517 0)
(-0.0510747 -0.0609747 0)
(-0.0504626 -0.0484332 0)
(-0.0497799 -0.0318373 0)
(-0.0491893 -0.0114588 0)
(-0.0487095 0.0120528 0)
(-0.0485084 0.0376989 0)
(-0.0487769 0.0642157 0)
(-0.0496973 0.090171 0)
(-0.0514503 0.114041 0)
(-0.0541455 0.134314 0)
(-0.0577393 0.149627 0)
(-0.0622125 0.158916 0)
(-0.0673472 0.161489 0)
(-0.0729973 0.157097 0)
(-0.078886 0.145961 0)
(-0.084909 0.128799 0)
(-0.0909135 0.10668 0)
(-0.0964453 0.0808583 0)
(-0.100935 0.052834 0)
(-0.103885 0.0245829 0)
(-0.105603 -0.00112329 0)
(-0.107058 -0.0206135 0)
(-0.109934 -0.0306093 0)
(-0.115837 -0.0293028 0)
(-0.126429 -0.0189442 0)
(-0.138801 -0.00508377 0)
(0.999657 -0.00269794 0)
(0.996362 -0.0083496 0)
(0.988341 -0.0144293 0)
(0.977969 -0.0216143 0)
(0.959453 -0.0298812 0)
(0.940743 -0.0408562 0)
(0.904631 -0.0535275 0)
(0.87732 -0.0726613 0)
(0.804966 -0.092464 0)
(0.778845 -0.129252 0)
(0.615501 -0.152002 0)
(0.684083 -0.237464 0)
(0.290942 -0.143588 0)
(0.300167 -0.111971 0)
(0.215712 -0.0958954 0)
(0.140162 -0.0770247 0)
(0.089916 -0.0558856 0)
(0.0566892 -0.0364916 0)
(0.03793 -0.0204917 0)
(0.0201528 -0.00605215 0)
(0.0332346 -0.0198583 0)
(-0.00470043 -0.0313901 0)
(-0.016391 -0.0323904 0)
(-0.0366323 -0.0311197 0)
(-0.0528286 -0.0302062 0)
(-0.0674389 -0.0304338 0)
(-0.0805598 -0.032012 0)
(-0.0923409 -0.0349506 0)
(-0.102928 -0.0391259 0)
(-0.112453 -0.0443193 0)
(-0.121026 -0.0502097 0)
(-0.128746 -0.0563852 0)
(-0.135711 -0.0623442 0)
(-0.142011 -0.0675015 0)
(-0.147736 -0.0712051 0)
(-0.152976 -0.0727759 0)
(-0.157821 -0.0715632 0)
(-0.162327 -0.0669948 0)
(-0.166563 -0.0586229 0)
(-0.1705 -0.046223 0)
(-0.174161 -0.029774 0)
(-0.177658 -0.00959019 0)
(-0.180882 0.0138868 0)
(-0.183854 0.0395323 0)
(-0.186699 0.0661565 0)
(-0.189459 0.0923376 0)
(-0.192249 0.116534 0)
(-0.195162 0.137205 0)
(-0.198254 0.152962 0)
(-0.201615 0.162688 0)
(-0.205252 0.165649 0)
(-0.209218 0.161597 0)
(-0.213443 0.150778 0)
(-0.217817 0.133823 0)
(-0.222024 0.111542 0)
(-0.225567 0.0849474 0)
(-0.227981 0.0555269 0)
(-0.229094 0.0257571 0)
(-0.229293 -0.000701903 0)
(-0.229473 -0.019206 0)
(-0.230638 -0.0262997 0)
(-0.233694 -0.0218084 0)
(-0.238834 -0.0107668 0)
(-0.243762 -0.00126456 0)
(0.999649 -0.00087655 0)
(0.996074 -0.00271128 0)
(0.987564 -0.00472772 0)
(0.976267 -0.00708718 0)
(0.956621 -0.00992131 0)
(0.935852 -0.0135312 0)
(0.897711 -0.0180546 0)
(0.86621 -0.0242018 0)
(0.791205 -0.0316033 0)
(0.757644 -0.0426889 0)
(0.594261 -0.0518864 0)
(0.652977 -0.0768673 0)
(0.274183 -0.0448222 0)
(0.293893 -0.0409957 0)
(0.219604 -0.0394841 0)
(0.149315 -0.0323471 0)
(0.0994548 -0.0227834 0)
(0.0645907 -0.0140541 0)
(0.0445365 -0.00717375 0)
(0.0243949 -0.00123828 0)
(0.0420855 -0.00426038 0)
(-0.00310949 -0.00909073 0)
(-0.0197413 -0.0100652 0)
(-0.0457811 -0.0103994 0)
(-0.0672547 -0.011419 0)
(-0.086728 -0.0134885 0)
(-0.104368 -0.0167227 0)
(-0.120376 -0.0211323 0)
(-0.134939 -0.0265972 0)
(-0.148228 -0.0329371 0)
(-0.160385 -0.0398431 0)
(-0.17154 -0.0469211 0)
(-0.181809 -0.0536754 0)
(-0.191293 -0.0595204 0)
(-0.200086 -0.0638122 0)
(-0.208273 -0.0658897 0)
(-0.215943 -0.0651146 0)
(-0.223147 -0.0609327 0)
(-0.229932 -0.0529087 0)
(-0.236306 -0.0408015 0)
(-0.242181 -0.0246857 0)
(-0.247396 -0.00486674 0)
(-0.252158 0.0181809 0)
(-0.256559 0.0433985 0)
(-0.26038 0.0696397 0)
(-0.263684 0.095511 0)
(-0.266553 0.119493 0)
(-0.269077 0.14006 0)
(-0.271354 0.155813 0)
(-0.273497 0.165606 0)
(-0.275593 0.168688 0)
(-0.2777 0.164784 0)
(-0.279765 0.154059 0)
(-0.281641 0.136955 0)
(-0.283103 0.114129 0)
(-0.283964 0.0866066 0)
(-0.284128 0.0560936 0)
(-0.283689 0.0254375 0)
(-0.282627 -0.0012847 0)
(-0.280812 -0.0193803 0)
(-0.278136 -0.0254652 0)
(-0.274887 -0.020043 0)
(-0.272021 -0.00901433 0)
(-0.270427 -0.000615404 0)
(0.999649 0.00101271 0)
(0.996076 0.00309507 0)
(0.98757 0.00533472 0)
(0.976278 0.00789068 0)
(0.956639 0.0108978 0)
(0.935879 0.0146526 0)
(0.897747 0.0193046 0)
(0.866259 0.0255511 0)
(0.791264 0.0330521 0)
(0.757724 0.0442103 0)
(0.594344 0.0534774 0)
(0.653108 0.0786867 0)
(0.274279 0.0457953 0)
(0.293992 0.0420916 0)
(0.21971 0.040967 0)
(0.149424 0.0342433 0)
(0.099564 0.025092 0)
(0.064699 0.0167529 0)
(0.0446503 0.0102369 0)
(0.0244961 0.00467049 0)
(0.0422199 0.0125935 0)
(-0.00342366 0.0157031 0)
(-0.0202612 0.0151128 0)
(-0.0466356 0.0130751 0)
(-0.0685295 0.00999562 0)
(-0.0884837 0.00599467 0)
(-0.106664 0.00102172 0)
(-0.123253 -0.00495187 0)
(-0.138432 -0.0118526 0)
(-0.15238 -0.0194339 0)
(-0.165225 -0.0274122 0)
(-0.177098 -0.0354353 0)
(-0.1881 -0.0430278 0)
(-0.198322 -0.0496172 0)
(-0.207847 -0.0545699 0)
(-0.216754 -0.0572354 0)
(-0.225102 -0.0569867 0)
(-0.232919 -0.0532859 0)
(-0.240195 -0.0457483 0)
(-0.246933 -0.03415 0)
(-0.253069 -0.018477 0)
(-0.258479 0.000825666 0)
(-0.263203 0.0230748 0)
(-0.267234 0.0475565 0)
(-0.270441 0.0730849 0)
(-0.272826 0.098293 0)
(-0.27444 0.121694 0)
(-0.275369 0.141786 0)
(-0.275729 0.157171 0)
(-0.275648 0.166699 0)
(-0.275228 0.169594 0)
(-0.274513 0.165517 0)
(-0.273463 0.154538 0)
(-0.271977 0.137048 0)
(-0.269997 0.113747 0)
(-0.267626 0.0857764 0)
(-0.265075 0.054903 0)
(-0.262409 0.0237649 0)
(-0.259266 -0.00387062 0)
(-0.254751 -0.0236762 0)
(-0.247584 -0.0317947 0)
(-0.237167 -0.0273987 0)
(-0.224512 -0.0152216 0)
(-0.214064 -0.00316791 0)
(0.999658 0.00283219 0)
(0.996368 0.00872774 0)
(0.988357 0.0150273 0)
(0.978002 0.0224055 0)
(0.959506 0.0308424 0)
(0.940822 0.041959 0)
(0.904737 0.0547559 0)
(0.877467 0.0739865 0)
(0.80514 0.0938831 0)
(0.779087 0.130748 0)
(0.615743 0.153547 0)
(0.684479 0.239268 0)
(0.291233 0.144585 0)
(0.300473 0.113063 0)
(0.216043 0.0973466 0)
(0.140494 0.0788754 0)
(0.0902389 0.0581454 0)
(0.0570003 0.0391404 0)
(0.0382555 0.0234965 0)
(0.0204307 0.00947725 0)
(0.033712 0.028492 0)
(-0.00535297 0.0385027 0)
(-0.0176059 0.0380026 0)
(-0.0388138 0.0344549 0)
(-0.056231 0.0296037 0)
(-0.0722651 0.0239339 0)
(-0.0870246 0.0174533 0)
(-0.100626 0.0101418 0)
(-0.113078 0.00203128 0)
(-0.124522 -0.00668303 0)
(-0.135158 -0.0156364 0)
(-0.14505 -0.024518 0)
(-0.154243 -0.0328824 0)
(-0.162783 -0.04017 0)
(-0.170717 -0.0457587 0)
(-0.178095 -0.0490012 0)
(-0.184956 -0.0492879 0)
(-0.191336 -0.0461043 0)
(-0.197214 -0.0390973 0)
(-0.202468 -0.0280984 0)
(-0.207093 -0.0131737 0)
(-0.211018 0.00534793 0)
(-0.214105 0.0267834 0)
(-0.216287 0.050345 0)
(-0.217443 0.0749132 0)
(-0.217532 0.0991783 0)
(-0.216573 0.121709 0)
(-0.214643 0.141046 0)
(-0.211871 0.155815 0)
(-0.208409 0.164862 0)
(-0.204398 0.167367 0)
(-0.19992 0.162916 0)
(-0.194988 0.151515 0)
(-0.189547 0.133556 0)
(-0.183602 0.109848 0)
(-0.177275 0.081699 0)
(-0.170851 0.0509237 0)
(-0.164534 0.0197933 0)
(-0.158171 -0.00878178 0)
(-0.151064 -0.0310567 0)
(-0.141371 -0.0436288 0)
(-0.127683 -0.0435927 0)
(-0.107541 -0.0318229 0)
(-0.0831159 -0.0121428 0)
(0.999691 0.00448889 0)
(0.99688 0.0137895 0)
(0.989912 0.0237999 0)
(0.981085 0.0353248 0)
(0.965171 0.0488064 0)
(0.949534 0.0657636 0)
(0.919024 0.0866412 0)
(0.896821 0.114842 0)
(0.836312 0.150026 0)
(0.815241 0.202236 0)
(0.673015 0.258035 0)
(0.734718 0.385332 0)
(0.312027 0.267193 0)
(0.300399 0.254202 0)
(0.208069 0.230617 0)
(0.129217 0.179954 0)
(0.0787084 0.123741 0)
(0.0470318 0.077637 0)
(0.0292516 0.0442971 0)
(0.0143928 0.018199 0)
(0.0210249 0.0433365 0)
(-0.00496583 0.0555296 0)
(-0.00794672 0.0532114 0)
(-0.0187615 0.0486798 0)
(-0.0271994 0.0428322 0)
(-0.0352373 0.036171 0)
(-0.0428527 0.0287631 0)
(-0.0500523 0.020633 0)
(-0.0568271 0.0118745 0)
(-0.0630742 0.00256819 0)
(-0.069035 -0.00708699 0)
(-0.0746855 -0.0166265 0)
(-0.0799911 -0.0255866 0)
(-0.0849181 -0.0334226 0)
(-0.089444 -0.0395204 0)
(-0.093574 -0.0432468 0)
(-0.0972964 -0.0440153 0)
(-0.100616 -0.041338 0)
(-0.103442 -0.0348377 0)
(-0.105737 -0.0244069 0)
(-0.107402 -0.0102131 0)
(-0.108327 0.00743469 0)
(-0.108414 0.0279181 0)
(-0.107466 0.0504123 0)
(-0.105353 0.0738333 0)
(-0.101986 0.096926 0)
(-0.0973408 0.118334 0)
(-0.0914442 0.136671 0)
(-0.084412 0.150609 0)
(-0.0764019 0.15901 0)
(-0.0675854 0.161031 0)
(-0.058087 0.156193 0)
(-0.0480471 0.144431 0)
(-0.0375666 0.126121 0)
(-0.0267607 0.102095 0)
(-0.0156914 0.0737273 0)
(-0.00464316 0.0428051 0)
(0.00593649 0.0117277 0)
(0.0165752 -0.0170445 0)
(0.0269104 -0.0403119 0)
(0.0388487 -0.0562643 0)
(0.0521783 -0.0621162 0)
(0.0710851 -0.0583039 0)
(0.105905 -0.0410786 0)
(0.999688 0.00585955 0)
(0.997674 0.0180542 0)
(0.991829 0.0309999 0)
(0.985617 0.0461212 0)
(0.972112 0.0630851 0)
(0.962644 0.0855843 0)
(0.93562 0.110236 0)
(0.9287 0.149809 0)
(0.869348 0.185157 0)
(0.892151 0.272687 0)
(0.724929 0.302142 0)
(0.911229 0.5913 0)
(0.333285 0.394544 0)
(0.237534 0.238629 0)
(0.118256 0.178732 0)
(0.0551495 0.135391 0)
(0.0294916 0.0939903 0)
(0.0176324 0.0618318 0)
(0.0113556 0.037697 0)
(0.00522747 0.0174334 0)
(0.00949575 0.0497433 0)
(0.0155727 0.0622474 0)
(0.0273286 0.059993 0)
(0.0320224 0.0550316 0)
(0.0358222 0.0481583 0)
(0.038771 0.040523 0)
(0.0410068 0.0324581 0)
(0.042642 0.0239065 0)
(0.0437948 0.0147773 0)
(0.0443439 0.00527981 0)
(0.0443177 -0.00430724 0)
(0.0440265 -0.0138459 0)
(0.0434469 -0.0229002 0)
(0.0426461 -0.0309069 0)
(0.0417628 -0.0372405 0)
(0.0408752 -0.0412822 0)
(0.0401395 -0.0424189 0)
(0.039764 -0.0401629 0)
(0.039887 -0.0341838 0)
(0.0406211 -0.0243902 0)
(0.0421223 -0.0108822 0)
(0.0445624 0.00591533 0)
(0.0480782 0.025385 0)
(0.0528311 0.046708 0)
(0.0589658 0.0688468 0)
(0.0665898 0.0905998 0)