/*--------------------------------*- C++ -*----------------------------------*\
  =========                 |
  \\      /  F ield         | OpenFOAM: The Open Source CFD Toolbox
   \\    /   O peration     | Website:  https://openfoam.org
    \\  /    A nd           | Version:  10
     \\/     M anipulation  |
\*---------------------------------------------------------------------------*/
FoamFile
{
    format      ascii;
    class       surfaceScalarField;
    location    "1.22";
    object      phi;
}
// * * * * * * * * * * * * * * * * * * * * * * * * * * * * * * * * * * * * * //

dimensions      [0 3 -1 0 0 0 0];

internalField   nonuniform List<scalar> 
24170
(
1.42251e-09
-1.42251e-09
2.64112e-09
-1.21862e-09
3.60758e-09
-9.66455e-10
4.34043e-09
-7.32848e-10
4.88714e-09
-5.46713e-10
5.29896e-09
-4.11825e-10
5.6201e-09
-3.21139e-10
5.88543e-09
-2.65328e-10
6.12192e-09
-2.36493e-10
6.35128e-09
-2.29355e-10
6.59285e-09
-2.41571e-10
6.867e-09
-2.74153e-10
7.19986e-09
-3.32858e-10
7.63212e-09
-4.32258e-10
8.24013e-09
-6.08005e-10
9.20069e-09
-9.60566e-10
1.10616e-08
-1.86088e-09
-5.30797e-09
1.63695e-08
1.62241e-09
-3.04492e-09
3.00598e-09
-2.60219e-09
4.09619e-09
-2.05666e-09
4.91677e-09
-1.55343e-09
5.52419e-09
-1.15414e-09
5.97828e-09
-8.65911e-10
6.32998e-09
-6.72844e-10
6.6191e-09
-5.54449e-10
6.87613e-09
-4.9352e-10
7.12534e-09
-4.78563e-10
7.38812e-09
-5.04355e-10
7.68664e-09
-5.72676e-10
8.04873e-09
-6.94944e-10
8.51631e-09
-8.99835e-10
9.16333e-09
-1.25503e-09
1.01382e-08
-1.93549e-09
1.17443e-08
-3.46691e-09
-7.6204e-09
1.40567e-08
1.81997e-09
-4.86488e-09
3.36257e-09
-4.14479e-09
4.56782e-09
-3.2619e-09
5.46667e-09
-2.45228e-09
6.12604e-09
-1.8135e-09
6.61483e-09
-1.35471e-09
6.99072e-09
-1.04873e-09
7.29808e-09
-8.61806e-10
7.57045e-09
-7.65896e-10
7.83415e-09
-7.42265e-10
8.11189e-09
-7.82091e-10
8.42647e-09
-8.87255e-10
8.8052e-09
-1.07368e-09
9.28627e-09
-1.3809e-09
9.92833e-09
-1.89709e-09
1.08177e-08
-2.82485e-09
1.19987e-08
-4.64788e-09
-8.40913e-09
1.27874e-08
2.03936e-09
-6.90424e-09
3.75336e-09
-5.85879e-09
5.07704e-09
-4.58559e-09
6.05227e-09
-3.42751e-09
6.75947e-09
-2.52071e-09
7.27843e-09
-1.87367e-09
7.6742e-09
-1.4445e-09
7.99585e-09
-1.18346e-09
8.27979e-09
-1.04983e-09
8.55392e-09
-1.0164e-09
8.84161e-09
-1.06978e-09
9.16514e-09
-1.21079e-09
9.54916e-09
-1.4577e-09
1.00237e-08
-1.85544e-09
1.06239e-08
-2.49731e-09
1.13686e-08
-3.56952e-09
1.21376e-08
-5.41685e-09
-8.47541e-09
1.22039e-08
2.29443e-09
-9.19867e-09
4.20044e-09
-7.76481e-09
5.64925e-09
-6.03439e-09
6.69933e-09
-4.47759e-09
7.44944e-09
-3.27081e-09
7.9928e-09
-2.41703e-09
8.40294e-09
-1.85464e-09
8.73384e-09
-1.51435e-09
9.0245e-09
-1.3405e-09
9.30399e-09
-1.29588e-09
9.59552e-09
-1.3613e-09
9.91966e-09
-1.53493e-09
1.02964e-08
-1.8344e-09
1.07445e-08
-2.30356e-09
1.12734e-08
-3.02622e-09
1.18482e-08
-4.14434e-09
1.2282e-08
-5.85063e-09
-8.21841e-09
1.2025e-08
2.60038e-09
-1.1799e-08
4.72648e-09
-9.89091e-09
6.30822e-09
-7.61613e-09
7.42979e-09
-5.59916e-09
8.21513e-09
-4.05615e-09
8.77451e-09
-2.97641e-09
9.19126e-09
-2.27139e-09
9.52444e-09
-1.84753e-09
9.81536e-09
-1.63141e-09
1.00936e-08
-1.5741e-09
1.03813e-08
-1.64905e-09
1.06963e-08
-1.84989e-09
1.10522e-08
-2.19032e-09
1.14556e-08
-2.70698e-09
1.18932e-08
-3.46383e-09
1.22981e-08
-4.54925e-09
1.24826e-08
-6.03507e-09
-7.82715e-09
1.20913e-08
2.97768e-09
-1.47767e-08
5.36024e-09
-1.22735e-08
7.08222e-09
-9.3381e-09
8.26784e-09
-6.78479e-09
9.07618e-09
-4.86449e-09
9.63922e-09
-3.53945e-09
1.00516e-08
-2.68378e-09
1.03776e-08
-2.17349e-09
1.06601e-08
-1.91399e-09
1.09286e-08
-1.84259e-09
1.12034e-08
-1.9238e-09
1.14982e-08
-2.14468e-09
1.18198e-08
-2.51197e-09
1.21634e-08
-3.05051e-09
1.24993e-08
-3.79981e-09
1.27494e-08
-4.79927e-09
1.27575e-08
-6.0432e-09
-7.38712e-09
1.23175e-08
3.45612e-09
-1.82328e-08
6.1414e-09
-1.49588e-08
8.00786e-09
-1.12046e-08
9.24294e-09
-8.01986e-09
1.0055e-08
-5.67657e-09
1.06037e-08
-4.08814e-09
1.09965e-08
-3.07658e-09
1.13025e-08
-2.47948e-09
1.15656e-08
-2.17712e-09
1.18139e-08
-2.09089e-09
1.20649e-08
-2.17479e-09
1.23278e-08
-2.40757e-09
1.26026e-08
-2.7867e-09
1.2875e-08
-3.32299e-09
1.31072e-08
-4.03199e-09
1.3224e-08
-4.91608e-09
1.31106e-08
-5.92982e-09
-6.93484e-09
1.26584e-08
4.08144e-09
-2.23143e-08
7.12702e-09
-1.80043e-08
9.13443e-09
-1.3212e-08
1.03922e-08
-9.27765e-09
1.11783e-08
-6.46263e-09
1.16868e-08
-4.59669e-09
1.20393e-08
-3.42901e-09
1.23086e-08
-2.74879e-09
1.25382e-08
-2.40679e-09
1.27538e-08
-2.30644e-09
1.29689e-08
-2.38995e-09
1.3188e-08
-2.62658e-09
1.34047e-08
-3.00347e-09
1.35991e-08
-3.51737e-09
1.37311e-08
-4.164e-09
1.37373e-08
-4.92229e-09
1.35406e-08
-5.73311e-09
-6.48449e-09
1.30903e-08
4.92699e-09
-2.72413e-08
8.4018e-09
-2.14791e-08
1.05295e-08
-1.53397e-08
1.1763e-08
-1.05112e-08
1.24777e-08
-7.17725e-09
1.29096e-08
-5.02862e-09
1.31938e-08
-3.71326e-09
1.34051e-08
-2.96004e-09
1.35841e-08
-2.58583e-09
1.37523e-08
-2.4746e-09
1.39185e-08
-2.55619e-09
1.4082e-08
-2.79005e-09
1.42318e-08
-3.15322e-09
1.43447e-08
-3.63027e-09
1.43835e-08
-4.20288e-09
1.42994e-08
-4.83817e-09
1.40446e-08
-5.47831e-09
-6.04031e-09
1.36004e-08
6.11612e-09
-3.33574e-08
1.00948e-08
-2.54578e-08
1.22867e-08
-1.75316e-08
1.34152e-08
-1.16397e-08
1.39901e-08
-7.75211e-09
1.42948e-08
-5.33336e-09
1.44745e-08
-3.89293e-09
1.4601e-08
-3.08657e-09
1.4709e-08
-2.69381e-09
1.48133e-08
-2.57893e-09
1.4917e-08
-2.65986e-09
1.5014e-08
-2.88708e-09
1.50898e-08
-3.22901e-09
1.51207e-08
-3.66117e-09
1.50748e-08
-4.15701e-09
1.4917e-08
-4.68032e-09
1.46202e-08
-5.18151e-09
-5.60222e-09
1.41821e-08
6.52872e-09
-3.98861e-08
1.0328e-08
-2.92571e-08
1.21318e-08
-1.93354e-08
1.28991e-08
-1.24069e-08
1.3198e-08
-8.05099e-09
1.33032e-08
-5.43861e-09
1.33376e-08
-3.92731e-09
1.33534e-08
-3.10234e-09
1.33709e-08
-2.7113e-09
1.33952e-08
-2.60328e-09
1.34232e-08
-2.68786e-09
1.34457e-08
-2.90955e-09
1.34481e-08
-3.23147e-09
1.34113e-08
-3.62433e-09
1.33128e-08
-4.0585e-09
1.31316e-08
-4.49909e-09
1.28551e-08
-4.90506e-09
-5.23439e-09
1.24873e-08
9.70507e-09
-4.95912e-08
1.45247e-08
-3.40767e-08
1.63371e-08
-2.11479e-08
1.68405e-08
-1.29103e-08
1.68646e-08
-8.07511e-09
1.67473e-08
-5.32133e-09
1.6613e-08
-3.79298e-09
1.65014e-08
-2.99075e-09
1.64198e-08
-2.6297e-09
1.63625e-08
-2.54601e-09
1.6318e-08
-2.6433e-09
1.62707e-08
-2.86224e-09
1.6202e-08
-3.16283e-09
1.60913e-08
-3.51356e-09
1.59176e-08
-3.88488e-09
1.56647e-08
-4.24612e-09
1.53256e-08
-4.56597e-09
-4.81635e-09
1.49075e-08
1.56708e-08
-6.5262e-08
2.14447e-08
-3.98505e-08
2.26273e-08
-2.23305e-08
2.23462e-08
-1.26292e-08
2.17532e-08
-7.48204e-09
2.11953e-08
-4.76349e-09
2.075e-08
-3.34761e-09
2.04134e-08
-2.65422e-09
2.01617e-08
-2.37797e-09
1.99678e-08
-2.3521e-09
1.98058e-08
-2.48128e-09
1.96509e-08
-2.70739e-09
1.94795e-08
-2.9914e-09
1.92693e-08
-3.30335e-09
1.90016e-08
-3.6172e-09
1.86642e-08
-3.90878e-09
1.82547e-08
-4.15641e-09
-4.34311e-09
1.77814e-08
2.86676e-08
-9.39296e-08
3.37177e-08
-4.49006e-08
3.23355e-08
-2.09483e-08
3.01147e-08
-1.04085e-08
2.82709e-08
-5.63817e-09
2.69148e-08
-3.40742e-09
2.59431e-08
-2.37588e-09
2.5242e-08
-1.95314e-09
2.47228e-08
-1.85873e-09
2.43198e-08
-1.94915e-09
2.39839e-08
-2.14537e-09
2.36765e-08
-2.40003e-09
2.33668e-08
-2.68168e-09
2.30303e-08
-2.96686e-09
2.26495e-08
-3.23642e-09
2.22151e-08
-3.47428e-09
2.17264e-08
-3.66773e-09
-3.80825e-09
2.11915e-08
6.3264e-08
-1.57194e-07
5.67903e-08
-3.84269e-08
4.72558e-08
-1.14138e-08
4.07926e-08
-3.94532e-09
3.67046e-08
-1.55018e-09
3.40715e-08
-7.74335e-10
3.23129e-08
-6.17291e-10
3.1089e-08
-7.29197e-10
3.01965e-08
-9.66267e-10
2.95083e-08
-1.26092e-09
2.89405e-08
-1.57759e-09
2.84355e-08
-1.89497e-09
2.79525e-08
-2.19868e-09
2.74634e-08
-2.47779e-09
2.69504e-08
-2.72347e-09
2.64051e-08
-2.9289e-09
2.58268e-08
-3.08948e-09
-3.20323e-09
2.52218e-08
1.83391e-07
1.59172e-07
9.7306e-08
4.76579e-08
6.70702e-08
1.8822e-08
5.36993e-08
9.42561e-09
4.66704e-08
5.47871e-09
4.25079e-08
3.38815e-09
3.98265e-08
2.06409e-09
3.79817e-08
1.11563e-09
3.66357e-08
3.79682e-10
3.55926e-08
-2.17818e-10
3.47308e-08
-7.15806e-10
3.39758e-08
-1.13989e-09
3.32782e-08
-1.50111e-09
3.2606e-08
-1.80558e-09
3.19395e-08
-2.05705e-09
3.12689e-08
-2.2583e-09
3.05915e-08
-2.41203e-09
-2.52146e-09
2.99097e-08
7.72665e-08
8.19052e-08
7.55393e-08
4.9385e-08
6.55698e-08
2.87916e-08
5.76157e-08
1.73797e-08
5.21453e-08
1.09491e-08
4.84211e-08
7.11229e-09
4.58188e-08
4.66642e-09
4.39278e-08
3.00661e-09
4.24893e-08
1.81819e-09
4.13414e-08
9.30101e-10
4.03808e-08
2.44744e-10
3.95309e-08
-2.89942e-10
3.87431e-08
-7.13332e-10
3.799e-08
-1.05251e-09
3.72553e-08
-1.32226e-09
3.65303e-08
-1.53331e-09
3.58122e-08
-1.69395e-09
-1.81111e-09
3.51018e-08
3.59924e-08
4.59128e-08
5.01913e-08
3.51862e-08
5.39054e-08
2.50775e-08
5.37641e-08
1.7521e-08
5.24773e-08
1.22359e-08
5.10122e-08
8.57741e-09
4.96648e-08
6.01382e-09
4.8492e-08
4.17938e-09
4.74742e-08
2.83604e-09
4.65735e-08
1.83076e-09
4.57538e-08
1.06446e-09
4.49917e-08
4.72175e-10
4.42684e-08
9.93375e-12
4.35626e-08
-3.46677e-10
4.28663e-08
-6.26029e-10
4.21763e-08
-8.4324e-10
4.1492e-08
-1.00968e-09
-1.13429e-09
4.08152e-08
1.43438e-08
3.1569e-08
2.33365e-08
2.61934e-08
2.81491e-08
2.02649e-08
3.05063e-08
1.51638e-08
3.15631e-08
1.11791e-08
3.19579e-08
8.18256e-09
3.20184e-08
5.95335e-09
3.19069e-08
4.29088e-09
3.17026e-08
3.04034e-09
3.14439e-08
2.08946e-09
3.11496e-08
1.35874e-09
3.08295e-08
7.92226e-10
3.04892e-08
3.50255e-10
3.01381e-08
4.47226e-12
2.9774e-08
-2.61915e-10
2.94003e-08
-4.69615e-10
2.90206e-08
-6.29981e-10
-7.5185e-10
2.86382e-08
8.58953e-09
2.29795e-08
1.4986e-08
1.97969e-08
1.92294e-08
1.60215e-08
2.18935e-08
1.24997e-08
2.35228e-08
9.54977e-09
2.4502e-08
7.20335e-09
2.50748e-08
5.38059e-09
2.5389e-08
3.97668e-09
2.55335e-08
2.89582e-09
2.55624e-08
2.0606e-09
2.55093e-08
1.41186e-09
2.53961e-08
9.05389e-10
2.52379e-08
5.08474e-10
2.50455e-08
1.96841e-10
2.48305e-08
-4.69302e-11
2.45961e-08
-2.35224e-10
2.43478e-08
-3.81638e-10
-4.94161e-10
2.40901e-08
5.7921e-09
1.71874e-08
1.04785e-08
1.51105e-08
1.3942e-08
1.2558e-08
1.63816e-08
1.00602e-08
1.80596e-08
7.87178e-09
1.91993e-08
6.06363e-09
1.99646e-08
4.61524e-09
2.04687e-08
3.47264e-09
2.07877e-08
2.57681e-09
2.09731e-08
1.87518e-09
2.10602e-08
1.32482e-09
2.10735e-08
8.92081e-10
2.10308e-08
5.51135e-10
2.09454e-08
2.82286e-10
2.08279e-08
7.05062e-11
2.06872e-08
-9.44547e-11
2.05281e-08
-2.22577e-10
-3.21812e-10
2.03557e-08
4.21091e-09
1.29765e-08
7.77506e-09
1.15464e-08
1.05767e-08
9.75645e-09
1.26844e-08
7.95246e-09
1.42313e-08
6.32485e-09
1.53502e-08
4.94469e-09
1.61505e-08
3.81494e-09
1.67152e-08
2.90803e-09
1.71048e-08
2.18716e-09
1.73634e-08
1.61656e-09
1.75229e-08
1.16532e-09
1.76067e-08
8.08304e-10
1.76322e-08
5.25615e-10
1.76128e-08
3.01755e-10
1.75586e-08
1.24686e-10
1.74789e-08
-1.47405e-11
1.7379e-08
-1.22696e-10
-2.06889e-10
1.72641e-08
3.21689e-09
9.75958e-09
6.01307e-09
8.75017e-09
8.29552e-09
7.474e-09
1.00844e-08
6.16355e-09
1.14514e-08
4.95789e-09
1.24789e-08
3.91715e-09
1.32417e-08
3.05216e-09
1.38007e-08
2.34898e-09
1.42036e-08
1.78434e-09
1.44864e-08
1.33376e-09
1.46765e-08
9.7514e-10
1.47949e-08
6.89931e-10
1.48574e-08
4.63136e-10
1.48763e-08
2.82864e-10
1.48612e-08
1.39765e-10
1.482e-08
2.65007e-11
1.47591e-08
-6.18224e-11
-1.30701e-10
1.46829e-08
2.54115e-09
7.21843e-09
4.78694e-09
6.50438e-09
6.66479e-09
5.59615e-09
8.17621e-09
4.65213e-09
9.362e-09
3.77211e-09
1.02761e-08
3.00309e-09
1.09712e-08
2.35704e-09
1.14931e-08
1.82706e-09
1.18791e-08
1.3983e-09
1.21588e-08
1.05405e-09
1.23553e-08
7.78683e-10
1.24865e-08
5.58765e-10
1.25663e-08
3.83262e-10
1.26059e-08
2.4331e-10
1.26138e-08
1.31867e-10
1.25969e-08
4.3359e-11
1.25613e-08
-2.62076e-11
-8.03536e-11
1.2511e-08
2.05342e-09
5.16502e-09
3.88778e-09
4.67001e-09
5.44599e-09
4.03795e-09
6.72246e-09
3.37566e-09
7.7418e-09
2.75276e-09
8.54107e-09
2.20382e-09
9.15894e-09
1.73916e-09
9.6305e-09
1.3555e-09
9.98541e-09
1.0434e-09
1.02478e-08
7.91647e-10
1.0437e-08
5.89474e-10
1.05683e-08
4.27467e-10
1.06538e-08
2.97791e-10
1.0703e-08
1.94095e-10
1.07236e-08
1.11298e-10
1.07216e-08
4.53539e-11
1.07022e-08
-6.8326e-12
-4.73495e-11
1.06692e-08
1.68416e-09
3.48086e-09
3.1994e-09
3.15477e-09
4.50008e-09
2.73726e-09
5.5783e-09
2.29744e-09
6.44979e-09
1.88128e-09
7.14123e-09
1.51238e-09
7.68192e-09
1.19847e-09
8.09936e-09
9.38059e-10
8.41741e-09
7.25352e-10
8.65589e-09
5.53163e-10
8.83091e-09
4.14453e-10
8.95539e-09
3.0299e-10
9.03964e-09
2.13542e-10
9.09189e-09
1.41841e-10
9.11874e-09
8.44512e-11
9.12546e-09
3.8631e-11
9.11643e-09
2.1988e-12
-2.61042e-11
9.09519e-09
1.39292e-09
2.08794e-09
2.65213e-09
1.89556e-09
3.74064e-09
1.64875e-09
4.65028e-09
1.3878e-09
5.39168e-09
1.13988e-09
5.98483e-09
9.19237e-10
6.45252e-09
7.30772e-10
6.81669e-09
5.73894e-10
7.09668e-09
4.45357e-10
7.30883e-09
3.41012e-10
7.46655e-09
2.5674e-10
7.58067e-09
1.8886e-10
7.65995e-09
1.34265e-10
7.71139e-09
9.04045e-11
7.74062e-09
5.52208e-11
7.75219e-09
2.70635e-11
7.74978e-09
4.60788e-12
-1.28651e-11
7.73654e-09
1.15309e-09
9.34855e-10
2.1989e-09
8.49752e-10
3.10726e-09
7.40387e-10
3.87059e-09
6.24469e-10
4.49643e-09
5.14034e-10
5.0002e-09
4.15471e-10
5.39992e-09
3.31054e-10
5.71321e-09
2.60604e-10
5.95582e-09
2.02742e-10
6.14117e-09
1.55664e-10
6.28035e-09
1.1756e-10
6.38241e-09
8.68049e-11
6.45465e-09
6.20192e-11
6.50299e-09
4.20678e-11
6.53218e-09
2.60313e-11
6.54607e-09
1.31705e-11
6.54779e-09
2.888e-12
-5.01284e-12
6.53994e-09
9.34855e-10
1.78461e-09
2.52499e-09
3.14946e-09
3.6635e-09
4.07897e-09
4.41002e-09
4.67062e-09
4.87337e-09
5.02903e-09
5.14659e-09
5.2334e-09
5.29542e-09
5.33748e-09
5.36351e-09
5.37668e-09
5.37957e-09
5.37456e-09
3.70557e-10
-3.70557e-10
7.42956e-10
-3.72399e-10
1.11648e-09
-3.73529e-10
1.49044e-09
-3.73953e-10
1.86412e-09
-3.73686e-10
2.23685e-09
-3.7273e-10
2.60792e-09
-3.71071e-10
2.97659e-09
-3.68669e-10
3.34206e-09
-3.65467e-10
3.70347e-09
-3.61409e-10
4.05992e-09
-3.56452e-10
4.4105e-09
-3.50577e-10
4.75429e-09
-3.43788e-10
5.09039e-09
-3.36101e-10
5.41793e-09
-3.27545e-10
5.73609e-09
-3.18155e-10
6.04407e-09
-3.07979e-10
6.34115e-09
-2.9708e-10
6.62669e-09
-2.85539e-10
6.90014e-09
-2.73453e-10
7.16107e-09
-2.60932e-10
7.40917e-09
-2.48094e-10
7.64423e-09
-2.35065e-10
7.8662e-09
-2.21969e-10
8.07512e-09
-2.08924e-10
8.27117e-09
-1.96043e-10
8.45459e-09
-1.83426e-10
8.62575e-09
-1.7116e-10
8.78507e-09
-1.59318e-10
8.93303e-09
-1.47957e-10
9.07015e-09
-1.37121e-10
9.19699e-09
-1.2684e-10
9.31412e-09
-1.17132e-10
9.42213e-09
-1.08005e-10
9.52158e-09
-9.9457e-11
9.61306e-09
-9.14784e-11
9.69711e-09
-8.40539e-11
9.77428e-09
-7.71632e-11
9.84506e-09
-7.07819e-11
9.90994e-09
-6.4884e-11
9.96938e-09
-5.94411e-11
1.00238e-08
-5.44245e-11
1.00736e-08
-4.98052e-11
1.01192e-08
-4.55549e-11
1.01608e-08
-4.16455e-11
1.01989e-08
-3.80509e-11
1.02336e-08
-3.47455e-11
1.02653e-08
-3.17056e-11
1.02942e-08
-2.89088e-11
1.03206e-08
-2.63348e-11
1.03445e-08
-2.39641e-11
1.03663e-08
-2.17791e-11
1.03861e-08
-1.97634e-11
1.0404e-08
-1.79024e-11
1.04202e-08
-1.61822e-11
1.04347e-08
-1.45904e-11
1.04479e-08
-1.3116e-11
1.04596e-08
-1.17481e-11
1.04701e-08
-1.04778e-11
1.04794e-08
-9.29639e-12
1.04876e-08
-8.19605e-12
1.04947e-08
-7.1699e-12
1.0501e-08
-6.21156e-12
1.05063e-08
-5.31507e-12
1.05107e-08
-4.47539e-12
1.05144e-08
-3.68767e-12
1.05174e-08
-2.94762e-12
1.05196e-08
-2.25134e-12
1.05212e-08
-1.59549e-12
1.05222e-08
-9.76399e-13
1.05226e-08
-3.91734e-13
1.05224e-08
1.61521e-13
1.05218e-08
6.85754e-13
1.05206e-08
1.18294e-12
1.05189e-08
1.65524e-12
1.05168e-08
2.10426e-12
1.05143e-08
2.53183e-12
1.05113e-08
2.93923e-12
1.0508e-08
3.32812e-12
1.05043e-08
3.69946e-12
1.05003e-08
4.05456e-12
1.04959e-08
4.39447e-12
1.04911e-08
4.71997e-12
1.04861e-08
5.03212e-12
1.04808e-08
5.33164e-12
1.04752e-08
5.61947e-12
1.04693e-08
5.89603e-12
1.04631e-08
6.16225e-12
1.04567e-08
6.41853e-12
1.045e-08
6.66544e-12
1.04431e-08
6.9037e-12
1.0436e-08
7.13359e-12
1.04286e-08
7.35578e-12
1.04211e-08
7.5704e-12
1.04133e-08
7.77825e-12
1.04053e-08
7.97942e-12
1.03971e-08
8.17427e-12
1.03888e-08
8.36343e-12
1.03802e-08
8.54695e-12
1.03715e-08
8.72531e-12
1.03626e-08
8.89861e-12
1.03535e-08
9.06743e-12
1.03443e-08
9.23164e-12
1.03349e-08
9.39198e-12
1.03253e-08
9.5482e-12
1.03156e-08
9.70092e-12
1.03058e-08
9.85015e-12
1.02958e-08
9.99621e-12
1.02857e-08
1.01392e-11
1.02754e-08
1.02794e-11
1.0265e-08
1.0417e-11
1.02544e-08
1.05521e-11
1.02437e-08
1.06849e-11
1.02329e-08
1.08156e-11
1.0222e-08
1.09443e-11
1.02109e-08
1.10713e-11
1.01997e-08
1.11964e-11
1.01884e-08
1.13203e-11
1.01769e-08
1.14424e-11
1.01654e-08
1.15636e-11
1.01537e-08
1.16833e-11
1.01419e-08
1.18022e-11
1.013e-08
1.19199e-11
1.01179e-08
1.2037e-11
1.01058e-08
1.21533e-11
1.00935e-08
1.22688e-11
1.00811e-08
1.2384e-11
1.00686e-08
1.24986e-11
1.0056e-08
1.26128e-11
1.00433e-08
1.27268e-11
1.00304e-08
1.28405e-11
1.00175e-08
1.29542e-11
1.00044e-08
1.30677e-11
9.99124e-09
1.31812e-11
9.97795e-09
1.32949e-11
9.96454e-09
1.34088e-11
9.95102e-09
1.35228e-11
9.93738e-09
1.36373e-11
9.92363e-09
1.37521e-11
9.90976e-09
1.38674e-11
9.89578e-09
1.39834e-11
9.88168e-09
1.41e-11
9.86746e-09
1.42176e-11
9.85312e-09
1.43362e-11
9.83867e-09
1.44559e-11
9.82409e-09
1.45769e-11
9.80939e-09
1.46996e-11
9.79457e-09
1.48242e-11
9.77961e-09
1.49512e-11
9.76453e-09
1.50809e-11
9.74932e-09
1.52138e-11
9.73397e-09
1.53509e-11
9.71848e-09
1.5493e-11
9.70283e-09
1.5641e-11
9.68704e-09
1.57965e-11
9.67108e-09
1.59614e-11
9.65494e-09
1.61381e-11
9.63861e-09
1.63294e-11
9.62207e-09
1.65392e-11
9.6053e-09
1.67724e-11
9.58826e-09
1.70356e-11
9.57093e-09
1.73369e-11
9.55324e-09
1.76873e-11
9.53514e-09
1.8101e-11
9.51654e-09
1.85969e-11
9.49734e-09
1.92002e-11
9.4774e-09
1.99445e-11
9.45652e-09
2.0876e-11
9.43446e-09
2.20581e-11
9.41088e-09
2.35797e-11
9.38531e-09
2.55691e-11
9.3571e-09
2.82156e-11
9.32529e-09
3.18093e-11
9.28847e-09
3.68165e-11
9.24444e-09
4.40345e-11
9.18949e-09
5.49457e-11
9.11684e-09
7.2651e-11
9.01199e-09
1.04852e-10
8.83571e-09
1.76274e-10
4.0099e-10
8.43472e-09
3.73791e-10
-7.44348e-10
7.4934e-10
-7.47947e-10
1.12586e-09
-7.50052e-10
1.50264e-09
-7.50729e-10
1.87901e-09
-7.50059e-10
2.25438e-09
-7.48101e-10
2.62815e-09
-7.44835e-10
2.99962e-09
-7.40145e-10
3.36801e-09
-7.33851e-10
3.73237e-09
-7.25775e-10
4.09173e-09
-7.15806e-10
4.44507e-09
-7.0392e-10
4.79143e-09
-6.90153e-10
5.1299e-09
-6.74566e-10
5.45957e-09
-6.57217e-10
5.77959e-09
-6.3817e-10
6.08911e-09
-6.17508e-10
6.38739e-09
-5.95356e-10
6.67373e-09
-5.71883e-10
6.94758e-09
-5.47296e-10
7.20848e-09
-5.21831e-10
7.45612e-09
-4.95742e-10
7.69035e-09
-4.69292e-10
7.91113e-09
-4.42743e-10
8.11854e-09
-4.16342e-10
8.31282e-09
-3.9032e-10
8.49428e-09
-3.64882e-10
8.66332e-09
-3.402e-10
8.82042e-09
-3.16418e-10
8.96611e-09
-2.93646e-10
9.10095e-09
-2.71966e-10
9.22555e-09
-2.51432e-10
9.34049e-09
-2.32072e-10
9.44638e-09
-2.13898e-10
9.54382e-09
-1.96898e-10
9.63339e-09
-1.8105e-10
9.71565e-09
-1.66318e-10
9.79115e-09
-1.52657e-10
9.86038e-09
-1.40017e-10
9.92384e-09
-1.28342e-10
9.98197e-09
-1.17573e-10
1.00352e-08
-1.07652e-10
1.00839e-08
-9.85204e-11
1.01285e-08
-9.01194e-11
1.01692e-08
-8.23938e-11
1.02065e-08
-7.52901e-11
1.02405e-08
-6.87582e-11
1.02715e-08
-6.27504e-11
1.02998e-08
-5.72227e-11
1.03256e-08
-5.21339e-11
1.03491e-08
-4.74463e-11
1.03705e-08
-4.31248e-11
1.03898e-08
-3.91372e-11
1.04074e-08
-3.54544e-11
1.04233e-08
-3.20493e-11
1.04376e-08
-2.88976e-11
1.04504e-08
-2.59767e-11
1.04619e-08
-2.32667e-11
1.04722e-08
-2.07488e-11
1.04813e-08
-1.84062e-11
1.04894e-08
-1.62239e-11
1.04964e-08
-1.41879e-11
1.05024e-08
-1.22857e-11
1.05076e-08
-1.05059e-11
1.0512e-08
-8.83814e-12
1.05156e-08
-7.2733e-12
1.05184e-08
-5.80261e-12
1.05206e-08
-4.41868e-12
1.05221e-08
-3.11417e-12
1.0523e-08
-1.88317e-12
1.05234e-08
-7.19665e-13
1.05231e-08
3.81343e-13
1.05224e-08
1.42466e-12
1.05212e-08
2.41476e-12
1.05195e-08
3.35514e-12
1.05173e-08
4.24963e-12
1.05148e-08
5.10136e-12
1.05118e-08
5.91347e-12
1.05084e-08
6.68825e-12
1.05047e-08
7.42863e-12
1.05006e-08
8.13649e-12
1.04962e-08
8.81417e-12
1.04914e-08
9.46328e-12
1.04864e-08
1.0086e-11
1.0481e-08
1.06835e-11
1.04754e-08
1.12576e-11
1.04695e-08
1.18094e-11
1.04633e-08
1.23406e-11
1.04569e-08
1.2852e-11
1.04502e-08
1.3345e-11
1.04433e-08
1.38204e-11
1.04361e-08
1.42794e-11
1.04288e-08
1.47227e-11
1.04212e-08
1.51514e-11
1.04134e-08
1.55662e-11
1.04054e-08
1.59679e-11
1.03972e-08
1.63572e-11
1.03889e-08
1.67347e-11
1.03803e-08
1.71014e-11
1.03716e-08
1.74574e-11
1.03627e-08
1.78037e-11
1.03536e-08
1.81406e-11
1.03444e-08
1.84689e-11
1.0335e-08
1.8789e-11
1.03254e-08
1.91013e-11
1.03157e-08
1.94063e-11
1.03058e-08
1.97045e-11
1.02958e-08
1.99963e-11
1.02857e-08
2.0282e-11
1.02754e-08
2.05622e-11
1.0265e-08
2.08371e-11
1.02544e-08
2.11071e-11
1.02438e-08
2.13725e-11
1.02329e-08
2.16338e-11
1.0222e-08
2.1891e-11
1.02109e-08
2.21447e-11
1.01997e-08
2.23951e-11
1.01884e-08
2.26422e-11
1.0177e-08
2.28867e-11
1.01654e-08
2.31286e-11
1.01537e-08
2.33682e-11
1.01419e-08
2.36057e-11
1.013e-08
2.38412e-11
1.01179e-08
2.40751e-11
1.01058e-08
2.43076e-11
1.00935e-08
2.45388e-11
1.00811e-08
2.47688e-11
1.00686e-08
2.49979e-11
1.0056e-08
2.52264e-11
1.00433e-08
2.54542e-11
1.00305e-08
2.56816e-11
1.00175e-08
2.59088e-11
1.00044e-08
2.61358e-11
9.99125e-09
2.63629e-11
9.97795e-09
2.65903e-11
9.96454e-09
2.68178e-11
9.95102e-09
2.7046e-11
9.93738e-09
2.72748e-11
9.92363e-09
2.75044e-11
9.90976e-09
2.77351e-11
9.89578e-09
2.7967e-11
9.88168e-09
2.82002e-11
9.86746e-09
2.84353e-11
9.85313e-09
2.86722e-11
9.83867e-09
2.89116e-11
9.82409e-09
2.91537e-11
9.80939e-09
2.9399e-11
9.79457e-09
2.9648e-11
9.77962e-09
2.99018e-11
9.76454e-09
3.0161e-11
9.74933e-09
3.04267e-11
9.73398e-09
3.07007e-11
9.71848e-09
3.09842e-11
9.70285e-09
3.128e-11
9.68705e-09
3.15907e-11
9.67109e-09
3.192e-11
9.65496e-09
3.22724e-11
9.63863e-09
3.2654e-11
9.6221e-09
3.30723e-11
9.60534e-09
3.35372e-11
9.58831e-09
3.40615e-11
9.57099e-09
3.46615e-11
9.55331e-09
3.53589e-11
9.53523e-09
3.61821e-11
9.51666e-09
3.71681e-11
9.49749e-09
3.83671e-11
9.47759e-09
3.98457e-11
9.45677e-09
4.16949e-11
9.43479e-09
4.40396e-11
9.41132e-09
4.70559e-11
9.38589e-09
5.09951e-11
9.35788e-09
5.62276e-11
9.32637e-09
6.3319e-11
9.29002e-09
7.31706e-11
9.24674e-09
8.73058e-11
9.19319e-09
1.08503e-10
9.12346e-09
1.42373e-10
9.02646e-09
2.0186e-10
8.88048e-09
3.22253e-10
6.16393e-10
8.66507e-09
3.80713e-10
-1.12506e-09
7.62868e-10
-1.1301e-09
1.14545e-09
-1.13263e-09
1.52768e-09
-1.13296e-09
1.90904e-09
-1.13142e-09
2.28928e-09
-1.12834e-09
2.66818e-09
-1.12373e-09
3.0453e-09
-1.11726e-09
3.41979e-09
-1.10834e-09
3.79044e-09
-1.09642e-09
4.15591e-09
-1.08128e-09
4.51496e-09
-1.06297e-09
4.86657e-09
-1.04176e-09
5.20982e-09
-1.01782e-09
5.54384e-09
-9.91237e-10
5.8677e-09
-9.62029e-10
6.18046e-09
-9.30265e-10
6.48123e-09
-8.96123e-10
6.76923e-09
-8.59888e-10
7.04385e-09
-8.21917e-10
7.30463e-09
-7.82612e-10
7.55129e-09
-7.42397e-10
7.7837e-09
-7.01707e-10
8.00192e-09
-6.60964e-10
8.20615e-09
-6.2057e-10
8.39672e-09
-5.80887e-10
8.57406e-09
-5.42225e-10
8.7387e-09
-5.04843e-10
8.89123e-09
-4.68945e-10
9.03226e-09
-4.34684e-10
9.16246e-09
-4.02164e-10
9.28248e-09
-3.71451e-10
9.39298e-09
-3.42572e-10
9.49461e-09
-3.15524e-10
9.58799e-09
-2.90281e-10
9.67373e-09
-2.66793e-10
9.75241e-09
-2.44997e-10
9.82457e-09
-2.24817e-10
9.89072e-09
-2.06168e-10
9.95134e-09
-1.88961e-10
1.00069e-08
-1.73105e-10
1.00577e-08
-1.58507e-10
1.01043e-08
-1.45075e-10
1.01469e-08
-1.32724e-10
1.01859e-08
-1.21367e-10
1.02215e-08
-1.10925e-10
1.02541e-08
-1.01323e-10
1.02838e-08
-9.24906e-11
1.03109e-08
-8.43616e-11
1.03357e-08
-7.68759e-11
1.03582e-08
-6.99775e-11
1.03787e-08
-6.36151e-11
1.03973e-08
-5.7742e-11
1.04142e-08
-5.23148e-11
1.04294e-08
-4.72945e-11
1.04432e-08
-4.2645e-11
1.04555e-08
-3.83339e-11
1.04666e-08
-3.43315e-11
1.04764e-08
-3.06108e-11
1.04852e-08
-2.71475e-11
1.04929e-08
-2.3919e-11
1.04996e-08
-2.09053e-11
1.05054e-08
-1.80881e-11
1.05103e-08
-1.54508e-11
1.05145e-08
-1.29783e-11
1.05179e-08
-1.06568e-11
1.05205e-08
-8.47409e-12
1.05225e-08
-6.41898e-12
1.05239e-08
-4.48117e-12
1.05247e-08
-2.65131e-12
1.05249e-08
-9.21332e-13
1.05245e-08
7.16557e-13
1.05237e-08
2.26945e-12
1.05224e-08
3.74324e-12
1.05206e-08
5.14401e-12
1.05184e-08
6.47666e-12
1.05157e-08
7.74612e-12
1.05127e-08
8.95671e-12
1.05092e-08
1.01123e-11
1.05055e-08
1.12166e-11
1.05013e-08
1.22729e-11
1.04969e-08
1.32843e-11
1.04921e-08
1.42535e-11
1.0487e-08
1.51831e-11
1.04816e-08
1.60754e-11
1.04759e-08
1.6933e-11
1.04699e-08
1.77575e-11
1.04637e-08
1.85511e-11
1.04573e-08
1.93156e-11
1.04506e-08
2.00522e-11
1.04436e-08
2.0763e-11
1.04365e-08
2.14492e-11
1.04291e-08
2.21122e-11
1.04215e-08
2.27534e-11
1.04137e-08
2.33738e-11
1.04056e-08
2.39746e-11
1.03974e-08
2.4557e-11
1.03891e-08
2.51219e-11
1.03805e-08
2.56703e-11
1.03717e-08
2.62033e-11
1.03628e-08
2.67215e-11
1.03537e-08
2.7226e-11
1.03445e-08
2.77173e-11
1.03351e-08
2.81964e-11
1.03255e-08
2.86639e-11
1.03158e-08
2.91207e-11
1.03059e-08
2.95671e-11
1.02959e-08
3.00041e-11
1.02858e-08
3.04321e-11
1.02755e-08
3.08516e-11
1.02651e-08
3.12634e-11
1.02545e-08
3.16679e-11
1.02438e-08
3.20654e-11
1.0233e-08
3.24568e-11
1.0222e-08
3.28423e-11
1.0211e-08
3.32224e-11
1.01998e-08
3.35974e-11
1.01884e-08
3.3968e-11
1.0177e-08
3.43343e-11
1.01654e-08
3.46968e-11
1.01537e-08
3.50558e-11
1.01419e-08
3.54118e-11
1.013e-08
3.57648e-11
1.0118e-08
3.61156e-11
1.01058e-08
3.64639e-11
1.00935e-08
3.68105e-11
1.00812e-08
3.71554e-11
1.00687e-08
3.74989e-11
1.0056e-08
3.78414e-11
1.00433e-08
3.81831e-11
1.00305e-08
3.8524e-11
1.00175e-08
3.88646e-11
1.00044e-08
3.92051e-11
9.99126e-09
3.95456e-11
9.97796e-09
3.98863e-11
9.96455e-09
4.02277e-11
9.95103e-09
4.05697e-11
9.93739e-09
4.09129e-11
9.92364e-09
4.12572e-11
9.90977e-09
4.1603e-11
9.89579e-09
4.19507e-11
9.88169e-09
4.23006e-11
9.86747e-09
4.2653e-11
9.85313e-09
4.30082e-11
9.83868e-09
4.33671e-11
9.8241e-09
4.373e-11
9.8094e-09
4.40976e-11
9.79458e-09
4.44711e-11
9.77963e-09
4.48513e-11
9.76455e-09
4.52397e-11
9.74934e-09
4.56379e-11
9.73399e-09
4.60479e-11
9.7185e-09
4.64726e-11
9.70287e-09
4.69153e-11
9.68708e-09
4.738e-11
9.67113e-09
4.78723e-11
9.655e-09
4.83991e-11
9.63868e-09
4.89691e-11
9.62216e-09
4.95935e-11
9.60541e-09
5.0287e-11
9.58841e-09
5.10683e-11
9.57111e-09
5.19619e-11
9.55347e-09
5.29997e-11
9.53542e-09
5.42236e-11
9.5169e-09
5.56886e-11
9.4978e-09
5.74682e-11
9.47799e-09
5.96609e-11
9.45728e-09
6.24005e-11
9.43545e-09
6.58704e-11
9.41218e-09
7.03278e-11
9.38703e-09
7.61388e-11
9.35942e-09
8.38405e-11
9.3285e-09
9.42442e-11
9.29304e-09
1.0863e-10
9.25122e-09
1.2912e-10
9.20025e-09
1.59478e-10
9.13569e-09
2.06933e-10
9.0508e-09
2.86745e-10
8.93891e-09
4.34145e-10
7.3173e-10
8.82357e-09
3.92898e-10
-1.51796e-09
7.86126e-10
-1.52333e-09
1.17801e-09
-1.52452e-09
1.56771e-09
-1.52266e-09
1.95486e-09
-1.51856e-09
2.34053e-09
-1.51401e-09
2.72604e-09
-1.50925e-09
3.11186e-09
-1.50308e-09
3.49682e-09
-1.4933e-09
3.87844e-09
-1.47805e-09
4.25412e-09
-1.45695e-09
4.62207e-09
-1.43092e-09
4.98145e-09
-1.40114e-09
5.33185e-09
-1.36822e-09
5.67262e-09
-1.33201e-09
6.00267e-09
-1.29208e-09
6.32072e-09
-1.24831e-09
6.62553e-09
-1.20094e-09
6.91617e-09
-1.15052e-09
7.19194e-09
-1.09768e-09
7.45238e-09
-1.04305e-09
7.69726e-09
-9.87283e-10
7.92658e-09
-9.31023e-10
8.14053e-09
-8.74911e-10
8.33949e-09
-8.19534e-10
8.52401e-09
-7.65404e-10
8.69472e-09
-7.12941e-10
8.85236e-09
-6.62476e-10
8.99766e-09
-6.14253e-10
9.13142e-09
-5.68443e-10
9.25441e-09
-5.25151e-10
9.36739e-09
-4.84425e-10
9.47109e-09
-4.46272e-10
9.56622e-09
-4.10658e-10
9.65346e-09
-3.77518e-10
9.73343e-09
-3.46766e-10
9.80673e-09
-3.18297e-10
9.8739e-09
-2.91991e-10
9.93546e-09
-2.67723e-10
9.99186e-09
-2.45364e-10
1.00435e-08
-2.24783e-10
1.00909e-08
-2.0585e-10
1.01342e-08
-1.88443e-10
1.0174e-08
-1.7244e-10
1.02103e-08
-1.57729e-10
1.02436e-08
-1.44203e-10
1.0274e-08
-1.31763e-10
1.03019e-08
-1.20316e-10
1.03273e-08
-1.09777e-10
1.03505e-08
-1.00067e-10
1.03716e-08
-9.11137e-11
1.03908e-08
-8.28512e-11
1.04083e-08
-7.52186e-11
1.04242e-08
-6.81605e-11
1.04385e-08
-6.16266e-11
1.04514e-08
-5.55708e-11
1.0463e-08
-4.99512e-11
1.04734e-08
-4.47298e-11
1.04827e-08
-3.98721e-11
1.04909e-08
-3.53465e-11
1.04981e-08
-3.11245e-11
1.05044e-08
-2.71803e-11
1.05098e-08
-2.34904e-11
1.05144e-08
-2.00333e-11
1.05182e-08
-1.67898e-11
1.05213e-08
-1.37422e-11
1.05237e-08
-1.08748e-11
1.05254e-08
-8.17287e-12
1.05266e-08
-5.62361e-12
1.05271e-08
-3.21493e-12
1.05271e-08
-9.36048e-13
1.05266e-08
1.22292e-12
1.05256e-08
3.27059e-12
1.05242e-08
5.21534e-12
1.05222e-08
7.06455e-12
1.05199e-08
8.82492e-12
1.05171e-08
1.05023e-11
1.0514e-08
1.21028e-11
1.05105e-08
1.36311e-11
1.05066e-08
1.50923e-11
1.05024e-08
1.64902e-11
1.04978e-08
1.78293e-11
1.0493e-08
1.9113e-11
1.04878e-08
2.03444e-11
1.04824e-08
2.15273e-11
1.04766e-08
2.26638e-11
1.04706e-08
2.37572e-11
1.04644e-08
2.48095e-11
1.04579e-08
2.58235e-11
1.04511e-08
2.68011e-11
1.04441e-08
2.77443e-11
1.04369e-08
2.86551e-11
1.04295e-08
2.95353e-11
1.04219e-08
3.03866e-11
1.0414e-08
3.12103e-11
1.0406e-08
3.20084e-11
1.03978e-08
3.27821e-11
1.03894e-08
3.35327e-11
1.03808e-08
3.42614e-11
1.0372e-08
3.49697e-11
1.03631e-08
3.56584e-11
1.0354e-08
3.63289e-11
1.03447e-08
3.69823e-11
1.03353e-08
3.76192e-11
1.03257e-08
3.8241e-11
1.0316e-08
3.88484e-11
1.03061e-08
3.94423e-11
1.02961e-08
4.00234e-11
1.02859e-08
4.05928e-11
1.02756e-08
4.11511e-11
1.02652e-08
4.16989e-11
1.02546e-08
4.22372e-11
1.02439e-08
4.27665e-11
1.02331e-08
4.32872e-11
1.02221e-08
4.38004e-11
1.0211e-08
4.43065e-11
1.01998e-08
4.48058e-11
1.01885e-08
4.5299e-11
1.0177e-08
4.57869e-11
1.01655e-08
4.62697e-11
1.01538e-08
4.67477e-11
1.0142e-08
4.72219e-11
1.013e-08
4.76922e-11
1.0118e-08
4.81592e-11
1.01058e-08
4.86234e-11
1.00936e-08
4.9085e-11
1.00812e-08
4.95447e-11
1.00687e-08
5.00023e-11
1.00561e-08
5.04587e-11
1.00433e-08
5.09138e-11
1.00305e-08
5.13682e-11
1.00175e-08
5.1822e-11
1.00045e-08
5.22757e-11
9.99127e-09
5.27295e-11
9.97798e-09
5.31836e-11
9.96456e-09
5.36386e-11