/*--------------------------------*- C++ -*----------------------------------*\
  =========                 |
  \\      /  F ield         | OpenFOAM: The Open Source CFD Toolbox
   \\    /   O peration     | Website:  https://openfoam.org
    \\  /    A nd           | Version:  10
     \\/     M anipulation  |
\*---------------------------------------------------------------------------*/
FoamFile
{
    format      ascii;
    class       surfaceScalarField;
    location    "9400";
    object      phi;
}
// * * * * * * * * * * * * * * * * * * * * * * * * * * * * * * * * * * * * * //

dimensions      [0 3 -1 0 0 0 0];

internalField   nonuniform List<scalar> 
12640
(
-1.37842e-08
1.37842e-08
-2.76343e-08
1.385e-08
-4.16172e-08
1.39829e-08
-5.58025e-08
1.41853e-08
-7.02636e-08
1.44612e-08
-8.50796e-08
1.4816e-08
-1.00337e-07
1.52571e-08
-1.16131e-07
1.5794e-08
-1.32569e-07
1.64387e-08
-1.49776e-07
1.72066e-08
-1.67893e-07
1.81173e-08
-1.87089e-07
1.91958e-08
-2.07563e-07
2.04741e-08
-2.29557e-07
2.19939e-08
-2.53367e-07
2.38099e-08
-2.79362e-07
2.5995e-08
-3.0801e-07
2.86483e-08
-3.39917e-07
3.19071e-08
-3.75884e-07
3.5967e-08
-4.16999e-07
4.11145e-08
-4.64784e-07
4.77851e-08
-5.21454e-07
5.667e-08
-5.90379e-07
6.89253e-08
-6.76985e-07
8.66061e-08
-7.90562e-07
1.13577e-07
-9.47212e-07
1.56649e-07
-1.15346e-06
2.06244e-07
-6.76887e-07
-4.76569e-07
-7.58887e-06
6.91198e-06
-6.9158e-06
-6.73072e-07
-6.46511e-06
-4.50693e-07
-6.30331e-06
-1.61792e-07
-6.15978e-06
-1.43537e-07
-5.97582e-06
-1.83957e-07
-5.67209e-06
-3.03727e-07
-5.1559e-06
-5.16188e-07
-4.31734e-06
-8.38568e-07
-3.12204e-06
-1.19529e-06
-1.63793e-06
-1.48411e-06
-1.59985e-18
-1.63793e-06
1.63793e-06
-1.63793e-06
3.12204e-06
-1.48411e-06
4.31734e-06
-1.19529e-06
5.1559e-06
-8.38568e-07
5.67209e-06
-5.16188e-07
5.97582e-06
-3.03727e-07
6.15978e-06
-1.83957e-07
6.30331e-06
-1.43537e-07
6.46511e-06
-1.61792e-07
6.9158e-06
-4.50693e-07
7.58887e-06
-6.73072e-07
6.76887e-07
6.91198e-06
1.15346e-06
-4.76569e-07
9.47212e-07
2.06244e-07
7.90562e-07
1.56649e-07
6.76985e-07
1.13577e-07
5.90379e-07
8.66061e-08
5.21454e-07
6.89253e-08
4.64784e-07
5.667e-08
4.16999e-07
4.77851e-08
3.75884e-07
4.11145e-08
3.39917e-07
3.5967e-08
3.0801e-07
3.19071e-08
2.79362e-07
2.86483e-08
2.53367e-07
2.5995e-08
2.29557e-07
2.38099e-08
2.07563e-07
2.19939e-08
1.87089e-07
2.04741e-08
1.67893e-07
1.91958e-08
1.49776e-07
1.81173e-08
1.32569e-07
1.72066e-08
1.16131e-07
1.64387e-08
1.00337e-07
1.5794e-08
8.50796e-08
1.52571e-08
7.02636e-08
1.4816e-08
5.58025e-08
1.44612e-08
4.16172e-08
1.41853e-08
2.76343e-08
1.39829e-08
1.37842e-08
1.385e-08
1.37842e-08
-1.51158e-08
2.89e-08
-3.03037e-08
2.90379e-08
-4.56371e-08
2.93164e-08
-6.11924e-08
2.97406e-08
-7.705e-08
3.03188e-08
-9.32965e-08
3.10625e-08
-1.10026e-07
3.1987e-08
-1.27344e-07
3.31121e-08
-1.45369e-07
3.44632e-08
-1.64235e-07
3.60724e-08
-1.84098e-07
3.79808e-08
-2.05143e-07
4.02406e-08
-2.27588e-07
4.29191e-08
-2.51698e-07
4.61032e-08
-2.77795e-07
4.99076e-08
-3.06285e-07
5.44847e-08
-3.37678e-07
6.00416e-08
-3.72637e-07
6.68656e-08
-4.12035e-07
7.53649e-08
-4.57058e-07
8.61376e-08
-5.09364e-07
1.00092e-07
-5.71361e-07
1.18667e-07
-6.46702e-07
1.44267e-07
-7.41253e-07
1.81156e-07
-8.65062e-07
2.37387e-07
-1.03657e-06
3.28156e-07
-1.29763e-06
4.67301e-07
-2.25021e-06
4.76014e-07
-2.63982e-06
7.30159e-06
-7.04465e-06
3.73176e-06
-6.72361e-06
-7.71734e-07
-6.61485e-06
-2.70552e-07
-6.47628e-06
-2.8211e-07
-6.31029e-06
-3.49942e-07
-6.01811e-06
-5.95907e-07
-5.50327e-06
-1.03103e-06
-4.62892e-06
-1.71292e-06
-3.3544e-06
-2.46981e-06
-1.76013e-06
-3.07838e-06
-1.61275e-18
-3.39806e-06
1.76013e-06
-3.39806e-06
3.3544e-06
-3.07838e-06
4.62892e-06
-2.46981e-06
5.50327e-06
-1.71292e-06
6.01811e-06
-1.03103e-06
6.31029e-06
-5.95907e-07
6.47628e-06
-3.49942e-07
6.61485e-06
-2.8211e-07
6.72361e-06
-2.70552e-07
7.04465e-06
-7.71734e-07
2.63982e-06
3.73176e-06
2.25021e-06
7.30159e-06
1.29763e-06
4.76014e-07
1.03657e-06
4.67301e-07
8.65062e-07
3.28156e-07
7.41253e-07
2.37387e-07
6.46702e-07
1.81156e-07
5.71361e-07
1.44267e-07
5.09364e-07
1.18667e-07
4.57058e-07
1.00092e-07
4.12035e-07
8.61375e-08
3.72637e-07
7.53649e-08
3.37678e-07
6.68656e-08
3.06285e-07
6.00416e-08
2.77795e-07
5.44847e-08
2.51698e-07
4.99076e-08
2.27588e-07
4.61032e-08
2.05143e-07
4.29191e-08
1.84098e-07
4.02406e-08
1.64235e-07
3.79808e-08
1.45369e-07
3.60724e-08
1.27344e-07
3.44632e-08
1.10026e-07
3.31121e-08
9.32965e-08
3.1987e-08
7.705e-08
3.10625e-08
6.11924e-08
3.03188e-08
4.56371e-08
2.97406e-08
3.03037e-08
2.93164e-08
1.51158e-08
2.90379e-08
2.89e-08
-1.65715e-08
4.54715e-08
-3.32219e-08
4.56884e-08
-5.00317e-08
4.61262e-08
-6.70843e-08
4.67932e-08
-8.44679e-08
4.77024e-08
-1.02277e-07
4.88717e-08
-1.20615e-07
5.03252e-08
-1.39597e-07
5.20941e-08
-1.59352e-07
5.42181e-08
-1.80028e-07
5.67478e-08
-2.01794e-07
5.97475e-08
-2.24853e-07
6.32993e-08
-2.49442e-07
6.75084e-08
-2.75851e-07
7.25115e-08
-3.04431e-07
7.8488e-08
-3.35623e-07
8.56768e-08
-3.69984e-07
9.44022e-08
-4.08232e-07
1.05113e-07
-4.51314e-07
1.18447e-07
-5.00515e-07
1.35338e-07
-5.57622e-07
1.57199e-07
-6.2522e-07
1.86265e-07
-7.07211e-07
2.26257e-07
-8.0981e-07
2.83756e-07
-9.43633e-07
3.7121e-07
-1.12898e-06
5.13504e-07
-1.42277e-06
7.6109e-07
-2.24385e-06
1.29709e-06
-1.08515e-06
6.14289e-06
-5.08489e-06
7.73151e-06
-6.98117e-06
1.12454e-06
-7.0153e-06
-2.36422e-07
-6.87996e-06
-4.17447e-07
-6.76637e-06
-4.63532e-07
-6.51573e-06
-8.46555e-07
-6.0408e-06
-1.50595e-06
-5.13235e-06
-2.62138e-06
-3.73529e-06
-3.86686e-06
-1.95915e-06
-4.85452e-06
3.96552e-18
-5.35721e-06
1.95915e-06
-5.35721e-06
3.73529e-06
-4.85452e-06
5.13235e-06
-3.86686e-06
6.0408e-06
-2.62138e-06
6.51573e-06
-1.50595e-06
6.76637e-06
-8.46555e-07
6.87996e-06
-4.63532e-07
7.0153e-06
-4.17447e-07
6.98117e-06
-2.36422e-07
5.08489e-06
1.12454e-06
1.08515e-06
7.73151e-06
2.24385e-06
6.14289e-06
1.42277e-06
1.29709e-06
1.12898e-06
7.6109e-07
9.43633e-07
5.13504e-07
8.0981e-07
3.7121e-07
7.07211e-07
2.83756e-07
6.2522e-07
2.26257e-07
5.57622e-07
1.86265e-07
5.00515e-07
1.57199e-07
4.51314e-07
1.35338e-07
4.08232e-07
1.18447e-07
3.69984e-07
1.05113e-07
3.35623e-07
9.44022e-08
3.04431e-07
8.56768e-08
2.75851e-07
7.8488e-08
2.49442e-07
7.25115e-08
2.24853e-07
6.75084e-08
2.01794e-07
6.32993e-08
1.80028e-07
5.97475e-08
1.59352e-07
5.67478e-08
1.39597e-07
5.42181e-08
1.20615e-07
5.20941e-08
1.02277e-07
5.03252e-08
8.44679e-08
4.88717e-08
6.70843e-08
4.77024e-08
5.00317e-08
4.67932e-08
3.32219e-08
4.61262e-08
1.65715e-08
4.56884e-08
4.54715e-08
-1.81611e-08
6.36326e-08
-3.64085e-08
6.39358e-08
-5.48302e-08
6.45478e-08
-7.35173e-08
6.54803e-08
-9.25661e-08
6.67512e-08
-1.1208e-07
6.83857e-08
-1.32172e-07
7.04174e-08
-1.52968e-07
7.28896e-08
-1.74608e-07
7.58579e-08
-1.97253e-07
7.93928e-08
-2.21089e-07
8.35838e-08
-2.46335e-07
8.85453e-08
-2.73251e-07
9.4424e-08
-3.02149e-07
1.0141e-07
-3.33413e-07
1.09752e-07
-3.6752e-07
1.19784e-07
-4.05071e-07
1.31953e-07
-4.46842e-07
1.46884e-07
-4.93851e-07
1.65457e-07
-5.47474e-07
1.88961e-07
-6.09615e-07
2.1934e-07
-6.83007e-07
2.59657e-07
-7.71733e-07
3.14983e-07
-8.82207e-07
3.9423e-07
-1.02522e-06
5.14219e-07
-1.22127e-06
7.09558e-07
-1.52367e-06
1.06349e-06
-2.12789e-06
1.90131e-06
-1.53073e-06
5.54573e-06
-6.73109e-07
6.87389e-06
-6.3649e-06
6.81633e-06
-7.40305e-06
8.01736e-07
-7.29437e-06
-5.26129e-07
-7.3244e-06
-4.33503e-07
-7.16666e-06
-1.0043e-06
-6.82225e-06
-1.85036e-06
-5.89793e-06
-3.54569e-06
-4.31895e-06
-5.44585e-06
-2.25834e-06
-6.91513e-06
9.56268e-18
-7.61556e-06
2.25834e-06
-7.61556e-06
4.31895e-06
-6.91513e-06
5.89793e-06
-5.44585e-06
6.82225e-06
-3.54569e-06
7.16666e-06
-1.85036e-06
7.3244e-06
-1.0043e-06
7.29437e-06
-4.33503e-07
7.40305e-06
-5.26129e-07
6.3649e-06
8.01736e-07
6.73109e-07
6.81633e-06
1.53073e-06
6.87389e-06
2.12789e-06
5.54573e-06
1.52367e-06
1.90131e-06
1.22127e-06
1.06349e-06
1.02522e-06
7.09558e-07
8.82207e-07
5.14219e-07
7.71733e-07
3.9423e-07
6.83007e-07
3.14983e-07
6.09615e-07
2.59657e-07
5.47474e-07
2.1934e-07
4.93851e-07
1.88961e-07
4.46842e-07
1.65457e-07
4.05071e-07
1.46884e-07
3.6752e-07
1.31953e-07
3.33413e-07
1.19784e-07
3.02149e-07
1.09752e-07
2.73251e-07
1.0141e-07
2.46335e-07
9.4424e-08
2.21089e-07
8.85453e-08
1.97253e-07
8.35838e-08
1.74608e-07
7.93928e-08
1.52968e-07
7.58579e-08
1.32172e-07
7.28896e-08
1.1208e-07
7.04174e-08
9.25661e-08
6.83857e-08
7.35173e-08
6.67512e-08
5.48302e-08
6.54803e-08
3.64085e-08
6.45478e-08
1.81611e-08
6.39358e-08
6.36326e-08
-1.98945e-08
8.35271e-08
-3.98831e-08
8.39244e-08
-6.00619e-08
8.47266e-08
-8.05304e-08
8.59488e-08
-1.01394e-07
8.76144e-08
-1.22764e-07
8.97564e-08
-1.44765e-07
9.24186e-08
-1.67533e-07
9.56577e-08
-1.91222e-07
9.95462e-08
-2.16005e-07
1.04176e-07
-2.42085e-07
1.09664e-07
-2.697e-07
1.1616e-07
-2.9913e-07
1.23854e-07
-3.30714e-07
1.32994e-07
-3.64866e-07
1.43904e-07
-4.02098e-07
1.57016e-07
-4.43057e-07
1.72912e-07
-4.88571e-07
1.92397e-07
-5.39724e-07
2.1661e-07
-5.9797e-07
2.47207e-07
-6.65305e-07
2.86676e-07
-7.44562e-07
3.38914e-07
-8.399e-07
4.10321e-07
-9.577e-07
5.12031e-07
-1.10832e-06
6.64842e-07
-1.31024e-06
9.11475e-07
-1.60189e-06
1.35514e-06
-2.03244e-06
2.33186e-06
-1.56907e-06
5.08235e-06
-1.04109e-06
6.34591e-06
-6.71656e-07
6.44689e-06
-6.3918e-06
6.52188e-06
-7.31068e-06
3.9275e-07
-7.89449e-06
1.50312e-07
-7.94201e-06
-9.5678e-07
-7.96521e-06
-1.82716e-06
-7.07407e-06
-4.43684e-06
-5.21303e-06
-7.30688e-06
-2.69564e-06
-9.43252e-06
2.21195e-18
-1.03112e-05
2.69564e-06
-1.03112e-05
5.21303e-06
-9.43252e-06
7.07407e-06
-7.30688e-06
7.96521e-06
-4.43684e-06
7.94201e-06
-1.82716e-06
7.89449e-06
-9.5678e-07
7.31068e-06
1.50312e-07
6.3918e-06
3.9275e-07
6.71656e-07
6.52188e-06
1.04109e-06
6.44689e-06
1.56907e-06
6.34591e-06
2.03244e-06
5.08235e-06
1.60189e-06
2.33186e-06
1.31024e-06
1.35514e-06
1.10832e-06
9.11475e-07
9.577e-07
6.64842e-07
8.399e-07
5.12031e-07
7.44562e-07
4.10321e-07
6.65305e-07
3.38914e-07
5.9797e-07
2.86676e-07
5.39724e-07
2.47207e-07
4.88571e-07
2.1661e-07
4.43057e-07
1.92397e-07
4.02098e-07
1.72912e-07
3.64866e-07
1.57016e-07
3.30714e-07
1.43904e-07
2.9913e-07
1.32994e-07
2.697e-07
1.23854e-07
2.42085e-07
1.1616e-07
2.16005e-07
1.09664e-07
1.91222e-07
1.04176e-07
1.67533e-07
9.95462e-08
1.44765e-07
9.56577e-08
1.22764e-07
9.24186e-08
1.01394e-07
8.97564e-08
8.05304e-08
8.76144e-08
6.00619e-08
8.59488e-08
3.98831e-08
8.47266e-08
1.98945e-08
8.39244e-08
8.35271e-08
-2.17812e-08
1.05308e-07
-4.3665e-08
1.05808e-07
-6.57558e-08
1.06817e-07
-8.8162e-08
1.08355e-07
-1.10998e-07
1.1045e-07
-1.34386e-07
1.13144e-07
-1.5846e-07
1.16493e-07
-1.83368e-07
1.20566e-07
-2.09276e-07
1.25454e-07
-2.36373e-07
1.31274e-07
-2.64879e-07
1.3817e-07
-2.95048e-07
1.46329e-07
-3.27184e-07
1.5599e-07
-3.6165e-07
1.6746e-07
-3.9889e-07
1.81144e-07
-4.3945e-07
1.97576e-07
-4.84017e-07
2.17479e-07
-5.33467e-07
2.41847e-07
-5.88938e-07
2.72081e-07
-6.5194e-07
3.10209e-07
-7.24525e-07
3.5926e-07
-8.09548e-07
4.23937e-07
-9.11101e-07
5.11874e-07
-1.03522e-06
6.36151e-07
-1.19109e-06
8.20711e-07
-1.39295e-06
1.11333e-06
-1.65979e-06
1.62199e-06
-1.9555e-06
2.62757e-06
-1.59524e-06
4.7221e-06
-1.13184e-06
5.88251e-06
-8.4644e-07
6.16149e-06
-5.38756e-07
6.2142e-06
-2.47651e-06
2.3305e-06
-6.84523e-06
4.51903e-06
-8.21652e-06
4.1451e-07
-9.57586e-06
-4.67819e-07
-8.89986e-06
-5.11284e-06
-6.59386e-06
-9.61288e-06
-3.30171e-06
-1.27247e-05
-1.46366e-18
-1.36129e-05
3.30171e-06
-1.36129e-05
6.59386e-06
-1.27247e-05
8.89986e-06
-9.61288e-06
9.57586e-06
-5.11284e-06
8.21652e-06
-4.67819e-07
6.84523e-06
4.1451e-07
2.47651e-06
4.51903e-06
5.38756e-07
2.3305e-06
8.4644e-07
6.2142e-06
1.13184e-06
6.16149e-06
1.59524e-06
5.88251e-06
1.9555e-06
4.7221e-06
1.65979e-06
2.62757e-06
1.39295e-06
1.62199e-06
1.19109e-06
1.11333e-06
1.03522e-06
8.20711e-07
9.11101e-07
6.36151e-07
8.09548e-07
5.11874e-07
7.24525e-07
4.23937e-07
6.5194e-07
3.5926e-07
5.88938e-07
3.10209e-07
5.33467e-07
2.72081e-07
4.84017e-07
2.41847e-07
4.3945e-07
2.17479e-07
3.9889e-07
1.97576e-07
3.6165e-07
1.81144e-07
3.27184e-07
1.6746e-07
2.95048e-07
1.5599e-07
2.64879e-07
1.46329e-07
2.36373e-07
1.3817e-07
2.09276e-07
1.31274e-07
1.83368e-07
1.25454e-07
1.5846e-07
1.20566e-07
1.34386e-07
1.16493e-07
1.10998e-07
1.13144e-07
8.8162e-08
1.1045e-07
6.57558e-08
1.08355e-07
4.3665e-08
1.06817e-07
2.17812e-08
1.05808e-07
1.05308e-07
-2.38303e-08
1.29139e-07
-4.7772e-08
1.2975e-07
-7.19385e-08
1.30984e-07
-9.64474e-08
1.32864e-07
-1.21423e-07
1.35425e-07
-1.46997e-07
1.38719e-07
-1.73315e-07
1.42811e-07
-2.00537e-07
1.47788e-07
-2.28842e-07
1.53759e-07
-2.58435e-07
1.60866e-07
-2.89549e-07
1.69284e-07
-3.2246e-07
1.7924e-07
-3.5749e-07
1.91021e-07
-3.95029e-07
2.04999e-07
-4.35545e-07
2.2166e-07
-4.79617e-07
2.41648e-07
-5.27964e-07
2.65826e-07
-5.815e-07
2.95383e-07
-6.41397e-07
3.31978e-07
-7.09192e-07
3.78004e-07
-7.86934e-07
4.37002e-07
-8.77404e-07
5.14408e-07
-9.84439e-07
6.18909e-07
-1.11336e-06
7.65073e-07
-1.27138e-06
9.78736e-07
-1.46692e-06
1.30887e-06
-1.70011e-06
1.85517e-06
-1.89408e-06
2.82153e-06
-1.61077e-06
4.43879e-06
-1.20803e-06
5.47977e-06
-9.22087e-07
5.87554e-06
-7.51745e-07
6.04385e-06
-1.13684e-06
2.7156e-06
8.71464e-08
3.29504e-06
-2.04433e-06
2.54599e-06
-5.70704e-06
3.1949e-06
-1.10861e-05
2.66189e-07
-8.59528e-06
-1.21037e-05
-3.98569e-06
-1.73343e-05
2.32467e-18
-1.75986e-05
3.98569e-06
-1.75986e-05
8.59528e-06
-1.73343e-05
1.10861e-05
-1.21037e-05
5.70704e-06
2.66189e-07
2.04433e-06
3.1949e-06
-8.71464e-08
2.54599e-06
1.13684e-06
3.29504e-06
7.51745e-07
2.7156e-06
9.22087e-07
6.04385e-06
1.20803e-06
5.87554e-06
1.61077e-06
5.47977e-06
1.89408e-06
4.43879e-06
1.70011e-06
2.82153e-06
1.46692e-06
1.85517e-06
1.27138e-06
1.30887e-06
1.11336e-06
9.78736e-07
9.84439e-07
7.65073e-07
8.77404e-07
6.18909e-07
7.86934e-07
5.14408e-07
7.09192e-07
4.37002e-07
6.41397e-07
3.78004e-07
5.815e-07
3.31978e-07
5.27964e-07
2.95383e-07
4.79617e-07
2.65826e-07
4.35545e-07
2.41648e-07
3.95029e-07
2.2166e-07
3.5749e-07
2.04999e-07
3.2246e-07
1.91021e-07
2.89549e-07
1.7924e-07
2.58435e-07
1.69284e-07
2.28842e-07
1.60866e-07
2.00537e-07
1.53759e-07
1.73315e-07
1.47788e-07
1.46997e-07
1.42811e-07
1.21423e-07
1.38719e-07
9.64474e-08
1.35425e-07
7.19385e-08
1.32864e-07
4.7772e-08
1.30984e-07
2.38303e-08
1.2975e-07
1.29139e-07
-2.60496e-08
1.55188e-07
-5.22198e-08
1.5592e-07
-7.86332e-08
1.57397e-07
-1.05417e-07
1.59648e-07
-1.32705e-07
1.62713e-07
-1.60641e-07
1.66654e-07
-1.8938e-07
1.7155e-07
-2.19094e-07
1.77502e-07
-2.49976e-07
1.84642e-07
-2.82245e-07
1.93135e-07
-3.16151e-07
2.0319e-07
-3.51985e-07
2.15074e-07
-3.90091e-07
2.29126e-07
-4.30877e-07
2.45785e-07
-4.74838e-07
2.6562e-07
-5.22573e-07
2.89383e-07
-5.74827e-07
3.18081e-07
-6.32533e-07
3.53088e-07
-6.96871e-07
3.96317e-07
-7.69362e-07
4.50495e-07
-8.51979e-07
5.1962e-07
-9.47307e-07
6.09735e-07
-1.05871e-06
7.30307e-07
-1.19039e-06
8.96755e-07
-1.34694e-06
1.13528e-06
-1.53027e-06
1.49221e-06
-1.72554e-06
2.05044e-06
-1.84453e-06
2.94053e-06
-1.6168e-06
4.21106e-06
-1.268e-06
5.13097e-06
-9.87126e-07
5.59467e-06
-8.11321e-07
5.86805e-06
-8.24408e-07
2.72869e-06
-4.49485e-07
2.92012e-06
-7.54766e-07
2.85127e-06
-8.05222e-07
3.24535e-06
-2.74694e-06
2.20791e-06
-8.90871e-06
-5.94191e-06
-4.04514e-06
-2.21978e-05
1.43173e-17
-2.16437e-05
4.04514e-06
-2.16437e-05
8.90871e-06
-2.21978e-05
2.74694e-06
-5.94191e-06
8.05222e-07
2.20791e-06
7.54766e-07
3.24535e-06
4.49485e-07
2.85127e-06
8.24408e-07
2.92012e-06
8.11321e-07
2.72869e-06
9.87126e-07
5.86805e-06
1.268e-06
5.59467e-06
1.6168e-06
5.13097e-06
1.84453e-06
4.21106e-06
1.72554e-06
2.94053e-06
1.53027e-06
2.05044e-06
1.34694e-06
1.49221e-06
1.19039e-06
1.13528e-06
1.05871e-06
8.96755e-07
9.47307e-07
7.30307e-07
8.51979e-07
6.09735e-07
7.69362e-07
5.1962e-07
6.96871e-07
4.50495e-07
6.32533e-07
3.96317e-07
5.74827e-07
3.53088e-07
5.22573e-07
3.18081e-07
4.74838e-07
2.89383e-07
4.30877e-07
2.6562e-07
3.90091e-07
2.45785e-07
3.51985e-07
2.29126e-07
3.16151e-07
2.15074e-07
2.82245e-07
2.0319e-07
2.49976e-07
1.93135e-07
2.19094e-07
1.84642e-07
1.8938e-07
1.77502e-07
1.60641e-07
1.7155e-07
1.32705e-07
1.66654e-07
1.05417e-07
1.62713e-07
7.86332e-08
1.59648e-07
5.22198e-08
1.57397e-07
2.60496e-08
1.5592e-07
1.55188e-07
-2.84451e-08
1.83633e-07
-5.702e-08
1.84495e-07
-8.5857e-08
1.86234e-07
-1.15093e-07
1.88883e-07
-1.44871e-07
1.92492e-07
-1.75346e-07
1.97129e-07
-2.06685e-07
2.02888e-07
-2.39071e-07
2.09888e-07
-2.72709e-07
2.1828e-07
-3.07831e-07
2.28257e-07
-3.44703e-07
2.40062e-07
-3.83631e-07
2.54002e-07
-4.24975e-07
2.70471e-07
-4.6916e-07
2.89971e-07
-5.16696e-07
3.13156e-07
-5.68198e-07
3.40885e-07
-6.24419e-07
3.74302e-07
-6.86287e-07
4.14956e-07
-7.54958e-07
4.64987e-07
-8.31877e-07
5.27415e-07
-9.18858e-07
6.066e-07
-1.01814e-06
7.09016e-07
-1.13237e-06
8.44542e-07
-1.26432e-06
1.0287e-06
-1.41551e-06
1.28648e-06
-1.58172e-06
1.65842e-06
-1.73838e-06
2.2071e-06
-1.80298e-06
3.00513e-06
-1.61395e-06
4.02203e-06
-1.31042e-06
4.82744e-06
-1.03534e-06
5.31959e-06
-8.2474e-07
5.65745e-06
-7.36306e-07
2.64025e-06
-5.53405e-07
2.73722e-06
-4.82143e-07
2.78e-06
-1.08127e-07
2.87134e-06
-5.44121e-07
2.6439e-06
-3.82207e-06
-2.66396e-06
-2.38851e-06
-2.36314e-05
1.83247e-17
-2.40323e-05
2.38851e-06
-2.40323e-05
3.82207e-06
-2.36314e-05
5.44121e-07
-2.66396e-06
1.08127e-07
2.6439e-06
4.82143e-07
2.87134e-06
5.53405e-07
2.78e-06
7.36306e-07
2.73722e-06
8.2474e-07
2.64025e-06
1.03534e-06
5.65745e-06
1.31042e-06
5.31959e-06
1.61395e-06
4.82744e-06
1.80298e-06
4.02203e-06
1.73838e-06
3.00513e-06
1.58172e-06
2.2071e-06
1.41551e-06
1.65842e-06
1.26432e-06
1.28648e-06
1.13237e-06
1.0287e-06
1.01814e-06
8.44542e-07
9.18858e-07
7.09016e-07
8.31877e-07
6.066e-07
7.54958e-07
5.27415e-07
6.86287e-07
4.64987e-07
6.24419e-07
4.14956e-07
5.68198e-07
3.74302e-07
5.16696e-07
3.40885e-07
4.6916e-07
3.13156e-07
4.24975e-07
2.89971e-07
3.83631e-07
2.70471e-07
3.44703e-07
2.54002e-07
3.07831e-07
2.40062e-07
2.72709e-07
2.28257e-07
2.39071e-07
2.1828e-07
2.06685e-07
2.09888e-07
1.75346e-07
2.02888e-07
1.44871e-07
1.97129e-07
1.15093e-07
1.92492e-07
8.5857e-08
1.88883e-07
5.702e-08
1.86234e-07
2.84451e-08
1.84495e-07
1.83633e-07
-3.10196e-08
2.14653e-07
-6.21784e-08
2.15654e-07
-9.36179e-08
2.17674e-07
-1.25484e-07
2.2075e-07
-1.57932e-07
2.24939e-07
-1.91124e-07
2.30321e-07
-2.25238e-07
2.37002e-07
-2.60469e-07
2.45119e-07
-2.97034e-07
2.54845e-07
-3.35176e-07
2.66399e-07
-3.75173e-07
2.80058e-07
-4.17343e-07
2.96172e-07
-4.62058e-07
3.15186e-07
-5.09754e-07
3.37666e-07
-5.60945e-07
3.64347e-07
-6.16248e-07
3.96188e-07
-6.76404e-07
4.34457e-07
-7.42308e-07
4.80859e-07
-8.15043e-07
5.37723e-07
-8.95917e-07
6.08289e-07
-9.86477e-07
6.9716e-07
-1.08847e-06
8.11007e-07
-1.20363e-06
9.597e-07
-1.333e-06
1.15807e-06
-1.47503e-06
1.42851e-06
-1.62049e-06
1.80388e-06
-1.74034e-06
2.32695e-06
-1.76558e-06
3.03037e-06
-1.60233e-06
3.85878e-06
-1.33472e-06
4.55983e-06
-1.06515e-06
5.05002e-06
-8.2288e-07
5.41518e-06
-7.05272e-07
2.52264e-06
-5.61835e-07
2.59378e-06
-4.32443e-07
2.65061e-06
-2.67887e-07
2.70678e-06
-3.40944e-07
2.71696e-06
-1.52161e-06
-1.48329e-06
-1.16169e-06
-2.39913e-05
1.89735e-18
-2.51939e-05
1.16169e-06
-2.51939e-05
1.52161e-06
-2.39913e-05
3.40944e-07
-1.48329e-06
2.67887e-07
2.71696e-06
4.32443e-07
2.70678e-06
5.61835e-07
2.65061e-06
7.05272e-07
2.59378e-06
8.2288e-07
2.52264e-06
1.06515e-06
5.41518e-06
1.33472e-06
5.05002e-06
1.60233e-06
4.55983e-06
1.76558e-06
3.85878e-06
1.74034e-06
3.03037e-06
1.62049e-06
2.32695e-06
1.47503e-06
1.80388e-06
1.333e-06
1.42851e-06
1.20363e-06
1.15807e-06
1.08847e-06
9.597e-07
9.86477e-07
8.11007e-07
8.95917e-07
6.9716e-07
8.15043e-07
6.08289e-07
7.42308e-07
5.37723e-07
6.76404e-07
4.80859e-07
6.16248e-07
4.34457e-07
5.60945e-07
3.96188e-07
5.09754e-07
3.64347e-07
4.62058e-07
3.37666e-07
4.17343e-07
3.15186e-07
3.75173e-07
2.96172e-07
3.35176e-07
2.80058e-07
2.97034e-07
2.66399e-07
2.60469e-07
2.54845e-07
2.25238e-07
2.45119e-07
1.91124e-07
2.37002e-07
1.57932e-07
2.30321e-07
1.25484e-07
2.24939e-07
9.36179e-08
2.2075e-07
6.21784e-08
2.17674e-07
3.10196e-08
2.15654e-07
2.14653e-07
-3.3772e-08
2.48425e-07
-6.76922e-08
2.49574e-07
-1.01911e-07
2.51893e-07
-1.36584e-07
2.55423e-07
-1.71874e-07
2.60229e-07
-2.07954e-07
2.66402e-07
-2.45011e-07
2.7406e-07
-2.8325e-07
2.83358e-07
-3.22897e-07
2.94491e-07
-3.64204e-07
3.07706e-07
-4.07458e-07
3.23312e-07
-4.52984e-07
3.41699e-07
-5.01159e-07
3.63361e-07
-5.52419e-07
3.88926e-07
-6.07274e-07
4.19202e-07
-6.6632e-07
4.55234e-07
-7.3026e-07
4.98398e-07
-7.99922e-07
5.5052e-07
-8.76263e-07
6.14065e-07
-9.60378e-07
6.92403e-07
-1.05344e-06
7.90225e-07
-1.15657e-06
9.14136e-07
-1.27042e-06
1.07355e-06
-1.39425e-06
1.2819e-06
-1.52372e-06
1.55797e-06
-1.64622e-06
1.92639e-06
-1.73246e-06
2.41318e-06
-1.72878e-06
3.0267e-06
-1.58167e-06
3.71166e-06
-1.34102e-06
4.31919e-06
-1.07671e-06
4.78571e-06
-8.1201e-07
5.15048e-06
-6.8325e-07
2.39388e-06
-5.44082e-07
2.45461e-06
-4.03006e-07
2.50954e-06
-2.58463e-07
2.56224e-06
-1.52515e-07
2.61101e-06
-7.53688e-07
-8.82118e-07
-6.94165e-07
-2.40508e-05
8.84887e-18
-2.58881e-05
6.94165e-07
-2.58881e-05
7.53688e-07
-2.40508e-05
1.52515e-07
-8.82118e-07
2.58463e-07
2.61101e-06
4.03006e-07
2.56224e-06
5.44082e-07
2.50954e-06
6.8325e-07
2.45461e-06
8.1201e-07
2.39388e-06
1.07671e-06
5.15048e-06
1.34102e-06
4.78571e-06
1.58167e-06
4.31919e-06
1.72878e-06
3.71166e-06
1.73246e-06
3.0267e-06
1.64622e-06
2.41318e-06
1.52372e-06
1.92639e-06
1.39425e-06
1.55797e-06
1.27042e-06
1.2819e-06
1.15657e-06
1.07355e-06
1.05344e-06
9.14136e-07
9.60378e-07
7.90225e-07
8.76263e-07
6.92403e-07
7.99922e-07
6.14065e-07
7.3026e-07
5.5052e-07
6.6632e-07
4.98398e-07
6.07274e-07
4.55234e-07
5.52419e-07
4.19202e-07
5.01159e-07
3.88926e-07
4.52984e-07
3.63361e-07
4.07458e-07
3.41699e-07
3.64204e-07
3.23312e-07
3.22897e-07
3.07706e-07
2.8325e-07
2.94491e-07
2.45011e-07
2.83358e-07
2.07954e-07
2.7406e-07
1.71874e-07
2.66402e-07
1.36584e-07
2.60229e-07
1.01911e-07
2.55423e-07
6.76922e-08
2.51893e-07
3.3772e-08
2.49574e-07
2.48425e-07
-3.66953e-08
2.8512e-07
-7.3547e-08
2.86426e-07
-1.10714e-07
2.89059e-07
-1.48359e-07
2.93068e-07
-1.86653e-07
2.98524e-07
-2.25779e-07
3.05527e-07
-2.65929e-07
3.14211e-07
-3.07317e-07
3.24746e-07
-3.50175e-07
3.37349e-07
-3.9476e-07
3.52291e-07
-4.41363e-07
3.69914e-07
-4.90309e-07
3.90646e-07
-5.41971e-07
4.15023e-07
-5.96774e-07
4.43728e-07
-6.55202e-07
4.7763e-07
-7.17814e-07
5.17846e-07
-7.85243e-07
5.65828e-07
-8.58203e-07
6.23481e-07
-9.37474e-07
6.93335e-07
-1.02385e-06
7.78785e-07
-1.11806e-06
8.84429e-07
-1.22046e-06
1.01654e-06
-1.33058e-06
1.18366e-06
-1.44596e-06
1.39728e-06
-1.5601e-06
1.67212e-06
-1.65876e-06
2.02505e-06
-1.71511e-06
2.46953e-06
-1.68953e-06
3.00111e-06
-1.55153e-06
3.57367e-06
-1.33012e-06
4.09778e-06
-1.07092e-06
4.52651e-06
-7.92149e-07
4.87171e-06
-6.56657e-07
2.25839e-06
-5.12878e-07
2.31083e-06
-3.61535e-07
2.35819e-06
-2.00857e-07
2.40156e-06
-3.05962e-08
2.44075e-06
-3.47518e-07
-5.65196e-07
-4.63449e-07
-2.39349e-05
2.06516e-17
-2.63516e-05
4.63449e-07
-2.63516e-05
3.47518e-07
-2.39349e-05
3.05962e-08
-5.65196e-07
2.00857e-07
2.44075e-06
3.61535e-07
2.40156e-06
5.12878e-07
2.35819e-06
6.56657e-07
2.31083e-06
7.92149e-07
2.25839e-06
1.07092e-06
4.87171e-06
1.33012e-06
4.52651e-06
1.55153e-06
4.09778e-06
1.68953e-06
3.57367e-06
1.71511e-06
3.00111e-06
1.65876e-06
2.46953e-06
1.5601e-06
2.02505e-06
1.44596e-06
1.67212e-06
1.33058e-06
1.39728e-06
1.22046e-06
1.18366e-06
1.11806e-06
1.01654e-06
1.02385e-06
8.84429e-07
9.37474e-07
7.78785e-07
8.58203e-07
6.93335e-07
7.85243e-07
6.23481e-07
7.17814e-07
5.65828e-07
6.55202e-07
5.17846e-07
5.96774e-07
4.7763e-07
5.41971e-07
4.43728e-07
4.90309e-07
4.15023e-07
4.41363e-07
3.90646e-07
3.9476e-07
3.69914e-07
3.50175e-07
3.52291e-07
3.07317e-07
3.37349e-07
2.65929e-07
3.24746e-07
2.25779e-07
3.14211e-07
1.86653e-07
3.05527e-07
1.48359e-07
2.98524e-07
1.10714e-07
2.93068e-07
7.3547e-08
2.89059e-07
3.66953e-08
2.86426e-07
2.8512e-07
-3.97746e-08
3.24895e-07
-7.97123e-08
3.26363e-07
-1.19979e-07
3.29326e-07
-1.60743e-07
3.33833e-07
-2.02184e-07
3.39965e-07
-2.44488e-07
3.47831e-07
-2.87854e-07
3.57577e-07
-3.32499e-07
3.6939e-07
-3.78657e-07
3.83506e-07
-4.26586e-07
4.00221e-07
-4.76573e-07
4.19901e-07
-5.28936e-07
4.43008e-07
-5.8403e-07
4.70117e-07
-6.42252e-07
5.01951e-07
-7.04046e-07
5.39424e-07
-7.69902e-07
5.83701e-07
-8.4035e-07
6.36276e-07
-9.15946e-07
6.99077e-07
-9.97231e-07
7.7462e-07
-1.08465e-06
8.66201e-07
-1.17837e-06
9.7815e-07
-1.27798e-06
1.11615e-06
-1.38188e-06
1.28756e-06
-1.48621e-06
1.5016e-06
-1.58307e-06
1.76898e-06
-1.65805e-06
2.10003e-06
-1.68825e-06
2.49973e-06
-1.64531e-06
2.95818e-06
-1.51154e-06
3.43989e-06
-1.30331e-06
3.88955e-06
-1.04933e-06
4.27252e-06
-7.63478e-07
4.58586e-06
-6.23887e-07
2.1188e-06
-4.75518e-07
2.16246e-06
-3.16861e-07
2.19954e-06
-1.44274e-07
2.22897e-06
4.92977e-08
2.24718e-06
-1.22102e-07
-3.93796e-07
-3.39108e-07
-2.37179e-05
4.15608e-18
-2.66907e-05
3.39108e-07
-2.66907e-05
1.22102e-07
-2.37179e-05
-4.92977e-08
-3.93796e-07
1.44274e-07
2.24718e-06
3.16861e-07
2.22897e-06
4.75518e-07
2.19954e-06
6.23887e-07
2.16246e-06
7.63478e-07
2.1188e-06
1.04933e-06
4.58586e-06
1.30331e-06
4.27252e-06
1.51154e-06
3.88955e-06
1.64531e-06
3.43989e-06
1.68825e-06
2.95818e-06
1.65805e-06
2.49973e-06
1.58307e-06
2.10003e-06
1.48621e-06
1.76898e-06
1.38188e-06
1.5016e-06
1.27798e-06
1.28756e-06
1.17837e-06
1.11615e-06
1.08465e-06
9.7815e-07
9.97231e-07
8.66201e-07
9.15946e-07
7.7462e-07
8.4035e-07
6.99077e-07
7.69902e-07
6.36276e-07
7.04046e-07
5.83701e-07
6.42252e-07
5.39424e-07
5.8403e-07
5.01951e-07
5.28936e-07
4.70117e-07
4.76573e-07
4.43008e-07
4.26586e-07
4.19901e-07
3.78657e-07
4.00221e-07
3.32499e-07
3.83506e-07
2.87854e-07
3.6939e-07
2.44488e-07
3.57577e-07
2.02184e-07
3.47831e-07
1.60743e-07
3.39965e-07
1.19979e-07
3.33833e-07
7.97123e-08
3.29326e-07
3.97746e-08
3.26363e-07
3.24895e-07
-4.29845e-08
3.67879e-07
-8.6137e-08
3.69516e-07
-1.29627e-07
3.72816e-07
-1.7363e-07
3.77836e-07
-2.18326e-07
3.8466e-07
-2.63905e-07
3.9341e-07
-3.10568e-07
4.0424e-07
-3.5853e-07
4.17352e-07
-4.08023e-07
4.32999e-07
-4.59298e-07
4.51496e-07
-5.12628e-07
4.73232e-07
-5.68314e-07
4.98693e-07
-6.26679e-07
5.28482e-07
-6.88076e-07
5.63348e-07
-7.52883e-07
6.04231e-07
-8.21492e-07
6.52311e-07
-8.94296e-07
7.09079e-07
-9.71648e-07
7.7643e-07
-1.0538e-06
8.56774e-07
-1.14079e-06
9.53187e-07
-1.23221e-06
1.06957e-06
-1.32688e-06
1.21082e-06
-1.42222e-06
1.38291e-06
-1.51337e-06
1.59275e-06
-1.59181e-06
1.84742e-06
-1.64407e-06
2.15229e-06
-1.65154e-06
2.5072e-06
-1.59429e-06
2.90093e-06
-1.46156e-06
3.30716e-06
-1.26229e-06
3.69028e-06
-1.01412e-06
4.02435e-06
-7.27706e-07
4.29945e-06
-5.87785e-07
1.97888e-06
-4.39618e-07
2.0143e-06
-2.82473e-07
2.04239e-06
-1.15249e-07
2.06175e-06
6.27867e-08
2.06914e-06
-1.34701e-08
-3.1754e-07
-2.82842e-07
-2.34485e-05
-2.31379e-18
-2.69735e-05
2.82842e-07
-2.69735e-05
1.34701e-08
-2.34485e-05
-6.27867e-08
-3.1754e-07
1.15249e-07
2.06914e-06
2.82473e-07
2.06175e-06
4.39618e-07
2.04239e-06
5.87785e-07
2.0143e-06
7.27706e-07
1.97888e-06
1.01412e-06
4.29945e-06
1.26229e-06
4.02435e-06
1.46156e-06
3.69028e-06
1.59429e-06
3.30716e-06
1.65154e-06
2.90093e-06
1.64407e-06
2.5072e-06
1.59181e-06
2.15229e-06
1.51337e-06
1.84742e-06
1.42222e-06
1.59275e-06
1.32688e-06
1.38291e-06
1.23221e-06
1.21082e-06
1.14079e-06
1.06957e-06
1.0538e-06
9.53187e-07
9.71648e-07
8.56774e-07
8.94296e-07
7.7643e-07
8.21492e-07
7.09079e-07
7.52883e-07
6.52311e-07
6.88076e-07
6.04231e-07
6.26679e-07
5.63348e-07
5.68314e-07
5.28482e-07
5.12628e-07
4.98693e-07
4.59298e-07
4.73232e-07
4.08023e-07
4.51496e-07
3.5853e-07
4.32999e-07
3.10568e-07
4.17352e-07
2.63905e-07
4.0424e-07
2.18326e-07
3.9341e-07
1.7363e-07
3.8466e-07
1.29627e-07
3.77836e-07
8.6137e-08
3.72816e-07
4.29845e-08
3.69516e-07
3.67879e-07
-4.62869e-08
4.14166e-07
-9.27437e-08
4.15973e-07
-1.39542e-07
4.19614e-07
-1.86857e-07
4.25151e-07
-2.3487e-07
4.32673e-07
-2.83769e-07
4.42308e-07
-3.33751e-07
4.54222e-07
-3.85026e-07
4.68627e-07
-4.37814e-07
4.85787e-07
-4.92352e-07
5.06033e-07
-5.48889e-07
5.2977e-07
-6.07693e-07
5.57497e-07
-6.69043e-07
5.89831e-07
-7.33225e-07
6.2753e-07
-8.00526e-07
6.71533e-07
-8.71215e-07
7.22999e-07
-9.45509e-07
7.83373e-07
-1.02353e-06
8.54446e-07
-1.10519e-06
9.38442e-07
-1.19011e-06
1.03811e-06
-1.27732e-06
1.15678e-06
-1.36496e-06
1.29845e-06
-1.44971e-06
1.46766e-06
-1.52613e-06
1.66916e-06
-1.58579e-06
1.90709e-06
-1.61683e-06
2.18333e-06
-1.60464e-06
2.49501e-06
-1.53528e-06
2.83157e-06
-1.40183e-06
3.17372e-06
-1.20904e-06
3.49748e-06
-9.67804e-07
3.78311e-06
-6.86866e-07
4.01851e-06
-5.50517e-07
1.84253e-06
-4.07479e-07
1.87126e-06
-2.5835e-07
1.89326e-06
-1.04339e-07
1.90774e-06
5.17331e-08
1.91307e-06
1.74463e-08
-2.83253e-07
-2.54712e-07
-2.31764e-05
2.18046e-18
-2.72282e-05
2.54712e-07
-2.72282e-05
-1.74463e-08
-2.31764e-05
-5.17331e-08
-2.83253e-07
1.04339e-07
1.91307e-06
2.5835e-07
1.90774e-06
4.07479e-07
1.89326e-06
5.50517e-07
1.87126e-06
6.86866e-07
1.84253e-06
9.67804e-07
4.01851e-06
1.20904e-06
3.78311e-06
1.40183e-06
3.49748e-06
1.53528e-06
3.17372e-06
1.60464e-06
2.83157e-06
1.61683e-06
2.49501e-06
1.58579e-06
2.18333e-06
1.52613e-06
1.90709e-06
1.44971e-06
1.66916e-06
1.36496e-06
1.46766e-06
1.27732e-06
1.29845e-06
1.19011e-06
1.15678e-06
1.10519e-06
1.03811e-06
1.02353e-06
9.38442e-07
9.45509e-07
8.54446e-07
8.71215e-07
7.83373e-07
8.00526e-07
7.22999e-07
7.33225e-07
6.71533e-07
6.69043e-07
6.2753e-07
6.07693e-07
5.89831e-07
5.48889e-07
5.57497e-07
4.92352e-07
5.2977e-07
4.37814e-07
5.06033e-07
3.85026e-07
4.85787e-07
3.33751e-07
4.68627e-07
2.83769e-07
4.54222e-07
2.3487e-07
4.42308e-07
1.86857e-07
4.32673e-07
1.39542e-07
4.25151e-07
9.27437e-08
4.19614e-07
4.62869e-08
4.15973e-07
4.14166e-07
-4.96272e-08
4.63794e-07
-9.94223e-08
4.65768e-07
-1.49555e-07
4.69747e-07
-2.00196e-07
4.75792e-07
-2.51523e-07
4.84e-07
-3.03716e-07
4.94502e-07
-3.56964e-07
5.0747e-07
-4.11462e-07
5.23125e-07
-4.67412e-07
5.41737e-07
-5.25024e-07
5.63645e-07