/*--------------------------------*- C++ -*----------------------------------*\
  =========                 |
  \\      /  F ield         | OpenFOAM: The Open Source CFD Toolbox
   \\    /   O peration     | Website:  https://openfoam.org
    \\  /    A nd           | Version:  10
     \\/     M anipulation  |
\*---------------------------------------------------------------------------*/
FoamFile
{
    format      ascii;
    class       volVectorField;
    location    "9400";
    object      Ua;
}
// * * * * * * * * * * * * * * * * * * * * * * * * * * * * * * * * * * * * * //

dimensions      [0 1 -1 0 0 0 0];

internalField   nonuniform List<vector> 
6400
(
(-2.41112e-07 4.90106e-08 0)
(-7.24488e-07 4.92446e-08 0)
(-1.21134e-06 4.97169e-08 0)
(-1.70405e-06 5.04366e-08 0)
(-2.20513e-06 5.14175e-08 0)
(-2.71724e-06 5.26792e-08 0)
(-3.24328e-06 5.42476e-08 0)
(-3.78642e-06 5.61564e-08 0)
(-4.35023e-06 5.84486e-08 0)
(-4.93875e-06 6.1179e-08 0)
(-5.55663e-06 6.4417e-08 0)
(-6.2093e-06 6.82516e-08 0)
(-6.9032e-06 7.27967e-08 0)
(-7.64605e-06 7.82004e-08 0)
(-8.44724e-06 8.46573e-08 0)
(-9.31842e-06 9.24266e-08 0)
(-1.02742e-05 1.0186e-07 0)
(-1.13335e-05 1.13448e-07 0)
(-1.25207e-05 1.27883e-07 0)
(-1.3869e-05 1.46185e-07 0)
(-1.5424e-05 1.69902e-07 0)
(-1.72511e-05 2.01493e-07 0)
(-1.9448e-05 2.45068e-07 0)
(-2.21686e-05 3.07933e-07 0)
(-2.56702e-05 4.0383e-07 0)
(-3.03969e-05 5.56975e-07 0)
(-3.67446e-05 7.33313e-07 0)
(-3.19952e-05 -1.69447e-06 0)
(-1.21626e-05 3.28206e-05 0)
(-4.3154e-07 1.83879e-06 0)
(-1.32695e-07 5.63795e-07 0)
(-7.4977e-08 3.16774e-07 0)
(-5.62568e-08 2.23744e-07 0)
(-4.85476e-08 1.97456e-07 0)
(-4.21338e-08 1.77488e-07 0)
(-3.60783e-08 1.62326e-07 0)
(-2.96224e-08 1.50745e-07 0)
(-2.22779e-08 1.42647e-07 0)
(-1.38527e-08 1.37828e-07 0)
(-4.6807e-09 1.34009e-07 0)
(4.6807e-09 1.34009e-07 0)
(1.38527e-08 1.37828e-07 0)
(2.22779e-08 1.42647e-07 0)
(2.96224e-08 1.50745e-07 0)
(3.60783e-08 1.62326e-07 0)
(4.21338e-08 1.77488e-07 0)
(4.85476e-08 1.97456e-07 0)
(5.62568e-08 2.23744e-07 0)
(7.4977e-08 3.16774e-07 0)
(1.32695e-07 5.63795e-07 0)
(4.3154e-07 1.83879e-06 0)
(1.21626e-05 3.28206e-05 0)
(3.19952e-05 -1.69447e-06 0)
(3.67446e-05 7.33313e-07 0)
(3.03969e-05 5.56975e-07 0)
(2.56702e-05 4.0383e-07 0)
(2.21686e-05 3.07933e-07 0)
(1.9448e-05 2.45068e-07 0)
(1.72511e-05 2.01493e-07 0)
(1.5424e-05 1.69902e-07 0)
(1.3869e-05 1.46185e-07 0)
(1.25207e-05 1.27883e-07 0)
(1.13335e-05 1.13448e-07 0)
(1.02742e-05 1.0186e-07 0)
(9.31842e-06 9.24266e-08 0)
(8.44724e-06 8.46573e-08 0)
(7.64605e-06 7.82004e-08 0)
(6.9032e-06 7.27967e-08 0)
(6.2093e-06 6.82516e-08 0)
(5.55663e-06 6.4417e-08 0)
(4.93875e-06 6.1179e-08 0)
(4.35023e-06 5.84486e-08 0)
(3.78642e-06 5.61564e-08 0)
(3.24328e-06 5.42476e-08 0)
(2.71724e-06 5.26792e-08 0)
(2.20513e-06 5.14175e-08 0)
(1.70405e-06 5.04366e-08 0)
(1.21134e-06 4.97169e-08 0)
(7.24488e-07 4.92446e-08 0)
(2.41112e-07 4.90106e-08 0)
(-2.41062e-07 1.51766e-07 0)
(-7.24337e-07 1.52491e-07 0)
(-1.21108e-06 1.53953e-07 0)
(-1.70369e-06 1.56181e-07 0)
(-2.20465e-06 1.59218e-07 0)
(-2.71664e-06 1.63124e-07 0)
(-3.24254e-06 1.67979e-07 0)
(-3.78553e-06 1.73888e-07 0)
(-4.34916e-06 1.80984e-07 0)
(-4.93748e-06 1.89436e-07 0)
(-5.55512e-06 1.9946e-07 0)
(-6.20752e-06 2.11329e-07 0)
(-6.90108e-06 2.25398e-07 0)
(-7.64352e-06 2.42123e-07 0)
(-8.44421e-06 2.62106e-07 0)
(-9.31475e-06 2.8615e-07 0)
(-1.02698e-05 3.15342e-07 0)
(-1.13279e-05 3.51192e-07 0)
(-1.25137e-05 3.95847e-07 0)
(-1.38601e-05 4.52452e-07 0)
(-1.54122e-05 5.25784e-07 0)
(-1.72351e-05 6.2342e-07 0)
(-1.94254e-05 7.58015e-07 0)
(-2.21347e-05 9.52045e-07 0)
(-2.56171e-05 1.24787e-06 0)
(-3.03267e-05 1.72375e-06 0)
(-3.72251e-05 2.39483e-06 0)
(-5.65799e-05 -1.97368e-09 0)
(-3.90092e-05 5.05372e-05 0)
(-3.36433e-06 1.42176e-05 0)
(-3.49084e-07 1.05052e-06 0)
(-1.80888e-07 5.41934e-07 0)
(-1.34386e-07 3.78243e-07 0)
(-1.15522e-07 3.31628e-07 0)
(-1.00627e-07 2.96782e-07 0)
(-8.70011e-08 2.70399e-07 0)
(-7.24516e-08 2.50273e-07 0)
(-5.52014e-08 2.36266e-07 0)
(-3.46131e-08 2.27785e-07 0)
(-1.17421e-08 2.21423e-07 0)
(1.17421e-08 2.21423e-07 0)
(3.46131e-08 2.27785e-07 0)
(5.52014e-08 2.36266e-07 0)
(7.24516e-08 2.50273e-07 0)
(8.70011e-08 2.70399e-07 0)
(1.00627e-07 2.96782e-07 0)
(1.15522e-07 3.31628e-07 0)
(1.34386e-07 3.78243e-07 0)
(1.80888e-07 5.41934e-07 0)
(3.49084e-07 1.05052e-06 0)
(3.36433e-06 1.42176e-05 0)
(3.90092e-05 5.05372e-05 0)
(5.65799e-05 -1.97368e-09 0)
(3.72251e-05 2.39483e-06 0)
(3.03267e-05 1.72375e-06 0)
(2.56171e-05 1.24787e-06 0)
(2.21347e-05 9.52045e-07 0)
(1.94254e-05 7.58015e-07 0)
(1.72351e-05 6.2342e-07 0)
(1.54122e-05 5.25784e-07 0)
(1.38601e-05 4.52452e-07 0)
(1.25137e-05 3.95847e-07 0)
(1.13279e-05 3.51192e-07 0)
(1.02698e-05 3.15342e-07 0)
(9.31475e-06 2.8615e-07 0)
(8.44421e-06 2.62106e-07 0)
(7.64352e-06 2.42123e-07 0)
(6.90108e-06 2.25398e-07 0)
(6.20752e-06 2.11329e-07 0)
(5.55512e-06 1.9946e-07 0)
(4.93748e-06 1.89436e-07 0)
(4.34916e-06 1.80984e-07 0)
(3.78553e-06 1.73888e-07 0)
(3.24254e-06 1.67979e-07 0)
(2.71664e-06 1.63124e-07 0)
(2.20465e-06 1.59218e-07 0)
(1.70369e-06 1.56181e-07 0)
(1.21108e-06 1.53953e-07 0)
(7.24337e-07 1.52491e-07 0)
(2.41062e-07 1.51766e-07 0)
(-2.40948e-07 2.64432e-07 0)
(-7.23991e-07 2.65694e-07 0)
(-1.2105e-06 2.6824e-07 0)
(-1.70286e-06 2.7212e-07 0)
(-2.20356e-06 2.77408e-07 0)
(-2.71525e-06 2.8421e-07 0)
(-3.24084e-06 2.92666e-07 0)
(-3.78347e-06 3.02955e-07 0)
(-4.3467e-06 3.15311e-07 0)
(-4.93455e-06 3.30027e-07 0)
(-5.55166e-06 3.47479e-07 0)
(-6.20341e-06 3.68142e-07 0)
(-6.89621e-06 3.92631e-07 0)
(-7.63771e-06 4.21741e-07 0)
(-8.43724e-06 4.56518e-07 0)
(-9.30633e-06 4.98352e-07 0)
(-1.02595e-05 5.49134e-07 0)
(-1.13152e-05 6.1148e-07 0)
(-1.24977e-05 6.89111e-07 0)
(-1.38395e-05 7.87469e-07 0)
(-1.53852e-05 9.14811e-07 0)
(-1.71984e-05 1.0842e-06 0)
(-1.93734e-05 1.31742e-06 0)
(-2.20573e-05 1.65302e-06 0)
(-2.54949e-05 2.1639e-06 0)
(-3.01356e-05 2.99257e-06 0)
(-3.71022e-05 4.36761e-06 0)
(-5.33123e-05 6.30438e-06 0)
(-4.84032e-05 4.78026e-05 0)
(-1.68256e-05 4.07932e-05 0)
(-1.26281e-06 4.84851e-06 0)
(-3.46801e-07 1.14958e-06 0)
(-2.41173e-07 7.4656e-07 0)
(-2.04431e-07 6.43501e-07 0)
(-1.78631e-07 5.70504e-07 0)
(-1.56703e-07 5.17655e-07 0)
(-1.33314e-07 4.78282e-07 0)
(-1.03447e-07 4.51645e-07 0)
(-6.55638e-08 4.35567e-07 0)
(-2.23373e-08 4.24114e-07 0)
(2.23373e-08 4.24114e-07 0)
(6.55638e-08 4.35567e-07 0)
(1.03447e-07 4.51645e-07 0)
(1.33314e-07 4.78282e-07 0)
(1.56703e-07 5.17655e-07 0)
(1.78631e-07 5.70504e-07 0)
(2.04431e-07 6.43501e-07 0)
(2.41173e-07 7.4656e-07 0)
(3.46801e-07 1.14958e-06 0)
(1.26281e-06 4.84851e-06 0)
(1.68256e-05 4.07932e-05 0)
(4.84032e-05 4.78026e-05 0)
(5.33123e-05 6.30438e-06 0)
(3.71022e-05 4.36761e-06 0)
(3.01356e-05 2.99257e-06 0)
(2.54949e-05 2.1639e-06 0)
(2.20573e-05 1.65302e-06 0)
(1.93734e-05 1.31742e-06 0)
(1.71984e-05 1.0842e-06 0)
(1.53852e-05 9.14811e-07 0)
(1.38395e-05 7.87469e-07 0)
(1.24977e-05 6.89111e-07 0)
(1.13152e-05 6.1148e-07 0)
(1.02595e-05 5.49134e-07 0)
(9.30633e-06 4.98352e-07 0)
(8.43724e-06 4.56518e-07 0)
(7.63771e-06 4.21741e-07 0)
(6.89621e-06 3.92631e-07 0)
(6.20341e-06 3.68142e-07 0)
(5.55166e-06 3.47479e-07 0)
(4.93455e-06 3.30027e-07 0)
(4.3467e-06 3.15311e-07 0)
(3.78347e-06 3.02955e-07 0)
(3.24084e-06 2.92666e-07 0)
(2.71525e-06 2.8421e-07 0)
(2.20356e-06 2.77408e-07 0)
(1.70286e-06 2.7212e-07 0)
(1.2105e-06 2.6824e-07 0)
(7.23991e-07 2.65694e-07 0)
(2.40948e-07 2.64432e-07 0)
(-2.4075e-07 3.87926e-07 0)
(-7.23394e-07 3.89775e-07 0)
(-1.20949e-06 3.93507e-07 0)
(-1.70142e-06 3.99195e-07 0)
(-2.20166e-06 4.06946e-07 0)
(-2.71286e-06 4.16915e-07 0)
(-3.2379e-06 4.29307e-07 0)
(-3.77992e-06 4.44387e-07 0)
(-4.34246e-06 4.62493e-07 0)
(-4.92951e-06 4.84055e-07 0)
(-5.54569e-06 5.09623e-07 0)
(-6.19634e-06 5.39892e-07 0)
(-6.88781e-06 5.7576e-07 0)
(-7.6277e-06 6.18387e-07 0)
(-8.42524e-06 6.69299e-07 0)
(-9.29183e-06 7.30526e-07 0)
(-1.02417e-05 8.04819e-07 0)
(-1.12933e-05 8.95989e-07 0)
(-1.24702e-05 1.00944e-06 0)
(-1.38042e-05 1.15306e-06 0)
(-1.53388e-05 1.3388e-06 0)
(-1.71355e-05 1.5855e-06 0)
(-1.92845e-05 1.92441e-06 0)
(-2.19252e-05 2.41062e-06 0)
(-2.52855e-05 3.14819e-06 0)
(-2.97802e-05 4.34866e-06 0)
(-3.63879e-05 6.4874e-06 0)
(-4.84064e-05 1.13721e-05 0)
(-4.84999e-05 4.15595e-05 0)
(-2.92138e-05 5.19303e-05 0)
(-9.73576e-06 2.83151e-05 0)
(-1.06232e-06 3.65976e-06 0)
(-4.30474e-07 1.3729e-06 0)
(-3.35533e-07 1.09138e-06 0)
(-2.88553e-07 9.34234e-07 0)
(-2.56293e-07 8.35858e-07 0)
(-2.24185e-07 7.65439e-07 0)
(-1.78043e-07 7.1972e-07 0)
(-1.14206e-07 6.9271e-07 0)
(-3.9036e-08 6.75406e-07 0)
(3.9036e-08 6.75406e-07 0)
(1.14206e-07 6.9271e-07 0)
(1.78043e-07 7.1972e-07 0)
(2.24185e-07 7.65439e-07 0)
(2.56293e-07 8.35858e-07 0)
(2.88553e-07 9.34234e-07 0)
(3.35533e-07 1.09138e-06 0)
(4.30474e-07 1.3729e-06 0)
(1.06232e-06 3.65976e-06 0)
(9.73576e-06 2.83151e-05 0)
(2.92138e-05 5.19303e-05 0)
(4.84999e-05 4.15595e-05 0)
(4.84064e-05 1.13721e-05 0)
(3.63879e-05 6.4874e-06 0)
(2.97802e-05 4.34866e-06 0)
(2.52855e-05 3.14819e-06 0)
(2.19252e-05 2.41062e-06 0)
(1.92845e-05 1.92441e-06 0)
(1.71355e-05 1.5855e-06 0)
(1.53388e-05 1.3388e-06 0)
(1.38042e-05 1.15306e-06 0)
(1.24702e-05 1.00944e-06 0)
(1.12933e-05 8.95989e-07 0)
(1.02417e-05 8.04819e-07 0)
(9.29183e-06 7.30526e-07 0)
(8.42524e-06 6.69299e-07 0)
(7.6277e-06 6.18387e-07 0)
(6.88781e-06 5.7576e-07 0)
(6.19634e-06 5.39892e-07 0)
(5.54569e-06 5.09623e-07 0)
(4.92951e-06 4.84055e-07 0)
(4.34246e-06 4.62493e-07 0)
(3.77992e-06 4.44387e-07 0)
(3.2379e-06 4.29307e-07 0)
(2.71286e-06 4.16915e-07 0)
(2.20166e-06 4.06946e-07 0)
(1.70142e-06 3.99195e-07 0)
(1.20949e-06 3.93507e-07 0)
(7.23394e-07 3.89775e-07 0)
(2.4075e-07 3.87926e-07 0)
(-2.40447e-07 5.23234e-07 0)
(-7.22479e-07 5.25725e-07 0)
(-1.20795e-06 5.30754e-07 0)
(-1.69922e-06 5.38414e-07 0)
(-2.19876e-06 5.48855e-07 0)
(-2.7092e-06 5.62283e-07 0)
(-3.23339e-06 5.78972e-07 0)
(-3.77448e-06 5.99279e-07 0)
(-4.33596e-06 6.23659e-07 0)
(-4.92179e-06 6.52689e-07 0)
(-5.53654e-06 6.87105e-07 0)
(-6.1855e-06 7.27841e-07 0)
(-6.87495e-06 7.761e-07 0)
(-7.61238e-06 8.33436e-07 0)
(-8.40687e-06 9.0189e-07 0)
(-9.26963e-06 9.84175e-07 0)
(-1.02147e-05 1.08396e-06 0)
(-1.12598e-05 1.20633e-06 0)
(-1.24281e-05 1.35846e-06 0)
(-1.37503e-05 1.55082e-06 0)
(-1.52681e-05 1.79917e-06 0)
(-1.70398e-05 2.12825e-06 0)
(-1.915e-05 2.57886e-06 0)
(-2.1726e-05 3.22226e-06 0)
(-2.49702e-05 4.19222e-06 0)
(-2.9231e-05 5.76367e-06 0)
(-3.51964e-05 8.5996e-06 0)
(-4.3925e-05 1.50513e-05 0)
(-4.35283e-05 3.77887e-05 0)
(-3.15467e-05 4.70037e-05 0)
(-2.07e-05 4.71581e-05 0)
(-9.4558e-06 2.60828e-05 0)
(-1.80219e-06 4.03487e-06 0)
(-7.52814e-07 2.39257e-06 0)
(-5.12802e-07 1.61083e-06 0)
(-4.25234e-07 1.30877e-06 0)
(-3.76673e-07 1.14447e-06 0)
(-3.05118e-07 1.05395e-06 0)
(-1.97411e-07 1.00545e-06 0)
(-6.73664e-08 9.81036e-07 0)
(6.73664e-08 9.81036e-07 0)
(1.97411e-07 1.00545e-06 0)
(3.05118e-07 1.05395e-06 0)
(3.76673e-07 1.14447e-06 0)
(4.25234e-07 1.30877e-06 0)
(5.12802e-07 1.61083e-06 0)
(7.52814e-07 2.39257e-06 0)
(1.80219e-06 4.03487e-06 0)
(9.4558e-06 2.60828e-05 0)
(2.07e-05 4.71581e-05 0)
(3.15467e-05 4.70037e-05 0)
(4.35283e-05 3.77887e-05 0)
(4.3925e-05 1.50513e-05 0)
(3.51964e-05 8.5996e-06 0)
(2.9231e-05 5.76367e-06 0)
(2.49702e-05 4.19222e-06 0)
(2.1726e-05 3.22226e-06 0)
(1.915e-05 2.57886e-06 0)
(1.70398e-05 2.12825e-06 0)
(1.52681e-05 1.79917e-06 0)
(1.37503e-05 1.55082e-06 0)
(1.24281e-05 1.35846e-06 0)
(1.12598e-05 1.20633e-06 0)
(1.02147e-05 1.08396e-06 0)
(9.26963e-06 9.84175e-07 0)
(8.40687e-06 9.0189e-07 0)
(7.61238e-06 8.33436e-07 0)
(6.87495e-06 7.761e-07 0)
(6.1855e-06 7.27841e-07 0)
(5.53654e-06 6.87105e-07 0)
(4.92179e-06 6.52689e-07 0)
(4.33596e-06 6.23659e-07 0)
(3.77448e-06 5.99279e-07 0)
(3.23339e-06 5.78972e-07 0)
(2.7092e-06 5.62283e-07 0)
(2.19876e-06 5.48855e-07 0)
(1.69922e-06 5.38414e-07 0)
(1.20795e-06 5.30754e-07 0)
(7.22479e-07 5.25725e-07 0)
(2.40447e-07 5.23234e-07 0)
(-2.40011e-07 6.71415e-07 0)
(-7.21164e-07 6.74605e-07 0)
(-1.20573e-06 6.81046e-07 0)
(-1.69605e-06 6.90858e-07 0)
(-2.19458e-06 7.0423e-07 0)
(-2.70393e-06 7.21425e-07 0)
(-3.22692e-06 7.42795e-07 0)
(-3.76666e-06 7.68794e-07 0)
(-4.32661e-06 8.00001e-07 0)
(-4.91069e-06 8.37154e-07 0)
(-5.52339e-06 8.81189e-07 0)
(-6.16994e-06 9.33295e-07 0)
(-6.85649e-06 9.95001e-07 0)
(-7.59039e-06 1.06828e-06 0)
(-8.38053e-06 1.15573e-06 0)
(-9.23782e-06 1.26077e-06 0)
(-1.01759e-05 1.38806e-06 0)
(-1.12118e-05 1.54398e-06 0)
(-1.2368e-05 1.73757e-06 0)
(-1.36735e-05 1.98192e-06 0)
(-1.51675e-05 2.29666e-06 0)
(-1.69042e-05 2.71236e-06 0)
(-1.89602e-05 3.27891e-06 0)
(-2.14469e-05 4.08243e-06 0)
(-2.45322e-05 5.28197e-06 0)
(-2.8474e-05 7.19932e-06 0)
(-3.36388e-05 1.05854e-05 0)
(-3.98376e-05 1.76335e-05 0)
(-3.91263e-05 3.48603e-05 0)
(-3.00503e-05 4.34788e-05 0)
(-2.17991e-05 4.48298e-05 0)
(-1.52637e-05 4.52838e-05 0)
(-3.31153e-05 2.1786e-05 0)
(-2.96276e-05 3.78638e-05 0)
(-3.16092e-06 4.35487e-06 0)
(-1.1308e-06 2.63544e-06 0)
(-7.44991e-07 1.83985e-06 0)
(-5.65282e-07 1.50751e-06 0)
(-3.5977e-07 1.38895e-06 0)
(-1.20677e-07 1.35609e-06 0)
(1.20677e-07 1.35609e-06 0)
(3.5977e-07 1.38895e-06 0)
(5.65282e-07 1.50751e-06 0)
(7.44991e-07 1.83985e-06 0)
(1.1308e-06 2.63544e-06 0)
(3.16092e-06 4.35487e-06 0)
(2.96276e-05 3.78638e-05 0)
(3.31153e-05 2.1786e-05 0)
(1.52637e-05 4.52838e-05 0)
(2.17991e-05 4.48298e-05 0)
(3.00503e-05 4.34788e-05 0)
(3.91263e-05 3.48603e-05 0)
(3.98376e-05 1.76335e-05 0)
(3.36388e-05 1.05854e-05 0)
(2.8474e-05 7.19932e-06 0)
(2.45322e-05 5.28197e-06 0)
(2.14469e-05 4.08243e-06 0)
(1.89602e-05 3.27891e-06 0)
(1.69042e-05 2.71236e-06 0)
(1.51675e-05 2.29666e-06 0)
(1.36735e-05 1.98192e-06 0)
(1.2368e-05 1.73757e-06 0)
(1.12118e-05 1.54398e-06 0)
(1.01759e-05 1.38806e-06 0)
(9.23782e-06 1.26077e-06 0)
(8.38053e-06 1.15573e-06 0)
(7.59039e-06 1.06828e-06 0)
(6.85649e-06 9.95001e-07 0)
(6.16994e-06 9.33295e-07 0)
(5.52339e-06 8.81189e-07 0)
(4.91069e-06 8.37154e-07 0)
(4.32661e-06 8.00001e-07 0)
(3.76666e-06 7.68794e-07 0)
(3.22692e-06 7.42795e-07 0)
(2.70393e-06 7.21425e-07 0)
(2.19458e-06 7.0423e-07 0)
(1.69605e-06 6.90858e-07 0)
(1.20573e-06 6.81046e-07 0)
(7.21164e-07 6.74605e-07 0)
(2.40011e-07 6.71415e-07 0)
(-2.3941e-07 8.33589e-07 0)
(-7.19349e-07 8.3754e-07 0)
(-1.20267e-06 8.45516e-07 0)
(-1.69168e-06 8.57667e-07 0)
(-2.18882e-06 8.74224e-07 0)
(-2.69666e-06 8.95514e-07 0)
(-3.218e-06 9.21967e-07 0)
(-3.75589e-06 9.54145e-07 0)
(-4.31374e-06 9.92759e-07 0)
(-4.8954e-06 1.03872e-06 0)
(-5.50528e-06 1.09317e-06 0)
(-6.14851e-06 1.15758e-06 0)
(-6.83107e-06 1.23381e-06 0)
(-7.56014e-06 1.3243e-06 0)
(-8.34431e-06 1.43219e-06 0)
(-9.19411e-06 1.56168e-06 0)
(-1.01226e-05 1.71842e-06 0)
(-1.11462e-05 1.91015e-06 0)
(-1.22858e-05 2.14777e-06 0)
(-1.35686e-05 2.44698e-06 0)
(-1.50307e-05 2.83115e-06 0)
(-1.67207e-05 3.33634e-06 0)
(-1.87049e-05 4.02056e-06 0)
(-2.10754e-05 4.98213e-06 0)
(-2.39582e-05 6.39803e-06 0)
(-2.75103e-05 8.61229e-06 0)
(-3.18174e-05 1.23632e-05 0)
(-3.61088e-05 1.93746e-05 0)
(-3.52113e-05 3.2572e-05 0)
(-2.8319e-05 4.03992e-05 0)
(-2.14001e-05 4.27983e-05 0)
(-1.6816e-05 4.35842e-05 0)
(-1.89736e-05 4.03688e-05 0)
(-1.05457e-05 6.25126e-05 0)
(-1.95108e-05 2.3684e-05 0)
(-2.27057e-05 2.73937e-05 0)
(-3.23185e-06 4.03669e-06 0)
(-1.43226e-06 2.34214e-06 0)
(-7.59107e-07 1.87445e-06 0)
(-2.39312e-07 1.84657e-06 0)
(2.39312e-07 1.84657e-06 0)
(7.59107e-07 1.87445e-06 0)
(1.43226e-06 2.34214e-06 0)
(3.23185e-06 4.03669e-06 0)
(2.27057e-05 2.73937e-05 0)
(1.95108e-05 2.3684e-05 0)
(1.05457e-05 6.25126e-05 0)
(1.89736e-05 4.03688e-05 0)
(1.6816e-05 4.35842e-05 0)
(2.14001e-05 4.27983e-05 0)
(2.8319e-05 4.03992e-05 0)
(3.52113e-05 3.2572e-05 0)
(3.61088e-05 1.93746e-05 0)
(3.18174e-05 1.23632e-05 0)
(2.75103e-05 8.61229e-06 0)
(2.39582e-05 6.39803e-06 0)
(2.10754e-05 4.98213e-06 0)
(1.87049e-05 4.02056e-06 0)
(1.67207e-05 3.33634e-06 0)
(1.50307e-05 2.83115e-06 0)
(1.35686e-05 2.44698e-06 0)
(1.22858e-05 2.14777e-06 0)
(1.11462e-05 1.91015e-06 0)
(1.01226e-05 1.71842e-06 0)
(9.19411e-06 1.56168e-06 0)
(8.34431e-06 1.43219e-06 0)
(7.56014e-06 1.3243e-06 0)
(6.83107e-06 1.23381e-06 0)
(6.14851e-06 1.15758e-06 0)
(5.50528e-06 1.09317e-06 0)
(4.8954e-06 1.03872e-06 0)
(4.31374e-06 9.92759e-07 0)
(3.75589e-06 9.54145e-07 0)
(3.218e-06 9.21967e-07 0)
(2.69666e-06 8.95514e-07 0)
(2.18882e-06 8.74224e-07 0)
(1.69168e-06 8.57667e-07 0)
(1.20267e-06 8.45516e-07 0)
(7.19349e-07 8.3754e-07 0)
(2.3941e-07 8.33589e-07 0)
(-2.38603e-07 1.01094e-06 0)
(-7.16914e-07 1.01572e-06 0)
(-1.19856e-06 1.02536e-06 0)
(-1.68582e-06 1.04004e-06 0)
(-2.18109e-06 1.06005e-06 0)
(-2.68692e-06 1.08577e-06 0)
(-3.20603e-06 1.11773e-06 0)
(-3.74144e-06 1.15659e-06 0)
(-4.29648e-06 1.2032e-06 0)
(-4.87492e-06 1.25867e-06 0)
(-5.48104e-06 1.32435e-06 0)
(-6.11983e-06 1.402e-06 0)
(-6.79709e-06 1.49386e-06 0)
(-7.51971e-06 1.60279e-06 0)
(-8.29596e-06 1.73255e-06 0)
(-9.13585e-06 1.88811e-06 0)
(-1.00517e-05 2.07612e-06 0)
(-1.10589e-05 2.30567e-06 0)
(-1.21768e-05 2.58949e-06 0)
(-1.34301e-05 2.94577e-06 0)
(-1.48508e-05 3.40132e-06 0)
(-1.64807e-05 3.99695e-06 0)
(-1.83742e-05 4.79721e-06 0)
(-2.06007e-05 5.90872e-06 0)
(-2.32408e-05 7.51651e-06 0)
(-2.6354e-05 9.95941e-06 0)
(-2.98218e-05 1.38866e-05 0)
(-3.27003e-05 2.04874e-05 0)
(-3.17043e-05 3.0755e-05 0)
(-2.64235e-05 3.77271e-05 0)
(-2.0656e-05 4.0783e-05 0)
(-1.6473e-05 4.23534e-05 0)
(-1.49826e-05 4.35543e-05 0)
(-1.16683e-05 4.97213e-05 0)
(-1.10304e-05 4.3178e-05 0)
(-1.42881e-05 5.1522e-05 0)
(-1.06787e-05 2.05419e-05 0)
(-4.6568e-06 4.9345e-06 0)
(-1.90412e-06 2.41802e-06 0)
(-5.51266e-07 2.51673e-06 0)
(5.51266e-07 2.51673e-06 0)
(1.90412e-06 2.41802e-06 0)
(4.6568e-06 4.9345e-06 0)
(1.06787e-05 2.05419e-05 0)
(1.42881e-05 5.1522e-05 0)
(1.10304e-05 4.3178e-05 0)
(1.16683e-05 4.97213e-05 0)
(1.49826e-05 4.35543e-05 0)
(1.6473e-05 4.23534e-05 0)
(2.0656e-05 4.0783e-05 0)
(2.64235e-05 3.77271e-05 0)
(3.17043e-05 3.0755e-05 0)
(3.27003e-05 2.04874e-05 0)
(2.98218e-05 1.38866e-05 0)
(2.6354e-05 9.95941e-06 0)
(2.32408e-05 7.51651e-06 0)
(2.06007e-05 5.90872e-06 0)
(1.83742e-05 4.79721e-06 0)
(1.64807e-05 3.99695e-06 0)
(1.48508e-05 3.40132e-06 0)
(1.34301e-05 2.94577e-06 0)
(1.21768e-05 2.58949e-06 0)
(1.10589e-05 2.30567e-06 0)
(1.00517e-05 2.07612e-06 0)
(9.13585e-06 1.88811e-06 0)
(8.29596e-06 1.73255e-06 0)
(7.51971e-06 1.60279e-06 0)
(6.79709e-06 1.49386e-06 0)
(6.11983e-06 1.402e-06 0)
(5.48104e-06 1.32435e-06 0)
(4.87492e-06 1.25867e-06 0)
(4.29648e-06 1.2032e-06 0)
(3.74144e-06 1.15659e-06 0)
(3.20603e-06 1.11773e-06 0)
(2.68692e-06 1.08577e-06 0)
(2.18109e-06 1.06005e-06 0)
(1.68582e-06 1.04004e-06 0)
(1.19856e-06 1.02536e-06 0)
(7.16914e-07 1.01572e-06 0)
(2.38603e-07 1.01094e-06 0)
(-2.37544e-07 1.2047e-06 0)
(-7.13717e-07 1.21037e-06 0)
(-1.19316e-06 1.2218e-06 0)
(-1.67813e-06 1.23922e-06 0)
(-2.17096e-06 1.26295e-06 0)
(-2.67413e-06 1.29345e-06 0)
(-3.19034e-06 1.33134e-06 0)
(-3.7225e-06 1.37739e-06 0)
(-4.27386e-06 1.43261e-06 0)
(-4.84808e-06 1.49828e-06 0)
(-5.4493e-06 1.57601e-06 0)
(-6.0823e-06 1.66783e-06 0)
(-6.75265e-06 1.77634e-06 0)
(-7.46691e-06 1.90491e-06 0)
(-8.23287e-06 2.05787e-06 0)
(-9.05993e-06 2.24095e-06 0)
(-9.95953e-06 2.46181e-06 0)
(-1.09457e-05 2.73082e-06 0)
(-1.20358e-05 3.06241e-06 0)
(-1.32516e-05 3.47701e-06 0)
(-1.46204e-05 4.00434e-06 0)
(-1.61758e-05 4.68889e-06 0)
(-1.79589e-05 5.59946e-06 0)
(-2.00147e-05 6.84606e-06 0)
(-2.23792e-05 8.6107e-06 0)
(-2.50298e-05 1.12022e-05 0)
(-2.77261e-05 1.51379e-05 0)
(-2.95738e-05 2.11401e-05 0)
(-2.85347e-05 2.92732e-05 0)
(-2.44214e-05 3.54077e-05 0)
(-1.95894e-05 3.88063e-05 0)
(-1.55335e-05 4.09796e-05 0)
(-1.30363e-05 4.29515e-05 0)
(-1.07704e-05 4.52587e-05 0)
(-8.64784e-06 4.50502e-05 0)
(-4.92933e-06 4.89335e-05 0)
(-5.15502e-06 3.88145e-05 0)
(-6.47515e-06 7.35172e-06 0)
(-3.26576e-06 2.78716e-06 0)
(-1.04267e-06 3.10812e-06 0)
(1.04267e-06 3.10812e-06 0)
(3.26576e-06 2.78716e-06 0)
(6.47515e-06 7.35172e-06 0)
(5.15502e-06 3.88145e-05 0)
(4.92933e-06 4.89335e-05 0)
(8.64784e-06 4.50502e-05 0)
(1.07704e-05 4.52587e-05 0)
(1.30363e-05 4.29515e-05 0)
(1.55335e-05 4.09796e-05 0)
(1.95894e-05 3.88063e-05 0)
(2.44214e-05 3.54077e-05 0)
(2.85347e-05 2.92732e-05 0)
(2.95738e-05 2.11401e-05 0)
(2.77261e-05 1.51379e-05 0)
(2.50298e-05 1.12022e-05 0)
(2.23792e-05 8.6107e-06 0)
(2.00147e-05 6.84606e-06 0)
(1.79589e-05 5.59946e-06 0)
(1.61758e-05 4.68889e-06 0)
(1.46204e-05 4.00434e-06 0)
(1.32516e-05 3.47701e-06 0)
(1.20358e-05 3.06241e-06 0)
(1.09457e-05 2.73082e-06 0)
(9.95953e-06 2.46181e-06 0)
(9.05993e-06 2.24095e-06 0)
(8.23287e-06 2.05787e-06 0)
(7.46691e-06 1.90491e-06 0)
(6.75265e-06 1.77634e-06 0)
(6.0823e-06 1.66783e-06 0)
(5.4493e-06 1.57601e-06 0)
(4.84808e-06 1.49828e-06 0)
(4.27386e-06 1.43261e-06 0)
(3.7225e-06 1.37739e-06 0)
(3.19034e-06 1.33134e-06 0)
(2.67413e-06 1.29345e-06 0)
(2.17096e-06 1.26295e-06 0)
(1.67813e-06 1.23922e-06 0)
(1.19316e-06 1.2218e-06 0)
(7.13717e-07 1.21037e-06 0)
(2.37544e-07 1.2047e-06 0)
(-2.36176e-07 1.41613e-06 0)
(-7.09589e-07 1.42275e-06 0)
(-1.1862e-06 1.43612e-06 0)
(-1.6682e-06 1.45647e-06 0)
(-2.15787e-06 1.4842e-06 0)
(-2.65763e-06 1.51983e-06 0)
(-3.17009e-06 1.56406e-06 0)
(-3.69807e-06 1.6178e-06 0)
(-4.24471e-06 1.68222e-06 0)
(-4.81351e-06 1.75878e-06 0)
(-5.40844e-06 1.84931e-06 0)
(-6.03404e-06 1.95618e-06 0)
(-6.69557e-06 2.08233e-06 0)
(-7.39916e-06 2.2316e-06 0)
(-8.15206e-06 2.4089e-06 0)
(-8.96289e-06 2.62071e-06 0)
(-9.84197e-06 2.87559e-06 0)
(-1.08018e-05 3.18512e-06 0)
(-1.18573e-05 3.56519e-06 0)
(-1.30269e-05 4.03806e-06 0)
(-1.43321e-05 4.63559e-06 0)
(-1.57982e-05 5.40453e-06 0)
(-1.74515e-05 6.41508e-06 0)
(-1.93133e-05 7.77517e-06 0)
(-2.13797e-05 9.65327e-06 0)
(-2.35686e-05 1.23104e-05 0)
(-2.55887e-05 1.61211e-05 0)
(-2.66933e-05 2.14596e-05 0)
(-2.56425e-05 2.80207e-05 0)
(-2.2362e-05 3.3377e-05 0)
(-1.82721e-05 3.68697e-05 0)
(-1.43751e-05 3.93694e-05 0)
(-1.1635e-05 4.13032e-05 0)
(-9.64747e-06 4.2648e-05 0)
(-7.57021e-06 4.34449e-05 0)
(-5.33216e-06 4.46249e-05 0)
(-4.60443e-06 4.28869e-05 0)
(-4.41864e-06 7.21474e-06 0)
(-2.92736e-06 2.42517e-06 0)
(-1.07351e-06 2.8501e-06 0)
(1.07351e-06 2.8501e-06 0)
(2.92736e-06 2.42517e-06 0)
(4.41864e-06 7.21474e-06 0)
(4.60443e-06 4.28869e-05 0)
(5.33216e-06 4.46249e-05 0)
(7.57021e-06 4.34449e-05 0)
(9.64747e-06 4.2648e-05 0)
(1.1635e-05 4.13032e-05 0)
(1.43751e-05 3.93694e-05 0)
(1.82721e-05 3.68697e-05 0)
(2.2362e-05 3.3377e-05 0)
(2.56425e-05 2.80207e-05 0)
(2.66933e-05 2.14596e-05 0)
(2.55887e-05 1.61211e-05 0)
(2.35686e-05 1.23104e-05 0)
(2.13797e-05 9.65327e-06 0)
(1.93133e-05 7.77517e-06 0)
(1.74515e-05 6.41508e-06 0)
(1.57982e-05 5.40453e-06 0)
(1.43321e-05 4.63559e-06 0)
(1.30269e-05 4.03806e-06 0)
(1.18573e-05 3.56519e-06 0)
(1.08018e-05 3.18512e-06 0)
(9.84197e-06 2.87559e-06 0)
(8.96289e-06 2.62071e-06 0)
(8.15206e-06 2.4089e-06 0)
(7.39916e-06 2.2316e-06 0)
(6.69557e-06 2.08233e-06 0)
(6.03404e-06 1.95618e-06 0)
(5.40844e-06 1.84931e-06 0)
(4.81351e-06 1.75878e-06 0)
(4.24471e-06 1.68222e-06 0)
(3.69807e-06 1.6178e-06 0)
(3.17009e-06 1.56406e-06 0)
(2.65763e-06 1.51983e-06 0)
(2.15787e-06 1.4842e-06 0)
(1.6682e-06 1.45647e-06 0)
(1.1862e-06 1.43612e-06 0)
(7.09589e-07 1.42275e-06 0)
(2.36176e-07 1.41613e-06 0)
(-2.34434e-07 1.6465e-06 0)
(-7.0433e-07 1.65414e-06 0)
(-1.17733e-06 1.66957e-06 0)
(-1.65555e-06 1.69306e-06 0)
(-2.14121e-06 1.72504e-06 0)
(-2.63663e-06 1.76613e-06 0)
(-3.14433e-06 1.81711e-06 0)
(-3.66701e-06 1.87903e-06 0)
(-4.20766e-06 1.95319e-06 0)
(-4.76962e-06 2.04126e-06 0)
(-5.35661e-06 2.14532e-06 0)
(-5.97289e-06 2.26799e-06 0)
(-6.62333e-06 2.41261e-06 0)
(-7.31358e-06 2.58344e-06 0)
(-8.05019e-06 2.78595e-06 0)
(-8.84084e-06 3.02728e-06 0)
(-9.69457e-06 3.31682e-06 0)
(-1.0622e-05 3.66713e-06 0)
(-1.16355e-05 4.09524e-06 0)
(-1.27493e-05 4.62468e-06 0)
(-1.39792e-05 5.28848e-06 0)
(-1.53412e-05 6.13384e-06 0)
(-1.68473e-05 7.22933e-06 0)
(-1.84972e-05 8.67543e-06 0)
(-2.02555e-05 1.06186e-05 0)
(-2.20046e-05 1.32632e-05 0)
(-2.34536e-05 1.68538e-05 0)
(-2.40267e-05 2.15362e-05 0)
(-2.298e-05 2.69171e-05 0)
(-2.02883e-05 3.15698e-05 0)
(-1.67831e-05 3.49715e-05 0)
(-1.31109e-05 3.75668e-05 0)
(-1.03796e-05 3.93322e-05 0)
(-8.51972e-06 4.03871e-05 0)
(-6.57436e-06 4.12812e-05 0)
(-4.59169e-06 4.21522e-05 0)
(-2.84778e-06 4.26238e-05 0)
(-2.06065e-06 6.47246e-06 0)
(-1.71251e-06 1.51187e-06 0)
(-7.05481e-07 1.82929e-06 0)
(7.05481e-07 1.82929e-06 0)
(1.71251e-06 1.51187e-06 0)
(2.06065e-06 6.47246e-06 0)
(2.84778e-06 4.26238e-05 0)
(4.59169e-06 4.21522e-05 0)
(6.57436e-06 4.12812e-05 0)
(8.51972e-06 4.03871e-05 0)
(1.03796e-05 3.93322e-05 0)
(1.31109e-05 3.75668e-05 0)
(1.67831e-05 3.49715e-05 0)
(2.02883e-05 3.15698e-05 0)
(2.298e-05 2.69171e-05 0)
(2.40267e-05 2.15362e-05 0)
(2.34536e-05 1.68538e-05 0)
(2.20046e-05 1.32632e-05 0)
(2.02555e-05 1.06186e-05 0)
(1.84972e-05 8.67543e-06 0)
(1.68473e-05 7.22933e-06 0)
(1.53412e-05 6.13384e-06 0)
(1.39792e-05 5.28848e-06 0)
(1.27493e-05 4.62468e-06 0)
(1.16355e-05 4.09524e-06 0)
(1.0622e-05 3.66713e-06 0)
(9.69457e-06 3.31682e-06 0)
(8.84084e-06 3.02728e-06 0)
(8.05019e-06 2.78595e-06 0)
(7.31358e-06 2.58344e-06 0)
(6.62333e-06 2.41261e-06 0)
(5.97289e-06 2.26799e-06 0)
(5.35661e-06 2.14532e-06 0)
(4.76962e-06 2.04126e-06 0)
(4.20766e-06 1.95319e-06 0)
(3.66701e-06 1.87903e-06 0)
(3.14433e-06 1.81711e-06 0)
(2.63663e-06 1.76613e-06 0)
(2.14121e-06 1.72504e-06 0)
(1.65555e-06 1.69306e-06 0)
(1.17733e-06 1.66957e-06 0)
(7.0433e-07 1.65414e-06 0)
(2.34434e-07 1.6465e-06 0)
(-2.3224e-07 1.89705e-06 0)
(-6.97708e-07 1.90578e-06 0)
(-1.16616e-06 1.92339e-06 0)
(-1.63963e-06 1.95019e-06 0)
(-2.12024e-06 1.98668e-06 0)
(-2.61022e-06 2.03352e-06 0)
(-3.11195e-06 2.09163e-06 0)
(-3.628e-06 2.16215e-06 0)
(-4.16117e-06 2.24654e-06 0)
(-4.71459e-06 2.34666e-06 0)
(-5.2917e-06 2.4648e-06 0)
(-5.89642e-06 2.60389e-06 0)
(-6.53316e-06 2.76759e-06 0)
(-7.20696e-06 2.96055e-06 0)
(-7.92358e-06 3.18873e-06 0)
(-8.68963e-06 3.45984e-06 0)
(-9.51264e-06 3.78391e-06 0)
(-1.04011e-05 4.17423e-06 0)
(-1.13646e-05 4.64853e-06 0)
(-1.2413e-05 5.23089e-06 0)
(-1.35559e-05 5.95433e-06 0)
(-1.48002e-05 6.86463e-06 0)
(-1.61452e-05 8.02564e-06 0)
(-1.75723e-05 9.52594e-06 0)
(-1.90249e-05 1.14848e-05 0)
(-2.03717e-05 1.40496e-05 0)
(-2.13528e-05 1.73608e-05 0)
(-2.15475e-05 2.14322e-05 0)
(-2.05122e-05 2.59034e-05 0)
(-1.82376e-05 2.9927e-05 0)
(-1.51959e-05 3.31101e-05 0)
(-1.17911e-05 3.56344e-05 0)
(-9.16929e-06 3.72182e-05 0)
(-7.40183e-06 3.81236e-05 0)
(-5.53404e-06 3.89418e-05 0)
(-3.5593e-06 3.97104e-05 0)
(-1.46435e-06 4.04141e-05 0)
(-6.40118e-07 6.21039e-06 0)
(-8.72716e-07 7.96198e-07 0)
(-4.25759e-07 9.34797e-07 0)
(4.25759e-07 9.34797e-07 0)
(8.72716e-07 7.96198e-07 0)
(6.40118e-07 6.21039e-06 0)
(1.46435e-06 4.04141e-05 0)
(3.5593e-06 3.97104e-05 0)
(5.53404e-06 3.89418e-05 0)
(7.40183e-06 3.81236e-05 0)
(9.16929e-06 3.72182e-05 0)
(1.17911e-05 3.56344e-05 0)
(1.51959e-05 3.31101e-05 0)
(1.82376e-05 2.9927e-05 0)
(2.05122e-05 2.59034e-05 0)
(2.15475e-05 2.14322e-05 0)
(2.13528e-05 1.73608e-05 0)
(2.03717e-05 1.40496e-05 0)
(1.90249e-05 1.14848e-05 0)
(1.75723e-05 9.52594e-06 0)
(1.61452e-05 8.02564e-06 0)
(1.48002e-05 6.86463e-06 0)
(1.35559e-05 5.95433e-06 0)
(1.2413e-05 5.23089e-06 0)
(1.13646e-05 4.64853e-06 0)
(1.04011e-05 4.17423e-06 0)
(9.51264e-06 3.78391e-06 0)
(8.68963e-06 3.45984e-06 0)
(7.92358e-06 3.18873e-06 0)
(7.20696e-06 2.96055e-06 0)
(6.53316e-06 2.76759e-06 0)
(5.89642e-06 2.60389e-06 0)
(5.2917e-06 2.4648e-06 0)
(4.71459e-06 2.34666e-06 0)
(4.16117e-06 2.24654e-06 0)
(3.628e-06 2.16215e-06 0)
(3.11195e-06 2.09163e-06 0)
(2.61022e-06 2.03352e-06 0)
(2.12024e-06 1.98668e-06 0)
(1.63963e-06 1.95019e-06 0)
(1.16616e-06 1.92339e-06 0)
(6.97708e-07 1.90578e-06 0)
(2.3224e-07 1.89705e-06 0)
(-2.29506e-07 2.16894e-06 0)
(-6.89459e-07 2.17881e-06 0)
(-1.15225e-06 2.1987e-06 0)
(-1.61981e-06 2.22898e-06 0)
(-2.09415e-06 2.27018e-06 0)
(-2.57737e-06 2.32305e-06 0)
(-3.0717e-06 2.38858e-06 0)
(-3.57954e-06 2.46804e-06 0)
(-4.10349e-06 2.56304e-06 0)
(-4.64639e-06 2.6756e-06 0)
(-5.21138e-06 2.80823e-06 0)
(-5.80195e-06 2.9641e-06 0)
(-6.42199e-06 3.14717e-06 0)
(-7.07585e-06 3.36242e-06 0)
(-7.76836e-06 3.61619e-06 0)
(-8.50492e-06 3.91661e-06 0)
(-9.29142e-06 4.27414e-06 0)
(-1.01341e-05 4.70243e-06 0)
(-1.10394e-05 5.2194e-06 0)
(-1.20128e-05 5.84884e-06 0)
(-1.3058e-05 6.6225e-06 0)
(-1.41735e-05 7.5829e-06 0)
(-1.53478e-05 8.78658e-06 0)
(-1.65493e-05 1.03071e-05 0)
(-1.77102e-05 1.2235e-05 0)
(-1.87018e-05 1.46669e-05 0)
(-1.93087e-05 1.76685e-05 0)
(-1.92352e-05 2.11886e-05 0)
(-1.82155e-05 2.49371e-05 0)
(-1.62421e-05 2.83994e-05 0)
(-1.35751e-05 3.12854e-05 0)
(-1.04602e-05 3.36269e-05 0)
(-8.00532e-06 3.50176e-05 0)
(-6.34375e-06 3.57864e-05 0)
(-4.57216e-06 3.64618e-05 0)
(-2.66082e-06 3.70443e-05 0)
(-5.48026e-07 3.75035e-05 0)
(1.34478e-07 6.25111e-06 0)
(-4.25407e-07 3.9314e-07 0)
(-2.75429e-07 4.29951e-07 0)
(2.75429e-07 4.29951e-07 0)
(4.25407e-07 3.9314e-07 0)
(-1.34478e-07 6.25111e-06 0)
(5.48026e-07 3.75035e-05 0)
(2.66082e-06 3.70443e-05 0)
(4.57216e-06 3.64618e-05 0)
(6.34375e-06 3.57864e-05 0)
(8.00532e-06 3.50176e-05 0)
(1.04602e-05 3.36269e-05 0)
(1.35751e-05 3.12854e-05 0)
(1.62421e-05 2.83994e-05 0)
(1.82155e-05 2.49371e-05 0)
(1.92352e-05 2.11886e-05 0)
(1.93087e-05 1.76685e-05 0)
(1.87018e-05 1.46669e-05 0)
(1.77102e-05 1.2235e-05 0)
(1.65493e-05 1.03071e-05 0)
(1.53478e-05 8.78658e-06 0)
(1.41735e-05 7.5829e-06 0)
(1.3058e-05 6.6225e-06 0)
(1.20128e-05 5.84884e-06 0)
(1.10394e-05 5.2194e-06 0)
(1.01341e-05 4.70243e-06 0)
(9.29142e-06 4.27414e-06 0)
(8.50492e-06 3.91661e-06 0)
(7.76836e-06 3.61619e-06 0)
(7.07585e-06 3.36242e-06 0)
(6.42199e-06 3.14717e-06 0)
(5.80195e-06 2.9641e-06 0)
(5.21138e-06 2.80823e-06 0)
(4.64639e-06 2.6756e-06 0)
(4.10349e-06 2.56304e-06 0)
(3.57954e-06 2.46804e-06 0)
(3.0717e-06 2.38858e-06 0)
(2.57737e-06 2.32305e-06 0)
(2.09415e-06 2.27018e-06 0)
(1.61981e-06 2.22898e-06 0)