/*--------------------------------*- C++ -*----------------------------------*\
  =========                 |
  \\      /  F ield         | OpenFOAM: The Open Source CFD Toolbox
   \\    /   O peration     | Website:  https://openfoam.org
    \\  /    A nd           | Version:  10
     \\/     M anipulation  |
\*---------------------------------------------------------------------------*/
FoamFile
{
    format      ascii;
    class       volVectorField;
    location    "2.25";
    object      Ua;
}
// * * * * * * * * * * * * * * * * * * * * * * * * * * * * * * * * * * * * * //

dimensions      [0 1 -1 0 0 0 0];

internalField   nonuniform List<vector> 
12225
(
(1.70583e-05 -2.19271e-06 0)
(4.98595e-05 -2.0519e-06 0)
(7.95731e-05 -1.79265e-06 0)
(0.000105714 -1.4998e-06 0)
(0.000128474 -1.23079e-06 0)
(0.000148392 -1.01416e-06 0)
(0.000166108 -8.59555e-07 0)
(0.000182232 -7.67674e-07 0)
(0.000197312 -7.37285e-07 0)
(0.000211832 -7.69709e-07 0)
(0.000226252 -8.72475e-07 0)
(0.000241063 -1.06415e-06 0)
(0.00025687 -1.38378e-06 0)
(0.000274562 -1.91338e-06 0)
(0.000295677 -2.84086e-06 0)
(0.000323455 -4.67623e-06 0)
(0.00036679 -9.23731e-06 0)
(0.000461408 -2.58966e-05 0)
(1.15347e-05 -5.66194e-06 0)
(3.39742e-05 -5.33176e-06 0)
(5.48786e-05 -4.69097e-06 0)
(7.39042e-05 -3.95234e-06 0)
(9.10572e-05 -3.26505e-06 0)
(0.000106559 -2.70688e-06 0)
(0.000120722 -2.30707e-06 0)
(0.000133879 -2.07105e-06 0)
(0.000146346 -1.99841e-06 0)
(0.000158423 -2.09499e-06 0)
(0.000170407 -2.38283e-06 0)
(0.000182624 -2.91342e-06 0)
(0.000195482 -3.79281e-06 0)
(0.000209564 -5.24025e-06 0)
(0.00022583 -7.74597e-06 0)
(0.00024603 -1.25758e-05 0)
(0.00027326 -2.37625e-05 0)
(0.000306326 -5.79567e-05 0)
(8.89155e-06 -7.75297e-06 0)
(2.63541e-05 -7.36822e-06 0)
(4.29859e-05 -6.54633e-06 0)
(5.85174e-05 -5.56735e-06 0)
(7.28815e-05 -4.63805e-06 0)
(8.61614e-05 -3.87353e-06 0)
(9.85233e-05 -3.32288e-06 0)
(0.000110167 -3.00093e-06 0)
(0.000121299 -2.91281e-06 0)
(0.000132125 -3.07137e-06 0)
(0.000142859 -3.51196e-06 0)
(0.000153735 -4.31154e-06 0)
(0.000165044 -5.62379e-06 0)
(0.000177175 -7.7569e-06 0)
(0.00019068 -1.13681e-05 0)
(0.000206253 -1.80062e-05 0)
(0.000223808 -3.17569e-05 0)
(0.000235462 -6.39282e-05 0)
(7.19217e-06 -9.09688e-06 0)
(2.14408e-05 -8.72762e-06 0)
(3.52817e-05 -7.82924e-06 0)
(4.84967e-05 -6.71868e-06 0)
(6.09839e-05 -5.6422e-06 0)
(7.27485e-05 -4.74513e-06 0)
(8.38686e-05 -4.09579e-06 0)
(9.44615e-05 -3.7203e-06 0)
(0.000104662 -3.63145e-06 0)
(0.000114613 -3.84986e-06 0)
(0.000124467 -4.42239e-06 0)
(0.000134392 -5.4449e-06 0)
(0.000144583 -7.10201e-06 0)
(0.000155268 -9.74877e-06 0)
(0.000166675 -1.40937e-05 0)
(0.000178776 -2.16224e-05 0)
(0.00019011 -3.54987e-05 0)
(0.00019356 -6.14918e-05 0)
(5.96425e-06 -9.9133e-06 0)
(1.78794e-05 -9.6054e-06 0)
(2.96682e-05 -8.69954e-06 0)
(4.1152e-05 -7.5308e-06 0)
(5.22127e-05 -6.37272e-06 0)
(6.28088e-05 -5.39528e-06 0)
(7.29605e-05 -4.68476e-06 0)
(8.27274e-05 -4.27928e-06 0)
(9.21921e-05 -4.20008e-06 0)
(0.000101449 -4.47545e-06 0)
(0.000110603 -5.16126e-06 0)
(0.000119763 -6.3654e-06 0)
(0.000129046 -8.28686e-06 0)
(0.000138546 -1.12886e-05 0)
(0.000148249 -1.60378e-05 0)
(0.000157721 -2.37555e-05 0)
(0.000165199 -3.64949e-05 0)
(0.000165738 -5.64824e-05 0)
(5.02085e-06 -1.03148e-05 0)
(1.51341e-05 -1.01004e-05 0)
(2.53166e-05 -9.23618e-06 0)
(3.54214e-05 -8.06316e-06 0)
(4.53258e-05 -6.87327e-06 0)
(5.49601e-05 -5.85626e-06 0)
(6.4305e-05 -5.11457e-06 0)
(7.33783e-05 -4.69809e-06 0)
(8.2222e-05 -4.63656e-06 0)
(9.08918e-05 -4.96506e-06 0)
(9.94503e-05 -5.74557e-06 0)
(0.00010796 -7.09078e-06 0)
(0.000116468 -9.19852e-06 0)
(0.000124966 -1.24073e-05 0)
(0.000133287 -1.72825e-05 0)
(0.000140834 -2.47111e-05 0)
(0.000146053 -3.5823e-05 0)
(0.000145885 -5.10336e-05 0)
(4.26881e-06 -1.03712e-05 0)
(1.29379e-05 -1.02731e-05 0)
(2.18148e-05 -9.48577e-06 0)
(3.07779e-05 -8.34911e-06 0)
(3.97076e-05 -7.1667e-06 0)
(4.85185e-05 -6.14357e-06 0)
(5.71643e-05 -5.39603e-06 0)
(6.56319e-05 -4.98476e-06 0)
(7.39309e-05 -4.94736e-06 0)
(8.20845e-05 -5.32435e-06 0)
(9.01205e-05 -6.18057e-06 0)
(9.80601e-05 -7.62673e-06 0)
(0.000105897 -9.84629e-06 0)
(0.000113551 -1.31308e-05 0)
(0.000120777 -1.79167e-05 0)
(0.000126979 -2.47767e-05 0)
(0.000130969 -3.42086e-05 0)
(0.000130987 -4.58816e-05 0)
(3.65479e-06 -1.01325e-05 0)
(1.1138e-05 -1.01654e-05 0)
(1.89267e-05 -9.47937e-06 0)
(2.69204e-05 -8.40943e-06 0)
(3.50075e-05 -7.26581e-06 0)
(4.30956e-05 -6.26455e-06 0)
(5.11209e-05 -5.53306e-06 0)
(5.90467e-05 -5.14125e-06 0)
(6.68569e-05 -5.13337e-06 0)
(7.45475e-05 -5.55368e-06 0)
(8.21169e-05 -6.46668e-06 0)
(8.95527e-05 -7.9752e-06 0)
(9.68088e-05 -1.02388e-05 0)
(0.000103765 -1.34905e-05 0)
(0.000110153 -1.80374e-05 0)
(0.000115461 -2.42023e-05 0)
(0.000118858 -3.21107e-05 0)
(0.000119386 -4.12266e-05 0)
(3.14517e-06 -9.63837e-06 0)
(9.63809e-06 -9.80997e-06 0)
(1.65036e-05 -9.23992e-06 0)
(2.36595e-05 -8.25825e-06 0)
(3.10057e-05 -7.1781e-06 0)
(3.84492e-05 -6.22227e-06 0)
(4.59154e-05 -5.52606e-06 0)
(5.33499e-05 -5.16645e-06 0)
(6.0716e-05 -5.19277e-06 0)
(6.7987e-05 -5.65112e-06 0)
(7.51373e-05 -6.60278e-06 0)
(8.21287e-05 -8.1383e-06 0)
(8.88892e-05 -1.0388e-05 0)
(9.52805e-05 -1.35244e-05 0)
(0.000101053 -1.77427e-05 0)
(0.000105801 -2.31901e-05 0)
(0.000108982 -2.98042e-05 0)
(0.000110097 -3.70732e-05 0)
(2.71707e-06 -8.92436e-06 0)
(8.37223e-06 -9.23453e-06 0)
(1.44439e-05 -8.78593e-06 0)
(2.08663e-05 -7.90619e-06 0)
(2.75537e-05 -6.90839e-06 0)
(3.4417e-05 -6.01771e-06 0)
(4.13753e-05 -5.3737e-06 0)
(4.83615e-05 -5.05786e-06 0)
(5.5322e-05 -5.12265e-06 0)
(6.2212e-05 -5.61416e-06 0)
(6.89867e-05 -6.58813e-06 0)
(7.55896e-05 -8.12024e-06 0)
(8.19342e-05 -1.03102e-05 0)
(8.78821e-05 -1.32754e-05 0)
(9.32188e-05 -1.7124e-05 0)
(9.76452e-05 -2.18929e-05 0)
(0.000100821 -2.74451e-05 0)
(0.000102499 -3.33646e-05 0)
(2.35381e-06 -8.0247e-06 0)
(7.29217e-06 -8.46448e-06 0)
(1.26728e-05 -8.13365e-06 0)
(1.84466e-05 -7.36222e-06 0)
(2.45443e-05 -6.46046e-06 0)
(3.08833e-05 -5.65126e-06 0)
(3.73796e-05 -5.07434e-06 0)
(4.39563e-05 -4.81281e-06 0)
(5.05469e-05 -4.92019e-06 0)
(5.70921e-05 -5.44087e-06 0)
(6.35328e-05 -6.42353e-06 0)
(6.98004e-05 -7.92808e-06 0)
(7.58035e-05 -1.00256e-05 0)
(8.1414e-05 -1.27877e-05 0)
(8.64581e-05 -1.6261e-05 0)
(9.07242e-05 -2.04217e-05 0)
(9.4006e-05 -2.51174e-05 0)
(9.61891e-05 -3.00335e-05 0)
(2.017e-06 -7.055e-06 0)
(6.29453e-06 -7.60035e-06 0)
(1.10472e-05 -7.37037e-06 0)
(1.6241e-05 -6.7012e-06 0)
(2.18178e-05 -5.89757e-06 0)
(2.76974e-05 -5.17597e-06 0)
(3.37913e-05 -4.67273e-06 0)
(4.0014e-05 -4.47004e-06 0)
(4.62885e-05 -4.62079e-06 0)
(5.25451e-05 -5.16672e-06 0)
(5.87158e-05 -6.14945e-06 0)
(6.47266e-05 -7.61499e-06 0)
(7.04877e-05 -9.61131e-06 0)
(7.58859e-05 -1.21772e-05 0)
(8.07828e-05 -1.53212e-05 0)
(8.50267e-05 -1.89907e-05 0)
(8.84876e-05 -2.30439e-05 0)
(9.11091e-05 -2.72442e-05 0)
(1.79786e-06 -5.99523e-06 0)
(5.63065e-06 -6.6176e-06 0)
(9.93437e-06 -6.46982e-06 0)
(1.46941e-05 -5.89739e-06 0)
(1.98681e-05 -5.19577e-06 0)
(2.53841e-05 -4.57018e-06 0)
(3.1154e-05 -4.14965e-06 0)
(3.70881e-05 -4.01283e-06 0)
(4.31029e-05 -4.21038e-06 0)
(4.91212e-05 -4.78057e-06 0)
(5.50688e-05 -5.75805e-06 0)
(6.08686e-05 -7.17664e-06 0)
(6.64337e-05 -9.06597e-06 0)
(7.16644e-05 -1.14417e-05 0)
(7.64505e-05 -1.42898e-05 0)
(8.06838e-05 -1.75478e-05 0)
(8.42835e-05 -2.10926e-05 0)
(8.7226e-05 -2.47464e-05 0)
(1.57843e-06 -4.73101e-06 0)
(4.95572e-06 -5.38773e-06 0)
(8.78976e-06 -5.30031e-06 0)
(1.30977e-05 -4.825e-06 0)
(1.78564e-05 -4.23994e-06 0)
(2.30002e-05 -3.73063e-06 0)
(2.84397e-05 -3.41288e-06 0)
(3.40801e-05 -3.35816e-06 0)
(3.98312e-05 -3.61276e-06 0)
(4.56097e-05 -4.21011e-06 0)
(5.13366e-05 -5.17716e-06 0)
(5.69338e-05 -6.53588e-06 0)
(6.23199e-05 -8.3e-06 0)
(6.74104e-05 -1.04677e-05 0)
(7.21217e-05 -1.30119e-05 0)
(7.63811e-05 -1.58706e-05 0)
(8.01429e-05 -1.89444e-05 0)
(8.34024e-05 -2.21052e-05 0)
(1.34819e-06 -3.28784e-06 0)
(4.23987e-06 -3.88104e-06 0)
(7.57485e-06 -3.81002e-06 0)
(1.14202e-05 -3.42584e-06 0)
(1.57679e-05 -2.97192e-06 0)
(2.05509e-05 -2.60097e-06 0)
(2.56727e-05 -2.40782e-06 0)
(3.10308e-05 -2.4527e-06 0)
(3.65283e-05 -2.77525e-06 0)
(4.20762e-05 -3.40291e-06 0)
(4.75931e-05 -4.35502e-06 0)
(5.30027e-05 -5.64358e-06 0)
(5.82329e-05 -7.271e-06 0)
(6.32164e-05 -9.22557e-06 0)
(6.78947e-05 -1.14763e-05 0)
(7.22234e-05 -1.39693e-05 0)
(7.61797e-05 -1.6629e-05 0)
(7.97671e-05 -1.93657e-05 0)
(1.05946e-06 -1.71929e-06 0)
(3.36193e-06 -2.06587e-06 0)
(6.14345e-06 -1.95305e-06 0)
(9.53163e-06 -1.65705e-06 0)
(1.35074e-05 -1.35243e-06 0)
(1.79788e-05 -1.14158e-06 0)
(2.28277e-05 -1.09114e-06 0)
(2.79366e-05 -1.24747e-06 0)
(3.32003e-05 -1.64301e-06 0)
(3.85288e-05 -2.30068e-06 0)
(4.38472e-05 -3.23606e-06 0)
(4.90929e-05 -4.45587e-06 0)
(5.42125e-05 -5.95708e-06 0)
(5.91601e-05 -7.72437e-06 0)
(6.3898e-05 -9.72802e-06 0)
(6.83981e-05 -1.19234e-05 0)
(7.26444e-05 -1.42533e-05 0)
(7.66347e-05 -1.66531e-05 0)
(5.42781e-07 4.97433e-09 0)
(1.87305e-06 1.27804e-07 0)
(3.88514e-06 3.00891e-07 0)
(6.73888e-06 4.79346e-07 0)
(1.03184e-05 6.12712e-07 0)
(1.44634e-05 6.48507e-07 0)
(1.90345e-05 5.41423e-07 0)
(2.39161e-05 2.57072e-07 0)
(2.90094e-05 -2.28467e-07 0)
(3.42441e-05 -9.44537e-07 0)
(3.95833e-05 -1.9317e-06 0)
(4.4975e-05 -3.14951e-06 0)
(5.03466e-05 -4.59264e-06 0)
(5.56368e-05 -6.24442e-06 0)
(6.07944e-05 -8.07728e-06 0)
(6.57791e-05 -1.00539e-05 0)
(7.05619e-05 -1.213e-05 0)
(7.51265e-05 -1.4258e-05 0)
(1.27337e-06 2.06802e-06 0)
(3.9006e-06 2.80361e-06 0)
(6.78891e-06 3.13957e-06 0)
(1.00887e-05 3.24246e-06 0)
(1.38569e-05 3.19504e-06 0)
(1.80759e-05 3.01317e-06 0)
(2.26829e-05 2.68802e-06 0)
(2.75975e-05 2.20676e-06 0)
(3.27377e-05 1.55947e-06 0)
(3.80121e-05 7.26886e-07 0)
(4.33145e-05 -3.21292e-07 0)
(4.86029e-05 -1.59006e-06 0)
(5.3892e-05 -3.07662e-06 0)
(5.9151e-05 -4.69931e-06 0)
(6.43229e-05 -6.43516e-06 0)
(6.93635e-05 -8.25543e-06 0)
(7.42407e-05 -1.01281e-05 0)
(7.8934e-05 -1.20204e-05 0)
(1.79157e-06 4.93159e-06 0)
(5.49953e-06 6.08439e-06 0)
(9.46298e-06 6.6164e-06 0)
(1.37014e-05 6.70384e-06 0)
(1.82337e-05 6.48874e-06 0)
(2.30571e-05 6.05764e-06 0)
(2.81432e-05 5.45678e-06 0)
(3.34455e-05 4.70967e-06 0)
(3.89077e-05 3.82881e-06 0)
(4.44708e-05 2.82192e-06 0)
(5.00784e-05 1.69798e-06 0)
(5.56472e-05 4.13765e-07 0)
(6.10816e-05 -1.02261e-06 0)
(6.63738e-05 -2.6195e-06 0)
(7.15442e-05 -4.27484e-06 0)
(7.65697e-05 -5.9585e-06 0)
(8.14311e-05 -7.65056e-06 0)
(8.61171e-05 -9.33124e-06 0)
(2.05681e-06 8.16016e-06 0)
(6.35247e-06 9.31753e-06 0)
(1.09881e-05 9.83666e-06 0)
(1.59254e-05 9.83349e-06 0)
(2.1136e-05 9.44836e-06 0)
(2.65884e-05 8.79452e-06 0)
(3.22419e-05 7.95077e-06 0)
(3.80479e-05 6.96818e-06 0)
(4.39541e-05 5.87907e-06 0)
(4.99079e-05 4.70443e-06 0)
(5.586e-05 3.45936e-06 0)
(6.17653e-05 2.15545e-06 0)
(6.75815e-05 8.06911e-07 0)
(7.3223e-05 -6.61833e-07 0)
(7.86695e-05 -2.23647e-06 0)
(8.39593e-05 -3.80608e-06 0)
(8.90794e-05 -5.35322e-06 0)
(9.40191e-05 -6.86696e-06 0)
(2.46934e-06 1.09892e-05 0)
(7.58399e-06 1.19291e-05 0)
(1.30291e-05 1.22645e-05 0)
(1.87597e-05 1.2078e-05 0)
(2.47289e-05 1.14998e-05 0)
(3.0889e-05 1.06484e-05 0)
(3.719e-05 9.61394e-06 0)
(4.358e-05 8.45925e-06 0)
(5.00075e-05 7.22559e-06 0)
(5.64238e-05 5.93976e-06 0)
(6.27845e-05 4.61966e-06 0)
(6.9051e-05 3.27818e-06 0)
(7.51906e-05 1.92574e-06 0)
(8.11715e-05 5.72062e-07 0)
(8.69295e-05 -8.73466e-07 0)
(9.24553e-05 -2.35868e-06 0)
(9.77847e-05 -3.80021e-06 0)
(0.000102913 -5.19244e-06 0)
(2.97925e-06 1.33278e-05 0)
(9.08725e-06 1.4005e-05 0)
(1.54802e-05 1.41032e-05 0)
(2.21176e-05 1.37006e-05 0)
(2.89439e-05 1.29232e-05 0)
(3.59005e-05 1.18906e-05 0)
(4.29297e-05 1.06974e-05 0)
(4.99763e-05 9.41071e-06 0)
(5.69896e-05 8.07514e-06 0)
(6.3924e-05 6.71916e-06 0)
(7.07405e-05 5.36072e-06 0)
(7.74062e-05 4.01146e-06 0)
(8.38949e-05 2.67956e-06 0)
(9.01865e-05 1.37138e-06 0)
(9.62467e-05 7.61229e-08 0)
(0.000102045 -1.28929e-06 0)
(0.000107594 -2.62478e-06 0)
(0.000112916 -3.90039e-06 0)
(3.6021e-06 1.50179e-05 0)
(1.09168e-05 1.54413e-05 0)
(1.84425e-05 1.5301e-05 0)
(2.61415e-05 1.46873e-05 0)
(3.39535e-05 1.37285e-05 0)
(4.18134e-05 1.25453e-05 0)
(4.96595e-05 1.12327e-05 0)
(5.7436e-05 9.85807e-06 0)
(6.50947e-05 8.46537e-06 0)
(7.25955e-05 7.0818e-06 0)
(7.99056e-05 5.72333e-06 0)
(8.69997e-05 4.39912e-06 0)
(9.3859e-05 3.11448e-06 0)
(0.00010047 1.87272e-06 0)
(0.000106826 6.76118e-07 0)
(0.000112893 -5.29017e-07 0)
(0.00011867 -1.75172e-06 0)
(0.000124183 -2.90855e-06 0)
(4.35962e-06 1.59786e-05 0)
(1.3139e-05 1.61786e-05 0)
(2.20273e-05 1.5828e-05 0)
(3.09834e-05 1.50351e-05 0)
(3.99424e-05 1.39337e-05 0)
(4.88365e-05 1.26446e-05 0)
(5.76042e-05 1.12612e-05 0)
(6.61933e-05 9.84778e-06 0)
(7.45622e-05 8.44546e-06 0)
(8.2679e-05 7.07813e-06 0)
(9.05205e-05 5.75852e-06 0)
(9.80707e-05 4.49261e-06 0)
(0.00010532 3.28261e-06 0)
(0.000112265 2.12889e-06 0)
(0.000118904 1.03101e-06 0)
(0.000125227 -2.31721e-08 0)
(0.000131226 -1.11415e-06 0)
(0.000136924 -2.14736e-06 0)
(5.28491e-06 1.61707e-05 0)
(1.58509e-05 1.61867e-05 0)
(2.63902e-05 1.56716e-05 0)
(3.68498e-05 1.47502e-05 0)
(4.71598e-05 1.35608e-05 0)
(5.72527e-05 1.22225e-05 0)
(6.70723e-05 1.08245e-05 0)
(7.6576e-05 9.42642e-06 0)
(8.57338e-05 8.06433e-06 0)
(9.45268e-05 6.75782e-06 0)
(0.000102945 5.51578e-06 0)
(0.000110985 4.34084e-06 0)
(0.000118649 3.23227e-06 0)
(0.000125944 2.18783e-06 0)
(0.000132878 1.20476e-06 0)
(0.000139463 2.80224e-07 0)
(0.00014569 -6.56745e-07 0)
(0.00015157 -1.56127e-06 0)
(6.43109e-06 1.5571e-05 0)
(1.92069e-05 1.54475e-05 0)
(3.17761e-05 1.48252e-05 0)
(4.40641e-05 1.38395e-05 0)
(5.59946e-05 1.26288e-05 0)
(6.75046e-05 1.13077e-05 0)
(7.85501e-05 9.95827e-06 0)
(8.9105e-05 8.63341e-06 0)
(9.91582e-05 7.36331e-06 0)
(0.00010871 6.16268e-06 0)
(0.000117768 5.03654e-06 0)
(0.000126346 3.98444e-06 0)
(0.000134461 3.0032e-06 0)
(0.000142133 2.08856e-06 0)
(0.000149381 1.2361e-06 0)
(0.000156228 4.41607e-07 0)
(0.000162679 -3.35096e-07 0)
(0.00016875 -1.10606e-06 0)
(7.8916e-06 1.41485e-05 0)
(2.34789e-05 1.3934e-05 0)
(3.86161e-05 1.32712e-05 0)
(5.31953e-05 1.22969e-05 0)
(6.71323e-05 1.1143e-05 0)
(8.03745e-05 9.91419e-06 0)
(9.28994e-05 8.6829e-06 0)
(0.000104708 7.49348e-06 0)
(0.000115816 6.36958e-06 0)
(0.000126253 5.32104e-06 0)
(0.00013605 4.34946e-06 0)
(0.000145244 3.45197e-06 0)
(0.000153871 2.62369e-06 0)
(0.000161967 1.85913e-06 0)
(0.000169566 1.15293e-06 0)
(0.000176702 5.00224e-07 0)
(0.000183394 -1.16731e-07 0)
(0.000189665 -7.48761e-07 0)
(9.85545e-06 1.18294e-05 0)
(2.92173e-05 1.15781e-05 0)
(4.77851e-05 1.09527e-05 0)
(6.53999e-05 1.00791e-05 0)
(8.19688e-05 9.07324e-06 0)
(9.74589e-05 8.02363e-06 0)
(0.000111883 6.98928e-06 0)
(0.000125284 6.00453e-06 0)
(0.000137721 5.08616e-06 0)
(0.000149261 4.23966e-06 0)
(0.000159974 3.46404e-06 0)
(0.000169925 2.75502e-06 0)
(0.000179176 2.10704e-06 0)
(0.000187786 1.51431e-06 0)
(0.000195808 9.71425e-07 0)
(0.00020329 4.73561e-07 0)
(0.000210269 1.45939e-08 0)
(0.000216774 -4.66693e-07 0)
(1.28051e-05 8.41494e-06 0)
(3.78288e-05 8.19177e-06 0)
(6.15217e-05 7.70186e-06 0)
(8.36426e-05 7.04252e-06 0)
(0.000104088 6.3003e-06 0)
(0.000122862 5.53916e-06 0)
(0.000140038 4.80008e-06 0)
(0.00015573 4.10565e-06 0)
(0.000170065 3.46578e-06 0)
(0.000183174 2.88256e-06 0)
(0.000195181 2.35373e-06 0)
(0.000206198 1.87504e-06 0)
(0.000216326 1.44155e-06 0)
(0.000225656 1.04842e-06 0)
(0.000234267 6.91232e-07 0)
(0.000242231 3.66092e-07 0)
(0.000249609 6.95855e-08 0)
(0.000256443 -2.45272e-07 0)
(1.88563e-05 3.20565e-06 0)
(5.5494e-05 3.11031e-06 0)
(8.96925e-05 2.91328e-06 0)
(0.000121039 2.65357e-06 0)
(0.000149416 2.3651e-06 0)
(0.000174911 2.07245e-06 0)
(0.000197733 1.79094e-06 0)
(0.000218145 1.5287e-06 0)
(0.000236422 1.28898e-06 0)
(0.000252822 1.07212e-06 0)
(0.000267581 8.76872e-07 0)
(0.000280906 7.01316e-07 0)
(0.000292975 5.43346e-07 0)
(0.000303944 4.00941e-07 0)
(0.000313943 2.72285e-07 0)
(0.000323087 1.55791e-07 0)
(0.000331474 5.0086e-08 0)
(0.00033915 -6.38837e-08 0)
(1.7197e-05 -1.21918e-05 -1.57373e-31)
(5.16974e-05 -1.21753e-05 1.56751e-31)
(8.63637e-05 -1.2146e-05 0)
(0.000121153 -1.21046e-05 0)
(0.000156024 -1.20511e-05 0)
(0.000190929 -1.19832e-05 -1.52626e-31)
(0.000225816 -1.18974e-05 0)
(0.000260623 -1.17895e-05 0)
(0.000295278 -1.16561e-05 0)
(0.000329698 -1.14948e-05 0)
(0.000363791 -1.13046e-05 1.41814e-31)
(0.000397456 -1.10863e-05 0)
(0.000430582 -1.0842e-05 0)
(0.000463051 -1.05757e-05 0)
(0.000494737 -1.02933e-05 0)
(0.000525504 -1.00022e-05 1.23072e-31)
(0.000555209 -9.7113e-06 0)
(0.000583699 -9.43033e-06 0)
(0.000610808 -9.16907e-06 0)
(0.00063636 -8.93652e-06 0)
(0.000660162 -8.74032e-06 0)
(0.000682005 -8.58657e-06 0)
(0.000701664 -8.47989e-06 0)
(0.000718902 -8.42375e-06 1.00388e-31)
(0.000733478 -8.42067e-06 -1.00176e-31)
(0.000745168 -8.47226e-06 1.00705e-31)
(0.000753792 -8.57929e-06 1.01986e-31)
(0.00075926 -8.74151e-06 0)
(0.000761623 -8.95775e-06 0)
(0.000761128 -9.22595e-06 -1.10258e-31)
(0.000758262 -9.5437e-06 -1.14398e-31)
(0.000753763 -9.90912e-06 0)
(0.000748574 -1.03224e-05 0)
(0.000743765 -1.07879e-05 -1.3065e-31)
(0.000740412 -1.1316e-05 0)
(0.000739499 -1.19258e-05 0)
(0.000741858 -1.26467e-05 1.54698e-31)
(0.000748179 -1.35215e-05 0)
(0.000759076 -1.46103e-05 1.79873e-31)
(0.000775209 -1.59997e-05 3.9528e-31)
(0.000797458 -1.78186e-05 0)
(0.000827204 -2.02715e-05 0)
(0.000866831 -2.37072e-05 0)
(0.000920806 -2.8777e-05 0)
(0.000998423 -3.68398e-05 0)
(0.0011224 -5.11647e-05 1.29608e-30)
(0.00136717 -8.14392e-05 2.07287e-30)
(0.00223848 -0.000171142 4.37107e-30)
(0.0115161 -0.00142023 0)
(0.0197045 0.000642456 1.70723e-29)
(0.0186368 0.000955681 0)
(0.0175073 0.00063399 -1.68016e-29)
(0.0167143 0.000472546 -1.26096e-29)
(0.0161011 0.000375847 0)
(0.0156006 0.000310793 0)
(0.0151778 0.000264247 0)
(0.0148116 0.000229787 -6.28955e-30)
(0.0144876 0.000203591 0)
(0.014196 0.000183115 0)
(0.01393 0.000166611 0)
(0.013685 0.000152884 0)
(0.0134576 0.000141132 0)
(0.0132455 0.000130825 0)
(0.0130469 0.000121617 0)
(0.0128606 0.000113281 0)
(0.0126854 0.000105663 3.03081e-30)
(0.0125206 9.86583e-05 0)
(0.0123653 9.21902e-05 0)
(0.0122189 8.61996e-05 -2.51668e-30)
(0.0120808 8.06389e-05 -2.36969e-30)
(0.0119505 7.54683e-05 0)
(0.0118275 7.06535e-05 2.10559e-30)
(0.0117113 6.61643e-05 -1.9868e-30)
(0.0116016 6.1974e-05 0)
(0.0114979 5.80587e-05 1.77224e-30)
(0.0114 5.43969e-05 0)
(0.0113074 5.09692e-05 0)
(0.0112199 4.77583e-05 -1.49941e-30)
(0.0111372 4.47483e-05 0)
(0.0110591 4.19252e-05 1.34484e-30)
(0.0109853 3.92758e-05 0)
(0.0109155 3.67885e-05 -1.20867e-30)
(0.0108496 3.44526e-05 -1.14673e-30)
(0.0107874 3.22582e-05 -1.08854e-30)
(0.0107286 3.01963e-05 -2.0677e-30)
(0.0106732 2.82587e-05 1.96491e-30)
(0.0106208 2.64377e-05 0)
(0.0105714 2.47264e-05 0)
(0.0105248 2.31181e-05 0)
(0.0104809 2.16068e-05 1.61193e-30)
(0.0104394 2.01868e-05 1.53657e-30)
(0.0104004 1.88528e-05 -1.46576e-30)
(0.0103637 1.75999e-05 0)
(0.0103291 1.64235e-05 1.33679e-30)
(0.0102965 1.53191e-05 1.27816e-30)
(0.0102659 1.42826e-05 1.22314e-30)
(0.0102371 1.33103e-05 0)
(0.01021 1.23984e-05 0)
(0.0101846 1.15436e-05 0)
(0.0101607 1.07424e-05 1.03515e-30)
(0.0101383 9.992e-06 0)
(0.0101172 9.28933e-06 0)
(0.0100975 8.63168e-06 -9.23036e-31)
(0.0100791 8.01645e-06 0)
(0.0100618 7.44116e-06 0)
(0.0100456 6.90348e-06 -8.31238e-31)
(0.0100304 6.4012e-06 0)
(0.0100162 5.93221e-06 0)
(0.010003 5.49455e-06 7.56387e-31)
(0.00999061 5.08632e-06 7.34698e-31)
(0.00997905 4.70576e-06 0)
(0.00996827 4.35117e-06 -6.9564e-31)
(0.00995821 4.02097e-06 0)
(0.00994884 3.71364e-06 6.61761e-31)
(0.00994011 3.42778e-06 0)
(0.00993198 3.16202e-06 6.32449e-31)
(0.00992442 2.91511e-06 6.19321e-31)
(0.00991739 2.68583e-06 0)
(0.00991085 2.47306e-06 0)
(0.00990479 2.27573e-06 0)
(0.00989915 2.09283e-06 0)
(0.00989393 1.92341e-06 0)
(0.00988908 1.76657e-06 0)
(0.0098846 1.62148e-06 0)
(0.00988044 1.48734e-06 5.43436e-31)
(0.0098766 1.3634e-06 -5.36843e-31)
(0.00987304 1.24897e-06 0)
(0.00986976 1.14339e-06 0)
(0.00986672 1.04604e-06 0)
(0.00986393 9.56343e-07 0)
(0.00986134 8.73758e-07 -1.02162e-30)
(0.00985896 7.97777e-07 0)
(0.00985677 7.27928e-07 1.00611e-30)
(0.00985476 6.63766e-07 -9.99286e-31)
(0.0098529 6.0488e-07 0)
(0.00985119 5.50884e-07 0)
(0.00984963 5.01422e-07 0)
(0.00984819 4.56163e-07 9.77204e-31)
(0.00984687 4.14799e-07 9.72802e-31)
(0.00984565 3.77049e-07 0)
(0.00984454 3.42654e-07 9.65119e-31)
(0.00984352 3.11378e-07 9.61786e-31)
(0.00984259 2.83008e-07 -9.58769e-31)
(0.00984173 2.57354e-07 0)
(0.00984094 2.3425e-07 0)
(0.00984022 2.13554e-07 -9.51364e-31)
(0.00983955 1.95148e-07 0)
(0.00983893 1.78946e-07 0)
(0.00983836 1.64889e-07 0)
(0.00983783 1.52955e-07 0)
(0.00983733 1.43163e-07 9.43811e-31)
(0.00983685 1.35581e-07 9.42982e-31)
(0.00983639 1.30332e-07 0)
(0.00983594 1.27612e-07 9.42073e-31)
(0.00983549 1.27701e-07 0)
(0.00983503 1.30989e-07 0)
(0.00983455 1.38001e-07 9.43016e-31)
(0.00983403 1.49434e-07 0)
(0.00983346 1.66205e-07 9.45831e-31)
(0.0098328 1.89514e-07 0)
(0.00983204 2.20927e-07 0)
(0.00983113 2.62488e-07 9.55564e-31)
(0.00983003 3.16871e-07 0)
(0.00982868 3.87583e-07 9.68266e-31)
(0.009827 4.7925e-07 0)
(0.0098249 5.98015e-07 0)
(0.00982224 7.52105e-07 0)
(0.00981885 9.5267e-07 -1.02577e-30)
(0.00981449 1.21503e-06 0)
(0.00980886 1.56063e-06 1.08769e-30)
(0.00980153 2.02016e-06 0)
(0.0097919 2.63881e-06 0)
(0.00977912 3.48565e-06 0)
(0.00976192 4.67139e-06 0)
(0.00973839 6.38492e-06 0)
(0.00970537 8.9769e-06 0)
(0.00965728 1.31799e-05 0)
(0.00958278 2.0811e-05 -6.11356e-30)
(0.00945325 3.76959e-05 0)
(0.00916621 9.06418e-05 0)
(6.60363e-06 -3.15191e-05 4.0714e-31)
(1.985e-05 -3.14514e-05 -4.05795e-31)
(3.31517e-05 -3.1358e-05 0)
(4.64881e-05 -3.12395e-05 8.05324e-31)
(5.98409e-05 -3.10969e-05 0)
(7.31856e-05 -3.09259e-05 -3.98844e-31)
(8.6482e-05 -3.0718e-05 -7.89956e-31)
(9.96704e-05 -3.04631e-05 -7.82745e-31)
(0.000112673 -3.01525e-05 0)
(0.000125401 -2.97797e-05 -7.63865e-31)
(0.000137756 -2.93414e-05 3.77603e-31)
(0.000149645 -2.88373e-05 0)
(0.000160976 -2.82703e-05 0)
(0.000171674 -2.76472e-05 0)
(0.000181687 -2.69785e-05 0)
(0.000190994 -2.6279e-05 3.37394e-31)
(0.000199612 -2.55677e-05 0)
(0.000207605 -2.48662e-05 6.32973e-31)
(0.000215079 -2.41983e-05 0)
(0.000222177 -2.3587e-05 0)
(0.000229064 -2.30534e-05 -5.85099e-31)
(0.000235916 -2.26154e-05 0)
(0.000242907 -2.22871e-05 5.64638e-31)
(0.000250205 -2.20792e-05 2.82414e-31)
(0.000257964 -2.19995e-05 -2.81292e-31)
(0.000266326 -2.20535e-05 2.81891e-31)
(0.000275412 -2.22449e-05 2.84258e-31)
(0.00028533 -2.25759e-05 0)
(0.000296169 -2.30473e-05 0)
(0.000308009 -2.36597e-05 -3.02158e-31)
(0.000320927 -2.4414e-05 -9.27686e-31)
(0.00033501 -2.53135e-05 0)
(0.000350361 -2.63671e-05 0)
(0.000367105 -2.75924e-05 -3.52289e-31)
(0.000385402 -2.90204e-05 0)
(0.000405447 -3.07003e-05 0)
(0.000427481 -3.27052e-05 4.17658e-31)
(0.000451801 -3.5139e-05 0)
(0.000478789 -3.81486e-05 1.45092e-30)
(0.000508952 -4.19433e-05 1.07219e-30)
(0.000542992 -4.68305e-05 0)
(0.000581939 -5.32808e-05 0)
(0.000627391 -6.20537e-05 -3.14885e-30)
(0.000681974 -7.44568e-05 -3.78491e-30)
(0.00075032 -9.29385e-05 -4.73394e-30)
(0.00084158 -0.000122657 9.41249e-30)
(0.000978386 -0.000176832 4.54791e-30)
(0.00125404 -0.000307261 -7.85367e-30)
(0.00341195 -0.00166063 8.55304e-29)
(0.0112451 -0.00292193 -7.52647e-29)
(0.0170868 0.00195725 0)
(0.0168302 0.00158446 -4.13546e-29)
(0.0163558 0.00129097 -1.02043e-28)
(0.0158786 0.00106647 0)
(0.0154485 0.000897161 0)
(0.0150685 0.000770078 0)
(0.0147304 0.000674097 -1.77728e-29)
(0.0144257 0.000600356 0)
(0.0141474 0.000542208 -2.93675e-29)
(0.0138907 0.000494903 0)
(0.0136522 0.000455184 -2.48217e-29)
(0.0134295 0.000420883 0)
(0.0132208 0.000390584 2.14412e-29)
(0.013025 0.000363366 0)
(0.0128408 0.000338629 -1.87193e-29)
(0.0126674 0.000315967 2.5998e-29)
(0.0125041 0.000295093 0)
(0.0123502 0.000275797 1.54247e-29)
(0.012205 0.000257913 -6.95503e-30)
(0.012068 0.000241304 -6.52247e-30)
(0.0119387 0.000225855 0)
(0.0118166 0.000211465 1.77936e-29)
(0.0117013 0.000198045 -5.3956e-30)
(0.0115923 0.000185516 0)
(0.0114893 0.000173808 4.76409e-30)
(0.0113919 0.000162856 9.49527e-30)
(0.0113 0.000152603 0)
(0.011213 0.000142997 -3.96111e-30)
(0.0111308 0.000133991 0)
(0.0110531 0.000125543 -4.02807e-30)
(0.0109797 0.000117614 0)
(0.0109104 0.00011017 3.62057e-30)
(0.0108448 0.000103178 -2.92312e-30)
(0.0107829 9.66089e-05 -8.76472e-30)
(0.0107245 9.04362e-05 -1.65583e-29)
(0.0106693 8.46352e-05 1.56455e-29)
(0.0106172 7.91831e-05 0)
(0.010568 7.4059e-05 0)
(0.0105216 6.92431e-05 0)
(0.0104779 6.47175e-05 -4.83007e-30)
(0.0104367 6.04652e-05 3.61878e-30)
(0.0103979 5.64704e-05 -3.41042e-30)
(0.0103613 5.27182e-05 0)
(0.0103269 4.91949e-05 1.0068e-29)
(0.0102945 4.58872e-05 2.85841e-30)
(0.010264 4.27831e-05 2.69649e-30)
(0.0102353 3.98709e-05 0)
(0.0102083 3.71397e-05 0)
(0.010183 3.45792e-05 0)
(0.0101593 3.21797e-05 2.14336e-30)
(0.010137 2.99319e-05 0)
(0.010116 2.78272e-05 4.78791e-30)
(0.0100964 2.58573e-05 2.767e-30)
(0.010078 2.40144e-05 -4.38651e-30)
(0.0100608 2.22912e-05 0)
(0.0100447 2.06806e-05 -5.57895e-30)
(0.0100296 1.9176e-05 0)
(0.0100155 1.77712e-05 -3.72916e-30)
(0.0100023 1.64602e-05 4.91437e-30)
(0.00998994 1.52373e-05 4.72181e-30)
(0.00997844 1.40973e-05 0)
(0.0099677 1.30351e-05 2.08588e-30)
(0.00995769 1.2046e-05 -3.12627e-30)
(0.00994836 1.11253e-05 1.04491e-30)
(0.00993967 1.0269e-05 0)
(0.00993158 9.47287e-06 9.58693e-31)
(0.00992405 8.7332e-06 -1.8573e-30)
(0.00991704 8.04636e-06 0)
(0.00991054 7.40896e-06 -2.63791e-30)
(0.00990449 6.81781e-06 -2.57565e-30)
(0.00989888 6.26989e-06 -2.51793e-30)
(0.00989368 5.76234e-06 0)
(0.00988886 5.2925e-06 0)
(0.00988439 4.85783e-06 0)
(0.00988025 4.45597e-06 3.02376e-30)
(0.00987642 4.08468e-06 -6.77521e-31)
(0.00987288 3.74187e-06 0)
(0.00986961 3.42556e-06 2.21831e-30)
(0.00986659 3.13392e-06 2.18758e-30)
(0.0098638 2.8652e-06 0)
(0.00986123 2.61778e-06 -1.20194e-30)
(0.00985886 2.39015e-06 4.21844e-30)
(0.00985668 2.18089e-06 1.15633e-30)
(0.00985467 1.98866e-06 -5.27009e-30)
(0.00985282 1.81224e-06 0)
(0.00985113 1.65047e-06 0)
(0.00984956 1.50228e-06 0)
(0.00984813 1.36668e-06 1.07134e-30)
(0.00984682 1.24276e-06 5.03502e-30)
(0.00984561 1.12965e-06 3.95276e-30)
(0.0098445 1.0266e-06 1.03583e-30)
(0.00984349 9.32889e-07 4.93731e-30)
(0.00984255 8.47884e-07 -1.01717e-30)
(0.0098417 7.71015e-07 0)
(0.00984092 7.01782e-07 0)
(0.00984019 6.39758e-07 -4.84485e-30)
(0.00983953 5.84596e-07 0)
(0.00983892 5.36028e-07 0)
(0.00983835 4.93883e-07 3.81855e-30)
(0.00983782 4.58093e-07 0)
(0.00983732 4.28714e-07 4.77801e-30)
(0.00983684 4.05942e-07 9.70936e-31)
(0.00983639 3.9015e-07 0)
(0.00983594 3.81916e-07 4.76285e-30)
(0.0098355 3.8208e-07 0)
(0.00983504 3.91803e-07 0)
(0.00983456 4.12651e-07 9.71415e-31)
(0.00983405 4.46704e-07 3.80717e-30)
(0.00983348 4.96698e-07 9.80005e-31)
(0.00983283 5.66213e-07 0)
(0.00983207 6.59921e-07 0)
(0.00983118 7.83922e-07 4.8853e-30)
(0.00983009 9.46188e-07 0)
(0.00982876 1.15718e-06 4.99995e-30)
(0.00982711 1.43068e-06 0)
(0.00982504 1.785e-06 0)
(0.00982242 2.24464e-06 0)
(0.00981908 2.84277e-06 -1.22122e-30)
(0.0098148 3.62495e-06 0)
(0.00980926 4.65484e-06 1.40766e-30)
(0.00980206 6.02337e-06 0)
(0.00979261 7.86418e-06 0)
(0.00978009 1.03808e-05 5.8411e-30)
(0.0097633 1.38977e-05 -6.56204e-30)
(0.00974041 1.89644e-05 0)
(0.00970853 2.65878e-05 0)
(0.00966272 3.88231e-05 0)
(0.00959392 6.05339e-05 1.79542e-29)
(0.00948461 0.000105825 0)
(0.00931218 0.000227839 -1.01267e-28)
(5.08541e-06 -4.43859e-05 2.29409e-30)
(1.52843e-05 -4.42712e-05 -3.63229e-34)
(2.55256e-05 -4.41322e-05 0)
(3.58003e-05 -4.39668e-05 8.4758e-34)
(4.61015e-05 -4.37788e-05 0)
(5.64201e-05 -4.35668e-05 0)
(6.67335e-05 -4.33241e-05 -2.23192e-30)
(7.70021e-05 -4.30423e-05 -1.10898e-30)
(8.71708e-05 -4.27136e-05 1.09794e-30)
(9.71739e-05 -4.2332e-05 -1.08967e-30)
(0.00010694 -4.18942e-05 0)
(0.000116395 -4.13991e-05 0)
(0.000125468 -4.08483e-05 -1.04701e-30)
(0.000134095 -4.02459e-05 -2.06166e-30)
(0.000142228 -3.95993e-05 2.02708e-30)
(0.000149839 -3.8919e-05 0)
(0.000156937 -3.82193e-05 1.95365e-30)
(0.000163566 -3.75179e-05 9.62089e-31)
(0.000169815 -3.6835e-05 0)
(0.000175811 -3.61922e-05 1.84618e-30)
(0.000181713 -3.56109e-05 -9.11938e-31)
(0.000187691 -3.51111e-05 -1.78861e-30)
(0.000193923 -3.47108e-05 8.88094e-31)
(0.000200573 -3.44257e-05 0)
(0.000207793 -3.42696e-05 1.74226e-30)
(0.000215714 -3.4255e-05 1.74038e-30)
(0.000224448 -3.43929e-05 0)
(0.000234089 -3.46941e-05 1.76047e-30)
(0.000244718 -3.51692e-05 0)
(0.000256401 -3.58299e-05 1.81603e-30)
(0.000269202 -3.66899e-05 -9.35698e-31)
(0.000283184 -3.77671e-05 0)
(0.000298415 -3.90863e-05 0)
(0.000314975 -4.06821e-05 0)
(0.000332959 -4.26036e-05 0)
(0.000352482 -4.49194e-05 0)
(0.000373684 -4.77246e-05 0)
(0.000396744 -5.11506e-05 2.58821e-30)
(0.00042189 -5.53785e-05 -1.39165e-30)
(0.000449432 -6.06615e-05 0)
(0.000479802 -6.73591e-05 0)
(0.000513628 -7.59944e-05 0)
(0.000551866 -8.73505e-05 -8.90151e-30)
(0.000596052 -0.00010264 -5.25009e-30)
(0.000648882 -0.000123824 -3.06527e-32)
(0.000715798 -0.000154255 3.38154e-32)
(0.000810451 -0.000200337 -1.02423e-29)
(0.000980407 -0.000277843 -1.42715e-29)
(0.0015445 -0.000464723 4.76865e-29)
(0.00752147 -0.00425416 2.18868e-28)
(0.0149782 -0.00059817 0)
(0.0165744 0.00237157 -1.24955e-28)
(0.0159964 0.00197295 -2.07775e-28)
(0.0155599 0.00164986 0)
(0.0151968 0.00140289 0)
(0.0148767 0.00121747 6.5049e-29)
(0.0145845 0.00107725 0)
(0.0143128 0.00096868 0)
(0.0140576 0.000881775 -1.4207e-28)
(0.0138169 0.000809694 -8.76345e-29)
(0.0135897 0.000747943 -3.9951e-29)
(0.0133752 0.000693654 0)
(0.0131728 0.000645016 3.45905e-29)
(0.0129818 0.000600875 0)
(0.0128017 0.000560472 -9.17627e-29)
(0.0126318 0.000523286 2.82461e-29)
(0.0124715 0.000488933 5.40876e-29)
(0.0123203 0.000457115 7.55507e-29)
(0.0121775 0.000427589 0)
(0.0120427 0.000400145 -4.47856e-29)
(0.0119153 0.000374601 0)
(0.011795 0.000350797 -2.03634e-29)