/*--------------------------------*- C++ -*----------------------------------*\
  =========                 |
  \\      /  F ield         | OpenFOAM: The Open Source CFD Toolbox
   \\    /   O peration     | Website:  https://openfoam.org
    \\  /    A nd           | Version:  11
     \\/     M anipulation  |
\*---------------------------------------------------------------------------*/
FoamFile
{
    format      ascii;
    class       volScalarField;
    location    "49";
    object      p;
}
// * * * * * * * * * * * * * * * * * * * * * * * * * * * * * * * * * * * * * //

dimensions      [0 2 -2 0 0 0 0];

internalField   nonuniform List<scalar> 
2048
(
0.697944
0.695638
0.690994
0.683803
0.673917
0.661186
0.64543
0.626449
0.604056
0.578123
0.548619
0.515656
0.47952
0.440706
0.399917
0.35804
0.316081
0.275071
0.235944
0.199445
0.166076
0.136106
0.109619
0.0865492
0.066715
0.049835
0.0355478
0.0234315
0.0130225
0.00383297
-0.00463041
-0.0128459
-0.0212545
-0.0302354
-0.040081
-0.0509707
-0.0629453
-0.0758856
-0.0894981
-0.103315
-0.116713
-0.12894
-0.139204
-0.146707
-0.150808
-0.151009
-0.14709
-0.139162
-0.127654
-0.11325
-0.0968305
-0.0793467
-0.0617667
-0.0449253
-0.0295789
-0.0162059
-0.00527528
0.00316455
0.00881045
0.0120842
0.0126163
0.0114456
0.00783727
0.00377878
0.700321
0.698043
0.693448
0.686327
0.676516
0.663848
0.648121
0.629105
0.606585
0.580404
0.550506
0.516986
0.480132
0.440464
0.398742
0.355935
0.313142
0.271475
0.23191
0.195188
0.161776
0.131908
0.105636
0.0828738
0.0634181
0.0469694
0.0331504
0.0215248
0.0116145
0.00291511
-0.00508513
-0.012885
-0.0209473
-0.0296735
-0.0393777
-0.050258
-0.0623684
-0.0755946
-0.0896383
-0.104015
-0.11807
-0.131012
-0.141985
-0.150147
-0.154772
-0.155318
-0.151521
-0.143471
-0.131606
-0.116639
-0.0994992
-0.0811958
-0.0627589
-0.0450788
-0.0289632
-0.0149277
-0.00347995
0.00531697
0.0111257
0.0143858
0.0146843
0.0131444
0.00893117
0.00424673
0.705054
0.702833
0.698348
0.691377
0.681735
0.669217
0.65357
0.634507
0.61175
0.585077
0.554383
0.519726
0.481394
0.439956
0.396286
0.35153
0.307001
0.26399
0.223558
0.186419
0.15296
0.123333
0.0975284
0.0754128
0.0567423
0.0411813
0.0283223
0.017702
0.00881268
0.00111696
-0.0059347
-0.0128821
-0.0202318
-0.0284316
-0.0378412
-0.0486991
-0.0610891
-0.0749095
-0.0898528
-0.105399
-0.12083
-0.135272
-0.147736
-0.157277
-0.163031
-0.164319
-0.160779
-0.152479
-0.139872
-0.123734
-0.105091
-0.0850791
-0.0648566
-0.0454344
-0.0277245
-0.0123224
0.000197046
0.00973353
0.0158984
0.0191364
0.0189731
0.0166572
0.0112185
0.00520292
0.712077
0.709952
0.705652
0.698942
0.6896
0.677363
0.661901
0.642834
0.619775
0.592389
0.560474
0.524034
0.483355
0.43909
0.392294
0.344408
0.297125
0.252049
0.21035
0.172661
0.13922
0.110044
0.0850295
0.0639637
0.046538
0.0323664
0.0210024
0.0119458
0.00464578
-0.00148654
-0.00705855
-0.0126728
-0.0189036
-0.0262714
-0.0352092
-0.0460227
-0.0588468
-0.073606
-0.0899854
-0.107414
-0.125077
-0.141954
-0.156866
-0.168667
-0.176293
-0.178829
-0.175735
-0.167036
-0.153229
-0.135195
-0.114132
-0.091376
-0.0682956
-0.0460941
-0.0258452
-0.00827544
0.00594403
0.0166471
0.0233934
0.026617
0.0257722
0.0222345
0.0148731
0.00672687
0.721284
0.719308
0.715295
0.708997
0.70014
0.688385
0.673298
0.654363
0.631032
0.602775
0.569208
0.530213
0.486081
0.437629
0.386204
0.333743
0.282568
0.234729
0.19146
0.153202
0.119954
0.0915565
0.0677633
0.0482442
0.0325985
0.020382
0.0111087
0.0042357
-0.000842676
-0.00478385
-0.00827409
-0.0120033
-0.0166424
-0.022817
-0.0310689
-0.0418036
-0.0552349
-0.071332
-0.089777
-0.109943
-0.130882
-0.151364
-0.169995
-0.18524
-0.195706
-0.200114
-0.19775
-0.188528
-0.172969
-0.152136
-0.127497
-0.100713
-0.0734663
-0.0472425
-0.0233332
-0.00264813
0.0140285
0.0264086
0.034015
0.0372249
0.0354808
0.0301867
0.0201249
0.00887494
0.73251
0.730754
0.72717
0.72149
0.713378
0.7024
0.687986
0.669451
0.646025
0.616883
0.581326
0.538907
0.489848
0.43523
0.376954
0.317955
0.261623
0.210485
0.165593
0.126975
0.0943054
0.0672012
0.0452265
0.0278808
0.0146529
0.00504827
-0.00145103
-0.00543513
-0.00757708
-0.00861477
-0.00932737
-0.0105166
-0.0129869
-0.0175159
-0.0248024
-0.0353991
-0.0496392
-0.067564
-0.0888622
-0.112827
-0.138337
-0.163901
-0.187818
-0.208087
-0.222956
-0.230075
-0.228774
-0.218901
-0.200948
-0.176197
-0.146523
-0.114074
-0.0809996
-0.0491991
-0.0202561
0.0046797
0.0247248
0.0394227
0.0483118
0.051547
0.0486848
0.0409099
0.0272826
0.0115742
0.745515
0.744073
0.741096
0.736312
0.729306
0.719537
0.706242
0.688532
0.665338
0.635483
0.597833
0.551245
0.495573
0.431939
0.363262
0.294768
0.231761
0.177027
0.130836
0.0924417
0.0610821
0.0360921
0.0167599
0.00236887
-0.00768174
-0.0138973
-0.0168149
-0.0170832
-0.0154583
-0.0127738
-0.00990393
-0.0077696
-0.00734399
-0.00961533
-0.0155057
-0.0257818
-0.0409583
-0.0612032
-0.0862507
-0.115332
-0.147106
-0.179644
-0.210718
-0.237411
-0.259333
-0.270817
-0.271251
-0.260623
-0.239484
-0.209418
-0.172885
-0.132737
-0.0917853
-0.0524957
-0.0168396
0.0137289
0.0382181
0.055984
0.0666744
0.0701055
0.066047
0.0549677
0.0368424
0.0146806
0.759962
0.758947
0.756797
0.753261
0.747836
0.739905
0.72841
0.712226
0.689734
0.659401
0.619563
0.568218
0.504617
0.428397
0.344101
0.261915
0.19032
0.13178
0.0849176
0.0477824
0.0189858
-0.00262688
-0.0182253
-0.028749
-0.0347754
-0.0367341
-0.0351661
-0.0308128
-0.0245153
-0.0172123
-0.00989307
-0.00358504
0.000567599
0.00133283
-0.00247944
-0.0119044
-0.0277024
-0.0502429
-0.0793936
-0.114407
-0.153842
-0.195547
-0.236736
-0.274685
-0.303015
-0.321272
-0.325578
-0.315102
-0.290549
-0.253919
-0.208509
-0.158241
-0.10693
-0.0578484
-0.0134938
0.0243415
0.0545415
0.0762739
0.08927
0.0930938
0.087761
0.0727283
0.0491875
0.0182692
0.775405
0.77494
0.773855
0.771976
0.768711
0.763482
0.754819
0.741472
0.720581
0.690234
0.647208
0.589398
0.516065
0.422213
0.31556
0.21528
0.133562
0.0714129
0.0251668
-0.00868712
-0.0326079
-0.0488096
-0.0592317
-0.0649046
-0.0661252
-0.0631286
-0.0563807
-0.0467731
-0.03525
-0.0227399
-0.0103695
0.000699117
0.00916971
0.0136026
0.0125799
0.00482567
-0.010645
-0.0344114
-0.0665363
-0.106429
-0.152718
-0.203153
-0.254517
-0.302841
-0.343376
-0.371391
-0.383101
-0.376099
-0.350371
-0.308074
-0.253344
-0.191434
-0.127625
-0.0664436
-0.0112478
0.0356813
0.0730236
0.0997933
0.1157
0.120095
0.113165
0.0938476
0.0639782
0.0228251
0.791282
0.791481
0.791688
0.791874
0.791375
0.78987
0.785427
0.777175
0.760108
0.7322
0.684243
0.615402
0.522357
0.397488
0.260972
0.143257
0.0551264
-0.00663945
-0.0478982
-0.0738161
-0.0885527
-0.0963513
-0.100103
-0.100372
-0.0967585
-0.089244
-0.0779997
-0.0638523
-0.0478811
-0.0309974
-0.014221
0.00111338
0.0135548
0.0214664
0.0232981
0.0176221
0.0033604
-0.0201575
-0.0531416
-0.0952201
-0.145273
-0.20124
-0.260007
-0.317374
-0.368207
-0.407121
-0.428725
-0.42906
-0.406373
-0.36223
-0.300982
-0.228882
-0.152772
-0.078796
-0.0116067
0.0456885
0.091319
0.124116
0.143552
0.148611
0.139934
0.115973
0.0795906
0.0287125
0.80693
0.807871
0.809551
0.812113
0.814915
0.818031
0.819315
0.818911
0.809848
0.791605
0.742757
0.662022
0.519237
0.331737
0.162682
0.042502
-0.0365469
-0.086189
-0.113851
-0.12572
-0.127444
-0.126015
-0.124105
-0.120525
-0.113892
-0.104136
-0.0916055
-0.0765056
-0.0594969
-0.0414489
-0.0234823
-0.00694942
0.00688662
0.0163336
0.0201697
0.0168964
0.00527152
-0.0156869
-0.0466007
-0.0875506
-0.137855
-0.195755
-0.258296
-0.321255
-0.379213
-0.426257
-0.456349
-0.464606
-0.447425
-0.405292
-0.341915
-0.263711
-0.1785
-0.0938345
-0.0157847
0.0513923
0.105133
0.143882
0.166856
0.173027
0.162563
0.134423
0.0915884
0.0334423
0.821606
0.82331
0.826561
0.83163
0.838073
0.846261
0.854466
0.863722
0.867537
0.868408
0.837791
0.776066
0.565636
0.264595
0.0663759
-0.0370475
-0.0932976
-0.1251
-0.140577
-0.143504
-0.138036
-0.133875
-0.130928
-0.126611
-0.120017
-0.111023
-0.0997256
-0.0861929
-0.0708823
-0.054525
-0.0380485
-0.0225819
-0.00928112
0.000837796
0.00612804
0.00519102
-0.00335186
-0.0207643
-0.0480508
-0.085744
-0.133653
-0.190336
-0.253153
-0.318014
-0.379451
-0.431248
-0.467085
-0.480715
-0.468987
-0.430809
-0.368971
-0.289416
-0.200099
-0.109317
-0.0242234
0.0499358
0.109812
0.153213
0.178669
0.185114
0.173031
0.14272
0.0973887
0.0358343
0.834538
0.836969
0.84175
0.849238
0.859315
0.87249
0.887961
0.906916
0.925857
0.948408
0.958497
0.972211
0.838616
0.340527
0.0822028
-0.0403295
-0.0977063
-0.123253
-0.134816
-0.139144
-0.133438
-0.129374
-0.127412
-0.12435
-0.120071
-0.113898
-0.10554
-0.0951455
-0.0831366
-0.0700516
-0.0565646
-0.0435091
-0.0318108
-0.0223456
-0.0165346
-0.0157114
-0.0212817
-0.034632
-0.0570074
-0.0893116
-0.132085
-0.183911
-0.24292
-0.305434
-0.366188
-0.41887
-0.456941
-0.474233
-0.467405
-0.434217
-0.376873
-0.300646
-0.213037
-0.122288
-0.0358321
0.0405528
0.102711
0.14763
0.173408
0.179375
0.166967
0.137708
0.0940339
0.035111
0.84498
0.848046
0.854147
0.863755
0.876995
0.894618
0.916466
0.944125
0.976105
1.01582
1.05476
1.09826
1.05178
0.599488
0.311174
0.131325
0.0166786
-0.0536058
-0.0960451
-0.124032
-0.129829
-0.126199
-0.12562
-0.123789
-0.120954
-0.116915
-0.111454
-0.104572
-0.0964469
-0.0873844
-0.0777956
-0.0682023
-0.0592621
-0.0517105
-0.0465119
-0.044777
-0.0477481
-0.0567435
-0.0730281
-0.0975367
-0.132865
-0.17556
-0.226014
-0.281138
-0.336299
-0.385627
-0.422853
-0.44239
-0.439221
-0.411876
-0.3618
-0.293393
-0.213256
-0.128933
-0.0475063
0.025088
0.0842287
0.126612
0.150379
0.154778
0.143037
0.117316
0.0800569
0.0307722
0.852298
0.855838
0.862907
0.874098
0.889664
0.910654
0.937102
0.971272
1.01149
1.06254
1.11337
1.17412
1.14833
0.691366
0.387097
0.18939
0.0579867
-0.0261414
-0.0797336
-0.119284
-0.127817
-0.123842
-0.124118
-0.12337
-0.122231
-0.120497
-0.11803
-0.114796
-0.110852
-0.106318
-0.101361
-0.09619
-0.091042
-0.0864752
-0.0829087
-0.0810408
-0.0817643
-0.0861696
-0.0954923
-0.11103
-0.134148
-0.164515
-0.201895
-0.244429
-0.288715
-0.330022
-0.362558
-0.381144
-0.381732
-0.360863
-0.320388
-0.263573
-0.195802
-0.123715
-0.0536609
0.00873759
0.059041
0.0942477
0.113375
0.113267
0.103039
0.0830691
0.0560767
0.0218119
0.856032
0.859819
0.867407
0.879433
0.896254
0.918999
0.947927
0.985286
1.02976
1.08543
1.14207
1.20758
1.19156
0.748862
0.442288
0.233118
0.0886977
-0.0065815
-0.0687586
-0.116683
-0.12684
-0.122815
-0.123793
-0.124029
-0.124454
-0.12494
-0.12542
-0.125863
-0.126257
-0.126574
-0.126754
-0.126663
-0.126036
-0.125347
-0.124196
-0.122777
-0.121477
-0.121
-0.122392
-0.126965
-0.136085
-0.150611
-0.170954
-0.196444
-0.225101
-0.25357
-0.277383
-0.292265
-0.295771
-0.280098
-0.25026
-0.207404
-0.155476
-0.100487
-0.0476297
-0.00183687
0.033349
0.0556492
0.0648319
0.062167
0.0523396
0.0387483
0.0242175
0.0089587
0.85593
0.859718
0.867305
0.87933
0.896151
0.918894
0.947816
0.985166
1.02963
1.08527
1.14188
1.20736
1.19128
0.748651
0.442202
0.233165
0.0888474
-0.006399
-0.0686397
-0.11721
-0.126886
-0.123073
-0.124598
-0.125675
-0.127551
-0.130143
-0.133463
-0.13752
-0.142267
-0.147564
-0.153146
-0.158601
-0.163457
-0.166576
-0.168238
-0.167584
-0.164301
-0.158584
-0.151195
-0.143435
-0.136949
-0.133377
-0.134017
-0.139397
-0.148963
-0.160881
-0.17219
-0.179638
-0.181251
-0.171028
-0.151995
-0.124679
-0.0919044
-0.0578649
-0.026924
-0.00288975
0.0118194
0.0166594
0.0131143
0.0043934
-0.0053081
-0.0123539
-0.0128828
-0.00470378
0.851994
0.855533
0.862602
0.873792
0.889355
0.910338
0.936771
0.970916
1.01108
1.06206
1.11277
1.17343
1.14747
0.690574
0.386693
0.189452
0.0584033
-0.0255777
-0.0792514
-0.120327
-0.127438
-0.124142
-0.125986
-0.127761
-0.131002
-0.13557
-0.141593
-0.149124
-0.158101
-0.168288
-0.179211
-0.190123
-0.199979
-0.207442
-0.212171
-0.212293
-0.20683
-0.19544
-0.178613
-0.157703
-0.134772
-0.112214
-0.0922638
-0.0765875
-0.0658881
-0.0597224
-0.0565327
-0.0537882
-0.0479474
-0.0444386
-0.0358198
-0.0238272
-0.0107447
0.000418029
0.00660668
0.00579008
-0.00267661
-0.0174594
-0.0354804
-0.052299
-0.0632341
-0.0645401
-0.0520755
-0.0198952
0.844472
0.847537
0.853637
0.863242
0.876477
0.894089
0.915915
0.943532
0.975437
1.01502
1.05377
1.09697
1.05025
0.598282
0.31062
0.131562
0.0175783
-0.0522825
-0.0945428
-0.124122
-0.12773
-0.125219
-0.126824
-0.129369
-0.133987
-0.140376
-0.148938
-0.159733
-0.172672
-0.187423
-0.203315
-0.219278
-0.233798
-0.245074
-0.25216
-0.252297
-0.24393
-0.226276
-0.199665
-0.165635
-0.126749
-0.0861383
-0.0469305
-0.0117504
0.0176485
0.0405579
0.0573168
0.0691229
0.0775552
0.0807275
0.081719
0.0802672
0.0751033
0.0644541
0.0465502
0.0218274
-0.00863731
-0.041727
-0.0735482
-0.0984512
-0.1117
-0.108783
-0.0866952
-0.0363728
0.833827
0.836256
0.841034
0.848516
0.858586
0.871741
0.887188
0.906083
0.924948
0.947306
0.95713
0.970219
0.835461
0.337829
0.0811366
-0.039704
-0.0959573
-0.120919
-0.132018
-0.135319
-0.127695
-0.125102
-0.126394
-0.129714
-0.13542
-0.143655
-0.154639
-0.168433
-0.184889
-0.203551
-0.223536
-0.243431
-0.261352
-0.275595
-0.282652
-0.280915
-0.268246
-0.243627
-0.207445
-0.161538
-0.10894
-0.0534037
0.00122582
0.0516813
0.0955268
0.131342
0.158596
0.177426
0.188341
0.190545
0.185412
0.172983
0.152726
0.124239
0.0857225
0.04168
-0.0065512
-0.0544611
-0.0968353
-0.128188
-0.143861
-0.138195
-0.10957
-0.0494664
0.820694
0.822395
0.82564
0.830698
0.837127
0.84529
0.853457
0.862645
0.866351
0.867032
0.836045
0.773824
0.562403
0.261554
0.064832
-0.0369657
-0.0919885
-0.122503
-0.136219
-0.136422
-0.128205
-0.12492
-0.125988
-0.129661
-0.136179
-0.145864
-0.158818
-0.174975
-0.194028
-0.215329
-0.237745
-0.259408
-0.278018
-0.291671
-0.296772
-0.291157
-0.272878
-0.241208
-0.196859
-0.141954
-0.0797573
-0.0142457
0.05041
0.110465
0.163038
0.20632
0.239426
0.262023
0.273986
0.274643
0.26475
0.244177
0.21282
0.170977
0.1196
0.0618366
0.00155892
-0.0561068
-0.105604
-0.141019
-0.158496
-0.151565
-0.119219
-0.0547549
0.805817
0.806754
0.808424
0.810972
0.813749
0.816833
0.818057
0.817583
0.808365
0.789957
0.740711
0.659643
0.516127
0.328204
0.159593
0.0404475
-0.0373401
-0.0853185
-0.110892
-0.120247
-0.119512
-0.118671
-0.12162
-0.127751
-0.136516
-0.148067
-0.162645
-0.180242
-0.200442
-0.222381
-0.244671
-0.26502
-0.2813
-0.290903
-0.291252
-0.279933
-0.255592
-0.218138
-0.168746
-0.109721
-0.0441569
0.0244771
0.0926393
0.156797
0.213576
0.260295
0.295501
0.318672
0.329439
0.328179
0.31476
0.289021
0.251101
0.201839
0.14319
0.0785227
0.0124107
-0.0496701
-0.102336
-0.139396
-0.157667
-0.150816
-0.117586
-0.0537723
0.789975
0.790168
0.790359
0.790523
0.789988
0.788439
0.783919
0.775579
0.758342
0.730262
0.681974
0.612828
0.519367
0.393987
0.257209
0.139634
0.0519201
-0.0091809
-0.0495877
-0.0747396
-0.0893159
-0.0993125
-0.109238
-0.120122
-0.132032
-0.145461
-0.160981
-0.178752
-0.19832
-0.218673
-0.23844
-0.254493
-0.265731
-0.269775
-0.264389
-0.247939
-0.219751
-0.180177
-0.13055
-0.0730192
-0.010275
0.0547482
0.119161
0.180359
0.236044
0.283835
0.321171
0.345727
0.355359
0.352092
0.336114
0.30769
0.267227
0.215794
0.155599
0.0900788
0.0237352
-0.0380051
-0.0901775
-0.126855
-0.145061
-0.139305
-0.108083
-0.0487835
0.773909
0.773436
0.77233
0.770421
0.767108
0.761818
0.753062
0.739602
0.718536
0.687985
0.644668
0.586521
0.512803
0.418419
0.311183
0.210415
0.128282
0.0656617
0.0187536
-0.0162635
-0.0423507
-0.0626829
-0.0802719
-0.0967821
-0.112932
-0.129268
-0.146223
-0.163902
-0.181829
-0.199072
-0.214333
-0.226456
-0.232853
-0.232013
-0.222724
-0.204063
-0.175724
-0.138202
-0.0927106
-0.0410148
0.0147883
0.0724887
0.129901
0.184859
0.235056
0.278306
0.313013
0.33684
0.349383
0.34842
0.333886
0.306108
0.266276
0.216218
0.15842
0.0961778
0.0335802
-0.0244628
-0.0734434
-0.108178
-0.125636
-0.121419
-0.0940196
-0.0417796
0.758288
0.757261
0.755085
0.751509
0.746024
0.738013
0.726407
0.71008
0.687393
0.656813
0.616655
0.564896
0.500777
0.423884
0.338761
0.255644
0.182996
0.123152
0.0745663
0.0350247
0.00275786
-0.0239444
-0.0469244
-0.0676581
-0.0870057
-0.105437
-0.123191
-0.140283
-0.156361
-0.170823
-0.182875
-0.191459
-0.194345
-0.19064
-0.179807
-0.161343
-0.135112
-0.101583
-0.0617625
-0.017035
0.0309794
0.0805292
0.129801
0.176974
0.22045
0.258935
0.290129
0.31215
0.32342
0.323159
0.311106
0.287215
0.252137
0.207314
0.155142
0.0988435
0.042311
-0.0101111
-0.054242
-0.0858649
-0.101909
-0.0993745
-0.0763538
-0.033406
0.743675
0.742218
0.73921
0.734375
0.727296
0.717427
0.703999
0.686114
0.66269
0.632534
0.594494
0.547392
0.49106
0.426584
0.356858
0.287097
0.222567
0.165952
0.117364
0.0758515
0.0403778
0.00993351
-0.0165976
-0.0402644
-0.0617912
-0.0815686
-0.0997565
-0.116348
-0.131115
-0.143633
-0.153246
-0.159017
-0.159698
-0.15467
-0.143605
-0.126238
-0.102571
-0.0730336
-0.0384536
5.67454e-05
0.0411934
0.0835367
0.125641
0.166098
0.203574
0.236581
0.263502
0.282475
0.292606
0.293169
0.283579
0.263663
0.233937
0.195636
0.150857
0.102355
0.0535883
0.00821216
-0.0299134
-0.0576315
-0.072059
-0.0721351
-0.0544934
-0.0235062
0.730521
0.728747
0.725124
0.719384
0.711186
0.700089
0.685516
0.666773
0.643073
0.613572
0.577547
0.53452
0.484679
0.429073
0.369561
0.309038
0.250844
0.197421
0.149698
0.107546
0.0704511
0.0378167
0.00898925
-0.0166848
-0.0397203
-0.0604248
-0.0789242
-0.0951985
-0.109072
-0.120196
-0.128064
-0.132069
-0.131535
-0.125983
-0.115161
-0.098986
-0.0775849
-0.0513762
-0.0210655
0.0124216
0.0480148
0.0845587
0.120867
0.155742
0.187962
0.216231
0.239299
0.256009
0.265449
0.266812
0.259575
0.2436
0.219321
0.187744
0.150628
0.110218
0.0694543
0.0312432
-0.0010491
-0.0251612
-0.0384183
-0.0403652
-0.0318656
-0.0140523
0.719165
0.717167
0.713111
0.706743
0.697786
0.685893
0.670622
0.651447
0.627799
0.599128
0.565024
0.525337
0.480321
0.430753
0.377934
0.323749
0.270466
0.220062
0.173679
0.131646
0.093843
0.0599884
0.029743
0.00274396
-0.0213293
-0.0426909
-0.0614289
-0.07751
-0.0907866
-0.100997
-0.107792
-0.110789
-0.109573
-0.103807
-0.0933476
-0.078236
-0.058687
-0.0351167
-0.00814763
0.0214303
0.0527129
0.0847246
0.11645
0.146861
0.174923
0.199626
0.219965
0.234989
0.243848
0.245879
0.240686
0.228166
0.208667
0.182984
0.152541
0.119118
0.0851206
0.0527949
0.0249041
0.0030124
-0.0106519
-0.016499
-0.0145343
-0.00719985
0.70985
0.707701
0.703351
0.696563
0.687109
0.674718
0.659051
0.639713
0.6163
0.588453
0.555942
0.518738
0.477087
0.4316
0.383281
0.33352
0.283953
0.236125
0.191135
0.149544
0.111517
0.0770206
0.0459341
0.0180911
-0.00667816
-0.028498
-0.0474154
-0.0633901
-0.076302
-0.0859607
-0.0921235
-0.0945258
-0.0929121
-0.0870917
-0.0770185
-0.0628069
-0.0447199
-0.0231732
0.00126469
0.0278959
0.0559304
0.0845221
0.112795
0.139872
0.164882
0.186985
0.205286
0.21899
0.227398
0.22996
0.226339
0.216436
0.200533
0.179264
0.153792
0.12554
0.0964734
0.0683581
0.0434502
0.0228724
0.00839138
-0.000725509
-0.00326035
-0.00275396
0.702742
0.700495
0.695957
0.688902
0.679138
0.666452
0.650582
0.631225
0.608083
0.580913
0.549575
0.514097
0.474725
0.431982
0.386694
0.339955
0.293025
0.247142
0.203316
0.162212
0.124183
0.0893741
0.0578099
0.0294527
0.00423796
-0.0178873
-0.0369345
-0.0528588
-0.0655599
-0.0748919
-0.0806771
-0.0827336
-0.0809118
-0.0751257
-0.0653982
-0.0518865
-0.0348807
-0.0147975
0.00782676
0.0323547
0.0580769
0.084241
0.110074
0.134792
0.157608
0.177853
0.194696
0.207469
0.215568
0.218503
0.215966
0.20786
0.194416
0.176156
0.154059
0.129306
0.103555
0.0782626
0.0553169
0.0356065
0.0205855
0.00965306
0.00370556
2.79846e-05
0.697952
0.695647
0.690996
0.683785
0.673845
0.661001
0.645037
0.625711
0.602786
0.57608
0.545508
0.511128
0.473187
0.432159
0.388757
0.343898
0.298632
0.254022
0.211006
0.170291
0.132335
0.0973924
0.0655795
0.0369357
0.0114619
-0.0108474
-0.0299777
-0.0458792
-0.0584635
-0.0676107
-0.0731848
-0.0750584
-0.0731437
-0.0674145
-0.0579382
-0.0448995
-0.0286043
-0.00946999
0.0119858
0.0351632
0.059403
0.0840113
0.108281
0.131503
0.152991
0.171957
0.18786
0.20004
0.207936
0.211095
0.20923
0.202241
0.190323
0.173929
0.153916
0.131322
0.107603
0.084035
0.0622663
0.043077
0.0277403
0.0157535
0.00770345
0.00161662
0.695547
0.693213
0.68851
0.681228
0.671209
0.658296
0.642298
0.622998
0.60019
0.573719
0.543524
0.50968
0.472434
0.432233
0.389733
0.345771
0.301305
0.25732
0.214715
0.174214
0.136318
0.101331
0.0694142
0.0406445
0.0150531
-0.00734156
-0.0265116
-0.0424038
-0.0549353
-0.0639995
-0.0694811
-0.0712786
-0.0693305
-0.0636384
-0.0542923
-0.0414915
-0.0255485
-0.00688091
0.0140025
0.036519
0.0600333
0.0838806
0.107383
0.129864
0.150655
0.169064
0.184514
0.196402
0.204196
0.20746
0.205918
0.199466
0.188281
0.172781
0.153763
0.132196
0.109437
0.0866795
0.0654585
0.046518
0.0310287
0.0185463
0.00951386
0.00233605
)
;

boundaryField
{
    inlet
    {
        type            zeroGradient;
    }
    outlet
    {
        type            fixedValue;
        value           uniform 0;
    }
    top
    {
        type            symmetryPlane;
    }
    bottom
    {
        type            symmetryPlane;
    }
    frontAndBack
    {
        type            empty;
    }
}


// ************************************************************************* //
