/*--------------------------------*- C++ -*----------------------------------*\
  =========                 |
  \\      /  F ield         | OpenFOAM: The Open Source CFD Toolbox
   \\    /   O peration     | Website:  https://openfoam.org
    \\  /    A nd           | Version:  10
     \\/     M anipulation  |
\*---------------------------------------------------------------------------*/
FoamFile
{
    format      ascii;
    class       volScalarField;
    location    "9250";
    object      p;
}
// * * * * * * * * * * * * * * * * * * * * * * * * * * * * * * * * * * * * * //

dimensions      [1 -1 -2 0 0 0 0];

internalField   nonuniform List<scalar> 
3200
(
110.103
110.119
110.149
110.194
110.252
110.324
110.409
110.506
110.615
110.737
110.871
111.018
111.176
111.347
111.531
111.728
111.939
112.164
112.404
112.661
112.934
113.226
113.539
113.875
114.236
114.628
115.055
115.523
116.042
116.624
117.289
118.061
118.981
120.107
121.746
315.066
508.153
685.246
850.244
1002.86
107.618
107.633
107.663
107.708
107.765
107.836
107.919
108.015
108.123
108.243
108.375
108.519
108.674
108.842
109.022
109.215
109.42
109.639
109.871
110.118
110.38
110.659
110.955
111.27
111.605
111.962
112.342
112.746
113.175
113.629
114.104
114.589
115.063
115.485
115.775
115.823
115.936
116.183
116.77
173.939
105.1
105.115
105.145
105.188
105.244
105.313
105.394
105.487
105.592
105.708
105.836
105.975
106.125
106.286
106.459
106.642
106.838
107.045
107.263
107.494
107.737
107.993
108.262
108.543
108.837
109.144
109.463
109.791
110.127
110.467
110.804
111.13
111.435
111.706
111.934
112.118
112.285
112.446
112.661
126.795
102.551
102.566
102.594
102.635
102.689
102.756
102.834
102.923
103.023
103.135
103.256
103.388
103.531
103.683
103.845
104.018
104.199
104.391
104.592
104.802
105.022
105.25
105.487
105.731
105.983
106.24
106.501
106.764
107.026
107.284
107.534
107.771
107.991
108.191
108.367
108.52
108.651
108.762
108.895
115.967
99.9713
99.9851
100.012
100.052
100.103
100.166
100.24
100.325
100.42
100.525
100.639
100.763
100.896
101.038
101.188
101.347
101.514
101.688
101.869
102.057
102.252
102.452
102.657
102.866
103.078
103.291
103.504
103.715
103.922
104.122
104.313
104.493
104.659
104.81
104.943
105.059
105.157
105.236
105.332
110.032
97.3624
97.3755
97.4009
97.4382
97.4867
97.546
97.6155
97.6949
97.7838
97.8816
97.9882
98.103
98.2258
98.3561
98.4936
98.6378
98.7883
98.9447
99.1064
99.2728
99.4432
99.6169
99.7929
99.9703
100.148
100.325
100.499
100.669
100.834
100.993
101.142
101.282
101.41
101.526
101.628
101.717
101.791
101.851
101.925
105.533
94.7261
94.7383
94.7621
94.7969
94.8421
94.8974
94.9621
95.0358
95.118
95.2084
95.3065
95.4118
95.524
95.6425
95.767
95.8968
96.0316
96.1707
96.3136
96.4595
96.6077
96.7575
96.908
97.0583
97.2074
97.3542
97.4977
97.6367
97.7701
97.8968
98.0159
98.1264
98.2273
98.3182
98.3984
98.4676
98.5255
98.5722
98.6335
101.58
92.064
92.0753
92.0974
92.1296
92.1715
92.2225
92.2822
92.35
92.4255
92.5083
92.5978
92.6936
92.7952
92.9022
93.014
93.1301
93.2499
93.3729
93.4984
93.6258
93.7544
93.8833
94.012
94.1395
94.265
94.3876
94.5066
94.6211
94.7303
94.8334
94.9297
95.0186
95.0996
95.1723
95.2363
95.2916
95.3379
95.3755
95.4273
97.8948
89.3781
89.3886
89.4089
89.4385
89.4769
89.5237
89.5783
89.6403
89.7091
89.7843
89.8655
89.952
90.0436
90.1395
90.2394
90.3426
90.4487
90.557
90.667
90.7781
90.8895
91.0006
91.1108
91.2193
91.3256
91.4288
91.5284
91.6237
91.7141
91.7991
91.8782
91.951
92.0171
92.0762
92.1283
92.1732
92.2109
92.2415
92.2853
94.3494
86.6703
86.6799
86.6984
86.7255
86.7605
86.8032
86.8528
86.9091
86.9714
87.0394
87.1125
87.1903
87.2724
87.3581
87.4469
87.5385
87.6322
87.7275
87.8238
87.9206
88.0173
88.1134
88.2081
88.3011
88.3917
88.4794
88.5636
88.6439
88.7198
88.791
88.857
88.9175
88.9724
89.0214
89.0644
89.1014
89.1324
89.1574
89.1938
90.8445
83.9425
83.9512
83.968
83.9926
84.0244
84.063
84.1079
84.1587
84.2149
84.276
84.3417
84.4114
84.4846
84.5609
84.6398
84.7209
84.8036
84.8874
84.9719
85.0565
85.1407
85.2241
85.3062
85.3865
85.4644
85.5397
85.6118
85.6804
85.7452
85.8057
85.8618
85.9132
85.9598
86.0013
86.0376
86.0688
86.0947
86.1154
86.1453
87.3828
81.1964
81.2043
81.2195
81.2417
81.2704
81.3052
81.3456
81.3913
81.4418
81.4966
81.5553
81.6175
81.6827
81.7506
81.8206
81.8923
81.9653
82.0392
82.1134
82.1877
82.2614
82.3343
82.406
82.4759
82.5438
82.6092
82.6719
82.7316
82.7879
82.8405
82.8894
82.9342
82.9748
83.011
83.0429
83.0703
83.0933
83.1118
83.1399
84.3164
78.4339
78.441
78.4547
78.4746
78.5004
78.5316
78.5679
78.6088
78.654
78.7029
78.7553
78.8107
78.8688
78.929
78.9911
79.0546
79.1192
79.1844
79.2499
79.3154
79.3803
79.4445
79.5076
79.5693
79.6291
79.687
79.7425
79.7954
79.8455
79.8925
79.9363
79.9766
80.0134
80.0464
80.0757
80.101
80.1224
80.1399
80.1679
81.3255
75.6566
75.6629
75.6751
75.693
75.7161
75.744
75.7764
75.813
75.8532
75.8969
75.9435
75.9928
76.0443
76.0978
76.1529
76.2092
76.2663
76.3241
76.3821
76.4401
76.4977
76.5547
76.6108
76.6658
76.7194
76.7714
76.8215
76.8696
76.9154
76.9588
76.9995
77.0374
77.0722
77.1039
77.1322
77.1569
77.178
77.1955
77.2242
78.3771
72.8659
72.8716
72.8825
72.8984
72.919
72.9439
72.9728
73.0053
73.0411
73.0799
73.1213
73.1651
73.2108
73.2582
73.307
73.3569
73.4076
73.4589
73.5104
73.562
73.6134
73.6644
73.7148
73.7644
73.813
73.8605
73.9067
73.9515
73.9947
74.0362
74.0757
74.1131
74.1481
74.1805
74.21
74.2362
74.2588
74.2775
74.3089
75.4626
70.0634
70.0685
70.0782
70.0923
70.1106
70.1327
70.1584
70.1872
70.219
70.2533
70.29
70.3287
70.3692
70.4112
70.4544
70.4986
70.5436
70.5891
70.6349
70.6809
70.7269
70.7727
70.8182
70.8633
70.9079
70.9519
70.9953
71.0379
71.0797
71.1207
71.1607
71.1995
71.2371
71.2731
71.307
71.3383
71.3662
71.3895
71.429
72.5821
67.2504
67.2549
67.2635
67.276
67.2922
67.3117
67.3344
67.3599
67.3879
67.4182
67.4506
67.4848
67.5205
67.5576
67.5957
67.6348
67.6746
67.7149
67.7556
67.7965
67.8376
67.8788
67.9199
67.9609
68.0019
68.0428
68.0836
68.1245
68.1654
68.2066
68.2481
68.2899
68.3323
68.3752
68.4185
68.4617
68.5039
68.5434
68.6235
69.7537
64.4281
64.432
64.4396
64.4506
64.4648
64.482
64.502
64.5244
64.549
64.5757
64.6042
64.6342
64.6656
64.6981
64.7316
64.766
64.801
64.8365
64.8724
64.9086
64.9451
64.9817
65.0185
65.0555
65.0927
65.1302
65.1681
65.2066
65.2459
65.2864
65.3284
65.3725
65.4193
65.4698
65.525
65.5867
65.6567
65.738
66.0299
67.0325
61.5975
61.6009
61.6076
61.6172
61.6297
61.6447
61.6622
61.6818
61.7033
61.7266
61.7515
61.7777
61.805
61.8334
61.8627
61.8926
61.9231
61.9541
61.9854
62.0171
62.049
62.0811
62.1134
62.146
62.1788
62.2121
62.2459
62.2804
62.316
62.3529
62.3916
62.4327
62.477
62.5256
62.58
62.6421
62.7149
62.8026
63.4894
64.3279
58.7597
58.7627
58.7685
58.7769
58.7877
58.8008
58.816
58.833
58.8517
58.8719
58.8934
58.9161
58.9397
58.9642
58.9895
59.0153
59.0415
59.0682
59.0951
59.1222
59.1495
59.177
59.2046
59.2323
59.2601
59.2882
59.3166
59.3454
59.3748
59.4049
59.4359
59.468
59.5015
59.5365
59.5732
59.6116
59.6512
59.691
60.0903
61.2477
55.9157
55.9182
55.9232
55.9305
55.9399
55.9512
55.9642
55.9789
55.9949
56.0123
56.0307
56.0501
56.0704
56.0913
56.1127
56.1346
56.1569
56.1793
56.202
56.2247
56.2475
56.2702
56.2928
56.3154
56.3379
56.3603
56.3825
56.4046
56.4266
56.4483
56.4699
56.4911
56.5118
56.5317
56.5504
56.567
56.5807
56.5901
56.6251
58.1269
53.0662
53.0684
53.0727
53.0789
53.0869
53.0966
53.1077
53.1202
53.1338
53.1486
53.1642
53.1806
53.1976
53.2152
53.2332
53.2514
53.2698
53.2884
53.3069
53.3254
53.3437
53.3619
53.3797
53.3972
53.4143
53.4309
53.447
53.4624
53.4771
53.4909
53.5037
53.5152
53.5252
53.5332
53.539
53.5419
53.5415
53.5369
53.5275
55.1514
50.2121
50.214
50.2176
50.2229
50.2296
50.2378
50.2472
50.2577
50.2691
50.2815
50.2945
50.3081
50.3223
50.3367
50.3515
50.3663
50.3813
50.3961
50.4109
50.4254
50.4396
50.4534
50.4667
50.4794
50.4915
50.5029
50.5133
50.5228
50.5312
50.5382
50.5438
50.5477
50.5497
50.5495
50.5468
50.5415
50.5332
50.5217
50.507
52.1546
47.3541
47.3556
47.3587
47.3631
47.3687
47.3755
47.3833
47.392
47.4015
47.4117
47.4224
47.4335
47.4449
47.4566
47.4684
47.4802
47.4919
47.5034
47.5147
47.5256
47.536
47.5459
47.5552
47.5637
47.5715
47.5782
47.584
47.5885
47.5918
47.5935
47.5936
47.592
47.5883
47.5824
47.5741
47.5633
47.5497
47.5331
47.5136
48.9809
44.4928
44.4941
44.4966
44.5002
44.5048
44.5104
44.5168
44.5239
44.5315
44.5397
44.5483
44.5572
44.5663
44.5754
44.5845
44.5936
44.6024
44.611
44.6191
44.6268
44.634
44.6405
44.6463
44.6513
44.6553
44.6584
44.6603
44.661
44.6604
44.6583
44.6545
44.6491
44.6417
44.6323
44.6207
44.6066
44.59
44.5704
44.5476
45.4602
41.6287
41.6298
41.6318
41.6347
41.6385
41.643
41.6481
41.6537
41.6598
41.6663
41.673
41.6799
41.6868
41.6937
41.7005
41.7071
41.7134
41.7194
41.7249
41.7298
41.7342
41.7378
41.7407
41.7428
41.7439
41.744
41.743
41.7408
41.7374
41.7327
41.7265
41.7188
41.7095
41.6985
41.6857
41.671
41.6543
41.6355
41.6143
41.9106
38.7625
38.7633
38.7649
38.7672
38.7702
38.7737
38.7777
38.7821
38.7868
38.7917
38.7968
38.8019
38.807
38.812
38.8168
38.8213
38.8254
38.8291
38.8323
38.835
38.837
38.8383
38.8388
38.8385
38.8373
38.8351
38.832
38.8278
38.8224
38.816
38.8084
38.7995
38.7895
38.7782
38.7656
38.7518
38.7369
38.7209
38.7038
38.9668
35.8945
35.8951
35.8964
35.8982
35.9004
35.9031
35.9062
35.9095
35.9129
35.9166
35.9202
35.9238
35.9273
35.9306
35.9337
35.9364
35.9387
35.9406
35.9419
35.9426
35.9427
35.942
35.9407
35.9385
35.9355
35.9316
35.9268
35.9211
35.9145
35.9069
35.8984
35.889
35.8787
35.8676
35.8557
35.8431
35.8298
35.8161
35.802
36.0302
33.0252
33.0256
33.0266
33.0279
33.0296
33.0316
33.0338
33.0361
33.0386
33.0411
33.0435
33.0459
33.048
33.0499
33.0515
33.0528
33.0536
33.0539
33.0537
33.0528
33.0514
33.0492
33.0463
33.0427
33.0382
33.033
33.027
33.0202
33.0125
33.0041
32.995
32.9852
32.9747
32.9637
32.9522
32.9404
32.9283
32.9161
32.9039
33.0935
30.1548
30.1551
30.1558
30.1568
30.1579
30.1593
30.1608
30.1624
30.164
30.1656
30.167
30.1683
30.1694
30.1702
30.1706
30.1707
30.1702
30.1693
30.1679
30.1658
30.1631
30.1597
30.1557
30.1509
30.1453
30.139
30.132
30.1242
30.1157
30.1066
30.0968
30.0864
30.0755
30.0643
30.0528
30.041
30.0293
30.0175
30.006
30.0966
27.2837
27.2839
27.2844
27.285
27.2858
27.2867
27.2876
27.2886
27.2895
27.2903
27.291
27.2914
27.2916
27.2915
27.291
27.2901
27.2888
27.2869
27.2845
27.2815
27.2779
27.2736
27.2687
27.263
27.2566
27.2495
27.2416
27.233
27.2237
27.2137
27.203
27.1919
27.1802
27.1682
27.156
27.1436
27.1313
27.1192
27.1073
27.1046
24.4121
24.4122
24.4125
24.4129
24.4134
24.4139
24.4144
24.4148
24.4152
24.4154
24.4155
24.4153
24.4148
24.4141
24.4129
24.4113
24.4093
24.4068
24.4037
24.4001
24.3959
24.391
24.3854
24.3791
24.3721
24.3643
24.3558
24.3465
24.3364
24.3255
24.3139
24.3016
24.2886
24.2751
24.2613
24.2475
24.2339
24.2209
24.2091
24.2061
21.5402
21.5403
21.5404
21.5406
21.5408
21.541
21.5412
21.5413
21.5412
21.541
21.5407
21.54
21.5391
21.5379
21.5363
21.5343
21.5318
21.5289
21.5255
21.5215
21.5169
21.5116
21.5058
21.4992
21.4919
21.4838
21.4749
21.4651
21.4545
21.4429
21.4303
21.4166
21.4018
21.386
21.369
21.3512
21.3331
21.3158
21.3016
21.301
18.6681
18.6681
18.6682
18.6682
18.6683
18.6683
18.6682
18.668
18.6677
18.6673
18.6666
18.6657
18.6645
18.663
18.6612
18.6589
18.6563
18.6532
18.6497
18.6456
18.6409
18.6357
18.6298
18.6233
18.6161
18.6081
18.5993
18.5897
18.5791
18.5674
18.5545
18.5402
18.5241
18.5059
18.4848
18.4596
18.4286
18.3887
18.3348
18.2929
15.796
15.796
15.796
15.7959
15.7958
15.7957
15.7955
15.7952
15.7947
15.7941
15.7933
15.7922
15.7909
15.7893
15.7875
15.7852
15.7826
15.7796
15.7762
15.7723
15.7678
15.7629
15.7574
15.7514
15.7447
15.7373
15.7292
15.7204
15.7108
15.7003
15.6888
15.6763
15.6626
15.6477
15.6316
15.6141
15.5956
15.5768
15.5593
15.5464
12.9239
12.9238
12.9238
12.9237
12.9236
12.9234
12.9231
12.9227
12.9222
12.9215
12.9206
12.9196
12.9184
12.9168
12.9151
12.913
12.9106
12.9079
12.9048
12.9013
12.8973
12.893
12.8882
12.8829
12.8771
12.8708
12.8639
12.8565
12.8485
12.8399
12.8308
12.821
12.8108
12.8002
12.7892
12.7783
12.7676
12.7577
12.7491
12.7425
10.0518
10.0518
10.0517
10.0516
10.0514
10.0512
10.0509
10.0505
10.05
10.0494
10.0487
10.0477
10.0466
10.0453
10.0438
10.042
10.04
10.0377
10.0351
10.0322
10.029
10.0255
10.0215
10.0173
10.0126
10.0076
10.0022
9.99643
9.9903
9.98384
9.97709
9.9701
9.96295
9.95575
9.94861
9.94171
9.93523
9.92938
9.92434
9.92026
7.17979
7.17976
7.1797
7.1796
7.17947
7.17928
7.17903
7.17872
7.17832
7.17782
7.17722
7.1765
7.17564
7.17464
7.17347
7.17213
7.1706
7.16888
7.16694
7.16478
7.16239
7.15976
7.15689
7.15377
7.1504
7.14679
7.14295
7.13888
7.13461
7.13018
7.12561
7.12096
7.1163
7.11169
7.10721
7.10296
7.09902
7.09547
7.0924
7.08985
4.30784
4.30782
4.30778
4.30772
4.30762
4.3075
4.30734
4.30713
4.30687
4.30655
4.30617
4.30571
4.30517
4.30454
4.30381
4.30297
4.30202
4.30095
4.29976
4.29843
4.29696
4.29535
4.2936
4.29171
4.28968
4.28752
4.28523
4.28282
4.28032
4.27774
4.27511
4.27246
4.26983
4.26726
4.26479
4.26246
4.26031
4.25838
4.25669
4.25527
1.43594
1.43594
1.43592
1.4359
1.43587
1.43582
1.43577
1.43569
1.4356
1.43549
1.43536
1.43521
1.43502
1.43481
1.43456
1.43427
1.43395
1.43359
1.43318
1.43274
1.43224
1.4317
1.43111
1.43048
1.4298
1.42908
1.42832
1.42753
1.4267
1.42586
1.425
1.42414
1.42329
1.42247
1.42168
1.42093
1.42025
1.41963
1.41909
1.41863
1037.47
926.958
780.595
628.366
470.224
305.041
130.119
122.521
120.953
119.703
118.676
117.808
117.058
116.399
115.812
115.283
114.803
114.363
113.958
113.585
113.239
112.918
112.62
112.343
112.085
111.846
111.624
111.419
111.23
111.057
110.898
110.755
110.627
110.514
110.415
110.332
110.265
110.213
110.178
110.16
174.228
124.395
118.135
117.584
117.217
117.022
117.002
116.798
116.345
115.784
115.192
114.605
114.043
113.512
113.015
112.551
112.118
111.715
111.339
110.988
110.66
110.354
110.068
109.801
109.552
109.32
109.104
108.904
108.72
108.55
108.395
108.255
108.129
108.018
107.921
107.839
107.773
107.722
107.687
107.67
124.849
115.855
113.885
113.617
113.369
113.141
112.917
112.661
112.352
111.997
111.612
111.21
110.802
110.399
110.005
109.625
109.26
108.912
108.581
108.267
107.97
107.689
107.425
107.176
106.943
106.724
106.52
106.33
106.153
105.991
105.842
105.707
105.586
105.479
105.385
105.306
105.242
105.193
105.159
105.142
114.8
110.087
109.575
109.475
109.348
109.199
109.027
108.831
108.608
108.359
108.088
107.801
107.503
107.199
106.894
106.591
106.293
106.003
105.722
105.451
105.191
104.942
104.705
104.48
104.266
104.065
103.877
103.7
103.535
103.383
103.243
103.116
103.001
102.899
102.81
102.735
102.674
102.627
102.595
102.578
108.874
105.543
105.552
105.527
105.472
105.39
105.282
105.151
104.998
104.824
104.632
104.425
104.205
103.977
103.742
103.505
103.267
103.03
102.797
102.568
102.346
102.131
101.923
101.724
101.534
101.353
101.182
101.021
100.871
100.73
100.601
100.483
100.376
100.281
100.198
100.127
100.07
100.026
99.9956
99.9802
104.338
101.761
101.794
101.801
101.784
101.744
101.682
101.6
101.499
101.38
101.245
101.096
100.935
100.764
100.585
100.401
100.213
100.023
99.8324
99.6434
99.4569
99.2741
99.0959
98.9233
98.7569
98.5974
98.4453
98.3012
98.1655
98.0386
97.921
97.813
97.7151
97.6277
97.5512
97.486
97.4327
97.3918
97.3639
97.3496
100.28
98.1968
98.2348
98.2553
98.2581
98.2434
98.2115
98.163
98.0987
98.0194
97.9262
97.8204
97.7033
97.5764
97.4411
97.2992
97.152
97.001
96.8477
96.6933
96.5391
96.3862
96.2356
96.0882
95.9448
95.8063
95.6732
95.5462
95.4258
95.3127
95.2074
95.1102
95.0218
94.9425
94.873
94.8136
94.7649
94.7275
94.7019
94.6888
96.4399
94.7747
94.8156
94.8436
94.8585
94.8599
94.8479
94.8225
94.7842
94.7333
94.6706
94.5969
94.5129
94.4198
94.3186
94.2104
94.0964
93.9777
93.8555
93.7309
93.605
93.4786
93.3529
93.2287
93.1068
92.9881
92.8732
92.7628
92.6575
92.5581
92.4649
92.3787
92.2998
92.2289
92.1665
92.1131
92.0692
92.0354
92.0123
92.0004
92.6866
91.4566
91.5001
91.5338
91.5572
91.5699
91.5718
91.5628
91.5432
91.513
91.4727
91.4228
91.364
91.2968
91.222
91.1405
91.0531
90.9608
90.8644
90.7648
90.663
90.5598
90.456
90.3526
90.2502
90.1496
90.0516
89.9568
89.8659
89.7795
89.6981
89.6225
89.553
89.4904
89.435
89.3876
89.3485
89.3183
89.2977
89.2871
88.8742
88.2186
88.2659
88.3049
88.3351
88.3564
88.3685
88.3713
88.3652
88.35
88.3263
88.2942
88.2542
88.2068
88.1525
88.092
88.0258
87.9548
87.8795
87.8007
87.7192
87.6358
87.551
87.4657
87.3806
87.2964
87.2137
87.1332
87.0555
86.9813
86.9111
86.8454
86.785
86.7302
86.6817
86.64
86.6056
86.579
86.5607
86.5514
85.0109
85.047
85.1014
85.1461
85.1817
85.2089
85.2279
85.2388
85.2419
85.2375
85.2255
85.2065
85.1806
85.1481
85.1096
85.0654
85.016
84.962
84.9039
84.8422
84.7777
84.7108
84.6423
84.5727
84.5026
84.4328
84.3637
84.2961
84.2304
84.1673
84.1073
84.051
83.9989
83.9516
83.9096
83.8733
83.8433
83.8201
83.8041
83.7959
81.938
81.9727
82.0193
82.0598
82.0939
82.1217
82.143
82.158
82.1666
82.1689
82.1651
82.1552
82.1395
82.1183
82.0917
82.0601
82.0239
81.9834
81.939
81.8913
81.8407
81.7877
81.7328
81.6766
81.6195
81.5622
81.5051
81.4488
81.3938
81.3407
81.29
81.2422
81.1978
81.1573
81.1212
81.09
81.0642
81.0441
81.0303
81.0232
78.9212
78.9521
78.9909
79.0257
79.0562
79.0822
79.1034
79.1198
79.1312
79.1376
79.139
79.1355
79.1272
79.1141
79.0965
79.0746
79.0486
79.0188
78.9855
78.949
78.9099
78.8683
78.8249
78.7799
78.7339
78.6872
78.6405
78.5941
78.5486
78.5044
78.4619
78.4217
78.3842
78.3499
78.3193
78.2927
78.2706
78.2534
78.2416
78.2356
75.9377
75.9657
75.9982
76.0281
76.055
76.0787
76.0989
76.1154
76.1281
76.1369
76.1418
76.1426
76.1395
76.1324
76.1215
76.107
76.0889
76.0675
76.0429
76.0156
75.9857
75.9536
75.9196
75.884
75.8473
75.8099
75.772
75.7342
75.6968
75.6604
75.6252
75.5917
75.5604
75.5316
75.5059
75.4834
75.4648
75.4503
75.4403
75.4351
72.9761
73.0019
73.0301
73.0564
73.0805
73.1022
73.1212
73.1375
73.1508
73.1611
73.1681
73.172
73.1726
73.17
73.1641
73.1552
73.1432
73.1284
73.1109
73.0908
73.0684
73.044
73.0178
72.9901
72.9612
72.9314
72.9012
72.8707
72.8404
72.8106
72.7818
72.7542
72.7283
72.7045
72.683
72.6643
72.6487
72.6365
72.6281
72.6238
70.0309
70.055
70.0803
70.1041
70.1262
70.1464
70.1646
70.1806
70.1942
70.2053
70.2139
70.2199
70.2232
70.2239
70.2219
70.2173
70.2101
70.2004
70.1884
70.1742
70.1579
70.1397
70.1199
70.0987
70.0763
70.053
70.0291
70.0049
69.9806
69.9566
69.9332
69.9108
69.8896
69.87
69.8524
69.8369
69.824
69.8139
69.8069
69.8033
67.0999
67.1224
67.1457
67.1677
67.1884
67.2075
67.2249
67.2406
67.2543
67.2661
67.2757
67.2833
67.2886
67.2918
67.2927
67.2914
67.2879
67.2823
67.2746
67.2651
67.2537
67.2406
67.2261
67.2102
67.1932
67.1753
67.1567
67.1377
67.1186
67.0995
67.0808
67.0628
67.0457
67.0298
67.0154
67.0028
66.9923
66.984
66.9783
66.9753
64.1814
64.2024
64.2241
64.2447
64.2642
64.2824
64.2992
64.3146
64.3284
64.3405
64.351
64.3596
64.3665
64.3715
64.3746
64.3759
64.3753
64.3729
64.3687
64.3629
64.3554
64.3465
64.3362
64.3247
64.3122
64.2988
64.2847
64.2701
64.2552
64.2403
64.2256
64.2113
64.1977
64.185
64.1735
64.1633
64.1548
64.1481
64.1435
64.1411
61.2736
61.2932
61.3137
61.3332
61.3517
61.3691
61.3854
61.4005
61.4142
61.4266
61.4376
61.4471
61.455
61.4614
61.4662
61.4695
61.4711
61.4713
61.4698
61.467
61.4627
61.4571
61.4503
61.4424
61.4335
61.4238
61.4134
61.4024
61.3912
61.3798
61.3684
61.3573
61.3467
61.3367
61.3276
61.3196
61.3128
61.3075
61.3038
61.3018
58.3751
58.3936
58.413
58.4315
58.4492
58.466
58.4818
58.4965
58.5101
58.5226
58.5339
58.544
58.5527
58.5602
58.5663
58.571
58.5744
58.5765
58.5772
58.5767
58.575
58.5721
58.5681
58.5631
58.5572
58.5505
58.5431
58.5352
58.527
58.5185
58.51
58.5016
58.4934
58.4857
58.4787
58.4724
58.4671
58.463
58.4601
58.4585
55.4863
55.5031
55.5213
55.5388
55.5556
55.5717
55.5869
55.6013
55.6147
55.6272
55.6387
55.6491
55.6584
55.6665
55.6736
55.6795
55.6842
55.6878
55.6903
55.6916
55.6919
55.6911
55.6893
55.6867
55.6832
55.679
55.6742
55.6688
55.663
55.657
55.6508
55.6446
55.6385
55.6328
55.6274
55.6227
55.6187
55.6155
55.6132
55.6121
52.6047
52.62
52.6371
52.6537
52.6697
52.6851
52.6998
52.7137
52.7269
52.7392
52.7507
52.7613
52.7709
52.7796
52.7874
52.7941
52.7998
52.8046
52.8084
52.8111
52.813
52.8139
52.8139
52.8132
52.8116
52.8094
52.8066
52.8033
52.7996
52.7955
52.7912
52.7869
52.7826
52.7784
52.7746
52.7711
52.7681
52.7657
52.7641
52.7632
49.7292
49.7433
49.7595
49.7752
49.7905
49.8052
49.8193
49.8328
49.8456
49.8577
49.8691
49.8797
49.8896
49.8986
49.9068
49.9141
49.9206
49.9262
49.931
49.9349
49.9379
49.9402
49.9416
49.9423
49.9424
49.9418
49.9406
49.9389
49.9368
49.9344
49.9317
49.9289
49.9261
49.9232
49.9205
49.9181
49.916
49.9143
49.9131
49.9125
46.8594
46.8723
46.8876
46.9025
46.917
46.9311
46.9446
46.9576
46.9701
46.9819
46.9931
47.0037
47.0136
47.0228
47.0313
47.039
47.046
47.0522
47.0577
47.0624
47.0664
47.0696
47.0722
47.0741
47.0754
47.076
47.0762
47.0758
47.0751
47.0739
47.0725
47.071
47.0693
47.0675
47.0658
47.0642
47.0628
47.0617
47.0609
47.0605
43.9948
44.0065
44.0209
44.0351
44.0488
44.0622
44.0751
44.0876
44.0996
44.1111
44.1221
44.1325
44.1424
44.1516
44.1602
44.1682
44.1755
44.1821
44.1881
44.1934
44.1981
44.2021
44.2055
44.2083
44.2105
44.2121
44.2133
44.214
44.2143
44.2142
44.2138
44.2132
44.2125
44.2116
44.2107
44.2098
44.209
44.2083
44.2078
44.2076
41.1349
41.1453
41.1589
41.1722
41.1852
41.1979
41.2102
41.2222
41.2337
41.2448
41.2555
41.2657
41.2753
41.2845
41.2931
41.3012
41.3086
41.3156
41.3219
41.3276
41.3327
41.3373
41.3413
41.3447
41.3477
41.3501
41.352
41.3535
41.3546
41.3554
41.3558
41.356
41.3559
41.3558
41.3555
41.3551
41.3548
41.3545
41.3542
41.3541
38.2787
38.288
38.3007
38.3133
38.3255
38.3376
38.3493
38.3607
38.3717
38.3824
38.3927
38.4026
38.4121
38.4211
38.4296
38.4376
38.4452
38.4522
38.4587
38.4647
38.4701
38.475
38.4795
38.4834
38.4868
38.4898
38.4923
38.4944
38.4961
38.4975
38.4985
38.4993
38.4998
38.5002
38.5004
38.5005
38.5005
38.5005
38.5004
38.5004
35.426
35.4342
35.4461
35.4579
35.4694
35.4808
35.4919
35.5027
35.5133
35.5235
35.5335
35.543
35.5522
35.561
35.5693
35.5773
35.5848
35.5918
35.5983
35.6044
35.61
35.6152
35.6198
35.624
35.6278
35.6311
35.6341
35.6366
35.6387
35.6405
35.642
35.6433
35.6442
35.645
35.6456
35.646
35.6463
35.6465
35.6466
35.6467
32.5761
32.5833
32.5944
32.6055
32.6163
32.627
32.6376
32.6479
32.658
32.6678
32.6773
32.6865
32.6954
32.7039
32.712
32.7198
32.7271
32.734
32.7405
32.7466
32.7522
32.7575
32.7622
32.7666
32.7706
32.7741
32.7773
32.7801
32.7825
32.7847
32.7865
32.788
32.7893
32.7903
32.7912
32.7918
32.7923
32.7927
32.7929
32.793
29.7288
29.735
29.7454
29.7556
29.7658
29.776
29.7859
29.7958
29.8054
29.8148
29.8239
29.8328
29.8413
29.8495
29.8574
29.8649
29.872
29.8787
29.8851
29.8911
29.8966
29.9018
29.9066
29.911
29.915
29.9186
29.9219
29.9249
29.9275
29.9298
29.9318
29.9335
29.935
29.9362
29.9372
29.9381
29.9387
29.9392
29.9395
29.9396
26.8845
26.889
26.8983
26.9078
26.9174
26.927
26.9366
26.946
26.9553
26.9644
26.9732
26.9817
26.9899
26.9977
27.0053
27.0125
27.0193
27.0258
27.0319
27.0376
27.043
27.048
27.0527
27.057
27.061
27.0646
27.0679
27.0709
27.0735
27.0759
27.078
27.0798
27.0814
27.0827
27.0839
27.0848
27.0855
27.086
27.0864
27.0866
24.0387
24.0422
24.051
24.0603
24.0699
24.0795
24.0891
24.0985
24.1076
24.1165
24.125
24.1332
24.141
24.1485
24.1556
24.1624
24.1689
24.175
24.1807
24.1862
24.1913
24.196
24.2005
24.2046
24.2084
24.2119
24.2151
24.218
24.2206
24.223
24.2251
24.2269
24.2285
24.2299
24.231
24.232
24.2327
24.2333
24.2337
24.2339
21.1902
21.1917
21.2012
21.212
21.223
21.2338
21.244
21.2537
21.2628
21.2715
21.2797
21.2874
21.2948
21.3017
21.3083
21.3146
21.3206
21.3262
21.3315
21.3365
21.3412
21.3456
21.3497
21.3536
21.3571
21.3604
21.3634
21.3662
21.3687
21.3709
21.3729
21.3747
21.3763
21.3776
21.3788
21.3797
21.3805
21.381
21.3814
21.3816
18.2865
18.3153
18.3432
18.3638
18.3797
18.3927
18.4037
18.4135
18.4222
18.4302
18.4377
18.4447
18.4512
18.4575
18.4634
18.4689
18.4742
18.4793
18.484
18.4885
18.4927
18.4967
18.5004
18.5039
18.5071
18.5101
18.5128
18.5153
18.5176
18.5197
18.5216
18.5232
18.5247
18.526
18.527
18.5279
18.5286
18.5292
18.5296
18.5297
15.5404
15.5412
15.5459
15.5524
15.5595
15.5667
15.5738
15.5806
15.5871
15.5933
15.5992
15.6049
15.6103
15.6155
15.6204
15.6252
15.6297
15.634
15.638
15.6419
15.6456
15.649
15.6522
15.6553
15.6581
15.6607
15.6631
15.6653
15.6674
15.6692
15.6709
15.6724
15.6737
15.6748
15.6758
15.6766
15.6773
15.6778
15.6781
15.6783
12.7382
12.736
12.7358
12.7371
12.7395
12.7427
12.7464
12.7503
12.7545
12.7587
12.7629
12.7671
12.7712
12.7752
12.7791
12.7829
12.7865
12.79
12.7933
12.7965
12.7995
12.8024
12.8051
12.8076
12.81
12.8122
12.8142
12.8161
12.8178
12.8194
12.8208
12.8221
12.8232
12.8242
12.825
12.8257
12.8263
12.8267
12.827
12.8271
9.9172
9.91514
9.91404
9.91383
9.91439
9.9156
9.91732
9.91945
9.92187
9.9245
9.92727
9.93012
9.93302
9.93591
9.93877
9.94158
9.94432
9.94698
9.94955
9.95201
9.95436
9.95659
9.95871
9.9607
9.96257
9.96432
9.96594
9.96744
9.96882
9.97007
9.97121
9.97223
9.97313
9.97392
9.9746
9.97516
9.97562
9.97597
9.9762
9.97632
7.08782
7.08629
7.08528
7.08476
7.08471
7.08508
7.08583
7.0869
7.08822
7.08975
7.09144
7.09323
7.0951
7.09702
7.09895
7.10087
7.10276
7.10462
7.10642
7.10816
7.10984
7.11143
7.11295
7.11439
7.11573
7.117
7.11817
7.11926
7.12026
7.12118
7.12201
7.12275
7.12341
7.12399
7.12449
7.12491
7.12524
7.1255
7.12567
7.12576
4.2541
4.25319
4.25253
4.25212
4.25196
4.25204
4.25233
4.25281
4.25346
4.25424
4.25513
4.25611
4.25715
4.25823
4.25933
4.26044
4.26155
4.26264
4.26371
4.26474
4.26574
4.2667
4.26761
4.26847
4.26929
4.27005
4.27076
4.27142
4.27203
4.27259
4.27309
4.27354
4.27395
4.2743
4.2746
4.27486
4.27506
4.27522
4.27533
4.27538
1.41825
1.41795
1.41772
1.41757
1.4175
1.41751
1.41758
1.41772
1.41791
1.41815
1.41843
1.41874
1.41907
1.41942
1.41977
1.42014
1.4205
1.42086
1.42121
1.42156
1.42189
1.42221
1.42251
1.4228
1.42307
1.42333
1.42356
1.42379
1.42399
1.42418
1.42434
1.4245
1.42463
1.42475
1.42485
1.42494
1.42501
1.42506
1.4251
1.42511
)
;

boundaryField
{
    top
    {
        type            fixedValue;
        value           uniform 0;
    }
    inlet
    {
        type            darcyGradPressure;
        gradient        nonuniform List<scalar> 
80
(
9.81
9.81
9.81
9.81
9.81
9.81
9.81
9.81
9.81
9.81
9.81
9.81
9.81
9.81
9.81
9.81
9.81
9.81
9.81
9.81
9.81
9.81
9.81
9.81
9.81
9.81
9.81
9.81
9.81
9.81
9.81
9.81
9.81
9.81
9.8103
5798.84
9367.39
9604.82
9699.14
9756.6
9800.57
9779.39
9749.49
9700.12
9588.77
9056.59
38.9711
9.81
9.81
9.81
9.81
9.81
9.81
9.81
9.81
9.81
9.81
9.81
9.81
9.81
9.81
9.81
9.81
9.81
9.81
9.81
9.81
9.81
9.81
9.81
9.81
9.81
9.81
9.81
9.81
9.81
9.81
9.81
9.81
9.81
)
;
        value           nonuniform List<scalar> 
80
(
111.33
111.345
111.376
111.42
111.479
111.55
111.635
111.732
111.842
111.963
112.097
112.244
112.402
112.574
112.758
112.955
113.165
113.391
113.631
113.887
114.16
114.452
114.765
115.101
115.463
115.854
116.281
116.749
117.268
117.851
118.515
119.287
120.207
121.334
122.973
1039.92
1679.08
1885.85
2062.64
2222.43
2262.54
2149.38
1999.28
1840.88
1668.82
1437.11
134.99
123.748
122.179
120.93
119.902
119.034
118.284
117.625
117.038
116.509
116.029
115.589
115.185
114.811
114.465
114.145
113.846
113.569
113.312
113.073
112.851
112.646
112.456
112.283
112.125
111.982
111.853
111.74
111.642
111.558
111.491
111.439
111.404
111.386
)
;
    }
    axis
    {
        type            darcyGradPressure;
        gradient        uniform -0;
        value           nonuniform List<scalar> 
80
(
110.103
107.618
105.1
102.551
99.9713
97.3624
94.7261
92.064
89.3781
86.6703
83.9425
81.1964
78.4339
75.6566
72.8659
70.0634
67.2504
64.4281
61.5975
58.7597
55.9157
53.0662
50.2121
47.3541
44.4928
41.6287
38.7625
35.8945
33.0252
30.1548
27.2837
24.4121
21.5402
18.6681
15.796
12.9239
10.0518
7.17979
4.30784
1.43594
110.16
107.67
105.142
102.578
99.9802
97.3496
94.6888
92.0004
89.2871
86.5514
83.7959
81.0232
78.2356
75.4351
72.6238
69.8033
66.9753
64.1411
61.3018
58.4585
55.6121
52.7632
49.9125
47.0605
44.2076
41.3541
38.5004
35.6467
32.793
29.9396
27.0866
24.2339
21.3816
18.5297
15.6783
12.8271
9.97632
7.12576
4.27538
1.42511
)
;
    }
    frontAndBack
    {
        type            empty;
    }
}


// ************************************************************************* //
