/*--------------------------------*- C++ -*----------------------------------*\
  =========                 |
  \\      /  F ield         | OpenFOAM: The Open Source CFD Toolbox
   \\    /   O peration     | Website:  https://openfoam.org
    \\  /    A nd           | Version:  10
     \\/     M anipulation  |
\*---------------------------------------------------------------------------*/
FoamFile
{
    format      ascii;
    class       volVectorField;
    location    "9250";
    object      Ua;
}
// * * * * * * * * * * * * * * * * * * * * * * * * * * * * * * * * * * * * * //

dimensions      [0 1 -1 0 0 0 0];

internalField   nonuniform List<vector> 
3200
(
(-2.56989e-07 3.71134e-07 0)
(-7.67905e-07 3.73289e-07 0)
(-1.27413e-06 3.77538e-07 0)
(-1.77843e-06 3.83873e-07 0)
(-2.28346e-06 3.92333e-07 0)
(-2.79181e-06 4.03004e-07 0)
(-3.30608e-06 4.16021e-07 0)
(-3.82889e-06 4.3157e-07 0)
(-4.363e-06 4.49896e-07 0)
(-4.91135e-06 4.71312e-07 0)
(-5.47712e-06 4.96208e-07 0)
(-6.06378e-06 5.25075e-07 0)
(-6.67526e-06 5.58521e-07 0)
(-7.316e-06 5.97306e-07 0)
(-7.9911e-06 6.42382e-07 0)
(-8.70653e-06 6.94951e-07 0)
(-9.46934e-06 7.56544e-07 0)
(-1.02879e-05 8.29129e-07 0)
(-1.11726e-05 9.15272e-07 0)
(-1.21359e-05 1.01837e-06 0)
(-1.31937e-05 1.14296e-06 0)
(-1.43659e-05 1.29527e-06 0)
(-1.56784e-05 1.48393e-06 0)
(-1.71653e-05 1.72121e-06 0)
(-1.88725e-05 2.02486e-06 0)
(-2.08628e-05 2.42114e-06 0)
(-2.32246e-05 2.94974e-06 0)
(-2.60847e-05 3.67183e-06 0)
(-2.96299e-05 4.68357e-06 0)
(-3.41403e-05 6.13878e-06 0)
(-4.00461e-05 8.28732e-06 0)
(-4.8019e-05 1.15405e-05 0)
(-5.91269e-05 1.65826e-05 0)
(-7.50895e-05 2.45619e-05 0)
(-6.49448e-05 3.46521e-05 0)
(-2.53164e-05 7.23081e-05 0)
(-3.88876e-06 1.37841e-05 0)
(-1.91891e-06 7.52771e-06 0)
(-1.00499e-06 4.60022e-06 0)
(-3.45928e-07 2.45045e-06 0)
(-2.53849e-07 1.10887e-06 0)
(-7.58463e-07 1.11522e-06 0)
(-1.25826e-06 1.12773e-06 0)
(-1.75586e-06 1.14638e-06 0)
(-2.25377e-06 1.17127e-06 0)
(-2.75439e-06 1.20265e-06 0)
(-3.26014e-06 1.24087e-06 0)
(-3.77344e-06 1.28648e-06 0)
(-4.29679e-06 1.34015e-06 0)
(-4.83282e-06 1.40276e-06 0)
(-5.38431e-06 1.47539e-06 0)
(-5.95429e-06 1.5594e-06 0)
(-6.54607e-06 1.65645e-06 0)
(-7.16331e-06 1.76862e-06 0)
(-7.81013e-06 1.89847e-06 0)
(-8.49115e-06 2.04917e-06 0)
(-9.21164e-06 2.22475e-06 0)
(-9.97762e-06 2.43025e-06 0)
(-1.0796e-05 2.67214e-06 0)
(-1.16746e-05 2.9587e-06 0)
(-1.26226e-05 3.30076e-06 0)
(-1.365e-05 3.71252e-06 0)
(-1.4768e-05 4.2129e-06 0)
(-1.59884e-05 4.82739e-06 0)
(-1.73221e-05 5.5907e-06 0)
(-1.87772e-05 6.55066e-06 0)
(-2.03534e-05 7.77393e-06 0)
(-2.20327e-05 9.35427e-06 0)
(-2.37605e-05 1.14247e-05 0)
(-2.54115e-05 1.41753e-05 0)
(-2.67263e-05 1.7879e-05 0)
(-2.71953e-05 2.29284e-05 0)
(-2.58499e-05 2.98892e-05 0)
(-2.08866e-05 3.95729e-05 0)
(-1.00441e-05 5.03711e-05 0)
(-4.93071e-06 2.2826e-05 0)
(-1.12175e-05 1.55381e-05 0)
(-2.01537e-05 1.59774e-05 0)
(-1.66882e-05 1.35479e-05 0)
(-4.28319e-06 1.78434e-06 0)
(-2.4774e-07 1.83325e-06 0)
(-7.40093e-07 1.84345e-06 0)
(-1.22741e-06 1.86357e-06 0)
(-1.71202e-06 1.89352e-06 0)
(-2.19613e-06 1.93344e-06 0)
(-2.68187e-06 1.98367e-06 0)
(-3.17128e-06 2.04475e-06 0)
(-3.6664e-06 2.11745e-06 0)
(-4.16929e-06 2.20277e-06 0)
(-4.68202e-06 2.30195e-06 0)
(-5.20672e-06 2.41657e-06 0)
(-5.74563e-06 2.54853e-06 0)
(-6.30104e-06 2.70016e-06 0)
(-6.87537e-06 2.87431e-06 0)
(-7.47113e-06 3.07442e-06 0)
(-8.09095e-06 3.30469e-06 0)
(-8.73746e-06 3.57025e-06 0)
(-9.4133e-06 3.87737e-06 0)
(-1.01209e-05 4.23372e-06 0)
(-1.08624e-05 4.64877e-06 0)
(-1.16391e-05 5.13414e-06 0)
(-1.2451e-05 5.70419e-06 0)
(-1.32958e-05 6.37653e-06 0)
(-1.41679e-05 7.17275e-06 0)
(-1.5056e-05 8.11898e-06 0)
(-1.59407e-05 9.24631e-06 0)
(-1.67901e-05 1.05906e-05 0)
(-1.75552e-05 1.21911e-05 0)
(-1.81635e-05 1.40862e-05 0)
(-1.85134e-05 1.63043e-05 0)
(-1.84719e-05 1.88458e-05 0)
(-1.78847e-05 2.1648e-05 0)
(-1.66144e-05 2.45216e-05 0)
(-1.46448e-05 2.70374e-05 0)
(-1.23176e-05 2.83274e-05 0)
(-1.06923e-05 2.71372e-05 0)
(-1.01708e-05 2.69368e-05 0)
(-9.88312e-06 2.84819e-05 0)
(-6.13023e-06 2.29981e-05 0)
(-1.11558e-06 1.43189e-06 0)
(-2.38977e-07 2.53614e-06 0)
(-7.13758e-07 2.5497e-06 0)
(-1.18321e-06 2.57639e-06 0)
(-1.6493e-06 2.61607e-06 0)
(-2.11384e-06 2.66888e-06 0)
(-2.57854e-06 2.73518e-06 0)
(-3.04502e-06 2.81557e-06 0)
(-3.51482e-06 2.91094e-06 0)
(-3.98943e-06 3.0224e-06 0)
(-4.47027e-06 3.15138e-06 0)
(-4.95869e-06 3.29962e-06 0)
(-5.456e-06 3.46922e-06 0)
(-5.96338e-06 3.66269e-06 0)
(-6.48192e-06 3.88303e-06 0)
(-7.01249e-06 4.13378e-06 0)
(-7.55572e-06 4.41912e-06 0)
(-8.11186e-06 4.74396e-06 0)
(-8.68061e-06 5.11405e-06 0)
(-9.26092e-06 5.5361e-06 0)
(-9.85067e-06 6.01785e-06 0)
(-1.04463e-05 6.56821e-06 0)
(-1.10421e-05 7.1972e-06 0)
(-1.16301e-05 7.91594e-06 0)
(-1.21984e-05 8.73635e-06 0)
(-1.2731e-05 9.67059e-06 0)
(-1.32065e-05 1.073e-05 0)
(-1.35973e-05 1.19235e-05 0)
(-1.38694e-05 1.32548e-05 0)
(-1.39831e-05 1.47186e-05 0)
(-1.38958e-05 1.62954e-05 0)
(-1.35678e-05 1.79455e-05 0)
(-1.29728e-05 1.96024e-05 0)
(-1.21127e-05 2.11708e-05 0)
(-1.10346e-05 2.25356e-05 0)
(-9.8385e-06 2.35988e-05 0)
(-8.64793e-06 2.43757e-05 0)
(-7.4928e-06 2.51566e-05 0)
(-6.27174e-06 2.60884e-05 0)
(-3.34493e-06 1.88549e-05 0)
(-4.42956e-07 3.59621e-07 0)
(-2.27991e-07 3.21052e-06 0)
(-6.80762e-07 3.22679e-06 0)
(-1.12791e-06 3.25878e-06 0)
(-1.57095e-06 3.30628e-06 0)
(-2.01127e-06 3.36935e-06 0)
(-2.45013e-06 3.4483e-06 0)
(-2.88867e-06 3.54373e-06 0)
(-3.3279e-06 3.65645e-06 0)
(-3.76874e-06 3.78757e-06 0)
(-4.21194e-06 3.93844e-06 0)
(-4.65812e-06 4.1107e-06 0)
(-5.10771e-06 4.30633e-06 0)
(-5.56093e-06 4.52762e-06 0)
(-6.01771e-06 4.7772e-06 0)
(-6.47764e-06 5.05813e-06 0)
(-6.93987e-06 5.37386e-06 0)
(-7.40298e-06 5.72824e-06 0)
(-7.86488e-06 6.12559e-06 0)
(-8.32255e-06 6.57059e-06 0)
(-8.77192e-06 7.06827e-06 0)
(-9.20753e-06 7.62387e-06 0)
(-9.62238e-06 8.24263e-06 0)
(-1.00076e-05 8.92949e-06 0)
(-1.03521e-05 9.68861e-06 0)
(-1.06428e-05 1.05227e-05 0)
(-1.08642e-05 1.14323e-05 0)
(-1.09993e-05 1.24144e-05 0)
(-1.10299e-05 1.34615e-05 0)
(-1.09383e-05 1.45604e-05 0)
(-1.07091e-05 1.5691e-05 0)
(-1.03322e-05 1.68259e-05 0)
(-9.80571e-06 1.79322e-05 0)
(-9.13799e-06 1.89744e-05 0)
(-8.34805e-06 1.99215e-05 0)
(-7.46159e-06 2.07562e-05 0)
(-6.50171e-06 2.14842e-05 0)
(-5.47713e-06 2.2131e-05 0)
(-4.38085e-06 2.27087e-05 0)
(-2.21859e-06 1.51191e-05 0)
(-2.34479e-07 1.38881e-07 0)
(-2.1528e-07 3.85068e-06 0)
(-6.42612e-07 3.86895e-06 0)
(-1.06405e-06 3.90486e-06 0)
(-1.48067e-06 3.95809e-06 0)
(-1.8934e-06 4.02858e-06 0)
(-2.30307e-06 4.11655e-06 0)
(-2.71034e-06 4.22245e-06 0)
(-3.11576e-06 4.34698e-06 0)
(-3.51969e-06 4.49104e-06 0)
(-3.92234e-06 4.65578e-06 0)
(-4.32369e-06 4.84254e-06 0)
(-4.7235e-06 5.05293e-06 0)
(-5.12126e-06 5.28874e-06 0)
(-5.51611e-06 5.552e-06 0)
(-5.90681e-06 5.84495e-06 0)
(-6.29167e-06 6.16999e-06 0)
(-6.66842e-06 6.52969e-06 0)
(-7.03419e-06 6.92669e-06 0)
(-7.38536e-06 7.36362e-06 0)
(-7.71749e-06 7.84299e-06 0)
(-8.02524e-06 8.36702e-06 0)
(-8.30228e-06 8.93741e-06 0)
(-8.54132e-06 9.55506e-06 0)
(-8.73416e-06 1.02197e-05 0)
(-8.87182e-06 1.09297e-05 0)
(-8.94489e-06 1.16813e-05 0)
(-8.94396e-06 1.24685e-05 0)
(-8.86027e-06 1.32825e-05 0)
(-8.68651e-06 1.41121e-05 0)
(-8.41768e-06 1.49431e-05 0)
(-8.05197e-06 1.57595e-05 0)
(-7.59129e-06 1.65444e-05 0)
(-7.04138e-06 1.72816e-05 0)
(-6.4111e-06 1.79575e-05 0)
(-5.71102e-06 1.85626e-05 0)
(-4.95152e-06 1.90919e-05 0)
(-4.14146e-06 1.95424e-05 0)
(-3.28841e-06 1.99101e-05 0)
(-1.6443e-06 1.24765e-05 0)
(-1.45325e-07 7.91663e-08 0)
(-2.01364e-07 4.45238e-06 0)
(-6.00875e-07 4.47197e-06 0)
(-9.94297e-07 4.51041e-06 0)
(-1.38227e-06 4.56728e-06 0)
(-1.76532e-06 4.64239e-06 0)
(-2.14387e-06 4.73581e-06 0)
(-2.51817e-06 4.84782e-06 0)
(-2.88834e-06 4.97887e-06 0)
(-3.25434e-06 5.12962e-06 0)
(-3.61593e-06 5.30087e-06 0)
(-3.97265e-06 5.49359e-06 0)
(-4.3238e-06 5.70889e-06 0)
(-4.66841e-06 5.94797e-06 0)
(-5.00518e-06 6.21216e-06 0)
(-5.33249e-06 6.50281e-06 0)
(-5.64829e-06 6.82132e-06 0)
(-5.95011e-06 7.16901e-06 0)
(-6.23504e-06 7.5471e-06 0)
(-6.49962e-06 7.95659e-06 0)
(-6.73993e-06 8.39817e-06 0)
(-6.95153e-06 8.87204e-06 0)
(-7.12953e-06 9.3778e-06 0)
(-7.26868e-06 9.91426e-06 0)
(-7.36347e-06 1.04793e-05 0)
(-7.4084e-06 1.10695e-05 0)
(-7.39816e-06 1.16805e-05 0)
(-7.32799e-06 1.23063e-05 0)
(-7.19404e-06 1.29397e-05 0)
(-6.9937e-06 1.35724e-05 0)
(-6.72594e-06 1.4195e-05 0)
(-6.39155e-06 1.47978e-05 0)
(-5.99321e-06 1.5371e-05 0)
(-5.53534e-06 1.59057e-05 0)
(-5.02382e-06 1.63937e-05 0)
(-4.46552e-06 1.68288e-05 0)
(-3.86786e-06 1.72058e-05 0)
(-3.23849e-06 1.75206e-05 0)
(-2.58527e-06 1.77695e-05 0)
(-1.29178e-06 1.06208e-05 0)
(-9.1529e-08 5.5821e-08 0)
(-1.86743e-07 5.01287e-06 0)
(-5.57059e-07 5.03312e-06 0)
(-9.21184e-07 5.07281e-06 0)
(-1.27938e-06 5.1314e-06 0)
(-1.63182e-06 5.20858e-06 0)
(-1.97856e-06 5.30424e-06 0)
(-2.31956e-06 5.41844e-06 0)
(-2.6546e-06 5.55139e-06 0)
(-2.98332e-06 5.70343e-06 0)
(-3.3052e-06 5.87502e-06 0)
(-3.61949e-06 6.06668e-06 0)
(-3.92524e-06 6.27904e-06 0)
(-4.22127e-06 6.51272e-06 0)
(-4.50613e-06 6.76837e-06 0)
(-4.7781e-06 7.04657e-06 0)
(-5.03515e-06 7.34786e-06 0)
(-5.27499e-06 7.67259e-06 0)
(-5.49501e-06 8.02094e-06 0)
(-5.69232e-06 8.3928e-06 0)
(-5.86378e-06 8.78768e-06 0)
(-6.00604e-06 9.2047e-06 0)
(-6.11562e-06 9.64239e-06 0)
(-6.189e-06 1.00987e-05 0)
(-6.22279e-06 1.0571e-05 0)
(-6.2138e-06 1.10557e-05 0)
(-6.15927e-06 1.15487e-05 0)
(-6.05705e-06 1.20452e-05 0)
(-5.90574e-06 1.25398e-05 0)
(-5.70489e-06 1.30265e-05 0)
(-5.45509e-06 1.34992e-05 0)
(-5.158e-06 1.39518e-05 0)
(-4.8164e-06 1.43783e-05 0)
(-4.43405e-06 1.47733e-05 0)
(-4.01558e-06 1.5132e-05 0)
(-3.56632e-06 1.54505e-05 0)
(-3.09213e-06 1.57255e-05 0)
(-2.59928e-06 1.59544e-05 0)
(-2.09435e-06 1.61355e-05 0)
(-1.04872e-06 9.27885e-06 0)
(-5.21983e-08 4.40378e-08 0)
(-1.71866e-07 5.53076e-06 0)
(-5.12512e-07 5.5511e-06 0)
(-8.46974e-07 5.59092e-06 0)
(-1.1752e-06 5.64959e-06 0)
(-1.49706e-06 5.72666e-06 0)
(-1.81237e-06 5.82185e-06 0)
(-2.12081e-06 5.93499e-06 0)
(-2.42197e-06 6.06607e-06 0)
(-2.71528e-06 6.2151e-06 0)
(-3.00003e-06 6.38221e-06 0)
(-3.27537e-06 6.56753e-06 0)
(-3.54023e-06 6.77122e-06 0)
(-3.7934e-06 6.9934e-06 0)
(-4.03346e-06 7.23417e-06 0)
(-4.25879e-06 7.4935e-06 0)
(-4.46761e-06 7.77127e-06 0)
(-4.65794e-06 8.06716e-06 0)
(-4.82764e-06 8.38065e-06 0)
(-4.97445e-06 8.71096e-06 0)
(-5.09602e-06 9.05698e-06 0)
(-5.18996e-06 9.41728e-06 0)
(-5.25395e-06 9.79004e-06 0)
(-5.28574e-06 1.0173e-05 0)
(-5.28333e-06 1.05635e-05 0)
(-5.24502e-06 1.09586e-05 0)
(-5.16951e-06 1.13547e-05 0)
(-5.05602e-06 1.17482e-05 0)
(-4.90436e-06 1.21352e-05 0)
(-4.71499e-06 1.25115e-05 0)
(-4.48906e-06 1.28731e-05 0)
(-4.22843e-06 1.32163e-05 0)
(-3.93562e-06 1.35374e-05 0)
(-3.61377e-06 1.38332e-05 0)
(-3.26658e-06 1.41011e-05 0)
(-2.89822e-06 1.43391e-05 0)
(-2.51328e-06 1.45456e-05 0)
(-2.11668e-06 1.47198e-05 0)
(-1.71364e-06 1.48614e-05 0)
(-8.56632e-07 8.27637e-06 0)
(-1.89138e-08 3.79336e-08 0)
(-1.5711e-07 6.00586e-06 0)
(-4.68367e-07 6.02582e-06 0)
(-7.73553e-07 6.06487e-06 0)
(-1.07237e-06 6.12228e-06 0)
(-1.36447e-06 6.1975e-06 0)
(-1.64948e-06 6.29008e-06 0)
(-1.92692e-06 6.39968e-06 0)
(-2.19622e-06 6.52603e-06 0)
(-2.45673e-06 6.6689e-06 0)
(-2.70767e-06 6.8281e-06 0)
(-2.94814e-06 7.00343e-06 0)
(-3.17712e-06 7.19468e-06 0)
(-3.39346e-06 7.40158e-06 0)
(-3.59589e-06 7.62378e-06 0)
(-3.78299e-06 7.86082e-06 0)
(-3.95329e-06 8.11213e-06 0)
(-4.10518e-06 8.37696e-06 0)
(-4.237e-06 8.65436e-06 0)
(-4.34707e-06 8.94319e-06 0)
(-4.43371e-06 9.24206e-06 0)
(-4.49529e-06 9.54936e-06 0)
(-4.53028e-06 9.8632e-06 0)
(-4.53733e-06 1.01815e-05 0)
(-4.51531e-06 1.05018e-05 0)
(-4.46336e-06 1.08217e-05 0)
(-4.38097e-06 1.11384e-05 0)
(-4.26803e-06 1.14493e-05 0)
(-4.12485e-06 1.17514e-05 0)
(-3.95216e-06 1.20421e-05 0)
(-3.75118e-06 1.23187e-05 0)
(-3.52354e-06 1.25789e-05 0)
(-3.27129e-06 1.28206e-05 0)
(-2.99683e-06 1.3042e-05 0)
(-2.70289e-06 1.3242e-05 0)
(-2.39246e-06 1.34198e-05 0)
(-2.06874e-06 1.35751e-05 0)
(-1.73521e-06 1.37084e-05 0)
(-1.39561e-06 1.3821e-05 0)
(-6.88332e-07 7.49196e-06 0)
(1.55132e-08 3.4214e-08 0)
(-1.42775e-07 6.43894e-06 0)
(-4.25512e-07 6.45818e-06 0)
(-7.02387e-07 6.49577e-06 0)
(-9.72926e-07 6.55093e-06 0)
(-1.23664e-06 6.62301e-06 0)
(-1.49302e-06 6.71144e-06 0)
(-1.74149e-06 6.81572e-06 0)
(-1.98143e-06 6.93539e-06 0)
(-2.21214e-06 7.07e-06 0)
(-2.43286e-06 7.21912e-06 0)
(-2.64274e-06 7.38228e-06 0)
(-2.84084e-06 7.55899e-06 0)
(-3.02616e-06 7.74869e-06 0)
(-3.19761e-06 7.95072e-06 0)
(-3.35405e-06 8.16433e-06 0)
(-3.49429e-06 8.38865e-06 0)
(-3.6171e-06 8.62268e-06 0)
(-3.72126e-06 8.86524e-06 0)
(-3.80555e-06 9.11503e-06 0)
(-3.8688e-06 9.37057e-06 0)
(-3.90994e-06 9.63021e-06 0)
(-3.928e-06 9.89217e-06 0)
(-3.92217e-06 1.01546e-05 0)
(-3.89182e-06 1.04154e-05 0)
(-3.83657e-06 1.06725e-05 0)
(-3.75625e-06 1.09239e-05 0)
(-3.65101e-06 1.11675e-05 0)
(-3.52127e-06 1.14013e-05 0)
(-3.36773e-06 1.16235e-05 0)
(-3.19139e-06 1.18324e-05 0)
(-2.99353e-06 1.20266e-05 0)
(-2.77563e-06 1.22048e-05 0)
(-2.53935e-06 1.23662e-05 0)
(-2.28644e-06 1.25102e-05 0)
(-2.01861e-06 1.26365e-05 0)
(-1.73736e-06 1.2745e-05 0)
(-1.4437e-06 1.28359e-05 0)
(-1.13774e-06 1.29097e-05 0)
(-5.44384e-07 6.79638e-06 0)
(5.00287e-08 2.55008e-08 0)
(-1.29076e-07 6.83154e-06 0)
(-3.8459e-07 6.84981e-06 0)
(-6.34532e-07 6.88546e-06 0)
(-8.78313e-07 6.93769e-06 0)
(-1.11536e-06 7.00578e-06 0)
(-1.34509e-06 7.08906e-06 0)
(-1.56689e-06 7.18692e-06 0)
(-1.78014e-06 7.29873e-06 0)
(-1.98416e-06 7.4239e-06 0)
(-2.17824e-06 7.56182e-06 0)
(-2.36163e-06 7.71183e-06 0)
(-2.53352e-06 7.87323e-06 0)
(-2.69307e-06 8.04526e-06 0)
(-2.83942e-06 8.22708e-06 0)
(-2.97169e-06 8.41774e-06 0)
(-3.08897e-06 8.61621e-06 0)
(-3.19037e-06 8.82134e-06 0)
(-3.27501e-06 9.03187e-06 0)
(-3.34208e-06 9.24641e-06 0)
(-3.39078e-06 9.46347e-06 0)
(-3.42043e-06 9.6815e-06 0)
(-3.43042e-06 9.89881e-06 0)
(-3.42028e-06 1.01137e-05 0)
(-3.38966e-06 1.03244e-05 0)
(-3.33836e-06 1.05293e-05 0)
(-3.26635e-06 1.07266e-05 0)
(-3.17378e-06 1.09148e-05 0)
(-3.06097e-06 1.10925e-05 0)
(-2.92844e-06 1.12583e-05 0)
(-2.7769e-06 1.14113e-05 0)
(-2.60725e-06 1.15506e-05 0)
(-2.4206e-06 1.16757e-05 0)
(-2.21825e-06 1.17862e-05 0)
(-2.00168e-06 1.18819e-05 0)
(-1.77256e-06 1.19628e-05 0)
(-1.53276e-06 1.2029e-05 0)
(-1.28432e-06 1.20802e-05 0)
(-1.02956e-06 1.2116e-05 0)
(-4.98393e-07 6.18813e-06 0)
(4.98504e-08 1.69471e-08 0)
(-1.16155e-07 7.18569e-06 0)
(-3.46019e-07 7.20284e-06 0)
(-5.7066e-07 7.23627e-06 0)
(-7.8943e-07 7.28517e-06 0)
(-1.00171e-06 7.34878e-06 0)
(-1.20691e-06 7.42638e-06 0)
(-1.40442e-06 7.51725e-06 0)
(-1.59364e-06 7.6207e-06 0)
(-1.77396e-06 7.73601e-06 0)
(-1.94474e-06 7.86245e-06 0)
(-2.10536e-06 7.99924e-06 0)
(-2.25517e-06 8.14556e-06 0)
(-2.39351e-06 8.30053e-06 0)
(-2.51973e-06 8.46319e-06 0)
(-2.63318e-06 8.63251e-06 0)
(-2.73324e-06 8.80736e-06 0)
(-2.81929e-06 8.98654e-06 0)
(-2.89079e-06 9.16875e-06 0)
(-2.94719e-06 9.3526e-06 0)
(-2.98804e-06 9.53665e-06 0)
(-3.01291e-06 9.71936e-06 0)
(-3.02148e-06 9.89918e-06 0)
(-3.01345e-06 1.00745e-05 0)
(-2.98864e-06 1.02438e-05 0)
(-2.9469e-06 1.04055e-05 0)
(-2.88819e-06 1.05582e-05 0)
(-2.81251e-06 1.07006e-05 0)
(-2.71994e-06 1.08314e-05 0)
(-2.61066e-06 1.09497e-05 0)
(-2.48493e-06 1.1055e-05 0)
(-2.34313e-06 1.11468e-05 0)
(-2.18583e-06 1.1225e-05 0)
(-2.01379e-06 1.12901e-05 0)
(-1.82809e-06 1.13425e-05 0)
(-1.63017e-06 1.13833e-05 0)
(-1.42191e-06 1.14136e-05 0)
(-1.20571e-06 1.14343e-05 0)
(-9.8446e-07 1.14467e-05 0)
(-4.80887e-07 5.68701e-06 0)
(4.86417e-08 1.43086e-08 0)
(-1.0409e-07 7.50376e-06 0)
(-3.10024e-07 7.51972e-06 0)
(-5.11124e-07 7.5508e-06 0)
(-7.06726e-07 7.5962e-06 0)
(-8.9621e-07 7.65515e-06 0)
(-1.07899e-06 7.72689e-06 0)
(-1.2545e-06 7.81068e-06 0)
(-1.42219e-06 7.90575e-06 0)
(-1.58154e-06 8.01133e-06 0)
(-1.73201e-06 8.12662e-06 0)
(-1.8731e-06 8.2508e-06 0)
(-2.00432e-06 8.38297e-06 0)
(-2.12519e-06 8.5222e-06 0)
(-2.23527e-06 8.6675e-06 0)
(-2.33414e-06 8.81779e-06 0)
(-2.42141e-06 8.97194e-06 0)
(-2.49675e-06 9.12875e-06 0)
(-2.55985e-06 9.28692e-06 0)
(-2.61046e-06 9.44512e-06 0)
(-2.64838e-06 9.60191e-06 0)
(-2.67344e-06 9.75583e-06 0)
(-2.68552e-06 9.90537e-06 0)
(-2.68452e-06 1.0049e-05 0)
(-2.67037e-06 1.01851e-05 0)
(-2.64296e-06 1.03123e-05 0)
(-2.60217e-06 1.04291e-05 0)
(-2.54785e-06 1.0534e-05 0)
(-2.47974e-06 1.0626e-05 0)
(-2.39752e-06 1.07039e-05 0)
(-2.30079e-06 1.07673e-05 0)
(-2.18907e-06 1.08156e-05 0)
(-2.06187e-06 1.08493e-05 0)
(-1.91883e-06 1.08689e-05 0)
(-1.7598e-06 1.08762e-05 0)
(-1.58508e-06 1.08732e-05 0)
(-1.39572e-06 1.08631e-05 0)
(-1.19373e-06 1.08495e-05 0)
(-9.82315e-07 1.08361e-05 0)
(-4.78954e-07 5.22902e-06 0)
(4.72004e-08 1.24662e-08 0)
(-9.29063e-08 7.78826e-06 0)
(-2.76676e-07 7.80301e-06 0)
(-4.56021e-07 7.83173e-06 0)
(-6.3029e-07 7.87364e-06 0)
(-7.98888e-07 7.92797e-06 0)
(-9.61263e-07 7.99397e-06 0)
(-1.1169e-06 8.07087e-06 0)
(-1.26533e-06 8.1579e-06 0)
(-1.40609e-06 8.25428e-06 0)
(-1.53879e-06 8.35919e-06 0)
(-1.66303e-06 8.47178e-06 0)
(-1.77848e-06 8.59117e-06 0)
(-1.88482e-06 8.71642e-06 0)
(-1.98181e-06 8.84656e-06 0)
(-2.06923e-06 8.98055e-06 0)
(-2.14691e-06 9.11728e-06 0)
(-2.21477e-06 9.25561e-06 0)
(-2.27274e-06 9.39431e-06 0)
(-2.32084e-06 9.5321e-06 0)
(-2.35912e-06 9.66762e-06 0)
(-2.38769e-06 9.79945e-06 0)
(-2.40668e-06 9.92613e-06 0)
(-2.41623e-06 1.00461e-05 0)
(-2.41647e-06 1.01578e-05 0)
(-2.40746e-06 1.02596e-05 0)
(-2.38916e-06 1.03497e-05 0)
(-2.36138e-06 1.04266e-05 0)
(-2.32368e-06 1.04884e-05 0)
(-2.27532e-06 1.05338e-05 0)
(-2.21517e-06 1.05611e-05 0)
(-2.14162e-06 1.05694e-05 0)
(-2.05257e-06 1.05581e-05 0)
(-1.9454e-06 1.05272e-05 0)
(-1.81716e-06 1.04782e-05 0)
(-1.66483e-06 1.04141e-05 0)
(-1.48596e-06 1.034e-05 0)
(-1.27962e-06 1.02638e-05 0)
(-1.04782e-06 1.01969e-05 0)
(-5.02124e-07 4.74493e-06 0)
(4.59253e-08 1.08892e-08 0)
(-8.25923e-08 8.04171e-06 0)
(-2.45933e-07 8.05529e-06 0)
(-4.05262e-07 8.08172e-06 0)
(-5.59961e-07 8.12026e-06 0)
(-7.09471e-07 8.17017e-06 0)
(-8.5329e-07 8.23071e-06 0)
(-9.90966e-07 8.30114e-06 0)
(-1.12209e-06 8.3807e-06 0)
(-1.24631e-06 8.46863e-06 0)
(-1.3633e-06 8.56413e-06 0)
(-1.47281e-06 8.66639e-06 0)
(-1.57463e-06 8.77457e-06 0)
(-1.6686e-06 8.88778e-06 0)
(-1.75462e-06 9.00512e-06 0)
(-1.83267e-06 9.12561e-06 0)
(-1.90278e-06 9.24827e-06 0)
(-1.96507e-06 9.37204e-06 0)
(-2.01972e-06 9.49582e-06 0)
(-2.067e-06 9.61843e-06 0)
(-2.10723e-06 9.73867e-06 0)
(-2.14083e-06 9.85523e-06 0)
(-2.16826e-06 9.96672e-06 0)
(-2.19003e-06 1.00717e-05 0)
(-2.20665e-06 1.01684e-05 0)
(-2.21862e-06 1.02553e-05 0)
(-2.22636e-06 1.03303e-05 0)
(-2.23013e-06 1.03913e-05 0)
(-2.2299e-06 1.04358e-05 0)
(-2.22521e-06 1.04613e-05 0)
(-2.21495e-06 1.04646e-05 0)
(-2.19704e-06 1.04425e-05 0)
(-2.16808e-06 1.03915e-05 0)
(-2.12288e-06 1.03081e-05 0)
(-2.05388e-06 1.01892e-05 0)
(-1.95072e-06 1.00331e-05 0)
(-1.79989e-06 9.84084e-06 0)
(-1.58519e-06 9.61894e-06 0)
(-1.28965e-06 9.38352e-06 0)
(-5.96455e-07 4.02146e-06 0)
(4.51758e-08 9.24171e-09 0)
(-7.31106e-08 8.26657e-06 0)
(-2.17679e-07 8.27905e-06 0)
(-3.58638e-07 8.30331e-06 0)
(-4.9541e-07 8.33868e-06 0)
(-6.27483e-07 8.38445e-06 0)
(-7.54406e-07 8.43992e-06 0)
(-8.75784e-07 8.50439e-06 0)
(-9.91279e-07 8.57715e-06 0)
(-1.10061e-06 8.65747e-06 0)
(-1.20354e-06 8.74462e-06 0)
(-1.29992e-06 8.83784e-06 0)
(-1.38964e-06 8.93638e-06 0)
(-1.47266e-06 9.03944e-06 0)
(-1.54902e-06 9.14621e-06 0)
(-1.61883e-06 9.25586e-06 0)
(-1.68229e-06 9.36753e-06 0)
(-1.73969e-06 9.48034e-06 0)
(-1.7914e-06 9.59337e-06 0)
(-1.83792e-06 9.70565e-06 0)
(-1.87984e-06 9.81619e-06 0)
(-1.91787e-06 9.92392e-06 0)
(-1.95284e-06 1.00277e-05 0)
(-1.9857e-06 1.01262e-05 0)
(-2.01756e-06 1.02182e-05 0)
(-2.04961e-06 1.0302e-05 0)
(-2.0832e-06 1.03758e-05 0)
(-2.11974e-06 1.04373e-05 0)
(-2.16068e-06 1.04839e-05 0)
(-2.2074e-06 1.05122e-05 0)
(-2.26104e-06 1.05177e-05 0)
(-2.32215e-06 1.04948e-05 0)
(-2.39014e-06 1.04361e-05 0)
(-2.46226e-06 1.03314e-05 0)
(-2.53202e-06 1.01674e-05 0)
(-2.58631e-06 9.92608e-06 0)
(-2.60079e-06 9.58296e-06 0)
(-2.53204e-06 9.10526e-06 0)
(-2.30465e-06 8.449e-06 0)
(-1.10332e-06 2.44965e-06 0)
(4.60656e-08 6.96866e-09 0)
(-6.441e-08 8.46517e-06 0)
(-1.91757e-07 8.47661e-06 0)
(-3.15874e-07 8.49887e-06 0)
(-4.3623e-07 8.53129e-06 0)
(-5.52357e-07 8.57324e-06 0)
(-6.63851e-07 8.62406e-06 0)
(-7.70369e-07 8.68311e-06 0)
(-8.71627e-07 8.74972e-06 0)
(-9.67403e-07 8.82326e-06 0)
(-1.05754e-06 8.90304e-06 0)
(-1.14193e-06 8.98842e-06 0)
(-1.22056e-06 9.07872e-06 0)
(-1.29347e-06 9.17327e-06 0)
(-1.36079e-06 9.27139e-06 0)
(-1.42271e-06 9.37242e-06 0)
(-1.47953e-06 9.47566e-06 0)
(-1.53165e-06 9.58046e-06 0)
(-1.57957e-06 9.68611e-06 0)
(-1.62392e-06 9.79195e-06 0)
(-1.66546e-06 9.89729e-06 0)
(-1.70511e-06 1.00014e-05 0)
(-1.74396e-06 1.01036e-05 0)
(-1.78333e-06 1.02032e-05 0)
(-1.82478e-06 1.02992e-05 0)
(-1.8702e-06 1.03909e-05 0)
(-1.92185e-06 1.04772e-05 0)
(-1.98252e-06 1.05569e-05 0)
(-2.05562e-06 1.06284e-05 0)
(-2.14546e-06 1.06896e-05 0)
(-2.25748e-06 1.07377e-05 0)
(-2.39876e-06 1.0769e-05 0)
(-2.57858e-06 1.07779e-05 0)
(-2.80937e-06 1.07561e-05 0)
(-3.108e-06 1.06916e-05 0)
(-3.49776e-06 1.05661e-05 0)
(-4.01121e-06 1.03517e-05 0)
(-4.69437e-06 1.00053e-05 0)
(-5.61224e-06 9.4593e-06 0)
(-3.09756e-06 9.9938e-07 0)
(5.21307e-08 5.2441e-09 0)
(-5.64346e-08 8.63969e-06 0)
(-1.67996e-07 8.65017e-06 0)
(-2.76681e-07 8.67057e-06 0)
(-3.81997e-07 8.70027e-06 0)
(-4.83517e-07 8.73871e-06 0)
(-5.80878e-07 8.78528e-06 0)
(-6.73774e-07 8.83939e-06 0)
(-7.61964e-07 8.90047e-06 0)
(-8.45266e-07 8.96794e-06 0)
(-9.23562e-07 9.0412e-06 0)
(-9.96796e-07 9.11971e-06 0)
(-1.06498e-06 9.20289e-06 0)
(-1.1282e-06 9.2902e-06 0)
(-1.18661e-06 9.38112e-06 0)
(-1.24045e-06 9.47512e-06 0)
(-1.29003e-06 9.57174e-06 0)
(-1.33578e-06 9.6705e-06 0)
(-1.37822e-06 9.77099e-06 0)
(-1.41799e-06 9.87282e-06 0)
(-1.45584e-06 9.97568e-06 0)
(-1.49271e-06 1.00793e-05 0)
(-1.52969e-06 1.01834e-05 0)
(-1.5681e-06 1.0288e-05 0)
(-1.60954e-06 1.0393e-05 0)
(-1.65591e-06 1.04986e-05 0)
(-1.70958e-06 1.06049e-05 0)
(-1.77349e-06 1.07125e-05 0)
(-1.85132e-06 1.08222e-05 0)
(-1.94783e-06 1.09349e-05 0)
(-2.06925e-06 1.10525e-05 0)
(-2.22393e-06 1.11771e-05 0)
(-2.42328e-06 1.13125e-05 0)
(-2.68327e-06 1.14636e-05 0)
(-3.02668e-06 1.16382e-05 0)
(-3.48671e-06 1.18482e-05 0)
(-4.11262e-06 1.21115e-05 0)
(-4.97871e-06 1.24563e-05 0)
(-6.19053e-06 1.29226e-05 0)
(-3.47076e-06 2.01979e-06 0)
(5.81672e-08 8.13548e-09 0)
(-4.91305e-08 8.79214e-06 0)
(-1.46235e-07 8.80174e-06 0)
(-2.40782e-07 8.8204e-06 0)
(-3.32316e-07 8.8476e-06 0)
(-4.20441e-07 8.8828e-06 0)
(-5.04822e-07 8.92546e-06 0)
(-5.85183e-07 8.97507e-06 0)
(-6.61306e-07 9.0311e-06 0)
(-7.33032e-07 9.09306e-06 0)
(-8.00259e-07 9.16045e-06 0)
(-8.62947e-07 9.23279e-06 0)
(-9.21112e-07 9.30964e-06 0)
(-9.74836e-07 9.39056e-06 0)
(-1.02426e-06 9.47516e-06 0)
(-1.0696e-06 9.56308e-06 0)
(-1.11114e-06 9.654e-06 0)
(-1.14922e-06 9.74766e-06 0)
(-1.18429e-06 9.84386e-06 0)
(-1.21685e-06 9.94248e-06 0)
(-1.24751e-06 1.00435e-05 0)
(-1.277e-06 1.0147e-05 0)
(-1.30611e-06 1.02532e-05 0)
(-1.33581e-06 1.03625e-05 0)
(-1.36716e-06 1.04755e-05 0)
(-1.40142e-06 1.0593e-05 0)
(-1.43997e-06 1.07165e-05 0)
(-1.48443e-06 1.08474e-05 0)
(-1.53656e-06 1.09881e-05 0)
(-1.59829e-06 1.11419e-05 0)
(-1.67165e-06 1.13128e-05 0)
(-1.75858e-06 1.15068e-05 0)
(-1.86055e-06 1.17319e-05 0)
(-1.97792e-06 1.19991e-05 0)
(-2.1086e-06 1.2324e-05 0)
(-2.24575e-06 1.27284e-05 0)
(-2.37354e-06 1.32431e-05 0)
(-2.45982e-06 1.39123e-05 0)
(-2.43115e-06 1.47838e-05 0)
(-1.21544e-06 2.76147e-06 0)
(4.19745e-08 1.13139e-08 0)
(-4.24501e-08 8.9244e-06 0)
(-1.2633e-07 8.93317e-06 0)
(-2.0794e-07 8.95022e-06 0)
(-2.8685e-07 8.97508e-06 0)
(-3.62689e-07 9.00727e-06 0)
(-4.35142e-07 9.0463e-06 0)
(-5.03948e-07 9.09172e-06 0)
(-5.68902e-07 9.14308e-06 0)
(-6.29848e-07 9.19995e-06 0)
(-6.86684e-07 9.26189e-06 0)
(-7.3936e-07 9.32854e-06 0)
(-7.87873e-07 9.39951e-06 0)
(-8.32273e-07 9.47448e-06 0)
(-8.72654e-07 9.55315e-06 0)
(-9.09163e-07 9.63529e-06 0)
(-9.4199e-07 9.72069e-06 0)
(-9.71371e-07 9.80924e-06 0)
(-9.97586e-07 9.90088e-06 0)
(-1.02095e-06 9.99565e-06 0)
(-1.04183e-06 1.00937e-05 0)
(-1.06059e-06 1.01953e-05 0)
(-1.07766e-06 1.03009e-05 0)
(-1.09342e-06 1.0411e-05 0)
(-1.10829e-06 1.05265e-05 0)
(-1.12261e-06 1.06485e-05 0)
(-1.13663e-06 1.07784e-05 0)
(-1.15044e-06 1.09179e-05 0)
(-1.16385e-06 1.10693e-05 0)
(-1.17624e-06 1.12353e-05 0)
(-1.18632e-06 1.14194e-05 0)
(-1.19181e-06 1.16257e-05 0)
(-1.18894e-06 1.18591e-05 0)
(-1.1718e-06 1.21252e-05 0)
(-1.1315e-06 1.24302e-05 0)
(-1.05503e-06 1.27805e-05 0)
(-9.23994e-07 1.31813e-05 0)
(-7.13447e-07 1.36349e-05 0)
(-3.89213e-07 1.41101e-05 0)
(-1.30419e-07 1.70592e-06 0)
(2.59858e-08 9.7125e-09 0)
(-3.63536e-08 9.0382e-06 0)
(-1.08163e-07 9.04619e-06 0)
(-1.77957e-07 9.06174e-06 0)
(-2.45327e-07 9.08439e-06 0)
(-3.09918e-07 9.11374e-06 0)
(-3.71427e-07 9.14936e-06 0)
(-4.29599e-07 9.19083e-06 0)
(-4.8423e-07 9.23777e-06 0)
(-5.35158e-07 9.28981e-06 0)
(-5.82269e-07 9.34658e-06 0)
(-6.25487e-07 9.40776e-06 0)
(-6.64777e-07 9.47305e-06 0)
(-7.00138e-07 9.54219e-06 0)
(-7.31605e-07 9.61496e-06 0)
(-7.59237e-07 9.69118e-06 0)
(-7.83121e-07 9.77073e-06 0)
(-8.03359e-07 9.85354e-06 0)
(-8.20064e-07 9.93964e-06 0)
(-8.33352e-07 1.00291e-05 0)
(-8.43325e-07 1.01221e-05 0)
(-8.50061e-07 1.02189e-05 0)
(-8.53592e-07 1.032e-05 0)
(-8.5388e-07 1.04258e-05 0)
(-8.50784e-07 1.0537e-05 0)
(-8.44019e-07 1.06545e-05 0)
(-8.33104e-07 1.07793e-05 0)
(-8.17292e-07 1.09124e-05 0)
(-7.95493e-07 1.10553e-05 0)
(-7.66167e-07 1.12094e-05 0)
(-7.27208e-07 1.13761e-05 0)
(-6.7582e-07 1.15569e-05 0)
(-6.08382e-07 1.1753e-05 0)
(-5.20352e-07 1.1965e-05 0)
(-4.06229e-07 1.21924e-05 0)
(-2.59674e-07 1.24332e-05 0)
(-7.38581e-08 1.26825e-05 0)
(1.57777e-07 1.29318e-05 0)
(4.40165e-07 1.31372e-05 0)
(2.63699e-07 1.22774e-06 0)
(1.9541e-08 8.01354e-09 0)
(-3.08095e-08 9.1352e-06 0)
(-9.16394e-08 9.14245e-06 0)
(-1.50681e-07 9.15655e-06 0)
(-2.07541e-07 9.17711e-06 0)
(-2.61873e-07 9.20376e-06 0)
(-3.13381e-07 9.23611e-06 0)
(-3.61812e-07 9.2738e-06 0)
(-4.06956e-07 9.3165e-06 0)
(-4.48641e-07 9.36386e-06 0)
(-4.86731e-07 9.41559e-06 0)
(-5.21126e-07 9.4714e-06 0)
(-5.5175e-07 9.53104e-06 0)
(-5.78555e-07 9.59428e-06 0)
(-6.01511e-07 9.66095e-06 0)
(-6.20601e-07 9.7309e-06 0)
(-6.35817e-07 9.80401e-06 0)
(-6.47148e-07 9.88024e-06 0)
(-6.5457e-07 9.95959e-06 0)
(-6.58041e-07 1.00421e-05 0)
(-6.5748e-07 1.01279e-05 0)
(-6.52753e-07 1.02172e-05 0)
(-6.43655e-07 1.03101e-05 0)
(-6.2989e-07 1.04071e-05 0)
(-6.11041e-07 1.05084e-05 0)
(-5.86545e-07 1.06145e-05 0)
(-5.55661e-07 1.07259e-05 0)
(-5.17442e-07 1.08429e-05 0)
(-4.70703e-07 1.09661e-05 0)
(-4.14006e-07 1.10958e-05 0)
(-3.45652e-07 1.12322e-05 0)
(-2.63714e-07 1.13752e-05 0)
(-1.661e-07 1.15244e-05 0)
(-5.0704e-08 1.16788e-05 0)
(8.43522e-08 1.18368e-05 0)
(2.40337e-07 1.19957e-05 0)
(4.17347e-07 1.21518e-05 0)
(6.13524e-07 1.23005e-05 0)
(8.24008e-07 1.2406e-05 0)
(4.34594e-07 1.21499e-06 0)
(1.52396e-08 8.73067e-09 0)
(-2.57928e-08 9.21694e-06 0)
(-7.6687e-08 9.22348e-06 0)
(-1.25995e-07 9.2362e-06 0)
(-1.73334e-07 9.25475e-06 0)
(-2.18365e-07 9.2788e-06 0)
(-2.60796e-07 9.30799e-06 0)
(-3.00372e-07 9.34203e-06 0)
(-3.36876e-07 9.38058e-06 0)
(-3.70125e-07 9.42337e-06 0)
(-3.99965e-07 9.47013e-06 0)
(-4.26269e-07 9.52059e-06 0)
(-4.48931e-07 9.57453e-06 0)
(-4.67861e-07 9.63176e-06 0)
(-4.82981e-07 9.69209e-06 0)
(-4.94216e-07 9.75537e-06 0)
(-5.01491e-07 9.8215e-06 0)
(-5.0472e-07 9.89038e-06 0)
(-5.03797e-07 9.96197e-06 0)
(-4.98585e-07 1.00362e-05 0)
(-4.88909e-07 1.01132e-05 0)
(-4.74536e-07 1.01928e-05 0)
(-4.55169e-07 1.02752e-05 0)
(-4.30427e-07 1.03604e-05 0)
(-3.99831e-07 1.04484e-05 0)
(-3.62792e-07 1.05394e-05 0)
(-3.18599e-07 1.06332e-05 0)
(-2.66408e-07 1.07299e-05 0)
(-2.05241e-07 1.08293e-05 0)
(-1.33997e-07 1.09311e-05 0)
(-5.14693e-08 1.1035e-05 0)
(4.36128e-08 1.11402e-05 0)
(1.52521e-07 1.12461e-05 0)
(2.76439e-07 1.13517e-05 0)
(4.16341e-07 1.14559e-05 0)
(5.72836e-07 1.15576e-05 0)
(7.45991e-07 1.16558e-05 0)
(9.35123e-07 1.17503e-05 0)
(1.13846e-06 1.18125e-05 0)
(5.95889e-07 1.29166e-06 0)
(1.18363e-08 1.13626e-08 0)
(-2.12835e-08 9.28493e-06 0)
(-6.32469e-08 9.29078e-06 0)
(-1.03804e-07 9.30217e-06 0)
(-1.42582e-07 9.31878e-06 0)
(-1.79249e-07 9.3403e-06 0)
(-2.13514e-07 9.36644e-06 0)
(-2.45122e-07 9.3969e-06 0)
(-2.73852e-07 9.43141e-06 0)
(-2.99509e-07 9.4697e-06 0)
(-3.21928e-07 9.51153e-06 0)
(-3.40963e-07 9.55666e-06 0)
(-3.56486e-07 9.60487e-06 0)
(-3.68381e-07 9.65598e-06 0)
(-3.7654e-07 9.70979e-06 0)
(-3.80858e-07 9.76616e-06 0)
(-3.81225e-07 9.82493e-06 0)
(-3.7752e-07 9.88598e-06 0)
(-3.69607e-07 9.94919e-06 0)
(-3.57322e-07 1.00144e-05 0)
(-3.40471e-07 1.00816e-05 0)
(-3.1882e-07 1.01507e-05 0)
(-2.92083e-07 1.02214e-05 0)
(-2.59921e-07 1.02937e-05 0)
(-2.2193e-07 1.03673e-05 0)
(-1.77639e-07 1.04421e-05 0)
(-1.26502e-07 1.05176e-05 0)
(-6.79001e-08 1.05936e-05 0)
(-1.13868e-09 1.06695e-05 0)
(7.45473e-08 1.07448e-05 0)
(1.59992e-07 1.08185e-05 0)
(2.56096e-07 1.089e-05 0)
(3.63835e-07 1.09581e-05 0)
(4.84284e-07 1.10217e-05 0)
(6.18672e-07 1.10797e-05 0)
(7.685e-07 1.1131e-05 0)
(9.35741e-07 1.11744e-05 0)
(1.12319e-06 1.12092e-05 0)
(1.33483e-06 1.12066e-05 0)
(7.08724e-07 1.40112e-06 0)
(9.25143e-09 1.28261e-08 0)
(-1.72645e-08 9.3406e-06 0)
(-5.12682e-08 9.34579e-06 0)
(-8.40284e-08 9.35589e-06 0)
(-1.15181e-07 9.37062e-06 0)
(-1.44401e-07 9.3897e-06 0)
(-1.71401e-07 9.41286e-06 0)
(-1.95927e-07 9.43984e-06 0)
(-2.17757e-07 9.47039e-06 0)
(-2.36692e-07 9.50426e-06 0)
(-2.52558e-07 9.54123e-06 0)
(-2.65201e-07 9.58107e-06 0)
(-2.74482e-07 9.62357e-06 0)
(-2.80274e-07 9.66855e-06 0)
(-2.82458e-07 9.71581e-06 0)
(-2.80921e-07 9.76518e-06 0)
(-2.75545e-07 9.81648e-06 0)
(-2.66213e-07 9.86956e-06 0)
(-2.52795e-07 9.92423e-06 0)
(-2.35152e-07 9.98033e-06 0)
(-2.13126e-07 1.00377e-05 0)
(-1.86539e-07 1.0096e-05 0)