/*--------------------------------*- C++ -*----------------------------------*\
  =========                 |
  \\      /  F ield         | OpenFOAM: The Open Source CFD Toolbox
   \\    /   O peration     | Website:  https://openfoam.org
    \\  /    A nd           | Version:  10
     \\/     M anipulation  |
\*---------------------------------------------------------------------------*/
FoamFile
{
    format      ascii;
    class       surfaceScalarField;
    location    "0.12";
    object      phi;
}
// * * * * * * * * * * * * * * * * * * * * * * * * * * * * * * * * * * * * * //

dimensions      [0 3 -1 0 0 0 0];

internalField   nonuniform List<scalar> 
7780
(
2.50004e-09
-3.67615e-14
2.50015e-09
-1.10336e-13
2.50033e-09
-1.83948e-13
2.50059e-09
-2.57672e-13
2.50092e-09
-3.31568e-13
2.50133e-09
-4.05681e-13
2.50181e-09
-4.80085e-13
2.50237e-09
-5.54831e-13
2.503e-09
-6.30018e-13
2.5037e-09
-7.05711e-13
2.50449e-09
-7.82034e-13
2.50535e-09
-8.59065e-13
2.50628e-09
-9.36953e-13
2.5073e-09
-1.01579e-12
2.5084e-09
-1.09576e-12
2.50957e-09
-1.17697e-12
2.51083e-09
-1.25963e-12
2.51218e-09
-1.34387e-12
2.51361e-09
-1.42991e-12
2.51513e-09
-1.51792e-12
2.51673e-09
-1.60814e-12
2.51844e-09
-1.70073e-12
2.52023e-09
-1.79597e-12
2.52213e-09
-1.89405e-12
2.52412e-09
-1.99525e-12
2.52622e-09
-2.09978e-12
2.52843e-09
-2.20794e-12
2.53075e-09
-2.31997e-12
2.53319e-09
-2.43616e-12
2.53574e-09
-2.55678e-12
2.53843e-09
-2.68214e-12
2.54124e-09
-2.81251e-12
2.54419e-09
-2.94822e-12
2.54728e-09
-3.08954e-12
2.55051e-09
-3.23683e-12
2.55391e-09
-3.39036e-12
2.55746e-09
-3.55049e-12
2.56117e-09
-3.71751e-12
2.56506e-09
-3.89178e-12
2.56914e-09
-4.07359e-12
2.5734e-09
-4.26332e-12
2.57786e-09
-4.46126e-12
2.58253e-09
-4.66778e-12
2.58741e-09
-4.88316e-12
2.59252e-09
-5.10777e-12
2.59786e-09
-5.34189e-12
2.60345e-09
-5.58587e-12
2.60929e-09
-5.83997e-12
2.61539e-09
-6.1045e-12
2.62177e-09
-6.3797e-12
2.62844e-09
-6.66584e-12
2.6354e-09
-6.96311e-12
2.64267e-09
-7.27172e-12
2.65027e-09
-7.59177e-12
2.65819e-09
-7.92339e-12
2.66646e-09
-8.26658e-12
2.67508e-09
-8.62134e-12
2.68407e-09
-8.98751e-12
2.69343e-09
-9.36491e-12
2.70318e-09
-9.75321e-12
2.71333e-09
-1.0152e-11
2.7239e-09
-1.05606e-11
2.73487e-09
-1.09785e-11
2.74628e-09
-1.14045e-11
2.75811e-09
-1.18378e-11
2.77039e-09
-1.22769e-11
2.78311e-09
-1.27203e-11
2.79628e-09
-1.31663e-11
2.80989e-09
-1.3613e-11
2.82395e-09
-1.40579e-11
2.83845e-09
-1.44988e-11
2.85338e-09
-1.49327e-11
2.86873e-09
-1.53568e-11
2.8845e-09
-1.57679e-11
2.90066e-09
-1.61628e-11
2.9172e-09
-1.65378e-11
2.93409e-09
-1.68896e-11
2.95131e-09
-1.72146e-11
2.96881e-09
-1.75093e-11
2.98658e-09
-1.77706e-11
3.00458e-09
-1.79952e-11
3.02276e-09
-1.81806e-11
3.04108e-09
-1.83242e-11
3.05951e-09
-1.84243e-11
3.07798e-09
-1.84795e-11
3.09647e-09
-1.84888e-11
3.11492e-09
-1.8452e-11
3.13329e-09
-1.83695e-11
3.15153e-09
-1.8242e-11
3.1696e-09
-1.80711e-11
3.18746e-09
-1.78584e-11
3.20507e-09
-1.76065e-11
3.22238e-09
-1.73177e-11
3.23938e-09
-1.69952e-11
3.25602e-09
-1.6642e-11
3.27228e-09
-1.62615e-11
3.28814e-09
-1.58569e-11
3.30357e-09
-1.54317e-11
3.31856e-09
-1.49892e-11
3.33309e-09
-1.45328e-11
3.34715e-09
-1.40656e-11
3.36074e-09
-1.35906e-11
3.37385e-09
-1.31107e-11
3.38648e-09
-1.26284e-11
3.39863e-09
-1.21464e-11
3.41029e-09
-1.16667e-11
3.42148e-09
-1.11914e-11
3.4322e-09
-1.07223e-11
3.44246e-09
-1.02609e-11
3.45227e-09
-9.80871e-12
3.46164e-09
-9.36677e-12
3.47057e-09
-8.93617e-12
3.47909e-09
-8.51764e-12
3.4872e-09
-8.11192e-12
3.49492e-09
-7.71942e-12
3.50226e-09
-7.3406e-12
3.50924e-09
-6.9756e-12
3.51586e-09
-6.62463e-12
3.52215e-09
-6.2876e-12
3.52811e-09
-5.96455e-12
3.53377e-09
-5.65521e-12
3.53913e-09
-5.35946e-12
3.54421e-09
-5.07691e-12
3.54901e-09
-4.80736e-12
3.55356e-09
-4.55032e-12
3.55787e-09
-4.30552e-12
3.56194e-09
-4.07244e-12
3.56579e-09
-3.85078e-12
3.56943e-09
-3.63998e-12
3.57287e-09
-3.43973e-12
3.57612e-09
-3.24948e-12
3.57919e-09
-3.06891e-12
3.58209e-09
-2.89748e-12
3.58482e-09
-2.7349e-12
3.5874e-09
-2.58061e-12
3.58984e-09
-2.43438e-12
3.59213e-09
-2.29566e-12
3.5943e-09
-2.16423e-12
3.59634e-09
-2.03959e-12
3.59826e-09
-1.92155e-12
3.60007e-09
-1.80964e-12
3.60177e-09
-1.70368e-12
3.60338e-09
-1.60324e-12
3.60489e-09
-1.50819e-12
3.60631e-09
-1.41808e-12
3.60764e-09
-1.33282e-12
3.60889e-09
-1.252e-12
3.61007e-09
-1.17554e-12
3.61117e-09
-1.10305e-12
3.61221e-09
-1.03448e-12
3.61318e-09
-9.69452e-13
3.61409e-09
-9.07959e-13
3.61494e-09
-8.49653e-13
3.61573e-09
-7.94541e-13
3.61648e-09
-7.42299e-13
3.61717e-09
-6.92955e-13
3.61782e-09
-6.462e-13
3.61842e-09
-6.02072e-13
3.61898e-09
-5.60277e-13
3.61951e-09
-5.20857e-13
3.61999e-09
-4.83532e-13
3.62044e-09
-4.48344e-13
3.62086e-09
-4.15031e-13
3.62124e-09
-3.83635e-13
3.6216e-09
-3.53915e-13
3.62193e-09
-3.25912e-13
3.62223e-09
-2.99408e-13
3.62251e-09
-2.7444e-13
3.62276e-09
-2.50815e-13
3.62299e-09
-2.28567e-13
3.6232e-09
-2.07526e-13
3.62339e-09
-1.87722e-13
3.62356e-09
-1.6901e-13
3.62371e-09
-1.51414e-13
3.62385e-09
-1.34819e-13
3.62397e-09
-1.19241e-13
3.62408e-09
-1.04596e-13
3.62417e-09
-9.08886e-14
3.62425e-09
-7.80689e-14
3.62432e-09
-6.61266e-14
3.62438e-09
-5.50422e-14
3.62443e-09
-4.47861e-14
3.62446e-09
-3.53661e-14
3.62449e-09
-2.67291e-14
3.62451e-09
-1.89056e-14
3.62453e-09
-1.18173e-14
3.62453e-09
-5.51245e-15
3.62454e-09
1.10842e-16
3.62453e-09
4.98914e-15
3.62453e-09
9.24198e-15
3.62451e-09
1.27948e-14
3.6245e-09
1.57772e-14
3.62448e-09
1.81056e-14
3.62446e-09
1.99189e-14
3.62444e-09
2.11054e-14
3.62442e-09
2.18415e-14
3.6244e-09
2.20009e-14
3.62438e-09
2.18052e-14
3.62435e-09
2.13741e-14
2.0305e-14
2.50004e-09
-7.34696e-14
2.50015e-09
-2.20405e-13
2.50033e-09
-3.67425e-13
2.50059e-09
-5.14653e-13
2.50092e-09
-6.62198e-13
2.50133e-09
-8.10164e-13
2.50181e-09
-9.58674e-13
2.50236e-09
-1.10786e-12
2.50299e-09
-1.25787e-12
2.50369e-09
-1.40889e-12
2.50447e-09
-1.5611e-12
2.50533e-09
-1.71471e-12
2.50626e-09
-1.86996e-12
2.50727e-09
-2.02711e-12
2.50836e-09
-2.18644e-12
2.50954e-09
-2.34826e-12
2.51079e-09
-2.51288e-12
2.51213e-09
-2.68066e-12
2.51355e-09
-2.85197e-12
2.51506e-09
-3.0272e-12
2.51666e-09
-3.20676e-12
2.51835e-09
-3.39107e-12
2.52013e-09
-3.58061e-12
2.52202e-09
-3.77582e-12
2.524e-09
-3.97721e-12
2.52609e-09
-4.18526e-12
2.52828e-09
-4.40052e-12
2.53058e-09
-4.6235e-12
2.533e-09
-4.85476e-12
2.53554e-09
-5.09488e-12
2.5382e-09
-5.34442e-12
2.54099e-09
-5.60399e-12
2.54392e-09
-5.87418e-12
2.54699e-09
-6.15561e-12
2.5502e-09
-6.44892e-12
2.55356e-09
-6.75473e-12
2.55709e-09
-7.07369e-12
2.56078e-09
-7.40645e-12
2.56464e-09
-7.75368e-12
2.56868e-09
-8.11603e-12
2.57291e-09
-8.49418e-12
2.57734e-09
-8.88879e-12
2.58197e-09
-9.30053e-12
2.58682e-09
-9.73006e-12
2.59189e-09
-1.0178e-11
2.59719e-09
-1.06451e-11
2.60274e-09
-1.11319e-11
2.60854e-09
-1.1639e-11
2.6146e-09
-1.21671e-11
2.62094e-09
-1.27166e-11
2.62756e-09
-1.32881e-11
2.63448e-09
-1.3882e-11
2.6417e-09
-1.44987e-11
2.64925e-09
-1.51385e-11
2.65713e-09
-1.58017e-11
2.66535e-09
-1.64884e-11
2.67393e-09
-1.71984e-11
2.68287e-09
-1.79318e-11
2.69219e-09
-1.86879e-11
2.70191e-09
-1.94664e-11
2.71202e-09
-2.02664e-11
2.72255e-09
-2.10868e-11
2.73349e-09
-2.19262e-11
2.74487e-09
-2.27828e-11
2.75669e-09
-2.36546e-11
2.76895e-09
-2.4539e-11
2.78166e-09
-2.5433e-11
2.79483e-09
-2.63331e-11
2.80845e-09
-2.72354e-11
2.82253e-09
-2.81354e-11
2.83706e-09
-2.9028e-11
2.85203e-09
-2.99077e-11
2.86744e-09
-3.07684e-11
2.88328e-09
-3.16039e-11
2.89952e-09
-3.24071e-11
2.91616e-09
-3.3171e-11
2.93315e-09
-3.38883e-11
2.95049e-09
-3.45517e-11
2.96813e-09
-3.5154e-11
2.98605e-09
-3.56884e-11
3.0042e-09
-3.61483e-11
3.02255e-09
-3.65281e-11
3.04105e-09
-3.68227e-11
3.05965e-09
-3.70283e-11
3.07831e-09
-3.71417e-11
3.09699e-09
-3.71613e-11
3.11562e-09
-3.70866e-11
3.13417e-09
-3.69181e-11
3.15258e-09
-3.66579e-11
3.17082e-09
-3.63087e-11
3.18883e-09
-3.58746e-11
3.20659e-09
-3.53603e-11
3.22404e-09
-3.47714e-11
3.24116e-09
-3.41141e-11
3.25791e-09
-3.33948e-11
3.27427e-09
-3.26205e-11
3.29021e-09
-3.1798e-11
3.30571e-09
-3.09344e-11
3.32076e-09
-3.00366e-11
3.33533e-09
-2.91113e-11
3.34943e-09
-2.81649e-11
3.36304e-09
-2.72037e-11
3.37617e-09
-2.62332e-11
3.3888e-09
-2.5259e-11
3.40094e-09
-2.42859e-11
3.41259e-09
-2.33184e-11
3.42375e-09
-2.23605e-11
3.43445e-09
-2.14158e-11
3.44467e-09
-2.04875e-11
3.45444e-09
-1.95782e-11
3.46377e-09
-1.86903e-11
3.47265e-09
-1.78257e-11
3.48112e-09
-1.69861e-11
3.48918e-09
-1.61725e-11
3.49685e-09
-1.53861e-11
3.50413e-09
-1.46274e-11
3.51106e-09
-1.38969e-11
3.51763e-09
-1.31947e-11
3.52386e-09
-1.25209e-11
3.52977e-09
-1.18752e-11
3.53537e-09
-1.12573e-11
3.54068e-09
-1.06668e-11
3.5457e-09
-1.01029e-11
3.55046e-09
-9.5651e-12
3.55496e-09
-9.05255e-12
3.55922e-09
-8.56449e-12
3.56325e-09
-8.10004e-12
3.56706e-09
-7.65836e-12
3.57066e-09
-7.23853e-12
3.57406e-09
-6.8397e-12
3.57727e-09
-6.46093e-12
3.5803e-09
-6.10141e-12
3.58316e-09
-5.76022e-12
3.58587e-09
-5.43657e-12
3.58842e-09
-5.12961e-12
3.59082e-09
-4.83857e-12
3.59309e-09
-4.56264e-12
3.59522e-09
-4.30114e-12
3.59724e-09
-4.05329e-12
3.59914e-09
-3.81846e-12
3.60092e-09
-3.59595e-12
3.6026e-09
-3.38516e-12
3.60419e-09
-3.18545e-12
3.60568e-09
-2.99631e-12
3.60708e-09
-2.81714e-12
3.60839e-09
-2.64747e-12
3.60963e-09
-2.48677e-12
3.61079e-09
-2.33461e-12
3.61187e-09
-2.1905e-12
3.61289e-09
-2.05406e-12
3.61385e-09
-1.92484e-12
3.61475e-09
-1.80251e-12
3.61559e-09
-1.68665e-12
3.61637e-09
-1.57699e-12
3.6171e-09
-1.47316e-12
3.61778e-09
-1.37491e-12
3.61842e-09
-1.28192e-12
3.61901e-09
-1.19399e-12
3.61957e-09
-1.11082e-12
3.62008e-09
-1.03224e-12
3.62056e-09
-9.57953e-13
3.621e-09
-8.87818e-13
3.62141e-09
-8.21558e-13
3.62178e-09
-7.5903e-13
3.62213e-09
-6.99972e-13
3.62245e-09
-6.44252e-13
3.62275e-09
-5.91625e-13
3.62302e-09
-5.41974e-13
3.62326e-09
-4.9507e-13
3.62349e-09
-4.50822e-13
3.62369e-09
-4.09019e-13
3.62388e-09
-3.69601e-13
3.62404e-09
-3.32377e-13
3.62419e-09
-2.9732e-13
3.62432e-09
-2.6426e-13
3.62444e-09
-2.33201e-13
3.62454e-09
-2.03989e-13
3.62463e-09
-1.76658e-13
3.6247e-09
-1.51069e-13
3.62477e-09
-1.2727e-13
3.62482e-09
-1.05136e-13
3.62486e-09
-8.47198e-14
3.62489e-09
-6.59032e-14
3.62492e-09
-4.87363e-14
3.62493e-09
-3.31006e-14
3.62495e-09
-1.90362e-14
3.62495e-09
-6.42166e-15
3.62495e-09
4.71149e-15
3.62493e-09
1.44884e-14
3.62493e-09
2.28828e-14
3.62491e-09
3.00208e-14
3.62489e-09
3.58767e-14
3.62487e-09
4.05742e-14
3.62485e-09
4.40835e-14
3.62482e-09
4.65166e-14
3.6248e-09
4.78268e-14
3.62477e-09
4.80756e-14
3.62474e-09
4.71904e-14
3.62472e-09
4.5223e-14
4.0929e-14
2.50004e-09
-1.10007e-13
2.50015e-09
-3.29952e-13
2.50033e-09
-5.50022e-13
2.50059e-09
-7.70374e-13
2.50092e-09
-9.91149e-13
2.50132e-09
-1.2125e-12
2.5018e-09
-1.43459e-12
2.50235e-09
-1.6576e-12
2.50297e-09
-1.88178e-12
2.50367e-09
-2.10735e-12
2.50444e-09
-2.33461e-12
2.50529e-09
-2.56387e-12
2.50622e-09
-2.79548e-12
2.50722e-09
-3.02983e-12
2.50831e-09
-3.26734e-12
2.50947e-09
-3.50846e-12
2.51071e-09
-3.75368e-12
2.51203e-09
-4.00354e-12
2.51344e-09
-4.25858e-12
2.51493e-09
-4.5194e-12
2.51651e-09
-4.78661e-12
2.51818e-09
-5.06087e-12
2.51994e-09
-5.34286e-12
2.5218e-09
-5.63329e-12
2.52376e-09
-5.93288e-12
2.52582e-09
-6.24241e-12
2.52798e-09
-6.56265e-12
2.53025e-09
-6.89441e-12
2.53263e-09
-7.23852e-12
2.53513e-09
-7.59584e-12
2.53776e-09
-7.96724e-12
2.54051e-09
-8.35361e-12
2.54339e-09
-8.75587e-12
2.54641e-09
-9.17494e-12
2.54957e-09
-9.61177e-12
2.55288e-09
-1.00673e-11
2.55635e-09
-1.05425e-11
2.55999e-09
-1.10385e-11
2.56379e-09
-1.1556e-11
2.56777e-09
-1.20963e-11
2.57193e-09
-1.26603e-11
2.57629e-09
-1.32489e-11
2.58086e-09
-1.38633e-11
2.58563e-09
-1.45044e-11
2.59063e-09
-1.51732e-11
2.59585e-09
-1.58708e-11
2.60132e-09
-1.6598e-11
2.60704e-09
-1.73559e-11
2.61301e-09
-1.81454e-11
2.61927e-09
-1.89673e-11
2.6258e-09
-1.98224e-11
2.63263e-09
-2.07115e-11
2.63977e-09
-2.16352e-11
2.64722e-09
-2.25942e-11
2.65501e-09
-2.35887e-11
2.66314e-09
-2.46191e-11
2.67162e-09
-2.56854e-11
2.68048e-09
-2.67875e-11
2.68972e-09
-2.7925e-11
2.69935e-09
-2.90971e-11
2.70938e-09
-3.03029e-11
2.71984e-09
-3.15409e-11
2.73072e-09
-3.28091e-11
2.74204e-09
-3.41051e-11
2.75381e-09
-3.54259e-11
2.76604e-09
-3.67678e-11
2.77874e-09
-3.81265e-11
2.7919e-09
-3.94969e-11
2.80554e-09
-4.0873e-11
2.81965e-09
-4.22481e-11
2.83423e-09
-4.36146e-11
2.84929e-09
-4.4964e-11
2.86481e-09
-4.62872e-11
2.88078e-09
-4.75739e-11
2.89718e-09
-4.88135e-11
2.91401e-09
-4.99949e-11
2.93123e-09
-5.11064e-11
2.94881e-09
-5.21362e-11
2.96673e-09
-5.3073e-11
2.98494e-09
-5.39054e-11
3.00342e-09
-5.46229e-11
3.02211e-09
-5.52163e-11
3.04096e-09
-5.56773e-11
3.05993e-09
-5.59994e-11
3.07897e-09
-5.61778e-11
3.09801e-09
-5.62098e-11
3.11702e-09
-5.60944e-11
3.13593e-09
-5.58329e-11
3.1547e-09
-5.54283e-11
3.17328e-09
-5.48856e-11
3.19162e-09
-5.42113e-11
3.20967e-09
-5.34133e-11
3.2274e-09
-5.25004e-11
3.24476e-09
-5.14827e-11
3.26174e-09
-5.03707e-11
3.27829e-09
-4.91752e-11
3.2944e-09
-4.79073e-11
3.31004e-09
-4.6578e-11
3.3252e-09
-4.51983e-11
3.33987e-09
-4.37784e-11
3.35403e-09
-4.23286e-11
3.36769e-09
-4.08581e-11
3.38083e-09
-3.93759e-11
3.39346e-09
-3.789e-11
3.40558e-09
-3.6408e-11
3.4172e-09
-3.49365e-11
3.42832e-09
-3.34816e-11
3.43895e-09
-3.20486e-11
3.4491e-09
-3.06422e-11
3.45879e-09
-2.92664e-11
3.46803e-09
-2.79245e-11
3.47682e-09
-2.66194e-11
3.48519e-09
-2.53534e-11
3.49314e-09
-2.4128e-11
3.5007e-09
-2.29448e-11
3.50788e-09
-2.18044e-11
3.51469e-09
-2.07074e-11
3.52114e-09
-1.96539e-11
3.52727e-09
-1.86439e-11
3.53307e-09
-1.76768e-11
3.53856e-09
-1.67521e-11
3.54376e-09
-1.58689e-11
3.54869e-09
-1.50263e-11
3.55335e-09
-1.42231e-11
3.55775e-09
-1.34581e-11
3.56192e-09
-1.273e-11
3.56585e-09
-1.20376e-11
3.56958e-09
-1.13793e-11
3.57309e-09
-1.07539e-11
3.57641e-09
-1.016e-11
3.57955e-09
-9.59619e-12
3.58251e-09
-9.06112e-12
3.5853e-09
-8.55347e-12
3.58794e-09
-8.07199e-12
3.59042e-09
-7.61542e-12
3.59277e-09
-7.18259e-12
3.59498e-09
-6.77232e-12
3.59706e-09
-6.38352e-12
3.59902e-09
-6.01511e-12
3.60087e-09
-5.66609e-12
3.60261e-09
-5.33545e-12
3.60425e-09
-5.02225e-12
3.60579e-09
-4.72559e-12
3.60724e-09
-4.4446e-12
3.6086e-09
-4.17847e-12
3.60988e-09
-3.92641e-12
3.61108e-09
-3.68768e-12
3.61221e-09
-3.46159e-12
3.61326e-09
-3.24749e-12
3.61426e-09
-3.04474e-12
3.61518e-09
-2.85276e-12
3.61605e-09
-2.67098e-12
3.61687e-09
-2.49888e-12
3.61763e-09
-2.33596e-12
3.61834e-09
-2.18173e-12
3.619e-09
-2.03576e-12
3.61962e-09
-1.89763e-12
3.62019e-09
-1.76696e-12
3.62073e-09
-1.64339e-12
3.62122e-09
-1.52657e-12
3.62168e-09
-1.4162e-12
3.62211e-09
-1.31195e-12
3.6225e-09
-1.21352e-12
3.62287e-09
-1.12063e-12
3.6232e-09
-1.03297e-12
3.62351e-09
-9.50251e-13
3.62379e-09
-8.72192e-13
3.62405e-09
-7.98522e-13
3.62429e-09
-7.28971e-13
3.6245e-09
-6.63294e-13
3.62469e-09
-6.01261e-13
3.62487e-09
-5.4267e-13
3.62503e-09
-4.87336e-13
3.62517e-09
-4.35112e-13
3.62529e-09
-3.8586e-13
3.6254e-09
-3.39488e-13
3.62549e-09
-2.95892e-13
3.62558e-09
-2.5503e-13
3.62564e-09
-2.16817e-13
3.6257e-09
-1.8124e-13
3.62575e-09
-1.48221e-13
3.62578e-09
-1.17756e-13
3.62581e-09
-8.97615e-14
3.62583e-09
-6.42289e-14
3.62584e-09
-4.10632e-14
3.62584e-09
-2.02401e-14
3.62584e-09
-1.65151e-15
3.62583e-09
1.47413e-14
3.62581e-09
2.90559e-14
3.6258e-09
4.13395e-14
3.62578e-09
5.17132e-14
3.62576e-09
6.02249e-14
3.62573e-09
6.69872e-14
3.62571e-09
7.20454e-14
3.62567e-09
7.54934e-14
3.62565e-09
7.73761e-14
3.62562e-09
7.77602e-14
3.62559e-09
7.673e-14
3.62556e-09
7.44455e-14
6.91007e-14
2.50004e-09
-1.4629e-13
2.50015e-09
-4.38809e-13
2.50033e-09
-7.31457e-13
2.50058e-09
-1.02441e-12
2.50091e-09
-1.31784e-12
2.50131e-09
-1.6119e-12
2.50178e-09
-1.90681e-12
2.50233e-09
-2.20279e-12
2.50295e-09
-2.50014e-12
2.50364e-09
-2.79916e-12
2.50441e-09
-3.10022e-12
2.50525e-09
-3.40375e-12
2.50616e-09
-3.7102e-12
2.50715e-09
-4.02009e-12
2.50822e-09
-4.33397e-12
2.50937e-09
-4.65246e-12
2.51059e-09
-4.97622e-12
2.51189e-09
-5.30595e-12
2.51328e-09
-5.64239e-12
2.51474e-09
-5.98635e-12
2.5163e-09
-6.33864e-12
2.51794e-09
-6.70016e-12
2.51966e-09
-7.07181e-12
2.52149e-09
-7.45454e-12
2.5234e-09
-7.84934e-12
2.52542e-09
-8.25722e-12
2.52754e-09
-8.67925e-12
2.52976e-09
-9.11649e-12
2.53209e-09
-9.57008e-12
2.53454e-09
-1.00412e-11
2.5371e-09
-1.05309e-11
2.53979e-09
-1.10405e-11
2.5426e-09
-1.15711e-11
2.54555e-09
-1.21241e-11
2.54864e-09
-1.27007e-11
2.55188e-09
-1.33021e-11
2.55526e-09
-1.39297e-11
2.55881e-09
-1.45849e-11
2.56252e-09
-1.52689e-11
2.56641e-09
-1.59831e-11
2.57048e-09
-1.67289e-11
2.57474e-09
-1.75077e-11
2.57919e-09
-1.83207e-11
2.58386e-09
-1.91695e-11
2.58874e-09
-2.00554e-11
2.59385e-09
-2.09796e-11
2.5992e-09
-2.19437e-11
2.60479e-09
-2.29489e-11
2.61064e-09
-2.39964e-11
2.61676e-09
-2.50876e-11
2.62316e-09
-2.62236e-11
2.62986e-09
-2.74055e-11
2.63685e-09
-2.86343e-11
2.64417e-09
-2.99108e-11
2.65182e-09
-3.12359e-11
2.65981e-09
-3.261e-11
2.66816e-09
-3.40334e-11
2.67688e-09
-3.55063e-11
2.68598e-09
-3.70283e-11
2.69548e-09
-3.85987e-11
2.70539e-09
-4.02166e-11
2.71573e-09
-4.18802e-11
2.72651e-09
-4.35874e-11
2.73774e-09
-4.53353e-11
2.74943e-09
-4.71202e-11
2.7616e-09
-4.89375e-11
2.77426e-09
-5.07817e-11
2.78741e-09
-5.26463e-11
2.80106e-09
-5.45236e-11
2.81521e-09
-5.64044e-11
2.82988e-09
-5.82788e-11
2.84505e-09
-6.0135e-11
2.86072e-09
-6.19604e-11
2.87689e-09
-6.37408e-11
2.89354e-09
-6.54612e-11
2.91065e-09
-6.71055e-11
2.9282e-09
-6.8657e-11
2.94616e-09
-7.00985e-11
2.9645e-09
-7.1413e-11
2.98317e-09
-7.25838e-11
3.00215e-09
-7.35955e-11
3.02136e-09
-7.44336e-11
3.04077e-09
-7.5086e-11
3.06031e-09
-7.55429e-11
3.07993e-09
-7.5797e-11
3.09957e-09
-7.58443e-11
3.11915e-09
-7.56836e-11
3.13864e-09
-7.53169e-11
3.15796e-09
-7.47492e-11
3.17706e-09
-7.39878e-11
3.19589e-09
-7.30427e-11
3.2144e-09
-7.19259e-11
3.23255e-09
-7.06506e-11
3.2503e-09
-6.92316e-11
3.26761e-09
-6.76842e-11
3.28446e-09
-6.60242e-11
3.30082e-09
-6.42676e-11
3.31667e-09
-6.243e-11
3.332e-09
-6.05269e-11
3.34679e-09
-5.85728e-11
3.36104e-09
-5.65819e-11
3.37475e-09
-5.4567e-11
3.38792e-09
-5.25404e-11
3.40054e-09
-5.0513e-11
3.41262e-09
-4.84949e-11
3.42418e-09
-4.64952e-11
3.43522e-09
-4.45218e-11
3.44575e-09
-4.25818e-11
3.45579e-09
-4.06811e-11
3.46535e-09
-3.88249e-11
3.47444e-09
-3.70176e-11
3.48308e-09
-3.52626e-11
3.49129e-09
-3.35627e-11
3.49909e-09
-3.19201e-11
3.50648e-09
-3.03361e-11
3.51348e-09
-2.88118e-11
3.52012e-09
-2.73474e-11
3.52641e-09
-2.5943e-11
3.53237e-09
-2.45982e-11
3.538e-09
-2.3312e-11
3.54333e-09
-2.20836e-11
3.54837e-09
-2.09116e-11
3.55314e-09
-1.97944e-11
3.55765e-09
-1.87305e-11
3.56191e-09
-1.7718e-11
3.56593e-09
-1.67551e-11
3.56974e-09
-1.58399e-11
3.57333e-09
-1.49705e-11
3.57672e-09
-1.41449e-11
3.57992e-09
-1.33612e-11
3.58294e-09
-1.26176e-11
3.58579e-09
-1.19121e-11
3.58848e-09
-1.12431e-11
3.59102e-09
-1.06088e-11
3.59341e-09
-1.00074e-11
3.59567e-09
-9.43743e-12
3.59779e-09
-8.89726e-12
3.59979e-09
-8.38541e-12
3.60168e-09
-7.90048e-12
3.60345e-09
-7.44111e-12
3.60513e-09
-7.00599e-12
3.6067e-09
-6.5939e-12
3.60818e-09
-6.20364e-12
3.60957e-09
-5.83407e-12
3.61087e-09
-5.4841e-12
3.6121e-09
-5.15266e-12
3.61325e-09
-4.83878e-12
3.61433e-09
-4.54149e-12
3.61534e-09
-4.25992e-12
3.61629e-09
-3.99322e-12
3.61718e-09
-3.74064e-12
3.61801e-09
-3.50142e-12
3.61879e-09
-3.27491e-12
3.61952e-09
-3.06045e-12
3.62019e-09
-2.85745e-12
3.62082e-09
-2.66534e-12
3.62141e-09
-2.48357e-12
3.62196e-09
-2.31165e-12
3.62247e-09
-2.14909e-12
3.62294e-09
-1.99545e-12
3.62337e-09
-1.85029e-12
3.62378e-09
-1.71321e-12
3.62415e-09
-1.58382e-12
3.62449e-09
-1.46172e-12
3.62481e-09
-1.34654e-12
3.6251e-09
-1.2379e-12
3.62536e-09
-1.13541e-12
3.6256e-09
-1.03872e-12
3.62582e-09
-9.47446e-13
3.62603e-09
-8.61256e-13
3.62621e-09
-7.79817e-13
3.62637e-09
-7.02836e-13
3.62651e-09
-6.30063e-13
3.62664e-09
-5.61263e-13
3.62675e-09
-4.96285e-13
3.62685e-09
-4.34969e-13
3.62694e-09
-3.77247e-13
3.62701e-09
-3.23029e-13
3.62706e-09
-2.72296e-13
3.62711e-09
-2.25003e-13
3.62715e-09
-1.8114e-13
3.62717e-09
-1.40676e-13
3.62719e-09
-1.03574e-13
3.6272e-09
-6.97867e-14
3.6272e-09
-3.92408e-14
3.62719e-09
-1.18561e-14
3.62718e-09
1.24738e-14
3.62716e-09
3.38597e-14
3.62714e-09
5.24255e-14
3.62712e-09
6.82993e-14
3.62709e-09
8.16082e-14
3.62706e-09
9.24733e-14
3.62702e-09
1.01019e-13
3.62699e-09
1.07326e-13
3.62695e-09
1.1151e-13
3.62692e-09
1.13597e-13
3.62688e-09
1.13629e-13
3.62685e-09
1.11714e-13
3.62681e-09
1.07898e-13
1.00456e-13
2.50004e-09
-1.82316e-13
2.50015e-09
-5.46926e-13
2.50033e-09
-9.11633e-13
2.50058e-09
-1.27661e-12
2.5009e-09
-1.64199e-12
2.5013e-09
-2.00797e-12
2.50177e-09
-2.37475e-12
2.50231e-09
-2.7426e-12
2.50292e-09
-3.11185e-12
2.50361e-09
-3.48287e-12
2.50436e-09
-3.85611e-12
2.50519e-09
-4.23208e-12
2.50609e-09
-4.61135e-12
2.50707e-09
-4.99457e-12
2.50812e-09
-5.38244e-12
2.50924e-09
-5.77572e-12
2.51044e-09
-6.17525e-12
2.51172e-09
-6.58191e-12
2.51307e-09
-6.99665e-12
2.51451e-09
-7.42046e-12
2.51602e-09
-7.85441e-12
2.51762e-09
-8.2996e-12
2.51931e-09
-8.75717e-12
2.52108e-09
-9.22833e-12
2.52295e-09
-9.71432e-12
2.52491e-09
-1.02164e-11
2.52696e-09
-1.0736e-11
2.52912e-09
-1.12743e-11
2.53139e-09
-1.18329e-11
2.53376e-09
-1.24131e-11
2.53624e-09
-1.30164e-11
2.53885e-09
-1.36444e-11
2.54158e-09
-1.42985e-11
2.54443e-09
-1.49804e-11
2.54742e-09
-1.56916e-11
2.55056e-09
-1.64338e-11
2.55383e-09
-1.72086e-11
2.55727e-09
-1.80177e-11
2.56086e-09
-1.88628e-11
2.56462e-09
-1.97455e-11
2.56856e-09
-2.06678e-11
2.57269e-09
-2.16312e-11
2.577e-09
-2.26375e-11
2.58152e-09
-2.36886e-11
2.58625e-09
-2.47861e-11
2.59121e-09
-2.59318e-11
2.59639e-09
-2.71276e-11
2.60182e-09
-2.8375e-11
2.60749e-09
-2.96759e-11
2.61344e-09
-3.10319e-11
2.61966e-09
-3.24445e-11
2.62617e-09
-3.39154e-11
2.63298e-09
-3.5446e-11
2.64011e-09
-3.70376e-11
2.64756e-09
-3.86913e-11
2.65536e-09
-4.04082e-11
2.66352e-09
-4.2189e-11
2.67204e-09
-4.40342e-11
2.68096e-09
-4.59437e-11
2.69028e-09
-4.79174e-11
2.70002e-09
-4.99543e-11
2.71019e-09
-5.20531e-11
2.72081e-09
-5.42116e-11
2.7319e-09
-5.64267e-11
2.74348e-09
-5.86945e-11
2.75555e-09
-6.101e-11
2.76813e-09
-6.33668e-11
2.78125e-09
-6.57571e-11
2.79489e-09
-6.81718e-11
2.80909e-09
-7.05998e-11
2.82384e-09
-7.30283e-11
2.83914e-09
-7.54426e-11
2.85501e-09
-7.78261e-11
2.87143e-09
-8.01603e-11
2.88839e-09
-8.24249e-11
2.90588e-09
-8.45979e-11
2.92388e-09
-8.66563e-11
2.94236e-09
-8.85759e-11
2.96128e-09
-9.03325e-11
2.9806e-09
-9.19023e-11
3.00026e-09
-9.32625e-11
3.02022e-09
-9.43923e-11
3.04041e-09
-9.52738e-11
3.06076e-09
-9.58926e-11
3.0812e-09
-9.62382e-11
3.10166e-09
-9.63047e-11
3.12206e-09
-9.6091e-11
3.14235e-09
-9.56002e-11
3.16244e-09
-9.484e-11
3.18227e-09
-9.38217e-11
3.20179e-09
-9.256e-11
3.22093e-09
-9.10722e-11
3.23966e-09
-8.93777e-11
3.25792e-09
-8.74973e-11
3.27569e-09
-8.54527e-11
3.29293e-09
-8.32659e-11
3.30962e-09
-8.09589e-11
3.32574e-09
-7.85528e-11
3.34128e-09
-7.60684e-11
3.35623e-09
-7.35251e-11
3.37059e-09
-7.09414e-11
3.38436e-09
-6.83341e-11
3.39754e-09
-6.57189e-11
3.41013e-09
-6.31099e-11
3.42216e-09
-6.05198e-11
3.43362e-09
-5.79597e-11
3.44454e-09
-5.54397e-11
3.45492e-09
-5.29681e-11
3.46479e-09
-5.05523e-11
3.47417e-09
-4.81983e-11
3.48306e-09
-4.59112e-11
3.49149e-09
-4.36949e-11
3.49948e-09
-4.15526e-11
3.50705e-09
-3.94864e-11
3.51421e-09
-3.74977e-11
3.52098e-09
-3.55873e-11
3.52739e-09
-3.37553e-11
3.53345e-09
-3.20012e-11
3.53917e-09
-3.03242e-11
3.54458e-09
-2.87229e-11
3.5497e-09
-2.71956e-11
3.55452e-09
-2.57403e-11
3.55909e-09
-2.43549e-11
3.56339e-09
-2.3037e-11
3.56746e-09
-2.17841e-11
3.5713e-09
-2.05937e-11
3.57492e-09
-1.94632e-11
3.57834e-09
-1.839e-11
3.58157e-09
-1.73715e-11
3.58461e-09
-1.64054e-11
3.58748e-09
-1.5489e-11
3.59019e-09
-1.46201e-11
3.59274e-09
-1.37965e-11
3.59515e-09
-1.30157e-11
3.59742e-09
-1.22759e-11
3.59955e-09
-1.15748e-11
3.60157e-09
-1.09106e-11
3.60346e-09
-1.02814e-11
3.60525e-09
-9.68543e-12
3.60693e-09
-9.1209e-12
3.60851e-09
-8.58624e-12
3.61e-09
-8.07991e-12
3.61139e-09
-7.60044e-12
3.61271e-09
-7.14644e-12
3.61394e-09
-6.71657e-12
3.6151e-09
-6.30955e-12
3.61618e-09
-5.92415e-12
3.6172e-09
-5.55919e-12
3.61816e-09
-5.21354e-12
3.61905e-09
-4.88613e-12
3.61989e-09
-4.57598e-12
3.62067e-09
-4.28215e-12
3.6214e-09
-4.00381e-12
3.62208e-09
-3.74017e-12
3.62271e-09
-3.49054e-12
3.6233e-09
-3.25424e-12
3.62385e-09
-3.03067e-12
3.62436e-09
-2.81923e-12
3.62483e-09
-2.61938e-12
3.62527e-09
-2.43056e-12
3.62567e-09
-2.25228e-12
3.62605e-09
-2.08401e-12
3.62639e-09
-1.92528e-12
3.62671e-09
-1.77558e-12
3.627e-09
-1.63443e-12
3.62726e-09
-1.50137e-12
3.6275e-09
-1.37588e-12
3.62773e-09
-1.25753e-12
3.62793e-09
-1.14581e-12
3.62811e-09
-1.0403e-12
3.62827e-09
-9.4055e-13
3.62842e-09
-8.46193e-13
3.62854e-09
-7.56874e-13
3.62866e-09
-6.72308e-13
3.62876e-09
-5.92274e-13
3.62884e-09
-5.1659e-13
3.62891e-09
-4.45175e-13
3.62897e-09
-3.77947e-13
3.62901e-09
-3.14922e-13
3.62905e-09
-2.56094e-13
3.62907e-09
-2.01503e-13
3.62908e-09
-1.5117e-13
3.62909e-09
-1.0509e-13
3.62909e-09
-6.32591e-14
3.62907e-09
-2.55822e-14
3.62906e-09
8.00233e-15
3.62903e-09
3.76754e-14
3.62901e-09
6.35596e-14
3.62897e-09
8.58824e-14
3.62894e-09
1.04808e-13
3.6289e-09
1.2056e-13
3.62887e-09
1.3332e-13
3.62882e-09
1.43264e-13
3.62878e-09
1.50568e-13
3.62874e-09
1.55352e-13
3.6287e-09
1.57747e-13
3.62865e-09
1.57787e-13
3.62861e-09
1.55554e-13
3.62856e-09
1.50885e-13
1.40791e-13
2.50004e-09
-2.18113e-13
2.50014e-09
-6.54406e-13
2.50032e-09
-1.09071e-12
2.50058e-09
-1.52714e-12
2.5009e-09
-1.96379e-12
2.50129e-09
-2.40082e-12
2.50176e-09
-2.83842e-12
2.50229e-09
-3.27687e-12
2.5029e-09
-3.71652e-12
2.50357e-09
-4.15779e-12
2.50432e-09
-4.6012e-12
2.50513e-09
-5.04734e-12
2.50602e-09
-5.49692e-12
2.50698e-09
-5.95069e-12
2.508e-09
-6.4095e-12
2.5091e-09
-6.87429e-12
2.51027e-09
-7.34607e-12
2.51152e-09
-7.82591e-12
2.51284e-09
-8.31498e-12
2.51423e-09
-8.81448e-12
2.5157e-09
-9.32569e-12
2.51725e-09
-9.84997e-12
2.51889e-09
-1.03887e-11
2.5206e-09
-1.09434e-11
2.5224e-09
-1.15154e-11
2.52429e-09
-1.21065e-11
2.52628e-09
-1.27181e-11
2.52835e-09
-1.3352e-11
2.53053e-09
-1.40099e-11
2.53281e-09
-1.46934e-11
2.5352e-09
-1.54044e-11
2.5377e-09
-1.61447e-11
2.54032e-09
-1.69161e-11
2.54306e-09
-1.77206e-11
2.54593e-09
-1.85601e-11
2.54893e-09
-1.94365e-11
2.55207e-09
-2.03519e-11
2.55537e-09
-2.13083e-11
2.55881e-09
-2.23078e-11
2.56242e-09
-2.33524e-11
2.56619e-09
-2.44442e-11
2.57015e-09
-2.55854e-11
2.57429e-09
-2.67782e-11
2.57863e-09
-2.80246e-11
2.58317e-09
-2.93269e-11
2.58792e-09
-3.06874e-11
2.5929e-09
-3.2108e-11
2.59812e-09
-3.35912e-11
2.60358e-09
-3.5139e-11
2.6093e-09
-3.67535e-11
2.6153e-09
-3.8437e-11
2.62157e-09
-4.01914e-11
2.62814e-09
-4.20189e-11
2.63503e-09
-4.39212e-11
2.64224e-09
-4.59001e-11
2.64979e-09
-4.79573e-11
2.65769e-09
-5.00941e-11
2.66597e-09
-5.23116e-11
2.67463e-09
-5.46107e-11
2.68371e-09
-5.69915e-11
2.69321e-09
-5.94541e-11
2.70315e-09
-6.19974e-11
2.71356e-09
-6.46199e-11
2.72445e-09
-6.7319e-11
2.73585e-09
-7.0091e-11
2.74777e-09
-7.29309e-11
2.76023e-09
-7.58321e-11
2.77326e-09
-7.87864e-11
2.78687e-09
-8.17833e-11
2.80108e-09
-8.48103e-11
2.81591e-09
-8.78523e-11
2.83136e-09
-9.08914e-11
2.84744e-09
-9.39072e-11
2.86415e-09
-9.68759e-11
2.8815e-09
-9.97713e-11
2.89946e-09
-1.02564e-10
2.91803e-09
-1.05223e-10
2.93717e-09
-1.07715e-10
2.95684e-09
-1.10006e-10
2.977e-09
-1.12062e-10
2.99759e-09
-1.1385e-10
3.01854e-09
-1.1534e-10
3.03977e-09
-1.16505e-10
3.0612e-09
-1.17325e-10
3.08274e-09
-1.17784e-10
3.10431e-09
-1.17874e-10
3.12581e-09
-1.17595e-10
3.14717e-09
-1.16951e-10
3.16828e-09
-1.15956e-10
3.18908e-09
-1.14624e-10
3.2095e-09
-1.1298e-10
3.22947e-09
-1.11047e-10
3.24895e-09
-1.08853e-10
3.26788e-09
-1.06428e-10
3.28622e-09
-1.03801e-10
3.30396e-09
-1.01003e-10
3.32106e-09
-9.80621e-11
3.33752e-09
-9.50075e-11
3.35331e-09
-9.18656e-11
3.36845e-09
-8.86614e-11
3.38292e-09
-8.54182e-11
3.39675e-09
-8.21572e-11
3.40992e-09
-7.88975e-11
3.42247e-09
-7.56564e-11
3.4344e-09
-7.2449e-11
3.44573e-09
-6.92888e-11
3.45647e-09
-6.61872e-11
3.46666e-09
-6.31542e-11
3.4763e-09
-6.01979e-11
3.48543e-09
-5.73251e-11
3.49406e-09
-5.45411e-11
3.50221e-09
-5.18502e-11
3.50992e-09
-4.92554e-11
3.51719e-09
-4.67586e-11
3.52405e-09
-4.43611e-11
3.53053e-09
-4.2063e-11
3.53663e-09
-3.98639e-11
3.5424e-09
-3.77627e-11
3.54783e-09
-3.57578e-11
3.55295e-09
-3.38469e-11
3.55778e-09
-3.20275e-11
3.56234e-09
-3.02968e-11
3.56664e-09
-2.86516e-11
3.57069e-09
-2.70887e-11
3.57451e-09
-2.56048e-11
3.57811e-09
-2.41964e-11
3.58151e-09
-2.28603e-11
3.58471e-09
-2.15929e-11
3.58773e-09
-2.03912e-11
3.59058e-09
-1.92519e-11
3.59326e-09
-1.8172e-11
3.59579e-09
-1.71485e-11
3.59817e-09
-1.61787e-11
3.60041e-09
-1.52597e-11
3.60253e-09
-1.43891e-11
3.60452e-09
-1.35644e-11
3.60639e-09
-1.27833e-11
3.60815e-09
-1.20435e-11
3.60981e-09
-1.1343e-11
3.61137e-09
-1.06797e-11
3.61283e-09
-1.00517e-11
3.61421e-09
-9.45703e-12
3.61551e-09
-8.89401e-12
3.61672e-09
-8.36092e-12
3.61786e-09
-7.85618e-12
3.61893e-09
-7.37827e-12
3.61993e-09
-6.92576e-12
3.62087e-09
-6.49727e-12
3.62175e-09
-6.09149e-12
3.62257e-09
-5.70716e-12
3.62334e-09
-5.34309e-12
3.62405e-09
-4.99812e-12
3.62472e-09
-4.67125e-12
3.62535e-09
-4.36148e-12
3.62592e-09
-4.06801e-12
3.62646e-09
-3.79005e-12
3.62696e-09
-3.52694e-12
3.62742e-09
-3.27805e-12
3.62784e-09
-3.04282e-12
3.62824e-09
-2.8207e-12
3.6286e-09
-2.61113e-12
3.62893e-09
-2.41356e-12
3.62923e-09
-2.22743e-12
3.62951e-09
-2.05214e-12
3.62977e-09
-1.88709e-12
3.63e-09
-1.73164e-12
3.63021e-09
-1.58518e-12
3.6304e-09
-1.44704e-12
3.63058e-09
-1.31664e-12
3.63073e-09
-1.19334e-12
3.63087e-09
-1.07663e-12
3.63099e-09
-9.65978e-13
3.6311e-09
-8.60983e-13
3.63119e-09
-7.61296e-13
3.63127e-09
-6.66677e-13
3.63133e-09
-5.76948e-13
3.63138e-09
-4.92053e-13
3.63142e-09
-4.11947e-13
3.63144e-09
-3.36725e-13
3.63145e-09
-2.66412e-13
3.63145e-09
-2.01168e-13
3.63145e-09
-1.41022e-13
3.63143e-09
-8.60973e-14
3.63141e-09
-3.63692e-14
3.63138e-09
8.16516e-15
3.63134e-09
4.7614e-14
3.6313e-09
8.21495e-14
3.63126e-09
1.11954e-13
3.6312e-09