/*--------------------------------*- C++ -*----------------------------------*\
  =========                 |
  \\      /  F ield         | OpenFOAM: The Open Source CFD Toolbox
   \\    /   O peration     | Website:  https://openfoam.org
    \\  /    A nd           | Version:  10
     \\/     M anipulation  |
\*---------------------------------------------------------------------------*/
FoamFile
{
    format      ascii;
    class       volScalarField;
    location    "9300";
    object      p;
}
// * * * * * * * * * * * * * * * * * * * * * * * * * * * * * * * * * * * * * //

dimensions      [1 -1 -2 0 0 0 0];

internalField   nonuniform List<scalar> 
6400
(
111.49
111.502
111.526
111.562
111.611
111.672
111.745
111.832
111.933
112.048
112.177
112.323
112.485
112.664
112.863
113.082
113.323
113.589
113.882
114.205
114.563
114.962
115.408
115.91
116.483
117.147
117.931
118.879
120.405
423.968
841.992
1308.45
1612.88
1789.58
1956.52
2111.96
2251.5
2367.41
2450.85
2494.51
2494.51
2450.85
2367.41
2251.5
2111.96
1956.52
1789.58
1612.88
1308.45
841.992
423.968
120.405
118.879
117.931
117.147
116.483
115.91
115.408
114.962
114.563
114.205
113.882
113.589
113.323
113.082
112.863
112.664
112.485
112.323
112.177
112.048
111.933
111.832
111.745
111.672
111.611
111.562
111.526
111.502
111.49
111.196
111.208
111.232
111.268
111.316
111.377
111.451
111.538
111.638
111.753
111.883
112.028
112.19
112.369
112.568
112.787
113.028
113.293
113.586
113.91
114.268
114.666
115.111
115.613
116.185
116.847
117.63
118.584
119.935
124.402
545.347
1016.27
1321.17
1497.7
1665.09
1821.57
1962.92
2080.88
2166.01
2210.57
2210.57
2166.01
2080.88
1962.92
1821.57
1665.09
1497.7
1321.17
1016.27
545.347
124.402
119.935
118.584
117.63
116.847
116.185
115.613
115.111
114.666
114.268
113.91
113.586
113.293
113.028
112.787
112.568
112.369
112.19
112.028
111.883
111.753
111.638
111.538
111.451
111.377
111.316
111.268
111.232
111.208
111.196
110.872
110.884
110.908
110.944
110.992
111.053
111.127
111.214
111.314
111.429
111.559
111.704
111.866
112.045
112.243
112.462
112.703
112.968
113.261
113.584
113.941
114.339
114.783
115.284
115.854
116.513
117.29
118.24
119.531
121.285
216.063
698.243
1004.09
1179.98
1348.41
1507.29
1653
1775.91
1865.1
1911.78
1911.78
1865.1
1775.91
1653
1507.29
1348.41
1179.98
1004.09
698.243
216.063
121.285
119.531
118.24
117.29
116.513
115.854
115.284
114.783
114.339
113.941
113.584
113.261
112.968
112.703
112.462
112.243
112.045
111.866
111.704
111.559
111.429
111.314
111.214
111.127
111.053
110.992
110.944
110.908
110.884
110.872
110.516
110.528
110.552
110.588
110.637
110.697
110.771
110.858
110.958
111.073
111.202
111.347
111.509
111.688
111.886
112.104
112.345
112.61
112.902
113.224
113.581
113.977
114.42
114.918
115.485
116.139
116.907
117.842
119.06
120.592
121.995
355.717
660.338
833.869
1004.26
1167.15
1321.01
1453.17
1549.87
1600.35
1600.35
1549.87
1453.17
1321.01
1167.15
1004.26
833.869
660.338
355.717
121.995
120.592
119.06
117.842
116.907
116.139
115.485
114.918
114.42
113.977
113.581
113.224
112.902
112.61
112.345
112.104
111.886
111.688
111.509
111.347
111.202
111.073
110.958
110.858
110.771
110.697
110.637
110.588
110.552
110.528
110.516
110.125
110.137
110.161
110.197
110.245
110.306
110.38
110.466
110.567
110.681
110.81
110.955
111.116
111.295
111.493
111.711
111.951
112.215
112.506
112.827
113.182
113.577
114.017
114.512
115.074
115.719
116.475
117.383
118.52
119.859
120.958
121.019
296.29
456.119
630.238
798.215
966.385
1114.46
1223.94
1280.46
1280.46
1223.94
1114.46
966.385
798.215
630.238
456.119
296.29
121.019
120.958
119.859
118.52
117.383
116.475
115.719
115.074
114.512
114.017
113.577
113.182
112.827
112.506
112.215
111.951
111.711
111.493
111.295
111.116
110.955
110.81
110.681
110.567
110.466
110.38
110.306
110.245
110.197
110.161
110.137
110.125
109.695
109.707
109.731
109.767
109.815
109.876
109.949
110.036
110.136
110.25
110.379
110.523
110.684
110.863
111.06
111.277
111.516
111.779
112.069
112.388
112.742
113.133
113.57
114.06
114.615
115.25
115.987
116.86
117.909
119.078
120.014
120.218
120.381
120.742
234.761
396.487
589.887
764.029
894.718
959.835
959.835
894.718
764.029
589.887
396.487
234.761
120.742
120.381
120.218
120.014
119.078
117.909
116.86
115.987
115.25
114.615
114.06
113.57
113.133
112.742
112.388
112.069
111.779
111.516
111.277
111.06
110.863
110.684
110.523
110.379
110.25
110.136
110.036
109.949
109.876
109.815
109.767
109.731
109.707
109.695
109.222
109.234
109.258
109.294
109.342
109.402
109.476
109.562
109.662
109.775
109.904
110.048
110.208
110.386
110.582
110.798
111.036
111.298
111.586
111.904
112.254
112.642
113.074
113.558
114.103
114.723
115.437
116.266
117.226
118.246
119.06
119.374
119.577
119.741
119.821
120.433
217.679
415.905
579.058
653.537
653.537
579.058
415.905
217.679
120.433
119.821
119.741
119.577
119.374
119.06
118.246
117.226
116.266
115.437
114.723
114.103
113.558
113.074
112.642
112.254
111.904
111.586
111.298
111.036
110.798
110.582
110.386
110.208
110.048
109.904
109.775
109.662
109.562
109.476
109.402
109.342
109.294
109.258
109.234
109.222
108.702
108.714
108.738
108.773
108.821
108.881
108.954
109.04
109.14
109.253
109.381
109.524
109.684
109.861
110.056
110.271
110.507
110.767
111.053
111.368
111.714
112.098
112.524
112.999
113.531
114.133
114.818
115.598
116.47
117.361
118.078
118.453
118.669
118.802
118.909
119.024
119.176
165.227
322.121
393.727
393.727
322.121
165.227
119.176
119.024
118.909
118.802
118.669
118.453
118.078
117.361
116.47
115.598
114.818
114.133
113.531
112.999
112.524
112.098
111.714
111.368
111.053
110.767
110.507
110.271
110.056
109.861
109.684
109.524
109.381
109.253
109.14
109.04
108.954
108.881
108.821
108.773
108.738
108.714
108.702
108.13
108.141
108.165
108.2
108.248
108.308
108.381
108.466
108.565
108.678
108.805
108.948
109.106
109.282
109.476
109.689
109.923
110.181
110.464
110.774
111.117
111.494
111.912
112.376
112.894
113.474
114.124
114.85
115.637
116.418
117.056
117.454
117.672
117.795
117.901
117.997
118.071
122.073
191.462
233.405
233.405
191.462
122.073
118.071
117.997
117.901
117.795
117.672
117.454
117.056
116.418
115.637
114.85
114.124
113.474
112.894
112.376
111.912
111.494
111.117
110.774
110.464
110.181
109.923
109.689
109.476
109.282
109.106
108.948
108.805
108.678
108.565
108.466
108.381
108.308
108.248
108.2
108.165
108.141
108.13
107.499
107.511
107.534
107.57
107.617
107.677
107.749
107.834
107.932
108.044
108.171
108.312
108.469
108.643
108.835
109.047
109.278
109.533
109.812
110.118
110.454
110.824
111.232
111.683
112.183
112.736
113.349
114.018
114.724
115.41
115.981
116.377
116.59
116.705
116.806
116.894
116.973
118.203
148.095
169.185
169.185
148.095
118.203
116.973
116.894
116.806
116.705
116.59
116.377
115.981
115.41
114.724
114.018
113.349
112.736
112.183
111.683
111.232
110.824
110.454
110.118
109.812
109.533
109.278
109.047
108.835
108.643
108.469
108.312
108.171
108.044
107.932
107.834
107.749
107.677
107.617
107.57
107.534
107.511
107.499
106.805
106.817
106.84
106.875
106.922
106.981
107.053
107.137
107.235
107.346
107.471
107.611
107.767
107.939
108.129
108.337
108.566
108.817
109.091
109.391
109.72
110.081
110.477
110.912
111.39
111.914
112.486
113.098
113.728
114.331
114.841
115.219
115.421
115.528
115.618
115.694
115.755
116.171
130.521
142.573
142.573
130.521
116.171
115.755
115.694
115.618
115.528
115.421
115.219
114.841
114.331
113.728
113.098
112.486
111.914
111.39
110.912
110.477
110.081
109.72
109.391
109.091
108.817
108.566
108.337
108.129
107.939
107.767
107.611
107.471
107.346
107.235
107.137
107.053
106.981
106.922
106.875
106.84
106.817
106.805
106.041
106.053
106.076
106.11
106.157
106.215
106.286
106.37
106.466
106.576
106.7
106.838
106.992
107.162
107.349
107.554
107.779
108.024
108.293
108.586
108.906
109.256
109.638
110.054
110.508
111
111.528
112.083
112.643
113.173
113.626
113.977
114.162
114.259
114.338
114.398
114.439
114.555
120.895
128.304
128.304
120.895
114.555
114.439
114.398
114.338
114.259
114.162
113.977
113.626
113.173
112.643
112.083
111.528
111
110.508
110.054
109.638
109.256
108.906
108.586
108.293
108.024
107.779
107.554
107.349
107.162
106.992
106.838
106.7
106.576
106.466
106.37
106.286
106.215
106.157
106.11
106.076
106.053
106.041
105.199
105.21
105.233
105.267
105.313
105.371
105.441
105.524
105.619
105.727
105.849
105.985
106.136
106.303
106.487
106.688
106.908
107.148
107.409
107.694
108.004
108.34
108.706
109.101
109.528
109.985
110.468
110.967
111.463
111.928
112.329
112.645
112.811
112.896
112.963
113.011
113.037
113.048
115.255
120.232
120.232
115.255
113.048
113.037
113.011
112.963
112.896
112.811
112.645
112.329
111.928
111.463
110.967
110.468
109.985
109.528
109.101
108.706
108.34
108.004
107.694
107.409
107.148
106.908
106.688
106.487
106.303
106.136
105.985
105.849
105.727
105.619
105.524
105.441
105.371
105.313
105.267
105.233
105.21
105.199
104.271
104.282
104.304
104.338
104.384
104.44
104.509
104.59
104.684
104.79
104.91
105.044
105.192
105.355
105.535
105.731
105.945
106.178
106.431
106.706
107.003
107.325
107.671
108.044
108.441
108.862
109.3
109.745
110.182
110.588
110.939
111.219
111.365
111.438
111.494
111.531
111.549
111.544
111.89
115.674
115.674
111.89
111.544
111.549
111.531
111.494
111.438
111.365
111.219
110.939
110.588
110.182
109.745
109.3
108.862
108.441
108.044
107.671
107.325
107.003
106.706
106.431
106.178
105.945
105.731
105.535
105.355
105.192
105.044
104.91
104.79
104.684
104.59
104.509
104.44
104.384
104.338
104.304
104.282
104.271
103.247
103.258
103.28
103.314
103.358
103.414
103.481
103.561
103.652
103.757
103.874
104.004
104.149
104.308
104.482
104.672
104.88
105.104
105.348
105.611
105.894
106.199
106.525
106.871
107.238
107.621
108.015
108.409
108.791
109.143
109.449
109.693
109.818
109.881
109.927
109.958
109.971
109.966
109.961
113.064
113.064
109.961
109.966
109.971
109.958
109.927
109.881
109.818
109.693
109.449
109.143
108.791
108.409
108.015
107.621
107.238
106.871
106.525
106.199
105.894
105.611
105.348
105.104
104.88
104.672
104.482
104.308
104.149
104.004
103.874
103.757
103.652
103.561
103.481
103.414
103.358
103.314
103.28
103.258
103.247
102.118
102.129
102.151
102.183
102.227
102.281
102.347
102.425
102.514
102.615
102.729
102.856
102.996
103.15
103.319
103.502
103.701
103.916
104.149
104.398
104.666
104.951
105.255
105.574
105.909
106.254
106.605
106.951
107.283
107.587
107.849
108.058
108.165
108.218
108.257
108.282
108.292
108.288
108.279
111.144
111.144
108.279
108.288
108.292
108.282
108.257
108.218
108.165
108.058
107.849
107.587
107.283
106.951
106.605
106.254
105.909
105.574
105.255
104.951
104.666
104.398
104.149
103.916
103.701
103.502
103.319
103.15
102.996
102.856
102.729
102.615
102.514
102.425
102.347
102.281
102.227
102.183
102.151
102.129
102.118
100.794
100.804
100.825
100.857
100.899
100.952
101.015
101.09
101.177
101.275
101.385
101.507
101.641
101.789
101.95
102.125
102.314
102.518
102.737
102.971
103.22
103.483
103.761
104.051
104.351
104.656
104.962
105.262
105.545
105.802
106.022
106.198
106.286
106.33
106.362
106.382
106.39
106.385
106.376
109.205
109.205
106.376
106.385
106.39
106.382
106.362
106.33
106.286
106.198
106.022
105.802
105.545
105.262
104.962
104.656
104.351
104.051
103.761
103.483
103.22
102.971
102.737
102.518
102.314
102.125
101.95
101.789
101.641
101.507
101.385
101.275
101.177
101.09
101.015
100.952
100.899
100.857
100.825
100.804
100.794
99.3219
99.332
99.3521
99.3825
99.4231
99.474
99.5354
99.6074
99.6902
99.7841
99.8892
100.006
100.134
100.274
100.427
100.592
100.77
100.961
101.164
101.381
101.609
101.85
102.101
102.36
102.626
102.893
103.158
103.414
103.653
103.869
104.052
104.197
104.27
104.306
104.331
104.347
104.352
104.348
104.338
107.195
107.195
104.338
104.348
104.352
104.347
104.331
104.306
104.27
104.197
104.052
103.869
103.653
103.414
103.158
102.893
102.626
102.36
102.101
101.85
101.609
101.381
101.164
100.961
100.77
100.592
100.427
100.274
100.134
100.006
99.8892
99.7841
99.6902
99.6074
99.5354
99.474
99.4231
99.3825
99.3521
99.332
99.3219
97.84
97.8497
97.8691
97.8982
97.9371
97.9859
98.0447
98.1136
98.1927
98.2822
98.3823
98.493
98.6147
98.7473
98.8912
99.0463
99.2126
99.3903
99.579
99.7783
99.9877
100.206
100.432
100.664
100.899
101.133
101.362
101.582
101.785
101.967
102.121
102.242
102.302
102.33
102.351
102.363
102.367
102.362
102.352
105.255
105.255
102.352
102.362
102.367
102.363
102.351
102.33
102.302
102.242
102.121
101.967
101.785
101.582
101.362
101.133
100.899
100.664
100.432
100.206
99.9877
99.7783
99.579
99.3903
99.2126
99.0463
98.8912
98.7473
98.6147
98.493
98.3823
98.2822
98.1927
98.1136
98.0447
97.9859
97.9371
97.8982
97.8691
97.8497
97.84
96.3485
96.3578
96.3763
96.4041
96.4413
96.4879
96.544
96.6096
96.6848
96.7698
96.8647
96.9695
97.0843
97.2092
97.3441
97.4892
97.6442
97.8089
97.983
98.1659
98.3569
98.5547
98.758
98.9647
99.1722
99.3775
99.5767
99.7657
99.9397
100.094
100.223
100.324
100.373
100.397
100.413
100.423
100.425
100.42
100.41
103.372
103.372
100.41
100.42
100.425
100.423
100.413
100.397
100.373
100.324
100.223
100.094
99.9397
99.7657
99.5767
99.3775
99.1722
98.9647
98.758
98.5547
98.3569
98.1659
97.983
97.8089
97.6442
97.4892
97.3441
97.2092
97.0843
96.9695
96.8647
96.7698
96.6848
96.6096
96.544
96.4879
96.4413
96.4041
96.3763
96.3578
96.3485
94.8478
94.8566
94.8742
94.9007
94.9361
94.9804
95.0336
95.0959
95.1672
95.2476
95.3372
95.4359
95.5438
95.6609
95.7871
95.9221
96.066
96.2181
96.3782
96.5455
96.7191
96.8979
97.0803
97.2644
97.4479
97.628
97.8014
97.9646
98.1138
98.2449
98.3543
98.4386
98.4793
98.4985
98.5117
98.5189
98.5199
98.5147
98.505
101.536
101.536
98.505
98.5147
98.5199
98.5189
98.5117
98.4985
98.4793
98.4386
98.3543
98.2449
98.1138
97.9646
97.8014
97.628
97.4479
97.2644
97.0803
96.8979
96.7191
96.5455
96.3782
96.2181
96.066
95.9221
95.7871
95.6609
95.5438
95.4359
95.3372
95.2476
95.1672
95.0959
95.0336
94.9804
94.9361
94.9007
94.8742
94.8566
94.8478
93.3382
93.3466
93.3633
93.3884
93.422
93.4639
93.5143
93.5731
93.6404
93.7162
93.8005
93.8932
93.9942
94.1036
94.221
94.3464
94.4794
94.6195
94.7662
94.9188
95.0763
95.2375
95.4009
95.5649
95.7271
95.8852
96.0364
96.1777
96.3059
96.4178
96.5105
96.5812
96.6148
96.6304
96.6409
96.6462
96.6462
96.6409
96.6312
99.7433
99.7433
96.6312
96.6409
96.6462
96.6462
96.6409
96.6304
96.6148
96.5812
96.5105
96.4178
96.3059
96.1777
96.0364
95.8852
95.7271
95.5649
95.4009
95.2375
95.0763
94.9188
94.7662
94.6195
94.4794
94.3464
94.221
94.1036
93.9942
93.8932
93.8005
93.7162
93.6404
93.5731
93.5143
93.4639
93.422
93.3884
93.3633
93.3466
93.3382
91.8202
91.8282
91.844
91.8677
91.8994
91.939
91.9865
92.0419
92.1052
92.1764
92.2554
92.342
92.4364
92.5381
92.6471
92.7631
92.8856
93.0142
93.1483
93.2871
93.4297
93.5748
93.7211
93.867
94.0104
94.1493
94.2813
94.4038
94.5142
94.61
94.6886
94.748
94.7757
94.7883
94.7966
94.8003
94.7994
94.794
94.7843
97.9897
97.9897
94.7843
94.794
94.7994
94.8003
94.7966
94.7883
94.7757
94.748
94.6886
94.61
94.5142
94.4038
94.2813
94.1493
94.0104
93.867
93.7211
93.5748
93.4297
93.2871
93.1483
93.0142
92.8856
92.7631
92.6471
92.5381
92.4364
92.342
92.2554
92.1764
92.1052
92.0419
91.9865
91.939
91.8994
91.8677
91.844
91.8282
91.8202
90.2944
90.3018
90.3167
90.3391
90.3689
90.4062
90.4508
90.5028
90.5622
90.6287
90.7025
90.7833
90.871
90.9654
91.0662
91.1731
91.2857
91.4035
91.5257
91.6517
91.7805
91.911
92.0418
92.1714
92.2982
92.4203
92.5356
92.6419
92.7372
92.8192
92.8861
92.9359
92.9586
92.9688
92.9751
92.9775
92.9759
92.9703
92.9607
96.2723
96.2723
92.9607
92.9703
92.9759
92.9775
92.9751
92.9688
92.9586
92.9359
92.8861
92.8192
92.7372
92.6419
92.5356
92.4203
92.2982
92.1714
92.0418
91.911
91.7805
91.6517
91.5257
91.4035
91.2857
91.1731
91.0662
90.9654
90.871
90.7833
90.7025
90.6287
90.5622
90.5028
90.4508
90.4062
90.3689
90.3391
90.3167
90.3018
90.2944
88.761
88.768
88.7821
88.8031
88.831
88.8659
88.9077
88.9564
89.0118
89.0739
89.1426
89.2177
89.299
89.3863
89.4793
89.5776
89.6807
89.7882
89.8994
90.0136
90.1297
90.2468
90.3636
90.4788
90.5908
90.6981
90.7988
90.8912
90.9734
91.0437
91.1005
91.1422
91.1607
91.1687
91.1734
91.1747
91.1725
91.1669
91.1573
94.5895
94.5895
91.1573
91.1669
91.1725
91.1747
91.1734
91.1687
91.1607
91.1422
91.1005
91.0437
90.9734
90.8912
90.7988
90.6981
90.5908
90.4788
90.3636
90.2468
90.1297
90.0136
89.8994
89.7882
89.6807
89.5776
89.4793
89.3863
89.299
89.2177
89.1426
89.0739
89.0118
88.9564
88.9077
88.8659
88.831
88.8031
88.7821
88.768
88.761
87.2207
87.2273
87.2404
87.26
87.2862
87.3188
87.3578
87.4032
87.4548
87.5125
87.5763
87.6458
87.721
87.8015
87.887
87.9771
88.0714
88.1693
88.2702
88.3734
88.4779
88.5828
88.687
88.7892
88.8882
88.9824
89.0704
89.1507
89.2216
89.2818
89.3298
89.3647
89.3795
89.3858
89.3891
89.3894
89.3867
89.381
89.3714
92.9405
92.9405
89.3714
89.381
89.3867
89.3894
89.3891
89.3858
89.3795
89.3647
89.3298
89.2818
89.2216
89.1507
89.0704
88.9824
88.8882
88.7892
88.687
88.5828
88.4779
88.3734
88.2702
88.1693
88.0714
87.9771
87.887
87.8015
87.721
87.6458
87.5763
87.5125
87.4548
87.4032
87.3578
87.3188
87.2862
87.26
87.2404
87.2273
87.2207
85.6738
85.6799
85.6922
85.7105
85.7349
85.7653
85.8016
85.8437
85.8917
85.9452
86.0042
86.0684
86.1376
86.2116
86.29
86.3725
86.4584
86.5474
86.6388
86.7318
86.8257
86.9196
87.0124
87.103
87.1903
87.273
87.3498
87.4194
87.4805
87.5319
87.5725
87.6013
87.6131
87.6178
87.6199
87.6194
87.6162
87.6104
87.6009
91.3255
91.3255
87.6009
87.6104
87.6162
87.6194
87.6199
87.6178
87.6131
87.6013
87.5725
87.5319
87.4805
87.4194
87.3498
87.273
87.1903
87.103
87.0124
86.9196
86.8257
86.7318
86.6388
86.5474
86.4584
86.3725
86.29
86.2116
86.1376
86.0684
86.0042
85.9452
85.8917
85.8437
85.8016
85.7653
85.7349
85.7105
85.6922
85.6799
85.6738
84.1208
84.1265
84.1379
84.1549
84.1776
84.2058
84.2395
84.2785
84.3229
84.3724
84.4268
84.4859
84.5496
84.6174
84.6891
84.7643
84.8424
84.9231
85.0056
85.0894
85.1736
85.2574
85.3399
85.4201
85.497
85.5694
85.6363
85.6966
85.7491
85.7929
85.8269
85.8505
85.8596
85.8629
85.8639
85.8627
85.8591
85.8532
85.8438
89.7457
89.7457
85.8438
85.8532
85.8591
85.8627
85.8639
85.8629
85.8596
85.8505
85.8269
85.7929
85.7491
85.6966
85.6363
85.5694
85.497
85.4201
85.3399
85.2574
85.1736
85.0894
85.0056
84.9231
84.8424
84.7643
84.6891
84.6174
84.5496
84.4859
84.4268
84.3724
84.3229
84.2785
84.2395
84.2058
84.1776
84.1549
84.1379
84.1265
84.1208
82.5621
82.5674
82.5779
82.5937
82.6147
82.6408
82.672
82.7081
82.749
82.7946
82.8446
82.8989
82.9573
83.0193
83.0847
83.1531
83.224
83.2969
83.3713
83.4465
83.5218
83.5965
83.6697
83.7405
83.8081
83.8714
83.9296
83.9816
84.0265
84.0635
84.0918
84.1108
84.1175
84.1196
84.1197
84.1177
84.1138
84.1077
84.0984
88.2037
88.2037
84.0984
84.1077
84.1138
84.1177
84.1197
84.1196
84.1175
84.1108
84.0918
84.0635
84.0265
83.9816
83.9296
83.8714
83.8081
83.7405
83.6697
83.5965
83.5218
83.4465
83.3713
83.2969
83.224
83.1531
83.0847
83.0193
82.9573
82.8989
82.8446
82.7946
82.749
82.7081
82.672
82.6408
82.6147
82.5937
82.5779
82.5674
82.5621
80.9981
81.0029
81.0127
81.0273
81.0467
81.0708
81.0996
81.1328
81.1705
81.2123
81.2583
81.308
81.3613
81.4178
81.4773
81.5393
81.6035
81.6693
81.7361
81.8035
81.8707
81.9371
82.0019
82.0643
82.1235
82.1786
82.2289
82.2736
82.3118
82.3428
82.366
82.3809
82.3854
82.3864
82.3857
82.3831
82.3788
82.3726
82.3634
86.7034
86.7034
82.3634
82.3726
82.3788
82.3831
82.3857
82.3864
82.3854
82.3809
82.366
82.3428
82.3118
82.2736
82.2289
82.1786
82.1235
82.0643
82.0019
81.9371
81.8707
81.8035
81.7361
81.6693
81.6035
81.5393
81.4773
81.4178
81.3613
81.308
81.2583
81.2123
81.1705
81.1328
81.0996
81.0708
81.0467
81.0273
81.0127
81.0029
80.9981
79.4292
79.4337
79.4427
79.4561
79.474
79.4962
79.5226
79.5532
79.5877
79.6261
79.668
79.7135
79.762
79.8134
79.8674
79.9235
79.9814
80.0405
80.1005
80.1607
80.2205
80.2793
80.3364
80.3912
80.4429
80.4907
80.534
80.5721
80.6042
80.6299
80.6485
80.6598
80.6623
80.6623
80.6607
80.6576
80.6529
80.6466
80.6375
85.2509
85.2509
80.6375
80.6466
80.6529
80.6576
80.6607
80.6623
80.6623
80.6598
80.6485
80.6299
80.6042
80.5721
80.534
80.4907
80.4429
80.3912
80.3364
80.2793
80.2205
80.1607
80.1005
80.0405
79.9814
79.9235
79.8674
79.8134
79.762
79.7135
79.668
79.6261
79.5877
79.5532
79.5226
79.4962
79.474
79.4561
79.4427
79.4337
79.4292
77.8558
77.8599
77.8682
77.8805
77.8969
77.9173
77.9415
77.9695
78.0011
78.0361
78.0744
78.1158
78.1599
78.2065
78.2553
78.3059
78.358
78.411
78.4646
78.5182
78.5712
78.6231
78.6734
78.7212
78.7661
78.8073
78.8443
78.8764
78.9031
78.924
78.9385
78.9463
78.947
78.9461
78.9438
78.94
78.935
78.9285
78.9195
83.8546
83.8546
78.9195
78.9285
78.935
78.94
78.9438
78.9461
78.947
78.9463
78.9385
78.924
78.9031
78.8764
78.8443
78.8073
78.7661
78.7212
78.6734
78.6231
78.5712
78.5182
78.4646
78.411
78.358
78.3059
78.2553
78.2065
78.1599
78.1158
78.0744
78.0361
78.0011
77.9695
77.9415
77.9173
77.8969
77.8805
77.8682
77.8599
77.8558
76.2782
76.282
76.2896
76.3009
76.3159
76.3346
76.3567
76.3823
76.4111
76.443
76.4778
76.5153
76.5553
76.5974
76.6414
76.6869
76.7336
76.781
76.8287
76.8762
76.9231
76.9687
77.0126
77.0542
77.0929
77.1282
77.1594
77.1862
77.208
77.2244
77.235
77.2397
77.2387
77.2368
77.2338
77.2295
77.224
77.2173
77.2084
82.529
82.529
77.2084
77.2173
77.224
77.2295
77.2338
77.2368
77.2387
77.2397
77.235
77.2244
77.208
77.1862
77.1594
77.1282
77.0929
77.0542
77.0126
76.9687
76.9231
76.8762
76.8287
76.781
76.7336
76.6869
76.6414
76.5974
76.5553
76.5153
76.4778
76.443
76.4111
76.3823
76.3567
76.3346
76.3159
76.3009
76.2896
76.282
76.2782
74.6969
74.7003
74.7073
74.7176
74.7313
74.7483
74.7685
74.7917
74.8179
74.8469
74.8784
74.9124
74.9485
74.9864
75.0259
75.0667
75.1084
75.1506
75.193
75.2349
75.2761
75.3161
75.3542
75.3901
75.4232
75.453
75.4791
75.501
75.5182
75.5305
75.5376
75.5393
75.5365
75.5338
75.5299
75.525
75.5191
75.5121
75.5033
81.2944
81.2944
75.5033
75.5121
75.5191
75.525
75.5299
75.5338
75.5365
75.5393
75.5376
75.5305
75.5182
75.501
75.4791
75.453
75.4232
75.3901
75.3542
75.3161
75.2761
75.2349
75.193
75.1506
75.1084
75.0667
75.0259
74.9864
74.9485
74.9124
74.8784
74.8469
74.8179
74.7917
74.7685
74.7483
74.7313
74.7176
74.7073
74.7003
74.6969
73.112
73.1152
73.1215
73.1309
73.1434
73.1588
73.1772
73.1983
73.222
73.2482
73.2767
73.3073
73.3398
73.3739
73.4092
73.4457
73.4828
73.5202
73.5576
73.5945
73.6305
73.6652
73.6981
73.7288
73.7568
73.7816
73.803
73.8203
73.8334
73.8419
73.8456
73.8443
73.8398
73.8361
73.8315
73.8259
73.8194
73.812
73.8033
80.1828
80.1828
73.8033
73.812
73.8194
73.8259
73.8315
73.8361
73.8398
73.8443
73.8456
73.8419
73.8334
73.8203
73.803
73.7816
73.7568
73.7288
73.6981
73.6652
73.6305
73.5945
73.5576
73.5202
73.4828
73.4457
73.4092
73.3739
73.3398
73.3073
73.2767
73.2482
73.222
73.1983
73.1772
73.1588
73.1434
73.1309
73.1215
73.1152
73.112
71.5241
71.5269
71.5327
71.5412
71.5525
71.5665
71.5831
71.6022
71.6236
71.6473
71.6729
71.7004
71.7295
71.76
71.7915
71.8239
71.8568
71.8898
71.9226
71.9549
71.9861
72.0161
72.0442
72.0701
72.0935
72.1138
72.1308
72.144
72.1531
72.158
72.1584
72.1543
72.148
72.1433
72.1377
72.1313
72.1241
72.1162
72.1076
79.2474
79.2474
72.1076
72.1162
72.1241
72.1313
72.1377
72.1433
72.148
72.1543
72.1584
72.158
72.1531
72.144
72.1308
72.1138
72.0935
72.0701
72.0442
72.0161
71.9861
71.9549
71.9226
71.8898
71.8568
71.8239
71.7915
71.76
71.7295
71.7004
71.6729
71.6473
71.6236
71.6022
71.5831
71.5665
71.5525
71.5412
71.5327
71.5269
71.5241
69.9332
69.9358
69.941
69.9487
69.9589
69.9716
69.9865
70.0037
70.023
70.0443
70.0673
70.0919
70.1179
70.145
70.173
70.2017
70.2306
70.2596
70.2882
70.3162
70.3432
70.3687
70.3925
70.4141
70.4332
70.4494
70.4623
70.4717
70.4772
70.4787
70.4759
70.4688
70.4606
70.4548
70.4481
70.4407
70.4327
70.424
70.4154
78.5818
78.5818
70.4154
70.424
70.4327
70.4407
70.4481
70.4548
70.4606
70.4688
70.4759
70.4787
70.4772
70.4717
70.4623
70.4494
70.4332
70.4141
70.3925
70.3687
70.3432
70.3162
70.2882
70.2596
70.2306
70.2017
70.173
70.145
70.1179
70.0919
70.0673
70.0443
70.023
70.0037
69.9865
69.9716
69.9589
69.9487
69.941
69.9358
69.9332
68.3398
68.3421
68.3468
68.3537
68.3629
68.3743
68.3878
68.4032
68.4205
68.4395
68.4601
68.482
68.5051
68.5291
68.5539
68.5791
68.6045
68.6297
68.6545
68.6786
68.7016
68.7232
68.743
68.7606
68.7758
68.7881
68.7974
68.8032
68.8053
68.8035
68.7977
68.7876
68.7773
68.7702
68.7623
68.7537
68.7445
68.7347
68.7261
78.3537
78.3537
68.7261
68.7347
68.7445
68.7537
68.7623
68.7702
68.7773
68.7876
68.7977
68.8035
68.8053
68.8032
68.7974
68.7881
68.7758
68.7606
68.743
68.7232
68.7016
68.6786
68.6545
68.6297
68.6045
68.5791
68.5539
68.5291
68.5051
68.482
68.4601
68.4395
68.4205
68.4032
68.3878
68.3743
68.3629
68.3537
68.3468
68.3421
68.3398
66.744
66.7461
66.7503
66.7565
66.7648
66.775
66.787
66.8008
66.8162
66.8332
66.8515
66.8709
66.8913
66.9125
66.9343
66.9563
66.9784
67.0003
67.0216
67.0421
67.0615
67.0794
67.0955
67.1096
67.1212
67.1301
67.1359
67.1384
67.1374
67.1325
67.1236
67.1105
67.098
67.0894
67.08
67.0698
67.059
67.0477
67.0388
78.7829
78.7829
67.0388
67.0477
67.059
67.0698
67.08
67.0894
67.098
67.1105
67.1236
67.1325
67.1374
67.1384
67.1359
67.1301
67.1212
67.1096
67.0955
67.0794
67.0615
67.0421
67.0216
67.0003
66.9784
66.9563
66.9343
66.9125
66.8913
66.8709
66.8515
66.8332
66.8162
66.8008
66.787
66.775
66.7648
66.7565
66.7503
66.7461
66.744
65.1461
65.1479
65.1517
65.1573
65.1647
65.1738
65.1845
65.1968
65.2105
65.2255
65.2417
65.2589
65.2768
65.2954
65.3144
65.3335
65.3526
65.3714
65.3895
65.4067
65.4228
65.4374
65.4502
65.461
65.4693
65.475
65.4777
65.4772
65.4732
65.4655
65.4538
65.4378
65.4229
65.4127
65.4016
65.3893
65.3761
65.3621
65.3521
78.8679
78.8679
65.3521
65.3621
65.3761
65.3893
65.4016
65.4127
65.4229
65.4378
65.4538
65.4655
65.4732
65.4772
65.4777
65.475
65.4693
65.461
65.4502
65.4374
65.4228
65.4067
65.3895
65.3714
65.3526
65.3335
65.3144
65.2954
65.2768
65.2589
65.2417
65.2255
65.2105
65.1968
65.1845
65.1738
65.1647
65.1573
65.1517
65.1479
65.1461
63.5463
63.548
63.5513
63.5563
63.5628
63.5709
63.5804
63.5913
63.6034
63.6167
63.6309
63.646
63.6617
63.6779
63.6943
63.7108
63.7271
63.743
63.7583
63.7725
63.7856
63.7972
63.807
63.8147
63.8201
63.8229
63.8228
63.8195
63.8128
63.8025
63.7882
63.7696
63.7528
63.7413
63.7285
63.714
63.6971
63.6766
63.6579
64.9825
64.9825
63.6579
63.6766
63.6971
63.714
63.7285
63.7413
63.7528
63.7696
63.7882
63.8025
63.8128
63.8195
63.8228
63.8229
63.8201
63.8147
63.807
63.7972
63.7856
63.7725
63.7583
63.743
63.7271
63.7108
63.6943
63.6779
63.6617
63.646
63.6309
63.6167
63.6034
63.5913
63.5804
63.5709
63.5628
63.5563
63.5513
63.548
63.5463
61.945
61.9465
61.9495
61.9539
61.9597
61.9668
61.9752
61.9848
61.9955
62.0071
62.0196
62.0327
62.0463
62.0603
62.0745
62.0885
62.1023
62.1156
62.1282
62.1398
62.1502
62.159
62.1661
62.1711
62.1739
62.174
62.1713
62.1655
62.1564
62.1437
62.1271
62.1066
62.0887
62.0769
62.0642
62.0508
62.0368
62.0227
62.0096
63.218
63.218
62.0096
62.0227
62.0368
62.0508
62.0642
62.0769
62.0887
62.1066
62.1271
62.1437
62.1564
62.1655
62.1713
62.174
62.1739
62.1711
62.1661
62.159
62.1502
62.1398
62.1282
62.1156
62.1023
62.0885
62.0745
62.0603
62.0463
62.0327
62.0196
62.0071
61.9955
61.9848
61.9752
61.9668
61.9597
61.9539
61.9495
61.9465
61.945
60.3423
60.3436
60.3462
60.3501
60.3552
60.3615
60.3689
60.3773
60.3866
60.3967
60.4075
60.4189
60.4306
60.4426
60.4546
60.4665
60.478
60.489
60.4992
60.5083
60.5162
60.5226
60.5272
60.5298
60.5301
60.5279
60.5229
60.5149
60.5035
60.4887
60.4701
60.4478
60.4289
60.4166
60.4038
60.3904
60.3767
60.3628
60.349
61.5628
61.5628
60.349
60.3628
60.3767
60.3904
60.4038
60.4166
60.4289
60.4478
60.4701
60.4887
60.5035
60.5149
60.5229
60.5279
60.5301
60.5298
60.5272
60.5226
60.5162
60.5083
60.4992
60.489
60.478
60.4665
60.4546
60.4426
60.4306
60.4189
60.4075
60.3967
60.3866
60.3773
60.3689
60.3615
60.3552
60.3501
60.3462
60.3436
60.3423
58.7383
58.7394
58.7417
58.7451
58.7496
58.7551
58.7615
58.7688
58.7769
58.7857
58.795
58.8047
58.8147
58.8249
58.835
58.8448
58.8543
58.8631
58.8711
58.8781
58.8838
58.8879
58.8904
58.8908
58.889
58.8847
58.8776
58.8675
58.8542
58.8373
58.8169
58.7927
58.7725
58.7595
58.7459
58.7317
58.7171
58.7022
58.6869
59.9169
59.9169
58.6869
58.7022
58.7171
58.7317
58.7459
58.7595
58.7725
58.7927
58.8169
58.8373
58.8542
58.8675
58.8776
58.8847
58.889
58.8908
58.8904
58.8879
58.8838
58.8781
58.8711
58.8631
58.8543
58.8448
58.835
58.8249
58.8147
58.8047
58.795
58.7857
58.7769
58.7688
58.7615
58.7551
58.7496
58.7451
58.7417
58.7394
58.7383
57.1331
57.1341
57.1361
57.139
57.1429
57.1477
57.1532
57.1596
57.1665
57.174
57.182
57.1902
57.1987
57.2072
57.2155
57.2236
57.2312
57.2381
57.2441
57.2491
57.2528
57.255
57.2555
57.254
57.2503
57.2441
57.2352
57.2234
57.2083
57.1897
57.1674
57.1412
57.1195
57.1054
57.0906
57.0751
57.0591
57.0425
57.0254
58.2656
58.2656
57.0254
57.0425
57.0591
57.0751
57.0906
57.1054
57.1195
57.1412
57.1674
57.1897
57.2083
57.2234
57.2352
57.2441
57.2503
57.254
57.2555
57.255
57.2528
57.2491
57.2441
57.2381
57.2312
57.2236
57.2155
57.2072
57.1987
57.1902
57.182
57.174
57.1665
57.1596
57.1532
57.1477
57.1429
57.139
57.1361
57.1341
57.1331
55.5269
55.5278
55.5295
55.532
55.5354
55.5395
55.5442
55.5496
55.5556
55.562
55.5687
55.5756
55.5826
55.5896
55.5964
55.6028
55.6087
55.6139
55.6182
55.6215
55.6234
55.6239
55.6226
55.6195
55.6141
55.6063
55.5959
55.5825
55.5659
55.5457
55.5218
55.4937
55.4702
55.4549
55.4386
55.4215
55.4036
55.3848
55.3651
56.5937
56.5937
55.3651
55.3848
55.4036
55.4215
55.4386
55.4549
55.4702
55.4937
55.5218
55.5457
55.5659
55.5825
55.5959
55.6063
55.6141
55.6195
55.6226
55.6239
55.6234
55.6215
55.6182
55.6139
55.6087
55.6028
55.5964
55.5896
55.5826
55.5756
55.5687
55.562
55.5556
55.5496
55.5442
55.5395
55.5354
55.532
55.5295
55.5278
55.5269
53.9198
53.9206
53.922
53.9242
53.9271
53.9306
53.9346
53.9392
53.9442
53.9495
53.9551
53.9609
53.9666
53.9722
53.9776
53.9825
53.9869
53.9906
53.9934
53.9951
53.9955
53.9944
53.9917
53.9871
53.9803
53.9712
53.9595
53.9448
53.927
53.9056
53.8803
53.8505
53.8254