/*--------------------------------*- C++ -*----------------------------------*\
  =========                 |
  \\      /  F ield         | OpenFOAM: The Open Source CFD Toolbox
   \\    /   O peration     | Website:  https://openfoam.org
    \\  /    A nd           | Version:  10
     \\/     M anipulation  |
\*---------------------------------------------------------------------------*/
FoamFile
{
    format      ascii;
    class       volScalarField;
    location    "21600";
    object      p;
}
// * * * * * * * * * * * * * * * * * * * * * * * * * * * * * * * * * * * * * //

dimensions      [1 -1 -2 0 0 0 0];

internalField   nonuniform List<scalar> 
6400
(
104.746
104.859
108.102
332.192
544.396
722.038
900.216
1074.13
1245.45
1413.39
1578.46
1736.44
1892.09
2049.85
2206.73
2363.06
2521.04
2678.42
2834.52
2988.84
3140.38
3290.01
3438.56
3586.43
3733.4
3879.41
4024.42
4168.18
4310.29
4450.42
4587.66
4719.64
4807.73
4858.84
4906
4948.18
4984.15
5012.65
5032.46
5042.63
5042.63
5032.46
5012.65
4984.15
4948.18
4906
4858.84
4807.73
4719.64
4587.66
4450.42
4310.29
4168.18
4024.42
3879.41
3733.4
3586.43
3438.56
3290.01
3140.38
2988.84
2834.52
2678.42
2521.04
2363.06
2206.73
2049.85
1892.09
1736.44
1578.46
1413.39
1245.45
1074.13
900.216
722.038
544.396
332.192
108.102
104.859
104.746
104.447
104.563
104.968
104.999
252.163
427.934
606.358
780.207
951.576
1119.5
1284.77
1442.53
1597.99
1755.89
1912.75
2068.99
2227.06
2384.48
2540.6
2694.96
2846.47
2996.06
3144.59
3292.48
3439.45
3585.46
3730.48
3874.26
4016.38
4156.55
4293.9
4426.09
4514.42
4565.73
4613.13
4655.57
4691.83
4720.6
4740.63
4750.92
4750.92
4740.63
4720.6
4691.83
4655.57
4613.13
4565.73
4514.42
4426.09
4293.9
4156.55
4016.38
3874.26
3730.48
3585.46
3439.45
3292.48
3144.59
2996.06
2846.47
2694.96
2540.6
2384.48
2227.06
2068.99
1912.75
1755.89
1597.99
1442.53
1284.77
1119.5
951.576
780.207
606.358
427.934
252.163
104.999
104.968
104.563
104.447
104.113
104.224
104.53
104.53
104.406
104.926
284.208
457.887
629.383
797.253
963.011
1120.27
1275.27
1433.49
1590.33
1746.33
1904.65
2062.13
2218.3
2372.78
2524.19
2673.71
2822.19
2970.1
3117.08
3263.1
3408.15
3551.97
3694.12
3834.38
3971.97
4104.65
4193.55
4245.3
4293.24
4336.31
4373.24
4402.65
4423.18
4433.74
4433.74
4423.18
4402.65
4373.24
4336.31
4293.24
4245.3
4193.55
4104.65
3971.97
3834.38
3694.12
3551.97
3408.15
3263.1
3117.08
2970.1
2822.19
2673.71
2524.19
2372.78
2218.3
2062.13
1904.65
1746.33
1590.33
1433.49
1275.27
1120.27
963.011
797.253
629.383
457.887
284.208
104.926
104.406
104.53
104.53
104.224
104.113
103.74
103.84
104.067
104.085
104.013
104.153
103.936
104.377
276.18
443.88
610.633
766.912
921.057
1079.95
1236.72
1392.26
1551.05
1708.65
1864.9
2019.59
2170.83
2320.19
2468.61
2616.57
2763.56
2909.58
3054.68
3198.58
3340.78
3481.19
3619.19
3752.71
3842.59
3895.09
3943.98
3988.15
4026.28
4056.82
4078.26
4089.33
4089.33
4078.26
4056.82
4026.28
3988.15
3943.98
3895.09
3842.59
3752.71
3619.19
3481.19
3340.78
3198.58
3054.68
2909.58
2763.56
2616.57
2468.61
2320.19
2170.83
2019.59
1864.9
1708.65
1551.05
1392.26
1236.72
1079.95
921.057
766.912
610.633
443.88
276.18
104.377
103.936
104.153
104.013
104.085
104.067
103.84
103.74
103.323
103.409
103.576
103.604
103.565
103.642
103.505
103.584
103.331
103.432
225.69
379.46
532.108
692.292
848.921
1003.63
1163.29
1321.02
1477.39
1632.46
1783.38
1932.52
2080.82
2228.88
2375.88
2521.9
2667.07
2811.1
2953.36
3093.99
3232.6
3367.4
3458.75
3512.43
3562.77
3608.69
3648.73
3681.13
3704.05
3715.96
3715.96
3704.05
3681.13
3648.73
3608.69
3562.77
3512.43
3458.75
3367.4
3232.6
3093.99
2953.36
2811.1
2667.07
2521.9
2375.88
2228.88
2080.82
1932.52
1783.38
1632.46
1477.39
1321.02
1163.29
1003.63
848.921
692.292
532.108
379.46
225.69
103.432
103.331
103.584
103.505
103.642
103.565
103.604
103.576
103.409
103.323
102.859
102.929
103.051
103.081
103.063
103.1
103.012
103.03
102.858
102.847
102.665
102.6
104.484
267.396
423.688
576.837
738.114
895.952
1052.45
1208.21
1358.57
1507.37
1655.48
1803.73
1950.74
2096.76
2242.03
2386.27
2528.59
2669.49
2808.95
2945.57
3038.99
3094.31
3146.79
3195.33
3238.31
3273.61
3298.9
3312.15
3312.15
3298.9
3273.61
3238.31
3195.33
3146.79
3094.31
3038.99
2945.57
2808.95
2669.49
2528.59
2386.27
2242.03
2096.76
1950.74
1803.73
1655.48
1507.37
1358.57
1208.21
1052.45
895.952
738.114
576.837
423.688
267.396
104.484
102.6
102.665
102.847
102.858
103.03
103.012
103.1
103.063
103.081
103.051
102.929
102.859
102.341
102.396
102.484
102.514
102.507
102.52
102.46
102.444
102.32
102.276
102.142
102.092
102.244
101.891
101.819
107.496
272.133
429.837
586.412
743.492
892.786
1041.11
1188.93
1337.54
1484.54
1630.53
1775.96
1920.51
2062.84
2204.05
2344.6
2483.75
2579.85
2637.39
2692.85
2745.18
2792.61
2832.43
2861.48
2876.89
2876.89
2861.48
2832.43
2792.61
2745.18
2692.85
2637.39
2579.85
2483.75
2344.6
2204.05
2062.84
1920.51
1775.96
1630.53
1484.54
1337.54
1188.93
1041.11
892.786
743.492
586.412
429.837
272.133
107.496
101.819
101.891
102.244
102.092
102.142
102.276
102.32
102.444
102.46
102.52
102.507
102.514
102.484
102.396
102.341
101.766
101.808
101.87
101.896
101.894
101.894
101.848
101.815
101.721
101.66
101.557
101.509
101.554
101.327
101.255
101.373
100.937
100.786
101.569
235.601
382.062
529.732
677.059
826.415
973.311
1119.22
1264.86
1409.94
1552.15
1693.64
1835.51
1978.07
2077.41
2137.75
2197.19
2254.95
2309.1
2356.07
2391.22
2410.2
2410.2
2391.22
2356.07
2309.1
2254.95
2197.19
2137.75
2077.41
1978.07
1835.51
1693.64
1552.15
1409.94
1264.86
1119.22
973.311
826.415
677.059
529.732
382.062
235.601
101.569
100.786
100.937
101.373
101.255
101.327
101.554
101.509
101.557
101.66
101.721
101.815
101.848
101.894
101.894
101.896
101.87
101.808
101.766
101.129
101.159
101.202
101.223
101.222
101.214
101.176
101.134
101.058
100.992
100.907
100.854
100.839
100.685
100.606
100.605
100.317
100.165
100.137
99.7685
99.5773
99.5499
115.031
266.304
412.747
558.422
704.362
850.418
992.135
1133.76
1277.05
1424.3
1527.07
1590.61
1655.1
1720.44
1784.91
1843.56
1889.01
1914.19
1914.19
1889.01
1843.56
1784.91
1720.44
1655.1
1590.61
1527.07
1424.3
1277.05
1133.76
992.135
850.418
704.362
558.422
412.747
266.304
115.031
99.5499
99.5773
99.7685
100.137
100.165
100.317
100.605
100.606
100.685
100.839
100.854
100.907
100.992
101.058
101.134
101.176
101.214
101.222
101.223
101.202
101.159
101.129
100.425
100.446
100.474
100.489
100.487
100.473
100.439
100.395
100.328
100.262
100.187
100.129
100.082
99.9652
99.8797
99.8171
99.6098
99.4596
99.3591
99.096
98.9216
98.8599
98.8939
98.4519
98.2224
98.155
101.276
238.266
378.041
519.409
663.844
818.102
923.388
989.824
1060
1135.41
1216.12
1294.92
1358.62
1395.51
1395.51
1358.62
1294.92
1216.12
1135.41
1060
989.824
923.388
818.102
663.844
519.409
378.041
238.266
101.276
98.155
98.2224
98.4519
98.8939
98.8599
98.9216
99.096
99.3591
99.4596
99.6098
99.8171
99.8797
99.9652
100.082
100.129
100.187
100.262
100.328
100.395
100.439
100.473
100.487
100.489
100.474
100.446
100.425
99.6475
99.6608
99.6785
99.687
99.6825
99.6658
99.633
99.5885
99.5286
99.4643
99.3947
99.3315
99.268
99.1688
99.0777
98.9858
98.8214
98.6748
98.5431
98.338
98.1767
98.0817
98.0089
97.7116
97.5019
97.396
97.3569
96.9159
96.6427
96.4883
96.5346
165.331
261.777
328.351
403.07
489.806
597.265
712.95
809.989
871.53
871.53
809.989
712.95
597.265
489.806
403.07
328.351
261.777
165.331
96.5346
96.4883
96.6427
96.9159
97.3569
97.396
97.5019
97.7116
98.0089
98.0817
98.1767
98.338
98.5431
98.6748
98.8214
98.9858
99.0777
99.1688
99.268
99.3315
99.3947
99.4643
99.5286
99.5885
99.633
99.6658
99.6825
99.687
99.6785
99.6608
99.6475
98.7912
98.799
98.8086
98.8114
98.8037
98.7846
98.7522
98.7083
98.6526
98.5904
98.5235
98.4566
98.3848
98.2931
98.1982
98.094
97.9519
97.8099
97.6682
97.4946
97.3415
97.222
97.1
96.8754
96.6831
96.5452
96.4159
96.1068
95.8594
95.689
95.5781
95.3185
95.1405
95.0598
95.0103
95.0034
97.9562
147.68
275.359
391.828
391.828
275.359
147.68
97.9562
95.0034
95.0103
95.0598
95.1405
95.3185
95.5781
95.689
95.8594
96.1068
96.4159
96.5452
96.6831
96.8754
97.1
97.222
97.3415
97.4946
97.6682
97.8099
97.9519
98.094
98.1982
98.2931
98.3848
98.4566
98.5235
98.5904
98.6526
98.7083
98.7522
98.7846
98.8037
98.8114
98.8086
98.799
98.7912
97.8494
97.8531
97.8566
97.8545
97.8436
97.8225
97.79
97.7469
97.6938
97.6335
97.5678
97.4986
97.4226
97.3335
97.2367
97.1284
96.9982
96.8612
96.7192
96.5626
96.4143
96.2798
96.137
95.9477
95.767
95.6091
95.4432
95.199
94.9748
94.7925
94.6336
94.4155
94.2653
94.1852
94.1183
94.0605
93.9932
93.9558
93.9019
137.062
137.062
93.9019
93.9558
93.9932
94.0605
94.1183
94.1852
94.2653
94.4155
94.6336
94.7925
94.9748
95.199
95.4432
95.6091
95.767
95.9477
96.137
96.2798
96.4143
96.5626
96.7192
96.8612
96.9982
97.1284
97.2367
97.3335
97.4226
97.4986
97.5678
97.6335
97.6938
97.7469
97.79
97.8225
97.8436
97.8545
97.8566
97.8531
97.8494
96.815
96.8157
96.8146
96.8085
96.7946
96.7717
96.7389
96.6964
96.645
96.5861
96.5211
96.4505
96.3725
96.2842
96.1867
96.078
95.9547
95.8228
95.684
95.5372
95.3918
95.2497
95.0993
94.9267
94.7532
94.5855
94.4076
94.1954
93.9878
93.7999
93.6212
93.4211
93.2806
93.1989
93.1221
93.0484
92.9748
92.9038
92.6811
95.3861
95.3861
92.6811
92.9038
92.9748
93.0484
93.1221
93.1989
93.2806
93.4211
93.6212
93.7999
93.9878
94.1954
94.4076
94.5855
94.7532
94.9267
95.0993
95.2497
95.3918
95.5372
95.684
95.8228
95.9547
96.078
96.1867
96.2842
96.3725
96.4505
96.5211
96.5861
96.645
96.6964
96.7389
96.7717
96.7946
96.8085
96.8146
96.8157
96.815
95.6801
95.6786
95.6742
95.6648
95.6484
95.6239
95.5906
95.5486
95.4981
95.4403
95.3757
95.3044
95.2256
95.1376
95.0405
94.933
94.8143
94.687
94.5525
94.4118
94.2688
94.1239
93.9717
93.8074
93.6385
93.4677
93.288
93.0924
92.8959
92.7069
92.5209
92.3276
92.1891
92.1051
92.0219
91.9382
91.8516
91.7581
91.4501
89.4755
89.4755
91.4501
91.7581
91.8516
91.9382
92.0219
92.1051
92.1891
92.3276
92.5209
92.7069
92.8959
93.0924
93.288
93.4677
93.6385
93.8074
93.9717
94.1239
94.2688
94.4118
94.5525
94.687
94.8143
94.933
95.0405
95.1376
95.2256
95.3044
95.3757
95.4403
95.4981
95.5486
95.5906
95.6239
95.6484
95.6648
95.6742
95.6786
95.6801
94.4361
94.4332
94.4264
94.4144
94.3959
94.3701
94.3362
94.2943
94.2446
94.1874
94.1232
94.0518
93.9728
93.8854
93.7891
93.6835
93.5685
93.4453
93.315
93.1787
93.0381
92.8933
92.7419
92.5823
92.4169
92.2468
92.0693
91.883
91.6939
91.5062
91.3185
91.1274
90.9885
90.9028
90.8166
90.7292
90.6396
90.5469
90.2578
88.3171
88.3171
90.2578
90.5469
90.6396
90.7292
90.8166
90.9028
90.9885
91.1274
91.3185
91.5062
91.6939
91.883
92.0693
92.2468
92.4169
92.5823
92.7419
92.8933
93.0381
93.1787
93.315
93.4453
93.5685
93.6835
93.7891
93.8854
93.9728
94.0518
94.1232
94.1874
94.2446
94.2943
94.3362
94.3701
94.3959
94.4144
94.4264
94.4332
94.4361
92.9873
92.9832
92.9746
92.9607
92.9405
92.9134
92.879
92.8371
92.7878
92.7312
92.6674
92.5964
92.5178
92.4312
92.3364
92.2331
92.1215
92.0022
91.8759
91.7436
91.6058
91.4627
91.3134
91.1575
90.9956
90.828
90.6543
90.4745
90.291
90.1056
89.9184
89.7282
89.5889
89.5024
89.4152
89.3269
89.2374
89.1468
88.8715
87.0923
87.0923
88.8715
89.1468
89.2374
89.3269
89.4152
89.5024
89.5889
89.7282
89.9184
90.1056
90.291
90.4745
90.6543
90.828
90.9956
91.1575
91.3134
91.4627
91.6058
91.7436
91.8759
92.0022
92.1215
92.2331
92.3364
92.4312
92.5178
92.5964
92.6674
92.7312
92.7878
92.8371
92.879
92.9134
92.9405
92.9607
92.9746
92.9832
92.9873
91.3932
91.3884
91.3786
91.3632
91.3418
91.3139
91.2791
91.2372
91.1882
91.1321
91.0689
90.9985
90.9207
90.8354
90.7423
90.6414
90.5329
90.4172
90.2946
90.1659
90.0312
89.8907
89.7443
89.5918
89.4333
89.2692
89.0994
88.9244
88.7452
88.5626
88.3769
88.1877
88.0484
87.9618
87.8744
87.7861
87.6967
87.6064
87.338
85.676
85.676
87.338
87.6064
87.6967
87.7861
87.8744
87.9618
88.0484
88.1877
88.3769
88.5626
88.7452
88.9244
89.0994
89.2692
89.4333
89.5918
89.7443
89.8907
90.0312
90.1659
90.2946
90.4172
90.5329
90.6414
90.7423
90.8354
90.9207
90.9985
91.0689
91.1321
91.1882
91.2372
91.2791
91.3139
91.3418
91.3632
91.3786
91.3884
91.3932
89.8038
89.7986
89.7881
89.7719
89.7497
89.7212
89.6861
89.6443
89.5956
89.54
89.4775
89.4079
89.3312
89.2473
89.156
89.0574
88.9516
88.8389
88.7196
88.594
88.4624
88.3248
88.1813
88.0319
87.8768
87.716
87.5498
87.3785
87.2027
87.0227
86.8388
86.6508
86.512
86.4257
86.3384
86.2503
86.1611
86.0709
85.8091
84.2701
84.2701
85.8091
86.0709
86.1611
86.2503
86.3384
86.4257
86.512
86.6508
86.8388
87.0227
87.2027
87.3785
87.5498
87.716
87.8768
88.0319
88.1813
88.3248
88.4624
88.594
88.7196
88.8389
88.9516
89.0574
89.156
89.2473
89.3312
89.4079
89.4775
89.54
89.5956
89.6443
89.6861
89.7212
89.7497
89.7719
89.7881
89.7986
89.8038
88.2196
88.2142
88.2032
88.1866
88.164
88.1352
88.1
88.0583
88.01
87.9549
87.8932
87.8245
87.749
87.6665
87.577
87.4806
87.3773
87.2673
87.1509
87.0282
86.8995
86.7648
86.6242
86.4779
86.3259
86.1683
86.0053
85.8372
85.6643
85.4868
85.3048
85.1182
84.9801
84.8942
84.8073
84.7194
84.6305
84.5406
84.2859
82.8669
82.8669
84.2859
84.5406
84.6305
84.7194
84.8073
84.8942
84.9801
85.1182
85.3048
85.4868
85.6643
85.8372
86.0053
86.1683
86.3259
86.4779
86.6242
86.7648
86.8995
87.0282
87.1509
87.2673
87.3773
87.4806
87.577
87.6665
87.749
87.8245
87.8932
87.9549
88.01
88.0583
88.1
88.1352
88.164
88.1866
88.2032
88.2142
88.2196
86.6408
86.6353
86.6241
86.6072
86.5844
86.5555
86.5204
86.4789
86.431
86.3766
86.3156
86.248
86.1737
86.0927
86.005
85.9106
85.8096
85.7022
85.5884
85.4684
85.3425
85.2106
85.0729
84.9295
84.7805
84.6259
84.466
84.3008
84.1305
83.9553
83.7753
83.5903
83.453
83.3675
83.281
83.1935
83.105
83.0154
82.7674
81.4631
81.4631
82.7674
83.0154
83.105
83.1935
83.281
83.3675
83.453
83.5903
83.7753
83.9553
84.1305
84.3008
84.466
84.6259
84.7805
84.9295
85.0729
85.2106
85.3425
85.4684
85.5884
85.7022
85.8096
85.9106
86.005
86.0927
86.1737
86.248
86.3156
86.3766
86.431
86.4789
86.5204
86.5555
86.5844
86.6072
86.6241
86.6353
86.6408
85.0676
85.062
85.0507
85.0337
85.0108
84.982
84.9471
84.906
84.8586
84.8049
84.7448
84.6782
84.6052
84.5257
84.4397
84.3473
84.2484
84.1433
84.032
83.9147
83.7914
83.6623
83.5274
83.3868
83.2406
83.0889
82.9318
82.7694
82.6017
82.4288
82.2507
82.0673
81.931
81.8461
81.76
81.6729
81.5846
81.4952
81.2539
80.0592
80.0592
81.2539
81.4952
81.5846
81.6729
81.76
81.8461
81.931
82.0673
82.2507
82.4288
82.6017
82.7694
82.9318
83.0889
83.2406
83.3868
83.5274
83.6623
83.7914
83.9147
84.032
84.1433
84.2484
84.3473
84.4397
84.5257
84.6052
84.6782
84.7448
84.8049
84.8586
84.906
84.9471
84.982
85.0108
85.0337
85.0507
85.062
85.0676
83.4999
83.4943
83.483
83.4661
83.4433
83.4146
83.38
83.3393
83.2925
83.2395
83.1803
83.1149
83.0431
82.9651
82.8808
82.7903
82.6935
82.5906
82.4817
82.3669
82.2462
82.1197
81.9875
81.8497
81.7063
81.5574
81.403
81.2432
81.0781
80.9075
80.7314
80.5498
80.4145
80.3301
80.2445
80.1578
80.0699
79.9807
79.746
78.656
78.656
79.746
79.9807
80.0699
80.1578
80.2445
80.3301
80.4145
80.5498
80.7314
80.9075
81.0781
81.2432
81.403
81.5574
81.7063
81.8497
81.9875
82.1197
82.2462
82.3669
82.4817
82.5906
82.6935
82.7903
82.8808
82.9651
83.0431
83.1149
83.1803
83.2395
83.2925
83.3393
83.38
83.4146
83.4433
83.4661
83.483
83.4943
83.4999
81.9379
81.9323
81.9211
81.9042
81.8816
81.8532
81.8189
81.7787
81.7326
81.6804
81.6221
81.5578
81.4874
81.4108
81.3282
81.2395
81.1447
81.044
80.9374
80.825
80.7067
80.5828
80.4533
80.3182
80.1775
80.0313
79.8796
79.7225
79.5598
79.3916
79.2177
79.038
78.9038
78.82
78.735
78.6488
78.5612
78.4723
78.2443
77.2545
77.2545
78.2443
78.4723
78.5612
78.6488
78.735
78.82
78.9038
79.038
79.2177
79.3916
79.5598
79.7225
79.8796
80.0313
80.1775
80.3182
80.4533
80.5828
80.7067
80.825
80.9374
81.044
81.1447
81.2395
81.3282
81.4108
81.4874
81.5578
81.6221
81.6804
81.7326
81.7787
81.8189
81.8532
81.8816
81.9042
81.9211
81.9323
81.9379
80.3815
80.376
80.3648
80.3481
80.3257
80.2976
80.2638
80.2241
80.1787
80.1273
80.07
80.0068
79.9377
79.8626
79.7816
79.6947
79.6019
79.5033
79.3989
79.2888
79.173
79.0516
78.9246
78.7922
78.6542
78.5107
78.3617
78.2072
78.0472
77.8814
77.7098
77.5321
77.3993
77.3163
77.2319
77.1462
77.0591
76.9707
76.7496
75.8554
75.8554
76.7496
76.9707
77.0591
77.1462
77.2319
77.3163
77.3993
77.5321
77.7098
77.8814
78.0472
78.2072
78.3617
78.5107
78.6542
78.7922
78.9246
79.0516
79.173
79.2888
79.3989
79.5033
79.6019
79.6947
79.7816
79.8626
79.9377
80.0068
80.07
80.1273
80.1787
80.2241
80.2638
80.2976
80.3257
80.3481
80.3648
80.376
80.3815
78.8307
78.8252
78.8142
78.7976
78.7755
78.7478
78.7144
78.6754
78.6306
78.5801
78.5239
78.4618
78.394
78.3204
78.241
78.1558
78.0649
77.9683
77.8661
77.7583
77.6449
77.5259
77.4015
77.2717
77.1363
76.9956
76.8493
76.6976
76.5402
76.377
76.2079
76.0326
75.9013
75.8191
75.7356
75.6506
75.5642
75.4762
75.2626
74.4593
74.4593
75.2626
75.4762
75.5642
75.6506
75.7356
75.8191
75.9013
76.0326
76.2079
76.377
76.5402
76.6976
76.8493
76.9956
77.1363
77.2717
77.4015
77.5259
77.6449
77.7583
77.8661
77.9683
78.0649
78.1558
78.241
78.3204
78.394
78.4618
78.5239
78.5801
78.6306
78.6754
78.7144
78.7478
78.7755
78.7976
78.8142
78.8252
78.8307
77.2854
77.2799
77.2691
77.2527
77.2309
77.2036
77.1708
77.1324
77.0884
77.0387
76.9835
76.9226
76.8561
76.7839
76.7061
76.6226
76.5336
76.439
76.3389
76.2333
76.1222
76.0058
75.8839
75.7566
75.624
75.4859
75.3425
75.1935
75.0389
74.8786
74.7123
74.5396
74.4101
74.329
74.2465
74.1624
74.0768
73.9897
73.7839
73.0666
73.0666
73.7839
73.9897
74.0768
74.1624
74.2465
74.329
74.4101
74.5396
74.7123
74.8786
75.0389
75.1935
75.3425
75.4859
75.624
75.7566
75.8839
76.0058
76.1222
76.2333
76.3389
76.439
76.5336
76.6226
76.7061
76.7839
76.8561
76.9226
76.9835
77.0387
77.0884
77.1324
77.1708
77.2036
77.2309
77.2527
77.2691
77.2799
77.2854
75.7455
75.7401
75.7294
75.7133
75.6919
75.665
75.6327
75.5949
75.5517
75.503
75.4487
75.389
75.3238
75.253
75.1768
75.0951
75.0079
74.9152
74.8172
74.7138
74.6051
74.491
74.3716
74.2469
74.117
73.9817
73.8411
73.6951
73.5435
73.3862
73.2229
73.0533
72.926
72.8462
72.7649
72.6821
72.5976
72.5115
72.3142
71.678
71.678
72.3142
72.5115
72.5976
72.6821
72.7649
72.8462
72.926
73.0533
73.2229
73.3862
73.5435
73.6951
73.8411
73.9817
74.117
74.2469
74.3716
74.491
74.6051
74.7138
74.8172
74.9152
75.0079
75.0951
75.1768
75.253
75.3238
75.389
75.4487
75.503
75.5517
75.5949
75.6327
75.665
75.6919
75.7133
75.7294
75.7401
75.7455
74.2109
74.2057
74.1951
74.1793
74.1582
74.1318
74.1
74.0629
74.0205
73.9727
73.9195
73.8609
73.797
73.7277
73.653
73.5729
73.4876
73.3969
73.3009
73.1997
73.0932
72.9815
72.8646
72.7426
72.6153
72.4829
72.3452
72.2022
72.0538
71.8997
71.7399
71.5738
71.4491
71.3709
71.2912
71.2099
71.127
71.0423
70.8545
70.2941
70.2941
70.8545
71.0423
71.127
71.2099
71.2912
71.3709
71.4491
71.5738
71.7399
71.8997
72.0538
72.2022
72.3452
72.4829
72.6153
72.7426
72.8646
72.9815
73.0932
73.1997
73.3009
73.3969
73.4876
73.5729
73.653
73.7277
73.797
73.8609
73.9195
73.9727
74.0205
74.0629
74.1
74.1318
74.1582
74.1793
74.1951
74.2057
74.2109
72.6816
72.6765
72.6661
72.6506
72.6298
72.6039
72.5727
72.5363
72.4947
72.4478
72.3957
72.3383
72.2756
72.2077
72.1345
72.0562
71.9726
71.8838
71.7898
71.6907
71.5865
71.4772
71.3628
71.2434
71.1188
70.9892
70.8546
70.7147
70.5696
70.4191
70.2631
70.101
69.9793
69.9031
69.8254
69.7461
69.6652
69.5826
69.4053
68.9153
68.9153
69.4053
69.5826
69.6652
69.7461
69.8254
69.9031
69.9793
70.101
70.2631
70.4191
70.5696
70.7147
70.8546
70.9892
71.1188
71.2434
71.3628
71.4772
71.5865
71.6907
71.7898
71.8838
71.9726
72.0562
72.1345
72.2077
72.2756
72.3383
72.3957
72.4478
72.4947
72.5363
72.5727
72.6039
72.6298
72.6506
72.6661
72.6765
72.6816
71.1575
71.1524
71.1423
71.127
71.1067
71.0812
71.0506
71.0149
70.9741
70.9282
70.8771
70.8208
70.7595
70.693
70.6213
70.5446
70.4628
70.3759
70.2839
70.1869
70.085
69.978
69.8661
69.7492
69.6274
69.5007
69.3691
69.2325
69.0909
68.9442
68.7922
68.6346
68.5166
68.4426
68.3673
68.2906
68.2124
68.1324
67.967
67.5412
67.5412
67.967
68.1324
68.2124
68.2906
68.3673
68.4426
68.5166
68.6346
68.7922
68.9442
69.0909
69.2325
69.3691
69.5007
69.6274
69.7492
69.8661
69.978
70.085
70.1869
70.2839
70.3759
70.4628
70.5446
70.6213
70.693
70.7595
70.8208
70.8771
70.9282
70.9741
71.0149
71.0506
71.0812
71.1067
71.127
71.1423
71.1524
71.1575
69.6385
69.6335
69.6235
69.6086
69.5886
69.5637
69.5337
69.4987
69.4587
69.4137
69.3636
69.3085
69.2484
69.1833
69.1132
69.0381
68.958
68.873
68.783
68.6881
68.5884
68.4837
68.3743
68.26
68.141
68.0171
67.8886
67.7553
67.6172
67.4744
67.3268
67.1742
67.0602
66.989
66.9166
66.843
66.768
66.6916
66.5396
66.1713
66.1713
66.5396
66.6916
66.768
66.843
66.9166
66.989
67.0602
67.1742
67.3268
67.4744
67.6172
67.7553
67.8886
68.0171
68.141
68.26
68.3743
68.4837
68.5884
68.6881
68.783
68.873
68.958
69.0381
69.1132
69.1833
69.2484
69.3085
69.3636
69.4137
69.4587
69.4987
69.5337
69.5637
69.5886
69.6086
69.6235
69.6335
69.6385
68.1245
68.1196
68.1098
68.0951
68.0756
68.0511
68.0217
67.9875
67.9483
67.9042
67.8552
67.8013
67.7424
67.6787
67.6101
67.5366
67.4583
67.3751
67.2871
67.1942
67.0967
66.9943
66.8873
66.7756
66.6592
66.5383
66.4128
66.2828
66.1484
66.0096
65.8664
65.719
65.6095
65.5412
65.4721
65.402
65.3311
65.259
65.1221
64.8035
64.8035
65.1221
65.259
65.3311
65.402
65.4721
65.5412
65.6095
65.719
65.8664
66.0096
66.1484
66.2828
66.4128
66.5383
66.6592
66.7756
66.8873
66.9943
67.0967
67.1942
67.2871
67.3751
67.4583
67.5366
67.6101
67.6787
67.7424
67.8013
67.8552
67.9042
67.9483
67.9875
68.0217
68.0511
68.0756
68.0951
68.1098
68.1196
68.1245
66.6153
66.6105
66.6009
66.5866
66.5674
66.5435
66.5147
66.4812
66.4428
66.3996
66.3517
66.2989
66.2413
66.179
66.1119
66.04
65.9633
65.882
65.7959
65.7051
65.6097
65.5096
65.405
65.2958
65.1821
65.064
64.9415
64.8148
64.6839
64.549
64.4103
64.2681
64.163
64.0978
64.0321
63.9659
63.8993
63.8324
63.7115
63.433
63.433
63.7115
63.8324
63.8993
63.9659
64.0321
64.0978
64.163
64.2681
64.4103
64.549
64.6839
64.8148
64.9415
65.064
65.1821
65.2958
65.405
65.5096
65.6097
65.7051
65.7959
65.882
65.9633
66.04
66.1119
66.179
66.2413
66.2989
66.3517
66.3996
66.4428
66.4812
66.5147
66.5435
66.5674
66.5866
66.6009
66.6105
66.6153
65.1109
65.1063
65.0969
65.0828
65.0641
65.0406
65.0125
64.9796
64.9421
64.8999
64.8529
64.8013
64.745
64.684
64.6184
64.5481
64.4731
64.3936
64.3094
64.2206
64.1273
64.0295
63.9272
63.8205
63.7094
63.5941
63.4745
63.3509
63.2234
63.0922
62.9577
62.8203
62.7195
62.6571
62.5945
62.5319
62.4694
62.4073
62.3016
62.0516
62.0516
62.3016
62.4073
62.4694
62.5319
62.5945
62.6571
62.7195
62.8203
62.9577
63.0922
63.2234
63.3509
63.4745
63.5941
63.7094
63.8205
63.9272
64.0295
64.1273
64.2206
64.3094
64.3936
64.4731
64.5481
64.6184
64.684
64.745
64.8013
64.8529
64.8999
64.9421
64.9796
65.0125
65.0406
65.0641
65.0828
65.0969
65.1063
65.1109
63.6113
63.6067
63.5975
63.5838
63.5654
63.5425
63.5149
63.4828
63.4461
63.4048
63.3589
63.3084
63.2534
63.1938
63.1296
63.0608
62.9876
62.9098
62.8275
62.7407
62.6495
62.5539
62.4539
62.3496
62.241
62.1283
62.0116
61.8909
61.7666
61.6388
61.508
61.3748
61.2774
61.2173
61.1572
61.0973
61.0377
60.9788
60.8844
60.6504
60.6504
60.8844
60.9788
61.0377
61.0973
61.1572
61.2173
61.2774
61.3748
61.508
61.6388
61.7666
61.8909
62.0116
62.1283
62.241
62.3496
62.4539
62.5539
62.6495
62.7407
62.8275
62.9098
62.9876
63.0608
63.1296
63.1938
63.2534
63.3084
63.3589
63.4048
63.4461
63.4828
63.5149
63.5425
63.5654
63.5838
63.5975
63.6067
63.6113
62.1162
62.1117
62.1027
62.0893
62.0713
62.0489
62.022
61.9906
61.9547
61.9143
61.8695
61.8201
61.7663
61.708
61.6453
61.5781
61.5065
61.4305
61.35
61.2652
61.176
61.0826
60.9848
60.8829
60.7768
60.6666
60.5525
60.4346
60.3132
60.1884
60.0608
59.9309
59.836
59.7775
59.7191
59.6608
59.6027
59.5452
59.4587
59.2331
59.2331
59.4587
59.5452
59.6027
59.6608
59.7191
59.7775
59.836
59.9309
60.0608
60.1884
60.3132
60.4346
60.5525
60.6666
60.7768
60.8829
60.9848
61.0826
61.176
61.2652
61.35
61.4305
61.5065
61.5781
61.6453
61.708
61.7663
61.8201
61.8695
61.9143
61.9547
61.9906
62.022
62.0489
62.0713
62.0893
62.1027
62.1117
62.1162
60.6256
60.6212
60.6124
60.5993
60.5817
60.5598
60.5335
60.5029
60.4678
60.4283
60.3845
60.3363
60.2837
60.2268
60.1655
60.0998
60.0299
59.9556
59.877
59.7941
59.7069
59.6156
59.52
59.4203
59.3166
59.2089
59.0973
58.9819
58.8631
58.7409
58.6159
58.4885
58.3953
58.3377
58.2802
58.2227
58.1654
58.1084
58.0288
57.8097
57.8097
58.0288
58.1084
58.1654
58.2227
58.2802
58.3377
58.3953
58.4885
58.6159
58.7409
58.8631
58.9819
59.0973
59.2089
59.3166
59.4203
59.52
59.6156
59.7069
59.7941
59.877
59.9556
60.0299
60.0998
60.1655
60.2268
60.2837
60.3363
60.3845
60.4283
60.4678
60.5029
60.5335
60.5598
60.5817
60.5993
60.6124
60.6212
60.6256
59.1393
59.1351
59.1265
59.1137
59.0965
59.0751
59.0495
59.0195
58.9853
58.9467
58.9039
58.8569
58.8055
58.7499
58.69
58.6259
58.5575
58.485
58.4082
58.3272
58.242
58.1527
58.0593
57.9619
57.8604
57.755
57.6457
57.5328
57.4162
57.2963
57.1733
57.0476
56.9553
56.8982
56.8409
56.7835
56.7263
56.6693
56.5967
56.3838
56.3838
56.5967
56.6693
56.7263
56.7835
56.8409
56.8982
56.9553
57.0476
57.1733
57.2963
57.4162
57.5328
57.6457
57.755
57.8604
57.9619
58.0593
58.1527
58.242
58.3272
58.4082
58.485
58.5575
58.6259
58.69
58.7499
58.8055
58.8569
58.9039
58.9467
58.9853
59.0195
59.0495
59.0751
59.0965
59.1137
59.1265
59.1351
59.1393
57.6574
57.6532
57.6449
57.6323
57.6156
57.5947
57.5697
57.5404
57.507
57.4694
57.4276
57.3817
57.3315
57.2773
57.2188
57.1562
57.0895
57.0186
56.9436
56.8645
56.7813
56.694
56.6027
56.5074
56.4081
56.3049
56.1979
56.0872
55.9728
55.8548
55.7335
55.6089
55.5168
55.4596
55.4019
55.3438
55.2856
55.2276
55.1619
54.9561
54.9561
55.1619
55.2276
55.2856
55.3438
55.4019
55.4596
55.5168
55.6089
55.7335
55.8548
55.9728
56.0872
56.1979
56.3049
56.4081
56.5074
56.6027
56.694
56.7813
56.8645
56.9436
57.0186
57.0895
57.1562
57.2188
57.2773
57.3315
57.3817
57.4276
57.4694
57.507
57.5404
57.5697
57.5947
57.6156
57.6323
57.6449
57.6532
57.6574
56.1796
56.1756
56.1674
56.1552
56.1389
56.1185
56.094
56.0655
56.0329
55.9962
55.9555
55.9106
55.8617
55.8088
55.7517
55.6907
55.6255
55.5563
55.4831
55.4058
55.3246
55.2393
55.1501
55.0569
54.9597
54.8587
54.7539
54.6452
54.5328
54.4167
54.2969
54.1733
54.0811
54.0235
53.9648
53.9049
53.8433
53.7792
53.7118
53.5944
53.5944
53.7118
53.7792
53.8433
53.9049
53.9648
54.0235
54.0811
54.1733
54.2969
54.4167
54.5328
54.6452
54.7539
54.8587
54.9597
55.0569
55.1501
55.2393
55.3246
55.4058
55.4831
55.5563
55.6255
55.6907
55.7517
55.8088
55.8617
55.9106
55.9555
55.9962
56.0329
56.0655
56.094
56.1185
56.1389
56.1552
56.1674
56.1756
56.1796
54.706
54.7021
54.6941
54.6822
54.6663
54.6464
54.6226
54.5948
54.563
54.5272
54.4875
54.4438
54.3961
54.3445
54.2888
54.2292
54.1657
54.0982
54.0267
53.9513
53.8719
53.7887
53.7014
53.6103
53.5153
53.4165
53.3137
53.2071
53.0967
52.9823
52.864
52.7416
52.65
52.5926
52.5342
52.4746
52.4138
52.3517
52.2874
52.1743
52.1743
52.2874
52.3517
52.4138
52.4746
52.5342
52.5926
52.65
52.7416
52.864
52.9823
53.0967
53.2071
53.3137
53.4165
53.5153
53.6103
53.7014
53.7887
53.8719
53.9513
54.0267
54.0982
54.1657
54.2292
54.2888
54.3445
54.3961
54.4438
54.4875
54.5272
54.563
54.5948
54.6226
54.6464
54.6663
54.6822
54.6941
54.7021
54.706
53.2364
53.2325
53.2248
53.2132
53.1977
53.1784
53.1551
53.128
53.0971
53.0622
53.0235
52.9809
52.9344
52.8841
52.8299
52.7718
52.7098
52.644
52.5743
52.5007
52.4232
52.3419
52.2567
52.1677
52.0748
51.978
51.8774
51.7728
51.6644
51.5519
51.4354
51.3145
51.2239
51.1672
51.1094
51.0506
50.9908
50.9298
50.8668
50.757
50.757
50.8668
50.9298
50.9908
51.0506
51.1094
51.1672
51.2239
51.3145
51.4354
51.5519
51.6644
51.7728
51.8774
51.978
52.0748
52.1677
52.2567
52.3419
52.4232
52.5007
52.5743
52.644
52.7098
52.7718
52.8299
52.8841
52.9344
52.9809
53.0235
53.0622
53.0971
53.128
53.1551
53.1784
53.1977
53.2132
53.2248
53.2325
53.2364
51.7707
51.7669
51.7594
51.7481
51.733
51.7142
51.6915
51.6652
51.635
51.6011
51.5634
51.5219
51.4767
51.4276
51.3748
51.3182
51.2578
51.1937
51.1257
51.054
50.9784
50.8991
50.8159
50.7289
50.6381
50.5435
50.4449
50.3425
50.2361
50.1256
50.011
49.8919
49.8027
49.7468
49.6899
49.6321
49.5732
49.5133
49.4514
49.3449
49.3449
49.4514
49.5133
49.5732
49.6321
49.6899
49.7468
49.8027
49.8919
50.011
50.1256
50.2361
50.3425
50.4449
50.5435
50.6381
50.7289
50.8159
50.8991
50.9784
51.054
51.1257
51.1937
51.2578
51.3182
51.3748
51.4276
51.4767
51.5219
51.5634
51.6011
51.635
51.6652
51.6915
51.7142
51.733
51.7481
51.7594
51.7669
51.7707
50.3087
50.305
50.2977
50.2867
50.272
50.2537
50.2317
50.2061
50.1767
50.1437
50.107
50.0667
50.0226
49.9749
49.9235
49.8684
49.8096
49.7471
49.6809
49.611
49.5374
49.46
49.3789
49.294
49.2053
49.1128
49.0164
48.9161
48.8119
48.7035
48.5909
48.474
48.3862
48.3313
48.2754
48.2186
48.1608
48.102
48.0413
47.9381
47.9381
48.0413
48.102
48.1608
48.2186
48.2754
48.3313
48.3862
48.474
48.5909
48.7035
48.8119
48.9161
49.0164
49.1128
49.2053
49.294
49.3789
49.46
49.5374
49.611
49.6809
49.7471
49.8096
49.8684
49.9235
49.9749
50.0226
50.0667
50.107
50.1437
50.1767
50.2061
50.2317
50.2537
50.272
50.2867
50.2977
50.305
50.3087
48.8504
48.8468
48.8397
48.829
48.8147
48.7969
48.7756
48.7506
48.7221
48.69
48.6544
48.6151
48.5723
48.5259
48.4759
48.4223
48.3651
48.3043
48.2399
48.1718
48.1001
48.0247
47.9456
47.8629
47.7763
47.686
47.5918
47.4938
47.3917
47.2856
47.1753
47.0606
46.9745
46.9207
46.8659
46.8101
46.7534
46.6958
46.6362
46.5364
46.5364
46.6362
46.6958
46.7534
46.8101
46.8659
46.9207
46.9745
47.0606
47.1753
47.2856
47.3917
47.4938
47.5918
47.686
47.7763
47.8629
47.9456
48.0247
48.1001
48.1718
48.2399
48.3043
48.3651
48.4223
48.4759
48.5259
48.5723
48.6151
48.6544
48.69
48.7221
48.7506
48.7756
48.7969
48.8147
48.829
48.8397
48.8468
48.8504
47.3956
47.3921
47.3852
47.3749
47.361
47.3437
47.323
47.2987
47.2711
47.2399
47.2053
47.1672
47.1256
47.0805
47.0319
46.9798
46.9242
46.8651
46.8025
46.7363
46.6665
46.5931
46.5161
46.4355
46.3511
46.263
46.1711
46.0754
45.9756
45.8719
45.7639
45.6517
45.5674
45.5147
45.461
45.4064
45.3509
45.2944
45.2361
45.1397
45.1397