/*--------------------------------*- C++ -*----------------------------------*\
  =========                 |
  \\      /  F ield         | OpenFOAM: The Open Source CFD Toolbox
   \\    /   O peration     | Website:  https://openfoam.org
    \\  /    A nd           | Version:  10
     \\/     M anipulation  |
\*---------------------------------------------------------------------------*/
FoamFile
{
    format      ascii;
    class       volVectorField;
    location    "3.5";
    object      Ub;
}
// * * * * * * * * * * * * * * * * * * * * * * * * * * * * * * * * * * * * * //

dimensions      [0 1 -1 0 0 0 0];

internalField   nonuniform List<vector> 
12225
(
(0.00123902 -0.000251291 0)
(0.00354793 -0.000226194 0)
(0.00548682 -0.000191634 0)
(0.0070409 -0.000157674 0)
(0.00826428 -0.000129359 0)
(0.00923348 -0.000108152 0)
(0.0100222 -9.37884e-05 0)
(0.0106927 -8.54974e-05 0)
(0.0112952 -8.26355e-05 0)
(0.0118714 -8.49973e-05 0)
(0.0124594 -9.30486e-05 0)
(0.0130987 -0.000108294 0)
(0.0138394 -0.000134099 0)
(0.0147568 -0.000177787 0)
(0.0159867 -0.000256767 0)
(0.0178303 -0.000420603 0)
(0.0211722 -0.000857917 0)
(0.0299342 -0.0026397 0)
(0.0015298 -0.000834664 0)
(0.0043715 -0.000749213 0)
(0.00673922 -0.000632395 0)
(0.00861914 -0.000518227 0)
(0.0100844 -0.000423483 0)
(0.0112344 -0.000352817 0)
(0.012163 -0.000305129 0)
(0.0129479 -0.000277695 0)
(0.0136512 -0.000268262 0)
(0.0143239 -0.000276049 0)
(0.0150114 -0.000302492 0)
(0.0157607 -0.000352393 0)
(0.0166298 -0.000436495 0)
(0.0177037 -0.000577909 0)
(0.019129 -0.000830202 0)
(0.0211957 -0.00133751 0)
(0.024524 -0.0025822 0)
(0.0298504 -0.00668041 0)
(0.00174787 -0.00157295 0)
(0.00498192 -0.001406 0)
(0.0076511 -0.00118028 0)
(0.00974673 -0.000961522 0)
(0.0113615 -0.00078127 0)
(0.0126154 -0.000647643 0)
(0.0136189 -0.00055793 0)
(0.0144616 -0.000506532 0)
(0.015214 -0.000488872 0)
(0.0159327 -0.000503198 0)
(0.0166672 -0.00055185 0)
(0.0174673 -0.000643204 0)
(0.0183921 -0.000795954 0)
(0.0195233 -0.00104942 0)
(0.0209877 -0.00149054 0)
(0.022987 -0.00233216 0)
(0.0257522 -0.00416153 0)
(0.0286937 -0.00870352 0)
(0.00195242 -0.00246531 0)
(0.00554725 -0.00219219 0)
(0.00847939 -0.00182804 0)
(0.0107503 -0.0014789 0)
(0.0124767 -0.00119382 0)
(0.0138012 -0.000984058 0)
(0.0148505 -0.00084407 0)
(0.0157255 -0.000764182 0)
(0.0165031 -0.000736597 0)
(0.017244 -0.000758008 0)
(0.0179996 -0.00083129 0)
(0.0188195 -0.000968049 0)
(0.0197585 -0.0011941 0)
(0.0208857 -0.00156193 0)
(0.0222898 -0.00218016 0)
(0.0240622 -0.00328439 0)
(0.0261442 -0.00539705 0)
(0.027645 -0.00952959 0)
(0.00216417 -0.00352863 0)
(0.00612405 -0.00311752 0)
(0.00930583 -0.0025787 0)
(0.0117283 -0.00206913 0)
(0.0135397 -0.00165777 0)
(0.0149092 -0.00135788 0)
(0.0159817 -0.00115914 0)
(0.0168683 -0.00104616 0)
(0.0176519 -0.00100674 0)
(0.0183957 -0.00103517 0)
(0.019151 -0.00113414 0)
(0.0199643 -0.00131749 0)
(0.0208825 -0.00161602 0)
(0.021955 -0.00208969 0)
(0.0232267 -0.00285275 0)
(0.024693 -0.00412042 0)
(0.0261455 -0.00626675 0)
(0.0268025 -0.00972507 0)
(0.00239771 -0.004791 0)
(0.00674994 -0.00419874 0)
(0.0101802 -0.00343865 0)
(0.0127356 -0.00273215 0)
(0.0146071 -0.00216989 0)
(0.0159968 -0.00176463 0)
(0.0170697 -0.00149831 0)
(0.0179477 -0.00134754 0)
(0.0187184 -0.00129413 0)
(0.0194461 -0.00132881 0)
(0.0201804 -0.00145298 0)
(0.0209622 -0.00168111 0)
(0.0218275 -0.00204579 0)
(0.022804 -0.00260741 0)
(0.0238958 -0.00347039 0)
(0.0250346 -0.00480192 0)
(0.0259708 -0.00681852 0)
(0.0261379 -0.00960295 0)
(0.00266795 -0.00629292 0)
(0.00746112 -0.00545889 0)
(0.0111459 -0.00441574 0)
(0.0138151 -0.00346691 0)
(0.0157186 -0.00272513 0)
(0.0171005 -0.0021979 0)
(0.0181486 -0.00185496 0)
(0.0189958 -0.00166176 0)
(0.0197333 -0.00159204 0)
(0.0204251 -0.00163148 0)
(0.0211172 -0.00177871 0)
(0.0218435 -0.00204676 0)
(0.0226275 -0.00246629 0)
(0.0234764 -0.00309125 0)
(0.0243637 -0.00400505 0)
(0.0251907 -0.0053173 0)
(0.0257294 -0.00711836 0)
(0.0256125 -0.00932311 0)
(0.00299368 -0.00809163 0)
(0.00830087 -0.00692786 0)
(0.0122502 -0.00551769 0)
(0.0150082 -0.00426935 0)
(0.0169086 -0.00331478 0)
(0.0182484 -0.00264793 0)
(0.0192421 -0.00221959 0)
(0.020033 -0.00197976 0)
(0.020715 -0.00189149 0)
(0.0213497 -0.00193361 0)
(0.0219782 -0.00210023 0)
(0.0226262 -0.0024006 0)
(0.0233051 -0.00285989 0)
(0.0240053 -0.0035203 0)
(0.0246822 -0.0044389 0)
(0.0252325 -0.00567209 0)
(0.0254764 -0.00722718 0)
(0.0251948 -0.00896334 0)
(0.00340158 -0.010269 0)
(0.0093276 -0.00864339 0)
(0.0135512 -0.0067498 0)
(0.0163614 -0.00512957 0)
(0.018211 -0.00392422 0)
(0.0194653 -0.0030999 0)
(0.0203685 -0.00257858 0)
(0.0210738 -0.00228911 0)
(0.0216751 -0.00218067 0)
(0.0222303 -0.00222314 0)
(0.0227737 -0.0024043 0)
(0.0233228 -0.00272742 0)
(0.023878 -0.00320934 0)
(0.0244184 -0.00387757 0)
(0.0248925 -0.00476291 0)
(0.0252084 -0.00588061 0)
(0.0252379 -0.00719296 0)
(0.0248606 -0.00855988 0)
(0.00393235 -0.012945 0)
(0.0106263 -0.0106518 0)
(0.0151267 -0.00811053 0)
(0.0179302 -0.00602727 0)
(0.0196623 -0.00452952 0)
(0.0207744 -0.00353173 0)
(0.021543 -0.00291279 0)
(0.0221281 -0.00257311 0)
(0.0226211 -0.00244434 0)
(0.0230731 -0.00248527 0)
(0.0235109 -0.0026757 0)
(0.0239431 -0.0030112 0)
(0.0243618 -0.00349859 0)
(0.0247398 -0.00415027 0)
(0.0250271 -0.0049747 0)
(0.0251501 -0.00595992 0)
(0.0250249 -0.00705029 0)
(0.0245916 -0.00812854 0)
(0.00465213 -0.0163025 0)
(0.0123275 -0.013007 0)
(0.0170846 -0.00958277 0)
(0.0197835 -0.00692427 0)
(0.0213019 -0.00509258 0)
(0.0221976 -0.00391118 0)
(0.0227773 -0.00319587 0)
(0.0232026 -0.00280983 0)
(0.0235569 -0.00266336 0)
(0.0238817 -0.00270236 0)
(0.0241943 -0.00289744 0)
(0.0244952 -0.00323559 0)
(0.02477 -0.00371331 0)
(0.0249895 -0.00432947 0)
(0.0251099 -0.00507605 0)
(0.0250769 -0.00592621 0)
(0.0248396 -0.00682259 0)
(0.024373 -0.00767517 0)
(0.00562329 -0.0202212 0)
(0.0145319 -0.0155218 0)
(0.0194722 -0.0109969 0)
(0.0219254 -0.00769602 0)
(0.0231161 -0.0055277 0)
(0.0237181 -0.00417866 0)
(0.0240589 -0.00338407 0)
(0.0242911 -0.00296447 0)
(0.0244841 -0.00280774 0)
(0.0246663 -0.00284701 0)
(0.0248445 -0.00304413 0)
(0.0250114 -0.00337822 0)
(0.0251482 -0.00383711 0)
(0.0252261 -0.00440963 0)
(0.0252082 -0.00507772 0)
(0.0250555 -0.00580875 0)
(0.0247376 -0.00655087 0)
(0.0242466 -0.00723696 0)
(0.00691683 -0.0253237 0)
(0.0173165 -0.0183719 0)
(0.0222467 -0.0123476 0)
(0.0242321 -0.00829729 0)
(0.0249459 -0.00579211 0)
(0.0251668 -0.00430164 0)
(0.0252186 -0.00345409 0)
(0.0252289 -0.0030207 0)
(0.0252435 -0.00286622 0)
(0.0252734 -0.0029118 0)
(0.0253133 -0.00311154 0)
(0.0253479 -0.00343801 0)
(0.0253552 -0.00387232 0)
(0.0253078 -0.00439664 0)
(0.0251758 -0.00498787 0)
(0.0249323 -0.00561312 0)
(0.0245603 -0.00622881 0)
(0.0240607 -0.00678578 0)
(0.00920518 -0.0333488 0)
(0.0219288 -0.0219571 0)
(0.0263877 -0.0135979 0)
(0.027398 -0.00861501 0)
(0.0273031 -0.00578537 0)
(0.0269448 -0.00420469 0)
(0.0265876 -0.00335169 0)
(0.0262993 -0.00293996 0)
(0.0260835 -0.00281152 0)
(0.0259241 -0.00287739 0)
(0.0257987 -0.00308577 0)
(0.0256824 -0.00340432 0)
(0.0255496 -0.0038095 0)
(0.0253742 -0.00427952 0)
(0.0251324 -0.00478978 0)
(0.0248062 -0.00531064 0)
(0.0243873 -0.0058083 0)
(0.0238802 -0.00624909 0)
(0.013825 -0.0473996 0)
(0.030389 -0.0258137 0)
(0.0328428 -0.0139517 0)
(0.0317791 -0.00808701 0)
(0.0303053 -0.00515065 0)
(0.0290799 -0.00365748 0)
(0.0281603 -0.00292007 0)
(0.0274849 -0.00260851 0)
(0.026984 -0.00255568 0)
(0.0265997 -0.0026717 0)
(0.0262861 -0.00290491 0)
(0.0260057 -0.00322251 0)
(0.0257272 -0.00360013 0)
(0.0254248 -0.00401591 0)
(0.0250784 -0.00444753 0)
(0.0246751 -0.00487135 0)
(0.0242111 -0.00526367 0)
(0.0236914 -0.00560347 0)
(0.0250868 -0.0765817 0)
(0.0483027 -0.0261352 0)
(0.0431836 -0.0109344 0)
(0.0376695 -0.00546691 0)
(0.0339351 -0.00323738 0)
(0.0314975 -0.0022881 0)
(0.0298662 -0.00192508 0)
(0.028732 -0.00186529 0)
(0.0279082 -0.00197881 0)
(0.0272775 -0.0021986 0)
(0.0267621 -0.00248692 0)
(0.0263079 -0.00281951 0)
(0.0258765 -0.00317781 0)
(0.0254409 -0.00354535 0)
(0.0249833 -0.00390627 0)
(0.0244945 -0.0042453 0)
(0.023973 -0.00454865 0)
(0.0234236 -0.00480549 0)
(0.0612955 0.00119964 0)
(0.0956057 0.00285887 0)
(0.0589441 0.0021282 0)
(0.044859 0.00143805 0)
(0.0380653 0.000877607 0)
(0.0342286 0.000390416 0)
(0.0318144 -5.84404e-05 0)
(0.0301688 -0.000486572 0)
(0.0289647 -0.00089457 0)
(0.0280144 -0.00128316 0)
(0.0272126 -0.0016665 0)
(0.0265015 -0.0020409 0)
(0.0258435 -0.00240141 0)
(0.0252147 -0.00274229 0)
(0.0246006 -0.00305729 0)
(0.0239938 -0.00334036 0)
(0.0233924 -0.00358639 0)
(0.0227981 -0.00379194 0)
(0.0205898 0.0745665 0)
(0.0411886 0.0302787 0)
(0.0390014 0.015202 0)
(0.0349812 0.00874265 0)
(0.0318608 0.00542221 0)
(0.0296462 0.00345442 0)
(0.0280568 0.00214884 0)
(0.0268709 0.00120109 0)
(0.0259475 0.000471215 0)
(0.0252028 -0.000116267 0)
(0.0245766 -0.000613577 0)
(0.024015 -0.00103293 0)
(0.0234855 -0.00140515 0)
(0.0229757 -0.00173571 0)
(0.0224785 -0.00202729 0)
(0.0219907 -0.00228119 0)
(0.0215119 -0.00249831 0)
(0.0210433 -0.00267976 0)
(0.00794794 0.0385174 0)
(0.0190341 0.02551 0)
(0.0231086 0.0165485 0)
(0.0241573 0.0109948 0)
(0.0241074 0.00749928 0)
(0.0237084 0.00519788 0)
(0.0232282 0.00360354 0)
(0.0227536 0.00244383 0)
(0.0223063 0.00156305 0)
(0.0218862 0.000869137 0)
(0.0214889 0.000310477 0)
(0.0211158 -0.00013787 0)
(0.0207637 -0.000513056 0)
(0.0204209 -0.000826252 0)
(0.020082 -0.00109443 0)
(0.0197465 -0.00132322 0)
(0.0194153 -0.00151691 0)
(0.0190895 -0.00167906 0)
(0.00436426 0.0223367 0)
(0.0113944 0.0178031 0)
(0.0155029 0.0133964 0)
(0.017682 0.00991038 0)
(0.0187742 0.00731512 0)
(0.0192828 0.00540316 0)
(0.0194782 0.00398004 0)
(0.0195011 0.00290062 0)
(0.0194245 0.00206409 0)
(0.0192873 0.00140202 0)
(0.0191109 0.000868182 0)
(0.0189077 0.000431115 0)
(0.0186878 7.27602e-05 0)
(0.0184616 -0.000219384 0)
(0.0182308 -0.000458667 0)
(0.0179939 -0.000660738 0)
(0.0177538 -0.000830974 0)
(0.0175132 -0.000973694 0)
(0.00294262 0.0149682 0)
(0.00801367 0.0127912 0)
(0.0115442 0.0103144 0)
(0.0138321 0.0080876 0)
(0.0152664 0.00625981 0)
(0.0161488 0.00481208 0)
(0.0166789 0.00367666 0)
(0.0169819 0.00278353 0)
(0.0171348 0.00207454 0)
(0.0171856 0.00150518 0)
(0.017165 0.00104252 0)
(0.0170933 0.000662551 0)
(0.0169845 0.000347796 0)
(0.0168491 8.60809e-05 0)
(0.0166988 -0.00012622 0)
(0.0165391 -0.000299975 0)
(0.0163702 -0.000446474 0)
(0.0161957 -0.000569701 0)
(0.00220023 0.0104649 0)
(0.00613439 0.00927589 0)
(0.009134 0.0077907 0)
(0.0112879 0.0063421 0)
(0.0127873 0.00507166 0)
(0.0138136 0.00401174 0)
(0.0145068 0.00314683 0)
(0.014966 0.00244609 0)
(0.0152594 0.00187784 0)
(0.0154336 0.00141465 0)
(0.0155208 0.00103451 0)
(0.0155438 0.000720305 0)
(0.0155188 0.000458955 0)
(0.0154581 0.000240477 0)
(0.0153709 5.74367e-05 0)
(0.0152673 -9.09904e-05 0)
(0.0151529 -0.000213149 0)
(0.0150289 -0.000316298 0)
(0.00175536 0.00745354 0)
(0.00496384 0.00675105 0)
(0.00754428 0.00581774 0)
(0.00951392 0.00485641 0)
(0.0109724 0.00397368 0)
(0.012033 0.00320922 0)
(0.0127944 0.00256666 0)
(0.0133335 0.002034 0)
(0.0137076 0.00159444 0)
(0.0139584 0.00123147 0)
(0.0141166 0.000930716 0)
(0.0142046 0.0006804 0)
(0.0142393 0.000471117 0)
(0.0142332 0.000295458 0)
(0.0141963 0.000147589 0)
(0.0141365 2.34452e-05 0)
(0.0140616 -7.73361e-05 0)
(0.013976 -0.000161048 0)
(0.00146059 0.00532322 0)
(0.00416797 0.00488884 0)
(0.00642036 0.00428571 0)
(0.00820849 0.00364041 0)
(0.00958657 0.0030283 0)
(0.0106287 0.00248365 0)
(0.0114063 0.00201566 0)
(0.0119791 0.00162084 0)
(0.0123949 0.00129049 0)
(0.0126901 0.00101474 0)
(0.0128925 0.000784347 0)
(0.0130235 0.000591341 0)
(0.0130991 0.00042914 0)
(0.0131319 0.000292415 0)
(0.0131317 0.000176883 0)
(0.013106 7.91007e-05 0)
(0.0130618 -2.75917e-06 0)
(0.0130048 -6.93067e-05 0)
(0.00124884 0.00376072 0)
(0.00358558 0.00348649 0)
(0.00557404 0.00309288 0)
(0.00719505 0.00266014 0)
(0.00847896 0.00223993 0)
(0.00947634 0.00185858 0)
(0.0102403 0.00152548 0)
(0.0108185 0.00124066 0)
(0.0112505 0.000999742 0)
(0.0115679 0.000796878 0)
(0.0117958 0.00062618 0)
(0.0119535 0.000482356 0)
(0.0120561 0.000360907 0)
(0.0121158 0.00025811 0)
(0.0121417 0.000170923 0)
(0.0121413 9.68649e-05 0)
(0.0121207 3.39116e-05 0)
(0.0120856 -1.83203e-05 0)
(0.00108536 0.00258832 0)
(0.00312947 0.00241559 0)
(0.00489634 0.00216119 0)
(0.00636361 0.00187589 0)
(0.00754842 0.00159411 0)
(0.00848666 0.00133464 0)
(0.00921912 0.0011052 0)
(0.00978423 0.000906985 0)
(0.0102152 0.000737888 0)
(0.0105394 0.000594484 0)
(0.010779 0.000473099 0)
(0.0109515 0.00037031 0)
(0.0110708 0.000283134 0)
(0.0111481 0.000209062 0)
(0.0111922 0.000146014 0)
(0.0112101 9.22782e-05 0)
(0.0112076 4.6445e-05 0)
(0.0111891 7.37509e-06 0)
(0.000949656 0.00169774 0)
(0.00274652 0.00159211 0)
(0.00431703 0.00143337 0)
(0.00563862 0.00125273 0)
(0.00672088 0.00107209 0)
(0.00759014 0.000903945 0)
(0.00827845 0.000753882 0)
(0.00881725 0.00062321 0)
(0.00923452 0.000510976 0)
(0.0095539 0.000415239 0)
(0.0097948 0.000333794 0)
(0.00997292 0.000264523 0)
(0.0101009 0.000205542 0)
(0.0101888 0.000155247 0)
(0.0102448 0.000112293 0)
(0.0102755 7.5565e-05 0)
(0.010286 4.41374e-05 0)
(0.0102808 1.7232e-05 0)
(0.000827253 0.00101979 0)
(0.00239781 0.000959765 0)
(0.00378163 0.000868124 0)
(0.00495748 0.000762712 0)
(0.00593051 0.000656328 0)
(0.00672051 0.000556509 0)
(0.00735296 0.000466796 0)
(0.00785367 0.000388189 0)
(0.00824615 0.000320304 0)
(0.00855061 0.000262117 0)
(0.00878387 0.000212402 0)
(0.00895972 0.000169951 0)
(0.00908935 0.000133676 0)
(0.00918182 0.000102639 0)
(0.00924444 7.60466e-05 0)
(0.00928315 5.32389e-05 0)
(0.00930278 3.36674e-05 0)
(0.00930722 1.68795e-05 0)
(0.000703151 0.00051016 0)
(0.00204142 0.000481391 0)
(0.0032276 0.000436939 0)
(0.00424284 0.000385404 0)
(0.00508967 0.000333046 0)
(0.00578297 0.000283626 0)
(0.00634281 0.00023897 0)
(0.00679004 0.00019965 0)
(0.00714395 0.000165541 0)
(0.00742136 0.000136185 0)
(0.00763644 0.000111009 0)
(0.00780089 8.94351e-05 0)
(0.00792431 7.0939e-05 0)
(0.00801451 5.50631e-05 0)
(0.00807786 4.14194e-05 0)
(0.00811954 2.96831e-05 0)
(0.0081438 1.95863e-05 0)
(0.0081541 1.09226e-05 0)
(0.00054261 0.000146621 0)
(0.00157705 0.00013858 0)
(0.00249756 0.00012606 0)
(0.00328914 0.000111474 0)
(0.00395279 9.65932e-05 0)
(0.00449891 8.24934e-05 0)
(0.0049421 6.97073e-05 0)
(0.00529781 5.8412e-05 0)
(0.00558051 4.85835e-05 0)
(0.00580297 4.01e-05 0)
(0.00597604 3.28042e-05 0)
(0.00610874 2.65362e-05 0)
(0.00620854 2.1149e-05 0)
(0.00628156 1.65139e-05 0)
(0.0063328 1.25213e-05 0)
(0.00636639 9.07909e-06 0)
(0.00638571 6.11235e-06 0)
(0.00639357 3.57015e-06 0)
(5.9914e-06 -5.02038e-05 -6.48798e-31)
(2.16834e-05 -5.02059e-05 6.4864e-31)
(4.24589e-05 -5.03321e-05 0)
(6.53718e-05 -5.04407e-05 0)
(8.94636e-05 -5.04699e-05 0)
(0.000114256 -5.04019e-05 -6.5008e-31)
(0.000139456 -5.02367e-05 0)
(0.000164859 -4.99798e-05 0)
(0.000190309 -4.96382e-05 0)
(0.000215676 -4.92184e-05 0)
(0.00024085 -4.87265e-05 6.26932e-31)
(0.000265732 -4.81682e-05 0)
(0.00029023 -4.75489e-05 0)
(0.00031426 -4.68739e-05 0)
(0.000337744 -4.61484e-05 0)
(0.000360607 -4.53778e-05 5.82238e-31)
(0.000382782 -4.45676e-05 0)
(0.000404206 -4.37231e-05 0)
(0.000424821 -4.285e-05 0)
(0.000444574 -4.19536e-05 0)
(0.00046342 -4.10394e-05 0)
(0.000481316 -4.01126e-05 0)
(0.000498226 -3.91786e-05 0)
(0.000514121 -3.82421e-05 4.88199e-31)
(0.000528975 -3.73081e-05 -4.75951e-31)
(0.000542768 -3.63809e-05 4.63805e-31)
(0.000555485 -3.54648e-05 4.51814e-31)
(0.000567117 -3.45637e-05 0)
(0.000577659 -3.36813e-05 0)
(0.000587109 -3.28209e-05 -4.17269e-31)
(0.000595473 -3.19854e-05 -4.06372e-31)
(0.000602756 -3.11775e-05 0)
(0.000608972 -3.03997e-05 0)
(0.000614134 -2.96538e-05 -3.76016e-31)
(0.000618261 -2.89417e-05 0)
(0.000621374 -2.82648e-05 0)
(0.000623495 -2.76244e-05 3.49677e-31)
(0.000624653 -2.70213e-05 0)
(0.000624874 -2.64563e-05 3.34563e-31)
(0.000624189 -2.59297e-05 6.55531e-31)
(0.000622629 -2.54419e-05 0)
(0.000620228 -2.49929e-05 0)
(0.000617021 -2.45825e-05 0)
(0.000613042 -2.42105e-05 0)
(0.000608328 -2.38764e-05 0)
(0.000602915 -2.35796e-05 5.95284e-31)
(0.000596842 -2.33195e-05 5.88704e-31)
(0.000590146 -2.30952e-05 5.83064e-31)
(0.000582864 -2.29059e-05 0)
(0.000575034 -2.27505e-05 -5.74511e-31)
(0.000566693 -2.26281e-05 0)
(0.00055788 -2.25375e-05 5.69409e-31)
(0.00054863 -2.24776e-05 5.68079e-31)
(0.000538981 -2.24473e-05 0)
(0.000528967 -2.24453e-05 0)
(0.000518623 -2.24704e-05 0)
(0.000507984 -2.25214e-05 5.70172e-31)
(0.000497083 -2.25972e-05 0)
(0.000485952 -2.26965e-05 0)
(0.000474622 -2.28182e-05 0)
(0.000463122 -2.29611e-05 0)
(0.000451482 -2.31242e-05 0)
(0.000439729 -2.33064e-05 0)
(0.00042789 -2.35068e-05 0)
(0.000415989 -2.37243e-05 0)
(0.00040405 -2.39583e-05 -6.09768e-31)
(0.000392096 -2.42079e-05 0)
(0.000380147 -2.44724e-05 0)
(0.000368224 -2.47512e-05 6.31111e-31)
(0.000356344 -2.50439e-05 6.38956e-31)
(0.000344525 -2.53501e-05 0)
(0.000332783 -2.56694e-05 -6.55681e-31)
(0.000321133 -2.60016e-05 6.64545e-31)
(0.000309587 -2.63469e-05 0)
(0.000298159 -2.67051e-05 -6.83271e-31)
(0.000286859 -2.70766e-05 0)
(0.000275698 -2.74617e-05 0)
(0.000264685 -2.78608e-05 7.13936e-31)
(0.000253827 -2.82748e-05 0)
(0.000243133 -2.87043e-05 -7.36249e-31)
(0.000232608 -2.91505e-05 0)
(0.000222259 -2.96146e-05 7.60271e-31)
(0.000212089 -3.00979e-05 7.73005e-31)
(0.000202104 -3.06022e-05 7.86276e-31)
(0.000192307 -3.11293e-05 1.60026e-30)
(0.0001827 -3.16812e-05 -1.62925e-30)
(0.000173288 -3.22604e-05 0)
(0.000164071 -3.28693e-05 0)
(0.000155052 -3.35106e-05 0)
(0.000146234 -3.41873e-05 -1.76054e-30)
(0.000137617 -3.49023e-05 -1.79791e-30)
(0.000129206 -3.56585e-05 1.8374e-30)
(0.000121001 -3.64586e-05 0)
(0.000113006 -3.7305e-05 -1.92329e-30)
(0.000105226 -3.81992e-05 -1.96988e-30)
(9.76651e-05 -3.91416e-05 -2.01896e-30)
(9.03301e-05 -4.01311e-05 0)
(8.32291e-05 -4.11636e-05 0)
(7.63721e-05 -4.2232e-05 0)
(6.97712e-05 -4.33246e-05 -2.23653e-30)
(6.3441e-05 -4.44234e-05 0)
(5.73981e-05 -4.55032e-05 0)
(5.16615e-05 -4.65294e-05 2.40307e-30)
(4.62521e-05 -4.74566e-05 0)
(4.11916e-05 -4.82275e-05 0)
(3.65021e-05 -4.87714e-05 2.5197e-30)
(3.22044e-05 -4.90054e-05 0)
(2.83168e-05 -4.88353e-05 0)
(2.48538e-05 -4.81597e-05 -2.48863e-30)
(2.18249e-05 -4.68755e-05 -2.42238e-30)
(1.92346e-05 -4.48852e-05 0)
(1.70823e-05 -4.21062e-05 2.17603e-30)
(1.53652e-05 -3.84793e-05 0)
(1.40812e-05 -3.39739e-05 -1.75574e-30)
(1.32343e-05 -2.85861e-05 0)
(1.28416e-05 -2.23162e-05 -1.15312e-30)
(1.29403e-05 -1.50885e-05 -7.79445e-31)
(1.36943e-05 -6.46755e-06 0)
(1.57829e-05 6.38051e-09 0)
(1.95003e-05 3.46776e-08 0)
(2.45162e-05 5.96414e-08 0)
(3.09089e-05 8.03826e-08 0)
(3.90796e-05 7.29939e-08 0)
(4.96722e-05 -4.08557e-06 0)
(6.10565e-05 -4.64209e-05 -2.39702e-30)
(6.44134e-05 -0.0001406 7.26579e-30)
(4.71378e-05 -0.000306595 0)
(1.75498e-05 -0.000471959 0)
(1.59797e-06 -0.000278653 0)
(1.73029e-09 -3.96306e-07 0)
(3.70421e-13 7.88042e-15 -8.49787e-40)
(3.49389e-13 6.61076e-15 0)
(3.32732e-13 5.07125e-15 5.55775e-40)
(3.19763e-13 3.96373e-15 -4.40039e-40)
(3.09476e-13 3.15461e-15 0)
(3.01179e-13 2.54985e-15 0)
(2.94393e-13 2.09182e-15 0)
(2.88759e-13 1.73864e-15 2.0704e-40)
(2.84035e-13 1.46073e-15 1.7786e-40)
(2.80026e-13 1.23793e-15 0)
(2.76614e-13 1.05648e-15 1.35361e-40)
(2.73682e-13 9.06813e-16 1.19608e-40)
(2.71151e-13 7.8216e-16 -1.0648e-40)
(2.68967e-13 6.77521e-16 0)
(2.67075e-13 5.89142e-16 0)
(2.65421e-13 5.14146e-16 -7.82268e-41)
(2.63983e-13 4.50252e-16 0)
(2.62726e-13 3.95646e-16 0)
(2.61624e-13 3.48839e-16 0)
(2.60663e-13 3.08642e-16 0)
(2.59816e-13 2.74054e-16 5.28724e-41)
(2.59071e-13 2.4424e-16 4.97198e-41)
(2.58415e-13 2.18521e-16 0)
(2.57839e-13 1.96308e-16 4.46475e-41)
(2.57327e-13 1.77121e-16 0)
(2.56878e-13 1.60553e-16 0)
(2.56475e-13 1.4626e-16 3.93437e-41)
(2.5612e-13 1.33961e-16 0)
(2.55799e-13 1.2342e-16 3.69183e-41)
(2.55514e-13 1.14449e-16 0)
(2.55259e-13 1.06898e-16 0)
(2.55023e-13 1.0066e-16 3.44917e-41)
(2.54807e-13 9.56673e-17 0)
(2.54609e-13 9.18878e-17 3.35455e-41)
(2.54418e-13 8.93416e-17 0)
(2.54234e-13 8.80923e-17 0)
(2.5405e-13 8.82812e-17 0)
(2.53861e-13 9.01268e-17 -3.32927e-41)
(2.53656e-13 9.39715e-17 0)
(2.53433e-13 1.00311e-16 3.43055e-41)
(2.53171e-13 1.099e-16 0)
(2.52858e-13 1.23862e-16 0)
(2.52472e-13 1.43944e-16 0)
(2.51982e-13 1.72978e-16 0)
(2.5133e-13 2.15801e-16 0)
(2.50439e-13 2.81442e-16 0)
(2.49164e-13 3.88768e-16 0)
(2.4721e-13 5.84619e-16 -1.67588e-40)
(2.43847e-13 1.01921e-15 0)
(2.36419e-13 2.38386e-15 0)
(4.25916e-05 -0.000201705 2.60546e-30)
(0.000128499 -0.000202045 -2.60681e-30)
(0.000215633 -0.000202454 0)
(0.000303819 -0.000202711 5.2256e-30)
(0.000392916 -0.0002027 0)
(0.000482781 -0.000202373 -2.6099e-30)
(0.000573257 -0.000201713 -5.18708e-30)
(0.000664178 -0.000200724 -5.15722e-30)
(0.000755373 -0.000199416 0)
(0.00084667 -0.000197805 -5.07316e-30)
(0.000937899 -0.000195907 2.52097e-30)
(0.0010289 -0.000193741 0)
(0.00111951 -0.000191326 0)
(0.00120958 -0.00018868 0)
(0.00129896 -0.000185825 0)
(0.00138754 -0.000182781 2.34601e-30)
(0.00147518 -0.000179568 0)
(0.00156176 -0.000176208 4.48111e-30)
(0.00164718 -0.000172721 0)
(0.00173134 -0.000169128 0)
(0.00181416 -0.00016545 -4.19112e-30)
(0.00189555 -0.000161707 0)
(0.00197544 -0.000157917 3.98878e-30)
(0.00205378 -0.0001541 1.96746e-30)
(0.00213051 -0.000150274 -1.91709e-30)
(0.00220559 -0.000146454 1.86684e-30)
(0.00227898 -0.000142658 1.81691e-30)
(0.00235065 -0.000138899 0)
(0.0024206 -0.000135192 0)
(0.00248879 -0.000131548 -1.67083e-30)
(0.00255523 -0.000127979 -4.81144e-30)
(0.00261992 -0.000124495 0)
(0.00268287 -0.000121106 0)
(0.00274408 -0.000117818 -1.49037e-30)
(0.00280358 -0.000114639 0)
(0.00286138 -0.000111575 0)
(0.00291752 -0.000108629 1.36956e-30)
(0.00297201 -0.000105806 0)
(0.00302491 -0.00010311 3.81943e-30)
(0.00307623 -0.00010054 2.52628e-30)
(0.00312602 -9.81004e-05 0)
(0.00317432 -9.579e-05 0)
(0.00322117 -9.36091e-05 -4.53527e-30)
(0.00326661 -9.15572e-05 -4.4249e-30)
(0.00331069 -8.96329e-05 -4.32125e-30)
(0.00335346 -8.78345e-05 6.41553e-30)
(0.00339495 -8.61599e-05 2.14703e-30)
(0.00343522 -8.46066e-05 -1.94371e-30)
(0.00347431 -8.31718e-05 3.97177e-30)
(0.00351226 -8.18522e-05 -2.03291e-30)
(0.00354911 -8.06445e-05 0)
(0.00358493 -7.9545e-05 1.97155e-30)
(0.00361973 -7.85501e-05 5.66411e-30)
(0.00365357 -7.76557e-05 0)
(0.00368649 -7.6858e-05 0)
(0.00371852 -7.61528e-05 0)
(0.0037497 -7.55359e-05 1.86403e-30)
(0.00378007 -7.50035e-05 0)
(0.00380966 -7.45513e-05 3.49443e-30)
(0.0038385 -7.41753e-05 0)
(0.00386663 -7.38716e-05 3.45391e-30)
(0.00389406 -7.36363e-05 0)
(0.00392083 -7.34657e-05 -3.42781e-30)
(0.00394696 -7.33562e-05 0)
(0.00397247 -7.33045e-05 3.4146e-30)
(0.00399737 -7.33071e-05 -5.21295e-30)
(0.0040217 -7.33611e-05 0)
(0.00404545 -7.34636e-05 -3.41593e-30)
(0.00406865 -7.36119e-05 1.80677e-30)
(0.0040913 -7.38037e-05 1.81119e-30)
(0.00411341 -7.40367e-05 0)
(0.00413498 -7.43091e-05 -5.27441e-30)
(0.00415603 -7.46191e-05 1.83074e-30)
(0.00417653 -7.49654e-05 0)
(0.00419651 -7.53468e-05 -1.84859e-30)
(0.00421593 -7.57625e-05 -3.51868e-30)
(0.00423481 -7.62119e-05 0)
(0.00425312 -7.66949e-05 1.8821e-30)
(0.00427085 -7.72115e-05 0)
(0.00428798 -7.77621e-05 1.70639e-30)
(0.00430448 -7.83475e-05 0)
(0.00432033 -7.89687e-05 -1.73529e-30)
(0.00433548 -7.96273e-05 1.95596e-30)
(0.00434992 -8.03251e-05 5.71556e-30)
(0.00436357 -8.10641e-05 1.15425e-29)
(0.00437641 -8.18471e-05 -1.16609e-29)
(0.00438836 -8.26768e-05 0)
(0.00439935 -8.35563e-05 0)
(0.00440932 -8.44892e-05 0)
(0.00441818 -8.54787e-05 3.79327e-30)
(0.00442581 -8.65284e-05 -4.26443e-30)
(0.00443212 -8.76414e-05 4.32167e-30)
(0.00443696 -8.88202e-05 0)
(0.0044402 -9.00662e-05 -1.29206e-29)
(0.00444167 -9.13792e-05 -4.51446e-30)
(0.00444118 -9.27566e-05 -4.5857e-30)
(0.00443853 -9.41923e-05 0)
(0.00443348 -9.56752e-05 0)
(0.00442578 -9.71882e-05 0)
(0.00441513 -9.87055e-05 -4.89447e-30)
(0.00440124 -0.000100191 0)
(0.0043838 -0.000101596 -9.67677e-30)
(0.00436245 -0.000102856 -4.69954e-30)
(0.00433689 -0.000103889 9.92276e-30)
(0.00430682 -0.000104596 0)
(0.00427199 -0.000104858 1.52544e-29)
(0.00423225 -0.000104538 0)
(0.0041876 -0.000103488 9.90942e-30)
(0.00413824 -0.000101555 -1.47738e-29)
(0.00408466 -9.85937e-05 -1.43272e-29)
(0.00402774 -9.44796e-05 0)
(0.00396881 -8.91266e-05 -4.04552e-30)
(0.00390983 -8.25032e-05 7.79215e-30)
(0.00385342 -7.46419e-05 -3.67694e-30)
(0.003803 -6.56332e-05 0)
(0.00376284 -5.55766e-05 -2.69557e-30)
(0.00373803 -4.4415e-05 1.76668e-30)
(0.00373424 -3.14192e-05 0)
(0.00375053 -1.95239e-05 1.31034e-30)
(0.00378996 -2.01172e-05 1.36424e-30)
(0.00387532 -3.02219e-05 2.39292e-30)
(0.00403394 -4.86777e-05 0)
(0.00428098 -7.52824e-05 0)
(0.00460039 -0.000114216 0)
(0.00493892 -0.00020796 -3.10877e-29)
(0.0052173 -0.000384689 1.96416e-29)
(0.00528226 -0.000662673 0)
(0.00485648 -0.000931642 -9.54121e-29)
(0.00345733 -0.000804083 -8.24871e-29)
(0.00123428 -0.000847454 0)
(1.61945e-05 -7.00388e-05 7.2403e-30)
(2.18156e-12 1.68918e-14 4.31723e-39)
(3.30907e-13 1.492e-14 1.57394e-39)
(3.18452e-13 1.16653e-14 -3.76884e-39)
(3.08517e-13 9.2844e-15 0)
(3.00466e-13 7.49856e-15 0)
(2.93852e-13 6.1448e-15 0)
(2.88344e-13 5.09919e-15 5.54474e-40)
(2.83707e-13 4.27487e-15 1.46001e-39)
(2.79769e-13 3.61289e-15 8.52802e-40)
(2.764e-13 3.0729e-15 3.43831e-40)
(2.7351e-13 2.62699e-15 9.44016e-40)
(2.71011e-13 2.25524e-15 -2.58779e-40)
(2.68853e-13 1.94297e-15 0)
(2.66974e-13 1.67912e-15 0)
(2.65336e-13 1.45511e-15 -5.76651e-40)
(2.6391e-13 1.26419e-15 0)
(2.62665e-13 1.10099e-15 0)
(2.61575e-13 9.61077e-16 2.97555e-40)
(2.6062e-13 8.40894e-16 0)
(2.59777e-13 7.37457e-16 3.51415e-40)
(2.59036e-13 6.48299e-16 9.1495e-41)
(2.58391e-13 5.71361e-16 0)
(2.57813e-13 5.04916e-16 2.78357e-40)
(2.57308e-13 4.47491e-16 0)
(2.56861e-13 3.97924e-16 0)
(2.5646e-13 3.55147e-16 6.09411e-41)
(2.56106e-13 3.1833e-16 1.62572e-40)
(2.55788e-13 2.86782e-16 5.38081e-41)
(2.55502e-13 2.59917e-16 0)
(2.55249e-13 2.37312e-16 0)
(2.55018e-13 2.18624e-16 1.88231e-40)
(2.54803e-13 2.03657e-16 0)
(2.54607e-13 1.92324e-16 1.79879e-40)
(2.54415e-13 1.84674e-16 0)
(2.54234e-13 1.80904e-16 0)
(2.54049e-13 1.81426e-16 0)
(2.53863e-13 1.86884e-16 -4.32971e-41)
(2.53662e-13 1.98304e-16 0)
(2.5344e-13 2.17157e-16 4.63875e-41)
(2.53183e-13 2.4567e-16 0)
(2.52878e-13 2.8717e-16 0)
(2.52498e-13 3.46814e-16 1.671e-40)
(2.52012e-13 4.32888e-16 -1.84716e-40)
(2.51382e-13 5.59462e-16 0)
(2.50524e-13 7.52446e-16 0)
(2.49306e-13 1.06478e-15 0)
(2.475e-13 1.62184e-15 4.75626e-40)
(2.44655e-13 2.78735e-15 0)
(2.40181e-13 5.93162e-15 -2.63471e-39)
(5.70599e-05 -0.000431386 2.22953e-29)
(0.00017175 -0.000432008 -4.07808e-33)
(0.000287343 -0.000432356 0)
(0.00040369 -0.000432296 9.55404e-33)
(0.000520662 -0.000431733 0)
(0.000638135 -0.000430603 0)
(0.00075598 -0.000428875 -2.2083e-29)
(0.000874062 -0.000426537 -1.09844e-29)
(0.000992239 -0.000423591 1.08792e-29)
(0.00111036 -0.000420052 -1.08056e-29)
(0.00122827 -0.000415941 0)
(0.0013458 -0.000411287 0)
(0.00146281 -0.000406121 -1.03943e-29)
(0.00157914 -0.000400477 -2.04804e-29)
(0.00169464 -0.000394393 2.01495e-29)
(0.00180915 -0.000387909 0)
(0.00192255 -0.000381065 1.94282e-29)
(0.0020347 -0.000373902 9.56905e-30)
(0.00214547 -0.000366461 0)
(0.00225475 -0.000358785 1.82293e-29)
(0.00236244 -0.000350913 -8.95932e-30)
(0.00246845 -0.000342886 -1.73771e-29)
(0.00257268 -0.000334744 8.53143e-30)
(0.00267506 -0.000326522 0)
(0.00277554 -0.000318259 1.60604e-29)
(0.00287405 -0.000309986 1.56187e-29)
(0.00297055 -0.000301737 0)
(0.003065 -0.00029354 1.47414e-29)
(0.00315737 -0.000285424 0)
(0.00324766 -0.000277414 1.38818e-29)
(0.00333584 -0.000269531 -6.8097e-30)
(0.00342191 -0.000261798 0)
(0.00350588 -0.000254232 0)
(0.00358776 -0.000246848 0)
(0.00366755 -0.000239662 0)
(0.00374528 -0.000232684 0)
(0.00382098 -0.000225924 0)
(0.00389467 -0.00021939 1.07905e-29)
(0.00396638 -0.000213089 -5.13361e-30)
(0.00403616 -0.000207024 0)
(0.00410404 -0.000201199 0)
(0.00417006 -0.000195616 0)
(0.00423427 -0.000190274 -1.86742e-29)
(0.0042967 -0.000185174 -9.16746e-30)
(0.00435742 -0.000180312 -2.05771e-31)
(0.00441645 -0.000175687 2.08556e-31)
(0.00447385 -0.000171295 -8.22195e-30)
(0.00452967 -0.000167131 -8.21268e-30)
(0.00458396 -0.000163191 1.57912e-29)
(0.00463676 -0.000159468 7.58746e-30)
(0.00468812 -0.000155958 0)
(0.00473809 -0.000152653 7.22079e-30)
(0.00478672 -0.000149548 1.43327e-29)
(0.00483406 -0.000146634 0)
(0.00488014 -0.000143906 0)
(0.00492502 -0.000141355 -6.6102e-30)
(0.00496873 -0.000138975 0)
(0.00501133 -0.000136757 0)
(0.00505285 -0.000134696 1.89821e-29)
(0.00509334 -0.000132783 1.22864e-29)
(0.00513283 -0.000131011 6.28837e-30)
(0.00517137 -0.000129374 0)
(0.00520898 -0.000127864 -6.11847e-30)
(0.00524572 -0.000126475 0)
(0.0052816 -0.0001252 1.74229e-29)
(0.00531668 -0.000124034 -5.9103e-30)
(0.00535098 -0.00012297 -1.11988e-29)
(0.00538453 -0.000122003 -1.68882e-29)
(0.00541737 -0.000121127 0)
(0.00544952 -0.000120338 1.08987e-29)
(0.00548102 -0.000119631 0)
(0.00551189 -0.000119001 5.11114e-30)
(0.00554215 -0.000118445 1.06767e-29)
(0.00557185 -0.000117958 1.0618e-29)
(0.00560099 -0.000117538 -1.05663e-29)
(0.00562961 -0.000117181 4.99482e-30)
(0.00565773 -0.000116885 0)
(0.00568537 -0.000116648 0)
(0.00571255 -0.000116467 -1.04239e-29)
(0.00573929 -0.000116341 -4.93064e-30)
(0.00576562 -0.000116268 0)
(0.00579154 -0.000116248 -5.46294e-30)
(0.00581709 -0.00011628 0)
(0.00584227 -0.000116364 -4.91239e-30)
(0.0058671 -0.000116499 2.13211e-29)
(0.00589159 -0.000116686 -2.13482e-29)
(0.00591575 -0.000116926 1.04138e-29)
(0.00593961 -0.000117218 0)
(0.00596315 -0.000117564 -1.04663e-29)
(0.0059864 -0.000117963 2.15675e-29)
(0.00600935 -0.000118417 0)
(0.00603201 -0.000118925 0)
(0.00605438 -0.000119486 0)
(0.00607646 -0.000120099 -1.12702e-29)
(0.00609825 -0.000120758 0)
(0.00611973 -0.000121459 0)
(0.00614091 -0.000122192 0)
(0.00616179 -0.000122943 0)
(0.00618236 -0.000123696 0)