/*--------------------------------*- C++ -*----------------------------------*\
  =========                 |
  \\      /  F ield         | OpenFOAM: The Open Source CFD Toolbox
   \\    /   O peration     | Website:  https://openfoam.org
    \\  /    A nd           | Version:  10
     \\/     M anipulation  |
\*---------------------------------------------------------------------------*/
FoamFile
{
    format      ascii;
    class       volScalarField;
    location    "4500";
    object      p;
}
// * * * * * * * * * * * * * * * * * * * * * * * * * * * * * * * * * * * * * //

dimensions      [1 -1 -2 0 0 0 0];

internalField   nonuniform List<scalar> 
6400
(
109.526
109.531
109.541
109.555
109.575
109.599
109.628
109.662
109.7
109.742
109.789
109.839
109.894
109.952
110.014
110.078
110.145
110.214
110.286
110.358
110.432
110.505
110.579
110.651
110.722
110.79
110.854
110.915
110.971
111.022
111.066
111.103
111.124
111.136
111.146
111.154
111.161
111.166
111.17
111.171
111.171
111.17
111.166
111.161
111.154
111.146
111.136
111.124
111.103
111.066
111.022
110.971
110.915
110.854
110.79
110.722
110.651
110.579
110.505
110.432
110.358
110.286
110.214
110.145
110.078
110.014
109.952
109.894
109.839
109.789
109.742
109.7
109.662
109.628
109.599
109.575
109.555
109.541
109.531
109.526
109.232
109.236
109.246
109.261
109.28
109.305
109.334
109.367
109.405
109.448
109.495
109.545
109.6
109.658
109.719
109.784
109.851
109.92
109.992
110.064
110.138
110.211
110.285
110.357
110.428
110.496
110.561
110.621
110.677
110.728
110.772
110.809
110.831
110.842
110.852
110.861
110.867
110.873
110.876
110.878
110.878
110.876
110.873
110.867
110.861
110.852
110.842
110.831
110.809
110.772
110.728
110.677
110.621
110.561
110.496
110.428
110.357
110.285
110.211
110.138
110.064
109.992
109.92
109.851
109.784
109.719
109.658
109.6
109.545
109.495
109.448
109.405
109.367
109.334
109.305
109.28
109.261
109.246
109.236
109.232
108.909
108.914
108.923
108.938
108.958
108.982
109.011
109.044
109.083
109.125
109.172
109.222
109.277
109.335
109.397
109.461
109.528
109.598
109.669
109.742
109.815
109.889
109.962
110.035
110.105
110.174
110.239
110.299
110.356
110.406
110.45
110.487
110.509
110.521
110.531
110.539
110.546
110.551
110.554
110.556
110.556
110.554
110.551
110.546
110.539
110.531
110.521
110.509
110.487
110.45
110.406
110.356
110.299
110.239
110.174
110.105
110.035
109.962
109.889
109.815
109.742
109.669
109.598
109.528
109.461
109.397
109.335
109.277
109.222
109.172
109.125
109.083
109.044
109.011
108.982
108.958
108.938
108.923
108.914
108.909
108.554
108.559
108.569
108.584
108.603
108.627
108.656
108.69
108.728
108.771
108.817
108.868
108.923
108.981
109.042
109.107
109.174
109.244
109.315
109.388
109.461
109.535
109.609
109.681
109.752
109.821
109.886
109.947
110.003
110.053
110.098
110.135
110.157
110.168
110.178
110.187
110.194
110.199
110.202
110.204
110.204
110.202
110.199
110.194
110.187
110.178
110.168
110.157
110.135
110.098
110.053
110.003
109.947
109.886
109.821
109.752
109.681
109.609
109.535
109.461
109.388
109.315
109.244
109.174
109.107
109.042
108.981
108.923
108.868
108.817
108.771
108.728
108.69
108.656
108.627
108.603
108.584
108.569
108.559
108.554
108.165
108.17
108.18
108.194
108.214
108.238
108.267
108.301
108.339
108.382
108.428
108.479
108.534
108.592
108.654
108.718
108.786
108.855
108.927
109
109.073
109.148
109.221
109.294
109.365
109.433
109.499
109.56
109.616
109.667
109.712
109.749
109.771
109.783
109.793
109.801
109.808
109.813
109.817
109.818
109.818
109.817
109.813
109.808
109.801
109.793
109.783
109.771
109.749
109.712
109.667
109.616
109.56
109.499
109.433
109.365
109.294
109.221
109.148
109.073
109
108.927
108.855
108.786
108.718
108.654
108.592
108.534
108.479
108.428
108.382
108.339
108.301
108.267
108.238
108.214
108.194
108.18
108.17
108.165
107.738
107.742
107.752
107.767
107.787
107.811
107.84
107.874
107.912
107.955
108.001
108.052
108.107
108.165
108.227
108.292
108.359
108.429
108.501
108.574
108.648
108.722
108.796
108.869
108.94
109.009
109.075
109.136
109.193
109.244
109.289
109.327
109.348
109.36
109.37
109.379
109.386
109.391
109.394
109.396
109.396
109.394
109.391
109.386
109.379
109.37
109.36
109.348
109.327
109.289
109.244
109.193
109.136
109.075
109.009
108.94
108.869
108.796
108.722
108.648
108.574
108.501
108.429
108.359
108.292
108.227
108.165
108.107
108.052
108.001
107.955
107.912
107.874
107.84
107.811
107.787
107.767
107.752
107.742
107.738
107.268
107.273
107.283
107.298
107.317
107.342
107.371
107.405
107.443
107.486
107.533
107.584
107.638
107.697
107.759
107.824
107.891
107.961
108.033
108.107
108.181
108.256
108.33
108.403
108.475
108.544
108.61
108.672
108.729
108.781
108.826
108.864
108.886
108.898
108.908
108.917
108.924
108.929
108.932
108.934
108.934
108.932
108.929
108.924
108.917
108.908
108.898
108.886
108.864
108.826
108.781
108.729
108.672
108.61
108.544
108.475
108.403
108.33
108.256
108.181
108.107
108.033
107.961
107.891
107.824
107.759
107.697
107.638
107.584
107.533
107.486
107.443
107.405
107.371
107.342
107.317
107.298
107.283
107.273
107.268
106.753
106.758
106.768
106.782
106.802
106.827
106.856
106.89
106.928
106.971
107.018
107.069
107.124
107.183
107.245
107.31
107.378
107.448
107.521
107.594
107.669
107.744
107.819
107.893
107.965
108.035
108.101
108.164
108.221
108.273
108.319
108.357
108.38
108.392
108.402
108.411
108.418
108.423
108.427
108.428
108.428
108.427
108.423
108.418
108.411
108.402
108.392
108.38
108.357
108.319
108.273
108.221
108.164
108.101
108.035
107.965
107.893
107.819
107.744
107.669
107.594
107.521
107.448
107.378
107.31
107.245
107.183
107.124
107.069
107.018
106.971
106.928
106.89
106.856
106.827
106.802
106.782
106.768
106.758
106.753
106.187
106.192
106.202
106.217
106.236
106.261
106.29
106.324
106.362
106.405
106.453
106.504
106.559
106.618
106.681
106.746
106.814
106.885
106.958
107.032
107.107
107.183
107.258
107.333
107.406
107.476
107.544
107.607
107.665
107.718
107.764
107.803
107.826
107.838
107.848
107.857
107.864
107.87
107.873
107.875
107.875
107.873
107.87
107.864
107.857
107.848
107.838
107.826
107.803
107.764
107.718
107.665
107.607
107.544
107.476
107.406
107.333
107.258
107.183
107.107
107.032
106.958
106.885
106.814
106.746
106.681
106.618
106.559
106.504
106.453
106.405
106.362
106.324
106.29
106.261
106.236
106.217
106.202
106.192
106.187
105.565
105.57
105.58
105.595
105.615
105.639
105.669
105.703
105.741
105.784
105.832
105.883
105.939
105.998
106.061
106.127
106.196
106.267
106.34
106.415
106.491
106.568
106.644
106.719
106.793
106.864
106.933
106.997
107.056
107.11
107.157
107.197
107.219
107.232
107.243
107.252
107.259
107.264
107.268
107.27
107.27
107.268
107.264
107.259
107.252
107.243
107.232
107.219
107.197
107.157
107.11
107.056
106.997
106.933
106.864
106.793
106.719
106.644
106.568
106.491
106.415
106.34
106.267
106.196
106.127
106.061
105.998
105.939
105.883
105.832
105.784
105.741
105.703
105.669
105.639
105.615
105.595
105.58
105.57
105.565
104.882
104.887
104.897
104.912
104.932
104.956
104.986
105.02
105.059
105.102
105.15
105.202
105.258
105.318
105.381
105.447
105.517
105.589
105.663
105.738
105.815
105.893
105.97
106.046
106.121
106.194
106.264
106.329
106.39
106.444
106.492
106.533
106.557
106.569
106.58
106.59
106.597
106.603
106.607
106.608
106.608
106.607
106.603
106.597
106.59
106.58
106.569
106.557
106.533
106.492
106.444
106.39
106.329
106.264
106.194
106.121
106.046
105.97
105.893
105.815
105.738
105.663
105.589
105.517
105.447
105.381
105.318
105.258
105.202
105.15
105.102
105.059
105.02
104.986
104.956
104.932
104.912
104.897
104.887
104.882
104.131
104.136
104.146
104.161
104.181
104.206
104.236
104.27
104.309
104.353
104.401
104.453
104.51
104.57
104.634
104.701
104.771
104.844
104.919
104.996
105.074
105.152
105.231
105.309
105.385
105.46
105.531
105.598
105.66
105.716
105.766
105.808
105.832
105.845
105.857
105.866
105.874
105.88
105.884
105.885
105.885
105.884
105.88
105.874
105.866
105.857
105.845
105.832
105.808
105.766
105.716
105.66
105.598
105.531
105.46
105.385
105.309
105.231
105.152
105.074
104.996
104.919
104.844
104.771
104.701
104.634
104.57
104.51
104.453
104.401
104.353
104.309
104.27
104.236
104.206
104.181
104.161
104.146
104.136
104.131
103.306
103.311
103.321
103.337
103.357
103.382
103.412
103.446
103.486
103.53
103.578
103.631
103.688
103.749
103.813
103.881
103.952
104.026
104.103
104.181
104.26
104.34
104.421
104.5
104.579
104.655
104.728
104.798
104.862
104.92
104.971
105.015
105.04
105.054
105.066
105.076
105.084
105.09
105.094
105.096
105.096
105.094
105.09
105.084
105.076
105.066
105.054
105.04
105.015
104.971
104.92
104.862
104.798
104.728
104.655
104.579
104.5
104.421
104.34
104.26
104.181
104.103
104.026
103.952
103.881
103.813
103.749
103.688
103.631
103.578
103.53
103.486
103.446
103.412
103.382
103.357
103.337
103.321
103.311
103.306
102.399
102.405
102.415
102.43
102.45
102.475
102.506
102.541
102.58
102.625
102.674
102.727
102.785
102.847
102.912
102.981
103.054
103.129
103.206
103.286
103.367
103.45
103.532
103.614
103.695
103.774
103.85
103.922
103.989
104.049
104.103
104.149
104.175
104.19
104.202
104.212
104.221
104.227
104.232
104.234
104.234
104.232
104.227
104.221
104.212
104.202
104.19
104.175
104.149
104.103
104.049
103.989
103.922
103.85
103.774
103.695
103.614
103.532
103.45
103.367
103.286
103.206
103.129
103.054
102.981
102.912
102.847
102.785
102.727
102.674
102.625
102.58
102.541
102.506
102.475
102.45
102.43
102.415
102.405
102.399
101.402
101.407
101.418
101.433
101.454
101.479
101.51
101.545
101.585
101.63
101.68
101.734
101.793
101.855
101.922
101.992
102.066
102.143
102.223
102.304
102.388
102.473
102.558
102.643
102.727
102.809
102.888
102.963
103.034
103.098
103.155
103.203
103.231
103.246
103.26
103.271
103.28
103.286
103.291
103.293
103.293
103.291
103.286
103.28
103.271
103.26
103.246
103.231
103.203
103.155
103.098
103.034
102.963
102.888
102.809
102.727
102.643
102.558
102.473
102.388
102.304
102.223
102.143
102.066
101.992
101.922
101.855
101.793
101.734
101.68
101.63
101.585
101.545
101.51
101.479
101.454
101.433
101.418
101.407
101.402
100.306
100.311
100.321
100.337
100.358
100.383
100.414
100.45
100.491
100.537
100.587
100.642
100.702
100.766
100.834
100.906
100.981
101.06
101.142
101.226
101.313
101.401
101.489
101.578
101.666
101.752
101.836
101.915
101.99
102.058
102.119
102.171
102.201
102.218
102.232
102.244
102.254
102.261
102.266
102.268
102.268
102.266
102.261
102.254
102.244
102.232
102.218
102.201
102.171
102.119
102.058
101.99
101.915
101.836
101.752
101.666
101.578
101.489
101.401
101.313
101.226
101.142
101.06
100.981
100.906
100.834
100.766
100.702
100.642
100.587
100.537
100.491
100.45
100.414
100.383
100.358
100.337
100.321
100.311
100.306
99.0227
99.028
99.0386
99.0543
99.0754
99.1016
99.133
99.1695
99.2111
99.2577
99.3092
99.3654
99.4264
99.4919
99.5617
99.6357
99.7136
99.7952
99.88
99.9676
100.058
100.15
100.243
100.336
100.43
100.521
100.611
100.697
100.777
100.851
100.918
100.975
101.008
101.026
101.042
101.055
101.066
101.074
101.079
101.082
101.082
101.079
101.074
101.066
101.055
101.042
101.026
101.008
100.975
100.918
100.851
100.777
100.697
100.611
100.521
100.43
100.336
100.243
100.15
100.058
99.9676
99.88
99.7952
99.7136
99.6357
99.5617
99.4919
99.4264
99.3654
99.3092
99.2577
99.2111
99.1695
99.133
99.1016
99.0754
99.0543
99.0386
99.028
99.0227
97.6022
97.6076
97.6183
97.6344
97.6558
97.6825
97.7145
97.7518
97.7942
97.8418
97.8945
97.9522
98.0148
98.0822
98.1543
98.2308
98.3116
98.3964
98.4848
98.5767
98.6714
98.7685
98.8674
98.9672
99.0672
99.1664
99.2634
99.3571
99.4459
99.528
99.6019
99.6657
99.7033
99.7238
99.7417
99.7568
99.769
99.7782
99.7843
99.7874
99.7874
99.7843
99.7782
99.769
99.7568
99.7417
99.7238
99.7033
99.6657
99.6019
99.528
99.4459
99.3571
99.2634
99.1664
99.0672
98.9672
98.8674
98.7685
98.6714
98.5767
98.4848
98.3964
98.3116
98.2308
98.1543
98.0822
98.0148
97.9522
97.8945
97.8418
97.7942
97.7518
97.7145
97.6825
97.6558
97.6344
97.6183
97.6076
97.6022
96.1763
96.1818
96.1927
96.2091
96.2309
96.2581
96.2907
96.3288
96.3722
96.4209
96.4749
96.5341
96.5985
96.668
96.7424
96.8216
96.9055
96.9939
97.0864
97.1828
97.2827
97.3856
97.4909
97.5979
97.7057
97.8133
97.9194
98.0226
98.121
98.213
98.2963
98.3687
98.4116
98.4351
98.4557
98.473
98.487
98.4977
98.5048
98.5084
98.5084
98.5048
98.4977
98.487
98.473
98.4557
98.4351
98.4116
98.3687
98.2963
98.213
98.121
98.0226
97.9194
97.8133
97.7057
97.5979
97.4909
97.3856
97.2827
97.1828
97.0864
96.9939
96.9055
96.8216
96.7424
96.668
96.5985
96.5341
96.4749
96.4209
96.3722
96.3288
96.2907
96.2581
96.2309
96.2091
96.1927
96.1818
96.1763
94.745
94.7505
94.7617
94.7783
94.8005
94.8283
94.8616
94.9004
94.9448
94.9947
95.05
95.1108
95.1771
95.2487
95.3256
95.4078
95.495
95.5872
95.6841
95.7855
95.891
96.0003
96.1128
96.2278
96.3445
96.4618
96.5783
96.6927
96.8028
96.9066
97.0014
97.0847
97.1344
97.1618
97.1857
97.2059
97.2224
97.2349
97.2432
97.2475
97.2475
97.2432
97.2349
97.2224
97.2059
97.1857
97.1618
97.1344
97.0847
97.0014
96.9066
96.8028
96.6927
96.5783
96.4618
96.3445
96.2278
96.1128
96.0003
95.891
95.7855
95.6841
95.5872
95.495
95.4078
95.3256
95.2487
95.1771
95.1108
95.05
94.9947
94.9448
94.9004
94.8616
94.8283
94.8005
94.7783
94.7617
94.7505
94.745
93.3081
93.3138
93.3251
93.342
93.3646
93.3929
93.4269
93.4666
93.5119
93.563
93.6197
93.6822
93.7503
93.8242
93.9037
93.9888
94.0795
94.1757
94.2773
94.384
94.4956
94.6118
94.7321
94.856
94.9826
95.1109
95.2396
95.3669
95.491
95.609
95.7182
95.8151
95.8735
95.9058
95.9342
95.9583
95.9779
95.9928
96.0028
96.0078
96.0078
96.0028
95.9928
95.9779
95.9583
95.9342
95.9058
95.8735
95.8151
95.7182
95.609
95.491
95.3669
95.2396
95.1109
94.9826
94.856
94.7321
94.6118
94.4956
94.384
94.2773
94.1757
94.0795
93.9888
93.9037
93.8242
93.7503
93.6822
93.6197
93.563
93.5119
93.4666
93.4269
93.3929
93.3646
93.342
93.3251
93.3138
93.3081
91.8656
91.8713
91.8828
91.9001
91.9231
91.9519
91.9865
92.027
92.0733
92.1255
92.1837
92.2478
92.3178
92.3939
92.4761
92.5643
92.6586
92.7589
92.8653
92.9775
93.0956
93.2192
93.348
93.4815
93.619
93.7596
93.9021
94.0446
94.185
94.3204
94.4473
94.5614
94.6312
94.6699
94.7041
94.7333
94.7572
94.7753
94.7876
94.7938
94.7938
94.7876
94.7753
94.7572
94.7333
94.7041
94.6699
94.6312
94.5614
94.4473
94.3204
94.185
94.0446
93.9021
93.7596
93.619
93.4815
93.348
93.2192
93.0956
92.9775
92.8653
92.7589
92.6586
92.5643
92.4761
92.3939
92.3178
92.2478
92.1837
92.1255
92.0733
92.027
91.9865
91.9519
91.9231
91.9001
91.8828
91.8713
91.8656
90.4173
90.4231
90.4348
90.4523
90.4757
90.5051
90.5403
90.5816
90.6288
90.6822
90.7417
90.8074
90.8794
90.9577
91.0425
91.1337
91.2316
91.3361
91.4474
91.5653
91.69
91.8213
91.9591
92.1029
92.2523
92.4066
92.5645
92.7244
92.8841
93.0403
93.1891
93.3252
93.4099
93.4573
93.4993
93.5355
93.5651
93.5878
93.6032
93.611
93.611
93.6032
93.5878
93.5651
93.5355
93.4993
93.4573
93.4099
93.3252
93.1891
93.0403
92.8841
92.7244
92.5645
92.4066
92.2523
92.1029
91.9591
91.8213
91.69
91.5653
91.4474
91.3361
91.2316
91.1337
91.0425
90.9577
90.8794
90.8074
90.7417
90.6822
90.6288
90.5816
90.5403
90.5051
90.4757
90.4523
90.4348
90.4231
90.4173
88.9631
88.9691
88.9809
88.9987
89.0225
89.0523
89.0882
89.1301
89.1783
89.2327
89.2935
89.3607
89.4345
89.515
89.6023
89.6966
89.798
89.9066
90.0227
90.1464
90.2779
90.417
90.564
90.7187
90.8809
91.0499
91.2249
91.4045
91.5865
91.7677
91.9436
92.108
92.2125
92.2716
92.3245
92.3703
92.4083
92.4375
92.4574
92.4675
92.4675
92.4574
92.4375
92.4083
92.3703
92.3245
92.2716
92.2125
92.108
91.9436
91.7677
91.5865
91.4045
91.2249
91.0499
90.8809
90.7187
90.564
90.417
90.2779
90.1464
90.0227
89.9066
89.798
89.6966
89.6023
89.515
89.4345
89.3607
89.2935
89.2327
89.1783
89.1301
89.0882
89.0523
89.0225
88.9987
88.9809
88.9691
88.9631
87.5031
87.5091
87.5211
87.5391
87.5632
87.5935
87.6299
87.6725
87.7215
87.7769
87.8388
87.9075
87.983
88.0655
88.1552
88.2523
88.357
88.4697
88.5905
88.7198
88.8579
89.005
89.1613
89.3271
89.5025
89.6872
89.8807
90.0822
90.2897
90.5005
90.7097
90.9104
91.0418
91.117
91.1853
91.2453
91.2955
91.3345
91.3613
91.375
91.375
91.3613
91.3345
91.2955
91.2453
91.1853
91.117
91.0418
90.9104
90.7097
90.5005
90.2897
90.0822
89.8807
89.6872
89.5025
89.3271
89.1613
89.005
88.8579
88.7198
88.5905
88.4697
88.357
88.2523
88.1552
88.0655
87.983
87.9075
87.8388
87.7769
87.7215
87.6725
87.6299
87.5935
87.5632
87.5391
87.5211
87.5091
87.5031
86.037
86.0431
86.0552
86.0735
86.0979
86.1285
86.1653
86.2085
86.2582
86.3145
86.3775
86.4474
86.5244
86.6087
86.7006
86.8003
86.9082
87.0246
87.1499
87.2845
87.4289
87.5836
87.7492
87.9261
88.1147
88.3156
88.5287
88.7537
88.9898
89.2347
89.4843
89.7314
89.8996
89.9977
90.0884
90.1696
90.2389
90.2937
90.3319
90.3515
90.3515
90.3319
90.2937
90.2389
90.1696
90.0884
89.9977
89.8996
89.7314
89.4843
89.2347
88.9898
88.7537
88.5287
88.3156
88.1147
87.9261
87.7492
87.5836
87.4289
87.2845
87.1499
87.0246
86.9082
86.8003
86.7006
86.6087
86.5244
86.4474
86.3775
86.3145
86.2582
86.2085
86.1653
86.1285
86.0979
86.0735
86.0552
86.0431
86.037
84.5649
84.571
84.5833
84.6017
84.6263
84.6572
84.6944
84.7381
84.7884
84.8454
84.9093
84.9803
85.0586
85.1445
85.2382
85.3402
85.4509
85.5706
85.6999
85.8393
85.9896
86.1515
86.3257
86.5132
86.7148
86.9317
87.1646
87.4143
87.6811
87.9642
88.2613
88.5668
88.785
88.9156
89.0397
89.1543
89.2551
89.3375
89.3964
89.4272
89.4272
89.3964
89.3375
89.2551
89.1543
89.0397
88.9156
88.785
88.5668
88.2613
87.9642
87.6811
87.4143
87.1646
86.9317
86.7148
86.5132
86.3257
86.1515
85.9896
85.8393
85.6999
85.5706
85.4509
85.3402
85.2382
85.1445
85.0586
84.9803
84.9093
84.8454
84.7884
84.7381
84.6944
84.6572
84.6263
84.6017
84.5833
84.571
84.5649
83.0867
83.0928
83.1051
83.1237
83.1484
83.1795
83.2171
83.2611
83.3118
83.3694
83.434
83.5058
83.5851
83.6723
83.7676
83.8715
83.9844
84.1069
84.2397
84.3833
84.5388
84.7069
84.8889
85.0861
85.2998
85.5317
85.7838
86.0579
86.356
86.6797
87.03
87.4053
87.6897
87.8656
88.0398
88.2082
88.3648
88.5004
88.6032
88.6589
88.6589
88.6032
88.5004
88.3648
88.2082
88.0398
87.8656
87.6897
87.4053
87.03
86.6797
86.356
86.0579
85.7838
85.5317
85.2998
85.0861
84.8889
84.7069
84.5388
84.3833
84.2397
84.1069
83.9844
83.8715
83.7676
83.6723
83.5851
83.5058
83.434
83.3694
83.3118
83.2611
83.2171
83.1795
83.1484
83.1237
83.1051
83.0928
83.0867
81.6023
81.6084
81.6208
81.6394
81.6643
81.6955
81.7332
81.7774
81.8284
81.8864
81.9514
82.0238
82.1039
82.1919
82.2884
82.3937
82.5084
82.6331
82.7686
82.9156
83.0752
83.2485
83.437
83.6424
83.8665
84.1117
84.3809
84.6774
85.0051
85.3688
85.7737
86.2255
86.5896
86.8242
87.0691
87.3225
87.5799
87.8303
88.0478
88.1727
88.1727
88.0478
87.8303
87.5799
87.3225
87.0691
86.8242
86.5896
86.2255
85.7737
85.3688
85.0051
84.6774
84.3809
84.1117
83.8665
83.6424
83.437
83.2485
83.0752
82.9156
82.7686
82.6331
82.5084
82.3937
82.2884
82.1919
82.1039
82.0238
81.9514
81.8864
81.8284
81.7774
81.7332
81.6955
81.6643
81.6394
81.6208
81.6084
81.6023
80.1117
80.1179
80.1303
80.1488
80.1737
80.205
80.2427
80.287
80.3381
80.3962
80.4614
80.5342
80.6146
80.7032
80.8004
80.9066
81.0224
81.1486
81.2859
81.4352
81.5978
81.775
81.9683
82.1799
82.412
82.6677
82.9507
83.2657
83.6184
84.0167
84.4704
84.9933
85.4358
85.7313
86.0553
86.4165
86.8306
87.3266
87.9611
89.578
89.578
87.9611
87.3266
86.8306
86.4165
86.0553
85.7313
85.4358
84.9933
84.4704
84.0167
83.6184
83.2657
82.9507
82.6677
82.412
82.1799
81.9683
81.775
81.5978
81.4352
81.2859
81.1486
81.0224
80.9066
80.8004
80.7032
80.6146
80.5342
80.4614
80.3962
80.3381
80.287
80.2427
80.205
80.1737
80.1488
80.1303
80.1179
80.1117
78.615
78.6212
78.6335
78.652
78.6768
78.708
78.7456
78.7898
78.8409
78.8989
78.9641
79.0367
79.1172
79.2059
79.3033
79.4098
79.5261
79.6529
79.7911
79.9417
80.1059
80.2852
80.4815
80.6968
80.934
81.1965
81.4886
81.8161
82.1862
82.609
83.0979
83.6713
84.1645
84.4942
84.8529
85.2431
85.6663
86.1221
86.6341
122.595
122.595
86.6341
86.1221
85.6663
85.2431
84.8529
84.4942
84.1645
83.6713
83.0979
82.609
82.1862
81.8161
81.4886
81.1965
80.934
80.6968
80.4815
80.2852
80.1059
79.9417
79.7911
79.6529
79.5261
79.4098
79.3033
79.2059
79.1172
79.0367
78.9641
78.8989
78.8409
78.7898
78.7456
78.708
78.6768
78.652
78.6335
78.6212
78.615
77.1121
77.1182
77.1305
77.1489
77.1735
77.2045
77.2419
77.2859
77.3366
77.3943
77.4592
77.5315
77.6117
77.7
77.797
77.9032
78.0192
78.1458
78.2839
78.4345
78.5989
78.7786
78.9755
79.1919
79.4307
79.6956
79.9912
80.3238
80.7014
81.1353
81.6409
82.2398
82.7608
83.1104
83.491
83.9021
84.3373
84.7761
85.3418
110.223
110.223
85.3418
84.7761
84.3373
83.9021
83.491
83.1104
82.7608
82.2398
81.6409
81.1353
80.7014
80.3238
79.9912
79.6956
79.4307
79.1919
78.9755
78.7786
78.5989
78.4345
78.2839
78.1458
78.0192
77.9032
77.797
77.7
77.6117
77.5315
77.4592
77.3943
77.3366
77.2859
77.2419
77.2045
77.1735
77.1489
77.1305
77.1182
77.1121
75.6032
75.6092
75.6213
75.6395
75.6639
75.6946
75.7316
75.7752
75.8254
75.8826
75.9468
76.0185
76.0979
76.1854
76.2816
76.3868
76.5018
76.6273
76.7642
76.9135
77.0765
77.2547
77.45
77.6646
77.9014
78.1639
78.4569
78.7864
79.1604
79.5899
80.0906
80.6856
81.2106
81.5698
81.9744
82.4393
82.9896
83.6706
86.7188
105.485
105.485
86.7188
83.6706
82.9896
82.4393
81.9744
81.5698
81.2106
80.6856
80.0906
79.5899
79.1604
78.7864
78.4569
78.1639
77.9014
77.6646
77.45
77.2547
77.0765
76.9135
76.7642
76.6273
76.5018
76.3868
76.2816
76.1854
76.0979
76.0185
75.9468
75.8826
75.8254
75.7752
75.7316
75.6946
75.6639
75.6395
75.6213
75.6092
75.6032
74.0881
74.0941
74.106
74.124
74.1481
74.1783
74.2149
74.2578
74.3074
74.3637
74.427
74.4977
74.576
74.6623
74.757
74.8607
74.9739
75.0974
75.2321
75.3789
75.539
75.7138
75.9051
76.115
76.3462
76.6019
76.8862
77.2045
77.5638
77.9733
78.4459
78.9996
79.4776
79.7992
80.1529
80.5443
80.9801
81.4799
108.778
118.247
118.247
108.778
81.4799
80.9801
80.5443
80.1529
79.7992
79.4776
78.9996
78.4459
77.9733
77.5638
77.2045
76.8862
76.6019
76.3462
76.115
75.9051
75.7138
75.539
75.3789
75.2321
75.0974
74.9739
74.8607
74.757
74.6623
74.576
74.4977
74.427
74.3637
74.3074
74.2578
74.2149
74.1783
74.1481
74.124
74.106
74.0941
74.0881
72.5671
72.573
72.5847
72.6024
72.6261
72.6558
72.6917
72.7338
72.7825
72.8378
72.9
72.9693
73.0461
73.1306
73.2234
73.3249
73.4357
73.5564
73.6879
73.8309
73.9867
74.1564
74.3417
74.5443
74.7665
75.0111
75.2815
75.5816
75.9169
76.2937
76.7201
77.2055
77.6056
77.866
78.1399
78.4252
78.7163
79.0563
102.414
114.29
114.29
102.414
79.0563
78.7163
78.4252
78.1399
77.866
77.6056
77.2055
76.7201
76.2937
75.9169
75.5816
75.2815
75.0111
74.7665
74.5443
74.3417
74.1564
73.9867
73.8309
73.6879
73.5564
73.4357
73.3249
73.2234
73.1306
73.0461
72.9693
72.9
72.8378
72.7825
72.7338
72.6917
72.6558
72.6261
72.6024
72.5847
72.573
72.5671
71.0403
71.046
71.0575
71.0748
71.098
71.127
71.1621
71.2034
71.251
71.305
71.3658
71.4334
71.5083
71.5908
71.6812
71.7799
71.8876
72.0047
72.132
72.2702
72.4204
72.5835
72.7608
72.9539
73.1645
73.3947
73.6468
73.9237
74.2285
74.5646
74.9353
75.3426
75.6622
75.8642
76.0698
76.2764
76.48
76.7411
94.509
107.653
107.653
94.509
76.7411
76.48
76.2764
76.0698
75.8642
75.6622
75.3426
74.9353
74.5646
74.2285
73.9237
73.6468
73.3947
73.1645
72.9539
72.7608
72.5835
72.4204
72.2702
72.132
72.0047
71.8876
71.7799
71.6812
71.5908
71.5083
71.4334
71.3658
71.305
71.251
71.2034
71.1621
71.127
71.098
71.0748
71.0575
71.046
71.0403
69.5077
69.5133
69.5245
69.5414
69.5639
69.5923
69.6265
69.6667
69.713
69.7656
69.8246
69.8904
69.9631
70.043
70.1306
70.2261
70.33
70.4428
70.5652
70.6977
70.8411
70.9963
71.1643
71.3461
71.543
71.7563
71.9875
72.2379
72.5088
72.8009
73.1137
73.4447
73.6917
73.844
73.9949
74.1429
74.2858
74.4777
87.8086
101.951
101.951
87.8086
74.4777
74.2858
74.1429
73.9949
73.844
73.6917
73.4447
73.1137
72.8009
72.5088
72.2379
71.9875
71.7563
71.543
71.3461
71.1643
70.9963
70.8411
70.6977
70.5652
70.4428
70.33
70.2261
70.1306
70.043
69.9631
69.8904
69.8246
69.7656
69.713
69.6667
69.6265
69.5923
69.5639
69.5414
69.5245
69.5133
69.5077
67.9695
67.9749
67.9858
68.0022
68.0241
68.0516
68.0848
68.1238
68.1687
68.2196
68.2768
68.3404
68.4106
68.4877
68.572
68.6638
68.7635
68.8714
68.9882
69.1142
69.25
69.3964
69.5538
69.7231
69.905
70.1
70.3088
70.5315
70.7678
71.0164
71.2742
71.5356
71.72
71.8302
71.9356
72.0348
72.1261
72.2417
80.2843
96.4802
96.4802
80.2843
72.2417
72.1261
72.0348
71.9356
71.8302
71.72
71.5356
71.2742
71.0164
70.7678
70.5315
70.3088
70.1
69.905
69.7231
69.5538
69.3964
69.25
69.1142
68.9882
68.8714
68.7635
68.6638
68.572
68.4877
68.4106
68.3404
68.2768
68.2196
68.1687
68.1238
68.0848
68.0516
68.0241
68.0022
67.9858
67.9749
67.9695
66.4259
66.4311
66.4417
66.4575
66.4787
66.5053
66.5374
66.575
66.6184
66.6675
66.7225
66.7837
66.8512
66.9251
67.0059
67.0936
67.1886
67.2913
67.4019
67.5208
67.6485
67.7853
67.9316
68.0876
68.2538
68.4301
68.6163
68.8116
69.0147
69.2226
69.431
69.6325
69.7649
69.8404
69.9082
69.9664
70.0125
70.0539
72.4379
91.9099
91.9099
72.4379
70.0539
70.0125
69.9664
69.9082
69.8404
69.7649
69.6325
69.431
69.2226
69.0147
68.8116
68.6163
68.4301
68.2538
68.0876
67.9316
67.7853
67.6485
67.5208
67.4019
67.2913
67.1886
67.0936
67.0059
66.9251
66.8512
66.7837
66.7225
66.6675
66.6184
66.575
66.5374
66.5053
66.4787
66.4575
66.4417
66.4311
66.4259
64.877
64.8821
64.8922
64.9075
64.9279
64.9535
64.9844
65.0206
65.0622
65.1094
65.1622
65.2207
65.2853
65.3559
65.4328
65.5161
65.6062
65.7032
65.8073
65.9188
66.0379
66.1647
66.2995
66.4421
66.5925
66.7502
66.9145
67.084
67.2565
67.4285
67.5948
67.7476
67.84
67.8895
67.9298
67.9588
67.9738
67.9711
67.9585
88.659
88.659
67.9585
67.9711
67.9738
67.9588
67.9298
67.8895
67.84
67.7476
67.5948
67.4285
67.2565
67.084
66.9145
66.7502
66.5925
66.4421
66.2995
66.1647
66.0379
65.9188
65.8073
65.7032
65.6062
65.5161
65.4328
65.3559
65.2853
65.2207
65.1622
65.1094
65.0622
65.0206
64.9844
64.9535
64.9279
64.9075
64.8922
64.8821
64.877
63.323
63.3279
63.3377
63.3523
63.3719
63.3965
63.4261
63.4607
63.5006
63.5456
63.596
63.6519
63.7132
63.7803
63.8532
63.932
64.0168
64.1079
64.2053
64.3091
64.4195
64.5363
64.6595
64.7888
64.9238
65.0638
65.2076
65.3535
65.4989
65.6401
65.7721
65.8877
65.9522
65.9848
66.0088
66.0226
66.0241
66.0105
65.9935
67.7014
67.7014
65.9935
66.0105
66.0241
66.0226
66.0088
65.9848
65.9522
65.8877
65.7721
65.6401
65.4989
65.3535
65.2076
65.0638
64.9238
64.7888
64.6595
64.5363
64.4195
64.3091
64.2053
64.1079
64.0168
63.932
63.8532
63.7803
63.7132
63.6519
63.596
63.5456
63.5006
63.4607
63.4261
63.3965
63.3719
63.3523
63.3377
63.3279
63.323
61.7644
61.769
61.7784
61.7924
61.8111
61.8346
61.8628
61.8959
61.9338
61.9767
62.0246
62.0776
62.1358
62.1991
62.2678
62.3419
62.4215
62.5065
62.5971
62.6932
62.7948
62.9017
63.0136
63.1301
63.2505
63.3739
63.4989
63.6237
63.7457
63.8614
63.9662
64.0544
64.1009
64.1238
64.1401
64.1495
64.1515
64.1468
64.1367
65.9687
65.9687
64.1367
64.1468
64.1515
64.1495
64.1401
64.1238
64.1009
64.0544
63.9662
63.8614
63.7457
63.6237
63.4989
63.3739
63.2505
63.1301
63.0136
62.9017
62.7948
62.6932
62.5971
62.5065
62.4215
62.3419
62.2678
62.1991
62.1358
62.0776
62.0246
61.9767
61.9338
61.8959
61.8628
61.8346
61.8111
61.7924
61.7784
61.769
61.7644
60.201
60.2055
60.2144
60.2277
60.2456
60.2679
60.2947
60.3262
60.3622
60.4028
60.4482
60.4982
60.553
60.6126
60.6771
60.7464
60.8206
60.8996
60.9834
61.0719
61.1649
61.2621
61.3631
61.4674
61.5741
61.6823
61.7905
61.8968
61.9988
62.0935
62.177
62.2449
62.2792
62.2956
62.3069
62.313
62.3138
62.3092
62.2994
64.1705
64.1705
62.2994
62.3092
62.3138
62.313
62.3069
62.2956
62.2792
62.2449
62.177
62.0935
61.9988
61.8968
61.7905
61.6823
61.5741
61.4674
61.3631
61.2621
61.1649
61.0719
60.9834
60.8996
60.8206
60.7464
60.6771
60.6126
60.553
60.4982
60.4482
60.4028
60.3622
60.3262
60.2947
60.2679
60.2456
60.2277
60.2144
60.2055
60.201
58.6333
58.6375
58.6459
58.6586
58.6755
58.6967
58.7221
58.7518
58.7859
58.8242
58.867
58.914
58.9655
59.0213
59.0815
59.1461
59.2149
59.2879
59.3651
59.4461
59.5307
59.6186
59.7094
59.8022
59.8964
59.9908
60.084
60.1742
60.2593
60.3367
60.4033
60.4558
60.4811
60.4928
60.5004
60.5038
60.5029
60.4976
60.4878
62.3794
62.3794
60.4878
60.4976
60.5029
60.5038
60.5004
60.4928
60.4811
60.4558
60.4033
60.3367
60.2593
60.1742
60.084
59.9908
59.8964
59.8022
59.7094
59.6186
59.5307
59.4461
59.3651
59.2879
59.2149
59.1461
59.0815
59.0213
58.9655
58.914
58.867
58.8242
58.7859
58.7518
58.7221
58.6967
58.6755
58.6586
58.6459
58.6375
58.6333
57.0613
57.0653
57.0733
57.0852
57.1012
57.1212
57.1452
57.1732
57.2053
57.2413
57.2814
57.3255
57.3736
57.4256
57.4816
57.5414
57.605
57.6722
57.7428
57.8166
57.8933
57.9724
58.0535
58.1358
58.2184
58.3004
58.3804
58.4567
58.5276
58.5907
58.6438
58.6843
58.7027
58.7107
58.7154
58.7166
58.7141
58.7081
58.6982
60.6123
60.6123
58.6982
58.7081
58.7141
58.7166
58.7154
58.7107
58.7027
58.6843
58.6438
58.5907
58.5276
58.4567
58.3804
58.3004
58.2184
58.1358
58.0535
57.9724
57.8933
57.8166
57.7428
57.6722
57.605
57.5414
57.4816
57.4256
57.3736
57.3255
57.2814
57.2413
57.2053
57.1732
57.1452
57.1212
57.1012
57.0852
57.0733
57.0653
57.0613
55.4853
55.4891
55.4966
55.5079
55.5229
55.5417
55.5643
55.5906
55.6206
55.6544
55.6918
55.733
55.7777
55.826
55.8778
55.933
55.9915
56.053
56.1173
56.1842
56.2534
56.3243
56.3963
56.4689
56.5412
56.6121
56.6804
56.7447
56.8035
56.8548
56.8969
56.9278
56.9407
56.9458
56.9481
56.9475
56.9438
56.9371
56.9272
58.8688
58.8688
56.9272
56.9371
56.9438
56.9475
56.9481
56.9458
56.9407
56.9278
56.8969
56.8548
56.8035
56.7447
56.6804
56.6121
56.5412
56.4689
56.3963
56.3243
56.2534
56.1842
56.1173
56.053
55.9915
55.933
55.8778
55.826
55.7777
55.733
55.6918
55.6544
55.6206
55.5906
55.5643
55.5417
55.5229
55.5079
55.4966
55.4891
55.4853
53.9056
53.9091
53.9162
53.9268
53.9409
53.9585
53.9796
54.0042
54.0322
54.0637
54.0986
54.1368
54.1783
54.2229
54.2707
54.3214
54.3748
54.4309
54.4893
54.5497
54.6117
54.6749
54.7387
54.8024
54.8653
54.9263
54.9844
55.0383
55.0868
55.1283
55.1612
55.1842
55.1927
55.1955