/*--------------------------------*- C++ -*----------------------------------*\
  =========                 |
  \\      /  F ield         | OpenFOAM: The Open Source CFD Toolbox
   \\    /   O peration     | Website:  https://openfoam.org
    \\  /    A nd           | Version:  10
     \\/     M anipulation  |
\*---------------------------------------------------------------------------*/
FoamFile
{
    format      ascii;
    class       volScalarField;
    location    "0.01";
    object      pMean;
}
// * * * * * * * * * * * * * * * * * * * * * * * * * * * * * * * * * * * * * //

dimensions      [0 2 -2 0 0 0 0];

internalField   nonuniform List<scalar> 
12225
(
89.2179
87.1952
85.899
85.0186
84.1884
83.3066
82.384
81.444
80.4943
79.5221
78.5165
77.4476
76.3064
75.0167
73.5699
71.6697
69.2989
64.7786
89.0392
87.1692
85.898
85.0141
84.1841
83.3054
82.3847
81.4471
80.4979
79.5302
78.5239
77.467
76.3171
75.0675
73.581
71.8899
69.5143
66.9502
89.0123
87.1675
85.9101
85.0184
84.1856
83.3094
82.3927
81.4572
80.5126
79.5476
78.5507
77.4964
76.3703
75.1226
73.7236
72.0752
70.135
67.9335
88.7894
87.1245
85.9121
85.0169
84.1819
83.3114
82.4002
81.4708
80.5305
79.5746
78.584
77.5471
76.4331
75.2297
73.8791
72.3765
70.6733
68.8539
88.6885
87.1017
85.9206
85.0266
84.1889
83.3202
82.4151
81.4914
80.5585
79.6103
78.633
77.6115
76.5272
75.363
74.0937
72.7162
71.2318
69.731
88.6615
87.0704
85.9185
85.0355
84.1976
83.3322
82.4342
81.5194
80.5958
79.6592
78.6973
77.6976
76.6462
75.5319
74.3461
73.0923
71.7981
70.5258
88.6032
87.0253
85.9074
85.0454
84.2116
83.3485
82.4578
81.5535
80.6423
79.7206
78.7783
77.8055
76.7934
75.7364
74.6345
73.499
72.3608
71.2694
88.5847
87.0168
85.9173
85.066
84.2361
83.3766
82.4938
81.6012
80.7035
79.7982
78.8784
77.9366
76.9676
75.9705
74.9513
73.9239
72.9169
71.9686
88.4702
86.9622
85.9054
85.0754
84.2553
83.4042
82.5322
81.6535
80.7741
79.891
78.9986
78.0919
77.1698
76.2345
75.2944
74.3642
73.4679
72.6339
88.4656
86.972
85.9268
85.1056
84.2933
83.4494
82.5874
81.7238
80.8634
80.0034
79.1393
78.2697
77.3953
76.5209
75.6553
74.8121
74.0101
73.2705
88.368
86.9374
85.9251
85.1213
84.3241
83.4952
82.6483
81.8017
80.9623
80.1289
79.2984
78.4697
77.6452
76.8303
76.0341
75.2682
74.5471
73.8855
88.4427
86.9549
85.9426
85.1583
84.3752
83.5555
82.7204
81.891
81.0736
80.266
79.4658
78.6736
77.893
77.1297
76.3916
75.6886
75.0314
74.4308
88.4837
86.9641
85.9511
85.1861
84.4212
83.6166
82.7976
81.9865
81.1915
80.4116
79.6446
78.8909
78.1541
77.4399
76.7557
76.109
75.508
74.9598
88.4127
86.9788
85.9935
85.2378
84.4887
83.7029
82.9033
82.1146
81.346
80.5973
79.867
79.1555
78.4662
77.8042
77.1757
76.5863
76.0416
75.5459
88.4312
87.011
86.0485
85.3089
84.5756
83.811
83.036
82.2752
81.5392
80.8284
80.1411
79.4776
78.8406
78.2345
77.6636
77.1319
76.6424
76.1976
88.5944
87.1057
86.1242
85.4026
84.6959
83.9594
83.2146
82.4866
81.7867
81.1168
80.4756
79.8625
79.2793
78.7291
78.215
77.739
77.3027
76.9069
88.6586
87.1836
86.2307
85.5397
84.8614
84.1531
83.4403
82.7488
82.0901
81.4654
80.8733
80.3127
79.7841
79.2892
78.8296
78.4064
78.0199
77.6696
88.6732
87.2807
86.3779
85.7193
85.068
84.3882
83.71
83.0602
82.4484
81.8739
81.3335
80.8255
80.3499
79.9076
79.4995
79.1256
78.7855
78.4783
88.9314
87.5004
86.5974
85.9574
85.3359
84.6928
84.0522
83.4395
82.8662
82.3339
81.8391
81.3786
80.951
80.5561
80.1938
79.8632
79.5632
79.2924
89.103
87.6954
86.8038
86.1702
85.559
84.9331
84.3169
83.7353
83.1971
82.7003
82.2398
81.8127
81.4179
81.055
80.7235
80.4221
80.1495
79.904
89.0939
87.7906
86.9548
86.3359
85.7348
85.1225
84.5218
83.9564
83.4352
82.9561
82.5141
82.1062
81.7312
81.3879
81.0752
80.7917
80.5356
80.3052
89.3466
87.981
87.1055
86.4719
85.8682
85.2624
84.6728
84.1187
83.6091
83.1429
82.7148
82.321
81.9597
81.6297
81.3299
81.0585
80.814
80.5941
89.6151
88.1351
87.1984
86.561
85.9714
85.374
84.788
84.2386
83.7362
83.2787
82.8603
82.4764
82.1248
81.8044
81.5139
81.2514
81.0152
80.8033
89.7702
88.2763
87.3121
86.6527
86.0545
85.4579
84.8766
84.3324
83.8347
83.3822
82.9693
82.5916
82.2465
81.9324
81.6479
81.3914
81.1607
80.9539
89.7754
88.3251
87.3737
86.7067
86.1022
85.5072
84.9313
84.392
83.8984
83.4497
83.0414
82.6688
82.3289
82.0199
81.7403
81.4884
81.2624
81.0599
89.9708
88.4433
87.4483
86.7611
86.1503
85.5561
84.9821
84.4446
83.9522
83.5053
83.0995
82.7296
82.3927
82.0867
81.8102
81.5613
81.3381
81.1384
89.9717
88.4709
87.472
86.7805
86.171
85.5794
85.0071
84.4708
83.9804
83.536
83.1326
82.7654
82.431
82.1276
81.8536
81.6073
81.3865
81.1892
90.1231
88.5331
87.4987
86.8038
86.1975
85.6061
85.0324
84.4954
84.0056
83.5622
83.1597
82.7933
82.4599
82.1578
81.8854
81.6407
81.4216
81.2258
90.2042
88.5549
87.5014
86.8114
86.2092
85.6171
85.0422
84.5056
84.017
83.575
83.1737
82.8084
82.4762
82.1754
81.9042
81.661
81.4435
81.2496
90.3162
88.5857
87.5049
86.8185
86.2197
85.6272
85.0516
84.5152
84.0273
83.5856
83.1843
82.819
82.487
82.1866
81.916
81.6736
81.457
81.2647
71.4805
71.4792
71.475
71.4693
71.462
71.4532
71.4432
71.432
71.4199
71.4069
71.3932
71.3793
71.3653
71.3519
71.3398
71.3298
71.3232
71.3211
71.3254
71.3379
71.361
71.3973
71.4498
71.5217
71.6167
71.7386
71.8914
72.0792
72.3059
72.5751
72.8899
73.2526
73.6648
74.1265
74.6369
75.1933
75.7921
76.4281
77.0947
77.7842
78.4878
79.1964
79.901
80.5924
81.2623
81.9027
82.5069
83.069
83.5847
84.0506
84.4646
84.8261
85.135
85.3924
85.6001
85.7602
85.8754
85.9488
85.9833
85.9822
85.9485
85.8856
85.7961
85.6827
85.5479
85.3939
85.223
85.037
84.8376
84.6265
84.4049
84.1742
83.9354
83.6896
83.4376
83.1801
82.9179
82.6514
82.3812
82.1078
81.8315
81.5527
81.2715
80.9883
80.7032
80.4165
80.1281
79.8383
79.547
79.2545
78.9607
78.6656
78.3693
78.0718
77.773
77.473
77.1718
76.8692
76.5654
76.2602
75.9536
75.6456
75.3362
75.0252
74.7127
74.3986
74.0829
73.7655
73.4463
73.1254
72.8026
72.478
72.1514
71.8228
71.4922
71.1596
70.8248
70.4879
70.1488
69.8075
69.4639
69.118
68.7697
68.419
68.0659
67.7104
67.3523
66.9917
66.6286
66.2628
65.8944
65.5233
65.1494
64.7729
64.3935
64.0114
63.6264
63.2385
62.8477
62.4539
62.0572
61.6575
61.2548
60.849
60.4401
60.0281
59.613
59.1947
58.7732
58.3485
57.9206
57.4894
57.055
56.6172
56.1762
55.7319
55.2843
54.8334
54.3792
53.9218
53.4612
52.9975
52.5307
52.0611
51.5888
51.114
50.6372
50.1587
49.6791
49.1994
48.7204
48.2445
47.7728
47.3107
46.8599
46.435
46.0391
45.719
45.4834
45.4846
71.4416
71.4396
71.4338
71.4256
71.4149
71.402
71.3872
71.3706
71.3526
71.3334
71.3132
71.2924
71.2715
71.251
71.2316
71.2142
71.1999
71.1901
71.1865
71.191
71.2059
71.234
71.2783
71.3424
71.43
71.5451
71.692
71.875
72.0982
72.3656
72.6804
73.0451
73.4612
73.9289
74.4471
75.0129
75.6224
76.2698
76.9482
77.6496
78.3652
79.0858
79.8021
80.5048
81.1853
81.8355
82.4486
83.0187
83.5414
84.0132
84.4323
84.7979
85.1103
85.3704
85.5801
85.7419
85.8586
85.933
85.9684
85.9681
85.935
85.8727
85.7838
85.6709
85.5366
85.3831
85.2127
85.0271
84.8282
84.6174
84.3963
84.166
83.9276
83.6822
83.4305
83.1734
82.9115
82.6453
82.3755
82.1024
81.8263
81.5478
81.2669
80.9839
80.6991
80.4125
80.1244
79.8347
79.5437
79.2513
78.9577
78.6628
78.3666
78.0692
77.7706
77.4708
77.1696
76.8672
76.5634
76.2584
75.9519
75.644
75.3346
75.0237
74.7113
74.3973
74.0816
73.7642
73.4451
73.1242
72.8015
72.4769
72.1503
71.8218
71.4913
71.1587
70.824
70.4872
70.1481
69.8068
69.4633
69.1174
68.7691
68.4185
68.0655
67.7099
67.3519
66.9913
66.6282
66.2624
65.894
65.5229
65.1491
64.7726
64.3932
64.0111
63.6261
63.2382
62.8474
62.4537
62.057
61.6573
61.2545
60.8487
60.4399
60.0279
59.6127
59.1944
58.773
58.3483
57.9203
57.4892
57.0547
56.617
56.176
55.7316
55.284
54.8331
54.3789
53.9215
53.4608
52.9971
52.5303
52.0606
51.5882
51.1133
50.6363
50.1576
49.6777
49.1977
48.7184
48.2415
47.7693
47.3049
46.8533
46.4213
46.0217
45.6668
45.3774
45.1145
71.2743
71.2721
71.2655
71.2561
71.2436
71.2284
71.2107
71.1907
71.1686
71.1446
71.1189
71.092
71.0641
71.0358
71.0079
70.9813
70.957
70.9365
70.9214
70.9138
70.9161
70.9311
70.962
71.0126
71.0868
71.189
71.3238
71.4961
71.7104
71.9709
72.2816
72.6453
73.0639
73.5378
74.066
74.6455
75.2721
75.9396
76.6404
77.3657
78.1062
78.8517
79.5925
80.3189
81.0217
81.6926
82.3245
82.9114
83.4487
83.9331
84.3629
84.7373
85.0569
85.3228
85.5373
85.7028
85.8224
85.8993
85.9367
85.938
85.9064
85.8454
85.7577
85.646
85.5127
85.3604
85.1909
85.0064
84.8084
84.5987
84.3785
84.1491
83.9116
83.667
83.4161
83.1597
82.8986
82.6331
82.364
82.0915
81.8161
81.5381
81.2578
80.9754
80.691
80.4049
80.1173
79.8281
79.5375
79.2455
78.9522
78.6576
78.3618
78.0647
77.7664
77.4668
77.166
76.8638
76.5603
76.2554
75.9491
75.6414
75.3323
75.0215
74.7093
74.3954
74.0799
73.7626
73.4436
73.1229
72.8003
72.4758
72.1493
71.8209
71.4904
71.1579
70.8233
70.4865
70.1475
69.8063
69.4627
69.1169
68.7687
68.4181
68.0651
67.7096
67.3516
66.991
66.6279
66.2622
65.8938
65.5227
65.1489
64.7724
64.3931
64.0109
63.6259
63.2381
62.8473
62.4536
62.0569
61.6572
61.2544
60.8486
60.4398
60.0278
59.6126
59.1943
58.7729
58.3482
57.9202
57.4891
57.0546
56.6169
56.1758
55.7315
55.2838
54.8329
54.3787
53.9212
53.4605
52.9967
52.5298
52.06
51.5874
51.1124
50.6351
50.1561
49.6758
49.1952
48.7151
48.2372
47.7635
47.2965
46.8415
46.4022
45.9902
45.6047
45.2632
44.9101
71.0012
70.9988
70.9915
70.981
70.9668
70.9495
70.9289
70.9053
70.8787
70.8493
70.8172
70.7826
70.7459
70.7075
70.668
70.6283
70.5893
70.5526
70.5198
70.493
70.4747
70.468
70.4764
70.5038
70.5547
70.6342
70.7475
70.9002
71.0978
71.3455
71.6481
72.0093
72.4314
72.9154
73.4599
74.062
74.7163
75.4159
76.1525
76.9161
77.6961
78.4817
79.2617
80.0257
80.764
81.4678
82.1296
82.7433
83.3039
83.8084
84.2551
84.6436
84.9746
85.2497
85.4716
85.643
85.7674
85.848
85.8885
85.8925
85.8634
85.8045
85.7188
85.6089
85.4774
85.3267
85.159
84.976
84.7796
84.5713
84.3525
84.1245
83.8884
83.645
83.3954
83.1402
82.8802
82.6158
82.3477
82.0762
81.8017
81.5245
81.245
80.9634
80.6798
80.3944
80.1074
79.8188
79.5288
79.2374
78.9446
78.6505
78.3552
78.0586
77.7606
77.4614
77.1609
76.8591
76.5559
76.2513
75.9453
75.6379
75.3289
75.0184
74.7064
74.3927
74.0773
73.7603
73.4415
73.1208
72.7984
72.474
72.1477
71.8194
71.489
71.1566
70.822
70.4853
70.1464
69.8053
69.4618
69.1161
68.7679
68.4174
68.0644
67.709
67.351
66.9905
66.6274
66.2617
65.8934
65.5223
65.1486
64.7721
64.3928
64.0106
63.6257
63.2378
62.847
62.4533
62.0566
61.657
61.2542
60.8484
60.4396
60.0276
59.6125
59.1942
58.7727
58.348
57.9201
57.4889
57.0544
56.6167
56.1756
55.7312
55.2836
54.8326
54.3783
53.9208
53.46
52.9961
52.5291
52.0591
51.5863
51.111
50.6334
50.1539
49.6731
49.1916
48.7105
48.2309
47.7551
47.2848
46.8246
46.3765
45.9484
45.5362
45.1455
44.7195
70.6235
70.621
70.6132
70.6017
70.586
70.5663
70.5425
70.5145
70.4824
70.446
70.4053
70.3605
70.3116
70.259
70.203
70.1445
70.0844
70.024
69.965
69.9096
69.8603
69.8205
69.7939
69.7852
69.7995
69.8428
69.9216
70.0426
70.2127
70.4388
70.7268
71.0819
71.5073
72.0044
72.5719
73.2066
73.9024
74.6513
75.4426
76.2643
77.1036
77.948
78.7855
79.6046
80.3947
81.1466
81.852
82.5045
83.0992
83.6328
84.1041
84.5128
84.8603
85.1487
85.3812
85.561
85.692
85.778
85.8231
85.8307
85.8051
85.7492
85.6662
85.5589
85.4299
85.2816
85.1161
84.9353
84.741
84.5348
84.318
84.0919
83.8575
83.6159
83.3679
83.1143
82.8558
82.5928
82.3261
82.0558
81.7826
81.5066
81.2282
80.9476
80.665
80.3806
80.0944
79.8067
79.5174
79.2268
78.9347
78.6413
78.3465
78.0505
77.7531
77.4544
77.1544
76.853
76.5502
76.246
75.9404
75.6333
75.3247
75.0145
74.7027
74.3893
74.0742
73.7574
73.4388
73.1183
72.796
72.4718
72.1457
71.8175
71.4873
71.155
70.8206
70.484
70.1452
69.8042
69.4608
69.1151
68.7671
68.4166
68.0637
67.7083
67.3504
66.9899
66.6269
66.2612
65.8929
65.5219
65.1482
64.7717
64.3924
64.0103
63.6254
63.2375
62.8468
62.4531
62.0564
61.6567
61.254
60.8483
60.4394
60.0274
59.6123
59.194
58.7725
58.3478
57.9199
57.4887
57.0542
56.6164
56.1754
55.731
55.2833
54.8322
54.3779
53.9203
53.4594
52.9953
52.5282
52.058
51.585
51.1093
50.6312
50.1511
49.6695
49.187
48.7045
48.223
47.7445
47.2701
46.8036
46.3455
45.901
45.4626
45.0296
44.5514
70.1472
70.1444
70.1355
70.1223
70.1039
70.0805
70.0517
70.0172
69.9768
69.9302
69.8772
69.8175
69.7511
69.6781
69.5987
69.5134
69.423
69.3285
69.2316
69.1343
69.0395
68.9507
68.8724
68.81
68.7695
68.758
68.7836
68.855
68.9814
69.1719
69.4348
69.7773
70.2044
70.719
71.3207
72.0053
72.7645
73.586
74.4556
75.3592
76.2823
77.2104
78.1293
79.0261
79.8892
80.7086
81.4752
82.1823
82.8247
83.3991
83.9045
84.3412
84.7115
85.0181
85.2648
85.4558
85.5957
85.689
85.7399
85.7526
85.7314
85.6795
85.6002
85.4963
85.3705
85.2253
85.0627
84.8848
84.6932
84.4895
84.2752
84.0515
83.8194
83.58
83.3341
83.0824
82.8258
82.5646
82.2995
82.0309
81.7592
81.4847
81.2077
80.9283
80.647
80.3637
80.0786
79.7919
79.5036
79.2138
78.9226
78.63
78.336
78.0407
77.7439
77.4459
77.1464
76.8456
76.5433
76.2396
75.9344
75.6277
75.3195
75.0097
74.6983
74.3852
74.0704
73.7538
73.4355
73.1153
72.7932
72.4692
72.1432
71.8153
71.4852
71.1531
70.8188
70.4824
70.1437
69.8028
69.4595
69.1139
68.766
68.4156
68.0628
67.7074
67.3496
66.9892
66.6262
66.2606
65.8924
65.5214
65.1477
64.7713
64.392
64.0099
63.625
63.2372
62.8465
62.4528
62.0562
61.6565
61.2538
60.848
60.4392
60.0272
59.6121
59.1938
58.7723
58.3476
57.9197
57.4885
57.054
56.6162
56.1751
55.7306
55.2829
54.8318
54.3774
53.9197
53.4587
52.9945
52.5271
52.0567
51.5833
51.1072
50.6286
50.1478
49.6653
49.1816
48.6974
48.2137
47.7319
47.2529
46.7793
46.3109
45.8498
45.3881
44.9197
44.4072
69.5774
69.5738
69.563
69.5464
69.5234
69.4936
69.4565
69.4117
69.3586
69.2967
69.2254
69.1441
69.0525
68.9503
68.8374
68.7138
68.5798
68.4363
68.2846
68.1271
67.9666
67.8072
67.6536
67.5117
67.3888
67.2937
67.237
67.2306
67.2873
67.4203
67.6421
67.9642
68.3947
68.9375
69.5907
70.3469
71.1941
72.1172
73.0998
74.1236
75.1689
76.2166
77.2495
78.2532
79.2152
80.1255
80.9751
81.7567
82.4645
83.0952
83.6477
84.1232
84.5244
84.8554
85.1211
85.3268
85.4781
85.5802
85.6385
85.6577
85.642
85.5951
85.5204
85.4208
85.299
85.1576
84.9987
84.8242
84.636
84.4355
84.2242
84.0034
83.774
83.5372
83.2938
83.0446
82.7902
82.5312
82.2681
82.0014
81.7315
81.4587
81.1833
80.9056
80.6256
80.3437
80.0599
79.7744
79.4873
79.1986
78.9084
78.6167
78.3236
78.0291
77.7332
77.4358
77.1371
76.8369
76.5352
76.2321
75.9274
75.6212
75.3135
75.0041
74.693
74.3803
74.0659
73.7496
73.4316
73.1117
72.7899
72.4662
72.1404
71.8127
71.4828
71.1509
70.8168
70.4805
70.142
69.8011
69.458
69.1126
68.7647
68.4144
68.0617
67.7065
67.3487
66.9884
66.6255
66.2599
65.8917
65.5208
65.1472
64.7708
64.3916
64.0095
63.6246
63.2368
62.8461
62.4525
62.0559
61.6562
61.2535
60.8478
60.4389
60.027
59.6119
59.1936
58.7721
58.3474
57.9194
57.4882
57.0537
56.6159
56.1748
55.7303
55.2825
54.8313
54.3768
53.919
53.4578
52.9934
52.5258
52.0551
51.5814
51.1048
50.6256
50.144
49.6605
49.1753
48.6893
48.203
47.7176
47.2337
46.7527
46.2739
45.797
45.3147
44.818
44.2795
68.9176
68.9126
68.8982
68.8762
68.8454
68.8055
68.7556
68.6952
68.6233
68.5388
68.4408
68.3283
68.2005
68.0565
67.8955
67.7168
67.5205
67.307
67.0776
66.8342
66.5794
66.3169
66.0515
65.7899
65.5414
65.3182
65.1354
65.0107
64.9633
65.013
65.1788
65.4761
65.9151
66.4995
67.227
68.0889
69.0713
70.156
71.3159
72.5205
73.7409
74.9524
76.1351
77.274
78.3584
79.38
80.332
81.2076
82.0004
82.7058
83.3221
83.8503
84.2937
84.6576
84.9485
85.1732
85.3388
85.4521
85.5195
85.5463
85.5372
85.4962
85.427
85.3325
85.2157
85.0789
84.9244
84.7541
84.5698
84.3731
84.1653
83.9479
83.7218
83.488
83.2475
83.001
82.7492
82.4927
82.232
81.9676
81.6998
81.429
81.1554
80.8794
80.6012
80.3208
80.0385
79.7544
79.4686
79.1811
78.8921
78.6015
78.3094
78.0159
77.7209
77.4244
77.1264
76.8269
76.526
76.2235
75.9194
75.6138
75.3066
74.9977
74.6871
74.3748
74.0608
73.7449
73.4272
73.1076
72.7861
72.4627
72.1372
71.8097
71.4801
71.1483
70.8144
70.4783
70.14
69.7993
69.4563
69.111
68.7633
68.4131
68.0605
67.7054
67.3477
66.9875
66.6246
66.2591
65.891
65.5201
65.1466
64.7702
64.391
64.009
63.6242
63.2364
62.8458
62.4521
62.0555
61.6559
61.2532
60.8475
60.4387
60.0267
59.6116
59.1933
58.7718
58.3471
57.9192
57.4879
57.0534
56.6156
56.1744
55.7299
55.282
54.8308
54.3762
53.9182
53.4569
52.9923
52.5245
52.0534
51.5793
51.1022
50.6223
50.1398
49.6551
49.1684
48.6803
48.1913
47.7021
47.2129
46.7245
46.2355
45.7442
45.2438
44.7244
44.1653
68.1717
68.1644
68.1446
68.1142
68.0717
68.0167
67.948
67.8644
67.7646
67.647
67.5103
67.3528
67.173
66.9689
66.7388
66.4815
66.1964
65.8833
65.5426
65.1749
64.7815
64.3651
63.9311
63.4892
63.0539
62.6447
62.2849
62.0001
61.8178
61.7655
61.8682
62.1456
62.6117
63.2754
64.1373
65.1861
66.397
67.7333
69.1508
70.6058
72.0595
73.4808
74.8471
76.1439
77.3634
78.5029
79.5619
80.5387
81.428
82.223
82.9191
83.5152
84.014
84.4212
84.7448
84.994
85.1778
85.3051
85.3834
85.4191
85.4175
85.3834
85.3204
85.232
85.1208
84.9894
84.84
84.6745
84.4948
84.3024
84.0988
83.8852
83.6628
83.4326
83.1954
82.952
82.7032
82.4495
82.1914
81.9295
81.664
81.3955
81.1241
80.8501
80.5737
80.2951
80.0145
79.732
79.4476
79.1615
78.8738
78.5845
78.2935
78.0011
77.707
77.4115
77.1144
76.8158
76.5156
76.2138
75.9105
75.6055
75.2988
74.9905
74.6805
74.3686
74.055
73.7396
73.4223
73.1031
72.7819
72.4588
72.1336
71.8064
71.477
71.1455
70.8118
70.4759
70.1377
69.7973
69.4544
69.1093
68.7617
68.4116
68.0591
67.7041
67.3466
66.9864
66.6237
66.2583
65.8902
65.5194
65.1459
64.7696
64.3905
64.0085
63.6237
63.236
62.8453
62.4517
62.0552
61.6556
61.2529
60.8472
60.4384
60.0264
59.6113
59.1931
58.7716
58.3469
57.9189
57.4877
57.0531
56.6152
56.174
55.7294
55.2815
54.8302
54.3755
53.9174
53.4559
52.9911
52.523
52.0516
51.577
51.0993
50.6186
50.1352
49.6492
49.1609
48.6706
48.1787
47.6855
47.1911
46.6953
46.1966
45.6924
45.1762
44.6385
44.063
67.3457
67.3347
67.3064
67.2633
67.2034
67.126
67.0293
66.9118
66.7715
66.6064
66.4142
66.1921
65.9371
65.6463
65.3171
64.9476
64.5357
64.0794
63.5761
63.0239
62.4228
61.7772
61.0978
60.4031
59.7182
59.0735
58.5022
58.0389
57.7173
57.5673
57.6177
57.8978
58.4327
59.2372
60.3091
61.6265
63.1456
64.8087
66.5618
68.3491
70.1161
71.8182
73.425
74.9202
76.299
77.5659
78.7297
79.7994
80.7785
81.6627
82.4449
83.1196
83.6852
84.1459
84.5104
84.7897
84.9959
85.1399
85.231
85.2768
85.284
85.2575
85.2016
85.1198
85.015
84.8897
84.746
84.586
84.4115
84.224
84.025
83.8158
83.5975
83.3711
83.1376
82.8978
82.6522
82.4016
82.1465
81.8874
81.6246
81.3585
81.0894
80.8176
80.5433
80.2667
79.988
79.7072
79.4245
79.1399
78.8536
78.5656
78.276
77.9847
77.6918
77.3973
77.1012
76.8035
76.5042
76.2032
75.9006
75.5963
75.2903
74.9826
74.6731
74.3618
74.0487
73.7338
73.4169
73.0981
72.7773
72.4545
72.1296
71.8027
71.4736
71.1424
70.8089
70.4733
70.1353
69.795
69.4524
69.1074
68.7599
68.41
68.0577
67.7028
67.3453
66.9853
66.6226
66.2573
65.8893
65.5186
65.1451
64.7689
64.3898
64.0079
63.6232
63.2355
62.8449
62.4513
62.0548
61.6552
61.2526
60.8469
60.4381
60.0261
59.611
59.1928
58.7713
58.3466
57.9186
57.4873
57.0528
56.6149
56.1736
55.729
55.281
54.8296
54.3747
53.9165
53.4549
52.9898
52.5214
52.0496
51.5745
51.0962
50.6148
50.1303
49.643
49.153
48.6604
48.1655
47.6684
47.1687
46.6659
46.1581
45.6423
45.1124
44.5596
43.971
66.4459
66.4291
66.3882
66.3265
66.2411
66.1309
65.9935
65.827
65.6283
65.3942
65.1206
64.8039
64.4398
64.0245
63.5536
63.0222
62.4244
61.754
61.0064
60.1807
59.2821
58.3246
57.3315
56.3357
55.3764
54.4941
53.7241
53.0966
52.6392
52.3843
52.3697
52.6386
53.2308
54.1695
55.4554
57.0644
58.9503
61.0469
63.2732
65.5398
67.761
69.8688
71.8196
73.5934
75.1882
76.6152
77.8956
79.0535
80.1086
81.0674
81.9272
82.6799
83.3177
83.8385
84.2495
84.5635
84.7953
84.9582
85.0636
85.121
85.1377
85.1198
85.0717
84.9972
84.8994
84.7806
84.6433
84.4893
84.3204
84.1383
83.9444
83.74
83.5262
83.3041
83.0747
82.8386
82.5967
82.3495
82.0976
81.8415
81.5816
81.3182
81.0517
80.7823
80.5103
80.2358
79.9591
79.6802
79.3993
79.1164
78.8317
78.5452
78.2569
77.9669
77.6752
77.3819
77.0868
76.7901
76.4917
76.1916
75.8898
75.5863
75.281
74.974
74.6651
74.3544
74.0419
73.7274
73.411
73.0926
72.7723
72.4498
72.1253
71.7987
71.47
71.139
70.8058
70.4704
70.1326
69.7926
69.4501
69.1053
68.758
68.4083
68.056
67.7013
67.344
66.984
66.6215
66.2563
65.8883
65.5177
65.1443
64.7681
64.3891
64.0073
63.6226
63.235
62.8444
62.4509
62.0543
61.6548
61.2522
60.8465
60.4377
60.0258
59.6107
59.1925
58.771
58.3463
57.9183
57.487
57.0524
56.6145
56.1732
55.7285
55.2804
54.8289
54.374
53.9156
53.4537
52.9884
52.5197
52.0475
51.5719
51.093
50.6107
50.1252
49.6365
49.1447
48.6499
48.152
47.6509
47.1461
46.6366
46.1204
45.5942
45.0526
44.4874
43.8881
65.4826
65.4564
65.3964
65.3068
65.1832
65.0246
64.8276
64.5886
64.303
63.9663
63.5736
63.1194
62.5975
61.9998
61.3169
60.5391
59.6585
58.6715
57.5808
56.396
55.1355
53.8281
52.5123
51.2325
50.0306
48.9379
47.9761
47.1643
46.5292
46.1128
45.9744
46.1832
46.8052
47.8897
49.4529
51.4688
53.8705
56.5584
59.4086
62.2911
65.0873
67.7035
70.0806
72.1959
74.0544
75.6769
77.0946
78.3454
79.4666
80.4838
81.4062
82.2265
82.9339
83.5136
83.9719
84.3216
84.5796
84.7622
84.8831
84.953
84.9803
84.9717
84.9321
84.8655
84.775
84.6633
84.5327
84.385
84.2223
84.0459
83.8575
83.6583
83.4494
83.232
83.0069
82.7749
82.5369
82.2934
82.045
81.7922
81.5353
81.2749
81.0111
80.7443
80.4748
80.2026
79.928
79.6511
79.3721
79.0911
78.808
78.5231
78.2364
77.9478
77.6574
77.3652
77.0714
76.7757
76.4783
76.1792
75.8783
75.5756
75.2711
74.9647
74.6565
74.3465
74.0345
73.7206
73.4047
73.0868
72.7668
72.4448
72.1207
71.7944
71.466
71.1353
70.8024
70.4673
70.1298
69.7899
69.4477
69.1031
68.756
68.4064
68.0543
67.6997
67.3425
66.9827
66.6202
66.2551
65.8873
65.5168
65.1435
64.7673
64.3884
64.0066
63.622
63.2344
62.8439
62.4504
62.0539
61.6544
61.2518
60.8461
60.4374
60.0255
59.6104
59.1922
58.7707
58.346
57.918
57.4867
57.0521
56.6141
56.1727
55.728
55.2798
54.8282
54.3732
53.9146
53.4526
52.987
52.518
52.0454
51.5693
51.0897
50.6065
50.1199
49.6299
49.1363
48.6392
48.1383
47.6333
47.1236
46.6079
46.084
45.5487
44.9968
44.4212
43.8133
64.4634
64.422
64.3332
64.2019
64.022
63.7912
63.5041
63.1558
62.7405
62.2518
61.6815
61.019
60.2521
59.3684
58.3581
57.2166
55.9457
54.5544
53.0598
51.4861
49.8646
48.2349
46.6392
45.117
43.6971
42.3956
41.2221
40.197
39.3657
38.8045
38.6132
38.8962
39.7413
41.1965
43.2573
45.8605
48.8979
52.2363
55.7291
59.2251
62.5836
65.6898
68.4708
70.9004
73.0014
74.8105
76.3629
77.7041
78.8855
79.95
80.9192
81.7928
82.5554
83.188
83.6891
84.0711
84.3534
84.555
84.6915
84.7746
84.8133
84.8147
84.7842
84.7259
84.6433
84.5389
84.4153
84.2743
84.1179
83.9477
83.765
83.5713
83.3676
83.1551
82.9347
82.7071
82.4732
82.2336
81.9889
81.7396
81.4861
81.2287
80.9679
80.7039
80.4369
80.1672
79.8949
79.6202
79.3432
79.0641
78.7829
78.4996
78.2144
77.9273
77.6384
77.3475
77.0549
76.7604
76.464
76.1659
75.8659
75.5641
75.2604
74.9548
74.6474
74.338
74.0266
73.7133
73.3979
73.0805
72.761
72.4395
72.1158
71.7899
71.4618
71.1314
70.7989
70.4639
70.1267
69.7871
69.4451
69.1007
68.7538
68.4044
68.0525
67.698
67.3409
66.9813
66.6189
66.2539
65.8862
65.5158
65.1425
64.7665
64.3876
64.0059
63.6213
63.2338
62.8433
62.4499
62.0534
61.6539
61.2514
60.8457
60.437
60.0251
59.6101
59.1918
58.7703
58.3456
57.9176
57.4863
57.0517
56.6137
56.1723
55.7275
55.2792
54.8275
54.3723
53.9136
53.4514
52.9856
52.5162
52.0432
51.5665
51.0863
50.6023
50.1146
49.6231
49.1278
48.6284
48.1246
47.616
47.1016
46.5801
46.0492
45.5058
44.9451
44.3608
43.7456
63.4022
63.3377
63.2048
63.0085
62.7404
62.3972
61.9713
61.456
60.8394
60.1084
59.2483
58.2471
57.0959
55.7907
54.3335
52.734
51.0084
49.1813
47.2851
45.3575
43.4361
41.557
39.7529
38.052
36.4751
35.0392
33.7677
32.705
31.9281
31.5378
31.6428
32.339
33.6901
35.7101
38.3605
41.5544
45.1689
49.0602
53.0693
57.0356
60.7977
64.2354
67.2811
69.916
72.1726
74.1012
75.7481
77.1585
78.3855
79.4846
80.4893
81.4033
82.208
82.8797
83.4127
83.8195
84.1215
84.3399
84.4912
84.5876
84.6383
84.6504
84.6294
84.5799
84.5054
84.4087
84.2922
84.1581
84.0082
83.8442
83.6676
83.4796
83.2814
83.074
82.8585
82.6356
82.406
82.1706
81.9298
81.6841
81.434
81.18
80.9222
80.6611
80.3969
80.1297
79.8599
79.5875
79.3127
79.0356
78.7563
78.4748
78.1913
77.9057
77.6182
77.3288
77.0374
76.7441
76.4489
76.1519
75.8529
75.552
75.2492
74.9444
74.6377
74.329
74.0183
73.7055
73.3908
73.0739
72.7549
72.4338
72.1105
71.785
71.4573
71.1273
70.7951
70.4604
70.1235
69.7841
69.4424
69.0982
68.7515
68.4023
68.0505
67.6962
67.3393
66.9798
66.6176
66.2527
65.8851
65.5147
65.1416
64.7656
64.3868
64.0052
63.6206
63.2331
62.8427
62.4493
62.0529
61.6535
61.2509
60.8453
60.4366
60.0248
59.6097
59.1915
58.77
58.3453
57.9173
57.486
57.0513
56.6133
56.1718
55.727
55.2787
54.8268
54.3715
53.9127
53.4502
52.9841
52.5144
52.041
51.5638
51.0829
50.5981
50.1093
49.6165
49.1194
48.6177
48.1112
47.599
47.0803
46.5535
46.0163
45.4657
44.8973
44.3057
43.6844
62.3043
62.2014
61.9954
61.6958
61.2906
60.7729
60.1263
59.3322
58.3689
57.2252
55.899
54.3962
52.7245
50.8948
48.9241
46.8403
44.6819
42.4925
40.3141
38.1814
36.1235
34.1696
32.3521
30.7086
29.2737
28.078
27.1549
26.5476
26.3137
26.5203
27.2428
28.538
30.4474
32.9725
36.0744
39.6594
43.6132
47.7897
52.0273
56.1646
60.0503
63.5749
66.6814
69.3637
71.6585
73.62
75.2977
76.7347
77.9829
79.1029
80.1339
81.0779
81.9097
82.6026
83.152
83.5728
83.8885
84.1206
84.2854
84.3948
84.4576
84.4805
84.4694
84.4287
84.3625
84.2735
84.1644
84.0373
83.894
83.7364
83.5659
83.3838
83.1912
82.9892
82.7788
82.5607
82.3357
82.1046
81.8678
81.626
81.3796
81.1289
80.8744
80.6163
80.355
80.0905
79.8232
79.5532
79.2807
79.0057
78.7283
78.4487
78.167
77.8831
77.5971
77.3091
77.0191
76.7271
76.4331
76.1371
75.8392
75.5392
75.2373
74.9334
74.6275
74.3195
74.0095
73.6974
73.3832
73.0669
72.7485
72.4278
72.105
71.7799
71.4526
71.123
70.791
70.4568
70.1201
69.781
69.4395
69.0955
68.749
68.4
68.0485
67.6943
67.3376
66.9782
66.6161
66.2513
65.8838
65.5136
65.1405
64.7647
64.386
64.0044
63.6199
63.2325
62.8421
62.4487
62.0524
61.653
61.2505
60.8449
60.4362
60.0244
59.6093
59.1911
58.7697
58.3449
57.9169
57.4856
57.0509
56.6128
56.1714
55.7264
55.278
54.8261
54.3707
53.9117
53.449
52.9827
52.5126
52.0388
51.5611
51.0795
50.5939
50.104
49.6099
49.1111
48.6074
48.0981
47.5827
47.0599
46.5282
45.9854
45.4285
44.8535
44.2556
43.6292
61.1479
60.9814
60.6528
60.1808
59.5431
58.7151
57.6575
56.3476
54.7823
52.991
51.0111
48.876
46.6151
44.2678
41.8812
39.5008
37.1679
34.9204
32.7941
30.8233
29.0434
27.4918
26.2055
25.2022
24.4976
24.0854
23.9616
24.1394
24.6387
25.5108
26.8115
28.5931
30.8872
33.6923
36.9678
40.6326
44.5791
48.6758
52.7755
56.7312
60.4192
63.7557
66.7015
69.26
71.4691
73.3773
75.0233
76.4415
77.6843
78.8139
79.8637
80.8253
81.6648
82.358
82.9069
83.331
83.6544
83.897
84.0737
84.1951
84.2693
84.3029
84.3015
84.2699
84.212
84.131
84.0295
83.9096
83.7733
83.6223
83.4582
83.2822
83.0956
82.8993
82.6942
82.4812
82.2611
82.0345
81.802
81.5643
81.3216
81.0746
80.8235
80.5687
80.3104
80.0488
79.7842
79.5167
79.2466
78.9738
78.6986
78.421
78.1411
77.859
77.5746
77.2882
76.9996
76.7089
76.4162
76.1214
75.8246
75.5257
75.2247
74.9217
74.6166
74.3095
74.0002
73.6888
73.3752
73.0595
72.7416
72.4215
72.0992
71.7745
71.4476
71.1184
70.7868
70.4528
70.1165
69.7777
69.4364
69.0927
68.7464
68.3977
68.0463
67.6923
67.3357
66.9765
66.6146
66.2499
65.8825
65.5124
65.1394
64.7637
64.385
64.0035
63.6191
63.2318
62.8414
62.4481
62.0518
61.6524
61.25
60.8445
60.4358
60.024
59.609
59.1908
58.7693
58.3446
57.9166
57.4852
57.0505
56.6124
56.1709
55.7259
55.2775
54.8255
54.3699
53.9107
53.4478
52.9813
52.5109
52.0366
51.5585
51.0762
50.5898
50.0989
49.6035
49.1031
48.5973
48.0856
47.5671
47.0406
46.5045
45.9567
45.3942
44.8135
44.2102
43.5795
59.965
59.6906
59.1449
58.3608
57.2857
55.8735
54.0918
51.9749
49.5955
47.0471
44.4216
41.8088
39.2787
36.8825
34.6472
32.5937
30.7428
29.1281
27.766
26.6745
25.8396
25.2626
24.9245
24.8165
24.9311
25.2642
25.8175
26.6022
27.6374
28.9579
30.6034
32.606
34.9815
37.7237
40.801
44.1542
47.6995
51.3345
54.9448
58.4148
61.6506
64.594
67.2221
69.5416
71.5799
73.3683
74.9309
76.2981
77.5216
78.6547
79.7122
80.6688
81.4888
82.1596
82.6931
83.1116
83.4369
83.686
83.8711
84.0016
84.085
84.1274
84.1345
84.1111
84.0611
83.9877
83.8937
83.781
83.6517
83.5074
83.3497
83.1798
82.9991
82.8084
82.6087
82.4008
82.1855
81.9634
81.7353
81.5016
81.2629
81.0195
80.7719
80.5203
80.265
80.0064
79.7445
79.4796
79.2119
78.9414
78.6683
78.3927
78.1147
77.8344
77.5517
77.2668
76.9797
76.6904
76.3989
76.1053
75.8096
75.5118
75.2118
74.9098
74.6055
74.2992
73.9906
73.6799
73.367
73.0519
72.7346
72.415
72.0932
71.769
71.4425
71.1137
70.7824
70.4488
70.1128
69.7743
69.4333
69.0898
68.7438
68.3952
68.0441
67.6903
67.3339
66.9748
66.613
66.2485
65.8812
65.5112
65.1383
64.7627
64.3841
64.0027
63.6183
63.231
62.8408
62.4475
62.0512
61.6519
61.2495
60.844
60.4354
60.0236
59.6086
59.1904
58.7689
58.3442
57.9162
57.4849
57.0501
56.612
56.1705
55.7254
55.2769
54.8248
54.3691
53.9098
53.4467
52.9799
52.5092
52.0346
51.5559
51.0731
50.5858
50.094
49.5974
49.0955
48.5878
48.0738
47.5524
47.0226
46.4825
45.9302
45.3629
44.7772
44.1693
43.5349
58.8396
58.4
57.4868
56.1416
54.3137
52.0293
49.3494
46.4156
43.3876
40.4408
37.727
35.3518
33.3554
31.734
30.445
29.44
28.682
28.1559
27.8393
27.7097
27.7498
27.942
28.2665
28.7139
29.2869
29.9968
30.859
31.8912
33.1127
34.5461
36.2144
38.1357
40.3196
42.7625
45.4427
48.318
51.3264
54.3921
57.43
60.3555
63.1026
65.6326
67.9311
70.0011
71.8558
73.509
74.9761
76.2887
77.4948
78.6251
79.6698
80.5939
81.373
82.0096
82.5219
82.9308
83.2539
83.5048
83.694
83.8298
83.919
83.9677
83.9814
83.9646
83.9213
83.8546
83.7671
83.661
83.5381
83.4
83.2482
83.0841
82.9087
82.7232
82.5284
82.3253
82.1144
81.8966
81.6725
81.4426
81.2074
80.9674
80.723
80.4745
80.2221
79.9661
79.7068
79.4444
79.1789
78.9106
78.6395
78.3658
78.0896
77.8109
77.5298
77.2464
76.9606
76.6726
76.3824
76.09
75.7953
75.4985
75.1995
74.8983
74.5949
74.2893
73.9814
73.6714
73.3591
73.0446
72.7278
72.4088
72.0874
71.7636
71.4375
71.1091
70.7782
70.4449