/*--------------------------------*- C++ -*----------------------------------*\
  =========                 |
  \\      /  F ield         | OpenFOAM: The Open Source CFD Toolbox
   \\    /   O peration     | Website:  https://openfoam.org
    \\  /    A nd           | Version:  10
     \\/     M anipulation  |
\*---------------------------------------------------------------------------*/
FoamFile
{
    format      ascii;
    class       volScalarField;
    location    "1.28";
    object      p;
}
// * * * * * * * * * * * * * * * * * * * * * * * * * * * * * * * * * * * * * //

dimensions      [1 -1 -2 0 0 0 0];

internalField   nonuniform List<scalar> 
12225
(
1.62233e+07
1.61666e+07
1.60651e+07
1.59312e+07
1.57755e+07
1.56061e+07
1.54286e+07
1.52468e+07
1.5063e+07
1.48785e+07
1.46938e+07
1.4509e+07
1.43236e+07
1.41363e+07
1.39454e+07
1.37472e+07
1.35349e+07
1.32908e+07
1.62256e+07
1.61687e+07
1.60668e+07
1.59325e+07
1.57765e+07
1.56069e+07
1.54293e+07
1.52474e+07
1.50636e+07
1.4879e+07
1.46944e+07
1.45098e+07
1.43245e+07
1.41376e+07
1.39473e+07
1.37503e+07
1.35412e+07
1.33092e+07
1.62307e+07
1.61732e+07
1.60706e+07
1.59355e+07
1.57789e+07
1.56088e+07
1.54308e+07
1.52487e+07
1.50648e+07
1.48803e+07
1.46958e+07
1.45114e+07
1.43266e+07
1.41404e+07
1.39513e+07
1.37569e+07
1.35534e+07
1.3337e+07
1.62391e+07
1.61808e+07
1.60768e+07
1.59405e+07
1.57827e+07
1.56118e+07
1.54333e+07
1.52508e+07
1.50668e+07
1.48823e+07
1.4698e+07
1.4514e+07
1.43299e+07
1.41449e+07
1.39578e+07
1.3767e+07
1.35707e+07
1.33695e+07
1.62516e+07
1.6192e+07
1.6086e+07
1.59477e+07
1.57883e+07
1.56162e+07
1.54368e+07
1.52539e+07
1.50696e+07
1.48852e+07
1.47013e+07
1.45179e+07
1.43348e+07
1.41514e+07
1.39669e+07
1.37805e+07
1.3592e+07
1.34043e+07
1.62691e+07
1.62075e+07
1.60988e+07
1.59577e+07
1.5796e+07
1.56222e+07
1.54417e+07
1.52581e+07
1.50735e+07
1.48892e+07
1.47056e+07
1.4523e+07
1.43412e+07
1.41598e+07
1.39785e+07
1.37971e+07
1.36165e+07
1.34402e+07
1.62926e+07
1.62282e+07
1.61156e+07
1.59708e+07
1.58061e+07
1.56299e+07
1.54479e+07
1.52634e+07
1.50785e+07
1.48942e+07
1.47112e+07
1.45296e+07
1.43494e+07
1.41704e+07
1.39926e+07
1.38165e+07
1.36434e+07
1.34766e+07
1.63233e+07
1.62552e+07
1.61374e+07
1.59875e+07
1.58187e+07
1.56397e+07
1.54557e+07
1.52701e+07
1.50847e+07
1.49005e+07
1.47181e+07
1.45377e+07
1.43593e+07
1.4183e+07
1.40091e+07
1.38383e+07
1.36721e+07
1.35132e+07
1.63631e+07
1.62897e+07
1.61648e+07
1.60083e+07
1.58344e+07
1.56516e+07
1.54652e+07
1.52782e+07
1.50922e+07
1.49081e+07
1.47264e+07
1.45473e+07
1.4371e+07
1.41977e+07
1.40277e+07
1.3862e+07
1.3702e+07
1.35499e+07
1.64142e+07
1.63334e+07
1.61988e+07
1.60337e+07
1.58531e+07
1.56657e+07
1.54764e+07
1.52876e+07
1.51009e+07
1.49169e+07
1.4736e+07
1.45585e+07
1.43844e+07
1.42141e+07
1.40482e+07
1.38874e+07
1.37329e+07
1.35865e+07
1.64794e+07
1.6388e+07
1.62403e+07
1.6064e+07
1.58751e+07
1.56821e+07
1.54892e+07
1.52984e+07
1.51109e+07
1.4927e+07
1.4747e+07
1.45711e+07
1.43994e+07
1.42323e+07
1.40702e+07
1.39139e+07
1.37645e+07
1.3623e+07
1.65559e+07
1.64502e+07
1.62861e+07
1.60964e+07
1.58981e+07
1.56989e+07
1.55022e+07
1.53094e+07
1.5121e+07
1.49372e+07
1.47581e+07
1.45838e+07
1.44144e+07
1.42501e+07
1.40915e+07
1.39391e+07
1.37937e+07
1.36561e+07
1.665e+07
1.6524e+07
1.63382e+07
1.61322e+07
1.59229e+07
1.57167e+07
1.55159e+07
1.53209e+07
1.51316e+07
1.4948e+07
1.47699e+07
1.45972e+07
1.443e+07
1.42686e+07
1.41132e+07
1.39644e+07
1.38227e+07
1.36886e+07
1.67889e+07
1.66264e+07
1.64065e+07
1.61768e+07
1.59528e+07
1.57378e+07
1.55319e+07
1.53342e+07
1.51441e+07
1.49608e+07
1.47839e+07
1.46132e+07
1.44487e+07
1.42904e+07
1.41385e+07
1.39935e+07
1.38555e+07
1.37249e+07
1.70043e+07
1.67684e+07
1.64923e+07
1.62291e+07
1.5986e+07
1.57604e+07
1.55488e+07
1.53486e+07
1.51577e+07
1.49751e+07
1.47998e+07
1.46316e+07
1.447e+07
1.43152e+07
1.41672e+07
1.4026e+07
1.38918e+07
1.37648e+07
1.73669e+07
1.69571e+07
1.6588e+07
1.62806e+07
1.6016e+07
1.57799e+07
1.55634e+07
1.53613e+07
1.51706e+07
1.49894e+07
1.48165e+07
1.46513e+07
1.44933e+07
1.43423e+07
1.41983e+07
1.40611e+07
1.39309e+07
1.38074e+07
1.80645e+07
1.71455e+07
1.66495e+07
1.63038e+07
1.6026e+07
1.57853e+07
1.5568e+07
1.53672e+07
1.51788e+07
1.50007e+07
1.48315e+07
1.46703e+07
1.45165e+07
1.43699e+07
1.42302e+07
1.40973e+07
1.3971e+07
1.38511e+07
1.72038e+07
1.68611e+07
1.65264e+07
1.62367e+07
1.59839e+07
1.57574e+07
1.55499e+07
1.53569e+07
1.51753e+07
1.50034e+07
1.48401e+07
1.46845e+07
1.45362e+07
1.43948e+07
1.426e+07
1.41317e+07
1.40096e+07
1.38936e+07
1.66215e+07
1.64804e+07
1.62864e+07
1.60806e+07
1.58784e+07
1.56841e+07
1.54988e+07
1.53219e+07
1.5153e+07
1.49915e+07
1.48371e+07
1.46894e+07
1.45481e+07
1.4413e+07
1.4284e+07
1.41608e+07
1.40434e+07
1.39315e+07
1.62869e+07
1.62059e+07
1.60769e+07
1.59241e+07
1.57618e+07
1.55971e+07
1.5434e+07
1.52742e+07
1.51189e+07
1.49684e+07
1.4823e+07
1.4683e+07
1.45484e+07
1.44191e+07
1.42952e+07
1.41765e+07
1.4063e+07
1.39546e+07
1.60951e+07
1.60368e+07
1.59376e+07
1.58132e+07
1.56749e+07
1.55296e+07
1.5382e+07
1.52346e+07
1.50892e+07
1.4947e+07
1.48085e+07
1.46742e+07
1.45445e+07
1.44194e+07
1.42992e+07
1.41837e+07
1.4073e+07
1.39669e+07
1.59678e+07
1.59207e+07
1.58381e+07
1.57309e+07
1.56083e+07
1.54765e+07
1.534e+07
1.52018e+07
1.50641e+07
1.49282e+07
1.4795e+07
1.46652e+07
1.45393e+07
1.44175e+07
1.43001e+07
1.4187e+07
1.40784e+07
1.39742e+07
1.58815e+07
1.58407e+07
1.57678e+07
1.56714e+07
1.55591e+07
1.54364e+07
1.53078e+07
1.51764e+07
1.50442e+07
1.49129e+07
1.47837e+07
1.46573e+07
1.45342e+07
1.44149e+07
1.42995e+07
1.41883e+07
1.40813e+07
1.39785e+07
1.58226e+07
1.57857e+07
1.57188e+07
1.56293e+07
1.55237e+07
1.54073e+07
1.52842e+07
1.51574e+07
1.50292e+07
1.49013e+07
1.47749e+07
1.46509e+07
1.45299e+07
1.44124e+07
1.42985e+07
1.41886e+07
1.40827e+07
1.39809e+07
1.57828e+07
1.57481e+07
1.56851e+07
1.56e+07
1.54989e+07
1.53867e+07
1.52673e+07
1.51437e+07
1.50183e+07
1.48927e+07
1.47684e+07
1.46461e+07
1.45265e+07
1.44102e+07
1.42975e+07
1.41885e+07
1.40834e+07
1.39823e+07
1.57563e+07
1.57231e+07
1.56624e+07
1.55802e+07
1.5482e+07
1.53726e+07
1.52556e+07
1.51342e+07
1.50107e+07
1.48867e+07
1.47637e+07
1.46426e+07
1.45241e+07
1.44086e+07
1.42966e+07
1.41883e+07
1.40837e+07
1.39831e+07
1.57392e+07
1.5707e+07
1.56478e+07
1.55674e+07
1.5471e+07
1.53633e+07
1.5248e+07
1.5128e+07
1.50056e+07
1.48827e+07
1.47606e+07
1.46402e+07
1.45223e+07
1.44075e+07
1.42959e+07
1.4188e+07
1.40839e+07
1.39835e+07
1.57289e+07
1.56972e+07
1.56389e+07
1.55595e+07
1.54643e+07
1.53576e+07
1.52432e+07
1.51241e+07
1.50025e+07
1.48802e+07
1.47586e+07
1.46387e+07
1.45212e+07
1.44067e+07
1.42955e+07
1.41878e+07
1.40839e+07
1.39837e+07
1.57233e+07
1.56919e+07
1.5634e+07
1.55553e+07
1.54606e+07
1.53545e+07
1.52407e+07
1.5122e+07
1.50008e+07
1.48788e+07
1.47575e+07
1.46379e+07
1.45206e+07
1.44063e+07
1.42952e+07
1.41877e+07
1.40839e+07
1.39838e+07
1.57211e+07
1.56897e+07
1.56321e+07
1.55535e+07
1.54591e+07
1.53533e+07
1.52396e+07
1.51211e+07
1.50001e+07
1.48783e+07
1.47571e+07
1.46376e+07
1.45204e+07
1.44061e+07
1.42951e+07
1.41876e+07
1.40838e+07
1.39838e+07
1.07385e+07
1.07385e+07
1.07384e+07
1.07382e+07
1.0738e+07
1.07378e+07
1.07375e+07
1.07371e+07
1.07367e+07
1.07362e+07
1.07357e+07
1.07351e+07
1.07345e+07
1.07338e+07
1.07331e+07
1.07323e+07
1.07314e+07
1.07305e+07
1.07296e+07
1.07286e+07
1.07275e+07
1.07264e+07
1.07253e+07
1.07241e+07
1.07229e+07
1.07216e+07
1.07203e+07
1.0719e+07
1.07176e+07
1.07162e+07
1.07148e+07
1.07133e+07
1.07118e+07
1.07103e+07
1.07087e+07
1.07071e+07
1.07055e+07
1.07039e+07
1.07023e+07
1.07006e+07
1.06989e+07
1.06972e+07
1.06954e+07
1.06937e+07
1.06919e+07
1.06901e+07
1.06883e+07
1.06865e+07
1.06846e+07
1.06828e+07
1.06809e+07
1.0679e+07
1.06771e+07
1.06751e+07
1.06732e+07
1.06712e+07
1.06692e+07
1.06672e+07
1.06652e+07
1.06632e+07
1.06611e+07
1.06591e+07
1.0657e+07
1.06549e+07
1.06528e+07
1.06506e+07
1.06485e+07
1.06463e+07
1.06441e+07
1.06419e+07
1.06397e+07
1.06375e+07
1.06352e+07
1.06329e+07
1.06306e+07
1.06283e+07
1.0626e+07
1.06236e+07
1.06213e+07
1.06189e+07
1.06165e+07
1.06141e+07
1.06116e+07
1.06092e+07
1.06067e+07
1.06042e+07
1.06017e+07
1.05991e+07
1.05966e+07
1.0594e+07
1.05914e+07
1.05888e+07
1.05861e+07
1.05835e+07
1.05808e+07
1.05781e+07
1.05754e+07
1.05726e+07
1.05699e+07
1.05671e+07
1.05643e+07
1.05614e+07
1.05586e+07
1.05557e+07
1.05528e+07
1.05499e+07
1.0547e+07
1.0544e+07
1.0541e+07
1.0538e+07
1.0535e+07
1.05319e+07
1.05288e+07
1.05257e+07
1.05226e+07
1.05194e+07
1.05163e+07
1.05131e+07
1.05098e+07
1.05066e+07
1.05033e+07
1.05e+07
1.04967e+07
1.04933e+07
1.04899e+07
1.04865e+07
1.04831e+07
1.04796e+07
1.04761e+07
1.04726e+07
1.04691e+07
1.04655e+07
1.04619e+07
1.04583e+07
1.04546e+07
1.04509e+07
1.04472e+07
1.04435e+07
1.04397e+07
1.04359e+07
1.04321e+07
1.04282e+07
1.04243e+07
1.04204e+07
1.04165e+07
1.04125e+07
1.04085e+07
1.04045e+07
1.04004e+07
1.03963e+07
1.03921e+07
1.0388e+07
1.03838e+07
1.03795e+07
1.03753e+07
1.0371e+07
1.03666e+07
1.03623e+07
1.03579e+07
1.03534e+07
1.0349e+07
1.03445e+07
1.03399e+07
1.03354e+07
1.03308e+07
1.03261e+07
1.03214e+07
1.03167e+07
1.0312e+07
1.03072e+07
1.03024e+07
1.02975e+07
1.02926e+07
1.02877e+07
1.02828e+07
1.02778e+07
1.02728e+07
1.02679e+07
1.02629e+07
1.02579e+07
1.07387e+07
1.07387e+07
1.07386e+07
1.07384e+07
1.07382e+07
1.0738e+07
1.07377e+07
1.07373e+07
1.07369e+07
1.07364e+07
1.07359e+07
1.07353e+07
1.07347e+07
1.0734e+07
1.07332e+07
1.07324e+07
1.07316e+07
1.07307e+07
1.07297e+07
1.07287e+07
1.07277e+07
1.07266e+07
1.07254e+07
1.07242e+07
1.0723e+07
1.07217e+07
1.07204e+07
1.07191e+07
1.07177e+07
1.07163e+07
1.07148e+07
1.07134e+07
1.07118e+07
1.07103e+07
1.07088e+07
1.07072e+07
1.07056e+07
1.07039e+07
1.07023e+07
1.07006e+07
1.06989e+07
1.06972e+07
1.06955e+07
1.06937e+07
1.06919e+07
1.06901e+07
1.06883e+07
1.06865e+07
1.06846e+07
1.06828e+07
1.06809e+07
1.0679e+07
1.06771e+07
1.06751e+07
1.06732e+07
1.06712e+07
1.06692e+07
1.06672e+07
1.06652e+07
1.06632e+07
1.06611e+07
1.06591e+07
1.0657e+07
1.06549e+07
1.06528e+07
1.06506e+07
1.06485e+07
1.06463e+07
1.06441e+07
1.06419e+07
1.06397e+07
1.06375e+07
1.06352e+07
1.06329e+07
1.06306e+07
1.06283e+07
1.0626e+07
1.06236e+07
1.06213e+07
1.06189e+07
1.06165e+07
1.06141e+07
1.06116e+07
1.06092e+07
1.06067e+07
1.06042e+07
1.06017e+07
1.05991e+07
1.05966e+07
1.0594e+07
1.05914e+07
1.05888e+07
1.05861e+07
1.05835e+07
1.05808e+07
1.05781e+07
1.05754e+07
1.05726e+07
1.05699e+07
1.05671e+07
1.05643e+07
1.05614e+07
1.05586e+07
1.05557e+07
1.05528e+07
1.05499e+07
1.0547e+07
1.0544e+07
1.0541e+07
1.0538e+07
1.0535e+07
1.05319e+07
1.05288e+07
1.05257e+07
1.05226e+07
1.05194e+07
1.05163e+07
1.05131e+07
1.05098e+07
1.05066e+07
1.05033e+07
1.05e+07
1.04967e+07
1.04933e+07
1.04899e+07
1.04865e+07
1.04831e+07
1.04796e+07
1.04761e+07
1.04726e+07
1.04691e+07
1.04655e+07
1.04619e+07
1.04583e+07
1.04546e+07
1.04509e+07
1.04472e+07
1.04435e+07
1.04397e+07
1.04359e+07
1.04321e+07
1.04282e+07
1.04243e+07
1.04204e+07
1.04165e+07
1.04125e+07
1.04085e+07
1.04044e+07
1.04004e+07
1.03963e+07
1.03921e+07
1.0388e+07
1.03838e+07
1.03795e+07
1.03753e+07
1.0371e+07
1.03666e+07
1.03623e+07
1.03579e+07
1.03534e+07
1.0349e+07
1.03445e+07
1.03399e+07
1.03354e+07
1.03307e+07
1.03261e+07
1.03214e+07
1.03167e+07
1.0312e+07
1.03072e+07
1.03024e+07
1.02975e+07
1.02926e+07
1.02877e+07
1.02828e+07
1.02778e+07
1.02728e+07
1.02678e+07
1.02629e+07
1.02579e+07
1.07392e+07
1.07391e+07
1.0739e+07
1.07389e+07
1.07387e+07
1.07384e+07
1.07381e+07
1.07377e+07
1.07373e+07
1.07368e+07
1.07363e+07
1.07357e+07
1.07351e+07
1.07343e+07
1.07336e+07
1.07328e+07
1.07319e+07
1.0731e+07
1.073e+07
1.0729e+07
1.07279e+07
1.07268e+07
1.07256e+07
1.07244e+07
1.07232e+07
1.07219e+07
1.07206e+07
1.07192e+07
1.07178e+07
1.07164e+07
1.07149e+07
1.07134e+07
1.07119e+07
1.07104e+07
1.07088e+07
1.07072e+07
1.07056e+07
1.0704e+07
1.07023e+07
1.07006e+07
1.06989e+07
1.06972e+07
1.06955e+07
1.06937e+07
1.06919e+07
1.06901e+07
1.06883e+07
1.06865e+07
1.06847e+07
1.06828e+07
1.06809e+07
1.0679e+07
1.06771e+07
1.06752e+07
1.06732e+07
1.06712e+07
1.06692e+07
1.06672e+07
1.06652e+07
1.06632e+07
1.06611e+07
1.06591e+07
1.0657e+07
1.06549e+07
1.06528e+07
1.06506e+07
1.06485e+07
1.06463e+07
1.06441e+07
1.06419e+07
1.06397e+07
1.06375e+07
1.06352e+07
1.06329e+07
1.06306e+07
1.06283e+07
1.0626e+07
1.06236e+07
1.06213e+07
1.06189e+07
1.06165e+07
1.06141e+07
1.06116e+07
1.06092e+07
1.06067e+07
1.06042e+07
1.06017e+07
1.05991e+07
1.05966e+07
1.0594e+07
1.05914e+07
1.05888e+07
1.05861e+07
1.05835e+07
1.05808e+07
1.05781e+07
1.05754e+07
1.05726e+07
1.05699e+07
1.05671e+07
1.05643e+07
1.05614e+07
1.05586e+07
1.05557e+07
1.05528e+07
1.05499e+07
1.0547e+07
1.0544e+07
1.0541e+07
1.0538e+07
1.0535e+07
1.05319e+07
1.05288e+07
1.05257e+07
1.05226e+07
1.05194e+07
1.05163e+07
1.05131e+07
1.05098e+07
1.05066e+07
1.05033e+07
1.05e+07
1.04967e+07
1.04933e+07
1.04899e+07
1.04865e+07
1.04831e+07
1.04796e+07
1.04761e+07
1.04726e+07
1.04691e+07
1.04655e+07
1.04619e+07
1.04583e+07
1.04546e+07
1.04509e+07
1.04472e+07
1.04435e+07
1.04397e+07
1.04359e+07
1.04321e+07
1.04282e+07
1.04243e+07
1.04204e+07
1.04165e+07
1.04125e+07
1.04085e+07
1.04044e+07
1.04004e+07
1.03963e+07
1.03921e+07
1.0388e+07
1.03838e+07
1.03795e+07
1.03753e+07
1.0371e+07
1.03666e+07
1.03623e+07
1.03579e+07
1.03534e+07
1.0349e+07
1.03445e+07
1.03399e+07
1.03354e+07
1.03307e+07
1.03261e+07
1.03214e+07
1.03167e+07
1.0312e+07
1.03072e+07
1.03024e+07
1.02975e+07
1.02926e+07
1.02877e+07
1.02828e+07
1.02778e+07
1.02728e+07
1.02678e+07
1.02628e+07
1.02578e+07
1.07399e+07
1.07398e+07
1.07397e+07
1.07395e+07
1.07393e+07
1.07391e+07
1.07387e+07
1.07384e+07
1.07379e+07
1.07374e+07
1.07369e+07
1.07363e+07
1.07356e+07
1.07349e+07
1.07341e+07
1.07333e+07
1.07324e+07
1.07314e+07
1.07304e+07
1.07294e+07
1.07283e+07
1.07271e+07
1.0726e+07
1.07247e+07
1.07235e+07
1.07221e+07
1.07208e+07
1.07194e+07
1.0718e+07
1.07166e+07
1.07151e+07
1.07136e+07
1.07121e+07
1.07105e+07
1.07089e+07
1.07073e+07
1.07057e+07
1.0704e+07
1.07024e+07
1.07007e+07
1.0699e+07
1.06973e+07
1.06955e+07
1.06938e+07
1.0692e+07
1.06902e+07
1.06884e+07
1.06865e+07
1.06847e+07
1.06828e+07
1.06809e+07
1.0679e+07
1.06771e+07
1.06752e+07
1.06732e+07
1.06712e+07
1.06693e+07
1.06673e+07
1.06652e+07
1.06632e+07
1.06611e+07
1.06591e+07
1.0657e+07
1.06549e+07
1.06528e+07
1.06506e+07
1.06485e+07
1.06463e+07
1.06441e+07
1.06419e+07
1.06397e+07
1.06375e+07
1.06352e+07
1.06329e+07
1.06306e+07
1.06283e+07
1.0626e+07
1.06236e+07
1.06213e+07
1.06189e+07
1.06165e+07
1.06141e+07
1.06116e+07
1.06092e+07
1.06067e+07
1.06042e+07
1.06017e+07
1.05991e+07
1.05966e+07
1.0594e+07
1.05914e+07
1.05888e+07
1.05861e+07
1.05835e+07
1.05808e+07
1.05781e+07
1.05754e+07
1.05726e+07
1.05699e+07
1.05671e+07
1.05643e+07
1.05614e+07
1.05586e+07
1.05557e+07
1.05528e+07
1.05499e+07
1.0547e+07
1.0544e+07
1.0541e+07
1.0538e+07
1.0535e+07
1.05319e+07
1.05288e+07
1.05257e+07
1.05226e+07
1.05194e+07
1.05163e+07
1.0513e+07
1.05098e+07
1.05066e+07
1.05033e+07
1.05e+07
1.04967e+07
1.04933e+07
1.04899e+07
1.04865e+07
1.04831e+07
1.04796e+07
1.04761e+07
1.04726e+07
1.04691e+07
1.04655e+07
1.04619e+07
1.04583e+07
1.04546e+07
1.04509e+07
1.04472e+07
1.04435e+07
1.04397e+07
1.04359e+07
1.04321e+07
1.04282e+07
1.04243e+07
1.04204e+07
1.04165e+07
1.04125e+07
1.04085e+07
1.04044e+07
1.04004e+07
1.03963e+07
1.03921e+07
1.0388e+07
1.03838e+07
1.03795e+07
1.03753e+07
1.0371e+07
1.03666e+07
1.03623e+07
1.03579e+07
1.03534e+07
1.0349e+07
1.03445e+07
1.03399e+07
1.03353e+07
1.03307e+07
1.03261e+07
1.03214e+07
1.03167e+07
1.0312e+07
1.03072e+07
1.03024e+07
1.02975e+07
1.02926e+07
1.02877e+07
1.02828e+07
1.02778e+07
1.02728e+07
1.02678e+07
1.02628e+07
1.02578e+07
1.07408e+07
1.07407e+07
1.07406e+07
1.07404e+07
1.07402e+07
1.07399e+07
1.07396e+07
1.07392e+07
1.07388e+07
1.07383e+07
1.07377e+07
1.07371e+07
1.07364e+07
1.07356e+07
1.07348e+07
1.07339e+07
1.0733e+07
1.0732e+07
1.0731e+07
1.07299e+07
1.07288e+07
1.07276e+07
1.07264e+07
1.07251e+07
1.07238e+07
1.07225e+07
1.07211e+07
1.07197e+07
1.07183e+07
1.07168e+07
1.07153e+07
1.07138e+07
1.07122e+07
1.07106e+07
1.0709e+07
1.07074e+07
1.07058e+07
1.07041e+07
1.07025e+07
1.07008e+07
1.0699e+07
1.06973e+07
1.06956e+07
1.06938e+07
1.0692e+07
1.06902e+07
1.06884e+07
1.06865e+07
1.06847e+07
1.06828e+07
1.06809e+07
1.0679e+07
1.06771e+07
1.06752e+07
1.06732e+07
1.06712e+07
1.06693e+07
1.06673e+07
1.06652e+07
1.06632e+07
1.06611e+07
1.06591e+07
1.0657e+07
1.06549e+07
1.06528e+07
1.06506e+07
1.06485e+07
1.06463e+07
1.06441e+07
1.06419e+07
1.06397e+07
1.06375e+07
1.06352e+07
1.06329e+07
1.06306e+07
1.06283e+07
1.0626e+07
1.06236e+07
1.06213e+07
1.06189e+07
1.06165e+07
1.06141e+07
1.06116e+07
1.06092e+07
1.06067e+07
1.06042e+07
1.06017e+07
1.05991e+07
1.05966e+07
1.0594e+07
1.05914e+07
1.05888e+07
1.05861e+07
1.05835e+07
1.05808e+07
1.05781e+07
1.05754e+07
1.05726e+07
1.05699e+07
1.05671e+07
1.05643e+07
1.05614e+07
1.05586e+07
1.05557e+07
1.05528e+07
1.05499e+07
1.0547e+07
1.0544e+07
1.0541e+07
1.0538e+07
1.0535e+07
1.05319e+07
1.05288e+07
1.05257e+07
1.05226e+07
1.05194e+07
1.05162e+07
1.0513e+07
1.05098e+07
1.05066e+07
1.05033e+07
1.05e+07
1.04967e+07
1.04933e+07
1.04899e+07
1.04865e+07
1.04831e+07
1.04796e+07
1.04761e+07
1.04726e+07
1.04691e+07
1.04655e+07
1.04619e+07
1.04583e+07
1.04546e+07
1.04509e+07
1.04472e+07
1.04435e+07
1.04397e+07
1.04359e+07
1.04321e+07
1.04282e+07
1.04243e+07
1.04204e+07
1.04165e+07
1.04125e+07
1.04085e+07
1.04044e+07
1.04004e+07
1.03963e+07
1.03921e+07
1.0388e+07
1.03838e+07
1.03795e+07
1.03753e+07
1.0371e+07
1.03666e+07
1.03623e+07
1.03579e+07
1.03534e+07
1.0349e+07
1.03445e+07
1.03399e+07
1.03353e+07
1.03307e+07
1.03261e+07
1.03214e+07
1.03167e+07
1.0312e+07
1.03072e+07
1.03024e+07
1.02975e+07
1.02926e+07
1.02877e+07
1.02828e+07
1.02778e+07
1.02728e+07
1.02678e+07
1.02627e+07
1.02577e+07
1.07419e+07
1.07418e+07
1.07417e+07
1.07415e+07
1.07413e+07
1.0741e+07
1.07407e+07
1.07403e+07
1.07399e+07
1.07393e+07
1.07387e+07
1.0738e+07
1.07373e+07
1.07365e+07
1.07357e+07
1.07348e+07
1.07338e+07
1.07328e+07
1.07317e+07
1.07306e+07
1.07294e+07
1.07282e+07
1.07269e+07
1.07256e+07
1.07243e+07
1.07229e+07
1.07215e+07
1.072e+07
1.07186e+07
1.07171e+07
1.07155e+07
1.0714e+07
1.07124e+07
1.07108e+07
1.07092e+07
1.07076e+07
1.07059e+07
1.07042e+07
1.07026e+07
1.07008e+07
1.06991e+07
1.06974e+07
1.06956e+07
1.06938e+07
1.06921e+07
1.06902e+07
1.06884e+07
1.06866e+07
1.06847e+07
1.06828e+07
1.0681e+07
1.0679e+07
1.06771e+07
1.06752e+07
1.06732e+07
1.06713e+07
1.06693e+07
1.06673e+07
1.06652e+07
1.06632e+07
1.06612e+07
1.06591e+07
1.0657e+07
1.06549e+07
1.06528e+07
1.06506e+07
1.06485e+07
1.06463e+07
1.06441e+07
1.06419e+07
1.06397e+07
1.06375e+07
1.06352e+07
1.06329e+07
1.06306e+07
1.06283e+07
1.0626e+07
1.06236e+07
1.06213e+07
1.06189e+07
1.06165e+07
1.06141e+07
1.06116e+07
1.06092e+07
1.06067e+07
1.06042e+07
1.06017e+07
1.05991e+07
1.05966e+07
1.0594e+07
1.05914e+07
1.05888e+07
1.05861e+07
1.05835e+07
1.05808e+07
1.05781e+07
1.05754e+07
1.05726e+07
1.05699e+07
1.05671e+07
1.05643e+07
1.05614e+07
1.05586e+07
1.05557e+07
1.05528e+07
1.05499e+07
1.05469e+07
1.0544e+07
1.0541e+07
1.0538e+07
1.0535e+07
1.05319e+07
1.05288e+07
1.05257e+07
1.05226e+07
1.05194e+07
1.05162e+07
1.0513e+07
1.05098e+07
1.05066e+07
1.05033e+07
1.05e+07
1.04966e+07
1.04933e+07
1.04899e+07
1.04865e+07
1.04831e+07
1.04796e+07
1.04761e+07
1.04726e+07
1.04691e+07
1.04655e+07
1.04619e+07
1.04583e+07
1.04546e+07
1.04509e+07
1.04472e+07
1.04435e+07
1.04397e+07
1.04359e+07
1.04321e+07
1.04282e+07
1.04243e+07
1.04204e+07
1.04165e+07
1.04125e+07
1.04085e+07
1.04044e+07
1.04004e+07
1.03963e+07
1.03921e+07
1.0388e+07
1.03838e+07
1.03795e+07
1.03753e+07
1.0371e+07
1.03666e+07
1.03623e+07
1.03579e+07
1.03534e+07
1.0349e+07
1.03445e+07
1.03399e+07
1.03353e+07
1.03307e+07
1.03261e+07
1.03214e+07
1.03167e+07
1.0312e+07
1.03072e+07
1.03024e+07
1.02975e+07
1.02926e+07
1.02877e+07
1.02827e+07
1.02778e+07
1.02728e+07
1.02677e+07
1.02627e+07
1.02576e+07
1.07442e+07
1.07439e+07
1.07435e+07
1.0743e+07
1.07427e+07
1.07422e+07
1.0742e+07
1.07417e+07
1.07413e+07
1.07407e+07
1.074e+07
1.07392e+07
1.07384e+07
1.07376e+07
1.07368e+07
1.07358e+07
1.07348e+07
1.07337e+07
1.07326e+07
1.07314e+07
1.07302e+07
1.07289e+07
1.07276e+07
1.07262e+07
1.07248e+07
1.07234e+07
1.07219e+07
1.07204e+07
1.07189e+07
1.07174e+07
1.07158e+07
1.07142e+07
1.07126e+07
1.0711e+07
1.07094e+07
1.07077e+07
1.0706e+07
1.07044e+07
1.07027e+07
1.07009e+07
1.06992e+07
1.06975e+07
1.06957e+07
1.06939e+07
1.06921e+07
1.06903e+07
1.06885e+07
1.06866e+07
1.06847e+07
1.06829e+07
1.0681e+07
1.06791e+07
1.06771e+07
1.06752e+07
1.06732e+07
1.06713e+07
1.06693e+07
1.06673e+07
1.06652e+07
1.06632e+07
1.06612e+07
1.06591e+07
1.0657e+07
1.06549e+07
1.06528e+07
1.06506e+07
1.06485e+07
1.06463e+07
1.06441e+07
1.06419e+07
1.06397e+07
1.06375e+07
1.06352e+07
1.06329e+07
1.06306e+07
1.06283e+07
1.0626e+07
1.06236e+07
1.06213e+07
1.06189e+07
1.06165e+07
1.06141e+07
1.06116e+07
1.06092e+07
1.06067e+07
1.06042e+07
1.06017e+07
1.05991e+07
1.05966e+07
1.0594e+07
1.05914e+07
1.05888e+07
1.05861e+07
1.05835e+07
1.05808e+07
1.05781e+07
1.05754e+07
1.05726e+07
1.05699e+07
1.05671e+07
1.05643e+07
1.05614e+07
1.05586e+07
1.05557e+07
1.05528e+07
1.05499e+07
1.05469e+07
1.0544e+07
1.0541e+07
1.0538e+07
1.0535e+07
1.05319e+07
1.05288e+07
1.05257e+07
1.05226e+07
1.05194e+07
1.05162e+07
1.0513e+07
1.05098e+07
1.05066e+07
1.05033e+07
1.05e+07
1.04966e+07
1.04933e+07
1.04899e+07
1.04865e+07
1.04831e+07
1.04796e+07
1.04761e+07
1.04726e+07
1.04691e+07
1.04655e+07
1.04619e+07
1.04583e+07
1.04546e+07
1.04509e+07
1.04472e+07
1.04435e+07
1.04397e+07
1.04359e+07
1.04321e+07
1.04282e+07
1.04243e+07
1.04204e+07
1.04165e+07
1.04125e+07
1.04085e+07
1.04044e+07
1.04004e+07
1.03963e+07
1.03921e+07
1.0388e+07
1.03838e+07
1.03795e+07
1.03753e+07
1.0371e+07
1.03666e+07
1.03623e+07
1.03579e+07
1.03534e+07
1.0349e+07
1.03444e+07
1.03399e+07
1.03353e+07
1.03307e+07
1.03261e+07
1.03214e+07
1.03167e+07
1.03119e+07
1.03072e+07
1.03023e+07
1.02975e+07
1.02926e+07
1.02877e+07
1.02827e+07
1.02777e+07
1.02727e+07
1.02677e+07
1.02626e+07
1.02575e+07
1.08318e+07
1.08307e+07
1.08287e+07
1.08259e+07
1.08125e+07
1.07955e+07
1.07665e+07
1.07494e+07
1.07446e+07
1.07425e+07
1.07412e+07
1.07403e+07
1.07395e+07
1.0739e+07
1.07382e+07
1.07371e+07
1.0736e+07
1.07348e+07
1.07336e+07
1.07323e+07
1.0731e+07
1.07297e+07
1.07283e+07
1.07269e+07
1.07254e+07
1.07239e+07
1.07224e+07
1.07208e+07
1.07193e+07
1.07177e+07
1.07161e+07
1.07145e+07
1.07129e+07
1.07112e+07
1.07096e+07
1.07079e+07
1.07062e+07
1.07045e+07
1.07028e+07
1.0701e+07
1.06993e+07
1.06975e+07
1.06958e+07
1.0694e+07
1.06922e+07
1.06903e+07
1.06885e+07
1.06866e+07
1.06848e+07
1.06829e+07
1.0681e+07
1.06791e+07
1.06772e+07
1.06752e+07
1.06733e+07
1.06713e+07
1.06693e+07
1.06673e+07
1.06653e+07
1.06632e+07
1.06612e+07
1.06591e+07
1.0657e+07
1.06549e+07
1.06528e+07
1.06506e+07
1.06485e+07
1.06463e+07
1.06441e+07
1.06419e+07
1.06397e+07
1.06375e+07
1.06352e+07
1.06329e+07
1.06306e+07
1.06283e+07
1.0626e+07
1.06236e+07
1.06213e+07
1.06189e+07
1.06165e+07
1.06141e+07
1.06116e+07
1.06092e+07
1.06067e+07
1.06042e+07
1.06017e+07
1.05991e+07
1.05966e+07
1.0594e+07
1.05914e+07
1.05888e+07
1.05861e+07
1.05835e+07
1.05808e+07
1.05781e+07
1.05754e+07
1.05726e+07
1.05699e+07
1.05671e+07
1.05643e+07
1.05614e+07
1.05586e+07
1.05557e+07
1.05528e+07
1.05499e+07
1.05469e+07
1.0544e+07
1.0541e+07
1.0538e+07
1.05349e+07
1.05319e+07
1.05288e+07
1.05257e+07
1.05226e+07
1.05194e+07
1.05162e+07
1.0513e+07
1.05098e+07
1.05066e+07
1.05033e+07
1.05e+07
1.04966e+07
1.04933e+07
1.04899e+07
1.04865e+07
1.04831e+07
1.04796e+07
1.04761e+07
1.04726e+07
1.04691e+07
1.04655e+07
1.04619e+07
1.04583e+07
1.04546e+07
1.04509e+07
1.04472e+07
1.04435e+07
1.04397e+07
1.04359e+07
1.04321e+07
1.04282e+07
1.04243e+07
1.04204e+07
1.04165e+07
1.04125e+07
1.04085e+07
1.04044e+07
1.04004e+07
1.03963e+07
1.03921e+07
1.0388e+07
1.03838e+07
1.03795e+07
1.03753e+07
1.0371e+07
1.03666e+07
1.03623e+07
1.03579e+07
1.03534e+07
1.03489e+07
1.03444e+07
1.03399e+07
1.03353e+07
1.03307e+07
1.03261e+07
1.03214e+07
1.03167e+07
1.03119e+07
1.03072e+07
1.03023e+07
1.02975e+07
1.02926e+07
1.02877e+07
1.02827e+07
1.02777e+07
1.02727e+07
1.02676e+07
1.02625e+07
1.02574e+07
1.0915e+07
1.09133e+07
1.091e+07
1.09047e+07
1.08968e+07
1.08868e+07
1.08759e+07
1.08684e+07
1.08673e+07
1.08756e+07
1.08683e+07
1.08458e+07
1.08047e+07
1.07482e+07
1.07413e+07
1.07388e+07
1.07371e+07
1.07358e+07
1.07347e+07
1.07334e+07
1.0732e+07
1.07306e+07
1.07291e+07
1.07276e+07
1.0726e+07
1.07245e+07
1.07229e+07
1.07213e+07
1.07197e+07
1.0718e+07
1.07164e+07
1.07148e+07
1.07131e+07
1.07114e+07
1.07097e+07
1.0708e+07
1.07063e+07
1.07046e+07
1.07029e+07
1.07011e+07
1.06994e+07
1.06976e+07
1.06958e+07
1.0694e+07
1.06922e+07
1.06904e+07
1.06885e+07
1.06867e+07
1.06848e+07
1.06829e+07
1.0681e+07
1.06791e+07
1.06772e+07
1.06752e+07
1.06733e+07
1.06713e+07
1.06693e+07
1.06673e+07
1.06653e+07
1.06632e+07
1.06612e+07
1.06591e+07
1.0657e+07
1.06549e+07
1.06528e+07
1.06506e+07
1.06485e+07
1.06463e+07
1.06441e+07
1.06419e+07
1.06397e+07
1.06375e+07
1.06352e+07
1.06329e+07
1.06306e+07
1.06283e+07
1.0626e+07
1.06236e+07
1.06213e+07
1.06189e+07
1.06165e+07
1.06141e+07
1.06116e+07
1.06091e+07
1.06067e+07
1.06042e+07
1.06016e+07
1.05991e+07
1.05966e+07
1.0594e+07
1.05914e+07
1.05888e+07
1.05861e+07
1.05835e+07
1.05808e+07
1.05781e+07
1.05754e+07
1.05726e+07
1.05698e+07
1.05671e+07
1.05643e+07
1.05614e+07
1.05586e+07
1.05557e+07
1.05528e+07
1.05499e+07
1.05469e+07
1.0544e+07
1.0541e+07
1.0538e+07
1.05349e+07
1.05319e+07
1.05288e+07
1.05257e+07
1.05226e+07
1.05194e+07
1.05162e+07
1.0513e+07
1.05098e+07
1.05066e+07
1.05033e+07
1.05e+07
1.04966e+07
1.04933e+07
1.04899e+07
1.04865e+07
1.04831e+07
1.04796e+07
1.04761e+07
1.04726e+07
1.04691e+07
1.04655e+07
1.04619e+07
1.04583e+07
1.04546e+07
1.04509e+07
1.04472e+07
1.04435e+07
1.04397e+07
1.04359e+07
1.04321e+07
1.04282e+07
1.04243e+07
1.04204e+07
1.04165e+07
1.04125e+07
1.04085e+07
1.04044e+07
1.04004e+07
1.03963e+07
1.03921e+07
1.03879e+07
1.03837e+07
1.03795e+07
1.03752e+07
1.03709e+07
1.03666e+07
1.03623e+07
1.03578e+07
1.03534e+07
1.03489e+07
1.03444e+07
1.03399e+07
1.03353e+07
1.03307e+07
1.03261e+07
1.03214e+07
1.03167e+07
1.03119e+07
1.03071e+07
1.03023e+07
1.02975e+07
1.02926e+07
1.02876e+07
1.02827e+07
1.02777e+07
1.02727e+07
1.02676e+07
1.02625e+07
1.02573e+07
1.09994e+07
1.09977e+07
1.09944e+07
1.09897e+07
1.09835e+07
1.0976e+07
1.09678e+07
1.09597e+07
1.09519e+07
1.09435e+07
1.09313e+07
1.09144e+07
1.08937e+07
1.08736e+07
1.08635e+07
1.08643e+07
1.08479e+07
1.08134e+07
1.07547e+07
1.07361e+07
1.07332e+07
1.07315e+07
1.073e+07
1.07284e+07
1.07267e+07
1.07251e+07
1.07234e+07
1.07217e+07
1.07201e+07
1.07184e+07
1.07167e+07
1.0715e+07
1.07133e+07
1.07116e+07
1.07099e+07
1.07082e+07
1.07065e+07
1.07048e+07
1.0703e+07
1.07012e+07
1.06995e+07
1.06977e+07
1.06959e+07
1.06941e+07
1.06923e+07
1.06904e+07
1.06886e+07
1.06867e+07
1.06848e+07
1.0683e+07
1.06811e+07
1.06791e+07
1.06772e+07
1.06752e+07
1.06733e+07
1.06713e+07
1.06693e+07
1.06673e+07
1.06653e+07
1.06632e+07
1.06612e+07
1.06591e+07
1.0657e+07
1.06549e+07
1.06528e+07
1.06506e+07
1.06485e+07
1.06463e+07
1.06441e+07
1.06419e+07
1.06397e+07
1.06375e+07
1.06352e+07
1.06329e+07
1.06306e+07
1.06283e+07
1.0626e+07
1.06236e+07
1.06213e+07
1.06189e+07
1.06165e+07
1.0614e+07
1.06116e+07
1.06091e+07
1.06067e+07
1.06042e+07
1.06016e+07
1.05991e+07
1.05966e+07
1.0594e+07
1.05914e+07
1.05888e+07
1.05861e+07
1.05835e+07
1.05808e+07
1.05781e+07
1.05754e+07
1.05726e+07
1.05698e+07
1.05671e+07
1.05643e+07
1.05614e+07
1.05586e+07
1.05557e+07
1.05528e+07
1.05499e+07
1.05469e+07
1.0544e+07
1.0541e+07
1.0538e+07
1.05349e+07
1.05319e+07
1.05288e+07
1.05257e+07
1.05226e+07
1.05194e+07
1.05162e+07
1.0513e+07
1.05098e+07
1.05065e+07
1.05033e+07
1.05e+07
1.04966e+07
1.04933e+07
1.04899e+07
1.04865e+07
1.04831e+07
1.04796e+07
1.04761e+07
1.04726e+07
1.0469e+07
1.04655e+07
1.04619e+07
1.04583e+07
1.04546e+07
1.04509e+07
1.04472e+07
1.04435e+07
1.04397e+07
1.04359e+07
1.04321e+07
1.04282e+07
1.04243e+07
1.04204e+07
1.04165e+07
1.04125e+07
1.04085e+07
1.04044e+07
1.04004e+07
1.03963e+07
1.03921e+07
1.03879e+07
1.03837e+07
1.03795e+07
1.03752e+07
1.03709e+07
1.03666e+07
1.03622e+07
1.03578e+07
1.03534e+07
1.03489e+07
1.03444e+07
1.03399e+07
1.03353e+07
1.03307e+07
1.03261e+07
1.03214e+07
1.03167e+07
1.03119e+07
1.03071e+07
1.03023e+07
1.02975e+07
1.02926e+07
1.02876e+07
1.02827e+07
1.02777e+07
1.02726e+07
1.02675e+07
1.02624e+07
1.02573e+07
1.10873e+07
1.10855e+07
1.10823e+07
1.10778e+07
1.10719e+07
1.10648e+07
1.10565e+07
1.10472e+07
1.10369e+07
1.10253e+07
1.10118e+07
1.09964e+07
1.09796e+07
1.09626e+07
1.09465e+07
1.09304e+07
1.09107e+07
1.08866e+07
1.08603e+07
1.08406e+07
1.08284e+07
1.07973e+07
1.0743e+07
1.07297e+07
1.07274e+07
1.07257e+07
1.07239e+07
1.07222e+07
1.07204e+07
1.07187e+07
1.0717e+07
1.07153e+07
1.07136e+07
1.07118e+07
1.07101e+07
1.07084e+07
1.07066e+07
1.07049e+07
1.07031e+07
1.07013e+07
1.06996e+07
1.06978e+07
1.0696e+07
1.06942e+07
1.06923e+07
1.06905e+07
1.06886e+07
1.06868e+07
1.06849e+07
1.0683e+07
1.06811e+07
1.06792e+07
1.06772e+07
1.06753e+07
1.06733e+07
1.06713e+07
1.06693e+07
1.06673e+07
1.06653e+07
1.06632e+07
1.06612e+07
1.06591e+07
1.0657e+07
1.06549e+07
1.06528e+07
1.06506e+07
1.06485e+07
1.06463e+07
1.06441e+07
1.06419e+07
1.06397e+07
1.06375e+07
1.06352e+07
1.06329e+07
1.06306e+07
1.06283e+07
1.0626e+07
1.06236e+07
1.06213e+07
1.06189e+07
1.06165e+07
1.0614e+07
1.06116e+07
1.06091e+07
1.06067e+07
1.06042e+07
1.06016e+07
1.05991e+07
1.05965e+07
1.0594e+07
1.05914e+07
1.05888e+07
1.05861e+07
1.05835e+07
1.05808e+07
1.05781e+07
1.05754e+07
1.05726e+07
1.05698e+07
1.05671e+07
1.05642e+07
1.05614e+07
1.05586e+07
1.05557e+07
1.05528e+07
1.05499e+07
1.05469e+07
1.0544e+07
1.0541e+07
1.0538e+07
1.05349e+07
1.05319e+07
1.05288e+07
1.05257e+07
1.05226e+07
1.05194e+07
1.05162e+07
1.0513e+07
1.05098e+07
1.05065e+07
1.05033e+07
1.05e+07
1.04966e+07
1.04933e+07
1.04899e+07
1.04865e+07
1.04831e+07