/*--------------------------------*- C++ -*----------------------------------*\
  =========                 |
  \\      /  F ield         | OpenFOAM: The Open Source CFD Toolbox
   \\    /   O peration     | Website:  https://openfoam.org
    \\  /    A nd           | Version:  10
     \\/     M anipulation  |
\*---------------------------------------------------------------------------*/
FoamFile
{
    format      ascii;
    class       surfaceScalarField;
    location    "1.28";
    object      phi;
}
// * * * * * * * * * * * * * * * * * * * * * * * * * * * * * * * * * * * * * //

dimensions      [0 3 -1 0 0 0 0];

internalField   nonuniform List<scalar> 
24170
(
1.42652e-09
-1.42652e-09
2.64855e-09
-1.22203e-09
3.61764e-09
-9.69094e-10
4.35242e-09
-7.3478e-10
4.90055e-09
-5.48124e-10
5.31346e-09
-4.12914e-10
5.63554e-09
-3.22081e-10
5.9018e-09
-2.66262e-10
6.13933e-09
-2.3753e-10
6.36993e-09
-2.30593e-10
6.61304e-09
-2.4311e-10
6.88915e-09
-2.76116e-10
7.22457e-09
-3.3542e-10
7.66028e-09
-4.35706e-10
8.27317e-09
-6.12888e-10
9.24131e-09
-9.68141e-10
1.11163e-08
-1.87495e-09
-5.34579e-09
1.6462e-08
1.62608e-09
-3.0526e-09
3.0128e-09
-2.60875e-09
4.10543e-09
-2.06173e-09
4.92778e-09
-1.55713e-09
5.53649e-09
-1.15683e-09
5.99157e-09
-8.6799e-10
6.34414e-09
-6.74652e-10
6.63414e-09
-5.56264e-10
6.89218e-09
-4.95567e-10
7.14263e-09
-4.81042e-10
7.40699e-09
-5.0747e-10
7.70755e-09
-5.76679e-10
8.07232e-09
-7.0019e-10
8.54352e-09
-9.06905e-10
9.19563e-09
-1.265e-09
1.01782e-08
-1.95067e-09
1.17965e-08
-3.49328e-09
-7.67616e-09
1.41269e-08
1.82355e-09
-4.87615e-09
3.36928e-09
-4.15448e-09
4.57697e-09
-3.26942e-09
5.47765e-09
-2.45781e-09
6.13837e-09
-1.81755e-09
6.62824e-09
-1.35786e-09
7.0051e-09
-1.05151e-09
7.31345e-09
-8.64621e-10
7.58698e-09
-7.69089e-10
7.85207e-09
-7.4614e-10
8.13156e-09
-7.86959e-10
8.44838e-09
-8.93496e-10
8.83002e-09
-1.08183e-09
9.31492e-09
-1.39181e-09
9.96218e-09
-1.91226e-09
1.08588e-08
-2.84725e-09
1.20494e-08
-4.68394e-09
-8.47283e-09
1.28461e-08
2.04287e-09
-6.91902e-09
3.75997e-09
-5.87158e-09
5.08613e-09
-4.59558e-09
6.06323e-09
-3.4349e-09
6.77187e-09
-2.52619e-09
7.292e-09
-1.878e-09
7.68886e-09
-1.44836e-09
8.01164e-09
-1.18741e-09
8.29687e-09
-1.05431e-09
8.57256e-09
-1.02183e-09
8.86217e-09
-1.07657e-09
9.18813e-09
-1.21945e-09
9.57521e-09
-1.46892e-09
1.00537e-08
-1.87029e-09
1.0659e-08
-2.51756e-09
1.14101e-08
-3.59834e-09
1.21861e-08
-5.45998e-09
-8.5421e-09
1.22554e-08
2.29786e-09
-9.21688e-09
4.20696e-09
-7.78068e-09
5.65825e-09
-6.04687e-09
6.71025e-09
-4.48691e-09
7.46186e-09
-3.27779e-09
8.00649e-09
-2.42263e-09
8.41783e-09
-1.85971e-09
8.74999e-09
-1.51956e-09
9.0421e-09
-1.34642e-09
9.32329e-09
-1.30303e-09
9.6169e-09
-1.37018e-09
9.9436e-09
-1.54615e-09
1.03235e-08
-1.84879e-09
1.07755e-08
-2.32232e-09
1.13092e-08
-3.05121e-09
1.18894e-08
-4.17857e-09
1.2328e-08
-5.89864e-09
-8.28569e-09
1.20716e-08
2.60372e-09
-1.18206e-08
4.73287e-09
-9.90983e-09
6.31709e-09
-7.63109e-09
7.4406e-09
-5.61042e-09
8.2275e-09
-4.06469e-09
8.78824e-09
-2.98337e-09
9.2063e-09
-2.27777e-09
9.54087e-09
-1.85413e-09
9.83336e-09
-1.63891e-09
1.01134e-08
-1.58309e-09
1.04034e-08
-1.66014e-09
1.0721e-08
-1.86377e-09
1.10801e-08
-2.20789e-09
1.14873e-08
-2.7295e-09
1.19292e-08
-3.4931e-09
1.23384e-08
-4.58784e-09
1.25261e-08
-6.08626e-09
-7.89391e-09
1.21343e-08
2.98091e-09
-1.48015e-08
5.36648e-09
-1.22954e-08
7.09091e-09
-9.35552e-09
8.27848e-09
-6.79799e-09
9.08841e-09
-4.87463e-09
9.65288e-09
-3.54784e-09
1.00667e-08
-2.69157e-09
1.03941e-08
-2.1816e-09
1.06784e-08
-1.92319e-09
1.09489e-08
-1.85354e-09
1.12259e-08
-1.93719e-09
1.15234e-08
-2.16125e-09
1.18482e-08
-2.53266e-09
1.21952e-08
-3.07654e-09
1.25349e-08
-3.8328e-09
1.27883e-08
-4.84124e-09
1.27984e-08
-6.09634e-09
-7.45282e-09
1.23573e-08
3.45923e-09
-1.82607e-08
6.14744e-09
-1.49836e-08
8.01631e-09
-1.12244e-08
9.2533e-09
-8.03497e-09
1.0067e-08
-5.68832e-09
1.06172e-08
-4.09801e-09
1.10115e-08
-3.08586e-09
1.13191e-08
-2.48919e-09
1.1584e-08
-2.18811e-09
1.18343e-08
-2.1039e-09
1.20877e-08
-2.19053e-09
1.23532e-08
-2.42681e-09
1.2631e-08
-2.81038e-09
1.29066e-08
-3.3522e-09
1.31419e-08
-4.0681e-09
1.32613e-08
-4.96058e-09
1.3149e-08
-5.98404e-09
-6.99923e-09
1.26954e-08
4.0844e-09
-2.23451e-08
7.13282e-09
-1.8032e-08
9.14254e-09
-1.32341e-08
1.04022e-08
-9.29461e-09
1.11898e-08
-6.47596e-09
1.16999e-08
-4.60806e-09
1.20538e-08
-3.43984e-09
1.23248e-08
-2.76019e-09
1.25564e-08
-2.41966e-09
1.27741e-08
-2.32156e-09
1.29916e-08
-2.40805e-09
1.32132e-08
-2.64843e-09
1.34327e-08
-3.02993e-09
1.36299e-08
-3.54939e-09
1.37645e-08
-4.20266e-09
1.37725e-08
-4.96859e-09
1.35762e-08
-5.78776e-09
-6.54745e-09
1.31244e-08
4.92978e-09
-2.72749e-08
8.40731e-09
-2.15096e-08
1.05372e-08
-1.5364e-08
1.17724e-08
-1.05298e-08
1.24885e-08
-7.1921e-09
1.2922e-08
-5.04149e-09
1.32078e-08
-3.72567e-09
1.34208e-08
-2.97319e-09
1.36018e-08
-2.60063e-09
1.37721e-08
-2.49186e-09
1.39407e-08
-2.57663e-09
1.41066e-08
-2.81439e-09
1.42589e-08
-3.18221e-09
1.43742e-08
-3.66471e-09
1.44151e-08
-4.24354e-09
1.43322e-08
-4.88567e-09
1.40774e-08
-5.53294e-09
-6.10176e-09
1.36317e-08
6.11871e-09
-3.33936e-08
1.00999e-08
-2.54908e-08
1.22937e-08
-1.75578e-08
1.34238e-08
-1.16599e-08
1.4e-08
-7.76835e-09
1.43062e-08
-5.34769e-09
1.44875e-08
-3.90696e-09
1.46158e-08
-3.10149e-09
1.47257e-08
-2.71058e-09
1.48322e-08
-2.59831e-09
1.49381e-08
-2.68255e-09
1.50375e-08
-2.91373e-09
1.51155e-08
-3.26026e-09
1.51484e-08
-3.69762e-09
1.5104e-08
-4.19918e-09
1.49469e-08
-4.72854e-09
1.46497e-08
-5.23578e-09
-5.6621e-09
1.42101e-08
6.53058e-09
-3.99242e-08
1.03318e-08
-2.9292e-08
1.21369e-08
-1.93629e-08
1.29052e-08
-1.24282e-08
1.32052e-08
-8.06829e-09
1.33116e-08
-5.45415e-09
1.33474e-08
-3.9427e-09
1.33647e-08
-3.1188e-09
1.33838e-08
-2.72974e-09
1.341e-08
-2.62444e-09
1.34398e-08
-2.71238e-09
1.34641e-08
-2.93801e-09
1.34682e-08
-3.2644e-09
1.34328e-08
-3.66218e-09
1.33353e-08
-4.10162e-09
1.31543e-08
-4.5476e-09
1.28773e-08
-4.95881e-09
-5.29292e-09
1.25082e-08
9.70708e-09
-4.96313e-08
1.45286e-08
-3.41135e-08
1.63421e-08
-2.11765e-08
1.68463e-08
-1.29324e-08
1.68715e-08
-8.09344e-09
1.67555e-08
-5.33815e-09
1.66227e-08
-3.80991e-09
1.65128e-08
-3.00895e-09
1.64331e-08
-2.65003e-09
1.63778e-08
-2.56914e-09
1.63352e-08
-2.66979e-09
1.62898e-08
-2.89258e-09
1.62228e-08
-3.19742e-09
1.61133e-08
-3.55269e-09
1.59404e-08
-3.92872e-09
1.56875e-08
-4.29466e-09
1.53476e-08
-4.61896e-09
-4.87329e-09
1.4928e-08
1.56731e-08
-6.53044e-08
2.14484e-08
-3.98888e-08
2.26315e-08
-2.23595e-08
2.23508e-08
-1.26518e-08
2.17586e-08
-7.50123e-09
2.12021e-08
-4.78164e-09
2.07584e-08
-3.36623e-09
2.04238e-08
-2.67435e-09
2.01742e-08
-2.40036e-09
1.99824e-08
-2.37732e-09
1.98224e-08
-2.50979e-09
1.96693e-08
-2.73956e-09
1.94994e-08
-3.02749e-09
1.92902e-08
-3.34352e-09
1.9023e-08
-3.66147e-09
1.86853e-08
-3.95701e-09
1.82747e-08
-4.20829e-09
-4.39818e-09
1.77995e-08
2.86703e-08
-9.39746e-08
3.37204e-08
-4.49389e-08
3.23371e-08
-2.09763e-08
3.01161e-08
-1.04307e-08
2.82729e-08
-5.65802e-09
2.69182e-08
-3.42694e-09
2.59483e-08
-2.39633e-09
2.52493e-08
-1.97535e-09
2.47322e-08
-1.8833e-09
2.43314e-08
-1.97651e-09
2.39975e-08
-2.17585e-09
2.36918e-08
-2.43387e-09
2.33833e-08
-2.71902e-09
2.30475e-08
-3.00772e-09
2.26667e-08
-3.28071e-09
2.22315e-08
-3.52179e-09
2.17413e-08
-3.71811e-09
-3.86109e-09
2.12043e-08
6.32659e-08
-1.57241e-07
5.67875e-08
-3.84604e-08
4.72498e-08
-1.14386e-08
4.07861e-08
-3.96704e-09
3.66992e-08
-1.5711e-09
3.40679e-08
-7.95604e-10
3.23113e-08
-6.39743e-10
3.10894e-08
-7.53506e-10
3.01991e-08
-9.92942e-10
2.95129e-08
-1.2903e-09
2.89469e-08
-1.60987e-09
2.84433e-08
-1.93024e-09
2.79612e-08
-2.23694e-09
2.74724e-08
-2.51892e-09
2.6959e-08
-2.7673e-09
2.64124e-08
-2.97515e-09
2.58321e-08
-3.13784e-09
-3.25331e-09
2.52243e-08
1.83361e-07
1.59142e-07
9.7268e-08
4.76327e-08
6.70341e-08
1.87953e-08
5.36678e-08
9.39926e-09
4.66439e-08
5.45278e-09
4.24863e-08
3.36201e-09
3.98095e-08
2.03709e-09
3.79688e-08
1.08723e-09
3.66263e-08
3.49495e-10
3.55856e-08
-2.49629e-10
3.47256e-08
-7.49804e-10
3.39714e-08
-1.17611e-09
3.3274e-08
-1.53948e-09
3.2601e-08
-1.846e-09
3.19331e-08
-2.09937e-09
3.12602e-08
-2.30228e-09
3.05798e-08
-2.45743e-09
-2.56799e-09
2.98945e-08
7.72644e-08
8.1878e-08
7.55296e-08
4.93675e-08
6.55525e-08
2.87724e-08
5.75938e-08
1.73579e-08
5.21214e-08
1.09252e-08
4.83969e-08
7.08652e-09
4.5795e-08
4.63898e-09
4.39048e-08
2.9775e-09
4.24669e-08
1.78738e-09
4.13197e-08
8.97563e-10
4.03594e-08
2.1048e-10
3.95085e-08
-3.25144e-10
3.87191e-08
-7.50118e-10
3.79639e-08
-1.09077e-09
3.72263e-08
-1.36181e-09
3.6498e-08
-1.57393e-09
3.5776e-08
-1.73543e-09
-1.85325e-09
3.50612e-08
3.59863e-08
4.58917e-08
5.01823e-08
3.51715e-08
5.38921e-08
2.50626e-08
5.3746e-08
1.75039e-08
5.24551e-08
1.22161e-08
5.09865e-08
8.55513e-09
4.96362e-08
5.98934e-09
4.84607e-08
4.15293e-09
4.74403e-08
2.80783e-09
4.65369e-08
1.80095e-09
4.57142e-08
1.0332e-09
4.49494e-08
4.39604e-10
4.42227e-08
-2.34135e-11
4.35127e-08
-3.8076e-10
4.28118e-08
-6.60911e-10
4.21167e-08
-8.78764e-10
4.14269e-08
-1.04568e-09
-1.17061e-09
4.07443e-08
1.43378e-08
3.15539e-08
2.33276e-08
2.61817e-08
2.81374e-08
2.02528e-08
3.04917e-08
1.51496e-08
3.15455e-08
1.11623e-08
3.19373e-08
8.16329e-09
3.19948e-08
5.93184e-09
3.18803e-08
4.26743e-09
3.16729e-08
3.01521e-09
3.1411e-08
2.06287e-09
3.11133e-08
1.33091e-09
3.07896e-08
7.63322e-10
3.04457e-08
3.20463e-10
3.00906e-08
-2.57148e-11
2.97223e-08
-2.92563e-10
2.93442e-08
-5.00655e-10
2.89598e-08
-6.61303e-10
-7.83338e-10
2.85725e-08
8.58484e-09
2.2969e-08
1.49784e-08
1.97881e-08
1.92193e-08
1.6012e-08
2.18808e-08
1.24882e-08
2.35073e-08
9.5358e-09
2.44836e-08
7.18704e-09
2.50532e-08
5.36218e-09
2.53642e-08
3.95645e-09
2.55054e-08
2.87405e-09
2.55307e-08
2.03754e-09
2.54739e-08
1.38772e-09
2.53568e-08
8.80369e-10
2.51945e-08
4.82743e-10
2.49983e-08
1.7056e-10
2.4779e-08
-7.32748e-11
2.45402e-08
-2.6191e-10
2.42874e-08
-4.08508e-10
-5.21096e-10
2.40252e-08
5.78854e-09
1.71805e-08
1.04724e-08
1.51042e-08
1.39336e-08
1.25508e-08
1.63708e-08
1.0051e-08
1.80462e-08
7.8604e-09
1.91832e-08
6.05013e-09
1.99455e-08
4.59984e-09
2.04463e-08
3.45561e-09
2.0762e-08
2.55842e-09
2.09438e-08
1.85567e-09
2.10272e-08
1.30438e-09
2.10367e-08
8.70902e-10
2.099e-08
5.29373e-10
2.09005e-08
2.60077e-10
2.07793e-08
4.79706e-11
2.06342e-08
-1.16853e-10
2.04708e-08
-2.45121e-10
-3.44425e-10
2.02941e-08
4.20825e-09
1.29722e-08
7.77032e-09
1.15421e-08
1.057e-08
9.75112e-09
1.26756e-08
7.94537e-09
1.42201e-08
6.31582e-09
1.53365e-08
4.93379e-09
1.61339e-08
3.80238e-09
1.66955e-08
2.89405e-09
1.70819e-08
2.17201e-09
1.73371e-08
1.60044e-09
1.74931e-08
1.14844e-09
1.75732e-08
7.90801e-10
1.75949e-08
5.07633e-10
1.75716e-08
2.83407e-10
1.75135e-08
1.06065e-10
1.74299e-08
-3.32741e-11
1.73261e-08
-1.41336e-10
-2.25538e-10
1.72073e-08
3.21496e-09
9.75727e-09
6.00951e-09
8.7476e-09
8.29032e-09
7.47031e-09
1.00774e-08
6.15829e-09
1.14423e-08
4.95094e-09
1.24674e-08
3.90861e-09
1.32276e-08
3.04221e-09
1.37838e-08
2.33784e-09
1.41836e-08
1.77222e-09
1.44632e-08
1.32084e-09
1.46501e-08
9.61582e-10
1.4765e-08
6.7587e-10
1.4824e-08
4.48686e-10
1.48392e-08
2.68121e-10
1.48205e-08
1.24815e-10
1.47758e-08
1.14271e-11
1.47112e-08
-7.67245e-11
-1.45632e-10
1.46313e-08
2.53979e-09
7.21748e-09
4.78435e-09
6.50303e-09
6.66088e-09
5.59378e-09
8.17075e-09
4.64842e-09
9.35471e-09
3.76699e-09
1.02667e-08
2.99666e-09
1.09594e-08
2.34945e-09
1.14787e-08
1.81851e-09
1.1862e-08
1.38896e-09
1.21388e-08
1.04407e-09
1.23322e-08
7.68191e-10
1.24602e-08
5.47873e-10
1.25368e-08
3.72062e-10
1.2573e-08
2.31878e-10
1.25776e-08
1.2027e-10
1.25573e-08
3.16548e-11
1.25184e-08
-3.77725e-11
-9.19525e-11
1.24647e-08
2.05251e-09
5.16498e-09
3.88598e-09
4.66955e-09
5.44315e-09
4.03661e-09
6.71833e-09
3.37324e-09
7.73609e-09
2.74923e-09
8.5335e-09
2.19925e-09
9.14925e-09
1.7337e-09
9.61848e-09
1.34929e-09
9.97087e-09
1.03657e-09
1.02306e-08
7.84329e-10
1.0417e-08
5.81766e-10
1.05455e-08
4.19452e-10
1.0628e-08
2.8954e-10
1.06742e-08
1.85665e-10
1.06917e-08
1.02738e-10
1.06867e-08
3.67031e-11
1.06643e-08
-1.53819e-11
-5.59409e-11
1.06283e-08
1.6836e-09
3.48138e-09
3.19824e-09
3.15492e-09
4.49813e-09
2.73672e-09
5.57529e-09
2.29608e-09
6.44543e-09
1.87909e-09
7.13524e-09
1.50944e-09
7.67406e-09
1.19487e-09
8.08943e-09
9.33918e-10
8.40524e-09
7.20769e-10
8.64134e-09
5.48226e-10
8.81387e-09
4.09233e-10
8.93578e-09
2.97549e-10
9.01739e-09
2.0793e-10
9.06695e-09
1.36097e-10
9.09108e-09
7.86092e-11
9.09507e-09
3.27158e-11
9.08339e-09
-3.70061e-12
-3.1961e-11
9.05941e-09
1.39264e-09
2.08874e-09
2.65148e-09
1.89607e-09
3.73942e-09
1.64878e-09
4.64821e-09
1.38728e-09
5.38848e-09
1.13882e-09
5.98024e-09
9.17682e-10
6.44632e-09
7.28792e-10
6.80867e-09
5.7156e-10
7.08671e-09
4.42736e-10
7.29677e-09
3.3816e-10
7.4523e-09
2.53704e-10
7.56417e-09
1.85679e-10
7.64113e-09
1.3097e-10
7.69021e-09
8.70206e-11
7.71705e-09
5.17693e-11
7.7262e-09
2.35632e-11
7.72141e-09
1.08676e-12
-1.63177e-11
7.70577e-09
1.15307e-09
9.35672e-10
2.19874e-09
8.50401e-10
3.10674e-09
7.40781e-10
3.86945e-09
6.24575e-10
4.49441e-09
5.13859e-10
4.99705e-09
4.15042e-10
5.39544e-09
3.30406e-10
5.70723e-09
2.59775e-10
5.9482e-09
2.01764e-10
6.13179e-09
1.54565e-10
6.26913e-09
1.16364e-10
6.36928e-09
8.55311e-11
6.43957e-09
6.06827e-11
6.48591e-09
4.06811e-11
6.51307e-09
2.46051e-11
6.52492e-09
1.17144e-11
6.52459e-09
1.41386e-12
-6.42746e-12
6.5147e-09
9.35672e-10
1.78607e-09
2.52685e-09
3.15143e-09
3.66529e-09
4.08033e-09
4.41074e-09
4.67051e-09
4.87227e-09
5.02684e-09
5.1432e-09
5.22874e-09
5.28942e-09
5.3301e-09
5.3547e-09
5.36642e-09
5.36783e-09
5.3614e-09
4.13244e-10
-4.13244e-10
8.28553e-10
-4.15309e-10
1.24516e-09
-4.1661e-10
1.66234e-09
-4.17176e-10
2.07937e-09
-4.1703e-10
2.49552e-09
-4.16149e-10
2.90996e-09
-4.14442e-10
3.32171e-09
-4.11752e-10
3.72962e-09
-4.07907e-10
4.13239e-09
-4.02774e-10
4.5287e-09
-3.96309e-10
4.91725e-09
-3.88552e-10
5.29684e-09
-3.79587e-10
5.66634e-09
-3.69501e-10
6.02471e-09
-3.58366e-10
6.37095e-09
-3.46241e-10
6.70414e-09
-3.33195e-10
7.02346e-09
-3.19316e-10
7.32818e-09
-3.04719e-10
7.61771e-09
-2.89532e-10
7.89161e-09
-2.73897e-10
8.14957e-09
-2.57962e-10
8.39145e-09
-2.41876e-10
8.61723e-09
-2.25788e-10
8.82708e-09
-2.09842e-10
9.02125e-09
-1.94176e-10
9.20017e-09
-1.78916e-10
9.36434e-09
-1.64175e-10
9.51439e-09
-1.50049e-10
9.65101e-09
-1.36615e-10
9.77494e-09
-1.2393e-10
9.88697e-09
-1.12032e-10
9.98791e-09
-1.00943e-10
1.00786e-08
-9.06642e-11
1.01598e-08
-8.11861e-11
1.02322e-08
-7.24858e-11
1.02968e-08
-6.45316e-11
1.03541e-08
-5.72851e-11
1.04048e-08
-5.07032e-11
1.04495e-08
-4.47408e-11
1.04889e-08
-3.93512e-11
1.05233e-08
-3.44885e-11
1.05535e-08
-3.0108e-11
1.05796e-08
-2.61669e-11
1.06022e-08
-2.26246e-11
1.06217e-08
-1.94437e-11
1.06383e-08
-1.65892e-11
1.06523e-08
-1.40288e-11
1.0664e-08
-1.17331e-11
1.06737e-08
-9.67554e-12
1.06815e-08
-7.83148e-12
1.06877e-08
-6.17914e-12
1.06924e-08
-4.6983e-12
1.06958e-08
-3.37136e-12
1.0698e-08
-2.18175e-12
1.06991e-08
-1.11497e-12
1.06993e-08
-1.5823e-13
1.06986e-08
7.00745e-13
1.06971e-08
1.47213e-12
1.06949e-08
2.16559e-12
1.06921e-08
2.78962e-12
1.06888e-08
3.35175e-12
1.06849e-08
3.85877e-12
1.06806e-08
4.31698e-12
1.06759e-08
4.73164e-12
1.06708e-08
5.1077e-12
1.06653e-08
5.44951e-12
1.06595e-08
5.76096e-12
1.06535e-08
6.0453e-12
1.06472e-08
6.30609e-12
1.06407e-08
6.5455e-12
1.06339e-08
6.76634e-12
1.06269e-08
6.9708e-12
1.06198e-08
7.16059e-12
1.06124e-08
7.33761e-12
1.06049e-08
7.5032e-12
1.05973e-08
7.65887e-12
1.05894e-08
7.80564e-12
1.05815e-08
7.94484e-12
1.05734e-08
8.0771e-12
1.05652e-08
8.20346e-12
1.05569e-08
8.32463e-12
1.05485e-08
8.44106e-12
1.05399e-08
8.55351e-12
1.05312e-08
8.66239e-12
1.05225e-08
8.76834e-12
1.05136e-08
8.87145e-12
1.05046e-08
8.97236e-12
1.04956e-08
9.07118e-12
1.04864e-08
9.16817e-12
1.04771e-08
9.26378e-12
1.04678e-08
9.35802e-12
1.04583e-08
9.45127e-12
1.04488e-08
9.54339e-12
1.04391e-08
9.63494e-12
1.04294e-08
9.72573e-12
1.04196e-08
9.8159e-12
1.04097e-08
9.90583e-12
1.03997e-08
9.99533e-12
1.03896e-08
1.00847e-11
1.03794e-08
1.01737e-11
1.03692e-08
1.02629e-11
1.03588e-08
1.03517e-11
1.03484e-08
1.04409e-11
1.03379e-08
1.05299e-11
1.03272e-08
1.06192e-11
1.03165e-08
1.07086e-11
1.03057e-08
1.07983e-11
1.02948e-08
1.08882e-11
1.02839e-08
1.09784e-11
1.02728e-08
1.10689e-11
1.02616e-08
1.11598e-11
1.02504e-08
1.1251e-11
1.0239e-08
1.13426e-11
1.02276e-08
1.14346e-11
1.02161e-08
1.15272e-11
1.02045e-08
1.16201e-11
1.01927e-08
1.17137e-11
1.01809e-08
1.18075e-11
1.0169e-08
1.19022e-11
1.0157e-08
1.19972e-11
1.01449e-08
1.20929e-11
1.01328e-08
1.2189e-11
1.01205e-08
1.22859e-11
1.01081e-08
1.23834e-11
1.00956e-08
1.24814e-11
1.0083e-08
1.25802e-11
1.00703e-08
1.26796e-11
1.00576e-08
1.27797e-11
1.00447e-08
1.28806e-11
1.00317e-08
1.2982e-11
1.00186e-08
1.30844e-11
1.00054e-08
1.31873e-11
9.99214e-09
1.32911e-11
9.97874e-09
1.33958e-11
9.96524e-09
1.35013e-11
9.95163e-09
1.36076e-11
9.93792e-09
1.3715e-11
9.92409e-09
1.38232e-11
9.91016e-09
1.39324e-11
9.89612e-09
1.40428e-11
9.88196e-09
1.41542e-11
9.8677e-09
1.4267e-11
9.85332e-09
1.43812e-11
9.83882e-09
1.44969e-11
9.8242e-09
1.46142e-11
9.80947e-09
1.47335e-11
9.79462e-09
1.4855e-11
9.77964e-09
1.49791e-11
9.76453e-09
1.51062e-11
9.74929e-09
1.52368e-11
9.73392e-09
1.53716e-11
9.71841e-09
1.55117e-11
9.70275e-09
1.56579e-11
9.68694e-09
1.58118e-11
9.67097e-09
1.59751e-11
9.65482e-09
1.61504e-11
9.63847e-09
1.63405e-11
9.62193e-09
1.65491e-11
9.60514e-09
1.67813e-11
9.5881e-09
1.70436e-11
9.57076e-09
1.7344e-11
9.55306e-09
1.76936e-11
9.53496e-09
1.81066e-11
9.51635e-09
1.86019e-11
9.49715e-09
1.92046e-11
9.4772e-09
1.99484e-11
9.45632e-09
2.08794e-11
9.43426e-09
2.2061e-11
9.41068e-09
2.35822e-11
9.38511e-09
2.55713e-11
9.35689e-09
2.82174e-11
9.32508e-09
3.18107e-11
9.28826e-09
3.68176e-11
9.24423e-09
4.40351e-11
9.18928e-09
5.49459e-11
9.11663e-09
7.26506e-11
9.01178e-09
1.04851e-10
8.83551e-09
1.76271e-10
4.00981e-10
8.43453e-09
4.16803e-10
-8.30046e-10
8.35496e-10
-8.34002e-10
1.25522e-09
-8.36335e-10
1.6753e-09
-8.37254e-10
2.0952e-09
-8.36933e-10
2.51449e-09
-8.35434e-10
2.93257e-09
-8.32525e-10
3.34852e-09
-8.27698e-10
3.76096e-09
-8.20351e-10
4.16826e-09
-8.1007e-10
4.56875e-09
-7.96803e-10
4.96099e-09
-7.80792e-10
5.34378e-09
-7.62375e-10
5.71608e-09
-7.41801e-10
6.0769e-09
-7.19185e-10
6.42524e-09
-6.94579e-10
6.76011e-09
-6.68073e-10
7.08064e-09
-6.39844e-10
7.38606e-09
-6.10141e-10
7.67578e-09
-5.79249e-10
7.94935e-09
-5.4747e-10
8.2065e-09
-5.15112e-10
8.44711e-09
-4.82481e-10
8.6712e-09
-4.49883e-10
8.87898e-09
-4.17617e-10
9.07077e-09
-3.85965e-10
9.24704e-09
-3.55188e-10
9.40838e-09
-3.25513e-10
9.55546e-09
-2.97134e-10
9.68905e-09
-2.70202e-10
9.80995e-09
-2.44829e-10
9.919e-09
-2.21084e-10
1.00171e-08
-1.98999e-10
1.0105e-08
-1.78571e-10
1.01835e-08
-1.59769e-10
1.02536e-08
-1.42541e-10
1.03159e-08
-1.26814e-10
1.03711e-08
-1.12506e-10
1.04199e-08
-9.95261e-11
1.0463e-08
-8.77782e-11
1.05008e-08
-7.71674e-11
1.05339e-08
-6.75998e-11
1.05628e-08
-5.89848e-11
1.05878e-08
-5.12364e-11
1.06095e-08
-4.42739e-11
1.06281e-08
-3.80221e-11
1.06439e-08
-3.2412e-11
1.06572e-08
-2.73799e-11
1.06684e-08
-2.28679e-11
1.06775e-08
-1.88231e-11
1.06849e-08
-1.51977e-11
1.06907e-08
-1.19485e-11
1.0695e-08
-9.0361e-12
1.06981e-08
-6.42551e-12
1.07e-08
-4.08468e-12
1.07008e-08
-1.98533e-12
1.07008e-08
-1.01349e-13
1.06999e-08
1.58996e-12
1.06982e-08
3.10961e-12
1.06959e-08
4.47621e-12
1.0693e-08
5.70612e-12
1.06896e-08
6.81457e-12
1.06856e-08
7.81494e-12
1.06812e-08
8.71908e-12
1.06764e-08
9.5378e-12
1.06712e-08
1.02805e-11
1.06657e-08
1.09559e-11
1.06599e-08
1.15714e-11
1.06538e-08
1.21341e-11
1.06475e-08
1.26498e-11
1.06409e-08
1.31241e-11
1.06341e-08
1.35616e-11
1.06271e-08
1.39667e-11
1.06199e-08
1.43432e-11
1.06126e-08
1.46943e-11
1.0605e-08
1.50231e-11
1.05974e-08
1.53323e-11
1.05895e-08
1.56242e-11
1.05816e-08
1.59007e-11
1.05735e-08
1.61641e-11
1.05653e-08
1.64155e-11
1.0557e-08
1.66566e-11
1.05485e-08
1.68886e-11
1.05399e-08
1.71128e-11
1.05313e-08
1.73299e-11
1.05225e-08
1.75411e-11
1.05136e-08
1.77468e-11
1.05047e-08
1.79482e-11
1.04956e-08
1.81453e-11
1.04864e-08
1.83392e-11
1.04771e-08
1.853e-11
1.04678e-08
1.87183e-11
1.04583e-08
1.89043e-11
1.04488e-08
1.90886e-11
1.04392e-08
1.92713e-11
1.04294e-08
1.94527e-11
1.04196e-08
1.96332e-11
1.04097e-08
1.98127e-11
1.03997e-08
1.99917e-11
1.03896e-08
2.01701e-11
1.03794e-08
2.03483e-11
1.03692e-08
2.05262e-11
1.03588e-08
2.07042e-11
1.03484e-08
2.08823e-11
1.03379e-08
2.10605e-11
1.03272e-08
2.12389e-11
1.03165e-08
2.14177e-11
1.03057e-08
2.1597e-11
1.02948e-08
2.17767e-11
1.02839e-08
2.19571e-11
1.02728e-08
2.21381e-11
1.02616e-08
2.23197e-11
1.02504e-08
2.25021e-11
1.0239e-08
2.26855e-11
1.02276e-08
2.28695e-11
1.02161e-08
2.30545e-11
1.02045e-08
2.32405e-11
1.01927e-08
2.34274e-11
1.01809e-08
2.36153e-11
1.0169e-08
2.38044e-11
1.0157e-08
2.39946e-11
1.01449e-08
2.41859e-11
1.01328e-08
2.43783e-11
1.01205e-08
2.45719e-11
1.01081e-08
2.47668e-11
1.00956e-08
2.4963e-11
1.0083e-08
2.51604e-11
1.00703e-08
2.53592e-11
1.00576e-08
2.55595e-11
1.00447e-08
2.57611e-11
1.00317e-08
2.59641e-11
1.00186e-08
2.61687e-11
1.00054e-08
2.63746e-11
9.99214e-09
2.65823e-11
9.97874e-09
2.67917e-11
9.96524e-09
2.70025e-11
9.95163e-09
2.72153e-11
9.93792e-09
2.74298e-11
9.92409e-09
2.76462e-11
9.91016e-09
2.78647e-11
9.89612e-09
2.80855e-11
9.88196e-09
2.83084e-11
9.8677e-09
2.85339e-11
9.85332e-09
2.87621e-11
9.83882e-09
2.89934e-11
9.82421e-09
2.92281e-11
9.80947e-09
2.94667e-11
9.79462e-09
2.97095e-11
9.77964e-09
2.99575e-11
9.76454e-09
3.02115e-11
9.7493e-09
3.04725e-11
9.73393e-09
3.07421e-11
9.71842e-09
3.10216e-11
9.70276e-09
3.13138e-11
9.68695e-09
3.16211e-11
9.67098e-09
3.19474e-11
9.65484e-09
3.2297e-11
9.6385e-09
3.26761e-11
9.62196e-09
3.30921e-11
9.60518e-09
3.3555e-11
9.58815e-09
3.40774e-11
9.57082e-09
3.46757e-11
9.55314e-09
3.53716e-11
9.53505e-09
3.61933e-11
9.51648e-09
3.71781e-11
9.49731e-09
3.83759e-11
9.4774e-09
3.98534e-11
9.45658e-09
4.17016e-11
9.43459e-09
4.40455e-11
9.41111e-09
4.70609e-11
9.38569e-09
5.09993e-11
9.35767e-09
5.62311e-11
9.32616e-09
6.33219e-11
9.28981e-09
7.31727e-11
9.24653e-09
8.73072e-11
9.19298e-09
1.08504e-10
9.12326e-09
1.42372e-10
9.02625e-09
2.01857e-10
8.88027e-09
3.22248e-10
6.16381e-10
8.66487e-09
4.24788e-10
-1.25483e-09
8.50653e-10
-1.25987e-09
1.27635e-09
-1.26203e-09
1.70141e-09
-1.26231e-09
2.12582e-09
-1.26135e-09
2.55039e-09
-1.26e-09
2.97561e-09
-1.25775e-09
3.40082e-09
-1.25291e-09
3.82379e-09
-1.24332e-09
4.24139e-09
-1.22767e-09
4.65083e-09
-1.20624e-09
5.05036e-09
-1.18033e-09
5.4392e-09
-1.15121e-09
5.81686e-09
-1.11946e-09
6.1826e-09
-1.08492e-09
6.5353e-09
-1.04728e-09
6.87372e-09
-1.00649e-09
7.19676e-09
-9.62884e-10
7.50359e-09
-9.16965e-10
7.79361e-09
-8.6927e-10
8.06643e-09
-8.20293e-10
8.32183e-09
-7.70508e-10
8.55974e-09
-7.20392e-10
8.78028e-09
-6.70422e-10
8.98373e-09
-6.21069e-10
9.17054e-09
-5.72781e-10
9.34132e-09
-5.25963e-10
9.49678e-09
-4.80972e-10
9.63774e-09
-4.38099e-10
9.76511e-09
-3.97566e-10
9.8798e-09
-3.59524e-10
9.98278e-09
-3.24058e-10
1.0075e-08
-2.91193e-10
1.01573e-08
-2.60901e-10
1.02306e-08
-2.33111e-10
1.02958e-08
-2.0772e-10
1.03536e-08
-1.84602e-10
1.04047e-08
-1.63615e-10
1.04498e-08
-1.44612e-10
1.04895e-08
-1.27439e-10
1.05242e-08
-1.11947e-10
1.05546e-08
-9.79916e-11
1.05811e-08
-8.54338e-11
1.0604e-08
-7.41447e-11
1.06237e-08
-6.40034e-11
1.06406e-08
-5.48987e-11
1.06549e-08
-4.67287e-11
1.06669e-08
-3.93997e-11
1.06769e-08
-3.28271e-11
1.0685e-08
-2.69338e-11
1.06915e-08
-2.16501e-11
1.06964e-08
-1.69129e-11
1.07001e-08
-1.26656e-11
1.07025e-08
-8.8567e-12
1.07038e-08
-5.44025e-12
1.07042e-08
-2.37446e-12
1.07037e-08
3.77683e-13
1.07025e-08
2.84989e-12
1.07005e-08
5.07226e-12
1.06979e-08
7.07159e-12
1.06948e-08
8.87238e-12
1.06911e-08
1.04961e-11
1.06869e-08
1.19625e-11
1.06824e-08
1.32886e-11
1.06774e-08
1.44902e-11
1.06721e-08
1.55812e-11
1.06665e-08
1.65741e-11
1.06606e-08
1.74797e-11
1.06544e-08
1.83082e-11
1.0648e-08
1.90683e-11
1.06413e-08
1.97677e-11
1.06345e-08
2.04136e-11
1.06275e-08
2.10123e-11
1.06202e-08
2.1569e-11
1.06128e-08
2.20889e-11
1.06053e-08
2.25761e-11
1.05976e-08
2.30346e-11
1.05897e-08
2.34679e-11
1.05818e-08
2.38788e-11
1.05736e-08
2.42702e-11
1.05654e-08
2.46444e-11
1.05571e-08
2.50035e-11
1.05486e-08
2.53493e-11
1.054e-08
2.56835e-11
1.05314e-08
2.60074e-11
1.05226e-08
2.63226e-11
1.05137e-08
2.66301e-11
1.05047e-08
2.69308e-11
1.04956e-08
2.72257e-11
1.04865e-08
2.75154e-11
1.04772e-08
2.78009e-11
1.04678e-08
2.80827e-11
1.04584e-08
2.83612e-11
1.04488e-08
2.86371e-11
1.04392e-08
2.89107e-11
1.04295e-08
2.91825e-11
1.04196e-08
2.94527e-11
1.04097e-08
2.97218e-11
1.03997e-08
2.99899e-11
1.03896e-08
3.02574e-11
1.03795e-08
3.05244e-11
1.03692e-08
3.07912e-11
1.03588e-08
3.1058e-11
1.03484e-08
3.13249e-11
1.03379e-08
3.1592e-11
1.03272e-08
3.18596e-11
1.03165e-08
3.21276e-11
1.03057e-08
3.23965e-11
1.02948e-08
3.26661e-11
1.02839e-08
3.29364e-11
1.02728e-08
3.32079e-11
1.02616e-08
3.34803e-11
1.02504e-08
3.37538e-11
1.0239e-08
3.40287e-11
1.02276e-08
3.43048e-11
1.02161e-08
3.45823e-11
1.02045e-08
3.48611e-11
1.01927e-08
3.51416e-11
1.01809e-08
3.54234e-11
1.0169e-08
3.57069e-11
1.0157e-08
3.59921e-11
1.01449e-08
3.62791e-11
1.01328e-08
3.65676e-11
1.01205e-08
3.68582e-11
1.01081e-08
3.71504e-11
1.00956e-08
3.74447e-11
1.0083e-08
3.77409e-11
1.00703e-08
3.8039e-11
1.00576e-08
3.83393e-11
1.00447e-08
3.86417e-11
1.00317e-08
3.89462e-11
1.00186e-08
3.9253e-11
1.00054e-08
3.95621e-11
9.99214e-09
3.98736e-11
9.97874e-09
4.01873e-11
9.96524e-09
4.05038e-11
9.95163e-09
4.08228e-11
9.93792e-09
4.11446e-11
9.9241e-09
4.14692e-11
9.91016e-09
4.17969e-11
9.89612e-09
4.21278e-11
9.88197e-09
4.24622e-11
9.8677e-09
4.28004e-11
9.85332e-09
4.31426e-11
9.83882e-09
4.34895e-11
9.82421e-09
4.38413e-11
9.80948e-09
4.41987e-11
9.79463e-09
4.45629e-11
9.77965e-09
4.49346e-11
9.76454e-09
4.53152e-11
9.74931e-09
4.57063e-11
9.73394e-09
4.61098e-11
9.71844e-09
4.65285e-11
9.70278e-09
4.69657e-11
9.68698e-09
4.74255e-11
9.67101e-09
4.79133e-11
9.65487e-09
4.84359e-11
9.63855e-09
4.90021e-11
9.62202e-09
4.96231e-11
9.60526e-09
5.03136e-11
9.58824e-09
5.1092e-11
9.57094e-09
5.19831e-11
9.55329e-09
5.30186e-11
9.53524e-09
5.42403e-11
9.51672e-09
5.57035e-11
9.49761e-09
5.74813e-11
9.47779e-09
5.96725e-11
9.45708e-09
6.24106e-11
9.43525e-09
6.58792e-11
9.41198e-09
7.03353e-11
9.38683e-09
7.61452e-11
9.35922e-09
8.38458e-11
9.32829e-09
9.42484e-11
9.29283e-09
1.08633e-10
9.25101e-09
1.29122e-10
9.20004e-09
1.59479e-10
9.13548e-09
2.06932e-10
9.05059e-09
2.86741e-10
8.9387e-09
4.34138e-10
7.31716e-10
8.82337e-09
4.41042e-10
-1.69588e-09
8.79529e-10
-1.69835e-09
1.31304e-09
-1.69555e-09
1.7428e-09
-1.69207e-09
2.16812e-09
-1.68667e-09
2.5956e-09
-1.68747e-09
3.03051e-09
-1.69266e-09
3.47367e-09
-1.69606e-09
3.91914e-09
-1.68879e-09
4.35727e-09
-1.66581e-09
4.78141e-09
-1.63038e-09
5.19021e-09
-1.58913e-09
5.58579e-09
-1.54679e-09
5.97037e-09
-1.50404e-09
6.34387e-09
-1.45843e-09
6.70412e-09
-1.40753e-09
7.04861e-09
-1.35098e-09
7.37565e-09
-1.28992e-09
7.68446e-09
-1.22577e-09
7.97468e-09
-1.1595e-09
8.24609e-09
-1.0917e-09
8.49852e-09
-1.02294e-09
8.73201e-09
-9.5388e-10
8.94677e-09
-8.85186e-10
9.14325e-09
-8.17544e-10
9.32207e-09
-7.51603e-10
9.48406e-09
-6.87951e-10
9.63017e-09
-6.27083e-10
9.76146e-09
-5.69391e-10
9.87905e-09
-5.15155e-10
9.98407e-09
-4.64543e-10
1.00776e-08
-4.17625e-10
1.01608e-08
-3.74383e-10
1.02346e-08
-3.34725e-10
1.03e-08
-2.98511e-10
1.03579e-08
-2.65558e-10
1.04089e-08
-2.35661e-10
1.04539e-08
-2.08603e-10
1.04935e-08
-1.84161e-10
1.05282e-08
-1.62117e-10
1.05585e-08
-1.42261e-10
1.05849e-08
-1.24394e-10
1.06078e-08
-1.0833e-10
1.06275e-08
-9.38958e-11
1.06445e-08
-8.09326e-11
1.06589e-08
-6.92955e-11
1.0671e-08
-5.88518e-11
1.06811e-08
-4.94816e-11
1.06893e-08
-4.10758e-11
1.06959e-08
-3.35358e-11
1.0701e-08
-2.67729e-11
1.07048e-08
-2.07065e-11
1.07074e-08
-1.52645e-11
1.07089e-08
-1.03813e-11
1.07095e-08
-5.99854e-12
1.07092e-08
-2.0633e-12
1.07081e-08
1.4719e-12
1.07063e-08
4.64972e-12
1.07039e-08
7.50836e-12
1.07009e-08
1.00824e-11
1.06973e-08
1.24026e-11
1.06933e-08
1.44966e-11
1.06889e-08
1.63891e-11
1.06841e-08
1.81025e-11
1.06789e-08
1.96565e-11
1.06734e-08
2.1069e-11
1.06676e-08
2.23556e-11
1.06616e-08
2.35309e-11
1.06553e-08
2.4607e-11
1.06488e-08
2.55956e-11
1.0642e-08
2.65065e-11
1.06351e-08
2.73489e-11
1.0628e-08
2.81303e-11
1.06207e-08
2.88582e-11
1.06132e-08
2.95387e-11
1.06056e-08
3.01775e-11
1.05979e-08
3.07791e-11
1.059e-08
3.13485e-11
1.0582e-08
3.18891e-11
1.05739e-08
3.24048e-11
1.05656e-08
3.2898e-11
1.05572e-08
3.3372e-11
1.05488e-08
3.3829e-11
1.05402e-08
3.42708e-11
1.05315e-08
3.46998e-11
1.05227e-08
3.51171e-11
1.05138e-08
3.55248e-11
1.05048e-08
3.59235e-11
1.04957e-08
3.63149e-11
1.04865e-08
3.66997e-11
1.04773e-08
3.70789e-11
1.04679e-08
3.74533e-11
1.04584e-08
3.78236e-11
1.04489e-08
3.81906e-11
1.04392e-08
3.85545e-11
1.04295e-08
3.89161e-11
1.04197e-08
3.92759e-11
1.04098e-08
3.96341e-11
1.03998e-08
3.9991e-11
1.03897e-08
4.03473e-11
1.03795e-08
4.07029e-11
1.03692e-08
4.10583e-11
1.03589e-08
4.14137e-11
1.03484e-08
4.17692e-11
1.03379e-08
4.21252e-11
1.03273e-08
4.24817e-11
1.03166e-08
4.2839e-11
1.03058e-08
4.31971e-11
1.02949e-08
4.35564e-11
1.02839e-08
4.39168e-11
1.02728e-08
4.42784e-11
1.02616e-08
4.46417e-11
1.02504e-08
4.50064e-11
1.02391e-08
4.53726e-11
1.02276e-08
4.57407e-11
1.02161e-08
4.61107e-11
1.02045e-08
4.64823e-11
1.01928e-08
4.6856e-11
1.01809e-08
4.7232e-11
1.0169e-08
4.76099e-11
1.0157e-08
4.799e-11
1.01449e-08
4.83726e-11
1.01328e-08
4.87573e-11
1.01205e-08
4.91446e-11
1.01081e-08
4.95343e-11
1.00956e-08
4.99265e-11
1.0083e-08
5.03215e-11
1.00703e-08
5.0719e-11
1.00576e-08
5.11193e-11
1.00447e-08
5.15224e-11
1.00317e-08
5.19285e-11
1.00186e-08
5.23374e-11
1.00054e-08
5.27495e-11
9.99214e-09
5.31648e-11
9.97874e-09
5.35831e-11
9.96524e-09
5.4005e-11
9.95163e-09
5.44303e-11
9.93792e-09
5.48592e-11