/*--------------------------------*- C++ -*----------------------------------*\
  =========                 |
  \\      /  F ield         | OpenFOAM: The Open Source CFD Toolbox
   \\    /   O peration     | Website:  https://openfoam.org
    \\  /    A nd           | Version:  11
     \\/     M anipulation  |
\*---------------------------------------------------------------------------*/
FoamFile
{
    format      ascii;
    class       volScalarField;
    location    "87";
    object      p;
}
// * * * * * * * * * * * * * * * * * * * * * * * * * * * * * * * * * * * * * //

dimensions      [0 2 -2 0 0 0 0];

internalField   nonuniform List<scalar> 
2048
(
0.304226
0.301867
0.297118
0.289769
0.279667
0.266669
0.250603
0.231277
0.208522
0.18224
0.152455
0.119363
0.0833813
0.0451861
0.00572175
-0.0338229
-0.072084
-0.107634
-0.139118
-0.165381
-0.185534
-0.198984
-0.205302
-0.204708
-0.197495
-0.184206
-0.16568
-0.143014
-0.117453
-0.090255
-0.0625478
-0.0352314
-0.00893216
0.0159806
0.0393311
0.0610459
0.0810564
0.0992194
0.115239
0.128628
0.1387
0.144619
0.145526
0.140729
0.129914
0.113364
0.0921063
0.0679244
0.0431681
0.0203571
0.0016975
-0.0114353
-0.0186917
-0.0205911
-0.0183015
-0.0133616
-0.0072451
-0.0012475
0.00383632
0.00718117
0.00894905
0.00816663
0.00651853
0.00109961
0.306659
0.304323
0.299616
0.292323
0.282277
0.269317
0.253245
0.233842
0.210906
0.184308
0.154046
0.120296
0.0834755
0.0442824
0.00371757
-0.036948
-0.076257
-0.112702
-0.144889
-0.17167
-0.192186
-0.205873
-0.21224
-0.211578
-0.204143
-0.190441
-0.171302
-0.147846
-0.121375
-0.0932143
-0.0645542
-0.0363431
-0.00923989
0.0163665
0.0402918
0.062463
0.0828138
0.101203
0.11733
0.130705
0.140635
0.146279
0.146772
0.141413
0.129884
0.112473
0.0902311
0.064991
0.0391938
0.0154961
-0.00379784
-0.0172143
-0.0243538
-0.0258017
-0.0228641
-0.0171829
-0.010312
-0.00360997
0.00209933
0.00596973
0.00817363
0.00771951
0.00633424
0.00104049
0.31151
0.309223
0.304608
0.297438
0.287524
0.274662
0.258604
0.239068
0.215785
0.188561
0.157333
0.122241
0.0836935
0.0424355
-0.000421504
-0.0434315
-0.0849242
-0.12321
-0.156815
-0.18462
-0.205848
-0.219993
-0.226493
-0.225731
-0.217872
-0.203346
-0.182954
-0.157866
-0.129503
-0.0993448
-0.0687237
-0.0386891
-0.00995939
0.017047
0.0421339
0.0652259
0.0862523
0.105075
0.121392
0.134705
0.14431
0.14935
0.148947
0.142392
0.129358
0.110135
0.0858141
0.0583467
0.0303629
0.00478084
-0.0158393
-0.0297806
-0.036579
-0.0369834
-0.0325858
-0.025264
-0.0167525
-0.00854325
-0.00151216
0.00345712
0.00656325
0.00679431
0.0059252
0.000935711
0.318721
0.316517
0.312062
0.305114
0.295444
0.282789
0.266818
0.24715
0.223402
0.195256
0.162547
0.12535
0.0840667
0.0395201
-0.00700572
-0.0537739
-0.0987336
-0.139882
-0.175638
-0.204967
-0.227243
-0.242097
-0.248864
-0.248036
-0.2396
-0.223836
-0.201489
-0.17381
-0.142427
-0.109085
-0.075366
-0.0424936
-0.0112752
0.0178441
0.0446721
0.0691472
0.0911867
0.110619
0.127156
0.140296
0.149308
0.153311
0.151415
0.142896
0.1274
0.105201
0.0774474
0.0462885
0.0147161
-0.0138989
-0.0365295
-0.0511501
-0.0571818
-0.0556735
-0.0486737
-0.0384857
-0.0271745
-0.0164475
-0.00725123
-0.000513129
0.00403211
0.00533617
0.00528097
0.00078771
0.328197
0.326127
0.321928
0.315342
0.306086
0.293816
0.278092
0.25839
0.234153
0.204854
0.170134
0.129927
0.0846311
0.0352258
-0.0167166
-0.0689676
-0.11884
-0.16389
-0.202487
-0.23379
-0.25741
-0.273131
-0.280593
-0.279924
-0.270889
-0.253486
-0.22836
-0.196916
-0.161136
-0.123191
-0.0850368
-0.0481606
-0.0135062
0.0184542
0.047566
0.0738198
0.0971754
0.117379
0.134126
0.146916
0.155028
0.157586
0.153696
0.142581
0.123781
0.0974855
0.0648513
0.0282432
-0.00883001
-0.0422309
-0.0680822
-0.0837325
-0.0885449
-0.0839817
-0.0728156
-0.0580914
-0.0424377
-0.027885
-0.0154752
-0.00615813
0.000451635
0.00326836
0.00438022
0.000579345
0.33979
0.337923
0.334115
0.328089
0.319496
0.307889
0.292683
0.273176
0.248576
0.218041
0.180874
0.136642
0.0856517
0.0291339
-0.0307907
-0.0908738
-0.147322
-0.197218
-0.23914
-0.272703
-0.297903
-0.314653
-0.323443
-0.323448
-0.314108
-0.294789
-0.265881
-0.229116
-0.187132
-0.142793
-0.0986072
-0.0563953
-0.0172466
0.0183466
0.0502763
0.0786146
0.10342
0.124403
0.14131
0.153543
0.160506
0.161387
0.155279
0.141348
0.119039
0.088391
0.0504038
0.00743638
-0.03666
-0.0769491
-0.108278
-0.126694
-0.131113
-0.123059
-0.106324
-0.0852252
-0.0634007
-0.0434372
-0.0265604
-0.0137072
-0.00432843
0.000510788
0.00319234
0.000286553
0.353277
0.351706
0.348466
0.343275
0.335694
0.325171
0.310905
0.291987
0.267295
0.235625
0.195813
0.146666
0.0880882
0.0212713
-0.0506612
-0.122085
-0.187198
-0.242814
-0.288287
-0.324115
-0.350983
-0.369394
-0.380077
-0.381699
-0.372741
-0.35145
-0.317614
-0.273397
-0.22263
-0.169432
-0.117181
-0.0681345
-0.023467
0.0164561
0.0516723
0.0823218
0.108468
0.1299
0.146757
0.157888
0.162938
0.161252
0.152074
0.134934
0.109495
0.0755584
0.0335958
-0.0145099
-0.0650296
-0.112535
-0.15078
-0.174271
-0.180564
-0.170303
-0.14803
-0.1196
-0.0901659
-0.0633107
-0.0407016
-0.0233092
-0.0104271
-0.00299971
0.00165855
-0.000110676
0.36834
0.367178
0.364726
0.360725
0.354633
0.345823
0.33316
0.315512
0.291126
0.258473
0.215774
0.160947
0.0932711
0.012197
-0.0775569
-0.165203
-0.241589
-0.3039
-0.353035
-0.390876
-0.418969
-0.439427
-0.453845
-0.459808
-0.452603
-0.429136
-0.388862
-0.334465
-0.271398
-0.205794
-0.142556
-0.0846264
-0.0331902
0.0115873
0.0501316
0.083049
0.110396
0.131128
0.146694
0.154776
0.155516
0.149199
0.136335
0.116745
0.0895677
0.0539502
0.00976773
-0.0415809
-0.0965659
-0.149548
-0.193707
-0.222594
-0.231605
-0.220741
-0.19417
-0.158789
-0.121358
-0.0868088
-0.0575846
-0.0348508
-0.0178356
-0.00728589
-0.000285672
-0.000610272
0.384549
0.383923
0.382501
0.380108
0.376089
0.369878
0.359852
0.344806
0.321555
0.288318
0.241423
0.178888
0.0998783
-0.0012635
-0.116467
-0.225484
-0.315243
-0.384493
-0.436281
-0.474692
-0.502383
-0.524612
-0.545986
-0.563322
-0.56249
-0.536986
-0.487124
-0.417942
-0.337625
-0.255079
-0.177356
-0.108179
-0.0486249
0.00154292
0.0435621
0.0783512
0.105714
0.125347
0.134528
0.135891
0.131478
0.12234
0.108064
0.0875655
0.0596936
0.0233944
-0.0218387
-0.0750365
-0.13285
-0.189471
-0.237596
-0.269984
-0.28132
-0.270371
-0.240625
-0.199351
-0.154501
-0.112347
-0.0762855
-0.0478494
-0.0263365
-0.0122783
-0.0026629
-0.00119879
0.40136
0.401387
0.401229
0.400864
0.399546
0.396985
0.391024
0.380913
0.361039
0.329731
0.276501
0.201252
0.0994658
-0.0370505
-0.18654
-0.316729
-0.416226
-0.487705
-0.536225
-0.568889
-0.590242
-0.61357
-0.648731
-0.687994
-0.704934
-0.68486
-0.625247
-0.534944
-0.428725
-0.321579
-0.223943
-0.140366
-0.0718032
-0.016437
0.0288329
0.0644254
0.0881696
0.0997905
0.102028
0.0994805
0.0939615
0.0848973
0.0708499
0.0506202
0.023207
-0.0124827
-0.0573147
-0.110824
-0.169962
-0.228768
-0.279397
-0.313996
-0.326691
-0.31557
-0.283447
-0.237573
-0.18657
-0.137741
-0.095373
-0.0614572
-0.0354783
-0.0177909
-0.00543792
-0.00185897
0.41812
0.418881
0.420183
0.422171
0.424123
0.426138
0.425841
0.423495
0.411414
0.389501
0.334148
0.245256
0.0881511
-0.11733
-0.303925
-0.439841
-0.533547
-0.594389
-0.628255
-0.641198
-0.637731
-0.656537
-0.716345
-0.791166
-0.841184
-0.845234
-0.791185
-0.685598
-0.550527
-0.411552
-0.286901
-0.184729
-0.105129
-0.0432001
0.00397664
0.0350457
0.0498498
0.0532123
0.0517138
0.0485767
0.0447371
0.0379233
0.02611
0.00805932
-0.0171038
-0.0504455
-0.0930929
-0.145064
-0.203695
-0.262992
-0.314668
-0.350318
-0.363607
-0.352289
-0.318627
-0.269694
-0.214344
-0.160494
-0.113084
-0.0745446
-0.0446059
-0.023514
-0.00849074
-0.00255883
0.434095
0.435616
0.438489
0.442974
0.448578
0.455648
0.462324
0.469611
0.470581
0.467789
0.430783
0.360428
0.131278
-0.192483
-0.40962
-0.530673
-0.605338
-0.651743
-0.674919
-0.669531
-0.637928
-0.659586
-0.733922
-0.828803
-0.919591
-0.957375
-0.929717
-0.83035
-0.680733
-0.515636
-0.364375
-0.241935
-0.149403
-0.0823568
-0.0387936
-0.0173927
-0.0124496
-0.0151717
-0.0183693
-0.0183043
-0.0172902
-0.0185348
-0.0248461
-0.0378455
-0.0583507
-0.0872513
-0.125727
-0.174149
-0.230256
-0.288165
-0.33932
-0.374897
-0.388224
-0.376791
-0.342577
-0.292356
-0.234854
-0.178173
-0.127582
-0.0858485
-0.0529203
-0.0290137
-0.0116059
-0.00325802
0.448512
0.450763
0.455178
0.462097
0.47137
0.483466
0.497515
0.5146
0.531056
0.550266
0.555403
0.562632
0.414275
-0.108483
-0.385463
-0.524561
-0.600732
-0.643876
-0.671609
-0.690655
-0.653707
-0.680618
-0.760887
-0.864799
-0.960492
-1.02443
-1.01946
-0.934907
-0.786824
-0.610775
-0.443281
-0.306517
-0.206238
-0.140407
-0.105173
-0.0944018
-0.097829
-0.104354
-0.106048
-0.100545
-0.0909701
-0.0824706
-0.0793613
-0.084004
-0.0971976
-0.11946
-0.151747
-0.194593
-0.246121
-0.30071
-0.349767
-0.384244
-0.397294
-0.386083
-0.352542
-0.302993
-0.245756
-0.188741
-0.13722
-0.0941324
-0.0595602
-0.0337646
-0.0144983
-0.00392208
0.460621
0.463519
0.469276
0.478355
0.490845
0.507491
0.528044
0.554096
0.583935
0.621086
0.656519
0.696091
0.641335
0.16883
-0.137808
-0.333543
-0.464137
-0.550931
-0.610796
-0.681979
-0.672683
-0.707729
-0.79437
-0.903929
-1.00454
-1.06806
-1.0685
-0.992652
-0.851687
-0.678067
-0.509486
-0.371793
-0.274367
-0.216007
-0.191323
-0.191192
-0.202122
-0.210203
-0.207769
-0.193062
-0.170968
-0.148844
-0.132889
-0.126371
-0.13007
-0.143952
-0.168462
-0.204055
-0.249186
-0.29865
-0.344086
-0.37648
-0.388903
-0.378557
-0.347052
-0.300179
-0.245629
-0.190822
-0.140748
-0.0983366
-0.0637002
-0.0372069
-0.0168501
-0.00452845
0.469779
0.473167
0.479927
0.490646
0.505549
0.525695
0.551045
0.583935
0.62249
0.671836
0.72028
0.779232
0.747931
0.273075
-0.0474915
-0.259411
-0.405094
-0.504364
-0.575367
-0.652471
-0.666465
-0.707263
-0.794909
-0.904943
-1.00439
-1.06532
-1.06454
-0.994321
-0.864981
-0.705895
-0.551794
-0.427467
-0.342723
-0.297409
-0.286464
-0.298245
-0.315527
-0.321735
-0.312759
-0.285704
-0.248336
-0.210343
-0.179706
-0.160544
-0.153595
-0.158203
-0.174097
-0.201418
-0.238865
-0.28179
-0.322342
-0.351846
-0.363521
-0.35455
-0.326301
-0.283885
-0.234175
-0.18387
-0.137461
-0.0977024
-0.0646452
-0.0388048
-0.0183421
-0.00505992
0.475508
0.479166
0.48649
0.498117
0.514389
0.536455
0.564543
0.600979
0.644371
0.699072
0.754505
0.819481
0.80016
0.343722
0.0239363
-0.197084
-0.353081
-0.460208
-0.535952
-0.60675
-0.636234
-0.673509
-0.750355
-0.851659
-0.941371
-0.998527
-0.994345
-0.932714
-0.821921
-0.687419
-0.559218
-0.458731
-0.395066
-0.369759
-0.376944
-0.401334
-0.423542
-0.428959
-0.408179
-0.366838
-0.313482
-0.259566
-0.214455
-0.182869
-0.16544
-0.160906
-0.168219
-0.187048
-0.216228
-0.251762
-0.286563
-0.312542
-0.323354
-0.316214
-0.292113
-0.255455
-0.212218
-0.168205
-0.127264
-0.0918497
-0.0619043
-0.0381005
-0.0186795
-0.00548366
0.477534
0.48122
0.488599
0.500314
0.516718
0.538977
0.567343
0.604171
0.648111
0.703539
0.759955
0.825889
0.808831
0.355619
0.0384435
-0.180014
-0.332793
-0.435513
-0.504719
-0.556802
-0.588625
-0.615431
-0.672241
-0.745653
-0.812682
-0.849268
-0.850936
-0.803337
-0.717556
-0.614554
-0.520142
-0.452525
-0.419031
-0.421066
-0.449048
-0.484662
-0.508979
-0.508928
-0.479667
-0.42578
-0.358333
-0.290677
-0.233287
-0.191176
-0.164741
-0.152187
-0.15177
-0.162644
-0.183707
-0.21163
-0.240293
-0.262426
-0.272224
-0.267036
-0.247531
-0.21737
-0.18155
-0.144924
-0.110652
-0.0808112
-0.0552452
-0.0347616
-0.0176048
-0.00571851
0.475826
0.479293
0.486213
0.497189
0.512482
0.533182
0.559353
0.593366
0.633623
0.685082
0.736813
0.798893
0.774184
0.310548
-0.00199058
-0.206953
-0.343764
-0.430649
-0.484352
-0.514303
-0.538656
-0.551537
-0.577522
-0.611009
-0.641424
-0.65406
-0.645786
-0.609742
-0.551911
-0.487797
-0.435464
-0.408577
-0.413274
-0.446273
-0.494021
-0.53794
-0.562803
-0.557145
-0.520059
-0.456315
-0.37827
-0.300685
-0.234718
-0.185272
-0.15231
-0.133595
-0.126886
-0.130906
-0.144589
-0.165254
-0.187831
-0.206065
-0.214729
-0.211357
-0.196414
-0.172819
-0.144608
-0.115704
-0.088614
-0.0650211
-0.0447233
-0.0286192
-0.0148994
-0.00560839
0.470619
0.473646
0.479666
0.489164
0.502279
0.51981
0.541637
0.569485
0.601951
0.642827
0.683578
0.73031
0.686719
0.229564
-0.06488
-0.250015
-0.367272
-0.436308
-0.475972
-0.490834
-0.503585
-0.49516
-0.487144
-0.476173
-0.461951
-0.442678
-0.418311
-0.388565
-0.356452
-0.331751
-0.324923
-0.343512
-0.387426
-0.448284
-0.510419
-0.558035
-0.579414
-0.570611
-0.527602
-0.457096
-0.372651
-0.28984
-0.219824
-0.166901
-0.130418
-0.107773
-0.0964853
-0.0950499
-0.102453
-0.116642
-0.133562
-0.148003
-0.155438
-0.153616
-0.142776
-0.125208
-0.104112
-0.0825615
-0.0625072
-0.0452723
-0.0306885
-0.0196954
-0.0104029
-0.00493225
0.46234
0.464768
0.469535
0.477022
0.487111
0.500396
0.51605
0.535537
0.555225
0.579629
0.59237
0.611934
0.488699
-0.0122441
-0.280352
-0.410491
-0.468558
-0.487108
-0.488458
-0.490932
-0.490248
-0.453502
-0.410894
-0.360487
-0.307875
-0.259946
-0.221788
-0.195263
-0.183811
-0.192736
-0.22575
-0.28253
-0.356604
-0.434987
-0.503237
-0.550201
-0.568113
-0.553496
-0.505356
-0.430823
-0.344256
-0.26121
-0.191828
-0.13927
-0.102224
-0.0778789
-0.0637255
-0.0582559
-0.0606028
-0.0692963
-0.0812264
-0.0921706
-0.098332
-0.0976691
-0.0901673
-0.0776807
-0.0627043
-0.047596
-0.0338938
-0.0226341
-0.013759
-0.00822261
-0.00406084
-0.00344417
0.451588
0.453321
0.456629
0.461799
0.468405
0.476877
0.485523
0.495539
0.500577
0.503455
0.47649
0.419706
0.218619
-0.0811673
-0.285776
-0.39367
-0.448036
-0.474218
-0.483921
-0.485051
-0.470635
-0.417313
-0.344566
-0.2648
-0.189729
-0.129156
-0.0861314
-0.0650403
-0.0697869
-0.102549
-0.161762
-0.2409
-0.328537
-0.411069
-0.476884
-0.518347
-0.530997
-0.510761
-0.458393
-0.38257
-0.29832
-0.219927
-0.155396
-0.106395
-0.0711521
-0.0469528
-0.0314588
-0.0232676
-0.0217133
-0.0258857
-0.0335791
-0.0414438
-0.0463002
-0.0463781
-0.0413511
-0.0328199
-0.0226943
-0.0127874
-0.00439289
0.00164558
0.0052201
0.00534548
0.00401668
-0.000944312
0.439068
0.440069
0.44188
0.444642
0.447769
0.451325
0.453342
0.453872
0.446517
0.430287
0.38547
0.308791
0.173759
-0.00712621
-0.173989
-0.293489
-0.370436
-0.417224
-0.4408
-0.441529
-0.417794
-0.359443
-0.276126
-0.185142
-0.106457
-0.0481713
-0.0132981
-0.00196424
-0.0187497
-0.0638809
-0.132615
-0.215922
-0.301878
-0.378587
-0.436845
-0.47119
-0.476194
-0.449013
-0.393024
-0.319158
-0.241809
-0.172278
-0.115686
-0.0723162
-0.0403267
-0.0174598
-0.00176311
0.00800648
0.0123713
0.0117987
0.00767238
0.00250325
-0.00102483
-0.00116461
0.00186976
0.00753826
0.0141355
0.02018
0.0244763
0.0262642
0.025248
0.020358
0.0135087
0.00264015
0.425518
0.425809
0.426216
0.426703
0.426679
0.425788
0.422308
0.415228
0.40009
0.37441
0.330128
0.265334
0.177815
0.0601779
-0.0693333
-0.18047
-0.260708
-0.311667
-0.336789
-0.338098
-0.317882
-0.279047
-0.219094
-0.150916
-0.0831275
-0.0255963
0.0101496
0.0145033
-0.0108391
-0.0605929
-0.12816
-0.205063
-0.281062
-0.346204
-0.392543
-0.413882
-0.406973
-0.371944
-0.315381
-0.248511
-0.182521
-0.124609
-0.0773355
-0.0403171
-0.0121021
0.00888794
0.0240941
0.034568
0.040778
0.042926
0.0417331
0.038901
0.0365762
0.0363254
0.0384105
0.0422764
0.0465554
0.0500024
0.0514144
0.0500009
0.0452734
0.0360336
0.0238789
0.0071842
0.411644
0.411304
0.410482
0.409007
0.406347
0.401917
0.394393
0.38248
0.363629
0.335795
0.296191
0.242605
0.174444
0.087642
-0.0103627
-0.100786
-0.17059
-0.217211
-0.243088
-0.250821
-0.242186
-0.217919
-0.178261
-0.128934
-0.0787713
-0.0387788
-0.0168003
-0.0162866
-0.037525
-0.0786465
-0.134556
-0.19711
-0.256652
-0.304797
-0.332942
-0.338915
-0.321944
-0.28522
-0.235421
-0.180839
-0.128456
-0.082284
-0.0436788
-0.0124451
0.0122124
0.0312199
0.0455533
0.0561011
0.063362
0.0674399
0.068588
0.0677979
0.0666723
0.0666475
0.0682191
0.0710359
0.0739465
0.0758273
0.0754165
0.0717994
0.0642634
0.0515116
0.0344262
0.0123664
0.398077
0.397218
0.39539
0.392354
0.387655
0.380692
0.370502
0.35599
0.3357
0.308159
0.271893
0.22514
0.167324
0.0986114
0.023756
-0.0471162
-0.105132
-0.146991
-0.173423
-0.185867
-0.185093
-0.171727
-0.147183
-0.115682
-0.0839702
-0.0588651
-0.0452508
-0.0459956
-0.0621327
-0.0922393
-0.132007
-0.175157
-0.214959
-0.244323
-0.259382
-0.256723
-0.238262
-0.207235
-0.168069
-0.125893
-0.0849737
-0.047945
-0.0159984
0.0106431
0.0322841
0.0494305
0.0627042
0.0728321
0.080422
0.085697
0.0886764
0.0897321
0.089859
0.090279
0.0916602
0.0939374
0.0961638
0.0972569
0.0958645
0.0909068
0.0813618
0.065991
0.0444481
0.0177585
0.385346
0.384089
0.381487
0.377291
0.371122
0.362475
0.350654
0.334835
0.314068
0.287305
0.253583
0.212022
0.162707
0.107057
0.0482526
-0.00836748
-0.0573062
-0.0953649
-0.121832
-0.137084
-0.141677
-0.136526
-0.123339
-0.105195
-0.0862093
-0.0705402
-0.0617777
-0.0623958
-0.0731779
-0.0929296
-0.118672
-0.146322
-0.171266
-0.189122
-0.19587
-0.190577
-0.174426
-0.149335
-0.118245
-0.0846362
-0.0515087
-0.0208786
0.00616288
0.0292113
0.0483228
0.0637892
0.0760057
0.0854807
0.0928089
0.0984446
0.102553
0.105209
0.106773
0.107993
0.109493
0.111509
0.113403
0.114181
0.112392
0.106806
0.0959158
0.0787926
0.0533596
0.0228942
0.37387
0.372324
0.369162
0.364147
0.356977
0.347258
0.334482
0.318045
0.297289
0.271534
0.240255
0.203225
0.160887
0.114548
0.0663486
0.0193942
-0.0227771
-0.0574272
-0.0832726
-0.100172
-0.108593
-0.109447
-0.10416
-0.0947906
-0.0839811
-0.0746516
-0.0694734
-0.0702273
-0.0774245
-0.0903018
-0.106948
-0.124506
-0.13963
-0.149214
-0.151076
-0.144323
-0.129416
-0.107889
-0.0819509
-0.0540133
-0.0262108
-0.000106033
0.0233375
0.0436497
0.0607345
0.0747444
0.0859675
0.0947792
0.101649
0.107073
0.111434
0.114948
0.117764
0.120151
0.122306
0.124487
0.126282
0.126932
0.124994
0.119217
0.107457
0.0893326
0.0607031
0.027383
0.363959
0.362213
0.358666
0.353099
0.345276
0.334901
0.321602
0.304951
0.28451
0.259894
0.230883
0.197552
0.160393
0.120432
0.079221
0.0388675
0.00180969
-0.0298165
-0.0547354
-0.0725895
-0.0836646
-0.0886672
-0.0886675
-0.0851427
-0.0799838
-0.0752813
-0.0729117
-0.0741262
-0.0793144
-0.087947
-0.0986339
-0.109386
-0.118013
-0.122037
-0.1204
-0.112289
-0.0980411
-0.0788169
-0.056183
-0.0318901
-0.00758691
0.0154342
0.0363155
0.0545866
0.0700873
0.0828882
0.0932105
0.101367
0.107749
0.112812
0.116994
0.120647
0.123992
0.127252
0.130177
0.132997
0.135138
0.135958
0.134024
0.128279
0.115943
0.0973496
0.0662962
0.0309894
0.355832
0.353955
0.350154
0.344231
0.336
0.325244
0.311698
0.295067
0.275078
0.251535
0.224392
0.193828
0.160324
0.124719
0.0882445
0.0524785
0.0191887
-0.0100142
-0.0340318
-0.0524122
-0.0652512
-0.0730441
-0.0766098
-0.0770772
-0.07584
-0.0743877
-0.0740441
-0.0757058
-0.0796608
-0.0855369
-0.0923639
-0.0987115
-0.103003
-0.103615
-0.0996529
-0.0905851
-0.0766606
-0.0587541
-0.038111
-0.0161371
0.00583609
0.0267326
0.0457967
0.0625768
0.0768819
0.0887303
0.0982964
0.105863
0.111786
0.116479
0.120376
0.123865
0.127212
0.130539
0.134038
0.137367
0.139967
0.141234
0.139528
0.134041
0.121399
0.102678
0.0700294
0.0334539
0.349635
0.347675
0.343717
0.337576
0.329105
0.318146
0.304511
0.288002
0.268451
0.245772
0.22001
0.191394
0.160387
0.12773
0.0944441
0.0617812
0.0310946
0.00363803
-0.019654
-0.0382972
-0.0522571
-0.0618744
-0.0677907
-0.0708917
-0.0722341
-0.0729216
-0.0739335
-0.0759452
-0.0791927
-0.0834169
-0.0878957
-0.0915422
-0.0931529
-0.0915772
-0.0860768
-0.0763019
-0.0624796
-0.0453468
-0.025947
-0.00544751
0.015028
0.0345355
0.0523809
0.0681286
0.0815766
0.0927187
0.101704
0.108791
0.114324
0.118696
0.122328
0.125615
0.12885
0.132216
0.135749
0.139233
0.142002
0.143509
0.14194
0.13673
0.123958
0.105295
0.0718307
0.0346306
0.34546
0.343452
0.339404
0.333141
0.324541
0.313486
0.299837
0.283453
0.264231
0.242145
0.217288
0.189918
0.160488
0.129673
0.0983625
0.0676114
0.0385391
0.0121944
-0.0105979
-0.0293535
-0.0439676
-0.0546816
-0.0620175
-0.0667041
-0.0695984
-0.0715839
-0.0734438
-0.0757245
-0.0786231
-0.0819301
-0.085049
-0.0871148
-0.0871634
-0.0842812
-0.0778517
-0.0676319
-0.053851
-0.0371552
-0.018463
0.00118493
0.020773
0.0394351
0.0565217
0.0716143
0.084509
0.0951869
0.103781
0.110538
0.115793
0.11993
0.123363
0.126487
0.12961
0.132935
0.136448
0.139971
0.142793
0.14437
0.142793
0.137677
0.124766
0.106138
0.072337
0.034905
0.343364
0.341334
0.337245
0.330928
0.322273
0.31118
0.297536
0.281228
0.262179
0.240392
0.215984
0.189224
0.160558
0.130629
0.100262
0.0704187
0.0421152
0.0163092
-0.00622906
-0.0250222
-0.0399356
-0.0511625
-0.059164
-0.0645944
-0.0682196
-0.070824
-0.073099
-0.0755247
-0.0782719
-0.081156
-0.0836474
-0.0849797
-0.0843055
-0.0808236
-0.0739703
-0.0635425
-0.0497702
-0.0332637
-0.0148926
0.00435808
0.0235272
0.0417885
0.0585137
0.0732908
0.0859153
0.0963629
0.10476
0.111348
0.116456
0.120469
0.123797
0.126834
0.129897
0.133191
0.136691
0.140226
0.143076
0.144683
0.143105
0.138004
0.125027
0.106357
0.0724966
0.0348805
)
;

boundaryField
{
    inlet
    {
        type            zeroGradient;
    }
    outlet
    {
        type            fixedValue;
        value           uniform 0;
    }
    top
    {
        type            symmetryPlane;
    }
    bottom
    {
        type            symmetryPlane;
    }
    frontAndBack
    {
        type            empty;
    }
}


// ************************************************************************* //
