/*--------------------------------*- C++ -*----------------------------------*\
  =========                 |
  \\      /  F ield         | OpenFOAM: The Open Source CFD Toolbox
   \\    /   O peration     | Website:  https://openfoam.org
    \\  /    A nd           | Version:  10
     \\/     M anipulation  |
\*---------------------------------------------------------------------------*/
FoamFile
{
    format      ascii;
    class       volScalarField;
    location    "0.054";
    object      T;
}
// * * * * * * * * * * * * * * * * * * * * * * * * * * * * * * * * * * * * * //

dimensions      [0 0 0 1 0 0 0];

internalField   nonuniform List<scalar> 
12225
(
1.00078
0.99983
1.00012
1.00011
1.00018
1.00045
1.00048
1.00029
1.00024
1.00036
1.00043
1.00034
1.00014
0.999808
0.999346
0.998392
0.995893
0.991231
1.00003
0.999827
1.00006
1.00005
1.00011
1.00041
1.0005
1.00033
1.00023
1.00031
1.00039
1.00031
1.00012
0.999796
0.999303
0.998371
0.996205
0.992099
0.999764
1.00012
1.00024
1.00008
1.0001
1.00037
1.00045
1.00029
1.0002
1.00026
1.00032
1.00024
1.0001
0.999847
0.999421
0.99859
0.996705
0.993361
1.00007
1.00003
1.00016
1.0001
1.00011
1.00032
1.0004
1.00028
1.00022
1.0003
1.00036
1.00031
1.00016
0.999905
0.999454
0.998667
0.997124
0.994589
1.00009
1.00028
1.00054
1.00023
1.00008
1.00033
1.00048
1.00036
1.00024
1.00025
1.00027
1.00021
1.00007
0.999867
0.999517
0.99892
0.997765
0.995875
0.999792
1.00009
1.00049
1.00028
1.00011
1.00027
1.00034
1.00022
1.00017
1.00024
1.0003
1.00027
1.00015
0.999965
0.999657
0.999143
0.998242
0.996826
0.999775
1.00037
1.00097
1.00049
1.00007
1.00026
1.00043
1.00036
1.00027
1.00025
1.00023
1.00017
1.00005
0.999905
0.999668
0.999273
0.998608
0.997561
1.00009
1.00051
1.00094
1.00043
1.00008
1.00025
1.00031
1.00018
1.00011
1.00017
1.00023
1.00021
1.00014
1.00002
0.999826
0.999511
0.999009
0.998236
0.998855
1.00088
1.00126
1.00046
0.999973
1.00016
1.00035
1.00032
1.00025
1.00023
1.0002
1.00012
1.00003
0.999937
0.9998
0.99957
0.999208
0.998644
0.999599
1.00093
1.00109
1.00044
1.00005
1.00017
1.00024
1.0001
1.00002
1.00007
1.00013
1.00014
1.00011
1.00006
0.999973
0.999806
0.999538
0.99914
0.998572
1.0006
1.00111
1.00033
0.999871
1.00008
1.00029
1.00025
1.00019
1.00019
1.00017
1.0001
1.00001
0.999941
0.999856
0.99973
0.999534
0.99926
1.00011
1.00078
1.00092
1.00036
0.999945
1.00006
1.00014
1.00001
0.999937
0.999982
1.00006
1.00009
1.00009
1.00007
1.00003
0.999953
0.999826
0.999625
0.998767
1.00066
1.00065
1.00025
0.999877
1.00001
1.00019
1.00015
1.0001
1.00011
1.00009
1.00004
0.999985
0.999944
0.99991
0.99985
0.999758
0.999617
1.00051
1.00017
0.999747
0.999892
0.999828
0.999884
0.999944
0.999884
0.999844
0.999892
0.999966
1.00002
1.00003
1.00004
1.00003
1.00001
0.999944
0.999887
0.999766
0.999123
0.99988
1.00044
1.00028
1.00009
1.00006
1.00008
1.00009
1.00008
1.00006
1.00004
0.999998
0.999961
0.999924
0.999898
0.999845
0.999798
1.00358
1.00016
0.999478
0.999135
0.999199
0.999423
0.999583
0.999723
0.999825
0.999862
0.999896
0.999957
1.00003
1.00007
1.0001
1.00011
1.00011
1.0001
0.998925
0.998094
0.998226
0.999189
0.999912
1.00019
1.00014
1.00005
1.00001
0.999986
0.999978
0.999983
0.999974
0.999958
0.999947
0.999948
0.999946
0.999949
1.00101
1.00005
0.999707
0.999502
0.99937
0.999427
0.999517
0.999607
0.999723
0.999868
0.999985
1.00004
1.00005
1.00008
1.00012
1.00016
1.00019
1.00022
0.998494
0.999983
1.00047
1.00037
1.00058
1.00076
1.00072
1.00065
1.0006
1.00057
1.00057
1.00057
1.00056
1.00054
1.00052
1.00049
1.00045
1.00041
1.00062
1.00247
1.00239
1.0013
1.00084
1.00062
1.00051
1.00048
1.00044
1.00037
1.00033
1.00029
1.00027
1.00028
1.0003
1.00033
1.00036
1.00039
0.998269
1.00068
1.00172
1.00135
1.00105
1.0009
1.00092
1.00096
1.0009
1.00081
1.00078
1.00078
1.00077
1.00074
1.0007
1.00066
1.00062
1.00058
0.998786
1.00001
1.00127
1.00127
1.00067
1.00056
1.00073
1.00068
1.00053
1.00052
1.00055
1.00053
1.0005
1.00048
1.00048
1.0005
1.00051
1.00052
1.00022
0.999391
1.00003
1.00066
1.00056
1.00055
1.0007
1.00072
1.0007
1.00075
1.0008
1.00075
1.00068
1.00066
1.00066
1.00065
1.00061
1.00058
0.999903
0.9998
1.00049
1.0009
1.00068
1.00055
1.00061
1.00063
1.00057
1.00052
1.0005
1.00048
1.00049
1.00052
1.00054
1.00056
1.00057
1.00058
0.999794
1.00045
1.0005
1.00049
1.00033
1.00028
1.00045
1.00062
1.00068
1.00069
1.00069
1.00067
1.00066
1.00067
1.00065
1.00062
1.00059
1.00057
0.998757
1.00083
1.00083
1.0007
1.00059
1.00055
1.00064
1.00065
1.00058
1.00054
1.00056
1.00058
1.00056
1.00056
1.00057
1.0006
1.00063
1.00065
0.99936
1.00107
1.00082
1.00038
1.0003
1.00037
1.00054
1.00062
1.00059
1.00058
1.00065
1.00072
1.00072
1.00068
1.00063
1.00059
1.00056
1.00055
0.999242
1.00085
1.00085
1.00061
1.0006
1.0006
1.00064
1.00063
1.00055
1.00049
1.00051
1.00055
1.00057
1.00057
1.00058
1.00059
1.0006
1.00061
0.998611
1.00033
1.00053
1.00047
1.00051
1.00054
1.00059
1.0006
1.00056
1.00055
1.00062
1.00068
1.0007
1.00066
1.00061
1.00055
1.00052
1.00052
0.999703
1.00021
1.00065
1.00068
1.00061
1.00057
1.0006
1.0006
1.00054
1.00053
1.0006
1.00068
1.00071
1.00067
1.00061
1.00057
1.00054
1.00058
0.816577
0.816643
0.81642
0.815942
0.815988
0.816555
0.817061
0.81765
0.818057
0.817932
0.817422
0.816771
0.816087
0.815389
0.814666
0.813905
0.813099
0.812244
0.811345
0.810402
0.809428
0.808415
0.807371
0.806291
0.805202
0.80419
0.803268
0.802406
0.801629
0.800979
0.8005
0.800163
0.799585
0.797677
0.794026
0.789487
0.784714
0.780825
0.777167
0.774184
0.771504
0.767841
0.76591
0.763911
0.761438
0.759509
0.758339
0.757999
0.756503
0.754395
0.753558
0.754371
0.758734
0.762796
0.764361
0.76457
0.764601
0.764999
0.765712
0.766646
0.767702
0.768814
0.769945
0.771082
0.772218
0.773358
0.774502
0.775654
0.776814
0.777984
0.779163
0.780351
0.781545
0.782743
0.783953
0.785193
0.78644
0.787678
0.788919
0.790161
0.791405
0.79265
0.793897
0.795144
0.796393
0.797646
0.798904
0.800171
0.801453
0.802757
0.804092
0.805459
0.806862
0.808308
0.809801
0.811325
0.812837
0.8143
0.815724
0.817138
0.818501
0.819688
0.820669
0.821603
0.822477
0.822903
0.823027
0.823174
0.823321
0.8236
0.824439
0.826686
0.830274
0.830404
0.823499
0.817933
0.817651
0.814585
0.809582
0.804451
0.796773
0.787293
0.77635
0.763399
0.749126
0.735063
0.722619
0.712608
0.705455
0.701259
0.699653
0.699966
0.701481
0.703617
0.706043
0.708666
0.711546
0.714781
0.718382
0.72225
0.726395
0.730722
0.734895
0.738446
0.740925
0.742324
0.742951
0.743219
0.743693
0.745037
0.747125
0.748516
0.7491
0.749344
0.749419
0.749444
0.749476
0.749495
0.749463
0.749365
0.749114
0.748689
0.748228
0.747534
0.746531
0.745755
0.7448
0.743398
0.74304
0.743122
0.742423
0.743174
0.745626
0.745101
0.742414
0.745451
0.752667
0.750427
0.742411
0.741911
0.816023
0.816042
0.816004
0.815495
0.815363
0.815806
0.81652
0.816923
0.816835
0.816352
0.815687
0.815006
0.814357
0.813725
0.813078
0.812393
0.811657
0.810866
0.810026
0.80915
0.808248
0.807335
0.806403
0.805444
0.804426
0.803278
0.802048
0.800821
0.799665
0.798636
0.797802
0.797162
0.796583
0.795228
0.792703
0.789902
0.786248
0.781751
0.777807
0.775079
0.771579
0.768039
0.765526
0.763422
0.760613
0.757521
0.756398
0.752502
0.752264
0.754092
0.752586
0.75105
0.755489
0.760207
0.761654
0.761776
0.761933
0.76245
0.763297
0.764372
0.765588
0.766866
0.76816
0.769443
0.770705
0.771952
0.773186
0.774415
0.775645
0.776879
0.778122
0.779378
0.780651
0.781943
0.783238
0.784509
0.785768
0.787031
0.788295
0.789565
0.790842
0.792124
0.793409
0.794695
0.795977
0.797254
0.798524
0.799789
0.801053
0.802325
0.803621
0.804954
0.806336
0.807783
0.809304
0.810884
0.812485
0.814063
0.815611
0.817146
0.81864
0.819976
0.821094
0.822132
0.823191
0.823941
0.824206
0.824184
0.823893
0.823512
0.824042
0.826054
0.829047
0.829074
0.822527
0.816319
0.815582
0.814433
0.810485
0.804573
0.796402
0.78711
0.776392
0.763454
0.749181
0.735149
0.722647
0.712592
0.705441
0.701219
0.699525
0.699687
0.700999
0.70291
0.705123
0.707578
0.71036
0.713599
0.717349
0.721511
0.725847
0.730304
0.734716
0.738565
0.741267
0.742771
0.743471
0.743871
0.744554
0.746134
0.748375
0.749751
0.750302
0.750505
0.750533
0.750509
0.750489
0.750454
0.750377
0.750227
0.74991
0.749458
0.748998
0.748243
0.747176
0.746436
0.74544
0.743886
0.743602
0.743829
0.742989
0.743822
0.746661
0.746348
0.743734
0.746113
0.75179
0.748953
0.743298
0.743373
0.819016
0.819142
0.819023
0.819021
0.818729
0.818321
0.817767
0.817018
0.816226
0.815542
0.815004
0.814553
0.814106
0.813607
0.813033
0.812379
0.811639
0.81081
0.809891
0.808884
0.807803
0.806676
0.805541
0.804443
0.803386
0.802322
0.801162
0.79984
0.798371
0.796859
0.795398
0.794038
0.792852
0.791651
0.790277
0.788732
0.786452
0.783547
0.780346
0.776934
0.7734
0.769581
0.766642
0.765129
0.761865
0.760079
0.758202
0.756182
0.752187
0.753686
0.754387
0.754216
0.755301
0.756339
0.756812
0.75742
0.758486
0.759931
0.76159
0.763269
0.764869
0.766348
0.767711
0.768987
0.770201
0.771377
0.77253
0.773676
0.77482
0.775968
0.777122
0.778287
0.779468
0.780675
0.781903
0.783145
0.784406
0.785682
0.78697
0.78827
0.789581
0.7909
0.792226
0.793557
0.794889
0.796222
0.797557
0.798896
0.800244
0.801609
0.802999
0.804424
0.805898
0.807434
0.809043
0.81072
0.812434
0.814144
0.815824
0.817467
0.819052
0.820544
0.821922
0.823189
0.82432
0.825249
0.825898
0.826079
0.825565
0.824654
0.824698
0.826489
0.829059
0.828443
0.822149
0.816118
0.81547
0.815959
0.812366
0.805254
0.796295
0.78616
0.774442
0.760997
0.746756
0.733016
0.720937
0.711274
0.704401
0.700334
0.698718
0.698936
0.700319
0.702336
0.704669
0.707207
0.710002
0.713156
0.716721
0.720662
0.724925
0.729548
0.734331
0.738669
0.741721
0.743369
0.744164
0.744798
0.745907
0.747982
0.750463
0.751967
0.752583
0.752778
0.752749
0.752635
0.752519
0.752401
0.752222
0.751974
0.751599
0.751036
0.750431
0.74967
0.748538
0.747551
0.746576
0.745112
0.744424
0.74477
0.744642
0.74523
0.747875
0.748589
0.747071
0.748825
0.753575
0.752498
0.747728
0.745787
0.82029
0.82054
0.82097
0.820487
0.819591
0.818938
0.818681
0.818633
0.81857
0.818413
0.818176
0.817859
0.817436
0.81688
0.816187
0.815369
0.81444
0.813417
0.812313
0.811139
0.809899
0.808601
0.807252
0.805858
0.804464
0.803162
0.80193
0.800666
0.799281
0.79771
0.795977
0.794132
0.792245
0.790445
0.788799
0.787247
0.785584
0.783863
0.781654
0.778789
0.77591
0.772114
0.769484
0.766612
0.763527
0.762688
0.759782
0.758264
0.756891
0.75567
0.754558
0.754251
0.754916
0.755932
0.756874
0.757855
0.758982
0.760253
0.76159
0.762916
0.764187
0.765388
0.766521
0.767611
0.768676
0.769738
0.770807
0.771891
0.772989
0.774101
0.775221
0.776353
0.7775
0.77868
0.779899
0.781137
0.782394
0.783676
0.784988
0.786328
0.787696
0.789085
0.79049
0.791902
0.793312
0.794713
0.796105
0.797488
0.798872
0.800266
0.801685
0.803143
0.80466
0.806258
0.807954
0.80975
0.811617
0.813501
0.815347
0.817118
0.818798
0.820412
0.82201
0.823596
0.825013
0.826158
0.827248
0.828296
0.828397
0.827387
0.826641
0.827643
0.829685
0.828541
0.821893
0.81588
0.815196
0.815689
0.812366
0.805258
0.795703
0.784825
0.772677
0.759206
0.745173
0.731777
0.720084
0.710732
0.704077
0.700148
0.698619
0.6989
0.700337
0.702388
0.704707
0.707151
0.709733
0.712522
0.715619
0.719209
0.723303
0.727848
0.732907
0.737905
0.741602
0.743633
0.744676
0.74572
0.747519
0.750309
0.753066
0.754812
0.755593
0.755872
0.75588
0.755751
0.755562
0.755327
0.755008
0.754594
0.754055
0.75334
0.752569
0.75167
0.750435
0.749284
0.748221
0.746788
0.746025
0.746476
0.74684
0.747655
0.7505
0.751914
0.750936
0.752489
0.756436
0.755527
0.750746
0.748435
0.823999
0.82442
0.82364
0.822741
0.822498
0.822484
0.82238
0.822304
0.82225
0.822067
0.821652
0.820987
0.820104
0.819046
0.817848
0.816532
0.815106
0.813575
0.811951
0.810261
0.808556
0.806893
0.805334
0.803965
0.802837
0.801891
0.801088
0.80038
0.799599
0.798505
0.796961
0.795014
0.79275
0.790362
0.788134
0.786256
0.784663
0.783242
0.781524
0.779559
0.777396
0.77442
0.772237
0.768941
0.766822
0.765037
0.764231
0.760063
0.757305
0.755309
0.754325
0.754478
0.755457
0.756698
0.757744
0.75857
0.759249
0.759918
0.760644
0.761463
0.762352
0.763296
0.764271
0.765275
0.766301
0.767349
0.768414
0.769493
0.770579
0.771669
0.772762
0.773866
0.774988
0.776139
0.777318
0.778522
0.779759
0.781048
0.782396
0.783803
0.785265
0.786774
0.788317
0.789877
0.791435
0.792976
0.794489
0.795972
0.79743
0.798878
0.800335
0.80183
0.803395
0.805072
0.806895
0.808881
0.811011
0.813211
0.81537
0.817398
0.819252
0.820972
0.822629
0.824289
0.825806
0.827035
0.82789
0.82897
0.829719
0.8291
0.82816
0.82889
0.830778
0.829734
0.823362
0.817268
0.815924
0.815895
0.812609
0.805051
0.794789
0.78365
0.771536
0.758166
0.744331
0.731275
0.719944
0.710908
0.70447
0.700657
0.699179
0.699457
0.700818
0.7027
0.704737
0.706729
0.708618
0.710532
0.712777
0.715681
0.719197
0.723264
0.728557
0.734698
0.739722
0.742659
0.744226
0.745898
0.748649
0.752421
0.755781
0.757921
0.758867
0.759162
0.759163
0.759038
0.758852
0.758596
0.758204
0.757665
0.756996
0.756158
0.755224
0.75421
0.752956
0.751677
0.750521
0.749179
0.748396
0.748944
0.749879
0.751222
0.754339
0.75642
0.756215
0.757825
0.760677
0.759234
0.754678
0.751183
0.828485
0.827895
0.826326
0.825885
0.825779
0.82572
0.825542
0.825116
0.824462
0.82367
0.82278
0.821778
0.820637
0.819344
0.817897
0.816299
0.814558
0.812685
0.810712
0.808682
0.806653
0.8047
0.802931
0.801439
0.800335
0.799562
0.798896
0.798177
0.797404
0.796563
0.795441
0.793865
0.791891
0.789657
0.787286
0.785077
0.783268
0.781793
0.780391
0.778927
0.776793
0.774401
0.771931
0.768791
0.766272
0.764504
0.761939
0.7583
0.756125
0.754643
0.754229
0.754637
0.755423
0.756242
0.756865
0.757315
0.757692
0.758137
0.758722
0.759476
0.760353
0.76131
0.762292
0.763273
0.764234
0.765178
0.766108
0.767034
0.767971
0.768935
0.769939
0.770987
0.772063
0.773134
0.774219
0.775379
0.776631
0.777975
0.779409
0.780927
0.782523
0.784185
0.785895
0.787627
0.789353
0.791048
0.792693
0.794279
0.795808
0.797294
0.798774
0.800302
0.801932
0.803714
0.805686
0.80787
0.81026
0.812785
0.8153
0.817684
0.819851
0.821837
0.823688
0.825521
0.827298
0.828888
0.82976
0.830271
0.831184
0.831131
0.83016
0.830601
0.832302
0.831297
0.825232
0.818937
0.816972
0.816272
0.812556
0.804455
0.793943
0.782942
0.77096
0.757691
0.744196
0.731644
0.720702
0.711918
0.705547
0.701653
0.699999
0.700028
0.701062
0.702501
0.703892
0.704957
0.705753
0.706776
0.708558
0.711043
0.713785
0.717292
0.722991
0.730728
0.737511
0.741707
0.743931
0.746159
0.749634
0.754273
0.75862
0.761516
0.762862
0.763268
0.763228
0.762997
0.762694
0.762324
0.761821
0.761154
0.760353
0.759415
0.758373
0.757266
0.755978
0.754567
0.753254
0.751911
0.751101
0.75192
0.753703
0.755662
0.759192
0.762259
0.762789
0.76394
0.766338
0.764775
0.76032
0.755224
0.828566
0.827867
0.827543
0.827929
0.82807
0.827568
0.826802
0.82602
0.825215
0.824347
0.823303
0.821936
0.820169
0.818031
0.815632
0.813096
0.810523
0.807982
0.805538
0.803264
0.801211
0.799468
0.798093
0.797004
0.796277
0.795913
0.795617
0.795145
0.794515
0.793846
0.792979
0.791541
0.789485
0.787212
0.784982
0.782941
0.781268
0.779854
0.778462
0.776841
0.77479
0.77283
0.770042
0.7674
0.764951
0.763191
0.75959
0.756606
0.755024
0.753953
0.753679
0.753863
0.754189
0.754586
0.754973
0.755423
0.755982
0.756678
0.757475
0.758326
0.75917
0.759967
0.760691
0.761352
0.76197
0.762586
0.763233
0.763947
0.764751
0.765657
0.766664
0.767744
0.768834
0.769921
0.771086
0.772352
0.773704
0.77513
0.77662
0.778176
0.779795
0.781476
0.78321
0.784982
0.786772
0.788555
0.790313
0.792044
0.793755
0.795461
0.797179
0.798938
0.800763
0.802683
0.804738
0.80698
0.809464
0.812162
0.814903
0.817522
0.819896
0.822069
0.824069
0.826111
0.828361
0.83053
0.832235
0.832712
0.83337
0.8339
0.832981
0.832861
0.83414
0.832901
0.826991
0.820481
0.817845
0.816547
0.812316
0.803827
0.793373
0.782695
0.770875
0.757835
0.744968
0.733036
0.722321
0.713468
0.70688
0.702664
0.700661
0.700323
0.700878
0.701575
0.701882
0.701686
0.701443
0.702
0.703931
0.706678
0.7092
0.712567
0.718874
0.728043
0.736346
0.741833
0.744751
0.747456
0.751475
0.756675
0.761762
0.765319
0.767127
0.767841
0.76799
0.767815
0.767443
0.766921
0.766219
0.765335
0.76433
0.763231
0.762039
0.760761
0.759315
0.757715
0.756186
0.754853
0.754297
0.755521
0.758194
0.761072
0.765051
0.768757
0.770256
0.770977
0.7729
0.771302
0.766895
0.76083
0.831593
0.831377
0.831198
0.830936
0.830229
0.829307
0.828478
0.827641
0.826591
0.82517
0.823182
0.82058
0.817517
0.814224
0.810893
0.80763
0.804474
0.801452
0.798637
0.796137
0.794072
0.792594
0.791766
0.79133
0.790987
0.790733
0.790499
0.790136
0.789686
0.789301
0.788784
0.787769
0.786233
0.784407
0.782469
0.780659
0.779136
0.777707
0.776235
0.774635
0.772831
0.770704
0.767807
0.765317
0.763319
0.761501
0.757868
0.755477
0.754075
0.753027
0.752625
0.752552
0.752698
0.753093
0.753641
0.754342
0.755108
0.755867
0.756546
0.757114
0.757572
0.757952
0.758294
0.758647
0.759054
0.759556
0.760182
0.760952
0.761867
0.762906
0.764021
0.765173
0.766385
0.767666
0.768972
0.770293
0.771637
0.77301
0.774425
0.77589
0.777409
0.778989
0.780646
0.782392
0.784215
0.786087
0.787983
0.789903
0.791863
0.793852
0.795824
0.797745
0.799618
0.801492
0.803487
0.805724
0.808341
0.811364
0.814567
0.817657
0.820375
0.822716
0.824837
0.827103
0.829978
0.832607
0.834764
0.835737
0.836033
0.836888
0.836462
0.835918
0.836796
0.835345
0.829002
0.821596
0.817699
0.815774
0.811388
0.803092
0.793143
0.782988
0.771429
0.758777
0.746604
0.735164
0.724482
0.715208
0.708174
0.703564
0.7012
0.700402
0.700192
0.699716
0.698667
0.697425
0.696755
0.697384
0.699755
0.703329
0.706435
0.709505
0.715786
0.725706
0.735588
0.742563
0.746121
0.749233
0.754034
0.760364
0.766295
0.770063
0.771803
0.772541
0.772838
0.77281
0.77253
0.772011
0.771204
0.770127
0.76889
0.76757
0.766154
0.764636
0.763008
0.761265
0.759578
0.758271
0.758044
0.759753
0.763288
0.767187
0.771623
0.775644
0.77802
0.7786
0.779831
0.778433
0.774232
0.767745
0.835486
0.834955
0.8345
0.834013
0.833253
0.832352
0.83129
0.829915
0.828184
0.825977
0.823209
0.82005
0.816719
0.813381
0.810113
0.806894
0.803679
0.800479
0.797396
0.794554
0.792059
0.790148
0.788985
0.788225
0.787406
0.786685
0.786256
0.785938
0.785675
0.785485
0.785005
0.783929
0.782407
0.780723
0.779019
0.777441
0.776037
0.774663
0.773308
0.771885
0.77012
0.767771
0.765515
0.763449
0.761869
0.759526
0.756421
0.754443
0.753053
0.751948
0.751479
0.751328
0.75153
0.752023
0.752642
0.753311
0.753904
0.754391
0.754767
0.755072
0.755353
0.755655
0.75601
0.756432
0.756931
0.757514
0.758187
0.758957
0.759823
0.760769
0.761772
0.762835
0.763981
0.76519
0.766412
0.767642
0.768914
0.770257
0.771696
0.773241
0.774891
0.776641
0.778494
0.780448
0.782476
0.784526
0.786544
0.788497
0.79038
0.792189
0.793924
0.79564
0.797416
0.799332
0.801518
0.804095
0.807136
0.810654
0.814441
0.818085
0.821258
0.823902
0.826317
0.828915
0.832402
0.835827
0.838109
0.839432
0.8396
0.840268
0.840433
0.839659
0.840256
0.839256
0.832899
0.824307
0.818348
0.815234
0.810722
0.80285
0.793685
0.78411
0.772831
0.760582
0.748909
0.737712
0.726907
0.717154
0.709533
0.704497
0.701691
0.700187
0.698854
0.696976
0.694784
0.693164
0.69279
0.69386
0.696587
0.700862
0.70415
0.706102
0.711718
0.722299
0.734343
0.743017
0.747406
0.751048
0.756645
0.764241
0.771711
0.77603
0.77749
0.777857
0.778044
0.778001
0.777687
0.777111
0.776202
0.774974
0.773559
0.772063
0.770485
0.76882
0.767089
0.765243
0.763347
0.761972
0.762108
0.764499
0.768893
0.773692
0.778577
0.782784
0.785582
0.786237
0.786498
0.785259
0.781625
0.775304
0.840059
0.839762
0.839385
0.838686
0.837581
0.836315
0.834847
0.833172
0.831189
0.828679
0.825746
0.822666
0.819505
0.816331
0.813175
0.809948
0.806581
0.803122
0.799707
0.796484
0.793585
0.791202
0.78945
0.788241
0.787259
0.786278
0.785356
0.784401
0.783472
0.782677
0.781686
0.78026
0.778527
0.776717
0.775029
0.773597
0.772404
0.771324
0.770274
0.769074
0.767513
0.765646
0.764038
0.762313
0.760425
0.757648
0.755093
0.753262
0.751855
0.750771
0.750299
0.750124
0.750339
0.750773
0.75128
0.751797
0.752259
0.752695
0.753121
0.753562
0.754012
0.754459
0.754881
0.755258
0.755579
0.755863
0.756157
0.756529
0.75703
0.757688
0.758498
0.759404
0.76037
0.761451
0.76265
0.763942
0.765322
0.766809
0.768437
0.770233
0.772204
0.774335
0.776591
0.778922
0.781272
0.783566
0.785727
0.787684
0.78942
0.791019
0.792638
0.794436
0.796539
0.798999
0.801827
0.805096
0.808698
0.812496
0.81639
0.820095
0.823478
0.826431
0.828897
0.831419
0.834617
0.838353
0.84118
0.842844
0.843361
0.843918
0.844451
0.843697
0.843947
0.843671
0.838361
0.829762
0.822609
0.817919
0.812355
0.804326
0.795695
0.786413
0.775199
0.763191
0.751776
0.740621
0.72961
0.719434
0.711151
0.70556
0.702115
0.69965
0.697036
0.693894
0.691104
0.689811
0.690166
0.691307
0.693449
0.697923
0.701549
0.702802
0.707989
0.719564
0.733514
0.743332
0.748725
0.753169
0.759392
0.767971
0.777241
0.782402
0.783594
0.78364
0.783649
0.783553
0.783156
0.782426
0.781303
0.779848
0.778251
0.776637
0.774981
0.773244
0.771444
0.769433
0.767192
0.765782
0.766523
0.769773
0.774943
0.780505
0.785817
0.790264
0.793197
0.794012
0.793427
0.791779
0.788385
0.782484
0.845557
0.845094
0.844528
0.843606
0.84238
0.841182
0.839779
0.838043
0.835842
0.833052
0.82993
0.826706
0.823443
0.820193
0.81692
0.813508
0.809909
0.806189
0.802518
0.799057
0.795892
0.793155
0.791
0.789473
0.788328
0.787238
0.78612
0.784893
0.783529
0.782068
0.780515
0.778908
0.777337
0.775898
0.774653
0.773611
0.772687
0.771702
0.770543
0.76907
0.767156
0.765151
0.763046
0.76089
0.758637
0.755981
0.75362
0.75184
0.750432
0.749436
0.748966
0.748783
0.748992
0.749383
0.749894
0.750477
0.751095
0.75174
0.752367
0.752933
0.753381
0.753669
0.753772
0.7537
0.753508
0.753309
0.753238
0.753396
0.753825
0.754516
0.755436
0.756486
0.75759
0.758821
0.760163
0.761549
0.762966
0.764448
0.766057
0.76785
0.769861
0.772085
0.774488
0.777011
0.779583
0.78212
0.784536
0.786769
0.788825
0.790831
0.792989
0.795414
0.798138
0.801158
0.804343
0.807661
0.811069
0.814523
0.818139
0.82209
0.826208
0.829668
0.831812
0.833742
0.836405
0.839864
0.843407
0.845789
0.846764
0.847393
0.848208
0.847761
0.847538
0.847645
0.843821
0.836277
0.829042
0.823007
0.815994
0.807608
0.799239
0.789941
0.778543
0.766567
0.755239
0.74402
0.732738
0.722117
0.713206
0.706842
0.702527
0.698981
0.695164
0.691105
0.688218
0.687632
0.688566
0.689149
0.690332
0.694974
0.6999
0.70132
0.706112
0.718706
0.734022
0.744513
0.750727
0.756234
0.762748
0.771644
0.782448
0.789193
0.789818
0.789432
0.7893
0.789089
0.788632
0.787845
0.78659
0.784951
0.783188
0.781459
0.779731
0.777931
0.776012
0.773681
0.771107
0.769879
0.771374
0.775492
0.781343
0.787574
0.793257
0.797814
0.800609
0.801384
0.800235
0.797935
0.794447
0.788837
0.851418
0.850965
0.850419
0.849445
0.848079
0.846604
0.84488
0.842807
0.84025
0.837211
0.833901
0.830448
0.826947
0.823491
0.820093
0.816682
0.81318
0.809595
0.806019
0.80254
0.799225
0.796221
0.793685
0.791647
0.790024
0.788714
0.787553
0.786417
0.785232
0.783953
0.782591
0.781197
0.779823
0.778539
0.777336
0.77606
0.774601
0.772844
0.770738
0.76828
0.765611
0.762952
0.760267
0.757991
0.756067
0.753895
0.751708
0.750099
0.748791
0.747941
0.747512
0.747401
0.747681
0.748154
0.74881
0.749573
0.750371
0.75111
0.751691
0.752061
0.752203
0.752131
0.751878
0.75152
0.751186
0.751008
0.751052
0.751323
0.751812
0.752511
0.753419
0.754571
0.755975
0.757414
0.758784
0.760082
0.761342
0.762642
0.764085
0.765753
0.767693
0.769901
0.772334
0.774936
0.777635
0.780352
0.783012
0.7856
0.788163
0.790706
0.793342
0.796136
0.798994
0.801873
0.804717
0.807498
0.810387
0.813707
0.817833
0.823025
0.828513
0.832486
0.834285
0.835748
0.838536
0.84218
0.846236
0.849325
0.850627
0.850909
0.851506
0.851387
0.850717
0.850634
0.848162
0.842268
0.835387
0.828116
0.820056
0.811766
0.803724
0.794387
0.782769
0.770712
0.75938
0.748044
0.73643
0.725317
0.715772
0.708473
0.703101
0.698502
0.69369
0.689095
0.686428
0.686508
0.687563
0.687504
0.687961
0.693106
0.699606
0.701126
0.705612
0.719238
0.73573
0.74706
0.754005
0.760516
0.767276
0.775882
0.787332
0.795892
0.796264
0.795103
0.794963
0.794656
0.794025
0.793169
0.791852
0.790099
0.78821
0.786402
0.784632
0.782764
0.780694
0.778012
0.775223
0.7743
0.776553
0.781535
0.788044
0.794756
0.800604
0.805027
0.807427
0.807771
0.806033
0.803026
0.799359
0.794086
0.857662
0.857182
0.856466
0.85529
0.853731
0.852059
0.850126
0.847777
0.844879
0.841423
0.837562
0.833484
0.829371
0.825381
0.821589
0.817957
0.814404
0.810883
0.807412
0.804066
0.800932
0.798058
0.795469
0.793193
0.791249
0.789613
0.788175
0.78675
0.785161
0.783382
0.78148
0.779538
0.777579
0.775626
0.773663
0.771644
0.7695
0.767143
0.764621
0.762049
0.759443
0.756975
0.755182
0.754134
0.753025
0.751295
0.749519
0.748197
0.747099
0.746431
0.746093
0.746106
0.74648
0.747058
0.747836
0.748692
0.749502
0.750117
0.750468
0.750588
0.750564
0.750479
0.750379
0.750291
0.750232
0.7502
0.750182
0.750189
0.750283
0.750576
0.751242
0.752338
0.753708
0.75511
0.756444
0.757704
0.758914
0.760158
0.761574
0.763289
0.765367
0.767799
0.770509
0.773408
0.776394
0.779384
0.78232
0.785187
0.788013
0.790749
0.793423
0.796123
0.798886
0.801713
0.804593
0.807553
0.810818
0.814744
0.819618
0.825513
0.831549
0.835776
0.837588
0.839026
0.842055
0.845915
0.849817
0.853139
0.854764
0.854821
0.854792
0.854665
0.853665
0.852995
0.851475
0.846996
0.84038
0.83248
0.824164
0.8163
0.808696
0.79948
0.787779
0.775627
0.764247
0.75278
0.740823
0.729197
0.718983
0.71071
0.704168
0.698572
0.692965
0.688119
0.685758
0.686077
0.687
0.686503
0.686273
0.692383
0.70023
0.701905
0.70658
0.721214
0.738455
0.750558
0.758129
0.765289
0.772768
0.781379
0.792714
0.801926
0.802753
0.800567
0.80055
0.800392
0.799535
0.798491
0.797022
0.79511
0.793136
0.79132
0.789532
0.787609
0.78538
0.782411
0.779526
0.779015
0.782069
0.78786
0.794924
0.801906
0.807672
0.811681
0.813433
0.812982
0.810473
0.806738
0.802744
0.797858
0.864271
0.863774
0.862965
0.861729
0.860066
0.858148
0.85592
0.853251
0.850016
0.846223
0.841984
0.837426
0.832683
0.827903
0.823224
0.818748
0.814511
0.81051
0.806744
0.803223
0.799994
0.79712
0.794611
0.792426
0.790511
0.78874
0.78694
0.784958
0.782713
0.780187
0.777396
0.774442
0.77143
0.768465
0.765628
0.762981
0.760492
0.758163
0.756083
0.754313
0.752918
0.752117
0.751863
0.751571
0.750611
0.749087
0.7477
0.746578
0.745665
0.745109
0.744826
0.744906
0.745298
0.74591
0.746721
0.747574
0.748305
0.748767
0.748983
0.749106
0.749289
0.749557
0.749788
0.749813
0.749517
0.748898
0.748084
0.747296
0.746759
0.746643
0.747089
0.748062
0.749313
0.750783
0.75243
0.754133
0.755786
0.757383
0.759053
0.760987
0.763292
0.765983
0.768999
0.772255
0.775646
0.779115
0.782614
0.786047
0.789294
0.792367
0.795323
0.798274
0.801352
0.804612
0.808032
0.811621
0.815538
0.819958
0.824948
0.830388
0.835552
0.8393
0.84145
0.84352
0.846747
0.850424
0.853562
0.856276
0.85801
0.858493
0.858214
0.857902
0.856946
0.855767
0.85457
0.851069
0.844711
0.836745
0.828629
0.82121
0.814025
0.805098
0.793503
0.781291
0.76984
0.758266
0.746019
0.733912
0.723055
0.713894
0.706227
0.699548
0.693263
0.688211
0.685996
0.686212
0.687127
0.686307
0.685649
0.692673
0.701579
0.703917
0.709268
0.724575
0.74203
0.754495
0.762486
0.769906
0.77835
0.787818
0.798848
0.807368
0.808536
0.805828
0.805994
0.806235
0.805159
0.80382
0.802145
0.800079
0.798062
0.796264
0.79446
0.792494
0.790068
0.78687
0.784046
0.784086
0.787941
0.794419
0.801867
0.808886
0.814302
0.817559
0.818301
0.816714
0.813178
0.80869
0.804338
0.799889
0.87122
0.870744
0.869864
0.868503
0.866673
0.864572
0.86217
0.859355
0.856035
0.8522
0.847895
0.843209
0.838248
0.833142
0.828036
0.823076
0.818373
0.813981
0.809903
0.806152
0.802794
0.799913
0.797514
0.795479
0.793605
0.791689
0.789601
0.787284
0.784705
0.781865
0.778771
0.775427
0.771896
0.768334
0.764906
0.761742
0.758921
0.756558
0.754749
0.753502
0.752761
0.752354
0.751896
0.750999
0.7496
0.748079
0.746773
0.745648
0.744767
0.744185
0.743869
0.743908
0.744223
0.744775
0.745533
0.746327
0.746964
0.747326
0.747521
0.747758
0.748147
0.748532
0.748581
0.748043
0.746887
0.745305
0.743667
0.742366
0.741686
0.741705
0.742282
0.743219
0.744465
0.746148
0.7483
0.750727
0.753177
0.755485
0.757711
0.760048
0.762669
0.765617
0.76884
0.772234
0.775716
0.779325
0.783104
0.786986
0.790806
0.794468
0.797985
0.801468
0.805045
0.808748
0.812525
0.816349
0.820324
0.824569
0.829105
0.833877
0.838452
0.841992
0.844382
0.847064
0.850782
0.854516
0.857335
0.85952
0.861072
0.861809
0.861742
0.86131
0.860539
0.859273
0.857995
0.85515
0.849347
0.841674
0.833775
0.826581
0.819698
0.811186
0.799886
0.787672
0.776141
0.764525
0.752109
0.739633
0.728218
0.718265
0.709588
0.701845
0.694831
0.689358
0.687028
0.687073
0.688252
0.68733
0.68665
0.69423
0.703771
0.706977
0.713383
0.729122
0.746287
0.758648
0.767041
0.774728
0.783842
0.794222
0.805141
0.81274
0.813442
0.810773
0.811161
0.812077
0.810901
0.809106
0.807191
0.805042
0.803039
0.801263
0.799463
0.797457
0.794816
0.791414
0.788794
0.7895
0.794103
0.801122
0.808774
0.815566
0.820294
0.822426
0.821766
0.818693
0.813849
0.808506
0.803801
0.799896
0.878948
0.878453
0.877447
0.875995
0.874092
0.871842
0.86929
0.866383
0.863044
0.85926
0.855084
0.850579
0.84579
0.840807
0.835786
0.830905
0.826313
0.822082
0.818187
0.814586
0.811294
0.808348
0.805747
0.803414
0.801276
0.799259
0.79727
0.795254
0.793112
0.790667
0.787774
0.784417
0.780724
0.776881
0.773081
0.769485
0.766214
0.763376
0.761007
0.759038
0.757333
0.755701
0.753964
0.752086
0.750193
0.748477
0.746986
0.745709
0.744705
0.74397
0.743519
0.743392
0.743519
0.743873
0.744434
0.745078
0.745569
0.745798
0.745902
0.746083
0.7464
0.746535
0.746087
0.74489
0.743056
0.740936
0.739052
0.737863
0.737529
0.737964
0.738879
0.73998
0.741377
0.743221
0.745633
0.748616
0.751764
0.754685
0.75739
0.760113
0.763096
0.766437
0.770056
0.773784
0.7775
0.781156
0.784771
0.788377
0.79198
0.795542
0.799053
0.802592
0.806277
0.810139
0.814103
0.818116
0.822262
0.826671
0.831292
0.836041
0.840832
0.844978
0.847873
0.850553
0.85415