/*--------------------------------*- C++ -*----------------------------------*\
  =========                 |
  \\      /  F ield         | OpenFOAM: The Open Source CFD Toolbox
   \\    /   O peration     | Website:  https://openfoam.org
    \\  /    A nd           | Version:  10
     \\/     M anipulation  |
\*---------------------------------------------------------------------------*/
FoamFile
{
    format      ascii;
    class       volVectorField;
    location    "2.5";
    object      Ub;
}
// * * * * * * * * * * * * * * * * * * * * * * * * * * * * * * * * * * * * * //

dimensions      [0 1 -1 0 0 0 0];

internalField   nonuniform List<vector> 
12225
(
(0.00229051 -0.000462485 0)
(0.00653896 -0.000411913 0)
(0.0100418 -0.000338754 0)
(0.0127486 -0.000265599 0)
(0.0147668 -0.000204208 0)
(0.0162583 -0.000157985 0)
(0.0173793 -0.000126141 0)
(0.0182585 -0.000106552 0)
(0.018996 -9.72264e-05 0)
(0.0196696 -9.69349e-05 0)
(0.0203437 -0.000105552 0)
(0.0210793 -0.000124479 0)
(0.0219464 -0.00015762 0)
(0.0230442 -0.000213922 0)
(0.0245457 -0.000314811 0)
(0.0268246 -0.000520658 0)
(0.0309518 -0.00105632 0)
(0.0415077 -0.00315472 0)
(0.00242343 -0.00144924 0)
(0.00691018 -0.0012889 0)
(0.0105922 -0.00105776 0)
(0.0134201 -0.000827327 0)
(0.0155145 -0.000634467 0)
(0.0170513 -0.000489599 0)
(0.0181983 -0.000389995 0)
(0.0190926 -0.000328831 0)
(0.0198397 -0.000299748 0)
(0.020521 -0.000298813 0)
(0.021203 -0.00032552 0)
(0.0219482 -0.000384064 0)
(0.0228265 -0.000486204 0)
(0.0239347 -0.000658631 0)
(0.0254323 -0.000963757 0)
(0.0276247 -0.00156818 0)
(0.0311327 -0.00302034 0)
(0.0364699 -0.00767082 0)
(0.00252693 -0.00255931 0)
(0.00719332 -0.00227072 0)
(0.0109982 -0.00185723 0)
(0.0138973 -0.0014472 0)
(0.0160267 -0.00110563 0)
(0.0175768 -0.000850076 0)
(0.0187256 -0.000674949 0)
(0.019616 -0.000567687 0)
(0.0203568 -0.000516745 0)
(0.0210307 -0.000514918 0)
(0.0217044 -0.000560973 0)
(0.0224386 -0.000661631 0)
(0.0232991 -0.000836025 0)
(0.0243704 -0.00112677 0)
(0.0257768 -0.00162908 0)
(0.0277039 -0.00257451 0)
(0.0303172 -0.00459216 0)
(0.0327875 -0.0094861 0)
(0.00263343 -0.00379928 0)
(0.00747867 -0.00335994 0)
(0.0113933 -0.00273575 0)
(0.014343 -0.00212157 0)
(0.0164855 -0.00161335 0)
(0.0180293 -0.00123522 0)
(0.0191632 -0.000977237 0)
(0.0200361 -0.000819736 0)
(0.0207586 -0.00074496 0)
(0.0214137 -0.000741714 0)
(0.0220664 -0.000807443 0)
(0.0227736 -0.000950639 0)
(0.0235929 -0.00119619 0)
(0.0245902 -0.00159805 0)
(0.0258437 -0.0022693 0)
(0.0274173 -0.00345401 0)
(0.0291878 -0.00568523 0)
(0.0301359 -0.00996593 0)
(0.00275653 -0.00518728 0)
(0.00780229 -0.00456736 0)
(0.011827 -0.0036967 0)
(0.0148133 -0.00284913 0)
(0.0169495 -0.00215421 0)
(0.0184679 -0.00164104 0)
(0.0195705 -0.00129296 0)
(0.0204116 -0.00108132 0)
(0.0211037 -0.000980805 0)
(0.0217282 -0.000975297 0)
(0.0223471 -0.00106004 0)
(0.0230116 -0.00124402 0)
(0.0237682 -0.00155528 0)
(0.0246608 -0.0020526 0)
(0.025721 -0.00284995 0)
(0.02692 -0.00416132 0)
(0.028009 -0.00635265 0)
(0.0281631 -0.00982811 0)
(0.00290751 -0.00675052 0)
(0.00819232 -0.0059089 0)
(0.0123341 -0.00474491 0)
(0.0153433 -0.00362801 0)
(0.0174519 -0.00272344 0)
(0.0189233 -0.00206202 0)
(0.0199756 -0.00161681 0)
(0.0207693 -0.00134749 0)
(0.0214171 -0.00121952 0)
(0.0219983 -0.00121061 0)
(0.0225702 -0.00131265 0)
(0.0231764 -0.00153344 0)
(0.0238511 -0.00190082 0)
(0.0246158 -0.00247143 0)
(0.0254638 -0.00334551 0)
(0.0263116 -0.00468338 0)
(0.0268935 -0.00668851 0)
(0.0266435 -0.00942335 0)
(0.00309945 -0.00852746 0)
(0.00867964 -0.00740566 0)
(0.0129495 -0.0058854 0)
(0.0159644 -0.00445417 0)
(0.0180186 -0.00331351 0)
(0.0194168 -0.00249009 0)
(0.0203966 -0.00194126 0)
(0.0211244 -0.00161146 0)
(0.0217126 -0.00145473 0)
(0.0222365 -0.00144113 0)
(0.0227476 -0.00155779 0)
(0.0232808 -0.00180932 0)
(0.0238575 -0.00221996 0)
(0.0244801 -0.00283795 0)
(0.0251155 -0.00374047 0)
(0.0256591 -0.00502904 0)
(0.0258835 -0.0067842 0)
(0.0254373 -0.00891474 0)
(0.00335002 -0.0105724 0)
(0.00930413 -0.00908467 0)
(0.0137145 -0.00712191 0)
(0.0167102 -0.00531955 0)
(0.0186748 -0.00391258 0)
(0.0199668 -0.00291346 0)
(0.0208469 -0.00225581 0)
(0.0214875 -0.00186406 0)
(0.0219986 -0.00167809 0)
(0.0224503 -0.00165862 0)
(0.0228866 -0.00178651 0)
(0.0233336 -0.0020612 0)
(0.0238007 -0.00250022 0)
(0.0242755 -0.00313917 0)
(0.0247114 -0.00402867 0)
(0.0250062 -0.00521886 0)
(0.0249882 -0.00671299 0)
(0.0244558 -0.0083743 0)
(0.00368515 -0.0129636 0)
(0.0101218 -0.01098 0)
(0.0146829 -0.00845443 0)
(0.0176204 -0.00620912 0)
(0.0194465 -0.00450226 0)
(0.02059 -0.00331512 0)
(0.0213376 -0.00254605 0)
(0.021866 -0.00209315 0)
(0.0222807 -0.00187896 0)
(0.0226444 -0.00185309 0)
(0.0229927 -0.00198863 0)
(0.0233423 -0.00227815 0)
(0.0236925 -0.00273033 0)
(0.0240217 -0.00336619 0)
(0.0242795 -0.00421123 0)
(0.0243789 -0.00527741 0)
(0.0242016 -0.00652799 0)
(0.0236404 -0.00783162 0)
(0.00414523 -0.0158167 0)
(0.0112156 -0.013133 0)
(0.0159272 -0.00987432 0)
(0.0187432 -0.00709624 0)
(0.0203624 -0.00505443 0)
(0.0213025 -0.00367098 0)
(0.0218776 -0.00279253 0)
(0.022265 -0.00228299 0)
(0.0225624 -0.00204411 0)
(0.0228221 -0.00201266 0)
(0.02307 -0.00215286 0)
(0.0233137 -0.00244926 0)
(0.0235443 -0.00290072 0)
(0.0237357 -0.00351397 0)
(0.0238404 -0.00429399 0)
(0.0237911 -0.00522833 0)
(0.0235118 -0.0062653 0)
(0.022951 -0.00729713 0)
(0.0047964 -0.0193097 0)
(0.0127141 -0.0155907 0)
(0.0175492 -0.0113548 0)
(0.0201383 -0.00793494 0)
(0.0214527 -0.00552662 0)
(0.0221181 -0.00394735 0)
(0.0224726 -0.00296957 0)
(0.0226868 -0.00241378 0)
(0.0228446 -0.00215758 0)
(0.0229847 -0.00212379 0)
(0.0231216 -0.0022672 0)
(0.0232537 -0.00256409 0)
(0.0233663 -0.00300377 0)
(0.0234314 -0.00358071 0)
(0.0234084 -0.00428519 0)
(0.0232482 -0.00509182 0)
(0.0229053 -0.00594832 0)
(0.0223587 -0.00677287 0)
(0.00568198 -0.0233051 0)
(0.0146707 -0.0181522 0)
(0.01954 -0.0127214 0)
(0.0217592 -0.0086053 0)
(0.0226637 -0.00584356 0)
(0.0229915 -0.00409767 0)
(0.02309 -0.00304719 0)
(0.0231117 -0.00246458 0)
(0.0231195 -0.00220318 0)
(0.0231355 -0.00217287 0)
(0.0231619 -0.00232018 0)
(0.0231884 -0.00261428 0)
(0.0231958 -0.00303688 0)
(0.0231565 -0.00357369 0)
(0.0230365 -0.0042063 0)
(0.0228004 -0.00490449 0)
(0.0224209 -0.00562139 0)
(0.0218912 -0.00629622 0)
(0.00692789 -0.0284312 0)
(0.017294 -0.0209873 0)
(0.0220152 -0.0139543 0)
(0.0236437 -0.00904985 0)
(0.0239936 -0.00595455 0)
(0.0239027 -0.00408466 0)
(0.0237019 -0.00299928 0)
(0.0235077 -0.00241726 0)
(0.0233531 -0.00216844 0)
(0.0232391 -0.00215161 0)
(0.0231534 -0.00230679 0)
(0.0230774 -0.00259787 0)
(0.0229878 -0.00300109 0)
(0.0228579 -0.00349667 0)
(0.0226599 -0.00406207 0)
(0.0223685 -0.0046671 0)
(0.0219684 -0.00527245 0)
(0.0214597 -0.00583349 0)
(0.00917793 -0.0364433 0)
(0.0217301 -0.0244677 0)
(0.0257803 -0.0149679 0)
(0.0262748 -0.00911526 0)
(0.0257323 -0.00573117 0)
(0.0250342 -0.00381395 0)
(0.0244284 -0.00275831 0)
(0.0239563 -0.00222339 0)
(0.0236007 -0.0020182 0)
(0.0233312 -0.00203397 0)
(0.0231167 -0.00220712 0)
(0.0229281 -0.00249858 0)
(0.0227378 -0.00288146 0)
(0.0225199 -0.00333324 0)
(0.0222516 -0.00383052 0)
(0.0219155 -0.00434627 0)
(0.0215034 -0.00484993 0)
(0.0210186 -0.00531066 0)
(0.0137775 -0.0504444 0)
(0.0299637 -0.0280134 0)
(0.0316832 -0.0148754 0)
(0.0299074 -0.00820169 0)
(0.0279218 -0.00481095 0)
(0.0263631 -0.00306401 0)
(0.0252316 -0.00218184 0)
(0.02442 -0.00178536 0)
(0.0238294 -0.00168091 0)
(0.0233849 -0.00176414 0)
(0.0230314 -0.00197543 0)
(0.0227268 -0.00227791 0)
(0.0224385 -0.00264575 0)
(0.0221405 -0.00305748 0)
(0.0218131 -0.0034923 0)
(0.0214438 -0.00392871 0)
(0.0210277 -0.00434501 0)
(0.020568 -0.00472143 0)
(0.024941 -0.0794741 0)
(0.0472878 -0.0275011 0)
(0.0409021 -0.0110934 0)
(0.0345454 -0.00507745 0)
(0.0303611 -0.00259398 0)
(0.0277014 -0.00151571 0)
(0.0259673 -0.00108193 0)
(0.0247927 -0.000981314 0)
(0.0239622 -0.00107068 0)
(0.0233455 -0.00127734 0)
(0.0228595 -0.00156043 0)
(0.0224488 -0.00189435 0)
(0.0220748 -0.00226061 0)
(0.0217105 -0.0026435 0)
(0.0213379 -0.00302829 0)
(0.0209465 -0.00340065 0)
(0.0205324 -0.00374733 0)
(0.0200974 -0.0040572 0)
(0.0591858 0.000551583 0)
(0.0904771 0.00302617 0)
(0.0528006 0.00255839 0)
(0.0387045 0.00199933 0)
(0.0321297 0.00152514 0)
(0.0285354 0.00109673 0)
(0.0263469 0.000686993 0)
(0.0249075 0.000284032 0)
(0.0238993 -0.000116874 0)
(0.0231502 -0.000516652 0)
(0.0225577 -0.000912624 0)
(0.022058 -0.00130538 0)
(0.0216119 -0.00169073 0)
(0.0211935 -0.00206336 0)
(0.0207862 -0.00241726 0)
(0.0203807 -0.00274624 0)
(0.0199729 -0.00304468 0)
(0.0195624 -0.00330817 0)
(0.0204957 0.0761591 0)
(0.0405027 0.0319943 0)
(0.0373377 0.0163701 0)
(0.0325316 0.00961796 0)
(0.0289408 0.00616307 0)
(0.0264894 0.00413148 0)
(0.0248101 0.00279192 0)
(0.0236244 0.00182225 0)
(0.0227522 0.00106636 0)
(0.0220801 0.000443429 0)
(0.021537 -8.91663e-05 0)
(0.0210755 -0.000557809 0)
(0.0206619 -0.000975343 0)
(0.0202753 -0.0013523 0)
(0.0199038 -0.00169203 0)
(0.0195408 -0.00199601 0)
(0.019183 -0.0022649 0)
(0.0188297 -0.0024993 0)
(0.00782207 0.0404126 0)
(0.0187307 0.0279291 0)
(0.0226167 0.0185597 0)
(0.0233756 0.0125411 0)
(0.0230472 0.00869214 0)
(0.022436 0.00614302 0)
(0.0218177 0.00437506 0)
(0.0212685 0.0030898 0)
(0.0207957 0.00211368 0)
(0.0203857 0.0013434 0)
(0.0200219 0.000715984 0)
(0.0196903 0.000193617 0)
(0.0193814 -0.000248038 0)
(0.0190867 -0.000626281 0)
(0.0187996 -0.000953681 0)
(0.0185169 -0.00123803 0)
(0.0182375 -0.00148435 0)
(0.0179614 -0.00169656 0)
(0.00425136 0.0245424 0)
(0.011174 0.0203021 0)
(0.0152742 0.0156467 0)
(0.0174012 0.0117612 0)
(0.018411 0.00878484 0)
(0.0188386 0.006558 0)
(0.0189724 0.00488733 0)
(0.0189583 0.00361551 0)
(0.0188681 0.00262823 0)
(0.0187365 0.00184581 0)
(0.0185802 0.00121344 0)
(0.0184073 0.000693459 0)
(0.0182221 0.000259818 0)
(0.0180285 -0.000103506 0)
(0.0178287 -0.000409825 0)
(0.0176233 -0.000670996 0)
(0.0174138 -0.000894419 0)
(0.017202 -0.00108541 0)
(0.00292548 0.0173159 0)
(0.00803487 0.015237 0)
(0.0116687 0.0125387 0)
(0.0140288 0.00996488 0)
(0.0154954 0.00778193 0)
(0.0163864 0.00601993 0)
(0.016917 0.00462333 0)
(0.0172216 0.00351874 0)
(0.0173814 0.00263966 0)
(0.017445 0.00193281 0)
(0.0174424 0.00135772 0)
(0.0173924 0.000884378 0)
(0.0173075 0.000490715 0)
(0.0171964 0.000160502 0)
(0.0170665 -0.000116447 0)
(0.0169228 -0.000349457 0)
(0.0167682 -0.000547895 0)
(0.016606 -0.000717032 0)
(0.00226906 0.0127786 0)
(0.00637808 0.0115848 0)
(0.0095793 0.00988883 0)
(0.0118997 0.0081346 0)
(0.0135185 0.00654425 0)
(0.0146263 0.00519122 0)
(0.0153755 0.00407471 0)
(0.0158754 0.00316487 0)
(0.0162005 0.00242523 0)
(0.0164013 0.00182194 0)
(0.0165117 0.00132676 0)
(0.0165553 0.000917261 0)
(0.0165487 0.000576093 0)
(0.016504 0.000289942 0)
(0.0164303 4.86884e-05 0)
(0.0163354 -0.000153384 0)
(0.0162246 -0.000324505 0)
(0.0161017 -0.000470244 0)
(0.00189847 0.00961613 0)
(0.00540671 0.00886136 0)
(0.00828305 0.00773107 0)
(0.0105027 0.00650112 0)
(0.0121553 0.00533586 0)
(0.0133604 0.00430789 0)
(0.0142277 0.00343482 0)
(0.0148443 0.00270739 0)
(0.0152756 0.00210616 0)
(0.015569 0.0016099 0)
(0.0157589 0.00119923 0)
(0.0158703 0.000857847 0)
(0.0159218 0.000572549 0)
(0.0159273 0.000332872 0)
(0.0158972 0.000130583 0)
(0.0158403 -4.01112e-05 0)
(0.0157631 -0.000183475 0)
(0.0156704 -0.000305616 0)
(0.00166952 0.00726206 0)
(0.00479221 0.00675761 0)
(0.00743234 0.005977 0)
(0.00954959 0.00509931 0)
(0.0111904 0.00424292 0)
(0.0124345 0.00346833 0)
(0.0133637 0.00279691 0)
(0.0140489 0.0022284 0)
(0.0145469 0.00175265 0)
(0.0149014 0.0013563 0)
(0.0151457 0.0010261 0)
(0.015305 0.000750319 0)
(0.0153984 0.00051912 0)
(0.0154407 0.000324492 0)
(0.0154432 0.000160011 0)
(0.0154149 2.05503e-05 0)
(0.0153632 -9.6476e-05 0)
(0.0152937 -0.000195974 0)
(0.00151825 0.00543243 0)
(0.00437956 0.00508634 0)
(0.00684595 0.00453909 0)
(0.00887308 0.00391036 0)
(0.0104852 0.0032846 0)
(0.0117389 0.0027088 0)
(0.0126979 0.00220251 0)
(0.0134218 0.00176883 0)
(0.0139604 0.00140259 0)
(0.0143542 0.00109532 0)
(0.0146349 0.000837987 0)
(0.0148272 0.000622227 0)
(0.0149503 0.000440836 0)
(0.0150191 0.000287826 0)
(0.0150455 0.000158317 0)
(0.0150387 4.83592e-05 0)
(0.0150064 -4.44637e-05 0)
(0.0149544 -0.000122983 0)
(0.00141229 0.00396873 0)
(0.0040869 0.00373097 0)
(0.00642137 0.00334944 0)
(0.00837108 0.00290474 0)
(0.0099484 0.00245617 0)
(0.0111957 0.00203853 0)
(0.0121654 0.00166762 0)
(0.0129087 0.0013473 0)
(0.0134706 0.001075 0)
(0.0138886 0.000845363 0)
(0.0141928 0.000652258 0)
(0.0144072 0.000489846 0)
(0.0145509 0.000352978 0)
(0.0146387 0.00023731 0)
(0.0146825 0.000139264 0)
(0.0146917 5.59196e-05 0)
(0.014674 -1.48213e-05 0)
(0.0146355 -7.43883e-05 0)
(0.0013332 0.00277512 0)
(0.00386609 0.002616 0)
(0.00609501 0.00235801 0)
(0.00797634 0.00205441 0)
(0.00951577 0.00174539 0)
(0.010747 0.00145537 0)
(0.0117147 0.00119603 0)
(0.0124646 0.000970768 0)
(0.0130377 0.00077837 0)
(0.0134691 0.000615489 0)
(0.0137876 0.000478099 0)
(0.0140164 0.000362259 0)
(0.014174 0.000264442 0)
(0.0142752 0.000181641 0)
(0.0143317 0.000111354 0)
(0.0143528 5.15325e-05 0)
(0.0143463 5.43784e-07 0)
(0.0143183 -4.22646e-05 0)
(0.00126881 0.00179023 0)
(0.00368442 0.00169075 0)
(0.00582157 0.00152828 0)
(0.00763806 0.00133585 0)
(0.00913583 0.00113883 0)
(0.0103431 0.00095292 0)
(0.0112993 0.0007859 0)
(0.0120459 0.000640246 0)
(0.0126212 0.000515421 0)
(0.0130581 0.000409445 0)
(0.013384 0.000319842 0)
(0.0136213 0.000244142 0)
(0.013788 0.00018011 0)
(0.0138985 0.000125827 0)
(0.0139643 7.96857e-05 0)
(0.0139947 4.03643e-05 0)
(0.013997 6.77408e-06 0)
(0.0139774 -2.14402e-05 0)
(0.00120827 0.000973678 0)
(0.00351181 0.000920779 0)
(0.00555703 0.000833933 0)
(0.00730352 0.000730644 0)
(0.00875112 0.000624479 0)
(0.00992435 0.000523951 0)
(0.010859 0.000433354 0)
(0.011593 0.000354128 0)
(0.0121622 0.000286066 0)
(0.0125976 0.000228158 0)
(0.0129252 0.000179105 0)
(0.0131664 0.000137594 0)
(0.0133385 0.000102428 0)
(0.0134553 7.25746e-05 0)
(0.0135281 4.7166e-05 0)
(0.0135659 2.54852e-05 0)
(0.0135757 6.94183e-06 0)
(0.0135637 -8.64701e-06 0)
(0.00113041 0.000301734 0)
(0.00328757 0.000285564 0)
(0.00520759 0.000258935 0)
(0.00685262 0.000227191 0)
(0.00822146 0.000194494 0)
(0.00933564 0.000163472 0)
(0.0102274 0.000135465 0)
(0.0109313 0.000110933 0)
(0.0114803 8.98262e-05 0)
(0.011903 7.18444e-05 0)
(0.0122236 5.6593e-05 0)
(0.0124621 4.36714e-05 0)
(0.0126346 3.27131e-05 0)
(0.0127542 2.34004e-05 0)
(0.0128315 1.54664e-05 0)
(0.0128749 8.68965e-06 0)
(0.0128913 2.88792e-06 0)
(0.0128864 -1.98575e-06 0)
(7.81984e-05 -0.000182474 -2.3575e-30)
(0.000235253 -0.000182242 2.35265e-30)
(0.000393328 -0.000181843 0)
(0.000552277 -0.000181272 0)
(0.000711945 -0.000180527 0)
(0.00087217 -0.000179606 -2.31106e-30)
(0.00103279 -0.000178508 0)
(0.00119363 -0.000177233 0)
(0.00135451 -0.000175782 0)
(0.00151528 -0.00017416 0)
(0.00167575 -0.000172372 2.20807e-30)
(0.00183576 -0.000170423 0)
(0.00199515 -0.000168324 0)
(0.00215377 -0.000166086 0)
(0.00231146 -0.000163721 0)
(0.00246811 -0.000161249 2.05496e-30)
(0.00262361 -0.000158688 0)
(0.00277787 -0.000156065 0)
(0.00293085 -0.000153407 0)
(0.00308251 -0.000150747 0)
(0.0032329 -0.000148124 0)
(0.00338209 -0.000145576 0)
(0.0035302 -0.000143141 0)
(0.00367741 -0.000140858 1.77714e-30)
(0.00382395 -0.00013876 -1.74828e-30)
(0.0039701 -0.000136874 1.72219e-30)
(0.0041162 -0.000135223 1.69913e-30)
(0.00426259 -0.000133825 0)
(0.00440969 -0.000132692 0)
(0.00455793 -0.000131833 -1.65009e-30)
(0.00470778 -0.000131257 -1.64088e-30)
(0.00485975 -0.000130972 0)
(0.00501437 -0.000130987 0)
(0.0051722 -0.000131312 -1.63611e-30)
(0.00533382 -0.000131954 0)
(0.00549981 -0.000132917 0)
(0.00567074 -0.000134196 1.6675e-30)
(0.00584708 -0.000135772 0)
(0.00602922 -0.000137616 1.70747e-30)
(0.00621738 -0.000139681 3.46387e-30)
(0.00641157 -0.000141915 0)
(0.00661164 -0.000144272 0)
(0.00681724 -0.000146731 0)
(0.00702799 -0.000149313 0)
(0.00724358 -0.0001521 0)
(0.0074639 -0.000155248 3.83686e-30)
(0.00768924 -0.000158991 3.92829e-30)
(0.00792037 -0.000163642 4.04305e-30)
(0.00815868 -0.000169599 0)
(0.0084063 -0.000177365 -4.38631e-30)
(0.00866618 -0.000187594 0)
(0.00894236 -0.000201175 4.98912e-30)
(0.00924021 -0.000219388 5.45288e-30)
(0.00956702 -0.000244187 0)
(0.00993262 -0.000278692 0)
(0.01035 -0.000328006 0)
(0.0108326 -0.000400281 1.00913e-29)
(0.0113675 -0.000505986 0)
(0.0115483 -0.000634097 0)
(0.00576135 -0.000203447 0)
(3.26684e-05 -1.49187e-08 0)
(5.64977e-17 -2.58009e-20 0)
(8.49152e-32 2.38195e-33 0)
(8.15201e-32 1.6131e-33 0)
(7.90406e-32 1.19027e-33 0)
(7.70833e-32 9.33535e-34 2.59512e-59)
(7.54536e-32 7.63388e-34 0)
(7.4047e-32 6.42107e-34 0)
(7.28031e-32 5.5047e-34 -1.59481e-59)
(7.16844e-32 4.77998e-34 -1.40484e-59)
(7.06661e-32 4.18609e-34 0)
(6.97313e-32 3.68572e-34 1.11737e-59)
(6.88675e-32 3.25492e-34 -1.00397e-59)
(6.80656e-32 2.87761e-34 0)
(6.73182e-32 2.54266e-34 8.16196e-60)
(6.66198e-32 2.24209e-34 0)
(6.59658e-32 1.97004e-34 0)
(6.53521e-32 1.72211e-34 -5.99445e-60)
(6.47757e-32 1.49489e-34 0)
(6.42337e-32 1.28569e-34 4.83995e-60)
(6.37235e-32 1.09239e-34 0)
(6.32432e-32 9.13234e-35 -3.85379e-60)
(6.27906e-32 7.46768e-35 -3.41279e-60)
(6.23642e-32 5.91781e-35 -3.00209e-60)
(6.19622e-32 4.47238e-35 -5.23791e-60)
(6.15833e-32 3.12251e-35 4.52219e-60)
(6.12261e-32 1.86048e-35 0)
(6.08894e-32 6.79506e-36 0)
(6.05721e-32 -4.2639e-36 0)
(6.02731e-32 -1.46255e-35 2.08987e-60)
(5.99913e-32 -2.43377e-35 1.57448e-60)
(5.97259e-32 -3.34438e-35 -1.09116e-60)
(5.9476e-32 -4.19832e-35 0)
(5.92408e-32 -4.99917e-35 2.12741e-61)
(5.90194e-32 -5.75025e-35 -1.85983e-61)
(5.88112e-32 -6.45459e-35 -5.59955e-61)
(5.86154e-32 -7.11503e-35 0)
(5.84313e-32 -7.73418e-35 0)
(5.82584e-32 -8.31449e-35 0)
(5.8096e-32 -8.85823e-35 -1.83638e-60)
(5.79436e-32 -9.36757e-35 0)
(5.78005e-32 -9.84449e-35 0)
(5.76664e-32 -1.02909e-34 2.59736e-60)
(5.75407e-32 -1.07086e-34 0)
(5.74229e-32 -1.10992e-34 0)
(5.73127e-32 -1.14644e-34 3.22073e-60)
(5.72095e-32 -1.18056e-34 0)
(5.71129e-32 -1.21243e-34 0)
(5.70227e-32 -1.24217e-34 -3.72934e-60)
(5.69384e-32 -1.26992e-34 -3.87679e-60)
(5.68597e-32 -1.2958e-34 0)
(5.67862e-32 -1.31992e-34 4.14243e-60)
(5.67177e-32 -1.34238e-34 0)
(5.66538e-32 -1.36329e-34 -4.37294e-60)
(5.65943e-32 -1.38275e-34 0)
(5.65389e-32 -1.40084e-34 -4.57247e-60)
(5.64873e-32 -1.41765e-34 -4.66186e-60)
(5.64394e-32 -1.43327e-34 0)
(5.63948e-32 -1.44776e-34 0)
(5.63534e-32 -1.4612e-34 0)
(5.6315e-32 -1.47367e-34 0)
(5.62793e-32 -1.48521e-34 0)
(5.62463e-32 -1.49591e-34 0)
(5.62157e-32 -1.5058e-34 0)
(5.61873e-32 -1.51494e-34 -5.17897e-60)
(5.61611e-32 -1.52339e-34 5.22393e-60)
(5.61368e-32 -1.5312e-34 0)
(5.61144e-32 -1.5384e-34 0)
(5.60937e-32 -1.54504e-34 0)
(5.60746e-32 -1.55116e-34 0)
(5.6057e-32 -1.5568e-34 1.0803e-59)
(5.60407e-32 -1.56198e-34 0)
(5.60258e-32 -1.56675e-34 -1.09089e-59)
(5.6012e-32 -1.57113e-34 1.09555e-59)
(5.59993e-32 -1.57515e-34 0)
(5.59877e-32 -1.57884e-34 0)
(5.5977e-32 -1.58221e-34 0)
(5.59672e-32 -1.58531e-34 -1.11063e-59)
(5.59582e-32 -1.58813e-34 -1.11364e-59)
(5.59499e-32 -1.59072e-34 0)
(5.59423e-32 -1.59307e-34 -1.11889e-59)
(5.59354e-32 -1.59521e-34 -1.12117e-59)
(5.5929e-32 -1.59716e-34 1.12324e-59)
(5.59231e-32 -1.59892e-34 0)
(5.59178e-32 -1.60051e-34 0)
(5.59129e-32 -1.60194e-34 1.12834e-59)
(5.59083e-32 -1.60321e-34 0)
(5.59042e-32 -1.60434e-34 0)
(5.59003e-32 -1.60533e-34 0)
(5.58967e-32 -1.60618e-34 0)
(5.58934e-32 -1.60689e-34 -1.13365e-59)
(5.58902e-32 -1.60747e-34 -1.13427e-59)
(5.58872e-32 -1.60789e-34 0)
(5.58843e-32 -1.60816e-34 -1.13505e-59)
(5.58814e-32 -1.60826e-34 0)
(5.58785e-32 -1.60817e-34 0)
(5.58754e-32 -1.60786e-34 -1.13481e-59)
(5.58722e-32 -1.60729e-34 0)
(5.58687e-32 -1.6064e-34 -1.13337e-59)
(5.58648e-32 -1.60514e-34 0)
(5.58603e-32 -1.60341e-34 0)
(5.58549e-32 -1.6011e-34 -1.12802e-59)
(5.58485e-32 -1.59806e-34 0)
(5.58408e-32 -1.59408e-34 -1.1209e-59)
(5.58311e-32 -1.58891e-34 0)
(5.58191e-32 -1.5822e-34 0)
(5.58038e-32 -1.57347e-34 0)
(5.57845e-32 -1.5621e-34 1.08836e-59)
(5.57597e-32 -1.54722e-34 0)
(5.57276e-32 -1.52761e-34 -1.05323e-59)
(5.56859e-32 -1.50152e-34 0)
(5.56311e-32 -1.46639e-34 0)
(5.55584e-32 -1.41829e-34 0)
(5.54607e-32 -1.35094e-34 0)
(5.5327e-32 -1.2536e-34 0)
(5.51394e-32 -1.10635e-34 0)
(5.48661e-32 -8.67577e-35 0)
(5.44428e-32 -4.34037e-35 -1.30718e-60)
(5.37069e-32 5.25239e-35 0)
(5.20761e-32 3.53325e-34 0)
(9.7097e-05 -0.000577822 7.46472e-30)
(0.000292124 -0.000577173 -7.44942e-30)
(0.00048847 -0.000575995 0)
(0.000685965 -0.000574279 1.48124e-29)
(0.000884436 -0.000572019 0)
(0.00108371 -0.000569214 -7.34412e-30)
(0.0012836 -0.000565871 -1.45668e-29)
(0.00148396 -0.000562003 -1.44573e-29)
(0.00168465 -0.00055763 0)
(0.00188553 -0.000552774 -1.41998e-29)
(0.0020865 -0.000547464 7.05117e-30)
(0.00228748 -0.00054173 0)
(0.00248839 -0.000535607 0)
(0.00268918 -0.000529133 0)
(0.00288981 -0.000522349 0)
(0.00309025 -0.000515298 6.62359e-30)
(0.00329047 -0.000508029 0)
(0.00349043 -0.000500593 1.27752e-29)
(0.00369009 -0.000493042 0)
(0.00388935 -0.000485434 0)
(0.00408812 -0.000477826 -1.21585e-29)
(0.00428623 -0.000470278 0)
(0.00448348 -0.000462847 1.17526e-29)
(0.00467961 -0.000455589 5.83311e-30)
(0.00487434 -0.000448559 -5.73995e-30)
(0.00506736 -0.000441807 5.6504e-30)
(0.00525835 -0.000435382 5.5651e-30)
(0.005447 -0.000429331 0)
(0.00563303 -0.000423703 0)
(0.00581619 -0.000418549 -5.34096e-30)
(0.00599629 -0.000413921 -1.56955e-29)
(0.00617321 -0.000409878 0)
(0.00634687 -0.000406477 0)
(0.00651729 -0.000403779 -5.14179e-30)
(0.0066845 -0.00040184 0)
(0.00684865 -0.000400705 0)
(0.0070099 -0.00040041 5.09243e-30)
(0.00716852 -0.00040097 0)
(0.00732483 -0.000402383 1.51697e-29)
(0.00747927 -0.000404633 1.02829e-29)
(0.00763238 -0.000407707 0)
(0.00778484 -0.000411611 0)
(0.0079375 -0.000416407 -2.07781e-29)
(0.00809134 -0.000422244 -2.10654e-29)
(0.00824752 -0.000429392 -2.14201e-29)
(0.00840734 -0.000438263 3.2994e-29)
(0.00857228 -0.000449434 1.14152e-29)
(0.00874397 -0.000463665 -1.13661e-29)
(0.00892429 -0.00048193 2.40724e-29)
(0.00911536 -0.000505481 -1.28512e-29)
(0.00931968 -0.000535964 0)
(0.00954023 -0.000575632 1.46545e-29)
(0.00978056 -0.00062771 4.75231e-29)
(0.010045 -0.000697046 0)
(0.0103384 -0.000791301 0)
(0.0106665 -0.000923151 0)
(0.0110336 -0.00111436 2.8545e-29)
(0.011434 -0.00140147 0)
(0.0117314 -0.00181588 9.27707e-29)
(0.00636815 -0.00143154 0)
(0.000455604 -6.24183e-07 -1.07564e-32)
(1.31349e-11 -1.79949e-14 0)
(8.19583e-32 6.18383e-33 3.27436e-58)
(8.00112e-32 4.60141e-33 0)
(7.81884e-32 3.62875e-33 -1.94986e-58)
(7.65532e-32 2.98755e-33 2.40715e-58)
(7.50952e-32 2.53758e-33 0)
(7.37877e-32 2.20419e-33 1.20922e-58)
(7.26051e-32 1.94571e-33 -5.20096e-59)
(7.15268e-32 1.73774e-33 -4.66083e-59)
(7.05366e-32 1.56531e-33 0)
(6.96221e-32 1.41887e-33 1.18249e-58)
(6.87736e-32 1.29206e-33 -3.50227e-59)
(6.79835e-32 1.18055e-33 0)
(6.72457e-32 1.08125e-33 2.95374e-59)
(6.65551e-32 9.91956e-34 5.75681e-59)
(6.59075e-32 9.10998e-34 0)
(6.52993e-32 8.37121e-34 -2.31807e-59)
(6.47276e-32 7.69348e-34 0)
(6.41897e-32 7.06906e-34 -2.28195e-59)
(6.36832e-32 6.49173e-34 0)
(6.32061e-32 5.95636e-34 1.98735e-59)
(6.27564e-32 5.45874e-34 -1.55921e-59)
(6.23326e-32 4.99528e-34 -4.60956e-59)
(6.1933e-32 4.56294e-34 -8.53913e-59)
(6.15562e-32 4.15909e-34 7.90389e-59)
(6.1201e-32 3.78145e-34 0)
(6.08662e-32 3.42801e-34 0)
(6.05505e-32 3.09699e-34 0)
(6.0253e-32 2.78682e-34 -2.29426e-59)
(5.99727e-32 2.49605e-34 1.57361e-59)
(5.97086e-32 2.22341e-34 -1.43141e-59)
(5.94599e-32 1.96772e-34 0)
(5.92258e-32 1.72791e-34 4.07819e-59)
(5.90055e-32 1.50299e-34 1.05564e-59)
(5.87982e-32 1.29205e-34 9.45613e-60)
(5.86033e-32 1.09426e-34 0)
(5.84201e-32 9.08827e-35 0)
(5.8248e-32 7.35022e-35 0)
(5.80863e-32 5.72162e-35 5.70077e-60)
(5.79346e-32 4.19606e-35 0)
(5.77922e-32 2.76753e-35 1.3777e-59)
(5.76587e-32 1.43038e-35 8.90716e-60)
(5.75335e-32 1.79259e-36 -1.1052e-59)
(5.74163e-32 -9.90849e-36 0)
(5.73065e-32 -2.0847e-35 -1.02964e-59)
(5.72038e-32 -3.10677e-35 0)
(5.71077e-32 -4.06132e-35 -6.58687e-60)
(5.70178e-32 -4.95235e-35 5.78056e-60)
(5.69339e-32 -5.78366e-35 4.47146e-60)
(5.68555e-32 -6.55884e-35 0)
(5.67824e-32 -7.28129e-35 4.2792e-60)
(5.67141e-32 -7.95422e-35 -2.48734e-60)
(5.66505e-32 -8.58067e-35 -1.76115e-60)
(5.65913e-32 -9.16352e-35 0)
(5.65361e-32 -9.70549e-35 -2.34806e-60)
(5.64847e-32 -1.02092e-34 -2.72342e-60)
(5.6437e-32 -1.06769e-34 0)
(5.63926e-32 -1.11111e-34 8.37506e-61)
(5.63514e-32 -1.15139e-34 1.26171e-60)
(5.63131e-32 -1.18872e-34 1.65499e-60)
(5.62776e-32 -1.22331e-34 0)
(5.62447e-32 -1.25534e-34 0)
(5.62142e-32 -1.28497e-34 0)
(5.6186e-32 -1.31237e-34 -7.08929e-60)
(5.61599e-32 -1.33769e-34 4.26393e-60)
(5.61357e-32 -1.36107e-34 0)
(5.61134e-32 -1.38265e-34 -3.69787e-60)
(5.60928e-32 -1.40254e-34 -3.90746e-60)
(5.60738e-32 -1.42088e-34 0)
(5.60562e-32 -1.43776e-34 9.57231e-60)
(5.604e-32 -1.45329e-34 -8.88432e-60)
(5.60252e-32 -1.46758e-34 -9.88354e-60)
(5.60114e-32 -1.4807e-34 1.94824e-59)
(5.59988e-32 -1.49274e-34 0)
(5.59872e-32 -1.50379e-34 0)
(5.59766e-32 -1.51391e-34 0)
(5.59668e-32 -1.52318e-34 -1.04639e-59)
(5.59578e-32 -1.53165e-34 -2.1088e-59)
(5.59496e-32 -1.53938e-34 -1.06987e-59)
(5.5942e-32 -1.54643e-34 -1.07067e-59)
(5.59351e-32 -1.55285e-34 -2.17565e-59)
(5.59288e-32 -1.55868e-34 1.08346e-59)
(5.59229e-32 -1.56395e-34 0)
(5.59176e-32 -1.56872e-34 0)
(5.59127e-32 -1.573e-34 2.23921e-59)
(5.59082e-32 -1.57682e-34 0)
(5.5904e-32 -1.58021e-34 0)
(5.59002e-32 -1.58317e-34 -1.1623e-59)
(5.58966e-32 -1.58572e-34 0)
(5.58933e-32 -1.58786e-34 -2.28622e-59)
(5.58902e-32 -1.58958e-34 -1.11577e-59)
(5.58871e-32 -1.59086e-34 0)
(5.58842e-32 -1.59168e-34 -2.29849e-59)
(5.58814e-32 -1.59198e-34 0)
(5.58785e-32 -1.59172e-34 0)
(5.58755e-32 -1.59079e-34 -1.11716e-59)
(5.58723e-32 -1.58909e-34 -1.17558e-59)
(5.58688e-32 -1.58645e-34 -1.11274e-59)
(5.5865e-32 -1.58269e-34 0)
(5.58605e-32 -1.57754e-34 0)
(5.58552e-32 -1.57065e-34 -2.23462e-59)
(5.58489e-32 -1.56156e-34 0)
(5.58412e-32 -1.5497e-34 -2.17031e-59)
(5.58317e-32 -1.53427e-34 0)
(5.58198e-32 -1.51424e-34 0)
(5.58049e-32 -1.48821e-34 0)
(5.57858e-32 -1.45431e-34 9.76897e-60)
(5.57614e-32 -1.40994e-34 0)
(5.57299e-32 -1.35149e-34 -8.71115e-60)
(5.56889e-32 -1.2738e-34 0)
(5.56352e-32 -1.16927e-34 0)
(5.5564e-32 -1.02634e-34 -2.34926e-61)
(5.54685e-32 -8.26569e-35 -3.8601e-60)
(5.53385e-32 -5.38751e-35 0)
(5.51573e-32 -1.0567e-35 0)
(5.4897e-32 5.89428e-35 0)
(5.45061e-32 1.82286e-34 6.85801e-59)
(5.38851e-32 4.39598e-34 0)
(5.29054e-32 1.13279e-33 -5.08482e-58)
(0.000103364 -0.0010158 5.25033e-29)
(0.000310994 -0.00101476 -7.39685e-33)
(0.000520044 -0.00101277 0)
(0.000730303 -0.0010098 1.72962e-32)
(0.000941557 -0.00100586 0)
(0.00115359 -0.00100096 0)
(0.00136618 -0.000995106 -5.12844e-29)
(0.00157912 -0.000988349 -2.54736e-29)
(0.00179223 -0.000980732 2.52243e-29)
(0.00200533 -0.000972311 -2.50389e-29)
(0.00221825 -0.000963148 0)
(0.00243085 -0.000953306 0)
(0.00264301 -0.000942852 -2.41849e-29)
(0.00285461 -0.000931853 -4.77711e-29)
(0.00306555 -0.000920377 4.71479e-29)
(0.00327574 -0.000908486 0)
(0.00348508 -0.000896242 4.58408e-29)
(0.00369347 -0.000883698 2.26686e-29)
(0.00390082 -0.000870899 0)
(0.00410697 -0.000857884 4.37696e-29)
(0.00431177 -0.000844683 -2.16309e-29)
(0.004515 -0.000831323 -4.23386e-29)
(0.00471642 -0.00081783 2.09177e-29)
(0.00491573 -0.000804237 0)
(0.00511264 -0.000790585 4.01479e-29)
(0.00530683 -0.000776931 3.94145e-29)
(0.00549799 -0.00076335 0)
(0.00568585 -0.000749936 3.79652e-29)
(0.00587017 -0.0007368 0)
(0.00605079 -0.000724067 3.65761e-29)
(0.0062276 -0.000711876 -1.81075e-29)
(0.00640055 -0.000700369 0)
(0.00656969 -0.000689692 0)
(0.00673511 -0.000679987 0)
(0.00689699 -0.000671389 0)
(0.00705554 -0.000664028 0)
(0.00721108 -0.000658019 0)
(0.00736394 -0.000653475 3.27406e-29)
(0.00751457 -0.000650503 -1.61053e-29)
(0.00766348 -0.000649215 0)
(0.00781126 -0.000649745 0)
(0.0079586 -0.000652263 0)
(0.00810631 -0.000657001 -6.60183e-29)
(0.00825527 -0.000664278 -3.35627e-29)
(0.00840649 -0.000674527 -3.97016e-31)
(0.00856104 -0.000688325 4.04312e-31)
(0.00872013 -0.000706421 -3.52857e-29)
(0.00888504 -0.00072978 -3.68896e-29)
(0.00905713 -0.000759637 7.6406e-29)
(0.00923791 -0.000797585 3.99254e-29)
(0.00942891 -0.000845713 0)
(0.00963171 -0.000906819 4.55169e-29)
(0.00984769 -0.000984743 9.94948e-29)
(0.0100775 -0.00108488 0)
(0.0103196 -0.00121493 0)
(0.0105666 -0.00138601 -7.01579e-29)
(0.0107948 -0.00161376 0)
(0.0109304 -0.00191706 0)
(0.0107268 -0.00229183 3.51402e-28)
(0.00825794 -0.00217413 2.22459e-28)
(0.00301244 -9.194e-06 1.90832e-31)
(3.48817e-07 -7.96469e-10 0)
(1.11315e-26 -2.54087e-29 -2.62368e-55)
(7.82916e-32 6.60265e-33 0)
(7.7018e-32 5.53592e-33 -8.87691e-58)
(7.57288e-32 4.73948e-33 2.52177e-58)
(7.44905e-32 4.13018e-33 4.48153e-58)
(7.33263e-32 3.65118e-33 5.93981e-58)
(7.22405e-32 3.26438e-33 0)
(7.12299e-32 2.94428e-33 -3.2461e-58)
(7.02887e-32 2.67361e-33 0)
(6.94108e-32 2.44048e-33 -1.39279e-58)
(6.85906e-32 2.23657e-33 -2.50687e-58)
(6.78228e-32 2.05592e-33 -2.31791e-58)
(6.7103e-32 1.89418e-33 2.14864e-58)
(6.64273e-32 1.74812e-33 -1.02921e-58)
(6.57922e-32 1.61528e-33 0)
(6.51947e-32 1.49377e-33 0)
(6.46323e-32 1.38209e-33 1.61216e-58)
(6.41025e-32 1.27905e-33 7.82322e-59)
(6.36031e-32 1.18366e-33 0)
(6.31324e-32 1.09513e-33 6.25788e-59)
(6.26884e-32 1.01277e-33 0)
(6.22697e-32 9.36024e-34 6.01521e-59)
(6.18748e-32 8.6439e-34 -2.07967e-58)
(6.15024e-32 7.97448e-34 1.93949e-58)
(6.11511e-32 7.34829e-34 -9.33039e-59)
(6.08198e-32 6.76204e-34 0)
(6.05074e-32 6.21284e-34 8.13815e-59)
(6.0213e-32 5.69811e-34 -1.46265e-58)
(5.99355e-32 5.21549e-34 0)
(5.9674e-32 4.76288e-34 0)
(5.94278e-32 4.33835e-34 0)
(5.91959e-32 3.94014e-34 5.19206e-59)
(5.89777e-32 3.56662e-34 0)
(5.87724e-32 3.21629e-34 0)
(5.85793e-32 2.88776e-34 0)
(5.83978e-32 2.57974e-34 0)
(5.82272e-32 2.29102e-34 0)
(5.80671e-32 2.02046e-34 -3.7342e-59)