/*--------------------------------*- C++ -*----------------------------------*\
  =========                 |
  \\      /  F ield         | OpenFOAM: The Open Source CFD Toolbox
   \\    /   O peration     | Website:  https://openfoam.org
    \\  /    A nd           | Version:  11
     \\/     M anipulation  |
\*---------------------------------------------------------------------------*/
FoamFile
{
    format      ascii;
    class       surfaceScalarField;
    location    "28";
    object      phi;
}
// * * * * * * * * * * * * * * * * * * * * * * * * * * * * * * * * * * * * * //

dimensions      [0 3 -1 0 0 0 0];

internalField   nonuniform List<scalar> 
4000
(
0.02503
-3.00081e-05
0.0251203
-9.029e-05
0.0252718
-0.000151508
0.0254864
-0.000214637
0.0257667
-0.000280256
0.0261153
-0.000348577
0.0265346
-0.000419309
0.0270262
-0.000491577
0.02759
-0.000563868
0.028224
-0.000633997
0.0289231
-0.000699121
0.0296791
-0.00075592
0.03048
-0.000800902
0.0313108
-0.000830844
0.0321542
-0.00084335
0.0329915
-0.000837355
0.0338051
-0.000813541
0.0345796
-0.000774566
0.0353042
-0.000724551
0.0359721
-0.000667915
0.0365805
-0.00060838
0.0371292
-0.000548689
0.0376199
-0.000490789
0.038056
-0.000436042
0.0384413
-0.000385297
0.0387802
-0.00033896
0.0390774
-0.000297109
0.039337
-0.00025963
0.0395633
-0.000226299
0.0397601
-0.000196816
0.0399309
-0.000170833
0.0400789
-0.000147989
0.0402069
-0.000127937
0.0403172
-0.000110361
0.0404122
-9.49827e-05
0.0404938
-8.15585e-05
0.0405636
-6.9884e-05
0.0406234
-5.9792e-05
0.0406746
-5.11496e-05
0.0407184
-4.38538e-05
0.0407563
-3.78258e-05
0.0407893
-3.30054e-05
0.0408186
-2.93447e-05
0.0408454
-2.68032e-05
0.0408708
-2.5341e-05
0.0408957
-2.49153e-05
0.0409212
-2.54744e-05
0.0409481
-2.69562e-05
0.0409774
-2.92826e-05
0.0410098
-3.2368e-05
0.0410459
-3.61049e-05
0.0410863
-4.03902e-05
0.0411313
-4.50865e-05
0.0411814
-5.0099e-05
0.0412367
-5.52532e-05
0.0412972
-6.05116e-05
0.0413628
-6.56199e-05
0.0414335
-7.07103e-05
0.0415088
-7.53017e-05
0.0415888
-7.99722e-05
0.0416724
-8.35873e-05
0.0417603
-8.78852e-05
0.0418502
-8.99009e-05
-9.44734e-05
0.0250297
-5.97058e-05
0.0251189
-0.000179511
0.0252688
-0.000301341
0.0254814
-0.000427289
0.0257598
-0.000558605
0.026107
-0.000695795
0.026526
-0.000838377
0.0270191
-0.000984661
0.0275869
-0.00113163
0.0282278
-0.00127487
0.0289372
-0.00140853
0.0297069
-0.00152566
0.0305248
-0.00161877
0.0313747
-0.00168076
0.0322377
-0.00170636
0.0330935
-0.00169314
0.0339226
-0.00164263
0.0347089
-0.00156091
0.0354415
-0.00145711
0.0361141
-0.00134056
0.0367245
-0.00121877
0.0372731
-0.00109725
0.0377622
-0.000979882
0.0381955
-0.000869371
0.0385775
-0.000767305
0.0389129
-0.000674358
0.0392064
-0.00059059
0.0394625
-0.000515718
0.0396854
-0.000449247
0.0398791
-0.000390532
0.0400471
-0.00033884
0.0401926
-0.000293423
0.0403182
-0.000253577
0.0404265
-0.00021866
0.0405196
-0.000188108
0.0405995
-0.000161433
0.0406679
-0.000138225
0.0407262
-0.000118154
0.040776
-0.000100957
0.0408186
-8.6433e-05
0.0408552
-7.44299e-05
0.040887
-6.48324e-05
0.0409152
-5.75508e-05
0.0409409
-5.25091e-05
0.0409652
-4.96328e-05
0.0409892
-4.88397e-05
0.0410137
-5.00298e-05
0.0410398
-5.30785e-05
0.0410684
-5.78317e-05
0.0411001
-6.41143e-05
0.0411357
-7.17142e-05
0.0411758
-8.04131e-05
0.0412206
-8.99455e-05
0.0412706
-0.000100098
0.0413259
-0.000110547
0.0413866
-0.000121169
0.0414525
-0.00013152
0.0415235
-0.000141758
0.0415993
-0.000151071
0.0416797
-0.000160392
0.0417639
-0.000167771
0.0418522
-0.000176235
0.0419428
-0.000180481
-0.000189384
0.0250289
-8.85915e-05
0.0251158
-0.000266407
0.025262
-0.00044757
0.0254703
-0.000635564
0.0257442
-0.000832567
0.0260881
-0.00103961
0.026506
-0.00125628
0.0270015
-0.00148017
0.0275767
-0.00170682
0.0282312
-0.00192938
0.0289613
-0.00213865
0.0297592
-0.00232356
0.0306119
-0.00247148
0.0315013
-0.00257022
0.0324053
-0.00261033
0.0332992
-0.00258701
0.0341598
-0.0025032
0.0349694
-0.00237053
0.0357173
-0.00220507
0.0363986
-0.00202185
0.0370122
-0.00183232
0.0375596
-0.00164468
0.0380446
-0.00146483
0.0384719
-0.00129667
0.0388468
-0.00114225
0.0391747
-0.00100224
0.0394606
-0.000876517
0.0397094
-0.000764505
0.0399255
-0.000665345
0.0401129
-0.000577948
0.0402752
-0.000501128
0.0404155
-0.000433707
0.0405365
-0.000374597
0.0406407
-0.000322816
0.0407301
-0.000277503
0.0408066
-0.000237921
0.0408718
-0.00020346
0.0409273
-0.000173629
0.0409744
-0.000148044
0.0410143
-0.000126417
0.0410484
-0.000108533
0.0410778
-9.42334e-05
0.0411037
-8.33976e-05
0.0411271
-7.59248e-05
0.0411492
-7.17166e-05
0.041171
-7.06595e-05
0.0411936
-7.26117e-05
0.0412179
-7.73848e-05
0.0412448
-8.47522e-05
0.0412751
-9.4444e-05
0.0413096
-0.000106144
0.0413487
-0.0001195
0.0413928
-0.000134128
0.0414424
-0.000149663
0.0414975
-0.000165662
0.0415582
-0.000181848
0.0416243
-0.000197663
0.0416958
-0.000213172
0.0417721
-0.000227388
0.0418531
-0.000241374
0.0419379
-0.000252656
0.0420269
-0.000265184
0.0421182
-0.000271743
-0.000284715
0.0250275
-0.00011614
0.0251105
-0.000349388
0.0252506
-0.000587657
0.0254513
-0.000836236
0.0257173
-0.00109857
0.0260543
-0.00137661
0.0264685
-0.00167049
0.0269657
-0.00197736
0.0275506
-0.00229166
0.0282248
-0.0026036
0.0289862
-0.00290004
0.0298274
-0.00316485
0.0307345
-0.00337852
0.0316865
-0.00352226
0.0326558
-0.00357958
0.0336095
-0.00354076
0.0345183
-0.00341196
0.0353624
-0.00321469
0.0361324
-0.00297501
0.0368251
-0.00271454
0.0374414
-0.00244869
0.0379853
-0.00218852
0.0384624
-0.00194191
0.0388793
-0.00171361
0.0392426
-0.00150557
0.0395584
-0.00131803
0.0398323
-0.00115046
0.0400697
-0.00100185
0.0402751
-0.000870807
0.0404528
-0.000755642
0.0406063
-0.000654616
0.0407387
-0.000566074
0.0408526
-0.000488507
0.0409504
-0.000420573
0.041034
-0.000361103
0.0411051
-0.000309107
0.0411655
-0.000263779
0.0412163
-0.000224478
0.041259
-0.000190717
0.0412947
-0.000162133
0.0413246
-0.000138464
0.0413499
-0.000119527
0.0413717
-0.000105188
0.0413911
-9.53366e-05
0.0414093
-8.98661e-05
0.0414273
-8.86485e-05
0.0414462
-9.15067e-05
0.041467
-9.81843e-05
0.0414906
-0.000108389
0.0415179
-0.000121751
0.0415496
-0.000137845
0.0415863
-0.000156156
0.0416283
-0.000176196
0.0416761
-0.000197398
0.0417296
-0.000219243
0.041789
-0.000241198
0.0418541
-0.000262722
0.0419244
-0.000283559
0.0419999
-0.000302872
0.0420799
-0.000321367
0.042164
-0.000336752
0.0422517
-0.000352897
0.042342
-0.000362045
-0.000378258
0.0250255
-0.00014162
0.0251024
-0.000426337
0.0252329
-0.00071817
0.0254216
-0.00102485
0.0256744
-0.0013514
0.025999
-0.00170128
0.0264045
-0.00207592
0.0268996
-0.0024725
0.0274936
-0.00288566
0.0281918
-0.00330178
0.0289954
-0.00370366
0.0298978
-0.0040672
0.0308824
-0.00436314
0.0319252
-0.00456512
0.032989
-0.00464329
0.0340267
-0.00457848
0.0350003
-0.00438555
0.0358892
-0.00410361
0.0366862
-0.00377205
0.0373911
-0.00341946
0.0380079
-0.00306542
0.0385436
-0.00272429
0.0390075
-0.00240582
0.0394086
-0.00211461
0.0397546
-0.00185157
0.0400526
-0.00161606
0.0403091
-0.00140696
0.0405298
-0.0012226
0.0407198
-0.00106079
0.0408832
-0.000919065
0.0410236
-0.000795026
0.041144
-0.00068648
0.041247
-0.000591461
0.0413347
-0.000508239
0.0414089
-0.000435324
0.0414713
-0.000371473
0.0415232
-0.000315689
0.0415659
-0.000267201
0.0416006
-0.000225439
0.0416285
-0.00018999
0.0416506
-0.000160556
0.041668
-0.000136954
0.0416819
-0.000119063
0.0416933
-0.000106784
0.0417035
-0.000100017
0.0417135
-9.86429e-05
0.0417244
-0.000102456
0.0417373
-0.000111123
0.0417532
-0.000124293
0.041773
-0.000141496
0.0417973
-0.000162179
0.0418268
-0.000185636
0.0418619
-0.000211284
0.0419028
-0.000238298
0.0419497
-0.000266123
0.0420023
-0.000293856
0.0420607
-0.000321121
0.0421242
-0.00034708
0.0421928
-0.000371444
0.0422654
-0.00039394
0.0423421
-0.000413432
0.0424214
-0.000432251
0.0425036
-0.000444258
-0.000462075
0.0250224
-0.00016404
0.0250906
-0.000494474
0.0252068
-0.000834438
0.0253773
-0.00119529
0.0256093
-0.00158345
0.0259135
-0.00200545
0.0263016
-0.00246398
0.0267866
-0.00295753
0.0273842
-0.00348331
0.0281053
-0.00402282
0.0289606
-0.00455899
0.0299446
-0.00505125
0.0310378
-0.00545628
0.032211
-0.00573839
0.0334064
-0.00583869
0.0345546
-0.00572665
0.0356097
-0.00544068
0.0365534
-0.00504729
0.0373817
-0.00460039
0.0380975
-0.00413525
0.0387088
-0.00367669
0.0392281
-0.00324359
0.0396692
-0.00284689
0.0400437
-0.00248912
0.040361
-0.00216891
0.0406295
-0.00188453
0.0408566
-0.00163408
0.0410489
-0.00141486
0.0412116
-0.0012235
0.0413491
-0.00105657
0.041465
-0.000910909
0.0415622
-0.000783708
0.0416432
-0.000672478
0.0417101
-0.000575051
0.0417643
-0.0004896
0.0418075
-0.000414625
0.0418407
-0.000348947
0.0418652
-0.000291651
0.0418819
-0.000242128
0.0418918
-0.000199939
0.041896
-0.00016476
0.0418955
-0.000136438
0.0418913
-0.000114838
0.0418844
-9.99401e-05
0.0418761
-9.17065e-05
0.0418675
-9.00022e-05
0.0418596
-9.45854e-05
0.0418536
-0.000105068
0.0418503
-0.000121044
0.0418508
-0.000141941
0.0418556
-0.000167029
0.0418654
-0.00019542
0.0418805
-0.000226418
0.0419012
-0.000258943
0.0419274
-0.000292357
0.041959
-0.000325397
0.0419957
-0.000357829
0.0420368
-0.000388228
0.0420823
-0.000416917
0.0421309
-0.000442504
0.0421828
-0.00046541
0.0422363
-0.000485709
0.0422923
-0.000500272
-0.000517749
0.0250181
-0.000182119
0.0250739
-0.000550329
0.0251697
-0.000930222
0.0253138
-0.00133942
0.025514
-0.00178361
0.0257861
-0.00227753
0.0261434
-0.00282127
0.0266062
-0.00342033
0.0271961
-0.00407319
0.0279294
-0.00475611
0.0288391
-0.00546869
0.029922
-0.00613422
0.0311659
-0.00670014
0.0325309
-0.00710341
0.0339118
-0.00721961
0.035207
-0.00702184
0.0363673
-0.00660098
0.0373771
-0.00605705
0.0382335
-0.00545677
0.0389425
-0.00484429
0.0395199
-0.00425404
0.0399879
-0.00371159
0.0403676
-0.0032266
0.0406745
-0.00279607
0.040921
-0.00241533
0.0411178
-0.00208138
0.0412745
-0.00179082
0.0413987
-0.00153904
0.0414962
-0.00132098
0.0415716
-0.00113197
0.0416286
-0.000967939
0.0416702
-0.000825292
0.0416986
-0.000700897
0.0417157
-0.000592073
0.0417227
-0.000496608
0.0417208
-0.000412728
0.0417109
-0.000339093
0.0416939
-0.000274618
0.0416704
-0.00021864
0.0416412
-0.000170705
0.0416069
-0.000130538
0.0415686
-9.81414e-05
0.0415268
-7.30496e-05
0.0414824
-5.54785e-05
0.0414364
-4.57275e-05
0.0413899
-4.34868e-05
0.0413437
-4.83923e-05
0.0412987
-6.00838e-05
0.041256
-7.8285e-05
0.0412162
-0.000102221
0.0411801
-0.00013086
0.0411479
-0.000163267
0.0411201
-0.000198567
0.0410967
-0.000235559
0.0410777
-0.000273345
0.0410628
-0.000310562
0.0410518
-0.000346763
0.041044
-0.000380499
0.041039
-0.00041191
0.0410362
-0.000439704
0.0410351
-0.000464277
0.0410351
-0.000485751
0.0410361
-0.000501264
-0.000518479
0.0250122
-0.000194352
0.0250518
-0.000589886
0.0251193
-0.000997715
0.0252269
-0.00144702
0.0253789
-0.00193567
0.0256026
-0.00250122
0.0259059
-0.00312453
0.0263316
-0.00384606
0.0268948
-0.00463637
0.0276268
-0.00548817
0.0285879
-0.00642972
0.02976
-0.00730638
0.0312147
-0.0081548
0.0328803
-0.00876905
0.0345377
-0.00887695
0.0360304
-0.0085146
0.0373008
-0.00787134
0.0383308
-0.00708707
0.0391233
-0.00624925
0.0397011
-0.00542212
0.0401049
-0.00465779
0.0403798
-0.00398649
0.040559
-0.00340586
0.0406648
-0.00290185
0.0407154
-0.00246587
0.0407262
-0.00209221
0.040709
-0.00177361
0.0406719
-0.00150192
0.0406206
-0.00126972
0.0405595
-0.00107084
0.0404915
-0.000899995
0.0404189
-0.000752659
0.0403429
-0.000624958
0.0402645
-0.000513677
0.0401842
-0.00041622
0.040102
-0.000330534
0.040018
-0.000255152
0.0399324
-0.000188997
0.0398451
-0.000131365
0.0397557
-8.12625e-05
0.0396642
-3.9033e-05
0.0395713
-5.29224e-06
0.0394766
2.17025e-05
0.03938
4.10859e-05
0.0392825
5.18183e-05
0.0391844
5.45976e-05
0.0390863
4.97418e-05
0.0389882
3.79533e-05
0.0388911
1.88798e-05
0.0387957
-6.82238e-06
0.0387022
-3.73905e-05
0.038611
-7.21072e-05
0.0385223
-0.000109877
0.0384364
-0.000149624
0.038353
-0.000189929
0.0382722
-0.000229778
0.0381935
-0.00026805
0.0381171
-0.000304095
0.0380418
-0.000336591
0.0379685
-0.000366447
0.0378951
-0.00039083
0.0378244
-0.000415114
0.0377524
-0.000429226
-0.000451419
0.0250049
-0.000199289
0.0250238
-0.000608724
0.0250546
-0.00102853
0.0251137
-0.00150608
0.025197
-0.00201905
0.0253492
-0.00265341
0.0255569
-0.0033322
0.0259228
-0.00421193
0.0264114
-0.005125
0.0271586
-0.00623536
0.0281639
-0.00743501
0.0293847
-0.00852717
0.0311963
-0.00996646
0.0333442
-0.0109169
0.0353183
-0.010851
0.0368896
-0.0100859
0.0380115
-0.00899323
0.038703
-0.00777864
0.0390284
-0.0065746
0.0390718
-0.00546554
0.0389323
-0.00451833
0.0386912
-0.00374532
0.03839
-0.00310472
0.0380555
-0.00256735
0.0377112
-0.00212152
0.0373733
-0.00175437
0.0370509
-0.00145117
0.0367482
-0.00119924
0.0364674
-0.00098888
0.0362089
-0.000812378
0.0359723
-0.000663355
0.0357561
-0.000536524
0.0355588
-0.000427586
0.0353782
-0.000333127
0.0352124
-0.000250429
0.0350593
-0.000177417
0.0349165
-0.000112386
0.0347821
-5.46146e-05
0.0346558
-4.9919e-06
0.0345335
4.09807e-05
0.0344147
7.97761e-05
0.0342974
0.000111996
0.0341813
0.000137845
0.0340656
0.000156773
0.0339493
0.000168151
0.033832
0.000171904
0.0337135
0.000168208
0.0335943
0.000157174
0.0334742
0.000138915
0.0333532
0.000114219
0.0332317
8.41338e-05
0.0331099
4.96711e-05
0.032988
1.20369e-05
0.0328668
-2.84393e-05
0.0327462
-6.92896e-05
0.0326267
-0.000110298
0.0325083
-0.000149634
0.0323916
-0.000187403
0.0322757
-0.000220718
0.0321621
-0.000252845
0.0320484
-0.000277125
0.0319389
-0.000305671
0.031828
-0.000318258
-0.000352419
0.0249967
-0.00019596
0.02499
-0.000602098
0.0249774
-0.00101593
0.0249742
-0.00150279
0.0249704
-0.00201525
0.0250182
-0.00270131
0.025078
-0.00339193
0.0253236
-0.00445756
0.0256198
-0.00542122
0.0264248
-0.00704031
0.0273661
-0.00837629
0.0288333
-0.00999444
0.0312986
-0.0124318
0.033782
-0.0134003
0.0354577
-0.0125267
0.0362546
-0.0108828
0.0363015
-0.00904015
0.0357764
-0.0072535
0.0348909
-0.00568907
0.0338075
-0.00438218
0.0326893
-0.00340013
0.0316307
-0.00268668
0.0306524
-0.00212642
0.02977
-0.00168501
0.0289963
-0.0013478
0.02833
-0.00108807
0.0277631
-0.000884204
0.0272858
-0.000721964
0.0268883
-0.000591443
0.0265609
-0.000484938
0.0262939
-0.00039638
0.0260785
-0.000321145
0.0259067
-0.000255769
0.0257713
-0.000197675
0.0256658
-0.000144946
0.0255846
-9.62663e-05
0.0255228
-5.05761e-05
0.0254742
-5.98755e-06
0.0254365
3.26812e-05
0.0254062
7.13171e-05
0.0253795
0.00010646
0.0253541
0.000137423
0.0253278
0.000164101
0.025299
0.000185627
0.0252661
0.000201055
0.0252282
0.000209795
0.0251849
0.000211463
0.0251362
0.000205918
0.025082
0.000193055
0.025023
0.000173245
0.0249598
0.000147371
0.0248933
0.000116189
0.0248244
8.08884e-05
0.0247538
4.21253e-05
0.0246817
2.84909e-06
0.024609
-3.7626e-05
0.0245365
-7.70883e-05
0.0244643
-0.00011523
0.0243927
-0.000149062
0.0243211
-0.000181293
0.0242498
-0.000205845
0.0241783
-0.000234182
0.0241078
-0.000247674
-0.000287791
0.024988
-0.000183928
0.0249517
-0.000565798
0.024892
-0.000956296
0.0248127
-0.00142342
0.0247126
-0.00191521
0.0246153
-0.00260396
0.0244983
-0.00327494
0.0244953
-0.00445454
0.0244595
-0.00538545
0.0250904
-0.00767124
0.0256261
-0.00891199
0.0282349
-0.0126032
0.0308557
-0.0150525
0.0319715
-0.0145161
0.0314679
-0.0120231
0.02993
-0.00934492
0.0277745
-0.00688461
0.0253694
-0.00484838
0.0230124
-0.0033321
0.0208007
-0.0021705
0.0189588
-0.0015582
0.0174944
-0.00122229
0.0163617
-0.000993738
0.0155343
-0.000857647
0.0149571
-0.000770548
0.0145731
-0.00070412
0.0143364
-0.000647467
0.0142108
-0.000596416
0.0141682
-0.000548787
0.0141864
-0.00050317
0.0142488
-0.000458746
0.0143426
-0.000414987
0.0144584
-0.000371497
0.0145886
-0.000327946
0.0147278
-0.000284093
0.0148713
-0.000239763
0.0150157
-0.000194978
0.0151597
-0.00014997
0.0152982
-0.000105822
0.0154314
-6.18688e-05
0.0155567
-1.88739e-05
0.0156737
2.04084e-05
0.0157812
5.664e-05
0.0158784
8.83417e-05
0.0159655
0.000113987
0.0160424
0.000132948
0.0161094
0.000144409
0.0161673
0.000147995
0.016217
0.000143437
0.0162593
0.000130853
0.0162957
0.000111058
0.0163266
8.52705e-05
0.0163533
5.41888e-05
0.0163774
1.7999e-05
0.0163974
-1.71406e-05
0.016415
-5.51961e-05
0.0164299
-9.20051e-05
0.0164414
-0.000126769
0.0164493
-0.000156897
0.0164514
-0.000183423
0.0164484
-0.000202862
0.0164354
-0.000221131
0.0164188
-0.000231142
-0.000258852
0.0249788
-0.000162753
0.0249115
-0.000498486
0.0248029
-0.000847721
0.0246411
-0.00126154
0.0244406
-0.00171475
0.0241713
-0.00233462
0.0238761
-0.00297981
0.0234979
-0.0040763
0.0231056
-0.00499321
0.0228383
-0.00740388
0.022525
-0.00859869
0.0256742
-0.0157525
0.0258284
-0.0152067
0.0223943
-0.011082
0.0184655
-0.00809428
0.0146906
-0.00557009
0.0113515
-0.0035455
0.00865767
-0.00215452
0.00657137
-0.00124581
0.00492842
-0.000527545
0.00425872
-0.000888496
0.00415836
-0.00112193
0.00431584
-0.00115122
0.0045782
-0.00112001
0.00485605
-0.0010484
0.0051201
-0.00096817
0.00536562
-0.000892981
0.00559489
-0.000825692
0.00581153
-0.000765425
0.00601835
-0.00070999
0.00621761
-0.000658008
0.00641081
-0.000608192
0.00659878
-0.000559463
0.00678183
-0.000510996
0.00695996
-0.000462223
0.007133
-0.000412803
0.00730073
-0.000362708
0.00746284
-0.000312076
0.00761843
-0.000261418
0.00776781
-0.000211249
0.00791122
-0.000162286
0.00804759
-0.000115959
0.00817729
-7.30596e-05
0.00830046
-3.48314e-05
0.00841738
-2.92777e-06
0.00852841
2.19213e-05
0.00863338
3.94399e-05
0.00873312
4.82474e-05
0.00882748
4.90832e-05
0.00891698
4.13508e-05
0.00900227
2.57661e-05
0.00908228
5.26102e-06
0.00915707
-2.05991e-05
0.00922555
-5.04828e-05
0.00928964
-8.12262e-05
0.0093468
-0.000112358
0.00939624
-0.00014145
0.00943659
-0.000167116
0.00946663
-0.000186939
0.00948445
-0.000201241
0.00948875
-0.000207164
0.00947658
-0.000208961
0.00944596
-0.000200519
-0.000201023
0.0249693
-0.000132102
0.0248737
-0.000402879
0.0247155
-0.000689482
0.0244777
-0.00102375
0.0241705
-0.00140749
0.0237425
-0.00190669
0.0232491
-0.00248642
0.0225218
-0.00334894
0.0217932
-0.00426461
0.0204197
-0.00603038
0.0189843
-0.00716336
0.0151843
-0.0119524
0.00837374
-0.00839624
0.00420323
-0.00691146
0.00199988
-0.00589094
0.000974992
-0.0045452
0.000542148
-0.00311266
0.000341365
-0.00195374
0.000208991
-0.00111343
0.000130243
-0.000448797
0.000299674
-0.00105793
0.000565713
-0.00138797
0.000756202
-0.0013417
0.000905489
-0.0012693
0.00103096
-0.00117387
0.00114274
-0.00107995
0.0012438
-0.00099404
0.00133572
-0.000917614
0.00142033
-0.000850026
0.00149979
-0.000789456
0.00157588
-0.0007341
0.00164996
-0.00068227
0.00172301
-0.000632508
0.00179568
-0.000583667
0.00186839
-0.000534937
0.00194142
-0.000485828
0.00201488
-0.000436169
0.00208884
-0.00038604
0.00216326
-0.00033584
0.00223812
-0.000286102
0.0023134
-0.000237571
0.00238875
-0.000191305
0.00246406
-0.000148369
0.00253915
-0.000109927
0.00261345
-7.72227e-05
0.00268666
-5.12852e-05
0.00275873
-3.26356e-05
0.00282881
-2.18333e-05
0.00289665
-1.8756e-05
0.00296108
-2.30821e-05
0.00302074
-3.3893e-05
0.00307566
-4.96537e-05
0.0031244
-6.93461e-05
0.00316549
-9.15697e-05
0.00319863
-0.000114365
0.00322254
-0.000136269
0.0032364
-0.000155313
0.00323906
-0.000169774
0.00322972
-0.000177601
0.00320674
-0.000178253
0.00316966
-0.000170087
0.00311492
-0.000154221
0.0030377
-0.0001233
-9.55933e-05
0.0249609
-9.30043e-05
0.0248417
-0.000283701
0.0246387
-0.000486478
0.0243384
-0.000723439
0.0239297
-0.000998787
0.0233784
-0.00135541
0.0226722
-0.0017802
0.0217112
-0.00238791
0.0205131
-0.00306656
0.0186769
-0.00419414
0.0165339
-0.00502032
0.0122619
-0.00768046
0.00885299
-0.0049873
0.00621591
-0.00427438
0.00410365
-0.00377868
0.00253994
-0.00298149
0.00152386
-0.00209657
0.000912341
-0.00134222
0.000565081
-0.000766174
0.00040212
-0.000285836
0.000149506
-0.000805312
-9.70663e-05
-0.0011414
-0.000289085
-0.00114969
-0.000477922
-0.00108046
-0.000653926
-0.000997867
-0.00081565
-0.000918229
-0.000963588
-0.000846101
-0.00109876
-0.000782442
-0.00122228
-0.0007265
-0.00133494
-0.000676801
-0.00143735
-0.000631691
-0.00153002
-0.000589596
-0.00161338
-0.000549151
-0.00168777
-0.000509279
-0.00175348
-0.000469221
-0.0018108
-0.000428515
-0.00185999
-0.000386972
-0.00190139
-0.000344645
-0.00193539
-0.00030184
-0.0019625
-0.000258995
-0.00198326
-0.000216805
-0.00199837
-0.000176193
-0.00200854
-0.000138207
-0.00201452
-0.000103946
-0.00201731
-7.4434e-05
-0.00201744
-5.11527e-05
-0.00201584
-3.42304e-05
-0.0020137
-2.39799e-05
-0.00201206
-2.03909e-05
-0.00201223
-2.29178e-05
-0.00201547
-3.06457e-05
-0.00202264
-4.24897e-05
-0.00203462
-5.73608e-05
-0.00205207
-7.412e-05
-0.00207506
-9.13794e-05
-0.00210369
-0.000107642
-0.00213787
-0.000121124
-0.00217788
-0.000129771
-0.00222403
-0.000131449
-0.00227752
-0.000124764
-0.00233868
-0.000108927
-0.00240736
-8.55362e-05
-0.0024743
-5.63654e-05
-2.42208e-05
0.024955
-4.8034e-05
0.0248179
-0.000146534
0.0245829
-0.000251553
0.0242341
-0.0003746
0.0237535
-0.00051819
0.0231028
-0.000704666
0.0222492
-0.000926678
0.0211046
-0.00124332
0.0196284
-0.0015903
0.0175929
-0.00215868
0.0151292
-0.00255663
0.0112755
-0.0038267
0.00863244
-0.00234425
0.00634
-0.00198194
0.00435363
-0.00179231
0.00283196
-0.00145982
0.00179433
-0.00105895
0.00114435
-0.000692241
0.000775172
-0.000396997
0.000628905
-0.000139569
0.000258886
-0.000435294
-0.000241972
-0.000640542
-0.000734694
-0.000656964
-0.00119546
-0.000619698
-0.00161977
-0.00057355
-0.00200798
-0.000530023
-0.00236275
-0.000491333
-0.00268749
-0.000457703
-0.00298552
-0.000428467
-0.00325974
-0.000402584
-0.00351253
-0.000378898
-0.00374583
-0.000356296
-0.00396118
-0.000333801
-0.00415982
-0.000310635
-0.0043428
-0.000286245
-0.00451101
-0.000260309
-0.0046653
-0.000232676
-0.00480655
-0.000203395
-0.00493557
-0.000172819
-0.0050533
-0.000141263
-0.00516066
-0.00010945
-0.00525856
-7.82933e-05
-0.00534792
-4.88487e-05
-0.00542962
-2.22475e-05
-0.00550538
1.334e-06
-0.00557472
1.81838e-05
-0.00563933
3.03779e-05
-0.00570043
3.71238e-05
-0.00575893
3.81115e-05
-0.00581588
3.40265e-05
-0.00587206
2.55359e-05
-0.00592781
1.3257e-05
-0.00598329
-1.88205e-06
-0.00603826
-1.9151e-05
-0.00609217
-3.74682e-05
-0.00614463
-5.51833e-05
-0.00619508
-7.06715e-05
-0.00624329
-8.15595e-05
-0.00628943
-8.53057e-05
-0.00633382
-8.03721e-05
-0.00637597
-6.67778e-05
-0.00641438
-4.71305e-05
-0.00644536
-2.53809e-05
-5.50634e-06
0.0249519
5.94302e-08
0.0248052
1.56701e-07
0.0245534
2.30082e-07
0.0241786
2.80279e-07
0.0236601
3.10333e-07
0.0229551
3.19593e-07
0.0220281
3.16152e-07
0.0207845
2.93238e-07
0.0191939
2.74971e-07
0.017035
2.31004e-07
0.0144781
2.35525e-07
0.0106512
2.03697e-07
0.0083068
1.47266e-07
0.00632451
3.49193e-07
0.00453163
5.68821e-07
0.00307104
7.70168e-07
0.00201114
9.54816e-07
0.00131779
1.10727e-06
0.000919577
1.21467e-06
0.000778973
1.03476e-06
0.000344607
-9.27145e-07
-0.000292527
-3.40846e-06
-0.000944062
-5.42952e-06
-0.00155568
-8.08025e-06
-0.00211746
-1.17653e-05
-0.00263119
-1.62935e-05
-0.00310109
-2.14399e-05
-0.00353189
-2.69032e-05
-0.00392806
-3.22924e-05
-0.0042935
-3.71494e-05
-0.00463142
-4.09717e-05
-0.00494448
-4.3234e-05
-0.00523483
-4.34563e-05
-0.00550426
-4.1207e-05
-0.0057543
-3.61994e-05
-0.00598625
-2.83566e-05
-0.00620135
-1.75809e-05
-0.00640079
-3.95445e-06
-0.00658531
1.17004e-05
-0.00675608
2.95041e-05
-0.00691396
4.84381e-05
-0.00705985
6.75971e-05
-0.00719463
8.59273e-05
-0.00731922
0.000102345
-0.00743381
0.000115921
-0.0075408
0.000125175
-0.00764042
0.000129996
-0.00773343
0.00013013
-0.00782087
0.000125558
-0.0079034
0.000116557
-0.00798142
0.00010355
-0.00805539
8.72295e-05
-0.00812509
6.78163e-05
-0.00819057
4.63301e-05
-0.00825103
2.29892e-05
-0.0083066
3.91766e-07
-0.00835635
-2.09188e-05
-0.00839968
-3.82281e-05
-0.00843685
-4.81418e-05
-0.00846772
-4.94964e-05
-0.00849239
-4.21119e-05
-0.00851129
-2.8234e-05
-0.00852406
-1.2606e-05
-1.21152e-06
0.0249519
4.81519e-05
0.0248052
0.000146844
0.0245534
0.000252009
0.0241786
0.000375155
0.0236601
0.000518804
0.0229551
0.000705297
0.0220281
0.000927302
0.0207845
0.0012439
0.0191939
0.00159084
0.017035
0.00215913
0.0144782
0.00255709
0.0106513
0.00382709
0.0083069
0.00234455
0.00632462
0.00198263
0.00453174
0.00179345
0.00307115
0.00146136
0.00201124
0.00106087
0.00131786
0.00069448
0.000919605
0.000399472
0.000778848
0.000141792
0.000343822
0.000434099
-0.000293965
0.000634379
-0.000946055
0.00064666
-0.00155821
0.000604075
-0.00212053
0.000550552
-0.00263479
0.000497967
-0.00310521
0.000448982
-0.00353654
0.000404428
-0.00393326
0.000364424
-0.00429925
0.000328845
-0.00463776
0.000297541
-0.00495142
0.000270423
-0.00524236
0.000247485
-0.00551234
0.000228773
-0.00576286
0.000214315
-0.00599527
0.000204058
-0.00621073
0.000197872
-0.00641016
0.000195477
-0.0065948
0.000196341
-0.0067653
0.000200008
-0.00692254
0.000205675
-0.00706736
0.000212416
-0.00720064
0.000219206
-0.00732329
0.000224998
-0.00743612
0.000228753
-0.00754044
0.000229496
-0.00763717
0.000226719
-0.00772716
0.000220121
-0.00781126
0.000209664
-0.00789024
0.000195528
-0.00796472
0.000178029
-0.00803506
0.00015757
-0.00810171
0.000134465
-0.00816455
0.000109176
-0.0082238
8.2242e-05
-0.00827834
5.49306e-05
-0.00832776
2.84928e-05
-0.00837048
4.4966e-06
-0.00840712
-1.14986e-05
-0.00843601
-2.06065e-05
-0.00845702
-2.11e-05
-0.00847122
-1.40415e-05
-0.00847956
-4.26138e-06
1.42361e-06
0.024955
9.31193e-05
0.0248179
0.000284004
0.024583
0.000486922
0.0242341
0.000723978
0.0237536
0.000999382
0.0231028
0.00135602
0.0222493
0.0017808
0.0211048
0.00238846
0.0196285
0.00306707
0.0175931
0.00419455
0.0151295
0.00502072
0.0112758
0.00768082
0.00863274
0.00498757
0.00634034
0.00427503
0.004354
0.00377979
0.0028323
0.00298306
0.00179463
0.00209854
0.00114458
0.00134453
0.000775287
0.000768762
0.000628571
0.000288509
0.00025675
0.00080592
-0.000246025
0.00113715
-0.000740442
0.00114108
-0.00120287
0.0010665
-0.00162882
0.000976503
-0.00201865
0.000887794
-0.002375
0.000805332
-0.00270128
0.000730708
-0.00300083
0.000663979
-0.00327657
0.000604588
-0.0035309
0.000551867
-0.00376572
0.000505244
-0.00398254
0.000464305
-0.00418255
0.000428784
-0.00436674
0.000398501
-0.00453597
0.000373288
-0.00469102
0.000352925
-0.00483262
0.000337079
-0.00496156
0.000325275
-0.00507849
0.000316944
-0.00518416
0.000311344
-0.00527935
0.000307601
-0.0053649
0.00030476
-0.00544175
0.000301848
-0.00551092
0.000297922
-0.00557357
0.000292151
-0.00563084
0.000283984
-0.00568381
0.000273093
-0.00573353
0.000259382
-0.00578097
0.00024297
-0.00582705
0.000224106
-0.00587256
0.000203085
-0.00591829
0.000180191
-0.00596482
0.000155713
-0.0060126
0.000130015
-0.00606139
0.000103726
-0.00611058
7.76848e-05
-0.00615954
5.34553e-05
-0.00620458
3.35349e-05
-0.00624454
1.93621e-05
-0.00627738
1.1732e-05
-0.00630247
1.10492e-05
-0.00631955
1.28249e-05
1.29398e-05
0.0249609
0.000132213
0.0248417
0.000403168
0.0246388
0.000689906
0.0243385
0.00102427
0.0239298
0.00140805
0.0233786
0.00190726
0.0226724
0.00248698
0.0217114
0.00334944
0.0205134
0.00426505
0.0186772
0.00603073
0.0165343
0.00716367
0.0122625
0.0119526
0.00885353
0.00839652
0.00621648
0.00691209
0.00410426
0.00589201
0.00254053
0.00454678
0.00152438
0.00311469
0.000912767
0.00195615
0.000565377
0.00111615
0.000401908
0.000451978
0.000146986
0.00106084
-0.000102301
0.00138644
-0.000297348
0.00133613
-0.000488859
0.00125801
-0.000667686
0.00115533
-0.000832269
0.00105238
-0.000982974
0.000956037
-0.00112077
0.0008685
-0.00124679
0.000789999
-0.00136183
0.000719633
-0.00146652
0.000656558
-0.00156134
0.000600058
-0.00164663
0.000549598
-0.00172267
0.000504831
-0.00178971
0.000465533
-0.00184794
0.000431518
-0.00189758
0.000402568
-0.00193888
0.000378374
-0.00197211
0.00035851
-0.0019976
0.000342436
-0.00201575
0.000329492
-0.00202703
0.00031888
-0.00203202
0.000309748
-0.00203141
0.000301242
-0.00202605
0.000292565
-0.00201695
0.000283047
-0.00200519
0.000272222
-0.00199193
0.000259837
-0.00197838
0.000245835
-0.00196577
0.000230352
-0.00195531
0.000213648
-0.00194828
0.000196059
-0.00194599
0.000177893
-0.00194975
0.00015948
-0.00196081
0.000141068
-0.00198017
0.000123085
-0.00200833
0.000105848
-0.00204525
9.03791e-05
-0.00208908
7.73641e-05
-0.00213843
6.87112e-05
-0.00219041
6.37152e-05
-0.00224345
6.40827e-05
-0.00229019
5.95702e-05
6.67979e-05
0.0249694
0.000162857
0.0248738
0.000498758
0.0247156
0.000848119
0.0244778
0.00126201
0.0241706
0.00171528
0.0237427
0.00233514
0.0232494
0.00298031
0.0225221
0.00407673
0.0217935
0.00499358
0.0204202
0.00740412
0.0189849
0.0085989
0.015185
0.0157526
0.00837445
0.0152071
0.00420389
0.0110826
0.00200049
0.00809541
0.000975544
0.00557174
0.00054265
0.00354759
0.000341878
0.00215692
0.000209639
0.00124839
0.000131106
0.000530511
0.00030015
0.000891797
0.00056395
0.00112264
0.0007517
0.00114837
0.000897525
0.00111219
0.00101911
0.00103374
0.00112672
0.000944772
0.00122346
0.000859293
0.00131104
0.000780927
0.00139123
0.000709803
0.00146628
0.000644589
0.00153801
0.000584827
0.0016079
0.000530164
0.00167708
0.000480418
0.00174636
0.000435553
0.0018163
0.000395588
0.00188731
0.000360507
0.00195967
0.000330208
0.00203358
0.000304464
0.00210918
0.000282912
0.00218654
0.000265076
0.00226563
0.000250408
0.00234637
0.000238132
0.00242865
0.00022747
0.00251222
0.000217677
0.00259671
0.000208076
0.00268163
0.000198129
0.00276636
0.000187483
0.00285021
0.000175996
0.00293232
0.000163719
0.00301177
0.000150898
0.00308752
0.000137899
0.00315838
0.0001252
0.00322305
0.000113226
0.00328005
0.000102482
0.00332788
9.32299e-05
0.00336492
8.60525e-05
0.00338987
8.0901e-05
0.00340145
7.87898e-05
0.00339975
7.90678e-05
0.00338439
8.40757e-05
0.0033576
9.05048e-05
0.00331724
0.000104443
0.00326324
0.000113572
0.000147697
0.0249788
0.000184025
0.0249115
0.00056605
0.024803
0.000956663
0.0246412
0.00142385
0.0244407
0.00191569
0.0241715
0.00260442
0.0238764
0.00327538
0.0234982
0.00445488
0.0231061
0.00538575
0.0228389
0.00767134
0.0225257
0.00891207
0.0256752
0.012603
0.0258301
0.0150522
0.0223968
0.0145159
0.0184693
0.012023
0.014696
0.00934505
0.0113585