/*--------------------------------*- C++ -*----------------------------------*\
  =========                 |
  \\      /  F ield         | OpenFOAM: The Open Source CFD Toolbox
   \\    /   O peration     | Website:  https://openfoam.org
    \\  /    A nd           | Version:  11
     \\/     M anipulation  |
\*---------------------------------------------------------------------------*/
FoamFile
{
    format      ascii;
    class       volScalarField;
    location    "11";
    object      p;
}
// * * * * * * * * * * * * * * * * * * * * * * * * * * * * * * * * * * * * * //

dimensions      [0 2 -2 0 0 0 0];

internalField   nonuniform List<scalar> 
2048
(
0.270141
0.267778
0.263016
0.255639
0.245486
0.232391
0.216152
0.196539
0.173323
0.146327
0.115456
0.0807444
0.0423861
0.000766775
-0.0435326
-0.0897594
-0.137049
-0.184514
-0.231355
-0.276949
-0.320885
-0.362937
-0.403007
-0.441057
-0.47707
-0.511013
-0.542816
-0.572354
-0.599454
-0.623895
-0.645427
-0.66378
-0.678685
-0.689885
-0.697148
-0.700285
-0.699154
-0.693682
-0.683859
-0.669747
-0.651494
-0.629338
-0.603599
-0.574672
-0.543025
-0.509188
-0.473736
-0.437266
-0.400373
-0.363622
-0.327525
-0.29253
-0.258989
-0.227176
-0.197254
-0.169332
-0.143381
-0.119409
-0.0971955
-0.0767869
-0.057671
-0.0402483
-0.023317
-0.00851432
0.272575
0.270242
0.265535
0.258234
0.248166
0.235148
0.218954
0.199326
0.176011
0.148799
0.117574
0.0823524
0.0433305
0.000919161
-0.0442444
-0.0913265
-0.139371
-0.187416
-0.234626
-0.280394
-0.324357
-0.366344
-0.406303
-0.444235
-0.480153
-0.514046
-0.54585
-0.575443
-0.602641
-0.627215
-0.648903
-0.667426
-0.682503
-0.693866
-0.701279
-0.704545
-0.703517
-0.698116
-0.688321
-0.674187
-0.65586
-0.633577
-0.607654
-0.578484
-0.546535
-0.512345
-0.476497
-0.439603
-0.402273
-0.365088
-0.328579
-0.293206
-0.259335
-0.227247
-0.197109
-0.169032
-0.142982
-0.118965
-0.0967494
-0.0763799
-0.0573265
-0.0399965
-0.023152
-0.00847047
0.277423
0.275151
0.270561
0.263425
0.253544
0.240701
0.224621
0.204988
0.181487
0.15385
0.121906
0.0856416
0.0452513
0.00119603
-0.0457734
-0.0946487
-0.144266
-0.193488
-0.241413
-0.287485
-0.331453
-0.373262
-0.412956
-0.45062
-0.48633
-0.520114
-0.551925
-0.581633
-0.609038
-0.633891
-0.655907
-0.674784
-0.690217
-0.70192
-0.70964
-0.713171
-0.712357
-0.707105
-0.697373
-0.683205
-0.664741
-0.642211
-0.615921
-0.58626
-0.553698
-0.518787
-0.482131
-0.444368
-0.406141
-0.368067
-0.330711
-0.294564
-0.260016
-0.227366
-0.196787
-0.168392
-0.142143
-0.118035
-0.095821
-0.0755311
-0.0566154
-0.0394674
-0.0228254
-0.00836362
0.284612
0.282442
0.278049
0.271193
0.26164
0.249114
0.233267
0.213692
0.189967
0.161711
0.128664
0.0907563
0.0481855
0.00149833
-0.0483756
-0.100134
-0.152237
-0.203247
-0.252179
-0.298593
-0.34244
-0.383858
-0.423051
-0.460237
-0.495593
-0.529203
-0.561031
-0.590931
-0.618677
-0.643984
-0.666529
-0.685971
-0.701971
-0.714217
-0.722431
-0.726385
-0.725914
-0.720894
-0.711263
-0.697059
-0.678413
-0.655531
-0.6287
-0.598296
-0.564798
-0.528775
-0.490864
-0.451745
-0.412115
-0.372649
-0.333967
-0.29661
-0.261005
-0.227479
-0.196217
-0.167333
-0.140779
-0.116535
-0.094331
-0.0741711
-0.055479
-0.0386193
-0.0223061
-0.00818458
0.294031
0.292017
0.287928
0.281507
0.272474
0.260476
0.245065
0.225702
0.201804
0.172801
0.138255
0.097978
0.0521775
0.00156803
-0.0526239
-0.108601
-0.164195
-0.217542
-0.267629
-0.314261
-0.357696
-0.398346
-0.436659
-0.473067
-0.507888
-0.541258
-0.573133
-0.603334
-0.631594
-0.657577
-0.680898
-0.701156
-0.717965
-0.73098
-0.739909
-0.744502
-0.744567
-0.739892
-0.7304
-0.716159
-0.697298
-0.673977
-0.646438
-0.61504
-0.580267
-0.542711
-0.503051
-0.462029
-0.420419
-0.378982
-0.338422
-0.299351
-0.262256
-0.227499
-0.195284
-0.165724
-0.138758
-0.114337
-0.0921612
-0.0721974
-0.0538337
-0.0373909
-0.0215562
-0.00792174
0.305506
0.303722
0.300078
0.294304
0.286057
0.274891
0.260224
0.241352
0.217478
0.18774
0.151392
0.10792
0.0574725
0.00103844
-0.0595924
-0.121614
-0.181789
-0.237807
-0.288887
-0.335316
-0.377767
-0.417002
-0.453839
-0.489038
-0.523094
-0.556166
-0.588158
-0.61883
-0.647847
-0.674793
-0.699198
-0.720575
-0.738466
-0.752482
-0.762321
-0.767773
-0.76869
-0.764556
-0.755294
-0.741059
-0.721978
-0.698149
-0.669746
-0.637099
-0.600689
-0.561134
-0.519165
-0.475611
-0.431351
-0.387267
-0.344179
-0.302803
-0.263705
-0.227302
-0.19382
-0.163372
-0.135873
-0.11124
-0.0891271
-0.0694483
-0.0515478
-0.0356833
-0.0205154
-0.00755186
0.31879
0.31733
0.314313
0.309465
0.302366
0.292469
0.278999
0.261054
0.237544
0.207262
0.169039
0.12167
0.0649542
-7.05725e-05
-0.0705705
-0.141411
-0.207439
-0.266134
-0.317564
-0.36288
-0.403311
-0.440078
-0.47455
-0.507943
-0.540932
-0.573638
-0.605864
-0.637258
-0.667369
-0.695654
-0.721517
-0.744363
-0.763643
-0.778901
-0.789784
-0.796142
-0.798186
-0.794802
-0.78599
-0.771956
-0.752777
-0.728468
-0.699132
-0.665046
-0.626666
-0.584627
-0.539732
-0.492922
-0.445229
-0.3977
-0.351319
-0.306944
-0.265251
-0.226724
-0.191621
-0.160048
-0.131891
-0.107012
-0.0850108
-0.065729
-0.0484583
-0.0333702
-0.0191033
-0.00703844
0.333536
0.332512
0.330342
0.326775
0.321302
0.313303
0.301711
0.285397
0.26272
0.23214
0.191962
0.140148
0.0759185
-0.00117005
-0.0866058
-0.170224
-0.243687
-0.304858
-0.355492
-0.398077
-0.43466
-0.467277
-0.498152
-0.528971
-0.560447
-0.592591
-0.625092
-0.657447
-0.689003
-0.719003
-0.74668
-0.771314
-0.792284
-0.809083
-0.821303
-0.828688
-0.8314
-0.828726
-0.820669
-0.807226
-0.788299
-0.763807
-0.733767
-0.698355
-0.657948
-0.613164
-0.564866
-0.514137
-0.462207
-0.410357
-0.359807
-0.311623
-0.26664
-0.22544
-0.188323
-0.155379
-0.126448
-0.101319
-0.0795164
-0.0607865
-0.0443615
-0.0302983
-0.0172275
-0.0063459
0.349287
0.348823
0.347738
0.345859
0.342588
0.337353
0.328665
0.31529
0.294332
0.263915
0.220763
0.162818
0.0893257
-0.00480141
-0.111734
-0.212236
-0.294308
-0.357269
-0.405085
-0.441912
-0.471151
-0.49671
-0.522246
-0.549516
-0.578777
-0.609812
-0.642252
-0.675437
-0.708431
-0.740181
-0.76969
-0.796101
-0.818737
-0.837106
-0.850863
-0.859775
-0.862485
-0.860413
-0.853379
-0.840966
-0.822854
-0.798849
-0.768842
-0.732833
-0.691034
-0.643965
-0.592488
-0.537792
-0.481312
-0.42461
-0.369221
-0.316507
-0.267548
-0.223093
-0.183524
-0.148931
-0.119103
-0.0937302
-0.0722454
-0.0542678
-0.0389648
-0.0262388
-0.0147448
-0.00540331
0.365472
0.365681
0.365906
0.366121
0.365658
0.364199
0.359798
0.351604
0.334564
0.306739
0.258815
0.190183
0.0973952
-0.0270385
-0.162607
-0.278921
-0.365607
-0.426016
-0.466105
-0.491527
-0.507345
-0.521499
-0.539775
-0.562889
-0.589752
-0.619598
-0.651871
-0.685723
-0.719945
-0.753199
-0.784253
-0.812097
-0.835973
-0.855338
-0.869833
-0.879172
-0.883376
-0.882284
-0.876258
-0.864952
-0.847985
-0.82506
-0.795902
-0.760298
-0.718243
-0.670072
-0.616544
-0.55885
-0.498552
-0.437454
-0.377406
-0.320113
-0.26698
-0.219007
-0.176734
-0.140307
-0.109494
-0.0838972
-0.0628567
-0.0458406
-0.0319666
-0.0209226
-0.011477
-0.00407583
0.381417
0.382376
0.384092
0.386709
0.389584
0.392789
0.394177
0.393889
0.384936
0.366845
0.318124
0.237855
0.0956578
-0.0901584
-0.256232
-0.372959
-0.44888
-0.495561
-0.520532
-0.52967
-0.528696
-0.531221
-0.543598
-0.564744
-0.591759
-0.622671
-0.656254
-0.691371
-0.726746
-0.761042
-0.793015
-0.821624
-0.846081
-0.865838
-0.880584
-0.890212
-0.894705
-0.8943
-0.888771
-0.878013
-0.861776
-0.839689
-0.811331
-0.776333
-0.734516
-0.686034
-0.631486
-0.57198
-0.509098
-0.44478
-0.381087
-0.320007
-0.263258
-0.212125
-0.167354
-0.129207
-0.0974926
-0.0717609
-0.0513006
-0.0354229
-0.0232538
-0.0141898
-0.0072935
-0.00221455
0.396372
0.3981
0.401402
0.406545
0.413095
0.421403
0.429766
0.439168
0.443174
0.444163
0.413729
0.352238
0.142682
-0.154524
-0.347457
-0.446123
-0.499049
-0.528552
-0.542451
-0.543534
-0.535719
-0.537356
-0.548984
-0.568472
-0.594396
-0.62523
-0.659391
-0.695341
-0.731564
-0.766604
-0.799159
-0.828156
-0.852798
-0.872568
-0.887213
-0.896685
-0.901015
-0.900304
-0.89452
-0.883673
-0.867481
-0.845513
-0.817285
-0.782354
-0.740446
-0.691605
-0.636325
-0.575626
-0.511058
-0.444638
-0.3785
-0.314795
-0.255464
-0.20201
-0.155373
-0.115946
-0.0836179
-0.0579286
-0.0381739
-0.0235241
-0.0132052
-0.00626216
-0.00228396
0.000190543
0.409555
0.412016
0.416859
0.424439
0.434645
0.447967
0.463626
0.482754
0.501917
0.524555
0.534812
0.548137
0.414405
-0.0786564
-0.331103
-0.448565
-0.502308
-0.526008
-0.537644
-0.54419
-0.536371
-0.539091
-0.551686
-0.571358
-0.597072
-0.62761
-0.661571
-0.697409
-0.733564
-0.768546
-0.801029
-0.829924
-0.854426
-0.874024
-0.888474
-0.897718
-0.901768
-0.90078
-0.894602
-0.8834
-0.866828
-0.844442
-0.815751
-0.780304
-0.737814
-0.688306
-0.632243
-0.570632
-0.504933
-0.437333
-0.369863
-0.304742
-0.244021
-0.189323
-0.141705
-0.101658
-0.0691575
-0.0437552
-0.0247998
-0.0113541
-0.00282227
0.00209701
0.00311632
0.00290607
0.420216
0.423316
0.429488
0.439201
0.452583
0.470376
0.492423
0.520279
0.552463
0.592292
0.631329
0.674661
0.628838
0.180963
-0.102882
-0.278844
-0.390382
-0.45866
-0.500403
-0.53191
-0.534797
-0.537837
-0.550905
-0.5702
-0.595361
-0.625279
-0.658654
-0.693967
-0.729683
-0.764337
-0.796619
-0.825435
-0.849958
-0.869643
-0.884196
-0.893491
-0.897496
-0.896142
-0.890001
-0.878467
-0.861338
-0.838233
-0.808703
-0.772348
-0.72894
-0.678567
-0.621761
-0.559611
-0.492994
-0.425011
-0.357157
-0.291699
-0.230697
-0.175799
-0.128095
-0.0881221
-0.0559134
-0.0310394
-0.0129129
-0.000537748
0.00649198
0.00973106
0.0081952
0.0055378
0.427717
0.431294
0.438439
0.449742
0.46546
0.486631
0.513289
0.547667
0.588098
0.639273
0.690215
0.75091
0.725625
0.272801
-0.0271691
-0.221175
-0.349487
-0.431251
-0.483215
-0.520989
-0.53011
-0.532242
-0.54529
-0.56432
-0.589116
-0.618626
-0.651617
-0.686609
-0.72209
-0.756607
-0.788861
-0.817765
-0.842487
-0.862453
-0.877313
-0.886879
-0.89103
-0.889709
-0.88311
-0.871088
-0.853295
-0.829357
-0.798875
-0.761522
-0.717163
-0.665977
-0.60856
-0.545962
-0.47958
-0.411575
-0.34399
-0.278974
-0.218469
-0.164095
-0.11691
-0.0774779
-0.0458499
-0.0216144
-0.00422408
0.00732281
0.0133085
0.0153916
0.0120966
0.00761526
0.431593
0.435419
0.443085
0.455227
0.472205
0.495137
0.524284
0.561859
0.606565
0.662374
0.719171
0.784631
0.769174
0.330539
0.0279653
-0.177761
-0.319124
-0.411652
-0.471202
-0.512447
-0.525208
-0.527338
-0.539966
-0.558884
-0.583598
-0.612939
-0.645708
-0.680485
-0.715812
-0.750259
-0.782535
-0.811552
-0.836464
-0.856676
-0.871804
-0.881597
-0.885861
-0.88449
-0.877451
-0.865011
-0.846752
-0.822252
-0.791125
-0.753104
-0.708127
-0.656443
-0.598704
-0.535999
-0.469848
-0.402199
-0.335129
-0.270733
-0.210896
-0.157157
-0.11056
-0.0716635
-0.0405065
-0.0167252
0.000216659
0.0112998
0.0167731
0.0182823
0.0141624
0.00873708
0.431593
0.435419
0.443085
0.455227
0.472205
0.495137
0.524284
0.56186
0.606565
0.662374
0.719172
0.784632
0.769174
0.33054
0.0279666
-0.17776
-0.319122
-0.41165
-0.471199
-0.512443
-0.525203
-0.527333
-0.539959
-0.558873
-0.583582
-0.612918
-0.645682
-0.680454
-0.715777
-0.750222
-0.782499
-0.811519
-0.836436
-0.856654
-0.871789
-0.881591
-0.885864
-0.884502
-0.877463
-0.865034
-0.846786
-0.822295
-0.791174
-0.753158
-0.708185
-0.656504
-0.598761
-0.53605
-0.469893
-0.402235
-0.335155
-0.27075
-0.210905
-0.157158
-0.110556
-0.0716556
-0.0404963
-0.0167139
0.000227999
0.0113105
0.0167825
0.0182899
0.014168
0.00873958
0.427718
0.431294
0.438439
0.449743
0.465461
0.486631
0.51329
0.547668
0.588099
0.639274
0.690217
0.750913
0.725628
0.272805
-0.0271651
-0.221171
-0.349482
-0.431246
-0.483208
-0.520976
-0.530098
-0.532229
-0.545269
-0.564289
-0.589072
-0.618567
-0.651544
-0.686522
-0.721994
-0.756507
-0.788762
-0.817674
-0.842408
-0.862391
-0.877273
-0.886864
-0.891038
-0.889745
-0.883186
-0.87118
-0.853404
-0.829482
-0.799014
-0.761672
-0.717318
-0.666133
-0.608708
-0.546094
-0.479698
-0.411669
-0.344059
-0.279017
-0.218489
-0.164096
-0.116897
-0.0774551
-0.0458213
-0.0215833
-0.00419321
0.00735148
0.0133336
0.0154118
0.0121109
0.00762142
0.420217
0.423318
0.429489
0.439202
0.452585
0.470377
0.492425
0.520281
0.552465
0.592294
0.631332
0.674665
0.628843
0.180969
-0.102876
-0.278837
-0.390375
-0.458651
-0.500392
-0.531893
-0.534783
-0.537818
-0.550876
-0.570155
-0.595298
-0.625194
-0.658548
-0.693843
-0.729548
-0.764197
-0.796482
-0.825309
-0.849851
-0.869562
-0.884145
-0.893475
-0.897513
-0.896179
-0.890091
-0.87859
-0.86149
-0.83841
-0.8089
-0.772559
-0.729156
-0.678782
-0.621962
-0.559782
-0.493164
-0.42514
-0.357247
-0.291753
-0.230719
-0.175796
-0.128072
-0.0880868
-0.0558709
-0.0309945
-0.012869
-0.000497603
0.00652652
0.00975842
0.00821379
0.00554537
0.409557
0.412018
0.416861
0.424441
0.434646
0.447969
0.463629
0.482756
0.50192
0.524558
0.534816
0.548143
0.414413
-0.0786466
-0.331094
-0.448556
-0.502298
-0.525996
-0.53763
-0.544173
-0.536358
-0.539071
-0.551653
-0.571306
-0.596997
-0.62751
-0.661447
-0.697267
-0.733409
-0.768386
-0.800875
-0.829784
-0.854309
-0.873937
-0.888424
-0.89771
-0.901809
-0.900882
-0.894722
-0.88355
-0.867009
-0.84465
-0.815982
-0.78055
-0.738065
-0.688553
-0.632473
-0.570836
-0.505111
-0.437471
-0.369957
-0.304796
-0.24404
-0.189313
-0.141675
-0.101615
-0.0691079
-0.0437039
-0.0247507
-0.0113099
-0.002785
0.00212605
0.00313522
0.00291369
0.396374
0.398102
0.401404
0.406548
0.413097
0.421406
0.429768
0.439171
0.443177
0.444167
0.413734
0.352245
0.142691
-0.154513
-0.347446
-0.446113
-0.499037
-0.528539
-0.542437
-0.54352
-0.535707
-0.537338
-0.54895
-0.568416
-0.594315
-0.625123
-0.659261
-0.695192
-0.731403
-0.76644
-0.799002
-0.828015
-0.852682
-0.872487
-0.887172
-0.896689
-0.901064
-0.900398
-0.894649
-0.883836
-0.867676
-0.845736
-0.817531
-0.782614
-0.74071
-0.691862
-0.636563
-0.575836
-0.511233
-0.444771
-0.378589
-0.314844
-0.255477
-0.201997
-0.155341
-0.115902
-0.0835683
-0.0578784
-0.0381267
-0.0234822
-0.0131705
-0.00623554
-0.00226723
0.000197401
0.38142
0.382378
0.384094
0.386711
0.389587
0.392792
0.39418
0.393892
0.38494
0.366849
0.318129
0.237862
0.0956671
-0.0901469
-0.25622
-0.372946
-0.448866
-0.495547
-0.520518
-0.529657
-0.528683
-0.5312
-0.54356
-0.564684
-0.591673
-0.62256
-0.656121
-0.69122
-0.726586
-0.760879
-0.79286
-0.821488
-0.845971
-0.865764
-0.880553
-0.890228
-0.894756
-0.894392
-0.888902
-0.878179
-0.861976
-0.839917
-0.811579
-0.776593
-0.734777
-0.686284
-0.631716
-0.572179
-0.509259
-0.4449
-0.381166
-0.320048
-0.263268
-0.212111
-0.167324
-0.129168
-0.0974487
-0.0717171
-0.0512599
-0.0353872
-0.0232247
-0.0141678
-0.00728013
-0.00220894
0.365475
0.365684
0.365909
0.366125
0.365662
0.364203
0.359802
0.351608
0.334568
0.306744
0.258821
0.19019
0.0974039
-0.0270278
-0.162595
-0.278907
-0.365592
-0.425999
-0.466087
-0.491507
-0.507322
-0.521468
-0.539729
-0.562824
-0.589664
-0.619486
-0.651739
-0.685575
-0.719789
-0.753043
-0.784106
-0.811968
-0.83587
-0.855272
-0.869812
-0.879217
-0.883437
-0.88238
-0.87639
-0.865118
-0.848182
-0.825283
-0.796141
-0.760544
-0.718487
-0.670303
-0.616752
-0.559027
-0.498693
-0.437558
-0.377473
-0.320149
-0.266989
-0.218997
-0.17671
-0.140275
-0.109459
-0.083862
-0.0628242
-0.0458124
-0.0319439
-0.0209057
-0.0114669
-0.00407151
0.349291
0.348827
0.347741
0.345863
0.342592
0.337357
0.32867
0.315294
0.294337
0.263921
0.220769
0.162825
0.0893343
-0.00479119
-0.111722
-0.212222
-0.294291
-0.35725
-0.405064
-0.441887
-0.47112
-0.496671
-0.522195
-0.549448
-0.57869
-0.609707
-0.64213
-0.675304
-0.708291
-0.740043
-0.769562
-0.79599
-0.818649
-0.837048
-0.850838
-0.85978
-0.862541
-0.860508
-0.853508
-0.841127
-0.823041
-0.799056
-0.769061
-0.733055
-0.69125
-0.644165
-0.592666
-0.537941
-0.48143
-0.424697
-0.369277
-0.316537
-0.267557
-0.223087
-0.183506
-0.148907
-0.119076
-0.0937033
-0.0722205
-0.0542463
-0.0389475
-0.0262261
-0.0147374
-0.00540005
0.33354
0.332516
0.330346
0.326779
0.321306
0.313308
0.301716
0.285402
0.262725
0.232146
0.191968
0.140156
0.0759275
-0.00115958
-0.0865934
-0.170209
-0.24367
-0.304838
-0.355469
-0.398049
-0.434626
-0.467235
-0.498099
-0.528906
-0.560367
-0.592498
-0.624987
-0.657334
-0.688886
-0.71889
-0.746575
-0.771225
-0.792215
-0.809038
-0.821281
-0.828689
-0.831453
-0.828816
-0.820788
-0.80737
-0.788465
-0.763987
-0.733955
-0.698542
-0.658128
-0.613329
-0.565012
-0.514259
-0.462303
-0.410427
-0.359853
-0.311649
-0.266649
-0.225437
-0.188311
-0.155362
-0.126428
-0.101299
-0.0794976
-0.0607702
-0.0443486
-0.0302888
-0.017222
-0.00634343
0.318794
0.317334
0.314317
0.309469
0.302371
0.292474
0.279004
0.26106
0.237549
0.207268
0.169046
0.121678
0.0649636
-5.96743e-05
-0.0705577
-0.141396
-0.207422
-0.266113
-0.31754
-0.362851
-0.403276
-0.440036
-0.474499
-0.507882
-0.540861
-0.573557
-0.605774
-0.637163
-0.667273
-0.695561
-0.721432
-0.744291
-0.763588
-0.778865
-0.789768
-0.796147
-0.798231
-0.79488
-0.786092
-0.772079
-0.752916
-0.728618
-0.699287
-0.665199
-0.626812
-0.584761
-0.539849
-0.49302
-0.445307
-0.397758
-0.351358
-0.306967
-0.26526
-0.226723
-0.191613
-0.160036
-0.131876
-0.106996
-0.0849964
-0.0657166
-0.0484486
-0.0333631
-0.0190993
-0.00703656
0.305511
0.303726
0.300083
0.294309
0.286061
0.274896
0.260229
0.241358
0.217484
0.187747
0.1514
0.107929
0.0574822
0.00104972
-0.0595793
-0.121599
-0.181771
-0.237786
-0.288862
-0.335286
-0.377732
-0.416961
-0.453791
-0.488982
-0.52303
-0.556095
-0.588081
-0.618749
-0.647766
-0.674716
-0.699128
-0.720516
-0.738421
-0.752454
-0.762312
-0.767785
-0.76873
-0.764621
-0.755381
-0.741162
-0.722094
-0.698272
-0.669873
-0.637225
-0.600809
-0.561243
-0.519261
-0.475691
-0.431415
-0.387315
-0.344211
-0.302822
-0.263714
-0.227302
-0.193815
-0.163363
-0.135862
-0.111228
-0.0891161
-0.0694387
-0.0515403
-0.0356779
-0.0205124
-0.00755039
0.294035
0.292021
0.287932
0.281512
0.272478
0.260481
0.24507
0.225707
0.201811
0.172808
0.138263
0.0979868
0.0521875
0.00157962
-0.0526105
-0.108585
-0.164176
-0.21752
-0.267603
-0.314231
-0.357661
-0.398306
-0.436613
-0.473015
-0.507829
-0.541194
-0.573064
-0.603264
-0.631524
-0.657511
-0.680838
-0.701106
-0.717928
-0.730958
-0.739904
-0.744517
-0.744603
-0.739948
-0.730473
-0.716246
-0.697395
-0.674081
-0.646544
-0.615144
-0.580366
-0.542801
-0.50313
-0.462095
-0.420472
-0.379022
-0.338449
-0.299368
-0.262264
-0.2275
-0.19528
-0.165717
-0.138749
-0.114327
-0.0921524
-0.0721898
-0.0538278
-0.0373867
-0.0215539
-0.00792057
0.284617
0.282446
0.278054
0.271197
0.261645
0.249119
0.233273
0.213698
0.189973
0.161718
0.128672
0.0907653
0.0481958
0.00151016
-0.0483619
-0.100118
-0.152218
-0.203225
-0.252153
-0.298563
-0.342406
-0.383819
-0.423007
-0.460187
-0.495539
-0.529145
-0.560969
-0.590868
-0.618615
-0.643926
-0.666477
-0.685928
-0.701941
-0.7142
-0.72243
-0.7264
-0.725946
-0.720943
-0.711327
-0.697135
-0.678497
-0.655621
-0.628791
-0.598385
-0.564883
-0.528852
-0.490931
-0.451802
-0.41216
-0.372683
-0.333991
-0.296624
-0.261012
-0.22748
-0.196214
-0.167327
-0.140772
-0.116527
-0.0943238
-0.0741649
-0.0554742
-0.0386159
-0.0223041
-0.00818357
0.277427
0.275155
0.270566
0.263429
0.253549
0.240706
0.224626
0.204994
0.181494
0.153857
0.121914
0.0856507
0.0452617
0.00120803
-0.0457596
-0.0946326
-0.144247
-0.193466
-0.241388
-0.287456
-0.331419
-0.373223
-0.412914
-0.450573
-0.486278
-0.520059
-0.551868
-0.581575
-0.608982
-0.633839
-0.655861
-0.674746
-0.69019
-0.701906
-0.70964
-0.713186
-0.712387
-0.707149
-0.69743
-0.683272
-0.664816
-0.64229
-0.616002
-0.586338
-0.553773
-0.518854
-0.482189
-0.444417
-0.40618
-0.368097
-0.330732
-0.294577
-0.260022
-0.227367
-0.196785
-0.168387
-0.142137
-0.118028
-0.0958148
-0.0755257
-0.0566113
-0.0394644
-0.0228237
-0.00836271
0.27258
0.270247
0.26554
0.258239
0.248171
0.235153
0.21896
0.199333
0.176017
0.148806
0.117582
0.0823616
0.043341
0.000931238
-0.0442304
-0.0913103
-0.139352
-0.187394
-0.234601
-0.280365
-0.324324
-0.366307
-0.406261
-0.444189
-0.480103
-0.513993
-0.545796
-0.575389
-0.602588
-0.627166
-0.648861
-0.667392
-0.682479
-0.693854
-0.70128
-0.704559
-0.703545
-0.698157
-0.688374
-0.674249
-0.655929
-0.63365
-0.607728
-0.578556
-0.546603
-0.512406
-0.476551
-0.439648
-0.402309
-0.365115
-0.328598
-0.293218
-0.25934
-0.227248
-0.197107
-0.169027
-0.142976
-0.118959
-0.0967437
-0.0763751
-0.0573228
-0.0399938
-0.0231504
-0.00846965
0.270145
0.267782
0.263021
0.255644
0.245491
0.232396
0.216158
0.196545
0.17333
0.146334
0.115465
0.0807536
0.0423967
0.000778867
-0.0435187
-0.0897432
-0.13703
-0.184492
-0.23133
-0.27692
-0.320852
-0.3629
-0.402965
-0.441011
-0.477021
-0.510962
-0.542763
-0.572302
-0.599403
-0.623848
-0.645386
-0.663747
-0.678662
-0.689873
-0.697149
-0.700299
-0.699181
-0.693722
-0.68391
-0.669806
-0.65156
-0.629408
-0.603669
-0.574741
-0.54309
-0.509247
-0.473787
-0.437309
-0.400407
-0.363647
-0.327543
-0.292541
-0.258994
-0.227177
-0.197252
-0.169327
-0.143375
-0.119403
-0.0971902
-0.0767824
-0.0576675
-0.0402458
-0.0233157
-0.00851364
)
;

boundaryField
{
    inlet
    {
        type            zeroGradient;
    }
    outlet
    {
        type            fixedValue;
        value           uniform 0;
    }
    top
    {
        type            symmetryPlane;
    }
    bottom
    {
        type            symmetryPlane;
    }
    frontAndBack
    {
        type            empty;
    }
}


// ************************************************************************* //
