/*--------------------------------*- C++ -*----------------------------------*\
  =========                 |
  \\      /  F ield         | OpenFOAM: The Open Source CFD Toolbox
   \\    /   O peration     | Website:  https://openfoam.org
    \\  /    A nd           | Version:  10
     \\/     M anipulation  |
\*---------------------------------------------------------------------------*/
FoamFile
{
    format      ascii;
    class       volVectorField;
    location    "0.38";
    object      Ub;
}
// * * * * * * * * * * * * * * * * * * * * * * * * * * * * * * * * * * * * * //

dimensions      [0 1 -1 0 0 0 0];

internalField   nonuniform List<vector> 
12225
(
(0.00182161 -0.000379413 0)
(0.00517988 -0.000335024 0)
(0.00789912 -0.000271242 0)
(0.00993545 -0.000207316 0)
(0.01138 -0.000153172 0)
(0.01237 -0.000111652 0)
(0.0130379 -8.20229e-05 0)
(0.0134929 -6.23527e-05 0)
(0.0138186 -5.06852e-05 0)
(0.014077 -4.54935e-05 0)
(0.0143144 -4.58435e-05 0)
(0.0145658 -5.16076e-05 0)
(0.0148573 -6.41689e-05 0)
(0.0152055 -9.02057e-05 0)
(0.0155682 -0.000167024 0)
(0.0111144 -0.000413731 0)
(0.00324388 -1.32888e-09 0)
(1.19387e-07 -2.83495e-27 0)
(0.00207052 -0.0012136 0)
(0.0058856 -0.00107014 0)
(0.00897412 -0.000865083 0)
(0.0112925 -0.000660189 0)
(0.0129465 -0.000486911 0)
(0.0140898 -0.000353944 0)
(0.0148675 -0.000258635 0)
(0.0153961 -0.00019458 0)
(0.015762 -0.000155315 0)
(0.0160262 -0.000135714 0)
(0.0162305 -0.000132438 0)
(0.0164018 -0.000144433 0)
(0.0165543 -0.000174754 0)
(0.0166838 -0.000239498 0)
(0.0166623 -0.000413597 0)
(0.0131444 -0.000812862 0)
(0.00485288 -1.10122e-08 0)
(4.76045e-07 -7.74579e-26 0)
(0.0021985 -0.00218489 0)
(0.00623656 -0.00192146 0)
(0.00948007 -0.00154803 0)
(0.0118913 -0.00117708 0)
(0.0135928 -0.000864608 0)
(0.0147537 -0.00062516 0)
(0.0155296 -0.00045308 0)
(0.016043 -0.000336258 0)
(0.0163834 -0.000262661 0)
(0.016613 -0.00022269 0)
(0.0167739 -0.000209803 0)
(0.0168922 -0.000221003 0)
(0.0169785 -0.000258964 0)
(0.0170128 -0.000340959 0)
(0.0168172 -0.000526411 0)
(0.0138049 -0.000747939 0)
(0.00549434 -5.04801e-08 0)
(8.37747e-07 -1.3166e-24 0)
(0.00232001 -0.00328489 0)
(0.00656246 -0.00287748 0)
(0.00993249 -0.00230614 0)
(0.0124031 -0.00174348 0)
(0.0141197 -0.00127269 0)
(0.0152706 -0.000913489 0)
(0.0160235 -0.000655625 0)
(0.0165073 -0.000479858 0)
(0.0168142 -0.000367543 0)
(0.0170077 -0.000303899 0)
(0.0171294 -0.000278624 0)
(0.0172043 -0.00028603 0)
(0.0172389 -0.000326481 0)
(0.0172025 -0.000411312 0)
(0.0169124 -0.000566645 0)
(0.0143607 -0.000647772 0)
(0.00602928 -1.79583e-07 0)
(1.38608e-06 -1.7821e-23 0)
(0.00245526 -0.00452971 0)
(0.0069187 -0.0039471 0)
(0.0104118 -0.00314109 0)
(0.0129252 -0.00235656 0)
(0.014636 -0.00170641 0)
(0.0157571 -0.00121383 0)
(0.0164707 -0.000861654 0)
(0.0169128 -0.000621592 0)
(0.0171782 -0.000467117 0)
(0.0173308 -0.000377437 0)
(0.0174118 -0.000337864 0)
(0.0174445 -0.000339263 0)
(0.0174327 -0.000378048 0)
(0.0173422 -0.000456008 0)
(0.0170094 -0.000569027 0)
(0.0148678 -0.00056138 0)
(0.00649546 -5.5535e-07 0)
(2.24662e-06 -2.09615e-22 0)
(0.00261703 -0.00594576 0)
(0.0073377 -0.0051455 0)
(0.0109599 -0.00405716 0)
(0.0135025 -0.003014 0)
(0.0151866 -0.00216051 0)
(0.0162575 -0.00152026 0)
(0.0169147 -0.00106557 0)
(0.0173017 -0.000756594 0)
(0.0175159 -0.000557322 0)
(0.0176211 -0.000439992 0)
(0.0176575 -0.000384896 0)
(0.0176468 -0.000378841 0)
(0.0175917 -0.000413418 0)
(0.0174603 -0.000480829 0)
(0.0171167 -0.000557304 0)
(0.0153291 -0.000505179 0)
(0.00690043 -1.56004e-06 0)
(3.64577e-06 -2.26215e-21 0)
(0.00281888 -0.007571 0)
(0.00785188 -0.00649332 0)
(0.0116141 -0.0050592 0)
(0.0141698 -0.00371168 0)
(0.0158023 -0.0026274 0)
(0.0167986 -0.00182457 0)
(0.0173793 -0.00125984 0)
(0.017696 -0.000878357 0)
(0.0178477 -0.00063268 0)
(0.0178974 -0.000487 0)
(0.0178837 -0.000415989 0)
(0.0178272 -0.000402067 0)
(0.0177303 -0.000432044 0)
(0.0175673 -0.000490874 0)
(0.0172291 -0.000545815 0)
(0.0157377 -0.000484106 0)
(0.0072465 -4.0657e-06 0)
(6.07171e-06 -2.38385e-20 0)
(0.00307874 -0.00945934 0)
(0.00850189 -0.0080173 0)
(0.0124172 -0.00615105 0)
(0.0149629 -0.00444182 0)
(0.0165108 -0.00309544 0)
(0.0174021 -0.00211512 0)
(0.0178819 -0.00143417 0)
(0.0181098 -0.000978221 0)
(0.0181856 -0.000686004 0)
(0.0181703 -0.000512509 0)
(0.0181 -0.000426296 0)
(0.0179938 -0.000405378 0)
(0.0178551 -0.000432611 0)
(0.0176645 -0.000489006 0)
(0.0173356 -0.000540858 0)
(0.0160834 -0.000497273 0)
(0.00753443 -9.93846e-06 0)
(1.06842e-05 -2.65989e-19 0)
(0.00342269 -0.0116886 0)
(0.0093442 -0.00975129 0)
(0.013424 -0.00733315 0)
(0.0159233 -0.00518999 0)
(0.0173407 -0.00354677 0)
(0.0180873 -0.00237532 0)
(0.0184362 -0.00157458 0)
(0.0185536 -0.00104477 0)
(0.0185379 -0.000708013 0)
(0.0184464 -0.000508933 0)
(0.0183118 -0.000409632 0)
(0.0181508 -0.000384001 0)
(0.0179673 -0.000412223 0)
(0.0177475 -0.000474565 0)
(0.017422 -0.000541548 0)
(0.0163544 -0.000539238 0)
(0.00776536 -2.27959e-05 0)
(2.03032e-05 -3.35973e-18 0)
(0.00389113 -0.0143741 0)
(0.0104623 -0.0117368 0)
(0.0147084 -0.00859774 0)
(0.0171013 -0.00593063 0)
(0.018323 -0.00395409 0)
(0.0188732 -0.00258169 0)
(0.0190539 -0.00166225 0)
(0.0190349 -0.00106316 0)
(0.0189098 -0.000686924 0)
(0.0187295 -0.000466757 0)
(0.0185216 -0.000358187 0)
(0.0182991 -0.000331493 0)
(0.0180651 -0.000365539 0)
(0.0178087 -0.000442337 0)
(0.017472 -0.000539728 0)
(0.0165342 -0.000598114 0)
(0.00793977 -4.83177e-05 0)
(4.13482e-05 -4.72719e-17 0)
(0.00455023 -0.0176933 0)
(0.0119852 -0.0140212 0)
(0.0163739 -0.00991964 0)
(0.0185595 -0.00661938 0)
(0.0194911 -0.00427614 0)
(0.0197765 -0.00270138 0)
(0.0197434 -0.0016722 0)
(0.0195582 -0.00101444 0)
(0.0193037 -0.00060808 0)
(0.0190209 -0.000374297 0)
(0.0187295 -0.000262284 0)
(0.0184376 -0.000239371 0)
(0.0181449 -0.000284182 0)
(0.01784 -0.000381901 0)
(0.0174701 -0.000518934 0)
(0.0166007 -0.000649951 0)
(0.00805782 -9.04472e-05 0)
(8.61306e-05 -5.74074e-16 0)
(0.00544744 -0.0215246 0)
(0.0139767 -0.0164196 0)
(0.0184238 -0.0111393 0)
(0.0202615 -0.00714993 0)
(0.0207986 -0.00445075 0)
(0.0207553 -0.00270122 0)
(0.0204718 -0.00158867 0)
(0.0200994 -0.000892922 0)
(0.0197033 -0.00047145 0)
(0.0193107 -0.000234568 0)
(0.018931 -0.000126265 0)
(0.0185654 -0.00011185 0)
(0.0182087 -0.000170263 0)
(0.0178457 -0.000289766 0)
(0.0174226 -0.000463892 0)
(0.0165635 -0.000659779 0)
(0.00813708 -0.000138516 0)
(0.000166281 -4.69909e-15 0)
(0.00669825 -0.0264843 0)
(0.0166212 -0.019093 0)
(0.0209469 -0.0122305 0)
(0.0222216 -0.00745806 0)
(0.0222244 -0.00441935 0)
(0.0217759 -0.00253495 0)
(0.0212024 -0.00137557 0)
(0.0206228 -0.000669667 0)
(0.020075 -0.000252997 0)
(0.0195671 -2.69857e-05 0)
(0.0190959 6.82097e-05 0)
(0.0186535 6.83429e-05 0)
(0.0182279 -6.14359e-06 0)
(0.0177976 -0.000145466 0)
(0.0173022 -0.000347035 0)
(0.0163947 -0.000586937 0)
(0.00815964 -0.000171794 0)
(0.000278282 -3.03249e-14 0)
(0.00895099 -0.034296 0)
(0.0210824 -0.0223918 0)
(0.0247803 -0.013092 0)
(0.0249612 -0.00737318 0)
(0.0240985 -0.00403308 0)
(0.0230591 -0.00208476 0)
(0.0220916 -0.000939453 0)
(0.0212435 -0.000268256 0)
(0.0205068 0.000110689 0)
(0.0198593 0.000304092 0)
(0.0192775 0.000371587 0)
(0.0187417 0.00034795 0)
(0.0182319 0.000252872 0)
(0.0177181 9.61772e-05 0)
(0.0171302 -0.000118336 0)
(0.0161391 -0.000371819 0)
(0.00816636 -0.000150762 0)
(0.00042978 -1.03083e-13 0)
(0.0135505 -0.048052 0)
(0.0293564 -0.0257532 0)
(0.0307996 -0.012852 0)
(0.0287653 -0.00630055 0)
(0.0264895 -0.00292863 0)
(0.0246052 -0.00112469 0)
(0.0231236 -0.000134436 0)
(0.0219499 0.000411561 0)
(0.0209898 0.000697258 0)
(0.0201757 0.000821661 0)
(0.0194635 0.000837396 0)
(0.01882 0.000774726 0)
(0.0182155 0.000651631 0)
(0.0176126 0.000479626 0)
(0.0169354 0.00026871 0)
(0.015868 3.65277e-05 0)
(0.00812978 -4.19009e-05 0)
(0.000544269 -1.15444e-13 0)
(0.0247381 -0.0767984 0)
(0.0468156 -0.0251136 0)
(0.0402796 -0.00894752 0)
(0.0337115 -0.00300322 0)
(0.029258 -0.000506663 0)
(0.0262951 0.000665761 0)
(0.0242196 0.00123867 0)
(0.0226754 0.00150888 0)
(0.0214644 0.0016107 0)
(0.0204702 0.00160798 0)
(0.0196194 0.00153423 0)
(0.0188631 0.00140797 0)
(0.0181641 0.00124044 0)
(0.0174845 0.00104066 0)
(0.0167561 0.000820485 0)
(0.015671 0.000591647 0)
(0.00793723 0.000109145 0)
(0.00045012 -3.8782e-14 0)
(0.0594449 0.003244 0)
(0.0909839 0.00544555 0)
(0.0531416 0.00489801 0)
(0.0386962 0.00435351 0)
(0.0317104 0.00393623 0)
(0.0276844 0.00362841 0)
(0.0250696 0.00337912 0)
(0.0232131 0.00315851 0)
(0.0217977 0.0029507 0)
(0.0206536 0.00274532 0)
(0.0196825 0.00253499 0)
(0.0188232 0.00231402 0)
(0.0180337 0.00207675 0)
(0.0172798 0.00181433 0)
(0.0165118 0.00150685 0)
(0.0154028 0.00109029 0)
(0.0074698 0.000124048 0)
(0.00012487 -2.65121e-16 0)
(0.0204258 0.0787797 0)
(0.0403519 0.0343932 0)
(0.0371578 0.0188421 0)
(0.0322717 0.0122057 0)
(0.0285158 0.00889347 0)
(0.0258258 0.00703394 0)
(0.0238546 0.00588999 0)
(0.0223399 0.00512835 0)
(0.0211143 0.00458127 0)
(0.0200737 0.00415707 0)
(0.0191521 0.00380314 0)
(0.0183028 0.00348961 0)
(0.0174815 0.00320166 0)
(0.0166214 0.0029346 0)
(0.0155641 0.00267778 0)
(0.0133531 0.00220568 0)
(0.00587928 3.25772e-05 0)
(4.89318e-06 -1.75854e-21 0)
(0.00784368 0.0430239 0)
(0.0187512 0.0303064 0)
(0.0225909 0.0210144 0)
(0.0232888 0.0151847 0)
(0.0228616 0.0115742 0)
(0.0220981 0.0092924 0)
(0.0212701 0.0078077 0)
(0.0204559 0.00680776 0)
(0.0196694 0.00610375 0)
(0.018907 0.00557662 0)
(0.0181658 0.00514806 0)
(0.0174493 0.00476354 0)
(0.0167689 0.00438024 0)
(0.0161313 0.00395512 0)
(0.0153437 0.00340487 0)
(0.00784049 0.00170314 0)
(0.000408181 1.99574e-13 0)
(4.50834e-12 -1.50905e-32 0)
(0.00435256 0.0269463 0)
(0.0114226 0.0225881 0)
(0.0155925 0.0180296 0)
(0.0177469 0.0143708 0)
(0.0187383 0.0116995 0)
(0.019089 0.00982738 0)
(0.0190754 0.00854035 0)
(0.0188346 0.00766048 0)
(0.018434 0.00705035 0)
(0.0179073 0.00660571 0)
(0.0172697 0.00624813 0)
(0.0165163 0.00591652 0)
(0.0156059 0.00554748 0)
(0.0143808 0.0050058 0)
(0.00980909 0.00318902 0)
(0.00298005 0.000142221 0)
(1.49055e-07 1.99748e-13 0)
(1.00002e-28 -4.19605e-32 0)
(0.00306777 0.0194212 0)
(0.00841858 0.0173129 0)
(0.0122258 0.0147509 0)
(0.0147131 0.0124393 0)
(0.016259 0.0106121 0)
(0.0171672 0.00927748 0)
(0.017633 0.00836141 0)
(0.0177706 0.00776774 0)
(0.0176453 0.00739934 0)
(0.0172999 0.0071666 0)
(0.0167644 0.00699727 0)
(0.0160402 0.00684967 0)
(0.015012 0.00669899 0)
(0.0125464 0.00598991 0)
(0.00535081 0.00152231 0)
(2.37309e-06 1.08843e-09 0)
(1.11144e-22 -4.23084e-32 0)
(1.15021e-31 -3.96075e-32 0)
(0.00244284 0.0145577 0)
(0.00686769 0.0133883 0)
(0.0103331 0.0118577 0)
(0.012881 0.0103902 0)
(0.0146884 0.00919145 0)
(0.0159288 0.00832553 0)
(0.0167253 0.00778246 0)
(0.0171497 0.00751394 0)
(0.0172407 0.0074451 0)
(0.0170312 0.00747818 0)
(0.0165766 0.00750254 0)
(0.0159501 0.00741792 0)
(0.0148474 0.00707343 0)
(0.00707452 0.00314429 0)
(2.86867e-05 6.41767e-08 0)
(7.75778e-18 -2.48431e-32 0)
(1.24326e-31 -4.0264e-32 0)
(1.21376e-31 -3.63134e-32 0)
(0.00209534 0.0110683 0)
(0.00597531 0.0103666 0)
(0.0091899 0.00941393 0)
(0.0117289 0.00847725 0)
(0.013682 0.00771795 0)
(0.0151514 0.00721399 0)
(0.0162094 0.00699115 0)
(0.0168831 0.00703791 0)
(0.0171605 0.00729983 0)
(0.0170171 0.00765882 0)
(0.016462 0.00790444 0)
(0.0155686 0.00760098 0)
(0.00845324 0.00420379 0)
(0.000927914 9.72999e-06 0)
(8.44e-11 4.57975e-18 0)
(1.35113e-31 -3.89948e-32 0)
(1.30289e-31 -3.49898e-32 0)
(1.26395e-31 -3.16014e-32 0)
(0.00188104 0.00840391 0)
(0.00541303 0.00796421 0)
(0.00844702 0.00735761 0)
(0.0109614 0.00676079 0)
(0.0130085 0.00629948 0)
(0.0146565 0.00605463 0)
(0.0159492 0.00607902 0)
(0.0168783 0.00640248 0)
(0.0173686 0.00701089 0)
(0.0172797 0.00779235 0)
(0.0163472 0.00848077 0)
(0.0125351 0.00815044 0)
(0.00472335 0.000742855 0)
(6.92798e-07 8.76758e-13 0)
(1.31341e-25 -3.66714e-32 0)
(1.38964e-31 -3.29722e-32 0)
(1.34385e-31 -2.95447e-32 0)
(1.30117e-31 -2.66088e-32 0)
(0.0017362 0.00629157 0)
(0.00502679 0.00601088 0)
(0.00792379 0.00562176 0)
(0.0104076 0.00524531 0)
(0.0125176 0.00497982 0)
(0.0143108 0.00490459 0)
(0.0158245 0.0050945 0)
(0.0170366 0.00562767 0)
(0.0178219 0.00655777 0)
(0.0179591 0.0077869 0)
(0.0174227 0.00854981 0)
(0.00855413 0.00436813 0)
(4.83042e-05 4.7261e-09 0)
(1.30077e-17 -3.24713e-32 0)
(1.48505e-31 -3.20379e-32 0)
(1.43013e-31 -2.76767e-32 0)
(1.37779e-31 -2.43606e-32 0)
(1.33009e-31 -2.17347e-32 0)
(0.00162892 0.00457887 0)
(0.00473628 0.00440028 0)
(0.00751965 0.00415295 0)
(0.00996557 0.00392052 0)
(0.0121114 0.00377858 0)
(0.0140164 0.00380007 0)
(0.0157309 0.00407365 0)
(0.0172457 0.00472584 0)
(0.0183892 0.00591356 0)
(0.0185425 0.00769122 0)
(0.0134944 0.00905792 0)
(0.00436822 2.9736e-05 0)
(2.44529e-07 3.3527e-19 0)
(4.59145e-28 -3.27943e-32 0)
(1.53312e-31 -2.648e-32 0)
(1.46498e-31 -2.22829e-32 0)
(1.40478e-31 -1.92981e-32 0)
(1.35192e-31 -1.70546e-32 0)
(0.00154076 0.00317251 0)
(0.00449355 0.00306232 0)
(0.00717142 0.00291028 0)
(0.00956725 0.00277269 0)
(0.0117205 0.00270492 0)
(0.0136988 0.00276832 0)
(0.0155781 0.00305258 0)
(0.0173974 0.00371805 0)
(0.0190536 0.00502335 0)
(0.0205539 0.00687717 0)
(0.0107689 0.00503974 0)
(0.000122206 2.36409e-10 0)
(2.07412e-16 -3.3456e-32 0)
(1.66636e-31 -2.60645e-32 0)
(1.57138e-31 -2.04379e-32 0)
(1.49169e-31 -1.68578e-32 0)
(1.42456e-31 -1.44183e-32 0)
(1.36737e-31 -1.2647e-32 0)
(0.00145716 0.0020118 0)
(0.00425926 0.00194894 0)
(0.00682378 0.00186254 0)
(0.00914905 0.00178789 0)
(0.0112768 0.00176201 0)
(0.0132831 0.00183031 0)
(0.0152717 0.00206903 0)
(0.0173435 0.00264669 0)
(0.0193001 0.00396361 0)
(0.0189108 0.00614727 0)
(0.00881911 0.00010718 0)
(2.94202e-06 -1.16892e-23 0)
(6.61776e-23 -2.72735e-32 0)
(1.71161e-31 -1.87807e-32 0)
(1.59912e-31 -1.42853e-32 0)
(1.51004e-31 -1.16015e-32 0)
(1.43767e-31 -9.83801e-33 0)
(1.37735e-31 -8.58815e-33 0)
(0.00135215 0.00105859 0)
(0.00396023 0.00102882 0)
(0.00636697 0.000987929 0)
(0.00857562 0.000954742 0)
(0.0106286 0.000950032 0)
(0.0126054 0.00100108 0)
(0.0146321 0.0011583 0)
(0.0169045 0.00155797 0)
(0.0194478 0.00273676 0)
(0.0163748 0.00662751 0)
(0.00599315 2.43371e-07 0)
(2.75814e-07 -3.73401e-29 0)
(2.14093e-28 -1.74491e-32 0)
(1.74408e-31 -1.11982e-32 0)
(1.61638e-31 -8.31668e-33 0)
(1.52081e-31 -6.69201e-33 0)
(1.44515e-31 -5.65266e-33 0)
(1.38296e-31 -4.9272e-33 0)
(0.00100337 0.000315141 0)
(0.00294782 0.000307034 0)
(0.00476527 0.000295859 0)
(0.00647106 0.000287409 0)
(0.00811946 0.000288307 0)
(0.00980299 0.000307544 0)
(0.0116649 0.000362538 0)
(0.0139636 0.000506653 0)
(0.0173437 0.00102489 0)
(0.0105061 0.00352734 0)
(0.00079497 -3.87329e-16 0)
(5.36521e-13 -1.17726e-32 0)
(1.97549e-31 -6.04575e-33 0)
(1.75974e-31 -3.76535e-33 0)
(1.62398e-31 -2.7873e-33 0)
(1.52538e-31 -2.25248e-33 0)
(1.44827e-31 -1.91491e-33 0)
(1.38527e-31 -1.68096e-33 0)
(5.81952e-34 -1.40554e-33 -1.81593e-59)
(1.75052e-33 -1.40364e-33 1.81209e-59)
(2.92621e-33 -1.40035e-33 0)
(4.10775e-33 -1.39566e-33 0)
(5.2938e-33 -1.38956e-33 0)
(6.48298e-33 -1.38206e-33 -1.77862e-59)
(7.67391e-33 -1.37316e-33 0)
(8.86517e-33 -1.36288e-33 0)
(1.00553e-32 -1.35125e-33 0)
(1.12429e-32 -1.33831e-33 0)
(1.24266e-32 -1.3241e-33 1.69669e-59)
(1.36049e-32 -1.30867e-33 0)
(1.47764e-32 -1.29208e-33 0)
(1.59399e-32 -1.27439e-33 0)
(1.70939e-32 -1.25568e-33 0)
(1.82371e-32 -1.23601e-33 1.57597e-59)
(1.93685e-32 -1.21546e-33 0)
(2.04867e-32 -1.19412e-33 0)
(2.15907e-32 -1.17206e-33 0)
(2.26795e-32 -1.14938e-33 0)
(2.37521e-32 -1.12614e-33 0)
(2.48076e-32 -1.10245e-33 0)
(2.58451e-32 -1.07838e-33 0)
(2.68639e-32 -1.054e-33 1.33056e-59)
(2.78634e-32 -1.02941e-33 -1.29759e-59)
(2.88429e-32 -1.00467e-33 1.26446e-59)
(2.9802e-32 -9.79862e-34 1.23126e-59)
(3.07401e-32 -9.55047e-34 0)
(3.16569e-32 -9.30292e-34 0)
(3.25522e-32 -9.05658e-34 -1.13211e-59)
(3.34256e-32 -8.81201e-34 -1.09947e-59)
(3.42769e-32 -8.56973e-34 0)
(3.51061e-32 -8.33021e-34 0)
(3.59132e-32 -8.09388e-34 -1.00371e-59)
(3.6698e-32 -7.86113e-34 0)
(3.74606e-32 -7.6323e-34 0)
(3.82012e-32 -7.40771e-34 9.12329e-60)
(3.89199e-32 -7.18762e-34 0)
(3.96167e-32 -6.97225e-34 8.54375e-60)
(4.0292e-32 -6.7618e-34 1.65276e-59)
(4.0946e-32 -6.55644e-34 0)
(4.1579e-32 -6.35629e-34 0)
(4.21912e-32 -6.16146e-34 0)
(4.2783e-32 -5.97203e-34 0)
(4.33548e-32 -5.78804e-34 0)
(4.39068e-32 -5.60953e-34 1.34637e-59)
(4.44395e-32 -5.4365e-34 1.30038e-59)
(4.49533e-32 -5.26895e-34 1.25586e-59)
(4.54485e-32 -5.10685e-34 0)
(4.59256e-32 -4.95016e-34 -1.17116e-59)
(4.6385e-32 -4.79883e-34 0)
(4.68271e-32 -4.65279e-34 1.09216e-59)
(4.72524e-32 -4.51196e-34 1.05475e-59)
(4.76613e-32 -4.37627e-34 0)
(4.80542e-32 -4.24562e-34 0)
(4.84316e-32 -4.11991e-34 0)
(4.87939e-32 -3.99904e-34 9.18529e-60)
(4.91415e-32 -3.88289e-34 0)
(4.94749e-32 -3.77137e-34 0)
(4.97946e-32 -3.66434e-34 0)
(5.01008e-32 -3.56169e-34 0)
(5.03941e-32 -3.46331e-34 0)
(5.06749e-32 -3.36907e-34 0)
(5.09435e-32 -3.27884e-34 0)
(5.12004e-32 -3.19251e-34 0)
(5.1446e-32 -3.10996e-34 -6.82445e-60)
(5.16806e-32 -3.03106e-34 0)
(5.19047e-32 -2.95569e-34 0)
(5.21186e-32 -2.88374e-34 6.22382e-60)
(5.23228e-32 -2.81509e-34 6.04151e-60)
(5.25174e-32 -2.74961e-34 0)
(5.27029e-32 -2.68721e-34 -5.70199e-60)
(5.28797e-32 -2.62775e-34 5.54413e-60)
(5.30481e-32 -2.57114e-34 0)
(5.32084e-32 -2.51727e-34 -5.25077e-60)
(5.33608e-32 -2.46603e-34 0)
(5.35058e-32 -2.41731e-34 0)
(5.36437e-32 -2.37103e-34 4.86247e-60)
(5.37746e-32 -2.32707e-34 0)
(5.3899e-32 -2.28534e-34 -4.63495e-60)
(5.4017e-32 -2.24575e-34 0)
(5.4129e-32 -2.20821e-34 4.43014e-60)
(5.42352e-32 -2.17264e-34 4.33569e-60)
(5.43358e-32 -2.13894e-34 4.2462e-60)
(5.44311e-32 -2.10704e-34 8.32299e-60)
(5.45214e-32 -2.07685e-34 -8.16263e-60)
(5.46068e-32 -2.0483e-34 0)
(5.46876e-32 -2.02131e-34 0)
(5.4764e-32 -1.99582e-34 0)
(5.48362e-32 -1.97174e-34 -7.60439e-60)
(5.49043e-32 -1.94902e-34 -7.4837e-60)
(5.49687e-32 -1.92759e-34 7.36987e-60)
(5.50294e-32 -1.90739e-34 0)
(5.50866e-32 -1.88835e-34 -7.16143e-60)
(5.51406e-32 -1.87042e-34 -7.06618e-60)
(5.51914e-32 -1.85355e-34 -6.97655e-60)
(5.52392e-32 -1.83768e-34 0)
(5.52843e-32 -1.82275e-34 0)
(5.53266e-32 -1.80873e-34 0)
(5.53664e-32 -1.79556e-34 -6.6685e-60)
(5.54038e-32 -1.7832e-34 0)
(5.54389e-32 -1.77161e-34 0)
(5.54718e-32 -1.76074e-34 6.48351e-60)
(5.55027e-32 -1.75055e-34 0)
(5.55317e-32 -1.74101e-34 0)
(5.55588e-32 -1.73209e-34 6.33127e-60)
(5.55842e-32 -1.72374e-34 0)
(5.5608e-32 -1.71593e-34 0)
(5.56302e-32 -1.70864e-34 -6.20668e-60)
(5.5651e-32 -1.70183e-34 -6.1705e-60)
(5.56704e-32 -1.69548e-34 0)
(5.56885e-32 -1.68955e-34 6.10523e-60)
(5.57054e-32 -1.68403e-34 0)
(5.57212e-32 -1.67889e-34 -6.04857e-60)
(5.57358e-32 -1.6741e-34 0)
(5.57495e-32 -1.66964e-34 -5.99943e-60)
(5.57622e-32 -1.6655e-34 -5.97745e-60)
(5.57741e-32 -1.66166e-34 0)
(5.57851e-32 -1.65808e-34 0)
(5.57953e-32 -1.65477e-34 0)
(5.58048e-32 -1.65169e-34 0)
(5.58136e-32 -1.64884e-34 0)
(5.58218e-32 -1.64621e-34 0)
(5.58293e-32 -1.64376e-34 0)
(5.58363e-32 -1.6415e-34 -5.84985e-60)
(5.58428e-32 -1.63942e-34 5.83877e-60)
(5.58488e-32 -1.63749e-34 0)
(5.58543e-32 -1.6357e-34 0)
(5.58594e-32 -1.63406e-34 0)
(5.58642e-32 -1.63255e-34 0)
(5.58685e-32 -1.63115e-34 1.15896e-59)
(5.58725e-32 -1.62986e-34 0)
(5.58762e-32 -1.62868e-34 -1.15633e-59)
(5.58796e-32 -1.62759e-34 1.15517e-59)
(5.58827e-32 -1.62658e-34 0)
(5.58856e-32 -1.62566e-34 0)
(5.58882e-32 -1.62481e-34 0)
(5.58906e-32 -1.62402e-34 -1.15138e-59)
(5.58928e-32 -1.6233e-34 -1.15062e-59)
(5.58948e-32 -1.62264e-34 0)
(5.58966e-32 -1.62202e-34 -1.14926e-59)
(5.58983e-32 -1.62145e-34 -1.14865e-59)
(5.58998e-32 -1.62092e-34 1.14809e-59)
(5.59011e-32 -1.62042e-34 0)
(5.59023e-32 -1.61995e-34 0)
(5.59034e-32 -1.6195e-34 1.14659e-59)
(5.59043e-32 -1.61907e-34 0)
(5.59051e-32 -1.61864e-34 0)
(5.59058e-32 -1.61822e-34 0)
(5.59063e-32 -1.61779e-34 0)
(5.59067e-32 -1.61734e-34 -1.14432e-59)
(5.59069e-32 -1.61686e-34 -1.14382e-59)
(5.5907e-32 -1.61633e-34 0)
(5.59068e-32 -1.61574e-34 -1.14266e-59)
(5.59065e-32 -1.61506e-34 0)
(5.59058e-32 -1.61426e-34 0)
(5.59049e-32 -1.61331e-34 -1.14017e-59)
(5.59035e-32 -1.61216e-34 0)
(5.59017e-32 -1.61076e-34 -1.13756e-59)
(5.58993e-32 -1.60903e-34 0)
(5.58961e-32 -1.60688e-34 0)
(5.5892e-32 -1.60419e-34 -1.13086e-59)
(5.58868e-32 -1.6008e-34 0)
(5.588e-32 -1.59652e-34 -1.12305e-59)
(5.58712e-32 -1.59107e-34 0)
(5.58599e-32 -1.58411e-34 0)
(5.58454e-32 -1.57516e-34 0)
(5.58267e-32 -1.56358e-34 1.0895e-59)
(5.58024e-32 -1.54852e-34 0)
(5.57709e-32 -1.52873e-34 -1.05398e-59)
(5.57296e-32 -1.50248e-34 0)
(5.56752e-32 -1.4672e-34 0)
(5.56028e-32 -1.41895e-34 0)
(5.55053e-32 -1.35144e-34 0)
(5.53718e-32 -1.25394e-34 0)
(5.51842e-32 -1.10649e-34 0)
(5.4911e-32 -8.67445e-35 0)
(5.44875e-32 -4.33482e-35 -1.3271e-60)
(5.37512e-32 5.26648e-35 0)
(5.21192e-32 3.53721e-34 0)
(5.84848e-34 -3.89953e-33 5.03793e-59)
(1.75921e-33 -3.89378e-33 -5.02635e-59)
(2.94068e-33 -3.88384e-33 0)
(4.12795e-33 -3.86966e-33 9.98332e-59)
(5.31965e-33 -3.85122e-33 0)
(6.51437e-33 -3.82852e-33 -4.94056e-59)
(7.71068e-33 -3.80161e-33 -9.79051e-59)
(8.90713e-33 -3.77054e-33 -9.70454e-59)
(1.01023e-32 -3.7354e-33 0)
(1.12947e-32 -3.69629e-33 -9.50133e-59)
(1.24828e-32 -3.65335e-33 4.70711e-59)
(1.36653e-32 -3.60674e-33 0)
(1.48407e-32 -3.55663e-33 0)
(1.60077e-32 -3.50323e-33 0)
(1.7165e-32 -3.44673e-33 0)
(1.83111e-32 -3.38738e-33 4.35646e-59)
(1.9445e-32 -3.32539e-33 0)
(2.05655e-32 -3.26102e-33 8.33243e-59)
(2.16713e-32 -3.19452e-33 0)
(2.27616e-32 -3.12615e-33 0)
(2.38354e-32 -3.05614e-33 -7.78738e-59)
(2.48917e-32 -2.98477e-33 0)
(2.59298e-32 -2.91227e-33 7.4056e-59)
(2.69489e-32 -2.8389e-33 3.63738e-59)
(2.79483e-32 -2.76488e-33 -3.54053e-59)
(2.89276e-32 -2.69045e-33 3.44317e-59)
(2.98861e-32 -2.61582e-33 3.34558e-59)
(3.08235e-32 -2.54119e-33 0)
(3.17393e-32 -2.46677e-33 0)
(3.26334e-32 -2.39272e-33 -3.054e-59)
(3.35055e-32 -2.31923e-33 -8.79482e-59)
(3.43554e-32 -2.24644e-33 0)
(3.5183e-32 -2.17449e-33 0)
(3.59883e-32 -2.10352e-33 -2.67625e-59)
(3.67714e-32 -2.03363e-33 0)
(3.75321e-32 -1.96494e-33 0)
(3.82708e-32 -1.89752e-33 2.40731e-59)
(3.89874e-32 -1.83147e-33 0)
(3.96822e-32 -1.76685e-33 6.61656e-59)
(4.03555e-32 -1.70371e-33 4.3087e-59)
(4.10074e-32 -1.6421e-33 0)
(4.16383e-32 -1.58207e-33 0)
(4.22484e-32 -1.52364e-33 -7.47802e-59)
(4.28382e-32 -1.46683e-33 -7.17875e-59)
(4.34079e-32 -1.41166e-33 -6.88815e-59)
(4.39579e-32 -1.35813e-33 1.00132e-58)
(4.44886e-32 -1.30626e-33 3.27157e-59)
(4.50003e-32 -1.25603e-33 -2.92802e-59)
(4.54936e-32 -1.20744e-33 5.81267e-59)
(4.59688e-32 -1.16047e-33 -2.89122e-59)
(4.64264e-32 -1.11511e-33 0)
(4.68667e-32 -1.07134e-33 2.65871e-59)
(4.72903e-32 -1.02914e-33 7.42254e-59)
(4.76975e-32 -9.88476e-34 0)
(4.80887e-32 -9.49324e-34 0)
(4.84645e-32 -9.11654e-34 0)
(4.88253e-32 -8.75435e-34 2.14767e-59)
(4.91714e-32 -8.40634e-34 0)
(4.95034e-32 -8.07217e-34 3.70571e-59)
(4.98216e-32 -7.7515e-34 0)
(5.01265e-32 -7.44395e-34 3.37505e-59)
(5.04186e-32 -7.14918e-34 0)
(5.06981e-32 -6.86683e-34 -3.07128e-59)
(5.09655e-32 -6.59652e-34 0)
(5.12213e-32 -6.33788e-34 2.79288e-59)
(5.14658e-32 -6.09056e-34 -4.11558e-59)
(5.16994e-32 -5.85419e-34 0)
(5.19225e-32 -5.62841e-34 -2.41948e-59)
(5.21355e-32 -5.41286e-34 1.2761e-59)
(5.23387e-32 -5.20719e-34 1.22246e-59)
(5.25325e-32 -5.01105e-34 0)
(5.27172e-32 -4.82409e-34 -3.11869e-59)
(5.28932e-32 -4.64599e-34 1.07608e-59)
(5.30608e-32 -4.47641e-34 0)
(5.32203e-32 -4.31502e-34 -9.89756e-60)
(5.33721e-32 -4.16151e-34 -1.64742e-59)
(5.35165e-32 -4.01558e-34 0)
(5.36537e-32 -3.87692e-34 8.75488e-60)
(5.3784e-32 -3.74523e-34 0)
(5.39078e-32 -3.62023e-34 5.53987e-60)
(5.40253e-32 -3.50165e-34 0)
(5.41368e-32 -3.3892e-34 -4.92647e-60)
(5.42425e-32 -3.28263e-34 7.20478e-60)
(5.43427e-32 -3.18169e-34 1.82584e-59)
(5.44376e-32 -3.08612e-34 3.50123e-59)
(5.45275e-32 -2.99569e-34 -3.35884e-59)
(5.46125e-32 -2.91017e-34 0)
(5.46929e-32 -2.82932e-34 0)
(5.4769e-32 -2.75295e-34 0)
(5.48408e-32 -2.68083e-34 6.09099e-60)
(5.49087e-32 -2.61276e-34 -1.0915e-59)
(5.49728e-32 -2.54856e-34 1.058e-59)
(5.50332e-32 -2.48804e-34 0)
(5.50902e-32 -2.43101e-34 -2.46977e-59)
(5.51439e-32 -2.37731e-34 -9.68656e-60)
(5.51945e-32 -2.32676e-34 -9.42286e-60)
(5.52421e-32 -2.27921e-34 0)
(5.5287e-32 -2.23451e-34 0)
(5.53291e-32 -2.1925e-34 0)
(5.53687e-32 -2.15306e-34 -8.51659e-60)
(5.5406e-32 -2.11603e-34 0)
(5.54409e-32 -2.0813e-34 -1.10487e-59)
(5.54737e-32 -2.04873e-34 -2.73351e-60)
(5.55045e-32 -2.01822e-34 1.03845e-59)
(5.55333e-32 -1.98965e-34 0)
(5.55603e-32 -1.96291e-34 1.73266e-59)
(5.55856e-32 -1.93789e-34 0)
(5.56093e-32 -1.91451e-34 9.29239e-60)
(5.56314e-32 -1.89267e-34 -1.62204e-59)
(5.56521e-32 -1.87227e-34 -1.58991e-59)
(5.56714e-32 -1.85324e-34 0)
(5.56894e-32 -1.83549e-34 -1.60051e-60)
(5.57063e-32 -1.81894e-34 8.28596e-60)
(5.5722e-32 -1.80353e-34 -6.69294e-60)
(5.57366e-32 -1.78919e-34 0)
(5.57502e-32 -1.77585e-34 -6.54845e-60)
(5.57629e-32 -1.76344e-34 1.2176e-60)
(5.57747e-32 -1.75191e-34 0)
(5.57856e-32 -1.74121e-34 7.46724e-60)
(5.57958e-32 -1.73128e-34 7.36261e-60)
(5.58052e-32 -1.72207e-34 7.26559e-60)
(5.5814e-32 -1.71354e-34 0)
(5.58221e-32 -1.70563e-34 0)
(5.58297e-32 -1.69831e-34 0)
(5.58366e-32 -1.69154e-34 -1.30526e-59)
(5.58431e-32 -1.68529e-34 6.07591e-60)
(5.58491e-32 -1.67951e-34 0)
(5.58546e-32 -1.67417e-34 -6.76102e-60)
(5.58597e-32 -1.66925e-34 -6.70913e-60)
(5.58644e-32 -1.66471e-34 0)
(5.58687e-32 -1.66052e-34 1.18933e-59)
(5.58727e-32 -1.65666e-34 -1.31531e-59)
(5.58764e-32 -1.65311e-34 -1.1816e-59)
(5.58797e-32 -1.64985e-34 2.47914e-59)
(5.58828e-32 -1.64684e-34 0)
(5.58857e-32 -1.64407e-34 0)
(5.58883e-32 -1.64152e-34 0)
(5.58907e-32 -1.63918e-34 -1.16705e-59)
(5.58929e-32 -1.63701e-34 -2.43871e-59)
(5.58949e-32 -1.63502e-34 -1.26972e-59)
(5.58967e-32 -1.63317e-34 -1.16079e-59)
(5.58983e-32 -1.63146e-34 -2.42124e-59)
(5.58998e-32 -1.62987e-34 1.15734e-59)
(5.59012e-32 -1.62838e-34 0)
(5.59024e-32 -1.62697e-34 0)
(5.59034e-32 -1.62563e-34 2.40289e-59)
(5.59043e-32 -1.62433e-34 0)
(5.59051e-32 -1.62307e-34 0)
(5.59058e-32 -1.6218e-34 -1.24197e-59)
(5.59063e-32 -1.62051e-34 0)
(5.59067e-32 -1.61916e-34 -2.38269e-59)
(5.5907e-32 -1.61773e-34 -1.14472e-59)
(5.5907e-32 -1.61615e-34 0)
(5.59069e-32 -1.61437e-34 -2.36782e-59)
(5.59065e-32 -1.61234e-34 0)
(5.59059e-32 -1.60995e-34 0)
(5.5905e-32 -1.60711e-34 -1.13377e-59)
(5.59037e-32 -1.60369e-34 -1.20459e-59)
(5.59019e-32 -1.5995e-34 -1.12592e-59)
(5.58995e-32 -1.59434e-34 0)
(5.58964e-32 -1.58792e-34 0)
(5.58924e-32 -1.57989e-34 -2.26156e-59)
(5.58872e-32 -1.56979e-34 0)
(5.58805e-32 -1.557e-34 -2.19111e-59)
(5.58718e-32 -1.54075e-34 0)
(5.58608e-32 -1.51997e-34 0)
(5.58465e-32 -1.49327e-34 0)
(5.5828e-32 -1.45875e-34 9.81087e-60)
(5.58042e-32 -1.41382e-34 0)
(5.57732e-32 -1.35486e-34 -8.74185e-60)
(5.57326e-32 -1.27668e-34 0)
(5.56792e-32 -1.17169e-34 0)
(5.56084e-32 -1.02831e-34 -2.59042e-61)
(5.55132e-32 -8.28086e-35 -3.84558e-60)
(5.53833e-32 -5.39767e-35 0)
(5.52022e-32 -1.06093e-35 0)
(5.4942e-32 5.89791e-35 0)
(5.45509e-32 1.82443e-34 6.8638e-59)
(5.39295e-32 4.39986e-34 0)
(5.29492e-32 1.13377e-33 -5.0892e-58)
(5.90715e-34 -6.41225e-33 3.31435e-58)
(1.77681e-33 -6.40252e-33 -4.22933e-62)
(2.96999e-33 -6.38569e-33 0)
(4.16886e-33 -6.36167e-33 9.87658e-62)
(5.37199e-33 -6.33044e-33 0)
(6.5779e-33 -6.29201e-33 0)
(7.78509e-33 -6.24644e-33 -3.22014e-58)
(8.99205e-33 -6.19385e-33 -1.59682e-58)
(1.01973e-32 -6.13438e-33 1.57847e-58)
(1.13992e-32 -6.06823e-33 -1.56322e-58)
(1.25964e-32 -5.99564e-33 0)
(1.37873e-32 -5.91687e-33 0)
(1.49706e-32 -5.83223e-33 -1.49699e-58)
(1.61447e-32 -5.74207e-33 -2.9457e-58)
(1.73084e-32 -5.64675e-33 2.89477e-58)
(1.84604e-32 -5.54665e-33 0)
(1.95994e-32 -5.44218e-33 2.78577e-58)
(2.07242e-32 -5.33376e-33 1.36896e-58)
(2.18337e-32 -5.22182e-33 0)
(2.2927e-32 -5.10678e-33 2.60766e-58)
(2.4003e-32 -4.98908e-33 -1.27831e-58)
(2.5061e-32 -4.86915e-33 -2.48178e-58)
(2.61001e-32 -4.74741e-33 1.21485e-58)
(2.71196e-32 -4.62426e-33 0)
(2.8119e-32 -4.5001e-33 2.28666e-58)
(2.90976e-32 -4.37532e-33 2.22076e-58)
(3.0055e-32 -4.25027e-33 0)
(3.09908e-32 -4.12529e-33 2.08882e-58)
(3.19046e-32 -4.00072e-33 0)
(3.27964e-32 -3.87684e-33 1.95781e-58)
(3.36658e-32 -3.75394e-33 -9.54472e-59)
(3.45127e-32 -3.63227e-33 0)
(3.53371e-32 -3.51206e-33 0)
(3.61389e-32 -3.39352e-33 0)
(3.69183e-32 -3.27685e-33 0)
(3.76753e-32 -3.1622e-33 0)
(3.841e-32 -3.04973e-33 0)
(3.91226e-32 -2.93957e-33 1.4643e-58)
(3.98133e-32 -2.83182e-33 -6.94405e-59)
(4.04824e-32 -2.72657e-33 0)
(4.11302e-32 -2.62391e-33 0)
(4.17569e-32 -2.52389e-33 0)
(4.23628e-32 -2.42656e-33 -2.40898e-58)
(4.29484e-32 -2.33195e-33 -1.16503e-58)
(4.3514e-32 -2.24009e-33 -2.05491e-60)
(4.40599e-32 -2.15099e-33 2.08067e-60)
(4.45866e-32 -2.06465e-33 -1.00424e-58)
(4.50944e-32 -1.98106e-33 -9.81594e-59)
(4.55838e-32 -1.9002e-33 1.85714e-58)
(4.60553e-32 -1.82206e-33 8.76739e-59)
(4.65091e-32 -1.7466e-33 0)
(4.69459e-32 -1.67379e-33 7.98826e-59)
(4.73659e-32 -1.6036e-33 1.54625e-58)
(4.77697e-32 -1.53597e-33 0)
(4.81577e-32 -1.47086e-33 0)
(4.85303e-32 -1.40822e-33 -6.59285e-59)
(4.8888e-32 -1.348e-33 0)
(4.92311e-32 -1.29014e-33 0)
(4.95602e-32 -1.23458e-33 1.72757e-58)
(4.98757e-32 -1.18127e-33 1.0801e-58)
(5.0178e-32 -1.13014e-33 5.36884e-59)
(5.04674e-32 -1.08115e-33 0)
(5.07445e-32 -1.03421e-33 -4.86752e-59)
(5.10095e-32 -9.8928e-34 0)
(5.12631e-32 -9.46291e-34 1.27401e-58)
(5.15054e-32 -9.05185e-34 -4.19329e-59)
(5.17369e-32 -8.65899e-34 -7.48738e-59)
(5.1958e-32 -8.28373e-34 -1.0885e-58)
(5.21691e-32 -7.92549e-34 0)
(5.23704e-32 -7.58368e-34 6.3576e-59)
(5.25625e-32 -7.25771e-34 0)
(5.27455e-32 -6.94701e-34 2.59528e-59)
(5.292e-32 -6.65102e-34 5.37769e-59)
(5.30861e-32 -6.3692e-34 5.08159e-59)
(5.32442e-32 -6.101e-34 -4.7998e-59)
(5.33946e-32 -5.8459e-34 2.01376e-59)
(5.35377e-32 -5.60339e-34 0)
(5.36736e-32 -5.37296e-34 0)
(5.38028e-32 -5.15412e-34 -3.80492e-59)
(5.39255e-32 -4.9464e-34 -1.5387e-59)
(5.4042e-32 -4.74933e-34 0)
(5.41524e-32 -4.56247e-34 -1.84734e-59)
(5.42572e-32 -4.38538e-34 0)
(5.43565e-32 -4.21764e-34 -1.1538e-59)