/*--------------------------------*- C++ -*----------------------------------*\
  =========                 |
  \\      /  F ield         | OpenFOAM: The Open Source CFD Toolbox
   \\    /   O peration     | Website:  https://openfoam.org
    \\  /    A nd           | Version:  10
     \\/     M anipulation  |
\*---------------------------------------------------------------------------*/
FoamFile
{
    format      ascii;
    class       volVectorField;
    location    "2.38";
    object      Ua;
}
// * * * * * * * * * * * * * * * * * * * * * * * * * * * * * * * * * * * * * //

dimensions      [0 1 -1 0 0 0 0];

internalField   nonuniform List<vector> 
12225
(
(1.59213e-05 -2.04605e-06 0)
(4.65354e-05 -1.91446e-06 0)
(7.42651e-05 -1.67203e-06 0)
(9.86554e-05 -1.39804e-06 0)
(0.000119885 -1.14616e-06 0)
(0.000138457 -9.43065e-07 0)
(0.000154966 -7.97752e-07 0)
(0.000169984 -7.10854e-07 0)
(0.00018402 -6.81163e-07 0)
(0.000197526 -7.09826e-07 0)
(0.000210929 -8.03745e-07 0)
(0.000224686 -9.80054e-07 0)
(0.000239358 -1.27487e-06 0)
(0.00025577 -1.76415e-06 0)
(0.000275347 -2.62201e-06 0)
(0.000301094 -4.32124e-06 0)
(0.000341256 -8.54733e-06 0)
(0.000428961 -2.39908e-05 0)
(1.07565e-05 -5.2815e-06 0)
(3.16823e-05 -4.97302e-06 0)
(5.11767e-05 -4.37404e-06 0)
(6.89182e-05 -3.6832e-06 0)
(8.49118e-05 -3.03984e-06 0)
(9.93627e-05 -2.51662e-06 0)
(0.000112562 -2.14084e-06 0)
(0.00012482 -1.9175e-06 0)
(0.000136429 -1.84608e-06 0)
(0.000147669 -1.93177e-06 0)
(0.000158815 -2.19484e-06 0)
(0.000170171 -2.68277e-06 0)
(0.000182113 -3.49366e-06 0)
(0.000195183 -4.83048e-06 0)
(0.00021027 -7.14734e-06 0)
(0.000228992 -1.16173e-05 0)
(0.000254214 -2.19779e-05 0)
(0.000284806 -5.36629e-05 0)
(8.28651e-06 -7.22884e-06 0)
(2.45611e-05 -6.86954e-06 0)
(4.00621e-05 -6.10163e-06 0)
(5.4538e-05 -5.18635e-06 0)
(6.79252e-05 -4.31671e-06 0)
(8.03004e-05 -3.60017e-06 0)
(9.18177e-05 -3.08257e-06 0)
(0.000102662 -2.77763e-06 0)
(0.000113026 -2.68994e-06 0)
(0.000123101 -2.83116e-06 0)
(0.000133083 -3.23378e-06 0)
(0.000143192 -3.96879e-06 0)
(0.000153695 -5.17826e-06 0)
(0.000164952 -7.1474e-06 0)
(0.000177476 -1.04847e-05 0)
(0.000191905 -1.66246e-05 0)
(0.000208153 -2.93512e-05 0)
(0.0002189 -5.91379e-05 0)
(6.69968e-06 -8.47885e-06 0)
(1.9973e-05 -8.13414e-06 0)
(3.28673e-05 -7.29506e-06 0)
(4.51793e-05 -6.25706e-06 0)
(5.68132e-05 -5.24989e-06 0)
(6.77729e-05 -4.40918e-06 0)
(7.81304e-05 -3.79865e-06 0)
(8.7994e-05 -3.4426e-06 0)
(9.74888e-05 -3.35267e-06 0)
(0.000106747 -3.54771e-06 0)
(0.00011591 -4.07078e-06 0)
(0.000125133 -5.01031e-06 0)
(0.000134597 -6.5369e-06 0)
(0.000144512 -8.97892e-06 0)
(0.000155087 -1.2992e-05 0)
(0.000166296 -1.9951e-05 0)
(0.000176779 -3.27844e-05 0)
(0.000179937 -5.68296e-05 0)
(5.5538e-06 -9.237e-06 0)
(1.66493e-05 -8.94963e-06 0)
(2.76281e-05 -8.10381e-06 0)
(3.83237e-05 -7.01167e-06 0)
(4.86256e-05 -5.92829e-06 0)
(5.84941e-05 -5.01222e-06 0)
(6.79472e-05 -4.34396e-06 0)
(7.70397e-05 -3.95891e-06 0)
(8.58478e-05 -3.87662e-06 0)
(9.4459e-05 -4.12299e-06 0)
(0.000102969 -4.74939e-06 0)
(0.000111481 -5.85529e-06 0)
(0.0001201 -7.62447e-06 0)
(0.000128914 -1.03924e-05 0)
(0.000137909 -1.47761e-05 0)
(0.000146681 -2.19048e-05 0)
(0.000153595 -3.3677e-05 0)
(0.000154068 -5.21488e-05 0)
(4.67389e-06 -9.6085e-06 0)
(1.40886e-05 -9.40849e-06 0)
(2.35688e-05 -8.6017e-06 0)
(3.29775e-05 -7.50574e-06 0)
(4.22001e-05 -6.39266e-06 0)
(5.11707e-05 -5.4394e-06 0)
(5.98705e-05 -4.74151e-06 0)
(6.83156e-05 -4.34534e-06 0)
(7.65442e-05 -4.27833e-06 0)
(8.46075e-05 -4.57265e-06 0)
(9.25635e-05 -5.2853e-06 0)
(0.000100469 -6.52013e-06 0)
(0.000108368 -8.45972e-06 0)
(0.000116253 -1.14168e-05 0)
(0.000123966 -1.59137e-05 0)
(0.000130956 -2.277e-05 0)
(0.000135781 -3.30291e-05 0)
(0.000135609 -4.70714e-05 0)
(3.97279e-06 -9.65873e-06 0)
(1.20411e-05 -9.56715e-06 0)
(2.03037e-05 -8.83233e-06 0)
(2.86474e-05 -7.77046e-06 0)
(3.69606e-05 -6.66436e-06 0)
(4.51627e-05 -5.70519e-06 0)
(5.32102e-05 -5.00137e-06 0)
(6.109e-05 -4.60932e-06 0)
(6.88104e-05 -4.56376e-06 0)
(7.63926e-05 -4.90192e-06 0)
(8.38619e-05 -5.68339e-06 0)
(9.12374e-05 -7.01015e-06 0)
(9.85129e-05 -9.05138e-06 0)
(0.000105615 -1.20762e-05 0)
(0.000112314 -1.64874e-05 0)
(0.000118059 -2.28135e-05 0)
(0.000121749 -3.15132e-05 0)
(0.000121757 -4.22774e-05 0)
(3.40062e-06 -9.43426e-06 0)
(1.03638e-05 -9.46493e-06 0)
(1.7612e-05 -8.82473e-06 0)
(2.50519e-05 -7.82524e-06 0)
(3.25791e-05 -6.75536e-06 0)
(4.0107e-05 -5.81643e-06 0)
(4.75755e-05 -5.12721e-06 0)
(5.49499e-05 -4.75268e-06 0)
(6.22145e-05 -4.73376e-06 0)
(6.93652e-05 -5.11114e-06 0)
(7.64001e-05 -5.94408e-06 0)
(8.33073e-05 -7.32721e-06 0)
(9.00439e-05 -9.40756e-06 0)
(9.64979e-05 -1.23999e-05 0)
(0.000102422 -1.65875e-05 0)
(0.000107341 -2.22676e-05 0)
(0.000110486 -2.95545e-05 0)
(0.000110972 -3.79506e-05 0)
(2.92592e-06 -8.97237e-06 0)
(8.96653e-06 -9.13228e-06 0)
(1.53546e-05 -8.60036e-06 0)
(2.20136e-05 -7.68332e-06 0)
(2.88501e-05 -6.67269e-06 0)
(3.57769e-05 -5.77602e-06 0)
(4.2724e-05 -5.11939e-06 0)
(4.96403e-05 -4.77439e-06 0)
(5.64909e-05 -4.78664e-06 0)
(6.32507e-05 -5.19854e-06 0)
(6.98957e-05 -6.06636e-06 0)
(7.63901e-05 -7.47337e-06 0)
(8.26668e-05 -9.53947e-06 0)
(8.85978e-05 -1.24235e-05 0)
(9.39518e-05 -1.63051e-05 0)
(9.83544e-05 -2.13192e-05 0)
(0.000101302 -2.7407e-05 0)
(0.000102337 -3.40937e-05 0)
(2.5273e-06 -8.30609e-06 0)
(7.78778e-06 -8.59512e-06 0)
(1.34364e-05 -8.17652e-06 0)
(1.9412e-05 -7.35465e-06 0)
(2.56345e-05 -6.42086e-06 0)
(3.20206e-05 -5.58488e-06 0)
(3.84943e-05 -4.97671e-06 0)
(4.49926e-05 -4.67214e-06 0)
(5.14654e-05 -4.7197e-06 0)
(5.78706e-05 -5.1618e-06 0)
(6.41663e-05 -6.0496e-06 0)
(7.02998e-05 -7.45257e-06 0)
(7.6191e-05 -9.46232e-06 0)
(8.17117e-05 -1.21867e-05 0)
(8.66633e-05 -1.57249e-05 0)
(9.07696e-05 -2.01103e-05 0)
(9.37158e-05 -2.52149e-05 0)
(9.52753e-05 -3.06535e-05 0)
(2.18918e-06 -7.46742e-06 0)
(6.78239e-06 -7.87716e-06 0)
(1.17875e-05 -7.56839e-06 0)
(1.71591e-05 -6.84759e-06 0)
(2.28323e-05 -6.00341e-06 0)
(2.87298e-05 -5.24338e-06 0)
(3.47729e-05 -4.69763e-06 0)
(4.08899e-05 -4.44344e-06 0)
(4.70183e-05 -4.53034e-06 0)
(5.31026e-05 -4.99915e-06 0)
(5.90879e-05 -5.89452e-06 0)
(6.49104e-05 -7.27139e-06 0)
(7.04852e-05 -9.19483e-06 0)
(7.5694e-05 -1.17305e-05 0)
(8.03759e-05 -1.49209e-05 0)
(8.43357e-05 -1.87429e-05 0)
(8.73829e-05 -2.30553e-05 0)
(8.94127e-05 -2.75667e-05 0)
(1.87574e-06 -6.56403e-06 0)
(5.85392e-06 -7.07204e-06 0)
(1.02745e-05 -6.85729e-06 0)
(1.51059e-05 -6.23188e-06 0)
(2.0294e-05 -5.47923e-06 0)
(2.57636e-05 -4.80088e-06 0)
(3.1432e-05 -4.32377e-06 0)
(3.72192e-05 -4.1243e-06 0)
(4.30533e-05 -4.25141e-06 0)
(4.88692e-05 -4.74351e-06 0)
(5.46037e-05 -5.63874e-06 0)
(6.01879e-05 -6.97917e-06 0)
(6.55388e-05 -8.80862e-06 0)
(7.05515e-05 -1.11624e-05 0)
(7.50982e-05 -1.40477e-05 0)
(7.90392e-05 -1.74155e-05 0)
(8.22544e-05 -2.11341e-05 0)
(8.46926e-05 -2.49846e-05 0)
(1.67191e-06 -5.57725e-06 0)
(5.23635e-06 -6.15688e-06 0)
(9.23921e-06 -6.01871e-06 0)
(1.36666e-05 -5.4835e-06 0)
(1.84796e-05 -4.82599e-06 0)
(2.36107e-05 -4.23717e-06 0)
(2.89774e-05 -3.83717e-06 0)
(3.44962e-05 -3.69907e-06 0)
(4.00888e-05 -3.86976e-06 0)
(4.56834e-05 -4.38442e-06 0)
(5.12111e-05 -5.27478e-06 0)
(5.66001e-05 -6.5717e-06 0)
(6.17701e-05 -8.30208e-06 0)
(6.66289e-05 -1.04799e-05 0)
(7.10747e-05 -1.30917e-05 0)
(7.50079e-05 -1.60793e-05 0)
(7.83541e-05 -1.93286e-05 0)
(8.10921e-05 -2.26749e-05 0)
(1.46783e-06 -4.40061e-06 0)
(4.60861e-06 -5.01205e-06 0)
(8.17449e-06 -4.93008e-06 0)
(1.21815e-05 -4.48537e-06 0)
(1.66079e-05 -3.93654e-06 0)
(2.13925e-05 -3.45619e-06 0)
(2.64518e-05 -3.15207e-06 0)
(3.16973e-05 -3.09058e-06 0)
(3.7045e-05 -3.31453e-06 0)
(4.24173e-05 -3.85468e-06 0)
(4.77407e-05 -4.73566e-06 0)
(5.29427e-05 -5.97741e-06 0)
(5.7948e-05 -7.59219e-06 0)
(6.26786e-05 -9.57795e-06 0)
(6.70572e-05 -1.19091e-05 0)
(7.10169e-05 -1.45282e-05 0)
(7.45156e-05 -1.73431e-05 0)
(7.75495e-05 -2.02351e-05 0)
(1.25374e-06 -3.05807e-06 0)
(3.9429e-06 -3.61009e-06 0)
(7.04454e-06 -3.5433e-06 0)
(1.06212e-05 -3.18349e-06 0)
(1.46651e-05 -2.75691e-06 0)
(1.91139e-05 -2.40562e-06 0)
(2.38777e-05 -2.21781e-06 0)
(2.8861e-05 -2.24939e-06 0)
(3.39734e-05 -2.53702e-06 0)
(3.91322e-05 -3.1059e-06 0)
(4.42618e-05 -3.97367e-06 0)
(4.92913e-05 -5.15109e-06 0)
(5.41538e-05 -6.64003e-06 0)
(5.87873e-05 -8.42928e-06 0)
(6.31374e-05 -1.04898e-05 0)
(6.71636e-05 -1.27717e-05 0)
(7.08448e-05 -1.52049e-05 0)
(7.41848e-05 -1.77064e-05 0)
(9.85362e-07 -1.59991e-06 0)
(3.12661e-06 -1.92164e-06 0)
(5.71344e-06 -1.81582e-06 0)
(8.86485e-06 -1.53816e-06 0)
(1.25629e-05 -1.25083e-06 0)
(1.67222e-05 -1.04901e-06 0)
(2.12326e-05 -9.94611e-07 0)
(2.59849e-05 -1.1306e-06 0)
(3.08813e-05 -1.4869e-06 0)
(3.58377e-05 -2.0844e-06 0)
(4.07844e-05 -2.93737e-06 0)
(4.56631e-05 -4.05174e-06 0)
(5.04243e-05 -5.42443e-06 0)
(5.50257e-05 -7.04106e-06 0)
(5.94326e-05 -8.87394e-06 0)
(6.36194e-05 -1.08817e-05 0)
(6.75716e-05 -1.30113e-05 0)
(7.12877e-05 -1.52033e-05 0)
(5.05646e-07 4.68975e-09 0)
(1.74295e-06 1.19357e-07 0)
(3.61377e-06 2.8155e-07 0)
(6.2689e-06 4.49881e-07 0)
(9.59983e-06 5.77598e-07 0)
(1.3457e-05 6.16009e-07 0)
(1.771e-05 5.2312e-07 0)
(2.22512e-05 2.6715e-07 0)
(2.69886e-05 -1.73896e-07 0)
(3.18543e-05 -8.23405e-07 0)
(3.68151e-05 -1.72571e-06 0)
(4.18267e-05 -2.83945e-06 0)
(4.68219e-05 -4.1596e-06 0)
(5.17436e-05 -5.67071e-06 0)
(5.65445e-05 -7.34727e-06 0)
(6.1187e-05 -9.15476e-06 0)
(6.56447e-05 -1.10522e-05 0)
(6.99021e-05 -1.29957e-05 0)
(1.18507e-06 1.92564e-06 0)
(3.63016e-06 2.61095e-06 0)
(6.31867e-06 2.92583e-06 0)
(9.39095e-06 3.02459e-06 0)
(1.28999e-05 2.98435e-06 0)
(1.6829e-05 2.82008e-06 0)
(2.11197e-05 2.52382e-06 0)
(2.56973e-05 2.08389e-06 0)
(3.04852e-05 1.49132e-06 0)
(3.5401e-05 7.32001e-07 0)
(4.03455e-05 -2.29153e-07 0)
(4.52716e-05 -1.38519e-06 0)
(5.01935e-05 -2.74854e-06 0)
(5.50898e-05 -4.23578e-06 0)
(5.99087e-05 -5.82581e-06 0)
(6.46092e-05 -7.49213e-06 0)
(6.91613e-05 -9.20516e-06 0)
(7.35455e-05 -1.09347e-05 0)
(1.66832e-06 4.59387e-06 0)
(5.12148e-06 5.66984e-06 0)
(8.81333e-06 6.16878e-06 0)
(1.27623e-05 6.25428e-06 0)
(1.69862e-05 6.05856e-06 0)
(2.14822e-05 5.6624e-06 0)
(2.62242e-05 5.10917e-06 0)
(3.11686e-05 4.42105e-06 0)
(3.62632e-05 3.60995e-06 0)
(4.14532e-05 2.68334e-06 0)
(4.6686e-05 1.64944e-06 0)
(5.18887e-05 4.76116e-07 0)
(5.69705e-05 -8.44479e-07 0)
(6.19153e-05 -2.30429e-06 0)
(6.67439e-05 -3.824e-06 0)
(7.14401e-05 -5.3682e-06 0)
(7.59863e-05 -6.91858e-06 0)
(8.03717e-05 -8.45698e-06 0)
(1.91626e-06 7.6072e-06 0)
(5.9187e-06 8.68858e-06 0)
(1.02389e-05 9.17633e-06 0)
(1.48416e-05 9.17795e-06 0)
(1.97008e-05 8.82406e-06 0)
(2.4787e-05 8.22028e-06 0)
(3.00623e-05 7.44031e-06 0)
(3.54818e-05 6.53199e-06 0)
(4.09964e-05 5.52568e-06 0)
(4.65575e-05 4.44113e-06 0)
(5.21191e-05 3.29253e-06 0)
(5.76391e-05 2.09081e-06 0)
(6.30803e-05 8.48839e-07 0)
(6.83656e-05 -4.95728e-07 0)
(7.34683e-05 -1.93691e-06 0)
(7.84208e-05 -3.37959e-06 0)
(8.32174e-05 -4.79995e-06 0)
(8.78484e-05 -6.18806e-06 0)
(2.30203e-06 1.02522e-05 0)
(7.07052e-06 1.11313e-05 0)
(1.21482e-05 1.14478e-05 0)
(1.74939e-05 1.12785e-05 0)
(2.30641e-05 1.07442e-05 0)
(2.88148e-05 9.95568e-06 0)
(3.46991e-05 8.9972e-06 0)
(4.06689e-05 7.92745e-06 0)
(4.66762e-05 6.78514e-06 0)
(5.26755e-05 5.59542e-06 0)
(5.86257e-05 4.37508e-06 0)
(6.44906e-05 3.13617e-06 0)
(7.02397e-05 1.88847e-06 0)
(7.58464e-05 6.40713e-07 0)
(8.12506e-05 -6.7606e-07 0)
(8.64388e-05 -2.04389e-06 0)
(9.14431e-05 -3.36985e-06 0)
(9.62604e-05 -4.64888e-06 0)
(2.77929e-06 1.24428e-05 0)
(8.4777e-06 1.30769e-05 0)
(1.44432e-05 1.3172e-05 0)
(2.06389e-05 1.28005e-05 0)
(2.70133e-05 1.20797e-05 0)
(3.35121e-05 1.11214e-05 0)
(4.00816e-05 1.00138e-05 0)
(4.66704e-05 8.81968e-06 0)
(5.32311e-05 7.58092e-06 0)
(5.97212e-05 6.32416e-06 0)
(6.61042e-05 5.06623e-06 0)
(7.23496e-05 3.81802e-06 0)
(7.84328e-05 2.58715e-06 0)
(8.43349e-05 1.37953e-06 0)
(9.00306e-05 1.92312e-07 0)
(9.54849e-05 -1.05996e-06 0)
(0.000100703 -2.2905e-06 0)
(0.00010571 -3.4644e-06 0)
(3.36267e-06 1.40301e-05 0)
(1.01915e-05 1.44272e-05 0)
(1.72188e-05 1.42993e-05 0)
(2.44103e-05 1.37299e-05 0)
(3.17101e-05 1.28389e-05 0)
(3.90581e-05 1.17389e-05 0)
(4.63965e-05 1.05186e-05 0)
(5.36734e-05 9.24107e-06 0)
(6.08438e-05 7.94748e-06 0)
(6.78702e-05 6.6633e-06 0)
(7.47218e-05 5.40352e-06 0)
(8.13751e-05 4.17667e-06 0)
(8.78124e-05 2.9877e-06 0)
(9.40214e-05 1.83964e-06 0)
(9.99944e-05 7.3452e-07 0)
(0.000105703 -3.64422e-07 0)
(0.000111144 -1.49253e-06 0)
(0.000116342 -2.5586e-06 0)
(4.07266e-06 1.49371e-05 0)
(1.22746e-05 1.51253e-05 0)
(2.05799e-05 1.48004e-05 0)
(2.89511e-05 1.40628e-05 0)
(3.73285e-05 1.30375e-05 0)
(4.5649e-05 1.18374e-05 0)
(5.38552e-05 1.05495e-05 0)
(6.18984e-05 9.23431e-06 0)
(6.97397e-05 7.93017e-06 0)
(7.73491e-05 6.65948e-06 0)
(8.4705e-05 5.43417e-06 0)
(9.17923e-05 4.25983e-06 0)
(9.86022e-05 3.13849e-06 0)
(0.00010513 2.07043e-06 0)
(0.000111377 1.05516e-06 0)
(0.000117336 8.77021e-08 0)
(0.000122996 -9.14128e-07 0)
(0.00012837 -1.86744e-06 0)
(4.94045e-06 1.51259e-05 0)
(1.48183e-05 1.5142e-05 0)
(2.46729e-05 1.46626e-05 0)
(3.44561e-05 1.3804e-05 0)
(4.41032e-05 1.26951e-05 0)
(5.35514e-05 1.14477e-05 0)
(6.27483e-05 1.01448e-05 0)
(7.1654e-05 8.84239e-06 0)
(8.02405e-05 7.57425e-06 0)
(8.84898e-05 6.35871e-06 0)
(9.63926e-05 5.20413e-06 0)
(0.000103946 4.11293e-06 0)
(0.000111151 3.08441e-06 0)
(0.000118014 2.11642e-06 0)
(0.000124543 1.2063e-06 0)
(0.00013075 3.51314e-07 0)
(0.000136627 -5.03639e-07 0)
(0.000142185 -1.33907e-06 0)
(6.01607e-06 1.45736e-05 0)
(1.79681e-05 1.44591e-05 0)
(2.97288e-05 1.38787e-05 0)
(4.12299e-05 1.29588e-05 0)
(5.24005e-05 1.18289e-05 0)
(6.31822e-05 1.05961e-05 0)
(7.35338e-05 9.33715e-06 0)
(8.3431e-05 8.10169e-06 0)
(9.28631e-05 6.91798e-06 0)
(0.00010183 5.79982e-06 0)
(0.000110339 4.7519e-06 0)
(0.000118403 3.77378e-06 0)
(0.000126038 2.86246e-06 0)
(0.000133261 2.0139e-06 0)
(0.000140092 1.22391e-06 0)
(0.00014655 4.88526e-07 0)
(0.000152642 -2.19714e-07 0)
(0.000158383 -9.32317e-07 0)
(7.38754e-06 1.32502e-05 0)
(2.198e-05 1.30503e-05 0)
(3.61536e-05 1.24312e-05 0)
(4.98084e-05 1.15209e-05 0)
(6.28663e-05 1.04429e-05 0)
(7.52785e-05 9.29502e-06 0)
(8.70239e-05 8.14518e-06 0)
(9.81029e-05 7.03496e-06 0)
(0.000108531 5.98649e-06 0)
(0.000118335 5.00904e-06 0)
(0.000127544 4.10409e-06 0)
(0.000136193 3.26892e-06 0)
(0.000144314 2.49894e-06 0)
(0.000151942 1.78896e-06 0)
(0.000159108 1.13392e-06 0)
(0.000165843 5.29218e-07 0)
(0.000172168 -3.52244e-08 0)
(0.000178101 -6.17261e-07 0)
(9.23289e-06 1.10854e-05 0)
(2.73726e-05 1.08506e-05 0)
(4.47712e-05 1.02659e-05 0)
(6.1281e-05 9.44886e-06 0)
(7.68154e-05 8.50811e-06 0)
(9.13438e-05 7.52668e-06 0)
(0.000104878 6.55983e-06 0)
(0.000117459 5.63978e-06 0)
(0.000129141 4.78225e-06 0)
(0.000139987 3.99241e-06 0)
(0.000150062 3.26932e-06 0)
(0.000159427 2.60896e-06 0)
(0.000168141 2.00606e-06 0)
(0.000176257 1.45518e-06 0)
(0.000183825 9.51208e-07 0)
(0.000190891 4.89582e-07 0)
(0.000197494 6.62756e-08 0)
(0.000203657 -3.72647e-07 0)
(1.20062e-05 7.89118e-06 0)
(3.54699e-05 7.68243e-06 0)
(5.76887e-05 7.22381e-06 0)
(7.84375e-05 6.60651e-06 0)
(9.76197e-05 5.91167e-06 0)
(0.000115239 5.19928e-06 0)
(0.000131365 4.50777e-06 0)
(0.000146103 3.85836e-06 0)
(0.000159574 3.26035e-06 0)
(0.000171899 2.71568e-06 0)
(0.000183194 2.22225e-06 0)
(0.000193565 1.77602e-06 0)
(0.000203106 1.37237e-06 0)
(0.000211902 1.00672e-06 0)
(0.000220028 6.74899e-07 0)
(0.000227549 3.73228e-07 0)
(0.000234525 9.85003e-08 0)
(0.000240993 -1.84973e-07 0)
(1.76834e-05 3.0077e-06 0)
(5.20427e-05 2.91844e-06 0)
(8.41154e-05 2.73387e-06 0)
(0.000113514 2.49054e-06 0)
(0.000140129 2.22031e-06 0)
(0.000164041 1.94622e-06 0)
(0.000185448 1.68266e-06 0)
(0.000204597 1.43727e-06 0)
(0.000221744 1.2131e-06 0)
(0.000237133 1.01045e-06 0)
(0.000250985 8.2817e-07 0)
(0.000263494 6.64435e-07 0)
(0.000274828 5.17264e-07 0)
(0.000285132 3.84751e-07 0)
(0.000294529 2.6518e-07 0)
(0.000303127 1.57057e-07 0)
(0.000311017 5.90893e-08 0)
(0.000318251 -4.236e-08 0)
(1.39241e-05 -1.097e-05 -1.41619e-31)
(4.18679e-05 -1.09543e-05 1.41087e-31)
(6.997e-05 -1.09278e-05 0)
(9.82065e-05 -1.08904e-05 0)
(0.000126554 -1.08424e-05 0)
(0.000154987 -1.07827e-05 -1.37534e-31)
(0.000183478 -1.07098e-05 0)
(0.000211995 -1.06214e-05 0)
(0.0002405 -1.05154e-05 0)
(0.000268952 -1.039e-05 0)
(0.000297301 -1.02439e-05 1.2889e-31)
(0.000325497 -1.00765e-05 0)
(0.000353481 -9.88788e-06 0)
(0.000381193 -9.67902e-06 0)
(0.000408567 -9.45184e-06 0)
(0.000435536 -9.20925e-06 1.13885e-31)
(0.000462026 -8.95526e-06 0)
(0.000487963 -8.69488e-06 0)
(0.000513268 -8.43398e-06 0)
(0.00053786 -8.17898e-06 0)
(0.000561651 -7.93634e-06 0)
(0.00058455 -7.71216e-06 0)
(0.000606456 -7.51177e-06 0)
(0.000627259 -7.33952e-06 8.74565e-32)
(0.000646838 -7.19873e-06 -8.54057e-32)
(0.000665057 -7.09175e-06 8.38079e-32)
(0.000681766 -7.02013e-06 8.26849e-32)
(0.000696798 -6.98479e-06 0)
(0.000709979 -6.98622e-06 0)
(0.000721129 -7.02454e-06 -8.22773e-32)
(0.000730078 -7.09962e-06 -8.31421e-32)
(0.000736691 -7.21103e-06 0)
(0.000740891 -7.35798e-06 0)
(0.000742703 -7.53918e-06 -8.86742e-32)
(0.000742288 -7.75277e-06 0)
(0.000739974 -7.99647e-06 0)
(0.00073627 -8.26808e-06 9.81709e-32)
(0.000731842 -8.56635e-06 0)
(0.000727464 -8.89236e-06 1.06343e-31)
(0.00072394 -9.25087e-06 2.22038e-31)
(0.000722029 -9.65183e-06 0)
(0.000722393 -1.01116e-05 0)
(0.000725576 -1.0654e-05 0)
(0.000732032 -1.13124e-05 0)
(0.000742187 -1.21328e-05 0)
(0.000756543 -1.31805e-05 3.22846e-31)
(0.000775821 -1.45524e-05 3.57854e-31)
(0.00080121 -1.64024e-05 4.05077e-31)
(0.000834805 -1.89947e-05 0)
(0.00088057 -2.28263e-05 -5.69257e-31)
(0.000946779 -2.89443e-05 0)
(0.00105371 -3.9901e-05 1.00654e-30)
(0.00126784 -6.34685e-05 1.61069e-30)
(0.00203232 -0.000137489 0)
(0.0108512 -0.00193571 0)
(0.0182974 0.00113093 0)
(0.0169197 0.0008266 -2.17666e-29)
(0.0159149 0.000518112 0)
(0.015249 0.000365346 0)
(0.0147572 0.000281608 0)
(0.0143643 0.000230804 0)
(0.0140335 0.000197039 0)
(0.013745 0.000172816 0)
(0.0134877 0.000154336 0)
(0.0132546 0.000139545 0)
(0.0130411 0.000127267 3.59767e-30)
(0.0128442 0.00011679 0)
(0.0126616 0.000107664 0)
(0.0124915 9.95883e-05 -2.86921e-30)
(0.0123326 9.23585e-05 -2.67858e-30)
(0.0121839 8.58268e-05 0)
(0.0120444 7.98843e-05 2.34932e-30)
(0.0119133 7.44479e-05 -2.2057e-30)
(0.0117901 6.94525e-05 0)
(0.0116741 6.48456e-05 1.95184e-30)
(0.0115649 6.05844e-05 0)
(0.0114619 5.66331e-05 0)
(0.0113648 5.29613e-05 -1.63733e-30)
(0.0112732 4.95432e-05 0)
(0.0111867 4.63561e-05 1.46239e-30)
(0.0111051 4.33805e-05 0)
(0.0110281 4.0599e-05 -1.30983e-30)
(0.0109554 3.79964e-05 -1.24083e-30)
(0.0108868 3.55592e-05 -1.17621e-30)
(0.010822 3.32753e-05 -2.23129e-30)
(0.0107609 3.11337e-05 2.11769e-30)
(0.0107032 2.91246e-05 0)
(0.0106488 2.72391e-05 0)
(0.0105975 2.54693e-05 0)
(0.0105491 2.38075e-05 1.72893e-30)
(0.0105034 2.22472e-05 1.64611e-30)
(0.0104604 2.07821e-05 -1.56833e-30)
(0.0104199 1.94064e-05 0)
(0.0103817 1.81147e-05 1.42672e-30)
(0.0103458 1.69021e-05 1.36234e-30)
(0.010312 1.5764e-05 1.3019e-30)
(0.0102802 1.46961e-05 0)
(0.0102503 1.36943e-05 0)
(0.0102222 1.27548e-05 0)
(0.0101958 1.1874e-05 1.09531e-30)
(0.0101711 1.10486e-05 0)
(0.0101478 1.02754e-05 0)
(0.010126 9.55132e-06 -9.71924e-31)
(0.0101056 8.87364e-06 0)
(0.0100864 8.23964e-06 0)
(0.0100685 7.64679e-06 -8.70748e-31)
(0.0100517 7.09269e-06 0)
(0.010036 6.57506e-06 0)
(0.0100213 6.09177e-06 7.88127e-31)
(0.0100076 5.64077e-06 7.64162e-31)
(0.00999474 5.22013e-06 0)
(0.00998277 4.82802e-06 -7.20977e-31)
(0.00997162 4.46273e-06 0)
(0.00996121 4.1226e-06 6.83487e-31)
(0.00995152 3.80609e-06 0)
(0.00994249 3.51173e-06 6.51025e-31)
(0.00993409 3.23815e-06 6.36479e-31)
(0.00992628 2.98401e-06 0)
(0.00991902 2.7481e-06 0)
(0.00991228 2.52924e-06 0)
(0.00990602 2.32631e-06 0)
(0.00990021 2.1383e-06 0)
(0.00989482 1.9642e-06 0)
(0.00988983 1.8031e-06 0)
(0.00988521 1.65412e-06 5.52284e-31)
(0.00988094 1.51645e-06 -5.4496e-31)
(0.00987698 1.38931e-06 0)
(0.00987333 1.27198e-06 0)
(0.00986995 1.16377e-06 0)
(0.00986684 1.06406e-06 0)
(0.00986397 9.72235e-07 -1.03205e-30)
(0.00986132 8.87739e-07 0)
(0.00985888 8.10049e-07 1.0148e-30)
(0.00985664 7.38674e-07 -1.00721e-30)
(0.00985457 6.73155e-07 0)
(0.00985267 6.13067e-07 0)
(0.00985093 5.58013e-07 0)
(0.00984933 5.07625e-07 9.82633e-31)
(0.00984786 4.61561e-07 9.77731e-31)
(0.00984651 4.19507e-07 0)
(0.00984527 3.81174e-07 9.69171e-31)
(0.00984414 3.46298e-07 9.65454e-31)
(0.0098431 3.14639e-07 -9.62088e-31)
(0.00984214 2.85984e-07 0)
(0.00984127 2.60143e-07 0)
(0.00984046 2.36952e-07 -9.53806e-31)
(0.00983972 2.16275e-07 0)
(0.00983904 1.98006e-07 0)
(0.00983841 1.82071e-07 0)
(0.00983782 1.68431e-07 0)
(0.00983727 1.57091e-07 9.45246e-31)
(0.00983675 1.48105e-07 9.44268e-31)
(0.00983625 1.41584e-07 0)
(0.00983576 1.37713e-07 9.43101e-31)
(0.00983528 1.3676e-07 0)
(0.00983479 1.39107e-07 0)
(0.00983428 1.45269e-07 9.43742e-31)
(0.00983373 1.55935e-07 0)
(0.00983314 1.72014e-07 9.46401e-31)
(0.00983246 1.947e-07 0)
(0.00983168 2.25552e-07 0)
(0.00983075 2.66608e-07 9.55954e-31)
(0.00982964 3.20536e-07 0)
(0.00982828 3.9084e-07 9.68565e-31)
(0.00982659 4.82139e-07 0)
(0.00982448 6.00572e-07 0)
(0.00982181 7.54363e-07 0)
(0.00981841 9.54657e-07 -1.02593e-30)
(0.00981404 1.21677e-06 0)
(0.00980841 1.56215e-06 1.0878e-30)
(0.00980107 2.02147e-06 0)
(0.00979143 2.63992e-06 0)
(0.00977864 3.48657e-06 0)
(0.00976145 4.67212e-06 0)
(0.00973791 6.38545e-06 0)
(0.00970489 8.97719e-06 0)
(0.0096568 1.31799e-05 0)
(0.0095823 2.08105e-05 -6.11337e-30)
(0.00945277 3.76945e-05 0)
(0.00916575 9.06376e-05 0)
(5.90678e-06 -2.85845e-05 3.69235e-31)
(1.77569e-05 -2.8522e-05 -3.68008e-31)
(2.9662e-05 -2.84356e-05 0)
(4.16074e-05 -2.83249e-05 7.30215e-31)
(5.35796e-05 -2.81907e-05 0)
(6.55629e-05 -2.80316e-05 -3.61526e-31)
(7.75346e-05 -2.78439e-05 -7.16085e-31)
(8.94613e-05 -2.76227e-05 -7.09803e-31)
(0.000101299 -2.7363e-05 0)
(0.000112993 -2.70606e-05 -6.94163e-31)
(0.000124483 -2.67123e-05 3.43779e-31)
(0.000135701 -2.63164e-05 0)
(0.000146578 -2.58726e-05 0)
(0.000157046 -2.53824e-05 0)
(0.000167043 -2.4849e-05 0)
(0.000176516 -2.42779e-05 3.11701e-31)
(0.000185426 -2.36769e-05 0)
(0.000193759 -2.30561e-05 5.86835e-31)
(0.000201527 -2.24279e-05 0)
(0.000208772 -2.18063e-05 0)
(0.000215568 -2.12064e-05 -5.37992e-31)
(0.000222018 -2.06425e-05 0)
(0.000228242 -2.01283e-05 5.09526e-31)
(0.000234376 -1.96752e-05 2.51529e-31)
(0.000240556 -1.92923e-05 -2.46507e-31)
(0.000246919 -1.89867e-05 2.42482e-31)
(0.000253587 -1.87632e-05 2.39515e-31)
(0.000260672 -1.86251e-05 0)
(0.000268271 -1.85744e-05 0)
(0.00027646 -1.86125e-05 -2.37297e-31)
(0.000285304 -1.87398e-05 -7.09779e-31)
(0.000294853 -1.89567e-05 0)
(0.000305147 -1.92629e-05 0)
(0.000316224 -1.96579e-05 -2.50339e-31)
(0.000328119 -2.01409e-05 0)
(0.000340872 -2.07113e-05 0)
(0.000354532 -2.13697e-05 2.72012e-31)
(0.000369157 -2.21196e-05 0)
(0.000384822 -2.29696e-05 8.6791e-31)
(0.000401613 -2.39365e-05 6.09261e-31)
(0.000419638 -2.50479e-05 0)
(0.00043903 -2.63456e-05 0)
(0.000459955 -2.78887e-05 -1.39837e-30)
(0.000482636 -2.97594e-05 -1.49294e-30)
(0.000507378 -3.2071e-05 -1.61012e-30)
(0.000534616 -3.49844e-05 2.64986e-30)
(0.000565005 -3.87352e-05 9.87942e-31)
(0.000599553 -4.3687e-05 -1.08681e-30)
(0.00063988 -5.04354e-05 2.54702e-30)
(0.00068874 -6.00306e-05 -1.53549e-30)
(0.000751206 -7.45035e-05 0)
(0.00083797 -9.83245e-05 2.52184e-30)
(0.000977991 -0.000143658 1.1025e-29)
(0.00130495 -0.000262895 0)
(0.00467942 -0.00228381 0)
(0.0117602 -0.000810509 0)
(0.0155939 0.0018086 -4.71194e-29)
(0.0153 0.00127533 0)
(0.0149366 0.000974205 -5.17757e-29)
(0.0145812 0.000787564 0)
(0.0142548 0.000663208 -3.56332e-29)
(0.0139591 0.000574988 0)
(0.0136908 0.000508862 2.76004e-29)
(0.0134458 0.000456923 0)
(0.0132208 0.000414541 -2.26798e-29)
(0.013013 0.0003789 3.09191e-29)
(0.0128202 0.000348221 0)
(0.0126407 0.000321336 1.78064e-29)
(0.0124731 0.00029745 -7.98337e-30)
(0.0123162 0.000276003 -7.42528e-30)
(0.0121692 0.000256587 0)
(0.0120311 0.000238896 1.99461e-29)
(0.0119012 0.000222693 -6.03746e-30)
(0.0117791 0.000207792 0)
(0.011664 0.000194041 5.29122e-30)
(0.0115556 0.000181315 1.0465e-29)
(0.0114533 0.00016951 0)
(0.0113569 0.000158536 -4.36619e-30)
(0.0112659 0.000148318 0)
(0.01118 0.000138787 -4.37942e-30)
(0.0110989 0.000129887 0)
(0.0110224 0.000121567 3.92311e-30)
(0.0109501 0.00011378 -3.19967e-30)
(0.0108818 0.000106487 -9.54242e-30)
(0.0108174 9.96515e-05 -1.80095e-29)
(0.0107566 9.32413e-05 1.70009e-29)
(0.0106992 8.72273e-05 0)
(0.0106451 8.15829e-05 0)
(0.010594 7.6284e-05 0)
(0.0105458 7.13086e-05 -5.18044e-30)
(0.0105004 6.66366e-05 3.94084e-30)
(0.0104576 6.22492e-05 -3.712e-30)
(0.0104173 5.81294e-05 0)
(0.0103793 5.42612e-05 1.08662e-29)
(0.0103436 5.06297e-05 3.1059e-30)
(0.0103099 4.72212e-05 2.9281e-30)
(0.0102783 4.40227e-05 0)
(0.0102485 4.10222e-05 0)
(0.0102205 3.82081e-05 0)
(0.0101943 3.557e-05 2.32028e-30)
(0.0101696 3.30976e-05 0)
(0.0101465 3.07815e-05 5.09912e-30)
(0.0101247 2.86127e-05 2.91346e-30)
(0.0101044 2.65827e-05 -4.65705e-30)
(0.0100853 2.46836e-05 0)
(0.0100675 2.29077e-05 -5.92975e-30)
(0.0100507 2.12479e-05 0)
(0.0100351 1.96973e-05 -3.93202e-30)
(0.0100205 1.82496e-05 5.19619e-30)
(0.0100068 1.68985e-05 4.98344e-30)
(0.00999406 1.56384e-05 0)
(0.00998215 1.44638e-05 2.16179e-30)
(0.00997104 1.33695e-05 -3.26564e-30)
(0.00996068 1.23506e-05 1.10884e-30)
(0.00995103 1.14025e-05 0)
(0.00994204 1.05207e-05 1.01336e-30)
(0.00993368 9.70106e-06 -1.9087e-30)
(0.0099259 8.93975e-06 0)
(0.00991867 8.23301e-06 -2.72465e-30)
(0.00991195 7.57734e-06 -2.65559e-30)
(0.00990572 6.96943e-06 -2.59156e-30)
(0.00989993 6.40617e-06 0)
(0.00989457 5.88461e-06 0)
(0.0098896 5.40198e-06 0)
(0.009885 4.95567e-06 3.10239e-30)
(0.00988074 4.54323e-06 -7.01431e-31)
(0.00987681 4.16234e-06 0)
(0.00987317 3.81083e-06 2.25881e-30)
(0.00986981 3.48666e-06 2.22466e-30)
(0.00986671 3.18792e-06 0)
(0.00986385 2.91283e-06 -1.23269e-30)
(0.00986121 2.65969e-06 4.27507e-30)
(0.00985878 2.42693e-06 1.18197e-30)
(0.00985654 2.21309e-06 -5.3406e-30)
(0.00985449 2.0168e-06 0)
(0.0098526 1.83678e-06 0)
(0.00985086 1.67184e-06 0)
(0.00984926 1.52087e-06 1.08739e-30)
(0.0098478 1.38286e-06 5.07894e-30)
(0.00984646 1.25686e-06 3.97939e-30)
(0.00984523 1.14201e-06 1.04784e-30)
(0.0098441 1.03752e-06 4.97006e-30)
(0.00984306 9.42657e-07 -1.02702e-30)
(0.00984211 8.56795e-07 0)
(0.00984124 7.7936e-07 0)
(0.00984044 7.09863e-07 -4.86671e-30)
(0.0098397 6.47896e-07 0)
(0.00983902 5.93137e-07 0)
(0.00983839 5.45365e-07 3.82921e-30)
(0.00983781 5.04464e-07 0)
(0.00983726 4.70446e-07 4.79093e-30)
(0.00983674 4.43468e-07 9.74807e-31)
(0.00983624 4.23865e-07 0)
(0.00983576 4.12181e-07 4.77216e-30)
(0.00983528 4.09225e-07 0)
(0.00983479 4.16128e-07 0)
(0.00983429 4.34429e-07 9.73641e-31)
(0.00983375 4.66184e-07 3.81109e-30)
(0.00983316 5.14106e-07 9.81775e-31)
(0.00983249 5.81753e-07 0)
(0.00983172 6.7378e-07 0)
(0.0098308 7.96267e-07 4.88895e-30)
(0.0098297 9.57172e-07 0)
(0.00982836 1.16694e-06 5.00278e-30)
(0.0098267 1.43934e-06 0)
(0.00982462 1.79266e-06 0)
(0.00982199 2.2514e-06 0)
(0.00981864 2.84873e-06 -1.22179e-30)
(0.00981435 3.63017e-06 0)
(0.00980881 4.65938e-06 1.40808e-30)
(0.0098016 6.02729e-06 0)
(0.00979214 7.86751e-06 0)
(0.00977962 1.03835e-05 5.8415e-30)
(0.00976282 1.38999e-05 -6.56231e-30)
(0.00973993 1.8966e-05 0)
(0.00970805 2.65887e-05 0)
(0.00966224 3.88231e-05 0)
(0.00959344 6.05325e-05 1.79537e-29)
(0.00948414 0.000105821 0)
(0.00931171 0.000227829 -1.01263e-28)
(4.61773e-06 -4.05385e-05 2.09524e-30)
(1.38788e-05 -4.0429e-05 -3.29839e-34)
(2.31791e-05 -4.02931e-05 0)
(3.25116e-05 -4.01292e-05 7.69731e-34)
(4.187e-05 -3.99392e-05 0)
(5.12477e-05 -3.97232e-05 0)
(6.06328e-05 -3.94791e-05 -2.03386e-30)
(7.00049e-05 -3.92033e-05 -1.01007e-30)
(7.93349e-05 -3.88917e-05 9.99704e-31)
(8.85856e-05 -3.85411e-05 -9.9208e-31)
(9.7714e-05 -3.81492e-05 0)
(0.000106673 -3.77147e-05 0)
(0.000115414 -3.72377e-05 -9.54393e-31)
(0.000123888 -3.67193e-05 -1.88079e-30)
(0.000132048 -3.61622e-05 1.85083e-30)
(0.000139855 -3.55706e-05 0)
(0.00014728 -3.49502e-05 1.78601e-30)
(0.000154313 -3.43087e-05 8.79571e-31)
(0.000160963 -3.36555e-05 0)
(0.000167269 -3.30018e-05 1.68245e-30)
(0.000173295 -3.23596e-05 -8.28291e-31)
(0.000179131 -3.17416e-05 -1.61562e-30)
(0.000184886 -3.11604e-05 7.96746e-31)
(0.000190681 -3.06278e-05 0)
(0.000196642 -3.01545e-05 1.53109e-30)
(0.000202888 -2.97501e-05 1.5093e-30)
(0.00020953 -2.9423e-05 0)
(0.000216663 -2.91803e-05 1.47789e-30)
(0.000224366 -2.90283e-05 0)
(0.000232706 -2.89725e-05 1.46488e-30)
(0.000241733 -2.90179e-05 -7.3868e-31)
(0.000251484 -2.91692e-05 0)
(0.000261991 -2.94312e-05 0)
(0.000273276 -2.98088e-05 0)
(0.000285361 -3.0308e-05 0)
(0.000298268 -3.09365e-05 0)
(0.00031202 -3.17047e-05 0)
(0.000326648 -3.26273e-05 1.64051e-30)
(0.000342187 -3.37255e-05 -8.39464e-31)
(0.000358689 -3.50293e-05 0)
(0.000376215 -3.65803e-05 0)
(0.000394853 -3.84359e-05 0)
(0.00041472 -4.06738e-05 -4.10765e-30)
(0.00043598 -4.33993e-05 -2.20251e-30)
(0.000458866 -4.67559e-05 -2.16721e-32)
(0.000483712 -5.09429e-05 2.28456e-32)
(0.00051101 -5.6244e-05 -2.83535e-30)
(0.000541492 -6.30757e-05 -3.20979e-30)
(0.00057629 -7.2073e-05 7.31609e-30)
(0.000617226 -8.42478e-05 4.26806e-30)
(0.000667494 -0.000101308 0)
(0.000733516 -0.000126395 6.43056e-30)
(0.000831567 -0.000166293 1.69979e-29)
(0.00102345 -0.000242066 0)
(0.00195702 -0.000543188 0)
(0.00866295 -0.00485923 -2.49988e-28)
(0.0147281 0.00175826 0)
(0.0148066 0.00161921 0)
(0.0146054 0.00138021 -2.19583e-28)
(0.0143507 0.00118481 -1.26572e-28)
(0.0140891 0.00103345 -5.47587e-29)
(0.0138356 0.000915449 0)
(0.0135951 0.000821148 4.37362e-29)
(0.013369 0.000743704 0)
(0.0131573 0.000678521 -1.10206e-28)
(0.0129592 0.00062252 3.34073e-29)
(0.0127738 0.000573595 6.29271e-29)
(0.0126 0.000530277 8.70034e-29)
(0.012437 0.000491511 0)
(0.012284 0.000456522 -5.06833e-29)
(0.0121401 0.000424727 0)