/*--------------------------------*- C++ -*----------------------------------*\
  =========                 |
  \\      /  F ield         | OpenFOAM: The Open Source CFD Toolbox
   \\    /   O peration     | Website:  https://openfoam.org
    \\  /    A nd           | Version:  10
     \\/     M anipulation  |
\*---------------------------------------------------------------------------*/
FoamFile
{
    format      ascii;
    class       volSymmTensorField;
    location    "0.019";
    object      UPrime2Mean;
}
// * * * * * * * * * * * * * * * * * * * * * * * * * * * * * * * * * * * * * //

dimensions      [0 2 -2 0 0 0 0];

internalField   nonuniform List<symmTensor> 
12225
(
(0.0741389 0.00228311 0 0.00235084 0 0)
(0.0170753 8.88202e-05 0 0.00114557 0 0)
(0.0267211 -0.00101729 0 0.00086027 0 0)
(0.0315289 -0.00149792 0 0.000739001 0 0)
(0.0473384 -0.00226874 0 0.000676254 0 0)
(0.0797838 -0.00342779 0 0.000648272 0 0)
(0.129413 -0.00500394 0 0.000624111 0 0)
(0.195604 -0.00636706 0 0.0005238 0 0)
(0.283684 -0.00968222 0 0.000676587 0 0)
(0.394671 -0.00972772 0 0.000503334 0 0)
(0.549619 -0.0197524 0 0.00101789 0 0)
(0.73188 -0.0116786 0 0.000549854 0 0)
(1.01747 -0.0462744 0 0.00264078 0 0)
(1.31799 -0.00204361 0 0.00143138 0 0)
(1.89892 -0.133571 0 0.0126284 0 0)
(2.50451 0.0629789 0 0.0111889 0 0)
(3.98772 -0.552498 0 0.113052 0 0)
(6.23361 0.184743 0 0.0471436 0 0)
(0.0664384 0.000496685 0 0.00242035 0 0)
(0.0145764 -2.42328e-06 0 0.00125435 0 0)
(0.0171685 -0.000695336 0 0.00082926 0 0)
(0.0147727 -0.000648574 0 0.00075774 0 0)
(0.0140762 -0.000819498 0 0.000804785 0 0)
(0.015883 -0.00167182 0 0.000957221 0 0)
(0.0201624 -0.00281094 0 0.00109759 0 0)
(0.0288859 -0.00484634 0 0.00146502 0 0)
(0.0417405 -0.00672473 0 0.00158367 0 0)
(0.0651367 -0.0112704 0 0.00251606 0 0)
(0.0938154 -0.013809 0 0.00248323 0 0)
(0.150679 -0.0254899 0 0.0049105 0 0)
(0.211336 -0.0278804 0 0.00442886 0 0)
(0.354002 -0.0613965 0 0.0117267 0 0)
(0.484737 -0.0619789 0 0.0100788 0 0)
(0.887338 -0.178721 0 0.039693 0 0)
(1.2179 -0.234938 0 0.0481517 0 0)
(2.34457 -0.830045 0 0.332278 0 0)
(0.0839799 0.00096952 0 0.00334883 0 0)
(0.0178853 0.000201618 0 0.00161005 0 0)
(0.0156072 -0.000695724 0 0.00114023 0 0)
(0.0128522 -0.000876096 0 0.00102669 0 0)
(0.0131632 -0.00105174 0 0.00110394 0 0)
(0.0150591 -0.00154042 0 0.00127618 0 0)
(0.0183634 -0.00263911 0 0.00160696 0 0)
(0.0236401 -0.00421272 0 0.00187891 0 0)
(0.0323522 -0.0069632 0 0.00269901 0 0)
(0.045174 -0.00973272 0 0.0031428 0 0)
(0.066014 -0.0163379 0 0.00526567 0 0)
(0.0952216 -0.0213405 0 0.0059315 0 0)
(0.144268 -0.0390465 0 0.0118595 0 0)
(0.212634 -0.0492653 0 0.0129233 0 0)
(0.334525 -0.103176 0 0.0337168 0 0)
(0.508311 -0.145584 0 0.0435754 0 0)
(0.798821 -0.338922 0 0.154086 0 0)
(1.16087 -0.654471 0 0.403741 0 0)
(0.0736102 0.000644362 0 0.00336347 0 0)
(0.0163983 3.43273e-05 0 0.00190278 0 0)
(0.0179028 -0.00111112 0 0.00136149 0 0)
(0.0152958 -0.00136997 0 0.00127553 0 0)
(0.0152403 -0.00174326 0 0.00145653 0 0)
(0.0175989 -0.00278903 0 0.00184104 0 0)
(0.0220335 -0.00444445 0 0.00234612 0 0)
(0.0287467 -0.00688177 0 0.00317467 0 0)
(0.0382966 -0.00997771 0 0.0041095 0 0)
(0.0525129 -0.0149293 0 0.00585095 0 0)
(0.072988 -0.0213425 0 0.00781893 0 0)
(0.104108 -0.03254 0 0.0118137 0 0)
(0.149311 -0.0476252 0 0.0168339 0 0)
(0.218166 -0.075465 0 0.0277621 0 0)
(0.320342 -0.119065 0 0.0460758 0 0)
(0.468522 -0.200811 0 0.0891534 0 0)
(0.673128 -0.358458 0 0.200116 0 0)
(0.885802 -0.594975 0 0.431886 0 0)
(0.0778198 0.00292858 0 0.00409256 0 0)
(0.0184348 0.000853051 0 0.00224884 0 0)
(0.0185451 -0.000440857 0 0.00180113 0 0)
(0.0148689 -0.000760089 0 0.00176254 0 0)
(0.0140912 -0.00114945 0 0.00201117 0 0)
(0.0157057 -0.00222764 0 0.00251605 0 0)
(0.0191726 -0.00418902 0 0.00329038 0 0)
(0.0248429 -0.00699447 0 0.00427311 0 0)
(0.0338171 -0.0110246 0 0.00586097 0 0)
(0.0474532 -0.0164532 0 0.00796308 0 0)
(0.0676058 -0.0249084 0 0.0115465 0 0)
(0.0967708 -0.036909 0 0.0165765 0 0)
(0.139175 -0.056563 0 0.0256283 0 0)
(0.199685 -0.0864033 0 0.0402178 0 0)
(0.286514 -0.136654 0 0.0687065 0 0)
(0.401287 -0.220995 0 0.126948 0 0)
(0.544251 -0.354244 0 0.242405 0 0)
(0.669154 -0.55281 0 0.506752 0 0)
(0.0717362 0.000281553 0 0.00491337 0 0)
(0.0135992 -6.21036e-05 0 0.00341069 0 0)
(0.0154852 -0.00167661 0 0.00235812 0 0)
(0.0122322 -0.00201343 0 0.00221443 0 0)
(0.0114941 -0.00244399 0 0.00254091 0 0)
(0.0136536 -0.00373043 0 0.00327291 0 0)
(0.0180408 -0.00602545 0 0.00439704 0 0)
(0.0244878 -0.00939642 0 0.00601142 0 0)
(0.0337118 -0.0141361 0 0.00828303 0 0)
(0.0469634 -0.0208227 0 0.0115543 0 0)
(0.0659993 -0.0305192 0 0.0164678 0 0)
(0.0926802 -0.0447493 0 0.0240499 0 0)
(0.130386 -0.0665069 0 0.0364536 0 0)
(0.181794 -0.0995048 0 0.0571537 0 0)
(0.251845 -0.151638 0 0.0946027 0 0)
(0.337229 -0.230462 0 0.163094 0 0)
(0.432848 -0.346466 0 0.292231 0 0)
(0.507488 -0.49311 0 0.527125 0 0)
(0.0744442 0.00211488 0 0.00428167 0 0)
(0.0163594 0.000798238 0 0.0037254 0 0)
(0.0186319 -5.27018e-05 0 0.00312418 0 0)
(0.0151318 -0.000270743 0 0.00316737 0 0)
(0.0136121 -0.000848988 0 0.00367427 0 0)
(0.0145362 -0.00228416 0 0.00463374 0 0)
(0.0175329 -0.00473421 0 0.00611458 0 0)
(0.0224764 -0.00827248 0 0.00821799 0 0)
(0.0298206 -0.0132033 0 0.0111985 0 0)
(0.0404475 -0.0201502 0 0.0155249 0 0)
(0.0557801 -0.0302289 0 0.0219826 0 0)
(0.0773896 -0.045088 0 0.0320566 0 0)
(0.10756 -0.0671817 0 0.0479931 0 0)
(0.147402 -0.10017 0 0.0745366 0 0)
(0.198565 -0.148678 0 0.118832 0 0)
(0.256213 -0.217897 0 0.196198 0 0)
(0.314669 -0.309253 0 0.324452 0 0)
(0.354134 -0.41208 0 0.532868 0 0)
(0.0746913 0.00225419 0 0.00593919 0 0)
(0.0111373 5.31671e-05 0 0.00370437 0 0)
(0.0127092 -0.00144735 0 0.00307123 0 0)
(0.0107783 -0.00162863 0 0.0035328 0 0)
(0.0107311 -0.00221003 0 0.00439149 0 0)
(0.012589 -0.00386739 0 0.005717 0 0)
(0.0159419 -0.00667021 0 0.00768464 0 0)
(0.020696 -0.0105936 0 0.0104778 0 0)
(0.0273483 -0.015927 0 0.0144335 0 0)
(0.0367472 -0.0233541 0 0.0201399 0 0)
(0.0500967 -0.0340173 0 0.0285628 0 0)
(0.0684112 -0.0493771 0 0.0413833 0 0)
(0.0930042 -0.0715346 0 0.0611828 0 0)
(0.123707 -0.10302 0 0.0927468 0 0)
(0.160515 -0.146802 0 0.142863 0 0)
(0.198289 -0.204492 0 0.223846 0 0)
(0.23273 -0.274291 0 0.347577 0 0)
(0.25105 -0.3451 0 0.532548 0 0)
(0.0824414 0.00153883 0 0.00554661 0 0)
(0.0222333 -0.000754282 0 0.00441949 0 0)
(0.0232653 -0.00277913 0 0.00398777 0 0)
(0.0198091 -0.00320709 0 0.00436039 0 0)
(0.0190102 -0.00379384 0 0.00532164 0 0)
(0.0207349 -0.00548495 0 0.00689899 0 0)
(0.0241964 -0.00846182 0 0.00928335 0 0)
(0.0290702 -0.0127495 0 0.0127423 0 0)
(0.0356899 -0.0186526 0 0.0176599 0 0)
(0.0446669 -0.0267897 0 0.0247219 0 0)
(0.0567956 -0.0381102 0 0.0349937 0 0)
(0.0724911 -0.0538473 0 0.0503672 0 0)
(0.0923485 -0.0756259 0 0.0735034 0 0)
(0.115534 -0.10508 0 0.109037 0 0)
(0.141496 -0.14368 0 0.162748 0 0)
(0.165747 -0.190816 0 0.244126 0 0)
(0.185745 -0.243558 0 0.360494 0 0)
(0.193541 -0.291796 0 0.522223 0 0)
(0.0803481 0.00514429 0 0.00633558 0 0)
(0.0165645 -0.00118266 0 0.00465972 0 0)
(0.0166911 -0.00283788 0 0.0047405 0 0)
(0.0138119 -0.00271304 0 0.00552617 0 0)
(0.0131068 -0.00314613 0 0.00673582 0 0)
(0.0144986 -0.00497923 0 0.00866279 0 0)
(0.0176979 -0.00822343 0 0.0116181 0 0)
(0.0223607 -0.0127392 0 0.0159173 0 0)
(0.0284702 -0.018719 0 0.0219681 0 0)
(0.0362487 -0.02669 0 0.0304852 0 0)
(0.046145 -0.0375119 0 0.0425911 0 0)
(0.0583706 -0.0522173 0 0.060256 0 0)
(0.0731289 -0.0719809 0 0.0860841 0 0)
(0.0894123 -0.0976043 0 0.124274 0 0)
(0.106249 -0.129424 0 0.179396 0 0)
(0.1203 -0.165648 0 0.25848 0 0)
(0.12997 -0.203067 0 0.365313 0 0)
(0.131274 -0.233356 0 0.506057 0 0)
(0.0699988 0.00330461 0 0.00763945 0 0)
(0.0146626 -0.00215806 0 0.00694339 0 0)
(0.0160703 -0.00497098 0 0.00602592 0 0)
(0.0131614 -0.00512965 0 0.00640556 0 0)
(0.0122736 -0.00551547 0 0.0078859 0 0)
(0.0134601 -0.00739454 0 0.0103675 0 0)
(0.0162594 -0.0107794 0 0.013985 0 0)
(0.0201764 -0.0154111 0 0.0190564 0 0)
(0.0250606 -0.0213442 0 0.026029 0 0)
(0.0310661 -0.0290476 0 0.035736 0 0)
(0.0386252 -0.0393137 0 0.0494414 0 0)
(0.0478895 -0.0529445 0 0.0690979 0 0)
(0.0587755 -0.0706034 0 0.0970481 0 0)
(0.0701728 -0.0923759 0 0.136777 0 0)
(0.0810086 -0.117757 0 0.191623 0 0)
(0.0888681 -0.144526 0 0.266494 0 0)
(0.0929004 -0.169613 0 0.362868 0 0)
(0.091293 -0.186797 0 0.484457 0 0)
(0.0790458 0.00445126 0 0.00699131 0 0)
(0.0167808 -0.00134477 0 0.00767184 0 0)
(0.0170697 -0.00353067 0 0.0070239 0 0)
(0.0131629 -0.00327264 0 0.00725491 0 0)
(0.0114063 -0.0034451 0 0.00879261 0 0)
(0.0121943 -0.0051114 0 0.011647 0 0)
(0.0143927 -0.00813147 0 0.0158729 0 0)
(0.016891 -0.0121026 0 0.0217209 0 0)
(0.0196314 -0.0170575 0 0.0296768 0 0)
(0.0230764 -0.0234784 0 0.0406373 0 0)
(0.0276498 -0.0320426 0 0.0558365 0 0)
(0.0333081 -0.0432039 0 0.0770514 0 0)
(0.039779 -0.0572014 0 0.10628 0 0)
(0.0460044 -0.0735771 0 0.146362 0 0)
(0.0513137 -0.0914926 0 0.199597 0 0)
(0.0540778 -0.108572 0 0.269425 0 0)
(0.0542565 -0.122419 0 0.355903 0 0)
(0.0513325 -0.128093 0 0.461551 0 0)
(0.0703077 0.00299278 0 0.00766083 0 0)
(0.0155912 -0.00389185 0 0.00735345 0 0)
(0.0170804 -0.00584162 0 0.0067571 0 0)
(0.0142822 -0.00552297 0 0.00773689 0 0)
(0.0136469 -0.00586424 0 0.0100363 0 0)
(0.0148287 -0.00770495 0 0.013404 0 0)
(0.0168255 -0.0106936 0 0.018004 0 0)
(0.0189632 -0.0145316 0 0.0243046 0 0)
(0.0212187 -0.0193499 0 0.0329628 0 0)
(0.0238419 -0.025501 0 0.044894 0 0)
(0.0270515 -0.0333576 0 0.0611926 0 0)
(0.0307342 -0.0430197 0 0.083371 0 0)
(0.0346216 -0.0543898 0 0.113016 0 0)
(0.0379641 -0.0667513 0 0.152349 0 0)
(0.0402247 -0.0791589 0 0.202878 0 0)
(0.0406853 -0.089528 0 0.267023 0 0)
(0.0394264 -0.0960753 0 0.344089 0 0)
(0.0367736 -0.0950113 0 0.435934 0 0)
(0.0739892 0.00379996 0 0.00863115 0 0)
(0.0157413 -0.00102132 0 0.00794434 0 0)
(0.0161484 -0.00293371 0 0.00767036 0 0)
(0.0132959 -0.00213608 0 0.00893318 0 0)
(0.0119464 -0.00174944 0 0.0113347 0 0)
(0.0116987 -0.00272645 0 0.0150881 0 0)
(0.012143 -0.00486585 0 0.0204037 0 0)
(0.0129917 -0.00771764 0 0.0275694 0 0)
(0.0141256 -0.0111466 0 0.0370907 0 0)
(0.0154712 -0.0152998 0 0.0497869 0 0)
(0.01699 -0.0204426 0 0.066662 0 0)
(0.0184976 -0.0265735 0 0.0890532 0 0)
(0.0198134 -0.0334771 0 0.118209 0 0)
(0.020521 -0.0403074 0 0.155813 0 0)
(0.020484 -0.0461418 0 0.202658 0 0)
(0.0195342 -0.0491013 0 0.26033 0 0)
(0.0180778 -0.0480431 0 0.327496 0 0)
(0.0169004 -0.0399887 0 0.405568 0 0)
(0.0768821 0.00498061 0 0.00974225 0 0)
(0.0153833 -0.00121515 0 0.00894599 0 0)
(0.0161335 -0.0044007 0 0.00811632 0 0)
(0.0143327 -0.00409053 0 0.00970741 0 0)
(0.0139612 -0.00394711 0 0.01286 0 0)
(0.0139058 -0.00515417 0 0.0172486 0 0)
(0.0138706 -0.00741249 0 0.0230012 0 0)
(0.0138874 -0.0101137 0 0.0305425 0 0)
(0.0140671 -0.013063 0 0.0405243 0 0)
(0.0144691 -0.016372 0 0.0537512 0 0)
(0.0151042 -0.0201648 0 0.0710027 0 0)
(0.0158363 -0.0242219 0 0.0932266 0 0)
(0.0165004 -0.0281418 0 0.121172 0 0)
(0.0167624 -0.0310421 0 0.155914 0 0)
(0.016572 -0.0322141 0 0.197627 0 0)
(0.0160383 -0.0301478 0 0.247313 0 0)
(0.0157036 -0.02431 0 0.303419 0 0)
(0.0164632 -0.0123882 0 0.36723 0 0)
(0.0761823 0.0063521 0 0.0117642 0 0)
(0.0135109 -6.87099e-05 0 0.0132659 0 0)
(0.0129012 -0.00304522 0 0.0127817 0 0)
(0.00987349 -0.00216684 0 0.01392 0 0)
(0.00865731 -0.00114972 0 0.0168225 0 0)
(0.00808723 -0.00126622 0 0.0211439 0 0)
(0.00775267 -0.00233948 0 0.0268685 0 0)
(0.00758073 -0.00388405 0 0.0342841 0 0)
(0.00756291 -0.0055516 0 0.0439205 0 0)
(0.00763061 -0.007109 0 0.0565195 0 0)
(0.00766951 -0.00840208 0 0.0727708 0 0)
(0.00757918 -0.00909937 0 0.0933634 0 0)
(0.00738497 -0.00882941 0 0.118678 0 0)
(0.00720307 -0.00686853 0 0.149303 0 0)
(0.0072641 -0.00278359 0 0.184977 0 0)
(0.00800153 0.00446042 0 0.22623 0 0)
(0.00980124 0.0149526 0 0.271384 0 0)
(0.0136583 0.0303307 0 0.32145 0 0)
(0.0769824 0.0046746 0 0.0131506 0 0)
(0.0205318 -0.00248464 0 0.0135668 0 0)
(0.0204491 -0.00545513 0 0.0113602 0 0)
(0.0166335 -0.00480542 0 0.0120625 0 0)
(0.0147031 -0.0039742 0 0.0152097 0 0)
(0.0135533 -0.00412334 0 0.0201362 0 0)
(0.0126292 -0.00495627 0 0.0265529 0 0)
(0.0118926 -0.00578091 0 0.0345074 0 0)
(0.0113986 -0.00617574 0 0.0442876 0 0)
(0.0110878 -0.00600729 0 0.056415 0 0)
(0.010867 -0.00524425 0 0.0713898 0 0)
(0.0107702 -0.00363887 0 0.0896909 0 0)
(0.0109555 -0.000872327 0 0.111432 0 0)
(0.0116763 0.0036807 0 0.136861 0 0)
(0.0131772 0.0103294 0 0.165469 0 0)
(0.0159198 0.0198624 0 0.19756 0 0)
(0.020076 0.0320531 0 0.231623 0 0)
(0.0265488 0.0481178 0 0.268753 0 0)
(0.0780123 0.00536633 0 0.0131833 0 0)
(0.0150885 -0.00252528 0 0.0145694 0 0)
(0.0156781 -0.00636965 0 0.0136334 0 0)
(0.0137295 -0.00553199 0 0.0144949 0 0)
(0.0127573 -0.00433632 0 0.0172235 0 0)
(0.011674 -0.00386015 0 0.0212398 0 0)
(0.0104944 -0.0038408 0 0.0262273 0 0)
(0.00965948 -0.0037371 0 0.0323595 0 0)
(0.00939644 -0.00313512 0 0.0400906 0 0)
(0.00958218 -0.00180022 0 0.04989 0 0)
(0.0100395 0.000459427 0 0.0619798 0 0)
(0.0108063 0.00393877 0 0.0764598 0 0)
(0.012056 0.00892288 0 0.0931865 0 0)
(0.0141337 0.0157838 0 0.112207 0 0)
(0.017261 0.0246269 0 0.133066 0 0)
(0.0219751 0.035783 0 0.155986 0 0)
(0.0283018 0.0489853 0 0.179888 0 0)
(0.0370672 0.0647794 0 0.205544 0 0)
(0.0781983 0.00523931 0 0.0130886 0 0)
(0.0186438 -0.00052579 0 0.0138272 0 0)
(0.0192194 -0.00304725 0 0.0113791 0 0)
(0.0141755 -0.00219063 0 0.0115802 0 0)
(0.011613 -0.000661919 0 0.0137492 0 0)
(0.0104667 0.000485701 0 0.0170869 0 0)
(0.0100441 0.00150563 0 0.0215344 0 0)
(0.0103309 0.00302669 0 0.0270955 0 0)
(0.0113139 0.00543082 0 0.0337163 0 0)
(0.0127988 0.00882208 0 0.0414288 0 0)
(0.0146593 0.0131997 0 0.0503015 0 0)
(0.0170838 0.0186631 0 0.0604553 0 0)
(0.0203747 0.0253232 0 0.0718665 0 0)
(0.024914 0.0333945 0 0.0846072 0 0)
(0.0308758 0.0428752 0 0.0983613 0 0)
(0.0386499 0.0539687 0 0.113275 0 0)
(0.0481558 0.0663852 0 0.128589 0 0)
(0.0599861 0.0805195 0 0.144808 0 0)
(0.0748206 0.00591051 0 0.0115604 0 0)
(0.0145403 -0.00194006 0 0.0125147 0 0)
(0.0121617 -0.0044616 0 0.0109127 0 0)
(0.00879422 -0.00282526 0 0.010576 0 0)
(0.00818179 -0.000588382 0 0.0116889 0 0)
(0.00807071 0.00102229 0 0.0139091 0 0)
(0.0079266 0.00224498 0 0.0170123 0 0)
(0.00819947 0.00381172 0 0.0208218 0 0)
(0.00924428 0.00624808 0 0.0252718 0 0)
(0.011109 0.00967854 0 0.030422 0 0)
(0.0137792 0.0140271 0 0.036333 0 0)
(0.0173844 0.0192688 0 0.0430548 0 0)
(0.0221218 0.0254225 0 0.0505137 0 0)
(0.0282387 0.0326081 0 0.0586828 0 0)
(0.0358502 0.0408143 0 0.0672952 0 0)
(0.0452127 0.0501673 0 0.0764113 0 0)
(0.0562376 0.0604264 0 0.0855445 0 0)
(0.0692713 0.071847 0 0.0950312 0 0)
(0.0693841 0.00428079 0 0.0106861 0 0)
(0.0139738 0.000567762 0 0.0104875 0 0)
(0.0133232 -0.000919558 0 0.00873183 0 0)
(0.0095022 0.000238113 0 0.00826507 0 0)
(0.00858054 0.00163528 0 0.0087978 0 0)
(0.00886713 0.00285126 0 0.0102286 0 0)
(0.00953373 0.00414564 0 0.0123881 0 0)
(0.010588 0.00589023 0 0.0150937 0 0)
(0.0122373 0.00834228 0 0.0182662 0 0)
(0.0145929 0.0115611 0 0.0218929 0 0)
(0.0177714 0.015499 0 0.025955 0 0)
(0.0220055 0.0201586 0 0.0304634 0 0)
(0.0275293 0.025586 0 0.0353795 0 0)
(0.0345544 0.0318789 0 0.0407053 0 0)
(0.0431368 0.0390202 0 0.0462922 0 0)
(0.053452 0.0470609 0 0.0521941 0 0)
(0.0653947 0.0558104 0 0.0581075 0 0)
(0.0791743 0.0653563 0 0.0642038 0 0)
(0.0720677 0.00203396 0 0.011175 0 0)
(0.0153081 0.000301111 0 0.00880436 0 0)
(0.014613 -0.000134547 0 0.00653392 0 0)
(0.0117694 0.000634425 0 0.00630242 0 0)
(0.0112841 0.00157624 0 0.00684531 0 0)
(0.0115654 0.00258577 0 0.00782966 0 0)
(0.0122891 0.00398381 0 0.00922108 0 0)
(0.0136914 0.00603871 0 0.0109852 0 0)
(0.0159925 0.00874373 0 0.0130743 0 0)
(0.0192249 0.0119589 0 0.015463 0 0)
(0.0233751 0.0155909 0 0.0181165 0 0)
(0.0285525 0.0196562 0 0.0210082 0 0)
(0.0349287 0.0242242 0 0.0241123 0 0)
(0.0427009 0.0294191 0 0.0274641 0 0)
(0.0520065 0.035263 0 0.0309901 0 0)
(0.0630596 0.041788 0 0.0347329 0 0)
(0.0758657 0.0488453 0 0.0384986 0 0)
(0.0905394 0.0564662 0 0.0423706 0 0)
(0.0867726 0.00285524 0 0.00871806 0 0)
(0.0216422 0.000204543 0 0.00605216 0 0)
(0.0175045 -0.000550018 0 0.00438178 0 0)
(0.0150118 0.000271839 0 0.00412357 0 0)
(0.0153745 0.0013705 0 0.00455897 0 0)
(0.0160013 0.00243879 0 0.00533456 0 0)
(0.0166907 0.00364187 0 0.00629511 0 0)
(0.0181031 0.00525288 0 0.00741935 0 0)
(0.0207274 0.00740103 0 0.00872951 0 0)
(0.0246459 0.0100819 0 0.0102468 0 0)
(0.0297355 0.0132433 0 0.0119712 0 0)
(0.0359205 0.0168469 0 0.0138967 0 0)
(0.0432464 0.0208603 0 0.0159863 0 0)
(0.051908 0.0252879 0 0.0182143 0 0)
(0.0620578 0.0301008 0 0.0204933 0 0)
(0.073927 0.0353314 0 0.0228414 0 0)
(0.0875048 0.0409113 0 0.0251295 0 0)
(0.102827 0.0468922 0 0.0274346 0 0)
(0.0815559 0.00251634 0 0.00775215 0 0)
(0.0189591 -0.000241684 0 0.00617166 0 0)
(0.016932 -0.000412995 0 0.00486929 0 0)
(0.0153464 0.000790057 0 0.00458231 0 0)
(0.0154869 0.00185856 0 0.00481449 0 0)
(0.0155626 0.00271159 0 0.00522125 0 0)
(0.0160097 0.00364324 0 0.00567902 0 0)
(0.0175488 0.00497976 0 0.00622932 0 0)
(0.0205849 0.00683172 0 0.00692184 0 0)
(0.025162 0.00914216 0 0.00776835 0 0)
(0.0311354 0.0118114 0 0.00875109 0 0)
(0.038406 0.0147791 0 0.00984884 0 0)
(0.0469715 0.0180268 0 0.0110359 0 0)
(0.0569062 0.0215732 0 0.0123009 0 0)
(0.0682141 0.0254021 0 0.0135935 0 0)
(0.0810195 0.02954 0 0.0149437 0 0)
(0.0952655 0.0339206 0 0.0162903 0 0)
(0.110974 0.0385852 0 0.0176429 0 0)
(0.0705124 0.00331854 0 0.00685047 0 0)
(0.0131325 -0.0008169 0 0.00486928 0 0)
(0.0127899 -0.0021397 0 0.00335371 0 0)
(0.0117021 -0.00130865 0 0.00309216 0 0)
(0.0121259 -1.19576e-05 0 0.00320511 0 0)
(0.0122584 0.00111294 0 0.00339314 0 0)
(0.0128349 0.00193673 0 0.0036337 0 0)
(0.0147023 0.00273435 0 0.00395783 0 0)
(0.0181096 0.00381697 0 0.00436739 0 0)
(0.0229673 0.00530339 0 0.00486024 0 0)
(0.0291141 0.00717459 0 0.00543228 0 0)
(0.0364884 0.00938169 0 0.00607502 0 0)
(0.0451242 0.0118709 0 0.00677462 0 0)
(0.0551213 0.0146152 0 0.00752689 0 0)
(0.066508 0.0175728 0 0.00830319 0 0)
(0.0793848 0.0207388 0 0.00912106 0 0)
(0.093699 0.0240481 0 0.00992456 0 0)
(0.10948 0.0275192 0 0.0107192 0 0)
(0.0718854 -0.00124085 0 0.00632208 0 0)
(0.0150322 -0.000729601 0 0.00435242 0 0)
(0.0134636 -0.000731646 0 0.00268716 0 0)
(0.0108688 -0.000420052 0 0.00207788 0 0)
(0.0110248 8.91812e-05 0 0.00189748 0 0)
(0.0121936 0.000681754 0 0.00191629 0 0)
(0.0143504 0.00130453 0 0.00203289 0 0)
(0.0175655 0.00204476 0 0.00219737 0 0)
(0.0217791 0.00299798 0 0.00239902 0 0)
(0.0269581 0.00419757 0 0.00264118 0 0)
(0.0331266 0.00564184 0 0.00291781 0 0)
(0.0404139 0.00731724 0 0.00322054 0 0)
(0.0490099 0.00918398 0 0.00354207 0 0)
(0.0591184 0.0112064 0 0.00388131 0 0)
(0.0708367 0.0133498 0 0.00422605 0 0)
(0.0842498 0.0156128 0 0.00459028 0 0)
(0.0992571 0.0179615 0 0.00494771 0 0)
(0.115776 0.0204338 0 0.0052982 0 0)
(0.0741884 0.000309898 0 0.00499914 0 0)
(0.0123177 -0.000887109 0 0.00282422 0 0)
(0.0116484 -0.000697527 0 0.00185061 0 0)
(0.0114751 -0.000248154 0 0.00159374 0 0)
(0.0131308 0.000122693 0 0.0015329 0 0)
(0.0141019 0.00038238 0 0.00154352 0 0)
(0.0149115 0.000630744 0 0.00157737 0 0)
(0.0165604 0.0010063 0 0.00162602 0 0)
(0.0196034 0.00160659 0 0.00169905 0 0)
(0.0241608 0.00244976 0 0.00180129 0 0)
(0.0301484 0.00349446 0 0.00192572 0 0)
(0.0375165 0.00467952 0 0.00206679 0 0)
(0.0462927 0.00594692 0 0.00222355 0 0)
(0.0565554 0.00726977 0 0.00239664 0 0)
(0.0682807 0.00863463 0 0.00257693 0 0)
(0.0815039 0.0100638 0 0.00277062 0 0)
(0.0961061 0.0115405 0 0.00296187 0 0)
(0.112019 0.0131062 0 0.00314646 0 0)
(0.069168 -0.000719561 0 0.00459078 0 0)
(0.0140104 0.000251532 0 0.0024344 0 0)
(0.0137706 -0.000236585 0 0.00156776 0 0)
(0.0114768 -0.000444854 0 0.00123645 0 0)
(0.0114614 -0.000321768 0 0.00104029 0 0)
(0.0120637 -7.83056e-05 0 0.000944209 0 0)
(0.013323 0.0001573 0 0.000914663 0 0)
(0.0153838 0.000339589 0 0.000908239 0 0)
(0.0182881 0.000508174 0 0.000907347 0 0)
(0.0221752 0.000741419 0 0.000910795 0 0)
(0.027271 0.00109763 0 0.000914906 0 0)
(0.0338078 0.00159287 0 0.000917814 0 0)
(0.041935 0.0022103 0 0.000924442 0 0)
(0.0516887 0.00291947 0 0.000939362 0 0)
(0.0629942 0.00369154 0 0.000961732 0 0)
(0.0758023 0.00450453 0 0.000999041 0 0)
(0.0900209 0.00533972 0 0.001044 0 0)
(0.105524 0.00620111 0 0.00109205 0 0)
(0.0710072 -0.000517279 0 0.0033108 0 0)
(0.0124807 0.000427149 0 0.00150259 0 0)
(0.0129505 0.000301467 0 0.00108252 0 0)
(0.0119815 -4.53477e-05 0 0.000945284 0 0)
(0.0121895 -0.000366688 0 0.000891387 0 0)
(0.0123638 -0.000579853 0 0.000849683 0 0)
(0.0133848 -0.000620323 0 0.000816353 0 0)
(0.0158481 -0.000520831 0 0.000796588 0 0)
(0.0197265 -0.00036213 0 0.000788794 0 0)
(0.0247868 -0.000206511 0 0.000790015 0 0)
(0.030846 -7.22087e-05 0 0.000797173 0 0)
(0.0379049 5.23462e-05 0 0.000807082 0 0)
(0.0460133 0.000186463 0 0.000818268 0 0)
(0.0552999 0.000338165 0 0.000831124 0 0)
(0.0657046 0.000514776 0 0.000843526 0 0)
(0.0773548 0.000716094 0 0.00086287 0 0)
(0.0899981 0.000938359 0 0.000887403 0 0)
(0.103819 0.00119809 0 0.000906198 0 0)
(0.0719167 -0.000489557 0 0.00265246 0 0)
(0.0172864 -7.07594e-05 0 0.00129143 0 0)
(0.0176122 0.000138658 0 0.000936761 0 0)
(0.0138357 0.000238413 0 0.000781728 0 0)
(0.0136502 0.000479935 0 0.000682614 0 0)
(0.0161463 0.000746685 0 0.000622998 0 0)
(0.0198877 0.000910872 0 0.00058352 0 0)
(0.0239371 0.000931254 0 0.000544073 0 0)
(0.0281864 0.000865915 0 0.000503775 0 0)
(0.0329991 0.000824727 0 0.00046959 0 0)
(0.0387687 0.000876717 0 0.000439129 0 0)
(0.0456659 0.00100901 0 0.000407078 0 0)
(0.0536458 0.00116733 0 0.000374596 0 0)
(0.0625012 0.00130882 0 0.000345718 0 0)
(0.072143 0.00142353 0 0.000322513 0 0)
(0.0824159 0.00151482 0 0.000307885 0 0)
(0.093443 0.00159718 0 0.000298961 0 0)
(0.104988 0.0016845 0 0.000290403 0 0)
(0.00218947 -0.00502974 4.69029e-22 0.0119092 -7.14073e-22 5.84347e-37)
(0.0234119 -0.0204794 -1.33216e-21 0.0183692 4.47868e-22 5.76182e-37)
(0.0729042 -0.0373072 0 0.0195626 0 0)
(0.150162 -0.0536015 0 0.0195627 0 0)
(0.254944 -0.0696699 0 0.0194077 0 0)
(0.388843 -0.086041 4.67181e-21 0.0193482 -5.72068e-22 5.42739e-37)
(0.552855 -0.102713 0 0.0193527 0 0)
(0.748045 -0.119408 0 0.0193234 0 0)
(0.974311 -0.135459 0 0.0191286 0 0)
(1.23039 -0.149961 0 0.0186557 0 0)
(1.51279 -0.161753 -9.58234e-21 0.017821 8.75854e-22 5.02747e-37)
(1.81576 -0.169597 0 0.0166111 0 0)
(2.13078 -0.17233 0 0.0151013 0 0)
(2.44745 -0.169094 0 0.013474 0 0)
(2.75294 -0.159331 0 0.0119977 0 0)
(3.03619 -0.143295 -1.60593e-20 0.0110587 1.42943e-21 4.64714e-37)
(3.28448 -0.121757 0 0.011108 0 0)
(3.4865 -0.0985527 0 0.0125936 0 0)
(3.64076 -0.078802 0 0.0156199 0 0)
(3.75614 -0.0686554 0 0.0199521 0 0)
(3.85086 -0.0739219 0 0.0252064 0 0)
(3.94992 -0.0978938 0 0.0309458 0 0)
(4.07964 -0.139976 0 0.0366318 0 0)
(4.2586 -0.199583 -3.36738e-20 0.0430825 2.10172e-21 4.07864e-37)
(4.48656 -0.271338 3.63197e-20 0.0613062 -2.06899e-21 4.01103e-37)
(4.74585 -0.329042 -3.91138e-20 0.0979379 2.11722e-21 3.94418e-37)
(5.0368 -0.322552 -4.20714e-20 0.106052 2.38749e-21 3.8781e-37)
(5.36368 -0.24954 0 0.0868576 0 0)
(5.7721 -0.243774 0 0.122162 0 0)
(6.41279 -0.3599 5.18953e-20 0.140794 -3.35009e-21 3.68442e-37)
(7.33619 -0.484761 5.50553e-20 0.1308 -3.18026e-21 3.62139e-37)
(8.49993 -0.585902 0 0.118203 0 0)
(9.85981 -0.662903 0 0.104483 0 0)
(11.3706 -0.715904 6.34931e-20 0.0911571 -2.54339e-21 3.43692e-37)
(12.9905 -0.747249 0 0.0788503 0 0)
(14.6784 -0.758942 0 0.0676499 0 0)
(16.3956 -0.753137 -7.01983e-20 0.057577 1.84483e-21 3.25931e-37)
(18.1047 -0.731453 0 0.0485157 0 0)
(19.7693 -0.695363 -7.34539e-20 0.04038 1.36962e-21 3.1447e-37)
(21.3545 -0.646161 -1.4929e-19 0.0330977 2.26295e-21 1.23541e-36)
(22.8264 -0.585271 0 0.0266407 0 0)
(24.1533 -0.514318 0 0.0210035 0 0)
(25.3069 -0.435291 0 0.0161987 0 0)
(26.2651 -0.350641 0 0.0122476 0 0)
(27.0117 -0.263339 0 0.00916515 0 0)
(27.5331 -0.176633 -1.48886e-19 0.00692543 -3.77199e-22 1.1068e-36)
(27.8258 -0.0934972 -1.4628e-19 0.00545043 -7.20864e-22 1.08639e-36)
(27.902 -0.0157865 -1.43043e-19 0.0046085 -1.02273e-21 1.06627e-36)
(27.7733 0.0559311 0 0.00424964 0 0)
(27.4544 0.120677 1.34963e-19 0.00426256 1.50437e-21 1.02688e-36)
(26.9637 0.177703 0 0.00454188 0 0)
(26.3225 0.226493 -1.25299e-19 0.00499368 -1.8261e-21 9.88628e-37)
(25.5527 0.266727 -1.20089e-19 0.00554348 -1.9304e-21 9.69922e-37)
(24.6765 0.298701 0 0.00612135 0 0)
(23.715 0.322869 0 0.00668505 0 0)
(22.6882 0.33992 0 0.00720295 0 0)
(21.6144 0.350649 -9.84739e-20 0.00765717 -2.04713e-21 8.97855e-37)
(20.5103 0.355825 0 0.00803718 0 0)
(19.3907 0.356185 0 0.00833574 0 0)
(18.2691 0.352483 0 0.00854211 0 0)
(17.157 0.34549 0 0.00865457 0 0)
(16.0634 0.336059 0 0.00867041 0 0)
(14.9944 0.325113 0 0.008605 0 0)
(13.9531 0.313505 0 0.00847874 0 0)
(12.94 0.301951 0 0.00832419 0 0)
(11.9541 0.29082 5.67196e-20 0.008166 1.51709e-21 7.51183e-37)
(10.994 0.280234 0 0.00803767 0 0)
(10.0592 0.269744 0 0.00793267 0 0)
(9.15111 0.258919 -4.60814e-20 0.00785462 -1.324e-21 7.06808e-37)
(8.2733 0.247046 -4.28731e-20 0.0077657 -1.26046e-21 6.92495e-37)
(7.4314 0.233734 0 0.00763524 0 0)
(6.63177 0.218727 3.69749e-20 0.00742155 1.12769e-21 6.64569e-37)
(5.88057 0.202305 -3.42919e-20 0.00711599 -1.05807e-21 6.50951e-37)
(5.18276 0.184784 0 0.00670992 0 0)
(4.54191 0.166771 2.94605e-20 0.00622391 9.14877e-22 6.24391e-37)
(3.96004 0.148708 0 0.00567198 0 0)
(3.43745 0.131173 0 0.00508746 0 0)
(2.97306 0.114529 -2.34987e-20 0.00449296 -7.04876e-22 5.86199e-37)
(2.56402 0.0990177 0 0.00390638 0 0)
(2.2064 0.0849579 2.02977e-20 0.0033566 5.78299e-22 5.61803e-37)
(1.89627 0.0723626 0 0.00284901 0 0)
(1.62854 0.0612141 -1.76246e-20 0.00238952 -4.66995e-22 5.38233e-37)
(1.39818 0.0514545 -1.64593e-20 0.00198133 -4.17342e-22 5.26752e-37)
(1.20087 0.0430179 -1.53956e-20 0.00162623 -3.71684e-22 5.15469e-37)
(1.0325 0.0357926 -2.88497e-20 0.00132202 -6.59785e-22 2.01753e-36)
(0.889184 0.029652 2.70779e-20 0.00106491 5.83571e-22 1.97395e-36)
(0.767433 0.0244661 0 0.000850133 0 0)
(0.664134 0.0201091 0 0.000672576 0 0)
(0.576565 0.0164644 0 0.000527198 0 0)
(0.502362 0.0134268 2.14095e-20 0.000409266 3.43416e-22 1.80716e-36)
(0.439491 0.0109032 2.02875e-20 0.000314477 2.97237e-22 1.76729e-36)
(0.386208 0.00881231 -1.92634e-20 0.000239 -2.55728e-22 1.72812e-36)
(0.341029 0.00708374 0 0.000179473 0 0)
(0.302696 0.00565724 1.74751e-20 0.00013299 1.85127e-22 1.65188e-36)
(0.270145 0.00448146 1.66961e-20 9.70681e-05 1.55294e-22 1.61478e-36)
(0.242481 0.00351294 1.59848e-20 6.96151e-05 1.28653e-22 1.57834e-36)
(0.218956 0.00271516 0 4.88947e-05 0 0)
(0.198941 0.00205768 0 3.34881e-05 0 0)
(0.181911 0.00151535 0 2.22504e-05 0 0)
(0.167429 0.00106751 1.37078e-20 1.42692e-05 4.81839e-23 1.4391e-36)
(0.155128 0.000697133 0 8.82034e-06 0 0)
(0.144701 0.000390418 0 5.33338e-06 0 0)
(0.135889 0.000136104 -1.2472e-20 3.35629e-06 -8.65382e-24 1.3412e-36)
(0.128475 -7.4904e-05 0 2.53168e-06 0 0)
(0.122275 -0.000250055 0 2.57575e-06 0 0)
(0.117135 -0.000395564 -1.15365e-20 3.2575e-06 1.80841e-23 1.24863e-36)
(0.11292 -0.000516405 0 4.39186e-06 0 0)
(0.109519 -0.000616735 0 5.82268e-06 0 0)
(0.106834 -0.000700184 1.08304e-20 7.42337e-06 -3.529e-23 1.16114e-36)
(0.104783 -0.000769481 1.06359e-20 9.08801e-06 -3.93159e-23 1.13306e-36)
(0.103291 -0.000828463 0 1.07493e-05 0 0)
(0.102317 -0.000879849 -1.02972e-20 1.23651e-05 4.55066e-23 1.07849e-36)
(0.101809 -0.000924814 0 1.38935e-05 0 0)
(0.101724 -0.000965241 1.00161e-20 1.53442e-05 -4.95713e-23 1.02598e-36)
(0.102023 -0.00100059 0 1.6656e-05 0 0)
(0.102659 -0.00102796 9.78041e-21 1.76551e-05 -5.15494e-23 9.75455e-37)
(0.103592 -0.00104636 9.67567e-21 1.82338e-05 -5.16414e-23 9.50919e-37)
(0.10478 -0.00105602 0 1.83826e-05 0 0)
(0.106185 -0.00105723 0 1.81219e-05 0 0)
(0.10777 -0.00105026 0 1.74769e-05 0 0)
(0.109504 -0.00103597 0 1.65138e-05 0 0)
(0.111357 -0.00101587 0 1.53451e-05 0 0)
(0.113306 -0.000991187 0 1.40634e-05 0 0)
(0.115326 -0.000962953 0 1.2742e-05 0 0)
(0.117399 -0.000932054 8.99252e-21 1.1437e-05 -3.9427e-23 7.71077e-37)
(0.119504 -0.000899246 -8.91448e-21 1.01867e-05 3.73769e-23 7.50544e-37)
(0.121628 -0.000865237 0 9.01824e-06 0 0)
(0.123756 -0.000830683 0 7.94837e-06 0 0)
(0.125878 -0.000796136 0 6.98496e-06 0 0)
(0.127984 -0.000762089 0 6.13e-06 0 0)
(0.130067 -0.000728904 -1.70408e-20 5.37991e-06 5.62226e-23 2.61558e-36)
(0.132121 -0.000696829 0 4.72692e-06 0 0)
(0.134142 -0.000666025 1.67167e-20 4.16157e-06 -5.0082e-23 2.4717e-36)
(0.136126 -0.00063663 -1.65523e-20 3.67442e-06 4.72943e-23 2.40196e-36)
(0.138071 -0.000608718 0 3.25596e-06 0 0)
(0.139975 -0.000582294 0 2.89653e-06 0 0)
(0.141838 -0.000557266 0 2.58651e-06 0 0)
(0.143659 -0.000533516 1.58787e-20 2.31744e-06 -3.78779e-23 2.13717e-36)
(0.145437 -0.000510946 1.57065e-20 2.0826e-06 -3.59012e-23 2.07439e-36)
(0.147171 -0.000489478 0 1.87662e-06 0 0)
(0.148862 -0.000468974 1.53581e-20 1.69435e-06 -3.23247e-23 1.9528e-36)
(0.150509 -0.000449167 1.5182e-20 1.53023e-06 -3.06987e-23 1.89394e-36)
(0.152112 -0.000429706 -1.50047e-20 1.37901e-06 2.91573e-23 1.83634e-36)
(0.153668 -0.000410303 0 1.23694e-06 0 0)
(0.155178 -0.000390905 0 1.10289e-06 0 0)
(0.156638 -0.000371751 -1.44663e-20 9.78219e-07 2.49628e-23 1.67091e-36)
(0.158049 -0.000353296 0 8.65569e-07 0 0)
(0.159412 -0.000336029 0 7.67155e-07 0 0)
(0.160731 -0.000320294 0 6.8359e-07 0 0)
(0.162009 -0.00030622 0 6.1383e-07 0 0)
(0.163252 -0.000293718 1.35522e-20 5.55717e-07 -1.97616e-23 1.41858e-36)
(0.164465 -0.000282609 1.33679e-20 5.06963e-07 -1.89951e-23 1.37145e-36)
(0.165653 -0.000272653 0 4.65467e-07 0 0)
(0.16682 -0.000263726 1.29988e-20 4.299e-07 -1.76655e-23 1.2804e-36)
(0.167972 -0.000255685 0 3.99164e-07 0 0)
(0.16911 -0.000248594 0 3.72954e-07 0 0)
(0.170241 -0.000242366 1.24453e-20 3.50637e-07 -1.61097e-23 1.15157e-36)
(0.171365 -0.000237213 0 3.3244e-07 0 0)