/*--------------------------------*- C++ -*----------------------------------*\
  =========                 |
  \\      /  F ield         | OpenFOAM: The Open Source CFD Toolbox
   \\    /   O peration     | Website:  https://openfoam.org
    \\  /    A nd           | Version:  10
     \\/     M anipulation  |
\*---------------------------------------------------------------------------*/
FoamFile
{
    format      ascii;
    class       surfaceScalarField;
    location    "2.66";
    object      phi;
}
// * * * * * * * * * * * * * * * * * * * * * * * * * * * * * * * * * * * * * //

dimensions      [0 3 -1 0 0 0 0];

internalField   nonuniform List<scalar> 
24170
(
1.47398e-09
-1.47398e-09
2.7344e-09
-1.26042e-09
3.72943e-09
-9.95032e-10
4.47815e-09
-7.48718e-10
5.03044e-09
-5.52289e-10
5.44022e-09
-4.0978e-10
5.75389e-09
-3.13665e-10
6.00783e-09
-2.53946e-10
6.22993e-09
-2.22102e-10
6.44226e-09
-2.12331e-10
6.6641e-09
-2.21835e-10
6.91526e-09
-2.5116e-10
7.22071e-09
-3.05451e-10
7.61896e-09
-3.98255e-10
8.18203e-09
-5.63067e-10
9.07668e-09
-8.94646e-10
1.08201e-08
-1.74345e-09
-4.99955e-09
1.58197e-08
1.66633e-09
-3.14031e-09
3.08554e-09
-2.67963e-09
4.19944e-09
-2.10893e-09
5.03198e-09
-1.58126e-09
5.64174e-09
-1.16204e-09
6.09091e-09
-8.58955e-10
6.43246e-09
-6.5521e-10
6.70754e-09
-5.29028e-10
6.94743e-09
-4.6199e-10
7.17667e-09
-4.4157e-10
7.41646e-09
-4.61626e-10
7.68828e-09
-5.22981e-10
8.01861e-09
-6.35788e-10
8.44697e-09
-8.26613e-10
9.04276e-09
-1.15886e-09
9.94519e-09
-1.79707e-09
1.14382e-08
-3.23646e-09
-7.14651e-09
1.35852e-08
1.85933e-09
-4.99964e-09
3.43411e-09
-4.25441e-09
4.66051e-09
-3.33533e-09
5.56947e-09
-2.49022e-09
6.22974e-09
-1.82231e-09
6.71246e-09
-1.34168e-09
7.07713e-09
-1.01988e-09
7.36939e-09
-8.21292e-10
7.62349e-09
-7.16093e-10
7.86594e-09
-6.84022e-10
8.1192e-09
-7.14886e-10
8.40536e-09
-8.09135e-10
8.75038e-09
-9.80812e-10
9.19019e-09
-1.26642e-09
9.77967e-09
-1.74834e-09
1.05993e-08
-2.61668e-09
1.16888e-08
-4.32598e-09
-7.85642e-09
1.23987e-08
2.07461e-09
-7.07425e-09
3.81769e-09
-5.9975e-09
5.16023e-09
-4.67786e-09
6.14385e-09
-3.47384e-09
6.85069e-09
-2.52915e-09
7.36257e-09
-1.85356e-09
7.74628e-09
-1.40359e-09
8.05205e-09
-1.12706e-09
8.31689e-09
-9.80933e-10
8.56888e-09
-9.36016e-10
8.83112e-09
-9.77122e-10
9.1252e-09
-1.10322e-09
9.47459e-09
-1.3302e-09
9.90754e-09
-1.69937e-09
1.04568e-08
-2.29763e-09
1.11395e-08
-3.2993e-09
1.18411e-08
-5.02758e-09
-7.89047e-09
1.18751e-08
2.32562e-09
-9.39987e-09
4.25769e-09
-7.92956e-09
5.723e-09
-6.14318e-09
6.77971e-09
-4.53055e-09
7.52814e-09
-3.27757e-09
8.06345e-09
-2.38888e-09
8.46078e-09
-1.80091e-09
8.77515e-09
-1.44142e-09
9.04613e-09
-1.25192e-09
9.30292e-09
-1.1928e-09
9.56849e-09
-1.24269e-09
9.86284e-09
-1.39757e-09
1.0205e-08
-1.67239e-09
1.06128e-08
-2.10718e-09
1.10949e-08
-2.7797e-09
1.16181e-08
-3.82248e-09
1.2006e-08
-5.41552e-09
-7.62587e-09
1.17414e-08
2.62742e-09
-1.20273e-08
4.77646e-09
-1.00786e-08
6.37222e-09
-7.73894e-09
7.49847e-09
-5.6568e-09
8.2807e-09
-4.05979e-09
8.83103e-09
-2.93921e-09
9.23427e-09
-2.20416e-09
9.55045e-09
-1.7576e-09
9.82137e-09
-1.52284e-09
1.00767e-08
-1.44814e-09
1.03385e-08
-1.5045e-09
1.06241e-08
-1.68315e-09
1.09467e-08
-1.99501e-09
1.13126e-08
-2.4731e-09
1.17094e-08
-3.17643e-09
1.2074e-08
-4.1871e-09
1.22301e-08
-5.57165e-09
-7.24036e-09
1.18446e-08
3.00036e-09
-1.50276e-08
5.40263e-09
-1.24809e-08
7.1359e-09
-9.47221e-09
8.32401e-09
-6.84491e-09
9.12764e-09
-4.86342e-09
9.68058e-09
-3.49215e-09
1.00789e-08
-2.60244e-09
1.03875e-08
-2.06628e-09
1.06501e-08
-1.78542e-09
1.0896e-08
-1.69402e-09
1.11455e-08
-1.75396e-09
1.14121e-08
-1.94982e-09
1.17028e-08
-2.28567e-09
1.2013e-08
-2.78331e-09
1.23153e-08
-3.4787e-09
1.25362e-08
-4.40799e-09
1.25296e-08
-5.56513e-09
-6.81373e-09
1.2103e-08
3.4742e-09
-1.85019e-08
6.17576e-09
-1.51824e-08
8.05047e-09
-1.13469e-08
9.28551e-09
-8.07996e-09
1.00911e-08
-5.66901e-09
1.06286e-08
-4.02967e-09
1.10068e-08
-2.98064e-09
1.12955e-08
-2.35499e-09
1.1539e-08
-2.02893e-09
1.17655e-08
-1.92052e-09
1.19926e-08
-1.98101e-09
1.22295e-08
-2.18672e-09
1.24766e-08
-2.53281e-09
1.2721e-08
-3.02773e-09
1.29273e-08
-3.68496e-09
1.30253e-08
-4.50599e-09
1.29078e-08
-5.44764e-09
-6.37967e-09
1.24737e-08
4.09465e-09
-2.25965e-08
7.15288e-09
-1.82407e-08
9.16505e-09
-1.33591e-08
1.04199e-08
-9.33479e-09
1.11974e-08
-6.44655e-09
1.16937e-08
-4.52594e-09
1.20312e-08
-3.31816e-09
1.22836e-08
-2.60734e-09
1.24945e-08
-2.23986e-09
1.26897e-08
-2.1157e-09
1.2883e-08
-2.17434e-09
1.30791e-08
-2.3828e-09
1.32726e-08
-2.72632e-09
1.34449e-08
-3.20009e-09
1.3559e-08
-3.79899e-09
1.35555e-08
-4.50256e-09
1.33629e-08
-5.25496e-09
-5.95093e-09
1.29341e-08
4.93508e-09
-2.75316e-08
8.41862e-09
-2.17242e-08
1.0547e-08
-1.54875e-08
1.17741e-08
-1.05619e-08
1.2478e-08
-7.15038e-09
1.28966e-08
-4.94455e-09
1.31658e-08
-3.58744e-09
1.33609e-08
-2.80238e-09
1.35226e-08
-2.40161e-09
1.36726e-08
-2.26563e-09
1.38199e-08
-2.32168e-09
1.39644e-08
-2.52724e-09
1.4096e-08
-2.85794e-09
1.41934e-08
-3.29749e-09
1.4222e-08
-3.82763e-09
1.41363e-08
-4.41686e-09
1.3892e-08
-5.01065e-09
-5.53102e-09
1.34721e-08
6.11889e-09
-3.36505e-08
1.01019e-08
-2.57072e-08
1.22895e-08
-1.76751e-08
1.34076e-08
-1.168e-08
1.39692e-08
-7.71198e-09
1.42597e-08
-5.23503e-09
1.44247e-08
-3.75248e-09
1.45363e-08
-2.914e-09
1.46292e-08
-2.49442e-09
1.47181e-08
-2.35462e-09
1.48066e-08
-2.41017e-09
1.48893e-08
-2.60992e-09
1.49527e-08
-2.92133e-09
1.49749e-08
-3.31963e-09
1.49261e-08
-3.77886e-09
1.47737e-08
-4.26446e-09
1.44926e-08
-4.72961e-09
-5.11949e-09
1.40811e-08
6.52458e-09
-4.01751e-08
1.03226e-08
-2.95052e-08
1.21178e-08
-1.94703e-08
1.28726e-08
-1.24348e-08
1.31586e-08
-7.99796e-09
1.32517e-08
-5.32808e-09
1.32746e-08
-3.77546e-09
1.32796e-08
-2.91897e-09
1.32867e-08
-2.50155e-09
1.33012e-08
-2.36907e-09
1.332e-08
-2.42902e-09
1.33347e-08
-2.62458e-09
1.33316e-08
-2.91825e-09
1.32928e-08
-3.28078e-09
1.31973e-08
-3.68338e-09
1.30255e-08
-4.09272e-09
1.2766e-08
-4.47006e-09
-4.77586e-09
1.24224e-08
9.69683e-09
-4.98719e-08
1.45101e-08
-3.43184e-08
1.63063e-08
-2.12666e-08
1.67909e-08
-1.29194e-08
1.67981e-08
-8.0051e-09
1.66666e-08
-5.19659e-09
1.65204e-08
-3.62928e-09
1.63987e-08
-2.79726e-09
1.63082e-08
-2.41112e-09
1.62434e-08
-2.3042e-09
1.61927e-08
-2.37836e-09
1.61415e-08
-2.57331e-09
1.6072e-08
-2.84874e-09
1.59646e-08
-3.17343e-09
1.58e-08
-3.51873e-09
1.55626e-08
-3.85535e-09
1.52461e-08
-4.15363e-09
-4.38711e-09
1.48574e-08
1.5659e-08
-6.55309e-08
2.14162e-08
-4.00756e-08
2.25693e-08
-2.24197e-08
2.22601e-08
-1.26102e-08
2.16454e-08
-7.39042e-09
2.10722e-08
-4.62336e-09
2.0616e-08
-3.17314e-09
2.0272e-08
-2.45317e-09
2.00151e-08
-2.15423e-09
1.98181e-08
-2.10728e-09
1.96555e-08
-2.21569e-09
1.95029e-08
-2.42077e-09
1.93376e-08
-2.68343e-09
1.91384e-08
-2.97419e-09
1.88874e-08
-3.26777e-09
1.85731e-08
-3.54107e-09
1.8193e-08
-3.77353e-09
-3.94908e-09
1.7755e-08
2.86545e-08
-9.41854e-08
3.36625e-08
-4.50836e-08
3.22274e-08
-2.09846e-08
2.99672e-08
-1.035e-08
2.80989e-08
-5.52215e-09
2.67294e-08
-3.25384e-09
2.57513e-08
-2.19508e-09
2.50486e-08
-1.75043e-09
2.45311e-08
-1.63672e-09
2.41328e-08
-1.70904e-09
2.38048e-08
-1.88762e-09
2.35089e-08
-2.12488e-09
2.3215e-08
-2.38953e-09
2.28993e-08
-2.65855e-09
2.2545e-08
-2.91341e-09
2.21426e-08
-3.13872e-09
2.16915e-08
-3.32238e-09
-3.45634e-09
2.11987e-08
6.32313e-08
-1.57417e-07
5.66477e-08
-3.85e-08
4.70311e-08
-1.1368e-08
4.05276e-08
-3.84643e-09
3.64252e-08
-1.41975e-09
3.3791e-08
-6.19644e-10
3.2038e-08
-4.42112e-10
3.08237e-08
-5.3613e-10
2.99441e-08
-7.57167e-10
2.92724e-08
-1.03729e-09
2.8725e-08
-1.34021e-09
2.82446e-08
-1.64447e-09
2.77908e-08
-1.93579e-09
2.73358e-08
-2.2035e-09
2.68616e-08
-2.43921e-09
2.63593e-08
-2.63649e-09
2.58281e-08
-2.7911e-09
-2.90129e-09
2.5273e-08
1.82881e-07
1.5917e-07
9.66628e-08
4.77186e-08
6.64337e-08
1.8861e-08
5.31069e-08
9.48034e-09
4.61278e-08
5.5594e-09
4.20146e-08
3.49357e-09
3.93814e-08
2.19104e-09
3.75839e-08
1.26138e-09
3.62844e-08
5.42351e-10
3.52887e-08
-4.16245e-11
3.44738e-08
-5.25313e-10
3.3766e-08
-9.36678e-10
3.31169e-08
-1.28666e-09
3.24949e-08
-1.58146e-09
3.18806e-08
-1.82494e-09
3.12642e-08
-2.02004e-09
3.06426e-08
-2.16956e-09
-2.27674e-09
3.00181e-08
7.72167e-08
8.19534e-08
7.53707e-08
4.95646e-08
6.52844e-08
2.89473e-08
5.726e-08
1.75047e-08
5.17605e-08
1.10589e-08
4.80353e-08
7.21883e-09
4.54497e-08
4.77659e-09
4.35871e-08
3.12396e-09
4.21851e-08
1.94439e-09
4.10778e-08
1.06569e-09
4.01625e-08
3.90004e-10
3.93642e-08
-1.38372e-10
3.8631e-08
-5.53483e-10
3.7935e-08
-8.85443e-10
3.72593e-08
-1.1493e-09
3.65951e-08
-1.35587e-09
3.59391e-08
-1.5135e-09
-1.62911e-09
3.52915e-08
3.59262e-08
4.60272e-08
5.01082e-08
3.53826e-08
5.37857e-08
2.52698e-08
5.36054e-08
1.7685e-08
5.22918e-08
1.23725e-08
5.0816e-08
8.69458e-09
4.94734e-08
6.11922e-09
4.83184e-08
4.27897e-09
4.73288e-08
2.934e-09
4.64647e-08
1.92977e-09
4.56886e-08
1.16611e-09
4.49731e-08
5.77155e-10
4.43009e-08
1.18658e-10
4.36517e-08
-2.36222e-10
4.30148e-08
-5.12395e-10
4.2386e-08
-7.27018e-10
4.17641e-08
-8.91619e-10
-1.01522e-09
4.11502e-08
1.42968e-08
3.17304e-08
2.32849e-08
2.63945e-08
2.80967e-08
2.0458e-08
3.0452e-08
1.53297e-08
3.15087e-08
1.13159e-08
3.19077e-08
8.29549e-09
3.19779e-08
6.04908e-09
3.18814e-08
4.37543e-09
3.1697e-08
3.11841e-09
3.14623e-08
2.16445e-09
3.11955e-08
1.43294e-09
3.09056e-08
8.6705e-10
3.05978e-08
4.26486e-10
3.02791e-08
8.23869e-11
2.99503e-08
-1.83548e-10
2.96129e-08
-3.89642e-10
2.927e-08
-5.48723e-10
-6.69777e-10
2.89246e-08
8.56831e-09
2.31621e-08
1.49684e-08
1.99944e-08
1.92211e-08
1.62053e-08
2.18942e-08
1.26565e-08
2.35323e-08
9.6778e-09
2.45213e-08
7.30657e-09
2.51056e-08
5.46474e-09
2.54337e-08
4.04734e-09
2.55945e-08
2.95762e-09
2.56418e-08
2.11712e-09
2.56091e-08
1.46564e-09
2.5518e-08
9.5816e-10
2.53832e-08
5.61318e-10
2.52152e-08
2.50363e-10
2.50249e-08
6.80916e-12
2.4816e-08
-1.80735e-10
2.45936e-08
-3.2635e-10
-4.3827e-10
2.43621e-08
5.78915e-09
1.73729e-08
1.04863e-08
1.52973e-08
1.39642e-08
1.27274e-08
1.64178e-08
1.02029e-08
1.81086e-08
7.98705e-09
1.92603e-08
6.15481e-09
2.00377e-08
4.68738e-09
2.05542e-08
3.53078e-09
2.08866e-08
2.6253e-09
2.10862e-08
1.91746e-09
2.11884e-08
1.36343e-09
2.12178e-08
9.2882e-10
2.11919e-08
5.87185e-10
2.11239e-08
3.18356e-10
2.10238e-08
1.06941e-10
2.0901e-08
-5.79827e-11
2.07602e-08
-1.8553e-10
-2.8429e-10
2.06062e-08
4.22e-09
1.31529e-08
7.80033e-09
1.1717e-08
1.06197e-08
9.90801e-09
1.27438e-08
8.07879e-09
1.43052e-08
6.4257e-09
1.54368e-08
5.02318e-09
1.62486e-08
3.87554e-09
1.68242e-08
2.95523e-09
1.72246e-08
2.2249e-09
1.74941e-08
1.64798e-09
1.76647e-08
1.19282e-09
1.77599e-08
8.33586e-10
1.77973e-08
5.4985e-10
1.77899e-08
3.25686e-10
1.77481e-08
1.48741e-10
1.76807e-08
9.42778e-12
1.75935e-08
-9.82991e-11
-1.82092e-10
1.74913e-08
3.23372e-09
9.91919e-09
6.04998e-09
8.90071e-09
8.35224e-09
7.60576e-09
1.01588e-08
6.27226e-09
1.15407e-08
5.0438e-09
1.25807e-08
3.98314e-09
1.33541e-08
3.10211e-09
1.39226e-08
2.38682e-09
1.43339e-08
1.81351e-09
1.46249e-08
1.35703e-09
1.48231e-08
9.94648e-10
1.49494e-08
7.07218e-10
1.502e-08
4.79273e-10
1.50471e-08
2.98553e-10
1.50405e-08
1.55427e-10
1.50075e-08
4.23467e-11
1.49552e-08
-4.5916e-11
-1.14471e-10
1.48875e-08
2.56285e-09
7.35634e-09
4.83124e-09
6.63233e-09
6.73009e-09
5.70691e-09
8.25958e-09
4.74277e-09
9.46021e-09
3.84317e-09
1.03862e-08
3.05711e-09
1.1091e-08
2.39735e-09
1.16208e-08
1.85697e-09
1.20136e-08
1.4207e-09
1.22994e-08
1.0713e-09
1.25014e-08
7.92586e-10
1.2638e-08
5.70645e-10
1.27232e-08
3.94046e-10
1.27682e-08
2.53615e-10
1.27815e-08
1.4208e-10
1.27702e-08
5.37011e-11
1.27401e-08
-1.57989e-11
-6.9707e-11
1.26953e-08
2.07805e-09
5.27829e-09
3.93645e-09
4.77392e-09
5.51618e-09
4.12718e-09
6.81069e-09
3.44826e-09
7.84447e-09
2.80939e-09
8.65498e-09
2.24661e-09
9.28151e-09
1.77082e-09
9.75978e-09
1.3787e-09
1.012e-08
1.06047e-09
1.03868e-08
8.04488e-10
1.05799e-08
5.99537e-10
1.07147e-08
4.35823e-10
1.08035e-08
3.05194e-10
1.08561e-08
2.01053e-10
1.08801e-08
1.18135e-10
1.08815e-08
5.22611e-11
1.08656e-08
1.21646e-13
-4.02381e-11
1.08361e-08
1.71041e-09
3.56789e-09
3.25035e-09
3.23398e-09
4.57259e-09
2.80494e-09
5.66852e-09
2.35234e-09
6.55388e-09
1.92403e-09
7.25582e-09
1.54466e-09
7.80429e-09
1.22234e-09
8.22746e-09
9.55537e-10
8.54974e-09
7.38187e-10
8.79146e-09
5.62772e-10
8.96907e-09
4.21925e-10
9.09576e-09
3.09129e-10
9.18204e-09
2.18917e-10
9.23626e-09
1.46837e-10
9.26508e-09
8.93162e-11
9.27383e-09
4.35099e-11
9.2668e-09
7.15026e-12
-2.11338e-11
9.24769e-09
1.41993e-09
2.14796e-09
2.70399e-09
1.94992e-09
3.81382e-09
1.69511e-09
4.74069e-09
1.42546e-09
5.49538e-09
1.16934e-09
6.09838e-09
9.41659e-10
6.57318e-09
7.47546e-10
6.94235e-09
5.86365e-10
7.22585e-09
4.5469e-10
7.44047e-09
3.48149e-10
7.59999e-09
2.62403e-10
7.71554e-09
1.93585e-10
7.79602e-09
1.38431e-10
7.84859e-09
9.42702e-11
7.87895e-09
5.89548e-11
7.89169e-09
3.07676e-11
7.8905e-09
8.33858e-12
-9.18116e-12
7.87855e-09
1.18059e-09
9.67362e-10
2.25134e-09
8.79175e-10
3.18085e-09
7.65604e-10
3.96114e-09
6.45171e-10
4.59997e-09
5.30507e-10
5.11331e-09
4.2832e-10
5.51987e-09
3.40986e-10
5.83794e-09
2.68298e-10
6.08385e-09
2.08784e-10
6.27147e-09
1.60527e-10
6.41226e-09
1.21609e-10
6.51554e-09
9.03105e-11
6.58879e-09
6.51748e-11
6.63805e-09
4.50073e-11
6.66817e-09
2.88438e-11
6.68302e-09
1.59123e-11
6.68576e-09
5.59545e-12
-2.48771e-12
6.67907e-09
9.67362e-10
1.84654e-09
2.61214e-09
3.25731e-09
3.78782e-09
4.21614e-09
4.55712e-09
4.82542e-09
5.03421e-09
5.19473e-09
5.31634e-09
5.40665e-09
5.47183e-09
5.51684e-09
5.54568e-09
5.56159e-09
5.56719e-09
5.5647e-09
2.0068e-10
-2.0068e-10
4.02557e-10
-2.01877e-10
6.05432e-10
-2.02876e-10
8.091e-10
-2.03668e-10
1.01335e-09
-2.04246e-10
1.21795e-09
-2.04605e-10
1.42269e-09
-2.04739e-10
1.62734e-09
-2.04645e-10
1.83166e-09
-2.04319e-10
2.03542e-09
-2.03761e-10
2.23839e-09
-2.02971e-10
2.44034e-09
-2.01952e-10
2.64105e-09
-2.00706e-10
2.84029e-09
-1.99241e-10
3.03785e-09
-1.97564e-10
3.23354e-09
-1.95686e-10
3.42716e-09
-1.9362e-10
3.61854e-09
-1.91381e-10
3.80753e-09
-1.8899e-10
3.994e-09
-1.86469e-10
4.17784e-09
-1.83848e-10
4.359e-09
-1.81158e-10
4.53744e-09
-1.78436e-10
4.71316e-09
-1.75723e-10
4.88622e-09
-1.73059e-10
5.05671e-09
-1.70488e-10
5.22476e-09
-1.68049e-10
5.39054e-09
-1.65779e-10
5.55425e-09
-1.63708e-10
5.71611e-09
-1.61862e-10
5.87637e-09
-1.6026e-10
6.03528e-09
-1.58917e-10
6.19313e-09
-1.57845e-10
6.35018e-09
-1.57055e-10
6.50674e-09
-1.5656e-10
6.66312e-09
-1.56375e-10
6.81964e-09
-1.56519e-10
6.97665e-09
-1.57015e-10
7.13454e-09
-1.57887e-10
7.2937e-09
-1.59162e-10
7.45456e-09
-1.60862e-10
7.61756e-09
-1.63001e-10
7.78315e-09
-1.65581e-10
7.95173e-09
-1.68588e-10
8.12372e-09
-1.71989e-10
8.29946e-09
-1.75734e-10
8.47922e-09
-1.79766e-10
8.66326e-09
-1.84036e-10
8.85178e-09
-1.88526e-10
9.04506e-09
-1.93271e-10
9.24344e-09
-1.98385e-10
9.44751e-09
-2.04073e-10
9.65816e-09
-2.10645e-10
9.87668e-09
-2.18519e-10
1.01049e-08
-2.28232e-10
1.03454e-08
-2.40467e-10
1.06015e-08
-2.561e-10
1.08778e-08
-2.76297e-10
1.11804e-08
-3.02668e-10
1.15179e-08
-3.37477e-10
1.19018e-08
-3.83885e-10
1.23477e-08
-4.45877e-10
1.28743e-08
-5.26577e-10
1.34943e-08
-6.20002e-10
1.41741e-08
-6.79805e-10
1.81646e-08
-3.99052e-09
1.6418e-08
1.74661e-09
1.54388e-08
9.79189e-10
1.4815e-08
6.2376e-10
1.43702e-08
4.44863e-10
1.40245e-08
3.45692e-10
1.37393e-08
2.85138e-10
1.34946e-08
2.44761e-10
1.32788e-08
2.15773e-10
1.30851e-08
1.93704e-10
1.2909e-08
1.76124e-10
1.27473e-08
1.61627e-10
1.2598e-08
1.49348e-10
1.24593e-08
1.38731e-10
1.23299e-08
1.294e-10
1.22088e-08
1.21092e-10
1.20952e-08
1.13618e-10
1.19883e-08
1.06836e-10
1.18877e-08
1.0064e-10
1.17927e-08
9.49469e-11
1.1703e-08
8.96913e-11
1.16182e-08
8.48202e-11
1.15379e-08
8.02908e-11
1.14619e-08
7.60674e-11
1.13897e-08
7.21203e-11
1.13213e-08
6.84248e-11
1.12564e-08
6.4959e-11
1.11947e-08
6.1705e-11
1.1136e-08
5.86464e-11
1.10802e-08
5.57696e-11
1.10272e-08
5.3062e-11
1.09767e-08
5.05126e-11
1.09286e-08
4.81118e-11
1.08827e-08
4.58506e-11
1.0839e-08
4.3721e-11
1.07973e-08
4.17154e-11
1.07574e-08
3.98275e-11
1.07194e-08
3.80504e-11
1.0683e-08
3.63789e-11
1.06482e-08
3.4807e-11
1.06149e-08
3.333e-11
1.05829e-08
3.19429e-11
1.05523e-08
3.06412e-11
1.05229e-08
2.94205e-11
1.04946e-08
2.82768e-11
1.04674e-08
2.72062e-11
1.04412e-08
2.6205e-11
1.04159e-08
2.52696e-11
1.03915e-08
2.43968e-11
1.03679e-08
2.35833e-11
1.03451e-08
2.2826e-11
1.0323e-08
2.21219e-11
1.03015e-08
2.14686e-11
1.02806e-08
2.08627e-11
1.02603e-08
2.03024e-11
1.02406e-08
1.97846e-11
1.02213e-08
1.93075e-11
1.02024e-08
1.88685e-11
1.01839e-08
1.84658e-11
1.01658e-08
1.80971e-11
1.01481e-08
1.77605e-11
1.01306e-08
1.74544e-11
1.01134e-08
1.71767e-11
1.00965e-08
1.6926e-11
1.00798e-08
1.67007e-11
1.00633e-08
1.64991e-11
1.0047e-08
1.63201e-11
1.00308e-08
1.6162e-11
1.00148e-08
1.60238e-11
9.9989e-09
1.59043e-11
9.98309e-09
1.58023e-11
9.96738e-09
1.57165e-11
9.95173e-09
1.56464e-11
9.93614e-09
1.55907e-11
9.92059e-09
1.55486e-11
9.90507e-09
1.55194e-11
9.88957e-09
1.55022e-11
9.87407e-09
1.54967e-11
9.85857e-09
1.55019e-11
9.84305e-09
1.55174e-11
9.82751e-09
1.55427e-11
9.81193e-09
1.55774e-11
9.79631e-09
1.56214e-11
9.78064e-09
1.56745e-11
9.7649e-09
1.57365e-11
9.74909e-09
1.58076e-11
9.73321e-09
1.5888e-11
9.71723e-09
1.59784e-11
9.70115e-09
1.60791e-11
9.68496e-09
1.61916e-11
9.66864e-09
1.63173e-11
9.65218e-09
1.64582e-11
9.63556e-09
1.6617e-11
9.61877e-09
1.67972e-11
9.60176e-09
1.70035e-11
9.58452e-09
1.72423e-11
9.567e-09
1.75214e-11
9.54915e-09
1.78517e-11
9.5309e-09
1.82472e-11
9.51217e-09
1.87265e-11
9.49286e-09
1.93148e-11
9.47281e-09
2.00454e-11
9.45185e-09
2.09644e-11
9.42971e-09
2.2135e-11
9.40607e-09
2.36461e-11
9.38044e-09
2.56257e-11
9.35218e-09
2.82629e-11
9.32033e-09
3.18475e-11
9.28349e-09
3.68456e-11
9.23943e-09
4.40538e-11
9.18448e-09
5.49538e-11
9.11183e-09
7.26446e-11
9.00701e-09
1.04823e-10
8.83081e-09
1.76201e-10
4.00788e-10
8.43002e-09
2.26476e-10
-4.27156e-10
4.54348e-10
-4.29749e-10
6.83393e-10
-4.31921e-10
9.13382e-10
-4.33656e-10
1.14408e-09
-4.34941e-10
1.37524e-09
-4.35768e-10
1.60663e-09
-4.36131e-10
1.83802e-09
-4.36032e-10
2.06918e-09
-4.35476e-10
2.29988e-09
-4.3447e-10
2.52994e-09
-4.33028e-10
2.75915e-09
-4.31166e-10
2.98735e-09
-4.28903e-10
3.21437e-09
-4.2626e-10
3.44007e-09
-4.23262e-10
3.66432e-09
-4.19935e-10
3.88701e-09
-4.16308e-10
4.10803e-09
-4.12408e-10
4.32731e-09
-4.08267e-10
4.54475e-09
-4.03913e-10
4.76028e-09
-3.99376e-10
4.9738e-09
-3.94683e-10
5.18523e-09
-3.8986e-10
5.39444e-09
-3.84933e-10
5.6013e-09
-3.79924e-10
5.80567e-09
-3.74856e-10
6.00737e-09
-3.69749e-10
6.20622e-09
-3.64629e-10
6.40203e-09
-3.5952e-10
6.59462e-09
-3.54452e-10
6.78383e-09
-3.49462e-10
6.9695e-09
-3.4459e-10
7.15154e-09
-3.39884e-10
7.32988e-09
-3.35397e-10
7.50451e-09
-3.31187e-10
7.67545e-09
-3.27315e-10
7.84277e-09
-3.23846e-10
8.0066e-09
-3.20845e-10
8.1671e-09
-3.18379e-10
8.32444e-09
-3.16511e-10
8.47888e-09
-3.153e-10
8.63069e-09
-3.14804e-10
8.78018e-09
-3.15073e-10
8.92774e-09
-3.16153e-10
9.07384e-09
-3.18087e-10
9.21903e-09
-3.2092e-10
9.36397e-09
-3.24708e-10
9.50946e-09
-3.29528e-10
9.65643e-09
-3.35498e-10
9.80595e-09
-3.42792e-10
9.95923e-09
-3.51663e-10
1.01176e-08
-3.62459e-10
1.02826e-08
-3.75646e-10
1.04559e-08
-3.91837e-10
1.06395e-08
-4.11824e-10
1.08357e-08
-4.36642e-10
1.10473e-08
-4.67673e-10
1.12778e-08
-5.06808e-10
1.15319e-08
-5.56745e-10
1.18159e-08
-6.21497e-10
1.21393e-08
-7.07348e-10
1.25182e-08
-8.24747e-10
1.2984e-08
-9.92338e-10
1.36095e-08
-1.24556e-09
1.45784e-08
-1.64866e-09
1.51837e-08
-4.59578e-09
1.52395e-08
1.6908e-09
1.4903e-08
1.31561e-09
1.45488e-08
9.78045e-10
1.42242e-08
7.69438e-10
1.39362e-08
6.33675e-10
1.3681e-08
5.40333e-10
1.34531e-08
4.72697e-10
1.32475e-08
4.21349e-10
1.30604e-08
3.80795e-10
1.28888e-08
3.47704e-10
1.27305e-08
3.19977e-10
1.25836e-08
2.96239e-10
1.24468e-08
2.75557e-10
1.23189e-08
2.57283e-10
1.2199e-08
2.40947e-10
1.20864e-08
2.26207e-10
1.19805e-08
2.12803e-10
1.18806e-08
2.00536e-10
1.17863e-08
1.89249e-10
1.16971e-08
1.78818e-10
1.16128e-08
1.69142e-10
1.1533e-08
1.60138e-10
1.14573e-08
1.51737e-10
1.13855e-08
1.43882e-10
1.13174e-08
1.36525e-10
1.12528e-08
1.29623e-10
1.11913e-08
1.2314e-10
1.11329e-08
1.17046e-10
1.10774e-08
1.11312e-10
1.10245e-08
1.05915e-10
1.09742e-08
1.00832e-10
1.09263e-08
9.60451e-11
1.08806e-08
9.1536e-11
1.0837e-08
8.72886e-11
1.07955e-08
8.32888e-11
1.07558e-08
7.95226e-11
1.07178e-08
7.59781e-11
1.06816e-08
7.26436e-11
1.06469e-08
6.95079e-11
1.06136e-08
6.65612e-11
1.05818e-08
6.37938e-11
1.05512e-08
6.11968e-11
1.05219e-08
5.87613e-11
1.04937e-08
5.64796e-11
1.04666e-08
5.43435e-11
1.04404e-08
5.23459e-11
1.04152e-08
5.04797e-11
1.03909e-08
4.87385e-11
1.03673e-08
4.71152e-11
1.03446e-08
4.56044e-11
1.03225e-08
4.41999e-11
1.0301e-08
4.2896e-11
1.02802e-08
4.16876e-11
1.026e-08
4.05696e-11
1.02402e-08
3.95369e-11
1.02209e-08
3.85851e-11
1.02021e-08
3.77095e-11
1.01836e-08
3.6906e-11
1.01656e-08
3.61706e-11
1.01478e-08
3.54994e-11
1.01304e-08
3.48886e-11
1.01132e-08
3.43349e-11
1.00963e-08
3.3835e-11
1.00796e-08
3.33857e-11
1.00632e-08
3.29839e-11
1.00469e-08
3.26269e-11
1.00307e-08
3.23119e-11
1.00147e-08
3.20365e-11
9.9988e-09
3.17984e-11
9.983e-09
3.1595e-11
9.96729e-09
3.14246e-11
9.95166e-09
3.12849e-11
9.93607e-09
3.11741e-11
9.92053e-09
3.10906e-11
9.90502e-09
3.10329e-11
9.88952e-09
3.09991e-11
9.87403e-09
3.09883e-11
9.85853e-09
3.09989e-11
9.84302e-09
3.10303e-11
9.82748e-09
3.10813e-11
9.81191e-09
3.11512e-11
9.79629e-09
3.12393e-11
9.78062e-09
3.13456e-11
9.76488e-09
3.14697e-11
9.74908e-09
3.16119e-11
9.7332e-09
3.17728e-11
9.71722e-09
3.19531e-11
9.70115e-09
3.21547e-11
9.68496e-09
3.23793e-11
9.66864e-09
3.26303e-11
9.65219e-09
3.29114e-11
9.63558e-09
3.3228e-11
9.61879e-09
3.35873e-11
9.6018e-09
3.39986e-11
9.58456e-09
3.44742e-11
9.56705e-09
3.50299e-11
9.54922e-09
3.56872e-11
9.53099e-09
3.64739e-11
9.51229e-09
3.74269e-11
9.49301e-09
3.85958e-11
9.47301e-09
4.00471e-11
9.4521e-09
4.18714e-11
9.43004e-09
4.41933e-11
9.4065e-09
4.71884e-11
9.38102e-09
5.1108e-11
9.35296e-09
5.6322e-11
9.32141e-09
6.33954e-11
9.28503e-09
7.32288e-11
9.24174e-09
8.73448e-11
9.18817e-09
1.0852e-10
9.11846e-09
1.42361e-10
9.02147e-09
2.01807e-10
8.87555e-09
3.22125e-10
6.16094e-10
8.66024e-09
2.37528e-10
-6.64683e-10
4.76554e-10
-6.68775e-10
7.16819e-10
-6.72186e-10
9.58056e-10
-6.74893e-10
1.19999e-09
-6.76877e-10
1.44235e-09
-6.78125e-10
1.68485e-09
-6.78635e-10
1.92723e-09
-6.7841e-10
2.16922e-09
-6.77463e-10
2.41056e-09
-6.7581e-10
2.65101e-09
-6.73476e-10
2.89033e-09
-6.70492e-10
3.12832e-09
-6.66889e-10
3.36476e-09
-6.62705e-10
3.59948e-09
-6.57979e-10
3.8323e-09
-6.52754e-10
4.06306e-09
-6.4707e-10
4.29162e-09
-6.40968e-10
4.51784e-09
-6.34486e-10
4.74159e-09
-6.27658e-10
4.96272e-09
-6.20513e-10
5.18111e-09
-6.13074e-10
5.39661e-09
-6.0536e-10
5.60907e-09
-5.97385e-10
5.8183e-09
-5.89162e-10
6.02415e-09
-5.80705e-10
6.22644e-09
-5.72036e-10
6.42499e-09
-5.63183e-10
6.61966e-09
-5.54186e-10
6.81031e-09
-5.45099e-10
6.99683e-09
-5.35989e-10
7.17918e-09
-5.26936e-10
7.35733e-09
-5.1803e-10
7.5313e-09
-5.09369e-10
7.70117e-09
-5.01055e-10
7.86704e-09
-4.93194e-10
8.02909e-09
-4.85892e-10
8.1875e-09
-4.79253e-10
8.3425e-09
-4.7338e-10
8.49436e-09
-4.6837e-10
8.64338e-09
-4.64322e-10
8.78991e-09
-4.61328e-10
8.93432e-09
-4.59483e-10
9.07704e-09
-4.58881e-10
9.21858e-09
-4.59624e-10
9.35948e-09
-4.61824e-10
9.50039e-09
-4.65612e-10
9.64201e-09
-4.7115e-10
9.78516e-09
-4.78646e-10
9.93073e-09
-4.88367e-10
1.00797e-08
-5.00659e-10
1.02332e-08
-5.1597e-10
1.03925e-08
-5.34875e-10
1.05587e-08
-5.58108e-10
1.07335e-08
-5.86615e-10
1.09185e-08
-6.21618e-10
1.11156e-08
-6.64725e-10
1.13268e-08
-7.18089e-10
1.15548e-08
-7.84678e-10
1.1802e-08
-8.68722e-10
1.20712e-08
-9.76528e-10
1.23646e-08
-1.11815e-09
1.26833e-08
-1.31107e-09
1.30268e-08
-1.58901e-09
1.33974e-08
-2.01934e-09
1.16553e-08
-2.85363e-09
1.43647e-08
-1.01863e-09
1.43898e-08
1.2905e-09
1.42355e-08
1.13236e-09
1.40227e-08
9.82286e-10
1.37991e-08
8.57222e-10
1.35827e-08
7.56773e-10
1.33792e-08
6.76209e-10
1.31897e-08
6.10793e-10
1.30138e-08
5.56752e-10
1.28502e-08
5.11289e-10
1.26978e-08
4.72382e-10
1.25554e-08
4.38569e-10
1.24222e-08
4.08791e-10
1.22972e-08
3.82268e-10
1.21798e-08
3.58419e-10
1.20692e-08
3.36803e-10
1.19649e-08
3.17077e-10
1.18664e-08
2.98975e-10
1.17734e-08
2.82284e-10
1.16854e-08
2.66833e-10
1.16021e-08
2.52479e-10
1.15231e-08
2.39107e-10
1.14482e-08
2.2662e-10
1.13772e-08
2.14934e-10
1.13097e-08
2.03982e-10
1.12456e-08
1.93701e-10
1.11847e-08
1.8404e-10
1.11268e-08
1.74955e-10
1.10717e-08
1.66404e-10
1.10193e-08
1.58352e-10
1.09694e-08
1.50768e-10
1.09218e-08
1.43623e-10
1.08764e-08
1.36892e-10
1.08332e-08
1.30551e-10
1.07919e-08
1.24578e-10
1.07524e-08
1.18955e-10
1.07147e-08
1.13661e-10
1.06787e-08
1.0868e-10
1.06442e-08
1.03997e-10
1.06112e-08
9.95952e-11
1.05795e-08
9.54612e-11
1.05491e-08
9.15816e-11
1.052e-08
8.79434e-11
1.04919e-08
8.45344e-11
1.04649e-08
8.13434e-11
1.04389e-08
7.83593e-11
1.04138e-08
7.55713e-11
1.03896e-08
7.29698e-11
1.03661e-08
7.0545e-11
1.03435e-08
6.8288e-11
1.03215e-08
6.61897e-11
1.03001e-08
6.42421e-11
1.02794e-08
6.2437e-11
1.02592e-08
6.07669e-11
1.02395e-08
5.92244e-11
1.02203e-08
5.78028e-11
1.02015e-08
5.6495e-11
1.01831e-08
5.52953e-11
1.01651e-08
5.4197e-11
1.01474e-08
5.31947e-11
1.013e-08
5.2283e-11
1.01129e-08
5.14563e-11
1.0096e-08
5.07101e-11
1.00793e-08
5.00395e-11
1.00629e-08
4.944e-11
1.00466e-08
4.89074e-11
1.00305e-08
4.84377e-11
1.00145e-08
4.80272e-11
9.9986e-09
4.76721e-11
9.98282e-09
4.73693e-11
9.96713e-09
4.71155e-11
9.95151e-09
4.69078e-11
9.93594e-09
4.67433e-11
9.92041e-09
4.66196e-11
9.90491e-09
4.65341e-11
9.88942e-09
4.64848e-11
9.87394e-09
4.64697e-11
9.85845e-09
4.64867e-11
9.84295e-09
4.65347e-11
9.82742e-09
4.66119e-11
9.81185e-09
4.67172e-11
9.79624e-09
4.68501e-11
9.78058e-09
4.70098e-11
9.76485e-09
4.71963e-11
9.74905e-09
4.74097e-11
9.73317e-09
4.76508e-11
9.71721e-09
4.79212e-11
9.70114e-09
4.82229e-11
9.68496e-09
4.85592e-11
9.66865e-09
4.89344e-11
9.65221e-09
4.93545e-11
9.63561e-09
4.98273e-11
9.61884e-09
5.03635e-11
9.60186e-09
5.09768e-11
9.58465e-09
5.16852e-11
9.56716e-09
5.25127e-11
9.54936e-09
5.34905e-11
9.53117e-09
5.46598e-11
9.51253e-09
5.60754e-11
9.49331e-09
5.78101e-11
9.4734e-09
5.9962e-11
9.4526e-09
6.26644e-11
9.4307e-09
6.61002e-11
9.40736e-09
7.05261e-11
9.38216e-09
7.63079e-11
9.3545e-09
8.39818e-11
9.32354e-09
9.43586e-11
9.28805e-09
1.08717e-10
9.24621e-09
1.29179e-10
9.19523e-09
1.59505e-10
9.13067e-09
2.06919e-10
9.0458e-09
2.86674e-10
8.93395e-09
4.33981e-10
7.31389e-10
8.81865e-09
2.46475e-10
-9.11158e-10
4.94542e-10
-9.16842e-10
7.43898e-10
-9.21543e-10
9.94231e-10
-9.25226e-10
1.24522e-09
-9.27865e-10
1.49654e-09
-9.29444e-10
1.74786e-09
-9.29956e-10
1.99885e-09
-9.29406e-10
2.2492e-09
-9.27808e-10
2.49858e-09
-9.25187e-10
2.74667e-09
-9.21573e-10
2.99319e-09
-9.17006e-10
3.23783e-09
-9.11532e-10
3.48033e-09
-9.052e-10
3.72041e-09
-8.98066e-10
3.95784e-09
-8.90185e-10
4.19239e-09
-8.81614e-10
4.42383e-09
-8.72413e-10
4.65198e-09
-8.62634e-10
4.87665e-09
-8.52332e-10
5.09769e-09
-8.41553e-10
5.31496e-09
-8.30345e-10
5.52835e-09
-8.18746e-10
5.73776e-09
-8.06797e-10
5.94313e-09
-7.94535e-10
6.14443e-09
-7.82002e-10
6.34164e-09
-7.69243e-10
6.53476e-09
-7.56308e-10
6.72384e-09
-7.4326e-10
6.90891e-09
-7.3017e-10
7.09004e-09
-7.17119e-10
7.2673e-09
-7.04201e-10
7.44079e-09
-6.9152e-10
7.61061e-09
-6.79184e-10
7.77686e-09
-6.67311e-10
7.93969e-09
-6.56023e-10
8.09925e-09
-6.45443e-10
8.25569e-09
-6.35695e-10
8.40921e-09
-6.26905e-10
8.56004e-09
-6.19198e-10
8.70842e-09
-6.12698e-10
8.85462e-09
-6.07532e-10
8.99897e-09
-6.03829e-10
9.14181e-09
-6.01726e-10
9.28356e-09
-6.01368e-10
9.42465e-09
-6.02919e-10
9.5656e-09
-6.06566e-10
9.70698e-09
-6.1253e-10
9.84942e-09
-6.2108e-10
9.9936e-09
-6.32547e-10
1.01403e-08
-6.47339e-10
1.02903e-08
-6.65966e-10
1.04445e-08
-6.89065e-10
1.06038e-08
-7.17432e-10
1.07692e-08
-7.52066e-10
1.09418e-08
-7.94223e-10
1.11226e-08
-8.45495e-10
1.13124e-08
-9.07897e-10
1.15117e-08
-9.83975e-10
1.17199e-08
-1.07687e-09
1.19335e-08
-1.1902e-09
1.21426e-08
-1.32724e-09
1.23193e-08
-1.48776e-09
1.23871e-08
-1.65685e-09
1.2135e-08
-1.76721e-09
1.08655e-08
-1.58415e-09
1.42522e-08
-4.40531e-09
1.41452e-08
1.39757e-09
1.40056e-08
1.27192e-09
1.38342e-08
1.15365e-09
1.36498e-08
1.0416e-09
1.34645e-08
9.42172e-10
1.32843e-08
8.56352e-10
1.31123e-08
7.82826e-10
1.29494e-08
7.19646e-10
1.27957e-08
6.64926e-10
1.26511e-08
6.17068e-10
1.25148e-08
5.74794e-10
1.23865e-08
5.37103e-10
1.22656e-08
5.03216e-10
1.21515e-08
4.72525e-10
1.20437e-08
4.44551e-10
1.19419e-08
4.18913e-10
1.18456e-08
3.95304e-10
1.17544e-08
3.73475e-10
1.1668e-08
3.53221e-10
1.15861e-08
3.34372e-10
1.15084e-08
3.16785e-10
1.14347e-08
3.00341e-10
1.13647e-08
2.84937e-10
1.12982e-08
2.70485e-10
1.1235e-08
2.5691e-10
1.11749e-08
2.44146e-10
1.11177e-08
2.32134e-10
1.10633e-08
2.20824e-10
1.10114e-08
2.1017e-10
1.09621e-08
2.00132e-10
1.0915e-08
1.90672e-10
1.08702e-08
1.81757e-10
1.08274e-08
1.73358e-10
1.07865e-08
1.65445e-10
1.07475e-08
1.57993e-10
1.07101e-08
1.50978e-10
1.06744e-08
1.44377e-10
1.06403e-08
1.38169e-10
1.06075e-08
1.32335e-10
1.05761e-08
1.26855e-10
1.0546e-08
1.21711e-10
1.05171e-08
1.16888e-10
1.04892e-08
1.12369e-10
1.04624e-08
1.08138e-10
1.04366e-08
1.04182e-10
1.04117e-08
1.00486e-10
1.03876e-08
9.70364e-11
1.03643e-08
9.38218e-11
1.03418e-08
9.08296e-11
1.03199e-08
8.8048e-11
1.02987e-08
8.54661e-11
1.02781e-08
8.30734e-11
1.0258e-08
8.08597e-11
1.02384e-08
7.88152e-11
1.02193e-08
7.69311e-11
1.02006e-08
7.51981e-11
1.01823e-08
7.36081e-11
1.01643e-08
7.2153e-11
1.01467e-08
7.08251e-11
1.01293e-08
6.96175e-11
1.01123e-08
6.85227e-11
1.00954e-08
6.75346e-11
1.00788e-08
6.66467e-11
1.00624e-08
6.58533e-11
1.00462e-08
6.51485e-11
1.00301e-08
6.45274e-11
1.00141e-08
6.39846e-11
9.9983e-09
6.35155e-11
9.98255e-09
6.31158e-11
9.96688e-09
6.2781e-11
9.95129e-09