/*--------------------------------*- C++ -*----------------------------------*\
  =========                 |
  \\      /  F ield         | OpenFOAM: The Open Source CFD Toolbox
   \\    /   O peration     | Website:  https://openfoam.org
    \\  /    A nd           | Version:  10
     \\/     M anipulation  |
\*---------------------------------------------------------------------------*/
FoamFile
{
    format      ascii;
    class       surfaceScalarField;
    location    "22800";
    object      phi;
}
// * * * * * * * * * * * * * * * * * * * * * * * * * * * * * * * * * * * * * //

dimensions      [0 3 -1 0 0 0 0];

internalField   nonuniform List<scalar> 
12640
(
-3.06715e-06
3.06715e-06
-3.20647e-06
1.39323e-07
-3.10088e-06
-1.05589e-07
-3.06862e-06
-3.22574e-08
-2.90037e-06
-1.68248e-07
-2.85876e-06
-4.16182e-08
-2.7659e-06
-9.28567e-08
-2.75868e-06
-7.223e-09
-3.00301e-06
2.44334e-07
-3.01402e-06
1.10065e-08
-2.97829e-06
-3.57229e-08
-2.8625e-06
-1.15798e-07
-2.80399e-06
-5.8506e-08
-2.76182e-06
-4.21673e-08
-2.68262e-06
-7.92027e-08
-2.63429e-06
-4.83337e-08
-2.60474e-06
-2.95462e-08
-2.5719e-06
-3.2837e-08
-2.52989e-06
-4.20106e-08
-2.49642e-06
-3.34729e-08
-2.46013e-06
-3.62871e-08
-2.40346e-06
-5.66733e-08
-2.34404e-06
-5.94194e-08
-2.30029e-06
-4.37516e-08
-2.25997e-06
-4.03145e-08
-2.20063e-06
-5.93478e-08
-2.10935e-06
-9.1278e-08
-2.0323e-06
-7.70445e-08
-1.97169e-06
-6.06104e-08
-1.90293e-06
-6.87613e-08
-1.78971e-06
-1.13222e-07
-1.59466e-06
-1.9505e-07
-1.47823e-06
-1.16425e-07
-1.34234e-06
-1.35891e-07
-1.18469e-06
-1.57658e-07
-1.00172e-06
-1.8297e-07
-7.89985e-07
-2.1173e-07
-5.48599e-07
-2.41386e-07
-2.8178e-07
-2.66818e-07
1.2305e-17
-2.8178e-07
2.8178e-07
-2.8178e-07
5.48599e-07
-2.66818e-07
7.89985e-07
-2.41386e-07
1.00172e-06
-2.1173e-07
1.18469e-06
-1.8297e-07
1.34234e-06
-1.57658e-07
1.47823e-06
-1.35891e-07
1.59466e-06
-1.16425e-07
1.78971e-06
-1.9505e-07
1.90293e-06
-1.13222e-07
1.97169e-06
-6.87613e-08
2.0323e-06
-6.06104e-08
2.10935e-06
-7.70445e-08
2.20063e-06
-9.1278e-08
2.25997e-06
-5.93478e-08
2.30029e-06
-4.03145e-08
2.34404e-06
-4.37516e-08
2.40346e-06
-5.94194e-08
2.46013e-06
-5.66733e-08
2.49642e-06
-3.62871e-08
2.52989e-06
-3.34729e-08
2.5719e-06
-4.20106e-08
2.60474e-06
-3.2837e-08
2.63429e-06
-2.95462e-08
2.68262e-06
-4.83337e-08
2.76182e-06
-7.92027e-08
2.80399e-06
-4.21673e-08
2.8625e-06
-5.8506e-08
2.97829e-06
-1.15798e-07
3.01402e-06
-3.57229e-08
3.00301e-06
1.10065e-08
2.75868e-06
2.44334e-07
2.7659e-06
-7.223e-09
2.85876e-06
-9.28567e-08
2.90037e-06
-4.16182e-08
3.06862e-06
-1.68248e-07
3.10088e-06
-3.22574e-08
3.20647e-06
-1.05589e-07
3.06715e-06
1.39323e-07
3.06715e-06
2.61893e-07
2.80525e-06
-1.19878e-06
1.6e-06
-3.04807e-06
1.7437e-06
-3.1949e-06
1.14577e-07
-3.04921e-06
-3.13934e-07
-3.03275e-06
-5.8086e-08
-2.9382e-06
-1.87401e-07
-2.9299e-06
-1.55303e-08
-3.21829e-06
5.32732e-07
-3.22554e-06
1.82501e-08
-3.19216e-06
-6.91042e-08
-3.06421e-06
-2.43741e-07
-3.00561e-06
-1.17111e-07
-2.96473e-06
-8.30425e-08
-2.87805e-06
-1.65881e-07
-2.82807e-06
-9.83162e-08
-2.79855e-06
-5.90658e-08
-2.76457e-06
-6.68157e-08
-2.71948e-06
-8.71006e-08
-2.68484e-06
-6.81163e-08
-2.64737e-06
-7.37594e-08
-2.5862e-06
-1.1784e-07
-2.52196e-06
-1.23665e-07
-2.47595e-06
-8.97527e-08
-2.43408e-06
-8.21927e-08
-2.37119e-06
-1.22234e-07
-2.27105e-06
-1.91415e-07
-2.18828e-06
-1.59821e-07
-2.12443e-06
-1.2446e-07
-2.05231e-06
-1.40881e-07
-1.93228e-06
-2.33252e-07
-1.72275e-06
-4.04579e-07
-1.59761e-06
-2.41565e-07
-1.45175e-06
-2.81752e-07
-1.28272e-06
-3.26691e-07
-1.08637e-06
-3.79313e-07
-8.58419e-07
-4.39684e-07
-5.97281e-07
-5.02524e-07
-3.0724e-07
-5.5686e-07
2.35001e-17
-5.8902e-07
3.0724e-07
-5.8902e-07
5.97281e-07
-5.5686e-07
8.58419e-07
-5.02524e-07
1.08637e-06
-4.39684e-07
1.28272e-06
-3.79313e-07
1.45175e-06
-3.26691e-07
1.59761e-06
-2.81752e-07
1.72275e-06
-2.41565e-07
1.93228e-06
-4.04579e-07
2.05231e-06
-2.33252e-07
2.12443e-06
-1.40881e-07
2.18828e-06
-1.2446e-07
2.27105e-06
-1.59821e-07
2.37119e-06
-1.91415e-07
2.43408e-06
-1.22234e-07
2.47595e-06
-8.21927e-08
2.52196e-06
-8.97527e-08
2.5862e-06
-1.23665e-07
2.64737e-06
-1.1784e-07
2.68484e-06
-7.37594e-08
2.71948e-06
-6.81163e-08
2.76457e-06
-8.71006e-08
2.79855e-06
-6.68157e-08
2.82807e-06
-5.90658e-08
2.87805e-06
-9.83162e-08
2.96473e-06
-1.65881e-07
3.00561e-06
-8.30425e-08
3.06421e-06
-1.17111e-07
3.19216e-06
-2.43741e-07
3.22554e-06
-6.91042e-08
3.21829e-06
1.82501e-08
2.9299e-06
5.32732e-07
2.9382e-06
-1.55303e-08
3.03275e-06
-1.87401e-07
3.04921e-06
-5.8086e-08
3.1949e-06
-3.13934e-07
3.04807e-06
1.14577e-07
1.19878e-06
1.7437e-06
-2.61893e-07
1.6e-06
2.80525e-06
2.26061e-07
2.57919e-06
1.01702e-07
1.72435e-06
4.80852e-08
1.79731e-06
-1.9314e-06
2.09407e-06
-3.01423e-06
7.68887e-07
-3.18391e-06
1.11594e-07
-3.11017e-06
-2.61134e-07
-3.09946e-06
-2.62427e-08
-3.47826e-06
9.11534e-07
-3.46917e-06
9.15893e-09
-3.44312e-06
-9.51569e-08
-3.29163e-06
-3.95228e-07
-3.23641e-06
-1.72329e-07
-3.20107e-06
-1.18386e-07
-3.10061e-06
-2.66337e-07
-3.04966e-06
-1.49273e-07
-3.02162e-06
-8.71042e-08
-2.98662e-06
-1.01819e-07
-2.93651e-06
-1.37204e-07
-2.90123e-06
-1.03395e-07
-2.86359e-06
-1.11404e-07
-2.79586e-06
-1.85569e-07
-2.72464e-06
-1.94885e-07
-2.67685e-06
-1.37539e-07
-2.63468e-06
-1.24368e-07
-2.56867e-06
-1.88241e-07
-2.45489e-06
-3.05193e-07
-2.36539e-06
-2.49322e-07
-2.2995e-06
-1.90355e-07
-2.22599e-06
-2.14389e-07
-2.10075e-06
-3.58487e-07
-1.87529e-06
-6.3004e-07
-1.74052e-06
-3.7634e-07
-1.58404e-06
-4.38227e-07
-1.40332e-06
-5.07408e-07
-1.19307e-06
-5.89568e-07
-9.47086e-07
-6.85666e-07
-6.62033e-07
-7.87577e-07
-3.4176e-07
-8.77133e-07
3.53112e-17
-9.3078e-07
3.4176e-07
-9.3078e-07
6.62033e-07
-8.77133e-07
9.47086e-07
-7.87577e-07
1.19307e-06
-6.85666e-07
1.40332e-06
-5.89568e-07
1.58404e-06
-5.07408e-07
1.74052e-06
-4.38227e-07
1.87529e-06
-3.7634e-07
2.10075e-06
-6.3004e-07
2.22599e-06
-3.58487e-07
2.2995e-06
-2.14389e-07
2.36539e-06
-1.90355e-07
2.45489e-06
-2.49322e-07
2.56867e-06
-3.05193e-07
2.63468e-06
-1.88241e-07
2.67685e-06
-1.24368e-07
2.72464e-06
-1.37539e-07
2.79586e-06
-1.94885e-07
2.86359e-06
-1.85569e-07
2.90123e-06
-1.11404e-07
2.93651e-06
-1.03395e-07
2.98662e-06
-1.37204e-07
3.02162e-06
-1.01819e-07
3.04966e-06
-8.71042e-08
3.10061e-06
-1.49273e-07
3.20107e-06
-2.66337e-07
3.23641e-06
-1.18386e-07
3.29163e-06
-1.72329e-07
3.44312e-06
-3.95228e-07
3.46917e-06
-9.51568e-08
3.47826e-06
9.15893e-09
3.09946e-06
9.11534e-07
3.11017e-06
-2.62427e-08
3.18391e-06
-2.61134e-07
3.01423e-06
1.11594e-07
1.9314e-06
7.68887e-07
-4.80852e-08
2.09407e-06
-1.01702e-07
1.79731e-06
-2.26061e-07
1.72435e-06
2.57919e-06
1.89168e-07
2.39002e-06
1.16566e-07
1.79696e-06
1.23442e-07
1.79044e-06
3.12002e-07
1.90551e-06
2.74691e-08
1.05342e-06
-1.45076e-06
1.58982e-06
-3.01743e-06
1.30553e-06
-3.16718e-06
1.23511e-07
-3.75589e-06
1.50024e-06
-3.72098e-06
-2.57542e-08
-3.72077e-06
-9.53631e-08
-3.52989e-06
-5.86111e-07
-3.48726e-06
-2.14951e-07
-3.46655e-06
-1.391e-07
-3.3423e-06
-3.90583e-07
-3.29292e-06
-1.98653e-07
-3.26939e-06
-1.10641e-07
-3.23414e-06
-1.37071e-07
-3.17614e-06
-1.95199e-07
-3.14167e-06
-1.3787e-07
-3.10616e-06
-1.46906e-07
-3.02895e-06
-2.62781e-07
-2.94775e-06
-2.76092e-07
-2.89947e-06
-1.85816e-07
-2.85946e-06
-1.64375e-07
-2.79191e-06
-2.55788e-07
-2.657e-06
-4.40108e-07
-2.56003e-06
-3.46294e-07
-2.49452e-06
-2.55865e-07
-2.42325e-06
-2.85656e-07
-2.29634e-06
-4.85397e-07
-2.05389e-06
-8.72492e-07
-1.90867e-06
-5.21559e-07
-1.74153e-06
-6.0537e-07
-1.55007e-06
-6.98864e-07
-1.32692e-06
-8.12713e-07
-1.06223e-06
-9.5036e-07
-7.48879e-07
-1.10093e-06
-3.8916e-07
-1.23685e-06
2.23274e-17
-1.31994e-06
3.8916e-07
-1.31994e-06
7.48879e-07
-1.23685e-06
1.06223e-06
-1.10093e-06
1.32692e-06
-9.5036e-07
1.55007e-06
-8.12713e-07
1.74153e-06
-6.98864e-07
1.90867e-06
-6.0537e-07
2.05389e-06
-5.21559e-07
2.29634e-06
-8.72492e-07
2.42325e-06
-4.85397e-07
2.49452e-06
-2.85656e-07
2.56003e-06
-2.55865e-07
2.657e-06
-3.46294e-07
2.79191e-06
-4.40108e-07
2.85946e-06
-2.55788e-07
2.89947e-06
-1.64375e-07
2.94775e-06
-1.85816e-07
3.02895e-06
-2.76092e-07
3.10616e-06
-2.62781e-07
3.14167e-06
-1.46906e-07
3.17614e-06
-1.3787e-07
3.23414e-06
-1.95199e-07
3.26939e-06
-1.37071e-07
3.29292e-06
-1.10641e-07
3.3423e-06
-1.98653e-07
3.46655e-06
-3.90583e-07
3.48726e-06
-1.391e-07
3.52989e-06
-2.14951e-07
3.72077e-06
-5.86111e-07
3.72098e-06
-9.53631e-08
3.75589e-06
-2.57542e-08
3.16718e-06
1.50024e-06
3.01743e-06
1.23511e-07
1.45076e-06
1.30553e-06
-2.74691e-08
1.58982e-06
-3.12002e-07
1.05342e-06
-1.23442e-07
1.90551e-06
-1.16566e-07
1.79044e-06
-1.89168e-07
1.79696e-06
2.39002e-06
1.58422e-07
2.2316e-06
1.27313e-07
1.82807e-06
1.44914e-07
1.77284e-06
2.71722e-07
1.7787e-06
9.3769e-08
1.23137e-06
1.751e-07
1.50849e-06
1.72598e-07
1.30804e-06
-4.45013e-07
7.41122e-07
-3.59088e-06
4.64611e-06
-3.79303e-06
1.76399e-07
-3.96844e-06
8.00427e-08
-3.74074e-06
-8.13808e-07
-3.74122e-06
-2.14474e-07
-3.75755e-06
-1.22769e-07
-3.59353e-06
-5.54603e-07
-3.55324e-06
-2.38947e-07
-3.54028e-06
-1.236e-07
-3.50688e-06
-1.70467e-07
-3.4361e-06
-2.65976e-07
-3.40548e-06
-1.68493e-07
-3.37681e-06
-1.75577e-07
-3.28538e-06
-3.54214e-07
-3.18939e-06
-3.72078e-07
-3.14327e-06
-2.31938e-07
-3.10966e-06
-1.97987e-07
-3.04443e-06
-3.21015e-07
-2.87534e-06
-6.09203e-07
-2.77066e-06
-4.50967e-07
-2.70974e-06
-3.16788e-07
-2.64662e-06
-3.4878e-07
-2.52446e-06
-6.07556e-07
-2.26376e-06
-1.13319e-06
-2.10675e-06
-6.7857e-07
-1.92934e-06
-7.82777e-07
-1.73001e-06
-8.98197e-07
-1.49773e-06
-1.04499e-06
-1.21582e-06
-1.23226e-06
-8.69608e-07
-1.44714e-06
-4.57095e-07
-1.64936e-06
4.99901e-18
-1.77704e-06
4.57095e-07
-1.77704e-06
8.69608e-07
-1.64936e-06
1.21582e-06
-1.44714e-06
1.49773e-06
-1.23226e-06
1.73001e-06
-1.04499e-06
1.92934e-06
-8.98197e-07
2.10675e-06
-7.82777e-07
2.26376e-06
-6.7857e-07
2.52446e-06
-1.13319e-06
2.64662e-06
-6.07556e-07
2.70974e-06
-3.4878e-07
2.77066e-06
-3.16788e-07
2.87534e-06
-4.50967e-07
3.04443e-06
-6.09203e-07
3.10966e-06
-3.21015e-07
3.14327e-06
-1.97987e-07
3.18939e-06
-2.31938e-07
3.28538e-06
-3.72078e-07
3.37681e-06
-3.54214e-07
3.40548e-06
-1.75577e-07
3.4361e-06
-1.68493e-07
3.50688e-06
-2.65976e-07
3.54028e-06
-1.70467e-07
3.55324e-06
-1.236e-07
3.59353e-06
-2.38947e-07
3.75755e-06
-5.54603e-07
3.74122e-06
-1.22769e-07
3.74074e-06
-2.14474e-07
3.96844e-06
-8.13808e-07
3.79303e-06
8.00427e-08
3.59088e-06
1.76399e-07
4.45013e-07
4.64611e-06
-1.72598e-07
7.41122e-07
-1.751e-07
1.30804e-06
-9.3769e-08
1.50849e-06
-2.71722e-07
1.23137e-06
-1.44914e-07
1.7787e-06
-1.27313e-07
1.77284e-06
-1.58422e-07
1.82807e-06
2.2316e-06
1.33602e-07
2.098e-06
1.34144e-07
1.82752e-06
1.59528e-07
1.74745e-06
2.43562e-07
1.69467e-06
1.30427e-07
1.34451e-06
1.72104e-07
1.46682e-06
1.32924e-07
1.34722e-06
-3.3456e-07
1.20861e-06
8.95206e-07
3.41634e-06
1.66011e-07
9.05594e-07
-1.51291e-06
1.75896e-06
-3.47537e-06
1.14866e-06
-3.82847e-06
1.38627e-07
-4.02205e-06
7.0811e-08
-3.81643e-06
-7.60229e-07
-3.81402e-06
-2.41352e-07
-3.82744e-06
-1.10186e-07
-3.80282e-06
-1.95083e-07
-3.71123e-06
-3.57565e-07
-3.69135e-06
-1.88378e-07
-3.67933e-06
-1.87592e-07
-3.56555e-06
-4.6799e-07
-3.44676e-06
-4.90874e-07
-3.40811e-06
-2.70584e-07
-3.38789e-06
-2.18213e-07
-3.33399e-06
-3.74911e-07
-3.10633e-06
-8.36865e-07
-2.9954e-06
-5.61896e-07
-2.94604e-06
-3.66147e-07
-2.90023e-06
-3.94586e-07
-2.79419e-06
-7.13603e-07
-2.51291e-06
-1.41447e-06
-2.34063e-06
-8.50852e-07
-2.15354e-06
-9.69874e-07
-1.95277e-06
-1.09896e-06
-1.72083e-06
-1.27694e-06
-1.42855e-06
-1.52454e-06
-1.04618e-06
-1.82951e-06
-5.60654e-07
-2.13489e-06
3.046e-17
-2.33769e-06
5.60654e-07
-2.33769e-06
1.04618e-06
-2.13489e-06
1.42855e-06
-1.82951e-06
1.72083e-06
-1.52454e-06
1.95277e-06
-1.27694e-06
2.15354e-06
-1.09896e-06
2.34063e-06
-9.69874e-07
2.51291e-06
-8.50852e-07
2.79419e-06
-1.41447e-06
2.90023e-06
-7.13603e-07
2.94604e-06
-3.94586e-07
2.9954e-06
-3.66147e-07
3.10633e-06
-5.61896e-07
3.33399e-06
-8.36865e-07
3.38789e-06
-3.74911e-07
3.40811e-06
-2.18213e-07
3.44676e-06
-2.70584e-07
3.56555e-06
-4.90874e-07
3.67933e-06
-4.6799e-07
3.69135e-06
-1.87592e-07
3.71123e-06
-1.88378e-07
3.80282e-06
-3.57565e-07
3.82744e-06
-1.95083e-07
3.81402e-06
-1.10186e-07
3.81643e-06
-2.41352e-07
4.02205e-06
-7.60229e-07
3.82847e-06
7.0811e-08
3.47537e-06
1.38627e-07
1.51291e-06
1.14866e-06
-1.66011e-07
1.75896e-06
-8.95206e-07
9.05594e-07
3.3456e-07
3.41634e-06
-1.32924e-07
1.20861e-06
-1.72104e-07
1.34722e-06
-1.30427e-07
1.46682e-06
-2.43562e-07
1.34451e-06
-1.59528e-07
1.69467e-06
-1.34144e-07
1.74745e-06
-1.33602e-07
1.82752e-06
2.098e-06
1.14155e-07
1.98384e-06
1.37546e-07
1.80413e-06
1.68654e-07
1.71635e-06
2.25222e-07
1.6381e-06
1.57699e-07
1.41203e-06
1.74449e-07
1.45007e-06
1.29199e-07
1.39247e-06
-1.02632e-07
1.44044e-06
6.81285e-07
2.63242e-06
3.22978e-07
1.2639e-06
5.21929e-07
1.56001e-06
5.29955e-07
1.14063e-06
7.09026e-08
5.97679e-07
-1.43743e-06
1.57914e-06
-3.48069e-06
1.28303e-06
-3.85932e-06
1.37285e-07
-4.04012e-06
7.06088e-08
-4.08686e-06
-1.48343e-07
-3.97522e-06
-4.69199e-07
-3.98798e-06
-1.75616e-07
-4.01661e-06
-1.58968e-07
-3.86721e-06
-6.17392e-07
-3.71235e-06
-6.45733e-07
-3.6926e-06
-2.90326e-07
-3.69706e-06
-2.13755e-07
-3.676e-06
-3.95975e-07
-3.3411e-06
-1.17176e-06
-3.23062e-06
-6.72375e-07
-3.20422e-06
-3.92548e-07
-3.18948e-06
-4.09329e-07
-3.12005e-06
-7.83033e-07
-2.81331e-06
-1.72121e-06
-2.61536e-06
-1.0488e-06
-2.41809e-06
-1.16715e-06
-2.2295e-06
-1.28755e-06
-2.01959e-06
-1.48684e-06
-1.73677e-06
-1.80737e-06
-1.32161e-06
-2.24467e-06
-7.31964e-07
-2.72453e-06
3.51562e-17
-3.06965e-06
7.31964e-07
-3.06965e-06
1.32161e-06
-2.72453e-06
1.73677e-06
-2.24467e-06
2.01959e-06
-1.80737e-06
2.2295e-06
-1.48684e-06
2.41809e-06
-1.28755e-06
2.61536e-06
-1.16715e-06
2.81331e-06
-1.0488e-06
3.12005e-06
-1.72121e-06
3.18948e-06
-7.83033e-07
3.20422e-06
-4.09329e-07
3.23062e-06
-3.92548e-07
3.3411e-06
-6.72375e-07
3.676e-06
-1.17176e-06
3.69706e-06
-3.95975e-07
3.6926e-06
-2.13755e-07
3.71235e-06
-2.90326e-07
3.86721e-06
-6.45733e-07
4.01661e-06
-6.17392e-07
3.98798e-06
-1.58968e-07
3.97522e-06
-1.75616e-07
4.08686e-06
-4.69199e-07
4.04012e-06
-1.48343e-07
3.85932e-06
7.06088e-08
3.48069e-06
1.37285e-07
1.43743e-06
1.28303e-06
-7.09026e-08
1.57914e-06
-5.29955e-07
5.97679e-07
-5.21929e-07
1.14063e-06
-3.22978e-07
1.56001e-06
-6.81285e-07
1.2639e-06
1.02632e-07
2.63242e-06
-1.29199e-07
1.44044e-06
-1.74449e-07
1.39247e-06
-1.57699e-07
1.45007e-06
-2.25222e-07
1.41203e-06
-1.68654e-07
1.6381e-06
-1.37546e-07
1.71635e-06
-1.14155e-07
1.80413e-06
1.98384e-06
9.93234e-08
1.88452e-06
1.3822e-07
1.76523e-06
1.73714e-07
1.68085e-06
2.14469e-07
1.59734e-06
1.78447e-07
1.44805e-06
1.83044e-07
1.44547e-06
1.48618e-07
1.42689e-06
5.91156e-08
1.52994e-06
5.50139e-07
2.1414e-06
3.96899e-07
1.41714e-06
5.12062e-07
1.44485e-06
5.03065e-07
1.14963e-06
2.54151e-07
8.46592e-07
4.93021e-07
1.34027e-06
6.35944e-07
1.1401e-06
2.86145e-07
4.87084e-07
-3.98142e-07
7.54896e-07
-3.20595e-06
2.65946e-06
-3.85647e-06
1.81324e-07
-4.11296e-06
8.08732e-08
-4.32443e-06
5.25046e-08
-4.15496e-06
-7.86862e-07
-3.95519e-06
-8.45505e-07
-3.98585e-06
-2.59665e-07
-4.03463e-06
-1.6498e-07
-4.10115e-06
-3.29455e-07
-3.55605e-06
-1.71686e-06
-3.46925e-06
-7.59179e-07
-3.48422e-06
-3.77575e-07
-3.52014e-06
-3.73413e-07
-3.52618e-06
-7.76986e-07
-3.18493e-06
-2.06246e-06
-2.92878e-06
-1.30495e-06
-2.7158e-06
-1.38013e-06
-2.56825e-06
-1.4351e-06
-2.42843e-06
-1.62666e-06
-2.20615e-06
-2.02965e-06
-1.78605e-06
-2.66477e-06
-1.04706e-06
-3.46352e-06
-2.89916e-17
-4.11672e-06
1.04706e-06
-4.11672e-06
1.78605e-06
-3.46352e-06
2.20615e-06
-2.66477e-06
2.42843e-06
-2.02965e-06
2.56825e-06
-1.62666e-06
2.7158e-06
-1.4351e-06
2.92878e-06
-1.38013e-06
3.18493e-06
-1.30495e-06
3.52618e-06
-2.06246e-06
3.52014e-06
-7.76986e-07
3.48422e-06
-3.73413e-07
3.46925e-06
-3.77575e-07
3.55605e-06
-7.59179e-07
4.10115e-06
-1.71686e-06
4.03463e-06
-3.29455e-07
3.98585e-06
-1.6498e-07
3.95519e-06
-2.59665e-07
4.15496e-06
-8.45505e-07
4.32443e-06
-7.86862e-07
4.11296e-06
5.25046e-08
3.85647e-06
8.08732e-08
3.20595e-06
1.81324e-07
3.98142e-07
2.65946e-06
-2.86145e-07
7.54896e-07
-6.35944e-07
4.87084e-07
-4.93021e-07
1.1401e-06
-2.54151e-07
1.34027e-06
-5.03065e-07
8.46592e-07
-5.12062e-07
1.14963e-06
-3.96899e-07
1.44485e-06
-5.50139e-07
1.41714e-06
-5.91156e-08
2.1414e-06
-1.48618e-07
1.52994e-06
-1.83044e-07
1.42689e-06
-1.78447e-07
1.44547e-06
-2.14469e-07
1.44805e-06
-1.73714e-07
1.59734e-06
-1.3822e-07
1.68085e-06
-9.93234e-08
1.76523e-06
1.88452e-06
8.8271e-08
1.79625e-06
1.36982e-07
1.71652e-06
1.76063e-07
1.64177e-06
2.09367e-07
1.56404e-06
1.95277e-07
1.46214e-06
1.97549e-07
1.4432e-06
1.80863e-07
1.44358e-06
1.7079e-07
1.54001e-06
4.7791e-07
1.83428e-06
4.4013e-07
1.45492e-06
5.10488e-07
1.37449e-06
4.99265e-07
1.16085e-06
3.64302e-07
9.81556e-07
5.06074e-07
1.1985e-06
5.84368e-07
1.06181e-06
3.60287e-07
7.11164e-07
1.88547e-07
9.26636e-07
1.02767e-06
1.82034e-06
6.67751e-07
5.41239e-07
3.91438e-07
3.57186e-07
-3.1007e-07
7.54013e-07
-2.78538e-06
1.68845e-06
-3.75447e-06
1.23582e-07
-4.0783e-06
6.4172e-08
-4.28803e-06
4.47497e-08
-4.64229e-06
2.48011e-08
-3.67281e-06
-2.68634e-06
-3.69205e-06
-7.39939e-07
-3.78026e-06
-2.89356e-07
-3.89338e-06
-2.60293e-07
-4.05444e-06
-6.15926e-07
-3.67092e-06
-2.44598e-06
-3.24919e-06
-1.72668e-06
-3.0001e-06
-1.62922e-06
-2.95951e-06
-1.47569e-06
-2.99289e-06
-1.59328e-06
-2.95487e-06
-2.06768e-06
-2.64188e-06
-2.97776e-06
-1.71113e-06
-4.39426e-06
-8.48388e-17
-5.82785e-06
1.71113e-06
-5.82785e-06
2.64188e-06
-4.39426e-06
2.95487e-06
-2.97776e-06
2.99289e-06
-2.06768e-06
2.95951e-06
-1.59328e-06
3.0001e-06
-1.47569e-06
3.24919e-06
-1.62922e-06
3.67092e-06
-1.72668e-06
4.05444e-06
-2.44598e-06
3.89338e-06
-6.15926e-07
3.78026e-06
-2.60293e-07
3.69205e-06
-2.89356e-07
3.67281e-06
-7.39939e-07
4.64229e-06
-2.68634e-06
4.28803e-06
2.48011e-08
4.0783e-06
4.47497e-08
3.75447e-06
6.4172e-08
2.78538e-06
1.23582e-07
3.1007e-07
1.68845e-06
-3.91438e-07
7.54013e-07
-6.67751e-07
3.57186e-07
-1.02767e-06
5.41239e-07
-1.88547e-07
1.82034e-06
-3.60287e-07
9.26636e-07
-5.84368e-07
7.11164e-07
-5.06074e-07
1.06181e-06
-3.64302e-07
1.1985e-06
-4.99265e-07
9.81556e-07
-5.10488e-07
1.16085e-06
-4.4013e-07
1.37449e-06
-4.7791e-07
1.45492e-06
-1.7079e-07
1.83428e-06
-1.80863e-07
1.54001e-06
-1.97549e-07
1.44358e-06
-1.95277e-07
1.4432e-06
-2.09367e-07
1.46214e-06
-1.76063e-07
1.56404e-06
-1.36982e-07
1.64177e-06
-8.8271e-08
1.71652e-06
1.79625e-06
8.01985e-08
1.71605e-06
1.34663e-07
1.66206e-06
1.76907e-07
1.59953e-06
2.08398e-07
1.53255e-06
2.10235e-07
1.46031e-06
2.16758e-07
1.43667e-06
2.18476e-07
1.44186e-06
2.48669e-07
1.50982e-06
4.45105e-07
1.63784e-06
4.65978e-07
1.43405e-06
5.15383e-07
1.32508e-06
5.10232e-07
1.166e-06
4.44799e-07
1.04699e-06
5.2658e-07
1.11672e-06
5.67856e-07
1.02053e-06
4.40088e-07
8.38933e-07
3.93099e-07
9.73625e-07
8.60535e-07
1.35291e-06
6.94039e-07
7.07734e-07
5.12297e-07
5.38928e-07
5.02074e-07
7.64236e-07
1.0398e-06
1.15072e-06
8.10365e-07
3.53021e-07
6.80978e-07
1.93559e-07
4.78729e-07
2.46999e-07
-9.14244e-08
5.94954e-07
-2.80263e-06
2.48583e-08
-3.58827e-06
4.57083e-08
-3.9135e-06
3.5872e-08
-4.20352e-06
2.97235e-08
-4.74619e-06
-7.32557e-08
-4.38528e-06
-2.8069e-06
-3.4171e-06
-2.69486e-06
-3.09245e-06
-1.95386e-06
-3.33738e-06
-1.23076e-06
-3.75155e-06
-1.1791e-06
-4.17059e-06
-1.64864e-06
-4.3654e-06
-2.78295e-06
-3.37275e-06
-5.38691e-06
-1.00519e-16
-9.2006e-06
3.37275e-06
-9.2006e-06
4.3654e-06
-5.38691e-06
4.17059e-06
-2.78295e-06
3.75155e-06
-1.64864e-06
3.33738e-06
-1.1791e-06
3.09245e-06
-1.23076e-06
3.4171e-06
-1.95386e-06
4.38528e-06
-2.69486e-06
4.74619e-06
-2.8069e-06
4.20352e-06
-7.32557e-08
3.9135e-06
2.97235e-08
3.58827e-06
3.5872e-08
2.80263e-06
4.57083e-08
9.14244e-08
2.48583e-08
-4.78729e-07
5.94954e-07
-6.80978e-07
2.46999e-07
-8.10365e-07
1.93559e-07
-1.0398e-06
3.53021e-07
-5.02074e-07
1.15072e-06
-5.12297e-07
7.64236e-07
-6.94039e-07
5.38928e-07
-8.60535e-07
7.07734e-07
-3.93099e-07
1.35291e-06
-4.40088e-07
9.73625e-07
-5.67856e-07
8.38933e-07
-5.2658e-07
1.02053e-06
-4.44799e-07
1.11672e-06
-5.10232e-07
1.04699e-06
-5.15383e-07
1.166e-06
-4.65978e-07
1.32508e-06
-4.45105e-07
1.43405e-06
-2.48669e-07
1.63784e-06
-2.18476e-07
1.50982e-06
-2.16758e-07
1.44186e-06
-2.10235e-07
1.43667e-06
-2.08398e-07
1.46031e-06
-1.76907e-07
1.53255e-06
-1.34663e-07
1.59953e-06
-8.01985e-08
1.66206e-06
1.71605e-06
7.44235e-08
1.64163e-06
1.32021e-07
1.60446e-06
1.77239e-07
1.55431e-06
2.1046e-07
1.49933e-06
2.24664e-07
1.4461e-06
2.39047e-07
1.42229e-06
2.56671e-07
1.42424e-06
3.04852e-07
1.46164e-06
4.37096e-07
1.5056e-06
4.8377e-07
1.38737e-06
5.25392e-07
1.28346e-06
5.29789e-07
1.16161e-06
5.05354e-07
1.07142e-06
5.53444e-07
1.06863e-06
5.77298e-07
9.96678e-07
5.16477e-07
8.99754e-07
5.26276e-07
9.63825e-07
7.82063e-07
1.09712e-06
7.18908e-07
7.70889e-07
6.18402e-07
6.39434e-07
6.47608e-07
7.35029e-07
9.4044e-07
8.57888e-07
8.48839e-07
4.44622e-07
7.60316e-07
2.82083e-07
7.25539e-07
2.81776e-07
9.31614e-07
3.88879e-07
8.56496e-07
9.99766e-08
8.6582e-07
3.6384e-08
9.09103e-07
-7.4107e-09
9.69216e-07
-3.03897e-08
8.26901e-07
6.90592e-08
9.8535e-08
-2.07853e-06
-1.13513e-07
-2.48281e-06
-2.06748e-06
1.08175e-10
-3.30041e-06
2.16253e-09
-4.48315e-06
3.63477e-09
-5.84631e-06
-2.85481e-07
-7.97428e-06
-6.54981e-07
-8.46416e-06
-4.89703e-06
-3.487e-16
-1.76648e-05
8.46416e-06
-1.76648e-05
7.97428e-06
-4.89703e-06
5.84631e-06
-6.54981e-07
4.48315e-06
-2.85481e-07
3.30041e-06
3.63477e-09
2.06748e-06
2.16253e-09
1.13513e-07
1.08175e-10
-9.8535e-08
-2.48281e-06
-8.26901e-07
-2.07853e-06
-9.69216e-07
6.90592e-08
-9.09103e-07
-3.03897e-08
-8.6582e-07
-7.4107e-09
-8.56496e-07
3.6384e-08
-9.31614e-07
9.99766e-08
-7.25539e-07
3.88879e-07
-7.60316e-07
2.81776e-07
-8.48839e-07
2.82083e-07
-9.4044e-07
4.44622e-07
-6.47608e-07
8.57888e-07
-6.18402e-07
7.35029e-07
-7.18908e-07
6.39434e-07
-7.82063e-07
7.70889e-07
-5.26276e-07
1.09712e-06
-5.16477e-07
9.63825e-07
-5.77298e-07
8.99754e-07
-5.53444e-07
9.96678e-07
-5.05354e-07
1.06863e-06
-5.29789e-07
1.07142e-06
-5.25392e-07
1.16161e-06
-4.8377e-07
1.28346e-06
-4.37096e-07
1.38737e-06
-3.04852e-07
1.5056e-06
-2.56671e-07
1.46164e-06
-2.39047e-07
1.42424e-06
-2.24664e-07
1.42229e-06
-2.1046e-07
1.4461e-06
-1.77239e-07
1.49933e-06
-1.32021e-07
1.55431e-06
-7.44235e-08
1.60446e-06
1.64163e-06
7.04166e-08
1.57121e-06
1.29674e-07
1.5452e-06
1.77812e-07
1.50617e-06
2.14782e-07
1.46236e-06
2.39232e-07
1.42165e-06
2.62781e-07
1.39874e-06
2.92806e-07
1.39421e-06
3.47633e-07
1.40681e-06
4.4375e-07
1.40948e-06
4.99261e-07
1.33186e-06
5.39502e-07
1.24322e-06
5.5388e-07
1.14723e-06
5.53442e-07
1.07186e-06
5.85323e-07
1.03675e-06
6.03954e-07
9.78046e-07
5.85814e-07
9.17894e-07
6.17447e-07
9.32193e-07
7.59365e-07
9.55205e-07
7.48857e-07
7.81397e-07
7.07118e-07
6.81173e-07
7.47378e-07
6.94769e-07
9.06821e-07
6.98445e-07
8.81992e-07
4.69451e-07
8.33841e-07
3.30234e-07
8.281e-07
2.87517e-07
9.34659e-07
2.8232e-07
9.20241e-07
1.14395e-07
9.36441e-07
2.01842e-08
9.90194e-07
-6.11641e-08
1.12438e-06
-1.64574e-07
1.59079e-06
-3.97354e-07
1.12102e-06
-1.60876e-06
-3.53707e-07
-1.00809e-06
1.70632e-07
-5.24231e-07
5.2394e-07
-3.51145e-07
8.48079e-07
-3.20505e-07
9.66697e-07
-4.04099e-07
1.16377e-06
-8.5205e-07
9.39338e-07
-4.6726e-06
2.21263e-16
-1.67254e-05
-9.39338e-07
-1.67254e-05
-1.16377e-06
-4.6726e-06
-9.66697e-07
-8.5205e-07
-8.48079e-07
-4.04099e-07
-5.2394e-07
-3.20505e-07
-1.70632e-07
-3.51145e-07
3.53707e-07
-5.24231e-07
-1.12102e-06
-1.00809e-06
-1.59079e-06
-1.60876e-06
-1.12438e-06
-3.97354e-07
-9.90194e-07
-1.64574e-07
-9.36441e-07
-6.11641e-08
-9.20241e-07
2.01842e-08
-9.34659e-07
1.14395e-07
-8.281e-07
2.8232e-07
-8.33841e-07
2.87517e-07
-8.81992e-07
3.30234e-07
-9.06821e-07
4.69451e-07
-7.47378e-07
6.98445e-07
-7.07118e-07
6.94769e-07
-7.48857e-07
6.81173e-07
-7.59365e-07
7.81397e-07
-6.17447e-07
9.55205e-07
-5.85814e-07
9.32193e-07
-6.03954e-07
9.17894e-07
-5.85323e-07
9.78046e-07
-5.53442e-07
1.03675e-06
-5.5388e-07
1.07186e-06
-5.39502e-07
1.14723e-06
-4.99261e-07
1.24322e-06
-4.4375e-07
1.33186e-06
-3.47633e-07
1.40948e-06
-2.92806e-07
1.40681e-06
-2.62781e-07
1.39421e-06
-2.39232e-07
1.39874e-06
-2.14782e-07
1.42165e-06
-1.77812e-07
1.46236e-06
-1.29674e-07
1.50617e-06
-7.04166e-08
1.5452e-06
1.57121e-06
6.7795e-08
1.50342e-06
1.28065e-07
1.48493e-06
1.79126e-07
1.45511e-06
2.20805e-07
1.42068e-06
2.5408e-07
1.38838e-06
2.86581e-07
1.36624e-06
3.25728e-07
1.35507e-06
3.82263e-07
1.35027e-06
4.58544e-07
1.3332e-06
5.1543e-07
1.27498e-06
5.569e-07
1.20175e-06
5.80156e-07
1.12397e-06
5.94287e-07
1.05773e-06
6.2069e-07
1.01035e-06
6.40601e-07
9.58136e-07
6.47725e-07
9.10769e-07
6.85583e-07
8.94335e-07
7.69809e-07
8.70979e-07
7.8499e-07
7.66216e-07
7.8052e-07
6.85643e-07
8.21077e-07
6.54212e-07
9.11513e-07
6.08009e-07
9.16864e-07
4.64099e-07
8.99074e-07
3.48024e-07
9.06395e-07
2.80195e-07
9.64211e-07
2.24504e-07
9.75151e-07
1.03456e-07
9.97587e-07
-2.25245e-09
1.04854e-06
-1.12115e-07
1.14876e-06
-2.64797e-07
1.30516e-06
-5.53748e-07
8.98165e-07
-1.20177e-06
5.01078e-07
-6.11004e-07
5.05178e-07
-5.2833e-07
6.30968e-07
-4.76935e-07
8.03982e-07
-4.93519e-07
1.00047e-06
-6.00583e-07
6.56637e-07
-5.08221e-07
3.41141e-07
-4.3571e-06
2.19342e-16
-1.63843e-05
-3.41141e-07
-1.63843e-05
-6.56637e-07
-4.3571e-06
-1.00047e-06
-5.08221e-07
-8.03982e-07
-6.00583e-07
-6.30968e-07
-4.93519e-07
-5.05178e-07
-4.76935e-07
-5.01078e-07
-5.2833e-07
-8.98165e-07
-6.11004e-07
-1.30516e-06
-1.20177e-06
-1.14876e-06
-5.53748e-07
-1.04854e-06
-2.64797e-07
-9.97587e-07
-1.12115e-07
-9.75151e-07
-2.25245e-09
-9.64211e-07
1.03456e-07
-9.06395e-07
2.24504e-07
-8.99074e-07
2.80195e-07
-9.16864e-07
3.48024e-07
-9.11513e-07
4.64099e-07
-8.21077e-07
6.08009e-07
-7.8052e-07
6.54212e-07
-7.8499e-07
6.85643e-07
-7.69809e-07
7.66216e-07
-6.85583e-07
8.70979e-07
-6.47725e-07
8.94335e-07
-6.40601e-07
9.10769e-07
-6.2069e-07
9.58136e-07
-5.94287e-07
1.01035e-06
-5.80156e-07
1.05773e-06
-5.569e-07
1.12397e-06
-5.1543e-07
1.20175e-06
-4.58544e-07
1.27498e-06
-3.82263e-07
1.3332e-06
-3.25728e-07
1.35027e-06
-2.86581e-07
1.35507e-06
-2.5408e-07
1.36624e-06
-2.20805e-07
1.38838e-06
-1.79126e-07
1.42068e-06
-1.28065e-07
1.45511e-06
-6.7795e-08
1.48493e-06
1.50342e-06
6.62889e-08
1.43713e-06
1.27444e-07
1.42378e-06
1.81435e-07
1.40112e-06
2.28083e-07
1.37403e-06
2.69015e-07
1.34745e-06
3.09451e-07
1.3258e-06
3.55175e-07
1.30934e-06
4.11822e-07
1.29363e-06
4.77519e-07
1.26751e-06
5.33364e-07
1.21913e-06
5.76861e-07
1.15825e-06
6.07407e-07
1.09343e-06
6.31141e-07
1.034e-06
6.57991e-07
9.83498e-07
6.81945e-07
9.34182e-07
7.03266e-07
8.89448e-07
7.41767e-07
8.55834e-07
7.98604e-07
8.14142e-07
8.25816e-07
7.39004e-07
8.4237e-07
6.69088e-07
8.80404e-07
6.16178e-07
9.36935e-07
5.51479e-07
9.54958e-07
4.46077e-07
9.56511e-07
3.46471e-07
9.69841e-07
2.66865e-07
1.00472e-06
1.89626e-07
1.02341e-06
8.47596e-08
1.04621e-06
-2.50475e-08
1.0834e-06
-1.49304e-07
1.13383e-06
-3.15225e-07
1.14859e-06
-5.68507e-07
8.80547e-07
-9.33727e-07
7.32337e-07
-4.62793e-07
6.67697e-07
-4.6369e-07
6.55402e-07
-4.64641e-07
6.44576e-07
-4.82693e-07
5.63947e-07
-5.19954e-07
4.65944e-07
-4.10218e-07
2.7322e-07
-4.16438e-06
2.40412e-16
-1.61111e-05
-2.7322e-07
-1.61111e-05
-4.65944e-07
-4.16438e-06
-5.63947e-07
-4.10218e-07
-6.44576e-07
-5.19954e-07
-6.55402e-07
-4.82693e-07
-6.67697e-07
-4.64641e-07
-7.32337e-07
-4.6369e-07
-8.80547e-07
-4.62793e-07
-1.14859e-06
-9.33727e-07
-1.13383e-06
-5.68507e-07
-1.0834e-06
-3.15225e-07
-1.04621e-06
-1.49304e-07
-1.02341e-06
-2.50475e-08
-1.00472e-06
8.47596e-08
-9.69841e-07
1.89626e-07
-9.56511e-07
2.66865e-07
-9.54958e-07
3.46471e-07
-9.36935e-07
4.46077e-07
-8.80404e-07
5.51479e-07
-8.4237e-07
6.16178e-07
-8.25816e-07
6.69088e-07
-7.98604e-07
7.39004e-07
-7.41767e-07
8.14142e-07
-7.03266e-07
8.55834e-07
-6.81945e-07
8.89448e-07
-6.57991e-07
9.34182e-07
-6.31141e-07
9.83498e-07
-6.07407e-07
1.034e-06
-5.76861e-07
1.09343e-06
-5.33364e-07
1.15825e-06
-4.77519e-07
1.21913e-06
-4.11822e-07
1.26751e-06
-3.55175e-07
1.29363e-06
-3.09451e-07
1.30934e-06
-2.69015e-07
1.3258e-06
-2.28083e-07
1.34745e-06
-1.81435e-07
1.37403e-06
-1.27444e-07
1.40112e-06
-6.62889e-08
1.42378e-06
1.43713e-06
6.56953e-08
1.37143e-06
1.27882e-07
1.36159e-06
1.84771e-07
1.34423e-06
2.36204e-07
1.3226e-06
2.83695e-07
1.29996e-06
3.30766e-07
1.27873e-06
3.81309e-07
1.2588e-06
4.37978e-07
1.23696e-06
4.98344e-07
1.20714e-06
5.53029e-07
1.16445e-06
5.98665e-07
1.11262e-06
6.35003e-07
1.05709e-06
6.65726e-07
1.00327e-06
6.95797e-07
9.53427e-07
7.24478e-07
9.05501e-07
7.53703e-07
8.60223e-07
7.9169e-07
8.17847e-07
8.36461e-07
7.69371e-07
8.69051e-07
7.06414e-07
8.96141e-07
6.41999e-07
9.31665e-07
5.80654e-07
9.7229e-07
5.10854e-07
9.95102e-07
4.23265e-07
1.00731e-06
3.34263e-07
1.02317e-06
2.51001e-07
1.04692e-06
1.65882e-07
1.06483e-06
6.68486e-08
1.08224e-06
-4.24596e-08
1.10115e-06
-1.68209e-07
1.11057e-06
-3.24647e-07
1.06796e-06
-5.25898e-07
8.87579e-07
-7.53348e-07
8.00861e-07
-3.76075e-07
7.29819e-07
-3.92648e-07
6.70858e-07
-4.05679e-07
6.07375e-07
-4.19209e-07
5.19926e-07
-4.32506e-07
4.73563e-07
-3.63854e-07
2.90786e-07
-3.9816e-06
2.64617e-16
-1.58203e-05
-2.90786e-07
-1.58203e-05
-4.73563e-07
-3.9816e-06
-5.19926e-07
-3.63854e-07
-6.07375e-07
-4.32506e-07
-6.70858e-07
-4.19209e-07
-7.29819e-07
-4.05679e-07
-8.00861e-07
-3.92648e-07
-8.87579e-07
-3.76075e-07
-1.06796e-06
-7.53348e-07
-1.11057e-06
-5.25898e-07
-1.10115e-06
-3.24647e-07
-1.08224e-06
-1.68209e-07
-1.06483e-06
-4.24596e-08
-1.04692e-06
6.68486e-08
-1.02317e-06
1.65882e-07
-1.00731e-06
2.51001e-07
-9.95102e-07
3.34263e-07
-9.7229e-07
4.23265e-07
-9.31665e-07
5.10854e-07
-8.96141e-07
5.80654e-07
-8.69051e-07
6.41999e-07
-8.36461e-07
7.06414e-07
-7.9169e-07
7.69371e-07
-7.53703e-07
8.17847e-07
-7.24478e-07
8.60223e-07
-6.95797e-07
9.05501e-07
-6.65726e-07
9.53427e-07
-6.35003e-07
1.00327e-06
-5.98665e-07
1.05709e-06
-5.53029e-07
1.11262e-06