/*--------------------------------*- C++ -*----------------------------------*\
  =========                 |
  \\      /  F ield         | OpenFOAM: The Open Source CFD Toolbox
   \\    /   O peration     | Website:  https://openfoam.org
    \\  /    A nd           | Version:  10
     \\/     M anipulation  |
\*---------------------------------------------------------------------------*/
FoamFile
{
    format      ascii;
    class       volVectorField;
    location    "600";
    object      Ua;
}
// * * * * * * * * * * * * * * * * * * * * * * * * * * * * * * * * * * * * * //

dimensions      [0 1 -1 0 0 0 0];

internalField   nonuniform List<vector> 
6400
(
(-8.24121e-09 1.67518e-09 0)
(-2.46632e-08 1.66291e-09 0)
(-4.09044e-08 1.63842e-09 0)
(-5.68453e-08 1.60188e-09 0)
(-7.23684e-08 1.55349e-09 0)
(-8.73585e-08 1.49355e-09 0)
(-1.01704e-07 1.42241e-09 0)
(-1.15296e-07 1.34052e-09 0)
(-1.28033e-07 1.24839e-09 0)
(-1.39815e-07 1.14659e-09 0)
(-1.50551e-07 1.03578e-09 0)
(-1.60157e-07 9.16684e-10 0)
(-1.68553e-07 7.901e-10 0)
(-1.75672e-07 6.56888e-10 0)
(-1.81452e-07 5.17976e-10 0)
(-1.85842e-07 3.74353e-10 0)
(-1.888e-07 2.27065e-10 0)
(-1.90297e-07 7.72072e-11 0)
(-1.90313e-07 -7.40794e-11 0)
(-1.88838e-07 -2.25617e-10 0)
(-1.85877e-07 -3.76201e-10 0)
(-1.81446e-07 -5.24607e-10 0)
(-1.75571e-07 -6.69605e-10 0)
(-1.68292e-07 -8.09967e-10 0)
(-1.59661e-07 -9.44483e-10 0)
(-1.49741e-07 -1.07197e-09 0)
(-1.38606e-07 -1.1913e-09 0)
(-1.26343e-07 -1.30137e-09 0)
(-1.13048e-07 -1.40119e-09 0)
(-9.88251e-08 -1.48982e-09 0)
(-8.37897e-08 -1.56643e-09 0)
(-6.80632e-08 -1.63028e-09 0)
(-5.63986e-08 -1.66674e-09 0)
(-4.90669e-08 -1.68647e-09 0)
(-4.16549e-08 -1.70345e-09 0)
(-3.41747e-08 -1.71765e-09 0)
(-2.66386e-08 -1.72904e-09 0)
(-1.90588e-08 -1.73761e-09 0)
(-1.14478e-08 -1.74333e-09 0)
(-3.81801e-09 -1.74619e-09 0)
(3.81801e-09 -1.74619e-09 0)
(1.14478e-08 -1.74333e-09 0)
(1.90588e-08 -1.73761e-09 0)
(2.66386e-08 -1.72904e-09 0)
(3.41747e-08 -1.71765e-09 0)
(4.16549e-08 -1.70345e-09 0)
(4.90669e-08 -1.68647e-09 0)
(5.63986e-08 -1.66674e-09 0)
(6.80632e-08 -1.63028e-09 0)
(8.37897e-08 -1.56643e-09 0)
(9.88251e-08 -1.48982e-09 0)
(1.13048e-07 -1.40119e-09 0)
(1.26343e-07 -1.30137e-09 0)
(1.38606e-07 -1.1913e-09 0)
(1.49741e-07 -1.07197e-09 0)
(1.59661e-07 -9.44483e-10 0)
(1.68292e-07 -8.09967e-10 0)
(1.75571e-07 -6.69605e-10 0)
(1.81446e-07 -5.24608e-10 0)
(1.85877e-07 -3.76201e-10 0)
(1.88838e-07 -2.25617e-10 0)
(1.90313e-07 -7.40794e-11 0)
(1.90297e-07 7.72072e-11 0)
(1.888e-07 2.27065e-10 0)
(1.85842e-07 3.74353e-10 0)
(1.81452e-07 5.17976e-10 0)
(1.75672e-07 6.56888e-10 0)
(1.68553e-07 7.901e-10 0)
(1.60157e-07 9.16684e-10 0)
(1.50551e-07 1.03578e-09 0)
(1.39815e-07 1.14659e-09 0)
(1.28033e-07 1.24839e-09 0)
(1.15296e-07 1.34052e-09 0)
(1.01704e-07 1.42241e-09 0)
(8.73585e-08 1.49355e-09 0)
(7.23684e-08 1.55349e-09 0)
(5.68453e-08 1.60188e-09 0)
(4.09044e-08 1.63842e-09 0)
(2.46632e-08 1.66291e-09 0)
(8.24121e-09 1.67518e-09 0)
(-8.24382e-09 5.18833e-09 0)
(-2.46711e-08 5.1503e-09 0)
(-4.09174e-08 5.07448e-09 0)
(-5.68634e-08 4.96129e-09 0)
(-7.23915e-08 4.81143e-09 0)
(-8.73865e-08 4.62578e-09 0)
(-1.01736e-07 4.40547e-09 0)
(-1.15333e-07 4.15185e-09 0)
(-1.28074e-07 3.8665e-09 0)
(-1.3986e-07 3.55121e-09 0)
(-1.506e-07 3.20802e-09 0)
(-1.60209e-07 2.83916e-09 0)
(-1.68609e-07 2.44711e-09 0)
(-1.7573e-07 2.03453e-09 0)
(-1.81512e-07 1.6043e-09 0)
(-1.85904e-07 1.15948e-09 0)
(-1.88864e-07 7.033e-10 0)
(-1.90361e-07 2.39163e-10 0)
(-1.90377e-07 -2.29401e-10 0)
(-1.88903e-07 -6.98745e-10 0)
(-1.85941e-07 -1.16513e-09 0)
(-1.81508e-07 -1.62478e-09 0)
(-1.75632e-07 -2.07387e-09 0)
(-1.6835e-07 -2.50861e-09 0)
(-1.59717e-07 -2.92524e-09 0)
(-1.49793e-07 -3.3201e-09 0)
(-1.38655e-07 -3.68968e-09 0)
(-1.26388e-07 -4.03062e-09 0)
(-1.13088e-07 -4.33978e-09 0)
(-9.88604e-08 -4.61429e-09 0)
(-8.38196e-08 -4.85155e-09 0)
(-6.80876e-08 -5.04932e-09 0)
(-5.64188e-08 -5.16225e-09 0)
(-4.90845e-08 -5.22336e-09 0)
(-4.16698e-08 -5.27595e-09 0)
(-3.4187e-08 -5.31993e-09 0)
(-2.66481e-08 -5.35522e-09 0)
(-1.90656e-08 -5.38175e-09 0)
(-1.14519e-08 -5.39946e-09 0)
(-3.81938e-09 -5.40833e-09 0)
(3.81939e-09 -5.40833e-09 0)
(1.14519e-08 -5.39946e-09 0)
(1.90656e-08 -5.38175e-09 0)
(2.66481e-08 -5.35522e-09 0)
(3.4187e-08 -5.31993e-09 0)
(4.16698e-08 -5.27595e-09 0)
(4.90845e-08 -5.22335e-09 0)
(5.64188e-08 -5.16225e-09 0)
(6.80876e-08 -5.04932e-09 0)
(8.38196e-08 -4.85155e-09 0)
(9.88604e-08 -4.61429e-09 0)
(1.13088e-07 -4.33978e-09 0)
(1.26388e-07 -4.03062e-09 0)
(1.38655e-07 -3.68968e-09 0)
(1.49793e-07 -3.3201e-09 0)
(1.59717e-07 -2.92524e-09 0)
(1.6835e-07 -2.50861e-09 0)
(1.75632e-07 -2.07387e-09 0)
(1.81508e-07 -1.62478e-09 0)
(1.85941e-07 -1.16513e-09 0)
(1.88903e-07 -6.98745e-10 0)
(1.90377e-07 -2.29401e-10 0)
(1.90361e-07 2.39163e-10 0)
(1.88864e-07 7.033e-10 0)
(1.85904e-07 1.15948e-09 0)
(1.81512e-07 1.6043e-09 0)
(1.7573e-07 2.03453e-09 0)
(1.68609e-07 2.44711e-09 0)
(1.60209e-07 2.83916e-09 0)
(1.506e-07 3.20802e-09 0)
(1.3986e-07 3.55121e-09 0)
(1.28074e-07 3.8665e-09 0)
(1.15333e-07 4.15185e-09 0)
(1.01736e-07 4.40547e-09 0)
(8.73865e-08 4.62578e-09 0)
(7.23915e-08 4.81143e-09 0)
(5.68634e-08 4.96129e-09 0)
(4.09174e-08 5.07448e-09 0)
(2.46711e-08 5.1503e-09 0)
(8.24382e-09 5.18833e-09 0)
(-8.24984e-09 9.04369e-09 0)
(-2.46891e-08 8.97741e-09 0)
(-4.09473e-08 8.84524e-09 0)
(-5.6905e-08 8.64797e-09 0)
(-7.24446e-08 8.38675e-09 0)
(-8.74507e-08 8.06316e-09 0)
(-1.01811e-07 7.67916e-09 0)
(-1.15419e-07 7.2371e-09 0)
(-1.28169e-07 6.73972e-09 0)
(-1.39964e-07 6.19017e-09 0)
(-1.50713e-07 5.59197e-09 0)
(-1.60329e-07 4.94904e-09 0)
(-1.68736e-07 4.26568e-09 0)
(-1.75863e-07 3.54653e-09 0)
(-1.8165e-07 2.7966e-09 0)
(-1.86046e-07 2.02124e-09 0)
(-1.89009e-07 1.22608e-09 0)
(-1.90509e-07 4.17039e-10 0)
(-1.90526e-07 -3.9972e-10 0)
(-1.89051e-07 -1.21784e-09 0)
(-1.86088e-07 -2.03082e-09 0)
(-1.81652e-07 -2.83205e-09 0)
(-1.75771e-07 -3.61488e-09 0)
(-1.68485e-07 -4.37269e-09 0)
(-1.59845e-07 -5.09895e-09 0)
(-1.49914e-07 -5.78727e-09 0)
(-1.38768e-07 -6.43152e-09 0)
(-1.26491e-07 -7.02584e-09 0)
(-1.1318e-07 -7.56477e-09 0)
(-9.89414e-08 -8.04329e-09 0)
(-8.38884e-08 -8.4569e-09 0)
(-6.81436e-08 -8.80165e-09 0)
(-5.64653e-08 -8.99851e-09 0)
(-4.9125e-08 -9.10503e-09 0)
(-4.17042e-08 -9.19672e-09 0)
(-3.42152e-08 -9.27339e-09 0)
(-2.66701e-08 -9.33491e-09 0)
(-1.90814e-08 -9.38115e-09 0)
(-1.14614e-08 -9.41203e-09 0)
(-3.82254e-09 -9.42748e-09 0)
(3.82254e-09 -9.42748e-09 0)
(1.14614e-08 -9.41203e-09 0)
(1.90814e-08 -9.38115e-09 0)
(2.66701e-08 -9.33491e-09 0)
(3.42152e-08 -9.27339e-09 0)
(4.17042e-08 -9.19671e-09 0)
(4.9125e-08 -9.10503e-09 0)
(5.64653e-08 -8.99851e-09 0)
(6.81436e-08 -8.80165e-09 0)
(8.38884e-08 -8.4569e-09 0)
(9.89414e-08 -8.04329e-09 0)
(1.1318e-07 -7.56477e-09 0)
(1.26491e-07 -7.02584e-09 0)
(1.38768e-07 -6.43152e-09 0)
(1.49914e-07 -5.78727e-09 0)
(1.59845e-07 -5.09895e-09 0)
(1.68485e-07 -4.3727e-09 0)
(1.75771e-07 -3.61488e-09 0)
(1.81652e-07 -2.83205e-09 0)
(1.86088e-07 -2.03082e-09 0)
(1.89051e-07 -1.21784e-09 0)
(1.90526e-07 -3.99719e-10 0)
(1.90509e-07 4.17039e-10 0)
(1.89009e-07 1.22608e-09 0)
(1.86046e-07 2.02124e-09 0)
(1.8165e-07 2.7966e-09 0)
(1.75863e-07 3.54653e-09 0)
(1.68736e-07 4.26568e-09 0)
(1.60329e-07 4.94904e-09 0)
(1.50713e-07 5.59197e-09 0)
(1.39964e-07 6.19017e-09 0)
(1.28169e-07 6.73972e-09 0)
(1.15419e-07 7.2371e-09 0)
(1.01811e-07 7.67916e-09 0)
(8.74507e-08 8.06316e-09 0)
(7.24446e-08 8.38675e-09 0)
(5.6905e-08 8.64797e-09 0)
(4.09473e-08 8.84524e-09 0)
(2.46891e-08 8.97741e-09 0)
(8.24984e-09 9.04369e-09 0)
(-8.26023e-09 1.32766e-08 0)
(-2.47202e-08 1.31793e-08 0)
(-4.0999e-08 1.29853e-08 0)
(-5.69769e-08 1.26957e-08 0)
(-7.25363e-08 1.23123e-08 0)
(-8.75616e-08 1.18373e-08 0)
(-1.01941e-07 1.12736e-08 0)
(-1.15566e-07 1.06246e-08 0)
(-1.28333e-07 9.8945e-09 0)
(-1.40144e-07 9.08777e-09 0)
(-1.50908e-07 8.20962e-09 0)
(-1.60537e-07 7.26581e-09 0)
(-1.68956e-07 6.26262e-09 0)
(-1.76094e-07 5.20689e-09 0)
(-1.8189e-07 4.10598e-09 0)
(-1.86292e-07 2.96771e-09 0)
(-1.89261e-07 1.80036e-09 0)
(-1.90764e-07 6.12635e-10 0)
(-1.90782e-07 -5.86441e-10 0)
(-1.89306e-07 -1.78753e-09 0)
(-1.86341e-07 -2.98108e-09 0)
(-1.81901e-07 -4.1574e-09 0)
(-1.76013e-07 -5.30671e-09 0)
(-1.68718e-07 -6.4193e-09 0)
(-1.60067e-07 -7.48557e-09 0)
(-1.50123e-07 -8.49616e-09 0)
(-1.38962e-07 -9.44204e-09 0)
(-1.26669e-07 -1.03146e-08 0)
(-1.1334e-07 -1.11059e-08 0)
(-9.90812e-08 -1.18085e-08 0)
(-8.40074e-08 -1.24158e-08 0)
(-6.82404e-08 -1.29219e-08 0)
(-5.65456e-08 -1.3211e-08 0)
(-4.91949e-08 -1.33674e-08 0)
(-4.17636e-08 -1.3502e-08 0)
(-3.4264e-08 -1.36146e-08 0)
(-2.67082e-08 -1.37049e-08 0)
(-1.91086e-08 -1.37728e-08 0)
(-1.14777e-08 -1.38181e-08 0)
(-3.82799e-09 -1.38408e-08 0)
(3.82799e-09 -1.38408e-08 0)
(1.14777e-08 -1.38181e-08 0)
(1.91086e-08 -1.37728e-08 0)
(2.67082e-08 -1.37049e-08 0)
(3.4264e-08 -1.36146e-08 0)
(4.17636e-08 -1.3502e-08 0)
(4.91949e-08 -1.33674e-08 0)
(5.65456e-08 -1.3211e-08 0)
(6.82404e-08 -1.29219e-08 0)
(8.40074e-08 -1.24158e-08 0)
(9.90812e-08 -1.18085e-08 0)
(1.1334e-07 -1.11059e-08 0)
(1.26669e-07 -1.03146e-08 0)
(1.38962e-07 -9.44204e-09 0)
(1.50123e-07 -8.49616e-09 0)
(1.60067e-07 -7.48557e-09 0)
(1.68718e-07 -6.4193e-09 0)
(1.76013e-07 -5.30671e-09 0)
(1.81901e-07 -4.1574e-09 0)
(1.86341e-07 -2.98108e-09 0)
(1.89306e-07 -1.78753e-09 0)
(1.90782e-07 -5.86441e-10 0)
(1.90764e-07 6.12635e-10 0)
(1.89261e-07 1.80036e-09 0)
(1.86292e-07 2.96771e-09 0)
(1.8189e-07 4.10598e-09 0)
(1.76094e-07 5.20689e-09 0)
(1.68956e-07 6.26262e-09 0)
(1.60537e-07 7.26581e-09 0)
(1.50908e-07 8.20962e-09 0)
(1.40144e-07 9.08777e-09 0)
(1.28333e-07 9.8945e-09 0)
(1.15566e-07 1.06246e-08 0)
(1.01941e-07 1.12736e-08 0)
(8.75616e-08 1.18373e-08 0)
(7.25363e-08 1.23123e-08 0)
(5.69769e-08 1.26957e-08 0)
(4.0999e-08 1.29853e-08 0)
(2.47202e-08 1.31793e-08 0)
(8.26023e-09 1.32766e-08 0)
(-8.2762e-09 1.79269e-08 0)
(-2.4768e-08 1.77955e-08 0)
(-4.10783e-08 1.75336e-08 0)
(-5.70873e-08 1.71426e-08 0)
(-7.26771e-08 1.66249e-08 0)
(-8.77321e-08 1.59836e-08 0)
(-1.0214e-07 1.52225e-08 0)
(-1.15792e-07 1.43464e-08 0)
(-1.28585e-07 1.33606e-08 0)
(-1.40421e-07 1.22714e-08 0)
(-1.51206e-07 1.10858e-08 0)
(-1.60857e-07 9.81146e-09 0)
(-1.69294e-07 8.45696e-09 0)
(-1.76447e-07 7.0315e-09 0)
(-1.82257e-07 5.54501e-09 0)
(-1.86671e-07 4.00806e-09 0)
(-1.89647e-07 2.43182e-09 0)
(-1.91155e-07 8.28041e-10 0)
(-1.91176e-07 -7.91088e-10 0)
(-1.89699e-07 -2.41296e-09 0)
(-1.8673e-07 -4.02468e-09 0)
(-1.82282e-07 -5.61314e-09 0)
(-1.76384e-07 -7.16517e-09 0)
(-1.69075e-07 -8.66763e-09 0)
(-1.60408e-07 -1.01076e-08 0)
(-1.50444e-07 -1.14723e-08 0)
(-1.3926e-07 -1.27497e-08 0)
(-1.26942e-07 -1.39281e-08 0)
(-1.13585e-07 -1.49967e-08 0)
(-9.92961e-08 -1.59456e-08 0)
(-8.419e-08 -1.67657e-08 0)
(-6.83891e-08 -1.74493e-08 0)
(-5.6669e-08 -1.78397e-08 0)
(-4.93023e-08 -1.80509e-08 0)
(-4.18549e-08 -1.82327e-08 0)
(-3.43389e-08 -1.83847e-08 0)
(-2.67666e-08 -1.85067e-08 0)
(-1.91504e-08 -1.85984e-08 0)
(-1.15028e-08 -1.86597e-08 0)
(-3.83637e-09 -1.86903e-08 0)
(3.83637e-09 -1.86903e-08 0)
(1.15028e-08 -1.86597e-08 0)
(1.91504e-08 -1.85984e-08 0)
(2.67666e-08 -1.85067e-08 0)
(3.43389e-08 -1.83847e-08 0)
(4.18549e-08 -1.82327e-08 0)
(4.93023e-08 -1.80509e-08 0)
(5.6669e-08 -1.78397e-08 0)
(6.83891e-08 -1.74493e-08 0)
(8.419e-08 -1.67657e-08 0)
(9.92961e-08 -1.59456e-08 0)
(1.13585e-07 -1.49967e-08 0)
(1.26942e-07 -1.39281e-08 0)
(1.3926e-07 -1.27497e-08 0)
(1.50444e-07 -1.14723e-08 0)
(1.60408e-07 -1.01076e-08 0)
(1.69075e-07 -8.66763e-09 0)
(1.76384e-07 -7.16517e-09 0)
(1.82282e-07 -5.61314e-09 0)
(1.8673e-07 -4.02468e-09 0)
(1.89699e-07 -2.41296e-09 0)
(1.91176e-07 -7.91088e-10 0)
(1.91155e-07 8.28041e-10 0)
(1.89647e-07 2.43182e-09 0)
(1.86671e-07 4.00806e-09 0)
(1.82257e-07 5.54501e-09 0)
(1.76447e-07 7.0315e-09 0)
(1.69294e-07 8.45696e-09 0)
(1.60857e-07 9.81146e-09 0)
(1.51206e-07 1.10858e-08 0)
(1.40421e-07 1.22714e-08 0)
(1.28585e-07 1.33606e-08 0)
(1.15792e-07 1.43464e-08 0)
(1.0214e-07 1.52225e-08 0)
(8.77321e-08 1.59836e-08 0)
(7.26771e-08 1.66249e-08 0)
(5.70873e-08 1.71426e-08 0)
(4.10783e-08 1.75336e-08 0)
(2.4768e-08 1.77955e-08 0)
(8.2762e-09 1.79269e-08 0)
(-8.2992e-09 2.30395e-08 0)
(-2.48369e-08 2.28707e-08 0)
(-4.11926e-08 2.25341e-08 0)
(-5.72465e-08 2.20317e-08 0)
(-7.28801e-08 2.13665e-08 0)
(-8.79777e-08 2.05424e-08 0)
(-1.02427e-07 1.95645e-08 0)
(-1.16118e-07 1.84387e-08 0)
(-1.28949e-07 1.71719e-08 0)
(-1.40819e-07 1.57722e-08 0)
(-1.51637e-07 1.42486e-08 0)
(-1.61317e-07 1.2611e-08 0)
(-1.69781e-07 1.08703e-08 0)
(-1.76957e-07 9.03841e-09 0)
(-1.82786e-07 7.12803e-09 0)
(-1.87216e-07 5.15276e-09 0)
(-1.90204e-07 3.12697e-09 0)
(-1.9172e-07 1.06572e-09 0)
(-1.91743e-07 -1.0153e-09 0)
(-1.90266e-07 -3.09989e-09 0)
(-1.8729e-07 -5.17147e-09 0)
(-1.82832e-07 -7.2132e-09 0)
(-1.76919e-07 -9.20815e-09 0)
(-1.69591e-07 -1.11394e-08 0)
(-1.60899e-07 -1.29904e-08 0)
(-1.50907e-07 -1.47447e-08 0)
(-1.3969e-07 -1.63867e-08 0)
(-1.27335e-07 -1.79016e-08 0)
(-1.13938e-07 -1.92753e-08 0)
(-9.9606e-08 -2.04951e-08 0)
(-8.44535e-08 -2.15494e-08 0)
(-6.86036e-08 -2.24283e-08 0)
(-5.6847e-08 -2.29301e-08 0)
(-4.94572e-08 -2.32016e-08 0)
(-4.19865e-08 -2.34354e-08 0)
(-3.44469e-08 -2.36308e-08 0)
(-2.68508e-08 -2.37877e-08 0)
(-1.92107e-08 -2.39055e-08 0)
(-1.1539e-08 -2.39843e-08 0)
(-3.84845e-09 -2.40237e-08 0)
(3.84845e-09 -2.40237e-08 0)
(1.1539e-08 -2.39843e-08 0)
(1.92107e-08 -2.39055e-08 0)
(2.68508e-08 -2.37877e-08 0)
(3.44469e-08 -2.36308e-08 0)
(4.19865e-08 -2.34354e-08 0)
(4.94572e-08 -2.32016e-08 0)
(5.6847e-08 -2.29301e-08 0)
(6.86036e-08 -2.24283e-08 0)
(8.44535e-08 -2.15494e-08 0)
(9.9606e-08 -2.04951e-08 0)
(1.13938e-07 -1.92753e-08 0)
(1.27335e-07 -1.79016e-08 0)
(1.3969e-07 -1.63867e-08 0)
(1.50907e-07 -1.47447e-08 0)
(1.60899e-07 -1.29904e-08 0)
(1.69591e-07 -1.11394e-08 0)
(1.76919e-07 -9.20816e-09 0)
(1.82832e-07 -7.2132e-09 0)
(1.8729e-07 -5.17147e-09 0)
(1.90266e-07 -3.09989e-09 0)
(1.91743e-07 -1.0153e-09 0)
(1.9172e-07 1.06572e-09 0)
(1.90204e-07 3.12697e-09 0)
(1.87216e-07 5.15276e-09 0)
(1.82786e-07 7.12803e-09 0)
(1.76957e-07 9.03841e-09 0)
(1.69781e-07 1.08703e-08 0)
(1.61317e-07 1.2611e-08 0)
(1.51637e-07 1.42486e-08 0)
(1.40819e-07 1.57722e-08 0)
(1.28949e-07 1.71719e-08 0)
(1.16118e-07 1.84387e-08 0)
(1.02427e-07 1.95645e-08 0)
(8.79777e-08 2.05424e-08 0)
(7.28801e-08 2.13665e-08 0)
(5.72465e-08 2.20317e-08 0)
(4.11926e-08 2.25341e-08 0)
(2.48369e-08 2.28707e-08 0)
(8.2992e-09 2.30395e-08 0)
(-8.33107e-09 2.86659e-08 0)
(-2.49323e-08 2.84559e-08 0)
(-4.1351e-08 2.80372e-08 0)
(-5.74669e-08 2.74123e-08 0)
(-7.31613e-08 2.65848e-08 0)
(-8.83179e-08 2.55598e-08 0)
(-1.02824e-07 2.43432e-08 0)
(-1.1657e-07 2.29427e-08 0)
(-1.29452e-07 2.13669e-08 0)
(-1.41371e-07 1.96257e-08 0)
(-1.52234e-07 1.77303e-08 0)
(-1.61955e-07 1.5693e-08 0)
(-1.70455e-07 1.35274e-08 0)
(-1.77664e-07 1.12483e-08 0)
(-1.8352e-07 8.87152e-09 0)
(-1.87971e-07 6.4139e-09 0)
(-1.90976e-07 3.89335e-09 0)
(-1.92502e-07 1.3286e-09 0)
(-1.9253e-07 -1.26082e-09 0)
(-1.9105e-07 -3.85476e-09 0)
(-1.88067e-07 -6.4326e-09 0)
(-1.83594e-07 -8.97338e-09 0)
(-1.77661e-07 -1.1456e-08 0)
(-1.70305e-07 -1.38595e-08 0)
(-1.6158e-07 -1.6163e-08 0)
(-1.51548e-07 -1.83464e-08 0)
(-1.40286e-07 -2.039e-08 0)
(-1.27881e-07 -2.22755e-08 0)
(-1.14428e-07 -2.39853e-08 0)
(-1.00035e-07 -2.55035e-08 0)
(-8.48185e-08 -2.68158e-08 0)
(-6.89007e-08 -2.79097e-08 0)
(-5.70936e-08 -2.85343e-08 0)
(-4.96719e-08 -2.88723e-08 0)
(-4.21688e-08 -2.91633e-08 0)
(-3.45965e-08 -2.94066e-08 0)
(-2.69675e-08 -2.96018e-08 0)
(-1.92942e-08 -2.97485e-08 0)
(-1.15892e-08 -2.98465e-08 0)
(-3.86519e-09 -2.98955e-08 0)
(3.86519e-09 -2.98955e-08 0)
(1.15892e-08 -2.98465e-08 0)
(1.92942e-08 -2.97485e-08 0)
(2.69675e-08 -2.96018e-08 0)
(3.45965e-08 -2.94066e-08 0)
(4.21688e-08 -2.91633e-08 0)
(4.96719e-08 -2.88723e-08 0)
(5.70936e-08 -2.85343e-08 0)
(6.89007e-08 -2.79097e-08 0)
(8.48185e-08 -2.68158e-08 0)
(1.00035e-07 -2.55035e-08 0)
(1.14428e-07 -2.39853e-08 0)
(1.27881e-07 -2.22755e-08 0)
(1.40286e-07 -2.039e-08 0)
(1.51548e-07 -1.83464e-08 0)
(1.6158e-07 -1.6163e-08 0)
(1.70305e-07 -1.38595e-08 0)
(1.77661e-07 -1.1456e-08 0)
(1.83594e-07 -8.97338e-09 0)
(1.88067e-07 -6.4326e-09 0)
(1.9105e-07 -3.85476e-09 0)
(1.9253e-07 -1.26082e-09 0)
(1.92502e-07 1.3286e-09 0)
(1.90976e-07 3.89335e-09 0)
(1.87971e-07 6.4139e-09 0)
(1.8352e-07 8.87152e-09 0)
(1.77664e-07 1.12483e-08 0)
(1.70455e-07 1.35274e-08 0)
(1.61955e-07 1.5693e-08 0)
(1.52234e-07 1.77303e-08 0)
(1.41371e-07 1.96257e-08 0)
(1.29452e-07 2.13669e-08 0)
(1.1657e-07 2.29427e-08 0)
(1.02824e-07 2.43432e-08 0)
(8.83179e-08 2.55598e-08 0)
(7.31613e-08 2.65848e-08 0)
(5.74669e-08 2.74123e-08 0)
(4.1351e-08 2.80372e-08 0)
(2.49323e-08 2.84559e-08 0)
(8.33107e-09 2.86659e-08 0)
(-8.37402e-09 3.48649e-08 0)
(-2.50609e-08 3.46097e-08 0)
(-4.15645e-08 3.41006e-08 0)
(-5.7764e-08 3.33408e-08 0)
(-7.35403e-08 3.23347e-08 0)
(-8.87765e-08 3.10884e-08 0)
(-1.03359e-07 2.96092e-08 0)
(-1.17179e-07 2.79063e-08 0)
(-1.30131e-07 2.59902e-08 0)
(-1.42115e-07 2.38729e-08 0)
(-1.53039e-07 2.1568e-08 0)
(-1.62815e-07 1.90905e-08 0)
(-1.71364e-07 1.6457e-08 0)
(-1.78617e-07 1.36852e-08 0)
(-1.84509e-07 1.07946e-08 0)
(-1.8899e-07 7.80553e-09 0)
(-1.92016e-07 4.73981e-09 0)
(-1.93557e-07 1.62023e-09 0)
(-1.9359e-07 -1.52951e-09 0)
(-1.92109e-07 -4.68487e-09 0)
(-1.89114e-07 -7.82077e-09 0)
(-1.84622e-07 -1.09117e-08 0)
(-1.7866e-07 -1.3932e-08 0)
(-1.71268e-07 -1.68562e-08 0)
(-1.62498e-07 -1.96588e-08 0)
(-1.52413e-07 -2.23153e-08 0)
(-1.4109e-07 -2.4802e-08 0)
(-1.28616e-07 -2.70962e-08 0)
(-1.15089e-07 -2.91767e-08 0)
(-1.00615e-07 -3.10242e-08 0)
(-8.53109e-08 -3.26211e-08 0)
(-6.93016e-08 -3.39523e-08 0)
(-5.74262e-08 -3.47125e-08 0)
(-4.99615e-08 -3.51238e-08 0)
(-4.24148e-08 -3.54778e-08 0)
(-3.47985e-08 -3.57739e-08 0)
(-2.7125e-08 -3.60115e-08 0)
(-1.94069e-08 -3.619e-08 0)
(-1.16569e-08 -3.63093e-08 0)
(-3.88777e-09 -3.6369e-08 0)
(3.88777e-09 -3.6369e-08 0)
(1.16569e-08 -3.63093e-08 0)
(1.94069e-08 -3.619e-08 0)
(2.7125e-08 -3.60115e-08 0)
(3.47985e-08 -3.57739e-08 0)
(4.24148e-08 -3.54778e-08 0)
(4.99615e-08 -3.51238e-08 0)
(5.74262e-08 -3.47125e-08 0)
(6.93016e-08 -3.39523e-08 0)
(8.53109e-08 -3.26211e-08 0)
(1.00615e-07 -3.10242e-08 0)
(1.15089e-07 -2.91767e-08 0)
(1.28616e-07 -2.70962e-08 0)
(1.4109e-07 -2.4802e-08 0)
(1.52413e-07 -2.23153e-08 0)
(1.62498e-07 -1.96588e-08 0)
(1.71268e-07 -1.68562e-08 0)
(1.7866e-07 -1.3932e-08 0)
(1.84622e-07 -1.09117e-08 0)
(1.89114e-07 -7.82077e-09 0)
(1.92109e-07 -4.68487e-09 0)
(1.9359e-07 -1.52951e-09 0)
(1.93557e-07 1.62023e-09 0)
(1.92016e-07 4.73981e-09 0)
(1.8899e-07 7.80553e-09 0)
(1.84509e-07 1.07946e-08 0)
(1.78617e-07 1.36852e-08 0)
(1.71364e-07 1.6457e-08 0)
(1.62815e-07 1.90905e-08 0)
(1.53039e-07 2.1568e-08 0)
(1.42115e-07 2.38729e-08 0)
(1.30131e-07 2.59902e-08 0)
(1.17179e-07 2.79063e-08 0)
(1.03359e-07 2.96092e-08 0)
(8.87765e-08 3.10884e-08 0)
(7.35403e-08 3.23347e-08 0)
(5.7764e-08 3.33408e-08 0)
(4.15645e-08 3.41006e-08 0)
(2.50609e-08 3.46097e-08 0)
(8.37402e-09 3.48649e-08 0)
(-8.43079e-09 4.17051e-08 0)
(-2.52309e-08 4.13999e-08 0)
(-4.18467e-08 4.07913e-08 0)
(-5.81568e-08 3.98828e-08 0)
(-7.40413e-08 3.86798e-08 0)
(-8.93827e-08 3.71895e-08 0)
(-1.04067e-07 3.54208e-08 0)
(-1.17984e-07 3.33845e-08 0)
(-1.31028e-07 3.10932e-08 0)
(-1.43099e-07 2.85613e-08 0)
(-1.54103e-07 2.58049e-08 0)
(-1.63952e-07 2.2842e-08 0)
(-1.72567e-07 1.96923e-08 0)
(-1.79876e-07 1.63771e-08 0)
(-1.85817e-07 1.29196e-08 0)
(-1.90337e-07 9.34417e-09 0)
(-1.93392e-07 5.67686e-09 0)
(-1.94951e-07 1.94491e-09 0)
(-1.94993e-07 -1.82331e-09 0)
(-1.93508e-07 -5.59847e-09 0)
(-1.905e-07 -9.35055e-09 0)
(-1.85982e-07 -1.3049e-08 0)
(-1.79983e-07 -1.66632e-08 0)
(-1.72542e-07 -2.01624e-08 0)
(-1.63712e-07 -2.35165e-08 0)
(-1.53558e-07 -2.66958e-08 0)
(-1.42154e-07 -2.9672e-08 0)
(-1.2959e-07 -3.24179e-08 0)
(-1.15963e-07 -3.49082e-08 0)
(-1.01381e-07 -3.71196e-08 0)
(-8.59625e-08 -3.90311e-08 0)
(-6.9832e-08 -4.06246e-08 0)
(-5.78664e-08 -4.15346e-08 0)
(-5.03447e-08 -4.2027e-08 0)
(-4.27403e-08 -4.24508e-08 0)
(-3.50656e-08 -4.28052e-08 0)
(-2.73333e-08 -4.30896e-08 0)
(-1.9556e-08 -4.33034e-08 0)
(-1.17465e-08 -4.34461e-08 0)
(-3.91765e-09 -4.35175e-08 0)
(3.91765e-09 -4.35175e-08 0)
(1.17465e-08 -4.34461e-08 0)
(1.9556e-08 -4.33034e-08 0)
(2.73333e-08 -4.30896e-08 0)
(3.50656e-08 -4.28052e-08 0)
(4.27403e-08 -4.24508e-08 0)
(5.03447e-08 -4.2027e-08 0)
(5.78664e-08 -4.15346e-08 0)
(6.9832e-08 -4.06246e-08 0)
(8.59625e-08 -3.90311e-08 0)
(1.01381e-07 -3.71196e-08 0)
(1.15963e-07 -3.49082e-08 0)
(1.2959e-07 -3.24179e-08 0)
(1.42154e-07 -2.9672e-08 0)
(1.53558e-07 -2.66958e-08 0)
(1.63712e-07 -2.35165e-08 0)
(1.72542e-07 -2.01624e-08 0)
(1.79983e-07 -1.66632e-08 0)
(1.85982e-07 -1.3049e-08 0)
(1.905e-07 -9.35055e-09 0)
(1.93508e-07 -5.59847e-09 0)
(1.94993e-07 -1.82331e-09 0)
(1.94951e-07 1.94491e-09 0)
(1.93392e-07 5.67686e-09 0)
(1.90337e-07 9.34417e-09 0)
(1.85817e-07 1.29196e-08 0)
(1.79876e-07 1.63771e-08 0)
(1.72567e-07 1.96923e-08 0)
(1.63952e-07 2.2842e-08 0)
(1.54103e-07 2.58049e-08 0)
(1.43099e-07 2.85613e-08 0)
(1.31028e-07 3.10932e-08 0)
(1.17984e-07 3.33845e-08 0)
(1.04067e-07 3.54208e-08 0)
(8.93827e-08 3.71895e-08 0)
(7.40413e-08 3.86798e-08 0)
(5.81568e-08 3.98828e-08 0)
(4.18467e-08 4.07913e-08 0)
(2.52309e-08 4.13999e-08 0)
(8.43079e-09 4.17051e-08 0)
(-8.50476e-09 4.92663e-08 0)
(-2.54523e-08 4.89059e-08 0)
(-4.22144e-08 4.81874e-08 0)
(-5.86685e-08 4.71148e-08 0)
(-7.4694e-08 4.56945e-08 0)
(-9.01725e-08 4.3935e-08 0)
(-1.04989e-07 4.18467e-08 0)
(-1.19033e-07 3.94423e-08 0)
(-1.32197e-07 3.67367e-08 0)
(-1.44381e-07 3.37468e-08 0)
(-1.55489e-07 3.04917e-08 0)
(-1.65433e-07 2.69926e-08 0)
(-1.74134e-07 2.32726e-08 0)
(-1.81518e-07 1.93571e-08 0)
(-1.87522e-07 1.5273e-08 0)
(-1.92093e-07 1.10495e-08 0)
(-1.95186e-07 6.71707e-09 0)
(-1.9677e-07 2.30801e-09 0)
(-1.96822e-07 -2.14422e-09 0)
(-1.95333e-07 -6.60497e-09 0)
(-1.92306e-07 -1.10388e-08 0)
(-1.87755e-07 -1.54095e-08 0)
(-1.81708e-07 -1.96809e-08 0)
(-1.74204e-07 -2.38168e-08 0)
(-1.65296e-07 -2.77813e-08 0)
(-1.5505e-07 -3.15395e-08 0)
(-1.43542e-07 -3.50578e-08 0)
(-1.30859e-07 -3.8304e-08 0)
(-1.17103e-07 -4.12482e-08 0)
(-1.02381e-07 -4.38628e-08 0)
(-8.68124e-08 -4.6123e-08 0)
(-7.05239e-08 -4.80071e-08 0)
(-5.84405e-08 -4.90831e-08 0)
(-5.08446e-08 -4.96653e-08 0)
(-4.31649e-08 -5.01664e-08 0)
(-3.54142e-08 -5.05856e-08 0)
(-2.76051e-08 -5.09218e-08 0)
(-1.97505e-08 -5.11746e-08 0)
(-1.18633e-08 -5.13434e-08 0)
(-3.95662e-09 -5.14279e-08 0)
(3.95663e-09 -5.14279e-08 0)
(1.18633e-08 -5.13434e-08 0)
(1.97505e-08 -5.11746e-08 0)
(2.76051e-08 -5.09218e-08 0)
(3.54142e-08 -5.05856e-08 0)
(4.31649e-08 -5.01664e-08 0)
(5.08446e-08 -4.96653e-08 0)
(5.84405e-08 -4.90831e-08 0)
(7.05239e-08 -4.80071e-08 0)
(8.68124e-08 -4.6123e-08 0)
(1.02381e-07 -4.38628e-08 0)
(1.17103e-07 -4.12482e-08 0)
(1.30859e-07 -3.8304e-08 0)
(1.43542e-07 -3.50578e-08 0)
(1.5505e-07 -3.15395e-08 0)
(1.65296e-07 -2.77813e-08 0)
(1.74204e-07 -2.38168e-08 0)
(1.81708e-07 -1.96809e-08 0)
(1.87755e-07 -1.54095e-08 0)
(1.92306e-07 -1.10388e-08 0)
(1.95333e-07 -6.60497e-09 0)
(1.96822e-07 -2.14422e-09 0)
(1.9677e-07 2.30801e-09 0)
(1.95186e-07 6.71707e-09 0)
(1.92093e-07 1.10495e-08 0)
(1.87522e-07 1.5273e-08 0)
(1.81518e-07 1.93571e-08 0)
(1.74134e-07 2.32726e-08 0)
(1.65433e-07 2.69926e-08 0)
(1.55489e-07 3.04917e-08 0)
(1.44381e-07 3.37468e-08 0)
(1.32197e-07 3.67367e-08 0)
(1.19033e-07 3.94423e-08 0)
(1.04989e-07 4.18467e-08 0)
(9.01725e-08 4.3935e-08 0)
(7.4694e-08 4.56945e-08 0)
(5.86685e-08 4.71148e-08 0)
(4.22144e-08 4.81874e-08 0)
(2.54523e-08 4.89059e-08 0)
(8.50476e-09 4.92663e-08 0)
(-8.60005e-09 5.76429e-08 0)
(-2.57376e-08 5.72216e-08 0)
(-4.26881e-08 5.63815e-08 0)
(-5.93278e-08 5.51275e-08 0)
(-7.55349e-08 5.34669e-08 0)
(-9.11901e-08 5.14096e-08 0)
(-1.06177e-07 4.89678e-08 0)
(-1.20384e-07 4.61563e-08 0)
(-1.33703e-07 4.29924e-08 0)
(-1.46032e-07 3.94958e-08 0)
(-1.57275e-07 3.56889e-08 0)
(-1.67343e-07 3.15962e-08 0)
(-1.76153e-07 2.72449e-08 0)
(-1.83634e-07 2.26645e-08 0)
(-1.8972e-07 1.78866e-08 0)
(-1.94356e-07 1.29451e-08 0)
(-1.97498e-07 7.87575e-09 0)
(-1.99114e-07 2.71625e-09 0)
(-1.9918e-07 -2.49423e-09 0)
(-1.97686e-07 -7.71516e-09 0)
(-1.94635e-07 -1.2905e-08 0)
(-1.90042e-07 -1.80215e-08 0)
(-1.83932e-07 -2.30222e-08 0)
(-1.76347e-07 -2.78646e-08 0)
(-1.6734e-07 -3.25068e-08 0)
(-1.56976e-07 -3.69077e-08 0)
(-1.45332e-07 -4.1028e-08 0)
(-1.32498e-07 -4.483e-08 0)
(-1.18574e-07 -4.82784e-08 0)
(-1.03671e-07 -5.13409e-08 0)
(-8.79092e-08 -5.39884e-08 0)
(-7.14169e-08 -5.61956e-08 0)
(-5.91816e-08 -5.74561e-08 0)
(-5.14897e-08 -5.81381e-08 0)
(-4.37129e-08 -5.87252e-08 0)
(-3.5864e-08 -5.92162e-08 0)
(-2.79559e-08 -5.96102e-08 0)
(-2.00016e-08 -5.99063e-08 0)
(-1.20142e-08 -6.01041e-08 0)
(-4.00693e-09 -6.0203e-08 0)
(4.00693e-09 -6.0203e-08 0)
(1.20142e-08 -6.01041e-08 0)
(2.00016e-08 -5.99063e-08 0)
(2.79559e-08 -5.96102e-08 0)
(3.5864e-08 -5.92162e-08 0)
(4.37129e-08 -5.87252e-08 0)
(5.14897e-08 -5.81381e-08 0)
(5.91816e-08 -5.74561e-08 0)
(7.14169e-08 -5.61956e-08 0)
(8.79092e-08 -5.39884e-08 0)
(1.03671e-07 -5.13409e-08 0)
(1.18574e-07 -4.82784e-08 0)
(1.32498e-07 -4.483e-08 0)
(1.45332e-07 -4.1028e-08 0)
(1.56976e-07 -3.69077e-08 0)
(1.6734e-07 -3.25068e-08 0)
(1.76347e-07 -2.78646e-08 0)
(1.83932e-07 -2.30222e-08 0)
(1.90042e-07 -1.80215e-08 0)
(1.94635e-07 -1.2905e-08 0)
(1.97686e-07 -7.71516e-09 0)
(1.9918e-07 -2.49423e-09 0)
(1.99114e-07 2.71625e-09 0)
(1.97498e-07 7.87575e-09 0)
(1.94356e-07 1.29451e-08 0)
(1.8972e-07 1.78866e-08 0)
(1.83634e-07 2.26645e-08 0)
(1.76153e-07 2.72449e-08 0)
(1.67343e-07 3.15962e-08 0)
(1.57275e-07 3.56889e-08 0)
(1.46032e-07 3.94958e-08 0)
(1.33703e-07 4.29924e-08 0)
(1.20384e-07 4.61563e-08 0)
(1.06177e-07 4.89678e-08 0)
(9.11901e-08 5.14096e-08 0)
(7.55349e-08 5.34669e-08 0)
(5.93278e-08 5.51275e-08 0)
(4.26881e-08 5.63815e-08 0)
(2.57376e-08 5.72216e-08 0)
(8.60005e-09 5.76429e-08 0)
(-8.72175e-09 6.69478e-08 0)
(-2.61021e-08 6.6459e-08 0)
(-4.32931e-08 6.54842e-08 0)
(-6.01698e-08 6.40292e-08 0)
(-7.66091e-08 6.21023e-08 0)
(-9.249e-08 5.97149e-08 0)
(-1.07695e-07 5.68812e-08 0)
(-1.22111e-07 5.36184e-08 0)
(-1.35628e-07 4.99463e-08 0)
(-1.48143e-07 4.58878e-08 0)
(-1.59558e-07 4.14687e-08 0)
(-1.69783e-07 3.67175e-08 0)
(-1.78735e-07 3.16656e-08 0)
(-1.86338e-07 2.63471e-08 0)
(-1.92529e-07 2.07987e-08 0)
(-1.97249e-07 1.50598e-08 0)
(-2.00455e-07 9.1717e-09 0)
(-2.02111e-07 3.17821e-09 0)
(-2.02195e-07 -2.87521e-09 0)
(-2.00696e-07 -8.94148e-09 0)
(-1.97615e-07 -1.49723e-08 0)
(-1.92966e-07 -2.09187e-08 0)
(-1.86778e-07 -2.6731e-08 0)
(-1.7909e-07 -3.236e-08 0)
(-1.69955e-07 -3.77569e-08 0)
(-1.5944e-07 -4.28738e-08 0)
(-1.47623e-07 -4.76648e-08 0)
(-1.34594e-07 -5.20861e-08 0)
(-1.20457e-07 -5.60966e-08 0)
(-1.05322e-07 -5.96586e-08 0)
(-8.93131e-08 -6.2738e-08 0)
(-7.256e-08 -6.53054e-08 0)
(-6.01301e-08 -6.67717e-08 0)
(-5.23156e-08 -6.75651e-08 0)
(-4.44145e-08 -6.82481e-08 0)
(-3.64399e-08 -6.88193e-08 0)
(-2.84049e-08 -6.92776e-08 0)
(-2.03229e-08 -6.96221e-08 0)
(-1.22072e-08 -6.98521e-08 0)
(-4.07133e-09 -6.99672e-08 0)
(4.07133e-09 -6.99672e-08 0)
(1.22073e-08 -6.98521e-08 0)
(2.03229e-08 -6.96221e-08 0)
(2.84049e-08 -6.92776e-08 0)
(3.64399e-08 -6.88193e-08 0)
(4.44145e-08 -6.82481e-08 0)
(5.23156e-08 -6.75651e-08 0)
(6.01301e-08 -6.67717e-08 0)
(7.256e-08 -6.53054e-08 0)
(8.93132e-08 -6.2738e-08 0)
(1.05322e-07 -5.96586e-08 0)
(1.20457e-07 -5.60966e-08 0)
(1.34594e-07 -5.20861e-08 0)
(1.47623e-07 -4.76648e-08 0)
(1.5944e-07 -4.28738e-08 0)
(1.69955e-07 -3.77569e-08 0)
(1.7909e-07 -3.236e-08 0)
(1.86778e-07 -2.67311e-08 0)
(1.92966e-07 -2.09187e-08 0)
(1.97615e-07 -1.49723e-08 0)
(2.00696e-07 -8.94148e-09 0)
(2.02195e-07 -2.87521e-09 0)
(2.02111e-07 3.17821e-09 0)
(2.00455e-07 9.1717e-09 0)
(1.97249e-07 1.50598e-08 0)
(1.92529e-07 2.07987e-08 0)
(1.86338e-07 2.63471e-08 0)
(1.78735e-07 3.16656e-08 0)
(1.69783e-07 3.67175e-08 0)
(1.59558e-07 4.14687e-08 0)
(1.48143e-07 4.58878e-08 0)
(1.35628e-07 4.99463e-08 0)
(1.22111e-07 5.36184e-08 0)
(1.07695e-07 5.68812e-08 0)
(9.249e-08 5.97149e-08 0)
(7.66091e-08 6.21023e-08 0)
(6.01698e-08 6.40292e-08 0)
(4.32931e-08 6.54842e-08 0)
(2.61021e-08 6.6459e-08 0)
(8.72175e-09 6.69478e-08 0)
(-8.87616e-09 7.73171e-08 0)
(-2.65644e-08 7.67533e-08 0)
(-4.40607e-08 7.5629e-08 0)
(-6.12382e-08 7.39505e-08 0)
(-7.7972e-08 7.17278e-08 0)
(-9.41395e-08 6.89736e-08 0)
(-1.09621e-07 6.57045e-08 0)
(-1.24302e-07 6.19399e-08 0)
(-1.3807e-07 5.77027e-08 0)
(-1.50821e-07 5.30193e-08 0)
(-1.62455e-07 4.79192e-08 0)
(-1.72881e-07 4.24352e-08 0)
(-1.82012e-07 3.66035e-08 0)
(-1.89773e-07 3.04632e-08 0)
(-1.96096e-07 2.40567e-08 0)
(-2.00924e-07 1.74291e-08 0)
(-2.0421e-07 1.06284e-08 0)
(-2.05919e-07 3.70495e-09 0)
(-2.06026e-07 -3.28876e-09 0)
(-2.0452e-07 -1.02984e-08 0)
(-2.01401e-07 -1.72681e-08 0)
(-1.96684e-07 -2.41412e-08 0)
(-1.90396e-07 -3.08603e-08 0)
(-1.82576e-07 -3.73684e-08 0)
(-1.73279e-07 -4.36089e-08 0)
(-1.62573e-07 -4.95265e-08 0)
(-1.50536e-07 -5.50679e-08 0)
(-1.37261e-07 -6.01823e-08 0)
(-1.22852e-07 -6.48219e-08 0)
(-1.07423e-07 -6.8943e-08 0)
(-9.10992e-08 -7.25061e-08 0)
(-7.40142e-08 -7.54769e-08 0)
(-6.1337e-08 -7.71738e-08 0)
(-5.33663e-08 -7.8092e-08 0)
(-4.53071e-08 -7.88823e-08 0)
(-3.71726e-08 -7.95434e-08 0)
(-2.89763e-08 -8.00737e-08 0)
(-2.07318e-08 -8.04724e-08 0)
(-1.24529e-08 -8.07387e-08 0)
(-4.15328e-09 -8.08719e-08 0)
(4.15328e-09 -8.08719e-08 0)
(1.24529e-08 -8.07387e-08 0)
(2.07318e-08 -8.04724e-08 0)
(2.89763e-08 -8.00737e-08 0)
(3.71726e-08 -7.95434e-08 0)
(4.53071e-08 -7.88823e-08 0)
(5.33663e-08 -7.8092e-08 0)
(6.1337e-08 -7.71738e-08 0)
(7.40142e-08 -7.54769e-08 0)
(9.10992e-08 -7.25061e-08 0)
(1.07423e-07 -6.8943e-08 0)
(1.22852e-07 -6.48219e-08 0)
(1.37261e-07 -6.01823e-08 0)
(1.50536e-07 -5.50679e-08 0)
(1.62573e-07 -4.95266e-08 0)
(1.73279e-07 -4.36089e-08 0)
(1.82576e-07 -3.73684e-08 0)