/*--------------------------------*- C++ -*----------------------------------*\
  =========                 |
  \\      /  F ield         | OpenFOAM: The Open Source CFD Toolbox
   \\    /   O peration     | Website:  https://openfoam.org
    \\  /    A nd           | Version:  10
     \\/     M anipulation  |
\*---------------------------------------------------------------------------*/
FoamFile
{
    format      ascii;
    class       volVectorField;
    location    "600";
    object      Ub;
}
// * * * * * * * * * * * * * * * * * * * * * * * * * * * * * * * * * * * * * //

dimensions      [0 1 -1 0 0 0 0];

internalField   nonuniform List<vector> 
6400
(
(-1.46799e-22 -9.87899e-16 0)
(-4.39321e-22 -9.87899e-16 0)
(-7.28621e-22 -9.87899e-16 0)
(-1.01257e-21 -9.87899e-16 0)
(-1.28908e-21 -9.87899e-16 0)
(-1.5561e-21 -9.87899e-16 0)
(-1.81163e-21 -9.87899e-16 0)
(-2.05375e-21 -9.87899e-16 0)
(-2.28062e-21 -9.87899e-16 0)
(-2.4905e-21 -9.87899e-16 0)
(-2.68174e-21 -9.87899e-16 0)
(-2.85284e-21 -9.87899e-16 0)
(-3.00241e-21 -9.87899e-16 0)
(-3.12921e-21 -9.87899e-16 0)
(-3.23216e-21 -9.87899e-16 0)
(-3.31036e-21 -9.87899e-16 0)
(-3.36306e-21 -9.87899e-16 0)
(-3.38972e-21 -9.87899e-16 0)
(-3.39e-21 -9.87899e-16 0)
(-3.36374e-21 -9.87899e-16 0)
(-3.311e-21 -9.87899e-16 0)
(-3.23206e-21 -9.87899e-16 0)
(-3.12741e-21 -9.87899e-16 0)
(-2.99775e-21 -9.87899e-16 0)
(-2.844e-21 -9.87899e-16 0)
(-2.6673e-21 -9.87899e-16 0)
(-2.46896e-21 -9.87899e-16 0)
(-2.25053e-21 -9.87899e-16 0)
(-2.0137e-21 -9.87899e-16 0)
(-1.76035e-21 -9.87899e-16 0)
(-1.49253e-21 -9.87899e-16 0)
(-1.2124e-21 -9.87899e-16 0)
(-1.00462e-21 -9.87899e-16 0)
(-8.74018e-22 -9.87899e-16 0)
(-7.4199e-22 -9.87899e-16 0)
(-6.08747e-22 -9.87899e-16 0)
(-4.74507e-22 -9.87899e-16 0)
(-3.3949e-22 -9.87899e-16 0)
(-2.03917e-22 -9.87899e-16 0)
(-6.80095e-23 -9.87899e-16 0)
(6.80095e-23 -9.87899e-16 0)
(2.03917e-22 -9.87899e-16 0)
(3.3949e-22 -9.87899e-16 0)
(4.74507e-22 -9.87899e-16 0)
(6.08747e-22 -9.87899e-16 0)
(7.4199e-22 -9.87899e-16 0)
(8.74018e-22 -9.87899e-16 0)
(1.00462e-21 -9.87899e-16 0)
(1.2124e-21 -9.87899e-16 0)
(1.49253e-21 -9.87899e-16 0)
(1.76035e-21 -9.87899e-16 0)
(2.0137e-21 -9.87899e-16 0)
(2.25053e-21 -9.87899e-16 0)
(2.46896e-21 -9.87899e-16 0)
(2.6673e-21 -9.87899e-16 0)
(2.844e-21 -9.87899e-16 0)
(2.99775e-21 -9.87899e-16 0)
(3.12741e-21 -9.87899e-16 0)
(3.23206e-21 -9.87899e-16 0)
(3.311e-21 -9.87899e-16 0)
(3.36374e-21 -9.87899e-16 0)
(3.39e-21 -9.87899e-16 0)
(3.38972e-21 -9.87899e-16 0)
(3.36306e-21 -9.87899e-16 0)
(3.31036e-21 -9.87899e-16 0)
(3.23216e-21 -9.87899e-16 0)
(3.12921e-21 -9.87899e-16 0)
(3.00241e-21 -9.87899e-16 0)
(2.85284e-21 -9.87899e-16 0)
(2.68174e-21 -9.87899e-16 0)
(2.4905e-21 -9.87899e-16 0)
(2.28062e-21 -9.87899e-16 0)
(2.05375e-21 -9.87899e-16 0)
(1.81163e-21 -9.87899e-16 0)
(1.5561e-21 -9.87899e-16 0)
(1.28908e-21 -9.87899e-16 0)
(1.01257e-21 -9.87899e-16 0)
(7.28621e-22 -9.87899e-16 0)
(4.39321e-22 -9.87899e-16 0)
(1.46799e-22 -9.87899e-16 0)
(-1.46846e-22 -9.87898e-16 0)
(-4.3946e-22 -9.87898e-16 0)
(-7.28853e-22 -9.87898e-16 0)
(-1.0129e-21 -9.87898e-16 0)
(-1.28949e-21 -9.87898e-16 0)
(-1.5566e-21 -9.87898e-16 0)
(-1.81221e-21 -9.87898e-16 0)
(-2.05441e-21 -9.87898e-16 0)
(-2.28136e-21 -9.87898e-16 0)
(-2.4913e-21 -9.87898e-16 0)
(-2.68261e-21 -9.87898e-16 0)
(-2.85377e-21 -9.87898e-16 0)
(-3.00339e-21 -9.87898e-16 0)
(-3.13024e-21 -9.87898e-16 0)
(-3.23323e-21 -9.87898e-16 0)
(-3.31146e-21 -9.87898e-16 0)
(-3.36419e-21 -9.87898e-16 0)
(-3.39087e-21 -9.87899e-16 0)
(-3.39115e-21 -9.87899e-16 0)
(-3.36488e-21 -9.87899e-16 0)
(-3.31213e-21 -9.87899e-16 0)
(-3.23317e-21 -9.87899e-16 0)
(-3.12849e-21 -9.87899e-16 0)
(-2.99879e-21 -9.87899e-16 0)
(-2.845e-21 -9.87899e-16 0)
(-2.66823e-21 -9.87899e-16 0)
(-2.46983e-21 -9.87899e-16 0)
(-2.25132e-21 -9.87899e-16 0)
(-2.01441e-21 -9.87899e-16 0)
(-1.76098e-21 -9.87899e-16 0)
(-1.49306e-21 -9.87899e-16 0)
(-1.21283e-21 -9.87899e-16 0)
(-1.00498e-21 -9.87899e-16 0)
(-8.74332e-22 -9.87899e-16 0)
(-7.42256e-22 -9.87899e-16 0)
(-6.08965e-22 -9.87899e-16 0)
(-4.74678e-22 -9.87899e-16 0)
(-3.39612e-22 -9.87899e-16 0)
(-2.0399e-22 -9.87899e-16 0)
(-6.80339e-23 -9.87899e-16 0)
(6.80339e-23 -9.87899e-16 0)
(2.0399e-22 -9.87899e-16 0)
(3.39612e-22 -9.87899e-16 0)
(4.74678e-22 -9.87899e-16 0)
(6.08965e-22 -9.87899e-16 0)
(7.42256e-22 -9.87899e-16 0)
(8.74332e-22 -9.87899e-16 0)
(1.00498e-21 -9.87899e-16 0)
(1.21283e-21 -9.87899e-16 0)
(1.49306e-21 -9.87899e-16 0)
(1.76098e-21 -9.87899e-16 0)
(2.01441e-21 -9.87899e-16 0)
(2.25132e-21 -9.87899e-16 0)
(2.46983e-21 -9.87899e-16 0)
(2.66823e-21 -9.87899e-16 0)
(2.845e-21 -9.87899e-16 0)
(2.99879e-21 -9.87899e-16 0)
(3.12849e-21 -9.87899e-16 0)
(3.23317e-21 -9.87899e-16 0)
(3.31213e-21 -9.87899e-16 0)
(3.36488e-21 -9.87899e-16 0)
(3.39115e-21 -9.87899e-16 0)
(3.39087e-21 -9.87899e-16 0)
(3.36419e-21 -9.87898e-16 0)
(3.31146e-21 -9.87898e-16 0)
(3.23323e-21 -9.87898e-16 0)
(3.13024e-21 -9.87898e-16 0)
(3.00339e-21 -9.87898e-16 0)
(2.85377e-21 -9.87898e-16 0)
(2.68261e-21 -9.87898e-16 0)
(2.4913e-21 -9.87898e-16 0)
(2.28136e-21 -9.87898e-16 0)
(2.05441e-21 -9.87898e-16 0)
(1.81221e-21 -9.87898e-16 0)
(1.5566e-21 -9.87898e-16 0)
(1.28949e-21 -9.87898e-16 0)
(1.0129e-21 -9.87898e-16 0)
(7.28853e-22 -9.87898e-16 0)
(4.3946e-22 -9.87898e-16 0)
(1.46846e-22 -9.87898e-16 0)
(-1.46953e-22 -9.87898e-16 0)
(-4.39781e-22 -9.87898e-16 0)
(-7.29386e-22 -9.87898e-16 0)
(-1.01364e-21 -9.87898e-16 0)
(-1.29044e-21 -9.87898e-16 0)
(-1.55774e-21 -9.87898e-16 0)
(-1.81355e-21 -9.87898e-16 0)
(-2.05593e-21 -9.87898e-16 0)
(-2.28305e-21 -9.87898e-16 0)
(-2.49316e-21 -9.87898e-16 0)
(-2.68462e-21 -9.87898e-16 0)
(-2.85591e-21 -9.87898e-16 0)
(-3.00566e-21 -9.87898e-16 0)
(-3.13262e-21 -9.87898e-16 0)
(-3.2357e-21 -9.87898e-16 0)
(-3.314e-21 -9.87898e-16 0)
(-3.36678e-21 -9.87898e-16 0)
(-3.3935e-21 -9.87899e-16 0)
(-3.39379e-21 -9.87899e-16 0)
(-3.36752e-21 -9.87899e-16 0)
(-3.31474e-21 -9.87899e-16 0)
(-3.23573e-21 -9.87899e-16 0)
(-3.13098e-21 -9.87899e-16 0)
(-3.00119e-21 -9.87899e-16 0)
(-2.84729e-21 -9.87899e-16 0)
(-2.67039e-21 -9.87899e-16 0)
(-2.47184e-21 -9.87899e-16 0)
(-2.25316e-21 -9.87899e-16 0)
(-2.01606e-21 -9.87899e-16 0)
(-1.76242e-21 -9.87899e-16 0)
(-1.49429e-21 -9.87899e-16 0)
(-1.21383e-21 -9.87899e-16 0)
(-1.00581e-21 -9.87899e-16 0)
(-8.75053e-22 -9.87899e-16 0)
(-7.42869e-22 -9.87899e-16 0)
(-6.09468e-22 -9.87899e-16 0)
(-4.7507e-22 -9.87899e-16 0)
(-3.39893e-22 -9.87899e-16 0)
(-2.04159e-22 -9.87899e-16 0)
(-6.80901e-23 -9.87899e-16 0)
(6.80902e-23 -9.87899e-16 0)
(2.04159e-22 -9.87899e-16 0)
(3.39893e-22 -9.87899e-16 0)
(4.7507e-22 -9.87899e-16 0)
(6.09468e-22 -9.87899e-16 0)
(7.42869e-22 -9.87899e-16 0)
(8.75053e-22 -9.87899e-16 0)
(1.00581e-21 -9.87899e-16 0)
(1.21383e-21 -9.87899e-16 0)
(1.49429e-21 -9.87899e-16 0)
(1.76242e-21 -9.87899e-16 0)
(2.01606e-21 -9.87899e-16 0)
(2.25316e-21 -9.87899e-16 0)
(2.47184e-21 -9.87899e-16 0)
(2.67039e-21 -9.87899e-16 0)
(2.84729e-21 -9.87899e-16 0)
(3.00119e-21 -9.87899e-16 0)
(3.13098e-21 -9.87899e-16 0)
(3.23573e-21 -9.87899e-16 0)
(3.31474e-21 -9.87899e-16 0)
(3.36752e-21 -9.87899e-16 0)
(3.39379e-21 -9.87899e-16 0)
(3.3935e-21 -9.87899e-16 0)
(3.36678e-21 -9.87898e-16 0)
(3.314e-21 -9.87898e-16 0)
(3.2357e-21 -9.87898e-16 0)
(3.13262e-21 -9.87898e-16 0)
(3.00566e-21 -9.87898e-16 0)
(2.85591e-21 -9.87898e-16 0)
(2.68462e-21 -9.87898e-16 0)
(2.49316e-21 -9.87898e-16 0)
(2.28305e-21 -9.87898e-16 0)
(2.05593e-21 -9.87898e-16 0)
(1.81355e-21 -9.87898e-16 0)
(1.55774e-21 -9.87898e-16 0)
(1.29044e-21 -9.87898e-16 0)
(1.01364e-21 -9.87898e-16 0)
(7.29386e-22 -9.87898e-16 0)
(4.39781e-22 -9.87898e-16 0)
(1.46953e-22 -9.87898e-16 0)
(-1.47138e-22 -9.87898e-16 0)
(-4.40336e-22 -9.87898e-16 0)
(-7.30306e-22 -9.87898e-16 0)
(-1.01492e-21 -9.87898e-16 0)
(-1.29207e-21 -9.87898e-16 0)
(-1.55972e-21 -9.87898e-16 0)
(-1.81585e-21 -9.87898e-16 0)
(-2.05855e-21 -9.87898e-16 0)
(-2.28597e-21 -9.87898e-16 0)
(-2.49636e-21 -9.87898e-16 0)
(-2.68809e-21 -9.87898e-16 0)
(-2.85962e-21 -9.87898e-16 0)
(-3.00958e-21 -9.87898e-16 0)
(-3.13672e-21 -9.87898e-16 0)
(-3.23996e-21 -9.87898e-16 0)
(-3.31839e-21 -9.87898e-16 0)
(-3.37126e-21 -9.87898e-16 0)
(-3.39804e-21 -9.87898e-16 0)
(-3.39836e-21 -9.87899e-16 0)
(-3.37208e-21 -9.87899e-16 0)
(-3.31925e-21 -9.87899e-16 0)
(-3.24016e-21 -9.87899e-16 0)
(-3.13528e-21 -9.87899e-16 0)
(-3.00534e-21 -9.87899e-16 0)
(-2.85124e-21 -9.87899e-16 0)
(-2.67411e-21 -9.87899e-16 0)
(-2.4753e-21 -9.87899e-16 0)
(-2.25632e-21 -9.87899e-16 0)
(-2.0189e-21 -9.87899e-16 0)
(-1.76491e-21 -9.87899e-16 0)
(-1.49641e-21 -9.87899e-16 0)
(-1.21555e-21 -9.87899e-16 0)
(-1.00724e-21 -9.87899e-16 0)
(-8.76298e-22 -9.87899e-16 0)
(-7.43927e-22 -9.87899e-16 0)
(-6.10337e-22 -9.87899e-16 0)
(-4.75747e-22 -9.87899e-16 0)
(-3.40377e-22 -9.87899e-16 0)
(-2.0445e-22 -9.87899e-16 0)
(-6.81873e-23 -9.87899e-16 0)
(6.81873e-23 -9.87899e-16 0)
(2.0445e-22 -9.87899e-16 0)
(3.40377e-22 -9.87899e-16 0)
(4.75747e-22 -9.87899e-16 0)
(6.10337e-22 -9.87899e-16 0)
(7.43927e-22 -9.87899e-16 0)
(8.76298e-22 -9.87899e-16 0)
(1.00724e-21 -9.87899e-16 0)
(1.21555e-21 -9.87899e-16 0)
(1.49641e-21 -9.87899e-16 0)
(1.76491e-21 -9.87899e-16 0)
(2.0189e-21 -9.87899e-16 0)
(2.25632e-21 -9.87899e-16 0)
(2.4753e-21 -9.87899e-16 0)
(2.67411e-21 -9.87899e-16 0)
(2.85124e-21 -9.87899e-16 0)
(3.00534e-21 -9.87899e-16 0)
(3.13528e-21 -9.87899e-16 0)
(3.24016e-21 -9.87899e-16 0)
(3.31925e-21 -9.87899e-16 0)
(3.37208e-21 -9.87899e-16 0)
(3.39836e-21 -9.87899e-16 0)
(3.39804e-21 -9.87898e-16 0)
(3.37126e-21 -9.87898e-16 0)
(3.31839e-21 -9.87898e-16 0)
(3.23996e-21 -9.87898e-16 0)
(3.13672e-21 -9.87898e-16 0)
(3.00958e-21 -9.87898e-16 0)
(2.85962e-21 -9.87898e-16 0)
(2.68809e-21 -9.87898e-16 0)
(2.49636e-21 -9.87898e-16 0)
(2.28597e-21 -9.87898e-16 0)
(2.05855e-21 -9.87898e-16 0)
(1.81585e-21 -9.87898e-16 0)
(1.55972e-21 -9.87898e-16 0)
(1.29207e-21 -9.87898e-16 0)
(1.01492e-21 -9.87898e-16 0)
(7.30306e-22 -9.87898e-16 0)
(4.40336e-22 -9.87898e-16 0)
(1.47138e-22 -9.87898e-16 0)
(-1.47422e-22 -9.87898e-16 0)
(-4.41187e-22 -9.87898e-16 0)
(-7.31719e-22 -9.87898e-16 0)
(-1.01688e-21 -9.87898e-16 0)
(-1.29458e-21 -9.87898e-16 0)
(-1.56275e-21 -9.87898e-16 0)
(-1.8194e-21 -9.87898e-16 0)
(-2.06258e-21 -9.87898e-16 0)
(-2.29046e-21 -9.87898e-16 0)
(-2.50129e-21 -9.87898e-16 0)
(-2.69341e-21 -9.87898e-16 0)
(-2.86531e-21 -9.87898e-16 0)
(-3.01559e-21 -9.87898e-16 0)
(-3.14302e-21 -9.87898e-16 0)
(-3.2465e-21 -9.87898e-16 0)
(-3.32513e-21 -9.87898e-16 0)
(-3.37815e-21 -9.87898e-16 0)
(-3.40501e-21 -9.87898e-16 0)
(-3.40537e-21 -9.87899e-16 0)
(-3.37907e-21 -9.87899e-16 0)
(-3.32618e-21 -9.87899e-16 0)
(-3.24695e-21 -9.87899e-16 0)
(-3.14189e-21 -9.87899e-16 0)
(-3.0117e-21 -9.87899e-16 0)
(-2.85731e-21 -9.87899e-16 0)
(-2.67983e-21 -9.87899e-16 0)
(-2.48061e-21 -9.87899e-16 0)
(-2.26118e-21 -9.87899e-16 0)
(-2.02326e-21 -9.87899e-16 0)
(-1.76874e-21 -9.87899e-16 0)
(-1.49966e-21 -9.87899e-16 0)
(-1.2182e-21 -9.87899e-16 0)
(-1.00943e-21 -9.87899e-16 0)
(-8.78212e-22 -9.87899e-16 0)
(-7.45552e-22 -9.87899e-16 0)
(-6.11671e-22 -9.87899e-16 0)
(-4.76787e-22 -9.87899e-16 0)
(-3.41122e-22 -9.87899e-16 0)
(-2.04897e-22 -9.87899e-16 0)
(-6.83365e-23 -9.87899e-16 0)
(6.83365e-23 -9.87899e-16 0)
(2.04897e-22 -9.87899e-16 0)
(3.41122e-22 -9.87899e-16 0)
(4.76787e-22 -9.87899e-16 0)
(6.11671e-22 -9.87899e-16 0)
(7.45552e-22 -9.87899e-16 0)
(8.78212e-22 -9.87899e-16 0)
(1.00943e-21 -9.87899e-16 0)
(1.2182e-21 -9.87899e-16 0)
(1.49966e-21 -9.87899e-16 0)
(1.76874e-21 -9.87899e-16 0)
(2.02326e-21 -9.87899e-16 0)
(2.26118e-21 -9.87899e-16 0)
(2.48061e-21 -9.87899e-16 0)
(2.67983e-21 -9.87899e-16 0)
(2.85731e-21 -9.87899e-16 0)
(3.0117e-21 -9.87899e-16 0)
(3.14189e-21 -9.87899e-16 0)
(3.24695e-21 -9.87899e-16 0)
(3.32618e-21 -9.87899e-16 0)
(3.37907e-21 -9.87899e-16 0)
(3.40537e-21 -9.87899e-16 0)
(3.40501e-21 -9.87898e-16 0)
(3.37815e-21 -9.87898e-16 0)
(3.32513e-21 -9.87898e-16 0)
(3.2465e-21 -9.87898e-16 0)
(3.14302e-21 -9.87898e-16 0)
(3.01559e-21 -9.87898e-16 0)
(2.86531e-21 -9.87898e-16 0)
(2.69341e-21 -9.87898e-16 0)
(2.50129e-21 -9.87898e-16 0)
(2.29046e-21 -9.87898e-16 0)
(2.06258e-21 -9.87898e-16 0)
(1.8194e-21 -9.87898e-16 0)
(1.56275e-21 -9.87898e-16 0)
(1.29458e-21 -9.87898e-16 0)
(1.01688e-21 -9.87898e-16 0)
(7.31719e-22 -9.87898e-16 0)
(4.41187e-22 -9.87898e-16 0)
(1.47422e-22 -9.87898e-16 0)
(-1.47832e-22 -9.87898e-16 0)
(-4.42414e-22 -9.87898e-16 0)
(-7.33756e-22 -9.87898e-16 0)
(-1.01972e-21 -9.87898e-16 0)
(-1.2982e-21 -9.87898e-16 0)
(-1.56713e-21 -9.87898e-16 0)
(-1.8245e-21 -9.87898e-16 0)
(-2.06839e-21 -9.87898e-16 0)
(-2.29694e-21 -9.87898e-16 0)
(-2.50839e-21 -9.87898e-16 0)
(-2.70109e-21 -9.87898e-16 0)
(-2.87351e-21 -9.87898e-16 0)
(-3.02427e-21 -9.87898e-16 0)
(-3.15211e-21 -9.87898e-16 0)
(-3.25594e-21 -9.87898e-16 0)
(-3.33484e-21 -9.87898e-16 0)
(-3.38807e-21 -9.87898e-16 0)
(-3.41507e-21 -9.87898e-16 0)
(-3.41548e-21 -9.87899e-16 0)
(-3.38916e-21 -9.87899e-16 0)
(-3.33616e-21 -9.87899e-16 0)
(-3.25675e-21 -9.87899e-16 0)
(-3.15143e-21 -9.87899e-16 0)
(-3.02089e-21 -9.87899e-16 0)
(-2.86606e-21 -9.87899e-16 0)
(-2.68807e-21 -9.87899e-16 0)
(-2.48827e-21 -9.87899e-16 0)
(-2.2682e-21 -9.87899e-16 0)
(-2.02956e-21 -9.87899e-16 0)
(-1.77426e-21 -9.87899e-16 0)
(-1.50435e-21 -9.87899e-16 0)
(-1.22202e-21 -9.87899e-16 0)
(-1.0126e-21 -9.87899e-16 0)
(-8.80971e-22 -9.87899e-16 0)
(-7.47896e-22 -9.87899e-16 0)
(-6.13595e-22 -9.87899e-16 0)
(-4.78288e-22 -9.87899e-16 0)
(-3.42196e-22 -9.87899e-16 0)
(-2.05542e-22 -9.87899e-16 0)
(-6.85516e-23 -9.87899e-16 0)
(6.85516e-23 -9.87899e-16 0)
(2.05542e-22 -9.87899e-16 0)
(3.42196e-22 -9.87899e-16 0)
(4.78288e-22 -9.87899e-16 0)
(6.13595e-22 -9.87899e-16 0)
(7.47896e-22 -9.87899e-16 0)
(8.80971e-22 -9.87899e-16 0)
(1.0126e-21 -9.87899e-16 0)
(1.22202e-21 -9.87899e-16 0)
(1.50435e-21 -9.87899e-16 0)
(1.77426e-21 -9.87899e-16 0)
(2.02956e-21 -9.87899e-16 0)
(2.2682e-21 -9.87899e-16 0)
(2.48827e-21 -9.87899e-16 0)
(2.68807e-21 -9.87899e-16 0)
(2.86606e-21 -9.87899e-16 0)
(3.02089e-21 -9.87899e-16 0)
(3.15143e-21 -9.87899e-16 0)
(3.25675e-21 -9.87899e-16 0)
(3.33616e-21 -9.87899e-16 0)
(3.38916e-21 -9.87899e-16 0)
(3.41548e-21 -9.87899e-16 0)
(3.41507e-21 -9.87898e-16 0)
(3.38807e-21 -9.87898e-16 0)
(3.33484e-21 -9.87898e-16 0)
(3.25594e-21 -9.87898e-16 0)
(3.15211e-21 -9.87898e-16 0)
(3.02427e-21 -9.87898e-16 0)
(2.87351e-21 -9.87898e-16 0)
(2.70109e-21 -9.87898e-16 0)
(2.50839e-21 -9.87898e-16 0)
(2.29694e-21 -9.87898e-16 0)
(2.06839e-21 -9.87898e-16 0)
(1.8245e-21 -9.87898e-16 0)
(1.56713e-21 -9.87898e-16 0)
(1.2982e-21 -9.87898e-16 0)
(1.01972e-21 -9.87898e-16 0)
(7.33756e-22 -9.87898e-16 0)
(4.42414e-22 -9.87898e-16 0)
(1.47832e-22 -9.87898e-16 0)
(-1.484e-22 -9.87898e-16 0)
(-4.44113e-22 -9.87898e-16 0)
(-7.36577e-22 -9.87898e-16 0)
(-1.02365e-21 -9.87898e-16 0)
(-1.30321e-21 -9.87898e-16 0)
(-1.57319e-21 -9.87898e-16 0)
(-1.83158e-21 -9.87898e-16 0)
(-2.07644e-21 -9.87898e-16 0)
(-2.30591e-21 -9.87898e-16 0)
(-2.51822e-21 -9.87898e-16 0)
(-2.71172e-21 -9.87898e-16 0)
(-2.88487e-21 -9.87898e-16 0)
(-3.03628e-21 -9.87898e-16 0)
(-3.16469e-21 -9.87898e-16 0)
(-3.26901e-21 -9.87898e-16 0)
(-3.3483e-21 -9.87898e-16 0)
(-3.40181e-21 -9.87898e-16 0)
(-3.429e-21 -9.87898e-16 0)
(-3.42949e-21 -9.87899e-16 0)
(-3.40314e-21 -9.87899e-16 0)
(-3.35e-21 -9.87899e-16 0)
(-3.27033e-21 -9.87899e-16 0)
(-3.16463e-21 -9.87899e-16 0)
(-3.03361e-21 -9.87899e-16 0)
(-2.87818e-21 -9.87899e-16 0)
(-2.6995e-21 -9.87899e-16 0)
(-2.49889e-21 -9.87899e-16 0)
(-2.27791e-21 -9.87899e-16 0)
(-2.03828e-21 -9.87899e-16 0)
(-1.78191e-21 -9.87899e-16 0)
(-1.51085e-21 -9.87899e-16 0)
(-1.22731e-21 -9.87899e-16 0)
(-1.017e-21 -9.87899e-16 0)
(-8.84795e-22 -9.87899e-16 0)
(-7.51144e-22 -9.87899e-16 0)
(-6.16261e-22 -9.87899e-16 0)
(-4.80367e-22 -9.87899e-16 0)
(-3.43684e-22 -9.87899e-16 0)
(-2.06436e-22 -9.87899e-16 0)
(-6.88498e-23 -9.87899e-16 0)
(6.88498e-23 -9.87899e-16 0)
(2.06436e-22 -9.87899e-16 0)
(3.43684e-22 -9.87899e-16 0)
(4.80367e-22 -9.87899e-16 0)
(6.16261e-22 -9.87899e-16 0)
(7.51144e-22 -9.87899e-16 0)
(8.84795e-22 -9.87899e-16 0)
(1.017e-21 -9.87899e-16 0)
(1.22731e-21 -9.87899e-16 0)
(1.51085e-21 -9.87899e-16 0)
(1.78191e-21 -9.87899e-16 0)
(2.03828e-21 -9.87899e-16 0)
(2.27791e-21 -9.87899e-16 0)
(2.49889e-21 -9.87899e-16 0)
(2.6995e-21 -9.87899e-16 0)
(2.87818e-21 -9.87899e-16 0)
(3.03361e-21 -9.87899e-16 0)
(3.16463e-21 -9.87899e-16 0)
(3.27033e-21 -9.87899e-16 0)
(3.35e-21 -9.87899e-16 0)
(3.40314e-21 -9.87899e-16 0)
(3.42949e-21 -9.87899e-16 0)
(3.429e-21 -9.87898e-16 0)
(3.40181e-21 -9.87898e-16 0)
(3.3483e-21 -9.87898e-16 0)
(3.26901e-21 -9.87898e-16 0)
(3.16469e-21 -9.87898e-16 0)
(3.03628e-21 -9.87898e-16 0)
(2.88487e-21 -9.87898e-16 0)
(2.71172e-21 -9.87898e-16 0)
(2.51822e-21 -9.87898e-16 0)
(2.30591e-21 -9.87898e-16 0)
(2.07644e-21 -9.87898e-16 0)
(1.83158e-21 -9.87898e-16 0)
(1.57319e-21 -9.87898e-16 0)
(1.30321e-21 -9.87898e-16 0)
(1.02365e-21 -9.87898e-16 0)
(7.36577e-22 -9.87898e-16 0)
(4.44113e-22 -9.87898e-16 0)
(1.484e-22 -9.87898e-16 0)
(-1.49165e-22 -9.87898e-16 0)
(-4.46404e-22 -9.87898e-16 0)
(-7.4038e-22 -9.87898e-16 0)
(-1.02894e-21 -9.87898e-16 0)
(-1.30996e-21 -9.87898e-16 0)
(-1.58136e-21 -9.87898e-16 0)
(-1.84112e-21 -9.87898e-16 0)
(-2.08728e-21 -9.87898e-16 0)
(-2.31799e-21 -9.87898e-16 0)
(-2.53147e-21 -9.87898e-16 0)
(-2.72605e-21 -9.87898e-16 0)
(-2.90019e-21 -9.87898e-16 0)
(-3.05248e-21 -9.87898e-16 0)
(-3.18166e-21 -9.87898e-16 0)
(-3.28662e-21 -9.87898e-16 0)
(-3.36644e-21 -9.87898e-16 0)
(-3.42035e-21 -9.87898e-16 0)
(-3.44779e-21 -9.87898e-16 0)
(-3.44839e-21 -9.87899e-16 0)
(-3.42199e-21 -9.87899e-16 0)
(-3.36865e-21 -9.87899e-16 0)
(-3.28864e-21 -9.87899e-16 0)
(-3.18244e-21 -9.87899e-16 0)
(-3.05076e-21 -9.87899e-16 0)
(-2.89454e-21 -9.87899e-16 0)
(-2.71491e-21 -9.87899e-16 0)
(-2.51321e-21 -9.87899e-16 0)
(-2.29102e-21 -9.87899e-16 0)
(-2.05005e-21 -9.87899e-16 0)
(-1.79223e-21 -9.87899e-16 0)
(-1.51963e-21 -9.87899e-16 0)
(-1.23445e-21 -9.87899e-16 0)
(-1.02292e-21 -9.87899e-16 0)
(-8.89954e-22 -9.87899e-16 0)
(-7.55526e-22 -9.87899e-16 0)
(-6.19858e-22 -9.87899e-16 0)
(-4.83171e-22 -9.87899e-16 0)
(-3.45691e-22 -9.87899e-16 0)
(-2.07642e-22 -9.87899e-16 0)
(-6.9252e-23 -9.87899e-16 0)
(6.9252e-23 -9.87899e-16 0)
(2.07642e-22 -9.87899e-16 0)
(3.45691e-22 -9.87899e-16 0)
(4.83171e-22 -9.87899e-16 0)
(6.19858e-22 -9.87899e-16 0)
(7.55526e-22 -9.87899e-16 0)
(8.89954e-22 -9.87899e-16 0)
(1.02292e-21 -9.87899e-16 0)
(1.23445e-21 -9.87899e-16 0)
(1.51963e-21 -9.87899e-16 0)
(1.79223e-21 -9.87899e-16 0)
(2.05005e-21 -9.87899e-16 0)
(2.29102e-21 -9.87899e-16 0)
(2.51321e-21 -9.87899e-16 0)
(2.71491e-21 -9.87899e-16 0)
(2.89454e-21 -9.87899e-16 0)
(3.05076e-21 -9.87899e-16 0)
(3.18244e-21 -9.87899e-16 0)
(3.28864e-21 -9.87899e-16 0)
(3.36865e-21 -9.87899e-16 0)
(3.42199e-21 -9.87899e-16 0)
(3.44839e-21 -9.87899e-16 0)
(3.44779e-21 -9.87898e-16 0)
(3.42035e-21 -9.87898e-16 0)
(3.36644e-21 -9.87898e-16 0)
(3.28662e-21 -9.87898e-16 0)
(3.18166e-21 -9.87898e-16 0)
(3.05248e-21 -9.87898e-16 0)
(2.90019e-21 -9.87898e-16 0)
(2.72605e-21 -9.87898e-16 0)
(2.53147e-21 -9.87898e-16 0)
(2.31799e-21 -9.87898e-16 0)
(2.08728e-21 -9.87898e-16 0)
(1.84112e-21 -9.87898e-16 0)
(1.58136e-21 -9.87898e-16 0)
(1.30996e-21 -9.87898e-16 0)
(1.02894e-21 -9.87898e-16 0)
(7.4038e-22 -9.87898e-16 0)
(4.46404e-22 -9.87898e-16 0)
(1.49165e-22 -9.87898e-16 0)
(-1.50176e-22 -9.87898e-16 0)
(-4.49432e-22 -9.87898e-16 0)
(-7.45407e-22 -9.87898e-16 0)
(-1.03594e-21 -9.87898e-16 0)
(-1.31888e-21 -9.87898e-16 0)
(-1.59216e-21 -9.87898e-16 0)
(-1.85372e-21 -9.87898e-16 0)
(-2.10162e-21 -9.87898e-16 0)
(-2.33397e-21 -9.87898e-16 0)
(-2.54899e-21 -9.87898e-16 0)
(-2.745e-21 -9.87898e-16 0)
(-2.92044e-21 -9.87898e-16 0)
(-3.0739e-21 -9.87898e-16 0)
(-3.2041e-21 -9.87898e-16 0)
(-3.30992e-21 -9.87898e-16 0)
(-3.39043e-21 -9.87898e-16 0)
(-3.44486e-21 -9.87898e-16 0)
(-3.47263e-21 -9.87898e-16 0)
(-3.47337e-21 -9.87899e-16 0)
(-3.44692e-21 -9.87899e-16 0)
(-3.39333e-21 -9.87899e-16 0)
(-3.31286e-21 -9.87899e-16 0)
(-3.206e-21 -9.87899e-16 0)
(-3.07346e-21 -9.87899e-16 0)
(-2.91618e-21 -9.87899e-16 0)
(-2.73529e-21 -9.87899e-16 0)
(-2.53216e-21 -9.87899e-16 0)
(-2.30836e-21 -9.87899e-16 0)
(-2.06562e-21 -9.87899e-16 0)
(-1.80588e-21 -9.87899e-16 0)
(-1.53123e-21 -9.87899e-16 0)
(-1.2439e-21 -9.87899e-16 0)
(-1.03076e-21 -9.87899e-16 0)
(-8.9678e-22 -9.87899e-16 0)
(-7.61324e-22 -9.87899e-16 0)
(-6.24617e-22 -9.87899e-16 0)
(-4.86883e-22 -9.87899e-16 0)
(-3.48347e-22 -9.87899e-16 0)
(-2.09238e-22 -9.87899e-16 0)
(-6.97842e-23 -9.87899e-16 0)
(6.97842e-23 -9.87899e-16 0)
(2.09238e-22 -9.87899e-16 0)
(3.48347e-22 -9.87899e-16 0)
(4.86883e-22 -9.87899e-16 0)
(6.24617e-22 -9.87899e-16 0)
(7.61324e-22 -9.87899e-16 0)
(8.9678e-22 -9.87899e-16 0)
(1.03076e-21 -9.87899e-16 0)
(1.2439e-21 -9.87899e-16 0)
(1.53123e-21 -9.87899e-16 0)
(1.80588e-21 -9.87899e-16 0)
(2.06562e-21 -9.87899e-16 0)
(2.30836e-21 -9.87899e-16 0)
(2.53216e-21 -9.87899e-16 0)
(2.73529e-21 -9.87899e-16 0)
(2.91618e-21 -9.87899e-16 0)
(3.07346e-21 -9.87899e-16 0)
(3.206e-21 -9.87899e-16 0)
(3.31286e-21 -9.87899e-16 0)
(3.39333e-21 -9.87899e-16 0)
(3.44692e-21 -9.87899e-16 0)
(3.47337e-21 -9.87899e-16 0)
(3.47263e-21 -9.87898e-16 0)
(3.44486e-21 -9.87898e-16 0)
(3.39043e-21 -9.87898e-16 0)
(3.30992e-21 -9.87898e-16 0)
(3.2041e-21 -9.87898e-16 0)
(3.0739e-21 -9.87898e-16 0)
(2.92044e-21 -9.87898e-16 0)
(2.745e-21 -9.87898e-16 0)
(2.54899e-21 -9.87898e-16 0)
(2.33397e-21 -9.87898e-16 0)
(2.10162e-21 -9.87898e-16 0)
(1.85372e-21 -9.87898e-16 0)
(1.59216e-21 -9.87898e-16 0)
(1.31888e-21 -9.87898e-16 0)
(1.03594e-21 -9.87898e-16 0)
(7.45407e-22 -9.87898e-16 0)
(4.49432e-22 -9.87898e-16 0)
(1.50176e-22 -9.87898e-16 0)
(-1.51494e-22 -9.87898e-16 0)
(-4.53377e-22 -9.87898e-16 0)
(-7.51957e-22 -9.87898e-16 0)
(-1.04505e-21 -9.87898e-16 0)
(-1.33051e-21 -9.87898e-16 0)
(-1.60622e-21 -9.87898e-16 0)
(-1.87015e-21 -9.87898e-16 0)
(-2.12031e-21 -9.87898e-16 0)
(-2.3548e-21 -9.87898e-16 0)
(-2.57182e-21 -9.87898e-16 0)
(-2.76969e-21 -9.87898e-16 0)
(-2.94683e-21 -9.87898e-16 0)
(-3.10181e-21 -9.87898e-16 0)
(-3.23334e-21 -9.87898e-16 0)
(-3.34029e-21 -9.87898e-16 0)
(-3.4217e-21 -9.87898e-16 0)
(-3.47681e-21 -9.87898e-16 0)
(-3.50502e-21 -9.87898e-16 0)
(-3.50595e-21 -9.87899e-16 0)
(-3.47943e-21 -9.87899e-16 0)
(-3.4255e-21 -9.87899e-16 0)
(-3.34444e-21 -9.87899e-16 0)
(-3.23672e-21 -9.87899e-16 0)
(-3.10306e-21 -9.87899e-16 0)
(-2.94439e-21 -9.87899e-16 0)
(-2.76188e-21 -9.87899e-16 0)
(-2.55688e-21 -9.87899e-16 0)
(-2.33097e-21 -9.87899e-16 0)
(-2.08593e-21 -9.87899e-16 0)
(-1.82369e-21 -9.87899e-16 0)
(-1.54637e-21 -9.87899e-16 0)
(-1.25623e-21 -9.87899e-16 0)
(-1.04099e-21 -9.87899e-16 0)
(-9.05684e-22 -9.87899e-16 0)
(-7.68888e-22 -9.87899e-16 0)
(-6.30826e-22 -9.87899e-16 0)
(-4.91724e-22 -9.87899e-16 0)
(-3.51812e-22 -9.87899e-16 0)
(-2.11319e-22 -9.87899e-16 0)
(-7.04785e-23 -9.87899e-16 0)
(7.04786e-23 -9.87899e-16 0)
(2.11319e-22 -9.87899e-16 0)
(3.51812e-22 -9.87899e-16 0)
(4.91724e-22 -9.87899e-16 0)
(6.30826e-22 -9.87899e-16 0)
(7.68888e-22 -9.87899e-16 0)
(9.05684e-22 -9.87899e-16 0)
(1.04099e-21 -9.87899e-16 0)
(1.25623e-21 -9.87899e-16 0)
(1.54637e-21 -9.87899e-16 0)
(1.82369e-21 -9.87899e-16 0)
(2.08593e-21 -9.87899e-16 0)
(2.33097e-21 -9.87899e-16 0)
(2.55688e-21 -9.87899e-16 0)
(2.76188e-21 -9.87899e-16 0)
(2.94439e-21 -9.87899e-16 0)
(3.10306e-21 -9.87899e-16 0)
(3.23672e-21 -9.87899e-16 0)
(3.34444e-21 -9.87899e-16 0)
(3.4255e-21 -9.87899e-16 0)
(3.47943e-21 -9.87899e-16 0)
(3.50595e-21 -9.87899e-16 0)
(3.50502e-21 -9.87898e-16 0)
(3.47681e-21 -9.87898e-16 0)
(3.4217e-21 -9.87898e-16 0)
(3.34029e-21 -9.87898e-16 0)
(3.23334e-21 -9.87898e-16 0)
(3.10181e-21 -9.87898e-16 0)
(2.94683e-21 -9.87898e-16 0)
(2.76969e-21 -9.87898e-16 0)
(2.57182e-21 -9.87898e-16 0)
(2.3548e-21 -9.87898e-16 0)
(2.12031e-21 -9.87898e-16 0)
(1.87015e-21 -9.87898e-16 0)
(1.60622e-21 -9.87898e-16 0)
(1.33051e-21 -9.87898e-16 0)
(1.04505e-21 -9.87898e-16 0)
(7.51957e-22 -9.87898e-16 0)
(4.53377e-22 -9.87898e-16 0)
(1.51493e-22 -9.87898e-16 0)
(-1.53191e-22 -9.87897e-16 0)
(-4.58459e-22 -9.87897e-16 0)
(-7.60394e-22 -9.87898e-16 0)
(-1.05679e-21 -9.87898e-16 0)
(-1.34549e-21 -9.87898e-16 0)
(-1.62435e-21 -9.87898e-16 0)
(-1.89131e-21 -9.87898e-16 0)
(-2.14438e-21 -9.87898e-16 0)
(-2.38163e-21 -9.87898e-16 0)
(-2.60124e-21 -9.87898e-16 0)
(-2.80151e-21 -9.87898e-16 0)
(-2.98084e-21 -9.87898e-16 0)
(-3.13779e-21 -9.87898e-16 0)
(-3.27103e-21 -9.87898e-16 0)
(-3.37943e-21 -9.87898e-16 0)
(-3.46202e-21 -9.87898e-16 0)
(-3.518e-21 -9.87898e-16 0)
(-3.54677e-21 -9.87898e-16 0)
(-3.54795e-21 -9.87899e-16 0)
(-3.52135e-21 -9.87899e-16 0)
(-3.467e-21 -9.87899e-16 0)
(-3.38517e-21 -9.87899e-16 0)
(-3.27635e-21 -9.87899e-16 0)
(-3.14124e-21 -9.87899e-16 0)
(-2.98079e-21 -9.87899e-16 0)
(-2.79617e-21 -9.87899e-16 0)
(-2.58876e-21 -9.87899e-16 0)
(-2.36015e-21 -9.87899e-16 0)
(-2.11213e-21 -9.87899e-16 0)
(-1.84667e-21 -9.87899e-16 0)
(-1.56591e-21 -9.87899e-16 0)
(-1.27213e-21 -9.879e-16 0)
(-1.05419e-21 -9.879e-16 0)
(-9.17176e-22 -9.879e-16 0)
(-7.7865e-22 -9.879e-16 0)
(-6.38838e-22 -9.879e-16 0)
(-4.97972e-22 -9.879e-16 0)
(-3.56284e-22 -9.879e-16 0)
(-2.14006e-22 -9.879e-16 0)
(-7.13746e-23 -9.879e-16 0)
(7.13747e-23 -9.879e-16 0)
(2.14006e-22 -9.879e-16 0)
(3.56284e-22 -9.879e-16 0)
(4.97972e-22 -9.879e-16 0)
(6.38838e-22 -9.879e-16 0)
(7.7865e-22 -9.879e-16 0)
(9.17176e-22 -9.879e-16 0)
(1.05419e-21 -9.879e-16 0)
(1.27213e-21 -9.879e-16 0)
(1.56591e-21 -9.87899e-16 0)
(1.84667e-21 -9.87899e-16 0)
(2.11213e-21 -9.87899e-16 0)
(2.36015e-21 -9.87899e-16 0)
(2.58876e-21 -9.87899e-16 0)
(2.79617e-21 -9.87899e-16 0)
(2.98079e-21 -9.87899e-16 0)
(3.14124e-21 -9.87899e-16 0)
(3.27635e-21 -9.87899e-16 0)
(3.38517e-21 -9.87899e-16 0)
(3.467e-21 -9.87899e-16 0)
(3.52135e-21 -9.87899e-16 0)
(3.54795e-21 -9.87899e-16 0)
(3.54677e-21 -9.87898e-16 0)
(3.518e-21 -9.87898e-16 0)
(3.46202e-21 -9.87898e-16 0)
(3.37943e-21 -9.87898e-16 0)
(3.27103e-21 -9.87898e-16 0)
(3.13779e-21 -9.87898e-16 0)
(2.98084e-21 -9.87898e-16 0)
(2.80151e-21 -9.87898e-16 0)
(2.60124e-21 -9.87898e-16 0)
(2.38163e-21 -9.87898e-16 0)
(2.14438e-21 -9.87898e-16 0)
(1.89131e-21 -9.87898e-16 0)
(1.62435e-21 -9.87898e-16 0)
(1.34549e-21 -9.87898e-16 0)
(1.05679e-21 -9.87898e-16 0)
(7.60394e-22 -9.87898e-16 0)
(4.58459e-22 -9.87897e-16 0)
(1.53191e-22 -9.87897e-16 0)
(-1.55359e-22 -9.87897e-16 0)
(-4.64951e-22 -9.87897e-16 0)
(-7.71171e-22 -9.87897e-16 0)
(-1.07179e-21 -9.87897e-16 0)
(-1.36462e-21 -9.87897e-16 0)
(-1.64751e-21 -9.87897e-16 0)
(-1.91835e-21 -9.87897e-16 0)
(-2.17513e-21 -9.87898e-16 0)
(-2.41591e-21 -9.87898e-16 0)
(-2.63883e-21 -9.87898e-16 0)
(-2.84217e-21 -9.87898e-16 0)
(-3.02431e-21 -9.87898e-16 0)
(-3.18376e-21 -9.87898e-16 0)
(-3.31921e-21 -9.87898e-16 0)
(-3.42947e-21 -9.87898e-16 0)
(-3.51356e-21 -9.87898e-16 0)
(-3.57066e-21 -9.87898e-16 0)
(-3.60017e-21 -9.87898e-16 0)
(-3.60166e-21 -9.87899e-16 0)
(-3.57495e-21 -9.87899e-16 0)
(-3.52007e-21 -9.87899e-16 0)
(-3.43727e-21 -9.87899e-16 0)
(-3.32704e-21 -9.87899e-16 0)
(-3.19009e-21 -9.87899e-16 0)
(-3.02737e-21 -9.87899e-16 0)
(-2.84006e-21 -9.87899e-16 0)
(-2.62957e-21 -9.87899e-16 0)
(-2.3975e-21 -9.87899e-16 0)
(-2.14567e-21 -9.879e-16 0)
(-1.87608e-21 -9.879e-16 0)
(-1.59092e-21 -9.879e-16 0)
(-1.2925e-21 -9.879e-16 0)
(-1.07109e-21 -9.879e-16 0)
(-9.31886e-22 -9.879e-16 0)
(-7.91146e-22 -9.879e-16 0)
(-6.49096e-22 -9.879e-16 0)
(-5.05971e-22 -9.879e-16 0)
(-3.62008e-22 -9.879e-16 0)
(-2.17445e-22 -9.879e-16 0)
(-7.25218e-23 -9.879e-16 0)
(7.25218e-23 -9.879e-16 0)
(2.17445e-22 -9.879e-16 0)
(3.62008e-22 -9.879e-16 0)
(5.05971e-22 -9.879e-16 0)
(6.49096e-22 -9.879e-16 0)
(7.91146e-22 -9.879e-16 0)
(9.31886e-22 -9.879e-16 0)
(1.07109e-21 -9.879e-16 0)
(1.2925e-21 -9.879e-16 0)
(1.59092e-21 -9.879e-16 0)
(1.87608e-21 -9.879e-16 0)
(2.14567e-21 -9.879e-16 0)
(2.3975e-21 -9.87899e-16 0)
(2.62957e-21 -9.87899e-16 0)
(2.84006e-21 -9.87899e-16 0)
(3.02737e-21 -9.87899e-16 0)
(3.19009e-21 -9.87899e-16 0)
(3.32704e-21 -9.87899e-16 0)
(3.43727e-21 -9.87899e-16 0)
(3.52007e-21 -9.87899e-16 0)
(3.57495e-21 -9.87899e-16 0)
(3.60166e-21 -9.87899e-16 0)
(3.60017e-21 -9.87898e-16 0)
(3.57066e-21 -9.87898e-16 0)
(3.51356e-21 -9.87898e-16 0)
(3.42947e-21 -9.87898e-16 0)
(3.31921e-21 -9.87898e-16 0)
(3.18376e-21 -9.87898e-16 0)
(3.02431e-21 -9.87898e-16 0)
(2.84217e-21 -9.87898e-16 0)
(2.63883e-21 -9.87898e-16 0)
(2.41591e-21 -9.87898e-16 0)
(2.17513e-21 -9.87898e-16 0)
(1.91835e-21 -9.87897e-16 0)
(1.64751e-21 -9.87897e-16 0)
(1.36462e-21 -9.87897e-16 0)
(1.07179e-21 -9.87897e-16 0)
(7.71171e-22 -9.87897e-16 0)
(4.64951e-22 -9.87897e-16 0)
(1.55359e-22 -9.87897e-16 0)
(-1.58109e-22 -9.87897e-16 0)
(-4.73186e-22 -9.87897e-16 0)
(-7.84844e-22 -9.87897e-16 0)
(-1.09082e-21 -9.87897e-16 0)
(-1.3889e-21 -9.87897e-16 0)
(-1.67689e-21 -9.87897e-16 0)
(-1.95266e-21 -9.87897e-16 0)
(-2.21416e-21 -9.87897e-16 0)
(-2.45942e-21 -9.87897e-16 0)
(-2.68655e-21 -9.87898e-16 0)
(-2.89379e-21 -9.87898e-16 0)
(-3.07949e-21 -9.87898e-16 0)
(-3.24214e-21 -9.87898e-16 0)
(-3.38038e-21 -9.87898e-16 0)
(-3.49301e-21 -9.87898e-16 0)
(-3.57902e-21 -9.87898e-16 0)
(-3.63756e-21 -9.87898e-16 0)
(-3.668e-21 -9.87898e-16 0)
(-3.66991e-21 -9.87899e-16 0)
(-3.64308e-21 -9.87899e-16 0)
(-3.58752e-21 -9.87899e-16 0)
(-3.5035e-21 -9.87899e-16 0)
(-3.39148e-21 -9.87899e-16 0)
(-3.25219e-21 -9.87899e-16 0)
(-3.08659e-21 -9.87899e-16 0)
(-2.89588e-21 -9.87899e-16 0)
(-2.68147e-21 -9.87899e-16 0)
(-2.445e-21 -9.879e-16 0)
(-2.18833e-21 -9.879e-16 0)
(-1.9135e-21 -9.879e-16 0)
(-1.62273e-21 -9.879e-16 0)
(-1.3184e-21 -9.879e-16 0)
(-1.09258e-21 -9.879e-16 0)
(-9.50604e-22 -9.879e-16 0)
(-8.07046e-22 -9.879e-16 0)
(-6.62147e-22 -9.879e-16 0)
(-5.16149e-22 -9.879e-16 0)
(-3.69292e-22 -9.879e-16 0)
(-2.21821e-22 -9.879e-16 0)
(-7.39815e-23 -9.879e-16 0)
(7.39815e-23 -9.879e-16 0)
(2.21821e-22 -9.879e-16 0)