/*--------------------------------*- C++ -*----------------------------------*\
  =========                 |
  \\      /  F ield         | OpenFOAM: The Open Source CFD Toolbox
   \\    /   O peration     | Website:  https://openfoam.org
    \\  /    A nd           | Version:  10
     \\/     M anipulation  |
\*---------------------------------------------------------------------------*/
FoamFile
{
    format      ascii;
    class       volVectorField;
    location    "15250";
    object      Ua;
}
// * * * * * * * * * * * * * * * * * * * * * * * * * * * * * * * * * * * * * //

dimensions      [0 1 -1 0 0 0 0];

internalField   nonuniform List<vector> 
3200
(
(-3.60523e-07 5.20655e-07 0)
(-1.08088e-06 5.28977e-07 0)
(-1.80544e-06 5.45778e-07 0)
(-2.54555e-06 5.71813e-07 0)
(-3.31338e-06 6.0852e-07 0)
(-4.12285e-06 6.58207e-07 0)
(-4.99073e-06 7.24396e-07 0)
(-5.93833e-06 8.12406e-07 0)
(-6.99389e-06 9.3034e-07 0)
(-8.19637e-06 1.09079e-06 0)
(-9.60163e-06 1.31381e-06 0)
(-1.12928e-05 1.63239e-06 0)
(-1.33986e-05 2.10239e-06 0)
(-1.61256e-05 2.82168e-06 0)
(-1.98181e-05 3.96694e-06 0)
(-2.50715e-05 5.86648e-06 0)
(-3.29485e-05 9.14576e-06 0)
(-4.54033e-05 1.50219e-05 0)
(-6.59906e-05 2.58996e-05 0)
(-4.32251e-05 3.51605e-05 0)
(-5.01736e-06 1.98421e-05 0)
(-1.89426e-06 8.11065e-06 0)
(-1.06884e-06 4.90546e-06 0)
(-6.91531e-07 3.38107e-06 0)
(-4.83025e-07 2.50103e-06 0)
(-3.55231e-07 1.93788e-06 0)
(-2.71393e-07 1.5531e-06 0)
(-2.13591e-07 1.27753e-06 0)
(-1.72177e-07 1.07297e-06 0)
(-1.4156e-07 9.16669e-07 0)
(-1.18323e-07 7.94292e-07 0)
(-1.00292e-07 6.96478e-07 0)
(-8.60345e-08 6.1689e-07 0)
(-7.23541e-08 5.42479e-07 0)
(-5.85563e-08 4.792e-07 0)
(-4.68671e-08 4.2633e-07 0)
(-3.69605e-08 3.80325e-07 0)
(-2.76989e-08 3.3873e-07 0)
(-1.80026e-08 2.998e-07 0)
(-6.79319e-09 2.58027e-07 0)
(-3.48398e-07 1.54445e-06 0)
(-1.04384e-06 1.56813e-06 0)
(-1.74121e-06 1.6158e-06 0)
(-2.44983e-06 1.68938e-06 0)
(-3.17925e-06 1.79251e-06 0)
(-3.93972e-06 1.93094e-06 0)
(-4.74267e-06 2.11332e-06 0)
(-5.60108e-06 2.35228e-06 0)
(-6.52981e-06 2.66633e-06 0)
(-7.54557e-06 3.08284e-06 0)
(-8.66588e-06 3.64279e-06 0)
(-9.90575e-06 4.4086e-06 0)
(-1.12688e-05 5.47693e-06 0)
(-1.27261e-05 6.9999e-06 0)
(-1.41663e-05 9.22047e-06 0)
(-1.52844e-05 1.25313e-05 0)
(-1.53333e-05 1.75727e-05 0)
(-1.25778e-05 2.53925e-05 0)
(-3.10681e-06 3.76998e-05 0)
(1.02149e-05 3.39473e-05 0)
(1.38745e-05 9.24897e-06 0)
(9.38674e-06 6.63493e-06 0)
(5.99344e-06 5.2454e-06 0)
(3.27842e-06 4.42533e-06 0)
(9.13817e-07 3.96614e-06 0)
(-1.32883e-06 3.77947e-06 0)
(-3.63895e-06 3.84465e-06 0)
(-6.214e-06 4.19621e-06 0)
(-9.30507e-06 4.93252e-06 0)
(-1.32759e-05 6.24498e-06 0)
(-1.86926e-05 8.47625e-06 0)
(-2.64723e-05 1.22261e-05 0)
(-2.5075e-05 1.62819e-05 0)
(-1.09126e-05 4.05575e-06 0)
(-2.12004e-06 1.21371e-06 0)
(-1.1902e-06 9.59617e-07 0)
(-7.45191e-07 7.81439e-07 0)
(-4.6463e-07 6.16003e-07 0)
(-2.56131e-07 4.50391e-07 0)
(-8.26636e-08 2.82338e-07 0)
(-3.26031e-07 2.51844e-06 0)
(-9.75678e-07 2.55403e-06 0)
(-1.62364e-06 2.62541e-06 0)
(-2.27598e-06 2.73477e-06 0)
(-2.93834e-06 2.88643e-06 0)
(-3.61586e-06 3.08711e-06 0)
(-4.31297e-06 3.34653e-06 0)
(-5.0328e-06 3.67815e-06 0)
(-5.77613e-06 4.10038e-06 0)
(-6.53944e-06 4.63802e-06 0)
(-7.31146e-06 5.3241e-06 0)
(-8.06739e-06 6.20175e-06 0)
(-8.75951e-06 7.32527e-06 0)
(-9.3028e-06 8.75844e-06 0)
(-9.55507e-06 1.05651e-05 0)
(-9.29545e-06 1.27812e-05 0)
(-8.21832e-06 1.5345e-05 0)
(-5.99679e-06 1.7937e-05 0)
(-2.56394e-06 1.9628e-05 0)
(1.01311e-06 1.81352e-05 0)
(2.89771e-06 1.39204e-05 0)
(2.95367e-06 1.11755e-05 0)
(2.22509e-06 9.42427e-06 0)
(1.17591e-06 8.35276e-06 0)
(7.9437e-09 7.7838e-06 0)
(-1.1852e-06 7.63104e-06 0)
(-2.34297e-06 7.87407e-06 0)
(-3.39106e-06 8.5494e-06 0)
(-4.19489e-06 9.75331e-06 0)
(-4.49114e-06 1.16555e-05 0)
(-3.76912e-06 1.45242e-05 0)
(-1.05645e-06 1.87651e-05 0)
(4.58537e-06 2.27195e-05 0)
(7.59291e-06 9.19904e-06 0)
(5.68129e-06 5.37045e-06 0)
(3.24843e-06 4.57599e-06 0)
(1.01017e-06 4.19275e-06 0)
(-1.22844e-06 4.11762e-06 0)
(-1.3796e-06 1.05294e-06 0)
(-1.13066e-07 2.26951e-07 0)
(-2.9654e-07 3.41754e-06 0)
(-8.86121e-07 3.46055e-06 0)
(-1.47025e-06 3.54636e-06 0)
(-2.05166e-06 3.67663e-06 0)
(-2.63224e-06 3.85494e-06 0)
(-3.21269e-06 4.08679e-06 0)
(-3.79203e-06 4.37978e-06 0)
(-4.36685e-06 4.74375e-06 0)
(-4.9301e-06 5.19089e-06 0)
(-5.46952e-06 5.73564e-06 0)
(-5.9654e-06 6.39401e-06 0)
(-6.38787e-06 7.18192e-06 0)
(-6.69388e-06 8.11167e-06 0)
(-6.82507e-06 9.18519e-06 0)
(-6.70878e-06 1.03825e-05 0)
(-6.26659e-06 1.16438e-05 0)
(-5.43785e-06 1.2845e-05 0)
(-4.22618e-06 1.37747e-05 0)
(-2.76899e-06 1.41404e-05 0)
(-1.38783e-06 1.36843e-05 0)
(-4.3967e-07 1.26139e-05 0)
(-2.56411e-08 1.15196e-05 0)
(-2.05976e-08 1.06188e-05 0)
(-2.7733e-07 9.97508e-06 0)
(-6.74748e-07 9.59566e-06 0)
(-1.11761e-06 9.4711e-06 0)
(-1.52483e-06 9.58871e-06 0)
(-1.81768e-06 9.93321e-06 0)
(-1.91202e-06 1.04782e-05 0)
(-1.71892e-06 1.1167e-05 0)
(-1.16311e-06 1.18763e-05 0)
(-2.39812e-07 1.23506e-05 0)
(8.47878e-07 1.20858e-05 0)
(1.52001e-06 1.04702e-05 0)
(1.51304e-06 9.14679e-06 0)
(1.12161e-06 8.3296e-06 0)
(6.0069e-07 7.92745e-06 0)
(1.31728e-07 7.89121e-06 0)
(-8.12419e-08 2.4356e-06 0)
(5.26983e-09 7.40503e-08 0)
(-2.63354e-07 4.22611e-06 0)
(-7.85746e-07 4.27215e-06 0)
(-1.29971e-06 4.36342e-06 0)
(-1.80528e-06 4.50067e-06 0)
(-2.30162e-06 4.68595e-06 0)
(-2.78661e-06 4.92254e-06 0)
(-3.25644e-06 5.21473e-06 0)
(-3.70502e-06 5.56758e-06 0)
(-4.12336e-06 5.98645e-06 0)
(-4.49884e-06 6.47626e-06 0)
(-4.81455e-06 7.04017e-06 0)
(-5.04898e-06 7.67769e-06 0)
(-5.17643e-06 8.3818e-06 0)
(-5.16887e-06 9.13516e-06 0)
(-5.00019e-06 9.90565e-06 0)
(-4.65376e-06 1.06425e-05 0)
(-4.1334e-06 1.12752e-05 0)
(-3.47587e-06 1.1721e-05 0)
(-2.75826e-06 1.19061e-05 0)
(-2.08803e-06 1.18061e-05 0)
(-1.56329e-06 1.14908e-05 0)
(-1.22754e-06 1.10902e-05 0)
(-1.06784e-06 1.07041e-05 0)
(-1.04276e-06 1.03917e-05 0)
(-1.10206e-06 1.0182e-05 0)
(-1.19601e-06 1.00832e-05 0)
(-1.27899e-06 1.00894e-05 0)
(-1.31119e-06 1.01821e-05 0)
(-1.26105e-06 1.03299e-05 0)
(-1.11013e-06 1.04862e-05 0)
(-8.61121e-07 1.05884e-05 0)
(-5.47856e-07 1.05633e-05 0)
(-2.40865e-07 1.03481e-05 0)
(-3.06552e-08 9.94843e-06 0)
(3.60287e-08 9.52016e-06 0)
(-2.18143e-08 9.15811e-06 0)
(-1.62439e-07 8.89564e-06 0)
(-3.4793e-07 8.72996e-06 0)
(-2.56272e-07 3.65148e-06 0)
(6.47539e-09 1.33791e-08 0)
(-2.29473e-07 4.93784e-06 0)
(-6.83679e-07 4.98332e-06 0)
(-1.12767e-06 5.073e-06 0)
(-1.55972e-06 5.20659e-06 0)
(-1.97739e-06 5.3846e-06 0)
(-2.3773e-06 5.60806e-06 0)
(-2.7548e-06 5.87829e-06 0)
(-3.10374e-06 6.19646e-06 0)
(-3.41627e-06 6.56305e-06 0)
(-3.6827e-06 6.97715e-06 0)
(-3.89173e-06 7.43551e-06 0)
(-4.03094e-06 7.93138e-06 0)
(-4.08791e-06 8.45322e-06 0)
(-4.05211e-06 8.98355e-06 0)
(-3.91756e-06 9.49835e-06 0)
(-3.6862e-06 9.96771e-06 0)
(-3.37109e-06 1.03587e-05 0)
(-2.99821e-06 1.0641e-05 0)
(-2.60478e-06 1.0796e-05 0)
(-2.23247e-06 1.08257e-05 0)
(-1.91635e-06 1.07561e-05 0)
(-1.67536e-06 1.06283e-05 0)
(-1.51061e-06 1.04816e-05 0)
(-1.41022e-06 1.03456e-05 0)
(-1.35516e-06 1.02383e-05 0)
(-1.32402e-06 1.01673e-05 0)
(-1.2964e-06 1.01307e-05 0)
(-1.25538e-06 1.01194e-05 0)
(-1.18957e-06 1.01182e-05 0)
(-1.09492e-06 1.01078e-05 0)
(-9.76039e-07 1.0068e-05 0)
(-8.4614e-07 9.98264e-06 0)
(-7.24461e-07 9.84586e-06 0)
(-6.30121e-07 9.66901e-06 0)
(-5.74011e-07 9.48008e-06 0)
(-5.56043e-07 9.30617e-06 0)
(-5.69279e-07 9.16625e-06 0)
(-6.049e-07 9.07092e-06 0)
(-3.43784e-07 3.937e-06 0)
(7.72485e-09 8.88989e-09 0)
(-1.97084e-07 5.55386e-06 0)
(-5.86467e-07 5.59638e-06 0)
(-9.65011e-07 5.67981e-06 0)
(-1.33004e-06 5.80305e-06 0)
(-1.67849e-06 5.96537e-06 0)
(-2.00672e-06 6.16615e-06 0)
(-2.31039e-06 6.40463e-06 0)
(-2.58441e-06 6.67954e-06 0)
(-2.82295e-06 6.98872e-06 0)
(-3.01963e-06 7.32866e-06 0)
(-3.16787e-06 7.69401e-06 0)
(-3.2615e-06 8.07709e-06 0)
(-3.29556e-06 8.46761e-06 0)
(-3.26746e-06 8.85262e-06 0)
(-3.17812e-06 9.21696e-06 0)
(-3.03308e-06 9.5445e-06 0)
(-2.84307e-06 9.82004e-06 0)
(-2.6236e-06 1.00321e-05 0)
(-2.39323e-06 1.01754e-05 0)
(-2.17061e-06 1.02531e-05 0)
(-1.97102e-06 1.02763e-05 0)
(-1.80372e-06 1.02604e-05 0)
(-1.67134e-06 1.02217e-05 0)
(-1.57091e-06 1.01737e-05 0)
(-1.4958e-06 1.01254e-05 0)
(-1.43768e-06 1.00813e-05 0)
(-1.38816e-06 1.00415e-05 0)
(-1.34019e-06 1.00026e-05 0)
(-1.2889e-06 9.95893e-06 0)
(-1.23208e-06 9.90368e-06 0)
(-1.17019e-06 9.83085e-06 0)
(-1.10566e-06 9.73692e-06 0)
(-1.04167e-06 9.62245e-06 0)
(-9.80557e-07 9.49285e-06 0)
(-9.2249e-07 9.35766e-06 0)
(-8.65262e-07 9.2285e-06 0)
(-8.05375e-07 9.11756e-06 0)
(-7.39784e-07 9.03703e-06 0)
(-3.81318e-07 3.85701e-06 0)
(9.00484e-09 8.37163e-09 0)
(-1.6751e-07 6.08039e-06 0)
(-4.97983e-07 6.11864e-06 0)
(-8.17881e-07 6.19335e-06 0)
(-1.12421e-06 6.30295e-06 0)
(-1.41384e-06 6.4459e-06 0)
(-1.68345e-06 6.62061e-06 0)
(-1.92943e-06 6.82515e-06 0)
(-2.14797e-06 7.05706e-06 0)
(-2.33514e-06 7.31315e-06 0)
(-2.48708e-06 7.58922e-06 0)
(-2.60037e-06 7.87993e-06 0)
(-2.67238e-06 8.17867e-06 0)
(-2.70176e-06 8.47762e-06 0)
(-2.68897e-06 8.76803e-06 0)
(-2.63669e-06 9.04076e-06 0)
(-2.55004e-06 9.28704e-06 0)
(-2.43646e-06 9.49948e-06 0)
(-2.30519e-06 9.67315e-06 0)
(-2.16627e-06 9.80635e-06 0)
(-2.02929e-06 9.90089e-06 0)
(-1.90214e-06 9.96155e-06 0)
(-1.79018e-06 9.99497e-06 0)
(-1.69598e-06 1.00081e-05 0)
(-1.61964e-06 1.00069e-05 0)
(-1.5595e-06 9.99585e-06 0)
(-1.51285e-06 9.97712e-06 0)
(-1.47666e-06 9.95101e-06 0)
(-1.4481e-06 9.91613e-06 0)
(-1.42483e-06 9.86986e-06 0)
(-1.405e-06 9.80902e-06 0)
(-1.38697e-06 9.73048e-06 0)
(-1.36875e-06 9.63177e-06 0)
(-1.3473e-06 9.51158e-06 0)
(-1.31768e-06 9.37015e-06 0)
(-1.27246e-06 9.20959e-06 0)
(-1.20151e-06 9.03441e-06 0)
(-1.0926e-06 8.8529e-06 0)
(-9.33214e-07 8.67947e-06 0)
(-4.46798e-07 3.51243e-06 0)
(1.05255e-08 7.75429e-09 0)
(-1.41353e-07 6.52644e-06 0)
(-4.19927e-07 6.55993e-06 0)
(-6.88749e-07 6.62512e-06 0)
(-9.44889e-07 6.72021e-06 0)
(-1.18549e-06 6.84332e-06 0)
(-1.40771e-06 6.99237e-06 0)
(-1.60877e-06 7.16497e-06 0)
(-1.78594e-06 7.35832e-06 0)
(-1.9367e-06 7.56908e-06 0)
(-2.0589e-06 7.79329e-06 0)
(-2.15093e-06 8.02639e-06 0)
(-2.21197e-06 8.26321e-06 0)
(-2.24222e-06 8.49815e-06 0)
(-2.24308e-06 8.72544e-06 0)
(-2.21728e-06 8.93949e-06 0)
(-2.16879e-06 9.13534e-06 0)
(-2.10271e-06 9.30908e-06 0)
(-2.02479e-06 9.4583e-06 0)
(-1.94103e-06 9.58223e-06 0)
(-1.85705e-06 9.68174e-06 0)
(-1.77765e-06 9.75903e-06 0)
(-1.7065e-06 9.81706e-06 0)
(-1.64606e-06 9.859e-06 0)
(-1.59769e-06 9.88765e-06 0)
(-1.56193e-06 9.90509e-06 0)
(-1.53881e-06 9.91237e-06 0)
(-1.52816e-06 9.90953e-06 0)
(-1.5298e-06 9.89554e-06 0)
(-1.54362e-06 9.86838e-06 0)
(-1.56948e-06 9.82512e-06 0)
(-1.60692e-06 9.76187e-06 0)
(-1.6546e-06 9.67362e-06 0)
(-1.70938e-06 9.55397e-06 0)
(-1.76501e-06 9.39455e-06 0)
(-1.8101e-06 9.1844e-06 0)
(-1.82497e-06 8.90917e-06 0)
(-1.77686e-06 8.55042e-06 0)
(-1.61249e-06 8.08515e-06 0)
(-7.71522e-07 2.58382e-06 0)
(1.30028e-08 6.64238e-09 0)
(-1.18712e-07 6.90201e-06 0)
(-3.52499e-07 6.93082e-06 0)
(-5.77633e-07 6.98675e-06 0)
(-7.91456e-07 7.06798e-06 0)
(-9.91492e-07 7.17256e-06 0)
(-1.17544e-06 7.29832e-06 0)
(-1.34117e-06 7.44284e-06 0)
(-1.48681e-06 7.60341e-06 0)
(-1.61078e-06 7.77699e-06 0)
(-1.71195e-06 7.96019e-06 0)
(-1.78969e-06 8.14935e-06 0)
(-1.844e-06 8.34061e-06 0)
(-1.87565e-06 8.53e-06 0)
(-1.88615e-06 8.7137e-06 0)
(-1.8778e-06 8.88819e-06 0)
(-1.85359e-06 9.05052e-06 0)
(-1.81705e-06 9.19846e-06 0)
(-1.77201e-06 9.33069e-06 0)
(-1.72236e-06 9.44681e-06 0)
(-1.6718e-06 9.54725e-06 0)
(-1.62367e-06 9.63314e-06 0)
(-1.58079e-06 9.70602e-06 0)
(-1.54549e-06 9.7676e-06 0)
(-1.51968e-06 9.81946e-06 0)
(-1.50501e-06 9.86291e-06 0)
(-1.50304e-06 9.8988e-06 0)
(-1.51548e-06 9.92746e-06 0)
(-1.54441e-06 9.94861e-06 0)
(-1.59244e-06 9.96128e-06 0)
(-1.66298e-06 9.96365e-06 0)
(-1.7604e-06 9.95281e-06 0)
(-1.89034e-06 9.92426e-06 0)
(-2.05995e-06 9.87116e-06 0)
(-2.27832e-06 9.78304e-06 0)
(-2.55673e-06 9.64389e-06 0)
(-2.909e-06 9.42907e-06 0)
(-3.35127e-06 9.10056e-06 0)
(-3.90051e-06 8.59903e-06 0)
(-2.12312e-06 1.49754e-06 0)
(1.86006e-08 5.66842e-09 0)
(-9.93814e-08 7.21698e-06 0)
(-2.95013e-07 7.24148e-06 0)
(-4.83169e-07 7.28897e-06 0)
(-6.61537e-07 7.35774e-06 0)
(-8.28042e-07 7.44594e-06 0)
(-9.80842e-07 7.55153e-06 0)
(-1.11835e-06 7.67228e-06 0)
(-1.23925e-06 7.80578e-06 0)
(-1.34259e-06 7.94942e-06 0)
(-1.42777e-06 8.10046e-06 0)
(-1.49465e-06 8.25604e-06 0)
(-1.54358e-06 8.4133e-06 0)
(-1.57541e-06 8.56945e-06 0)
(-1.59149e-06 8.72189e-06 0)
(-1.59363e-06 8.86836e-06 0)
(-1.58406e-06 9.00702e-06 0)
(-1.56526e-06 9.13654e-06 0)
(-1.5399e-06 9.25618e-06 0)
(-1.51065e-06 9.36576e-06 0)
(-1.48012e-06 9.46561e-06 0)
(-1.45072e-06 9.55649e-06 0)
(-1.42469e-06 9.63949e-06 0)
(-1.40404e-06 9.71588e-06 0)
(-1.3907e-06 9.78701e-06 0)
(-1.38654e-06 9.85427e-06 0)
(-1.39357e-06 9.91901e-06 0)
(-1.41413e-06 9.98256e-06 0)
(-1.45107e-06 1.00463e-05 0)
(-1.50812e-06 1.01115e-05 0)
(-1.59025e-06 1.01799e-05 0)
(-1.70426e-06 1.02531e-05 0)
(-1.85972e-06 1.03336e-05 0)
(-2.07035e-06 1.04243e-05 0)
(-2.35621e-06 1.05291e-05 0)
(-2.74731e-06 1.06538e-05 0)
(-3.28931e-06 1.08067e-05 0)
(-4.05297e-06 1.10005e-05 0)
(-5.14571e-06 1.12524e-05 0)
(-2.91142e-06 2.16247e-06 0)
(2.52406e-08 7.69411e-09 0)
(-8.30069e-08 7.48038e-06 0)
(-2.46366e-07 7.5011e-06 0)
(-4.03376e-07 7.54121e-06 0)
(-5.52081e-07 7.59919e-06 0)
(-6.90767e-07 7.67338e-06 0)
(-8.17971e-07 7.76197e-06 0)
(-9.32489e-07 7.863e-06 0)
(-1.0334e-06 7.97443e-06 0)
(-1.12009e-06 8.09411e-06 0)
(-1.19226e-06 8.21985e-06 0)
(-1.24999e-06 8.34947e-06 0)
(-1.29368e-06 8.48084e-06 0)
(-1.32411e-06 8.61197e-06 0)
(-1.34236e-06 8.74108e-06 0)
(-1.34983e-06 8.86665e-06 0)
(-1.34813e-06 8.98751e-06 0)
(-1.33903e-06 9.10286e-06 0)
(-1.32439e-06 9.2123e-06 0)
(-1.30606e-06 9.31581e-06 0)
(-1.28586e-06 9.41375e-06 0)
(-1.26551e-06 9.50677e-06 0)
(-1.2466e-06 9.59584e-06 0)
(-1.23062e-06 9.68213e-06 0)
(-1.21898e-06 9.76705e-06 0)
(-1.21303e-06 9.85221e-06 0)
(-1.21414e-06 9.93945e-06 0)
(-1.22376e-06 1.00309e-05 0)
(-1.24347e-06 1.01292e-05 0)
(-1.27503e-06 1.02375e-05 0)
(-1.32041e-06 1.03599e-05 0)
(-1.38178e-06 1.05016e-05 0)
(-1.46136e-06 1.06696e-05 0)
(-1.56109e-06 1.08738e-05 0)
(-1.68192e-06 1.11274e-05 0)
(-1.8223e-06 1.14494e-05 0)
(-1.97545e-06 1.18669e-05 0)
(-2.12406e-06 1.24194e-05 0)
(-2.22373e-06 1.31563e-05 0)
(-1.1456e-06 2.76973e-06 0)
(1.71982e-08 1.06419e-08 0)
(-6.91864e-08 7.70017e-06 0)
(-2.0533e-07 7.71765e-06 0)
(-3.36141e-07 7.75147e-06 0)
(-4.59984e-07 7.80032e-06 0)
(-5.75455e-07 7.86274e-06 0)
(-6.81383e-07 7.93718e-06 0)
(-7.76842e-07 8.02201e-06 0)
(-8.61156e-07 8.1155e-06 0)
(-9.3391e-07 8.21594e-06 0)
(-9.94954e-07 8.3216e-06 0)
(-1.0444e-06 8.43079e-06 0)
(-1.08264e-06 8.54193e-06 0)
(-1.11028e-06 8.65358e-06 0)
(-1.12815e-06 8.76447e-06 0)
(-1.13728e-06 8.87357e-06 0)
(-1.1388e-06 8.98012e-06 0)
(-1.13395e-06 9.08361e-06 0)
(-1.12398e-06 9.18383e-06 0)
(-1.11016e-06 9.28086e-06 0)
(-1.09366e-06 9.37504e-06 0)
(-1.07558e-06 9.46698e-06 0)
(-1.05691e-06 9.55751e-06 0)
(-1.03849e-06 9.64771e-06 0)
(-1.02104e-06 9.73885e-06 0)
(-1.00509e-06 9.83246e-06 0)
(-9.91003e-07 9.93034e-06 0)
(-9.78936e-07 1.00346e-05 0)
(-9.68753e-07 1.01477e-05 0)
(-9.59932e-07 1.02727e-05 0)
(-9.51391e-07 1.04131e-05 0)
(-9.4123e-07 1.05734e-05 0)
(-9.26338e-07 1.07586e-05 0)
(-9.01832e-07 1.09751e-05 0)
(-8.60267e-07 1.123e-05 0)
(-7.90564e-07 1.15317e-05 0)
(-6.76636e-07 1.18887e-05 0)
(-4.9579e-07 1.2309e-05 0)
(-2.16102e-07 1.27821e-05 0)
(-4.57922e-08 1.81898e-06 0)
(6.31543e-09 1.06738e-08 0)
(-5.75298e-08 7.88317e-06 0)
(-1.70729e-07 7.89792e-06 0)
(-2.79476e-07 7.92645e-06 0)
(-3.82412e-07 7.96764e-06 0)
(-4.78383e-07 8.02027e-06 0)
(-5.66445e-07 8.08302e-06 0)
(-6.45863e-07 8.15453e-06 0)
(-7.16117e-07 8.2334e-06 0)
(-7.76902e-07 8.31825e-06 0)
(-8.28119e-07 8.4077e-06 0)
(-8.69875e-07 8.50047e-06 0)
(-9.0246e-07 8.59535e-06 0)
(-9.26333e-07 8.69127e-06 0)
(-9.42095e-07 8.7873e-06 0)
(-9.50454e-07 8.88271e-06 0)
(-9.52194e-07 8.97696e-06 0)
(-9.48135e-07 9.06972e-06 0)
(-9.39097e-07 9.16085e-06 0)
(-9.2586e-07 9.25043e-06 0)
(-9.09134e-07 9.33875e-06 0)
(-8.89528e-07 9.42627e-06 0)
(-8.67518e-07 9.51362e-06 0)
(-8.43423e-07 9.60162e-06 0)
(-8.17376e-07 9.69121e-06 0)
(-7.89288e-07 9.78352e-06 0)
(-7.58806e-07 9.8798e-06 0)
(-7.25257e-07 9.98147e-06 0)
(-6.87573e-07 1.00901e-05 0)
(-6.44195e-07 1.02074e-05 0)
(-5.92951e-07 1.03351e-05 0)
(-5.3091e-07 1.04751e-05 0)
(-4.54215e-07 1.06292e-05 0)
(-3.5791e-07 1.07987e-05 0)
(-2.35796e-07 1.09846e-05 0)
(-8.03639e-08 1.11865e-05 0)
(1.17096e-07 1.14023e-05 0)
(3.66081e-07 1.1627e-05 0)
(6.75952e-07 1.18334e-05 0)
(4.03954e-07 1.30178e-06 0)
(3.10206e-09 1.10525e-08 0)
(-4.7688e-08 8.03512e-06 0)
(-1.41516e-07 8.04759e-06 0)
(-2.31638e-07 8.0717e-06 0)
(-3.16925e-07 8.10651e-06 0)
(-3.96421e-07 8.15099e-06 0)
(-4.69352e-07 8.20406e-06 0)
(-5.35121e-07 8.26458e-06 0)
(-5.93306e-07 8.33143e-06 0)
(-6.43658e-07 8.40348e-06 0)
(-6.8609e-07 8.47965e-06 0)
(-7.20667e-07 8.55892e-06 0)
(-7.47589e-07 8.64035e-06 0)
(-7.67171e-07 8.72313e-06 0)
(-7.7982e-07 8.80656e-06 0)
(-7.86011e-07 8.89006e-06 0)
(-7.86255e-07 8.97323e-06 0)
(-7.81073e-07 9.05579e-06 0)
(-7.70968e-07 9.13763e-06 0)
(-7.56393e-07 9.21876e-06 0)
(-7.37724e-07 9.29934e-06 0)
(-7.15241e-07 9.37965e-06 0)
(-6.89094e-07 9.46007e-06 0)
(-6.59285e-07 9.54105e-06 0)
(-6.2564e-07 9.62314e-06 0)
(-5.87781e-07 9.70691e-06 0)
(-5.45095e-07 9.793e-06 0)
(-4.96704e-07 9.88198e-06 0)
(-4.41423e-07 9.97442e-06 0)
(-3.77728e-07 1.00708e-05 0)
(-3.0372e-07 1.01713e-05 0)
(-2.17106e-07 1.0276e-05 0)
(-1.15195e-07 1.03844e-05 0)
(5.05365e-09 1.04956e-05 0)
(1.46924e-07 1.06078e-05 0)
(3.13737e-07 1.07185e-05 0)
(5.08498e-07 1.08237e-05 0)
(7.33351e-07 1.09185e-05 0)
(9.88746e-07 1.09789e-05 0)
(5.49338e-07 1.28364e-06 0)
(1.21688e-09 1.33549e-08 0)
(-3.93633e-08 8.16084e-06 0)
(-1.16804e-07 8.17139e-06 0)
(-1.91163e-07 8.19181e-06 0)
(-2.61496e-07 8.22129e-06 0)
(-3.27007e-07 8.25899e-06 0)
(-3.87049e-07 8.304e-06 0)
(-4.41125e-07 8.3554e-06 0)
(-4.88877e-07 8.41225e-06 0)
(-5.30086e-07 8.47365e-06 0)
(-5.64658e-07 8.53872e-06 0)
(-5.92615e-07 8.60666e-06 0)
(-6.14074e-07 8.67671e-06 0)
(-6.29237e-07 8.74823e-06 0)
(-6.38365e-07 8.82064e-06 0)
(-6.41761e-07 8.89348e-06 0)
(-6.39746e-07 8.9664e-06 0)
(-6.32638e-07 9.03915e-06 0)
(-6.20731e-07 9.11156e-06 0)
(-6.04271e-07 9.18357e-06 0)
(-5.83443e-07 9.25521e-06 0)
(-5.58345e-07 9.32654e-06 0)
(-5.28977e-07 9.39769e-06 0)
(-4.95224e-07 9.46883e-06 0)
(-4.56841e-07 9.5401e-06 0)
(-4.1344e-07 9.61166e-06 0)
(-3.64484e-07 9.68358e-06 0)
(-3.09274e-07 9.75586e-06 0)
(-2.46947e-07 9.82836e-06 0)
(-1.7648e-07 9.90076e-06 0)
(-9.67012e-08 9.97248e-06 0)
(-6.3069e-09 1.00426e-05 0)
(9.61018e-08 1.011e-05 0)
(2.11979e-07 1.01727e-05 0)
(3.42787e-07 1.02286e-05 0)
(4.8997e-07 1.02747e-05 0)
(6.5497e-07 1.03076e-05 0)
(8.39373e-07 1.03231e-05 0)
(1.04526e-06 1.02991e-05 0)
(5.75667e-07 1.32758e-06 0)
(7.96401e-11 1.08324e-08 0)
(-3.2308e-08 8.26434e-06 0)
(-9.58568e-08 8.27329e-06 0)
(-1.56843e-07 8.29061e-06 0)
(-2.14472e-07 8.31564e-06 0)
(-2.68073e-07 8.34765e-06 0)
(-3.171e-07 8.38591e-06 0)
(-3.61127e-07 8.42964e-06 0)
(-3.99843e-07 8.47809e-06 0)
(-4.33047e-07 8.53051e-06 0)
(-4.60635e-07 8.58618e-06 0)
(-4.82591e-07 8.64445e-06 0)
(-4.98972e-07 8.70469e-06 0)
(-5.09894e-07 8.76637e-06 0)
(-5.15517e-07 8.82901e-06 0)
(-5.16028e-07 8.8922e-06 0)
(-5.11625e-07 8.95561e-06 0)
(-5.025e-07 9.01898e-06 0)
(-4.88825e-07 9.08211e-06 0)
(-4.70739e-07 9.14485e-06 0)
(-4.48333e-07 9.2071e-06 0)
(-4.21642e-07 9.26879e-06 0)
(-3.90637e-07 9.32984e-06 0)
(-3.55214e-07 9.39019e-06 0)
(-3.15201e-07 9.44975e-06 0)
(-2.70347e-07 9.50837e-06 0)
(-2.20336e-07 9.56583e-06 0)
(-1.6479e-07 9.62181e-06 0)
(-1.0329e-07 9.67585e-06 0)
(-3.53949e-08 9.72734e-06 0)
(3.93198e-08 9.77544e-06 0)
(1.21222e-07 9.81912e-06 0)
(2.10563e-07 9.85705e-06 0)
(3.07402e-07 9.88762e-06 0)
(4.11511e-07 9.90887e-06 0)
(5.22253e-07 9.91851e-06 0)
(6.3841e-07 9.91382e-06 0)
(7.57953e-07 9.89166e-06 0)
(8.77728e-07 9.83057e-06 0)
(4.75242e-07 1.40224e-06 0)
(9.38367e-10 6.46983e-09 0)
(-2.63196e-08 8.34901e-06 0)
(-7.80742e-08 8.35661e-06 0)
(-1.27697e-07 8.37132e-06 0)
(-1.74516e-07 8.39258e-06 0)
(-2.17959e-07 8.4198e-06 0)
(-2.5756e-07 8.45235e-06 0)
(-2.9295e-07 8.4896e-06 0)
(-3.23853e-07 8.53092e-06 0)
(-3.50083e-07 8.57568e-06 0)
(-3.71528e-07 8.6233e-06 0)
(-3.88146e-07 8.67321e-06 0)
(-3.99954e-07 8.72491e-06 0)
(-4.07011e-07 8.77793e-06 0)
(-4.09412e-07 8.83185e-06 0)
(-4.07271e-07 8.88629e-06 0)
(-4.00715e-07 8.94096e-06 0)
(-3.89865e-07 8.99556e-06 0)
(-3.74835e-07 9.04987e-06 0)
(-3.55716e-07 9.10368e-06 0)
(-3.32575e-07 9.15681e-06 0)
(-3.05447e-07 9.20908e-06 0)
(-2.74335e-07 9.26032e-06 0)
(-2.39208e-07 9.31033e-06 0)
(-2.00007e-07 9.35888e-06 0)
(-1.56649e-07 9.40571e-06 0)
(-1.09042e-07 9.45049e-06 0)
(-5.70969e-08 9.4928e-06 0)
(-7.47281e-10 9.53216e-06 0)
(6.00225e-08 9.56797e-06 0)
(1.25147e-07 9.59953e-06 0)
(1.94441e-07 9.62604e-06 0)
(2.67556e-07 9.64657e-06 0)
(3.43925e-07 9.66012e-06 0)
(4.22705e-07 9.66563e-06 0)
(5.0271e-07 9.66201e-06 0)
(5.82341e-07 9.64822e-06 0)
(6.59508e-07 9.62336e-06 0)
(7.31662e-07 9.56868e-06 0)
(3.91358e-07 1.49416e-06 0)
(-8.76857e-10 5.86834e-09 0)
(-2.12327e-08 8.41768e-06 0)
(-6.29661e-08 8.42414e-06 0)
(-1.02927e-07 8.43663e-06 0)
(-1.40541e-07 8.45471e-06 0)
(-1.7532e-07 8.47785e-06 0)
(-2.06861e-07 8.50555e-06 0)
(-2.34841e-07 8.53727e-06 0)
(-2.59016e-07 8.57248e-06 0)
(-2.7921e-07 8.61066e-06 0)
(-2.95314e-07 8.65132e-06 0)
(-3.0727e-07 8.69398e-06 0)
(-3.15069e-07 8.7382e-06 0)
(-3.18739e-07 8.78358e-06 0)
(-3.18334e-07 8.82973e-06 0)
(-3.13931e-07 8.87633e-06 0)
(-3.05615e-07 8.92306e-06 0)
(-2.93478e-07 8.96966e-06 0)
(-2.77608e-07 9.01587e-06 0)
(-2.58088e-07 9.06146e-06 0)
(-2.34989e-07 9.1062e-06 0)
(-2.08375e-07 9.14987e-06 0)
(-1.78296e-07 9.19225e-06 0)
(-1.44797e-07 9.23309e-06 0)
(-1.07921e-07 9.27215e-06 0)
(-6.77184e-08 9.30913e-06 0)
(-2.42526e-08 9.3437e-06 0)
(2.23824e-08 9.37551e-06 0)
(7.20496e-08 9.40416e-06 0)
(1.24552e-07 9.4292e-06 0)
(1.79614e-07 9.45018e-06 0)
(2.36864e-07 9.4666e-06 0)
(2.95814e-07 9.47798e-06 0)
(3.55847e-07 9.48385e-06 0)
(4.16204e-07 9.48384e-06 0)
(4.75988e-07 9.47764e-06 0)
(5.34175e-07 9.46515e-06 0)
(5.89651e-07 9.44649e-06 0)
(6.4143e-07 9.40327e-06 0)
(3.43518e-07 1.58559e-06 0)
(-1.16623e-09 5.78749e-09 0)
(-1.69121e-08 8.47277e-06 0)
(-5.01325e-08 8.47825e-06 0)
(-8.18808e-08 8.48886e-06 0)
(-1.11664e-07 8.50421e-06 0)
(-1.39061e-07 8.52387e-06 0)
(-1.63723e-07 8.54741e-06 0)
(-1.85367e-07 8.57438e-06 0)
(-2.03776e-07 8.60434e-06 0)
(-2.18789e-07 8.63684e-06 0)
(-2.30299e-07 8.67147e-06 0)
(-2.38246e-07 8.70781e-06 0)
(-2.42607e-07 8.74548e-06 0)
(-2.43392e-07 8.78413e-06 0)
(-2.40638e-07 8.82342e-06 0)
(-2.344e-07 8.86304e-06 0)
(-2.24747e-07 8.90271e-06 0)
(-2.11758e-07 8.94216e-06 0)
(-1.95516e-07 8.98113e-06 0)
(-1.76109e-07 9.0194e-06 0)
(-1.53625e-07 9.05673e-06 0)
(-1.28154e-07 9.09289e-06 0)
(-9.97905e-08 9.12766e-06 0)
(-6.86337e-08 9.16079e-06 0)
(-3.47944e-08 9.19206e-06 0)
(1.6007e-09 9.22119e-06 0)
(4.04021e-08 9.24794e-06 0)
(8.14304e-08 9.27202e-06 0)
(1.24469e-07 9.29316e-06 0)
(1.69254e-07 9.31108e-06 0)
(2.15473e-07 9.32551e-06 0)
(2.62756e-07 9.3362e-06 0)
(3.10674e-07 9.34295e-06 0)
(3.58743e-07 9.3456e-06 0)
(4.0643e-07 9.34407e-06 0)
(4.53171e-07 9.3384e-06 0)
(4.98388e-07 9.32872e-06 0)
(5.41526e-07 9.31532e-06 0)
(5.82197e-07 9.27909e-06 0)
(3.13174e-07 1.67482e-06 0)
(-9.53161e-10 5.72753e-09 0)
(-1.32466e-08 8.51632e-06 0)
(-3.92437e-08 8.52097e-06 0)
(-6.40208e-08 8.52996e-06 0)
(-8.71526e-08 8.54297e-06 0)
(-1.08275e-07 8.55964e-06 0)
(-1.27085e-07 8.57961e-06 0)
(-1.43334e-07 8.60249e-06 0)
(-1.56829e-07 8.62791e-06 0)
(-1.67427e-07 8.65549e-06 0)
(-1.75027e-07 8.68487e-06 0)
(-1.79571e-07 8.71571e-06 0)
(-1.81032e-07 8.74766e-06 0)
(-1.79414e-07 8.78042e-06 0)
(-1.74744e-07 8.81369e-06 0)
(-1.6707e-07 8.84718e-06 0)
(-1.56455e-07 8.88064e-06 0)
(-1.42975e-07 8.91382e-06 0)
(-1.26716e-07 8.94649e-06 0)
(-1.07772e-07 8.97841e-06 0)
(-8.62467e-08 9.00937e-06 0)
(-6.22496e-08 9.03917e-06 0)
(-3.59011e-08 9.06758e-06 0)
(-7.33209e-09 9.09442e-06 0)
(2.3313e-08 9.11947e-06 0)
(5.58734e-08 9.14253e-06 0)
(9.0169e-08 9.1634e-06 0)
(1.25997e-07 9.18189e-06 0)
(1.63131e-07 9.19783e-06 0)
(2.01317e-07 9.21104e-06 0)
(2.40275e-07 9.22139e-06 0)
(2.79698e-07 9.22877e-06 0)
(3.19259e-07 9.23312e-06 0)
(3.58617e-07 9.23442e-06 0)
(3.9742e-07 9.2327e-06 0)
(4.35324e-07 9.22807e-06 0)
(4.72003e-07 9.22071e-06 0)
(5.07164e-07 9.21086e-06 0)
(5.40704e-07 9.17856e-06 0)
(2.92283e-07 1.76548e-06 0)
(-5.29992e-10 5.68149e-09 0)
(-1.01438e-08 8.5501e-06 0)
(-3.0026e-08 8.55403e-06 0)
(-4.89004e-08 8.56163e-06 0)
(-6.63989e-08 8.57263e-06 0)
(-8.22056e-08 8.58672e-06 0)
(-9.60555e-08 8.6036e-06 0)
(-1.07732e-07 8.62294e-06 0)
(-1.17066e-07 8.64443e-06 0)
(-1.23927e-07 8.66774e-06 0)
(-1.28228e-07 8.69257e-06 0)
(-1.29913e-07 8.71862e-06 0)
(-1.28958e-07 8.74559e-06 0)
(-1.25365e-07 8.77322e-06 0)
(-1.1916e-07 8.80123e-06 0)
(-1.10387e-07 8.8294e-06 0)
(-9.91095e-08 8.85747e-06 0)
(-8.54027e-08 8.88523e-06 0)
(-6.93557e-08 8.91247e-06 0)
(-5.10685e-08 8.93899e-06 0)
(-3.06521e-08 8.96459e-06 0)
(-8.22742e-09 8.98909e-06 0)
(1.60738e-08 9.01232e-06 0)
(4.21089e-08 9.03409e-06 0)
(6.97232e-08 9.05425e-06 0)
(9.87497e-08 9.07265e-06 0)
(1.29008e-07 9.08914e-06 0)
(1.60304e-07 9.1036e-06 0)
(1.92432e-07 9.1159e-06 0)
(2.25172e-07 9.12596e-06 0)
(2.58295e-07 9.13371e-06 0)
(2.91566e-07 9.1391e-06 0)
(3.24745e-07 9.14215e-06 0)
(3.57597e-07 9.14286e-06 0)
(3.89895e-07 9.14131e-06 0)
(4.21427e-07 9.1376e-06 0)
(4.52009e-07 9.13187e-06 0)
(4.81485e-07 9.12429e-06 0)
(5.0986e-07 9.09409e-06 0)
(2.76852e-07 1.86017e-06 0)
(4.60672e-11 5.64562e-09 0)
(-7.52633e-09 8.57562e-06 0)
(-2.22502e-08 8.57893e-06 0)
(-3.61451e-08 8.58532e-06 0)
(-4.88912e-08 8.59458e-06 0)
(-6.02135e-08 8.60644e-06 0)
(-6.98808e-08 8.62064e-06 0)
(-7.77039e-08 8.63692e-06 0)
(-8.3533e-08 8.655e-06 0)
(-8.72555e-08 8.6746e-06 0)
(-8.87924e-08 8.69548e-06 0)
(-8.80955e-08 8.71736e-06 0)
(-8.51443e-08 8.74001e-06 0)
(-7.99428e-08 8.76318e-06 0)
(-7.25167e-08 8.78665e-06 0)
(-6.29111e-08 8.8102e-06 0)
(-5.11878e-08 8.83364e-06 0)
(-3.74234e-08 8.85677e-06 0)
(-2.17082e-08 8.8794e-06 0)
(-4.14431e-09 8.90136e-06 0)
(1.5155e-08 8.9225e-06 0)
(3.60661e-08 8.94265e-06 0)
(5.84556e-08 8.96166e-06 0)
(8.21808e-08 8.97941e-06 0)
(1.0709e-07 8.99576e-06 0)
(1.33024e-07 9.0106e-06 0)
(1.59815e-07 9.02383e-06 0)
(1.87289e-07 9.03535e-06 0)
(2.15268e-07 9.0451e-06 0)
(2.43571e-07 9.05302e-06 0)
(2.72015e-07 9.05908e-06 0)
(3.00422e-07 9.06326e-06 0)
(3.28615e-07 9.06558e-06 0)
(3.5643e-07 9.06607e-06 0)
(3.83715e-07 9.06479e-06 0)
(4.10331e-07 9.06182e-06 0)
(4.36162e-07 9.05725e-06 0)
(4.61111e-07 9.05121e-06 0)
(4.85249e-07 9.02211e-06 0)
(2.64606e-07 1.96129e-06 0)
(8.64539e-10 5.61805e-09 0)
(-5.32922e-09 8.59419e-06 0)
(-1.57232e-08 8.59695e-06 0)
(-2.54388e-08 8.6023e-06 0)
(-3.4197e-08 8.61005e-06 0)
(-4.17577e-08 8.61997e-06 0)
(-4.79185e-08 8.63185e-06 0)
(-5.25139e-08 8.64546e-06 0)
(-5.54124e-08 8.66057e-06 0)
(-5.65151e-08 8.67696e-06 0)
(-5.57532e-08 8.69439e-06 0)
(-5.30852e-08 8.71266e-06 0)
(-4.84947e-08 8.73155e-06 0)
(-4.19879e-08 8.75086e-06 0)
(-3.35915e-08 8.7704e-06 0)
(-2.33503e-08 8.78999e-06 0)
(-1.13258e-08 8.80945e-06 0)
(2.40619e-09 8.82862e-06 0)
(1.77563e-08 8.84736e-06 0)
(3.46233e-08 8.86551e-06 0)
(5.28955e-08 8.88294e-06 0)
(7.24516e-08 8.89953e-06 0)
(9.31616e-08 8.91515e-06 0)
(1.14889e-07 8.92971e-06 0)
(1.37489e-07 8.94309e-06 0)
(1.60815e-07 8.95523e-06 0)
(1.84715e-07 8.96603e-06 0)
(2.09037e-07 8.97544e-06 0)
(2.33626e-07 8.98341e-06 0)
(2.58334e-07 8.9899e-06 0)
(2.83015e-07 8.99488e-06 0)
(3.07528e-07 8.99836e-06 0)
(3.31744e-07 9.00034e-06 0)
(3.55543e-07 9.00085e-06 0)
(3.78817e-07 8.99993e-06 0)
(4.01474e-07 8.99763e-06 0)
(4.23437e-07 8.99403e-06 0)
(4.44641e-07 8.98919e-06 0)
(4.65118e-07 8.96088e-06 0)
(2.54814e-07 2.07114e-06 0)
(2.08772e-09 5.59781e-09 0)
(-3.49755e-09 8.60693e-06 0)
(-1.0282e-08 8.60923e-06 0)
(-1.65145e-08 8.61367e-06 0)
(-2.19504e-08 8.6201e-06 0)
(-2.63791e-08 8.62833e-06 0)
(-2.96229e-08 8.63819e-06 0)
(-3.15361e-08 8.64947e-06 0)
(-3.20033e-08 8.662e-06 0)
(-3.09375e-08 8.67557e-06 0)
(-2.82782e-08 8.69001e-06 0)
(-2.39899e-08 8.70512e-06 0)
(-1.80595e-08 8.72074e-06 0)
(-1.04948e-08 8.7367e-06 0)
(-1.32239e-09 8.75284e-06 0)
(9.41378e-09 8.76901e-06 0)
(2.16542e-08 8.78506e-06 0)
(3.53251e-08 8.80086e-06 0)
(5.03401e-08 8.8163e-06 0)
(6.66012e-08 8.83125e-06 0)
(8.40005e-08 8.84561e-06 0)
(1.02421e-07 8.85928e-06 0)
(1.21738e-07 8.87216e-06 0)
(1.41822e-07 8.88419e-06 0)
(1.62538e-07 8.89528e-06 0)
(1.83747e-07 8.90537e-06 0)
(2.05312e-07 8.9144e-06 0)
(2.27095e-07 8.92231e-06 0)
(2.48962e-07 8.92908e-06 0)
(2.70785e-07 8.93467e-06 0)
(2.92442e-07 8.93905e-06 0)
(3.1382e-07 8.94223e-06 0)
(3.3482e-07 8.94419e-06 0)
(3.5535e-07 8.94494e-06 0)
(3.75335e-07 8.94452e-06 0)
(3.9471e-07 8.94295e-06 0)
(4.13424e-07 8.94027e-06 0)
(4.31436e-07 8.93652e-06 0)
(4.48752e-07 8.90914e-06 0)
(2.47452e-07 2.19194e-06 0)
(3.95151e-09 5.58387e-09 0)
(-1.98501e-09 8.61485e-06 0)
(-5.78928e-09 8.61674e-06 0)
(-9.14683e-09 8.62038e-06 0)
(-1.18422e-08 8.62565e-06 0)
(-1.36895e-08 8.63241e-06 0)
(-1.45319e-08 8.64049e-06 0)
(-1.42402e-08 8.64974e-06 0)
(-1.27121e-08 8.65999e-06 0)
(-9.87032e-09 8.6711e-06 0)
(-5.66117e-09 8.68291e-06 0)
(-5.30567e-11 8.69527e-06 0)
(6.96519e-09 8.70804e-06 0)
(1.53858e-08 8.72107e-06 0)
(2.51837e-08 8.73424e-06 0)
(3.63175e-08 8.74743e-06 0)
(4.87314e-08 8.76053e-06 0)
(6.23558e-08 8.77344e-06 0)
(7.71089e-08 8.78606e-06 0)
(9.28977e-08 8.7983e-06 0)
(1.09619e-07 8.81008e-06 0)
(1.27162e-07 8.82133e-06 0)
(1.45407e-07 8.832e-06 0)
(1.64228e-07 8.84201e-06 0)
(1.83498e-07 8.85132e-06 0)
(2.03084e-07 8.85987e-06 0)
(2.22854e-07 8.86762e-06 0)
(2.42678e-07 8.87454e-06 0)