/*--------------------------------*- C++ -*----------------------------------*\
  =========                 |
  \\      /  F ield         | OpenFOAM: The Open Source CFD Toolbox
   \\    /   O peration     | Website:  https://openfoam.org
    \\  /    A nd           | Version:  10
     \\/     M anipulation  |
\*---------------------------------------------------------------------------*/
FoamFile
{
    format      ascii;
    class       volSymmTensorField;
    location    "0.03";
    object      UPrime2Mean;
}
// * * * * * * * * * * * * * * * * * * * * * * * * * * * * * * * * * * * * * //

dimensions      [0 2 -2 0 0 0 0];

internalField   nonuniform List<symmTensor> 
12225
(
(0.0529812 0.000969868 0 0.00228359 0 0)
(0.0153125 -8.57224e-05 0 0.00110945 0 0)
(0.0211702 -0.00063551 0 0.000775226 0 0)
(0.0246035 -0.000917705 0 0.000628052 0 0)
(0.0358342 -0.0014667 0 0.000552509 0 0)
(0.0585975 -0.00233404 0 0.000521893 0 0)
(0.094184 -0.00362363 0 0.000519617 0 0)
(0.14303 -0.00480783 0 0.000465475 0 0)
(0.210018 -0.00744215 0 0.000578228 0 0)
(0.295664 -0.00773099 0 0.000456708 0 0)
(0.416989 -0.0152504 0 0.00083684 0 0)
(0.562249 -0.0102695 0 0.000505685 0 0)
(0.790089 -0.0357333 0 0.0020282 0 0)
(1.04052 -0.00663561 0 0.0011056 0 0)
(1.50687 -0.101661 0 0.00902226 0 0)
(2.02342 0.0303468 0 0.00735849 0 0)
(3.18859 -0.405411 0 0.0763305 0 0)
(4.9706 0.0863256 0 0.0309871 0 0)
(0.0513267 0.0010261 0 0.00264804 0 0)
(0.0146551 0.000413893 0 0.00129691 0 0)
(0.0151315 -0.000180571 0 0.000847313 0 0)
(0.0133753 -0.000245851 0 0.000735311 0 0)
(0.0131855 -0.000378837 0 0.000742482 0 0)
(0.0147851 -0.000945297 0 0.000842773 0 0)
(0.0180553 -0.00178581 0 0.000941502 0 0)
(0.0245401 -0.00337518 0 0.00121472 0 0)
(0.0344835 -0.00497698 0 0.00132682 0 0)
(0.0528149 -0.00860386 0 0.00203509 0 0)
(0.0767829 -0.0110305 0 0.00209778 0 0)
(0.122714 -0.0202175 0 0.00394969 0 0)
(0.175463 -0.0234345 0 0.00382299 0 0)
(0.28964 -0.0493221 0 0.00933724 0 0)
(0.405324 -0.053844 0 0.00877361 0 0)
(0.718036 -0.141163 0 0.0304249 0 0)
(1.00601 -0.19252 0 0.038966 0 0)
(1.85965 -0.61792 0 0.233583 0 0)
(0.0614759 0.00159833 0 0.00316631 0 0)
(0.0182341 0.000766831 0 0.00162396 0 0)
(0.0162294 -6.30032e-05 0 0.00109391 0 0)
(0.0138319 -0.000415709 0 0.0009636 0 0)
(0.0138956 -0.000715649 0 0.00100244 0 0)
(0.0155598 -0.00119567 0 0.00112756 0 0)
(0.0185983 -0.0021473 0 0.00139402 0 0)
(0.0232919 -0.00348202 0 0.00165167 0 0)
(0.0307249 -0.00577892 0 0.0023299 0 0)
(0.0414781 -0.00821362 0 0.00277495 0 0)
(0.0585864 -0.0136341 0 0.00447821 0 0)
(0.0826042 -0.0182264 0 0.00524242 0 0)
(0.121984 -0.032293 0 0.00992574 0 0)
(0.176909 -0.0419451 0 0.0114512 0 0)
(0.271427 -0.083154 0 0.0273155 0 0)
(0.405632 -0.118757 0 0.0367068 0 0)
(0.623614 -0.260527 0 0.11644 0 0)
(0.895868 -0.491315 0 0.293946 0 0)
(0.0543476 0.000133462 0 0.00331857 0 0)
(0.0148407 -0.000286791 0 0.00193468 0 0)
(0.0149482 -0.000916651 0 0.00142512 0 0)
(0.0129089 -0.00110878 0 0.00131695 0 0)
(0.0126487 -0.00139913 0 0.00142563 0 0)
(0.0140028 -0.00214277 0 0.00170052 0 0)
(0.0168808 -0.00332931 0 0.00208957 0 0)
(0.0216322 -0.00513709 0 0.00274148 0 0)
(0.0287531 -0.00754352 0 0.00350574 0 0)
(0.0395831 -0.0114335 0 0.00489483 0 0)
(0.0553694 -0.0166141 0 0.00654176 0 0)
(0.0793491 -0.0254795 0 0.00977123 0 0)
(0.114159 -0.0375905 0 0.0139799 0 0)
(0.16667 -0.0592865 0 0.0227401 0 0)
(0.243756 -0.0930329 0 0.0373605 0 0)
(0.354366 -0.154665 0 0.0702824 0 0)
(0.505126 -0.270335 0 0.151531 0 0)
(0.662741 -0.443199 0 0.318426 0 0)
(0.0572897 0.00199522 0 0.00394609 0 0)
(0.0178949 0.000622795 0 0.00236134 0 0)
(0.0176942 -0.00021726 0 0.001737 0 0)
(0.0148405 -0.000540607 0 0.00160827 0 0)
(0.013846 -0.000911008 0 0.00176968 0 0)
(0.0146898 -0.0017522 0 0.00215468 0 0)
(0.0171883 -0.0032407 0 0.00277334 0 0)
(0.0216334 -0.00539736 0 0.00359596 0 0)
(0.028736 -0.00856997 0 0.00491101 0 0)
(0.0394806 -0.0129637 0 0.00668028 0 0)
(0.055352 -0.0197913 0 0.00962921 0 0)
(0.0782926 -0.0295428 0 0.013811 0 0)
(0.111411 -0.0452095 0 0.0211369 0 0)
(0.158205 -0.0688141 0 0.0328782 0 0)
(0.224462 -0.107659 0 0.0550776 0 0)
(0.311215 -0.171548 0 0.0992119 0 0)
(0.418478 -0.270931 0 0.184535 0 0)
(0.513708 -0.4174 0 0.373565 0 0)
(0.0547753 -0.000514565 0 0.004842 0 0)
(0.0153547 -0.000327982 0 0.00307154 0 0)
(0.0157395 -0.00140089 0 0.00224545 0 0)
(0.0131105 -0.00170868 0 0.00213858 0 0)
(0.012203 -0.00208217 0 0.00237376 0 0)
(0.0133314 -0.00307514 0 0.0029303 0 0)
(0.0161501 -0.00483354 0 0.00381477 0 0)
(0.0206859 -0.00743448 0 0.00510014 0 0)
(0.0275197 -0.011114 0 0.0069375 0 0)
(0.0375693 -0.0163549 0 0.00961999 0 0)
(0.0522359 -0.0240329 0 0.0136517 0 0)
(0.0730653 -0.0353383 0 0.019826 0 0)
(0.102617 -0.0525081 0 0.0297714 0 0)
(0.142764 -0.0783096 0 0.0461131 0 0)
(0.196949 -0.118483 0 0.0749773 0 0)
(0.262584 -0.178492 0 0.126675 0 0)
(0.336242 -0.265815 0 0.221743 0 0)
(0.395261 -0.376153 0 0.39137 0 0)
(0.0564541 0.00103711 0 0.00462792 0 0)
(0.0186287 0.000126563 0 0.00369252 0 0)
(0.0201284 -0.000489148 0 0.00293084 0 0)
(0.0180984 -0.000850352 0 0.00282741 0 0)
(0.017689 -0.00156752 0 0.00317362 0 0)
(0.0192339 -0.00293374 0 0.0038979 0 0)
(0.0223919 -0.00508073 0 0.00502357 0 0)
(0.0271085 -0.00815494 0 0.00666609 0 0)
(0.0338312 -0.0124738 0 0.00907683 0 0)
(0.043311 -0.0185616 0 0.0126541 0 0)
(0.0567452 -0.0272899 0 0.0180011 0 0)
(0.0753361 -0.039922 0 0.0262359 0 0)
(0.100903 -0.0583228 0 0.0390576 0 0)
(0.134199 -0.0852144 0 0.0599883 0 0)
(0.176549 -0.124081 0 0.0942249 0 0)
(0.22408 -0.178725 0 0.152697 0 0)
(0.272996 -0.250468 0 0.247954 0 0)
(0.307855 -0.332023 0 0.400401 0 0)
(0.0541556 0.00159376 0 0.00582987 0 0)
(0.011859 0.000549561 0 0.00390368 0 0)
(0.012781 -0.000502036 0 0.0031178 0 0)
(0.0114781 -0.00103412 0 0.00336087 0 0)
(0.0116447 -0.00180614 0 0.00400571 0 0)
(0.0134493 -0.0032473 0 0.00504648 0 0)
(0.0166399 -0.00555501 0 0.00660286 0 0)
(0.0211462 -0.00885175 0 0.00882956 0 0)
(0.0273354 -0.0134311 0 0.0120149 0 0)
(0.0358794 -0.0198391 0 0.0166505 0 0)
(0.0477311 -0.0289536 0 0.0235006 0 0)
(0.0637203 -0.0419225 0 0.033855 0 0)
(0.0848859 -0.0603615 0 0.0496562 0 0)
(0.111243 -0.0862406 0 0.0744502 0 0)
(0.142839 -0.121796 0 0.113184 0 0)
(0.17606 -0.16843 0 0.174698 0 0)
(0.207543 -0.224987 0 0.267472 0 0)
(0.227892 -0.284198 0 0.404491 0 0)
(0.0617566 0.00108538 0 0.00559323 0 0)
(0.0210364 -0.000481951 0 0.00420338 0 0)
(0.0210077 -0.00185162 0 0.00360873 0 0)
(0.0178882 -0.00232603 0 0.00381685 0 0)
(0.0167827 -0.00297648 0 0.00454288 0 0)
(0.0177666 -0.00444696 0 0.00576298 0 0)
(0.0204074 -0.0069206 0 0.00763153 0 0)
(0.0245157 -0.0104627 0 0.0103892 0 0)
(0.0302018 -0.0153391 0 0.0143846 0 0)
(0.0378034 -0.022074 0 0.0201907 0 0)
(0.0479343 -0.0314496 0 0.0286444 0 0)
(0.0610782 -0.0444638 0 0.0411761 0 0)
(0.0777929 -0.0623696 0 0.0597894 0 0)
(0.0976194 -0.0864618 0 0.0879094 0 0)
(0.120089 -0.11788 0 0.129796 0 0)
(0.142051 -0.156435 0 0.192295 0 0)
(0.16133 -0.200092 0 0.280788 0 0)
(0.172223 -0.242218 0 0.402648 0 0)
(0.0595297 0.00335951 0 0.00624068 0 0)
(0.0165887 -0.000492126 0 0.00446377 0 0)
(0.0161164 -0.00167681 0 0.00421215 0 0)
(0.0141055 -0.00173769 0 0.00480758 0 0)
(0.013759 -0.00218484 0 0.00581294 0 0)
(0.0149312 -0.00366433 0 0.00739737 0 0)
(0.0173533 -0.00626691 0 0.00978264 0 0)
(0.0208185 -0.00997503 0 0.0132142 0 0)
(0.0254353 -0.0149611 0 0.0180741 0 0)
(0.0315691 -0.0216515 0 0.0250118 0 0)
(0.0397174 -0.0307363 0 0.034954 0 0)
(0.0501118 -0.0430448 0 0.0493961 0 0)
(0.0628204 -0.0594737 0 0.0702894 0 0)
(0.0770789 -0.0806733 0 0.100727 0 0)
(0.0920466 -0.106949 0 0.144127 0 0)
(0.105378 -0.137209 0 0.205604 0 0)
(0.11569 -0.169209 0 0.288127 0 0)
(0.120109 -0.197428 0 0.396124 0 0)
(0.0491056 0.00234129 0 0.0065164 0 0)
(0.0121643 -0.00123278 0 0.00556487 0 0)
(0.012696 -0.00322988 0 0.00479989 0 0)
(0.0106502 -0.00357336 0 0.00515149 0 0)
(0.01001 -0.00407491 0 0.00639016 0 0)
(0.0108262 -0.00557117 0 0.00845124 0 0)
(0.0128247 -0.00814022 0 0.0114213 0 0)
(0.0157091 -0.011732 0 0.0155639 0 0)
(0.0194533 -0.0165224 0 0.021332 0 0)
(0.0242675 -0.0229251 0 0.0294491 0 0)
(0.0304919 -0.03151 0 0.0408887 0 0)
(0.0382442 -0.0428496 0 0.0571033 0 0)
(0.047427 -0.0574417 0 0.0798713 0 0)
(0.0572712 -0.0754329 0 0.111819 0 0)
(0.0669263 -0.0965428 0 0.15552 0 0)
(0.0747035 -0.119357 0 0.214646 0 0)
(0.0798066 -0.141742 0 0.290542 0 0)
(0.0808988 -0.159516 0 0.385993 0 0)
(0.0587393 0.00285877 0 0.00642861 0 0)
(0.0170215 -0.00109094 0 0.00631679 0 0)
(0.0166146 -0.00258285 0 0.00572696 0 0)
(0.0141655 -0.00249327 0 0.00608142 0 0)
(0.0130865 -0.00282214 0 0.00742709 0 0)
(0.0134315 -0.00424769 0 0.00975265 0 0)
(0.0147831 -0.00661745 0 0.0131235 0 0)
(0.0167198 -0.0097829 0 0.017806 0 0)
(0.0191539 -0.0139017 0 0.0242918 0 0)
(0.0222194 -0.0193399 0 0.0333394 0 0)
(0.0261022 -0.0265575 0 0.0459094 0 0)
(0.0307893 -0.0358955 0 0.0633486 0 0)
(0.0361052 -0.0475505 0 0.0872079 0 0)
(0.0414008 -0.061291 0 0.119659 0 0)
(0.0461809 -0.0765855 0 0.162548 0 0)
(0.0494106 -0.0919084 0 0.21851 0 0)
(0.0509272 -0.105535 0 0.287886 0 0)
(0.0501656 -0.114159 0 0.372576 0 0)
(0.050825 0.00222552 0 0.00754732 0 0)
(0.0147949 -0.00215531 0 0.0064631 0 0)
(0.0154272 -0.00369196 0 0.00564885 0 0)
(0.0132261 -0.00367936 0 0.00642877 0 0)
(0.0124083 -0.00397343 0 0.00829404 0 0)
(0.0127311 -0.00525429 0 0.0110607 0 0)
(0.0136584 -0.00744019 0 0.014882 0 0)
(0.0149079 -0.0104029 0 0.0201428 0 0)
(0.0165364 -0.0142568 0 0.0273734 0 0)
(0.0186908 -0.0192653 0 0.0373018 0 0)
(0.0214724 -0.0257363 0 0.0508137 0 0)
(0.0247711 -0.0338077 0 0.0691296 0 0)
(0.0283955 -0.0434959 0 0.093553 0 0)
(0.031805 -0.0543429 0 0.125853 0 0)
(0.0345811 -0.0657208 0 0.167296 0 0)
(0.0360425 -0.0761262 0 0.219798 0 0)
(0.0362353 -0.0842591 0 0.283047 0 0)
(0.0349682 -0.0873217 0 0.35853 0 0)
(0.0540421 0.00164321 0 0.00930888 0 0)
(0.015175 -0.000787164 0 0.00826537 0 0)
(0.0149899 -0.00163989 0 0.00790013 0 0)
(0.0129352 -0.00111372 0 0.00883713 0 0)
(0.0118341 -0.000907415 0 0.0106788 0 0)
(0.0114396 -0.0016478 0 0.0136175 0 0)
(0.0116001 -0.00335022 0 0.017858 0 0)
(0.0121923 -0.00577525 0 0.0236713 0 0)
(0.0131686 -0.00882841 0 0.0315207 0 0)
(0.0144732 -0.012612 0 0.042122 0 0)
(0.01604 -0.0173258 0 0.0563095 0 0)
(0.0177103 -0.0229766 0 0.0751361 0 0)
(0.0193312 -0.0294283 0 0.0995871 0 0)
(0.0205574 -0.0360957 0 0.130981 0 0)
(0.0212449 -0.0423127 0 0.169981 0 0)
(0.0211529 -0.0467821 0 0.217902 0 0)
(0.0205187 -0.0485499 0 0.273954 0 0)
(0.019708 -0.0455822 0 0.339322 0 0)
(0.0549584 0.00356169 0 0.00918475 0 0)
(0.0142169 -0.000933378 0 0.00846716 0 0)
(0.0143706 -0.00309747 0 0.0077086 0 0)
(0.0129389 -0.00285054 0 0.00892446 0 0)
(0.012404 -0.0027191 0 0.0113841 0 0)
(0.0121609 -0.00353463 0 0.0149403 0 0)
(0.0120204 -0.00512921 0 0.0197508 0 0)
(0.0119502 -0.00712782 0 0.0261215 0 0)
(0.0120237 -0.00943603 0 0.0345287 0 0)
(0.0123098 -0.012148 0 0.0456419 0 0)
(0.0128147 -0.015363 0 0.0601688 0 0)
(0.0134002 -0.0189429 0 0.0789496 0 0)
(0.0139054 -0.0226031 0 0.102667 0 0)
(0.0141039 -0.0256954 0 0.132243 0 0)
(0.0139318 -0.0276635 0 0.16793 0 0)
(0.0134853 -0.0274169 0 0.210581 0 0)
(0.0131081 -0.0244847 0 0.259164 0 0)
(0.0133126 -0.017243 0 0.314718 0 0)
(0.0573456 0.0028775 0 0.0112329 0 0)
(0.0147496 -0.000876881 0 0.0116102 0 0)
(0.0134088 -0.00260744 0 0.011073 0 0)
(0.0110022 -0.00205233 0 0.0119212 0 0)
(0.00996957 -0.00144348 0 0.0141453 0 0)
(0.00940482 -0.00161916 0 0.0176071 0 0)
(0.00901839 -0.00249643 0 0.0223631 0 0)
(0.008779 -0.00371935 0 0.0287475 0 0)
(0.00868364 -0.00508163 0 0.0372307 0 0)
(0.00868615 -0.00650037 0 0.048364 0 0)
(0.00871973 -0.00787814 0 0.0626285 0 0)
(0.00870189 -0.00892824 0 0.0805678 0 0)
(0.00862039 -0.00932949 0 0.102549 0 0)
(0.00851801 -0.00852407 0 0.129145 0 0)
(0.00852791 -0.00615532 0 0.160255 0 0)
(0.00893711 -0.0014308 0 0.196453 0 0)
(0.0100294 0.00578737 0 0.236613 0 0)
(0.0124391 0.0167051 0 0.281686 0 0)
(0.0557618 0.00351917 0 0.0120418 0 0)
(0.0174486 -0.000679202 0 0.0119338 0 0)
(0.0163033 -0.00253298 0 0.0100603 0 0)
(0.013536 -0.00218998 0 0.0107075 0 0)
(0.0124181 -0.00165637 0 0.0133655 0 0)
(0.0118146 -0.00176126 0 0.0174446 0 0)
(0.0112834 -0.0023658 0 0.0227112 0 0)
(0.0108511 -0.00301113 0 0.0293194 0 0)
(0.0105926 -0.00339463 0 0.0376601 0 0)
(0.0104589 -0.00338242 0 0.0482189 0 0)
(0.0103589 -0.00289668 0 0.0613716 0 0)
(0.0102953 -0.00170926 0 0.077496 0 0)
(0.010351 0.000432148 0 0.0967271 0 0)
(0.010724 0.00400473 0 0.119386 0 0)
(0.0115849 0.00923001 0 0.145197 0 0)
(0.0133151 0.0167228 0 0.174581 0 0)
(0.0160633 0.0263637 0 0.206455 0 0)
(0.020442 0.0391149 0 0.241758 0 0)
(0.0543502 0.00335301 0 0.0129013 0 0)
(0.0141648 -0.00177793 0 0.0131287 0 0)
(0.0143893 -0.00483201 0 0.0117392 0 0)
(0.0126463 -0.00461045 0 0.0124931 0 0)
(0.0116519 -0.00380552 0 0.0148199 0 0)
(0.0106163 -0.00341979 0 0.0182325 0 0)
(0.00958701 -0.00339159 0 0.0226525 0 0)
(0.00889703 -0.0033442 0 0.0283121 0 0)
(0.00865425 -0.00294057 0 0.0355172 0 0)
(0.00872775 -0.00194833 0 0.0445493 0 0)
(0.00897856 -0.000196651 0 0.0555648 0 0)
(0.00942951 0.00254492 0 0.068723 0 0)
(0.010209 0.00649416 0 0.0840092 0 0)
(0.0115767 0.0119626 0 0.101588 0 0)
(0.0136911 0.0190625 0 0.121147 0 0)
(0.0169541 0.0281191 0 0.143003 0 0)
(0.0214187 0.0389899 0 0.166292 0 0)
(0.0277025 0.05219 0 0.191708 0 0)
(0.0557685 0.00316906 0 0.0120525 0 0)
(0.0172733 1.65947e-05 0 0.0117123 0 0)
(0.0173207 -0.00177991 0 0.00998631 0 0)
(0.0135896 -0.0013986 0 0.0104731 0 0)
(0.0115752 -0.00037371 0 0.0124033 0 0)
(0.0106337 0.000544985 0 0.0152247 0 0)
(0.0102861 0.0014113 0 0.0189004 0 0)
(0.010441 0.00263978 0 0.0235818 0 0)
(0.0110702 0.00457606 0 0.0294048 0 0)
(0.0120637 0.0073859 0 0.0364729 0 0)
(0.013375 0.0111215 0 0.0448222 0 0)
(0.0151765 0.0158758 0 0.054533 0 0)
(0.0177145 0.0217335 0 0.0655763 0 0)
(0.0212966 0.0288691 0 0.0780373 0 0)
(0.0260686 0.0372952 0 0.0916402 0 0)
(0.032343 0.0471989 0 0.106567 0 0)
(0.0401045 0.0583903 0 0.122161 0 0)
(0.0497567 0.0712094 0 0.138969 0 0)
(0.0536364 0.00367256 0 0.0116695 0 0)
(0.0142964 -0.00156512 0 0.0120858 0 0)
(0.0121944 -0.00333895 0 0.00979629 0 0)
(0.00948948 -0.00207723 0 0.00933679 0 0)
(0.00859544 -0.000403913 0 0.010439 0 0)
(0.00810005 0.000864666 0 0.0125025 0 0)
(0.00773841 0.00196695 0 0.0152793 0 0)
(0.0078171 0.00345393 0 0.0186951 0 0)
(0.00855352 0.00566957 0 0.0227525 0 0)
(0.00998395 0.00869084 0 0.0275281 0 0)
(0.0121159 0.0124972 0 0.0330861 0 0)
(0.0150623 0.0171268 0 0.0394947 0 0)
(0.0189944 0.0226401 0 0.0467195 0 0)
(0.0241179 0.0291592 0 0.054788 0 0)
(0.0305474 0.0366983 0 0.0635011 0 0)
(0.038479 0.0453777 0 0.0729812 0 0)
(0.0478921 0.0550506 0 0.0828167 0 0)
(0.0590326 0.0659289 0 0.093331 0 0)
(0.0526577 0.00328482 0 0.0104961 0 0)
(0.0150635 0.000694525 0 0.00980823 0 0)
(0.0136607 -3.50795e-05 0 0.00776651 0 0)
(0.0107042 0.00118699 0 0.00738509 0 0)
(0.0100273 0.00259482 0 0.00800318 0 0)
(0.0103648 0.00389568 0 0.00934037 0 0)
(0.0111721 0.00531891 0 0.0112855 0 0)
(0.0124871 0.0071699 0 0.0137651 0 0)
(0.0144609 0.00965578 0 0.0167373 0 0)
(0.0171527 0.0128506 0 0.0202129 0 0)
(0.0206058 0.0167539 0 0.0242047 0 0)
(0.0249557 0.0213877 0 0.0287441 0 0)
(0.0304043 0.0267886 0 0.0337994 0 0)
(0.0371575 0.0330356 0 0.0393807 0 0)
(0.0453032 0.0401238 0 0.0453503 0 0)
(0.0549968 0.0481266 0 0.0517865 0 0)
(0.0662288 0.0569228 0 0.0583992 0 0)
(0.0791152 0.066609 0 0.06539 0 0)
(0.0550222 0.000951432 0 0.0117636 0 0)
(0.0161756 -0.00017435 0 0.00963494 0 0)
(0.0152383 -0.000136123 0 0.00698827 0 0)
(0.0134904 0.000799947 0 0.00641543 0 0)
(0.0133636 0.00184306 0 0.00680336 0 0)
(0.013837 0.00303246 0 0.00763226 0 0)
(0.0147937 0.00453309 0 0.00880385 0 0)
(0.0163602 0.00648067 0 0.0103542 0 0)
(0.0186335 0.00895729 0 0.0122851 0 0)
(0.0216786 0.0119879 0 0.0145816 0 0)
(0.025605 0.0155516 0 0.0172404 0 0)
(0.0306396 0.019662 0 0.020255 0 0)
(0.0369876 0.0243576 0 0.0235694 0 0)
(0.0448236 0.0297445 0 0.0271824 0 0)
(0.0541916 0.0358173 0 0.0310116 0 0)
(0.0652423 0.0426347 0 0.035143 0 0)
(0.0779111 0.0500482 0 0.0394058 0 0)
(0.0923565 0.0581538 0 0.0439049 0 0)
(0.0632376 0.00196119 0 0.00969357 0 0)
(0.0197612 5.57607e-05 0 0.00729763 0 0)
(0.0166452 -0.000822318 0 0.00511629 0 0)
(0.0147608 -0.000208914 0 0.004512 0 0)
(0.0149158 0.000724498 0 0.00474905 0 0)
(0.0153557 0.0016927 0 0.00542488 0 0)
(0.0159018 0.00286331 0 0.00630764 0 0)
(0.0169634 0.00444228 0 0.00732239 0 0)
(0.0189066 0.00647084 0 0.00851785 0 0)
(0.0218511 0.00890265 0 0.00997431 0 0)
(0.0257509 0.011716 0 0.0117104 0 0)
(0.0306261 0.0149463 0 0.0136971 0 0)
(0.0365972 0.0186285 0 0.0158711 0 0)
(0.0438896 0.02282 0 0.0182249 0 0)
(0.0526348 0.027512 0 0.0207122 0 0)
(0.0630533 0.032752 0 0.0233927 0 0)
(0.0751226 0.0384697 0 0.0261523 0 0)
(0.0889281 0.0447259 0 0.029065 0 0)
(0.0619527 0.00119765 0 0.0083533 0 0)
(0.019153 -0.000201467 0 0.00636061 0 0)
(0.0167035 -4.61251e-05 0 0.00453549 0 0)
(0.0150314 0.000930308 0 0.00408717 0 0)
(0.0149086 0.00183243 0 0.00430813 0 0)
(0.0150949 0.0026997 0 0.00473198 0 0)
(0.0158568 0.00374682 0 0.00522761 0 0)
(0.0177159 0.00517722 0 0.00581802 0 0)
(0.0209352 0.00705579 0 0.00654096 0 0)
(0.0254794 0.00933993 0 0.00742014 0 0)
(0.0311947 0.0119582 0 0.00845046 0 0)
(0.0380134 0.0148729 0 0.00962254 0 0)
(0.0459676 0.0180775 0 0.0109214 0 0)
(0.0551699 0.0216137 0 0.0123499 0 0)
(0.0656788 0.0254981 0 0.013867 0 0)
(0.0776473 0.0297896 0 0.0155043 0 0)
(0.0910886 0.034444 0 0.0171841 0 0)
(0.106029 0.0395233 0 0.0189237 0 0)
(0.0531255 0.00212794 0 0.00702928 0 0)
(0.0153895 -0.000285099 0 0.00502551 0 0)
(0.0145971 -0.00114771 0 0.0035519 0 0)
(0.0130313 -0.000763768 0 0.00314018 0 0)
(0.0124351 -4.25227e-05 0 0.00314225 0 0)
(0.0119885 0.000662481 0 0.00332769 0 0)
(0.012209 0.00129948 0 0.00361802 0 0)
(0.0135859 0.00206593 0 0.00398547 0 0)
(0.0162951 0.00314206 0 0.00442994 0 0)
(0.0202923 0.00459106 0 0.00496718 0 0)
(0.0254537 0.00640046 0 0.00560416 0 0)
(0.0317321 0.00854721 0 0.00633178 0 0)
(0.0391645 0.0110023 0 0.00712572 0 0)
(0.0478606 0.0137643 0 0.00797694 0 0)
(0.0578687 0.0168138 0 0.00886104 0 0)
(0.0693291 0.0201698 0 0.00981678 0 0)
(0.0822239 0.0237764 0 0.0108049 0 0)
(0.0966345 0.0276785 0 0.0118547 0 0)
(0.0519071 -0.000916715 0 0.00660965 0 0)
(0.014949 -0.000440407 0 0.00479259 0 0)
(0.0139941 -0.000172069 0 0.00307261 0 0)
(0.0122121 4.98377e-05 0 0.00239893 0 0)
(0.012249 0.000331257 0 0.002218 0 0)
(0.0130489 0.000702383 0 0.00221637 0 0)
(0.0145907 0.00117448 0 0.00230226 0 0)
(0.0169688 0.00182725 0 0.00245419 0 0)
(0.0202378 0.00273173 0 0.00265731 0 0)
(0.0244496 0.00391334 0 0.00290437 0 0)
(0.0296551 0.00536642 0 0.00319765 0 0)
(0.0359633 0.00707591 0 0.0035369 0 0)
(0.0435209 0.00900626 0 0.00391634 0 0)
(0.0524959 0.0111349 0 0.0043361 0 0)
(0.0629632 0.013433 0 0.00478354 0 0)
(0.0750197 0.015912 0 0.00528068 0 0)
(0.0886072 0.0185462 0 0.00580157 0 0)
(0.103693 0.0213812 0 0.00634969 0 0)
(0.0522843 -0.000160989 0 0.00539927 0 0)
(0.0117355 -0.000819487 0 0.00340128 0 0)
(0.0111091 -0.000402098 0 0.00227185 0 0)
(0.0109428 3.55461e-05 0 0.001838 0 0)
(0.0120436 0.00034813 0 0.00172154 0 0)
(0.0127566 0.000601729 0 0.00170975 0 0)
(0.0134304 0.000900291 0 0.00171687 0 0)
(0.0148082 0.00133921 0 0.00174198 0 0)
(0.0173863 0.00197296 0 0.00180435 0 0)
(0.021339 0.0028116 0 0.00191009 0 0)
(0.0266463 0.0038428 0 0.00205342 0 0)
(0.0332808 0.0050443 0 0.00222756 0 0)
(0.0412655 0.00638325 0 0.00242835 0 0)
(0.0506725 0.00784491 0 0.00265694 0 0)
(0.0614931 0.0094168 0 0.00290754 0 0)
(0.0737715 0.0111242 0 0.00319276 0 0)
(0.0874417 0.0129569 0 0.00349779 0 0)
(0.102444 0.0149568 0 0.00381767 0 0)
(0.0549021 -0.000834243 0 0.00433148 0 0)
(0.0167675 -6.90309e-05 0 0.0022734 0 0)
(0.0155337 -0.000288133 0 0.00151279 0 0)
(0.0139591 -0.00033139 0 0.00121431 0 0)
(0.014308 -0.000185116 0 0.00107924 0 0)
(0.0152101 4.93612e-06 0 0.00102463 0 0)
(0.0166354 0.000172136 0 0.000999853 0 0)
(0.0187464 0.000343751 0 0.000987383 0 0)
(0.0216319 0.000589681 0 0.000984233 0 0)
(0.025405 0.000968797 0 0.000990739 0 0)
(0.0302517 0.00151308 0 0.00100745 0 0)
(0.0363921 0.00222249 0 0.00103603 0 0)
(0.0440058 0.00307133 0 0.00107938 0 0)
(0.0531989 0.00403319 0 0.00114082 0 0)
(0.0639396 0.00508595 0 0.00121942 0 0)
(0.0762332 0.00622523 0 0.00132165 0 0)
(0.0900155 0.00744559 0 0.00144117 0 0)
(0.105168 0.00875469 0 0.00157359 0 0)
(0.0507063 -0.000804574 0 0.00367675 0 0)
(0.0127098 -7.70003e-05 0 0.00158069 0 0)
(0.0127075 3.54347e-05 0 0.00106413 0 0)
(0.011861 -0.000158588 0 0.000914464 0 0)
(0.0118821 -0.000429062 0 0.000859362 0 0)
(0.011912 -0.000575126 0 0.000825435 0 0)
(0.0126183 -0.000532333 0 0.000805291 0 0)
(0.0145562 -0.000358321 0 0.000798832 0 0)
(0.0178077 -0.000123355 0 0.000799889 0 0)
(0.0222403 0.000134141 0 0.000807593 0 0)
(0.0277227 0.00040753 0 0.000823628 0 0)
(0.0342645 0.000706861 0 0.000847869 0 0)
(0.0419359 0.00104618 0 0.0008804 0 0)
(0.0508984 0.0014337 0 0.000920906 0 0)
(0.0611694 0.00187875 0 0.000963638 0 0)
(0.0729227 0.00239594 0 0.00101593 0 0)
(0.0860213 0.00298647 0 0.00107361 0 0)
(0.100663 0.00366517 0 0.00112171 0 0)
(0.0538018 -0.00038608 0 0.00243378 0 0)
(0.0164078 0.000162627 0 0.0013629 0 0)
(0.0170306 0.000363176 0 0.00103055 0 0)
(0.0150673 0.00041028 0 0.000894757 0 0)
(0.0148391 0.000596389 0 0.000798986 0 0)
(0.0160465 0.000770453 0 0.000717331 0 0)
(0.0178909 0.000809822 0 0.000655708 0 0)
(0.0199255 0.000758223 0 0.000608039 0 0)
(0.0223476 0.000701978 0 0.000562402 0 0)
(0.0255538 0.000700075 0 0.000516466 0 0)
(0.0298177 0.000770559 0 0.000472959 0 0)
(0.0352229 0.000893922 0 0.000434048 0 0)
(0.0417425 0.00103494 0 0.000400619 0 0)
(0.0493044 0.00116772 0 0.000372244 0 0)
(0.0579197 0.00129369 0 0.000349032 0 0)
(0.0676576 0.00142514 0 0.000333504 0 0)
(0.0786599 0.00157353 0 0.000321561 0 0)
(0.0909323 0.00175657 0 0.00030976 0 0)
(0.0146023 -0.0301537 7.81707e-22 0.0635518 -1.41121e-21 3.71588e-37)
(0.108933 -0.0715017 -1.75851e-21 0.0503895 6.38224e-22 3.66393e-37)
(0.244415 -0.0766683 0 0.0350243 0 0)
(0.359589 -0.0652647 0 0.0340656 0 0)
(0.467585 -0.0653705 0 0.0455113 0 0)
(0.611541 -0.0923639 1.05282e-21 0.0596169 8.33513e-22 3.4512e-37)
(0.831271 -0.140047 0 0.0672209 0 0)
(1.15389 -0.192902 0 0.0666702 0 0)
(1.57775 -0.235667 0 0.0590902 0 0)
(2.07591 -0.258693 0 0.0475621 0 0)
(2.60949 -0.25812 1.2002e-21 0.0353584 -1.32648e-22 3.1968e-37)
(3.13186 -0.234798 0 0.0247525 0 0)
(3.60211 -0.192546 0 0.016939 0 0)
(3.98328 -0.137039 0 0.0123501 0 0)
(4.24751 -0.073855 0 0.010949 0 0)
(4.38524 -0.00911383 -1.7839e-21 0.012502 1.23626e-21 2.95495e-37)
(4.39232 0.0514488 0 0.016657 0 0)
(4.28765 0.100457 0 0.0227247 0 0)
(4.09109 0.130826 0 0.029678 0 0)
(3.84986 0.136689 0 0.0357966 0 0)
(3.59157 0.115554 0 0.0394508 0 0)
(3.38692 0.0673218 0 0.0397139 0 0)
(3.24196 -0.00179632 0 0.0359057 0 0)
(3.24698 -0.101111 -1.78088e-20 0.0408881 1.43559e-21 2.5936e-37)
(3.34058 -0.17475 1.96743e-20 0.0491274 -1.24463e-21 2.55062e-37)
(3.65405 -0.32804 -2.09909e-20 0.090376 6.73454e-22 2.50811e-37)
(4.14532 -0.514116 -2.213e-20 0.21532 1.78357e-22 2.46608e-37)
(4.75536 -0.686782 0 0.362057 0 0)
(5.45138 -0.800698 0 0.427082 0 0)
(6.20964 -0.90352 2.63528e-20 0.500957 -3.87765e-22 2.34289e-37)
(7.00894 -0.940681 2.85456e-20 0.549889 -9.34734e-22 2.3028e-37)
(7.8254 -0.920539 0 0.532087 0 0)
(8.65634 -0.898801 0 0.478408 0 0)
(9.5098 -0.878229 3.75899e-20 0.41786 -2.52734e-21 2.18541e-37)
(10.4443 -0.771907 0 0.321542 0 0)
(11.4602 -0.606733 0 0.209038 0 0)
(12.5483 -0.549801 -4.73379e-20 0.173916 2.73277e-21 2.07242e-37)
(13.8592 -0.626905 0 0.146463 0 0)
(15.3805 -0.687019 -5.28106e-20 0.117965 2.18096e-21 1.99952e-37)
(17.0059 -0.711435 -1.10276e-19 0.095114 3.84096e-21 7.85519e-37)
(18.6738 -0.708533 0 0.0765995 0 0)
(20.3276 -0.684728 0 0.061843 0 0)
(21.9241 -0.645129 0 0.0501004 0 0)
(23.4288 -0.594113 0 0.0408107 0 0)
(24.8151 -0.535386 0 0.0334846 0 0)
(26.0618 -0.472232 -1.26434e-19 0.0277342 1.26183e-21 7.03761e-37)
(27.1546 -0.407448 -1.27072e-19 0.023237 9.26841e-22 6.90788e-37)
(28.0883 -0.343131 -1.27142e-19 0.0197317 6.22299e-22 6.77998e-37)
(28.8607 -0.280418 0 0.0169924 0 0)
(29.4783 -0.220384 1.25708e-19 0.0148521 -1.01632e-22 6.52964e-37)
(29.9436 -0.163758 0 0.0131698 0 0)
(30.2664 -0.111135 -1.2246e-19 0.0118313 -3.05669e-22 6.28649e-37)
(30.455 -0.0631676 -1.20275e-19 0.0107588 -4.68558e-22 6.16758e-37)
(30.5195 -0.019924 0 0.00987829 0 0)
(30.4725 0.0184531 0 0.00914813 0 0)
(30.3239 0.0521331 0 0.00853379 0 0)
(30.0856 0.0813201 -1.08925e-19 0.00801557 -8.85095e-22 5.70943e-37)
(29.7679 0.10627 0 0.00757871 0 0)
(29.3813 0.12722 0 0.00721128 0 0)
(28.9358 0.144637 0 0.00689549 0 0)
(28.4404 0.158892 0 0.0066194 0 0)
(27.9025 0.17061 0 0.0063685 0 0)
(27.3284 0.180302 0 0.00614184 0 0)
(26.7218 0.188574 0 0.00594086 0 0)
(26.0853 0.195839 0 0.00577719 0 0)
(25.4209 0.202488 7.80846e-20 0.00565887 1.00844e-21 4.77681e-37)
(24.7296 0.208543 0 0.00560088 0 0)
(24.0124 0.214078 0 0.00559711 0 0)
(23.2714 0.218824 -6.81146e-20 0.00564892 -9.67685e-22 4.49462e-37)
(22.5091 0.222569 -6.48957e-20 0.00573543 -9.51012e-22 4.4036e-37)
(21.7291 0.225016 0 0.00583947 0 0)
(20.9361 0.225965 5.86551e-20 0.00593642 9.10357e-22 4.22601e-37)
(20.1359 0.225206 -5.56504e-20 0.00601477 -8.85635e-22 4.13941e-37)
(19.3345 0.222675 0 0.00605805 0 0)
(18.5387 0.218397 4.99157e-20 0.00605867 8.26652e-22 3.9705e-37)
(17.7545 0.212576 0 0.00600196 0 0)
(16.9873 0.205597 0 0.0058829 0 0)
(16.2407 0.198019 -4.21041e-20 0.00569721 -7.20572e-22 3.72762e-37)
(15.5157 0.190519 0 0.00545025 0 0)
(14.8108 0.183809 3.74449e-20 0.00516488 6.49406e-22 3.57248e-37)
(14.1221 0.178472 0 0.0048593 0 0)
(13.4435 0.17495 -3.31765e-20 0.00456296 -5.87468e-22 3.4226e-37)
(12.7681 0.173456 -3.11667e-20 0.00430911 -5.61449e-22 3.34959e-37)
(12.0886 0.173931 -2.92285e-20 0.00412448 -5.38768e-22 3.27784e-37)
(11.3984 0.176008 -5.47109e-20 0.00402364 -1.03773e-21 1.28293e-36)
(10.6923 0.179249 5.10858e-20 0.00403074 1.00271e-21 1.25522e-36)
(9.96774 0.182877 0 0.00413899 0 0)
(9.22459 0.186142 0 0.00434011 0 0)
(8.46565 0.188321 0 0.00461654 0 0)
(7.69652 0.188619 3.7824e-20 0.00492991 8.72962e-22 1.14915e-36)
(6.92545 0.186609 3.48635e-20 0.00524911 8.35996e-22 1.12379e-36)
(6.16298 0.181877 -3.20725e-20 0.00552947 -7.95386e-22 1.09888e-36)
(5.42033 0.174205 0 0.00572521 0 0)
(4.70911 0.163792 2.70456e-20 0.00580806 7.02663e-22 1.0504e-36)
(4.04053 0.150892 2.48244e-20 0.00574757 6.51566e-22 1.0268e-36)
(3.42411 0.136065 2.28002e-20 0.00553421 5.98422e-22 1.00364e-36)
(2.86746 0.120016 0 0.00517342 0 0)
(2.37525 0.103568 0 0.00469157 0 0)
(1.94946 0.0875532 0 0.00413149 0 0)
(1.58868 0.0725952 1.6535e-20 0.00353495 3.85855e-22 9.15085e-37)
(1.28766 0.0589852 0 0.0029276 0 0)
(1.03997 0.047174 0 0.00236686 0 0)
(0.838744 0.0372306 -1.33877e-20 0.00187662 -2.48501e-22 8.5283e-37)
(0.676688 0.0290606 0 0.00146674 0 0)
(0.546992 0.0224698 0 0.00113547 0 0)
(0.443642 0.0172217 -1.11549e-20 0.000873999 -1.43117e-22 7.93964e-37)
(0.361539 0.0130776 0 0.00067062 0 0)
(0.296485 0.00981919 0 0.000513506 0 0)
(0.245096 0.00725999 9.57144e-21 0.000392283 6.81065e-23 7.3833e-37)
(0.20468 0.00524764 9.15468e-21 0.000298591 4.85875e-23 7.20478e-37)
(0.173115 0.0036624 0 0.000226069 0 0)
(0.148718 0.00241213 -8.4569e-21 0.000169989 -1.57434e-23 6.8578e-37)
(0.130144 0.00142838 0 0.000126934 0 0)
(0.116292 0.000659513 7.9152e-21 9.44442e-05 -1.0399e-23 6.52388e-37)
(0.106249 6.49208e-05 0 7.06883e-05 0 0)
(0.0992509 -0.000388704 7.50404e-21 5.42828e-05 -3.09049e-23 6.20261e-37)
(0.0946636 -0.000730356 7.34026e-21 4.39997e-05 -3.9255e-23 6.0466e-37)
(0.0919688 -0.00098693 0 3.87046e-05 0 0)
(0.0907622 -0.00118028 0 3.74113e-05 0 0)
(0.0907171 -0.00132716 0 3.91981e-05 0 0)
(0.0915847 -0.00144137 0 4.31797e-05 0 0)
(0.0931813 -0.00153303 0 4.87109e-05 0 0)
(0.095371 -0.00160929 0 5.53469e-05 0 0)
(0.0980557 -0.00167614 0 6.26579e-05 0 0)
(0.101169 -0.001738 6.71534e-21 7.03142e-05 -7.22522e-23 4.90305e-37)
(0.104667 -0.00179844 -6.69297e-21 7.78642e-05 7.30671e-23 4.77249e-37)
(0.108531 -0.00186059 0 8.44103e-05 0 0)
(0.112758 -0.00192561 0 8.89489e-05 0 0)
(0.117355 -0.00199185 0 9.09969e-05 0 0)
(0.122325 -0.00205597 0 9.07356e-05 0 0)
(0.127665 -0.00211471 -1.32938e-20 8.88086e-05 1.32242e-22 1.66318e-36)
(0.133362 -0.00216599 0 8.59813e-05 0 0)
(0.139398 -0.00220907 1.32676e-20 8.28546e-05 -1.21708e-22 1.57169e-36)
(0.145748 -0.00224408 -1.32502e-20 7.97569e-05 1.16345e-22 1.52735e-36)
(0.152389 -0.00227132 0 7.67832e-05 0 0)
(0.159297 -0.00229074 0 7.38817e-05 0 0)
(0.166446 -0.00230158 0 7.09199e-05 0 0)
(0.173809 -0.00230222 1.3136e-20 6.77235e-05 -9.49525e-23 1.35897e-36)
(0.181351 -0.00229023 1.3094e-20 6.41011e-05 -8.94446e-23 1.31906e-36)
(0.189031 -0.00226269 0 5.98782e-05 0 0)
(0.196795 -0.00221673 1.29906e-20 5.49412e-05 -7.79915e-23 1.24174e-36)
(0.204584 -0.00215038 1.29281e-20 4.92905e-05 -7.20783e-23 1.20431e-36)
(0.212326 -0.00206322 -1.28579e-20 4.30766e-05 6.61295e-23 1.16769e-36)
(0.219951 -0.00195685 0 3.65886e-05 0 0)
(0.227387 -0.00183487 0 3.01928e-05 0 0)
(0.234573 -0.00170229 -1.25993e-20 2.42443e-05 4.92125e-23 1.06249e-36)
(0.241461 -0.00156482 0 1.90078e-05 0 0)
(0.248019 -0.00142791 0 1.46189e-05 0 0)
(0.254227 -0.00129614 0 1.10921e-05 0 0)
(0.260083 -0.00117292 0 8.35416e-06 0 0)
(0.265594 -0.00106036 1.20222e-20 6.28487e-06 -2.91242e-23 9.02043e-37)
(0.270775 -0.000959482 1.18895e-20 4.75071e-06 -2.64643e-23 8.72078e-37)
(0.275646 -0.000870387 0 3.62697e-06 0 0)
(0.280231 -0.000792613 1.16114e-20 2.80868e-06 -2.22151e-23 8.1418e-37)
(0.284553 -0.000725267 0 2.21268e-06 0 0)
(0.288636 -0.000667353 0 1.77642e-06 0 0)
(0.292506 -0.000617758 1.11702e-20 1.45424e-06 -1.78747e-23 7.32258e-37)
(0.29618 -0.000575601 0 1.21419e-06 0 0)
(0.299691 -0.000540028 1.08648e-20 1.03399e-06 -1.59511e-23 6.80804e-37)
(0.303043 -0.000510425 0 8.98034e-07 0 0)