/*--------------------------------*- C++ -*----------------------------------*\
  =========                 |
  \\      /  F ield         | OpenFOAM: The Open Source CFD Toolbox
   \\    /   O peration     | Website:  https://openfoam.org
    \\  /    A nd           | Version:  10
     \\/     M anipulation  |
\*---------------------------------------------------------------------------*/
FoamFile
{
    format      ascii;
    class       surfaceScalarField;
    location    "15100";
    object      phi;
}
// * * * * * * * * * * * * * * * * * * * * * * * * * * * * * * * * * * * * * //

dimensions      [0 3 -1 0 0 0 0];

internalField   nonuniform List<scalar> 
12640
(
-1.97519e-08
1.97519e-08
-3.97946e-08
2.00427e-08
-6.044e-08
2.06454e-08
-8.20457e-08
2.16057e-08
-1.05048e-07
2.30028e-08
-1.30015e-07
2.49664e-08
-1.57724e-07
2.77093e-08
-1.89317e-07
3.15926e-08
-2.26586e-07
3.72692e-08
-2.72617e-07
4.60307e-08
-3.33389e-07
6.07724e-08
-4.21932e-07
8.85426e-08
-5.41936e-07
1.20004e-07
-2.12917e-06
1.58723e-06
-3.07827e-06
9.49103e-07
-4.30713e-06
1.22885e-06
-4.30437e-06
-2.75433e-09
-4.21588e-06
-8.84966e-08
-3.99703e-06
-2.18846e-07
-3.92717e-06
-6.98604e-08
-3.81801e-06
-1.09159e-07
-3.76485e-06
-5.31603e-08
-3.68725e-06
-7.76014e-08
-3.63208e-06
-5.51643e-08
-3.55481e-06
-7.72752e-08
-3.50564e-06
-4.91728e-08
-3.47375e-06
-3.18891e-08
-3.4374e-06
-3.6343e-08
-3.40378e-06
-3.36194e-08
-3.36141e-06
-4.23716e-08
-3.28048e-06
-8.09305e-08
-3.11191e-06
-1.68568e-07
-2.97096e-06
-1.40953e-07
-2.77644e-06
-1.94519e-07
-2.51504e-06
-2.61403e-07
-2.17383e-06
-3.41212e-07
-1.74349e-06
-4.30337e-07
-1.22451e-06
-5.18979e-07
-6.32839e-07
-5.91673e-07
1.97796e-18
-6.32839e-07
6.32839e-07
-6.32839e-07
1.22451e-06
-5.91673e-07
1.74349e-06
-5.18979e-07
2.17383e-06
-4.30337e-07
2.51504e-06
-3.41212e-07
2.77644e-06
-2.61403e-07
2.97096e-06
-1.94519e-07
3.11191e-06
-1.40953e-07
3.28048e-06
-1.68568e-07
3.36141e-06
-8.09305e-08
3.40378e-06
-4.23716e-08
3.4374e-06
-3.36194e-08
3.47375e-06
-3.6343e-08
3.50564e-06
-3.18891e-08
3.55481e-06
-4.91728e-08
3.63208e-06
-7.72752e-08
3.68725e-06
-5.51643e-08
3.76485e-06
-7.76014e-08
3.81801e-06
-5.31603e-08
3.92717e-06
-1.09159e-07
3.99703e-06
-6.98604e-08
4.21588e-06
-2.18846e-07
4.30437e-06
-8.84966e-08
4.30713e-06
-2.75433e-09
3.07827e-06
1.22885e-06
2.12917e-06
9.49103e-07
5.41936e-07
1.58723e-06
4.21932e-07
1.20004e-07
3.33389e-07
8.85426e-08
2.72617e-07
6.07724e-08
2.26586e-07
4.60307e-08
1.89317e-07
3.72692e-08
1.57724e-07
3.15926e-08
1.30015e-07
2.77093e-08
1.05048e-07
2.49664e-08
8.20457e-08
2.30028e-08
6.044e-08
2.16057e-08
3.97946e-08
2.06454e-08
1.97519e-08
2.00427e-08
1.97519e-08
-2.16506e-08
4.14025e-08
-4.36191e-08
4.20113e-08
-6.62465e-08
4.32728e-08
-8.99234e-08
4.52825e-08
-1.15126e-07
4.82059e-08
-1.42473e-07
5.23132e-08
-1.72811e-07
5.80473e-08
-2.07378e-07
6.6159e-08
-2.48109e-07
7.80004e-08
-2.98312e-07
9.62341e-08
-3.6435e-07
1.2681e-07
-4.6129e-07
1.85483e-07
-6.70674e-07
3.29388e-07
-5.30214e-07
1.44677e-06
-7.39324e-07
1.15821e-06
-4.35212e-06
4.84165e-06
-4.48339e-06
1.28514e-07
-4.44404e-06
-1.27846e-07
-4.22285e-06
-4.40032e-07
-4.17118e-06
-1.21527e-07
-4.05943e-06
-2.20914e-07
-4.01299e-06
-9.95943e-08
-3.9328e-06
-1.578e-07
-3.87975e-06
-1.08212e-07
-3.79778e-06
-1.59243e-07
-3.74819e-06
-9.87673e-08
-3.71717e-06
-6.29062e-08
-3.67968e-06
-7.38339e-08
-3.64572e-06
-6.75754e-08
-3.60304e-06
-8.50589e-08
-3.51971e-06
-1.6426e-07
-3.34541e-06
-3.42861e-07
-3.19768e-06
-2.88689e-07
-2.99251e-06
-3.99682e-07
-2.71546e-06
-5.38457e-07
-2.3519e-06
-7.04768e-07
-1.89041e-06
-8.91831e-07
-1.33018e-06
-1.07921e-06
-6.88302e-07
-1.23355e-06
-6.15285e-18
-1.32114e-06
6.88302e-07
-1.32114e-06
1.33018e-06
-1.23355e-06
1.89041e-06
-1.07921e-06
2.3519e-06
-8.91831e-07
2.71546e-06
-7.04768e-07
2.99251e-06
-5.38457e-07
3.19768e-06
-3.99682e-07
3.34541e-06
-2.88689e-07
3.51971e-06
-3.42861e-07
3.60304e-06
-1.6426e-07
3.64572e-06
-8.50589e-08
3.67968e-06
-6.75754e-08
3.71717e-06
-7.38339e-08
3.74819e-06
-6.29062e-08
3.79778e-06
-9.87673e-08
3.87975e-06
-1.59243e-07
3.9328e-06
-1.08212e-07
4.01299e-06
-1.578e-07
4.05943e-06
-9.95943e-08
4.17118e-06
-2.20914e-07
4.22285e-06
-1.21527e-07
4.44404e-06
-4.40032e-07
4.48339e-06
-1.27846e-07
4.35212e-06
1.28514e-07
7.39324e-07
4.84165e-06
5.30214e-07
1.15821e-06
6.70674e-07
1.44677e-06
4.6129e-07
3.29388e-07
3.6435e-07
1.85483e-07
2.98312e-07
1.2681e-07
2.48109e-07
9.62341e-08
2.07378e-07
7.80004e-08
1.72811e-07
6.6159e-08
1.42473e-07
5.80473e-08
1.15126e-07
5.23132e-08
8.99234e-08
4.82059e-08
6.62465e-08
4.52825e-08
4.36191e-08
4.32728e-08
2.16506e-08
4.20113e-08
4.14025e-08
-2.37121e-08
6.51145e-08
-4.77704e-08
6.60696e-08
-7.25459e-08
6.80483e-08
-9.84631e-08
7.11997e-08
-1.26039e-07
7.57816e-08
-1.5594e-07
8.22149e-08
-1.8908e-07
9.11869e-08
-2.2678e-07
1.03859e-07
-2.7109e-07
1.2231e-07
-3.25449e-07
1.50593e-07
-3.96274e-07
1.97636e-07
-4.97729e-07
2.86938e-07
-6.71743e-07
5.03402e-07
-6.06446e-07
1.38148e-06
-9.63662e-07
1.51543e-06
-2.66503e-07
4.14449e-06
-4.22054e-06
4.08255e-06
-4.63637e-06
2.87985e-07
-4.45118e-06
-6.25224e-07
-4.45135e-06
-1.21361e-07
-4.33466e-06
-3.37599e-07
-4.30434e-06
-1.29914e-07
-4.21814e-06
-2.44003e-07
-4.17117e-06
-1.55186e-07
-4.0798e-06
-2.50607e-07
-4.03032e-06
-1.4825e-07
-4.00157e-06
-9.16578e-08
-3.96181e-06
-1.13591e-07
-3.92791e-06
-1.01475e-07
-3.88654e-06
-1.26433e-07
-3.80327e-06
-2.47529e-07
-3.63003e-06
-5.16097e-07
-3.47877e-06
-4.39945e-07
-3.2657e-06
-6.12753e-07
-2.97498e-06
-8.29175e-07
-2.58901e-06
-1.09074e-06
-2.09159e-06
-1.38926e-06
-1.47817e-06
-1.69262e-06
-7.67076e-07
-1.94465e-06
-2.79817e-18
-2.08822e-06
7.67076e-07
-2.08822e-06
1.47817e-06
-1.94465e-06
2.09159e-06
-1.69262e-06
2.58901e-06
-1.38926e-06
2.97498e-06
-1.09074e-06
3.2657e-06
-8.29175e-07
3.47877e-06
-6.12753e-07
3.63003e-06
-4.39945e-07
3.80327e-06
-5.16097e-07
3.88654e-06
-2.47529e-07
3.92791e-06
-1.26433e-07
3.96181e-06
-1.01475e-07
4.00157e-06
-1.13591e-07
4.03032e-06
-9.16578e-08
4.0798e-06
-1.4825e-07
4.17117e-06
-2.50607e-07
4.21814e-06
-1.55186e-07
4.30434e-06
-2.44003e-07
4.33466e-06
-1.29914e-07
4.45135e-06
-3.37599e-07
4.45118e-06
-1.21361e-07
4.63637e-06
-6.25224e-07
4.22054e-06
2.87985e-07
2.66503e-07
4.08255e-06
9.63662e-07
4.14449e-06
6.06446e-07
1.51543e-06
6.71743e-07
1.38148e-06
4.97729e-07
5.03402e-07
3.96274e-07
2.86938e-07
3.25449e-07
1.97636e-07
2.7109e-07
1.50593e-07
2.2678e-07
1.2231e-07
1.8908e-07
1.03859e-07
1.5594e-07
9.11869e-08
1.26039e-07
8.22149e-08
9.84631e-08
7.57816e-08
7.25459e-08
7.11997e-08
4.77704e-08
6.80483e-08
2.37121e-08
6.60696e-08
6.51145e-08
-2.59423e-08
9.10569e-08
-5.22597e-08
9.2387e-08
-7.93535e-08
9.5142e-08
-1.07682e-07
9.95279e-08
-1.378e-07
1.059e-07
-1.70422e-07
1.14837e-07
-2.06516e-07
1.27281e-07
-2.47469e-07
1.44812e-07
-2.95393e-07
1.70234e-07
-3.53725e-07
2.08925e-07
-4.28503e-07
2.72413e-07
-5.31037e-07
3.89472e-07
-6.76405e-07
6.4877e-07
-6.55954e-07
1.36102e-06
-8.76199e-07
1.73567e-06
-3.50964e-07
3.61925e-06
6.75523e-08
3.66404e-06
-1.97557e-06
2.33111e-06
-4.38819e-06
1.78739e-06
-4.70155e-06
1.92004e-07
-4.60792e-06
-4.3123e-07
-4.62181e-06
-1.16029e-07
-4.52746e-06
-3.38346e-07
-4.49689e-06
-1.85758e-07
-4.38954e-06
-3.5796e-07
-4.34267e-06
-1.95113e-07
-4.31948e-06
-1.14856e-07
-4.27605e-06
-1.57014e-07
-4.24342e-06
-1.34106e-07
-4.20645e-06
-1.63407e-07
-4.12742e-06
-3.26554e-07
-3.96732e-06
-6.76198e-07
-3.819e-06
-5.88268e-07
-3.60388e-06
-8.2787e-07
-3.30531e-06
-1.12775e-06
-2.90093e-06
-1.49511e-06
-2.36503e-06
-1.92516e-06
-1.68442e-06
-2.37323e-06
-8.78476e-07
-2.75059e-06
1.67377e-18
-2.96669e-06
8.78476e-07
-2.96669e-06
1.68442e-06
-2.75059e-06
2.36503e-06
-2.37323e-06
2.90093e-06
-1.92516e-06
3.30531e-06
-1.49511e-06
3.60388e-06
-1.12775e-06
3.819e-06
-8.2787e-07
3.96732e-06
-5.88268e-07
4.12742e-06
-6.76198e-07
4.20645e-06
-3.26554e-07
4.24342e-06
-1.63407e-07
4.27605e-06
-1.34106e-07
4.31948e-06
-1.57014e-07
4.34267e-06
-1.14856e-07
4.38954e-06
-1.95113e-07
4.49689e-06
-3.5796e-07
4.52746e-06
-1.85758e-07
4.62181e-06
-3.38346e-07
4.60792e-06
-1.16029e-07
4.70155e-06
-4.3123e-07
4.38819e-06
1.92004e-07
1.97557e-06
1.78739e-06
-6.75523e-08
2.33111e-06
3.50964e-07
3.66404e-06
8.76199e-07
3.61925e-06
6.55954e-07
1.73567e-06
6.76405e-07
1.36102e-06
5.31037e-07
6.4877e-07
4.28503e-07
3.89472e-07
3.53725e-07
2.72413e-07
2.95393e-07
2.08925e-07
2.47469e-07
1.70234e-07
2.06516e-07
1.44812e-07
1.70422e-07
1.27281e-07
1.378e-07
1.14837e-07
1.07682e-07
1.059e-07
7.93535e-08
9.95279e-08
5.22597e-08
9.5142e-08
2.59423e-08
9.2387e-08
9.10569e-08
-2.83442e-08
1.19401e-07
-5.70919e-08
1.21135e-07
-8.66741e-08
1.24724e-07
-1.17581e-07
1.30435e-07
-1.50403e-07
1.38723e-07
-1.85894e-07
1.50328e-07
-2.25062e-07
1.66449e-07
-2.69328e-07
1.89078e-07
-3.20794e-07
2.217e-07
-3.82723e-07
2.70854e-07
-4.60309e-07
3.5e-07
-5.61004e-07
4.90167e-07
-6.82976e-07
7.70742e-07
-6.88474e-07
1.36652e-06
-8.05217e-07
1.85242e-06
-3.81241e-07
3.19528e-06
-7.28925e-09
3.29008e-06
-7.0307e-08
2.39413e-06
-3.28213e-07
2.0453e-06
-3.4742e-06
3.338e-06
-4.62034e-06
7.14908e-07
-4.90322e-06
1.66848e-07
-4.8304e-06
-4.11165e-07
-4.84877e-06
-1.67388e-07
-4.71718e-06
-4.89555e-07
-4.68027e-06
-2.32017e-07
-4.66956e-06
-1.25568e-07
-4.62004e-06
-2.06538e-07
-4.59103e-06
-1.63109e-07
-4.56349e-06
-1.90951e-07
-4.49431e-06
-3.95731e-07
-4.3667e-06
-8.03806e-07
-4.23242e-06
-7.22551e-07
-4.02474e-06
-1.03555e-06
-3.72967e-06
-1.42282e-06
-3.31811e-06
-1.90667e-06
-2.74569e-06
-2.49759e-06
-1.97977e-06
-3.13915e-06
-1.04049e-06
-3.68987e-06
-4.20855e-19
-4.00719e-06
1.04049e-06
-4.00719e-06
1.97977e-06
-3.68987e-06
2.74569e-06
-3.13915e-06
3.31811e-06
-2.49759e-06
3.72967e-06
-1.90667e-06
4.02474e-06
-1.42282e-06
4.23242e-06
-1.03555e-06
4.3667e-06
-7.22551e-07
4.49431e-06
-8.03806e-07
4.56349e-06
-3.95731e-07
4.59103e-06
-1.90951e-07
4.62004e-06
-1.63109e-07
4.66956e-06
-2.06538e-07
4.68027e-06
-1.25568e-07
4.71718e-06
-2.32017e-07
4.84877e-06
-4.89555e-07
4.8304e-06
-1.67388e-07
4.90322e-06
-4.11165e-07
4.62034e-06
1.66848e-07
3.4742e-06
7.14908e-07
3.28213e-07
3.338e-06
7.0307e-08
2.0453e-06
7.28925e-09
2.39413e-06
3.81241e-07
3.29008e-06
8.05217e-07
3.19528e-06
6.88474e-07
1.85242e-06
6.82976e-07
1.36652e-06
5.61004e-07
7.70742e-07
4.60309e-07
4.90167e-07
3.82723e-07
3.5e-07
3.20794e-07
2.70854e-07
2.69328e-07
2.217e-07
2.25062e-07
1.89078e-07
1.85894e-07
1.66449e-07
1.50403e-07
1.50328e-07
1.17581e-07
1.38723e-07
8.66741e-08
1.30435e-07
5.70919e-08
1.24724e-07
2.83442e-08
1.21135e-07
1.19401e-07
-3.0916e-08
1.50317e-07
-6.22626e-08
1.52481e-07
-9.4498e-08
1.5696e-07
-1.28141e-07
1.64078e-07
-1.63811e-07
1.74393e-07
-2.02289e-07
1.88806e-07
-2.44602e-07
2.08761e-07
-2.92159e-07
2.36635e-07
-3.46963e-07
2.76504e-07
-4.11903e-07
3.35795e-07
-4.90929e-07
4.29025e-07
-5.87401e-07
5.86639e-07
-6.89813e-07
8.73155e-07
-7.06779e-07
1.38349e-06
-7.49541e-07
1.89518e-06
-4.0872e-07
2.85446e-06
-9.71608e-08
2.97852e-06
-1.1183e-07
2.4088e-06
-2.54227e-07
2.1877e-06
2.50854e-07
2.83291e-06
-4.3068e-07
1.39644e-06
-3.68265e-06
3.41881e-06
-4.80007e-06
7.06263e-07
-5.14406e-06
1.76596e-07
-5.02256e-06
-6.11048e-07
-5.02787e-06
-2.2671e-07
-5.04867e-06
-1.04768e-07
-4.98993e-06
-2.65285e-07
-4.9698e-06
-1.83231e-07
-4.96006e-06
-2.0069e-07
-4.90679e-06
-4.49001e-07
-4.84177e-06
-8.68827e-07
-4.74081e-06
-8.23515e-07
-4.55307e-06
-1.22329e-06
-4.28182e-06
-1.69407e-06
-3.88973e-06
-2.29876e-06
-3.29523e-06
-3.09208e-06
-2.42028e-06
-4.0141e-06
-1.28593e-06
-4.82422e-06
-2.35844e-17
-5.29311e-06
1.28593e-06
-5.29311e-06
2.42028e-06
-4.82422e-06
3.29523e-06
-4.0141e-06
3.88973e-06
-3.09208e-06
4.28182e-06
-2.29876e-06
4.55307e-06
-1.69407e-06
4.74081e-06
-1.22329e-06
4.84177e-06
-8.23515e-07
4.90679e-06
-8.68827e-07
4.96006e-06
-4.49001e-07
4.9698e-06
-2.0069e-07
4.98993e-06
-1.83231e-07
5.04867e-06
-2.65285e-07
5.02787e-06
-1.04768e-07
5.02256e-06
-2.2671e-07
5.14406e-06
-6.11048e-07
4.80007e-06
1.76596e-07
3.68265e-06
7.06263e-07
4.3068e-07
3.41881e-06
-2.50854e-07
1.39644e-06
2.54227e-07
2.83291e-06
1.1183e-07
2.1877e-06
9.71608e-08
2.4088e-06
4.0872e-07
2.97852e-06
7.49541e-07
2.85446e-06
7.06779e-07
1.89518e-06
6.89813e-07
1.38349e-06
5.87401e-07
8.73155e-07
4.90929e-07
5.86639e-07
4.11903e-07
4.29025e-07
3.46963e-07
3.35795e-07
2.92159e-07
2.76504e-07
2.44602e-07
2.36635e-07
2.02289e-07
2.08761e-07
1.63811e-07
1.88806e-07
1.28141e-07
1.74393e-07
9.4498e-08
1.64078e-07
6.22626e-08
1.5696e-07
3.0916e-08
1.52481e-07
1.50317e-07
-3.36504e-08
1.83967e-07
-6.77549e-08
1.86586e-07
-1.02796e-07
1.92e-07
-1.39313e-07
2.00595e-07
-1.77947e-07
2.13027e-07
-2.19487e-07
2.30346e-07
-2.64948e-07
2.54223e-07
-3.15674e-07
2.8736e-07
-3.73459e-07
3.3429e-07
-4.40624e-07
4.0296e-07
-5.19593e-07
5.07994e-07
-6.09973e-07
6.77018e-07
-6.95505e-07
9.58687e-07
-7.13951e-07
1.40193e-06
-7.07266e-07
1.88849e-06
-4.3344e-07
2.58063e-06
-1.74779e-07
2.71986e-06
-1.49129e-07
2.38315e-06
-2.01594e-07
2.24016e-06
1.03161e-07
2.52816e-06
-2.88488e-07
1.78809e-06
3.67834e-07
2.76249e-06
-2.52526e-07
1.32662e-06
-2.36963e-06
2.2937e-06
-4.76294e-06
1.78226e-06
-5.20725e-06
2.17601e-07
-5.40392e-06
9.18979e-08
-5.35966e-06
-3.09548e-07
-5.37023e-06
-1.72653e-07
-5.39656e-06
-1.74362e-07
-5.36385e-06
-4.81712e-07
-5.40793e-06
-8.24751e-07
-5.37805e-06
-8.53391e-07
-5.21754e-06
-1.3838e-06
-5.00442e-06
-1.90719e-06
-4.69352e-06
-2.60966e-06
-4.12733e-06
-3.65827e-06
-3.11194e-06
-5.02949e-06
-1.67666e-06
-6.2595e-06
-8.88346e-18
-6.96978e-06
1.67666e-06
-6.96978e-06
3.11194e-06
-6.2595e-06
4.12733e-06
-5.02949e-06
4.69352e-06
-3.65827e-06
5.00442e-06
-2.60966e-06
5.21754e-06
-1.90719e-06
5.37805e-06
-1.3838e-06
5.40793e-06
-8.53391e-07
5.36385e-06
-8.24751e-07
5.39656e-06
-4.81712e-07
5.37023e-06
-1.74362e-07
5.35966e-06
-1.72653e-07
5.40392e-06
-3.09548e-07
5.20725e-06
9.18979e-08
4.76294e-06
2.17601e-07
2.36963e-06
1.78226e-06
2.52526e-07
2.2937e-06
-3.67834e-07
1.32662e-06
2.88488e-07
2.76249e-06
-1.03161e-07
1.78809e-06
2.01594e-07
2.52816e-06
1.49129e-07
2.24016e-06
1.74779e-07
2.38315e-06
4.3344e-07
2.71986e-06
7.07266e-07
2.58063e-06
7.13951e-07
1.88849e-06
6.95505e-07
1.40193e-06
6.09973e-07
9.58687e-07
5.19593e-07
6.77018e-07
4.40624e-07
5.07994e-07
3.73459e-07
4.0296e-07
3.15674e-07
3.3429e-07
2.64948e-07
2.8736e-07
2.19487e-07
2.54223e-07
1.77947e-07
2.30346e-07
1.39313e-07
2.13027e-07
1.02796e-07
2.00595e-07
6.77549e-08
1.92e-07
3.36504e-08
1.86586e-07
1.83967e-07
-3.65315e-08
2.20499e-07
-7.35355e-08
2.2359e-07
-1.11511e-07
2.29976e-07
-1.51011e-07
2.40096e-07
-1.92682e-07
2.54697e-07
-2.37299e-07
2.74963e-07
-2.85829e-07
3.02752e-07
-3.39479e-07
3.41011e-07
-3.99728e-07
3.94539e-07
-4.68159e-07
4.7139e-07
-5.45558e-07
5.85393e-07
-6.28464e-07
7.59925e-07
-6.99005e-07
1.02923e-06
-7.12999e-07
1.41593e-06
-6.76056e-07
1.85155e-06
-4.55354e-07
2.35993e-06
-2.40201e-07
2.50471e-06
-1.84163e-07
2.32711e-06
-1.79632e-07
2.23563e-06
6.55644e-09
2.34197e-06
-1.76076e-07
1.97072e-06
1.96638e-07
2.38978e-06
-1.27824e-07
1.65109e-06
9.68493e-08
2.06903e-06
1.38311e-07
1.7408e-06
-6.86622e-07
1.04253e-06
-4.63857e-06
4.04385e-06
-5.32007e-06
3.71954e-07
-5.64011e-06
1.4738e-07
-5.82716e-06
1.26884e-08
-5.83768e-06
-4.71191e-07
-6.06848e-06
-5.93948e-07
-6.20853e-06
-7.13336e-07
-6.0317e-06
-1.56063e-06
-5.93233e-06
-2.00656e-06
-5.84808e-06
-2.69392e-06
-5.47009e-06
-4.03626e-06
-4.26775e-06
-6.23183e-06
-2.33435e-06
-8.1929e-06
2.17164e-17
-9.30412e-06
2.33435e-06
-9.30412e-06
4.26775e-06
-8.1929e-06
5.47009e-06
-6.23183e-06
5.84808e-06
-4.03626e-06
5.93233e-06
-2.69392e-06
6.0317e-06
-2.00656e-06
6.20853e-06
-1.56063e-06
6.06848e-06
-7.13336e-07
5.83768e-06
-5.93948e-07
5.82716e-06
-4.71191e-07
5.64011e-06
1.26884e-08
5.32007e-06
1.4738e-07
4.63857e-06
3.71954e-07
6.86622e-07
4.04385e-06
-1.38311e-07
1.04253e-06
-9.68493e-08
1.7408e-06
1.27824e-07
2.06903e-06
-1.96638e-07
1.65109e-06
1.76076e-07
2.38978e-06
-6.55644e-09
1.97072e-06
1.79632e-07
2.34197e-06
1.84163e-07
2.23563e-06
2.40201e-07
2.32711e-06
4.55354e-07
2.50471e-06
6.76056e-07
2.35993e-06
7.12999e-07
1.85155e-06
6.99005e-07
1.41593e-06
6.28464e-07
1.02923e-06
5.45558e-07
7.59925e-07
4.68159e-07
5.85393e-07
3.99728e-07
4.7139e-07
3.39479e-07
3.94539e-07
2.85829e-07
3.41011e-07
2.37299e-07
3.02752e-07
1.92682e-07
2.74963e-07
1.51011e-07
2.54697e-07
1.11511e-07
2.40096e-07
7.35355e-08
2.29976e-07
3.65315e-08
2.2359e-07
2.20499e-07
-3.95331e-08
2.60032e-07
-7.9549e-08
2.63606e-07
-1.20554e-07
2.70981e-07
-1.63103e-07
2.82645e-07
-2.07826e-07
2.9942e-07
-2.55461e-07
3.22598e-07
-3.06875e-07
3.54166e-07
-3.63075e-07
3.97211e-07
-4.25116e-07
4.5658e-07
-4.93735e-07
5.40009e-07
-5.68139e-07
6.59797e-07
-6.42651e-07
8.34437e-07
-6.99681e-07
1.08626e-06
-7.06553e-07
1.4228e-06
-6.53426e-07
1.79842e-06
-4.74356e-07
2.18086e-06
-2.94232e-07
2.32459e-06
-2.17845e-07
2.25072e-06
-1.78598e-07
2.19638e-06
-5.71364e-08
2.22051e-06
-1.20513e-07
2.0341e-06
8.76811e-08
2.18158e-06
-6.77814e-08
1.80655e-06
4.93526e-08
1.9519e-06
3.07177e-08
1.75943e-06
-4.57501e-07
1.53075e-06
6.90841e-07
2.89551e-06
5.32999e-09
1.05746e-06
-8.37955e-07
9.90665e-07
-5.0754e-06
4.25014e-06
-5.83534e-06
2.88748e-07
-6.56376e-06
1.34464e-07
-7.31261e-06
3.55172e-08
-6.83687e-06
-2.03637e-06
-6.98485e-06
-1.85858e-06
-7.49054e-06
-2.18823e-06
-7.84017e-06
-3.68664e-06
-6.33886e-06
-7.73313e-06
-3.50351e-06
-1.10283e-05
1.76183e-19
-1.28076e-05
3.50351e-06
-1.28076e-05
6.33886e-06
-1.10283e-05
7.84017e-06
-7.73313e-06
7.49054e-06
-3.68664e-06
6.98485e-06
-2.18823e-06
6.83687e-06
-1.85858e-06
7.31261e-06
-2.03637e-06
6.56376e-06
3.55172e-08
5.83534e-06
1.34464e-07
5.0754e-06
2.88748e-07
8.37955e-07
4.25014e-06
-5.32999e-09
9.90665e-07
-6.90841e-07
1.05746e-06
4.57501e-07
2.89551e-06
-3.07177e-08
1.53075e-06
-4.93526e-08
1.75943e-06
6.77814e-08
1.9519e-06
-8.76811e-08
1.80655e-06
1.20513e-07
2.18158e-06
5.71364e-08
2.0341e-06
1.78598e-07
2.22051e-06
2.17845e-07
2.19638e-06
2.94232e-07
2.25072e-06
4.74356e-07
2.32459e-06
6.53426e-07
2.18086e-06
7.06553e-07
1.79842e-06
6.99681e-07
1.4228e-06
6.42651e-07
1.08626e-06
5.68139e-07
8.34437e-07
4.93735e-07
6.59797e-07
4.25116e-07
5.40009e-07
3.63075e-07
4.5658e-07
3.06875e-07
3.97211e-07
2.55461e-07
3.54166e-07
2.07826e-07
3.22598e-07
1.63103e-07
2.9942e-07
1.20554e-07
2.82645e-07
7.9549e-08
2.70981e-07
3.95331e-08
2.63606e-07
2.60032e-07
-4.26159e-08
3.02648e-07
-8.57141e-08
3.06704e-07
-1.29795e-07
3.15062e-07
-1.75399e-07
3.28248e-07
-2.23118e-07
3.47139e-07
-2.73615e-07
3.73095e-07
-3.27615e-07
4.08167e-07
-3.85853e-07
4.55449e-07
-4.48887e-07
5.19613e-07
-5.1657e-07
6.07693e-07
-5.86745e-07
7.29972e-07
-6.52383e-07
9.00074e-07
-6.97274e-07
1.13115e-06
-6.96665e-07
1.42219e-06
-6.36974e-07
1.73873e-06
-4.90325e-07
2.03421e-06
-3.38119e-07
2.17238e-06
-2.50265e-07
2.16287e-06
-1.90862e-07
2.13698e-06
-1.01526e-07
2.13117e-06
-1.01438e-07
2.03401e-06
1.79934e-08
2.06215e-06
-4.40459e-08
1.86859e-06
1.40116e-08
1.89384e-06
-1.39776e-08
1.78742e-06
-2.1731e-07
1.73408e-06
3.74585e-07
2.30361e-06
-7.98289e-09
1.44003e-06
-5.00413e-07
1.4831e-06
8.47931e-07
2.90179e-06
7.37993e-08
1.06288e-06
-9.56613e-07
1.16488e-06
-2.42177e-06
1.50067e-06
-4.75252e-06
2.94383e-07
-6.71644e-06
1.05342e-07
-8.97079e-06
6.61281e-08
-1.23616e-05
-2.95868e-07
-1.01564e-05
-9.9383e-06
-5.63524e-06
-1.55494e-05
3.16858e-17
-1.84429e-05
5.63524e-06
-1.84429e-05
1.01564e-05
-1.55494e-05
1.23616e-05
-9.9383e-06
8.97079e-06
-2.95868e-07
6.71644e-06
6.61281e-08
4.75252e-06
1.05342e-07
2.42177e-06
2.94383e-07
9.56613e-07
1.50067e-06
-7.37993e-08
1.16488e-06
-8.47931e-07
1.06288e-06
5.00413e-07
2.90179e-06
7.98289e-09
1.4831e-06
-3.74585e-07
1.44003e-06
2.1731e-07
2.30361e-06
1.39776e-08
1.73408e-06
-1.40116e-08
1.78742e-06
4.40459e-08
1.89384e-06
-1.79934e-08
1.86859e-06
1.01438e-07
2.06215e-06
1.01526e-07
2.03401e-06
1.90862e-07
2.13117e-06
2.50265e-07
2.13698e-06
3.38119e-07
2.16287e-06
4.90325e-07
2.17238e-06
6.36974e-07
2.03421e-06
6.96665e-07
1.73873e-06
6.97274e-07
1.42219e-06
6.52383e-07
1.13115e-06
5.86745e-07
9.00074e-07
5.1657e-07
7.29972e-07
4.48886e-07
6.07693e-07
3.85853e-07
5.19613e-07
3.27615e-07
4.55449e-07
2.73615e-07
4.08167e-07
2.23118e-07
3.73095e-07
1.75399e-07
3.47139e-07
1.29795e-07
3.28248e-07
8.57141e-08
3.15062e-07
4.26159e-08
3.06704e-07
3.02648e-07
-4.57251e-08
3.48373e-07
-9.19173e-08
3.52896e-07
-1.39056e-07
3.62201e-07
-1.87644e-07
3.76836e-07
-2.38212e-07
3.97707e-07
-2.91312e-07
4.26195e-07
-3.47479e-07
4.64334e-07
-4.07123e-07
5.15092e-07
-4.70262e-07
5.82752e-07
-5.35922e-07
6.73353e-07
-6.00899e-07
7.94949e-07
-6.57602e-07
9.56777e-07
-6.91802e-07
1.16535e-06
-6.84738e-07
1.41513e-06
-6.24551e-07
1.67855e-06
-5.03151e-07
1.91281e-06
-3.73243e-07
2.04247e-06
-2.80989e-07
2.07061e-06
-2.10799e-07
2.06679e-06
-1.35722e-07
2.0561e-06
-1.04203e-07
2.00249e-06
-2.88055e-08
1.98675e-06
-4.19782e-08
1.88176e-06
-1.13183e-08
1.86318e-06
-2.87069e-08
1.80481e-06
-9.55289e-08
1.80091e-06
1.94291e-07
2.01379e-06
2.04311e-09
1.63228e-06
-1.93092e-07
1.67823e-06
4.68879e-07
2.23982e-06
1.06523e-07
1.42524e-06
-1.60171e-07
1.43157e-06
4.92158e-07
8.48342e-07
1.88766e-07
5.97774e-07
-2.26251e-07
5.20359e-07
-8.192e-07
6.59077e-07
-1.83456e-06
7.19494e-07
-1.12154e-05
-5.57454e-07
-8.61546e-06
-1.81494e-05
5.96643e-17
-2.70583e-05
8.61546e-06
-2.70583e-05
1.12154e-05
-1.81494e-05
1.83456e-06
-5.57454e-07
8.192e-07
7.19494e-07
2.26251e-07
6.59077e-07
-1.88766e-07
5.20359e-07
-4.92158e-07
5.97774e-07
1.60171e-07
8.48342e-07
-1.06523e-07
1.43157e-06
-4.68879e-07
1.42524e-06
1.93092e-07
2.23982e-06
-2.04311e-09
1.67823e-06
-1.94291e-07
1.63228e-06
9.55289e-08
2.01379e-06
2.87069e-08
1.80091e-06
1.13183e-08
1.80481e-06
4.19782e-08
1.86318e-06
2.88055e-08
1.88176e-06
1.04203e-07
1.98675e-06
1.35722e-07
2.00249e-06
2.10799e-07
2.0561e-06
2.80989e-07
2.06679e-06
3.73243e-07
2.07061e-06
5.03151e-07
2.04247e-06
6.24551e-07
1.91281e-06
6.84738e-07
1.67855e-06
6.91802e-07
1.41513e-06
6.57602e-07
1.16535e-06
6.00899e-07
9.56777e-07
5.35922e-07
7.94949e-07
4.70262e-07
6.73353e-07
4.07123e-07
5.82752e-07
3.47479e-07
5.15092e-07
2.91312e-07
4.64334e-07
2.38212e-07
4.26195e-07
1.87644e-07
3.97707e-07
1.39056e-07
3.76836e-07
9.19173e-08
3.62201e-07
4.57251e-08
3.52896e-07
3.48373e-07
-4.87878e-08
3.97161e-07
-9.801e-08
4.02118e-07
-1.48105e-07
4.12296e-07
-1.99516e-07
4.28247e-07
-2.52683e-07
4.50874e-07
-3.08013e-07
4.81524e-07
-3.65811e-07
5.22132e-07
-4.26131e-07
5.75412e-07
-4.88461e-07
6.45082e-07
-5.51129e-07
7.36021e-07
-6.1026e-07
8.5408e-07
-6.58351e-07
1.00487e-06
-6.8343e-07
1.19043e-06
-6.71568e-07
1.40326e-06
-6.14349e-07
1.62133e-06
-5.12751e-07
1.81121e-06
-4.00894e-07
1.93062e-06
-3.09348e-07
1.97907e-06
-2.34435e-07
1.99188e-06
-1.65034e-07
1.98669e-06
-1.19041e-07
1.9565e-06
-6.32702e-08
1.93098e-06
-5.16484e-08
1.87014e-06
-3.0023e-08
1.84155e-06
-3.26645e-08
1.80745e-06
-4.05541e-08
1.8088e-06
9.80068e-08
1.87523e-06
1.61034e-08
1.71418e-06
-4.23632e-08
1.7367e-06
2.68527e-07
1.92893e-06
1.18748e-07
1.57501e-06
2.36571e-08
1.52666e-06
1.5712e-07
7.1488e-07
8.88072e-08
6.66087e-07
-3.62156e-08
6.45382e-07
-5.45049e-08
6.77367e-07
-4.45274e-08
7.09516e-07
-3.3936e-07
-2.62622e-07
-3.27247e-06
-1.52162e-05
-4.38087e-18
-3.03308e-05
3.27247e-06
-3.03308e-05
3.3936e-07
-1.52162e-05
4.45274e-08
-2.62622e-07
5.45049e-08
7.09516e-07
3.62156e-08
6.77367e-07
-8.88072e-08
6.45382e-07
-1.5712e-07
6.66087e-07
-2.36571e-08
7.1488e-07
-1.18748e-07
1.52666e-06
-2.68527e-07
1.57501e-06
4.23632e-08
1.92893e-06
-1.61034e-08
1.7367e-06
-9.80068e-08
1.71418e-06
4.05541e-08
1.87523e-06
3.26645e-08
1.8088e-06
3.0023e-08
1.80745e-06
5.16484e-08
1.84155e-06
6.32702e-08
1.87014e-06
1.19041e-07
1.93098e-06
1.65034e-07
1.9565e-06
2.34435e-07
1.98669e-06
3.09348e-07
1.99188e-06
4.00894e-07
1.97907e-06
5.12751e-07
1.93062e-06
6.14349e-07
1.81121e-06
6.71568e-07
1.62133e-06
6.8343e-07
1.40326e-06
6.58351e-07
1.19043e-06
6.1026e-07
1.00487e-06
5.51129e-07
8.5408e-07
4.88461e-07
7.36021e-07
4.26131e-07
6.45082e-07
3.65811e-07
5.75412e-07
3.08013e-07
5.22132e-07
2.52683e-07
4.81524e-07
1.99516e-07
4.50874e-07
1.48105e-07
4.28247e-07
9.801e-08
4.12296e-07
4.87878e-08
4.02118e-07
3.97161e-07
-5.17125e-08
4.48873e-07
-1.03806e-07
4.54212e-07
-1.56656e-07
4.65146e-07
-2.10622e-07
4.82213e-07
-2.66025e-07
5.06277e-07
-3.23098e-07
5.38597e-07
-3.81893e-07
5.80927e-07
-4.42105e-07
6.35624e-07
-5.02751e-07
7.05728e-07
-5.61644e-07
7.94914e-07
-6.14621e-07
9.07056e-07
-6.5475e-07
1.045e-06
-6.72356e-07
1.20803e-06
-6.57449e-07
1.38836e-06
-6.04916e-07
1.56879e-06
-5.19063e-07
1.72536e-06
-4.22126e-07
1.83368e-06
-3.34652e-07
1.89159e-06
-2.59015e-07
1.91624e-06
-1.91972e-07
1.91965e-06
-1.39829e-07
1.90436e-06
-9.14793e-08
1.88263e-06
-6.70238e-08
1.84568e-06
-4.53063e-08
1.81984e-06
-3.53399e-08
1.79749e-06
-2.03697e-08
1.79383e-06
4.90472e-08
1.80581e-06
2.58334e-08
1.7374e-06
2.33039e-08
1.73923e-06
1.66078e-07
1.78616e-06
1.12697e-07
1.6284e-06
6.70637e-08
1.57229e-06
8.26819e-08
6.99261e-07
5.93629e-08
6.89406e-07
1.90458e-08
6.85699e-07
1.22466e-09
6.95188e-07
1.62132e-09
7.0912e-07
-4.21904e-08
-2.1881e-07
-5.8761e-07
-1.46708e-05
4.96925e-18
-3.09184e-05
5.8761e-07
-3.09184e-05
4.21904e-08
-1.46708e-05
-1.62132e-09
-2.1881e-07
-1.22466e-09
7.0912e-07
-1.90458e-08
6.95188e-07
-5.93629e-08
6.85699e-07
-8.26819e-08
6.89406e-07
-6.70637e-08
6.99261e-07
-1.12697e-07
1.57229e-06
-1.66078e-07
1.6284e-06
-2.33039e-08
1.78616e-06
-2.58334e-08
1.73923e-06
-4.90472e-08
1.7374e-06
2.03697e-08
1.80581e-06
3.53399e-08
1.79383e-06
4.53063e-08
1.79749e-06
6.70238e-08
1.81984e-06
9.14793e-08
1.84568e-06
1.39829e-07
1.88263e-06
1.91972e-07
1.90436e-06
2.59015e-07
1.91965e-06
3.34652e-07
1.91624e-06
4.22126e-07
1.89159e-06
5.19063e-07
1.83368e-06
6.04916e-07
1.72536e-06
6.57449e-07
1.56879e-06
6.72356e-07
1.38836e-06
6.5475e-07
1.20803e-06
6.14621e-07
1.045e-06
5.61644e-07
9.07056e-07
5.02751e-07
7.94914e-07
4.42105e-07
7.05728e-07
3.81893e-07
6.35624e-07
3.23098e-07
5.80927e-07
2.66025e-07
5.38597e-07
2.10622e-07
5.06277e-07
1.56656e-07
4.82213e-07
1.03806e-07
4.65146e-07
5.17125e-08
4.54212e-07
4.48873e-07
-5.43887e-08
5.03262e-07
-1.09083e-07
5.08906e-07
-1.64372e-07
5.20435e-07
-2.20509e-07
5.3835e-07
-2.77671e-07
5.63439e-07
-3.35899e-07
5.96826e-07
-3.94988e-07
6.40016e-07
-4.54302e-07
6.94938e-07
-5.12489e-07
7.63916e-07
-5.67061e-07
8.49486e-07
-6.13903e-07
9.53898e-07
-6.4696e-07
1.07805e-06
-6.58724e-07
1.2198e-06
-6.42323e-07
1.37196e-06
-5.95126e-07
1.5216e-06
-5.22027e-07
1.65226e-06
-4.37711e-07
1.74936e-06
-3.56292e-07
1.81017e-06
-2.82605e-07
1.84255e-06
-2.17237e-07
1.85428e-06
-1.62853e-07
1.84997e-06
-1.1647e-07
1.83625e-06
-8.47988e-08
1.81401e-06
-5.94513e-08
1.79449e-06
-4.03601e-08
1.7784e-06
-1.71085e-08
1.77057e-06
2.39252e-08
1.76478e-06
2.91331e-08
1.73219e-06
4.60511e-08
1.72231e-06
1.13276e-07
1.71893e-06
9.91133e-08
1.64256e-06
7.41881e-08
1.59722e-06
6.89025e-08
7.04547e-07
5.6917e-08
7.01391e-07
4.1864e-08
7.00752e-07
3.30824e-08
7.03969e-07
3.30427e-08
7.09159e-07
1.1002e-08
-1.9677e-07
-2.81541e-07
-1.43783e-05
1.13269e-17
-3.12e-05
2.81541e-07
-3.12e-05
-1.1002e-08
-1.43783e-05
-3.30427e-08
-1.9677e-07
-3.30824e-08
7.09159e-07
-4.1864e-08
7.03969e-07
-5.6917e-08
7.00752e-07
-6.89025e-08
7.01391e-07
-7.41881e-08
7.04547e-07
-9.91133e-08
1.59722e-06
-1.13276e-07
1.64256e-06
-4.60511e-08
1.71893e-06
-2.91331e-08
1.72231e-06
-2.39252e-08
1.73219e-06
1.71085e-08
1.76478e-06
4.03601e-08
1.77057e-06
5.94513e-08
1.7784e-06
8.47988e-08
1.79449e-06
1.1647e-07
1.81401e-06
1.62853e-07
1.83625e-06
2.17237e-07
1.84997e-06
2.82605e-07
1.85428e-06
3.56292e-07
1.84255e-06
4.37711e-07
1.81017e-06
5.22027e-07
1.74936e-06
5.95126e-07
1.65226e-06
6.42323e-07
1.5216e-06
6.58724e-07
1.37196e-06
6.4696e-07
1.2198e-06
6.13903e-07
1.07805e-06
5.67061e-07
9.53898e-07
5.12489e-07
8.49486e-07
4.54302e-07
7.63916e-07
3.94988e-07
6.94938e-07
3.35899e-07
6.40016e-07
2.77671e-07
5.96826e-07
2.20509e-07
5.63439e-07
1.64372e-07
5.3835e-07
1.09083e-07
5.20435e-07
5.43887e-08
5.08906e-07
5.03262e-07
-5.66904e-08
5.59952e-07
-1.13589e-07
5.65804e-07
-1.70877e-07
5.77724e-07
-2.28681e-07
5.96154e-07
-2.8702e-07
6.21778e-07
-3.45736e-07
6.55542e-07
-4.04384e-07
6.98664e-07
-4.62058e-07
7.52613e-07
-5.17163e-07
8.19021e-07
-5.67123e-07
8.99446e-07
-6.08129e-07
9.94904e-07
-6.35148e-07
1.10507e-06
-6.4258e-07
1.22723e-06
-6.25913e-07
1.35529e-06
-5.84116e-07
1.4798e-06
-5.21568e-07
1.58971e-06
-4.4815e-07
1.67594e-06
-3.73782e-07
1.73581e-06
-3.03807e-07
1.77258e-06
-2.40535e-07
1.79101e-06
-1.85829e-07
1.79527e-06
-1.3943e-07
1.78985e-06
-1.03264e-07
1.77785e-06
-7.36609e-08
1.76489e-06
-4.83763e-08
1.75311e-06
-2.18095e-08
1.74401e-06
9.12434e-09
1.73384e-06
2.67634e-08
1.71455e-06
4.87364e-08
1.70034e-06
8.41269e-08
1.68354e-06
8.48948e-08
1.64179e-06
7.26521e-08
1.60946e-06
6.71819e-08
7.10017e-07
6.07282e-08
7.07845e-07
5.44727e-08
7.07008e-07
5.09149e-08
7.07527e-07
5.15564e-08
7.08518e-07
3.08066e-08
-1.7602e-07
-2.09977e-07
-1.41375e-05
3.49674e-18
-3.14099e-05
2.09977e-07
-3.14099e-05
-3.08066e-08
-1.41375e-05
-5.15564e-08
-1.7602e-07
-5.09149e-08
7.08518e-07
-5.44727e-08
7.07527e-07
-6.07282e-08
7.07008e-07
-6.71819e-08
7.07845e-07
-7.26521e-08
7.10017e-07
-8.48948e-08
1.60946e-06
-8.41269e-08
1.64179e-06
-4.87364e-08
1.68354e-06
-2.67634e-08
1.70034e-06
-9.12434e-09
1.71455e-06
2.18095e-08
1.73384e-06
4.83763e-08
1.74401e-06
7.36609e-08
1.75311e-06
1.03264e-07
1.76489e-06
1.3943e-07
1.77785e-06
1.85829e-07
1.78985e-06
2.40535e-07
1.79527e-06
3.03807e-07
1.79101e-06
3.73782e-07
1.77258e-06
4.4815e-07
1.73581e-06
5.21568e-07
1.67594e-06
5.84116e-07
1.58971e-06
6.25913e-07
1.4798e-06
6.4258e-07
1.35529e-06
6.35148e-07
1.22723e-06
6.08129e-07
1.10507e-06
5.67123e-07
9.94904e-07
5.17163e-07
8.99446e-07
4.62058e-07
8.19021e-07
4.04384e-07
7.52613e-07
3.45736e-07
6.98664e-07
2.8702e-07
6.55542e-07
2.28681e-07
6.21778e-07
1.70877e-07
5.96154e-07
1.13589e-07
5.77724e-07
5.66904e-08
5.65804e-07
5.59952e-07
-5.84817e-08