/*--------------------------------*- C++ -*----------------------------------*\
  =========                 |
  \\      /  F ield         | OpenFOAM: The Open Source CFD Toolbox
   \\    /   O peration     | Website:  https://openfoam.org
    \\  /    A nd           | Version:  10
     \\/     M anipulation  |
\*---------------------------------------------------------------------------*/
FoamFile
{
    format      ascii;
    class       surfaceScalarField;
    location    "0.102";
    object      phi;
}
// * * * * * * * * * * * * * * * * * * * * * * * * * * * * * * * * * * * * * //

dimensions      [0 3 -1 0 0 0 0];

internalField   nonuniform List<scalar> 
7780
(
2.50004e-09
-3.6787e-14
2.50015e-09
-1.10356e-13
2.50034e-09
-1.83962e-13
2.5006e-09
-2.57684e-13
2.50093e-09
-3.31569e-13
2.50134e-09
-4.05685e-13
2.50182e-09
-4.80078e-13
2.50238e-09
-5.54827e-13
2.50301e-09
-6.29994e-13
2.50372e-09
-7.05684e-13
2.5045e-09
-7.81981e-13
2.50536e-09
-8.59016e-13
2.5063e-09
-9.36888e-13
2.50732e-09
-1.01575e-12
2.50842e-09
-1.09572e-12
2.5096e-09
-1.17696e-12
2.51086e-09
-1.25962e-12
2.51221e-09
-1.34389e-12
2.51364e-09
-1.42993e-12
2.51516e-09
-1.51795e-12
2.51677e-09
-1.60815e-12
2.51847e-09
-1.70075e-12
2.52027e-09
-1.79597e-12
2.52217e-09
-1.89406e-12
2.52417e-09
-1.99525e-12
2.52627e-09
-2.0998e-12
2.52848e-09
-2.20795e-12
2.5308e-09
-2.32e-12
2.53324e-09
-2.4362e-12
2.5358e-09
-2.55685e-12
2.53848e-09
-2.68221e-12
2.5413e-09
-2.81261e-12
2.54425e-09
-2.94832e-12
2.54734e-09
-3.08967e-12
2.55058e-09
-3.23695e-12
2.55398e-09
-3.3905e-12
2.55753e-09
-3.55063e-12
2.56125e-09
-3.71767e-12
2.56514e-09
-3.89193e-12
2.56922e-09
-4.07378e-12
2.57349e-09
-4.26351e-12
2.57795e-09
-4.46148e-12
2.58262e-09
-4.668e-12
2.58751e-09
-4.88342e-12
2.59262e-09
-5.10804e-12
2.59796e-09
-5.3422e-12
2.60355e-09
-5.58619e-12
2.60939e-09
-5.84033e-12
2.6155e-09
-6.10487e-12
2.62188e-09
-6.38012e-12
2.62855e-09
-6.66628e-12
2.63552e-09
-6.9636e-12
2.64279e-09
-7.27223e-12
2.65039e-09
-7.59233e-12
2.65831e-09
-7.92398e-12
2.66658e-09
-8.26722e-12
2.67521e-09
-8.622e-12
2.6842e-09
-8.98823e-12
2.69357e-09
-9.36566e-12
2.70332e-09
-9.75402e-12
2.71348e-09
-1.01528e-11
2.72404e-09
-1.05615e-11
2.73502e-09
-1.09794e-11
2.74643e-09
-1.14055e-11
2.75827e-09
-1.18388e-11
2.77055e-09
-1.22779e-11
2.78328e-09
-1.27214e-11
2.79645e-09
-1.31675e-11
2.81006e-09
-1.36142e-11
2.82412e-09
-1.40592e-11
2.83863e-09
-1.45001e-11
2.85356e-09
-1.49341e-11
2.86892e-09
-1.53582e-11
2.88469e-09
-1.57694e-11
2.90086e-09
-1.61642e-11
2.9174e-09
-1.65393e-11
2.93429e-09
-1.68911e-11
2.95151e-09
-1.72161e-11
2.96902e-09
-1.75109e-11
2.9868e-09
-1.77722e-11
3.0048e-09
-1.79968e-11
3.02298e-09
-1.81822e-11
3.04131e-09
-1.83259e-11
3.05974e-09
-1.8426e-11
3.07822e-09
-1.84811e-11
3.09671e-09
-1.84905e-11
3.11517e-09
-1.84537e-11
3.13354e-09
-1.83712e-11
3.15178e-09
-1.82438e-11
3.16986e-09
-1.80728e-11
3.18772e-09
-1.78602e-11
3.20533e-09
-1.76082e-11
3.22265e-09
-1.73195e-11
3.23965e-09
-1.6997e-11
3.25629e-09
-1.66439e-11
3.27256e-09
-1.62634e-11
3.28842e-09
-1.58589e-11
3.30385e-09
-1.54338e-11
3.31884e-09
-1.49915e-11
3.33338e-09
-1.45352e-11
3.34745e-09
-1.40681e-11
3.36105e-09
-1.35932e-11
3.37416e-09
-1.31134e-11
3.38679e-09
-1.26312e-11
3.39894e-09
-1.21492e-11
3.41061e-09
-1.16696e-11
3.42181e-09
-1.11944e-11
3.43253e-09
-1.07254e-11
3.4428e-09
-1.02642e-11
3.45261e-09
-9.81217e-12
3.46198e-09
-9.37048e-12
3.47092e-09
-8.94014e-12
3.47945e-09
-8.52193e-12
3.48756e-09
-8.11651e-12
3.49529e-09
-7.72434e-12
3.50263e-09
-7.34582e-12
3.50962e-09
-6.98111e-12
3.51625e-09
-6.63039e-12
3.52254e-09
-6.29362e-12
3.52851e-09
-5.97079e-12
3.53417e-09
-5.66169e-12
3.53954e-09
-5.36618e-12
3.54462e-09
-5.08391e-12
3.54944e-09
-4.81465e-12
3.554e-09
-4.55796e-12
3.55831e-09
-4.31353e-12
3.56239e-09
-4.08087e-12
3.56625e-09
-3.85965e-12
3.5699e-09
-3.64932e-12
3.57335e-09
-3.44955e-12
3.57661e-09
-3.25979e-12
3.57969e-09
-3.07973e-12
3.5826e-09
-2.9088e-12
3.58535e-09
-2.74673e-12
3.58794e-09
-2.59296e-12
3.59039e-09
-2.44726e-12
3.5927e-09
-2.30906e-12
3.59488e-09
-2.17819e-12
3.59693e-09
-2.05409e-12
3.59887e-09
-1.93663e-12
3.6007e-09
-1.82526e-12
3.60242e-09
-1.71991e-12
3.60404e-09
-1.62005e-12
3.60556e-09
-1.52565e-12
3.607e-09
-1.43618e-12
3.60835e-09
-1.35168e-12
3.60962e-09
-1.27161e-12
3.61082e-09
-1.19607e-12
3.61194e-09
-1.12451e-12
3.613e-09
-1.05706e-12
3.61399e-09
-9.93144e-13
3.61493e-09
-9.32955e-13
3.6158e-09
-8.75883e-13
3.61663e-09
-8.22167e-13
3.61739e-09
-7.71167e-13
3.61812e-09
-7.23179e-13
3.61879e-09
-6.77525e-13
3.61943e-09
-6.34575e-13
3.62002e-09
-5.93605e-13
3.62058e-09
-5.5507e-13
3.62109e-09
-5.1819e-13
3.62158e-09
-4.83522e-13
3.62202e-09
-4.50213e-13
3.62244e-09
-4.18937e-13
3.62283e-09
-3.88759e-13
3.62319e-09
-3.60484e-13
3.62352e-09
-3.33081e-13
3.62383e-09
-3.07494e-13
3.62411e-09
-2.8259e-13
3.62437e-09
-2.59454e-13
3.6246e-09
-2.36835e-13
3.62481e-09
-2.15968e-13
3.62501e-09
-1.95466e-13
3.62518e-09
-1.76712e-13
3.62534e-09
-1.58168e-13
3.62548e-09
-1.4137e-13
3.6256e-09
-1.24613e-13
3.62571e-09
-1.09593e-13
3.6258e-09
-9.44273e-14
3.62588e-09
-8.0986e-14
3.62594e-09
-6.72086e-14
3.62599e-09
-5.51532e-14
3.62603e-09
-4.25845e-14
3.62606e-09
-3.17645e-14
3.62608e-09
-2.02962e-14
3.62609e-09
-1.06548e-14
3.62608e-09
-2.88006e-16
3.62607e-09
8.12201e-15
3.62605e-09
1.72762e-14
3.62602e-09
2.43028e-14
3.62599e-09
3.20599e-14
3.62595e-09
3.75012e-14
3.6259e-09
4.36519e-14
3.62584e-09
4.7282e-14
3.62579e-09
5.16358e-14
3.62572e-09
5.31078e-14
3.62566e-09
5.54012e-14
3.6256e-09
5.4794e-14
3.62554e-09
5.54708e-14
4.87313e-14
2.50004e-09
-7.34729e-14
2.50015e-09
-2.20371e-13
2.50034e-09
-3.67376e-13
2.5006e-09
-5.14596e-13
2.50093e-09
-6.6213e-13
2.50134e-09
-8.10087e-13
2.50182e-09
-9.58583e-13
2.50237e-09
-1.10776e-12
2.503e-09
-1.25776e-12
2.50371e-09
-1.40877e-12
2.50449e-09
-1.56096e-12
2.50535e-09
-1.71457e-12
2.50628e-09
-1.86982e-12
2.5073e-09
-2.02697e-12
2.50839e-09
-2.1863e-12
2.50956e-09
-2.34812e-12
2.51082e-09
-2.51275e-12
2.51216e-09
-2.68053e-12
2.51358e-09
-2.85185e-12
2.51509e-09
-3.02708e-12
2.5167e-09
-3.20664e-12
2.51839e-09
-3.39096e-12
2.52018e-09
-3.5805e-12
2.52206e-09
-3.77572e-12
2.52405e-09
-3.9771e-12
2.52613e-09
-4.18517e-12
2.52833e-09
-4.40043e-12
2.53063e-09
-4.62342e-12
2.53306e-09
-4.8547e-12
2.5356e-09
-5.09484e-12
2.53826e-09
-5.34439e-12
2.54106e-09
-5.60398e-12
2.54398e-09
-5.87419e-12
2.54705e-09
-6.15565e-12
2.55027e-09
-6.44897e-12
2.55364e-09
-6.75481e-12
2.55716e-09
-7.07379e-12
2.56085e-09
-7.40659e-12
2.56472e-09
-7.75384e-12
2.56876e-09
-8.11623e-12
2.573e-09
-8.49441e-12
2.57743e-09
-8.88906e-12
2.58206e-09
-9.30083e-12
2.58691e-09
-9.73041e-12
2.59198e-09
-1.01784e-11
2.59729e-09
-1.06455e-11
2.60284e-09
-1.11324e-11
2.60864e-09
-1.16396e-11
2.61471e-09
-1.21677e-11
2.62105e-09
-1.27172e-11
2.62767e-09
-1.32888e-11
2.63459e-09
-1.38827e-11
2.64182e-09
-1.44995e-11
2.64937e-09
-1.51395e-11
2.65725e-09
-1.58027e-11
2.66548e-09
-1.64894e-11
2.67406e-09
-1.71996e-11
2.68301e-09
-1.7933e-11
2.69233e-09
-1.86892e-11
2.70205e-09
-1.94678e-11
2.71217e-09
-2.02679e-11
2.7227e-09
-2.10884e-11
2.73365e-09
-2.19278e-11
2.74503e-09
-2.27846e-11
2.75685e-09
-2.36565e-11
2.76911e-09
-2.4541e-11
2.78183e-09
-2.54351e-11
2.795e-09
-2.63353e-11
2.80863e-09
-2.72377e-11
2.82271e-09
-2.81377e-11
2.83724e-09
-2.90304e-11
2.85222e-09
-2.99102e-11
2.86763e-09
-3.0771e-11
2.88347e-09
-3.16065e-11
2.89972e-09
-3.24098e-11
2.91636e-09
-3.31737e-11
2.93336e-09
-3.38911e-11
2.9507e-09
-3.45546e-11
2.96835e-09
-3.51569e-11
2.98627e-09
-3.56913e-11
3.00442e-09
-3.61513e-11
3.02277e-09
-3.65311e-11
3.04128e-09
-3.68258e-11
3.05988e-09
-3.70313e-11
3.07855e-09
-3.71448e-11
3.09722e-09
-3.71644e-11
3.11586e-09
-3.70897e-11
3.13441e-09
-3.69213e-11
3.15283e-09
-3.66611e-11
3.17107e-09
-3.63119e-11
3.18909e-09
-3.58779e-11
3.20685e-09
-3.53637e-11
3.2243e-09
-3.47749e-11
3.24143e-09
-3.41176e-11
3.25818e-09
-3.33984e-11
3.27454e-09
-3.26241e-11
3.29049e-09
-3.18017e-11
3.30599e-09
-3.09382e-11
3.32104e-09
-3.00405e-11
3.33563e-09
-2.91153e-11
3.34973e-09
-2.81692e-11
3.36334e-09
-2.72082e-11
3.37647e-09
-2.62381e-11
3.3891e-09
-2.52642e-11
3.40125e-09
-2.42914e-11
3.4129e-09
-2.33242e-11
3.42407e-09
-2.23666e-11
3.43477e-09
-2.14223e-11
3.445e-09
-2.04943e-11
3.45478e-09
-1.95853e-11
3.46411e-09
-1.86978e-11
3.473e-09
-1.78336e-11
3.48147e-09
-1.69943e-11
3.48954e-09
-1.61813e-11
3.49721e-09
-1.53953e-11
3.5045e-09
-1.46372e-11
3.51143e-09
-1.39072e-11
3.518e-09
-1.32056e-11
3.52424e-09
-1.25323e-11
3.53016e-09
-1.18872e-11
3.53577e-09
-1.12699e-11
3.54108e-09
-1.068e-11
3.54612e-09
-1.01167e-11
3.55088e-09
-9.57958e-12
3.55539e-09
-9.06772e-12
3.55966e-09
-8.5804e-12
3.5637e-09
-8.11672e-12
3.56751e-09
-7.67588e-12
3.57112e-09
-7.25691e-12
3.57453e-09
-6.85901e-12
3.57775e-09
-6.48119e-12
3.5808e-09
-6.12266e-12
3.58367e-09
-5.78245e-12
3.58638e-09
-5.45983e-12
3.58894e-09
-5.15387e-12
3.59136e-09
-4.86387e-12
3.59364e-09
-4.58897e-12
3.59579e-09
-4.32855e-12
3.59782e-09
-4.08176e-12
3.59973e-09
-3.84808e-12
3.60153e-09
-3.6267e-12
3.60323e-09
-3.41715e-12
3.60483e-09
-3.2187e-12
3.60634e-09
-3.03093e-12
3.60775e-09
-2.85315e-12
3.60909e-09
-2.68502e-12
3.61034e-09
-2.5259e-12
3.61152e-09
-2.37552e-12
3.61263e-09
-2.23326e-12
3.61367e-09
-2.09892e-12
3.61465e-09
-1.97188e-12
3.61557e-09
-1.85202e-12
3.61643e-09
-1.73867e-12
3.61724e-09
-1.63177e-12
3.618e-09
-1.53064e-12
3.61871e-09
-1.43524e-12
3.61938e-09
-1.34489e-12
3.62001e-09
-1.25957e-12
3.62059e-09
-1.17861e-12
3.62114e-09
-1.10205e-12
3.62165e-09
-1.02921e-12
3.62212e-09
-9.6021e-13
3.62256e-09
-8.94387e-13
3.62298e-09
-8.31946e-13
3.62336e-09
-7.72231e-13
3.62371e-09
-7.15549e-13
3.62404e-09
-6.6125e-13
3.62434e-09
-6.09739e-13
3.62461e-09
-5.60362e-13
3.62487e-09
-5.13611e-13
3.62509e-09
-4.68809e-13
3.6253e-09
-4.26521e-13
3.62549e-09
-3.86027e-13
3.62566e-09
-3.47941e-13
3.62581e-09
-3.11485e-13
3.62594e-09
-2.77305e-13
3.62606e-09
-2.44554e-13
3.62616e-09
-2.13906e-13
3.62625e-09
-1.84445e-13
3.62632e-09
-1.56886e-13
3.62638e-09
-1.30256e-13
3.62643e-09
-1.05336e-13
3.62647e-09
-8.11167e-14
3.62649e-09
-5.84787e-14
3.6265e-09
-3.6403e-14
3.6265e-09
-1.58924e-14
3.6265e-09
4.07207e-15
3.62648e-09
2.23543e-14
3.62645e-09
3.99752e-14
3.62642e-09
5.56755e-14
3.62638e-09
7.04925e-14
3.62633e-09
8.30727e-14
3.62627e-09
9.44935e-14
3.62621e-09
1.03345e-13
3.62614e-09
1.10769e-13
3.62607e-09
1.15298e-13
3.62599e-09
1.18248e-13
3.62592e-09
1.17746e-13
3.62586e-09
1.17685e-13
1.07301e-13
2.50004e-09
-1.10006e-13
2.50015e-09
-3.29883e-13
2.50033e-09
-5.49924e-13
2.50059e-09
-7.70254e-13
2.50092e-09
-9.91011e-13
2.50133e-09
-1.21234e-12
2.50181e-09
-1.43441e-12
2.50236e-09
-1.65742e-12
2.50299e-09
-1.88158e-12
2.50369e-09
-2.10714e-12
2.50446e-09
-2.33439e-12
2.50531e-09
-2.56364e-12
2.50624e-09
-2.79524e-12
2.50725e-09
-3.02958e-12
2.50833e-09
-3.26708e-12
2.50949e-09
-3.50819e-12
2.51074e-09
-3.75342e-12
2.51206e-09
-4.00327e-12
2.51347e-09
-4.25832e-12
2.51497e-09
-4.51914e-12
2.51655e-09
-4.78636e-12
2.51822e-09
-5.06063e-12
2.51999e-09
-5.34263e-12
2.52185e-09
-5.63307e-12
2.5238e-09
-5.93267e-12
2.52586e-09
-6.24221e-12
2.52803e-09
-6.56246e-12
2.5303e-09
-6.89424e-12
2.53269e-09
-7.23837e-12
2.53519e-09
-7.59571e-12
2.53782e-09
-7.96713e-12
2.54057e-09
-8.35352e-12
2.54345e-09
-8.7558e-12
2.54648e-09
-9.1749e-12
2.54964e-09
-9.61176e-12
2.55296e-09
-1.00673e-11
2.55643e-09
-1.05426e-11
2.56006e-09
-1.10386e-11
2.56387e-09
-1.15562e-11
2.56785e-09
-1.20965e-11
2.57202e-09
-1.26605e-11
2.57638e-09
-1.32492e-11
2.58095e-09
-1.38636e-11
2.58573e-09
-1.45048e-11
2.59072e-09
-1.51737e-11
2.59595e-09
-1.58713e-11
2.60142e-09
-1.65987e-11
2.60714e-09
-1.73566e-11
2.61312e-09
-1.81462e-11
2.61938e-09
-1.89681e-11
2.62591e-09
-1.98234e-11
2.63275e-09
-2.07126e-11
2.63988e-09
-2.16364e-11
2.64734e-09
-2.25954e-11
2.65513e-09
-2.359e-11
2.66327e-09
-2.46205e-11
2.67176e-09
-2.5687e-11
2.68062e-09
-2.67892e-11
2.68986e-09
-2.79268e-11
2.69949e-09
-2.90991e-11
2.70953e-09
-3.0305e-11
2.71999e-09
-3.15431e-11
2.73087e-09
-3.28115e-11
2.7422e-09
-3.41076e-11
2.75397e-09
-3.54286e-11
2.7662e-09
-3.67706e-11
2.7789e-09
-3.81295e-11
2.79207e-09
-3.95e-11
2.80571e-09
-4.08762e-11
2.81982e-09
-4.22515e-11
2.83441e-09
-4.36181e-11
2.84947e-09
-4.49677e-11
2.865e-09
-4.62909e-11
2.88097e-09
-4.75777e-11
2.89738e-09
-4.88175e-11
2.91421e-09
-4.9999e-11
2.93143e-09
-5.11105e-11
2.94902e-09
-5.21405e-11
2.96694e-09
-5.30773e-11
2.98516e-09
-5.39097e-11
3.00364e-09
-5.46274e-11
3.02233e-09
-5.52208e-11
3.04119e-09
-5.56818e-11
3.06016e-09
-5.60039e-11
3.0792e-09
-5.61824e-11
3.09825e-09
-5.62143e-11
3.11726e-09
-5.6099e-11
3.13618e-09
-5.58374e-11
3.15495e-09
-5.54329e-11
3.17353e-09
-5.48903e-11
3.19187e-09
-5.4216e-11
3.20993e-09
-5.3418e-11
3.22766e-09
-5.25053e-11
3.24503e-09
-5.14877e-11
3.26201e-09
-5.03759e-11
3.27857e-09
-4.91805e-11
3.29468e-09
-4.79128e-11
3.31033e-09
-4.65837e-11
3.32549e-09
-4.52041e-11
3.34016e-09
-4.37844e-11
3.35433e-09
-4.23348e-11
3.36799e-09
-4.08646e-11
3.38113e-09
-3.93827e-11
3.39377e-09
-3.78973e-11
3.40589e-09
-3.64157e-11
3.41751e-09
-3.49448e-11
3.42864e-09
-3.34905e-11
3.43927e-09
-3.20581e-11
3.44943e-09
-3.06523e-11
3.45913e-09
-2.92771e-11
3.46836e-09
-2.79358e-11
3.47716e-09
-2.66313e-11
3.48553e-09
-2.53658e-11
3.4935e-09
-2.4141e-11
3.50106e-09
-2.29584e-11
3.50824e-09
-2.18187e-11
3.51506e-09
-2.07225e-11
3.52152e-09
-1.96698e-11
3.52765e-09
-1.86607e-11
3.53346e-09
-1.76945e-11
3.53896e-09
-1.67707e-11
3.54417e-09
-1.58885e-11
3.5491e-09
-1.50469e-11
3.55377e-09
-1.42447e-11
3.55818e-09
-1.34807e-11
3.56235e-09
-1.27538e-11
3.5663e-09
-1.20624e-11
3.57003e-09
-1.14054e-11
3.57355e-09
-1.07812e-11
3.57688e-09
-1.01886e-11
3.58003e-09
-9.6262e-12
3.583e-09
-9.0926e-12
3.5858e-09
-8.58649e-12
3.58845e-09
-8.10659e-12
3.59095e-09
-7.65163e-12
3.59331e-09
-7.22041e-12
3.59553e-09
-6.81173e-12
3.59763e-09
-6.42453e-12
3.5996e-09
-6.05769e-12
3.60147e-09
-5.71024e-12
3.60322e-09
-5.38118e-12
3.60487e-09
-5.06965e-12
3.60643e-09
-4.77472e-12
3.6079e-09
-4.49562e-12
3.60927e-09
-4.2315e-12
3.61057e-09
-3.98167e-12
3.61179e-09
-3.74536e-12
3.61294e-09
-3.52193e-12
3.61401e-09
-3.3107e-12
3.61503e-09
-3.11112e-12
3.61598e-09
-2.92253e-12
3.61687e-09
-2.74445e-12
3.61771e-09
-2.57625e-12
3.61849e-09
-2.4175e-12
3.61923e-09
-2.26756e-12
3.61992e-09
-2.12602e-12
3.62057e-09
-1.99223e-12
3.62117e-09
-1.86581e-12
3.62174e-09
-1.7461e-12
3.62227e-09
-1.63275e-12
3.62276e-09
-1.52512e-12
3.62323e-09
-1.42295e-12
3.62366e-09
-1.32564e-12
3.62406e-09
-1.23302e-12
3.62442e-09
-1.14459e-12
3.62477e-09
-1.06026e-12
3.62508e-09
-9.79645e-13
3.62537e-09
-9.0276e-13
3.62564e-09
-8.29286e-13
3.62588e-09
-7.59327e-13
3.62611e-09
-6.92598e-13
3.62631e-09
-6.29251e-13
3.62649e-09
-5.68997e-13
3.62665e-09
-5.11988e-13
3.62679e-09
-4.57901e-13
3.62692e-09
-4.06843e-13
3.62703e-09
-3.58446e-13
3.62712e-09
-3.12753e-13
3.62721e-09
-2.69365e-13
3.62728e-09
-2.28267e-13
3.62733e-09
-1.89075e-13
3.62737e-09
-1.5175e-13
3.62741e-09
-1.1598e-13
3.62743e-09
-8.17524e-14
3.62744e-09
-4.88859e-14
3.62743e-09
-1.74432e-14
3.62742e-09
1.26047e-14
3.6274e-09
4.10937e-14
3.62737e-09
6.79086e-14
3.62732e-09
9.27894e-14
3.62728e-09
1.15525e-13
3.62722e-09
1.358e-13
3.62716e-09
1.53363e-13
3.62708e-09
1.67894e-13
3.62701e-09
1.79148e-13
3.62692e-09
1.86798e-13
3.62684e-09
1.90847e-13
3.62676e-09
1.90096e-13
3.62669e-09
1.89149e-13
1.71093e-13
2.50004e-09
-1.46285e-13
2.50015e-09
-4.38704e-13
2.50033e-09
-7.3131e-13
2.50059e-09
-1.02424e-12
2.50092e-09
-1.31764e-12
2.50132e-09
-1.61168e-12
2.50179e-09
-1.90656e-12
2.50234e-09
-2.20253e-12
2.50296e-09
-2.49985e-12
2.50366e-09
-2.79885e-12
2.50442e-09
-3.0999e-12
2.50527e-09
-3.40341e-12
2.50618e-09
-3.70985e-12
2.50718e-09
-4.01973e-12
2.50825e-09
-4.3336e-12
2.50939e-09
-4.65209e-12
2.51062e-09
-4.97584e-12
2.51192e-09
-5.30557e-12
2.51331e-09
-5.64201e-12
2.51478e-09
-5.98597e-12
2.51633e-09
-6.33827e-12
2.51798e-09
-6.69979e-12
2.51971e-09
-7.07145e-12
2.52153e-09
-7.45419e-12
2.52345e-09
-7.84899e-12
2.52547e-09
-8.25689e-12
2.52759e-09
-8.67893e-12
2.52981e-09
-9.1162e-12
2.53214e-09
-9.56981e-12
2.53459e-09
-1.00409e-11
2.53716e-09
-1.05307e-11
2.53985e-09
-1.10403e-11
2.54267e-09
-1.1571e-11
2.54562e-09
-1.2124e-11
2.54871e-09
-1.27006e-11
2.55195e-09
-1.33021e-11
2.55534e-09
-1.39298e-11
2.55889e-09
-1.4585e-11
2.5626e-09
-1.5269e-11
2.56649e-09
-1.59833e-11
2.57056e-09
-1.67292e-11
2.57482e-09
-1.7508e-11
2.57928e-09
-1.83211e-11
2.58395e-09
-1.917e-11
2.58884e-09
-2.00559e-11
2.59395e-09
-2.09803e-11
2.5993e-09
-2.19444e-11
2.60489e-09
-2.29497e-11
2.61075e-09
-2.39974e-11
2.61687e-09
-2.50887e-11
2.62327e-09
-2.62248e-11
2.62997e-09
-2.74068e-11
2.63697e-09
-2.86357e-11
2.64429e-09
-2.99124e-11
2.65194e-09
-3.12376e-11
2.65994e-09
-3.26119e-11
2.66829e-09
-3.40355e-11
2.67701e-09
-3.55085e-11
2.68612e-09
-3.70307e-11
2.69562e-09
-3.86013e-11
2.70554e-09
-4.02193e-11
2.71588e-09
-4.18832e-11
2.72666e-09
-4.35906e-11
2.7379e-09
-4.53386e-11
2.74959e-09
-4.71237e-11
2.76177e-09
-4.89412e-11
2.77442e-09
-5.07856e-11
2.78758e-09
-5.26504e-11
2.80123e-09
-5.45278e-11
2.81539e-09
-5.64089e-11
2.83006e-09
-5.82834e-11
2.84523e-09
-6.01398e-11
2.86091e-09
-6.19653e-11
2.87708e-09
-6.37459e-11
2.89373e-09
-6.54665e-11
2.91084e-09
-6.71109e-11
2.9284e-09
-6.86625e-11
2.94636e-09
-7.01041e-11
2.96471e-09
-7.14187e-11
2.98339e-09
-7.25896e-11
3.00236e-09
-7.36013e-11
3.02158e-09
-7.44395e-11
3.041e-09
-7.50919e-11
3.06054e-09
-7.55488e-11
3.08016e-09
-7.5803e-11
3.0998e-09
-7.58503e-11
3.11939e-09
-7.56897e-11
3.13888e-09
-7.5323e-11
3.15821e-09
-7.47552e-11
3.17731e-09
-7.39939e-11
3.19615e-09
-7.30488e-11
3.21466e-09
-7.19319e-11
3.23281e-09
-7.06567e-11
3.25057e-09
-6.92378e-11
3.26788e-09
-6.76906e-11
3.28473e-09
-6.60309e-11
3.3011e-09
-6.42746e-11
3.31695e-09
-6.24374e-11
3.33228e-09
-6.05346e-11
3.34708e-09
-5.85809e-11
3.36134e-09
-5.65903e-11
3.37505e-09
-5.45758e-11
3.38822e-09
-5.25496e-11
3.40084e-09
-5.05226e-11
3.41293e-09
-4.85051e-11
3.4245e-09
-4.65059e-11
3.43554e-09
-4.45332e-11
3.44608e-09
-4.25939e-11
3.45612e-09
-4.06941e-11
3.46568e-09
-3.88388e-11
3.47478e-09
-3.70323e-11
3.48343e-09
-3.52783e-11
3.49164e-09
-3.35793e-11
3.49944e-09
-3.19376e-11
3.50683e-09
-3.03545e-11
3.51385e-09
-2.8831e-11
3.52049e-09
-2.73676e-11
3.52679e-09
-2.59642e-11
3.53275e-09
-2.46204e-11
3.53839e-09
-2.33353e-11
3.54373e-09
-2.21081e-11
3.54878e-09
-2.09373e-11
3.55355e-09
-1.98214e-11
3.55807e-09
-1.87588e-11
3.56233e-09
-1.77477e-11
3.56637e-09
-1.67863e-11
3.57018e-09
-1.58726e-11
3.57378e-09
-1.50047e-11
3.57718e-09
-1.41808e-11
3.58039e-09
-1.33988e-11
3.58342e-09
-1.2657e-11
3.58628e-09
-1.19535e-11
3.58898e-09
-1.12865e-11
3.59153e-09
-1.06543e-11
3.59393e-09
-1.00551e-11
3.5962e-09
-9.48732e-12
3.59834e-09
-8.9494e-12
3.60036e-09
-8.4398e-12
3.60225e-09
-7.95706e-12
3.60405e-09
-7.49982e-12
3.60573e-09
-7.06676e-12
3.60732e-09
-6.65669e-12
3.60881e-09
-6.26845e-12
3.61022e-09
-5.901e-12
3.61154e-09
-5.55329e-12
3.61279e-09
-5.22444e-12
3.61395e-09
-4.91347e-12
3.61505e-09
-4.61959e-12
3.61608e-09
-4.34189e-12
3.61705e-09
-4.07963e-12
3.61796e-09
-3.83194e-12
3.61882e-09
-3.59816e-12
3.61962e-09
-3.37746e-12
3.62037e-09
-3.16921e-12
3.62107e-09
-2.97261e-12
3.62174e-09
-2.78707e-12
3.62235e-09
-2.61177e-12
3.62293e-09
-2.44614e-12
3.62348e-09
-2.28937e-12
3.62398e-09
-2.14093e-12
3.62446e-09
-2.00002e-12
3.6249e-09
-1.86616e-12
3.62531e-09
-1.73864e-12
3.62569e-09
-1.61707e-12
3.62604e-09
-1.50091e-12
3.62637e-09
-1.38988e-12
3.62667e-09
-1.28361e-12
3.62695e-09
-1.18198e-12
3.6272e-09
-1.08477e-12
3.62743e-09
-9.91986e-13
3.62764e-09
-9.03503e-13
3.62783e-09
-8.194e-13
3.62799e-09
-7.39543e-13
3.62814e-09
-6.64019e-13
3.62827e-09
-5.92598e-13
3.62839e-09
-5.25308e-13
3.62849e-09
-4.61781e-13
3.62858e-09
-4.01941e-13
3.62865e-09
-3.45309e-13
3.62871e-09
-2.91709e-13
3.62876e-09
-2.40638e-13
3.62879e-09
-1.91872e-13
3.62882e-09
-1.45011e-13
3.62883e-09
-9.98584e-14
3.62884e-09
-5.62467e-14
3.62883e-09
-1.40706e-14
3.62881e-09
2.65316e-14
3.62878e-09
6.55424e-14
3.62874e-09
1.02511e-13
3.62869e-09
1.37326e-13
3.62864e-09
1.69286e-13
3.62857e-09
1.98259e-13
3.6285e-09
2.23395e-13
3.62841e-09
2.44641e-13
3.62832e-09
2.61106e-13
3.62822e-09
2.72763e-13
3.62812e-09
2.79045e-13
3.62803e-09
2.78438e-13
3.62794e-09
2.76153e-13
2.48513e-13
2.50004e-09
-1.82307e-13
2.50015e-09
-5.46789e-13
2.50033e-09
-9.11442e-13
2.50058e-09
-1.27637e-12
2.50091e-09
-1.64173e-12
2.50131e-09
-2.00767e-12
2.50178e-09
-2.37443e-12
2.50232e-09
-2.74225e-12
2.50294e-09
-3.11147e-12
2.50362e-09
-3.48247e-12
2.50438e-09
-3.85569e-12
2.50521e-09
-4.23164e-12
2.50612e-09
-4.61089e-12
2.50709e-09
-4.9941e-12
2.50814e-09
-5.38195e-12
2.50927e-09
-5.77523e-12
2.51047e-09
-6.17475e-12
2.51175e-09
-6.58141e-12
2.51311e-09
-6.99615e-12
2.51454e-09
-7.41998e-12
2.51606e-09
-7.85393e-12
2.51766e-09
-8.29912e-12
2.51935e-09
-8.7567e-12
2.52113e-09
-9.22787e-12
2.52299e-09
-9.71386e-12
2.52496e-09
-1.0216e-11
2.52702e-09
-1.07355e-11
2.52918e-09
-1.12739e-11
2.53144e-09
-1.18325e-11
2.53382e-09
-1.24127e-11
2.5363e-09
-1.30161e-11
2.53891e-09
-1.36441e-11
2.54164e-09
-1.42983e-11
2.5445e-09
-1.49802e-11
2.54749e-09
-1.56915e-11
2.55063e-09
-1.64337e-11
2.55391e-09
-1.72085e-11
2.55734e-09
-1.80177e-11
2.56094e-09
-1.88628e-11
2.56471e-09
-1.97457e-11
2.56865e-09
-2.0668e-11
2.57277e-09
-2.16315e-11
2.57709e-09
-2.26379e-11
2.58162e-09
-2.3689e-11
2.58635e-09
-2.47867e-11
2.5913e-09
-2.59325e-11
2.59649e-09
-2.71284e-11
2.60192e-09
-2.8376e-11
2.6076e-09
-2.9677e-11
2.61355e-09
-3.10331e-11
2.61977e-09
-3.24459e-11
2.62629e-09
-3.3917e-11
2.6331e-09
-3.54477e-11
2.64023e-09
-3.70395e-11
2.64769e-09
-3.86934e-11
2.65549e-09
-4.04105e-11
2.66365e-09
-4.21915e-11
2.67218e-09
-4.40368e-11
2.6811e-09
-4.59466e-11
2.69042e-09
-4.79205e-11
2.70016e-09
-4.99577e-11
2.71034e-09
-5.20567e-11
2.72096e-09
-5.42154e-11
2.73206e-09
-5.64307e-11
2.74363e-09
-5.86988e-11
2.75571e-09
-6.10145e-11
2.7683e-09
-6.33716e-11
2.78141e-09
-6.57622e-11
2.79506e-09
-6.81771e-11
2.80926e-09
-7.06053e-11
2.82401e-09
-7.3034e-11
2.83933e-09
-7.54486e-11
2.85519e-09
-7.78323e-11
2.87162e-09
-8.01667e-11
2.88858e-09
-8.24315e-11
2.90608e-09
-8.46047e-11
2.92408e-09
-8.66632e-11
2.94256e-09
-8.85829e-11
2.96149e-09
-9.03397e-11
2.98081e-09
-9.19095e-11
3.00048e-09
-9.32697e-11
3.02044e-09
-9.43996e-11
3.04063e-09
-9.52812e-11
3.06099e-09
-9.58999e-11
3.08143e-09
-9.62455e-11
3.10189e-09
-9.63121e-11
3.1223e-09
-9.60983e-11
3.14259e-09
-9.56076e-11
3.16268e-09
-9.48475e-11
3.18252e-09
-9.38292e-11
3.20204e-09
-9.25676e-11
3.22119e-09
-9.10798e-11
3.23992e-09
-8.93853e-11
3.25819e-09
-8.7505e-11
3.27596e-09
-8.54604e-11
3.2932e-09
-8.32738e-11
3.3099e-09
-8.09669e-11
3.32602e-09
-7.85612e-11
3.34157e-09
-7.60773e-11
3.35652e-09
-7.35347e-11
3.37088e-09
-7.09515e-11
3.38465e-09
-6.83449e-11
3.39783e-09
-6.57304e-11
3.41044e-09
-6.3122e-11
3.42246e-09
-6.05325e-11
3.43393e-09
-5.79732e-11
3.44485e-09
-5.54539e-11
3.45524e-09
-5.29831e-11
3.46512e-09
-5.05682e-11
3.4745e-09
-4.82153e-11
3.48339e-09
-4.59293e-11
3.49183e-09
-4.37142e-11
3.49982e-09
-4.15731e-11
3.5074e-09
-3.95081e-11
3.51456e-09
-3.75206e-11
3.52134e-09
-3.56114e-11
3.52776e-09
-3.37806e-11
3.53382e-09
-3.20277e-11
3.53955e-09
-3.03519e-11
3.54497e-09
-2.87518e-11
3.55009e-09
-2.72258e-11
3.55493e-09
-2.57719e-11
3.55949e-09
-2.4388e-11
3.56381e-09
-2.30716e-11
3.56788e-09
-2.18204e-11
3.57173e-09
-2.06318e-11
3.57536e-09
-1.95032e-11
3.57878e-09
-1.84321e-11
3.58202e-09
-1.74158e-11
3.58507e-09
-1.64519e-11
3.58795e-09
-1.5538e-11
3.59067e-09
-1.46716e-11
3.59324e-09
-1.38504e-11
3.59566e-09
-1.30723e-11
3.59794e-09
-1.2335e-11
3.60009e-09
-1.16366e-11
3.60211e-09
-1.09751e-11
3.60402e-09
-1.03486e-11
3.60582e-09
-9.75531e-12
3.60752e-09
-9.19343e-12
3.60911e-09
-8.66134e-12
3.61061e-09
-8.15746e-12
3.61202e-09
-7.68036e-12
3.61335e-09
-7.22866e-12
3.6146e-09
-6.80114e-12
3.61578e-09
-6.39668e-12
3.61688e-09
-6.0142e-12
3.61791e-09
-5.65277e-12
3.61888e-09
-5.31137e-12
3.61979e-09
-4.9892e-12
3.62064e-09
-4.68523e-12
3.62145e-09
-4.39868e-12
3.6222e-09
-4.12849e-12
3.6229e-09
-3.87388e-12
3.62356e-09
-3.6338e-12
3.62418e-09
-3.40744e-12
3.62476e-09
-3.19376e-12
3.62531e-09
-2.99197e-12
3.62582e-09
-2.80102e-12
3.6263e-09
-2.62019e-12
3.62674e-09
-2.44843e-12
3.62716e-09
-2.28512e-12
3.62755e-09
-2.12932e-12
3.62791e-09
-1.98054e-12
3.62824e-09
-1.83803e-12
3.62855e-09
-1.70148e-12
3.62884e-09
-1.57041e-12
3.62909e-09
-1.44471e-12
3.62933e-09
-1.32417e-12
3.62954e-09
-1.20885e-12
3.62974e-09
-1.09873e-12
3.62991e-09
-9.9397e-13
3.63006e-09
-8.94583e-13
3.63019e-09
-8.00726e-13
3.63031e-09
-7.12272e-13
3.63041e-09
-6.29249e-13
3.63049e-09
-5.51284e-13
3.63057e-09
-4.78196e-13
3.63063e-09
-4.09368e-13
3.63068e-09
-3.44424e-13
3.63072e-09
-2.82631e-13
3.63074e-09
-2.23521e-13
3.63076e-09
-1.6647e-13
3.63077e-09
-1.11073e-13
3.63076e-09
-5.70356e-14
3.63075e-09
-4.14303e-15
3.63072e-09
4.743e-14
3.63068e-09
9.76506e-14
3.63064e-09
1.45863e-13
3.63058e-09
1.91828e-13
3.63051e-09
2.34522e-13
3.63043e-09
2.73624e-13
3.63034e-09
3.07933e-13
3.63023e-09
3.37217e-13
3.63013e-09
3.60291e-13
3.63001e-09
3.77129e-13
3.62989e-09
3.87222e-13
3.62977e-09
3.89277e-13
3.62965e-09
3.91564e-13
3.65946e-13
2.50004e-09
-2.181e-13
2.50015e-09
-6.54237e-13
2.50033e-09
-1.09047e-12
2.50058e-09
-1.52685e-12
2.50091e-09
-1.96347e-12
2.5013e-09
-2.40046e-12
2.50177e-09
-2.83803e-12
2.5023e-09
-3.27644e-12
2.50291e-09
-3.71606e-12
2.50359e-09
-4.1573e-12
2.50434e-09
-4.60069e-12
2.50515e-09
-5.04682e-12
2.50604e-09
-5.49637e-12
2.507e-09
-5.95011e-12
2.50803e-09
-6.40891e-12
2.50913e-09
-6.87368e-12
2.5103e-09
-7.34545e-12
2.51155e-09
-7.82528e-12
2.51287e-09
-8.31434e-12
2.51427e-09
-8.81384e-12
2.51574e-09
-9.32507e-12
2.51729e-09
-9.84935e-12
2.51893e-09
-1.03881e-11
2.52065e-09
-1.09428e-11
2.52245e-09
-1.15149e-11
2.52434e-09
-1.21059e-11
2.52633e-09
-1.27176e-11
2.52841e-09
-1.33515e-11
2.53059e-09
-1.40094e-11
2.53287e-09
-1.46929e-11
2.53526e-09
-1.54039e-11
2.53776e-09
-1.61443e-11
2.54038e-09
-1.69158e-11
2.54313e-09
-1.77203e-11
2.546e-09
-1.85598e-11
2.549e-09
-1.94363e-11
2.55215e-09
-2.03518e-11
2.55544e-09
-2.13083e-11
2.55889e-09
-2.23078e-11
2.5625e-09
-2.33525e-11
2.56628e-09
-2.44444e-11
2.57024e-09
-2.55857e-11
2.57438e-09
-2.67785e-11
2.57872e-09
-2.80251e-11
2.58326e-09
-2.93276e-11
2.58802e-09
-3.06881e-11
2.593e-09
-3.21089e-11
2.59822e-09
-3.35922e-11
2.60369e-09
-3.51402e-11
2.60941e-09
-3.67549e-11
2.61541e-09
-3.84385e-11
2.62169e-09
-4.01932e-11
2.62826e-09
-4.20208e-11
2.63515e-09
-4.39233e-11
2.64236e-09
-4.59025e-11
2.64991e-09
-4.79599e-11
2.65782e-09
-5.00969e-11
2.6661e-09
-5.23147e-11
2.67477e-09
-5.4614e-11
2.68385e-09
-5.69952e-11
2.69335e-09
-5.9458e-11
2.7033e-09
-6.20016e-11
2.71371e-09
-6.46244e-11
2.7246e-09
-6.73238e-11
2.736e-09
-7.00962e-11
2.74793e-09
-7.29364e-11
2.7604e-09
-7.58379e-11
2.77343e-09
-7.87925e-11
2.78704e-09
-8.17897e-11
2.80126e-09
-8.4817e-11
2.81608e-09
-8.78593e-11
2.83154e-09
-9.08987e-11
2.84762e-09
-9.39147e-11
2.86434e-09
-9.68837e-11
2.88169e-09
-9.97793e-11
2.89966e-09
-1.02572e-10
2.91823e-09
-1.05232e-10
2.93737e-09
-1.07724e-10
2.95705e-09
-1.10015e-10
2.97721e-09
-1.12071e-10
2.9978e-09
-1.13859e-10
3.01876e-09
-1.15349e-10
3.03999e-09
-1.16514e-10
3.06143e-09
-1.17333e-10
3.08297e-09
-1.17793e-10
3.10455e-09
-1.17883e-10
3.12605e-09
-1.17604e-10
3.14741e-09
-1.1696e-10
3.16853e-09
-1.15964e-10
3.18933e-09
-1.14633e-10
3.20975e-09
-1.12988e-10
3.22973e-09
-1.11055e-10
3.24921e-09
-1.08862e-10
3.26814e-09
-1.06437e-10
3.28649e-09
-1.0381e-10
3.30423e-09
-1.01012e-10
3.32134e-09
-9.80717e-11
3.3378e-09
-9.50173e-11
3.35359e-09
-9.18758e-11
3.36873e-09
-8.86721e-11
3.38321e-09
-8.54296e-11
3.39704e-09
-8.21694e-11
3.41022e-09
-7.89106e-11
3.42277e-09
-7.56705e-11
3.4347e-09
-7.24641e-11
3.44603e-09
-6.93049e-11
3.45679e-09
-6.62044e-11
3.46698e-09
-6.31723e-11
3.47663e-09
-6.02171e-11
3.48576e-09
-5.73454e-11
3.49439e-09
-5.45627e-11
3.50255e-09
-5.18731e-11
3.51026e-09
-4.92796e-11
3.51753e-09
-4.67843e-11
3.5244e-09
-4.43882e-11
3.53088e-09
-4.20916e-11
3.537e-09
-3.9894e-11
3.54277e-09
-3.77943e-11
3.5482e-09
-3.57908e-11
3.55334e-09
-3.38814e-11
3.55817e-09
-3.20635e-11
3.56274e-09
-3.03343e-11
3.56704e-09
-2.86907e-11
3.5711e-09
-2.71296e-11
3.57493e-09
-2.56474e-11
3.57854e-09
-2.4241e-11
3.58194e-09
-2.29069e-11
3.58515e-09
-2.16419e-11
3.58818e-09
-2.04427e-11
3.59103e-09
-1.93062e-11
3.59373e-09
-1.82293e-11
3.59626e-09
-1.72091e-11
3.59866e-09
-1.62427e-11
3.60091e-09
-1.53272e-11
3.60304e-09
-1.44601e-11
3.60504e-09
-1.36388e-11
3.60693e-09
-1.2861e-11
3.6087e-09
-1.21244e-11
3.61038e-09
-1.14268e-11
3.61195e-09
-1.07663e-11
3.61343e-09
-1.01408e-11
3.61482e-09
-9.54863e-12
3.61613e-09
-8.98796e-12
3.61736e-09
-8.45719e-12
3.61851e-09
-7.95479e-12
3.6196e-09
-7.47936e-12
3.62061e-09
-7.02965e-12
3.62157e-09
-6.60455e-12
3.62246e-09
-6.20301e-12
3.6233e-09
-5.82415e-12
3.62408e-09
-5.46696e-12
3.62481e-09
-5.13063e-12
3.6255e-09
-4.81406e-12
3.62614e-09
-4.51638e-12
3.62674e-09
-4.23632e-12
3.62731e-09
-3.97289e-12
3.62784e-09
-3.72471e-12
3.62834e-09
-3.49071e-12
3.6288e-09
-3.26949e-12
3.62924e-09
-3.05997e-12
3.62965e-09
-2.86082e-12
3.63003e-09
-2.67109e-12
3.63039e-09
-2.4896e-12
3.63072e-09
-2.3157e-12
3.63103e-09
-2.14844e-12
3.63131e-09
-1.98756e-12
3.63157e-09
-1.83241e-12
3.6318e-09
-1.68313e-12
3.63201e-09
-1.53941e-12
3.6322e-09
-1.40169e-12
3.63237e-09
-1.26992e-12
3.63251e-09
-1.14469e-12
3.63264e-09
-1.02602e-12
3.63275e-09
-9.14407e-13
3.63284e-09
-8.09739e-13
3.63292e-09
-7.12208e-13
3.63299e-09
-6.21333e-13
3.63304e-09
-5.36861e-13
3.63309e-09
-4.579e-13
3.63312e-09
-3.83769e-13
3.63315e-09
-3.13339e-13
3.63317e-09
-2.45708e-13
3.63318e-09
-1.79873e-13
3.63317e-09
-1.15025e-13
3.63316e-09
-5.06826e-14
3.63314e-09
1.35946e-14
3.6331e-09
7.75219e-14
3.63305e-09
1.41065e-13
3.63299e-09