/*--------------------------------*- C++ -*----------------------------------*\
  =========                 |
  \\      /  F ield         | OpenFOAM: The Open Source CFD Toolbox
   \\    /   O peration     | Website:  https://openfoam.org
    \\  /    A nd           | Version:  10
     \\/     M anipulation  |
\*---------------------------------------------------------------------------*/
FoamFile
{
    format      ascii;
    class       volScalarField;
    location    "17000";
    object      p;
}
// * * * * * * * * * * * * * * * * * * * * * * * * * * * * * * * * * * * * * //

dimensions      [1 -1 -2 0 0 0 0];

internalField   nonuniform List<scalar> 
3200
(
109.949
109.974
110.025
110.1
110.2
110.327
110.481
110.666
110.886
111.147
111.46
111.84
112.31
112.914
113.721
114.861
135.592
364.306
568.562
758.99
939.557
1112.33
1278.6
1439.23
1594.84
1745.92
1892.84
2035.9
2175.35
2311.41
2444.25
2574.04
2694.72
2806.1
2909.15
3003.97
3089.66
3163.95
3222.75
3259.28
107.442
107.467
107.515
107.586
107.68
107.798
107.941
108.11
108.306
108.532
108.791
109.082
109.404
109.745
110.07
110.288
110.185
109.817
109.568
109.404
109.303
109.252
109.244
109.278
109.354
109.475
109.649
109.891
110.222
110.681
111.655
209.577
309.385
410.354
512.901
617.536
725.571
839.366
962.492
1079.04
104.884
104.906
104.95
105.014
105.099
105.203
105.327
105.471
105.633
105.813
106.008
106.213
106.42
106.612
106.767
106.856
106.851
106.776
106.692
106.621
106.574
106.551
106.554
106.582
106.633
106.705
106.794
106.893
106.984
107.039
106.997
106.815
106.668
106.566
106.499
106.462
106.453
106.471
107.488
137.769
102.279
102.299
102.337
102.393
102.465
102.554
102.657
102.775
102.904
103.042
103.186
103.33
103.468
103.59
103.687
103.751
103.779
103.779
103.765
103.75
103.74
103.74
103.75
103.772
103.803
103.842
103.883
103.921
103.949
103.958
103.94
103.9
103.854
103.814
103.784
103.764
103.754
103.753
103.764
105.223
99.6337
99.6503
99.6825
99.7294
99.7899
99.8629
99.947
100.041
100.141
100.247
100.354
100.459
100.557
100.644
100.717
100.771
100.809
100.833
100.847
100.857
100.867
100.879
100.895
100.914
100.936
100.96
100.984
101.004
101.019
101.027
101.027
101.021
101.012
101.003
100.996
100.993
100.994
100.998
101.015
101.919
96.9531
96.9669
96.9936
97.0322
97.0818
97.1409
97.2083
97.2823
97.361
97.4423
97.5237
97.6028
97.677
97.7439
97.8019
97.8502
97.889
97.9197
97.9444
97.9652
97.9841
98.0024
98.021
98.0401
98.0597
98.0793
98.098
98.1152
98.1301
98.1425
98.1525
98.1608
98.1683
98.1762
98.1849
98.195
98.2062
98.2181
98.2476
99.1116
94.2436
94.2548
94.2766
94.308
94.3481
94.3956
94.4493
94.5078
94.5696
94.6329
94.6962
94.7576
94.8158
94.8694
94.9175
94.9597
94.9964
95.0279
95.0553
95.0797
95.1019
95.1228
95.1428
95.1624
95.1816
95.2004
95.2188
95.2365
95.2537
95.2705
95.2873
95.3044
95.3225
95.3421
95.3636
95.3873
95.4127
95.4391
95.5069
96.3309
91.5103
91.5194
91.537
91.5624
91.5945
91.6326
91.6754
91.7218
91.7706
91.8206
91.8706
91.9194
91.9661
92.0099
92.0503
92.087
92.1201
92.1499
92.1767
92.2012
92.2239
92.2451
92.2653
92.2848
92.3038
92.3224
92.3408
92.3592
92.378
92.3973
92.4178
92.4399
92.4646
92.4925
92.525
92.5631
92.6087
92.6639
92.8851
93.5872
88.7577
88.7651
88.7793
88.7997
88.8255
88.8559
88.89
88.927
88.9659
89.0058
89.0458
89.0851
89.1232
89.1593
89.1933
89.2248
89.254
89.2809
89.3057
89.3287
89.3502
89.3704
89.3896
89.408
89.426
89.4436
89.461
89.4787
89.4967
89.5155
89.5356
89.5575
89.5818
89.6095
89.6417
89.6799
89.7261
89.7832
90.1961
90.7779
85.9897
85.9956
86.007
86.0234
86.0441
86.0684
86.0958
86.1254
86.1566
86.1886
86.2209
86.2529
86.284
86.3139
86.3424
86.3693
86.3946
86.4181
86.4402
86.4608
86.4802
86.4984
86.5157
86.5323
86.5483
86.5637
86.5789
86.594
86.6091
86.6245
86.6403
86.6568
86.6742
86.6926
86.7123
86.7332
86.7551
86.7776
86.9598
87.6667
83.2092
83.214
83.2231
83.2363
83.2529
83.2724
83.2944
83.3182
83.3433
83.3691
83.3953
83.4213
83.4469
83.4717
83.4954
83.5181
83.5395
83.5598
83.5788
83.5966
83.6134
83.6292
83.644
83.6581
83.6714
83.6841
83.6961
83.7076
83.7187
83.7292
83.7392
83.7487
83.7574
83.7652
83.7716
83.776
83.7776
83.7751
83.767
84.4201
80.4188
80.4226
80.4299
80.4405
80.4538
80.4695
80.4871
80.5063
80.5265
80.5474
80.5687
80.5899
80.6108
80.6312
80.6509
80.6698
80.6877
80.7047
80.7206
80.7356
80.7496
80.7627
80.7749
80.7862
80.7966
80.8062
80.815
80.8229
80.8298
80.8358
80.8406
80.8442
80.8461
80.8462
80.844
80.8389
80.8303
80.8172
80.7988
80.9712
77.6203
77.6233
77.6292
77.6377
77.6484
77.661
77.6752
77.6906
77.7069
77.7238
77.741
77.7582
77.7753
77.7919
77.8081
77.8235
77.8383
77.8522
77.8653
77.8775
77.8888
77.8993
77.9088
77.9174
77.9251
77.9319
77.9377
77.9424
77.946
77.9484
77.9495
77.9491
77.947
77.943
77.9369
77.9284
77.9172
77.9031
77.8859
77.8772
74.8154
74.8178
74.8225
74.8293
74.8379
74.848
74.8593
74.8717
74.8848
74.8984
74.9123
74.9262
74.94
74.9534
74.9665
74.979
74.9909
75.0021
75.0125
75.0222
75.031
75.039
75.0461
75.0524
75.0577
75.062
75.0653
75.0676
75.0687
75.0687
75.0673
75.0646
75.0605
75.0548
75.0475
75.0385
75.0277
75.0153
75.0012
74.9949
72.0053
72.0072
72.011
72.0164
72.0232
72.0313
72.0404
72.0503
72.0608
72.0716
72.0827
72.0938
72.1048
72.1156
72.126
72.1359
72.1453
72.154
72.1621
72.1695
72.1761
72.182
72.187
72.1912
72.1945
72.1969
72.1983
72.1987
72.1981
72.1964
72.1937
72.1897
72.1846
72.1784
72.1709
72.1622
72.1524
72.1416
72.1298
72.1244
69.1911
69.1926
69.1956
69.1999
69.2053
69.2117
69.2189
69.2268
69.2351
69.2437
69.2524
69.2612
69.2699
69.2783
69.2864
69.2941
69.3013
69.308
69.314
69.3194
69.3242
69.3282
69.3314
69.3339
69.3355
69.3364
69.3363
69.3354
69.3336
69.3309
69.3273
69.3227
69.3172
69.3108
69.3035
69.2954
69.2864
69.2768
69.2665
69.2619
66.3736
66.3748
66.3772
66.3806
66.3848
66.3899
66.3955
66.4017
66.4082
66.4149
66.4217
66.4285
66.4352
66.4416
66.4478
66.4536
66.4589
66.4638
66.4681
66.4718
66.4749
66.4774
66.4791
66.4802
66.4806
66.4802
66.4791
66.4772
66.4745
66.4711
66.4669
66.462
66.4564
66.45
66.443
66.4353
66.4271
66.4183
66.4091
66.4048
63.5536
63.5545
63.5564
63.559
63.5623
63.5662
63.5706
63.5753
63.5803
63.5854
63.5906
63.5957
63.6008
63.6055
63.6101
63.6142
63.618
63.6213
63.6242
63.6265
63.6282
63.6294
63.63
63.6299
63.6292
63.6279
63.6259
63.6233
63.62
63.6162
63.6116
63.6065
63.6008
63.5945
63.5878
63.5805
63.5728
63.5646
63.5561
63.5522
60.7316
60.7323
60.7337
60.7357
60.7382
60.7411
60.7445
60.748
60.7518
60.7556
60.7594
60.7631
60.7667
60.7701
60.7733
60.7761
60.7785
60.7805
60.7821
60.7833
60.7839
60.784
60.7836
60.7826
60.7811
60.779
60.7764
60.7732
60.7695
60.7653
60.7605
60.7553
60.7496
60.7434
60.7368
60.7298
60.7225
60.7149
60.7069
60.7032
57.908
57.9085
57.9096
57.9111
57.9129
57.9151
57.9175
57.9201
57.9228
57.9255
57.9282
57.9308
57.9332
57.9354
57.9374
57.9391
57.9404
57.9413
57.9419
57.942
57.9417
57.9409
57.9397
57.938
57.9358
57.9331
57.93
57.9264
57.9224
57.9179
57.913
57.9076
57.9019
57.8958
57.8894
57.8827
57.8757
57.8684
57.8608
57.8573
55.0833
55.0837
55.0844
55.0855
55.0868
55.0883
55.09
55.0918
55.0936
55.0954
55.0972
55.0988
55.1002
55.1015
55.1024
55.1032
55.1035
55.1036
55.1033
55.1026
55.1015
55.1
55.0981
55.0958
55.0931
55.0899
55.0864
55.0825
55.0781
55.0734
55.0684
55.063
55.0573
55.0513
55.045
55.0385
55.0317
55.0247
55.0175
55.0141
52.2578
52.2581
52.2586
52.2593
52.2601
52.2611
52.2622
52.2633
52.2644
52.2654
52.2664
52.2672
52.2678
52.2682
52.2684
52.2683
52.2679
52.2672
52.2662
52.2648
52.2631
52.261
52.2586
52.2558
52.2526
52.2491
52.2452
52.241
52.2365
52.2316
52.2265
52.221
52.2153
52.2094
52.2032
52.1968
52.1903
52.1835
52.1766
52.1733
49.4318
49.4319
49.4322
49.4326
49.4331
49.4337
49.4342
49.4348
49.4353
49.4357
49.436
49.4361
49.4361
49.4358
49.4353
49.4346
49.4335
49.4322
49.4306
49.4286
49.4264
49.4238
49.4209
49.4177
49.4141
49.4103
49.4062
49.4017
49.397
49.392
49.3868
49.3813
49.3757
49.3698
49.3637
49.3574
49.351
49.3445
49.3378
49.3345
46.6054
46.6055
46.6056
46.6058
46.606
46.6061
46.6063
46.6064
46.6064
46.6063
46.606
46.6056
46.605
46.6042
46.6031
46.6018
46.6003
46.5984
46.5963
46.5939
46.5912
46.5882
46.5849
46.5814
46.5775
46.5734
46.569
46.5644
46.5596
46.5545
46.5492
46.5437
46.538
46.5321
46.5261
46.5199
46.5137
46.5073
46.5008
46.4976
43.7789
43.7789
43.7789
43.7788
43.7788
43.7787
43.7785
43.7782
43.7778
43.7773
43.7766
43.7757
43.7747
43.7734
43.7719
43.7701
43.7681
43.7659
43.7633
43.7605
43.7575
43.7541
43.7506
43.7467
43.7426
43.7383
43.7337
43.7289
43.7239
43.7187
43.7133
43.7077
43.702
43.6962
43.6902
43.6842
43.678
43.6717
43.6654
43.6622
40.9524
40.9523
40.9522
40.952
40.9517
40.9514
40.9509
40.9504
40.9497
40.9488
40.9477
40.9465
40.9451
40.9434
40.9415
40.9394
40.9371
40.9345
40.9316
40.9285
40.9251
40.9215
40.9176
40.9135
40.9092
40.9047
40.8999
40.8949
40.8898
40.8845
40.879
40.8734
40.8677
40.8619
40.8559
40.8499
40.8438
40.8377
40.8314
40.8282
38.126
38.1259
38.1257
38.1254
38.1249
38.1244
38.1237
38.1229
38.122
38.1208
38.1195
38.118
38.1162
38.1143
38.1121
38.1097
38.1071
38.1042
38.1011
38.0977
38.0941
38.0902
38.0861
38.0818
38.0773
38.0726
38.0676
38.0625
38.0572
38.0518
38.0462
38.0405
38.0347
38.0289
38.0229
38.0169
38.0109
38.0048
37.9987
37.9954
35.2998
35.2996
35.2994
35.299
35.2984
35.2978
35.2969
35.2959
35.2948
35.2934
35.2919
35.2902
35.2882
35.2861
35.2837
35.281
35.2782
35.2751
35.2718
35.2682
35.2644
35.2603
35.256
35.2515
35.2468
35.2419
35.2368
35.2315
35.226
35.2204
35.2147
35.2089
35.203
35.1971
35.1911
35.185
35.179
35.173
35.1669
35.1637
32.4739
32.4737
32.4734
32.4729
32.4723
32.4715
32.4706
32.4695
32.4682
32.4667
32.465
32.4631
32.461
32.4587
32.4562
32.4534
32.4504
32.4471
32.4436
32.4399
32.4359
32.4317
32.4273
32.4226
32.4177
32.4126
32.4073
32.4018
32.3962
32.3904
32.3845
32.3785
32.3724
32.3663
32.3601
32.354
32.3479
32.3419
32.3359
32.3327
29.6483
29.6481
29.6478
29.6473
29.6466
29.6458
29.6447
29.6435
29.6422
29.6406
29.6388
29.6368
29.6346
29.6322
29.6296
29.6267
29.6236
29.6203
29.6167
29.6129
29.6088
29.6045
29.5999
29.5951
29.5901
29.5848
29.5793
29.5736
29.5677
29.5617
29.5555
29.5492
29.5428
29.5364
29.5299
29.5236
29.5173
29.5111
29.5051
29.502
26.8231
26.8229
26.8226
26.822
26.8213
26.8204
26.8194
26.8182
26.8167
26.8151
26.8133
26.8113
26.8091
26.8067
26.804
26.8011
26.798
26.7946
26.791
26.7872
26.783
26.7787
26.774
26.7691
26.764
26.7586
26.7529
26.747
26.7408
26.7344
26.7278
26.721
26.7141
26.7072
26.7002
26.6933
26.6866
26.6801
26.6739
26.6709
23.9983
23.9981
23.9977
23.9972
23.9965
23.9956
23.9946
23.9933
23.9919
23.9903
23.9886
23.9866
23.9844
23.982
23.9794
23.9765
23.9734
23.9701
23.9666
23.9628
23.9587
23.9544
23.9497
23.9448
23.9397
23.9342
23.9284
23.9222
23.9158
23.909
23.9019
23.8945
23.8868
23.8789
23.8708
23.8628
23.8549
23.8475
23.8408
23.838
21.1738
21.1737
21.1733
21.1728
21.1721
21.1713
21.1703
21.1691
21.1677
21.1662
21.1645
21.1626
21.1605
21.1582
21.1557
21.1529
21.15
21.1468
21.1434
21.1397
21.1358
21.1316
21.1271
21.1224
21.1173
21.1118
21.1061
21.0999
21.0933
21.0862
21.0786
21.0705
21.0618
21.0524
21.0424
21.0318
21.021
21.0105
21.0019
21.0014
18.3498
18.3496
18.3493
18.3488
18.3482
18.3474
18.3464
18.3453
18.3441
18.3426
18.341
18.3393
18.3373
18.3352
18.3328
18.3303
18.3276
18.3246
18.3214
18.318
18.3144
18.3105
18.3063
18.3018
18.297
18.2919
18.2864
18.2804
18.2741
18.2672
18.2596
18.2513
18.242
18.2314
18.219
18.2041
18.1854
18.1608
18.127
18.1016
15.5261
15.5259
15.5256
15.5252
15.5246
15.5239
15.5231
15.5221
15.5209
15.5196
15.5182
15.5166
15.5149
15.513
15.5109
15.5086
15.5061
15.5035
15.5007
15.4976
15.4943
15.4908
15.4871
15.4831
15.4788
15.4742
15.4694
15.4641
15.4586
15.4526
15.4461
15.4392
15.4317
15.4237
15.4151
15.406
15.3966
15.3875
15.38
15.3766
12.7027
12.7026
12.7023
12.7019
12.7014
12.7008
12.7001
12.6992
12.6983
12.6972
12.6959
12.6946
12.6931
12.6914
12.6896
12.6877
12.6856
12.6833
12.6809
12.6783
12.6755
12.6725
12.6694
12.666
12.6624
12.6586
12.6546
12.6504
12.6459
12.6412
12.6364
12.6313
12.6261
12.6209
12.6158
12.6109
12.6066
12.6031
12.601
12.6005
9.87957
9.87947
9.87926
9.87896
9.87856
9.87806
9.87747
9.87678
9.87599
9.8751
9.87411
9.87301
9.8718
9.87048
9.86904
9.86747
9.86579
9.86397
9.86203
9.85995
9.85772
9.85536
9.85285
9.8502
9.84741
9.84448
9.84141
9.83823
9.83494
9.83158
9.82817
9.82477
9.82143
9.81824
9.81529
9.8127
9.81059
9.8091
9.80835
9.80842
7.05667
7.0566
7.05644
7.05622
7.05593
7.05556
7.05513
7.05462
7.05404
7.05339
7.05266
7.05185
7.05097
7.05
7.04894
7.0478
7.04657
7.04524
7.04383
7.04231
7.0407
7.039
7.0372
7.0353
7.03332
7.03126
7.02914
7.02696
7.02474
7.02252
7.02032
7.01819
7.01616
7.01428
7.01262
7.01124
7.01018
7.00949
7.00922
7.00937
4.23394
4.23389
4.2338
4.23366
4.23348
4.23326
4.23299
4.23268
4.23233
4.23193
4.23149
4.23099
4.23045
4.22986
4.22922
4.22852
4.22777
4.22697
4.22611
4.22519
4.22422
4.22319
4.22211
4.22098
4.2198
4.21859
4.21734
4.21608
4.21481
4.21356
4.21233
4.21117
4.21008
4.2091
4.20825
4.20757
4.20706
4.20675
4.20666
4.20677
1.4113
1.41129
1.41125
1.41121
1.41115
1.41107
1.41098
1.41088
1.41076
1.41063
1.41048
1.41031
1.41013
1.40993
1.40971
1.40948
1.40923
1.40896
1.40867
1.40836
1.40804
1.4077
1.40734
1.40696
1.40657
1.40617
1.40576
1.40535
1.40494
1.40453
1.40414
1.40377
1.40343
1.40312
1.40286
1.40265
1.4025
1.40242
1.40239
1.40243
3264.31
3237.18
3187.26
3122.08
3046.3
2962.67
2872.6
2776.4
2673.42
2561.97
2441.12
2317.92
2192.32
2064.25
1933.61
1800.33
1664.3
1525.4
1383.5
1238.41
1089.93
937.763
781.504
620.539
453.82
279.217
116.94
114.95
113.91
113.169
112.616
112.187
111.847
111.572
111.351
111.174
111.037
110.935
110.867
110.833
1083.38
968.454
850.386
743.582
643.475
547.227
453.256
360.961
270.624
183.327
112.014
111.023
110.478
110.087
109.803
109.599
109.455
109.362
109.313
109.307
109.343
109.425
109.559
109.758
110.042
110.442
110.873
110.787
110.483
110.126
109.781
109.471
109.202
108.972
108.779
108.621
108.496
108.403
108.34
108.308
126.794
106.486
106.211
106.203
106.226
106.279
106.364
106.487
106.654
106.878
107.132
107.188
107.129
107.026
106.916
106.816
106.736
106.68
106.65
106.647
106.673
106.728
106.814
106.93
107.069
107.216
107.322
107.31
107.199
107.028
106.83
106.63
106.439
106.265
106.112
105.983
105.878
105.798
105.744
105.717
103.464
103.469
103.483
103.502
103.533
103.576
103.634
103.705
103.789
103.877
103.956
104.001
104.011
103.995
103.965
103.931
103.899
103.876
103.864
103.866
103.883
103.916
103.963
104.02
104.082
104.135
104.164
104.15
104.091
103.997
103.88
103.751
103.621
103.496
103.381
103.281
103.198
103.134
103.09
103.067
100.684
100.694
100.707
100.725
100.749
100.78
100.816
100.857
100.902
100.945
100.984
101.013
101.03
101.037
101.035
101.029
101.022
101.017
101.016
101.021
101.033
101.051
101.075
101.101
101.126
101.143
101.146
101.129
101.09
101.03
100.956
100.871
100.782
100.693
100.61
100.535
100.472
100.422
100.387
100.369
97.8693
97.8794
97.8912
97.9061
97.9243
97.9455
97.9694
97.9954
98.0222
98.0484
98.0725
98.093
98.109
98.1204
98.1278
98.1325
98.1356
98.1387
98.1427
98.1487
98.1568
98.1669
98.1782
98.189
98.1971
98.1996
98.1936
98.1766
98.1474
98.1066
98.056
97.9982
97.9365
97.8741
97.8141
97.7593
97.712
97.6744
97.648
97.6343
95.0317
95.0414
95.0524
95.0651
95.0795
95.0954
95.1126
95.1307
95.1492
95.1674
95.1846
95.2003
95.2141
95.2257
95.2353
95.2432
95.2499
95.2558
95.2615
95.2672
95.2731
95.2789
95.2842
95.2879
95.2888
95.2857
95.2771
95.2618
95.2394
95.2098
95.1741
95.1335
95.0901
95.0457
95.0026
94.9628
94.9281
94.9002
94.8805
94.8702
92.1823
92.1915
92.2019
92.2132
92.2253
92.2382
92.2518
92.2658
92.2799
92.2939
92.3075
92.3203
92.3321
92.3427
92.3522
92.3606
92.368
92.3746
92.3804
92.3856
92.3901
92.3937
92.3962
92.3968
92.3951
92.3904
92.3818
92.369
92.3516
92.3298
92.304
92.275
92.244
92.2122
92.1812
92.1523
92.127
92.1066
92.0921
92.0845
89.327
89.3359
89.3459
89.3563
89.3671
89.3783
89.3898
89.4015
89.4132
89.4248
89.4361
89.447
89.4572
89.4668
89.4756
89.4836
89.4907
89.4971
89.5026
89.5073
89.511
89.5136
89.5149
89.5145
89.5122
89.5075
89.5002
89.4899
89.4766
89.4604
89.4415
89.4206
89.3982
89.3754
89.353
89.3322
89.3138
89.2989
89.2883
89.2828
86.4695
86.4782
86.4878
86.4976
86.5076
86.5178
86.528
86.5383
86.5485
86.5586
86.5685
86.5781
86.5872
86.5958
86.6038
86.6112
86.6179
86.6239
86.629
86.6333
86.6366
86.6388
86.6398
86.6394
86.6374
86.6335
86.6277
86.6198
86.6099
86.5979
86.5841
86.5689
86.5528
86.5363
86.5202
86.5052
86.4919
86.4811
86.4734
86.4694
83.6123
83.6204
83.6297
83.639
83.6484
83.6578
83.6672
83.6765
83.6858
83.6949
83.7038
83.7125
83.7208
83.7286
83.736
83.7429
83.7491
83.7547
83.7596
83.7636
83.7668
83.769
83.7702
83.7701
83.7687
83.766
83.7617
83.7559
83.7487
83.74
83.73
83.7191
83.7075
83.6957
83.6841
83.6733
83.6637
83.6559
83.6504
83.6475
80.7559
80.7634
80.7723
80.7812
80.7901
80.7989
80.8077
80.8164
80.825
80.8334
80.8417
80.8497
80.8574
80.8647
80.8716
80.8781
80.884
80.8893
80.894
80.898
80.9012
80.9036
80.9051
80.9056
80.905
80.9033
80.9005
80.8965
80.8914
80.8853
80.8782
80.8705
80.8622
80.8538
80.8456
80.8379
80.831
80.8255
80.8215
80.8194
77.902
77.9081
77.9164
77.9247
77.9331
77.9415
77.9498
77.958
77.9661
77.9741
77.9819
77.9894
77.9967
78.0036
78.0102
78.0164
78.0221
78.0273
78.0319
78.036
78.0393
78.042
78.0438
78.0449
78.0451
78.0444
78.0428
78.0404
78.037
78.0329
78.0281
78.0228
78.0171
78.0112
78.0054
78
77.9952
77.9913
77.9885
77.987
75.0464
75.0528
75.061
75.0691
75.0773
75.0854
75.0934
75.1013
75.1091
75.1167
75.1242
75.1314
75.1384
75.1451
75.1515
75.1575
75.1631
75.1682
75.1729
75.177
75.1805
75.1835
75.1858
75.1874
75.1883
75.1885
75.188
75.1868
75.1849
75.1824
75.1793
75.1758
75.172
75.1681
75.1641
75.1604
75.1571
75.1544
75.1525
75.1515
72.1923
72.1987
72.2068
72.2149
72.2229
72.2308
72.2386
72.2464
72.2539
72.2613
72.2686
72.2756
72.2824
72.2889
72.2951
72.301
72.3066
72.3117
72.3165
72.3207
72.3245
72.3278
72.3305
72.3326
72.3342
72.3351
72.3355
72.3353
72.3346
72.3333
72.3316
72.3295
72.3272
72.3247
72.3222
72.3197
72.3176
72.3158
72.3145
72.3138
69.3399
69.3463
69.3543
69.3623
69.3702
69.3779
69.3856
69.3931
69.4006
69.4078
69.4149
69.4218
69.4284
69.4349
69.441
69.4469
69.4524
69.4576
69.4624
69.4668
69.4708
69.4744
69.4775
69.4801
69.4822
69.4838
69.4849
69.4856
69.4857
69.4855
69.4848
69.4839
69.4826
69.4813
69.4798
69.4783
69.477
69.4759
69.4751
69.4747
66.4893
66.4956
66.5035
66.5114
66.5191
66.5268
66.5343
66.5417
66.549
66.5561
66.5631
66.5699
66.5764
66.5828
66.5889
66.5948
66.6003
66.6056
66.6105
66.6151
66.6193
66.6231
66.6265
66.6295
66.6321
66.6343
66.636
66.6373
66.6382
66.6387
66.6389
66.6388
66.6385
66.638
66.6373
66.6366
66.6359
66.6354
66.6349
66.6347
63.6406
63.6467
63.6545
63.6622
63.6698
63.6773
63.6847
63.692
63.6992
63.7062
63.7131
63.7198
63.7263
63.7326
63.7387
63.7445
63.7501
63.7555
63.7605
63.7652
63.7696
63.7737
63.7774
63.7807
63.7837
63.7863
63.7885
63.7904
63.7919
63.7931
63.7939
63.7945
63.7948
63.7949
63.7949
63.7948
63.7946
63.7944
63.7943
63.7942
60.7936
60.7995
60.8071
60.8146
60.8221
60.8295
60.8368
60.8439
60.851
60.8579
60.8647
60.8714
60.8778
60.8841
60.8902
60.8961
60.9017
60.9071
60.9122
60.9171
60.9217
60.9259
60.9299
60.9335
60.9368
60.9398
60.9424
60.9447
60.9467
60.9483
60.9497
60.9508
60.9517
60.9523
60.9528
60.9531
60.9533
60.9534
60.9535
60.9535
57.9481
57.9538
57.9613
57.9687
57.976
57.9832
57.9904
57.9975
58.0044
58.0113
58.018
58.0246
58.031
58.0373
58.0433
58.0492
58.0549
58.0604
58.0656
58.0706
58.0753
58.0797
58.0839
58.0877
58.0913
58.0945
58.0975
58.1002
58.1025
58.1046
58.1064
58.1079
58.1092
58.1102
58.111
58.1117
58.1122
58.1125
58.1128
58.1129
55.1042
55.1096
55.1169
55.1242
55.1314
55.1385
55.1455
55.1525
55.1594
55.1661
55.1728
55.1793
55.1857
55.1919
55.198
55.2039
55.2096
55.2151
55.2204
55.2255
55.2303
55.2349
55.2392
55.2433
55.2471
55.2506
55.2538
55.2567
55.2594
55.2618
55.2639
55.2657
55.2673
55.2687
55.2698
55.2707
55.2714
55.2719
55.2723
55.2725
52.2615
52.2668
52.274
52.2811
52.2882
52.2952
52.3021
52.309
52.3157
52.3224
52.329
52.3355
52.3418
52.348
52.3541
52.36
52.3657
52.3713
52.3766
52.3818
52.3867
52.3914
52.3959
52.4001
52.4041
52.4077
52.4112
52.4143
52.4172
52.4199
52.4222
52.4243
52.4262
52.4278
52.4291
52.4302
52.4311
52.4318
52.4322
52.4325
49.4202
49.4253
49.4323
49.4393
49.4462
49.4531
49.46
49.4667
49.4734
49.48
49.4866
49.493
49.4993
49.5055
49.5115
49.5175
49.5232
49.5288
49.5342
49.5394
49.5444
49.5492
49.5538
49.5581
49.5622
49.5661
49.5697
49.573
49.5761
49.5789
49.5814
49.5837
49.5858
49.5875
49.5891
49.5903
49.5914
49.5921
49.5926
49.5929
46.5801
46.5851
46.5919
46.5987
46.6056
46.6123
46.6191
46.6257
46.6323
46.6389
46.6454
46.6518
46.658
46.6642
46.6703
46.6762
46.682
46.6876
46.693
46.6983
46.7033
46.7082
46.7129
46.7173
46.7215
46.7255
46.7292
46.7327
46.7359
46.7388
46.7415
46.744
46.7461
46.7481
46.7497
46.7511
46.7522
46.7531
46.7536
46.7539
43.7411
43.7459
43.7526
43.7593
43.766
43.7727
43.7793
43.7859
43.7924
43.7989
43.8054
43.8117
43.818
43.8242
43.8302
43.8361
43.8419
43.8476
43.853
43.8584
43.8635
43.8684
43.8731
43.8776
43.8819
43.886
43.8898
43.8933
43.8966
43.8997
43.9025
43.905
43.9073
43.9093
43.9111
43.9125
43.9137
43.9146
43.9152
43.9156
40.9032
40.9078
40.9143
40.9209
40.9275
40.934
40.9406
40.9471
40.9536
40.9601
40.9665
40.9728
40.9791
40.9853
40.9913
40.9973
41.0031
41.0088
41.0143
41.0196
41.0248
41.0297
41.0345
41.0391
41.0434
41.0475
41.0514
41.055
41.0584
41.0615
41.0644
41.067
41.0693
41.0714
41.0732
41.0747
41.0759
41.0769
41.0775
41.0778
38.0661
38.0705
38.0769
38.0833
38.0898
38.0963
38.1028
38.1093
38.1158
38.1222
38.1286
38.135
38.1413
38.1475
38.1536
38.1596
38.1654
38.1711
38.1767
38.182
38.1872
38.1922
38.197
38.2016
38.206
38.2101
38.214
38.2177
38.2211
38.2242
38.2271
38.2298
38.2321
38.2342
38.2361
38.2376
38.2389
38.2398
38.2405
38.2408
35.2298
35.2339
35.2401
35.2465
35.2529
35.2593
35.2658
35.2723
35.2788
35.2853
35.2918
35.2982
35.3045
35.3108
35.317
35.323
35.3289
35.3346
35.3402
35.3456
35.3508
35.3558
35.3607
35.3652
35.3696
35.3737
35.3776
35.3813
35.3847
35.3879
35.3908
35.3934
35.3958
35.3979
35.3997
35.4013
35.4026
35.4035
35.4042
35.4045
32.3937
32.3976
32.4037
32.41
32.4164
32.4228
32.4294
32.436
32.4426
32.4493
32.4559
32.4624
32.4689
32.4753
32.4815
32.4876
32.4936
32.4994
32.505
32.5104
32.5156
32.5206
32.5254
32.53
32.5343
32.5384
32.5423
32.5459
32.5493
32.5524
32.5553
32.5579
32.5603
32.5624
32.5642
32.5657
32.567
32.5679
32.5686
32.5689
29.5575
29.5611
29.5672
29.5735
29.58
29.5866
29.5934
29.6003
29.6072
29.6141
29.621
29.6278
29.6344
29.641
29.6474
29.6536
29.6596
29.6654
29.6711
29.6765
29.6817
29.6866
29.6914
29.6959
29.7002
29.7042
29.708
29.7115
29.7149
29.7179
29.7207
29.7233
29.7256
29.7276
29.7294
29.7309
29.7321
29.733
29.7337
29.734
26.7202
26.7236
26.7297
26.7363
26.7432
26.7504
26.7577
26.7652
26.7726
26.78
26.7873
26.7944
26.8013
26.8081
26.8146
26.8209
26.827
26.8329
26.8385
26.8439
26.849
26.8539
26.8585
26.8629
26.8671
26.871
26.8747
26.8781
26.8813
26.8843
26.887
26.8895
26.8917
26.8936
26.8953
26.8968
26.898
26.8989
26.8995
26.8998
23.88
23.8832
23.8898
23.8973
23.9054
23.9138
23.9224
23.9309
23.9392
23.9473
23.9552
23.9627
23.97
23.9769
23.9836
23.99
23.9961
24.0019
24.0074
24.0127
24.0177
24.0224
24.0269
24.0311
24.0351
24.0389
24.0424
24.0457
24.0487
24.0516
24.0541
24.0565
24.0586
24.0604
24.062
24.0634
24.0645
24.0653
24.0659
24.0662
21.0334
21.035
21.044
21.0549
21.0663
21.0775
21.0883
21.0985
21.1081
21.1171
21.1255
21.1335
21.1409
21.148
21.1547
21.161
21.1669
21.1726
21.1779
21.183
21.1878
21.1923
21.1965
21.2005
21.2043
21.2078
21.2111
21.2142
21.217
21.2197
21.222
21.2242
21.2262
21.2279
21.2294
21.2306
21.2317
21.2325
21.233
21.2333
18.1091
18.1496
18.1843
18.2099
18.2298
18.246
18.2595
18.2713
18.2817
18.2911
18.2997
18.3076
18.3149
18.3217
18.3281
18.3341
18.3398
18.3451
18.3501
18.3548
18.3593
18.3634
18.3674
18.3711
18.3745
18.3778
18.3808
18.3836
18.3862
18.3886
18.3907
18.3927
18.3945
18.396
18.3974
18.3985
18.3995
18.4002
18.4007
18.4009
15.3793
15.3879
15.3992
15.4112
15.423
15.4341
15.4445
15.4541
15.4629
15.4711
15.4786
15.4857
15.4923
15.4984
15.5042
15.5096
15.5147
15.5195
15.5239
15.5282
15.5322
15.5359
15.5394
15.5427
15.5458
15.5486
15.5513
15.5538
15.5561
15.5582
15.5601
15.5618
15.5634
15.5648
15.566
15.567
15.5678
15.5684
15.5688
15.5691
12.6019
12.6052
12.61
12.6159
12.6224
12.6291
12.6359
12.6426
12.6492
12.6554
12.6614
12.6671
12.6726
12.6777
12.6825
12.6871
12.6914
12.6955
12.6993
12.7029
12.7063
12.7095
12.7125
12.7153
12.7179
12.7204
12.7226
12.7247
12.7267
12.7285
12.7301
12.7316
12.7329
12.734
12.7351
12.7359
12.7366
12.7371
12.7375
12.7377
9.80933
9.81106
9.81357
9.81674
9.82043
9.8245
9.82881
9.83326
9.83774
9.8422
9.84657
9.85082
9.85493
9.85887
9.86264
9.86623
9.86965
9.87288
9.87594
9.87883
9.88155
9.88411
9.88651
9.88876
9.89086
9.89282
9.89464
9.89633
9.89789
9.89932
9.90062
9.90179
9.90285
9.90377
9.90458
9.90526
9.90581
9.90623
9.90651
9.90666
7.00994
7.01094
7.01236
7.01416
7.01629
7.01871
7.02134
7.02412
7.02699
7.02992
7.03284
7.03574
7.03858
7.04134
7.044
7.04656
7.04901
7.05135
7.05356
7.05566
7.05764
7.0595
7.06126
7.0629
7.06444
7.06587
7.0672
7.06843
7.06957
7.07061
7.07156
7.07242
7.07318
7.07386
7.07445
7.07494
7.07534
7.07565
7.07585
7.07596
4.2071
4.20763
4.20837
4.20932
4.21044
4.21173
4.21315
4.21468
4.21628
4.21793
4.2196
4.22127
4.22293
4.22455
4.22613
4.22766
4.22913
4.23053
4.23187
4.23314
4.23434
4.23547
4.23654
4.23754
4.23847
4.23935
4.24016
4.24091
4.2416
4.24223
4.24281
4.24333
4.2438
4.24421
4.24456
4.24486
4.24511
4.24529
4.24542
4.24549
1.40254
1.40271
1.40294
1.40324
1.40359
1.404
1.40445
1.40493
1.40545
1.40598
1.40652
1.40707
1.40761
1.40815
1.40867
1.40918
1.40966
1.41013
1.41058
1.411
1.41141
1.41179
1.41214
1.41248
1.41279
1.41309
1.41336
1.41361
1.41384
1.41405
1.41425
1.41442
1.41458
1.41472
1.41484
1.41494
1.41502
1.41508
1.41512
1.41515
)
;

boundaryField
{
    top
    {
        type            fixedValue;
        value           uniform 0;
    }
    inlet
    {
        type            darcyGradPressure;
        gradient        nonuniform List<scalar> 
80
(
9.81
9.81
9.81
9.81
9.81
9.81
9.81
9.81
9.81
9.81
9.81
9.81
9.81
9.81
9.81
9.81
108.859
9191.76
9601.52
9700.4
9742.4
9764.42
9777.39
9785.63
9791.17
9795.05
9797.87
9799.97
9801.58
9802.83
9803.82
9804.62
9805.24
9805.73
9806.13
9806.46
9806.75
9807.02
9807.27
9807.55
9809.26
9809.15
9809.06
9808.97
9808.87
9808.76
9808.64
9808.49
9808.31
9808.08
9807.78
9807.42
9806.96
9806.38
9805.63
9804.64
9803.29
9801.4
9798.69
9794.61
9788.14
9777.11
9756.27
9709.48
9557.71
7008.38
9.92442
9.81
9.81
9.81
9.81
9.81
9.81
9.81
9.81
9.81
9.81
9.81
9.81
9.81
)
;
        value           nonuniform List<scalar> 
80
(
111.175
111.201
111.251
111.326
111.426
111.553
111.707
111.892
112.112
112.373
112.686
113.066
113.537
114.14
114.947
116.087
149.199
1513.28
1768.75
1971.54
2157.36
2332.89
2500.77
2662.43
2818.73
2970.3
3117.57
3260.89
3400.55
3536.76
3669.73
3799.62
3920.37
4031.82
4134.91
4229.78
4315.5
4389.82
4448.66
4485.22
4490.47
4463.33
4413.4
4348.2
4272.41
4188.77
4098.68
4002.46
3899.45
3787.97
3667.09
3543.85
3418.19
3290.04
3159.32
3025.91
2889.71
2750.58
2608.33
2462.74
2313.45
2159.9
2001.04
1834.23
1648.53
1155.26
118.181
116.177
115.136
114.396
113.842
113.413
113.073
112.799
112.577
112.401
112.263
112.161
112.093
112.059
)
;
    }
    axis
    {
        type            darcyGradPressure;
        gradient        uniform -0;
        value           nonuniform List<scalar> 
80
(
109.949
107.442
104.884
102.279
99.6337
96.9531
94.2436
91.5103
88.7577
85.9897
83.2092
80.4188
77.6203
74.8154
72.0053
69.1911
66.3736
63.5536
60.7316
57.908
55.0833
52.2578
49.4318
46.6054
43.7789
40.9524
38.126
35.2998
32.4739
29.6483
26.8231
23.9983
21.1738
18.3498
15.5261
12.7027
9.87957
7.05667
4.23394
1.4113
110.833
108.308
105.717
103.067
100.369
97.6343
94.8702
92.0845
89.2828
86.4694
83.6475
80.8194
77.987
75.1515
72.3138
69.4747
66.6347
63.7942
60.9535
58.1129
55.2725
52.4325
49.5929
46.7539
43.9156
41.0778
38.2408
35.4045
32.5689
29.734
26.8998
24.0662
21.2333
18.4009
15.5691
12.7377
9.90666
7.07596
4.24549
1.41515
)
;
    }
    frontAndBack
    {
        type            empty;
    }
}


// ************************************************************************* //
