/*--------------------------------*- C++ -*----------------------------------*\
  =========                 |
  \\      /  F ield         | OpenFOAM: The Open Source CFD Toolbox
   \\    /   O peration     | Website:  https://openfoam.org
    \\  /    A nd           | Version:  10
     \\/     M anipulation  |
\*---------------------------------------------------------------------------*/
FoamFile
{
    format      ascii;
    class       surfaceScalarField;
    location    "1.63";
    object      phi;
}
// * * * * * * * * * * * * * * * * * * * * * * * * * * * * * * * * * * * * * //

dimensions      [0 3 -1 0 0 0 0];

internalField   nonuniform List<scalar> 
24170
(
1.44573e-09
-1.44573e-09
2.68396e-09
-1.23823e-09
3.66527e-09
-9.81307e-10
4.40857e-09
-7.43303e-10
4.96242e-09
-5.53842e-10
5.37921e-09
-4.16799e-10
5.70418e-09
-3.24961e-10
5.97296e-09
-2.68784e-10
6.21315e-09
-2.4019e-10
6.44694e-09
-2.33794e-10
6.69417e-09
-2.47225e-10
6.97573e-09
-2.81563e-10
7.3185e-09
-3.42768e-10
7.76437e-09
-4.45871e-10
8.39197e-09
-6.27598e-10
9.38331e-09
-9.91338e-10
1.13018e-08
-1.91853e-09
-5.46341e-09
1.67652e-08
1.64348e-09
-3.08921e-09
3.04498e-09
-2.63973e-09
4.14875e-09
-2.08508e-09
4.97882e-09
-1.57337e-09
5.59263e-09
-1.16765e-09
6.05111e-09
-8.75282e-10
6.40619e-09
-6.80041e-10
6.69843e-09
-5.61025e-10
6.95893e-09
-5.00684e-10
7.21245e-09
-4.87322e-10
7.48089e-09
-5.15665e-10
7.78697e-09
-5.87636e-10
8.15926e-09
-7.15057e-10
8.64089e-09
-9.27504e-10
9.30796e-09
-1.29467e-09
1.03132e-08
-1.99658e-09
1.19685e-08
-3.57382e-09
-7.8472e-09
1.43523e-08
1.84017e-09
-4.92938e-09
3.4002e-09
-4.19976e-09
4.61881e-09
-3.30369e-09
5.52717e-09
-2.48173e-09
6.19309e-09
-1.83358e-09
6.68658e-09
-1.36876e-09
7.06621e-09
-1.05968e-09
7.37714e-09
-8.71953e-10
7.65351e-09
-7.77051e-10
7.92213e-09
-7.55941e-10
8.2062e-09
-7.99736e-10
8.52908e-09
-9.10521e-10
8.91883e-09
-1.10481e-09
9.41471e-09
-1.42338e-09
1.00771e-08
-1.95706e-09
1.09949e-08
-2.91438e-09
1.22141e-08
-4.79301e-09
-8.66641e-09
1.30333e-08
2.05878e-09
-6.98816e-09
3.78978e-09
-5.93075e-09
5.12667e-09
-4.64058e-09
6.11144e-09
-3.4665e-09
6.82542e-09
-2.54755e-09
7.3494e-09
-1.89274e-09
7.74935e-09
-1.45963e-09
8.07509e-09
-1.19769e-09
8.3636e-09
-1.06556e-09
8.64329e-09
-1.03563e-09
8.938e-09
-1.09444e-09
9.27054e-09
-1.24306e-09
9.6662e-09
-1.50047e-09
1.01559e-08
-1.91307e-09
1.07758e-08
-2.57701e-09
1.15456e-08
-3.6841e-09
1.23421e-08
-5.5895e-09
-8.74342e-09
1.24191e-08
2.31305e-09
-9.30121e-09
4.23562e-09
-7.85332e-09
5.69742e-09
-6.10239e-09
6.75705e-09
-4.52613e-09
7.51409e-09
-3.3046e-09
8.06279e-09
-2.44144e-09
8.47755e-09
-1.87439e-09
8.81305e-09
-1.53319e-09
9.10887e-09
-1.36138e-09
9.39453e-09
-1.3213e-09
9.69371e-09
-1.39362e-09
1.00274e-08
-1.57678e-09
1.04161e-08
-1.88919e-09
1.08793e-08
-2.37621e-09
1.14266e-08
-3.12429e-09
1.20224e-08
-4.2799e-09
1.24749e-08
-6.04202e-09
-8.48788e-09
1.22194e-08
2.61814e-09
-1.19194e-08
4.7603e-09
-9.99549e-09
6.35475e-09
-7.69683e-09
7.48575e-09
-5.65713e-09
8.27812e-09
-4.09696e-09
8.8431e-09
-3.00642e-09
9.26486e-09
-2.29616e-09
9.60315e-09
-1.87148e-09
9.89978e-09
-1.65801e-09
1.01847e-08
-1.60627e-09
1.04807e-08
-1.68955e-09
1.08056e-08
-1.90172e-09
1.11736e-08
-2.25722e-09
1.15915e-08
-2.79407e-09
1.20456e-08
-3.57841e-09
1.24674e-08
-4.70167e-09
1.2664e-08
-6.2386e-09
-8.09389e-09
1.227e-08
2.99448e-09
-1.49138e-08
5.39254e-09
-1.23935e-08
7.12681e-09
-9.43109e-09
8.32163e-09
-6.85196e-09
9.13697e-09
-4.9123e-09
9.7058e-09
-3.57524e-09
1.01236e-08
-2.71392e-09
1.04551e-08
-2.20299e-09
1.07439e-08
-1.94682e-09
1.10196e-08
-1.88202e-09
1.1303e-08
-1.97289e-09
1.1608e-08
-2.2067e-09
1.19415e-08
-2.59078e-09
1.22986e-08
-3.15111e-09
1.26489e-08
-3.92874e-09
1.2912e-08
-4.96476e-09
1.29275e-08
-6.25413e-09
-7.64926e-09
1.24829e-08
3.47186e-09
-1.83857e-08
6.17196e-09
-1.50936e-08
8.05013e-09
-1.13093e-08
9.29398e-09
-8.09581e-09
1.01129e-08
-5.73123e-09
1.06675e-08
-4.12981e-09
1.10659e-08
-3.11237e-09
1.13779e-08
-2.51495e-09
1.16477e-08
-2.21663e-09
1.19037e-08
-2.138e-09
1.21636e-08
-2.23277e-09
1.24367e-08
-2.47978e-09
1.27229e-08
-2.87698e-09
1.30076e-08
-3.4359e-09
1.3252e-08
-4.17305e-09
1.33786e-08
-5.09139e-09
1.32693e-08
-6.14482e-09
-7.19162e-09
1.28116e-08
4.09598e-09
-2.24817e-08
7.15558e-09
-1.81532e-08
9.17388e-09
-1.33276e-08
1.04398e-08
-9.36173e-09
1.12323e-08
-6.52379e-09
1.17467e-08
-4.64419e-09
1.2105e-08
-3.47066e-09
1.23806e-08
-2.79058e-09
1.26174e-08
-2.45336e-09
1.28409e-08
-2.36155e-09
1.30651e-08
-2.45697e-09
1.32942e-08
-2.70883e-09
1.35217e-08
-3.10455e-09
1.37271e-08
-3.64126e-09
1.38691e-08
-4.31506e-09
1.38824e-08
-5.1047e-09
1.36874e-08
-5.94985e-09
-6.73559e-09
1.32314e-08
4.94019e-09
-2.74219e-08
8.42804e-09
-2.16411e-08
1.05655e-08
-1.5465e-08
1.18062e-08
-1.06024e-08
1.25267e-08
-7.24433e-09
1.29643e-08
-5.08179e-09
1.32545e-08
-3.76087e-09
1.34724e-08
-3.00842e-09
1.36588e-08
-2.63976e-09
1.38352e-08
-2.53794e-09
1.40105e-08
-2.63226e-09
1.41836e-08
-2.88202e-09
1.43434e-08
-3.26429e-09
1.44659e-08
-3.76374e-09
1.45128e-08
-4.36196e-09
1.44336e-08
-5.0255e-09
1.41789e-08
-5.69516e-09
-6.28561e-09
1.37289e-08
6.12785e-09
-3.35497e-08
1.01183e-08
-2.56315e-08
1.23183e-08
-1.76651e-08
1.34526e-08
-1.17367e-08
1.40326e-08
-7.82428e-09
1.43427e-08
-5.39187e-09
1.45283e-08
-3.94654e-09
1.46617e-08
-3.14173e-09
1.47772e-08
-2.75535e-09
1.48899e-08
-2.65061e-09
1.50025e-08
-2.74487e-09
1.51088e-08
-2.9883e-09
1.51937e-08
-3.34917e-09
1.52328e-08
-3.80282e-09
1.51932e-08
-4.32236e-09
1.50385e-08
-4.87081e-09
1.47406e-08
-5.39728e-09
-5.84167e-09
1.42966e-08
6.53651e-09
-4.00862e-08
1.03441e-08
-2.94391e-08
1.21529e-08
-1.94739e-08
1.29237e-08
-1.25075e-08
1.32262e-08
-8.12675e-09
1.33358e-08
-5.50143e-09
1.33753e-08
-3.98608e-09
1.3397e-08
-3.16347e-09
1.34212e-08
-2.77948e-09
1.34527e-08
-2.68212e-09
1.34882e-08
-2.78033e-09
1.35181e-08
-3.01822e-09
1.35275e-08
-3.35863e-09
1.34967e-08
-3.77194e-09
1.34023e-08
-4.22803e-09
1.32227e-08
-4.69119e-09
1.29447e-08
-5.11926e-09
-5.46889e-09
1.25719e-08
9.71299e-09
-4.97992e-08
1.45403e-08
-3.42664e-08
1.63559e-08
-2.12896e-08
1.68614e-08
-1.3013e-08
1.68885e-08
-8.15385e-09
1.67756e-08
-5.38856e-09
1.66471e-08
-3.85753e-09
1.65423e-08
-3.05875e-09
1.64684e-08
-2.70553e-09
1.64192e-08
-2.63296e-09
1.63829e-08
-2.74399e-09
1.63435e-08
-2.97885e-09
1.6282e-08
-3.29711e-09
1.61769e-08
-3.66685e-09
1.60068e-08
-4.05796e-09
1.57547e-08
-4.439e-09
1.54131e-08
-4.77773e-09
-5.04511e-09
1.49893e-08
1.56792e-08
-6.54785e-08
2.1458e-08
-4.00451e-08
2.26395e-08
-2.24712e-08
2.23576e-08
-1.2731e-08
2.17663e-08
-7.56251e-09
2.12128e-08
-4.83512e-09
2.07739e-08
-3.41861e-09
2.04452e-08
-2.73005e-09
2.02021e-08
-2.46245e-09
2.00172e-08
-2.44803e-09
1.9864e-08
-2.59079e-09
1.97173e-08
-2.83214e-09
1.95528e-08
-3.13259e-09
1.93476e-08
-3.46173e-09
1.90826e-08
-3.79292e-09
1.8745e-08
-4.10135e-09
1.83319e-08
-4.36465e-09
-4.56517e-09
1.78519e-08
2.86776e-08
-9.4156e-08
3.37232e-08
-4.50907e-08
3.2331e-08
-2.10789e-08
3.0105e-08
-1.05051e-08
2.82616e-08
-5.71912e-09
2.69102e-08
-3.48374e-09
2.59459e-08
-2.45426e-09
2.52537e-08
-2.0379e-09
2.47441e-08
-1.95284e-09
2.43508e-08
-2.05474e-09
2.4024e-08
-2.26399e-09
2.37247e-08
-2.53278e-09
2.34213e-08
-2.82921e-09
2.30889e-08
-3.12936e-09
2.27096e-08
-3.41355e-09
2.22734e-08
-3.66522e-09
2.17799e-08
-3.87112e-09
-4.02234e-09
2.12371e-08
6.32685e-08
-1.57425e-07
5.67626e-08
-3.85848e-08
4.72056e-08
-1.15219e-08
4.07359e-08
-4.03533e-09
3.6651e-08
-1.63427e-09
3.40256e-08
-8.58291e-10
3.22764e-08
-7.05116e-10
3.10626e-08
-8.24064e-10
3.01804e-08
-1.07061e-09
2.95021e-08
-1.37646e-09
2.89434e-08
-1.70529e-09
2.84459e-08
-2.03536e-09
2.79685e-08
-2.35179e-09
2.74824e-08
-2.64322e-09
2.69693e-08
-2.90048e-09
2.64205e-08
-3.11641e-09
2.58355e-08
-3.28615e-09
-3.40751e-09
2.52207e-08
1.83209e-07
1.5904e-07
9.7074e-08
4.75505e-08
6.68468e-08
1.87053e-08
5.34997e-08
9.31167e-09
4.64969e-08
5.36862e-09
4.23596e-08
3.27897e-09
3.97019e-08
1.95259e-09
3.78787e-08
9.99161e-10
3.65517e-08
2.56307e-10
3.55229e-08
-3.47588e-10
3.46721e-08
-8.54529e-10
3.39246e-08
-1.28786e-09
3.32309e-08
-1.65812e-09
3.25589e-08
-1.97121e-09
3.18891e-08
-2.23065e-09
3.12117e-08
-2.43898e-09
3.05243e-08
-2.59875e-09
-2.71307e-09
2.98298e-08
7.72516e-08
8.17887e-08
7.54783e-08
4.93238e-08
6.5463e-08
2.87207e-08
5.74811e-08
1.72936e-08
5.19982e-08
1.08515e-08
4.82713e-08
7.00587e-09
4.56715e-08
4.55245e-09
4.37852e-08
2.88544e-09
4.23517e-08
1.68981e-09
4.12096e-08
7.94494e-10
4.02531e-08
1.01966e-10
3.94019e-08
-4.36653e-10
3.86104e-08
-8.66643e-10
3.78511e-08
-1.21188e-09
3.71074e-08
-1.487e-09
3.6371e-08
-1.70257e-09
3.56391e-08
-1.86686e-09
-1.98676e-09
3.49128e-08
3.59579e-08
4.58308e-08
5.01415e-08
3.51401e-08
5.3832e-08
2.50301e-08
5.36652e-08
1.74604e-08
5.23564e-08
1.21603e-08
5.08736e-08
8.48859e-09
4.95124e-08
5.9137e-09
4.83282e-08
4.06962e-09
4.73001e-08
2.71795e-09
4.63892e-08
1.70537e-09
4.55585e-08
9.32618e-10
4.47873e-08
3.34628e-10
4.4051e-08
-1.30386e-10
4.33301e-08
-4.90958e-10
4.26167e-08
-7.73634e-10
4.19076e-08
-9.93412e-10
4.12024e-08
-1.1617e-09
-1.28748e-09
4.05031e-08
1.43125e-08
3.15183e-08
2.32911e-08
2.61615e-08
2.80909e-08
2.02303e-08
3.04343e-08
1.5117e-08
3.14769e-08
1.11177e-08
3.18581e-08
8.10742e-09
3.19055e-08
5.86632e-09
3.17812e-08
4.19385e-09
3.15642e-08
2.93495e-09
3.12925e-08
1.9771e-09
3.09846e-08
1.24057e-09
3.065e-08
6.69235e-10
3.02962e-08
2.23356e-10
2.99289e-08
-1.23666e-10
2.95477e-08
-3.92459e-10
2.91562e-08
-6.01864e-10
2.87578e-08
-7.63291e-10
-8.85651e-10
2.8356e-08
8.56644e-09
2.29519e-08
1.49501e-08
1.97779e-08
1.91829e-08
1.59976e-08
2.18358e-08
1.2464e-08
2.34531e-08
9.50038e-09
2.44196e-08
7.14091e-09
2.49792e-08
5.30674e-09
2.52798e-08
3.89326e-09
2.54102e-08
2.80451e-09
2.54245e-08
1.96289e-09
2.53561e-08
1.30897e-09
2.52269e-08
7.98371e-10
2.5052e-08
3.98236e-10
2.48442e-08
8.41851e-11
2.46113e-08
-1.59596e-10
2.43587e-08
-3.4922e-10
2.40918e-08
-4.96364e-10
-6.09085e-10
2.38152e-08
5.77591e-09
1.7176e-08
1.0452e-08
1.51018e-08
1.39066e-08
1.2543e-08
1.63367e-08
1.00339e-08
1.80042e-08
7.83291e-09
1.91323e-08
6.01281e-09
1.98851e-08
4.55398e-09
2.03757e-08
3.40263e-09
2.06805e-08
2.49968e-09
2.08511e-08
1.79234e-09
2.09226e-08
1.23745e-09
2.09198e-08
8.0118e-10
2.08605e-08
4.57541e-10
2.0758e-08
1.86694e-10
2.06245e-08
-2.61055e-11
2.04661e-08
-1.9079e-10
2.0289e-08
-3.19309e-10
-4.18571e-10
2.00985e-08
4.20003e-09
1.2976e-08
7.75649e-09
1.15453e-08
1.0551e-08
9.74842e-09
1.26509e-08
7.93401e-09
1.41887e-08
6.29513e-09
1.52971e-08
4.90435e-09
1.60857e-08
3.76536e-09
1.66376e-08
2.85075e-09
1.70136e-08
2.12366e-09
1.72579e-08
1.54811e-09
1.74023e-08
1.093e-09
1.74705e-08
7.33014e-10
1.74799e-08
4.48099e-10
1.7444e-08
2.22634e-10
1.73734e-08
4.44943e-11
1.72769e-08
-9.43363e-11
1.71603e-08
-2.02644e-10
-2.86816e-10
1.70285e-08
3.21005e-09
9.76591e-09
6.00102e-09
8.75436e-09
8.27817e-09
7.47128e-09
1.00607e-08
6.15149e-09
1.14198e-08
4.93601e-09
1.2438e-08
3.88614e-09
1.31902e-08
3.01324e-09
1.37374e-08
2.30351e-09
1.41275e-08
1.7336e-09
1.43967e-08
1.27886e-09
1.45727e-08
9.17025e-10
1.46763e-08
6.29368e-10
1.47237e-08
4.00759e-10
1.47271e-08
2.19192e-10
1.46964e-08
7.52255e-11
1.464e-08
-3.79497e-11
1.45634e-08
-1.26061e-10
-1.94878e-10
1.44715e-08
2.53739e-09
7.22852e-09
4.78007e-09
6.51168e-09
6.65421e-09
5.59713e-09
8.1606e-09
4.6451e-09
9.33977e-09
3.75684e-09
1.02457e-08
2.98024e-09
1.09312e-08
2.32768e-09
1.14424e-08
1.79234e-09
1.18167e-08
1.35929e-09
1.20839e-08
1.01167e-09
1.22672e-08
7.33709e-10
1.23848e-08
5.11834e-10
1.24506e-08
3.3489e-10
1.24759e-08
1.93917e-10
1.24693e-08
8.17972e-11
1.24384e-08
-6.98097e-12
1.23882e-08
-7.59524e-11
-1.3006e-10
1.23234e-08
2.05199e-09
5.17654e-09
3.88496e-09
4.67871e-09
5.44082e-09
4.04127e-09
6.71346e-09
3.37246e-09
7.72731e-09
2.74298e-09
8.51951e-09
2.18805e-09
9.12891e-09
1.71827e-09
9.59082e-09
1.33042e-09
9.93512e-09
1.01498e-09
1.01862e-08
7.60628e-10
1.03634e-08
5.56459e-10
1.04823e-08
3.92951e-10
1.0555e-08
2.62172e-10
1.05912e-08
1.57697e-10
1.05986e-08
7.4386e-11
1.05835e-08
8.15851e-12
1.0551e-08
-4.34716e-11
-8.40079e-11
1.0505e-08
1.68449e-09
3.49205e-09
3.19969e-09
3.1635e-09
4.49917e-09
2.74179e-09
5.5746e-09
2.29703e-09
6.44162e-09
1.87597e-09
7.12702e-09
1.50265e-09
7.66031e-09
1.18498e-09
8.06922e-09
9.21512e-10
8.37782e-09
7.06379e-10
8.60615e-09
5.32302e-10
8.77046e-09
3.92148e-10
8.88381e-09
2.796e-10
8.95663e-09
1.89355e-10
8.99724e-09
1.17087e-10
9.01231e-09
5.93175e-11
9.0072e-09
1.32678e-11
8.98652e-09
-2.27966e-11
-5.10703e-11
8.95359e-09
1.39459e-09
2.09746e-09
2.65484e-09
1.90325e-09
3.7431e-09
1.65353e-09
4.65087e-09
1.38926e-09
5.38874e-09
1.13809e-09
5.97685e-09
9.1454e-10
6.43821e-09
7.23618e-10
6.79498e-09
5.64743e-10
7.06674e-09
4.34624e-10
7.26999e-09
3.2905e-10
7.4183e-09
2.43835e-10
7.52266e-09
1.75245e-10
7.59189e-09
1.20122e-10
7.6331e-09
7.58808e-11
7.65198e-09
4.04338e-11
7.65314e-09
1.2106e-11
7.6405e-09
-1.01583e-11
-2.75473e-11
7.61698e-09
1.15594e-09
9.41523e-10
2.20381e-09
8.5538e-10
3.11287e-09
7.44476e-10
3.87529e-09
6.2684e-10
4.49864e-09
5.1474e-10
4.99849e-09
4.14694e-10
5.39308e-09
3.29026e-10
5.70027e-09
2.57557e-10
5.93601e-09
1.98882e-10
6.11389e-09
1.51167e-10
6.24516e-09
1.12568e-10
6.33897e-09
8.14323e-11
6.40274e-09
5.63566e-11
6.44243e-09
3.61873e-11
6.46287e-09
1.99906e-11
6.46797e-09
7.01409e-12
6.46099e-09
-3.18602e-12
-1.09994e-11
6.44445e-09
9.41523e-10
1.7969e-09
2.54138e-09
3.16822e-09
3.68296e-09
4.09765e-09
4.42668e-09
4.68423e-09
4.88312e-09
5.03428e-09
5.14685e-09
5.22828e-09
5.28464e-09
5.32083e-09
5.34082e-09
5.34783e-09
5.34465e-09
5.33365e-09
1.48234e-09
-1.48234e-09
2.91963e-09
-1.43729e-09
4.27116e-09
-1.35154e-09
5.51276e-09
-1.24159e-09
6.58511e-09
-1.07235e-09
7.53224e-09
-9.47138e-10
8.54187e-09
-1.00963e-09
9.57362e-09
-1.03175e-09
1.05022e-08
-9.28548e-10
1.12381e-08
-7.35894e-10
1.18448e-08
-6.06739e-10
1.23937e-08
-5.48888e-10
1.29471e-08
-5.53428e-10
1.35435e-08
-5.96417e-10
1.41634e-08
-6.19827e-10
1.47537e-08
-5.90359e-10
1.52784e-08
-5.24714e-10
1.57328e-08
-4.5432e-10
1.61276e-08
-3.94871e-10
1.64762e-08
-3.48623e-10
1.67844e-08
-3.08104e-10
1.70462e-08
-2.61891e-10
1.72572e-08
-2.10949e-10
1.74187e-08
-1.61535e-10
1.75343e-08
-1.15536e-10
1.76059e-08
-7.16074e-11
1.7634e-08
-2.8153e-11
1.762e-08
1.40315e-11
1.75666e-08
5.34179e-11
1.74776e-08
8.89821e-11
1.73576e-08
1.20037e-10
1.72114e-08
1.46185e-10
1.70439e-08
1.67424e-10
1.68599e-08
1.84046e-10
1.66634e-08
1.96505e-10
1.64581e-08
2.05312e-10
1.62471e-08
2.10979e-10
1.60331e-08
2.13987e-10
1.58183e-08
2.14778e-10
1.56046e-08
2.13745e-10
1.53934e-08
2.11237e-10
1.51858e-08
2.07561e-10
1.49828e-08
2.0298e-10
1.47851e-08
1.97716e-10
1.45931e-08
1.91959e-10
1.44073e-08
1.85861e-10
1.42277e-08
1.79549e-10
1.40546e-08
1.73125e-10
1.38879e-08
1.6667e-10
1.37277e-08
1.60245e-10
1.35738e-08
1.539e-10
1.34261e-08
1.47672e-10
1.32845e-08
1.41589e-10
1.31489e-08
1.3567e-10
1.30189e-08
1.29931e-10
1.28946e-08
1.24379e-10
1.27755e-08
1.19021e-10
1.26617e-08
1.13859e-10
1.25528e-08
1.08894e-10
1.24487e-08
1.04126e-10
1.23491e-08
9.95498e-11
1.22539e-08
9.51634e-11
1.2163e-08
9.09621e-11
1.2076e-08
8.69412e-11
1.19929e-08
8.30951e-11
1.19135e-08
7.94184e-11
1.18376e-08
7.59056e-11
1.17651e-08
7.25507e-11
1.16957e-08
6.93481e-11
1.16294e-08
6.62924e-11
1.1566e-08
6.33776e-11
1.15054e-08
6.05986e-11
1.14475e-08
5.79501e-11
1.13921e-08
5.54267e-11
1.1339e-08
5.30236e-11
1.12883e-08
5.07358e-11
1.12398e-08
4.85587e-11
1.11933e-08
4.64878e-11
1.11487e-08
4.45188e-11
1.11061e-08
4.26473e-11
1.10652e-08
4.08694e-11
1.1026e-08
3.91813e-11
1.09885e-08
3.75788e-11
1.09524e-08
3.60587e-11
1.09178e-08
3.46173e-11
1.08845e-08
3.32515e-11
1.08526e-08
3.19576e-11
1.08219e-08
3.0733e-11
1.07923e-08
2.95743e-11
1.07638e-08
2.84788e-11
1.07364e-08
2.74438e-11
1.07099e-08
2.64666e-11
1.06843e-08
2.55446e-11
1.06597e-08
2.46752e-11
1.06358e-08
2.38563e-11
1.06127e-08
2.30855e-11
1.05904e-08
2.23605e-11
1.05687e-08
2.16796e-11
1.05476e-08
2.10403e-11
1.05272e-08
2.0441e-11
1.05073e-08
1.98796e-11
1.0488e-08
1.93546e-11
1.04691e-08
1.88639e-11
1.04507e-08
1.84064e-11
1.04327e-08
1.798e-11
1.04151e-08
1.75835e-11
1.03979e-08
1.72154e-11
1.0381e-08
1.68743e-11
1.03645e-08
1.65588e-11
1.03482e-08
1.62677e-11
1.03322e-08
1.59999e-11
1.03165e-08
1.57541e-11
1.03009e-08
1.55291e-11
1.02856e-08
1.53239e-11
1.02705e-08
1.51376e-11
1.02555e-08
1.49693e-11
1.02407e-08
1.48177e-11
1.0226e-08
1.46824e-11
1.02114e-08
1.4562e-11
1.0197e-08
1.44563e-11
1.01826e-08
1.4364e-11
1.01683e-08
1.42847e-11
1.01541e-08
1.42176e-11
1.014e-08
1.41621e-11
1.01258e-08
1.41175e-11
1.01118e-08
1.40831e-11
1.00977e-08
1.40587e-11
1.00837e-08
1.40433e-11
1.00696e-08
1.40367e-11
1.00556e-08
1.40385e-11
1.00415e-08
1.40479e-11
1.00275e-08
1.40648e-11
1.00134e-08
1.40885e-11
9.99926e-09
1.41189e-11
9.98511e-09
1.41556e-11
9.97091e-09
1.41982e-11
9.95666e-09
1.42462e-11
9.94236e-09
1.42998e-11
9.928e-09
1.43584e-11
9.91358e-09
1.44218e-11
9.89909e-09
1.44899e-11
9.88453e-09
1.45624e-11
9.86989e-09
1.46394e-11
9.85517e-09
1.47205e-11
9.84036e-09
1.48059e-11
9.82547e-09
1.48954e-11
9.81048e-09
1.49891e-11
9.79539e-09
1.50871e-11
9.7802e-09
1.51898e-11
9.76491e-09
1.52972e-11
9.7495e-09
1.54097e-11
9.73397e-09
1.55282e-11
9.71831e-09
1.56532e-11
9.70253e-09
1.57856e-11
9.6866e-09
1.5927e-11
9.67052e-09
1.6079e-11
9.65428e-09
1.62439e-11
9.63785e-09
1.64245e-11
9.62123e-09
1.66246e-11
9.60438e-09
1.68489e-11
9.58728e-09
1.71041e-11
9.56988e-09
1.73981e-11
9.55214e-09
1.77419e-11
9.53399e-09
1.81496e-11
9.51535e-09
1.86401e-11
9.49611e-09
1.92384e-11
9.47613e-09
1.99783e-11
9.45522e-09
2.09056e-11
9.43314e-09
2.2084e-11
9.40954e-09
2.36022e-11
9.38395e-09
2.55884e-11
9.35572e-09
2.82319e-11
9.3239e-09
3.18227e-11
9.28707e-09
3.6827e-11
9.24303e-09
4.4042e-11
9.18808e-09
5.49497e-11
9.11543e-09
7.26508e-11
9.01058e-09
1.04845e-10
8.83433e-09
1.76255e-10
4.00934e-10
8.43339e-09
1.35417e-09
-2.83651e-09
2.73335e-09
-2.81647e-09
4.11413e-09
-2.73232e-09
5.50013e-09
-2.62759e-09
6.74514e-09
-2.31736e-09
7.23663e-09
-1.43864e-09
8.45668e-09
-2.22967e-09
1.00116e-08
-2.58669e-09
1.1289e-08
-2.20596e-09
1.17609e-08
-1.20772e-09
1.20827e-08
-9.28566e-10
1.2391e-08
-8.5725e-10
1.28018e-08
-9.64176e-10
1.34726e-08
-1.26722e-09
1.42836e-08
-1.43085e-09
1.4999e-08
-1.30576e-09
1.55348e-08
-1.06052e-09
1.59461e-08
-8.6558e-10
1.62918e-08
-7.40612e-10
1.66178e-08
-6.74582e-10
1.69412e-08
-6.31483e-10
1.72146e-08
-5.35355e-10
1.7417e-08
-4.13283e-10
1.75643e-08
-3.08866e-10
1.76702e-08
-2.21437e-10
1.77373e-08
-1.38679e-10
1.77587e-08
-4.95601e-11
1.77337e-08
3.90191e-11
1.76668e-08
1.20328e-10
1.75629e-08
1.92894e-10
1.74273e-08
2.55552e-10
1.72662e-08
3.07277e-10
1.70853e-08
3.4842e-10
1.68893e-08
3.79966e-10
1.66827e-08
4.03113e-10
1.6469e-08
4.19044e-10
1.62511e-08
4.28852e-10
1.60316e-08
4.33523e-10
1.58124e-08
4.33935e-10
1.55953e-08
4.30866e-10
1.53815e-08
4.25003e-10
1.51722e-08
4.16944e-10
1.49679e-08
4.072e-10
1.47694e-08
3.96203e-10
1.45771e-08
3.84313e-10
1.43911e-08
3.71825e-10
1.42117e-08
3.58978e-10
1.40389e-08
3.45961e-10
1.38726e-08
3.32926e-10
1.37129e-08
3.19989e-10
1.35595e-08
3.0724e-10
1.34125e-08
2.94746e-10
1.32715e-08
2.82559e-10
1.31364e-08
2.70714e-10
1.30071e-08
2.59237e-10
1.28834e-08
2.48142e-10
1.27649e-08
2.37441e-10
1.26517e-08
2.27136e-10
1.25433e-08
2.17228e-10
1.24398e-08
2.07713e-10
1.23407e-08
1.98584e-10
1.2246e-08
1.89836e-10
1.21556e-08
1.81457e-10
1.20691e-08
1.73439e-10
1.19864e-08
1.6577e-10
1.19074e-08
1.58439e-10
1.18318e-08
1.51435e-10
1.17596e-08
1.44746e-10
1.16906e-08
1.38361e-10
1.16246e-08
1.32268e-10
1.15616e-08
1.26457e-10
1.15012e-08
1.20916e-10
1.14436e-08
1.15636e-10
1.13884e-08
1.10604e-10
1.13356e-08
1.05813e-10
1.12851e-08
1.01251e-10
1.12367e-08
9.69101e-11
1.11904e-08
9.27809e-11
1.11461e-08
8.88544e-11
1.11036e-08
8.51226e-11
1.10629e-08
8.15772e-11
1.10239e-08
7.82106e-11
1.09864e-08
7.5015e-11
1.09505e-08
7.19836e-11
1.0916e-08
6.91091e-11
1.08829e-08
6.63851e-11
1.08511e-08
6.38047e-11
1.08204e-08
6.13623e-11
1.07909e-08
5.90514e-11
1.07626e-08
5.68667e-11
1.07352e-08
5.48024e-11
1.07088e-08
5.28534e-11
1.06833e-08
5.10143e-11
1.06587e-08
4.92805e-11
1.06349e-08
4.76472e-11
1.06119e-08
4.61098e-11
1.05896e-08
4.46641e-11
1.0568e-08
4.33056e-11
1.0547e-08
4.20308e-11
1.05266e-08
4.08353e-11
1.05068e-08
3.97158e-11
1.04875e-08
3.86684e-11
1.04686e-08
3.76901e-11
1.04503e-08
3.67775e-11
1.04323e-08
3.59272e-11
1.04148e-08
3.51365e-11
1.03976e-08
3.44023e-11
1.03807e-08
3.37221e-11
1.03642e-08
3.3093e-11
1.03479e-08
3.25127e-11
1.0332e-08
3.19785e-11
1.03162e-08
3.14883e-11
1.03007e-08
3.10397e-11
1.02854e-08
3.0631e-11
1.02703e-08
3.02595e-11
1.02553e-08
2.99239e-11
1.02405e-08
2.9622e-11
1.02259e-08
2.9352e-11
1.02113e-08
2.91125e-11
1.01969e-08
2.89017e-11
1.01825e-08
2.87181e-11
1.01682e-08
2.85603e-11
1.0154e-08
2.84268e-11
1.01399e-08
2.83163e-11
1.01258e-08
2.82278e-11
1.01117e-08
2.81598e-11
1.00976e-08
2.81112e-11
1.00836e-08
2.80811e-11
1.00696e-08
2.80684e-11
1.00555e-08
2.80722e-11
1.00415e-08
2.80915e-11
1.00274e-08
2.81256e-11
1.00133e-08
2.81734e-11
9.99923e-09
2.82345e-11
9.98508e-09
2.83081e-11
9.97088e-09
2.83934e-11
9.95664e-09
2.849e-11
9.94234e-09
2.85972e-11
9.92798e-09
2.87145e-11
9.91356e-09
2.88415e-11
9.89908e-09
2.89779e-11
9.88452e-09
2.91231e-11
9.86988e-09
2.92771e-11
9.85516e-09
2.94394e-11
9.84035e-09
2.96102e-11
9.82546e-09
2.97893e-11
9.81047e-09
2.99768e-11
9.79539e-09
3.01729e-11
9.7802e-09
3.0378e-11
9.7649e-09
3.05927e-11
9.7495e-09
3.08178e-11
9.73397e-09
3.10545e-11
9.71832e-09
3.1304e-11
9.70253e-09
3.15688e-11
9.68661e-09
3.18512e-11
9.67053e-09
3.21547e-11
9.6543e-09
3.24836e-11
9.63788e-09
3.28438e-11
9.62126e-09
3.32427e-11
9.60442e-09
3.369e-11
9.58732e-09
3.41983e-11
9.56994e-09
3.47837e-11
9.55221e-09
3.54679e-11
9.53408e-09
3.62791e-11
9.51547e-09
3.72543e-11
9.49626e-09
3.84434e-11
9.47633e-09
3.9913e-11
9.45548e-09
4.17541e-11
9.43347e-09
4.40913e-11
9.40997e-09
4.71007e-11
9.38453e-09
5.10336e-11
9.3565e-09
5.62601e-11
9.32498e-09
6.33458e-11
9.28861e-09
7.31916e-11
9.24533e-09
8.73209e-11
9.19177e-09
1.08512e-10
9.12205e-09
1.42372e-10
9.02505e-09
2.01848e-10
8.87908e-09
3.22219e-10
6.16311e-10
8.66371e-09
2.72604e-10
-3.10911e-09
5.92008e-10
-3.13587e-09
1.03433e-09
-3.17464e-09
1.64717e-09
-3.24043e-09
2.7054e-09
-3.3756e-09
5.00905e-09
-3.74228e-09
7.30799e-09
-4.5286e-09
9.81597e-09
-5.09467e-09
1.31867e-08
-5.57674e-09
1.23465e-08
-3.67512e-10
1.18772e-08
-4.59204e-10
1.16013e-08
-5.81394e-10
1.14634e-08
-8.26272e-10
1.28324e-08
-2.63616e-09
1.47572e-08
-3.3557e-09
1.58937e-08
-2.44221e-09
1.62363e-08
-1.40313e-09
1.63933e-08
-1.02257e-09
1.65308e-08
-8.78187e-10
1.6775e-08
-9.18759e-10
1.72668e-08
-1.12329e-09
1.76162e-08
-8.84716e-10
1.77541e-08
-5.51188e-10
1.78411e-08
-3.95898e-10
1.79263e-08
-3.06666e-10
1.80065e-08
-2.18878e-10
1.80203e-08
-6.32666e-11
1.79683e-08
9.10174e-11
1.78711e-08
2.17511e-10
1.77347e-08
3.29236e-10
1.75651e-08
4.25138e-10
1.73722e-08
5.00223e-10
1.71632e-08
5.57449e-10
1.69434e-08
5.99726e-10
1.67169e-08
6.29602e-10
1.64868e-08
6.49121e-10
1.62557e-08
6.59986e-10
1.60256e-08
6.6365e-10
1.57981e-08
6.61387e-10
1.55747e-08
6.54324e-10
1.53562e-08
6.43456e-10
1.51435e-08
6.29645e-10
1.49371e-08
6.13621e-10
1.47373e-08
5.95994e-10
1.45444e-08
5.77264e-10
1.43583e-08
5.57837e-10
1.41793e-08
5.38036e-10
1.40071e-08
5.18116e-10
1.38418e-08
4.98275e-10
1.36831e-08
4.78668e-10
1.35309e-08
4.5941e-10
1.33851e-08
4.40589e-10
1.32454e-08
4.22266e-10
1.31116e-08
4.04487e-10
1.29836e-08
3.87281e-10
1.2861e-08
3.70667e-10
1.27438e-08
3.54654e-10
1.26317e-08
3.39245e-10
1.25245e-08
3.24437e-10
1.2422e-08
3.10222e-10
1.2324e-08
2.96589e-10
1.22303e-08
2.83527e-10
1.21407e-08
2.71019e-10
1.20551e-08
2.59051e-10
1.19733e-08
2.47606e-10
1.18951e-08
2.36666e-10
1.18203e-08
2.26214e-10
1.17488e-08
2.16233e-10
1.16805e-08
2.06705e-10
1.16151e-08
1.97614e-10
1.15526e-08
1.88943e-10
1.14929e-08
1.80674e-10
1.14357e-08
1.72794e-10
1.1381e-08
1.65286e-10
1.13287e-08
1.58135e-10
1.12786e-08
1.51327e-10
1.12307e-08
1.44848e-10
1.11848e-08
1.38685e-10
1.11408e-08
1.32825e-10
1.10987e-08
1.27255e-10
1.10583e-08
1.21962e-10
1.10196e-08
1.16937e-10
1.09824e-08
1.12167e-10
1.09468e-08
1.07642e-10
1.09125e-08
1.0335e-10
1.08796e-08
9.92836e-11
1.0848e-08
9.54315e-11
1.08176e-08
9.17849e-11
1.07883e-08
8.8335e-11
1.07601e-08
8.5073e-11
1.07329e-08
8.1991e-11
1.07067e-08
7.90809e-11
1.06813e-08
7.63351e-11
1.06569e-08
7.37464e-11
1.06332e-08
7.13076e-11
1.06103e-08
6.90121e-11
1.05881e-08
6.68534e-11
1.05666e-08
6.48252e-11
1.05457e-08
6.29215e-11
1.05254e-08
6.11367e-11
1.05057e-08
5.94651e-11
1.04864e-08
5.79015e-11
1.04677e-08
5.64408e-11
1.04494e-08
5.50782e-11
1.04315e-08
5.38088e-11
1.0414e-08
5.26283e-11
1.03969e-08
5.15324e-11
1.03801e-08
5.0517e-11
1.03636e-08
4.9578e-11
1.03474e-08
4.87117e-11
1.03315e-08
4.79146e-11
1.03158e-08
4.71831e-11
1.03003e-08
4.65138e-11
1.0285e-08
4.59038e-11
1.02699e-08
4.535e-11
1.0255e-08
4.48493e-11
1.02402e-08
4.43991e-11
1.02256e-08
4.39969e-11
1.02111e-08
4.36398e-11
1.01966e-08
4.33258e-11
1.01823e-08
4.30524e-11
1.0168e-08
4.28176e-11
1.01538e-08
4.26191e-11
1.01397e-08
4.24552e-11
1.01256e-08
4.23237e-11
1.01115e-08
4.22231e-11
1.00975e-08
4.21516e-11
1.00835e-08
4.21076e-11
1.00695e-08
4.20897e-11
1.00554e-08
4.20965e-11
1.00414e-08
4.21263e-11
1.00273e-08
4.21783e-11
1.00133e-08
4.2251e-11
9.99916e-09
4.23434e-11
9.98502e-09
4.24543e-11
9.97083e-09
4.2583e-11
9.95659e-09
4.27284e-11
9.9423e-09
4.28898e-11
9.92794e-09
4.30662e-11
9.91353e-09
4.32571e-11
9.89904e-09
4.34619e-11
9.88449e-09
4.36802e-11
9.86985e-09
4.39114e-11
9.85514e-09
4.41552e-11
9.84034e-09
4.44116e-11
9.82544e-09
4.46803e-11
9.81046e-09
4.49615e-11
9.79538e-09
4.52557e-11
9.78019e-09
4.55633e-11
9.7649e-09
4.58852e-11
9.74949e-09
4.62225e-11
9.73397e-09
4.65769e-11
9.71833e-09
4.69508e-11
9.70255e-09
4.73471e-11
9.68663e-09
4.77695e-11
9.67056e-09
4.82233e-11
9.65433e-09
4.87149e-11
9.63792e-09
4.92529e-11
9.62131e-09
4.98483e-11
9.60449e-09
5.05154e-11
9.58741e-09
5.12727e-11
9.57005e-09
5.21445e-11
9.55236e-09
5.31627e-11
9.53427e-09
5.43686e-11
9.51571e-09
5.58174e-11
9.49657e-09
5.75822e-11
9.47672e-09
5.97616e-11
9.45598e-09
6.2489e-11
9.43413e-09
6.59478e-11
9.41083e-09
7.03948e-11
9.38567e-09
7.61964e-11
9.35804e-09
8.38891e-11
9.3271e-09
9.42843e-11
9.29163e-09
1.08661e-10
9.24981e-09
1.29143e-10
9.19883e-09
1.59491e-10
9.13427e-09
2.06934e-10
9.04939e-09
2.86729e-10
8.93751e-09
4.34102e-10
7.31637e-10
8.82218e-09
2.61955e-10
-3.37107e-09
5.34154e-10
-3.40807e-09
8.19361e-10
-3.45984e-09
1.11001e-09
-3.53108e-09
1.3641e-09
-3.62968e-09
1.39409e-09
-3.77227e-09
7.91106e-10
-3.92562e-09
-3.5166e-10
-3.95191e-09
-2.20859e-09
-3.7198e-09
4.07595e-10
-2.9837e-09
2.68757e-09
-2.73918e-09
5.0087e-09
-2.90253e-09
7.79226e-09
-3.60982e-09
1.04545e-08
-5.29844e-09
1.36537e-08
-6.55492e-09
1.79342e-08
-6.7227e-09
1.68394e-08
-3.08316e-10
1.62199e-08
-4.03008e-10
1.58842e-08
-5.42534e-10
1.58719e-08
-9.06416e-10
1.80291e-08
-3.28049e-09
1.87011e-08
-1.5567e-09
1.82561e-08
-1.0618e-10
1.81259e-08
-2.6579e-10
1.81991e-08
-3.79815e-10
1.84759e-08
-4.95674e-10
1.84757e-08
-6.30727e-11
1.83329e-08
2.33804e-10
1.81852e-08
3.65186e-10
1.79974e-08
5.17047e-10
1.77645e-08
6.58089e-10
1.75185e-08
7.46198e-10
1.72662e-08
8.09759e-10
1.70115e-08
8.5444e-10
1.67566e-08
8.84438e-10
1.65036e-08
9.02136e-10
1.62541e-08
9.0954e-10
1.60094e-08
9.08353e-10
1.57706e-08
9.00115e-10
1.55387e-08
8.86246e-10
1.53142e-08
8.68017e-10
1.50973e-08
8.46517e-10
1.48883e-08
8.22653e-10
1.46871e-08
7.97162e-10
1.44937e-08
7.70633e-10
1.4308e-08
7.43535e-10
1.41298e-08
7.16231e-10
1.39589e-08
6.89007e-10
1.37951e-08
6.62078e-10
1.36382e-08
6.35609e-10
1.34879e-08
6.09721e-10
1.3344e-08
5.84503e-10
1.32062e-08
5.60017e-10
1.30744e-08
5.36308e-10
1.29483e-08
5.13401e-10
1.28276e-08
4.91311e-10
1.27122e-08
4.70043e-10
1.26019e-08
4.49594e-10
1.24964e-08
4.29955e-10
1.23955e-08
4.11112e-10
1.2299e-08
3.9305e-10
1.22068e-08
3.75748e-10
1.21186e-08
3.59186e-10
1.20343e-08
3.4334e-10
1.19538e-08
3.28189e-10
1.18767e-08
3.13708e-10
1.18031e-08
2.99874e-10
1.17326e-08
2.86663e-10
1.16653e-08
2.74052e-10
1.16009e-08
2.62019e-10
1.15393e-08
2.50541e-10
1.14804e-08
2.39597e-10
1.1424e-08
2.29166e-10
1.137e-08
2.19227e-10
1.13184e-08
2.0976e-10
1.1269e-08
2.00748e-10
1.12217e-08
1.9217e-10
1.11763e-08
1.8401e-10
1.11329e-08
1.7625e-10
1.10913e-08
1.68874e-10
1.10514e-08
1.61867e-10
1.10131e-08
1.55212e-10
1.09764e-08
1.48894e-10
1.09411e-08
1.42901e-10
1.09073e-08
1.37218e-10
1.08747e-08
1.31831e-10
1.08434e-08
1.26729e-10
1.08133e-08
1.21899e-10
1.07843e-08
1.17329e-10
1.07564e-08
1.13008e-10
1.07294e-08
1.08926e-10
1.07035e-08
1.05071e-10
1.06784e-08
1.01433e-10
1.06541e-08
9.80039e-11
1.06306e-08
9.47731e-11
1.06079e-08
9.17321e-11
1.05859e-08
8.88724e-11
1.05645e-08
8.61856e-11
1.05438e-08
8.36636e-11
1.05236e-08
8.12993e-11
1.0504e-08
7.90848e-11
1.04849e-08
7.70136e-11
1.04663e-08
7.50788e-11
1.04481e-08
7.32737e-11
1.04303e-08
7.15925e-11
1.04129e-08
7.0029e-11
1.03958e-08
6.85776e-11
1.03791e-08
6.72328e-11
1.03627e-08
6.59895e-11
1.03466e-08
6.48426e-11
1.03307e-08
6.37871e-11
1.03151e-08
6.28189e-11
1.02997e-08
6.19333e-11
1.02844e-08
6.1126e-11
1.02694e-08
6.03933e-11
1.02545e-08
5.97312e-11
1.02398e-08
5.91359e-11
1.02252e-08
5.86041e-11
1.02107e-08
5.81326e-11
1.01963e-08
5.7718e-11
1.0182e-08
5.73572e-11
1.01677e-08
5.70477e-11
1.01536e-08
5.67862e-11
1.01395e-08
5.65706e-11
1.01254e-08
5.63983e-11
1.01113e-08
5.62666e-11
1.00973e-08
5.61739e-11
1.00833e-08
5.61175e-11
1.00693e-08
5.60958e-11
1.00553e-08
5.61066e-11
1.00413e-08
5.61483e-11
1.00272e-08
5.62191e-11
1.00132e-08
5.63176e-11
9.99906e-09
5.64422e-11
9.98493e-09
5.65914e-11
9.97075e-09
5.67642e-11
9.95651e-09
5.6959e-11
9.94223e-09
5.71751e-11
9.92788e-09
5.74112e-11
9.91348e-09
5.76667e-11
9.899e-09
5.79404e-11
9.88444e-09
5.8232e-11