/*--------------------------------*- C++ -*----------------------------------*\
  =========                 |
  \\      /  F ield         | OpenFOAM: The Open Source CFD Toolbox
   \\    /   O peration     | Website:  https://openfoam.org
    \\  /    A nd           | Version:  10
     \\/     M anipulation  |
\*---------------------------------------------------------------------------*/
FoamFile
{
    format      ascii;
    class       volVectorField;
    location    "1.63";
    object      Ua;
}
// * * * * * * * * * * * * * * * * * * * * * * * * * * * * * * * * * * * * * //

dimensions      [0 1 -1 0 0 0 0];

internalField   nonuniform List<vector> 
12225
(
(2.52876e-05 -3.25488e-06 0)
(7.39289e-05 -3.04844e-06 0)
(0.000118038 -2.66914e-06 0)
(0.000156918 -2.24203e-06 0)
(0.000190869 -1.85162e-06 0)
(0.000220696 -1.53994e-06 0)
(0.000247353 -1.32137e-06 0)
(0.000271756 -1.19743e-06 0)
(0.000294723 -1.16709e-06 0)
(0.000316992 -1.23353e-06 0)
(0.000339268 -1.40973e-06 0)
(0.000362313 -1.7261e-06 0)
(0.000387083 -2.24545e-06 0)
(0.000414984 -3.09869e-06 0)
(0.000448463 -4.5844e-06 0)
(0.000492662 -7.51085e-06 0)
(0.000561679 -1.47549e-05 0)
(0.0007121 -4.11541e-05 0)
(1.71827e-05 -8.42377e-06 0)
(5.06138e-05 -7.93887e-06 0)
(8.17709e-05 -6.99939e-06 0)
(0.000110153 -5.92006e-06 0)
(0.000135782 -4.92102e-06 0)
(0.000158999 -4.1171e-06 0)
(0.000180282 -3.55203e-06 0)
(0.000200138 -3.23508e-06 0)
(0.000219051 -3.1678e-06 0)
(0.000237485 -3.36215e-06 0)
(0.000255905 -3.85589e-06 0)
(0.000274825 -4.73345e-06 0)
(0.000294898 -6.16592e-06 0)
(0.000317066 -8.50425e-06 0)
(0.000342874 -1.25301e-05 0)
(0.000375147 -2.02568e-05 0)
(0.000418921 -3.80907e-05 0)
(0.000472693 -9.24836e-05 0)
(1.33004e-05 -1.15697e-05 0)
(3.94238e-05 -1.10036e-05 0)
(6.43109e-05 -9.7955e-06 0)
(8.75658e-05 -8.36153e-06 0)
(0.000109099 -7.00818e-06 0)
(0.000129048 -5.906e-06 0)
(0.000147673 -5.12849e-06 0)
(0.000165284 -4.6994e-06 0)
(0.000182204 -4.62953e-06 0)
(0.000198757 -4.94288e-06 0)
(0.000215279 -5.69959e-06 0)
(0.00023215 -7.02614e-06 0)
(0.000249839 -9.1714e-06 0)
(0.000268981 -1.2631e-05 0)
(0.000290485 -1.84579e-05 0)
(0.000315506 -2.91294e-05 0)
(0.000344017 -5.11763e-05 0)
(0.000363702 -0.000102701 0)
(1.07917e-05 -1.36083e-05 0)
(3.21726e-05 -1.30647e-05 0)
(5.29455e-05 -1.17417e-05 0)
(7.27883e-05 -1.01123e-05 0)
(9.15582e-05 -8.54275e-06 0)
(0.000109275 -7.24916e-06 0)
(0.000126068 -6.33393e-06 0)
(0.000142124 -5.83814e-06 0)
(0.000157658 -5.78475e-06 0)
(0.0001729 -6.21077e-06 0)
(0.000188093 -7.1956e-06 0)
(0.000203513 -8.89729e-06 0)
(0.000219479 -1.16161e-05 0)
(0.000236373 -1.59257e-05 0)
(0.000254583 -2.29673e-05 0)
(0.000274109 -3.51305e-05 0)
(0.000292692 -5.75076e-05 0)
(0.000299066 -9.94225e-05 0)
(8.97137e-06 -1.48601e-05 0)
(2.68949e-05 -1.44072e-05 0)
(4.46304e-05 -1.30714e-05 0)
(6.19136e-05 -1.13546e-05 0)
(7.85763e-05 -9.6651e-06 0)
(9.45673e-05 -8.2561e-06 0)
(0.000109928 -7.2572e-06 0)
(0.00012476 -6.7278e-06 0)
(0.000139199 -6.70423e-06 0)
(0.0001534 -7.23602e-06 0)
(0.000167533 -8.41779e-06 0)
(0.000181782 -1.0428e-05 0)
(0.000196342 -1.35918e-05 0)
(0.000211378 -1.84987e-05 0)
(0.00022689 -2.62292e-05 0)
(0.000242212 -3.87601e-05 0)
(0.000254564 -5.94226e-05 0)
(0.000256044 -9.18759e-05 0)
(7.56781e-06 -1.54895e-05 0)
(2.28117e-05 -1.51756e-05 0)
(3.81614e-05 -1.39e-05 0)
(5.33986e-05 -1.21757e-05 0)
(6.83477e-05 -1.04395e-05 0)
(8.29138e-05 -8.97469e-06 0)
(9.70786e-05 -7.93551e-06 0)
(0.00011088 -7.39923e-06 0)
(0.000124392 -7.41549e-06 0)
(0.000137708 -8.04486e-06 0)
(0.000150937 -9.39232e-06 0)
(0.000164184 -1.16451e-05 0)
(0.000177534 -1.51282e-05 0)
(0.000190988 -2.03944e-05 0)
(0.000204289 -2.83652e-05 0)
(0.000216501 -4.04871e-05 0)
(0.000225139 -5.86143e-05 0)
(0.000225281 -8.34823e-05 0)
(6.44535e-06 -1.5599e-05 0)
(1.95347e-05 -1.54582e-05 0)
(3.29385e-05 -1.42956e-05 0)
(4.64765e-05 -1.26242e-05 0)
(5.99761e-05 -1.08993e-05 0)
(7.33183e-05 -9.42775e-06 0)
(8.64436e-05 -8.38487e-06 0)
(9.93417e-05 -7.86443e-06 0)
(0.000112037 -7.92825e-06 0)
(0.000124573 -8.64569e-06 0)
(0.000137003 -1.01267e-05 0)
(0.000149366 -1.25563e-05 0)
(0.00016166 -1.62374e-05 0)
(0.000173768 -2.16496e-05 0)
(0.000185301 -2.95091e-05 0)
(0.000195309 -4.07593e-05 0)
(0.000201878 -5.62347e-05 0)
(0.000202149 -7.54487e-05 0)
(5.52617e-06 -1.52618e-05 0)
(1.68411e-05 -1.53165e-05 0)
(2.86181e-05 -1.43036e-05 0)
(4.07085e-05 -1.27303e-05 0)
(5.29511e-05 -1.1063e-05 0)
(6.52154e-05 -9.62583e-06 0)
(7.74143e-05 -8.6109e-06 0)
(8.95013e-05 -8.12613e-06 0)
(0.00010146 -8.24361e-06 0)
(0.000113293 -9.03864e-06 0)
(0.000125004 -1.06209e-05 0)
(0.000136581 -1.31632e-05 0)
(0.000147954 -1.6931e-05 0)
(0.000158936 -2.23104e-05 0)
(0.000169101 -2.98107e-05 0)
(0.00017762 -3.99712e-05 0)
(0.000183144 -5.302e-05 0)
(0.000184097 -6.81218e-05 0)
(4.76116e-06 -1.45365e-05 0)
(1.459e-05 -1.47984e-05 0)
(2.4983e-05 -1.39574e-05 0)
(3.58186e-05 -1.25144e-05 0)
(4.69524e-05 -1.09414e-05 0)
(5.8252e-05 -9.57316e-06 0)
(6.96129e-05 -8.61388e-06 0)
(8.09612e-05 -8.18236e-06 0)
(9.22481e-05 -8.35844e-06 0)
(0.000103439 -9.22023e-06 0)
(0.000114501 -1.08723e-05 0)
(0.000125378 -1.34679e-05 0)
(0.000135958 -1.72259e-05 0)
(0.000146021 -2.2435e-05 0)
(0.000155164 -2.94234e-05 0)
(0.000162728 -3.84445e-05 0)
(0.000167819 -4.94166e-05 0)
(0.000169605 -6.15297e-05 0)
(4.11688e-06 -1.34755e-05 0)
(1.26853e-05 -1.3945e-05 0)
(2.18848e-05 -1.32843e-05 0)
(3.16187e-05 -1.19922e-05 0)
(4.17635e-05 -1.05415e-05 0)
(5.21917e-05 -9.27097e-06 0)
(6.27886e-05 -8.39162e-06 0)
(7.34594e-05 -8.02912e-06 0)
(8.4129e-05 -8.26803e-06 0)
(9.47342e-05 -9.1862e-06 0)
(0.00010521 -1.08792e-05 0)
(0.000115469 -1.34763e-05 0)
(0.000125377 -1.71468e-05 0)
(0.000134709 -2.209e-05 0)
(0.000143116 -2.84922e-05 0)
(0.000150106 -3.64257e-05 0)
(0.000155114 -4.56817e-05 0)
(0.000157716 -5.55968e-05 0)
(3.5689e-06 -1.21299e-05 0)
(1.10563e-05 -1.27939e-05 0)
(1.92144e-05 -1.23084e-05 0)
(2.79715e-05 -1.11769e-05 0)
(3.72282e-05 -9.86869e-06 0)
(4.68662e-05 -8.71975e-06 0)
(5.67649e-05 -7.94155e-06 0)
(6.6814e-05 -7.6623e-06 0)
(7.69174e-05 -7.96798e-06 0)
(8.69883e-05 -8.93343e-06 0)
(9.69382e-05 -1.06426e-05 0)
(0.00010666 -1.31989e-05 0)
(0.000116009 -1.67251e-05 0)
(0.000124775 -2.13456e-05 0)
(0.000132674 -2.71454e-05 0)
(0.000139353 -3.40951e-05 0)
(0.000144464 -4.19572e-05 0)
(0.000147802 -5.02267e-05 0)
(3.06006e-06 -1.06736e-05 0)
(9.54936e-06 -1.14964e-05 0)
(1.67594e-05 -1.11612e-05 0)
(2.46413e-05 -1.01814e-05 0)
(3.31118e-05 -9.01886e-06 0)
(4.20554e-05 -8.00022e-06 0)
(5.13437e-05 -7.33214e-06 0)
(6.08528e-05 -7.14146e-06 0)
(7.04696e-05 -7.51303e-06 0)
(8.00905e-05 -8.51709e-06 0)
(8.96119e-05 -1.02258e-05 0)
(9.89175e-05 -1.27199e-05 0)
(0.000107863 -1.60838e-05 0)
(0.000116263 -2.03878e-05 0)
(0.000123888 -2.56534e-05 0)
(0.000130482 -3.18028e-05 0)
(0.000135823 -3.86115e-05 0)
(0.000139803 -4.56988e-05 0)
(2.72792e-06 -9.07693e-06 0)
(8.54342e-06 -1.0016e-05 0)
(1.50739e-05 -9.80348e-06 0)
(2.22989e-05 -8.96758e-06 0)
(3.01595e-05 -7.95642e-06 0)
(3.85512e-05 -7.08024e-06 0)
(4.73455e-05 -6.53496e-06 0)
(5.64111e-05 -6.44209e-06 0)
(6.56239e-05 -6.88285e-06 0)
(7.48683e-05 -7.92154e-06 0)
(8.40301e-05 -9.61865e-06 0)
(9.29871e-05 -1.20344e-05 0)
(0.000101599 -1.5223e-05 0)
(0.000109703 -1.9216e-05 0)
(0.000117112 -2.39967e-05 0)
(0.000123645 -2.94693e-05 0)
(0.000129158 -3.54377e-05 0)
(0.000133601 -4.16145e-05 0)
(2.39498e-06 -7.16768e-06 0)
(7.51967e-06 -8.15932e-06 0)
(1.33383e-05 -8.03688e-06 0)
(1.98787e-05 -7.34549e-06 0)
(2.71097e-05 -6.50739e-06 0)
(3.49353e-05 -5.80349e-06 0)
(4.32239e-05 -5.41003e-06 0)
(5.18353e-05 -5.43773e-06 0)
(6.06348e-05 -5.96082e-06 0)
(6.94961e-05 -7.03542e-06 0)
(7.8297e-05 -8.70896e-06 0)
(8.69133e-05 -1.10217e-05 0)
(9.52135e-05 -1.4001e-05 0)
(0.000103058 -1.7649e-05 0)
(0.000110305 -2.19263e-05 0)
(0.000116831 -2.6736e-05 0)
(0.000122551 -3.1919e-05 0)
(0.000127447 -3.72673e-05 0)
(2.04534e-06 -4.98255e-06 0)
(6.43299e-06 -5.87993e-06 0)
(1.14946e-05 -5.78178e-06 0)
(1.73334e-05 -5.22616e-06 0)
(2.39402e-05 -4.58293e-06 0)
(3.12156e-05 -4.08373e-06 0)
(3.90156e-05 -3.87353e-06 0)
(4.71869e-05 -4.04601e-06 0)
(5.55833e-05 -4.66481e-06 0)
(6.40694e-05 -5.77598e-06 0)
(7.25188e-05 -7.41396e-06 0)
(8.08108e-05 -9.60212e-06 0)
(8.88286e-05 -1.23484e-05 0)
(9.64607e-05 -1.56377e-05 0)
(0.000103607 -1.94226e-05 0)
(0.000110189 -2.36181e-05 0)
(0.000116161 -2.81024e-05 0)
(0.00012152 -3.27288e-05 0)
(1.60625e-06 -2.5994e-06 0)
(5.09914e-06 -3.12908e-06 0)
(9.32068e-06 -2.96733e-06 0)
(1.44646e-05 -2.54235e-06 0)
(2.0505e-05 -2.12011e-06 0)
(2.73035e-05 -1.85658e-06 0)
(3.46801e-05 -1.85442e-06 0)
(4.24562e-05 -2.18646e-06 0)
(5.04724e-05 -2.90515e-06 0)
(5.85926e-05 -4.04923e-06 0)
(6.67016e-05 -5.64595e-06 0)
(7.47007e-05 -7.70885e-06 0)
(8.25023e-05 -1.02356e-05 0)
(9.00281e-05 -1.32036e-05 0)
(9.72107e-05 -1.65662e-05 0)
(0.000103997 -2.02519e-05 0)
(0.000110354 -2.41679e-05 0)
(0.000116271 -2.82088e-05 0)
(8.16537e-07 7.05012e-09 0)
(2.83172e-06 1.89359e-07 0)
(5.88425e-06 4.40638e-07 0)
(1.02017e-05 6.89534e-07 0)
(1.56165e-05 8.5765e-07 0)
(2.18943e-05 8.63723e-07 0)
(2.88293e-05 6.36866e-07 0)
(3.62487e-05 1.22069e-07 0)
(4.40022e-05 -7.20284e-07 0)
(5.1984e-05 -1.96951e-06 0)
(6.01184e-05 -3.62603e-06 0)
(6.83053e-05 -5.66202e-06 0)
(7.64327e-05 -8.06935e-06 0)
(8.44025e-05 -1.08219e-05 0)
(9.21316e-05 -1.38758e-05 0)
(9.9554e-05 -1.71709e-05 0)
(0.000106623 -2.06353e-05 0)
(0.000113312 -2.41915e-05 0)
(1.92091e-06 3.11246e-06 0)
(5.88267e-06 4.21336e-06 0)
(1.02331e-05 4.6999e-06 0)
(1.51976e-05 4.8286e-06 0)
(2.08634e-05 4.72277e-06 0)
(2.72056e-05 4.40342e-06 0)
(3.41307e-05 3.85397e-06 0)
(4.15165e-05 3.0518e-06 0)
(4.92363e-05 1.97884e-06 0)
(5.71446e-05 5.72284e-07 0)
(6.5089e-05 -1.15158e-06 0)
(7.30272e-05 -3.30315e-06 0)
(8.09507e-05 -5.73934e-06 0)
(8.87783e-05 -8.40303e-06 0)
(9.64285e-05 -1.1257e-05 0)
(0.000103837 -1.42549e-05 0)
(0.000110959 -1.73446e-05 0)
(0.000117763 -2.04727e-05 0)
(2.6912e-06 7.39697e-06 0)
(8.25783e-06 9.1051e-06 0)
(1.41996e-05 9.87166e-06 0)
(2.05431e-05 9.96616e-06 0)
(2.73162e-05 9.60206e-06 0)
(3.45142e-05 8.90682e-06 0)
(4.20936e-05 7.94661e-06 0)
(4.99826e-05 6.75361e-06 0)
(5.80944e-05 5.34414e-06 0)
(6.63378e-05 3.72816e-06 0)
(7.46247e-05 1.91864e-06 0)
(8.2816e-05 -2.203e-07 0)
(9.07934e-05 -2.58691e-06 0)
(9.85576e-05 -5.17905e-06 0)
(0.000106107 -7.85493e-06 0)
(0.000113403 -1.05839e-05 0)
(0.000120418 -1.3333e-05 0)
(0.000127136 -1.60697e-05 0)
(3.07821e-06 1.21764e-05 0)
(9.50348e-06 1.38802e-05 0)
(1.64268e-05 1.46192e-05 0)
(2.37852e-05 1.45722e-05 0)
(3.15337e-05 1.39505e-05 0)
(3.96229e-05 1.29223e-05 0)
(4.79903e-05 1.16031e-05 0)
(5.65614e-05 1.00667e-05 0)
(6.52559e-05 8.35939e-06 0)
(7.39929e-05 6.51142e-06 0)
(8.26966e-05 4.54476e-06 0)
(9.12979e-05 2.47724e-06 0)
(9.97168e-05 2.81708e-07 0)
(0.000107856 -2.12947e-06 0)
(0.000115699 -4.64285e-06 0)
(0.000123271 -7.14585e-06 0)
(0.000130549 -9.61935e-06 0)
(0.000137522 -1.20447e-05 0)
(3.67902e-06 1.63142e-05 0)
(1.12957e-05 1.76895e-05 0)
(1.93926e-05 1.81528e-05 0)
(2.78944e-05 1.7833e-05 0)
(3.67265e-05 1.69259e-05 0)
(4.58148e-05 1.56078e-05 0)
(5.50822e-05 1.40116e-05 0)
(6.44496e-05 1.2229e-05 0)
(7.38386e-05 1.03199e-05 0)
(8.31752e-05 8.32343e-06 0)
(9.23922e-05 6.26593e-06 0)
(0.000101431 4.16699e-06 0)
(0.000110243 2.04283e-06 0)
(0.00011876 -1.4658e-07 0)
(0.000126925 -2.49277e-06 0)
(0.000134747 -4.83005e-06 0)
(0.000142239 -7.10478e-06 0)
(0.000149396 -9.30655e-06 0)
(4.4179e-06 1.96899e-05 0)
(1.34718e-05 2.06737e-05 0)
(2.29345e-05 2.07867e-05 0)
(3.27353e-05 2.01499e-05 0)
(4.27852e-05 1.8953e-05 0)
(5.29932e-05 1.73739e-05 0)
(6.32709e-05 1.5552e-05 0)
(7.35348e-05 1.35857e-05 0)
(8.37083e-05 1.15401e-05 0)
(9.37232e-05 9.45678e-06 0)
(0.000103521 7.36238e-06 0)
(0.000113054 5.27456e-06 0)
(0.000122282 3.20628e-06 0)
(0.000131178 1.16802e-06 0)
(0.000139674 -9.31545e-07 0)
(0.000147757 -3.09976e-06 0)
(0.00015547 -5.18332e-06 0)
(0.000162813 -7.1779e-06 0)
(5.31638e-06 2.20858e-05 0)
(1.61082e-05 2.26944e-05 0)
(2.71958e-05 2.24584e-05 0)
(3.85107e-05 2.1516e-05 0)
(4.99555e-05 2.00596e-05 0)
(6.14296e-05 1.82683e-05 0)
(7.28387e-05 1.6282e-05 0)
(8.4099e-05 1.41993e-05 0)
(9.51388e-05 1.20847e-05 0)
(0.000105898 9.97786e-06 0)
(0.00011633 7.90249e-06 0)
(0.000126398 5.87252e-06 0)
(0.000136074 3.89653e-06 0)
(0.000145343 1.98036e-06 0)
(0.000154187 1.13196e-07 0)
(0.000162574 -1.8436e-06 0)
(0.000170508 -3.7329e-06 0)
(0.000178026 -5.52423e-06 0)
(6.40462e-06 2.33979e-05 0)
(1.92974e-05 2.3678e-05 0)
(3.2332e-05 2.31375e-05 0)
(4.54331e-05 2.19397e-05 0)
(5.84962e-05 2.02838e-05 0)
(7.14164e-05 1.83488e-05 0)
(8.41002e-05 1.62715e-05 0)
(9.64699e-05 1.41465e-05 0)
(0.000108464 1.20335e-05 0)
(0.000120037 9.96746e-06 0)
(0.000131155 7.96734e-06 0)
(0.000141796 6.0423e-06 0)
(0.000151949 4.19626e-06 0)
(0.000161609 2.43059e-06 0)
(0.00017078 7.45577e-07 0)
(0.000179438 -9.57478e-07 0)
(0.000187591 -2.64573e-06 0)
(0.000195283 -4.23301e-06 0)
(7.72862e-06 2.3582e-05 0)
(2.31743e-05 2.35935e-05 0)
(3.85592e-05 2.28178e-05 0)
(5.379e-05 2.1441e-05 0)
(6.87541e-05 1.96679e-05 0)
(8.33473e-05 1.76739e-05 0)
(9.7485e-05 1.55896e-05 0)
(0.000111104 1.3502e-05 0)
(0.00012416 1.14637e-05 0)
(0.000136628 9.50316e-06 0)
(0.000148494 7.6337e-06 0)
(0.000159757 5.85952e-06 0)
(0.00017042 4.18017e-06 0)
(0.000180498 2.59307e-06 0)
(0.000190005 1.09494e-06 0)
(0.000198941 -3.54548e-07 0)
(0.000207323 -1.83369e-06 0)
(0.000215198 -3.21403e-06 0)
(9.36225e-06 2.2616e-05 0)
(2.79534e-05 2.24256e-05 0)
(4.6218e-05 2.15001e-05 0)
(6.40306e-05 2.00397e-05 0)
(8.12695e-05 1.82482e-05 0)
(9.78378e-05 1.62931e-05 0)
(0.000113669 1.42943e-05 0)
(0.000128725 1.23285e-05 0)
(0.000142991 1.04398e-05 0)
(0.000156468 8.64949e-06 0)
(0.000169171 6.96508e-06 0)
(0.000181121 5.38631e-06 0)
(0.000192348 3.90906e-06 0)
(0.000202881 2.52776e-06 0)
(0.000212756 1.2366e-06 0)
(0.000222002 2.40741e-08 0)
(0.000230636 -1.22784e-06 0)
(0.00023869 -2.39802e-06 0)
(1.14356e-05 2.04663e-05 0)
(3.40131e-05 2.0146e-05 0)
(5.59082e-05 1.9169e-05 0)
(7.69467e-05 1.77361e-05 0)
(9.69964e-05 1.604e-05 0)
(0.000115977 1.42331e-05 0)
(0.000133852 1.24205e-05 0)
(0.000150626 1.06664e-05 0)
(0.000166323 9.00494e-06 0)
(0.000180985 7.45053e-06 0)
(0.000194664 6.00564e-06 0)
(0.000207414 4.66647e-06 0)
(0.000219291 3.42639e-06 0)
(0.000230351 2.27795e-06 0)
(0.000240647 1.21392e-06 0)
(0.000250231 2.27812e-07 0)
(0.000259132 -7.77543e-07 0)
(0.000267392 -1.73332e-06 0)
(1.42126e-05 1.70387e-05 0)
(4.21218e-05 1.66682e-05 0)
(6.88506e-05 1.57534e-05 0)
(9.41527e-05 1.44773e-05 0)
(0.000117885 1.30083e-05 0)
(0.000139995 1.14744e-05 0)
(0.000160501 9.96089e-06 0)
(0.000179466 8.51709e-06 0)
(0.000196978 7.1672e-06 0)
(0.000213136 5.91924e-06 0)
(0.000228041 4.77196e-06 0)
(0.000241794 3.7195e-06 0)
(0.000254487 2.75415e-06 0)
(0.000266206 1.868e-06 0)
(0.000277034 1.05364e-06 0)
(0.000287042 3.04417e-07 0)
(0.000296281 -4.46443e-07 0)
(0.00030481 -1.18127e-06 0)
(1.83729e-05 1.20648e-05 0)
(5.42622e-05 1.17388e-05 0)
(8.82029e-05 1.10271e-05 0)
(0.000119834 1.00705e-05 0)
(0.000149001 8.99341e-06 0)
(0.000175705 7.88796e-06 0)
(0.000200053 6.81287e-06 0)
(0.000222208 5.80051e-06 0)
(0.000242357 4.86511e-06 0)
(0.000260689 4.00974e-06 0)
(0.000277383 3.23134e-06 0)
(0.000292605 2.52401e-06 0)
(0.000306503 1.88093e-06 0)
(0.000319209 1.29542e-06 0)
(0.000330843 7.61398e-07 0)
(0.00034151 2.73455e-07 0)
(0.000351289 -2.12576e-07 0)
(0.000360269 -7.18825e-07 0)
(2.71244e-05 4.5804e-06 0)
(7.98207e-05 4.44186e-06 0)
(0.000128996 4.15696e-06 0)
(0.000174056 3.78178e-06 0)
(0.000214829 3.36497e-06 0)
(0.000251443 2.94168e-06 0)
(0.000284194 2.5338e-06 0)
(0.000313458 2.15294e-06 0)
(0.000339625 1.80376e-06 0)
(0.000363066 1.48676e-06 0)
(0.000384117 1.20024e-06 0)
(0.000403074 9.4155e-07 0)
(0.000420194 7.07766e-07 0)
(0.000435699 4.96104e-07 0)
(0.000449779 3.04058e-07 0)
(0.0004626 1.29415e-07 0)
(0.000474277 -4.52035e-08 0)
(0.000484844 -2.39995e-07 0)
(0.000656389 -0.00140283 -1.81234e-29)
(0.00195065 -0.00135031 1.74293e-29)
(0.00318805 -0.0012606 0)
(0.00433974 -0.00114981 0)
(0.00536856 -0.000986193 0)
(0.00626757 -0.000865073 -1.11068e-29)
(0.00713951 -0.000915265 0)
(0.00804986 -0.000928476 0)
(0.00892504 -0.00082995 0)
(0.00966949 -0.00065389 0)
(0.0102714 -0.000536046 6.80698e-30)
(0.0107907 -0.000481911 0)
(0.0112868 -0.000482373 0)
(0.0118045 -0.000515711 0)
(0.0123524 -0.0005319 0)
(0.0128981 -0.000503263 6.35226e-30)
(0.013402 -0.000444777 0)
(0.0138457 -0.000383201 0)
(0.0142319 -0.000331535 0)
(0.0145712 -0.000291407 0)
(0.0148722 -0.000256508 0)
(0.0151348 -0.000217535 0)
(0.0153541 -0.000175356 0)
(0.0155288 -0.000135008 1.56162e-30)
(0.0156611 -9.79363e-05 -1.08092e-30)
(0.0157532 -6.30267e-05 6.28641e-31)
(0.0158062 -2.9e-05 1.88229e-31)
(0.015821 3.54731e-06 0)
(0.0157992 3.34788e-05 0)
(0.0157438 6.00738e-05 9.62287e-31)
(0.0156584 8.28878e-05 1.25614e-30)
(0.0155473 0.000101706 0)
(0.0154148 0.000116613 0)
(0.0152651 0.00012791 1.83339e-30)
(0.0151023 0.000136004 0)
(0.0149298 0.000141335 0)
(0.0147506 0.000144332 -2.03957e-30)
(0.0145673 0.000145388 0)
(0.0143822 0.000144856 -2.042e-30)
(0.014197 0.00014305 -4.03293e-30)
(0.0140133 0.000140239 0)
(0.0138323 0.000136659 0)
(0.0136548 0.000132505 0)
(0.0134816 0.000127944 0)
(0.0133133 0.000123111 0)
(0.0131502 0.000118117 -3.36372e-30)
(0.0129926 0.000113049 -3.22899e-30)
(0.0128406 0.000107976 -3.09428e-30)
(0.0126944 0.000102953 0)
(0.0125539 9.80181e-05 2.83009e-30)
(0.0124191 9.3203e-05 0)
(0.0122899 8.8529e-05 -2.57857e-30)
(0.0121662 8.4011e-05 -2.45887e-30)
(0.0120478 7.96589e-05 0)
(0.0119347 7.54784e-05 0)
(0.0118267 7.1472e-05 0)
(0.0117235 6.764e-05 -2.02523e-30)
(0.0116251 6.39807e-05 0)
(0.0115312 6.04911e-05 0)
(0.0114418 5.71671e-05 0)
(0.0113565 5.4004e-05 0)
(0.0112753 5.09966e-05 0)
(0.011198 4.81392e-05 0)
(0.0111244 4.54261e-05 0)
(0.0110543 4.28514e-05 0)
(0.0109877 4.04092e-05 1.30397e-30)
(0.0109244 3.80938e-05 0)
(0.0108642 3.58995e-05 0)
(0.010807 3.38206e-05 -1.12938e-30)
(0.0107526 3.18518e-05 -1.07721e-30)
(0.010701 2.99879e-05 0)
(0.010652 2.82239e-05 9.81053e-31)
(0.0106055 2.65548e-05 -9.36813e-31)
(0.0105613 2.49761e-05 0)
(0.0105195 2.34833e-05 8.55387e-31)
(0.0104798 2.20721e-05 0)
(0.0104422 2.07385e-05 0)
(0.0104065 1.94786e-05 -7.49199e-31)
(0.0103728 1.82886e-05 0)
(0.0103408 1.71651e-05 6.87847e-31)
(0.0103106 1.61047e-05 0)
(0.010282 1.51041e-05 -6.33182e-31)
(0.0102549 1.41602e-05 -6.08143e-31)
(0.0102293 1.32701e-05 -5.84532e-31)
(0.0102051 1.24311e-05 -1.12454e-30)
(0.0101823 1.16405e-05 1.0826e-30)
(0.0101607 1.08957e-05 0)
(0.0101403 1.01944e-05 0)
(0.0101211 9.5342e-06 0)
(0.010103 8.91296e-06 9.37836e-31)
(0.0100859 8.32859e-06 9.06821e-31)
(0.0100698 7.77912e-06 -8.77652e-31)
(0.0100547 7.26267e-06 0)
(0.0100404 6.77743e-06 8.24474e-31)
(0.0100269 6.32172e-06 8.00285e-31)
(0.0100143 5.8939e-06 7.7757e-31)
(0.0100024 5.49244e-06 0)
(0.00999124 5.11588e-06 0)
(0.00998075 4.76282e-06 0)
(0.0099709 4.43195e-06 6.9994e-31)
(0.00996165 4.12201e-06 0)
(0.00995298 3.83181e-06 0)
(0.00994485 3.56022e-06 -6.53638e-31)
(0.00993723 3.30616e-06 0)
(0.00993009 3.06862e-06 0)
(0.00992341 2.84664e-06 -6.15737e-31)
(0.00991716 2.63929e-06 0)
(0.00991132 2.44572e-06 0)
(0.00990586 2.26509e-06 5.84842e-31)
(0.00990075 2.09664e-06 5.75892e-31)
(0.00989599 1.93962e-06 0)
(0.00989155 1.79333e-06 -5.5978e-31)
(0.0098874 1.65713e-06 0)
(0.00988354 1.53038e-06 5.45805e-31)
(0.00987994 1.41249e-06 0)
(0.00987659 1.3029e-06 5.33719e-31)
(0.00987348 1.2011e-06 5.28304e-31)
(0.00987058 1.10658e-06 0)
(0.00986789 1.01888e-06 0)
(0.00986539 9.37543e-07 0)
(0.00986307 8.62165e-07 0)
(0.00986092 7.92349e-07 0)
(0.00985892 7.27727e-07 0)
(0.00985707 6.6795e-07 0)
(0.00985536 6.12691e-07 4.97034e-31)
(0.00985378 5.61643e-07 -4.94315e-31)
(0.00985231 5.14518e-07 0)
(0.00985096 4.71044e-07 0)
(0.00984971 4.30967e-07 0)
(0.00984856 3.94051e-07 0)
(0.00984749 3.60073e-07 -9.67196e-31)
(0.00984651 3.28825e-07 0)
(0.00984561 3.00113e-07 9.60821e-31)
(0.00984478 2.73757e-07 -9.58018e-31)
(0.00984401 2.4959e-07 0)
(0.00984331 2.27456e-07 0)
(0.00984266 2.07213e-07 0)
(0.00984206 1.88728e-07 9.48974e-31)
(0.00984152 1.71883e-07 9.4718e-31)
(0.00984101 1.56567e-07 0)
(0.00984055 1.42685e-07 9.44066e-31)
(0.00984013 1.30151e-07 9.42726e-31)
(0.00983973 1.18893e-07 -9.4153e-31)
(0.00983937 1.08849e-07 0)
(0.00983904 9.99742e-08 0)
(0.00983873 9.22388e-08 -9.38679e-31)
(0.00983844 8.56299e-08 0)
(0.00983816 8.01555e-08 0)
(0.0098379 7.58473e-08 0)
(0.00983766 7.27655e-08 0)
(0.00983741 7.10051e-08 9.36358e-31)
(0.00983717 7.07031e-08 9.36304e-31)
(0.00983692 7.20488e-08 0)
(0.00983667 7.5297e-08 9.36732e-31)
(0.00983639 8.07838e-08 0)
(0.00983609 8.89494e-08 0)
(0.00983575 1.00365e-07 9.39238e-31)
(0.00983536 1.15772e-07 0)
(0.0098349 1.36125e-07 9.42857e-31)
(0.00983435 1.62661e-07 0)
(0.00983368 1.9698e-07 0)
(0.00983286 2.41156e-07 9.53521e-31)
(0.00983183 2.97891e-07 0)
(0.00983055 3.70719e-07 9.66699e-31)
(0.00982894 4.6429e-07 0)
(0.00982689 5.84768e-07 0)
(0.00982428 7.40402e-07 0)
(0.00982093 9.42364e-07 -1.0249e-30)
(0.00981662 1.20599e-06 0)
(0.00981102 1.55275e-06 1.08708e-30)
(0.00980372 2.01335e-06 0)
(0.00979411 2.633e-06 0)
(0.00978135 3.48081e-06 0)
(0.00976417 4.66751e-06 0)
(0.00974066 6.38206e-06 0)
(0.00970765 8.9752e-06 0)
(0.00965956 1.31797e-05 0)
(0.00958505 2.08131e-05 -6.11442e-30)
(0.00945551 3.77025e-05 0)
(0.00916841 9.06615e-05 0)
(0.000599926 -0.0027141 3.50575e-29)
(0.00181159 -0.00265859 -3.42972e-29)
(0.0030361 -0.00253587 0)
(0.00426469 -0.00247396 6.37488e-29)
(0.0054341 -0.00216676 0)
(0.00620743 -0.00218035 -2.81071e-29)
(0.00697032 -0.00293563 -7.55551e-29)
(0.00820653 -0.0032546 -8.37418e-29)
(0.00946952 -0.00280089 0)
(0.010252 -0.00172941 -4.42199e-29)
(0.01061 -0.00135909 1.74405e-29)
(0.0108955 -0.00123686 0)
(0.0112209 -0.001324 0)
(0.0117081 -0.00161065 0)
(0.0123743 -0.00175806 0)
(0.0130611 -0.00161536 2.07238e-29)
(0.0136259 -0.00134391 0)
(0.0140554 -0.00111417 2.81369e-29)
(0.0144005 -0.000954394 0)
(0.0147079 -0.000855896 0)
(0.0150056 -0.000782085 -1.95079e-29)
(0.0152802 -0.00066211 0)
(0.015501 -0.000519395 1.26941e-29)
(0.0156656 -0.000393962 4.90691e-30)
(0.0157872 -0.000286411 -3.51541e-30)
(0.015873 -0.000185707 2.21284e-30)
(0.0159211 -8.19379e-05 8.71079e-31)
(0.0159279 1.89066e-05 0)
(0.0158952 0.000110583 0)
(0.0158271 0.000191393 2.66053e-30)
(0.0157281 0.000260178 1.10165e-29)
(0.0156033 0.000316136 0)
(0.0154581 0.000359805 0)
(0.015297 0.000392388 5.25206e-30)
(0.0151243 0.000415328 0)
(0.0149434 0.000430062 0)
(0.0147573 0.000437923 -5.83422e-30)
(0.0145684 0.000440103 0)
(0.0143788 0.000437661 -1.78186e-29)
(0.0141902 0.000431521 -1.14896e-29)
(0.0140038 0.000422487 0)
(0.0138208 0.000411247 0)
(0.0136419 0.000398381 2.18841e-29)
(0.0134678 0.000384374 2.11435e-29)
(0.0132989 0.00036962 2.03648e-29)
(0.0131356 0.00035444 -2.90367e-29)
(0.012978 0.000339086 -9.07158e-30)
(0.0128262 0.000323758 9.27738e-30)
(0.0126803 0.000308607 -1.71521e-29)
(0.0125402 0.000293748 7.88927e-30)
(0.0124058 0.000279267 0)
(0.0122771 0.000265223 -7.1457e-30)
(0.012154 0.000251658 -2.09503e-29)
(0.0120362 0.000238599 0)
(0.0119237 0.000226061 0)
(0.0118162 0.00021405 0)
(0.0117136 0.000202565 -5.51274e-30)
(0.0116157 0.000191601 0)
(0.0115223 0.000181147 -1.04532e-29)
(0.0114334 0.00017119 0)
(0.0113486 0.000161717 -9.43227e-30)
(0.0112678 0.00015271 0)
(0.0111909 0.000144154 8.5094e-30)
(0.0111178 0.00013603 0)
(0.0110481 0.00012832 -7.67735e-30)
(0.0109819 0.000121008 1.06803e-29)
(0.0109189 0.000114076 0)
(0.010859 0.000107505 6.58338e-30)
(0.0108021 0.000101281 -2.87308e-30)
(0.010748 9.53864e-05 -2.71944e-30)
(0.0106967 8.98057e-05 0)
(0.010648 8.45238e-05 7.81161e-30)
(0.0106017 7.95263e-05 -2.306e-30)
(0.0105578 7.47992e-05 0)
(0.0105162 7.03293e-05 2.06625e-30)
(0.0104767 6.61039e-05 4.40687e-30)
(0.0104393 6.21106e-05 0)
(0.0104038 5.83379e-05 -1.75362e-30)
(0.0103702 5.47747e-05 0)
(0.0103385 5.14104e-05 -2.06117e-30)
(0.0103084 4.82348e-05 0)
(0.0102799 4.52383e-05 1.89748e-30)
(0.010253 4.24117e-05 -1.33838e-30)
(0.0102275 3.97463e-05 -4.28957e-30)
(0.0102034 3.72337e-05 -8.18376e-30)
(0.0101807 3.4866e-05 7.81118e-30)
(0.0101592 3.26355e-05 0)
(0.010139 3.05351e-05 0)
(0.0101198 2.85579e-05 0)
(0.0101018 2.66973e-05 -2.81119e-30)
(0.0100848 2.49471e-05 1.76593e-30)
(0.0100688 2.33015e-05 -1.68009e-30)
(0.0100537 2.17547e-05 0)
(0.0100395 2.03013e-05 5.5189e-30)
(0.0100261 1.89364e-05 1.45241e-30)
(0.0100135 1.7655e-05 1.38557e-30)
(0.0100017 1.64526e-05 0)
(0.00999056 1.53247e-05 0)
(0.00998012 1.42672e-05 0)
(0.00997031 1.32762e-05 1.15715e-30)
(0.0099611 1.23478e-05 0)
(0.00995247 1.14786e-05 3.06661e-30)
(0.00994438 1.0665e-05 1.96004e-30)
(0.00993679 9.90405e-06 -2.90086e-30)
(0.00992969 9.19253e-06 0)
(0.00992304 8.52759e-06 -3.66535e-30)
(0.00991682 7.90649e-06 0)
(0.009911 7.32664e-06 -2.62949e-30)
(0.00990556 6.78558e-06 3.39104e-30)
(0.00990048 6.28097e-06 3.31159e-30)
(0.00989574 5.8106e-06 0)
(0.00989131 5.3724e-06 1.6789e-30)
(0.00988719 4.96439e-06 -2.38073e-30)
(0.00988334 4.58469e-06 7.037e-31)
(0.00987976 4.23154e-06 0)
(0.00987643 3.90327e-06 6.68147e-31)
(0.00987332 3.5983e-06 -1.58464e-30)
(0.00987044 3.31515e-06 0)
(0.00986776 3.05241e-06 -2.17937e-30)
(0.00986527 2.80876e-06 -2.15371e-30)
(0.00986296 2.58295e-06 -2.12993e-30)
(0.00986081 2.3738e-06 0)
(0.00985883 2.1802e-06 0)
(0.00985699 2.00112e-06 0)
(0.00985528 1.83558e-06 2.61145e-30)
(0.0098537 1.68265e-06 -5.52266e-31)
(0.00985225 1.54147e-06 0)
(0.0098509 1.41123e-06 2.0065e-30)
(0.00984965 1.29117e-06 1.99385e-30)
(0.00984851 1.18057e-06 0)
(0.00984745 1.07877e-06 -1.0415e-30)
(0.00984647 9.85157e-07 3.92322e-30)
(0.00984557 8.99139e-07 1.02275e-30)
(0.00984474 8.20178e-07 -4.90295e-30)
(0.00984398 7.47773e-07 0)
(0.00984328 6.8146e-07 0)
(0.00984263 6.2081e-07 0)
(0.00984204 5.65428e-07 9.87922e-31)
(0.0098415 5.14955e-07 4.80675e-30)
(0.009841 4.69066e-07 3.81442e-30)
(0.00984054 4.2747e-07 9.73511e-31)
(0.00984011 3.89911e-07 4.76729e-30)
(0.00983972 3.5617e-07 -9.66063e-31)
(0.00983936 3.26069e-07 0)
(0.00983903 2.99468e-07 0)
(0.00983872 2.76277e-07 -4.7314e-30)
(0.00983843 2.56457e-07 0)
(0.00983816 2.40032e-07 0)
(0.0098379 2.27096e-07 3.76321e-30)
(0.00983765 2.17828e-07 0)
(0.00983741 2.1251e-07 4.71099e-30)
(0.00983717 2.11552e-07 9.50868e-31)
(0.00983693 2.15518e-07 0)
(0.00983667 2.25167e-07 4.71458e-30)
(0.0098364 2.41503e-07 0)
(0.0098361 2.6584e-07 0)
(0.00983577 2.99884e-07 9.59869e-31)
(0.00983538 3.45842e-07 3.78682e-30)
(0.00983493 4.06568e-07 9.70823e-31)
(0.00983438 4.85753e-07 0)
(0.00983372 5.88167e-07 0)
(0.00983291 7.20003e-07 4.86629e-30)
(0.0098319 8.89317e-07 0)
(0.00983064 1.10665e-06 4.98516e-30)
(0.00982905 1.38585e-06 0)
(0.00982703 1.74531e-06 0)
(0.00982446 2.20957e-06 0)
(0.00982117 2.81189e-06 -1.21822e-30)
(0.00981692 3.59787e-06 0)
(0.00981142 4.63122e-06 1.40542e-30)
(0.00980425 6.00295e-06 0)
(0.00979482 7.84676e-06 0)
(0.00978233 1.03662e-05 5.83894e-30)
(0.00976555 1.3886e-05 -6.56048e-30)
(0.00974268 1.89558e-05 0)
(0.00971081 2.65827e-05 0)
(0.00966501 3.88224e-05 0)
(0.0095962 6.05396e-05 1.79567e-29)
(0.00948688 0.000105843 0)
(0.00931441 0.000227887 -1.01289e-28)
(5.92014e-05 -0.001596 8.2504e-29)
(0.000188885 -0.00159279 -4.54519e-33)
(0.000359211 -0.00156055 0)
(0.000626779 -0.0016196 1.4885e-32)
(0.00106159 -0.00148946 0)
(0.00221936 -0.00162791 0)
(0.00466045 -0.00234651 -1.20761e-28)
(0.00746261 -0.00263494 -6.7759e-29)
(0.0102209 -0.00226186 5.77437e-29)
(0.0113568 -0.00141617 -3.60709e-29)
(0.0107793 -0.00123996 0)
(0.0104525 -0.00127405 0)
(0.0102731 -0.00156735 -3.97873e-29)
(0.0108263 -0.00336462 -1.72413e-28)
(0.0122998 -0.00409206 2.09811e-28)
(0.0136713 -0.00318885 0)
(0.0143382 -0.00209232 1.06139e-28)
(0.0145683 -0.00159956 4.06598e-29)
(0.0147071 -0.00136608 0)
(0.014885 -0.00133542 6.69306e-29)
(0.0152215 -0.00145699 -3.69434e-29)
(0.0156055 -0.00117771 -5.86753e-29)
(0.0158317 -0.00080583 2.00826e-29)
(0.0159405 -0.000594485 0)
(0.016026 -0.000451559 2.10748e-29)
(0.0161085 -0.000315571 1.40327e-29)
(0.0161592 -0.00012419 0)
(0.0161506 6.29543e-05 -5.54247e-30)
(0.0160923 0.000220621 0)
(0.0159961 0.000358165 -2.07826e-29)
(0.0158673 0.000474349 1.30108e-29)
(0.015713 0.000565147 0)
(0.0155408 0.000633555 0)
(0.0153564 0.000682917 0)
(0.015164 0.000716376 0)
(0.0149669 0.000736613 0)
(0.0147674 0.000745925 0)
(0.0145678 0.000746288 -4.06456e-29)
(0.0143697 0.00073942 2.04705e-29)
(0.0141744 0.000726821 0)
(0.013983 0.000709787 0)
(0.0137963 0.000689425 0)
(0.013615 0.000666665 7.21457e-29)
(0.0134393 0.000642269 3.44736e-29)
(0.0132695 0.000616858 -6.26503e-31)
(0.0131059 0.000590925 6.18773e-31)
(0.0129484 0.00056486 3.10366e-29)
(0.0127971 0.000538961 2.90721e-29)
(0.0126518 0.000513459 -5.60772e-29)
(0.0125126 0.000488522 -2.70284e-29)
(0.0123793 0.000464274 0)
(0.0122517 0.000440802 -2.45244e-29)
(0.0121296 0.000418164 -4.61008e-29)
(0.012013 0.000396396 0)
(0.0119016 0.000375514 0)
(0.0117952 0.000355525 2.0051e-29)
(0.0116937 0.000336423 0)
(0.0115969 0.000318194 0)
(0.0115046 0.000300821 -5.10019e-29)
(0.0114166 0.000284279 -3.26281e-29)
(0.0113328 0.000268543 -1.49536e-29)
(0.011253 0.000253586 0)
(0.0111769 0.000239377 1.3431e-29)
(0.0111046 0.000225888 0)
(0.0110357 0.000213089 -3.72179e-29)
(0.0109702 0.000200949 1.14248e-29)
(0.0109079 0.000189441 2.2678e-29)
(0.0108487 0.000178534 3.17879e-29)
(0.0107924 0.000168201 0)
(0.010739 0.000158415 -1.94221e-29)
(0.0106882 0.00014915 0)
(0.01064 0.000140381 -9.26709e-30)
(0.0105942 0.000132084 -1.66586e-29)
(0.0105508 0.000124236 -1.58348e-29)
(0.0105096 0.000116815 1.50558e-29)
(0.0104705 0.000109799 -7.65405e-30)
(0.0104335 0.000103169 0)
(0.0103984 9.69043e-05 0)
(0.0103652 9.09875e-05 1.23444e-29)
(0.0103337 8.54008e-05 6.36686e-30)
(0.0103039 8.01274e-05 0)
(0.0102757 7.51513e-05 4.85564e-30)
(0.0102491 7.04572e-05 0)