/*--------------------------------*- C++ -*----------------------------------*\
  =========                 |
  \\      /  F ield         | OpenFOAM: The Open Source CFD Toolbox
   \\    /   O peration     | Website:  https://openfoam.org
    \\  /    A nd           | Version:  10
     \\/     M anipulation  |
\*---------------------------------------------------------------------------*/
FoamFile
{
    format      ascii;
    class       surfaceScalarField;
    location    "13500";
    object      phi;
}
// * * * * * * * * * * * * * * * * * * * * * * * * * * * * * * * * * * * * * //

dimensions      [0 3 -1 0 0 0 0];

internalField   nonuniform List<scalar> 
12640
(
-1.68912e-08
1.68912e-08
-3.39481e-08
1.70568e-08
-5.13437e-08
1.73956e-08
-6.92676e-08
1.79239e-08
-8.79357e-08
1.86682e-08
-1.07604e-07
1.96688e-08
-1.2859e-07
2.09852e-08
-1.51295e-07
2.27056e-08
-1.76258e-07
2.49625e-08
-2.04218e-07
2.79606e-08
-2.36248e-07
3.20296e-08
-2.73975e-07
3.77267e-08
-3.20025e-07
4.60507e-08
-3.78907e-07
5.88812e-08
-4.58314e-07
7.94078e-08
-5.58326e-07
1.00011e-07
-2.34904e-07
-3.23421e-07
-4.53829e-06
4.30339e-06
-4.74744e-06
2.09155e-07
-4.69425e-06
-5.31903e-08
-4.44255e-06
-2.51708e-07
-4.13079e-06
-3.11756e-07
-4.05532e-06
-7.54718e-08
-3.98995e-06
-6.53646e-08
-4.06775e-06
7.77994e-08
-4.05589e-06
-1.18668e-08
-4.02575e-06
-3.01344e-08
-3.97375e-06
-5.1999e-08
-3.911e-06
-6.27577e-08
-3.80203e-06
-1.08962e-07
-3.69971e-06
-1.02322e-07
-3.53881e-06
-1.60906e-07
-3.39973e-06
-1.39079e-07
-3.2003e-06
-1.99424e-07
-2.91934e-06
-2.80965e-07
-2.5373e-06
-3.82039e-07
-2.04285e-06
-4.94452e-07
-1.43841e-06
-6.0444e-07
-7.44481e-07
-6.93926e-07
-1.05717e-17
-7.44481e-07
7.44481e-07
-7.44481e-07
1.43841e-06
-6.93926e-07
2.04285e-06
-6.0444e-07
2.5373e-06
-4.94452e-07
2.91934e-06
-3.82039e-07
3.2003e-06
-2.80965e-07
3.39973e-06
-1.99424e-07
3.53881e-06
-1.39079e-07
3.69971e-06
-1.60906e-07
3.80203e-06
-1.02322e-07
3.911e-06
-1.08962e-07
3.97375e-06
-6.27577e-08
4.02575e-06
-5.1999e-08
4.05589e-06
-3.01344e-08
4.06775e-06
-1.18668e-08
3.98995e-06
7.77994e-08
4.05532e-06
-6.53646e-08
4.13079e-06
-7.54718e-08
4.44255e-06
-3.11756e-07
4.69425e-06
-2.51708e-07
4.74744e-06
-5.31903e-08
4.53829e-06
2.09155e-07
2.34904e-07
4.30339e-06
5.58326e-07
-3.23421e-07
4.58314e-07
1.00011e-07
3.78907e-07
7.94078e-08
3.20025e-07
5.88812e-08
2.73975e-07
4.60507e-08
2.36248e-07
3.77267e-08
2.04218e-07
3.20296e-08
1.76258e-07
2.79606e-08
1.51295e-07
2.49625e-08
1.2859e-07
2.27056e-08
1.07604e-07
2.09852e-08
8.79357e-08
1.96688e-08
6.92676e-08
1.86682e-08
5.13437e-08
1.79239e-08
3.39481e-08
1.73956e-08
1.68912e-08
1.70568e-08
1.68912e-08
-1.85189e-08
3.54101e-08
-3.7219e-08
3.57569e-08
-5.62899e-08
3.64666e-08
-7.59391e-08
3.7573e-08
-9.64026e-08
3.91317e-08
-1.17961e-07
4.12269e-08
-1.40959e-07
4.39831e-08
-1.65837e-07
4.75843e-08
-1.93182e-07
5.23067e-08
-2.23799e-07
5.85775e-08
-2.58852e-07
6.7083e-08
-3.00107e-07
7.89816e-08
-3.50402e-07
9.6346e-08
-4.14619e-07
1.23098e-07
-5.01712e-07
1.66501e-07
-6.32945e-07
2.31244e-07
-1.17884e-06
2.22476e-07
-2.88406e-07
3.41295e-06
-4.6444e-06
4.56515e-06
-4.87243e-06
1.74839e-07
-4.6689e-06
-4.55245e-07
-4.35324e-06
-6.27417e-07
-4.29898e-06
-1.29732e-07
-4.23276e-06
-1.31579e-07
-4.33314e-06
1.78181e-07
-4.32243e-06
-2.25806e-08
-4.29461e-06
-5.79535e-08
-4.24194e-06
-1.04667e-07
-4.17935e-06
-1.25349e-07
-4.06268e-06
-2.25629e-07
-3.95823e-06
-2.06773e-07
-3.79469e-06
-3.24448e-07
-3.65089e-06
-2.82882e-07
-3.44296e-06
-4.07351e-07
-3.14725e-06
-5.76676e-07
-2.74131e-06
-7.87981e-07
-2.21173e-06
-1.02403e-06
-1.56018e-06
-1.256e-06
-8.08505e-07
-1.4456e-06
-1.14654e-17
-1.55299e-06
8.08505e-07
-1.55299e-06
1.56018e-06
-1.4456e-06
2.21173e-06
-1.256e-06
2.74131e-06
-1.02403e-06
3.14725e-06
-7.87981e-07
3.44296e-06
-5.76676e-07
3.65089e-06
-4.07351e-07
3.79469e-06
-2.82882e-07
3.95823e-06
-3.24448e-07
4.06268e-06
-2.06773e-07
4.17935e-06
-2.25629e-07
4.24194e-06
-1.25349e-07
4.29461e-06
-1.04667e-07
4.32243e-06
-5.79535e-08
4.33314e-06
-2.25806e-08
4.23276e-06
1.78181e-07
4.29898e-06
-1.31579e-07
4.35324e-06
-1.29732e-07
4.6689e-06
-6.27417e-07
4.87243e-06
-4.55245e-07
4.6444e-06
1.74839e-07
2.88406e-07
4.56515e-06
1.17884e-06
3.41295e-06
6.32945e-07
2.22476e-07
5.01712e-07
2.31244e-07
4.14619e-07
1.66501e-07
3.50402e-07
1.23098e-07
3.00107e-07
9.6346e-08
2.58852e-07
7.89816e-08
2.23799e-07
6.7083e-08
1.93182e-07
5.85775e-08
1.65837e-07
5.23067e-08
1.40959e-07
4.75843e-08
1.17961e-07
4.39831e-08
9.64026e-08
4.12269e-08
7.59391e-08
3.91317e-08
5.62899e-08
3.7573e-08
3.7219e-08
3.64666e-08
1.85189e-08
3.57569e-08
3.54101e-08
-2.02921e-08
5.57022e-08
-4.07821e-08
5.62469e-08
-6.1677e-08
5.73614e-08
-8.32028e-08
5.90988e-08
-1.05617e-07
6.15459e-08
-1.29225e-07
6.48347e-08
-1.54401e-07
6.91595e-08
-1.81625e-07
7.48077e-08
-2.11528e-07
8.22101e-08
-2.44982e-07
9.20313e-08
-2.83235e-07
1.05337e-07
-3.28172e-07
1.23918e-07
-3.82801e-07
1.50975e-07
-4.52283e-07
1.92581e-07
-5.46589e-07
2.60806e-07
-6.94731e-07
3.79386e-07
-1.11073e-06
6.38477e-07
-7.65779e-07
3.068e-06
-2.71209e-07
4.07058e-06
-3.97529e-06
3.87892e-06
-4.84358e-06
4.13047e-07
-4.5743e-06
-8.96692e-07
-4.57922e-06
-1.24817e-07
-4.50676e-06
-2.0404e-07
-4.6523e-06
3.23718e-07
-4.63772e-06
-3.71562e-08
-4.61292e-06
-8.27548e-08
-4.55815e-06
-1.59434e-07
-4.49797e-06
-1.85534e-07
-4.3677e-06
-3.559e-07
-4.26468e-06
-3.09792e-07
-4.10767e-06
-4.81449e-07
-3.96453e-06
-4.26024e-07
-3.75386e-06
-6.18021e-07
-3.44774e-06
-8.82801e-07
-3.0179e-06
-1.21781e-06
-2.44672e-06
-1.59521e-06
-1.73333e-06
-1.96939e-06
-9.00811e-07
-2.27812e-06
-1.15259e-17
-2.4538e-06
9.00811e-07
-2.4538e-06
1.73333e-06
-2.27812e-06
2.44672e-06
-1.96939e-06
3.0179e-06
-1.59521e-06
3.44774e-06
-1.21781e-06
3.75386e-06
-8.82801e-07
3.96453e-06
-6.18021e-07
4.10767e-06
-4.26024e-07
4.26468e-06
-4.81449e-07
4.3677e-06
-3.09792e-07
4.49797e-06
-3.559e-07
4.55815e-06
-1.85534e-07
4.61292e-06
-1.59434e-07
4.63772e-06
-8.27548e-08
4.6523e-06
-3.71562e-08
4.50676e-06
3.23718e-07
4.57922e-06
-2.0404e-07
4.5743e-06
-1.24817e-07
4.84358e-06
-8.96692e-07
3.97529e-06
4.13047e-07
2.71209e-07
3.87892e-06
7.65779e-07
4.07058e-06
1.11073e-06
3.068e-06
6.94731e-07
6.38477e-07
5.46589e-07
3.79386e-07
4.52283e-07
2.60806e-07
3.82801e-07
1.92581e-07
3.28172e-07
1.50975e-07
2.83235e-07
1.23918e-07
2.44982e-07
1.05337e-07
2.11528e-07
9.20313e-08
1.81625e-07
8.22101e-08
1.54401e-07
7.48077e-08
1.29225e-07
6.91595e-08
1.05617e-07
6.48347e-08
8.32028e-08
6.15459e-08
6.1677e-08
5.90988e-08
4.07821e-08
5.73614e-08
2.02921e-08
5.62469e-08
5.57022e-08
-2.22195e-08
7.79217e-08
-4.46542e-08
7.86817e-08
-6.75294e-08
8.02366e-08
-9.10906e-08
8.266e-08
-1.15617e-07
8.60726e-08
-1.4144e-07
9.0657e-08
-1.68963e-07
9.66826e-08
-1.98701e-07
1.04546e-07
-2.31334e-07
1.14842e-07
-2.67787e-07
1.28485e-07
-3.09382e-07
1.46931e-07
-3.58087e-07
1.72624e-07
-4.17004e-07
2.09892e-07
-4.91384e-07
2.6696e-07
-5.91359e-07
3.6078e-07
-7.44182e-07
5.32209e-07
-1.05122e-06
9.4551e-07
-7.70984e-07
2.78777e-06
-3.7265e-07
3.67225e-06
-5.8639e-08
3.56491e-06
-2.17019e-06
2.52459e-06
-4.5303e-06
1.46342e-06
-4.83609e-06
1.80974e-07
-4.7727e-06
-2.6743e-07
-5.01184e-06
5.62853e-07
-4.98685e-06
-6.21449e-08
-4.96939e-06
-1.00208e-07
-4.91154e-06
-2.17292e-07
-4.85974e-06
-2.3733e-07
-4.7066e-06
-5.09045e-07
-4.61202e-06
-4.04368e-07
-4.47713e-06
-6.1634e-07
-4.34429e-06
-5.58868e-07
-4.14227e-06
-8.20039e-07
-3.83619e-06
-1.18888e-06
-3.38686e-06
-1.66714e-06
-2.76928e-06
-2.21279e-06
-1.97685e-06
-2.76181e-06
-1.03255e-06
-3.22242e-06
2.62261e-18
-3.48635e-06
1.03255e-06
-3.48635e-06
1.97685e-06
-3.22242e-06
2.76928e-06
-2.76181e-06
3.38686e-06
-2.21279e-06
3.83619e-06
-1.66714e-06
4.14227e-06
-1.18888e-06
4.34429e-06
-8.20039e-07
4.47713e-06
-5.58868e-07
4.61202e-06
-6.1634e-07
4.7066e-06
-4.04368e-07
4.85974e-06
-5.09045e-07
4.91154e-06
-2.3733e-07
4.96939e-06
-2.17292e-07
4.98685e-06
-1.00208e-07
5.01184e-06
-6.21449e-08
4.7727e-06
5.62853e-07
4.83609e-06
-2.6743e-07
4.5303e-06
1.80974e-07
2.17019e-06
1.46342e-06
5.8639e-08
2.52459e-06
3.7265e-07
3.56491e-06
7.70984e-07
3.67225e-06
1.05122e-06
2.78777e-06
7.44182e-07
9.4551e-07
5.91359e-07
5.32209e-07
4.91384e-07
3.6078e-07
4.17004e-07
2.6696e-07
3.58087e-07
2.09892e-07
3.09382e-07
1.72624e-07
2.67787e-07
1.46931e-07
2.31334e-07
1.28485e-07
1.98701e-07
1.14842e-07
1.68963e-07
1.04546e-07
1.4144e-07
9.66826e-08
1.15617e-07
9.0657e-08
9.10906e-08
8.60726e-08
6.75294e-08
8.266e-08
4.46542e-08
8.02366e-08
2.22195e-08
7.86817e-08
7.79217e-08
-2.4308e-08
1.0223e-07
-4.88492e-08
1.03223e-07
-7.38674e-08
1.05255e-07
-9.96281e-08
1.08421e-07
-1.26433e-07
1.12877e-07
-1.54636e-07
1.1886e-07
-1.84672e-07
1.26719e-07
-2.17089e-07
1.36963e-07
-2.52604e-07
1.50358e-07
-2.9219e-07
1.6807e-07
-3.37212e-07
1.91954e-07
-3.89676e-07
2.25087e-07
-4.5266e-07
2.72877e-07
-5.31201e-07
3.45502e-07
-6.34435e-07
4.64015e-07
-7.82047e-07
6.79821e-07
-1.0006e-06
1.16406e-06
-7.72466e-07
2.55963e-06
-4.17612e-07
3.3174e-06
-1.22354e-07
3.26965e-06
-1.16315e-07
2.51856e-06
-4.44178e-07
1.79129e-06
-4.17037e-06
3.90716e-06
-4.85761e-06
4.19812e-07
-5.37778e-06
1.08302e-06
-5.34896e-06
-9.09637e-08
-5.35637e-06
-9.27979e-08
-5.296e-06
-2.77659e-07
-5.26668e-06
-2.66654e-07
-5.07359e-06
-7.02131e-07
-4.99976e-06
-4.782e-07
-4.91088e-06
-7.05218e-07
-4.80345e-06
-6.66301e-07
-4.63007e-06
-9.93411e-07
-4.34476e-06
-1.47419e-06
-3.88701e-06
-2.12489e-06
-3.22087e-06
-2.87894e-06
-2.32776e-06
-3.65491e-06
-1.22543e-06
-4.32475e-06
1.19666e-17
-4.71178e-06
1.22543e-06
-4.71178e-06
2.32776e-06
-4.32475e-06
3.22087e-06
-3.65491e-06
3.88701e-06
-2.87894e-06
4.34476e-06
-2.12489e-06
4.63007e-06
-1.47419e-06
4.80345e-06
-9.93411e-07
4.91088e-06
-6.66301e-07
4.99976e-06
-7.05218e-07
5.07359e-06
-4.782e-07
5.26668e-06
-7.02131e-07
5.296e-06
-2.66654e-07
5.35637e-06
-2.77659e-07
5.34896e-06
-9.27979e-08
5.37778e-06
-9.09637e-08
4.85761e-06
1.08302e-06
4.17037e-06
4.19812e-07
4.44178e-07
3.90716e-06
1.16315e-07
1.79129e-06
1.22354e-07
2.51856e-06
4.17612e-07
3.26965e-06
7.72466e-07
3.3174e-06
1.0006e-06
2.55963e-06
7.82047e-07
1.16406e-06
6.34435e-07
6.79821e-07
5.31201e-07
4.64015e-07
4.5266e-07
3.45502e-07
3.89676e-07
2.72877e-07
3.37212e-07
2.25087e-07
2.9219e-07
1.91954e-07
2.52604e-07
1.6807e-07
2.17089e-07
1.50358e-07
1.84672e-07
1.36963e-07
1.54636e-07
1.26719e-07
1.26433e-07
1.1886e-07
9.96281e-08
1.12877e-07
7.38674e-08
1.08421e-07
4.88492e-08
1.05255e-07
2.4308e-08
1.03223e-07
1.0223e-07
-2.65628e-08
1.28792e-07
-5.33769e-08
1.30037e-07
-8.07046e-08
1.32583e-07
-1.08831e-07
1.36547e-07
-1.38079e-07
1.42125e-07
-1.68827e-07
1.49608e-07
-2.01533e-07
1.59425e-07
-2.36775e-07
1.72206e-07
-2.753e-07
1.88882e-07
-3.18104e-07
2.10874e-07
-3.66565e-07
2.40415e-07
-4.2265e-07
2.81172e-07
-4.89261e-07
3.39488e-07
-5.70841e-07
4.27081e-07
-6.74388e-07
5.67562e-07
-8.09577e-07
8.15011e-07
-9.58594e-07
1.31308e-06
-7.71847e-07
2.37289e-06
-4.62799e-07
3.00835e-06
-2.08949e-07
3.0158e-06
-1.99955e-07
2.50956e-06
-5.18369e-07
2.1097e-06
1.64373e-07
3.22442e-06
-6.63511e-07
1.2477e-06
-5.14257e-06
5.56207e-06
-5.54211e-06
3.08581e-07
-5.72553e-06
9.0623e-08
-5.68947e-06
-3.1372e-07
-5.72228e-06
-2.33849e-07
-5.45727e-06
-9.67132e-07
-5.42713e-06
-5.08345e-07
-5.41966e-06
-7.12689e-07
-5.35926e-06
-7.26702e-07
-5.24902e-06
-1.10365e-06
-5.02554e-06
-1.69767e-06
-4.58197e-06
-2.56846e-06
-3.87235e-06
-3.58857e-06
-2.8533e-06
-4.67395e-06
-1.51924e-06
-5.65882e-06
-6.52426e-19
-6.23102e-06
1.51924e-06
-6.23102e-06
2.8533e-06
-5.65882e-06
3.87235e-06
-4.67395e-06
4.58197e-06
-3.58857e-06
5.02554e-06
-2.56846e-06
5.24902e-06
-1.69767e-06
5.35926e-06
-1.10365e-06
5.41966e-06
-7.26702e-07
5.42713e-06
-7.12689e-07
5.45727e-06
-5.08345e-07
5.72228e-06
-9.67132e-07
5.68947e-06
-2.33849e-07
5.72553e-06
-3.1372e-07
5.54211e-06
9.0623e-08
5.14257e-06
3.08581e-07
6.63511e-07
5.56207e-06
-1.64373e-07
1.2477e-06
5.18369e-07
3.22442e-06
1.99955e-07
2.1097e-06
2.08949e-07
2.50956e-06
4.62799e-07
3.0158e-06
7.71847e-07
3.00835e-06
9.58594e-07
2.37289e-06
8.09577e-07
1.31308e-06
6.74388e-07
8.15011e-07
5.70841e-07
5.67562e-07
4.89261e-07
4.27081e-07
4.2265e-07
3.39488e-07
3.66565e-07
2.81172e-07
3.18104e-07
2.40415e-07
2.753e-07
2.10874e-07
2.36775e-07
1.88882e-07
2.01533e-07
1.72206e-07
1.68827e-07
1.59425e-07
1.38079e-07
1.49608e-07
1.08831e-07
1.42125e-07
8.07046e-08
1.36547e-07
5.33769e-08
1.32583e-07
2.65628e-08
1.30037e-07
1.28792e-07
-2.89857e-08
1.57778e-07
-5.82403e-08
1.59292e-07
-8.80441e-08
1.62386e-07
-1.18701e-07
1.67204e-07
-1.50553e-07
1.73977e-07
-1.83998e-07
1.83053e-07
-2.19517e-07
1.94944e-07
-2.57705e-07
2.10394e-07
-2.99323e-07
2.305e-07
-3.45367e-07
2.56919e-07
-3.97178e-07
2.92226e-07
-4.56591e-07
3.40584e-07
-5.26147e-07
4.09043e-07
-6.09293e-07
5.10228e-07
-7.10059e-07
6.68328e-07
-8.28333e-07
9.33285e-07
-9.24525e-07
1.40927e-06
-7.70501e-07
2.21886e-06
-5.06718e-07
2.74457e-06
-2.8979e-07
2.79887e-06
-2.67189e-07
2.48696e-06
-4.351e-07
2.27761e-06
-5.63453e-08
2.84567e-06
-7.77667e-07
1.96902e-06
5.81289e-07
4.20312e-06
-6.29706e-07
1.51958e-06
-5.16905e-06
4.62997e-06
-5.81485e-06
3.32075e-07
-6.17262e-06
1.23921e-07
-5.81095e-06
-1.32881e-06
-5.88309e-06
-4.36202e-07
-6.01164e-06
-5.84133e-07
-6.02421e-06
-7.14132e-07
-6.03746e-06
-1.09041e-06
-5.96335e-06
-1.77178e-06
-5.5735e-06
-2.95831e-06
-4.8452e-06
-4.31686e-06
-3.68227e-06
-5.83689e-06
-1.9895e-06
-7.35159e-06
-1.54678e-17
-8.22052e-06
1.9895e-06
-8.22052e-06
3.68227e-06
-7.35159e-06
4.8452e-06
-5.83689e-06
5.5735e-06
-4.31686e-06
5.96335e-06
-2.95831e-06
6.03746e-06
-1.77178e-06
6.02421e-06
-1.09041e-06
6.01164e-06
-7.14132e-07
5.88309e-06
-5.84133e-07
5.81095e-06
-4.36202e-07
6.17262e-06
-1.32881e-06
5.81485e-06
1.23921e-07
5.16905e-06
3.32075e-07
6.29706e-07
4.62997e-06
-5.81289e-07
1.51958e-06
7.77667e-07
4.20312e-06
5.63453e-08
1.96902e-06
4.351e-07
2.84567e-06
2.67189e-07
2.27761e-06
2.8979e-07
2.48696e-06
5.06718e-07
2.79887e-06
7.70501e-07
2.74457e-06
9.24525e-07
2.21886e-06
8.28333e-07
1.40927e-06
7.10059e-07
9.33285e-07
6.09293e-07
6.68328e-07
5.26147e-07
5.10228e-07
4.56591e-07
4.09043e-07
3.97178e-07
3.40584e-07
3.45367e-07
2.92226e-07
2.99323e-07
2.56919e-07
2.57705e-07
2.305e-07
2.19517e-07
2.10394e-07
1.83998e-07
1.94944e-07
1.50553e-07
1.83053e-07
1.18701e-07
1.73977e-07
8.80441e-08
1.67204e-07
5.82403e-08
1.62386e-07
2.89857e-08
1.59292e-07
1.57778e-07
-3.15742e-08
1.89352e-07
-6.34337e-08
1.91151e-07
-9.58751e-08
1.94828e-07
-1.29219e-07
2.00547e-07
-1.63822e-07
2.0858e-07
-2.00101e-07
2.19331e-07
-2.38546e-07
2.33389e-07
-2.79761e-07
2.51609e-07
-3.24499e-07
2.75238e-07
-3.73722e-07
3.06142e-07
-4.2867e-07
3.47174e-07
-4.9094e-07
4.02855e-07
-5.62517e-07
4.8062e-07
-6.45516e-07
5.93227e-07
-7.40648e-07
7.6346e-07
-8.39979e-07
1.03262e-06
-8.97435e-07
1.46673e-06
-7.69386e-07
2.09081e-06
-5.47959e-07
2.52314e-06
-3.62774e-07
2.61369e-06
-3.23212e-07
2.4474e-06
-3.95411e-07
2.34981e-06
-1.88067e-07
2.63832e-06
-5.31182e-07
2.31213e-06
2.51081e-07
3.42086e-06
-3.98723e-07
2.16938e-06
6.79262e-07
3.55199e-06
-4.70567e-07
1.4819e-06
-3.70178e-06
3.35514e-06
-5.58803e-06
5.57438e-07
-6.20572e-06
1.81487e-07
-6.63823e-06
-1.51621e-07
-6.75257e-06
-5.99788e-07
-7.0076e-06
-8.35379e-07
-7.30537e-06
-1.47401e-06
-7.01355e-06
-3.25013e-06
-6.34602e-06
-4.98439e-06
-5.08618e-06
-7.09672e-06
-2.78551e-06
-9.65226e-06
-8.88715e-18
-1.1006e-05
2.78551e-06
-1.1006e-05
5.08618e-06
-9.65226e-06
6.34602e-06
-7.09672e-06
7.01355e-06
-4.98439e-06
7.30537e-06
-3.25013e-06
7.0076e-06
-1.47401e-06
6.75257e-06
-8.35379e-07
6.63823e-06
-5.99788e-07
6.20572e-06
-1.51621e-07
5.58803e-06
1.81487e-07
3.70178e-06
5.57438e-07
4.70567e-07
3.35514e-06
-6.79262e-07
1.4819e-06
3.98723e-07
3.55199e-06
-2.51081e-07
2.16938e-06
5.31182e-07
3.42086e-06
1.88067e-07
2.31213e-06
3.95411e-07
2.63832e-06
3.23212e-07
2.34981e-06
3.62774e-07
2.4474e-06
5.47959e-07
2.61369e-06
7.69386e-07
2.52314e-06
8.97435e-07
2.09081e-06
8.39979e-07
1.46673e-06
7.40648e-07
1.03262e-06
6.45516e-07
7.6346e-07
5.62517e-07
5.93227e-07
4.9094e-07
4.8062e-07
4.2867e-07
4.02855e-07
3.73722e-07
3.47174e-07
3.24499e-07
3.06142e-07
2.79761e-07
2.75238e-07
2.38546e-07
2.51609e-07
2.00101e-07
2.33389e-07
1.63822e-07
2.19331e-07
1.29219e-07
2.0858e-07
9.58751e-08
2.00547e-07
6.34337e-08
1.94828e-07
3.15742e-08
1.91151e-07
1.89352e-07
-3.43197e-08
2.23672e-07
-6.89386e-08
2.2577e-07
-1.04167e-07
2.30056e-07
-1.40338e-07
2.36719e-07
-1.77822e-07
2.46064e-07
-2.17039e-07
2.58549e-07
-2.58486e-07
2.74836e-07
-3.02754e-07
2.95877e-07
-3.50564e-07
3.23048e-07
-4.02798e-07
3.58376e-07
-4.60528e-07
4.04904e-07
-5.25001e-07
4.67328e-07
-5.97471e-07
5.5309e-07
-6.78522e-07
6.74278e-07
-7.65724e-07
8.50662e-07
-8.4609e-07
1.11298e-06
-8.7619e-07
1.49683e-06
-7.68971e-07
1.98359e-06
-5.85326e-07
2.33949e-06
-4.26713e-07
2.45507e-06
-3.71417e-07
2.3921e-06
-3.83704e-07
2.3621e-06
-2.62796e-07
2.51741e-06
-3.905e-07
2.43984e-06
5.85435e-08
2.97181e-06
-1.97759e-07
2.42568e-06
3.8634e-07
2.96789e-06
-1.03791e-07
1.97203e-06
6.04143e-07
2.6472e-06
-2.78476e-08
1.18943e-06
-9.89642e-07
1.14328e-06
-5.96502e-06
4.82376e-06
-6.67766e-06
1.12856e-07
-7.59405e-06
8.10045e-08
-9.13216e-06
6.41065e-08
-8.93864e-06
-3.44365e-06
-8.64651e-06
-5.27652e-06
-7.71699e-06
-8.02624e-06
-4.19508e-06
-1.31742e-05
-4.87213e-17
-1.52011e-05
4.19508e-06
-1.52011e-05
7.71699e-06
-1.31742e-05
8.64651e-06
-8.02624e-06
8.93864e-06
-5.27652e-06
9.13216e-06
-3.44365e-06
7.59405e-06
6.41065e-08
6.67766e-06
8.10045e-08
5.96502e-06
1.12856e-07
9.89642e-07
4.82376e-06
2.78476e-08
1.14328e-06
-6.04143e-07
1.18943e-06
1.03791e-07
2.6472e-06
-3.8634e-07
1.97203e-06
1.97759e-07
2.96789e-06
-5.85435e-08
2.42568e-06
3.905e-07
2.97181e-06
2.62796e-07
2.43984e-06
3.83704e-07
2.51741e-06
3.71417e-07
2.3621e-06
4.26713e-07
2.3921e-06
5.85326e-07
2.45507e-06
7.68971e-07
2.33949e-06
8.7619e-07
1.98359e-06
8.4609e-07
1.49683e-06
7.65724e-07
1.11298e-06
6.78522e-07
8.50662e-07
5.97471e-07
6.74278e-07
5.25001e-07
5.5309e-07
4.60528e-07
4.67328e-07
4.02798e-07
4.04904e-07
3.50564e-07
3.58376e-07
3.02754e-07
3.23048e-07
2.58486e-07
2.95877e-07
2.17039e-07
2.74836e-07
1.77822e-07
2.58549e-07
1.40338e-07
2.46064e-07
1.04167e-07
2.36719e-07
6.89386e-08
2.30056e-07
3.43197e-08
2.2577e-07
2.23672e-07
-3.72053e-08
2.60877e-07
-7.47202e-08
2.63285e-07
-1.12864e-07
2.682e-07
-1.51979e-07
2.75833e-07
-1.92437e-07
2.86522e-07
-2.34659e-07
3.00771e-07
-2.79128e-07
3.19305e-07
-3.26405e-07
3.43153e-07
-3.77143e-07
3.73787e-07
-4.321e-07
4.13332e-07
-4.92106e-07
4.6491e-07
-5.57956e-07
5.33178e-07
-6.30059e-07
6.25193e-07
-7.07451e-07
7.5167e-07
-7.85184e-07
9.28394e-07
-8.47998e-07
1.1758e-06
-8.59559e-07
1.50839e-06
-7.69238e-07
1.89327e-06
-6.17907e-07
2.18816e-06
-4.81156e-07
2.31832e-06
-4.13634e-07
2.32458e-06
-3.8848e-07
2.33694e-06
-3.04413e-07
2.43335e-06
-3.17417e-07
2.45284e-06
-4.96307e-08
2.70403e-06
-1.03883e-07
2.47994e-06
2.16158e-07
2.64785e-06
2.69008e-08
2.16129e-06
3.58761e-07
2.31534e-06
-3.96327e-08
1.58782e-06
-5.82172e-07
1.68582e-06
9.67515e-07
3.27407e-06
3.69355e-07
7.11016e-07
-2.03083e-07
6.53443e-07
-1.05328e-06
9.14301e-07
-5.02069e-06
5.23757e-07
-1.04074e-05
1.10158e-07
-1.30023e-05
-5.43134e-06
-6.5225e-06
-1.96539e-05
-6.82438e-17
-2.17236e-05
6.5225e-06
-2.17236e-05
1.30023e-05
-1.96539e-05
1.04074e-05
-5.43134e-06
5.02069e-06
1.10158e-07
1.05328e-06
5.23757e-07
2.03083e-07
9.14301e-07
-3.69355e-07
6.53443e-07
-9.67515e-07
7.11016e-07
5.82172e-07
3.27407e-06
3.96327e-08
1.68582e-06
-3.58761e-07
1.58782e-06
-2.69008e-08
2.31534e-06
-2.16158e-07
2.16129e-06
1.03883e-07
2.64785e-06
4.96307e-08
2.47994e-06
3.17417e-07
2.70403e-06
3.04413e-07
2.45284e-06
3.8848e-07
2.43335e-06
4.13634e-07
2.33694e-06
4.81156e-07
2.32458e-06
6.17907e-07
2.31832e-06
7.69238e-07
2.18816e-06
8.59559e-07
1.89327e-06
8.47998e-07
1.50839e-06
7.85184e-07
1.1758e-06
7.07451e-07
9.28394e-07
6.30059e-07
7.5167e-07
5.57956e-07
6.25193e-07
4.92106e-07
5.33178e-07
4.321e-07
4.6491e-07
3.77143e-07
4.13332e-07
3.26405e-07
3.73787e-07
2.79128e-07
3.43153e-07
2.34659e-07
3.19305e-07
1.92437e-07
3.00771e-07
1.51979e-07
2.86522e-07
1.12864e-07
2.75833e-07
7.47202e-08
2.682e-07
3.72053e-08
2.63285e-07
2.60877e-07
-4.0204e-08
3.01081e-07
-8.07223e-08
3.03803e-07
-1.21878e-07
3.09356e-07
-1.64013e-07
3.17968e-07
-2.07496e-07
3.30005e-07
-2.52732e-07
3.46008e-07
-3.00174e-07
3.66747e-07
-3.50327e-07
3.93306e-07
-4.03743e-07
4.27204e-07
-4.61004e-07
4.70593e-07
-5.22634e-07
5.2654e-07
-5.88905e-07
5.99449e-07
-6.59347e-07
6.95635e-07
-7.31633e-07
8.23955e-07
-7.99167e-07
9.95928e-07
-8.467e-07
1.22333e-06
-8.46266e-07
1.50795e-06
-7.69769e-07
1.81678e-06
-6.45095e-07
2.06349e-06
-5.26175e-07
2.1994e-06
-4.50583e-07
2.24899e-06
-4.0192e-07
2.28828e-06
-3.28999e-07
2.36042e-06
-2.8516e-07
2.409e-06
-1.10632e-07
2.5295e-06
-7.18339e-08
2.44114e-06
1.15072e-07
2.46094e-06
6.81377e-08
2.20823e-06
2.11054e-07
2.17243e-06
-1.88944e-08
1.81777e-06
-2.40249e-07
1.90718e-06
4.79838e-07
2.55398e-06
3.32025e-07
8.5883e-07
2.01898e-07
7.83569e-07
3.40682e-07
7.75517e-07
2.04403e-07
6.60036e-07
-2.57467e-07
5.72028e-07
-5.22201e-06
-4.66796e-07
-6.36544e-06
-1.85105e-05
-6.34097e-17
-2.80891e-05
6.36544e-06
-2.80891e-05
5.22201e-06
-1.85105e-05
2.57467e-07
-4.66796e-07
-2.04403e-07
5.72028e-07
-3.40682e-07
6.60036e-07
-2.01898e-07
7.75517e-07
-3.32025e-07
7.83569e-07
-4.79838e-07
8.5883e-07
2.40249e-07
2.55398e-06
1.88944e-08
1.90718e-06
-2.11054e-07
1.81777e-06
-6.81377e-08
2.17243e-06
-1.15072e-07
2.20823e-06
7.18339e-08
2.46094e-06
1.10632e-07
2.44114e-06
2.8516e-07
2.5295e-06
3.28999e-07
2.409e-06
4.0192e-07
2.36042e-06
4.50583e-07
2.28828e-06
5.26175e-07
2.24899e-06
6.45095e-07
2.1994e-06
7.69769e-07
2.06349e-06
8.46266e-07
1.81678e-06
8.467e-07
1.50795e-06
7.99167e-07
1.22333e-06
7.31633e-07
9.95928e-07
6.59347e-07
8.23955e-07
5.88905e-07
6.95635e-07
5.22634e-07
5.99449e-07
4.61004e-07
5.2654e-07
4.03743e-07
4.70593e-07
3.50327e-07
4.27204e-07
3.00174e-07
3.93306e-07
2.52732e-07
3.66747e-07
2.07496e-07
3.46008e-07
1.64013e-07
3.30005e-07
1.21878e-07
3.17968e-07
8.07223e-08
3.09356e-07
4.0204e-08
3.03803e-07
3.01081e-07
-4.32755e-08
3.44357e-07
-8.6863e-08
3.47391e-07
-1.31081e-07
3.53575e-07
-1.76263e-07
3.63149e-07
-2.22759e-07
3.76501e-07
-2.70946e-07
3.94195e-07
-3.21226e-07
4.17027e-07
-3.7402e-07
4.46099e-07
-4.29746e-07
4.82929e-07
-4.88762e-07
5.29609e-07
-5.51242e-07
5.8902e-07
-6.16908e-07
6.65114e-07
-6.84476e-07
7.63203e-07
-7.50591e-07
8.9007e-07
-8.07942e-07
1.05328e-06
-8.42814e-07
1.2582e-06
-8.35038e-07
1.50018e-06
-7.69873e-07
1.75161e-06
-6.66552e-07
1.96017e-06
-5.62163e-07
2.09501e-06
-4.82356e-07
2.16918e-06
-4.19071e-07
2.225e-06
-3.46199e-07
2.28755e-06
-2.76418e-07
2.33922e-06
-1.48002e-07
2.40108e-06
-7.28148e-08
2.36595e-06
4.99723e-08
2.33815e-06
6.39352e-08
2.19426e-06
1.24493e-07
2.11187e-06
6.24873e-09
1.93601e-06
-6.83766e-08
1.9818e-06
2.66636e-07
2.21897e-06
2.49229e-07
8.76237e-07
2.09149e-07
8.23649e-07
1.97294e-07
7.87372e-07
1.12952e-07
7.44378e-07
-3.89577e-08
7.23938e-07
-1.88695e-07
-3.17059e-07
-1.55241e-06
-1.71468e-05
-3.01313e-17
-2.96415e-05
1.55241e-06
-2.96415e-05
1.88695e-07
-1.71468e-05
3.89577e-08
-3.17059e-07
-1.12952e-07
7.23938e-07
-1.97294e-07
7.44378e-07
-2.09149e-07
7.87372e-07
-2.49229e-07
8.23649e-07
-2.66636e-07
8.76237e-07
6.83766e-08
2.21897e-06
-6.24873e-09
1.9818e-06
-1.24493e-07
1.93601e-06
-6.39352e-08
2.11187e-06
-4.99723e-08
2.19426e-06
7.28148e-08
2.33815e-06
1.48002e-07
2.36595e-06
2.76418e-07
2.40108e-06
3.46199e-07
2.33922e-06
4.19071e-07
2.28755e-06
4.82356e-07
2.225e-06
5.62163e-07
2.16918e-06
6.66552e-07
2.09501e-06
7.69873e-07
1.96017e-06
8.35038e-07
1.75161e-06
8.42814e-07
1.50018e-06
8.07942e-07
1.2582e-06
7.50591e-07
1.05328e-06
6.84476e-07
8.9007e-07
6.16908e-07
7.63203e-07
5.51242e-07
6.65114e-07
4.88762e-07
5.8902e-07
4.29746e-07
5.29609e-07
3.7402e-07
4.82929e-07
3.21226e-07
4.46099e-07
2.70946e-07
4.17027e-07
2.22759e-07
3.94195e-07
1.76263e-07
3.76501e-07
1.31081e-07
3.63149e-07
8.6863e-08
3.53575e-07
4.32755e-08
3.47391e-07
3.44357e-07
-4.63645e-08
3.90721e-07
-9.30291e-08
3.94056e-07
-1.40298e-07
4.00844e-07
-1.88483e-07
4.11334e-07
-2.37906e-07
4.25923e-07
-2.88894e-07
4.45183e-07
-3.41778e-07
4.69911e-07
-3.96868e-07
5.0119e-07
-4.54414e-07
5.40476e-07
-5.14524e-07
5.89719e-07
-5.76999e-07
6.51496e-07
-6.41039e-07
7.29154e-07
-7.04705e-07
8.26869e-07
-7.64031e-07
9.49396e-07
-8.11797e-07
1.10104e-06
-8.36596e-07
1.283e-06
-8.24636e-07
1.48822e-06
-7.68723e-07
1.6957e-06
-6.82149e-07
1.87359e-06
-5.89677e-07
2.00254e-06
-5.08803e-07
2.08831e-06
-4.36943e-07
2.15314e-06
-3.60967e-07
2.21158e-06
-2.80731e-07
2.25899e-06
-1.75083e-07
2.29543e-06
-8.99535e-08
2.28082e-06
2.58719e-09
2.24561e-06
4.02219e-08
2.15663e-06
7.27226e-08
2.07937e-06
2.34714e-08
1.98527e-06
1.10805e-08
1.99419e-06
1.68109e-07
2.06194e-06
1.76737e-07
8.67608e-07
1.62745e-07
8.37642e-07
1.37401e-07
8.12716e-07
8.81661e-08
7.93613e-07
2.43984e-08
7.87706e-07
-2.26078e-08
-2.70053e-07
-4.56293e-07
-1.67131e-05
-2.64924e-17
-3.00978e-05
4.56293e-07
-3.00978e-05
2.26078e-08
-1.67131e-05
-2.43984e-08
-2.70053e-07
-8.81661e-08
7.87706e-07
-1.37401e-07
7.93613e-07
-1.62745e-07
8.12716e-07
-1.76737e-07
8.37642e-07
-1.68109e-07
8.67608e-07
-1.10805e-08
2.06194e-06
-2.34714e-08
1.99419e-06
-7.27226e-08
1.98527e-06
-4.02219e-08
2.07937e-06
-2.58719e-09
2.15663e-06
8.99535e-08
2.24561e-06
1.75083e-07
2.28082e-06
2.80731e-07
2.29543e-06
3.60967e-07
2.25899e-06
4.36943e-07
2.21158e-06
5.08803e-07
2.15314e-06
5.89677e-07
2.08831e-06
6.82149e-07
2.00254e-06
7.68723e-07
1.87359e-06
8.24636e-07
1.6957e-06
8.36596e-07
1.48822e-06
8.11797e-07
1.283e-06
7.64031e-07
1.10104e-06
7.04705e-07
9.49396e-07
6.41039e-07
8.26869e-07
5.76999e-07
7.29154e-07
5.14524e-07
6.51496e-07
4.54414e-07
5.89719e-07
3.96868e-07
5.40476e-07
3.41778e-07
5.0119e-07
2.88894e-07
4.69911e-07
2.37906e-07
4.45183e-07
1.88483e-07
4.25923e-07
1.40298e-07
4.11334e-07
9.30291e-08
4.00844e-07
4.63645e-08
3.94056e-07
3.90721e-07
-4.93979e-08
4.40119e-07
-9.90728e-08
4.4373e-07
-1.49302e-07
4.51073e-07
-2.00363e-07
4.62396e-07
-2.52531e-07
4.78091e-07
-3.06069e-07
4.98721e-07
-3.61213e-07
5.25055e-07
-4.18141e-07
5.58117e-07
-4.76912e-07
5.99247e-07
-5.37369e-07
6.50176e-07
-5.98959e-07
7.13085e-07
-6.60443e-07
7.90639e-07
-7.1944e-07
8.85866e-07
-7.71795e-07
1.00175e-06
-8.10953e-07
1.1402e-06
-8.27995e-07
1.30004e-06
-8.13892e-07
1.47412e-06
-7.65481e-07
1.64729e-06
-6.91896e-07
1.80001e-06
-6.09326e-07
1.91997e-06
-5.29761e-07
2.00874e-06
-4.53733e-07
2.07711e-06
-3.75218e-07
2.13306e-06
-2.91998e-07
2.17577e-06
-1.98416e-07
2.20185e-06
-1.14036e-07
2.19644e-06
-3.60153e-08
2.16759e-06
1.0383e-08
2.11023e-06
3.86764e-08
2.05107e-06
2.96414e-08
1.9943e-06
4.17344e-08
1.9821e-06
1.17992e-07
1.98568e-06
1.27612e-07
8.57988e-07
1.23405e-07
8.4185e-07
1.08478e-07
8.27642e-07
8.46711e-08
8.1742e-07
5.95262e-08
8.12851e-07
2.99447e-08
-2.40471e-07
-2.56552e-07
-1.64266e-05
-2.70844e-17
-3.03543e-05
2.56552e-07
-3.03543e-05
-2.99447e-08
-1.64266e-05
-5.95262e-08
-2.40471e-07
-8.46711e-08
8.12851e-07
-1.08478e-07
8.1742e-07
-1.23405e-07
8.27642e-07
-1.27612e-07
8.4185e-07
-1.17992e-07
8.57988e-07
-4.17344e-08
1.98568e-06
-2.96414e-08
1.9821e-06
-3.86764e-08
1.9943e-06
-1.0383e-08
2.05107e-06
3.60153e-08
2.11023e-06
1.14036e-07
2.16759e-06
1.98416e-07
2.19644e-06
2.91998e-07
2.20185e-06
3.75218e-07
2.17577e-06
4.53733e-07
2.13306e-06
5.29761e-07
2.07711e-06
6.09326e-07
2.00874e-06
6.91896e-07
1.91997e-06
7.65481e-07
1.80001e-06
8.13892e-07
1.64729e-06
8.27995e-07
1.47412e-06
8.10953e-07
1.30004e-06
7.71795e-07
1.1402e-06
7.1944e-07
1.00175e-06
6.60443e-07
8.85866e-07
5.98959e-07
7.90639e-07
5.37369e-07
7.13085e-07
4.76912e-07
6.50176e-07
4.18141e-07
5.99247e-07
3.61213e-07
5.58117e-07
3.06069e-07
5.25055e-07
2.52531e-07
4.98721e-07
2.00363e-07
4.78091e-07
1.49302e-07
4.62396e-07
9.90728e-08
4.51073e-07
4.93979e-08
4.4373e-07
4.40119e-07
-5.22841e-08
4.92403e-07
-1.04809e-07
4.96255e-07
-1.57811e-07
5.04075e-07
-2.11519e-07
5.16104e-07
-2.66146e-07
5.32718e-07
-3.21872e-07
5.54447e-07
-3.78822e-07
5.82005e-07
-4.37023e-07
6.16318e-07
-4.96338e-07
6.58563e-07
-5.56355e-07
7.10193e-07
-6.16217e-07
7.72947e-07
-6.74371e-07
8.48792e-07
-7.28228e-07
9.39724e-07
-7.738e-07
1.04732e-06
-8.05514e-07
1.17192e-06
-8.16731e-07
1.31126e-06
-8.01735e-07
1.45912e-06
-7.5938e-07
1.60493e-06
-6.95876e-07
1.7365e-06
-6.21696e-07
1.84579e-06
-5.45143e-07
1.93219e-06
-4.68276e-07
2.00024e-06
-3.89117e-07
2.0539e-06
-3.06568e-07
2.09322e-06
-2.20471e-07
2.11576e-06
-1.4023e-07
2.1162e-06
-6.96334e-08
2.097e-06
-1.96839e-08
2.06028e-06
1.25993e-08
2.01879e-06
2.61023e-08
1.9808e-06
4.76582e-08
1.96054e-06
8.9263e-08
1.94408e-06
9.70524e-08
8.50199e-07
9.75735e-08
8.41328e-07
9.17992e-08
8.33416e-07
8.16684e-08
8.27551e-07
7.03795e-08
8.2414e-07
4.21679e-08
-2.1226e-07
-2.0857e-07
-1.61759e-05
-9.26637e-18
-3.05629e-05
2.0857e-07
-3.05629e-05
-4.21679e-08
-1.61759e-05
-7.03795e-08
-2.1226e-07
-8.16684e-08
8.2414e-07
-9.17992e-08
8.27551e-07
-9.75735e-08
8.33416e-07
-9.70524e-08
8.41328e-07
-8.9263e-08
8.50199e-07
-4.76582e-08
1.94408e-06
-2.61023e-08
1.96054e-06
-1.25993e-08
1.9808e-06
1.96839e-08
2.01879e-06
6.96334e-08
2.06028e-06
1.4023e-07
2.097e-06
2.20471e-07
2.1162e-06
3.06568e-07
2.11576e-06
3.89117e-07
2.09322e-06
4.68276e-07
2.0539e-06
5.45143e-07
2.00024e-06
6.21696e-07
1.93219e-06
6.95876e-07
1.84579e-06
7.5938e-07
1.7365e-06
8.01735e-07
1.60493e-06
8.16731e-07
1.45912e-06
8.05514e-07
1.31126e-06
7.738e-07
1.17192e-06
7.28228e-07
1.04732e-06
6.74371e-07
9.39724e-07
6.16217e-07
8.48792e-07
5.56355e-07
7.72947e-07
4.96338e-07
7.10193e-07
4.37023e-07
6.58563e-07
3.78822e-07
6.16318e-07
3.21872e-07
5.82005e-07
2.66146e-07
5.54447e-07
2.11519e-07
5.32718e-07
1.57811e-07
5.16104e-07
1.04809e-07
5.04075e-07
5.22841e-08
4.96255e-07
4.92403e-07
-5.49126e-08
5.47316e-07
-1.10015e-07
5.51357e-07
-1.6549e-07
5.5955e-07
-2.21501e-07
5.72116e-07