/*--------------------------------*- C++ -*----------------------------------*\
  =========                 |
  \\      /  F ield         | OpenFOAM: The Open Source CFD Toolbox
   \\    /   O peration     | Website:  https://openfoam.org
    \\  /    A nd           | Version:  10
     \\/     M anipulation  |
\*---------------------------------------------------------------------------*/
FoamFile
{
    format      ascii;
    class       volVectorField;
    location    "0.17";
    object      Ub;
}
// * * * * * * * * * * * * * * * * * * * * * * * * * * * * * * * * * * * * * //

dimensions      [0 1 -1 0 0 0 0];

internalField   nonuniform List<vector> 
12225
(
(0.00170398 -0.000494564 0)
(0.00512578 -0.000513053 0)
(0.00886877 -0.000674153 0)
(0.00878103 -0.00193185 0)
(0.00333406 -1.2064e-07 0)
(6.94415e-09 -9.25251e-33 0)
(2.80896e-31 7.7842e-33 0)
(2.23053e-31 4.28801e-33 0)
(1.96206e-31 2.69732e-33 0)
(1.79496e-31 1.71876e-33 0)
(1.69128e-31 1.0196e-33 0)
(1.63257e-31 4.59782e-34 0)
(1.60955e-31 -5.25042e-35 0)
(1.61937e-31 -6.11536e-34 0)
(1.66641e-31 -1.36976e-33 0)
(1.76859e-31 -2.69746e-33 0)
(1.98558e-31 -5.91305e-33 0)
(2.58038e-31 -1.81337e-32 0)
(0.00274417 -0.00160904 0)
(0.00814589 -0.00165473 0)
(0.0137198 -0.00208076 0)
(0.0186529 -0.00457699 0)
(0.010337 -0.000100145 0)
(2.1551e-06 8.58815e-25 0)
(5.02002e-24 2.33306e-32 0)
(2.21652e-31 1.3363e-32 0)
(1.95467e-31 8.57201e-33 0)
(1.78992e-31 5.59153e-33 0)
(1.68733e-31 3.45529e-33 0)
(1.62907e-31 1.7444e-33 0)
(1.6059e-31 1.81828e-34 0)
(1.61469e-31 -1.51422e-33 0)
(1.65866e-31 -3.78635e-33 0)
(1.75096e-31 -7.64792e-33 0)
(1.923e-31 -1.62808e-32 0)
(2.197e-31 -4.31282e-32 0)
(0.00295692 -0.00293372 0)
(0.00870868 -0.00298089 0)
(0.0143554 -0.00356702 0)
(0.0203251 -0.00623033 0)
(0.0118288 -0.0076328 0)
(0.000107413 -7.37571e-12 0)
(3.25885e-18 3.82258e-32 0)
(2.18794e-31 2.26642e-32 0)
(1.93862e-31 1.47114e-32 0)
(1.77886e-31 9.66592e-33 0)
(1.67865e-31 6.02694e-33 0)
(1.62137e-31 3.11128e-33 0)
(1.59791e-31 4.59278e-34 0)
(1.60459e-31 -2.38792e-33 0)
(1.64256e-31 -6.11136e-33 0)
(1.71794e-31 -1.2115e-32 0)
(1.83612e-31 -2.40098e-32 0)
(1.94533e-31 -5.19622e-32 0)
(0.00307919 -0.00442154 0)
(0.00898413 -0.00443097 0)
(0.0144462 -0.00506408 0)
(0.0189931 -0.00779297 0)
(0.0138078 -0.0145378 0)
(0.00335598 -4.8437e-08 0)
(3.66518e-08 4.64966e-32 0)
(3.36106e-31 3.19109e-32 0)
(1.91284e-31 2.1006e-32 0)
(1.76077e-31 1.38884e-32 0)
(1.66439e-31 8.70799e-33 0)
(1.60874e-31 4.55544e-33 0)
(1.58496e-31 8.02553e-34 0)
(1.58858e-31 -3.16056e-33 0)
(1.61836e-31 -8.16839e-33 0)
(1.67372e-31 -1.57186e-32 0)
(1.74434e-31 -2.88693e-32 0)
(1.77007e-31 -5.32304e-32 0)
(0.003179 -0.00606995 0)
(0.00917423 -0.00598671 0)
(0.0143813 -0.0065301 0)
(0.0180739 -0.00887639 0)
(0.0160074 -0.0133408 0)
(0.00632067 -0.000144342 0)
(1.15026e-06 3.35246e-25 0)
(1.82205e-24 4.07931e-32 0)
(1.87659e-31 2.73303e-32 0)
(1.7347e-31 1.81876e-32 0)
(1.64371e-31 1.14593e-32 0)
(1.5905e-31 6.06535e-33 0)
(1.56649e-31 1.23309e-33 0)
(1.56649e-31 -3.76147e-33 0)
(1.58697e-31 -9.81269e-33 0)
(1.62254e-31 -1.828e-32 0)
(1.65655e-31 -3.12994e-32 0)
(1.64113e-31 -5.11556e-32 0)
(0.0032807 -0.00789132 0)
(0.00935395 -0.00764308 0)
(0.0143089 -0.00795449 0)
(0.0174797 -0.00972195 0)
(0.0176102 -0.0125746 0)
(0.00848355 -0.00615013 0)
(0.000117446 -2.42768e-11 0)
(6.35929e-17 4.88084e-32 0)
(1.82954e-31 3.35637e-32 0)
(1.69977e-31 2.24739e-32 0)
(1.61581e-31 1.42264e-32 0)
(1.56601e-31 7.61928e-33 0)
(1.54213e-31 1.76504e-33 0)
(1.53839e-31 -4.13428e-33 0)
(1.54963e-31 -1.0954e-32 0)
(1.56787e-31 -1.97923e-32 0)
(1.5761e-31 -3.19099e-32 0)
(1.54161e-31 -4.77349e-32 0)
(0.00340357 -0.00990983 0)
(0.00957896 -0.0094042 0)
(0.014313 -0.00934049 0)
(0.0170542 -0.0104306 0)
(0.0168615 -0.0122574 0)
(0.0111283 -0.0115708 0)
(0.00318346 -2.52796e-07 0)
(9.90693e-08 2.96964e-30 0)
(1.40775e-29 3.95008e-32 0)
(1.6551e-31 2.66359e-32 0)
(1.57996e-31 1.69357e-32 0)
(1.53475e-31 9.18049e-33 0)
(1.51166e-31 2.39809e-33 0)
(1.50464e-31 -4.24836e-33 0)
(1.50766e-31 -1.15647e-32 0)
(1.51211e-31 -2.03646e-32 0)
(1.50357e-31 -3.12632e-32 0)
(1.46156e-31 -4.38783e-32 0)
(0.00357001 -0.0121654 0)
(0.00990748 -0.0112834 0)
(0.0144682 -0.0106967 0)
(0.0168838 -0.0110364 0)
(0.0167578 -0.0118469 0)
(0.0141043 -0.0107576 0)
(0.00610198 -0.000342182 0)
(2.4119e-06 2.77206e-23 0)
(1.34619e-22 4.48014e-32 0)
(1.60026e-31 3.05501e-32 0)
(1.53557e-31 1.94899e-32 0)
(1.49635e-31 1.06916e-32 0)
(1.47506e-31 3.11046e-33 0)
(1.46571e-31 -4.10658e-33 0)
(1.46226e-31 -1.16758e-32 0)
(1.45677e-31 -2.01682e-32 0)
(1.4383e-31 -2.98061e-32 0)
(1.39483e-31 -3.99864e-32 0)
(0.00381039 -0.0147217 0)
(0.0104107 -0.0133038 0)
(0.0148492 -0.0120325 0)
(0.0170032 -0.0115691 0)
(0.0169913 -0.0115253 0)
(0.0160742 -0.0104301 0)
(0.00808605 -0.00499127 0)
(0.000248859 6.0759e-18 0)
(1.24271e-14 4.81994e-32 0)
(1.53551e-31 3.41274e-32 0)
(1.48218e-31 2.17581e-32 0)
(1.45069e-31 1.20682e-32 0)
(1.43251e-31 3.85323e-33 0)
(1.42223e-31 -3.74847e-33 0)
(1.41445e-31 -1.13661e-32 0)
(1.40265e-31 -1.93964e-32 0)
(1.37919e-31 -2.78695e-32 0)
(1.33746e-31 -3.62324e-32 0)
(0.00416915 -0.0176807 0)
(0.0111844 -0.015499 0)
(0.0155415 -0.0133506 0)
(0.0174354 -0.0120319 0)
(0.0173404 -0.0112562 0)
(0.0159539 -0.0102051 0)
(0.0109313 -0.00866068 0)
(0.00340891 -6.22689e-07 0)
(1.90514e-07 1.90401e-28 0)
(5.80845e-28 3.70394e-32 0)
(1.41922e-31 2.35409e-32 0)
(1.39793e-31 1.31934e-32 0)
(1.38445e-31 4.54769e-33 0)
(1.37489e-31 -3.24857e-33 0)
(1.36503e-31 -1.07482e-32 0)
(1.35007e-31 -1.82403e-32 0)
(1.32511e-31 -2.56924e-32 0)
(1.2868e-31 -3.26931e-32 0)
(0.00471598 -0.0212068 0)
(0.012367 -0.0179103 0)
(0.0166547 -0.0146354 0)
(0.0182323 -0.0123961 0)
(0.0179466 -0.010945 0)
(0.0165431 -0.00961243 0)
(0.0139904 -0.00763869 0)
(0.00616916 -0.00010496 0)
(3.81651e-06 4.40405e-22 0)
(1.87632e-21 3.82874e-32 0)
(1.34748e-31 2.45633e-32 0)
(1.33887e-31 1.39242e-32 0)
(1.33164e-31 5.08837e-33 0)
(1.32448e-31 -2.71065e-33 0)
(1.31469e-31 -9.95515e-33 0)
(1.29916e-31 -1.68766e-32 0)
(1.27508e-31 -2.34488e-32 0)
(1.24106e-31 -2.94085e-32 0)
(0.00551203 -0.025163 0)
(0.01406 -0.0203518 0)
(0.0182409 -0.0157509 0)
(0.0193987 -0.0125954 0)
(0.0188028 -0.0105677 0)
(0.0173739 -0.00901165 0)
(0.0162023 -0.00732646 0)
(0.00803392 -0.00262591 0)
(0.000108384 3.11321e-17 0)
(2.09758e-15 3.76043e-32 0)
(1.27816e-31 2.47396e-32 0)
(1.28041e-31 1.41553e-32 0)
(1.27983e-31 5.35796e-33 0)
(1.27627e-31 -2.28215e-33 0)
(1.26826e-31 -9.18961e-33 0)
(1.25405e-31 -1.55704e-32 0)
(1.23225e-31 -2.14288e-32 0)
(1.20253e-31 -2.66157e-32 0)
(0.00666011 -0.0301653 0)
(0.0164109 -0.0229867 0)
(0.0203271 -0.0166723 0)
(0.0208673 -0.0125496 0)
(0.0197948 -0.0100178 0)
(0.0180483 -0.00830814 0)
(0.0160293 -0.00700763 0)
(0.00951159 -0.00507161 0)
(0.00202686 -1.26358e-08 0)
(2.42181e-08 3.70171e-32 0)
(2.3845e-31 2.41935e-32 0)
(1.21996e-31 1.38181e-32 0)
(1.22656e-31 5.26851e-33 0)
(1.22759e-31 -2.04735e-33 0)
(1.22251e-31 -8.52305e-33 0)
(1.21076e-31 -1.43566e-32 0)
(1.19204e-31 -1.95858e-32 0)
(1.16674e-31 -2.41425e-32 0)
(0.00879796 -0.0379205 0)
(0.0205552 -0.0261479 0)
(0.0237091 -0.0172703 0)
(0.0231123 -0.0120317 0)
(0.0212248 -0.0090494 0)
(0.0189566 -0.00721152 0)
(0.0164428 -0.0058897 0)
(0.012264 -0.00423246 0)
(0.00471445 -3.20686e-06 0)
(1.01587e-06 7.97069e-25 0)
(3.32101e-24 2.25101e-32 0)
(1.14856e-31 1.2619e-32 0)
(1.16475e-31 4.61909e-33 0)
(1.17213e-31 -2.1244e-33 0)
(1.17153e-31 -7.98882e-33 0)
(1.1636e-31 -1.31673e-32 0)
(1.14901e-31 -1.77251e-32 0)
(1.12869e-31 -2.1653e-32 0)
(0.0132699 -0.0514592 0)
(0.028497 -0.0292373 0)
(0.0292832 -0.0166523 0)
(0.026444 -0.0104347 0)
(0.0232024 -0.00729371 0)
(0.0202302 -0.0055287 0)
(0.0175467 -0.00428445 0)
(0.0147454 -0.00280399 0)
(0.0066252 -8.27757e-05 0)
(1.09181e-05 2.14813e-20 0)
(3.48419e-19 1.85981e-32 0)
(1.06843e-31 9.92404e-33 0)
(1.09654e-31 2.9909e-33 0)
(1.11182e-31 -2.81066e-33 0)
(1.11696e-31 -7.81497e-33 0)
(1.11391e-31 -1.21902e-32 0)
(1.10418e-31 -1.60062e-32 0)
(1.08918e-31 -1.92817e-32 0)
(0.0243273 -0.079746 0)
(0.0456484 -0.0281683 0)
(0.0383816 -0.0122331 0)
(0.0309899 -0.00650451 0)
(0.0256131 -0.00413929 0)
(0.0216841 -0.00299466 0)
(0.0186894 -0.00228081 0)
(0.016194 -0.00162544 0)
(0.00765315 -0.000296986 0)
(0.000148201 1.57968e-16 0)
(4.5355e-14 1.12413e-32 0)
(9.88363e-32 4.96407e-33 0)
(1.02854e-31 -1.04483e-34 0)
(1.05171e-31 -4.44488e-33 0)
(1.06265e-31 -8.26126e-33 0)
(1.06457e-31 -1.16389e-32 0)
(1.05973e-31 -1.46086e-32 0)
(1.04982e-31 -1.71791e-32 0)
(0.0591023 0.000922202 0)
(0.0898634 0.0030557 0)
(0.0510862 0.00239231 0)
(0.0356439 0.00169026 0)
(0.027704 0.00114231 0)
(0.0227965 0.00073985 0)
(0.0193283 0.000467966 0)
(0.016364 0.00028317 0)
(0.00809357 3.1742e-05 0)
(0.000646607 1.54484e-16 0)
(1.04803e-10 -1.13702e-33 0)
(9.30547e-32 -2.71038e-33 0)
(9.75267e-32 -4.81994e-33 0)
(1.002e-31 -7.12e-33 0)
(1.01587e-31 -9.42151e-33 0)
(1.02088e-31 -1.16154e-32 0)
(1.01953e-31 -1.36357e-32 0)
(1.01358e-31 -1.54427e-32 0)
(0.0197695 0.0775163 0)
(0.0385143 0.0330072 0)
(0.0343288 0.017357 0)
(0.0285427 0.0105371 0)
(0.0239598 0.00699713 0)
(0.0205314 0.00489923 0)
(0.017902 0.00351775 0)
(0.01548 0.00244996 0)
(0.00716021 0.000268165 0)
(5.1855e-05 4.22814e-17 0)
(3.51266e-16 -1.17249e-32 0)
(9.38832e-32 -9.79374e-33 0)
(9.62232e-32 -9.44446e-33 0)
(9.77909e-32 -9.90756e-33 0)
(9.8676e-32 -1.07783e-32 0)
(9.90064e-32 -1.18283e-32 0)
(9.89017e-32 -1.29226e-32 0)
(9.84637e-32 -1.39799e-32 0)
(0.0072047 0.0433375 0)
(0.0168674 0.0303376 0)
(0.0195537 0.0208213 0)
(0.0192129 0.0147008 0)
(0.0178584 0.0107106 0)
(0.016252 0.00798226 0)
(0.014506 0.00592388 0)
(0.00902956 0.00290287 0)
(0.00223916 1.90214e-05 0)
(5.44915e-08 4.57435e-17 0)
(1.85588e-30 -1.45985e-32 0)
(9.72633e-32 -1.26583e-32 0)
(9.75313e-32 -1.16376e-32 0)
(9.77167e-32 -1.12501e-32 0)
(9.77274e-32 -1.12716e-32 0)
(9.7541e-32 -1.15407e-32 0)
(9.71686e-32 -1.19456e-32 0)
(9.66362e-32 -1.24103e-32 0)
(0.00372046 0.0286915 0)
(0.00952209 0.0240567 0)
(0.0124346 0.0192085 0)
(0.0133807 0.015149 0)
(0.0132699 0.0118794 0)
(0.0125454 0.00928823 0)
(0.00949127 0.00600414 0)
(0.00346834 0.00124008 0)
(3.83934e-07 2.55097e-09 0)
(1.13658e-26 -1.56017e-32 0)
(1.00728e-31 -1.37566e-32 0)
(9.98358e-32 -1.23379e-32 0)
(9.91462e-32 -1.14109e-32 0)
(9.85508e-32 -1.08688e-32 0)
(9.79727e-32 -1.06097e-32 0)
(9.7368e-32 -1.05476e-32 0)
(9.67168e-32 -1.06148e-32 0)
(9.60148e-32 -1.07603e-32 0)
(0.00243203 0.0222413 0)
(0.00649171 0.0199169 0)
(0.00894501 0.0171131 0)
(0.00998317 0.0143917 0)
(0.0101436 0.0115308 0)
(0.00836459 0.00766479 0)
(0.00331949 0.00255308 0)
(6.26512e-07 1.32953e-07 0)
(1.67826e-25 -1.2903e-32 0)
(1.05088e-31 -1.30674e-32 0)
(1.02972e-31 -1.17229e-32 0)
(1.01435e-31 -1.07474e-32 0)
(1.00237e-31 -1.00658e-32 0)
(9.92338e-32 -9.61958e-33 0)
(9.83364e-32 -9.35591e-33 0)
(9.74905e-32 -9.22803e-33 0)
(9.66653e-32 -9.19644e-33 0)
(9.58448e-32 -9.22919e-33 0)
(0.00181038 0.0182324 0)
(0.00495255 0.0168949 0)
(0.00699344 0.0152295 0)
(0.00755819 0.0135088 0)
(0.00578198 0.00774633 0)
(0.00207524 0.00293601 0)
(1.76953e-07 5.80502e-07 0)
(1.48259e-25 -6.05296e-33 0)
(1.09471e-31 -1.04061e-32 0)
(1.06311e-31 -9.891e-33 0)
(1.04025e-31 -9.32401e-33 0)
(1.02279e-31 -8.82e-33 0)
(1.00871e-31 -8.41862e-33 0)
(9.96767e-32 -8.12567e-33 0)
(9.86147e-32 -7.93084e-33 0)
(9.76349e-32 -7.81701e-33 0)
(9.67061e-32 -7.76562e-33 0)
(9.58097e-32 -7.75932e-33 0)
(0.0014432 0.0153058 0)
(0.00403102 0.0143538 0)
(0.00569948 0.0129186 0)
(0.00346919 0.00696398 0)
(0.00035753 0.00218017 0)
(5.11966e-09 3.8879e-07 0)
(1.20127e-26 5.34352e-27 0)
(1.12549e-31 -5.81766e-33 0)
(1.09095e-31 -6.88293e-33 0)
(1.06423e-31 -7.18759e-33 0)
(1.04319e-31 -7.15686e-33 0)
(1.02609e-31 -7.0005e-33 0)
(1.01169e-31 -6.81999e-33 0)
(9.99125e-32 -6.66119e-33 0)
(9.87814e-32 -6.541e-33 0)
(9.77367e-32 -6.46153e-33 0)
(9.67526e-32 -6.41798e-33 0)
(9.58127e-32 -6.40289e-33 0)
(0.000976664 0.0119687 0)
(0.00217076 0.00859589 0)
(0.00119791 0.0057547 0)
(3.80946e-06 0.000425062 0)
(1.05959e-12 6.4879e-08 0)
(4.89476e-30 1.04335e-27 0)
(1.13288e-31 7.78535e-35 0)
(1.10628e-31 -2.94753e-33 0)
(1.08192e-31 -4.45975e-33 0)
(1.06073e-31 -5.14325e-33 0)
(1.0425e-31 -5.39787e-33 0)
(1.02668e-31 -5.4454e-33 0)
(1.01272e-31 -5.40503e-33 0)
(1.00017e-31 -5.33832e-33 0)
(9.88669e-32 -5.27483e-33 0)
(9.77958e-32 -5.2266e-33 0)
(9.67851e-32 -5.19652e-33 0)
(9.5822e-32 -5.183e-33 0)
(2.52048e-07 0.00496838 0)
(2.52306e-07 0.00203457 0)
(2.57744e-10 7.68839e-06 0)
(1.4702e-19 5.96539e-12 0)
(1.09301e-31 6.95102e-31 0)
(1.10724e-31 6.53536e-33 0)
(1.10222e-31 1.51563e-33 0)
(1.0888e-31 -1.3392e-33 0)
(1.07256e-31 -2.8807e-33 0)
(1.05612e-31 -3.66256e-33 0)
(1.04055e-31 -4.02441e-33 0)
(1.02612e-31 -4.16532e-33 0)
(1.01282e-31 -4.19812e-33 0)
(1.00052e-31 -4.18459e-33 0)
(9.8905e-32 -4.15696e-33 0)
(9.78263e-32 -4.13072e-33 0)
(9.68042e-32 -4.11208e-33 0)
(9.58295e-32 -4.1024e-33 0)
(3.16199e-22 2.61531e-06 0)
(3.16199e-22 6.80071e-08 0)
(6.37952e-30 2.10351e-19 0)
(9.4537e-32 2.33087e-32 0)
(1.0345e-31 1.27199e-32 0)
(1.07007e-31 5.9892e-33 0)
(1.07924e-31 1.88374e-33 0)
(1.07515e-31 -5.23311e-34 0)
(1.06483e-31 -1.8741e-33 0)
(1.052e-31 -2.59528e-33 0)
(1.03852e-31 -2.95607e-33 0)
(1.02527e-31 -3.11917e-33 0)
(1.01259e-31 -3.17963e-33 0)
(1.00057e-31 -3.19121e-33 0)
(9.89192e-32 -3.1831e-33 0)
(9.78407e-32 -3.17022e-33 0)
(9.68145e-32 -3.15943e-33 0)
(9.58342e-32 -3.15317e-33 0)
(1.66922e-32 1.25075e-21 0)
(4.70809e-32 3.79122e-30 0)
(7.19862e-32 2.57548e-32 0)
(8.98133e-32 1.70249e-32 0)
(9.97608e-32 9.6995e-33 0)
(1.04527e-31 4.76771e-33 0)
(1.06347e-31 1.67877e-33 0)
(1.06554e-31 -1.6918e-34 0)
(1.05922e-31 -1.22914e-33 0)
(1.04888e-31 -1.8105e-33 0)
(1.0369e-31 -2.11241e-33 0)
(1.02451e-31 -2.25747e-33 0)
(1.01229e-31 -2.31861e-33 0)
(1.0005e-31 -2.33783e-33 0)
(9.89229e-32 -2.33846e-33 0)
(9.7847e-32 -2.33281e-33 0)
(9.68196e-32 -2.32685e-33 0)
(9.58368e-32 -2.32302e-33 0)
(1.6026e-32 2.32741e-32 0)
(4.55028e-32 2.05107e-32 0)
(6.9648e-32 1.67955e-32 0)
(8.71082e-32 1.1336e-32 0)
(9.75635e-32 6.60067e-33 0)
(1.03001e-31 3.3078e-33 0)
(1.05359e-31 1.20887e-33 0)
(1.05943e-31 -6.27287e-35 0)
(1.05559e-31 -8.01303e-34 0)
(1.04683e-31 -1.2124e-33 0)
(1.0358e-31 -1.43007e-33 0)
(1.02397e-31 -1.53779e-33 0)
(1.01206e-31 -1.58571e-33 0)
(1.00043e-31 -1.60305e-33 0)
(9.89231e-32 -1.60623e-33 0)
(9.78496e-32 -1.60404e-33 0)
(9.68222e-32 -1.60089e-33 0)
(9.58382e-32 -1.59868e-33 0)
(1.5682e-32 1.28764e-32 0)
(4.46588e-32 1.13785e-32 0)
(6.84092e-32 9.27044e-33 0)
(8.56934e-32 6.30354e-33 0)
(9.63911e-32 3.68992e-33 0)
(1.02173e-31 1.84158e-33 0)
(1.04816e-31 6.5172e-34 0)
(1.05604e-31 -7.41845e-35 0)
(1.05356e-31 -4.98623e-34 0)
(1.04566e-31 -7.36668e-34 0)
(1.03517e-31 -8.63945e-34 0)
(1.02365e-31 -9.27834e-34 0)
(1.01192e-31 -9.5697e-34 0)
(1.00038e-31 -9.68118e-34 0)
(9.89225e-32 -9.70761e-34 0)
(9.78506e-32 -9.70033e-34 0)
(9.68233e-32 -9.68528e-34 0)
(9.58389e-32 -9.67405e-34 0)
(1.55454e-32 3.96591e-33 0)
(4.43184e-32 3.49663e-33 0)
(6.79116e-32 2.82445e-33 0)
(8.51283e-32 1.89412e-33 0)
(9.59187e-32 1.06957e-33 0)
(1.01836e-31 4.82369e-34 0)
(1.04594e-31 1.02752e-34 0)
(1.05465e-31 -1.29536e-34 0)
(1.05272e-31 -2.65735e-34 0)
(1.04518e-31 -3.42361e-34 0)
(1.03491e-31 -3.83495e-34 0)
(1.02351e-31 -4.04262e-34 0)
(1.01186e-31 -4.13824e-34 0)
(1.00036e-31 -4.17559e-34 0)
(9.89221e-32 -4.18517e-34 0)
(9.78509e-32 -4.18354e-34 0)
(9.68237e-32 -4.17912e-34 0)
(9.58391e-32 -4.17571e-34 0)
(6.12964e-34 -1.47183e-33 -1.90157e-59)
(1.84373e-33 -1.46967e-33 1.89733e-59)
(3.08179e-33 -1.4659e-33 0)
(4.32563e-33 -1.46051e-33 0)
(5.5737e-33 -1.45347e-33 0)
(6.8244e-33 -1.4448e-33 -1.85931e-59)
(8.07611e-33 -1.43452e-33 0)
(9.32717e-33 -1.42265e-33 0)
(1.05759e-32 -1.40923e-33 0)
(1.18207e-32 -1.3943e-33 0)
(1.306e-32 -1.37792e-33 1.7655e-59)
(1.4292e-32 -1.36016e-33 0)
(1.55152e-32 -1.34109e-33 0)
(1.67281e-32 -1.32079e-33 0)
(1.79292e-32 -1.29935e-33 0)
(1.9117e-32 -1.27686e-33 1.62773e-59)
(2.02903e-32 -1.25341e-33 0)
(2.14476e-32 -1.22912e-33 0)
(2.25878e-32 -1.20407e-33 0)
(2.37099e-32 -1.17838e-33 0)
(2.48126e-32 -1.15214e-33 0)
(2.58952e-32 -1.12546e-33 0)
(2.69568e-32 -1.09843e-33 0)
(2.79966e-32 -1.07116e-33 1.35139e-59)
(2.9014e-32 -1.04373e-33 -1.31474e-59)
(3.00083e-32 -1.01624e-33 1.27803e-59)
(3.09792e-32 -9.88761e-34 1.24137e-59)
(3.19262e-32 -9.61383e-34 0)
(3.2849e-32 -9.34175e-34 0)
(3.37474e-32 -9.07207e-34 -1.1327e-59)
(3.46213e-32 -8.8054e-34 -1.0972e-59)
(3.54707e-32 -8.54232e-34 0)
(3.62954e-32 -8.28333e-34 0)
(3.70955e-32 -8.02889e-34 -9.93919e-60)
(3.78713e-32 -7.77939e-34 0)
(3.86228e-32 -7.53519e-34 0)
(3.93503e-32 -7.29658e-34 8.96608e-60)
(4.00541e-32 -7.0638e-34 0)
(4.07345e-32 -6.83705e-34 8.35582e-60)
(4.13917e-32 -6.61651e-34 1.6126e-59)
(4.20263e-32 -6.40228e-34 0)
(4.26386e-32 -6.19446e-34 0)
(4.32291e-32 -5.9931e-34 0)
(4.37981e-32 -5.79822e-34 0)
(4.43463e-32 -5.60981e-34 0)
(4.48739e-32 -5.42786e-34 1.29712e-59)
(4.53817e-32 -5.25229e-34 1.25054e-59)
(4.587e-32 -5.08306e-34 1.20564e-59)
(4.63394e-32 -4.92007e-34 0)
(4.67903e-32 -4.76322e-34 -1.1208e-59)
(4.72234e-32 -4.61241e-34 0)
(4.76391e-32 -4.4675e-34 1.04235e-59)
(4.8038e-32 -4.32836e-34 1.00544e-59)
(4.84205e-32 -4.19486e-34 0)
(4.87871e-32 -4.06686e-34 0)
(4.91384e-32 -3.9442e-34 0)
(4.94749e-32 -3.82672e-34 8.72379e-60)
(4.97971e-32 -3.71429e-34 0)
(5.01054e-32 -3.60674e-34 0)
(5.04003e-32 -3.50391e-34 0)
(5.06822e-32 -3.40565e-34 0)
(5.09517e-32 -3.31181e-34 0)
(5.12092e-32 -3.22222e-34 0)
(5.14551e-32 -3.13675e-34 0)
(5.16899e-32 -3.05523e-34 0)
(5.19139e-32 -2.97752e-34 -6.47106e-60)
(5.21275e-32 -2.90348e-34 0)
(5.23313e-32 -2.83297e-34 0)
(5.25254e-32 -2.76584e-34 5.90945e-60)
(5.27104e-32 -2.70197e-34 5.73995e-60)
(5.28866e-32 -2.64122e-34 0)
(5.30543e-32 -2.58346e-34 -5.42553e-60)
(5.32138e-32 -2.52858e-34 5.27987e-60)
(5.33656e-32 -2.47644e-34 0)
(5.35099e-32 -2.42694e-34 -5.01015e-60)
(5.3647e-32 -2.37996e-34 0)
(5.37772e-32 -2.33539e-34 0)
(5.39009e-32 -2.29313e-34 4.65504e-60)
(5.40183e-32 -2.25307e-34 0)
(5.41296e-32 -2.21511e-34 -4.44797e-60)
(5.42352e-32 -2.17917e-34 0)
(5.43353e-32 -2.14515e-34 4.26224e-60)
(5.44301e-32 -2.11295e-34 4.17679e-60)
(5.45199e-32 -2.0825e-34 4.09597e-60)
(5.46049e-32 -2.05372e-34 8.03913e-60)
(5.46853e-32 -2.02652e-34 -7.8947e-60)
(5.47614e-32 -2.00083e-34 0)
(5.48333e-32 -1.97658e-34 0)
(5.49012e-32 -1.9537e-34 0)
(5.49654e-32 -1.93212e-34 -7.39343e-60)
(5.50259e-32 -1.91177e-34 -7.28536e-60)
(5.5083e-32 -1.8926e-34 7.18355e-60)
(5.51369e-32 -1.87454e-34 0)
(5.51877e-32 -1.85754e-34 -6.99738e-60)
(5.52355e-32 -1.84155e-34 -6.91241e-60)
(5.52805e-32 -1.8265e-34 -6.83253e-60)
(5.53229e-32 -1.81237e-34 0)
(5.53628e-32 -1.79908e-34 0)
(5.54003e-32 -1.78661e-34 0)
(5.54355e-32 -1.77491e-34 -6.55846e-60)
(5.54685e-32 -1.76393e-34 0)
(5.54996e-32 -1.75363e-34 0)
(5.55287e-32 -1.74399e-34 6.39423e-60)
(5.5556e-32 -1.73496e-34 0)
(5.55816e-32 -1.7265e-34 0)
(5.56056e-32 -1.71859e-34 6.25929e-60)
(5.5628e-32 -1.7112e-34 0)
(5.5649e-32 -1.70429e-34 0)
(5.56686e-32 -1.69783e-34 -6.14899e-60)
(5.56869e-32 -1.69181e-34 -6.11699e-60)
(5.57041e-32 -1.68619e-34 0)
(5.57201e-32 -1.68095e-34 6.05928e-60)
(5.5735e-32 -1.67607e-34 0)
(5.57489e-32 -1.67153e-34 -6.0092e-60)
(5.57618e-32 -1.6673e-34 0)
(5.57739e-32 -1.66336e-34 -5.9658e-60)
(5.57851e-32 -1.6597e-34 -5.94639e-60)
(5.57956e-32 -1.65631e-34 0)
(5.58053e-32 -1.65315e-34 0)
(5.58143e-32 -1.65023e-34 0)
(5.58226e-32 -1.64752e-34 0)
(5.58304e-32 -1.645e-34 0)
(5.58376e-32 -1.64267e-34 0)
(5.58443e-32 -1.64052e-34 0)
(5.58504e-32 -1.63853e-34 -5.83379e-60)
(5.58561e-32 -1.63669e-34 5.82403e-60)
(5.58614e-32 -1.63498e-34 0)
(5.58663e-32 -1.63341e-34 0)
(5.58708e-32 -1.63196e-34 0)
(5.5875e-32 -1.63063e-34 0)
(5.58788e-32 -1.6294e-34 1.15705e-59)
(5.58823e-32 -1.62826e-34 0)
(5.58856e-32 -1.62722e-34 -1.15473e-59)
(5.58885e-32 -1.62625e-34 1.15371e-59)
(5.58913e-32 -1.62537e-34 0)
(5.58938e-32 -1.62455e-34 0)
(5.58961e-32 -1.6238e-34 0)
(5.58982e-32 -1.62311e-34 -1.15037e-59)
(5.59002e-32 -1.62247e-34 -1.14969e-59)
(5.59019e-32 -1.62188e-34 0)
(5.59035e-32 -1.62134e-34 -1.14849e-59)
(5.5905e-32 -1.62083e-34 -1.14795e-59)
(5.59063e-32 -1.62036e-34 1.14744e-59)
(5.59074e-32 -1.61991e-34 0)
(5.59085e-32 -1.61949e-34 0)
(5.59094e-32 -1.61909e-34 1.1461e-59)
(5.59102e-32 -1.61869e-34 0)
(5.59109e-32 -1.61831e-34 0)
(5.59115e-32 -1.61792e-34 0)
(5.59119e-32 -1.61752e-34 0)
(5.59122e-32 -1.61709e-34 -1.14402e-59)
(5.59123e-32 -1.61664e-34 -1.14354e-59)
(5.59123e-32 -1.61613e-34 0)
(5.59121e-32 -1.61556e-34 -1.14243e-59)
(5.59117e-32 -1.61489e-34 0)
(5.5911e-32 -1.61411e-34 0)
(5.591e-32 -1.61318e-34 -1.13999e-59)
(5.59086e-32 -1.61204e-34 0)
(5.59067e-32 -1.61065e-34 -1.13741e-59)
(5.59043e-32 -1.60894e-34 0)
(5.59011e-32 -1.6068e-34 0)
(5.5897e-32 -1.60412e-34 -1.13074e-59)
(5.58917e-32 -1.60074e-34 0)
(5.58848e-32 -1.59646e-34 -1.12294e-59)
(5.58761e-32 -1.59102e-34 0)
(5.58648e-32 -1.58406e-34 0)
(5.58503e-32 -1.57511e-34 0)
(5.58315e-32 -1.56354e-34 1.08941e-59)
(5.58072e-32 -1.54848e-34 0)
(5.57757e-32 -1.52869e-34 -1.0539e-59)
(5.57344e-32 -1.50245e-34 0)
(5.56799e-32 -1.46716e-34 0)
(5.56075e-32 -1.41891e-34 0)
(5.551e-32 -1.3514e-34 0)
(5.53765e-32 -1.25389e-34 0)
(5.51889e-32 -1.10643e-34 0)
(5.49157e-32 -8.6737e-35 0)
(5.44922e-32 -4.33372e-35 -1.33025e-60)
(5.37557e-32 5.26838e-35 0)
(5.21236e-32 3.53766e-34 0)
(6.16337e-34 -4.09941e-33 5.29616e-59)
(1.85385e-33 -4.09289e-33 -5.28336e-59)
(3.09864e-33 -4.08149e-33 0)
(4.34914e-33 -4.06515e-33 1.04876e-58)
(5.60377e-33 -4.04386e-33 0)
(6.86088e-33 -4.01764e-33 -5.18458e-59)
(8.11881e-33 -3.98654e-33 -1.02666e-58)
(9.37586e-33 -3.95063e-33 -1.01678e-58)
(1.06304e-32 -3.91003e-33 0)
(1.18806e-32 -3.86489e-33 -9.93439e-59)
(1.31249e-32 -3.81538e-33 4.91577e-59)
(1.43617e-32 -3.7617e-33 0)
(1.55893e-32 -3.70408e-33 0)
(1.68061e-32 -3.64276e-33 0)
(1.80108e-32 -3.57801e-33 0)
(1.92017e-32 -3.51012e-33 4.51405e-59)
(2.03777e-32 -3.43937e-33 0)
(2.15373e-32 -3.36608e-33 8.5994e-59)
(2.26794e-32 -3.29055e-33 0)
(2.38029e-32 -3.21309e-33 0)
(2.49068e-32 -3.13401e-33 -7.98361e-59)
(2.599e-32 -3.05362e-33 0)
(2.70519e-32 -2.97222e-33 7.55527e-59)
(2.80917e-32 -2.8901e-33 3.70221e-59)
(2.91087e-32 -2.80754e-33 -3.5943e-59)
(3.01023e-32 -2.72481e-33 3.4862e-59)
(3.10723e-32 -2.64216e-33 3.37823e-59)
(3.20181e-32 -2.55983e-33 0)
(3.29395e-32 -2.47803e-33 0)
(3.38363e-32 -2.39697e-33 -3.05807e-59)
(3.47084e-32 -2.31684e-33 -8.77848e-59)
(3.55558e-32 -2.23781e-33 0)
(3.63784e-32 -2.16003e-33 0)
(3.71764e-32 -2.08363e-33 -2.64914e-59)
(3.79499e-32 -2.00873e-33 0)
(3.8699e-32 -1.93543e-33 0)
(3.94241e-32 -1.86382e-33 2.36239e-59)
(4.01255e-32 -1.79398e-33 0)
(4.08034e-32 -1.72596e-33 6.45141e-59)
(4.14582e-32 -1.65981e-33 4.19262e-59)
(4.20903e-32 -1.59556e-33 0)
(4.27001e-32 -1.53324e-33 0)
(4.32881e-32 -1.47287e-33 -7.20574e-59)
(4.38548e-32 -1.41445e-33 -6.89835e-59)
(4.44005e-32 -1.35797e-33 -6.60122e-59)
(4.49259e-32 -1.30343e-33 9.57751e-59)
(4.54314e-32 -1.25081e-33 3.12601e-59)
(4.59175e-32 -1.2001e-33 -2.77694e-59)
(4.63847e-32 -1.15125e-33 5.51379e-59)
(4.68336e-32 -1.10426e-33 -2.74386e-59)
(4.72647e-32 -1.05907e-33 0)
(4.76784e-32 -1.01565e-33 2.51283e-59)
(4.80753e-32 -9.73965e-34 6.9854e-59)
(4.8456e-32 -9.33971e-34 0)
(4.88209e-32 -8.95624e-34 0)
(4.91705e-32 -8.58879e-34 0)
(4.95054e-32 -8.2369e-34 2.01231e-59)
(4.9826e-32 -7.9001e-34 0)
(5.01328e-32 -7.57794e-34 3.44426e-59)
(5.04262e-32 -7.26993e-34 0)
(5.07068e-32 -6.97562e-34 3.12744e-59)
(5.0975e-32 -6.69453e-34 0)
(5.12313e-32 -6.4262e-34 -2.83845e-59)
(5.1476e-32 -6.17018e-34 0)
(5.17096e-32 -5.92602e-34 2.57534e-59)
(5.19325e-32 -5.69328e-34 -3.80198e-59)
(5.21452e-32 -5.47152e-34 0)
(5.23479e-32 -5.26032e-34 -2.22516e-59)
(5.25411e-32 -5.05927e-34 1.18374e-59)
(5.27252e-32 -4.86796e-34 1.13386e-59)
(5.29005e-32 -4.686e-34 0)
(5.30674e-32 -4.51301e-34 -2.87332e-59)
(5.32262e-32 -4.34862e-34 9.98429e-60)
(5.33773e-32 -4.19247e-34 0)
(5.35208e-32 -4.0442e-34 -9.19042e-60)
(5.36573e-32 -3.90349e-34 -1.51133e-59)
(5.37869e-32 -3.77e-34 0)
(5.391e-32 -3.64341e-34 8.14522e-60)
(5.40268e-32 -3.52342e-34 0)
(5.41377e-32 -3.40974e-34 4.97949e-60)
(5.42428e-32 -3.30209e-34 0)
(5.43424e-32 -3.20018e-34 -4.42328e-60)
(5.44368e-32 -3.10375e-34 6.73778e-60)
(5.45262e-32 -3.01255e-34 1.69251e-59)
(5.46108e-32 -2.92633e-34 3.24931e-59)
(5.46908e-32 -2.84487e-34 -3.12106e-59)
(5.47665e-32 -2.76792e-34 0)
(5.48381e-32 -2.69528e-34 0)
(5.49057e-32 -2.62673e-34 0)
(5.49696e-32 -2.56208e-34 5.45887e-60)
(5.50298e-32 -2.50113e-34 -1.03321e-59)
(5.50867e-32 -2.4437e-34 1.00325e-59)
(5.51403e-32 -2.38961e-34 0)
(5.51909e-32 -2.3387e-34 -2.32422e-59)
(5.52385e-32 -2.29079e-34 -9.2348e-60)
(5.52833e-32 -2.24573e-34 -8.99975e-60)
(5.53255e-32 -2.20338e-34 0)
(5.53652e-32 -2.16359e-34 0)
(5.54025e-32 -2.12623e-34 0)
(5.54376e-32 -2.09117e-34 -8.1934e-60)
(5.54705e-32 -2.05828e-34 0)
(5.55014e-32 -2.02745e-34 -1.04805e-59)
(5.55304e-32 -1.99855e-34 -2.46606e-60)
(5.55576e-32 -1.97149e-34 9.89133e-60)
(5.5583e-32 -1.94617e-34 0)
(5.56069e-32 -1.92247e-34 1.66884e-59)
(5.56292e-32 -1.90032e-34 0)
(5.56501e-32 -1.87962e-34 8.92389e-60)
(5.56697e-32 -1.86029e-34 -1.57092e-59)
(5.56879e-32 -1.84224e-34 -1.54249e-59)
(5.5705e-32 -1.82541e-34 0)
(5.57209e-32 -1.80972e-34 -1.46283e-60)
(5.57357e-32 -1.7951e-34 8.03381e-60)
(5.57496e-32 -1.78148e-34 -6.57762e-60)
(5.57625e-32 -1.76881e-34 0)
(5.57745e-32 -1.75702e-34 -6.44999e-60)
(5.57857e-32 -1.74607e-34 1.12455e-60)
(5.57961e-32 -1.73589e-34 0)
(5.58057e-32 -1.72645e-34 7.31076e-60)
(5.58147e-32 -1.71768e-34 7.21841e-60)
(5.5823e-32 -1.70955e-34 7.13281e-60)
(5.58308e-32 -1.70202e-34 0)
(5.58379e-32 -1.69505e-34 0)
(5.58446e-32 -1.68859e-34 0)
(5.58507e-32 -1.68262e-34 -1.29109e-59)
(5.58564e-32 -1.67711e-34 6.03299e-60)
(5.58617e-32 -1.67201e-34 0)
(5.58665e-32 -1.6673e-34 -6.68777e-60)
(5.5871e-32 -1.66296e-34 -6.64201e-60)
(5.58751e-32 -1.65896e-34 0)
(5.58789e-32 -1.65527e-34 1.1838e-59)
(5.58825e-32 -1.65187e-34 -1.30503e-59)
(5.58857e-32 -1.64874e-34 -1.17699e-59)
(5.58887e-32 -1.64585e-34 2.46634e-59)
(5.58914e-32 -1.6432e-34 0)
(5.58939e-32 -1.64076e-34 0)
(5.58962e-32 -1.63851e-34 0)
(5.58983e-32 -1.63644e-34 -1.16415e-59)
(5.59002e-32 -1.63453e-34 -2.43065e-59)
(5.5902e-32 -1.63276e-34 -1.26478e-59)
(5.59036e-32 -1.63112e-34 -1.15861e-59)
(5.5905e-32 -1.62961e-34 -2.41516e-59)
(5.59063e-32 -1.62819e-34 1.15554e-59)
(5.59075e-32 -1.62685e-34 0)
(5.59085e-32 -1.62559e-34 0)
(5.59095e-32 -1.62438e-34 2.39875e-59)
(5.59103e-32 -1.62321e-34 0)
(5.59109e-32 -1.62205e-34 0)
(5.59115e-32 -1.62089e-34 -1.23986e-59)
(5.59119e-32 -1.61969e-34 0)
(5.59122e-32 -1.61842e-34 -2.38014e-59)
(5.59124e-32 -1.61706e-34 -1.14398e-59)
(5.59124e-32 -1.61555e-34 0)
(5.59122e-32 -1.61384e-34 -2.3659e-59)
(5.59118e-32 -1.61185e-34 0)
(5.59111e-32 -1.60952e-34 0)
(5.59101e-32 -1.60673e-34 -1.13332e-59)
(5.59087e-32 -1.60334e-34 -1.20368e-59)
(5.59069e-32 -1.59919e-34 -1.12555e-59)
(5.59045e-32 -1.59406e-34 0)
(5.59014e-32 -1.58767e-34 0)
(5.58973e-32 -1.57967e-34 -2.26063e-59)
(5.58921e-32 -1.56959e-34 0)
(5.58853e-32 -1.55682e-34 -2.19033e-59)
(5.58767e-32 -1.54058e-34 0)
(5.58656e-32 -1.51982e-34 0)
(5.58513e-32 -1.49313e-34 0)
(5.58329e-32 -1.45863e-34 9.80916e-60)
(5.5809e-32 -1.41371e-34 0)
(5.57779e-32 -1.35475e-34 -8.74029e-60)
(5.57374e-32 -1.27658e-34 0)
(5.5684e-32 -1.17159e-34 0)
(5.56131e-32 -1.02821e-34 -2.55018e-61)
(5.55179e-32 -8.27968e-35 -3.84981e-60)
(5.5388e-32 -5.39631e-35 0)
(5.52069e-32 -1.05926e-35 0)
(5.49466e-32 5.90012e-35 0)
(5.45555e-32 1.82475e-34 6.86473e-59)
(5.39341e-32 4.4004e-34 0)
(5.29537e-32 1.13389e-33 -5.0897e-58)
(6.23176e-34 -6.74882e-33 3.48831e-58)
(1.87437e-33 -6.73777e-33 -4.46146e-62)
(3.13279e-33 -6.71844e-33 0)
(4.3968e-33 -6.69074e-33 1.04165e-61)
(5.66471e-33 -6.65464e-33 0)
(6.93479e-33 -6.61019e-33 0)
(8.20529e-33 -6.55746e-33 -3.38043e-58)
(9.47446e-33 -6.49662e-33 -1.67486e-58)
(1.07405e-32 -6.42785e-33 1.65395e-58)
(1.20017e-32 -6.35142e-33 -1.63613e-58)
(1.32563e-32 -6.26762e-33 0)
(1.45026e-32 -6.17682e-33 0)
(1.57389e-32 -6.0794e-33 -1.56034e-58)
(1.69638e-32 -5.9758e-33 -3.06537e-58)
(1.81755e-32 -5.86646e-33 3.00713e-58)
(1.93727e-32 -5.75188e-33 0)
(2.05541e-32 -5.63257e-33 2.88284e-58)
(2.17182e-32 -5.50904e-33 1.41379e-58)
(2.2864e-32 -5.38181e-33 0)
(2.39904e-32 -5.25143e-33 2.68093e-58)
(2.50962e-32 -5.11842e-33 -1.31123e-58)
(2.61808e-32 -4.98329e-33 -2.5392e-58)
(2.72432e-32 -4.84655e-33 1.23994e-58)
(2.82828e-32 -4.70869e-33 0)
(2.9299e-32 -4.57018e-33 2.32122e-58)
(3.02913e-32 -4.43147e-33 2.2481e-58)
(3.12592e-32 -4.29297e-33 0)
(3.22026e-32 -4.15509e-33 2.10251e-58)
(3.31211e-32 -4.01818e-33 0)
(3.40146e-32 -3.88259e-33 1.95906e-58)
(3.4883e-32 -3.74862e-33 -9.52522e-59)
(3.57264e-32 -3.61655e-33 0)
(3.65448e-32 -3.48662e-33 0)
(3.73383e-32 -3.35906e-33 0)
(3.81072e-32 -3.23406e-33 0)
(3.88516e-32 -3.11178e-33 0)
(3.95718e-32 -2.99237e-33 0)
(4.02682e-32 -2.87593e-33 1.42978e-58)
(4.09411e-32 -2.76258e-33 -6.75442e-59)
(4.15909e-32 -2.65237e-33 0)
(4.22181e-32 -2.54536e-33 0)
(4.2823e-32 -2.4416e-33 0)
(4.34061e-32 -2.3411e-33 -2.31815e-58)
(4.39679e-32 -2.24386e-33 -1.11852e-58)
(4.4509e-32 -2.14988e-33 -2.10189e-60)
(4.50297e-32 -2.05915e-33 2.12645e-60)
(4.55306e-32 -1.97162e-33 -9.54805e-59)
(4.60123e-32 -1.88727e-33 -9.32244e-59)
(4.64753e-32 -1.80605e-33 1.75769e-58)
(4.692e-32 -1.72791e-33 8.26841e-59)
(4.7347e-32 -1.65278e-33 0)
(4.77568e-32 -1.58061e-33 7.49504e-59)
(4.81499e-32 -1.51132e-33 1.44899e-58)
(4.8527e-32 -1.44485e-33 0)
(4.88884e-32 -1.38112e-33 0)
(4.92346e-32 -1.32006e-33 -6.12709e-59)
(4.95662e-32 -1.26159e-33 0)
(4.98837e-32 -1.20562e-33 0)
(5.01875e-32 -1.15209e-33 1.59727e-58)
(5.04781e-32 -1.10092e-33 9.9531e-59)
(5.0756e-32 -1.05202e-33 4.95948e-59)
(5.10216e-32 -1.00532e-33 0)
(5.12753e-32 -9.60741e-34 -4.48268e-59)
(5.15176e-32 -9.18208e-34 0)
(5.1749e-32 -8.77645e-34 1.16571e-58)
(5.19697e-32 -8.3898e-34 -3.84663e-59)