/*--------------------------------*- C++ -*----------------------------------*\
  =========                 |
  \\      /  F ield         | OpenFOAM: The Open Source CFD Toolbox
   \\    /   O peration     | Website:  https://openfoam.org
    \\  /    A nd           | Version:  11
     \\/     M anipulation  |
\*---------------------------------------------------------------------------*/
FoamFile
{
    format      ascii;
    class       volVectorField;
    location    "46";
    object      U;
}
// * * * * * * * * * * * * * * * * * * * * * * * * * * * * * * * * * * * * * //

dimensions      [0 1 -1 0 0 0 0];

internalField   nonuniform List<vector> 
2048
(
(1.00014 -0.000601731 0)
(1.00258 -0.00181527 0)
(1.00739 -0.00305343 0)
(1.01472 -0.00433011 0)
(1.02469 -0.00565557 0)
(1.03735 -0.00703282 0)
(1.0528 -0.00845486 0)
(1.07111 -0.00990281 0)
(1.09231 -0.0113449 0)
(1.11637 -0.0127365 0)
(1.14315 -0.0140211 0)
(1.17238 -0.0151328 0)
(1.20366 -0.0160027 0)
(1.23647 -0.0165671 0)
(1.27014 -0.01678 0)
(1.30396 -0.016624 0)
(1.33716 -0.016117 0)
(1.36907 -0.0153115 0)
(1.39909 -0.0142828 0)
(1.42683 -0.0131095 0)
(1.45203 -0.0118583 0)
(1.47462 -0.0105787 0)
(1.49458 -0.0093055 0)
(1.51197 -0.00806209 0)
(1.52689 -0.0068631 0)
(1.53944 -0.00571652 0)
(1.54974 -0.00462656 0)
(1.55791 -0.00359646 0)
(1.56408 -0.00263064 0)
(1.56839 -0.00173575 0)
(1.57098 -0.000921518 0)
(1.57202 -0.000200588 0)
(1.57172 0.000411103 0)
(1.57031 0.000896467 0)
(1.56805 0.00123824 0)
(1.56524 0.00141947 0)
(1.56223 0.00142807 0)
(1.55938 0.00125389 0)
(1.55705 0.00089465 0)
(1.55561 0.000355516 0)
(1.55543 -0.000350354 0)
(1.55681 -0.00120113 0)
(1.56003 -0.00216657 0)
(1.56529 -0.00320728 0)
(1.5727 -0.00427489 0)
(1.58226 -0.00531472 0)
(1.59388 -0.00626735 0)
(1.60731 -0.00707212 0)
(1.62222 -0.00766914 0)
(1.63812 -0.00800474 0)
(1.65446 -0.00803255 0)
(1.67053 -0.00772314 0)
(1.68575 -0.00705854 0)
(1.69917 -0.00604957 0)
(1.71049 -0.00471857 0)
(1.71843 -0.00312686 0)
(1.72363 -0.00133338 0)
(1.72384 0.00054987 0)
(1.72221 0.00244832 0)
(1.71344 0.00422902 0)
(1.70671 0.00581975 0)
(1.68788 0.00714891 0)
(1.68151 0.00807564 0)
(1.6495 0.00886833 0)
(1.00014 -0.00179989 0)
(1.00255 -0.00542977 0)
(1.0073 -0.00913544 0)
(1.01457 -0.0129616 0)
(1.02445 -0.0169417 0)
(1.03705 -0.0210866 0)
(1.05246 -0.0253774 0)
(1.07079 -0.0297581 0)
(1.0921 -0.034133 0)
(1.11637 -0.0383653 0)
(1.14348 -0.0422803 0)
(1.17319 -0.0456757 0)
(1.20509 -0.0483374 0)
(1.23863 -0.0500665 0)
(1.2731 -0.050716 0)
(1.30771 -0.0502266 0)
(1.34164 -0.0486534 0)
(1.37413 -0.0461664 0)
(1.40459 -0.043007 0)
(1.4326 -0.039422 0)
(1.45796 -0.0356155 0)
(1.48062 -0.0317366 0)
(1.50058 -0.0278888 0)
(1.51793 -0.0241403 0)
(1.53278 -0.0205322 0)
(1.54525 -0.0170854 0)
(1.55545 -0.0138099 0)
(1.56351 -0.0107139 0)
(1.56956 -0.00780943 0)
(1.57373 -0.00511557 0)
(1.57615 -0.00266104 0)
(1.57699 -0.000483611 0)
(1.57646 0.00136641 0)
(1.57477 0.00283756 0)
(1.57221 0.00387521 0)
(1.56907 0.00442856 0)
(1.56571 0.00445667 0)
(1.56249 0.00393359 0)
(1.55981 0.00284906 0)
(1.55804 0.001215 0)
(1.55756 -0.000928496 0)
(1.55871 -0.00351607 0)
(1.56177 -0.00645597 0)
(1.56696 -0.00962766 0)
(1.57441 -0.0128849 0)
(1.58413 -0.016062 0)
(1.59602 -0.0189778 0)
(1.60986 -0.0214468 0)
(1.62528 -0.023285 0)
(1.64178 -0.0243276 0)
(1.6588 -0.0244307 0)
(1.67558 -0.0235028 0)
(1.69151 -0.0214883 0)
(1.70558 -0.0184212 0)
(1.71747 -0.0143676 0)
(1.72582 -0.00951747 0)
(1.73127 -0.00404595 0)
(1.7315 0.00170544 0)
(1.72973 0.00751277 0)
(1.72052 0.0129401 0)
(1.71332 0.0177951 0)
(1.6936 0.021811 0)
(1.68678 0.0246335 0)
(1.6534 0.0269697 0)
(1.00013 -0.00297543 0)
(1.00248 -0.00897862 0)
(1.00713 -0.0151168 0)
(1.01424 -0.0214729 0)
(1.02394 -0.0281111 0)
(1.03638 -0.035057 0)
(1.05169 -0.042287 0)
(1.07003 -0.0497129 0)
(1.09152 -0.0571752 0)
(1.11619 -0.0644368 0)
(1.14398 -0.0711877 0)
(1.17466 -0.0770674 0)
(1.20782 -0.0816908 0)
(1.24285 -0.084699 0)
(1.27896 -0.0858204 0)
(1.31521 -0.0849343 0)
(1.35063 -0.0821409 0)
(1.38431 -0.0777674 0)
(1.41562 -0.072267 0)
(1.44417 -0.0660827 0)
(1.46982 -0.0595663 0)
(1.49258 -0.0529691 0)
(1.51252 -0.0464618 0)
(1.52977 -0.0401525 0)
(1.54447 -0.0340993 0)
(1.55675 -0.0283265 0)
(1.56676 -0.0228431 0)
(1.5746 -0.0176574 0)
(1.5804 -0.012786 0)
(1.58428 -0.00825804 0)
(1.58636 -0.00412077 0)
(1.58681 -0.000434887 0)
(1.58581 0.00270934 0)
(1.58358 0.00522087 0)
(1.5804 0.00700306 0)
(1.57659 0.00796492 0)
(1.57251 0.00803267 0)
(1.56855 0.00715985 0)
(1.56514 0.00532751 0)
(1.56268 0.00255411 0)
(1.56159 -0.00109776 0)
(1.56224 -0.00552224 0)
(1.56495 -0.0105665 0)
(1.56998 -0.0160239 0)
(1.57749 -0.0216424 0)
(1.58751 -0.0271385 0)
(1.59995 -0.0322017 0)
(1.61457 -0.0365126 0)
(1.63101 -0.0397507 0)
(1.64873 -0.0416273 0)
(1.66711 -0.0418879 0)
(1.68533 -0.0403665 0)
(1.70269 -0.0369593 0)
(1.7181 -0.0317203 0)
(1.73114 -0.0247577 0)
(1.74035 -0.0164063 0)
(1.74633 -0.0069714 0)
(1.74663 0.00296895 0)
(1.74458 0.0130222 0)
(1.73446 0.0223799 0)
(1.72631 0.0307586 0)
(1.7048 0.0375897 0)
(1.69704 0.0424314 0)
(1.66089 0.0462103 0)
(1.00013 -0.00410562 0)
(1.00238 -0.0123979 0)
(1.00683 -0.0209001 0)
(1.01366 -0.0297443 0)
(1.02306 -0.0390365 0)
(1.03519 -0.0488293 0)
(1.05028 -0.0591083 0)
(1.06857 -0.0697628 0)
(1.09026 -0.0805799 0)
(1.11549 -0.0912127 0)
(1.14427 -0.101189 0)
(1.17641 -0.109937 0)
(1.21152 -0.116834 0)
(1.24889 -0.121307 0)
(1.2876 -0.12292 0)
(1.32647 -0.12147 0)
(1.36421 -0.117144 0)
(1.39971 -0.110516 0)
(1.43225 -0.102323 0)
(1.46153 -0.0932372 0)
(1.48754 -0.0837668 0)
(1.51037 -0.0742682 0)
(1.53022 -0.0649779 0)
(1.54726 -0.0560324 0)
(1.5617 -0.0474891 0)
(1.57369 -0.0393597 0)
(1.58339 -0.0316402 0)
(1.5909 -0.0243307 0)
(1.59633 -0.0174469 0)
(1.59979 -0.0110254 0)
(1.60138 -0.00513171 0)
(1.60124 0.000141518 0)
(1.59952 0.00467884 0)
(1.59647 0.00832835 0)
(1.59234 0.0109414 0)
(1.58749 0.0123814 0)
(1.58229 0.0125341 0)
(1.57719 0.0113196 0)
(1.57262 0.0087062 0)
(1.56907 0.00471309 0)
(1.567 -0.000571891 0)
(1.56683 -0.00699776 0)
(1.56894 -0.0143517 0)
(1.57366 -0.0223441 0)
(1.58119 -0.0306113 0)
(1.59157 -0.0387346 0)
(1.60475 -0.0462565 0)
(1.62048 -0.0527073 0)
(1.63837 -0.0576119 0)
(1.65783 -0.0605377 0)
(1.67818 -0.0610967 0)
(1.69849 -0.0590324 0)
(1.71796 -0.0541747 0)
(1.73534 -0.0465896 0)
(1.75012 -0.0364245 0)
(1.76063 -0.0241658 0)
(1.76747 -0.0102779 0)
(1.76796 0.00439932 0)
(1.76556 0.0192521 0)
(1.75416 0.0330124 0)
(1.74464 0.0453482 0)
(1.7205 0.0552317 0)
(1.71132 0.0623068 0)
(1.67104 0.0673579 0)
(1.00012 -0.00516493 0)
(1.00221 -0.0156142 0)
(1.00636 -0.0263688 0)
(1.01277 -0.037627 0)
(1.02166 -0.0495515 0)
(1.03327 -0.06224 0)
(1.04793 -0.0757069 0)
(1.06598 -0.0898331 0)
(1.08777 -0.104381 0)
(1.11362 -0.11889 0)
(1.14366 -0.132722 0)
(1.17781 -0.145015 0)
(1.21567 -0.154759 0)
(1.25643 -0.161044 0)
(1.2989 -0.163145 0)
(1.34151 -0.160751 0)
(1.38249 -0.15429 0)
(1.4204 -0.144776 0)
(1.4545 -0.13334 0)
(1.48463 -0.120904 0)
(1.51096 -0.108133 0)
(1.53378 -0.0954892 0)
(1.55338 -0.0832684 0)
(1.57006 -0.0716101 0)
(1.58409 -0.0605407 0)
(1.59566 -0.0500357 0)
(1.60493 -0.0400622 0)
(1.61199 -0.0305997 0)
(1.61692 -0.0216501 0)
(1.61981 -0.013253 0)
(1.62073 -0.00549345 0)
(1.61978 0.00150479 0)
(1.61711 0.00757518 0)
(1.61291 0.0125 0)
(1.60746 0.0160667 0)
(1.60114 0.0180869 0)
(1.59436 0.0183972 0)
(1.58759 0.0168754 0)
(1.58135 0.0134579 0)
(1.57618 0.00816285 0)
(1.57261 0.00107786 0)
(1.57114 -0.00761259 0)
(1.57222 -0.0175949 0)
(1.57624 -0.0284698 0)
(1.58346 -0.0397755 0)
(1.59398 -0.0509539 0)
(1.60773 -0.0613749 0)
(1.62447 -0.0703909 0)
(1.64377 -0.0773442 0)
(1.66499 -0.0816306 0)
(1.68738 -0.0827005 0)
(1.70991 -0.0801808 0)
(1.73169 -0.0738162 0)
(1.75134 -0.0636764 0)
(1.76823 -0.0499411 0)
(1.78051 -0.0332989 0)
(1.78873 -0.014295 0)
(1.78989 0.00585729 0)
(1.78751 0.0263197 0)
(1.77501 0.0451681 0)
(1.76421 0.0621012 0)
(1.73712 0.0753715 0)
(1.72638 0.0850253 0)
(1.68112 0.0911111 0)
(1.00011 -0.00611891 0)
(1.00197 -0.0185283 0)
(1.00567 -0.0313595 0)
(1.01144 -0.0449066 0)
(1.01955 -0.0594005 0)
(1.03033 -0.0750226 0)
(1.04421 -0.0918346 0)
(1.0617 -0.109726 0)
(1.08333 -0.128476 0)
(1.10966 -0.147494 0)
(1.14107 -0.166056 0)
(1.17774 -0.182925 0)
(1.21933 -0.196559 0)
(1.26483 -0.205448 0)
(1.31267 -0.208155 0)
(1.3605 -0.204194 0)
(1.40575 -0.194598 0)
(1.44662 -0.181199 0)
(1.48248 -0.165675 0)
(1.51348 -0.14922 0)
(1.54003 -0.132654 0)
(1.56258 -0.116544 0)
(1.58163 -0.101216 0)
(1.59762 -0.0867599 0)
(1.61092 -0.0731284 0)
(1.62176 -0.0602339 0)
(1.63029 -0.0479957 0)
(1.6366 -0.0363546 0)
(1.64076 -0.0252849 0)
(1.64279 -0.0148074 0)
(1.64273 -0.00503274 0)
(1.64064 0.0039065 0)
(1.6366 0.0117318 0)
(1.6308 0.0181464 0)
(1.62352 0.0228662 0)
(1.61516 0.0256282 0)
(1.60615 0.026211 0)
(1.597 0.0244414 0)
(1.5883 0.02023 0)
(1.58063 0.013572 0)
(1.57459 0.00460713 0)
(1.5708 -0.00652518 0)
(1.56982 -0.0195027 0)
(1.57204 -0.0337206 0)
(1.57774 -0.0485434 0)
(1.58706 -0.063267 0)
(1.59994 -0.0770929 0)
(1.6161 -0.0891818 0)
(1.63512 -0.0986697 0)
(1.65633 -0.104757 0)
(1.67903 -0.106716 0)
(1.70222 -0.104039 0)
(1.72509 -0.0963435 0)
(1.74627 -0.0836866 0)
(1.76514 -0.0662208 0)
(1.77972 -0.0448118 0)
(1.79058 -0.020193 0)
(1.7941 0.0059925 0)
(1.7937 0.0329682 0)
(1.78208 0.0578848 0)
(1.7719 0.0804633 0)
(1.74361 0.0977492 0)
(1.73248 0.110651 0)
(1.68359 0.117641 0)
(1.00009 -0.00692272 0)
(1.00162 -0.021014 0)
(1.00469 -0.0356515 0)
(1.00954 -0.0512879 0)
(1.0165 -0.0682 0)
(1.02597 -0.0867648 0)
(1.0386 -0.107071 0)
(1.05498 -0.129107 0)
(1.07599 -0.152673 0)
(1.1024 -0.176946 0)
(1.13497 -0.201304 0)
(1.17451 -0.223939 0)
(1.2208 -0.242967 0)
(1.27282 -0.255831 0)
(1.32847 -0.259424 0)
(1.38383 -0.253052 0)
(1.43486 -0.239022 0)
(1.47935 -0.220442 0)
(1.51701 -0.199693 0)
(1.54841 -0.178291 0)
(1.57425 -0.157259 0)
(1.59531 -0.137279 0)
(1.6124 -0.118628 0)
(1.62627 -0.10126 0)
(1.63743 -0.0850085 0)
(1.64619 -0.0697033 0)
(1.65274 -0.0551913 0)
(1.65719 -0.0413518 0)
(1.65959 -0.0281086 0)
(1.65993 -0.0154748 0)
(1.65818 -0.00350651 0)
(1.65431 0.00760364 0)
(1.64827 0.0174669 0)
(1.64022 0.0256942 0)
(1.63042 0.0319139 0)
(1.61923 0.0357534 0)
(1.60709 0.0368868 0)
(1.59453 0.0350712 0)
(1.58212 0.0301763 0)
(1.57052 0.0222069 0)
(1.56028 0.0113011 0)
(1.55193 -0.00218455 0)
(1.54625 -0.017993 0)
(1.54376 -0.035612 0)
(1.5446 -0.0542111 0)
(1.54883 -0.0727292 0)
(1.5564 -0.0902055 0)
(1.56705 -0.105652 0)
(1.58052 -0.118035 0)
(1.59639 -0.126409 0)
(1.61437 -0.129911 0)
(1.6339 -0.127931 0)
(1.65462 -0.119949 0)
(1.67544 -0.105906 0)
(1.69598 -0.0857937 0)
(1.71395 -0.0605075 0)
(1.72988 -0.0304772 0)
(1.73986 0.00174862 0)
(1.74652 0.035473 0)
(1.74148 0.0671053 0)
(1.73734 0.0965957 0)
(1.71389 0.119063 0)
(1.70627 0.136512 0)
(1.66038 0.145294 0)
(1.00005 -0.00752147 0)
(1.00116 -0.0229223 0)
(1.00335 -0.0389621 0)
(1.00695 -0.0563928 0)
(1.01221 -0.0753879 0)
(1.01978 -0.0968506 0)
(1.03036 -0.120648 0)
(1.04481 -0.147373 0)
(1.06455 -0.176607 0)
(1.09027 -0.207276 0)
(1.12374 -0.239047 0)
(1.16624 -0.268553 0)
(1.21756 -0.294309 0)
(1.27862 -0.312305 0)
(1.34665 -0.316598 0)
(1.41348 -0.306763 0)
(1.47181 -0.287051 0)
(1.51892 -0.261894 0)
(1.55536 -0.234446 0)
(1.58268 -0.20675 0)
(1.60249 -0.180283 0)
(1.61644 -0.155905 0)
(1.62613 -0.133692 0)
(1.6328 -0.113324 0)
(1.63723 -0.0944759 0)
(1.63989 -0.0768798 0)
(1.64106 -0.0602543 0)
(1.6409 -0.0443753 0)
(1.63944 -0.029046 0)
(1.63659 -0.0143162 0)
(1.63223 -0.000145863 0)
(1.62602 0.0131438 0)
(1.61769 0.0251855 0)
(1.60726 0.0355434 0)
(1.59483 0.0437152 0)
(1.58056 0.0491865 0)
(1.56477 0.0514842 0)
(1.54788 0.0502422 0)
(1.53041 0.0452435 0)
(1.51294 0.0364826 0)
(1.49613 0.0240525 0)
(1.48019 0.00838049 0)
(1.46544 -0.00973392 0)
(1.45258 -0.0296612 0)
(1.44208 -0.0511442 0)
(1.43396 -0.0726728 0)
(1.42809 -0.093076 0)
(1.42469 -0.111335 0)
(1.42429 -0.126435 0)
(1.42746 -0.13749 0)
(1.4349 -0.143649 0)
(1.4469 -0.144231 0)
(1.46365 -0.138469 0)
(1.48423 -0.126018 0)
(1.50813 -0.106427 0)
(1.53286 -0.0803595 0)
(1.55814 -0.0477705 0)
(1.57945 -0.011419 0)
(1.5993 0.0279946 0)
(1.60877 0.0659312 0)
(1.61827 0.10279 0)
(1.60948 0.131637 0)
(1.61124 0.154922 0)
(1.58097 0.168182 0)
(0.999993 -0.00785595 0)
(1.00061 -0.024091 0)
(1.00157 -0.0409624 0)
(1.00366 -0.0597806 0)
(1.00638 -0.0802054 0)
(1.01153 -0.104449 0)
(1.01846 -0.131165 0)
(1.03013 -0.163422 0)
(1.04687 -0.19892 0)
(1.07086 -0.238405 0)
(1.1057 -0.281252 0)
(1.15031 -0.319152 0)
(1.20769 -0.354019 0)
(1.28439 -0.378825 0)
(1.37113 -0.382837 0)
(1.44898 -0.367382 0)
(1.50652 -0.339256 0)
(1.5431 -0.304087 0)
(1.56259 -0.266378 0)
(1.56952 -0.229352 0)
(1.56778 -0.195554 0)
(1.56072 -0.165989 0)
(1.55117 -0.140117 0)
(1.54085 -0.117099 0)
(1.53068 -0.0963576 0)
(1.52111 -0.0773944 0)
(1.51252 -0.0597245 0)
(1.50489 -0.0428248 0)
(1.49817 -0.0263853 0)
(1.49176 -0.010215 0)
(1.48551 0.00546607 0)
(1.47849 0.0203451 0)
(1.47007 0.0342583 0)
(1.4598 0.0467767 0)
(1.44732 0.0572495 0)
(1.43236 0.0649918 0)
(1.41486 0.0693656 0)
(1.3949 0.0698637 0)
(1.37274 0.0661449 0)
(1.3487 0.0580956 0)
(1.32328 0.0458646 0)
(1.29703 0.0297979 0)
(1.27011 0.0106037 0)
(1.24176 -0.0108392 0)
(1.21319 -0.0330138 0)
(1.18599 -0.0554008 0)
(1.16098 -0.0772846 0)
(1.14008 -0.0979567 0)
(1.12557 -0.116797 0)
(1.11921 -0.133039 0)
(1.12208 -0.145535 0)
(1.1341 -0.15295 0)
(1.15463 -0.153732 0)
(1.18177 -0.146868 0)
(1.2143 -0.131277 0)
(1.24914 -0.107502 0)
(1.28577 -0.0753494 0)
(1.31979 -0.0373283 0)
(1.35347 0.0063172 0)
(1.37929 0.0494974 0)
(1.4039 0.0930484 0)
(1.41492 0.128695 0)
(1.42791 0.158002 0)
(1.42329 0.178806 0)
(0.999888 -0.00787787 0)
(1.00001 -0.0243477 0)
(0.99929 -0.0413396 0)
(0.999847 -0.0609636 0)
(0.998726 -0.0818241 0)
(1.00156 -0.108535 0)
(1.00148 -0.13654 0)
(1.01111 -0.175516 0)
(1.01799 -0.215334 0)
(1.04244 -0.269418 0)
(1.07395 -0.327513 0)
(1.1206 -0.379732 0)
(1.19528 -0.442829 0)
(1.295 -0.480512 0)
(1.38754 -0.47506 0)
(1.44493 -0.439776 0)
(1.4627 -0.389153 0)
(1.45146 -0.33219 0)
(1.42126 -0.275956 0)
(1.38149 -0.224712 0)
(1.33769 -0.182109 0)
(1.29443 -0.147941 0)
(1.25568 -0.12015 0)
(1.22282 -0.0971654 0)
(1.19579 -0.0778308 0)
(1.17433 -0.0610594 0)
(1.15837 -0.0458827 0)
(1.1472 -0.0313876 0)
(1.14045 -0.017064 0)
(1.13622 -0.00234702 0)
(1.13377 0.0125193 0)
(1.13218 0.027315 0)
(1.13033 0.0420004 0)
(1.12686 0.0560931 0)
(1.12069 0.0688054 0)
(1.111 0.0792658 0)
(1.09717 0.0866542 0)
(1.07883 0.0902727 0)
(1.05579 0.0896408 0)
(1.02804 0.084581 0)
(0.995809 0.0751971 0)
(0.959455 0.0618574 0)
(0.919994 0.0450678 0)
(0.879476 0.0255548 0)
(0.840415 0.00394992 0)
(0.805363 -0.0207015 0)
(0.778256 -0.0481594 0)
(0.761822 -0.0775376 0)
(0.757059 -0.107272 0)
(0.763592 -0.1352 0)
(0.780269 -0.158846 0)
(0.805257 -0.175897 0)
(0.836925 -0.18429 0)
(0.873078 -0.182799 0)
(0.912611 -0.170485 0)
(0.953007 -0.148069 0)
(0.994331 -0.115379 0)
(1.03337 -0.0755241 0)
(1.07194 -0.0283341 0)
(1.10549 0.0192154 0)
(1.13686 0.0683029 0)
(1.16198 0.110062 0)
(1.1808 0.144583 0)
(1.20004 0.174126 0)
(0.999762 -0.00756589 0)
(0.999368 -0.0235135 0)
(0.996655 -0.039894 0)
(0.995616 -0.0593944 0)
(0.989555 -0.0796835 0)
(0.990339 -0.107758 0)
(0.979271 -0.13499 0)
(0.98909 -0.180705 0)
(0.972049 -0.218928 0)
(1.00756 -0.297132 0)
(1.00228 -0.359619 0)
(1.07669 -0.45943 0)
(1.16886 -0.598429 0)
(1.254 -0.624926 0)
(1.28277 -0.563738 0)
(1.24409 -0.469805 0)
(1.16348 -0.371699 0)
(1.06906 -0.281602 0)
(0.971433 -0.206018 0)
(0.882426 -0.144804 0)
(0.800296 -0.102094 0)
(0.732822 -0.0733055 0)
(0.684564 -0.0537796 0)
(0.652384 -0.0413566 0)
(0.632548 -0.033629 0)
(0.622486 -0.0281348 0)
(0.62003 -0.0229802 0)
(0.623254 -0.0169235 0)
(0.6307 -0.00923075 0)
(0.640007 0.000299216 0)
(0.649959 0.0123383 0)
(0.66035 0.0264971 0)
(0.669777 0.0419917 0)
(0.676424 0.0580701 0)
(0.679072 0.0738369 0)
(0.676746 0.0882732 0)
(0.668692 0.100387 0)
(0.654489 0.109283 0)
(0.634082 0.114247 0)
(0.608102 0.114739 0)
(0.577877 0.110324 0)
(0.545486 0.100548 0)
(0.513774 0.0848982 0)
(0.485816 0.0628286 0)
(0.46427 0.0337835 0)
(0.45099 -0.00115582 0)
(0.446614 -0.0402578 0)
(0.450733 -0.0812726 0)
(0.462582 -0.121507 0)
(0.481186 -0.158221 0)
(0.505621 -0.188822 0)
(0.534832 -0.211085 0)
(0.568001 -0.223169 0)
(0.603821 -0.223945 0)
(0.641806 -0.212636 0)
(0.679991 -0.189837 0)
(0.718708 -0.155836 0)
(0.755309 -0.113863 0)
(0.791458 -0.0642282 0)
(0.824538 -0.0138771 0)
(0.855012 0.0386983 0)
(0.885775 0.0839291 0)
(0.904546 0.122184 0)
(0.939462 0.158337 0)
(0.999686 -0.00691418 0)
(0.998588 -0.0214579 0)
(0.994065 -0.036557 0)
(0.990824 -0.0545945 0)
(0.98025 -0.0736683 0)
(0.977367 -0.100525 0)
(0.95565 -0.126434 0)
(0.962437 -0.173745 0)
(0.915506 -0.207688 0)
(0.962965 -0.306915 0)
(0.86495 -0.346779 0)
(1.02999 -0.566204 0)
(0.977344 -0.720209 0)
(0.955105 -0.63449 0)
(0.844217 -0.477984 0)
(0.679373 -0.325954 0)
(0.522519 -0.20156 0)
(0.398514 -0.113683 0)
(0.303154 -0.0601031 0)
(0.235396 -0.0228413 0)
(0.181912 -0.0206082 0)
(0.168298 -0.0304333 0)
(0.178039 -0.0380677 0)
(0.191927 -0.0437619 0)
(0.206571 -0.0467464 0)
(0.221242 -0.0468787 0)
(0.235413 -0.0442483 0)
(0.248927 -0.0388855 0)
(0.261702 -0.0305513 0)
(0.273532 -0.0190183 0)
(0.283813 -0.00419712 0)
(0.292621 0.013193 0)
(0.299624 0.0323741 0)
(0.304075 0.0527779 0)
(0.305386 0.0735095 0)
(0.302989 0.0934274 0)
(0.296666 0.111234 0)
(0.286415 0.125602 0)
(0.272789 0.135185 0)
(0.256905 0.1387 0)
(0.240221 0.135056 0)
(0.224604 0.123314 0)
(0.211581 0.103103 0)
(0.202333 0.0744838 0)
(0.197494 0.0385088 0)
(0.197095 -0.00294307 0)
(0.20106 -0.0479991 0)
(0.209452 -0.094369 0)
(0.222325 -0.139446 0)
(0.239626 -0.180595 0)
(0.261214 -0.215224 0)
(0.286705 -0.241004 0)
(0.315617 -0.255944 0)
(0.347112 -0.258672 0)
(0.380625 -0.248416 0)
(0.414514 -0.225609 0)
(0.448985 -0.190966 0)
(0.481487 -0.147451 0)
(0.513937 -0.096422 0)
(0.543609 -0.0442345 0)
(0.571862 0.00996744 0)
(0.602876 0.0559682 0)
(0.620829 0.0967178 0)
(0.664876 0.134675 0)
(0.999688 -0.00590434 0)
(0.997678 -0.0182089 0)
(0.991842 -0.0312822 0)
(0.985644 -0.0465429 0)
(0.972162 -0.0636575 0)
(0.962718 -0.08631 0)
(0.935734 -0.111123 0)
(0.928841 -0.15085 0)
(0.86955 -0.18635 0)
(0.892375 -0.27405 0)
(0.725207 -0.303545 0)
(0.911593 -0.593145 0)
(0.333439 -0.395413 0)
(0.237529 -0.239203 0)
(0.1182 -0.179364 0)
(0.0551223 -0.136118 0)
(0.0294957 -0.0948013 0)
(0.0176306 -0.0626639 0)
(0.0113183 -0.0384369 0)
(0.00504549 -0.0179692 0)
(0.010184 -0.0558563 0)
(0.0195851 -0.0714143 0)
(0.0339019 -0.071665 0)
(0.0406898 -0.0697254 0)
(0.0464912 -0.065899 0)
(0.0512931 -0.0609785 0)
(0.0551887 -0.0548465 0)
(0.0582779 -0.0469526 0)
(0.0605775 -0.0367337 0)
(0.062155 -0.0239011 0)
(0.062955 -0.00846813 0)
(0.0629957 0.0100533 0)
(0.0621313 0.0309256 0)
(0.0601231 0.0534432 0)
(0.0568651 0.0765858 0)
(0.0522334 0.0990031 0)
(0.0463381 0.119108 0)
(0.039259 0.135255 0)
(0.0314295 0.14579 0)
(0.0233893 0.149246 0)
(0.015474 0.144497 0)
(0.00843612 0.130843 0)
(0.0025701 0.1082 0)
(-0.00188527 0.0770214 0)
(-0.00436781 0.0383699 0)
(-0.00467142 -0.00613249 0)
(-0.00235843 -0.0546221 0)
(0.00324637 -0.10473 0)
(0.0125442 -0.153735 0)
(0.0256108 -0.198763 0)
(0.0423554 -0.236996 0)
(0.0624738 -0.265886 0)
(0.0855396 -0.283313 0)
(0.110967 -0.287758 0)
(0.138076 -0.278429 0)
(0.165837 -0.255652 0)
(0.193945 -0.220468 0)
(0.220705 -0.175708 0)
(0.247727 -0.123913 0)
(0.27225 -0.0705072 0)
(0.297459 -0.0165838 0)
(0.324383 0.0287752 0)
(0.341851 0.0718845 0)
(0.390329 0.106797 0)
(0.999691 -0.00453515 0)
(0.996883 -0.0139498 0)
(0.989922 -0.0240922 0)
(0.981107 -0.0357625 0)
(0.965208 -0.0493986 0)
(0.949593 -0.0665172 0)
(0.919109 -0.0875557 0)
(0.896935 -0.115922 0)
(0.836464 -0.151252 0)
(0.815416 -0.203633 0)
(0.673253 -0.259508 0)
(0.734922 -0.387107 0)
(0.312222 -0.268206 0)
(0.300571 -0.254992 0)
(0.208221 -0.23139 0)
(0.12935 -0.180779 0)
(0.0788437 -0.124675 0)
(0.0471777 -0.0786859 0)
(0.0295231 -0.0454079 0)
(0.014539 -0.0194164 0)
(0.0231969 -0.0515117 0)
(-0.000569032 -0.0665266 0)
(-0.00216233 -0.066428 0)
(-0.0120471 -0.0645468 0)
(-0.0194712 -0.0614853 0)
(-0.0269225 -0.0573309 0)
(-0.0343236 -0.0516574 0)
(-0.0416549 -0.0439299 0)
(-0.0489523 -0.0336716 0)
(-0.0561839 -0.0205865 0)
(-0.0632058 -0.00463406 0)
(-0.0702769 0.0141825 0)
(-0.0775729 0.0353915 0)
(-0.0848174 0.0582993 0)
(-0.0919889 0.0818379 0)
(-0.0990866 0.104609 0)
(-0.106102 0.125008 0)
(-0.113066 0.141321 0)
(-0.120013 0.151871 0)
(-0.12687 0.155181 0)
(-0.133764 0.150198 0)
(-0.14055 0.136166 0)
(-0.146909 0.112728 0)
(-0.152538 0.0804298 0)
(-0.156701 0.0400247 0)
(-0.158985 -0.00687078 0)
(-0.159031 -0.0582783 0)
(-0.156281 -0.111568 0)
(-0.150496 -0.163825 0)
(-0.141688 -0.211964 0)
(-0.130047 -0.253006 0)
(-0.115864 -0.284268 0)
(-0.099536 -0.303546 0)
(-0.0815593 -0.309194 0)
(-0.0625249 -0.300354 0)
(-0.0430566 -0.277261 0)
(-0.0238475 -0.241283 0)
(-0.00553912 -0.195269 0)
(0.0126773 -0.142794 0)
(0.0296753 -0.0890045 0)
(0.0493581 -0.0370096 0)
(0.0699048 0.00847083 0)
(0.0894789 0.0502849 0)
(0.143459 0.0743747 0)
(0.999658 -0.00287964 0)
(0.996371 -0.00889216 0)
(0.988364 -0.0153272 0)
(0.978018 -0.0228543 0)
(0.959531 -0.0314499 0)
(0.940865 -0.0427316 0)
(0.904792 -0.0556927 0)
(0.877552 -0.0750941 0)
(0.805232 -0.095134 0)
(0.77923 -0.132188 0)
(0.615861 -0.155019 0)
(0.684681 -0.241134 0)
(0.291382 -0.145524 0)
(0.300591 -0.113715 0)
(0.216141 -0.0980217 0)
(0.140586 -0.0796448 0)
(0.0903429 -0.0590318 0)
(0.0571244 -0.0401547 0)
(0.0384895 -0.0246506 0)
(0.0205765 -0.0111613 0)
(0.0351936 -0.0382252 0)
(-0.00259192 -0.0508053 0)
(-0.0140809 -0.0524253 0)
(-0.0348252 -0.0511518 0)
(-0.0518144 -0.0487812 0)
(-0.0677324 -0.0452496 0)
(-0.0826727 -0.0400894 0)
(-0.0967325 -0.0327847 0)
(-0.109996 -0.0229029 0)
(-0.122561 -0.0102029 0)
(-0.134438 0.00548901 0)
(-0.145727 0.023759 0)
(-0.156544 0.0444775 0)
(-0.16677 0.0669128 0)
(-0.176377 0.0899964 0)
(-0.185379 0.112368 0)
(-0.193872 0.132457 0)
(-0.20199 0.148573 0)
(-0.209892 0.159064 0)
(-0.217641 0.162417 0)
(-0.2254 0.157381 0)
(-0.233127 0.143068 0)
(-0.240407 0.11911 0)
(-0.246837 0.0857785 0)
(-0.251827 0.0438367 0)
(-0.255168 -0.0051759 0)
(-0.256712 -0.0590613 0)
(-0.255984 -0.115037 0)
(-0.252895 -0.169958 0)
(-0.247575 -0.22056 0)
(-0.240328 -0.263741 0)
(-0.231538 -0.296737 0)
(-0.221624 -0.317255 0)
(-0.210987 -0.323552 0)
(-0.200072 -0.314676 0)
(-0.189433 -0.290864 0)
(-0.179598 -0.253844 0)
(-0.170666 -0.206728 0)
(-0.162029 -0.153996 0)
(-0.152326 -0.101066 0)
(-0.138314 -0.0526666 0)
(-0.119698 -0.0134417 0)
(-0.0929499 0.0157009 0)
(-0.0428318 0.0295921 0)
(0.999649 -0.00106097 0)
(0.996077 -0.00326218 0)
(0.987574 -0.00563957 0)
(0.976286 -0.00834654 0)
(0.956653 -0.0115152 0)
(0.935901 -0.0154362 0)
(0.897777 -0.0202575 0)
(0.866302 -0.0266713 0)
(0.791315 -0.0343292 0)
(0.757794 -0.0456558 0)
(0.59441 -0.0549942 0)
(0.653206 -0.0805347 0)
(0.274353 -0.0467015 0)
(0.294062 -0.0427522 0)
(0.219777 -0.0416663 0)
(0.149488 -0.035042 0)
(0.09963 -0.0260158 0)
(0.064771 -0.0178284 0)
(0.0447676 -0.0115045 0)
(0.0245766 -0.00660788 0)
(0.0427887 -0.0231347 0)
(-0.00242457 -0.0286917 0)
(-0.0189937 -0.0299845 0)
(-0.0452392 -0.0300893 0)
(-0.0670327 -0.0292929 0)
(-0.0870528 -0.0272062 0)
(-0.105482 -0.0233103 0)
(-0.122497 -0.017114 0)
(-0.138264 -0.00823098 0)
(-0.15283 0.0035506 0)
(-0.166387 0.0183438 0)
(-0.17909 0.0358758 0)
(-0.190883 0.0558279 0)
(-0.201781 0.0774908 0)
(-0.21181 0.0998336 0)
(-0.221028 0.12154 0)
(-0.229554 0.141078 0)
(-0.237524 0.156793 0)
(-0.245115 0.16703 0)
(-0.252442 0.170211 0)
(-0.259566 0.164984 0)
(-0.26643 0.150404 0)
(-0.272785 0.125971 0)
(-0.278323 0.0917109 0)
(-0.282691 0.0483871 0)
(-0.28578 -0.00245594 0)
(-0.287461 -0.0583459 0)
(-0.287514 -0.116401 0)
(-0.285953 -0.173287 0)
(-0.283039 -0.225546 0)
(-0.279195 -0.269977 0)
(-0.274901 -0.303782 0)
(-0.270582 -0.324689 0)
(-0.266518 -0.330982 0)
(-0.262883 -0.321636 0)
(-0.259889 -0.296827 0)
(-0.257769 -0.258525 0)
(-0.256367 -0.21072 0)
(-0.254577 -0.159175 0)
(-0.250112 -0.110527 0)
(-0.240152 -0.0703753 0)
(-0.223738 -0.0409591 0)
(-0.200304 -0.0182944 0)
(-0.17348 0.0003382 0)
(0.999649 0.000827882 0)
(0.996074 0.00254305 0)
(0.987565 0.004421 0)
(0.976268 0.00662878 0)
(0.956623 0.00930039 0)
(0.935855 0.0127436 0)
(0.897712 0.0170963 0)
(0.866214 0.0230763 0)
(0.791205 0.0303178 0)
(0.757654 0.0412374 0)
(0.594261 0.0503566 0)
(0.653007 0.0750153 0)
(0.274203 0.0439197 0)
(0.293928 0.0403351 0)
(0.219641 0.0387862 0)
(0.149346 0.0315525 0)
(0.0994733 0.0218648 0)
(0.0645936 0.0129826 0)
(0.0444945 0.00590699 0)
(0.0243719 -0.000704831 0)
(0.0416428 -0.00629592 0)
(-0.00388991 -0.00395035 0)
(-0.0206973 -0.00480866 0)
(-0.0468903 -0.00658424 0)
(-0.0685301 -0.00778412 0)
(-0.0881737 -0.00755428 0)
(-0.106015 -0.00530914 0)
(-0.122259 -0.000570652 0)
(-0.137068 0.00700899 0)
(-0.150568 0.0176394 0)
(-0.162887 0.0312632 0)
(-0.174115 0.0477798 0)
(-0.184266 0.0667475 0)
(-0.193363 0.0874455 0)
(-0.201444 0.108865 0)
(-0.208573 0.129728 0)
(-0.214854 0.148543 0)
(-0.220411 0.163682 0)
(-0.225397 0.173476 0)
(-0.229937 0.176339 0)
(-0.234109 0.170876 0)
(-0.237934 0.156007 0)
(-0.241314 0.131058 0)
(-0.24403 0.0960089 0)
(-0.24581 0.0516391 0)
(-0.246678 -0.000494418 0)
(-0.246622 -0.0578394 0)
(-0.245846 -0.11723 0)
(-0.244513 -0.175188 0)
(-0.243032 -0.228049 0)
(-0.241895 -0.272559 0)
(-0.241562 -0.305963 0)
(-0.242376 -0.326151 0)
(-0.244402 -0.331688 0)
(-0.247369 -0.321674 0)
(-0.250832 -0.296221 0)
(-0.254445 -0.25733 0)
(-0.258089 -0.209612 0)
(-0.261302 -0.159875 0)
(-0.26265 -0.115306 0)
(-0.26048 -0.0804709 0)
(-0.25472 -0.0541942 0)
(-0.247029 -0.029847 0)
(-0.240749 -0.00575389 0)
(0.999657 0.0026493 0)
(0.996362 0.00818177 0)
(0.988338 0.0141238 0)
(0.977963 0.0211576 0)
(0.959442 0.0292634 0)
(0.940724 0.0400712 0)
(0.904606 0.0525753 0)
(0.877281 0.0715368 0)
(0.804925 0.0911916 0)
(0.77878 0.127791 0)
(0.61545 0.150502 0)
(0.684015 0.23558 0)
(0.290888 0.142655 0)
(0.300156 0.111325 0)
(0.215722 0.0952291 0)
(0.140167 0.0762679 0)
(0.0898953 0.0550124 0)
(0.0566363 0.0354859 0)
(0.0377659 0.0193363 0)
(0.0200604 0.00434636 0)
(0.0318291 0.0100587 0)
(-0.00726663 0.0189165 0)
(-0.019581 0.0179663 0)
(-0.040319 0.0144801 0)
(-0.0569607 0.0112656 0)
(-0.0718507 0.00959371 0)
(-0.0851159 0.0101317 0)
(-0.0969265 0.0133575 0)
(-0.107428 0.019576 0)
(-0.116728 0.0289416 0)
(-0.124893 0.0414207 0)
(-0.131958 0.0568163 0)
(-0.137919 0.0746754 0)
(-0.142772 0.0942786 0)
(-0.14653 0.11464 0)
(-0.149222 0.13452 0)
(-0.15094 0.152471 0)
(-0.151754 0.166889 0)
(-0.151774 0.176079 0)
(-0.151119 0.178424 0)
(-0.149889 0.172503 0)
(-0.148146 0.157244 0)
(-0.145856 0.131785 0)
(-0.142834 0.0962236 0)
(-0.139167 0.0512714 0)
(-0.135145 -0.00172357 0)
(-0.130743 -0.0596438 0)
(-0.126836 -0.11915 0)
(-0.124054 -0.176775 0)
(-0.123075 -0.228787 0)
(-0.12445 -0.271979 0)
(-0.128392 -0.30372 0)
(-0.13488 -0.322118 0)
(-0.143516 -0.32616 0)
(-0.153529 -0.315398 0)
(-0.163865 -0.290079 0)
(-0.173418 -0.251762 0)
(-0.181728 -0.204463 0)
(-0.189358 -0.154948 0)
(-0.196975 -0.11091 0)
(-0.204509 -0.0772164 0)
(-0.211756 -0.0526916 0)
(-0.21806 -0.0303359 0)
(-0.221556 -0.00695375 0)
(0.99969 0.00431004 0)
(0.996868 0.013256 0)
(0.989879 0.0229175 0)
(0.981019 0.0341065 0)
(0.965062 0.0472652 0)
(0.949369 0.0639215 0)
(0.918796 0.0845139 0)
(0.896514 0.112455 0)
(0.835922 0.147399 0)
(0.814757 0.199368 0)
(0.672431 0.255038 0)
(0.734022 0.381793 0)
(0.311432 0.265161 0)
(0.299817 0.252302 0)
(0.207463 0.228347 0)
(0.128619 0.177176 0)
(0.0781165 0.120388 0)
(0.0464467 0.0737576 0)
(0.0285134 0.0400299 0)
(0.0138505 0.0133651 0)
(0.0175896 0.025978 0)
(-0.00922863 0.0364991 0)
(-0.0127131 0.0332323 0)
(-0.0231853 0.0282395 0)
(-0.0306633 0.0234834 0)
(-0.0370228 0.020332 0)
(-0.042296 0.0195341 0)
(-0.0465671 0.0215659 0)
(-0.0499075 0.0266741 0)
(-0.05234 0.0349612 0)
(-0.0538488 0.046374 0)
(-0.0543911 0.06068 0)
(-0.0539046 0.0774187 0)
(-0.0523293 0.0958771 0)
(-0.0496212 0.115092 0)
(-0.0457318 0.133859 0)
(-0.0406765 0.150759 0)
(-0.0344858 0.164236 0)
(-0.0271598 0.172629 0)
(-0.0187629 0.174254 0)
(-0.00929808 0.167655 0)
(0.00116746 0.151701 0)
(0.0125655 0.125689 0)
(0.0247997 0.0895629 0)
(0.0371447 0.0442329 0)
(0.0495201 -0.00838858 0)
(0.0618358 -0.0652069 0)
(0.0720599 -0.12293 0)
(0.0787052 -0.177933 0)
(0.080723 -0.226822 0)
(0.0772149 -0.26668 0)
(0.068097 -0.2953 0)
(0.0539637 -0.311182 0)
(0.0361602 -0.313414 0)
(0.0165409 -0.301785 0)
(-0.0030602 -0.27693 0)
(-0.0210626 -0.240317 0)
(-0.0362502 -0.194873 0)
(-0.0490122 -0.145644 0)
(-0.0609146 -0.0997836 0)
(-0.0745809 -0.0634792 0)
(-0.0910936 -0.0387058 0)
(-0.109867 -0.0207919 0)
(-0.125527 -0.00395335 0)
(0.999688 0.00568683 0)
(0.997657 0.0175398 0)
(0.991783 0.0301491 0)
(0.985525 0.0449482 0)
(0.971961 0.0616004 0)
(0.962416 0.0838138 0)
(0.935303 0.108188 0)
(0.928278 0.147518 0)
(0.868815 0.182633 0)
(0.891459 0.269916 0)
(0.724196 0.29934 0)
(0.910055 0.587714 0)
(0.332625 0.392672 0)
(0.237162 0.237091 0)
(0.117966 0.176864 0)
(0.0548384 0.133076 0)
(0.0291381 0.0912575 0)
(0.0172848 0.058794 0)
(0.0109747 0.0345394 0)
(0.00514021 0.0142425 0)
(0.00694789 0.0353915 0)
(0.00855603 0.0448071 0)
(0.0177136 0.0404727 0)
(0.0212606 0.0341649 0)
(0.0247882 0.027664 0)
(0.0283916 0.0229863 0)
(0.0322111 0.0209988 0)
(0.0363522 0.0220127 0)
(0.0409525 0.0261865 0)
(0.0461881 0.033543 0)
(0.0522313 0.0439736 0)
(0.0592349 0.0572172 0)
(0.0673367 0.0728134 0)
(0.076669 0.0900617 0)
(0.087331 0.108013 0)
(0.0994417 0.125478 0)
(0.113072 0.14108 0)
(0.128304 0.153275 0)
(0.14517 0.160453 0)
(0.163762 0.160995 0)
(0.183901 0.153403 0)
(0.20576 0.136421 0)
(0.228982 0.109627 0)
(0.253018 0.0731303 0)
(0.277347 0.0280383 0)
(0.301251 -0.0229687 0)
(0.323455 -0.0770588 0)
(0.341979 -0.130898 0)
(0.354816 -0.180667 0)
(0.360302 -0.223142 0)
(0.35709 -0.256026 0)
(0.344503 -0.278092 0)
(0.32289 -0.289025 0)