/*--------------------------------*- C++ -*----------------------------------*\
  =========                 |
  \\      /  F ield         | OpenFOAM: The Open Source CFD Toolbox
   \\    /   O peration     | Website:  https://openfoam.org
    \\  /    A nd           | Version:  10
     \\/     M anipulation  |
\*---------------------------------------------------------------------------*/
FoamFile
{
    format      ascii;
    class       surfaceScalarField;
    location    "0.68";
    object      phi;
}
// * * * * * * * * * * * * * * * * * * * * * * * * * * * * * * * * * * * * * //

dimensions      [0 3 -1 0 0 0 0];

internalField   nonuniform List<scalar> 
24170
(
1.36208e-09
-1.36208e-09
2.52719e-09
-1.16511e-09
3.4486e-09
-9.21413e-10
4.14356e-09
-6.94959e-10
4.65695e-09
-5.13391e-10
5.03727e-09
-3.80324e-10
5.32629e-09
-2.89018e-10
5.55679e-09
-2.30497e-10
5.75385e-09
-1.97061e-10
5.93725e-09
-1.83399e-10
6.12408e-09
-1.86835e-10
6.33168e-09
-2.07596e-10
6.58156e-09
-2.49877e-10
6.90662e-09
-3.25063e-10
7.36823e-09
-4.61613e-10
8.10873e-09
-7.40496e-10
9.57125e-09
-1.46252e-09
-4.25518e-09
1.38264e-08
1.56746e-09
-2.92954e-09
2.90216e-09
-2.4998e-09
3.95124e-09
-1.97049e-09
4.73725e-09
-1.48097e-09
5.31412e-09
-1.09026e-09
5.73889e-09
-8.05099e-10
6.06003e-09
-6.10159e-10
6.31517e-09
-4.85629e-10
6.53279e-09
-4.14684e-10
6.73513e-09
-3.85743e-10
6.94117e-09
-3.92871e-10
7.16981e-09
-4.36238e-10
7.44401e-09
-5.24079e-10
7.79768e-09
-6.78725e-10
8.29012e-09
-9.54054e-10
9.04025e-09
-1.49063e-09
1.02904e-08
-2.71271e-09
-6.05147e-09
1.20867e-08
1.76315e-09
-4.69269e-09
3.25456e-09
-3.99121e-09
4.41613e-09
-3.13206e-09
5.27775e-09
-2.3426e-09
5.90378e-09
-1.71629e-09
6.36032e-09
-1.26164e-09
6.70244e-09
-9.52274e-10
6.97223e-09
-7.5542e-10
7.20113e-09
-6.43585e-10
7.41326e-09
-5.97881e-10
7.6288e-09
-6.08405e-10
7.86718e-09
-6.74622e-10
8.1509e-09
-8.078e-10
8.51067e-09
-1.03849e-09
8.99308e-09
-1.43646e-09
9.66596e-09
-2.16351e-09
1.05603e-08
-3.607e-09
-6.59961e-09
1.11084e-08
1.98047e-09
-6.67316e-09
3.64068e-09
-5.65142e-09
4.91784e-09
-4.40922e-09
5.8528e-09
-3.27755e-09
6.52344e-09
-2.38693e-09
7.00668e-09
-1.74488e-09
7.36493e-09
-1.31053e-09
7.64492e-09
-1.03541e-09
7.88087e-09
-8.79535e-10
8.09848e-09
-8.15483e-10
8.31853e-09
-8.28458e-10
8.56011e-09
-9.16207e-10
8.84352e-09
-1.0912e-09
9.19278e-09
-1.38775e-09
9.63536e-09
-1.87904e-09
1.01843e-08
-2.71248e-09
1.07383e-08
-4.16101e-09
-6.56409e-09
1.07028e-08
2.23356e-09
-8.90672e-09
4.08329e-09
-7.50114e-09
5.4828e-09
-5.80873e-09
6.48963e-09
-4.28439e-09
7.19994e-09
-3.09724e-09
7.70406e-09
-2.249e-09
8.07286e-09
-1.67932e-09
8.35794e-09
-1.32049e-09
8.59615e-09
-1.11775e-09
8.81437e-09
-1.0337e-09
9.0334e-09
-1.04749e-09
9.27098e-09
-1.15379e-09
9.54363e-09
-1.36385e-09
9.86636e-09
-1.71048e-09
1.02459e-08
-2.25856e-09
1.06524e-08
-3.11897e-09
1.09325e-08
-4.4411e-09
-6.27308e-09
1.06415e-08
2.53769e-09
-1.14444e-08
4.60511e-09
-9.56856e-09
6.13498e-09
-7.3386e-09
7.21051e-09
-5.35992e-09
7.95297e-09
-3.83969e-09
8.46969e-09
-2.76572e-09
8.84134e-09
-2.05098e-09
9.12469e-09
-1.60384e-09
9.35894e-09
-1.352e-09
9.57162e-09
-1.24638e-09
9.78289e-09
-1.25876e-09
1.00082e-08
-1.37909e-09
1.02591e-08
-1.61474e-09
1.05407e-08
-1.99213e-09
1.08419e-08
-2.55968e-09
1.11076e-08
-3.3847e-09
1.1186e-08
-4.51949e-09
-5.88037e-09
1.07933e-08
2.91333e-09
-1.43577e-08
5.235e-09
-1.18902e-08
6.90282e-09
-9.00642e-09
8.03993e-09
-6.49704e-09
8.80258e-09
-4.60234e-09
9.31976e-09
-3.2829e-09
9.68355e-09
-2.41476e-09
9.95594e-09
-1.87623e-09
1.01781e-08
-1.57414e-09
1.03775e-08
-1.44581e-09
1.05729e-08
-1.45417e-09
1.07767e-08
-1.58286e-09
1.09949e-08
-1.83291e-09
1.12235e-08
-2.22079e-09
1.14388e-08
-2.77492e-09
1.15773e-08
-3.52329e-09
1.15147e-08
-4.45681e-09
-5.45446e-09
1.10887e-08
3.39032e-09
-1.77481e-08
6.01271e-09
-1.45126e-08
7.82315e-09
-1.08169e-08
9.00773e-09
-7.68162e-09
9.77175e-09
-5.36636e-09
1.02718e-08
-3.78293e-09
1.06128e-08
-2.75581e-09
1.0862e-08
-2.12539e-09
1.10616e-08
-1.7737e-09
1.12382e-08
-1.62244e-09
1.14083e-08
-1.62432e-09
1.15807e-08
-1.75524e-09
1.17559e-08
-2.00814e-09
1.1923e-08
-2.3878e-09
1.20514e-08
-2.90333e-09
1.20814e-08
-3.55335e-09
1.19227e-08
-4.29806e-09
-5.02386e-09
1.14921e-08
4.01444e-09
-2.17625e-08
6.99546e-09
-1.74936e-08
8.94563e-09
-1.2767e-08
1.01516e-08
-8.88761e-09
1.08878e-08
-6.10257e-09
1.13454e-08
-4.24054e-09
1.16435e-08
-3.0539e-09
1.18534e-08
-2.33524e-09
1.20172e-08
-1.93751e-09
1.21596e-08
-1.76482e-09
1.22939e-08
-1.75864e-09
1.24248e-08
-1.88616e-09
1.25481e-08
-2.13147e-09
1.26482e-08
-2.48782e-09
1.26934e-08
-2.94852e-09
1.26339e-08
-3.49386e-09
1.24101e-08
-4.07426e-09
-4.59903e-09
1.19853e-08
4.85909e-09
-2.66216e-08
8.26819e-09
-2.09027e-08
1.03384e-08
-1.48372e-08
1.15197e-08
-1.0069e-08
1.21835e-08
-6.76639e-09
1.2563e-08
-4.61995e-09
1.27909e-08
-3.28189e-09
1.29409e-08
-2.4852e-09
1.30528e-08
-2.04938e-09
1.31476e-08
-1.85961e-09
1.32345e-08
-1.84561e-09
1.33141e-08
-1.96574e-09
1.33782e-08
-2.19555e-09
1.34088e-08
-2.51843e-09
1.33769e-08
-2.91665e-09
1.32447e-08
-3.36162e-09
1.29762e-08
-3.80575e-09
-4.18257e-09
1.25597e-08
6.04766e-09
-3.26693e-08
9.96027e-09
-2.48153e-08
1.20957e-08
-1.69726e-08
1.3173e-08
-1.11463e-08
1.36971e-08
-7.2905e-09
1.39486e-08
-4.87143e-09
1.4071e-08
-3.40423e-09
1.41353e-08
-2.54951e-09
1.41759e-08
-2.09002e-09
1.4208e-08
-1.89169e-09
1.42355e-08
-1.8731e-09
1.42544e-08
-1.98465e-09
1.42535e-08
-2.19469e-09
1.42145e-08
-2.47944e-09
1.41127e-08
-2.81486e-09
1.39214e-08
-3.17026e-09
1.36209e-08
-3.50528e-09
-3.77373e-09
1.32121e-08
6.47253e-09
-3.91418e-08
1.02176e-08
-2.85604e-08
1.19761e-08
-1.87312e-08
1.27018e-08
-1.1872e-08
1.29584e-08
-7.54709e-09
1.30184e-08
-4.93144e-09
1.30038e-08
-3.38964e-09
1.29668e-08
-2.51246e-09
1.29279e-08
-2.05107e-09
1.28928e-08
-1.85668e-09
1.28598e-08
-1.84005e-09
1.28216e-08
-1.94644e-09
1.27668e-08
-2.13991e-09
1.26804e-08
-2.39298e-09
1.2545e-08
-2.67947e-09
1.23448e-08
-2.97012e-09
1.20714e-08
-3.23182e-09
-3.43166e-09
1.17293e-08
9.64019e-09
-4.8782e-08
1.43999e-08
-3.33201e-08
1.61651e-08
-2.04964e-08
1.66249e-08
-1.23318e-08
1.6603e-08
-7.52516e-09
1.64351e-08
-4.76358e-09
1.62456e-08
-3.20012e-09
1.60747e-08
-2.3416e-09
1.59306e-08
-1.90696e-09
1.58089e-08
-1.73493e-09
1.56997e-08
-1.73088e-09
1.55902e-08
-1.83698e-09
1.54653e-08
-2.01503e-09
1.53084e-08
-2.23609e-09
1.51034e-08
-2.47446e-09
1.4838e-08
-2.7047e-09
1.4508e-08
-2.90177e-09
-3.04405e-09
1.41203e-08
1.55952e-08
-6.43772e-08
2.13082e-08
-3.90331e-08
2.24478e-08
-2.16361e-08
2.21249e-08
-1.20089e-08
2.14842e-08
-6.88439e-09
2.08716e-08
-4.15102e-09
2.03659e-08
-2.69437e-09
1.99649e-08
-1.94066e-09
1.96465e-08
-1.58851e-09
1.93855e-08
-1.47399e-09
1.91586e-08
-1.50391e-09
1.89437e-08
-1.62218e-09
1.87208e-08
-1.79209e-09
1.84714e-08
-1.98668e-09
1.81806e-08
-2.18364e-09
1.78391e-08
-2.36325e-09
1.74459e-08
-2.50851e-09
-2.60669e-09
1.70085e-08
2.85775e-08
-9.29547e-08
3.35818e-08
-4.40374e-08
3.21727e-08
-2.02269e-08
2.99175e-08
-9.75365e-09
2.80271e-08
-4.99403e-09
2.66141e-08
-2.73804e-09
2.55789e-08
-1.65911e-09
2.48111e-08
-1.1729e-09
2.42249e-08
-1.00228e-09
2.37571e-08
-1.00616e-09
2.33607e-08
-1.10752e-09
2.3e-08
-1.2615e-09
2.26473e-08
-1.43943e-09
2.22817e-08
-1.62101e-09
2.18885e-08
-1.79043e-09
2.14602e-08
-1.935e-09
2.09968e-08
-2.04513e-09
-2.11486e-09
2.0505e-08
6.3174e-08
-1.56129e-07
5.67158e-08
-3.75792e-08
4.71818e-08
-1.0693e-08
4.06875e-08
-3.25929e-09
3.65533e-08
-8.59892e-10
3.38696e-08
-5.43319e-11
3.20572e-08
1.53274e-10
3.07726e-08
1.11716e-10
2.9815e-08
-4.4686e-11
2.9063e-08
-2.54103e-10
2.84375e-08
-4.82031e-10
2.78853e-08
-7.09302e-10
2.73693e-08
-9.23452e-10
2.68642e-08
-1.11586e-09
2.63537e-08
-1.27997e-09
2.58297e-08
-1.41103e-09
2.52909e-08
-1.50629e-09
-1.56508e-09
2.47411e-08
1.83722e-07
1.60014e-07
9.77149e-08
4.84276e-08
6.74168e-08
1.96051e-08
5.39473e-08
1.02102e-08
4.68123e-08
6.27507e-09
4.25453e-08
4.2127e-09
3.97671e-08
2.93146e-09
3.78403e-08
2.03858e-09
3.64277e-08
1.3679e-09
3.53342e-08
8.39401e-10
3.44411e-08
4.11033e-10
3.36728e-08
5.90313e-11
3.29783e-08
-2.28967e-10
3.23256e-08
-4.63144e-10
3.16949e-08
-6.49317e-10
3.10754e-08
-7.915e-10
3.04627e-08
-8.93592e-10
-9.59483e-10
2.98571e-08
7.7272e-08
8.27417e-08
7.5628e-08
5.00716e-08
6.57412e-08
2.94919e-08
5.78304e-08
1.81209e-08
5.2371e-08
1.17345e-08
4.86394e-08
7.94435e-09
4.60216e-08
5.54923e-09
4.41155e-08
3.94468e-09
4.2668e-08
2.81537e-09
4.15186e-08
1.98886e-09
4.05633e-08
1.36631e-09
3.97339e-08
8.88451e-10
3.89866e-08
5.18254e-10
3.82922e-08
2.31335e-10
3.76318e-08
1.10127e-11
3.69931e-08
-1.52722e-10
3.63711e-08
-2.71626e-10
-3.53039e-10
3.57646e-08
3.60945e-08
4.66472e-08
5.03485e-08
3.58177e-08
5.41362e-08
2.57043e-08
5.40744e-08
1.81827e-08
5.28632e-08
1.29456e-08
5.14682e-08
9.33936e-09
5.01882e-08
6.82931e-09
4.90839e-08
5.04891e-09
4.81397e-08
3.75965e-09
4.73206e-08
2.80794e-09
4.65928e-08
2.09411e-09
4.59288e-08
1.55243e-09
4.53084e-08
1.13865e-09
4.47175e-08
8.22198e-10
4.41471e-08
5.81433e-10
4.35938e-08
4.00563e-10
4.30547e-08
2.6748e-10
1.72833e-10
4.25289e-08
1.44635e-08
3.21837e-08
2.35333e-08
2.67478e-08
2.84181e-08
2.08194e-08
3.08507e-08
1.57502e-08
3.19855e-08
1.18108e-08
3.24609e-08
8.86399e-09
3.26048e-08
6.68537e-09
3.25809e-08
5.07288e-09
3.24694e-08
3.87115e-09
3.23097e-08
2.96758e-09
3.21214e-08
2.28245e-09
3.19143e-08
1.75951e-09
3.1694e-08
1.35892e-09
3.14642e-08
1.05206e-09
3.12275e-08
8.18096e-10
3.09866e-08
6.41516e-10
3.07435e-08
5.1054e-10
4.16056e-10
3.05003e-08
8.7027e-09
2.3481e-08
1.51854e-08
2.02651e-08
1.95084e-08
1.64964e-08
2.22536e-08
1.3005e-08
2.39678e-08
1.00966e-08
2.50362e-08
7.79558e-09
2.57029e-08
6.01866e-09
2.61162e-08
4.65955e-09
2.63655e-08
3.62186e-09
2.65051e-08
2.82803e-09
2.65687e-08
2.21878e-09
2.65783e-08
1.7499e-09
2.65486e-08
1.38866e-09
2.64899e-08
1.11077e-09
2.64099e-08
8.981e-10
2.63145e-08
7.36931e-10
2.62083e-08
6.16745e-10
5.29349e-10
2.6095e-08
5.89338e-09
1.75876e-08
1.06648e-08
1.54937e-08
1.42086e-08
1.29526e-08
1.67299e-08
1.04837e-08
1.84936e-08
8.33284e-09
1.97241e-08
6.56511e-09
2.05855e-08
5.15719e-09
2.11913e-08
4.0538e-09
2.16177e-08
3.19548e-09
2.19162e-08
2.52954e-09
2.21219e-08
2.01307e-09
2.22592e-08
1.61254e-09
2.23457e-08
1.30218e-09
2.23941e-08
1.06241e-09
2.24139e-08
8.78271e-10
2.24125e-08
7.38313e-10
2.23956e-08
6.33669e-10
5.57406e-10
2.23675e-08
4.29929e-09
1.32884e-08
7.94202e-09
1.18509e-08
1.08198e-08
1.00749e-08
1.30058e-08
8.29771e-09
1.46354e-08
6.70325e-09
1.58423e-08
5.35825e-09
1.67361e-08
4.26339e-09
1.73998e-08
3.39007e-09
1.78941e-08
2.70116e-09
1.82628e-08
2.16082e-09
1.85376e-08
1.73827e-09
1.87417e-08
1.40849e-09
1.88921e-08
1.15174e-09
1.90019e-08
9.52656e-10
1.90808e-08
7.99357e-10
1.91365e-08
6.82625e-10
1.91749e-08
5.95282e-10
5.31704e-10
1.92006e-08
3.2928e-09
9.99555e-09
6.15912e-09
8.98463e-09
8.51118e-09
7.7228e-09
1.03726e-08
6.4363e-09
1.18167e-08
5.25913e-09
1.29268e-08
4.24817e-09
1.37777e-08
3.4125e-09
1.44304e-08
2.7374e-09
1.49321e-08
2.19938e-09
1.5319e-08
1.77395e-09
1.56181e-08
1.43916e-09
1.585e-08
1.17659e-09
1.60304e-08
9.71409e-10
1.61711e-08
8.11887e-10
1.62817e-08
6.88827e-10
1.63692e-08
5.95042e-10
1.64396e-08
5.24907e-10
4.74009e-10
1.64973e-08
2.60564e-09
7.38992e-09
4.9127e-09
6.67757e-09
6.85267e-09
5.78283e-09
8.42969e-09
4.85927e-09
9.68592e-09
4.0029e-09
1.06758e-08
3.25828e-09
1.14522e-08
2.6361e-09
1.20607e-08
2.12891e-09
1.25384e-08
1.72171e-09
1.29145e-08
1.39782e-09
1.32119e-08
1.14175e-09
1.34483e-08
9.40212e-10
1.36374e-08
7.82317e-10
1.37899e-08
6.59344e-10
1.39143e-08
5.64396e-10
1.40173e-08
4.92046e-10
1.41042e-08
4.38031e-10
3.99001e-10
1.41792e-08
2.10774e-09
5.28218e-09
3.99489e-09
4.79042e-09
5.60764e-09
4.17008e-09
6.9425e-09
3.52442e-09
8.02512e-09
2.92027e-09
8.89292e-09
2.39048e-09
9.58457e-09
1.94446e-09
1.01349e-08
1.57855e-09
1.05734e-08
1.28325e-09
1.09238e-08
1.04739e-09
1.12053e-08
8.60314e-10
1.14327e-08
7.12739e-10
1.16181e-08
5.96947e-10
1.17707e-08
5.06703e-10
1.18981e-08
4.37041e-10
1.20061e-08
3.84034e-10
1.20996e-08
3.44585e-10
3.16253e-10
1.21823e-08
1.72957e-09
3.55261e-09
3.2898e-09
3.23019e-09
4.63778e-09
2.8221e-09
5.7673e-09
2.3949e-09
6.69487e-09
1.9927e-09
7.44741e-09
1.63794e-09
8.05415e-09
1.33772e-09
8.54234e-09
1.09036e-09
8.93558e-09
8.90009e-10
9.25342e-09
7.29553e-10
9.51169e-09
6.02038e-10
9.7231e-09
5.01328e-10
9.89777e-09
4.22281e-10
1.00438e-08
3.6071e-10
1.01675e-08
3.13265e-10
1.02743e-08
2.77284e-10
1.03682e-08
2.50661e-10
2.31724e-10
1.04527e-08
1.43037e-09
2.12224e-09
2.72738e-09
1.93319e-09
3.8563e-09
1.69317e-09
4.8103e-09
1.4409e-09
5.60062e-09
1.20239e-09
6.24738e-09
9.91176e-10
6.77327e-09
8.11825e-10
7.20001e-09
6.63624e-10
7.54669e-09
5.43326e-10
7.82941e-09
4.46835e-10
8.06135e-09
3.70095e-10
8.25319e-09
3.09492e-10
8.41349e-09
2.61977e-10
8.54914e-09
2.25058e-10
8.66568e-09
1.9673e-10
8.76757e-09
1.75394e-10
8.85845e-09
1.59782e-10
1.48877e-10
8.94129e-09
1.18222e-09
9.40017e-10
2.25809e-09
8.57314e-10
3.1993e-09
7.51965e-10
3.99931e-09
6.40891e-10
4.66612e-09
5.35572e-10
5.21523e-09
4.42069e-10
5.66455e-09
3.62502e-10
6.03153e-09
2.96648e-10
6.33172e-09
2.43137e-10
6.57835e-09
2.00201e-10
6.78238e-09
1.66072e-10
6.9527e-09
1.39166e-10
7.09654e-09
1.1814e-10
7.2197e-09
1.01894e-10
7.32689e-09
8.95427e-11
7.42191e-09
8.03777e-11
7.50785e-09
7.38363e-11
6.94636e-11
7.58726e-09
9.40017e-10
1.79733e-09
2.5493e-09
3.19019e-09
3.72576e-09
4.16783e-09
4.53033e-09
4.82698e-09
5.07012e-09
5.27032e-09
5.43639e-09
5.57555e-09
5.69369e-09
5.79559e-09
5.88513e-09
5.96551e-09
6.03935e-09
6.10881e-09
2.13426e-10
-2.13426e-10
4.28158e-10
-2.14732e-10
6.44028e-10
-2.1587e-10
8.60862e-10
-2.16834e-10
1.07848e-09
-2.17617e-10
1.29669e-09
-2.18211e-10
1.5153e-09
-2.18612e-10
1.73411e-09
-2.18812e-10
1.95292e-09
-2.18807e-10
2.17151e-09
-2.18592e-10
2.38967e-09
-2.18162e-10
2.60719e-09
-2.17515e-10
2.82384e-09
-2.16649e-10
3.0394e-09
-2.15562e-10
3.25366e-09
-2.14255e-10
3.46639e-09
-2.1273e-10
3.67737e-09
-2.10988e-10
3.88641e-09
-2.09034e-10
4.09328e-09
-2.06873e-10
4.29779e-09
-2.04511e-10
4.49975e-09
-2.01956e-10
4.69896e-09
-1.99215e-10
4.89526e-09
-1.96298e-10
5.08848e-09
-1.93215e-10
5.27845e-09
-1.89977e-10
5.46505e-09
-1.86595e-10
5.64813e-09
-1.83081e-10
5.82758e-09
-1.79447e-10
6.00328e-09
-1.75706e-10
6.17515e-09
-1.71869e-10
6.3431e-09
-1.67948e-10
6.50706e-09
-1.63957e-10
6.66696e-09
-1.59907e-10
6.82277e-09
-1.55809e-10
6.97445e-09
-1.51675e-10
7.12196e-09
-1.47516e-10
7.26531e-09
-1.43341e-10
7.40447e-09
-1.39161e-10
7.53945e-09
-1.34985e-10
7.67027e-09
-1.30822e-10
7.79695e-09
-1.26679e-10
7.91952e-09
-1.22564e-10
8.038e-09
-1.18485e-10
8.15245e-09
-1.14447e-10
8.2629e-09
-1.10456e-10
8.36942e-09
-1.06519e-10
8.47206e-09
-1.02638e-10
8.57088e-09
-9.88197e-11
8.66595e-09
-9.50664e-11
8.75733e-09
-9.13822e-11
8.8451e-09
-8.77695e-11
8.92933e-09
-8.42311e-11
9.0101e-09
-8.07689e-11
9.08748e-09
-7.73849e-11
9.16156e-09
-7.40803e-11
9.23242e-09
-7.08561e-11
9.30013e-09
-6.77136e-11
9.36479e-09
-6.46527e-11
9.42646e-09
-6.16742e-11
9.48524e-09
-5.8778e-11
9.5412e-09
-5.59639e-11
9.59443e-09
-5.32317e-11
9.64502e-09
-5.0581e-11
9.69303e-09
-4.80108e-11
9.73855e-09
-4.55207e-11
9.78166e-09
-4.31095e-11
9.82243e-09
-4.07763e-11
9.86095e-09
-3.852e-11
9.89729e-09
-3.63394e-11
9.93153e-09
-3.42329e-11
9.96373e-09
-3.21997e-11
9.99396e-09
-3.02379e-11
1.00223e-08
-2.8346e-11
1.00488e-08
-2.65227e-11
1.00736e-08
-2.47663e-11
1.00967e-08
-2.30754e-11
1.01181e-08
-2.14481e-11
1.0138e-08
-1.98829e-11
1.01564e-08
-1.83781e-11
1.01733e-08
-1.69321e-11
1.01889e-08
-1.55431e-11
1.02031e-08
-1.42095e-11
1.0216e-08
-1.29298e-11
1.02277e-08
-1.17021e-11
1.02382e-08
-1.05249e-11
1.02476e-08
-9.39638e-12
1.02559e-08
-8.31518e-12
1.02632e-08
-7.27944e-12
1.02695e-08
-6.28776e-12
1.02748e-08
-5.33859e-12
1.02793e-08
-4.43022e-12
1.02828e-08
-3.56133e-12
1.02856e-08
-2.73025e-12
1.02875e-08
-1.93583e-12
1.02887e-08
-1.17626e-12
1.02891e-08
-4.50442e-13
1.02889e-08
2.42977e-13
1.0288e-08
9.05611e-13
1.02864e-08
1.53846e-12
1.02843e-08
2.14297e-12
1.02816e-08
2.72018e-12
1.02783e-08
3.27157e-12
1.02745e-08
3.7979e-12
1.02702e-08
4.30079e-12
1.02654e-08
4.78083e-12
1.02602e-08
5.23947e-12
1.02545e-08
5.67753e-12
1.02484e-08
6.0961e-12
1.02419e-08
6.49604e-12
1.0235e-08
6.87836e-12
1.02278e-08
7.24395e-12
1.02202e-08
7.59368e-12
1.02123e-08
7.92826e-12
1.0204e-08
8.24859e-12
1.01955e-08
8.55544e-12
1.01866e-08
8.84963e-12
1.01775e-08
9.13157e-12
1.01681e-08
9.40244e-12
1.01584e-08
9.66229e-12
1.01485e-08
9.91234e-12
1.01384e-08
1.01527e-11
1.0128e-08
1.03843e-11
1.01174e-08
1.06074e-11
1.01065e-08
1.08228e-11
1.00955e-08
1.10309e-11
1.00843e-08
1.12319e-11
1.00729e-08
1.14268e-11
1.00612e-08
1.16155e-11
1.00494e-08
1.17988e-11
1.00375e-08
1.1977e-11
1.00253e-08
1.21503e-11
1.0013e-08
1.23194e-11
1.00005e-08
1.24842e-11
9.98786e-09
1.26454e-11
9.97506e-09
1.28031e-11
9.9621e-09
1.29579e-11
9.94899e-09
1.31096e-11
9.93573e-09
1.32591e-11
9.92233e-09
1.34062e-11
9.90877e-09
1.35512e-11
9.89508e-09
1.36946e-11
9.88124e-09
1.38366e-11
9.86727e-09
1.39775e-11
9.85315e-09
1.41174e-11
9.83889e-09
1.42569e-11
9.8245e-09
1.4396e-11
9.80996e-09
1.45353e-11
9.79529e-09
1.46751e-11
9.78047e-09
1.48161e-11
9.76551e-09
1.49586e-11
9.75041e-09
1.51033e-11
9.73516e-09
1.5251e-11
9.71975e-09
1.54029e-11
9.70419e-09
1.55598e-11
9.68847e-09
1.57236e-11
9.67257e-09
1.58959e-11
9.65649e-09
1.60793e-11
9.64022e-09
1.62768e-11
9.62373e-09
1.64922e-11
9.60699e-09
1.67305e-11
9.59e-09
1.69984e-11
9.57269e-09
1.73039e-11
9.55503e-09
1.76581e-11
9.53696e-09
1.80753e-11
9.51838e-09
1.85744e-11
9.4992e-09
1.91806e-11
9.47928e-09
1.99276e-11
9.45842e-09
2.08615e-11
9.43637e-09
2.20459e-11
9.4128e-09
2.35697e-11
9.38724e-09
2.55612e-11
9.35903e-09
2.82097e-11
9.32722e-09
3.18055e-11
9.29041e-09
3.6815e-11
9.24637e-09
4.40355e-11
9.19142e-09
5.495e-11
9.11876e-09
7.266e-11
9.01389e-09
1.04869e-10
8.83759e-09
1.76306e-10
4.01071e-10
8.43652e-09
2.14186e-10
-4.27613e-10
4.2968e-10
-4.30225e-10
6.46313e-10
-4.32503e-10
8.63909e-10
-4.3443e-10
1.08229e-09
-4.35993e-10
1.30125e-09
-4.37178e-10
1.52061e-09
-4.37973e-10
1.74016e-09
-4.38364e-10
1.9597e-09
-4.38341e-10
2.179e-09
-4.37894e-10
2.39785e-09
-4.37016e-10
2.61604e-09
-4.35699e-10
2.83333e-09
-4.33941e-10
3.04951e-09
-4.31738e-10
3.26434e-09
-4.29091e-10
3.47762e-09
-4.26004e-10
3.68911e-09
-4.22482e-10
3.89861e-09
-4.18532e-10
4.1059e-09
-4.14166e-10
4.31079e-09
-4.09397e-10
4.51307e-09
-4.04238e-10
4.71257e-09
-3.98709e-10
4.90909e-09
-3.92827e-10
5.10249e-09
-3.86613e-10
5.29261e-09
-3.8009e-10
5.47929e-09
-3.7328e-10
5.66242e-09
-3.66207e-10
5.84187e-09
-3.58896e-10
6.01753e-09
-3.51372e-10
6.18932e-09
-3.43659e-10
6.35716e-09
-3.35783e-10
6.52097e-09
-3.27767e-10
6.68069e-09
-3.19635e-10
6.8363e-09
-3.11412e-10
6.98774e-09
-3.03119e-10
7.135e-09
-2.94777e-10
7.27807e-09
-2.86408e-10
7.41694e-09
-2.78031e-10
7.55162e-09
-2.69664e-10
7.68212e-09
-2.61325e-10
7.80847e-09
-2.53029e-10
7.9307e-09
-2.44792e-10
8.04884e-09
-2.36627e-10
8.16294e-09
-2.28548e-10
8.27305e-09
-2.20564e-10
8.37922e-09
-2.12688e-10
8.48151e-09
-2.04928e-10
8.57998e-09
-1.97293e-10
8.6747e-09
-1.89789e-10
8.76575e-09
-1.82425e-10
8.85318e-09
-1.75204e-10
8.93708e-09
-1.68133e-10
9.01753e-09
-1.61215e-10
9.0946e-09
-1.54454e-10
9.16837e-09
-1.47852e-10
9.23893e-09
-1.41412e-10
9.30635e-09
-1.35135e-10
9.37072e-09
-1.29022e-10
9.43211e-09
-1.23073e-10
9.49063e-09
-1.17289e-10
9.54633e-09
-1.1167e-10
9.59931e-09
-1.06214e-10
9.64966e-09
-1.00922e-10
9.69743e-09
-9.57902e-11
9.74273e-09
-9.08185e-11
9.78563e-09
-8.60048e-11
9.8262e-09
-8.13469e-11
9.86452e-09
-7.68428e-11
9.90067e-09
-7.24895e-11
9.93472e-09
-6.82849e-11
9.96675e-09
-6.42259e-11
9.99682e-09
-6.03099e-11
1.0025e-08
-5.65338e-11
1.00514e-08
-5.28943e-11
1.0076e-08
-4.93887e-11
1.00989e-08
-4.60135e-11
1.01203e-08
-4.27655e-11
1.014e-08
-3.96414e-11
1.01583e-08
-3.6638e-11
1.01751e-08
-3.37518e-11
1.01905e-08
-3.09796e-11
1.02046e-08
-2.8318e-11
1.02175e-08
-2.57638e-11
1.02291e-08
-2.33133e-11
1.02395e-08
-2.09637e-11
1.02488e-08
-1.87113e-11
1.02571e-08
-1.65534e-11
1.02643e-08
-1.44861e-11
1.02705e-08
-1.25069e-11
1.02758e-08
-1.06122e-11
1.02801e-08
-8.79928e-12
1.02837e-08
-7.06492e-12
1.02863e-08
-5.4063e-12
1.02882e-08
-3.82045e-12
1.02893e-08
-2.30453e-12
1.02897e-08
-8.55769e-13
1.02895e-08
5.28628e-13
1.02885e-08
1.85101e-12
1.02869e-08
3.11445e-12
1.02848e-08
4.32095e-12
1.0282e-08
5.47336e-12
1.02787e-08
6.57376e-12
1.02749e-08
7.62474e-12
1.02706e-08
8.62846e-12
1.02657e-08
9.58697e-12
1.02605e-08
1.05025e-11
1.02548e-08
1.13771e-11
1.02487e-08
1.22127e-11
1.02422e-08
1.30112e-11
1.02353e-08
1.37746e-11
1.0228e-08
1.45045e-11
1.02204e-08
1.52027e-11
1.02124e-08
1.58708e-11
1.02042e-08
1.65106e-11
1.01956e-08
1.71233e-11
1.01868e-08
1.77107e-11
1.01776e-08
1.8274e-11
1.01682e-08
1.88146e-11
1.01585e-08
1.93339e-11
1.01486e-08
1.98331e-11
1.01384e-08
2.03133e-11
1.01281e-08
2.07758e-11
1.01174e-08
2.12216e-11
1.01066e-08
2.16517e-11
1.00956e-08
2.20673e-11
1.00843e-08
2.24692e-11
1.00729e-08
2.28583e-11
1.00613e-08
2.32355e-11
1.00495e-08
2.36018e-11
1.00375e-08
2.39577e-11
1.00253e-08
2.43041e-11
1.0013e-08
2.46418e-11
1.00005e-08
2.49713e-11
9.98789e-09
2.52934e-11
9.97508e-09
2.56088e-11
9.96212e-09
2.59178e-11
9.94901e-09
2.62214e-11
9.93575e-09
2.65199e-11
9.92234e-09
2.68138e-11
9.90879e-09
2.71039e-11
9.89509e-09
2.73906e-11
9.88126e-09
2.76743e-11
9.86728e-09
2.79559e-11
9.85316e-09
2.82356e-11
9.8389e-09
2.85143e-11
9.82451e-09
2.87925e-11
9.80997e-09
2.9071e-11
9.79529e-09
2.93505e-11
9.78048e-09
2.96322e-11
9.76552e-09
2.99169e-11
9.75042e-09
3.02061e-11
9.73517e-09
3.05014e-11
9.71977e-09
3.08044e-11
9.70421e-09
3.11181e-11
9.68849e-09
3.1445e-11
9.67259e-09
3.17892e-11
9.65652e-09
3.21551e-11
9.64024e-09
3.2549e-11
9.62376e-09
3.29785e-11
9.60704e-09
3.34536e-11
9.59005e-09
3.39872e-11
9.57275e-09
3.45956e-11
9.55511e-09
3.53007e-11
9.53706e-09
3.61308e-11
9.51851e-09
3.71232e-11
9.49936e-09
3.8328e-11
9.47948e-09
3.98119e-11
9.45867e-09
4.1666e-11
9.4367e-09
4.40153e-11
9.41324e-09
4.70359e-11
9.38782e-09
5.09792e-11
9.35981e-09
5.62158e-11
9.32831e-09
6.33114e-11
9.29195e-09
7.31674e-11
9.24868e-09
8.73078e-11
9.19512e-09
1.08512e-10
9.12539e-09
1.4239e-10
9.02837e-09
2.01891e-10
8.88236e-09
3.22312e-10
6.16516e-10
8.66692e-09
2.15713e-10
-6.43325e-10
4.32737e-10
-6.47249e-10
6.50903e-10
-6.50669e-10
8.70031e-10
-6.53559e-10
1.08994e-09
-6.55898e-10
1.31042e-09
-6.57665e-10
1.53129e-09
-6.5884e-10
1.75233e-09
-6.59404e-10
1.97333e-09
-6.59339e-10
2.19406e-09
-6.5863e-10
2.41431e-09
-6.57265e-10
2.63385e-09
-6.55234e-10
2.85244e-09
-6.5253e-10
3.06985e-09
-6.49151e-10
3.28586e-09
-6.45098e-10
3.50023e-09
-6.40376e-10
3.71274e-09
-6.34993e-10
3.92317e-09
-6.28963e-10
4.13131e-09
-6.22302e-10
4.33694e-09
-6.15031e-10
4.53988e-09
-6.07175e-10
4.73993e-09
-5.98759e-10
4.93692e-09
-5.89815e-10
5.13068e-09
-5.80373e-10
5.32105e-09
-5.70468e-10
5.50791e-09
-5.60137e-10
5.69112e-09
-5.49415e-10
5.87056e-09
-5.3834e-10
6.04614e-09
-5.26951e-10
6.21777e-09
-5.15285e-10
6.38536e-09
-5.03379e-10
6.54887e-09
-4.91271e-10
6.70823e-09
-4.78997e-10
6.86341e-09
-4.66592e-10
7.01438e-09
-4.54089e-10
7.16112e-09
-4.41521e-10
7.30364e-09
-4.28918e-10
7.44191e-09
-4.1631e-10
7.57597e-09
-4.03724e-10
7.70583e-09
-3.91185e-10
7.83152e-09
-3.78717e-10
7.95307e-09
-3.66342e-10
8.07053e-09
-3.54081e-10
8.18393e-09
-3.41952e-10
8.29334e-09
-3.29972e-10
8.3988e-09
-3.18156e-10
8.50039e-09
-3.06518e-10
8.59817e-09
-2.9507e-10
8.69221e-09
-2.83823e-10
8.78257e-09
-2.72786e-10
8.86933e-09
-2.61968e-10
8.95257e-09
-2.51376e-10
9.03237e-09
-2.41015e-10
9.10881e-09
-2.30891e-10
9.18197e-09
-2.21007e-10
9.25192e-09
-2.11366e-10
9.31876e-09
-2.01971e-10
9.38256e-09
-1.92822e-10
9.44341e-09
-1.83921e-10
9.50138e-09
-1.75267e-10
9.55657e-09
-1.6686e-10
9.60906e-09
-1.58699e-10
9.65892e-09
-1.50782e-10
9.70624e-09
-1.43107e-10
9.75109e-09
-1.35671e-10
9.79356e-09
-1.28472e-10
9.83372e-09
-1.21507e-10
9.87164e-09
-1.14771e-10
9.90742e-09
-1.08262e-10
9.94111e-09
-1.01975e-10
9.97279e-09
-9.59062e-11
1.00025e-08
-9.00513e-11
1.00304e-08
-8.44054e-11
1.00565e-08
-7.89645e-11
1.00808e-08
-7.37234e-11
1.01035e-08
-6.86776e-11
1.01245e-08
-6.3822e-11
1.0144e-08
-5.91518e-11
1.01621e-08
-5.46619e-11
1.01787e-08
-5.03474e-11
1.01939e-08
-4.62033e-11
1.02078e-08
-4.22245e-11
1.02204e-08
-3.84061e-11
1.02319e-08
-3.47432e-11
1.02421e-08
-3.12308e-11
1.02513e-08
-2.78639e-11
1.02594e-08
-2.46378e-11
1.02664e-08
-2.15477e-11
1.02725e-08
-1.85887e-11
1.02776e-08
-1.57566e-11
1.02819e-08
-1.30463e-11
1.02853e-08
-1.04535e-11
1.02879e-08
-7.97397e-12
1.02896e-08
-5.60304e-12
1.02907e-08
-3.33672e-12
1.0291e-08
-1.17076e-12
1.02906e-08
8.98865e-13
1.02896e-08
2.87621e-12
1.02879e-08
4.76494e-12
1.02857e-08
6.56908e-12
1.02829e-08
8.2921e-12
1.02795e-08
9.93764e-12
1.02756e-08
1.15091e-11
1.02712e-08
1.301e-11
1.02664e-08
1.44434e-11
1.02611e-08
1.58125e-11
1.02553e-08
1.71205e-11
1.02492e-08
1.83703e-11
1.02426e-08
1.95647e-11
1.02357e-08
2.07063e-11
1.02284e-08
2.17982e-11
1.02208e-08
2.28427e-11
1.02128e-08
2.38421e-11
1.02045e-08
2.47991e-11
1.01959e-08
2.5716e-11
1.0187e-08
2.65948e-11
1.01779e-08
2.74376e-11
1.01684e-08
2.82467e-11
1.01587e-08
2.90237e-11
1.01488e-08
2.97707e-11
1.01386e-08
3.04895e-11
1.01282e-08
3.11818e-11
1.01176e-08
3.1849e-11
1.01067e-08
3.24931e-11
1.00957e-08
3.31152e-11
1.00844e-08
3.37169e-11
1.0073e-08
3.42996e-11
1.00614e-08
3.48644e-11
1.00496e-08
3.54128e-11
1.00376e-08
3.59459e-11
1.00254e-08
3.64647e-11
1.00131e-08
3.69705e-11
1.00006e-08
3.74642e-11
9.98794e-09
3.79468e-11
9.97513e-09
3.84191e-11
9.96217e-09
3.88823e-11
9.94905e-09
3.9337e-11
9.93579e-09
3.97843e-11
9.92238e-09
4.02248e-11
9.90882e-09
4.06595e-11
9.89512e-09
4.1089e-11
9.88128e-09
4.15144e-11
9.8673e-09
4.19363e-11
9.85318e-09
4.23555e-11
9.83892e-09
4.27732e-11
9.82453e-09
4.31901e-11
9.80999e-09
4.36073e-11
9.79531e-09
4.40263e-11
9.7805e-09
4.44482e-11
9.76554e-09
4.48748e-11
9.75044e-09
4.53079e-11
9.73519e-09
4.575e-11
9.71979e-09
4.62039e-11
9.70423e-09
4.66732e-11
9.68852e-09
4.71623e-11
9.67263e-09
4.76768e-11
9.65656e-09
4.82238e-11
9.6403e-09
4.88121e-11
9.62382e-09
4.94533e-11
9.60711e-09
5.01621e-11
9.59014e-09
5.09572e-11
9.57288e-09
5.18634e-11
9.55526e-09
5.29127e-11
9.53725e-09
5.41469e-11
9.51875e-09
5.56215e-11
9.49967e-09
5.74097e-11
9.47987e-09
5.96105e-11
9.45918e-09
6.23574e-11
9.43736e-09
6.58341e-11
9.4141e-09
7.02978e-11
9.38896e-09
7.61151e-11
9.36136e-09
8.38227e-11
9.33043e-09
9.42326e-11
9.29498e-09
1.08625e-10
9.25316e-09
1.29123e-10
9.20218e-09
1.5949e-10
9.13762e-09
2.06958e-10
9.05272e-09
2.86789e-10
8.94081e-09
4.34223e-10
7.31873e-10
8.82545e-09
2.18017e-10
-8.61342e-10
4.37352e-10
-8.66584e-10
6.57834e-10
-8.71151e-10
8.79279e-10
-8.75005e-10
1.1015e-09
-8.78116e-10
1.32429e-09
-8.80455e-10
1.54744e-09
-8.81994e-10
1.77074e-09
-8.82704e-10
1.99396e-09
-8.82562e-10
2.21688e-09
-8.81546e-10
2.43925e-09
-8.79637e-10
2.66084e-09
-8.76823e-10
2.88141e-09
-8.73094e-10
3.1007e-09
-8.68447e-10
3.31849e-09
-8.62884e-10
3.53452e-09
-8.56412e-10
3.74858e-09
-8.49045e-10
3.96041e-09
-8.40802e-10
4.16982e-09
-8.31708e-10
4.37658e-09
-8.21792e-10
4.5805e-09
-8.11089e-10
4.78137e-09
-7.99638e-10
4.97904e-09
-7.8748e-10
5.17333e-09
-7.74661e-10
5.36409e-09
-7.61229e-10
5.55118e-09
-7.47233e-10
5.73449e-09
-7.32724e-10
5.91391e-09
-7.17754e-10
6.08933e-09
-7.02375e-10
6.26068e-09
-6.86638e-10
6.4279e-09
-6.70595e-10
6.59092e-09
-6.54295e-10
6.74971e-09
-6.37786e-10
6.90424e-09
-6.21116e-10
7.05448e-09
-6.0433e-10
7.20043e-09
-5.87469e-10
7.34208e-09
-5.70575e-10
7.47946e-09
-5.53686e-10
7.61257e-09
-5.36839e-10
7.74146e-09
-5.20065e-10
7.86614e-09
-5.03397e-10
7.98666e-09
-4.86864e-10
8.10307e-09
-4.70491e-10
8.21542e-09
-4.54302e-10
8.32376e-09
-4.3832e-10
8.42817e-09
-4.22564e-10
8.52871e-09
-4.07051e-10
8.62543e-09
-3.91798e-10
8.71843e-09
-3.76818e-10
8.80777e-09
-3.62123e-10
8.89352e-09
-3.47723e-10
8.97577e-09
-3.33628e-10
9.0546e-09
-3.19845e-10
9.13009e-09
-3.06379e-10
9.20232e-09
-2.93236e-10
9.27137e-09
-2.80418e-10
9.33733e-09
-2.6793e-10
9.40028e-09
-2.55771e-10
9.4603e-09
-2.43944e-10
9.51748e-09
-2.32446e-10
9.5719e-09
-2.21278e-10
9.62363e-09
-2.10438e-10
9.67278e-09
-1.99923e-10
9.7194e-09
-1.89731e-10
9.76359e-09
-1.79857e-10
9.80541e-09
-1.70299e-10
9.84496e-09
-1.61051e-10
9.8823e-09
-1.5211e-10
9.9175e-09
-1.43469e-10
9.95065e-09
-1.35124e-10
9.98181e-09
-1.27069e-10
1.00111e-08
-1.19297e-10
1.00385e-08
-1.11805e-10
1.00641e-08
-1.04584e-10
1.0088e-08
-9.76281e-11
1.01102e-08
-9.09318e-11
1.01309e-08
-8.44885e-11
1.015e-08
-7.82909e-11
1.01677e-08
-7.23329e-11
1.0184e-08
-6.66076e-11
1.01989e-08
-6.11086e-11
1.02125e-08
-5.5829e-11
1.02248e-08
-5.07622e-11
1.0236e-08
-4.59019e-11
1.0246e-08
-4.12409e-11
1.02549e-08
-3.67734e-11
1.02628e-08
-3.24924e-11
1.02696e-08
-2.83921e-11
1.02755e-08
-2.44657e-11
1.02804e-08
-2.07073e-11
1.02845e-08
-1.71108e-11
1.02877e-08
-1.36702e-11
1.02901e-08
-1.03795e-11
1.02918e-08
-7.23314e-12
1.02927e-08
-4.22554e-12
1.02928e-08
-1.35098e-12
1.02923e-08
1.39593e-12
1.02912e-08
4.02031e-12
1.02894e-08
6.52719e-12
1.02871e-08
8.92193e-12
1.02842e-08
1.1209e-11
1.02807e-08
1.33933e-11
1.02767e-08
1.54796e-11
1.02723e-08
1.7472e-11
1.02673e-08
1.93751e-11
1.0262e-08
2.11929e-11
1.02561e-08
2.29296e-11
1.02499e-08
2.4589e-11
1.02433e-08
2.61751e-11
1.02363e-08
2.76914e-11
1.0229e-08
2.91414e-11
1.02213e-08
3.05287e-11
1.02133e-08
3.18564e-11
1.0205e-08
3.31276e-11
1.01963e-08
3.43456e-11
1.01874e-08
3.55133e-11
1.01782e-08
3.66331e-11
1.01688e-08
3.77081e-11
1.0159e-08
3.87409e-11
1.01491e-08
3.97338e-11
1.01389e-08
4.06891e-11
1.01285e-08
4.16095e-11
1.01178e-08
4.24966e-11
1.01069e-08
4.33528e-11
1.00959e-08
4.41801e-11
1.00846e-08
4.49802e-11
1.00732e-08
4.57553e-11
1.00615e-08
4.65066e-11
1.00497e-08
4.72362e-11
1.00377e-08
4.79453e-11
1.00255e-08
4.86357e-11
1.00132e-08
4.93086e-11
1.00007e-08