/*--------------------------------*- C++ -*----------------------------------*\
  =========                 |
  \\      /  F ield         | OpenFOAM: The Open Source CFD Toolbox
   \\    /   O peration     | Website:  https://openfoam.org
    \\  /    A nd           | Version:  10
     \\/     M anipulation  |
\*---------------------------------------------------------------------------*/
FoamFile
{
    format      ascii;
    class       volVectorField;
    location    "1.99";
    object      Ua;
}
// * * * * * * * * * * * * * * * * * * * * * * * * * * * * * * * * * * * * * //

dimensions      [0 1 -1 0 0 0 0];

internalField   nonuniform List<vector> 
12225
(
(1.98375e-05 -2.55138e-06 0)
(5.79877e-05 -2.38842e-06 0)
(9.25606e-05 -2.08865e-06 0)
(0.000122999 -1.75053e-06 0)
(0.00014953 -1.44067e-06 0)
(0.000172785 -1.19217e-06 0)
(0.000193507 -1.01627e-06 0)
(0.000212412 -9.13959e-07 0)
(0.000230136 -8.84074e-07 0)
(0.000247251 -9.28551e-07 0)
(0.000264298 -1.05674e-06 0)
(0.000281858 -1.29118e-06 0)
(0.000300654 -1.67887e-06 0)
(0.000321744 -2.31811e-06 0)
(0.000346967 -3.4337e-06 0)
(0.000380193 -5.63483e-06 0)
(0.000432034 -1.10908e-05 0)
(0.000545121 -3.09834e-05 0)
(1.34396e-05 -6.59323e-06 0)
(3.9586e-05 -6.21088e-06 0)
(6.39481e-05 -5.46943e-06 0)
(8.61288e-05 -4.61611e-06 0)
(0.000106139 -3.82406e-06 0)
(0.000124241 -3.18361e-06 0)
(0.000140803 -2.72891e-06 0)
(0.000156214 -2.46668e-06 0)
(0.000170849 -2.39717e-06 0)
(0.00018506 -2.52825e-06 0)
(0.000199199 -2.88724e-06 0)
(0.000213656 -3.53659e-06 0)
(0.000228918 -4.60405e-06 0)
(0.000245685 -6.3527e-06 0)
(0.000265107 -9.36958e-06 0)
(0.000289283 -1.51684e-05 0)
(0.000321938 -2.85676e-05 0)
(0.000361743 -6.94559e-05 0)
(1.0375e-05 -9.03762e-06 0)
(3.07514e-05 -8.59181e-06 0)
(5.01605e-05 -7.64001e-06 0)
(6.82901e-05 -6.50816e-06 0)
(8.50655e-05 -5.43667e-06 0)
(0.000100588 -4.55936e-06 0)
(0.000115054 -3.93358e-06 0)
(0.0001287 -3.57717e-06 0)
(0.000141772 -3.49715e-06 0)
(0.000154515 -3.71009e-06 0)
(0.000167181 -4.25959e-06 0)
(0.000180053 -5.2391e-06 0)
(0.000193478 -6.83391e-06 0)
(0.000207926 -9.41438e-06 0)
(0.000224061 -1.37687e-05 0)
(0.000242724 -2.17526e-05 0)
(0.000263838 -3.82578e-05 0)
(0.000278041 -7.68277e-05 0)
(8.40104e-06 -1.06131e-05 0)
(2.50448e-05 -1.01852e-05 0)
(4.12132e-05 -9.14423e-06 0)
(5.66534e-05 -7.85964e-06 0)
(7.12492e-05 -6.61814e-06 0)
(8.50105e-05 -5.5889e-06 0)
(9.80322e-05 -4.85176e-06 0)
(0.000110454 -4.43788e-06 0)
(0.000122438 -4.36344e-06 0)
(0.000134155 -4.65452e-06 0)
(0.000145786 -5.36879e-06 0)
(0.000157534 -6.62274e-06 0)
(0.000169634 -8.63929e-06 0)
(0.000182362 -1.18458e-05 0)
(0.000195996 -1.70936e-05 0)
(0.000210512 -2.6166e-05 0)
(0.000224181 -4.28608e-05 0)
(0.000228512 -7.41117e-05 0)
(6.97263e-06 -1.15738e-05 0)
(2.09024e-05 -1.12172e-05 0)
(3.46847e-05 -1.01672e-05 0)
(4.81122e-05 -8.8149e-06 0)
(6.10498e-05 -7.47923e-06 0)
(7.34523e-05 -6.35823e-06 0)
(8.53466e-05 -5.55276e-06 0)
(9.68059e-05 -5.10811e-06 0)
(0.00010793 -5.05055e-06 0)
(0.000118832 -5.41543e-06 0)
(0.000129639 -6.27147e-06 0)
(0.000140483 -7.74989e-06 0)
(0.000151505 -1.00914e-05 0)
(0.000162822 -1.37337e-05 0)
(0.00017442 -1.948e-05 0)
(0.000185787 -2.87997e-05 0)
(0.000194822 -4.41649e-05 0)
(0.000195608 -6.82685e-05 0)
(5.8738e-06 -1.205e-05 0)
(1.7705e-05 -1.18022e-05 0)
(2.96174e-05 -1.08002e-05 0)
(4.14399e-05 -9.44286e-06 0)
(5.30318e-05 -8.07069e-06 0)
(6.43147e-05 -6.90503e-06 0)
(7.52691e-05 -6.06571e-06 0)
(8.59192e-05 -5.61183e-06 0)
(9.63168e-05 -5.57978e-06 0)
(0.00010653 -6.0131e-06 0)
(0.000116635 -6.98798e-06 0)
(0.000126709 -8.64175e-06 0)
(0.00013681 -1.12142e-05 0)
(0.00014693 -1.51143e-05 0)
(0.000156872 -2.10246e-05 0)
(0.000165926 -3.00154e-05 0)
(0.00017223 -4.34532e-05 0)
(0.000172116 -6.18557e-05 0)
(4.99685e-06 -1.21226e-05 0)
(1.51443e-05 -1.20102e-05 0)
(2.55349e-05 -1.10974e-05 0)
(3.60271e-05 -9.78218e-06 0)
(4.64835e-05 -8.41906e-06 0)
(5.68069e-05 -7.24738e-06 0)
(6.69462e-05 -6.40326e-06 0)
(7.68889e-05 -5.95852e-06 0)
(8.66487e-05 -5.95883e-06 0)
(9.62555e-05 -6.45427e-06 0)
(0.000105744 -7.52459e-06 0)
(0.000115142 -9.30496e-06 0)
(0.000124442 -1.20183e-05 0)
(0.000133552 -1.60178e-05 0)
(0.000142178 -2.18319e-05 0)
(0.000149607 -3.01543e-05 0)
(0.000154413 -4.15927e-05 0)
(0.000154479 -5.57634e-05 0)
(4.28011e-06 -1.18494e-05 0)
(1.30436e-05 -1.18897e-05 0)
(2.21644e-05 -1.10946e-05 0)
(3.15259e-05 -9.85686e-06 0)
(4.09995e-05 -8.53913e-06 0)
(5.04797e-05 -7.39379e-06 0)
(5.98946e-05 -6.57003e-06 0)
(6.92038e-05 -6.1505e-06 0)
(7.83906e-05 -6.18877e-06 0)
(8.74524e-05 -6.73935e-06 0)
(9.63892e-05 -7.88168e-06 0)
(0.000105188 -9.74161e-06 0)
(0.000113794 -1.25136e-05 0)
(0.000122064 -1.64808e-05 0)
(0.00012968 -2.20168e-05 0)
(0.000136023 -2.95149e-05 0)
(0.000140094 -3.91338e-05 0)
(0.000140737 -5.02385e-05 0)
(3.68465e-06 -1.12766e-05 0)
(1.12911e-05 -1.14787e-05 0)
(1.93338e-05 -1.08185e-05 0)
(2.7717e-05 -9.68328e-06 0)
(3.63256e-05 -8.43958e-06 0)
(4.50531e-05 -7.34779e-06 0)
(5.38144e-05 -6.56641e-06 0)
(6.25484e-05 -6.18646e-06 0)
(7.12136e-05 -6.26742e-06 0)
(7.97807e-05 -6.86602e-06 0)
(8.82209e-05 -8.0578e-06 0)
(9.64896e-05 -9.95398e-06 0)
(0.000104501 -1.2714e-05 0)
(0.000112091 -1.65484e-05 0)
(0.000118958 -2.16961e-05 0)
(0.000124616 -2.83388e-05 0)
(0.000128406 -3.64076e-05 0)
(0.000129723 -4.52927e-05 0)
(3.184e-06 -1.04456e-05 0)
(9.81083e-06 -1.08093e-05 0)
(1.69254e-05 -1.02904e-05 0)
(2.44514e-05 -9.27375e-06 0)
(3.22901e-05 -8.12598e-06 0)
(4.03393e-05 -7.1105e-06 0)
(4.85063e-05 -6.39088e-06 0)
(5.67144e-05 -6.06344e-06 0)
(6.49026e-05 -6.19136e-06 0)
(7.30195e-05 -6.83126e-06 0)
(8.10134e-05 -8.05201e-06 0)
(8.88176e-05 -9.94693e-06 0)
(9.6329e-05 -1.26386e-05 0)
(0.000103382 -1.62714e-05 0)
(0.000109717 -2.09789e-05 0)
(0.000114973 -2.68098e-05 0)
(0.000118737 -3.36034e-05 0)
(0.000120707 -4.08625e-05 0)
(2.75884e-06 -9.39603e-06 0)
(8.54681e-06 -9.91118e-06 0)
(1.48529e-05 -9.52938e-06 0)
(2.16202e-05 -8.63869e-06 0)
(2.8769e-05 -7.60272e-06 0)
(3.62045e-05 -6.68238e-06 0)
(4.38299e-05 -6.04151e-06 0)
(5.15572e-05 -5.77836e-06 0)
(5.93095e-05 -5.9573e-06 0)
(6.7018e-05 -6.63282e-06 0)
(7.4614e-05 -7.86523e-06 0)
(8.20161e-05 -9.72884e-06 0)
(8.91148e-05 -1.23116e-05 0)
(9.57561e-05 -1.57027e-05 0)
(0.00010173 -1.99613e-05 0)
(0.000106779 -2.50617e-05 0)
(0.000110653 -3.08239e-05 0)
(0.000113208 -3.68708e-05 0)
(2.36448e-06 -8.26317e-06 0)
(7.37876e-06 -8.90173e-06 0)
(1.29497e-05 -8.63743e-06 0)
(1.90382e-05 -7.86572e-06 0)
(2.55772e-05 -6.94396e-06 0)
(3.24746e-05 -6.12572e-06 0)
(3.96279e-05 -5.57097e-06 0)
(4.69388e-05 -5.37688e-06 0)
(5.4318e-05 -5.60705e-06 0)
(6.16843e-05 -6.31268e-06 0)
(6.89579e-05 -7.54553e-06 0)
(7.60509e-05 -9.36302e-06 0)
(8.28557e-05 -1.18252e-05 0)
(8.92356e-05 -1.49813e-05 0)
(9.50228e-05 -1.88441e-05 0)
(0.000100033 -2.3353e-05 0)
(0.000104105 -2.83391e-05 0)
(0.000107169 -3.35189e-05 0)
(2.1076e-06 -7.02372e-06 0)
(6.60061e-06 -7.75245e-06 0)
(1.16456e-05 -7.58396e-06 0)
(1.72254e-05 -6.92488e-06 0)
(2.32924e-05 -6.12183e-06 0)
(2.97631e-05 -5.41534e-06 0)
(3.65357e-05 -4.95695e-06 0)
(4.35063e-05 -4.8397e-06 0)
(5.05778e-05 -5.12451e-06 0)
(5.766e-05 -5.8583e-06 0)
(6.46656e-05 -7.08432e-06 0)
(7.15026e-05 -8.84514e-06 0)
(7.80669e-05 -1.11785e-05 0)
(8.4238e-05 -1.41055e-05 0)
(8.98817e-05 -1.76112e-05 0)
(9.4866e-05 -2.16226e-05 0)
(9.90905e-05 -2.59927e-05 0)
(0.000102524 -3.0508e-05 0)
(1.85029e-06 -5.54389e-06 0)
(5.80928e-06 -6.31303e-06 0)
(1.03037e-05 -6.21492e-06 0)
(1.5354e-05 -5.66892e-06 0)
(2.09341e-05 -5.00151e-06 0)
(2.69679e-05 -4.43027e-06 0)
(3.33516e-05 -4.09133e-06 0)
(3.99752e-05 -4.06938e-06 0)
(4.67335e-05 -4.4201e-06 0)
(5.35287e-05 -5.18449e-06 0)
(6.02677e-05 -6.39637e-06 0)
(6.68572e-05 -8.08379e-06 0)
(7.31997e-05 -1.02651e-05 0)
(7.91928e-05 -1.29399e-05 0)
(8.47346e-05 -1.60772e-05 0)
(8.9736e-05 -1.9604e-05 0)
(9.41395e-05 -2.34015e-05 0)
(9.79371e-05 -2.73156e-05 0)
(1.58027e-06 -3.85298e-06 0)
(4.96983e-06 -4.54832e-06 0)
(8.87914e-06 -4.46927e-06 0)
(1.33871e-05 -4.0294e-06 0)
(1.84849e-05 -3.51459e-06 0)
(2.40947e-05 -3.10411e-06 0)
(3.0104e-05 -2.90968e-06 0)
(3.63932e-05 -3.00278e-06 0)
(4.28486e-05 -3.43118e-06 0)
(4.93661e-05 -4.22857e-06 0)
(5.58492e-05 -5.41939e-06 0)
(6.22072e-05 -7.01953e-06 0)
(6.83534e-05 -9.0334e-06 0)
(7.42067e-05 -1.14484e-05 0)
(7.96955e-05 -1.42285e-05 0)
(8.47649e-05 -1.73098e-05 0)
(8.93855e-05 -2.06021e-05 0)
(9.35592e-05 -2.3997e-05 0)
(1.24148e-06 -2.01276e-06 0)
(3.94011e-06 -2.42104e-06 0)
(7.20051e-06 -2.29292e-06 0)
(1.11719e-05 -1.95547e-06 0)
(1.58327e-05 -1.61401e-06 0)
(2.10755e-05 -1.389e-06 0)
(2.67616e-05 -1.35927e-06 0)
(3.27533e-05 -1.58014e-06 0)
(3.89272e-05 -2.09083e-06 0)
(4.51779e-05 -2.91996e-06 0)
(5.14174e-05 -4.08696e-06 0)
(5.75714e-05 -5.60109e-06 0)
(6.35756e-05 -7.4598e-06 0)
(6.93741e-05 -9.64567e-06 0)
(7.49202e-05 -1.21238e-05 0)
(8.0178e-05 -1.48409e-05 0)
(8.51265e-05 -1.77282e-05 0)
(8.97609e-05 -2.07079e-05 0)
(6.33959e-07 5.51669e-09 0)
(2.19243e-06 1.47723e-07 0)
(4.55129e-06 3.4587e-07 0)
(7.89273e-06 5.46029e-07 0)
(1.20831e-05 6.88253e-07 0)
(1.69368e-05 7.10312e-07 0)
(2.22917e-05 5.58249e-07 0)
(2.80131e-05 1.9071e-07 0)
(3.39851e-05 -4.21543e-07 0)
(4.0131e-05 -1.32831e-06 0)
(4.64013e-05 -2.55133e-06 0)
(5.27234e-05 -4.05758e-06 0)
(5.90126e-05 -5.84077e-06 0)
(6.51963e-05 -7.88126e-06 0)
(7.12131e-05 -1.01463e-05 0)
(7.70141e-05 -1.25911e-05 0)
(8.25646e-05 -1.51624e-05 0)
(8.78445e-05 -1.78026e-05 0)
(1.48967e-06 2.41624e-06 0)
(4.5629e-06 3.27361e-06 0)
(7.94018e-06 3.6589e-06 0)
(1.17967e-05 3.76836e-06 0)
(1.61991e-05 3.69818e-06 0)
(2.11272e-05 3.46589e-06 0)
(2.65077e-05 3.06001e-06 0)
(3.22464e-05 2.46441e-06 0)
(3.82466e-05 1.66636e-06 0)
(4.43948e-05 6.28414e-07 0)
(5.0569e-05 -6.58374e-07 0)
(5.67417e-05 -2.2457e-06 0)
(6.29202e-05 -4.06985e-06 0)
(6.9046e-05 -6.06378e-06 0)
(7.50529e-05 -8.19972e-06 0)
(8.08905e-05 -1.0443e-05 0)
(8.65228e-05 -1.27551e-05 0)
(9.19264e-05 -1.50962e-05 0)
(2.09276e-06 5.75499e-06 0)
(6.42317e-06 7.09336e-06 0)
(1.10494e-05 7.70288e-06 0)
(1.59933e-05 7.79054e-06 0)
(2.12767e-05 7.52208e-06 0)
(2.6896e-05 6.99766e-06 0)
(3.28177e-05 6.27014e-06 0)
(3.89868e-05 5.36586e-06 0)
(4.53371e-05 4.29849e-06 0)
(5.17988e-05 3.0762e-06 0)
(5.83053e-05 1.70972e-06 0)
(6.47461e-05 1.16142e-07 0)
(7.10239e-05 -1.65076e-06 0)
(7.71447e-05 -3.6123e-06 0)
(8.31149e-05 -5.63595e-06 0)
(8.89023e-05 -7.69899e-06 0)
(9.44855e-05 -9.77705e-06 0)
(9.9852e-05 -1.18459e-05 0)
(2.39942e-06 9.50422e-06 0)
(7.40945e-06 1.08443e-05 0)
(1.28127e-05 1.14361e-05 0)
(1.85627e-05 1.1416e-05 0)
(2.46256e-05 1.0948e-05 0)
(3.09638e-05 1.01636e-05 0)
(3.75294e-05 9.15387e-06 0)
(4.42652e-05 7.97737e-06 0)
(5.11094e-05 6.67103e-06 0)
(5.80003e-05 5.25881e-06 0)
(6.48794e-05 3.75801e-06 0)
(7.16937e-05 2.18202e-06 0)
(7.8379e-05 5.31466e-07 0)
(8.4852e-05 -1.28697e-06 0)
(9.11072e-05 -3.20652e-06 0)
(9.71708e-05 -5.11769e-06 0)
(0.000103022 -7.00647e-06 0)
(0.000108649 -8.8591e-06 0)
(2.87589e-06 1.27754e-05 0)
(8.83141e-06 1.38608e-05 0)
(1.51678e-05 1.42379e-05 0)
(2.18304e-05 1.40044e-05 0)
(2.87631e-05 1.33122e-05 0)
(3.59094e-05 1.2299e-05 0)
(4.32102e-05 1.10694e-05 0)
(5.06046e-05 9.69563e-06 0)
(5.8032e-05 8.22521e-06 0)
(6.54352e-05 6.68894e-06 0)
(7.27622e-05 5.10749e-06 0)
(7.99674e-05 3.49588e-06 0)
(8.70124e-05 1.86624e-06 0)
(9.38415e-05 2.07853e-07 0)
(0.000100402 -1.57672e-06 0)
(0.000106705 -3.37484e-06 0)
(0.00011277 -5.12515e-06 0)
(0.000118589 -6.82018e-06 0)
(3.46368e-06 1.54667e-05 0)
(1.05635e-05 1.62462e-05 0)
(1.79902e-05 1.63481e-05 0)
(2.56936e-05 1.58644e-05 0)
(3.36071e-05 1.49424e-05 0)
(4.16615e-05 1.37211e-05 0)
(4.97886e-05 1.231e-05 0)
(5.7924e-05 1.07867e-05 0)
(6.60078e-05 9.20259e-06 0)
(7.39871e-05 7.59053e-06 0)
(8.1816e-05 5.97128e-06 0)
(8.94562e-05 4.3585e-06 0)
(9.68772e-05 2.76193e-06 0)
(0.000104055 1.18924e-06 0)
(0.000110935 -4.00698e-07 0)
(0.000117502 -2.07446e-06 0)
(0.000123789 -3.68822e-06 0)
(0.000129797 -5.23404e-06 0)
(4.18043e-06 1.73995e-05 0)
(1.26681e-05 1.78844e-05 0)
(2.13956e-05 1.77105e-05 0)
(3.03156e-05 1.69837e-05 0)
(3.93556e-05 1.58538e-05 0)
(4.84387e-05 1.4461e-05 0)
(5.74923e-05 1.29152e-05 0)
(6.64512e-05 1.12944e-05 0)
(7.52591e-05 9.64919e-06 0)
(8.3869e-05 8.01111e-06 0)
(9.22431e-05 6.39863e-06 0)
(0.000100352 4.82253e-06 0)
(0.000108174 3.28921e-06 0)
(0.000115694 1.80292e-06 0)
(0.000122898 3.66802e-07 0)
(0.000129749 -1.13531e-06 0)
(0.000136256 -2.6066e-06 0)
(0.000142452 -4.00261e-06 0)
(5.05085e-06 1.84842e-05 0)
(1.52205e-05 1.87103e-05 0)
(2.55107e-05 1.82942e-05 0)
(3.58694e-05 1.73624e-05 0)
(4.62189e-05 1.60705e-05 0)
(5.6479e-05 1.45589e-05 0)
(6.65774e-05 1.29354e-05 0)
(7.64532e-05 1.12747e-05 0)
(8.60581e-05 9.6239e-06 0)
(9.53549e-05 8.01076e-06 0)
(0.000104317 6.45004e-06 0)
(0.000112926 4.94882e-06 0)
(0.000121171 3.50989e-06 0)
(0.000129049 2.134e-06 0)
(0.000136558 8.20889e-07 0)
(0.000143678 -4.79596e-07 0)
(0.000150413 -1.80007e-06 0)
(0.000156795 -3.04255e-06 0)
(6.11255e-06 1.8679e-05 0)
(1.83312e-05 1.86927e-05 0)
(3.05123e-05 1.80881e-05 0)
(4.25899e-05 1.70106e-05 0)
(5.44803e-05 1.56206e-05 0)
(6.61038e-05 1.40565e-05 0)
(7.73944e-05 1.2421e-05 0)
(8.83025e-05 1.07832e-05 0)
(9.87932e-05 9.18472e-06 0)
(0.000108845 7.64811e-06 0)
(0.000118446 6.18376e-06 0)
(0.000127594 4.79484e-06 0)
(0.00013629 3.48075e-06 0)
(0.000144544 2.2392e-06 0)
(0.000152367 1.06732e-06 0)
(0.000159754 -4.8905e-08 0)
(0.000166713 -1.20309e-06 0)
(0.000173277 -2.28764e-06 0)
(7.42588e-06 1.79606e-05 0)
(2.21755e-05 1.78137e-05 0)
(3.66786e-05 1.70875e-05 0)
(5.08444e-05 1.59389e-05 0)
(6.45816e-05 1.45286e-05 0)
(7.78159e-05 1.29889e-05 0)
(9.04957e-05 1.14147e-05 0)
(0.00010259 9.86693e-06 0)
(0.000114088 8.38049e-06 0)
(0.000124987 6.97233e-06 0)
(0.000135299 5.64835e-06 0)
(0.00014504 4.40815e-06 0)
(0.00015423 3.24828e-06 0)
(0.000162891 2.16407e-06 0)
(0.000171049 1.15064e-06 0)
(0.000178727 2.03368e-07 0)
(0.000185927 -7.64385e-07 0)
(0.000192677 -1.68626e-06 0)
(9.09703e-06 1.62963e-05 0)
(2.70622e-05 1.60454e-05 0)
(4.44994e-05 1.52748e-05 0)
(6.12791e-05 1.4143e-05 0)
(7.73013e-05 1.28025e-05 0)
(9.25039e-05 1.13742e-05 0)
(0.00010686 9.94147e-06 0)
(0.000120371 8.5555e-06 0)
(0.000133055 7.2435e-06 0)
(0.000144946 6.01687e-06 0)
(0.000156082 4.87751e-06 0)
(0.000166504 3.82227e-06 0)
(0.000176256 2.84568e-06 0)
(0.000185379 1.94162e-06 0)
(0.000193915 1.1041e-06 0)
(0.000201902 3.27639e-07 0)
(0.00020936 -4.4463e-07 0)
(0.000216319 -1.19889e-06 0)
(1.13409e-05 1.36047e-05 0)
(3.36172e-05 1.33124e-05 0)
(5.49691e-05 1.25877e-05 0)
(7.52087e-05 1.15757e-05 0)
(9.42264e-05 1.04101e-05 0)
(0.000111983 9.19312e-06 0)
(0.000128492 7.99251e-06 0)
(0.000143803 6.84782e-06 0)
(0.000157986 5.77834e-06 0)
(0.000171117 4.79044e-06 0)
(0.000183276 3.88306e-06 0)
(0.000194541 3.05138e-06 0)
(0.000204984 2.28914e-06 0)
(0.000214672 1.58983e-06 0)
(0.000223667 9.47395e-07 0)
(0.000232026 3.56446e-07 0)
(0.000239785 -2.16872e-07 0)
(0.000246987 -7.96991e-07 0)
(1.47072e-05 9.66201e-06 0)
(4.34435e-05 9.40351e-06 0)
(7.06393e-05 8.83732e-06 0)
(9.60131e-05 8.07552e-06 0)
(0.000119444 7.21767e-06 0)
(0.000140934 6.3373e-06 0)
(0.00016057 5.48148e-06 0)
(0.00017848 4.67616e-06 0)
(0.000194812 3.93273e-06 0)
(0.000209716 3.25363e-06 0)
(0.000223335 2.63633e-06 0)
(0.000235799 2.07602e-06 0)
(0.000247225 1.56715e-06 0)
(0.000257717 1.10425e-06 0)
(0.000267369 6.82344e-07 0)
(0.000276262 2.97116e-07 0)
(0.000284456 -6.5667e-08 0)
(0.000292014 -4.62695e-07 0)
(2.16594e-05 3.67625e-06 0)
(6.37407e-05 3.56606e-06 0)
(0.000103014 3.33876e-06 0)
(0.000139003 3.0392e-06 0)
(0.000171573 2.70635e-06 0)
(0.000200822 2.36841e-06 0)
(0.000226991 2.04295e-06 0)
(0.00025038 1.73931e-06 0)
(0.000271303 1.46122e-06 0)
(0.000290057 1.20908e-06 0)
(0.000306913 9.81494e-07 0)
(0.000322106 7.76287e-07 0)
(0.000335844 5.91081e-07 0)
(0.000348303 4.23597e-07 0)
(0.000359636 2.71792e-07 0)
(0.000369973 1.33904e-07 0)
(0.000379418 7.48639e-09 0)
(0.000387994 -1.43769e-07 0)
(3.58595e-05 -1.8169e-05 -2.34405e-31)
(0.000107664 -1.81514e-05 2.3333e-31)
(0.000179418 -1.81112e-05 0)
(0.000250783 -1.80547e-05 0)
(0.000321422 -1.79787e-05 0)
(0.000390944 -1.78672e-05 -2.26314e-31)
(0.00045889 -1.77034e-05 0)
(0.00052473 -1.74783e-05 0)
(0.000587878 -1.71942e-05 0)
(0.000647705 -1.68644e-05 0)
(0.000703547 -1.65105e-05 2.05088e-31)
(0.000754718 -1.61606e-05 0)
(0.000800518 -1.58483e-05 0)
(0.000840263 -1.56101e-05 0)
(0.000873328 -1.54824e-05 0)
(0.00089922 -1.54989e-05 1.89704e-31)
(0.000917689 -1.56894e-05 0)
(0.000928874 -1.6075e-05 0)
(0.00093349 -1.66744e-05 0)
(0.000933026 -1.75181e-05 0)
(0.000929875 -1.86554e-05 0)
(0.000927276 -2.01582e-05 0)
(0.000928998 -2.2135e-05 0)
(0.000938989 -2.47666e-05 3.09017e-31)
(0.000961294 -2.83668e-05 -3.55284e-31)
(0.00100059 -3.34898e-05 4.21034e-31)
(0.00106375 -4.11576e-05 5.19392e-31)
(0.00116353 -5.33686e-05 0)
(0.0013282 -7.43631e-05 0)
(0.00163745 -0.000114256 -1.45739e-30)
(0.00247032 -0.000201939 -2.58084e-30)
(0.0109966 -0.000454948 0)
(0.0226003 -0.00102816 0)
(0.0279 -0.00258288 -3.30536e-29)
(0.0283166 0.00191035 0)
(0.0265987 0.000854773 0)
(0.0254453 0.000983526 -1.30121e-29)
(0.0242415 0.000919849 0)
(0.0231256 0.000830173 -1.10027e-29)
(0.0221168 0.000738723 -1.96177e-29)
(0.0212113 0.000657752 0)
(0.0203974 0.000587105 0)
(0.0196632 0.000526535 0)
(0.0189977 0.000474446 0)
(0.0183918 0.000429306 0)
(0.0178379 0.000389994 -1.05022e-29)
(0.0173296 0.000355637 -9.60213e-30)
(0.0168613 0.000325475 -8.81141e-30)
(0.0164285 0.000298838 0)
(0.0160273 0.000275149 7.49082e-30)
(0.0156543 0.000253935 0)
(0.0153068 0.000234818 -6.43128e-30)
(0.0149825 0.000217497 -5.9759e-30)
(0.0146794 0.000201736 0)
(0.0143958 0.000187341 0)
(0.01413 0.000174158 0)
(0.0138807 0.000162053 -4.51669e-30)
(0.0136467 0.000150917 0)
(0.0134268 0.000140654 0)
(0.0132201 0.000131181 0)
(0.0130256 0.000122425 0)
(0.0128425 0.000114321 0)
(0.01267 0.000106812 0)
(0.0125075 9.98463e-05 0)
(0.0123542 9.33776e-05 0)
(0.0122096 8.73641e-05 2.54657e-30)
(0.0120731 8.17676e-05 0)
(0.0119443 7.65542e-05 0)
(0.0118226 7.16927e-05 -2.13233e-30)
(0.0117077 6.71552e-05 -2.01233e-30)
(0.0115991 6.29164e-05 0)
(0.0114965 5.89533e-05 1.79533e-30)
(0.0113996 5.52451e-05 -1.69719e-30)
(0.0113079 5.1773e-05 0)
(0.0112213 4.85199e-05 1.51914e-30)
(0.0111394 4.54703e-05 0)
(0.011062 4.261e-05 0)
(0.0109889 3.99262e-05 -1.29151e-30)
(0.0109198 3.74069e-05 0)
(0.0108545 3.50415e-05 1.16207e-30)
(0.0107928 3.282e-05 0)
(0.0107345 3.07332e-05 -1.04787e-30)
(0.0106795 2.87727e-05 -9.95893e-31)
(0.0106275 2.69307e-05 -9.47051e-31)
(0.0105785 2.52e-05 -1.80231e-30)
(0.0105322 2.35738e-05 1.71605e-30)
(0.0104885 2.2046e-05 0)
(0.0104473 2.06105e-05 0)
(0.0104085 1.92621e-05 0)
(0.0103719 1.79957e-05 1.4201e-30)
(0.0103374 1.68063e-05 1.35698e-30)
(0.0103049 1.56897e-05 -1.29772e-30)
(0.0102743 1.46415e-05 0)
(0.0102456 1.36579e-05 1.18987e-30)
(0.0102185 1.2735e-05 1.14089e-30)
(0.010193 1.18695e-05 1.09494e-30)
(0.0101691 1.1058e-05 0)
(0.0101466 1.02973e-05 0)
(0.0101255 9.58458e-06 0)
(0.0101057 8.91702e-06 9.38175e-31)
(0.0100871 8.29202e-06 0)
(0.0100696 7.70708e-06 0)
(0.0100533 7.15986e-06 -8.44854e-31)
(0.0100379 6.64816e-06 0)
(0.0100236 6.16987e-06 0)
(0.0100102 5.72302e-06 -7.68538e-31)
(0.00999759 5.30574e-06 0)
(0.00998584 4.91625e-06 0)
(0.00997486 4.55288e-06 7.06376e-31)
(0.00996461 4.21405e-06 6.88375e-31)
(0.00995504 3.89827e-06 0)
(0.0099461 3.60411e-06 -6.55971e-31)
(0.00993778 3.33025e-06 0)
(0.00993001 3.07541e-06 6.27876e-31)
(0.00992278 2.83842e-06 0)
(0.00991605 2.61814e-06 6.03578e-31)
(0.00990979 2.41351e-06 5.92699e-31)
(0.00990397 2.22352e-06 0)
(0.00989856 2.04725e-06 0)
(0.00989354 1.88378e-06 0)
(0.00988887 1.73228e-06 0)
(0.00988455 1.59197e-06 0)
(0.00988054 1.4621e-06 0)
(0.00987683 1.34196e-06 0)
(0.00987339 1.23089e-06 5.29845e-31)
(0.00987021 1.12829e-06 -5.24386e-31)
(0.00986726 1.03357e-06 0)
(0.00986455 9.46175e-07 0)
(0.00986204 8.65603e-07 0)
(0.00985972 7.91371e-07 0)
(0.00985758 7.23031e-07 -1.00568e-30)
(0.00985562 6.60164e-07 0)
(0.0098538 6.02375e-07 9.92848e-31)
(0.00985213 5.49299e-07 -9.87203e-31)
(0.0098506 5.00596e-07 0)
(0.00984919 4.55946e-07 0)
(0.00984789 4.15056e-07 0)
(0.0098467 3.77652e-07 9.68946e-31)
(0.0098456 3.43482e-07 9.65309e-31)
(0.0098446 3.12316e-07 0)
(0.00984368 2.83941e-07 9.58967e-31)
(0.00984283 2.58165e-07 9.56218e-31)
(0.00984206 2.34818e-07 -9.53736e-31)
(0.00984134 2.13747e-07 0)
(0.00984069 1.9482e-07 0)
(0.00984009 1.77929e-07 -9.47668e-31)
(0.00983953 1.62987e-07 0)
(0.00983901 1.49934e-07 0)
(0.00983853 1.38739e-07 0)
(0.00983808 1.29405e-07 0)
(0.00983766 1.21972e-07 9.41651e-31)
(0.00983725 1.16528e-07 9.4105e-31)
(0.00983685 1.13215e-07 0)
(0.00983646 1.12248e-07 9.40534e-31)
(0.00983606 1.13923e-07 0)
(0.00983565 1.18643e-07 0)
(0.00983521 1.26949e-07 9.41936e-31)
(0.00983473 1.3955e-07 0)
(0.00983419 1.57374e-07 9.44987e-31)
(0.00983356 1.81631e-07 0)
(0.00983282 2.13898e-07 0)
(0.00983194 2.56229e-07 9.54993e-31)
(0.00983086 3.11305e-07 0)
(0.00982954 3.82641e-07 9.67836e-31)
(0.00982788 4.7487e-07 0)
(0.00982579 5.94142e-07 0)
(0.00982315 7.4869e-07 0)
(0.00981977 9.49672e-07 -1.02554e-30)
(0.00981542 1.21242e-06 0)
(0.0098098 1.55837e-06 1.08754e-30)
(0.00980248 2.01822e-06 0)
(0.00979286 2.63718e-06 0)
(0.00978008 3.48434e-06 0)
(0.00976289 4.6704e-06 0)
(0.00973936 6.38428e-06 0)
(0.00970634 8.97668e-06 0)
(0.00965825 1.31802e-05 0)
(0.00958374 2.08123e-05 -6.114e-30)
(0.00945421 3.7699e-05 0)
(0.00916714 9.06504e-05 0)
(9.72673e-06 -4.53678e-05 5.86019e-31)
(2.92328e-05 -4.52879e-05 -5.84296e-31)
(4.87961e-05 -4.51845e-05 0)
(6.83682e-05 -4.5069e-05 1.16178e-30)
(8.79054e-05 -4.49416e-05 0)
(0.000107306 -4.47587e-05 -5.77226e-31)
(0.000126378 -4.4468e-05 -1.1435e-30)
(0.00014487 -4.40344e-05 -1.13142e-30)
(0.000162534 -4.3449e-05 0)
(0.000179165 -4.27261e-05 -1.09598e-30)
(0.000194643 -4.18985e-05 5.39228e-31)
(0.000208946 -4.10153e-05 0)
(0.00022217 -4.01427e-05 0)
(0.000234535 -3.93622e-05 0)
(0.000246373 -3.87644e-05 0)
(0.000258097 -3.84414e-05 4.93797e-31)
(0.00027016 -3.84793e-05 0)
(0.00028298 -3.89521e-05 9.93525e-31)
(0.000296902 -3.99293e-05 0)
(0.000312306 -4.14932e-05 0)
(0.000329744 -4.37568e-05 -1.11551e-30)
(0.00034994 -4.68802e-05 0)
(0.000373698 -5.11052e-05 1.30339e-30)
(0.000401891 -5.68156e-05 7.2958e-31)
(0.000435573 -6.46401e-05 -8.30312e-31)
(0.00047618 -7.56012e-05 9.71502e-31)
(0.00052585 -9.14356e-05 1.17557e-30)
(0.000587906 -0.000115339 0)
(0.000667525 -0.000153483 0)
(0.000772905 -0.000219044 -2.82196e-30)
(0.000918359 -0.000345551 -1.33442e-29)
(0.00113804 -0.000653732 0)
(0.00227484 -0.00130325 0)
(0.00947961 -0.00305416 -3.93622e-29)
(0.0190511 0.00138869 0)
(0.024433 -0.00151144 0)
(0.0255379 0.00341247 -4.44066e-29)
(0.0240026 0.0028234 0)
(0.0228444 0.00249347 -9.80303e-29)
(0.0218511 0.00218973 -5.71191e-29)
(0.0209796 0.00194775 0)
(0.0201986 0.00173696 0)
(0.0194939 0.00155942 8.24611e-29)
(0.0188529 0.00140704 7.45227e-29)
(0.0182671 0.00127446 6.76128e-29)
(0.0177301 0.00115872 -9.19492e-29)
(0.017236 0.00105751 -2.7743e-29)
(0.0167796 0.000968646 2.62273e-29)
(0.0163568 0.000890094 -4.75614e-29)
(0.0159638 0.000820131 2.15768e-29)
(0.0155978 0.000757364 0)
(0.0152562 0.000700699 -1.84728e-29)
(0.014937 0.00064928 -5.21136e-29)
(0.0146383 0.00060243 0)
(0.0143584 0.000559602 0)
(0.014096 0.000520345 0)
(0.0138498 0.00048428 -1.28453e-29)
(0.0136184 0.000451083 0)
(0.013401 0.000420475 -2.30036e-29)
(0.0131965 0.000392214 0)
(0.0130039 0.000366083 -2.01541e-29)
(0.0128226 0.000341894 0)
(0.0126517 0.000319475 1.77113e-29)
(0.0124906 0.000298675 0)
(0.0123387 0.000279354 -1.56075e-29)
(0.0121953 0.000261389 2.17099e-29)
(0.0120599 0.000244668 0)
(0.0119321 0.000229088 1.29704e-29)
(0.0118114 0.000214558 -5.82505e-30)
(0.0116973 0.000200994 -5.47173e-30)
(0.0115895 0.000188321 0)
(0.0114876 0.00017647 1.5041e-29)
(0.0113912 0.00016538 -4.54391e-30)
(0.0113002 0.000154995 0)
(0.0112141 0.000145263 4.01973e-30)
(0.0111328 0.00013614 8.08959e-30)
(0.0110558 0.000127582 0)
(0.0109831 0.00011955 -3.34961e-30)
(0.0109144 0.000112011 0)
(0.0108495 0.000104932 -3.48087e-30)
(0.0107881 9.82827e-05 0)
(0.0107302 9.20362e-05 3.13907e-30)
(0.0106754 8.61675e-05 -2.47942e-30)
(0.0106238 8.06532e-05 -7.50859e-30)
(0.010575 7.54716e-05 -1.4202e-29)
(0.0105289 7.06029e-05 1.3436e-29)
(0.0104855 6.60282e-05 0)
(0.0104445 6.17302e-05 0)
(0.0104058 5.76926e-05 0)
(0.0103694 5.39002e-05 -4.25546e-30)
(0.0103351 5.03387e-05 3.09046e-30)
(0.0103028 4.69948e-05 -2.91605e-30)
(0.0102724 4.38558e-05 0)
(0.0102437 4.091e-05 8.76344e-30)
(0.0102168 3.81462e-05 2.45453e-30)
(0.0101914 3.5554e-05 2.31932e-30)
(0.0101676 3.31234e-05 0)
(0.0101452 3.08452e-05 0)
(0.0101242 2.87105e-05 0)
(0.0101045 2.67111e-05 1.85805e-30)
(0.010086 2.48391e-05 0)
(0.0100686 2.30871e-05 4.28883e-30)
(0.0100523 2.1448e-05 2.5328e-30)
(0.0100371 1.99153e-05 -3.95493e-30)
(0.0100228 1.84827e-05 0)
(0.0100094 1.71442e-05 -5.02214e-30)
(0.00999689 1.58942e-05 0)
(0.0099852 1.47275e-05 -3.40874e-30)
(0.00997427 1.36391e-05 4.47022e-30)
(0.00996406 1.26241e-05 4.3104e-30)
(0.00995453 1.16782e-05 0)
(0.00994564 1.0797e-05 1.96704e-30)
(0.00993734 9.97665e-06 -2.90846e-30)
(0.00992962 9.21328e-06 9.45177e-31)
(0.00992242 8.50333e-06 0)
(0.00991572 7.84345e-06 8.73705e-31)
(0.00990948 7.23045e-06 -1.77754e-30)
(0.00990368 6.66133e-06 0)
(0.0098983 6.13325e-06 -2.50369e-30)
(0.0098933 5.64356e-06 -2.45212e-30)
(0.00988865 5.18972e-06 -2.40431e-30)
(0.00988435 4.76938e-06 0)
(0.00988035 4.3803e-06 0)
(0.00987665 4.02039e-06 0)
(0.00987323 3.68768e-06 2.90294e-30)
(0.00987006 3.3803e-06 -6.40805e-31)
(0.00986713 3.09652e-06 0)
(0.00986443 2.83471e-06 2.15623e-30)
(0.00986193 2.59333e-06 2.13081e-30)
(0.00985962 2.37094e-06 0)
(0.00985749 2.1662e-06 -1.15489e-30)
(0.00985553 1.97785e-06 4.13192e-30)
(0.00985373 1.80472e-06 1.11716e-30)
(0.00985206 1.64571e-06 -5.16248e-30)
(0.00985053 1.4998e-06 0)
(0.00984913 1.36603e-06 0)
(0.00984784 1.24352e-06 0)
(0.00984665 1.13146e-06 1.04688e-30)
(0.00984556 1.02908e-06 4.96814e-30)
(0.00984456 9.35704e-07 3.91226e-30)
(0.00984364 8.50687e-07 1.01756e-30)
(0.0098428 7.73458e-07 4.88754e-30)
(0.00984203 7.035e-07 -1.00219e-30)
(0.00984132 6.40359e-07 0)
(0.00984067 5.83642e-07 0)
(0.00984007 5.33019e-07 -4.81168e-30)
(0.00983951 4.88233e-07 0)
(0.009839 4.49103e-07 0)
(0.00983852 4.15534e-07 3.80241e-30)
(0.00983807 3.87533e-07 0)
(0.00983765 3.65219e-07 4.75848e-30)
(0.00983725 3.48853e-07 9.65071e-31)
(0.00983685 3.38863e-07 0)
(0.00983646 3.35882e-07 4.74882e-30)
(0.00983607 3.40797e-07 0)
(0.00983566 3.54812e-07 0)
(0.00983522 3.79537e-07 9.68054e-31)
(0.00983475 4.17088e-07 3.80131e-30)
(0.00983421 4.70237e-07 9.77338e-31)
(0.00983359 5.42594e-07 0)
(0.00983287 6.38863e-07 0)
(0.00983199 7.65169e-07 4.87987e-30)
(0.00983093 9.2951e-07 0)
(0.00982962 1.14237e-06 4.99576e-30)
(0.00982799 1.41756e-06 0)
(0.00982593 1.77339e-06 0)
(0.00982333 2.23441e-06 0)
(0.00982 2.83379e-06 -1.22038e-30)
(0.00981573 3.61711e-06 0)
(0.0098102 4.64805e-06 1.40704e-30)
(0.00980301 6.01756e-06 0)
(0.00979357 7.8593e-06 0)
(0.00978105 1.03768e-05 5.84065e-30)
(0.00976426 1.38947e-05 -6.56178e-30)
(0.00974138 1.89624e-05 0)
(0.0097095 2.65871e-05 0)
(0.0096637 3.88241e-05 0)
(0.00959489 6.05375e-05 1.79555e-29)
(0.00948558 0.000105834 0)
(0.00931313 0.00022786 -1.01277e-28)
(7.11343e-06 -6.1816e-05 3.19496e-30)
(2.13825e-05 -6.17096e-05 -5.08139e-34)
(3.5716e-05 -6.1618e-05 0)
(5.01056e-05 -6.15422e-05 1.18626e-33)
(6.45544e-05 -6.15012e-05 0)
(7.90186e-05 -6.14589e-05 0)
(9.33545e-05 -6.13626e-05 -3.16134e-30)
(0.000107347 -6.11713e-05 -1.57617e-30)
(0.000120762 -6.08657e-05 1.56478e-30)
(0.000133384 -6.04457e-05 -1.55618e-30)
(0.000145038 -5.99264e-05 0)
(0.000155606 -5.93373e-05 0)
(0.000165054 -5.87263e-05 -1.50634e-30)
(0.000173468 -5.81601e-05 -2.98222e-30)
(0.000181066 -5.77235e-05 2.95857e-30)
(0.00018819 -5.75168e-05 0)
(0.000195258 -5.76497e-05 2.95275e-30)
(0.000202716 -5.82333e-05 1.49572e-30)
(0.000211002 -5.93782e-05 0)
(0.000220536 -6.12036e-05 3.1329e-30)
(0.000231721 -6.38591e-05 -1.63978e-30)
(0.00024495 -6.755e-05 -3.45754e-30)
(0.000260623 -7.25626e-05 1.86339e-30)
(0.000279168 -7.93021e-05 0)
(0.000301087 -8.83567e-05 4.52527e-30)
(0.000326879 -0.000100574 5.15324e-30)
(0.000356859 -0.000117185 0)
(0.000391272 -0.000140062 7.18559e-30)
(0.000430179 -0.000172015 0)
(0.000472824 -0.000217155 1.11596e-29)
(0.00051715 -0.000281216 -7.24482e-30)
(0.0005604 -0.00037103 0)
(0.000605505 -0.000487548 0)
(0.000638795 -0.000718601 0)
(0.00090406 -0.000790364 0)
(0.005083 -0.00273639 0)
(0.0130091 0.00188936 0)
(0.0197212 -0.000224803 8.82837e-30)
(0.0220422 0.00393594 1.03823e-28)
(0.0212749 0.00348813 0)
(0.0205192 0.00316061 0)
(0.0198089 0.00280672 0)
(0.0191675 0.00253247 2.66376e-28)
(0.0185733 0.00229314 1.20306e-28)
(0.0180251 0.00208065 -8.50899e-31)
(0.0175204 0.00189437 8.27077e-31)
(0.0170538 0.00173174 9.19444e-29)
(0.0166205 0.00158903 8.37203e-29)
(0.0162168 0.00146263 -1.55061e-28)
(0.0158396 0.00134964 -7.20183e-29)
(0.0154869 0.00124785 0)
(0.0151567 0.0011556 -6.189e-29)
(0.0148472 0.00107164 -1.1431e-28)
(0.014557 0.000994946 0)
(0.0142847 0.00092471 0)
(0.0140289 0.000860235 4.64602e-29)
(0.0137885 0.000800933 0)
(0.0135625 0.000746295 0)
(0.0133498 0.000695879 -1.12971e-28)
(0.0131496 0.000649296 -7.08608e-29)
(0.0129609 0.000606201 -3.25638e-29)
(0.0127831 0.000566287 0)
(0.0126154 0.000529279 2.85544e-29)
(0.0124572 0.000494928 0)
(0.0123079 0.000463009 -7.64601e-29)
(0.0121669 0.00043332 2.35511e-29)
(0.0120337 0.000405675 4.5355e-29)
(0.0119079 0.000379909 6.34205e-29)
(0.0117889 0.000355871 0)
(0.0116765 0.000333424 -3.77832e-29)
(0.0115702 0.000312445 0)
(0.0114697 0.000292822 -1.73048e-29)
(0.0113747 0.000274454 -3.16003e-29)
(0.0112848 0.000257248 -2.97958e-29)
(0.0111998 0.000241122 2.81043e-29)
(0.0111195 0.000225999 -1.3784e-29)
(0.0110435 0.00021181 0)