/*--------------------------------*- C++ -*----------------------------------*\
  =========                 |
  \\      /  F ield         | OpenFOAM: The Open Source CFD Toolbox
   \\    /   O peration     | Website:  https://openfoam.org
    \\  /    A nd           | Version:  10
     \\/     M anipulation  |
\*---------------------------------------------------------------------------*/
FoamFile
{
    format      ascii;
    class       volVectorField;
    location    "0.39";
    object      Ua;
}
// * * * * * * * * * * * * * * * * * * * * * * * * * * * * * * * * * * * * * //

dimensions      [0 1 -1 0 0 0 0];

internalField   nonuniform List<vector> 
12225
(
(0.000129706 -1.42041e-05 0)
(0.000379695 -1.31803e-05 0)
(0.000607884 -1.13319e-05 0)
(0.000811065 -9.23697e-06 0)
(0.000990227 -7.28146e-06 0)
(0.00114833 -5.65529e-06 0)
(0.00128871 -4.42235e-06 0)
(0.00141435 -3.58774e-06 0)
(0.00152778 -3.14409e-06 0)
(0.0016313 -3.10252e-06 0)
(0.00172779 -3.52152e-06 0)
(0.00182212 -4.55314e-06 0)
(0.0019248 -6.53872e-06 0)
(0.00206303 -1.02689e-05 0)
(0.00233284 -1.81049e-05 0)
(0.00347227 -4.54211e-05 0)
(0.0203828 -0.00300512 0)
(0.0395273 -0.00126145 0)
(7.7588e-05 -3.75688e-05 0)
(0.000227855 -3.50915e-05 0)
(0.000366141 -3.03912e-05 0)
(0.000489757 -2.49589e-05 0)
(0.000598769 -1.98201e-05 0)
(0.000694907 -1.54987e-05 0)
(0.000780679 -1.21847e-05 0)
(0.000858907 -9.90595e-06 0)
(0.000932647 -8.65222e-06 0)
(0.00100541 -8.46039e-06 0)
(0.00108171 -9.49559e-06 0)
(0.00116835 -1.21793e-05 0)
(0.00127754 -1.74568e-05 0)
(0.00143602 -2.75238e-05 0)
(0.00172578 -4.88314e-05 0)
(0.00265359 -0.000120352 0)
(0.0136135 -0.00661419 0)
(0.0278493 -0.00419057 0)
(6.14943e-05 -5.32885e-05 0)
(0.000181677 -5.02546e-05 0)
(0.000294534 -4.3963e-05 0)
(0.000397719 -3.64548e-05 0)
(0.000490839 -2.92002e-05 0)
(0.000574915 -2.29926e-05 0)
(0.000651813 -1.815e-05 0)
(0.000723891 -1.47483e-05 0)
(0.000793895 -1.27981e-05 0)
(0.000865109 -1.2374e-05 0)
(0.000941815 -1.37392e-05 0)
(0.00103047 -1.75402e-05 0)
(0.00114263 -2.52183e-05 0)
(0.00130343 -4.01199e-05 0)
(0.0015883 -7.18736e-05 0)
(0.00243696 -0.000173599 0)
(0.0121955 -0.00733784 0)
(0.0234892 -0.0067627 0)
(5.14237e-05 -6.46209e-05 0)
(0.000152837 -6.15483e-05 0)
(0.000250002 -5.43801e-05 0)
(0.000340866 -4.55078e-05 0)
(0.000424761 -3.67361e-05 0)
(0.000502195 -2.90921e-05 0)
(0.000574518 -2.30269e-05 0)
(0.000643656 -1.86835e-05 0)
(0.000712023 -1.61131e-05 0)
(0.000782623 -1.54405e-05 0)
(0.000859464 -1.70259e-05 0)
(0.000948624 -2.17155e-05 0)
(0.00106096 -3.13758e-05 0)
(0.00121992 -5.03246e-05 0)
(0.00149455 -9.08141e-05 0)
(0.0022686 -0.000216335 0)
(0.011145 -0.00723212 0)
(0.020729 -0.00811618 0)
(4.40096e-05 -7.25268e-05 0)
(0.00013157 -6.97851e-05 0)
(0.000217101 -6.22598e-05 0)
(0.000298829 -5.2555e-05 0)
(0.000375944 -4.2726e-05 0)
(0.000448602 -3.4e-05 0)
(0.000517747 -2.6959e-05 0)
(0.000584934 -2.18243e-05 0)
(0.000652259 -1.86999e-05 0)
(0.000722445 -1.77659e-05 0)
(0.000799202 -1.94696e-05 0)
(0.000888184 -2.48176e-05 0)
(0.000999444 -3.60003e-05 0)
(0.00115449 -5.80562e-05 0)
(0.00141552 -0.00010518 0)
(0.00211297 -0.00024783 0)
(0.0101077 -0.00648689 0)
(0.018652 -0.00878572 0)
(3.81604e-05 -7.75143e-05 0)
(0.00011474 -7.53801e-05 0)
(0.000190948 -6.78957e-05 0)
(0.000265272 -5.77804e-05 0)
(0.000336859 -4.72721e-05 0)
(0.000405632 -3.77645e-05 0)
(0.000472223 -2.99623e-05 0)
(0.000537869 -2.41688e-05 0)
(0.000604371 -2.05464e-05 0)
(0.000674171 -1.93291e-05 0)
(0.000750665 -2.10332e-05 0)
(0.000839035 -2.67714e-05 0)
(0.00094844 -3.89203e-05 0)
(0.00109821 -6.28883e-05 0)
(0.00134309 -0.000113789 0)
(0.00196054 -0.00026402 0)
(0.00895704 -0.00523794 0)
(0.0168345 -0.00914052 0)
(3.33675e-05 -7.99014e-05 0)
(0.000100897 -7.85815e-05 0)
(0.000169307 -7.14444e-05 0)
(0.000237333 -6.12592e-05 0)
(0.000304151 -5.03907e-05 0)
(0.00036954 -4.03649e-05 0)
(0.000433896 -3.19946e-05 0)
(0.000498187 -2.56623e-05 0)
(0.000563939 -2.15887e-05 0)
(0.000633317 -2.00549e-05 0)
(0.000709387 -2.16205e-05 0)
(0.000796835 -2.74375e-05 0)
(0.000903876 -3.98984e-05 0)
(0.00104757 -6.43358e-05 0)
(0.00127503 -0.000115351 0)
(0.0018133 -0.000259985 0)
(0.00770548 -0.00374749 0)
(0.0151454 -0.00937635 0)
(2.9346e-05 -7.99144e-05 0)
(8.92314e-05 -7.95568e-05 0)
(0.000150945 -7.29951e-05 0)
(0.000213453 -6.3012e-05 0)
(0.00027601 -5.20536e-05 0)
(0.000338328 -4.17428e-05 0)
(0.000400628 -3.29805e-05 0)
(0.00046365 -2.62199e-05 0)
(0.000528667 -2.17341e-05 0)
(0.000597567 -1.984e-05 0)
(0.000673086 -2.11106e-05 0)
(0.000759417 -2.66633e-05 0)
(0.000863859 -3.87268e-05 0)
(0.00100136 -6.20833e-05 0)
(0.00121228 -0.000109287 0)
(0.00168209 -0.000234694 0)
(0.00648983 -0.00237871 0)
(0.0136581 -0.00951491 0)
(2.59164e-05 -7.77373e-05 0)
(7.9235e-05 -7.84334e-05 0)
(0.000135089 -7.26028e-05 0)
(0.000192663 -6.30309e-05 0)
(0.000251333 -5.22086e-05 0)
(0.000310796 -4.18187e-05 0)
(0.000371152 -3.28251e-05 0)
(0.000432947 -2.57373e-05 0)
(0.000497225 -2.08714e-05 0)
(0.000565607 -1.85654e-05 0)
(0.000640508 -1.93749e-05 0)
(0.000725662 -2.43147e-05 0)
(0.000827569 -3.52945e-05 0)
(0.000959501 -5.61699e-05 0)
(0.00115686 -9.63905e-05 0)
(0.00157692 -0.000194044 0)
(0.00545868 -0.00137882 0)
(0.0124891 -0.00946228 0)
(2.29542e-05 -7.35401e-05 0)
(7.05537e-05 -7.53216e-05 0)
(0.000121205 -7.03062e-05 0)
(0.000174303 -6.12951e-05 0)
(0.000229377 -5.07928e-05 0)
(0.000286155 -4.05031e-05 0)
(0.000344649 -3.14229e-05 0)
(0.00040525 -2.40995e-05 0)
(0.000468789 -1.88788e-05 0)
(0.000536641 -1.61046e-05 0)
(0.000610921 -1.62884e-05 0)
(0.000694971 -2.02924e-05 0)
(0.000794681 -2.96147e-05 0)
(0.000922211 -4.70208e-05 0)
(0.00111003 -7.86778e-05 0)
(0.00149869 -0.00014784 0)
(0.0046669 -0.000762989 0)
(0.0116659 -0.00912821 0)
(2.03643e-05 -6.74995e-05 0)
(6.29152e-05 -7.03281e-05 0)
(0.000108881 -6.61386e-05 0)
(0.000157874 -5.77808e-05 0)
(0.0002096 -4.77421e-05 0)
(0.000263841 -3.77053e-05 0)
(0.000320559 -2.86662e-05 0)
(0.000380007 -2.11876e-05 0)
(0.00044283 -1.56298e-05 0)
(0.00051018 -1.23289e-05 0)
(0.000583908 -1.1734e-05 0)
(0.000667039 -1.45317e-05 0)
(0.000765047 -2.17962e-05 0)
(0.000889491 -3.52808e-05 0)
(0.00107136 -5.84581e-05 0)
(0.00144118 -0.00010403 0)
(0.00408712 -0.000418388 0)
(0.0111308 -0.00850535 0)
(1.78459e-05 -6.04138e-05 0)
(5.55179e-05 -6.41275e-05 0)
(9.70275e-05 -6.06729e-05 0)
(0.000142188 -5.29712e-05 0)
(0.000190839 -4.34646e-05 0)
(0.000242791 -3.37775e-05 0)
(0.00029794 -2.48743e-05 0)
(0.000356411 -1.73119e-05 0)
(0.000418683 -1.14518e-05 0)
(0.000485712 -7.61366e-06 0)
(0.000559134 -6.18391e-06 0)
(0.000641735 -7.69331e-06 0)
(0.000738731 -1.28765e-05 0)
(0.000861359 -2.27613e-05 0)
(0.00103972 -3.91181e-05 0)
(0.00139678 -6.86054e-05 0)
(0.00365862 -0.000235984 0)
(0.0107371 -0.00771285 0)
(1.61685e-05 -5.21534e-05 0)
(5.04766e-05 -5.65518e-05 0)
(8.87145e-05 -5.37144e-05 0)
(0.000130919 -4.66542e-05 0)
(0.000177105 -3.77325e-05 0)
(0.000227165 -2.84751e-05 0)
(0.000280989 -1.97802e-05 0)
(0.00033863 -1.21771e-05 0)
(0.000400451 -6.01275e-06 0)
(0.000467249 -1.53852e-06 0)
(0.000540492 8.74843e-07 0)
(0.000622856 7.70487e-07 0)
(0.000719444 -2.32373e-06 0)
(0.000841348 -8.96707e-06 0)
(0.0010183 -1.99937e-05 0)
(0.00136891 -3.89971e-05 0)
(0.00341043 -0.000132243 0)
(0.0105792 -0.00678845 0)
(1.44291e-05 -4.18396e-05 0)
(4.51672e-05 -4.66056e-05 0)
(7.98564e-05 -4.42273e-05 0)
(0.000118871 -3.78089e-05 0)
(0.000162419 -2.95528e-05 0)
(0.000210466 -2.08301e-05 0)
(0.000262881 -1.24088e-05 0)
(0.00031964 -4.77919e-06 0)
(0.000380847 1.96126e-06 0)
(0.000447183 7.29903e-06 0)
(0.000520207 1.09474e-05 0)
(0.000602441 1.25895e-05 0)
(0.000698781 1.19547e-05 0)
(0.000820194 8.75748e-06 0)
(0.000995946 2.59217e-06 0)
(0.0013402 -8.3941e-06 0)
(0.00320454 -5.52495e-05 0)
(0.0104572 -0.00570985 0)
(1.25102e-05 -2.95311e-05 0)
(3.92571e-05 -3.38815e-05 0)
(7.0014e-05 -3.16357e-05 0)
(0.00010565 -2.58143e-05 0)
(0.000146486 -1.8247e-05 0)
(0.000192515 -1.01581e-05 0)
(0.000243367 -1.88295e-06 0)
(0.000298736 6.07885e-06 0)
(0.000359131 1.34599e-05 0)
(0.000425364 1.9797e-05 0)
(0.000498524 2.49473e-05 0)
(0.000580882 2.87786e-05 0)
(0.000677152 3.1168e-05 0)
(0.000798005 3.1993e-05 0)
(0.000971939 3.10541e-05 0)
(0.00130926 2.79668e-05 0)
(0.00306733 2.20131e-05 0)
(0.0103714 -0.0046048 0)
(9.93699e-06 -1.55184e-05 0)
(3.15438e-05 -1.79234e-05 0)
(5.77508e-05 -1.53904e-05 0)
(9.00411e-05 -1.02328e-05 0)
(0.000128032 -2.97741e-06 0)
(0.000171221 4.84555e-06 0)
(0.000220124 1.30115e-05 0)
(0.00027497 2.12526e-05 0)
(0.000335652 2.91897e-05 0)
(0.000402396 3.67448e-05 0)
(0.000476179 4.38651e-05 0)
(0.000559158 5.05615e-05 0)
(0.000655843 5.69721e-05 0)
(0.000776455 6.34716e-05 0)
(0.000948521 7.09887e-05 0)
(0.00128121 8.34698e-05 0)
(0.00309999 0.000163629 0)
(0.0104446 -0.00391301 0)
(4.99918e-06 2.64672e-07 0)
(1.74487e-05 2.1146e-06 0)
(3.64323e-05 5.34437e-06 0)
(6.36514e-05 9.91787e-06 0)
(9.9263e-05 1.64539e-05 0)
(0.000142621 2.38709e-05 0)
(0.000192559 3.18478e-05 0)
(0.000248475 4.03366e-05 0)
(0.000310247 4.92793e-05 0)
(0.000378232 5.86583e-05 0)
(0.000453484 6.85436e-05 0)
(0.000538259 7.9203e-05 0)
(0.000637256 9.13849e-05 0)
(0.000761041 0.000107098 0)
(0.000938069 0.000132357 0)
(0.00128674 0.000193686 0)
(0.00369291 0.000787364 0)
(0.0111098 -0.00516141 0)
(1.16568e-05 1.98237e-05 0)
(3.56503e-05 2.76237e-05 0)
(6.21331e-05 3.29905e-05 0)
(9.30079e-05 3.79756e-05 0)
(0.000129471 4.37313e-05 0)
(0.000172016 5.05182e-05 0)
(0.000220677 5.84621e-05 0)
(0.000275407 6.76515e-05 0)
(0.000336326 7.8166e-05 0)
(0.000403968 9.0112e-05 0)
(0.000479658 0.000103695 0)
(0.000566304 0.000119383 0)
(0.000670445 0.000138312 0)
(0.00080829 0.000163439 0)
(0.00102953 0.000204213 0)
(0.00159233 0.000311271 0)
(0.00832982 0.00304343 0)
(0.0159432 -0.00759342 0)
(1.60542e-05 4.76614e-05 0)
(4.93495e-05 5.98279e-05 0)
(8.5294e-05 6.80314e-05 0)
(0.000124581 7.44045e-05 0)
(0.000167985 8.06068e-05 0)
(0.000216091 8.77124e-05 0)
(0.000269275 9.6445e-05 0)
(0.000327858 0.000107321 0)
(0.000392314 0.000120739 0)
(0.000463582 0.000137083 0)
(0.000543595 0.000156921 0)
(0.000636413 0.000181483 0)
(0.000751284 0.000213926 0)
(0.00091311 0.00026331 0)
(0.0012221 0.000366319 0)
(0.00298117 0.00102891 0)
(0.0114099 0.000547338 0)
(0.0182593 -0.00852419 0)
(1.80477e-05 7.80553e-05 0)
(5.60191e-05 9.08972e-05 0)
(9.77299e-05 0.000100091 0)
(0.000143318 0.000107236 0)
(0.000193123 0.000114074 0)
(0.000247497 0.000122091 0)
(0.000306759 0.000132499 0)
(0.00037129 0.000146277 0)
(0.000441771 0.000164231 0)
(0.000519706 0.000187107 0)
(0.000608549 0.000215956 0)
(0.000716538 0.000253258 0)
(0.000864984 0.000306654 0)
(0.00112583 0.000406384 0)
(0.00204481 0.000794249 0)
(0.0100111 0.00285489 0)
(0.0185003 -0.00622853 0)
(0.0196522 -0.00817716 0)
(2.12802e-05 0.000102854 0)
(6.58051e-05 0.000114204 0)
(0.000114284 0.000122623 0)
(0.000166829 0.000129444 0)
(0.000223677 0.000136445 0)
(0.000285138 0.00014539 0)
(0.000351574 0.000157922 0)
(0.000423472 0.000175549 0)
(0.000501742 0.000199653 0)
(0.000588524 0.000231582 0)
(0.000689374 0.000273143 0)
(0.000819821 0.000328287 0)
(0.00103207 0.000409928 0)
(0.00162085 0.000594051 0)
(0.00853788 0.00463266 0)
(0.0186919 -0.0014836 0)
(0.0219082 -0.00793796 0)
(0.0211198 -0.00734422 0)
(2.52992e-05 0.000121541 0)
(7.77598e-05 0.000130871 0)
(0.000134064 0.000137864 0)
(0.000194454 0.000143856 0)
(0.000259247 0.000150745 0)
(0.000328894 0.000160618 0)
(0.000403969 0.000175668 0)
(0.000485231 0.000198222 0)
(0.000573983 0.000230804 0)
(0.000673259 0.000276475 0)
(0.000791223 0.000340497 0)
(0.000952648 0.000437658 0)
(0.00127021 0.000636665 0)
(0.00398205 0.00261503 0)
(0.0144741 0.00182814 0)
(0.0224579 -0.00694629 0)
(0.0222244 -0.00676529 0)
(0.0217624 -0.0063641 0)
(3.01399e-05 0.000133007 0)
(9.20662e-05 0.000140258 0)
(0.00015748 0.000145584 0)
(0.000226792 0.000150465 0)
(0.000300553 0.000156982 0)
(0.000379577 0.000167585 0)
(0.000464952 0.000185169 0)
(0.00055813 0.000213276 0)
(0.000661527 0.000256433 0)
(0.000781035 0.000321099 0)
(0.000935028 0.000420456 0)
(0.00119647 0.000605316 0)
(0.00222993 0.00142802 0)
(0.0117193 0.00404031 0)
(0.0218237 -0.0063398 0)
(0.0232155 -0.00681091 0)
(0.0229122 -0.00613708 0)
(0.0224325 -0.00560245 0)
(3.58545e-05 0.000137054 0)
(0.000108895 0.000142348 0)
(0.000184828 0.000145991 0)
(0.000264224 0.000149627 0)
(0.000347993 0.0001555 0)
(0.000437564 0.000166409 0)
(0.000534964 0.000186026 0)
(0.000642994 0.000219525 0)
(0.000766208 0.000274577 0)
(0.000915838 0.000363417 0)
(0.00113584 0.000512752 0)
(0.00173103 0.000844515 0)
(0.008812 0.00742343 0)
(0.0209191 -0.0018057 0)
(0.0257189 -0.00742547 0)
(0.0246124 -0.00622807 0)
(0.0238305 -0.00542027 0)
(0.0231358 -0.00482925 0)
(4.25675e-05 0.000133997 0)
(0.000128601 0.000137544 0)
(0.000216649 0.000139628 0)
(0.00030741 0.000141993 0)
(0.000402249 0.000146963 0)
(0.000503468 0.00015757 0)
(0.000614573 0.000178199 0)
(0.000740734 0.000215954 0)
(0.000890218 0.000283184 0)
(0.00108214 0.000403519 0)
(0.00139265 0.000649792 0)
(0.00261612 0.00217309 0)
(0.0154396 0.0072388 0)
(0.0271362 -0.00707523 0)
(0.0265132 -0.00619807 0)
(0.0254981 -0.00526867 0)
(0.0245586 -0.00454587 0)
(0.0237182 -0.0039999 0)
(5.0557e-05 0.000124377 0)
(0.000151981 0.000126441 0)
(0.000254178 0.000127191 0)
(0.000357918 0.000128371 0)
(0.000465087 0.000132249 0)
(0.000579097 0.000141885 0)
(0.000705558 0.000162113 0)
(0.0008535 0.000201868 0)
(0.00103849 0.000279473 0)
(0.00130364 0.000436006 0)
(0.00198281 0.000801246 0)
(0.00965748 0.00970882 0)
(0.0231359 -0.0029376 0)
(0.0287925 -0.00645824 0)
(0.0274761 -0.00517768 0)
(0.0262359 -0.00428091 0)
(0.0251313 -0.00363632 0)
(0.0241675 -0.00316366 0)
(6.04536e-05 0.000108745 0)
(0.000180865 0.000109635 0)
(0.0003003 0.000109366 0)
(0.000419524 0.000109563 0)
(0.000540979 0.000112283 0)
(0.000669398 0.000120363 0)
(0.000813096 0.000138621 0)
(0.000986706 0.000177127 0)
(0.00121702 0.000260981 0)
(0.00156342 0.000466732 0)
(0.00250467 0.00123373 0)
(0.0169111 0.0125066 0)
(0.0306486 -0.00759509 0)
(0.0299012 -0.00538367 0)
(0.028298 -0.00407824 0)
(0.026818 -0.00327118 0)
(0.0255573 -0.00273346 0)
(0.0244908 -0.00235457 0)
(7.39386e-05 8.74902e-05 0)
(0.000220146 8.75559e-05 0)
(0.000362781 8.66577e-05 0)
(0.000502463 8.61753e-05 0)
(0.000642221 8.78108e-05 0)
(0.000788306 9.39295e-05 0)
(0.000952274 0.000108741 0)
(0.00115666 0.000142007 0)
(0.00145231 0.000223457 0)
(0.00197914 0.000486554 0)
(0.00380755 0.00360779 0)
(0.0205756 0.00283507 0)
(0.0341636 -0.00666177 0)
(0.0312102 -0.00408517 0)
(0.0289829 -0.00290802 0)
(0.0272405 -0.00226677 0)
(0.0258465 -0.00186781 0)
(0.024703 -0.00159658 0)
(9.79185e-05 6.06018e-05 0)
(0.00028981 6.02053e-05 0)
(0.000472997 5.90921e-05 0)
(0.00064754 5.82803e-05 0)
(0.000817116 5.89912e-05 0)
(0.000989835 6.28891e-05 0)
(0.00118114 7.29902e-05 0)
(0.00142399 9.67297e-05 0)
(0.0018112 0.000159685 0)
(0.00281419 0.000402271 0)
(0.0120942 0.010976 0)
(0.0295284 -0.00733023 0)
(0.0360929 -0.00452391 0)
(0.0321452 -0.00250829 0)
(0.0294348 -0.00170661 0)
(0.027498 -0.00130391 0)
(0.0260148 -0.00106442 0)
(0.0248234 -0.000905425 0)
(0.000250762 2.29062e-05 0)
(0.000735642 2.26365e-05 0)
(0.00118354 2.2077e-05 0)
(0.00158843 2.16323e-05 0)
(0.00194759 2.17781e-05 0)
(0.0022639 2.31442e-05 0)
(0.0025529 2.68718e-05 0)
(0.00286582 3.58287e-05 0)
(0.00339256 6.02022e-05 0)
(0.00566839 0.000158115 0)
(0.0386054 0.00816927 0)
(0.0559585 -0.00568652 0)
(0.0384202 -0.00167852 0)
(0.0326847 -0.000839025 0)
(0.0296453 -0.000554213 0)
(0.0276098 -0.000419026 0)
(0.0260857 -0.000340529 0)
(0.0248735 -0.000289014 0)
(0.000102118 -0.000218273 -2.81991e-30)
(0.000307173 -0.000217941 2.8132e-30)
(0.000513481 -0.000217367 0)
(0.000720818 -0.000216548 0)
(0.00092895 -0.000215483 0)
(0.00113764 -0.000214172 -2.75468e-30)
(0.00134664 -0.000212618 0)
(0.00155571 -0.000210824 0)
(0.00176459 -0.000208794 0)
(0.00197304 -0.000206534 0)
(0.00218081 -0.000204053 2.61158e-30)
(0.00238765 -0.000201359 0)
(0.00259332 -0.000198462 0)
(0.00279758 -0.000195373 0)
(0.0030002 -0.000192104 0)
(0.00320096 -0.000188669 2.4007e-30)
(0.00339965 -0.00018508 0)
(0.00359605 -0.000181351 0)
(0.00378998 -0.000177498 0)
(0.00398126 -0.000173534 0)
(0.00416971 -0.000169474 0)
(0.00435518 -0.000165333 0)
(0.00453752 -0.000161125 0)
(0.0047166 -0.000156864 1.97174e-30)
(0.00489231 -0.000152564 -1.91409e-30)
(0.00506454 -0.000148238 1.85614e-30)
(0.00523319 -0.000143898 1.79806e-30)
(0.00539819 -0.000139556 0)
(0.00555947 -0.000135224 0)
(0.00571698 -0.000130913 -1.62452e-30)
(0.00587067 -0.000126631 -1.56737e-30)
(0.00602051 -0.000122389 0)
(0.00616648 -0.000118193 0)
(0.00630856 -0.000114053 -1.39963e-30)
(0.00644676 -0.000109975 0)
(0.00658108 -0.000105964 0)
(0.00671154 -0.000102026 1.23943e-30)
(0.00683816 -9.81665e-05 0)
(0.00696096 -9.43886e-05 1.13777e-30)
(0.00707998 -9.0696e-05 2.17728e-30)
(0.00719527 -8.70917e-05 0)
(0.00730688 -8.35779e-05 0)
(0.00741484 -8.01566e-05 0)
(0.00751922 -7.6829e-05 0)
(0.00762008 -7.35962e-05 0)
(0.00771747 -7.04588e-05 1.63911e-30)
(0.00781148 -6.7417e-05 1.55826e-30)
(0.00790215 -6.44706e-05 1.47996e-30)
(0.00798957 -6.16193e-05 0)
(0.0080738 -5.88624e-05 -1.33094e-30)
(0.00815492 -5.6199e-05 0)
(0.00823301 -5.36282e-05 1.19188e-30)
(0.00830813 -5.11485e-05 1.12601e-30)
(0.00838036 -4.87586e-05 0)
(0.00844978 -4.64569e-05 0)
(0.00851647 -4.42417e-05 0)
(0.0085805 -4.21113e-05 8.85973e-31)
(0.00864195 -4.00637e-05 0)
(0.00870089 -3.8097e-05 0)
(0.0087574 -3.62093e-05 0)
(0.00881155 -3.43984e-05 0)
(0.00886341 -3.26624e-05 0)
(0.00891307 -3.09991e-05 0)
(0.00896059 -2.94064e-05 0)
(0.00900603 -2.78822e-05 0)
(0.00904948 -2.64244e-05 -4.69403e-31)
(0.009091 -2.50308e-05 0)
(0.00913065 -2.36995e-05 0)
(0.00916851 -2.24282e-05 3.63295e-31)
(0.00920463 -2.1215e-05 3.31077e-31)
(0.00923908 -2.00578e-05 0)
(0.00927193 -1.89546e-05 -2.71064e-31)
(0.00930322 -1.79035e-05 2.43153e-31)
(0.00933303 -1.69026e-05 0)
(0.0093614 -1.59499e-05 -1.91278e-31)
(0.0093884 -1.50436e-05 0)
(0.00941408 -1.41819e-05 0)
(0.00943849 -1.3363e-05 1.22592e-31)
(0.00946168 -1.25853e-05 0)
(0.0094837 -1.18469e-05 -8.23328e-32)
(0.00950461 -1.11464e-05 0)
(0.00952444 -1.0482e-05 4.60874e-32)
(0.00954325 -9.85238e-06 2.93685e-32)
(0.00956107 -9.25589e-06 1.35289e-32)
(0.00957796 -8.69112e-06 -2.93473e-33)
(0.00959395 -8.15667e-06 3.13247e-32)
(0.00960908 -7.65117e-06 0)
(0.0096234 -7.17331e-06 0)
(0.00963693 -6.72182e-06 0)
(0.00964972 -6.29547e-06 1.30176e-31)
(0.0096618 -5.89307e-06 1.51552e-31)
(0.0096732 -5.51349e-06 -1.71712e-31)
(0.00968395 -5.15563e-06 0)
(0.0096941 -4.81842e-06 2.08632e-31)
(0.00970366 -4.50085e-06 2.25506e-31)
(0.00971266 -4.20194e-06 2.41385e-31)
(0.00972114 -3.92074e-06 0)
(0.00972912 -3.65636e-06 0)
(0.00973663 -3.40792e-06 0)
(0.00974368 -3.1746e-06 2.95961e-31)
(0.0097503 -2.9556e-06 0)
(0.00975653 -2.75016e-06 0)
(0.00976236 -2.55754e-06 -3.2874e-31)
(0.00976784 -2.37706e-06 0)
(0.00977297 -2.20804e-06 0)
(0.00977778 -2.04985e-06 -3.55718e-31)
(0.00978228 -1.90188e-06 0)
(0.00978649 -1.76356e-06 0)
(0.00979043 -1.63433e-06 3.77797e-31)
(0.00979412 -1.51366e-06 3.84209e-31)
(0.00979756 -1.40106e-06 0)
(0.00980077 -1.29605e-06 -3.95776e-31)
(0.00980376 -1.19817e-06 0)
(0.00980656 -1.10701e-06 4.0582e-31)
(0.00980916 -1.02215e-06 0)
(0.00981158 -9.43201e-07 4.14529e-31)
(0.00981384 -8.69803e-07 4.18425e-31)
(0.00981594 -8.01607e-07 0)
(0.00981789 -7.38283e-07 0)
(0.0098197 -6.79522e-07 0)
(0.00982138 -6.2503e-07 0)
(0.00982294 -5.74527e-07 0)
(0.00982439 -5.27753e-07 0)
(0.00982573 -4.84459e-07 0)
(0.00982697 -4.44413e-07 4.41042e-31)
(0.00982812 -4.07394e-07 -4.43006e-31)
(0.00982918 -3.73194e-07 0)
(0.00983016 -3.41619e-07 0)
(0.00983107 -3.12483e-07 0)
(0.00983191 -2.85615e-07 0)
(0.00983268 -2.60851e-07 -9.01595e-31)
(0.00983339 -2.38038e-07 0)
(0.00983404 -2.17031e-07 9.06257e-31)
(0.00983464 -1.97693e-07 -9.08314e-31)
(0.00983519 -1.79896e-07 0)
(0.0098357 -1.63519e-07 0)
(0.00983617 -1.48445e-07 0)
(0.00983659 -1.34565e-07 9.15029e-31)
(0.00983698 -1.21774e-07 9.16388e-31)
(0.00983733 -1.0997e-07 0)
(0.00983766 -9.90558e-08 9.18797e-31)
(0.00983795 -8.89339e-08 9.19868e-31)
(0.00983822 -7.95084e-08 -9.20873e-31)
(0.00983845 -7.0682e-08 0)
(0.00983867 -6.23549e-08 0)
(0.00983886 -5.44218e-08 -9.23527e-31)
(0.00983902 -4.67696e-08 0)
(0.00983916 -3.92743e-08 0)
(0.00983928 -3.17965e-08 0)
(0.00983938 -2.41764e-08 0)
(0.00983944 -1.62272e-08 9.2753e-31)
(0.00983948 -7.72675e-09 9.28413e-31)
(0.00983949 1.59271e-09 0)
(0.00983947 1.2058e-08 9.30458e-31)
(0.00983941 2.40722e-08 0)
(0.0098393 3.81368e-08 0)
(0.00983913 5.48797e-08 9.34854e-31)
(0.00983889 7.50932e-08 0)
(0.00983858 9.97816e-08 9.39446e-31)
(0.00983815 1.30225e-07 0)
(0.0098376 1.68064e-07 0)
(0.00983688 2.1541e-07 9.51239e-31)
(0.00983595 2.75001e-07 0)
(0.00983475 3.50402e-07 9.64994e-31)
(0.00983321 4.46292e-07 0)
(0.00983123 5.68865e-07 0)
(0.00982867 7.26398e-07 0)
(0.00982538 9.30088e-07 -1.02405e-30)
(0.00982111 1.1953e-06 0)
(0.00981555 1.54353e-06 1.08655e-30)
(0.00980829 2.00551e-06 0)
(0.00979871 2.62649e-06 0)
(0.00978597 3.47563e-06 0)
(0.00976881 4.66374e-06 0)
(0.00974531 6.37984e-06 0)
(0.00971231 8.97491e-06 0)
(0.00966422 1.3182e-05 0)
(0.00958969 2.08197e-05 -6.11665e-30)
(0.00946009 3.77178e-05 0)
(0.00917287 9.07031e-05 0)
(0.000102624 -0.000655901 8.47366e-30)
(0.00030869 -0.000654896 -8.45338e-30)
(0.000516007 -0.00065316 0)
(0.000724344 -0.000650683 1.67855e-29)
(0.000933461 -0.000647463 0)
(0.00114312 -0.0006435 -8.30355e-30)
(0.00135306 -0.000638801 -1.64487e-29)
(0.00156303 -0.000633376 -1.62986e-29)
(0.00177279 -0.00062724 0)
(0.00198207 -0.000620412 -1.59437e-29)
(0.00219062 -0.000612915 7.89588e-30)
(0.00239819 -0.000604776 0)
(0.00260454 -0.000596027 0)
(0.00280943 -0.000586701 0)
(0.00301262 -0.000576835 0)
(0.00321388 -0.000566468 7.28348e-30)
(0.00341302 -0.000555641 0)
(0.00360981 -0.000544397 1.39019e-29)
(0.00380406 -0.000532779 0)
(0.00399561 -0.000520832 0)
(0.00418426 -0.000508599 -1.29494e-29)
(0.00436989 -0.000496125 0)
(0.00455232 -0.000483453 1.2282e-29)
(0.00473146 -0.000470625 6.02684e-30)
(0.00490716 -0.000457683 -5.85749e-30)
(0.00507934 -0.000444666 5.68721e-30)
(0.0052479 -0.000431611 5.51649e-30)
(0.00541277 -0.000418555 0)
(0.00557389 -0.000405532 0)
(0.0057312 -0.000392572 -5.00622e-30)
(0.00588466 -0.000379706 -1.43754e-29)
(0.00603425 -0.000366959 0)
(0.00617994 -0.000354358 0)
(0.00632173 -0.000341924 -4.34464e-30)
(0.00645962 -0.000329678 0)
(0.00659361 -0.000317637 0)
(0.00672373 -0.000305818 3.87323e-30)
(0.00685 -0.000294234 0)
(0.00697245 -0.000282898 1.05576e-29)
(0.00709112 -0.000271819 6.85894e-30)
(0.00720605 -0.000261006 0)
(0.00731728 -0.000250467 0)
(0.00742488 -0.000240205 -1.17171e-29)
(0.0075289 -0.000230226 -1.11914e-29)
(0.0076294 -0.000220533 -1.06808e-29)
(0.00772645 -0.000211125 1.54603e-29)
(0.0078201 -0.000202006 5.0371e-30)
(0.00791043 -0.000193173 -4.4331e-30)
(0.00799751 -0.000184625 8.78964e-30)
(0.00808142 -0.000176362 -4.36805e-30)
(0.00816221 -0.000168379 0)
(0.00823998 -0.000160674 3.95878e-30)
(0.0083148 -0.000153242 1.09021e-29)
(0.00838673 -0.00014608 0)
(0.00845587 -0.000139182 0)
(0.00852228 -0.000132544 0)
(0.00858604 -0.00012616 3.05846e-30)
(0.00864722 -0.000120025 0)
(0.00870591 -0.000114132 5.07832e-30)
(0.00876217 -0.000108476 0)
(0.00881609 -0.00010305 4.495e-30)
(0.00886773 -9.78489e-05 0)
(0.00891717 -9.28655e-05 -3.95891e-30)
(0.00896448 -8.80937e-05 0)
(0.00900973 -8.35272e-05 3.46739e-30)
(0.00905298 -7.91597e-05 -5.07001e-30)
(0.00909432 -7.49848e-05 0)
(0.00913379 -7.09962e-05 -2.80785e-30)
(0.00917148 -6.71877e-05 1.52023e-30)
(0.00920744 -6.35532e-05 1.42543e-30)
(0.00924174 -6.00865e-05 0)
(0.00927444 -5.67817e-05 -3.3085e-30)
(0.0093056 -5.36329e-05 1.16668e-30)
(0.00933527 -5.06344e-05 0)
(0.00936352 -4.77804e-05 -1.01403e-30)
(0.0093904 -4.50654e-05 -1.44302e-30)
(0.00941596 -4.2484e-05 0)
(0.00944026 -4.0031e-05 8.119e-31)
(0.00946334 -3.77011e-05 0)
(0.00948527 -3.54893e-05 2.4555e-31)
(0.00950608 -3.33907e-05 0)
(0.00952583 -3.14006e-05 -1.36992e-31)
(0.00954455 -2.95144e-05 5.37589e-31)
(0.0095623 -2.77275e-05 1.02142e-30)
(0.00957911 -2.60357e-05 1.77648e-30)
(0.00959503 -2.44347e-05 -1.5244e-30)
(0.00961009 -2.29204e-05 0)
(0.00962434 -2.14889e-05 0)
(0.00963782 -2.01364e-05 0)
(0.00965055 -1.88593e-05 -3.92058e-31)
(0.00966257 -1.76538e-05 -4.56429e-31)
(0.00967392 -1.65168e-05 3.97109e-31)
(0.00968463 -1.54447e-05 0)
(0.00969473 -1.44346e-05 5.00998e-32)
(0.00970425 -1.34833e-05 -2.38846e-31)
(0.00971321 -1.25878e-05 -1.9213e-31)
(0.00972166 -1.17455e-05 0)
(0.0097296 -1.09535e-05 0)
(0.00973707 -1.02093e-05 0)
(0.00974409 -9.51031e-06 -3.15676e-32)
(0.00975069 -8.85426e-06 0)
(0.00975688 -8.23883e-06 9.90944e-31)
(0.0097627 -7.66182e-06 9.86835e-31)
(0.00976815 -7.12115e-06 -1.10865e-30)
(0.00977326 -6.61482e-06 0)
(0.00977805 -6.14094e-06 -1.35609e-30)
(0.00978253 -5.69767e-06 0)
(0.00978672 -5.28329e-06 -1.30218e-30)
(0.00979065 -4.89614e-06 1.55212e-30)
(0.00979431 -4.53466e-06 1.60906e-30)
(0.00979774 -4.19733e-06 0)
(0.00980093 -3.88275e-06 1.18762e-30)
(0.00980392 -3.58955e-06 -1.48055e-30)
(0.0098067 -3.31644e-06 2.91602e-31)
(0.00980929 -3.06222e-06 0)
(0.0098117 -2.82571e-06 3.17211e-31)
(0.00981395 -2.60583e-06 -1.25549e-30)
(0.00981604 -2.40153e-06 0)
(0.00981798 -2.21183e-06 -1.62566e-30)
(0.00981979 -2.03579e-06 -1.64421e-30)
(0.00982146 -1.87254e-06 -1.6614e-30)
(0.00982302 -1.72125e-06 0)
(0.00982446 -1.58112e-06 0)
(0.00982579 -1.45142e-06 0)
(0.00982703 -1.33145e-06 2.11359e-30)
(0.00982817 -1.22054e-06 -4.00969e-31)
(0.00982923 -1.11808e-06 0)
(0.00983021 -1.02349e-06 1.75084e-30)
(0.00983111 -9.36204e-07 1.76004e-30)
(0.00983194 -8.55711e-07 0)
(0.00983271 -7.81521e-07 -8.47762e-31)
(0.00983342 -7.13176e-07 3.56708e-30)
(0.00983407 -6.5024e-07 8.61467e-31)
(0.00983467 -5.92307e-07 -4.46005e-30)
(0.00983522 -5.38991e-07 0)
(0.00983572 -4.89926e-07 0)
(0.00983618 -4.44768e-07 0)
(0.00983661 -4.03188e-07 8.87256e-31)
(0.009837 -3.6487e-07 4.53171e-30)
(0.00983735 -3.29511e-07 3.6479e-30)
(0.00983767 -2.96817e-07 8.98351e-31)
(0.00983796 -2.66498e-07 4.56267e-30)
(0.00983823 -2.38267e-07 -9.04459e-31)
(0.00983846 -2.11834e-07 0)
(0.00983868 -1.86898e-07 0)
(0.00983887 -1.63145e-07 -4.59516e-30)
(0.00983903 -1.40237e-07 0)
(0.00983917 -1.17804e-07 0)
(0.00983929 -9.54277e-08 3.69704e-30)
(0.00983938 -7.26322e-08 0)
(0.00983945 -4.88586e-08 4.63088e-30)
(0.00983949 -2.34437e-08 9.26789e-31)
(0.00983951 4.41235e-09 0)
(0.00983948 3.56853e-08 4.65713e-30)
(0.00983942 7.1579e-08 0)
(0.00983931 1.1359e-07 0)
(0.00983915 1.63594e-07 9.46097e-31)
(0.00983892 2.23955e-07 3.76295e-30)
(0.00983861 2.97671e-07 9.5991e-31)
(0.00983819 3.88562e-07 0)
(0.00983764 5.01524e-07 0)
(0.00983693 6.42858e-07 4.84426e-30)
(0.00983602 8.20727e-07 0)
(0.00983484 1.04576e-06 4.96826e-30)
(0.00983332 1.33192e-06 0)
(0.00983137 1.69765e-06 0)
(0.00982886 2.1676e-06 0)
(0.00982561 2.7751e-06 -1.21484e-30)
(0.00982141 3.56582e-06 0)
(0.00981595 4.60357e-06 1.40299e-30)
(0.00980882 5.97944e-06 0)
(0.00979942 7.82724e-06 0)
(0.00978695 1.03507e-05 5.83748e-30)
(0.00977019 1.38747e-05 -6.55988e-30)
(0.00974733 1.8949e-05 0)
(0.00971547 2.65816e-05 0)
(0.00966966 3.8829e-05 0)
(0.00960084 6.05585e-05 1.79632e-29)
(0.00949148 0.000105885 0)
(0.00931894 0.000227991 -1.01335e-28)
(0.000103648 -0.0010968 5.66908e-29)
(0.000311763 -0.0010951 -7.41933e-33)
(0.000521122 -0.00109216 0)
(0.000731483 -0.00108796 1.73283e-32)
(0.000942596 -0.00108251 0)
(0.0011542 -0.0010758 0)
(0.00136604 -0.00106784 -5.50448e-29)
(0.00157785 -0.00105866 -2.72912e-29)
(0.00178937 -0.00104828 2.69705e-29)
(0.00200032 -0.00103673 -2.67043e-29)
(0.00221045 -0.00102406 0)
(0.0024195 -0.0010103 0)
(0.00262721 -0.000995524 -2.55475e-29)
(0.00283335 -0.00097978 -5.02519e-29)
(0.00303767 -0.000963133 4.93623e-29)
(0.00323995 -0.000945651 0)
(0.00343997 -0.000927405 4.74582e-29)
(0.00363753 -0.000908466 2.33115e-29)
(0.00383243 -0.00088891 0)
(0.00402449 -0.00086881 4.43462e-29)
(0.00421356 -0.000848244 -2.17276e-29)
(0.00439947 -0.000827284 -4.21462e-29)
(0.0045821 -0.000806003 2.06183e-29)
(0.00476131 -0.000784474 0)
(0.004937 -0.000762765 3.87345e-29)
(0.00510907 -0.000740943 3.7582e-29)
(0.00527744 -0.000719069 0)
(0.00544204 -0.000697205 3.52736e-29)
(0.00560282 -0.000675406 0)
(0.00575972 -0.000653724 3.29807e-29)
(0.00591272 -0.000632208 -1.6063e-29)
(0.00606179 -0.000610902 0)
(0.00620692 -0.000589847 0)
(0.00634811 -0.000569081 0)
(0.00648537 -0.000548635 0)
(0.0066187 -0.00052854 0)
(0.00674814 -0.000508821 0)
(0.00687371 -0.000489501 2.43328e-29)
(0.00699545 -0.000470599 -1.1504e-29)
(0.00711339 -0.000452131 0)
(0.00722759 -0.000434112 0)
(0.0073381 -0.000416552 0)
(0.00744497 -0.000399459 -3.95453e-29)
(0.00754827 -0.00038284 -1.90795e-29)
(0.00764805 -0.000366699 -3.6117e-31)
(0.00774438 -0.000351038 3.65714e-31)
(0.00783733 -0.000335858 -1.62532e-29)
(0.00792698 -0.000321157 -1.58548e-29)
(0.00801338 -0.000306934 2.98442e-29)
(0.00809662 -0.000293184 1.40103e-29)
(0.00817678 -0.000279904 0)
(0.00825392 -0.000267086 1.26388e-29)
(0.00832812 -0.000254725 2.43717e-29)
(0.00839946 -0.000242813 0)
(0.00846802 -0.000231342 0)
(0.00853387 -0.000220304 -1.01805e-29)
(0.00859709 -0.000209689 0)
(0.00865775 -0.000199487 0)
(0.00871593 -0.00018969 2.61277e-29)
(0.00877171 -0.000180287 1.6156e-29)
(0.00882516 -0.000171267 8.02086e-30)
(0.00887635 -0.00016262 0)
(0.00892536 -0.000154337 -7.13611e-30)
(0.00897225 -0.000146405 0)
(0.0090171 -0.000138814 1.81234e-29)
(0.00905997 -0.000131555 -5.94563e-30)
(0.00910094 -0.000124616 -1.03065e-29)
(0.00914007 -0.000117987 -1.48466e-29)
(0.00917742 -0.000111657 0)
(0.00921306 -0.000105616 8.31026e-30)
(0.00924705 -9.98548e-05 0)
(0.00927946 -9.43625e-05 3.12576e-30)
(0.00931034 -8.91295e-05 6.57801e-30)
(0.00933974 -8.41462e-05 6.05443e-30)
(0.00936774 -7.94032e-05 -5.55608e-30)
(0.00939438 -7.48913e-05 2.09742e-30)