/*--------------------------------*- C++ -*----------------------------------*\
  =========                 |
  \\      /  F ield         | OpenFOAM: The Open Source CFD Toolbox
   \\    /   O peration     | Website:  https://openfoam.org
    \\  /    A nd           | Version:  10
     \\/     M anipulation  |
\*---------------------------------------------------------------------------*/
FoamFile
{
    format      ascii;
    class       volScalarField;
    location    "0.009";
    object      p;
}
// * * * * * * * * * * * * * * * * * * * * * * * * * * * * * * * * * * * * * //

dimensions      [0 2 -2 0 0 0 0];

internalField   nonuniform List<scalar> 
4000
(
6.6124
6.61208
6.61131
6.60987
6.60783
6.60519
6.60204
6.59831
6.59412
6.58937
6.58417
6.57839
6.57217
6.56535
6.55809
6.5502
6.54186
6.53286
6.52339
6.51322
6.50255
6.49113
6.47918
6.46642
6.4531
6.43888
6.42407
6.40826
6.3918
6.37424
6.35595
6.33645
6.31613
6.29445
6.27185
6.24773
6.22256
6.19568
6.16761
6.13761
6.10627
6.07273
6.03767
6.00014
5.96086
5.91881
5.87477
5.8276
5.77818
5.72525
5.66977
5.61037
5.5481
5.48147
5.41162
5.33694
5.25868
5.1751
5.08758
4.99424
4.8966
4.79266
4.68407
4.56872
4.44842
4.32096
4.18831
4.04821
3.90276
3.74968
3.59123
3.42514
3.25381
3.07504
2.89137
2.70071
2.50567
2.30437
2.09946
1.88931
1.67652
1.45979
1.2416
1.02101
0.800289
0.578895
0.35877
0.139817
-0.0764581
-0.289697
-0.49893
-0.703333
-0.902554
-1.0953
-1.28191
-1.46062
-1.63249
-1.79531
-1.95084
-2.09647
-2.23465
-2.36235
-2.48269
-2.59225
-2.69477
-2.78647
-2.87161
-2.94611
-3.0147
-3.07302
-3.12617
-3.16954
-3.20846
-3.23808
-3.26393
-3.28098
-3.29489
-3.3005
-3.30354
-3.29876
-3.29195
-3.27778
-3.26208
-3.23947
-3.21577
-3.18559
-3.15473
-3.11779
-3.08056
-3.0376
-2.99472
-2.94646
-2.89861
-2.84571
-2.79355
-2.73664
-2.68078
-2.62049
-2.56154
-2.49846
-2.43703
-2.37178
-2.30847
-2.24165
-2.17705
-2.10927
-2.04399
-1.97584
-1.91045
-1.84252
-1.7776
-1.71045
-1.64652
-1.58068
-1.51823
-1.45416
-1.39364
-1.33177
-1.27355
-1.21423
-1.15863
-1.10215
-1.04942
-0.995984
-0.946298
-0.896065
-0.849538
-0.802586
-0.759268
-0.715617
-0.675503
-0.635118
-0.59815
-0.560948
-0.527026
-0.492882
-0.461869
-0.430625
-0.402352
-0.373821
-0.348098
-0.32207
-0.298685
-0.274941
-0.253673
-0.231979
-0.212596
-0.192706
-0.174965
-0.15662
-0.140263
-0.123196
-0.107964
-0.0919149
-0.0775656
-0.0623256
-0.0486289
-0.0345898
-0.0201713
-0.00759649
6.61451
6.6142
6.61343
6.612
6.60996
6.60732
6.60417
6.60046
6.59626
6.59152
6.58632
6.58055
6.57434
6.56755
6.5603
6.55245
6.54414
6.53519
6.52576
6.51565
6.50504
6.49371
6.48184
6.46919
6.45597
6.4419
6.4272
6.41156
6.39525
6.37789
6.35978
6.34052
6.32041
6.29901
6.27666
6.25285
6.22797
6.20146
6.17372
6.14414
6.11316
6.0801
6.04545
6.00844
5.96962
5.92815
5.88461
5.83808
5.7892
5.73695
5.68205
5.62338
5.56171
5.49583
5.4266
5.35268
5.27502
5.1922
5.10524
5.01262
4.91547
4.81216
4.70393
4.58909
4.46899
4.34185
4.20917
4.06914
3.92337
3.77005
3.61093
3.44423
3.27183
3.09204
2.90685
2.71472
2.51772
2.31451
2.10723
1.89476
1.67926
1.45988
1.23873
1.01529
0.791499
0.56718
0.344039
0.122241
-0.0968455
-0.31271
-0.524412
-0.731102
-0.932341
-1.12696
-1.31506
-1.49517
-1.66799
-1.83172
-1.98767
-2.13376
-2.27185
-2.39961
-2.51942
-2.6287
-2.73031
-2.82144
-2.90538
-2.9791
-3.04627
-3.10371
-3.15537
-3.19785
-3.23529
-3.2641
-3.28853
-3.30485
-3.3174
-3.32236
-3.32412
-3.31877
-3.31076
-3.29611
-3.27927
-3.25625
-3.23148
-3.20094
-3.16907
-3.13182
-3.09362
-3.0504
-3.00658
-2.95808
-2.90931
-2.85618
-2.8031
-2.74597
-2.68919
-2.62866
-2.56877
-2.50545
-2.44306
-2.37754
-2.31326
-2.24616
-2.18059
-2.11251
-2.04625
-1.97781
-1.91146
-1.84326
-1.7774
-1.71
-1.64518
-1.57912
-1.51584
-1.45161
-1.39032
-1.32834
-1.26943
-1.21006
-1.15385
-1.09737
-1.04411
-0.990752
-0.940622
-0.890519
-0.843627
-0.796859
-0.75325
-0.709831
-0.669493
-0.629383
-0.59225
-0.555359
-0.521325
-0.487521
-0.456439
-0.425558
-0.397254
-0.369103
-0.343378
-0.317743
-0.29438
-0.271036
-0.24981
-0.22852
-0.209194
-0.189712
-0.172038
-0.154101
-0.13782
-0.121162
-0.106011
-0.0903704
-0.076103
-0.0612676
-0.0476507
-0.0339505
-0.019776
-0.00749943
6.61876
6.61844
6.61768
6.61625
6.61421
6.61158
6.60843
6.60472
6.60053
6.59579
6.5906
6.58486
6.57867
6.57191
6.56471
6.55692
6.54867
6.53981
6.53048
6.5205
6.51002
6.49884
6.48715
6.4747
6.4617
6.44787
6.43344
6.41812
6.40212
6.38514
6.36742
6.34859
6.32894
6.30805
6.28624
6.26303
6.23877
6.21293
6.1859
6.15709
6.12692
6.09473
6.06098
6.02495
5.98714
5.94674
5.9043
5.85894
5.81126
5.76028
5.70666
5.64933
5.58901
5.52453
5.45668
5.38418
5.3079
5.22647
5.14083
5.04951
4.95354
4.85137
4.74411
4.63014
4.51069
4.38404
4.25157
4.11152
3.96539
3.81141
3.65123
3.48311
3.30883
3.12676
2.9388
2.74347
2.54278
2.33546
2.12361
1.9062
1.68538
1.46041
1.23341
1.00396
0.774065
0.543643
0.314459
0.0867764
-0.137972
-0.359199
-0.575901
-0.787182
-0.992546
-1.1908
-1.38202
-1.56474
-1.73961
-1.9049
-2.06187
-2.20853
-2.34668
-2.47412
-2.59318
-2.70141
-2.8016
-2.8911
-2.97311
-3.04479
-3.1097
-3.16487
-3.21415
-3.25437
-3.28947
-3.31609
-3.33829
-3.35256
-3.36303
-3.36609
-3.36592
-3.35884
-3.34905
-3.33281
-3.31434
-3.28987
-3.26359
-3.23173
-3.19846
-3.15999
-3.12048
-3.07611
-3.03104
-2.98145
-2.93147
-2.87726
-2.82297
-2.76476
-2.70676
-2.64512
-2.58399
-2.51951
-2.45584
-2.38913
-2.32352
-2.2552
-2.18828
-2.11896
-2.05135
-1.98168
-1.914
-1.84459
-1.77745
-1.70892
-1.64289
-1.57578
-1.5114
-1.44623
-1.38396
-1.32117
-1.26142
-1.20138
-1.14448
-1.08749
-1.03368
-0.979948
-0.92942
-0.879084
-0.831934
-0.785066
-0.741329
-0.69793
-0.657579
-0.617595
-0.580552
-0.543877
-0.510019
-0.476509
-0.445675
-0.415149
-0.387153
-0.359406
-0.334035
-0.308843
-0.285869
-0.262996
-0.242184
-0.221385
-0.202493
-0.183516
-0.16629
-0.148868
-0.133043
-0.116906
-0.102216
-0.0871004
-0.0732971
-0.0589872
-0.045838
-0.0326516
-0.0189948
-0.00723531
6.62515
6.62483
6.62407
6.62263
6.62059
6.61795
6.6148
6.61109
6.6069
6.60217
6.59699
6.59128
6.58512
6.57842
6.57128
6.56357
6.55542
6.54669
6.5375
6.52769
6.5174
6.50646
6.49502
6.48286
6.47018
6.45672
6.4427
6.42782
6.41232
6.39587
6.37873
6.36055
6.34159
6.32145
6.30044
6.2781
6.25478
6.22995
6.20398
6.17632
6.14736
6.11647
6.08408
6.0495
6.01321
5.97441
5.93366
5.89006
5.8442
5.79512
5.74347
5.68816
5.62991
5.56754
5.50182
5.43148
5.35735
5.27806
5.1945
5.10519
5.01113
4.91073
4.80508
4.6925
4.57418
4.44837
4.31637
4.17639
4.02987
3.87499
3.71334
3.54315
3.36614
3.18063
2.98853
2.78831
2.58201
2.36833
2.14946
1.92437
1.69532
1.46161
1.22552
0.986688
0.747292
0.507338
0.268768
0.031934
-0.201571
-0.431079
-0.655461
-0.873755
-1.08539
-1.28913
-1.48501
-1.67155
-1.84941
-2.01687
-2.17523
-2.3225
-2.4606
-2.5873
-2.70505
-2.81143
-2.90933
-2.99612
-3.0751
-3.14347
-3.2049
-3.25648
-3.30216
-3.33878
-3.37036
-3.39354
-3.4124
-3.42345
-3.43082
-3.43091
-3.42789
-3.41809
-3.4057
-3.387
-3.36616
-3.33945
-3.31102
-3.27712
-3.24188
-3.20154
-3.1602
-3.11408
-3.06728
-3.01601
-2.96436
-2.90851
-2.85255
-2.79268
-2.73298
-2.66963
-2.60674
-2.54049
-2.47499
-2.40643
-2.33893
-2.26869
-2.19982
-2.12856
-2.05899
-1.98738
-1.91777
-1.84647
-1.77747
-1.70713
-1.63936
-1.57059
-1.50462
-1.43796
-1.3743
-1.31022
-1.24928
-1.18817
-1.13031
-1.07247
-1.01793
-0.96358
-0.912538
-0.861804
-0.814349
-0.767285
-0.723435
-0.680024
-0.639732
-0.599897
-0.563062
-0.526674
-0.493151
-0.460042
-0.429647
-0.399616
-0.372142
-0.344964
-0.320179
-0.295613
-0.273274
-0.251068
-0.230927
-0.210825
-0.192629
-0.174369
-0.157854
-0.141163
-0.126061
-0.110663
-0.0967026
-0.0823297
-0.0692587
-0.0556927
-0.0432774
-0.0308276
-0.0179212
-0.00685254
6.63368
6.63335
6.63258
6.63114
6.62909
6.62644
6.62327
6.61954
6.61535
6.61062
6.60546
6.59976
6.59365
6.587
6.57993
6.57233
6.5643
6.55572
6.54671
6.53711
6.52708
6.51643
6.50532
6.49354
6.48128
6.46829
6.45479
6.44049
6.42563
6.40988
6.39351
6.37616
6.35811
6.33896
6.31901
6.29782
6.27572
6.25222
6.22767
6.20152
6.17417
6.14499
6.11443
6.08177
6.04751
6.01086
5.97235
5.93111
5.88771
5.8412
5.79219
5.73963
5.6842
5.62472
5.56194
5.49458
5.42343
5.3471
5.26647
5.18002
5.08869
4.99086
4.88757
4.77708
4.66053
4.53608
4.40499
4.26537
4.1186
3.96276
3.79938
3.62658
3.44607
3.25605
3.05843
2.85159
2.63765
2.41522
2.18663
1.95082
1.71025
1.46426
1.21537
0.963298
0.710506
0.457113
0.205341
-0.0443328
-0.290076
-0.531099
-0.766101
-0.994021
-1.21419
-1.4253
-1.62738
-1.8189
-2.00058
-2.17066
-2.33057
-2.47831
-2.61595
-2.74126
-2.85688
-2.96037
-3.05483
-3.13762
-3.21223
-3.27587
-3.33241
-3.37897
-3.41966
-3.45132
-3.47807
-3.49653
-3.51086
-3.51752
-3.52071
-3.51679
-3.50995
-3.49653
-3.48068
-3.45871
-3.43476
-3.40511
-3.37388
-3.33732
-3.29953
-3.25676
-3.21307
-3.1647
-3.11569
-3.06226
-3.00846
-2.95048
-2.89237
-2.83033
-2.76842
-2.70281
-2.6376
-2.56897
-2.50103
-2.42996
-2.35991
-2.28706
-2.21555
-2.14162
-2.06938
-1.99509
-1.92284
-1.84893
-1.77739
-1.70457
-1.63442
-1.56336
-1.49524
-1.42653
-1.36097
-1.29514
-1.2326
-1.17004
-1.11089
-1.05192
-0.996409
-0.941239
-0.889532
-0.838278
-0.790446
-0.743139
-0.699172
-0.655767
-0.61559
-0.575976
-0.539455
-0.503473
-0.47043
-0.43788
-0.408101
-0.37875
-0.351999
-0.325597
-0.301618
-0.277899
-0.256427
-0.23512
-0.21589
-0.196723
-0.179466
-0.162166
-0.14661
-0.130893
-0.116762
-0.102346
-0.0893626
-0.0759757
-0.0638827
-0.0513013
-0.0398645
-0.0283915
-0.0164812
-0.00633111
6.64436
6.64403
6.64324
6.64178
6.6397
6.63702
6.63382
6.63007
6.62586
6.62112
6.61595
6.61027
6.60418
6.59758
6.59059
6.58309
6.5752
6.56679
6.55799
6.54864
6.5389
6.52859
6.51787
6.50654
6.49479
6.48237
6.4695
6.4559
6.44181
6.42692
6.41148
6.39515
6.37821
6.36026
6.34162
6.32184
6.30126
6.27939
6.2566
6.23232
6.20697
6.17992
6.15162
6.12137
6.08965
6.05568
6.01999
5.98172
5.94143
5.89817
5.85254
5.80349
5.75167
5.69592
5.63694
5.57345
5.50621
5.43381
5.35708
5.27446
5.18686
5.09259
4.99262
4.88514
4.77122
4.64894
4.51944
4.38074
4.23411
4.0775
3.91236
3.73665
3.55202
3.3565
3.15202
2.93679
2.713
2.47918
2.23779
1.98777
1.73182
1.46934
1.20321
0.93328
0.662408
0.3909
0.121375
-0.145497
-0.407544
-0.66381
-0.912752
-1.15319
-1.38432
-1.60477
-1.81454
-2.01207
-2.19818
-2.37109
-2.53239
-2.68011
-2.8165
-2.93939
-3.05163
-3.1508
-3.24028
-3.3174
-3.38594
-3.44309
-3.49302
-3.53287
-3.56697
-3.5921
-3.61255
-3.62488
-3.63334
-3.63437
-3.63221
-3.62319
-3.61153
-3.59355
-3.57339
-3.54736
-3.51957
-3.48631
-3.45165
-3.41187
-3.371
-3.32533
-3.27883
-3.22778
-3.17614
-3.12016
-3.06379
-3.00328
-2.94258
-2.87792
-2.8133
-2.74492
-2.67683
-2.60523
-2.53421
-2.45996
-2.38665
-2.31045
-2.23555
-2.15816
-2.08247
-2.00471
-1.92904
-1.85173
-1.7769
-1.70086
-1.62764
-1.55363
-1.48272
-1.41139
-1.34341
-1.27532
-1.21076
-1.14637
-1.0856
-1.02522
-0.968512
-0.912341
-0.859835
-0.80797
-0.759709
-0.712147
-0.668087
-0.624743
-0.584765
-0.545486
-0.509413
-0.473994
-0.441604
-0.409802
-0.380842
-0.352388
-0.326584
-0.30119
-0.278255
-0.255626
-0.235268
-0.21511
-0.197041
-0.179063
-0.162998
-0.14691
-0.132566
-0.118074
-0.105164
-0.0919804
-0.0802217
-0.0680682
-0.0571982
-0.0458466
-0.03563
-0.0253746
-0.0147015
-0.00569021
6.65721
6.65687
6.65607
6.65457
6.65245
6.64971
6.64646
6.64265
6.63838
6.6336
6.6284
6.62271
6.61663
6.61007
6.60314
6.59574
6.58798
6.57974
6.57116
6.56209
6.55267
6.54274
6.53246
6.52164
6.51046
6.49868
6.48654
6.47375
6.46056
6.44666
6.43231
6.41717
6.40152
6.38499
6.36787
6.34975
6.33096
6.31101
6.29028
6.26822
6.24524
6.22073
6.19512
6.16774
6.13906
6.10832
6.07603
6.04135
6.00483
5.96552
5.92402
5.87927
5.83191
5.78078
5.72655
5.66793
5.60564
5.53826
5.46655
5.38893
5.30624
5.21674
5.1213
5.01806
4.90795
4.78896
4.6621
4.52524
4.37953
4.22272
4.05614
3.87752
3.68842
3.48663
3.27402
3.0486
2.81261
2.56441
2.30666
2.03825
1.76224
1.47812
1.18924
0.895689
0.600901
0.305476
0.0125943
-0.276775
-0.559998
-0.835878
-1.10256
-1.35871
-1.60338
-1.83512
-2.05394
-2.25827
-2.44906
-2.62456
-2.7866
-2.93323
-3.06704
-3.18586
-3.29289
-3.38574
-3.46813
-3.53739
-3.59765
-3.64611
-3.68734
-3.71846
-3.74407
-3.76087
-3.77334
-3.77795
-3.7791
-3.77315
-3.76441
-3.74917
-3.73168
-3.70821
-3.68291
-3.65207
-3.61977
-3.58231
-3.54368
-3.50023
-3.45585
-3.40691
-3.35726
-3.30323
-3.24865
-3.18983
-3.13061
-3.06725
-3.00362
-2.93596
-2.8682
-2.79655
-2.72505
-2.64985
-2.5751
-2.49696
-2.41962
-2.33926
-2.26012
-2.17841
-2.09838
-2.01625
-1.93627
-1.85469
-1.77572
-1.69563
-1.61856
-1.54084
-1.46647
-1.39187
-1.32089
-1.25005
-1.18301
-1.11638
-1.05367
-0.991601
-0.933479
-0.876144
-0.822729
-0.770191
-0.721485
-0.673693
-0.629601
-0.586414
-0.54676
-0.507967
-0.472516
-0.437856
-0.40633
-0.375504
-0.347599
-0.320288
-0.295684
-0.271558
-0.249929
-0.228658
-0.209679
-0.190939
-0.174297
-0.157773
-0.143165
-0.128552
-0.115678
-0.102672
-0.0912369
-0.0795403
-0.0692563
-0.0585862
-0.049185
-0.0393083
-0.0305546
-0.0217576
-0.0125663
-0.00492143
6.67228
6.67192
6.67109
6.66953
6.66734
6.66451
6.66116
6.65725
6.65289
6.64802
6.64275
6.637
6.63089
6.62433
6.61744
6.61011
6.60247
6.5944
6.58604
6.57724
6.56816
6.55863
6.54883
6.53855
6.528
6.51694
6.5056
6.49371
6.48151
6.46872
6.45558
6.44178
6.42759
6.41265
6.39727
6.38103
6.36426
6.34651
6.32814
6.30862
6.28836
6.26677
6.24427
6.22021
6.19506
6.16807
6.13976
6.10929
6.0772
6.04256
6.00596
5.96635
5.92435
5.87879
5.83034
5.77768
5.72151
5.66037
5.59499
5.52375
5.4474
5.36416
5.2748
5.17736
5.07265
4.95852
4.83584
4.70227
4.55879
4.40291
4.23576
4.05477
3.8613
3.65283
3.43109
3.19376
2.94307
2.67715
2.39884
2.10698
1.80504
1.4927
1.17398
0.84936
0.523096
0.196283
-0.127094
-0.445609
-0.755995
-1.05673
-1.34556
-1.62097
-1.88187
-2.12674
-2.35569
-2.56714
-2.76229
-2.93947
-3.10085
-3.24458
-3.37364
-3.48595
-3.58515
-3.6689
-3.74134
-3.79987
-3.84899
-3.88603
-3.91599
-3.93597
-3.95082
-3.95719
-3.95974
-3.95487
-3.9471
-3.93271
-3.9161
-3.89349
-3.86913
-3.83929
-3.80806
-3.77175
-3.73435
-3.6922
-3.64919
-3.60171
-3.55355
-3.50113
-3.44815
-3.391
-3.33337
-3.27159
-3.20937
-3.14299
-3.0762
-3.00525
-2.934
-2.85864
-2.78318
-2.70379
-2.6246
-2.54177
-2.45956
-2.37412
-2.28979
-2.20274
-2.11735
-2.02981
-1.94449
-1.85763
-1.77353
-1.68845
-1.60663
-1.52437
-1.44577
-1.3672
-1.2926
-1.21843
-1.14843
-1.07917
-1.01418
-0.950156
-0.890423
-0.831791
-0.777392
-0.724159
-0.675037
-0.627087
-0.583074
-0.540192
-0.501039
-0.462937
-0.428333
-0.394675
-0.364271
-0.33469
-0.308118
-0.282235
-0.259119
-0.236553
-0.216519
-0.196897
-0.179586
-0.162549
-0.147616
-0.132828
-0.119949
-0.107084
-0.095947
-0.0846902
-0.0749899
-0.0650368
-0.0564798
-0.0475433
-0.0398572
-0.0317007
-0.0246516
-0.0175533
-0.0100854
-0.0040297
6.68964
6.68926
6.68837
6.68673
6.68442
6.68145
6.67794
6.67387
6.66935
6.66433
6.65892
6.65305
6.64686
6.64025
6.63334
6.62604
6.61849
6.61056
6.6024
6.59386
6.58512
6.57599
6.56668
6.55697
6.54708
6.53678
6.52629
6.51537
6.50425
6.49265
6.48084
6.4685
6.45591
6.44272
6.42925
6.41508
6.40057
6.38525
6.3695
6.35282
6.3356
6.31728
6.29828
6.27797
6.25681
6.23409
6.21031
6.18465
6.15766
6.12841
6.0975
6.06388
6.02817
5.98919
5.94761
5.90209
5.85332
5.79981
5.74224
5.67897
5.61068
5.5355
5.45414
5.3645
5.26727
5.16013
5.04377
4.91563
4.77644
4.6234
4.45734
4.27529
4.07832
3.86341
3.63201
3.38131
3.11341
2.82605
2.52221
2.20057
1.86516
1.51593
1.15787
0.792135
0.424219
0.0560537
-0.307196
-0.663401
-1.00844
-1.34034
-1.6564
-1.9549
-2.23466
-2.49415
-2.73367
-2.95176
-3.15
-3.32688
-3.48508
-3.62291
-3.74391
-3.84613
-3.93378
-4.0046
-4.06329
-4.10728
-4.14165
-4.16385
-4.17938
-4.18527
-4.18669
-4.18015
-4.17056
-4.1542
-4.13574
-4.11136
-4.08551
-4.05437
-4.02216
-3.98512
-3.94727
-3.90494
-3.86197
-3.8148
-3.76714
-3.71549
-3.66346
-3.60756
-3.55129
-3.49114
-3.43056
-3.36595
-3.3008
-3.23142
-3.16141
-3.08702
-3.012
-2.93254
-2.85261
-2.76838
-2.68398
-2.59558
-2.5075
-2.4159
-2.32523
-2.23165
-2.13968
-2.0455
-1.95362
-1.86026
-1.76987
-1.6787
-1.59109
-1.50333
-1.41962
-1.3363
-1.25737
-1.17928
-1.10581
-1.0335
-0.965908
-0.899686
-0.83818
-0.778159
-0.722753
-0.668863
-0.619415
-0.571448
-0.527696
-0.485336
-0.44693
-0.409791
-0.376323
-0.343975
-0.315009
-0.287
-0.262089
-0.237967
-0.216668
-0.195992
-0.177878
-0.160226
-0.144895
-0.129873
-0.11695
-0.104193
-0.0933317
-0.0824971
-0.0733713
-0.0641339
-0.0564312
-0.0484812
-0.0419043
-0.0349521
-0.0292263
-0.023033
-0.0179285
-0.0127666
-0.00726203
-0.00301683
6.7094
6.70899
6.70802
6.70625
6.70375
6.70057
6.69683
6.69251
6.68773
6.68246
6.67682
6.67076
6.66439
6.65765
6.65066
6.64334
6.63581
6.62797
6.61997
6.61167
6.60323
6.5945
6.58567
6.57654
6.56732
6.5578
6.5482
6.53828
6.52829
6.51796
6.50755
6.49676
6.48588
6.47457
6.46314
6.45121
6.43913
6.42646
6.41357
6.39997
6.38608
6.37134
6.35619
6.34002
6.32329
6.3053
6.28658
6.26631
6.24506
6.22191
6.19746
6.17069
6.14221
6.11086
6.07728
6.04017
6.00018
5.95581
5.90772
5.85423
5.79596
5.731
5.65994
5.58059
5.49349
5.39616
5.28906
5.16937
5.03752
4.89031
4.72819
4.54764
4.34922
4.12925
3.88864
3.62384
3.33651
3.02378
2.68851
2.32918
1.95036
1.55247
1.14188
0.720974
0.297174
-0.126117
-0.541969
-0.947154
-1.3364
-1.70717
-2.05624
-2.38177
-2.68257
-2.95731
-3.20662
-3.4294
-3.62781
-3.8007
-3.95144
-4.07865
-4.18661
-4.27359
-4.34448
-4.39718
-4.43703
-4.46156
-4.47661
-4.47979
-4.47707
-4.46536
-4.45016
-4.42784
-4.40358
-4.3735
-4.34243
-4.30643
-4.27
-4.22921
-4.18827
-4.14334
-4.09834
-4.04961
-4.00082
-3.94849
-3.89614
-3.84041
-3.78468
-3.7256
-3.66642
-3.60369
-3.54061
-3.4736
-3.40589
-3.33381
-3.26073
-3.18291
-3.10396
-3.02006
-2.93513
-2.84533
-2.75484
-2.65982
-2.5647
-2.46562
-2.36722
-2.26563
-2.16558
-2.06323
-1.9633
-1.86198
-1.76392
-1.66533
-1.57072
-1.47634
-1.38651
-1.29755
-1.21355
-1.13089
-1.05343
-0.977652
-0.907156
-0.838538
-0.775152
-0.713722
-0.657364
-0.602942
-0.553352
-0.505601
-0.462386
-0.420861
-0.38354
-0.347726
-0.315771
-0.28512
-0.257985
-0.231944
-0.209087
-0.187117
-0.168019
-0.149609
-0.133782
-0.118458
-0.105454
-0.0927805
-0.0821918
-0.0717785
-0.063238
-0.054727
-0.0478966
-0.0409543
-0.0355171
-0.0298314
-0.0254899
-0.0207722
-0.0172524
-0.0132646
-0.0103439
-0.00735604
-0.00405715
-0.00185866
6.73175
6.73128
6.7302
6.72823
6.72547
6.72196
6.71786
6.71316
6.708
6.70236
6.69637
6.68998
6.68334
6.67637
6.66921
6.66177
6.6542
6.64638
6.63848
6.63036
6.62219
6.61382
6.60543
6.59686
6.5883
6.57955
6.57085
6.56195
6.55312
6.54409
6.53513
6.52596
6.51686
6.50751
6.49824
6.48867
6.47916
6.46929
6.45943
6.44914
6.43881
6.42792
6.41693
6.40522
6.3933
6.38047
6.36727
6.35293
6.338
6.32162
6.30438
6.28529
6.26496
6.24227
6.21787
6.19045
6.16068
6.12706
6.09025
6.04853
6.00251
5.95022
5.89218
5.82612
5.75243
5.66847
5.57449
5.46737
5.34717
5.21028
5.05655
4.88182
4.68588
4.46409
4.21646
3.93827
3.63025
3.28834
2.91489
2.50772
2.07197
1.60874
1.12653
0.629922
0.129592
-0.368519
-0.854802
-1.32439
-1.77046
-2.18974
-2.57848
-2.93484
-3.25791
-3.54682
-3.80299
-4.02593
-4.2188
-4.3811
-4.51722
-4.62629
-4.71357
-4.77765
-4.8243
-4.85159
-4.86564
-4.86422
-4.85412
-4.83294
-4.80714
-4.77345
-4.73775
-4.69625
-4.65439
-4.60811
-4.56241
-4.51316
-4.4649
-4.41357
-4.36326
-4.31008
-4.25772
-4.20256
-4.14801
-4.09073
-4.03399
-3.97467
-3.91587
-3.85443
-3.79323
-3.72896
-3.66437
-3.59596
-3.52657
-3.45253
-3.37693
-3.29599
-3.21316
-3.12461
-3.0342
-2.93807
-2.84049
-2.73759
-2.63398
-2.52581
-2.41794
-2.30651
-2.19651
-2.0841
-1.97427
-1.86319
-1.75576
-1.64815
-1.54508
-1.44275
-1.34566
-1.25003
-1.1601
-1.07217
-0.990179
-0.910527
-0.836852
-0.765684
-0.700375
-0.637593
-0.580427
-0.525692
-0.47624
-0.429043
-0.38674
-0.346461
-0.310658
-0.27662
-0.246637
-0.218149
-0.193306
-0.169691
-0.149337
-0.129957
-0.113483
-0.09775
-0.0846028
-0.0719836
-0.061666
-0.0516873
-0.0437609
-0.0360066
-0.0300858
-0.0241858
-0.0199251
-0.0155425
-0.0126254
-0.00945107
-0.00758433
-0.00533518
-0.00424985
-0.00269196
-0.00217522
-0.00157323
-0.000675917
-0.000665076
6.75694
6.75641
6.75516
6.75289
6.74973
6.74574
6.74111
6.73586
6.73014
6.72395
6.71744
6.71059
6.70352
6.69619
6.68874
6.68108
6.67337
6.66549
6.65761
6.64959
6.64162
6.63355
6.62557
6.6175
6.60957
6.60156
6.59373
6.58584
6.57816
6.57044
6.56294
6.55541
6.54813
6.54079
6.53373
6.5266
6.51975
6.51279
6.50611
6.49926
6.49267
6.48584
6.47922
6.47226
6.46544
6.45813
6.45085
6.44289
6.43481
6.42578
6.41641
6.40575
6.39445
6.3814
6.36728
6.35082
6.33271
6.31148
6.28779
6.25995
6.22855
6.19164
6.14968
6.10036
6.04398
5.97776
5.90176
5.8126
5.70997
5.58974
5.45111
5.28906
5.10233
4.88501
4.63561
4.34765
4.02007
3.64667
3.22811
2.76053
2.24905
1.69605
1.11381
0.511471
-0.0946544
-0.694621
-1.27528
-1.82964
-2.34888
-2.8288
-3.2651
-3.65622
-4.00188
-4.30218
-4.55983
-4.77556
-4.95403
-5.09585
-5.20685
-5.28703
-5.34287
-5.37353
-5.38577
-5.3778
-5.35679
-5.32097
-5.27796
-5.22527
-5.16988
-5.10832
-5.04697
-4.98179
-4.91857
-4.85297
-4.7902
-4.72584
-4.66447
-4.60178
-4.54171
-4.48018
-4.42062
-4.35932
-4.29937
-4.23762
-4.17709
-4.11502
-4.05419
-3.99171
-3.92996
-3.86571
-3.8012
-3.73289
-3.66316
-3.58828
-3.51098
-3.42744
-3.34088
-3.24747
-3.15097
-3.04755
-2.94156
-2.82917
-2.71519
-2.59583
-2.47624
-2.35261
-2.23028
-2.10544
-1.9834
-1.86036
-1.7415
-1.62298
-1.50975
-1.39798
-1.29233
-1.18898
-1.09225
-0.998389
-0.911381
-0.827557
-0.750565
-0.676857
-0.609765
-0.545883
-0.488255
-0.433637
-0.384815
-0.338715
-0.297903
-0.259478
-0.225815
-0.194184
-0.1668
-0.141096
-0.119153
-0.0985569
-0.0812755
-0.0650354
-0.0517106
-0.0391543
-0.0291614
-0.0196972
-0.0124918
-0.00560917
-0.000724629
0.0040127
0.00697444
0.00994261
0.0113277
0.0128596
0.0129772
0.0133721
0.0125036
0.0120317
0.0104338
0.00931579
0.007179
0.00513327
0.00332675
0.000797823
6.78541
6.78476
6.78326
6.78055
6.77678
6.77209
6.76668
6.76063
6.7541
6.74714
6.73991
6.73238
6.72473
6.71688
6.70899
6.70099
6.69301
6.68496
6.677
6.669
6.66115
6.6533
6.64564
6.63801
6.63064
6.62332
6.61631
6.60939
6.60282
6.59636
6.59031
6.5844
6.57893
6.57361
6.56878
6.56411
6.55996
6.55596
6.55251
6.5492
6.54645
6.5438
6.54172
6.53968
6.53818
6.53663
6.53558
6.53434
6.53352
6.53231
6.53137
6.52979
6.52825
6.5257
6.52286
6.51852
6.5134
6.5061
6.49732
6.48543
6.47107
6.4523
6.42966
6.40082
6.3661
6.32267
6.27049
6.20601
6.12861
6.0337
5.91978
5.78084
5.61422
5.41221
5.17104
4.88149
4.53942
4.13527
3.66648
3.12546
2.51545
1.83975
1.11771
0.36874
-0.381333
-1.11767
-1.82368
-2.48977
-3.10433
-3.66167
-4.15679
-4.58853
-4.95772
-5.26608
-5.51837
-5.71731
-5.86984
-5.97834
-6.05071
-6.08834
-6.09944
-6.08369
-6.04877
-5.99355
-5.92645
-5.84582
-5.76004
-5.66648
-5.57287
-5.47555
-5.38154
-5.28651
-5.19671
-5.10743
-5.02414
-4.94201
-4.86565
-4.79037
-4.71986
-4.6498
-4.58313
-4.5162
-4.45154
-4.38627
-4.32324
-4.26026
-4.19973
-4.13899
-4.07973
-4.01871
-3.95739
-3.89217
-3.82474
-3.75131
-3.67411
-3.58924
-3.49966
-3.40146
-3.29839
-3.18659
-3.07058
-2.94656
-2.81971
-2.68629
-2.55189
-2.41283
-2.27489
-2.13434
-1.99697
-1.85897
-1.72593
-1.59397
-1.46835
-1.34517
-1.2293
-1.11682
-1.01218
-0.911539
-0.818915
-0.730539
-0.650052
-0.573806
-0.505085
-0.440393
-0.382699
-0.328682
-0.281043
-0.236645
-0.197962
-0.16205
-0.131192
-0.102632
-0.078499
-0.0562148
-0.037783
-0.02079
-0.00713614
0.00544122
0.0151268
0.0240488
0.0304619
0.0363768
0.0401054
0.0435557
0.0450875
0.0465212
0.0462583
0.0460486
0.0443281
0.0427942
0.0399079
0.0373295
0.0335386
0.0301649
0.0257068
0.0217414
0.0167849
0.0119406
0.00731928
0.00221136
6.81775
6.81693
6.81505
6.81166
6.80699
6.80124
6.79469
6.78748
6.77982
6.77178
6.76355
6.75513
6.74667
6.73813
6.72965
6.72114
6.71277
6.70442
6.69626
6.68817
6.68032
6.67258
6.66514
6.65786
6.65094
6.64422
6.63794
6.6319
6.62637
6.62111
6.61643
6.61208
6.60836
6.60501
6.60237
6.60012
6.59864
6.59759
6.59737
6.5976
6.59872
6.60028
6.60279
6.60574
6.60968
6.61402
6.61937
6.62506
6.63175
6.63868
6.64656
6.65452
6.66331
6.67193
6.68117
6.68989
6.69889
6.70684
6.71455
6.72045
6.72532
6.72729
6.72706
6.72237
6.71371
6.69836
6.67638
6.6443
6.60144
6.54308
6.46718
6.36695
6.23809
6.07044
5.85643
5.58122
5.23383
4.79646
4.25976
3.61142
2.85476
1.98711
1.04429
0.077028
-0.874291
-1.79452
-2.66638
-3.47612
-4.20828
-4.85528
-5.41239
-5.88015
-6.26212
-6.56317
-6.7914
-6.95273
-7.05703
-7.10924
-7.11956
-7.09133
-7.0349
-6.95172
-6.85063
-6.73075
-6.60113
-6.46034
-6.31746
-6.17001
-6.02645
-5.88312
-5.74767
-5.61541
-5.49313
-5.37547
-5.26824
-5.16581
-5.07279
-4.98378
-4.90216
-4.82303
-4.74861
-4.67523
-4.60468
-4.53475
-4.46849
-4.40484
-4.34567
-4.28857
-4.23412
-4.17901
-4.12359
-4.06416
-4.00153
-3.93179
-3.85653
-3.77171
-3.67989
-3.57705
-3.46686
-3.34546
-3.21754
-3.07945
-2.93675
-2.78591
-2.63311
-2.47487
-2.31758
-2.1577
-2.00155
-1.84544
-1.69537
-1.5475
-1.40738
-1.27108
-1.14363
-1.02104
-0.907861
-0.800105
-0.701817
-0.609103
-0.52555
-0.447389
-0.377813
-0.313215
-0.25645
-0.204103
-0.158753
-0.117191
-0.0817709
-0.0494952
-0.0225385
0.00188842
0.0217535
0.0396501
0.0536586
0.0661918
0.07542
0.0835943
0.0889569
0.0936161
0.0958731
0.0977129
0.0974847
0.0970666
0.0948482
0.0926181
0.088801
0.0851137
0.0800107
0.0751567
0.0690281
0.0632536
0.0563265
0.049847
0.0423276
0.035317
0.0273381
0.0194839
0.0118009
0.0038348
6.85491
6.85384
6.85133
6.84689
6.84081
6.83346
6.82524
6.81638
6.80716
6.79768
6.78815
6.77857
6.7691
6.75967
6.75043
6.74128
6.73238
6.72359
6.71511
6.70678
6.69881
6.69105
6.68371
6.67663
6.67005
6.6638
6.65813
6.65284
6.64822
6.64404
6.64062
6.63771
6.63564
6.63414
6.63358
6.63365
6.63475
6.63655
6.63946
6.64314
6.64803
6.65375
6.66078
6.66868
6.67801
6.68824
6.69999
6.71267
6.72695
6.74215
6.75902
6.77676
6.79619
6.81639
6.83823
6.86065
6.88456
6.90872
6.9341
6.9592
6.98502
7.00978
7.03447
7.05696
7.07816
7.09549
7.10962
7.11735
7.11866
7.10937
7.08788
7.04802
6.98485
6.88734
6.74337
6.53016
6.21937
5.76621
5.11578
4.21956
3.03197
1.65448
0.233436
-1.09594
-2.30081
-3.40253
-4.40052
-5.2844
-6.0448
-6.68163
-7.19991
-7.6081
-7.9176
-8.13878
-8.28415
-8.36258
-8.38528
-8.35808
-8.28987
-8.18465
-8.0515
-7.89304
-7.7164
-7.52256
-7.3195
-7.10835
-6.89706
-6.68576
-6.48178
-6.28387
-6.09843
-5.92273
-5.76213
-5.61273
-5.47856
-5.35519
-5.24456
-5.14231
-5.04849
-4.95998
-4.88113
-4.81062
-4.74303
-4.67623
-4.61521
-4.56058
-4.5131
-4.46998
-4.42993
-4.38921
-4.34684
-4.29903
-4.24578
-4.1831
-4.11196
-4.0281
-3.93369
-3.82451
-3.70432
-3.5692
-3.42434
-3.26618
-3.10107
-2.92572
-2.74729
-2.56255
-2.37892
-2.19302
-2.01199
-1.83217
-1.66019
-1.49211
-1.33391
-1.18147
-1.04009
-0.905552
-0.782522
-0.666788
-0.562417
-0.465278
-0.378912
-0.299328
-0.229622
-0.165991
-0.111173
-0.0615869
-0.0196863
0.0178666
0.0488372
0.0763171
0.0982366
0.11745
0.132013
0.144557
0.153234
0.160474
0.164504
0.167576
0.167973
0.167796
0.165375
0.162679
0.158077
0.153426
0.147129
0.14095
0.13332
0.125931
0.117241
0.108886
0.0993462
0.0902227
0.0800101
0.0702832
0.0595581
0.0493605
0.0382135
0.0272122
0.0163485
0.00546822
6.89848
6.89692
6.89333
6.88707
6.87866
6.8688
6.85809
6.84691
6.8356
6.8243
6.81319
6.80227
6.79167
6.78129
6.77125
6.76144
6.752
6.74278
6.73396
6.7254
6.71729
6.70948
6.70221
6.6953
6.68901
6.68317
6.67804
6.67343
6.66963
6.66644
6.66417
6.66259
6.66202
6.66224
6.6636
6.66583
6.66931
6.67377
6.67961
6.68653
6.69498
6.70461
6.71593
6.72854
6.74301
6.75888
6.7768
6.79623
6.8179
6.84118
6.86688
6.8943
6.9243
6.95608
6.99058
7.02685
7.06594
7.1067
7.15026
7.19526
7.24291
7.29158
7.34256
7.39391
7.44705
7.49965
7.55324
7.60515
7.65682
7.70527
7.75148
7.79187
7.82587
7.84758
7.85074
7.81877
7.7203
7.49684
6.99181
6.02362
3.91928
1.2821
-1.03075
-2.82785
-4.25978
-5.44155
-6.40513
-7.17969
-7.78566
-8.24983
-8.59144
-8.83132
-8.98607
-9.0698
-9.09647
-9.07418
-9.01528
-8.92337
-8.80962
-8.6712
-8.51548
-8.33553
-8.14143
-7.92734
-7.70681
-7.47444
-7.2452
-7.01238
-6.79111
-6.57312
-6.37301
-6.1807
-6.01006
-5.8491
-5.71123
-5.58253
-5.47377
-5.37018
-5.27109
-5.15435
-5.00721
-4.90958
-4.81704
-4.72741
-4.65451
-4.60209
-4.56849
-4.54811
-4.53571
-4.52537
-4.51333
-4.49497
-4.46853
-4.42964
-4.37769
-4.30781
-4.22083
-4.11244
-3.98614
-3.8386
-3.67535
-3.49358
-3.30049
-3.09384
-2.88198
-2.66282
-2.44488
-2.22558
-2.01283
-1.80337
-1.60426
-1.41174
-1.23199
-1.06085
-0.903636
-0.756009
-0.622538
-0.49884
-0.388815
-0.288136
-0.200122
-0.120587
-0.0523803
0.00847901
0.0594993
0.104406
0.14097
0.172637
0.197365
0.218318
0.233585
0.246057
0.253917
0.259808
0.261978
0.262851
0.260723
0.257826
0.252497
0.246802
0.239112
0.231356
0.221931
0.212654
0.201945
0.191526
0.179841
0.168538
0.156083
0.144072
0.130987
0.118391
0.104779
0.0916898
0.0776396
0.0641212
0.0496562
0.0353386
0.021127
0.00709276
6.95112
6.94922
6.94383
6.93413
6.92145
6.90715
6.8922
6.87712
6.86234
6.84798
6.83421
6.82097
6.80835
6.79622
6.78467
6.77354
6.76296
6.75278
6.74317
6.73397
6.72539
6.71728
6.70986
6.70298
6.69688
6.6914
6.68681
6.68291
6.68001
6.67789
6.67688
6.67675
6.67783
6.6799
6.68331
6.68782
6.69381
6.70102
6.70988
6.72009
6.73213
6.74567
6.76126
6.77851
6.79805
6.81945
6.8434
6.86942
6.89829
6.92945
6.96377
7.00063
7.04099
7.08412
7.1311
7.18106
7.23519
7.29247
7.35418
7.4191
7.48864
7.56134
7.63872
7.71907
7.80412
7.89191
7.98453
8.07991
8.18079
8.28556
8.39819
8.51894
8.65432
8.80932
8.99596
9.22913
9.52744
9.93202
10.408
11.132
10.8285
5.83879
1.75509
-0.906127
-3.02357
-4.72162
-5.99776
-6.93924
-7.62631
-8.11765
-8.45697
-8.67892
-8.80899
-8.86708
-8.86808
-8.82372
-8.74331
-8.63386
-8.50135
-8.34922
-8.18071
-7.99705
-7.80124
-7.59371
-7.37782
-7.15526
-6.93107
-6.70803
-6.49192
-6.28477
-6.0912
-5.91206
-5.75093
-5.60785
-5.4861
-5.38655
-5.31189
-5.27519
-5.2607
-5.33037
-5.38764
-5.31406
-5.16583
-5.00996
-4.88292
-4.79287
-4.73661
-4.70545
-4.69195
-4.68775
-4.68841
-4.68831
-4.68485
-4.67244
-4.6477
-4.60257
-4.53416
-4.43625
-4.31179
-4.15764
-3.97909
-3.7735
-3.54892
-3.30464
-3.05107
-2.78821
-2.52641
-2.26444
-2.0111
-1.76382
-1.53025
-1.30709
-1.10065
-0.906748
-0.730555
-0.567615
-0.422281
-0.289998
-0.174366
-0.0708224
0.0176722
0.0955673