/*--------------------------------*- C++ -*----------------------------------*\
  =========                 |
  \\      /  F ield         | OpenFOAM: The Open Source CFD Toolbox
   \\    /   O peration     | Website:  https://openfoam.org
    \\  /    A nd           | Version:  10
     \\/     M anipulation  |
\*---------------------------------------------------------------------------*/
FoamFile
{
    format      ascii;
    class       surfaceScalarField;
    location    "0.009";
    object      phi;
}
// * * * * * * * * * * * * * * * * * * * * * * * * * * * * * * * * * * * * * //

dimensions      [0 3 -1 0 0 0 0];

internalField   nonuniform List<scalar> 
7780
(
2.50002e-09
-2.45248e-14
2.5001e-09
-9.1533e-14
2.50024e-09
-1.47306e-13
2.50043e-09
-2.00855e-13
2.50067e-09
-2.53731e-13
2.50096e-09
-3.06257e-13
2.50132e-09
-3.57964e-13
2.50171e-09
-4.09846e-13
2.50217e-09
-4.61101e-13
2.50266e-09
-5.12682e-13
2.50323e-09
-5.63608e-13
2.50382e-09
-6.15131e-13
2.50449e-09
-6.66053e-13
2.50518e-09
-7.17909e-13
2.50596e-09
-7.69264e-13
2.50675e-09
-8.2196e-13
2.50763e-09
-8.74305e-13
2.50853e-09
-9.28471e-13
2.50952e-09
-9.82484e-13
2.51053e-09
-1.03887e-12
2.51164e-09
-1.09536e-12
2.51275e-09
-1.15484e-12
2.51399e-09
-1.21471e-12
2.51522e-09
-1.27827e-12
2.51659e-09
-1.34258e-12
2.51796e-09
-1.41133e-12
2.51946e-09
-1.48123e-12
2.52097e-09
-1.5564e-12
2.52263e-09
-1.63317e-12
2.5243e-09
-1.71612e-12
2.52614e-09
-1.80117e-12
2.52797e-09
-1.89338e-12
2.53e-09
-1.98825e-12
2.53203e-09
-2.09134e-12
2.53428e-09
-2.19771e-12
2.53653e-09
-2.31343e-12
2.53901e-09
-2.4331e-12
2.54151e-09
-2.56335e-12
2.54426e-09
-2.69828e-12
2.54703e-09
-2.84507e-12
2.55009e-09
-2.99733e-12
2.55318e-09
-3.16278e-12
2.55658e-09
-3.33454e-12
2.56002e-09
-3.52087e-12
2.56381e-09
-3.71435e-12
2.56765e-09
-3.92382e-12
2.57187e-09
-4.14126e-12
2.57615e-09
-4.37607e-12
2.58086e-09
-4.61962e-12
2.58565e-09
-4.88183e-12
2.5909e-09
-5.15344e-12
2.59624e-09
-5.44486e-12
2.60209e-09
-5.74611e-12
2.60805e-09
-6.06807e-12
2.61456e-09
-6.39997e-12
2.6212e-09
-6.75311e-12
2.62844e-09
-7.11584e-12
2.63582e-09
-7.49981e-12
2.64384e-09
-7.8924e-12
2.65202e-09
-8.30551e-12
2.66088e-09
-8.72546e-12
2.66992e-09
-9.16431e-12
2.67967e-09
-9.6072e-12
2.68961e-09
-1.00663e-11
2.70029e-09
-1.05253e-11
2.71115e-09
-1.09965e-11
2.72277e-09
-1.14623e-11
2.73457e-09
-1.19347e-11
2.74713e-09
-1.23948e-11
2.75984e-09
-1.28545e-11
2.77332e-09
-1.32936e-11
2.7869e-09
-1.37238e-11
2.80121e-09
-1.41238e-11
2.81557e-09
-1.45054e-11
2.83062e-09
-1.48462e-11
2.84564e-09
-1.51584e-11
2.86126e-09
-1.54194e-11
2.87677e-09
-1.56415e-11
2.89278e-09
-1.58025e-11
2.90858e-09
-1.59156e-11
2.92475e-09
-1.59593e-11
2.9406e-09
-1.59479e-11
2.95667e-09
-1.58617e-11
2.97231e-09
-1.57157e-11
2.988e-09
-1.54932e-11
3.00316e-09
-1.52096e-11
3.01821e-09
-1.48514e-11
3.03262e-09
-1.44345e-11
3.04675e-09
-1.39487e-11
3.06018e-09
-1.34099e-11
3.07315e-09
-1.28114e-11
3.08537e-09
-1.21681e-11
3.09699e-09
-1.14769e-11
3.10783e-09
-1.07511e-11
3.11794e-09
-9.99079e-12
3.12727e-09
-9.20674e-12
3.13577e-09
-8.40237e-12
3.14351e-09
-7.58511e-12
3.15035e-09
-6.76132e-12
3.15647e-09
-5.93464e-12
3.16163e-09
-5.1141e-12
3.16615e-09
-4.29921e-12
3.16966e-09
-3.50144e-12
3.17263e-09
-2.71604e-12
3.17457e-09
-1.95673e-12
3.17607e-09
-1.21457e-12
3.17652e-09
-5.05451e-13
3.17664e-09
1.83447e-13
3.17573e-09
8.34455e-13
3.17458e-09
1.4644e-12
3.17243e-09
2.05455e-12
3.17013e-09
2.62596e-12
3.16685e-09
3.15831e-12
3.16352e-09
3.67505e-12
3.15922e-09
4.15394e-12
3.15495e-09
4.62059e-12
3.14973e-09
5.05099e-12
3.14462e-09
5.47255e-12
3.13857e-09
5.85963e-12
3.1327e-09
6.24115e-12
3.12591e-09
6.58981e-12
3.11934e-09
6.93584e-12
3.11188e-09
7.25031e-12
3.10469e-09
7.56461e-12
3.09661e-09
7.84816e-12
3.08887e-09
8.13347e-12
3.08023e-09
8.38825e-12
3.07198e-09
8.64618e-12
3.06285e-09
8.87317e-12
3.05416e-09
9.10423e-12
3.04458e-09
9.3034e-12
3.03549e-09
9.50711e-12
3.02553e-09
9.67753e-12
3.01611e-09
9.85267e-12
3.00581e-09
9.99278e-12
2.99612e-09
1.01376e-11
2.98555e-09
1.02456e-11
2.97566e-09
1.03582e-11
2.96489e-09
1.04321e-11
2.95485e-09
1.05108e-11
2.94394e-09
1.05491e-11
2.93383e-09
1.05926e-11
2.92287e-09
1.05943e-11
2.91276e-09
1.06018e-11
2.90181e-09
1.05669e-11
2.89176e-09
1.05387e-11
2.8809e-09
1.04678e-11
2.87099e-09
1.0405e-11
2.86028e-09
1.03e-11
2.85057e-09
1.02046e-11
2.84008e-09
1.00681e-11
2.83063e-09
9.94317e-12
2.82042e-09
9.77854e-12
2.81128e-09
9.62758e-12
2.8014e-09
9.43891e-12
2.79261e-09
9.26604e-12
2.78312e-09
9.05776e-12
2.77471e-09
8.8674e-12
2.76563e-09
8.64413e-12
2.75764e-09
8.44079e-12
2.749e-09
8.20715e-12
2.74144e-09
7.99525e-12
2.73325e-09
7.75566e-12
2.72613e-09
7.53941e-12
2.71841e-09
7.29797e-12
2.71173e-09
7.08116e-12
2.70448e-09
6.84155e-12
2.69824e-09
6.62758e-12
2.69144e-09
6.39295e-12
2.68562e-09
6.1847e-12
2.67927e-09
5.95772e-12
2.67387e-09
5.75757e-12
2.66794e-09
5.54037e-12
2.66294e-09
5.3502e-12
2.65742e-09
5.14441e-12
2.65279e-09
4.96565e-12
2.64765e-09
4.77247e-12
2.64336e-09
4.60613e-12
2.63858e-09
4.42634e-12
2.63462e-09
4.27308e-12
2.63017e-09
4.10713e-12
2.62651e-09
3.96731e-12
2.62236e-09
3.81539e-12
2.61897e-09
3.68909e-12
2.61509e-09
3.55116e-12
2.61195e-09
3.43835e-12
2.60832e-09
3.31424e-12
2.60539e-09
3.21475e-12
2.60198e-09
3.10417e-12
2.59924e-09
3.01772e-12
2.59602e-09
2.92025e-12
2.59345e-09
2.84651e-12
2.59039e-09
2.76172e-12
2.58797e-09
2.70028e-12
2.58504e-09
2.6277e-12
2.58274e-09
2.57776e-12
2.58009e-09
2.51749e-12
2.57756e-09
2.47366e-12
2.57512e-09
2.43729e-12
2.38379e-12
2.50002e-09
-4.9421e-14
2.5001e-09
-1.84462e-13
2.50024e-09
-2.96274e-13
2.50043e-09
-4.03106e-13
2.50068e-09
-5.08993e-13
2.50097e-09
-6.13672e-13
2.50132e-09
-7.17377e-13
2.50172e-09
-8.20762e-13
2.50218e-09
-9.23721e-13
2.50267e-09
-1.02642e-12
2.50323e-09
-1.1288e-12
2.50383e-09
-1.23122e-12
2.5045e-09
-1.33363e-12
2.50519e-09
-1.43649e-12
2.50596e-09
-1.53978e-12
2.50676e-09
-1.64406e-12
2.50764e-09
-1.74934e-12
2.50854e-09
-1.85629e-12
2.50953e-09
-1.96492e-12
2.51053e-09
-2.07603e-12
2.51164e-09
-2.18963e-12
2.51276e-09
-2.30664e-12
2.51398e-09
-2.42708e-12
2.51522e-09
-2.55197e-12
2.51657e-09
-2.68134e-12
2.51794e-09
-2.81635e-12
2.51943e-09
-2.957e-12
2.52094e-09
-3.10458e-12
2.52259e-09
-3.25911e-12
2.52425e-09
-3.422e-12
2.52607e-09
-3.59325e-12
2.5279e-09
-3.77441e-12
2.52991e-09
-3.96549e-12
2.53194e-09
-4.16818e-12
2.53416e-09
-4.38248e-12
2.5364e-09
-4.61021e-12
2.53886e-09
-4.85138e-12
2.54135e-09
-5.10796e-12
2.54407e-09
-5.37994e-12
2.54684e-09
-5.66941e-12
2.54986e-09
-5.97637e-12
2.55294e-09
-6.30303e-12
2.55631e-09
-6.64936e-12
2.55974e-09
-7.01767e-12
2.56349e-09
-7.4079e-12
2.56732e-09
-7.82242e-12
2.5715e-09
-8.26109e-12
2.57578e-09
-8.72633e-12
2.58045e-09
-9.21784e-12
2.58523e-09
-9.73805e-12
2.59044e-09
-1.02865e-11
2.59578e-09
-1.08654e-11
2.60159e-09
-1.1474e-11
2.60755e-09
-1.21146e-11
2.61402e-09
-1.27857e-11
2.62067e-09
-1.34893e-11
2.62787e-09
-1.42236e-11
2.63527e-09
-1.499e-11
2.64327e-09
-1.57858e-11
2.65148e-09
-1.66118e-11
2.66033e-09
-1.74646e-11
2.66941e-09
-1.83438e-11
2.67916e-09
-1.9245e-11
2.68916e-09
-2.01667e-11
2.69986e-09
-2.1103e-11
2.71081e-09
-2.20514e-11
2.72248e-09
-2.30042e-11
2.7344e-09
-2.39573e-11
2.74704e-09
-2.49017e-11
2.75992e-09
-2.58317e-11
2.7735e-09
-2.67366e-11
2.78728e-09
-2.76092e-11
2.80175e-09
-2.84378e-11
2.81635e-09
-2.92138e-11
2.83159e-09
-2.99246e-11
2.8469e-09
-3.05613e-11
2.86275e-09
-3.11112e-11
2.87859e-09
-3.15655e-11
2.89487e-09
-3.19125e-11
2.91102e-09
-3.21446e-11
2.92749e-09
-3.22522e-11
2.94371e-09
-3.22299e-11
2.96009e-09
-3.20711e-11
2.97611e-09
-3.17737e-11
2.99213e-09
-3.13348e-11
3.00765e-09
-3.0756e-11
3.02301e-09
-3.00384e-11
3.03777e-09
-2.91875e-11
3.05219e-09
-2.82084e-11
3.06593e-09
-2.711e-11
3.07917e-09
-2.59004e-11
3.09166e-09
-2.45915e-11
3.10352e-09
-2.31936e-11
3.11459e-09
-2.17202e-11
3.1249e-09
-2.01832e-11
3.13442e-09
-1.85963e-11
3.1431e-09
-1.69719e-11
3.15099e-09
-1.53234e-11
3.15798e-09
-1.36623e-11
3.16423e-09
-1.2001e-11
3.16953e-09
-1.03496e-11
3.17416e-09
-8.71845e-12
3.17782e-09
-7.1162e-12
3.18088e-09
-5.55066e-12
3.18298e-09
-4.02859e-12
3.18457e-09
-2.55538e-12
3.18519e-09
-1.13574e-12
3.18541e-09
2.27171e-13
3.1847e-09
1.53e-12
3.18366e-09
2.77281e-12
3.18172e-09
3.95508e-12
3.17955e-09
5.07975e-12
3.17649e-09
6.14716e-12
3.1733e-09
7.16133e-12
3.16925e-09
8.12268e-12
3.16513e-09
9.03606e-12
3.16018e-09
9.90172e-12
3.15522e-09
1.07251e-11
3.14946e-09
1.1506e-11
3.14375e-09
1.22501e-11
3.13726e-09
1.29565e-11
3.13087e-09
1.36311e-11
3.1237e-09
1.42718e-11
3.11669e-09
1.48846e-11
3.10892e-09
1.54665e-11
3.10135e-09
1.60231e-11
3.09302e-09
1.65505e-11
3.08493e-09
1.7054e-11
3.0761e-09
1.75289e-11
3.06755e-09
1.79802e-11
3.05827e-09
1.84022e-11
3.04931e-09
1.87999e-11
3.03963e-09
1.91669e-11
3.03032e-09
1.95081e-11
3.02029e-09
1.98166e-11
3.01068e-09
2.00972e-11
3.00036e-09
2.0343e-11
2.99053e-09
2.05589e-11
2.97999e-09
2.07377e-11
2.96999e-09
2.08849e-11
2.9593e-09
2.09932e-11
2.9492e-09
2.10686e-11
2.93843e-09
2.11042e-11
2.92832e-09
2.11063e-11
2.91754e-09
2.10684e-11
2.90747e-09
2.09977e-11
2.89676e-09
2.08877e-11
2.88681e-09
2.07463e-11
2.87625e-09
2.05675e-11
2.86648e-09
2.03599e-11
2.85612e-09
2.01176e-11
2.8466e-09
1.98497e-11
2.83651e-09
1.95508e-11
2.82728e-09
1.92302e-11
2.81752e-09
1.88826e-11
2.80863e-09
1.85179e-11
2.79923e-09
1.81307e-11
2.79072e-09
1.7731e-11
2.78173e-09
1.73135e-11
2.77362e-09
1.6888e-11
2.76505e-09
1.64494e-11
2.75737e-09
1.60074e-11
2.74924e-09
1.55566e-11
2.74199e-09
1.51065e-11
2.73431e-09
1.46517e-11
2.7275e-09
1.42014e-11
2.72027e-09
1.37499e-11
2.71388e-09
1.3306e-11
2.7071e-09
1.28641e-11
2.70113e-09
1.24326e-11
2.69478e-09
1.20055e-11
2.68921e-09
1.1591e-11
2.68327e-09
1.1183e-11
2.67809e-09
1.07892e-11
2.67254e-09
1.04034e-11
2.66772e-09
1.00331e-11
2.66254e-09
9.67189e-12
2.65806e-09
9.32686e-12
2.65322e-09
8.99177e-12
2.64905e-09
8.67328e-12
2.64453e-09
8.36514e-12
2.64065e-09
8.07376e-12
2.63641e-09
7.79292e-12
2.63279e-09
7.52875e-12
2.62882e-09
7.27508e-12
2.62544e-09
7.0379e-12
2.6217e-09
6.81105e-12
2.61853e-09
6.60038e-12
2.61499e-09
6.39975e-12
2.61201e-09
6.21492e-12
2.60865e-09
6.03979e-12
2.60583e-09
5.88007e-12
2.60263e-09
5.72966e-12
2.59995e-09
5.59423e-12
2.59688e-09
5.46777e-12
2.59431e-09
5.35562e-12
2.5915e-09
5.25328e-12
2.58873e-09
5.16007e-12
2.58607e-09
5.09247e-12
4.98146e-12
2.50002e-09
-7.44395e-14
2.5001e-09
-2.76927e-13
2.50024e-09
-4.44772e-13
2.50043e-09
-6.05033e-13
2.50068e-09
-7.63873e-13
2.50097e-09
-9.20758e-13
2.50132e-09
-1.07619e-12
2.50171e-09
-1.23097e-12
2.50217e-09
-1.38511e-12
2.50267e-09
-1.53865e-12
2.50323e-09
-1.69171e-12
2.50382e-09
-1.84455e-12
2.50448e-09
-1.99741e-12
2.50517e-09
-2.15061e-12
2.50594e-09
-2.3045e-12
2.50673e-09
-2.45952e-12
2.5076e-09
-2.61609e-12
2.50849e-09
-2.77477e-12
2.50947e-09
-2.93607e-12
2.51047e-09
-3.10064e-12
2.51155e-09
-3.2691e-12
2.51266e-09
-3.44217e-12
2.51386e-09
-3.62058e-12
2.51508e-09
-3.80513e-12
2.51641e-09
-3.99664e-12
2.51775e-09
-4.19601e-12
2.51922e-09
-4.40414e-12
2.5207e-09
-4.62203e-12
2.52231e-09
-4.85068e-12
2.52394e-09
-5.09117e-12
2.52571e-09
-5.3446e-12
2.5275e-09
-5.61217e-12
2.52946e-09
-5.89506e-12
2.53144e-09
-6.19458e-12
2.5336e-09
-6.51202e-12
2.53579e-09
-6.84878e-12
2.53818e-09
-7.20628e-12
2.54061e-09
-7.58602e-12
2.54326e-09
-7.98951e-12
2.54595e-09
-8.41834e-12
2.54889e-09
-8.87416e-12
2.55189e-09
-9.35861e-12
2.55516e-09
-9.87341e-12
2.5585e-09
-1.04203e-11
2.56215e-09
-1.1001e-11
2.56588e-09
-1.16173e-11
2.56995e-09
-1.2271e-11
2.57412e-09
-1.29637e-11
2.57866e-09
-1.36972e-11
2.58333e-09
-1.44731e-11
2.58841e-09
-1.52929e-11
2.59362e-09
-1.61579e-11
2.59929e-09
-1.70694e-11
2.60513e-09
-1.80285e-11
2.61146e-09
-1.90358e-11
2.61798e-09
-2.00919e-11
2.62505e-09
-2.11967e-11
2.63232e-09
-2.235e-11
2.64018e-09
-2.35508e-11
2.64828e-09
-2.47977e-11
2.65701e-09
-2.60885e-11
2.66599e-09
-2.74204e-11
2.67564e-09
-2.87894e-11
2.68557e-09
-3.0191e-11
2.69621e-09
-3.16193e-11
2.70712e-09
-3.30676e-11
2.71877e-09
-3.45278e-11
2.7307e-09
-3.59905e-11
2.74338e-09
-3.74452e-11
2.75633e-09
-3.888e-11
2.77001e-09
-4.02818e-11
2.78393e-09
-4.16362e-11
2.79857e-09
-4.29281e-11
2.8134e-09
-4.41407e-11
2.82888e-09
-4.52576e-11
2.84449e-09
-4.62609e-11
2.86067e-09
-4.71337e-11
2.87688e-09
-4.78584e-11
2.89355e-09
-4.84194e-11
2.91013e-09
-4.88009e-11
2.92703e-09
-4.89906e-11
2.94372e-09
-4.8976e-11
2.96057e-09
-4.875e-11
2.97706e-09
-4.83053e-11
2.99353e-09
-4.76408e-11
3.00952e-09
-4.67556e-11
3.0253e-09
-4.56551e-11
3.04046e-09
-4.43449e-11
3.05525e-09
-4.28364e-11
3.06932e-09
-4.11413e-11
3.08285e-09
-3.92759e-11
3.09558e-09
-3.72564e-11
3.10763e-09
-3.51024e-11
3.11884e-09
-3.28332e-11
3.12925e-09
-3.04696e-11
3.13882e-09
-2.80324e-11
3.1475e-09
-2.55421e-11
3.15535e-09
-2.30189e-11
3.16226e-09
-2.04819e-11
3.1684e-09
-1.79495e-11
3.17355e-09
-1.54378e-11
3.17801e-09
-1.29628e-11
3.18147e-09
-1.05369e-11
3.18433e-09
-8.173e-12
3.1862e-09
-5.87965e-12
3.18756e-09
-3.66644e-12
3.18797e-09
-1.53792e-12
3.18795e-09
4.98733e-13
3.18702e-09
2.44211e-12
3.18577e-09
4.29111e-12
3.18364e-09
6.04896e-12
3.18128e-09
7.71692e-12
3.17807e-09
9.29933e-12
3.17471e-09
1.07988e-11
3.17054e-09
1.22203e-11
3.16629e-09
1.35675e-11
3.16125e-09
1.48454e-11
3.15621e-09
1.60581e-11
3.1504e-09
1.72103e-11
3.14463e-09
1.83062e-11
3.13811e-09
1.93494e-11
3.13169e-09
2.03441e-11
3.12454e-09
2.12926e-11
3.11752e-09
2.21985e-11
3.10978e-09
2.3063e-11
3.10221e-09
2.3889e-11
3.09393e-09
2.46763e-11
3.08586e-09
2.54269e-11
3.07709e-09
2.61397e-11
3.06856e-09
2.68159e-11
3.05934e-09
2.74534e-11
3.05041e-09
2.80525e-11
3.04078e-09
2.86107e-11
3.03149e-09
2.91276e-11
3.02152e-09
2.96003e-11
3.01193e-09
3.00281e-11
3.00166e-09
3.04081e-11
2.99183e-09
3.07394e-11
2.98133e-09
3.10195e-11
2.97133e-09
3.12474e-11
2.96067e-09
3.14214e-11
2.95056e-09
3.15408e-11
2.93982e-09
3.16046e-11
2.92968e-09
3.16125e-11
2.91893e-09
3.15647e-11
2.90884e-09
3.14615e-11
2.89816e-09
3.13038e-11
2.88819e-09
3.10928e-11
2.87764e-09
3.08304e-11
2.86786e-09
3.05182e-11
2.85753e-09
3.0159e-11
2.84799e-09
2.97551e-11
2.83793e-09
2.93098e-11
2.82869e-09
2.88258e-11
2.81896e-09
2.83069e-11
2.81007e-09
2.77562e-11
2.80072e-09
2.71775e-11
2.79221e-09
2.65742e-11
2.78326e-09
2.595e-11
2.77517e-09
2.53085e-11
2.76665e-09
2.46532e-11
2.75899e-09
2.39874e-11
2.75092e-09
2.33144e-11
2.74369e-09
2.26373e-11
2.73607e-09
2.19591e-11
2.72928e-09
2.12826e-11
2.72212e-09
2.06102e-11
2.71575e-09
1.99445e-11
2.70903e-09
1.92873e-11
2.70309e-09
1.8641e-11
2.69679e-09
1.80068e-11
2.69125e-09
1.73868e-11
2.68537e-09
1.67819e-11
2.6802e-09
1.61936e-11
2.67471e-09
1.56225e-11
2.66991e-09
1.50699e-11
2.66477e-09
1.45359e-11
2.6603e-09
1.40217e-11
2.65551e-09
1.35269e-11
2.65135e-09
1.30526e-11
2.64686e-09
1.25982e-11
2.64298e-09
1.21646e-11
2.63878e-09
1.1751e-11
2.63516e-09
1.1358e-11
2.63121e-09
1.09848e-11
2.62782e-09
1.06321e-11
2.62411e-09
1.02986e-11
2.62092e-09
9.98523e-12
2.61741e-09
9.69065e-12
2.61441e-09
9.41553e-12
2.61106e-09
9.15866e-12
2.60822e-09
8.92066e-12
2.60503e-09
8.70029e-12
2.60232e-09
8.4982e-12
2.59926e-09
8.31314e-12
2.59667e-09
8.14555e-12
2.59386e-09
7.9955e-12
2.59108e-09
7.85705e-12
2.58841e-09
7.75723e-12
7.5844e-12
2.50002e-09
-9.94878e-14
2.5001e-09
-3.69251e-13
2.50024e-09
-5.93138e-13
2.50043e-09
-8.06921e-13
2.50068e-09
-1.01871e-12
2.50097e-09
-1.22773e-12
2.50132e-09
-1.43466e-12
2.50171e-09
-1.6405e-12
2.50217e-09
-1.84531e-12
2.50266e-09
-2.04905e-12
2.50322e-09
-2.25194e-12
2.50381e-09
-2.45424e-12
2.50447e-09
-2.65631e-12
2.50515e-09
-2.85854e-12
2.50591e-09
-3.06143e-12
2.5067e-09
-3.26549e-12
2.50755e-09
-3.47136e-12
2.50843e-09
-3.6797e-12
2.50939e-09
-3.89127e-12
2.51037e-09
-4.10686e-12
2.51144e-09
-4.32736e-12
2.51252e-09
-4.55366e-12
2.5137e-09
-4.7868e-12
2.51489e-09
-5.02778e-12
2.51618e-09
-5.27776e-12
2.51749e-09
-5.53786e-12
2.51891e-09
-5.80936e-12
2.52034e-09
-6.0935e-12
2.5219e-09
-6.39169e-12
2.52348e-09
-6.7053e-12
2.52519e-09
-7.03588e-12
2.52692e-09
-7.3849e-12
2.52881e-09
-7.75409e-12
2.53071e-09
-8.14503e-12
2.53279e-09
-8.55962e-12
2.53489e-09
-8.99956e-12
2.53719e-09
-9.46692e-12
2.53952e-09
-9.96353e-12
2.54206e-09
-1.04916e-11
2.54464e-09
-1.10532e-11
2.54746e-09
-1.16505e-11
2.55033e-09
-1.22858e-11
2.55346e-09
-1.29615e-11
2.55666e-09
-1.36798e-11
2.56016e-09
-1.44434e-11
2.56373e-09
-1.52543e-11
2.56764e-09
-1.61154e-11
2.57163e-09
-1.70288e-11
2.576e-09
-1.79972e-11
2.58048e-09
-1.90226e-11
2.58536e-09
-2.01075e-11
2.59039e-09
-2.12537e-11
2.59586e-09
-2.24634e-11
2.60149e-09
-2.37379e-11
2.60761e-09
-2.5079e-11
2.61393e-09
-2.64871e-11
2.62078e-09
-2.79632e-11
2.62786e-09
-2.95069e-11
2.63552e-09
-3.11177e-11
2.64343e-09
-3.27939e-11
2.65197e-09
-3.45334e-11
2.66079e-09
-3.63326e-11
2.6703e-09
-3.81872e-11
2.68011e-09
-4.00911e-11
2.69064e-09
-4.20374e-11
2.70149e-09
-4.40171e-11
2.71311e-09
-4.60198e-11
2.72505e-09
-4.80332e-11
2.73778e-09
-5.00432e-11
2.75083e-09
-5.20334e-11
2.76467e-09
-5.39863e-11
2.77882e-09
-5.58814e-11
2.79373e-09
-5.76977e-11
2.8089e-09
-5.94113e-11
2.82479e-09
-6.09987e-11
2.84087e-09
-6.24335e-11
2.85758e-09
-6.36916e-11
2.87438e-09
-6.47461e-11
2.8917e-09
-6.55746e-11
2.90897e-09
-6.61524e-11
2.92661e-09
-6.64616e-11
2.94405e-09
-6.64828e-11
2.96167e-09
-6.62053e-11
2.97894e-09
-6.56176e-11
2.99619e-09
-6.47184e-11
3.01292e-09
-6.35058e-11
3.02942e-09
-6.19883e-11
3.04526e-09
-6.01741e-11
3.06066e-09
-5.80808e-11
3.07528e-09
-5.57256e-11
3.0893e-09
-5.31331e-11
3.10243e-09
-5.03273e-11
3.11481e-09
-4.73372e-11
3.12627e-09
-4.41913e-11
3.13685e-09
-4.092e-11
3.1465e-09
-3.75534e-11
3.15519e-09
-3.4121e-11
3.16299e-09
-3.0652e-11
3.16977e-09
-2.7173e-11
3.17572e-09
-2.37102e-11
3.18064e-09
-2.02858e-11
3.18482e-09
-1.69222e-11
3.18796e-09
-1.36357e-11
3.19047e-09
-1.0444e-11
3.19197e-09
-7.35791e-12
3.19295e-09
-4.39003e-12
3.19295e-09
-1.54516e-12
3.19255e-09
1.16672e-12
3.19122e-09
3.74644e-12
3.18959e-09
6.19398e-12
3.18708e-09
8.51531e-12
3.18437e-09
1.07124e-11
3.18081e-09
1.27921e-11
3.17713e-09
1.47584e-11
3.17265e-09
1.66192e-11
3.16812e-09
1.83799e-11
3.16282e-09
2.00481e-11
3.15753e-09
2.16302e-11
3.15149e-09
2.31328e-11
3.14552e-09
2.45624e-11
3.13882e-09
2.59242e-11
3.13222e-09
2.72242e-11
3.12492e-09
2.8466e-11
3.11775e-09
2.96544e-11
3.10987e-09
3.07912e-11
3.10217e-09
3.18803e-11
3.09377e-09
3.29214e-11
3.08558e-09
3.39173e-11
3.07669e-09
3.4866e-11
3.06805e-09
3.5769e-11
3.05871e-09
3.66232e-11
3.04965e-09
3.74286e-11
3.0399e-09
3.81815e-11
3.03047e-09
3.88809e-11
3.02036e-09
3.95228e-11
3.01062e-09
4.01053e-11
3.00021e-09
4.06246e-11
2.99022e-09
4.10785e-11
2.97956e-09
4.14639e-11
2.96939e-09
4.17783e-11
2.95857e-09
4.20199e-11
2.94829e-09
4.21866e-11
2.93738e-09
4.22778e-11
2.92707e-09
4.22921e-11
2.91615e-09
4.22304e-11
2.9059e-09
4.2092e-11
2.89506e-09
4.18796e-11
2.88493e-09
4.15933e-11
2.87425e-09
4.1237e-11
2.86433e-09
4.0812e-11
2.85387e-09
4.03233e-11
2.84422e-09
3.97729e-11
2.83407e-09
3.91668e-11
2.82474e-09
3.85076e-11
2.81494e-09
3.78017e-11
2.806e-09
3.70524e-11
2.7966e-09
3.62663e-11
2.78806e-09
3.54469e-11
2.7791e-09
3.46005e-11
2.771e-09
3.37309e-11
2.7625e-09
3.28441e-11
2.75485e-09
3.19436e-11
2.74682e-09
3.10349e-11
2.73963e-09
3.01214e-11
2.73208e-09
2.92079e-11
2.72534e-09
2.82974e-11
2.71826e-09
2.73939e-11
2.71197e-09
2.65001e-11
2.70534e-09
2.56193e-11
2.69949e-09
2.47537e-11
2.6933e-09
2.39058e-11
2.68786e-09
2.30774e-11
2.68209e-09
2.22705e-11
2.67703e-09
2.14863e-11
2.67166e-09
2.07262e-11
2.66696e-09
1.99912e-11
2.66195e-09
1.9282e-11
2.6576e-09
1.85994e-11
2.65292e-09
1.79436e-11
2.64887e-09
1.73152e-11
2.64451e-09
1.67139e-11
2.64074e-09
1.61404e-11
2.63665e-09
1.55939e-11
2.63314e-09
1.5075e-11
2.62931e-09
1.45827e-11
2.62603e-09
1.41174e-11
2.62242e-09
1.36782e-11
2.61934e-09
1.32653e-11
2.61593e-09
1.28776e-11
2.61303e-09
1.25155e-11
2.60979e-09
1.21779e-11
2.60704e-09
1.18649e-11
2.60394e-09
1.15755e-11
2.60133e-09
1.13099e-11
2.59836e-09
1.10671e-11
2.59585e-09
1.08469e-11
2.59313e-09
1.06501e-11
2.59044e-09
1.04685e-11
2.58785e-09
1.03385e-11
1.01097e-11
2.50002e-09
-1.24631e-13
2.5001e-09
-4.61613e-13
2.50024e-09
-7.41715e-13
2.50043e-09
-1.00921e-12
2.50068e-09
-1.27403e-12
2.50097e-09
-1.53516e-12
2.50133e-09
-1.79337e-12
2.50172e-09
-2.0499e-12
2.50217e-09
-2.30477e-12
2.50267e-09
-2.55792e-12
2.50322e-09
-2.80958e-12
2.50381e-09
-3.06008e-12
2.50446e-09
-3.30983e-12
2.50514e-09
-3.55931e-12
2.50589e-09
-3.80914e-12
2.50666e-09
-4.05996e-12
2.50751e-09
-4.31256e-12
2.50837e-09
-4.56775e-12
2.50931e-09
-4.8265e-12
2.51026e-09
-5.08977e-12
2.5113e-09
-5.35868e-12
2.51236e-09
-5.63434e-12
2.5135e-09
-5.91804e-12
2.51465e-09
-6.21104e-12
2.5159e-09
-6.51476e-12
2.51716e-09
-6.8306e-12
2.51853e-09
-7.16017e-12
2.5199e-09
-7.50499e-12
2.5214e-09
-7.86684e-12
2.5229e-09
-8.2474e-12
2.52453e-09
-8.64861e-12
2.52618e-09
-9.07231e-12
2.52797e-09
-9.52065e-12
2.52978e-09
-9.99561e-12
2.53175e-09
-1.04996e-11
2.53374e-09
-1.10346e-11
2.53591e-09
-1.16034e-11
2.5381e-09
-1.22082e-11
2.5405e-09
-1.28519e-11
2.54293e-09
-1.35369e-11
2.54559e-09
-1.42662e-11
2.54829e-09
-1.50426e-11
2.55125e-09
-1.58692e-11
2.55426e-09
-1.67489e-11
2.55756e-09
-1.7685e-11
2.56092e-09
-1.86805e-11
2.5646e-09
-1.97388e-11
2.56837e-09
-2.0863e-11
2.57249e-09
-2.20565e-11
2.57672e-09
-2.33221e-11
2.58135e-09
-2.46634e-11
2.5861e-09
-2.60829e-11
2.5913e-09
-2.75839e-11
2.59665e-09
-2.91683e-11
2.6025e-09
-3.08389e-11
2.60853e-09
-3.25969e-11
2.6151e-09
-3.44442e-11
2.62189e-09
-3.63809e-11
2.62927e-09
-3.84073e-11
2.63691e-09
-4.05221e-11
2.64521e-09
-4.27234e-11
2.65379e-09
-4.50077e-11
2.66308e-09
-4.73706e-11
2.6727e-09
-4.98054e-11
2.68309e-09
-5.23041e-11
2.69383e-09
-5.48565e-11
2.70538e-09
-5.74499e-11
2.71732e-09
-6.00694e-11
2.7301e-09
-6.26975e-11
2.74328e-09
-6.53137e-11
2.75732e-09
-6.78949e-11
2.77175e-09
-7.04147e-11
2.78704e-09
-7.28449e-11
2.80268e-09
-7.51534e-11
2.81914e-09
-7.73075e-11
2.83587e-09
-7.92711e-11
2.85334e-09
-8.10094e-11
2.87098e-09
-8.24847e-11
2.88924e-09
-8.36638e-11
2.9075e-09
-8.45113e-11
2.92621e-09
-8.5e-11
2.94475e-09
-8.51018e-11
2.96352e-09
-8.47998e-11
2.98192e-09
-8.40777e-11
3.00031e-09
-8.29325e-11
3.01813e-09
-8.13619e-11
3.03569e-09
-7.9378e-11
3.05251e-09
-7.69932e-11
3.06882e-09
-7.4233e-11
3.08425e-09
-7.11226e-11
3.09897e-09
-6.76976e-11
3.1127e-09
-6.39926e-11
3.12556e-09
-6.0049e-11
3.13738e-09
-5.59067e-11
3.1482e-09
-5.1609e-11
3.15797e-09
-4.71972e-11
3.16668e-09
-4.27125e-11
3.17439e-09
-3.81942e-11
3.18099e-09
-3.36786e-11
3.18668e-09
-2.92005e-11
3.19125e-09
-2.47892e-11
3.19502e-09
-2.04736e-11
3.19771e-09
-1.62749e-11
3.19972e-09
-1.22148e-11
3.20069e-09
-8.30664e-12
3.20113e-09
-4.56502e-12
3.20058e-09
-9.9534e-13
3.19962e-09
2.39089e-12
3.19774e-09
5.59928e-12
3.19558e-09
8.63218e-12
3.19255e-09
1.14983e-11
3.18934e-09
1.42015e-11
3.18531e-09
1.67521e-11
3.18119e-09
1.91566e-11
3.1763e-09
2.14263e-11
3.17138e-09
2.35694e-11
3.16573e-09
2.55971e-11
3.16012e-09
2.75184e-11
3.15379e-09
2.93429e-11
3.14754e-09
3.10796e-11
3.1406e-09
3.2736e-11
3.13378e-09
3.43201e-11
3.12627e-09
3.58369e-11
3.11891e-09
3.7293e-11
3.11086e-09
3.86907e-11
3.10298e-09
4.00348e-11
3.09443e-09
4.1325e-11
3.08607e-09
4.25645e-11
3.07702e-09
4.37504e-11
3.0682e-09
4.48842e-11
3.0587e-09
4.59614e-11
3.04945e-09
4.69816e-11
3.03952e-09
4.79392e-11
3.02989e-09
4.88323e-11
3.01957e-09
4.96551e-11
3.00961e-09
5.04044e-11
2.99897e-09
5.10747e-11
2.98874e-09
5.16625e-11
2.97782e-09
5.2163e-11
2.9674e-09
5.25727e-11
2.9563e-09
5.28885e-11
2.94576e-09
5.31075e-11
2.93457e-09
5.32284e-11
2.92399e-09
5.32492e-11
2.9128e-09
5.31708e-11
2.90228e-09
5.29925e-11
2.89118e-09
5.27174e-11
2.88081e-09
5.23461e-11
2.86988e-09
5.18835e-11
2.85974e-09
5.13316e-11
2.84908e-09
5.0697e-11
2.83924e-09
4.99828e-11
2.82891e-09
4.91966e-11
2.81944e-09
4.83425e-11
2.8095e-09
4.74288e-11
2.80045e-09
4.64601e-11
2.79096e-09
4.54451e-11
2.78235e-09
4.43885e-11
2.77334e-09
4.32989e-11
2.76521e-09
4.2181e-11
2.7567e-09
4.10428e-11
2.74906e-09
3.9889e-11
2.74106e-09
3.87267e-11
2.73392e-09
3.75602e-11
2.72642e-09
3.63957e-11
2.71976e-09
3.5237e-11
2.71276e-09
3.40893e-11
2.70658e-09
3.29558e-11
2.70006e-09
3.18406e-11
2.69432e-09
3.07466e-11
2.68826e-09
2.96767e-11
2.68295e-09
2.86332e-11
2.67732e-09
2.76183e-11
2.67241e-09
2.66336e-11
2.66718e-09
2.56804e-11
2.66264e-09
2.47602e-11
2.65778e-09
2.38735e-11
2.65358e-09
2.30213e-11
2.64906e-09
2.22036e-11
2.64517e-09
2.1421e-11
2.64096e-09
2.06732e-11
2.63734e-09
1.99606e-11
2.63341e-09
1.92825e-11
2.63005e-09
1.86392e-11
2.62637e-09
1.80296e-11
2.62324e-09
1.74539e-11
2.61978e-09
1.6911e-11
2.61684e-09
1.64011e-11
2.61357e-09
1.59228e-11
2.61081e-09
1.54764e-11
2.60771e-09
1.50604e-11
2.60509e-09
1.46752e-11
2.60213e-09
1.43192e-11
2.59964e-09
1.39928e-11
2.5968e-09
1.36946e-11
2.59441e-09
1.34246e-11
2.59181e-09
1.31833e-11
2.58924e-09
1.29609e-11
2.58677e-09
1.2802e-11
1.25206e-11
2.50002e-09
-1.50211e-13
2.5001e-09
-5.54533e-13
2.50024e-09
-8.913e-13
2.50043e-09
-1.21295e-12
2.50069e-09
-1.53112e-12
2.50098e-09
-1.84449e-12
2.50134e-09
-2.1539e-12
2.50173e-09
-2.46079e-12
2.50219e-09
-2.76513e-12
2.50268e-09
-3.06678e-12
2.50323e-09
-3.366e-12
2.50382e-09
-3.66316e-12
2.50447e-09
-3.95874e-12
2.50514e-09
-4.2533e-12
2.50588e-09
-4.54756e-12
2.50664e-09
-4.84229e-12
2.50747e-09
-5.13845e-12
2.50831e-09
-5.43699e-12
2.50923e-09
-5.73908e-12
2.51016e-09
-6.04585e-12
2.51117e-09
-6.35867e-12
2.51218e-09
-6.67885e-12
2.51329e-09
-7.00794e-12
2.51439e-09
-7.34742e-12
2.51559e-09
-7.69901e-12
2.51679e-09
-8.06438e-12
2.51809e-09
-8.44543e-12
2.51939e-09
-8.84399e-12
2.52081e-09
-9.26217e-12
2.52223e-09
-9.70197e-12
2.52377e-09
-1.01657e-11
2.52531e-09
-1.06556e-11
2.52699e-09
-1.11742e-11
2.52867e-09
-1.17238e-11
2.53051e-09
-1.23074e-11
2.53236e-09
-1.29274e-11
2.53438e-09
-1.35871e-11
2.53641e-09
-1.42891e-11
2.53864e-09
-1.5037e-11
2.54088e-09
-1.58336e-11
2.54334e-09
-1.66828e-11
2.54583e-09
-1.75877e-11
2.54856e-09
-1.85525e-11
2.55133e-09
-1.95804e-11
2.55438e-09
-2.06758e-11
2.55748e-09
-2.18423e-11
2.56088e-09
-2.30845e-11
2.56436e-09
-2.4406e-11
2.56818e-09
-2.58115e-11
2.57209e-09
-2.73046e-11
2.57639e-09
-2.88902e-11
2.5808e-09
-3.05715e-11
2.58565e-09
-3.23534e-11
2.59064e-09
-3.42387e-11
2.59612e-09
-3.62315e-11
2.60178e-09
-3.83343e-11
2.60797e-09
-4.05501e-11
2.61439e-09
-4.28802e-11
2.62141e-09
-4.53263e-11
2.62868e-09
-4.78879e-11
2.63663e-09
-5.05643e-11
2.64488e-09
-5.33528e-11
2.65387e-09
-5.62493e-11
2.66322e-09
-5.92477e-11
2.67337e-09
-6.23397e-11
2.68393e-09
-6.55144e-11
2.69537e-09
-6.87579e-11
2.70725e-09
-7.20534e-11
2.72006e-09
-7.53801e-11
2.73336e-09
-7.87137e-11
2.74763e-09
-8.20258e-11
2.76239e-09
-8.52834e-11
2.77814e-09
-8.84499e-11
2.79436e-09
-9.14835e-11
2.81154e-09
-9.43406e-11
2.82913e-09
-9.69716e-11
2.84761e-09
-9.93284e-11
2.86638e-09
-1.01358e-10
2.88589e-09
-1.03011e-10
2.90551e-09
-1.04239e-10
2.92568e-09
-1.04999e-10
2.94574e-09
-1.0525e-10
2.96608e-09
-1.04967e-10
2.98607e-09
-1.04125e-10
3.00603e-09
-1.0272e-10
3.02538e-09
-1.00748e-10
3.0444e-09
-9.8227e-11
3.06258e-09
-9.51752e-11
3.08014e-09
-9.16296e-11
3.09668e-09
-8.7627e-11
3.11236e-09
-8.32183e-11
3.12689e-09
-7.84528e-11
3.14038e-09
-7.33888e-11
3.15266e-09
-6.8082e-11
3.16378e-09
-6.25917e-11
3.1737e-09
-5.69745e-11
3.18239e-09
-5.12856e-11
3.18995e-09
-4.55776e-11
3.19627e-09
-3.98976e-11
3.20157e-09
-3.42912e-11
3.20565e-09
-2.87953e-11
3.20886e-09
-2.34463e-11
3.2109e-09
-1.82695e-11
3.21223e-09
-1.32916e-11
3.21247e-09
-8.52695e-12
3.21217e-09
-3.99144e-12
3.21086e-09
3.08537e-13
3.20917e-09
4.36332e-12
3.20655e-09
8.18547e-12
3.20368e-09
1.17807e-11
3.19996e-09
1.51622e-11
3.19611e-09
1.83364e-11
3.19146e-09
2.13187e-11
3.18678e-09
2.41191e-11
3.18136e-09
2.67539e-11
3.17596e-09
2.92352e-11
3.16987e-09
3.15786e-11
3.16386e-09
3.3797e-11
3.15717e-09
3.59036e-11
3.1506e-09
3.79109e-11
3.14337e-09
3.98289e-11
3.13628e-09
4.16687e-11
3.12854e-09
4.34365e-11
3.12095e-09
4.51413e-11
3.11271e-09
4.67853e-11
3.10463e-09
4.83751e-11
3.0959e-09
4.99094e-11
3.08734e-09
5.13921e-11
3.07812e-09
5.28188e-11
3.0691e-09
5.41909e-11
3.05939e-09
5.55017e-11
3.04993e-09
5.675e-11
3.03977e-09
5.79279e-11
3.02989e-09
5.90319e-11
3.01931e-09
6.00536e-11
3.00907e-09
6.09881e-11
2.99813e-09
6.18274e-11
2.98758e-09
6.25659e-11
2.97634e-09
6.31969e-11
2.96557e-09
6.3715e-11
2.95412e-09
6.41157e-11
2.94322e-09
6.43943e-11
2.93166e-09
6.45491e-11
2.92073e-09
6.45769e-11
2.90917e-09
6.44791e-11
2.8983e-09
6.42542e-11
2.88684e-09
6.39064e-11
2.87614e-09
6.34365e-11
2.8649e-09
6.28512e-11
2.85446e-09
6.2153e-11
2.84351e-09
6.13508e-11
2.83343e-09
6.04487e-11
2.82286e-09
5.94571e-11
2.81319e-09
5.83811e-11
2.80307e-09
5.72321e-11
2.79387e-09
5.60158e-11
2.78426e-09
5.47437e-11
2.77556e-09
5.34219e-11
2.76648e-09
5.20616e-11
2.75831e-09
5.06688e-11
2.74978e-09
4.92538e-11
2.74216e-09
4.78223e-11
2.73418e-09
4.63835e-11
2.72709e-09
4.49426e-11
2.71967e-09
4.35074e-11
2.7131e-09
4.20825e-11
2.70621e-09
4.06741e-11
2.70014e-09
3.92863e-11
2.69376e-09
3.79239e-11
2.68817e-09
3.65902e-11
2.68226e-09
3.52886e-11
2.67712e-09
3.40217e-11
2.67166e-09
3.2792e-11
2.66692e-09
3.16012e-11
2.66188e-09
3.04509e-11
2.65752e-09
2.93422e-11
2.65285e-09
2.82759e-11
2.64884e-09
2.72528e-11
2.64451e-09
2.62727e-11
2.6408e-09
2.53363e-11
2.63678e-09
2.44429e-11
2.63336e-09
2.35927e-11
2.62961e-09
2.27848e-11
2.62643e-09
2.20194e-11
2.62294e-09
2.1295e-11
2.61998e-09
2.06118e-11
2.61669e-09
1.99682e-11
2.61393e-09
1.93644e-11
2.61083e-09
1.87987e-11
2.60823e-09
1.82711e-11
2.60529e-09
1.77802e-11
2.60284e-09
1.73259e-11
2.60003e-09
1.69066e-11
2.59769e-09
1.65226e-11
2.59501e-09
1.61722e-11
2.59277e-09
1.58552e-11
2.59031e-09
1.55724e-11
2.58788e-09
1.53121e-11
2.58555e-09
1.51272e-11
1.47975e-11
2.50002e-09
-1.76268e-13
2.5001e-09
-6.48372e-13
2.50025e-09
-1.04273e-12
2.50044e-09
-1.41944e-12
2.5007e-09
-1.79167e-12
2.501e-09
-2.15773e-12
2.50136e-09
-2.5185e-12
2.50176e-09
-2.87557e-12
2.50222e-09