/*--------------------------------*- C++ -*----------------------------------*\
  =========                 |
  \\      /  F ield         | OpenFOAM: The Open Source CFD Toolbox
   \\    /   O peration     | Website:  https://openfoam.org
    \\  /    A nd           | Version:  10
     \\/     M anipulation  |
\*---------------------------------------------------------------------------*/
FoamFile
{
    format      ascii;
    class       volVectorField;
    location    "17500";
    object      Ub;
}
// * * * * * * * * * * * * * * * * * * * * * * * * * * * * * * * * * * * * * //

dimensions      [0 1 -1 0 0 0 0];

internalField   nonuniform List<vector> 
6400
(
(-8.67318e-21 -9.87899e-16 0)
(-2.62965e-20 -9.87899e-16 0)
(-4.4796e-20 -9.87899e-16 0)
(-6.49242e-20 -9.87899e-16 0)
(-8.7763e-20 -9.87898e-16 0)
(-1.15067e-19 -9.87898e-16 0)
(-1.49927e-19 -9.87897e-16 0)
(-2.7977e-19 -9.87896e-16 0)
(-1.59686e-07 -1.36161e-15 0)
(-6.51189e-05 -4.78302e-05 0)
(-0.000130756 -7.65082e-07 0)
(-0.000124247 -1.75063e-06 0)
(-0.000126325 1.78212e-06 0)
(-0.000135221 -1.94917e-07 0)
(-0.000130128 -9.91324e-07 0)
(-0.000124204 -3.26088e-07 0)
(-0.000120404 -5.36475e-07 0)
(-0.000117261 -1.76912e-07 0)
(-0.000117266 1.14467e-07 0)
(-0.000117748 -7.16742e-08 0)
(-0.000117008 -1.27433e-07 0)
(-0.000115512 -2.20613e-07 0)
(-0.00011391 -1.44793e-07 0)
(-0.000112903 -9.63435e-08 0)
(-0.000112058 -1.09236e-07 0)
(-0.000111131 -1.10817e-07 0)
(-0.000110068 -1.34733e-07 0)
(-0.000108573 -1.9697e-07 0)
(-0.00010686 -1.77755e-07 0)
(-0.000105175 -1.89994e-07 0)
(-0.000102838 -3.09323e-07 0)
(-9.84468e-05 -6.06456e-07 0)
(-9.3217e-05 -1.06407e-06 0)
(-8.7791e-05 -1.43951e-06 0)
(-8.05079e-05 -1.91312e-06 0)
(-7.09771e-05 -2.46727e-06 0)
(-5.89436e-05 -3.05756e-06 0)
(-4.43967e-05 -3.61663e-06 0)
(-2.76553e-05 -4.06111e-06 0)
(-9.3993e-06 -4.30924e-06 0)
(9.3993e-06 -4.30924e-06 0)
(2.76553e-05 -4.06111e-06 0)
(4.43967e-05 -3.61663e-06 0)
(5.89436e-05 -3.05756e-06 0)
(7.09771e-05 -2.46727e-06 0)
(8.05079e-05 -1.91312e-06 0)
(8.7791e-05 -1.43951e-06 0)
(9.3217e-05 -1.06407e-06 0)
(9.84468e-05 -6.06456e-07 0)
(0.000102838 -3.09323e-07 0)
(0.000105175 -1.89994e-07 0)
(0.00010686 -1.77755e-07 0)
(0.000108573 -1.9697e-07 0)
(0.000110068 -1.34733e-07 0)
(0.000111131 -1.10817e-07 0)
(0.000112058 -1.09236e-07 0)
(0.000112903 -9.63435e-08 0)
(0.00011391 -1.44793e-07 0)
(0.000115512 -2.20613e-07 0)
(0.000117008 -1.27433e-07 0)
(0.000117748 -7.16742e-08 0)
(0.000117266 1.14467e-07 0)
(0.000117261 -1.76912e-07 0)
(0.000120404 -5.36475e-07 0)
(0.000124204 -3.26088e-07 0)
(0.000130128 -9.91324e-07 0)
(0.000135221 -1.94917e-07 0)
(0.000126325 1.78212e-06 0)
(0.000124247 -1.75063e-06 0)
(0.000130756 -7.65082e-07 0)
(6.51189e-05 -4.78302e-05 0)
(1.59686e-07 -1.36161e-15 0)
(2.7977e-19 -9.87896e-16 0)
(1.49927e-19 -9.87897e-16 0)
(1.15067e-19 -9.87898e-16 0)
(8.7763e-20 -9.87898e-16 0)
(6.49242e-20 -9.87899e-16 0)
(4.4796e-20 -9.87899e-16 0)
(2.62965e-20 -9.87899e-16 0)
(8.67318e-21 -9.87899e-16 0)
(-8.66114e-21 -9.87893e-16 0)
(-2.62585e-20 -9.87893e-16 0)
(-4.47253e-20 -9.87893e-16 0)
(-6.48065e-20 -9.87892e-16 0)
(-8.75691e-20 -9.87891e-16 0)
(-1.14739e-19 -9.87889e-16 0)
(-1.49451e-19 -9.87886e-16 0)
(-1.98941e-19 -9.87881e-16 0)
(-3.45077e-19 -9.87894e-16 0)
(-4.44641e-10 -9.82234e-16 0)
(-4.24602e-05 -2.60693e-07 0)
(-9.6227e-05 -1.62282e-06 0)
(-0.000118976 6.03812e-06 0)
(-0.000130215 -4.36307e-07 0)
(-0.000125573 -2.96295e-06 0)
(-0.000120173 -8.55665e-07 0)
(-0.000116835 -1.59263e-06 0)
(-0.000113873 -4.74937e-07 0)
(-0.000114141 4.27717e-07 0)
(-0.0001148 -1.79109e-07 0)
(-0.000114156 -3.48144e-07 0)
(-0.000112747 -6.48665e-07 0)
(-0.00011122 -4.10279e-07 0)
(-0.000110312 -2.62917e-07 0)
(-0.000109546 -3.08495e-07 0)
(-0.000108684 -3.13883e-07 0)
(-0.000107694 -3.88432e-07 0)
(-0.000106255 -5.86987e-07 0)
(-0.000104596 -5.23926e-07 0)
(-0.000103 -5.59175e-07 0)
(-0.000100793 -9.23833e-07 0)
(-9.66187e-05 -1.83098e-06 0)
(-9.16219e-05 -3.23232e-06 0)
(-8.64024e-05 -4.38613e-06 0)
(-7.93557e-05 -5.84706e-06 0)
(-7.00761e-05 -7.56191e-06 0)
(-5.82903e-05 -9.39319e-06 0)
(-4.39701e-05 -1.11321e-05 0)
(-2.74216e-05 -1.25182e-05 0)
(-9.3259e-06 -1.32934e-05 0)
(9.3259e-06 -1.32934e-05 0)
(2.74216e-05 -1.25182e-05 0)
(4.39701e-05 -1.11321e-05 0)
(5.82903e-05 -9.39319e-06 0)
(7.00761e-05 -7.56191e-06 0)
(7.93557e-05 -5.84706e-06 0)
(8.64024e-05 -4.38613e-06 0)
(9.16219e-05 -3.23232e-06 0)
(9.66187e-05 -1.83098e-06 0)
(0.000100793 -9.23833e-07 0)
(0.000103 -5.59175e-07 0)
(0.000104596 -5.23926e-07 0)
(0.000106255 -5.86987e-07 0)
(0.000107694 -3.88432e-07 0)
(0.000108684 -3.13883e-07 0)
(0.000109546 -3.08495e-07 0)
(0.000110312 -2.62917e-07 0)
(0.00011122 -4.10279e-07 0)
(0.000112747 -6.48665e-07 0)
(0.000114156 -3.48144e-07 0)
(0.0001148 -1.79109e-07 0)
(0.000114141 4.27717e-07 0)
(0.000113873 -4.74937e-07 0)
(0.000116835 -1.59263e-06 0)
(0.000120173 -8.55665e-07 0)
(0.000125573 -2.96295e-06 0)
(0.000130215 -4.36307e-07 0)
(0.000118976 6.03812e-06 0)
(9.6227e-05 -1.62282e-06 0)
(4.24602e-05 -2.60693e-07 0)
(4.44641e-10 -9.82234e-16 0)
(3.45077e-19 -9.87894e-16 0)
(1.98941e-19 -9.87881e-16 0)
(1.49451e-19 -9.87886e-16 0)
(1.14739e-19 -9.87889e-16 0)
(8.75691e-20 -9.87891e-16 0)
(6.48065e-20 -9.87892e-16 0)
(4.47253e-20 -9.87893e-16 0)
(2.62585e-20 -9.87893e-16 0)
(8.66114e-21 -9.87893e-16 0)
(-8.63364e-21 -9.87889e-16 0)
(-2.61715e-20 -9.87889e-16 0)
(-4.45638e-20 -9.87888e-16 0)
(-6.45379e-20 -9.87887e-16 0)
(-8.71273e-20 -9.87885e-16 0)
(-1.13987e-19 -9.87882e-16 0)
(-1.48159e-19 -9.87877e-16 0)
(-1.97342e-19 -9.87867e-16 0)
(-3.04613e-19 -9.87849e-16 0)
(-2.70775e-19 -9.87559e-16 0)
(-2.38269e-18 -9.87284e-16 0)
(-3.86383e-06 -3.34701e-14 0)
(-6.30808e-05 4.18955e-06 0)
(-0.00012158 -2.8624e-07 0)
(-0.000120599 -5.15593e-06 0)
(-0.000116358 -1.20751e-06 0)
(-0.000113807 -2.79595e-06 0)
(-0.000110945 -7.69481e-07 0)
(-0.00011167 8.49602e-07 0)
(-0.000112615 -3.15126e-07 0)
(-0.000112033 -5.77315e-07 0)
(-0.000110664 -1.13849e-06 0)
(-0.000109155 -6.92615e-07 0)
(-0.00010836 -4.3445e-07 0)
(-0.000107673 -5.28455e-07 0)
(-0.000106865 -5.32483e-07 0)
(-0.000105953 -6.58974e-07 0)
(-0.000104541 -1.02556e-06 0)
(-0.000102905 -8.96174e-07 0)
(-0.000101422 -9.44091e-07 0)
(-9.94017e-05 -1.56205e-06 0)
(-9.55517e-05 -3.10057e-06 0)
(-9.0905e-05 -5.49529e-06 0)
(-8.59817e-05 -7.48402e-06 0)
(-7.92455e-05 -1.00237e-05 0)
(-7.02425e-05 -1.30268e-05 0)
(-5.86491e-05 -1.6252e-05 0)
(-4.43945e-05 -1.93325e-05 0)
(-2.77619e-05 -2.1803e-05 0)
(-9.45596e-06 -2.31906e-05 0)
(9.45596e-06 -2.31906e-05 0)
(2.77619e-05 -2.1803e-05 0)
(4.43945e-05 -1.93325e-05 0)
(5.86491e-05 -1.6252e-05 0)
(7.02425e-05 -1.30268e-05 0)
(7.92455e-05 -1.00237e-05 0)
(8.59817e-05 -7.48402e-06 0)
(9.0905e-05 -5.49529e-06 0)
(9.55517e-05 -3.10057e-06 0)
(9.94017e-05 -1.56205e-06 0)
(0.000101422 -9.44091e-07 0)
(0.000102905 -8.96174e-07 0)
(0.000104541 -1.02556e-06 0)
(0.000105953 -6.58974e-07 0)
(0.000106865 -5.32483e-07 0)
(0.000107673 -5.28455e-07 0)
(0.00010836 -4.3445e-07 0)
(0.000109155 -6.92615e-07 0)
(0.000110664 -1.13849e-06 0)
(0.000112033 -5.77315e-07 0)
(0.000112615 -3.15126e-07 0)
(0.00011167 8.49602e-07 0)
(0.000110945 -7.69481e-07 0)
(0.000113807 -2.79595e-06 0)
(0.000116358 -1.20751e-06 0)
(0.000120599 -5.15593e-06 0)
(0.00012158 -2.8624e-07 0)
(6.30808e-05 4.18955e-06 0)
(3.86383e-06 -3.34701e-14 0)
(2.38269e-18 -9.87284e-16 0)
(2.70775e-19 -9.87559e-16 0)
(3.04613e-19 -9.87849e-16 0)
(1.97342e-19 -9.87867e-16 0)
(1.48159e-19 -9.87877e-16 0)
(1.13987e-19 -9.87882e-16 0)
(8.71273e-20 -9.87885e-16 0)
(6.45379e-20 -9.87887e-16 0)
(4.45638e-20 -9.87888e-16 0)
(2.61715e-20 -9.87889e-16 0)
(8.63364e-21 -9.87889e-16 0)
(-8.58652e-21 -9.87885e-16 0)
(-2.60226e-20 -9.87884e-16 0)
(-4.42874e-20 -9.87883e-16 0)
(-6.40795e-20 -9.87882e-16 0)
(-8.6375e-20 -9.87879e-16 0)
(-1.12703e-19 -9.87875e-16 0)
(-1.45802e-19 -9.87867e-16 0)
(-1.91945e-19 -9.87853e-16 0)
(-2.69488e-19 -9.87817e-16 0)
(-2.42262e-19 -9.87607e-16 0)
(-1.22737e-19 -9.87619e-16 0)
(-2.09446e-19 -9.87764e-16 0)
(-1.33426e-19 -9.33772e-16 0)
(-2.57875e-05 -1.41081e-09 0)
(-7.77295e-05 -3.15258e-06 0)
(-0.000107919 -6.55371e-07 0)
(-0.000109755 -4.1577e-06 0)
(-0.000107529 -9.83388e-07 0)
(-0.000109233 1.52102e-06 0)
(-0.000110708 -4.92739e-07 0)
(-0.000110199 -7.86372e-07 0)
(-0.000108849 -1.71832e-06 0)
(-0.000107311 -9.75001e-07 0)
(-0.000106676 -5.89394e-07 0)
(-0.000106085 -7.66004e-07 0)
(-0.00010533 -7.56097e-07 0)
(-0.00010452 -9.32163e-07 0)
(-0.000103111 -1.52876e-06 0)
(-0.000101465 -1.28503e-06 0)
(-0.000100137 -1.3222e-06 0)
(-9.83888e-05 -2.19247e-06 0)
(-9.50184e-05 -4.3596e-06 0)
(-9.0897e-05 -7.77575e-06 0)
(-8.64194e-05 -1.06562e-05 0)
(-8.0136e-05 -1.4391e-05 0)
(-7.14999e-05 -1.88656e-05 0)
(-6.00935e-05 -2.37162e-05 0)
(-4.57675e-05 -2.83973e-05 0)
(-2.87604e-05 -3.21935e-05 0)
(-9.82256e-06 -3.43413e-05 0)
(9.82256e-06 -3.43413e-05 0)
(2.87604e-05 -3.21935e-05 0)
(4.57675e-05 -2.83973e-05 0)
(6.00935e-05 -2.37162e-05 0)
(7.14999e-05 -1.88656e-05 0)
(8.0136e-05 -1.4391e-05 0)
(8.64194e-05 -1.06562e-05 0)
(9.0897e-05 -7.77575e-06 0)
(9.50184e-05 -4.3596e-06 0)
(9.83888e-05 -2.19247e-06 0)
(0.000100137 -1.3222e-06 0)
(0.000101465 -1.28503e-06 0)
(0.000103111 -1.52876e-06 0)
(0.00010452 -9.32163e-07 0)
(0.00010533 -7.56097e-07 0)
(0.000106085 -7.66004e-07 0)
(0.000106676 -5.89394e-07 0)
(0.000107311 -9.75001e-07 0)
(0.000108849 -1.71832e-06 0)
(0.000110199 -7.86372e-07 0)
(0.000110708 -4.92739e-07 0)
(0.000109233 1.52102e-06 0)
(0.000107529 -9.83388e-07 0)
(0.000109755 -4.1577e-06 0)
(0.000107919 -6.55371e-07 0)
(7.77295e-05 -3.15258e-06 0)
(2.57875e-05 -1.41081e-09 0)
(1.33426e-19 -9.33772e-16 0)
(2.09446e-19 -9.87764e-16 0)
(1.22737e-19 -9.87619e-16 0)
(2.42262e-19 -9.87607e-16 0)
(2.69488e-19 -9.87817e-16 0)
(1.91945e-19 -9.87853e-16 0)
(1.45802e-19 -9.87867e-16 0)
(1.12703e-19 -9.87875e-16 0)
(8.6375e-20 -9.87879e-16 0)
(6.40795e-20 -9.87882e-16 0)
(4.42874e-20 -9.87883e-16 0)
(2.60226e-20 -9.87884e-16 0)
(8.58652e-21 -9.87885e-16 0)
(-8.51499e-21 -9.8788e-16 0)
(-2.57968e-20 -9.87879e-16 0)
(-4.38691e-20 -9.87878e-16 0)
(-6.33878e-20 -9.87876e-16 0)
(-8.52457e-20 -9.87872e-16 0)
(-1.10785e-19 -9.87867e-16 0)
(-1.42232e-19 -9.87857e-16 0)
(-1.83658e-19 -9.87838e-16 0)
(-2.38864e-19 -9.87794e-16 0)
(-2.1795e-19 -9.87643e-16 0)
(-1.37145e-19 -9.87639e-16 0)
(-1.7769e-19 -9.8771e-16 0)
(-1.04281e-19 -9.87446e-16 0)
(5.20825e-20 -9.87566e-16 0)
(-1.66777e-12 -8.17525e-16 0)
(-2.73162e-05 -2.20129e-09 0)
(-7.50157e-05 -2.4381e-06 0)
(-9.86956e-05 -5.28935e-07 0)
(-0.000105311 2.76635e-06 0)
(-0.000108421 -7.28841e-07 0)
(-0.00010826 -9.15095e-07 0)
(-0.000107035 -2.44597e-06 0)
(-0.000105454 -1.23384e-06 0)
(-0.000105093 -7.01185e-07 0)
(-0.00010464 -1.02885e-06 0)
(-0.00010394 -9.77296e-07 0)
(-0.000103285 -1.19054e-06 0)
(-0.00010185 -2.1352e-06 0)
(-0.000100147 -1.6819e-06 0)
(-9.9037e-05 -1.66612e-06 0)
(-9.76677e-05 -2.7754e-06 0)
(-9.49701e-05 -5.52724e-06 0)
(-9.16087e-05 -9.94433e-06 0)
(-8.77993e-05 -1.37614e-05 0)
(-8.21974e-05 -1.88353e-05 0)
(-7.40953e-05 -2.50452e-05 0)
(-6.29192e-05 -3.1867e-05 0)
(-4.83892e-05 -3.85587e-05 0)
(-3.06483e-05 -4.40878e-05 0)
(-1.05133e-05 -4.72526e-05 0)
(1.05133e-05 -4.72526e-05 0)
(3.06483e-05 -4.40878e-05 0)
(4.83892e-05 -3.85587e-05 0)
(6.29192e-05 -3.1867e-05 0)
(7.40953e-05 -2.50452e-05 0)
(8.21974e-05 -1.88353e-05 0)
(8.77993e-05 -1.37614e-05 0)
(9.16087e-05 -9.94433e-06 0)
(9.49701e-05 -5.52724e-06 0)
(9.76677e-05 -2.7754e-06 0)
(9.9037e-05 -1.66612e-06 0)
(0.000100147 -1.6819e-06 0)
(0.00010185 -2.1352e-06 0)
(0.000103285 -1.19054e-06 0)
(0.00010394 -9.77296e-07 0)
(0.00010464 -1.02885e-06 0)
(0.000105093 -7.01185e-07 0)
(0.000105454 -1.23384e-06 0)
(0.000107035 -2.44597e-06 0)
(0.00010826 -9.15095e-07 0)
(0.000108421 -7.28841e-07 0)
(0.000105311 2.76635e-06 0)
(9.86956e-05 -5.28935e-07 0)
(7.50157e-05 -2.4381e-06 0)
(2.73162e-05 -2.20129e-09 0)
(1.66777e-12 -8.17525e-16 0)
(-5.20825e-20 -9.87566e-16 0)
(1.04281e-19 -9.87446e-16 0)
(1.7769e-19 -9.8771e-16 0)
(1.37145e-19 -9.87639e-16 0)
(2.1795e-19 -9.87643e-16 0)
(2.38864e-19 -9.87794e-16 0)
(1.83658e-19 -9.87838e-16 0)
(1.42232e-19 -9.87857e-16 0)
(1.10785e-19 -9.87867e-16 0)
(8.52457e-20 -9.87872e-16 0)
(6.33878e-20 -9.87876e-16 0)
(4.38691e-20 -9.87878e-16 0)
(2.57968e-20 -9.87879e-16 0)
(8.51499e-21 -9.8788e-16 0)
(-8.4137e-21 -9.87875e-16 0)
(-2.54773e-20 -9.87874e-16 0)
(-4.32792e-20 -9.87872e-16 0)
(-6.24168e-20 -9.8787e-16 0)
(-8.36729e-20 -9.87865e-16 0)
(-1.08145e-19 -9.87858e-16 0)
(-1.37411e-19 -9.87847e-16 0)
(-1.73317e-19 -9.87825e-16 0)
(-2.12181e-19 -9.87779e-16 0)
(-1.96718e-19 -9.87669e-16 0)
(-1.41938e-19 -9.87654e-16 0)
(-1.53199e-19 -9.87679e-16 0)
(-9.19996e-20 -9.87518e-16 0)
(1.66347e-20 -9.87615e-16 0)
(-7.8877e-21 -9.87705e-16 0)
(4.54509e-21 -9.87572e-16 0)
(-2.30914e-16 -8.24628e-16 0)
(-9.07615e-06 -1.17128e-12 0)
(-5.68783e-05 1.79634e-06 0)
(-9.87544e-05 -4.30914e-07 0)
(-0.000103701 -5.97926e-07 0)
(-0.000104241 -3.35327e-06 0)
(-0.000103057 -1.38344e-06 0)
(-0.000103359 -7.0617e-07 0)
(-0.000103186 -1.32773e-06 0)
(-0.000102577 -1.17885e-06 0)
(-0.000102191 -1.39344e-06 0)
(-0.000100693 -2.91696e-06 0)
(-9.88554e-05 -2.06749e-06 0)
(-9.80605e-05 -1.93291e-06 0)
(-9.71967e-05 -3.25594e-06 0)
(-9.53949e-05 -6.48467e-06 0)
(-9.30954e-05 -1.17839e-05 0)
(-9.02858e-05 -1.65426e-05 0)
(-8.57357e-05 -2.31245e-05 0)
(-7.84593e-05 -3.14603e-05 0)
(-6.76396e-05 -4.07633e-05 0)
(-5.27958e-05 -5.01153e-05 0)
(-3.38513e-05 -5.8087e-05 0)
(-1.16909e-05 -6.27288e-05 0)
(1.16909e-05 -6.27288e-05 0)
(3.38513e-05 -5.8087e-05 0)
(5.27958e-05 -5.01153e-05 0)
(6.76396e-05 -4.07633e-05 0)
(7.84593e-05 -3.14603e-05 0)
(8.57357e-05 -2.31245e-05 0)
(9.02858e-05 -1.65426e-05 0)
(9.30954e-05 -1.17839e-05 0)
(9.53949e-05 -6.48467e-06 0)
(9.71967e-05 -3.25594e-06 0)
(9.80605e-05 -1.93291e-06 0)
(9.88554e-05 -2.06749e-06 0)
(0.000100693 -2.91696e-06 0)
(0.000102191 -1.39344e-06 0)
(0.000102577 -1.17885e-06 0)
(0.000103186 -1.32773e-06 0)
(0.000103359 -7.0617e-07 0)
(0.000103057 -1.38344e-06 0)
(0.000104241 -3.35327e-06 0)
(0.000103701 -5.97926e-07 0)
(9.87544e-05 -4.30914e-07 0)
(5.68783e-05 1.79634e-06 0)
(9.07615e-06 -1.17128e-12 0)
(2.30914e-16 -8.24628e-16 0)
(-4.54509e-21 -9.87572e-16 0)
(7.8877e-21 -9.87705e-16 0)
(-1.66347e-20 -9.87615e-16 0)
(9.19996e-20 -9.87518e-16 0)
(1.53199e-19 -9.87679e-16 0)
(1.41938e-19 -9.87654e-16 0)
(1.96718e-19 -9.87669e-16 0)
(2.12181e-19 -9.87779e-16 0)
(1.73317e-19 -9.87825e-16 0)
(1.37411e-19 -9.87847e-16 0)
(1.08145e-19 -9.87858e-16 0)
(8.36729e-20 -9.87865e-16 0)
(6.24168e-20 -9.8787e-16 0)
(4.32792e-20 -9.87872e-16 0)
(2.54773e-20 -9.87874e-16 0)
(8.4137e-21 -9.87875e-16 0)
(-8.27681e-21 -9.87869e-16 0)
(-2.50464e-20 -9.87868e-16 0)
(-4.24862e-20 -9.87866e-16 0)
(-6.11207e-20 -9.87863e-16 0)
(-8.15968e-20 -9.87858e-16 0)
(-1.04726e-19 -9.8785e-16 0)
(-1.31399e-19 -9.87836e-16 0)
(-1.61653e-19 -9.87813e-16 0)
(-1.88845e-19 -9.87768e-16 0)
(-1.77722e-19 -9.87688e-16 0)
(-1.39986e-19 -9.87666e-16 0)
(-1.34246e-19 -9.87666e-16 0)
(-8.37072e-20 -9.87569e-16 0)
(-7.71049e-21 -9.87626e-16 0)
(-1.13542e-20 -9.87685e-16 0)
(-3.69521e-21 -9.8765e-16 0)
(-1.05418e-20 -9.87729e-16 0)
(-9.4538e-20 -9.87717e-16 0)
(7.68537e-21 -9.09418e-16 0)
(-1.70221e-09 -7.10335e-16 0)
(-3.70295e-05 -1.24094e-07 0)
(-8.30835e-05 -1.92558e-06 0)
(-9.50974e-05 -7.06963e-07 0)
(-9.96016e-05 -3.05439e-07 0)
(-0.00010095 -1.62334e-06 0)
(-0.000100832 -1.29969e-06 0)
(-0.00010109 -1.43533e-06 0)
(-9.95388e-05 -4.01342e-06 0)
(-9.74523e-05 -2.39508e-06 0)
(-9.71443e-05 -2.0553e-06 0)
(-9.69338e-05 -3.56552e-06 0)
(-9.62564e-05 -7.07086e-06 0)
(-9.53913e-05 -1.29406e-05 0)
(-9.40844e-05 -1.85365e-05 0)
(-9.12118e-05 -2.6791e-05 0)
(-8.52703e-05 -3.78768e-05 0)
(-7.50859e-05 -5.03812e-05 0)
(-5.9922e-05 -6.34189e-05 0)
(-3.91546e-05 -7.51446e-05 0)
(-1.36615e-05 -8.21306e-05 0)
(1.36615e-05 -8.21306e-05 0)
(3.91546e-05 -7.51446e-05 0)
(5.9922e-05 -6.34189e-05 0)
(7.50859e-05 -5.03812e-05 0)
(8.52703e-05 -3.78768e-05 0)
(9.12118e-05 -2.6791e-05 0)
(9.40844e-05 -1.85365e-05 0)
(9.53913e-05 -1.29406e-05 0)
(9.62564e-05 -7.07086e-06 0)
(9.69338e-05 -3.56552e-06 0)
(9.71443e-05 -2.0553e-06 0)
(9.74523e-05 -2.39508e-06 0)
(9.95388e-05 -4.01342e-06 0)
(0.00010109 -1.43533e-06 0)
(0.000100832 -1.29969e-06 0)
(0.00010095 -1.62334e-06 0)
(9.96016e-05 -3.05439e-07 0)
(9.50974e-05 -7.06963e-07 0)
(8.30835e-05 -1.92558e-06 0)
(3.70295e-05 -1.24094e-07 0)
(1.70221e-09 -7.10335e-16 0)
(-7.68537e-21 -9.09418e-16 0)
(9.4538e-20 -9.87717e-16 0)
(1.05418e-20 -9.87729e-16 0)
(3.69521e-21 -9.8765e-16 0)
(1.13542e-20 -9.87685e-16 0)
(7.71049e-21 -9.87626e-16 0)
(8.37072e-20 -9.87569e-16 0)
(1.34246e-19 -9.87666e-16 0)
(1.39986e-19 -9.87666e-16 0)
(1.77722e-19 -9.87688e-16 0)
(1.88845e-19 -9.87768e-16 0)
(1.61653e-19 -9.87813e-16 0)
(1.31399e-19 -9.87836e-16 0)
(1.04726e-19 -9.8785e-16 0)
(8.15968e-20 -9.87858e-16 0)
(6.11207e-20 -9.87863e-16 0)
(4.24862e-20 -9.87866e-16 0)
(2.50464e-20 -9.87868e-16 0)
(8.27681e-21 -9.87869e-16 0)
(-8.0983e-21 -9.87863e-16 0)
(-2.44857e-20 -9.87862e-16 0)
(-4.14596e-20 -9.8786e-16 0)
(-5.94572e-20 -9.87856e-16 0)
(-7.89713e-20 -9.8785e-16 0)
(-1.00511e-19 -9.87841e-16 0)
(-1.24335e-19 -9.87826e-16 0)
(-1.49262e-19 -9.87802e-16 0)
(-1.6828e-19 -9.87762e-16 0)
(-1.60381e-19 -9.87702e-16 0)
(-1.33643e-19 -9.87676e-16 0)
(-1.19341e-19 -9.87663e-16 0)
(-7.7955e-20 -9.87606e-16 0)
(-2.39547e-20 -9.87637e-16 0)
(-1.66406e-20 -9.87675e-16 0)
(-1.08285e-20 -9.87665e-16 0)
(-1.84282e-20 -9.87709e-16 0)
(-6.12577e-20 -9.87694e-16 0)
(-2.9451e-21 -9.87569e-16 0)
(4.53486e-21 -9.87731e-16 0)
(6.3799e-20 -9.86969e-16 0)
(1.06279e-19 -8.26626e-16 0)
(-2.53404e-08 -6.81117e-16 0)
(-4.07221e-05 2.98154e-08 0)
(-8.61721e-05 -8.79527e-07 0)
(-9.34757e-05 -6.6386e-07 0)
(-9.7911e-05 -8.19511e-07 0)
(-9.75261e-05 -5.63143e-06 0)
(-9.5409e-05 -2.51291e-06 0)
(-9.60824e-05 -1.91123e-06 0)
(-9.67587e-05 -3.6254e-06 0)
(-9.7403e-05 -7.09285e-06 0)
(-9.83935e-05 -1.28559e-05 0)
(-9.93612e-05 -1.88997e-05 0)
(-9.93073e-05 -2.88444e-05 0)
(-9.55888e-05 -4.38838e-05 0)
(-8.65717e-05 -6.04414e-05 0)
(-7.14578e-05 -7.87169e-05 0)
(-4.81042e-05 -9.68646e-05 0)
(-1.70357e-05 -0.000107931 0)
(1.70357e-05 -0.000107931 0)
(4.81042e-05 -9.68646e-05 0)
(7.14578e-05 -7.87169e-05 0)
(8.65717e-05 -6.04414e-05 0)
(9.55888e-05 -4.38838e-05 0)
(9.93073e-05 -2.88444e-05 0)
(9.93612e-05 -1.88997e-05 0)
(9.83935e-05 -1.28559e-05 0)
(9.7403e-05 -7.09285e-06 0)
(9.67587e-05 -3.6254e-06 0)
(9.60824e-05 -1.91123e-06 0)
(9.5409e-05 -2.51291e-06 0)
(9.75261e-05 -5.63143e-06 0)
(9.7911e-05 -8.19511e-07 0)
(9.34757e-05 -6.6386e-07 0)
(8.61721e-05 -8.79527e-07 0)
(4.07221e-05 2.98154e-08 0)
(2.53404e-08 -6.81117e-16 0)
(-1.06279e-19 -8.26626e-16 0)
(-6.3799e-20 -9.86969e-16 0)
(-4.53486e-21 -9.87731e-16 0)
(2.9451e-21 -9.87569e-16 0)
(6.12577e-20 -9.87694e-16 0)
(1.84282e-20 -9.87709e-16 0)
(1.08285e-20 -9.87665e-16 0)
(1.66406e-20 -9.87675e-16 0)
(2.39547e-20 -9.87637e-16 0)
(7.7955e-20 -9.87606e-16 0)
(1.19341e-19 -9.87663e-16 0)
(1.33643e-19 -9.87676e-16 0)
(1.60381e-19 -9.87702e-16 0)
(1.6828e-19 -9.87762e-16 0)
(1.49262e-19 -9.87802e-16 0)
(1.24335e-19 -9.87826e-16 0)
(1.00511e-19 -9.87841e-16 0)
(7.89713e-20 -9.8785e-16 0)
(5.94572e-20 -9.87856e-16 0)
(4.14596e-20 -9.8786e-16 0)
(2.44857e-20 -9.87862e-16 0)
(8.0983e-21 -9.87863e-16 0)
(-7.87238e-21 -9.87856e-16 0)
(-2.3778e-20 -9.87855e-16 0)
(-4.01719e-20 -9.87853e-16 0)
(-5.7393e-20 -9.87848e-16 0)
(-7.57715e-20 -9.87842e-16 0)
(-9.55272e-20 -9.87832e-16 0)
(-1.16412e-19 -9.87817e-16 0)
(-1.36603e-19 -9.87794e-16 0)
(-1.49977e-19 -9.87758e-16 0)
(-1.44338e-19 -9.87712e-16 0)
(-1.24722e-19 -9.87685e-16 0)
(-1.07271e-19 -9.87667e-16 0)
(-7.36387e-20 -9.87632e-16 0)
(-3.43964e-20 -9.87648e-16 0)
(-2.22015e-20 -9.87672e-16 0)
(-1.65338e-20 -9.87673e-16 0)
(-2.15127e-20 -9.87696e-16 0)
(-4.07332e-20 -9.87682e-16 0)
(-6.57461e-21 -9.87618e-16 0)
(9.04444e-21 -9.87692e-16 0)
(4.77418e-20 -9.87605e-16 0)
(6.25077e-20 -9.8776e-16 0)
(-5.51372e-20 -9.87764e-16 0)
(5.4414e-20 -9.8565e-16 0)
(1.37162e-19 -8.29417e-16 0)
(-9.35044e-10 -6.79235e-16 0)
(-2.93888e-05 -1.21136e-07 0)
(-7.00964e-05 -3.29976e-06 0)
(-8.52523e-05 -1.24489e-06 0)
(-9.15867e-05 -8.76187e-07 0)
(-9.52385e-05 -3.19918e-06 0)
(-9.79459e-05 -6.32979e-06 0)
(-0.000101358 -1.06767e-05 0)
(-0.000105825 -1.60706e-05 0)
(-0.000111021 -2.68492e-05 0)
(-0.000111065 -4.91855e-05 0)
(-0.000103973 -6.99085e-05 0)
(-9.063e-05 -9.53314e-05 0)
(-6.40396e-05 -0.000126221 0)
(-2.31213e-05 -0.00014501 0)
(2.31213e-05 -0.00014501 0)
(6.40396e-05 -0.000126221 0)
(9.063e-05 -9.53314e-05 0)
(0.000103973 -6.99085e-05 0)
(0.000111065 -4.91855e-05 0)
(0.000111021 -2.68492e-05 0)
(0.000105825 -1.60706e-05 0)
(0.000101358 -1.06767e-05 0)
(9.79459e-05 -6.32979e-06 0)
(9.52385e-05 -3.19918e-06 0)
(9.15867e-05 -8.76187e-07 0)
(8.52523e-05 -1.24489e-06 0)
(7.00964e-05 -3.29976e-06 0)
(2.93888e-05 -1.21136e-07 0)
(9.35044e-10 -6.79235e-16 0)
(-1.37162e-19 -8.29417e-16 0)
(-5.4414e-20 -9.8565e-16 0)
(5.51372e-20 -9.87764e-16 0)
(-6.25077e-20 -9.8776e-16 0)
(-4.77418e-20 -9.87605e-16 0)
(-9.04444e-21 -9.87692e-16 0)
(6.57461e-21 -9.87618e-16 0)
(4.07332e-20 -9.87682e-16 0)
(2.15127e-20 -9.87696e-16 0)
(1.65338e-20 -9.87673e-16 0)
(2.22015e-20 -9.87672e-16 0)
(3.43964e-20 -9.87648e-16 0)
(7.36387e-20 -9.87632e-16 0)
(1.07271e-19 -9.87667e-16 0)
(1.24722e-19 -9.87685e-16 0)
(1.44338e-19 -9.87712e-16 0)
(1.49977e-19 -9.87758e-16 0)
(1.36603e-19 -9.87794e-16 0)
(1.16412e-19 -9.87817e-16 0)
(9.55272e-20 -9.87832e-16 0)
(7.57715e-20 -9.87842e-16 0)
(5.7393e-20 -9.87848e-16 0)
(4.01719e-20 -9.87853e-16 0)
(2.3778e-20 -9.87855e-16 0)
(7.87238e-21 -9.87856e-16 0)
(-7.594e-21 -9.87849e-16 0)
(-2.2909e-20 -9.87848e-16 0)
(-3.86024e-20 -9.87845e-16 0)
(-5.4909e-20 -9.87841e-16 0)
(-7.20001e-20 -9.87834e-16 0)
(-8.9846e-20 -9.87824e-16 0)
(-1.07853e-19 -9.87808e-16 0)
(-1.24016e-19 -9.87786e-16 0)
(-1.33515e-19 -9.87755e-16 0)
(-1.29398e-19 -9.87719e-16 0)
(-1.14525e-19 -9.87693e-16 0)
(-9.71076e-20 -9.87674e-16 0)
(-6.99706e-20 -9.87652e-16 0)
(-4.07087e-20 -9.87659e-16 0)
(-2.70604e-20 -9.87673e-16 0)
(-2.0768e-20 -9.87677e-16 0)
(-2.21891e-20 -9.87689e-16 0)
(-2.83663e-20 -9.87678e-16 0)
(-7.03208e-21 -9.87646e-16 0)
(9.60458e-21 -9.87678e-16 0)
(3.46782e-20 -9.87647e-16 0)
(3.96602e-20 -9.87727e-16 0)
(-1.34076e-20 -9.87723e-16 0)
(4.40394e-20 -9.87592e-16 0)
(8.40652e-20 -9.87761e-16 0)
(-9.19173e-21 -9.87767e-16 0)
(6.52235e-20 -9.87174e-16 0)
(1.28174e-19 -8.74703e-16 0)
(-2.51628e-18 -7.4742e-16 0)
(-1.29562e-06 -1.28601e-14 0)
(-3.88843e-05 -1.40792e-06 0)
(-8.28164e-05 -2.86113e-06 0)
(-9.49698e-05 -4.46759e-06 0)
(-0.000106146 -6.80198e-06 0)
(-0.000124547 -1.22122e-05 0)
(-0.000132199 -5.60596e-05 0)
(-0.000127581 -7.49139e-05 0)
(-0.00012366 -0.000107389 0)
(-9.49596e-05 -0.000169927 0)
(-3.48252e-05 -0.000203816 0)
(3.48252e-05 -0.000203816 0)
(9.49596e-05 -0.000169927 0)
(0.00012366 -0.000107389 0)
(0.000127581 -7.49139e-05 0)
(0.000132199 -5.60596e-05 0)
(0.000124547 -1.22122e-05 0)
(0.000106146 -6.80198e-06 0)
(9.49698e-05 -4.46759e-06 0)
(8.28164e-05 -2.86113e-06 0)
(3.88843e-05 -1.40792e-06 0)
(1.29562e-06 -1.28601e-14 0)
(2.51628e-18 -7.4742e-16 0)
(-1.28174e-19 -8.74703e-16 0)
(-6.52235e-20 -9.87174e-16 0)
(9.19173e-21 -9.87767e-16 0)
(-8.40652e-20 -9.87761e-16 0)
(-4.40394e-20 -9.87592e-16 0)
(1.34076e-20 -9.87723e-16 0)
(-3.96602e-20 -9.87727e-16 0)
(-3.46782e-20 -9.87647e-16 0)
(-9.60458e-21 -9.87678e-16 0)
(7.03208e-21 -9.87646e-16 0)
(2.83663e-20 -9.87678e-16 0)
(2.21891e-20 -9.87689e-16 0)
(2.0768e-20 -9.87677e-16 0)
(2.70604e-20 -9.87673e-16 0)
(4.07087e-20 -9.87659e-16 0)
(6.99706e-20 -9.87652e-16 0)
(9.71076e-20 -9.87674e-16 0)
(1.14525e-19 -9.87693e-16 0)
(1.29398e-19 -9.87719e-16 0)
(1.33515e-19 -9.87755e-16 0)
(1.24016e-19 -9.87786e-16 0)
(1.07853e-19 -9.87808e-16 0)
(8.9846e-20 -9.87824e-16 0)
(7.20001e-20 -9.87834e-16 0)
(5.4909e-20 -9.87841e-16 0)
(3.86024e-20 -9.87845e-16 0)
(2.2909e-20 -9.87848e-16 0)
(7.594e-21 -9.87849e-16 0)
(-7.25963e-21 -9.87842e-16 0)
(-2.18694e-20 -9.87841e-16 0)
(-3.67407e-20 -9.87838e-16 0)
(-5.20051e-20 -9.87833e-16 0)
(-6.76909e-20 -9.87826e-16 0)
(-8.35779e-20 -9.87815e-16 0)
(-9.88881e-20 -9.878e-16 0)
(-1.11732e-19 -9.8778e-16 0)
(-1.18573e-19 -9.87753e-16 0)
(-1.1547e-19 -9.87724e-16 0)
(-1.03922e-19 -9.87701e-16 0)
(-8.81826e-20 -9.87683e-16 0)
(-6.64333e-20 -9.87667e-16 0)
(-4.40623e-20 -9.87669e-16 0)
(-3.07079e-20 -9.87676e-16 0)
(-2.36487e-20 -9.8768e-16 0)
(-2.18436e-20 -9.87686e-16 0)
(-2.10921e-20 -9.87678e-16 0)
(-6.45981e-21 -9.87663e-16 0)
(8.28997e-21 -9.87676e-16 0)
(2.49433e-20 -9.87669e-16 0)
(2.7873e-20 -9.87709e-16 0)
(7.09476e-21 -9.87705e-16 0)
(3.66434e-20 -9.87651e-16 0)
(5.63007e-20 -9.8773e-16 0)
(1.8519e-20 -9.87735e-16 0)
(5.41162e-20 -9.87655e-16 0)
(7.96427e-20 -9.87775e-16 0)
(1.02388e-20 -9.87804e-16 0)
(-6.94166e-20 -9.87763e-16 0)
(4.93935e-20 -9.72714e-16 0)
(1.27832e-19 -8.54432e-16 0)
(9.99441e-21 -7.6285e-16 0)
(-8.84423e-12 -7.02892e-16 0)
(-6.792e-06 -1.20832e-08 0)
(-4.29606e-05 -3.0235e-05 0)
(-0.000105743 -3.7767e-05 0)
(-0.000169883 -7.5816e-05 0)
(-0.000157006 -0.000246914 0)
(-5.66966e-05 -0.000305849 0)
(5.66966e-05 -0.000305849 0)
(0.000157006 -0.000246914 0)
(0.000169883 -7.5816e-05 0)
(0.000105743 -3.7767e-05 0)
(4.29606e-05 -3.0235e-05 0)
(6.792e-06 -1.20832e-08 0)
(8.84423e-12 -7.02892e-16 0)
(-9.99441e-21 -7.6285e-16 0)
(-1.27832e-19 -8.54432e-16 0)
(-4.93935e-20 -9.72714e-16 0)
(6.94166e-20 -9.87763e-16 0)
(-1.02388e-20 -9.87804e-16 0)
(-7.96427e-20 -9.87775e-16 0)
(-5.41162e-20 -9.87655e-16 0)
(-1.8519e-20 -9.87735e-16 0)
(-5.63007e-20 -9.8773e-16 0)
(-3.66434e-20 -9.87651e-16 0)
(-7.09476e-21 -9.87705e-16 0)
(-2.7873e-20 -9.87709e-16 0)
(-2.49433e-20 -9.87669e-16 0)
(-8.28997e-21 -9.87676e-16 0)
(6.45981e-21 -9.87663e-16 0)
(2.10921e-20 -9.87678e-16 0)
(2.18436e-20 -9.87686e-16 0)
(2.36487e-20 -9.8768e-16 0)
(3.07079e-20 -9.87676e-16 0)
(4.40623e-20 -9.87669e-16 0)
(6.64333e-20 -9.87667e-16 0)
(8.81826e-20 -9.87683e-16 0)
(1.03922e-19 -9.87701e-16 0)
(1.1547e-19 -9.87724e-16 0)
(1.18573e-19 -9.87753e-16 0)
(1.11732e-19 -9.8778e-16 0)
(9.88881e-20 -9.878e-16 0)
(8.35779e-20 -9.87815e-16 0)
(6.76909e-20 -9.87826e-16 0)
(5.20051e-20 -9.87833e-16 0)
(3.67407e-20 -9.87838e-16 0)
(2.18694e-20 -9.87841e-16 0)
(7.25963e-21 -9.87842e-16 0)
(-6.868e-21 -9.87835e-16 0)
(-2.06572e-20 -9.87833e-16 0)
(-3.45905e-20 -9.8783e-16 0)
(-4.87041e-20 -9.87825e-16 0)
(-6.29092e-20 -9.87818e-16 0)
(-7.68615e-20 -9.87807e-16 0)
(-8.97331e-20 -9.87793e-16 0)
(-9.99107e-20 -9.87775e-16 0)
(-1.04919e-19 -9.87752e-16 0)
(-1.02517e-19 -9.87728e-16 0)
(-9.34465e-20 -9.87708e-16 0)
(-8.00463e-20 -9.87691e-16 0)
(-6.27245e-20 -9.8768e-16 0)
(-4.52606e-20 -9.87678e-16 0)
(-3.29771e-20 -9.87681e-16 0)
(-2.53631e-20 -9.87684e-16 0)
(-2.11749e-20 -9.87686e-16 0)
(-1.69315e-20 -9.87681e-16 0)
(-5.86446e-21 -9.87674e-16 0)
(6.3245e-21 -9.8768e-16 0)
(1.80405e-20 -9.87681e-16 0)
(2.14654e-20 -9.87701e-16 0)
(1.57395e-20 -9.877e-16 0)
(3.12519e-20 -9.8768e-16 0)
(4.1647e-20 -9.87717e-16 0)
(2.87294e-20 -9.87722e-16 0)
(4.47034e-20 -9.87695e-16 0)
(5.2523e-20 -9.87752e-16 0)
(1.46656e-20 -9.8777e-16 0)
(-1.98593e-20 -9.87738e-16 0)
(3.70293e-20 -9.87637e-16 0)
(7.41804e-20 -9.87773e-16 0)
(3.04554e-20 -9.8778e-16 0)
(1.63283e-20 -9.87757e-16 0)
(4.2197e-20 -9.87661e-16 0)
(4.82086e-20 -9.72641e-16 0)
(-1.88156e-08 -9.8702e-15 0)
(-1.51591e-05 -2.32827e-05 0)
(-6.25063e-05 -0.000257139 0)
(-4.7366e-05 -0.000431304 0)
(4.7366e-05 -0.000431304 0)
(6.25063e-05 -0.000257139 0)
(1.51591e-05 -2.32827e-05 0)
(1.88156e-08 -9.8702e-15 0)
(-4.82086e-20 -9.72641e-16 0)
(-4.2197e-20 -9.87661e-16 0)
(-1.63283e-20 -9.87757e-16 0)
(-3.04554e-20 -9.8778e-16 0)
(-7.41804e-20 -9.87773e-16 0)
(-3.70293e-20 -9.87637e-16 0)
(1.98593e-20 -9.87738e-16 0)
(-1.46656e-20 -9.8777e-16 0)
(-5.2523e-20 -9.87752e-16 0)
(-4.47034e-20 -9.87695e-16 0)
(-2.87294e-20 -9.87722e-16 0)
(-4.1647e-20 -9.87717e-16 0)
(-3.12519e-20 -9.8768e-16 0)
(-1.57395e-20 -9.877e-16 0)
(-2.14654e-20 -9.87701e-16 0)
(-1.80405e-20 -9.87681e-16 0)
(-6.3245e-21 -9.8768e-16 0)
(5.86446e-21 -9.87674e-16 0)
(1.69315e-20 -9.87681e-16 0)
(2.11749e-20 -9.87686e-16 0)
(2.53631e-20 -9.87684e-16 0)
(3.29771e-20 -9.87681e-16 0)
(4.52606e-20 -9.87678e-16 0)
(6.27245e-20 -9.8768e-16 0)
(8.00463e-20 -9.87691e-16 0)
(9.34465e-20 -9.87708e-16 0)
(1.02517e-19 -9.87728e-16 0)
(1.04919e-19 -9.87752e-16 0)
(9.99107e-20 -9.87775e-16 0)
(8.97331e-20 -9.87793e-16 0)
(7.68615e-20 -9.87807e-16 0)
(6.29092e-20 -9.87818e-16 0)
(4.87041e-20 -9.87825e-16 0)
(3.45905e-20 -9.8783e-16 0)
(2.06572e-20 -9.87833e-16 0)
(6.868e-21 -9.87835e-16 0)
(-6.42085e-21 -9.87827e-16 0)
(-1.92799e-20 -9.87825e-16 0)
(-3.21726e-20 -9.87822e-16 0)
(-4.50532e-20 -9.87817e-16 0)
(-5.77482e-20 -9.8781e-16 0)
(-6.98523e-20 -9.878e-16 0)
(-8.05832e-20 -9.87787e-16 0)
(-8.86551e-20 -9.8777e-16 0)
(-9.23944e-20 -9.87751e-16 0)
(-9.05159e-20 -9.87731e-16 0)
(-8.3389e-20 -9.87714e-16 0)
(-7.24199e-20 -9.877e-16 0)
(-5.87035e-20 -9.8769e-16 0)
(-4.48608e-20 -9.87686e-16 0)
(-3.39209e-20 -9.87686e-16 0)
(-2.61098e-20 -9.87687e-16 0)
(-2.04596e-20 -9.87688e-16 0)
(-1.4626e-20 -9.87685e-16 0)
(-5.58271e-21 -9.87682e-16 0)
(4.32522e-21 -9.87685e-16 0)
(1.3213e-20 -9.87688e-16 0)
(1.74654e-20 -9.87698e-16 0)
(1.81936e-20 -9.87699e-16 0)
(2.70316e-20 -9.87695e-16 0)
(3.32885e-20 -9.87712e-16 0)
(3.03683e-20 -9.87718e-16 0)
(3.70776e-20 -9.87712e-16 0)
(3.7892e-20 -9.8774e-16 0)
(1.84182e-20 -9.8775e-16 0)
(4.24771e-21 -9.8773e-16 0)
(2.9999e-20 -9.87692e-16 0)
(4.73142e-20 -9.87749e-16 0)
(3.22653e-20 -9.87757e-16 0)
(2.62478e-20 -9.87754e-16 0)
(2.68028e-20 -9.87751e-16 0)
(2.20747e-20 -9.8777e-16 0)
(-3.5595e-11 -1.65512e-15 0)
(-9.39138e-08 -5.65202e-06 0)
(-6.66307e-06 -0.000207874 0)
(-6.56919e-06 -0.000500678 0)
(6.56919e-06 -0.000500678 0)
(6.66307e-06 -0.000207874 0)
(9.39138e-08 -5.65202e-06 0)