/*--------------------------------*- C++ -*----------------------------------*\
  =========                 |
  \\      /  F ield         | OpenFOAM: The Open Source CFD Toolbox
   \\    /   O peration     | Website:  https://openfoam.org
    \\  /    A nd           | Version:  10
     \\/     M anipulation  |
\*---------------------------------------------------------------------------*/
FoamFile
{
    format      ascii;
    class       volVectorField;
    location    "1500";
    object      Ua;
}
// * * * * * * * * * * * * * * * * * * * * * * * * * * * * * * * * * * * * * //

dimensions      [0 1 -1 0 0 0 0];

internalField   nonuniform List<vector> 
3200
(
(-1.44041e-08 2.08018e-08 0)
(-4.27825e-08 2.05432e-08 0)
(-7.01499e-08 2.00416e-08 0)
(-9.6222e-08 1.93135e-08 0)
(-1.20753e-07 1.83765e-08 0)
(-1.43532e-07 1.72486e-08 0)
(-1.64386e-07 1.59485e-08 0)
(-1.83176e-07 1.44949e-08 0)
(-1.99791e-07 1.29068e-08 0)
(-2.14154e-07 1.12031e-08 0)
(-2.26216e-07 9.40276e-09 0)
(-2.35952e-07 7.52427e-09 0)
(-2.43361e-07 5.58584e-09 0)
(-2.48468e-07 3.60521e-09 0)
(-2.51313e-07 1.59948e-09 0)
(-2.51956e-07 -4.14921e-10 0)
(-2.50474e-07 -2.42236e-09 0)
(-2.46955e-07 -4.40811e-09 0)
(-2.41502e-07 -6.3584e-09 0)
(-2.34224e-07 -8.26046e-09 0)
(-2.2524e-07 -1.01027e-08 0)
(-2.14676e-07 -1.18745e-08 0)
(-2.02661e-07 -1.35665e-08 0)
(-1.89327e-07 -1.51706e-08 0)
(-1.74808e-07 -1.66797e-08 0)
(-1.59237e-07 -1.80879e-08 0)
(-1.42747e-07 -1.93907e-08 0)
(-1.25468e-07 -2.05843e-08 0)
(-1.07526e-07 -2.16661e-08 0)
(-8.90442e-08 -2.26348e-08 0)
(-7.014e-08 -2.34896e-08 0)
(-5.09257e-08 -2.42309e-08 0)
(-3.15075e-08 -2.48597e-08 0)
(-1.19853e-08 -2.53778e-08 0)
(7.54775e-09 -2.57876e-08 0)
(2.7005e-08 -2.60923e-08 0)
(4.63069e-08 -2.62952e-08 0)
(6.53805e-08 -2.64004e-08 0)
(8.416e-08 -2.6412e-08 0)
(1.02586e-07 -2.63347e-08 0)
(-1.47808e-08 6.29496e-08 0)
(-4.39033e-08 6.21695e-08 0)
(-7.19931e-08 6.06562e-08 0)
(-9.87612e-08 5.84596e-08 0)
(-1.23957e-07 5.56324e-08 0)
(-1.47367e-07 5.22289e-08 0)
(-1.68813e-07 4.83048e-08 0)
(-1.88152e-07 4.39167e-08 0)
(-2.05273e-07 3.91216e-08 0)
(-2.20094e-07 3.39765e-08 0)
(-2.32563e-07 2.85381e-08 0)
(-2.42655e-07 2.28622e-08 0)
(-2.50367e-07 1.70037e-08 0)
(-2.55722e-07 1.1016e-08 0)
(-2.58759e-07 4.95072e-09 0)
(-2.59539e-07 -1.14244e-09 0)
(-2.58137e-07 -7.2163e-09 0)
(-2.54644e-07 -1.32262e-08 0)
(-2.49162e-07 -1.91305e-08 0)
(-2.41802e-07 -2.48904e-08 0)
(-2.32686e-07 -3.04705e-08 0)
(-2.2194e-07 -3.58389e-08 0)
(-2.09697e-07 -4.0967e-08 0)
(-1.96092e-07 -4.58297e-08 0)
(-1.81261e-07 -5.04057e-08 0)
(-1.65341e-07 -5.46769e-08 0)
(-1.48468e-07 -5.8629e-08 0)
(-1.30776e-07 -6.22509e-08 0)
(-1.12395e-07 -6.55345e-08 0)
(-9.34509e-08 -6.84752e-08 0)
(-7.40661e-08 -7.10709e-08 0)
(-5.43559e-08 -7.33223e-08 0)
(-3.44301e-08 -7.52326e-08 0)
(-1.4392e-08 -7.68072e-08 0)
(5.6619e-09 -7.80534e-08 0)
(2.56419e-08 -7.89803e-08 0)
(4.54655e-08 -7.95985e-08 0)
(6.50573e-08 -7.99199e-08 0)
(8.43488e-08 -7.99573e-08 0)
(1.03278e-07 -7.97246e-08 0)
(-1.55406e-08 1.06739e-07 0)
(-4.61636e-08 1.05425e-07 0)
(-7.57106e-08 1.02875e-07 0)
(-1.03883e-07 9.91727e-08 0)
(-1.30422e-07 9.4407e-08 0)
(-1.55105e-07 8.86682e-08 0)
(-1.77748e-07 8.20495e-08 0)
(-1.982e-07 7.46455e-08 0)
(-2.16345e-07 6.65514e-08 0)
(-2.32094e-07 5.78625e-08 0)
(-2.45392e-07 4.86739e-08 0)
(-2.56209e-07 3.90792e-08 0)
(-2.64538e-07 2.91706e-08 0)
(-2.704e-07 1.9038e-08 0)
(-2.73833e-07 8.76843e-09 0)
(-2.74895e-07 -1.55429e-09 0)
(-2.73664e-07 -1.18502e-08 0)
(-2.70229e-07 -2.20436e-08 0)
(-2.64695e-07 -3.20635e-08 0)
(-2.57176e-07 -4.1844e-08 0)
(-2.47797e-07 -5.13245e-08 0)
(-2.36688e-07 -6.04503e-08 0)
(-2.23988e-07 -6.91722e-08 0)
(-2.09836e-07 -7.74473e-08 0)
(-1.94376e-07 -8.52382e-08 0)
(-1.77751e-07 -9.25141e-08 0)
(-1.60104e-07 -9.92494e-08 0)
(-1.41575e-07 -1.05425e-07 0)
(-1.22304e-07 -1.11026e-07 0)
(-1.02424e-07 -1.16045e-07 0)
(-8.20631e-08 -1.20477e-07 0)
(-6.13455e-08 -1.24323e-07 0)
(-4.0388e-08 -1.27588e-07 0)
(-1.93009e-08 -1.30281e-07 0)
(1.81236e-09 -1.32414e-07 0)
(2.28559e-08 -1.34003e-07 0)
(4.37413e-08 -1.35065e-07 0)
(6.43875e-08 -1.3562e-07 0)
(8.47209e-08 -1.35691e-07 0)
(1.04675e-07 -1.35301e-07 0)
(-1.66958e-08 1.53294e-07 0)
(-4.96002e-08 1.51424e-07 0)
(-8.13638e-08 1.47797e-07 0)
(-1.11674e-07 1.42529e-07 0)
(-1.40258e-07 1.35745e-07 0)
(-1.66884e-07 1.27573e-07 0)
(-1.91354e-07 1.18143e-07 0)
(-2.13509e-07 1.07589e-07 0)
(-2.33222e-07 9.60428e-08 0)
(-2.50398e-07 8.36402e-08 0)
(-2.64972e-07 7.05147e-08 0)
(-2.76907e-07 5.67986e-08 0)
(-2.86194e-07 4.26224e-08 0)
(-2.92846e-07 2.81136e-08 0)
(-2.969e-07 1.33962e-08 0)
(-2.98412e-07 -1.41019e-09 0)
(-2.97458e-07 -1.6191e-08 0)
(-2.9413e-07 -3.08376e-08 0)
(-2.88533e-07 -4.52474e-08 0)
(-2.80786e-07 -5.93252e-08 0)
(-2.71019e-07 -7.29829e-08 0)
(-2.59369e-07 -8.61406e-08 0)
(-2.4598e-07 -9.87264e-08 0)
(-2.31001e-07 -1.10677e-07 0)
(-2.14584e-07 -1.21937e-07 0)
(-1.96884e-07 -1.32461e-07 0)
(-1.78054e-07 -1.4221e-07 0)
(-1.58246e-07 -1.51155e-07 0)
(-1.37609e-07 -1.59274e-07 0)
(-1.1629e-07 -1.66554e-07 0)
(-9.44287e-08 -1.72987e-07 0)
(-7.21603e-08 -1.78574e-07 0)
(-4.96132e-08 -1.83321e-07 0)
(-2.69089e-08 -1.87239e-07 0)
(-4.16118e-09 -1.90348e-07 0)
(1.8524e-08 -1.92667e-07 0)
(4.10486e-08 -1.94222e-07 0)
(6.33231e-08 -1.95043e-07 0)
(8.52659e-08 -1.9516e-07 0)
(1.06804e-07 -1.94609e-07 0)
(-1.82644e-08 2.03782e-07 0)
(-5.42675e-08 2.01329e-07 0)
(-8.90432e-08 1.96568e-07 0)
(-1.22261e-07 1.89652e-07 0)
(-1.53631e-07 1.80741e-07 0)
(-1.82905e-07 1.70001e-07 0)
(-2.09873e-07 1.57599e-07 0)
(-2.3436e-07 1.43708e-07 0)
(-2.56227e-07 1.28499e-07 0)
(-2.75367e-07 1.12146e-07 0)
(-2.91705e-07 9.48227e-08 0)
(-3.05195e-07 7.67012e-08 0)
(-3.15818e-07 5.79513e-08 0)
(-3.23581e-07 3.87397e-08 0)
(-3.28517e-07 1.92293e-08 0)
(-3.30678e-07 -4.22301e-10 0)
(-3.30138e-07 -2.00634e-08 0)
(-3.26989e-07 -3.95494e-08 0)
(-3.2134e-07 -5.87435e-08 0)
(-3.13313e-07 -7.75176e-08 0)
(-3.03043e-07 -9.57528e-08 0)
(-2.90676e-07 -1.13341e-07 0)
(-2.76364e-07 -1.30183e-07 0)
(-2.6027e-07 -1.46193e-07 0)
(-2.42556e-07 -1.61294e-07 0)
(-2.23391e-07 -1.75422e-07 0)
(-2.02943e-07 -1.88523e-07 0)
(-1.81379e-07 -2.00555e-07 0)
(-1.58865e-07 -2.11488e-07 0)
(-1.35563e-07 -2.21298e-07 0)
(-1.11631e-07 -2.29977e-07 0)
(-8.72183e-08 -2.37521e-07 0)
(-6.2471e-08 -2.43938e-07 0)
(-3.75257e-08 -2.49242e-07 0)
(-1.25113e-08 -2.53456e-07 0)
(1.24519e-08 -2.56607e-07 0)
(3.72527e-08 -2.58729e-07 0)
(6.17888e-08 -2.59861e-07 0)
(8.59672e-08 -2.60046e-07 0)
(1.09704e-07 -2.59328e-07 0)
(-2.02699e-08 2.59432e-07 0)
(-6.02357e-08 2.5636e-07 0)
(-9.8866e-08 2.50396e-07 0)
(-1.35808e-07 2.4173e-07 0)
(-1.70754e-07 2.30557e-07 0)
(-2.03434e-07 2.1708e-07 0)
(-2.33621e-07 2.01505e-07 0)
(-2.61122e-07 1.84042e-07 0)
(-2.85784e-07 1.64902e-07 0)
(-3.07482e-07 1.44298e-07 0)
(-3.26128e-07 1.22444e-07 0)
(-3.41663e-07 9.95519e-08 0)
(-3.54057e-07 7.58328e-08 0)
(-3.63307e-07 5.14944e-08 0)
(-3.69437e-07 2.67405e-08 0)
(-3.72493e-07 1.76956e-09 0)
(-3.72548e-07 -2.32266e-08 0)
(-3.6969e-07 -4.80637e-08 0)
(-3.6403e-07 -7.25665e-08 0)
(-3.55694e-07 -9.65699e-08 0)
(-3.44824e-07 -1.1992e-07 0)
(-3.31574e-07 -1.42475e-07 0)
(-3.16108e-07 -1.64105e-07 0)
(-2.98601e-07 -1.84695e-07 0)
(-2.79232e-07 -2.04143e-07 0)
(-2.58186e-07 -2.22363e-07 0)
(-2.3565e-07 -2.3928e-07 0)
(-2.11812e-07 -2.54837e-07 0)
(-1.86859e-07 -2.68988e-07 0)
(-1.60973e-07 -2.81703e-07 0)
(-1.34334e-07 -2.92965e-07 0)
(-1.07115e-07 -3.02766e-07 0)
(-7.9482e-08 -3.11115e-07 0)
(-5.15937e-08 -3.18026e-07 0)
(-2.35991e-08 -3.23527e-07 0)
(4.36217e-09 -3.27652e-07 0)
(3.21604e-08 -3.30445e-07 0)
(5.96762e-08 -3.31953e-07 0)
(8.6801e-08 -3.32232e-07 0)
(1.13437e-07 -3.31341e-07 0)
(-2.27402e-08 3.21545e-07 0)
(-6.75883e-08 3.17814e-07 0)
(-1.10972e-07 3.10568e-07 0)
(-1.52515e-07 3.00032e-07 0)
(-1.91884e-07 2.86439e-07 0)
(-2.2879e-07 2.70029e-07 0)
(-2.62982e-07 2.51043e-07 0)
(-2.94249e-07 2.29731e-07 0)
(-3.22415e-07 2.0634e-07 0)
(-3.47338e-07 1.81125e-07 0)
(-3.6891e-07 1.54337e-07 0)
(-3.87056e-07 1.2623e-07 0)
(-4.01729e-07 9.70574e-08 0)
(-4.12913e-07 6.70691e-08 0)
(-4.20619e-07 3.65123e-08 0)
(-4.24885e-07 5.62917e-09 0)
(-4.25774e-07 -2.53443e-08 0)
(-4.23374e-07 -5.61802e-08 0)
(-4.17792e-07 -8.66598e-08 0)
(-4.09158e-07 -1.16576e-07 0)
(-3.97619e-07 -1.45732e-07 0)
(-3.83338e-07 -1.73948e-07 0)
(-3.66491e-07 -2.01058e-07 0)
(-3.47269e-07 -2.26909e-07 0)
(-3.25868e-07 -2.5137e-07 0)
(-3.02496e-07 -2.74323e-07 0)
(-2.77361e-07 -2.95671e-07 0)
(-2.50676e-07 -3.15333e-07 0)
(-2.22655e-07 -3.33245e-07 0)
(-1.93508e-07 -3.49364e-07 0)
(-1.63443e-07 -3.63661e-07 0)
(-1.32661e-07 -3.76124e-07 0)
(-1.01357e-07 -3.86756e-07 0)
(-6.97175e-08 -3.95574e-07 0)
(-3.79184e-08 -4.02607e-07 0)
(-6.12557e-09 -4.07899e-07 0)
(2.55069e-08 -4.11501e-07 0)
(5.68368e-08 -4.13473e-07 0)
(8.77343e-08 -4.13885e-07 0)
(1.18082e-07 -4.1281e-07 0)
(-2.57065e-08 3.9151e-07 0)
(-7.64195e-08 3.87075e-07 0)
(-1.2552e-07 3.78459e-07 0)
(-1.72604e-07 3.65924e-07 0)
(-2.17315e-07 3.49738e-07 0)
(-2.59338e-07 3.30175e-07 0)
(-2.984e-07 3.07514e-07 0)
(-3.34264e-07 2.82039e-07 0)
(-3.66731e-07 2.54036e-07 0)
(-3.95635e-07 2.23794e-07 0)
(-4.20845e-07 1.91605e-07 0)
(-4.42262e-07 1.57765e-07 0)
(-4.59819e-07 1.22568e-07 0)
(-4.7348e-07 8.63073e-08 0)
(-4.83239e-07 4.92763e-08 0)
(-4.89118e-07 1.17639e-08 0)
(-4.91169e-07 -2.5946e-08 0)
(-4.8947e-07 -6.35768e-08 0)
(-4.84124e-07 -1.00861e-07 0)
(-4.7526e-07 -1.37541e-07 0)
(-4.63029e-07 -1.73373e-07 0)
(-4.476e-07 -2.0813e-07 0)
(-4.29164e-07 -2.41598e-07 0)
(-4.07925e-07 -2.73583e-07 0)
(-3.84101e-07 -3.03912e-07 0)
(-3.57923e-07 -3.32431e-07 0)
(-3.29628e-07 -3.59008e-07 0)
(-2.99459e-07 -3.83533e-07 0)
(-2.67661e-07 -4.05918e-07 0)
(-2.3448e-07 -4.26098e-07 0)
(-2.00159e-07 -4.4403e-07 0)
(-1.64937e-07 -4.59688e-07 0)
(-1.29046e-07 -4.73072e-07 0)
(-9.27065e-08 -4.84195e-07 0)
(-5.6132e-08 -4.9309e-07 0)
(-1.95222e-08 -4.99806e-07 0)
(1.69361e-08 -5.04404e-07 0)
(5.30702e-08 -5.06958e-07 0)
(8.87217e-08 -5.07553e-07 0)
(1.23747e-07 -5.06281e-07 0)
(-2.92019e-08 4.70807e-07 0)
(-8.68289e-08 4.65623e-07 0)
(-1.42676e-07 4.55548e-07 0)
(-1.96314e-07 4.40879e-07 0)
(-2.47361e-07 4.21918e-07 0)
(-2.95477e-07 3.98974e-07 0)
(-3.40361e-07 3.72356e-07 0)
(-3.8175e-07 3.42381e-07 0)
(-4.19416e-07 3.09369e-07 0)
(-4.53166e-07 2.73645e-07 0)
(-4.82838e-07 2.35536e-07 0)
(-5.08307e-07 1.95377e-07 0)
(-5.29476e-07 1.53503e-07 0)
(-5.46282e-07 1.10252e-07 0)
(-5.58693e-07 6.59643e-08 0)
(-5.66711e-07 2.09771e-08 0)
(-5.70366e-07 -2.43736e-08 0)
(-5.69721e-07 -6.97569e-08 0)
(-5.64868e-07 -1.1485e-07 0)
(-5.5593e-07 -1.59338e-07 0)
(-5.43054e-07 -2.02921e-07 0)
(-5.26417e-07 -2.45312e-07 0)
(-5.06216e-07 -2.86244e-07 0)
(-4.82674e-07 -3.25466e-07 0)
(-4.56029e-07 -3.62755e-07 0)
(-4.26537e-07 -3.97905e-07 0)
(-3.94468e-07 -4.30742e-07 0)
(-3.60101e-07 -4.61115e-07 0)
(-3.23719e-07 -4.889e-07 0)
(-2.85613e-07 -5.14003e-07 0)
(-2.4607e-07 -5.36356e-07 0)
(-2.05375e-07 -5.55917e-07 0)
(-1.63808e-07 -5.72673e-07 0)
(-1.21638e-07 -5.86632e-07 0)
(-7.91233e-08 -5.97826e-07 0)
(-3.65104e-08 -6.0631e-07 0)
(5.97089e-09 -6.12155e-07 0)
(4.81069e-08 -6.1545e-07 0)
(8.97014e-08 -6.16298e-07 0)
(1.30576e-07 -6.14813e-07 0)
(-3.3259e-08 5.61011e-07 0)
(-9.89151e-08 5.55036e-07 0)
(-1.62609e-07 5.43416e-07 0)
(-2.23888e-07 5.26484e-07 0)
(-2.82346e-07 5.04573e-07 0)
(-3.37617e-07 4.7802e-07 0)
(-3.89374e-07 4.47162e-07 0)
(-4.37322e-07 4.12344e-07 0)
(-4.81205e-07 3.73914e-07 0)
(-5.20793e-07 3.32226e-07 0)
(-5.55892e-07 2.8764e-07 0)
(-5.86338e-07 2.40525e-07 0)
(-6.12e-07 1.91254e-07 0)
(-6.32777e-07 1.40208e-07 0)
(-6.48603e-07 8.77721e-08 0)
(-6.59445e-07 3.43357e-08 0)
(-6.65304e-07 -1.97109e-08 0)
(-6.66218e-07 -7.39782e-08 0)
(-6.62257e-07 -1.2808e-07 0)
(-6.53526e-07 -1.81638e-07 0)
(-6.40164e-07 -2.34284e-07 0)
(-6.22346e-07 -2.85661e-07 0)
(-6.00273e-07 -3.35431e-07 0)
(-5.74179e-07 -3.83278e-07 0)
(-5.44324e-07 -4.28907e-07 0)
(-5.10991e-07 -4.72052e-07 0)
(-4.74483e-07 -5.12475e-07 0)
(-4.35121e-07 -5.49971e-07 0)
(-3.93236e-07 -5.84365e-07 0)
(-3.4917e-07 -6.15521e-07 0)
(-3.03265e-07 -6.43334e-07 0)
(-2.55868e-07 -6.67736e-07 0)
(-2.07318e-07 -6.8869e-07 0)
(-1.57946e-07 -7.06193e-07 0)
(-1.08073e-07 -7.20275e-07 0)
(-5.8005e-08 -7.30989e-07 0)
(-8.02991e-09 -7.38419e-07 0)
(4.15834e-08 -7.42669e-07 0)
(9.05872e-08 -7.43865e-07 0)
(1.38756e-07 -7.42147e-07 0)
(-3.79074e-08 6.63787e-07 0)
(-1.12768e-07 6.56985e-07 0)
(-1.85472e-07 6.43749e-07 0)
(-2.5555e-07 6.24442e-07 0)
(-3.22573e-07 5.99426e-07 0)
(-3.86153e-07 5.69058e-07 0)
(-4.45936e-07 5.33699e-07 0)
(-5.01599e-07 4.93711e-07 0)
(-5.52847e-07 4.49463e-07 0)
(-5.99415e-07 4.0133e-07 0)
(-6.41067e-07 3.49697e-07 0)
(-6.77594e-07 2.9496e-07 0)
(-7.08819e-07 2.37524e-07 0)
(-7.34592e-07 1.77808e-07 0)
(-7.54802e-07 1.1624e-07 0)
(-7.69366e-07 5.32587e-08 0)
(-7.78244e-07 -1.06901e-08 0)
(-7.81428e-07 -7.51542e-08 0)
(-7.78955e-07 -1.3968e-07 0)
(-7.70899e-07 -2.03813e-07 0)
(-7.57377e-07 -2.67106e-07 0)
(-7.38548e-07 -3.29121e-07 0)
(-7.14608e-07 -3.89435e-07 0)
(-6.85795e-07 -4.47641e-07 0)
(-6.52385e-07 -5.03359e-07 0)
(-6.14685e-07 -5.56238e-07 0)
(-5.73034e-07 -6.05956e-07 0)
(-5.27797e-07 -6.52232e-07 0)
(-4.79362e-07 -6.9482e-07 0)
(-4.2813e-07 -7.3352e-07 0)
(-3.74515e-07 -7.68173e-07 0)
(-3.18937e-07 -7.98665e-07 0)
(-2.61814e-07 -8.24927e-07 0)
(-2.03558e-07 -8.46932e-07 0)
(-1.44572e-07 -8.64696e-07 0)
(-8.5243e-08 -8.78271e-07 0)
(-2.59366e-08 -8.87748e-07 0)
(3.30027e-08 -8.93249e-07 0)
(9.1257e-08 -8.94924e-07 0)
(1.48536e-07 -8.92948e-07 0)
(-4.31696e-08 7.80875e-07 0)
(-1.28456e-07 7.73223e-07 0)
(-2.11387e-07 7.58322e-07 0)
(-2.91481e-07 7.36564e-07 0)
(-3.68297e-07 7.08327e-07 0)
(-4.41429e-07 6.73987e-07 0)
(-5.10498e-07 6.33912e-07 0)
(-5.75151e-07 5.88476e-07 0)
(-6.35059e-07 5.38054e-07 0)
(-6.89915e-07 4.83032e-07 0)
(-7.39435e-07 4.23806e-07 0)
(-7.83356e-07 3.60789e-07 0)
(-8.21443e-07 2.94407e-07 0)
(-8.53487e-07 2.25108e-07 0)
(-8.79312e-07 1.53354e-07 0)
(-8.98772e-07 7.96291e-08 0)
(-9.11761e-07 4.4321e-09 0)
(-9.18213e-07 -7.17223e-08 0)
(-9.18104e-07 -1.48308e-07 0)
(-9.11459e-07 -2.24789e-07 0)
(-8.9835e-07 -3.00628e-07 0)
(-8.78902e-07 -3.75288e-07 0)
(-8.5329e-07 -4.48242e-07 0)
(-8.2174e-07 -5.18973e-07 0)
(-7.84529e-07 -5.8699e-07 0)
(-7.41984e-07 -6.51826e-07 0)
(-6.94476e-07 -7.13049e-07 0)
(-6.42415e-07 -7.7027e-07 0)
(-5.86248e-07 -8.23141e-07 0)
(-5.26451e-07 -8.71368e-07 0)
(-4.63522e-07 -9.14711e-07 0)
(-3.97973e-07 -9.52985e-07 0)
(-3.30324e-07 -9.86065e-07 0)
(-2.61094e-07 -1.01388e-06 0)
(-1.90794e-07 -1.03642e-06 0)
(-1.19921e-07 -1.05373e-06 0)
(-4.89487e-08 -1.06589e-06 0)
(2.16747e-08 -1.07306e-06 0)
(9.1533e-08 -1.0754e-06 0)
(1.60245e-07 -1.07314e-06 0)
(-4.90569e-08 9.14066e-07 0)
(-1.46017e-07 9.05559e-07 0)
(-2.40422e-07 8.88982e-07 0)
(-3.31793e-07 8.64746e-07 0)
(-4.19687e-07 8.33242e-07 0)
(-5.03689e-07 7.94847e-07 0)
(-5.83401e-07 7.49929e-07 0)
(-6.58446e-07 6.98854e-07 0)
(-7.2846e-07 6.41992e-07 0)
(-7.93091e-07 5.79721e-07 0)
(-8.52002e-07 5.12432e-07 0)
(-9.0487e-07 4.40536e-07 0)
(-9.51392e-07 3.64467e-07 0)
(-9.91283e-07 2.84681e-07 0)
(-1.02428e-06 2.01666e-07 0)
(-1.05016e-06 1.15936e-07 0)
(-1.06873e-06 2.80344e-08 0)
(-1.07983e-06 -6.14659e-08 0)
(-1.08335e-06 -1.51967e-07 0)
(-1.07923e-06 -2.4285e-07 0)
(-1.06747e-06 -3.33476e-07 0)
(-1.04814e-06 -4.23195e-07 0)
(-1.02135e-06 -5.11356e-07 0)
(-9.87304e-07 -5.97307e-07 0)
(-9.46247e-07 -6.80411e-07 0)
(-8.98509e-07 -7.60053e-07 0)
(-8.44481e-07 -8.35651e-07 0)
(-7.84614e-07 -9.06662e-07 0)
(-7.19416e-07 -9.72595e-07 0)
(-6.49444e-07 -1.03302e-06 0)
(-5.75295e-07 -1.08756e-06 0)
(-4.97598e-07 -1.13594e-06 0)
(-4.17004e-07 -1.17792e-06 0)
(-3.3417e-07 -1.21337e-06 0)
(-2.49756e-07 -1.24222e-06 0)
(-1.64408e-07 -1.26449e-06 0)
(-7.87518e-08 -1.28026e-06 0)
(6.6191e-09 -1.28968e-06 0)
(9.11486e-08 -1.29297e-06 0)
(1.74326e-07 -1.29038e-06 0)
(-5.55639e-08 1.06516e-06 0)
(-1.65437e-07 1.05582e-06 0)
(-2.72563e-07 1.0376e-06 0)
(-3.76486e-07 1.01094e-06 0)
(-4.76776e-07 9.76218e-07 0)
(-5.7302e-07 9.33801e-07 0)
(-6.64815e-07 8.84041e-07 0)
(-7.51765e-07 8.27279e-07 0)
(-8.33475e-07 7.63857e-07 0)
(-9.09553e-07 6.94125e-07 0)
(-9.79606e-07 6.18447e-07 0)
(-1.04325e-06 5.37209e-07 0)
(-1.10009e-06 4.50823e-07 0)
(-1.14976e-06 3.59737e-07 0)
(-1.1919e-06 2.64436e-07 0)
(-1.22617e-06 1.65444e-07 0)
(-1.25225e-06 6.33329e-08 0)
(-1.26988e-06 -4.12837e-08 0)
(-1.27882e-06 -1.47746e-07 0)
(-1.27888e-06 -2.55354e-07 0)
(-1.26995e-06 -3.63365e-07 0)
(-1.25198e-06 -4.7101e-07 0)
(-1.225e-06 -5.77489e-07 0)
(-1.18912e-06 -6.8199e-07 0)
(-1.14452e-06 -7.83697e-07 0)
(-1.09152e-06 -8.81799e-07 0)
(-1.03048e-06 -9.75511e-07 0)
(-9.6188e-07 -1.06408e-06 0)
(-8.8628e-07 -1.14681e-06 0)
(-8.0432e-07 -1.22306e-06 0)
(-7.1671e-07 -1.29227e-06 0)
(-6.24219e-07 -1.35397e-06 0)
(-5.27661e-07 -1.40779e-06 0)
(-4.27882e-07 -1.45347e-06 0)
(-3.25739e-07 -1.49084e-06 0)
(-2.2209e-07 -1.51984e-06 0)
(-1.17772e-07 -1.54054e-06 0)
(-1.35928e-08 -1.55309e-06 0)
(8.96899e-08 -1.55774e-06 0)
(1.91374e-07 -1.5548e-06 0)
(-6.26625e-08 1.23589e-06 0)
(-1.86634e-07 1.22578e-06 0)
(-3.07687e-07 1.20604e-06 0)
(-4.25409e-07 1.1771e-06 0)
(-5.39405e-07 1.13934e-06 0)
(-6.49282e-07 1.09309e-06 0)
(-7.54648e-07 1.03867e-06 0)
(-8.55102e-07 9.76373e-07 0)
(-9.50229e-07 9.06491e-07 0)
(-1.0396e-06 8.29318e-07 0)
(-1.12278e-06 7.45159e-07 0)
(-1.1993e-06 6.54345e-07 0)
(-1.26869e-06 5.57237e-07 0)
(-1.33049e-06 4.54234e-07 0)
(-1.38421e-06 3.45786e-07 0)
(-1.42937e-06 2.32395e-07 0)
(-1.46552e-06 1.14625e-07 0)
(-1.49222e-06 -6.89746e-09 0)
(-1.50907e-06 -1.31476e-07 0)
(-1.51571e-06 -2.58347e-07 0)
(-1.51184e-06 -3.86679e-07 0)
(-1.49725e-06 -5.15578e-07 0)
(-1.47179e-06 -6.44091e-07 0)
(-1.43543e-06 -7.7122e-07 0)
(-1.38824e-06 -8.95931e-07 0)
(-1.3304e-06 -1.01717e-06 0)
(-1.26225e-06 -1.13388e-06 0)
(-1.18423e-06 -1.24503e-06 0)
(-1.09691e-06 -1.34961e-06 0)
(-1.00102e-06 -1.44668e-06 0)
(-8.9736e-07 -1.53541e-06 0)
(-7.86876e-07 -1.61503e-06 0)
(-6.70584e-07 -1.68492e-06 0)
(-5.4957e-07 -1.74459e-06 0)
(-4.24968e-07 -1.79372e-06 0)
(-2.9793e-07 -1.83211e-06 0)
(-1.69604e-07 -1.85974e-06 0)
(-4.11092e-08 -1.87675e-06 0)
(8.64907e-08 -1.8834e-06 0)
(2.12203e-07 -1.8801e-06 0)
(-7.02959e-08 1.42791e-06 0)
(-2.09443e-07 1.41713e-06 0)
(-3.45528e-07 1.39606e-06 0)
(-4.78213e-07 1.36512e-06 0)
(-6.07162e-07 1.32466e-06 0)
(-7.32029e-07 1.27497e-06 0)
(-8.52455e-07 1.21631e-06 0)
(-9.68051e-07 1.1489e-06 0)
(-1.0784e-06 1.07296e-06 0)
(-1.18306e-06 9.88687e-07 0)
(-1.28155e-06 8.96303e-07 0)
(-1.37334e-06 7.9604e-07 0)
(-1.45788e-06 6.88163e-07 0)
(-1.53459e-06 5.72981e-07 0)
(-1.60286e-06 4.50856e-07 0)
(-1.66207e-06 3.22217e-07 0)
(-1.71157e-06 1.87568e-07 0)
(-1.75072e-06 4.75001e-08 0)
(-1.7789e-06 -9.73043e-08 0)
(-1.79551e-06 -2.46061e-07 0)
(-1.80001e-06 -3.97883e-07 0)
(-1.79191e-06 -5.51777e-07 0)
(-1.77081e-06 -7.06648e-07 0)
(-1.73643e-06 -8.61302e-07 0)
(-1.6886e-06 -1.01446e-06 0)
(-1.62731e-06 -1.16478e-06 0)
(-1.55272e-06 -1.31086e-06 0)
(-1.46515e-06 -1.45128e-06 0)
(-1.36515e-06 -1.58462e-06 0)
(-1.25341e-06 -1.70951e-06 0)
(-1.13087e-06 -1.82464e-06 0)
(-9.98604e-07 -1.92882e-06 0)
(-8.57881e-07 -2.021e-06 0)
(-7.10098e-07 -2.10033e-06 0)
(-5.5676e-07 -2.16613e-06 0)
(-3.99443e-07 -2.21797e-06 0)
(-2.39752e-07 -2.25565e-06 0)
(-7.92805e-08 -2.27922e-06 0)
(8.04324e-08 -2.28894e-06 0)
(2.37939e-07 -2.28531e-06 0)
(-7.83719e-08 1.64261e-06 0)
(-2.3359e-07 1.63131e-06 0)
(-3.85644e-07 1.60921e-06 0)
(-5.34301e-07 1.5767e-06 0)
(-6.79317e-07 1.53408e-06 0)
(-8.20425e-07 1.48159e-06 0)
(-9.57324e-07 1.41941e-06 0)
(-1.08967e-06 1.34766e-06 0)
(-1.21708e-06 1.26645e-06 0)
(-1.33909e-06 1.17587e-06 0)
(-1.45522e-06 1.07599e-06 0)
(-1.56491e-06 9.66916e-07 0)
(-1.66752e-06 8.48764e-07 0)
(-1.76239e-06 7.21693e-07 0)
(-1.84877e-06 5.85916e-07 0)
(-1.92587e-06 4.41716e-07 0)
(-1.99285e-06 2.89465e-07 0)
(-2.04883e-06 1.29635e-07 0)
(-2.09293e-06 -3.71849e-08 0)
(-2.12422e-06 -2.1027e-07 0)
(-2.14184e-06 -3.88753e-07 0)
(-2.14491e-06 -5.71609e-07 0)
(-2.13267e-06 -7.57649e-07 0)
(-2.10442e-06 -9.4552e-07 0)
(-2.0596e-06 -1.13371e-06 0)
(-1.99783e-06 -1.32054e-06 0)
(-1.91892e-06 -1.50421e-06 0)
(-1.82292e-06 -1.68283e-06 0)
(-1.71013e-06 -1.85439e-06 0)
(-1.58117e-06 -2.01691e-06 0)
(-1.43692e-06 -2.16839e-06 0)
(-1.27861e-06 -2.30695e-06 0)
(-1.10772e-06 -2.43084e-06 0)
(-9.26025e-07 -2.53852e-06 0)
(-7.35534e-07 -2.62873e-06 0)
(-5.38424e-07 -2.70053e-06 0)
(-3.36988e-07 -2.75334e-06 0)
(-1.33563e-07 -2.78696e-06 0)
(6.95469e-08 -2.80159e-06 0)
(2.70143e-07 -2.79779e-06 0)
(-8.67577e-08 1.88108e-06 0)
(-2.58683e-07 1.86948e-06 0)
(-4.27388e-07 1.84676e-06 0)
(-5.92787e-07 1.81328e-06 0)
(-7.54763e-07 1.76928e-06 0)
(-9.13162e-07 1.71492e-06 0)
(-1.06778e-06 1.65028e-06 0)
(-1.21835e-06 1.57537e-06 0)
(-1.36455e-06 1.49016e-06 0)
(-1.50597e-06 1.39459e-06 0)
(-1.64214e-06 1.28857e-06 0)
(-1.77248e-06 1.17201e-06 0)
(-1.89635e-06 1.04483e-06 0)
(-2.01299e-06 9.06961e-07 0)
(-2.12156e-06 7.58403e-07 0)
(-2.22112e-06 5.99202e-07 0)
(-2.31064e-06 4.29494e-07 0)
(-2.38898e-06 2.49521e-07 0)
(-2.45495e-06 5.96593e-08 0)
(-2.50728e-06 -1.39561e-07 0)
(-2.54466e-06 -3.47424e-07 0)
(-2.56574e-06 -5.63007e-07 0)
(-2.5692e-06 -7.85156e-07 0)
(-2.55377e-06 -1.01246e-06 0)
(-2.51827e-06 -1.24326e-06 0)
(-2.46167e-06 -1.4756e-06 0)
(-2.38315e-06 -1.70727e-06 0)
(-2.28218e-06 -1.93579e-06 0)
(-2.15854e-06 -2.15849e-06 0)
(-2.01243e-06 -2.3725e-06 0)
(-1.84449e-06 -2.57485e-06 0)
(-1.65583e-06 -2.76255e-06 0)
(-1.44811e-06 -2.93271e-06 0)
(-1.22345e-06 -3.0826e-06 0)
(-9.84474e-07 -3.20985e-06 0)
(-7.34201e-07 -3.3125e-06 0)
(-4.75969e-07 -3.38913e-06 0)
(-2.13313e-07 -3.43895e-06 0)
(5.01749e-08 -3.46185e-06 0)
(3.10993e-07 -3.45839e-06 0)
(-9.52771e-08 2.14397e-06 0)
(-2.84193e-07 2.13234e-06 0)
(-4.69892e-07 2.10953e-06 0)
(-6.52467e-07 2.07585e-06 0)
(-8.31971e-07 2.03148e-06 0)
(-1.0084e-06 1.97649e-06 0)
(-1.18168e-06 1.91084e-06 0)
(-1.35169e-06 1.83442e-06 0)
(-1.51819e-06 1.74705e-06 0)
(-1.68088e-06 1.64847e-06 0)
(-1.83935e-06 1.53841e-06 0)
(-1.99309e-06 1.41654e-06 0)
(-2.14147e-06 1.28254e-06 0)
(-2.28372e-06 1.13606e-06 0)
(-2.41896e-06 9.7678e-07 0)
(-2.54616e-06 8.04425e-07 0)
(-2.66412e-06 6.18773e-07 0)
(-2.77151e-06 4.19695e-07 0)
(-2.86683e-06 2.07184e-07 0)
(-2.94843e-06 -1.86102e-08 0)
(-3.01453e-06 -2.57337e-07 0)
(-3.0632e-06 -5.08404e-07 0)
(-3.09243e-06 -7.70932e-07 0)
(-3.10015e-06 -1.0437e-06 0)
(-3.08428e-06 -1.32512e-06 0)
(-3.0428e-06 -1.61315e-06 0)
(-2.97384e-06 -1.90532e-06 0)
(-2.87577e-06 -2.19866e-06 0)
(-2.74731e-06 -2.48973e-06 0)
(-2.58768e-06 -2.77462e-06 0)
(-2.39668e-06 -3.04903e-06 0)
(-2.17484e-06 -3.30836e-06 0)
(-1.92353e-06 -3.54785e-06 0)
(-1.64502e-06 -3.76274e-06 0)
(-1.3425e-06 -3.94854e-06 0)
(-1.02007e-06 -4.10121e-06 0)
(-6.82612e-07 -4.21749e-06 0)
(-3.35622e-07 -4.2951e-06 0)
(1.50404e-08 -4.33297e-06 0)
(3.63456e-07 -4.33132e-06 0)
(-1.03709e-07 2.43134e-06 0)
(-3.09464e-07 2.42e-06 0)
(-5.12059e-07 2.39775e-06 0)
(-7.1181e-07 2.36484e-06 0)
(-9.0897e-07 2.32136e-06 0)
(-1.10373e-06 2.26729e-06 0)
(-1.29619e-06 2.20248e-06 0)
(-1.4864e-06 2.12668e-06 0)
(-1.67429e-06 2.03955e-06 0)
(-1.85972e-06 1.94066e-06 0)
(-2.04241e-06 1.82951e-06 0)
(-2.22198e-06 1.70552e-06 0)
(-2.39791e-06 1.56808e-06 0)
(-2.56954e-06 1.41651e-06 0)
(-2.73601e-06 1.25013e-06 0)
(-2.89632e-06 1.06822e-06 0)
(-3.04923e-06 8.70098e-07 0)
(-3.19329e-06 6.55097e-07 0)
(-3.32681e-06 4.22637e-07 0)
(-3.44784e-06 1.7225e-07 0)
(-3.55415e-06 -9.63694e-08 0)
(-3.64324e-06 -3.83299e-07 0)
(-3.71234e-06 -6.88323e-07 0)
(-3.75843e-06 -1.01085e-06 0)
(-3.77825e-06 -1.34981e-06 0)
(-3.76842e-06 -1.70359e-06 0)
(-3.72543e-06 -2.06989e-06 0)
(-3.64588e-06 -2.44564e-06 0)
(-3.52654e-06 -2.82694e-06 0)
(-3.36461e-06 -3.20893e-06 0)
(-3.15791e-06 -3.58583e-06 0)
(-2.9052e-06 -3.95092e-06 0)
(-2.60643e-06 -4.2967e-06 0)
(-2.26303e-06 -4.61504e-06 0)
(-1.87816e-06 -4.89754e-06 0)
(-1.45684e-06 -5.13598e-06 0)
(-1.00598e-06 -5.32286e-06 0)
(-5.34235e-07 -5.4521e-06 0)
(-5.15993e-08 -5.51966e-06 0)
(4.31192e-07 -5.52415e-06 0)
(-1.11794e-07 2.74256e-06 0)
(-3.33712e-07 2.7319e-06 0)
(-5.52586e-07 2.71096e-06 0)
(-7.68977e-07 2.67991e-06 0)
(-9.83373e-07 2.63878e-06 0)
(-1.19619e-06 2.58747e-06 0)
(-1.40775e-06 2.52571e-06 0)
(-1.61832e-06 2.45312e-06 0)
(-1.82805e-06 2.36923e-06 0)
(-2.03702e-06 2.27343e-06 0)
(-2.24518e-06 2.16501e-06 0)
(-2.45237e-06 2.04315e-06 0)
(-2.65828e-06 1.90694e-06 0)
(-2.86248e-06 1.75538e-06 0)
(-3.06431e-06 1.58735e-06 0)
(-3.26293e-06 1.40168e-06 0)
(-3.45727e-06 1.1971e-06 0)
(-3.64597e-06 9.72307e-07 0)
(-3.82735e-06 7.25957e-07 0)
(-3.99938e-06 4.56718e-07 0)
(-4.15962e-06 1.63307e-07 0)
(-4.30518e-06 -1.55443e-07 0)
(-4.43267e-06 -5.00508e-07 0)
(-4.53817e-06 -8.72564e-07 0)
(-4.6172e-06 -1.27186e-06 0)
(-4.66472e-06 -1.69808e-06 0)
(-4.67516e-06 -2.1501e-06 0)
(-4.64251e-06 -2.62583e-06 0)
(-4.56045e-06 -3.12194e-06 0)
(-4.42258e-06 -3.63358e-06 0)
(-4.22275e-06 -4.15417e-06 0)
(-3.95552e-06 -4.67511e-06 0)
(-3.6167e-06 -5.18566e-06 0)
(-3.20408e-06 -5.6729e-06 0)
(-2.71816e-06 -6.12195e-06 0)
(-2.16301e-06 -6.51645e-06 0)
(-1.54688e-06 -6.83944e-06 0)
(-8.82669e-07 -7.07478e-06 0)
(-1.87786e-07 -7.20904e-06 0)
(5.16739e-07 -7.23383e-06 0)
(-1.1924e-07 3.07622e-06 0)
(-3.56062e-07 3.06664e-06 0)
(-5.90002e-07 3.04781e-06 0)
(-8.21883e-07 3.01984e-06 0)
(-1.05245e-06 2.98269e-06 0)
(-1.28236e-06 2.93617e-06 0)
(-1.51219e-06 2.87994e-06 0)
(-1.74247e-06 2.81354e-06 0)
(-1.97363e-06 2.73635e-06 0)
(-2.206e-06 2.64765e-06 0)
(-2.43986e-06 2.54657e-06 0)
(-2.67536e-06 2.43209e-06 0)
(-2.91254e-06 2.30305e-06 0)
(-3.15131e-06 2.15815e-06 0)
(-3.39141e-06 1.9959e-06 0)
(-3.63241e-06 1.81466e-06 0)
(-3.87362e-06 1.61262e-06 0)
(-4.11409e-06 1.38776e-06 0)
(-4.35253e-06 1.13791e-06 0)
(-4.58724e-06 8.60722e-07 0)
(-4.81602e-06 5.53674e-07 0)
(-5.03611e-06 2.14139e-07 0)
(-5.24401e-06 -1.6059e-07 0)
(-5.43545e-06 -5.73207e-07 0)
(-5.60516e-06 -1.02628e-06 0)
(-5.74679e-06 -1.52208e-06 0)
(-5.85276e-06 -2.06236e-06 0)
(-5.91417e-06 -2.64802e-06 0)
(-5.92072e-06 -3.27872e-06 0)
(-5.86077e-06 -3.95233e-06 0)
(-5.7215e-06 -4.66433e-06 0)
(-5.48936e-06 -5.40699e-06 0)
(-5.15071e-06 -6.16851e-06 0)
(-4.69295e-06 -6.93209e-06 0)
(-4.10615e-06 -7.67506e-06 0)
(-3.38524e-06 -8.36826e-06 0)
(-2.53275e-06 -8.97603e-06 0)
(-1.562e-06 -9.45726e-06 0)
(-5.0016e-07 -9.76844e-06 0)
(6.09976e-07 -9.86988e-06 0)
(-1.25739e-07 3.43e-06 0)
(-3.75586e-07 3.42194e-06 0)
(-6.22742e-07 3.40606e-06 0)
(-8.68294e-07 3.38242e-06 0)
(-1.11324e-06 3.35093e-06 0)
(-1.3585e-06 3.31133e-06 0)
(-1.60493e-06 3.26326e-06 0)
(-1.85332e-06 3.20619e-06 0)
(-2.10439e-06 3.13947e-06 0)
(-2.35882e-06 3.06229e-06 0)
(-2.61724e-06 2.9737e-06 0)
(-2.88021e-06 2.87259e-06 0)
(-3.1482e-06 2.75765e-06 0)
(-3.42163e-06 2.62738e-06 0)
(-3.70081e-06 2.48006e-06 0)
(-3.98591e-06 2.31372e-06 0)
(-4.27697e-06 2.12612e-06 0)
(-4.57379e-06 1.9147e-06 0)
(-4.87592e-06 1.67653e-06 0)
(-5.18259e-06 1.40834e-06 0)
(-5.49256e-06 1.10638e-06 0)
(-5.80403e-06 7.66484e-07 0)
(-6.11449e-06 3.83955e-07 0)
(-6.42048e-06 -4.63981e-08 0)
(-6.71735e-06 -5.30273e-07 0)
(-6.99896e-06 -1.07383e-06 0)
(-7.25726e-06 -1.68356e-06 0)
(-7.4819e-06 -2.36611e-06 0)
(-7.65964e-06 -3.12791e-06 0)
(-7.77385e-06 -3.97466e-06 0)
(-7.80389e-06 -4.91044e-06 0)
(-7.72467e-06 -5.93657e-06 0)
(-7.50642e-06 -7.0498e-06 0)
(-7.11487e-06 -8.23995e-06 0)
(-6.51242e-06 -9.4866e-06 0)
(-5.66074e-06 -1.07547e-05 0)
(-4.52587e-06 -1.19889e-05 0)
(-3.08727e-06 -1.31063e-05 0)
(-1.35328e-06 -1.39869e-05 0)
(6.1317e-07 -1.44619e-05 0)
(-1.30983e-07 3.80075e-06 0)
(-3.91359e-07 3.79461e-06 0)
(-6.49246e-07 3.78248e-06 0)
(-9.05976e-07 3.76437e-06 0)
(-1.16279e-06 3.74015e-06 0)
(-1.42084e-06 3.70956e-06 0)
(-1.68125e-06 3.67222e-06 0)
(-1.94508e-06 3.62762e-06 0)
(-2.21335e-06 3.57511e-06 0)
(-2.48709e-06 3.51393e-06 0)
(-2.7673e-06 3.44314e-06 0)
(-3.05497e-06 3.36164e-06 0)
(-3.35109e-06 3.26817e-06 0)
(-3.65666e-06 3.16121e-06 0)
(-3.97266e-06 3.03902e-06 0)
(-4.30007e-06 2.89956e-06 0)
(-4.63984e-06 2.74045e-06 0)
(-4.99288e-06 2.55892e-06 0)
(-5.36003e-06 2.35172e-06 0)
(-5.742e-06 2.11504e-06 0)
(-6.13931e-06 1.84443e-06 0)
(-6.55222e-06 1.53463e-06 0)
(-6.98055e-06 1.17945e-06 0)
(-7.4235e-06 7.71619e-07 0)
(-7.87942e-06 3.02531e-07 0)
(-8.3454e-06 -2.3794e-07 0)
(-8.81676e-06 -8.61703e-07 0)
(-9.28633e-06 -1.58271e-06 0)
(-9.7435e-06 -2.41718e-06 0)
(-1.01729e-05 -3.38377e-06 0)
(-1.05525e-05 -4.50361e-06 0)
(-1.08515e-05 -5.79999e-06 0)
(-1.10271e-05 -7.29762e-06 0)
(-1.10206e-05 -9.02109e-06 0)
(-1.07525e-05 -1.09922e-05 0)
(-1.0116e-05 -1.32254e-05 0)
(-8.96949e-06 -1.57213e-05 0)
(-7.12554e-06 -1.84571e-05 0)
(-4.3364e-06 -2.13744e-05 0)
(-2.70512e-07 -2.43654e-05 0)
(-1.34694e-07 4.18443e-06 0)
(-4.02534e-07 4.18056e-06 0)
(-6.68075e-07 4.17288e-06 0)
(-9.32854e-07 4.16136e-06 0)
(-1.19831e-06 4.14585e-06 0)
(-1.46581e-06 4.12611e-06 0)
(-1.73669e-06 4.1018e-06 0)
(-2.01225e-06 4.07248e-06 0)
(-2.29379e-06 4.03761e-06 0)
(-2.58262e-06 3.99652e-06 0)
(-2.8801e-06 3.94844e-06 0)
(-3.18764e-06 3.89245e-06 0)
(-3.50669e-06 3.82746e-06 0)
(-3.83882e-06 3.75221e-06 0)
(-4.18571e-06 3.6652e-06 0)
(-4.54916e-06 3.56466e-06 0)
(-4.9311e-06 3.44851e-06 0)
(-5.33366e-06 3.31429e-06 0)
(-5.75914e-06 3.15906e-06 0)
(-6.21009e-06 2.97929e-06 0)
(-6.68927e-06 2.77077e-06 0)
(-7.19969e-06 2.52839e-06 0)
(-7.74463e-06 2.24593e-06 0)
(-8.3276e-06 1.9158e-06 0)
(-8.95231e-06 1.52865e-06 0)
(-9.62258e-06 1.07287e-06 0)
(-1.03421e-05 5.34e-07 0)
(-1.11141e-05 -1.06157e-07 0)
(-1.19407e-05 -8.70589e-07 0)
(-1.28222e-05 -1.78851e-06 0)
(-1.3755e-05 -2.89718e-06 0)
(-1.47296e-05 -4.24416e-06 0)
(-1.57268e-05 -5.89015e-06 0)
(-1.67123e-05 -7.91205e-06 0)
(-1.76294e-05 -1.04062e-05 0)
(-1.83888e-05 -1.34909e-05 0)
(-1.88579e-05 -1.73059e-05 0)
(-1.88497e-05 -2.20068e-05 0)
(-1.81198e-05 -2.77461e-05 0)
(-1.6397e-05 -3.45989e-05 0)
(-1.36635e-07 4.57628e-06 0)
(-4.08401e-07 4.57494e-06 0)