/*--------------------------------*- C++ -*----------------------------------*\
  =========                 |
  \\      /  F ield         | OpenFOAM: The Open Source CFD Toolbox
   \\    /   O peration     | Website:  https://openfoam.org
    \\  /    A nd           | Version:  10
     \\/     M anipulation  |
\*---------------------------------------------------------------------------*/
FoamFile
{
    format      ascii;
    class       volVectorField;
    location    "25000";
    object      Ub;
}
// * * * * * * * * * * * * * * * * * * * * * * * * * * * * * * * * * * * * * //

dimensions      [0 1 -1 0 0 0 0];

internalField   nonuniform List<vector> 
3200
(
(-2.2482e-20 -9.87866e-16 0)
(-7.15198e-20 -9.8786e-16 0)
(-1.34936e-19 -9.87844e-16 0)
(-2.30316e-19 -9.8781e-16 0)
(-1.85965e-13 -9.87738e-16 0)
(-1.12677e-05 -3.30909e-10 0)
(-4.00917e-05 -7.32505e-05 0)
(-5.90268e-05 -9.67336e-06 0)
(-6.10551e-05 -4.18333e-06 0)
(-6.21213e-05 -2.36948e-06 0)
(-6.28393e-05 -1.52045e-06 0)
(-6.33718e-05 -1.05284e-06 0)
(-6.37882e-05 -7.68622e-07 0)
(-6.41254e-05 -5.83733e-07 0)
(-6.44052e-05 -4.57221e-07 0)
(-6.46421e-05 -3.67161e-07 0)
(-6.48455e-05 -3.00963e-07 0)
(-6.50225e-05 -2.51e-07 0)
(-6.51781e-05 -2.12441e-07 0)
(-6.53161e-05 -1.82108e-07 0)
(-6.54394e-05 -1.5785e-07 0)
(-6.55504e-05 -1.38167e-07 0)
(-6.56508e-05 -1.21991e-07 0)
(-6.57422e-05 -1.0855e-07 0)
(-6.37031e-05 -4.79368e-06 0)
(-5.75624e-05 -9.31088e-06 0)
(-4.8397e-05 -1.18697e-05 0)
(-3.96939e-05 -8.54195e-06 0)
(-3.39292e-05 -5.29424e-06 0)
(-3.0437e-05 -3.33347e-06 0)
(-2.82761e-05 -2.18902e-06 0)
(-2.68635e-05 -1.56165e-06 0)
(-2.58303e-05 -1.28461e-06 0)
(-2.49197e-05 -1.2852e-06 0)
(-2.3916e-05 -1.56407e-06 0)
(-2.25881e-05 -2.19162e-06 0)
(-2.06349e-05 -3.32135e-06 0)
(-1.76182e-05 -5.22408e-06 0)
(-1.28656e-05 -8.35635e-06 0)
(-5.73435e-06 -1.22712e-05 0)
(-1.29081e-20 -9.87815e-16 0)
(-3.80368e-20 -9.87802e-16 0)
(-5.97281e-20 -9.87774e-16 0)
(-6.89463e-20 -9.87721e-16 0)
(-3.82479e-20 -9.87624e-16 0)
(9.90175e-20 -9.87431e-16 0)
(2.37162e-19 -9.61537e-16 0)
(2.43173e-19 -9.29061e-16 0)
(2.00957e-19 -8.99461e-16 0)
(1.72558e-19 -8.71666e-16 0)
(1.52903e-19 -8.45202e-16 0)
(1.38756e-19 -8.1981e-16 0)
(1.28264e-19 -7.95322e-16 0)
(1.20341e-19 -7.71624e-16 0)
(1.14324e-19 -7.48632e-16 0)
(1.09801e-19 -7.26283e-16 0)
(1.06507e-19 -7.04526e-16 0)
(1.04275e-19 -6.83321e-16 0)
(1.03e-19 -6.62633e-16 0)
(1.02608e-19 -6.42434e-16 0)
(1.0302e-19 -6.227e-16 0)
(1.04092e-19 -6.03407e-16 0)
(1.0549e-19 -5.84539e-16 0)
(1.06228e-14 -1.32534e-11 0)
(3.13168e-08 -4.69679e-06 0)
(3.94204e-08 -9.22312e-06 0)
(-1.90592e-06 -1.17887e-05 0)
(-7.40945e-06 -8.46641e-06 0)
(-1.31716e-05 -5.22333e-06 0)
(-1.66957e-05 -3.26654e-06 0)
(-1.88992e-05 -2.12554e-06 0)
(-2.03573e-05 -1.50119e-06 0)
(-2.14356e-05 -1.2268e-06 0)
(-2.23894e-05 -1.22975e-06 0)
(-2.34341e-05 -1.51075e-06 0)
(-2.48004e-05 -2.14027e-06 0)
(-2.67895e-05 -3.27187e-06 0)
(-2.98343e-05 -5.18977e-06 0)
(-3.12388e-05 -1.78815e-05 0)
(-1.55989e-05 -6.83346e-05 0)
(-4.31946e-21 -9.8779e-16 0)
(-1.11646e-20 -9.87781e-16 0)
(-1.21217e-20 -9.87762e-16 0)
(-1.51219e-21 -9.87735e-16 0)
(2.78519e-20 -9.87703e-16 0)
(7.87102e-20 -9.87684e-16 0)
(1.26539e-19 -9.87724e-16 0)
(1.46182e-19 -9.87777e-16 0)
(1.45852e-19 -9.87811e-16 0)
(1.39194e-19 -9.87833e-16 0)
(1.3126e-19 -9.87848e-16 0)
(1.23794e-19 -9.87859e-16 0)
(1.17316e-19 -9.87866e-16 0)
(1.11907e-19 -9.87872e-16 0)
(1.07511e-19 -9.87877e-16 0)
(1.0404e-19 -9.87881e-16 0)
(1.01419e-19 -9.87885e-16 0)
(9.96035e-20 -9.87888e-16 0)
(9.85974e-20 -9.87891e-16 0)
(9.84761e-20 -9.87894e-16 0)
(9.94427e-20 -9.87898e-16 0)
(1.01942e-19 -9.87901e-16 0)
(1.06902e-19 -9.87905e-16 0)
(1.16187e-19 -9.87909e-16 0)
(1.31655e-19 -9.87917e-16 0)
(1.00253e-19 -9.88061e-16 0)
(1.87996e-20 -9.88063e-16 0)
(-1.23631e-20 -9.86735e-16 0)
(3.20321e-21 -9.83181e-16 0)
(1.34748e-20 -9.78469e-16 0)
(2.06264e-20 -9.73171e-16 0)
(2.58949e-20 -9.6759e-16 0)
(3.00251e-20 -9.61879e-16 0)
(3.35005e-20 -9.56102e-16 0)
(3.66686e-20 -9.50264e-16 0)
(3.98188e-20 -9.4432e-16 0)
(4.32393e-20 -9.38197e-16 0)
(1.02049e-12 -1.33499e-08 0)
(2.97772e-09 -1.81224e-05 0)
(6.7659e-09 -0.000109183 0)
(5.90032e-22 -9.87785e-16 0)
(3.04075e-21 -9.8778e-16 0)
(9.24869e-21 -9.87771e-16 0)
(2.14103e-20 -9.8776e-16 0)
(4.05892e-20 -9.87752e-16 0)
(6.48056e-20 -9.87752e-16 0)
(8.72289e-20 -9.87767e-16 0)
(1.01703e-19 -9.87789e-16 0)
(1.08279e-19 -9.87809e-16 0)
(1.09803e-19 -9.87826e-16 0)
(1.08611e-19 -9.87839e-16 0)
(1.06163e-19 -9.8785e-16 0)
(1.03285e-19 -9.87858e-16 0)
(1.00412e-19 -9.87866e-16 0)
(9.77671e-20 -9.87871e-16 0)
(9.54519e-20 -9.87877e-16 0)
(9.35067e-20 -9.87881e-16 0)
(9.19378e-20 -9.87885e-16 0)
(9.07296e-20 -9.8789e-16 0)
(8.9844e-20 -9.87894e-16 0)
(8.92007e-20 -9.87899e-16 0)
(8.86249e-20 -9.87904e-16 0)
(8.77215e-20 -9.87911e-16 0)
(8.55884e-20 -9.87919e-16 0)
(8.01881e-20 -9.87931e-16 0)
(6.73662e-20 -9.87949e-16 0)
(4.97095e-20 -9.8795e-16 0)
(3.74567e-20 -9.87934e-16 0)
(3.27343e-20 -9.87924e-16 0)
(3.14675e-20 -9.87917e-16 0)
(3.17555e-20 -9.87913e-16 0)
(3.27061e-20 -9.8791e-16 0)
(3.3898e-20 -9.87908e-16 0)
(3.5124e-20 -9.87907e-16 0)
(3.62636e-20 -9.87906e-16 0)
(3.72088e-20 -9.87907e-16 0)
(3.78082e-20 -9.87908e-16 0)
(4.20334e-20 -1.32551e-15 0)
(1.6642e-09 -1.6686e-05 0)
(6.73604e-09 -0.000103878 0)
(2.75568e-21 -9.87789e-16 0)
(8.91083e-21 -9.87788e-16 0)
(1.68783e-20 -9.87784e-16 0)
(2.73958e-20 -9.87781e-16 0)
(4.0372e-20 -9.87781e-16 0)
(5.45476e-20 -9.87784e-16 0)
(6.76626e-20 -9.87792e-16 0)
(7.7789e-20 -9.87804e-16 0)
(8.444e-20 -9.87816e-16 0)
(8.81597e-20 -9.87828e-16 0)
(8.97667e-20 -9.87838e-16 0)
(8.99933e-20 -9.87847e-16 0)
(8.93874e-20 -9.87855e-16 0)
(8.83231e-20 -9.87862e-16 0)
(8.70402e-20 -9.87868e-16 0)
(8.5682e-20 -9.87873e-16 0)
(8.43236e-20 -9.87878e-16 0)
(8.29896e-20 -9.87883e-16 0)
(8.16615e-20 -9.87887e-16 0)
(8.02782e-20 -9.87892e-16 0)
(7.87269e-20 -9.87896e-16 0)
(7.68287e-20 -9.87901e-16 0)
(7.43222e-20 -9.87906e-16 0)
(7.08631e-20 -9.87912e-16 0)
(6.60919e-20 -9.87917e-16 0)
(5.99017e-20 -9.87921e-16 0)
(5.31499e-20 -9.87922e-16 0)
(4.73461e-20 -9.8792e-16 0)
(4.31912e-20 -9.87917e-16 0)
(4.04811e-20 -9.87914e-16 0)
(3.88322e-20 -9.87912e-16 0)
(3.78986e-20 -9.8791e-16 0)
(3.74165e-20 -9.87909e-16 0)
(3.71947e-20 -9.87908e-16 0)
(3.7095e-20 -9.87908e-16 0)
(3.70149e-20 -9.87908e-16 0)
(3.68793e-20 -9.87908e-16 0)
(4.50266e-20 -1.53645e-15 0)
(1.50203e-09 -1.58337e-05 0)
(5.92881e-09 -9.93509e-05 0)
(3.43844e-21 -9.87798e-16 0)
(1.05716e-20 -9.87798e-16 0)
(1.84196e-20 -9.87797e-16 0)
(2.72029e-20 -9.87798e-16 0)
(3.67306e-20 -9.87799e-16 0)
(4.63865e-20 -9.87803e-16 0)
(5.53087e-20 -9.87808e-16 0)
(6.27687e-20 -9.87816e-16 0)
(6.8453e-20 -9.87824e-16 0)
(7.2429e-20 -9.87832e-16 0)
(7.49663e-20 -9.8784e-16 0)
(7.63889e-20 -9.87848e-16 0)
(7.69941e-20 -9.87854e-16 0)
(7.70217e-20 -9.87861e-16 0)
(7.6649e-20 -9.87866e-16 0)
(7.59969e-20 -9.87871e-16 0)
(7.51392e-20 -9.87876e-16 0)
(7.411e-20 -9.8788e-16 0)
(7.29105e-20 -9.87885e-16 0)
(7.15129e-20 -9.87889e-16 0)
(6.98645e-20 -9.87893e-16 0)
(6.78941e-20 -9.87897e-16 0)
(6.55246e-20 -9.879e-16 0)
(6.26974e-20 -9.87904e-16 0)
(5.94149e-20 -9.87907e-16 0)
(5.57983e-20 -9.87909e-16 0)
(5.21257e-20 -9.8791e-16 0)
(4.87374e-20 -9.8791e-16 0)
(4.58556e-20 -9.8791e-16 0)
(4.35352e-20 -9.87909e-16 0)
(4.17292e-20 -9.87909e-16 0)
(4.03473e-20 -9.87908e-16 0)
(3.92908e-20 -9.87908e-16 0)
(3.8469e-20 -9.87907e-16 0)
(3.78057e-20 -9.87907e-16 0)
(3.72408e-20 -9.87907e-16 0)
(3.6731e-20 -9.87907e-16 0)
(4.79997e-20 -1.70449e-15 0)
(1.36096e-09 -1.49701e-05 0)
(5.221e-09 -9.48685e-05 0)
(3.44256e-21 -9.87808e-16 0)
(1.03916e-20 -9.87809e-16 0)
(1.75342e-20 -9.87809e-16 0)
(2.49129e-20 -9.8781e-16 0)
(3.23884e-20 -9.87812e-16 0)
(3.96625e-20 -9.87816e-16 0)
(4.63673e-20 -9.8782e-16 0)
(5.21893e-20 -9.87826e-16 0)
(5.69587e-20 -9.87832e-16 0)
(6.06567e-20 -9.87838e-16 0)
(6.33712e-20 -9.87844e-16 0)
(6.52426e-20 -9.8785e-16 0)
(6.6423e-20 -9.87855e-16 0)
(6.70519e-20 -9.87861e-16 0)
(6.72447e-20 -9.87866e-16 0)
(6.70894e-20 -9.8787e-16 0)
(6.66474e-20 -9.87875e-16 0)
(6.59568e-20 -9.87879e-16 0)
(6.50361e-20 -9.87882e-16 0)
(6.38889e-20 -9.87886e-16 0)
(6.25093e-20 -9.87889e-16 0)
(6.0889e-20 -9.87893e-16 0)
(5.90264e-20 -9.87896e-16 0)
(5.69372e-20 -9.87898e-16 0)
(5.46658e-20 -9.879e-16 0)
(5.22913e-20 -9.87902e-16 0)
(4.99214e-20 -9.87903e-16 0)
(4.76675e-20 -9.87904e-16 0)
(4.56129e-20 -9.87905e-16 0)
(4.37996e-20 -9.87905e-16 0)
(4.2233e-20 -9.87905e-16 0)
(4.08942e-20 -9.87905e-16 0)
(3.97513e-20 -9.87905e-16 0)
(3.87679e-20 -9.87905e-16 0)
(3.79081e-20 -9.87905e-16 0)
(3.71399e-20 -9.87905e-16 0)
(3.64367e-20 -9.87905e-16 0)
(4.99628e-20 -1.88362e-15 0)
(1.22902e-09 -1.41276e-05 0)
(4.56419e-09 -9.04334e-05 0)
(3.17988e-21 -9.87818e-16 0)
(9.52004e-21 -9.87818e-16 0)
(1.58316e-20 -9.87819e-16 0)
(2.2097e-20 -9.87821e-16 0)
(2.82229e-20 -9.87823e-16 0)
(3.40563e-20 -9.87826e-16 0)
(3.94237e-20 -9.87829e-16 0)
(4.41767e-20 -9.87834e-16 0)
(4.82248e-20 -9.87838e-16 0)
(5.15431e-20 -9.87843e-16 0)
(5.41604e-20 -9.87848e-16 0)
(5.61398e-20 -9.87853e-16 0)
(5.75594e-20 -9.87857e-16 0)
(5.84992e-20 -9.87862e-16 0)
(5.90318e-20 -9.87866e-16 0)
(5.92185e-20 -9.8787e-16 0)
(5.91079e-20 -9.87874e-16 0)
(5.87363e-20 -9.87877e-16 0)
(5.81305e-20 -9.87881e-16 0)
(5.73097e-20 -9.87884e-16 0)
(5.62897e-20 -9.87887e-16 0)
(5.50865e-20 -9.87889e-16 0)
(5.37202e-20 -9.87892e-16 0)
(5.22187e-20 -9.87894e-16 0)
(5.06196e-20 -9.87896e-16 0)
(4.89693e-20 -9.87898e-16 0)
(4.73189e-20 -9.87899e-16 0)
(4.57168e-20 -9.879e-16 0)
(4.42015e-20 -9.87901e-16 0)
(4.27971e-20 -9.87901e-16 0)
(4.15141e-20 -9.87902e-16 0)
(4.03513e-20 -9.87902e-16 0)
(3.92997e-20 -9.87902e-16 0)
(3.83454e-20 -9.87903e-16 0)
(3.74727e-20 -9.87903e-16 0)
(3.66654e-20 -9.87903e-16 0)
(3.59082e-20 -9.87903e-16 0)
(5.28804e-20 -2.13621e-15 0)
(1.10649e-09 -1.33133e-05 0)
(3.94812e-09 -8.60472e-05 0)
(2.8392e-21 -9.87827e-16 0)
(8.46693e-21 -9.87827e-16 0)
(1.39832e-20 -9.87828e-16 0)
(1.93521e-20 -9.87829e-16 0)
(2.45089e-20 -9.87831e-16 0)
(2.93674e-20 -9.87834e-16 0)
(3.38373e-20 -9.87837e-16 0)
(3.78422e-20 -9.8784e-16 0)
(4.13326e-20 -9.87844e-16 0)
(4.42904e-20 -9.87848e-16 0)
(4.67254e-20 -9.87852e-16 0)
(4.86679e-20 -9.87856e-16 0)
(5.01603e-20 -9.87859e-16 0)
(5.12496e-20 -9.87863e-16 0)
(5.19824e-20 -9.87867e-16 0)
(5.24014e-20 -9.8787e-16 0)
(5.25442e-20 -9.87874e-16 0)
(5.24428e-20 -9.87877e-16 0)
(5.21247e-20 -9.8788e-16 0)
(5.16136e-20 -9.87882e-16 0)
(5.09318e-20 -9.87885e-16 0)
(5.01013e-20 -9.87887e-16 0)
(4.91455e-20 -9.87889e-16 0)
(4.809e-20 -9.87891e-16 0)
(4.69631e-20 -9.87893e-16 0)
(4.5794e-20 -9.87894e-16 0)
(4.4612e-20 -9.87896e-16 0)
(4.34432e-20 -9.87897e-16 0)
(4.2309e-20 -9.87898e-16 0)
(4.12246e-20 -9.87898e-16 0)
(4.01987e-20 -9.87899e-16 0)
(3.92347e-20 -9.879e-16 0)
(3.83311e-20 -9.879e-16 0)
(3.74836e-20 -9.879e-16 0)
(3.66858e-20 -9.87901e-16 0)
(3.59299e-20 -9.87901e-16 0)
(3.52082e-20 -9.87901e-16 0)
(5.69394e-20 -2.4368e-15 0)
(9.93325e-10 -1.25272e-05 0)
(3.3806e-09 -8.17116e-05 0)
(2.4999e-21 -9.87834e-16 0)
(7.44122e-21 -9.87835e-16 0)
(1.22489e-20 -9.87836e-16 0)
(1.68845e-20 -9.87837e-16 0)
(2.13001e-20 -9.87839e-16 0)
(2.54422e-20 -9.87841e-16 0)
(2.92588e-20 -9.87843e-16 0)
(3.2707e-20 -9.87846e-16 0)
(3.57584e-20 -9.87849e-16 0)
(3.84013e-20 -9.87852e-16 0)
(4.06395e-20 -9.87855e-16 0)
(4.2489e-20 -9.87859e-16 0)
(4.39747e-20 -9.87862e-16 0)
(4.51258e-20 -9.87865e-16 0)
(4.59732e-20 -9.87868e-16 0)
(4.65476e-20 -9.87871e-16 0)
(4.68778e-20 -9.87874e-16 0)
(4.69905e-20 -9.87876e-16 0)
(4.69102e-20 -9.87879e-16 0)
(4.666e-20 -9.87881e-16 0)
(4.62616e-20 -9.87884e-16 0)
(4.57363e-20 -9.87886e-16 0)
(4.51054e-20 -9.87887e-16 0)
(4.43899e-20 -9.87889e-16 0)
(4.36111e-20 -9.87891e-16 0)
(4.27895e-20 -9.87892e-16 0)
(4.19441e-20 -9.87893e-16 0)
(4.10917e-20 -9.87894e-16 0)
(4.02464e-20 -9.87895e-16 0)
(3.94188e-20 -9.87896e-16 0)
(3.8616e-20 -9.87897e-16 0)
(3.78423e-20 -9.87897e-16 0)
(3.70993e-20 -9.87898e-16 0)
(3.63865e-20 -9.87898e-16 0)
(3.5702e-20 -9.87899e-16 0)
(3.5043e-20 -9.87899e-16 0)
(3.44059e-20 -9.879e-16 0)
(6.10038e-20 -2.73962e-15 0)
(8.89231e-10 -1.1768e-05 0)
(2.86944e-09 -7.74282e-05 0)
(2.1915e-21 -9.87841e-16 0)
(6.51777e-21 -9.87842e-16 0)
(1.07131e-20 -9.87842e-16 0)
(1.4742e-20 -9.87843e-16 0)
(1.85674e-20 -9.87845e-16 0)
(2.21529e-20 -9.87847e-16 0)
(2.54657e-20 -9.87849e-16 0)
(2.84794e-20 -9.87851e-16 0)
(3.11768e-20 -9.87853e-16 0)
(3.35502e-20 -9.87856e-16 0)
(3.56016e-20 -9.87859e-16 0)
(3.73406e-20 -9.87861e-16 0)
(3.87828e-20 -9.87864e-16 0)
(3.99477e-20 -9.87867e-16 0)
(4.08569e-20 -9.87869e-16 0)
(4.15327e-20 -9.87872e-16 0)
(4.19974e-20 -9.87874e-16 0)
(4.22726e-20 -9.87877e-16 0)
(4.23791e-20 -9.87879e-16 0)
(4.23367e-20 -9.87881e-16 0)
(4.21645e-20 -9.87883e-16 0)
(4.18811e-20 -9.87885e-16 0)
(4.15041e-20 -9.87886e-16 0)
(4.10509e-20 -9.87888e-16 0)
(4.05377e-20 -9.87889e-16 0)
(3.99798e-20 -9.8789e-16 0)
(3.93911e-20 -9.87892e-16 0)
(3.87837e-20 -9.87893e-16 0)
(3.81678e-20 -9.87894e-16 0)
(3.75518e-20 -9.87894e-16 0)
(3.69416e-20 -9.87895e-16 0)
(3.63417e-20 -9.87896e-16 0)
(3.57549e-20 -9.87896e-16 0)
(3.51823e-20 -9.87897e-16 0)
(3.46245e-20 -9.87897e-16 0)
(3.40809e-20 -9.87898e-16 0)
(3.35506e-20 -9.87898e-16 0)
(6.4615e-20 -3.02734e-15 0)
(7.93789e-10 -1.10343e-05 0)
(2.41801e-09 -7.31988e-05 0)
(1.92196e-21 -9.87847e-16 0)
(5.71427e-21 -9.87847e-16 0)
(9.38743e-21 -9.87848e-16 0)
(1.29104e-20 -9.87849e-16 0)
(1.62539e-20 -9.8785e-16 0)
(1.93914e-20 -9.87852e-16 0)
(2.23002e-20 -9.87854e-16 0)
(2.4963e-20 -9.87855e-16 0)
(2.73683e-20 -9.87857e-16 0)
(2.95112e-20 -9.8786e-16 0)
(3.13929e-20 -9.87862e-16 0)
(3.30198e-20 -9.87864e-16 0)
(3.44025e-20 -9.87866e-16 0)
(3.55548e-20 -9.87869e-16 0)
(3.64923e-20 -9.87871e-16 0)
(3.72317e-20 -9.87873e-16 0)
(3.77903e-20 -9.87875e-16 0)
(3.81854e-20 -9.87877e-16 0)
(3.84339e-20 -9.87879e-16 0)
(3.85524e-20 -9.87881e-16 0)
(3.85567e-20 -9.87883e-16 0)
(3.84623e-20 -9.87884e-16 0)
(3.82838e-20 -9.87886e-16 0)
(3.8035e-20 -9.87887e-16 0)
(3.7729e-20 -9.87888e-16 0)
(3.73776e-20 -9.87889e-16 0)
(3.69915e-20 -9.8789e-16 0)
(3.65803e-20 -9.87891e-16 0)
(3.61521e-20 -9.87892e-16 0)
(3.57135e-20 -9.87893e-16 0)
(3.527e-20 -9.87894e-16 0)
(3.48258e-20 -9.87894e-16 0)
(3.4384e-20 -9.87895e-16 0)
(3.39469e-20 -9.87895e-16 0)
(3.35158e-20 -9.87896e-16 0)
(3.30916e-20 -9.87896e-16 0)
(3.26749e-20 -9.87897e-16 0)
(6.76909e-20 -3.30067e-15 0)
(7.06499e-10 -1.0325e-05 0)
(2.02508e-09 -6.90256e-05 0)
(1.69041e-21 -9.87852e-16 0)
(5.02558e-21 -9.87853e-16 0)
(8.25562e-21 -9.87853e-16 0)
(1.13542e-20 -9.87854e-16 0)
(1.42979e-20 -9.87855e-16 0)
(1.70663e-20 -9.87856e-16 0)
(1.96428e-20 -9.87858e-16 0)
(2.20151e-20 -9.87859e-16 0)
(2.41752e-20 -9.87861e-16 0)
(2.61197e-20 -9.87863e-16 0)
(2.78496e-20 -9.87865e-16 0)
(2.93693e-20 -9.87867e-16 0)
(3.06866e-20 -9.87869e-16 0)
(3.18114e-20 -9.87871e-16 0)
(3.27556e-20 -9.87872e-16 0)
(3.3532e-20 -9.87874e-16 0)
(3.4154e-20 -9.87876e-16 0)
(3.46353e-20 -9.87878e-16 0)
(3.49898e-20 -9.87879e-16 0)
(3.52307e-20 -9.87881e-16 0)
(3.53712e-20 -9.87883e-16 0)
(3.54238e-20 -9.87884e-16 0)
(3.54006e-20 -9.87885e-16 0)
(3.53127e-20 -9.87887e-16 0)
(3.51705e-20 -9.87888e-16 0)
(3.49838e-20 -9.87889e-16 0)
(3.47612e-20 -9.8789e-16 0)
(3.45102e-20 -9.87891e-16 0)
(3.42378e-20 -9.87891e-16 0)
(3.39495e-20 -9.87892e-16 0)
(3.36502e-20 -9.87893e-16 0)
(3.33439e-20 -9.87893e-16 0)
(3.30338e-20 -9.87894e-16 0)
(3.27224e-20 -9.87895e-16 0)
(3.24117e-20 -9.87895e-16 0)
(3.21032e-20 -9.87895e-16 0)
(3.1798e-20 -9.87896e-16 0)
(7.04001e-20 -3.56517e-15 0)
(6.26804e-10 -9.63887e-06 0)
(1.68668e-09 -6.49105e-05 0)
(1.49284e-21 -9.87857e-16 0)
(4.43861e-21 -9.87857e-16 0)
(7.29282e-21 -9.87858e-16 0)
(1.00335e-20 -9.87858e-16 0)
(1.26416e-20 -9.87859e-16 0)
(1.51012e-20 -9.8786e-16 0)
(1.73995e-20 -9.87862e-16 0)
(1.95273e-20 -9.87863e-16 0)
(2.14787e-20 -9.87864e-16 0)
(2.32512e-20 -9.87866e-16 0)
(2.48456e-20 -9.87867e-16 0)
(2.62652e-20 -9.87869e-16 0)
(2.75159e-20 -9.87871e-16 0)
(2.86051e-20 -9.87872e-16 0)
(2.9542e-20 -9.87874e-16 0)
(3.03365e-20 -9.87876e-16 0)
(3.09993e-20 -9.87877e-16 0)
(3.15411e-20 -9.87879e-16 0)
(3.19732e-20 -9.8788e-16 0)
(3.23063e-20 -9.87882e-16 0)
(3.25511e-20 -9.87883e-16 0)
(3.27178e-20 -9.87884e-16 0)
(3.28163e-20 -9.87885e-16 0)
(3.28556e-20 -9.87886e-16 0)
(3.28444e-20 -9.87887e-16 0)
(3.27905e-20 -9.87888e-16 0)
(3.27011e-20 -9.87889e-16 0)
(3.25825e-20 -9.8789e-16 0)
(3.24406e-20 -9.87891e-16 0)
(3.22801e-20 -9.87892e-16 0)
(3.21055e-20 -9.87892e-16 0)
(3.19203e-20 -9.87893e-16 0)
(3.17278e-20 -9.87893e-16 0)
(3.15305e-20 -9.87894e-16 0)
(3.13306e-20 -9.87894e-16 0)
(3.11298e-20 -9.87895e-16 0)
(3.09298e-20 -9.87895e-16 0)
(7.28024e-20 -3.82866e-15 0)
(5.54145e-10 -8.97462e-06 0)
(1.39735e-09 -6.08558e-05 0)
(1.32446e-21 -9.87861e-16 0)
(3.93859e-21 -9.87861e-16 0)
(6.47335e-21 -9.87862e-16 0)
(8.91056e-21 -9.87862e-16 0)
(1.12347e-20 -9.87863e-16 0)
(1.3433e-20 -9.87864e-16 0)
(1.54953e-20 -9.87865e-16 0)
(1.74146e-20 -9.87866e-16 0)
(1.91863e-20 -9.87867e-16 0)
(2.08086e-20 -9.87869e-16 0)
(2.22819e-20 -9.8787e-16 0)
(2.3609e-20 -9.87871e-16 0)
(2.47943e-20 -9.87873e-16 0)
(2.58436e-20 -9.87874e-16 0)
(2.6764e-20 -9.87876e-16 0)
(2.75633e-20 -9.87877e-16 0)
(2.825e-20 -9.87878e-16 0)
(2.88329e-20 -9.8788e-16 0)
(2.93207e-20 -9.87881e-16 0)
(2.97224e-20 -9.87882e-16 0)
(3.00466e-20 -9.87883e-16 0)
(3.03017e-20 -9.87885e-16 0)
(3.04956e-20 -9.87886e-16 0)
(3.06359e-20 -9.87887e-16 0)
(3.07298e-20 -9.87888e-16 0)
(3.07837e-20 -9.87888e-16 0)
(3.08036e-20 -9.87889e-16 0)
(3.07949e-20 -9.8789e-16 0)
(3.07625e-20 -9.87891e-16 0)
(3.07108e-20 -9.87891e-16 0)
(3.06435e-20 -9.87892e-16 0)
(3.05641e-20 -9.87893e-16 0)
(3.04754e-20 -9.87893e-16 0)
(3.03799e-20 -9.87893e-16 0)
(3.02799e-20 -9.87894e-16 0)
(3.01773e-20 -9.87894e-16 0)
(3.00736e-20 -9.87895e-16 0)
(7.51038e-20 -4.09598e-15 0)
(4.87953e-10 -8.33095e-06 0)
(1.15132e-09 -5.68638e-05 0)
(1.18066e-21 -9.87865e-16 0)
(3.51162e-21 -9.87865e-16 0)
(5.77378e-21 -9.87865e-16 0)
(7.95217e-21 -9.87866e-16 0)
(1.00341e-20 -9.87866e-16 0)
(1.20092e-20 -9.87867e-16 0)
(1.38694e-20 -9.87868e-16 0)
(1.56091e-20 -9.87869e-16 0)
(1.72247e-20 -9.8787e-16 0)
(1.87147e-20 -9.87871e-16 0)
(2.00796e-20 -9.87872e-16 0)
(2.13213e-20 -9.87874e-16 0)
(2.24435e-20 -9.87875e-16 0)
(2.34507e-20 -9.87876e-16 0)
(2.43486e-20 -9.87877e-16 0)
(2.51433e-20 -9.87878e-16 0)
(2.58416e-20 -9.8788e-16 0)
(2.64506e-20 -9.87881e-16 0)
(2.69775e-20 -9.87882e-16 0)
(2.74295e-20 -9.87883e-16 0)
(2.78136e-20 -9.87884e-16 0)
(2.81367e-20 -9.87885e-16 0)
(2.84053e-20 -9.87886e-16 0)
(2.86259e-20 -9.87887e-16 0)
(2.88042e-20 -9.87888e-16 0)
(2.89457e-20 -9.87889e-16 0)
(2.90554e-20 -9.87889e-16 0)
(2.91381e-20 -9.8789e-16 0)
(2.91978e-20 -9.87891e-16 0)
(2.92383e-20 -9.87891e-16 0)
(2.92631e-20 -9.87892e-16 0)
(2.92752e-20 -9.87892e-16 0)
(2.92773e-20 -9.87893e-16 0)
(2.92716e-20 -9.87893e-16 0)
(2.92604e-20 -9.87894e-16 0)
(2.92454e-20 -9.87894e-16 0)
(2.92282e-20 -9.87894e-16 0)
(7.72407e-20 -4.36738e-15 0)
(4.27694e-10 -7.70684e-06 0)
(9.43198e-10 -5.29372e-05 0)
(1.05733e-21 -9.87868e-16 0)
(3.14544e-21 -9.87868e-16 0)
(5.1738e-21 -9.87868e-16 0)
(7.13007e-21 -9.87869e-16 0)
(9.00387e-21 -9.87869e-16 0)
(1.07868e-20 -9.8787e-16 0)
(1.24723e-20 -9.87871e-16 0)
(1.40559e-20 -9.87872e-16 0)
(1.55347e-20 -9.87872e-16 0)
(1.69074e-20 -9.87873e-16 0)
(1.81746e-20 -9.87874e-16 0)
(1.93377e-20 -9.87876e-16 0)
(2.03996e-20 -9.87877e-16 0)
(2.13639e-20 -9.87878e-16 0)
(2.22352e-20 -9.87879e-16 0)
(2.30185e-20 -9.8788e-16 0)
(2.37193e-20 -9.87881e-16 0)
(2.43432e-20 -9.87882e-16 0)
(2.48962e-20 -9.87883e-16 0)
(2.5384e-20 -9.87884e-16 0)
(2.58127e-20 -9.87885e-16 0)
(2.61877e-20 -9.87886e-16 0)
(2.65146e-20 -9.87887e-16 0)
(2.67986e-20 -9.87887e-16 0)
(2.70446e-20 -9.87888e-16 0)
(2.72572e-20 -9.87889e-16 0)
(2.74407e-20 -9.8789e-16 0)
(2.7599e-20 -9.8789e-16 0)
(2.77359e-20 -9.87891e-16 0)
(2.78545e-20 -9.87891e-16 0)
(2.79578e-20 -9.87892e-16 0)
(2.80486e-20 -9.87893e-16 0)
(2.81292e-20 -9.87893e-16 0)
(2.82018e-20 -9.87893e-16 0)
(2.82685e-20 -9.87894e-16 0)
(2.83308e-20 -9.87894e-16 0)
(2.83903e-20 -9.87894e-16 0)
(7.92556e-20 -4.65422e-15 0)
(3.72913e-10 -7.10168e-06 0)
(7.67808e-10 -4.90785e-05 0)
(9.5098e-22 -9.87871e-16 0)
(2.82964e-21 -9.87871e-16 0)
(4.65622e-21 -9.87871e-16 0)
(6.42059e-21 -9.87871e-16 0)
(8.11427e-21 -9.87872e-16 0)
(9.73038e-21 -9.87873e-16 0)
(1.12637e-20 -9.87873e-16 0)
(1.27104e-20 -9.87874e-16 0)
(1.40682e-20 -9.87875e-16 0)
(1.53363e-20 -9.87876e-16 0)
(1.65149e-20 -9.87876e-16 0)
(1.76052e-20 -9.87877e-16 0)
(1.86096e-20 -9.87878e-16 0)
(1.95311e-20 -9.87879e-16 0)
(2.03733e-20 -9.8788e-16 0)
(2.11402e-20 -9.87881e-16 0)
(2.18364e-20 -9.87882e-16 0)
(2.24666e-20 -9.87883e-16 0)
(2.30354e-20 -9.87884e-16 0)
(2.35479e-20 -9.87885e-16 0)
(2.40088e-20 -9.87886e-16 0)
(2.44229e-20 -9.87887e-16 0)
(2.47946e-20 -9.87887e-16 0)
(2.51283e-20 -9.87888e-16 0)
(2.54282e-20 -9.87889e-16 0)
(2.56983e-20 -9.87889e-16 0)
(2.5942e-20 -9.8789e-16 0)
(2.61629e-20 -9.87891e-16 0)
(2.6364e-20 -9.87891e-16 0)
(2.65481e-20 -9.87892e-16 0)
(2.6718e-20 -9.87892e-16 0)
(2.68759e-20 -9.87893e-16 0)
(2.7024e-20 -9.87893e-16 0)
(2.71643e-20 -9.87894e-16 0)
(2.72985e-20 -9.87894e-16 0)
(2.74283e-20 -9.87894e-16 0)
(2.75549e-20 -9.87895e-16 0)
(8.13904e-20 -4.99107e-15 0)
(3.23203e-10 -6.51519e-06 0)
(6.2041e-10 -4.52907e-05 0)
(8.58661e-22 -9.87873e-16 0)
(2.55545e-21 -9.87873e-16 0)
(4.20668e-21 -9.87874e-16 0)
(5.80406e-21 -9.87874e-16 0)
(7.34063e-21 -9.87874e-16 0)
(8.81078e-21 -9.87875e-16 0)
(1.02102e-20 -9.87876e-16 0)
(1.15359e-20 -9.87876e-16 0)
(1.27861e-20 -9.87877e-16 0)
(1.39599e-20 -9.87878e-16 0)
(1.50577e-20 -9.87878e-16 0)
(1.60804e-20 -9.87879e-16 0)
(1.703e-20 -9.8788e-16 0)
(1.7909e-20 -9.87881e-16 0)
(1.87202e-20 -9.87882e-16 0)
(1.94671e-20 -9.87883e-16 0)
(2.01534e-20 -9.87883e-16 0)
(2.07829e-20 -9.87884e-16 0)
(2.13597e-20 -9.87885e-16 0)
(2.18877e-20 -9.87886e-16 0)
(2.23709e-20 -9.87887e-16 0)
(2.28134e-20 -9.87887e-16 0)
(2.32189e-20 -9.87888e-16 0)
(2.3591e-20 -9.87889e-16 0)
(2.39334e-20 -9.87889e-16 0)
(2.42493e-20 -9.8789e-16 0)
(2.45419e-20 -9.87891e-16 0)
(2.48139e-20 -9.87891e-16 0)
(2.50681e-20 -9.87892e-16 0)
(2.5307e-20 -9.87892e-16 0)
(2.55327e-20 -9.87893e-16 0)
(2.57475e-20 -9.87893e-16 0)
(2.59531e-20 -9.87894e-16 0)
(2.61513e-20 -9.87894e-16 0)
(2.63436e-20 -9.87894e-16 0)
(2.65314e-20 -9.87895e-16 0)
(2.67159e-20 -9.87895e-16 0)
(8.42842e-20 -5.33452e-15 0)
(2.78212e-10 -5.9475e-06 0)
(4.96919e-10 -4.15769e-05 0)
(7.77924e-22 -9.87876e-16 0)
(2.31561e-21 -9.87876e-16 0)
(3.81329e-21 -9.87876e-16 0)
(5.26417e-21 -9.87876e-16 0)
(6.66257e-21 -9.87877e-16 0)
(8.0039e-21 -9.87877e-16 0)
(9.2847e-21 -9.87878e-16 0)
(1.05025e-20 -9.87878e-16 0)
(1.16558e-20 -9.87879e-16 0)
(1.27441e-20 -9.87879e-16 0)
(1.37676e-20 -9.8788e-16 0)
(1.47271e-20 -9.87881e-16 0)
(1.56243e-20 -9.87882e-16 0)
(1.64611e-20 -9.87882e-16 0)
(1.72402e-20 -9.87883e-16 0)
(1.79643e-20 -9.87884e-16 0)
(1.86364e-20 -9.87885e-16 0)
(1.92598e-20 -9.87885e-16 0)
(1.98378e-20 -9.87886e-16 0)
(2.03738e-20 -9.87887e-16 0)
(2.08712e-20 -9.87888e-16 0)
(2.13333e-20 -9.87888e-16 0)
(2.17633e-20 -9.87889e-16 0)
(2.21644e-20 -9.8789e-16 0)
(2.25395e-20 -9.8789e-16 0)
(2.28915e-20 -9.87891e-16 0)
(2.32229e-20 -9.87891e-16 0)
(2.35363e-20 -9.87892e-16 0)
(2.3834e-20 -9.87892e-16 0)
(2.4118e-20 -9.87893e-16 0)
(2.43904e-20 -9.87893e-16 0)
(2.46529e-20 -9.87894e-16 0)
(2.49071e-20 -9.87894e-16 0)
(2.51545e-20 -9.87895e-16 0)
(2.53964e-20 -9.87895e-16 0)
(2.56339e-20 -9.87895e-16 0)
(2.58682e-20 -9.87896e-16 0)
(8.6001e-20 -5.6918e-15 0)
(2.37638e-10 -5.39898e-06 0)
(3.93761e-10 -3.79408e-05 0)
(7.06737e-22 -9.87878e-16 0)
(2.10409e-21 -9.87878e-16 0)
(3.46618e-21 -9.87878e-16 0)
(4.78746e-21 -9.87878e-16 0)
(6.06327e-21 -9.87879e-16 0)
(7.28992e-21 -9.87879e-16 0)
(8.46455e-21 -9.8788e-16 0)
(9.58521e-21 -9.8788e-16 0)
(1.06507e-20 -9.87881e-16 0)
(1.16606e-20 -9.87881e-16 0)
(1.26152e-20 -9.87882e-16 0)
(1.35152e-20 -9.87882e-16 0)
(1.43619e-20 -9.87883e-16 0)
(1.51572e-20 -9.87884e-16 0)
(1.59031e-20 -9.87884e-16 0)
(1.66019e-20 -9.87885e-16 0)
(1.72563e-20 -9.87886e-16 0)
(1.78689e-20 -9.87887e-16 0)
(1.84427e-20 -9.87887e-16 0)
(1.89805e-20 -9.87888e-16 0)
(1.94851e-20 -9.87889e-16 0)
(1.99594e-20 -9.87889e-16 0)
(2.04061e-20 -9.8789e-16 0)
(2.08279e-20 -9.8789e-16 0)
(2.12273e-20 -9.87891e-16 0)
(2.16067e-20 -9.87892e-16 0)
(2.19685e-20 -9.87892e-16 0)
(2.23148e-20 -9.87893e-16 0)
(2.26475e-20 -9.87893e-16 0)
(2.29684e-20 -9.87894e-16 0)
(2.32792e-20 -9.87894e-16 0)
(2.35814e-20 -9.87895e-16 0)
(2.38765e-20 -9.87895e-16 0)
(2.41655e-20 -9.87895e-16 0)
(2.44497e-20 -9.87896e-16 0)
(2.47299e-20 -9.87896e-16 0)
(2.50069e-20 -9.87896e-16 0)
(8.85529e-20 -6.06874e-15 0)
(2.01181e-10 -4.86969e-06 0)
(3.07998e-10 -3.4386e-05 0)
(6.43419e-22 -9.8788e-16 0)
(1.9159e-21 -9.8788e-16 0)
(3.15719e-21 -9.8788e-16 0)
(4.36277e-21 -9.8788e-16 0)
(5.52885e-21 -9.87881e-16 0)
(6.65241e-21 -9.87881e-16 0)
(7.73116e-21 -9.87881e-16 0)
(8.76354e-21 -9.87882e-16 0)
(9.74861e-21 -9.87882e-16 0)
(1.06861e-20 -9.87883e-16 0)
(1.15762e-20 -9.87883e-16 0)
(1.24196e-20 -9.87884e-16 0)
(1.32175e-20 -9.87885e-16 0)
(1.39714e-20 -9.87885e-16 0)
(1.46832e-20 -9.87886e-16 0)
(1.53547e-20 -9.87886e-16 0)
(1.59883e-20 -9.87887e-16 0)
(1.65862e-20 -9.87888e-16 0)
(1.7151e-20 -9.87888e-16 0)
(1.7685e-20 -9.87889e-16 0)
(1.81908e-20 -9.8789e-16 0)
(1.86707e-20 -9.8789e-16 0)
(1.91271e-20 -9.87891e-16 0)
(1.95624e-20 -9.87891e-16 0)
(1.99787e-20 -9.87892e-16 0)
(2.03782e-20 -9.87892e-16 0)
(2.07628e-20 -9.87893e-16 0)
(2.11343e-20 -9.87894e-16 0)
(2.14944e-20 -9.87894e-16 0)
(2.18448e-20 -9.87894e-16 0)
(2.21869e-20 -9.87895e-16 0)
(2.25218e-20 -9.87895e-16 0)
(2.28509e-20 -9.87896e-16 0)
(2.31752e-20 -9.87896e-16 0)
(2.34955e-20 -9.87897e-16 0)
(2.38128e-20 -9.87897e-16 0)
(2.41277e-20 -9.87897e-16 0)
(9.00644e-20 -6.45777e-15 0)
(1.68565e-10 -4.35906e-06 0)
(2.36984e-10 -3.09169e-05 0)
(5.86582e-22 -9.87882e-16 0)
(1.74692e-21 -9.87882e-16 0)
(2.8796e-21 -9.87882e-16 0)
(3.98093e-21 -9.87882e-16 0)
(5.04782e-21 -9.87882e-16 0)
(6.07784e-21 -9.87883e-16 0)
(7.06914e-21 -9.87883e-16 0)
(8.02048e-21 -9.87883e-16 0)
(8.93114e-21 -9.87884e-16 0)
(9.80094e-21 -9.87884e-16 0)
(1.06301e-20 -9.87885e-16 0)
(1.14193e-20 -9.87885e-16 0)
(1.21696e-20 -9.87886e-16 0)
(1.28823e-20 -9.87886e-16 0)
(1.35589e-20 -9.87887e-16 0)
(1.42012e-20 -9.87888e-16 0)
(1.48112e-20 -9.87888e-16 0)
(1.53908e-20 -9.87889e-16 0)
(1.59422e-20 -9.87889e-16 0)
(1.64675e-20 -9.8789e-16 0)
(1.69689e-20 -9.87891e-16 0)
(1.74485e-20 -9.87891e-16 0)
(1.79084e-20 -9.87892e-16 0)
(1.83506e-20 -9.87892e-16 0)
(1.87771e-20 -9.87893e-16 0)
(1.91897e-20 -9.87893e-16 0)
(1.95902e-20 -9.87894e-16 0)
(1.99801e-20 -9.87894e-16 0)
(2.03609e-20 -9.87895e-16 0)
(2.07341e-20 -9.87895e-16 0)
(2.11008e-20 -9.87896e-16 0)
(2.14621e-20 -9.87896e-16 0)
(2.18191e-20 -9.87897e-16 0)
(2.21725e-20 -9.87897e-16 0)
(2.25232e-20 -9.87897e-16 0)
(2.28718e-20 -9.87898e-16 0)
(2.32187e-20 -9.87898e-16 0)
(9.20344e-20 -6.80383e-15 0)
(1.39498e-10 -3.86697e-06 0)
(1.78925e-10 -2.75383e-05 0)
(5.35083e-22 -9.87883e-16 0)
(1.59377e-21 -9.87883e-16 0)
(2.62786e-21 -9.87883e-16 0)
(3.63434e-21 -9.87884e-16 0)
(4.61072e-21 -9.87884e-16 0)
(5.55502e-21 -9.87884e-16 0)
(6.46577e-21 -9.87884e-16 0)
(7.34198e-21 -9.87885e-16 0)
(8.18313e-21 -9.87885e-16 0)
(8.9891e-21 -9.87886e-16 0)
(9.76018e-21 -9.87886e-16 0)
(1.0497e-20 -9.87887e-16 0)
(1.12004e-20 -9.87887e-16 0)
(1.18716e-20 -9.87888e-16 0)
(1.2512e-20 -9.87888e-16 0)
(1.31232e-20 -9.87889e-16 0)
(1.37068e-20 -9.87889e-16 0)
(1.42646e-20 -9.8789e-16 0)
(1.47986e-20 -9.8789e-16 0)
(1.53106e-20 -9.87891e-16 0)
(1.58025e-20 -9.87892e-16 0)
(1.62762e-20 -9.87892e-16 0)
(1.67337e-20 -9.87893e-16 0)
(1.71767e-20 -9.87893e-16 0)
(1.7607e-20 -9.87894e-16 0)
(1.80263e-20 -9.87894e-16 0)
(1.84361e-20 -9.87895e-16 0)
(1.88378e-20 -9.87895e-16 0)
(1.92329e-20 -9.87896e-16 0)
(1.96226e-20 -9.87896e-16 0)
(2.00078e-20 -9.87897e-16 0)
(2.03897e-20 -9.87897e-16 0)
(2.0769e-20 -9.87898e-16 0)
(2.11464e-20 -9.87898e-16 0)
(2.15225e-20 -9.87898e-16 0)
(2.18976e-20 -9.87899e-16 0)
(2.2272e-20 -9.87899e-16 0)
(9.15879e-20 -7.01615e-15 0)
(1.13777e-10 -3.39447e-06 0)
(1.32018e-10 -2.42556e-05 0)
(4.8798e-22 -9.87885e-16 0)
(1.45365e-21 -9.87885e-16 0)
(2.39741e-21 -9.87885e-16 0)
(3.31679e-21 -9.87885e-16 0)
(4.20978e-21 -9.87885e-16 0)
(5.07477e-21 -9.87885e-16 0)
(5.9106e-21 -9.87886e-16 0)
(6.71649e-21 -9.87886e-16 0)
(7.49205e-21 -9.87887e-16 0)
(8.23726e-21 -9.87887e-16 0)
(8.9524e-21 -9.87887e-16 0)
(9.63803e-21 -9.87888e-16 0)
(1.0295e-20 -9.87888e-16 0)
(1.09244e-20 -9.87889e-16 0)
(1.15273e-20 -9.87889e-16 0)
(1.21054e-20 -9.8789e-16 0)
(1.26599e-20 -9.8789e-16 0)
(1.31926e-20 -9.87891e-16 0)
(1.37051e-20 -9.87892e-16 0)
(1.41992e-20 -9.87892e-16 0)
(1.46766e-20 -9.87893e-16 0)
(1.51391e-20 -9.87893e-16 0)
(1.55884e-20 -9.87894e-16 0)
(1.60261e-20 -9.87894e-16 0)
(1.64539e-20 -9.87895e-16 0)
(1.68735e-20 -9.87895e-16 0)
(1.72861e-20 -9.87896e-16 0)
(1.76933e-20 -9.87896e-16 0)
(1.80963e-20 -9.87897e-16 0)
(1.84962e-20 -9.87897e-16 0)
(1.88942e-20 -9.87898e-16 0)
(1.9291e-20 -9.87898e-16 0)
(1.96874e-20 -9.87899e-16 0)
(2.00842e-20 -9.87899e-16 0)
(2.04819e-20 -9.87899e-16 0)
(2.08809e-20 -9.879e-16 0)
(2.12817e-20 -9.879e-16 0)
(8.95397e-20 -7.03772e-15 0)
(9.12079e-11 -2.94116e-06 0)
(9.47008e-11 -2.10753e-05 0)
(4.44505e-22 -9.87886e-16 0)
(1.32428e-21 -9.87886e-16 0)
(2.18451e-21 -9.87886e-16 0)
(3.02317e-21 -9.87886e-16 0)
(3.83862e-21 -9.87887e-16 0)
(4.62956e-21 -9.87887e-16 0)
(5.39507e-21 -9.87887e-16 0)
(6.13454e-21 -9.87887e-16 0)
(6.84768e-21 -9.87888e-16 0)
(7.53452e-21 -9.87888e-16 0)
(8.19535e-21 -9.87889e-16 0)
(8.83069e-21 -9.87889e-16 0)
(9.44131e-21 -9.87889e-16 0)
(1.00282e-20 -9.8789e-16 0)
(1.05923e-20 -9.8789e-16 0)
(1.11351e-20 -9.87891e-16 0)