/*--------------------------------*- C++ -*----------------------------------*\
  =========                 |
  \\      /  F ield         | OpenFOAM: The Open Source CFD Toolbox
   \\    /   O peration     | Website:  https://openfoam.org
    \\  /    A nd           | Version:  10
     \\/     M anipulation  |
\*---------------------------------------------------------------------------*/
FoamFile
{
    format      ascii;
    class       surfaceScalarField;
    location    "0.027";
    object      phi;
}
// * * * * * * * * * * * * * * * * * * * * * * * * * * * * * * * * * * * * * //

dimensions      [0 3 -1 0 0 0 0];

internalField   nonuniform List<scalar> 
7780
(
2.50002e-09
-3.60464e-14
2.50011e-09
-1.09407e-13
2.50026e-09
-1.8251e-13
2.5005e-09
-2.55366e-13
2.5008e-09
-3.28299e-13
2.50118e-09
-4.01203e-13
2.50162e-09
-4.7447e-13
2.50215e-09
-5.47911e-13
2.50274e-09
-6.21926e-13
2.50341e-09
-6.96274e-13
2.50416e-09
-7.71377e-13
2.50498e-09
-8.46991e-13
2.50587e-09
-9.23579e-13
2.50685e-09
-1.00091e-12
2.50789e-09
-1.07948e-12
2.50903e-09
-1.15909e-12
2.51024e-09
-1.24025e-12
2.51153e-09
-1.32278e-12
2.5129e-09
-1.40722e-12
2.51437e-09
-1.49341e-12
2.51592e-09
-1.58191e-12
2.51756e-09
-1.67257e-12
2.51929e-09
-1.766e-12
2.52112e-09
-1.86205e-12
2.52304e-09
-1.96134e-12
2.52507e-09
-2.06377e-12
2.52721e-09
-2.16996e-12
2.52945e-09
-2.27984e-12
2.53181e-09
-2.39404e-12
2.53428e-09
-2.5125e-12
2.53688e-09
-2.63587e-12
2.5396e-09
-2.76412e-12
2.54246e-09
-2.89789e-12
2.54545e-09
-3.0372e-12
2.54859e-09
-3.18265e-12
2.55188e-09
-3.33431e-12
2.55533e-09
-3.49278e-12
2.55894e-09
-3.65815e-12
2.56272e-09
-3.831e-12
2.56668e-09
-4.01146e-12
2.57084e-09
-4.20007e-12
2.57518e-09
-4.39702e-12
2.57973e-09
-4.60279e-12
2.5845e-09
-4.81762e-12
2.58949e-09
-5.04193e-12
2.5947e-09
-5.27602e-12
2.60017e-09
-5.52023e-12
2.60588e-09
-5.7749e-12
2.61187e-09
-6.04026e-12
2.61812e-09
-6.31672e-12
2.62466e-09
-6.60438e-12
2.6315e-09
-6.90369e-12
2.63865e-09
-7.2146e-12
2.64612e-09
-7.53757e-12
2.65393e-09
-7.87237e-12
2.66207e-09
-8.21947e-12
2.67058e-09
-8.57838e-12
2.67945e-09
-8.94958e-12
2.68872e-09
-9.33227e-12
2.69836e-09
-9.72687e-12
2.70842e-09
-1.01322e-11
2.71888e-09
-1.05486e-11
2.72978e-09
-1.09745e-11
2.7411e-09
-1.141e-11
2.75288e-09
-1.1853e-11
2.76508e-09
-1.23034e-11
2.77777e-09
-1.27586e-11
2.79088e-09
-1.32182e-11
2.80448e-09
-1.36787e-11
2.81851e-09
-1.41397e-11
2.83303e-09
-1.45971e-11
2.84797e-09
-1.50498e-11
2.86338e-09
-1.54932e-11
2.87919e-09
-1.5926e-11
2.89544e-09
-1.6343e-11
2.91206e-09
-1.6743e-11
2.9291e-09
-1.71199e-11
2.94644e-09
-1.74729e-11
2.96415e-09
-1.77957e-11
2.9821e-09
-1.80879e-11
3.00035e-09
-1.83433e-11
3.01877e-09
-1.85622e-11
3.03742e-09
-1.87388e-11
3.05614e-09
-1.88746e-11
3.07501e-09
-1.89642e-11
3.09387e-09
-1.90108e-11
3.11279e-09
-1.90096e-11
3.13158e-09
-1.89652e-11
3.15037e-09
-1.88735e-11
3.16893e-09
-1.87408e-11
3.18741e-09
-1.85635e-11
3.20557e-09
-1.83494e-11
3.22359e-09
-1.80949e-11
3.2412e-09
-1.78092e-11
3.25861e-09
-1.74887e-11
3.27555e-09
-1.71436e-11
3.29225e-09
-1.67698e-11
3.30841e-09
-1.63784e-11
3.32431e-09
-1.59646e-11
3.33963e-09
-1.55403e-11
3.35467e-09
-1.50995e-11
3.36909e-09
-1.46549e-11
3.38324e-09
-1.41993e-11
3.39674e-09
-1.37459e-11
3.40999e-09
-1.32862e-11
3.42257e-09
-1.2834e-11
3.43492e-09
-1.23793e-11
3.44659e-09
-1.19367e-11
3.45807e-09
-1.14944e-11
3.46886e-09
-1.10678e-11
3.4795e-09
-1.06437e-11
3.48945e-09
-1.02382e-11
3.4993e-09
-9.83646e-12
3.50846e-09
-9.45551e-12
3.51756e-09
-9.07888e-12
3.52597e-09
-8.72459e-12
3.53438e-09
-8.37444e-12
3.54211e-09
-8.04761e-12
3.54988e-09
-7.72403e-12
3.55697e-09
-7.42425e-12
3.56417e-09
-7.1261e-12
3.57067e-09
-6.85164e-12
3.57733e-09
-6.57634e-12
3.58329e-09
-6.32392e-12
3.58946e-09
-6.06711e-12
3.59491e-09
-5.83142e-12
3.60063e-09
-5.58638e-12
3.60557e-09
-5.35943e-12
3.61086e-09
-5.11635e-12
3.61531e-09
-4.88669e-12
3.62014e-09
-4.63199e-12
3.62406e-09
-4.3841e-12
3.62839e-09
-4.09994e-12
3.63172e-09
-3.81408e-12
3.63547e-09
-3.47869e-12
3.63809e-09
-3.13163e-12
3.64113e-09
-2.72064e-12
3.64289e-09
-2.28761e-12
3.64503e-09
-1.77654e-12
3.64573e-09
-1.23399e-12
3.64673e-09
-6.00821e-13
3.64613e-09
7.09782e-14
3.64573e-09
8.41241e-13
3.64356e-09
1.65189e-12
3.64148e-09
2.56231e-12
3.63749e-09
3.50877e-12
3.63346e-09
4.54888e-12
3.62741e-09
5.61431e-12
3.62119e-09
6.75991e-12
3.6129e-09
7.91456e-12
3.60433e-09
9.12971e-12
3.5937e-09
1.03338e-11
3.58268e-09
1.15745e-11
3.56969e-09
1.27823e-11
3.55624e-09
1.4001e-11
3.54095e-09
1.51657e-11
3.52516e-09
1.63158e-11
3.50774e-09
1.73934e-11
3.4898e-09
1.84336e-11
3.47047e-09
1.93867e-11
3.45064e-09
2.02834e-11
3.42969e-09
2.10836e-11
3.40828e-09
2.18133e-11
3.38605e-09
2.24424e-11
3.3634e-09
2.29919e-11
3.34023e-09
2.34418e-11
3.3167e-09
2.38082e-11
3.29295e-09
2.40803e-11
3.2689e-09
2.42696e-11
3.24488e-09
2.43736e-11
3.22064e-09
2.43988e-11
3.19668e-09
2.43505e-11
3.17254e-09
2.42303e-11
3.1489e-09
2.40497e-11
3.12513e-09
2.38062e-11
3.10203e-09
2.3516e-11
3.07884e-09
2.31728e-11
3.05646e-09
2.27968e-11
3.03402e-09
2.2378e-11
3.01249e-09
2.19395e-11
2.99092e-09
2.14683e-11
2.97032e-09
2.09893e-11
2.9497e-09
2.04871e-11
2.93009e-09
1.99878e-11
2.91045e-09
1.94739e-11
2.89184e-09
1.8972e-11
2.87319e-09
1.84631e-11
2.85556e-09
1.79738e-11
2.83786e-09
1.74839e-11
2.82117e-09
1.70196e-11
2.80438e-09
1.65598e-11
2.78856e-09
1.61305e-11
2.77261e-09
1.57096e-11
2.75759e-09
1.53226e-11
2.7424e-09
1.49467e-11
2.72809e-09
1.46068e-11
2.7137e-09
1.42817e-11
2.69966e-09
1.39838e-11
2.68592e-09
1.37439e-11
1.33677e-11
2.50002e-09
-7.21504e-14
2.50011e-09
-2.19489e-13
2.50026e-09
-3.65389e-13
2.50049e-09
-5.11002e-13
2.50079e-09
-6.56669e-13
2.50117e-09
-8.0257e-13
2.50161e-09
-9.48944e-13
2.50213e-09
-1.09586e-12
2.50273e-09
-1.24356e-12
2.50339e-09
-1.39213e-12
2.50414e-09
-1.54185e-12
2.50495e-09
-1.69282e-12
2.50584e-09
-1.84539e-12
2.50681e-09
-1.99969e-12
2.50786e-09
-2.15612e-12
2.50898e-09
-2.31486e-12
2.51019e-09
-2.47636e-12
2.51147e-09
-2.64084e-12
2.51284e-09
-2.80881e-12
2.51429e-09
-2.98052e-12
2.51583e-09
-3.15652e-12
2.51746e-09
-3.33711e-12
2.51918e-09
-3.52289e-12
2.521e-09
-3.7142e-12
2.52291e-09
-3.91168e-12
2.52493e-09
-4.11569e-12
2.52705e-09
-4.32692e-12
2.52927e-09
-4.54577e-12
2.53161e-09
-4.77297e-12
2.53406e-09
-5.00895e-12
2.53664e-09
-5.25446e-12
2.53934e-09
-5.50995e-12
2.54218e-09
-5.77624e-12
2.54515e-09
-6.05378e-12
2.54826e-09
-6.3434e-12
2.55152e-09
-6.64561e-12
2.55495e-09
-6.96124e-12
2.55853e-09
-7.29082e-12
2.56228e-09
-7.63521e-12
2.56621e-09
-7.99492e-12
2.57033e-09
-8.37085e-12
2.57464e-09
-8.76352e-12
2.57916e-09
-9.17379e-12
2.58388e-09
-9.60223e-12
2.58883e-09
-1.00497e-11
2.59401e-09
-1.05166e-11
2.59944e-09
-1.1004e-11
2.60511e-09
-1.15122e-11
2.61105e-09
-1.2042e-11
2.61725e-09
-1.25939e-11
2.62375e-09
-1.31685e-11
2.63054e-09
-1.37663e-11
2.63765e-09
-1.43878e-11
2.64507e-09
-1.50332e-11
2.65283e-09
-1.57029e-11
2.66093e-09
-1.6397e-11
2.66939e-09
-1.71156e-11
2.67822e-09
-1.78585e-11
2.68744e-09
-1.86254e-11
2.69704e-09
-1.94159e-11
2.70706e-09
-2.02292e-11
2.71748e-09
-2.10644e-11
2.72835e-09
-2.19201e-11
2.73964e-09
-2.27948e-11
2.75139e-09
-2.36863e-11
2.76357e-09
-2.45925e-11
2.77624e-09
-2.55102e-11
2.78935e-09
-2.64363e-11
2.80295e-09
-2.73669e-11
2.817e-09
-2.82977e-11
2.83153e-09
-2.92237e-11
2.84651e-09
-3.01397e-11
2.86196e-09
-3.10396e-11
2.87783e-09
-3.19173e-11
2.89416e-09
-3.27656e-11
2.91087e-09
-3.35781e-11
2.928e-09
-3.43468e-11
2.94546e-09
-3.5065e-11
2.96329e-09
-3.57249e-11
2.98138e-09
-3.632e-11
2.99978e-09
-3.68431e-11
3.01836e-09
-3.7289e-11
3.03717e-09
-3.76516e-11
3.05607e-09
-3.79273e-11
3.07511e-09
-3.81123e-11
3.09415e-09
-3.82052e-11
3.11324e-09
-3.82042e-11
3.13222e-09
-3.81106e-11
3.15116e-09
-3.79248e-11
3.1699e-09
-3.76505e-11
3.18852e-09
-3.72902e-11
3.20684e-09
-3.68495e-11
3.22497e-09
-3.63325e-11
3.24272e-09
-3.57463e-11
3.26022e-09
-3.50959e-11
3.27727e-09
-3.43894e-11
3.29404e-09
-3.36322e-11
3.31028e-09
-3.28325e-11
3.32622e-09
-3.1996e-11
3.3416e-09
-3.11306e-11
3.35666e-09
-3.02414e-11
3.37112e-09
-2.93362e-11
3.38526e-09
-2.84192e-11
3.39878e-09
-2.74975e-11
3.412e-09
-2.65743e-11
3.42458e-09
-2.56562e-11
3.43688e-09
-2.47453e-11
3.44855e-09
-2.38474e-11
3.45996e-09
-2.29637e-11
3.47075e-09
-2.20993e-11
3.48131e-09
-2.12542e-11
3.49125e-09
-2.04329e-11
3.50101e-09
-1.96347e-11
3.51015e-09
-1.88635e-11
3.51916e-09
-1.81177e-11
3.52756e-09
-1.74007e-11
3.53588e-09
-1.671e-11
3.5436e-09
-1.60488e-11
3.55129e-09
-1.54136e-11
3.55838e-09
-1.48075e-11
3.56549e-09
-1.42259e-11
3.572e-09
-1.36716e-11
3.57859e-09
-1.31389e-11
3.58458e-09
-1.26305e-11
3.5907e-09
-1.21388e-11
3.5962e-09
-1.16661e-11
3.60188e-09
-1.1203e-11
3.60692e-09
-1.07506e-11
3.61219e-09
-1.02976e-11
3.61678e-09
-9.84328e-12
3.62164e-09
-9.37375e-12
3.62575e-09
-8.88641e-12
3.63016e-09
-8.36473e-12
3.63375e-09
-7.80399e-12
3.63763e-09
-7.18544e-12
3.64058e-09
-6.50272e-12
3.6438e-09
-5.73583e-12
3.64596e-09
-4.87797e-12
3.64834e-09
-3.90961e-12
3.6495e-09
-2.82491e-12
3.65079e-09
-1.60621e-12
3.65069e-09
-2.51446e-13
3.6506e-09
1.25137e-12
3.64895e-09
2.89843e-12
3.64718e-09
4.6947e-12
3.64369e-09
6.62896e-12
3.63994e-09
8.69862e-12
3.63435e-09
1.08849e-11
3.62836e-09
1.31782e-11
3.62047e-09
1.55533e-11
3.61205e-09
1.79955e-11
3.60173e-09
2.04749e-11
3.5908e-09
2.29739e-11
3.57802e-09
2.54608e-11
3.56457e-09
2.79177e-11
3.5494e-09
3.03132e-11
3.53355e-09
3.26314e-11
3.51616e-09
3.48436e-11
3.4981e-09
3.69375e-11
3.47873e-09
3.88888e-11
3.45874e-09
4.06898e-11
3.4377e-09
4.23219e-11
3.41612e-09
4.37823e-11
3.39376e-09
4.50584e-11
3.37094e-09
4.61524e-11
3.34763e-09
4.70574e-11
3.32395e-09
4.778e-11
3.30005e-09
4.83185e-11
3.27588e-09
4.8683e-11
3.25174e-09
4.88763e-11
3.22742e-09
4.89108e-11
3.20335e-09
4.87927e-11
3.17919e-09
4.85359e-11
3.15547e-09
4.81491e-11
3.13172e-09
4.76464e-11
3.10857e-09
4.70382e-11
3.08545e-09
4.63383e-11
3.06306e-09
4.55579e-11
3.04073e-09
4.47097e-11
3.01922e-09
4.38051e-11
2.9978e-09
4.28554e-11
2.97726e-09
4.18718e-11
2.95681e-09
4.08639e-11
2.93728e-09
3.98422e-11
2.91784e-09
3.88146e-11
2.89932e-09
3.77906e-11
2.88089e-09
3.67766e-11
2.86336e-09
3.57808e-11
2.84589e-09
3.4808e-11
2.82931e-09
3.38653e-11
2.81275e-09
3.2956e-11
2.79704e-09
3.2086e-11
2.78131e-09
3.12572e-11
2.7664e-09
3.04743e-11
2.75143e-09
2.9738e-11
2.73721e-09
2.90514e-11
2.72302e-09
2.84173e-11
2.70911e-09
2.78216e-11
2.69551e-09
2.7338e-11
2.66152e-11
2.50002e-09
-1.08039e-13
2.50011e-09
-3.29012e-13
2.50026e-09
-5.47502e-13
2.50049e-09
-7.65504e-13
2.50079e-09
-9.83496e-13
2.50116e-09
-1.20185e-12
2.5016e-09
-1.42079e-12
2.50212e-09
-1.64052e-12
2.50271e-09
-1.86127e-12
2.50337e-09
-2.08326e-12
2.50411e-09
-2.3068e-12
2.50492e-09
-2.53217e-12
2.5058e-09
-2.75974e-12
2.50676e-09
-2.98986e-12
2.5078e-09
-3.22298e-12
2.50891e-09
-3.45953e-12
2.5101e-09
-3.70002e-12
2.51138e-09
-3.94494e-12
2.51273e-09
-4.1949e-12
2.51417e-09
-4.45045e-12
2.51569e-09
-4.71225e-12
2.5173e-09
-4.98093e-12
2.51899e-09
-5.25721e-12
2.52079e-09
-5.54177e-12
2.52267e-09
-5.83541e-12
2.52466e-09
-6.13886e-12
2.52675e-09
-6.45296e-12
2.52894e-09
-6.77852e-12
2.53124e-09
-7.11642e-12
2.53366e-09
-7.4675e-12
2.53619e-09
-7.83272e-12
2.53885e-09
-8.21296e-12
2.54164e-09
-8.60921e-12
2.54456e-09
-9.0224e-12
2.54763e-09
-9.45355e-12
2.55084e-09
-9.90363e-12
2.5542e-09
-1.03737e-11
2.55773e-09
-1.08648e-11
2.56142e-09
-1.13779e-11
2.56528e-09
-1.19141e-11
2.56934e-09
-1.24746e-11
2.57358e-09
-1.30602e-11
2.57802e-09
-1.36722e-11
2.58267e-09
-1.43116e-11
2.58754e-09
-1.49794e-11
2.59264e-09
-1.56767e-11
2.59798e-09
-1.64045e-11
2.60357e-09
-1.71639e-11
2.60942e-09
-1.79558e-11
2.61554e-09
-1.87811e-11
2.62195e-09
-1.96408e-11
2.62864e-09
-2.05355e-11
2.63566e-09
-2.14661e-11
2.64298e-09
-2.24331e-11
2.65065e-09
-2.34371e-11
2.65865e-09
-2.44784e-11
2.66702e-09
-2.55571e-11
2.67575e-09
-2.66732e-11
2.68487e-09
-2.78265e-11
2.69439e-09
-2.90162e-11
2.70432e-09
-3.02415e-11
2.71467e-09
-3.15011e-11
2.72546e-09
-3.27932e-11
2.73669e-09
-3.41155e-11
2.74838e-09
-3.54653e-11
2.76053e-09
-3.6839e-11
2.77316e-09
-3.82325e-11
2.78627e-09
-3.9641e-11
2.79987e-09
-4.10589e-11
2.81394e-09
-4.24795e-11
2.82852e-09
-4.38955e-11
2.84357e-09
-4.52987e-11
2.85911e-09
-4.668e-11
2.87511e-09
-4.80297e-11
2.89158e-09
-4.9337e-11
2.90847e-09
-5.0591e-11
2.92581e-09
-5.178e-11
2.94351e-09
-5.28923e-11
2.9616e-09
-5.39162e-11
2.97998e-09
-5.48405e-11
2.99869e-09
-5.56542e-11
3.01761e-09
-5.63478e-11
3.03676e-09
-5.69125e-11
3.05603e-09
-5.73415e-11
3.07544e-09
-5.76294e-11
3.09485e-09
-5.77728e-11
3.11431e-09
-5.77703e-11
3.13366e-09
-5.76226e-11
3.15296e-09
-5.73321e-11
3.17204e-09
-5.69032e-11
3.19098e-09
-5.63416e-11
3.20961e-09
-5.5655e-11
3.22802e-09
-5.48517e-11
3.24603e-09
-5.39414e-11
3.26376e-09
-5.29341e-11
3.28102e-09
-5.18406e-11
3.29796e-09
-5.06715e-11
3.31436e-09
-4.94379e-11
3.33042e-09
-4.81505e-11
3.3459e-09
-4.682e-11
3.36103e-09
-4.5456e-11
3.37554e-09
-4.40686e-11
3.38971e-09
-4.26663e-11
3.40324e-09
-4.12578e-11
3.41644e-09
-3.98504e-11
3.42901e-09
-3.84515e-11
3.44126e-09
-3.70669e-11
3.45288e-09
-3.57025e-11
3.46421e-09
-3.43629e-11
3.47492e-09
-3.30527e-11
3.48539e-09
-3.17749e-11
3.49524e-09
-3.05334e-11
3.50489e-09
-2.93297e-11
3.51394e-09
-2.81667e-11
3.52283e-09
-2.7045e-11
3.53113e-09
-2.59665e-11
3.53933e-09
-2.49307e-11
3.54695e-09
-2.39389e-11
3.55451e-09
-2.29897e-11
3.56151e-09
-2.20838e-11
3.5685e-09
-2.12186e-11
3.57493e-09
-2.03945e-11
3.58142e-09
-1.96074e-11
3.58734e-09
-1.8857e-11
3.59337e-09
-1.81377e-11
3.59883e-09
-1.7448e-11
3.60446e-09
-1.67799e-11
3.6095e-09
-1.61301e-11
3.61477e-09
-1.54875e-11
3.61942e-09
-1.48458e-11
3.62433e-09
-1.41906e-11
3.62858e-09
-1.35113e-11
3.63313e-09
-1.27897e-11
3.63694e-09
-1.20105e-11
3.64106e-09
-1.11524e-11
3.64434e-09
-1.01955e-11
3.64791e-09
-9.11697e-12
3.65049e-09
-7.89428e-12
3.65331e-09
-6.50552e-12
3.65498e-09
-4.92809e-12
3.65677e-09
-3.14479e-12
3.65723e-09
-1.137e-12
3.65768e-09
1.10215e-12
3.65659e-09
3.58224e-12
3.65532e-09
6.2973e-12
3.65234e-09
9.24532e-12
3.64901e-09
1.24065e-11
3.64382e-09
1.57666e-11
3.63811e-09
1.92935e-11
3.63046e-09
2.29625e-11
3.62216e-09
2.67327e-11
3.61189e-09
3.05722e-11
3.60088e-09
3.44359e-11
3.58797e-09
3.82883e-11
3.57427e-09
4.20849e-11
3.55879e-09
4.57905e-11
3.54252e-09
4.9365e-11
3.52467e-09
5.27768e-11
3.50606e-09
5.59934e-11
3.48612e-09
5.89891e-11
3.46549e-09
6.17407e-11
3.4438e-09
6.423e-11
3.42153e-09
6.64438e-11
3.39849e-09
6.83717e-11
3.37498e-09
7.00104e-11
3.351e-09
7.13569e-11
3.32667e-09
7.24164e-11
3.30215e-09
7.31926e-11
3.27738e-09
7.36977e-11
3.25269e-09
7.39406e-11
3.22786e-09
7.39384e-11
3.20333e-09
7.3704e-11
3.17875e-09
7.32578e-11
3.15467e-09
7.26148e-11
3.13062e-09
7.17972e-11
3.10721e-09
7.0821e-11
3.08389e-09
6.97088e-11
3.06134e-09
6.84764e-11
3.03891e-09
6.71456e-11
3.01733e-09
6.57318e-11
2.9959e-09
6.42548e-11
2.97537e-09
6.27288e-11
2.955e-09
6.11716e-11
2.93556e-09
5.95958e-11
2.91626e-09
5.80168e-11
2.8979e-09
5.64454e-11
2.87966e-09
5.48945e-11
2.86234e-09
5.33732e-11
2.84511e-09
5.18918e-11
2.82877e-09
5.04576e-11
2.81249e-09
4.90786e-11
2.79705e-09
4.77602e-11
2.78163e-09
4.65083e-11
2.767e-09
4.53266e-11
2.75235e-09
4.42194e-11
2.73843e-09
4.31875e-11
2.72456e-09
4.22379e-11
2.71096e-09
4.13494e-11
2.69766e-09
4.06263e-11
3.95549e-11
2.50002e-09
-1.43688e-13
2.5001e-09
-4.37826e-13
2.50026e-09
-7.28459e-13
2.50048e-09
-1.01834e-12
2.50078e-09
-1.3081e-12
2.50115e-09
-1.59822e-12
2.50159e-09
-1.88899e-12
2.50211e-09
-2.18065e-12
2.50269e-09
-2.47347e-12
2.50335e-09
-2.76777e-12
2.50407e-09
-3.06391e-12
2.50488e-09
-3.36228e-12
2.50575e-09
-3.66335e-12
2.5067e-09
-3.96762e-12
2.50772e-09
-4.27564e-12
2.50882e-09
-4.58803e-12
2.50999e-09
-4.90545e-12
2.51124e-09
-5.22858e-12
2.51257e-09
-5.5582e-12
2.51398e-09
-5.89508e-12
2.51548e-09
-6.24009e-12
2.51705e-09
-6.59409e-12
2.51872e-09
-6.95803e-12
2.52047e-09
-7.33286e-12
2.52232e-09
-7.71959e-12
2.52426e-09
-8.11926e-12
2.5263e-09
-8.53296e-12
2.52845e-09
-8.96179e-12
2.5307e-09
-9.40691e-12
2.53306e-09
-9.8695e-12
2.53553e-09
-1.03508e-11
2.53813e-09
-1.0852e-11
2.54085e-09
-1.13744e-11
2.5437e-09
-1.19193e-11
2.54669e-09
-1.2488e-11
2.54982e-09
-1.30819e-11
2.5531e-09
-1.37023e-11
2.55654e-09
-1.43507e-11
2.56014e-09
-1.50284e-11
2.56391e-09
-1.57369e-11
2.56786e-09
-1.64777e-11
2.57199e-09
-1.7252e-11
2.57633e-09
-1.80615e-11
2.58087e-09
-1.89076e-11
2.58562e-09
-1.97917e-11
2.5906e-09
-2.07153e-11
2.59581e-09
-2.16797e-11
2.60127e-09
-2.26865e-11
2.60699e-09
-2.37369e-11
2.61297e-09
-2.48322e-11
2.61924e-09
-2.59738e-11
2.6258e-09
-2.71627e-11
2.63267e-09
-2.84002e-11
2.63984e-09
-2.9687e-11
2.64736e-09
-3.10242e-11
2.65522e-09
-3.24122e-11
2.66344e-09
-3.38515e-11
2.67203e-09
-3.53423e-11
2.68101e-09
-3.68845e-11
2.69039e-09
-3.84775e-11
2.70019e-09
-4.01204e-11
2.71041e-09
-4.18118e-11
2.72109e-09
-4.35498e-11
2.73221e-09
-4.53315e-11
2.74381e-09
-4.71537e-11
2.75589e-09
-4.9012e-11
2.76847e-09
-5.09013e-11
2.78154e-09
-5.28152e-11
2.79514e-09
-5.47466e-11
2.80924e-09
-5.66867e-11
2.82388e-09
-5.86257e-11
2.83902e-09
-6.05525e-11
2.8547e-09
-6.24545e-11
2.87088e-09
-6.43181e-11
2.88757e-09
-6.61284e-11
2.90473e-09
-6.78695e-11
2.92238e-09
-6.95247e-11
2.94043e-09
-7.1077e-11
2.95893e-09
-7.25092e-11
2.97776e-09
-7.38044e-11
2.99695e-09
-7.49465e-11
3.01638e-09
-7.5921e-11
3.03608e-09
-7.67148e-11
3.05591e-09
-7.73177e-11
3.07589e-09
-7.77214e-11
3.09589e-09
-7.79212e-11
3.11592e-09
-7.7915e-11
3.13584e-09
-7.77039e-11
3.15569e-09
-7.72918e-11
3.17531e-09
-7.66857e-11
3.19475e-09
-7.58943e-11
3.21385e-09
-7.49291e-11
3.23269e-09
-7.38025e-11
3.25109e-09
-7.25289e-11
3.26918e-09
-7.11229e-11
3.28675e-09
-6.96002e-11
3.30395e-09
-6.79762e-11
3.32058e-09
-6.62668e-11
3.33682e-09
-6.44869e-11
3.35244e-09
-6.26515e-11
3.36767e-09
-6.07745e-11
3.38225e-09
-5.88692e-11
3.39645e-09
-5.69478e-11
3.40999e-09
-5.5022e-11
3.42316e-09
-5.31017e-11
3.43568e-09
-5.11967e-11
3.44786e-09
-4.93149e-11
3.45938e-09
-4.74641e-11
3.47061e-09
-4.56503e-11
3.48119e-09
-4.38795e-11
3.49152e-09
-4.21557e-11
3.50122e-09
-4.04837e-11
3.51071e-09
-3.88654e-11
3.51959e-09
-3.73046e-11
3.52831e-09
-3.58016e-11
3.53645e-09
-3.43592e-11
3.54447e-09
-3.29763e-11
3.55191e-09
-3.16549e-11
3.5593e-09
-3.03928e-11
3.56613e-09
-2.91915e-11
3.57296e-09
-2.80473e-11
3.57923e-09
-2.69615e-11
3.58557e-09
-2.5929e-11
3.59136e-09
-2.49505e-11
3.59727e-09
-2.4019e-11
3.60264e-09
-2.31338e-11
3.60819e-09
-2.22853e-11
3.6132e-09
-2.14704e-11
3.61846e-09
-2.06756e-11
3.62315e-09
-1.98935e-11
3.62816e-09
-1.91054e-11
3.63257e-09
-1.82975e-11
3.63734e-09
-1.74451e-11
3.64145e-09
-1.65264e-11
3.64595e-09
-1.55112e-11
3.6497e-09
-1.4369e-11
3.65381e-09
-1.30662e-11
3.65704e-09
-1.1566e-11
3.66057e-09
-9.83543e-12
3.66302e-09
-7.83594e-12
3.66566e-09
-5.54133e-12
3.66699e-09
-2.91744e-12
3.66833e-09
4.61487e-14
3.66811e-09
3.36882e-12
3.66769e-09
7.04116e-12
3.66548e-09
1.10639e-11
3.66286e-09
1.54054e-11
3.65824e-09
2.0047e-11
3.65301e-09
2.49379e-11
3.64567e-09
3.0043e-11
3.63756e-09
3.52986e-11
3.6273e-09
4.06586e-11
3.61615e-09
4.60537e-11
3.60293e-09
5.14332e-11
3.58876e-09
5.67295e-11
3.57267e-09
6.18927e-11
3.55566e-09
6.6863e-11
3.53694e-09
7.15963e-11
3.51736e-09
7.60447e-11
3.49635e-09
8.01732e-11
3.47459e-09
8.39485e-11
3.45172e-09
8.73467e-11
3.42822e-09
9.03498e-11
3.40395e-09
9.29452e-11
3.37919e-09
9.51294e-11
3.35399e-09
9.69006e-11
3.32845e-09
9.82678e-11
3.30278e-09
9.92382e-11
3.27691e-09
9.98309e-11
3.25118e-09
1.0006e-10
3.22537e-09
9.99515e-11
3.19995e-09
9.95244e-11
3.17454e-09
9.88091e-11
3.14973e-09
9.78271e-11
3.12501e-09
9.66107e-11
3.10103e-09
9.51826e-11
3.07721e-09
9.35746e-11
3.05425e-09
9.18094e-11
3.03148e-09
8.9917e-11
3.00964e-09
8.79188e-11
2.98802e-09
8.58423e-11
2.96737e-09
8.37067e-11
2.94693e-09
8.15365e-11
2.92749e-09
7.93484e-11
2.90824e-09
7.71635e-11
2.88998e-09
7.49959e-11
2.87188e-09
7.28631e-11
2.85475e-09
7.07768e-11
2.83774e-09
6.87509e-11
2.82165e-09
6.67946e-11
2.80565e-09
6.49185e-11
2.79051e-09
6.31296e-11
2.77541e-09
6.14354e-11
2.76111e-09
5.98406e-11
2.74681e-09
5.83505e-11
2.73324e-09
5.69661e-11
2.71973e-09
5.5696e-11
2.70649e-09
5.45129e-11
2.69356e-09
5.35521e-11
5.21403e-11
2.50002e-09
-1.79085e-13
2.5001e-09
-5.45877e-13
2.50026e-09
-9.08137e-13
2.50048e-09
-1.26932e-12
2.50078e-09
-1.63019e-12
2.50114e-09
-1.99129e-12
2.50158e-09
-2.35296e-12
2.50209e-09
-2.71547e-12
2.50266e-09
-3.07913e-12
2.50331e-09
-3.4443e-12
2.50403e-09
-3.81141e-12
2.50482e-09
-4.18097e-12
2.50568e-09
-4.55353e-12
2.50661e-09
-4.92973e-12
2.50762e-09
-5.31026e-12
2.5087e-09
-5.69588e-12
2.50984e-09
-6.08743e-12
2.51107e-09
-6.48579e-12
2.51237e-09
-6.89191e-12
2.51375e-09
-7.30679e-12
2.51521e-09
-7.73151e-12
2.51674e-09
-8.16716e-12
2.51837e-09
-8.61494e-12
2.52007e-09
-9.07603e-12
2.52187e-09
-9.55173e-12
2.52375e-09
-1.00433e-11
2.52574e-09
-1.05522e-11
2.52781e-09
-1.10798e-11
2.52999e-09
-1.16274e-11
2.53228e-09
-1.21967e-11
2.53468e-09
-1.27891e-11
2.53719e-09
-1.34062e-11
2.53982e-09
-1.40496e-11
2.54257e-09
-1.47209e-11
2.54546e-09
-1.54219e-11
2.54849e-09
-1.61541e-11
2.55166e-09
-1.69194e-11
2.55497e-09
-1.77195e-11
2.55845e-09
-1.85562e-11
2.56209e-09
-1.94313e-11
2.56591e-09
-2.03466e-11
2.56991e-09
-2.1304e-11
2.5741e-09
-2.23053e-11
2.57848e-09
-2.33524e-11
2.58308e-09
-2.44471e-11
2.58789e-09
-2.55914e-11
2.59294e-09
-2.67869e-11
2.59823e-09
-2.80357e-11
2.60377e-09
-2.93395e-11
2.60957e-09
-3.07e-11
2.61565e-09
-3.21189e-11
2.62201e-09
-3.35979e-11
2.62869e-09
-3.51386e-11
2.63567e-09
-3.67423e-11
2.64298e-09
-3.84103e-11
2.65064e-09
-4.01436e-11
2.65866e-09
-4.19433e-11
2.66704e-09
-4.38097e-11
2.67583e-09
-4.57433e-11
2.68501e-09
-4.77438e-11
2.69462e-09
-4.98105e-11
2.70466e-09
-5.19423e-11
2.71517e-09
-5.41373e-11
2.72614e-09
-5.63927e-11
2.73761e-09
-5.8705e-11
2.74957e-09
-6.10693e-11
2.76206e-09
-6.348e-11
2.77507e-09
-6.59296e-11
2.78865e-09
-6.84094e-11
2.80277e-09
-7.09088e-11
2.81747e-09
-7.34158e-11
2.83272e-09
-7.59161e-11
2.84857e-09
-7.83936e-11
2.86496e-09
-8.08303e-11
2.88195e-09
-8.32064e-11
2.89946e-09
-8.55002e-11
2.91752e-09
-8.76888e-11
2.93607e-09
-8.97482e-11
2.95511e-09
-9.16541e-11
2.97456e-09
-9.33823e-11
2.99442e-09
-9.49095e-11
3.01458e-09
-9.62144e-11
3.03504e-09
-9.72781e-11
3.05566e-09
-9.80852e-11
3.07646e-09
-9.86242e-11
3.09727e-09
-9.8888e-11
3.11812e-09
-9.88739e-11
3.13884e-09
-9.85843e-11
3.15947e-09
-9.80251e-11
3.17982e-09
-9.72068e-11
3.19996e-09
-9.61426e-11
3.21971e-09
-9.48491e-11
3.23914e-09
-9.33446e-11
3.25808e-09
-9.16495e-11
3.27663e-09
-8.97844e-11
3.29461e-09
-8.77712e-11
3.31217e-09
-8.56313e-11
3.32909e-09
-8.3386e-11
3.34556e-09
-8.10558e-11
3.36136e-09
-7.86604e-11
3.37671e-09
-7.62181e-11
3.39137e-09
-7.37464e-11
3.4056e-09
-7.12609e-11
3.41913e-09
-6.87765e-11
3.43226e-09
-6.63059e-11
3.4447e-09
-6.38613e-11
3.45676e-09
-6.14524e-11
3.46816e-09
-5.9089e-11
3.47922e-09
-5.67781e-11
3.48963e-09
-5.45271e-11
3.49976e-09
-5.23408e-11
3.50926e-09
-5.02244e-11
3.51853e-09
-4.81807e-11
3.52718e-09
-4.62133e-11
3.53567e-09
-4.4323e-11
3.54357e-09
-4.25123e-11
3.55134e-09
-4.07801e-11
3.55855e-09
-3.91285e-11
3.5657e-09
-3.7555e-11
3.5723e-09
-3.6061e-11
3.57889e-09
-3.46431e-11
3.58495e-09
-3.33026e-11
3.59107e-09
-3.20347e-11
3.59667e-09
-3.08409e-11
3.60239e-09
-2.97144e-11
3.60762e-09
-2.86563e-11
3.61303e-09
-2.76567e-11
3.61796e-09
-2.67145e-11
3.62316e-09
-2.58149e-11
3.62787e-09
-2.49516e-11
3.63295e-09
-2.41024e-11
3.63753e-09
-2.3252e-11
3.64256e-09
-2.23685e-11
3.64705e-09
-2.14242e-11
3.65204e-09
-2.03766e-11
3.65641e-09
-1.91838e-11
3.66129e-09
-1.77947e-11
3.66541e-09
-1.61555e-11
3.66997e-09
-1.42129e-11
3.67354e-09
-1.19081e-11
3.67742e-09
-9.19554e-12
3.68002e-09
-6.02284e-12
3.6827e-09
-2.36518e-12
3.68378e-09
1.80727e-12
3.68465e-09
6.48625e-12
3.68361e-09
1.16728e-11
3.68206e-09
1.73234e-11
3.67832e-09
2.34088e-11
3.67382e-09
2.98562e-11
3.66696e-09
3.6612e-11
3.65914e-09
4.35845e-11
3.6489e-09
5.07056e-11
3.63757e-09
5.78762e-11
3.62389e-09
6.5023e-11
3.60908e-09
7.20508e-11
3.5921e-09
7.88891e-11
3.57402e-09
8.54548e-11
3.55404e-09
9.16873e-11
3.53306e-09
9.75212e-11
3.51053e-09
1.0291e-10
3.48714e-09
1.0781e-10
3.46257e-09
1.1219e-10
3.43732e-09
1.16029e-10
3.41129e-09
1.19313e-10
3.38476e-09
1.2204e-10
3.35783e-09
1.2421e-10
3.33058e-09
1.2584e-10
3.30328e-09
1.26942e-10
3.27583e-09
1.27544e-10
3.24864e-09
1.2767e-10
3.22144e-09
1.27355e-10
3.19476e-09
1.26629e-10
3.16818e-09
1.25532e-10
3.14233e-09
1.24097e-10
3.11666e-09
1.22365e-10
3.09187e-09
1.20369e-10
3.06733e-09
1.18152e-10
3.04378e-09
1.15743e-10
3.0205e-09
1.13182e-10
2.99828e-09
1.10497e-10
2.97635e-09
1.07724e-10
2.9555e-09
1.04888e-10
2.93493e-09
1.0202e-10
2.91545e-09
9.91415e-11
2.89622e-09
9.62784e-11
2.87805e-09
9.34492e-11
2.86011e-09
9.06751e-11
2.84317e-09
8.79709e-11
2.82642e-09
8.53535e-11
2.81062e-09
8.28343e-11
2.79494e-09
8.04259e-11
2.78016e-09
7.81368e-11
2.76544e-09
7.59759e-11
2.75155e-09
7.39486e-11
2.73766e-09
7.20609e-11
2.72452e-09
7.0314e-11
2.71144e-09
6.87177e-11
2.69864e-09
6.72381e-11
2.68615e-09
6.60414e-11
6.42982e-11
2.50002e-09
-2.14303e-13
2.5001e-09
-6.533e-13
2.50025e-09
-1.08674e-12
2.50048e-09
-1.5187e-12
2.50077e-09
-1.95e-12
2.50113e-09
-2.38127e-12
2.50157e-09
-2.81282e-12
2.50207e-09
-3.24493e-12
2.50264e-09
-3.67794e-12
2.50328e-09
-4.11225e-12
2.50399e-09
-4.54837e-12
2.50477e-09
-4.98686e-12
2.50561e-09
-5.42841e-12
2.50653e-09
-5.87377e-12
2.50751e-09
-6.32378e-12
2.50856e-09
-6.77936e-12
2.50968e-09
-7.24153e-12
2.51088e-09
-7.71135e-12
2.51214e-09
-8.18999e-12
2.51348e-09
-8.67866e-12
2.51489e-09
-9.17866e-12
2.51638e-09
-9.69134e-12
2.51795e-09
-1.02181e-11
2.5196e-09
-1.07605e-11
2.52133e-09
-1.13199e-11
2.52315e-09
-1.1898e-11
2.52505e-09
-1.24965e-11
2.52705e-09
-1.31171e-11
2.52915e-09
-1.37614e-11
2.53134e-09
-1.44313e-11
2.53364e-09
-1.51286e-11
2.53604e-09
-1.58552e-11
2.53856e-09
-1.66131e-11
2.5412e-09
-1.74043e-11
2.54396e-09
-1.82307e-11
2.54685e-09
-1.90945e-11
2.54989e-09
-1.99977e-11
2.55306e-09
-2.09424e-11
2.55638e-09
-2.19309e-11
2.55986e-09
-2.29654e-11
2.56351e-09
-2.4048e-11
2.56733e-09
-2.5181e-11
2.57134e-09
-2.63667e-11
2.57554e-09
-2.76075e-11
2.57994e-09
-2.89055e-11
2.58455e-09
-3.02631e-11
2.58939e-09
-3.16826e-11
2.59445e-09
-3.31663e-11
2.59977e-09
-3.47166e-11
2.60534e-09
-3.63356e-11
2.61118e-09
-3.80256e-11
2.6173e-09
-3.97888e-11
2.62372e-09
-4.16272e-11
2.63045e-09
-4.35429e-11
2.63751e-09
-4.55377e-11
2.6449e-09
-4.76134e-11
2.65266e-09
-4.97714e-11
2.66078e-09
-5.2013e-11
2.6693e-09
-5.43391e-11
2.67822e-09
-5.67502e-11
2.68758e-09
-5.92463e-11
2.69738e-09
-6.18268e-11
2.70766e-09
-6.44904e-11
2.7184e-09
-6.72349e-11
2.72968e-09
-7.0057e-11
2.74146e-09
-7.2952e-11
2.75381e-09
-7.59142e-11
2.76672e-09
-7.89355e-11
2.78023e-09
-8.20066e-11
2.79433e-09
-8.51153e-11
2.80907e-09
-8.82475e-11
2.82444e-09
-9.13861e-11
2.84046e-09
-9.45114e-11
2.85712e-09
-9.76005e-11
2.87445e-09
-1.00628e-10
2.89239e-09
-1.03565e-10
2.91099e-09
-1.06381e-10
2.93016e-09
-1.09042e-10
2.94992e-09
-1.11516e-10
2.97018e-09
-1.13766e-10
2.99093e-09
-1.15761e-10
3.01205e-09
-1.17468e-10
3.03353e-09
-1.18861e-10
3.05521e-09
-1.19916e-10
3.0771e-09
-1.20618e-10
3.09902e-09
-1.20956e-10
3.12096e-09
-1.20927e-10
3.14276e-09
-1.20535e-10
3.16441e-09
-1.19791e-10
3.18575e-09
-1.18709e-10
3.20681e-09
-1.1731e-10
3.2274e-09
-1.15617e-10
3.2476e-09
-1.13657e-10
3.26723e-09
-1.11459e-10
3.28639e-09
-1.09051e-10
3.30489e-09
-1.06463e-10
3.32288e-09
-1.03724e-10
3.34016e-09
-1.00863e-10
3.35691e-09
-9.79053e-11
3.37292e-09
-9.48773e-11
3.38841e-09
-9.1802e-11
3.40315e-09
-8.87014e-11
3.4174e-09
-8.55947e-11
3.4309e-09
-8.25e-11
3.44395e-09
-7.94326e-11
3.45627e-09
-7.64071e-11
3.46818e-09
-7.34347e-11
3.47939e-09
-7.05269e-11
3.49023e-09
-6.76915e-11
3.50041e-09
-6.49371e-11
3.51028e-09
-6.22685e-11
3.5195e-09
-5.96919e-11
3.52848e-09
-5.72096e-11
3.53685e-09
-5.48258e-11
3.54503e-09
-5.25404e-11
3.55262e-09
-5.03563e-11
3.56008e-09
-4.82715e-11
3.56698e-09
-4.62883e-11
3.57381e-09
-4.44032e-11
3.5801e-09
-4.26184e-11
3.58638e-09
-4.09292e-11
3.59214e-09
-3.93388e-11
3.59795e-09
-3.78416e-11
3.60328e-09
-3.64421e-11
3.60871e-09
-3.51337e-11
3.61369e-09
-3.39219e-11
3.61886e-09
-3.27978e-11
3.62361e-09
-3.17658e-11
3.62865e-09
-3.08119e-11
3.6333e-09
-2.9935e-11
3.63838e-09
-2.91114e-11
3.64308e-09
-2.83276e-11
3.64834e-09
-2.75458e-11
3.65324e-09
-2.67326e-11
3.65879e-09
-2.58319e-11
3.66393e-09
-2.47862e-11
3.66978e-09
-2.35218e-11
3.67507e-09
-2.19582e-11
3.68103e-09
-2.00126e-11
3.68616e-09
-1.75921e-11
3.69179e-09
-1.46212e-11
3.69622e-09
-1.10145e-11
3.70083e-09
-6.72618e-12
3.70379e-09
-1.70386e-12
3.70655e-09
4.0448e-12
3.7072e-09
1.05233e-11
3.70723e-09
1.76692e-11
3.70478e-09
2.54375e-11
3.70135e-09
3.37218e-11
3.6952e-09
4.24417e-11
3.68781e-09
5.14653e-11
3.67762e-09
6.06931e-11
3.66604e-09
6.99858e-11
3.65174e-09
7.92391e-11
3.63602e-09
8.83216e-11
3.61781e-09
9.71358e-11
3.59825e-09
1.0557e-10
3.57655e-09
1.13541e-10
3.55365e-09
1.20964e-10
3.52902e-09
1.27779e-10
3.50341e-09
1.3393e-10
3.47654e-09
1.39381e-10
3.44893e-09
1.44106e-10
3.42053e-09
1.48092e-10
3.39164e-09
1.51343e-10
3.36241e-09
1.53864e-10
3.33291e-09
1.55682e-10
3.30349e-09
1.56818e-10
3.27399e-09
1.57316e-10
3.24491e-09
1.57208e-10
3.21593e-09
1.56546e-10
3.18764e-09
1.5537e-10
3.15958e-09
1.53739e-10
3.13242e-09
1.51692e-10
3.10558e-09
1.4929e-10
3.0798e-09
1.46572e-10
3.05438e-09
1.43595e-10
3.03012e-09
1.40397e-10
3.00625e-09
1.37029e-10
2.98358e-09
1.33527e-10
2.96131e-09
1.29934e-10
2.94025e-09
1.26283e-10
2.91956e-09
1.2261e-10
2.90006e-09
1.18943e-10
2.8809e-09
1.15313e-10
2.86289e-09
1.11741e-10
2.84517e-09
1.08253e-10
2.82853e-09
1.04867e-10
2.81211e-09
1.01602e-10
2.79671e-09
9.84708e-11
2.78147e-09
9.54886e-11
2.76716e-09
9.26646e-11
2.75294e-09
9.00088e-11
2.73958e-09
8.75271e-11
2.72623e-09
8.52258e-11
2.71364e-09
8.31059e-11
2.70112e-09
8.11784e-11
2.68888e-09
7.94024e-11
2.67694e-09
7.79737e-11