/*--------------------------------*- C++ -*----------------------------------*\
  =========                 |
  \\      /  F ield         | OpenFOAM: The Open Source CFD Toolbox
   \\    /   O peration     | Website:  https://openfoam.org
    \\  /    A nd           | Version:  10
     \\/     M anipulation  |
\*---------------------------------------------------------------------------*/
FoamFile
{
    format      ascii;
    class       volVectorField;
    location    "0.027";
    object      U;
}
// * * * * * * * * * * * * * * * * * * * * * * * * * * * * * * * * * * * * * //

dimensions      [0 1 -1 0 0 0 0];

internalField   nonuniform List<vector> 
4000
(
(5.00002 -7.22609e-05 0)
(5.0001 -0.000218989 0)
(5.00033 -0.00036517 0)
(5.00072 -0.000511029 0)
(5.00126 -0.000657194 0)
(5.00194 -0.000803274 0)
(5.00276 -0.000950074 0)
(5.00374 -0.0010971 0)
(5.00485 -0.00124528 0)
(5.00612 -0.00139404 0)
(5.00753 -0.00154438 0)
(5.0091 -0.00169568 0)
(5.01081 -0.00184901 0)
(5.01268 -0.00200376 0)
(5.0147 -0.0021611 0)
(5.01688 -0.00232043 0)
(5.01922 -0.00248297 0)
(5.02172 -0.00264817 0)
(5.02439 -0.00281731 0)
(5.02723 -0.00298986 0)
(5.03024 -0.00316717 0)
(5.03343 -0.00334872 0)
(5.0368 -0.00353593 0)
(5.04036 -0.00372831 0)
(5.04411 -0.00392733 0)
(5.04807 -0.0041325 0)
(5.05223 -0.00434537 0)
(5.0566 -0.00456548 0)
(5.0612 -0.00479439 0)
(5.06603 -0.00503169 0)
(5.0711 -0.00527898 0)
(5.07641 -0.00553587 0)
(5.08199 -0.00580398 0)
(5.08784 -0.00608297 0)
(5.09397 -0.00637447 0)
(5.1004 -0.00667817 0)
(5.10713 -0.00699571 0)
(5.11419 -0.00732683 0)
(5.12158 -0.00767311 0)
(5.12932 -0.00803441 0)
(5.13743 -0.00841223 0)
(5.14592 -0.00880649 0)
(5.15482 -0.00921862 0)
(5.16413 -0.00964864 0)
(5.17387 -0.0100979 0)
(5.18407 -0.0105664 0)
(5.19475 -0.0110553 0)
(5.20593 -0.011565 0)
(5.21762 -0.0120962 0)
(5.22985 -0.0126494 0)
(5.24264 -0.0132252 0)
(5.25601 -0.0138239 0)
(5.27 -0.0144461 0)
(5.28461 -0.015092 0)
(5.29988 -0.0157618 0)
(5.31582 -0.0164558 0)
(5.33248 -0.0171736 0)
(5.34985 -0.0179155 0)
(5.36798 -0.0186805 0)
(5.38688 -0.0194689 0)
(5.40658 -0.0202787 0)
(5.4271 -0.0211103 0)
(5.44845 -0.0219606 0)
(5.47067 -0.0228297 0)
(5.49376 -0.0237135 0)
(5.51774 -0.0246118 0)
(5.54263 -0.0255191 0)
(5.56842 -0.0264348 0)
(5.59514 -0.0273521 0)
(5.62277 -0.0282697 0)
(5.65132 -0.0291794 0)
(5.68077 -0.0300796 0)
(5.71112 -0.0309605 0)
(5.74235 -0.0318202 0)
(5.77442 -0.0326477 0)
(5.8073 -0.033441 0)
(5.84097 -0.0341881 0)
(5.87536 -0.0348873 0)
(5.91042 -0.0355264 0)
(5.94609 -0.0361045 0)
(5.98232 -0.0366094 0)
(6.01901 -0.0370421 0)
(6.05609 -0.0373908 0)
(6.09349 -0.0376589 0)
(6.1311 -0.0378357 0)
(6.16885 -0.0379272 0)
(6.20665 -0.0379243 0)
(6.24439 -0.0378361 0)
(6.28199 -0.0376545 0)
(6.31936 -0.0373918 0)
(6.35643 -0.0370409 0)
(6.39309 -0.0366168 0)
(6.42928 -0.0361131 0)
(6.46493 -0.0355472 0)
(6.49997 -0.0349124 0)
(6.53433 -0.0342283 0)
(6.56798 -0.0334874 0)
(6.60086 -0.0327109 0)
(6.63293 -0.0318901 0)
(6.66415 -0.0310475 0)
(6.69451 -0.0301724 0)
(6.72398 -0.0292887 0)
(6.75256 -0.0283834 0)
(6.78021 -0.0274813 0)
(6.80696 -0.026567 0)
(6.83279 -0.0256663 0)
(6.85772 -0.0247612 0)
(6.88174 -0.0238784 0)
(6.90488 -0.0229973 0)
(6.92715 -0.0221456 0)
(6.94858 -0.0212998 0)
(6.96916 -0.020489 0)
(6.98896 -0.0196867 0)
(7.00795 -0.0189238 0)
(7.0262 -0.0181706 0)
(7.04371 -0.0174596 0)
(7.06053 -0.0167582 0)
(7.07666 -0.016101 0)
(7.09216 -0.0154515 0)
(7.10702 -0.0148469 0)
(7.12129 -0.0142469 0)
(7.13498 -0.0136913 0)
(7.14814 -0.0131353 0)
(7.16076 -0.0126219 0)
(7.17288 -0.0121009 0)
(7.1845 -0.0116186 0)
(7.19566 -0.0111188 0)
(7.20633 -0.0106513 0)
(7.21656 -0.0101528 0)
(7.22629 -0.00967691 0)
(7.23558 -0.00915215 0)
(7.24433 -0.00863666 0)
(7.2526 -0.00804999 0)
(7.26027 -0.00745556 0)
(7.26736 -0.00676369 0)
(7.27375 -0.0060444 0)
(7.27942 -0.00519945 0)
(7.28424 -0.00430698 0)
(7.28816 -0.00326152 0)
(7.29101 -0.00215077 0)
(7.29275 -0.000863491 0)
(7.29317 0.000501971 0)
(7.2922 0.00205888 0)
(7.28966 0.00369631 0)
(7.28545 0.0055271 0)
(7.27941 0.0074288 0)
(7.27141 0.00951142 0)
(7.26135 0.011643 0)
(7.24911 0.0139288 0)
(7.23462 0.0162309 0)
(7.21778 0.0186489 0)
(7.19858 0.021043 0)
(7.17695 0.0235066 0)
(7.15293 0.0259031 0)
(7.12649 0.0283191 0)
(7.09774 0.0306263 0)
(7.06665 0.0329039 0)
(7.03342 0.0350359 0)
(6.99804 0.0370943 0)
(6.96074 0.0389782 0)
(6.92155 0.0407521 0)
(6.88073 0.0423326 0)
(6.83834 0.043776 0)
(6.79466 0.0450175 0)
(6.74974 0.0461049 0)
(6.70388 0.0469919 0)
(6.65714 0.0477174 0)
(6.60982 0.0482529 0)
(6.56197 0.0486281 0)
(6.51387 0.0488306 0)
(6.46558 0.0488814 0)
(6.41733 0.0487817 0)
(6.3692 0.0485442 0)
(6.32139 0.0481819 0)
(6.27395 0.0476993 0)
(6.22705 0.0471188 0)
(6.18074 0.0464376 0)
(6.13514 0.0456855 0)
(6.0903 0.044853 0)
(6.04631 0.0439753 0)
(6.0032 0.0430372 0)
(5.96102 0.0420775 0)
(5.9198 0.0410762 0)
(5.87956 0.0400744 0)
(5.84031 0.039048 0)
(5.80205 0.0380394 0)
(5.76479 0.0370213 0)
(5.72851 0.0360362 0)
(5.69319 0.0350543 0)
(5.6588 0.0341177 0)
(5.62533 0.0331947 0)
(5.59272 0.0323264 0)
(5.56096 0.0314797 0)
(5.52999 0.0306949 0)
(5.49983 0.029937 0)
(5.47022 0.0292451 0)
(5.44188 0.0285887 0)
(5.41238 0.0279777 0)
(5.38928 0.0274919 0)
(5.34837 0.0267261 0)
(5.00002 -0.000216487 0)
(5.00009 -0.000658161 0)
(5.00033 -0.00109634 0)
(5.00071 -0.00153357 0)
(5.00125 -0.00197119 0)
(5.00192 -0.0024092 0)
(5.00275 -0.0028489 0)
(5.00371 -0.00328994 0)
(5.00482 -0.00373377 0)
(5.00608 -0.00417996 0)
(5.00749 -0.00463009 0)
(5.00905 -0.00508374 0)
(5.01076 -0.00554268 0)
(5.01262 -0.00600656 0)
(5.01463 -0.00647735 0)
(5.0168 -0.0069548 0)
(5.01913 -0.00744105 0)
(5.02162 -0.00793596 0)
(5.02427 -0.00844185 0)
(5.02709 -0.00895868 0)
(5.03008 -0.00948892 0)
(5.03325 -0.0100326 0)
(5.0366 -0.0105924 0)
(5.04014 -0.0111685 0)
(5.04387 -0.0117636 0)
(5.04779 -0.0123779 0)
(5.05192 -0.0130145 0)
(5.05626 -0.0136735 0)
(5.06083 -0.0143581 0)
(5.06562 -0.0150686 0)
(5.07065 -0.0158083 0)
(5.07592 -0.0165775 0)
(5.08146 -0.0173796 0)
(5.08726 -0.0182151 0)
(5.09334 -0.0190873 0)
(5.09971 -0.0199968 0)
(5.10639 -0.0209471 0)
(5.11339 -0.0219389 0)
(5.12073 -0.0229754 0)
(5.12841 -0.0240577 0)
(5.13645 -0.0251888 0)
(5.14487 -0.0263699 0)
(5.1537 -0.0276041 0)
(5.16293 -0.0288925 0)
(5.17261 -0.030238 0)
(5.18273 -0.0316419 0)
(5.19333 -0.0331069 0)
(5.20442 -0.0346343 0)
(5.21602 -0.0362264 0)
(5.22817 -0.0378845 0)
(5.24087 -0.0396106 0)
(5.25415 -0.041406 0)
(5.26804 -0.0432718 0)
(5.28256 -0.0452093 0)
(5.29774 -0.0472188 0)
(5.31359 -0.0493012 0)
(5.33015 -0.0514559 0)
(5.34743 -0.0536833 0)
(5.36547 -0.0559812 0)
(5.38428 -0.0583494 0)
(5.4039 -0.060784 0)
(5.42433 -0.0632835 0)
(5.44562 -0.0658422 0)
(5.46777 -0.0684569 0)
(5.4908 -0.0711192 0)
(5.51473 -0.0738243 0)
(5.53959 -0.0765607 0)
(5.56536 -0.0793214 0)
(5.59207 -0.0820914 0)
(5.61972 -0.0848613 0)
(5.6483 -0.0876125 0)
(5.67781 -0.0903334 0)
(5.70825 -0.0930016 0)
(5.73957 -0.0956034 0)
(5.77178 -0.0981137 0)
(5.80482 -0.100517 0)
(5.83867 -0.102787 0)
(5.87327 -0.104908 0)
(5.90857 -0.106853 0)
(5.94451 -0.108607 0)
(5.98102 -0.110146 0)
(6.01802 -0.111459 0)
(6.05543 -0.112523 0)
(6.09316 -0.113334 0)
(6.13113 -0.113875 0)
(6.16923 -0.114149 0)
(6.20738 -0.114143 0)
(6.24547 -0.113869 0)
(6.28342 -0.113319 0)
(6.32112 -0.112514 0)
(6.3585 -0.11145 0)
(6.39546 -0.110154 0)
(6.43193 -0.108626 0)
(6.46783 -0.1069 0)
(6.5031 -0.104977 0)
(6.53767 -0.102893 0)
(6.5715 -0.100652 0)
(6.60452 -0.0982899 0)
(6.63672 -0.0958094 0)
(6.66804 -0.0932498 0)
(6.69848 -0.0906092 0)
(6.728 -0.0879279 0)
(6.75661 -0.0852001 0)
(6.78427 -0.0824661 0)
(6.81101 -0.0797158 0)
(6.83681 -0.076989 0)
(6.8617 -0.074271 0)
(6.88566 -0.0716013 0)
(6.90874 -0.06896 0)
(6.93093 -0.0663869 0)
(6.95227 -0.0638569 0)
(6.97276 -0.06141 0)
(6.99246 -0.0590162 0)
(7.01135 -0.0567164 0)
(7.0295 -0.0544754 0)
(7.04691 -0.0523352 0)
(7.06362 -0.0502554 0)
(7.07966 -0.0482797 0)
(7.09505 -0.0463621 0)
(7.10982 -0.0445485 0)
(7.12402 -0.0427867 0)
(7.13764 -0.0411249 0)
(7.15073 -0.039504 0)
(7.16331 -0.0379749 0)
(7.17541 -0.0364697 0)
(7.18702 -0.0350419 0)
(7.1982 -0.0336136 0)
(7.20892 -0.0322397 0)
(7.21923 -0.0308306 0)
(7.22909 -0.0294425 0)
(7.23854 -0.027972 0)
(7.24751 -0.0264763 0)
(7.25604 -0.0248377 0)
(7.26404 -0.0231147 0)
(7.27152 -0.021176 0)
(7.27837 -0.019084 0)
(7.28456 -0.0166962 0)
(7.28996 -0.0140827 0)
(7.29453 -0.0110944 0)
(7.29809 -0.00781315 0)
(7.30057 -0.00408727 0)
(7.30178 -1.76979e-05 0)
(7.30163 0.00453845 0)
(7.29992 0.00945627 0)
(7.29654 0.0148644 0)
(7.2913 0.020612 0)
(7.2841 0.0268101 0)
(7.27478 0.0332835 0)
(7.26324 0.0401254 0)
(7.24937 0.0471418 0)
(7.23308 0.0544096 0)
(7.21435 0.0617248 0)
(7.19311 0.0691519 0)
(7.16939 0.0764866 0)
(7.14316 0.0837854 0)
(7.11453 0.0908534 0)
(7.0835 0.0977429 0)
(7.05023 0.104277 0)
(7.01476 0.110507 0)
(6.9773 0.116281 0)
(6.93792 0.12165 0)
(6.89685 0.126492 0)
(6.85419 0.130859 0)
(6.81021 0.134659 0)
(6.76499 0.137946 0)
(6.71881 0.140657 0)
(6.67178 0.142846 0)
(6.62416 0.14448 0)
(6.57605 0.145607 0)
(6.5277 0.146222 0)
(6.4792 0.146369 0)
(6.43077 0.146062 0)
(6.38251 0.14534 0)
(6.33459 0.144235 0)
(6.2871 0.142777 0)
(6.24017 0.141011 0)
(6.19389 0.138959 0)
(6.14835 0.136677 0)
(6.10361 0.134176 0)
(6.05975 0.131518 0)
(6.01681 0.128707 0)
(5.97483 0.125808 0)
(5.93384 0.122816 0)
(5.89385 0.119796 0)
(5.85488 0.116737 0)
(5.81692 0.113704 0)
(5.77997 0.110678 0)
(5.74401 0.107723 0)
(5.70902 0.104814 0)
(5.67497 0.102011 0)
(5.64183 0.0992854 0)
(5.60957 0.0966943 0)
(5.57815 0.094204 0)
(5.5475 0.0918686 0)
(5.51767 0.0896501 0)
(5.48837 0.0875981 0)
(5.46032 0.0856834 0)
(5.43115 0.0838934 0)
(5.40831 0.0824481 0)
(5.36775 0.0802467 0)
(5.00002 -0.000360242 0)
(5.00009 -0.00109722 0)
(5.00033 -0.00182638 0)
(5.00071 -0.00255399 0)
(5.00124 -0.00328166 0)
(5.00191 -0.00401059 0)
(5.00273 -0.0047417 0)
(5.00369 -0.00547557 0)
(5.0048 -0.00621313 0)
(5.00605 -0.00695507 0)
(5.00745 -0.00770247 0)
(5.00899 -0.00845621 0)
(5.01069 -0.00921761 0)
(5.01253 -0.00998776 0)
(5.01453 -0.0107682 0)
(5.01668 -0.0115604 0)
(5.01898 -0.012366 0)
(5.02144 -0.0131866 0)
(5.02407 -0.0140243 0)
(5.02685 -0.0148808 0)
(5.02981 -0.0157585 0)
(5.03294 -0.0166593 0)
(5.03625 -0.0175858 0)
(5.03973 -0.01854 0)
(5.04341 -0.0195247 0)
(5.04728 -0.0205423 0)
(5.05135 -0.0215957 0)
(5.05563 -0.0226874 0)
(5.06012 -0.0238204 0)
(5.06484 -0.0249976 0)
(5.06979 -0.0262221 0)
(5.07499 -0.0274967 0)
(5.08043 -0.0288249 0)
(5.08614 -0.0302097 0)
(5.09212 -0.0316545 0)
(5.0984 -0.0331625 0)
(5.10497 -0.0347373 0)
(5.11185 -0.036382 0)
(5.11906 -0.0381005 0)
(5.12662 -0.039896 0)
(5.13453 -0.0417722 0)
(5.14282 -0.0437324 0)
(5.1515 -0.0457804 0)
(5.16059 -0.0479196 0)
(5.17011 -0.0501536 0)
(5.18007 -0.0524856 0)
(5.19051 -0.0549193 0)
(5.20143 -0.0574577 0)
(5.21286 -0.0601042 0)
(5.22483 -0.0628616 0)
(5.23735 -0.0657328 0)
(5.25045 -0.0687204 0)
(5.26415 -0.0718266 0)
(5.27848 -0.0750533 0)
(5.29346 -0.078402 0)
(5.30912 -0.0818735 0)
(5.32549 -0.0854681 0)
(5.34258 -0.0891854 0)
(5.36043 -0.0930241 0)
(5.37907 -0.0969818 0)
(5.39851 -0.101055 0)
(5.41878 -0.105239 0)
(5.43991 -0.109528 0)
(5.46193 -0.113913 0)
(5.48484 -0.118385 0)
(5.50868 -0.122932 0)
(5.53346 -0.12754 0)
(5.55919 -0.132191 0)
(5.58589 -0.136868 0)
(5.61357 -0.141548 0)
(5.64222 -0.146206 0)
(5.67185 -0.150816 0)
(5.70244 -0.155347 0)
(5.73399 -0.159769 0)
(5.76646 -0.164045 0)
(5.79984 -0.168141 0)
(5.83407 -0.172018 0)
(5.86911 -0.175641 0)
(5.90492 -0.178972 0)
(5.94141 -0.181975 0)
(5.97852 -0.184615 0)
(6.01616 -0.186864 0)
(6.05426 -0.188693 0)
(6.0927 -0.190081 0)
(6.13141 -0.191012 0)
(6.17025 -0.191475 0)
(6.20915 -0.191465 0)
(6.24798 -0.190985 0)
(6.28666 -0.190042 0)
(6.32506 -0.18865 0)
(6.36311 -0.186826 0)
(6.40071 -0.184595 0)
(6.43777 -0.181982 0)
(6.47421 -0.17902 0)
(6.50997 -0.175738 0)
(6.54498 -0.172172 0)
(6.57919 -0.168354 0)
(6.61254 -0.164324 0)
(6.64501 -0.16011 0)
(6.67656 -0.155752 0)
(6.70717 -0.151278 0)
(6.73681 -0.146723 0)
(6.76549 -0.142113 0)
(6.79319 -0.137479 0)
(6.81993 -0.132841 0)
(6.84569 -0.128228 0)
(6.8705 -0.123656 0)
(6.89437 -0.119149 0)
(6.91732 -0.114717 0)
(6.93936 -0.11038 0)
(6.96054 -0.106145 0)
(6.98085 -0.10203 0)
(7.00034 -0.0980335 0)
(7.01903 -0.0941723 0)
(7.03697 -0.0904421 0)
(7.05415 -0.0868558 0)
(7.07064 -0.0834053 0)
(7.08645 -0.0801018 0)
(7.10162 -0.0769329 0)
(7.11617 -0.0739084 0)
(7.13016 -0.0710116 0)
(7.14357 -0.0682509 0)
(7.15648 -0.0656043 0)
(7.16888 -0.063078 0)
(7.18083 -0.0606438 0)
(7.19232 -0.0583043 0)
(7.20341 -0.0560228 0)
(7.21408 -0.0537961 0)
(7.22438 -0.0515773 0)
(7.23429 -0.0493539 0)
(7.24386 -0.047067 0)
(7.25302 -0.0446923 0)
(7.26183 -0.0421585 0)
(7.27019 -0.039428 0)
(7.27813 -0.0364194 0)
(7.28554 -0.0330836 0)
(7.29241 -0.029334 0)
(7.29858 -0.025116 0)
(7.30401 -0.0203471 0)
(7.30852 -0.0149747 0)
(7.31202 -0.00892884 0)
(7.31431 -0.00217413 0)
(7.31525 0.00532737 0)
(7.31464 0.0135841 0)
(7.31233 0.022594 0)
(7.30812 0.032329 0)
(7.30184 0.0427454 0)
(7.29334 0.0537771 0)
(7.28248 0.065343 0)
(7.26914 0.0773443 0)
(7.25321 0.0896727 0)
(7.23466 0.102207 0)
(7.2134 0.114824 0)
(7.18948 0.127393 0)
(7.16286 0.139791 0)
(7.13367 0.151887 0)
(7.1019 0.163573 0)
(7.06775 0.174729 0)
(7.03127 0.185266 0)
(6.99268 0.195089 0)
(6.95207 0.204133 0)
(6.90972 0.212327 0)
(6.86572 0.219639 0)
(6.82036 0.226024 0)
(6.77377 0.231476 0)
(6.72623 0.235979 0)
(6.67787 0.239553 0)
(6.62897 0.242203 0)
(6.57964 0.24397 0)
(6.53014 0.24488 0)
(6.48057 0.244986 0)
(6.43117 0.24433 0)
(6.38203 0.242976 0)
(6.33334 0.240973 0)
(6.28517 0.238389 0)
(6.23769 0.235281 0)
(6.19094 0.231715 0)
(6.14504 0.22775 0)
(6.10004 0.223449 0)
(6.05601 0.21887 0)
(6.01299 0.21407 0)
(5.97103 0.209104 0)
(5.93012 0.204022 0)
(5.8903 0.198875 0)
(5.85156 0.193704 0)
(5.8139 0.188554 0)
(5.7773 0.18346 0)
(5.74175 0.178461 0)
(5.70721 0.173581 0)
(5.67365 0.168856 0)
(5.64103 0.164302 0)
(5.60932 0.159947 0)
(5.57847 0.155802 0)
(5.54842 0.151889 0)
(5.51919 0.148212 0)
(5.49051 0.144786 0)
(5.46307 0.141624 0)
(5.43454 0.138663 0)
(5.41221 0.136251 0)
(5.37259 0.132659 0)
(5.00002 -0.000503275 0)
(5.00009 -0.00153394 0)
(5.00032 -0.00255268 0)
(5.0007 -0.00356895 0)
(5.00123 -0.00458498 0)
(5.0019 -0.00560256 0)
(5.00271 -0.00662274 0)
(5.00366 -0.00764641 0)
(5.00476 -0.0086746 0)
(5.006 -0.00970839 0)
(5.00738 -0.0107491 0)
(5.00891 -0.0117981 0)
(5.01059 -0.012857 0)
(5.01241 -0.0139277 0)
(5.01438 -0.015012 0)
(5.0165 -0.0161121 0)
(5.01877 -0.0172302 0)
(5.02119 -0.0183689 0)
(5.02377 -0.0195307 0)
(5.02651 -0.0207184 0)
(5.02942 -0.021935 0)
(5.03249 -0.0231836 0)
(5.03573 -0.0244673 0)
(5.03915 -0.0257895 0)
(5.04275 -0.0271537 0)
(5.04654 -0.0285637 0)
(5.05052 -0.030023 0)
(5.0547 -0.0315357 0)
(5.05909 -0.0331058 0)
(5.0637 -0.0347373 0)
(5.06854 -0.0364345 0)
(5.07361 -0.0382017 0)
(5.07892 -0.0400434 0)
(5.08449 -0.0419641 0)
(5.09033 -0.0439685 0)
(5.09644 -0.0460611 0)
(5.10285 -0.0482469 0)
(5.10956 -0.0505306 0)
(5.11659 -0.0529172 0)
(5.12396 -0.0554115 0)
(5.13168 -0.0580188 0)
(5.13976 -0.0607438 0)
(5.14823 -0.0635917 0)
(5.15709 -0.0665675 0)
(5.16638 -0.0696763 0)
(5.17611 -0.0729228 0)
(5.1863 -0.0763121 0)
(5.19697 -0.079849 0)
(5.20814 -0.0835379 0)
(5.21983 -0.0873835 0)
(5.23208 -0.0913898 0)
(5.2449 -0.0955609 0)
(5.25832 -0.0999001 0)
(5.27236 -0.104411 0)
(5.28705 -0.109095 0)
(5.30241 -0.113955 0)
(5.31848 -0.118992 0)
(5.33528 -0.124205 0)
(5.35285 -0.129594 0)
(5.3712 -0.135156 0)
(5.39037 -0.140888 0)
(5.41038 -0.146784 0)
(5.43127 -0.152835 0)
(5.45307 -0.159032 0)
(5.47579 -0.165361 0)
(5.49946 -0.171808 0)
(5.52411 -0.178354 0)
(5.54976 -0.184974 0)
(5.57643 -0.191645 0)
(5.60413 -0.198334 0)
(5.63286 -0.205007 0)
(5.66265 -0.211627 0)
(5.69347 -0.218148 0)
(5.72533 -0.224526 0)
(5.7582 -0.230709 0)
(5.79206 -0.236645 0)
(5.82687 -0.242277 0)
(5.86259 -0.247549 0)
(5.89915 -0.252404 0)
(5.93649 -0.256788 0)
(5.97453 -0.260649 0)
(6.01318 -0.263939 0)
(6.05233 -0.266616 0)
(6.09189 -0.268648 0)
(6.13173 -0.270008 0)
(6.17174 -0.270681 0)
(6.2118 -0.270659 0)
(6.25179 -0.269947 0)
(6.29159 -0.268556 0)
(6.33108 -0.266508 0)
(6.37017 -0.263833 0)
(6.40873 -0.260567 0)
(6.4467 -0.25675 0)
(6.48396 -0.25243 0)
(6.52047 -0.247655 0)
(6.55614 -0.242476 0)
(6.59092 -0.236945 0)
(6.62476 -0.231115 0)
(6.65764 -0.225036 0)
(6.68951 -0.218758 0)
(6.72036 -0.212327 0)
(6.75018 -0.205791 0)
(6.77896 -0.199188 0)
(6.8067 -0.192561 0)
(6.83341 -0.185943 0)
(6.8591 -0.179367 0)
(6.88379 -0.172862 0)
(6.90748 -0.166456 0)
(6.93023 -0.160168 0)
(6.95203 -0.154022 0)
(6.97294 -0.148031 0)
(6.99296 -0.142212 0)
(7.01214 -0.136574 0)
(7.03051 -0.131129 0)
(7.0481 -0.125881 0)
(7.06495 -0.120838 0)
(7.08109 -0.115998 0)
(7.09654 -0.111368 0)
(7.11137 -0.106941 0)
(7.12558 -0.102721 0)
(7.13923 -0.0986946 0)
(7.15233 -0.0948664 0)
(7.16493 -0.0912168 0)
(7.17705 -0.0877468 0)
(7.18875 -0.0844297 0)
(7.20002 -0.0812614 0)
(7.21094 -0.0782052 0)
(7.22149 -0.0752479 0)
(7.23175 -0.0723391 0)
(7.2417 -0.0694507 0)
(7.25139 -0.0665155 0)
(7.26081 -0.0634846 0)
(7.26999 -0.060272 0)
(7.27887 -0.0568039 0)
(7.2875 -0.0529778 0)
(7.29575 -0.0486954 0)
(7.30363 -0.0438449 0)
(7.311 -0.038312 0)
(7.31778 -0.0319891 0)
(7.3238 -0.0247588 0)
(7.32893 -0.0165378 0)
(7.33293 -0.00722554 0)
(7.33565 0.00320773 0)
(7.33681 0.0148176 0)
(7.33623 0.0275713 0)
(7.33365 0.0414652 0)
(7.32886 0.0563967 0)
(7.32166 0.0723014 0)
(7.31186 0.0890158 0)
(7.29932 0.106424 0)
(7.28389 0.12432 0)
(7.26553 0.142553 0)
(7.24414 0.160898 0)
(7.21977 0.179187 0)
(7.19238 0.1972 0)
(7.16211 0.214771 0)
(7.12898 0.231704 0)
(7.09322 0.24785 0)
(7.05488 0.263051 0)
(7.01425 0.277187 0)
(6.97144 0.290148 0)
(6.92676 0.301849 0)
(6.88034 0.312227 0)
(6.83252 0.321238 0)
(6.78344 0.328867 0)
(6.73343 0.335103 0)
(6.68264 0.339973 0)
(6.63138 0.343498 0)
(6.57978 0.345738 0)
(6.52813 0.346738 0)
(6.47655 0.346583 0)
(6.42527 0.345334 0)
(6.37441 0.34309 0)
(6.32415 0.339925 0)
(6.27458 0.335944 0)
(6.22586 0.331225 0)
(6.17804 0.325874 0)
(6.13123 0.319968 0)
(6.08548 0.313609 0)
(6.04086 0.30687 0)
(5.99739 0.299844 0)
(5.95511 0.2926 0)
(5.91402 0.285219 0)
(5.87413 0.277762 0)
(5.83544 0.2703 0)
(5.79793 0.262883 0)
(5.76158 0.255571 0)
(5.72636 0.248408 0)
(5.69222 0.241439 0)
(5.65913 0.2347 0)
(5.62705 0.228227 0)
(5.59592 0.222046 0)
(5.56569 0.216182 0)
(5.5363 0.210654 0)
(5.50775 0.205479 0)
(5.47978 0.200663 0)
(5.45304 0.196236 0)
(5.42528 0.192102 0)
(5.40354 0.18874 0)
(5.36501 0.183772 0)
(5.00002 -0.000645377 0)
(5.00009 -0.00196763 0)
(5.00032 -0.00327387 0)
(5.0007 -0.00457649 0)
(5.00122 -0.00587828 0)
(5.00189 -0.00718144 0)
(5.00269 -0.00848717 0)
(5.00363 -0.00979652 0)
(5.00472 -0.0111107 0)
(5.00594 -0.0124311 0)
(5.00731 -0.0137592 0)
(5.00882 -0.0150969 0)
(5.01047 -0.0164462 0)
(5.01226 -0.0178095 0)
(5.0142 -0.0191891 0)
(5.01628 -0.0205879 0)
(5.0185 -0.0220088 0)
(5.02088 -0.023455 0)
(5.0234 -0.0249299 0)
(5.02608 -0.026437 0)
(5.02892 -0.0279803 0)
(5.03191 -0.0295636 0)
(5.03507 -0.0311912 0)
(5.0384 -0.0328674 0)
(5.0419 -0.0345968 0)
(5.04558 -0.036384 0)
(5.04944 -0.0382341 0)
(5.0535 -0.0401518 0)
(5.05776 -0.0421426 0)
(5.06222 -0.0442116 0)
(5.0669 -0.0463645 0)
(5.07181 -0.0486067 0)
(5.07695 -0.0509441 0)
(5.08233 -0.0533824 0)
(5.08797 -0.0559278 0)
(5.09388 -0.0585861 0)
(5.10007 -0.0613639 0)
(5.10656 -0.0642671 0)
(5.11335 -0.0673024 0)
(5.12046 -0.0704761 0)
(5.12792 -0.0737947 0)
(5.13573 -0.0772647 0)
(5.14391 -0.080893 0)
(5.15248 -0.0846858 0)
(5.16146 -0.0886501 0)
(5.17087 -0.0927922 0)
(5.18073 -0.0971187 0)
(5.19105 -0.101636 0)
(5.20187 -0.10635 0)
(5.21321 -0.111268 0)
(5.22508 -0.116395 0)
(5.23752 -0.121736 0)
(5.25055 -0.127297 0)
(5.2642 -0.133083 0)
(5.27849 -0.139097 0)
(5.29345 -0.145343 0)
(5.30912 -0.151822 0)
(5.32552 -0.158538 0)
(5.34268 -0.165489 0)
(5.36064 -0.172673 0)
(5.37942 -0.180089 0)
(5.39907 -0.187728 0)
(5.41961 -0.195585 0)
(5.44108 -0.203647 0)
(5.4635 -0.2119 0)
(5.48693 -0.220325 0)
(5.51137 -0.2289 0)
(5.53687 -0.237598 0)
(5.56345 -0.246385 0)
(5.59114 -0.255223 0)
(5.61995 -0.264068 0)
(5.6499 -0.272868 0)
(5.681 -0.281568 0)
(5.71324 -0.290102 0)
(5.74663 -0.298403 0)
(5.78113 -0.306396 0)
(5.81671 -0.314004 0)
(5.85334 -0.321145 0)
(5.89094 -0.327739 0)
(5.92945 -0.333707 0)
(5.96878 -0.338971 0)
(6.00883 -0.343462 0)
(6.04947 -0.347119 0)
(6.09059 -0.349893 0)
(6.13204 -0.351745 0)
(6.17369 -0.352652 0)
(6.21539 -0.352606 0)
(6.257 -0.351613 0)
(6.29838 -0.349691 0)
(6.33939 -0.346874 0)
(6.37991 -0.343204 0)
(6.41983 -0.338737 0)
(6.45903 -0.333532 0)
(6.49742 -0.327656 0)
(6.53494 -0.321179 0)
(6.57149 -0.314176 0)
(6.60703 -0.306719 0)
(6.64152 -0.298881 0)
(6.67492 -0.290733 0)
(6.7072 -0.282343 0)
(6.73835 -0.273774 0)
(6.76837 -0.26509 0)
(6.79726 -0.256342 0)
(6.82502 -0.247585 0)
(6.85167 -0.238863 0)
(6.87723 -0.230219 0)
(6.90173 -0.221687 0)
(6.92518 -0.213304 0)
(6.94763 -0.205093 0)
(6.96909 -0.197083 0)
(6.98962 -0.189289 0)
(7.00924 -0.181733 0)
(7.028 -0.174423 0)
(7.04592 -0.167376 0)
(7.06305 -0.160593 0)
(7.07942 -0.154086 0)
(7.09508 -0.147851 0)
(7.11006 -0.141896 0)
(7.12441 -0.136213 0)
(7.13815 -0.130808 0)
(7.15133 -0.125667 0)
(7.16398 -0.120796 0)
(7.17615 -0.116175 0)
(7.18786 -0.111807 0)
(7.19917 -0.107665 0)
(7.2101 -0.103749 0)
(7.22073 -0.100019 0)
(7.23106 -0.0964647 0)
(7.24118 -0.0930282 0)
(7.25109 -0.0896805 0)
(7.26088 -0.0863381 0)
(7.27053 -0.0829417 0)
(7.28014 -0.079377 0)
(7.28965 -0.075545 0)
(7.29914 -0.0713003 0)
(7.30851 -0.0665006 0)
(7.31778 -0.0609792 0)
(7.32679 -0.0545588 0)
(7.3355 -0.0470725 0)
(7.34367 -0.0383313 0)
(7.35117 -0.0281998 0)
(7.3577 -0.0165083 0)
(7.36304 -0.00319953 0)
(7.36686 0.0118211 0)
(7.36888 0.0285151 0)
(7.36876 0.0468841 0)
(7.36624 0.0667785 0)
(7.361 0.0881047 0)
(7.35283 0.110619 0)
(7.34151 0.13415 0)
(7.32686 0.158392 0)
(7.30882 0.183123 0)
(7.28727 0.208015 0)
(7.26226 0.232824 0)
(7.23377 0.257231 0)
(7.20195 0.281002 0)
(7.16687 0.303855 0)
(7.12877 0.325585 0)
(7.08777 0.345969 0)
(7.0442 0.364847 0)
(6.99822 0.382066 0)
(6.9502 0.397519 0)
(6.90033 0.411125 0)
(6.84898 0.422831 0)
(6.79635 0.432625 0)
(6.74282 0.440505 0)
(6.68859 0.446517 0)
(6.63398 0.4507 0)
(6.57918 0.453146 0)
(6.52448 0.453926 0)
(6.47004 0.453163 0)
(6.41611 0.450949 0)
(6.36281 0.447426 0)
(6.31034 0.442696 0)
(6.25878 0.43691 0)
(6.2083 0.430174 0)
(6.15895 0.422635 0)
(6.11083 0.414397 0)
(6.06399 0.405599 0)
(6.01848 0.396338 0)
(5.97432 0.38674 0)
(5.93153 0.376893 0)
(5.89011 0.366907 0)
(5.85006 0.356859 0)
(5.81135 0.346842 0)
(5.77396 0.336922 0)
(5.73785 0.327175 0)
(5.70298 0.317655 0)
(5.6693 0.308424 0)
(5.63676 0.299522 0)
(5.6053 0.290996 0)
(5.57485 0.282878 0)
(5.54536 0.275201 0)
(5.51676 0.267984 0)
(5.48903 0.26125 0)
(5.46191 0.255005 0)
(5.43602 0.249285 0)
(5.40917 0.243968 0)
(5.38814 0.239659 0)
(5.35094 0.233343 0)
(5.00002 -0.000786657 0)
(5.00009 -0.00239848 0)
(5.00032 -0.00399019 0)
(5.00069 -0.00557686 0)
(5.00121 -0.00716169 0)
(5.00187 -0.00874711 0)
(5.00267 -0.0103344 0)
(5.0036 -0.0119247 0)
(5.00468 -0.0135194 0)
(5.00589 -0.01512 0)
(5.00724 -0.0167284 0)
(5.00872 -0.0183467 0)
(5.01034 -0.0199775 0)
(5.0121 -0.0216234 0)
(5.014 -0.0232876 0)
(5.01603 -0.0249734 0)
(5.01821 -0.0266845 0)
(5.02052 -0.0284249 0)
(5.02298 -0.0301986 0)
(5.02559 -0.0320102 0)
(5.02834 -0.0338644 0)
(5.03124 -0.035766 0)
(5.0343 -0.0377203 0)
(5.03751 -0.0397326 0)
(5.04089 -0.0418085 0)
(5.04444 -0.0439538 0)
(5.04816 -0.0461746 0)
(5.05206 -0.0484769 0)
(5.05615 -0.0508673 0)
(5.06043 -0.0533522 0)
(5.06492 -0.0559385 0)
(5.06962 -0.0586329 0)
(5.07455 -0.0614427 0)
(5.0797 -0.064375 0)
(5.0851 -0.0674372 0)
(5.09075 -0.0706368 0)
(5.09667 -0.0739815 0)
(5.10287 -0.0774791 0)
(5.10937 -0.0811375 0)
(5.11617 -0.0849646 0)
(5.12329 -0.0889686 0)
(5.13076 -0.0931576 0)
(5.13859 -0.09754 0)
(5.14679 -0.102124 0)
(5.15538 -0.106918 0)
(5.16439 -0.11193 0)
(5.17383 -0.117168 0)
(5.18373 -0.122641 0)
(5.1941 -0.128357 0)
(5.20498 -0.134324 0)
(5.21639 -0.14055 0)
(5.22834 -0.147042 0)
(5.24088 -0.153807 0)
(5.25402 -0.160852 0)
(5.2678 -0.168183 0)
(5.28224 -0.175807 0)
(5.29739 -0.183726 0)
(5.31326 -0.191945 0)
(5.32989 -0.200465 0)
(5.34733 -0.209288 0)
(5.3656 -0.218411 0)
(5.38475 -0.227831 0)
(5.40481 -0.23754 0)
(5.42582 -0.247527 0)
(5.44783 -0.25778 0)
(5.47088 -0.268277 0)
(5.495 -0.278996 0)
(5.52025 -0.289904 0)
(5.54666 -0.300965 0)
(5.57426 -0.312132 0)
(5.6031 -0.323352 0)
(5.63319 -0.334563 0)
(5.66458 -0.345692 0)
(5.69726 -0.356657 0)
(5.73124 -0.367368 0)
(5.76652 -0.377726 0)
(5.80307 -0.387624 0)
(5.84084 -0.396951 0)
(5.87979 -0.405593 0)
(5.91983 -0.413437 0)
(5.96086 -0.420373 0)
(6.00276 -0.4263 0)
(6.0454 -0.431131 0)
(6.0886 -0.434792 0)
(6.13222 -0.43723 0)
(6.17607 -0.438413 0)
(6.21998 -0.438329 0)
(6.26376 -0.436989 0)
(6.30725 -0.434423 0)
(6.35029 -0.430679 0)
(6.39272 -0.425821 0)
(6.4344 -0.419925 0)
(6.47523 -0.413078 0)
(6.51508 -0.405374 0)
(6.55389 -0.396909 0)
(6.59157 -0.387785 0)
(6.62807 -0.378102 0)
(6.66335 -0.367958 0)
(6.69738 -0.357448 0)
(6.73015 -0.346664 0)
(6.76165 -0.335688 0)
(6.79188 -0.324601 0)
(6.82086 -0.313473 0)
(6.84861 -0.302371 0)
(6.87515 -0.291352 0)
(6.90051 -0.280468 0)
(6.92473 -0.269763 0)
(6.94784 -0.259278 0)
(6.96988 -0.249042 0)
(6.99089 -0.239087 0)
(7.01093 -0.22943 0)
(7.03002 -0.220093 0)
(7.04821 -0.211087 0)
(7.06554 -0.202425 0)
(7.08207 -0.194109 0)
(7.09783 -0.186149 0)
(7.11287 -0.178539 0)
(7.12723 -0.171287 0)
(7.14094 -0.164382 0)
(7.15406 -0.15783 0)
(7.16662 -0.151617 0)
(7.17865 -0.145751 0)
(7.19021 -0.140211 0)
(7.20134 -0.135011 0)
(7.21208 -0.130122 0)
(7.22248 -0.125558 0)
(7.23262 -0.121279 0)
(7.24252 -0.117291 0)
(7.2523 -0.113534 0)
(7.26198 -0.10999 0)
(7.27169 -0.106566 0)
(7.28146 -0.103202 0)
(7.29141 -0.0997544 0)
(7.30156 -0.096102 0)
(7.312 -0.0920471 0)
(7.3227 -0.0873926 0)
(7.3337 -0.0818937 0)
(7.34486 -0.0752869 0)
(7.35614 -0.0673101 0)
(7.36727 -0.0576697 0)
(7.37809 -0.0461349 0)
(7.38822 -0.0324427 0)
(7.39733 -0.016457 0)
(7.40499 0.00196481 0)
(7.41081 0.0227916 0)
(7.41429 0.046031 0)
(7.41507 0.0714731 0)
(7.41272 0.0989753 0)
(7.40692 0.128186 0)
(7.39739 0.158848 0)
(7.38391 0.190523 0)
(7.36635 0.222886 0)
(7.3446 0.255472 0)
(7.31872 0.287935 0)
(7.28869 0.319829 0)
(7.25473 0.350826 0)
(7.21693 0.380543 0)
(7.17561 0.408699 0)
(7.13095 0.434996 0)
(7.08335 0.459222 0)
(7.03305 0.481181 0)
(6.98049 0.500738 0)
(6.92594 0.5178 0)
(6.86985 0.532309 0)
(6.81248 0.544267 0)
(6.75428 0.553684 0)
(6.69548 0.56064 0)
(6.63649 0.565203 0)
(6.5775 0.56751 0)
(6.51886 0.567667 0)
(6.46075 0.565851 0)
(6.40342 0.562193 0)
(6.34703 0.55689 0)
(6.29177 0.550083 0)
(6.23773 0.541973 0)
(6.18508 0.532704 0)
(6.13385 0.522471 0)
(6.08415 0.511409 0)
(6.03601 0.499698 0)
(5.98946 0.487463 0)
(5.94451 0.474866 0)
(5.90117 0.462016 0)
(5.85943 0.449051 0)
(5.81925 0.436068 0)
(5.7806 0.423181 0)
(5.74344 0.410471 0)
(5.70771 0.398031 0)
(5.67336 0.385926 0)
(5.64032 0.374227 0)
(5.60852 0.362987 0)
(5.57789 0.352258 0)
(5.54836 0.342077 0)
(5.51985 0.332482 0)
(5.49227 0.323495 0)
(5.46561 0.315143 0)
(5.43959 0.307429 0)
(5.4148 0.300396 0)
(5.38912 0.293893 0)
(5.36899 0.288647 0)
(5.33348 0.281033 0)
(5.00002 -0.00092741 0)
(5.00009 -0.00282731 0)
(5.00032 -0.00470291 0)
(5.00069 -0.00657164 0)
(5.00121 -0.00843692 0)
(5.00187 -0.0103012 0)
(5.00266 -0.0121658 0)
(5.00359 -0.0140319 0)
(5.00465 -0.0159007 0)
(5.00584 -0.017774 0)
(5.00717 -0.019654 0)
(5.00864 -0.0215431 0)
(5.01023 -0.0234442 0)
(5.01195 -0.0253606 0)
(5.01381 -0.027296 0)
(5.01579 -0.0292544 0)
(5.01791 -0.0312402 0)
(5.02016 -0.033258 0)
(5.02254 -0.035313 0)
(5.02506 -0.0374105 0)
(5.02771 -0.039556 0)
(5.03051 -0.0417554 0)
(5.03344 -0.044015 0)
(5.03653 -0.0463412 0)
(5.03976 -0.0487406 0)
(5.04315 -0.0512201 0)
(5.0467 -0.053787 0)
(5.05042 -0.0564485 0)
(5.05431 -0.0592124 0)
(5.05839 -0.0620863 0)
(5.06265 -0.0650784 0)
(5.06711 -0.0681968 0)
(5.07177 -0.0714502 0)
(5.07665 -0.0748469 0)
(5.08176 -0.0783959 0)
(5.08711 -0.082106 0)
(5.09271 -0.0859866 0)
(5.09857 -0.0900469 0)
(5.1047 -0.0942963 0)
(5.11113 -0.0987445 0)
(5.11786 -0.103401 0)
(5.12492 -0.108276 0)
(5.13232 -0.11338 0)
(5.14007 -0.118721 0)
(5.1482 -0.124311 0)
(5.15672 -0.13016 0)
(5.16566 -0.136278 0)
(5.17504 -0.142674 0)
(5.18488 -0.14936 0)
(5.1952 -0.156346 0)
(5.20604 -0.16364 0)
(5.2174 -0.171255 0)
(5.22934 -0.179198 0)
(5.24186 -0.187479 0)
(5.255 -0.196107 0)
(5.2688 -0.205091 0)
(5.28329 -0.214437 0)
(5.2985 -0.224154 0)
(5.31447 -0.234245 0)
(5.33123 -0.244715 0)
(5.34884 -0.255565 0)
(5.36733 -0.266796 0)
(5.38675 -0.278403 0)
(5.40715 -0.290378 0)
(5.42858 -0.302711 0)
(5.45109 -0.315384 0)
(5.47474 -0.328374 0)
(5.49958 -0.341649 0)
(5.52567 -0.355171 0)
(5.55306 -0.368887 0)
(5.58181 -0.382739 0)
(5.61198 -0.396652 0)
(5.6436 -0.410539 0)
(5.67671 -0.424298 0)
(5.71135 -0.437814 0)
(5.74751 -0.450956 0)
(5.7852 -0.463583 0)
(5.82437 -0.475539 0)
(5.86499 -0.486666 0)
(5.90696 -0.496802 0)
(5.95017 -0.505789 0)
(5.99447 -0.513481 0)
(6.0397 -0.519749 0)
(6.08565 -0.52449 0)
(6.13212 -0.527629 0)
(6.17887 -0.529122 0)
(6.22568 -0.52896 0)
(6.27231 -0.527164 0)
(6.31856 -0.523783 0)
(6.36423 -0.518892 0)
(6.40913 -0.512585 0)
(6.45311 -0.504972 0)
(6.49602 -0.496174 0)
(6.53775 -0.486321 0)
(6.5782 -0.475541 0)
(6.61729 -0.46397 0)
(6.65499 -0.451736 0)
(6.69123 -0.438966 0)
(6.72602 -0.425781 0)
(6.75933 -0.412295 0)
(6.79118 -0.398613 0)
(6.82158 -0.384835 0)
(6.85057 -0.371048 0)
(6.87817 -0.357335 0)
(6.90442 -0.343764 0)
(6.92937 -0.3304 0)
(6.95308 -0.317296 0)
(6.97558 -0.3045 0)
(6.99693 -0.292049 0)
(7.01719 -0.279977 0)
(7.03642 -0.268305 0)
(7.05466 -0.257057 0)
(7.07197 -0.246243 0)
(7.0884 -0.235877 0)
(7.10401 -0.225958 0)
(7.11883 -0.216493 0)
(7.13294 -0.207474 0)
(7.14636 -0.198904 0)
(7.15915 -0.190769 0)
(7.17134 -0.183073 0)
(7.18299 -0.175799 0)
(7.19411 -0.168958 0)
(7.20478 -0.162528 0)
(7.21501 -0.156531 0)