/*--------------------------------*- C++ -*----------------------------------*\
  =========                 |
  \\      /  F ield         | OpenFOAM: The Open Source CFD Toolbox
   \\    /   O peration     | Website:  https://openfoam.org
    \\  /    A nd           | Version:  10
     \\/     M anipulation  |
\*---------------------------------------------------------------------------*/
FoamFile
{
    format      ascii;
    class       surfaceScalarField;
    location    "17600";
    object      phi;
}
// * * * * * * * * * * * * * * * * * * * * * * * * * * * * * * * * * * * * * //

dimensions      [0 3 -1 0 0 0 0];

internalField   nonuniform List<scalar> 
12640
(
-2.86197e-08
2.86197e-08
-5.82147e-08
2.9595e-08
-8.99295e-08
3.17148e-08
-1.2532e-07
3.53907e-08
-1.66803e-07
4.14824e-08
-2.18632e-07
5.18289e-08
-2.89182e-07
7.05506e-08
-3.91265e-07
1.02083e-07
-4.23771e-07
3.25067e-08
-3.96415e-06
3.54038e-06
-4.00195e-06
3.78027e-08
-3.89872e-06
-1.03236e-07
-3.60676e-06
-2.91962e-07
-3.55356e-06
-5.32015e-08
-3.46494e-06
-8.86195e-08
-3.42798e-06
-3.69565e-08
-3.36512e-06
-6.28633e-08
-3.31985e-06
-4.52641e-08
-3.23113e-06
-8.87221e-08
-3.19415e-06
-3.69766e-08
-3.20402e-06
9.86873e-09
-3.19134e-06
-1.26784e-08
-3.18568e-06
-5.66476e-09
-3.20393e-06
1.82492e-08
-3.19685e-06
-7.07661e-09
-3.17714e-06
-1.97144e-08
-3.14672e-06
-3.04181e-08
-3.10007e-06
-4.665e-08
-3.05396e-06
-4.61044e-08
-2.99642e-06
-5.75406e-08
-2.89729e-06
-9.91297e-08
-2.71921e-06
-1.7808e-07
-2.58507e-06
-1.34139e-07
-2.40534e-06
-1.79734e-07
-2.16766e-06
-2.37685e-07
-1.86186e-06
-3.05795e-07
-1.48332e-06
-3.78543e-07
-1.03575e-06
-4.47572e-07
-5.33223e-07
-5.02523e-07
-1.30175e-18
-5.33223e-07
5.33223e-07
-5.33223e-07
1.03575e-06
-5.02523e-07
1.48332e-06
-4.47572e-07
1.86186e-06
-3.78543e-07
2.16766e-06
-3.05795e-07
2.40534e-06
-2.37685e-07
2.58507e-06
-1.79734e-07
2.71921e-06
-1.34139e-07
2.89729e-06
-1.7808e-07
2.99642e-06
-9.91297e-08
3.05396e-06
-5.75406e-08
3.10007e-06
-4.61044e-08
3.14672e-06
-4.665e-08
3.17714e-06
-3.04181e-08
3.19685e-06
-1.97144e-08
3.20393e-06
-7.07661e-09
3.18568e-06
1.82492e-08
3.19134e-06
-5.66476e-09
3.20402e-06
-1.26784e-08
3.19415e-06
9.86873e-09
3.23113e-06
-3.69766e-08
3.31985e-06
-8.87221e-08
3.36512e-06
-4.52641e-08
3.42798e-06
-6.28633e-08
3.46494e-06
-3.69565e-08
3.55356e-06
-8.86195e-08
3.60676e-06
-5.32015e-08
3.89872e-06
-2.91962e-07
4.00195e-06
-1.03236e-07
3.96415e-06
3.78027e-08
4.23771e-07
3.54038e-06
3.91265e-07
3.25067e-08
2.89182e-07
1.02083e-07
2.18632e-07
7.05506e-08
1.66803e-07
5.18289e-08
1.2532e-07
4.14824e-08
8.99295e-08
3.53907e-08
5.82147e-08
3.17148e-08
2.86197e-08
2.9595e-08
2.86197e-08
-3.13445e-08
5.99642e-08
-6.37506e-08
6.20011e-08
-9.84622e-08
6.64264e-08
-1.37165e-07
7.40933e-08
-1.82462e-07
8.67792e-08
-2.38911e-07
1.08278e-07
-3.15684e-07
1.47324e-07
-4.38179e-07
2.24578e-07
-8.1684e-07
4.11168e-07
-2.17441e-07
2.94098e-06
-3.69977e-06
3.52013e-06
-4.02506e-06
2.22054e-07
-3.77269e-06
-5.44329e-07
-3.75794e-06
-6.79541e-08
-3.67493e-06
-1.7163e-07
-3.64888e-06
-6.30045e-08
-3.58648e-06
-1.25264e-07
-3.54601e-06
-8.57339e-08
-3.4505e-06
-1.84232e-07
-3.41425e-06
-7.32267e-08
-3.43062e-06
2.62379e-08
-3.41779e-06
-2.55098e-08
-3.41277e-06
-1.06868e-08
-3.43622e-06
4.17002e-08
-3.42943e-06
-1.38665e-08
-3.4094e-06
-3.97401e-08
-3.37809e-06
-6.17331e-08
-3.32814e-06
-9.6594e-08
-3.28003e-06
-9.42222e-08
-3.22037e-06
-1.17196e-07
-3.11624e-06
-2.03258e-07
-2.92973e-06
-3.64593e-07
-2.78856e-06
-2.75308e-07
-2.59849e-06
-3.69805e-07
-2.34557e-06
-4.90604e-07
-2.0181e-06
-6.33266e-07
-1.61043e-06
-7.86209e-07
-1.12611e-06
-9.31893e-07
-5.80319e-07
-1.04832e-06
-5.66496e-18
-1.11354e-06
5.80319e-07
-1.11354e-06
1.12611e-06
-1.04832e-06
1.61043e-06
-9.31893e-07
2.0181e-06
-7.86209e-07
2.34557e-06
-6.33266e-07
2.59849e-06
-4.90604e-07
2.78856e-06
-3.69805e-07
2.92973e-06
-2.75308e-07
3.11624e-06
-3.64593e-07
3.22037e-06
-2.03258e-07
3.28003e-06
-1.17196e-07
3.32814e-06
-9.42222e-08
3.37809e-06
-9.6594e-08
3.4094e-06
-6.17331e-08
3.42943e-06
-3.97401e-08
3.43622e-06
-1.38665e-08
3.41277e-06
4.17002e-08
3.41779e-06
-1.06868e-08
3.43062e-06
-2.55098e-08
3.41425e-06
2.62379e-08
3.4505e-06
-7.32267e-08
3.54601e-06
-1.84232e-07
3.58648e-06
-8.57339e-08
3.64888e-06
-1.25264e-07
3.67493e-06
-6.30045e-08
3.75794e-06
-1.7163e-07
3.77269e-06
-6.79541e-08
4.02506e-06
-5.44329e-07
3.69977e-06
2.22054e-07
2.17441e-07
3.52013e-06
8.1684e-07
2.94098e-06
4.38179e-07
4.11168e-07
3.15684e-07
2.24578e-07
2.38911e-07
1.47324e-07
1.82462e-07
1.08278e-07
1.37165e-07
8.67792e-08
9.84622e-08
7.40933e-08
6.37506e-08
6.64264e-08
3.13445e-08
6.20011e-08
5.99642e-08
-3.4263e-08
9.42273e-08
-6.96703e-08
9.74084e-08
-1.07558e-07
1.04314e-07
-1.49721e-07
1.16256e-07
-1.989e-07
1.35958e-07
-2.59812e-07
1.6919e-07
-3.41834e-07
2.29346e-07
-4.69941e-07
3.52685e-07
-7.51349e-07
6.92576e-07
-4.08549e-07
2.59818e-06
-1.08961e-08
3.12248e-06
-1.86949e-06
2.08065e-06
-3.73047e-06
1.31665e-06
-3.94964e-06
1.51212e-07
-3.89805e-06
-2.23221e-07
-3.90086e-06
-6.0194e-08
-3.83944e-06
-1.86681e-07
-3.81096e-06
-1.14207e-07
-3.70117e-06
-2.94026e-07
-3.66643e-06
-1.0797e-07
-3.6954e-06
5.52104e-08
-3.67999e-06
-4.09211e-08
-3.67428e-06
-1.63965e-08
-3.70716e-06
7.45814e-08
-3.69945e-06
-2.15795e-08
-3.67872e-06
-6.04652e-08
-3.64661e-06
-9.3842e-08
-3.5914e-06
-1.5181e-07
-3.54161e-06
-1.44013e-07
-3.4814e-06
-1.77402e-07
-3.37373e-06
-3.10928e-07
-3.18358e-06
-5.54745e-07
-3.03838e-06
-4.20504e-07
-2.84076e-06
-5.6743e-07
-2.57394e-06
-7.57421e-07
-2.22325e-06
-9.83956e-07
-1.78091e-06
-1.22855e-06
-1.24949e-06
-1.46331e-06
-6.45388e-07
-1.65242e-06
-1.13364e-17
-1.75893e-06
6.45388e-07
-1.75893e-06
1.24949e-06
-1.65242e-06
1.78091e-06
-1.46331e-06
2.22325e-06
-1.22855e-06
2.57394e-06
-9.83956e-07
2.84076e-06
-7.57421e-07
3.03838e-06
-5.6743e-07
3.18358e-06
-4.20504e-07
3.37373e-06
-5.54745e-07
3.4814e-06
-3.10928e-07
3.54161e-06
-1.77402e-07
3.5914e-06
-1.44013e-07
3.64661e-06
-1.5181e-07
3.67872e-06
-9.3842e-08
3.69945e-06
-6.04652e-08
3.70716e-06
-2.15795e-08
3.67428e-06
7.45814e-08
3.67999e-06
-1.63965e-08
3.6954e-06
-4.09211e-08
3.66643e-06
5.52104e-08
3.70117e-06
-1.0797e-07
3.81096e-06
-2.94026e-07
3.83944e-06
-1.14207e-07
3.90086e-06
-1.86681e-07
3.89805e-06
-6.0194e-08
3.94964e-06
-2.23221e-07
3.73047e-06
1.51212e-07
1.86949e-06
1.31665e-06
1.08961e-08
2.08065e-06
4.08549e-07
3.12248e-06
7.51349e-07
2.59818e-06
4.69941e-07
6.92576e-07
3.41834e-07
3.52685e-07
2.59812e-07
2.29346e-07
1.989e-07
1.6919e-07
1.49721e-07
1.35958e-07
1.07558e-07
1.16256e-07
6.96703e-08
1.04314e-07
3.4263e-08
9.74084e-08
9.42273e-08
-3.73618e-08
1.31589e-07
-7.59413e-08
1.35988e-07
-1.17151e-07
1.45523e-07
-1.62863e-07
1.61968e-07
-2.15873e-07
1.88968e-07
-2.80831e-07
2.34149e-07
-3.66451e-07
3.14966e-07
-4.92071e-07
4.78304e-07
-6.93061e-07
8.93566e-07
-4.12054e-07
2.31717e-06
-5.82101e-08
2.76864e-06
-4.60681e-08
2.06851e-06
-2.9193e-07
1.56251e-06
-3.14442e-06
3.0037e-06
-3.93014e-06
5.62504e-07
-4.12343e-06
1.33095e-07
-4.09221e-06
-2.17905e-07
-4.10002e-06
-1.06399e-07
-3.96766e-06
-4.26383e-07
-3.93849e-06
-1.37137e-07
-3.99185e-06
1.0857e-07
-3.97005e-06
-6.27196e-08
-3.96174e-06
-2.47104e-08
-4.01183e-06
1.24674e-07
-4.00108e-06
-3.2328e-08
-3.97951e-06
-8.20361e-08
-3.94748e-06
-1.25874e-07
-3.88407e-06
-2.15225e-07
-3.83373e-06
-1.9435e-07
-3.77603e-06
-2.35097e-07
-3.6675e-06
-4.1946e-07
-3.48243e-06
-7.39821e-07
-3.33919e-06
-5.63736e-07
-3.14026e-06
-7.66366e-07
-2.86413e-06
-1.03355e-06
-2.4908e-06
-1.35729e-06
-2.00863e-06
-1.71071e-06
-1.41769e-06
-2.05426e-06
-7.35298e-07
-2.33481e-06
-7.5421e-18
-2.49423e-06
7.35298e-07
-2.49423e-06
1.41769e-06
-2.33481e-06
2.00863e-06
-2.05426e-06
2.4908e-06
-1.71071e-06
2.86413e-06
-1.35729e-06
3.14026e-06
-1.03355e-06
3.33919e-06
-7.66366e-07
3.48243e-06
-5.63736e-07
3.6675e-06
-7.39821e-07
3.77603e-06
-4.1946e-07
3.83373e-06
-2.35097e-07
3.88407e-06
-1.9435e-07
3.94748e-06
-2.15225e-07
3.97951e-06
-1.25874e-07
4.00108e-06
-8.20361e-08
4.01183e-06
-3.2328e-08
3.96174e-06
1.24674e-07
3.97005e-06
-2.47104e-08
3.99185e-06
-6.27196e-08
3.93849e-06
1.0857e-07
3.96766e-06
-1.37137e-07
4.10002e-06
-4.26383e-07
4.09221e-06
-1.06399e-07
4.12343e-06
-2.17905e-07
3.93014e-06
1.33095e-07
3.14442e-06
5.62504e-07
2.9193e-07
3.0037e-06
4.60681e-08
1.56251e-06
5.82101e-08
2.06851e-06
4.12054e-07
2.76864e-06
6.93061e-07
2.31717e-06
4.92071e-07
8.93566e-07
3.66451e-07
4.78304e-07
2.80831e-07
3.14966e-07
2.15873e-07
2.34149e-07
1.62863e-07
1.88968e-07
1.17151e-07
1.61968e-07
7.59413e-08
1.45523e-07
3.73618e-08
1.35988e-07
1.31589e-07
-4.06154e-08
1.72204e-07
-8.25056e-08
1.77878e-07
-1.27133e-07
1.90151e-07
-1.76398e-07
2.11233e-07
-2.33037e-07
2.45607e-07
-3.01337e-07
3.02449e-07
-3.88421e-07
4.02049e-07
-5.05363e-07
5.95246e-07
-6.42399e-07
1.0306e-06
-4.14604e-07
2.08938e-06
-1.21764e-07
2.4758e-06
-9.23868e-08
2.03913e-06
-2.68978e-07
1.73911e-06
2.02712e-07
2.53201e-06
-3.55072e-07
1.12029e-06
-3.33023e-06
3.10826e-06
-4.09563e-06
5.47493e-07
-4.34434e-06
1.42306e-07
-4.21376e-06
-5.56962e-07
-4.21162e-06
-1.39277e-07
-4.31598e-06
2.12934e-07
-4.28249e-06
-9.62119e-08
-4.26907e-06
-3.81301e-08
-4.35148e-06
2.07085e-07
-4.33332e-06
-5.04881e-08
-4.31118e-06
-1.04183e-07
-4.28155e-06
-1.55502e-07
-4.20475e-06
-2.92019e-07
-4.15613e-06
-2.42974e-07
-4.10611e-06
-2.85113e-07
-4.00015e-06
-5.25417e-07
-3.8338e-06
-9.06174e-07
-3.70289e-06
-6.94644e-07
-3.51425e-06
-9.55009e-07
-3.23857e-06
-1.30923e-06
-2.84633e-06
-1.74953e-06
-2.3197e-06
-2.23734e-06
-1.6531e-06
-2.72085e-06
-8.63163e-07
-3.12474e-06
-1.15615e-17
-3.35739e-06
8.63163e-07
-3.35739e-06
1.6531e-06
-3.12474e-06
2.3197e-06
-2.72085e-06
2.84633e-06
-2.23734e-06
3.23857e-06
-1.74953e-06
3.51425e-06
-1.30923e-06
3.70289e-06
-9.55009e-07
3.8338e-06
-6.94644e-07
4.00015e-06
-9.06174e-07
4.10611e-06
-5.25417e-07
4.15613e-06
-2.85113e-07
4.20475e-06
-2.42974e-07
4.28155e-06
-2.92019e-07
4.31118e-06
-1.55502e-07
4.33332e-06
-1.04183e-07
4.35148e-06
-5.04881e-08
4.26907e-06
2.07085e-07
4.28249e-06
-3.81301e-08
4.31598e-06
-9.62119e-08
4.21162e-06
2.12934e-07
4.21376e-06
-1.39277e-07
4.34434e-06
-5.56962e-07
4.09563e-06
1.42306e-07
3.33023e-06
5.47493e-07
3.55072e-07
3.10826e-06
-2.02712e-07
1.12029e-06
2.68978e-07
2.53201e-06
9.23868e-08
1.73911e-06
1.21764e-07
2.03913e-06
4.14604e-07
2.4758e-06
6.42399e-07
2.08938e-06
5.05363e-07
1.0306e-06
3.88421e-07
5.95246e-07
3.01337e-07
4.02049e-07
2.33037e-07
3.02449e-07
1.76398e-07
2.45607e-07
1.27133e-07
2.11233e-07
8.25056e-08
1.90151e-07
4.06154e-08
1.77878e-07
1.72204e-07
-4.39834e-08
2.16188e-07
-8.92728e-08
2.23168e-07
-1.37345e-07
2.38223e-07
-1.90057e-07
2.63946e-07
-2.49944e-07
3.05494e-07
-3.20602e-07
3.73107e-07
-4.06802e-07
4.88249e-07
-5.10968e-07
6.99411e-07
-5.9923e-07
1.11887e-06
-4.16291e-07
1.90644e-06
-1.77012e-07
2.23652e-06
-1.3119e-07
1.99331e-06
-2.16112e-07
1.82403e-06
8.18456e-08
2.23405e-06
-2.79855e-07
1.48199e-06
3.12626e-07
2.51578e-06
-2.3384e-07
1.09396e-06
-2.2318e-06
2.14027e-06
-4.02899e-06
1.24022e-06
-4.34403e-06
1.75771e-07
-4.62542e-06
4.94322e-07
-4.59297e-06
-1.2866e-07
-4.57905e-06
-5.20516e-08
-4.72767e-06
3.55702e-07
-4.6938e-06
-8.43604e-08
-4.67323e-06
-1.2475e-07
-4.65199e-06
-1.76741e-07
-4.55192e-06
-3.92093e-07
-4.50946e-06
-2.85432e-07
-4.47576e-06
-3.18809e-07
-4.3753e-06
-6.25876e-07
-4.24763e-06
-1.03385e-06
-4.1463e-06
-7.9597e-07
-3.98884e-06
-1.11247e-06
-3.73302e-06
-1.56504e-06
-3.33142e-06
-2.15113e-06
-2.75816e-06
-2.81061e-06
-1.99537e-06
-3.48364e-06
-1.05277e-06
-4.06735e-06
-2.16068e-17
-4.41016e-06
1.05277e-06
-4.41016e-06
1.99537e-06
-4.06735e-06
2.75816e-06
-3.48364e-06
3.33142e-06
-2.81061e-06
3.73302e-06
-2.15113e-06
3.98884e-06
-1.56504e-06
4.1463e-06
-1.11247e-06
4.24763e-06
-7.9597e-07
4.3753e-06
-1.03385e-06
4.47576e-06
-6.25876e-07
4.50946e-06
-3.18809e-07
4.55192e-06
-2.85432e-07
4.65199e-06
-3.92093e-07
4.67323e-06
-1.76741e-07
4.6938e-06
-1.2475e-07
4.72767e-06
-8.43604e-08
4.57905e-06
3.55702e-07
4.59297e-06
-5.20516e-08
4.62542e-06
-1.2866e-07
4.34403e-06
4.94322e-07
4.02899e-06
1.75771e-07
2.2318e-06
1.24022e-06
2.3384e-07
2.14027e-06
-3.12626e-07
1.09396e-06
2.79855e-07
2.51578e-06
-8.18456e-08
1.48199e-06
2.16112e-07
2.23405e-06
1.3119e-07
1.82403e-06
1.77012e-07
1.99331e-06
4.16291e-07
2.23652e-06
5.9923e-07
1.90644e-06
5.10968e-07
1.11887e-06
4.06802e-07
6.99411e-07
3.20602e-07
4.88249e-07
2.49944e-07
3.73107e-07
1.90057e-07
3.05494e-07
1.37345e-07
2.63946e-07
8.92728e-08
2.38223e-07
4.39834e-08
2.23168e-07
2.16188e-07
-4.74064e-08
2.63594e-07
-9.61142e-08
2.71875e-07
-1.47564e-07
2.89672e-07
-2.03485e-07
3.19867e-07
-2.6605e-07
3.68059e-07
-3.37859e-07
4.44916e-07
-4.2091e-07
5.713e-07
-5.10223e-07
7.88725e-07
-5.62958e-07
1.1716e-06
-4.1708e-07
1.76056e-06
-2.23269e-07
2.04271e-06
-1.6416e-07
1.9342e-06
-1.87947e-07
1.84781e-06
-2.70373e-10
2.04637e-06
-1.83182e-07
1.6649e-06
1.72669e-07
2.15992e-06
-1.31274e-07
1.3979e-06
1.30912e-07
1.87808e-06
3.85109e-08
1.33262e-06
-5.89101e-07
8.03383e-07
-4.17816e-06
4.08338e-06
-4.59304e-06
2.86223e-07
-4.76341e-06
1.1831e-07
-5.10763e-06
6.99925e-07
-5.05977e-06
-1.32223e-07
-5.05592e-06
-1.286e-07
-5.06144e-06
-1.71213e-07
-4.91945e-06
-5.34085e-07
-4.89317e-06
-3.11711e-07
-4.89111e-06
-3.20871e-07
-4.79509e-06
-7.21897e-07
-4.73347e-06
-1.09547e-06
-4.68985e-06
-8.39588e-07
-4.60125e-06
-1.20108e-06
-4.40432e-06
-1.76197e-06
-4.01286e-06
-2.54259e-06
-3.39914e-06
-3.42434e-06
-2.51772e-06
-4.36505e-06
-1.34943e-06
-5.23564e-06
-2.69647e-17
-5.75959e-06
1.34943e-06
-5.75959e-06
2.51772e-06
-5.23564e-06
3.39914e-06
-4.36505e-06
4.01286e-06
-3.42434e-06
4.40432e-06
-2.54259e-06
4.60125e-06
-1.76197e-06
4.68985e-06
-1.20108e-06
4.73347e-06
-8.39588e-07
4.79509e-06
-1.09547e-06
4.89111e-06
-7.21897e-07
4.89317e-06
-3.20871e-07
4.91945e-06
-3.11711e-07
5.06144e-06
-5.34085e-07
5.05592e-06
-1.71213e-07
5.05977e-06
-1.286e-07
5.10763e-06
-1.32223e-07
4.76341e-06
6.99925e-07
4.59304e-06
1.1831e-07
4.17816e-06
2.86223e-07
5.89101e-07
4.08338e-06
-3.85109e-08
8.03383e-07
-1.30912e-07
1.33262e-06
1.31274e-07
1.87808e-06
-1.72669e-07
1.3979e-06
1.83182e-07
2.15992e-06
2.70373e-10
1.6649e-06
1.87947e-07
2.04637e-06
1.6416e-07
1.84781e-06
2.23269e-07
1.9342e-06
4.1708e-07
2.04271e-06
5.62958e-07
1.76056e-06
5.10223e-07
1.1716e-06
4.2091e-07
7.88725e-07
3.37859e-07
5.713e-07
2.6605e-07
4.44916e-07
2.03485e-07
3.68059e-07
1.47564e-07
3.19867e-07
9.61142e-08
2.89672e-07
4.74064e-08
2.71875e-07
2.63594e-07
-5.08038e-08
3.14398e-07
-1.02857e-07
3.23929e-07
-1.57502e-07
3.44317e-07
-2.16246e-07
3.78611e-07
-2.80741e-07
4.32554e-07
-3.52369e-07
5.16545e-07
-4.30348e-07
6.49279e-07
-5.04479e-07
8.62855e-07
-5.32637e-07
1.19976e-06
-4.16826e-07
1.64475e-06
-2.60516e-07
1.8864e-06
-1.92497e-07
1.86618e-06
-1.77546e-07
1.83286e-06
-5.52411e-08
1.92407e-06
-1.29618e-07
1.73928e-06
7.96319e-08
1.95067e-06
-7.48226e-08
1.55236e-06
6.50232e-08
1.73824e-06
-3.39789e-08
1.43162e-06
-5.22292e-07
1.2917e-06
6.32318e-07
2.92877e-06
-1.91039e-08
9.37645e-07
-7.72539e-07
8.71745e-07
-4.69711e-06
4.6245e-06
-5.0638e-06
2.34465e-07
-5.30346e-06
1.11062e-07
-5.46457e-06
-1.01021e-08
-5.27012e-06
-7.2853e-07
-5.29462e-06
-2.87216e-07
-5.35817e-06
-2.57321e-07
-5.2544e-06
-8.25671e-07
-5.29363e-06
-1.05624e-06
-5.35206e-06
-7.81158e-07
-5.40126e-06
-1.15187e-06
-5.34753e-06
-1.8157e-06
-4.99626e-06
-2.89386e-06
-4.37335e-06
-4.04725e-06
-3.36617e-06
-5.37224e-06
-1.84608e-06
-6.75572e-06
-2.40349e-17
-7.60567e-06
1.84608e-06
-7.60567e-06
3.36617e-06
-6.75572e-06
4.37335e-06
-5.37224e-06
4.99626e-06
-4.04725e-06
5.34753e-06
-2.89386e-06
5.40126e-06
-1.8157e-06
5.35206e-06
-1.15187e-06
5.29363e-06
-7.81158e-07
5.2544e-06
-1.05624e-06
5.35817e-06
-8.25671e-07
5.29462e-06
-2.57321e-07
5.27012e-06
-2.87216e-07
5.46457e-06
-7.2853e-07
5.30346e-06
-1.01021e-08
5.0638e-06
1.11062e-07
4.69711e-06
2.34465e-07
7.72539e-07
4.6245e-06
1.91039e-08
8.71745e-07
-6.32318e-07
9.37645e-07
5.22292e-07
2.92877e-06
3.39789e-08
1.2917e-06
-6.50232e-08
1.43162e-06
7.48226e-08
1.73824e-06
-7.96319e-08
1.55236e-06
1.29618e-07
1.95067e-06
5.52411e-08
1.73928e-06
1.77546e-07
1.92407e-06
1.92497e-07
1.83286e-06
2.60516e-07
1.86618e-06
4.16826e-07
1.8864e-06
5.32637e-07
1.64475e-06
5.04479e-07
1.19976e-06
4.30348e-07
8.62855e-07
3.52369e-07
6.49279e-07
2.80741e-07
5.16545e-07
2.16246e-07
4.32554e-07
1.57502e-07
3.78611e-07
1.02857e-07
3.44317e-07
5.08038e-08
3.23929e-07
3.14398e-07
-5.40714e-08
3.68469e-07
-1.09284e-07
3.79141e-07
-1.6681e-07
4.01843e-07
-2.27837e-07
4.39639e-07
-2.9337e-07
4.98086e-07
-3.63488e-07
5.86662e-07
-4.35009e-07
7.20801e-07
-4.94948e-07
9.22794e-07
-5.07105e-07
1.21192e-06
-4.15313e-07
1.55296e-06
-2.89245e-07
1.76033e-06
-2.16907e-07
1.79384e-06
-1.78934e-07
1.79489e-06
-9.26094e-08
1.83774e-06
-1.05539e-07
1.75221e-06
1.8324e-08
1.82681e-06
-4.9859e-08
1.62054e-06
1.8191e-08
1.67019e-06
-6.1515e-08
1.51133e-06
-2.892e-07
1.51938e-06
3.48531e-07
2.29104e-06
-3.22251e-08
1.3184e-06
-5.51078e-07
1.3906e-06
9.12266e-07
3.16115e-06
1.69965e-07
9.76766e-07
-6.3682e-07
9.17848e-07
-3.97791e-06
3.33099e-06
-5.03487e-06
3.2843e-07
-5.45179e-06
1.29702e-07
-5.79111e-06
8.20039e-08
-5.69322e-06
-9.23566e-07
-5.89048e-06
-8.58982e-07
-6.11963e-06
-5.52e-07
-6.43545e-06
-8.36053e-07
-6.74346e-06
-1.50769e-06
-6.42999e-06
-3.20734e-06
-5.90591e-06
-4.57133e-06
-4.86566e-06
-6.41249e-06
-2.74922e-06
-8.87216e-06
3.02221e-18
-1.03549e-05
2.74922e-06
-1.03549e-05
4.86566e-06
-8.87216e-06
5.90591e-06
-6.41249e-06
6.42999e-06
-4.57133e-06
6.74346e-06
-3.20734e-06
6.43545e-06
-1.50769e-06
6.11963e-06
-8.36053e-07
5.89048e-06
-5.52e-07
5.69322e-06
-8.58982e-07
5.79111e-06
-9.23566e-07
5.45179e-06
8.20039e-08
5.03487e-06
1.29702e-07
3.97791e-06
3.2843e-07
6.3682e-07
3.33099e-06
-1.69965e-07
9.17848e-07
-9.12266e-07
9.76766e-07
5.51078e-07
3.16115e-06
3.22251e-08
1.3906e-06
-3.48531e-07
1.3184e-06
2.892e-07
2.29104e-06
6.1515e-08
1.51938e-06
-1.8191e-08
1.51133e-06
4.9859e-08
1.67019e-06
-1.8324e-08
1.62054e-06
1.05539e-07
1.82681e-06
9.26094e-08
1.75221e-06
1.78934e-07
1.83774e-06
2.16907e-07
1.79489e-06
2.89245e-07
1.79384e-06
4.15313e-07
1.76033e-06
5.07105e-07
1.55296e-06
4.94948e-07
1.21192e-06
4.35009e-07
9.22794e-07
3.63488e-07
7.20801e-07
2.9337e-07
5.86662e-07
2.27837e-07
4.98086e-07
1.6681e-07
4.39639e-07
1.09284e-07
4.01843e-07
5.40714e-08
3.79141e-07
3.68469e-07
-5.70823e-08
4.25552e-07
-1.15133e-07
4.37191e-07
-1.75083e-07
4.61794e-07
-2.37714e-07
5.0227e-07
-3.03311e-07
5.63683e-07
-3.70721e-07
6.54072e-07
-4.35023e-07
7.85103e-07
-4.82603e-07
9.70374e-07
-4.85113e-07
1.21443e-06
-4.12299e-07
1.48014e-06
-3.10265e-07
1.6583e-06
-2.3769e-07
1.72126e-06
-1.87326e-07
1.74453e-06
-1.19407e-07
1.76982e-06
-1.00206e-07
1.73301e-06
-2.28999e-08
1.74951e-06
-4.43374e-08
1.64198e-06
-1.31618e-08
1.63901e-06
-6.5793e-08
1.56396e-06
-1.56347e-07
1.60994e-06
1.79528e-07
1.95516e-06
-2.02957e-08
1.51823e-06
-2.35358e-07
1.60566e-06
5.45253e-07
2.38054e-06
1.74147e-07
1.34787e-06
-2.08162e-07
1.30016e-06
8.13155e-07
2.30967e-06
2.9555e-07
8.46034e-07
-1.76285e-07
6.01538e-07
-1.22934e-06
1.13506e-06
-4.83948e-06
2.68657e-06
-5.8983e-06
1.99837e-07
-6.49654e-06
4.62373e-08
-7.37082e-06
3.8231e-08
-8.90394e-06
2.54315e-08
-8.29854e-06
-3.81275e-06
-8.29729e-06
-4.57257e-06
-7.85373e-06
-6.85605e-06
-4.5432e-06
-1.21827e-05
6.2965e-17
-1.48981e-05
4.5432e-06
-1.48981e-05
7.85373e-06
-1.21827e-05
8.29729e-06
-6.85605e-06
8.29854e-06
-4.57257e-06
8.90394e-06
-3.81275e-06
7.37082e-06
2.54315e-08
6.49654e-06
3.8231e-08
5.8983e-06
4.62373e-08
4.83948e-06
1.99837e-07
1.22934e-06
2.68657e-06
1.76285e-07
1.13506e-06
-2.9555e-07
6.01538e-07
-8.13155e-07
8.46034e-07
2.08162e-07
2.30967e-06
-1.74147e-07
1.30016e-06
-5.45253e-07
1.34787e-06
2.35358e-07
2.38054e-06
2.02957e-08
1.60566e-06
-1.79528e-07
1.51823e-06
1.56347e-07
1.95516e-06
6.5793e-08
1.60994e-06
1.31618e-08
1.56396e-06
4.43374e-08
1.63901e-06
2.28999e-08
1.64198e-06
1.00206e-07
1.74951e-06
1.19407e-07
1.73301e-06
1.87326e-07
1.76982e-06
2.3769e-07
1.74453e-06
3.10265e-07
1.72126e-06
4.12299e-07
1.6583e-06
4.85113e-07
1.48014e-06
4.82603e-07
1.21443e-06
4.35023e-07
9.70374e-07
3.70721e-07
7.85103e-07
3.03311e-07
6.54072e-07
2.37714e-07
5.63683e-07
1.75083e-07
5.0227e-07
1.15133e-07
4.61794e-07
5.70823e-08
4.37191e-07
4.25552e-07
-5.96904e-08
4.85242e-07
-1.20111e-07
4.97612e-07
-1.81885e-07
5.23568e-07
-2.4533e-07
5.65716e-07
-3.10012e-07
6.28365e-07
-3.73756e-07
7.17817e-07
-4.30683e-07
8.42029e-07
-4.68129e-07
1.00782e-06
-4.65449e-07
1.21175e-06
-4.07543e-07
1.42224e-06
-3.24516e-07
1.57527e-06
-2.54871e-07
1.65162e-06
-1.9912e-07
1.68878e-06
-1.40201e-07
1.71091e-06
-1.05771e-07
1.69858e-06
-5.20825e-08
1.69582e-06
-4.9374e-08
1.63927e-06
-3.32568e-08
1.62289e-06
-6.06345e-08
1.59134e-06
-8.49101e-08
1.63421e-06
8.73373e-08
1.78292e-06
-3.34385e-10
1.6059e-06
-6.38258e-08
1.66915e-06
3.3908e-07
1.97764e-06
1.79043e-07
1.50791e-06
2.48429e-08
1.45436e-06
5.24845e-07
1.80967e-06
2.62853e-07
1.10803e-06
-5.5943e-08
9.20334e-07
-1.66629e-07
1.24574e-06
6.46341e-07
1.87361e-06
7.58313e-08
7.70346e-07
-2.45654e-07
3.67723e-07
-7.54449e-07
5.47026e-07
-1.57542e-06
8.46405e-07
-5.58675e-06
1.98583e-07
-1.02246e-05
6.52963e-08
-1.44325e-05
-2.64821e-06
-8.11767e-06
-1.84975e-05
2.22649e-17
-2.30158e-05
8.11767e-06
-2.30158e-05
1.44325e-05
-1.84975e-05
1.02246e-05
-2.64821e-06
5.58675e-06
6.52963e-08
1.57542e-06
1.98583e-07
7.54449e-07
8.46405e-07
2.45654e-07
5.47026e-07
-7.58313e-08
3.67723e-07
-6.46341e-07
7.70346e-07
1.66629e-07
1.87361e-06
5.5943e-08
1.24574e-06
-2.62853e-07
9.20334e-07
-5.24845e-07
1.10803e-06
-2.48429e-08
1.80967e-06
-1.79043e-07
1.45436e-06
-3.3908e-07
1.50791e-06
6.38258e-08
1.97764e-06
3.34386e-10
1.66915e-06
-8.73373e-08
1.6059e-06
8.49101e-08
1.78292e-06
6.06345e-08
1.63421e-06
3.32568e-08
1.59134e-06
4.9374e-08
1.62289e-06
5.20825e-08
1.63927e-06
1.05771e-07
1.69582e-06
1.40201e-07
1.69858e-06
1.9912e-07
1.71091e-06
2.54871e-07
1.68878e-06
3.24516e-07
1.65162e-06
4.07543e-07
1.57527e-06
4.65449e-07
1.42224e-06
4.68129e-07
1.21175e-06
4.30683e-07
1.00782e-06
3.73756e-07
8.42029e-07
3.10012e-07
7.17817e-07
2.4533e-07
6.28365e-07
1.81885e-07
5.65716e-07
1.20111e-07
5.23568e-07
5.96904e-08
4.97612e-07
4.85242e-07
-6.17382e-08
5.4698e-07
-1.2391e-07
5.59783e-07
-1.8678e-07
5.86438e-07
-2.50184e-07
6.2912e-07
-3.13042e-07
6.91223e-07
-3.72472e-07
7.77246e-07
-4.22366e-07
8.91923e-07
-4.51934e-07
1.03739e-06
-4.47014e-07
1.20683e-06
-4.00836e-07
1.37606e-06
-3.32903e-07
1.50734e-06
-2.68339e-07
1.58706e-06
-2.11724e-07
1.63216e-06
-1.57496e-07
1.65668e-06
-1.16845e-07
1.65792e-06
-7.41853e-08
1.65316e-06
-5.90946e-08
1.62418e-06
-4.59967e-08
1.6098e-06
-5.35717e-08
1.59891e-06
-4.82685e-08
1.62891e-06
4.23888e-08
1.69226e-06
1.87164e-08
1.62957e-06
2.30602e-08
1.66481e-06
2.302e-07
1.77049e-06
1.80222e-07
1.55789e-06
1.34441e-07
1.50014e-06
3.63987e-07
1.58012e-06
2.3168e-07
1.24033e-06
3.68124e-08
1.1152e-06
6.65653e-09
1.2759e-06
3.76082e-07
1.50418e-06
1.06996e-07
1.03943e-06
4.4096e-09
4.7031e-07
3.4838e-08
5.16597e-07
3.34155e-07
5.47088e-07
1.13559e-07
4.19179e-07
-2.0671e-07
3.85565e-07
-2.63009e-06
-2.24831e-07
-7.68296e-06
-1.34446e-05
1.01812e-17
-3.06987e-05
7.68296e-06
-3.06987e-05
2.63009e-06
-1.34446e-05
2.0671e-07
-2.24831e-07
-1.13559e-07
3.85565e-07
-3.34155e-07
4.19179e-07
-3.4838e-08
5.47088e-07
-4.4096e-09
5.16597e-07
-1.06996e-07
4.7031e-07
-3.76082e-07
1.03943e-06
-6.65653e-09
1.50418e-06
-3.68124e-08
1.2759e-06
-2.3168e-07
1.1152e-06
-3.63987e-07
1.24033e-06
-1.34441e-07
1.58012e-06
-1.80222e-07
1.50014e-06
-2.302e-07
1.55789e-06
-2.30602e-08
1.77049e-06
-1.87164e-08
1.66481e-06
-4.23888e-08
1.62957e-06
4.82685e-08
1.69226e-06
5.35717e-08
1.62891e-06
4.59967e-08
1.59891e-06
5.90946e-08
1.6098e-06
7.41853e-08
1.62418e-06
1.16845e-07
1.65316e-06
1.57496e-07
1.65792e-06
2.11724e-07
1.65668e-06
2.68339e-07
1.63216e-06
3.32903e-07
1.58706e-06
4.00836e-07
1.50734e-06
4.47014e-07
1.37606e-06
4.51934e-07
1.20683e-06
4.22366e-07
1.03739e-06
3.72472e-07
8.91923e-07
3.13042e-07
7.77246e-07
2.50184e-07
6.91223e-07
1.8678e-07
6.2912e-07
1.2391e-07
5.86438e-07
6.17382e-08
5.59783e-07
5.4698e-07
-6.30694e-08
6.1005e-07
-1.26233e-07
6.22947e-07
-1.89374e-07
6.49578e-07
-2.51868e-07
6.91615e-07
-3.12131e-07
7.51486e-07
-3.66916e-07
8.32031e-07
-4.10466e-07
9.35473e-07
-4.34196e-07
1.06112e-06
-4.28876e-07
1.20151e-06
-3.92001e-07
1.33918e-06
-3.36202e-07
1.45154e-06
-2.7795e-07
1.5288e-06
-2.23327e-07
1.57754e-06
-1.72293e-07
1.60564e-06
-1.29888e-07
1.61552e-06
-9.1886e-08
1.61516e-06
-7.00361e-08
1.60233e-06
-5.43998e-08
1.59416e-06
-4.78732e-08
1.59239e-06
-2.9949e-08
1.61098e-06
2.37402e-08
1.63857e-06
3.33179e-08
1.61999e-06
6.3651e-08
1.63447e-06
1.75326e-07
1.65882e-06
1.76712e-07
1.5565e-06
1.76488e-07
1.50036e-06
2.75908e-07
1.4807e-06
2.08696e-07
1.30755e-06
9.87e-08
1.2252e-06
9.01531e-08
1.28445e-06
2.43822e-07
1.35051e-06
1.26786e-07
1.15647e-06
8.98845e-08
5.07211e-07
9.42344e-08
5.12247e-07
1.31491e-07
5.09832e-07
6.64042e-08
4.84265e-07
-2.47865e-08
4.76756e-07
-6.06184e-08
-1.89e-07
-1.19909e-06
-1.23061e-05
8.41741e-18
-3.18978e-05
1.19909e-06
-3.18978e-05
6.06184e-08
-1.23061e-05
2.47865e-08
-1.89e-07
-6.64042e-08
4.76756e-07
-1.31491e-07
4.84265e-07
-9.42344e-08
5.09832e-07
-8.98845e-08
5.12247e-07
-1.26786e-07
5.07211e-07
-2.43822e-07
1.15647e-06
-9.01531e-08
1.35051e-06
-9.87e-08
1.28445e-06
-2.08696e-07
1.2252e-06
-2.75908e-07
1.30755e-06
-1.76488e-07
1.4807e-06
-1.76712e-07
1.50036e-06
-1.75326e-07
1.5565e-06
-6.3651e-08
1.65882e-06
-3.33179e-08
1.63447e-06
-2.37402e-08
1.61999e-06
2.9949e-08
1.63857e-06
4.78732e-08
1.61098e-06
5.43998e-08
1.59239e-06
7.00361e-08
1.59416e-06
9.1886e-08
1.60233e-06
1.29888e-07
1.61516e-06
1.72293e-07
1.61552e-06
2.23327e-07
1.60564e-06
2.7795e-07
1.57754e-06
3.36202e-07
1.5288e-06
3.92001e-07
1.45154e-06
4.28876e-07
1.33918e-06
4.34196e-07
1.20151e-06
4.10466e-07
1.06112e-06
3.66916e-07
9.35473e-07
3.12131e-07
8.32031e-07
2.51868e-07
7.51486e-07
1.89374e-07
6.91615e-07
1.26233e-07
6.49578e-07
6.30694e-08
6.22947e-07
6.1005e-07
-6.35448e-08
6.73595e-07
-1.26828e-07
6.8623e-07
-1.89356e-07
7.12106e-07
-2.50114e-07
7.52373e-07
-3.07186e-07
8.08557e-07
-3.57277e-07
8.82123e-07
-3.9535e-07
9.73546e-07
-4.14941e-07
1.08071e-06
-4.10288e-07
1.19685e-06
-3.809e-07
1.30979e-06
-3.35018e-07
1.40566e-06
-2.83584e-07
1.47737e-06
-2.32678e-07
1.52663e-06
-1.84664e-07
1.55763e-06
-1.42624e-07
1.57348e-06
-1.06383e-07
1.57892e-06
-8.03837e-08
1.57633e-06
-6.04408e-08
1.57422e-06
-4.43894e-08
1.57634e-06
-2.08034e-08
1.5874e-06
1.79267e-08
1.59984e-06
4.28676e-08
1.59505e-06
8.04435e-08
1.5969e-06
1.47628e-07
1.59164e-06
1.6931e-07
1.53482e-06
1.84993e-07
1.48468e-06
2.27018e-07
1.43868e-06
1.92949e-07
1.34161e-06
1.34126e-07
1.28402e-06
1.27728e-07
1.29084e-06
1.82706e-07
1.29553e-06
1.29847e-07
1.20933e-06
1.09719e-07
5.27339e-07
9.80191e-08
5.23948e-07
8.771e-08
5.20141e-07
5.69246e-08
5.15051e-07
1.79386e-08
5.15742e-07
-1.75566e-09
-1.69305e-07
-3.63073e-07
-1.19448e-05
-2.30047e-17
-3.22609e-05
3.63073e-07
-3.22609e-05
1.75566e-09
-1.19448e-05
-1.79386e-08
-1.69305e-07
-5.69246e-08
5.15742e-07
-8.771e-08
5.15051e-07
-9.80191e-08
5.20141e-07
-1.09719e-07
5.23948e-07
-1.29847e-07
5.27339e-07
-1.82706e-07
1.20933e-06
-1.27728e-07
1.29553e-06
-1.34126e-07
1.29084e-06
-1.92949e-07
1.28402e-06
-2.27018e-07
1.34161e-06
-1.84993e-07
1.43868e-06
-1.6931e-07
1.48468e-06
-1.47628e-07
1.53482e-06
-8.04435e-08
1.59164e-06
-4.28676e-08
1.5969e-06
-1.79267e-08
1.59505e-06
2.08034e-08
1.59984e-06
4.43894e-08
1.5874e-06
6.04408e-08
1.57634e-06
8.03837e-08
1.57422e-06
1.06383e-07
1.57633e-06
1.42624e-07
1.57892e-06
1.84664e-07
1.57348e-06
2.32678e-07
1.55763e-06
2.83584e-07
1.52663e-06
3.35018e-07
1.47737e-06
3.809e-07
1.40566e-06
4.10288e-07
1.30979e-06
4.14941e-07
1.19685e-06
3.9535e-07
1.08071e-06
3.57277e-07
9.73546e-07
3.07186e-07
8.82123e-07
2.50114e-07
8.08557e-07
1.89356e-07
7.52373e-07
1.26828e-07
7.12106e-07
6.35448e-08
6.8623e-07
6.73595e-07
-6.30603e-08
7.36655e-07
-1.25517e-07
7.48687e-07
-1.86539e-07
7.73128e-07
-2.4482e-07
8.10653e-07
-2.98287e-07
8.62025e-07
-3.43848e-07
9.27684e-07
-3.77341e-07
1.00704e-06
-3.9411e-07
1.09748e-06
-3.9069e-07
1.19343e-06
-3.67428e-07
1.28653e-06
-3.29786e-07
1.36801e-06
-2.85167e-07
1.43275e-06
-2.38925e-07
1.48039e-06
-1.94219e-07
1.51292e-06
-1.53578e-07
1.53284e-06
-1.18043e-07
1.54338e-06
-8.92757e-08
1.54756e-06
-6.51797e-08
1.55012e-06
-4.28777e-08
1.55403e-06
-1.62814e-08
1.5608e-06
1.71464e-08
1.56641e-06
4.79889e-08
1.56421e-06
8.54678e-08
1.55942e-06
1.32078e-07
1.54503e-06
1.59366e-07
1.50753e-06
1.78742e-07
1.4653e-06
1.98014e-07
1.4194e-06
1.81379e-07
1.35825e-06
1.50696e-07
1.3147e-06
1.42559e-07
1.29898e-06
1.55114e-07
1.28298e-06
1.25829e-07
1.23861e-06
1.11324e-07
5.41844e-07
9.73863e-08
5.37886e-07
8.26668e-08
5.3486e-07
6.48841e-08
5.32833e-07
4.81289e-08
5.32497e-07
2.80119e-08
-1.49188e-07
-2.24446e-07
-1.16924e-05
-8.526e-18
-3.24853e-05
2.24446e-07
-3.24853e-05
-2.80119e-08
-1.16924e-05
-4.81289e-08
-1.49188e-07
-6.48841e-08
5.32497e-07
-8.26668e-08
5.32833e-07
-9.73863e-08
5.3486e-07
-1.11324e-07
5.37886e-07
-1.25829e-07
5.41844e-07
-1.55114e-07
1.23861e-06
-1.42559e-07
1.28298e-06
-1.50696e-07
1.29898e-06
-1.81379e-07
1.3147e-06
-1.98014e-07
1.35825e-06
-1.78742e-07
1.4194e-06
-1.59366e-07
1.4653e-06
-1.32078e-07
1.50753e-06
-8.54678e-08
1.54503e-06
-4.79889e-08
1.55942e-06
-1.71464e-08
1.56421e-06
1.62814e-08
1.56641e-06
4.28777e-08
1.5608e-06
6.51797e-08
1.55403e-06
8.92757e-08
1.55012e-06
1.18043e-07
1.54756e-06
1.53578e-07
1.54338e-06
1.94219e-07
1.53284e-06
2.38925e-07
1.51292e-06
2.85167e-07
1.48039e-06
3.29786e-07
1.43275e-06
3.67428e-07
1.36801e-06
3.9069e-07
1.28653e-06
3.9411e-07
1.19343e-06
3.77341e-07
1.09748e-06
3.43848e-07
1.00704e-06
2.98287e-07
9.27684e-07
2.4482e-07
8.62025e-07
1.86539e-07
8.10653e-07
1.25517e-07
7.73128e-07
6.30603e-08
7.48687e-07
7.36655e-07