/*--------------------------------*- C++ -*----------------------------------*\
  =========                 |
  \\      /  F ield         | OpenFOAM: The Open Source CFD Toolbox
   \\    /   O peration     | Website:  https://openfoam.org
    \\  /    A nd           | Version:  10
     \\/     M anipulation  |
\*---------------------------------------------------------------------------*/
FoamFile
{
    format      ascii;
    class       surfaceScalarField;
    location    "1.82";
    object      phi;
}
// * * * * * * * * * * * * * * * * * * * * * * * * * * * * * * * * * * * * * //

dimensions      [0 3 -1 0 0 0 0];

internalField   nonuniform List<scalar> 
24170
(
1.4538e-09
-1.4538e-09
2.69874e-09
-1.24493e-09
3.68488e-09
-9.86148e-10
4.43127e-09
-7.46389e-10
4.98682e-09
-5.55545e-10
5.40434e-09
-4.17527e-10
5.7294e-09
-3.25058e-10
5.9979e-09
-2.68503e-10
6.23761e-09
-2.39703e-10
6.47082e-09
-2.33213e-10
6.71744e-09
-2.46621e-10
6.99842e-09
-2.80976e-10
7.34064e-09
-3.42219e-10
7.786e-09
-4.45366e-10
8.41313e-09
-6.27125e-10
9.40399e-09
-9.90859e-10
1.13219e-08
-1.91789e-09
-5.46171e-09
1.67836e-08
1.65061e-09
-3.10441e-09
3.05805e-09
-2.65237e-09
4.16609e-09
-2.09419e-09
4.99881e-09
-1.57911e-09
5.61399e-09
-1.17072e-09
6.07293e-09
-8.76466e-10
6.42787e-09
-6.79999e-10
6.71961e-09
-5.60246e-10
6.97941e-09
-4.99502e-10
7.23215e-09
-4.85951e-10
7.49977e-09
-5.14237e-10
7.80501e-09
-5.8622e-10
8.17647e-09
-7.1368e-10
8.65726e-09
-9.26152e-10
9.32341e-09
-1.29328e-09
1.03275e-08
-1.99497e-09
1.19811e-08
-3.5715e-09
-7.84249e-09
1.43619e-08
1.84674e-09
-4.95115e-09
3.41231e-09
-4.21794e-09
4.63491e-09
-3.3168e-09
5.54575e-09
-2.48995e-09
6.21294e-09
-1.83791e-09
6.70682e-09
-1.37034e-09
7.08628e-09
-1.05946e-09
7.3967e-09
-8.70659e-10
7.67236e-09
-7.75161e-10
7.94017e-09
-7.53766e-10
8.2234e-09
-7.97462e-10
8.54542e-09
-9.08243e-10
8.93429e-09
-1.10255e-09
9.42925e-09
-1.42111e-09
1.00906e-08
-1.95464e-09
1.10071e-08
-2.9115e-09
1.22246e-08
-4.78899e-09
-8.65972e-09
1.30419e-08
2.06485e-09
-7.016e-09
3.80102e-09
-5.95411e-09
5.14166e-09
-4.65744e-09
6.12876e-09
-3.47705e-09
6.84391e-09
-2.55306e-09
7.36824e-09
-1.89468e-09
7.76801e-09
-1.45924e-09
8.09324e-09
-1.19589e-09
8.38106e-09
-1.06297e-09
8.65996e-09
-1.03267e-09
8.95384e-09
-1.09134e-09
9.28553e-09
-1.23993e-09
9.68032e-09
-1.49734e-09
1.01691e-08
-1.90988e-09
1.0788e-08
-2.57357e-09
1.15566e-08
-3.68005e-09
1.23517e-08
-5.58416e-09
-8.73574e-09
1.24277e-08
2.31862e-09
-9.33462e-09
4.24602e-09
-7.88151e-09
5.71132e-09
-6.12273e-09
6.77309e-09
-4.53882e-09
7.53121e-09
-3.31117e-09
8.08021e-09
-2.44368e-09
8.49478e-09
-1.87381e-09
8.82979e-09
-1.5309e-09
9.12495e-09
-1.35813e-09
9.40986e-09
-1.31759e-09
9.70825e-09
-1.38972e-09
1.00412e-08
-1.57284e-09
1.04291e-08
-1.88523e-09
1.08913e-08
-2.37215e-09
1.14377e-08
-3.11994e-09
1.20326e-08
-4.2749e-09
1.24843e-08
-6.03585e-09
-8.47999e-09
1.22285e-08
2.6232e-09
-1.19578e-08
4.76982e-09
-1.00281e-08
6.36748e-09
-7.7204e-09
7.50044e-09
-5.67178e-09
8.29376e-09
-4.10449e-09
8.85898e-09
-3.00891e-09
9.28055e-09
-2.29537e-09
9.61836e-09
-1.86871e-09
9.91438e-09
-1.65415e-09
1.01987e-08
-1.60187e-09
1.04939e-08
-1.68494e-09
1.08181e-08
-1.89705e-09
1.11854e-08
-2.25253e-09
1.16025e-08
-2.78928e-09
1.20559e-08
-3.57334e-09
1.24771e-08
-4.69605e-09
1.26733e-08
-6.23211e-09
-8.08636e-09
1.22797e-08
2.999e-09
-1.49568e-08
5.40113e-09
-1.24303e-08
7.1383e-09
-9.45756e-09
8.33483e-09
-6.86832e-09
9.15097e-09
-4.92062e-09
9.71996e-09
-3.5779e-09
1.01375e-08
-2.71292e-09
1.04686e-08
-2.19979e-09
1.07568e-08
-1.94241e-09
1.1032e-08
-1.87702e-09
1.13147e-08
-1.96767e-09
1.16191e-08
-2.20143e-09
1.19521e-08
-2.58551e-09
1.23086e-08
-3.14579e-09
1.26585e-08
-3.92324e-09
1.29213e-08
-4.9589e-09
1.2937e-08
-6.24778e-09
-7.64251e-09
1.24932e-08
3.4758e-09
-1.84326e-08
6.17955e-09
-1.5134e-08
8.06024e-09
-1.13383e-08
9.30551e-09
-8.11359e-09
1.0125e-08
-5.74015e-09
1.06797e-08
-4.13255e-09
1.10779e-08
-3.11114e-09
1.13895e-08
-2.51136e-09
1.16588e-08
-2.21175e-09
1.19143e-08
-2.13252e-09
1.21737e-08
-2.22708e-09
1.24464e-08
-2.47408e-09
1.27322e-08
-2.87133e-09
1.30167e-08
-3.4303e-09
1.32609e-08
-4.16742e-09
1.33877e-08
-5.08567e-09
1.32789e-08
-6.13903e-09
-7.18597e-09
1.28224e-08
4.09929e-09
-2.25319e-08
7.16208e-09
-1.81968e-08
9.18247e-09
-1.33586e-08
1.04494e-08
-9.38055e-09
1.12423e-08
-6.53306e-09
1.17567e-08
-4.64689e-09
1.21147e-08
-3.46918e-09
1.239e-08
-2.78666e-09
1.26264e-08
-2.44813e-09
1.28496e-08
-2.35573e-09
1.30735e-08
-2.45098e-09
1.33023e-08
-2.7029e-09
1.35298e-08
-3.09878e-09
1.37352e-08
-3.63567e-09
1.38774e-08
-4.30965e-09
1.38912e-08
-5.0995e-09
1.36972e-08
-5.94497e-09
-6.73129e-09
1.32425e-08
4.94283e-09
-2.74747e-08
8.43336e-09
-2.16873e-08
1.05724e-08
-1.54977e-08
1.18136e-08
-1.06218e-08
1.25342e-08
-7.25366e-09
1.29716e-08
-5.08431e-09
1.32616e-08
-3.75914e-09
1.34792e-08
-3.00425e-09
1.36654e-08
-2.63433e-09
1.38416e-08
-2.53197e-09
1.40169e-08
-2.62621e-09
1.41901e-08
-2.87613e-09
1.435e-08
-3.25869e-09
1.44728e-08
-3.7585e-09
1.45203e-08
-4.35713e-09
1.4442e-08
-5.02116e-09
1.41885e-08
-5.69149e-09
-6.28286e-09
1.37401e-08
6.12977e-09
-3.36045e-08
1.01223e-08
-2.56799e-08
1.23232e-08
-1.76985e-08
1.34575e-08
-1.17561e-08
1.40372e-08
-7.83331e-09
1.43469e-08
-5.39406e-09
1.45324e-08
-3.94457e-09
1.46655e-08
-3.13743e-09
1.47811e-08
-2.7499e-09
1.48939e-08
-2.64474e-09
1.50067e-08
-2.73903e-09
1.51133e-08
-2.98275e-09
1.51987e-08
-3.34406e-09
1.52385e-08
-3.79826e-09
1.51998e-08
-4.31844e-09
1.50463e-08
-4.86766e-09
1.47499e-08
-5.39507e-09
-5.84063e-09
1.43076e-08
6.53724e-09
-4.01418e-08
1.03459e-08
-2.94885e-08
1.21547e-08
-1.95074e-08
1.2925e-08
-1.25264e-08
1.3227e-08
-8.13525e-09
1.33362e-08
-5.50327e-09
1.33756e-08
-3.98397e-09
1.33974e-08
-3.15921e-09
1.34217e-08
-2.77423e-09
1.34535e-08
-2.67659e-09
1.34895e-08
-2.77495e-09
1.352e-08
-3.01325e-09
1.35301e-08
-3.35424e-09
1.35001e-08
-3.76826e-09
1.34069e-08
-4.22517e-09
1.32285e-08
-4.68928e-09
1.29519e-08
-5.11848e-09
-5.46942e-09
1.25807e-08
9.71333e-09
-4.98551e-08
1.45411e-08
-3.43163e-08
1.63559e-08
-2.13221e-08
1.686e-08
-1.30306e-08
1.68861e-08
-8.16136e-09
1.67727e-08
-5.38989e-09
1.66441e-08
-3.85532e-09
1.65396e-08
-3.05472e-09
1.64661e-08
-2.70074e-09
1.64176e-08
-2.62808e-09
1.63821e-08
-2.73943e-09
1.63437e-08
-2.97485e-09
1.62833e-08
-3.29386e-09
1.61795e-08
-3.66447e-09
1.60109e-08
-4.05656e-09
1.57603e-08
-4.43873e-09
1.54206e-08
-4.77873e-09
-5.04751e-09
1.49987e-08
1.56793e-08
-6.55343e-08
2.14571e-08
-4.00942e-08
2.2636e-08
-2.25009e-08
2.23515e-08
-1.27461e-08
2.17586e-08
-7.56844e-09
2.12045e-08
-4.8358e-09
2.07656e-08
-3.41646e-09
2.04375e-08
-2.72658e-09
2.01953e-08
-2.45856e-09
2.00115e-08
-2.4443e-09
1.98597e-08
-2.58757e-09
1.97145e-08
-2.82966e-09
1.95516e-08
-3.131e-09
1.93483e-08
-3.46116e-09
1.90852e-08
-3.79349e-09
1.87497e-08
-4.10317e-09
1.83387e-08
-4.36781e-09
-4.56974e-09
1.7861e-08
2.86775e-08
-9.42119e-08
3.37187e-08
-4.51354e-08
3.23204e-08
-2.11026e-08
3.00902e-08
-1.05159e-08
2.82448e-08
-5.72302e-09
2.6893e-08
-3.48396e-09
2.59292e-08
-2.45267e-09
2.52382e-08
-2.03561e-09
2.47302e-08
-1.95054e-09
2.43387e-08
-2.05287e-09
2.4014e-08
-2.26283e-09
2.37169e-08
-2.53252e-09
2.34158e-08
-2.82997e-09
2.30859e-08
-3.13125e-09
2.27091e-08
-3.41666e-09
2.22755e-08
-3.66959e-09
2.17845e-08
-3.87682e-09
-4.02939e-09
2.12442e-08
6.32658e-08
-1.57478e-07
5.67455e-08
-3.8615e-08
4.7178e-08
-1.15351e-08
4.07037e-08
-4.04164e-09
3.6618e-08
-1.63732e-09
3.39936e-08
-8.59547e-10
3.22464e-08
-7.05458e-10
3.10349e-08
-8.24144e-10
3.01553e-08
-1.07094e-09
2.94799e-08
-1.37743e-09
2.89242e-08
-1.70713e-09
2.84299e-08
-2.0382e-09
2.79556e-08
-2.35573e-09
2.74727e-08
-2.64831e-09
2.69627e-08
-2.90673e-09
2.6417e-08
-3.12384e-09
2.58349e-08
-3.29474e-09
-3.41726e-09
2.52228e-08
1.83139e-07
1.5902e-07
9.69844e-08
4.75391e-08
6.67586e-08
1.86906e-08
5.34185e-08
9.29846e-09
4.64233e-08
5.35794e-09
4.22934e-08
3.27028e-09
3.96429e-08
1.94511e-09
3.78265e-08
9.92276e-10
3.65059e-08
2.49573e-10
3.54829e-08
-3.54362e-10
3.46375e-08
-8.6173e-10
3.3895e-08
-1.2957e-09
3.32059e-08
-1.66667e-09
3.25381e-08
-1.98053e-09
3.18722e-08
-2.24076e-09
3.11982e-08
-2.44991e-09
3.0514e-08
-2.61051e-09
-2.72565e-09
2.98224e-08
7.72446e-08
8.17754e-08
7.5454e-08
4.93296e-08
6.54217e-08
2.87229e-08
5.74294e-08
1.72908e-08
5.19419e-08
1.08455e-08
4.82141e-08
6.99806e-09
4.56156e-08
4.54358e-09
4.3732e-08
2.87584e-09
4.2302e-08
1.67961e-09
4.11639e-08
7.8374e-10
4.02115e-08
9.06902e-11
3.9364e-08
-4.48261e-10
3.85762e-08
-8.78853e-10
3.78204e-08
-1.22469e-09
3.708e-08
-1.50039e-09
3.63466e-08
-1.71654e-09
3.56175e-08
-1.88139e-09
-2.00185e-09
3.48937e-08
3.59467e-08
4.58287e-08
5.01262e-08
3.51501e-08
5.38097e-08
2.50394e-08
5.36354e-08
1.74651e-08
5.23206e-08
1.21603e-08
5.08339e-08
8.48471e-09
4.94706e-08
5.90691e-09
4.82858e-08
4.06067e-09
4.7258e-08
2.70739e-09
4.63482e-08
1.69355e-09
4.55191e-08
9.19825e-10
4.47498e-08
3.2103e-10
4.40153e-08
-1.44393e-10
4.32962e-08
-5.05594e-10
4.25846e-08
-7.88793e-10
4.18771e-08
-1.009e-09
4.11734e-08
-1.17765e-09
-1.30374e-09
4.04752e-08
1.43036e-08
3.15251e-08
2.32795e-08
2.61743e-08
2.8077e-08
2.02418e-08
3.0418e-08
1.51241e-08
3.14582e-08
1.112e-08
3.18374e-08
8.10551e-09
3.18834e-08
5.86098e-09
3.17582e-08
4.18586e-09
3.15406e-08
2.92495e-09
3.12686e-08
1.96558e-09
3.09605e-08
1.2279e-09
3.06259e-08
6.55672e-10
3.02724e-08
2.09101e-10
2.9905e-08
-1.38184e-10
2.95236e-08
-4.07424e-10
2.91318e-08
-6.17174e-10
2.8733e-08
-7.78864e-10
-9.01423e-10
2.83307e-08
8.56108e-09
2.2964e-08
1.4943e-08
1.97923e-08
1.91748e-08
1.601e-08
2.18267e-08
1.24723e-08
2.34427e-08
9.50399e-09
2.44079e-08
7.14029e-09
2.49663e-08
5.30263e-09
2.52658e-08
3.88639e-09
2.53952e-08
2.79553e-09
2.54085e-08
1.95231e-09
2.53392e-08
1.2972e-09
2.52091e-08
7.85709e-10
2.50333e-08
3.84906e-10
2.48248e-08
7.03538e-11
2.45909e-08
-1.73548e-10
2.43371e-08
-3.63422e-10
2.4069e-08
-5.10741e-10
-6.23582e-10
2.37912e-08
5.7732e-09
1.71908e-08
1.04486e-08
1.5117e-08
1.3903e-08
1.25556e-08
1.63328e-08
1.00424e-08
1.79997e-08
7.83713e-09
1.91269e-08
6.01306e-09
1.98786e-08
4.5509e-09
2.03681e-08
3.39691e-09
2.06717e-08
2.49191e-09
2.0841e-08
1.78303e-09
2.09112e-08
1.227e-09
2.0907e-08
7.89892e-10
2.08463e-08
4.45644e-10
2.07423e-08
1.74363e-10
2.06073e-08
-3.85333e-11
2.04473e-08
-2.03466e-10
2.02687e-08
-3.32134e-10
-4.31466e-10
2.00766e-08
4.19919e-09
1.29916e-08
7.75587e-09
1.15603e-08
1.05508e-08
9.76064e-09
1.26509e-08
7.94242e-09
1.41884e-08
6.29956e-09
1.52963e-08
4.90518e-09
1.60841e-08
3.76316e-09
1.66348e-08
2.84613e-09
1.70096e-08
2.11718e-09
1.72524e-08
1.54022e-09
1.73953e-08
1.08408e-09
1.74618e-08
7.23339e-10
1.74696e-08
4.37885e-10
1.74319e-08
2.12042e-10
1.73597e-08
3.36393e-11
1.72615e-08
-1.05168e-10
1.71429e-08
-2.1356e-10
-2.97768e-10
1.70092e-08
3.21052e-09
9.7811e-09
6.00245e-09
8.76839e-09
8.2805e-09
7.48259e-09
1.00636e-08
6.15935e-09
1.14228e-08
4.94035e-09
1.24406e-08
3.88732e-09
1.3192e-08
3.01177e-09
1.37382e-08
2.29993e-09
1.4127e-08
1.72839e-09
1.43948e-08
1.27244e-09
1.45692e-08
9.09701e-10
1.46711e-08
6.21397e-10
1.47167e-08
3.92331e-10
1.47183e-08
2.10452e-10
1.46856e-08
6.6282e-11
1.46273e-08
-4.6862e-11
1.45488e-08
-1.35043e-10
-2.03888e-10
1.44549e-08
2.53876e-09
7.24234e-09
4.78297e-09
6.52417e-09
6.65841e-09
5.60715e-09
8.16562e-09
4.65213e-09
9.3451e-09
3.76088e-09
1.02508e-08
2.98162e-09
1.09357e-08
2.32683e-09
1.14459e-08
1.78972e-09
1.1819e-08
1.35531e-09
1.20848e-08
1.00668e-09
1.22665e-08
7.2797e-10
1.23824e-08
5.05562e-10
1.24464e-08
3.28246e-10
1.24699e-08
1.87022e-10
1.24614e-08
7.47418e-11
1.24286e-08
-1.40071e-11
1.23766e-08
-8.30513e-11
-1.37179e-10
1.23099e-08
2.05399e-09
5.18835e-09
3.8889e-09
4.68927e-09
5.44633e-09
4.04972e-09
6.72001e-09
3.37845e-09
7.73433e-09
2.74656e-09
8.52646e-09
2.18949e-09
9.13536e-09
1.71793e-09
9.59641e-09
1.32867e-09
9.93957e-09
1.01215e-09
1.01893e-08
7.56991e-10
1.0365e-08
5.52234e-10
1.04822e-08
3.88308e-10
1.05532e-08
2.5724e-10
1.05877e-08
1.52571e-10
1.05933e-08
6.91366e-11
1.05765e-08
2.83244e-12
1.05421e-08
-4.87256e-11
-8.92605e-11
1.04942e-08
1.68692e-09
3.50144e-09
3.20435e-09
3.17183e-09
4.50559e-09
2.74847e-09
5.58221e-09
2.30183e-09
6.44982e-09
1.87895e-09
7.13528e-09
1.50403e-09
7.66817e-09
1.18504e-09
8.07633e-09
9.2052e-10
8.3839e-09
7.04585e-10
8.61097e-09
5.29913e-10
8.77388e-09
3.89326e-10
8.88572e-09
2.76471e-10
8.95694e-09
1.86014e-10
8.99591e-09
1.13605e-10
9.0093e-09
5.57467e-11
9.00249e-09
9.64679e-12
8.98012e-09
-2.63598e-11
-5.46323e-11
8.94549e-09
1.3973e-09
2.10414e-09
2.65997e-09
1.90916e-09
3.75014e-09
1.6583e-09
4.65921e-09
1.39277e-09
5.39778e-09
1.14038e-09
5.98606e-09
9.15758e-10
6.44714e-09
7.23956e-10
6.80327e-09
5.64388e-10
7.07411e-09
4.33739e-10
7.27626e-09
3.27772e-10
7.42331e-09
2.42271e-10
7.5263e-09
1.73477e-10
7.59411e-09
1.18213e-10
7.63383e-09
7.38776e-11
7.65121e-09
3.83707e-11
7.65085e-09
1.00096e-11
7.6367e-09
-1.22113e-11
-2.96018e-11
7.61167e-09
1.15887e-09
9.45273e-10
2.20932e-09
8.58709e-10
3.12042e-09
7.47209e-10
3.88426e-09
6.28921e-10
4.50844e-09
5.16199e-10
5.00859e-09
4.15611e-10
5.40305e-09
3.29496e-10
5.70976e-09
2.57674e-10
5.94477e-09
1.98729e-10
6.12173e-09
1.50811e-10
6.25194e-09
1.12062e-10
6.3446e-09
8.08184e-11
6.40715e-09
5.56656e-11
6.44558e-09
3.54426e-11
6.46474e-09
1.92096e-11
6.46854e-09
6.21113e-12
6.46029e-09
-3.96022e-12
-1.17899e-11
6.44248e-09
9.45273e-10
1.80398e-09
2.55119e-09
3.18011e-09
3.69631e-09
4.11192e-09
4.44142e-09
4.69909e-09
4.89782e-09
5.04863e-09
5.16069e-09
5.24151e-09
5.29718e-09
5.33262e-09
5.35183e-09
5.35804e-09
5.35408e-09
5.34229e-09
6.84791e-10
-6.84791e-10
1.38084e-09
-6.96045e-10
2.09587e-09
-7.15038e-10
2.84124e-09
-7.45364e-10
3.63452e-09
-7.93278e-10
4.50657e-09
-8.7205e-10
5.51061e-09
-1.00405e-09
6.73711e-09
-1.22649e-09
8.34034e-09
-1.60323e-09
1.05845e-08
-2.24412e-09
1.38982e-08
-3.31375e-09
1.86868e-08
-4.78858e-09
2.39378e-08
-5.25105e-09
2.87485e-08
-4.81061e-09
3.28553e-08
-4.10687e-09
3.60114e-08
-3.15612e-09
3.8536e-08
-2.5246e-09
3.9965e-08
-1.42901e-09
3.73397e-08
2.62531e-09
3.44231e-08
2.91662e-09
3.3153e-08
1.27012e-09
3.26797e-08
4.73319e-10
3.25935e-08
8.61624e-11
3.26692e-08
-7.56786e-11
3.24966e-08
1.72594e-10
3.16851e-08
8.11502e-10
3.08643e-08
8.20818e-10
3.01779e-08
6.86344e-10
2.95381e-08
6.39888e-10
2.87808e-08
7.57209e-10
2.79318e-08
8.49023e-10
2.7067e-08
8.64795e-10
2.62096e-08
8.57447e-10
2.53672e-08
8.42365e-10
2.45513e-08
8.15881e-10
2.37679e-08
7.83461e-10
2.30198e-08
7.48033e-10
2.23084e-08
7.11392e-10
2.16339e-08
6.74532e-10
2.09959e-08
6.38036e-10
2.03936e-08
6.02284e-10
1.9826e-08
5.67563e-10
1.92919e-08
5.34117e-10
1.87898e-08
5.02149e-10
1.8318e-08
4.71807e-10
1.78748e-08
4.43181e-10
1.74585e-08
4.16302e-10
1.70673e-08
3.91155e-10
1.66996e-08
3.67686e-10
1.63538e-08
3.45819e-10
1.60284e-08
3.25459e-10
1.57219e-08
3.06504e-10
1.5433e-08
2.8885e-10
1.51606e-08
2.72395e-10
1.49036e-08
2.57042e-10
1.46609e-08
2.42702e-10
1.44316e-08
2.2929e-10
1.42148e-08
2.16733e-10
1.40099e-08
2.04963e-10
1.3816e-08
1.93918e-10
1.36324e-08
1.83544e-10
1.34586e-08
1.73792e-10
1.3294e-08
1.64617e-10
1.3138e-08
1.55979e-10
1.29902e-08
1.47841e-10
1.285e-08
1.40171e-10
1.27171e-08
1.32937e-10
1.2591e-08
1.26112e-10
1.24713e-08
1.19669e-10
1.23577e-08
1.13586e-10
1.22499e-08
1.0784e-10
1.21475e-08
1.0241e-10
1.20502e-08
9.72777e-11
1.19578e-08
9.24259e-11
1.18699e-08
8.78381e-11
1.17864e-08
8.3499e-11
1.1707e-08
7.93947e-11
1.16315e-08
7.55119e-11
1.15597e-08
7.18387e-11
1.14913e-08
6.83633e-11
1.14262e-08
6.50752e-11
1.13643e-08
6.19644e-11
1.13053e-08
5.90213e-11
1.1249e-08
5.62374e-11
1.11954e-08
5.36042e-11
1.11443e-08
5.11143e-11
1.10955e-08
4.876e-11
1.1049e-08
4.65347e-11
1.10046e-08
4.44318e-11
1.09621e-08
4.2445e-11
1.09216e-08
4.05688e-11
1.08828e-08
3.87975e-11
1.08456e-08
3.71261e-11
1.08101e-08
3.55494e-11
1.0776e-08
3.40631e-11
1.07434e-08
3.26624e-11
1.0712e-08
3.13431e-11
1.06819e-08
3.01015e-11
1.0653e-08
2.89335e-11
1.06251e-08
2.78356e-11
1.05983e-08
2.68042e-11
1.05725e-08
2.58363e-11
1.05476e-08
2.49283e-11
1.05235e-08
2.40777e-11
1.05002e-08
2.32813e-11
1.04777e-08
2.25365e-11
1.04558e-08
2.18407e-11
1.04346e-08
2.11914e-11
1.04141e-08
2.05862e-11
1.0394e-08
2.0023e-11
1.03745e-08
1.94994e-11
1.03555e-08
1.90136e-11
1.0337e-08
1.85634e-11
1.03188e-08
1.8147e-11
1.03011e-08
1.77626e-11
1.02836e-08
1.74088e-11
1.02666e-08
1.70834e-11
1.02498e-08
1.67855e-11
1.02333e-08
1.6513e-11
1.0217e-08
1.62651e-11
1.0201e-08
1.60399e-11
1.01851e-08
1.58366e-11
1.01695e-08
1.56536e-11
1.0154e-08
1.54901e-11
1.01386e-08
1.53449e-11
1.01234e-08
1.52167e-11
1.01083e-08
1.51049e-11
1.00933e-08
1.50083e-11
1.00784e-08
1.49262e-11
1.00635e-08
1.48578e-11
1.00487e-08
1.4802e-11
1.0034e-08
1.47585e-11
1.00192e-08
1.47261e-11
1.00045e-08
1.47046e-11
9.98984e-09
1.46931e-11
9.97514e-09
1.46912e-11
9.96045e-09
1.46981e-11
9.94573e-09
1.47136e-11
9.931e-09
1.47371e-11
9.91623e-09
1.4768e-11
9.90142e-09
1.48062e-11
9.88657e-09
1.48512e-11
9.87167e-09
1.49029e-11
9.85671e-09
1.49607e-11
9.84168e-09
1.50247e-11
9.82659e-09
1.50945e-11
9.81142e-09
1.51701e-11
9.79617e-09
1.52515e-11
9.78083e-09
1.5339e-11
9.76539e-09
1.54325e-11
9.74986e-09
1.55324e-11
9.73422e-09
1.56391e-11
9.71847e-09
1.57536e-11
9.70259e-09
1.58763e-11
9.68658e-09
1.60089e-11
9.67043e-09
1.61528e-11
9.65412e-09
1.63103e-11
9.63764e-09
1.64842e-11
9.62096e-09
1.66783e-11
9.60406e-09
1.68971e-11
9.58691e-09
1.71473e-11
9.56948e-09
1.74367e-11
9.5517e-09
1.77764e-11
9.53352e-09
1.81803e-11
9.51485e-09
1.86675e-11
9.49559e-09
1.92628e-11
9.47559e-09
1.99998e-11
9.45467e-09
2.09247e-11
9.43256e-09
2.21007e-11
9.40895e-09
2.36168e-11
9.38335e-09
2.56011e-11
9.3551e-09
2.82428e-11
9.32327e-09
3.18319e-11
9.28644e-09
3.68346e-11
9.24239e-09
4.40478e-11
9.18744e-09
5.49537e-11
9.11478e-09
7.26525e-11
9.00994e-09
1.04844e-10
8.83369e-09
1.76247e-10
4.00909e-10
8.43278e-09
5.69347e-10
-1.25414e-09
1.15096e-09
-1.27766e-09
1.75376e-09
-1.31784e-09
2.38649e-09
-1.37809e-09
3.05752e-09
-1.46431e-09
3.77227e-09
-1.58679e-09
4.52755e-09
-1.75933e-09
5.30048e-09
-1.99943e-09
6.02449e-09
-2.32724e-09
6.54046e-09
-2.76009e-09
6.51811e-09
-3.29139e-09
5.56928e-09
-3.83976e-09
4.5187e-09
-4.20047e-09
4.06256e-09
-4.35447e-09
4.41424e-09
-4.45854e-09
6.02386e-09
-4.76574e-09
9.28403e-09
-5.78477e-09
1.5105e-08
-7.25e-09
2.53301e-08
-7.59978e-09
2.8536e-08
-2.89277e-10
3.01776e-08
-3.71483e-10
3.11295e-08
-4.78544e-10
3.18767e-08
-6.61047e-10
3.33638e-08
-1.56275e-09
3.44364e-08
-8.99997e-10
3.16987e-08
3.54915e-09
3.04523e-08
2.0672e-09
3.00294e-08
1.10929e-09
2.98593e-08
8.09956e-10
2.9024e-08
1.59256e-09
2.79599e-08
1.91306e-09
2.70316e-08
1.79309e-09
2.61543e-08
1.73478e-09
2.52832e-08
1.71341e-09
2.44539e-08
1.64522e-09
2.3665e-08
1.57239e-09
2.29162e-08
1.49679e-09
2.22066e-08
1.42101e-09
2.15352e-08
1.3459e-09
2.09012e-08
1.2721e-09
2.03034e-08
1.20004e-09
1.97408e-08
1.13018e-09
1.92119e-08
1.06299e-09
1.87152e-08
9.98892e-10
1.82488e-08
9.38195e-10
1.78109e-08
8.81058e-10
1.73997e-08
8.27515e-10
1.70134e-08
7.77504e-10
1.66502e-08
7.30892e-10
1.63085e-08
6.87501e-10
1.59868e-08
6.47125e-10
1.56838e-08
6.09548e-10
1.53981e-08
5.74555e-10
1.51285e-08
5.41936e-10
1.48741e-08
5.11496e-10
1.46337e-08
4.83054e-10
1.44066e-08
4.56446e-10
1.41918e-08
4.31524e-10
1.39886e-08
4.08155e-10
1.37963e-08
3.86219e-10
1.36142e-08
3.65609e-10
1.34418e-08
3.46227e-10
1.32784e-08
3.27989e-10
1.31236e-08
3.10813e-10
1.29768e-08
2.94629e-10
1.28376e-08
2.79371e-10
1.27055e-08
2.64979e-10
1.25802e-08
2.51397e-10
1.24613e-08
2.38575e-10
1.23485e-08
2.26466e-10
1.22413e-08
2.15025e-10
1.21395e-08
2.04214e-10
1.20428e-08
1.93994e-10
1.19508e-08
1.84332e-10
1.18635e-08
1.75193e-10
1.17804e-08
1.6655e-10
1.17015e-08
1.58373e-10
1.16263e-08
1.50637e-10
1.15549e-08
1.43318e-10
1.14868e-08
1.36392e-10
1.14221e-08
1.29839e-10
1.13604e-08
1.23639e-10
1.13016e-08
1.17773e-10
1.12457e-08
1.12224e-10
1.11923e-08
1.06975e-10
1.11414e-08
1.02011e-10
1.10928e-08
9.73167e-11
1.10465e-08
9.28799e-11
1.10022e-08
8.86867e-11
1.09599e-08
8.47253e-11
1.09195e-08
8.0984e-11
1.08809e-08
7.74519e-11
1.08439e-08
7.41186e-11
1.08085e-08
7.09743e-11
1.07745e-08
6.80098e-11
1.0742e-08
6.52163e-11
1.07107e-08
6.25853e-11
1.06807e-08
6.01087e-11
1.06519e-08
5.77793e-11
1.06241e-08
5.55893e-11
1.05974e-08
5.35323e-11
1.05716e-08
5.16015e-11
1.05468e-08
4.97907e-11
1.05227e-08
4.80939e-11
1.04995e-08
4.65054e-11
1.0477e-08
4.50198e-11
1.04552e-08
4.3632e-11
1.04341e-08
4.23369e-11
1.04136e-08
4.11298e-11
1.03936e-08
4.00064e-11
1.03741e-08
3.8962e-11
1.03551e-08
3.79929e-11
1.03366e-08
3.70949e-11
1.03185e-08
3.62647e-11
1.03007e-08
3.54981e-11
1.02834e-08
3.47922e-11
1.02663e-08
3.41437e-11
1.02495e-08
3.35492e-11
1.0233e-08
3.30061e-11
1.02168e-08
3.25116e-11
1.02008e-08
3.20628e-11
1.0185e-08
3.16574e-11
1.01693e-08
3.12927e-11
1.01538e-08
3.09667e-11
1.01385e-08
3.06773e-11
1.01233e-08
3.04221e-11
1.01082e-08
3.01993e-11
1.00932e-08
3.00071e-11
1.00783e-08
2.98437e-11
1.00634e-08
2.97074e-11
1.00486e-08
2.95967e-11
1.00339e-08
2.951e-11
1.00192e-08
2.9446e-11
1.00045e-08
2.94034e-11
9.98978e-09
2.9381e-11
9.9751e-09
2.93774e-11
9.9604e-09
2.93919e-11
9.94569e-09
2.94231e-11
9.93096e-09
2.94703e-11
9.9162e-09
2.95326e-11
9.90139e-09
2.96094e-11
9.88654e-09
2.96996e-11
9.87164e-09
2.9803e-11
9.85669e-09
2.99188e-11
9.84166e-09
3.00469e-11
9.82657e-09
3.01867e-11
9.8114e-09
3.03381e-11
9.79615e-09
3.05011e-11
9.78082e-09
3.06759e-11
9.76539e-09
3.08629e-11
9.74986e-09
3.10625e-11
9.73422e-09
3.12761e-11
9.71847e-09
3.15044e-11
9.7026e-09
3.17498e-11
9.68659e-09
3.20145e-11
9.67044e-09
3.23019e-11
9.65414e-09
3.26162e-11
9.63766e-09
3.29631e-11
9.62099e-09
3.33499e-11
9.6041e-09
3.37861e-11
9.58696e-09
3.42845e-11
9.56953e-09
3.48608e-11
9.55177e-09
3.55368e-11
9.53361e-09
3.63405e-11
9.51497e-09
3.7309e-11
9.49574e-09
3.8492e-11
9.47579e-09
3.99561e-11
9.45492e-09
4.17921e-11
9.4329e-09
4.41248e-11
9.40938e-09
4.71299e-11
9.38392e-09
5.10589e-11
9.35589e-09
5.62818e-11
9.32435e-09
6.33642e-11
9.28798e-09
7.32067e-11
9.2447e-09
8.73326e-11
9.19113e-09
1.0852e-10
9.12141e-09
1.42376e-10
9.02441e-09
2.01845e-10
8.87845e-09
3.22207e-10
6.16275e-10
8.66308e-09
5.42561e-10
-1.7967e-09
1.09162e-09
-1.82672e-09
1.6491e-09
-1.87532e-09
2.21609e-09
-1.94508e-09
2.79124e-09
-2.03946e-09
3.36886e-09
-2.16441e-09
3.93553e-09
-2.326e-09
4.46531e-09
-2.52922e-09
4.91435e-09
-2.77627e-09
5.21774e-09
-3.06348e-09
5.30237e-09
-3.37602e-09
5.14583e-09
-3.68322e-09
4.89241e-09
-3.94704e-09
4.69896e-09
-4.16102e-09
4.59452e-09
-4.35411e-09
4.394e-09
-4.56522e-09
3.4083e-09
-4.79906e-09
1.04759e-09
-4.8893e-09
-2.07536e-09
-4.47684e-09
8.7535e-10
-3.23998e-09
3.19427e-09
-2.6904e-09
5.31349e-09
-2.59776e-09
7.63511e-09
-2.98267e-09
1.02306e-08
-4.15821e-09
1.55849e-08
-6.25431e-09
2.47951e-08
-5.66109e-09
2.72505e-08
-3.88196e-10
2.89458e-08
-5.85995e-10
3.20242e-08
-2.26845e-09
2.98965e-08
3.72031e-09
2.75966e-08
4.21294e-09
2.68411e-08
2.54855e-09
2.60669e-08
2.50902e-09
2.50751e-08
2.70515e-09
2.42383e-08
2.48209e-09
2.34471e-08
2.36357e-09
2.27027e-08
2.24116e-09
2.19995e-08
2.12422e-09
2.13359e-08
2.00949e-09
2.07105e-08
1.89755e-09
2.01221e-08
1.78841e-09
1.95697e-08
1.6826e-09
1.90517e-08
1.58103e-09
1.8566e-08
1.4845e-09
1.81108e-08
1.39347e-09
1.76837e-08
1.30812e-09
1.72828e-08
1.22841e-09
1.69061e-08
1.15417e-09
1.65519e-08
1.08512e-09
1.62185e-08
1.02092e-09
1.59044e-08
9.61244e-10
1.56082e-08
9.05727e-10
1.53287e-08
8.54029e-10
1.50648e-08
8.05829e-10
1.48155e-08
7.60829e-10
1.45798e-08
7.18761e-10
1.43569e-08
6.79382e-10
1.41459e-08
6.42474e-10
1.39462e-08
6.07845e-10
1.37571e-08
5.75319e-10
1.3578e-08
5.44743e-10
1.34082e-08
5.15976e-10
1.32473e-08
4.88893e-10
1.30948e-08
4.63378e-10
1.29501e-08
4.39327e-10
1.28128e-08
4.16644e-10
1.26825e-08
3.95242e-10
1.25589e-08
3.7504e-10
1.24415e-08
3.55963e-10
1.233e-08
3.37941e-10
1.22241e-08
3.20912e-10
1.21235e-08
3.04815e-10
1.20279e-08
2.89596e-10
1.19371e-08
2.75203e-10
1.18507e-08
2.61589e-10
1.17685e-08
2.4871e-10
1.16904e-08
2.36524e-10
1.1616e-08
2.24993e-10
1.15452e-08
2.14081e-10
1.14779e-08
2.03755e-10
1.14137e-08
1.93984e-10
1.13526e-08
1.84737e-10
1.12944e-08
1.75987e-10
1.12389e-08
1.67709e-10
1.1186e-08
1.59878e-10
1.11356e-08
1.52472e-10
1.10874e-08
1.45468e-10
1.10415e-08
1.38847e-10
1.09976e-08
1.3259e-10
1.09556e-08
1.26677e-10
1.09155e-08
1.21093e-10
1.08771e-08
1.1582e-10
1.08404e-08
1.10845e-10
1.08052e-08
1.06151e-10
1.07715e-08
1.01725e-10
1.07392e-08
9.75542e-11
1.07081e-08
9.3626e-11
1.06783e-08
8.99284e-11
1.06496e-08
8.64499e-11
1.0622e-08
8.31801e-11
1.05955e-08
8.01085e-11
1.05698e-08
7.72254e-11
1.05451e-08
7.45213e-11
1.05212e-08
7.19875e-11
1.04981e-08
6.96155e-11
1.04757e-08
6.73971e-11
1.0454e-08
6.53245e-11
1.0433e-08
6.33907e-11
1.04125e-08
6.15882e-11
1.03926e-08
5.99104e-11
1.03732e-08
5.83512e-11
1.03543e-08
5.69041e-11
1.03359e-08
5.55634e-11
1.03178e-08
5.43235e-11
1.03001e-08
5.31793e-11
1.02828e-08
5.21254e-11
1.02658e-08
5.11571e-11
1.0249e-08
5.027e-11
1.02326e-08
4.94594e-11
1.02164e-08
4.87212e-11
1.02004e-08
4.80516e-11
1.01846e-08
4.74468e-11
1.0169e-08
4.69028e-11
1.01535e-08
4.64169e-11
1.01382e-08
4.59851e-11
1.01231e-08
4.56048e-11
1.0108e-08
4.52729e-11
1.0093e-08
4.49866e-11
1.00781e-08
4.47434e-11
1.00633e-08
4.45408e-11
1.00485e-08
4.43763e-11
1.00338e-08
4.42479e-11
1.0019e-08
4.41534e-11
1.00044e-08
4.40908e-11
9.98968e-09
4.40582e-11
9.975e-09
4.4054e-11
9.96032e-09
4.40766e-11
9.94562e-09
4.41245e-11
9.93089e-09
4.41961e-11
9.91613e-09
4.42904e-11
9.90134e-09
4.4406e-11
9.8865e-09
4.45421e-11
9.8716e-09
4.46977e-11
9.85665e-09
4.4872e-11
9.84163e-09
4.50644e-11
9.82654e-09
4.52744e-11
9.81138e-09
4.55016e-11
9.79613e-09
4.57464e-11
9.7808e-09
4.60087e-11
9.76537e-09
4.62891e-11
9.74985e-09
4.65884e-11
9.73422e-09
4.69081e-11
9.71847e-09
4.72503e-11
9.7026e-09
4.76176e-11
9.6866e-09
4.80137e-11
9.67046e-09
4.84434e-11
9.65416e-09
4.89132e-11
9.6377e-09
4.94312e-11
9.62104e-09
5.00085e-11
9.60417e-09
5.06592e-11
9.58705e-09
5.14016e-11
9.56965e-09
5.22599e-11
9.55192e-09
5.32657e-11
9.5338e-09
5.44605e-11
9.51521e-09
5.58992e-11
9.49605e-09
5.76549e-11
9.47618e-09
5.9826e-11
9.45542e-09
6.25458e-11
9.43355e-09
6.59977e-11
9.41024e-09
7.04385e-11
9.38507e-09
7.62344e-11
9.35743e-09
8.39217e-11
9.32648e-09
9.43118e-11
9.291e-09
1.08684e-10
9.24917e-09
1.29161e-10
9.19819e-09
1.59504e-10
9.13363e-09
2.0694e-10
9.04875e-09
2.86726e-10
8.93687e-09
4.34087e-10
7.31597e-10
8.82154e-09
4.85419e-10
-2.28212e-09
9.73307e-10
-2.31461e-09
1.46151e-09
-2.36352e-09
1.94698e-09
-2.43054e-09
2.42434e-09
-2.51683e-09
2.88475e-09
-2.62482e-09
3.31521e-09
-2.75646e-09
3.69821e-09
-2.91222e-09
4.01223e-09
-3.0903e-09
4.23449e-09
-3.28574e-09
4.34822e-09
-3.48975e-09
4.35489e-09
-3.68989e-09
4.28142e-09
-3.87358e-09
4.15392e-09
-4.03352e-09
3.96686e-09
-4.16704e-09
3.67057e-09
-4.26894e-09
3.19207e-09
-4.32056e-09
2.58029e-09
-4.27752e-09
2.19468e-09
-4.09122e-09
2.74213e-09
-3.78744e-09
3.63158e-09
-3.57984e-09
4.57301e-09
-3.53919e-09
5.27707e-09
-3.68673e-09
5.113e-09
-3.99414e-09
3.1318e-09
-4.27311e-09
1.48419e-09
-4.01348e-09
4.34021e-09
-3.24422e-09
7.08538e-09
-3.33116e-09
9.29719e-09
-4.48025e-09
1.78805e-08
-4.86305e-09
2.2589e-08
-4.95502e-10
2.65605e-08
-1.42298e-09
2.65465e-08
2.52308e-09
2.4446e-08
4.80559e-09
2.38899e-08
3.03817e-09
2.30973e-08
3.1562e-09
2.23743e-08
2.96415e-09
2.16839e-08
2.81463e-09
2.10341e-08
2.65927e-09
2.0422e-08
2.50963e-09
1.98479e-08
2.36253e-09
1.93114e-08
2.21913e-09
1.88105e-08
2.08193e-09
1.83425e-08
1.95248e-09
1.79046e-08
1.83132e-09
1.74943e-08
1.71843e-09
1.71092e-08
1.61353e-09
1.67472e-08
1.51616e-09
1.64065e-08
1.42584e-09
1.60854e-08
1.34201e-09
1.57825e-08
1.26415e-09
1.54965e-08
1.19175e-09
1.52262e-08
1.12431e-09
1.49706e-08
1.06141e-09
1.47288e-08
1.00263e-09
1.44999e-08
9.47639e-10
1.42832e-08
8.9611e-10
1.40779e-08
8.47771e-10
1.38834e-08
8.02373e-10
1.3699e-08
7.59699e-10
1.35242e-08
7.19552e-10
1.33584e-08
6.81754e-10
1.32012e-08
6.46147e-10
1.3052e-08
6.12582e-10
1.29104e-08
5.80928e-10
1.27759e-08
5.51062e-10
1.26483e-08
5.22869e-10
1.25271e-08
4.96247e-10
1.2412e-08
4.71097e-10
1.23026e-08
4.47332e-10
1.21986e-08
4.24867e-10
1.20998e-08
4.03627e-10
1.20059e-08
3.83538e-10
1.19165e-08
3.64535e-10
1.18316e-08
3.46556e-10
1.17507e-08
3.29543e-10
1.16738e-08
3.13442e-10
1.16006e-08
2.98203e-10
1.15309e-08
2.83779e-10
1.14645e-08
2.70127e-10
1.14013e-08
2.57205e-10
1.13411e-08
2.44975e-10
1.12837e-08
2.33401e-10
1.12289e-08
2.22449e-10
1.11767e-08
2.12087e-10
1.11269e-08
2.02285e-10
1.10794e-08
1.93016e-10
1.10339e-08
1.84251e-10
1.09906e-08
1.75967e-10
1.09491e-08
1.68139e-10
1.09095e-08
1.60745e-10
1.08715e-08
1.53763e-10
1.08352e-08
1.47173e-10
1.08004e-08
1.40956e-10
1.0767e-08
1.35094e-10
1.0735e-08
1.2957e-10
1.07043e-08
1.24366e-10
1.06747e-08
1.19468e-10
1.06463e-08
1.14859e-10
1.0619e-08
1.10527e-10
1.05926e-08
1.06458e-10
1.05672e-08
1.02638e-10
1.05427e-08
9.90553e-11
1.0519e-08
9.56981e-11
1.0496e-08
9.25552e-11
1.04738e-08
8.96158e-11
1.04522e-08
8.68698e-11
1.04313e-08
8.43073e-11
1.0411e-08
8.19192e-11
1.03912e-08
7.96964e-11
1.03719e-08
7.76304e-11
1.03531e-08
7.57134e-11
1.03348e-08
7.39374e-11
1.03168e-08
7.22949e-11
1.02992e-08
7.07792e-11
1.02819e-08
6.93835e-11
1.0265e-08
6.81011e-11
1.02483e-08
6.69262e-11
1.02319e-08
6.58531e-11
1.02158e-08
6.4876e-11
1.01998e-08
6.39896e-11
1.01841e-08
6.31893e-11
1.01685e-08
6.24697e-11
1.01531e-08
6.18268e-11
1.01378e-08
6.12562e-11
1.01227e-08
6.07535e-11
1.01077e-08
6.03153e-11
1.00927e-08
5.99374e-11
1.00778e-08
5.96168e-11
1.0063e-08
5.93499e-11
1.00483e-08
5.91338e-11
1.00335e-08
5.89653e-11
1.00189e-08
5.88419e-11
1.00042e-08
5.87609e-11
9.98953e-09
5.87196e-11
9.97486e-09
5.87162e-11
9.96019e-09
5.87482e-11
9.9455e-09
5.88136e-11
9.93079e-09
5.89107e-11
9.91604e-09
5.90379e-11
9.90125e-09
5.91933e-11
9.88642e-09
5.93759e-11
9.87153e-09
5.95844e-11
9.85659e-09