/*--------------------------------*- C++ -*----------------------------------*\
  =========                 |
  \\      /  F ield         | OpenFOAM: The Open Source CFD Toolbox
   \\    /   O peration     | Website:  https://openfoam.org
    \\  /    A nd           | Version:  10
     \\/     M anipulation  |
\*---------------------------------------------------------------------------*/
FoamFile
{
    format      ascii;
    class       volScalarField;
    location    "1.58";
    object      p;
}
// * * * * * * * * * * * * * * * * * * * * * * * * * * * * * * * * * * * * * //

dimensions      [1 -1 -2 0 0 0 0];

internalField   nonuniform List<scalar> 
12225
(
1.64911e+07
1.64357e+07
1.63364e+07
1.62056e+07
1.60535e+07
1.58882e+07
1.57151e+07
1.55378e+07
1.53586e+07
1.51787e+07
1.49987e+07
1.48186e+07
1.46378e+07
1.44553e+07
1.4269e+07
1.40756e+07
1.38683e+07
1.36295e+07
1.64933e+07
1.64377e+07
1.63381e+07
1.62069e+07
1.60546e+07
1.5889e+07
1.57157e+07
1.55383e+07
1.53591e+07
1.51792e+07
1.49993e+07
1.48193e+07
1.46388e+07
1.44566e+07
1.42709e+07
1.40787e+07
1.38744e+07
1.36476e+07
1.64983e+07
1.64421e+07
1.63418e+07
1.62099e+07
1.60569e+07
1.58908e+07
1.57172e+07
1.55396e+07
1.53603e+07
1.51805e+07
1.50007e+07
1.48209e+07
1.46408e+07
1.44593e+07
1.42749e+07
1.40852e+07
1.38864e+07
1.3675e+07
1.65066e+07
1.64496e+07
1.63479e+07
1.62147e+07
1.60606e+07
1.58938e+07
1.57196e+07
1.55417e+07
1.53622e+07
1.51824e+07
1.50029e+07
1.48236e+07
1.46441e+07
1.44638e+07
1.42813e+07
1.40951e+07
1.39035e+07
1.3707e+07
1.65189e+07
1.64605e+07
1.6357e+07
1.62218e+07
1.60661e+07
1.58981e+07
1.57231e+07
1.55447e+07
1.5365e+07
1.51853e+07
1.5006e+07
1.48273e+07
1.46489e+07
1.44701e+07
1.42903e+07
1.41084e+07
1.39245e+07
1.37413e+07
1.6536e+07
1.64757e+07
1.63694e+07
1.62315e+07
1.60736e+07
1.59039e+07
1.57278e+07
1.55488e+07
1.53688e+07
1.51892e+07
1.50103e+07
1.48324e+07
1.46552e+07
1.44785e+07
1.43017e+07
1.41249e+07
1.39487e+07
1.37767e+07
1.6559e+07
1.64961e+07
1.6386e+07
1.62444e+07
1.60835e+07
1.59115e+07
1.57339e+07
1.5554e+07
1.53737e+07
1.51941e+07
1.50158e+07
1.48389e+07
1.46633e+07
1.44889e+07
1.43157e+07
1.4144e+07
1.39753e+07
1.38127e+07
1.65893e+07
1.65226e+07
1.64073e+07
1.62608e+07
1.60959e+07
1.59211e+07
1.57416e+07
1.55605e+07
1.53798e+07
1.52003e+07
1.50226e+07
1.48468e+07
1.46731e+07
1.45014e+07
1.4332e+07
1.41656e+07
1.40036e+07
1.38489e+07
1.66284e+07
1.65565e+07
1.64342e+07
1.62812e+07
1.61112e+07
1.59327e+07
1.57508e+07
1.55684e+07
1.53871e+07
1.52077e+07
1.50308e+07
1.48564e+07
1.46847e+07
1.45159e+07
1.43504e+07
1.41891e+07
1.40333e+07
1.38852e+07
1.66786e+07
1.65994e+07
1.64676e+07
1.63061e+07
1.61296e+07
1.59466e+07
1.57618e+07
1.55777e+07
1.53957e+07
1.52165e+07
1.50403e+07
1.48674e+07
1.46979e+07
1.45322e+07
1.43707e+07
1.42142e+07
1.40639e+07
1.39215e+07
1.67427e+07
1.66531e+07
1.65084e+07
1.63358e+07
1.61511e+07
1.59626e+07
1.57744e+07
1.55883e+07
1.54055e+07
1.52264e+07
1.50511e+07
1.48799e+07
1.47128e+07
1.45502e+07
1.43925e+07
1.42405e+07
1.40952e+07
1.39577e+07
1.68181e+07
1.67144e+07
1.65534e+07
1.63676e+07
1.61737e+07
1.59791e+07
1.57872e+07
1.55991e+07
1.54155e+07
1.52365e+07
1.50622e+07
1.48925e+07
1.47277e+07
1.45679e+07
1.44137e+07
1.42655e+07
1.41243e+07
1.39906e+07
1.69109e+07
1.6787e+07
1.66047e+07
1.64028e+07
1.61981e+07
1.59967e+07
1.58006e+07
1.56104e+07
1.5426e+07
1.52472e+07
1.50738e+07
1.49058e+07
1.47433e+07
1.45863e+07
1.44353e+07
1.42907e+07
1.41531e+07
1.4023e+07
1.70479e+07
1.68879e+07
1.66719e+07
1.64468e+07
1.62275e+07
1.60173e+07
1.58163e+07
1.56236e+07
1.54384e+07
1.52599e+07
1.50878e+07
1.49218e+07
1.47618e+07
1.4608e+07
1.44605e+07
1.43197e+07
1.41858e+07
1.40592e+07
1.72607e+07
1.70281e+07
1.67566e+07
1.64983e+07
1.62602e+07
1.60397e+07
1.58331e+07
1.56379e+07
1.5452e+07
1.52742e+07
1.51037e+07
1.49401e+07
1.47832e+07
1.46329e+07
1.44892e+07
1.43522e+07
1.42222e+07
1.40991e+07
1.76196e+07
1.72147e+07
1.68511e+07
1.65491e+07
1.62899e+07
1.6059e+07
1.58477e+07
1.56507e+07
1.5465e+07
1.52886e+07
1.51206e+07
1.496e+07
1.48066e+07
1.46601e+07
1.45204e+07
1.43875e+07
1.42613e+07
1.41418e+07
1.83123e+07
1.74013e+07
1.6912e+07
1.65722e+07
1.63e+07
1.60647e+07
1.58526e+07
1.56569e+07
1.54735e+07
1.53003e+07
1.51359e+07
1.49793e+07
1.48302e+07
1.4688e+07
1.45527e+07
1.4424e+07
1.43019e+07
1.4186e+07
1.7459e+07
1.71207e+07
1.67912e+07
1.65069e+07
1.62593e+07
1.6038e+07
1.58356e+07
1.56475e+07
1.54709e+07
1.53039e+07
1.51453e+07
1.49944e+07
1.48506e+07
1.47137e+07
1.45833e+07
1.44592e+07
1.43412e+07
1.42292e+07
1.68847e+07
1.67461e+07
1.65557e+07
1.63543e+07
1.61566e+07
1.59671e+07
1.57865e+07
1.56144e+07
1.54503e+07
1.52935e+07
1.51437e+07
1.50006e+07
1.48638e+07
1.47331e+07
1.46084e+07
1.44895e+07
1.43762e+07
1.42683e+07
1.65561e+07
1.64769e+07
1.63507e+07
1.62015e+07
1.60431e+07
1.58828e+07
1.57241e+07
1.55688e+07
1.5418e+07
1.52721e+07
1.51313e+07
1.49958e+07
1.48656e+07
1.47407e+07
1.4621e+07
1.45065e+07
1.43972e+07
1.42927e+07
1.63683e+07
1.63113e+07
1.62146e+07
1.60934e+07
1.59586e+07
1.58174e+07
1.56739e+07
1.55308e+07
1.53899e+07
1.5252e+07
1.5118e+07
1.49881e+07
1.48628e+07
1.47421e+07
1.46261e+07
1.45148e+07
1.44082e+07
1.43061e+07
1.62438e+07
1.6198e+07
1.61175e+07
1.60132e+07
1.58939e+07
1.57659e+07
1.56334e+07
1.54994e+07
1.5366e+07
1.52344e+07
1.51055e+07
1.49801e+07
1.48585e+07
1.47411e+07
1.46278e+07
1.4519e+07
1.44145e+07
1.43143e+07
1.61596e+07
1.612e+07
1.60491e+07
1.59554e+07
1.58462e+07
1.57272e+07
1.56024e+07
1.5475e+07
1.53471e+07
1.52201e+07
1.50951e+07
1.4973e+07
1.48542e+07
1.47392e+07
1.4628e+07
1.4521e+07
1.4418e+07
1.43192e+07
1.61023e+07
1.60663e+07
1.60013e+07
1.59144e+07
1.58119e+07
1.5699e+07
1.55796e+07
1.54568e+07
1.53328e+07
1.52091e+07
1.50869e+07
1.49672e+07
1.48505e+07
1.47372e+07
1.46276e+07
1.45218e+07
1.442e+07
1.43221e+07
1.60634e+07
1.60298e+07
1.59685e+07
1.5886e+07
1.57879e+07
1.56791e+07
1.55634e+07
1.54437e+07
1.53224e+07
1.5201e+07
1.50809e+07
1.49628e+07
1.48475e+07
1.47355e+07
1.46269e+07
1.45221e+07
1.44211e+07
1.43239e+07
1.60376e+07
1.60054e+07
1.59465e+07
1.58668e+07
1.57715e+07
1.56654e+07
1.55522e+07
1.54346e+07
1.53151e+07
1.51954e+07
1.50765e+07
1.49597e+07
1.48454e+07
1.47341e+07
1.46263e+07
1.45221e+07
1.44216e+07
1.43249e+07
1.60211e+07
1.59897e+07
1.59323e+07
1.58543e+07
1.57609e+07
1.56565e+07
1.55448e+07
1.54286e+07
1.53103e+07
1.51916e+07
1.50736e+07
1.49575e+07
1.48438e+07
1.47332e+07
1.46258e+07
1.4522e+07
1.44219e+07
1.43255e+07
1.6011e+07
1.59802e+07
1.59236e+07
1.58467e+07
1.57544e+07
1.5651e+07
1.55402e+07
1.54249e+07
1.53074e+07
1.51892e+07
1.50718e+07
1.49561e+07
1.48429e+07
1.47325e+07
1.46255e+07
1.45219e+07
1.4422e+07
1.43258e+07
1.60056e+07
1.5975e+07
1.5919e+07
1.58426e+07
1.57508e+07
1.5648e+07
1.55378e+07
1.54229e+07
1.53057e+07
1.51879e+07
1.50708e+07
1.49554e+07
1.48423e+07
1.47322e+07
1.46253e+07
1.45218e+07
1.44221e+07
1.4326e+07
1.60034e+07
1.59729e+07
1.5917e+07
1.58409e+07
1.57494e+07
1.56468e+07
1.55367e+07
1.54221e+07
1.5305e+07
1.51874e+07
1.50704e+07
1.4955e+07
1.48421e+07
1.4732e+07
1.46252e+07
1.45218e+07
1.44221e+07
1.43261e+07
1.0781e+07
1.07809e+07
1.07806e+07
1.07802e+07
1.07797e+07
1.0779e+07
1.07783e+07
1.07774e+07
1.07765e+07
1.07754e+07
1.07743e+07
1.0773e+07
1.07717e+07
1.07703e+07
1.07688e+07
1.07672e+07
1.07655e+07
1.07638e+07
1.07619e+07
1.07601e+07
1.07581e+07
1.07561e+07
1.0754e+07
1.07519e+07
1.07497e+07
1.07475e+07
1.07453e+07
1.0743e+07
1.07408e+07
1.07384e+07
1.07361e+07
1.07338e+07
1.07314e+07
1.07291e+07
1.07267e+07
1.07243e+07
1.0722e+07
1.07196e+07
1.07172e+07
1.07149e+07
1.07125e+07
1.07102e+07
1.07078e+07
1.07055e+07
1.07032e+07
1.07008e+07
1.06985e+07
1.06962e+07
1.06939e+07
1.06915e+07
1.06892e+07
1.06869e+07
1.06846e+07
1.06823e+07
1.068e+07
1.06777e+07
1.06753e+07
1.0673e+07
1.06707e+07
1.06684e+07
1.06661e+07
1.06637e+07
1.06614e+07
1.06591e+07
1.06567e+07
1.06544e+07
1.0652e+07
1.06496e+07
1.06473e+07
1.06449e+07
1.06425e+07
1.06401e+07
1.06377e+07
1.06353e+07
1.06328e+07
1.06304e+07
1.06279e+07
1.06255e+07
1.0623e+07
1.06205e+07
1.0618e+07
1.06155e+07
1.0613e+07
1.06104e+07
1.06079e+07
1.06053e+07
1.06027e+07
1.06001e+07
1.05975e+07
1.05948e+07
1.05922e+07
1.05895e+07
1.05868e+07
1.05841e+07
1.05814e+07
1.05786e+07
1.05759e+07
1.05731e+07
1.05703e+07
1.05675e+07
1.05646e+07
1.05618e+07
1.05589e+07
1.0556e+07
1.05531e+07
1.05501e+07
1.05472e+07
1.05442e+07
1.05412e+07
1.05382e+07
1.05351e+07
1.0532e+07
1.05289e+07
1.05258e+07
1.05227e+07
1.05195e+07
1.05163e+07
1.05131e+07
1.05099e+07
1.05066e+07
1.05033e+07
1.05e+07
1.04967e+07
1.04933e+07
1.04899e+07
1.04865e+07
1.04831e+07
1.04796e+07
1.04761e+07
1.04726e+07
1.04691e+07
1.04655e+07
1.04619e+07
1.04583e+07
1.04546e+07
1.04509e+07
1.04472e+07
1.04435e+07
1.04397e+07
1.04359e+07
1.04321e+07
1.04282e+07
1.04243e+07
1.04204e+07
1.04164e+07
1.04125e+07
1.04085e+07
1.04044e+07
1.04003e+07
1.03962e+07
1.03921e+07
1.03879e+07
1.03837e+07
1.03795e+07
1.03752e+07
1.03709e+07
1.03666e+07
1.03622e+07
1.03578e+07
1.03534e+07
1.03489e+07
1.03444e+07
1.03399e+07
1.03353e+07
1.03307e+07
1.03261e+07
1.03214e+07
1.03167e+07
1.03119e+07
1.03072e+07
1.03023e+07
1.02975e+07
1.02926e+07
1.02877e+07
1.02828e+07
1.02778e+07
1.02728e+07
1.02678e+07
1.02628e+07
1.02579e+07
1.07817e+07
1.07815e+07
1.07812e+07
1.07807e+07
1.07802e+07
1.07795e+07
1.07787e+07
1.07778e+07
1.07768e+07
1.07758e+07
1.07746e+07
1.07734e+07
1.0772e+07
1.07705e+07
1.0769e+07
1.07674e+07
1.07657e+07
1.0764e+07
1.07621e+07
1.07602e+07
1.07583e+07
1.07562e+07
1.07541e+07
1.0752e+07
1.07498e+07
1.07476e+07
1.07453e+07
1.07431e+07
1.07408e+07
1.07384e+07
1.07361e+07
1.07337e+07
1.07314e+07
1.0729e+07
1.07267e+07
1.07243e+07
1.07219e+07
1.07196e+07
1.07172e+07
1.07148e+07
1.07125e+07
1.07101e+07
1.07078e+07
1.07054e+07
1.07031e+07
1.07008e+07
1.06985e+07
1.06961e+07
1.06938e+07
1.06915e+07
1.06892e+07
1.06869e+07
1.06846e+07
1.06823e+07
1.06799e+07
1.06776e+07
1.06753e+07
1.0673e+07
1.06707e+07
1.06684e+07
1.0666e+07
1.06637e+07
1.06614e+07
1.0659e+07
1.06567e+07
1.06543e+07
1.0652e+07
1.06496e+07
1.06473e+07
1.06449e+07
1.06425e+07
1.06401e+07
1.06377e+07
1.06353e+07
1.06328e+07
1.06304e+07
1.06279e+07
1.06255e+07
1.0623e+07
1.06205e+07
1.0618e+07
1.06155e+07
1.06129e+07
1.06104e+07
1.06078e+07
1.06053e+07
1.06027e+07
1.06001e+07
1.05975e+07
1.05948e+07
1.05922e+07
1.05895e+07
1.05868e+07
1.05841e+07
1.05814e+07
1.05786e+07
1.05759e+07
1.05731e+07
1.05703e+07
1.05675e+07
1.05646e+07
1.05618e+07
1.05589e+07
1.0556e+07
1.05531e+07
1.05501e+07
1.05472e+07
1.05442e+07
1.05412e+07
1.05382e+07
1.05351e+07
1.0532e+07
1.05289e+07
1.05258e+07
1.05227e+07
1.05195e+07
1.05163e+07
1.05131e+07
1.05099e+07
1.05066e+07
1.05033e+07
1.05e+07
1.04967e+07
1.04933e+07
1.04899e+07
1.04865e+07
1.04831e+07
1.04796e+07
1.04761e+07
1.04726e+07
1.04691e+07
1.04655e+07
1.04619e+07
1.04583e+07
1.04546e+07
1.04509e+07
1.04472e+07
1.04435e+07
1.04397e+07
1.04359e+07
1.04321e+07
1.04282e+07
1.04243e+07
1.04204e+07
1.04164e+07
1.04125e+07
1.04085e+07
1.04044e+07
1.04003e+07
1.03962e+07
1.03921e+07
1.03879e+07
1.03837e+07
1.03795e+07
1.03752e+07
1.03709e+07
1.03666e+07
1.03622e+07
1.03578e+07
1.03534e+07
1.03489e+07
1.03444e+07
1.03399e+07
1.03353e+07
1.03307e+07
1.03261e+07
1.03214e+07
1.03167e+07
1.03119e+07
1.03072e+07
1.03023e+07
1.02975e+07
1.02926e+07
1.02877e+07
1.02828e+07
1.02778e+07
1.02728e+07
1.02678e+07
1.02628e+07
1.02579e+07
1.07858e+07
1.07854e+07
1.07847e+07
1.07835e+07
1.07822e+07
1.07804e+07
1.07794e+07
1.07784e+07
1.07775e+07
1.07766e+07
1.07754e+07
1.0774e+07
1.07725e+07
1.0771e+07
1.07694e+07
1.07678e+07
1.07662e+07
1.07644e+07
1.07625e+07
1.07606e+07
1.07585e+07
1.07565e+07
1.07543e+07
1.07522e+07
1.07499e+07
1.07477e+07
1.07454e+07
1.07431e+07
1.07408e+07
1.07384e+07
1.07361e+07
1.07337e+07
1.07313e+07
1.07289e+07
1.07266e+07
1.07242e+07
1.07218e+07
1.07194e+07
1.07171e+07
1.07147e+07
1.07124e+07
1.071e+07
1.07077e+07
1.07053e+07
1.0703e+07
1.07007e+07
1.06984e+07
1.0696e+07
1.06937e+07
1.06914e+07
1.06891e+07
1.06868e+07
1.06845e+07
1.06822e+07
1.06799e+07
1.06776e+07
1.06753e+07
1.06729e+07
1.06706e+07
1.06683e+07
1.0666e+07
1.06637e+07
1.06613e+07
1.0659e+07
1.06567e+07
1.06543e+07
1.0652e+07
1.06496e+07
1.06472e+07
1.06448e+07
1.06425e+07
1.06401e+07
1.06376e+07
1.06352e+07
1.06328e+07
1.06304e+07
1.06279e+07
1.06254e+07
1.0623e+07
1.06205e+07
1.0618e+07
1.06155e+07
1.06129e+07
1.06104e+07
1.06078e+07
1.06053e+07
1.06027e+07
1.06001e+07
1.05974e+07
1.05948e+07
1.05922e+07
1.05895e+07
1.05868e+07
1.05841e+07
1.05814e+07
1.05786e+07
1.05759e+07
1.05731e+07
1.05703e+07
1.05675e+07
1.05646e+07
1.05618e+07
1.05589e+07
1.0556e+07
1.05531e+07
1.05501e+07
1.05472e+07
1.05442e+07
1.05412e+07
1.05381e+07
1.05351e+07
1.0532e+07
1.05289e+07
1.05258e+07
1.05227e+07
1.05195e+07
1.05163e+07
1.05131e+07
1.05099e+07
1.05066e+07
1.05033e+07
1.05e+07
1.04967e+07
1.04933e+07
1.04899e+07
1.04865e+07
1.04831e+07
1.04796e+07
1.04761e+07
1.04726e+07
1.0469e+07
1.04655e+07
1.04619e+07
1.04582e+07
1.04546e+07
1.04509e+07
1.04472e+07
1.04435e+07
1.04397e+07
1.04359e+07
1.04321e+07
1.04282e+07
1.04243e+07
1.04204e+07
1.04164e+07
1.04125e+07
1.04084e+07
1.04044e+07
1.04003e+07
1.03962e+07
1.03921e+07
1.03879e+07
1.03837e+07
1.03795e+07
1.03752e+07
1.03709e+07
1.03666e+07
1.03622e+07
1.03578e+07
1.03534e+07
1.03489e+07
1.03444e+07
1.03399e+07
1.03353e+07
1.03307e+07
1.03261e+07
1.03214e+07
1.03167e+07
1.03119e+07
1.03071e+07
1.03023e+07
1.02975e+07
1.02926e+07
1.02877e+07
1.02827e+07
1.02778e+07
1.02728e+07
1.02678e+07
1.02628e+07
1.02578e+07
1.08695e+07
1.08688e+07
1.08677e+07
1.08661e+07
1.08641e+07
1.08618e+07
1.08601e+07
1.08441e+07
1.08122e+07
1.07843e+07
1.07777e+07
1.07749e+07
1.07732e+07
1.07716e+07
1.077e+07
1.07685e+07
1.0767e+07
1.07652e+07
1.07632e+07
1.07611e+07
1.0759e+07
1.07568e+07
1.07546e+07
1.07524e+07
1.07501e+07
1.07478e+07
1.07455e+07
1.07431e+07
1.07408e+07
1.07384e+07
1.0736e+07
1.07336e+07
1.07312e+07
1.07288e+07
1.07264e+07
1.0724e+07
1.07217e+07
1.07193e+07
1.07169e+07
1.07146e+07
1.07122e+07
1.07099e+07
1.07075e+07
1.07052e+07
1.07029e+07
1.07005e+07
1.06982e+07
1.06959e+07
1.06936e+07
1.06913e+07
1.0689e+07
1.06867e+07
1.06844e+07
1.06821e+07
1.06798e+07
1.06775e+07
1.06752e+07
1.06729e+07
1.06705e+07
1.06682e+07
1.06659e+07
1.06636e+07
1.06613e+07
1.06589e+07
1.06566e+07
1.06543e+07
1.06519e+07
1.06495e+07
1.06472e+07
1.06448e+07
1.06424e+07
1.064e+07
1.06376e+07
1.06352e+07
1.06328e+07
1.06303e+07
1.06279e+07
1.06254e+07
1.06229e+07
1.06205e+07
1.0618e+07
1.06154e+07
1.06129e+07
1.06104e+07
1.06078e+07
1.06052e+07
1.06027e+07
1.06e+07
1.05974e+07
1.05948e+07
1.05921e+07
1.05895e+07
1.05868e+07
1.05841e+07
1.05813e+07
1.05786e+07
1.05758e+07
1.05731e+07
1.05703e+07
1.05675e+07
1.05646e+07
1.05618e+07
1.05589e+07
1.0556e+07
1.05531e+07
1.05501e+07
1.05472e+07
1.05442e+07
1.05412e+07
1.05381e+07
1.05351e+07
1.0532e+07
1.05289e+07
1.05258e+07
1.05227e+07
1.05195e+07
1.05163e+07
1.05131e+07
1.05099e+07
1.05066e+07
1.05033e+07
1.05e+07
1.04967e+07
1.04933e+07
1.04899e+07
1.04865e+07
1.04831e+07
1.04796e+07
1.04761e+07
1.04726e+07
1.0469e+07
1.04655e+07
1.04619e+07
1.04582e+07
1.04546e+07
1.04509e+07
1.04472e+07
1.04434e+07
1.04397e+07
1.04359e+07
1.04321e+07
1.04282e+07
1.04243e+07
1.04204e+07
1.04164e+07
1.04125e+07
1.04084e+07
1.04044e+07
1.04003e+07
1.03962e+07
1.03921e+07
1.03879e+07
1.03837e+07
1.03795e+07
1.03752e+07
1.03709e+07
1.03666e+07
1.03622e+07
1.03578e+07
1.03534e+07
1.03489e+07
1.03444e+07
1.03399e+07
1.03353e+07
1.03307e+07
1.03261e+07
1.03214e+07
1.03167e+07
1.03119e+07
1.03071e+07
1.03023e+07
1.02975e+07
1.02926e+07
1.02877e+07
1.02827e+07
1.02778e+07
1.02728e+07
1.02678e+07
1.02627e+07
1.02577e+07
1.09466e+07
1.09457e+07
1.09441e+07
1.09417e+07
1.09382e+07
1.09335e+07
1.0927e+07
1.09177e+07
1.09069e+07
1.08992e+07
1.08998e+07
1.09126e+07
1.09117e+07
1.08985e+07
1.08719e+07
1.08274e+07
1.07736e+07
1.07667e+07
1.0764e+07
1.07616e+07
1.07594e+07
1.07573e+07
1.07551e+07
1.07526e+07
1.07503e+07
1.0748e+07
1.07456e+07
1.07432e+07
1.07408e+07
1.07384e+07
1.07359e+07
1.07335e+07
1.07311e+07
1.07286e+07
1.07262e+07
1.07238e+07
1.07214e+07
1.07191e+07
1.07167e+07
1.07143e+07
1.0712e+07
1.07096e+07
1.07073e+07
1.0705e+07
1.07027e+07
1.07003e+07
1.0698e+07
1.06957e+07
1.06934e+07
1.06911e+07
1.06888e+07
1.06865e+07
1.06842e+07
1.06819e+07
1.06796e+07
1.06773e+07
1.0675e+07
1.06727e+07
1.06704e+07
1.06681e+07
1.06658e+07
1.06635e+07
1.06612e+07
1.06589e+07
1.06565e+07
1.06542e+07
1.06518e+07
1.06495e+07
1.06471e+07
1.06447e+07
1.06424e+07
1.064e+07
1.06376e+07
1.06351e+07
1.06327e+07
1.06303e+07
1.06278e+07
1.06254e+07
1.06229e+07
1.06204e+07
1.06179e+07
1.06154e+07
1.06129e+07
1.06103e+07
1.06078e+07
1.06052e+07
1.06026e+07
1.06e+07
1.05974e+07
1.05948e+07
1.05921e+07
1.05895e+07
1.05868e+07
1.05841e+07
1.05813e+07
1.05786e+07
1.05758e+07
1.05731e+07
1.05703e+07
1.05674e+07
1.05646e+07
1.05617e+07
1.05589e+07
1.0556e+07
1.05531e+07
1.05501e+07
1.05471e+07
1.05442e+07
1.05412e+07
1.05381e+07
1.05351e+07
1.0532e+07
1.05289e+07
1.05258e+07
1.05227e+07
1.05195e+07
1.05163e+07
1.05131e+07
1.05099e+07
1.05066e+07
1.05033e+07
1.05e+07
1.04967e+07
1.04933e+07
1.04899e+07
1.04865e+07
1.04831e+07
1.04796e+07
1.04761e+07
1.04726e+07
1.0469e+07
1.04655e+07
1.04619e+07
1.04582e+07
1.04546e+07
1.04509e+07
1.04472e+07
1.04434e+07
1.04397e+07
1.04359e+07
1.0432e+07
1.04282e+07
1.04243e+07
1.04204e+07
1.04164e+07
1.04125e+07
1.04084e+07
1.04044e+07
1.04003e+07
1.03962e+07
1.03921e+07
1.03879e+07
1.03837e+07
1.03795e+07
1.03752e+07
1.03709e+07
1.03666e+07
1.03622e+07
1.03578e+07
1.03534e+07
1.03489e+07
1.03444e+07
1.03399e+07
1.03353e+07
1.03307e+07
1.03261e+07
1.03214e+07
1.03167e+07
1.03119e+07
1.03071e+07
1.03023e+07
1.02975e+07
1.02926e+07
1.02877e+07
1.02827e+07
1.02777e+07
1.02727e+07
1.02677e+07
1.02627e+07
1.02576e+07
1.1023e+07
1.1022e+07
1.10201e+07
1.10173e+07
1.10136e+07
1.10087e+07
1.10028e+07
1.09959e+07
1.09885e+07
1.09817e+07
1.0976e+07
1.09708e+07
1.09624e+07
1.09495e+07
1.09319e+07
1.09113e+07
1.08927e+07
1.08853e+07
1.08909e+07
1.0881e+07
1.08561e+07
1.0812e+07
1.07582e+07
1.07526e+07
1.07504e+07
1.07481e+07
1.07458e+07
1.07433e+07
1.07408e+07
1.07383e+07
1.07358e+07
1.07333e+07
1.07308e+07
1.07284e+07
1.07259e+07
1.07235e+07
1.07211e+07
1.07188e+07
1.07164e+07
1.0714e+07
1.07117e+07
1.07094e+07
1.0707e+07
1.07047e+07
1.07024e+07
1.07001e+07
1.06978e+07
1.06955e+07
1.06932e+07
1.06909e+07
1.06886e+07
1.06863e+07
1.06841e+07
1.06818e+07
1.06795e+07
1.06772e+07
1.06749e+07
1.06726e+07
1.06703e+07
1.0668e+07
1.06657e+07
1.06634e+07
1.06611e+07
1.06588e+07
1.06564e+07
1.06541e+07
1.06517e+07
1.06494e+07
1.0647e+07
1.06447e+07
1.06423e+07
1.06399e+07
1.06375e+07
1.06351e+07
1.06327e+07
1.06302e+07
1.06278e+07
1.06253e+07
1.06229e+07
1.06204e+07
1.06179e+07
1.06154e+07
1.06129e+07
1.06103e+07
1.06078e+07
1.06052e+07
1.06026e+07
1.06e+07
1.05974e+07
1.05948e+07
1.05921e+07
1.05894e+07
1.05867e+07
1.0584e+07
1.05813e+07
1.05786e+07
1.05758e+07
1.0573e+07
1.05702e+07
1.05674e+07
1.05646e+07
1.05617e+07
1.05589e+07
1.0556e+07
1.0553e+07
1.05501e+07
1.05471e+07
1.05442e+07
1.05412e+07
1.05381e+07
1.05351e+07
1.0532e+07
1.05289e+07
1.05258e+07
1.05227e+07
1.05195e+07
1.05163e+07
1.05131e+07
1.05099e+07
1.05066e+07
1.05033e+07
1.05e+07
1.04967e+07
1.04933e+07
1.04899e+07
1.04865e+07
1.04831e+07
1.04796e+07
1.04761e+07
1.04726e+07
1.0469e+07
1.04655e+07
1.04619e+07
1.04582e+07
1.04546e+07
1.04509e+07
1.04472e+07
1.04434e+07
1.04397e+07
1.04359e+07
1.0432e+07
1.04282e+07
1.04243e+07
1.04204e+07
1.04164e+07
1.04124e+07
1.04084e+07
1.04044e+07
1.04003e+07
1.03962e+07
1.03921e+07
1.03879e+07
1.03837e+07
1.03795e+07
1.03752e+07
1.03709e+07
1.03666e+07
1.03622e+07
1.03578e+07
1.03534e+07
1.03489e+07
1.03444e+07
1.03399e+07
1.03353e+07
1.03307e+07
1.03261e+07
1.03214e+07
1.03167e+07
1.03119e+07
1.03071e+07
1.03023e+07
1.02975e+07
1.02926e+07
1.02877e+07
1.02827e+07
1.02777e+07
1.02727e+07
1.02677e+07
1.02626e+07
1.02576e+07
1.11008e+07
1.10997e+07
1.10977e+07
1.10948e+07
1.1091e+07
1.10861e+07
1.10803e+07
1.10737e+07
1.10664e+07
1.10585e+07
1.10501e+07
1.10409e+07
1.10302e+07
1.10176e+07
1.10033e+07
1.09881e+07
1.09733e+07
1.09603e+07
1.09483e+07
1.09331e+07
1.09138e+07
1.08915e+07
1.08722e+07
1.08668e+07
1.08461e+07
1.08088e+07
1.07514e+07
1.07432e+07
1.07406e+07
1.07382e+07
1.07355e+07
1.0733e+07
1.07305e+07
1.0728e+07
1.07256e+07
1.07231e+07
1.07208e+07
1.07184e+07
1.0716e+07
1.07137e+07
1.07113e+07
1.0709e+07
1.07067e+07
1.07044e+07
1.07021e+07
1.06998e+07
1.06975e+07
1.06952e+07
1.06929e+07
1.06907e+07
1.06884e+07
1.06861e+07
1.06838e+07
1.06816e+07
1.06793e+07
1.0677e+07
1.06747e+07
1.06724e+07
1.06702e+07
1.06679e+07
1.06656e+07
1.06633e+07
1.0661e+07
1.06586e+07
1.06563e+07
1.0654e+07
1.06516e+07
1.06493e+07
1.06469e+07
1.06446e+07
1.06422e+07
1.06398e+07
1.06374e+07
1.0635e+07
1.06326e+07
1.06302e+07
1.06277e+07
1.06253e+07
1.06228e+07
1.06203e+07
1.06178e+07
1.06153e+07
1.06128e+07
1.06103e+07
1.06077e+07
1.06052e+07
1.06026e+07
1.06e+07
1.05974e+07
1.05947e+07
1.05921e+07
1.05894e+07
1.05867e+07
1.0584e+07
1.05813e+07
1.05786e+07
1.05758e+07
1.0573e+07
1.05702e+07
1.05674e+07
1.05646e+07
1.05617e+07
1.05588e+07
1.05559e+07
1.0553e+07
1.05501e+07
1.05471e+07
1.05441e+07
1.05411e+07
1.05381e+07
1.05351e+07
1.0532e+07
1.05289e+07
1.05258e+07
1.05226e+07
1.05195e+07
1.05163e+07
1.05131e+07
1.05098e+07
1.05066e+07
1.05033e+07
1.05e+07
1.04967e+07
1.04933e+07
1.04899e+07
1.04865e+07
1.04831e+07
1.04796e+07
1.04761e+07
1.04726e+07
1.0469e+07
1.04655e+07
1.04619e+07
1.04582e+07
1.04546e+07
1.04509e+07
1.04472e+07
1.04434e+07
1.04397e+07
1.04359e+07
1.0432e+07
1.04282e+07
1.04243e+07
1.04204e+07
1.04164e+07
1.04124e+07
1.04084e+07
1.04044e+07
1.04003e+07
1.03962e+07
1.03921e+07
1.03879e+07
1.03837e+07
1.03795e+07
1.03752e+07
1.03709e+07
1.03666e+07
1.03622e+07
1.03578e+07
1.03534e+07
1.03489e+07
1.03444e+07
1.03399e+07
1.03353e+07
1.03307e+07
1.03261e+07
1.03214e+07
1.03167e+07
1.03119e+07
1.03071e+07
1.03023e+07
1.02975e+07
1.02926e+07
1.02876e+07
1.02827e+07
1.02777e+07
1.02727e+07
1.02676e+07
1.02626e+07
1.02575e+07
1.11808e+07
1.11797e+07
1.11776e+07
1.11745e+07
1.11705e+07
1.11655e+07
1.11595e+07
1.11526e+07
1.11448e+07
1.11361e+07
1.11265e+07
1.11159e+07
1.11042e+07
1.10913e+07
1.10774e+07
1.10626e+07
1.10474e+07
1.1032e+07
1.10159e+07
1.09986e+07
1.09798e+07
1.096e+07
1.094e+07
1.09202e+07
1.08967e+07
1.08688e+07
1.08385e+07
1.08131e+07
1.07873e+07
1.0741e+07
1.07348e+07
1.07325e+07
1.073e+07
1.07275e+07
1.07251e+07
1.07227e+07
1.07203e+07
1.07179e+07
1.07156e+07
1.07132e+07
1.07109e+07
1.07086e+07
1.07063e+07
1.0704e+07
1.07017e+07
1.06995e+07
1.06972e+07
1.06949e+07
1.06926e+07
1.06904e+07
1.06881e+07
1.06859e+07
1.06836e+07
1.06813e+07
1.06791e+07
1.06768e+07
1.06745e+07
1.06723e+07
1.067e+07
1.06677e+07
1.06654e+07
1.06631e+07
1.06608e+07
1.06585e+07
1.06562e+07
1.06539e+07
1.06515e+07
1.06492e+07
1.06468e+07
1.06445e+07
1.06421e+07
1.06397e+07
1.06373e+07
1.06349e+07
1.06325e+07
1.06301e+07
1.06277e+07
1.06252e+07
1.06228e+07
1.06203e+07
1.06178e+07
1.06153e+07
1.06128e+07
1.06102e+07
1.06077e+07
1.06051e+07
1.06025e+07
1.05999e+07
1.05973e+07
1.05947e+07
1.0592e+07
1.05894e+07
1.05867e+07
1.0584e+07
1.05813e+07
1.05785e+07
1.05758e+07
1.0573e+07
1.05702e+07
1.05674e+07
1.05646e+07
1.05617e+07
1.05588e+07
1.05559e+07
1.0553e+07
1.05501e+07
1.05471e+07
1.05441e+07
1.05411e+07
1.05381e+07
1.05351e+07
1.0532e+07
1.05289e+07
1.05258e+07
1.05226e+07
1.05195e+07
1.05163e+07
1.05131e+07
1.05098e+07
1.05066e+07
1.05033e+07
1.05e+07
1.04967e+07
1.04933e+07
1.04899e+07
1.04865e+07
1.04831e+07
1.04796e+07
1.04761e+07
1.04726e+07
1.0469e+07
1.04655e+07
1.04619e+07
1.04582e+07
1.04546e+07
1.04509e+07
1.04472e+07
1.04434e+07
1.04397e+07
1.04359e+07
1.0432e+07
1.04282e+07
1.04243e+07
1.04204e+07
1.04164e+07
1.04124e+07
1.04084e+07
1.04044e+07
1.04003e+07
1.03962e+07
1.03921e+07
1.03879e+07
1.03837e+07
1.03795e+07
1.03752e+07
1.03709e+07
1.03666e+07
1.03622e+07
1.03578e+07
1.03534e+07
1.03489e+07
1.03444e+07
1.03399e+07
1.03353e+07
1.03307e+07
1.0326e+07
1.03214e+07
1.03167e+07
1.03119e+07
1.03071e+07
1.03023e+07
1.02974e+07
1.02926e+07
1.02876e+07
1.02827e+07
1.02777e+07
1.02727e+07
1.02676e+07
1.02625e+07
1.02574e+07
1.12635e+07
1.12623e+07
1.126e+07
1.12568e+07
1.12525e+07
1.12472e+07
1.12409e+07
1.12335e+07
1.12251e+07
1.12157e+07
1.12053e+07
1.11939e+07
1.11814e+07
1.11678e+07
1.11533e+07
1.11379e+07
1.11216e+07
1.11046e+07
1.10868e+07
1.1068e+07
1.10481e+07
1.10273e+07
1.10055e+07
1.09827e+07
1.09582e+07
1.0932e+07
1.09044e+07
1.08765e+07
1.08473e+07
1.08152e+07
1.07839e+07
1.07428e+07
1.07293e+07
1.07269e+07
1.07245e+07
1.07221e+07
1.07197e+07
1.07174e+07
1.0715e+07
1.07127e+07
1.07104e+07
1.07081e+07
1.07058e+07
1.07036e+07
1.07013e+07
1.06991e+07
1.06968e+07
1.06946e+07
1.06923e+07
1.06901e+07
1.06878e+07
1.06856e+07
1.06833e+07
1.06811e+07
1.06788e+07
1.06766e+07
1.06743e+07
1.0672e+07
1.06698e+07
1.06675e+07
1.06652e+07
1.06629e+07
1.06606e+07
1.06583e+07
1.0656e+07
1.06537e+07
1.06514e+07
1.06491e+07
1.06467e+07
1.06444e+07
1.0642e+07
1.06396e+07
1.06373e+07
1.06349e+07
1.06325e+07
1.063e+07
1.06276e+07
1.06252e+07
1.06227e+07
1.06202e+07
1.06177e+07
1.06152e+07
1.06127e+07
1.06102e+07
1.06076e+07
1.06051e+07
1.06025e+07
1.05999e+07
1.05973e+07
1.05947e+07
1.0592e+07
1.05894e+07
1.05867e+07
1.0584e+07
1.05813e+07
1.05785e+07
1.05758e+07
1.0573e+07
1.05702e+07
1.05674e+07
1.05645e+07
1.05617e+07
1.05588e+07
1.05559e+07
1.0553e+07
1.05501e+07
1.05471e+07
1.05441e+07
1.05411e+07
1.05381e+07
1.05351e+07
1.0532e+07
1.05289e+07
1.05258e+07
1.05226e+07
1.05195e+07
1.05163e+07
1.05131e+07
1.05098e+07
1.05066e+07
1.05033e+07
1.05e+07
1.04966e+07
1.04933e+07
1.04899e+07
1.04865e+07
1.0483e+07
1.04796e+07
1.04761e+07
1.04726e+07
1.0469e+07
1.04655e+07
1.04619e+07
1.04582e+07
1.04546e+07
1.04509e+07
1.04472e+07
1.04434e+07
1.04397e+07
1.04359e+07
1.0432e+07
1.04282e+07
1.04243e+07
1.04204e+07
1.04164e+07
1.04124e+07
1.04084e+07
1.04044e+07
1.04003e+07
1.03962e+07
1.03921e+07
1.03879e+07
1.03837e+07
1.03795e+07
1.03752e+07
1.03709e+07
1.03666e+07
1.03622e+07
1.03578e+07
1.03534e+07
1.03489e+07
1.03444e+07
1.03399e+07
1.03353e+07
1.03307e+07
1.0326e+07
1.03214e+07
1.03166e+07
1.03119e+07
1.03071e+07
1.03023e+07
1.02974e+07
1.02925e+07
1.02876e+07
1.02826e+07
1.02777e+07
1.02726e+07
1.02676e+07
1.02625e+07
1.02573e+07
1.13493e+07
1.1348e+07
1.13455e+07
1.1342e+07
1.13374e+07
1.13317e+07
1.13249e+07
1.1317e+07
1.1308e+07
1.12979e+07
1.12867e+07
1.12744e+07
1.1261e+07
1.12465e+07
1.12311e+07
1.12146e+07
1.11972e+07
1.11789e+07
1.11596e+07
1.11394e+07
1.11182e+07
1.1096e+07
1.10727e+07
1.10484e+07
1.10229e+07
1.09962e+07
1.09684e+07
1.09396e+07
1.09097e+07
1.08786e+07
1.08466e+07
1.08128e+07
1.07789e+07
1.0735e+07
1.07237e+07
1.07214e+07
1.0719e+07
1.07167e+07
1.07144e+07
1.07121e+07
1.07098e+07
1.07076e+07
1.07053e+07
1.07031e+07
1.07008e+07
1.06986e+07
1.06964e+07
1.06942e+07
1.06919e+07
1.06897e+07
1.06875e+07
1.06852e+07
1.0683e+07
1.06808e+07
1.06785e+07
1.06763e+07
1.06741e+07
1.06718e+07
1.06696e+07
1.06673e+07
1.0665e+07
1.06628e+07
1.06605e+07
1.06582e+07
1.06559e+07
1.06536e+07
1.06513e+07
1.06489e+07
1.06466e+07
1.06443e+07
1.06419e+07
1.06395e+07
1.06372e+07
1.06348e+07
1.06324e+07
1.06299e+07
1.06275e+07
1.06251e+07
1.06226e+07
1.06202e+07
1.06177e+07
1.06152e+07
1.06127e+07
1.06101e+07
1.06076e+07
1.0605e+07
1.06025e+07
1.05999e+07
1.05973e+07
1.05946e+07
1.0592e+07
1.05893e+07
1.05866e+07
1.05839e+07
1.05812e+07
1.05785e+07
1.05757e+07
1.0573e+07
1.05702e+07
1.05674e+07
1.05645e+07
1.05617e+07
1.05588e+07
1.05559e+07
1.0553e+07
1.05501e+07
1.05471e+07
1.05441e+07
1.05411e+07
1.05381e+07
1.0535e+07
1.0532e+07
1.05289e+07
1.05258e+07
1.05226e+07
1.05195e+07
1.05163e+07
1.05131e+07
1.05098e+07
1.05066e+07
1.05033e+07
1.05e+07
1.04966e+07
1.04933e+07
1.04899e+07
1.04865e+07
1.0483e+07
1.04796e+07
1.04761e+07
1.04726e+07
1.0469e+07
1.04655e+07
1.04619e+07
1.04582e+07
1.04546e+07
1.04509e+07
1.04472e+07
1.04434e+07
1.04397e+07
1.04359e+07
1.0432e+07
1.04282e+07
1.04243e+07
1.04204e+07
1.04164e+07
1.04124e+07
1.04084e+07
1.04044e+07
1.04003e+07
1.03962e+07
1.03921e+07
1.03879e+07
1.03837e+07
1.03795e+07
1.03752e+07
1.03709e+07
1.03666e+07
1.03622e+07
1.03578e+07
1.03534e+07
1.03489e+07
1.03444e+07
1.03399e+07
1.03353e+07
1.03307e+07
1.0326e+07
1.03214e+07
1.03166e+07
1.03119e+07
1.03071e+07
1.03023e+07
1.02974e+07
1.02925e+07
1.02876e+07
1.02826e+07
1.02776e+07
1.02726e+07
1.02675e+07
1.02624e+07
1.02572e+07
1.14387e+07
1.14371e+07
1.14345e+07
1.14306e+07
1.14256e+07
1.14195e+07
1.14121e+07
1.14035e+07
1.13937e+07
1.13828e+07
1.13707e+07
1.13574e+07
1.1343e+07
1.13275e+07
1.13109e+07
1.12933e+07
1.12746e+07
1.12549e+07
1.12343e+07
1.12126e+07
1.11899e+07
1.11663e+07
1.11416e+07
1.11159e+07
1.10892e+07
1.10615e+07
1.10328e+07
1.10031e+07
1.09724e+07
1.09408e+07
1.09083e+07
1.08748e+07
1.08404e+07
1.08046e+07
1.07691e+07
1.07229e+07
1.07181e+07
1.07159e+07
1.07137e+07
1.07115e+07
1.07092e+07
1.0707e+07
1.07048e+07
1.07025e+07
1.07003e+07
1.06981e+07
1.06959e+07
1.06937e+07
1.06915e+07
1.06893e+07
1.06871e+07
1.06849e+07
1.06827e+07
1.06805e+07
1.06782e+07
1.0676e+07
1.06738e+07
1.06715e+07
1.06693e+07
1.06671e+07
1.06648e+07
1.06625e+07
1.06603e+07
1.0658e+07
1.06557e+07
1.06534e+07
1.06511e+07
1.06488e+07
1.06465e+07
1.06441e+07
1.06418e+07
1.06394e+07
1.0637e+07
1.06347e+07
1.06323e+07
1.06299e+07
1.06274e+07
1.0625e+07
1.06225e+07
1.06201e+07
1.06176e+07
1.06151e+07
1.06126e+07
1.06101e+07
1.06075e+07
1.0605e+07
1.06024e+07
1.05998e+07
1.05972e+07
1.05946e+07
1.05919e+07
1.05893e+07
1.05866e+07
1.05839e+07
1.05812e+07
1.05785e+07
1.05757e+07
1.05729e+07
1.05702e+07
1.05673e+07
1.05645e+07
1.05617e+07
1.05588e+07
1.05559e+07
1.0553e+07
1.055e+07
1.05471e+07
1.05441e+07
1.05411e+07
1.05381e+07
1.0535e+07
1.0532e+07
1.05289e+07
1.05258e+07
1.05226e+07
1.05195e+07
1.05163e+07
1.05131e+07
1.05098e+07
1.05066e+07
1.05033e+07
1.05e+07
1.04966e+07
1.04933e+07
1.04899e+07
1.04865e+07
1.0483e+07