/*--------------------------------*- C++ -*----------------------------------*\
  =========                 |
  \\      /  F ield         | OpenFOAM: The Open Source CFD Toolbox
   \\    /   O peration     | Website:  https://openfoam.org
    \\  /    A nd           | Version:  10
     \\/     M anipulation  |
\*---------------------------------------------------------------------------*/
FoamFile
{
    format      ascii;
    class       volVectorField;
    location    "0.027";
    object      UMean;
}
// * * * * * * * * * * * * * * * * * * * * * * * * * * * * * * * * * * * * * //

dimensions      [0 1 -1 0 0 0 0];

internalField   nonuniform List<vector> 
12225
(
(9.85017 0.0468237 0)
(9.57653 0.061731 0)
(9.28886 0.059112 0)
(8.9925 0.0570905 0)
(8.70459 0.0556586 0)
(8.43181 0.0543485 0)
(8.17468 0.0520834 0)
(7.93146 0.050734 0)
(7.70079 0.0477555 0)
(7.48184 0.0477501 0)
(7.27275 0.0434078 0)
(7.07561 0.0466976 0)
(6.88251 0.0381699 0)
(6.70803 0.0495648 0)
(6.52111 0.0291559 0)
(6.38113 0.0609928 0)
(6.18518 0.00481056 0)
(6.12842 0.0772667 0)
(9.98843 0.0500029 0)
(10.0675 0.07124 0)
(10.1141 0.0701776 0)
(10.129 0.0705682 0)
(10.1278 0.0729126 0)
(10.1197 0.0743604 0)
(10.1054 0.0755075 0)
(10.0874 0.075496 0)
(10.0626 0.0766596 0)
(10.0372 0.0759886 0)
(10.004 0.0782733 0)
(9.9755 0.0762624 0)
(9.93465 0.0808468 0)
(9.90828 0.0757701 0)
(9.8592 0.0846447 0)
(9.84398 0.0724225 0)
(9.78804 0.0810143 0)
(9.79284 0.0415907 0)
(9.99889 0.0322339 0)
(10.0498 0.0536192 0)
(10.0849 0.0545309 0)
(10.1022 0.0556091 0)
(10.1138 0.0586843 0)
(10.126 0.0618131 0)
(10.1396 0.0632558 0)
(10.1535 0.0649045 0)
(10.1671 0.064871 0)
(10.18 0.0668408 0)
(10.1931 0.0657842 0)
(10.2058 0.069249 0)
(10.2201 0.0664342 0)
(10.2345 0.072181 0)
(10.2531 0.0659012 0)
(10.2734 0.0712547 0)
(10.3019 0.0563905 0)
(10.3318 0.0335761 0)
(9.98384 0.0244251 0)
(10.0238 0.0543515 0)
(10.0541 0.05838 0)
(10.0701 0.0588726 0)
(10.0802 0.0613095 0)
(10.0905 0.063777 0)
(10.1024 0.0654688 0)
(10.1151 0.0660555 0)
(10.1277 0.0667284 0)
(10.1405 0.0667971 0)
(10.1537 0.0675697 0)
(10.1683 0.0672972 0)
(10.1844 0.0679031 0)
(10.203 0.0665972 0)
(10.2247 0.0652216 0)
(10.2507 0.060246 0)
(10.2811 0.0479168 0)
(10.3138 0.0266798 0)
(9.97016 0.0250518 0)
(10.0023 0.0462782 0)
(10.0285 0.051145 0)
(10.0433 0.0516006 0)
(10.053 0.0532379 0)
(10.0626 0.055701 0)
(10.0737 0.0572585 0)
(10.0855 0.0581186 0)
(10.0975 0.0581215 0)
(10.1097 0.0582519 0)
(10.1225 0.0577012 0)
(10.1364 0.057367 0)
(10.1519 0.05603 0)
(10.1694 0.054222 0)
(10.1895 0.0506035 0)
(10.2125 0.0430079 0)
(10.2376 0.0304559 0)
(10.2622 0.00521854 0)
(9.95843 0.0175468 0)
(9.98954 0.0402445 0)
(10.0127 0.0492166 0)
(10.0262 0.0511227 0)
(10.0363 0.0525129 0)
(10.0463 0.0545676 0)
(10.0573 0.0562705 0)
(10.069 0.057072 0)
(10.0807 0.0571072 0)
(10.0925 0.0567054 0)
(10.1046 0.0558857 0)
(10.1176 0.0546746 0)
(10.1319 0.0526276 0)
(10.1479 0.0494751 0)
(10.1659 0.0440007 0)
(10.1856 0.0350414 0)
(10.2062 0.0203283 0)
(10.2247 -0.00249813 0)
(9.97602 0.0169308 0)
(10.0037 0.0353449 0)
(10.0246 0.0436991 0)
(10.0372 0.0455787 0)
(10.0464 0.0463843 0)
(10.0551 0.0478706 0)
(10.0648 0.0492425 0)
(10.0758 0.0498426 0)
(10.0877 0.0496722 0)
(10.1002 0.0489436 0)
(10.1133 0.0476898 0)
(10.127 0.0457081 0)
(10.1416 0.0427842 0)
(10.1571 0.0382739 0)
(10.1739 0.0316258 0)
(10.191 0.021446 0)
(10.2079 0.00686634 0)
(10.2218 -0.0132338 0)
(9.97753 0.0131934 0)
(10.0046 0.0312684 0)
(10.0248 0.0407243 0)
(10.0375 0.0440495 0)
(10.0477 0.0455056 0)
(10.0572 0.0467679 0)
(10.0671 0.0475825 0)
(10.0775 0.0475474 0)
(10.0887 0.0466986 0)
(10.1003 0.045285 0)
(10.1126 0.0433961 0)
(10.1254 0.0408615 0)
(10.1389 0.037346 0)
(10.153 0.032228 0)
(10.1677 0.024926 0)
(10.1822 0.014507 0)
(10.1959 0.000602987 0)
(10.207 -0.0172319 0)
(9.98235 0.00879477 0)
(10.0041 0.0254068 0)
(10.02 0.0339588 0)
(10.0307 0.0374378 0)
(10.0408 0.0389408 0)
(10.0511 0.0400727 0)
(10.062 0.0408529 0)
(10.0732 0.0408794 0)
(10.0848 0.0399773 0)
(10.0964 0.0382315 0)
(10.1082 0.0357809 0)
(10.1203 0.0325092 0)
(10.1327 0.0281652 0)
(10.1455 0.022249 0)
(10.1584 0.0143255 0)
(10.1711 0.00386384 0)
(10.1824 -0.00927971 0)
(10.1917 -0.0250187 0)
(9.97226 0.0141686 0)
(9.99595 0.0242783 0)
(10.0115 0.0314973 0)
(10.0209 0.0352294 0)
(10.0298 0.0366908 0)
(10.0396 0.0371828 0)
(10.0498 0.0371246 0)
(10.0606 0.0364458 0)
(10.0717 0.0350993 0)
(10.0831 0.0331194 0)
(10.0947 0.0304988 0)
(10.1066 0.0270564 0)
(10.1185 0.0224752 0)
(10.1305 0.0163793 0)
(10.1422 0.00841751 0)
(10.1534 -0.00163067 0)
(10.1629 -0.0137659 0)
(10.1709 -0.0276173 0)
(9.95615 0.00462841 0)
(9.9784 0.0167718 0)
(9.99223 0.0242374 0)
(10.0002 0.0285719 0)
(10.0081 0.030682 0)
(10.0172 0.0313188 0)
(10.0269 0.0310814 0)
(10.0367 0.0301487 0)
(10.0467 0.0284792 0)
(10.0568 0.0260536 0)
(10.0671 0.0228418 0)
(10.0776 0.0187625 0)
(10.0884 0.013593 0)
(10.0992 0.00710293 0)
(10.1097 -0.00093549 0)
(10.1192 -0.0105584 0)
(10.1276 -0.021674 0)
(10.1339 -0.0338159 0)
(10.0053 0.0100267 0)
(10.0233 0.0177949 0)
(10.0345 0.0236152 0)
(10.0413 0.0270146 0)
(10.0489 0.0282247 0)
(10.058 0.0281712 0)
(10.0676 0.0274636 0)
(10.0772 0.0262274 0)
(10.0867 0.0243416 0)
(10.0959 0.0216871 0)
(10.105 0.0182076 0)
(10.1142 0.0138479 0)
(10.1232 0.00848361 0)
(10.1321 0.00197936 0)
(10.1406 -0.0058149 0)
(10.1483 -0.0148563 0)
(10.1549 -0.0250455 0)
(10.1598 -0.0359206 0)
(9.95978 0.00738928 0)
(9.98105 0.0108154 0)
(9.99272 0.0167232 0)
(9.9981 0.0210709 0)
(10.0041 0.0227477 0)
(10.0123 0.0226192 0)
(10.0218 0.0216346 0)
(10.0316 0.0201471 0)
(10.0413 0.0181092 0)
(10.0509 0.0153826 0)
(10.0602 0.0118106 0)
(10.0694 0.00729908 0)
(10.0783 0.00174563 0)
(10.0869 -0.004858 0)
(10.095 -0.0125579 0)
(10.1024 -0.0211844 0)
(10.1088 -0.0306422 0)
(10.1143 -0.0404838 0)
(9.9997 0.00615891 0)
(10.0213 0.0132698 0)
(10.0327 0.0177274 0)
(10.0369 0.0197265 0)
(10.0414 0.0197859 0)
(10.048 0.0186799 0)
(10.056 0.0170398 0)
(10.0645 0.0150676 0)
(10.0729 0.0126773 0)
(10.0813 0.0097247 0)
(10.0896 0.0060614 0)
(10.0976 0.00158034 0)
(10.1055 -0.00384495 0)
(10.1127 -0.0102139 0)
(10.1196 -0.0175739 0)
(10.1254 -0.0257041 0)
(10.1309 -0.0345526 0)
(10.1348 -0.0436132 0)
(9.99112 0.0011834 0)
(10.0109 0.00647655 0)
(10.0216 0.0101041 0)
(10.0265 0.0122315 0)
(10.0317 0.0129558 0)
(10.0382 0.0123067 0)
(10.0454 0.0105267 0)
(10.0527 0.00802578 0)
(10.06 0.00508867 0)
(10.0673 0.0017492 0)
(10.0748 -0.00213821 0)
(10.0822 -0.0067342 0)
(10.0897 -0.0121604 0)
(10.0968 -0.0184146 0)
(10.1034 -0.0254601 0)
(10.1095 -0.0330779 0)
(10.1149 -0.0411654 0)
(10.1194 -0.0493271 0)
(10.0016 0.0049677 0)
(10.0253 0.00683405 0)
(10.0371 0.00907062 0)
(10.041 0.0103516 0)
(10.045 0.0103141 0)
(10.0508 0.00906069 0)
(10.0579 0.00687507 0)
(10.065 0.00403118 0)
(10.072 0.000658847 0)
(10.0789 -0.00322817 0)
(10.0858 -0.00768419 0)
(10.0926 -0.0127274 0)
(10.0992 -0.0183946 0)
(10.1054 -0.0246326 0)
(10.1111 -0.0314364 0)
(10.1161 -0.0386071 0)
(10.1206 -0.0461372 0)
(10.1244 -0.0536525 0)
(9.9858 -0.0125274 0)
(10.0063 -0.00484814 0)
(10.0163 -0.00150216 0)
(10.0195 -0.000924812 0)
(10.023 -0.00155221 0)
(10.0283 -0.00292328 0)
(10.035 -0.00512032 0)
(10.0421 -0.00817197 0)
(10.0491 -0.0119364 0)
(10.0558 -0.0161958 0)
(10.0623 -0.0208045 0)
(10.0685 -0.0257123 0)
(10.0743 -0.0309751 0)
(10.0797 -0.0366133 0)
(10.0847 -0.0426725 0)
(10.0892 -0.0490316 0)
(10.0932 -0.0556922 0)
(10.097 -0.0623889 0)
(10.0036 0.00118322 0)
(10.0177 0.00191132 0)
(10.0225 0.00169182 0)
(10.023 0.000717466 0)
(10.0258 -0.00112177 0)
(10.0311 -0.00384811 0)
(10.0372 -0.00727739 0)
(10.043 -0.0111717 0)
(10.0482 -0.0153279 0)
(10.0529 -0.0196276 0)
(10.0572 -0.02408 0)
(10.0614 -0.028755 0)
(10.0654 -0.0337822 0)
(10.0691 -0.0392096 0)
(10.0726 -0.045109 0)
(10.0758 -0.0513505 0)
(10.0787 -0.0579436 0)
(10.0814 -0.0646229 0)
(9.97888 -0.00257233 0)
(9.99866 -0.00786737 0)
(10.0074 -0.0116628 0)
(10.0097 -0.015006 0)
(10.0125 -0.0181874 0)
(10.0172 -0.021135 0)
(10.0225 -0.0239573 0)
(10.0277 -0.0269417 0)
(10.0323 -0.0303491 0)
(10.0365 -0.0342647 0)
(10.0402 -0.0386266 0)
(10.0437 -0.0433222 0)
(10.0468 -0.0482901 0)
(10.0497 -0.0534961 0)
(10.0522 -0.0589579 0)
(10.0543 -0.0646428 0)
(10.056 -0.0705499 0)
(10.0574 -0.0765929 0)
(9.9742 -0.00465884 0)
(9.99222 -0.00747265 0)
(9.99984 -0.0113003 0)
(10.0007 -0.014879 0)
(10.0019 -0.0180251 0)
(10.005 -0.0209423 0)
(10.0092 -0.0238759 0)
(10.0134 -0.0270041 0)
(10.0172 -0.0304138 0)
(10.0204 -0.0340996 0)
(10.0231 -0.038012 0)
(10.0256 -0.0420921 0)
(10.0278 -0.0463267 0)
(10.0298 -0.050728 0)
(10.0315 -0.0553349 0)
(10.033 -0.06017 0)
(10.0341 -0.065241 0)
(10.0349 -0.0705562 0)
(9.97711 -0.00451525 0)
(9.99331 -0.0106962 0)
(9.99943 -0.016547 0)
(9.99981 -0.0215166 0)
(10.0011 -0.0257534 0)
(10.0042 -0.029606 0)
(10.0081 -0.0331672 0)
(10.0117 -0.0364924 0)
(10.0148 -0.0397265 0)
(10.0173 -0.043069 0)
(10.0193 -0.0466753 0)
(10.0209 -0.0505968 0)
(10.0222 -0.0547921 0)
(10.0233 -0.0591946 0)
(10.0243 -0.0637305 0)
(10.0249 -0.0683705 0)
(10.0255 -0.0730902 0)
(10.0255 -0.0779101 0)
(10.0135 -0.00215503 0)
(10.0312 -0.011604 0)
(10.0394 -0.0171975 0)
(10.0418 -0.0215101 0)
(10.0441 -0.0255664 0)
(10.0476 -0.0293284 0)
(10.0517 -0.0326213 0)
(10.0557 -0.0354735 0)
(10.0593 -0.0381186 0)
(10.0624 -0.0408402 0)
(10.0649 -0.0438147 0)
(10.0668 -0.0471319 0)
(10.0681 -0.0507756 0)
(10.0689 -0.054698 0)
(10.0691 -0.0587926 0)
(10.0689 -0.0630137 0)
(10.0682 -0.0672754 0)
(10.067 -0.0716101 0)
(9.98385 -0.00360396 0)
(10.0078 -0.0160604 0)
(10.0201 -0.0237872 0)
(10.0235 -0.0288671 0)
(10.0256 -0.0329204 0)
(10.0284 -0.0367954 0)
(10.0315 -0.0405397 0)
(10.0344 -0.0438727 0)
(10.0368 -0.0467078 0)
(10.0389 -0.0492346 0)
(10.0407 -0.0517117 0)
(10.0423 -0.054329 0)
(10.0435 -0.0571471 0)
(10.0442 -0.0601519 0)
(10.0443 -0.0632786 0)
(10.0439 -0.0665236 0)
(10.0428 -0.0698514 0)
(10.0413 -0.0733529 0)
(9.96966 -0.00976388 0)
(9.99377 -0.0167071 0)
(10.0072 -0.0239548 0)
(10.0125 -0.0290035 0)
(10.016 -0.0321658 0)
(10.0194 -0.0346825 0)
(10.0226 -0.0372109 0)
(10.0253 -0.0398163 0)
(10.0276 -0.0423975 0)
(10.0294 -0.0449434 0)
(10.0308 -0.0475241 0)
(10.0319 -0.0501847 0)
(10.0326 -0.0529058 0)
(10.0329 -0.0556518 0)
(10.0329 -0.0583864 0)
(10.0324 -0.0611339 0)
(10.0317 -0.0638992 0)
(10.0304 -0.0667806 0)
(10.0088 -0.0161245 0)
(10.0293 -0.0270425 0)
(10.0421 -0.0339092 0)
(10.0478 -0.0378972 0)
(10.0516 -0.0405977 0)
(10.055 -0.0430921 0)
(10.0584 -0.0456733 0)
(10.0616 -0.0481971 0)
(10.0643 -0.050496 0)
(10.0663 -0.0525706 0)
(10.0676 -0.0545434 0)
(10.0683 -0.0565407 0)
(10.0684 -0.058618 0)
(10.068 -0.0607891 0)
(10.0671 -0.0630257 0)
(10.0658 -0.0653509 0)
(10.0642 -0.0677342 0)
(10.062 -0.0702377 0)
(9.99622 -0.00937718 0)
(10.0237 -0.0245018 0)
(10.0412 -0.031325 0)
(10.0494 -0.0341942 0)
(10.054 -0.0363501 0)
(10.0573 -0.0386457 0)
(10.0602 -0.0409458 0)
(10.0625 -0.0430649 0)
(10.0642 -0.0449654 0)
(10.0653 -0.0467327 0)
(10.066 -0.0484795 0)
(10.0661 -0.0502796 0)
(10.0659 -0.0521352 0)
(10.0651 -0.0540347 0)
(10.0639 -0.0559424 0)
(10.0622 -0.057874 0)
(10.0601 -0.0598166 0)
(10.0577 -0.0618343 0)
(9.98012 -0.0270071 0)
(10.009 -0.0389902 0)
(10.0275 -0.0440845 0)
(10.0349 -0.0456901 0)
(10.0382 -0.0469584 0)
(10.0411 -0.0484762 0)
(10.0443 -0.0499922 0)
(10.0475 -0.0514452 0)
(10.0502 -0.0528837 0)
(10.0522 -0.0543144 0)
(10.0535 -0.055706 0)
(10.0544 -0.0570488 0)
(10.0548 -0.0583483 0)
(10.0547 -0.0596499 0)
(10.0541 -0.0609951 0)
(10.053 -0.0624424 0)
(10.0514 -0.0639964 0)
(10.0494 -0.0656908 0)
(9.96746 -0.0202042 0)
(9.99976 -0.0334156 0)
(10.0215 -0.0367034 0)
(10.0309 -0.0380345 0)
(10.036 -0.0399355 0)
(10.0411 -0.0419889 0)
(10.047 -0.0437197 0)
(10.0528 -0.0451855 0)
(10.0578 -0.0465627 0)
(10.0616 -0.0479408 0)
(10.0643 -0.0492955 0)
(10.0661 -0.0506257 0)
(10.0671 -0.0518898 0)
(10.0673 -0.0531203 0)
(10.067 -0.0542878 0)
(10.066 -0.0554963 0)
(10.0647 -0.0567153 0)
(10.0627 -0.0580803 0)
(9.9768 -0.0356041 0)
(10.0295 -0.0518734 0)
(10.0634 -0.0517 0)
(10.0786 -0.0517138 0)
(10.0858 -0.0533421 0)
(10.0904 -0.0548684 0)
(10.0931 -0.0558685 0)
(10.0934 -0.0566323 0)
(10.0909 -0.0573268 0)
(10.0857 -0.0579646 0)
(10.0782 -0.0584946 0)
(10.0688 -0.0589628 0)
(10.0577 -0.0593821 0)
(10.0456 -0.0598696 0)
(10.0321 -0.0604069 0)
(10.0179 -0.0611183 0)
(10.0022 -0.0619176 0)
(9.98649 -0.0629685 0)
(9.88895 -0.0393218 0)
(9.74026 -0.0492817 0)
(9.57931 -0.0478865 0)
(9.409 -0.0464808 0)
(9.24147 -0.0460097 0)
(9.08155 -0.0455142 0)
(8.9295 -0.0447871 0)
(8.78433 -0.043986 0)
(8.64516 -0.0432172 0)
(8.51163 -0.0425173 0)
(8.38345 -0.0418825 0)
(8.26075 -0.0413183 0)
(8.14298 -0.0407807 0)
(8.03042 -0.0402717 0)
(7.92191 -0.0397416 0)
(7.81847 -0.0392577 0)
(7.71772 -0.0387867 0)
(7.62249 -0.0384807 0)
(-0.01986 0.00532789 6.77178e-21)
(0.0132007 -0.0856107 -6.72495e-21)
(0.110803 -0.143729 0)
(0.237557 -0.171075 0)
(0.376365 -0.179294 0)
(0.517394 -0.175562 6.49421e-21)
(0.652562 -0.163905 0)
(0.777004 -0.146931 0)
(0.886774 -0.12623 0)
(0.977965 -0.102752 0)
(1.04774 -0.0768652 -6.05403e-21)
(1.09267 -0.048877 0)
(1.111 -0.0188024 0)
(1.09948 0.0129192 0)
(1.05558 0.0459405 0)
(0.979455 0.0789567 -5.70424e-21)
(0.869619 0.111316 0)
(0.728908 0.140981 0)
(0.556254 0.166987 0)
(0.361767 0.186156 0)
(0.14098 0.196937 0)
(-0.0791381 0.193201 0)
(-0.314199 0.178428 0)
(-0.508475 0.12409 -5.46189e-21)
(-0.709118 0.116348 5.41488e-21)
(-0.829657 0.0319248 -5.36358e-21)
(-0.939789 -0.0591503 -5.30691e-21)
(-1.06544 -0.111096 0)
(-1.24135 -0.0615078 0)
(-1.51077 0.0183745 5.09323e-21)
(-1.8718 0.137886 5.00731e-21)
(-2.30003 0.311866 0)
(-2.78241 0.441721 0)
(-3.27669 0.457575 4.65583e-21)
(-3.72126 0.41081 0)
(-4.11802 0.361846 0)
(-4.46647 0.313065 -4.0891e-21)
(-4.76821 0.266928 0)
(-5.02489 0.223407 -3.69895e-21)
(-5.23831 0.182978 -7.04712e-21)
(-5.41031 0.145341 0)
(-5.54247 0.110399 0)
(-5.6363 0.077872 0)
(-5.6934 0.0476369 0)
(-5.71536 0.0196003 0)
(-5.70359 -0.0061673 -5.92437e-21)
(-5.65985 -0.0296018 -5.92195e-21)
(-5.58646 -0.0506803 -5.96933e-21)
(-5.48568 -0.0694502 0)
(-5.36048 -0.0859993 6.1957e-21)
(-5.21318 -0.100372 0)
(-5.04659 -0.112566 -6.56032e-21)
(-4.86324 -0.1227 -6.77894e-21)
(-4.66572 -0.130832 0)
(-4.45659 -0.137137 0)
(-4.23801 -0.141786 0)
(-4.01213 -0.144948 -7.7569e-21)
(-3.78081 -0.146803 0)
(-3.54585 -0.147534 0)
(-3.30869 -0.147285 0)
(-3.07066 -0.146255 0)
(-2.83285 -0.1446 0)
(-2.59601 -0.142528 0)
(-2.36066 -0.140215 0)
(-2.12699 -0.137849 0)
(-1.89494 -0.135531 9.57069e-21)
(-1.66432 -0.133406 0)
(-1.4349 -0.131427 0)
(-1.2064 -0.129616 -9.94573e-21)
(-0.978738 -0.127845 -1.0048e-20)
(-0.752025 -0.126024 0)
(-0.526532 -0.123993 1.02194e-20)
(-0.302737 -0.121683 -1.02881e-20)
(-0.0812822 -0.118979 0)
(0.137033 -0.115848 1.03907e-20)
(0.351302 -0.112243 0)
(0.560602 -0.108205 0)
(0.764077 -0.103793 -1.04555e-20)
(0.961094 -0.0991051 0)
(1.15126 -0.0943077 1.04424e-20)
(1.33435 -0.0895065 0)
(1.51042 -0.0848262 -1.03918e-20)
(1.67967 -0.080384 -1.0355e-20)
(1.84238 -0.0762419 -1.03117e-20)
(1.99903 -0.07239 -2.05256e-20)
(2.15009 -0.0688821 2.0418e-20)
(2.29592 -0.0656256 0)
(2.43686 -0.0625628 0)
(2.57311 -0.0596397 0)
(2.70476 -0.056728 1.98998e-20)
(2.83171 -0.0538058 1.97487e-20)
(2.9537 -0.050807 -1.95889e-20)
(3.07049 -0.0476768 0)
(3.1818 -0.0444583 1.92437e-20)
(3.28728 -0.0411501 1.90593e-20)
(3.38666 -0.0377978 1.8868e-20)
(3.47973 -0.0344431 0)
(3.56643 -0.0310997 0)
(3.64677 -0.0278177 0)
(3.72076 -0.0246262 1.80568e-20)
(3.78848 -0.0215492 0)
(3.85007 -0.018606 0)
(3.90573 -0.0158136 -1.74308e-20)
(3.95568 -0.0131867 0)
(4.00018 -0.0107378 0)
(4.03952 -0.00847634 -1.68134e-20)
(4.07404 -0.00640699 0)
(4.10406 -0.00453006 0)
(4.12993 -0.00284026 1.62161e-20)
(4.15199 -0.00132829 1.60223e-20)
(4.17057 2.02239e-05 0)
(4.18595 0.00122033 -1.5643e-20)
(4.1984 0.00228452 0)
(4.2082 0.00322384 1.52745e-20)
(4.21558 0.00404697 0)
(4.22076 0.0047619 1.49163e-20)
(4.22395 0.00537786 1.47408e-20)
(4.22534 0.00590377 0)
(4.22511 0.00634828 0)
(4.22343 0.00672063 0)
(4.22048 0.00701624 0)
(4.21645 0.00722794 0)
(4.21149 0.00736421 0)
(4.20575 0.0074394 0)
(4.19935 0.00746543 1.34142e-20)
(4.1924 0.00745135 -1.32569e-20)
(4.18498 0.00740375 0)
(4.17716 0.00732702 0)
(4.169 0.00722366 0)
(4.16058 0.00709455 0)
(4.15193 0.00693932 -2.49878e-20)
(4.14314 0.00675656 0)
(4.13425 0.00654434 2.43977e-20)
(4.12533 0.00630139 -2.41066e-20)
(4.11644 0.00602824 0)
(4.10764 0.00572786 0)
(4.099 0.0054058 0)
(4.09057 0.00506968 2.29675e-20)
(4.08239 0.00472825 2.26887e-20)
(4.07451 0.00439031 0)
(4.06693 0.00406368 2.21378e-20)
(4.05967 0.00375446 2.18657e-20)
(4.05274 0.0034669 -2.15957e-20)
(4.04613 0.00320342 0)
(4.03982 0.00296489 0)
(4.0338 0.00275098 -2.07981e-20)
(4.02805 0.00256054 0)
(4.02255 0.00239192 0)
(4.01728 0.00224325 0)
(4.01221 0.00211261 0)
(4.00733 0.00199811 1.95077e-20)
(4.00261 0.00189804 1.92551e-20)
(3.99804 0.00181086 0)
(3.99359 0.0017355 1.87552e-20)
(3.98925 0.00167082 0)
(3.98499 0.00161639 0)
(3.9808 0.0015712 1.80183e-20)
(3.97666 0.00153571 0)
(3.97254 0.00150941 1.75355e-20)
(3.96842 0.00149464 0)
(3.96424 0.0014915 0)
(3.96003 0.00150425 1.68239e-20)
(3.95564 0.00153333 0)
(3.95116 0.00158354 1.63581e-20)
(3.94628 0.00165918 0)
(3.94128 0.00175975 0)
(3.93549 0.00191108 0)
(3.92958 0.00207885 -1.54491e-20)
(3.92217 0.00237533 0)
(3.91469 0.00262022 1.50081e-20)
(3.90443 0.00324068 0)
(3.8941 0.00351545 0)
(3.87893 0.00496065 0)
(3.86258 0.0049779 0)
(3.83936 0.00876565 0)
(3.80768 0.00739038 0)
(3.77276 0.018617 0)
(3.69374 0.0123518 -2.69045e-20)
(3.64604 0.052914 0)
(3.39238 0.043338 0)
(-0.00350251 -0.00119694 -2.02786e-20)
(0.0333899 -0.199859 2.01343e-20)
(0.109018 -0.335027 0)
(0.199935 -0.399482 -1.31849e-20)
(0.294992 -0.417064 0)
(0.387365 -0.405754 -6.49754e-21)
(0.474307 -0.376056 1.27454e-20)
(0.552734 -0.33342 1.25662e-20)
(0.619158 -0.280703 0)
(0.670548 -0.219263 1.21845e-20)
(0.703188 -0.150065 6.05662e-21)
(0.714425 -0.0738976 0)
(0.700306 0.0078792 0)
(0.659868 0.0940427 0)
(0.592137 0.182216 0)
(0.496915 0.270075 5.70673e-21)
(0.374253 0.353816 0)
(0.226862 0.430703 -1.11503e-20)
(0.0545353 0.49683 0)
(-0.138188 0.551777 0)
(-0.349403 0.588915 1.10435e-20)
(-0.574826 0.606108 0)
(-0.802984 0.584753 -1.09536e-20)
(-1.03418 0.556744 5.46656e-21)
(-1.23835 0.454002 -5.41989e-21)
(-1.46385 0.341217 5.36887e-21)
(-1.77827 0.455246 5.31255e-21)
(-2.18704 0.61399 0)
(-2.66933 0.789624 0)
(-3.14798 1.01535 -5.10102e-21)
(-3.61933 1.12828 4.69708e-21)
(-4.01083 1.13519 0)
(-4.34041 1.08879 0)
(-4.63392 1.00364 -4.6653e-21)
(-4.89132 0.898274 0)
(-5.11957 0.790198 0)
(-5.31663 0.682363 4.09773e-21)
(-5.48504 0.578939 0)
(-5.62457 0.480339 -3.343e-21)
(-5.73663 0.386988 7.06114e-21)
(-5.82131 0.298436 0)
(-5.8792 0.214321 0)
(-5.91033 0.134305 1.19766e-20)
(-5.91488 0.0582513 1.16817e-20)
(-5.89295 -0.0137212 1.14942e-20)
(-5.84521 -0.0813346 -5.48446e-21)
(-5.77235 -0.14423 5.92692e-21)
(-5.67509 -0.202169 1.75403e-20)
(-5.5548 -0.25473 -1.17845e-20)
(-5.41264 -0.301618 -6.19935e-21)
(-5.25076 -0.342553 0)
(-5.07115 -0.377463 6.5636e-21)
(-4.87622 -0.406432 -6.55932e-21)
(-4.66832 -0.429722 0)
(-4.44965 -0.447688 0)
(-4.22243 -0.460808 0)
(-3.98861 -0.469606 7.75922e-21)
(-3.75003 -0.474601 0)
(-3.50832 -0.476314 -1.63849e-20)
(-3.26489 -0.475215 0)
(-3.02103 -0.471835 -1.72969e-20)
(-2.77778 -0.466655 0)
(-2.53588 -0.460253 1.8097e-20)
(-2.29581 -0.453194 0)
(-2.05767 -0.445993 -1.87788e-20)
(-1.8213 -0.439067 9.50634e-21)
(-1.58636 -0.432711 0)
(-1.35247 -0.426946 1.96004e-20)
(-1.11926 -0.421657 9.94597e-21)
(-0.886546 -0.416577 1.00482e-20)
(-0.654395 -0.411285 0)
(-0.423116 -0.405425 1.01598e-20)
(-0.193238 -0.398644 1.02879e-20)
(0.0345599 -0.390665 0)
(0.25942 -0.381339 -1.03903e-20)
(0.480391 -0.370607 2.08016e-20)
(0.696478 -0.358544 0)
(0.906793 -0.345374 1.04549e-20)
(1.11066 -0.331394 0)
(1.30771 -0.317054 -3.12911e-20)
(1.49779 -0.302709 0)
(1.68098 -0.288741 3.11425e-20)
(1.85754 -0.275461 1.03543e-20)
(2.02786 -0.263073 -1.02828e-20)
(2.19243 -0.251608 -2.04708e-20)
(2.35175 -0.241087 2.03664e-20)
(2.50625 -0.231348 0)
(2.65623 -0.222173 0)
(2.8019 -0.213325 0)
(2.94331 -0.20454 -5.96589e-20)
(3.08029 -0.195655 -1.9747e-20)
(3.21259 -0.186493 1.95872e-20)
(3.33991 -0.176978 0)
(3.46189 -0.16714 1.92184e-20)
(3.57822 -0.157038 -1.90574e-20)
(3.68861 -0.146796 -1.88661e-20)
(3.79289 -0.136537 0)
(3.89102 -0.126328 0)
(3.98299 -0.116305 0)
(4.06885 -0.106549 -1.80549e-20)
(4.1487 -0.0971243 0)
(4.22269 -0.088082 3.52614e-20)
(4.29099 -0.0794671 5.22744e-20)
(4.35383 -0.0713201 -3.44316e-20)
(4.41145 -0.0636755 0)
(4.46414 -0.0565589 -1.68022e-20)
(4.5122 -0.049984 0)
(4.55597 -0.043951 -3.28136e-20)
(4.59576 -0.038447 1.62072e-20)
(4.6319 -0.0334478 1.6014e-20)
(4.6647 -0.0289194 0)
(4.69447 -0.0248237 4.69178e-20)
(4.72149 -0.0211234 -3.09061e-20)
(4.74598 -0.0177842 -1.52724e-20)
(4.76819 -0.0147758 0)
(4.78829 -0.012072 -1.49141e-20)
(4.80649 -0.00964985 -4.42128e-20)
(4.82297 -0.00748873 0)
(4.83792 -0.00557081 -2.87866e-20)
(4.85152 -0.00387982 -2.84493e-20)
(4.86394 -0.00240768 -2.81162e-20)
(4.87528 -0.00114327 0)
(4.88565 -6.35501e-05 0)
(4.89514 0.000859351 0)
(4.90383 0.00164953 1.34103e-20)
(4.9118 0.00232762 1.32543e-20)
(4.91909 0.00291051 0)
(4.92578 0.00341106 2.5888e-20)
(4.93189 0.00383878 2.5583e-20)
(4.93748 0.00419993 0)
(4.94256 0.00449905 2.49825e-20)
(4.94718 0.00473901 4.93708e-20)
(4.95136 0.00492131 -2.43923e-20)
(4.95512 0.00504693 -2.41003e-20)
(4.95847 0.00511699 0)
(4.96143 0.0051333 0)
(4.96402 0.00509911 0)
(4.96626 0.00501921 -2.2962e-20)
(4.96815 0.00489977 2.26829e-20)
(4.96973 0.00474784 4.48131e-20)
(4.97101 0.00457096 -2.21324e-20)
(4.97203 0.00437667 2.18602e-20)
(4.97281 0.00417197 2.15904e-20)
(4.97337 0.00396303 0)
(4.97375 0.00375493 0)
(4.97397 0.00355173 -2.07928e-20)
(4.97406 0.0033564 0)
(4.97403 0.00317111 0)
(4.9739 0.00299726 4.00261e-20)
(4.97368 0.00283575 0)
(4.97339 0.00268702 1.95026e-20)
(4.97304 0.00255135 -1.92501e-20)
(4.97264 0.00242883 0)
(4.97218 0.00231969 1.87502e-20)
(4.97168 0.00222417 0)
(4.97112 0.00214285 0)
(4.97053 0.00207643 -1.80135e-20)
(4.96987 0.0020261 3.55425e-20)
(4.96917 0.00199382 -1.75308e-20)
(4.96839 0.00198167 0)
(4.96753 0.00199479 0)
(4.96656 0.00203487 1.6819e-20)
(4.96547 0.0021147 0)
(4.96422 0.00222903 1.63532e-20)
(4.96277 0.00241277 0)
(4.96104 0.00263213 0)
(4.959 0.00299061 0)
(4.95647 0.003356 1.54448e-20)
(4.95347 0.00404227 0)
(4.94953 0.00459594 -1.50038e-20)
(4.94497 0.00596815 0)
(4.93841 0.00670008 0)
(4.9313 0.00966354 2.87287e-20)
(4.91951 0.0103373 -2.83206e-20)
(4.90827 0.0173841 0)
(4.88502 0.0171271 0)
(4.86698 0.0360473 0)
(4.81672 0.0338004 8.06104e-20)
(4.79001 0.095238 0)
(4.68428 0.104685 -5.2538e-20)
(0.00627112 -0.0504822 3.90516e-23)
(0.0573265 -0.316563 -2.67774e-20)
(0.12896 -0.479904 0)
(0.191948 -0.55051 2.62986e-20)
(0.248714 -0.565291 0)
(0.299685 -0.5451 0)
(0.34559 -0.501666 -1.39679e-22)
(0.38429 -0.440004 -1.25709e-20)
(0.412878 -0.362106 -1.22161e-20)
(0.427715 -0.268667 -1.21886e-20)
(0.42501 -0.160347 0)
(0.400783 -0.0386445 0)
(0.351617 0.0933597 1.14608e-20)
(0.274695 0.231591 2.26336e-20)
(0.168519 0.371481 -2.23997e-20)
(0.0333193 0.50895 0)
(-0.127501 0.638779 -2.20908e-20)
(-0.309773 0.75655 1.1153e-20)
(-0.508495 0.857411 0)
(-0.719945 0.939243 -2.18874e-20)
(-0.938927 0.995179 -1.10475e-20)
(-1.17087 1.01682 2.17743e-20)
(-1.40753 1.00713 1.09587e-20)
(-1.64294 0.91945 0)
(-1.90187 0.859986 -2.13074e-20)
(-2.30088 0.980812 -2.10047e-20)
(-2.73332 1.18163 0)
(-3.18566 1.44732 -2.02023e-20)
(-3.61615 1.60164 0)
(-3.96154 1.65312 -1.91674e-20)
(-4.2569 1.63805 -9.72369e-21)
(-4.49665 1.57356 0)
(-4.70389 1.47627 0)
(-4.88446 1.35025 0)
(-5.04868 1.21031 0)
(-5.19984 1.06574 0)
(-5.33834 0.922416 0)
(-5.46357 0.783174 -1.38027e-20)
(-5.57302 0.648822 2.01979e-20)
(-5.66473 0.519231 0)
(-5.73606 0.393997 0)
(-5.78499 0.272694 0)
(-5.80954 0.155215 -7.92635e-22)
(-5.80838 0.0416459 -1.1681e-20)
(-5.78064 -0.0675933 -2.22635e-20)
(-5.72624 -0.171917 2.21398e-20)
(-5.64578 -0.270455 1.07937e-20)
(-5.54017 -0.362185 -1.15627e-20)
(-5.41075 -0.445936 5.51789e-22)
(-5.25954 -0.520815 -1.15773e-20)
(-5.08895 -0.586192 0)
(-4.90163 -0.641797 -1.24687e-20)
(-4.70029 -0.687671 3.56173e-22)
(-4.48755 -0.724242 0)
(-4.2658 -0.752116 0)
(-4.0372 -0.772088 1.46278e-20)
(-3.80366 -0.785076 0)
(-3.56676 -0.791961 0)
(-3.32796 -0.793577 -1.60572e-20)
(-3.0885 -0.790703 -3.34134e-20)
(-2.84952 -0.784119 1.72949e-20)
(-2.61202 -0.774622 0)
(-2.37675 -0.763158 -1.80953e-20)
(-2.14409 -0.750723 0)
(-1.914 -0.738252 -1.85657e-20)
(-1.68608 -0.726524 -1.90762e-20)
(-1.45967 -0.715975 3.84869e-20)
(-1.23402 -0.706744 1.93856e-20)
(-1.0085 -0.698484 0)
(-0.782673 -0.690642 -3.98521e-20)
(-0.556531 -0.682434 0)
(-0.330461 -0.673176 -6.09352e-20)
(-0.105061 -0.662234 -4.08475e-20)
(0.118798 -0.649148 -4.10939e-20)
(0.340052 -0.633671 4.12944e-20)
(0.557569 -0.615712 -6.22475e-20)
(0.77015 -0.595461 0)
(0.976736 -0.573292 0)
(1.17653 -0.549818 4.16165e-20)
(1.36913 -0.525775 6.24293e-20)
(1.55449 -0.501861 0)
(1.73276 -0.478741 -2.07499e-20)
(1.90439 -0.456896 0)
(2.06995 -0.436635 6.16839e-20)
(2.23011 -0.418035 8.81257e-23)
(2.38546 -0.401009 -8.28279e-23)
(2.53652 -0.385298 -4.04732e-20)
(2.6836 -0.370507 0)
(2.82687 -0.356201 3.99747e-20)
(2.96624 -0.341947 5.86544e-23)
(3.10147 -0.327407 0)
(3.23219 -0.312324 0)
(3.35794 -0.296601 0)
(3.47834 -0.280284 -3.84583e-20)
(3.59297 -0.263537 0)
(3.70156 -0.246555 0)
(3.804 -0.229541 0)
(3.90028 -0.212691 0)
(3.99045 -0.196194 0)
(4.07461 -0.180179 -3.60664e-20)
(4.15291 -0.164737 0)
(4.22555 -0.149944 -3.52602e-20)
(4.29271 -0.135865 -3.48444e-20)
(4.35464 -0.122564 3.44307e-20)
(4.41158 -0.110098 0)
(4.46382 -0.0985105 3.3613e-20)
(4.51164 -0.0878236 0)
(4.55538 -0.0780374 3.28131e-20)
(4.59535 -0.0691296 -3.24209e-20)
(4.63187 -0.0610578 -9.60813e-20)
(4.66523 -0.0537661 0)
(4.69574 -0.0471898 -9.38129e-20)
(4.72363 -0.0412627 -3.08909e-20)
(4.74912 -0.0359234 0)
(4.77242 -0.0311197 -6.03481e-20)
(4.79371 -0.0268099 -5.96385e-20)
(4.81313 -0.0229633 8.84124e-20)
(4.83087 -0.0195551 0)
(4.84707 -0.016562 2.87865e-20)
(4.86189 -0.0139574 2.84492e-20)
(4.87552 -0.0117054 8.43419e-20)
(4.8881 -0.00976247 0)
(4.89979 -0.00808611 0)
(4.91071 -0.0066369 0)
(4.92096 -0.00537465 2.68178e-20)
(4.93063 -0.00427019 0)
(4.93975 -0.00330037 0)
(4.94838 -0.00244644 -2.58879e-20)
(4.95654 -0.00169419 -2.55828e-20)
(4.96427 -0.0010324 0)
(4.97158 -0.000453463 0)
(4.9785 4.83709e-05 -4.93703e-20)
(4.98504 0.00047794 0)
(4.9912 0.000840363 4.82009e-20)
(4.99701 0.00114024 4.76228e-20)
(5.00245 0.00138217 0)
(5.00752 0.00157113 0)
(5.01224 0.00171258 -4.59222e-20)
(5.0166 0.00181262 -6.00941e-25)
(5.0206 0.0018773 -4.91327e-25)
(5.02426 0.00191219 0)
(5.02758 0.00192242 -8.74389e-20)
(5.03059 0.00191282 0)
(5.0333 0.00188772 0)
(5.03575 0.00185092 0)
(5.03794 0.00180577 4.15847e-20)
(5.03991 0.0017552 0)
(5.04167 0.00170175 -8.10821e-20)
(5.04324 0.00164764 -4.00251e-20)
(5.04464 0.00159472 0)
(5.0459 0.0015446 -3.90041e-20)
(5.04701 0.00149866 0)
(5.04799 0.00145827 0)
(5.04886 0.00142468 -1.12498e-19)
(5.04961 0.00139965 7.40094e-20)
(5.05026 0.00138447 0)
(5.0508 0.00138193 7.20513e-20)
(5.05123 0.00139332 -3.55414e-20)
(5.05156 0.00142422 0)
(5.05178 0.00147554 0)
(5.05188 0.00155947 0)
(5.05185 0.00167313 -1.00911e-19)
(5.05168 0.00184352 0)
(5.05131 0.00205284 -3.27057e-20)
(5.05077 0.00236554 0)
(5.04993 0.0027184 0)
(5.04885 0.00327508 0)
(5.04727 0.00384197 0)
(5.04536 0.00484677 0)
(5.04253 0.00572951 0)
(5.03931 0.00762037 -5.91369e-20)
(5.0343 0.00895494 0)
(5.02886 0.0127363 -2.87276e-20)
(5.01986 0.0147168 8.49417e-20)
(5.01055 0.0229006 0)
(4.99399 0.0261466 0)
(4.97776 0.0459371 -5.4321e-20)
(4.94801 0.0546314 -5.37118e-20)
(4.92229 0.109502 5.29624e-20)
(4.8823 0.143966 5.2534e-20)
(0.0212337 -0.126474 4.03236e-20)
(0.0871893 -0.454327 3.99954e-20)
(0.143013 -0.602336 2.63354e-20)
(0.17623 -0.646652 1.29005e-20)
(0.198898 -0.642631 0)
(0.215398 -0.608893 -2.52838e-20)
(0.227858 -0.55213 1.22637e-20)
(0.233713 -0.473119 0)
(0.229773 -0.371359 1.22199e-20)
(0.211999 -0.246328 0)
(0.176163 -0.098159 -2.31715e-20)
(0.118331 0.0711426 0)
(0.0354423 0.257066 -1.14633e-20)
(-0.0754518 0.451825 -2.2639e-20)
(-0.215144 0.646263 2.24054e-20)
(-0.382535 0.831185 0)
(-0.571591 0.998192 2.20977e-20)
(-0.777912 1.14124 0)
(-0.995467 1.25851 0)
(-1.22063 1.34765 2.18967e-20)
(-1.44782 1.41188 0)
(-1.68285 1.44565 -3.50667e-22)
(-1.90653 1.4133 0)
(-2.18887 1.42757 0)
(-2.55136 1.57294 5.26065e-22)
(-2.96972 1.78605 2.10234e-20)
(-3.37906 1.98178 1.99451e-20)
(-3.71966 2.08521 2.02216e-20)
(-3.99947 2.10498 0)
(-4.22746 2.06693 3.7385e-20)
(-4.42347 1.98685 0)
(-4.59151 1.87588 1.68613e-20)
(-4.74526 1.74309 0)
(-4.88511 1.59448 0)
(-5.01774 1.43776 -1.47317e-20)
(-5.14132 1.27688 0)
(-5.25666 1.11522 1.33193e-20)
(-5.36119 0.953924 1.1615e-21)
(-5.45286 0.793716 -2.51573e-20)
(-5.52865 0.634561 2.28537e-20)
(-5.58579 0.476537 0)
(-5.6216 0.319756 0)
(-5.63386 0.164696 9.11176e-21)
(-5.62087 0.0121289 0)
(-5.58152 -0.136678 1.07656e-20)
(-5.51522 -0.280101 -1.07211e-20)
(-5.42203 -0.415999 -1.07858e-20)
(-5.30269 -0.542197 0)
(-5.15881 -0.656992 1.12204e-20)
(-4.99291 -0.758999 1.1569e-20)
(-4.80786 -0.847294 -2.27685e-20)
(-4.60688 -0.921443 1.24607e-20)
(-4.39337 -0.981668 1.29741e-20)
(-4.17051 -1.02866 0)
(-3.94113 -1.06354 0)
(-3.70763 -1.08765 -1.4621e-20)
(-3.47193 -1.10237 0)
(-3.23547 -1.10908 0)
(-2.99948 -1.10893 3.24287e-20)
(-2.76501 -1.10295 3.3403e-20)
(-2.53306 -1.09209 0)
(-2.30461 -1.07738 0)
(-2.08043 -1.06004 0)
(-1.86081 -1.04152 0)
(-1.64544 -1.02332 3.73368e-20)
(-1.43342 -1.00666 -3.76633e-20)
(-1.22347 -0.992307 -3.84821e-20)
(-1.01412 -0.980448 -7.76792e-20)
(-0.804006 -0.97049 0)
(-0.592181 -0.961346 2.83097e-22)
(-0.378341 -0.951674 0)
(-0.162845 -0.940213 4.05541e-20)
(0.0535524 -0.926071 2.57351e-22)
(0.269729 -0.908638 4.10907e-20)