/*--------------------------------*- C++ -*----------------------------------*\
  =========                 |
  \\      /  F ield         | OpenFOAM: The Open Source CFD Toolbox
   \\    /   O peration     | Website:  https://openfoam.org
    \\  /    A nd           | Version:  10
     \\/     M anipulation  |
\*---------------------------------------------------------------------------*/
FoamFile
{
    format      ascii;
    class       volScalarField;
    location    "4900";
    object      p;
}
// * * * * * * * * * * * * * * * * * * * * * * * * * * * * * * * * * * * * * //

dimensions      [1 -1 -2 0 0 0 0];

internalField   nonuniform List<scalar> 
6400
(
110.016
110.022
110.033
110.051
110.074
110.103
110.138
110.178
110.224
110.275
110.332
110.393
110.46
110.531
110.607
110.686
110.77
110.856
110.946
111.037
111.131
111.225
111.319
111.413
111.505
111.595
111.68
111.761
111.836
111.904
111.964
112.015
112.044
112.06
112.074
112.085
112.095
112.102
112.106
112.109
112.109
112.106
112.102
112.095
112.085
112.074
112.06
112.044
112.015
111.964
111.904
111.836
111.761
111.68
111.595
111.505
111.413
111.319
111.225
111.131
111.037
110.946
110.856
110.77
110.686
110.607
110.531
110.46
110.393
110.332
110.275
110.224
110.178
110.138
110.103
110.074
110.051
110.033
110.022
110.016
109.721
109.727
109.739
109.757
109.78
109.809
109.844
109.884
109.93
109.981
110.038
110.099
110.166
110.237
110.312
110.392
110.475
110.562
110.652
110.743
110.837
110.931
111.025
111.119
111.211
111.301
111.387
111.468
111.543
111.611
111.671
111.721
111.751
111.767
111.78
111.792
111.801
111.808
111.813
111.815
111.815
111.813
111.808
111.801
111.792
111.78
111.767
111.751
111.721
111.671
111.611
111.543
111.468
111.387
111.301
111.211
111.119
111.025
110.931
110.837
110.743
110.652
110.562
110.475
110.392
110.312
110.237
110.166
110.099
110.038
109.981
109.93
109.884
109.844
109.809
109.78
109.757
109.739
109.727
109.721
109.398
109.404
109.416
109.433
109.457
109.486
109.521
109.561
109.607
109.658
109.715
109.776
109.843
109.914
109.99
110.069
110.153
110.239
110.329
110.421
110.514
110.608
110.703
110.797
110.889
110.979
111.065
111.146
111.221
111.289
111.349
111.4
111.429
111.445
111.459
111.471
111.48
111.487
111.492
111.494
111.494
111.492
111.487
111.48
111.471
111.459
111.445
111.429
111.4
111.349
111.289
111.221
111.146
111.065
110.979
110.889
110.797
110.703
110.608
110.514
110.421
110.329
110.239
110.153
110.069
109.99
109.914
109.843
109.776
109.715
109.658
109.607
109.561
109.521
109.486
109.457
109.433
109.416
109.404
109.398
109.044
109.05
109.061
109.079
109.102
109.131
109.166
109.206
109.252
109.304
109.36
109.422
109.488
109.56
109.635
109.715
109.798
109.885
109.975
110.067
110.16
110.255
110.349
110.443
110.536
110.626
110.712
110.793
110.869
110.937
110.997
111.048
111.077
111.093
111.107
111.119
111.128
111.135
111.14
111.142
111.142
111.14
111.135
111.128
111.119
111.107
111.093
111.077
111.048
110.997
110.937
110.869
110.793
110.712
110.626
110.536
110.443
110.349
110.255
110.16
110.067
109.975
109.885
109.798
109.715
109.635
109.56
109.488
109.422
109.36
109.304
109.252
109.206
109.166
109.131
109.102
109.079
109.061
109.05
109.044
108.654
108.66
108.672
108.689
108.713
108.742
108.777
108.817
108.863
108.914
108.971
109.033
109.099
109.171
109.246
109.326
109.41
109.497
109.586
109.678
109.772
109.867
109.962
110.056
110.149
110.239
110.325
110.407
110.482
110.551
110.612
110.663
110.692
110.708
110.722
110.734
110.743
110.75
110.755
110.758
110.758
110.755
110.75
110.743
110.734
110.722
110.708
110.692
110.663
110.612
110.551
110.482
110.407
110.325
110.239
110.149
110.056
109.962
109.867
109.772
109.678
109.586
109.497
109.41
109.326
109.246
109.171
109.099
109.033
108.971
108.914
108.863
108.817
108.777
108.742
108.713
108.689
108.672
108.66
108.654
108.226
108.232
108.244
108.262
108.285
108.314
108.349
108.389
108.435
108.487
108.543
108.605
108.672
108.743
108.819
108.899
108.983
109.07
109.16
109.252
109.346
109.441
109.536
109.631
109.724
109.815
109.901
109.984
110.06
110.129
110.19
110.241
110.271
110.287
110.301
110.313
110.322
110.329
110.334
110.337
110.337
110.334
110.329
110.322
110.313
110.301
110.287
110.271
110.241
110.19
110.129
110.06
109.984
109.901
109.815
109.724
109.631
109.536
109.441
109.346
109.252
109.16
109.07
108.983
108.899
108.819
108.743
108.672
108.605
108.543
108.487
108.435
108.389
108.349
108.314
108.285
108.262
108.244
108.232
108.226
107.757
107.763
107.774
107.792
107.815
107.844
107.879
107.92
107.966
108.017
108.074
108.136
108.203
108.274
108.35
108.431
108.514
108.602
108.692
108.785
108.879
108.974
109.07
109.165
109.259
109.35
109.437
109.52
109.597
109.666
109.728
109.78
109.81
109.826
109.84
109.852
109.862
109.869
109.874
109.876
109.876
109.874
109.869
109.862
109.852
109.84
109.826
109.81
109.78
109.728
109.666
109.597
109.52
109.437
109.35
109.259
109.165
109.07
108.974
108.879
108.785
108.692
108.602
108.514
108.431
108.35
108.274
108.203
108.136
108.074
108.017
107.966
107.92
107.879
107.844
107.815
107.792
107.774
107.763
107.757
107.241
107.247
107.258
107.276
107.299
107.329
107.363
107.404
107.45
107.502
107.559
107.621
107.688
107.759
107.836
107.916
108
108.088
108.179
108.272
108.366
108.462
108.559
108.654
108.749
108.841
108.929
109.012
109.09
109.16
109.222
109.275
109.306
109.322
109.337
109.349
109.358
109.366
109.37
109.373
109.373
109.37
109.366
109.358
109.349
109.337
109.322
109.306
109.275
109.222
109.16
109.09
109.012
108.929
108.841
108.749
108.654
108.559
108.462
108.366
108.272
108.179
108.088
108
107.916
107.836
107.759
107.688
107.621
107.559
107.502
107.45
107.404
107.363
107.329
107.299
107.276
107.258
107.247
107.241
106.674
106.68
106.691
106.709
106.733
106.762
106.797
106.837
106.884
106.935
106.992
107.055
107.122
107.194
107.27
107.351
107.436
107.524
107.615
107.709
107.804
107.901
107.998
108.095
108.19
108.283
108.372
108.456
108.535
108.607
108.67
108.723
108.754
108.771
108.786
108.798
108.808
108.815
108.82
108.823
108.823
108.82
108.815
108.808
108.798
108.786
108.771
108.754
108.723
108.67
108.607
108.535
108.456
108.372
108.283
108.19
108.095
107.998
107.901
107.804
107.709
107.615
107.524
107.436
107.351
107.27
107.194
107.122
107.055
106.992
106.935
106.884
106.837
106.797
106.762
106.733
106.709
106.691
106.68
106.674
106.051
106.057
106.069
106.086
106.11
106.139
106.174
106.215
106.261
106.313
106.37
106.433
106.5
106.573
106.649
106.731
106.816
106.905
106.996
107.091
107.187
107.285
107.383
107.481
107.577
107.671
107.762
107.848
107.928
108.001
108.065
108.12
108.152
108.169
108.184
108.196
108.207
108.214
108.219
108.222
108.222
108.219
108.214
108.207
108.196
108.184
108.169
108.152
108.12
108.065
108.001
107.928
107.848
107.762
107.671
107.577
107.481
107.383
107.285
107.187
107.091
106.996
106.905
106.816
106.731
106.649
106.573
106.5
106.433
106.37
106.313
106.261
106.215
106.174
106.139
106.11
106.086
106.069
106.057
106.051
105.366
105.372
105.384
105.402
105.425
105.455
105.49
105.531
105.577
105.629
105.687
105.75
105.817
105.89
105.968
106.049
106.135
106.225
106.317
106.413
106.51
106.609
106.708
106.808
106.906
107.001
107.094
107.182
107.264
107.338
107.404
107.461
107.493
107.511
107.526
107.539
107.55
107.558
107.563
107.566
107.566
107.563
107.558
107.55
107.539
107.526
107.511
107.493
107.461
107.404
107.338
107.264
107.182
107.094
107.001
106.906
106.808
106.708
106.609
106.51
106.413
106.317
106.225
106.135
106.049
105.968
105.89
105.817
105.75
105.687
105.629
105.577
105.531
105.49
105.455
105.425
105.402
105.384
105.372
105.366
104.614
104.62
104.632
104.649
104.673
104.703
104.738
104.779
104.826
104.878
104.936
104.999
105.067
105.14
105.218
105.301
105.387
105.478
105.572
105.668
105.767
105.867
105.968
106.07
106.17
106.268
106.363
106.453
106.537
106.614
106.682
106.741
106.774
106.793
106.809
106.822
106.833
106.841
106.847
106.85
106.85
106.847
106.841
106.833
106.822
106.809
106.793
106.774
106.741
106.682
106.614
106.537
106.453
106.363
106.268
106.17
106.07
105.968
105.867
105.767
105.668
105.572
105.478
105.387
105.301
105.218
105.14
105.067
104.999
104.936
104.878
104.826
104.779
104.738
104.703
104.673
104.649
104.632
104.62
104.614
103.786
103.792
103.804
103.822
103.846
103.876
103.911
103.952
103.999
104.052
104.11
104.174
104.243
104.317
104.395
104.479
104.566
104.658
104.753
104.851
104.951
105.054
105.157
105.261
105.363
105.464
105.562
105.655
105.742
105.822
105.894
105.954
105.99
106.009
106.026
106.04
106.051
106.06
106.066
106.069
106.069
106.066
106.06
106.051
106.04
106.026
106.009
105.99
105.954
105.894
105.822
105.742
105.655
105.562
105.464
105.363
105.261
105.157
105.054
104.951
104.851
104.753
104.658
104.566
104.479
104.395
104.317
104.243
104.174
104.11
104.052
103.999
103.952
103.911
103.876
103.846
103.822
103.804
103.792
103.786
102.877
102.883
102.895
102.913
102.936
102.966
103.002
103.044
103.091
103.144
103.203
103.267
103.336
103.411
103.491
103.575
103.664
103.757
103.854
103.954
104.056
104.161
104.267
104.374
104.48
104.584
104.685
104.783
104.874
104.958
105.033
105.097
105.134
105.155
105.173
105.188
105.2
105.209
105.215
105.218
105.218
105.215
105.209
105.2
105.188
105.173
105.155
105.134
105.097
105.033
104.958
104.874
104.783
104.685
104.584
104.48
104.374
104.267
104.161
104.056
103.954
103.854
103.757
103.664
103.575
103.491
103.411
103.336
103.267
103.203
103.144
103.091
103.044
103.002
102.966
102.936
102.913
102.895
102.883
102.877
101.876
101.882
101.894
101.912
101.936
101.966
102.002
102.044
102.092
102.145
102.205
102.269
102.34
102.415
102.496
102.582
102.672
102.767
102.866
102.968
103.073
103.181
103.291
103.401
103.511
103.62
103.726
103.828
103.925
104.014
104.094
104.162
104.203
104.225
104.244
104.26
104.273
104.283
104.289
104.293
104.293
104.289
104.283
104.273
104.26
104.244
104.225
104.203
104.162
104.094
104.014
103.925
103.828
103.726
103.62
103.511
103.401
103.291
103.181
103.073
102.968
102.866
102.767
102.672
102.582
102.496
102.415
102.34
102.269
102.205
102.145
102.092
102.044
102.002
101.966
101.936
101.912
101.894
101.882
101.876
100.775
100.781
100.793
100.811
100.835
100.866
100.902
100.944
100.992
101.047
101.106
101.172
101.243
101.32
101.402
101.49
101.582
101.679
101.78
101.885
101.994
102.105
102.219
102.334
102.45
102.564
102.676
102.785
102.888
102.984
103.07
103.144
103.188
103.212
103.233
103.251
103.265
103.276
103.283
103.287
103.287
103.283
103.276
103.265
103.251
103.233
103.212
103.188
103.144
103.07
102.984
102.888
102.785
102.676
102.564
102.45
102.334
102.219
102.105
101.994
101.885
101.78
101.679
101.582
101.49
101.402
101.32
101.243
101.172
101.106
101.047
100.992
100.944
100.902
100.866
100.835
100.811
100.793
100.781
100.775
99.4857
99.4919
99.5041
99.5225
99.547
99.5776
99.6143
99.6571
99.7059
99.7607
99.8215
99.8882
99.9607
100.039
100.123
100.212
100.307
100.406
100.511
100.62
100.733
100.849
100.968
101.09
101.212
101.334
101.455
101.572
101.684
101.789
101.885
101.967
102.017
102.044
102.067
102.087
102.103
102.115
102.124
102.128
102.128
102.124
102.115
102.103
102.087
102.067
102.044
102.017
101.967
101.885
101.789
101.684
101.572
101.455
101.334
101.212
101.09
100.968
100.849
100.733
100.62
100.511
100.406
100.307
100.212
100.123
100.039
99.9607
99.8882
99.8215
99.7607
99.7059
99.6571
99.6143
99.5776
99.547
99.5225
99.5041
99.4919
99.4857
98.0578
98.064
98.0764
98.095
98.1197
98.1507
98.1879
98.2312
98.2807
98.3364
98.3981
98.466
98.54
98.62
98.7059
98.7976
98.8951
98.9981
99.1065
99.2199
99.3381
99.4605
99.5866
99.7157
99.8468
99.9787
100.11
100.239
100.364
100.481
100.589
100.684
100.741
100.772
100.799
100.822
100.841
100.855
100.865
100.87
100.87
100.865
100.855
100.841
100.822
100.799
100.772
100.741
100.684
100.589
100.481
100.364
100.239
100.11
99.9787
99.8468
99.7157
99.5866
99.4605
99.3381
99.2199
99.1065
98.9981
98.8951
98.7976
98.7059
98.62
98.54
98.466
98.3981
98.3364
98.2807
98.2312
98.1879
98.1507
98.1197
98.095
98.0764
98.064
98.0578
96.6237
96.6299
96.6424
96.6612
96.6863
96.7176
96.7552
96.7991
96.8493
96.9058
96.9687
97.0378
97.1133
97.1951
97.2831
97.3774
97.4779
97.5845
97.697
97.8153
97.9392
98.0682
98.2019
98.3397
98.4808
98.624
98.768
98.9108
99.0502
99.1833
99.3067
99.4166
99.483
99.5198
99.5521
99.5796
99.6019
99.619
99.6304
99.6362
99.6362
99.6304
99.619
99.6019
99.5796
99.5521
99.5198
99.483
99.4166
99.3067
99.1833
99.0502
98.9108
98.768
98.624
98.4808
98.3397
98.2019
98.0682
97.9392
97.8153
97.697
97.5845
97.4779
97.3774
97.2831
97.1951
97.1133
97.0378
96.9687
96.9058
96.8493
96.7991
96.7552
96.7176
96.6863
96.6612
96.6424
96.6299
96.6237
95.1833
95.1896
95.2022
95.2212
95.2465
95.2782
95.3163
95.3607
95.4116
95.469
95.5329
95.6033
95.6803
95.7639
95.8541
95.951
96.0546
96.1648
96.2817
96.4052
96.535
96.6711
96.8131
96.9606
97.1127
97.2686
97.4269
97.5858
97.7429
97.8949
98.0379
98.1671
98.2463
98.2904
98.3294
98.3627
98.3899
98.4107
98.4247
98.4318
98.4318
98.4247
98.4107
98.3899
98.3627
98.3294
98.2904
98.2463
98.1671
98.0379
97.8949
97.7429
97.5858
97.4269
97.2686
97.1127
96.9606
96.8131
96.6711
96.535
96.4052
96.2817
96.1648
96.0546
95.951
95.8541
95.7639
95.6803
95.6033
95.5329
95.469
95.4116
95.3607
95.3163
95.2782
95.2465
95.2212
95.2022
95.1896
95.1833
93.7366
93.743
93.7557
93.7749
93.8004
93.8324
93.8709
93.9159
93.9675
94.0257
94.0905
94.1622
94.2407
94.326
94.4184
94.5179
94.6246
94.7386
94.8599
94.9886
95.1247
95.2682
95.4189
95.5766
95.7408
95.9107
96.0853
96.2627
96.4406
96.6155
96.783
96.937
97.0333
97.0872
97.1353
97.1766
97.2106
97.2366
97.2543
97.2632
97.2632
97.2543
97.2366
97.2106
97.1766
97.1353
97.0872
97.0333
96.937
96.783
96.6155
96.4406
96.2627
96.0853
95.9107
95.7408
95.5766
95.4189
95.2682
95.1247
94.9886
94.8599
94.7386
94.6246
94.5179
94.4184
94.326
94.2407
94.1622
94.0905
94.0257
93.9675
93.9159
93.8709
93.8324
93.8004
93.7749
93.7557
93.743
93.7366
92.2835
92.2899
92.3028
92.3221
92.3479
92.3802
92.419
92.4645
92.5167
92.5757
92.6415
92.7142
92.7941
92.8812
92.9757
93.0777
93.1874
93.3049
93.4306
93.5646
93.707
93.858
94.0178
94.1862
94.3632
94.5483
94.7407
94.9391
95.1412
95.3437
95.5415
95.7276
95.8468
95.9143
95.975
96.0276
96.0713
96.1051
96.128
96.1397
96.1397
96.128
96.1051
96.0713
96.0276
95.975
95.9143
95.8468
95.7276
95.5415
95.3437
95.1412
94.9391
94.7407
94.5483
94.3632
94.1862
94.0178
93.858
93.707
93.5646
93.4306
93.3049
93.1874
93.0777
92.9757
92.8812
92.7941
92.7142
92.6415
92.5757
92.5167
92.4645
92.419
92.3802
92.3479
92.3221
92.3028
92.2899
92.2835
90.824
90.8305
90.8434
90.8628
90.8888
90.9214
90.9606
91.0065
91.0592
91.1188
91.1854
91.2592
91.3403
91.429
91.5254
91.6297
91.7422
91.8632
91.9931
92.1321
92.2807
92.4392
92.6079
92.7873
92.9775
93.1786
93.3903
93.6118
93.8415
94.0765
94.3117
94.5393
94.6898
94.7762
94.8549
94.9243
94.9825
95.028
95.0592
95.0751
95.0751
95.0592
95.028
94.9825
94.9243
94.8549
94.7762
94.6898
94.5393
94.3117
94.0765
93.8415
93.6118
93.3903
93.1786
92.9775
92.7873
92.6079
92.4392
92.2807
92.1321
91.9931
91.8632
91.7422
91.6297
91.5254
91.429
91.3403
91.2592
91.1854
91.1188
91.0592
91.0065
90.9606
90.9214
90.8888
90.8628
90.8434
90.8305
90.824
89.358
89.3645
89.3775
89.3971
89.4232
89.4559
89.4953
89.5416
89.5947
89.6549
89.7222
89.7969
89.8791
89.9691
90.0671
90.1735
90.2885
90.4127
90.5464
90.6901
90.8445
91.01
91.1874
91.3775
91.5808
91.7982
92.0299
92.2763
92.5366
92.809
93.0895
93.3703
93.5638
93.6771
93.7825
93.8772
93.9584
94.0229
94.0679
94.0911
94.0911
94.0679
94.0229
93.9584
93.8772
93.7825
93.6771
93.5638
93.3703
93.0895
92.809
92.5366
92.2763
92.0299
91.7982
91.5808
91.3775
91.1874
91.01
90.8445
90.6901
90.5464
90.4127
90.2885
90.1735
90.0671
89.9691
89.8791
89.7969
89.7222
89.6549
89.5947
89.5416
89.4953
89.4559
89.4232
89.3971
89.3775
89.3645
89.358
87.8856
87.8921
87.9051
87.9247
87.9509
87.9838
88.0234
88.0698
88.1232
88.1838
88.2516
88.327
88.41
88.5011
88.6005
88.7086
88.8258
88.9526
89.0897
89.2375
89.397
89.569
89.7544
89.9544
90.1703
90.4033
90.6551
90.9268
91.2195
91.5334
91.8669
92.2144
92.4666
92.6184
92.7638
92.8988
93.0184
93.1167
93.1872
93.2242
93.2242
93.1872
93.1167
93.0184
92.8988
92.7638
92.6184
92.4666
92.2144
91.8669
91.5334
91.2195
90.9268
90.6551
90.4033
90.1703
89.9544
89.7544
89.569
89.397
89.2375
89.0897
88.9526
88.8258
88.7086
88.6005
88.5011
88.41
88.327
88.2516
88.1838
88.1232
88.0698
88.0234
87.9838
87.9509
87.9247
87.9051
87.8921
87.8856
86.4066
86.4131
86.4262
86.4458
86.472
86.5048
86.5445
86.5911
86.6446
86.7054
86.7736
86.8493
86.933
87.0248
87.1252
87.2346
87.3534
87.4824
87.6221
87.7733
87.9371
88.1144
88.3067
88.5154
88.7424
88.9899
89.2602
89.5563
89.8813
90.2384
90.6301
91.0569
91.3865
91.5922
91.7978
91.9984
92.1865
92.351
92.4765
92.5445
92.5445
92.4765
92.351
92.1865
91.9984
91.7978
91.5922
91.3865
91.0569
90.6301
90.2384
89.8813
89.5563
89.2602
88.9899
88.7424
88.5154
88.3067
88.1144
87.9371
87.7733
87.6221
87.4824
87.3534
87.2346
87.1252
87.0248
86.933
86.8493
86.7736
86.7054
86.6446
86.5911
86.5445
86.5048
86.472
86.4458
86.4262
86.4131
86.4066
84.9211
84.9276
84.9406
84.9602
84.9863
85.0192
85.0588
85.1053
85.1589
85.2196
85.2879
85.3638
85.4477
85.5399
85.6409
85.7511
85.871
86.0014
86.143
86.2966
86.4636
86.645
86.8426
87.0582
87.2942
87.5535
87.8396
88.1569
88.511
88.9086
89.3583
89.8699
90.2918
90.5668
90.8571
91.1611
91.4738
91.7827
92.0571
92.2271
92.2271
92.0571
91.7827
91.4738
91.1611
90.8571
90.5668
90.2918
89.8699
89.3583
88.9086
88.511
88.1569
87.8396
87.5535
87.2942
87.0582
86.8426
86.645
86.4636
86.2966
86.143
86.0014
85.871
85.7511
85.6409
85.5399
85.4477
85.3638
85.2879
85.2196
85.1589
85.1053
85.0588
85.0192
84.9863
84.9602
84.9406
84.9276
84.9211
83.4292
83.4356
83.4486
83.468
83.494
83.5267
83.5661
83.6125
83.6658
83.7264
83.7945
83.8703
83.9541
84.0463
84.1474
84.2578
84.3782
84.5092
84.6517
84.8067
84.9755
85.1594
85.3604
85.5806
85.8227
86.0903
86.3877
86.7208
87.0971
87.5269
88.0245
88.6102
89.1194
89.464
89.8469
90.2793
90.7808
91.3892
92.182
100.419
100.419
92.182
91.3892
90.7808
90.2793
89.8469
89.464
89.1194
88.6102
88.0245
87.5269
87.0971
86.7208
86.3877
86.0903
85.8227
85.5806
85.3604
85.1594
84.9755
84.8067
84.6517
84.5092
84.3782
84.2578
84.1474
84.0463
83.9541
83.8703
83.7945
83.7264
83.6658
83.6125
83.5661
83.5267
83.494
83.468
83.4486
83.4356
83.4292
81.9307
81.9372
81.95
81.9693
81.9951
82.0275
82.0666
82.1126
82.1656
82.2258
82.2934
82.3688
82.4521
82.5439
82.6446
82.7546
82.8747
83.0055
83.1479
83.3031
83.4722
83.6569
83.859
84.081
84.3258
84.5972
84.9002
85.2414
85.6297
86.0775
86.6026
87.2314
87.7886
88.1673
88.5861
89.0474
89.5468
90.0629
90.622
116.634
116.634
90.622
90.0629
89.5468
89.0474
88.5861
88.1673
87.7886
87.2314
86.6026
86.0775
85.6297
85.2414
84.9002
84.5972
84.3258
84.081
83.859
83.6569
83.4722
83.3031
83.1479
83.0055
82.8747
82.7546
82.6446
82.5439
82.4521
82.3688
82.2934
82.2258
82.1656
82.1126
82.0666
82.0275
81.9951
81.9693
81.95
81.9372
81.9307
80.4259
80.4323
80.4449
80.464
80.4895
80.5216
80.5603
80.6057
80.6581
80.7177
80.7846
80.8592
80.9417
81.0326
81.1323
81.2414
81.3604
81.4901
81.6314
81.7854
81.9534
82.1369
82.3378
82.5586
82.8022
83.0725
83.3746
83.715
84.1028
84.5507
85.077
85.7097
86.2766
86.6674
87.1106
87.6223
88.2286
88.9749
91.4158
111.865
111.865
91.4158
88.9749
88.2286
87.6223
87.1106
86.6674
86.2766
85.7097
85.077
84.5507
84.1028
83.715
83.3746
83.0725
82.8022
82.5586
82.3378
82.1369
81.9534
81.7854
81.6314
81.4901
81.3604
81.2414
81.1323
81.0326
80.9417
80.8592
80.7846
80.7177
80.6581
80.6057
80.5603
80.5216
80.4895
80.464
80.4449
80.4323
80.4259
78.9148
78.921
78.9335
78.9523
78.9774
79.009
79.0471
79.0919
79.1436
79.2022
79.2682
79.3416
79.423
79.5125
79.6108
79.7182
79.8354
79.9632
80.1023
80.2539
80.4191
80.5994
80.7967
81.0133
81.2519
81.5161
81.8106
82.1412
82.5158
82.9454
83.4449
84.036
84.5523
84.9017
85.2883
85.7188
86.2013
86.7607
119.402
126.647
126.647
119.402
86.7607
86.2013
85.7188
85.2883
84.9017
84.5523
84.036
83.4449
82.9454
82.5158
82.1412
81.8106
81.5161
81.2519
81.0133
80.7967
80.5994
80.4191
80.2539
80.1023
79.9632
79.8354
79.7182
79.6108
79.5125
79.423
79.3416
79.2682
79.2022
79.1436
79.0919
79.0471
79.009
78.9774
78.9523
78.9335
78.921
78.9148
77.3974
77.4035
77.4158
77.4342
77.4589
77.4899
77.5273
77.5713
77.6219
77.6795
77.7442
77.8162
77.896
77.9838
78.08
78.1852
78.2999
78.4248
78.5607
78.7086
78.8696
79.045
79.2364
79.446
79.676
79.9296
80.2104
80.5232
80.874
81.2702
81.7213
82.2384
82.6678
82.948
83.2435
83.5518
83.8668
84.2603
110.568
119.898
119.898
110.568
84.2603
83.8668
83.5518
83.2435
82.948
82.6678
82.2384
81.7213
81.2702
80.874
80.5232
80.2104
79.9296
79.676
79.446
79.2364
79.045
78.8696
78.7086
78.5607
78.4248
78.2999
78.1852
78.08
77.9838
77.896
77.8162
77.7442
77.6795
77.6219
77.5713
77.5273
77.4899
77.4589
77.4342
77.4158
77.4035
77.3974
75.8739
75.8799
75.8918
75.9099
75.934
75.9643
76.0009
76.0439
76.0934
76.1497
76.2128
76.2832
76.361
76.4465
76.5403
76.6427
76.7542
76.8755
77.0072
77.1503
77.3057
77.4745
77.6581
77.8581
78.0766
78.3157
78.5782
78.8673
79.1867
79.5402
79.9317
80.3635
80.7026
80.9167
81.1339
81.3509
81.5624
81.8729
99.7283
109.86
109.86
99.7283
81.8729
81.5624
81.3509
81.1339
80.9167
80.7026
80.3635
79.9317
79.5402
79.1867
78.8673
78.5782
78.3157
78.0766
77.8581
77.6581
77.4745
77.3057
77.1503
77.0072
76.8755
76.7542
76.6427
76.5403
76.4465
76.361
76.2832
76.2128
76.1497
76.0934
76.0439
76.0009
75.9643
75.934
75.9099
75.8918
75.8799
75.8739
74.3444
74.3502
74.3619
74.3795
74.403
74.4325
74.4681
74.51
74.5582
74.6129
74.6743
74.7426
74.8181
74.9011
74.992
75.091
75.1987
75.3157
75.4424
75.5797
75.7283
75.8891
76.0633
76.2519
76.4565
76.6785
76.9195
77.1812
77.4651
77.7721
78.1018
78.4507
78.7102
78.8694
79.0259
79.177
79.3197
79.5518
91.7624
101.965
101.965
91.7624
79.5518
79.3197
79.177
79.0259
78.8694
78.7102
78.4507
78.1018
77.7721
77.4651
77.1812
76.9195
76.6785
76.4565
76.2519
76.0633
75.8891
75.7283
75.5797
75.4424
75.3157
75.1987
75.091
74.992
74.9011
74.8181
74.7426
74.6743
74.6129
74.5582
74.51
74.4681
74.4325
74.403
74.3795
74.3619
74.3502
74.3444
72.809
72.8147
72.8261
72.8431
72.8659
72.8946
72.9292
72.9697
73.0164
73.0694
73.1288
73.1949
73.2679
73.3479
73.4354
73.5307
73.6341
73.746
73.8671
73.9978
74.1387
74.2905
74.4539
74.6298
74.819
75.0222
75.24
75.4729
75.7205
75.9815
76.2526
76.5275
76.7207
76.8356
76.9447
77.046
77.1375
77.2875
84.9355
95.5456
95.5456
84.9355
77.2875
77.1375
77.046
76.9447
76.8356
76.7207
76.5275
76.2526
75.9815
75.7205
75.4729
75.24
75.0222
74.819
74.6298
74.4539
74.2905
74.1387
73.9978
73.8671
73.746
73.6341
73.5307
73.4354
73.3479
73.2679
73.1949
73.1288
73.0694
73.0164
72.9697
72.9292
72.8946
72.8659
72.8431
72.8261
72.8147
72.809
71.268
71.2735
71.2845
71.301
71.3231
71.3508
71.3842
71.4233
71.4684
71.5195
71.5767
71.6403
71.7104
71.7873
71.8711
71.9622
72.0608
72.1673
72.2821
72.4056
72.5381
72.6802
72.8322
72.9945
73.1675
73.3512
73.5456
73.7498
73.9625
74.1807
74.3997
74.6117
74.7512
74.831
74.9028
74.9649
75.0152
75.0821
78.3084
89.9942
89.9942
78.3084
75.0821
75.0152
74.9649
74.9028
74.831
74.7512
74.6117
74.3997
74.1807
73.9625
73.7498
73.5456
73.3512
73.1675
72.9945
72.8322
72.6802
72.5381
72.4056
72.2821
72.1673
72.0608
71.9622
71.8711
71.7873
71.7104
71.6403
71.5767
71.5195
71.4684
71.4233
71.3842
71.3508
71.3231
71.301
71.2845
71.2735
71.268
69.7216
69.7268
69.7374
69.7533
69.7746
69.8012
69.8334
69.8711
69.9144
69.9634
70.0183
70.0792
70.1463
70.2196
70.2995
70.3861
70.4797
70.5804
70.6885
70.8043
70.9281
71.0599
71.2001
71.3485
71.5052
71.6696
71.8412
72.0183
72.1989
72.3792
72.5538
72.7148
72.8129
72.8661
72.9104
72.9438
72.9639
72.9699
72.9637
86.2551
86.2551
72.9637
72.9699
72.9639
72.9438
72.9104
72.8661
72.8129
72.7148
72.5538
72.3792
72.1989
72.0183
71.8412
71.6696
71.5052
71.3485
71.2001
71.0599
70.9281
70.8043
70.6885
70.5804
70.4797
70.3861
70.2995
70.2196
70.1463
70.0792
70.0183
69.9634
69.9144
69.8711
69.8334
69.8012
69.7746
69.7533
69.7374
69.7268
69.7216
68.1698
68.1749
68.185
68.2003
68.2207
68.2463
68.2771
68.3131
68.3546
68.4015
68.4539
68.512
68.5758
68.6455
68.7212
68.8031
68.8913
68.986
69.0872
69.1952
69.3099
69.4314
69.5596
69.6943
69.835
69.981
70.1311
70.2835
70.4355
70.5833
70.7215
70.8428
70.9112
70.9463
70.973
70.9901
70.9962
70.9895
70.9785
85.6809
85.6809
70.9785
70.9895
70.9962
70.9901
70.973
70.9463
70.9112
70.8428
70.7215
70.5833
70.4355
70.2835
70.1311
69.981
69.835
69.6943
69.5596
69.4314
69.3099
69.1952
69.0872
68.986
68.8913
68.8031
68.7212
68.6455
68.5758
68.512
68.4539
68.4015
68.3546
68.3131
68.2771
68.2463
68.2207
68.2003
68.185
68.1749
68.1698
66.6129
66.6178
66.6275
66.6421
66.6616
66.686
66.7154
66.7499
66.7894
66.834
66.8838
66.9389
66.9994
67.0653
67.1368
67.2138
67.2966
67.385
67.4793
67.5793
67.6849
67.7962
67.9127
68.0341
68.1596
68.2883
68.4188
68.5491
68.6764
68.797
68.9061
68.9975
69.0453
69.0684
69.0844
69.0927
69.0926
69.0836
69.0746
86.1256
86.1256
69.0746
69.0836
69.0926
69.0927
69.0844
69.0684
69.0453
68.9975
68.9061
68.797
68.6764
68.5491
68.4188
68.2883
68.1596
68.0341
67.9127
67.7962
67.6849
67.5793
67.4793
67.385
67.2966
67.2138
67.1368
67.0653
66.9994
66.9389
66.8838
66.834
66.7894
66.7499
66.7154
66.686
66.6616
66.6421
66.6275
66.6178
66.6129
65.0512
65.0559
65.0651
65.079
65.0976
65.1209
65.1488
65.1815
65.219
65.2613
65.3085
65.3606
65.4176
65.4796
65.5467
65.6188
65.696
65.7783
65.8655
65.9576
66.0544
66.1557
66.261
66.3697
66.481
66.5939
66.7067
66.8176
66.9239
67.0222
67.1085
67.1776
67.211
67.2261
67.2352
67.2379
67.2336
67.2224
67.2131
85.2714
85.2714
67.2131
67.2224
67.2336
67.2379
67.2352
67.2261
67.211
67.1776
67.1085
67.0222
66.9239
66.8176
66.7067
66.5939
66.481
66.3697
66.261
66.1557
66.0544
65.9576
65.8655
65.7783
65.696
65.6188
65.5467
65.4796
65.4176
65.3606
65.3085
65.2613
65.219
65.1815
65.1488
65.1209
65.0976
65.079
65.0651
65.0559
65.0512
63.4849
63.4893
63.4981
63.5113
63.5289
63.551
63.5774
63.6084
63.6438
63.6838
63.7282
63.7772
63.8308
63.8889
63.9516
64.0188
64.0905
64.1665
64.2469
64.3313
64.4195
64.5112
64.6058
64.7027
64.8009
64.8994
64.9966
65.0907
65.1793
65.2595
65.3279
65.3806
65.4042
65.414
65.4188
65.4178
65.4103
65.395
65.3815
67.2126
67.2126
65.3815
65.395
65.4103
65.4178
65.4188
65.414
65.4042
65.3806
65.3279
65.2595
65.1793
65.0907
64.9966
64.8994
64.8009
64.7027
64.6058
64.5112
64.4195
64.3313
64.2469
64.1665
64.0905
64.0188
63.9516
63.8889
63.8308
63.7772
63.7282
63.6838
63.6438
63.6084
63.5774
63.551
63.5289
63.5113
63.4981
63.4893
63.4849
61.9144
61.9185
61.9269
61.9393
61.956
61.9768
62.0018
62.031
62.0643
62.1019
62.1436
62.1896
62.2396
62.2939
62.3522
62.4145
62.4807
62.5508
62.6244
62.7014
62.7814
62.864
62.9486
63.0345
63.1209
63.2065
63.29
63.3697
63.4435
63.5089
63.5634
63.6041
63.6214
63.6284
63.6317
63.6311
63.6269
63.6196
63.6105
65.3486
65.3486
63.6105
63.6196
63.6269
63.6311
63.6317
63.6284
63.6214
63.6041
63.5634
63.5089
63.4435
63.3697
63.29
63.2065
63.1209
63.0345
62.9486
62.864
62.7814
62.7014
62.6244
62.5508
62.4807
62.4145
62.3522
62.2939
62.2396
62.1896
62.1436
62.1019
62.0643
62.031
62.0018
61.9768
61.956
61.9393
61.9269
61.9185
61.9144
60.3397
60.3436
60.3515
60.3632
60.3789
60.3985
60.422
60.4494
60.4807
60.5158
60.5549
60.5977
60.6444
60.6947
60.7487
60.8063
60.8672
60.9314
60.9986
61.0685
61.1407
61.2147
61.2901
61.366
61.4416
61.5158
61.5873
61.6546
61.7159
61.7694
61.8128
61.8443
61.857
61.8619
61.8639
61.8629
61.859
61.8525
61.8434
63.5926
63.5926
61.8434
61.8525
61.859
61.8629
61.8639
61.8619
61.857
61.8443
61.8128
61.7694
61.7159
61.6546
61.5873
61.5158
61.4416
61.366
61.2901
61.2147
61.1407
61.0685
60.9986
60.9314
60.8672
60.8063
60.7487
60.6947
60.6444
60.5977
60.5549
60.5158
60.4807
60.4494
60.422
60.3985
60.3789
60.3632
60.3515
60.3436
60.3397
58.7611
58.7648
58.7721
58.7832
58.7979
58.8162
58.8382
58.8639
58.8931
58.9259
58.9623
59.0021
59.0453
59.0919
59.1417
59.1947
59.2505
59.309
59.37
59.4332
59.4981
59.5642
59.631
59.6978
59.7637
59.8277
59.8887
59.9454
59.9962
60.0397
60.0743
60.0984
60.1073
60.1104
60.111
60.1091
60.1048
60.0981
60.0889
61.8612
61.8612
60.0889
60.0981
60.1048
60.1091
60.111
60.1104
60.1073
60.0984
60.0743
60.0397
59.9962
59.9454
59.8887
59.8277
59.7637
59.6978
59.631
59.5642
59.4981
59.4332
59.37
59.309
59.2505
59.1947
59.1417
59.0919
59.0453
59.0021
58.9623
58.9259
58.8931
58.8639
58.8382
58.8162
58.7979
58.7832
58.7721
58.7648
58.7611
57.1788
57.1822
57.1891
57.1994
57.2132
57.2303
57.2509
57.2748
57.302
57.3325
57.3662
57.4031
57.443
57.4859
57.5317
57.5801
57.631
57.6842
57.7394
57.7962
57.8542
57.913
57.972
58.0305
58.0877
58.1427
58.1945
58.242
58.2839
58.3191
58.3462
58.3641
58.3698
58.3712
58.3705
58.3677
58.3628
58.3557
58.3464
60.1467
60.1467
58.3464
58.3557
58.3628
58.3677
58.3705
58.3712
58.3698
58.3641
58.3462
58.3191
58.2839
58.242
58.1945
58.1427
58.0877
58.0305
57.972
57.913
57.8542
57.7962
57.7394
57.6842
57.631
57.5801
57.5317
57.4859
57.443
57.4031
57.3662
57.3325
57.302
57.2748
57.2509
57.2303
57.2132
57.1994
57.1891
57.1822
57.1788
55.5931
55.5963
55.6027
55.6123
55.6251
55.6411
55.6601
55.6823
55.7076
55.7358
55.7669
55.8009
55.8377
55.8771
55.9189
55.9631
56.0093
56.0574
56.1071
56.158
56.2096
56.2617
56.3135
56.3644
56.4138
56.4608
56.5046
56.5441
56.5784
56.6065
56.6273
56.64
56.6429
56.6428
56.6409
56.6372
56.6316
56.6241
56.6146
58.4472
58.4472
56.6146
56.6241
56.6316
56.6372
56.6409
56.6428
56.6429
56.64
56.6273
56.6065
56.5784
56.5441
56.5046
56.4608
56.4138
56.3644
56.3135
56.2617
56.2096
56.158
56.1071
56.0574
56.0093
55.9631
55.9189
55.8771
55.8377
55.8009
55.7669
55.7358
55.7076
55.6823
55.6601
55.6411
55.6251
55.6123
55.6027
55.5963
55.5931
54.0041
54.0071
54.0131
54.022
54.0339
54.0487
54.0663
54.0868
54.1102
54.1362
54.1649
54.1961
54.2297
54.2657
54.3038
54.3439
54.3857
54.4291
54.4736
54.5189
54.5647
54.6105
54.6558
54.7
54.7423
54.7823
54.8189
54.8515
54.8791
54.9011
54.9165
54.9247
54.925
54.9236
54.9206
54.916
54.9098
54.9019