/*--------------------------------*- C++ -*----------------------------------*\
  =========                 |
  \\      /  F ield         | OpenFOAM: The Open Source CFD Toolbox
   \\    /   O peration     | Website:  https://openfoam.org
    \\  /    A nd           | Version:  10
     \\/     M anipulation  |
\*---------------------------------------------------------------------------*/
FoamFile
{
    format      ascii;
    class       surfaceScalarField;
    location    "4.7";
    object      phi;
}
// * * * * * * * * * * * * * * * * * * * * * * * * * * * * * * * * * * * * * //

dimensions      [0 3 -1 0 0 0 0];

internalField   nonuniform List<scalar> 
24170
(
8.46066e-10
-8.46066e-10
1.57687e-09
-7.30799e-10
2.17028e-09
-5.9342e-10
2.63776e-09
-4.67476e-10
3.00465e-09
-3.66887e-10
3.29792e-09
-2.93271e-10
3.54104e-09
-2.43125e-10
3.753e-09
-2.11957e-10
3.94908e-09
-1.96079e-10
4.14231e-09
-1.93234e-10
4.34518e-09
-2.02869e-10
4.57177e-09
-2.2659e-10
4.84114e-09
-2.69368e-10
5.184e-09
-3.42856e-10
5.65924e-09
-4.75239e-10
6.40587e-09
-7.46631e-10
7.86455e-09
-1.45868e-09
-4.28844e-09
1.2153e-08
1.09763e-09
-1.9437e-09
2.03893e-09
-1.6721e-09
2.79587e-09
-1.35036e-09
3.38572e-09
-1.05732e-09
3.8436e-09
-8.24769e-10
4.20596e-09
-6.55629e-10
4.50394e-09
-5.41114e-10
4.76239e-09
-4.70401e-10
5.00101e-09
-4.34702e-10
5.2364e-09
-4.28619e-10
5.4842e-09
-4.50674e-10
5.76182e-09
-5.04208e-10
6.09233e-09
-5.99878e-10
6.51182e-09
-7.62346e-10
7.08564e-09
-1.04906e-09
7.94868e-09
-1.60967e-09
9.39186e-09
-2.90186e-09
-6.50983e-09
1.16133e-08
1.33069e-09
-3.27439e-09
2.46222e-09
-2.80363e-09
3.36208e-09
-2.25023e-09
4.05502e-09
-1.75026e-09
4.58679e-09
-1.35654e-09
5.00335e-09
-1.07219e-09
5.34316e-09
-8.80923e-10
5.63631e-09
-7.63552e-10
5.90631e-09
-7.04705e-10
6.17256e-09
-6.94873e-10
6.45297e-09
-7.31079e-10
6.76681e-09
-8.18051e-10
7.13859e-09
-9.7166e-10
7.6041e-09
-1.22785e-09
8.22055e-09
-1.66551e-09
9.07786e-09
-2.46698e-09
1.02509e-08
-4.07488e-09
-7.47069e-09
1.12117e-08
1.58182e-09
-4.85621e-09
2.91267e-09
-4.13447e-09
3.95677e-09
-3.29433e-09
4.74958e-09
-2.54307e-09
5.35011e-09
-1.95706e-09
5.81529e-09
-1.53737e-09
6.19149e-09
-1.25712e-09
6.51416e-09
-1.08622e-09
6.81039e-09
-1.00094e-09
7.10198e-09
-9.86464e-10
7.40836e-09
-1.03746e-09
7.74947e-09
-1.15916e-09
8.1488e-09
-1.37099e-09
8.63681e-09
-1.71586e-09
9.2522e-09
-2.28089e-09
1.0026e-08
-3.24075e-09
1.08753e-08
-4.92417e-09
-7.76455e-09
1.11691e-08
1.86862e-09
-6.72483e-09
3.41949e-09
-5.68534e-09
4.61547e-09
-4.49031e-09
5.508e-09
-3.43559e-09
6.1735e-09
-2.62257e-09
6.6823e-09
-2.04617e-09
7.08969e-09
-1.6645e-09
7.43676e-09
-1.43329e-09
7.75406e-09
-1.31824e-09
8.06534e-09
-1.29774e-09
8.39079e-09
-1.36292e-09
8.74965e-09
-1.51801e-09
9.16208e-09
-1.78342e-09
9.64923e-09
-2.203e-09
1.02264e-08
-2.85811e-09
1.08725e-08
-3.88677e-09
1.14284e-08
-5.48015e-09
-7.72438e-09
1.13883e-08
2.20832e-09
-8.93315e-09
4.00912e-09
-7.48614e-09
5.36754e-09
-5.84873e-09
6.35931e-09
-4.42736e-09
7.08453e-09
-3.3478e-09
7.6302e-09
-2.59184e-09
8.06195e-09
-2.09625e-09
8.42686e-09
-1.7982e-09
8.75869e-09
-1.65007e-09
9.08263e-09
-1.62168e-09
9.41873e-09
-1.69901e-09
9.78419e-09
-1.88348e-09
1.01939e-08
-2.19313e-09
1.06575e-08
-2.66661e-09
1.11679e-08
-3.36847e-09
1.16689e-08
-4.38778e-09
1.19886e-08
-5.79991e-09
-7.52147e-09
1.17857e-08
2.62275e-09
-1.15559e-08
4.71295e-09
-9.57634e-09
6.24528e-09
-7.38106e-09
7.33305e-09
-5.51513e-09
8.10906e-09
-4.12381e-09
8.68144e-09
-3.16422e-09
9.1278e-09
-2.54261e-09
9.50147e-09
-2.17187e-09
9.83911e-09
-1.98771e-09
1.01666e-08
-1.94917e-09
1.05029e-08
-2.03534e-09
1.08621e-08
-2.24261e-09
1.12524e-08
-2.58344e-09
1.1672e-08
-3.0862e-09
1.20962e-08
-3.79273e-09
1.24533e-08
-4.74482e-09
1.25936e-08
-5.94026e-09
-7.23947e-09
1.23116e-08
3.14281e-09
-1.46987e-08
5.57286e-09
-1.20064e-08
7.28906e-09
-9.09725e-09
8.46365e-09
-6.68973e-09
9.27525e-09
-4.93541e-09
9.85884e-09
-3.7478e-09
1.03058e-08
-2.98954e-09
1.06757e-08
-2.5418e-09
1.10075e-08
-2.31953e-09
1.1327e-08
-2.26861e-09
1.1651e-08
-2.35934e-09
1.19893e-08
-2.58099e-09
1.23436e-08
-2.93775e-09
1.27021e-08
-3.44469e-09
1.30297e-08
-4.12032e-09
1.32541e-08
-4.96922e-09
1.32614e-08
-5.94757e-09
-6.91756e-09
1.29395e-08
3.81519e-09
-1.85139e-08
6.64817e-09
-1.48394e-08
8.55223e-09
-1.10013e-08
9.79374e-09
-7.93124e-09
1.06158e-08
-5.75751e-09
1.11874e-08
-4.31934e-09
1.1615e-08
-3.41718e-09
1.19642e-08
-2.89101e-09
1.22751e-08
-2.6304e-09
1.25721e-08
-2.56557e-09
1.2869e-08
-2.65632e-09
1.31712e-08
-2.88315e-09
1.34738e-08
-3.24032e-09
1.37581e-08
-3.72901e-09
1.39854e-08
-4.34762e-09
1.40925e-08
-5.07634e-09
1.40009e-08
-5.85598e-09
-6.57313e-09
1.36565e-08
4.71398e-09
-2.32279e-08
8.02611e-09
-1.81515e-08
1.01076e-08
-1.30828e-08
1.13774e-08
-9.20111e-09
1.21698e-08
-6.54984e-09
1.2695e-08
-4.84461e-09
1.30758e-08
-3.79792e-09
1.33817e-08
-3.19697e-09
1.36524e-08
-2.90108e-09
1.39095e-08
-2.82264e-09
1.41629e-08
-2.90971e-09
1.44129e-08
-3.13314e-09
1.46495e-08
-3.47699e-09
1.48505e-08
-3.92993e-09
1.49785e-08
-4.47563e-09
1.49837e-08
-5.08159e-09
1.48167e-08
-5.68901e-09
-6.21308e-09
1.44567e-08
5.96298e-09
-2.91909e-08
9.83922e-09
-2.20277e-08
1.20559e-08
-1.52994e-08
1.32837e-08
-1.0429e-08
1.39831e-08
-7.24922e-09
1.44128e-08
-5.27431e-09
1.47092e-08
-4.09428e-09
1.49427e-08
-3.43055e-09
1.51495e-08
-3.10784e-09
1.53463e-08
-3.01944e-09
1.5538e-08
-3.10138e-09
1.57199e-08
-3.31509e-09
1.58784e-08
-3.63546e-09
1.59899e-08
-4.04146e-09
1.60222e-08
-4.50788e-09
1.59389e-08
-4.99832e-09
1.57119e-08
-5.462e-09
-5.8392e-09
1.5338e-08
6.4747e-09
-3.56656e-08
1.02572e-08
-2.58103e-08
1.21548e-08
-1.7197e-08
1.30632e-08
-1.13373e-08
1.35049e-08
-7.69094e-09
1.37377e-08
-5.5071e-09
1.38819e-08
-4.23854e-09
1.39927e-08
-3.54129e-09
1.40939e-08
-3.20903e-09
1.41937e-08
-3.11932e-09
1.42913e-08
-3.19896e-09
1.43788e-08
-3.4026e-09
1.44425e-08
-3.69908e-09
1.44629e-08
-4.06192e-09
1.44174e-08
-4.46238e-09
1.42843e-08
-4.86516e-09
1.40505e-08
-5.22827e-09
-5.50892e-09
1.37203e-08
9.69616e-09
-4.53617e-08
1.45746e-08
-3.06887e-08
1.65881e-08
-1.92105e-08
1.73249e-08
-1.20741e-08
1.75569e-08
-7.92292e-09
1.76092e-08
-5.55936e-09
1.76108e-08
-4.24018e-09
1.761e-08
-3.5405e-09
1.76214e-08
-3.22041e-09
1.76446e-08
-3.14254e-09
1.76715e-08
-3.22586e-09
1.76887e-08
-3.41976e-09
1.76784e-08
-3.68884e-09
1.76202e-08
-4.00367e-09
1.7493e-08
-4.33516e-09
1.72801e-08
-4.65225e-09
1.69748e-08
-4.923e-09
-5.11915e-09
1.6585e-08
1.57151e-08
-6.10768e-08
2.17063e-08
-3.668e-08
2.32805e-08
-2.07847e-08
2.33715e-08
-1.21652e-08
2.30695e-08
-7.62089e-09
2.27261e-08
-5.21593e-09
2.24384e-08
-3.95251e-09
2.2221e-08
-3.3231e-09
2.20628e-08
-3.06222e-09
2.19453e-08
-3.025e-09
2.18475e-08
-3.12808e-09
2.17475e-08
-3.3198e-09
2.16229e-08
-3.56425e-09
2.1452e-08
-3.83269e-09
2.12159e-08
-4.09912e-09
2.09028e-08
-4.33908e-09
2.05104e-08
-4.53069e-09
-4.65733e-09
2.00486e-08
2.87535e-08
-8.98303e-08
3.43988e-08
-4.23253e-08
3.37436e-08
-2.01296e-08
3.20803e-08
-1.05018e-08
3.06086e-08
-6.14918e-09
2.94926e-08
-4.09997e-09
2.86773e-08
-3.13721e-09
2.80815e-08
-2.72726e-09
2.76362e-08
-2.61694e-09
2.72874e-08
-2.67616e-09
2.69919e-08
-2.83259e-09
2.67143e-08
-3.04219e-09
2.64248e-08
-3.2748e-09
2.60994e-08
-3.50724e-09
2.57205e-08
-3.72026e-09
2.52792e-08
-3.89778e-09
2.4776e-08
-4.02749e-09
-4.10187e-09
2.42206e-08
6.35578e-08
-1.53388e-07
5.86614e-08
-3.74289e-08
5.03221e-08
-1.17902e-08
4.45284e-08
-4.7082e-09
4.07873e-08
-2.40804e-09
3.83291e-08
-1.64172e-09
3.66554e-08
-1.46358e-09
3.5469e-08
-1.5408e-09
3.45881e-08
-1.73603e-09
3.38948e-08
-1.98287e-09
3.33088e-08
-2.24658e-09
3.27733e-08
-2.5067e-09
3.22477e-08
-2.74919e-09
3.17039e-08
-2.96349e-09
3.11251e-08
-3.14145e-09
3.05045e-08
-3.27716e-09
2.98443e-08
-3.3673e-09
-3.41138e-09
2.91538e-08
1.88698e-07
1.56974e-07
1.05115e-07
4.6154e-08
7.52264e-08
1.80982e-08
6.16599e-08
8.85832e-09
5.43499e-08
4.90194e-09
4.99188e-08
2.78937e-09
4.69947e-08
1.46051e-09
4.49295e-08
5.24396e-10
4.33671e-08
-1.73548e-10
4.20879e-08
-7.0376e-10
4.09831e-08
-1.1417e-09
3.99822e-08
-1.50589e-09
3.90396e-08
-1.80658e-09
3.81264e-08
-2.05023e-09
3.72262e-08
-2.24124e-09
3.63322e-08
-2.38323e-09
3.54448e-08
-2.47983e-09
-2.5352e-09
3.45686e-08
7.75173e-08
7.94571e-08
7.7403e-08
4.62683e-08
6.89976e-08
2.65036e-08
6.20549e-08
1.5801e-08
5.71419e-08
9.81491e-09
5.36837e-08
6.2476e-09
5.11698e-08
3.97444e-09
4.92584e-08
2.43576e-09
4.77438e-08
1.3411e-09
4.65084e-08
5.31636e-10
4.54447e-08
-7.80236e-11
4.44583e-08
-5.19532e-10
4.35186e-08
-8.668e-10
4.26071e-08
-1.13878e-09
4.17144e-08
-1.34855e-09
4.0837e-08
-1.50584e-09
3.99757e-08
-1.6185e-09
-1.69316e-09
3.91337e-08
3.64743e-08
4.29828e-08
5.08891e-08
3.18534e-08
5.51598e-08
2.22329e-08
5.56419e-08
1.53189e-08
5.48732e-08
1.05836e-08
5.3777e-08
7.34387e-09
5.2662e-08
5.08944e-09
5.16136e-08
3.48411e-09
5.06407e-08
2.31406e-09
4.97288e-08
1.44345e-09
4.88659e-08
7.8494e-10
4.80651e-08
2.81282e-10
4.72987e-08
-1.00423e-10
4.65423e-08
-3.82399e-10
4.57934e-08
-5.99634e-10
4.50522e-08
-7.64702e-10
4.43211e-08
-8.87324e-10
-9.75261e-10
4.36032e-08
1.46679e-08
2.83149e-08
2.36541e-08
2.28672e-08
2.85192e-08
1.73678e-08
3.10016e-08
1.28365e-08
3.22019e-08
9.38329e-09
3.27213e-08
6.82445e-09
3.28728e-08
4.93793e-09
3.28177e-08
3.5392e-09
3.26402e-08
2.4916e-09
3.23853e-08
1.69831e-09
3.20786e-08
1.09163e-09
3.17357e-08
6.24209e-10
3.13727e-08
2.62556e-10
3.10068e-08
-1.64657e-11
3.06275e-08
-2.20358e-10
3.02401e-08
-3.77296e-10
2.98492e-08
-4.96419e-10
-5.84932e-10
2.94589e-08
8.63358e-09
1.96814e-08
1.48973e-08
1.66035e-08
1.90299e-08
1.32352e-08
2.16436e-08
1.02227e-08
2.32653e-08
7.76163e-09
2.42558e-08
5.83391e-09
2.48433e-08
4.35049e-09
2.51679e-08
3.21455e-09
2.53163e-08
2.34326e-09
2.53427e-08
1.6719e-09
2.52824e-08
1.15189e-09
2.51593e-08
7.47311e-10
2.49902e-08
4.31682e-10
2.47884e-08
1.85359e-10
2.4574e-08
-6.00328e-12
2.43429e-08
-1.46185e-10
2.41007e-08
-2.54239e-10
-3.36351e-10
2.38522e-08
5.64208e-09
1.40393e-08
1.01005e-08
1.21451e-08
1.33608e-08
9.9749e-09
1.56524e-08
7.93107e-09
1.72322e-08
6.18188e-09
1.83087e-08
4.75741e-09
1.90328e-08
3.62633e-09
1.95089e-08
2.73854e-09
1.98078e-08
2.04437e-09
1.99782e-08
1.50146e-09
2.00541e-08
1.076e-09
2.00596e-08
7.41836e-10
2.00123e-08
4.78983e-10
1.99254e-08
2.72218e-10
1.98095e-08
1.09888e-10
1.96793e-08
-1.60007e-11
1.95342e-08
-1.09079e-10
-1.8092e-10
1.93787e-08
3.9374e-09
1.01019e-08
7.20445e-09
8.87804e-09
9.74358e-09
7.43577e-09
1.1644e-08
6.03068e-09
1.30366e-08
4.78923e-09
1.40441e-08
3.74995e-09
1.47649e-08
2.90554e-09
1.52732e-08
2.23024e-09
1.56234e-08
1.69418e-09
1.5855e-08
1.2698e-09
1.59971e-08
9.339e-10
1.60711e-08
6.67851e-10
1.60931e-08
4.57008e-10
1.60753e-08
2.89964e-10
1.60274e-08
1.57841e-10
1.59577e-08
5.37043e-11
1.58749e-08
-2.62863e-11
-8.62732e-11
1.57802e-08
2.86772e-09
7.23416e-09
5.32054e-09
6.42522e-09
7.30221e-09
5.4541e-09
8.84684e-09
4.48606e-09
1.00246e-08
3.61149e-09
1.09098e-08
2.86471e-09
1.15678e-08
2.2476e-09
1.2051e-08
1.74701e-09
1.24002e-08
1.34495e-09
1.26465e-08
1.0235e-09
1.28134e-08
7.66964e-10
1.2919e-08
5.62297e-10
1.2977e-08
3.9903e-10
1.29981e-08
2.6886e-10
1.29907e-08
1.65234e-10
1.29614e-08
8.2979e-11
1.29171e-08
1.79872e-11
-3.10628e-11
1.28619e-08
2.14775e-09
5.08641e-09
4.02187e-09
4.5511e-09
5.57573e-09
3.90025e-09
6.82075e-09
3.24103e-09
7.79625e-09
2.636e-09
8.54907e-09
2.11189e-09
9.12336e-09
1.67331e-09
9.55669e-09
1.31368e-09
9.87949e-09
1.02215e-09
1.01158e-08
7.87224e-10
1.02843e-08
5.98434e-10
1.03997e-08
4.46884e-10
1.04735e-08
3.25293e-10
1.05145e-08
2.27809e-10
1.053e-08
1.49761e-10
1.05255e-08
8.74329e-11
1.05057e-08
3.78553e-11
-1.26283e-12
1.04759e-08
1.63642e-09
3.44999e-09
3.08407e-09
3.10345e-09
4.30604e-09
2.67828e-09
5.30428e-09
2.24279e-09
6.10174e-09
1.83854e-09
6.72898e-09
1.48465e-09
7.21659e-09
1.1857e-09
7.59175e-09
9.38522e-10
7.87722e-09
7.36675e-10
8.09148e-09
5.72964e-10
8.24928e-09
4.40634e-10
8.36233e-09
3.33837e-10
8.4399e-09
2.47716e-10
8.48939e-09
1.78323e-10
8.51667e-09
1.22483e-10
8.52645e-09
7.76469e-11
8.52254e-09
4.17679e-11
1.31834e-11
8.50809e-09
1.25689e-09
2.1931e-09
2.37963e-09
1.98071e-09
3.33948e-09
1.71843e-09
4.13465e-09
1.44762e-09
4.77902e-09
1.19417e-09
5.29312e-09
9.7055e-10
5.69854e-09
7.80281e-10
6.01514e-09
6.21926e-10
6.25997e-09
4.91845e-10
6.44716e-09
3.85765e-10
6.58821e-09
2.99588e-10
6.69234e-09
2.29707e-10
6.76696e-09
1.73095e-10
6.81802e-09
1.27269e-10
6.85028e-09
9.02204e-11
6.8676e-09
6.03263e-11
6.87309e-09
3.62797e-11
1.70235e-11
6.86925e-09
9.63312e-10
1.22979e-09
1.82989e-09
1.11412e-09
2.57769e-09
9.70634e-10
3.20368e-09
8.21625e-10
3.71653e-09
6.81321e-10
4.13028e-09
5.56793e-10
4.46033e-09
4.50234e-10
4.72118e-09
3.61074e-10
4.92556e-09
2.87464e-10
5.08418e-09
2.27152e-10
5.20583e-09
1.77933e-10
5.29769e-09
1.37846e-10
5.36556e-09
1.0523e-10
5.41412e-09
7.87121e-11
5.44716e-09
5.71769e-11
5.46777e-09
3.97194e-11
5.47844e-09
2.56101e-11
1.42656e-11
5.48119e-09
7.24154e-10
5.05632e-10
1.37905e-09
4.59227e-10
1.94821e-09
4.01478e-10
2.42857e-09
3.41256e-10
2.82561e-09
2.8429e-10
3.14891e-09
2.33487e-10
3.40934e-09
1.89808e-10
3.61732e-09
1.53091e-10
3.78214e-09
1.22641e-10
3.91172e-09
9.75802e-11
4.01261e-09
7.70395e-11
4.09022e-09
6.02373e-11
4.14894e-09
4.65069e-11
4.19236e-09
3.52948e-11
4.22339e-09
2.6148e-11
4.24441e-09
1.86982e-11
4.25737e-09
1.26493e-11
7.77721e-12
4.26386e-09
5.05632e-10
9.6486e-10
1.36634e-09
1.70759e-09
1.99188e-09
2.22537e-09
2.41518e-09
2.56827e-09
2.69091e-09
2.78849e-09
2.86553e-09
2.92577e-09
2.97227e-09
3.00757e-09
3.03372e-09
3.05242e-09
3.06506e-09
3.07284e-09
7.07103e-11
-7.07103e-11
1.42339e-10
-7.16289e-11
2.14975e-10
-7.26354e-11
2.88554e-10
-7.35793e-11
3.62941e-10
-7.43875e-11
4.37969e-10
-7.5028e-11
5.1346e-10
-7.54902e-11
5.89234e-10
-7.57743e-11
6.65119e-10
-7.58856e-11
7.40951e-10
-7.58318e-11
8.16573e-10
-7.56216e-11
8.91837e-10
-7.52637e-11
9.66603e-10
-7.47668e-11
1.04074e-09
-7.41392e-11
1.11413e-09
-7.33894e-11
1.18666e-09
-7.25254e-11
1.25821e-09
-7.15553e-11
1.3287e-09
-7.0487e-11
1.39803e-09
-6.93286e-11
1.46612e-09
-6.80878e-11
1.53289e-09
-6.67726e-11
1.59828e-09
-6.53906e-11
1.66223e-09
-6.39497e-11
1.72469e-09
-6.24574e-11
1.78561e-09
-6.09209e-11
1.84495e-09
-5.93476e-11
1.9027e-09
-5.77443e-11
1.95882e-09
-5.61177e-11
2.01329e-09
-5.44744e-11
2.06611e-09
-5.28203e-11
2.11727e-09
-5.11614e-11
2.16678e-09
-4.95029e-11
2.21463e-09
-4.78501e-11
2.26083e-09
-4.62077e-11
2.30541e-09
-4.45801e-11
2.34839e-09
-4.29714e-11
2.38977e-09
-4.13853e-11
2.4296e-09
-3.98253e-11
2.46789e-09
-3.82944e-11
2.50469e-09
-3.67955e-11
2.54002e-09
-3.53311e-11
2.57392e-09
-3.39033e-11
2.60643e-09
-3.25143e-11
2.6376e-09
-3.11658e-11
2.66746e-09
-2.98592e-11
2.69606e-09
-2.85959e-11
2.72343e-09
-2.73772e-11
2.74964e-09
-2.62039e-11
2.77471e-09
-2.50769e-11
2.79871e-09
-2.39969e-11
2.82167e-09
-2.29644e-11
2.84365e-09
-2.198e-11
2.8647e-09
-2.10438e-11
2.88485e-09
-2.01563e-11
2.90417e-09
-1.93174e-11
2.9227e-09
-1.85275e-11
2.94049e-09
-1.77865e-11
2.95758e-09
-1.70943e-11
2.97403e-09
-1.64511e-11
2.98989e-09
-1.58566e-11
3.0052e-09
-1.53107e-11
3.02001e-09
-1.48132e-11
3.03438e-09
-1.43639e-11
3.04834e-09
-1.39626e-11
3.06195e-09
-1.3609e-11
3.07525e-09
-1.33028e-11
3.08829e-09
-1.30437e-11
3.10113e-09
-1.28312e-11
3.11379e-09
-1.26652e-11
3.12634e-09
-1.25449e-11
3.13881e-09
-1.24702e-11
3.15125e-09
-1.24404e-11
3.1637e-09
-1.24549e-11
3.17621e-09
-1.25133e-11
3.18883e-09
-1.26148e-11
3.20159e-09
-1.27589e-11
3.21453e-09
-1.29449e-11
3.2277e-09
-1.31719e-11
3.24114e-09
-1.34391e-11
3.25489e-09
-1.37457e-11
3.26898e-09
-1.40908e-11
3.28345e-09
-1.44735e-11
3.29835e-09
-1.48927e-11
3.31369e-09
-1.53475e-11
3.32953e-09
-1.58367e-11
3.34589e-09
-1.63592e-11
3.3628e-09
-1.6914e-11
3.3803e-09
-1.74999e-11
3.39842e-09
-1.81157e-11
3.41718e-09
-1.87605e-11
3.43661e-09
-1.94328e-11
3.45674e-09
-2.01318e-11
3.4776e-09
-2.08563e-11
3.49921e-09
-2.16052e-11
3.52158e-09
-2.23775e-11
3.54476e-09
-2.31724e-11
3.56874e-09
-2.39889e-11
3.59357e-09
-2.48261e-11
3.61925e-09
-2.56835e-11
3.64581e-09
-2.65602e-11
3.67327e-09
-2.74558e-11
3.70164e-09
-2.83696e-11
3.73094e-09
-2.93017e-11
3.76119e-09
-3.02514e-11
3.79241e-09
-3.12189e-11
3.82462e-09
-3.22039e-11
3.85782e-09
-3.32068e-11
3.89205e-09
-3.42278e-11
3.92732e-09
-3.52673e-11
3.96364e-09
-3.63259e-11
4.00105e-09
-3.74043e-11
4.03955e-09
-3.85035e-11
4.07918e-09
-3.96247e-11
4.11995e-09
-4.07693e-11
4.16188e-09
-4.19389e-11
4.20502e-09
-4.31354e-11
4.24938e-09
-4.43613e-11
4.295e-09
-4.5619e-11
4.34191e-09
-4.6912e-11
4.39016e-09
-4.82437e-11
4.43977e-09
-4.9619e-11
4.49082e-09
-5.10433e-11
4.54334e-09
-5.25235e-11
4.59741e-09
-5.40665e-11
4.65309e-09
-5.56784e-11
4.71045e-09
-5.73636e-11
4.76958e-09
-5.91302e-11
4.83059e-09
-6.1008e-11
4.89367e-09
-6.30813e-11
4.95919e-09
-6.55239e-11
5.02779e-09
-6.85968e-11
5.10033e-09
-7.25401e-11
5.17763e-09
-7.73e-11
5.25973e-09
-8.20974e-11
5.34474e-09
-8.50078e-11
5.42766e-09
-8.29253e-11
5.50006e-09
-7.24034e-11
5.55186e-09
-5.17978e-11
5.57683e-09
-2.4972e-11
5.57722e-09
-3.91126e-13
5.56515e-09
1.20757e-11
5.54709e-09
1.80546e-11
5.52573e-09
2.13693e-11
5.50211e-09
2.36126e-11
5.47679e-09
2.53243e-11
5.45003e-09
2.67628e-11
5.42189e-09
2.81391e-11
5.3922e-09
2.96843e-11
5.36082e-09
3.13846e-11
5.32827e-09
3.25523e-11
5.29493e-09
3.33389e-11
5.26462e-09
3.03096e-11
5.24143e-09
2.31915e-11
5.22928e-09
1.21423e-11
5.23724e-09
-7.95531e-12
5.28709e-09
-4.98518e-11
5.41042e-09
-1.23328e-10
5.66465e-09
-2.54235e-10
6.23487e-09
-5.70217e-10
8.01081e-09
-1.77594e-09
1.275e-08
-4.73922e-09
1.43921e-08
-1.64204e-09
1.22689e-08
2.12313e-09
1.13418e-08
9.27183e-10
1.08298e-08
5.11978e-10
1.05022e-08
3.27608e-10
1.02706e-08
2.31587e-10
1.00954e-08
1.75158e-10
9.95629e-09
1.39143e-10
9.84132e-09
1.14963e-10
9.74296e-09
9.83624e-11
9.65586e-09
8.71053e-11
9.57582e-09
8.0034e-11
9.49912e-09
7.67e-11
9.42183e-09
7.72954e-11
9.33894e-09
8.28902e-11
9.24263e-09
9.63027e-11
9.11757e-09
1.2506e-10
8.9237e-09
1.93872e-10
4.17423e-10
8.50628e-09
1.23385e-10
-1.94095e-10
2.47336e-10
-1.95581e-10
3.71703e-10
-1.97002e-10
4.964e-10
-1.98276e-10
6.21354e-10
-1.99342e-10
7.46478e-10
-2.00153e-10
8.71669e-10
-2.0068e-10
9.96802e-10
-2.00907e-10
1.12174e-09
-2.00826e-10
1.24634e-09
-2.00434e-10
1.37046e-09
-1.99733e-10
1.49392e-09
-1.98731e-10
1.61659e-09
-1.97436e-10
1.73831e-09
-1.95858e-10
1.85893e-09
-1.9401e-10
1.97831e-09
-1.91905e-10
2.09631e-09
-1.89559e-10
2.21281e-09
-1.86986e-10
2.32769e-09
-1.84203e-10
2.44083e-09
-1.81228e-10
2.55213e-09
-1.78077e-10
2.66151e-09
-1.74767e-10
2.76887e-09
-1.71316e-10
2.87416e-09
-1.67742e-10
2.9773e-09
-1.64061e-10
3.07824e-09
-1.6029e-10
3.17694e-09
-1.56447e-10
3.27337e-09
-1.52545e-10
3.3675e-09
-1.48601e-10
3.45931e-09
-1.44628e-10
3.54879e-09
-1.40641e-10
3.63594e-09
-1.36653e-10
3.72076e-09
-1.32674e-10
3.80327e-09
-1.28717e-10
3.88348e-09
-1.24791e-10
3.96142e-09
-1.20907e-10
4.0371e-09
-1.17072e-10
4.11057e-09
-1.13295e-10
4.18186e-09
-1.09583e-10
4.25101e-09
-1.05942e-10
4.31805e-09
-1.02378e-10
4.38305e-09
-9.88954e-11
4.44603e-09
-9.5499e-11
4.50706e-09
-9.21926e-11
4.56618e-09
-8.89795e-11
4.62345e-09
-8.58624e-11
4.67891e-09
-8.28436e-11
4.73263e-09
-7.99249e-11
4.78466e-09
-7.71081e-11
4.83506e-09
-7.43941e-11
4.88388e-09
-7.17839e-11
4.93118e-09
-6.9278e-11
4.97701e-09
-6.68766e-11
5.02144e-09
-6.458e-11
5.06451e-09
-6.23879e-11
5.10628e-09
-6.03002e-11
5.14681e-09
-5.83161e-11
5.18615e-09
-5.64352e-11
5.22435e-09
-5.46566e-11
5.26148e-09
-5.29794e-11
5.29757e-09
-5.14028e-11
5.33268e-09
-4.99255e-11
5.36686e-09
-4.85462e-11
5.40016e-09
-4.72638e-11
5.43263e-09
-4.60768e-11
5.46431e-09
-4.49838e-11
5.49525e-09
-4.39831e-11
5.52549e-09
-4.30732e-11
5.55508e-09
-4.22522e-11
5.58406e-09
-4.15185e-11
5.61246e-09
-4.08701e-11
5.64032e-09
-4.03051e-11
5.66769e-09
-3.98214e-11
5.69459e-09
-3.94167e-11
5.72106e-09
-3.90892e-11
5.74714e-09
-3.88363e-11
5.77285e-09
-3.86557e-11
5.79823e-09
-3.85448e-11
5.82329e-09
-3.85014e-11
5.84806e-09
-3.85227e-11
5.87258e-09
-3.86062e-11
5.89686e-09
-3.8749e-11
5.92091e-09
-3.89487e-11
5.94477e-09
-3.92021e-11
5.96844e-09
-3.95067e-11
5.99194e-09
-3.98597e-11
6.01528e-09
-4.02583e-11
6.03848e-09
-4.06995e-11
6.06155e-09
-4.11809e-11
6.08448e-09
-4.16995e-11
6.1073e-09
-4.22527e-11
6.13001e-09
-4.2838e-11
6.15261e-09
-4.3453e-11
6.1751e-09
-4.4095e-11
6.19748e-09
-4.47618e-11
6.21976e-09
-4.54513e-11
6.24193e-09
-4.61612e-11
6.264e-09
-4.68897e-11
6.28595e-09
-4.76347e-11
6.30778e-09
-4.83948e-11
6.32949e-09
-4.91682e-11
6.35108e-09
-4.99534e-11
6.37253e-09
-5.07491e-11
6.39383e-09
-5.15539e-11
6.41498e-09
-5.23669e-11
6.43596e-09
-5.31869e-11
6.45677e-09
-5.4013e-11
6.47738e-09
-5.48443e-11
6.4978e-09
-5.56801e-11
6.51799e-09
-5.65194e-11
6.53795e-09
-5.73617e-11
6.55765e-09
-5.82063e-11
6.57708e-09
-5.90525e-11
6.59621e-09
-5.98992e-11
6.61501e-09
-6.07461e-11
6.63347e-09
-6.15919e-11
6.65154e-09
-6.24353e-11
6.6692e-09
-6.32753e-11
6.6864e-09
-6.41098e-11
6.70309e-09
-6.49367e-11
6.71923e-09
-6.57534e-11
6.73474e-09
-6.65562e-11
6.74956e-09
-6.73405e-11
6.76359e-09
-6.80991e-11
6.77673e-09
-6.88221e-11
6.78887e-09
-6.94973e-11
6.79985e-09
-7.01162e-11
6.80953e-09
-7.06841e-11
6.81768e-09
-7.12315e-11
6.82396e-09
-7.18055e-11
6.82777e-09
-7.24072e-11
6.82807e-09
-7.28435e-11
6.82327e-09
-7.24916e-11
6.81123e-09
-7.00621e-11
6.78978e-09
-6.35547e-11
6.75751e-09
-5.0659e-11
6.71486e-09
-2.97558e-11
6.66467e-09
-1.60137e-12
6.60988e-09
2.98179e-11
6.54321e-09
6.62714e-11
6.45939e-09
9.59023e-11
6.36609e-09
1.11353e-10
6.26952e-09
1.17944e-10
6.17359e-09
1.19533e-10
6.08084e-09
1.18082e-10
5.99314e-09
1.14457e-10
5.91251e-09
1.08774e-10
5.84188e-09
1.0031e-10
5.78709e-09
8.61714e-11
5.76056e-09
5.90864e-11
5.78359e-09
1.03134e-11
5.89267e-09
-7.87751e-11
6.09763e-09
-1.81769e-10
6.39819e-09
-2.88417e-10
6.78198e-09
-3.91746e-10
7.22811e-09
-4.95978e-10
7.72395e-09
-6.1917e-10
8.27356e-09
-8.0385e-10
8.88565e-09
-1.18231e-09
9.21959e-09
-2.10987e-09
8.09186e-09
-3.6115e-09
1.11946e-08
-4.74478e-09
1.19388e-08
1.37891e-09
1.12297e-08
1.63633e-09
1.07808e-08
9.60807e-10
1.04771e-08
6.31352e-10
1.02561e-08
4.52599e-10
1.00863e-08
3.44926e-10
9.95026e-09
2.75202e-10
9.83724e-09
2.2798e-10
9.74022e-09
1.95382e-10
9.65414e-09
1.73188e-10
9.57498e-09
1.59188e-10
9.49917e-09
1.52514e-10
9.42296e-09
1.53511e-10
9.3417e-09
1.64148e-10
9.24852e-09
1.89478e-10
9.13149e-09
2.42088e-10
8.96822e-09
3.57149e-10
6.47942e-10
8.7377e-09
1.46322e-10
-3.40417e-10
2.93625e-10
-3.42884e-10
4.41677e-10
-3.45053e-10
5.9028e-10
-3.46879e-10
7.39259e-10
-3.4832e-10
8.88445e-10
-3.49339e-10
1.03767e-09
-3.49907e-10
1.18677e-09
-3.50004e-10
1.33556e-09
-3.49616e-10
1.48386e-09
-3.48739e-10
1.6315e-09
-3.47372e-10
1.77829e-09
-3.45522e-10
1.92406e-09
-3.43199e-10
2.06862e-09
-3.40416e-10
2.2118e-09
-3.37193e-10
2.35344e-09
-3.33549e-10
2.49339e-09
-3.29508e-10
2.6315e-09
-3.25094e-10
2.76763e-09
-3.20334e-10
2.90166e-09
-3.15256e-10
3.03347e-09
-3.09889e-10
3.16297e-09
-3.04262e-10
3.29005e-09
-2.98403e-10
3.41465e-09
-2.92343e-10
3.5367e-09
-2.8611e-10
3.65614e-09
-2.79732e-10
3.77293e-09
-2.73236e-10
3.88704e-09
-2.6665e-10
3.99844e-09
-2.59997e-10
4.10711e-09
-2.53303e-10
4.21306e-09
-2.4659e-10
4.31628e-09
-2.39879e-10
4.4168e-09
-2.33189e-10
4.51462e-09
-2.2654e-10
4.60978e-09
-2.19947e-10
4.7023e-09
-2.13427e-10
4.79222e-09
-2.06993e-10
4.87958e-09
-2.00657e-10
4.96443e-09
-1.94432e-10
5.04681e-09
-1.88327e-10
5.12679e-09
-1.8235e-10
5.2044e-09
-1.76511e-10
5.27972e-09
-1.70814e-10
5.35279e-09
-1.65266e-10
5.42368e-09
-1.59872e-10
5.49245e-09
-1.54635e-10
5.55917e-09
-1.49558e-10
5.62389e-09
-1.44645e-10
5.68668e-09
-1.39896e-10
5.74759e-09
-1.35313e-10
5.80671e-09
-1.30896e-10
5.86407e-09
-1.26646e-10
5.91976e-09
-1.22562e-10
5.97382e-09
-1.18645e-10
6.02633e-09
-1.14892e-10
6.07733e-09
-1.11302e-10
6.12689e-09
-1.07874e-10
6.17506e-09
-1.04607e-10
6.2219e-09
-1.01497e-10
6.26747e-09
-9.85439e-11
6.31181e-09
-9.5744e-11
6.35498e-09
-9.30951e-11
6.39702e-09
-9.05946e-11
6.438e-09
-8.82397e-11
6.47795e-09
-8.60275e-11
6.51692e-09
-8.39548e-11
6.55496e-09
-8.20186e-11
6.5921e-09
-8.02159e-11
6.62839e-09
-7.8543e-11
6.66387e-09
-7.69968e-11
6.69857e-09
-7.55738e-11
6.73254e-09
-7.42703e-11
6.7658e-09
-7.30828e-11
6.79839e-09
-7.20077e-11
6.83034e-09
-7.1041e-11
6.86169e-09
-7.01792e-11
6.89245e-09
-6.94182e-11
6.92266e-09
-6.87541e-11
6.95234e-09
-6.81831e-11
6.98152e-09
-6.77011e-11
7.01022e-09
-6.73043e-11
7.03845e-09
-6.69884e-11
7.06626e-09
-6.67496e-11
7.09364e-09
-6.65838e-11
7.12062e-09
-6.64872e-11
7.14721e-09
-6.64557e-11
7.17344e-09
-6.64856e-11
7.19931e-09
-6.6573e-11
7.22485e-09
-6.67142e-11
7.25005e-09
-6.69058e-11
7.27495e-09
-6.7144e-11
7.29953e-09
-6.74257e-11
7.32383e-09
-6.77475e-11
7.34784e-09
-6.81063e-11
7.37158e-09
-6.84993e-11
7.39505e-09
-6.89236e-11
7.41826e-09
-6.93766e-11
7.44123e-09
-6.98557e-11
7.46395e-09
-7.03589e-11
7.48644e-09
-7.08837e-11
7.5087e-09
-7.14282e-11
7.53074e-09
-7.19905e-11
7.55256e-09
-7.25689e-11
7.57417e-09
-7.31618e-11
7.59557e-09
-7.37675e-11
7.61677e-09
-7.43847e-11
7.63777e-09
-7.50119e-11
7.65857e-09
-7.56478e-11
7.67918e-09
-7.6291e-11
7.6996e-09
-7.69403e-11
7.71983e-09
-7.7594e-11
7.73988e-09
-7.82507e-11
7.75973e-09
-7.89088e-11
7.7794e-09
-7.95662e-11
7.79888e-09
-8.02206e-11
7.81815e-09
-8.08696e-11
7.83723e-09
-8.151e-11
7.85609e-09
-8.21379e-11
7.87473e-09
-8.27486e-11
7.89313e-09
-8.33364e-11
7.91127e-09
-8.38938e-11
7.92912e-09
-8.44114e-11
7.94666e-09
-8.48773e-11
7.96384e-09
-8.5275e-11
7.9806e-09
-8.55835e-11
7.99688e-09
-8.5776e-11
8.01258e-09
-8.58206e-11
8.02758e-09
-8.5679e-11
8.04164e-09
-8.52952e-11
8.05439e-09
-8.45595e-11
8.06521e-09
-8.32255e-11
8.07314e-09
-8.0772e-11
8.07688e-09
-7.62356e-11
8.07492e-09
-6.81013e-11
8.06577e-09
-5.43979e-11
8.04823e-09
-3.31254e-11
8.02138e-09
-2.90382e-12
7.98481e-09
3.49664e-11
7.93536e-09
7.92765e-11
7.8785e-09
1.23122e-10
7.81773e-09
1.56678e-10
7.754e-09
1.75078e-10
7.69113e-09
1.80816e-10
7.63422e-09
1.76442e-10
7.58962e-09
1.62687e-10
7.56591e-09
1.38159e-10
7.5757e-09
9.89868e-11
7.63731e-09
3.87035e-11
7.77363e-09
-5.01518e-11
7.98588e-09
-1.53156e-10
8.24523e-09
-2.49039e-10
8.49857e-09
-3.32114e-10
8.72643e-09
-4.09636e-10
8.92313e-09
-4.85109e-10
9.0933e-09
-5.61925e-10
9.24743e-09
-6.50101e-10
9.39898e-09
-7.70724e-10
9.56188e-09
-9.66747e-10
9.71309e-09
-1.33352e-09
9.62756e-09
-2.02434e-09
8.93477e-09
-2.91871e-09
7.57338e-09
-3.38339e-09
1.16412e-08
-2.68887e-09
1.10471e-08
2.23038e-09
1.06933e-08
1.31465e-09
1.04304e-08
8.94256e-10
1.02284e-08
6.54577e-10
1.00687e-08
5.04651e-10
9.93848e-09
4.05385e-10
9.82922e-09
3.37239e-10
9.73482e-09
2.89784e-10
9.65074e-09
2.57266e-10
9.57331e-09
2.36616e-10
9.49923e-09
2.26598e-10
9.42509e-09
2.27642e-10
9.3469e-09
2.4234e-10
9.25928e-09
2.77102e-10
9.15472e-09
3.46643e-10
9.02595e-09
4.85916e-10
7.77617e-10
8.89628e-09
1.63418e-10
-5.03835e-10
3.28155e-10
-5.0762e-10
4.93959e-10
-5.10858e-10
6.60586e-10
-5.13506e-10
8.27795e-10
-5.1553e-10
9.95352e-10
-5.16896e-10
1.16302e-09
-5.17579e-10
1.33058e-09
-5.1756e-10
1.49779e-09
-5.16825e-10
1.66442e-09
-5.15371e-10
1.83025e-09
-5.13201e-10
1.99505e-09
-5.10323e-10
2.1586e-09
-5.06753e-10
2.3207e-09
-5.02513e-10
2.48114e-09
-4.9763e-10
2.63972e-09
-4.92133e-10
2.79627e-09
-4.86058e-10
2.95062e-09
-4.79442e-10
3.10261e-09
-4.72326e-10
3.25211e-09
-4.6475e-10
3.39898e-09
-4.56759e-10
3.54311e-09
-4.48395e-10
3.68441e-09
-4.39703e-10
3.82279e-09
-4.30726e-10
3.95819e-09
-4.21507e-10
4.09055e-09
-4.12088e-10
4.21982e-09
-4.02508e-10
4.34598e-09
-3.92808e-10
4.469e-09
-3.83024e-10
4.58889e-09
-3.7319e-10
4.70564e-09
-3.6334e-10
4.81927e-09
-3.53504e-10
4.92979e-09
-3.43711e-10
5.03723e-09
-3.33986e-10
5.14164e-09
-3.24354e-10
5.24305e-09
-3.14836e-10
5.34151e-09
-3.05452e-10
5.43707e-09
-2.96219e-10
5.52979e-09
-2.87153e-10
5.61973e-09
-2.78267e-10
5.70696e-09
-2.69574e-10
5.79153e-09
-2.61083e-10
5.87352e-09
-2.52803e-10
5.95299e-09
-2.44741e-10
6.03003e-09
-2.36904e-10
6.10469e-09
-2.29296e-10
6.17705e-09
-2.2192e-10
6.24718e-09
-2.14779e-10
6.31516e-09
-2.07875e-10
6.38106e-09
-2.01208e-10
6.44494e-09
-1.94779e-10
6.50688e-09
-1.88587e-10
6.56695e-09
-1.8263e-10
6.62521e-09
-1.76907e-10
6.68174e-09
-1.71415e-10
6.73659e-09
-1.66153e-10
6.78983e-09
-1.61116e-10
6.84152e-09
-1.56301e-10
6.89173e-09
-1.51706e-10
6.94051e-09
-1.47325e-10
6.98792e-09
-1.43155e-10
7.03402e-09
-1.39191e-10
7.07885e-09
-1.35429e-10
7.12248e-09
-1.31864e-10
7.16494e-09
-1.28492e-10
7.20629e-09
-1.25307e-10
7.24658e-09
-1.22305e-10
7.28585e-09
-1.19481e-10
7.32413e-09
-1.16828e-10
7.36148e-09
-1.14343e-10
7.39792e-09
-1.1202e-10
7.43351e-09
-1.09854e-10
7.46826e-09
-1.07839e-10
7.50223e-09
-1.05969e-10
7.53543e-09
-1.04241e-10
7.56789e-09
-1.02647e-10
7.59966e-09
-1.01183e-10
7.63075e-09
-9.98437e-11
7.66119e-09
-9.86231e-11
7.691e-09
-9.7516e-11
7.72022e-09
-9.65174e-11
7.74885e-09
-9.56217e-11
7.77692e-09
-9.48239e-11
7.80446e-09
-9.41189e-11
7.83147e-09
-9.35014e-11
7.85798e-09
-9.29669e-11
7.88401e-09
-9.25103e-11
7.90956e-09
-9.21272e-11
7.93466e-09
-9.18127e-11
7.95932e-09
-9.15628e-11
7.98355e-09
-9.13732e-11
8.00736e-09
-9.12398e-11
8.03077e-09
-9.11587e-11
8.05379e-09
-9.11264e-11
8.07643e-09
-9.11395e-11
8.0987e-09
-9.11946e-11
8.12062e-09
-9.12884e-11
8.14218e-09
-9.14183e-11
8.1634e-09
-9.15817e-11
8.18429e-09
-9.17755e-11
8.20486e-09
-9.19979e-11
8.22512e-09
-9.22463e-11
8.24507e-09
-9.25187e-11
8.26472e-09
-9.28132e-11
8.28408e-09
-9.31276e-11
8.30316e-09
-9.34603e-11
8.32195e-09
-9.38094e-11
8.34048e-09
-9.41732e-11
8.35874e-09
-9.45495e-11
8.37673e-09
-9.49368e-11
8.39447e-09
-9.53328e-11
8.41196e-09
-9.5735e-11
8.42919e-09
-9.61412e-11
8.44617e-09
-9.65485e-11
8.4629e-09
-9.69532e-11
8.47939e-09
-9.73512e-11
8.49561e-09
-9.77381e-11
8.51158e-09
-9.81077e-11
8.52729e-09
-9.84526e-11
8.54272e-09
-9.87641e-11
8.55785e-09
-9.90307e-11
8.57268e-09
-9.92377e-11
8.58717e-09
-9.93665e-11
8.60128e-09
-9.93923e-11