/*--------------------------------*- C++ -*----------------------------------*\
  =========                 |
  \\      /  F ield         | OpenFOAM: The Open Source CFD Toolbox
   \\    /   O peration     | Website:  https://openfoam.org
    \\  /    A nd           | Version:  10
     \\/     M anipulation  |
\*---------------------------------------------------------------------------*/
FoamFile
{
    format      ascii;
    class       volScalarField;
    location    "4.7";
    object      Sb;
}
// * * * * * * * * * * * * * * * * * * * * * * * * * * * * * * * * * * * * * //

dimensions      [0 0 0 0 0 0 0];

internalField   nonuniform List<scalar> 
12225
(
0.593501
0.591559
0.589184
0.586629
0.584065
0.581599
0.579298
0.577201
0.575334
0.573716
0.572367
0.571317
0.570613
0.57034
0.570666
0.571962
0.575246
0.583623
0.622799
0.62035
0.617397
0.614257
0.611139
0.608167
0.605414
0.602923
0.600714
0.598807
0.59722
0.595979
0.595134
0.594771
0.595053
0.596316
0.599265
0.605132
0.641533
0.638598
0.635108
0.631435
0.627818
0.624396
0.621245
0.618405
0.615898
0.613736
0.611934
0.610518
0.60953
0.60905
0.60922
0.610289
0.612665
0.616755
0.656715
0.653275
0.649238
0.645035
0.64093
0.637074
0.633543
0.630373
0.627581
0.625174
0.623162
0.621564
0.620415
0.619778
0.619759
0.620518
0.622245
0.624995
0.67022
0.666225
0.661602
0.656842
0.652233
0.647932
0.644015
0.640512
0.637431
0.634774
0.632543
0.630748
0.629412
0.628577
0.62831
0.628691
0.629776
0.63148
0.682887
0.678264
0.672993
0.667627
0.662479
0.657709
0.653387
0.649535
0.646153
0.643233
0.640766
0.638752
0.6372
0.636129
0.635568
0.635539
0.63602
0.636885
0.695191
0.689843
0.683841
0.677804
0.672068
0.666792
0.662037
0.657814
0.654111
0.650907
0.648184
0.645927
0.644129
0.642789
0.641903
0.641453
0.641378
0.64155
0.707455
0.701258
0.694417
0.687627
0.68124
0.675412
0.670188
0.665565
0.661515
0.658004
0.655
0.652475
0.650405
0.648768
0.647537
0.646667
0.646084
0.645672
0.71994
0.712729
0.704916
0.697269
0.690155
0.683717
0.677981
0.672923
0.668497
0.664652
0.661342
0.658522
0.656154
0.654199
0.652611
0.651333
0.650286
0.649373
0.732879
0.724442
0.715485
0.706855
0.698922
0.691806
0.685507
0.679975
0.675139
0.670932
0.667289
0.66415
0.661463
0.659174
0.657225
0.655552
0.654082
0.652732
0.746514
0.736567
0.72625
0.716481
0.707619
0.699747
0.692827
0.686776
0.681496
0.676896
0.672893
0.669413
0.666387
0.663753
0.661444
0.659394
0.657535
0.655796
0.761117
0.749276
0.73732
0.72622
0.716297
0.707579
0.699975
0.693356
0.687594
0.68257
0.678182
0.674339
0.670961
0.667975
0.665311
0.662902
0.660682
0.658594
0.77467
0.760732
0.747046
0.734593
0.723625
0.714092
0.70584
0.698693
0.692487
0.687077
0.682341
0.678176
0.67449
0.671204
0.668244
0.665543
0.663039
0.660678
0.791518
0.774561
0.758507
0.744269
0.731961
0.721409
0.712363
0.704577
0.69784
0.691975
0.686836
0.682301
0.678268
0.674649
0.671364
0.668345
0.665532
0.662874
0.812972
0.791461
0.772062
0.755423
0.741384
0.729557
0.719542
0.710995
0.703638
0.697249
0.691652
0.6867
0.682276
0.678278
0.67462
0.671231
0.668051
0.665036
0.841515
0.812685
0.788326
0.768355
0.752047
0.738629
0.727455
0.718029
0.709971
0.702987
0.696851
0.691385
0.686449
0.681933
0.677753
0.673841
0.670149
0.666642
0.884893
0.843447
0.811083
0.786133
0.766606
0.750941
0.738071
0.727275
0.717992
0.709779
0.702436
0.695808
0.689772
0.684235
0.679124
0.67438
0.669958
0.665823
0.829985
0.804023
0.781926
0.763406
0.747877
0.734748
0.723515
0.713776
0.705274
0.697856
0.691275
0.685254
0.679719
0.674609
0.669872
0.665466
0.661357
0.657517
0.782555
0.76625
0.751003
0.737368
0.725347
0.714772
0.705433
0.697137
0.689715
0.683025
0.676976
0.671569
0.666668
0.662149
0.657964
0.654074
0.650447
0.647056
0.750694
0.739438
0.728144
0.717514
0.707773
0.69894
0.690953
0.683723
0.677157
0.671169
0.665685
0.66064
0.656014
0.651808
0.647894
0.644244
0.64083
0.637632
0.724587
0.716402
0.707755
0.699283
0.691272
0.683824
0.676954
0.670634
0.664818
0.659458
0.654505
0.649917
0.645655
0.641693
0.63807
0.634683
0.63151
0.628533
0.702296
0.696101
0.689296
0.682414
0.675737
0.669399
0.663453
0.657907
0.652745
0.647942
0.643471
0.639302
0.635409
0.631768
0.62836
0.625219
0.622272
0.619501
0.6826
0.677767
0.672293
0.666612
0.660981
0.655541
0.650364
0.645477
0.640883
0.636574
0.632534
0.628746
0.625191
0.621853
0.618714
0.61577
0.613033
0.610455
0.664652
0.660796
0.656315
0.651562
0.646766
0.642064
0.637533
0.633211
0.629113
0.625241
0.621588
0.618145
0.614899
0.611839
0.608952
0.606227
0.603674
0.601277
0.647789
0.644661
0.640943
0.636926
0.63281
0.628724
0.624742
0.62091
0.617249
0.613766
0.610462
0.607333
0.60437
0.601567
0.598914
0.596402
0.594025
0.591799
0.631402
0.628835
0.625722
0.622303
0.618754
0.61519
0.611685
0.608284
0.605012
0.601881
0.598895
0.596054
0.593354
0.59079
0.588356
0.586045
0.583852
0.581773
0.614802
0.612682
0.610061
0.607143
0.604077
0.600968
0.597885
0.594871
0.591953
0.589146
0.586456
0.583885
0.581432
0.579095
0.576869
0.574751
0.572735
0.570817
0.596961
0.59521
0.593007
0.590522
0.587883
0.585183
0.582485
0.57983
0.577244
0.574742
0.572334
0.570023
0.56781
0.565694
0.563672
0.561742
0.5599
0.558144
0.575739
0.574308
0.572477
0.570385
0.568143
0.565829
0.5635
0.561192
0.558931
0.556732
0.554604
0.552553
0.55058
0.548687
0.546872
0.545133
0.543469
0.541877
0.54371
0.54258
0.541111
0.539413
0.537573
0.535657
0.533711
0.531768
0.52985
0.527972
0.526143
0.524368
0.522652
0.520995
0.519398
0.517861
0.516383
0.514963
0.365671
0.367777
0.369622
0.371216
0.372578
0.373733
0.374703
0.37551
0.376172
0.376706
0.377125
0.377441
0.377664
0.377801
0.37786
0.377848
0.377768
0.377625
0.377424
0.377167
0.376857
0.376498
0.37609
0.375637
0.375141
0.374602
0.374022
0.373403
0.372746
0.372052
0.371323
0.370559
0.369761
0.36893
0.368067
0.367173
0.366249
0.365294
0.364311
0.363298
0.362258
0.36119
0.360095
0.358973
0.357826
0.356653
0.355454
0.35423
0.352982
0.35171
0.350414
0.349094
0.347751
0.346385
0.344996
0.343585
0.342152
0.340696
0.339219
0.337721
0.336201
0.334661
0.3331
0.331518
0.329916
0.328294
0.326653
0.324992
0.323313
0.321614
0.319898
0.318163
0.316411
0.314641
0.312855
0.311051
0.309232
0.307398
0.305548
0.303683
0.301804
0.299912
0.298006
0.296087
0.294156
0.292213
0.290259
0.288294
0.286319
0.284334
0.28234
0.280336
0.278325
0.276305
0.274277
0.272242
0.2702
0.268152
0.266096
0.264035
0.261967
0.259893
0.257813
0.255728
0.253636
0.251539
0.249436
0.247326
0.24521
0.243087
0.240956
0.238819
0.236673
0.234519
0.232355
0.230181
0.227996
0.225799
0.223589
0.221364
0.219122
0.216862
0.214582
0.212277
0.209946
0.207586
0.205192
0.202761
0.200283
0.197733
0.195068
0.192227
0.189152
0.185839
0.182417
0.179214
0.17677
0.175736
0.17662
0.179465
0.183351
0.187415
0.191531
0.19569
0.199903
0.204188
0.208568
0.213071
0.217736
0.222613
0.227773
0.233323
0.239424
0.246355
0.254584
0.263912
0.272992
0.278782
0.272382
0.218941
0.0611495
0.00111556
0.0011
0.0011
0.0011
0.0011
0.0011
0.0011
0.0011
0.0011
0.0011
0.0011
0.0011
0.0011
0.0011
0.0011
0.0011
0.0011
0.0011
0.0011
0.455112
0.455266
0.455412
0.455544
0.455661
0.45576
0.455838
0.455895
0.455929
0.455941
0.455931
0.455897
0.455841
0.455763
0.455663
0.45554
0.455397
0.455232
0.455047
0.454842
0.454618
0.454375
0.454113
0.453833
0.453537
0.453224
0.452894
0.45255
0.45219
0.451816
0.451429
0.451029
0.450616
0.450192
0.449756
0.44931
0.448854
0.448388
0.447913
0.44743
0.446939
0.446441
0.445936
0.445425
0.444909
0.444387
0.44386
0.44333
0.442795
0.442257
0.441717
0.441174
0.44063
0.440084
0.439537
0.43899
0.438442
0.437895
0.437349
0.436804
0.43626
0.435719
0.435179
0.434643
0.43411
0.43358
0.433053
0.432531
0.432014
0.431501
0.430993
0.43049
0.429993
0.429501
0.429015
0.428536
0.428062
0.427595
0.427134
0.426679
0.426232
0.42579
0.425355
0.424927
0.424505
0.424089
0.42368
0.423277
0.422879
0.422487
0.422101
0.42172
0.421344
0.420973
0.420606
0.420243
0.419885
0.419529
0.419177
0.418828
0.418481
0.418137
0.417794
0.417452
0.417112
0.416772
0.416432
0.416092
0.415751
0.415409
0.415065
0.414719
0.41437
0.414018
0.413662
0.413301
0.412935
0.412563
0.412184
0.411797
0.411401
0.410995
0.410577
0.410146
0.409699
0.409235
0.408751
0.408245
0.407713
0.407152
0.406555
0.405909
0.405184
0.404332
0.403277
0.40193
0.400212
0.398091
0.395504
0.392133
0.387978
0.3835
0.378881
0.374204
0.369518
0.364867
0.360319
0.356003
0.352197
0.349443
0.348763
0.351387
0.35704
0.364845
0.373465
0.381655
0.38857
0.393311
0.394378
0.38712
0.341872
0.0811674
0.00113357
0.0011
0.0011
0.0011
0.0011
0.0011
0.0011
0.0011
0.0011
0.0011
0.0011
0.0011
0.0011
0.0011
0.0011
0.0011
0.0011
0.0011
0.47908
0.479205
0.479315
0.479411
0.47949
0.479553
0.479597
0.479623
0.47963
0.479617
0.479584
0.479531
0.479458
0.479366
0.479253
0.479121
0.478969
0.478798
0.478609
0.478401
0.478176
0.477933
0.477674
0.477398
0.477107
0.476801
0.476481
0.476146
0.475799
0.475439
0.475067
0.474684
0.47429
0.473886
0.473472
0.47305
0.472619
0.47218
0.471735
0.471282
0.470824
0.470359
0.46989
0.469416
0.468938
0.468456
0.467971
0.467483
0.466992
0.4665
0.466005
0.465509
0.465013
0.464515
0.464017
0.463519
0.463022
0.462525
0.462028
0.461533
0.461039
0.460546
0.460055
0.459566
0.459079
0.458594
0.458112
0.457632
0.457154
0.45668
0.456208
0.455739
0.455273
0.45481
0.454351
0.453894
0.45344
0.45299
0.452543
0.452099
0.451658
0.45122
0.450784
0.450352
0.449923
0.449496
0.449072
0.448651
0.448232
0.447816
0.447401
0.446989
0.446579
0.446171
0.445765
0.445361
0.444958
0.444557
0.444157
0.443759
0.443362
0.442966
0.442571
0.442177
0.441785
0.441393
0.441002
0.440611
0.440222
0.439833
0.439444
0.439056
0.438669
0.438281
0.437894
0.437507
0.437119
0.436732
0.436344
0.435955
0.435565
0.435174
0.434781
0.434386
0.433989
0.433587
0.433182
0.432771
0.432352
0.431923
0.431477
0.431003
0.430479
0.429873
0.429136
0.428203
0.426999
0.425408
0.423297
0.420744
0.41793
0.41503
0.412171
0.409471
0.407064
0.405137
0.403972
0.403979
0.405645
0.408866
0.412828
0.416317
0.419002
0.420777
0.421619
0.421513
0.42037
0.417899
0.413274
0.40394
0.378862
0.244397
0.00884264
0.0011
0.0011
0.0011
0.0011
0.0011
0.0011
0.0011
0.0011
0.0011
0.0011
0.0011
0.0011
0.0011
0.0011
0.0011
0.0011
0.0011
0.493581
0.493758
0.493916
0.494055
0.494174
0.494273
0.49435
0.494405
0.494439
0.49445
0.494438
0.494404
0.494347
0.494267
0.494165
0.494041
0.493895
0.493727
0.493539
0.493331
0.493102
0.492855
0.492588
0.492304
0.492003
0.491685
0.491351
0.491003
0.49064
0.490263
0.489873
0.489471
0.489058
0.488634
0.4882
0.487757
0.487304
0.486844
0.486376
0.485901
0.48542
0.484933
0.48444
0.483943
0.483442
0.482937
0.482428
0.481917
0.481403
0.480888
0.48037
0.479851
0.479331
0.478811
0.47829
0.477769
0.477248
0.476728
0.476208
0.475689
0.475172
0.474655
0.47414
0.473626
0.473114
0.472604
0.472096
0.471589
0.471085
0.470583
0.470083
0.469585
0.46909
0.468596
0.468105
0.467616
0.467129
0.466644
0.466162
0.465681
0.465203
0.464726
0.464251
0.463778
0.463306
0.462836
0.462368
0.461901
0.461435
0.46097
0.460507
0.460045
0.459583
0.459123
0.458663
0.458204
0.457746
0.457288
0.45683
0.456373
0.455917
0.455461
0.455005
0.454549
0.454094
0.453639
0.453183
0.452728
0.452273
0.451818
0.451363
0.450908
0.450453
0.449998
0.449543
0.449087
0.448631
0.448174
0.447717
0.447259
0.4468
0.446341
0.445879
0.445416
0.444951
0.444484
0.444012
0.443537
0.443055
0.442564
0.442061
0.441537
0.440983
0.440382
0.439709
0.438932
0.438005
0.436882
0.435574
0.434145
0.432692
0.43133
0.430172
0.429329
0.42891
0.428996
0.429593
0.430487
0.431224
0.431652
0.431773
0.431591
0.431108
0.430312
0.429162
0.427575
0.42539
0.422286
0.417564
0.409412
0.39169
0.327127
0.0584409
0.00110676
0.0011
0.0011
0.0011
0.0011
0.0011
0.0011
0.0011
0.0011
0.0011
0.0011
0.0011
0.0011
0.0011
0.0011
0.0011
0.0011
0.504884
0.505128
0.50535
0.505548
0.505722
0.50587
0.505994
0.506091
0.506162
0.506206
0.506223
0.506214
0.506177
0.506115
0.506026
0.505912
0.505772
0.505607
0.505419
0.505207
0.504972
0.504715
0.504437
0.504138
0.503821
0.503484
0.50313
0.502758
0.502371
0.501968
0.501551
0.50112
0.500677
0.500222
0.499755
0.499278
0.498791
0.498296
0.497792
0.49728
0.496762
0.496237
0.495706
0.49517
0.494629
0.494084
0.493535
0.492983
0.492428
0.49187
0.491311
0.49075
0.490187
0.489624
0.489059
0.488495
0.48793
0.487365
0.486801
0.486237
0.485673
0.485111
0.484549
0.483989
0.48343
0.482872
0.482316
0.481761
0.481208
0.480656
0.480106
0.479558
0.479011
0.478466
0.477923
0.477381
0.476841
0.476303
0.475766
0.47523
0.474696
0.474163
0.473632
0.473102
0.472572
0.472044
0.471517
0.47099
0.470465
0.46994
0.469415
0.468892
0.468368
0.467845
0.467322
0.4668
0.466277
0.465755
0.465233
0.46471
0.464188
0.463665
0.463142
0.462619
0.462096
0.461572
0.461048
0.460523
0.459998
0.459472
0.458946
0.458419
0.457891
0.457363
0.456834
0.456304
0.455773
0.45524
0.454707
0.454172
0.453635
0.453097
0.452557
0.452014
0.451469
0.45092
0.450367
0.449809
0.449245
0.448673
0.44809
0.447492
0.446875
0.446231
0.445553
0.444827
0.44404
0.44319
0.442299
0.441405
0.440558
0.439808
0.439192
0.438728
0.438407
0.438183
0.437957
0.437649
0.437246
0.436734
0.436098
0.435317
0.434365
0.433204
0.431776
0.429991
0.427697
0.424613
0.42017
0.413032
0.399268
0.360583
0.148284
0.00167904
0.0011
0.0011
0.0011
0.0011
0.0011
0.0011
0.0011
0.0011
0.0011
0.0011
0.0011
0.0011
0.0011
0.0011
0.0011
0.0011
0.514453
0.514775
0.51507
0.515336
0.515573
0.51578
0.515956
0.516101
0.516214
0.516295
0.516345
0.516362
0.516349
0.516304
0.516228
0.516122
0.515987
0.515823
0.515632
0.515413
0.515168
0.514898
0.514604
0.514286
0.513947
0.513587
0.513206
0.512807
0.512389
0.511955
0.511505
0.511039
0.51056
0.510067
0.509562
0.509045
0.508518
0.507981
0.507435
0.50688
0.506318
0.505749
0.505173
0.504591
0.504004
0.503412
0.502817
0.502217
0.501614
0.501008
0.5004
0.499789
0.499177
0.498564
0.497949
0.497333
0.496717
0.496101
0.495484
0.494868
0.494252
0.493636
0.493021
0.492406
0.491793
0.49118
0.490568
0.489958
0.489348
0.48874
0.488133
0.487527
0.486922
0.486319
0.485717
0.485116
0.484516
0.483918
0.483321
0.482724
0.482129
0.481535
0.480942
0.480349
0.479758
0.479167
0.478576
0.477987
0.477397
0.476809
0.47622
0.475632
0.475044
0.474457
0.473869
0.473282
0.472694
0.472107
0.471519
0.470931
0.470343
0.469754
0.469165
0.468576
0.467986
0.467396
0.466805
0.466213
0.465621
0.465028
0.464434
0.463839
0.463243
0.462647
0.462049
0.46145
0.46085
0.460248
0.459645
0.45904
0.458433
0.457824
0.457213
0.456599
0.455982
0.455361
0.454736
0.454107
0.453471
0.452829
0.452177
0.451514
0.450838
0.450146
0.449436
0.448703
0.447944
0.447165
0.446381
0.445613
0.444879
0.444196
0.443569
0.442991
0.442446
0.441903
0.441327
0.440706
0.440026
0.439269
0.438419
0.437452
0.436341
0.435047
0.433517
0.431666
0.429357
0.426349
0.422171
0.415797
0.404483
0.377618
0.246066
0.00962988
0.0011
0.0011
0.0011
0.0011
0.0011
0.0011
0.0011
0.0011
0.0011
0.0011
0.0011
0.0011
0.0011
0.0011
0.0011
0.0011
0.522875
0.523284
0.523662
0.524005
0.524313
0.524584
0.524819
0.525016
0.525175
0.525297
0.52538
0.525426
0.525435
0.525407
0.525343
0.525244
0.525111
0.524945
0.524746
0.524517
0.524258
0.52397
0.523655
0.523314
0.522948
0.522558
0.522147
0.521714
0.521261
0.52079
0.520301
0.519795
0.519274
0.518739
0.51819
0.517629
0.517056
0.516473
0.515879
0.515277
0.514666
0.514048
0.513422
0.512791
0.512153
0.511511
0.510863
0.510212
0.509557
0.508899
0.508238
0.507574
0.506909
0.506242
0.505573
0.504903
0.504233
0.503561
0.50289
0.502218
0.501546
0.500874
0.500202
0.499531
0.49886
0.49819
0.497521
0.496852
0.496184
0.495517
0.494851
0.494186
0.493522
0.492859
0.492197
0.491536
0.490876
0.490217
0.489559
0.488901
0.488245
0.487589
0.486934
0.48628
0.485626
0.484973
0.484321
0.483669
0.483018
0.482367
0.481716
0.481066
0.480416
0.479766
0.479116
0.478466
0.477817
0.477167
0.476517
0.475867
0.475217
0.474567
0.473916
0.473265
0.472614
0.471962
0.471309
0.470656
0.470003
0.469348
0.468693
0.468037
0.467381
0.466723
0.466064
0.465404
0.464743
0.46408
0.463416
0.46275
0.462082
0.461412
0.46074
0.460065
0.459387
0.458706
0.458021
0.457332
0.456637
0.455936
0.455228
0.454511
0.453785
0.453048
0.452301
0.451542
0.450771
0.449992
0.449215
0.448449
0.447702
0.44698
0.446281
0.445599
0.44492
0.444224
0.443499
0.442736
0.441921
0.44104
0.440074
0.439004
0.437803
0.436436
0.434851
0.432972
0.430676
0.427752
0.423808
0.418024
0.408368
0.387938
0.310254
0.0415167
0.00110133
0.0011
0.0011
0.0011
0.0011
0.0011
0.0011
0.0011
0.0011
0.0011
0.0011
0.0011
0.0011
0.0011
0.0011
0.0011
0.530461
0.530969
0.531439
0.531868
0.532255
0.532598
0.532897
0.533151
0.53336
0.533524
0.533643
0.533717
0.533748
0.533736
0.533682
0.533587
0.533452
0.53328
0.53307
0.532826
0.532548
0.532237
0.531896
0.531525
0.531127
0.530703
0.530255
0.529783
0.529289
0.528775
0.528242
0.527691
0.527123
0.52654
0.525942
0.525331
0.524708
0.524074
0.523429
0.522774
0.52211
0.521439
0.52076
0.520074
0.519383
0.518686
0.517984
0.517277
0.516567
0.515854
0.515137
0.514418
0.513697
0.512973
0.512248
0.511522
0.510795
0.510067
0.509338
0.508609
0.50788
0.507151
0.506422
0.505693
0.504965
0.504237
0.503509
0.502783
0.502057
0.501331
0.500607
0.499883
0.49916
0.498438
0.497717
0.496997
0.496278
0.49556
0.494843
0.494126
0.49341
0.492695
0.491981
0.491268
0.490555
0.489843
0.489132
0.488421
0.487711
0.487002
0.486293
0.485584
0.484876
0.484168
0.48346
0.482753
0.482046
0.481339
0.480632
0.479925
0.479218
0.478511
0.477805
0.477098
0.47639
0.475683
0.474975
0.474267
0.473559
0.47285
0.47214
0.47143
0.470719
0.470008
0.469295
0.468582
0.467867
0.467152
0.466435
0.465716
0.464996
0.464274
0.463549
0.462823
0.462094
0.461361
0.460626
0.459886
0.459142
0.458392
0.457637
0.456875
0.456106
0.45533
0.454548
0.453758
0.452964
0.452164
0.451367
0.450575
0.449794
0.449023
0.448261
0.447501
0.446731
0.445942
0.445125
0.444272
0.443371
0.442407
0.441366
0.440228
0.438968
0.437553
0.435936
0.434047
0.431775
0.428934
0.425191
0.419875
0.411414
0.394965
0.344375
0.0996208
0.001183
0.0011
0.0011
0.0011
0.0011
0.0011
0.0011
0.0011
0.0011
0.0011
0.0011
0.0011
0.0011
0.0011
0.0011
0.0011
0.537402
0.538023
0.538596
0.539121
0.539596
0.540018
0.540387
0.540703
0.540964
0.541173
0.541328
0.541431
0.541483
0.541484
0.541437
0.541343
0.541203
0.541019
0.540794
0.540529
0.540226
0.539887
0.539514
0.539108
0.538672
0.538207
0.537716
0.537199
0.536659
0.536096
0.535513
0.534911
0.534291
0.533655
0.533004
0.532338
0.53166
0.53097
0.530269
0.529558
0.528837
0.528109
0.527373
0.52663
0.525881
0.525126
0.524366
0.523602
0.522835
0.522063
0.521289
0.520512
0.519733
0.518952
0.518169
0.517385
0.5166
0.515814
0.515028
0.514242
0.513455
0.512668
0.511882
0.511095
0.510309
0.509524
0.508739
0.507955
0.507172
0.50639
0.505608
0.504827
0.504048
0.503269
0.502491
0.501715
0.500939
0.500164
0.499391
0.498618
0.497846
0.497075
0.496306
0.495537
0.494769
0.494002
0.493236
0.49247
0.491706
0.490942
0.490179
0.489417
0.488655
0.487894
0.487133
0.486373
0.485614
0.484855
0.484096
0.483338
0.48258
0.481823
0.481065
0.480308
0.479551
0.478794
0.478037
0.47728
0.476523
0.475765
0.475008
0.47425
0.473492
0.472733
0.471973
0.471213
0.470452
0.469691
0.468928
0.468164
0.467398
0.466631
0.465862
0.465092
0.464318
0.463543
0.462764
0.461982
0.461196
0.460406
0.459611
0.458811
0.458006
0.457195
0.45638
0.45556
0.454738
0.453913
0.453088
0.452265
0.451447
0.450632
0.449817
0.448995
0.44816
0.447306
0.446424
0.445507
0.444543
0.44352
0.442423
0.441236
0.439934
0.438488
0.436852
0.434962
0.432717
0.429955
0.426386
0.421449
0.413888
0.400124
0.364032
0.173251
0.00242306
0.0011
0.0011
0.0011
0.0011
0.0011
0.0011
0.0011
0.0011
0.0011
0.0011
0.0011
0.0011
0.0011
0.0011
0.0011
0.543825
0.54457
0.54526
0.545892
0.546463
0.546972
0.547418
0.5478
0.548119
0.548373
0.548566
0.548696
0.548767
0.54878
0.548736
0.548639
0.548489
0.54829
0.548043
0.547752
0.547418
0.547044
0.546633
0.546185
0.545705
0.545193
0.544653
0.544085
0.543492
0.542875
0.542237
0.541578
0.540901
0.540207
0.539496
0.538772
0.538034
0.537284
0.536522
0.535751
0.53497
0.534181
0.533385
0.532581
0.531772
0.530957
0.530137
0.529313
0.528486
0.527655
0.526821
0.525985
0.525146
0.524307
0.523465
0.522623
0.52178
0.520936
0.520092
0.519248
0.518404
0.51756
0.516717
0.515874
0.515032
0.514191
0.51335
0.51251
0.511672
0.510834
0.509997
0.509162
0.508328
0.507495
0.506663
0.505833
0.505004
0.504176
0.503349
0.502524
0.5017
0.500877
0.500056
0.499235
0.498416
0.497599
0.496782
0.495966
0.495152
0.494338
0.493526
0.492715
0.491904
0.491095
0.490287
0.489479
0.488672
0.487866
0.487061
0.486257
0.485453
0.48465
0.483847
0.483045
0.482244
0.481443
0.480642
0.479841
0.479041
0.478241
0.477441
0.476641
0.475841
0.475041
0.47424
0.473439
0.472638
0.471836
0.471033
0.47023
0.469425
0.468619
0.467812
0.467003
0.466192
0.465379
0.464564
0.463746
0.462924
0.462099
0.461271
0.460438
0.459601
0.45876
0.457916
0.457068
0.456218
0.455366
0.454513
0.453659
0.452806
0.451951
0.451092
0.450222
0.449338
0.448434
0.447502
0.446535
0.445523
0.444455
0.443317
0.442092
0.44076
0.43929
0.437643
0.435757
0.433543
0.430853
0.427434
0.422809
0.415947
0.404098
0.376492
0.245314
0.0100971
0.0011
0.0011
0.0011
0.0011
0.0011
0.0011
0.0011
0.0011
0.0011
0.0011
0.0011
0.0011
0.0011
0.0011
0.0011
0.549812
0.550698
0.551518
0.552269
0.552948
0.553553
0.554083
0.554536
0.554914
0.555218
0.555447
0.555605
0.555693
0.555714
0.55567
0.555564
0.555399
0.555178
0.554904
0.55458
0.554209
0.553793
0.553337
0.552841
0.552309
0.551744
0.551148
0.550523
0.549871
0.549194
0.548494
0.547774
0.547034
0.546276
0.545503
0.544714
0.543913
0.543098
0.542273
0.541438
0.540594
0.539741
0.538881
0.538015
0.537143
0.536266
0.535384
0.534499
0.53361
0.532718
0.531824
0.530927
0.53003
0.529131
0.52823
0.52733
0.526429
0.525528
0.524627
0.523726
0.522825
0.521926
0.521027
0.520129
0.519232
0.518336
0.517442
0.516549
0.515657
0.514767
0.513878
0.51299
0.512105
0.511221
0.510338
0.509457
0.508578
0.5077
0.506825
0.50595
0.505078
0.504207
0.503338
0.50247
0.501604
0.500739
0.499876
0.499015
0.498155
0.497297
0.49644
0.495584
0.49473
0.493877
0.493025
0.492175
0.491326
0.490478
0.489631
0.488785
0.48794
0.487096
0.486254
0.485412
0.484571
0.48373
0.482891
0.482052
0.481213
0.480375
0.479538
0.478701
0.477864
0.477027
0.476191
0.475354
0.474517
0.47368
0.472843
0.472005
0.471166
0.470326
0.469486
0.468644
0.4678
0.466955
0.466108
0.465258
0.464406
0.463551
0.462693
0.461832
0.460968
0.4601
0.459229
0.458355
0.457479
0.456601
0.455721
0.454839
0.453955
0.453065
0.452169
0.451261
0.450337
0.449393
0.448421
0.447414
0.446363
0.445259
0.444088
0.442835
0.441479
0.439994
0.438339
0.436461
0.434276
0.431651
0.428363
0.423998
0.417693
0.407264
0.385026
0.297268
0.0328626
0.00110045
0.0011
0.0011
0.0011
0.0011
0.0011
0.0011
0.0011
0.0011
0.0011
0.0011
0.0011
0.0011
0.0011
0.0011
0.555422
0.556466
0.557432
0.558317
0.559116
0.559826
0.560447
0.560978
0.561419
0.561773
0.56204
0.562224
0.562326
0.562351
0.562302
0.562183
0.561996
0.561747
0.561439
0.561075
0.560659
0.560194
0.559685
0.559134
0.558544
0.557918
0.557259
0.55657
0.555853
0.55511
0.554343
0.553555
0.552748
0.551922
0.551081
0.550224
0.549355
0.548473
0.54758
0.546678
0.545767
0.544849
0.543924
0.542992
0.542056
0.541115
0.54017
0.539222
0.538271
0.537318
0.536363
0.535407
0.53445
0.533492
0.532533
0.531575
0.530617
0.529659
0.528702
0.527746
0.526791
0.525837
0.524885
0.523934
0.522985
0.522037
0.521091
0.520147
0.519205
0.518264
0.517326
0.51639
0.515456
0.514524
0.513594
0.512666
0.51174
0.510817
0.509895
0.508976
0.508059
0.507144
0.506231
0.50532
0.504411
0.503504
0.502599
0.501696
0.500794
0.499895
0.498998
0.498102
0.497208
0.496316
0.495426
0.494537
0.49365
0.492764
0.49188
0.490997
0.490116
0.489236
0.488357
0.48748
0.486604
0.485728
0.484854
0.483981
0.483109
0.482238
0.481367
0.480497
0.479628
0.478759
0.477891
0.477023
0.476155
0.475287
0.474419
0.473551
0.472682
0.471813
0.470943
0.470072
0.4692
0.468327
0.467452
0.466575
0.465696
0.464815
0.463931
0.463045
0.462156
0.461264
0.460369
0.459472
0.458573
0.457671
0.456766
0.455858
0.454945
0.454026
0.453098
0.452158
0.451201
0.450223
0.449218
0.448178
0.447097
0.445963
0.444766
0.44349
0.442116
0.440618
0.43896
0.437092
0.434935
0.432369
0.429195
0.425049
0.419196
0.409854
0.391263
0.329549
0.0725875
0.00111796
0.0011
0.0011
0.0011
0.0011
0.0011
0.0011
0.0011
0.0011
0.0011
0.0011
0.0011
0.0011
0.0011
0.0011
0.560693
0.561916
0.563047
0.564081
0.565013
0.565841
0.566562
0.567176
0.567685
0.568091
0.568395
0.568602
0.568716
0.568741
0.568681
0.568541
0.568326
0.568041
0.56769
0.567278
0.566809
0.566288
0.565718
0.565103
0.564447
0.563753
0.563025
0.562265
0.561476
0.560661
0.559822
0.558961
0.558081
0.557183
0.556269
0.555341
0.5544
0.553448
0.552485
0.551514
0.550534
0.549548
0.548556
0.547558
0.546556
0.545551
0.544542
0.543531
0.542519
0.541504
0.540489
0.539473
0.538457
0.537442
0.536426
0.535412
0.534398
0.533386
0.532375
0.531365
0.530358
0.529352
0.528348
0.527347
0.526347
0.52535
0.524356
0.523364
0.522374
0.521387
0.520403
0.519421
0.518442
0.517465
0.516491
0.51552
0.514552
0.513586
0.512622
0.511662
0.510704
0.509748
0.508795
0.507845
0.506897
0.505951
0.505008
0.504068
0.503129
0.502193
0.50126
0.500328
0.499399
0.498471
0.497546
0.496623
0.495702
0.494782
0.493865
0.492949
0.492035
0.491123
0.490213
0.489304
0.488396
0.48749
0.486586
0.485683
0.48478
0.48388
0.48298
0.482081
0.481183
0.480286
0.479389
0.478493
0.477598
0.476702
0.475807
0.474913
0.474018
0.473122
0.472227
0.47133
0.470433
0.469535
0.468636
0.467735
0.466833
0.465928
0.465022
0.464113
0.463202
0.462289
0.461373
0.460454
0.459533
0.458609
0.457681
0.45675
0.455812
0.454867
0.453912
0.452944
0.45196
0.450953
0.44992
0.448853
0.447745
0.446588
0.445368
0.444074
0.442686
0.441179
0.43952
0.437661
0.43553
0.433018
0.429943
0.425984
0.420503
0.412016
0.396048
0.350042
0.124149
0.00134933
0.0011
0.0011
0.0011
0.0011
0.0011
0.0011
0.0011
0.0011
0.0011
0.0011
0.0011
0.0011
0.0011
0.0011
0.565654
0.567078
0.568395
0.569598
0.570679
0.571637
0.572468
0.573173
0.573753
0.574212
0.574554
0.574782
0.574902
0.574921
0.574843
0.574675
0.574423
0.574093
0.57369
0.573221
0.57269
0.572102
0.571462
0.570775
0.570045
0.569276
0.56847
0.567633
0.566766
0.565873
0.564956
0.564017
0.56306
0.562085
0.561095
0.560092
0.559077
0.558051
0.557016
0.555974
0.554924
0.553869
0.552809
0.551745
0.550678
0.549608
0.548536
0.547462
0.546388
0.545314
0.544239
0.543166
0.542092
0.54102
0.53995
0.538881
0.537814
0.536749
0.535687
0.534626
0.533569
0.532514
0.531462
0.530413
0.529367
0.528323
0.527283
0.526247
0.525213
0.524182
0.523155
0.522131
0.521111
0.520093
0.519079
0.518068
0.51706
0.516056
0.515054
0.514056
0.513061
0.512069
0.511079
0.510093
0.50911
0.50813
0.507153
0.506178
0.505206
0.504237
0.503271
0.502307
0.501346
0.500387
0.499431
0.498477
0.497525
0.496576
0.495629
0.494684
0.493741
0.4928
0.491862
0.490925
0.48999
0.489056
0.488124
0.487194
0.486266
0.485338
0.484413
0.483488
0.482564
0.481642
0.480721
0.4798
0.47888
0.477961
0.477042
0.476123
0.475205
0.474287
0.473368
0.472449
0.47153
0.47061
0.469689
0.468767
0.467843
0.466918
0.465991
0.465063
0.464132
0.463199
0.462264
0.461326
0.460386
0.459441
0.458493
0.45754
0.45658
0.455612
0.454634
0.453641
0.452632
0.451601
0.450544
0.449454
0.448324
0.447146
0.445909
0.444599
0.443199
0.441685
0.440026
0.438177
0.436071
0.433607
0.43062
0.426821
0.421651
0.413849
0.399839
0.363786
0.180713
0.00283421
0.0011
0.0011
0.0011
0.0011
0.0011
0.0011
0.0011
0.0011
0.0011
0.0011
0.0011
0.0011
0.0011
0.0011
0.570318
0.571972
0.573501
0.574894
0.576144
0.577247
0.578199
0.579003
0.579659
0.580173
0.580549
0.580794
0.580915
0.58092
0.580815
0.580609
0.58031
0.579924
0.579458
0.578921
0.578316
0.577652
0.576933
0.576165
0.575352
0.574498
0.573608
0.572686
0.571735
0.570758
0.569758
0.568737
0.567698
0.566643
0.565575
0.564494
0.563402
0.562302
0.561194
0.560079
0.558959
0.557835
0.556707
0.555577
0.554444
0.553311
0.552177
0.551043
0.549909
0.548776
0.547644
0.546514
0.545386
0.54426
0.543137
0.542017
0.540899
0.539784
0.538673
0.537565
0.53646
0.535359
0.534262
0.533169
0.532079
0.530993
0.529911
0.528833
0.527759
0.526688
0.525622
0.524559
0.5235
0.522446
0.521395
0.520347
0.519304
0.518264
0.517228
0.516196
0.515167
0.514142
0.51312
0.512102
0.511087
0.510076
0.509068
0.508063
0.507061
0.506063
0.505067
0.504075
0.503085
0.502098
0.501114
0.500133
0.499154
0.498178
0.497205
0.496234
0.495265
0.494299
0.493335
0.492373
0.491414
0.490456
0.4895
0.488546
0.487594
0.486643
0.485694
0.484747
0.483801
0.482856
0.481912
0.48097
0.480028
0.479087
0.478147
0.477208
0.476269
0.47533
0.474391
0.473452
0.472513
0.471573
0.470633
0.469691
0.468749
0.467806
0.46686
0.465914
0.464966
0.464016
0.463063
0.462107
0.461148
0.460186
0.459218
0.458246
0.457266
0.456277
0.455278
0.454264
0.453234
0.452182
0.451103
0.449993
0.448845
0.447649
0.446396
0.445073
0.443663
0.442145
0.440487
0.438647
0.436564
0.434143
0.431233
0.427573
0.422664
0.415422
0.40291
0.37345
0.233923
0.00841894
0.0011
0.0011
0.0011
0.0011
0.0011
0.0011
0.0011
0.0011
0.0011
0.0011
0.0011
0.0011
0.0011
0.0011
0.574692
0.57661
0.578381
0.579993
0.581434
0.582701
0.583788
0.584699
0.585436
0.586004
0.586412
0.586668
0.586781
0.586761
0.586617
0.586361
0.586001
0.585546
0.585005
0.584386
0.583697
0.582944
0.582135
0.581275
0.58037
0.579424
0.578443
0.577429
0.576388
0.575322
0.574234
0.573127
0.572004
0.570866
0.569717
0.568557
0.567388
0.566212
0.565031
0.563844
0.562654
0.561462
0.560267
0.559072
0.557876
0.556681
0.555487
0.554294
0.553103
0.551914
0.550728
0.549544
0.548364
0.547187
0.546014
0.544845
0.54368
0.542519
0.541362
0.54021
0.539062
0.537918
0.536779
0.535645
0.534515
0.53339
0.532269
0.531153
0.530042
0.528935
0.527833
0.526735
0.525642
0.524553
0.523469
0.522389
0.521313
0.520242
0.519175
0.518112
0.517053
0.515998
0.514947
0.5139
0.512857
0.511818
0.510782
0.50975
0.508722
0.507697
0.506675
0.505657
0.504642
0.50363
0.502622
0.501616
0.500613
0.499614
0.498617
0.497623
0.496631
0.495642