/*--------------------------------*- C++ -*----------------------------------*\
  =========                 |
  \\      /  F ield         | OpenFOAM: The Open Source CFD Toolbox
   \\    /   O peration     | Website:  https://openfoam.org
    \\  /    A nd           | Version:  10
     \\/     M anipulation  |
\*---------------------------------------------------------------------------*/
FoamFile
{
    format      ascii;
    class       volVectorField;
    location    "0.63";
    object      Ua;
}
// * * * * * * * * * * * * * * * * * * * * * * * * * * * * * * * * * * * * * //

dimensions      [0 1 -1 0 0 0 0];

internalField   nonuniform List<vector> 
12225
(
(7.59582e-05 -9.44405e-06 0)
(0.000222292 -8.82842e-06 0)
(0.00035559 -7.70027e-06 0)
(0.000473911 -6.42216e-06 0)
(0.000578152 -5.236e-06 0)
(0.000670617 -4.25962e-06 0)
(0.000753984 -3.53055e-06 0)
(0.000830775 -3.04865e-06 0)
(0.000903195 -2.8052e-06 0)
(0.000973167 -2.80135e-06 0)
(0.00104247 -3.06266e-06 0)
(0.00111297 -3.65815e-06 0)
(0.00118696 -4.73793e-06 0)
(0.00126785 -6.62377e-06 0)
(0.00136162 -1.00659e-05 0)
(0.00148116 -1.71379e-05 0)
(0.00166274 -3.53881e-05 0)
(0.00205672 -0.00010483 0)
(5.0553e-05 -2.47629e-05 0)
(0.000148821 -2.32978e-05 0)
(0.000240151 -2.04653e-05 0)
(0.000322986 -1.71905e-05 0)
(0.000397387 -1.41121e-05 0)
(0.000464381 -1.15559e-05 0)
(0.000525389 -9.63762e-06 0)
(0.000581889 -8.37099e-06 0)
(0.000635275 -7.74376e-06 0)
(0.000686842 -7.76816e-06 0)
(0.000737866 -8.52163e-06 0)
(0.000789736 -1.02001e-05 0)
(0.0008442 -1.32208e-05 0)
(0.000903791 -1.84652e-05 0)
(0.000972741 -2.79414e-05 0)
(0.00105899 -4.69333e-05 0)
(0.00117746 -9.26258e-05 0)
(0.0013294 -0.000237712 0)
(3.98739e-05 -3.46228e-05 0)
(0.000118115 -3.28795e-05 0)
(0.000192411 -2.91666e-05 0)
(0.00026146 -2.47309e-05 0)
(0.000324976 -2.04768e-05 0)
(0.000383397 -1.68959e-05 0)
(0.000437543 -1.41876e-05 0)
(0.000488377 -1.24005e-05 0)
(0.000536884 -1.15404e-05 0)
(0.000584041 -1.16439e-05 0)
(0.000630855 -1.28415e-05 0)
(0.00067845 -1.54365e-05 0)
(0.000728219 -2.00553e-05 0)
(0.00078208 -2.79826e-05 0)
(0.000842848 -4.20133e-05 0)
(0.000914428 -6.88719e-05 0)
(0.000998475 -0.000126709 0)
(0.00106456 -0.000267288 0)
(3.2914e-05 -4.13507e-05 0)
(9.8076e-05 -3.96464e-05 0)
(0.000161201 -3.55103e-05 0)
(0.000221196 -3.03814e-05 0)
(0.000277605 -2.53565e-05 0)
(0.000330517 -2.1067e-05 0)
(0.000380373 -1.77963e-05 0)
(0.000427793 -1.56396e-05 0)
(0.00047348 -1.4632e-05 0)
(0.000518175 -1.48419e-05 0)
(0.00056267 -1.645e-05 0)
(0.000607858 -1.98487e-05 0)
(0.000654799 -2.58177e-05 0)
(0.000704807 -3.58914e-05 0)
(0.000759385 -5.31974e-05 0)
(0.000819297 -8.44421e-05 0)
(0.000879586 -0.000144298 0)
(0.000910276 -0.000260676 0)
(2.7778e-05 -4.57528e-05 0)
(8.32458e-05 -4.43036e-05 0)
(0.000138001 -4.00602e-05 0)
(0.00019113 -3.45697e-05 0)
(0.000242098 -2.9068e-05 0)
(0.00029078 -2.43042e-05 0)
(0.000337356 -2.06427e-05 0)
(0.000382199 -1.82303e-05 0)
(0.000425792 -1.71379e-05 0)
(0.000468684 -1.74679e-05 0)
(0.000511479 -1.94449e-05 0)
(0.000554849 -2.35259e-05 0)
(0.000599533 -3.05798e-05 0)
(0.000646281 -4.22296e-05 0)
(0.000695504 -6.15267e-05 0)
(0.000745965 -9.41981e-05 0)
(0.000790632 -0.000150208 0)
(0.000807564 -0.000241285 0)
(2.37515e-05 -4.82512e-05 0)
(7.15791e-05 -4.72136e-05 0)
(0.000119648 -4.30958e-05 0)
(0.0001672 -3.74964e-05 0)
(0.000213682 -3.17501e-05 0)
(0.000258834 -2.67023e-05 0)
(0.000302658 -2.27923e-05 0)
(0.000345339 -2.02193e-05 0)
(0.000387182 -1.90923e-05 0)
(0.000428569 -1.9546e-05 0)
(0.000469932 -2.18388e-05 0)
(0.000511735 -2.64636e-05 0)
(0.000554417 -3.43117e-05 0)
(0.000598244 -4.69464e-05 0)
(0.000642846 -6.7044e-05 0)
(0.000686009 -9.89312e-05 0)
(0.00072106 -0.000148406 0)
(0.000733857 -0.000218437 0)
(2.0481e-05 -4.91107e-05 0)
(6.20665e-05 -4.8598e-05 0)
(0.00010459 -4.47792e-05 0)
(0.000147429 -3.9268e-05 0)
(0.000190048 -3.34663e-05 0)
(0.000232116 -2.82958e-05 0)
(0.000273507 -2.42609e-05 0)
(0.000314264 -2.16106e-05 0)
(0.000354543 -2.04904e-05 0)
(0.000394579 -2.10631e-05 0)
(0.000434647 -2.36079e-05 0)
(0.000475017 -2.86234e-05 0)
(0.000515867 -3.6961e-05 0)
(0.00055709 -5.00101e-05 0)
(0.00059785 -6.99093e-05 0)
(0.000635701 -9.95787e-05 0)
(0.00066529 -0.000141814 0)
(0.000678169 -0.000195695 0)
(1.7763e-05 -4.85213e-05 0)
(5.41284e-05 -4.8611e-05 0)
(9.19388e-05 -4.52154e-05 0)
(0.000130691 -3.99447e-05 0)
(0.000169894 -3.42433e-05 0)
(0.000209188 -2.90888e-05 0)
(0.000248362 -2.50389e-05 0)
(0.000287345 -2.23858e-05 0)
(0.000326173 -2.13075e-05 0)
(0.000364949 -2.19882e-05 0)
(0.000403805 -2.47134e-05 0)
(0.000442841 -2.9959e-05 0)
(0.000482021 -3.8487e-05 0)
(0.000520988 -5.14428e-05 0)
(0.000558705 -7.03898e-05 0)
(0.000592929 -9.70717e-05 0)
(0.000619774 -0.000132422 0)
(0.000634454 -0.000174252 0)
(1.54681e-05 -4.66375e-05 0)
(4.73962e-05 -4.73733e-05 0)
(8.11312e-05 -4.44808e-05 0)
(0.000116276 -3.95634e-05 0)
(0.000152407 -3.40886e-05 0)
(0.000189161 -2.90699e-05 0)
(0.000226276 -2.51033e-05 0)
(0.000263596 -2.25151e-05 0)
(0.00030105 -2.15092e-05 0)
(0.00033863 -2.22826e-05 0)
(0.000376339 -2.51133e-05 0)
(0.000414136 -3.04311e-05 0)
(0.000451827 -3.88762e-05 0)
(0.000488912 -5.13249e-05 0)
(0.000524342 -6.88167e-05 0)
(0.000556271 -9.2231e-05 0)
(0.000582059 -0.0001215 0)
(0.000599109 -0.000154357 0)
(1.35073e-05 -4.36005e-05 0)
(4.16149e-05 -4.49902e-05 0)
(7.17778e-05 -4.26376e-05 0)
(0.000103698 -3.81495e-05 0)
(0.000137032 -3.30013e-05 0)
(0.00017144 -2.82208e-05 0)
(0.000206627 -2.44254e-05 0)
(0.000242372 -2.19641e-05 0)
(0.000278518 -2.10575e-05 0)
(0.000314958 -2.19069e-05 0)
(0.000351587 -2.47704e-05 0)
(0.00038825 -3.00158e-05 0)
(0.000424649 -3.81469e-05 0)
(0.000460229 -4.97824e-05 0)
(0.000494037 -6.55365e-05 0)
(0.000524657 -8.57205e-05 0)
(0.000550379 -0.000109819 0)
(0.00056985 -0.000135918 0)
(1.18142e-05 -3.95537e-05 0)
(3.65937e-05 -4.15633e-05 0)
(6.35869e-05 -3.97434e-05 0)
(9.25958e-05 -3.57258e-05 0)
(0.000123367 -3.09792e-05 0)
(0.000155597 -2.65231e-05 0)
(0.000188976 -2.2977e-05 0)
(0.000223231 -2.06986e-05 0)
(0.000258134 -1.99161e-05 0)
(0.000293493 -2.08257e-05 0)
(0.000329116 -2.36566e-05 0)
(0.000364762 -2.87061e-05 0)
(0.000400074 -3.63437e-05 0)
(0.000434498 -4.69656e-05 0)
(0.000467227 -6.08721e-05 0)
(0.000497225 -7.80412e-05 0)
(0.00052342 -9.7825e-05 0)
(0.000545145 -0.00011874 0)
(1.0211e-05 -3.50324e-05 0)
(3.18573e-05 -3.75552e-05 0)
(5.5908e-05 -3.61984e-05 0)
(8.22539e-05 -3.26343e-05 0)
(0.000110705 -2.83102e-05 0)
(0.000140976 -2.42182e-05 0)
(0.000172736 -2.09628e-05 0)
(0.000205663 -1.88982e-05 0)
(0.000239469 -1.82511e-05 0)
(0.000273895 -1.92072e-05 0)
(0.000308683 -2.19641e-05 0)
(0.000343539 -2.6754e-05 0)
(0.000378079 -3.38338e-05 0)
(0.000411788 -4.34336e-05 0)
(0.000444001 -5.56523e-05 0)
(0.000473959 -7.0301e-05 0)
(0.000500975 -8.67441e-05 0)
(0.000524703 -0.000103852 0)
(9.14982e-06 -2.99575e-05 0)
(2.86519e-05 -3.28644e-05 0)
(5.05639e-05 -3.18903e-05 0)
(7.48803e-05 -2.87614e-05 0)
(0.000101497 -2.48832e-05 0)
(0.000130169 -2.11988e-05 0)
(0.000160573 -1.82801e-05 0)
(0.000192363 -1.64648e-05 0)
(0.000225212 -1.59692e-05 0)
(0.000258811 -1.69634e-05 0)
(0.000292853 -1.96121e-05 0)
(0.000327004 -2.40879e-05 0)
(0.000360876 -3.05556e-05 0)
(0.000394 -3.91251e-05 0)
(0.000425843 -4.97715e-05 0)
(0.000455856 -6.22364e-05 0)
(0.000483603 -7.59532e-05 0)
(0.000508922 -9.00632e-05 0)
(8.07173e-06 -2.37905e-05 0)
(2.53461e-05 -2.68834e-05 0)
(4.49887e-05 -2.61941e-05 0)
(6.71625e-05 -2.35065e-05 0)
(9.18548e-05 -2.01395e-05 0)
(0.000118852 -1.69511e-05 0)
(0.00014783 -1.4456e-05 0)
(0.000178417 -1.29561e-05 0)
(0.000210241 -1.26466e-05 0)
(0.000242939 -1.36754e-05 0)
(0.000276164 -1.61705e-05 0)
(0.000309566 -2.02447e-05 0)
(0.000342782 -2.59804e-05 0)
(0.000375419 -3.33929e-05 0)
(0.000407068 -4.23778e-05 0)
(0.00043735 -5.26589e-05 0)
(0.000465999 -6.37659e-05 0)
(0.000492948 -7.50715e-05 0)
(6.92028e-06 -1.66199e-05 0)
(2.17792e-05 -1.94288e-05 0)
(3.89738e-05 -1.88219e-05 0)
(5.89287e-05 -1.65579e-05 0)
(8.16853e-05 -1.37673e-05 0)
(0.000107001 -1.11572e-05 0)
(0.000134532 -9.17285e-06 0)
(0.000163865 -8.06555e-06 0)
(0.00019455 -7.99226e-06 0)
(0.000226198 -9.06631e-06 0)
(0.000258491 -1.13757e-05 0)
(0.000291134 -1.49796e-05 0)
(0.000323813 -1.98967e-05 0)
(0.000356191 -2.60796e-05 0)
(0.000387936 -3.3386e-05 0)
(0.000418765 -4.15585e-05 0)
(0.000448502 -5.02282e-05 0)
(0.000477117 -5.89504e-05 0)
(5.445e-06 -8.6654e-06 0)
(1.73156e-05 -1.03e-05 0)
(3.17512e-05 -9.49516e-06 0)
(4.95085e-05 -7.65367e-06 0)
(7.05049e-05 -5.57419e-06 0)
(9.41244e-05 -3.65608e-06 0)
(0.000119862 -2.22181e-06 0)
(0.000147521 -1.56561e-06 0)
(0.000176891 -1.78365e-06 0)
(0.000207658 -2.94451e-06 0)
(0.000239446 -5.04383e-06 0)
(0.000271852 -8.12205e-06 0)
(0.0003045 -1.21727e-05 0)
(0.000337061 -1.71131e-05 0)
(0.000369261 -2.27932e-05 0)
(0.000400897 -2.89933e-05 0)
(0.000431858 -3.54351e-05 0)
(0.000462137 -4.18086e-05 0)
(2.73255e-06 6.39236e-08 0)
(9.53866e-06 8.00783e-07 0)
(1.98948e-05 1.92296e-06 0)
(3.46064e-05 3.25304e-06 0)
(5.33926e-05 4.59445e-06 0)
(7.58002e-05 5.78287e-06 0)
(0.00010122 6.59318e-06 0)
(0.000128958 6.77629e-06 0)
(0.000158462 6.26875e-06 0)
(0.000189299 5.03477e-06 0)
(0.000221102 3.11615e-06 0)
(0.000253553 5.10714e-07 0)
(0.000286371 -2.74229e-06 0)
(0.0003193 -6.56139e-06 0)
(0.000352143 -1.08318e-05 0)
(0.000384759 -1.53171e-05 0)
(0.000417063 -1.98114e-05 0)
(0.000449048 -2.41004e-05 0)
(6.38277e-06 1.04857e-05 0)
(1.95237e-05 1.42782e-05 0)
(3.3957e-05 1.62253e-05 0)
(5.05506e-05 1.72845e-05 0)
(6.97554e-05 1.79201e-05 0)
(9.16429e-05 1.82206e-05 0)
(0.000116004 1.81298e-05 0)
(0.000142499 1.75962e-05 0)
(0.000170761 1.65937e-05 0)
(0.000200438 1.51207e-05 0)
(0.000231204 1.31998e-05 0)
(0.000262767 1.0881e-05 0)
(0.000294872 8.23981e-06 0)
(0.000327311 5.35926e-06 0)
(0.000359912 2.33612e-06 0)
(0.000392564 -6.31289e-07 0)
(0.000425217 -3.39303e-06 0)
(0.000457882 -5.80076e-06 0)
(8.81348e-06 2.47555e-05 0)
(2.70429e-05 3.05318e-05 0)
(4.65343e-05 3.34537e-05 0)
(6.74678e-05 3.45089e-05 0)
(9.00536e-05 3.4443e-05 0)
(0.00011439 3.36851e-05 0)
(0.000140431 3.24596e-05 0)
(0.000168028 3.08896e-05 0)
(0.000196973 2.90519e-05 0)
(0.000227039 2.70072e-05 0)
(0.000258005 2.48155e-05 0)
(0.000289668 2.25451e-05 0)
(0.000321853 2.02758e-05 0)
(0.000354424 1.80996e-05 0)
(0.00038728 1.61184e-05 0)
(0.000420367 1.44404e-05 0)
(0.000453671 1.31756e-05 0)
(0.000487228 1.24313e-05 0)
(9.94031e-06 4.01878e-05 0)
(3.07277e-05 4.59645e-05 0)
(5.32121e-05 4.88577e-05 0)
(7.72389e-05 4.95388e-05 0)
(0.000102748 4.87391e-05 0)
(0.000129678 4.70215e-05 0)
(0.000157919 4.47704e-05 0)
(0.000187325 4.2238e-05 0)
(0.000217726 3.9591e-05 0)
(0.00024895 3.69463e-05 0)
(0.000280836 3.43952e-05 0)
(0.000313249 3.20187e-05 0)
(0.000346082 2.98958e-05 0)
(0.000379261 2.81074e-05 0)
(0.000412748 2.67377e-05 0)
(0.000446544 2.58725e-05 0)
(0.000480688 2.55984e-05 0)
(0.000515263 2.60005e-05 0)
(1.17027e-05 5.28945e-05 0)
(3.5997e-05 5.7624e-05 0)
(6.19438e-05 5.96726e-05 0)
(8.93185e-05 5.95331e-05 0)
(0.000117942 5.78777e-05 0)
(0.000147659 5.52921e-05 0)
(0.000178317 5.22143e-05 0)
(0.000209763 4.89482e-05 0)
(0.00024185 4.5699e-05 0)
(0.000274448 4.26071e-05 0)
(0.00030745 3.9774e-05 0)
(0.000340776 3.72809e-05 0)
(0.000374381 3.52001e-05 0)
(0.000408249 3.36015e-05 0)
(0.000442401 3.25556e-05 0)
(0.000476889 3.21349e-05 0)
(0.000511804 3.24136e-05 0)
(0.000547276 3.3467e-05 0)
(1.38456e-05 6.26604e-05 0)
(4.23024e-05 6.61419e-05 0)
(7.21812e-05 6.7102e-05 0)
(0.000103245 6.59926e-05 0)
(0.00013525 6.34543e-05 0)
(0.000167982 6.00718e-05 0)
(0.000201256 5.62975e-05 0)
(0.000234916 5.24511e-05 0)
(0.00026884 4.87485e-05 0)
(0.000302936 4.53329e-05 0)
(0.000337147 4.23025e-05 0)
(0.000371451 3.97305e-05 0)
(0.000405862 3.76778e-05 0)
(0.000440422 3.62021e-05 0)
(0.000475211 3.53622e-05 0)
(0.000510336 3.52204e-05 0)
(0.000545943 3.58441e-05 0)
(0.000582214 3.73062e-05 0)
(1.64119e-05 6.89788e-05 0)
(4.98153e-05 7.12621e-05 0)
(8.42685e-05 7.11354e-05 0)
(0.000119517 6.90863e-05 0)
(0.000155277 6.57513e-05 0)
(0.000191302 6.17077e-05 0)
(0.000227396 5.74023e-05 0)
(0.000263415 5.31487e-05 0)
(0.000299268 4.91543e-05 0)
(0.000334911 4.55516e-05 0)
(0.000370343 4.2426e-05 0)
(0.000405602 3.98365e-05 0)
(0.000440763 3.783e-05 0)
(0.000475931 3.64506e-05 0)
(0.000511243 3.57458e-05 0)
(0.000546868 3.57696e-05 0)
(0.000583004 3.6585e-05 0)
(0.000619892 3.82658e-05 0)
(1.94646e-05 7.17147e-05 0)
(5.87335e-05 7.29473e-05 0)
(9.8549e-05 7.18722e-05 0)
(0.000138612 6.90365e-05 0)
(0.000178609 6.50821e-05 0)
(0.000218281 6.05737e-05 0)
(0.000257441 5.59392e-05 0)
(0.000295978 5.1472e-05 0)
(0.000333851 4.73593e-05 0)
(0.000371074 4.37145e-05 0)
(0.000407712 4.06046e-05 0)
(0.00044387 3.80715e-05 0)
(0.000479688 3.61467e-05 0)
(0.000515338 3.48605e-05 0)
(0.000551018 3.42488e-05 0)
(0.000586957 3.43575e-05 0)
(0.000623415 3.52461e-05 0)
(0.000660691 3.69906e-05 0)
(2.31072e-05 7.09193e-05 0)
(6.93616e-05 7.12893e-05 0)
(0.000115513 6.94804e-05 0)
(0.000161188 6.60895e-05 0)
(0.000206043 6.17574e-05 0)
(0.000249825 5.70256e-05 0)
(0.000292382 5.22919e-05 0)
(0.000333661 4.78198e-05 0)
(0.000373688 4.37698e-05 0)
(0.000412554 4.02314e-05 0)
(0.000450402 3.72516e-05 0)
(0.000487412 3.4855e-05 0)
(0.000523797 3.30576e-05 0)
(0.000559797 3.18766e-05 0)
(0.000595675 3.13366e-05 0)
(0.000631724 3.14745e-05 0)
(0.000668265 3.23443e-05 0)
(0.000705663 3.40222e-05 0)
(2.7517e-05 6.67075e-05 0)
(8.22132e-05 6.64236e-05 0)
(0.000135975 6.41403e-05 0)
(0.000188323 6.04764e-05 0)
(0.000238884 5.60514e-05 0)
(0.000287432 5.13685e-05 0)
(0.000333878 4.67842e-05 0)
(0.000378253 4.25253e-05 0)
(0.000420679 3.87216e-05 0)
(0.000461341 3.54384e-05 0)
(0.000500474 3.27033e-05 0)
(0.000538346 3.05253e-05 0)
(0.000575249 2.8907e-05 0)
(0.000611495 2.7854e-05 0)
(0.000647417 2.73802e-05 0)
(0.00068337 2.7513e-05 0)
(0.000719741 2.82976e-05 0)
(0.000756958 2.9804e-05 0)
(3.30245e-05 5.91637e-05 0)
(9.82493e-05 5.84486e-05 0)
(0.000161462 5.59821e-05 0)
(0.000222042 5.23636e-05 0)
(0.000279591 4.81623e-05 0)
(0.000333934 4.38235e-05 0)
(0.000385081 3.96512e-05 0)
(0.000433184 3.58298e-05 0)
(0.000478486 3.24578e-05 0)
(0.000521294 2.95777e-05 0)
(0.000561953 2.72011e-05 0)
(0.000600828 2.53243e-05 0)
(0.000638301 2.39404e-05 0)
(0.000674761 2.30459e-05 0)
(0.000710614 2.26457e-05 0)
(0.00074628 2.27573e-05 0)
(0.000782208 2.34151e-05 0)
(0.000818895 2.46759e-05 0)
(4.03605e-05 4.82296e-05 0)
(0.0001196 4.73231e-05 0)
(0.000195374 4.49965e-05 0)
(0.000266877 4.17784e-05 0)
(0.000333692 3.81506e-05 0)
(0.000395733 3.44768e-05 0)
(0.000453157 3.09965e-05 0)
(0.000506279 2.7848e-05 0)
(0.000555506 2.50991e-05 0)
(0.000601295 2.27734e-05 0)
(0.000644122 2.08705e-05 0)
(0.000684468 1.93799e-05 0)
(0.000722813 1.82888e-05 0)
(0.000759635 1.75887e-05 0)
(0.000795415 1.72782e-05 0)
(0.000830641 1.73663e-05 0)
(0.000865829 1.78756e-05 0)
(0.000901536 1.88457e-05 0)
(5.18144e-05 3.34729e-05 0)
(0.000152967 3.26471e-05 0)
(0.000248465 3.0837e-05 0)
(0.000337256 2.84358e-05 0)
(0.000418917 2.57898e-05 0)
(0.000493507 2.31525e-05 0)
(0.0005614 2.06852e-05 0)
(0.000623141 1.84762e-05 0)
(0.000679357 1.65649e-05 0)
(0.000730696 1.49611e-05 0)
(0.000777794 1.36591e-05 0)
(0.000821269 1.2647e-05 0)
(0.000861714 1.19124e-05 0)
(0.000899706 1.14464e-05 0)
(0.000935813 1.12449e-05 0)
(0.000970603 1.13115e-05 0)
(0.00100467 1.16584e-05 0)
(0.00103863 1.2308e-05 0)
(8.85501e-05 1.25506e-05 0)
(0.000260799 1.21949e-05 0)
(0.000422331 1.1471e-05 0)
(0.000571732 1.05323e-05 0)
(0.000708662 9.51137e-06 0)
(0.000833517 8.50336e-06 0)
(0.000947104 7.56731e-06 0)
(0.00105039 6.73454e-06 0)
(0.00114437 6.01798e-06 0)
(0.00122994 5.41974e-06 0)
(0.00130791 4.93649e-06 0)
(0.00137898 4.56285e-06 0)
(0.00144374 4.29352e-06 0)
(0.00150272 4.12446e-06 0)
(0.00155639 4.05373e-06 0)
(0.00160518 4.08206e-06 0)
(0.00164954 4.21332e-06 0)
(0.00168992 4.4546e-06 0)
(9.35739e-05 -0.00020001 -2.58396e-30)
(0.000281502 -0.00019977 2.57864e-30)
(0.00047067 -0.000199372 0)
(0.000660934 -0.000198814 0)
(0.000852146 -0.000198093 0)
(0.00104415 -0.000197208 -2.53652e-30)
(0.00123678 -0.000196156 0)
(0.00142988 -0.000194937 0)
(0.00162327 -0.00019355 0)
(0.00181677 -0.000191994 0)
(0.00201021 -0.000190272 2.43548e-30)
(0.0022034 -0.000188384 0)
(0.00239616 -0.000186333 0)
(0.00258829 -0.000184122 0)
(0.00277962 -0.000181754 0)
(0.00296995 -0.000179235 2.28149e-30)
(0.0031591 -0.000176569 0)
(0.00334688 -0.000173765 0)
(0.0035331 -0.000170828 0)
(0.0037176 -0.000167766 0)
(0.0039002 -0.000164589 0)
(0.00408073 -0.000161304 0)
(0.00425904 -0.000157922 0)
(0.00443496 -0.000154453 1.94391e-30)
(0.00460836 -0.000150907 -1.89603e-30)
(0.0047791 -0.000147294 1.84731e-30)
(0.00494705 -0.000143624 1.7979e-30)
(0.0051121 -0.000139909 0)
(0.00527413 -0.000136157 0)
(0.00543306 -0.000132381 -1.64684e-30)
(0.0055888 -0.000128588 -1.59599e-30)
(0.00574126 -0.00012479 0)
(0.00589039 -0.000120995 0)
(0.00603612 -0.000117211 -1.44367e-30)
(0.00617841 -0.000113448 0)
(0.00631723 -0.000109713 0)
(0.00645254 -0.000106013 1.29401e-30)
(0.00658432 -0.000102354 0)
(0.00671257 -9.87434e-05 1.19699e-30)
(0.00683729 -9.51863e-05 2.29908e-30)
(0.00695847 -9.16877e-05 0)
(0.00707613 -8.82522e-05 0)
(0.0071903 -8.48838e-05 0)
(0.00730098 -8.15859e-05 0)
(0.00740823 -7.83616e-05 0)
(0.00751206 -7.52134e-05 1.76686e-30)
(0.00761253 -7.21434e-05 1.68514e-30)
(0.00770967 -6.91534e-05 1.60555e-30)
(0.00780354 -6.62446e-05 0)
(0.0078942 -6.34181e-05 -1.45294e-30)
(0.00798168 -6.06745e-05 0)
(0.00806607 -5.80141e-05 1.30919e-30)
(0.00814741 -5.54369e-05 1.24065e-30)
(0.00822577 -5.29429e-05 0)
(0.00830121 -5.05315e-05 0)
(0.00837381 -4.82021e-05 0)
(0.00844362 -4.59538e-05 9.88532e-31)
(0.00851073 -4.37857e-05 0)
(0.00857519 -4.16967e-05 0)
(0.00863708 -3.96854e-05 0)
(0.00869646 -3.77504e-05 0)
(0.00875342 -3.58903e-05 0)
(0.00880802 -3.41035e-05 0)
(0.00886032 -3.23882e-05 0)
(0.0089104 -3.07429e-05 0)
(0.00895833 -2.91657e-05 -5.42417e-31)
(0.00900418 -2.76549e-05 0)
(0.00904801 -2.62086e-05 0)
(0.00908989 -2.48249e-05 4.27104e-31)
(0.00912989 -2.3502e-05 3.91959e-31)
(0.00916807 -2.2238e-05 0)
(0.0092045 -2.10311e-05 -3.26331e-31)
(0.00923924 -1.98794e-05 2.95737e-31)
(0.00927234 -1.8781e-05 0)
(0.00930388 -1.77341e-05 -2.38756e-31)
(0.00933391 -1.67369e-05 0)
(0.00936248 -1.57875e-05 0)
(0.00938966 -1.48843e-05 1.63069e-31)
(0.0094155 -1.40255e-05 0)
(0.00944005 -1.32093e-05 -1.18581e-31)
(0.00946337 -1.24342e-05 0)
(0.00948549 -1.16984e-05 7.84491e-32)
(0.00950649 -1.10004e-05 5.99119e-32)
(0.0095264 -1.03386e-05 4.23351e-32)
(0.00954526 -9.71151e-06 5.13619e-32)
(0.00956313 -9.11762e-06 -1.98106e-32)
(0.00958005 -8.55551e-06 0)
(0.00959606 -8.02377e-06 0)
(0.0096112 -7.52106e-06 0)
(0.00962551 -7.04605e-06 9.02284e-32)
(0.00963903 -6.59749e-06 1.1406e-31)
(0.0096518 -6.17412e-06 -1.36548e-31)
(0.00966384 -5.77478e-06 0)
(0.00967521 -5.39831e-06 1.77761e-31)
(0.00968592 -5.04361e-06 1.96609e-31)
(0.00969601 -4.70961e-06 2.14353e-31)
(0.00970552 -4.39528e-06 0)
(0.00971446 -4.09963e-06 0)
(0.00972287 -3.82172e-06 0)
(0.00973078 -3.56063e-06 2.75395e-31)
(0.00973822 -3.3155e-06 0)
(0.0097452 -3.08547e-06 0)
(0.00975175 -2.86974e-06 -3.12099e-31)
(0.00975789 -2.66756e-06 0)
(0.00976365 -2.47817e-06 0)
(0.00976905 -2.30087e-06 -3.42328e-31)
(0.0097741 -2.135e-06 0)
(0.00977883 -1.97991e-06 0)
(0.00978325 -1.83498e-06 3.67084e-31)
(0.00978739 -1.69964e-06 3.74276e-31)
(0.00979125 -1.57333e-06 0)
(0.00979486 -1.45551e-06 -3.87253e-31)
(0.00979822 -1.34568e-06 0)
(0.00980136 -1.24338e-06 3.98525e-31)
(0.00980428 -1.14813e-06 0)
(0.009807 -1.05951e-06 4.08299e-31)
(0.00980954 -9.77112e-07 4.12674e-31)
(0.0098119 -9.00546e-07 0)
(0.00981409 -8.29444e-07 0)
(0.00981612 -7.63461e-07 0)
(0.00981801 -7.02265e-07 0)
(0.00981977 -6.45547e-07 0)
(0.00982139 -5.93013e-07 0)
(0.0098229 -5.44386e-07 0)
(0.00982429 -4.99404e-07 4.38073e-31)
(0.00982558 -4.5782e-07 -4.40279e-31)
(0.00982678 -4.19403e-07 0)
(0.00982788 -3.83933e-07 0)
(0.0098289 -3.51205e-07 0)
(0.00982984 -3.21024e-07 0)
(0.00983071 -2.93207e-07 -8.98064e-31)
(0.0098315 -2.67583e-07 0)
(0.00983224 -2.43989e-07 9.03299e-31)
(0.00983291 -2.22274e-07 -9.05609e-31)
(0.00983354 -2.02293e-07 0)
(0.00983411 -1.8391e-07 0)
(0.00983463 -1.66997e-07 0)
(0.00983511 -1.51431e-07 9.13145e-31)
(0.00983554 -1.37096e-07 9.14668e-31)
(0.00983594 -1.23879e-07 0)
(0.00983631 -1.11672e-07 9.17366e-31)
(0.00983664 -1.00369e-07 9.18562e-31)
(0.00983694 -8.98645e-08 -9.19681e-31)
(0.00983721 -8.00541e-08 0)
(0.00983745 -7.08297e-08 0)
(0.00983766 -6.20792e-08 -9.22623e-31)
(0.00983785 -5.36832e-08 0)
(0.00983802 -4.55113e-08 0)
(0.00983815 -3.74188e-08 0)
(0.00983827 -2.92405e-08 0)
(0.00983835 -2.07849e-08 9.26956e-31)
(0.00983841 -1.18255e-08 9.27888e-31)
(0.00983843 -2.09048e-09 0)
(0.00983842 8.75072e-09 9.30017e-31)
(0.00983837 2.11046e-08 0)
(0.00983827 3.54757e-08 0)
(0.00983811 5.24951e-08 9.34511e-31)
(0.00983788 7.29574e-08 0)
(0.00983757 9.78693e-08 9.39154e-31)
(0.00983715 1.28513e-07 0)
(0.0098366 1.66531e-07 0)
(0.00983589 2.14038e-07 9.51004e-31)
(0.00983496 2.73771e-07 0)
(0.00983377 3.49297e-07 9.64788e-31)
(0.00983223 4.45297e-07 0)
(0.00983025 5.67964e-07 0)
(0.0098277 7.25578e-07 0)
(0.00982441 9.29333e-07 -1.02388e-30)
(0.00982015 1.1946e-06 0)
(0.00981459 1.54286e-06 1.08639e-30)
(0.00980733 2.00485e-06 0)
(0.00979776 2.62583e-06 0)
(0.00978502 3.47494e-06 0)
(0.00976787 4.66297e-06 0)
(0.00974436 6.37895e-06 0)
(0.00971137 8.9738e-06 0)
(0.00966328 1.31805e-05 0)
(0.00958876 2.08175e-05 -6.11602e-30)
(0.00945918 3.7714e-05 0)
(0.00917198 9.06942e-05 0)
(9.39011e-05 -0.00060073 7.7609e-30)
(0.000282485 -0.000600006 -7.74487e-30)
(0.00047231 -0.000598809 0)
(0.000663233 -0.00059713 1.54041e-29)
(0.000855101 -0.00059496 0)
(0.00104776 -0.000592295 -7.64286e-30)
(0.00124104 -0.000589128 -1.517e-29)
(0.00143478 -0.000585457 -1.50659e-29)
(0.0016288 -0.00058128 0)
(0.00182292 -0.000576597 -1.48186e-29)
(0.00201696 -0.00057141 7.36149e-30)
(0.00221074 -0.000565724 0)
(0.00240407 -0.000559545 0)
(0.00259675 -0.000552884 0)
(0.00278859 -0.000545751 0)
(0.00297941 -0.000538162 6.9204e-30)
(0.00316902 -0.000530133 0)
(0.00335722 -0.000521684 1.33267e-29)
(0.00354384 -0.000512837 0)
(0.0037287 -0.000503615 0)
(0.00391161 -0.000494045 -1.2586e-29)
(0.00409242 -0.000484154 0)
(0.00427096 -0.000473972 1.20502e-29)
(0.00444708 -0.000463528 5.93846e-30)
(0.00462064 -0.000452852 -5.79843e-30)
(0.00479149 -0.000441978 5.65587e-30)
(0.00495953 -0.000430936 5.51116e-30)
(0.00512461 -0.000419757 0)
(0.00528666 -0.000408473 0)
(0.00544556 -0.000397115 -5.0683e-30)
(0.00560123 -0.000385712 -1.4625e-29)
(0.0057536 -0.000374292 0)
(0.0059026 -0.000362885 0)
(0.00604819 -0.000351515 -4.47182e-30)
(0.00619031 -0.000340207 0)
(0.00632893 -0.000328985 0)
(0.00646403 -0.000317871 4.03208e-30)
(0.00659558 -0.000306884 0)
(0.00672359 -0.000296042 1.10819e-29)
(0.00684804 -0.000285363 7.21477e-30)
(0.00696895 -0.000274861 0)
(0.00708633 -0.000264549 0)
(0.00720021 -0.000254441 -1.24743e-29)
(0.0073106 -0.000244545 -1.19523e-29)
(0.00741755 -0.000234871 -1.1442e-29)
(0.00752108 -0.000225426 1.65935e-29)
(0.00762125 -0.000216218 5.40916e-30)
(0.00771809 -0.000207249 -4.8106e-30)
(0.00781166 -0.000198526 9.52582e-30)
(0.00790201 -0.00019005 -4.7261e-30)
(0.00798921 -0.000181823 0)
(0.0080733 -0.000173846 4.3032e-30)
(0.00815435 -0.000166119 1.19196e-29)
(0.00823243 -0.000158642 0)
(0.00830759 -0.000151413 0)
(0.00837992 -0.00014443 0)
(0.00844947 -0.000137691 3.35975e-30)
(0.00851632 -0.000131193 0)
(0.00858053 -0.000124932 5.64849e-30)
(0.00864217 -0.000118904 0)
(0.00870132 -0.000113105 5.02564e-30)
(0.00875805 -0.00010753 0)
(0.00881242 -0.000102176 -4.45013e-30)
(0.00886451 -9.70357e-05 0)
(0.00891439 -9.21054e-05 3.91988e-30)
(0.00896212 -8.73794e-05 -5.71816e-30)
(0.00900778 -8.28523e-05 0)
(0.00905143 -7.85186e-05 -3.20452e-30)
(0.00909313 -7.43727e-05 1.70781e-30)
(0.00913296 -7.0409e-05 1.6044e-30)
(0.00917098 -6.66219e-05 0)
(0.00920725 -6.30058e-05 -3.7991e-30)
(0.00924184 -5.95552e-05 1.32127e-30)
(0.00927481 -5.62643e-05 0)
(0.00930621 -5.31278e-05 -1.15361e-30)
(0.0093361 -5.01402e-05 -1.71051e-30)
(0.00936456 -4.7296e-05 0)
(0.00939162 -4.45901e-05 9.30898e-31)
(0.00941734 -4.20171e-05 0)
(0.00944178 -3.9572e-05 3.54167e-31)
(0.009465 -3.72498e-05 0)
(0.00948703 -3.50456e-05 -2.33958e-31)
(0.00950793 -3.29545e-05 6.27377e-31)
(0.00952775 -3.09719e-05 1.27709e-30)
(0.00954654 -2.90932e-05 2.25838e-30)
(0.00956433 -2.73141e-05 -1.97823e-30)
(0.00958117 -2.56301e-05 0)
(0.00959711 -2.40372e-05 0)
(0.00961219 -2.25312e-05 0)
(0.00962643 -2.11082e-05 -2.72376e-31)
(0.00963989 -1.97644e-05 -5.66612e-31)
(0.0096526 -1.84961e-05 5.00446e-31)
(0.0096646 -1.72998e-05 0)
(0.00967591 -1.6172e-05 -2.2381e-31)
(0.00968658 -1.51094e-05 -3.23751e-31)
(0.00969663 -1.41089e-05 -2.71548e-31)
(0.00970609 -1.31672e-05 0)
(0.009715 -1.22815e-05 0)
(0.00972337 -1.1449e-05 0)
(0.00973125 -1.06669e-05 -9.19663e-32)
(0.00973865 -9.9325e-06 0)
(0.0097456 -9.2434e-06 8.84941e-31)
(0.00975212 -8.59716e-06 9.3698e-31)
(0.00975824 -7.99146e-06 -1.01678e-30)
(0.00976397 -7.42411e-06 0)
(0.00976935 -6.89299e-06 -1.23739e-30)
(0.00977438 -6.39608e-06 0)
(0.00977909 -5.93146e-06 -1.23372e-30)
(0.00978349 -5.4973e-06 1.4572e-30)
(0.00978761 -5.09185e-06 1.52106e-30)
(0.00979145 -4.71344e-06 0)
(0.00979504 -4.36049e-06 1.16209e-30)
(0.00979839 -4.03149e-06 -1.43381e-30)
(0.00980152 -3.72499e-06 2.70236e-31)
(0.00980443 -3.43965e-06 0)
(0.00980714 -3.17417e-06 2.9898e-31)
(0.00980966 -2.92732e-06 -1.23826e-30)
(0.00981201 -2.69795e-06 0)
(0.00981419 -2.48494e-06 -1.59671e-30)
(0.00981622 -2.28727e-06 -1.61753e-30)
(0.0098181 -2.10394e-06 -1.63684e-30)
(0.00981985 -1.93402e-06 0)
(0.00982147 -1.77664e-06 0)
(0.00982297 -1.63096e-06 0)
(0.00982436 -1.4962e-06 2.08741e-30)
(0.00982564 -1.37162e-06 -3.93039e-31)
(0.00982683 -1.25653e-06 0)
(0.00982793 -1.15027e-06 1.7373e-30)
(0.00982894 -1.05221e-06 1.74764e-30)
(0.00982988 -9.61795e-07 0)
(0.00983074 -8.7846e-07 -8.37553e-31)
(0.00983154 -8.01693e-07 3.54806e-30)
(0.00983227 -7.3101e-07 8.52945e-31)
(0.00983294 -6.65954e-07 -4.43639e-30)
(0.00983356 -6.06093e-07 0)
(0.00983413 -5.51022e-07 0)
(0.00983465 -5.00353e-07 0)
(0.00983513 -4.53721e-07 8.81891e-31)
(0.00983556 -4.10776e-07 4.51679e-30)
(0.00983596 -3.71183e-07 3.63875e-30)
(0.00983632 -3.34616e-07 8.94315e-31)
(0.00983665 -3.00758e-07 4.55142e-30)
(0.00983695 -2.69296e-07 -9.0113e-31)
(0.00983722 -2.39914e-07 0)
(0.00983746 -2.1229e-07 0)
(0.00983767 -1.86088e-07 -4.58748e-30)
(0.00983786 -1.60951e-07 0)
(0.00983803 -1.36491e-07 0)
(0.00983816 -1.12273e-07 3.69313e-30)
(0.00983828 -8.78052e-08 0)
(0.00983836 -6.25144e-08 4.62613e-30)
(0.00983842 -3.57245e-08 9.25418e-31)
(0.00983844 -6.6235e-09 0)
(0.00983843 2.57758e-08 4.65356e-30)
(0.00983838 6.26871e-08 0)
(0.00983828 1.05617e-07 0)
(0.00983813 1.56449e-07 9.45261e-31)
(0.00983791 2.17556e-07 3.76124e-30)
(0.0098376 2.91941e-07 9.59223e-31)
(0.00983719 3.83434e-07 0)
(0.00983665 4.96933e-07 0)
(0.00983594 6.38747e-07 4.84252e-30)
(0.00983503 8.17041e-07 0)
(0.00983386 1.04245e-06 4.96677e-30)
(0.00983235 1.32894e-06 0)
(0.0098304 1.69495e-06 0)
(0.00982789 2.16515e-06 0)
(0.00982465 2.77283e-06 -1.21452e-30)
(0.00982045 3.56371e-06 0)
(0.00981499 4.60156e-06 1.40269e-30)
(0.00980786 5.97748e-06 0)
(0.00979847 7.82527e-06 0)
(0.009786 1.03486e-05 5.83669e-30)
(0.00976924 1.38724e-05 -6.55905e-30)
(0.00974639 1.89464e-05 0)
(0.00971453 2.65783e-05 0)
(0.00966873 3.88247e-05 0)
(0.00959992 6.05521e-05 1.79614e-29)
(0.00949057 0.000105875 0)
(0.00931805 0.000227968 -1.01325e-28)
(9.45587e-05 -0.00100356 5.18713e-29)
(0.000284461 -0.00100234 -6.76977e-33)
(0.000475608 -0.00100033 0)
(0.000667853 -0.000997515 1.58211e-32)
(0.000861042 -0.000993875 0)
(0.00105501 -0.000989403 0)
(0.0012496 -0.000984089 -5.07286e-29)
(0.00144463 -0.000977927 -2.52106e-29)
(0.00163992 -0.000970914 2.49813e-29)
(0.00183529 -0.00096305 -2.48075e-29)
(0.00203055 -0.000954338 0)
(0.00222551 -0.000944785 0)
(0.00241998 -0.000934404 -2.39823e-29)
(0.00261376 -0.00092321 -4.73584e-29)
(0.00280665 -0.000911223 4.67113e-29)
(0.00299846 -0.000898468 0)
(0.00318899 -0.000884974 4.53002e-29)
(0.00337805 -0.000870775 2.23495e-29)
(0.00356546 -0.000855909 0)
(0.00375102 -0.000840416 4.2917e-29)
(0.00393457 -0.00082434 -2.11229e-29)
(0.00411593 -0.000807729 -4.11754e-29)
(0.00429494 -0.000790633 2.02345e-29)
(0.00447145 -0.000773102 0)
(0.00464532 -0.000755189 3.83842e-29)
(0.00481641 -0.000736948 3.74169e-29)
(0.00498459 -0.000718431 0)
(0.00514976 -0.000699693 3.54437e-29)
(0.0053118 -0.000680786 0)
(0.00547064 -0.000661761 3.34372e-29)
(0.00562618 -0.000642668 -1.63469e-29)
(0.00577835 -0.000623555 0)
(0.00592711 -0.000604469 0)
(0.00607239 -0.000585453 0)
(0.00621416 -0.000566549 0)
(0.00635238 -0.000547794 0)
(0.00648705 -0.000529224 0)
(0.00661813 -0.000510874 2.5474e-29)
(0.00674564 -0.000492772 -1.21008e-29)
(0.00686957 -0.000474947 0)
(0.00698993 -0.000457423 0)
(0.00710675 -0.000440221 0)
(0.00722005 -0.000423362 -4.20699e-29)
(0.00732985 -0.000406863 -2.03421e-29)
(0.00743619 -0.000390737 -3.5117e-31)
(0.00753912 -0.000374996 3.56025e-31)
(0.00763868 -0.000359652 -1.75114e-29)
(0.00773492 -0.000344712 -1.70907e-29)
(0.00782789 -0.000330181 3.22918e-29)
(0.00791764 -0.000316066 1.52186e-29)
(0.00800424 -0.000302367 0)
(0.00808775 -0.000289087 1.37997e-29)
(0.00816822 -0.000276225 2.66325e-29)
(0.00824573 -0.00026378 0)
(0.00832035 -0.00025175 0)
(0.00839213 -0.000240131 -1.12256e-29)
(0.00846115 -0.000228919 0)
(0.00852748 -0.000218107 0)
(0.00859119 -0.000207692 2.89668e-29)
(0.00865235 -0.000197665 1.79867e-29)
(0.00871103 -0.00018802 8.89773e-30)
(0.0087673 -0.000178749 0)
(0.00882123 -0.000169844 -7.94764e-30)
(0.00887289 -0.000161296 0)
(0.00892236 -0.000153098 2.03745e-29)
(0.00896969 -0.00014524 -6.66164e-30)
(0.00901496 -0.000137713 -1.16851e-29)