/*--------------------------------*- C++ -*----------------------------------*\
  =========                 |
  \\      /  F ield         | OpenFOAM: The Open Source CFD Toolbox
   \\    /   O peration     | Website:  https://openfoam.org
    \\  /    A nd           | Version:  10
     \\/     M anipulation  |
\*---------------------------------------------------------------------------*/
FoamFile
{
    format      ascii;
    class       volScalarField;
    location    "23500";
    object      p;
}
// * * * * * * * * * * * * * * * * * * * * * * * * * * * * * * * * * * * * * //

dimensions      [1 -1 -2 0 0 0 0];

internalField   nonuniform List<scalar> 
3200
(
100.861
100.919
101.041
101.242
101.551
102.029
102.793
111.975
305.669
476.902
635.935
786.505
930.498
1069.05
1202.91
1332.62
1458.6
1581.14
1700.5
1816.89
1930.48
2041.41
2149.82
2255.82
2359.5
2450.84
2526.84
2592.66
2651.88
2706.66
2758.28
2807.46
2854.55
2899.65
2942.61
2983.03
3020.16
3052.71
3078.64
3094.73
98.2851
98.326
98.4069
98.5262
98.6773
98.8363
98.9305
98.7565
98.2757
97.9014
97.599
97.3452
97.1261
96.9331
96.7608
96.6053
96.4639
96.335
96.2174
96.1106
96.0148
95.9314
95.8632
95.8156
95.795
109.081
139.532
179.209
223.469
269.779
316.801
363.878
410.759
457.465
504.251
551.625
600.419
651.897
707.877
762.241
95.6232
95.6441
95.6825
95.7312
95.7775
95.7991
95.7624
95.63
95.4121
95.1797
94.9572
94.7515
94.5633
94.3911
94.2332
94.088
93.9537
93.8293
93.7134
93.6052
93.5032
93.4056
93.3095
93.2086
93.0937
92.99
92.8939
92.8033
92.7167
92.6333
92.5523
92.473
92.3949
92.3173
92.2391
92.1593
92.0762
91.9873
91.8543
91.2253
92.9171
92.9235
92.933
92.9399
92.9353
92.9077
92.8452
92.7405
92.5998
92.4409
92.2768
92.115
91.9593
91.8115
91.6718
91.5402
91.416
91.2987
91.1876
91.0817
90.9801
90.8816
90.7849
90.689
90.5935
90.5008
90.4116
90.3258
90.2432
90.1634
90.0861
90.0112
89.9384
89.8676
89.799
89.7329
89.6702
89.6125
89.5628
89.284
90.1978
90.1956
90.1892
90.1753
90.1491
90.1055
90.0405
89.9529
89.8458
89.7254
89.5979
89.4681
89.3392
89.2132
89.0912
88.9737
88.8609
88.7526
88.6485
88.5482
88.4512
88.357
88.2651
88.1753
88.0876
88.0022
87.9194
87.8392
87.7617
87.6867
87.6143
87.5443
87.4768
87.4119
87.3497
87.2904
87.2345
87.1822
87.1339
86.8691
87.4832
87.4767
87.4628
87.44
87.4061
87.359
87.2976
87.222
87.1341
87.0366
86.9328
86.8255
86.717
86.6089
86.5023
86.3981
86.2964
86.1976
86.1016
86.0084
85.9177
85.8294
85.7433
85.6594
85.5777
85.4982
85.4209
85.346
85.2734
85.2031
85.1351
85.0695
85.0063
84.9455
84.8872
84.8315
84.7783
84.7278
84.6799
84.4267
84.7822
84.774
84.7574
84.7318
84.6964
84.6507
84.5945
84.5283
84.4532
84.3711
84.2836
84.1926
84.0995
84.0058
83.9122
83.8195
83.7282
83.6385
83.5506
83.4647
83.3807
83.2986
83.2185
83.1403
83.064
82.9897
82.9175
82.8472
82.779
82.7129
82.6489
82.587
82.5271
82.4695
82.4139
82.3605
82.3092
82.2601
82.2129
81.9713
82.0985
82.0899
82.0729
82.0474
82.0134
81.9708
81.92
81.8614
81.7961
81.7251
81.6496
81.5708
81.4898
81.4075
81.3247
81.2419
81.1597
81.0784
80.9982
80.9192
80.8417
80.7657
80.6913
80.6184
80.5472
80.4777
80.41
80.344
80.2797
80.2173
80.1567
80.0979
80.0409
79.9858
79.9325
79.8809
79.8312
79.7831
79.7367
79.5063
79.4328
79.4245
79.4082
79.3841
79.3524
79.3135
79.2678
79.2158
79.1582
79.0958
79.0296
78.9604
78.8889
78.8159
78.742
78.6677
78.5934
78.5195
78.4462
78.3737
78.3022
78.2319
78.1627
78.0948
78.0283
77.9632
77.8995
77.8373
77.7766
77.7175
77.6599
77.6038
77.5493
77.4964
77.445
77.3951
77.3466
77.2997
77.2541
77.0343
76.7847
76.7769
76.7617
76.7395
76.7105
76.6752
76.634
76.5875
76.5363
76.4809
76.4222
76.3606
76.2969
76.2315
76.1651
76.098
76.0306
75.9632
75.8961
75.8294
75.7634
75.6981
75.6338
75.5704
75.5082
75.447
75.3871
75.3283
75.2709
75.2147
75.1598
75.1062
75.0539
75.0029
74.9532
74.9047
74.8576
74.8116
74.7668
74.5573
74.1529
74.1457
74.1318
74.1115
74.0851
74.0532
74.0161
73.9743
73.9284
73.8789
73.8262
73.771
73.7137
73.6547
73.5946
73.5337
73.4722
73.4105
73.3488
73.2873
73.2261
73.1655
73.1055
73.0463
72.9879
72.9304
72.8738
72.8182
72.7636
72.7101
72.6576
72.6062
72.5559
72.5067
72.4586
72.4115
72.3655
72.3205
72.2765
72.0768
71.5361
71.5296
71.5169
71.4984
71.4745
71.4456
71.4121
71.3744
71.3329
71.2883
71.2407
71.1908
71.1389
71.0854
71.0307
70.975
70.9187
70.8619
70.805
70.7481
70.6913
70.6348
70.5788
70.5232
70.4683
70.414
70.3605
70.3078
70.2558
70.2047
70.1545
70.1052
70.0567
70.0092
69.9625
69.9167
69.8718
69.8278
69.7845
69.5944
68.9331
68.9271
68.9156
68.8988
68.8771
68.8508
68.8204
68.7862
68.7487
68.7081
68.665
68.6196
68.5723
68.5234
68.4733
68.4222
68.3703
68.3179
68.2652
68.2123
68.1594
68.1067
68.0541
68.0019
67.9502
67.8989
67.8481
67.798
67.7484
67.6996
67.6514
67.604
67.5572
67.5112
67.4659
67.4214
67.3776
67.3345
67.292
67.1111
66.3426
66.3372
66.3266
66.3113
66.2915
66.2676
66.2399
66.2088
66.1746
66.1376
66.0982
66.0567
66.0134
65.9686
65.9225
65.8753
65.8274
65.7788
65.7298
65.6805
65.6311
65.5816
65.5323
65.4831
65.4341
65.3855
65.3373
65.2895
65.2422
65.1954
65.1492
65.1035
65.0583
65.0138
64.9698
64.9265
64.8837
64.8415
64.7999
64.628
63.7635
63.7585
63.7489
63.7349
63.7168
63.695
63.6697
63.6412
63.6099
63.5761
63.5399
63.5018
63.4619
63.4206
63.378
63.3343
63.2898
63.2446
63.1989
63.1528
63.1065
63.06
63.0135
62.9671
62.9208
62.8746
62.8287
62.7831
62.7379
62.693
62.6485
62.6045
62.5609
62.5177
62.475
62.4328
62.3911
62.3498
62.309
62.1459
61.1948
61.1903
61.1815
61.1686
61.1521
61.132
61.1088
61.0827
61.0539
61.0228
60.9895
60.9543
60.9175
60.8792
60.8397
60.7991
60.7577
60.7155
60.6728
60.6296
60.586
60.5423
60.4984
60.4544
60.4104
60.3666
60.3228
60.2793
60.2359
60.1929
60.1501
60.1076
60.0654
60.0236
59.9822
59.9411
59.9004
59.8601
59.8201
59.6654
58.6357
58.6316
58.6235
58.6117
58.5964
58.578
58.5566
58.5325
58.506
58.4772
58.4465
58.4139
58.3798
58.3442
58.3075
58.2697
58.231
58.1915
58.1514
58.1108
58.0698
58.0285
57.987
57.9453
57.9036
57.8618
57.8201
57.7784
57.7369
57.6955
57.6543
57.6133
57.5726
57.5321
57.4918
57.4519
57.4122
57.3728
57.3337
57.1874
56.0854
56.0815
56.0741
56.0632
56.0492
56.0322
56.0124
55.9902
55.9656
55.939
55.9105
55.8803
55.8485
55.8154
55.7811
55.7458
55.7096
55.6726
55.6349
55.5967
55.5581
55.519
55.4797
55.4401
55.4004
55.3606
55.3208
55.2809
55.2411
55.2014
55.1617
55.1222
55.0828
55.0436
55.0045
54.9657
54.9271
54.8887
54.8504
54.7123
53.5431
53.5396
53.5327
53.5226
53.5097
53.4939
53.4757
53.4551
53.4323
53.4076
53.3811
53.353
53.3234
53.2925
53.2605
53.2274
53.1935
53.1587
53.1233
53.0873
53.0508
53.0138
52.9766
52.939
52.9012
52.8633
52.8252
52.7871
52.7489
52.7108
52.6726
52.6345
52.5964
52.5585
52.5207
52.483
52.4454
52.408
52.3707
52.2407
51.0083
51.0051
50.9987
50.9894
50.9774
50.9628
50.9459
50.9267
50.9056
50.8826
50.858
50.8318
50.8042
50.7753
50.7453
50.7144
50.6825
50.6498
50.6165
50.5825
50.548
50.5131
50.4778
50.4421
50.4062
50.37
50.3337
50.2972
50.2606
50.224
50.1873
50.1506
50.1139
50.0772
50.0406
50.0041
49.9676
49.9312
49.8949
49.7728
48.4805
48.4774
48.4715
48.4629
48.4517
48.4382
48.4225
48.4047
48.3851
48.3637
48.3407
48.3163
48.2905
48.2636
48.2355
48.2065
48.1766
48.1459
48.1144
48.0824
48.0498
48.0168
47.9833
47.9495
47.9153
47.8809
47.8462
47.8114
47.7764
47.7413
47.706
47.6708
47.6354
47.6
47.5647
47.5293
47.494
47.4587
47.4233
47.309
45.959
45.9562
45.9507
45.9427
45.9324
45.9198
45.9052
45.8887
45.8704
45.8505
45.8291
45.8063
45.7822
45.757
45.7308
45.7036
45.6755
45.6466
45.6171
45.5869
45.5562
45.5249
45.4933
45.4612
45.4288
45.396
45.363
45.3298
45.2964
45.2628
45.229
45.1952
45.1612
45.1271
45.093
45.0589
45.0247
44.9906
44.9563
44.8497
43.4434
43.4408
43.4358
43.4283
43.4187
43.4071
43.3935
43.3782
43.3612
43.3427
43.3227
43.3015
43.279
43.2555
43.2309
43.2055
43.1791
43.1521
43.1243
43.0959
43.067
43.0375
43.0076
42.9772
42.9465
42.9155
42.8841
42.8525
42.8207
42.7886
42.7564
42.724
42.6914
42.6587
42.6259
42.5931
42.5601
42.5271
42.494
42.395
40.9334
40.931
40.9263
40.9194
40.9105
40.8997
40.8871
40.8729
40.8571
40.8399
40.8213
40.8016
40.7806
40.7587
40.7358
40.712
40.6874
40.662
40.636
40.6093
40.5821
40.5544
40.5262
40.4976
40.4686
40.4393
40.4096
40.3796
40.3494
40.3189
40.2882
40.2573
40.2262
40.1949
40.1635
40.132
40.1004
40.0686
40.0367
39.9453
38.4284
38.4262
38.4219
38.4155
38.4073
38.3973
38.3856
38.3724
38.3578
38.3418
38.3246
38.3062
38.2868
38.2664
38.245
38.2229
38.1999
38.1763
38.152
38.127
38.1016
38.0756
38.0492
38.0223
37.995
37.9674
37.9394
37.9111
37.8825
37.8536
37.8245
37.7952
37.7656
37.7359
37.7059
37.6758
37.6456
37.6152
37.5846
37.5006
35.9282
35.9261
35.9221
35.9163
35.9087
35.8994
35.8887
35.8765
35.863
35.8482
35.8323
35.8153
35.7973
35.7783
35.7585
35.738
35.7166
35.6946
35.672
35.6488
35.6251
35.6009
35.5762
35.5511
35.5256
35.4997
35.4734
35.4469
35.42
35.3929
35.3654
35.3378
35.3098
35.2817
35.2533
35.2247
35.1959
35.1669
35.1377
35.0611
33.4323
33.4304
33.4267
33.4213
33.4143
33.4059
33.396
33.3847
33.3723
33.3587
33.344
33.3283
33.3117
33.2942
33.276
33.257
33.2373
33.2169
33.196
33.1745
33.1525
33.1301
33.1072
33.0839
33.0602
33.0361
33.0117
32.9869
32.9619
32.9365
32.9109
32.885
32.8588
32.8323
32.8056
32.7786
32.7514
32.724
32.6963
32.6271
30.9404
30.9387
30.9353
30.9304
30.924
30.9162
30.9071
30.8968
30.8854
30.873
30.8595
30.8451
30.8299
30.8139
30.7971
30.7796
30.7615
30.7429
30.7236
30.7039
30.6837
30.663
30.6419
30.6205
30.5986
30.5765
30.5539
30.5311
30.508
30.4845
30.4608
30.4368
30.4125
30.3879
30.363
30.3378
30.3124
30.2866
30.2606
30.1989
28.4522
28.4506
28.4475
28.443
28.4372
28.4301
28.4219
28.4125
28.4021
28.3907
28.3785
28.3654
28.3515
28.3369
28.3216
28.3057
28.2892
28.2722
28.2546
28.2367
28.2182
28.1994
28.1802
28.1606
28.1407
28.1205
28.1
28.0792
28.0581
28.0367
28.0151
27.9931
27.9709
27.9483
27.9255
27.9023
27.8788
27.855
27.8308
27.7767
25.9672
25.9658
25.963
25.959
25.9537
25.9473
25.9398
25.9314
25.922
25.9117
25.9006
25.8888
25.8762
25.863
25.8492
25.8349
25.82
25.8046
25.7888
25.7725
25.7559
25.7389
25.7216
25.704
25.6861
25.668
25.6495
25.6309
25.6119
25.5928
25.5734
25.5537
25.5338
25.5136
25.493
25.4722
25.451
25.4294
25.4073
25.3609
23.4853
23.484
23.4816
23.4779
23.4732
23.4675
23.4608
23.4532
23.4448
23.4356
23.4256
23.415
23.4038
23.392
23.3796
23.3668
23.3535
23.3397
23.3256
23.3111
23.2963
23.2812
23.2659
23.2503
23.2344
23.2184
23.2021
23.1857
23.1691
23.1523
23.1353
23.1182
23.1009
23.0833
23.0655
23.0474
23.0289
23.01
22.9906
22.9524
21.0061
21.005
21.0028
20.9995
20.9954
20.9903
20.9843
20.9776
20.9702
20.962
20.9532
20.9438
20.9339
20.9234
20.9125
20.9012
20.8894
20.8773
20.8649
20.8522
20.8392
20.8259
20.8125
20.7989
20.7851
20.7712
20.7572
20.7431
20.7289
20.7146
20.7002
20.6858
20.6714
20.6569
20.6423
20.6275
20.6125
20.5972
20.5813
20.5522
18.5293
18.5283
18.5264
18.5235
18.5199
18.5154
18.5102
18.5044
18.4979
18.4907
18.4831
18.4749
18.4662
18.4571
18.4476
18.4377
18.4275
18.417
18.4062
18.3952
18.384
18.3726
18.3611
18.3494
18.3377
18.3259
18.3141
18.3023
18.2905
18.2787
18.267
18.2555
18.2441
18.2328
18.2218
18.2111
18.2008
18.1909
18.1816
18.1649
16.0546
16.0537
16.052
16.0496
16.0465
16.0426
16.0382
16.0331
16.0275
16.0214
16.0148
16.0078
16.0004
15.9926
15.9844
15.976
15.9673
15.9584
15.9492
15.9399
15.9304
15.9208
15.9111
15.9014
15.8916
15.8818
15.8721
15.8625
15.8529
15.8436
15.8344
15.8255
15.8168
15.8086
15.8008
15.7935
15.7869
15.7812
15.7764
15.7729
13.5816
13.5809
13.5795
13.5775
13.5748
13.5716
13.5679
13.5636
13.5589
13.5538
13.5483
13.5424
13.5362
13.5297
13.5229
13.5158
13.5086
13.5011
13.4936
13.4858
13.478
13.4701
13.4622
13.4542
13.4463
13.4384
13.4307
13.423
13.4155
13.4082
13.4012
13.3945
13.3881
13.3822
13.3768
13.3719
13.3677
13.3643
13.3617
13.3601
11.1102
11.1096
11.1085
11.1068
11.1047
11.1021
11.099
11.0956
11.0918
11.0876
11.0831
11.0784
11.0733
11.0681
11.0626
11.0569
11.051
11.0451
11.039
11.0328
11.0265
11.0202
11.0139
11.0077
11.0014
10.9953
10.9893
10.9834
10.9777
10.9722
10.9669
10.962
10.9574
10.9532
10.9494
10.9461
10.9433
10.9411
10.9395
10.9386
8.64
8.63954
8.63867
8.63738
8.63572
8.63371
8.63136
8.6287
8.62575
8.62254
8.61908
8.6154
8.61152
8.60746
8.60324
8.59887
8.59439
8.5898
8.58514
8.58042
8.57566
8.5709
8.56614
8.56141
8.55674
8.55215
8.54767
8.54332
8.53914
8.53515
8.53138
8.52786
8.52462
8.5217
8.5191
8.51687
8.51502
8.51357
8.51252
8.51188
6.17075
6.17043
6.1698
6.16889
6.16771
6.16628
6.16461
6.16272
6.16062
6.15834
6.15589
6.15328
6.15053
6.14765
6.14466
6.14157
6.1384
6.13517
6.13188
6.12856
6.12522
6.12188
6.11856
6.11527
6.11203
6.10885
6.10577
6.1028
6.09995
6.09724
6.09471
6.09236
6.09021
6.08828
6.08658
6.08514
6.08394
6.08301
6.08234
6.08193
3.70218
3.70199
3.70161
3.70107
3.70036
3.6995
3.69851
3.69738
3.69612
3.69476
3.6933
3.69174
3.69009
3.68837
3.68659
3.68475
3.68287
3.68094
3.67899
3.67702
3.67504
3.67307
3.6711
3.66916
3.66726
3.6654
3.66359
3.66186
3.6602
3.65864
3.65718
3.65583
3.6546
3.6535
3.65254
3.65172
3.65105
3.65053
3.65015
3.64992
1.23402
1.23395
1.23383
1.23365
1.23341
1.23312
1.23279
1.23242
1.232
1.23155
1.23106
1.23054
1.22999
1.22942
1.22883
1.22822
1.22759
1.22695
1.22631
1.22565
1.225
1.22435
1.2237
1.22306
1.22243
1.22181
1.22122
1.22065
1.22011
1.2196
1.21912
1.21868
1.21828
1.21792
1.21761
1.21735
1.21713
1.21696
1.21684
1.21676
3096.74
3084.44
3062.28
3033.62
3000.6
2964.56
2926.33
2886.39
2845
2802.26
2758.08
2712.22
2664.16
2612.91
2556.65
2492.12
2413.6
2314.17
2212.27
2108.43
2002.6
1894.73
1784.74
1672.59
1558.19
1441.46
1322.31
1200.63
1076.27
949.06
818.762
685.048
547.416
405.008
256.112
105.706
103.677
102.991
102.616
102.447
764.342
710.232
657.898
610.55
566.095
523.175
480.929
438.822
396.545
353.951
311.048
268.02
225.328
183.918
145.624
113.955
95.4699
95.5883
95.6657
95.759
95.8645
95.9803
96.1058
96.241
96.3867
96.5441
96.7148
96.9011
97.1062
97.3341
97.5911
97.8858
98.2319
98.651
99.1778
99.7958
99.9108
99.8187
99.7069
99.6403
91.1805
91.4418
91.5701
91.6792
91.7797
91.8747
91.9663
92.0561
92.145
92.2341
92.3239
92.4151
92.5082
92.6038
92.7025
92.8052
92.9132
93.0292
93.1448
93.2576
93.3724
93.492
93.6179
93.7513
93.8936
94.0457
94.2092
94.3859
94.5776
94.787
95.0169
95.2704
95.55
95.8547
96.173
96.4626
96.6258
96.6868
96.697
96.6931
89.0584
89.1706
89.2321
89.3017
89.3762
89.4536
89.5331
89.6142
89.6967
89.7807
89.8665
89.9541
90.044
90.1364
90.2316
90.33
90.4319
90.5374
90.6454
90.7559
90.8694
90.9871
91.1098
91.2386
91.3743
91.5179
91.6704
91.8326
92.0057
92.1904
92.3873
92.596
92.8146
93.0375
93.2534
93.4429
93.5825
93.6702
93.7177
93.7377
86.6766
86.7826
86.8374
86.8969
86.9607
87.0282
87.0988
87.1722
87.2481
87.3263
87.4068
87.4896
87.5749
87.6627
87.7532
87.8465
87.9427
88.042
88.1442
88.2495
88.3581
88.4705
88.5873
88.7089
88.8359
88.9689
89.1083
89.2544
89.4076
89.5676
89.7339
89.905
90.078
90.2483
90.4087
90.5502
90.664
90.7466
90.7991
90.8244
84.256
84.3588
84.4119
84.4679
84.5272
84.5895
84.6547
84.7227
84.7933
84.8664
84.9419
85.0199
85.1004
85.1833
85.2688
85.3569
85.4477
85.5412
85.6376
85.7368
85.8393
85.945
86.0543
86.1674
86.2847
86.4062
86.5321
86.6624
86.7968
86.9348
87.0754
87.217
87.357
87.4921
87.6179
87.7294
87.8221
87.8929
87.9405
87.9646
81.8169
81.9166
81.9685
82.0227
82.0793
82.1385
82.2001
82.2642
82.3307
82.3996
82.4708
82.5443
82.6201
82.6984
82.7789
82.8619
82.9473
83.0352
83.1256
83.2187
83.3144
83.4128
83.5142
83.6184
83.7257
83.8359
83.949
84.0647
84.1825
84.3018
84.4215
84.5401
84.6558
84.766
84.8679
84.9583
85.0344
85.0936
85.1343
85.1552
79.3659
79.4625
79.5134
79.5661
79.6208
79.6777
79.7366
79.7976
79.8608
79.9261
79.9935
80.063
80.1346
80.2084
80.2843
80.3623
80.4425
80.5249
80.6094
80.6962
80.7852
80.8764
80.9698
81.0654
81.1631
81.2627
81.364
81.4667
81.5702
81.6738
81.7766
81.8773
81.9745
82.0662
82.1506
82.2253
82.2884
82.3379
82.3721
82.3898
76.9065
77
77.0499
77.1013
77.1544
77.2093
77.2659
77.3244
77.3848
77.4469
77.5109
77.5768
77.6446
77.7142
77.7857
77.8591
77.9343
78.0114
78.0903
78.171
78.2535
78.3377
78.4235
78.5109
78.5997
78.6897
78.7805
78.8719
78.9631
79.0537
79.1428
79.2293
79.312
79.3897
79.4607
79.5234
79.5763
79.6179
79.6467
79.6616
74.4412
74.5315
74.5804
74.6306
74.6822
74.7353
74.79
74.8462
74.9039
74.9633
75.0243
75.0868
75.151
75.2168
75.2842
75.3532
75.4237
75.4958
75.5693
75.6444
75.7207
75.7984
75.8773
75.9572
76.0379
76.1192
76.2009
76.2823
76.3633
76.443
76.5208
76.5958
76.6672
76.7337
76.7942
76.8476
76.8925
76.9277
76.9522
76.9648
71.9716
72.0588
72.1067
72.1557
72.2059
72.2573
72.3101
72.3642
72.4197
72.4764
72.5346
72.5941
72.655
72.7172
72.7808
72.8457
72.9119
72.9793
73.0479
73.1176
73.1883
73.26
73.3325
73.4056
73.4791
73.5528
73.6263
73.6994
73.7714
73.842
73.9106
73.9763
74.0384
74.0961
74.1483
74.1942
74.2327
74.2629
74.2839
74.2947
69.4993
69.5834
69.6303
69.678
69.7269
69.7768
69.8278
69.8799
69.9331
69.9875
70.0431
70.0998
70.1576
70.2165
70.2765
70.3376
70.3998
70.4629
70.5269
70.5917
70.6573
70.7235
70.7902
70.8572
70.9243
70.9913
71.0578
71.1235
71.1881
71.251
71.3118
71.3698
71.4244
71.4749
71.5204
71.5603
71.5938
71.6199
71.638
71.6474
67.0256
67.1065
67.1523
67.1989
67.2463
67.2947
67.344
67.3943
67.4455
67.4976
67.5507
67.6047
67.6597
67.7156
67.7723
67.8299
67.8883
67.9475
68.0073
68.0677
68.1286
68.1898
68.2513
68.3129
68.3743
68.4353
68.4957
68.5552
68.6133
68.6697
68.724
68.7756
68.8239
68.8685
68.9086
68.9436
68.9729
68.9957
69.0115
69.0197
64.5513
64.6292
64.6739
64.7192
64.7654
64.8123
64.8599
64.9084
64.9576
65.0076
65.0584
65.11
65.1623
65.2153
65.269
65.3233
65.3783
65.4338
65.4898
65.5461
65.6028
65.6596
65.7164
65.7731
65.8295
65.8853
65.9404
65.9943
66.0469
66.0978
66.1466
66.1927
66.2359
66.2755
66.3111
66.3421
66.368
66.3881
66.402
66.4092
62.0775
62.1522
62.1959
62.24
62.2848
62.3302
62.3763
62.423
62.4704
62.5184
62.567
62.6162
62.666
62.7163
62.7672
62.8185
62.8703
62.9225
62.9749
63.0276
63.0804
63.1332
63.1858
63.2382
63.2901
63.3413
63.3917
63.4409
63.4888
63.5349
63.5789
63.6205
63.6593
63.6948
63.7266
63.7542
63.7772
63.7951
63.8075
63.8139
59.6049
59.6765
59.719
59.762
59.8054
59.8494
59.8939
59.9389
59.9845
60.0305
60.0771
60.124
60.1715
60.2193
60.2676
60.3161
60.365
60.4141
60.4633
60.5126
60.5619
60.611
60.6599
60.7084
60.7563
60.8035
60.8497
60.8948
60.9385
60.9804
61.0204
61.0581
61.0931
61.1251
61.1537
61.1785
61.1991
61.2152
61.2262
61.2319
57.1342
57.2027
57.244
57.2857
57.3279
57.3704
57.4134
57.4568
57.5006
57.5447
57.5893
57.6342
57.6794
57.7249
57.7706
57.8166
57.8627
57.9089
57.9552
58.0014
58.0475
58.0933
58.1388
58.1838
58.2281
58.2717
58.3143
58.3557
58.3957
58.4341
58.4705
58.5048
58.5366
58.5656
58.5915
58.6139
58.6325
58.6469
58.6568
58.662
54.6659
54.7313
54.7714
54.8119
54.8527
54.8938
54.9353
54.977
55.0191
55.0615
55.1041
55.147
55.19
55.2333
55.2767
55.3203
55.3638
55.4074
55.4509
55.4943
55.5374
55.5802
55.6226
55.6645
55.7056
55.7459
55.7852
55.8234
55.8602
55.8954
55.9287
55.96
55.989
56.0154
56.0389
56.0593
56.0761
56.0892
56.0982
56.1028
52.2004
52.2628
52.3017
52.3409
52.3804
52.4201
52.46
52.5002
52.5406
52.5812
52.6219
52.6628
52.7039
52.745
52.7862
52.8274
52.8686
52.9097
52.9507
52.9914
53.0318
53.0719
53.1114
53.1504
53.1886
53.226
53.2624
53.2976
53.3315
53.3639
53.3945
53.4232
53.4497
53.4738
53.4953
53.5138
53.5291
53.541
53.5492
53.5534
49.7383
49.7976
49.8353
49.8732
49.9113
49.9496
49.988
50.0266
50.0653
50.1042
50.1431
50.1821
50.2212
50.2603
50.2994
50.3384
50.3773
50.416
50.4546
50.4928
50.5307
50.5682
50.6051
50.6414
50.677
50.7117
50.7454
50.778
50.8093
50.8392
50.8674
50.8937
50.9181
50.9402
50.9598
50.9767
50.9907
51.0016
51.009
51.0129
47.2799
47.3361
47.3726
47.4091
47.4458
47.4826
47.5195
47.5565
47.5936
47.6307
47.6679
47.7051
47.7422
47.7793
47.8163
47.8532
47.89
47.9265
47.9627
47.9986
48.0342
48.0692
48.1037
48.1376
48.1707
48.2029
48.2342
48.2644
48.2933
48.3209
48.3469
48.3712
48.3935
48.4138
48.4318
48.4473
48.4602
48.4701
48.4769
48.4804
44.8255
44.8786
44.9138
44.949
44.9842
45.0195
45.0549
45.0903
45.1257
45.1611
45.1965
45.2318
45.2671
45.3022
45.3372
45.3721
45.4067
45.4411
45.4751
45.5088
45.5421
45.5749
45.6071
45.6387
45.6695
45.6994
45.7285
45.7564
45.7832
45.8086
45.8326
45.855
45.8756
45.8942
45.9108
45.925
45.9368
45.9459
45.9521
45.9553
42.3753
42.4254
42.4592
42.4929
42.5267
42.5605
42.5943
42.628
42.6618
42.6954
42.729
42.7625
42.7959
42.8291
42.8622
42.895
42.9276
42.9599
42.9918
43.0234
43.0545
43.0851
43.1151
43.1445
43.1732
43.201
43.2279
43.2538
43.2786
43.3021
43.3242
43.3448
43.3638
43.3809
43.3961
43.4092
43.42
43.4284
43.4341
43.437
39.9296
39.9766
40.0089
40.0412
40.0735
40.1057
40.1378
40.1699
40.2019
40.2339
40.2656
40.2973
40.3288
40.3601
40.3911
40.422
40.4525
40.4828
40.5127
40.5422
40.5712
40.5997
40.6276
40.6549
40.6815
40.7073
40.7323
40.7562
40.7791
40.8008
40.8212
40.8402
40.8576
40.8734
40.8874
40.8994
40.9093
40.917
40.9222
40.9249
37.4885
37.5324
37.5633
37.594
37.6247
37.6553
37.6857
37.7161
37.7463
37.7764
37.8064
37.8361
37.8657
37.8951
37.9242
37.953
37.9816
38.0098
38.0376
38.0651
38.0921
38.1185
38.1445
38.1698
38.1944
38.2183
38.2413
38.2634
38.2845
38.3045
38.3233
38.3407
38.3568
38.3713
38.3841
38.3951
38.4042
38.4112
38.4161
38.4185
35.0524
35.0931
35.1224
35.1515
35.1805
35.2093
35.238
35.2666
35.295
35.3232
35.3512
35.3791
35.4067
35.434
35.4611
35.488
35.5145
35.5407
35.5665
35.592
35.617
35.6415
35.6654
35.6888
35.7115
35.7335
35.7547
35.775
35.7944
35.8128
35.8301
35.8461
35.8608
35.8741
35.8858
35.8959
35.9042
35.9107
35.9151
35.9173
32.6213
32.6588
32.6864
32.7137
32.7409
32.7679
32.7948
32.8214
32.8479
32.8741
32.9002
32.926
32.9516
32.9769
33.002
33.0268
33.0513
33.0754
33.0992
33.1227
33.1457
33.1682
33.1902
33.2117
33.2325
33.2527
33.2722
33.2908
33.3086
33.3254
33.3412
33.3558
33.3693
33.3814
33.3922
33.4014
33.409
33.4148
33.4188
33.4209
30.1955
30.2297
30.2554
30.2809
30.3062
30.3312
30.356
30.3806
30.405
30.4292
30.4531
30.4768
30.5003
30.5235
30.5465
30.5692
30.5916
30.6137
30.6355
30.6569
30.6779
30.6985
30.7186
30.7382
30.7573
30.7757
30.7934
30.8104
30.8266
30.8419
30.8563
30.8696
30.8819
30.8929
30.9027
30.9111
30.918
30.9233
30.927
30.9288
27.7753
27.8061
27.8297
27.8531
27.8762
27.8991
27.9217
27.9441
27.9662
27.9881
28.0098
28.0313
28.0526
28.0736
28.0944
28.115
28.1353
28.1553
28.175
28.1944
28.2135
28.2321
28.2504
28.2681
28.2854
28.302
28.3181
28.3335
28.3482
28.3621
28.3751
28.3872
28.3982
28.4082
28.4171
28.4246
28.4309
28.4357
28.439
28.4407
25.361
25.3881
25.4095
25.4305
25.4512
25.4716
25.4917
25.5116
25.5313
25.5508
25.5701
25.5892
25.6081
25.6269
25.6454
25.6638
25.6819
25.6999
25.7175
25.7349
25.752
25.7687
25.7851
25.801
25.8165
25.8315
25.846
25.8598
25.873
25.8855
25.8972
25.908
25.918
25.927
25.9349
25.9417
25.9473
25.9517
25.9546
25.9562
22.9532
22.9762
22.9948
23.013
23.0308
23.0484
23.0657
23.0828
23.0998
23.1166
23.1333
23.15
23.1665
23.1829
23.1991
23.2153
23.2312
23.247
23.2626
23.278
23.2931
23.308
23.3225
23.3367
23.3504
23.3638
23.3766
23.389
23.4007
23.4118
23.4222
23.4319
23.4408
23.4488
23.4559
23.462
23.467
23.4708
23.4735
23.4748
20.5531
20.5712
20.5861
20.6006
20.6148
20.6289
20.6429
20.657
20.671
20.685
20.699
20.713
20.727
20.741
20.755
20.7689
20.7827
20.7964
20.8099
20.8233
20.8365
20.8495
20.8623
20.8747
20.8868
20.8985
20.9098
20.9207
20.931
20.9408
20.95
20.9585
20.9663
20.9734
20.9796
20.985
20.9894
20.9928
20.9952
20.9964
18.1633
18.1735
18.1825
18.1918
18.2016
18.2117
18.2221
18.2328
18.2437
18.2548
18.2661
18.2776
18.2891
18.3007
18.3124
18.3241
18.3358
18.3474
18.359
18.3705
18.3818
18.393
18.404
18.4147
18.4252
18.4353
18.4451
18.4546
18.4635
18.472
18.48
18.4875
18.4943
18.5004
18.5059
18.5105
18.5144
18.5173
18.5194
18.5204
15.772
15.7736
15.7769
15.7815
15.7871
15.7935
15.8006
15.8083
15.8164
15.8248
15.8336
15.8426
15.8519
15.8613
15.8708
15.8804
15.8901
15.8998
15.9094
15.9191
15.9286
15.9381
15.9473
15.9564
15.9653
15.974
15.9823
15.9903
15.998
16.0053
16.0121
16.0185
16.0243
16.0296
16.0342
16.0382
16.0415
16.044
16.0458
16.0467
13.3596
13.3601
13.3617
13.3642
13.3675
13.3717
13.3764
13.3818
13.3876
13.3939
13.4005
13.4074
13.4146
13.422
13.4296
13.4373
13.4451
13.4529
13.4608
13.4687
13.4766
13.4843
13.492
13.4995
13.5069
13.5141
13.5211
13.5277
13.5341
13.5402
13.5459
13.5512
13.5561
13.5605
13.5644
13.5677
13.5705
13.5726
13.5741
13.5748
10.9382
10.9385
10.9394
10.9409
10.943
10.9458
10.949
10.9527
10.9569
10.9614
10.9663
10.9714
10.9769
10.9825
10.9884
10.9944
11.0005
11.0066
11.0129
11.0191
11.0254
11.0316
11.0377
11.0438
11.0497
11.0555
11.0611
11.0665
11.0716
11.0765
11.0811
11.0854
11.0894
11.0929
11.0961
11.0988
11.101
11.1028
11.1039
11.1046
8.51164
8.51179
8.51236
8.51334
8.51474
8.51654
8.51872
8.52127
8.52416
8.52735
8.53083
8.53456
8.53852
8.54266
8.54697
8.55142
8.55597
8.56061
8.56531
8.57004
8.57477
8.57949
8.58417
8.58879
8.59333
8.59776
8.60205
8.6062
8.61017
8.61395
8.6175
8.62081
8.62385
8.6266
8.62903
8.63112
8.63285
8.63418
8.63509
8.63556
6.08178
6.08187
6.08222
6.08284
6.08372
6.08488
6.08629
6.08795
6.08985
6.09197
6.0943
6.09681
6.09949
6.10231
6.10527
6.10833
6.11148
6.1147
6.11797
6.12127
6.12459
6.1279
6.13119
6.13444
6.13764
6.14077
6.1438
6.14674
6.14955
6.15222
6.15474
6.15709
6.15924
6.1612
6.16292
6.16441
6.16563
6.16658
6.16722
6.16756
3.64983
3.64988
3.65008
3.65042
3.65092
3.65156
3.65236
3.6533
3.65438
3.65559
3.65692
3.65837
3.65992
3.66157
3.66329
3.66508
3.66693
3.66882
3.67075
3.6727
3.67466
3.67662
3.67857
3.68051
3.68241
3.68427
3.68608
3.68783
3.6895
3.6911
3.6926
3.694
3.69529
3.69645
3.69748
3.69837
3.6991
3.69967
3.70006
3.70026
1.21674
1.21675
1.21681
1.21692
1.21708
1.21729
1.21755
1.21785
1.2182
1.2186
1.21903
1.21951
1.22001
1.22055
1.22112
1.22171
1.22232
1.22294
1.22358
1.22422
1.22487
1.22552
1.22617
1.22681
1.22744
1.22806
1.22866
1.22924
1.2298
1.23033
1.23083
1.23129
1.23172
1.23211
1.23245
1.23275
1.23299
1.23318
1.23331
1.23337
)
;

boundaryField
{
    top
    {
        type            fixedValue;
        value           uniform 0;
    }
    inlet
    {
        type            darcyGradPressure;
        gradient        nonuniform List<scalar> 
80
(
9.81
9.81
9.81
9.81
9.81
9.81
9.81
37.8779
9117.57
9616.42
9715.98
9754.78
9774.02
9784.9
9791.61
9796
9799.03
9801.19
9802.78
9803.98
9804.91
9805.64
9806.22
9806.69
9807.09
9807.39
9807.63
9807.82
9807.98
9808.11
9808.23
9808.33
9808.41
9808.49
9808.56
9808.62
9808.67
9808.73
9808.79
9808.86
9809.66
9809.64
9809.62
9809.6
9809.58
9809.56
9809.54
9809.52
9809.49
9809.46
9809.43
9809.39
9809.34
9809.29
9809.23
9809.15
9809.05
9808.92
9808.76
9808.57
9808.33
9808.03
9807.64
9807.13
9806.46
9805.54
9804.24
9802.35
9799.47
9794.83
9786.75
9771.11
9735.13
9617.76
8203.77
10.8329
9.81
9.81
9.81
9.81
)
;
        value           nonuniform List<scalar> 
80
(
102.087
102.146
102.268
102.468
102.778
103.255
104.02
116.71
1445.37
1678.95
1850.43
2005.85
2152.25
2292.16
2426.86
2557.12
2683.47
2806.28
2925.85
3042.38
3156.09
3267.12
3375.6
3481.66
3585.38
3676.76
3752.79
3818.64
3877.87
3932.67
3984.31
4033.5
4080.6
4125.71
4168.68
4209.11
4246.24
4278.8
4304.74
4320.84
4322.95
4310.64
4288.48
4259.82
4226.8
4190.76
4152.52
4112.58
4071.19
4028.44
3984.26
3938.4
3890.33
3839.07
3782.81
3718.27
3639.74
3540.29
3438.37
3334.51
3228.64
3120.73
3010.7
2898.48
2783.99
2667.15
2547.84
2425.92
2301.21
2173.41
2042.11
1906.44
1764.31
1607.23
1281.58
107.06
104.903
104.217
103.842
103.674
)
;
    }
    axis
    {
        type            darcyGradPressure;
        gradient        uniform -0;
        value           nonuniform List<scalar> 
80
(
100.861
98.2851
95.6232
92.9171
90.1978
87.4832
84.7822
82.0985
79.4328
76.7847
74.1529
71.5361
68.9331
66.3426
63.7635
61.1948
58.6357
56.0854
53.5431
51.0083
48.4805
45.959
43.4434
40.9334
38.4284
35.9282
33.4323
30.9404
28.4522
25.9672
23.4853
21.0061
18.5293
16.0546
13.5816
11.1102
8.64
6.17075
3.70218
1.23402
102.447
99.6403
96.6931
93.7377
90.8244
87.9646
85.1552
82.3898
79.6616
76.9648
74.2947
71.6474
69.0197
66.4092
63.8139
61.2319
58.662
56.1028
53.5534
51.0129
48.4804
45.9553
43.437
40.9249
38.4185
35.9173
33.4209
30.9288
28.4407
25.9562
23.4748
20.9964
18.5204
16.0467
13.5748
11.1046
8.63556
6.16756
3.70026
1.23337
)
;
    }
    frontAndBack
    {
        type            empty;
    }
}


// ************************************************************************* //
