/*--------------------------------*- C++ -*----------------------------------*\
  =========                 |
  \\      /  F ield         | OpenFOAM: The Open Source CFD Toolbox
   \\    /   O peration     | Website:  https://openfoam.org
    \\  /    A nd           | Version:  10
     \\/     M anipulation  |
\*---------------------------------------------------------------------------*/
FoamFile
{
    format      ascii;
    class       volSymmTensorField;
    location    "0.04";
    object      UPrime2Mean;
}
// * * * * * * * * * * * * * * * * * * * * * * * * * * * * * * * * * * * * * //

dimensions      [0 2 -2 0 0 0 0];

internalField   nonuniform List<symmTensor> 
12225
(
(0.0453286 0.00102588 0 0.00212935 0 0)
(0.0157327 -8.32404e-05 0 0.00102467 0 0)
(0.0201285 -0.000611755 0 0.000729342 0 0)
(0.0228642 -0.000862514 0 0.00059475 0 0)
(0.0317231 -0.00130626 0 0.000526146 0 0)
(0.0499939 -0.00201727 0 0.000495648 0 0)
(0.0790686 -0.00310459 0 0.000490454 0 0)
(0.119683 -0.00414928 0 0.000447863 0 0)
(0.176219 -0.0064319 0 0.000543301 0 0)
(0.250249 -0.00698029 0 0.000461127 0 0)
(0.356188 -0.0134406 0 0.000788462 0 0)
(0.489226 -0.0105171 0 0.00056672 0 0)
(0.696998 -0.0323555 0 0.00188549 0 0)
(0.950761 -0.0129534 0 0.00128637 0 0)
(1.39858 -0.0940418 0 0.00802667 0 0)
(1.98496 -0.00172874 0 0.00694795 0 0)
(3.12934 -0.37095 0 0.0634258 0 0)
(5.194 -0.0347408 0 0.0303843 0 0)
(0.0421999 0.000852066 0 0.00257026 0 0)
(0.0138202 0.000470007 0 0.00127832 0 0)
(0.0139828 0.000152391 0 0.000859418 0 0)
(0.0125463 0.000139947 0 0.000743862 0 0)
(0.0124754 2.47522e-05 0 0.000730645 0 0)
(0.0140283 -0.000466407 0 0.000798704 0 0)
(0.0172241 -0.00121069 0 0.000876277 0 0)
(0.0234491 -0.00259698 0 0.00110461 0 0)
(0.0329892 -0.00407571 0 0.00122748 0 0)
(0.0503651 -0.00734404 0 0.00184601 0 0)
(0.0735121 -0.00995777 0 0.00201189 0 0)
(0.117881 -0.0185974 0 0.00369759 0 0)
(0.170536 -0.0234701 0 0.00403768 0 0)
(0.284667 -0.0487711 0 0.00935299 0 0)
(0.404882 -0.0600567 0 0.01072 0 0)
(0.726654 -0.146079 0 0.0317674 0 0)
(1.03241 -0.212034 0 0.046067 0 0)
(1.9557 -0.609074 0 0.213825 0 0)
(0.0509792 0.00159396 0 0.00323433 0 0)
(0.017697 0.000865837 0 0.00167895 0 0)
(0.0160884 0.000145482 0 0.00116044 0 0)
(0.0138905 -0.000208293 0 0.00102903 0 0)
(0.0135301 -0.000521335 0 0.00105134 0 0)
(0.014674 -0.00100073 0 0.00114448 0 0)
(0.0173004 -0.00190241 0 0.00136379 0 0)
(0.0217238 -0.00317198 0 0.0015996 0 0)
(0.0288159 -0.0053388 0 0.00221798 0 0)
(0.0393414 -0.00781374 0 0.00271133 0 0)
(0.0556868 -0.013006 0 0.00435225 0 0)
(0.0792627 -0.0181412 0 0.00543346 0 0)
(0.116124 -0.0317222 0 0.0101751 0 0)
(0.169404 -0.0436662 0 0.0131211 0 0)
(0.254653 -0.0828561 0 0.0294272 0 0)
(0.380606 -0.123226 0 0.0436118 0 0)
(0.570244 -0.251678 0 0.119481 0 0)
(0.820816 -0.462897 0 0.281768 0 0)
(0.048372 0.000329436 0 0.00322101 0 0)
(0.0171091 -0.000125893 0 0.0018854 0 0)
(0.0166599 -0.000530006 0 0.00138894 0 0)
(0.0146652 -0.000701028 0 0.00127102 0 0)
(0.0140077 -0.00101841 0 0.00134104 0 0)
(0.0147741 -0.00171352 0 0.0015586 0 0)
(0.0170378 -0.00279872 0 0.00188798 0 0)
(0.0211438 -0.00445237 0 0.00245904 0 0)
(0.0275553 -0.00669901 0 0.00318434 0 0)
(0.0374978 -0.0103179 0 0.00449266 0 0)
(0.052043 -0.0152923 0 0.00618597 0 0)
(0.0741129 -0.0237439 0 0.00942375 0 0)
(0.1058 -0.0356924 0 0.0140593 0 0)
(0.153257 -0.0567137 0 0.0233599 0 0)
(0.221288 -0.0894043 0 0.0393923 0 0)
(0.317546 -0.147312 0 0.0735063 0 0)
(0.444774 -0.250845 0 0.151343 0 0)
(0.576336 -0.403074 0 0.305145 0 0)
(0.0475148 0.00135131 0 0.00421404 0 0)
(0.01568 0.000285857 0 0.00241611 0 0)
(0.0151321 -0.000315509 0 0.00172561 0 0)
(0.0129951 -0.000570514 0 0.00159928 0 0)
(0.0123714 -0.000955211 0 0.00174662 0 0)
(0.0132634 -0.00178517 0 0.00209007 0 0)
(0.0156127 -0.0031991 0 0.00265658 0 0)
(0.0197511 -0.00523969 0 0.0034455 0 0)
(0.0263469 -0.00824464 0 0.00472107 0 0)
(0.0363245 -0.0124643 0 0.00648669 0 0)
(0.0509917 -0.0189985 0 0.00941547 0 0)
(0.0720351 -0.0284194 0 0.0137008 0 0)
(0.102003 -0.0434079 0 0.0212116 0 0)
(0.143728 -0.0659792 0 0.0335006 0 0)
(0.201656 -0.10236 0 0.0562228 0 0)
(0.276071 -0.160734 0 0.0999526 0 0)
(0.366186 -0.249117 0 0.181012 0 0)
(0.445065 -0.376089 0 0.350576 0 0)
(0.0467867 -0.000641688 0 0.00487136 0 0)
(0.0160894 -0.000513656 0 0.00292909 0 0)
(0.0157943 -0.00141309 0 0.0020801 0 0)
(0.013484 -0.00163028 0 0.0019593 0 0)
(0.0127172 -0.00190523 0 0.00214841 0 0)
(0.0135973 -0.00274441 0 0.00261426 0 0)
(0.0158701 -0.00428048 0 0.00338439 0 0)
(0.0196775 -0.00658244 0 0.0045486 0 0)
(0.0255787 -0.00988688 0 0.00626722 0 0)
(0.0343778 -0.0146488 0 0.00882062 0 0)
(0.0472825 -0.0216944 0 0.0127118 0 0)
(0.0656272 -0.0321618 0 0.0187629 0 0)
(0.0915664 -0.048118 0 0.0286188 0 0)
(0.126553 -0.072071 0 0.0449373 0 0)
(0.173184 -0.108843 0 0.0733294 0 0)
(0.228801 -0.162893 0 0.123184 0 0)
(0.290208 -0.239777 0 0.211553 0 0)
(0.33841 -0.335459 0 0.364744 0 0)
(0.0465073 0.00113183 0 0.00465331 0 0)
(0.0169261 0.000331888 0 0.00342679 0 0)
(0.0174897 -0.000161766 0 0.00267032 0 0)
(0.0157251 -0.000544341 0 0.00258047 0 0)
(0.0154615 -0.0012477 0 0.00289862 0 0)
(0.0168818 -0.00251799 0 0.00357264 0 0)
(0.0197415 -0.00449998 0 0.00465651 0 0)
(0.0240366 -0.00734547 0 0.00626061 0 0)
(0.0301775 -0.0113414 0 0.00860697 0 0)
(0.0388279 -0.016968 0 0.0120761 0 0)
(0.0510344 -0.0250457 0 0.017278 0 0)
(0.0678315 -0.0367717 0 0.0253299 0 0)
(0.09076 -0.0538721 0 0.0379118 0 0)
(0.120341 -0.0787491 0 0.0583691 0 0)
(0.15752 -0.114357 0 0.0914529 0 0)
(0.198672 -0.163716 0 0.146826 0 0)
(0.240409 -0.227557 0 0.235108 0 0)
(0.269434 -0.299404 0 0.37373 0 0)
(0.0449912 0.00120039 0 0.00573986 0 0)
(0.0122017 0.000492069 0 0.00375488 0 0)
(0.0130083 -0.000363588 0 0.00292982 0 0)
(0.0121783 -0.000885777 0 0.0030188 0 0)
(0.0123803 -0.00157982 0 0.00352573 0 0)
(0.0138029 -0.00285223 0 0.0044387 0 0)
(0.0163537 -0.00488616 0 0.00584956 0 0)
(0.0200646 -0.00779059 0 0.00790857 0 0)
(0.0253001 -0.0118318 0 0.0108935 0 0)
(0.0326362 -0.0175179 0 0.0152741 0 0)
(0.0428644 -0.0256739 0 0.0217859 0 0)
(0.0566761 -0.0373842 0 0.0316954 0 0)
(0.074929 -0.0541102 0 0.0468808 0 0)
(0.0976077 -0.0775745 0 0.0706838 0 0)
(0.124627 -0.109603 0 0.107565 0 0)
(0.152859 -0.151238 0 0.165353 0 0)
(0.179319 -0.201195 0 0.25125 0 0)
(0.196116 -0.253176 0 0.376464 0 0)
(0.0525974 0.000847883 0 0.00548019 0 0)
(0.0203671 -0.000368672 0 0.00390661 0 0)
(0.0203903 -0.00141953 0 0.00327919 0 0)
(0.0180562 -0.00187468 0 0.00344123 0 0)
(0.0168556 -0.00249577 0 0.00410056 0 0)
(0.017281 -0.0038128 0 0.00524524 0 0)
(0.0192267 -0.0060295 0 0.00701295 0 0)
(0.0225754 -0.00926267 0 0.00962526 0 0)
(0.0275037 -0.0137796 0 0.0134136 0 0)
(0.0343872 -0.0200518 0 0.0189318 0 0)
(0.0437303 -0.0287755 0 0.0269889 0 0)
(0.0558134 -0.0408481 0 0.0389539 0 0)
(0.0709167 -0.0573513 0 0.0567088 0 0)
(0.0884358 -0.0793556 0 0.0834234 0 0)
(0.107718 -0.107688 0 0.122915 0 0)
(0.12603 -0.141996 0 0.181286 0 0)
(0.141473 -0.180273 0 0.263144 0 0)
(0.149342 -0.216707 0 0.375072 0 0)
(0.0483918 0.00196133 0 0.00604183 0 0)
(0.0157809 -0.000608152 0 0.00443151 0 0)
(0.0153103 -0.00160742 0 0.00398187 0 0)
(0.0135404 -0.00178974 0 0.00441893 0 0)
(0.0132042 -0.00231525 0 0.00532268 0 0)
(0.0143284 -0.00375037 0 0.00675307 0 0)
(0.0166671 -0.00616252 0 0.00892704 0 0)
(0.0199822 -0.00954504 0 0.0121251 0 0)
(0.0243157 -0.0140961 0 0.016713 0 0)
(0.0299556 -0.0202428 0 0.0232781 0 0)
(0.03733 -0.0286087 0 0.0326626 0 0)
(0.0466436 -0.0399081 0 0.0462521 0 0)
(0.0579304 -0.0548806 0 0.065847 0 0)
(0.0704341 -0.0740162 0 0.0942905 0 0)
(0.0833066 -0.0974502 0 0.134638 0 0)
(0.0943659 -0.124062 0 0.191513 0 0)
(0.10248 -0.151695 0 0.267436 0 0)
(0.105093 -0.175396 0 0.366573 0 0)
(0.0420501 0.00156742 0 0.00627402 0 0)
(0.0130724 -0.000962814 0 0.00513136 0 0)
(0.0132376 -0.00242544 0 0.00432679 0 0)
(0.0114601 -0.00281394 0 0.00458098 0 0)
(0.0109106 -0.00338746 0 0.00565699 0 0)
(0.0116027 -0.00480912 0 0.00751699 0 0)
(0.0133163 -0.00718729 0 0.0102449 0 0)
(0.0158219 -0.0105102 0 0.0140924 0 0)
(0.0190893 -0.0149466 0 0.0194946 0 0)
(0.0232886 -0.0208652 0 0.0271414 0 0)
(0.0287321 -0.0287707 0 0.0379318 0 0)
(0.0355183 -0.0391562 0 0.0531972 0 0)
(0.043572 -0.0524531 0 0.0745309 0 0)
(0.0521381 -0.0687363 0 0.104325 0 0)
(0.0604523 -0.0876993 0 0.144832 0 0)
(0.066925 -0.107953 0 0.199399 0 0)
(0.0709041 -0.127518 0 0.269097 0 0)
(0.0711672 -0.1425 0 0.356614 0 0)
(0.0487995 0.00232081 0 0.00634928 0 0)
(0.0157943 -0.000893744 0 0.0056579 0 0)
(0.0150544 -0.0020021 0 0.00493396 0 0)
(0.0130087 -0.00192231 0 0.00525093 0 0)
(0.0120399 -0.00225528 0 0.00649493 0 0)
(0.0122719 -0.00353378 0 0.00864106 0 0)
(0.0133915 -0.00564023 0 0.0117609 0 0)
(0.0150124 -0.00845496 0 0.01612 0 0)
(0.0170576 -0.0121341 0 0.0221755 0 0)
(0.0196592 -0.0170279 0 0.0306306 0 0)
(0.0229918 -0.0235412 0 0.0423651 0 0)
(0.0270661 -0.0319645 0 0.0586186 0 0)
(0.0317301 -0.0424223 0 0.0807731 0 0)
(0.0364489 -0.0546968 0 0.110804 0 0)
(0.0407006 -0.068216 0 0.150321 0 0)
(0.0436349 -0.0816675 0 0.201732 0 0)
(0.0449519 -0.0932945 0 0.26524 0 0)
(0.0443478 -0.100386 0 0.342688 0 0)
(0.0438229 0.00153106 0 0.00774259 0 0)
(0.0149793 -0.00144046 0 0.00658565 0 0)
(0.0149714 -0.00275311 0 0.00531437 0 0)
(0.0132884 -0.00273692 0 0.00582594 0 0)
(0.0126278 -0.00294417 0 0.00747387 0 0)
(0.0126682 -0.00400244 0 0.00995828 0 0)
(0.0131305 -0.00583778 0 0.0134061 0 0)
(0.0138972 -0.00832131 0 0.0182265 0 0)
(0.0150261 -0.0115517 0 0.0249529 0 0)
(0.0166099 -0.0157676 0 0.0342711 0 0)
(0.0186992 -0.0212222 0 0.0469729 0 0)
(0.0212033 -0.0280248 0 0.0641345 0 0)
(0.0239506 -0.0361404 0 0.0868877 0 0)
(0.0265342 -0.0451743 0 0.116816 0 0)
(0.0286006 -0.0544849 0 0.155012 0 0)
(0.0296389 -0.0627901 0 0.203219 0 0)
(0.0297111 -0.0687386 0 0.261062 0 0)
(0.0287638 -0.0700237 0 0.329935 0 0)
(0.045947 0.00147224 0 0.0090264 0 0)
(0.0157148 -0.000399176 0 0.0078109 0 0)
(0.0155095 -0.0011657 0 0.0070129 0 0)
(0.0138906 -0.000778875 0 0.00766828 0 0)
(0.0129587 -0.000669828 0 0.00934842 0 0)
(0.0125371 -0.0013993 0 0.0120711 0 0)
(0.0125074 -0.00298581 0 0.0159351 0 0)
(0.0128626 -0.00523265 0 0.0212176 0 0)
(0.0136667 -0.00804166 0 0.0283905 0 0)
(0.0148817 -0.0114507 0 0.0381184 0 0)
(0.0163622 -0.0155723 0 0.0511577 0 0)
(0.0178901 -0.0203718 0 0.0684752 0 0)
(0.0192884 -0.0256946 0 0.0909634 0 0)
(0.0202813 -0.030999 0 0.119825 0 0)
(0.0207805 -0.0356589 0 0.155603 0 0)
(0.0206404 -0.0384857 0 0.199494 0 0)
(0.0202223 -0.0386093 0 0.250624 0 0)
(0.0198275 -0.0341573 0 0.310159 0 0)
(0.0451412 0.00334479 0 0.00917885 0 0)
(0.0134604 -0.000251995 0 0.00822133 0 0)
(0.0131991 -0.00207801 0 0.00723135 0 0)
(0.0120516 -0.00203078 0 0.00818055 0 0)
(0.0117515 -0.00204201 0 0.0103924 0 0)
(0.0116873 -0.00282738 0 0.0136433 0 0)
(0.0116882 -0.00438017 0 0.018022 0 0)
(0.011777 -0.00642396 0 0.0238514 0 0)
(0.012031 -0.00881141 0 0.0316032 0 0)
(0.012457 -0.0115195 0 0.041862 0 0)
(0.0130076 -0.0145533 0 0.0552143 0 0)
(0.0135301 -0.0177345 0 0.0724001 0 0)
(0.0139184 -0.0207995 0 0.0940132 0 0)
(0.0140207 -0.0231531 0 0.120907 0 0)
(0.0138545 -0.0243018 0 0.153234 0 0)
(0.013583 -0.0232242 0 0.191792 0 0)
(0.0135456 -0.0195315 0 0.235487 0 0)
(0.0143554 -0.0116885 0 0.285323 0 0)
(0.0474058 0.0022525 0 0.0105681 0 0)
(0.0148325 -0.000699178 0 0.0106915 0 0)
(0.0136616 -0.00228618 0 0.00991259 0 0)
(0.011492 -0.00213343 0 0.010593 0 0)
(0.0104262 -0.00196284 0 0.0126415 0 0)
(0.00984426 -0.00240845 0 0.0158649 0 0)
(0.00953285 -0.00336995 0 0.0202682 0 0)
(0.00943332 -0.00456548 0 0.0260501 0 0)
(0.00946428 -0.005828 0 0.0335935 0 0)
(0.00951153 -0.00707263 0 0.0434454 0 0)
(0.0094965 -0.00821906 0 0.0561153 0 0)
(0.00936128 -0.00902031 0 0.0721523 0 0)
(0.00912318 -0.00918844 0 0.091889 0 0)
(0.00885322 -0.0081911 0 0.115833 0 0)
(0.00870047 -0.00567788 0 0.143847 0 0)
(0.00896927 -0.000911408 0 0.176457 0 0)
(0.00997332 0.00623897 0 0.212538 0 0)
(0.0123034 0.0168284 0 0.252942 0 0)
(0.0462118 0.00271991 0 0.0115209 0 0)
(0.0165072 -0.000620717 0 0.0108329 0 0)
(0.0152647 -0.00226711 0 0.0089514 0 0)
(0.0128674 -0.00219013 0 0.00964837 0 0)
(0.0119065 -0.00194535 0 0.0121524 0 0)
(0.0114344 -0.00215004 0 0.0158623 0 0)
(0.0110049 -0.00270681 0 0.0206124 0 0)
(0.0105986 -0.00327029 0 0.0266023 0 0)
(0.0102971 -0.00359746 0 0.0341889 0 0)
(0.0100936 -0.00356904 0 0.0437722 0 0)
(0.0099401 -0.00310763 0 0.0556406 0 0)
(0.00985648 -0.00200515 0 0.0700976 0 0)
(0.00992378 -2.16161e-05 0 0.0872378 0 0)
(0.0103068 0.00327707 0 0.107357 0 0)
(0.0111358 0.00810872 0 0.13019 0 0)
(0.0127489 0.0150143 0 0.156138 0 0)
(0.0152985 0.0239218 0 0.18419 0 0)
(0.0193401 0.0356236 0 0.215212 0 0)
(0.0454537 0.00310664 0 0.0129028 0 0)
(0.0148219 -0.00143487 0 0.0128592 0 0)
(0.0145173 -0.0041063 0 0.0109248 0 0)
(0.0128296 -0.00406135 0 0.0113046 0 0)
(0.0118529 -0.00341185 0 0.0133476 0 0)
(0.0109008 -0.00290764 0 0.0163782 0 0)
(0.0100297 -0.00257591 0 0.0202366 0 0)
(0.00948486 -0.00220224 0 0.0251822 0 0)
(0.00931102 -0.00154454 0 0.031561 0 0)
(0.00939123 -0.000394164 0 0.0396477 0 0)
(0.00963392 0.00143321 0 0.0495543 0 0)
(0.0101038 0.00416841 0 0.0613761 0 0)
(0.0109509 0.00801644 0 0.0750574 0 0)
(0.0124324 0.0132452 0 0.0907234 0 0)
(0.0146945 0.0199512 0 0.108086 0 0)
(0.0180791 0.0283947 0 0.12743 0 0)
(0.0226448 0.0384618 0 0.147974 0 0)
(0.028857 0.0505452 0 0.170335 0 0)
(0.0464447 0.00245856 0 0.011416 0 0)
(0.0171181 0.000233615 0 0.0117158 0 0)
(0.0171785 -0.00110173 0 0.0102105 0 0)
(0.0142287 -0.00076137 0 0.0103732 0 0)
(0.0125235 0.000199049 0 0.0118379 0 0)
(0.0116299 0.00121184 0 0.0142701 0 0)
(0.0112962 0.0022747 0 0.017645 0 0)
(0.0114743 0.00368738 0 0.0220049 0 0)
(0.0120981 0.00570123 0 0.0273722 0 0)
(0.0130371 0.00842821 0 0.0337911 0 0)
(0.0142198 0.0118971 0 0.0412812 0 0)
(0.0157903 0.0161929 0 0.0499028 0 0)
(0.0179787 0.0214017 0 0.0596155 0 0)
(0.0210892 0.0277034 0 0.0705052 0 0)
(0.0252687 0.03513 0 0.0823564 0 0)
(0.0308128 0.0438739 0 0.095378 0 0)
(0.0377042 0.0537768 0 0.109007 0 0)
(0.0463164 0.065147 0 0.123715 0 0)
(0.0469753 0.00263561 0 0.0115326 0 0)
(0.0154968 -0.00109982 0 0.0121863 0 0)
(0.0130876 -0.00230652 0 0.00977977 0 0)
(0.0105968 -0.00116323 0 0.00886421 0 0)
(0.0096995 0.000286763 0 0.00945364 0 0)
(0.00920602 0.00140861 0 0.0111436 0 0)
(0.00887961 0.00240071 0 0.0136641 0 0)
(0.00894836 0.00375045 0 0.0168464 0 0)
(0.00961061 0.00579093 0 0.0206368 0 0)
(0.0109263 0.00860451 0 0.0250939 0 0)
(0.0129102 0.0121581 0 0.0302696 0 0)
(0.0156487 0.0164554 0 0.0361975 0 0)
(0.0192763 0.0215228 0 0.0428019 0 0)
(0.0239566 0.0274513 0 0.0500649 0 0)
(0.0297761 0.0342423 0 0.0577976 0 0)
(0.0368925 0.0420019 0 0.0661308 0 0)
(0.0452948 0.0506062 0 0.0747318 0 0)
(0.0551651 0.0602426 0 0.0839041 0 0)
(0.0444721 0.00290772 0 0.0106394 0 0)
(0.0145079 0.00124591 0 0.00983748 0 0)
(0.0127835 0.000614169 0 0.00776982 0 0)
(0.0101382 0.00157876 0 0.0072743 0 0)
(0.00941087 0.00273347 0 0.00782792 0 0)
(0.00962643 0.00383267 0 0.00910429 0 0)
(0.0103565 0.00508312 0 0.0109262 0 0)
(0.0115894 0.00675899 0 0.0132026 0 0)
(0.0133958 0.00902559 0 0.0158936 0 0)
(0.0158065 0.0119197 0 0.019016 0 0)
(0.018877 0.0154298 0 0.0225854 0 0)
(0.022741 0.0195834 0 0.0266274 0 0)
(0.0275744 0.0244248 0 0.0311132 0 0)
(0.033559 0.0300345 0 0.0360591 0 0)
(0.0407856 0.0363999 0 0.0413469 0 0)
(0.0494176 0.0435818 0 0.0470602 0 0)
(0.0594547 0.0514573 0 0.0529496 0 0)
(0.0710085 0.0601145 0 0.0591866 0 0)
(0.0451438 0.00114872 0 0.0116489 0 0)
(0.0152726 0.000435197 0 0.00993664 0 0)
(0.0143201 0.000448516 0 0.00735854 0 0)
(0.0124211 0.00125114 0 0.00658771 0 0)
(0.0118745 0.00199532 0 0.00674418 0 0)
(0.0120477 0.00272554 0 0.00739597 0 0)
(0.0127502 0.00375485 0 0.00847276 0 0)
(0.0140161 0.00530836 0 0.00992922 0 0)
(0.0159396 0.00745243 0 0.011705 0 0)
(0.0185997 0.0101643 0 0.0137961 0 0)
(0.0220785 0.0134034 0 0.0162116 0 0)
(0.0265274 0.0171592 0 0.0189316 0 0)
(0.0320965 0.0214203 0 0.0218895 0 0)
(0.0389336 0.0262308 0 0.0250801 0 0)
(0.0470953 0.031572 0 0.0284394 0 0)
(0.0567247 0.0375142 0 0.0320697 0 0)
(0.0677848 0.0439686 0 0.0358337 0 0)
(0.0803868 0.0510476 0 0.0398322 0 0)
(0.0516687 0.00106342 0 0.0097057 0 0)
(0.0176615 -0.000214749 0 0.00737962 0 0)
(0.0152204 -0.000736298 0 0.00522006 0 0)
(0.0138491 -0.000191077 0 0.0045757 0 0)
(0.0140167 0.000565522 0 0.00476367 0 0)
(0.014355 0.00135274 0 0.00540333 0 0)
(0.0147389 0.00232719 0 0.00624423 0 0)
(0.0155777 0.00366499 0 0.00721018 0 0)
(0.0172291 0.00542841 0 0.00832349 0 0)
(0.0198062 0.00760993 0 0.00962604 0 0)
(0.0232972 0.0101861 0 0.0111415 0 0)
(0.0277397 0.013156 0 0.0128861 0 0)
(0.0332262 0.0165231 0 0.0148382 0 0)
(0.0399121 0.0203249 0 0.01699 0 0)
(0.0478781 0.024551 0 0.0192662 0 0)
(0.0572784 0.0292375 0 0.0217022 0 0)
(0.0681024 0.034331 0 0.0241841 0 0)
(0.0804105 0.0398982 0 0.0267745 0 0)
(0.052789 0.000205565 0 0.00854264 0 0)
(0.0182029 -0.000321671 0 0.00607874 0 0)
(0.0157601 5.02671e-05 0 0.0041977 0 0)
(0.0144781 0.000970467 0 0.00370966 0 0)
(0.0145573 0.00179272 0 0.00382217 0 0)
(0.0148694 0.00255941 0 0.0041718 0 0)
(0.0155494 0.00348309 0 0.00462285 0 0)
(0.0170372 0.00474698 0 0.00516341 0 0)
(0.0196192 0.00641485 0 0.0058189 0 0)
(0.0233688 0.00846058 0 0.00661718 0 0)
(0.0282447 0.0108236 0 0.00756228 0 0)
(0.0342369 0.0134705 0 0.0086487 0 0)
(0.041365 0.0163913 0 0.0098574 0 0)
(0.0497025 0.0196173 0 0.011181 0 0)
(0.0592447 0.0231488 0 0.0125748 0 0)
(0.0700916 0.0270311 0 0.0140669 0 0)
(0.0822082 0.0312143 0 0.0155926 0 0)
(0.0956134 0.0357594 0 0.0171726 0 0)
(0.0456239 0.00133648 0 0.0074902 0 0)
(0.016317 -0.000371726 0 0.00569259 0 0)
(0.0154319 -0.000993392 0 0.00408018 0 0)
(0.0137972 -0.000667689 0 0.00354214 0 0)
(0.0131747 -0.000123166 0 0.00348045 0 0)
(0.0128748 0.00039957 0 0.00362954 0 0)
(0.0131455 0.000946623 0 0.00389803 0 0)
(0.0143215 0.00167997 0 0.0042375 0 0)
(0.0165256 0.00268298 0 0.00462436 0 0)
(0.0197327 0.00395845 0 0.00506856 0 0)
(0.0238837 0.00548856 0 0.005588 0 0)
(0.0289838 0.00727776 0 0.00619067 0 0)
(0.0350862 0.00933458 0 0.00686909 0 0)
(0.0423153 0.0116843 0 0.00762377 0 0)
(0.0507272 0.0143217 0 0.00842708 0 0)
(0.0604815 0.0172678 0 0.00930952 0 0)
(0.0715494 0.0204699 0 0.0102273 0 0)
(0.0840305 0.0239536 0 0.0111876 0 0)
(0.0458777 -6.22755e-06 0 0.00673463 0 0)
(0.0172285 5.46559e-05 0 0.00507276 0 0)
(0.0163533 0.000105135 0 0.00333186 0 0)
(0.0146276 0.000155204 0 0.00260555 0 0)
(0.0142823 0.000216587 0 0.00238434 0 0)
(0.0145689 0.000375773 0 0.00239071 0 0)
(0.0154275 0.000662583 0 0.0024924 0 0)
(0.0169804 0.00116463 0 0.00263958 0 0)
(0.0193649 0.00196305 0 0.00283061 0 0)
(0.0226774 0.00306278 0 0.0030587 0 0)
(0.026955 0.00442617 0 0.00332103 0 0)
(0.0322612 0.00601312 0 0.00361896 0 0)
(0.0386842 0.00777912 0 0.00395264 0 0)
(0.0463423 0.00970066 0 0.00432655 0 0)
(0.0552757 0.0117522 0 0.00472459 0 0)
(0.0655754 0.0139509 0 0.00516917 0 0)
(0.0772056 0.0162845 0 0.00563927 0 0)
(0.0901406 0.0188037 0 0.00613542 0 0)
(0.0432713 -0.000491122 0 0.00546071 0 0)
(0.0114521 -0.000774728 0 0.00360629 0 0)
(0.0107828 -0.000420861 0 0.00245678 0 0)
(0.0105724 -8.52548e-05 0 0.00201306 0 0)
(0.0114295 0.000108596 0 0.00186497 0 0)
(0.0118953 0.000262871 0 0.00182587 0 0)
(0.0121756 0.000509836 0 0.00181847 0 0)
(0.0129407 0.000922611 0 0.00183047 0 0)
(0.0147075 0.00151874 0 0.00187377 0 0)
(0.0177043 0.002281 0 0.00195427 0 0)
(0.021952 0.00318673 0 0.00206994 0 0)
(0.0274178 0.00422098 0 0.00221752 0 0)
(0.0340906 0.00537015 0 0.00239582 0 0)
(0.0420083 0.00663943 0 0.00260529 0 0)
(0.051155 0.00802763 0 0.00283683 0 0)
(0.0615801 0.00955576 0 0.00310269 0 0)
(0.0732452 0.0112106 0 0.00338514 0 0)
(0.0861072 0.0130191 0 0.0036748 0 0)
(0.0484089 -0.000944749 0 0.00429545 0 0)
(0.0180925 -0.000265135 0 0.00212647 0 0)
(0.016688 -0.000382295 0 0.00140978 0 0)
(0.015345 -0.000386538 0 0.00113489 0 0)
(0.0154102 -0.000286885 0 0.00101374 0 0)
(0.0158936 -0.000128585 0 0.000966326 0 0)
(0.0169522 6.61549e-05 0 0.000945099 0 0)
(0.0187633 0.000288608 0 0.000933777 0 0)
(0.0214028 0.000570152 0 0.000935283 0 0)
(0.0249456 0.000957206 0 0.000950472 0 0)
(0.0294823 0.00148137 0 0.000975781 0 0)
(0.0351102 0.00214628 0 0.00100902 0 0)
(0.0419242 0.00293015 0 0.00105123 0 0)
(0.0500094 0.00381049 0 0.00110613 0 0)
(0.0593781 0.00476679 0 0.00117385 0 0)
(0.070091 0.00579742 0 0.00126201 0 0)
(0.0821429 0.00690043 0 0.0013661 0 0)
(0.0954355 0.00808777 0 0.00148278 0 0)
(0.0425288 -0.000514201 0 0.0036305 0 0)
(0.0126256 5.77244e-05 0 0.00152246 0 0)
(0.012488 0.000173698 0 0.0010371 0 0)
(0.0119809 2.68236e-05 0 0.000885985 0 0)
(0.0120614 -0.000160897 0 0.000820461 0 0)
(0.0120523 -0.000247985 0 0.000774153 0 0)
(0.012554 -0.000201763 0 0.00074353 0 0)
(0.0140758 -4.48551e-05 0 0.000733634 0 0)
(0.0167773 0.000173331 0 0.000737874 0 0)
(0.0206201 0.000417264 0 0.000751725 0 0)
(0.0255108 0.000686795 0 0.000773633 0 0)
(0.0314384 0.000996723 0 0.000801268 0 0)
(0.0384289 0.00135484 0 0.000832717 0 0)
(0.046583 0.00175812 0 0.000867332 0 0)
(0.0558928 0.00220299 0 0.000901469 0 0)
(0.0664894 0.00269825 0 0.000944319 0 0)
(0.0782706 0.00324557 0 0.000994218 0 0)
(0.0913855 0.00386507 0 0.00103815 0 0)
(0.0449708 -0.0004034 0 0.00250805 0 0)
(0.0165212 3.91345e-05 0 0.00134112 0 0)
(0.0169545 0.000200844 0 0.00101349 0 0)
(0.01543 0.000225221 0 0.000875352 0 0)
(0.0151968 0.000343556 0 0.000789451 0 0)
(0.0160827 0.000529859 0 0.00072392 0 0)
(0.0177388 0.000654976 0 0.000664109 0 0)
(0.0197991 0.000660731 0 0.000612511 0 0)
(0.0221919 0.000604482 0 0.000566663 0 0)
(0.0251338 0.000572698 0 0.000521677 0 0)
(0.0289136 0.000612322 0 0.000478124 0 0)
(0.0337325 0.000720835 0 0.000438309 0 0)
(0.0396722 0.00086639 0 0.000403398 0 0)
(0.0467141 0.0010132 0 0.000373005 0 0)
(0.0548097 0.00114725 0 0.000347334 0 0)
(0.0639616 0.00127165 0 0.000329332 0 0)
(0.0742001 0.00139533 0 0.000314857 0 0)
(0.0854998 0.00154485 0 0.000300471 0 0)
(0.0221637 -0.0488599 9.30009e-22 0.109695 -1.87931e-21 2.79803e-37)
(0.15714 -0.101542 -2.20856e-21 0.0684028 1.04009e-21 2.75889e-37)
(0.353341 -0.103449 0 0.0390504 0 0)
(0.540682 -0.0721668 0 0.028176 0 0)
(0.639194 -0.0278198 0 0.0367125 0 0)
(0.692932 -0.0113848 2.21162e-21 0.0614335 1.03131e-21 2.59871e-37)
(0.756261 -0.0411858 0 0.0894352 0 0)
(0.915902 -0.11267 0 0.105119 0 0)
(1.22779 -0.198786 0 0.108928 0 0)
(1.70418 -0.275636 0 0.101265 0 0)
(2.31952 -0.32833 2.65358e-21 0.0863529 -8.07794e-22 2.40703e-37)
(3.02635 -0.350097 0 0.0689647 0 0)
(3.76759 -0.340647 0 0.0526178 0 0)
(4.48477 -0.304863 0 0.039299 0 0)
(5.12916 -0.249516 0 0.0298082 0 0)
(5.6661 -0.181278 3.52404e-21 0.024152 5.73804e-22 2.22486e-37)
(6.07238 -0.105966 0 0.0220194 0 0)
(6.33328 -0.0279138 0 0.0228372 0 0)
(6.44475 0.0488557 0 0.0260959 0 0)
(6.40436 0.121664 0 0.0311647 0 0)
(6.22573 0.18677 0 0.0379157 0 0)
(5.91527 0.241505 0 0.047527 0 0)
(5.51027 0.279486 0 0.0611314 0 0)
(5.01292 0.288696 -8.91694e-21 0.0923349 1.78078e-21 1.95286e-37)
(4.51269 0.256489 1.10305e-20 0.12267 -1.72262e-21 1.92052e-37)
(4.05751 0.124205 -1.29034e-20 0.186586 1.33259e-21 1.88854e-37)
(3.85335 -0.0921598 -1.45674e-20 0.298512 8.33253e-22 1.85692e-37)
(3.85781 -0.373133 0 0.367963 0 0)
(4.21594 -0.596153 0 0.330654 0 0)
(4.75074 -0.67946 1.90732e-20 0.386148 -3.54204e-22 1.76418e-37)
(5.39626 -0.726075 2.07206e-20 0.462241 -9.15446e-22 1.73397e-37)
(6.18454 -0.782261 0 0.453443 0 0)
(7.18412 -0.839445 0 0.416963 0 0)
(8.41868 -0.890484 2.66381e-20 0.383507 -1.46154e-21 1.64556e-37)
(9.85383 -0.93641 0 0.361942 0 0)
(11.4818 -0.971187 0 0.353842 0 0)
(13.3104 -1.02056 -3.17945e-20 0.378449 1.05575e-21 1.56047e-37)
(15.4203 -1.14682 0 0.420504 0 0)
(17.8206 -1.25397 -3.48009e-20 0.405516 9.95479e-22 1.50558e-37)
(20.2318 -1.14758 -7.26306e-20 0.29572 2.20492e-21 5.91472e-37)
(22.1256 -0.927675 0 0.229825 0 0)
(23.4367 -0.688751 0 0.202355 0 0)
(23.9892 -0.540026 0 0.209105 0 0)
(24.4968 -0.543924 0 0.243786 0 0)
(25.1557 -0.544553 0 0.321476 0 0)
(25.4633 -0.831819 -8.90894e-20 0.346251 1.17277e-21 5.29902e-37)
(25.4057 -0.867082 -9.07145e-20 0.361206 7.97726e-22 5.20131e-37)
(25.1461 -0.425218 -9.19908e-20 0.31247 9.89937e-22 5.10498e-37)
(24.5483 0.102426 0 0.179274 0 0)
(23.8032 0.192123 9.45838e-20 0.226192 -1.5409e-21 4.91639e-37)
(23.6096 -0.0207474 0 0.192598 0 0)
(23.8855 -0.179866 -9.60143e-20 0.159034 1.21572e-21 4.73325e-37)
(24.483 -0.293842 -9.65034e-20 0.129047 1.09865e-21 4.64371e-37)
(25.3072 -0.366764 0 0.103905 0 0)
(26.2857 -0.41045 0 0.0844301 0 0)
(27.3578 -0.432386 0 0.0691081 0 0)
(28.4855 -0.440134 -9.80521e-20 0.0573441 7.00449e-22 4.29882e-37)
(29.638 -0.437711 0 0.0480902 0 0)
(30.7941 -0.428424 0 0.0407357 0 0)
(31.9361 -0.413476 0 0.0347069 0 0)
(33.0487 -0.393778 0 0.0296514 0 0)
(34.1162 -0.369302 0 0.0252984 0 0)
(35.1232 -0.34011 0 0.0214959 0 0)
(36.053 -0.306121 0 0.0181482 0 0)
(36.8883 -0.26759 0 0.0152151 0 0)
(37.6125 -0.224909 9.65241e-20 0.0126759 -3.06472e-24 3.59695e-37)
(38.2093 -0.17911 0 0.0105353 0 0)
(38.6658 -0.131083 0 0.00877716 0 0)
(38.9745 -0.0822213 -9.24535e-20 0.00739497 -2.56628e-22 3.38453e-37)
(39.1306 -0.0336599 -9.05358e-20 0.00635358 -3.3871e-22 3.31601e-37)
(39.1304 0.0134898 0 0.00561275 0 0)
(38.9809 0.0583891 8.58808e-20 0.00511919 4.84138e-22 3.18229e-37)
(38.685 0.100376 -8.31861e-20 0.00482749 -5.44709e-22 3.11708e-37)
(38.2515 0.138843 0 0.00469148 0 0)
(37.6906 0.1733 7.72173e-20 0.00467194 6.36543e-22 2.98987e-37)
(37.0151 0.203519 0 0.00472465 0 0)
(36.2375 0.229561 0 0.00481489 0 0)
(35.3705 0.251793 -6.73935e-20 0.0049128 -6.99969e-22 2.80695e-37)
(34.4249 0.270863 0 0.00500232 0 0)
(33.4094 0.287464 6.06814e-20 0.00508647 7.04578e-22 2.6901e-37)
(32.3297 0.302425 0 0.00517346 0 0)
(31.189 0.316437 -5.40674e-20 0.00528542 -6.93679e-22 2.57721e-37)
(29.9883 0.329983 -5.08296e-20 0.00545127 -6.85751e-22 2.52222e-37)
(28.7273 0.343297 -4.76475e-20 0.00569702 -6.77173e-22 2.46818e-37)
(27.4056 0.356326 -8.90536e-20 0.0060395 -1.33624e-21 9.6603e-37)
(26.024 0.368653 8.29466e-20 0.00649441 1.31699e-21 9.4516e-37)
(24.5851 0.379691 0 0.00705282 0 0)
(23.0946 0.38872 0 0.00769672 0 0)
(21.5611 0.395013 0 0.00839648 0 0)
(19.9961 0.397944 6.02258e-20 0.00910961 1.20906e-21 8.65279e-37)
(18.4134 0.397059 5.50882e-20 0.0097956 1.17064e-21 8.46184e-37)
(16.8287 0.392042 -5.02156e-20 0.0104101 -1.12701e-21 8.27429e-37)
(15.2586 0.382768 0 0.0109122 0 0)
(13.7203 0.369334 4.13423e-20 0.0112712 1.02486e-21 7.9092e-37)
(12.2308 0.351951 3.73702e-20 0.0114566 9.67323e-22 7.73155e-37)
(10.8063 0.331025 3.37186e-20 0.0114474 9.06499e-22 7.55711e-37)
(9.46056 0.307118 0 0.0112311 0 0)
(8.20526 0.281 0 0.0108135 0 0)
(7.04991 0.253533 0 0.0102142 0 0)
(6.00052 0.225678 2.22283e-20 0.00947473 6.50874e-22 6.89042e-37)
(5.0605 0.199075 0 0.00872914 0 0)
(4.22932 0.173111 0 0.00786903 0 0)
(3.50166 0.148952 -1.64514e-20 0.00701242 -4.76626e-22 6.42166e-37)
(2.87186 0.126606 0 0.00616388 0 0)
(2.33198 0.106448 0 0.00536516 0 0)
(1.87381 0.088424 -1.24528e-20 0.00462401 -3.25397e-22 5.97837e-37)
(1.4891 0.0726086 0 0.00395595 0 0)
(1.17011 0.0589418 0 0.00336544 0 0)
(0.908526 0.0471823 9.71908e-21 0.0028433 2.04874e-22 5.55942e-37)
(0.696489 0.0371592 9.01819e-21 0.00238508 1.71924e-22 5.42498e-37)
(0.527266 0.0287165 0 0.00198606 0 0)
(0.394576 0.0216799 -7.85935e-21 0.00163992 -1.1585e-22 5.1637e-37)
(0.292724 0.0158847 0 0.0013406 0 0)
(0.216594 0.0111783 6.96466e-21 0.00108267 7.08374e-23 4.91225e-37)
(0.161618 0.00742263 0 0.000861513 0 0)
(0.123735 0.00449332 6.27929e-21 0.000673444 3.49116e-23 4.67034e-37)
(0.0993527 0.00227672 6.002e-21 0.000515494 1.97142e-23 4.55287e-37)
(0.0853192 0.00066671 0 0.000385452 0 0)
(0.0789047 -0.000437945 0 0.000281292 0 0)
(0.077783 -0.00113308 0 0.000201195 0 0)
(0.0800371 -0.00151171 0 0.000143476 0 0)
(0.0841643 -0.00166249 0 0.000105145 0 0)
(0.0890689 -0.00165997 0 8.20309e-05 0 0)
(0.0939915 -0.00156171 0 7.0693e-05 0 0)
(0.0984404 -0.00140839 4.91402e-21 6.80343e-05 -5.2943e-23 3.69183e-37)
(0.102114 -0.00122638 -4.87524e-21 7.13697e-05 5.69431e-23 3.59352e-37)
(0.104902 -0.00105739 0 7.95388e-05 0 0)
(0.106981 -0.000963264 0 9.03223e-05 0 0)
(0.108773 -0.000959558 0 9.99432e-05 0 0)
(0.110645 -0.0009944 0 0.000108532 0 0)
(0.112757 -0.00101508 -9.66278e-21 0.000118444 1.30907e-22 1.25232e-36)
(0.115088 -0.00101515 0 0.000129773 0 0)
(0.117593 -0.00103023 9.71419e-21 0.000141202 -1.33152e-22 1.18343e-36)
(0.120311 -0.00110304 -9.75262e-21 0.000150448 1.31844e-22 1.15004e-36)
(0.123405 -0.00124809 0 0.000154285 0 0)
(0.127097 -0.0014404 0 0.000152012 0 0)
(0.131556 -0.00163573 0 0.000147362 0 0)
(0.136827 -0.00180086 9.92447e-21 0.000145121 -1.17872e-22 1.02327e-36)
(0.142855 -0.00192709 9.96317e-21 0.000147134 -1.15187e-22 9.93212e-37)
(0.149548 -0.00202307 0 0.000152252 0 0)
(0.156825 -0.00210133 1.00354e-20 0.000158606 -1.11316e-22 9.34996e-37)
(0.16464 -0.00217157 1.00697e-20 0.000165003 -1.09519e-22 9.06814e-37)
(0.17297 -0.00224027 -1.01029e-20 0.000171103 1.0743e-22 8.79236e-37)
(0.181818 -0.00231209 0 0.000177002 0 0)
(0.191201 -0.00239045 0 0.00018264 0 0)
(0.201148 -0.0024771 -1.01912e-20 0.000187524 9.82042e-23 8.0003e-37)
(0.211699 -0.00257182 0 0.000190845 0 0)
(0.222895 -0.0026723 0 0.000191495 0 0)
(0.234776 -0.00277282 0 0.000187718 0 0)
(0.247356 -0.00286091 0 0.000177006 0 0)
(0.260597 -0.00291532 1.02453e-20 0.000157454 -7.07364e-23 6.79218e-37)
(0.274371 -0.00291226 1.02285e-20 0.000130318 -6.31829e-23 6.56655e-37)
(0.28846 -0.00283952 0 0.00010068 0 0)
(0.302596 -0.00270588 1.01566e-20 7.44027e-05 -4.8914e-23 6.13061e-37)
(0.316537 -0.00253548 0 5.46181e-05 0 0)
(0.330099 -0.0023528 0 4.10524e-05 0 0)
(0.343172 -0.00217105 9.95902e-21 3.17485e-05 -3.37242e-23 5.51375e-37)
(0.355665 -0.0019909 0 2.48134e-05 0 0)
(0.367514 -0.00180745 9.77866e-21 1.91136e-05 -2.6654e-23 5.12632e-37)
(0.378619 -0.00161861 0 1.42168e-05 0 0)
(0.388935 -0.00142953 0 1.01132e-05 0 0)