/*--------------------------------*- C++ -*----------------------------------*\
  =========                 |
  \\      /  F ield         | OpenFOAM: The Open Source CFD Toolbox
   \\    /   O peration     | Website:  https://openfoam.org
    \\  /    A nd           | Version:  10
     \\/     M anipulation  |
\*---------------------------------------------------------------------------*/
FoamFile
{
    format      ascii;
    class       surfaceScalarField;
    location    "20200";
    object      phi;
}
// * * * * * * * * * * * * * * * * * * * * * * * * * * * * * * * * * * * * * //

dimensions      [0 3 -1 0 0 0 0];

internalField   nonuniform List<scalar> 
12640
(
-5.95371e-08
5.95371e-08
-1.28106e-07
6.85685e-08
-2.18968e-07
9.08621e-08
-2.57175e-07
3.82072e-08
-2.94615e-06
2.68898e-06
-3.17667e-06
2.30514e-07
-3.38211e-06
2.05444e-07
-3.35984e-06
-2.22702e-08
-3.20717e-06
-1.52675e-07
-3.17308e-06
-3.40901e-08
-3.10692e-06
-6.61546e-08
-3.06705e-06
-3.98693e-08
-2.95521e-06
-1.11838e-07
-2.94486e-06
-1.03521e-08
-3.10387e-06
1.59005e-07
-3.12077e-06
1.69057e-08
-3.09666e-06
-2.41173e-08
-3.04088e-06
-5.57763e-08
-3.00317e-06
-3.77047e-08
-2.99159e-06
-1.15845e-08
-3.00596e-06
1.43741e-08
-2.99934e-06
-6.62537e-09
-2.98103e-06
-1.83072e-08
-2.95115e-06
-2.98773e-08
-2.90273e-06
-4.84243e-08
-2.86366e-06
-3.90688e-08
-2.83338e-06
-3.02846e-08
-2.79967e-06
-3.37078e-08
-2.75078e-06
-4.88935e-08
-2.68972e-06
-6.10551e-08
-2.59506e-06
-9.46612e-08
-2.41503e-06
-1.8003e-07
-2.28204e-06
-1.32986e-07
-2.109e-06
-1.73041e-07
-1.88827e-06
-2.2073e-07
-1.61305e-06
-2.75222e-07
-1.27971e-06
-3.33342e-07
-8.90887e-07
-3.88822e-07
-4.578e-07
-4.33087e-07
-1.87303e-17
-4.578e-07
4.578e-07
-4.578e-07
8.90887e-07
-4.33087e-07
1.27971e-06
-3.88822e-07
1.61305e-06
-3.33342e-07
1.88827e-06
-2.75222e-07
2.109e-06
-2.2073e-07
2.28204e-06
-1.73041e-07
2.41503e-06
-1.32986e-07
2.59506e-06
-1.8003e-07
2.68972e-06
-9.46612e-08
2.75078e-06
-6.10551e-08
2.79967e-06
-4.88935e-08
2.83338e-06
-3.37078e-08
2.86366e-06
-3.02846e-08
2.90273e-06
-3.90688e-08
2.95115e-06
-4.84243e-08
2.98103e-06
-2.98773e-08
2.99934e-06
-1.83072e-08
3.00596e-06
-6.62537e-09
2.99159e-06
1.43741e-08
3.00317e-06
-1.15845e-08
3.04088e-06
-3.77047e-08
3.09666e-06
-5.57763e-08
3.12077e-06
-2.41173e-08
3.10387e-06
1.69057e-08
2.94486e-06
1.59005e-07
2.95521e-06
-1.03521e-08
3.06705e-06
-1.11838e-07
3.10692e-06
-3.98693e-08
3.17308e-06
-6.61546e-08
3.20717e-06
-3.40901e-08
3.35984e-06
-1.52675e-07
3.38211e-06
-2.22702e-08
3.17667e-06
2.05444e-07
2.94615e-06
2.30514e-07
2.57175e-07
2.68898e-06
2.18968e-07
3.82072e-08
1.28106e-07
9.08621e-08
5.95371e-08
6.85685e-08
5.95371e-08
-6.48726e-08
1.2441e-07
-1.3945e-07
1.43146e-07
-2.42672e-07
1.94084e-07
-5.30294e-07
3.25829e-07
-8.19809e-08
2.24067e-06
-1.14278e-06
1.29131e-06
-3.35012e-06
2.41279e-06
-3.49868e-06
1.26282e-07
-3.37212e-06
-2.79236e-07
-3.36351e-06
-4.27003e-08
-3.30195e-06
-1.27714e-07
-3.27171e-06
-7.0108e-08
-3.1495e-06
-2.34046e-07
-3.13946e-06
-2.03938e-08
-3.32726e-06
3.46806e-07
-3.34349e-06
3.314e-08
-3.3196e-06
-4.80171e-08
-3.25944e-06
-1.15934e-07
-3.22032e-06
-7.68179e-08
-3.2094e-06
-2.25108e-08
-3.22834e-06
3.33197e-08
-3.22196e-06
-1.30048e-08
-3.20333e-06
-3.69453e-08
-3.17247e-06
-6.07346e-08
-3.11991e-06
-1.00987e-07
-3.07865e-06
-8.03242e-08
-3.04731e-06
-6.163e-08
-3.01218e-06
-6.88366e-08
-2.95994e-06
-1.01131e-07
-2.89571e-06
-1.25286e-07
-2.79667e-06
-1.93704e-07
-2.60696e-06
-3.69732e-07
-2.46571e-06
-2.74243e-07
-2.28135e-06
-3.57398e-07
-2.04543e-06
-4.56646e-07
-1.75008e-06
-5.70572e-07
-1.39066e-06
-6.92763e-07
-9.69475e-07
-8.10009e-07
-4.98653e-07
-9.03909e-07
-1.89735e-17
-9.56452e-07
4.98653e-07
-9.56452e-07
9.69475e-07
-9.03909e-07
1.39066e-06
-8.10009e-07
1.75008e-06
-6.92763e-07
2.04543e-06
-5.70572e-07
2.28135e-06
-4.56646e-07
2.46571e-06
-3.57398e-07
2.60696e-06
-2.74243e-07
2.79667e-06
-3.69732e-07
2.89571e-06
-1.93704e-07
2.95994e-06
-1.25286e-07
3.01218e-06
-1.01131e-07
3.04731e-06
-6.88366e-08
3.07865e-06
-6.163e-08
3.11991e-06
-8.03242e-08
3.17247e-06
-1.00987e-07
3.20333e-06
-6.07346e-08
3.22196e-06
-3.69453e-08
3.22834e-06
-1.30048e-08
3.2094e-06
3.33197e-08
3.22032e-06
-2.25108e-08
3.25944e-06
-7.68179e-08
3.3196e-06
-1.15934e-07
3.34349e-06
-4.80171e-08
3.32726e-06
3.314e-08
3.13946e-06
3.46806e-07
3.1495e-06
-2.03938e-08
3.27171e-06
-2.34046e-07
3.30195e-06
-7.0108e-08
3.36351e-06
-1.27714e-07
3.37212e-06
-4.27003e-08
3.49868e-06
-2.79236e-07
3.35012e-06
1.26282e-07
1.14278e-06
2.41279e-06
8.19809e-08
1.29131e-06
5.30294e-07
2.24067e-06
2.42672e-07
3.25829e-07
1.3945e-07
1.94084e-07
6.48726e-08
1.43146e-07
1.2441e-07
-7.0083e-08
1.94493e-07
-1.50041e-07
2.23104e-07
-2.58638e-07
3.02682e-07
-4.72189e-07
5.3938e-07
-1.45106e-07
1.91358e-06
-2.98338e-07
1.44455e-06
-1.41787e-07
2.25624e-06
-2.60418e-06
2.58868e-06
-3.38962e-06
5.06206e-07
-3.54071e-06
1.08386e-07
-3.50782e-06
-1.60604e-07
-3.50646e-06
-7.14644e-08
-3.36383e-06
-3.76683e-07
-3.35094e-06
-3.32824e-08
-3.59541e-06
5.91275e-07
-3.6032e-06
4.09358e-08
-3.57935e-06
-7.187e-08
-3.51049e-06
-1.84794e-07
-3.46917e-06
-1.18133e-07
-3.45878e-06
-3.29039e-08
-3.48625e-06
6.07932e-08
-3.47919e-06
-2.00655e-08
-3.46001e-06
-5.61338e-08
-3.42844e-06
-9.2298e-08
-3.3689e-06
-1.6053e-07
-3.32507e-06
-1.24152e-07
-3.29324e-06
-9.34668e-08
-3.25719e-06
-1.04884e-07
-3.20068e-06
-1.57636e-07
-3.13414e-06
-1.91831e-07
-3.03349e-06
-2.94354e-07
-2.83807e-06
-5.65148e-07
-2.68987e-06
-4.22444e-07
-2.4952e-06
-5.52068e-07
-2.24435e-06
-7.07492e-07
-1.92738e-06
-8.87542e-07
-1.53734e-06
-1.08281e-06
-1.07522e-06
-1.27213e-06
-5.54256e-07
-1.42487e-06
-1.84109e-17
-1.51071e-06
5.54256e-07
-1.51071e-06
1.07522e-06
-1.42487e-06
1.53734e-06
-1.27213e-06
1.92738e-06
-1.08281e-06
2.24435e-06
-8.87542e-07
2.4952e-06
-7.07492e-07
2.68987e-06
-5.52068e-07
2.83807e-06
-4.22444e-07
3.03349e-06
-5.65148e-07
3.13414e-06
-2.94354e-07
3.20068e-06
-1.91831e-07
3.25719e-06
-1.57636e-07
3.29324e-06
-1.04884e-07
3.32507e-06
-9.34668e-08
3.3689e-06
-1.24152e-07
3.42844e-06
-1.6053e-07
3.46001e-06
-9.2298e-08
3.47919e-06
-5.61338e-08
3.48625e-06
-2.00655e-08
3.45878e-06
6.07932e-08
3.46917e-06
-3.29039e-08
3.51049e-06
-1.18133e-07
3.57935e-06
-1.84794e-07
3.6032e-06
-7.187e-08
3.59541e-06
4.09358e-08
3.35094e-06
5.91275e-07
3.36383e-06
-3.32824e-08
3.50646e-06
-3.76683e-07
3.50782e-06
-7.14644e-08
3.54071e-06
-1.60604e-07
3.38962e-06
1.08386e-07
2.60418e-06
5.06206e-07
1.41787e-07
2.58868e-06
2.98338e-07
2.25624e-06
1.45106e-07
1.44455e-06
4.72189e-07
1.91358e-06
2.58638e-07
5.3938e-07
1.50041e-07
3.02682e-07
7.0083e-08
2.23104e-07
1.94493e-07
-7.49014e-08
2.69394e-07
-1.59096e-07
3.07299e-07
-2.67405e-07
4.1099e-07
-4.23413e-07
6.95388e-07
-1.91409e-07
1.68158e-06
-2.71409e-07
1.52455e-06
-1.14623e-07
2.09945e-06
1.99358e-07
2.2747e-06
-2.63194e-07
9.68758e-07
-2.94159e-06
2.78678e-06
-3.52727e-06
4.25081e-07
-3.71241e-06
1.13672e-07
-3.56311e-06
-5.25984e-07
-3.55142e-06
-4.49735e-08
-3.90446e-06
9.44318e-07
-3.89022e-06
2.66997e-08
-3.86915e-06
-9.29402e-08
-3.78571e-06
-2.68234e-07
-3.74224e-06
-1.61604e-07
-3.73237e-06
-4.27739e-08
-3.7755e-06
1.03921e-07
-3.76607e-06
-2.94937e-08
-3.74637e-06
-7.5842e-08
-3.71529e-06
-1.23373e-07
-3.64439e-06
-2.31432e-07
-3.59798e-06
-1.70559e-07
-3.56696e-06
-1.24488e-07
-3.53124e-06
-1.40604e-07
-3.46916e-06
-2.19713e-07
-3.40211e-06
-2.58886e-07
-3.30487e-06
-3.9159e-07
-3.11134e-06
-7.58682e-07
-2.95921e-06
-5.74572e-07
-2.75724e-06
-7.54034e-07
-2.49398e-06
-9.7075e-07
-2.15582e-06
-1.22571e-06
-1.73115e-06
-1.50748e-06
-1.21782e-06
-1.78546e-06
-6.30206e-07
-2.01248e-06
-4.42967e-17
-2.14091e-06
6.30206e-07
-2.14091e-06
1.21782e-06
-2.01248e-06
1.73115e-06
-1.78546e-06
2.15582e-06
-1.50748e-06
2.49398e-06
-1.22571e-06
2.75724e-06
-9.7075e-07
2.95921e-06
-7.54034e-07
3.11134e-06
-5.74572e-07
3.30487e-06
-7.58682e-07
3.40211e-06
-3.9159e-07
3.46916e-06
-2.58886e-07
3.53124e-06
-2.19713e-07
3.56696e-06
-1.40604e-07
3.59798e-06
-1.24488e-07
3.64439e-06
-1.70559e-07
3.71529e-06
-2.31432e-07
3.74637e-06
-1.23373e-07
3.76607e-06
-7.5842e-08
3.7755e-06
-2.94937e-08
3.73237e-06
1.03921e-07
3.74224e-06
-4.27739e-08
3.78571e-06
-1.61604e-07
3.86915e-06
-2.68234e-07
3.89022e-06
-9.29402e-08
3.90446e-06
2.66997e-08
3.55142e-06
9.44318e-07
3.56311e-06
-4.49735e-08
3.71241e-06
-5.25984e-07
3.52727e-06
1.13672e-07
2.94159e-06
4.25081e-07
2.63194e-07
2.78678e-06
-1.99358e-07
9.68758e-07
1.14623e-07
2.2747e-06
2.71409e-07
2.09945e-06
1.91409e-07
1.52455e-06
4.23413e-07
1.68158e-06
2.67405e-07
6.95388e-07
1.59096e-07
4.1099e-07
7.49014e-08
3.07299e-07
2.69394e-07
-7.9018e-08
3.48412e-07
-1.65923e-07
3.94204e-07
-2.69769e-07
5.14836e-07
-3.82827e-07
8.08446e-07
-2.22932e-07
1.52168e-06
-2.50129e-07
1.55174e-06
-1.11224e-07
1.96055e-06
1.10627e-07
2.05284e-06
-2.11529e-07
1.29091e-06
2.87516e-07
2.28774e-06
-2.02398e-07
9.14994e-07
-2.15191e-06
2.06319e-06
-3.44768e-06
7.69787e-07
-3.62784e-06
1.35181e-07
-4.22999e-06
1.54647e-06
-4.1827e-06
-2.05827e-08
-4.18073e-06
-9.49141e-08
-4.07643e-06
-3.72536e-07
-4.03408e-06
-2.03949e-07
-4.02493e-06
-5.19222e-08
-4.09719e-06
1.76178e-07
-4.08179e-06
-4.48987e-08
-4.06202e-06
-9.56069e-08
-4.03452e-06
-1.50872e-07
-3.94463e-06
-3.21323e-07
-3.89633e-06
-2.18858e-07
-3.86849e-06
-1.52333e-07
-3.8355e-06
-1.73598e-07
-3.7653e-06
-2.89909e-07
-3.70065e-06
-3.23533e-07
-3.61479e-06
-4.77453e-07
-3.43574e-06
-9.37738e-07
-3.28468e-06
-7.25626e-07
-3.08113e-06
-9.57581e-07
-2.8115e-06
-1.24038e-06
-2.45586e-06
-1.58135e-06
-1.99365e-06
-1.96969e-06
-1.4156e-06
-2.36351e-06
-7.37106e-07
-2.69098e-06
-6.05677e-17
-2.87802e-06
7.37106e-07
-2.87802e-06
1.4156e-06
-2.69098e-06
1.99365e-06
-2.36351e-06
2.45586e-06
-1.96969e-06
2.8115e-06
-1.58135e-06
3.08113e-06
-1.24038e-06
3.28468e-06
-9.57581e-07
3.43574e-06
-7.25626e-07
3.61479e-06
-9.37738e-07
3.70065e-06
-4.77453e-07
3.7653e-06
-3.23533e-07
3.8355e-06
-2.89909e-07
3.86849e-06
-1.73598e-07
3.89633e-06
-1.52333e-07
3.94463e-06
-2.18858e-07
4.03452e-06
-3.21323e-07
4.06202e-06
-1.50872e-07
4.08179e-06
-9.56069e-08
4.09719e-06
-4.48987e-08
4.02493e-06
1.76178e-07
4.03408e-06
-5.19222e-08
4.07643e-06
-2.03949e-07
4.18073e-06
-3.72536e-07
4.1827e-06
-9.49141e-08
4.22999e-06
-2.05827e-08
3.62784e-06
1.54647e-06
3.44768e-06
1.35181e-07
2.15191e-06
7.69787e-07
2.02398e-07
2.06319e-06
-2.87516e-07
9.14994e-07
2.11529e-07
2.28774e-06
-1.10627e-07
1.29091e-06
1.11224e-07
2.05284e-06
2.50129e-07
1.96055e-06
2.22932e-07
1.55174e-06
3.82827e-07
1.52168e-06
2.69769e-07
8.08446e-07
1.65923e-07
5.14836e-07
7.9018e-08
3.94204e-07
3.48412e-07
-8.21117e-08
4.30524e-07
-1.69983e-07
4.82075e-07
-2.6667e-07
6.11522e-07
-3.48913e-07
8.9069e-07
-2.41526e-07
1.4143e-06
-2.33664e-07
1.54388e-06
-1.12808e-07
1.83969e-06
4.55109e-08
1.89453e-06
-1.32806e-07
1.46923e-06
1.78739e-07
1.97619e-06
-1.14546e-07
1.20828e-06
1.75118e-07
1.77352e-06
-4.96717e-08
9.94576e-07
-5.8632e-07
6.7183e-07
-4.02703e-06
4.98718e-06
-4.24926e-06
2.01642e-07
-4.43761e-06
9.344e-08
-4.34191e-06
-4.68238e-07
-4.32501e-06
-2.20852e-07
-4.32181e-06
-5.51185e-08
-4.45227e-06
3.06632e-07
-4.42387e-06
-7.32923e-08
-4.40626e-06
-1.13217e-07
-4.39021e-06
-1.66927e-07
-4.26716e-06
-4.44366e-07
-4.21957e-06
-2.66452e-07
-4.19901e-06
-1.72893e-07
-4.17336e-06
-1.99251e-07
-4.08947e-06
-3.73795e-07
-4.03167e-06
-3.81329e-07
-3.96919e-06
-5.39937e-07
-3.82479e-06
-1.08214e-06
-3.68188e-06
-8.68537e-07
-3.48643e-06
-1.15303e-06
-3.22293e-06
-1.50388e-06
-2.86066e-06
-1.94362e-06
-2.36173e-06
-2.46862e-06
-1.701e-06
-3.02424e-06
-8.93998e-07
-3.49798e-06
-4.08522e-17
-3.77202e-06
8.93998e-07
-3.77202e-06
1.701e-06
-3.49798e-06
2.36173e-06
-3.02424e-06
2.86066e-06
-2.46862e-06
3.22293e-06
-1.94362e-06
3.48643e-06
-1.50388e-06
3.68188e-06
-1.15303e-06
3.82479e-06
-8.68537e-07
3.96919e-06
-1.08214e-06
4.03167e-06
-5.39937e-07
4.08947e-06
-3.81329e-07
4.17336e-06
-3.73795e-07
4.19901e-06
-1.99251e-07
4.21957e-06
-1.72893e-07
4.26716e-06
-2.66452e-07
4.39021e-06
-4.44366e-07
4.40626e-06
-1.66927e-07
4.42387e-06
-1.13217e-07
4.45227e-06
-7.32923e-08
4.32181e-06
3.06632e-07
4.32501e-06
-5.51185e-08
4.34191e-06
-2.20852e-07
4.43761e-06
-4.68238e-07
4.24926e-06
9.344e-08
4.02703e-06
2.01642e-07
5.8632e-07
4.98718e-06
4.96717e-08
6.7183e-07
-1.75118e-07
9.94576e-07
1.14546e-07
1.77352e-06
-1.78739e-07
1.20828e-06
1.32806e-07
1.97619e-06
-4.55109e-08
1.46923e-06
1.12808e-07
1.89453e-06
2.33664e-07
1.83969e-06
2.41526e-07
1.54388e-06
3.48913e-07
1.4143e-06
2.6667e-07
8.9069e-07
1.69983e-07
6.11522e-07
8.21117e-08
4.82075e-07
4.30524e-07
-8.38902e-08
5.14414e-07
-1.70944e-07
5.69129e-07
-2.59066e-07
6.99645e-07
-3.20008e-07
9.51632e-07
-2.49398e-07
1.34369e-06
-2.20872e-07
1.51535e-06
-1.17166e-07
1.73599e-06
-1.001e-09
1.77836e-06
-8.49688e-08
1.5532e-06
1.04107e-07
1.78712e-06
-5.79628e-08
1.37035e-06
9.88139e-08
1.61675e-06
-9.31017e-08
1.18649e-06
-6.36324e-07
1.21505e-06
7.99582e-07
3.55127e-06
4.73262e-08
9.53898e-07
-1.182e-06
1.32277e-06
-3.98632e-06
2.33608e-06
-4.37821e-06
1.71043e-07
-4.51938e-06
8.60446e-08
-4.81109e-06
5.98347e-07
-4.77015e-06
-1.14238e-07
-4.76826e-06
-1.15099e-07
-4.78642e-06
-1.48771e-07
-4.60364e-06
-6.27144e-07
-4.56536e-06
-3.04736e-07
-4.55947e-06
-1.78778e-07
-4.55073e-06
-2.07996e-07
-4.44055e-06
-4.8397e-07
-4.3965e-06
-4.25385e-07
-4.37489e-06
-5.61541e-07
-4.29771e-06
-1.15932e-06
-4.17031e-06
-9.95934e-07
-3.99811e-06
-1.32523e-06
-3.76565e-06
-1.73634e-06
-3.4238e-06
-2.28547e-06
-2.90059e-06
-2.99184e-06
-2.13367e-06
-3.79115e-06
-1.13654e-06
-4.49511e-06
-5.36377e-17
-4.90856e-06
1.13654e-06
-4.90856e-06
2.13367e-06
-4.49511e-06
2.90059e-06
-3.79115e-06
3.4238e-06
-2.99184e-06
3.76565e-06
-2.28547e-06
3.99811e-06
-1.73634e-06
4.17031e-06
-1.32523e-06
4.29771e-06
-9.95934e-07
4.37489e-06
-1.15932e-06
4.3965e-06
-5.61541e-07
4.44055e-06
-4.25385e-07
4.55073e-06
-4.8397e-07
4.55947e-06
-2.07996e-07
4.56536e-06
-1.78778e-07
4.60364e-06
-3.04736e-07
4.78642e-06
-6.27144e-07
4.76826e-06
-1.48771e-07
4.77015e-06
-1.15099e-07
4.81109e-06
-1.14238e-07
4.51938e-06
5.98347e-07
4.37821e-06
8.60446e-08
3.98632e-06
1.71043e-07
1.182e-06
2.33608e-06
-4.73262e-08
1.32277e-06
-7.99582e-07
9.53898e-07
6.36324e-07
3.55127e-06
9.31017e-08
1.21505e-06
-9.88139e-08
1.18649e-06
5.79628e-08
1.61675e-06
-1.04107e-07
1.37035e-06
8.49688e-08
1.78712e-06
1.001e-09
1.5532e-06
1.17166e-07
1.77836e-06
2.20872e-07
1.73599e-06
2.49398e-07
1.51535e-06
3.20008e-07
1.34369e-06
2.59066e-07
9.51632e-07
1.70944e-07
6.99645e-07
8.38902e-08
5.69129e-07
5.14414e-07
-8.41322e-08
5.98546e-07
-1.68697e-07
6.53694e-07
-2.47856e-07
7.78804e-07
-2.94524e-07
9.98299e-07
-2.4882e-07
1.29798e-06
-2.1048e-07
1.47701e-06
-1.22407e-07
1.64791e-06
-3.35286e-08
1.68948e-06
-5.95042e-08
1.57917e-06
5.41593e-08
1.67345e-06
-2.80858e-08
1.45259e-06
4.64109e-08
1.54225e-06
-9.80027e-08
1.33091e-06
-3.61445e-07
1.47849e-06
5.02895e-07
2.68693e-06
1.16537e-07
1.34026e-06
1.0107e-08
1.4292e-06
4.76745e-07
1.86944e-06
-5.96306e-08
7.07418e-07
-9.05425e-07
9.31839e-07
-4.47163e-06
4.16456e-06
-4.77657e-06
1.90697e-07
-4.98636e-06
9.46912e-08
-5.17501e-06
3.988e-08
-4.9072e-06
-8.94954e-07
-4.91618e-06
-2.95754e-07
-4.94352e-06
-1.51437e-07
-4.97573e-06
-1.75787e-07
-4.81133e-06
-6.48374e-07
-4.79351e-06
-4.432e-07
-4.83754e-06
-5.17518e-07
-4.88349e-06
-1.11337e-06
-4.76952e-06
-1.1099e-06
-4.64194e-06
-1.45282e-06
-4.48985e-06
-1.88842e-06
-4.23302e-06
-2.54231e-06
-3.73253e-06
-3.49232e-06
-2.83031e-06
-4.69338e-06
-1.53572e-06
-5.7897e-06
-1.05538e-16
-6.44428e-06
1.53572e-06
-6.44428e-06
2.83031e-06
-5.7897e-06
3.73253e-06
-4.69338e-06
4.23302e-06
-3.49232e-06
4.48985e-06
-2.54231e-06
4.64194e-06
-1.88842e-06
4.76952e-06
-1.45282e-06
4.88349e-06
-1.1099e-06
4.83754e-06
-1.11337e-06
4.79351e-06
-5.17518e-07
4.81133e-06
-4.432e-07
4.97573e-06
-6.48374e-07
4.94352e-06
-1.75787e-07
4.91618e-06
-1.51437e-07
4.9072e-06
-2.95754e-07
5.17501e-06
-8.94954e-07
4.98636e-06
3.988e-08
4.77657e-06
9.46912e-08
4.47163e-06
1.90697e-07
9.05425e-07
4.16456e-06
5.96306e-08
9.31839e-07
-4.76745e-07
7.07418e-07
-1.0107e-08
1.86944e-06
-1.16537e-07
1.4292e-06
-5.02895e-07
1.34026e-06
3.61445e-07
2.68693e-06
9.80027e-08
1.47849e-06
-4.64109e-08
1.33091e-06
2.80858e-08
1.54225e-06
-5.41593e-08
1.45259e-06
5.95042e-08
1.67345e-06
3.35286e-08
1.57917e-06
1.22407e-07
1.68948e-06
2.1048e-07
1.64791e-06
2.4882e-07
1.47701e-06
2.94524e-07
1.29798e-06
2.47856e-07
9.98299e-07
1.68697e-07
7.78804e-07
8.41322e-08
6.53694e-07
5.98546e-07
-8.27226e-08
6.81269e-07
-1.63352e-07
7.34323e-07
-2.33822e-07
8.49274e-07
-2.71114e-07
1.03559e-06
-2.41891e-07
1.26876e-06
-2.01247e-07
1.43637e-06
-1.27056e-07
1.57372e-06
-5.58888e-08
1.61832e-06
-4.89295e-08
1.57221e-06
2.11342e-08
1.60339e-06
-1.52701e-08
1.489e-06
1.4284e-08
1.5127e-06
-8.19184e-08
1.42711e-06
-1.8705e-07
1.58363e-06
3.18243e-07
2.18164e-06
1.43232e-07
1.51527e-06
8.73689e-08
1.48506e-06
3.21556e-07
1.63525e-06
-2.54938e-08
1.05447e-06
-4.02482e-07
1.30883e-06
9.13411e-07
2.84866e-06
2.3988e-07
8.64228e-07
-4.90938e-07
8.25509e-07
-3.2277e-06
2.77664e-06
-4.54029e-06
4.17644e-07
-4.96985e-06
1.33808e-07
-5.20053e-06
7.92385e-08
-5.40713e-06
3.08087e-08
-5.15377e-06
-9.01727e-07
-5.2031e-06
-3.93874e-07
-5.35088e-06
-3.6974e-07
-5.63334e-06
-8.30909e-07
-5.47956e-06
-1.26368e-06
-5.42294e-06
-1.50944e-06
-5.44946e-06
-1.8619e-06
-5.43029e-06
-2.56147e-06
-5.10714e-06
-3.81547e-06
-4.0359e-06
-5.76462e-06
-2.24262e-06
-7.58299e-06
-1.00099e-16
-8.68689e-06
2.24262e-06
-8.68689e-06
4.0359e-06
-7.58299e-06
5.10714e-06
-5.76462e-06
5.43029e-06
-3.81547e-06
5.44946e-06
-2.56147e-06
5.42294e-06
-1.8619e-06
5.47956e-06
-1.50944e-06
5.63334e-06
-1.26368e-06
5.35088e-06
-8.30909e-07
5.2031e-06
-3.6974e-07
5.15377e-06
-3.93874e-07
5.40713e-06
-9.01727e-07
5.20053e-06
3.08087e-08
4.96985e-06
7.92385e-08
4.54029e-06
1.33808e-07
3.2277e-06
4.17644e-07
4.90938e-07
2.77664e-06
-2.3988e-07
8.25509e-07
-9.13411e-07
8.64228e-07
4.02482e-07
2.84866e-06
2.54938e-08
1.30883e-06
-3.21556e-07
1.05447e-06
-8.73689e-08
1.63525e-06
-1.43232e-07
1.48506e-06
-3.18243e-07
1.51527e-06
1.8705e-07
2.18164e-06
8.19184e-08
1.58363e-06
-1.4284e-08
1.42711e-06
1.52701e-08
1.5127e-06
-2.11342e-08
1.489e-06
4.89295e-08
1.60339e-06
5.58888e-08
1.57221e-06
1.27056e-07
1.61832e-06
2.01247e-07
1.57372e-06
2.41891e-07
1.43637e-06
2.71114e-07
1.26876e-06
2.33822e-07
1.03559e-06
1.63352e-07
8.49274e-07
8.27226e-08
7.34323e-07
6.81269e-07
-7.96728e-08
7.60942e-07
-1.55207e-07
8.09858e-07
-2.17623e-07
9.1169e-07
-2.48759e-07
1.06673e-06
-2.30373e-07
1.25037e-06
-1.92102e-07
1.3981e-06
-1.30062e-07
1.51168e-06
-7.09103e-08
1.55916e-06
-4.71687e-08
1.54847e-06
-6.64472e-10
1.55688e-06
-1.18088e-08
1.50014e-06
-2.17422e-09
1.50306e-06
-5.72234e-08
1.48216e-06
-8.05026e-08
1.6069e-06
2.1015e-07
1.89099e-06
1.50803e-07
1.57462e-06
1.27137e-07
1.50872e-06
2.31624e-07
1.53077e-06
2.506e-08
1.26103e-06
-1.20469e-07
1.45436e-06
5.88189e-07
2.14e-06
2.55035e-07
1.19738e-06
-6.43754e-08
1.14492e-06
7.53324e-07
1.95894e-06
3.76694e-07
7.94274e-07
6.01816e-09
5.04483e-07
-6.44496e-07
7.29752e-07
-3.40982e-06
2.79614e-06
-4.71545e-06
4.03896e-07
-5.24204e-06
1.32716e-07
-5.69113e-06
7.93507e-08
-6.57953e-06
5.74928e-08
-6.1315e-06
-1.71171e-06
-6.21395e-06
-1.42698e-06
-6.62919e-06
-1.44666e-06
-7.2055e-06
-1.98517e-06
-7.59525e-06
-3.42572e-06
-6.29904e-06
-7.06082e-06
-3.60106e-06
-1.0281e-05
-1.30633e-16
-1.2288e-05
3.60106e-06
-1.2288e-05
6.29904e-06
-1.0281e-05
7.59525e-06
-7.06082e-06
7.2055e-06
-3.42572e-06
6.62919e-06
-1.98517e-06
6.21395e-06
-1.44666e-06
6.1315e-06
-1.42698e-06
6.57953e-06
-1.71171e-06
5.69113e-06
5.74928e-08
5.24204e-06
7.93507e-08
4.71545e-06
1.32716e-07
3.40982e-06
4.03896e-07
6.44496e-07
2.79614e-06
-6.01816e-09
7.29752e-07
-3.76694e-07
5.04483e-07
-7.53324e-07
7.94274e-07
6.43754e-08
1.95894e-06
-2.55035e-07
1.14492e-06
-5.88189e-07
1.19738e-06
1.20469e-07
2.14e-06
-2.506e-08
1.45436e-06
-2.31624e-07
1.26103e-06
-1.27137e-07
1.53077e-06
-1.50803e-07
1.50872e-06
-2.1015e-07
1.57462e-06
8.05026e-08
1.89099e-06
5.72234e-08
1.6069e-06
2.17422e-09
1.48216e-06
1.18088e-08
1.50306e-06
6.64472e-10
1.50014e-06
4.71687e-08
1.55688e-06
7.09103e-08
1.54847e-06
1.30062e-07
1.55916e-06
1.92102e-07
1.51168e-06
2.30373e-07
1.3981e-06
2.48759e-07
1.25037e-06
2.17623e-07
1.06673e-06
1.55207e-07
9.1169e-07
7.96728e-08
8.09858e-07
7.60942e-07
-7.51202e-08
8.36062e-07
-1.44698e-07
8.79436e-07
-1.99815e-07
9.66807e-07
-2.26791e-07
1.0937e-06
-2.15633e-07
1.23922e-06
-1.82218e-07
1.36468e-06
-1.30748e-07
1.46021e-06
-8.04574e-08
1.50887e-06
-4.96263e-08
1.51764e-06
-1.49582e-08
1.52222e-06
-1.22203e-08
1.4974e-06
-7.62712e-09
1.49847e-06
-3.14804e-08
1.50601e-06
-1.70561e-08
1.59248e-06
1.51159e-07
1.72277e-06
1.48881e-07
1.57689e-06
1.44975e-07
1.51263e-06
1.86408e-07
1.48934e-06
7.59674e-08
1.37147e-06
3.98104e-08
1.49051e-06
4.08755e-07
1.77106e-06
2.66573e-07
1.33956e-06
1.33527e-07
1.27797e-06
5.34196e-07
1.55827e-06
3.40495e-07
9.87975e-07
6.30935e-08
7.81885e-07
-1.99303e-07
9.92148e-07
7.44837e-07
1.852e-06
3.87559e-07
7.61174e-07
6.07152e-08
4.5956e-07
-4.21749e-07
5.61814e-07
-2.03081e-06
1.66655e-06
-3.99613e-06
2.53616e-07
-5.51221e-06
8.90966e-08
-7.01359e-06
5.4716e-08
-9.03747e-06
3.87194e-08
-1.24659e-05
2.72373e-09
-1.07006e-05
-8.82613e-06
-6.40143e-06
-1.45802e-05
-1.10312e-16
-1.86894e-05
6.40143e-06
-1.86894e-05
1.07006e-05
-1.45802e-05
1.24659e-05
-8.82613e-06
9.03747e-06
2.72373e-09
7.01359e-06
3.87194e-08
5.51221e-06
5.4716e-08
3.99613e-06
8.90966e-08
2.03081e-06
2.53616e-07
4.21749e-07
1.66655e-06
-6.07152e-08
5.61814e-07
-3.87559e-07
4.5956e-07
-7.44837e-07
7.61174e-07
1.99303e-07
1.852e-06
-6.30935e-08
9.92148e-07
-3.40495e-07
7.81885e-07
-5.34196e-07
9.87975e-07
-1.33527e-07
1.55827e-06
-2.66573e-07
1.27797e-06
-4.08755e-07
1.33956e-06
-3.98104e-08
1.77106e-06
-7.59674e-08
1.49051e-06
-1.86408e-07
1.37147e-06
-1.44975e-07
1.48934e-06
-1.48881e-07
1.51263e-06
-1.51159e-07
1.57689e-06
1.70561e-08
1.72277e-06
3.14804e-08
1.59248e-06
7.62712e-09
1.50601e-06
1.22203e-08
1.49847e-06
1.49582e-08
1.4974e-06
4.96263e-08
1.52222e-06
8.04574e-08
1.51764e-06
1.30748e-07
1.50887e-06
1.82218e-07
1.46021e-06
2.15633e-07
1.36468e-06
2.26791e-07
1.23922e-06
1.99815e-07
1.0937e-06
1.44698e-07
9.66807e-07
7.51202e-08
8.79436e-07
8.36062e-07
-6.93082e-08
9.0537e-07
-1.3235e-07
9.42477e-07
-1.8088e-07
1.01534e-06
-2.04851e-07
1.11767e-06
-1.9866e-07
1.23302e-06
-1.71042e-07
1.33707e-06
-1.28726e-07
1.4179e-06
-8.56026e-08
1.46575e-06
-5.30512e-08
1.48509e-06
-2.38918e-08
1.49306e-06
-1.30827e-08
1.4866e-06
-6.09037e-09
1.49148e-06
-8.44137e-09
1.50836e-06
2.06003e-08
1.56344e-06
1.21784e-07
1.62159e-06
1.43909e-07
1.55477e-06
1.51984e-07
1.50456e-06
1.68899e-07
1.47242e-06
1.19236e-07
1.42113e-06
1.28303e-07
1.48145e-06
3.18154e-07
1.58121e-06
2.73801e-07
1.38392e-06
2.31019e-07
1.32075e-06
4.13868e-07
1.37542e-06
3.11288e-07
1.09055e-06
1.32637e-07
9.60536e-07
4.08062e-08
1.08398e-06
4.87868e-07
1.40493e-06
3.34091e-07
9.14951e-07
9.74428e-08
6.96209e-07
-1.13788e-07
7.73045e-07
3.56905e-07
1.19586e-06
2.52789e-07
3.57732e-07
5.24477e-08
2.89438e-07
-1.85616e-07
2.9278e-07
-5.37383e-07
3.90486e-07
-1.02924e-06
4.94578e-07
-9.63748e-06
-2.17892e-07
-1.10727e-05
-1.31449e-05
-2.68357e-17
-2.97621e-05
1.10727e-05
-2.97621e-05
9.63748e-06
-1.31449e-05
1.02924e-06
-2.17892e-07
5.37383e-07
4.94578e-07
1.85616e-07
3.90486e-07
-5.24477e-08
2.9278e-07
-2.52789e-07
2.89438e-07
-3.56905e-07
3.57732e-07
1.13788e-07
1.19586e-06
-9.74428e-08
7.73045e-07
-3.34091e-07
6.96209e-07
-4.87868e-07
9.14951e-07
-4.08062e-08
1.40493e-06
-1.32637e-07
1.08398e-06
-3.11288e-07
9.60536e-07
-4.13868e-07
1.09055e-06
-2.31019e-07
1.37542e-06
-2.73801e-07
1.32075e-06
-3.18154e-07
1.38392e-06
-1.28303e-07
1.58121e-06
-1.19236e-07
1.48145e-06
-1.68899e-07
1.42113e-06
-1.51984e-07
1.47242e-06
-1.43909e-07
1.50456e-06
-1.21784e-07
1.55477e-06
-2.06003e-08
1.62159e-06
8.44137e-09
1.56344e-06
6.09037e-09
1.50836e-06
1.30827e-08
1.49148e-06
2.38918e-08
1.4866e-06
5.30512e-08
1.49306e-06
8.56026e-08
1.48509e-06
1.28726e-07
1.46575e-06
1.71042e-07
1.4179e-06
1.9866e-07
1.33707e-06
2.04851e-07
1.23302e-06
1.8088e-07
1.11767e-06
1.3235e-07
1.01534e-06
6.93082e-08
9.42477e-07
9.0537e-07
-6.25512e-08
9.67921e-07
-1.18721e-07
9.98647e-07
-1.61251e-07
1.05787e-06
-1.82821e-07
1.13924e-06
-1.80135e-07
1.23034e-06
-1.58267e-07
1.3152e-06
-1.23822e-07
1.38345e-06
-8.68719e-08
1.4288e-06
-5.52965e-08
1.45351e-06
-2.855e-08
1.46631e-06
-1.25782e-08
1.47062e-06
-5.51843e-10
1.47945e-06
1.07312e-08
1.49708e-06
4.37e-08
1.53047e-06
1.09324e-07
1.55597e-06
1.39619e-07
1.52447e-06
1.55038e-07
1.48914e-06
1.66639e-07
1.46082e-06
1.52671e-07
1.4351e-06
1.76933e-07
1.45718e-06
2.77355e-07
1.48079e-06
2.77386e-07
1.38389e-06
2.7323e-07
1.32491e-06
3.50553e-07
1.2981e-06
2.9424e-07
1.14687e-06
1.90281e-07
1.06449e-06
1.61245e-07
1.11302e-06
3.57272e-07
1.20891e-06
2.87049e-07
9.85174e-07
1.34765e-07
8.48493e-07
2.86495e-08
8.7916e-07
1.94994e-07
1.02951e-06
1.51782e-07
4.00944e-07
6.36662e-08
3.77554e-07
-2.40632e-08
3.80509e-07
-4.40204e-08
4.10443e-07
7.62579e-09
4.42932e-07
-5.73197e-08
-1.52946e-07
-2.88245e-06
-1.03198e-05
-5.05709e-17
-3.26446e-05
2.88245e-06
-3.26446e-05
5.73197e-08
-1.03198e-05
-7.62579e-09
-1.52946e-07
4.40204e-08
4.42932e-07
2.40632e-08
4.10443e-07
-6.36662e-08
3.80509e-07
-1.51782e-07
3.77554e-07
-1.94994e-07
4.00944e-07
-2.86495e-08
1.02951e-06
-1.34765e-07
8.7916e-07
-2.87049e-07
8.48493e-07
-3.57272e-07
9.85174e-07
-1.61245e-07
1.20891e-06
-1.90281e-07
1.11302e-06
-2.9424e-07
1.06449e-06
-3.50553e-07
1.14687e-06
-2.7323e-07
1.2981e-06
-2.77386e-07
1.32491e-06
-2.77355e-07
1.38389e-06
-1.76933e-07
1.48079e-06
-1.52671e-07
1.45718e-06
-1.66639e-07
1.4351e-06
-1.55038e-07
1.46082e-06
-1.39619e-07
1.48914e-06
-1.09324e-07
1.52447e-06
-4.37e-08
1.55597e-06
-1.07312e-08
1.53047e-06
5.51843e-10
1.49708e-06
1.25782e-08
1.47945e-06
2.855e-08
1.47062e-06
5.52965e-08
1.46631e-06
8.68719e-08
1.45351e-06
1.23822e-07
1.4288e-06
1.58267e-07
1.38345e-06
1.80135e-07
1.3152e-06
1.82821e-07
1.23034e-06
1.61251e-07
1.13924e-06
1.18721e-07
1.05787e-06
6.25512e-08
9.98647e-07
9.67921e-07
-5.51921e-08
1.02311e-06
-1.04359e-07
1.04781e-06
-1.41333e-07
1.09484e-06
-1.60748e-07
1.15866e-06
-1.60526e-07
1.23012e-06
-1.4379e-07
1.29846e-06
-1.16009e-07
1.35567e-06
-8.44924e-08
1.39728e-06
-5.50638e-08
1.42409e-06
-2.94307e-08
1.44068e-06
-9.94271e-09
1.45114e-06
7.09173e-09
1.46242e-06
2.63499e-08
1.47782e-06
5.90632e-08
1.49776e-06
1.0616e-07
1.50887e-06
1.37707e-07
1.49293e-06
1.57686e-07
1.46916e-06
1.71544e-07
1.44696e-06
1.77095e-07
1.42955e-06
2.0437e-07
1.42991e-06
2.619e-07
1.42326e-06
2.78492e-07
1.36729e-06
2.8798e-07
1.31542e-06
3.18465e-07
1.26761e-06
2.86763e-07
1.17857e-06
2.2989e-07
1.12137e-06
2.18726e-07
1.12418e-06
2.94177e-07
1.13346e-06
2.55165e-07
1.02419e-06
1.61203e-07
9.42455e-07
9.70711e-08
9.43292e-07
1.3686e-07
9.89724e-07
1.14776e-07
4.23028e-07
7.63631e-08
4.15967e-07
3.97742e-08
4.17098e-07
2.4193e-08
4.26025e-07
3.07587e-08
4.36366e-07
1.33347e-08
-1.35522e-07
-4.9429e-07
-9.81214e-06
2.20737e-17
-3.31389e-05
4.9429e-07
-3.31389e-05
-1.33347e-08
-9.81214e-06
-3.07587e-08
-1.35522e-07
-2.4193e-08
4.36366e-07
-3.97742e-08
4.26025e-07
-7.63631e-08
4.17098e-07
-1.14776e-07
4.15967e-07
-1.3686e-07
4.23028e-07
-9.70711e-08
9.89724e-07
-1.61203e-07
9.43292e-07
-2.55165e-07
9.42455e-07
-2.94177e-07
1.02419e-06
-2.18726e-07
1.13346e-06
-2.2989e-07
1.12418e-06
-2.86763e-07
1.12137e-06
-3.18465e-07
1.17857e-06
-2.8798e-07
1.26761e-06
-2.78492e-07
1.31542e-06
-2.619e-07
1.36729e-06
-2.0437e-07
1.42326e-06
-1.77095e-07
1.42991e-06
-1.71544e-07
1.42955e-06
-1.57686e-07
1.44696e-06
-1.37707e-07
1.46916e-06
-1.0616e-07
1.49293e-06
-5.90632e-08
1.50887e-06
-2.63499e-08
1.49776e-06
-7.09173e-09
1.47782e-06
9.94271e-09
1.46242e-06
2.94307e-08
1.45114e-06
5.50638e-08
1.44068e-06
8.44924e-08
1.42409e-06
1.16009e-07
1.39728e-06
1.4379e-07
1.35567e-06
1.60526e-07
1.29846e-06
1.60748e-07
1.23012e-06
1.41333e-07
1.15866e-06
1.04359e-07
1.09484e-06
5.51921e-08
1.04781e-06
1.02311e-06
-4.75617e-08
1.07068e-06
-8.97608e-08
1.09001e-06
-1.21497e-07
1.12658e-06
-1.38777e-07
1.17594e-06
-1.4017e-07
1.23151e-06
-1.27662e-07
1.28595e-06
-1.05383e-07
1.33339e-06
-7.85946e-08
1.37049e-06
-5.16807e-08
1.39717e-06
-2.67866e-08
1.41578e-06
-4.98086e-09
1.42933e-06
1.587e-08
1.44156e-06
3.93734e-08
1.45432e-06
7.06189e-08
1.46651e-06
1.08064e-07
1.47142e-06
1.38556e-07
1.46244e-06
1.61296e-07
1.44642e-06
1.79009e-07
1.42925e-06
1.9443e-07
1.41413e-06
2.20665e-07
1.40367e-06
2.57862e-07
1.38606e-06
2.78207e-07
1.34695e-06
2.90753e-07
1.30287e-06
3.02528e-07
1.25584e-06
2.84483e-07
1.19661e-06
2.53626e-07
1.15222e-06
2.44776e-07
1.13303e-06
2.65265e-07
1.11297e-06
2.36941e-07
1.05251e-06
1.77251e-07
1.00214e-06
1.30859e-07
9.89684e-07
1.22539e-07
9.98044e-07
1.07112e-07
4.38455e-07
8.67653e-08
4.36313e-07
6.73633e-08
4.365e-07
5.45578e-08
4.3883e-07
4.94443e-08
4.4148e-07
3.42469e-08
-1.20325e-07
-2.47555e-07
-9.53034e-06
-4.38054e-18
-3.33864e-05
2.47555e-07
-3.33864e-05
-3.42469e-08
-9.53034e-06
-4.94443e-08
-1.20325e-07
-5.45578e-08
4.4148e-07
-6.73633e-08
4.3883e-07
-8.67653e-08
4.365e-07
-1.07112e-07
4.36313e-07
-1.22539e-07
4.38455e-07
-1.30859e-07
9.98044e-07
-1.77251e-07
9.89684e-07
-2.36941e-07
1.00214e-06
-2.65265e-07
1.05251e-06
-2.44776e-07
1.11297e-06
-2.53626e-07
1.13303e-06
-2.84483e-07
1.15222e-06
-3.02528e-07
1.19661e-06
-2.90753e-07
1.25584e-06
-2.78207e-07
1.30287e-06
-2.57862e-07
1.34695e-06
-2.20665e-07
1.38606e-06
-1.9443e-07
1.40367e-06
-1.79009e-07
1.41413e-06
-1.61296e-07
1.42925e-06
-1.38556e-07
1.44642e-06
-1.08064e-07
1.46244e-06
-7.06189e-08
1.47142e-06
-3.93734e-08
1.46651e-06
-1.587e-08
1.45432e-06
4.98086e-09
1.44156e-06
2.67866e-08
1.42933e-06
5.16807e-08
1.41578e-06
7.85946e-08
1.39717e-06
1.05383e-07
1.37049e-06
1.27662e-07
1.33339e-06
1.4017e-07
1.28595e-06
1.38777e-07
1.23151e-06