/*--------------------------------*- C++ -*----------------------------------*\
  =========                 |
  \\      /  F ield         | OpenFOAM: The Open Source CFD Toolbox
   \\    /   O peration     | Website:  https://openfoam.org
    \\  /    A nd           | Version:  10
     \\/     M anipulation  |
\*---------------------------------------------------------------------------*/
FoamFile
{
    format      ascii;
    class       volScalarField;
    location    "0.11";
    object      p;
}
// * * * * * * * * * * * * * * * * * * * * * * * * * * * * * * * * * * * * * //

dimensions      [0 2 -2 0 0 0 0];

internalField   nonuniform List<scalar> 
4000
(
13.8028
13.8023
13.8009
13.7987
13.7957
13.792
13.7876
13.7825
13.7766
13.7699
13.7625
13.7544
13.7454
13.7357
13.7251
13.7137
13.7015
13.6885
13.6746
13.6599
13.6442
13.6276
13.61
13.5915
13.5719
13.5513
13.5296
13.5067
13.4827
13.4575
13.431
13.4032
13.3739
13.3433
13.3111
13.2774
13.242
13.2049
13.166
13.1252
13.0825
13.0377
12.9907
12.9414
12.8898
12.8357
12.779
12.7196
12.6574
12.5922
12.5239
12.4523
12.3774
12.299
12.2168
12.1309
12.0409
11.9468
11.8484
11.7455
11.638
11.5257
11.4084
11.2861
11.1585
11.0256
10.8872
10.7431
10.5934
10.438
10.2767
10.1097
9.93681
9.75822
9.57398
9.38422
9.18912
8.9889
8.78383
8.57422
8.36043
8.14289
7.92201
7.69831
7.47229
7.24451
7.01552
6.78592
6.55627
6.32718
6.09921
5.87294
5.64889
5.42759
5.2095
4.9951
4.78478
4.57891
4.37782
4.1818
3.99109
3.8059
3.62638
3.45268
3.28485
3.12298
2.96706
2.8171
2.67306
2.53488
2.40247
2.27576
2.15459
2.03887
1.92843
1.82314
1.72282
1.62733
1.53649
1.45013
1.36808
1.29017
1.21622
1.14608
1.07955
1.01651
0.956767
0.900202
0.846627
0.795942
0.747964
0.702608
0.659696
0.619159
0.580822
0.544634
0.510423
0.478154
0.447658
0.418917
0.391763
0.366195
0.342045
0.319329
0.297879
0.277726
0.258698
0.240847
0.223991
0.208203
0.193296
0.179358
0.166195
0.153917
0.142317
0.131526
0.121326
0.111867
0.102921
0.0946545
0.0868269
0.0796272
0.0727976
0.0665507
0.0606115
0.0552163
0.0500712
0.0454385
0.0410027
0.0370534
0.0332507
0.0299135
0.0266751
0.0238845
0.0211457
0.0188403
0.0165407
0.0146624
0.0127447
0.0112385
0.00964969
0.0084656
0.0071574
0.00624966
0.00518001
0.004509
0.00363881
0.0031646
0.00245435
0.00213744
0.00155454
0.0013655
0.000894055
0.000821246
0.000494207
0.000553941
0.000335168
0.000425811
0.000163397
0.00106119
13.8058
13.8052
13.8038
13.8016
13.7987
13.795
13.7906
13.7855
13.7796
13.773
13.7656
13.7575
13.7485
13.7388
13.7283
13.717
13.7049
13.6919
13.6781
13.6634
13.6478
13.6313
13.6139
13.5954
13.576
13.5555
13.534
13.5113
13.4874
13.4624
13.4361
13.4084
13.3794
13.349
13.3171
13.2836
13.2485
13.2117
13.1731
13.1326
13.0902
13.0457
12.999
12.9502
12.8989
12.8452
12.7889
12.7299
12.6681
12.6033
12.5354
12.4643
12.3898
12.3118
12.2301
12.1446
12.0551
11.9614
11.8634
11.761
11.6538
11.5419
11.4249
11.3028
11.1755
11.0426
10.9043
10.7602
10.6104
10.4547
10.2931
10.1255
9.95205
9.77268
9.5875
9.39664
9.20028
8.99864
8.79198
8.58065
8.36499
8.14546
7.9225
7.69663
7.46839
7.23837
7.00713
6.77532
6.54351
6.31234
6.08239
5.85426
5.6285
5.40563
5.18614
4.97051
4.75912
4.55237
4.35057
4.154
3.9629
3.77747
3.59785
3.42417
3.25649
3.09488
2.93932
2.78981
2.64629
2.50872
2.37697
2.25096
2.13055
2.0156
1.90597
1.80149
1.702
1.60733
1.5173
1.43175
1.35048
1.27335
1.20015
1.13075
1.06494
1.0026
0.943535
0.887621
0.834677
0.784594
0.737195
0.692389
0.650006
0.609967
0.572111
0.536374
0.502597
0.470735
0.440632
0.412258
0.385457
0.360217
0.336385
0.313962
0.292796
0.272905
0.254134
0.236518
0.219899
0.204325
0.189635
0.175892
0.162927
0.150821
0.139399
0.128756
0.118712
0.109378
0.100564
0.0924031
0.0846935
0.0775848
0.0708648
0.0647014
0.0588686
0.0535536
0.0485145
0.0439591
0.0396284
0.0357517
0.0320505
0.0287783
0.0256353
0.0229
0.0202492
0.0179888
0.0157703
0.0139275
0.0120853
0.0106068
0.00908969
0.00792683
0.00668768
0.00579563
0.00479276
0.00413212
0.00332666
0.00285749
0.00220909
0.00189047
0.00136378
0.00116395
0.000741132
0.000649469
0.000365964
0.000411379
0.000232754
0.000313366
4.97279e-05
0.00110322
13.8117
13.8111
13.8097
13.8075
13.8046
13.8009
13.7966
13.7915
13.7856
13.779
13.7717
13.7636
13.7548
13.7451
13.7347
13.7235
13.7115
13.6987
13.685
13.6705
13.6551
13.6388
13.6215
13.6033
13.5842
13.564
13.5427
13.5203
13.4968
13.4721
13.4462
13.419
13.3904
13.3604
13.329
13.296
13.2614
13.2252
13.1872
13.1473
13.1055
13.0617
13.0157
12.9675
12.917
12.8641
12.8086
12.7504
12.6894
12.6255
12.5585
12.4883
12.4147
12.3376
12.2568
12.1722
12.0835
11.9907
11.8936
11.7919
11.6855
11.5743
11.458
11.3365
11.2095
11.077
10.9388
10.7947
10.6447
10.4885
10.3262
10.1577
9.98301
9.8021
9.61505
9.42199
9.22308
9.01856
8.8087
8.59384
8.37438
8.15079
7.92356
7.69326
7.46048
7.22586
6.99003
6.75369
6.51747
6.28206
6.04809
5.8162
5.58696
5.36093
5.13862
4.92051
4.707
4.49848
4.29526
4.09762
3.90577
3.71991
3.54014
3.36659
3.19928
3.03825
2.88347
2.73492
2.59252
2.45618
2.32579
2.20122
2.08232
1.96896
1.86094
1.75811
1.66028
1.56728
1.4789
1.39498
1.31533
1.23977
1.16811
1.1002
1.03584
0.974898
0.917183
0.86257
0.810878
0.761995
0.715747
0.672038
0.630704
0.591663
0.554756
0.519921
0.487004
0.455958
0.426633
0.398997
0.372903
0.348334
0.325141
0.303323
0.282734
0.263385
0.245129
0.227997
0.211837
0.196695
0.182418
0.169066
0.156478
0.144729
0.133652
0.123335
0.113604
0.104563
0.0960301
0.0881262
0.0806616
0.0737748
0.0672663
0.0612934
0.0556446
0.0504956
0.0456204
0.0412138
0.0370331
0.033293
0.0297317
0.0265861
0.0235739
0.0209555
0.0184266
0.0162732
0.0141675
0.0124223
0.0106845
0.00929542
0.00787561
0.00679549
0.00564818
0.00483384
0.00391851
0.0033313
0.00260969
0.00221028
0.00164174
0.00138769
0.000934955
0.00079298
0.000437836
0.000397806
0.000177142
0.000269308
0.000144377
0.000260793
2.5803e-05
0.00111673
13.8205
13.8199
13.8185
13.8163
13.8134
13.8098
13.8055
13.8004
13.7946
13.7881
13.7808
13.7728
13.7641
13.7546
13.7443
13.7332
13.7214
13.7088
13.6953
13.681
13.6659
13.6499
13.6329
13.6151
13.5963
13.5765
13.5557
13.5338
13.5108
13.4866
13.4613
13.4347
13.4067
13.3775
13.3467
13.3145
13.2808
13.2453
13.2082
13.1692
13.1284
13.0856
13.0407
12.9936
12.9442
12.8924
12.8381
12.7811
12.7214
12.6587
12.593
12.5242
12.4519
12.3762
12.2968
12.2136
12.1263
12.0349
11.9391
11.8387
11.7335
11.6234
11.5081
11.3874
11.2612
11.1293
10.9914
10.8474
10.6971
10.5404
10.3771
10.2073
10.0308
9.84756
9.65772
9.46135
9.25858
9.04965
8.83485
8.61456
8.38919
8.15929
7.9254
7.68818
7.44831
7.2065
6.96352
6.72011
6.47704
6.23506
5.99488
5.75719
5.52263
5.29181
5.06524
4.84342
4.62676
4.41564
4.21036
4.01119
3.81831
3.63189
3.45202
3.27877
3.11214
2.95212
2.79866
2.65168
2.51107
2.37671
2.24845
2.12615
2.00963
1.8987
1.79319
1.69289
1.59761
1.50716
1.42131
1.3399
1.2627
1.18955
1.12022
1.05458
0.992414
0.933584
0.877901
0.825239
0.775417
0.728326
0.683794
0.641727
0.60196
0.564414
0.528932
0.495449
0.463816
0.433986
0.405813
0.379267
0.354207
0.330618
0.308358
0.287428
0.267683
0.249137
0.231644
0.215233
0.199754
0.185253
0.171579
0.158794
0.146742
0.135501
0.124908
0.115055
0.10577
0.0971566
0.0890349
0.0815232
0.0744316
0.0678956
0.0617169
0.05605
0.0506871
0.0458026
0.0411762
0.0370025
0.0330451
0.0295184
0.0261664
0.0232243
0.0204141
0.0179928
0.0156589
0.013694
0.011772
0.010201
0.00862955
0.00739489
0.00611941
0.00517115
0.00414522
0.00344121
0.00262661
0.00213244
0.00149663
0.00118012
0.00069016
0.000516963
0.000143568
8.7932e-05
-0.000180576
-0.000123912
-0.000246595
-4.67954e-05
-6.70211e-05
0.000153045
-2.52271e-07
0.00114657
13.8322
13.8316
13.8302
13.8281
13.8252
13.8216
13.8173
13.8123
13.8065
13.8001
13.7929
13.785
13.7764
13.767
13.7569
13.7461
13.7344
13.7221
13.7089
13.6949
13.6801
13.6645
13.648
13.6306
13.6123
13.593
13.5728
13.5515
13.5292
13.5057
13.4811
13.4553
13.4283
13.3999
13.3701
13.3389
13.3062
13.2719
13.2359
13.1982
13.1586
13.1171
13.0736
13.0279
12.98
12.9298
12.8771
12.8218
12.7637
12.7028
12.6389
12.5718
12.5015
12.4276
12.3501
12.2688
12.1834
12.0939
11.9999
11.9013
11.7979
11.6894
11.5756
11.4563
11.3312
11.2002
11.0629
10.9191
10.7687
10.6115
10.4472
10.2757
10.0969
9.91073
9.71721
9.51639
9.30839
9.09345
8.87184
8.64399
8.41038
8.17161
7.92835
7.68137
7.43147
7.17954
6.92645
6.67313
6.42045
6.1693
5.92048
5.6748
5.43294
5.19558
4.96326
4.73651
4.51573
4.30128
4.09343
3.89242
3.6984
3.51147
3.33169
3.15907
2.99358
2.83515
2.68366
2.53901
2.40102
2.26953
2.14434
2.02527
1.91208
1.80459
1.70255
1.60577
1.514
1.42704
1.34465
1.26664
1.19277
1.12287
1.05671
0.994131
0.934921
0.878936
0.825983
0.775936
0.728615
0.683913
0.641661
0.60177
0.564079
0.528515
0.494924
0.463244
0.433328
0.405129
0.378503
0.353421
0.329742
0.307456
0.286427
0.266659
0.248017
0.230522
0.214031
0.198578
0.184016
0.170389
0.157545
0.145543
0.134228
0.123676
0.11373
0.104482
0.0957668
0.0876917
0.0800814
0.0730557
0.0664286
0.0603334
0.0545746
0.0493018
0.0443113
0.039772
0.0354704
0.0315971
0.0279249
0.0246664
0.0215757
0.0188868
0.0163302
0.0141613
0.0120832
0.0103742
0.00870873
0.00739055
0.00606548
0.0050668
0.00401291
0.00326981
0.00242852
0.00188978
0.00121706
0.000846267
0.000311122
8.13855e-05
-0.000340557
-0.00045237
-0.000776981
-0.00078246
-0.00100703
-0.000898154
-0.000968513
-0.00070222
-0.000648181
-0.000331196
-0.000343688
0.00100362
13.8468
13.8462
13.8448
13.8427
13.8398
13.8363
13.832
13.827
13.8214
13.815
13.8079
13.8001
13.7916
13.7824
13.7725
13.7619
13.7505
13.7385
13.7256
13.712
13.6976
13.6825
13.6665
13.6497
13.632
13.6134
13.5939
13.5734
13.5519
13.5293
13.5057
13.4809
13.4549
13.4277
13.3991
13.3692
13.3378
13.3049
13.2703
13.2342
13.1962
13.1564
13.1146
13.0707
13.0247
12.9764
12.9257
12.8724
12.8165
12.7578
12.6962
12.6314
12.5634
12.4919
12.4169
12.338
12.2551
12.168
12.0765
11.9803
11.8792
11.773
11.6613
11.5439
11.4205
11.2909
11.1547
11.0116
10.8614
10.7037
10.5384
10.3651
10.1837
9.99405
9.79603
9.58966
9.37501
9.15229
8.9218
8.68398
8.43941
8.18879
7.93293
7.6728
7.40939
7.1438
6.87714
6.61052
6.34503
6.08172
5.82156
5.56544
5.31416
5.06843
4.82885
4.59595
4.37012
4.15171
3.94094
3.73798
3.54291
3.35579
3.17656
3.00519
2.84154
2.68551
2.5369
2.39553
2.26118
2.13362
2.0126
1.89787
1.78917
1.68624
1.58881
1.49663
1.40944
1.32702
1.24908
1.17544
1.10583
1.04006
0.977905
0.91919
0.863704
0.811296
0.761774
0.715009
0.670824
0.629109
0.589701
0.552511
0.517385
0.484253
0.452971
0.423485
0.395655
0.369442
0.344708
0.321424
0.299455
0.278787
0.259285
0.240954
0.223662
0.207435
0.192142
0.177825
0.164348
0.151764
0.139924
0.128889
0.118502
0.108835
0.099726
0.0912639
0.0832828
0.0758909
0.0689173
0.0624854
0.0564169
0.0508475
0.0455895
0.0407913
0.0362551
0.0321443
0.0282514
0.0247588
0.0214474
0.0185223
0.0157487
0.0133562
0.0110882
0.00919804
0.00740045
0.00597164
0.00459339
0.00356555
0.00253609
0.00183238
0.00107096
0.000612057
4.29707e-05
-0.000238386
-0.000672892
-0.000822481
-0.00115825
-0.00120253
-0.0014592
-0.00141242
-0.00159455
-0.00145602
-0.00154867
-0.00129979
-0.0012384
-0.000831651
-0.000652923
-0.000227348
-0.000189174
0.00112921
13.8642
13.8636
13.8623
13.8601
13.8573
13.8537
13.8495
13.8446
13.839
13.8327
13.8257
13.818
13.8097
13.8007
13.791
13.7806
13.7695
13.7578
13.7453
13.7322
13.7183
13.7037
13.6883
13.6721
13.6551
13.6373
13.6186
13.599
13.5785
13.557
13.5345
13.5109
13.4861
13.4602
13.4331
13.4047
13.3749
13.3436
13.3108
13.2765
13.2404
13.2026
13.1629
13.1212
13.0774
13.0315
12.9832
12.9325
12.8792
12.8231
12.7642
12.7023
12.6372
12.5687
12.4967
12.4209
12.3411
12.2572
12.1688
12.0757
11.9777
11.8744
11.7656
11.6509
11.5299
11.4025
11.268
11.1263
10.9768
10.8193
10.6532
10.4783
10.2943
10.1008
9.89758
9.68463
9.46189
9.22952
8.9878
8.7372
8.4784
8.21226
7.93982
7.66231
7.38104
7.09743
6.81291
6.52892
6.2468
5.96785
5.69323
5.42398
5.16101
4.90507
4.65678
4.41665
4.18505
3.96227
3.74845
3.54369
3.34798
3.16126
2.98338
2.81419
2.65346
2.50096
2.35644
2.21961
2.09018
1.96785
1.8523
1.74322
1.6403
1.54322
1.45166
1.36534
1.28394
1.20721
1.13485
1.06664
1.00229
0.941615
0.884365
0.830361
0.779392
0.731305
0.685912
0.643089
0.602664
0.564536
0.528546
0.49461
0.462578
0.432379
0.403874
0.377011
0.351659
0.327787
0.305268
0.284086
0.264117
0.245354
0.227668
0.211063
0.195408
0.180721
0.166873
0.153905
0.14169
0.130294
0.119582
0.10963
0.10029
0.0916407
0.0835168
0.0760027
0.0689252
0.0623816
0.0561978
0.0504907
0.0450877
0.0401249
0.0354278
0.0311485
0.0271046
0.0234615
0.020024
0.0169712
0.0140924
0.0115842
0.00921808
0.00721316
0.00531977
0.00378272
0.00232541
0.00121862
0.000152934
-0.00057546
-0.00131243
-0.00173473
-0.00222434
-0.00242655
-0.00275684
-0.00282188
-0.00306676
-0.00305266
-0.00325431
-0.00318517
-0.00335248
-0.00322399
-0.00333797
-0.00312343
-0.00314263
-0.00279891
-0.00263521
-0.00208937
-0.00174645
-0.00110229
-0.000760893
0.000928094
13.8845
13.884
13.8826
13.8804
13.8776
13.874
13.8698
13.8649
13.8593
13.8531
13.8462
13.8386
13.8304
13.8216
13.8121
13.802
13.7913
13.7799
13.7679
13.7552
13.7419
13.7279
13.7132
13.6978
13.6817
13.6647
13.647
13.6285
13.6091
13.5889
13.5677
13.5455
13.5222
13.4979
13.4724
13.4457
13.4178
13.3885
13.3577
13.3255
13.2917
13.2562
13.2189
13.1798
13.1386
13.0954
13.05
13.0022
12.9519
12.8991
12.8434
12.7849
12.7232
12.6582
12.5898
12.5178
12.4418
12.3617
12.2772
12.188
12.0939
11.9944
11.8894
11.7783
11.6608
11.5365
11.4049
11.2655
11.1177
10.9611
10.7951
10.6191
10.4327
10.2353
10.0266
9.80619
9.57396
9.32993
9.07431
8.80763
8.53065
8.24445
7.95038
7.65005
7.34527
7.03798
6.7301
6.42352
6.12001
5.82116
5.5284
5.24294
4.9658
4.69777
4.43946
4.19131
3.95359
3.72646
3.50996
3.30403
3.10854
2.92329
2.74801
2.58238
2.42607
2.2787
2.13989
2.00926
1.88641
1.77095
1.66249
1.56065
1.46504
1.37531
1.29107
1.21198
1.13771
1.06795
1.00237
0.940713
0.882697
0.828096
0.776667
0.728225
0.682561
0.639526
0.598936
0.560671
0.524571
0.490542
0.458443
0.428202
0.399686
0.372835
0.347516
0.323678
0.301193
0.280024
0.260053
0.241262
0.22354
0.206892
0.19121
0.176512
0.162684
0.149748
0.137575
0.126199
0.115486
0.105493
0.0960894
0.087362
0.0791773
0.0716347
0.0645828
0.0581175
0.0520639
0.0465125
0.0412763
0.0364548
0.0318669
0.0276349
0.0235908
0.0198835
0.0163521
0.0131676
0.0101639
0.00752833
0.00507669
0.00300802
0.00111093
-0.000402676
-0.00177621
-0.00278094
-0.003695
-0.00426696
-0.00480932
-0.00504134
-0.00530841
-0.00529526
-0.00538017
-0.00521088
-0.00520024
-0.00495499
-0.00492177
-0.00465799
-0.00464293
-0.00437873
-0.00438066
-0.00409633
-0.00407806
-0.00372816
-0.00363552
-0.00317475
-0.00292198
-0.00229231
-0.00191608
-0.00123724
-0.000946436
0.00108454
13.9077
13.9071
13.9057
13.9036
13.9007
13.8971
13.8928
13.8879
13.8823
13.8761
13.8692
13.8618
13.8537
13.845
13.8358
13.8259
13.8155
13.8045
13.7929
13.7807
13.768
13.7546
13.7406
13.726
13.7108
13.6949
13.6782
13.6609
13.6427
13.6238
13.604
13.5834
13.5618
13.5393
13.5157
13.491
13.4651
13.438
13.4096
13.3798
13.3485
13.3157
13.2812
13.245
13.2069
13.1668
13.1247
13.0803
13.0336
12.9844
12.9325
12.8779
12.8202
12.7595
12.6954
12.6277
12.5563
12.4808
12.4011
12.3168
12.2275
12.133
12.0329
11.9267
11.814
11.6942
11.5668
11.4311
11.2865
11.1323
10.9677
10.7918
10.604
10.4034
10.1892
9.96093
9.71798
9.46015
9.18752
8.90057
8.60022
8.28792
7.96553
7.63531
7.29977
6.96157
6.62338
6.28774
5.95697
5.63313
5.31795
5.01284
4.71891
4.43696
4.16753
3.91094
3.66727
3.43648
3.21836
3.01267
2.81903
2.63705
2.46628
2.30623
2.15641
2.01628
1.88533
1.76302
1.64885
1.54232
1.44295
1.35027
1.26382
1.1832
1.10796
1.03773
0.972103
0.910739
0.853286
0.799443
0.748909
0.701441
0.656792
0.614783
0.575218
0.537965
0.502862
0.469801
0.438633
0.409269
0.381576
0.355491
0.330898
0.307754
0.285953
0.265458
0.246155
0.228013
0.210914
0.194834
0.179663
0.165396
0.151929
0.13929
0.127388
0.116276
0.105853
0.096173
0.0871081
0.0787087
0.0708289
0.0635413
0.0567028
0.0504185
0.0445448
0.0392013
0.0342245
0.0297225
0.025505
0.0216655
0.0180057
0.0146253
0.011343
0.00828578
0.00529926
0.00254654
-0.000107609
-0.00246634
-0.00466777
-0.00649431
-0.00811375
-0.00929931
-0.0102673
-0.0107903
-0.0111439
-0.0111011
-0.0109915
-0.0105769
-0.0102245
-0.0096636
-0.00928025
-0.00875095
-0.00847528
-0.0080656
-0.0079411
-0.00764361
-0.00762603
-0.00735783
-0.00734417
-0.00698607
-0.0068543
-0.00629269
-0.00594213
-0.00511823
-0.00447576
-0.00338413
-0.00257146
-0.00144529
-0.000999657
0.00164853
13.9338
13.9332
13.9318
13.9295
13.9265
13.9229
13.9185
13.9135
13.9079
13.9016
13.8948
13.8874
13.8794
13.8709
13.8618
13.8523
13.8422
13.8316
13.8206
13.809
13.7969
13.7843
13.7712
13.7575
13.7433
13.7285
13.7131
13.6971
13.6804
13.663
13.6449
13.626
13.6063
13.5857
13.5642
13.5417
13.5182
13.4935
13.4677
13.4406
13.4122
13.3823
13.351
13.318
13.2832
13.2467
13.2082
13.1676
13.1248
13.0797
13.0322
12.9819
12.9289
12.8729
12.8137
12.7512
12.685
12.615
12.5409
12.4623
12.3791
12.2907
12.1968
12.0968
11.9904
11.8768
11.7555
11.6256
11.4863
11.3366
11.1756
11.002
10.8148
10.6125
10.3941
10.1583
9.90413
9.63079
9.33791
9.0257
8.69507
8.34786
7.98686
7.61571
7.23842
6.85899
6.48113
6.10822
5.74327
5.38887
5.04705
4.71937
4.40685
4.11018
3.82967
3.56539
3.31714
3.08455
2.86709
2.66417
2.47512
2.29925
2.13586
1.98424
1.84367
1.71349
1.59298
1.4815
1.3784
1.28307
1.19493
1.11344
1.03807
0.968335
0.903767
0.843934
0.7884
0.736782
0.688692
0.6438
0.601779
0.562371
0.525327
0.490471
0.45763
0.426698
0.397546
0.370104
0.344259
0.31995
0.297058
0.275525
0.255235
0.236148
0.218168
0.201274
0.185376
0.170459
0.156426
0.143262
0.130869
0.119236
0.108261
0.0979455
0.0881926
0.0790482
0.0704413
0.0624638
0.0550354
0.048247
0.0419697
0.0362804
0.0310154
0.0262616
0.0218456
0.0178782
0.0141837
0.0108872
0.00780485
0.00505359
0.00243595
5.06752e-05
-0.00229712
-0.0045065
-0.00674072
-0.00886599
-0.0110018
-0.0129645
-0.0148467
-0.0164191
-0.017786
-0.0186919
-0.019298
-0.0193515
-0.0191037
-0.0183208
-0.0173426
-0.0159558
-0.0145694
-0.0129793
-0.0116269
-0.0102737
-0.00934838
-0.00852527
-0.00820096
-0.00792973
-0.00810194
-0.00815485
-0.00852079
-0.00855427
-0.00878509
-0.00851407
-0.00840049
-0.00770949
-0.00718622
-0.00609218
-0.00519877
-0.00374917
-0.00255278
0.000831682
13.9628
13.9622
13.9607
13.9584
13.9552
13.9514
13.9469
13.9417
13.9359
13.9295
13.9225
13.915
13.907
13.8985
13.8896
13.8801
13.8703
13.86
13.8493
13.8383
13.8268
13.8148
13.8025
13.7898
13.7766
13.7629
13.7488
13.7341
13.7189
13.7032
13.6868
13.6698
13.6522
13.6338
13.6146
13.5946
13.5736
13.5518
13.5288
13.5048
13.4796
13.4531
13.4252
13.3959
13.365
13.3324
13.298
13.2618
13.2235
13.183
13.1402
13.095
13.0472
12.9966
12.9431
12.8864
12.8263
12.7626
12.6951
12.6235
12.5473
12.4664
12.3802
12.2882
12.19
12.0848
11.9719
11.8505
11.7194
11.5775
11.4234
11.2556
11.0723
10.8717
10.6516
10.41
10.1451
9.8552
9.53921
9.1969
8.82898
8.43739
8.0256
7.59896
7.16417
6.72805
6.2965
5.87438
5.46567
5.07355
4.70024
4.34713
4.01491
3.70374
3.41335
3.14326
2.89273
2.66092
2.44688
2.24961
2.06808
1.90128
1.74821
1.60792
1.47948
1.36202
1.25469
1.15669
1.06724
0.985634
0.911178
0.843245
0.781233
0.724599
0.672812
0.625391
0.581858
0.541778
0.504715
0.47029
0.438139
0.407982
0.379583
0.352815
0.327562
0.30376
0.281307
0.260151
0.240217
0.221488
0.203894
0.187408
0.171938
0.157438
0.143807
0.131013
0.118972
0.10767
0.0970311
0.0870484
0.0776472
0.0688355
0.060546
0.0527913
0.0454811
0.0386246
0.0321278
0.0260623
0.0203727
0.0152005
0.010477
0.00634496
0.00267042
-0.000436105
-0.00317653
-0.00547397
-0.00757013
-0.0093872
-0.0111486
-0.012746
-0.0143668
-0.015897
-0.0175048
-0.0190885
-0.0207842
-0.0224741
-0.0242402
-0.0259266
-0.0275786
-0.0289847
-0.0301703
-0.0308707
-0.0311624
-0.0307918
-0.0299565
-0.028449
-0.0265989
-0.0242405
-0.0217896
-0.0190945
-0.0166249
-0.014233
-0.0123882
-0.0108482
-0.0100238
-0.0094962
-0.00962192
-0.00979136
-0.010373
-0.0105981
-0.0109378
-0.0105981
-0.0102765
-0.00924553
-0.0083891
-0.00704613
-0.00613168
-0.00504335
-0.00328192
-0.00192176
13.9951
13.9944
13.9928
13.9902
13.9868
13.9827
13.9779
13.9725
13.9664
13.9599
13.9528
13.9453
13.9373
13.9289
13.9202
13.9111
13.9016
13.8918
13.8817
13.8713
13.8606
13.8495
13.8382
13.8265
13.8145
13.8021
13.7894
13.7762
13.7627
13.7487
13.7343
13.7193
13.7038
13.6877
13.671
13.6535
13.6354
13.6164
13.5965
13.5757
13.5538
13.5309
13.5067
13.4812
13.4544
13.4261
13.3961
13.3644
13.3309
13.2955
13.2579
13.2181
13.1759
13.1312
13.0838
13.0335
12.9802
12.9236
12.8635
12.7997
12.7318
12.6596
12.5826
12.5004
12.4125
12.3181
12.2165
12.1068
11.9878
11.8581
11.716
11.5594
11.386
11.1929
10.9768
10.734
10.4606
10.1528
9.80742
9.42313
9.00129
8.54661
8.06584
7.56697
7.05901
6.5509
6.0507
5.56553
5.10116
4.66166
4.24939
3.86545
3.51003
3.18259
2.88204
2.60699
2.35589
2.12718
1.9193
1.73074
1.56003
1.40577
1.26662
1.14135
1.02878
0.927822
0.837449
0.756709
0.68469
0.620555
0.563504
0.512812
0.467793
0.427827
0.392316
0.360716
0.332482
0.307109
0.284085
0.26294
0.243211
0.224521
0.206611
0.189458
0.173122
0.157666
0.143067
0.129314
0.116362
0.104213
0.0928348
0.0822444
0.0724035
0.0633033
0.0548621
0.0470298
0.0397092
0.0328569
0.0264035
0.0203253
0.0145598
0.00909156
0.00387932
-0.00103593
-0.00566177
-0.00994536
-0.01395
-0.0176415
-0.0211015
-0.0242056
-0.0269917
-0.029253
-0.0310633
-0.0322256
-0.0329139
-0.0330237
-0.0328504
-0.0323774
-0.0319396
-0.0315362
-0.031444
-0.031619
-0.032233
-0.0331913
-0.0345568
-0.0361691
-0.0379826
-0.0397958
-0.041544
-0.0429987
-0.0440875
-0.0445183
-0.0442838
-0.0430975
-0.041105
-0.0381183
-0.0345166
-0.0302816
-0.0259696
-0.0216197
-0.0177373
-0.0143299
-0.0118057
-0.0100354
-0.00927937
-0.00917789
-0.00986205
-0.0107842
-0.0122416
-0.0134731
-0.014773
-0.015127
-0.0151968
-0.0140702
-0.0125456
-0.00966565
-0.00643043
-0.00313927
0.000986493
-0.00209844
14.0307
14.03
14.0281
14.0252
14.0214
14.0167
14.0114
14.0053
13.9986
13.9914
13.9837
13.9757
13.9672
13.9585
13.9495
13.9402
13.9307
13.9211
13.9112
13.9012
13.891
13.8807
13.8702
13.8596
13.8487
13.8377
13.8265
13.815
13.8033
13.7913
13.779
13.7663
13.7533
13.7399
13.726
13.7115
13.6965
13.6809
13.6645
13.6474
13.6294
13.6105
13.5906
13.5695
13.5472
13.5237
13.4987
13.4721
13.444
13.4141
13.3822
13.3484
13.3125
13.2742
13.2336
13.1904
13.1445
13.0957
13.0439
12.9888
12.9302
12.868
12.8016
12.731
12.6554
12.5744
12.4874
12.3933
12.291
12.1791
12.0556
11.9183
11.7642
11.5895
11.3896
11.1591
10.8911
10.5778
10.2101
9.77887
9.27873
8.71475
8.10661
7.48035
6.8556
6.24229
5.64731
5.07877
4.54403
4.04738
3.59028
3.17265
2.79356
2.45141
2.14407
1.86914
1.62409
1.40647
1.21389
1.04411
0.894994
0.764529
0.650815
0.552101
0.466768
0.393349
0.330502
0.277018
0.231785
0.193811
0.162183
0.136095
0.114806
0.0976586
0.0840329
0.0733552
0.0650461
0.0585286
0.0531875
0.0484096
0.043617
0.0383589
0.0324729
0.0262098
0.019867
0.0136091
0.0075082
0.00166332
-0.00387029
-0.00905113
-0.0138938
-0.0183637
-0.0224601
-0.0261362
-0.0294243
-0.0323311
-0.0349444
-0.0373189
-0.0395547
-0.0416965
-0.0438021
-0.0459135
-0.0480875
-0.0503417
-0.0526488
-0.0549095
-0.0570425
-0.0589456
-0.0606345
-0.0620192
-0.0631101
-0.063705
-0.0638323
-0.0632601
-0.0621329
-0.0603046
-0.0580702
-0.0553822
-0.0526513
-0.0499509
-0.0477224
-0.0460915
-0.0453787
-0.045625
-0.0468849
-0.0490129
-0.0517856
-0.054898
-0.0579828
-0.0606466
-0.0625525
-0.0633651
-0.0629525
-0.0610138
-0.057659
-0.0527002
-0.046583
-0.0393556
-0.0318061
-0.0243799
-0.017944
-0.0127442
-0.00929542
-0.00755594
-0.00758543
-0.00882897
-0.0110237
-0.0132719
-0.0155929
-0.0174296
-0.0191697
-0.0202157
-0.0212629
-0.0218973
-0.0231944
-0.0235532
-0.022381
-0.018367
-0.00957284
-0.00610277
14.0703
14.0694
14.0671
14.0637
14.0593
14.0541
14.0483
14.0419
14.0349
14.0276
14.0198
14.0117
14.0033
13.9947
13.9859
13.9769
13.9678
13.9586
13.9492
13.9398
13.9303
13.9208
13.9112
13.9015
13.8918
13.882
13.8721
13.8621
13.8521
13.8419
13.8315
13.821
13.8103
13.7993
13.7881
13.7765
13.7645
13.7521
13.7391
13.7256
13.7115
13.6966
13.6809
13.6643
13.6467
13.628
13.6081
13.5868
13.5642
13.54
13.5142
13.4866
13.4571
13.4256
13.392
13.3562
13.3181
13.2775
13.2344
13.1886
13.14
13.0885
13.0339
12.976
12.9145
12.8491
12.7792
12.7043
12.6233
12.5351
12.4378
12.3288
12.2048
12.0611
11.8915
11.6882
11.4418
11.1415
10.7762
10.3299
9.78415
9.10995
8.31518
7.46518
6.61966
5.8048
5.03454
4.32239
3.67739
3.10216
2.5951
2.15248
1.76919
1.43939
1.15698
0.91619
0.711704
0.538822
0.393411
0.271908
0.171169
0.0884472
0.0212739
-0.0325169
-0.0748601
-0.107429
-0.131707
-0.148959
-0.160303
-0.166679
-0.168913
-0.167687
-0.163603
-0.157152
-0.148788
-0.138903
-0.12792
-0.116312
-0.104763
-0.0942434
-0.0862473
-0.0818858
-0.0802216
-0.0796663
-0.0795089
-0.079673
-0.0801091
-0.080645
-0.0811504
-0.0815529
-0.081844
-0.0819923
-0.0819846
-0.0817856
-0.0814082
-0.0808629
-0.0802017
-0.0794672
-0.078743
-0.0781124
-0.0776574
-0.0774448
-0.0775097
-0.0778985
-0.0786142
-0.0796211
-0.0807909
-0.0819492
-0.0829763
-0.0837011
-0.08406
-0.0838069
-0.0828749
-0.0810345
-0.0784527
-0.0750472
-0.0710826
-0.0665541
-0.0618699
-0.0572162
-0.0530946
-0.0497715
-0.0476632
-0.0469898
-0.0478424
-0.0502255
-0.0539144
-0.0587218
-0.0639946
-0.0691315
-0.0732695
-0.0758514
-0.0763706
-0.0744745
-0.070126
-0.0632889
-0.0544719
-0.0441201
-0.0329261
-0.0216476
-0.0117029
-0.00379128
0.0013587
0.00328463
0.00232338
-0.0010073
-0.0063033
-0.012487
-0.0184438
-0.0222363
-0.023732
-0.0230885
-0.0211561
-0.017748
-0.0152348
-0.0146186
-0.0175287
-0.0207538
-0.0192468
-0.0101931
14.1145
14.1134
14.1105
14.1057
14.0996
14.0924
14.0844
14.0759
14.0669
14.0577
14.0483
14.0389
14.0294
14.0199
14.0105
14.0012
13.992
13.983
13.974
13.9652
13.9566
13.9481
13.9397
13.9315
13.9233
13.9153
13.9074
13.8996
13.8919
13.8842
13.8765
13.8689
13.8612
13.8535
13.8456
13.8376
13.8294
13.821
13.8123
13.8031
13.7935
13.7834
13.7727
13.7612
13.7489
13.7357
13.7215
13.7061
13.6896
13.6716
13.6522
13.6312
13.6085
13.5841
13.5578
13.5296
13.4994
13.4671
13.4327
13.3963
13.3577
13.3171
13.2744
13.2297
13.183
13.1343
13.0837
13.0311
12.9762
12.9186
12.8573
12.7906
12.7155
12.6267
12.5152
12.3664
12.1564
11.8533
11.4137
10.8053
10.018
9.12055
8.11795
7.0696
6.01454
4.98407
4.02974
3.19315
2.48742
1.90691
1.43851
1.06613
0.772683
0.541988
0.360178
0.216126
0.101318
0.00938706
-0.0642935
-0.123108
-0.169534
-0.205503
-0.232546
-0.251974
-0.264887
-0.272274
-0.274972
-0.273742
-0.269219
-0.261974
-0.252464
-0.241104
-0.228208
-0.214065
-0.198884
-0.182859
-0.166113
-0.148774
-0.131035
-0.113387
-0.0984684
-0.0915396
-0.0895932
-0.0889382
-0.0886094
-0.0886912
-0.0890837
-0.0895599
-0.0899859
-0.0903053
-0.0904887
-0.0904943
-0.0902955
-0.089859
-0.0891879
-0.0882925
-0.0872395
-0.0861107
-0.0849838
-0.0839445
-0.0830921
-0.0825458
-0.0823506
-0.0825536
-0.0831492
-0.0841273
-0.0853408
-0.0866934
-0.0879963
-0.0890557
-0.089759
-0.0898979
-0.0891727
-0.0873314
-0.0844854
-0.0806615
-0.0761059
-0.0708684
-0.065296
-0.0597048
-0.0546586
-0.0506324
-0.0481251
-0.0474065
-0.0484846
-0.0512762
-0.0555711
-0.0612764
-0.0678303
-0.0745978
-0.0805482
-0.0849415
-0.0868189
-0.0856412
-0.081075
-0.0732021
-0.062341
-0.0493433
-0.0357218
-0.0222783
-0.0100679
-0.000527855
0.00512157
0.00705246
0.00548573
0.00120882
-0.00490472
-0.0127053
-0.0222489
-0.0304412
-0.0355839
-0.0369877
-0.0367157
-0.0346825
-0.0277918
-0.016996
-0.00810526
-0.00528137
-0.00564584
-0.00223575
14.1646
14.1632
14.1598
14.1549
14.1488
14.1419
14.1341
14.1256
14.1165
14.107
14.0972
14.0873
14.0774
14.0674
14.0575
14.0477
14.038
14.0286
14.0193
14.0103
14.0016
13.9932
13.985
13.9771
13.9696
13.9623
13.9553
13.9486
13.9422
13.936
13.9301
13.9245
13.919
13.9137
13.9086
13.9036
13.8986
13.8936
13.8885
13.8834
13.878
13.8723
13.8663
13.8598
13.8528
13.845
13.8365
13.8271
13.8166
13.805
13.7922
13.7779
13.7622
13.745
13.7261
13.7055
13.6832
13.6592
13.6336
13.6064
13.5778
13.548
13.5172
13.486
13.4546
13.4239
13.3944
13.3673
13.3437
13.3253
13.3142
13.3126
13.3231
13.3478
13.3864
13.434
13.4652
13.4374
13.1878
12.572
10.9708
8.89288
7.17093
5.89603
4.80792
3.82875
2.99065
2.30581
1.75854
1.32527
0.983535
0.713984
0.50036
0.329763
0.192375
0.0810609
-0.00938151
-0.0826935
-0.141692
-0.188509
-0.224902
-0.252314
-0.272037
-0.285174
-0.292729
-0.295557
-0.294428
-0.289981
-0.28279
-0.273314
-0.261966
-0.249067
-0.234908
-0.219711
-0.203686
-0.186997
-0.169816
-0.152315
-0.134779
-0.117718
-0.104585
-0.0996593
-0.0983593
-0.0975252
-0.0967321
-0.0961674
-0.0958025
-0.0955248
-0.0952672
-0.0949764
-0.0946112
-0.0941076
-0.0934317
-0.0925419
-0.0914533
-0.0901659
-0.088725
-0.0871983
-0.0856936
-0.084319
-0.0832034
-0.0824583
-0.0821664
-0.0823589
-0.0831016
-0.0842946
-0.0858583
-0.0875631
-0.0892644
-0.090567
-0.0915327
-0.0918161
-0.0912566
-0.089464
-0.0864731
-0.0821535
-0.0768053
-0.0705678
-0.0638948
-0.0571491
-0.0508792
-0.0456409
-0.042081
-0.0407897
-0.0419947
-0.0455244
-0.0511403
-0.0583026
-0.0665845
-0.0748214
-0.082554
-0.0883072
-0.0917261
-0.0911811
-0.0868779
-0.0780499
-0.0655686
-0.0496937
-0.0325868
-0.0157402
-0.000500181
0.010979
0.0173349
0.0189279
0.0156879
0.00864934
0.00020889
-0.00894605
-0.0190694
-0.0268555
-0.0326726
-0.0353457
-0.0367004
-0.0384089
-0.0403462
-0.0363346
-0.0304476
-0.0233005
-0.0153964
-0.00544823
14.2235
14.2197
14.2099
14.1961
14.182
14.1687
14.156
14.1434
14.1311
14.1193
14.1081
14.0975
14.0873
14.0775
14.0683
14.0594
14.051
14.043
14.0354
14.0282
14.0214
14.0151
14.0091
14.0036
13.9985
13.9938
13.9895
13.9856
13.9822
13.9792
13.9765
13.9743
13.9724
13.9709
13.9698
13.9689
13.9682
13.9678
13.9675
13.9672
13.967
13.9667
13.9662
13.9655
13.9643
13.9627
13.9604
13.9574
13.9535
13.9487
13.9427
13.9356
13.9272
13.9175
13.9065
13.894
13.8803
13.8653
13.8493
13.8324
13.8149
13.7973
13.7799
13.7633
13.7484
13.7358
13.7269
13.7229
13.7258
13.7382
13.7642
13.8103
13.8866
14.009
14.1993
14.4914
14.918
15.557
16.3568
17.583
17.4685
13.1999
9.71916
7.36154
5.48217
4.04345
2.99917
2.24024
1.68705
1.27963
0.972955