/*--------------------------------*- C++ -*----------------------------------*\
  =========                 |
  \\      /  F ield         | OpenFOAM: The Open Source CFD Toolbox
   \\    /   O peration     | Website:  https://openfoam.org
    \\  /    A nd           | Version:  10
     \\/     M anipulation  |
\*---------------------------------------------------------------------------*/
FoamFile
{
    format      ascii;
    class       surfaceScalarField;
    location    "1.5";
    object      phi;
}
// * * * * * * * * * * * * * * * * * * * * * * * * * * * * * * * * * * * * * //

dimensions      [0 3 -1 0 0 0 0];

internalField   nonuniform List<scalar> 
24170
(
-1.22974e-12
1.22974e-12
-2.87127e-12
1.64153e-12
-5.39143e-12
2.52016e-12
-9.35017e-12
3.95873e-12
-1.54721e-11
6.12197e-12
-2.47093e-11
9.23711e-12
-3.82932e-11
1.35839e-11
-5.77709e-11
1.94777e-11
-8.50132e-11
2.72423e-11
-1.22186e-10
3.71725e-11
-1.71687e-10
4.95009e-11
-2.36089e-10
6.44024e-11
-3.18215e-10
8.21259e-11
-4.21677e-10
1.03462e-10
-5.5283e-10
1.31153e-10
-7.27487e-10
1.74657e-10
-9.98998e-10
2.71511e-10
6.24994e-10
-1.62399e-09
-1.29593e-12
2.52567e-12
-3.0283e-12
3.37391e-12
-5.69164e-12
5.18349e-12
-9.8793e-12
8.1464e-12
-1.63597e-11
1.26024e-11
-2.61433e-11
1.90207e-11
-4.05389e-11
2.79796e-11
-6.11935e-11
4.01323e-11
-9.01019e-11
5.61507e-11
-1.29578e-10
7.66482e-11
-1.82182e-10
1.02106e-10
-2.50651e-10
1.32871e-10
-3.37918e-10
1.69393e-10
-4.47543e-10
2.13087e-10
-5.85199e-10
2.68808e-10
-7.62807e-10
3.52266e-10
-1.00639e-09
5.15089e-10
9.3442e-10
-1.31581e-09
-1.33674e-12
3.86241e-12
-3.12963e-12
5.16679e-12
-5.89491e-12
7.94877e-12
-1.02525e-11
1.2504e-11
-1.70064e-11
1.93563e-11
-2.7216e-11
2.92303e-11
-4.2258e-11
4.30215e-11
-6.38703e-11
6.17446e-11
-9.41672e-11
8.64476e-11
-1.3561e-10
1.18091e-10
-1.90927e-10
1.57423e-10
-2.62999e-10
2.04943e-10
-3.54788e-10
2.61182e-10
-4.69466e-10
3.27765e-10
-6.10974e-10
4.10316e-10
-7.84496e-10
5.25788e-10
-9.89415e-10
7.20009e-10
1.09605e-09
-1.15104e-09
-1.34053e-12
5.20294e-12
-3.1494e-12
6.97567e-12
-5.95561e-12
1.0755e-11
-1.03951e-11
1.69435e-11
-1.72949e-11
2.6256e-11
-2.77485e-11
3.96839e-11
-4.31843e-11
5.84573e-11
-6.54166e-11
8.39769e-11
-9.66683e-11
1.17699e-10
-1.39545e-10
1.60968e-10
-1.96946e-10
2.14823e-10
-2.71893e-10
2.7989e-10
-3.67306e-10
3.56595e-10
-4.85718e-10
4.46177e-10
-6.28733e-10
5.53331e-10
-7.94595e-10
6.9165e-10
-9.66139e-10
8.91553e-10
1.19515e-09
-1.06525e-09
-1.293e-12
6.49594e-12
-3.05592e-12
8.73859e-12
-5.81767e-12
1.35167e-11
-1.02153e-11
2.13412e-11
-1.70803e-11
3.3121e-11
-2.75188e-11
5.01225e-11
-4.29864e-11
7.39249e-11
-6.53497e-11
1.0634e-10
-9.69217e-11
1.49271e-10
-1.40447e-10
2.04493e-10
-1.99001e-10
2.73377e-10
-2.75767e-10
3.56656e-10
-3.7362e-10
4.54448e-10
-4.94396e-10
5.66954e-10
-6.37395e-10
6.9633e-10
-7.95514e-10
8.49769e-10
-9.4472e-10
1.04076e-09
1.27457e-09
-1.02414e-09
-1.17721e-12
7.67315e-12
-2.8115e-12
1.03729e-11
-5.41439e-12
1.61196e-11
-9.60354e-12
2.55303e-11
-1.61894e-11
3.97069e-11
-2.62598e-11
6.01928e-11
-4.12622e-11
8.89273e-11
-6.30795e-11
1.28158e-10
-9.40842e-11
1.80276e-10
-1.37145e-10
2.47554e-10
-1.95534e-10
3.31766e-10
-2.72654e-10
4.33776e-10
-3.71454e-10
5.53248e-10
-4.93295e-10
6.88795e-10
-6.35817e-10
8.38852e-10
-7.88889e-10
1.00284e-09
-9.27883e-10
1.17975e-09
1.35658e-09
-1.00989e-09
-9.73811e-13
8.64696e-12
-2.37316e-12
1.17722e-11
-4.66957e-12
1.8416e-11
-8.43423e-12
2.9295e-11
-1.44225e-11
4.56951e-11
-2.36614e-11
6.94317e-11
-3.7541e-11
1.02807e-10
-5.79065e-11
1.48523e-10
-8.71422e-11
2.09512e-10
-1.28215e-10
2.88627e-10
-1.8462e-10
3.8817e-10
-2.60098e-10
5.09255e-10
-3.57948e-10
6.51097e-10
-4.79613e-10
8.10461e-10
-6.22216e-10
9.81455e-10
-7.74905e-10
1.15553e-09
-9.1541e-10
1.32026e-09
1.45456e-09
-1.01339e-09
-6.61918e-13
9.30887e-12
-1.69444e-12
1.28048e-11
-3.50076e-12
2.02223e-11
-6.57111e-12
3.23654e-11
-1.15613e-11
5.06853e-11
-1.93815e-11
7.72519e-11
-3.12957e-11
1.14721e-10
-4.90347e-11
1.66262e-10
-7.49186e-11
2.35395e-10
-1.11964e-10
3.25672e-10
-1.63909e-10
4.40116e-10
-2.35015e-10
5.8036e-10
-3.29384e-10
7.45467e-10
-4.49457e-10
9.30534e-10
-5.93394e-10
1.12539e-09
-7.51693e-10
1.31383e-09
-9.05255e-10
1.47382e-09
1.57946e-09
-1.03015e-09
-2.20698e-13
9.52957e-12
-7.2901e-13
1.33131e-11
-1.82566e-12
2.1319e-11
-3.87759e-12
3.44173e-11
-7.38495e-12
5.41927e-11
-1.30683e-11
8.29352e-11
-2.19741e-11
1.23627e-10
-3.5609e-11
1.79897e-10
-5.6111e-11
2.55897e-10
-8.64495e-11
3.56011e-10
-1.30598e-10
4.84265e-10
-1.93537e-10
6.43299e-10
-2.80794e-10
8.32723e-10
-3.9708e-10
1.04682e-09
-5.43616e-10
1.27193e-09
-7.14411e-10
1.48462e-09
-8.93586e-10
1.65299e-09
1.74407e-09
-1.0582e-09
3.6789e-13
9.16168e-12
5.63201e-13
1.31178e-11
4.26807e-13
2.14554e-11
-2.35097e-13
3.50792e-11
-1.69862e-12
5.56562e-11
-4.40358e-12
8.56401e-11
-9.05958e-12
1.28283e-10
-1.67962e-11
1.87634e-10
-2.93877e-11
2.68489e-10
-4.95724e-11
3.76195e-10
-8.14503e-11
5.16143e-10
-1.30856e-10
6.92706e-10
-2.05419e-10
9.07286e-10
-3.13736e-10
1.15514e-09
-4.62841e-10
1.42103e-09
-6.53389e-10
1.67517e-09
-8.73646e-10
1.87325e-09
1.96741e-09
-1.09699e-09
1.11492e-12
8.04676e-12
2.20668e-12
1.2026e-11
3.29958e-12
2.03625e-11
4.42818e-12
3.39506e-11
5.62053e-12
5.44638e-11
6.82704e-12
8.44336e-11
7.82518e-12
1.27285e-10
8.06813e-12
1.87391e-10
6.41802e-12
2.70139e-10
6.99395e-13
3.81914e-10
-1.29873e-11
5.29829e-10
-4.11973e-11
7.20916e-10
-9.41342e-11
9.60223e-10
-1.86066e-10
1.24707e-09
-3.33704e-10
1.56867e-09
-5.50142e-10
1.89161e-09
-8.32465e-10
2.15558e-09
2.28203e-09
-1.14708e-09
1.63833e-12
6.40843e-12
3.39816e-12
1.02662e-11
5.47203e-12
1.82886e-11
8.108e-12
3.13146e-11
1.16327e-11
5.09391e-11
1.64006e-11
7.96658e-11
2.27355e-11
1.2095e-10
3.08273e-11
1.79299e-10
4.05044e-11
2.60462e-10
5.07889e-11
3.71629e-10
5.9098e-11
5.2152e-10
5.99276e-11
7.20086e-10
4.29301e-11
9.7722e-10
-9.29945e-12
1.2993e-09
-1.22215e-10
1.68159e-09
-3.25025e-10
2.09442e-09
-6.33799e-10
2.46435e-09
2.66573e-09
-1.0175e-09
2.77506e-12
3.63336e-12
5.87248e-12
7.16876e-12
9.73266e-12
1.44284e-11
1.49254e-11
2.61219e-11
2.22409e-11
4.36236e-11
3.26341e-11
6.92726e-11
4.7203e-11
1.06381e-10
6.71377e-11
1.59364e-10
9.35171e-11
2.34083e-10
1.26809e-10
3.38338e-10
1.65815e-10
4.82514e-10
2.05632e-10
6.80269e-10
2.34019e-10
9.48833e-10
2.25679e-10
1.30764e-09
1.35306e-10
1.77196e-09
-1.04736e-10
2.33446e-09
-5.63574e-10
2.92319e-09
3.33244e-09
-1.23028e-09
4.41707e-12
-7.83709e-13
9.45923e-12
2.1266e-12
1.59228e-11
7.96482e-12
2.48499e-11
1.71949e-11
3.77777e-11
3.06958e-11
5.66273e-11
5.04229e-11
8.3774e-11
7.92344e-11
1.22165e-10
1.20973e-10
1.75295e-10
1.80953e-10
2.46894e-10
2.66739e-10
3.39973e-10
3.89435e-10
4.54461e-10
5.65781e-10
5.81869e-10
8.21425e-10
6.94118e-10
1.19539e-09
7.2229e-10
1.74379e-09
5.23526e-10
2.53323e-09
-1.42036e-10
3.58875e-09
4.68019e-09
-1.48978e-09
6.58663e-12
-7.37034e-12
1.42144e-11
-5.50114e-12
2.41034e-11
-1.92425e-12
3.78587e-11
3.43965e-12
5.81754e-11
1.03791e-11
8.83811e-11
2.02172e-11
1.32706e-10
3.49092e-11
1.96815e-10
5.68642e-11
2.88263e-10
8.95051e-11
4.16969e-10
1.38033e-10
5.9555e-10
2.10854e-10
8.38914e-10
3.22418e-10
1.16123e-09
4.99105e-10
1.56473e-09
7.91894e-10
2.00401e-09
1.30451e-09
2.27947e-09
2.25776e-09
1.72781e-09
4.14041e-09
8.06961e-09
-1.66161e-09
9.00631e-12
-1.63767e-11
1.95876e-11
-1.60824e-11
3.32442e-11
-1.55808e-11
5.17584e-11
-1.50746e-11
7.9732e-11
-1.75945e-11
1.22197e-10
-2.22476e-11
1.85403e-10
-2.82975e-11
2.78259e-10
-3.59912e-11
4.13473e-10
-4.57094e-11
6.0955e-10
-5.80439e-11
8.94262e-10
-7.38583e-11
1.3111e-09
-9.44195e-11
1.93185e-09
-1.21644e-10
2.88227e-09
-1.58533e-10
4.39672e-09
-2.09942e-10
6.93842e-09
-2.83938e-10
1.14731e-08
-3.9431e-10
-5.65641e-10
2.01084e-08
3.07529e-07
1.92154e-07
2.48526e-07
5.89873e-08
2.29619e-07
1.88912e-08
2.25569e-07
4.03466e-09
2.26709e-07
-1.15685e-09
2.29598e-07
-2.91163e-09
2.33875e-07
-4.30519e-09
2.39308e-07
-5.46912e-09
2.45789e-07
-6.52671e-09
2.5331e-07
-7.57938e-09
2.61948e-07
-8.7115e-09
2.71857e-07
-1.00035e-08
2.83281e-07
-1.15453e-08
2.96574e-07
-1.34519e-08
3.12246e-07
-1.58815e-08
3.3102e-07
-1.90582e-08
3.53921e-07
-2.32955e-08
-2.89987e-08
3.82354e-07
9.85635e-08
9.35909e-08
1.0405e-07
5.35008e-08
9.46215e-08
2.83197e-08
8.44223e-08
1.42339e-08
7.6832e-08
6.43342e-09
7.20698e-08
1.85052e-09
6.87843e-08
-1.01968e-09
6.62983e-08
-2.98312e-09
6.43792e-08
-4.60754e-09
6.28499e-08
-6.05011e-09
6.15474e-08
-7.40901e-09
6.02888e-08
-8.74484e-09
5.88317e-08
-1.00882e-08
5.6818e-08
-1.14383e-08
5.36891e-08
-1.27526e-08
4.85585e-08
-1.39275e-08
4.00287e-08
-1.47658e-08
-1.49326e-08
2.59626e-08
4.55137e-08
4.80772e-08
6.43757e-08
3.46387e-08
6.99259e-08
2.27695e-08
7.00619e-08
1.40979e-08
6.83959e-08
8.09942e-09
6.63169e-08
3.9295e-09
6.4369e-08
9.28249e-10
6.25784e-08
-1.19258e-09
6.07777e-08
-2.8068e-09
5.88751e-08
-4.14749e-09
5.67545e-08
-5.2884e-09
5.42775e-08
-6.2679e-09
5.12876e-08
-7.09823e-09
4.76201e-08
-7.77084e-09
4.31281e-08
-8.26058e-09
3.77315e-08
-8.53091e-09
3.15082e-08
-8.54251e-09
-8.26838e-09
2.48441e-08
1.77764e-08
3.03008e-08
2.86192e-08
2.3796e-08
3.42601e-08
1.71286e-08
3.67992e-08
1.15589e-08
3.76455e-08
7.25309e-09
3.75778e-08
3.99725e-09
3.69833e-08
1.52275e-09
3.61402e-08
-3.49469e-10
3.50509e-08
-1.71752e-09
3.3732e-08
-2.82856e-09
3.21787e-08
-3.73515e-09
3.03778e-08
-4.46703e-09
2.83174e-08
-5.03777e-09
2.5997e-08
-5.45048e-09
2.34393e-08
-5.70287e-09
2.07009e-08
-5.79254e-09
1.78808e-08
-5.72236e-09
-5.50567e-09
1.51181e-08
1.00515e-08
2.02493e-08
1.7216e-08
1.66315e-08
2.17372e-08
1.26074e-08
2.43386e-08
8.95755e-09
2.56634e-08
5.92827e-09
2.61544e-08
3.50625e-09
2.6085e-08
1.59213e-09
2.5656e-08
7.94948e-11
2.49552e-08
-1.01672e-09
2.40212e-08
-1.89455e-09
2.28833e-08
-2.59721e-09
2.15633e-08
-3.14708e-09
2.00834e-08
-3.55786e-09
1.84712e-08
-3.83823e-09
1.67635e-08
-3.99522e-09
1.50081e-08
-4.03711e-09
1.32613e-08
-3.97561e-09
-3.827e-09
1.15826e-08
6.2951e-09
1.39542e-08
1.116e-08
1.17666e-08
1.45566e-08
9.21073e-09
1.67473e-08
6.76684e-09
1.80354e-08
4.64021e-09
1.86684e-08
2.87326e-09
1.88241e-08
1.43636e-09
1.8625e-08
2.78623e-10
1.81964e-08
-5.88135e-10
1.75654e-08
-1.26352e-09
1.67678e-08
-1.7996e-09
1.58342e-08
-2.21351e-09
1.47935e-08
-2.51709e-09
1.36748e-08
-2.71962e-09
1.25095e-08
-2.82986e-09
1.133e-08
-2.85763e-09
1.01689e-08
-2.8145e-09
-2.71392e-09
9.05583e-09
4.2174e-09
9.73678e-09
7.63452e-09
8.34947e-09
1.01691e-08
6.67611e-09
1.19175e-08
5.01847e-09
1.30294e-08
3.52836e-09
1.36465e-08
2.25611e-09
1.38833e-08
1.19957e-09
1.38259e-08
3.3604e-10
1.35666e-08
-3.2885e-10
1.31427e-08
-8.39603e-10
1.25872e-08
-1.24409e-09
1.19284e-08
-1.55473e-09
1.11923e-08
-1.78102e-09
1.04037e-08
-1.93103e-09
9.58651e-09
-2.01264e-09
8.76312e-09
-2.03425e-09
7.95383e-09
-2.0052e-09
-1.93568e-09
7.17558e-09
2.95888e-09
6.77791e-09
5.42958e-09
5.87876e-09
7.33557e-09
4.77013e-09
8.70939e-09
3.64465e-09
9.62837e-09
2.60938e-09
1.01767e-08
1.70778e-09
1.04293e-08
9.46971e-10
1.04478e-08
3.17512e-10
1.02969e-08
-1.77911e-10
1.00126e-08
-5.55323e-10
9.62328e-09
-8.54768e-10
9.15334e-09
-1.08479e-09
8.62468e-09
-1.25237e-09
8.05733e-09
-1.36368e-09
7.46949e-09
-1.4248e-09
6.8773e-09
-1.44206e-09
6.29437e-09
-1.42228e-09
-1.37269e-09
5.73139e-09
2.14233e-09
4.63558e-09
3.96804e-09
4.05305e-09
5.41492e-09
3.32325e-09
6.49028e-09
2.56929e-09
7.23558e-09
1.86408e-09
7.70257e-09
1.24079e-09
7.94133e-09
7.08204e-10
7.99594e-09
2.629e-10
7.91182e-09
-9.37886e-11
7.72055e-09
-3.64055e-10
7.44516e-09
-5.79377e-10
7.10566e-09
-7.45292e-10
6.71984e-09
-8.66545e-10
6.30364e-09
-9.47477e-10
5.8712e-09
-9.92359e-10
5.43475e-09
-1.00561e-09
5.0043e-09
-9.91828e-10
-9.55804e-10
4.58742e-09
1.58239e-09
3.05319e-09
2.95054e-09
2.68489e-09
4.0559e-09
2.21789e-09
4.896e-09
1.72919e-09
5.49367e-09
1.26641e-09
5.8817e-09
8.52767e-10
6.09412e-09
4.95781e-10
6.16247e-09
1.94549e-10
6.11879e-09
-5.01109e-11
5.98932e-09
-2.34579e-10
5.79219e-09
-3.82255e-10
5.54331e-09
-4.96413e-10
5.25678e-09
-5.80013e-10
4.94519e-09
-6.35882e-10
4.6197e-09
-6.66875e-10
4.29007e-09
-6.75968e-10
3.96444e-09
-6.66202e-10
-6.40551e-10
3.64919e-09
1.17948e-09
1.87372e-09
2.21013e-09
1.65424e-09
3.05475e-09
1.37327e-09
3.70753e-09
1.07641e-09
4.18127e-09
7.92673e-10
4.49718e-09
5.36859e-10
4.67862e-09
3.14343e-10
4.74805e-09
1.25112e-10
4.72788e-09
-2.99343e-11
4.6391e-09
-1.45802e-10
4.49558e-09
-2.38736e-10
4.30958e-09
-3.10408e-10
4.09209e-09
-3.62525e-10
3.85309e-09
-3.96881e-10
3.60162e-09
-4.15408e-10
3.34582e-09
-4.20163e-10
3.09283e-09
-4.13213e-10
-3.96416e-10
2.84869e-09
8.7506e-10
9.98656e-10
1.64577e-09
8.83525e-10
2.28408e-09
7.34954e-10
2.78367e-09
5.76834e-10
3.1517e-09
4.24639e-10
3.40201e-09
2.86546e-10
3.55061e-09
1.65742e-10
3.61327e-09
6.24601e-11
3.60463e-09
-2.12952e-11
3.54089e-09
-8.20641e-11
3.43237e-09
-1.3022e-10
3.28862e-09
-1.6666e-10
3.11859e-09
-1.92486e-10
2.93062e-09
-2.08917e-10
2.73245e-09
-2.17234e-10
2.53102e-09
-2.18735e-10
2.33245e-09
-2.14648e-10
-2.0599e-10
2.14203e-09
6.27497e-10
3.71159e-10
1.18315e-09
3.27871e-10
1.64649e-09
2.71611e-10
2.0119e-09
2.11426e-10
2.28328e-09
1.5326e-10
2.4695e-09
1.00328e-10
2.58128e-09
5.39658e-11
2.62929e-09
1.44455e-11
2.61963e-09
-1.16395e-11
2.56627e-09
-2.87012e-11
2.47832e-09
-4.22693e-11
2.36442e-09
-5.27551e-11
2.23245e-09
-6.05167e-11
2.0894e-09
-6.58706e-11
1.94127e-09
-6.91084e-11
1.79305e-09
-7.05082e-11
1.64873e-09
-7.03352e-11
-6.88086e-11
1.51155e-09
3.71159e-10
6.99031e-10
9.70641e-10
1.18207e-09
1.33533e-09
1.43566e-09
1.48962e-09
1.50407e-09
1.49243e-09
1.46373e-09
1.42146e-09
1.3687e-09
1.30818e-09
1.24231e-09
1.17321e-09
1.1027e-09
1.03236e-09
9.63553e-10
-2.22462e-11
2.22462e-11
-4.46021e-11
2.2356e-11
-6.70234e-11
2.24212e-11
-8.94638e-11
2.24404e-11
-1.11876e-10
2.24123e-11
-1.34212e-10
2.23359e-11
-1.56422e-10
2.22105e-11
-1.78458e-10
2.20356e-11
-2.00269e-10
2.18113e-11
-2.21807e-10
2.15377e-11
-2.43022e-10
2.12153e-11
-2.63867e-10
2.08449e-11
-2.84295e-10
2.04277e-11
-3.0426e-10
1.99652e-11
-3.23719e-10
1.94589e-11
-3.4263e-10
1.8911e-11
-3.60954e-10
1.83235e-11
-3.78652e-10
1.76989e-11
-3.95692e-10
1.70398e-11
-4.12041e-10
1.6349e-11
-4.27671e-10
1.56294e-11
-4.42555e-10
1.48839e-11
-4.5667e-10
1.41157e-11
-4.69998e-10
1.33279e-11
-4.82522e-10
1.25236e-11
-4.94228e-10
1.17061e-11
-5.05106e-10
1.08784e-11
-5.1515e-10
1.00436e-11
-5.24355e-10
9.20469e-12
-5.32719e-10
8.36458e-12
-5.40245e-10
7.52608e-12
-5.46937e-10
6.69186e-12
-5.52801e-10
5.86443e-12
-5.57848e-10
5.04621e-12
-5.62087e-10
4.23941e-12
-5.65533e-10
3.44613e-12
-5.68201e-10
2.66827e-12
-5.70109e-10
1.90757e-12
-5.71275e-10
1.16561e-12
-5.71718e-10
4.43802e-13
-5.71462e-10
-2.56605e-13
-5.70527e-10
-9.34536e-13
-5.68938e-10
-1.58906e-12
-5.66719e-10
-2.21938e-12
-5.63894e-10
-2.8249e-12
-5.60489e-10
-3.4051e-12
-5.56529e-10
-3.95964e-12
-5.52041e-10
-4.48827e-12
-5.4705e-10
-4.99088e-12
-5.41583e-10
-5.46746e-12
-5.35665e-10
-5.91809e-12
-5.29322e-10
-6.34297e-12
-5.22579e-10
-6.74237e-12
-5.15463e-10
-7.11662e-12
-5.07996e-10
-7.46616e-12
-5.00205e-10
-7.79145e-12
-4.92112e-10
-8.09304e-12
-4.8374e-10
-8.37152e-12
-4.75113e-10
-8.6275e-12
-4.66251e-10
-8.86166e-12
-4.57177e-10
-9.07469e-12
-4.47909e-10
-9.26731e-12
-4.38469e-10
-9.44027e-12
-4.28875e-10
-9.59432e-12
-4.19144e-10
-9.73024e-12
-4.09296e-10
-9.84881e-12
-3.99345e-10
-9.9508e-12
-3.89308e-10
-1.0037e-11
-3.792e-10
-1.01082e-11
-3.69034e-10
-1.01652e-11
-3.58826e-10
-1.02087e-11
-3.48586e-10
-1.02395e-11
-3.38328e-10
-1.02583e-11
-3.28062e-10
-1.02659e-11
-3.17799e-10
-1.02631e-11
-3.07549e-10
-1.02504e-11
-2.9732e-10
-1.02287e-11
-2.87121e-10
-1.01985e-11
-2.76961e-10
-1.01606e-11
-2.66845e-10
-1.01155e-11
-2.56781e-10
-1.0064e-11
-2.46775e-10
-1.00065e-11
-2.36831e-10
-9.94363e-12
-2.26955e-10
-9.87599e-12
-2.17151e-10
-9.8041e-12
-2.07423e-10
-9.72848e-12
-1.97773e-10
-9.6496e-12
-1.88205e-10
-9.56794e-12
-1.78721e-10
-9.48396e-12
-1.69323e-10
-9.39809e-12
-1.60012e-10
-9.31072e-12
-1.5079e-10
-9.22226e-12
-1.41657e-10
-9.13307e-12
-1.32613e-10
-9.04349e-12
-1.2366e-10
-8.95384e-12
-1.14795e-10
-8.86444e-12
-1.0602e-10
-8.77555e-12
-9.73322e-11
-8.68743e-12
-8.87319e-11
-8.60033e-12
-8.02175e-11
-8.51444e-12
-7.17875e-11
-8.42995e-12
-6.34405e-11
-8.34703e-12
-5.51747e-11
-8.26581e-12
-4.69883e-11
-8.18639e-12
-3.88794e-11
-8.10884e-12
-3.08462e-11
-8.03322e-12
-2.28867e-11
-7.95953e-12
-1.49989e-11
-7.88775e-12
-7.18112e-12
-7.81782e-12
5.68527e-13
-7.74964e-12
8.2516e-12
-7.68307e-12
1.58695e-11
-7.61792e-12
2.34235e-11
-7.55396e-12
3.09144e-11
-7.49091e-12
3.83428e-11
-7.42842e-12
4.57089e-11
-7.36612e-12
5.30125e-11
-7.30356e-12
6.02527e-11
-7.24025e-12
6.74284e-11
-7.17562e-12
7.45374e-11
-7.10909e-12
8.15775e-11
-7.04e-12
8.85451e-11
-6.96766e-12
9.54365e-11
-6.89135e-12
1.02247e-10
-6.81032e-12
1.08971e-10
-6.72385e-12
1.15602e-10
-6.63122e-12
1.22134e-10
-6.53177e-12
1.28559e-10
-6.42491e-12
1.34869e-10
-6.31021e-12
1.41056e-10
-6.18737e-12
1.47112e-10
-6.05634e-12
1.5303e-10
-5.91736e-12
1.58801e-10
-5.77102e-12
1.64419e-10
-5.61832e-12
1.6988e-10
-5.46078e-12
1.7518e-10
-5.30046e-12
1.80321e-10
-5.14011e-12
1.85304e-10
-4.98318e-12
1.90138e-10
-4.83394e-12
1.94835e-10
-4.69752e-12
1.99415e-10
-4.58002e-12
2.03904e-10
-4.48853e-12
2.08335e-10
-4.43121e-12
2.12752e-10
-4.4174e-12
2.1721e-10
-4.45765e-12
2.21774e-10
-4.56382e-12
2.26523e-10
-4.7492e-12
2.31552e-10
-5.02858e-12
2.3697e-10
-5.41846e-12
2.42907e-10
-5.93713e-12
2.49512e-10
-6.60492e-12
2.56956e-10
-7.44433e-12
2.65437e-10
-8.48026e-12
2.75177e-10
-9.74021e-12
2.86431e-10
-1.12544e-11
2.99487e-10
-1.30558e-11
3.14668e-10
-1.51805e-11
3.32334e-10
-1.76669e-11
3.5289e-10
-2.0556e-11
3.76781e-10
-2.38907e-11
4.04495e-10
-2.77143e-11
4.36565e-10
-3.20699e-11
4.73563e-10
-3.69974e-11
5.16094e-10
-4.25317e-11
5.64792e-10
-4.8698e-11
6.203e-10
-5.55079e-11
6.83253e-10
-6.29531e-11
7.54251e-10
-7.09981e-11
8.33824e-10
-7.95721e-11
9.22383e-10
-8.85591e-11
1.02017e-09
-9.77866e-11
1.12718e-09
-1.07013e-10
1.24309e-09
-1.15912e-10
1.36714e-09
-1.24049e-10
1.49798e-09
-1.3084e-10
1.63345e-09
-1.35464e-10
1.77005e-09
-1.36607e-10
1.90171e-09
-1.3166e-10
2.01506e-09
-1.13343e-10
-5.02281e-11
2.06528e-09
-2.24435e-11
4.46897e-11
-4.49967e-11
4.49091e-11
-6.76138e-11
4.50384e-11
-9.02477e-11
4.50743e-11
-1.1285e-10
4.50143e-11
-1.3537e-10
4.48567e-11
-1.5776e-10
4.45998e-11
-1.79967e-10
4.42431e-11
-2.01942e-10
4.37863e-11
-2.23635e-10
4.323e-11
-2.44995e-10
4.25752e-11
-2.65974e-10
4.18238e-11
-2.86524e-10
4.09782e-11
-3.066e-10
4.00412e-11
-3.26157e-10
3.90164e-11
-3.45154e-10
3.79079e-11
-3.63551e-10
3.67201e-11
-3.8131e-10
3.54581e-11
-3.98398e-10
3.41272e-11
-4.14782e-10
3.27331e-11
-4.30434e-10
3.12815e-11
-4.45329e-10
2.97787e-11
-4.59444e-10
2.82308e-11
-4.7276e-10
2.66444e-11
-4.85262e-10
2.50256e-11
-4.96937e-10
2.33809e-11
-5.07775e-10
2.17166e-11
-5.1777e-10
2.00388e-11
-5.26919e-10
1.83535e-11
-5.35221e-10
1.66666e-11
-5.42679e-10
1.49837e-11
-5.49297e-10
1.331e-11
-5.55083e-10
1.16507e-11
-5.60047e-10
1.00105e-11
-5.64202e-10
8.39387e-12
-5.67561e-10
6.80492e-12
-5.7014e-10
5.24742e-12
-5.71957e-10
3.72484e-12
-5.73032e-10
2.2403e-12
-5.73385e-10
7.96555e-13
-5.73037e-10
-6.03918e-13
-5.72013e-10
-1.959e-12
-5.70335e-10
-3.26688e-12
-5.68028e-10
-4.52604e-12
-5.65118e-10
-5.73526e-12
-5.61629e-10
-6.8936e-12
-5.57589e-10
-8.00037e-12
-5.53022e-10
-9.05514e-12
-5.47955e-10
-1.00577e-11
-5.42414e-10
-1.10081e-11
-5.36426e-10
-1.19064e-11
-5.30016e-10
-1.27532e-11
-5.23209e-10
-1.3549e-11
-5.16031e-10
-1.42945e-11
-5.08507e-10
-1.49905e-11
-5.0066e-10
-1.5638e-11
-4.92515e-10
-1.62382e-11
-4.84095e-10
-1.67921e-11
-4.75421e-10
-1.73012e-11
-4.66516e-10
-1.77666e-11
-4.57401e-10
-1.81899e-11
-4.48096e-10
-1.85724e-11
-4.3862e-10
-1.89157e-11
-4.28993e-10
-1.92213e-11
-4.19233e-10
-1.94907e-11
-4.09356e-10
-1.97254e-11
-3.9938e-10
-1.99272e-11
-3.8932e-10
-2.00974e-11
-3.7919e-10
-2.02377e-11
-3.69005e-10
-2.03497e-11
-3.58779e-10
-2.04349e-11
-3.48524e-10
-2.04947e-11
-3.38251e-10
-2.05308e-11
-3.27973e-10
-2.05445e-11
-3.17699e-10
-2.05373e-11
-3.07439e-10
-2.05106e-11
-2.97201e-10
-2.04659e-11
-2.86996e-10
-2.04043e-11
-2.76829e-10
-2.03274e-11
-2.66708e-10
-2.02362e-11
-2.5664e-10
-2.01321e-11
-2.4663e-10
-2.00162e-11
-2.36684e-10
-1.98897e-11
-2.26807e-10
-1.97536e-11
-2.17002e-10
-1.96092e-11
-2.07273e-10
-1.94573e-11
-1.97623e-10
-1.92989e-11
-1.88056e-10
-1.91351e-11
-1.78574e-10
-1.89667e-11
-1.69177e-10
-1.87945e-11
-1.59869e-10
-1.86194e-11
-1.50649e-10
-1.84421e-11
-1.41518e-10
-1.82634e-11
-1.32478e-10
-1.8084e-11
-1.23527e-10
-1.79045e-11
-1.14666e-10
-1.77255e-11
-1.05894e-10
-1.75476e-11
-9.72104e-11
-1.73712e-11
-8.86138e-11
-1.71969e-11
-8.01032e-11
-1.70251e-11
-7.16771e-11
-1.68561e-11
-6.33339e-11
-1.66902e-11
-5.50719e-11
-1.65278e-11
-4.68893e-11
-1.6369e-11
-3.87841e-11
-1.6214e-11
-3.07545e-11
-1.60628e-11
-2.27984e-11
-1.59156e-11
-1.4914e-11
-1.57722e-11
-7.09937e-12
-1.56325e-11
6.47299e-13
-1.54963e-11
8.32761e-12
-1.53634e-11
1.5943e-11
-1.52333e-11
2.34947e-11
-1.51057e-11
3.09836e-11
-1.49798e-11
3.84104e-11
-1.48552e-11
4.57752e-11
-1.47309e-11
5.30777e-11
-1.46061e-11
6.03173e-11
-1.44798e-11
6.74926e-11
-1.4351e-11
7.46018e-11
-1.42183e-11
8.16422e-11
-1.40805e-11
8.86107e-11
-1.39361e-11
9.55033e-11
-1.37839e-11
1.02315e-10
-1.36222e-11
1.09041e-10
-1.34495e-11
1.15674e-10
-1.32645e-11
1.22208e-10
-1.30658e-11
1.28635e-10
-1.28522e-11
1.34948e-10
-1.26228e-11
1.41138e-10
-1.2377e-11
1.47196e-10
-1.21147e-11
1.53115e-10
-1.18364e-11
1.58887e-10
-1.15431e-11
1.64506e-10
-1.12369e-11
1.69966e-10
-1.09208e-11
1.75264e-10
-1.0599e-11
1.80401e-10
-1.02768e-11
1.85379e-10
-9.96117e-12
1.90206e-10
-9.66068e-12
1.94894e-10
-9.38557e-12
1.99462e-10
-9.14801e-12
2.03935e-10
-8.9622e-12
2.08349e-10
-8.84447e-12
2.12745e-10
-8.81348e-12
2.17177e-10
-8.89033e-12
2.21712e-10
-9.09874e-12
2.26428e-10
-9.46525e-12
2.31419e-10
-1.00195e-11
2.36795e-10
-1.07943e-11
2.42684e-10
-1.18264e-11
2.49236e-10
-1.31564e-11
2.56621e-10
-1.48292e-11
2.65035e-10
-1.68946e-11
2.74702e-10
-1.94076e-11
2.85877e-10
-2.24287e-11
2.98845e-10
-2.60239e-11
3.13929e-10
-3.02653e-11
3.31493e-10
-3.52301e-11
3.51937e-10
-4.10005e-11
3.75709e-10
-4.76622e-11
4.03297e-10
-5.53027e-11
4.35235e-10
-6.40083e-11
4.72098e-10
-7.386e-11
5.14494e-10
-8.49278e-11
5.6306e-10
-9.72637e-11
6.18444e-10
-1.10892e-10
6.81288e-10
-1.25797e-10
7.52199e-10
-1.4191e-10
8.31718e-10
-1.59091e-10
9.20267e-10
-1.77109e-10
1.0181e-09
-1.95621e-10
1.12524e-09
-2.14148e-10
1.24136e-09
-2.32039e-10
1.36575e-09
-2.48433e-10
1.49709e-09
-2.62181e-10
1.63331e-09
-2.71685e-10
1.77119e-09
-2.74482e-10
1.90554e-09
-2.66019e-10
2.02775e-09
-2.35549e-10
-1.51001e-10
2.12852e-09
-2.28434e-11
6.75331e-11
-4.5796e-11
6.78618e-11
-6.88099e-11
6.80523e-11
-9.18354e-11
6.80997e-11
-1.14821e-10
6.80004e-11
-1.37716e-10
6.77515e-11
-1.60467e-10
6.73509e-11
-1.83022e-10
6.67977e-11
-2.05327e-10
6.60918e-11
-2.27332e-10
6.52342e-11
-2.48983e-10
6.42267e-11
-2.70232e-10
6.30723e-11
-2.91028e-10
6.17749e-11
-3.11326e-10
6.03392e-11
-3.31081e-10
5.87708e-11
-3.50249e-10
5.70761e-11
-3.68791e-10
5.52622e-11
-3.8667e-10
5.33368e-11
-4.03851e-10
5.13083e-11
-4.20303e-10
4.91853e-11
-4.35999e-10
4.69771e-11
-4.50913e-10
4.4693e-11
-4.65025e-10
4.23425e-11
-4.78316e-10
3.99355e-11
-4.90772e-10
3.74816e-11
-5.02381e-10
3.49905e-11
-5.13136e-10
3.24717e-11
-5.23032e-10
2.99345e-11
-5.32067e-10
2.7388e-11
-5.40241e-10
2.4841e-11
-5.47559e-10
2.23018e-11
-5.54028e-10
1.97785e-11
-5.59655e-10
1.72785e-11
-5.64454e-10
1.4809e-11
-5.68437e-10
1.23766e-11
-5.71619e-10
9.9873e-12
-5.74018e-10
7.64679e-12
-5.75654e-10
5.36013e-12
-5.76545e-10
3.13188e-12
-5.76715e-10
9.66116e-13
-5.76185e-10
-1.13359e-12
-5.7498e-10
-3.16415e-12
-5.73124e-10
-5.12295e-12
-5.70642e-10
-7.00782e-12
-5.6756e-10
-8.81704e-12
-5.63905e-10
-1.05493e-11
-5.59702e-10
-1.22036e-11
-5.54977e-10
-1.37794e-11
-5.49758e-10
-1.52765e-11
-5.44071e-10
-1.6695e-11
-5.37943e-10
-1.80353e-11
-5.31398e-10
-1.92981e-11
-5.24463e-10
-2.04841e-11
-5.17162e-10
-2.15947e-11
-5.09522e-10
-2.2631e-11
-5.01565e-10
-2.35947e-11
-4.93316e-10
-2.44873e-11
-4.84798e-10
-2.53108e-11
-4.76032e-10
-2.6067e-11
-4.6704e-10
-2.6758e-11
-4.57844e-10
-2.73859e-11
-4.48464e-10
-2.79529e-11
-4.38918e-10
-2.84612e-11
-4.29226e-10
-2.89132e-11
-4.19406e-10
-2.93112e-11
-4.09474e-10
-2.96574e-11
-3.99447e-10
-2.99544e-11
-3.8934e-10
-3.02044e-11
-3.79168e-10
-3.04098e-11
-3.68944e-10
-3.05729e-11
-3.58683e-10
-3.0696e-11
-3.48397e-10
-3.07814e-11
-3.38096e-10
-3.08313e-11
-3.27793e-10
-3.0848e-11
-3.17496e-10
-3.08336e-11
-3.07217e-10
-3.07902e-11
-2.96963e-10
-3.07198e-11
-2.86742e-10
-3.06245e-11
-2.76564e-10
-3.05063e-11
-2.66433e-10
-3.03669e-11
-2.56357e-10
-3.02083e-11
-2.4634e-10
-3.00323e-11
-2.3639e-10
-2.98404e-11
-2.26509e-10
-2.96345e-11
-2.16702e-10
-2.94161e-11
-2.06973e-10
-2.91866e-11
-1.97324e-10
-2.89477e-11
-1.87758e-10
-2.87006e-11
-1.78278e-10
-2.84468e-11
-1.68885e-10
-2.81874e-11
-1.59581e-10
-2.79238e-11
-1.50366e-10
-2.76571e-11
-1.41241e-10
-2.73883e-11
-1.32207e-10
-2.71185e-11
-1.23262e-10
-2.68487e-11
-1.14408e-10
-2.65798e-11
-1.05643e-10
-2.63125e-11
-9.69667e-11
-2.60477e-11
-8.83776e-11
-2.5786e-11
-7.98746e-11
-2.55281e-11
-7.14562e-11
-2.52745e-11
-6.31207e-11
-2.50257e-11
-5.48663e-11
-2.47821e-11
-4.66913e-11
-2.45441e-11
-3.85936e-11
-2.43117e-11
-3.05711e-11
-2.40852e-11
-2.26221e-11
-2.38647e-11
-1.47443e-11
-2.36499e-11
-6.93602e-12
-2.34408e-11
8.04686e-13
-2.3237e-11
8.47947e-12
-2.30382e-11
1.60898e-11
-2.28437e-11
2.3637e-11
-2.26528e-11
3.1122e-11
-2.24648e-11
3.85453e-11
-2.22786e-11
4.59074e-11
-2.20929e-11
5.32079e-11
-2.19066e-11
6.04462e-11
-2.17181e-11
6.76209e-11
-2.15257e-11
7.47302e-11
-2.13276e-11
8.17716e-11
-2.11218e-11
8.87418e-11
-2.09063e-11
9.56367e-11
-2.06788e-11
1.02452e-10
-2.0437e-11
1.09181e-10
-2.01788e-11
1.15818e-10
-1.9902e-11
1.22357e-10
-1.96044e-11
1.28789e-10
-1.92843e-11
1.35106e-10
-1.89402e-11
1.41301e-10
-1.85713e-11
1.47363e-10
-1.81772e-11
1.53286e-10
-1.77587e-11
1.5906e-10
-1.73174e-11
1.64679e-10
-1.68561e-11
1.70138e-10
-1.63795e-11
1.75432e-10
-1.58936e-11
1.80562e-10
-1.54066e-11
1.8553e-10
-1.49289e-11
1.90342e-10
-1.44731e-11
1.95012e-10
-1.40548e-11
1.99556e-10
-1.3692e-11
2.04e-10
-1.34063e-11
2.08377e-10
-1.32219e-11
2.12731e-10
-1.3167e-11
2.17113e-10
-1.32731e-11
2.21591e-10
-1.35759e-11
2.2624e-10
-1.41151e-11
2.31156e-10
-1.49351e-11
2.36447e-10
-1.60851e-11
2.42241e-10
-1.76202e-11
2.48685e-10
-1.9601e-11
2.55951e-10
-2.20951e-11
2.64234e-10
-2.51771e-11
2.73756e-10
-2.89294e-11
2.8477e-10
-3.34428e-11
2.97562e-10
-3.88166e-11
3.12456e-10
-4.51588e-11
3.29812e-10
-5.25859e-11
3.50033e-10
-6.12215e-11
3.73566e-10
-7.11951e-11
4.00902e-10
-8.26388e-11
4.32577e-10
-9.56834e-11
4.69169e-10
-1.10452e-10
5.11293e-10
-1.27052e-10
5.59593e-10
-1.45564e-10
6.14727e-10
-1.66026e-10
6.77351e-10
-1.88421e-10
7.48088e-10
-2.12647e-10
8.27496e-10
-2.38499e-10
9.16023e-10
-2.65636e-10
1.01395e-09
-2.93549e-10
1.12132e-09
-3.21522e-10
1.23788e-09
-3.4859e-10
1.36292e-09
-3.73478e-10
1.49524e-09
-3.94502e-10
1.63293e-09
-4.09369e-10
1.77315e-09
-4.14704e-10
1.91195e-09
-4.04815e-10
2.04479e-09
-3.68397e-10
-2.80814e-10
2.17461e-09
-2.34564e-11
9.09895e-11
-4.70212e-11
9.14266e-11
-7.0643e-11
9.1674e-11
-9.42681e-11
9.17249e-11
-1.17842e-10
9.15742e-11
-1.41309e-10
9.12182e-11
-1.64612e-10
9.06544e-11
-1.87696e-10
8.98818e-11
-2.10505e-10
8.89006e-11
-2.32983e-10
8.77125e-11
-2.55077e-10
8.63205e-11
-2.76734e-10
8.4729e-11
-2.97903e-10
8.29437e-11
-3.18535e-10
8.09716e-11
-3.38585e-10
7.88208e-11
-3.58009e-10
7.65002e-11
-3.76767e-10
7.40202e-11
-3.94822e-10
7.13915e-11
-4.12139e-10
6.86257e-11
-4.28689e-10
6.57352e-11
-4.44444e-10
6.27325e-11
-4.59382e-10
5.96306e-11
-4.73482e-10
5.64426e-11
-4.86729e-10
5.3182e-11
-4.99109e-10
4.98618e-11
-5.10614e-10
4.64953e-11
-5.21237e-10
4.30953e-11
-5.30977e-10
3.96743e-11
-5.39834e-10
3.62445e-11
-5.4781e-10
3.28176e-11
-5.54913e-10
2.94048e-11
-5.61151e-10
2.60167e-11
-5.66536e-10
2.26633e-11
-5.71081e-10
1.93538e-11
-5.74801e-10
1.6097e-11
-5.77715e-10
1.29009e-11
-5.79841e-10
9.77266e-12
-5.812e-10
6.71899e-12
-5.81814e-10
3.74575e-12
-5.81706e-10
8.58177e-13
-5.809e-10
-1.93917e-12
-5.79422e-10
-4.64236e-12
-5.77297e-10
-7.24811e-12
-5.74551e-10
-9.75374e-12
-5.71211e-10
-1.21571e-11
-5.67303e-10
-1.44566e-11
-5.62856e-10
-1.66512e-11
-5.57895e-10
-1.87403e-11
-5.52448e-10
-2.07237e-11
-5.46541e-10
-2.26017e-11
-5.40201e-10
-2.4375e-11
-5.33455e-10
-2.60446e-11
-5.26327e-10
-2.76117e-11
-5.18844e-10
-2.9078e-11
-5.11029e-10
-3.04454e-11
-5.02908e-10
-3.1716e-11
-4.94503e-10
-3.2892e-11
-4.85838e-10
-3.39759e-11
-4.76935e-10
-3.49705e-11
-4.67814e-10
-3.58784e-11
-4.58498e-10
-3.67025e-11
-4.49005e-10
-3.74457e-11
-4.39355e-10
-3.81112e-11
-4.29566e-10
-3.8702e-11
-4.19656e-10
-3.92212e-11
-4.09642e-10
-3.9672e-11
-3.99538e-10
-4.00574e-11
-3.89362e-10
-4.03808e-11
-3.79127e-10
-4.06451e-11
-3.68846e-10
-4.08535e-11
-3.58533e-10
-4.1009e-11
-3.482e-10
-4.11148e-11
-3.37858e-10
-4.11737e-11
-3.27517e-10
-4.11887e-11
-3.17188e-10
-4.11627e-11
-3.0688e-10
-4.10984e-11
-2.96601e-10
-4.09986e-11
-2.86359e-10
-4.0866e-11
-2.76162e-10
-4.07031e-11
-2.66017e-10
-4.05125e-11
-2.55929e-10
-4.02966e-11
-2.45903e-10
-4.00577e-11
-2.35946e-10
-3.97981e-11
-2.2606e-10
-3.952e-11
-2.16251e-10
-3.92255e-11
-2.06521e-10
-3.89166e-11
-1.96873e-10
-3.85953e-11
-1.8731e-10
-3.82635e-11
-1.77834e-10
-3.79228e-11
-1.68447e-10
-3.7575e-11
-1.59149e-10
-3.72218e-11
-1.49941e-10
-3.68646e-11
-1.40824e-10
-3.65049e-11
-1.31799e-10
-3.6144e-11
-1.22864e-10
-3.57832e-11
-1.14021e-10
-3.54237e-11
-1.05266e-10
-3.50667e-11
-9.66009e-11
-3.4713e-11
-8.80232e-11
-3.43637e-11
-7.95317e-11
-3.40196e-11
-7.11249e-11
-3.36813e-11
-6.2801e-11
-3.33496e-11
-5.45582e-11
-3.30249e-11
-4.63945e-11
-3.27077e-11
-3.83079e-11
-3.23983e-11
-3.02964e-11
-3.20968e-11
-2.23578e-11
-3.18032e-11
-1.44901e-11
-3.15176e-11