/*--------------------------------*- C++ -*----------------------------------*\
  =========                 |
  \\      /  F ield         | OpenFOAM: The Open Source CFD Toolbox
   \\    /   O peration     | Website:  https://openfoam.org
    \\  /    A nd           | Version:  10
     \\/     M anipulation  |
\*---------------------------------------------------------------------------*/
FoamFile
{
    format      ascii;
    class       volVectorField;
    location    "4400";
    object      Ub;
}
// * * * * * * * * * * * * * * * * * * * * * * * * * * * * * * * * * * * * * //

dimensions      [0 1 -1 0 0 0 0];

internalField   nonuniform List<vector> 
6400
(
(-1.6712e-21 -9.87899e-16 0)
(-5.00854e-21 -9.87899e-16 0)
(-8.33058e-21 -9.87899e-16 0)
(-1.16269e-20 -9.87899e-16 0)
(-1.48865e-20 -9.87899e-16 0)
(-1.8098e-20 -9.87899e-16 0)
(-2.12492e-20 -9.87899e-16 0)
(-2.43269e-20 -9.87899e-16 0)
(-2.7317e-20 -9.87899e-16 0)
(-3.02039e-20 -9.87899e-16 0)
(-3.2971e-20 -9.87899e-16 0)
(-3.55999e-20 -9.87899e-16 0)
(-3.80705e-20 -9.87899e-16 0)
(-4.03613e-20 -9.87899e-16 0)
(-4.24487e-20 -9.87899e-16 0)
(-4.43076e-20 -9.87899e-16 0)
(-4.59111e-20 -9.87899e-16 0)
(-4.7231e-20 -9.87899e-16 0)
(-4.82375e-20 -9.87899e-16 0)
(-4.89006e-20 -9.87899e-16 0)
(-4.91897e-20 -9.87899e-16 0)
(-4.90749e-20 -9.87899e-16 0)
(-4.85278e-20 -9.87899e-16 0)
(-4.7523e-20 -9.87899e-16 0)
(-4.60388e-20 -9.87899e-16 0)
(-4.40593e-20 -9.87899e-16 0)
(-4.15756e-20 -9.87899e-16 0)
(-3.85876e-20 -9.87899e-16 0)
(-3.51057e-20 -9.87899e-16 0)
(-3.11516e-20 -9.879e-16 0)
(-2.67596e-20 -9.879e-16 0)
(-2.19767e-20 -9.879e-16 0)
(-1.83429e-20 -9.879e-16 0)
(-1.6014e-20 -9.879e-16 0)
(-1.36359e-20 -9.879e-16 0)
(-1.12154e-20 -9.879e-16 0)
(-8.75996e-21 -9.879e-16 0)
(-6.27696e-21 -9.879e-16 0)
(-3.77414e-21 -9.879e-16 0)
(-1.25938e-21 -9.879e-16 0)
(1.25938e-21 -9.879e-16 0)
(3.77414e-21 -9.879e-16 0)
(6.27696e-21 -9.879e-16 0)
(8.75996e-21 -9.879e-16 0)
(1.12154e-20 -9.879e-16 0)
(1.36359e-20 -9.879e-16 0)
(1.6014e-20 -9.879e-16 0)
(1.83429e-20 -9.879e-16 0)
(2.19767e-20 -9.879e-16 0)
(2.67596e-20 -9.879e-16 0)
(3.11516e-20 -9.879e-16 0)
(3.51057e-20 -9.87899e-16 0)
(3.85876e-20 -9.87899e-16 0)
(4.15756e-20 -9.87899e-16 0)
(4.40593e-20 -9.87899e-16 0)
(4.60388e-20 -9.87899e-16 0)
(4.7523e-20 -9.87899e-16 0)
(4.85278e-20 -9.87899e-16 0)
(4.90749e-20 -9.87899e-16 0)
(4.91897e-20 -9.87899e-16 0)
(4.89006e-20 -9.87899e-16 0)
(4.82375e-20 -9.87899e-16 0)
(4.7231e-20 -9.87899e-16 0)
(4.59111e-20 -9.87899e-16 0)
(4.43076e-20 -9.87899e-16 0)
(4.24487e-20 -9.87899e-16 0)
(4.03613e-20 -9.87899e-16 0)
(3.80705e-20 -9.87899e-16 0)
(3.55999e-20 -9.87899e-16 0)
(3.2971e-20 -9.87899e-16 0)
(3.02039e-20 -9.87899e-16 0)
(2.7317e-20 -9.87899e-16 0)
(2.43269e-20 -9.87899e-16 0)
(2.12492e-20 -9.87899e-16 0)
(1.8098e-20 -9.87899e-16 0)
(1.48865e-20 -9.87899e-16 0)
(1.16269e-20 -9.87899e-16 0)
(8.33058e-21 -9.87899e-16 0)
(5.00854e-21 -9.87899e-16 0)
(1.6712e-21 -9.87899e-16 0)
(-1.67142e-21 -9.87897e-16 0)
(-5.0092e-21 -9.87897e-16 0)
(-8.33169e-21 -9.87897e-16 0)
(-1.16284e-20 -9.87897e-16 0)
(-1.48886e-20 -9.87897e-16 0)
(-1.81006e-20 -9.87898e-16 0)
(-2.12523e-20 -9.87898e-16 0)
(-2.43307e-20 -9.87898e-16 0)
(-2.73214e-20 -9.87898e-16 0)
(-3.02091e-20 -9.87898e-16 0)
(-3.2977e-20 -9.87898e-16 0)
(-3.56067e-20 -9.87898e-16 0)
(-3.80783e-20 -9.87898e-16 0)
(-4.037e-20 -9.87898e-16 0)
(-4.24585e-20 -9.87898e-16 0)
(-4.43186e-20 -9.87898e-16 0)
(-4.59234e-20 -9.87898e-16 0)
(-4.72445e-20 -9.87898e-16 0)
(-4.82524e-20 -9.87898e-16 0)
(-4.89167e-20 -9.87898e-16 0)
(-4.92071e-20 -9.87898e-16 0)
(-4.90935e-20 -9.87899e-16 0)
(-4.85476e-20 -9.87899e-16 0)
(-4.75437e-20 -9.87899e-16 0)
(-4.60602e-20 -9.87899e-16 0)
(-4.40811e-20 -9.87899e-16 0)
(-4.15974e-20 -9.87899e-16 0)
(-3.8609e-20 -9.879e-16 0)
(-3.51261e-20 -9.879e-16 0)
(-3.11706e-20 -9.879e-16 0)
(-2.67765e-20 -9.879e-16 0)
(-2.19911e-20 -9.879e-16 0)
(-1.83551e-20 -9.879e-16 0)
(-1.60248e-20 -9.879e-16 0)
(-1.36451e-20 -9.879e-16 0)
(-1.12231e-20 -9.879e-16 0)
(-8.76598e-21 -9.879e-16 0)
(-6.28129e-21 -9.879e-16 0)
(-3.77676e-21 -9.879e-16 0)
(-1.26025e-21 -9.879e-16 0)
(1.26025e-21 -9.879e-16 0)
(3.77676e-21 -9.879e-16 0)
(6.28129e-21 -9.879e-16 0)
(8.76598e-21 -9.879e-16 0)
(1.12231e-20 -9.879e-16 0)
(1.36451e-20 -9.879e-16 0)
(1.60248e-20 -9.879e-16 0)
(1.83551e-20 -9.879e-16 0)
(2.19911e-20 -9.879e-16 0)
(2.67765e-20 -9.879e-16 0)
(3.11706e-20 -9.879e-16 0)
(3.51261e-20 -9.879e-16 0)
(3.8609e-20 -9.879e-16 0)
(4.15974e-20 -9.87899e-16 0)
(4.40811e-20 -9.87899e-16 0)
(4.60602e-20 -9.87899e-16 0)
(4.75437e-20 -9.87899e-16 0)
(4.85476e-20 -9.87899e-16 0)
(4.90935e-20 -9.87899e-16 0)
(4.92071e-20 -9.87898e-16 0)
(4.89167e-20 -9.87898e-16 0)
(4.82524e-20 -9.87898e-16 0)
(4.72445e-20 -9.87898e-16 0)
(4.59234e-20 -9.87898e-16 0)
(4.43186e-20 -9.87898e-16 0)
(4.24585e-20 -9.87898e-16 0)
(4.037e-20 -9.87898e-16 0)
(3.80783e-20 -9.87898e-16 0)
(3.56067e-20 -9.87898e-16 0)
(3.2977e-20 -9.87898e-16 0)
(3.02091e-20 -9.87898e-16 0)
(2.73214e-20 -9.87898e-16 0)
(2.43307e-20 -9.87898e-16 0)
(2.12523e-20 -9.87898e-16 0)
(1.81006e-20 -9.87898e-16 0)
(1.48886e-20 -9.87897e-16 0)
(1.16284e-20 -9.87897e-16 0)
(8.33169e-21 -9.87897e-16 0)
(5.0092e-21 -9.87897e-16 0)
(1.67142e-21 -9.87897e-16 0)
(-1.67193e-21 -9.87897e-16 0)
(-5.01072e-21 -9.87897e-16 0)
(-8.33426e-21 -9.87897e-16 0)
(-1.16321e-20 -9.87897e-16 0)
(-1.48933e-20 -9.87897e-16 0)
(-1.81066e-20 -9.87897e-16 0)
(-2.12596e-20 -9.87897e-16 0)
(-2.43394e-20 -9.87897e-16 0)
(-2.73317e-20 -9.87897e-16 0)
(-3.0221e-20 -9.87897e-16 0)
(-3.29907e-20 -9.87897e-16 0)
(-3.56224e-20 -9.87897e-16 0)
(-3.80962e-20 -9.87897e-16 0)
(-4.03903e-20 -9.87897e-16 0)
(-4.24813e-20 -9.87897e-16 0)
(-4.4344e-20 -9.87898e-16 0)
(-4.59516e-20 -9.87898e-16 0)
(-4.72757e-20 -9.87898e-16 0)
(-4.82866e-20 -9.87898e-16 0)
(-4.8954e-20 -9.87898e-16 0)
(-4.92473e-20 -9.87898e-16 0)
(-4.91366e-20 -9.87899e-16 0)
(-4.85932e-20 -9.87899e-16 0)
(-4.75915e-20 -9.87899e-16 0)
(-4.61096e-20 -9.87899e-16 0)
(-4.41313e-20 -9.879e-16 0)
(-4.16476e-20 -9.879e-16 0)
(-3.86582e-20 -9.879e-16 0)
(-3.51732e-20 -9.87901e-16 0)
(-3.12142e-20 -9.87901e-16 0)
(-2.68155e-20 -9.87901e-16 0)
(-2.20241e-20 -9.87901e-16 0)
(-1.83833e-20 -9.87901e-16 0)
(-1.60496e-20 -9.87901e-16 0)
(-1.36665e-20 -9.87901e-16 0)
(-1.12408e-20 -9.87902e-16 0)
(-8.77988e-21 -9.87902e-16 0)
(-6.2913e-21 -9.87902e-16 0)
(-3.78279e-21 -9.87902e-16 0)
(-1.26227e-21 -9.87902e-16 0)
(1.26227e-21 -9.87902e-16 0)
(3.78279e-21 -9.87902e-16 0)
(6.2913e-21 -9.87902e-16 0)
(8.77988e-21 -9.87902e-16 0)
(1.12408e-20 -9.87902e-16 0)
(1.36665e-20 -9.87901e-16 0)
(1.60496e-20 -9.87901e-16 0)
(1.83833e-20 -9.87901e-16 0)
(2.20241e-20 -9.87901e-16 0)
(2.68155e-20 -9.87901e-16 0)
(3.12142e-20 -9.87901e-16 0)
(3.51732e-20 -9.87901e-16 0)
(3.86582e-20 -9.879e-16 0)
(4.16476e-20 -9.879e-16 0)
(4.41313e-20 -9.879e-16 0)
(4.61096e-20 -9.87899e-16 0)
(4.75915e-20 -9.87899e-16 0)
(4.85932e-20 -9.87899e-16 0)
(4.91366e-20 -9.87899e-16 0)
(4.92473e-20 -9.87898e-16 0)
(4.8954e-20 -9.87898e-16 0)
(4.82866e-20 -9.87898e-16 0)
(4.72757e-20 -9.87898e-16 0)
(4.59516e-20 -9.87898e-16 0)
(4.4344e-20 -9.87898e-16 0)
(4.24813e-20 -9.87897e-16 0)
(4.03903e-20 -9.87897e-16 0)
(3.80962e-20 -9.87897e-16 0)
(3.56224e-20 -9.87897e-16 0)
(3.29907e-20 -9.87897e-16 0)
(3.0221e-20 -9.87897e-16 0)
(2.73317e-20 -9.87897e-16 0)
(2.43394e-20 -9.87897e-16 0)
(2.12596e-20 -9.87897e-16 0)
(1.81066e-20 -9.87897e-16 0)
(1.48933e-20 -9.87897e-16 0)
(1.16321e-20 -9.87897e-16 0)
(8.33426e-21 -9.87897e-16 0)
(5.01072e-21 -9.87897e-16 0)
(1.67193e-21 -9.87897e-16 0)
(-1.6728e-21 -9.87896e-16 0)
(-5.01335e-21 -9.87896e-16 0)
(-8.33868e-21 -9.87896e-16 0)
(-1.16384e-20 -9.87896e-16 0)
(-1.49016e-20 -9.87896e-16 0)
(-1.8117e-20 -9.87896e-16 0)
(-2.12723e-20 -9.87896e-16 0)
(-2.43545e-20 -9.87896e-16 0)
(-2.73494e-20 -9.87896e-16 0)
(-3.02416e-20 -9.87896e-16 0)
(-3.30145e-20 -9.87896e-16 0)
(-3.56496e-20 -9.87896e-16 0)
(-3.81271e-20 -9.87897e-16 0)
(-4.04252e-20 -9.87897e-16 0)
(-4.25206e-20 -9.87897e-16 0)
(-4.43879e-20 -9.87897e-16 0)
(-4.60004e-20 -9.87897e-16 0)
(-4.73295e-20 -9.87898e-16 0)
(-4.83457e-20 -9.87898e-16 0)
(-4.90183e-20 -9.87898e-16 0)
(-4.93168e-20 -9.87898e-16 0)
(-4.92109e-20 -9.87899e-16 0)
(-4.8672e-20 -9.87899e-16 0)
(-4.7674e-20 -9.879e-16 0)
(-4.61949e-20 -9.879e-16 0)
(-4.42181e-20 -9.879e-16 0)
(-4.17345e-20 -9.87901e-16 0)
(-3.87433e-20 -9.87901e-16 0)
(-3.52545e-20 -9.87902e-16 0)
(-3.12897e-20 -9.87902e-16 0)
(-2.68829e-20 -9.87902e-16 0)
(-2.20813e-20 -9.87903e-16 0)
(-1.8432e-20 -9.87903e-16 0)
(-1.60926e-20 -9.87903e-16 0)
(-1.37034e-20 -9.87903e-16 0)
(-1.12714e-20 -9.87903e-16 0)
(-8.80391e-21 -9.87903e-16 0)
(-6.30859e-21 -9.87903e-16 0)
(-3.79322e-21 -9.87903e-16 0)
(-1.26575e-21 -9.87903e-16 0)
(1.26575e-21 -9.87903e-16 0)
(3.79322e-21 -9.87903e-16 0)
(6.30859e-21 -9.87903e-16 0)
(8.80391e-21 -9.87903e-16 0)
(1.12714e-20 -9.87903e-16 0)
(1.37034e-20 -9.87903e-16 0)
(1.60926e-20 -9.87903e-16 0)
(1.8432e-20 -9.87903e-16 0)
(2.20813e-20 -9.87903e-16 0)
(2.68829e-20 -9.87902e-16 0)
(3.12897e-20 -9.87902e-16 0)
(3.52545e-20 -9.87902e-16 0)
(3.87433e-20 -9.87901e-16 0)
(4.17345e-20 -9.87901e-16 0)
(4.42181e-20 -9.879e-16 0)
(4.61949e-20 -9.879e-16 0)
(4.7674e-20 -9.879e-16 0)
(4.8672e-20 -9.87899e-16 0)
(4.92109e-20 -9.87899e-16 0)
(4.93168e-20 -9.87898e-16 0)
(4.90183e-20 -9.87898e-16 0)
(4.83457e-20 -9.87898e-16 0)
(4.73295e-20 -9.87898e-16 0)
(4.60004e-20 -9.87897e-16 0)
(4.43879e-20 -9.87897e-16 0)
(4.25206e-20 -9.87897e-16 0)
(4.04252e-20 -9.87897e-16 0)
(3.81271e-20 -9.87897e-16 0)
(3.56496e-20 -9.87896e-16 0)
(3.30145e-20 -9.87896e-16 0)
(3.02416e-20 -9.87896e-16 0)
(2.73494e-20 -9.87896e-16 0)
(2.43545e-20 -9.87896e-16 0)
(2.12723e-20 -9.87896e-16 0)
(1.8117e-20 -9.87896e-16 0)
(1.49016e-20 -9.87896e-16 0)
(1.16384e-20 -9.87896e-16 0)
(8.33868e-21 -9.87896e-16 0)
(5.01335e-21 -9.87896e-16 0)
(1.6728e-21 -9.87896e-16 0)
(-1.67413e-21 -9.87895e-16 0)
(-5.01738e-21 -9.87895e-16 0)
(-8.34547e-21 -9.87895e-16 0)
(-1.1648e-20 -9.87895e-16 0)
(-1.49143e-20 -9.87895e-16 0)
(-1.81329e-20 -9.87895e-16 0)
(-2.12916e-20 -9.87895e-16 0)
(-2.43776e-20 -9.87895e-16 0)
(-2.73765e-20 -9.87895e-16 0)
(-3.02733e-20 -9.87895e-16 0)
(-3.30509e-20 -9.87896e-16 0)
(-3.56913e-20 -9.87896e-16 0)
(-3.81745e-20 -9.87896e-16 0)
(-4.04788e-20 -9.87896e-16 0)
(-4.25809e-20 -9.87896e-16 0)
(-4.44553e-20 -9.87897e-16 0)
(-4.60753e-20 -9.87897e-16 0)
(-4.74122e-20 -9.87897e-16 0)
(-4.84364e-20 -9.87898e-16 0)
(-4.91171e-20 -9.87898e-16 0)
(-4.94235e-20 -9.87898e-16 0)
(-4.93251e-20 -9.87899e-16 0)
(-4.8793e-20 -9.87899e-16 0)
(-4.78008e-20 -9.879e-16 0)
(-4.63259e-20 -9.879e-16 0)
(-4.43516e-20 -9.87901e-16 0)
(-4.1868e-20 -9.87901e-16 0)
(-3.88742e-20 -9.87902e-16 0)
(-3.53797e-20 -9.87903e-16 0)
(-3.14058e-20 -9.87903e-16 0)
(-2.69865e-20 -9.87904e-16 0)
(-2.21692e-20 -9.87904e-16 0)
(-1.8507e-20 -9.87904e-16 0)
(-1.61587e-20 -9.87904e-16 0)
(-1.37602e-20 -9.87904e-16 0)
(-1.13184e-20 -9.87904e-16 0)
(-8.8409e-21 -9.87905e-16 0)
(-6.33521e-21 -9.87905e-16 0)
(-3.80927e-21 -9.87905e-16 0)
(-1.27112e-21 -9.87905e-16 0)
(1.27112e-21 -9.87905e-16 0)
(3.80927e-21 -9.87905e-16 0)
(6.33521e-21 -9.87905e-16 0)
(8.8409e-21 -9.87905e-16 0)
(1.13184e-20 -9.87904e-16 0)
(1.37602e-20 -9.87904e-16 0)
(1.61587e-20 -9.87904e-16 0)
(1.8507e-20 -9.87904e-16 0)
(2.21692e-20 -9.87904e-16 0)
(2.69865e-20 -9.87904e-16 0)
(3.14058e-20 -9.87903e-16 0)
(3.53797e-20 -9.87903e-16 0)
(3.88742e-20 -9.87902e-16 0)
(4.1868e-20 -9.87901e-16 0)
(4.43516e-20 -9.87901e-16 0)
(4.63259e-20 -9.879e-16 0)
(4.78008e-20 -9.879e-16 0)
(4.8793e-20 -9.87899e-16 0)
(4.93251e-20 -9.87899e-16 0)
(4.94235e-20 -9.87898e-16 0)
(4.91171e-20 -9.87898e-16 0)
(4.84364e-20 -9.87898e-16 0)
(4.74122e-20 -9.87897e-16 0)
(4.60753e-20 -9.87897e-16 0)
(4.44553e-20 -9.87897e-16 0)
(4.25809e-20 -9.87896e-16 0)
(4.04788e-20 -9.87896e-16 0)
(3.81745e-20 -9.87896e-16 0)
(3.56913e-20 -9.87896e-16 0)
(3.30509e-20 -9.87896e-16 0)
(3.02733e-20 -9.87895e-16 0)
(2.73765e-20 -9.87895e-16 0)
(2.43776e-20 -9.87895e-16 0)
(2.12916e-20 -9.87895e-16 0)
(1.81329e-20 -9.87895e-16 0)
(1.49143e-20 -9.87895e-16 0)
(1.1648e-20 -9.87895e-16 0)
(8.34547e-21 -9.87895e-16 0)
(5.01738e-21 -9.87895e-16 0)
(1.67413e-21 -9.87895e-16 0)
(-1.67605e-21 -9.87894e-16 0)
(-5.02317e-21 -9.87894e-16 0)
(-8.35523e-21 -9.87894e-16 0)
(-1.16619e-20 -9.87894e-16 0)
(-1.49325e-20 -9.87894e-16 0)
(-1.81557e-20 -9.87894e-16 0)
(-2.13195e-20 -9.87894e-16 0)
(-2.44108e-20 -9.87894e-16 0)
(-2.74156e-20 -9.87894e-16 0)
(-3.03187e-20 -9.87895e-16 0)
(-3.31034e-20 -9.87895e-16 0)
(-3.57513e-20 -9.87895e-16 0)
(-3.82428e-20 -9.87895e-16 0)
(-4.0556e-20 -9.87895e-16 0)
(-4.26676e-20 -9.87896e-16 0)
(-4.45523e-20 -9.87896e-16 0)
(-4.61831e-20 -9.87896e-16 0)
(-4.75313e-20 -9.87897e-16 0)
(-4.8567e-20 -9.87897e-16 0)
(-4.92594e-20 -9.87898e-16 0)
(-4.95773e-20 -9.87898e-16 0)
(-4.94898e-20 -9.87899e-16 0)
(-4.89675e-20 -9.879e-16 0)
(-4.79836e-20 -9.879e-16 0)
(-4.6515e-20 -9.87901e-16 0)
(-4.45442e-20 -9.87902e-16 0)
(-4.20607e-20 -9.87902e-16 0)
(-3.90631e-20 -9.87903e-16 0)
(-3.55604e-20 -9.87904e-16 0)
(-3.15735e-20 -9.87904e-16 0)
(-2.71364e-20 -9.87905e-16 0)
(-2.22963e-20 -9.87905e-16 0)
(-1.86154e-20 -9.87906e-16 0)
(-1.62544e-20 -9.87906e-16 0)
(-1.38424e-20 -9.87906e-16 0)
(-1.13865e-20 -9.87906e-16 0)
(-8.89439e-21 -9.87906e-16 0)
(-6.37372e-21 -9.87906e-16 0)
(-3.8325e-21 -9.87906e-16 0)
(-1.27888e-21 -9.87906e-16 0)
(1.27888e-21 -9.87906e-16 0)
(3.8325e-21 -9.87906e-16 0)
(6.37372e-21 -9.87906e-16 0)
(8.89439e-21 -9.87906e-16 0)
(1.13865e-20 -9.87906e-16 0)
(1.38424e-20 -9.87906e-16 0)
(1.62544e-20 -9.87906e-16 0)
(1.86154e-20 -9.87906e-16 0)
(2.22963e-20 -9.87905e-16 0)
(2.71364e-20 -9.87905e-16 0)
(3.15735e-20 -9.87904e-16 0)
(3.55604e-20 -9.87904e-16 0)
(3.90631e-20 -9.87903e-16 0)
(4.20607e-20 -9.87902e-16 0)
(4.45442e-20 -9.87902e-16 0)
(4.6515e-20 -9.87901e-16 0)
(4.79836e-20 -9.879e-16 0)
(4.89675e-20 -9.879e-16 0)
(4.94898e-20 -9.87899e-16 0)
(4.95773e-20 -9.87898e-16 0)
(4.92594e-20 -9.87898e-16 0)
(4.8567e-20 -9.87897e-16 0)
(4.75313e-20 -9.87897e-16 0)
(4.61831e-20 -9.87896e-16 0)
(4.45523e-20 -9.87896e-16 0)
(4.26676e-20 -9.87896e-16 0)
(4.0556e-20 -9.87895e-16 0)
(3.82428e-20 -9.87895e-16 0)
(3.57513e-20 -9.87895e-16 0)
(3.31034e-20 -9.87895e-16 0)
(3.03187e-20 -9.87895e-16 0)
(2.74156e-20 -9.87894e-16 0)
(2.44108e-20 -9.87894e-16 0)
(2.13195e-20 -9.87894e-16 0)
(1.81557e-20 -9.87894e-16 0)
(1.49325e-20 -9.87894e-16 0)
(1.16619e-20 -9.87894e-16 0)
(8.35523e-21 -9.87894e-16 0)
(5.02317e-21 -9.87894e-16 0)
(1.67605e-21 -9.87894e-16 0)
(-1.67871e-21 -9.87893e-16 0)
(-5.03117e-21 -9.87893e-16 0)
(-8.36871e-21 -9.87893e-16 0)
(-1.16811e-20 -9.87893e-16 0)
(-1.49577e-20 -9.87893e-16 0)
(-1.81873e-20 -9.87893e-16 0)
(-2.13579e-20 -9.87893e-16 0)
(-2.44567e-20 -9.87893e-16 0)
(-2.74696e-20 -9.87893e-16 0)
(-3.03815e-20 -9.87894e-16 0)
(-3.31758e-20 -9.87894e-16 0)
(-3.58343e-20 -9.87894e-16 0)
(-3.83371e-20 -9.87894e-16 0)
(-4.06627e-20 -9.87895e-16 0)
(-4.27875e-20 -9.87895e-16 0)
(-4.46864e-20 -9.87895e-16 0)
(-4.63321e-20 -9.87896e-16 0)
(-4.7696e-20 -9.87896e-16 0)
(-4.87478e-20 -9.87897e-16 0)
(-4.94564e-20 -9.87898e-16 0)
(-4.97901e-20 -9.87898e-16 0)
(-4.97178e-20 -9.87899e-16 0)
(-4.92093e-20 -9.879e-16 0)
(-4.8237e-20 -9.87901e-16 0)
(-4.67772e-20 -9.87901e-16 0)
(-4.48113e-20 -9.87902e-16 0)
(-4.23282e-20 -9.87903e-16 0)
(-3.93255e-20 -9.87904e-16 0)
(-3.58115e-20 -9.87905e-16 0)
(-3.18066e-20 -9.87906e-16 0)
(-2.73447e-20 -9.87907e-16 0)
(-2.24732e-20 -9.87907e-16 0)
(-1.87663e-20 -9.87908e-16 0)
(-1.63874e-20 -9.87908e-16 0)
(-1.39567e-20 -9.87908e-16 0)
(-1.14813e-20 -9.87908e-16 0)
(-8.96884e-21 -9.87908e-16 0)
(-6.42731e-21 -9.87908e-16 0)
(-3.86482e-21 -9.87908e-16 0)
(-1.28968e-21 -9.87908e-16 0)
(1.28968e-21 -9.87908e-16 0)
(3.86482e-21 -9.87908e-16 0)
(6.42731e-21 -9.87908e-16 0)
(8.96884e-21 -9.87908e-16 0)
(1.14813e-20 -9.87908e-16 0)
(1.39567e-20 -9.87908e-16 0)
(1.63874e-20 -9.87908e-16 0)
(1.87663e-20 -9.87908e-16 0)
(2.24732e-20 -9.87907e-16 0)
(2.73447e-20 -9.87907e-16 0)
(3.18066e-20 -9.87906e-16 0)
(3.58115e-20 -9.87905e-16 0)
(3.93255e-20 -9.87904e-16 0)
(4.23282e-20 -9.87903e-16 0)
(4.48113e-20 -9.87902e-16 0)
(4.67772e-20 -9.87901e-16 0)
(4.8237e-20 -9.87901e-16 0)
(4.92093e-20 -9.879e-16 0)
(4.97178e-20 -9.87899e-16 0)
(4.97901e-20 -9.87898e-16 0)
(4.94564e-20 -9.87898e-16 0)
(4.87478e-20 -9.87897e-16 0)
(4.7696e-20 -9.87896e-16 0)
(4.63321e-20 -9.87896e-16 0)
(4.46864e-20 -9.87895e-16 0)
(4.27875e-20 -9.87895e-16 0)
(4.06627e-20 -9.87895e-16 0)
(3.83371e-20 -9.87894e-16 0)
(3.58343e-20 -9.87894e-16 0)
(3.31758e-20 -9.87894e-16 0)
(3.03815e-20 -9.87894e-16 0)
(2.74696e-20 -9.87893e-16 0)
(2.44567e-20 -9.87893e-16 0)
(2.13579e-20 -9.87893e-16 0)
(1.81873e-20 -9.87893e-16 0)
(1.49577e-20 -9.87893e-16 0)
(1.16811e-20 -9.87893e-16 0)
(8.36871e-21 -9.87893e-16 0)
(5.03117e-21 -9.87893e-16 0)
(1.67871e-21 -9.87893e-16 0)
(-1.68226e-21 -9.87891e-16 0)
(-5.0419e-21 -9.87891e-16 0)
(-8.38679e-21 -9.87892e-16 0)
(-1.17068e-20 -9.87892e-16 0)
(-1.49915e-20 -9.87892e-16 0)
(-1.82296e-20 -9.87892e-16 0)
(-2.14095e-20 -9.87892e-16 0)
(-2.45182e-20 -9.87892e-16 0)
(-2.75421e-20 -9.87892e-16 0)
(-3.04658e-20 -9.87893e-16 0)
(-3.3273e-20 -9.87893e-16 0)
(-3.59456e-20 -9.87893e-16 0)
(-3.84638e-20 -9.87893e-16 0)
(-4.0806e-20 -9.87894e-16 0)
(-4.29488e-20 -9.87894e-16 0)
(-4.48667e-20 -9.87895e-16 0)
(-4.65327e-20 -9.87895e-16 0)
(-4.79176e-20 -9.87896e-16 0)
(-4.89911e-20 -9.87897e-16 0)
(-4.97216e-20 -9.87897e-16 0)
(-5.0077e-20 -9.87898e-16 0)
(-5.00252e-20 -9.87899e-16 0)
(-4.95354e-20 -9.879e-16 0)
(-4.85791e-20 -9.87901e-16 0)
(-4.71312e-20 -9.87902e-16 0)
(-4.51723e-20 -9.87903e-16 0)
(-4.26899e-20 -9.87904e-16 0)
(-3.96804e-20 -9.87905e-16 0)
(-3.61513e-20 -9.87906e-16 0)
(-3.21224e-20 -9.87907e-16 0)
(-2.7627e-20 -9.87908e-16 0)
(-2.27129e-20 -9.87909e-16 0)
(-1.89708e-20 -9.8791e-16 0)
(-1.65679e-20 -9.8791e-16 0)
(-1.41117e-20 -9.8791e-16 0)
(-1.16098e-20 -9.8791e-16 0)
(-9.06984e-21 -9.8791e-16 0)
(-6.50002e-21 -9.8791e-16 0)
(-3.90867e-21 -9.87911e-16 0)
(-1.30434e-21 -9.87911e-16 0)
(1.30434e-21 -9.87911e-16 0)
(3.90867e-21 -9.87911e-16 0)
(6.50002e-21 -9.8791e-16 0)
(9.06984e-21 -9.8791e-16 0)
(1.16098e-20 -9.8791e-16 0)
(1.41117e-20 -9.8791e-16 0)
(1.65679e-20 -9.8791e-16 0)
(1.89708e-20 -9.8791e-16 0)
(2.27129e-20 -9.87909e-16 0)
(2.7627e-20 -9.87908e-16 0)
(3.21224e-20 -9.87907e-16 0)
(3.61513e-20 -9.87906e-16 0)
(3.96804e-20 -9.87905e-16 0)
(4.26899e-20 -9.87904e-16 0)
(4.51723e-20 -9.87903e-16 0)
(4.71312e-20 -9.87902e-16 0)
(4.85791e-20 -9.87901e-16 0)
(4.95354e-20 -9.879e-16 0)
(5.00252e-20 -9.87899e-16 0)
(5.0077e-20 -9.87898e-16 0)
(4.97216e-20 -9.87897e-16 0)
(4.89911e-20 -9.87897e-16 0)
(4.79176e-20 -9.87896e-16 0)
(4.65327e-20 -9.87895e-16 0)
(4.48667e-20 -9.87895e-16 0)
(4.29488e-20 -9.87894e-16 0)
(4.0806e-20 -9.87894e-16 0)
(3.84638e-20 -9.87893e-16 0)
(3.59456e-20 -9.87893e-16 0)
(3.3273e-20 -9.87893e-16 0)
(3.04658e-20 -9.87893e-16 0)
(2.75421e-20 -9.87892e-16 0)
(2.45182e-20 -9.87892e-16 0)
(2.14095e-20 -9.87892e-16 0)
(1.82296e-20 -9.87892e-16 0)
(1.49915e-20 -9.87892e-16 0)
(1.17068e-20 -9.87892e-16 0)
(8.38679e-21 -9.87892e-16 0)
(5.0419e-21 -9.87891e-16 0)
(1.68226e-21 -9.87891e-16 0)
(-1.68694e-21 -9.8789e-16 0)
(-5.05601e-21 -9.8789e-16 0)
(-8.41055e-21 -9.8789e-16 0)
(-1.17406e-20 -9.8789e-16 0)
(-1.50359e-20 -9.8789e-16 0)
(-1.82853e-20 -9.8789e-16 0)
(-2.14773e-20 -9.87891e-16 0)
(-2.45992e-20 -9.87891e-16 0)
(-2.76373e-20 -9.87891e-16 0)
(-3.05767e-20 -9.87891e-16 0)
(-3.3401e-20 -9.87892e-16 0)
(-3.60922e-20 -9.87892e-16 0)
(-3.86306e-20 -9.87892e-16 0)
(-4.09947e-20 -9.87893e-16 0)
(-4.31611e-20 -9.87893e-16 0)
(-4.51043e-20 -9.87894e-16 0)
(-4.6797e-20 -9.87895e-16 0)
(-4.82099e-20 -9.87895e-16 0)
(-4.93122e-20 -9.87896e-16 0)
(-5.00718e-20 -9.87897e-16 0)
(-5.04559e-20 -9.87898e-16 0)
(-5.04315e-20 -9.87899e-16 0)
(-4.99668e-20 -9.879e-16 0)
(-4.90318e-20 -9.87902e-16 0)
(-4.76002e-20 -9.87903e-16 0)
(-4.56509e-20 -9.87904e-16 0)
(-4.31698e-20 -9.87905e-16 0)
(-4.01518e-20 -9.87907e-16 0)
(-3.66031e-20 -9.87908e-16 0)
(-3.25423e-20 -9.87909e-16 0)
(-2.80027e-20 -9.8791e-16 0)
(-2.30322e-20 -9.87911e-16 0)
(-1.92433e-20 -9.87912e-16 0)
(-1.68084e-20 -9.87912e-16 0)
(-1.43185e-20 -9.87912e-16 0)
(-1.17811e-20 -9.87913e-16 0)
(-9.20453e-21 -9.87913e-16 0)
(-6.59698e-21 -9.87913e-16 0)
(-3.96715e-21 -9.87913e-16 0)
(-1.32388e-21 -9.87913e-16 0)
(1.32388e-21 -9.87913e-16 0)
(3.96715e-21 -9.87913e-16 0)
(6.59698e-21 -9.87913e-16 0)
(9.20453e-21 -9.87913e-16 0)
(1.17811e-20 -9.87913e-16 0)
(1.43185e-20 -9.87912e-16 0)
(1.68084e-20 -9.87912e-16 0)
(1.92433e-20 -9.87912e-16 0)
(2.30322e-20 -9.87911e-16 0)
(2.80027e-20 -9.8791e-16 0)
(3.25423e-20 -9.87909e-16 0)
(3.66031e-20 -9.87908e-16 0)
(4.01518e-20 -9.87907e-16 0)
(4.31698e-20 -9.87905e-16 0)
(4.56509e-20 -9.87904e-16 0)
(4.76002e-20 -9.87903e-16 0)
(4.90318e-20 -9.87902e-16 0)
(4.99668e-20 -9.879e-16 0)
(5.04315e-20 -9.87899e-16 0)
(5.04559e-20 -9.87898e-16 0)
(5.00718e-20 -9.87897e-16 0)
(4.93122e-20 -9.87896e-16 0)
(4.82099e-20 -9.87895e-16 0)
(4.6797e-20 -9.87895e-16 0)
(4.51043e-20 -9.87894e-16 0)
(4.31611e-20 -9.87893e-16 0)
(4.09947e-20 -9.87893e-16 0)
(3.86306e-20 -9.87892e-16 0)
(3.60922e-20 -9.87892e-16 0)
(3.3401e-20 -9.87892e-16 0)
(3.05767e-20 -9.87891e-16 0)
(2.76373e-20 -9.87891e-16 0)
(2.45992e-20 -9.87891e-16 0)
(2.14773e-20 -9.87891e-16 0)
(1.82853e-20 -9.8789e-16 0)
(1.50359e-20 -9.8789e-16 0)
(1.17406e-20 -9.8789e-16 0)
(8.41055e-21 -9.8789e-16 0)
(5.05601e-21 -9.8789e-16 0)
(1.68694e-21 -9.8789e-16 0)
(-1.69298e-21 -9.87889e-16 0)
(-5.07423e-21 -9.87889e-16 0)
(-8.44127e-21 -9.87889e-16 0)
(-1.17843e-20 -9.87889e-16 0)
(-1.50933e-20 -9.87889e-16 0)
(-1.83573e-20 -9.87889e-16 0)
(-2.1565e-20 -9.87889e-16 0)
(-2.4704e-20 -9.87889e-16 0)
(-2.77606e-20 -9.8789e-16 0)
(-3.07202e-20 -9.8789e-16 0)
(-3.35666e-20 -9.8789e-16 0)
(-3.6282e-20 -9.87891e-16 0)
(-3.88467e-20 -9.87891e-16 0)
(-4.12393e-20 -9.87892e-16 0)
(-4.34364e-20 -9.87893e-16 0)
(-4.54125e-20 -9.87893e-16 0)
(-4.71401e-20 -9.87894e-16 0)
(-4.85895e-20 -9.87895e-16 0)
(-4.97295e-20 -9.87896e-16 0)
(-5.05273e-20 -9.87897e-16 0)
(-5.09491e-20 -9.87898e-16 0)
(-5.09609e-20 -9.87899e-16 0)
(-5.05293e-20 -9.87901e-16 0)
(-4.96228e-20 -9.87902e-16 0)
(-4.82131e-20 -9.87904e-16 0)
(-4.62769e-20 -9.87905e-16 0)
(-4.37982e-20 -9.87907e-16 0)
(-4.07697e-20 -9.87908e-16 0)
(-3.71958e-20 -9.8791e-16 0)
(-3.3094e-20 -9.87911e-16 0)
(-2.84967e-20 -9.87912e-16 0)
(-2.34523e-20 -9.87913e-16 0)
(-1.96022e-20 -9.87914e-16 0)
(-1.71252e-20 -9.87915e-16 0)
(-1.45908e-20 -9.87915e-16 0)
(-1.20069e-20 -9.87915e-16 0)
(-9.382e-21 -9.87915e-16 0)
(-6.72477e-21 -9.87916e-16 0)
(-4.04424e-21 -9.87916e-16 0)
(-1.34965e-21 -9.87916e-16 0)
(1.34965e-21 -9.87916e-16 0)
(4.04424e-21 -9.87916e-16 0)
(6.72477e-21 -9.87916e-16 0)
(9.382e-21 -9.87915e-16 0)
(1.20069e-20 -9.87915e-16 0)
(1.45908e-20 -9.87915e-16 0)
(1.71252e-20 -9.87915e-16 0)
(1.96022e-20 -9.87914e-16 0)
(2.34523e-20 -9.87913e-16 0)
(2.84967e-20 -9.87912e-16 0)
(3.3094e-20 -9.87911e-16 0)
(3.71958e-20 -9.8791e-16 0)
(4.07697e-20 -9.87908e-16 0)
(4.37982e-20 -9.87907e-16 0)
(4.62769e-20 -9.87905e-16 0)
(4.82131e-20 -9.87904e-16 0)
(4.96228e-20 -9.87902e-16 0)
(5.05293e-20 -9.87901e-16 0)
(5.09609e-20 -9.87899e-16 0)
(5.09491e-20 -9.87898e-16 0)
(5.05273e-20 -9.87897e-16 0)
(4.97295e-20 -9.87896e-16 0)
(4.85895e-20 -9.87895e-16 0)
(4.71401e-20 -9.87894e-16 0)
(4.54125e-20 -9.87893e-16 0)
(4.34364e-20 -9.87893e-16 0)
(4.12393e-20 -9.87892e-16 0)
(3.88467e-20 -9.87891e-16 0)
(3.6282e-20 -9.87891e-16 0)
(3.35666e-20 -9.8789e-16 0)
(3.07202e-20 -9.8789e-16 0)
(2.77606e-20 -9.8789e-16 0)
(2.4704e-20 -9.87889e-16 0)
(2.1565e-20 -9.87889e-16 0)
(1.83573e-20 -9.87889e-16 0)
(1.50933e-20 -9.87889e-16 0)
(1.17843e-20 -9.87889e-16 0)
(8.44127e-21 -9.87889e-16 0)
(5.07423e-21 -9.87889e-16 0)
(1.69298e-21 -9.87889e-16 0)
(-1.70069e-21 -9.87887e-16 0)
(-5.09748e-21 -9.87887e-16 0)
(-8.48043e-21 -9.87887e-16 0)
(-1.18401e-20 -9.87887e-16 0)
(-1.51665e-20 -9.87887e-16 0)
(-1.84492e-20 -9.87887e-16 0)
(-2.1677e-20 -9.87888e-16 0)
(-2.48376e-20 -9.87888e-16 0)
(-2.7918e-20 -9.87888e-16 0)
(-3.09036e-20 -9.87889e-16 0)
(-3.37783e-20 -9.87889e-16 0)
(-3.65245e-20 -9.8789e-16 0)
(-3.9123e-20 -9.8789e-16 0)
(-4.15523e-20 -9.87891e-16 0)
(-4.3789e-20 -9.87892e-16 0)
(-4.58074e-20 -9.87892e-16 0)
(-4.758e-20 -9.87893e-16 0)
(-4.90766e-20 -9.87894e-16 0)
(-5.02654e-20 -9.87895e-16 0)
(-5.11128e-20 -9.87897e-16 0)
(-5.15838e-20 -9.87898e-16 0)
(-5.16429e-20 -9.87899e-16 0)
(-5.12549e-20 -9.87901e-16 0)
(-5.03861e-20 -9.87903e-16 0)
(-4.90056e-20 -9.87904e-16 0)
(-4.70877e-20 -9.87906e-16 0)
(-4.46131e-20 -9.87908e-16 0)
(-4.15722e-20 -9.8791e-16 0)
(-3.79667e-20 -9.87912e-16 0)
(-3.38124e-20 -9.87913e-16 0)
(-2.91408e-20 -9.87915e-16 0)
(-2.40006e-20 -9.87916e-16 0)
(-2.00708e-20 -9.87917e-16 0)
(-1.7539e-20 -9.87917e-16 0)
(-1.49467e-20 -9.87918e-16 0)
(-1.23021e-20 -9.87918e-16 0)
(-9.61408e-21 -9.87918e-16 0)
(-6.8919e-21 -9.87918e-16 0)
(-4.14507e-21 -9.87919e-16 0)
(-1.38335e-21 -9.87919e-16 0)
(1.38335e-21 -9.87919e-16 0)
(4.14507e-21 -9.87919e-16 0)
(6.8919e-21 -9.87918e-16 0)
(9.61408e-21 -9.87918e-16 0)
(1.23021e-20 -9.87918e-16 0)
(1.49467e-20 -9.87918e-16 0)
(1.7539e-20 -9.87917e-16 0)
(2.00708e-20 -9.87917e-16 0)
(2.40006e-20 -9.87916e-16 0)
(2.91408e-20 -9.87915e-16 0)
(3.38124e-20 -9.87913e-16 0)
(3.79667e-20 -9.87912e-16 0)
(4.15722e-20 -9.8791e-16 0)
(4.46131e-20 -9.87908e-16 0)
(4.70877e-20 -9.87906e-16 0)
(4.90056e-20 -9.87904e-16 0)
(5.03861e-20 -9.87903e-16 0)
(5.12549e-20 -9.87901e-16 0)
(5.16429e-20 -9.87899e-16 0)
(5.15838e-20 -9.87898e-16 0)
(5.11128e-20 -9.87897e-16 0)
(5.02654e-20 -9.87895e-16 0)
(4.90766e-20 -9.87894e-16 0)
(4.758e-20 -9.87893e-16 0)
(4.58074e-20 -9.87892e-16 0)
(4.3789e-20 -9.87892e-16 0)
(4.15523e-20 -9.87891e-16 0)
(3.9123e-20 -9.8789e-16 0)
(3.65245e-20 -9.8789e-16 0)
(3.37783e-20 -9.87889e-16 0)
(3.09036e-20 -9.87889e-16 0)
(2.7918e-20 -9.87888e-16 0)
(2.48376e-20 -9.87888e-16 0)
(2.1677e-20 -9.87888e-16 0)
(1.84492e-20 -9.87887e-16 0)
(1.51665e-20 -9.87887e-16 0)
(1.18401e-20 -9.87887e-16 0)
(8.48043e-21 -9.87887e-16 0)
(5.09748e-21 -9.87887e-16 0)
(1.70069e-21 -9.87887e-16 0)
(-1.7104e-21 -9.87885e-16 0)
(-5.12677e-21 -9.87885e-16 0)
(-8.52981e-21 -9.87885e-16 0)
(-1.19103e-20 -9.87885e-16 0)
(-1.52588e-20 -9.87885e-16 0)
(-1.8565e-20 -9.87886e-16 0)
(-2.18182e-20 -9.87886e-16 0)
(-2.50064e-20 -9.87886e-16 0)
(-2.81167e-20 -9.87887e-16 0)
(-3.11351e-20 -9.87887e-16 0)
(-3.40457e-20 -9.87888e-16 0)
(-3.68313e-20 -9.87888e-16 0)
(-3.94726e-20 -9.87889e-16 0)
(-4.19485e-20 -9.8789e-16 0)
(-4.42356e-20 -9.8789e-16 0)
(-4.63082e-20 -9.87891e-16 0)
(-4.81383e-20 -9.87892e-16 0)
(-4.96956e-20 -9.87894e-16 0)
(-5.09472e-20 -9.87895e-16 0)
(-5.18586e-20 -9.87896e-16 0)
(-5.23933e-20 -9.87898e-16 0)
(-5.2514e-20 -9.879e-16 0)
(-5.2183e-20 -9.87901e-16 0)
(-5.1364e-20 -9.87903e-16 0)
(-5.00228e-20 -9.87905e-16 0)
(-4.813e-20 -9.87907e-16 0)
(-4.56627e-20 -9.87909e-16 0)
(-4.26076e-20 -9.87912e-16 0)
(-3.89631e-20 -9.87914e-16 0)
(-3.47425e-20 -9.87916e-16 0)
(-2.99761e-20 -9.87917e-16 0)
(-2.47128e-20 -9.87919e-16 0)
(-2.06801e-20 -9.8792e-16 0)
(-1.80773e-20 -9.8792e-16 0)
(-1.54097e-20 -9.87921e-16 0)
(-1.26862e-20 -9.87921e-16 0)
(-9.91622e-21 -9.87922e-16 0)
(-7.10953e-21 -9.87922e-16 0)
(-4.27638e-21 -9.87922e-16 0)
(-1.42724e-21 -9.87922e-16 0)
(1.42724e-21 -9.87922e-16 0)
(4.27638e-21 -9.87922e-16 0)
(7.10953e-21 -9.87922e-16 0)
(9.91622e-21 -9.87922e-16 0)
(1.26862e-20 -9.87921e-16 0)
(1.54097e-20 -9.87921e-16 0)
(1.80773e-20 -9.8792e-16 0)
(2.06801e-20 -9.8792e-16 0)
(2.47128e-20 -9.87919e-16 0)
(2.99761e-20 -9.87917e-16 0)
(3.47425e-20 -9.87916e-16 0)
(3.89631e-20 -9.87914e-16 0)
(4.26076e-20 -9.87912e-16 0)
(4.56627e-20 -9.87909e-16 0)
(4.813e-20 -9.87907e-16 0)
(5.00228e-20 -9.87905e-16 0)
(5.1364e-20 -9.87903e-16 0)
(5.2183e-20 -9.87901e-16 0)
(5.2514e-20 -9.879e-16 0)
(5.23933e-20 -9.87898e-16 0)
(5.18586e-20 -9.87896e-16 0)
(5.09472e-20 -9.87895e-16 0)
(4.96956e-20 -9.87894e-16 0)
(4.81383e-20 -9.87892e-16 0)
(4.63082e-20 -9.87891e-16 0)
(4.42356e-20 -9.8789e-16 0)
(4.19485e-20 -9.8789e-16 0)
(3.94726e-20 -9.87889e-16 0)
(3.68313e-20 -9.87888e-16 0)
(3.40457e-20 -9.87888e-16 0)
(3.11351e-20 -9.87887e-16 0)
(2.81167e-20 -9.87887e-16 0)
(2.50064e-20 -9.87886e-16 0)
(2.18182e-20 -9.87886e-16 0)
(1.8565e-20 -9.87886e-16 0)
(1.52588e-20 -9.87885e-16 0)
(1.19103e-20 -9.87885e-16 0)
(8.52981e-21 -9.87885e-16 0)
(5.12677e-21 -9.87885e-16 0)
(1.7104e-21 -9.87885e-16 0)
(-1.72251e-21 -9.87883e-16 0)
(-5.16332e-21 -9.87883e-16 0)
(-8.59141e-21 -9.87883e-16 0)
(-1.1998e-20 -9.87883e-16 0)
(-1.5374e-20 -9.87884e-16 0)
(-1.87097e-20 -9.87884e-16 0)
(-2.19945e-20 -9.87884e-16 0)
(-2.52172e-20 -9.87884e-16 0)
(-2.83652e-20 -9.87885e-16 0)
(-3.14247e-20 -9.87885e-16 0)
(-3.43804e-20 -9.87886e-16 0)
(-3.72154e-20 -9.87886e-16 0)
(-3.99108e-20 -9.87887e-16 0)
(-4.24456e-20 -9.87888e-16 0)
(-4.47965e-20 -9.87889e-16 0)
(-4.69378e-20 -9.8789e-16 0)
(-4.88411e-20 -9.87891e-16 0)
(-5.04756e-20 -9.87893e-16 0)
(-5.18076e-20 -9.87894e-16 0)
(-5.28012e-20 -9.87896e-16 0)
(-5.34181e-20 -9.87898e-16 0)
(-5.36188e-20 -9.879e-16 0)
(-5.33625e-20 -9.87902e-16 0)
(-5.26093e-20 -9.87904e-16 0)
(-5.13209e-20 -9.87906e-16 0)
(-4.94632e-20 -9.87909e-16 0)
(-4.70085e-20 -9.87911e-16 0)
(-4.39383e-20 -9.87914e-16 0)
(-4.02467e-20 -9.87916e-16 0)
(-3.59434e-20 -9.87918e-16 0)
(-3.10567e-20 -9.8792e-16 0)
(-2.56358e-20 -9.87922e-16 0)
(-2.14707e-20 -9.87923e-16 0)
(-1.87762e-20 -9.87924e-16 0)
(-1.60113e-20 -9.87925e-16 0)
(-1.31855e-20 -9.87925e-16 0)
(-1.03091e-20 -9.87925e-16 0)
(-7.39258e-21 -9.87926e-16 0)
(-4.44719e-21 -9.87926e-16 0)
(-1.48435e-21 -9.87926e-16 0)
(1.48435e-21 -9.87926e-16 0)
(4.44719e-21 -9.87926e-16 0)
(7.39258e-21 -9.87926e-16 0)
(1.03091e-20 -9.87925e-16 0)