/*--------------------------------*- C++ -*----------------------------------*\
  =========                 |
  \\      /  F ield         | OpenFOAM: The Open Source CFD Toolbox
   \\    /   O peration     | Website:  https://openfoam.org
    \\  /    A nd           | Version:  10
     \\/     M anipulation  |
\*---------------------------------------------------------------------------*/
FoamFile
{
    format      ascii;
    class       volVectorField;
    location    "14300";
    object      Ua;
}
// * * * * * * * * * * * * * * * * * * * * * * * * * * * * * * * * * * * * * //

dimensions      [0 1 -1 0 0 0 0];

internalField   nonuniform List<vector> 
6400
(
(-3.15433e-07 6.41177e-08 0)
(-9.50018e-07 6.48738e-08 0)
(-1.59598e-06 6.64295e-08 0)
(-2.26163e-06 6.88782e-08 0)
(-2.95655e-06 7.23767e-08 0)
(-3.69227e-06 7.71717e-08 0)
(-4.48342e-06 8.3645e-08 0)
(-5.34948e-06 9.23978e-08 0)
(-6.31768e-06 1.04409e-07 0)
(-7.42834e-06 1.21353e-07 0)
(-8.74506e-06 1.46295e-07 0)
(-1.03762e-05 1.85266e-07 0)
(-1.25187e-05 2.50233e-07 0)
(-1.54254e-05 3.40615e-07 0)
(-1.46894e-05 -4.89166e-07 0)
(-6.32441e-06 1.79413e-05 0)
(-2.18446e-07 1.82139e-06 0)
(-4.78914e-08 3.55964e-07 0)
(-2.39267e-08 1.75691e-07 0)
(-1.53318e-08 1.12806e-07 0)
(-1.13125e-08 8.18731e-08 0)
(-9.18507e-09 6.38671e-08 0)
(-7.82207e-09 5.20979e-08 0)
(-6.54076e-09 4.40343e-08 0)
(-5.55103e-09 3.81519e-08 0)
(-4.90034e-09 3.36959e-08 0)
(-4.4198e-09 3.02486e-08 0)
(-3.99966e-09 2.75137e-08 0)
(-3.62301e-09 2.53227e-08 0)
(-3.2949e-09 2.35088e-08 0)
(-3.01814e-09 2.19862e-08 0)
(-2.7479e-09 2.0709e-08 0)
(-2.52574e-09 1.96994e-08 0)
(-2.34481e-09 1.92971e-08 0)
(-2.12549e-09 1.8937e-08 0)
(-1.85774e-09 1.86245e-08 0)
(-1.53443e-09 1.8362e-08 0)
(-1.15305e-09 1.8164e-08 0)
(-7.17491e-10 1.80363e-08 0)
(-2.43569e-10 1.79305e-08 0)
(2.43569e-10 1.79305e-08 0)
(7.17491e-10 1.80363e-08 0)
(1.15305e-09 1.8164e-08 0)
(1.53443e-09 1.8362e-08 0)
(1.85774e-09 1.86245e-08 0)
(2.12549e-09 1.8937e-08 0)
(2.34481e-09 1.92971e-08 0)
(2.52574e-09 1.96994e-08 0)
(2.7479e-09 2.0709e-08 0)
(3.01814e-09 2.19862e-08 0)
(3.2949e-09 2.35088e-08 0)
(3.62301e-09 2.53227e-08 0)
(3.99966e-09 2.75137e-08 0)
(4.4198e-09 3.02486e-08 0)
(4.90034e-09 3.36959e-08 0)
(5.55103e-09 3.81519e-08 0)
(6.54076e-09 4.40343e-08 0)
(7.82207e-09 5.20979e-08 0)
(9.18507e-09 6.38671e-08 0)
(1.13125e-08 8.18731e-08 0)
(1.53318e-08 1.12806e-07 0)
(2.39267e-08 1.75691e-07 0)
(4.78914e-08 3.55964e-07 0)
(2.18446e-07 1.82139e-06 0)
(6.32441e-06 1.79413e-05 0)
(1.46894e-05 -4.89166e-07 0)
(1.54254e-05 3.40615e-07 0)
(1.25187e-05 2.50233e-07 0)
(1.03762e-05 1.85266e-07 0)
(8.74506e-06 1.46295e-07 0)
(7.42834e-06 1.21353e-07 0)
(6.31768e-06 1.04409e-07 0)
(5.34948e-06 9.23978e-08 0)
(4.48342e-06 8.3645e-08 0)
(3.69227e-06 7.71717e-08 0)
(2.95655e-06 7.23767e-08 0)
(2.26163e-06 6.88782e-08 0)
(1.59598e-06 6.64295e-08 0)
(9.50018e-07 6.48738e-08 0)
(3.15433e-07 6.41178e-08 0)
(-3.15272e-07 1.98526e-07 0)
(-9.49526e-07 2.00865e-07 0)
(-1.59512e-06 2.05678e-07 0)
(-2.26037e-06 2.13254e-07 0)
(-2.95478e-06 2.24076e-07 0)
(-3.68987e-06 2.38907e-07 0)
(-4.48017e-06 2.58926e-07 0)
(-5.34505e-06 2.85985e-07 0)
(-6.31151e-06 3.23101e-07 0)
(-7.41941e-06 3.75429e-07 0)
(-8.73144e-06 4.52383e-07 0)
(-1.03541e-05 5.72502e-07 0)
(-1.24856e-05 7.73721e-07 0)
(-1.55831e-05 1.09857e-06 0)
(-2.43019e-05 5.48188e-07 0)
(-2.09114e-05 2.34993e-05 0)
(-5.73198e-06 1.27632e-05 0)
(-4.49772e-07 1.8686e-06 0)
(-7.99753e-08 4.07664e-07 0)
(-4.16861e-08 2.15576e-07 0)
(-2.86857e-08 1.46689e-07 0)
(-2.25689e-08 1.1149e-07 0)
(-1.894e-08 8.93292e-08 0)
(-1.56537e-08 7.47405e-08 0)
(-1.31941e-08 6.45053e-08 0)
(-1.16144e-08 5.68587e-08 0)
(-1.04582e-08 5.09169e-08 0)
(-9.44918e-09 4.62398e-08 0)
(-8.54889e-09 4.24994e-08 0)
(-7.76991e-09 3.94449e-08 0)
(-7.12221e-09 3.68786e-08 0)
(-6.49722e-09 3.47148e-08 0)
(-5.98697e-09 3.29942e-08 0)
(-5.57258e-09 3.22983e-08 0)
(-5.0683e-09 3.16716e-08 0)
(-4.4478e-09 3.11257e-08 0)
(-3.69028e-09 3.06677e-08 0)
(-2.78485e-09 3.03205e-08 0)
(-1.7384e-09 3.00921e-08 0)
(-5.91132e-10 2.9909e-08 0)
(5.91132e-10 2.9909e-08 0)
(1.7384e-09 3.00921e-08 0)
(2.78485e-09 3.03205e-08 0)
(3.69028e-09 3.06677e-08 0)
(4.4478e-09 3.11257e-08 0)
(5.0683e-09 3.16716e-08 0)
(5.57258e-09 3.22983e-08 0)
(5.98697e-09 3.29942e-08 0)
(6.49722e-09 3.47148e-08 0)
(7.12221e-09 3.68786e-08 0)
(7.76991e-09 3.94449e-08 0)
(8.54889e-09 4.24994e-08 0)
(9.44918e-09 4.62398e-08 0)
(1.04582e-08 5.09169e-08 0)
(1.16144e-08 5.68587e-08 0)
(1.31941e-08 6.45053e-08 0)
(1.56537e-08 7.47405e-08 0)
(1.894e-08 8.93292e-08 0)
(2.25689e-08 1.1149e-07 0)
(2.86857e-08 1.46689e-07 0)
(4.16861e-08 2.15576e-07 0)
(7.99753e-08 4.07664e-07 0)
(4.49772e-07 1.8686e-06 0)
(5.73198e-06 1.27632e-05 0)
(2.09114e-05 2.34993e-05 0)
(2.43019e-05 5.48188e-07 0)
(1.55831e-05 1.09857e-06 0)
(1.24856e-05 7.73721e-07 0)
(1.03541e-05 5.72502e-07 0)
(8.73143e-06 4.52383e-07 0)
(7.41941e-06 3.75429e-07 0)
(6.31151e-06 3.23101e-07 0)
(5.34505e-06 2.85985e-07 0)
(4.48017e-06 2.58926e-07 0)
(3.68987e-06 2.38907e-07 0)
(2.95478e-06 2.24076e-07 0)
(2.26037e-06 2.13254e-07 0)
(1.59512e-06 2.05678e-07 0)
(9.49526e-07 2.00865e-07 0)
(3.15272e-07 1.98526e-07 0)
(-3.14902e-07 3.45821e-07 0)
(-9.48394e-07 3.4989e-07 0)
(-1.59316e-06 3.5826e-07 0)
(-2.25746e-06 3.71433e-07 0)
(-2.95073e-06 3.90248e-07 0)
(-3.68435e-06 4.16023e-07 0)
(-4.47273e-06 4.50797e-07 0)
(-5.33491e-06 4.97773e-07 0)
(-6.29737e-06 5.62146e-07 0)
(-7.39898e-06 6.52775e-07 0)
(-8.70031e-06 7.85777e-07 0)
(-1.03032e-05 9.92847e-07 0)
(-1.23989e-05 1.34107e-06 0)
(-1.5463e-05 1.9711e-06 0)
(-2.19994e-05 3.21793e-06 0)
(-2.14071e-05 1.99288e-05 0)
(-1.11482e-05 2.25643e-05 0)
(-4.64476e-06 9.49335e-06 0)
(-1.66282e-06 6.42605e-06 0)
(-1.33988e-07 7.83771e-07 0)
(-6.13701e-08 3.46737e-07 0)
(-4.31174e-08 2.36354e-07 0)
(-3.47242e-08 1.80276e-07 0)
(-2.78838e-08 1.4714e-07 0)
(-2.31188e-08 1.25529e-07 0)
(-2.02241e-08 1.09944e-07 0)
(-1.81527e-08 9.79529e-08 0)
(-1.63515e-08 8.86805e-08 0)
(-1.47587e-08 8.13209e-08 0)
(-1.3396e-08 7.5421e-08 0)
(-1.22954e-08 7.04779e-08 0)
(-1.12564e-08 6.63142e-08 0)
(-1.04195e-08 6.30054e-08 0)
(-9.74321e-09 6.16641e-08 0)
(-8.91271e-09 6.04624e-08 0)
(-7.87495e-09 5.9428e-08 0)
(-6.58308e-09 5.85758e-08 0)
(-5.00371e-09 5.79373e-08 0)
(-3.14068e-09 5.75138e-08 0)
(-1.0711e-09 5.71774e-08 0)
(1.0711e-09 5.71774e-08 0)
(3.14068e-09 5.75138e-08 0)
(5.00371e-09 5.79373e-08 0)
(6.58308e-09 5.85758e-08 0)
(7.87495e-09 5.9428e-08 0)
(8.91271e-09 6.04624e-08 0)
(9.74321e-09 6.16641e-08 0)
(1.04195e-08 6.30054e-08 0)
(1.12564e-08 6.63142e-08 0)
(1.22954e-08 7.04779e-08 0)
(1.3396e-08 7.5421e-08 0)
(1.47587e-08 8.13209e-08 0)
(1.63515e-08 8.86805e-08 0)
(1.81527e-08 9.79529e-08 0)
(2.02241e-08 1.09944e-07 0)
(2.31188e-08 1.25529e-07 0)
(2.78838e-08 1.4714e-07 0)
(3.47242e-08 1.80276e-07 0)
(4.31174e-08 2.36354e-07 0)
(6.13701e-08 3.46737e-07 0)
(1.33988e-07 7.83771e-07 0)
(1.66282e-06 6.42605e-06 0)
(4.64476e-06 9.49335e-06 0)
(1.11482e-05 2.25643e-05 0)
(2.14071e-05 1.99288e-05 0)
(2.19994e-05 3.21793e-06 0)
(1.5463e-05 1.9711e-06 0)
(1.23989e-05 1.34107e-06 0)
(1.03032e-05 9.92847e-07 0)
(8.70031e-06 7.85777e-07 0)
(7.39898e-06 6.52775e-07 0)
(6.29737e-06 5.62146e-07 0)
(5.33491e-06 4.97773e-07 0)
(4.47273e-06 4.50797e-07 0)
(3.68435e-06 4.16023e-07 0)
(2.95073e-06 3.90248e-07 0)
(2.25746e-06 3.71433e-07 0)
(1.59316e-06 3.5826e-07 0)
(9.48394e-07 3.4989e-07 0)
(3.14902e-07 3.45821e-07 0)
(-3.14265e-07 5.07117e-07 0)
(-9.46446e-07 5.13067e-07 0)
(-1.58979e-06 5.25308e-07 0)
(-2.25245e-06 5.44565e-07 0)
(-2.94374e-06 5.72062e-07 0)
(-3.67488e-06 6.09709e-07 0)
(-4.45994e-06 6.60463e-07 0)
(-5.31749e-06 7.2895e-07 0)
(-6.27314e-06 8.2265e-07 0)
(-7.36406e-06 9.54255e-07 0)
(-8.64726e-06 1.1467e-06 0)
(-1.02166e-05 1.44483e-06 0)
(-1.22432e-05 1.94512e-06 0)
(-1.51136e-05 2.88621e-06 0)
(-1.99209e-05 5.19062e-06 0)
(-1.92301e-05 1.7626e-05 0)
(-1.16877e-05 2.03355e-05 0)
(-7.94178e-06 1.56086e-05 0)
(-8.84928e-06 1.24542e-05 0)
(-5.17415e-06 1.45304e-05 0)
(-3.6081e-07 1.3215e-06 0)
(-9.48857e-08 5.4982e-07 0)
(-6.23381e-08 3.34359e-07 0)
(-4.58161e-08 2.52178e-07 0)
(-3.63784e-08 2.08039e-07 0)
(-3.12917e-08 1.79064e-07 0)
(-2.78544e-08 1.57701e-07 0)
(-2.49212e-08 1.4185e-07 0)
(-2.23838e-08 1.29503e-07 0)
(-2.02574e-08 1.19909e-07 0)
(-1.86276e-08 1.1193e-07 0)
(-1.71454e-08 1.05246e-07 0)
(-1.59824e-08 9.99507e-08 0)
(-1.50531e-08 9.78007e-08 0)
(-1.38923e-08 9.58841e-08 0)
(-1.24023e-08 9.42573e-08 0)
(-1.04881e-08 9.29388e-08 0)
(-8.06161e-09 9.19504e-08 0)
(-5.10383e-09 9.12784e-08 0)
(-1.74859e-09 9.07551e-08 0)
(1.74859e-09 9.07551e-08 0)
(5.10383e-09 9.12784e-08 0)
(8.06161e-09 9.19504e-08 0)
(1.04881e-08 9.29388e-08 0)
(1.24023e-08 9.42573e-08 0)
(1.38923e-08 9.58841e-08 0)
(1.50531e-08 9.78007e-08 0)
(1.59824e-08 9.99507e-08 0)
(1.71454e-08 1.05246e-07 0)
(1.86276e-08 1.1193e-07 0)
(2.02574e-08 1.19909e-07 0)
(2.23838e-08 1.29503e-07 0)
(2.49212e-08 1.4185e-07 0)
(2.78544e-08 1.57701e-07 0)
(3.12917e-08 1.79064e-07 0)
(3.63784e-08 2.08039e-07 0)
(4.58161e-08 2.52178e-07 0)
(6.23381e-08 3.34359e-07 0)
(9.48857e-08 5.4982e-07 0)
(3.6081e-07 1.3215e-06 0)
(5.17415e-06 1.45304e-05 0)
(8.84928e-06 1.24542e-05 0)
(7.94178e-06 1.56086e-05 0)
(1.16877e-05 2.03355e-05 0)
(1.92301e-05 1.7626e-05 0)
(1.99209e-05 5.19062e-06 0)
(1.51136e-05 2.88621e-06 0)
(1.22432e-05 1.94512e-06 0)
(1.02166e-05 1.44483e-06 0)
(8.64726e-06 1.1467e-06 0)
(7.36406e-06 9.54255e-07 0)
(6.27314e-06 8.2265e-07 0)
(5.31749e-06 7.2895e-07 0)
(4.45994e-06 6.60463e-07 0)
(3.67488e-06 6.09709e-07 0)
(2.94374e-06 5.72062e-07 0)
(2.25245e-06 5.44565e-07 0)
(1.58979e-06 5.25308e-07 0)
(9.46446e-07 5.13067e-07 0)
(3.14265e-07 5.07117e-07 0)
(-3.1329e-07 6.83573e-07 0)
(-9.43467e-07 6.91561e-07 0)
(-1.58463e-06 7.0799e-07 0)
(-2.24479e-06 7.33828e-07 0)
(-2.93308e-06 7.70699e-07 0)
(-3.66041e-06 8.21142e-07 0)
(-4.44044e-06 8.89067e-07 0)
(-5.29098e-06 9.80573e-07 0)
(-6.23636e-06 1.10547e-06 0)
(-7.31124e-06 1.28025e-06 0)
(-8.5675e-06 1.53445e-06 0)
(-1.00871e-05 1.92504e-06 0)
(-1.20087e-05 2.57376e-06 0)
(-1.45842e-05 3.78514e-06 0)
(-1.80558e-05 6.60241e-06 0)
(-1.73591e-05 1.5824e-05 0)
(-1.18282e-05 1.84875e-05 0)
(-8.87416e-06 1.55829e-05 0)
(-1.16143e-05 1.35315e-05 0)
(-6.38513e-06 2.54379e-05 0)
(-5.51643e-06 5.19203e-06 0)
(-6.56369e-06 2.07867e-05 0)
(-2.62912e-07 9.88001e-07 0)
(-9.07295e-08 4.98999e-07 0)
(-5.85996e-08 3.4456e-07 0)
(-4.70804e-08 2.77265e-07 0)
(-4.07091e-08 2.36146e-07 0)
(-3.57601e-08 2.08885e-07 0)
(-3.17554e-08 1.88773e-07 0)
(-2.85388e-08 1.74049e-07 0)
(-2.62874e-08 1.62044e-07 0)
(-2.43668e-08 1.52158e-07 0)
(-2.29389e-08 1.44411e-07 0)
(-2.18347e-08 1.41263e-07 0)
(-2.0409e-08 1.38465e-07 0)
(-1.84913e-08 1.36135e-07 0)
(-1.59051e-08 1.34266e-07 0)
(-1.24328e-08 1.32818e-07 0)
(-7.97369e-09 1.31775e-07 0)
(-2.75027e-09 1.30993e-07 0)
(2.75027e-09 1.30993e-07 0)
(7.97369e-09 1.31775e-07 0)
(1.24328e-08 1.32818e-07 0)
(1.59051e-08 1.34266e-07 0)
(1.84913e-08 1.36135e-07 0)
(2.0409e-08 1.38465e-07 0)
(2.18347e-08 1.41263e-07 0)
(2.29389e-08 1.44411e-07 0)
(2.43668e-08 1.52158e-07 0)
(2.62874e-08 1.62044e-07 0)
(2.85388e-08 1.74049e-07 0)
(3.17554e-08 1.88773e-07 0)
(3.57601e-08 2.08885e-07 0)
(4.07091e-08 2.36146e-07 0)
(4.70804e-08 2.77265e-07 0)
(5.85996e-08 3.4456e-07 0)
(9.07295e-08 4.98999e-07 0)
(2.62912e-07 9.88001e-07 0)
(6.56369e-06 2.07867e-05 0)
(5.51643e-06 5.19203e-06 0)
(6.38513e-06 2.54379e-05 0)
(1.16143e-05 1.35315e-05 0)
(8.87416e-06 1.55829e-05 0)
(1.18282e-05 1.84875e-05 0)
(1.73591e-05 1.5824e-05 0)
(1.80558e-05 6.60241e-06 0)
(1.45842e-05 3.78514e-06 0)
(1.20087e-05 2.57376e-06 0)
(1.00871e-05 1.92504e-06 0)
(8.5675e-06 1.53445e-06 0)
(7.31124e-06 1.28025e-06 0)
(6.23636e-06 1.10547e-06 0)
(5.29098e-06 9.80573e-07 0)
(4.44044e-06 8.89067e-07 0)
(3.66041e-06 8.21142e-07 0)
(2.93308e-06 7.70699e-07 0)
(2.24479e-06 7.33828e-07 0)
(1.58463e-06 7.0799e-07 0)
(9.43467e-07 6.91561e-07 0)
(3.1329e-07 6.83573e-07 0)
(-3.11895e-07 8.76377e-07 0)
(-9.39204e-07 8.86558e-07 0)
(-1.57725e-06 9.07493e-07 0)
(-2.23385e-06 9.40398e-07 0)
(-2.91785e-06 9.87318e-07 0)
(-3.63977e-06 1.05143e-06 0)
(-4.41265e-06 1.13763e-06 0)
(-5.25331e-06 1.25348e-06 0)
(-6.18428e-06 1.41107e-06 0)
(-7.23686e-06 1.6305e-06 0)
(-8.45611e-06 1.94718e-06 0)
(-9.90859e-06 2.42802e-06 0)
(-1.16922e-05 3.21159e-06 0)
(-1.39223e-05 4.62457e-06 0)
(-1.63884e-05 7.58003e-06 0)
(-1.57456e-05 1.4434e-05 0)
(-1.17485e-05 1.69606e-05 0)
(-9.38011e-06 1.54765e-05 0)
(-1.04561e-05 1.47911e-05 0)
(-7.32263e-06 2.16288e-05 0)
(-1.072e-05 1.07547e-05 0)
(-4.29665e-06 3.61832e-05 0)
(2.01316e-06 7.92004e-06 0)
(-3.14957e-06 9.14135e-06 0)
(-2.31205e-07 9.50134e-07 0)
(-9.08415e-08 5.38776e-07 0)
(-6.38073e-08 3.7055e-07 0)
(-5.15565e-08 3.04089e-07 0)
(-4.40338e-08 2.65371e-07 0)
(-3.87433e-08 2.41111e-07 0)
(-3.56134e-08 2.22696e-07 0)
(-3.32416e-08 2.08303e-07 0)
(-3.1687e-08 1.97426e-07 0)
(-3.06139e-08 1.93018e-07 0)
(-2.91171e-08 1.89083e-07 0)
(-2.69163e-08 1.85926e-07 0)
(-2.37265e-08 1.83393e-07 0)
(-1.90182e-08 1.81225e-07 0)
(-1.24301e-08 1.79487e-07 0)
(-4.32802e-09 1.78259e-07 0)
(4.32802e-09 1.78259e-07 0)
(1.24301e-08 1.79487e-07 0)
(1.90182e-08 1.81225e-07 0)
(2.37265e-08 1.83393e-07 0)
(2.69163e-08 1.85926e-07 0)
(2.91171e-08 1.89083e-07 0)
(3.06139e-08 1.93018e-07 0)
(3.1687e-08 1.97426e-07 0)
(3.32416e-08 2.08303e-07 0)
(3.56134e-08 2.22696e-07 0)
(3.87433e-08 2.41111e-07 0)
(4.40338e-08 2.65371e-07 0)
(5.15565e-08 3.04089e-07 0)
(6.38073e-08 3.7055e-07 0)
(9.08415e-08 5.38776e-07 0)
(2.31205e-07 9.50134e-07 0)
(3.14957e-06 9.14135e-06 0)
(-2.01316e-06 7.92004e-06 0)
(4.29665e-06 3.61832e-05 0)
(1.072e-05 1.07547e-05 0)
(7.32263e-06 2.16288e-05 0)
(1.04561e-05 1.47911e-05 0)
(9.38011e-06 1.54765e-05 0)
(1.17485e-05 1.69606e-05 0)
(1.57456e-05 1.4434e-05 0)
(1.63884e-05 7.58003e-06 0)
(1.39223e-05 4.62457e-06 0)
(1.16922e-05 3.21159e-06 0)
(9.90859e-06 2.42802e-06 0)
(8.45611e-06 1.94718e-06 0)
(7.23686e-06 1.6305e-06 0)
(6.18428e-06 1.41107e-06 0)
(5.25331e-06 1.25348e-06 0)
(4.41265e-06 1.13763e-06 0)
(3.63977e-06 1.05143e-06 0)
(2.91785e-06 9.87318e-07 0)
(2.23385e-06 9.40398e-07 0)
(1.57725e-06 9.07493e-07 0)
(9.39204e-07 8.86558e-07 0)
(3.11895e-07 8.76377e-07 0)
(-3.09981e-07 1.08672e-06 0)
(-9.33354e-07 1.09925e-06 0)
(-1.56713e-06 1.12499e-06 0)
(-2.21885e-06 1.16542e-06 0)
(-2.897e-06 1.22301e-06 0)
(-3.61156e-06 1.30158e-06 0)
(-4.37478e-06 1.40698e-06 0)
(-5.20213e-06 1.5482e-06 0)
(-6.11387e-06 1.73942e-06 0)
(-7.13708e-06 2.00391e-06 0)
(-8.30849e-06 2.38176e-06 0)
(-9.67665e-06 2.94632e-06 0)
(-1.12963e-05 3.84198e-06 0)
(-1.31705e-05 5.37707e-06 0)
(-1.48989e-05 8.23497e-06 0)
(-1.4342e-05 1.33746e-05 0)
(-1.14833e-05 1.57186e-05 0)
(-9.55908e-06 1.52733e-05 0)
(-9.6452e-06 1.5372e-05 0)
(-7.64893e-06 1.93304e-05 0)
(-8.79421e-06 1.45547e-05 0)
(-3.96149e-06 2.86002e-05 0)
(1.77823e-06 1.52461e-05 0)
(9.24002e-07 1.69553e-05 0)
(-5.7048e-06 5.01111e-06 0)
(-7.35625e-06 1.92729e-05 0)
(-3.53251e-07 1.06289e-06 0)
(-1.15882e-07 6.15024e-07 0)
(-6.9974e-08 4.15774e-07 0)
(-5.42195e-08 3.40922e-07 0)
(-4.80388e-08 3.01982e-07 0)
(-4.45564e-08 2.77443e-07 0)
(-4.29369e-08 2.61385e-07 0)
(-4.23029e-08 2.5503e-07 0)
(-4.11232e-08 2.49239e-07 0)
(-3.89794e-08 2.45072e-07 0)
(-3.55963e-08 2.41738e-07 0)
(-2.96353e-08 2.38153e-07 0)
(-1.99014e-08 2.34799e-07 0)
(-7.01469e-09 2.32623e-07 0)
(7.01469e-09 2.32623e-07 0)
(1.99014e-08 2.34799e-07 0)
(2.96353e-08 2.38153e-07 0)
(3.55963e-08 2.41738e-07 0)
(3.89794e-08 2.45072e-07 0)
(4.11232e-08 2.49239e-07 0)
(4.23029e-08 2.5503e-07 0)
(4.29369e-08 2.61385e-07 0)
(4.45564e-08 2.77443e-07 0)
(4.80388e-08 3.01982e-07 0)
(5.42195e-08 3.40922e-07 0)
(6.9974e-08 4.15774e-07 0)
(1.15882e-07 6.15024e-07 0)
(3.53251e-07 1.06289e-06 0)
(7.35625e-06 1.92729e-05 0)
(5.7048e-06 5.01111e-06 0)
(-9.24002e-07 1.69553e-05 0)
(-1.77823e-06 1.52461e-05 0)
(3.96149e-06 2.86002e-05 0)
(8.79421e-06 1.45547e-05 0)
(7.64893e-06 1.93304e-05 0)
(9.6452e-06 1.5372e-05 0)
(9.55908e-06 1.52733e-05 0)
(1.14833e-05 1.57186e-05 0)
(1.4342e-05 1.33746e-05 0)
(1.48989e-05 8.23497e-06 0)
(1.31705e-05 5.37707e-06 0)
(1.12963e-05 3.84198e-06 0)
(9.67665e-06 2.94632e-06 0)
(8.30849e-06 2.38176e-06 0)
(7.13708e-06 2.00391e-06 0)
(6.11387e-06 1.73942e-06 0)
(5.20213e-06 1.5482e-06 0)
(4.37478e-06 1.40698e-06 0)
(3.61156e-06 1.30158e-06 0)
(2.897e-06 1.22301e-06 0)
(2.21885e-06 1.16542e-06 0)
(1.56713e-06 1.12499e-06 0)
(9.33354e-07 1.09925e-06 0)
(3.09981e-07 1.08672e-06 0)
(-3.07433e-07 1.31577e-06 0)
(-9.25572e-07 1.33077e-06 0)
(-1.55368e-06 1.36158e-06 0)
(-2.19893e-06 1.40994e-06 0)
(-2.86934e-06 1.47873e-06 0)
(-3.57424e-06 1.57238e-06 0)
(-4.32481e-06 1.69765e-06 0)
(-5.13492e-06 1.8648e-06 0)
(-6.022e-06 2.08983e-06 0)
(-7.00818e-06 2.39844e-06 0)
(-8.12073e-06 2.83368e-06 0)
(-9.38924e-06 3.47103e-06 0)
(-1.08286e-05 4.4492e-06 0)
(-1.23651e-05 6.02959e-06 0)
(-1.35652e-05 8.66001e-06 0)
(-1.31048e-05 1.25737e-05 0)
(-1.10697e-05 1.47177e-05 0)
(-9.49139e-06 1.49805e-05 0)
(-9.02924e-06 1.55158e-05 0)
(-7.59428e-06 1.7923e-05 0)
(-7.46695e-06 1.6318e-05 0)
(-3.89276e-06 2.37392e-05 0)
(5.07672e-08 1.6545e-05 0)
(-4.8442e-07 1.61664e-05 0)
(-6.07956e-06 1.0871e-05 0)
(9.92152e-07 3.27436e-05 0)
(2.44355e-06 6.16401e-06 0)
(-5.15818e-06 1.27757e-05 0)
(-7.09429e-07 1.71384e-06 0)
(-1.74625e-07 7.59106e-07 0)
(-8.7202e-08 5.27688e-07 0)
(-6.55201e-08 3.96849e-07 0)
(-6.02802e-08 3.51935e-07 0)
(-5.99325e-08 3.37221e-07 0)
(-5.90916e-08 3.24269e-07 0)
(-5.71425e-08 3.17584e-07 0)
(-5.48296e-08 3.12904e-07 0)
(-4.83781e-08 3.05542e-07 0)
(-3.37096e-08 2.97706e-07 0)
(-1.20381e-08 2.93246e-07 0)
(1.20381e-08 2.93246e-07 0)
(3.37096e-08 2.97706e-07 0)
(4.83781e-08 3.05542e-07 0)
(5.48296e-08 3.12904e-07 0)
(5.71425e-08 3.17584e-07 0)
(5.90916e-08 3.24269e-07 0)
(5.99325e-08 3.37221e-07 0)
(6.02802e-08 3.51935e-07 0)
(6.55201e-08 3.96849e-07 0)
(8.7202e-08 5.27688e-07 0)
(1.74625e-07 7.59106e-07 0)
(7.09429e-07 1.71384e-06 0)
(5.15818e-06 1.27757e-05 0)
(-2.44355e-06 6.16401e-06 0)
(-9.92152e-07 3.27436e-05 0)
(6.07956e-06 1.0871e-05 0)
(4.8442e-07 1.61664e-05 0)
(-5.07672e-08 1.6545e-05 0)
(3.89276e-06 2.37392e-05 0)
(7.46695e-06 1.6318e-05 0)
(7.59428e-06 1.7923e-05 0)
(9.02924e-06 1.55158e-05 0)
(9.49139e-06 1.49805e-05 0)
(1.10697e-05 1.47177e-05 0)
(1.31048e-05 1.25737e-05 0)
(1.35652e-05 8.66001e-06 0)
(1.23651e-05 6.02959e-06 0)
(1.08286e-05 4.4492e-06 0)
(9.38924e-06 3.47103e-06 0)
(8.12073e-06 2.83368e-06 0)
(7.00818e-06 2.39844e-06 0)
(6.022e-06 2.08983e-06 0)
(5.13492e-06 1.8648e-06 0)
(4.32481e-06 1.69765e-06 0)
(3.57424e-06 1.57238e-06 0)
(2.86934e-06 1.47873e-06 0)
(2.19893e-06 1.40994e-06 0)
(1.55368e-06 1.36158e-06 0)
(9.25572e-07 1.33077e-06 0)
(3.07433e-07 1.31577e-06 0)
(-3.04122e-07 1.56459e-06 0)
(-9.15461e-07 1.58218e-06 0)
(-1.53621e-06 1.61829e-06 0)
(-2.17311e-06 1.67488e-06 0)
(-2.83357e-06 1.75523e-06 0)
(-3.52608e-06 1.86435e-06 0)
(-4.26061e-06 2.00977e-06 0)
(-5.04903e-06 2.20283e-06 0)
(-5.90559e-06 2.46085e-06 0)
(-6.84684e-06 2.811e-06 0)
(-7.89016e-06 3.2972e-06 0)
(-9.04701e-06 3.99246e-06 0)
(-1.03003e-05 5.02008e-06 0)
(-1.15348e-05 6.58074e-06 0)
(-1.23647e-05 8.92808e-06 0)
(-1.19965e-05 1.19701e-05 0)
(-1.05438e-05 1.39128e-05 0)
(-9.24082e-06 1.4618e-05 0)
(-8.50734e-06 1.53867e-05 0)
(-7.32777e-06 1.69929e-05 0)
(-6.5557e-06 1.68699e-05 0)
(-3.87573e-06 2.06588e-05 0)
(-1.13641e-06 1.69283e-05 0)
(-1.23933e-06 1.60347e-05 0)
(-3.70688e-06 1.42252e-05 0)
(4.78436e-07 2.48623e-05 0)
(2.99977e-06 1.2409e-05 0)
(5.46114e-06 2.18881e-05 0)
(6.40498e-06 5.29841e-06 0)
(-6.5682e-06 4.34504e-06 0)
(-7.37779e-06 1.57764e-05 0)
(-5.4682e-07 1.21263e-06 0)
(-2.19111e-07 6.95042e-07 0)
(-1.60189e-07 6.01032e-07 0)
(-1.21764e-07 5.22502e-07 0)
(-9.6888e-08 4.56182e-07 0)
(-9.25225e-08 4.21377e-07 0)
(-8.73477e-08 3.92041e-07 0)
(-6.31109e-08 3.67763e-07 0)
(-2.26256e-08 3.57479e-07 0)
(2.26256e-08 3.57479e-07 0)
(6.31109e-08 3.67763e-07 0)
(8.73477e-08 3.92041e-07 0)
(9.25225e-08 4.21377e-07 0)
(9.6888e-08 4.56182e-07 0)
(1.21764e-07 5.22502e-07 0)
(1.60189e-07 6.01032e-07 0)
(2.19111e-07 6.95042e-07 0)
(5.4682e-07 1.21263e-06 0)
(7.37779e-06 1.57764e-05 0)
(6.5682e-06 4.34504e-06 0)
(-6.40498e-06 5.29841e-06 0)
(-5.46114e-06 2.18881e-05 0)
(-2.99977e-06 1.2409e-05 0)
(-4.78436e-07 2.48623e-05 0)
(3.70688e-06 1.42252e-05 0)
(1.23933e-06 1.60347e-05 0)
(1.13641e-06 1.69283e-05 0)
(3.87573e-06 2.06588e-05 0)
(6.5557e-06 1.68699e-05 0)
(7.32777e-06 1.69929e-05 0)
(8.50734e-06 1.53867e-05 0)
(9.24082e-06 1.4618e-05 0)
(1.05438e-05 1.39128e-05 0)
(1.19965e-05 1.19701e-05 0)
(1.23647e-05 8.92808e-06 0)
(1.15348e-05 6.58074e-06 0)
(1.03003e-05 5.02008e-06 0)
(9.04701e-06 3.99246e-06 0)
(7.89016e-06 3.2972e-06 0)
(6.84684e-06 2.811e-06 0)
(5.90559e-06 2.46085e-06 0)
(5.04903e-06 2.20283e-06 0)
(4.26061e-06 2.00977e-06 0)
(3.52608e-06 1.86435e-06 0)
(2.83357e-06 1.75523e-06 0)
(2.17311e-06 1.67488e-06 0)
(1.53621e-06 1.61829e-06 0)
(9.15461e-07 1.58218e-06 0)
(3.04122e-07 1.56459e-06 0)
(-2.99903e-07 1.83413e-06 0)
(-9.02583e-07 1.85438e-06 0)
(-1.51399e-06 1.89591e-06 0)
(-2.1403e-06 1.96091e-06 0)
(-2.78823e-06 2.05298e-06 0)
(-3.46528e-06 2.17762e-06 0)
(-4.17994e-06 2.34298e-06 0)
(-4.94188e-06 2.56113e-06 0)
(-5.7618e-06 2.85013e-06 0)
(-6.65048e-06 3.23747e-06 0)
(-7.61568e-06 3.76568e-06 0)
(-8.65332e-06 4.5011e-06 0)
(-9.72438e-06 5.54522e-06 0)
(-1.0701e-05 7.03729e-06 0)
(-1.12757e-05 9.09327e-06 0)
(-1.0987e-05 1.15133e-05 0)
(-9.93863e-06 1.32616e-05 0)
(-8.85775e-06 1.42097e-05 0)
(-8.01967e-06 1.50913e-05 0)
(-6.958e-06 1.62903e-05 0)
(-5.91882e-06 1.67585e-05 0)
(-3.86834e-06 1.86715e-05 0)
(-1.89837e-06 1.68293e-05 0)
(-1.61793e-06 1.60466e-05 0)
(-2.36885e-06 1.56146e-05 0)
(2.31205e-07 2.04768e-05 0)
(2.34166e-06 1.47355e-05 0)
(4.01833e-06 1.77307e-05 0)
(3.83641e-06 9.13892e-06 0)
(-3.02241e-06 9.33073e-06 0)
(3.53303e-06 2.60286e-05 0)
(7.36015e-06 4.97716e-06 0)
(-3.40845e-06 5.48097e-06 0)
(-8.48299e-06 8.63717e-06 0)
(-5.38174e-06 4.59715e-06 0)
(-1.04681e-06 1.19829e-06 0)
(-4.72661e-07 7.72427e-07 0)
(-2.68388e-07 5.75939e-07 0)
(-1.49292e-07 4.48461e-07 0)
(-5.02662e-08 4.21832e-07 0)
(5.02662e-08 4.21832e-07 0)
(1.49292e-07 4.48461e-07 0)
(2.68388e-07 5.75939e-07 0)
(4.72661e-07 7.72427e-07 0)
(1.04681e-06 1.19829e-06 0)
(5.38174e-06 4.59715e-06 0)
(8.48299e-06 8.63717e-06 0)
(3.40845e-06 5.48097e-06 0)
(-7.36015e-06 4.97716e-06 0)
(-3.53303e-06 2.60286e-05 0)
(3.02241e-06 9.33073e-06 0)
(-3.83641e-06 9.13892e-06 0)
(-4.01833e-06 1.77307e-05 0)
(-2.34166e-06 1.47355e-05 0)
(-2.31205e-07 2.04768e-05 0)
(2.36885e-06 1.56146e-05 0)
(1.61793e-06 1.60466e-05 0)
(1.89837e-06 1.68293e-05 0)
(3.86834e-06 1.86715e-05 0)
(5.91882e-06 1.67585e-05 0)
(6.958e-06 1.62903e-05 0)
(8.01967e-06 1.50913e-05 0)
(8.85775e-06 1.42097e-05 0)
(9.93863e-06 1.32616e-05 0)
(1.0987e-05 1.15133e-05 0)
(1.12757e-05 9.09327e-06 0)
(1.0701e-05 7.03729e-06 0)
(9.72438e-06 5.54522e-06 0)
(8.65332e-06 4.5011e-06 0)
(7.61568e-06 3.76568e-06 0)
(6.65048e-06 3.23747e-06 0)
(5.7618e-06 2.85013e-06 0)
(4.94188e-06 2.56113e-06 0)
(4.17994e-06 2.34298e-06 0)
(3.46528e-06 2.17762e-06 0)
(2.78823e-06 2.05298e-06 0)
(2.1403e-06 1.96091e-06 0)
(1.51399e-06 1.89591e-06 0)
(9.02583e-07 1.85438e-06 0)
(2.99903e-07 1.83413e-06 0)
(-2.94617e-07 2.12508e-06 0)
(-8.86461e-07 2.14801e-06 0)
(-1.48621e-06 2.19499e-06 0)
(-2.09938e-06 2.26838e-06 0)
(-2.73185e-06 2.37204e-06 0)
(-3.38998e-06 2.51183e-06 0)
(-4.08065e-06 2.69628e-06 0)
(-4.81111e-06 2.93779e-06 0)
(-5.58837e-06 3.25447e-06 0)
(-6.4176e-06 3.67286e-06 0)
(-7.29806e-06 4.232e-06 0)
(-8.21387e-06 4.98843e-06 0)
(-9.11432e-06 6.01928e-06 0)
(-9.87839e-06 7.41066e-06 0)
(-1.02787e-05 9.19333e-06 0)
(-1.00534e-05 1.1163e-05 0)
(-9.28227e-06 1.27273e-05 0)
(-8.38207e-06 1.37781e-05 0)
(-7.53592e-06 1.46981e-05 0)
(-6.5473e-06 1.56813e-05 0)
(-5.45149e-06 1.63209e-05 0)
(-3.84181e-06 1.73271e-05 0)
(-2.34781e-06 1.64885e-05 0)
(-1.79738e-06 1.59744e-05 0)
(-1.66742e-06 1.59708e-05 0)
(7.19754e-08 1.80154e-05 0)
(1.71901e-06 1.53677e-05 0)
(2.86077e-06 1.57307e-05 0)
(2.54341e-06 1.13864e-05 0)
(-4.21331e-07 1.18048e-05 0)
(2.77918e-06 1.88539e-05 0)
(4.79614e-06 9.33155e-06 0)
(1.76687e-06 1.04896e-05 0)
(3.35844e-06 1.41132e-05 0)
(4.90808e-06 9.07457e-06 0)
(1.82176e-06 4.84035e-06 0)
(-2.0144e-06 4.39922e-06 0)
(-2.00371e-06 1.71504e-06 0)
(-5.34729e-07 5.70993e-07 0)
(-1.55525e-07 4.6858e-07 0)
(1.55525e-07 4.6858e-07 0)
(5.34729e-07 5.70993e-07 0)
(2.00371e-06 1.71504e-06 0)
(2.0144e-06 4.39922e-06 0)
(-1.82176e-06 4.84035e-06 0)
(-4.90808e-06 9.07457e-06 0)
(-3.35844e-06 1.41132e-05 0)
(-1.76687e-06 1.04896e-05 0)
(-4.79614e-06 9.33155e-06 0)
(-2.77918e-06 1.88539e-05 0)
(4.21331e-07 1.18048e-05 0)
(-2.54341e-06 1.13864e-05 0)
(-2.86077e-06 1.57307e-05 0)
(-1.71901e-06 1.53677e-05 0)
(-7.19754e-08 1.80154e-05 0)
(1.66742e-06 1.59708e-05 0)
(1.79738e-06 1.59744e-05 0)
(2.34781e-06 1.64885e-05 0)
(3.84181e-06 1.73271e-05 0)
(5.45149e-06 1.63209e-05 0)
(6.5473e-06 1.56813e-05 0)
(7.53592e-06 1.46981e-05 0)
(8.38207e-06 1.37781e-05 0)
(9.28227e-06 1.27273e-05 0)
(1.00534e-05 1.1163e-05 0)
(1.02787e-05 9.19333e-06 0)
(9.87839e-06 7.41066e-06 0)
(9.11432e-06 6.01928e-06 0)
(8.21387e-06 4.98843e-06 0)
(7.29806e-06 4.232e-06 0)
(6.4176e-06 3.67286e-06 0)
(5.58837e-06 3.25447e-06 0)
(4.81111e-06 2.93779e-06 0)
(4.08065e-06 2.69628e-06 0)
(3.38998e-06 2.51183e-06 0)
(2.73185e-06 2.37204e-06 0)
(2.09938e-06 2.26838e-06 0)
(1.48621e-06 2.19499e-06 0)
(8.86461e-07 2.14801e-06 0)
(2.94617e-07 2.12508e-06 0)
(-2.88102e-07 2.43784e-06 0)
(-8.66604e-07 2.4634e-06 0)
(-1.45205e-06 2.51569e-06 0)
(-2.04918e-06 2.59721e-06 0)
(-2.66295e-06 2.71198e-06 0)
(-3.29845e-06 2.86602e-06 0)
(-3.96081e-06 3.06797e-06 0)
(-4.65479e-06 3.33013e-06 0)
(-5.38386e-06 3.66985e-06 0)
(-6.14809e-06 4.11157e-06 0)
(-6.93997e-06 4.68914e-06 0)
(-7.73609e-06 5.44763e-06 0)
(-8.48271e-06 6.44075e-06 0)
(-9.07618e-06 7.71397e-06 0)
(-9.35723e-06 9.25296e-06 0)
(-9.17964e-06 1.08882e-05 0)
(-8.59786e-06 1.22802e-05 0)
(-7.84546e-06 1.33414e-05 0)
(-7.04451e-06 1.42514e-05 0)
(-6.1263e-06 1.51057e-05 0)
(-5.08026e-06 1.57476e-05 0)
(-3.7809e-06 1.6346e-05 0)
(-2.58123e-06 1.60304e-05 0)
(-1.87856e-06 1.57559e-05 0)
(-1.34076e-06 1.58207e-05 0)
(-7.72685e-08 1.65648e-05 0)
(1.17506e-06 1.52711e-05 0)
(1.99246e-06 1.47832e-05 0)
(1.85339e-06 1.25746e-05 0)
(7.35807e-07 1.2763e-05 0)
(2.27788e-06 1.539e-05 0)
(3.35592e-06 1.11567e-05 0)
(2.35898e-06 1.11343e-05 0)
(2.53278e-06 1.14146e-05 0)
(2.53382e-06 9.98594e-06 0)
(1.50801e-06 8.78251e-06 0)
(-1.31622e-08 8.72326e-06 0)
(-8.50298e-07 2.70591e-06 0)
(-7.5727e-07 6.48454e-07 0)
(-3.00745e-07 4.41862e-07 0)
(3.00745e-07 4.41862e-07 0)
(7.5727e-07 6.48454e-07 0)
(8.50298e-07 2.70591e-06 0)
(1.31622e-08 8.72326e-06 0)
(-1.50801e-06 8.78251e-06 0)
(-2.53382e-06 9.98594e-06 0)
(-2.53278e-06 1.14146e-05 0)
(-2.35898e-06 1.11343e-05 0)
(-3.35592e-06 1.11567e-05 0)
(-2.27788e-06 1.539e-05 0)
(-7.35807e-07 1.2763e-05 0)
(-1.85339e-06 1.25746e-05 0)
(-1.99246e-06 1.47832e-05 0)
(-1.17506e-06 1.52711e-05 0)
(7.72685e-08 1.65648e-05 0)
(1.34076e-06 1.58207e-05 0)
(1.87856e-06 1.57559e-05 0)
(2.58123e-06 1.60304e-05 0)
(3.7809e-06 1.6346e-05 0)
(5.08026e-06 1.57476e-05 0)
(6.1263e-06 1.51057e-05 0)
(7.04451e-06 1.42514e-05 0)
(7.84546e-06 1.33414e-05 0)
(8.59786e-06 1.22802e-05 0)
(9.17964e-06 1.08882e-05 0)
(9.35723e-06 9.25296e-06 0)
(9.07618e-06 7.71397e-06 0)
(8.48271e-06 6.44075e-06 0)
(7.73609e-06 5.44763e-06 0)
(6.93997e-06 4.68914e-06 0)
(6.14809e-06 4.11157e-06 0)
(5.38386e-06 3.66985e-06 0)
(4.65479e-06 3.33013e-06 0)
(3.96081e-06 3.06797e-06 0)
(3.29845e-06 2.86602e-06 0)
(2.66295e-06 2.71198e-06 0)
(2.04918e-06 2.59721e-06 0)
(1.45205e-06 2.51569e-06 0)
(8.66604e-07 2.4634e-06 0)
(2.88102e-07 2.43784e-06 0)
(-2.80195e-07 2.77235e-06 0)
(-8.42529e-07 2.8004e-06 0)
(-1.4107e-06 2.8577e-06 0)
(-1.98863e-06 2.94679e-06 0)
(-2.5802e-06 3.07174e-06 0)
(-3.18917e-06 3.23853e-06 0)
(-3.8189e-06 3.45561e-06 0)
(-4.47174e-06 3.73465e-06 0)
(-5.14791e-06 4.09157e-06 0)
(-5.84334e-06 4.54772e-06 0)
(-6.5458e-06 5.13073e-06 0)
(-7.22844e-06 5.87395e-06 0)
(-7.84061e-06 6.8111e-06 0)
(-8.29968e-06 7.95991e-06 0)
(-8.4983e-06 9.2873e-06 0)
(-8.355e-06 1.06658e-05 0)
(-7.90362e-06 1.18976e-05 0)
(-7.27297e-06 1.29127e-05 0)
(-6.54432e-06 1.37812e-05 0)
(-5.70685e-06 1.45441e-05 0)
(-4.75691e-06 1.51362e-05 0)
(-3.68111e-06 1.55645e-05 0)
(-2.6728e-06 1.55167e-05 0)
(-1.91304e-06 1.54067e-05 0)
(-1.22261e-06 1.54423e-05 0)
(-2.37268e-07 1.56262e-05 0)
(7.22352e-07 1.49149e-05 0)
(1.35658e-06 1.42895e-05 0)
(1.42034e-06 1.31072e-05 0)
(1.12491e-06 1.30404e-05 0)
(1.88159e-06 1.37801e-05 0)
(2.42388e-06 1.18268e-05 0)
(2.06273e-06 1.13873e-05 0)
(1.91656e-06 1.11445e-05 0)
(1.64982e-06 1.06246e-05 0)
(1.09597e-06 1.02084e-05 0)
(3.85957e-07 1.0205e-05 0)
(-1.0348e-07 2.71088e-06 0)
(-2.99428e-07 4.39951e-07 0)
(-1.84169e-07 2.76513e-07 0)
(1.84169e-07 2.76513e-07 0)
(2.99428e-07 4.39951e-07 0)
(1.0348e-07 2.71088e-06 0)
(-3.85957e-07 1.0205e-05 0)
(-1.09597e-06 1.02084e-05 0)
(-1.64982e-06 1.06246e-05 0)
(-1.91656e-06 1.11445e-05 0)
(-2.06273e-06 1.13873e-05 0)
(-2.42388e-06 1.18268e-05 0)
(-1.88159e-06 1.37801e-05 0)
(-1.12491e-06 1.30404e-05 0)
(-1.42034e-06 1.31072e-05 0)
(-1.35658e-06 1.42895e-05 0)
(-7.22352e-07 1.49149e-05 0)
(2.37268e-07 1.56262e-05 0)
(1.22261e-06 1.54423e-05 0)
(1.91304e-06 1.54067e-05 0)
(2.6728e-06 1.55167e-05 0)
(3.68111e-06 1.55645e-05 0)
(4.75691e-06 1.51362e-05 0)
(5.70685e-06 1.45441e-05 0)
(6.54432e-06 1.37812e-05 0)
(7.27297e-06 1.29127e-05 0)
(7.90362e-06 1.18976e-05 0)
(8.355e-06 1.06658e-05 0)
(8.4983e-06 9.2873e-06 0)
(8.29968e-06 7.95991e-06 0)
(7.84061e-06 6.8111e-06 0)
(7.22844e-06 5.87395e-06 0)
(6.5458e-06 5.13073e-06 0)
(5.84334e-06 4.54772e-06 0)
(5.14791e-06 4.09157e-06 0)
(4.47174e-06 3.73465e-06 0)
(3.8189e-06 3.45561e-06 0)
(3.18917e-06 3.23853e-06 0)
(2.5802e-06 3.07174e-06 0)