/*--------------------------------*- C++ -*----------------------------------*\
  =========                 |
  \\      /  F ield         | OpenFOAM: The Open Source CFD Toolbox
   \\    /   O peration     | Website:  https://openfoam.org
    \\  /    A nd           | Version:  10
     \\/     M anipulation  |
\*---------------------------------------------------------------------------*/
FoamFile
{
    format      ascii;
    class       volVectorField;
    location    "14300";
    object      Ub;
}
// * * * * * * * * * * * * * * * * * * * * * * * * * * * * * * * * * * * * * //

dimensions      [0 1 -1 0 0 0 0];

internalField   nonuniform List<vector> 
6400
(
(-5.61876e-21 -9.87899e-16 0)
(-1.69225e-20 -9.87899e-16 0)
(-2.84289e-20 -9.87899e-16 0)
(-4.02862e-20 -9.87899e-16 0)
(-5.26646e-20 -9.87899e-16 0)
(-6.57699e-20 -9.87899e-16 0)
(-7.98625e-20 -9.87899e-16 0)
(-9.52895e-20 -9.87899e-16 0)
(-1.12536e-19 -9.87899e-16 0)
(-1.3232e-19 -9.87898e-16 0)
(-1.55774e-19 -9.87898e-16 0)
(-1.8483e-19 -9.87897e-16 0)
(-2.22994e-19 -9.87896e-16 0)
(-2.76929e-19 -9.87894e-16 0)
(-5.17283e-09 -9.94901e-16 0)
(-6.93814e-05 -5.0505e-06 0)
(-0.000142978 -9.93572e-07 0)
(-0.000143839 -1.04324e-06 0)
(-0.000136889 -9.06059e-07 0)
(-0.000132939 -1.87211e-07 0)
(-0.000132581 -8.09509e-08 0)
(-0.000136815 7.9543e-07 0)
(-0.000140821 -9.74849e-08 0)
(-0.000138235 -5.24506e-07 0)
(-0.000134895 -2.36888e-07 0)
(-0.000134352 5.45729e-08 0)
(-0.00013447 -9.46229e-08 0)
(-0.000133317 -1.97551e-07 0)
(-0.00013091 -3.44576e-07 0)
(-0.000128038 -2.88229e-07 0)
(-0.000125148 -3.44696e-07 0)
(-0.000120468 -6.4934e-07 0)
(-0.00011482 -1.18854e-06 0)
(-0.000108698 -1.6507e-06 0)
(-0.000100252 -2.25006e-06 0)
(-8.89319e-05 -2.9651e-06 0)
(-7.43302e-05 -3.75022e-06 0)
(-5.63234e-05 -4.52195e-06 0)
(-3.52483e-05 -5.15327e-06 0)
(-1.20102e-05 -5.51098e-06 0)
(1.20102e-05 -5.51098e-06 0)
(3.52483e-05 -5.15327e-06 0)
(5.63234e-05 -4.52195e-06 0)
(7.43302e-05 -3.75022e-06 0)
(8.89319e-05 -2.9651e-06 0)
(0.000100252 -2.25006e-06 0)
(0.000108698 -1.6507e-06 0)
(0.00011482 -1.18854e-06 0)
(0.000120468 -6.4934e-07 0)
(0.000125148 -3.44696e-07 0)
(0.000128038 -2.88229e-07 0)
(0.00013091 -3.44576e-07 0)
(0.000133317 -1.97551e-07 0)
(0.00013447 -9.46229e-08 0)
(0.000134352 5.45729e-08 0)
(0.000134895 -2.36888e-07 0)
(0.000138235 -5.24506e-07 0)
(0.000140821 -9.74849e-08 0)
(0.000136815 7.9543e-07 0)
(0.000132581 -8.09509e-08 0)
(0.000132939 -1.87211e-07 0)
(0.000136889 -9.06059e-07 0)
(0.000143839 -1.04324e-06 0)
(0.000142978 -9.93572e-07 0)
(6.93814e-05 -5.0505e-06 0)
(5.17283e-09 -9.94901e-16 0)
(2.76929e-19 -9.87894e-16 0)
(2.22994e-19 -9.87896e-16 0)
(1.8483e-19 -9.87897e-16 0)
(1.55774e-19 -9.87898e-16 0)
(1.3232e-19 -9.87898e-16 0)
(1.12536e-19 -9.87899e-16 0)
(9.52895e-20 -9.87899e-16 0)
(7.98625e-20 -9.87899e-16 0)
(6.57699e-20 -9.87899e-16 0)
(5.26646e-20 -9.87899e-16 0)
(4.02862e-20 -9.87899e-16 0)
(2.84289e-20 -9.87899e-16 0)
(1.69225e-20 -9.87899e-16 0)
(5.61876e-21 -9.87899e-16 0)
(-5.61587e-21 -9.87895e-16 0)
(-1.69137e-20 -9.87895e-16 0)
(-2.84136e-20 -9.87895e-16 0)
(-4.02635e-20 -9.87895e-16 0)
(-5.26329e-20 -9.87895e-16 0)
(-6.57268e-20 -9.87894e-16 0)
(-7.98044e-20 -9.87894e-16 0)
(-9.52103e-20 -9.87893e-16 0)
(-1.12426e-19 -9.87893e-16 0)
(-1.3216e-19 -9.87892e-16 0)
(-1.55531e-19 -9.8789e-16 0)
(-1.84435e-19 -9.87888e-16 0)
(-2.22403e-19 -9.87885e-16 0)
(-2.77579e-19 -9.87879e-16 0)
(-4.33003e-19 -9.87889e-16 0)
(-2.08936e-10 -9.86858e-16 0)
(-5.45707e-05 -4.29391e-08 0)
(-0.000120147 -8.65233e-07 0)
(-0.000129031 -2.348e-06 0)
(-0.000127197 -3.0219e-07 0)
(-0.000127598 -1.20574e-07 0)
(-0.000132341 2.63882e-06 0)
(-0.000136785 -2.21856e-07 0)
(-0.000134243 -1.56141e-06 0)
(-0.000131005 -6.5855e-07 0)
(-0.000130697 2.47102e-07 0)
(-0.000130998 -2.40265e-07 0)
(-0.00012996 -5.57402e-07 0)
(-0.00012765 -1.02493e-06 0)
(-0.000124889 -8.40717e-07 0)
(-0.000122196 -1.01101e-06 0)
(-0.000117814 -1.94048e-06 0)
(-0.000112478 -3.58843e-06 0)
(-0.000106637 -5.00755e-06 0)
(-9.85178e-05 -6.85479e-06 0)
(-8.7555e-05 -9.06286e-06 0)
(-7.33241e-05 -1.14948e-05 0)
(-5.5667e-05 -1.38954e-05 0)
(-3.489e-05 -1.58661e-05 0)
(-1.18979e-05 -1.69848e-05 0)
(1.18979e-05 -1.69848e-05 0)
(3.489e-05 -1.58661e-05 0)
(5.5667e-05 -1.38954e-05 0)
(7.33241e-05 -1.14948e-05 0)
(8.7555e-05 -9.06286e-06 0)
(9.85178e-05 -6.85479e-06 0)
(0.000106637 -5.00755e-06 0)
(0.000112478 -3.58843e-06 0)
(0.000117814 -1.94048e-06 0)
(0.000122196 -1.01101e-06 0)
(0.000124889 -8.40717e-07 0)
(0.00012765 -1.02493e-06 0)
(0.00012996 -5.57402e-07 0)
(0.000130998 -2.40265e-07 0)
(0.000130697 2.47102e-07 0)
(0.000131005 -6.5855e-07 0)
(0.000134243 -1.56141e-06 0)
(0.000136785 -2.21856e-07 0)
(0.000132341 2.63882e-06 0)
(0.000127598 -1.20574e-07 0)
(0.000127197 -3.0219e-07 0)
(0.000129031 -2.348e-06 0)
(0.000120147 -8.65233e-07 0)
(5.45707e-05 -4.29391e-08 0)
(2.08936e-10 -9.86858e-16 0)
(4.33003e-19 -9.87889e-16 0)
(2.77579e-19 -9.87879e-16 0)
(2.22403e-19 -9.87885e-16 0)
(1.84435e-19 -9.87888e-16 0)
(1.55531e-19 -9.8789e-16 0)
(1.3216e-19 -9.87892e-16 0)
(1.12426e-19 -9.87893e-16 0)
(9.52103e-20 -9.87893e-16 0)
(7.98044e-20 -9.87894e-16 0)
(6.57268e-20 -9.87894e-16 0)
(5.26329e-20 -9.87895e-16 0)
(4.02635e-20 -9.87895e-16 0)
(2.84136e-20 -9.87895e-16 0)
(1.69137e-20 -9.87895e-16 0)
(5.61587e-21 -9.87895e-16 0)
(-5.60928e-21 -9.87892e-16 0)
(-1.68935e-20 -9.87892e-16 0)
(-2.83787e-20 -9.87892e-16 0)
(-4.02116e-20 -9.87892e-16 0)
(-5.25607e-20 -9.87892e-16 0)
(-6.56286e-20 -9.87891e-16 0)
(-7.96718e-20 -9.8789e-16 0)
(-9.50296e-20 -9.8789e-16 0)
(-1.12174e-19 -9.87888e-16 0)
(-1.31797e-19 -9.87887e-16 0)
(-1.54977e-19 -9.87885e-16 0)
(-1.83529e-19 -9.87881e-16 0)
(-2.20859e-19 -9.87875e-16 0)
(-2.75439e-19 -9.87863e-16 0)
(-3.91871e-19 -9.87841e-16 0)
(-3.8132e-19 -9.87544e-16 0)
(-7.42886e-14 -9.87245e-16 0)
(-2.65056e-05 -1.68007e-10 0)
(-8.43993e-05 -1.52987e-06 0)
(-0.000118962 -4.63821e-08 0)
(-0.000122505 -2.09494e-07 0)
(-0.000128553 4.93332e-06 0)
(-0.000133987 -4.15422e-07 0)
(-0.000131189 -2.7844e-06 0)
(-0.000127851 -1.10878e-06 0)
(-0.000127901 5.25627e-07 0)
(-0.000128485 -4.09816e-07 0)
(-0.000127539 -9.40859e-07 0)
(-0.000125253 -1.79699e-06 0)
(-0.000122544 -1.42208e-06 0)
(-0.000120115 -1.69404e-06 0)
(-0.000116172 -3.26434e-06 0)
(-0.000111304 -6.06676e-06 0)
(-0.00010587 -8.50914e-06 0)
(-9.81786e-05 -1.17168e-05 0)
(-8.76207e-05 -1.55672e-05 0)
(-7.37147e-05 -1.98377e-05 0)
(-5.62133e-05 -2.40962e-05 0)
(-3.53566e-05 -2.762e-05 0)
(-1.20801e-05 -2.96279e-05 0)
(1.20801e-05 -2.96279e-05 0)
(3.53566e-05 -2.762e-05 0)
(5.62133e-05 -2.40962e-05 0)
(7.37147e-05 -1.98377e-05 0)
(8.76207e-05 -1.55672e-05 0)
(9.81786e-05 -1.17168e-05 0)
(0.00010587 -8.50914e-06 0)
(0.000111304 -6.06676e-06 0)
(0.000116172 -3.26434e-06 0)
(0.000120115 -1.69404e-06 0)
(0.000122544 -1.42208e-06 0)
(0.000125253 -1.79699e-06 0)
(0.000127539 -9.40859e-07 0)
(0.000128485 -4.09816e-07 0)
(0.000127901 5.25627e-07 0)
(0.000127851 -1.10878e-06 0)
(0.000131189 -2.7844e-06 0)
(0.000133987 -4.15422e-07 0)
(0.000128553 4.93332e-06 0)
(0.000122505 -2.09494e-07 0)
(0.000118962 -4.63821e-08 0)
(8.43993e-05 -1.52987e-06 0)
(2.65056e-05 -1.68007e-10 0)
(7.42886e-14 -9.87245e-16 0)
(3.8132e-19 -9.87544e-16 0)
(3.91871e-19 -9.87841e-16 0)
(2.75439e-19 -9.87863e-16 0)
(2.20859e-19 -9.87875e-16 0)
(1.83529e-19 -9.87881e-16 0)
(1.54977e-19 -9.87885e-16 0)
(1.31797e-19 -9.87887e-16 0)
(1.12174e-19 -9.87888e-16 0)
(9.50296e-20 -9.8789e-16 0)
(7.96718e-20 -9.8789e-16 0)
(6.56286e-20 -9.87891e-16 0)
(5.25607e-20 -9.87892e-16 0)
(4.02116e-20 -9.87892e-16 0)
(2.83787e-20 -9.87892e-16 0)
(1.68935e-20 -9.87892e-16 0)
(5.60928e-21 -9.87892e-16 0)
(-5.59793e-21 -9.87889e-16 0)
(-1.68588e-20 -9.87889e-16 0)
(-2.83186e-20 -9.87889e-16 0)
(-4.01224e-20 -9.87889e-16 0)
(-5.24363e-20 -9.87888e-16 0)
(-6.54598e-20 -9.87888e-16 0)
(-7.94439e-20 -9.87887e-16 0)
(-9.47193e-20 -9.87886e-16 0)
(-1.11742e-19 -9.87884e-16 0)
(-1.31174e-19 -9.87882e-16 0)
(-1.54032e-19 -9.87878e-16 0)
(-1.81986e-19 -9.87873e-16 0)
(-2.18085e-19 -9.87864e-16 0)
(-2.69215e-19 -9.87847e-16 0)
(-3.54847e-19 -9.87806e-16 0)
(-3.42542e-19 -9.87585e-16 0)
(-2.08191e-19 -9.87536e-16 0)
(-1.42956e-19 -9.87601e-16 0)
(-7.50512e-09 -7.92277e-16 0)
(-5.36354e-05 1.25006e-07 0)
(-0.00011111 -1.28935e-07 0)
(-0.000123343 8.2486e-06 0)
(-0.000131466 -7.01298e-07 0)
(-0.000128285 -4.30124e-06 0)
(-0.000124722 -1.55502e-06 0)
(-0.000125397 1.01151e-06 0)
(-0.00012644 -6.03419e-07 0)
(-0.000125585 -1.32231e-06 0)
(-0.000123257 -2.70114e-06 0)
(-0.000120543 -2.00195e-06 0)
(-0.000118494 -2.34444e-06 0)
(-0.000115196 -4.5437e-06 0)
(-0.000111028 -8.50804e-06 0)
(-0.000106207 -1.20407e-05 0)
(-9.91353e-05 -1.67575e-05 0)
(-8.91188e-05 -2.2452e-05 0)
(-7.55811e-05 -2.8845e-05 0)
(-5.80975e-05 -3.53402e-05 0)
(-3.67716e-05 -4.07921e-05 0)
(-1.26057e-05 -4.39171e-05 0)
(1.26057e-05 -4.39171e-05 0)
(3.67716e-05 -4.07921e-05 0)
(5.80975e-05 -3.53402e-05 0)
(7.55811e-05 -2.8845e-05 0)
(8.91188e-05 -2.2452e-05 0)
(9.91353e-05 -1.67575e-05 0)
(0.000106207 -1.20407e-05 0)
(0.000111028 -8.50804e-06 0)
(0.000115196 -4.5437e-06 0)
(0.000118494 -2.34444e-06 0)
(0.000120543 -2.00195e-06 0)
(0.000123257 -2.70114e-06 0)
(0.000125585 -1.32231e-06 0)
(0.00012644 -6.03419e-07 0)
(0.000125397 1.01151e-06 0)
(0.000124722 -1.55502e-06 0)
(0.000128285 -4.30124e-06 0)
(0.000131466 -7.01298e-07 0)
(0.000123343 8.2486e-06 0)
(0.00011111 -1.28935e-07 0)
(5.36354e-05 1.25006e-07 0)
(7.50512e-09 -7.92277e-16 0)
(1.42956e-19 -9.87601e-16 0)
(2.08191e-19 -9.87536e-16 0)
(3.42542e-19 -9.87585e-16 0)
(3.54847e-19 -9.87806e-16 0)
(2.69215e-19 -9.87847e-16 0)
(2.18085e-19 -9.87864e-16 0)
(1.81986e-19 -9.87873e-16 0)
(1.54032e-19 -9.87878e-16 0)
(1.31174e-19 -9.87882e-16 0)
(1.11742e-19 -9.87884e-16 0)
(9.47193e-20 -9.87886e-16 0)
(7.94439e-20 -9.87887e-16 0)
(6.54598e-20 -9.87888e-16 0)
(5.24363e-20 -9.87888e-16 0)
(4.01224e-20 -9.87889e-16 0)
(2.83186e-20 -9.87889e-16 0)
(1.68588e-20 -9.87889e-16 0)
(5.59793e-21 -9.87889e-16 0)
(-5.58057e-21 -9.87886e-16 0)
(-1.68058e-20 -9.87886e-16 0)
(-2.82267e-20 -9.87886e-16 0)
(-3.99861e-20 -9.87885e-16 0)
(-5.22464e-20 -9.87885e-16 0)
(-6.52022e-20 -9.87884e-16 0)
(-7.90966e-20 -9.87883e-16 0)
(-9.42472e-20 -9.87881e-16 0)
(-1.11087e-19 -9.87879e-16 0)
(-1.30234e-19 -9.87876e-16 0)
(-1.52611e-19 -9.87871e-16 0)
(-1.7968e-19 -9.87864e-16 0)
(-2.13908e-19 -9.87853e-16 0)
(-2.59785e-19 -9.87831e-16 0)
(-3.21625e-19 -9.87781e-16 0)
(-3.09214e-19 -9.87617e-16 0)
(-2.10694e-19 -9.87569e-16 0)
(-1.58074e-19 -9.87621e-16 0)
(-2.06883e-19 -9.87657e-16 0)
(-1.13737e-19 -9.86291e-16 0)
(-3.10314e-06 -1.64018e-14 0)
(-6.29189e-05 5.12678e-06 0)
(-0.000123143 -4.36313e-07 0)
(-0.000123812 -6.17844e-06 0)
(-0.00012079 -1.91766e-06 0)
(-0.000122793 1.90494e-06 0)
(-0.000124641 -8.52838e-07 0)
(-0.000123911 -1.66483e-06 0)
(-0.000121476 -3.82743e-06 0)
(-0.000118682 -2.54061e-06 0)
(-0.000117185 -2.90128e-06 0)
(-0.000114789 -5.67395e-06 0)
(-0.000111631 -1.0723e-05 0)
(-0.000107737 -1.5401e-05 0)
(-0.000101575 -2.18317e-05 0)
(-9.23324e-05 -2.96272e-05 0)
(-7.93145e-05 -3.85425e-05 0)
(-6.17611e-05 -4.78986e-05 0)
(-3.94858e-05 -5.5934e-05 0)
(-1.36073e-05 -6.05745e-05 0)
(1.36073e-05 -6.05745e-05 0)
(3.94858e-05 -5.5934e-05 0)
(6.17611e-05 -4.78986e-05 0)
(7.93145e-05 -3.85425e-05 0)
(9.23324e-05 -2.96272e-05 0)
(0.000101575 -2.18317e-05 0)
(0.000107737 -1.5401e-05 0)
(0.000111631 -1.0723e-05 0)
(0.000114789 -5.67395e-06 0)
(0.000117185 -2.90128e-06 0)
(0.000118682 -2.54061e-06 0)
(0.000121476 -3.82743e-06 0)
(0.000123911 -1.66483e-06 0)
(0.000124641 -8.52838e-07 0)
(0.000122793 1.90494e-06 0)
(0.00012079 -1.91766e-06 0)
(0.000123812 -6.17844e-06 0)
(0.000123143 -4.36313e-07 0)
(6.29189e-05 5.12678e-06 0)
(3.10314e-06 -1.64018e-14 0)
(1.13737e-19 -9.86291e-16 0)
(2.06883e-19 -9.87657e-16 0)
(1.58074e-19 -9.87621e-16 0)
(2.10694e-19 -9.87569e-16 0)
(3.09214e-19 -9.87617e-16 0)
(3.21625e-19 -9.87781e-16 0)
(2.59785e-19 -9.87831e-16 0)
(2.13908e-19 -9.87853e-16 0)
(1.7968e-19 -9.87864e-16 0)
(1.52611e-19 -9.87871e-16 0)
(1.30234e-19 -9.87876e-16 0)
(1.11087e-19 -9.87879e-16 0)
(9.42472e-20 -9.87881e-16 0)
(7.90966e-20 -9.87883e-16 0)
(6.52022e-20 -9.87884e-16 0)
(5.22464e-20 -9.87885e-16 0)
(3.99861e-20 -9.87885e-16 0)
(2.82267e-20 -9.87886e-16 0)
(1.68058e-20 -9.87886e-16 0)
(5.58057e-21 -9.87886e-16 0)
(-5.55572e-21 -9.87883e-16 0)
(-1.67298e-20 -9.87883e-16 0)
(-2.80953e-20 -9.87882e-16 0)
(-3.97911e-20 -9.87882e-16 0)
(-5.1975e-20 -9.87881e-16 0)
(-6.48344e-20 -9.8788e-16 0)
(-7.86016e-20 -9.87878e-16 0)
(-9.35761e-20 -9.87876e-16 0)
(-1.10159e-19 -9.87873e-16 0)
(-1.28909e-19 -9.87869e-16 0)
(-1.50627e-19 -9.87864e-16 0)
(-1.765e-19 -9.87855e-16 0)
(-2.0827e-19 -9.87841e-16 0)
(-2.47994e-19 -9.87816e-16 0)
(-2.91923e-19 -9.87763e-16 0)
(-2.80473e-19 -9.87641e-16 0)
(-2.09274e-19 -9.87596e-16 0)
(-1.67086e-19 -9.87623e-16 0)
(-1.86252e-19 -9.87635e-16 0)
(-1.30436e-19 -9.87513e-16 0)
(-1.90954e-19 -9.87706e-16 0)
(-7.65354e-20 -9.4498e-16 0)
(-1.18092e-05 -1.55248e-11 0)
(-6.37958e-05 -3.60267e-06 0)
(-0.000108891 -1.03068e-06 0)
(-0.000118307 3.72977e-06 0)
(-0.000122486 -1.1923e-06 0)
(-0.000122238 -1.8551e-06 0)
(-0.000119728 -5.3387e-06 0)
(-0.000116763 -2.95426e-06 0)
(-0.00011609 -3.27474e-06 0)
(-0.000114896 -6.50841e-06 0)
(-0.000113148 -1.23868e-05 0)
(-0.000110668 -1.82216e-05 0)
(-0.000105847 -2.6694e-05 0)
(-9.77389e-05 -3.68729e-05 0)
(-8.56035e-05 -4.88268e-05 0)
(-6.80226e-05 -6.21003e-05 0)
(-4.41599e-05 -7.39049e-05 0)
(-1.53332e-05 -8.07656e-05 0)
(1.53332e-05 -8.07656e-05 0)
(4.41599e-05 -7.39049e-05 0)
(6.80226e-05 -6.21003e-05 0)
(8.56035e-05 -4.88268e-05 0)
(9.77389e-05 -3.68729e-05 0)
(0.000105847 -2.6694e-05 0)
(0.000110668 -1.82216e-05 0)
(0.000113148 -1.23868e-05 0)
(0.000114896 -6.50841e-06 0)
(0.00011609 -3.27474e-06 0)
(0.000116763 -2.95426e-06 0)
(0.000119728 -5.3387e-06 0)
(0.000122238 -1.8551e-06 0)
(0.000122486 -1.1923e-06 0)
(0.000118307 3.72977e-06 0)
(0.000108891 -1.03068e-06 0)
(6.37958e-05 -3.60267e-06 0)
(1.18092e-05 -1.55248e-11 0)
(7.65354e-20 -9.4498e-16 0)
(1.90954e-19 -9.87706e-16 0)
(1.30436e-19 -9.87513e-16 0)
(1.86252e-19 -9.87635e-16 0)
(1.67086e-19 -9.87623e-16 0)
(2.09274e-19 -9.87596e-16 0)
(2.80473e-19 -9.87641e-16 0)
(2.91923e-19 -9.87763e-16 0)
(2.47994e-19 -9.87816e-16 0)
(2.0827e-19 -9.87841e-16 0)
(1.765e-19 -9.87855e-16 0)
(1.50627e-19 -9.87864e-16 0)
(1.28909e-19 -9.87869e-16 0)
(1.10159e-19 -9.87873e-16 0)
(9.35761e-20 -9.87876e-16 0)
(7.86016e-20 -9.87878e-16 0)
(6.48344e-20 -9.8788e-16 0)
(5.1975e-20 -9.87881e-16 0)
(3.97911e-20 -9.87882e-16 0)
(2.80953e-20 -9.87882e-16 0)
(1.67298e-20 -9.87883e-16 0)
(5.55572e-21 -9.87883e-16 0)
(-5.52163e-21 -9.87879e-16 0)
(-1.66256e-20 -9.87879e-16 0)
(-2.7915e-20 -9.87878e-16 0)
(-3.95239e-20 -9.87878e-16 0)
(-5.16036e-20 -9.87877e-16 0)
(-6.4332e-20 -9.87875e-16 0)
(-7.7927e-20 -9.87873e-16 0)
(-9.26645e-20 -9.87871e-16 0)
(-1.08905e-19 -9.87868e-16 0)
(-1.27131e-19 -9.87863e-16 0)
(-1.47997e-19 -9.87856e-16 0)
(-1.72368e-19 -9.87846e-16 0)
(-2.01218e-19 -9.8783e-16 0)
(-2.34603e-19 -9.87803e-16 0)
(-2.6539e-19 -9.87752e-16 0)
(-2.55471e-19 -9.8766e-16 0)
(-2.04549e-19 -9.87619e-16 0)
(-1.70274e-19 -9.87626e-16 0)
(-1.71808e-19 -9.87625e-16 0)
(-1.36249e-19 -9.87554e-16 0)
(-1.56649e-19 -9.87639e-16 0)
(-7.05652e-20 -9.87389e-16 0)
(3.16752e-20 -9.87618e-16 0)
(1.64591e-20 -8.99508e-16 0)
(-1.56277e-06 -6.27273e-15 0)
(-5.52621e-05 2.48639e-06 0)
(-0.000111266 -6.93837e-07 0)
(-0.000117685 -1.25298e-06 0)
(-0.000117028 -7.46317e-06 0)
(-0.000114248 -3.02803e-06 0)
(-0.000115016 -3.3285e-06 0)
(-0.000115373 -6.86396e-06 0)
(-0.00011555 -1.29368e-05 0)
(-0.000115311 -1.97901e-05 0)
(-0.000112465 -3.10158e-05 0)
(-0.00010598 -4.37241e-05 0)
(-9.55643e-05 -5.92026e-05 0)
(-7.83874e-05 -7.82898e-05 0)
(-5.20393e-05 -9.61458e-05 0)
(-1.82451e-05 -0.000106489 0)
(1.82451e-05 -0.000106489 0)
(5.20393e-05 -9.61458e-05 0)
(7.83874e-05 -7.82898e-05 0)
(9.55643e-05 -5.92026e-05 0)
(0.00010598 -4.37241e-05 0)
(0.000112465 -3.10158e-05 0)
(0.000115311 -1.97901e-05 0)
(0.00011555 -1.29368e-05 0)
(0.000115373 -6.86396e-06 0)
(0.000115016 -3.3285e-06 0)
(0.000114248 -3.02803e-06 0)
(0.000117028 -7.46317e-06 0)
(0.000117685 -1.25298e-06 0)
(0.000111266 -6.93837e-07 0)
(5.52621e-05 2.48639e-06 0)
(1.56277e-06 -6.27273e-15 0)
(-1.64591e-20 -8.99508e-16 0)
(-3.16752e-20 -9.87618e-16 0)
(7.05652e-20 -9.87389e-16 0)
(1.56649e-19 -9.87639e-16 0)
(1.36249e-19 -9.87554e-16 0)
(1.71808e-19 -9.87625e-16 0)
(1.70274e-19 -9.87626e-16 0)
(2.04549e-19 -9.87619e-16 0)
(2.55471e-19 -9.8766e-16 0)
(2.6539e-19 -9.87752e-16 0)
(2.34603e-19 -9.87803e-16 0)
(2.01218e-19 -9.8783e-16 0)
(1.72368e-19 -9.87846e-16 0)
(1.47997e-19 -9.87856e-16 0)
(1.27131e-19 -9.87863e-16 0)
(1.08905e-19 -9.87868e-16 0)
(9.26645e-20 -9.87871e-16 0)
(7.7927e-20 -9.87873e-16 0)
(6.4332e-20 -9.87875e-16 0)
(5.16036e-20 -9.87877e-16 0)
(3.95239e-20 -9.87878e-16 0)
(2.7915e-20 -9.87878e-16 0)
(1.66256e-20 -9.87879e-16 0)
(5.52163e-21 -9.87879e-16 0)
(-5.47625e-21 -9.87875e-16 0)
(-1.6487e-20 -9.87875e-16 0)
(-2.76754e-20 -9.87874e-16 0)
(-3.91691e-20 -9.87873e-16 0)
(-5.1111e-20 -9.87872e-16 0)
(-6.36671e-20 -9.87871e-16 0)
(-7.7037e-20 -9.87868e-16 0)
(-9.14672e-20 -9.87865e-16 0)
(-1.07269e-19 -9.87861e-16 0)
(-1.24835e-19 -9.87856e-16 0)
(-1.44653e-19 -9.87848e-16 0)
(-1.67249e-19 -9.87837e-16 0)
(-1.92887e-19 -9.87819e-16 0)
(-2.20256e-19 -9.87791e-16 0)
(-2.41634e-19 -9.87744e-16 0)
(-2.33432e-19 -9.87675e-16 0)
(-1.97182e-19 -9.87636e-16 0)
(-1.69068e-19 -9.87632e-16 0)
(-1.60836e-19 -9.87622e-16 0)
(-1.35275e-19 -9.87579e-16 0)
(-1.33007e-19 -9.87608e-16 0)
(-6.9341e-20 -9.87476e-16 0)
(9.04305e-22 -9.87604e-16 0)
(-8.62887e-21 -9.87611e-16 0)
(-1.08294e-19 -9.87704e-16 0)
(1.7673e-20 -9.64517e-16 0)
(-1.63141e-09 -7.54328e-16 0)
(-3.54549e-05 -3.0764e-07 0)
(-8.56589e-05 -4.35471e-06 0)
(-0.000105186 -1.47026e-06 0)
(-0.000112036 -2.63523e-06 0)
(-0.00011531 -6.51464e-06 0)
(-0.000118284 -1.13494e-05 0)
(-0.000122039 -1.84621e-05 0)
(-0.000122098 -3.47178e-05 0)
(-0.000117608 -4.92578e-05 0)
(-0.000110949 -6.7928e-05 0)
(-9.58049e-05 -9.66179e-05 0)
(-6.55948e-05 -0.000125335 0)
(-2.3219e-05 -0.000141374 0)
(2.3219e-05 -0.000141374 0)
(6.55948e-05 -0.000125335 0)
(9.58049e-05 -9.66179e-05 0)
(0.000110949 -6.7928e-05 0)
(0.000117608 -4.92578e-05 0)
(0.000122098 -3.47178e-05 0)
(0.000122039 -1.84621e-05 0)
(0.000118284 -1.13494e-05 0)
(0.00011531 -6.51464e-06 0)
(0.000112036 -2.63523e-06 0)
(0.000105186 -1.47026e-06 0)
(8.56589e-05 -4.35471e-06 0)
(3.54549e-05 -3.0764e-07 0)
(1.63141e-09 -7.54328e-16 0)
(-1.7673e-20 -9.64517e-16 0)
(1.08294e-19 -9.87704e-16 0)
(8.62887e-21 -9.87611e-16 0)
(-9.04305e-22 -9.87604e-16 0)
(6.9341e-20 -9.87476e-16 0)
(1.33007e-19 -9.87608e-16 0)
(1.35275e-19 -9.87579e-16 0)
(1.60836e-19 -9.87622e-16 0)
(1.69068e-19 -9.87632e-16 0)
(1.97182e-19 -9.87636e-16 0)
(2.33432e-19 -9.87675e-16 0)
(2.41634e-19 -9.87744e-16 0)
(2.20256e-19 -9.87791e-16 0)
(1.92887e-19 -9.87819e-16 0)
(1.67249e-19 -9.87837e-16 0)
(1.44653e-19 -9.87848e-16 0)
(1.24835e-19 -9.87856e-16 0)
(1.07269e-19 -9.87861e-16 0)
(9.14672e-20 -9.87865e-16 0)
(7.7037e-20 -9.87868e-16 0)
(6.36671e-20 -9.87871e-16 0)
(5.1111e-20 -9.87872e-16 0)
(3.91691e-20 -9.87873e-16 0)
(2.76754e-20 -9.87874e-16 0)
(1.6487e-20 -9.87875e-16 0)
(5.47625e-21 -9.87875e-16 0)
(-5.41727e-21 -9.87871e-16 0)
(-1.63069e-20 -9.8787e-16 0)
(-2.73643e-20 -9.8787e-16 0)
(-3.87091e-20 -9.87869e-16 0)
(-5.04737e-20 -9.87867e-16 0)
(-6.28093e-20 -9.87865e-16 0)
(-7.58933e-20 -9.87863e-16 0)
(-8.99374e-20 -9.87859e-16 0)
(-1.05195e-19 -9.87855e-16 0)
(-1.21961e-19 -9.87848e-16 0)
(-1.40546e-19 -9.8784e-16 0)
(-1.61153e-19 -9.87827e-16 0)
(-1.83477e-19 -9.87809e-16 0)
(-2.05467e-19 -9.87781e-16 0)
(-2.2025e-19 -9.87739e-16 0)
(-2.13691e-19 -9.87685e-16 0)
(-1.87815e-19 -9.87651e-16 0)
(-1.64605e-19 -9.87638e-16 0)
(-1.51539e-19 -9.87624e-16 0)
(-1.30528e-19 -9.87596e-16 0)
(-1.16775e-19 -9.87598e-16 0)
(-6.90376e-20 -9.87531e-16 0)
(-2.02427e-20 -9.87597e-16 0)
(-2.20759e-20 -9.87613e-16 0)
(-6.60298e-20 -9.87645e-16 0)
(8.52228e-21 -9.87456e-16 0)
(5.34343e-20 -9.87677e-16 0)
(9.72782e-20 -9.8694e-16 0)
(1.14091e-19 -8.43269e-16 0)
(-2.34124e-07 -1.02594e-15 0)
(-4.47714e-05 -1.0079e-06 0)
(-9.82897e-05 -3.06599e-06 0)
(-0.000112989 -4.92742e-06 0)
(-0.000127475 -8.39108e-06 0)
(-0.000133401 -3.95602e-05 0)
(-0.000130591 -5.13903e-05 0)
(-0.000133849 -6.8744e-05 0)
(-0.000126531 -0.000116245 0)
(-8.99754e-05 -0.000167305 0)
(-3.18647e-05 -0.000192276 0)
(3.18647e-05 -0.000192276 0)
(8.99754e-05 -0.000167305 0)
(0.000126531 -0.000116245 0)
(0.000133849 -6.8744e-05 0)
(0.000130591 -5.13903e-05 0)
(0.000133401 -3.95602e-05 0)
(0.000127475 -8.39108e-06 0)
(0.000112989 -4.92742e-06 0)
(9.82897e-05 -3.06599e-06 0)
(4.47714e-05 -1.0079e-06 0)
(2.34124e-07 -1.02594e-15 0)
(-1.14091e-19 -8.43269e-16 0)
(-9.72782e-20 -9.8694e-16 0)
(-5.34343e-20 -9.87677e-16 0)
(-8.52228e-21 -9.87456e-16 0)
(6.60298e-20 -9.87645e-16 0)
(2.20759e-20 -9.87613e-16 0)
(2.02427e-20 -9.87597e-16 0)
(6.90376e-20 -9.87531e-16 0)
(1.16775e-19 -9.87598e-16 0)
(1.30528e-19 -9.87596e-16 0)
(1.51539e-19 -9.87624e-16 0)
(1.64605e-19 -9.87638e-16 0)
(1.87815e-19 -9.87651e-16 0)
(2.13691e-19 -9.87685e-16 0)
(2.2025e-19 -9.87739e-16 0)
(2.05467e-19 -9.87781e-16 0)
(1.83477e-19 -9.87809e-16 0)
(1.61153e-19 -9.87827e-16 0)
(1.40546e-19 -9.8784e-16 0)
(1.21961e-19 -9.87848e-16 0)
(1.05195e-19 -9.87855e-16 0)
(8.99374e-20 -9.87859e-16 0)
(7.58933e-20 -9.87863e-16 0)
(6.28093e-20 -9.87865e-16 0)
(5.04737e-20 -9.87867e-16 0)
(3.87091e-20 -9.87869e-16 0)
(2.73643e-20 -9.8787e-16 0)
(1.63069e-20 -9.8787e-16 0)
(5.41727e-21 -9.87871e-16 0)
(-5.3421e-21 -9.87866e-16 0)
(-1.60775e-20 -9.87865e-16 0)
(-2.69684e-20 -9.87865e-16 0)
(-3.81248e-20 -9.87864e-16 0)
(-4.96662e-20 -9.87862e-16 0)
(-6.17263e-20 -9.8786e-16 0)
(-7.44564e-20 -9.87857e-16 0)
(-8.80288e-20 -9.87853e-16 0)
(-1.02634e-19 -9.87848e-16 0)
(-1.18464e-19 -9.87841e-16 0)
(-1.35656e-19 -9.87831e-16 0)
(-1.5414e-19 -9.87818e-16 0)
(-1.73218e-19 -9.878e-16 0)
(-1.90615e-19 -9.87773e-16 0)
(-2.00852e-19 -9.87737e-16 0)
(-1.95709e-19 -9.87693e-16 0)
(-1.77035e-19 -9.87662e-16 0)
(-1.57781e-19 -9.87645e-16 0)
(-1.42853e-19 -9.8763e-16 0)
(-1.23941e-19 -9.87608e-16 0)
(-1.05431e-19 -9.876e-16 0)
(-6.89059e-20 -9.87566e-16 0)
(-3.38152e-20 -9.87599e-16 0)
(-2.88199e-20 -9.87613e-16 0)
(-4.21958e-20 -9.8762e-16 0)
(4.11841e-21 -9.87534e-16 0)
(4.17116e-20 -9.87636e-16 0)
(7.15778e-20 -9.87583e-16 0)
(6.83373e-20 -9.87736e-16 0)
(-5.38375e-20 -9.87732e-16 0)
(6.29331e-20 -9.81578e-16 0)
(1.31105e-19 -8.26898e-16 0)
(-2.3653e-13 -7.07291e-16 0)
(-6.64995e-06 -3.95329e-10 0)
(-4.1235e-05 -2.13411e-05 0)
(-9.46051e-05 -2.56189e-05 0)
(-0.000151823 -3.29746e-05 0)
(-0.000179486 -0.000130713 0)
(-0.000133782 -0.000236291 0)
(-4.60988e-05 -0.000271377 0)
(4.60988e-05 -0.000271377 0)
(0.000133782 -0.000236291 0)
(0.000179486 -0.000130713 0)
(0.000151823 -3.29746e-05 0)
(9.46051e-05 -2.56189e-05 0)
(4.1235e-05 -2.13411e-05 0)
(6.64995e-06 -3.95329e-10 0)
(2.3653e-13 -7.07291e-16 0)
(-1.31105e-19 -8.26898e-16 0)
(-6.29331e-20 -9.81578e-16 0)
(5.38375e-20 -9.87732e-16 0)
(-6.83373e-20 -9.87736e-16 0)
(-7.15778e-20 -9.87583e-16 0)
(-4.17116e-20 -9.87636e-16 0)
(-4.11841e-21 -9.87534e-16 0)
(4.21958e-20 -9.8762e-16 0)
(2.88199e-20 -9.87613e-16 0)
(3.38152e-20 -9.87599e-16 0)
(6.89059e-20 -9.87566e-16 0)
(1.05431e-19 -9.876e-16 0)
(1.23941e-19 -9.87608e-16 0)
(1.42853e-19 -9.8763e-16 0)
(1.57781e-19 -9.87645e-16 0)
(1.77035e-19 -9.87662e-16 0)
(1.95709e-19 -9.87693e-16 0)
(2.00852e-19 -9.87737e-16 0)
(1.90615e-19 -9.87773e-16 0)
(1.73218e-19 -9.878e-16 0)
(1.5414e-19 -9.87818e-16 0)
(1.35656e-19 -9.87831e-16 0)
(1.18464e-19 -9.87841e-16 0)
(1.02634e-19 -9.87848e-16 0)
(8.80288e-20 -9.87853e-16 0)
(7.44564e-20 -9.87857e-16 0)
(6.17263e-20 -9.8786e-16 0)
(4.96662e-20 -9.87862e-16 0)
(3.81248e-20 -9.87864e-16 0)
(2.69684e-20 -9.87865e-16 0)
(1.60775e-20 -9.87865e-16 0)
(5.3421e-21 -9.87866e-16 0)
(-5.24795e-21 -9.87861e-16 0)
(-1.57903e-20 -9.8786e-16 0)
(-2.64735e-20 -9.87859e-16 0)
(-3.73958e-20 -9.87858e-16 0)
(-4.86619e-20 -9.87856e-16 0)
(-6.03851e-20 -9.87854e-16 0)
(-7.26878e-20 -9.8785e-16 0)
(-8.56993e-20 -9.87846e-16 0)
(-9.95445e-20 -9.87841e-16 0)
(-1.14315e-19 -9.87833e-16 0)
(-1.29999e-19 -9.87823e-16 0)
(-1.46312e-19 -9.8781e-16 0)
(-1.62352e-19 -9.87791e-16 0)
(-1.75962e-19 -9.87767e-16 0)
(-1.83093e-19 -9.87735e-16 0)
(-1.7908e-19 -9.877e-16 0)
(-1.65343e-19 -9.87672e-16 0)
(-1.49308e-19 -9.87653e-16 0)
(-1.34236e-19 -9.87637e-16 0)
(-1.16626e-19 -9.87619e-16 0)
(-9.71063e-20 -9.87608e-16 0)
(-6.84334e-20 -9.8759e-16 0)
(-4.18211e-20 -9.87605e-16 0)
(-3.20164e-20 -9.87614e-16 0)
(-2.97014e-20 -9.87614e-16 0)
(1.28208e-21 -9.87578e-16 0)
(3.06204e-20 -9.87625e-16 0)
(5.09583e-20 -9.87618e-16 0)
(4.53052e-20 -9.87696e-16 0)
(-7.50508e-21 -9.87688e-16 0)
(4.9505e-20 -9.87563e-16 0)
(8.54326e-20 -9.87732e-16 0)
(3.14729e-20 -9.87712e-16 0)
(5.98231e-20 -9.87621e-16 0)
(8.74266e-20 -9.68391e-16 0)
(-3.11307e-14 -9.15019e-16 0)
(-1.66876e-06 -1.28341e-09 0)
(-5.9753e-05 -7.26724e-05 0)
(-0.000111933 -0.000285299 0)
(-5.38484e-05 -0.000382152 0)
(5.38484e-05 -0.000382152 0)
(0.000111933 -0.000285299 0)
(5.9753e-05 -7.26724e-05 0)
(1.66876e-06 -1.28341e-09 0)
(3.11307e-14 -9.15019e-16 0)
(-8.74266e-20 -9.68391e-16 0)
(-5.98231e-20 -9.87621e-16 0)
(-3.14729e-20 -9.87712e-16 0)
(-8.54326e-20 -9.87732e-16 0)
(-4.9505e-20 -9.87563e-16 0)
(7.50508e-21 -9.87688e-16 0)
(-4.53052e-20 -9.87696e-16 0)
(-5.09583e-20 -9.87618e-16 0)
(-3.06204e-20 -9.87625e-16 0)
(-1.28208e-21 -9.87578e-16 0)
(2.97014e-20 -9.87614e-16 0)
(3.20164e-20 -9.87614e-16 0)
(4.18211e-20 -9.87605e-16 0)
(6.84334e-20 -9.8759e-16 0)
(9.71063e-20 -9.87608e-16 0)
(1.16626e-19 -9.87619e-16 0)
(1.34236e-19 -9.87637e-16 0)
(1.49308e-19 -9.87653e-16 0)
(1.65343e-19 -9.87672e-16 0)
(1.7908e-19 -9.877e-16 0)
(1.83093e-19 -9.87735e-16 0)
(1.75962e-19 -9.87767e-16 0)
(1.62352e-19 -9.87791e-16 0)
(1.46312e-19 -9.8781e-16 0)
(1.29999e-19 -9.87823e-16 0)
(1.14315e-19 -9.87833e-16 0)
(9.95445e-20 -9.87841e-16 0)
(8.56993e-20 -9.87846e-16 0)
(7.26878e-20 -9.8785e-16 0)
(6.03851e-20 -9.87854e-16 0)
(4.86619e-20 -9.87856e-16 0)
(3.73958e-20 -9.87858e-16 0)
(2.64735e-20 -9.87859e-16 0)
(1.57903e-20 -9.8786e-16 0)
(5.24795e-21 -9.87861e-16 0)
(-5.1319e-21 -9.87855e-16 0)
(-1.54366e-20 -9.87855e-16 0)
(-2.5865e-20 -9.87854e-16 0)
(-3.65017e-20 -9.87852e-16 0)
(-4.74347e-20 -9.8785e-16 0)
(-5.87547e-20 -9.87847e-16 0)
(-7.05531e-20 -9.87844e-16 0)
(-8.29149e-20 -9.87839e-16 0)
(-9.59016e-20 -9.87833e-16 0)
(-1.09515e-19 -9.87825e-16 0)
(-1.2362e-19 -9.87815e-16 0)
(-1.37801e-19 -9.87801e-16 0)
(-1.51101e-19 -9.87784e-16 0)
(-1.61672e-19 -9.87761e-16 0)
(-1.66678e-19 -9.87734e-16 0)
(-1.63515e-19 -9.87705e-16 0)
(-1.53152e-19 -9.8768e-16 0)
(-1.3975e-19 -9.87661e-16 0)
(-1.25482e-19 -9.87645e-16 0)
(-1.09127e-19 -9.87629e-16 0)
(-9.04937e-20 -9.87618e-16 0)
(-6.73485e-20 -9.87607e-16 0)
(-4.5979e-20 -9.87613e-16 0)
(-3.34624e-20 -9.87618e-16 0)
(-2.38827e-20 -9.87617e-16 0)
(-1.37637e-21 -9.87603e-16 0)
(2.09311e-20 -9.87626e-16 0)
(3.54913e-20 -9.87635e-16 0)
(3.3014e-20 -9.87675e-16 0)
(1.31068e-20 -9.87671e-16 0)
(4.05754e-20 -9.87624e-16 0)
(5.97783e-20 -9.877e-16 0)
(4.202e-20 -9.877e-16 0)
(4.51158e-20 -9.87695e-16 0)
(4.51344e-20 -9.87721e-16 0)
(2.68619e-20 -9.87742e-16 0)
(-3.35975e-10 -2.57582e-15 0)
(-9.78345e-07 -8.76652e-06 0)
(-1.50737e-05 -0.000274131 0)
(-1.40957e-05 -0.00046256 0)
(1.40957e-05 -0.00046256 0)
(1.50737e-05 -0.000274131 0)
(9.78345e-07 -8.76652e-06 0)
(3.35975e-10 -2.57582e-15 0)
(-2.68619e-20 -9.87742e-16 0)
(-4.51344e-20 -9.87721e-16 0)
(-4.51158e-20 -9.87695e-16 0)
(-4.202e-20 -9.877e-16 0)
(-5.97783e-20 -9.877e-16 0)
(-4.05754e-20 -9.87624e-16 0)
(-1.31068e-20 -9.87671e-16 0)
(-3.3014e-20 -9.87675e-16 0)
(-3.54913e-20 -9.87635e-16 0)
(-2.09311e-20 -9.87626e-16 0)
(1.37637e-21 -9.87603e-16 0)
(2.38827e-20 -9.87617e-16 0)
(3.34624e-20 -9.87618e-16 0)
(4.5979e-20 -9.87613e-16 0)
(6.73485e-20 -9.87607e-16 0)
(9.04937e-20 -9.87618e-16 0)
(1.09127e-19 -9.87629e-16 0)
(1.25482e-19 -9.87645e-16 0)
(1.3975e-19 -9.87661e-16 0)
(1.53152e-19 -9.8768e-16 0)
(1.63515e-19 -9.87705e-16 0)
(1.66678e-19 -9.87734e-16 0)
(1.61672e-19 -9.87761e-16 0)
(1.51101e-19 -9.87784e-16 0)
(1.37801e-19 -9.87801e-16 0)
(1.2362e-19 -9.87815e-16 0)
(1.09515e-19 -9.87825e-16 0)
(9.59016e-20 -9.87833e-16 0)
(8.29149e-20 -9.87839e-16 0)
(7.05531e-20 -9.87844e-16 0)
(5.87547e-20 -9.87847e-16 0)
(4.74347e-20 -9.8785e-16 0)
(3.65017e-20 -9.87852e-16 0)
(2.5865e-20 -9.87854e-16 0)
(1.54366e-20 -9.87855e-16 0)
(5.1319e-21 -9.87855e-16 0)
(-4.99106e-21 -9.87849e-16 0)
(-1.50078e-20 -9.87849e-16 0)
(-2.51286e-20 -9.87848e-16 0)
(-3.5423e-20 -9.87846e-16 0)
(-4.59605e-20 -9.87844e-16 0)
(-5.6808e-20 -9.87841e-16 0)
(-6.80252e-20 -9.87837e-16 0)
(-7.96541e-20 -9.87832e-16 0)
(-9.16986e-20 -9.87826e-16 0)
(-1.04086e-19 -9.87818e-16 0)
(-1.16599e-19 -9.87807e-16 0)
(-1.28759e-19 -9.87794e-16 0)
(-1.39663e-19 -9.87777e-16 0)
(-1.4784e-19 -9.87757e-16 0)
(-1.51378e-19 -9.87733e-16 0)
(-1.48826e-19 -9.87709e-16 0)
(-1.40786e-19 -9.87687e-16 0)
(-1.29552e-19 -9.87668e-16 0)
(-1.16573e-19 -9.87653e-16 0)
(-1.01655e-19 -9.87639e-16 0)
(-8.47339e-20 -9.87629e-16 0)
(-6.55708e-20 -9.87621e-16 0)
(-4.76101e-20 -9.87622e-16 0)
(-3.40766e-20 -9.87624e-16 0)
(-2.1778e-20 -9.87623e-16 0)
(-4.22641e-21 -9.8762e-16 0)
(1.28671e-20 -9.87633e-16 0)
(2.41644e-20 -9.87644e-16 0)
(2.53002e-20 -9.87665e-16 0)
(2.00377e-20 -9.87666e-16 0)
(3.35165e-20 -9.87653e-16 0)
(4.3176e-20 -9.87688e-16 0)
(3.6743e-20 -9.87696e-16 0)
(3.41394e-20 -9.877e-16 0)
(2.93879e-20 -9.87709e-16 0)
(1.95223e-20 -9.87717e-16 0)
(7.03005e-21 -1.60665e-15 0)
(-8.33417e-08 -7.16466e-06 0)
(-2.84072e-06 -0.000253735 0)
(-2.75737e-06 -0.000484671 0)
(2.75737e-06 -0.000484671 0)
(2.84072e-06 -0.000253735 0)