/*--------------------------------*- C++ -*----------------------------------*\
  =========                 |
  \\      /  F ield         | OpenFOAM: The Open Source CFD Toolbox
   \\    /   O peration     | Website:  https://openfoam.org
    \\  /    A nd           | Version:  10
     \\/     M anipulation  |
\*---------------------------------------------------------------------------*/
FoamFile
{
    format      ascii;
    class       volScalarField;
    location    "0.095";
    object      T;
}
// * * * * * * * * * * * * * * * * * * * * * * * * * * * * * * * * * * * * * //

dimensions      [0 0 0 1 0 0 0];

internalField   nonuniform List<scalar> 
12225
(
1.00078
0.99983
1.00012
1.00011
1.00018
1.00045
1.00048
1.00029
1.00024
1.00036
1.00044
1.00037
1.00021
0.999987
0.99979
0.999473
0.998501
0.997638
1.00003
0.999827
1.00006
1.00005
1.00011
1.00041
1.0005
1.00033
1.00023
1.00031
1.0004
1.00034
1.00019
0.999967
0.999723
0.999385
0.998609
0.997721
0.999764
1.00012
1.00024
1.00008
1.0001
1.00037
1.00045
1.00029
1.0002
1.00027
1.00033
1.00027
1.00016
1.00001
0.99981
0.999514
0.998833
0.998059
1.00007
1.00003
1.00016
1.0001
1.00011
1.00032
1.0004
1.00028
1.00022
1.0003
1.00037
1.00034
1.00022
1.00005
0.999807
0.999488
0.998953
0.998413
1.00009
1.00028
1.00054
1.00023
1.00008
1.00033
1.00048
1.00036
1.00024
1.00025
1.00028
1.00023
1.00013
0.999999
0.99983
0.99963
0.999294
0.998926
0.999792
1.00009
1.00049
1.00028
1.00011
1.00027
1.00034
1.00022
1.00017
1.00024
1.00031
1.00029
1.0002
1.00008
0.999928
0.999741
0.999488
0.999215
0.999775
1.00037
1.00097
1.00049
1.00007
1.00026
1.00043
1.00036
1.00027
1.00025
1.00024
1.00018
1.0001
1.00001
0.999896
0.999764
0.999599
0.9994
1.00009
1.00051
1.00094
1.00043
1.00008
1.00025
1.00031
1.00018
1.00011
1.00017
1.00023
1.00023
1.00017
1.0001
1.00001
0.999904
0.999779
0.999627
0.998855
1.00088
1.00126
1.00046
0.999973
1.00016
1.00035
1.00032
1.00025
1.00023
1.0002
1.00014
1.00006
1.00001
0.99995
0.999877
0.999793
0.999677
0.999599
1.00093
1.00109
1.00044
1.00005
1.00017
1.00024
1.0001
1.00002
1.00007
1.00014
1.00015
1.00014
1.00012
1.00009
1.00004
0.999972
0.999892
0.998572
1.0006
1.00111
1.00033
0.999871
1.00008
1.00029
1.00025
1.00019
1.0002
1.00018
1.00011
1.00003
0.999983
0.999944
0.999903
0.999849
0.999797
1.00011
1.00078
1.00092
1.00036
0.999945
1.00006
1.00014
1.00001
0.999938
0.999983
1.00006
1.00009
1.0001
1.0001
1.0001
1.00008
1.00006
1.00001
0.998767
1.00066
1.00065
1.00025
0.999877
1.00001
1.00019
1.00015
1.0001
1.00011
1.0001
1.00005
0.999997
0.999969
0.99996
0.999943
0.999924
0.999892
1.00051
1.00017
0.999747
0.999892
0.999828
0.999884
0.999944
0.999884
0.999844
0.999892
0.999967
1.00002
1.00004
1.00006
1.00006
1.00007
1.00005
1.00007
0.999766
0.999123
0.99988
1.00044
1.00028
1.00009
1.00006
1.00008
1.00009
1.00008
1.00006
1.00004
1
0.999972
0.999946
0.999938
0.999913
0.999908
1.00358
1.00016
0.999478
0.999135
0.999199
0.999423
0.999584
0.999723
0.999825
0.999862
0.999896
0.999959
1.00003
1.00008
1.00011
1.00013
1.00015
1.00016
0.998925
0.998094
0.998226
0.999189
0.999912
1.00019
1.00014
1.00005
1.00001
0.999986
0.999978
0.999984
0.999975
0.999961
0.999953
0.999959
0.999964
0.999978
1.00101
1.00005
0.999707
0.999502
0.99937
0.999427
0.999517
0.999607
0.999723
0.999868
0.999985
1.00004
1.00005
1.00008
1.00013
1.00017
1.0002
1.00023
0.998494
0.999983
1.00047
1.00037
1.00058
1.00076
1.00072
1.00065
1.0006
1.00057
1.00057
1.00057
1.00056
1.00054
1.00052
1.00049
1.00045
1.00041
1.00062
1.00247
1.00239
1.0013
1.00084
1.00062
1.00051
1.00048
1.00044
1.00037
1.00033
1.00029
1.00027
1.00028
1.0003
1.00033
1.00036
1.0004
0.998269
1.00068
1.00172
1.00135
1.00105
1.0009
1.00092
1.00096
1.0009
1.00081
1.00078
1.00078
1.00077
1.00074
1.0007
1.00066
1.00062
1.00058
0.998786
1.00001
1.00127
1.00127
1.00067
1.00056
1.00073
1.00068
1.00053
1.00052
1.00055
1.00053
1.0005
1.00048
1.00048
1.0005
1.00051
1.00052
1.00022
0.999391
1.00003
1.00066
1.00056
1.00055
1.0007
1.00072
1.0007
1.00075
1.0008
1.00075
1.00068
1.00066
1.00066
1.00065
1.00061
1.00058
0.999903
0.9998
1.00049
1.0009
1.00068
1.00055
1.00061
1.00063
1.00057
1.00052
1.0005
1.00048
1.00049
1.00052
1.00054
1.00056
1.00057
1.00058
0.999794
1.00045
1.0005
1.00049
1.00033
1.00028
1.00045
1.00062
1.00068
1.00069
1.00069
1.00067
1.00066
1.00067
1.00065
1.00062
1.00059
1.00057
0.998757
1.00083
1.00083
1.0007
1.00059
1.00055
1.00064
1.00065
1.00058
1.00054
1.00056
1.00058
1.00056
1.00056
1.00057
1.0006
1.00063
1.00065
0.99936
1.00107
1.00082
1.00038
1.0003
1.00037
1.00054
1.00062
1.00059
1.00058
1.00065
1.00072
1.00072
1.00068
1.00063
1.00059
1.00056
1.00055
0.999242
1.00085
1.00085
1.00061
1.0006
1.0006
1.00064
1.00063
1.00055
1.00049
1.00051
1.00055
1.00057
1.00057
1.00058
1.00059
1.0006
1.00061
0.998611
1.00033
1.00053
1.00047
1.00051
1.00054
1.00059
1.0006
1.00056
1.00055
1.00062
1.00068
1.0007
1.00066
1.00061
1.00055
1.00052
1.00052
0.999703
1.00021
1.00065
1.00068
1.00061
1.00057
1.0006
1.0006
1.00054
1.00053
1.0006
1.00068
1.00071
1.00067
1.00061
1.00057
1.00054
1.00058
0.953707
0.953796
0.953562
0.953047
0.953166
0.953922
0.954641
0.955494
0.956173
0.956271
0.955956
0.955516
0.955076
0.954655
0.95424
0.953817
0.953375
0.95291
0.952427
0.951928
0.951427
0.950917
0.95041
0.949906
0.94944
0.949123
0.948984
0.949003
0.94923
0.949749
0.950649
0.951937
0.953202
0.95317
0.951345
0.948711
0.94599
0.944456
0.943252
0.942842
0.942714
0.941233
0.941669
0.941774
0.941007
0.940584
0.940747
0.941568
0.940569
0.938398
0.937368
0.937939
0.942478
0.946246
0.946624
0.94517
0.943461
0.942253
0.941521
0.941162
0.941044
0.941075
0.94119
0.941359
0.941561
0.941789
0.942037
0.942303
0.942582
0.942873
0.943171
0.943474
0.943776
0.944076
0.944378
0.944706
0.945032
0.945336
0.945631
0.945918
0.946196
0.946467
0.946732
0.946992
0.94725
0.947511
0.947778
0.948059
0.948363
0.948701
0.949086
0.949522
0.950014
0.950574
0.951209
0.951902
0.952606
0.953279
0.953937
0.954618
0.955278
0.955779
0.956088
0.956401
0.956708
0.956565
0.95615
0.955844
0.955628
0.955663
0.956457
0.959026
0.963338
0.963903
0.956679
0.951554
0.953355
0.952939
0.951465
0.951207
0.949533
0.947561
0.945757
0.943137
0.93976
0.936402
0.933604
0.931335
0.929469
0.928019
0.926917
0.926062
0.925399
0.924938
0.92476
0.925004
0.925818
0.927304
0.929417
0.931973
0.934943
0.938179
0.941231
0.943499
0.944411
0.943973
0.942594
0.940826
0.939409
0.939211
0.940103
0.940302
0.939693
0.938882
0.938083
0.937441
0.937015
0.93677
0.936643
0.936604
0.93653
0.936383
0.936319
0.93608
0.935547
0.935364
0.934979
0.933984
0.93416
0.93465
0.933832
0.934462
0.93689
0.935317
0.930869
0.933586
0.941703
0.938286
0.928045
0.927714
0.952294
0.95232
0.952288
0.951719
0.951615
0.952219
0.953186
0.953839
0.953971
0.953688
0.95324
0.952816
0.952472
0.952185
0.95192
0.951645
0.951344
0.951013
0.950656
0.950291
0.949927
0.949584
0.949254
0.948931
0.948583
0.948133
0.947645
0.947236
0.947
0.947031
0.947439
0.948259
0.949373
0.949817
0.949144
0.94842
0.946925
0.944608
0.943077
0.943055
0.942041
0.94084
0.940693
0.940792
0.939721
0.937957
0.938261
0.93473
0.935313
0.937994
0.936035
0.933563
0.938102
0.942655
0.942929
0.941454
0.940008
0.939054
0.938586
0.938485
0.938637
0.938932
0.939301
0.939696
0.940095
0.940492
0.940886
0.94128
0.941674
0.942071
0.942471
0.942878
0.943295
0.94372
0.944136
0.944506
0.944847
0.945178
0.945493
0.945801
0.946102
0.946397
0.946685
0.946964
0.947233
0.947492
0.94774
0.947984
0.94823
0.948493
0.948792
0.949145
0.949569
0.950084
0.950702
0.951409
0.952162
0.952913
0.953656
0.954418
0.955168
0.955779
0.956186
0.956561
0.957029
0.957217
0.956928
0.956399
0.955654
0.954904
0.955321
0.957598
0.961213
0.96169
0.954974
0.949234
0.950611
0.95249
0.95232
0.951298
0.949304
0.947885
0.94666
0.944265
0.940953
0.937556
0.934489
0.931909
0.9298
0.928125
0.92679
0.925688
0.924766
0.924051
0.923655
0.923743
0.924491
0.92603
0.92837
0.931316
0.934513
0.937862
0.941138
0.943672
0.94473
0.944272
0.94283
0.941077
0.939782
0.939758
0.940743
0.940856
0.940173
0.939305
0.938462
0.937788
0.937335
0.937063
0.936921
0.936854
0.936734
0.936585
0.936554
0.936265
0.935677
0.935563
0.935145
0.933969
0.934228
0.934864
0.933798
0.934431
0.937227
0.935824
0.931398
0.933258
0.939503
0.935461
0.928279
0.928746
0.954264
0.954401
0.954251
0.954259
0.953972
0.95361
0.953142
0.952512
0.951895
0.951463
0.951254
0.951196
0.951188
0.951163
0.951091
0.950961
0.950767
0.9505
0.950158
0.949741
0.949265
0.948761
0.948277
0.947868
0.947544
0.947252
0.946896
0.94641
0.945822
0.945273
0.944896
0.944776
0.945035
0.945483
0.945964
0.946511
0.946448
0.945886
0.945164
0.944308
0.943329
0.941931
0.941455
0.942493
0.941062
0.941085
0.940585
0.939445
0.935327
0.937498
0.938161
0.937293
0.937629
0.93765
0.936811
0.936067
0.935883
0.936206
0.936857
0.9376
0.938314
0.938935
0.93946
0.939914
0.940315
0.940686
0.941038
0.941382
0.941721
0.942058
0.942392
0.942724
0.943058
0.943405
0.943754
0.944099
0.944442
0.944778
0.945106
0.945423
0.945731
0.94603
0.946319
0.946598
0.946868
0.947131
0.947391
0.947654
0.94793
0.948228
0.948562
0.948944
0.949391
0.949922
0.950551
0.951273
0.952054
0.952849
0.953633
0.954402
0.955137
0.955808
0.956398
0.956923
0.957368
0.957668
0.957746
0.957394
0.95635
0.954958
0.95479
0.956791
0.95992
0.959724
0.953479
0.948204
0.949951
0.953966
0.954428
0.952288
0.949749
0.947709
0.945531
0.942564
0.939143
0.935823
0.932957
0.930584
0.928636
0.927068
0.925822
0.924832
0.924068
0.923568
0.923409
0.923691
0.924539
0.926042
0.92819
0.930861
0.933925
0.93739
0.940978
0.943915
0.945149
0.944576
0.942946
0.941186
0.940143
0.940488
0.941571
0.941703
0.941027
0.94013
0.93924
0.938508
0.938007
0.937708
0.937519
0.937407
0.937288
0.937071
0.93692
0.93668
0.936066
0.93569
0.935338
0.934295
0.934021
0.93472
0.934395
0.934507
0.93682
0.936495
0.933306
0.93433
0.939466
0.937814
0.932001
0.930188
0.953548
0.953807
0.954291
0.953767
0.952837
0.95227
0.952241
0.952531
0.952871
0.953168
0.953431
0.953659
0.953816
0.953868
0.953806
0.953638
0.953377
0.953036
0.952626
0.952154
0.951624
0.951042
0.950417
0.949761
0.949128
0.948635
0.948266
0.947907
0.947467
0.94688
0.946189
0.94547
0.944829
0.94445
0.944448
0.944789
0.945255
0.94592
0.946244
0.945966
0.94578
0.944487
0.944524
0.944063
0.943033
0.944393
0.942731
0.942234
0.941325
0.940037
0.938384
0.937323
0.937164
0.937228
0.937072
0.93691
0.936928
0.937159
0.937529
0.937947
0.938357
0.938734
0.939069
0.939381
0.939685
0.939999
0.940326
0.940671
0.941025
0.941383
0.941735
0.942077
0.942413
0.94276
0.943121
0.943471
0.943808
0.944139
0.944467
0.944796
0.945122
0.945445
0.945758
0.946057
0.946335
0.946591
0.946824
0.947043
0.94726
0.947491
0.947752
0.948062
0.948444
0.948926
0.949529
0.950254
0.95107
0.951917
0.952735
0.953489
0.954165
0.954807
0.955481
0.956212
0.956831
0.957241
0.957709
0.958262
0.957864
0.956324
0.955228
0.956317
0.958868
0.958178
0.951768
0.946854
0.948921
0.953265
0.954356
0.952564
0.949676
0.947018
0.944414
0.941316
0.937901
0.934689
0.932025
0.929876
0.928171
0.926846
0.925829
0.925041
0.924455
0.924097
0.924025
0.924302
0.924997
0.926142
0.927771
0.930025
0.932831
0.936067
0.939788
0.943257
0.944927
0.944411
0.942649
0.94096
0.940358
0.941212
0.942319
0.942526
0.941926
0.94109
0.940271
0.939588
0.93909
0.938754
0.9385
0.938293
0.938074
0.937767
0.937504
0.937181
0.936521
0.936018
0.935619
0.934643
0.934231
0.934916
0.934961
0.935026
0.937231
0.937472
0.934756
0.935459
0.939658
0.938425
0.932968
0.931102
0.955117
0.955577
0.954706
0.953787
0.953719
0.954005
0.954269
0.954647
0.955128
0.955538
0.955751
0.955745
0.955551
0.955213
0.954764
0.95422
0.953581
0.952841
0.952005
0.951098
0.950173
0.949295
0.948539
0.94801
0.947775
0.947774
0.947974
0.948328
0.948651
0.94867
0.948234
0.947407
0.946304
0.945176
0.944389
0.944207
0.944596
0.945447
0.946199
0.946885
0.947502
0.947206
0.947843
0.946951
0.947219
0.947497
0.948476
0.944684
0.942029
0.939755
0.938261
0.937803
0.938093
0.938521
0.938601
0.938366
0.937954
0.937568
0.937306
0.937219
0.937274
0.937445
0.937693
0.938007
0.938365
0.938762
0.939182
0.939614
0.940042
0.940455
0.940848
0.941222
0.941582
0.941934
0.942276
0.942596
0.942906
0.943226
0.943564
0.943922
0.944299
0.944688
0.945079
0.945458
0.945809
0.946119
0.946381
0.946598
0.946781
0.946947
0.947123
0.947341
0.94764
0.948066
0.94866
0.949442
0.95039
0.951422
0.95241
0.953261
0.953931
0.954484
0.955014
0.955621
0.956159
0.956486
0.956527
0.956988
0.957242
0.956104
0.95478
0.95558
0.958021
0.957602
0.951798
0.947174
0.948876
0.952993
0.954485
0.952496
0.949022
0.946165
0.94355
0.940375
0.936914
0.933838
0.931449
0.929686
0.928396
0.927441
0.926718
0.926114
0.925574
0.925128
0.924835
0.924694
0.924676
0.924868
0.92554
0.926982
0.929019
0.931492
0.935241
0.939786
0.942667
0.942765
0.941107
0.939648
0.939689
0.941253
0.942668
0.943037
0.942444
0.941545
0.940724
0.940114
0.939726
0.939489
0.939278
0.939051
0.938806
0.938475
0.938132
0.937784
0.937216
0.936662
0.936231
0.935398
0.934888
0.935475
0.935879
0.936161
0.938241
0.938928
0.936932
0.937619
0.94054
0.938882
0.934107
0.931292
0.957234
0.956574
0.954882
0.954601
0.954803
0.955154
0.955467
0.955591
0.95555
0.955447
0.955323
0.955157
0.954911
0.954558
0.954083
0.953474
0.95272
0.95182
0.950793
0.949678
0.948535
0.947452
0.946557
0.945969
0.945829
0.946086
0.946487
0.94686
0.947218
0.947555
0.947634
0.947258
0.946501
0.945537
0.94453
0.943869
0.943882
0.944526
0.945511
0.946664
0.947201
0.947536
0.947773
0.947055
0.946826
0.947118
0.945897
0.942746
0.940812
0.939198
0.938454
0.938378
0.938513
0.938519
0.93819
0.937616
0.936961
0.936429
0.936122
0.936078
0.936239
0.936543
0.936915
0.937314
0.937707
0.938088
0.938453
0.938806
0.939155
0.939511
0.93988
0.940261
0.940625
0.940925
0.94118
0.941456
0.941775
0.942134
0.94253
0.94296
0.943419
0.9439
0.944389
0.944861
0.945292
0.94566
0.945951
0.946157
0.946286
0.946359
0.946418
0.946526
0.946745
0.947131
0.947728
0.948556
0.94961
0.95081
0.951994
0.953029
0.953827
0.954447
0.954959
0.955525
0.956132
0.956663
0.956542
0.9562
0.956527
0.955974
0.954609
0.955123
0.957447
0.957257
0.952106
0.947637
0.94903
0.952762
0.954109
0.951754
0.948117
0.945395
0.942773
0.939459
0.936122
0.933453
0.931495
0.930194
0.929281
0.92857
0.927936
0.927258
0.926488
0.925649
0.92472
0.923615
0.922439
0.921728
0.922001
0.923004
0.924003
0.925562
0.92949
0.935601
0.940147
0.941221
0.939764
0.938374
0.938688
0.940719
0.942818
0.943705
0.943333
0.942435
0.941537
0.94085
0.940418
0.940171
0.939969
0.939737
0.939485
0.939185
0.938856
0.938535
0.938065
0.937478
0.936951
0.936137
0.935473
0.936094
0.937092
0.937599
0.939653
0.941131
0.939796
0.939836
0.94229
0.940759
0.936521
0.93228
0.954105
0.95338
0.953216
0.953988
0.954594
0.95458
0.954385
0.954295
0.954301
0.954357
0.954327
0.954034
0.953376
0.952367
0.951111
0.949726
0.948301
0.946888
0.945547
0.944344
0.943335
0.942622
0.942282
0.942232
0.942579
0.943344
0.9442
0.944872
0.945398
0.945938
0.946314
0.946093
0.945221
0.944185
0.943305
0.942783
0.94287
0.943473
0.944333
0.945147
0.945633
0.946353
0.946078
0.94587
0.945642
0.945873
0.943316
0.940958
0.939775
0.938713
0.938212
0.937943
0.93761
0.937211
0.936717
0.936274
0.935978
0.935885
0.935964
0.936162
0.9364
0.936626
0.936799
0.936925
0.93702
0.93712
0.93726
0.93747
0.937766
0.938152
0.938615
0.93911
0.939549
0.939908
0.940277
0.940682
0.941101
0.941517
0.941922
0.942321
0.942718
0.943119
0.943524
0.943925
0.944307
0.94465
0.944942
0.945186
0.945396
0.94559
0.945788
0.94602
0.946313
0.946692
0.947203
0.9479
0.948849
0.950019
0.951223
0.95228
0.953063
0.953641
0.954065
0.954611
0.95551
0.956476
0.957113
0.956572
0.956484
0.956521
0.955206
0.955134
0.95709
0.956827
0.952148
0.947801
0.948817
0.952245
0.953319
0.9507
0.947144
0.944663
0.941987
0.938651
0.935813
0.933768
0.932155
0.931038
0.930262
0.92959
0.928909
0.928077
0.926946
0.925388
0.923323
0.920887
0.918682
0.91766
0.91834
0.919764
0.920384
0.921483
0.925743
0.933094
0.938888
0.940891
0.939635
0.93819
0.938529
0.940616
0.943055
0.9443
0.944184
0.94349
0.942766
0.942174
0.941744
0.941431
0.941131
0.940794
0.940459
0.940127
0.939777
0.939403
0.938892
0.938216
0.93753
0.936731
0.936205
0.936932
0.93847
0.939497
0.941538
0.943363
0.942991
0.942462
0.94445
0.943182
0.939425
0.934522
0.954291
0.954174
0.954257
0.95439
0.95416
0.953835
0.953772
0.953852
0.953842
0.95356
0.952773
0.951413
0.949632
0.947666
0.9457
0.943822
0.942037
0.940346
0.938812
0.937543
0.936675
0.93639
0.936777
0.937548
0.938376
0.939278
0.9402
0.940988
0.941708
0.942562
0.943328
0.943581
0.943296
0.942753
0.942173
0.941864
0.942046
0.94252
0.943148
0.943829
0.944446
0.944793
0.944219
0.944038
0.944224
0.944271
0.941603
0.939956
0.939014
0.938033
0.937454
0.936968
0.93653
0.936256
0.936093
0.936092
0.936179
0.936288
0.93634
0.936305
0.936185
0.936016
0.935842
0.935714
0.935674
0.93576
0.935995
0.93639
0.93693
0.937576
0.938253
0.9389
0.939534
0.940154
0.9407
0.941156
0.941527
0.941823
0.942065
0.942269
0.942449
0.942624
0.942824
0.943076
0.943378
0.943704
0.944037
0.94438
0.944758
0.945157
0.945519
0.945799
0.945989
0.946141
0.946383
0.946854
0.947715
0.949004
0.950476
0.951808
0.952724
0.953234
0.953536
0.954079
0.95544
0.956695
0.957649
0.957518
0.956895
0.957221
0.956449
0.955947
0.957569
0.95726
0.95236
0.947329
0.947272
0.950338
0.951504
0.949205
0.946144
0.94405
0.941381
0.938198
0.935965
0.934456
0.93304
0.931762
0.93093
0.930301
0.929652
0.928634
0.926844
0.924075
0.92058
0.917142
0.91473
0.91408
0.915499
0.918013
0.91922
0.919561
0.923232
0.930832
0.937834
0.940932
0.939762
0.938155
0.938807
0.94166
0.944601
0.945706
0.945237
0.944409
0.943793
0.943387
0.943133
0.942928
0.942635
0.94222
0.94177
0.941338
0.940876
0.940364
0.939788
0.939095
0.938329
0.937543
0.937173
0.938003
0.939963
0.941592
0.943632
0.945445
0.945964
0.945293
0.9466
0.945899
0.942828
0.937902
0.955372
0.954942
0.954791
0.954781
0.954646
0.954538
0.954435
0.954163
0.953677
0.952836
0.951529
0.949925
0.948242
0.946623
0.945113
0.943641
0.942113
0.940504
0.938908
0.937453
0.936254
0.935598
0.935694
0.936156
0.936466
0.93684
0.937539
0.938375
0.939304
0.940368
0.941147
0.941285
0.940967
0.940537
0.940171
0.940065
0.940298
0.940728
0.941364
0.942106
0.942597
0.942479
0.942485
0.942628
0.943158
0.942423
0.940328
0.939162
0.93825
0.937255
0.936679
0.936208
0.935963
0.935941
0.935997
0.936083
0.936077
0.935965
0.935757
0.935512
0.935288
0.935142
0.935102
0.93518
0.935374
0.935678
0.936086
0.936588
0.937167
0.937783
0.938392
0.938982
0.939569
0.940116
0.940553
0.940871
0.94111
0.941311
0.941508
0.941724
0.941969
0.942248
0.94258
0.942975
0.943412
0.943841
0.944205
0.944471
0.944635
0.944689
0.94463
0.94451
0.944411
0.944411
0.944651
0.945264
0.946342
0.947915
0.949767
0.951458
0.952636
0.953254
0.953662
0.954351
0.956172
0.958103
0.959001
0.959131
0.958268
0.958307
0.958179
0.957461
0.958878
0.959265
0.954602
0.948535
0.946468
0.948491
0.949705
0.947891
0.945564
0.943864
0.941197
0.938187
0.936353
0.935128
0.933785
0.932349
0.931365
0.930836
0.930221
0.92879
0.92596
0.921748
0.917148
0.913592
0.911884
0.912023
0.91399
0.917359
0.918566
0.917023
0.919217
0.926878
0.935759
0.940155
0.939277
0.937649
0.938589
0.942306
0.94659
0.948081
0.947158
0.945826
0.945045
0.944625
0.944373
0.944183
0.943884
0.943432
0.942929
0.942442
0.941931
0.941385
0.940845
0.940203
0.939298
0.938359
0.938091
0.939179
0.941504
0.943589
0.945666
0.947395
0.948338
0.94788
0.948253
0.948081
0.946118
0.941846
0.957076
0.95696
0.956979
0.956852
0.956488
0.956166
0.955839
0.955504
0.955049
0.954212
0.953089
0.951958
0.950847
0.949784
0.948753
0.947602
0.946209
0.944587
0.942866
0.9412
0.939736
0.938704
0.938259
0.938317
0.938536
0.938679
0.938847
0.938961
0.939114
0.939458
0.939614
0.939305
0.938695
0.938062
0.937659
0.937661
0.938067
0.938752
0.93963
0.940485
0.941033
0.941286
0.941865
0.942224
0.942202
0.940794
0.939293
0.938272
0.937352
0.936438
0.935948
0.935557
0.935453
0.935485
0.935528
0.935546
0.935493
0.93543
0.935393
0.935423
0.935517
0.935658
0.935812
0.935944
0.93603
0.936074
0.93612
0.936229
0.936448
0.936787
0.937223
0.937669
0.938063
0.938462
0.938862
0.939227
0.939553
0.939867
0.940218
0.940652
0.941189
0.941827
0.942539
0.943279
0.943991
0.944599
0.945015
0.945161
0.945014
0.944671
0.944307
0.944097
0.944174
0.944577
0.945309
0.94645
0.947884
0.949474
0.951148
0.952624
0.953796
0.95456
0.95484
0.955258
0.956546
0.958613
0.959922
0.960295
0.959762
0.959636
0.959899
0.959232
0.960346
0.961706
0.958444
0.952644
0.949531
0.950014
0.950123
0.948044
0.946118
0.944462
0.941545
0.938533
0.936836
0.93569
0.934366
0.932899
0.931739
0.93124
0.930509
0.928445
0.924457
0.919044
0.914071
0.911294
0.910789
0.911141
0.912337
0.915841
0.917206
0.914283
0.915263
0.923366
0.933764
0.93874
0.938374
0.937099
0.938146
0.942292
0.948065
0.950253
0.949057
0.947493
0.9466
0.946163
0.945854
0.945545
0.945087
0.944494
0.943916
0.943425
0.942945
0.942444
0.94199
0.941335
0.940103
0.938976
0.939011
0.940509
0.943088
0.945503
0.947687
0.949528
0.950688
0.950667
0.950363
0.950064
0.948769
0.945385
0.959593
0.959334
0.959223
0.958965
0.958626
0.95858
0.958562
0.958428
0.958021
0.95718
0.956161
0.955185
0.95427
0.953428
0.952562
0.95149
0.950106
0.948449
0.946684
0.944979
0.943429
0.942192
0.941464
0.941326
0.941512
0.941667
0.941724
0.941613
0.941329
0.940937
0.940462
0.939964
0.939559
0.939371
0.939484
0.939921
0.940597
0.941312
0.941937
0.942299
0.942225
0.942106
0.941883
0.941534
0.940904
0.939516
0.938166
0.937165
0.936249
0.935495
0.935093
0.934799
0.934807
0.934909
0.935076
0.935291
0.93554
0.935839
0.936151
0.936432
0.936619
0.936661
0.93652
0.936198
0.935752
0.9353
0.934991
0.93493
0.935142
0.935595
0.936225
0.936888
0.937472
0.938057
0.938613
0.939052
0.939362
0.939591
0.939824
0.940148
0.940618
0.941247
0.94201
0.942851
0.943697
0.944461
0.945042
0.945367
0.945444
0.945411
0.945498
0.945823
0.946403
0.947223
0.948118
0.949053
0.949992
0.950915
0.951999
0.953508
0.955303
0.956459
0.956217
0.95582
0.956354
0.957929
0.959844
0.960844
0.960736
0.960672
0.961247
0.960941
0.961576
0.963463
0.962017
0.957591
0.9546
0.953715
0.952192
0.949592
0.947763
0.94582
0.942395
0.939164
0.937432
0.936263
0.934899
0.933407
0.932172
0.931511
0.930483
0.927745
0.922796
0.916687
0.911994
0.91044
0.91086
0.910508
0.910356
0.913884
0.916611
0.913394
0.913164
0.921721
0.932961
0.937955
0.937901
0.937349
0.938198
0.942037
0.948828
0.952355
0.950492
0.948743
0.947985
0.947574
0.947271
0.946956
0.946427
0.945728
0.945074
0.944551
0.94408
0.943626
0.943208
0.942347
0.940753
0.939614
0.940056
0.941944
0.944693
0.947412
0.949776
0.95175
0.952988
0.953327
0.952811
0.952144
0.951066
0.948298
0.962187
0.961983
0.961973
0.961773
0.961427
0.96125
0.961076
0.960791
0.960225
0.959356
0.958381
0.957396
0.956461
0.955629
0.954862
0.954029
0.952993
0.951722
0.950294
0.948792
0.947286
0.94595
0.944986
0.944451
0.944272
0.94436
0.944548
0.944716
0.944802
0.944768
0.944646
0.944507
0.944421
0.944482
0.944684
0.944852
0.944863
0.944587
0.943971
0.943014
0.94188
0.940819
0.939736
0.939087
0.938714
0.937794
0.936562
0.935725
0.934933
0.934406
0.934132
0.934029
0.934237
0.934557
0.935018
0.935564
0.936135
0.936643
0.936984
0.937108
0.937002
0.936685
0.936194
0.935611
0.93508
0.934747
0.934671
0.934832
0.935192
0.935715
0.936374
0.93719
0.938151
0.938976
0.939525
0.939793
0.939824
0.939725
0.939635
0.939674
0.939916
0.940374
0.941019
0.941796
0.942635
0.943451
0.944157
0.944738
0.945243
0.945665
0.946128
0.946688
0.947222
0.947666
0.947953
0.948055
0.948186
0.948749
0.950217
0.952946
0.95611
0.957674
0.956896
0.955857
0.956436
0.95811
0.960446
0.962047
0.962158
0.961653
0.961977
0.962045
0.962194
0.963892
0.964001
0.96148
0.958943
0.956679
0.953925
0.951336
0.949724
0.947521
0.943599
0.940058
0.938207
0.93696
0.935479
0.933909
0.932631
0.931677
0.930218
0.926965
0.921425
0.915161
0.911148
0.910705
0.911369
0.910123
0.908847
0.912753
0.917136
0.913504
0.912176
0.921232
0.933126
0.938436
0.938652
0.938763
0.939411
0.94237
0.949189
0.954117
0.951723
0.949391
0.949098
0.948898
0.948544
0.948229
0.947709
0.946973
0.946259
0.945711
0.945259
0.944844
0.944425
0.943294
0.941412
0.940329
0.941129
0.943406
0.946369
0.949298
0.951782
0.953821
0.955069
0.955509
0.954898
0.953861
0.952853
0.95061
0.964773
0.96458
0.96445
0.964125
0.963695
0.963452
0.96322
0.962813
0.962062
0.960923
0.959525
0.958029
0.95659
0.955338
0.954305
0.9534
0.952483
0.951462
0.95033
0.949157
0.948039
0.947038
0.946198
0.945573
0.945212
0.945116
0.945184
0.94522
0.94503
0.944603
0.944029
0.943415
0.942792
0.942191
0.941596
0.940954
0.940192
0.939211
0.93808
0.936948
0.935827
0.934904
0.934789
0.935501
0.935975
0.935466
0.934645
0.934113
0.933578
0.933317
0.933226
0.933373
0.933803
0.934362
0.93508
0.93584
0.936516
0.936953
0.937086
0.936976
0.936743
0.936491
0.936272
0.936106
0.935998
0.935927
0.935849
0.935753
0.935682
0.935749
0.936139
0.936897
0.937806
0.938549
0.938994
0.939132
0.938997
0.938703
0.938437
0.938375
0.938615
0.93917
0.939965
0.940913
0.941909
0.942862
0.943712
0.944441
0.945076
0.945547
0.945871
0.946139
0.946379
0.946581
0.946729
0.946858
0.947238
0.948307
0.950432
0.953756
0.957343
0.959029
0.958157
0.957031
0.957842
0.959713
0.961795
0.963518
0.963834
0.962989
0.962588
0.962634
0.962395
0.963395
0.964505
0.963476
0.961119
0.958032
0.954896
0.952701
0.951466
0.949238
0.945029
0.941199
0.939189
0.937832
0.936193
0.934497
0.93314
0.931898
0.929962
0.926386
0.920611
0.914611
0.911378
0.911433
0.911944
0.910004
0.907577
0.912383
0.918061
0.91407
0.912305
0.921884
0.933979
0.939628
0.940091
0.940479
0.941496
0.944006
0.950132
0.955104
0.952803
0.949441
0.949822
0.950269
0.949915
0.949507
0.948895
0.948048
0.94729
0.94677
0.946351
0.945988
0.94554
0.944167
0.942067
0.941101
0.942285
0.944927
0.948087
0.951148
0.953692
0.95574
0.956978
0.957338
0.956585
0.955223
0.954062
0.952244
0.967222
0.967045
0.966874
0.966571
0.966138
0.965752
0.965336
0.964726
0.963761
0.962411
0.960757
0.958893
0.956915
0.954934
0.953053
0.951335
0.949772
0.948324
0.946964
0.945692
0.944564
0.943666
0.943029
0.942635
0.94245
0.94236
0.942186
0.941772
0.941041
0.939981
0.938618
0.93707
0.935458
0.933904
0.932497
0.931312
0.930311
0.929503
0.929004
0.928891
0.929237
0.930286
0.93194
0.933431
0.933938
0.933556
0.933129
0.932801
0.932497
0.932413
0.932463
0.932782
0.933338
0.934043
0.934905
0.935755
0.93642
0.936745
0.936785
0.936752
0.936848
0.937105
0.937366
0.937407
0.937071
0.936332
0.935328
0.9343
0.933495
0.933091
0.933227
0.933831
0.934566
0.935342
0.936097
0.93668
0.936966
0.93696
0.936843
0.936869
0.937195
0.937861
0.938818
0.939985
0.941252
0.942568
0.943883
0.945085
0.946025
0.946706
0.947179
0.947559
0.947986
0.948506
0.949089
0.949747
0.950673
0.952094
0.954126
0.956692
0.959054
0.960024
0.959467
0.959082
0.960169
0.961873
0.963098
0.964084
0.964415
0.963958
0.963241
0.963051
0.962815
0.96316
0.964488
0.964349
0.962036
0.958657
0.955592
0.953787
0.952909
0.950869
0.946623
0.942565
0.940358
0.938883
0.937092
0.935257
0.933824
0.932426
0.930144
0.926236
0.920475
0.914848
0.912188
0.912258
0.912737
0.910202
0.906898
0.912466
0.919011
0.915312
0.913768
0.923521
0.935252
0.940821
0.941373
0.941661
0.943381
0.94647
0.951807
0.955427
0.953056
0.94909
0.950145
0.951604
0.951366
0.950805
0.950054
0.94909
0.948313
0.947829
0.947435
0.947125
0.946571
0.944964
0.942763
0.942035
0.943606
0.946534
0.949834
0.952965
0.95553
0.95751
0.95864
0.958795
0.957787
0.956136
0.954731
0.953231
0.969388
0.969269
0.969071
0.968701
0.968175
0.967693
0.967204
0.966561
0.965639
0.96439
0.96282
0.960977
0.958927
0.956757
0.954568
0.952463
0.950511
0.94873
0.947095
0.945612
0.944365
0.943475
0.942976
0.942772
0.94267
0.942474
0.942073
0.94143
0.940532
0.939392
0.938017
0.936398
0.934591
0.932754
0.931062
0.929652
0.9286
0.928043
0.928095
0.928759
0.929961
0.931474
0.932802
0.933447
0.933314
0.932858
0.932485
0.932141
0.931901
0.931841
0.931932
0.9323
0.932868
0.93361
0.934514
0.935391
0.93603
0.936313
0.936403
0.936581
0.936997
0.937459
0.937545
0.936935
0.935576
0.933689
0.931708
0.930089
0.929145
0.928935
0.929239
0.929775
0.930452
0.931412
0.932685
0.934033
0.93515
0.935849
0.936225
0.936542
0.937039
0.937798
0.938783
0.939891
0.941045
0.942308
0.94374
0.945266
0.946683
0.947866
0.948813
0.949633
0.950454
0.951299
0.952097
0.952824
0.953613
0.954634
0.95595
0.957551
0.959029
0.959569
0.959179
0.959511
0.961275
0.96318
0.964148
0.964576
0.964661
0.964415
0.963893
0.963534
0.963436
0.963571
0.964617
0.964943
0.962938
0.959598
0.956558
0.954841
0.954151
0.952429
0.948365
0.94414
0.941698
0.940118
0.938237
0.936309
0.934837
0.933375
0.930926
0.926788
0.921064
0.915588
0.91318
0.913175
0.913959
0.911085
0.907395
0.913202
0.920025
0.916886
0.916096
0.92581
0.936676
0.941695
0.942386
0.942677
0.944845
0.948623
0.953468
0.955659
0.952388
0.948385
0.950032
0.95281
0.952895
0.952057
0.951155
0.950152
0.949407
0.948951
0.948595
0.948318
0.947592
0.945717
0.943527
0.943145
0.945069
0.948213
0.951622
0.954767
0.957277
0.959118
0.960038
0.959877
0.958469
0.956466
0.954753
0.953524
0.971431
0.97132
0.971027
0.970615
0.970081
0.969525
0.968971
0.968337
0.967512
0.966447
0.96516
0.963673
0.961979
0.960119
0.958203
0.956353
0.954669
0.95317
0.951789
0.950461
0.949211
0.948111
0.947202
0.946457
0.945863
0.945409
0.945052
0.944789
0.944544
0.944131
0.943376
0.942233
0.940813
0.939279
0.937804
0.936521
0.935533
0.934934
0.934742
0.934862
0.93512
0.935279
0.935122
0.934608
0.933904
0.933247
0.932694
0.932228
0.931924
0.93178
0.931826
0.932124
0.9326
0.933236
0.93403
0.934847
0.935417
0.935634
0.935695
0.935876
0.936265
0.936464
0.935974
0.934581
0.932414
0.929895
0.927644
0.926194
0.925704
0.926013
0.926712
0.927393
0.928164
0.929195
0.930635
0.93249
0.934269
0.935507
0.936241
0.93679
0.93748
0.938464
0.939683
0.940963
0.942183
0.943304
0.944354
0.945372
0.94636
0.94726
0.948039
0.948767
0.949554
0.950418
0.951263
0.952035
0.952852
0.953895
0.955154
0.956588
0.958162
0.959213
0.95923
0.959486
0.961176
0.963267