/*--------------------------------*- C++ -*----------------------------------*\
  =========                 |
  \\      /  F ield         | OpenFOAM: The Open Source CFD Toolbox
   \\    /   O peration     | Website:  https://openfoam.org
    \\  /    A nd           | Version:  10
     \\/     M anipulation  |
\*---------------------------------------------------------------------------*/
FoamFile
{
    format      ascii;
    class       volScalarField;
    location    "12300";
    object      p;
}
// * * * * * * * * * * * * * * * * * * * * * * * * * * * * * * * * * * * * * //

dimensions      [1 -1 -2 0 0 0 0];

internalField   nonuniform List<scalar> 
6400
(
111.274
111.287
111.314
111.355
111.41
111.48
111.565
111.665
111.783
111.918
112.073
112.25
112.45
112.678
112.936
113.232
113.574
113.976
114.458
115.056
167.368
471.661
750.655
1052.04
1344.51
1621.53
1877.25
2125.29
2367.14
2605.9
2841.07
3071.21
3230.04
3324.05
3412.77
3493.98
3564.92
3622.37
3663
3684.1
3684.1
3663
3622.37
3564.92
3493.98
3412.77
3324.05
3230.04
3071.21
2841.07
2605.9
2367.14
2125.29
1877.25
1621.53
1344.51
1052.04
750.655
471.661
167.368
115.056
114.458
113.976
113.574
113.232
112.936
112.678
112.45
112.25
112.073
111.918
111.783
111.665
111.565
111.48
111.41
111.355
111.314
111.287
111.274
110.979
110.993
111.02
111.061
111.116
111.185
111.27
111.37
111.488
111.623
111.778
111.955
112.155
112.382
112.641
112.936
113.278
113.678
114.16
114.767
115.812
179.214
455.479
758.318
1051.13
1328.44
1583.57
1831.54
2073.26
2312.05
2547.28
2777.67
2936.88
3031.25
3120.46
3202.31
3273.98
3332.17
3373.43
3394.87
3394.87
3373.43
3332.17
3273.98
3202.31
3120.46
3031.25
2936.88
2777.67
2547.28
2312.05
2073.26
1831.54
1583.57
1328.44
1051.13
758.318
455.479
179.214
115.812
114.767
114.16
113.678
113.278
112.936
112.641
112.382
112.155
111.955
111.778
111.623
111.488
111.37
111.27
111.185
111.116
111.061
111.02
110.993
110.979
110.655
110.669
110.696
110.737
110.792
110.861
110.946
111.046
111.164
111.299
111.454
111.63
111.83
112.057
112.315
112.609
112.95
113.348
113.826
114.428
115.332
115.936
129.707
436.487
730.069
1008.1
1261.77
1509.65
1751.05
1989.92
2225.3
2456.23
2616.32
2711.52
2801.88
2885.19
2958.58
3018.54
3061.27
3083.55
3083.55
3061.27
3018.54
2958.58
2885.19
2801.88
2711.52
2616.32
2456.23
2225.3
1989.92
1751.05
1509.65
1261.77
1008.1
730.069
436.487
129.707
115.936
115.332
114.428
113.826
113.348
112.95
112.609
112.315
112.057
111.83
111.63
111.454
111.299
111.164
111.046
110.946
110.861
110.792
110.737
110.696
110.669
110.655
110.299
110.313
110.34
110.381
110.435
110.505
110.589
110.69
110.807
110.942
111.096
111.272
111.471
111.698
111.954
112.248
112.586
112.98
113.451
114.037
114.829
115.427
116.078
117.209
378.929
658.309
909.112
1156.95
1397.76
1636.78
1872.4
2104.26
2265.82
2362.44
2454.81
2540.69
2617.15
2680.31
2725.73
2749.54
2749.54
2725.73
2680.31
2617.15
2540.69
2454.81
2362.44
2265.82
2104.26
1872.4
1636.78
1397.76
1156.95
909.112
658.309
378.929
117.209
116.078
115.427
114.829
114.037
113.451
112.98
112.586
112.248
111.954
111.698
111.471
111.272
111.096
110.942
110.807
110.69
110.589
110.505
110.435
110.381
110.34
110.313
110.299
109.908
109.921
109.948
109.989
110.044
110.113
110.197
110.297
110.414
110.549
110.703
110.878
111.076
111.301
111.557
111.848
112.183
112.571
113.032
113.594
114.292
114.864
115.411
115.539
115.526
278.671
522.432
770.57
1010.33
1249.67
1485.6
1718.85
1882.52
1981.29
2076.79
2166.68
2248.08
2316.56
2366.49
2392.86
2392.86
2366.49
2316.56
2248.08
2166.68
2076.79
1981.29
1882.52
1718.85
1485.6
1249.67
1010.33
770.57
522.432
278.671
115.526
115.539
115.411
114.864
114.292
113.594
113.032
112.571
112.183
111.848
111.557
111.301
111.076
110.878
110.703
110.549
110.414
110.297
110.197
110.113
110.044
109.989
109.948
109.921
109.908
109.477
109.491
109.518
109.558
109.613
109.682
109.766
109.866
109.982
110.116
110.269
110.443
110.641
110.864
111.117
111.405
111.735
112.117
112.563
113.094
113.714
114.249
114.719
114.879
114.854
114.773
116.129
347.706
585.29
825.324
1061.55
1296.75
1463.08
1564.88
1664.98
1760.72
1849.68
1926.74
1984.06
2014.6
2014.6
1984.06
1926.74
1849.68
1760.72
1664.98
1564.88
1463.08
1296.75
1061.55
825.324
585.29
347.706
116.129
114.773
114.854
114.879
114.719
114.249
113.714
113.094
112.563
112.117
111.735
111.405
111.117
110.864
110.641
110.443
110.269
110.116
109.982
109.866
109.766
109.682
109.613
109.558
109.518
109.491
109.477
109.003
109.017
109.044
109.084
109.138
109.207
109.291
109.39
109.506
109.639
109.791
109.964
110.16
110.381
110.632
110.915
111.239
111.61
112.04
112.537
113.09
113.582
113.993
114.175
114.205
114.205
114.476
114.307
118.214
360.313
596.526
834.371
1003.46
1109.28
1216.03
1319.66
1419.98
1511.02
1580.55
1617.87
1617.87
1580.55
1511.02
1419.98
1319.66
1216.03
1109.28
1003.46
834.371
596.526
360.313
118.214
114.307
114.476
114.205
114.205
114.175
113.993
113.582
113.09
112.537
112.04
111.61
111.239
110.915
110.632
110.381
110.16
109.964
109.791
109.639
109.506
109.39
109.291
109.207
109.138
109.084
109.044
109.017
109.003
108.482
108.495
108.522
108.562
108.616
108.685
108.768
108.866
108.981
109.114
109.265
109.436
109.629
109.848
110.094
110.373
110.689
111.048
111.457
111.918
112.413
112.861
113.227
113.422
113.496
113.547
113.727
113.696
113.993
113.721
115.889
328.663
498.561
609.533
726.447
838.927
955.901
1070.8
1161.23
1209.61
1209.61
1161.23
1070.8
955.901
838.927
726.447
609.533
498.561
328.663
115.889
113.721
113.993
113.696
113.727
113.547
113.496
113.422
113.227
112.861
112.413
111.918
111.457
111.048
110.689
110.373
110.094
109.848
109.629
109.436
109.265
109.114
108.981
108.866
108.768
108.685
108.616
108.562
108.522
108.495
108.482
107.908
107.921
107.948
107.988
108.041
108.109
108.192
108.289
108.403
108.534
108.683
108.853
109.044
109.258
109.5
109.772
110.078
110.422
110.809
111.235
111.678
112.084
112.414
112.616
112.723
112.805
112.94
112.975
113.144
113.039
113.2
112.925
113.108
119.74
203.303
313.497
453.65
611.468
738.723
804.621
804.621
738.723
611.468
453.65
313.497
203.303
119.74
113.108
112.925
113.2
113.039
113.144
112.975
112.94
112.805
112.723
112.616
112.414
112.084
111.678
111.235
110.809
110.422
110.078
109.772
109.5
109.258
109.044
108.853
108.683
108.534
108.403
108.289
108.192
108.109
108.041
107.988
107.948
107.921
107.908
107.276
107.289
107.315
107.355
107.408
107.475
107.557
107.653
107.766
107.895
108.042
108.209
108.396
108.607
108.842
109.106
109.401
109.729
110.091
110.481
110.879
111.245
111.546
111.751
111.88
111.98
112.094
112.159
112.265
112.24
112.306
112.178
112.234
112.234
112.105
112.091
115.52
184.988
350.55
436.989
436.989
350.55
184.988
115.52
112.091
112.105
112.234
112.234
112.178
112.306
112.24
112.265
112.159
112.094
111.98
111.88
111.751
111.546
111.245
110.879
110.481
110.091
109.729
109.401
109.106
108.842
108.607
108.396
108.209
108.042
107.895
107.766
107.653
107.557
107.475
107.408
107.355
107.315
107.289
107.276
106.58
106.593
106.619
106.658
106.71
106.776
106.857
106.952
107.063
107.19
107.335
107.498
107.681
107.886
108.115
108.369
108.65
108.96
109.297
109.653
110.01
110.34
110.615
110.819
110.961
111.073
111.178
111.254
111.332
111.342
111.371
111.311
111.316
111.302
111.258
111.234
111.217
111.542
143.13
194.557
194.557
143.13
111.542
111.217
111.234
111.258
111.302
111.316
111.311
111.371
111.342
111.332
111.254
111.178
111.073
110.961
110.819
110.615
110.34
110.01
109.653
109.297
108.96
108.65
108.369
108.115
107.886
107.681
107.498
107.335
107.19
107.063
106.952
106.857
106.776
106.71
106.658
106.619
106.593
106.58
105.813
105.825
105.851
105.889
105.941
106.006
106.085
106.179
106.288
106.412
106.554
106.713
106.891
107.089
107.31
107.553
107.82
108.11
108.421
108.744
109.065
109.362
109.615
109.813
109.962
110.08
110.182
110.261
110.326
110.352
110.369
110.342
110.333
110.321
110.301
110.286
110.276
110.284
113.397
126.924
126.924
113.397
110.284
110.276
110.286
110.301
110.321
110.333
110.342
110.369
110.352
110.326
110.261
110.182
110.08
109.962
109.813
109.615
109.362
109.065
108.744
108.421
108.11
107.82
107.553
107.31
107.089
106.891
106.713
106.554
106.412
106.288
106.179
106.085
106.006
105.941
105.889
105.851
105.825
105.813
104.967
104.979
105.004
105.042
105.093
105.157
105.234
105.326
105.432
105.553
105.691
105.845
106.017
106.208
106.419
106.65
106.901
107.171
107.456
107.748
108.036
108.304
108.536
108.726
108.876
108.997
109.097
109.176
109.236
109.269
109.285
109.275
109.265
109.257
109.246
109.235
109.227
109.22
109.594
115.112
115.112
109.594
109.22
109.227
109.235
109.246
109.257
109.265
109.275
109.285
109.269
109.236
109.176
109.097
108.997
108.876
108.726
108.536
108.304
108.036
107.748
107.456
107.171
106.901
106.65
106.419
106.208
106.017
105.845
105.691
105.553
105.432
105.326
105.234
105.157
105.093
105.042
105.004
104.979
104.967
104.034
104.047
104.071
104.108
104.157
104.22
104.295
104.384
104.487
104.605
104.738
104.887
105.052
105.234
105.434
105.651
105.885
106.134
106.394
106.658
106.916
107.157
107.37
107.549
107.697
107.817
107.915
107.993
108.052
108.088
108.107
108.107
108.1
108.094
108.087
108.079
108.071
108.064
108.048
111.179
111.179
108.048
108.064
108.071
108.079
108.087
108.094
108.1
108.107
108.107
108.088
108.052
107.993
107.915
107.817
107.697
107.549
107.37
107.157
106.916
106.658
106.394
106.134
105.885
105.651
105.434
105.234
105.052
104.887
104.738
104.605
104.487
104.384
104.295
104.22
104.157
104.108
104.071
104.047
104.034
103.006
103.018
103.041
103.077
103.125
103.186
103.259
103.345
103.444
103.558
103.685
103.827
103.985
104.157
104.345
104.548
104.764
104.992
105.228
105.465
105.696
105.912
106.107
106.275
106.416
106.533
106.629
106.705
106.763
106.801
106.823
106.829
106.826
106.822
106.817
106.811
106.804
106.796
106.776
109.191
109.191
106.776
106.796
106.804
106.811
106.817
106.822
106.826
106.829
106.823
106.801
106.763
106.705
106.629
106.533
106.416
106.275
106.107
105.912
105.696
105.465
105.228
104.992
104.764
104.548
104.345
104.157
103.985
103.827
103.685
103.558
103.444
103.345
103.259
103.186
103.125
103.077
103.041
103.018
103.006
101.87
101.882
101.905
101.94
101.986
102.044
102.114
102.197
102.292
102.401
102.522
102.657
102.805
102.967
103.142
103.329
103.528
103.735
103.947
104.16
104.366
104.56
104.736
104.892
105.025
105.137
105.23
105.304
105.36
105.4
105.424
105.434
105.433
105.431
105.427
105.422
105.415
105.408
105.388
107.661
107.661
105.388
105.408
105.415
105.422
105.427
105.431
105.433
105.434
105.424
105.4
105.36
105.304
105.23
105.137
105.025
104.892
104.736
104.56
104.366
104.16
103.947
103.735
103.528
103.329
103.142
102.967
102.805
102.657
102.522
102.401
102.292
102.197
102.114
102.044
101.986
101.94
101.905
101.882
101.87
100.538
100.549
100.571
100.604
100.648
100.704
100.771
100.849
100.939
101.041
101.155
101.281
101.419
101.569
101.73
101.901
102.08
102.265
102.454
102.641
102.824
102.996
103.154
103.295
103.418
103.523
103.611
103.682
103.737
103.776
103.802
103.814
103.816
103.815
103.812
103.807
103.801
103.793
103.773
106.054
106.054
103.773
103.793
103.801
103.807
103.812
103.815
103.816
103.814
103.802
103.776
103.737
103.682
103.611
103.523
103.418
103.295
103.154
102.996
102.824
102.641
102.454
102.265
102.08
101.901
101.73
101.569
101.419
101.281
101.155
101.041
100.939
100.849
100.771
100.704
100.648
100.604
100.571
100.549
100.538
99.0571
99.0675
99.0883
99.1195
99.1612
99.2136
99.2765
99.3502
99.4346
99.5298
99.6357
99.7523
99.8792
100.016
100.162
100.316
100.476
100.641
100.807
100.972
101.132
101.284
101.425
101.552
101.664
101.761
101.842
101.909
101.961
102
102.025
102.039
102.041
102.04
102.038
102.034
102.027
102.02
101.999
104.335
104.335
101.999
102.02
102.027
102.034
102.038
102.04
102.041
102.039
102.025
102
101.961
101.909
101.842
101.761
101.664
101.552
101.425
101.284
101.132
100.972
100.807
100.641
100.476
100.316
100.162
100.016
99.8792
99.7523
99.6357
99.5298
99.4346
99.3502
99.2765
99.2136
99.1612
99.1195
99.0883
99.0675
99.0571
97.5658
97.5756
97.5952
97.6245
97.6638
97.7128
97.7718
97.8406
97.9192
98.0075
98.1055
98.2128
98.3291
98.4537
98.5859
98.7245
98.868
99.0147
99.1622
99.308
99.4495
99.5839
99.709
99.8229
99.9245
100.013
100.088
100.15
100.199
100.236
100.261
100.274
100.277
100.276
100.274
100.269
100.263
100.255
100.235
102.636
102.636
100.235
100.255
100.263
100.269
100.274
100.276
100.277
100.274
100.261
100.236
100.199
100.15
100.088
100.013
99.9245
99.8229
99.709
99.5839
99.4495
99.308
99.1622
99.0147
98.868
98.7245
98.5859
98.4537
98.3291
98.2128
98.1055
98.0075
97.9192
97.8406
97.7718
97.7128
97.6638
97.6245
97.5952
97.5756
97.5658
96.0647
96.0739
96.0923
96.1198
96.1564
96.2022
96.2572
96.3211
96.394
96.4757
96.566
96.6644
96.7706
96.884
97.0035
97.1283
97.2569
97.3877
97.5188
97.6481
97.7736
97.893
98.0045
98.1067
98.1983
98.2787
98.3475
98.4046
98.4501
98.4842
98.5074
98.52
98.5219
98.5212
98.5186
98.5141
98.5078
98.4996
98.4792
100.953
100.953
98.4792
98.4996
98.5078
98.5141
98.5186
98.5212
98.5219
98.52
98.5074
98.4842
98.4501
98.4046
98.3475
98.2787
98.1983
98.1067
98.0045
97.893
97.7736
97.6481
97.5188
97.3877
97.2569
97.1283
97.0035
96.884
96.7706
96.6644
96.566
96.4757
96.394
96.3211
96.2572
96.2022
96.1564
96.1198
96.0923
96.0739
96.0647
94.5545
94.5631
94.5802
94.6058
94.64
94.6826
94.7335
94.7928
94.8601
94.9354
95.0182
95.1083
95.2051
95.3079
95.416
95.5283
95.6435
95.7604
95.8771
95.9922
96.1037
96.2099
96.3095
96.401
96.4834
96.5561
96.6185
96.6706
96.7121
96.7434
96.7645
96.7758
96.777
96.7759
96.773
96.7683
96.7618
96.7535
96.733
99.2866
99.2866
96.733
96.7535
96.7618
96.7683
96.773
96.7759
96.777
96.7758
96.7645
96.7434
96.7121
96.6706
96.6185
96.5561
96.4834
96.401
96.3095
96.2099
96.1037
95.9922
95.8771
95.7604
95.6435
95.5283
95.416
95.3079
95.2051
95.1083
95.0182
94.9354
94.8601
94.7928
94.7335
94.6826
94.64
94.6058
94.5802
94.5631
94.5545
93.0357
93.0437
93.0596
93.0834
93.115
93.1545
93.2016
93.2563
93.3183
93.3874
93.4632
93.5454
93.6335
93.7267
93.8243
93.9253
94.0286
94.1331
94.2372
94.3397
94.439
94.5337
94.6225
94.7043
94.7782
94.8436
94.8999
94.947
94.9845
95.0127
95.0314
95.041
95.0414
95.0399
95.0367
95.0317
95.0249
95.0165
94.996
97.6366
97.6366
94.996
95.0165
95.0249
95.0317
95.0367
95.0399
95.0414
95.041
95.0314
95.0127
94.9845
94.947
94.8999
94.8436
94.7782
94.7043
94.6225
94.5337
94.439
94.3397
94.2372
94.1331
94.0286
93.9253
93.8243
93.7267
93.6335
93.5454
93.4632
93.3874
93.3183
93.2563
93.2016
93.1545
93.115
93.0834
93.0596
93.0437
93.0357
91.509
91.5164
91.5311
91.5531
91.5823
91.6188
91.6622
91.7125
91.7694
91.8326
91.9019
91.9768
92.0567
92.141
92.2291
92.3199
92.4126
92.5061
92.5991
92.6904
92.7789
92.8633
92.9425
93.0155
93.0817
93.1402
93.1907
93.2328
93.2664
93.2913
93.3076
93.3153
93.3148
93.3128
93.3091
93.3038
93.2968
93.2882
93.2677
96.0039
96.0039
93.2677
93.2882
93.2968
93.3038
93.3091
93.3128
93.3148
93.3153
93.3076
93.2913
93.2664
93.2328
93.1907
93.1402
93.0817
93.0155
92.9425
92.8633
92.7789
92.6904
92.5991
92.5061
92.4126
92.3199
92.2291
92.141
92.0567
91.9768
91.9019
91.8326
91.7694
91.7125
91.6622
91.6188
91.5823
91.5531
91.5311
91.5164
91.509
89.9749
89.9817
89.9952
90.0155
90.0425
90.076
90.1159
90.162
90.2141
90.2719
90.335
90.403
90.4755
90.5517
90.6311
90.7128
90.7959
90.8795
90.9626
91.044
91.1229
91.198
91.2686
91.3337
91.3927
91.4448
91.4898
91.5272
91.5568
91.5786
91.5923
91.5981
91.5965
91.594
91.5899
91.5842
91.577
91.5682
91.5478
94.3895
94.3895
91.5478
91.5682
91.577
91.5842
91.5899
91.594
91.5965
91.5981
91.5923
91.5786
91.5568
91.5272
91.4898
91.4448
91.3927
91.3337
91.2686
91.198
91.1229
91.044
90.9626
90.8795
90.7959
90.7128
90.6311
90.5517
90.4755
90.403
90.335
90.2719
90.2141
90.162
90.1159
90.076
90.0425
90.0155
89.9952
89.9817
89.9749
88.434
88.4402
88.4527
88.4714
88.4961
88.5268
88.5634
88.6056
88.6531
88.7058
88.7632
88.8249
88.8905
88.9593
89.0308
89.1041
89.1787
89.2534
89.3276
89.4003
89.4705
89.5374
89.6002
89.6581
89.7104
89.7567
89.7965
89.8294
89.8552
89.8738
89.885
89.8888
89.8862
89.8831
89.8786
89.8726
89.8651
89.8562
89.8359
92.7944
92.7944
89.8359
89.8562
89.8651
89.8726
89.8786
89.8831
89.8862
89.8888
89.885
89.8738
89.8552
89.8294
89.7965
89.7567
89.7104
89.6581
89.6002
89.5374
89.4705
89.4003
89.3276
89.2534
89.1787
89.1041
89.0308
88.9593
88.8905
88.8249
88.7632
88.7058
88.6531
88.6056
88.5634
88.5268
88.4961
88.4714
88.4527
88.4402
88.434
86.8868
86.8925
86.904
86.9211
86.9437
86.9719
87.0052
87.0437
87.087
87.1349
87.187
87.2429
87.3022
87.3642
87.4285
87.4944
87.5612
87.628
87.6942
87.759
87.8215
87.8809
87.9366
87.9879
88.0343
88.0751
88.11
88.1387
88.1609
88.1764
88.1851
88.187
88.1833
88.1797
88.1747
88.1684
88.1606
88.1515
88.1314
91.2201
91.2201
88.1314
88.1515
88.1606
88.1684
88.1747
88.1797
88.1833
88.187
88.1851
88.1764
88.1609
88.1387
88.11
88.0751
88.0343
87.9879
87.9366
87.8809
87.8215
87.759
87.6942
87.628
87.5612
87.4944
87.4285
87.3642
87.3022
87.2429
87.187
87.1349
87.087
87.0437
87.0052
86.9719
86.9437
86.9211
86.904
86.8925
86.8868
85.3339
85.3391
85.3496
85.3652
85.3859
85.4116
85.442
85.477
85.5164
85.5599
85.6071
85.6576
85.7111
85.7669
85.8247
85.8838
85.9435
86.0033
86.0623
86.1199
86.1754
86.2282
86.2775
86.3228
86.3636
86.3994
86.4298
86.4544
86.4732
86.4858
86.4921
86.492
86.4874
86.4832
86.4778
86.4711
86.4631
86.4538
86.434
89.6685
89.6685
86.434
86.4538
86.4631
86.4711
86.4778
86.4832
86.4874
86.492
86.4921
86.4858
86.4732
86.4544
86.4298
86.3994
86.3636
86.3228
86.2775
86.2282
86.1754
86.1199
86.0623
86.0033
85.9435
85.8838
85.8247
85.7669
85.7111
85.6576
85.6071
85.5599
85.5164
85.477
85.442
85.4116
85.3859
85.3652
85.3496
85.3391
85.3339
83.7757
83.7805
83.7901
83.8043
83.8232
83.8465
83.8742
83.906
83.9417
83.9811
84.0237
84.0693
84.1175
84.1678
84.2196
84.2725
84.3259
84.3792
84.4318
84.483
84.5322
84.5788
84.6224
84.6622
84.6979
84.729
84.7552
84.7762
84.7916
84.8014
84.8054
84.8035
84.7978
84.7932
84.7873
84.7803
84.772
84.7626
84.743
88.1422
88.1422
84.743
84.7626
84.772
84.7803
84.7873
84.7932
84.7978
84.8035
84.8054
84.8014
84.7916
84.7762
84.7552
84.729
84.6979
84.6622
84.6224
84.5788
84.5322
84.483
84.4318
84.3792
84.3259
84.2725
84.2196
84.1678
84.1175
84.0693
84.0237
83.9811
83.9417
83.906
83.8742
83.8465
83.8232
83.8043
83.7901
83.7805
83.7757
82.2128
82.2172
82.2258
82.2388
82.2559
82.2771
82.3023
82.3311
82.3634
82.399
82.4375
82.4786
82.5219
82.567
82.6134
82.6608
82.7084
82.7559
82.8026
82.848
82.8915
82.9327
82.9709
83.0058
83.0368
83.0636
83.0859
83.1034
83.1158
83.1229
83.1247
83.121
83.1143
83.1091
83.1028
83.0954
83.087
83.0774
83.0582
86.6447
86.6447
83.0582
83.0774
83.087
83.0954
83.1028
83.1091
83.1143
83.121
83.1247
83.1229
83.1158
83.1034
83.0859
83.0636
83.0368
83.0058
82.9709
82.9327
82.8915
82.848
82.8026
82.7559
82.7084
82.6608
82.6134
82.567
82.5219
82.4786
82.4375
82.399
82.3634
82.3311
82.3023
82.2771
82.2559
82.2388
82.2258
82.2172
82.2128
80.6455
80.6495
80.6573
80.6691
80.6846
80.7039
80.7266
80.7527
80.7818
80.8139
80.8486
80.8856
80.9244
80.9649
81.0064
81.0487
81.0911
81.1333
81.1747
81.2149
81.2532
81.2894
81.3228
81.3531
81.3799
81.4028
81.4214
81.4356
81.4451
81.4498
81.4494
81.444
81.4363
81.4306
81.4239
81.4162
81.4074
81.3977
81.3789
85.1808
85.1808
81.3789
81.3977
81.4074
81.4162
81.4239
81.4306
81.4363
81.444
81.4494
81.4498
81.4451
81.4356
81.4214
81.4028
81.3799
81.3531
81.3228
81.2894
81.2532
81.2149
81.1747
81.1333
81.0911
81.0487
81.0064
80.9649
80.9244
80.8856
80.8486
80.8139
80.7818
80.7527
80.7266
80.7039
80.6846
80.6691
80.6573
80.6495
80.6455
79.0742
79.0778
79.085
79.0956
79.1097
79.127
79.1476
79.1711
79.1974
79.2263
79.2575
79.2906
79.3255
79.3616
79.3987
79.4363
79.4741
79.5115
79.5481
79.5835
79.6172
79.6488
79.6779
79.704
79.7269
79.7461
79.7615
79.7726
79.7794
79.7816
79.7792
79.772
79.7634
79.7572
79.7501
79.742
79.733
79.723
79.7047
83.7568
83.7568
79.7047
79.723
79.733
79.742
79.7501
79.7572
79.7634
79.772
79.7792
79.7816
79.7794
79.7726
79.7615
79.7461
79.7269
79.704
79.6779
79.6488
79.6172
79.5835
79.5481
79.5115
79.4741
79.4363
79.3987
79.3616
79.3255
79.2906
79.2575
79.2263
79.1974
79.1711
79.1476
79.127
79.1097
79.0956
79.085
79.0778
79.0742
77.4994
77.5026
77.5091
77.5187
77.5314
77.5471
77.5656
77.5867
77.6104
77.6364
77.6643
77.694
77.7252
77.7574
77.7905
77.8239
77.8574
77.8904
77.9227
77.9538
77.9833
78.0108
78.0359
78.0582
78.0775
78.0934
78.1056
78.114
78.1182
78.1181
78.1137
78.1049
78.0953
78.0886
78.0809
78.0725
78.0632
78.053
78.0351
82.3815
82.3815
78.0351
78.053
78.0632
78.0725
78.0809
78.0886
78.0953
78.1049
78.1137
78.1181
78.1182
78.114
78.1056
78.0934
78.0775
78.0582
78.0359
78.0108
77.9833
77.9538
77.9227
77.8904
77.8574
77.8239
77.7905
77.7574
77.7252
77.694
77.6643
77.6364
77.6104
77.5867
77.5656
77.5471
77.5314
77.5187
77.5091
77.5026
77.4994
75.9213
75.9242
75.9301
75.9387
75.9501
75.9642
75.9809
75.9999
76.0211
76.0444
76.0694
76.096
76.1237
76.1525
76.1818
76.2115
76.241
76.2702
76.2985
76.3257
76.3514
76.3751
76.3966
76.4155
76.4315
76.4443
76.4537
76.4594
76.4612
76.459
76.4527
76.4422
76.4316
76.4243
76.4161
76.4072
76.3976
76.3871
76.3697
81.0694
81.0694
76.3697
76.3871
76.3976
76.4072
76.4161
76.4243
76.4316
76.4422
76.4527
76.459
76.4612
76.4594
76.4537
76.4443
76.4315
76.4155
76.3966
76.3751
76.3514
76.3257
76.2985
76.2702
76.241
76.2115
76.1818
76.1525
76.1237
76.096
76.0694
76.0444
76.0211
75.9999
75.9809
75.9642
75.9501
75.9387
75.9301
75.9242
75.9213
74.3403
74.3429
74.3482
74.356
74.3662
74.3789
74.3938
74.4109
74.4299
74.4507
74.473
74.4967
74.5214
74.5469
74.5729
74.5991
74.6252
74.6507
74.6755
74.6992
74.7213
74.7417
74.7599
74.7757
74.7887
74.7987
74.8055
74.8087
74.8083
74.804
74.7958
74.7836
74.7719
74.764
74.7553
74.7459
74.7358
74.725
74.7079
79.8406
79.8406
74.7079
74.725
74.7358
74.7459
74.7553
74.764
74.7719
74.7836
74.7958
74.804
74.8083
74.8087
74.8055
74.7987
74.7887
74.7757
74.7599
74.7417
74.7213
74.6992
74.6755
74.6507
74.6252
74.5991
74.5729
74.5469
74.5214
74.4967
74.473
74.4507
74.4299
74.4109
74.3938
74.3789
74.3662
74.356
74.3482
74.3429
74.3403
72.7567
72.7591
72.7637
72.7707
72.7799
72.7913
72.8046
72.8199
72.8368
72.8554
72.8753
72.8963
72.9182
72.9408
72.9638
72.9869
73.0097
73.0321
73.0537
73.0741
73.0931
73.1104
73.1257
73.1386
73.1489
73.1564
73.1607
73.1617
73.1592
73.153
73.1429
73.129
73.1161
73.1075
73.0981
73.0881
73.0774
73.0661
73.0494
78.726
78.726
73.0494
73.0661
73.0774
73.0881
73.0981
73.1075
73.1161
73.129
73.1429
73.153
73.1592
73.1617
73.1607
73.1564
73.1489
73.1386
73.1257
73.1104
73.0931
73.0741
73.0537
73.0321
73.0097
72.9869
72.9638
72.9408
72.9182
72.8963
72.8753
72.8554
72.8368
72.8199
72.8046
72.7913
72.7799
72.7707
72.7637
72.7591
72.7567
71.1707
71.1728
71.177
71.1833
71.1915
71.2016
71.2135
71.2271
71.2422
71.2587
71.2764
71.295
71.3144
71.3344
71.3546
71.3748
71.3948
71.4143
71.4329
71.4505
71.4667
71.4812
71.4937
71.5041
71.512
71.5171
71.5193
71.5183
71.5138
71.5057
71.4939
71.4782
71.464
71.4546
71.4444
71.4336
71.4222
71.4101
71.3936
77.7745
77.7745
71.3936
71.4101
71.4222
71.4336
71.4444
71.4546
71.464
71.4782
71.4939
71.5057
71.5138
71.5183
71.5193
71.5171
71.512
71.5041
71.4937
71.4812
71.4667
71.4505
71.4329
71.4143
71.3948
71.3748
71.3546
71.3344
71.3144
71.295
71.2764
71.2587
71.2422
71.2271
71.2135
71.2016
71.1915
71.1833
71.177
71.1728
71.1707
69.5826
69.5845
69.5882
69.5938
69.6011
69.6102
69.6208
69.6329
69.6463
69.6609
69.6765
69.693
69.7101
69.7276
69.7453
69.763
69.7804
69.7972
69.8133
69.8282
69.8418
69.8539
69.864
69.8721
69.8778
69.8809
69.8811
69.8782
69.872
69.8623
69.8487
69.8312
69.8157
69.8053
69.7942
69.7824
69.7698
69.7567
69.7401
77.0558
77.0558
69.7401
69.7567
69.7698
69.7824
69.7942
69.8053
69.8157
69.8312
69.8487
69.8623
69.872
69.8782
69.8811
69.8809
69.8778
69.8721
69.864
69.8539
69.8418
69.8282
69.8133
69.7972
69.7804
69.763
69.7453
69.7276
69.7101
69.693
69.6765
69.6609
69.6463
69.6329
69.6208
69.6102
69.6011
69.5938
69.5882
69.5845
69.5826
67.9926
67.9943
67.9977
68.0026
68.0091
68.0171
68.0265
68.0373
68.0491
68.0621
68.0758
68.0903
68.1054
68.1207
68.1362
68.1515
68.1665
68.181
68.1947
68.2073
68.2186
68.2284
68.2365
68.2425
68.2462
68.2475
68.246
68.2415
68.2338
68.2226
68.2075
68.1884
68.1713
68.16
68.1477
68.1345
68.1205
68.1058
68.0887
76.6162
76.6162
68.0887
68.1058
68.1205
68.1345
68.1477
68.16
68.1713
68.1884
68.2075
68.2226
68.2338
68.2415
68.246
68.2475
68.2462
68.2425
68.2365
68.2284
68.2186
68.2073
68.1947
68.181
68.1665
68.1515
68.1362
68.1207
68.1054
68.0903
68.0758
68.0621
68.0491
68.0373
68.0265
68.0171
68.0091
68.0026
67.9977
67.9943
67.9926
66.401
66.4025
66.4054
66.4098
66.4156
66.4227
66.431
66.4405
66.451
66.4623
66.4744
66.4872
66.5003
66.5137
66.5271
66.5403
66.5533
66.5656
66.5771
66.5877
66.5969
66.6048
66.6109
66.6151
66.6172
66.6168
66.6139
66.6081
66.5991
66.5867
66.5704
66.5499
66.5315
66.5191
66.5056
66.4909
66.475
66.4579
66.4396
76.0454
76.0454
66.4396
66.4579
66.475
66.4909
66.5056
66.5191
66.5315
66.5499
66.5704
66.5867
66.5991
66.6081
66.6139
66.6168
66.6172
66.6151
66.6109
66.6048
66.5969
66.5877
66.5771
66.5656
66.5533
66.5403
66.5271
66.5137
66.5003
66.4872
66.4744
66.4623
66.451
66.4405
66.431
66.4227
66.4156
66.4098
66.4054
66.4025
66.401
64.8079
64.8092
64.8118
64.8157
64.8208
64.827
64.8344
64.8427
64.8519
64.8619
64.8725
64.8836
64.895
64.9066
64.9181
64.9295
64.9405
64.951
64.9606
64.9693
64.9767
64.9828
64.9872
64.9899
64.9905
64.9888
64.9846
64.9778
64.9679
64.9546
64.9376
64.9163
64.8971
64.884
64.8695
64.8534
64.8355
64.8155
64.7954
72.3118
72.3118
64.7954
64.8155
64.8355
64.8534
64.8695
64.884
64.8971
64.9163
64.9376
64.9546
64.9679
64.9778
64.9846
64.9888
64.9905
64.9899
64.9872
64.9828
64.9767
64.9693
64.9606
64.951
64.9405
64.9295
64.9181
64.9066
64.895
64.8836
64.8725
64.8619
64.8519
64.8427
64.8344
64.827
64.8208
64.8157
64.8118
64.8092
64.8079
63.2134
63.2146
63.2169
63.2203
63.2248
63.2303
63.2367
63.244
63.252
63.2608
63.27
63.2796
63.2895
63.2995
63.3094
63.3191
63.3284
63.3371
63.3451
63.352
63.3579
63.3624
63.3654
63.3667
63.366
63.3632
63.3581
63.3505
63.34
63.3264
63.3092
63.288
63.269
63.2561
63.2416
63.2252
63.2062
63.1832
63.1601
63.1562
63.1562
63.1601
63.1832
63.2062
63.2252
63.2416
63.2561
63.269
63.288
63.3092
63.3264
63.34
63.3505
63.3581
63.3632
63.366
63.3667
63.3654
63.3624
63.3579
63.352
63.3451
63.3371
63.3284
63.3191
63.3094
63.2995
63.2895
63.2796
63.27
63.2608
63.252
63.244
63.2367
63.2303
63.2248
63.2203
63.2169
63.2146
63.2134
61.618
61.619
61.6211
61.624
61.628
61.6328
61.6384
61.6448
61.6518
61.6593
61.6673
61.6757
61.6841
61.6927
61.7011
61.7093
61.7171
61.7243
61.7307
61.7362
61.7406
61.7438
61.7455
61.7456
61.7439
61.7403
61.7344
61.7262
61.7154
61.7018
61.6851
61.6649
61.6476
61.6361
61.6238
61.6108
61.5973
61.5838
61.5714
61.5683
61.5683
61.5714
61.5838
61.5973
61.6108
61.6238
61.6361
61.6476
61.6649
61.6851
61.7018
61.7154
61.7262
61.7344
61.7403
61.7439
61.7456
61.7455
61.7438
61.7406
61.7362
61.7307
61.7243
61.7171
61.7093
61.7011
61.6927
61.6841
61.6757
61.6673
61.6593
61.6518
61.6448
61.6384
61.6328
61.628
61.624
61.6211
61.619
61.618
60.0216
60.0225
60.0243
60.0269
60.0303
60.0345
60.0394
60.0449
60.051
60.0575
60.0644
60.0715
60.0788
60.086
60.0931
60.0999
60.1063
60.1122
60.1173
60.1215
60.1247
60.1267
60.1273
60.1264
60.1239
60.1195
60.1131
60.1046
60.0937
60.0804
60.0645
60.0458
60.0303
60.0202
60.0098
59.999
59.9882
59.9774
59.9669
59.9639
59.9639
59.9669
59.9774
59.9882
59.999
60.0098
60.0202
60.0303
60.0458
60.0645
60.0804
60.0937
60.1046
60.1131
60.1195
60.1239
60.1264
60.1273
60.1267
60.1247
60.1215
60.1173
60.1122
60.1063
60.0999
60.0931
60.086
60.0788
60.0715
60.0644
60.0575
60.051
60.0449
60.0394
60.0345
60.0303
60.0269
60.0243
60.0225
60.0216
58.4243
58.4251
58.4266
58.4289
58.4319
58.4355
58.4397
58.4445
58.4497
58.4553
58.4612
58.4672
58.4734
58.4794
58.4854
58.491
58.4962
58.5008
58.5047
58.5078
58.5099
58.5108
58.5105
58.5088
58.5056
58.5007
58.4939
58.4852
58.4745
58.4616
58.4466
58.4293
58.4154
58.4065
58.3973
58.3879
58.3784
58.3689
58.3594
58.3565
58.3565
58.3594
58.3689
58.3784
58.3879
58.3973
58.4065
58.4154
58.4293
58.4466
58.4616
58.4745
58.4852
58.4939
58.5007
58.5056
58.5088
58.5105
58.5108
58.5099
58.5078
58.5047
58.5008
58.4962
58.491
58.4854
58.4794
58.4734
58.4672
58.4612
58.4553
58.4497
58.4445
58.4397
58.4355
58.4319
58.4289
58.4266
58.4251
58.4243
56.8263
56.8269
56.8283
56.8302
56.8328
56.8359
56.8395
56.8436
56.848
56.8528
56.8578
56.8629
56.868
56.8731
56.8779
56.8825
56.8866
56.8901
56.893
56.8951
56.8962
56.8963
56.8952
56.8928
56.889
56.8837
56.8767
56.868
56.8574
56.8451
56.8309
56.8149
56.8022
56.7941
56.7858
56.7774
56.7688
56.7601
56.7513
56.7485
56.7485
56.7513
56.7601
56.7688
56.7774
56.7858
56.7941
56.8022
56.8149
56.8309
56.8451
56.8574
56.868
56.8767
56.8837
56.889
56.8928
56.8952
56.8963
56.8962
56.8951
56.893
56.8901
56.8866
56.8825
56.8779
56.8731
56.868
56.8629
56.8578
56.8528
56.848
56.8436
56.8395
56.8359
56.8328
56.8302
56.8283
56.8269
56.8263
55.2276
55.2281
55.2293
55.2309
55.2331
55.2358
55.2389
55.2423
55.2461
55.2501
55.2543
55.2585
55.2628
55.2669
55.2708
55.2744
55.2775
55.2801
55.2821
55.2833
55.2836
55.283
55.2812
55.2782
55.274
55.2683
55.2612
55.2525
55.2422
55.2304
55.2169
55.202
55.1903
55.1829
55.1753
55.1675
55.1595
55.1515
55.1433
55.1406
55.1406
55.1433
55.1515
55.1595
55.1675
55.1753
55.1829
55.1903
55.202
55.2169
55.2304
55.2422
55.2525
55.2612
55.2683
55.274
55.2782
55.2812
55.283
55.2836
55.2833
55.2821
55.2801
55.2775
55.2744
55.2708
55.2669
55.2628
55.2585
55.2543
55.2501
55.2461
55.2423
55.2389
55.2358
55.2331
55.2309
55.2293
55.2281
55.2276
53.6283
53.6288
53.6297
53.6311
53.633
53.6352
53.6378
53.6407
53.6439
53.6472
53.6507
53.6542
53.6576
53.6609
53.664
53.6667
53.669
53.6708
53.672
53.6724
53.672
53.6707
53.6684
53.6649
53.6603
53.6544
53.6472
53.6386
53.6286
53.6172
53.6045
53.5905
53.5795
53.5726
53.5655
53.5583
53.5509