/*--------------------------------*- C++ -*----------------------------------*\
  =========                 |
  \\      /  F ield         | OpenFOAM: The Open Source CFD Toolbox
   \\    /   O peration     | Website:  https://openfoam.org
    \\  /    A nd           | Version:  10
     \\/     M anipulation  |
\*---------------------------------------------------------------------------*/
FoamFile
{
    format      ascii;
    class       volVectorField;
    location    "0.006";
    object      UMean;
}
// * * * * * * * * * * * * * * * * * * * * * * * * * * * * * * * * * * * * * //

dimensions      [0 1 -1 0 0 0 0];

internalField   nonuniform List<vector> 
12225
(
(9.78244 0.0535293 0)
(9.58285 0.0617362 0)
(9.34543 0.0576674 0)
(9.08427 0.0536615 0)
(8.84465 0.0488635 0)
(8.63708 0.0452523 0)
(8.46831 0.0384536 0)
(8.32327 0.0360504 0)
(8.21614 0.0262283 0)
(8.11968 0.0286998 0)
(8.07607 0.0103103 0)
(8.02788 0.0244989 0)
(8.0654 -0.0180532 0)
(8.07558 0.0296322 0)
(8.22628 -0.0790361 0)
(8.33871 0.0610621 0)
(8.68064 -0.255047 0)
(9.10419 0.0670236 0)
(9.91279 0.0470553 0)
(10.0628 0.0601283 0)
(10.1443 0.0574169 0)
(10.1724 0.0536702 0)
(10.1888 0.051808 0)
(10.21 0.0467158 0)
(10.2339 0.0428799 0)
(10.2638 0.0332858 0)
(10.2934 0.029989 0)
(10.337 0.01493 0)
(10.3816 0.0142843 0)
(10.457 -0.0127084 0)
(10.529 -0.00827498 0)
(10.6616 -0.0592601 0)
(10.7775 -0.0484561 0)
(11.0169 -0.151634 0)
(11.2148 -0.188081 0)
(11.6172 -0.47163 0)
(9.9526 0.0290761 0)
(10.0736 0.0447265 0)
(10.1398 0.0415199 0)
(10.1641 0.0379512 0)
(10.1867 0.034816 0)
(10.2194 0.0319894 0)
(10.2621 0.0247301 0)
(10.3095 0.0191522 0)
(10.3639 0.00603222 0)
(10.4237 -0.00105884 0)
(10.4967 -0.0240535 0)
(10.5791 -0.0322358 0)
(10.6829 -0.0732663 0)
(10.8009 -0.0839149 0)
(10.9532 -0.160508 0)
(11.129 -0.199697 0)
(11.3472 -0.366029 0)
(11.5765 -0.592974 0)
(9.93364 0.0192721 0)
(10.0411 0.0448242 0)
(10.101 0.0419896 0)
(10.1224 0.0354109 0)
(10.1425 0.0307219 0)
(10.1755 0.0241459 0)
(10.2203 0.0162931 0)
(10.2736 0.00427418 0)
(10.3323 -0.00787786 0)
(10.3985 -0.0259557 0)
(10.4722 -0.0441081 0)
(10.5576 -0.0722353 0)
(10.6554 -0.101961 0)
(10.7711 -0.148521 0)
(10.9071 -0.207656 0)
(11.0653 -0.299265 0)
(11.2435 -0.448938 0)
(11.4166 -0.657882 0)
(9.90546 0.0158761 0)
(10.0015 0.032919 0)
(10.0593 0.0295448 0)
(10.083 0.0218991 0)
(10.1059 0.0142518 0)
(10.1407 0.00610704 0)
(10.187 -0.0051226 0)
(10.2407 -0.0181559 0)
(10.2996 -0.0351782 0)
(10.3643 -0.054036 0)
(10.437 -0.079371 0)
(10.5196 -0.1089 0)
(10.6147 -0.149606 0)
(10.7239 -0.201544 0)
(10.8496 -0.273972 0)
(10.9886 -0.379606 0)
(11.1367 -0.524791 0)
(11.2691 -0.741593 0)
(9.87831 0.0143367 0)
(9.98071 0.0290328 0)
(10.0402 0.0267431 0)
(10.0661 0.0179576 0)
(10.0907 0.0082205 0)
(10.1245 -0.0028544 0)
(10.1671 -0.0161834 0)
(10.2157 -0.0325207 0)
(10.2699 -0.0522214 0)
(10.3306 -0.076201 0)
(10.3999 -0.106026 0)
(10.479 -0.143242 0)
(10.5695 -0.191116 0)
(10.6713 -0.252876 0)
(10.7853 -0.33576 0)
(10.9062 -0.447309 0)
(11.0285 -0.59711 0)
(11.1328 -0.79526 0)
(9.92329 0.00219181 0)
(10.0138 0.0141969 0)
(10.0658 0.0113665 0)
(10.0867 0.000848781 0)
(10.1073 -0.011311 0)
(10.1373 -0.0238747 0)
(10.1763 -0.0387701 0)
(10.2218 -0.0575235 0)
(10.2733 -0.0807185 0)
(10.3314 -0.10893 0)
(10.3977 -0.143238 0)
(10.4725 -0.185975 0)
(10.5567 -0.239383 0)
(10.6488 -0.308355 0)
(10.7484 -0.396619 0)
(10.8495 -0.512302 0)
(10.9469 -0.658228 0)
(11.025 -0.83956 0)
(9.93494 0.0118227 0)
(10.0348 0.0141661 0)
(10.0883 0.0105849 0)
(10.1082 0.000114463 0)
(10.1276 -0.0133942 0)
(10.1563 -0.0286871 0)
(10.1937 -0.0469595 0)
(10.2371 -0.0692978 0)
(10.2856 -0.0964134 0)
(10.3394 -0.12923 0)
(10.3992 -0.168994 0)
(10.4654 -0.217809 0)
(10.5386 -0.277863 0)
(10.6172 -0.353008 0)
(10.7002 -0.446217 0)
(10.7818 -0.562811 0)
(10.8575 -0.70342 0)
(10.915 -0.870509 0)
(9.98917 -0.00947997 0)
(10.083 -0.00329172 0)
(10.1291 -0.00812603 0)
(10.1436 -0.0207989 0)
(10.1595 -0.0359036 0)
(10.1843 -0.0525105 0)
(10.2164 -0.072424 0)
(10.2539 -0.097159 0)
(10.2964 -0.127379 0)
(10.3446 -0.163768 0)
(10.3991 -0.207116 0)
(10.4595 -0.259536 0)
(10.5249 -0.323166 0)
(10.5931 -0.401465 0)
(10.6621 -0.496449 0)
(10.727 -0.611459 0)
(10.7833 -0.745657 0)
(10.8236 -0.899558 0)
(9.94547 -0.0015925 0)
(10.0348 0.00276889 0)
(10.0779 -0.00541912 0)
(10.0888 -0.0186321 0)
(10.1027 -0.0343738 0)
(10.1288 -0.0531592 0)
(10.1639 -0.076107 0)
(10.2036 -0.104517 0)
(10.2456 -0.139044 0)
(10.2901 -0.180281 0)
(10.3381 -0.228917 0)
(10.3897 -0.286494 0)
(10.4446 -0.354537 0)
(10.5011 -0.435498 0)
(10.5571 -0.530672 0)
(10.6086 -0.642156 0)
(10.6516 -0.768672 0)
(10.6807 -0.909862 0)
(9.90182 -0.0142839 0)
(9.98345 -0.0138567 0)
(10.0246 -0.0237838 0)
(10.0394 -0.0397499 0)
(10.0571 -0.0594049 0)
(10.0851 -0.0821516 0)
(10.1212 -0.108023 0)
(10.1615 -0.138014 0)
(10.2036 -0.173308 0)
(10.247 -0.215152 0)
(10.292 -0.264667 0)
(10.3382 -0.323534 0)
(10.3854 -0.393113 0)
(10.4318 -0.475132 0)
(10.476 -0.569904 0)
(10.5147 -0.678213 0)
(10.545 -0.797929 0)
(10.5627 -0.928363 0)
(9.94761 -8.05989e-05 0)
(10.0302 -0.00884639 0)
(10.0723 -0.0228811 0)
(10.0838 -0.0401007 0)
(10.0947 -0.0601238 0)
(10.1141 -0.083715 0)
(10.1412 -0.111783 0)
(10.1726 -0.144996 0)
(10.2062 -0.18395 0)
(10.2414 -0.229405 0)
(10.2782 -0.282165 0)
(10.3158 -0.343604 0)
(10.3536 -0.414642 0)
(10.3893 -0.496474 0)
(10.4216 -0.588967 0)
(10.447 -0.692489 0)
(10.4642 -0.804814 0)
(10.4692 -0.925548 0)
(9.93381 -0.0153692 0)
(10.0136 -0.0259929 0)
(10.0497 -0.0410432 0)
(10.0568 -0.0587943 0)
(10.0657 -0.0806211 0)
(10.0842 -0.106909 0)
(10.11 -0.137455 0)
(10.1392 -0.172326 0)
(10.1699 -0.211964 0)
(10.2017 -0.257494 0)
(10.2348 -0.310175 0)
(10.2682 -0.371424 0)
(10.3007 -0.441799 0)
(10.3303 -0.522031 0)
(10.3559 -0.611386 0)
(10.3745 -0.709939 0)
(10.3858 -0.815232 0)
(10.3863 -0.927124 0)
(9.9034 0.00156712 0)
(9.98008 -0.0162156 0)
(10.016 -0.0355124 0)
(10.0239 -0.0559588 0)
(10.0325 -0.0792811 0)
(10.0485 -0.10671 0)
(10.0694 -0.139072 0)
(10.092 -0.176984 0)
(10.1156 -0.220583 0)
(10.1405 -0.270221 0)
(10.167 -0.326196 0)
(10.194 -0.389277 0)
(10.2205 -0.45968 0)
(10.2441 -0.538057 0)
(10.2638 -0.623661 0)
(10.2768 -0.716575 0)
(10.2829 -0.814433 0)
(10.2788 -0.917146 0)
(9.9535 -0.0106211 0)
(10.0334 -0.0384937 0)
(10.0663 -0.0592125 0)
(10.0661 -0.0803936 0)
(10.0655 -0.105075 0)
(10.074 -0.133953 0)
(10.0901 -0.167319 0)
(10.1098 -0.205705 0)
(10.1306 -0.249483 0)
(10.1513 -0.299159 0)
(10.1714 -0.355038 0)
(10.1896 -0.417632 0)
(10.2054 -0.486652 0)
(10.217 -0.562189 0)
(10.2239 -0.642912 0)
(10.2241 -0.728748 0)
(10.218 -0.817089 0)
(10.2031 -0.908667 0)
(9.92846 -0.00083414 0)
(10.0231 -0.0256542 0)
(10.0653 -0.0450677 0)
(10.0689 -0.0658069 0)
(10.0691 -0.0915854 0)
(10.0766 -0.123719 0)
(10.0893 -0.162101 0)
(10.1033 -0.20587 0)
(10.1166 -0.253854 0)
(10.1284 -0.305611 0)
(10.1385 -0.36117 0)
(10.1461 -0.42114 0)
(10.1506 -0.485557 0)
(10.1505 -0.55479 0)
(10.1457 -0.62786 0)
(10.1345 -0.704957 0)
(10.118 -0.783779 0)
(10.0942 -0.8653 0)
(9.92642 -0.0449622 0)
(10.0126 -0.059808 0)
(10.0444 -0.0822511 0)
(10.0401 -0.107531 0)
(10.0378 -0.134196 0)
(10.0462 -0.1637 0)
(10.0598 -0.197745 0)
(10.0725 -0.236888 0)
(10.0818 -0.280786 0)
(10.0871 -0.329125 0)
(10.0891 -0.381451 0)
(10.0877 -0.437677 0)
(10.0834 -0.497147 0)
(10.0751 -0.55989 0)
(10.0632 -0.624683 0)
(10.046 -0.69195 0)
(10.025 -0.759473 0)
(9.99747 -0.82885 0)
(10.017 -0.0117463 0)
(10.0935 -0.0285007 0)
(10.1179 -0.0484712 0)
(10.1085 -0.0755171 0)
(10.099 -0.109017 0)
(10.0969 -0.146175 0)
(10.0986 -0.184822 0)
(10.0998 -0.22445 0)
(10.0983 -0.265556 0)
(10.0936 -0.309065 0)
(10.0856 -0.355429 0)
(10.0744 -0.404982 0)
(10.06 -0.457223 0)
(10.0418 -0.512063 0)
(10.0199 -0.568271 0)
(9.99382 -0.626053 0)
(9.96413 -0.683425 0)
(9.92999 -0.741766 0)
(9.96106 -0.0422664 0)
(10.036 -0.0683166 0)
(10.0591 -0.0922098 0)
(10.0475 -0.11551 0)
(10.034 -0.140637 0)
(10.0255 -0.16905 0)
(10.0185 -0.200935 0)
(10.0098 -0.235903 0)
(9.99819 -0.273304 0)
(9.98352 -0.312693 0)
(9.96596 -0.353586 0)
(9.94537 -0.395931 0)
(9.92167 -0.439323 0)
(9.89455 -0.483915 0)
(9.86427 -0.528851 0)
(9.83066 -0.574613 0)
(9.79446 -0.619549 0)
(9.75527 -0.665241 0)
(9.94325 -0.00950356 0)
(10.014 -0.0269962 0)
(10.032 -0.0511764 0)
(10.0162 -0.0760638 0)
(10.0004 -0.101002 0)
(9.99139 -0.127239 0)
(9.98442 -0.155547 0)
(9.97507 -0.185887 0)
(9.96184 -0.217648 0)
(9.94499 -0.250277 0)
(9.92521 -0.283378 0)
(9.90272 -0.317077 0)
(9.87751 -0.351371 0)
(9.84924 -0.386671 0)
(9.81805 -0.422566 0)
(9.7837 -0.459462 0)
(9.74689 -0.496048 0)
(9.70725 -0.533326 0)
(9.87664 -0.0290058 0)
(9.94416 -0.0481972 0)
(9.96252 -0.0705558 0)
(9.94933 -0.0942909 0)
(9.9347 -0.118249 0)
(9.92449 -0.142655 0)
(9.91459 -0.167715 0)
(9.90137 -0.193655 0)
(9.88408 -0.220615 0)
(9.86344 -0.248526 0)
(9.84044 -0.276915 0)
(9.81559 -0.30545 0)
(9.78904 -0.333738 0)
(9.76043 -0.361997 0)
(9.72976 -0.389996 0)
(9.69647 -0.418347 0)
(9.66104 -0.446222 0)
(9.62272 -0.474717 0)
(9.9332 0.00366814 0)
(9.99844 -0.0291025 0)
(10.0158 -0.0520382 0)
(10.0007 -0.0716914 0)
(9.9829 -0.0904477 0)
(9.96869 -0.109277 0)
(9.9554 -0.128847 0)
(9.93986 -0.149775 0)
(9.92092 -0.172309 0)
(9.89872 -0.196297 0)
(9.87375 -0.221176 0)
(9.8462 -0.24648 0)
(9.8162 -0.271636 0)
(9.7836 -0.296541 0)
(9.74881 -0.320737 0)
(9.71165 -0.344626 0)
(9.67289 -0.367542 0)
(9.63187 -0.390506 0)
(9.9458 -0.00278851 0)
(10.0188 -0.0399519 0)
(10.0385 -0.0627757 0)
(10.0201 -0.0796609 0)
(9.99855 -0.0962809 0)
(9.9829 -0.113681 0)
(9.96953 -0.13175 0)
(9.95357 -0.150596 0)
(9.93285 -0.170208 0)
(9.9075 -0.190247 0)
(9.87858 -0.210115 0)
(9.84697 -0.229492 0)
(9.81322 -0.248195 0)
(9.77743 -0.266551 0)
(9.73977 -0.284519 0)
(9.70018 -0.302557 0)
(9.65896 -0.320098 0)
(9.61599 -0.33779 0)
(9.83377 0.0047573 0)
(9.92484 -0.017803 0)
(9.95832 -0.0398804 0)
(9.95016 -0.0579174 0)
(9.93493 -0.0732417 0)
(9.92243 -0.087387 0)
(9.91064 -0.101061 0)
(9.89594 -0.114772 0)
(9.87649 -0.129057 0)
(9.85218 -0.144332 0)
(9.82386 -0.160561 0)
(9.79241 -0.177417 0)
(9.75871 -0.194264 0)
(9.72311 -0.210759 0)
(9.6862 -0.226452 0)
(9.64787 -0.241545 0)
(9.60874 -0.255711 0)
(9.56823 -0.269598 0)
(9.95017 -0.0272344 0)
(10.0347 -0.0478761 0)
(10.0635 -0.0653603 0)
(10.0514 -0.0785957 0)
(10.0315 -0.0887556 0)
(10.0137 -0.0982604 0)
(9.99683 -0.108372 0)
(9.97831 -0.11923 0)
(9.95661 -0.130501 0)
(9.93131 -0.141958 0)
(9.90255 -0.153518 0)
(9.87057 -0.165274 0)
(9.83566 -0.177158 0)
(9.79799 -0.189201 0)
(9.75809 -0.201146 0)
(9.71633 -0.213023 0)
(9.67342 -0.224376 0)
(9.62949 -0.235439 0)
(9.93328 -0.00512521 0)
(10.0158 -0.0218569 0)
(10.0439 -0.0372457 0)
(10.0282 -0.0481227 0)
(10.0043 -0.0569995 0)
(9.98402 -0.0659384 0)
(9.96567 -0.0751849 0)
(9.94517 -0.084528 0)
(9.92026 -0.0939069 0)
(9.89067 -0.103321 0)
(9.85726 -0.112733 0)
(9.82099 -0.12215 0)
(9.78262 -0.131475 0)
(9.7425 -0.140743 0)
(9.70092 -0.149862 0)
(9.65803 -0.158967 0)
(9.61423 -0.167829 0)
(9.5697 -0.176663 0)
(9.90327 -0.0373613 0)
(9.98261 -0.0534111 0)
(10.011 -0.0614682 0)
(9.99882 -0.0667199 0)
(9.97819 -0.0725183 0)
(9.95905 -0.078807 0)
(9.93998 -0.084578 0)
(9.91829 -0.089669 0)
(9.89339 -0.0945734 0)
(9.86588 -0.0997688 0)
(9.83644 -0.105434 0)
(9.80533 -0.111598 0)
(9.77253 -0.118123 0)
(9.73778 -0.124906 0)
(9.70105 -0.131756 0)
(9.66217 -0.138657 0)
(9.62167 -0.145375 0)
(9.57941 -0.151994 0)
(9.90505 -0.0045614 0)
(9.99465 -0.0306745 0)
(10.0289 -0.0349877 0)
(10.0195 -0.0386553 0)
(10.0011 -0.0442898 0)
(9.98464 -0.049489 0)
(9.96892 -0.0539491 0)
(9.95084 -0.058655 0)
(9.92901 -0.0641004 0)
(9.90339 -0.0700377 0)
(9.87444 -0.0759316 0)
(9.84259 -0.0814604 0)
(9.80823 -0.0864899 0)
(9.77139 -0.0911347 0)
(9.73228 -0.095436 0)
(9.69074 -0.0996635 0)
(9.64745 -0.103746 0)
(9.60219 -0.108023 0)
(9.89956 -0.0406073 0)
(10.0099 -0.0609322 0)
(10.0539 -0.0608897 0)
(10.0485 -0.0608024 0)
(10.0315 -0.0633693 0)
(10.0141 -0.0658287 0)
(9.9953 -0.067363 0)
(9.97229 -0.0685236 0)
(9.94388 -0.0697978 0)
(9.90998 -0.0713656 0)
(9.87094 -0.0731902 0)
(9.82751 -0.0752058 0)
(9.78043 -0.0772531 0)
(9.73052 -0.0792954 0)
(9.67812 -0.081214 0)
(9.62391 -0.0831574 0)
(9.56777 -0.0850217 0)
(9.51066 -0.0871369 0)
(9.77743 -0.0324777 0)
(9.6959 -0.0393596 0)
(9.55709 -0.0398534 0)
(9.37667 -0.0395325 0)
(9.19685 -0.0391966 0)
(9.03064 -0.0385071 0)
(8.87524 -0.0379077 0)
(8.72578 -0.0377897 0)
(8.57973 -0.0380345 0)
(8.43646 -0.0383263 0)
(8.29599 -0.0384583 0)
(8.1588 -0.0384342 0)
(8.02492 -0.0383058 0)
(7.8948 -0.0381513 0)
(7.76776 -0.0379508 0)
(7.64472 -0.0377733 0)
(7.52405 -0.0375692 0)
(7.40812 -0.0375172 0)
(-0.0156719 0.0267709 3.56331e-20)
(-0.0351622 0.0178854 -3.53951e-20)
(-0.0498134 0.0175996 0)
(-0.0669849 0.0173732 0)
(-0.0825443 0.0164104 0)
(-0.0973118 0.0150513 3.44093e-20)
(-0.110354 0.0133065 0)
(-0.121547 0.0112374 0)
(-0.130262 0.0087677 0)
(-0.136251 0.00588311 0)
(-0.138988 0.00259854 -3.32367e-20)
(-0.137992 -0.00108641 0)
(-0.132883 -0.00514212 0)
(-0.123292 -0.0095808 0)
(-0.10868 -0.0142594 0)
(-0.088652 -0.0192854 -3.21355e-20)
(-0.0629854 -0.0245234 0)
(-0.0313402 -0.0299388 0)
(0.00663895 -0.0354765 0)
(0.0510622 -0.0410615 0)
(0.102038 -0.0465706 0)
(0.159687 -0.0520266 0)
(0.223921 -0.057292 0)
(0.294659 -0.0623982 -3.05237e-20)
(0.371682 -0.067156 3.03328e-20)
(0.454747 -0.0715748 -3.01433e-20)
(0.543451 -0.0756137 -2.99548e-20)
(0.637457 -0.0792189 0)
(0.736334 -0.0823707 0)
(0.839585 -0.0850471 2.93919e-20)
(0.946593 -0.087239 2.92038e-20)
(1.05686 -0.0888787 0)
(1.16982 -0.0900552 0)
(1.28478 -0.0907395 2.86329e-20)
(1.40125 -0.0909214 0)
(1.51862 -0.0906608 0)
(1.63637 -0.0899787 -2.80458e-20)
(1.75396 -0.0889126 0)
(1.87093 -0.0875004 -2.76434e-20)
(1.98684 -0.0857825 -5.48774e-20)
(2.10128 -0.0838016 0)
(2.21388 -0.0815951 0)
(2.32433 -0.0792005 0)
(2.43237 -0.0766586 0)
(2.53777 -0.0740007 0)
(2.64035 -0.0712603 -5.23296e-20)
(2.73994 -0.0684661 -5.18926e-20)
(2.83643 -0.0656438 -5.14531e-20)
(2.92975 -0.0628163 0)
(3.01982 -0.0600032 5.05683e-20)
(3.10663 -0.0572217 0)
(3.19015 -0.0544861 -4.9678e-20)
(3.27041 -0.0518083 -4.92317e-20)
(3.34744 -0.0491981 0)
(3.42126 -0.0466632 0)
(3.49195 -0.0442096 0)
(3.55955 -0.0418418 -4.74465e-20)
(3.62415 -0.0395627 0)
(3.68583 -0.0373743 0)
(3.74466 -0.0352775 0)
(3.80074 -0.0332725 0)
(3.85415 -0.0313584 0)
(3.90499 -0.0295341 0)
(3.95335 -0.0277979 0)
(3.99933 -0.0261477 0)
(4.04301 -0.0245811 4.34944e-20)
(4.08449 -0.0230955 0)
(4.12385 -0.021688 0)
(4.16119 -0.0203559 -4.22123e-20)
(4.19659 -0.0190961 -4.17897e-20)
(4.23015 -0.0179056 0)
(4.26192 -0.0167814 4.0952e-20)
(4.29201 -0.0157204 -4.05369e-20)
(4.32049 -0.0147197 0)
(4.34742 -0.0137765 3.97147e-20)
(4.37289 -0.0128877 0)
(4.39696 -0.0120508 0)
(4.4197 -0.011263 -3.85012e-20)
(4.44117 -0.0105217 0)
(4.46144 -0.00982451 3.77057e-20)
(4.48056 -0.00916899 0)
(4.49859 -0.00855286 -3.6921e-20)
(4.51558 -0.00797396 -3.65326e-20)
(4.53159 -0.00743017 -3.6147e-20)
(4.54666 -0.00691955 -7.15281e-20)
(4.56085 -0.00644018 7.07676e-20)
(4.5742 -0.00599029 0)
(4.58674 -0.00556813 0)
(4.59853 -0.00517212 0)
(4.6096 -0.00480067 6.77785e-20)
(4.61999 -0.00445232 6.70444e-20)
(4.62974 -0.00412555 -6.63155e-20)
(4.63887 -0.00381881 0)
(4.64742 -0.00353022 6.48732e-20)
(4.65543 -0.00325798 6.41597e-20)
(4.66291 -0.00300056 6.34513e-20)
(4.66989 -0.00275677 0)
(4.67641 -0.00252581 0)
(4.68247 -0.00230704 0)
(4.68811 -0.00209929 6.06676e-20)
(4.69333 -0.00190164 0)
(4.69817 -0.00171402 0)
(4.70264 -0.00153555 -5.86313e-20)
(4.70676 -0.00136448 0)
(4.71055 -0.00120141 0)
(4.71401 -0.0010473 -5.66378e-20)
(4.71716 -0.000899586 0)
(4.72002 -0.000758571 0)
(4.72261 -0.000628597 5.46862e-20)
(4.72494 -0.000513544 5.40448e-20)
(4.72703 -0.000414633 0)
(4.72891 -0.00033186 -5.27755e-20)
(4.73059 -0.000263954 0)
(4.7321 -0.000208531 5.15238e-20)
(4.73346 -0.000162621 0)
(4.73468 -0.000123511 5.02895e-20)
(4.73576 -8.90769e-05 4.96787e-20)
(4.73672 -5.79469e-05 0)
(4.73757 -2.93318e-05 0)
(4.73831 -2.80407e-06 0)
(4.73894 2.18614e-05 0)
(4.73949 4.48181e-05 0)
(4.73994 6.61986e-05 0)
(4.74031 8.60775e-05 0)
(4.7406 0.000104568 4.49416e-20)
(4.74081 0.000121704 -4.43675e-20)
(4.74096 0.000137605 0)
(4.74104 0.000152316 0)
(4.74106 0.000165958 0)
(4.74103 0.000178573 0)
(4.74093 0.000190269 -8.31091e-20)
(4.74079 0.000201075 0)
(4.7406 0.000211094 8.09111e-20)
(4.74037 0.000220348 -7.9823e-20)
(4.74009 0.000228936 0)
(4.73977 0.000236884 0)
(4.73941 0.000244279 0)
(4.73902 0.000251148 7.5542e-20)
(4.7386 0.000257543 7.44893e-20)
(4.73814 0.000263507 0)
(4.73765 0.000269071 7.24042e-20)
(4.73713 0.000274313 7.13717e-20)
(4.73659 0.000279269 -7.03459e-20)
(4.73602 0.000284017 0)
(4.73542 0.000288587 0)
(4.73479 0.000293051 -6.73076e-20)
(4.73414 0.000297451 0)
(4.73347 0.000301872 0)
(4.73277 0.000306383 0)
(4.73204 0.000311089 0)
(4.73129 0.000316088 6.23704e-20)
(4.73051 0.000321519 6.14014e-20)
(4.72971 0.000327537 0)
(4.72887 0.000334345 5.94813e-20)
(4.72799 0.000342182 0)
(4.72708 0.000351361 0)
(4.72612 0.000362259 5.66451e-20)
(4.72511 0.000375379 0)
(4.72404 0.000391313 5.47829e-20)
(4.7229 0.000410897 0)
(4.72166 0.000435048 0)
(4.72032 0.000465286 5.20319e-20)
(4.71884 0.000502832 0)
(4.7172 0.000550926 5.02258e-20)
(4.71534 0.000610362 0)
(4.71321 0.000689027 0)
(4.71073 0.000785244 0)
(4.70783 0.000915709 -4.66812e-20)
(4.70427 0.0010816 0)
(4.70009 0.0012886 4.49447e-20)
(4.69463 0.0016235 0)
(4.68824 0.00188711 0)
(4.67926 0.00273719 0)
(4.66855 0.00278645 0)
(4.65314 0.00540005 0)
(4.6318 0.0039606 0)
(4.60475 0.0131673 0)
(4.54819 0.00623254 -7.67572e-20)
(4.49849 0.0468794 0)
(4.29349 0.0403681 0)
(-0.0177312 0.0841418 -1.0689e-19)
(-0.0403166 0.0549675 1.06176e-19)
(-0.0580552 0.0535367 0)
(-0.0780757 0.0523393 -6.97755e-20)
(-0.0961968 0.048701 0)
(-0.113101 0.0437145 -3.44181e-20)
(-0.127715 0.0375475 6.83207e-20)
(-0.139908 0.0302521 6.78464e-20)
(-0.149183 0.0217997 0)
(-0.155147 0.0121701 6.6914e-20)
(-0.157307 0.00147618 3.32451e-20)
(-0.15524 -0.0103589 0)
(-0.148675 -0.0231622 0)
(-0.137128 -0.0369493 0)
(-0.120334 -0.0515343 0)
(-0.0980022 -0.0669245 3.21431e-20)
(-0.069741 -0.0829389 0)
(-0.0354083 -0.0993785 -6.34176e-20)
(0.00535997 -0.11612 0)
(0.0527525 -0.133025 0)
(0.106717 -0.149829 6.22056e-20)
(0.167372 -0.166427 0)
(0.234661 -0.18255 -6.14242e-20)
(0.308623 -0.198054 3.05299e-20)
(0.389164 -0.212705 -3.03389e-20)
(0.475857 -0.226349 3.01492e-20)
(0.568393 -0.238847 2.99605e-20)
(0.666413 -0.250053 0)
(0.769424 -0.259827 0)
(0.876904 -0.268087 -2.93971e-20)
(0.988301 -0.274844 2.92025e-20)
(1.10299 -0.279988 0)
(1.22031 -0.283616 0)
(1.33973 -0.285692 -2.86374e-20)
(1.46064 -0.286317 0)
(1.58236 -0.285549 0)
(1.7044 -0.283495 2.80499e-20)
(1.82623 -0.280259 0)
(1.94735 -0.275962 -2.76489e-20)
(2.06732 -0.270727 5.48847e-20)
(2.18575 -0.264681 0)
(2.30226 -0.25795 0)
(2.41655 -0.250642 1.0726e-19)
(2.52836 -0.242879 1.06406e-19)
(2.63747 -0.23476 1.05544e-19)
(2.74371 -0.226384 -5.23395e-20)
(2.84691 -0.217837 5.18982e-20)
(2.94697 -0.209196 1.54379e-19)
(3.04381 -0.200531 -1.02037e-19)
(3.13738 -0.191901 -5.05734e-20)
(3.22766 -0.183356 0)
(3.31463 -0.174941 4.96828e-20)
(3.39831 -0.166691 -4.92383e-20)
(3.47873 -0.158636 0)
(3.55593 -0.150799 0)
(3.62997 -0.143199 0)
(3.70091 -0.13585 4.74508e-20)
(3.76882 -0.128762 0)
(3.83377 -0.12194 -9.31241e-20)
(3.89585 -0.115389 0)
(3.95515 -0.109109 -9.13557e-20)
(4.01175 -0.103099 0)
(4.06574 -0.097357 8.96001e-20)
(4.11721 -0.0918777 0)
(4.16625 -0.0866558 -8.78596e-20)
(4.21294 -0.0816851 4.34978e-20)
(4.25739 -0.0769584 0)
(4.29968 -0.072468 8.52811e-20)
(4.33988 -0.068206 4.22156e-20)
(4.3781 -0.064164 4.17929e-20)
(4.4144 -0.0603336 0)
(4.44888 -0.0567062 4.09548e-20)
(4.4816 -0.0532733 4.05399e-20)
(4.51264 -0.0500266 0)
(4.54209 -0.0469576 -3.97176e-20)
(4.57 -0.0440582 7.86205e-20)
(4.59645 -0.0413204 0)
(4.6215 -0.0387365 3.8504e-20)
(4.64523 -0.036299 0)
(4.66768 -0.0340006 -1.13125e-19)
(4.68892 -0.0318342 0)
(4.70901 -0.0297931 1.1077e-19)
(4.728 -0.0278709 3.65352e-20)
(4.74594 -0.0260613 -3.61493e-20)
(4.76289 -0.0243584 -7.15326e-20)
(4.77889 -0.0227564 7.07721e-20)
(4.794 -0.02125 0)
(4.80824 -0.0198338 0)
(4.82168 -0.0185031 0)
(4.83434 -0.017253 -2.03349e-19)
(4.84627 -0.016079 -6.70491e-20)
(4.8575 -0.0149768 6.63201e-20)
(4.86808 -0.0139421 0)
(4.87803 -0.0129708 6.48773e-20)
(4.88738 -0.0120592 -6.41642e-20)
(4.89619 -0.0112035 -6.34557e-20)
(4.90447 -0.0104004 0)
(4.91225 -0.00964681 0)
(4.91958 -0.00893992 0)
(4.92646 -0.00827698 -6.06719e-20)
(4.93294 -0.00765523 0)
(4.93903 -0.00707249 1.18619e-19)
(4.94476 -0.00652637 1.75906e-19)
(4.95015 -0.0060142 -1.15932e-19)
(4.95523 -0.00553427 0)
(4.96002 -0.00508533 -5.66417e-20)
(4.96453 -0.00466511 0)
(4.96879 -0.00427283 -1.10672e-19)
(4.97281 -0.0039085 5.46901e-20)
(4.97661 -0.00357092 5.40486e-20)
(4.98018 -0.00325993 0)
(4.98355 -0.00297561 1.58338e-19)
(4.98671 -0.00271614 -1.04302e-19)
(4.98967 -0.00247901 -5.15276e-20)
(4.99244 -0.0022615 0)
(4.99503 -0.00206118 -5.02932e-20)
(4.99744 -0.00187597 -1.49047e-19)
(4.99968 -0.00170439 0)
(5.00176 -0.00154529 -9.69468e-20)
(5.0037 -0.00139783 -9.57504e-20)
(5.00549 -0.00126122 -9.45621e-20)
(5.00716 -0.00113475 0)
(5.00871 -0.00101771 0)
(5.01014 -0.000909512 0)
(5.01146 -0.000809523 4.49449e-20)
(5.01269 -0.000717264 4.43708e-20)
(5.01382 -0.000632139 0)
(5.01487 -0.000553699 8.64683e-20)
(5.01583 -0.000481379 8.53431e-20)
(5.01672 -0.000414792 0)
(5.01754 -0.000353442 8.31155e-20)
(5.0183 -0.000297013 1.64025e-19)
(5.019 -0.000245057 -8.09174e-20)
(5.01964 -0.000197306 -7.98291e-20)
(5.02023 -0.000153351 0)
(5.02077 -0.000112954 0)
(5.02127 -7.57558e-05 0)
(5.02172 -4.1542e-05 -7.5548e-20)
(5.02214 -1.00484e-05 7.4495e-20)
(5.02252 1.89442e-05 1.46898e-19)
(5.02287 4.56514e-05 -7.24099e-20)
(5.02319 7.03443e-05 7.13772e-20)
(5.02348 9.32412e-05 7.03515e-20)
(5.02374 0.000114608 0)
(5.02398 0.000134629 0)
(5.0242 0.000153548 -6.73129e-20)
(5.02439 0.000171559 0)
(5.02456 0.000188935 0)
(5.02471 0.000205925 1.28664e-19)
(5.02484 0.000222857 0)
(5.02495 0.000240046 6.23753e-20)
(5.02504 0.000257913 -6.14064e-20)
(5.02511 0.000276907 0)
(5.02516 0.000297618 5.9486e-20)
(5.02518 0.000320719 0)
(5.02518 0.000347083 0)
(5.02514 0.000377756 -5.66497e-20)
(5.02506 0.000414089 1.11431e-19)
(5.02495 0.000457748 -5.47874e-20)
(5.02477 0.000510888 0)
(5.02453 0.000576226 0)
(5.02421 0.000657298 5.20359e-20)
(5.02379 0.000758623 0)
(5.02323 0.000886113 5.02294e-20)
(5.02252 0.00104773 0)
(5.02157 0.00125273 0)
(5.02039 0.00151858 0)
(5.01879 0.00185211 4.66851e-20)
(5.01684 0.00231188 0)
(5.01406 0.00284801 -4.49484e-20)
(5.01087 0.00371873 0)
(5.00588 0.00452494 0)
(5.0006 0.00641818 8.47875e-20)
(4.99125 0.00739701 -8.31187e-20)
(4.98208 0.0122586 0)
(4.9637 0.0126518 0)
(4.94587 0.027731 0)
(4.90899 0.026602 2.30207e-19)
(4.87218 0.0878443 0)
(4.82317 0.105862 -1.47539e-19)
(-0.0181513 0.147821 6.49864e-23)
(-0.0428547 0.0991652 -1.41502e-19)
(-0.0628174 0.0968623 0)
(-0.0852149 0.0943239 1.39512e-19)
(-0.105706 0.0876073 0)
(-0.125082 0.0785268 0)
(-0.142327 0.0674946 -6.12398e-23)
(-0.157257 0.0545194 -6.78579e-20)
(-0.169332 0.0396473 -6.73291e-20)
(-0.178072 0.0229128 -6.69253e-20)
(-0.183127 0.00440403 0)
(-0.183968 -0.0158876 0)
(-0.180157 -0.0378293 6.55124e-20)
(-0.171359 -0.0612812 1.30146e-19)
(-0.157094 -0.0861664 -1.29279e-19)
(-0.137011 -0.112273 0)
(-0.110571 -0.139371 -1.27584e-19)
(-0.0775719 -0.16726 6.3427e-20)
(-0.0377887 -0.195613 0)
(0.00909204 -0.224259 -1.25134e-19)
(0.0631412 -0.252808 -6.22141e-20)
(0.124458 -0.280958 1.2356e-19)
(0.193036 -0.308372 6.14322e-20)
(0.268744 -0.334682 0)
(0.351402 -0.359599 -1.21272e-19)
(0.440629 -0.382825 -1.20523e-19)
(0.536007 -0.404021 0)
(0.637167 -0.422983 -1.19037e-19)
(0.743567 -0.439488 0)
(0.85447 -0.453408 -1.17554e-19)
(0.969273 -0.464648 -5.84167e-20)
(1.08735 -0.473194 0)
(1.208 -0.479069 0)
(1.33055 -0.482304 0)
(1.45435 -0.483079 0)
(1.57878 -0.4815 0)
(1.70326 -0.477743 0)
(1.82725 -0.472011 -1.11412e-19)
(1.95025 -0.464507 1.65903e-19)
(2.07181 -0.455455 0)
(2.19155 -0.445052 0)
(2.30912 -0.433539 0)
(2.42423 -0.421095 7.25545e-24)
(2.53664 -0.407916 -1.0641e-19)
(2.64616 -0.394176 -2.11102e-19)
(2.75262 -0.380035 2.09364e-19)
(2.8559 -0.365636 1.0381e-19)
(2.95592 -0.351107 -1.02924e-19)
(3.05261 -0.336561 -5.09216e-24)
(3.14595 -0.322094 -1.01157e-19)
(3.23592 -0.307788 0)
(3.32254 -0.293714 -9.93738e-20)
(3.40583 -0.279928 -3.1067e-24)
(3.48584 -0.266478 0)
(3.56262 -0.2534 0)
(3.63623 -0.240723 9.57981e-20)
(3.70674 -0.228468 0)
(3.77423 -0.21665 0)
(3.83879 -0.205279 -9.31277e-20)
(3.9005 -0.194359 -1.84481e-19)
(3.95945 -0.18389 9.13569e-20)
(4.01572 -0.17387 0)
(4.06941 -0.164294 -8.96012e-20)
(4.1206 -0.155153 0)
(4.1694 -0.146438 -8.78608e-20)
(4.21588 -0.13814 -8.69965e-20)
(4.26014 -0.130244 1.72274e-19)
(4.30227 -0.122739 8.52816e-20)
(4.34234 -0.115612 0)
(4.38044 -0.108849 -1.67172e-19)
(4.41666 -0.102435 0)
(4.45107 -0.0963564 -2.4573e-19)
(4.48375 -0.0905999 -1.6216e-19)
(4.51477 -0.0851513 -1.6051e-19)
(4.5442 -0.0799971 1.5887e-19)
(4.57212 -0.0751238 -2.35862e-19)
(4.59859 -0.0705185 0)
(4.62368 -0.0661685 0)
(4.64745 -0.0620616 1.52419e-19)
(4.66996 -0.0581858 2.2625e-19)
(4.69127 -0.0545298 0)
(4.71143 -0.0510825 -7.3847e-20)
(4.73049 -0.0478333 0)
(4.74852 -0.0447722 2.16896e-19)
(4.76556 -0.0418893 4.87546e-25)
(4.78165 -0.0391753 -4.69389e-25)
(4.79685 -0.0366213 -1.40034e-19)
(4.8112 -0.0342189 0)
(4.82473 -0.0319599 1.37044e-19)
(4.83749 -0.0298365 3.94903e-25)
(4.84952 -0.0278415 0)
(4.86085 -0.0259678 0)
(4.87152 -0.0242088 0)
(4.88157 -0.0225588 -1.29755e-19)
(4.89102 -0.0210117 0)
(4.89991 -0.0195619 0)
(4.90827 -0.0182037 0)
(4.91612 -0.0169319 0)
(4.9235 -0.0157413 0)
(4.93042 -0.0146273 -1.21343e-19)
(4.93692 -0.0135857 0)
(4.94302 -0.0126122 -1.18619e-19)
(4.94873 -0.0117025 -1.17271e-19)
(4.95409 -0.0108528 1.15932e-19)
(4.9591 -0.01006 0)
(4.9638 -0.00932057 1.13284e-19)
(4.9682 -0.00863164 0)
(4.97231 -0.00798959 1.10672e-19)
(4.97616 -0.00739043 -1.09381e-19)
(4.97976 -0.00683156 -3.24293e-19)
(4.98313 -0.00631226 0)
(4.98627 -0.00582937 -3.16676e-19)
(4.98921 -0.00537929 -1.04302e-19)
(4.99194 -0.00495926 0)
(4.99449 -0.00456703 -2.03633e-19)
(4.99686 -0.00420078 -2.01173e-19)
(4.99907 -0.00385912 2.98095e-19)
(5.00113 -0.00354087 0)
(5.00304 -0.00324494 9.69471e-20)
(5.00481 -0.00297019 9.57506e-20)
(5.00647 -0.00271541 2.83687e-19)
(5.008 -0.00247934 0)
(5.00942 -0.00226077 0)
(5.01074 -0.00205857 0)
(5.01196 -0.0018717 8.989e-20)
(5.0131 -0.00169915 0)
(5.01415 -0.00153994 0)
(5.01512 -0.00139314 -8.64685e-20)
(5.01602 -0.00125783 -8.53434e-20)
(5.01685 -0.00113319 0)
(5.01763 -0.00101842 0)
(5.01834 -0.00091283 -1.64026e-19)
(5.01899 -0.0008157 0)
(5.0196 -0.000726416 1.59659e-19)
(5.02016 -0.000644338 1.57497e-19)
(5.02068 -0.00056892 0)
(5.02116 -0.000499604 0)
(5.0216 -0.000435932 -1.51096e-19)
(5.02201 -0.000377449 -7.28144e-26)
(5.02238 -0.000323736 -7.23246e-26)
(5.02272 -0.000274355 0)
(5.02304 -0.000228841 -2.8551e-19)
(5.02333 -0.000186767 0)
(5.0236 -0.000147705 0)
(5.02384 -0.000111289 0)
(5.02407 -7.71265e-05 1.34626e-19)
(5.02427 -4.48431e-05 0)
(5.02446 -1.39989e-05 -2.61277e-19)
(5.02462 1.58478e-05 -1.28664e-19)
(5.02477 4.52178e-05 0)
(5.0249 7.46617e-05 -1.24751e-19)
(5.02501 0.000104845 0)
(5.0251 0.000136517 0)
(5.02517 0.000170605 -3.56917e-19)
(5.02522 0.000208205 2.34139e-19)
(5.02524 0.000250683 0)
(5.02522 0.000299714 2.26599e-19)
(5.02517 0.000357398 -1.11431e-19)
(5.02508 0.000426405 0)
(5.02493 0.000510024 0)
(5.02472 0.000612718 0)
(5.02442 0.00073956 -3.12216e-19)
(5.02402 0.000898598 0)
(5.02348 0.00109697 -1.0046e-19)
(5.02278 0.00135125 0)
(5.02185 0.00166781 0)
(5.02067 0.002088 0)
(5.01908 0.00259896 0)
(5.01709 0.0033244 0)
(5.01436 0.0041507 0)
(5.011 0.00548393 -1.76349e-19)
(5.00623 0.00681258 0)
(5.00046 0.00947501 -8.47879e-20)
(4.99183 0.0116215 2.49342e-19)
(4.98153 0.0175557 0)
(4.96537 0.0214185 0)
(4.94616 0.0370352 -1.56478e-19)
(4.91651 0.0478287 -1.53445e-19)
(4.88309 0.0976053 1.50295e-19)
(4.84302 0.139335 1.47544e-19)
(-0.0195618 0.216377 2.13433e-19)
(-0.0485698 0.149623 2.12009e-19)
(-0.0729591 0.146815 1.4028e-19)
(-0.0999798 0.142968 6.95552e-20)
(-0.125078 0.133248 0)
(-0.149018 0.120261 -1.37347e-19)
(-0.170769 0.104473 6.8107e-20)
(-0.190184 0.0859151 0)
(-0.206613 0.0646565 6.73412e-20)
(-0.219604 0.0407499 0)
(-0.228744 0.0141826 -1.32672e-19)
(-0.233481 -0.0148857 0)
(-0.233241 -0.0464129 -6.5524e-20)
(-0.227599 -0.0802121 -1.30169e-19)
(-0.216114 -0.116101 1.29302e-19)
(-0.198175 -0.153789 0)
(-0.173401 -0.192969 1.27605e-19)
(-0.141462 -0.233383 0)
(-0.102025 -0.274604 0)
(-0.0548065 -0.316217 1.25153e-19)
(0.000360115 -0.3577 0)
(0.0634766 -0.398607 -1.23875e-22)
(0.134555 -0.438402 0)
(0.213485 -0.476593 0)
(0.299995 -0.512669 9.70704e-23)
(0.393674 -0.546177 1.20538e-19)
(0.494043 -0.576676 1.19717e-19)
(0.600511 -0.603811 1.19051e-19)
(0.712427 -0.627297 0)
(0.829044 -0.646971 2.35087e-19)
(0.949621 -0.662675 0)
(1.07333 -0.674401 1.16044e-19)
(1.19943 -0.682213 0)
(1.32715 -0.686228 0)
(1.45577 -0.686637 -1.13777e-19)
(1.58462 -0.683681 0)
(1.71308 -0.677637 1.12217e-19)
(1.84057 -0.668806 -3.31263e-24)
(1.96661 -0.657488 -2.21226e-19)
(2.09076 -0.644032 2.19598e-19)
(2.21263 -0.628744 0)
(2.3319 -0.611925 0)
(2.44833 -0.593876 1.07297e-19)
(2.56171 -0.574857 0)
(2.67186 -0.555116 1.05559e-19)
(2.77868 -0.534878 -1.04689e-19)
(2.88207 -0.514341 -1.03814e-19)
(2.98199 -0.493679 0)
(3.07839 -0.473045 1.02048e-19)
(3.17129 -0.452569 1.0116e-19)
(3.26069 -0.432361 -2.00549e-19)
(3.34664 -0.412514 9.93763e-20)
(3.42919 -0.393102 9.84824e-20)
(3.5084 -0.374187 0)
(3.58432 -0.355815 0)
(3.65706 -0.338023 -9.57999e-20)
(3.72668 -0.320838 0)
(3.79327 -0.304275 0)
(3.85693 -0.288347 1.86256e-19)
(3.91775 -0.273057 1.84484e-19)
(3.97582 -0.258403 0)
(4.03123 -0.24438 0)
(4.08409 -0.23098 0)
(4.13448 -0.218191 0)
(4.1825 -0.205998 1.75723e-19)