/*--------------------------------*- C++ -*----------------------------------*\
  =========                 |
  \\      /  F ield         | OpenFOAM: The Open Source CFD Toolbox
   \\    /   O peration     | Website:  https://openfoam.org
    \\  /    A nd           | Version:  10
     \\/     M anipulation  |
\*---------------------------------------------------------------------------*/
FoamFile
{
    format      ascii;
    class       volScalarField;
    location    "0.94";
    object      p;
}
// * * * * * * * * * * * * * * * * * * * * * * * * * * * * * * * * * * * * * //

dimensions      [1 -1 -2 0 0 0 0];

internalField   nonuniform List<scalar> 
12225
(
1.57446e+07
1.5686e+07
1.55811e+07
1.54426e+07
1.52816e+07
1.51064e+07
1.49228e+07
1.47348e+07
1.45447e+07
1.43539e+07
1.41632e+07
1.39725e+07
1.37814e+07
1.35889e+07
1.3393e+07
1.31902e+07
1.29738e+07
1.27262e+07
1.57469e+07
1.56881e+07
1.55829e+07
1.5444e+07
1.52827e+07
1.51073e+07
1.49235e+07
1.47354e+07
1.45452e+07
1.43545e+07
1.41638e+07
1.39733e+07
1.37824e+07
1.35901e+07
1.33948e+07
1.31933e+07
1.298e+07
1.27445e+07
1.57522e+07
1.56928e+07
1.55867e+07
1.54471e+07
1.52852e+07
1.51092e+07
1.49251e+07
1.47367e+07
1.45465e+07
1.43557e+07
1.41652e+07
1.39749e+07
1.37844e+07
1.35929e+07
1.33988e+07
1.31997e+07
1.2992e+07
1.2772e+07
1.57609e+07
1.57006e+07
1.55932e+07
1.54522e+07
1.52891e+07
1.51123e+07
1.49276e+07
1.47389e+07
1.45485e+07
1.43577e+07
1.41674e+07
1.39775e+07
1.37877e+07
1.35973e+07
1.34052e+07
1.32096e+07
1.3009e+07
1.2804e+07
1.57737e+07
1.57121e+07
1.56027e+07
1.54597e+07
1.52949e+07
1.51168e+07
1.49313e+07
1.4742e+07
1.45513e+07
1.43607e+07
1.41706e+07
1.39812e+07
1.37924e+07
1.36036e+07
1.3414e+07
1.32228e+07
1.303e+07
1.28383e+07
1.57917e+07
1.5728e+07
1.56158e+07
1.547e+07
1.53028e+07
1.5123e+07
1.49362e+07
1.47462e+07
1.45552e+07
1.43646e+07
1.41748e+07
1.39863e+07
1.37987e+07
1.36118e+07
1.34253e+07
1.32391e+07
1.3054e+07
1.28735e+07
1.58158e+07
1.57493e+07
1.56331e+07
1.54834e+07
1.53131e+07
1.51309e+07
1.49426e+07
1.47516e+07
1.45602e+07
1.43696e+07
1.41803e+07
1.39927e+07
1.38066e+07
1.36221e+07
1.34391e+07
1.3258e+07
1.30802e+07
1.2909e+07
1.58474e+07
1.57771e+07
1.56554e+07
1.55006e+07
1.53261e+07
1.51409e+07
1.49505e+07
1.47584e+07
1.45664e+07
1.43758e+07
1.41871e+07
1.40005e+07
1.38163e+07
1.36344e+07
1.34551e+07
1.32791e+07
1.31081e+07
1.29447e+07
1.58882e+07
1.58125e+07
1.56836e+07
1.5522e+07
1.53421e+07
1.51531e+07
1.49602e+07
1.47665e+07
1.45739e+07
1.43832e+07
1.41952e+07
1.40099e+07
1.38276e+07
1.36485e+07
1.34731e+07
1.33021e+07
1.31372e+07
1.29803e+07
1.59405e+07
1.58573e+07
1.57185e+07
1.5548e+07
1.53613e+07
1.51675e+07
1.49715e+07
1.4776e+07
1.45825e+07
1.43919e+07
1.42046e+07
1.40207e+07
1.38406e+07
1.36644e+07
1.34928e+07
1.33266e+07
1.3167e+07
1.30156e+07
1.60073e+07
1.59132e+07
1.5761e+07
1.5579e+07
1.53838e+07
1.51842e+07
1.49844e+07
1.47868e+07
1.45924e+07
1.44018e+07
1.42152e+07
1.40329e+07
1.3855e+07
1.36818e+07
1.3514e+07
1.33521e+07
1.31973e+07
1.30506e+07
1.60856e+07
1.59769e+07
1.58078e+07
1.56122e+07
1.54073e+07
1.52012e+07
1.49975e+07
1.47977e+07
1.46023e+07
1.44117e+07
1.42259e+07
1.40451e+07
1.38693e+07
1.36989e+07
1.35343e+07
1.33761e+07
1.32252e+07
1.30822e+07
1.61817e+07
1.60523e+07
1.58612e+07
1.56487e+07
1.54326e+07
1.52193e+07
1.50113e+07
1.48091e+07
1.46127e+07
1.44221e+07
1.42372e+07
1.40578e+07
1.38842e+07
1.37164e+07
1.3555e+07
1.34002e+07
1.32527e+07
1.3113e+07
1.63233e+07
1.61568e+07
1.59308e+07
1.56943e+07
1.54629e+07
1.52405e+07
1.50272e+07
1.48222e+07
1.46248e+07
1.44343e+07
1.42505e+07
1.40729e+07
1.39017e+07
1.3737e+07
1.35788e+07
1.34276e+07
1.32837e+07
1.31473e+07
1.65426e+07
1.63015e+07
1.60184e+07
1.57475e+07
1.54966e+07
1.52632e+07
1.50439e+07
1.4836e+07
1.46377e+07
1.44477e+07
1.42653e+07
1.409e+07
1.39217e+07
1.37601e+07
1.36055e+07
1.3458e+07
1.33176e+07
1.31845e+07
1.69107e+07
1.64933e+07
1.61156e+07
1.57995e+07
1.55266e+07
1.52823e+07
1.50578e+07
1.48479e+07
1.46495e+07
1.44607e+07
1.42805e+07
1.4108e+07
1.39429e+07
1.3785e+07
1.36341e+07
1.34903e+07
1.33535e+07
1.32237e+07
1.76155e+07
1.66838e+07
1.61773e+07
1.58222e+07
1.55356e+07
1.52864e+07
1.50609e+07
1.4852e+07
1.46558e+07
1.44699e+07
1.42931e+07
1.41244e+07
1.39632e+07
1.38094e+07
1.36627e+07
1.35228e+07
1.33897e+07
1.32631e+07
1.67423e+07
1.63927e+07
1.60496e+07
1.57515e+07
1.54902e+07
1.52555e+07
1.50398e+07
1.48387e+07
1.46491e+07
1.44693e+07
1.42982e+07
1.41349e+07
1.3979e+07
1.38301e+07
1.3688e+07
1.35524e+07
1.34232e+07
1.33001e+07
1.61464e+07
1.60014e+07
1.58013e+07
1.55886e+07
1.53789e+07
1.51769e+07
1.49837e+07
1.47989e+07
1.46221e+07
1.44527e+07
1.42904e+07
1.41348e+07
1.39857e+07
1.38429e+07
1.37062e+07
1.35755e+07
1.34506e+07
1.33313e+07
1.58013e+07
1.57175e+07
1.55837e+07
1.54251e+07
1.52561e+07
1.50843e+07
1.49137e+07
1.47463e+07
1.45831e+07
1.44247e+07
1.42715e+07
1.41235e+07
1.3981e+07
1.38438e+07
1.37121e+07
1.35856e+07
1.34644e+07
1.33483e+07
1.56024e+07
1.55417e+07
1.54385e+07
1.53089e+07
1.51644e+07
1.50125e+07
1.48576e+07
1.47028e+07
1.45497e+07
1.43996e+07
1.42532e+07
1.4111e+07
1.39733e+07
1.38403e+07
1.37121e+07
1.35887e+07
1.34701e+07
1.33562e+07
1.54699e+07
1.54209e+07
1.53345e+07
1.52225e+07
1.50941e+07
1.49558e+07
1.48124e+07
1.46669e+07
1.45216e+07
1.43779e+07
1.42368e+07
1.40991e+07
1.39651e+07
1.38353e+07
1.37098e+07
1.35888e+07
1.34722e+07
1.33601e+07
1.53799e+07
1.53373e+07
1.5261e+07
1.516e+07
1.5042e+07
1.49132e+07
1.47778e+07
1.46391e+07
1.44994e+07
1.43604e+07
1.42233e+07
1.40889e+07
1.39578e+07
1.38303e+07
1.37069e+07
1.35876e+07
1.34725e+07
1.33617e+07
1.53184e+07
1.52797e+07
1.52095e+07
1.51156e+07
1.50046e+07
1.4882e+07
1.47522e+07
1.46183e+07
1.44827e+07
1.43471e+07
1.42128e+07
1.40808e+07
1.39518e+07
1.38261e+07
1.37041e+07
1.35861e+07
1.34721e+07
1.33621e+07
1.52767e+07
1.52404e+07
1.51741e+07
1.50847e+07
1.49783e+07
1.486e+07
1.4734e+07
1.46033e+07
1.44705e+07
1.43373e+07
1.42051e+07
1.40748e+07
1.39472e+07
1.38227e+07
1.37018e+07
1.35847e+07
1.34714e+07
1.33621e+07
1.5249e+07
1.52141e+07
1.51503e+07
1.50638e+07
1.49604e+07
1.4845e+07
1.47214e+07
1.4593e+07
1.44621e+07
1.43305e+07
1.41996e+07
1.40705e+07
1.39438e+07
1.38202e+07
1.37e+07
1.35835e+07
1.34708e+07
1.33619e+07
1.52311e+07
1.51972e+07
1.51349e+07
1.50503e+07
1.49487e+07
1.48351e+07
1.47132e+07
1.45862e+07
1.44564e+07
1.43259e+07
1.41959e+07
1.40675e+07
1.39415e+07
1.38185e+07
1.36988e+07
1.35826e+07
1.34702e+07
1.33617e+07
1.52203e+07
1.51869e+07
1.51256e+07
1.5042e+07
1.49416e+07
1.4829e+07
1.47081e+07
1.45819e+07
1.4453e+07
1.43231e+07
1.41936e+07
1.40657e+07
1.39401e+07
1.38174e+07
1.36979e+07
1.3582e+07
1.34699e+07
1.33615e+07
1.52144e+07
1.51813e+07
1.51205e+07
1.50375e+07
1.49377e+07
1.48257e+07
1.47053e+07
1.45796e+07
1.44511e+07
1.43215e+07
1.41924e+07
1.40647e+07
1.39393e+07
1.38168e+07
1.36975e+07
1.35817e+07
1.34696e+07
1.33614e+07
1.52121e+07
1.51791e+07
1.51184e+07
1.50357e+07
1.49361e+07
1.48244e+07
1.47042e+07
1.45787e+07
1.44503e+07
1.43209e+07
1.41918e+07
1.40643e+07
1.3939e+07
1.38165e+07
1.36973e+07
1.35816e+07
1.34696e+07
1.33613e+07
1.07182e+07
1.07182e+07
1.07181e+07
1.0718e+07
1.07179e+07
1.07178e+07
1.07176e+07
1.07173e+07
1.07171e+07
1.07168e+07
1.07165e+07
1.07161e+07
1.07157e+07
1.07153e+07
1.07148e+07
1.07143e+07
1.07138e+07
1.07132e+07
1.07126e+07
1.07119e+07
1.07112e+07
1.07105e+07
1.07098e+07
1.0709e+07
1.07081e+07
1.07073e+07
1.07064e+07
1.07055e+07
1.07045e+07
1.07035e+07
1.07025e+07
1.07014e+07
1.07003e+07
1.06992e+07
1.0698e+07
1.06968e+07
1.06956e+07
1.06944e+07
1.06931e+07
1.06918e+07
1.06904e+07
1.0689e+07
1.06876e+07
1.06862e+07
1.06848e+07
1.06833e+07
1.06818e+07
1.06802e+07
1.06787e+07
1.06771e+07
1.06754e+07
1.06738e+07
1.06721e+07
1.06704e+07
1.06687e+07
1.06669e+07
1.06652e+07
1.06634e+07
1.06615e+07
1.06597e+07
1.06578e+07
1.06559e+07
1.0654e+07
1.06521e+07
1.06501e+07
1.06481e+07
1.06461e+07
1.0644e+07
1.0642e+07
1.06399e+07
1.06378e+07
1.06357e+07
1.06335e+07
1.06313e+07
1.06291e+07
1.06269e+07
1.06247e+07
1.06224e+07
1.06201e+07
1.06178e+07
1.06155e+07
1.06131e+07
1.06107e+07
1.06083e+07
1.06059e+07
1.06034e+07
1.0601e+07
1.05985e+07
1.0596e+07
1.05934e+07
1.05909e+07
1.05883e+07
1.05857e+07
1.05831e+07
1.05804e+07
1.05778e+07
1.05751e+07
1.05723e+07
1.05696e+07
1.05668e+07
1.05641e+07
1.05612e+07
1.05584e+07
1.05556e+07
1.05527e+07
1.05498e+07
1.05468e+07
1.05439e+07
1.05409e+07
1.05379e+07
1.05349e+07
1.05318e+07
1.05288e+07
1.05257e+07
1.05226e+07
1.05194e+07
1.05162e+07
1.0513e+07
1.05098e+07
1.05066e+07
1.05033e+07
1.05e+07
1.04967e+07
1.04933e+07
1.04899e+07
1.04865e+07
1.04831e+07
1.04796e+07
1.04762e+07
1.04727e+07
1.04691e+07
1.04655e+07
1.04619e+07
1.04583e+07
1.04547e+07
1.0451e+07
1.04473e+07
1.04435e+07
1.04398e+07
1.0436e+07
1.04321e+07
1.04283e+07
1.04244e+07
1.04205e+07
1.04165e+07
1.04126e+07
1.04085e+07
1.04045e+07
1.04004e+07
1.03963e+07
1.03922e+07
1.0388e+07
1.03838e+07
1.03796e+07
1.03753e+07
1.0371e+07
1.03667e+07
1.03623e+07
1.03579e+07
1.03535e+07
1.0349e+07
1.03445e+07
1.034e+07
1.03354e+07
1.03308e+07
1.03262e+07
1.03215e+07
1.03168e+07
1.0312e+07
1.03072e+07
1.03024e+07
1.02976e+07
1.02927e+07
1.02878e+07
1.02828e+07
1.02779e+07
1.02729e+07
1.02679e+07
1.02629e+07
1.0258e+07
1.07184e+07
1.07183e+07
1.07183e+07
1.07182e+07
1.0718e+07
1.07179e+07
1.07177e+07
1.07175e+07
1.07172e+07
1.07169e+07
1.07166e+07
1.07162e+07
1.07158e+07
1.07154e+07
1.07149e+07
1.07144e+07
1.07139e+07
1.07133e+07
1.07127e+07
1.0712e+07
1.07113e+07
1.07106e+07
1.07099e+07
1.07091e+07
1.07082e+07
1.07074e+07
1.07065e+07
1.07055e+07
1.07046e+07
1.07036e+07
1.07025e+07
1.07015e+07
1.07004e+07
1.06992e+07
1.06981e+07
1.06969e+07
1.06957e+07
1.06944e+07
1.06931e+07
1.06918e+07
1.06905e+07
1.06891e+07
1.06877e+07
1.06863e+07
1.06848e+07
1.06833e+07
1.06818e+07
1.06802e+07
1.06787e+07
1.06771e+07
1.06755e+07
1.06738e+07
1.06721e+07
1.06704e+07
1.06687e+07
1.0667e+07
1.06652e+07
1.06634e+07
1.06616e+07
1.06597e+07
1.06578e+07
1.06559e+07
1.0654e+07
1.06521e+07
1.06501e+07
1.06481e+07
1.06461e+07
1.0644e+07
1.0642e+07
1.06399e+07
1.06378e+07
1.06357e+07
1.06335e+07
1.06313e+07
1.06291e+07
1.06269e+07
1.06247e+07
1.06224e+07
1.06201e+07
1.06178e+07
1.06155e+07
1.06131e+07
1.06107e+07
1.06083e+07
1.06059e+07
1.06034e+07
1.0601e+07
1.05985e+07
1.0596e+07
1.05934e+07
1.05909e+07
1.05883e+07
1.05857e+07
1.05831e+07
1.05804e+07
1.05777e+07
1.05751e+07
1.05723e+07
1.05696e+07
1.05668e+07
1.0564e+07
1.05612e+07
1.05584e+07
1.05556e+07
1.05527e+07
1.05498e+07
1.05468e+07
1.05439e+07
1.05409e+07
1.05379e+07
1.05349e+07
1.05318e+07
1.05288e+07
1.05257e+07
1.05226e+07
1.05194e+07
1.05162e+07
1.0513e+07
1.05098e+07
1.05066e+07
1.05033e+07
1.05e+07
1.04967e+07
1.04933e+07
1.04899e+07
1.04865e+07
1.04831e+07
1.04796e+07
1.04762e+07
1.04726e+07
1.04691e+07
1.04655e+07
1.04619e+07
1.04583e+07
1.04547e+07
1.0451e+07
1.04473e+07
1.04435e+07
1.04398e+07
1.0436e+07
1.04321e+07
1.04283e+07
1.04244e+07
1.04205e+07
1.04165e+07
1.04126e+07
1.04085e+07
1.04045e+07
1.04004e+07
1.03963e+07
1.03922e+07
1.0388e+07
1.03838e+07
1.03796e+07
1.03753e+07
1.0371e+07
1.03667e+07
1.03623e+07
1.03579e+07
1.03535e+07
1.0349e+07
1.03445e+07
1.034e+07
1.03354e+07
1.03308e+07
1.03262e+07
1.03215e+07
1.03168e+07
1.0312e+07
1.03072e+07
1.03024e+07
1.02976e+07
1.02927e+07
1.02878e+07
1.02828e+07
1.02779e+07
1.02729e+07
1.02679e+07
1.02629e+07
1.02579e+07
1.07186e+07
1.07186e+07
1.07185e+07
1.07184e+07
1.07183e+07
1.07182e+07
1.0718e+07
1.07177e+07
1.07175e+07
1.07172e+07
1.07168e+07
1.07165e+07
1.07161e+07
1.07156e+07
1.07151e+07
1.07146e+07
1.07141e+07
1.07135e+07
1.07129e+07
1.07122e+07
1.07115e+07
1.07108e+07
1.071e+07
1.07092e+07
1.07084e+07
1.07075e+07
1.07066e+07
1.07057e+07
1.07047e+07
1.07037e+07
1.07027e+07
1.07016e+07
1.07005e+07
1.06994e+07
1.06982e+07
1.0697e+07
1.06958e+07
1.06945e+07
1.06932e+07
1.06919e+07
1.06905e+07
1.06892e+07
1.06878e+07
1.06863e+07
1.06849e+07
1.06834e+07
1.06819e+07
1.06803e+07
1.06787e+07
1.06771e+07
1.06755e+07
1.06739e+07
1.06722e+07
1.06705e+07
1.06688e+07
1.0667e+07
1.06652e+07
1.06634e+07
1.06616e+07
1.06597e+07
1.06579e+07
1.0656e+07
1.0654e+07
1.06521e+07
1.06501e+07
1.06481e+07
1.06461e+07
1.06441e+07
1.0642e+07
1.06399e+07
1.06378e+07
1.06357e+07
1.06335e+07
1.06313e+07
1.06291e+07
1.06269e+07
1.06247e+07
1.06224e+07
1.06201e+07
1.06178e+07
1.06155e+07
1.06131e+07
1.06107e+07
1.06083e+07
1.06059e+07
1.06035e+07
1.0601e+07
1.05985e+07
1.0596e+07
1.05934e+07
1.05909e+07
1.05883e+07
1.05857e+07
1.05831e+07
1.05804e+07
1.05778e+07
1.05751e+07
1.05723e+07
1.05696e+07
1.05668e+07
1.0564e+07
1.05612e+07
1.05584e+07
1.05555e+07
1.05527e+07
1.05498e+07
1.05468e+07
1.05439e+07
1.05409e+07
1.05379e+07
1.05349e+07
1.05318e+07
1.05288e+07
1.05257e+07
1.05226e+07
1.05194e+07
1.05162e+07
1.0513e+07
1.05098e+07
1.05066e+07
1.05033e+07
1.05e+07
1.04967e+07
1.04933e+07
1.04899e+07
1.04865e+07
1.04831e+07
1.04796e+07
1.04762e+07
1.04726e+07
1.04691e+07
1.04655e+07
1.04619e+07
1.04583e+07
1.04547e+07
1.0451e+07
1.04473e+07
1.04435e+07
1.04398e+07
1.0436e+07
1.04321e+07
1.04283e+07
1.04244e+07
1.04205e+07
1.04165e+07
1.04125e+07
1.04085e+07
1.04045e+07
1.04004e+07
1.03963e+07
1.03922e+07
1.0388e+07
1.03838e+07
1.03796e+07
1.03753e+07
1.0371e+07
1.03667e+07
1.03623e+07
1.03579e+07
1.03535e+07
1.0349e+07
1.03445e+07
1.034e+07
1.03354e+07
1.03308e+07
1.03261e+07
1.03215e+07
1.03168e+07
1.0312e+07
1.03072e+07
1.03024e+07
1.02976e+07
1.02927e+07
1.02878e+07
1.02828e+07
1.02779e+07
1.02729e+07
1.02679e+07
1.02629e+07
1.02579e+07
1.0719e+07
1.0719e+07
1.07189e+07
1.07188e+07
1.07187e+07
1.07186e+07
1.07184e+07
1.07181e+07
1.07179e+07
1.07176e+07
1.07172e+07
1.07168e+07
1.07164e+07
1.0716e+07
1.07155e+07
1.0715e+07
1.07144e+07
1.07138e+07
1.07132e+07
1.07125e+07
1.07118e+07
1.07111e+07
1.07103e+07
1.07095e+07
1.07087e+07
1.07078e+07
1.07069e+07
1.07059e+07
1.07049e+07
1.07039e+07
1.07029e+07
1.07018e+07
1.07007e+07
1.06995e+07
1.06984e+07
1.06972e+07
1.06959e+07
1.06947e+07
1.06934e+07
1.0692e+07
1.06907e+07
1.06893e+07
1.06879e+07
1.06864e+07
1.0685e+07
1.06835e+07
1.06819e+07
1.06804e+07
1.06788e+07
1.06772e+07
1.06756e+07
1.06739e+07
1.06723e+07
1.06705e+07
1.06688e+07
1.06671e+07
1.06653e+07
1.06635e+07
1.06616e+07
1.06598e+07
1.06579e+07
1.0656e+07
1.06541e+07
1.06521e+07
1.06502e+07
1.06482e+07
1.06461e+07
1.06441e+07
1.0642e+07
1.06399e+07
1.06378e+07
1.06357e+07
1.06335e+07
1.06314e+07
1.06292e+07
1.06269e+07
1.06247e+07
1.06224e+07
1.06201e+07
1.06178e+07
1.06155e+07
1.06131e+07
1.06107e+07
1.06083e+07
1.06059e+07
1.06035e+07
1.0601e+07
1.05985e+07
1.0596e+07
1.05934e+07
1.05909e+07
1.05883e+07
1.05857e+07
1.05831e+07
1.05804e+07
1.05778e+07
1.05751e+07
1.05723e+07
1.05696e+07
1.05668e+07
1.0564e+07
1.05612e+07
1.05584e+07
1.05556e+07
1.05527e+07
1.05498e+07
1.05468e+07
1.05439e+07
1.05409e+07
1.05379e+07
1.05349e+07
1.05318e+07
1.05288e+07
1.05257e+07
1.05226e+07
1.05194e+07
1.05162e+07
1.0513e+07
1.05098e+07
1.05066e+07
1.05033e+07
1.05e+07
1.04967e+07
1.04933e+07
1.04899e+07
1.04865e+07
1.04831e+07
1.04796e+07
1.04762e+07
1.04726e+07
1.04691e+07
1.04655e+07
1.04619e+07
1.04583e+07
1.04547e+07
1.0451e+07
1.04473e+07
1.04435e+07
1.04398e+07
1.0436e+07
1.04321e+07
1.04283e+07
1.04244e+07
1.04205e+07
1.04165e+07
1.04125e+07
1.04085e+07
1.04045e+07
1.04004e+07
1.03963e+07
1.03922e+07
1.0388e+07
1.03838e+07
1.03796e+07
1.03753e+07
1.0371e+07
1.03667e+07
1.03623e+07
1.03579e+07
1.03535e+07
1.0349e+07
1.03445e+07
1.034e+07
1.03354e+07
1.03308e+07
1.03261e+07
1.03215e+07
1.03168e+07
1.0312e+07
1.03072e+07
1.03024e+07
1.02976e+07
1.02927e+07
1.02878e+07
1.02828e+07
1.02778e+07
1.02728e+07
1.02678e+07
1.02628e+07
1.02578e+07
1.07196e+07
1.07196e+07
1.07195e+07
1.07194e+07
1.07193e+07
1.07191e+07
1.07189e+07
1.07186e+07
1.07184e+07
1.07181e+07
1.07177e+07
1.07173e+07
1.07169e+07
1.07165e+07
1.0716e+07
1.07154e+07
1.07149e+07
1.07143e+07
1.07136e+07
1.07129e+07
1.07122e+07
1.07115e+07
1.07107e+07
1.07099e+07
1.0709e+07
1.07081e+07
1.07072e+07
1.07062e+07
1.07052e+07
1.07042e+07
1.07031e+07
1.07021e+07
1.07009e+07
1.06998e+07
1.06986e+07
1.06974e+07
1.06961e+07
1.06948e+07
1.06935e+07
1.06922e+07
1.06908e+07
1.06895e+07
1.0688e+07
1.06866e+07
1.06851e+07
1.06836e+07
1.06821e+07
1.06805e+07
1.06789e+07
1.06773e+07
1.06757e+07
1.0674e+07
1.06723e+07
1.06706e+07
1.06689e+07
1.06671e+07
1.06654e+07
1.06635e+07
1.06617e+07
1.06599e+07
1.0658e+07
1.06561e+07
1.06541e+07
1.06522e+07
1.06502e+07
1.06482e+07
1.06462e+07
1.06441e+07
1.06421e+07
1.064e+07
1.06379e+07
1.06357e+07
1.06336e+07
1.06314e+07
1.06292e+07
1.0627e+07
1.06247e+07
1.06224e+07
1.06201e+07
1.06178e+07
1.06155e+07
1.06131e+07
1.06108e+07
1.06083e+07
1.06059e+07
1.06035e+07
1.0601e+07
1.05985e+07
1.0596e+07
1.05935e+07
1.05909e+07
1.05883e+07
1.05857e+07
1.05831e+07
1.05804e+07
1.05778e+07
1.05751e+07
1.05723e+07
1.05696e+07
1.05668e+07
1.05641e+07
1.05612e+07
1.05584e+07
1.05556e+07
1.05527e+07
1.05498e+07
1.05468e+07
1.05439e+07
1.05409e+07
1.05379e+07
1.05349e+07
1.05318e+07
1.05288e+07
1.05257e+07
1.05226e+07
1.05194e+07
1.05162e+07
1.0513e+07
1.05098e+07
1.05066e+07
1.05033e+07
1.05e+07
1.04967e+07
1.04933e+07
1.04899e+07
1.04865e+07
1.04831e+07
1.04796e+07
1.04762e+07
1.04726e+07
1.04691e+07
1.04655e+07
1.04619e+07
1.04583e+07
1.04547e+07
1.0451e+07
1.04473e+07
1.04435e+07
1.04398e+07
1.0436e+07
1.04321e+07
1.04283e+07
1.04244e+07
1.04205e+07
1.04165e+07
1.04125e+07
1.04085e+07
1.04045e+07
1.04004e+07
1.03963e+07
1.03922e+07
1.0388e+07
1.03838e+07
1.03796e+07
1.03753e+07
1.0371e+07
1.03667e+07
1.03623e+07
1.03579e+07
1.03535e+07
1.0349e+07
1.03445e+07
1.034e+07
1.03354e+07
1.03308e+07
1.03261e+07
1.03215e+07
1.03167e+07
1.0312e+07
1.03072e+07
1.03024e+07
1.02975e+07
1.02927e+07
1.02877e+07
1.02828e+07
1.02778e+07
1.02728e+07
1.02678e+07
1.02628e+07
1.02577e+07
1.07203e+07
1.07203e+07
1.07202e+07
1.07201e+07
1.07199e+07
1.07198e+07
1.07196e+07
1.07193e+07
1.0719e+07
1.07187e+07
1.07184e+07
1.0718e+07
1.07175e+07
1.07171e+07
1.07166e+07
1.0716e+07
1.07154e+07
1.07148e+07
1.07141e+07
1.07134e+07
1.07127e+07
1.07119e+07
1.07111e+07
1.07103e+07
1.07094e+07
1.07085e+07
1.07076e+07
1.07066e+07
1.07056e+07
1.07046e+07
1.07035e+07
1.07024e+07
1.07012e+07
1.07001e+07
1.06989e+07
1.06976e+07
1.06964e+07
1.06951e+07
1.06938e+07
1.06924e+07
1.06911e+07
1.06897e+07
1.06882e+07
1.06868e+07
1.06853e+07
1.06838e+07
1.06822e+07
1.06807e+07
1.06791e+07
1.06775e+07
1.06758e+07
1.06742e+07
1.06725e+07
1.06707e+07
1.0669e+07
1.06672e+07
1.06654e+07
1.06636e+07
1.06618e+07
1.06599e+07
1.0658e+07
1.06561e+07
1.06542e+07
1.06522e+07
1.06503e+07
1.06483e+07
1.06462e+07
1.06442e+07
1.06421e+07
1.064e+07
1.06379e+07
1.06358e+07
1.06336e+07
1.06314e+07
1.06292e+07
1.0627e+07
1.06247e+07
1.06225e+07
1.06202e+07
1.06179e+07
1.06155e+07
1.06132e+07
1.06108e+07
1.06084e+07
1.06059e+07
1.06035e+07
1.0601e+07
1.05985e+07
1.0596e+07
1.05935e+07
1.05909e+07
1.05883e+07
1.05857e+07
1.05831e+07
1.05804e+07
1.05778e+07
1.05751e+07
1.05723e+07
1.05696e+07
1.05668e+07
1.05641e+07
1.05612e+07
1.05584e+07
1.05556e+07
1.05527e+07
1.05498e+07
1.05468e+07
1.05439e+07
1.05409e+07
1.05379e+07
1.05349e+07
1.05318e+07
1.05288e+07
1.05257e+07
1.05225e+07
1.05194e+07
1.05162e+07
1.0513e+07
1.05098e+07
1.05066e+07
1.05033e+07
1.05e+07
1.04967e+07
1.04933e+07
1.04899e+07
1.04865e+07
1.04831e+07
1.04796e+07
1.04762e+07
1.04726e+07
1.04691e+07
1.04655e+07
1.04619e+07
1.04583e+07
1.04547e+07
1.0451e+07
1.04473e+07
1.04435e+07
1.04398e+07
1.0436e+07
1.04321e+07
1.04283e+07
1.04244e+07
1.04205e+07
1.04165e+07
1.04125e+07
1.04085e+07
1.04045e+07
1.04004e+07
1.03963e+07
1.03922e+07
1.0388e+07
1.03838e+07
1.03796e+07
1.03753e+07
1.0371e+07
1.03667e+07
1.03623e+07
1.03579e+07
1.03535e+07
1.0349e+07
1.03445e+07
1.034e+07
1.03354e+07
1.03308e+07
1.03261e+07
1.03215e+07
1.03167e+07
1.0312e+07
1.03072e+07
1.03024e+07
1.02975e+07
1.02927e+07
1.02877e+07
1.02828e+07
1.02778e+07
1.02728e+07
1.02678e+07
1.02627e+07
1.02576e+07
1.07211e+07
1.07211e+07
1.0721e+07
1.07209e+07
1.07208e+07
1.07206e+07
1.07204e+07
1.07201e+07
1.07198e+07
1.07195e+07
1.07191e+07
1.07187e+07
1.07183e+07
1.07178e+07
1.07173e+07
1.07167e+07
1.07161e+07
1.07155e+07
1.07148e+07
1.07141e+07
1.07133e+07
1.07125e+07
1.07117e+07
1.07108e+07
1.07099e+07
1.0709e+07
1.07081e+07
1.07071e+07
1.0706e+07
1.0705e+07
1.07039e+07
1.07028e+07
1.07016e+07
1.07004e+07
1.06992e+07
1.0698e+07
1.06967e+07
1.06954e+07
1.06941e+07
1.06927e+07
1.06913e+07
1.06899e+07
1.06885e+07
1.0687e+07
1.06855e+07
1.0684e+07
1.06824e+07
1.06809e+07
1.06793e+07
1.06776e+07
1.0676e+07
1.06743e+07
1.06726e+07
1.06709e+07
1.06691e+07
1.06674e+07
1.06656e+07
1.06637e+07
1.06619e+07
1.066e+07
1.06581e+07
1.06562e+07
1.06543e+07
1.06523e+07
1.06503e+07
1.06483e+07
1.06463e+07
1.06442e+07
1.06422e+07
1.06401e+07
1.0638e+07
1.06358e+07
1.06337e+07
1.06315e+07
1.06293e+07
1.0627e+07
1.06248e+07
1.06225e+07
1.06202e+07
1.06179e+07
1.06155e+07
1.06132e+07
1.06108e+07
1.06084e+07
1.0606e+07
1.06035e+07
1.0601e+07
1.05985e+07
1.0596e+07
1.05935e+07
1.05909e+07
1.05883e+07
1.05857e+07
1.05831e+07
1.05804e+07
1.05778e+07
1.05751e+07
1.05724e+07
1.05696e+07
1.05668e+07
1.05641e+07
1.05612e+07
1.05584e+07
1.05556e+07
1.05527e+07
1.05498e+07
1.05468e+07
1.05439e+07
1.05409e+07
1.05379e+07
1.05349e+07
1.05318e+07
1.05288e+07
1.05257e+07
1.05225e+07
1.05194e+07
1.05162e+07
1.0513e+07
1.05098e+07
1.05066e+07
1.05033e+07
1.05e+07
1.04967e+07
1.04933e+07
1.04899e+07
1.04865e+07
1.04831e+07
1.04796e+07
1.04761e+07
1.04726e+07
1.04691e+07
1.04655e+07
1.04619e+07
1.04583e+07
1.04547e+07
1.0451e+07
1.04473e+07
1.04435e+07
1.04398e+07
1.0436e+07
1.04321e+07
1.04283e+07
1.04244e+07
1.04205e+07
1.04165e+07
1.04125e+07
1.04085e+07
1.04045e+07
1.04004e+07
1.03963e+07
1.03922e+07
1.0388e+07
1.03838e+07
1.03796e+07
1.03753e+07
1.0371e+07
1.03667e+07
1.03623e+07
1.03579e+07
1.03535e+07
1.0349e+07
1.03445e+07
1.034e+07
1.03354e+07
1.03308e+07
1.03261e+07
1.03215e+07
1.03167e+07
1.0312e+07
1.03072e+07
1.03024e+07
1.02975e+07
1.02926e+07
1.02877e+07
1.02828e+07
1.02778e+07
1.02728e+07
1.02677e+07
1.02626e+07
1.02575e+07
1.07221e+07
1.07221e+07
1.0722e+07
1.07219e+07
1.07218e+07
1.07216e+07
1.07213e+07
1.07211e+07
1.07208e+07
1.07204e+07
1.072e+07
1.07196e+07
1.07191e+07
1.07186e+07
1.07181e+07
1.07175e+07
1.07169e+07
1.07162e+07
1.07155e+07
1.07148e+07
1.0714e+07
1.07132e+07
1.07123e+07
1.07115e+07
1.07105e+07
1.07096e+07
1.07086e+07
1.07076e+07
1.07065e+07
1.07055e+07
1.07044e+07
1.07032e+07
1.0702e+07
1.07008e+07
1.06996e+07
1.06983e+07
1.0697e+07
1.06957e+07
1.06944e+07
1.0693e+07
1.06916e+07
1.06902e+07
1.06887e+07
1.06872e+07
1.06857e+07
1.06842e+07
1.06826e+07
1.06811e+07
1.06795e+07
1.06778e+07
1.06762e+07
1.06745e+07
1.06728e+07
1.0671e+07
1.06693e+07
1.06675e+07
1.06657e+07
1.06639e+07
1.0662e+07
1.06601e+07
1.06582e+07
1.06563e+07
1.06544e+07
1.06524e+07
1.06504e+07
1.06484e+07
1.06464e+07
1.06443e+07
1.06422e+07
1.06401e+07
1.0638e+07
1.06359e+07
1.06337e+07
1.06315e+07
1.06293e+07
1.06271e+07
1.06248e+07
1.06225e+07
1.06202e+07
1.06179e+07
1.06156e+07
1.06132e+07
1.06108e+07
1.06084e+07
1.0606e+07
1.06035e+07
1.06011e+07
1.05986e+07
1.0596e+07
1.05935e+07
1.05909e+07
1.05883e+07
1.05857e+07
1.05831e+07
1.05805e+07
1.05778e+07
1.05751e+07
1.05724e+07
1.05696e+07
1.05669e+07
1.05641e+07
1.05613e+07
1.05584e+07
1.05556e+07
1.05527e+07
1.05498e+07
1.05468e+07
1.05439e+07
1.05409e+07
1.05379e+07
1.05349e+07
1.05318e+07
1.05288e+07
1.05257e+07
1.05225e+07
1.05194e+07
1.05162e+07
1.0513e+07
1.05098e+07
1.05066e+07
1.05033e+07
1.05e+07
1.04967e+07
1.04933e+07
1.04899e+07
1.04865e+07
1.04831e+07
1.04796e+07
1.04761e+07
1.04726e+07
1.04691e+07
1.04655e+07
1.04619e+07
1.04583e+07
1.04547e+07
1.0451e+07
1.04473e+07
1.04435e+07
1.04398e+07
1.0436e+07
1.04321e+07
1.04283e+07
1.04244e+07
1.04205e+07
1.04165e+07
1.04125e+07
1.04085e+07
1.04045e+07
1.04004e+07
1.03963e+07
1.03922e+07
1.0388e+07
1.03838e+07
1.03796e+07
1.03753e+07
1.0371e+07
1.03667e+07
1.03623e+07
1.03579e+07
1.03535e+07
1.0349e+07
1.03445e+07
1.034e+07
1.03354e+07
1.03308e+07
1.03261e+07
1.03214e+07
1.03167e+07
1.0312e+07
1.03072e+07
1.03024e+07
1.02975e+07
1.02926e+07
1.02877e+07
1.02827e+07
1.02777e+07
1.02727e+07
1.02677e+07
1.02626e+07
1.02575e+07
1.07233e+07
1.07233e+07
1.07232e+07
1.07231e+07
1.07229e+07
1.07227e+07
1.07225e+07
1.07222e+07
1.07219e+07
1.07215e+07
1.07211e+07
1.07206e+07
1.07202e+07
1.07196e+07
1.07191e+07
1.07184e+07
1.07178e+07
1.07171e+07
1.07164e+07
1.07156e+07
1.07148e+07
1.0714e+07
1.07131e+07
1.07122e+07
1.07112e+07
1.07103e+07
1.07092e+07
1.07082e+07
1.07071e+07
1.0706e+07
1.07049e+07
1.07037e+07
1.07025e+07
1.07013e+07
1.07e+07
1.06988e+07
1.06974e+07
1.06961e+07
1.06947e+07
1.06934e+07
1.06919e+07
1.06905e+07
1.0689e+07
1.06875e+07
1.0686e+07
1.06845e+07
1.06829e+07
1.06813e+07
1.06797e+07
1.0678e+07
1.06764e+07
1.06747e+07
1.06729e+07
1.06712e+07
1.06694e+07
1.06677e+07
1.06658e+07
1.0664e+07
1.06621e+07
1.06603e+07
1.06584e+07
1.06564e+07
1.06545e+07
1.06525e+07
1.06505e+07
1.06485e+07
1.06465e+07
1.06444e+07
1.06423e+07
1.06402e+07
1.06381e+07
1.06359e+07
1.06338e+07
1.06316e+07
1.06294e+07
1.06271e+07
1.06249e+07
1.06226e+07
1.06203e+07
1.0618e+07
1.06156e+07
1.06132e+07
1.06109e+07
1.06084e+07
1.0606e+07
1.06036e+07
1.06011e+07
1.05986e+07
1.05961e+07
1.05935e+07
1.0591e+07
1.05884e+07
1.05858e+07
1.05831e+07
1.05805e+07
1.05778e+07
1.05751e+07
1.05724e+07
1.05696e+07
1.05669e+07
1.05641e+07
1.05613e+07
1.05584e+07
1.05556e+07
1.05527e+07
1.05498e+07
1.05468e+07
1.05439e+07
1.05409e+07
1.05379e+07
1.05349e+07
1.05318e+07
1.05288e+07
1.05257e+07
1.05226e+07
1.05194e+07
1.05162e+07
1.0513e+07
1.05098e+07
1.05066e+07
1.05033e+07
1.05e+07
1.04967e+07
1.04933e+07
1.04899e+07
1.04865e+07
1.04831e+07
1.04796e+07
1.04761e+07
1.04726e+07
1.04691e+07
1.04655e+07
1.04619e+07
1.04583e+07
1.04546e+07
1.0451e+07
1.04473e+07
1.04435e+07
1.04397e+07
1.0436e+07
1.04321e+07
1.04283e+07
1.04244e+07
1.04205e+07
1.04165e+07
1.04125e+07
1.04085e+07
1.04045e+07
1.04004e+07
1.03963e+07
1.03922e+07
1.0388e+07
1.03838e+07
1.03796e+07
1.03753e+07
1.0371e+07
1.03667e+07
1.03623e+07
1.03579e+07
1.03535e+07
1.0349e+07
1.03445e+07
1.034e+07
1.03354e+07
1.03308e+07
1.03261e+07
1.03214e+07
1.03167e+07
1.0312e+07
1.03072e+07
1.03024e+07
1.02975e+07
1.02926e+07
1.02877e+07
1.02827e+07
1.02777e+07
1.02727e+07
1.02676e+07
1.02625e+07
1.02574e+07
1.07246e+07
1.07246e+07
1.07245e+07
1.07244e+07
1.07242e+07
1.0724e+07
1.07237e+07
1.07234e+07
1.07231e+07
1.07227e+07
1.07223e+07
1.07218e+07
1.07213e+07
1.07207e+07
1.07201e+07
1.07195e+07
1.07188e+07
1.07181e+07
1.07173e+07
1.07165e+07
1.07157e+07
1.07148e+07
1.07139e+07
1.0713e+07
1.0712e+07
1.0711e+07
1.07099e+07
1.07089e+07
1.07078e+07
1.07066e+07
1.07055e+07
1.07043e+07
1.07031e+07
1.07018e+07
1.07005e+07
1.06992e+07
1.06979e+07
1.06965e+07
1.06952e+07
1.06937e+07
1.06923e+07
1.06908e+07
1.06894e+07
1.06879e+07
1.06863e+07
1.06848e+07
1.06832e+07
1.06816e+07
1.06799e+07
1.06783e+07
1.06766e+07
1.06749e+07
1.06732e+07
1.06714e+07
1.06696e+07
1.06678e+07
1.0666e+07
1.06642e+07
1.06623e+07
1.06604e+07
1.06585e+07
1.06566e+07
1.06546e+07
1.06526e+07
1.06506e+07
1.06486e+07
1.06466e+07
1.06445e+07
1.06424e+07
1.06403e+07
1.06382e+07
1.0636e+07
1.06338e+07
1.06316e+07
1.06294e+07
1.06272e+07
1.06249e+07
1.06226e+07
1.06203e+07
1.0618e+07
1.06156e+07
1.06133e+07
1.06109e+07
1.06085e+07
1.0606e+07
1.06036e+07
1.06011e+07
1.05986e+07
1.05961e+07
1.05935e+07
1.0591e+07
1.05884e+07
1.05858e+07
1.05831e+07
1.05805e+07
1.05778e+07
1.05751e+07
1.05724e+07
1.05696e+07
1.05669e+07
1.05641e+07
1.05613e+07
1.05584e+07
1.05556e+07
1.05527e+07
1.05498e+07
1.05469e+07
1.05439e+07
1.05409e+07
1.05379e+07
1.05349e+07
1.05318e+07
1.05288e+07
1.05257e+07
1.05226e+07
1.05194e+07
1.05162e+07
1.0513e+07
1.05098e+07
1.05066e+07
1.05033e+07
1.05e+07
1.04967e+07
1.04933e+07
1.04899e+07
1.04865e+07
1.04831e+07
1.04796e+07
1.04761e+07
1.04726e+07
1.04691e+07
1.04655e+07
1.04619e+07
1.04583e+07
1.04546e+07
1.0451e+07
1.04473e+07
1.04435e+07
1.04397e+07
1.04359e+07
1.04321e+07
1.04283e+07
1.04244e+07
1.04205e+07
1.04165e+07
1.04125e+07
1.04085e+07
1.04045e+07
1.04004e+07
1.03963e+07
1.03922e+07
1.0388e+07
1.03838e+07
1.03796e+07
1.03753e+07
1.0371e+07
1.03667e+07
1.03623e+07
1.03579e+07
1.03535e+07
1.0349e+07
1.03445e+07
1.03399e+07
1.03354e+07
1.03308e+07
1.03261e+07
1.03214e+07
1.03167e+07
1.0312e+07
1.03072e+07
1.03024e+07
1.02975e+07
1.02926e+07
1.02877e+07
1.02827e+07
1.02777e+07
1.02727e+07
1.02676e+07
1.02625e+07
1.02573e+07
1.07261e+07
1.07261e+07
1.0726e+07
1.07259e+07
1.07257e+07
1.07255e+07
1.07252e+07
1.07249e+07
1.07245e+07
1.07241e+07
1.07236e+07
1.07231e+07
1.07226e+07
1.0722e+07
1.07214e+07
1.07207e+07
1.072e+07
1.07192e+07
1.07184e+07
1.07176e+07
1.07167e+07
1.07158e+07
1.07148e+07
1.07138e+07
1.07128e+07
1.07118e+07
1.07107e+07
1.07096e+07
1.07085e+07
1.07073e+07
1.07061e+07
1.07049e+07
1.07036e+07
1.07024e+07
1.07011e+07
1.06997e+07
1.06984e+07
1.0697e+07
1.06956e+07
1.06942e+07
1.06927e+07
1.06912e+07
1.06897e+07
1.06882e+07
1.06866e+07
1.06851e+07
1.06835e+07
1.06818e+07
1.06802e+07
1.06785e+07
1.06768e+07
1.06751e+07
1.06734e+07
1.06716e+07
1.06698e+07
1.0668e+07
1.06662e+07
1.06643e+07
1.06625e+07
1.06606e+07
1.06586e+07
1.06567e+07
1.06547e+07
1.06527e+07
1.06507e+07
1.06487e+07
1.06467e+07
1.06446e+07
1.06425e+07
1.06404e+07
1.06382e+07
1.06361e+07
1.06339e+07
1.06317e+07
1.06295e+07
1.06272e+07
1.0625e+07
1.06227e+07
1.06204e+07
1.0618e+07
1.06157e+07
1.06133e+07
1.06109e+07
1.06085e+07
1.06061e+07
1.06036e+07
1.06011e+07
1.05986e+07
1.05961e+07
1.05936e+07
1.0591e+07
1.05884e+07
1.05858e+07
1.05832e+07
1.05805e+07
1.05778e+07
1.05751e+07
1.05724e+07
1.05697e+07
1.05669e+07
1.05641e+07
1.05613e+07
1.05584e+07
1.05556e+07
1.05527e+07
1.05498e+07
1.05469e+07
1.05439e+07
1.05409e+07
1.05379e+07
1.05349e+07
1.05318e+07
1.05288e+07
1.05257e+07
1.05226e+07
1.05194e+07
1.05162e+07
1.0513e+07
1.05098e+07
1.05066e+07
1.05033e+07
1.05e+07
1.04967e+07
1.04933e+07
1.04899e+07
1.04865e+07
1.04831e+07
1.04796e+07
1.04761e+07