/*--------------------------------*- C++ -*----------------------------------*\
  =========                 |
  \\      /  F ield         | OpenFOAM: The Open Source CFD Toolbox
   \\    /   O peration     | Website:  https://openfoam.org
    \\  /    A nd           | Version:  10
     \\/     M anipulation  |
\*---------------------------------------------------------------------------*/
FoamFile
{
    format      ascii;
    class       surfaceScalarField;
    location    "0.94";
    object      phi;
}
// * * * * * * * * * * * * * * * * * * * * * * * * * * * * * * * * * * * * * //

dimensions      [0 3 -1 0 0 0 0];

internalField   nonuniform List<scalar> 
24170
(
1.39921e-09
-1.39921e-09
2.5977e-09
-1.19849e-09
3.54809e-09
-9.50392e-10
4.26849e-09
-7.20397e-10
4.80531e-09
-5.36818e-10
5.20866e-09
-4.03348e-10
5.52174e-09
-3.13086e-10
5.77862e-09
-2.56882e-10
6.00559e-09
-2.26966e-10
6.22369e-09
-2.18102e-10
6.45158e-09
-2.2789e-10
6.70873e-09
-2.57146e-10
7.01993e-09
-3.11201e-10
7.42367e-09
-4.03742e-10
7.99207e-09
-5.68403e-10
8.89225e-09
-9.00175e-10
1.06425e-08
-1.7503e-09
-5.01353e-09
1.56561e-08
1.60108e-09
-3.00029e-09
2.96612e-09
-2.56353e-09
4.04156e-09
-2.02583e-09
4.85075e-09
-1.52959e-09
5.44916e-09
-1.13523e-09
5.89549e-09
-8.49675e-10
6.23969e-09
-6.57285e-10
6.52073e-09
-5.3792e-10
6.76838e-09
-4.74619e-10
7.00624e-09
-4.55967e-10
7.25497e-09
-4.76613e-10
7.53576e-09
-5.37933e-10
7.87504e-09
-6.50481e-10
8.31247e-09
-8.41172e-10
8.91788e-09
-1.17382e-09
9.83146e-09
-1.81375e-09
1.13393e-08
-3.25819e-09
-7.18291e-09
1.35087e-08
1.79856e-09
-4.79885e-09
3.3223e-09
-4.08727e-09
4.51226e-09
-3.21579e-09
5.3991e-09
-2.41643e-09
6.04873e-09
-1.78487e-09
6.52898e-09
-1.32992e-09
6.89647e-09
-1.02478e-09
7.19476e-09
-8.36205e-10
7.45664e-09
-7.36501e-10
7.70772e-09
-7.07044e-10
7.96992e-09
-7.38814e-10
8.26507e-09
-8.33086e-10
8.61911e-09
-1.00452e-09
9.06809e-09
-1.29016e-09
9.6673e-09
-1.77303e-09
1.04979e-08
-2.6443e-09
1.16003e-08
-4.36064e-09
-7.90592e-09
1.23233e-08
2.01785e-09
-6.81669e-09
3.71259e-09
-5.78202e-09
5.02043e-09
-4.52363e-09
5.98295e-09
-3.37895e-09
6.67962e-09
-2.48154e-09
7.18912e-09
-1.83941e-09
7.57548e-09
-1.41115e-09
7.88695e-09
-1.14767e-09
8.15916e-09
-1.00871e-09
8.41931e-09
-9.67202e-10
8.69e-09
-1.0095e-09
8.99257e-09
-1.13565e-09
9.35041e-09
-1.36236e-09
9.79186e-09
-1.73162e-09
1.03499e-08
-2.33108e-09
1.10417e-08
-3.3361e-09
1.17523e-08
-5.07125e-09
-7.94531e-09
1.17917e-08
2.27286e-09
-9.08955e-09
4.15929e-09
-7.66845e-09
5.59174e-09
-5.95608e-09
6.62848e-09
-4.41569e-09
7.36728e-09
-3.22034e-09
7.90027e-09
-2.37241e-09
8.3e-09
-1.81088e-09
8.61958e-09
-1.46725e-09
8.89731e-09
-1.28643e-09
9.16153e-09
-1.23142e-09
9.43474e-09
-1.28271e-09
9.73669e-09
-1.4376e-09
1.00863e-08
-1.71199e-09
1.05014e-08
-2.14669e-09
1.09905e-08
-2.8202e-09
1.15202e-08
-3.86576e-09
1.19127e-08
-5.46381e-09
-7.68035e-09
1.16478e-08
2.57883e-09
-1.16684e-08
4.68507e-09
-9.77468e-09
6.25004e-09
-7.52106e-09
7.35772e-09
-5.52337e-09
8.13106e-09
-3.99367e-09
8.67923e-09
-2.92058e-09
9.08458e-09
-2.21623e-09
9.40537e-09
-1.78804e-09
9.6822e-09
-1.56327e-09
9.944e-09
-1.49321e-09
1.02123e-08
-1.55106e-09
1.05043e-08
-1.72953e-09
1.08329e-08
-2.04061e-09
1.12043e-08
-2.51812e-09
1.16058e-08
-3.22166e-09
1.19737e-08
-4.23366e-09
1.21302e-08
-5.62034e-09
-7.29025e-09
1.17401e-08
2.95624e-09
-1.46246e-08
5.31874e-09
-1.21372e-08
7.02367e-09
-9.22599e-09
8.195e-09
-6.6947e-09
8.99075e-09
-4.78943e-09
9.54182e-09
-3.47165e-09
9.94192e-09
-2.61633e-09
1.02545e-08
-2.10061e-09
1.0522e-08
-1.83074e-09
1.07731e-08
-1.74431e-09
1.10276e-08
-1.80563e-09
1.1299e-08
-2.00093e-09
1.15938e-08
-2.3354e-09
1.19073e-08
-2.83159e-09
1.22115e-08
-3.52589e-09
1.24323e-08
-4.45442e-09
1.24224e-08
-5.61041e-09
-6.85578e-09
1.19879e-08
3.43489e-09
-1.80595e-08
6.10001e-09
-1.48023e-08
7.94932e-09
-1.10753e-08
9.16989e-09
-7.91527e-09
9.96899e-09
-5.58852e-09
1.05051e-08
-4.00775e-09
1.08848e-08
-2.99605e-09
1.11765e-08
-2.39234e-09
1.14237e-08
-2.07789e-09
1.16539e-08
-1.97449e-09
1.18843e-08
-2.03602e-09
1.21239e-08
-2.24055e-09
1.23729e-08
-2.58438e-09
1.26179e-08
-3.07662e-09
1.2823e-08
-3.73103e-09
1.29175e-08
-4.54885e-09
1.27932e-08
-5.48611e-09
-6.41126e-09
1.23486e-08
4.06055e-09
-2.21201e-08
7.086e-09
-1.78278e-08
9.07641e-09
-1.30657e-08
1.03198e-08
-9.1586e-09
1.10926e-08
-6.3614e-09
1.15881e-08
-4.50325e-09
1.19268e-08
-3.33477e-09
1.21812e-08
-2.6467e-09
1.23942e-08
-2.29095e-09
1.25912e-08
-2.17148e-09
1.27857e-08
-2.23054e-09
1.29821e-08
-2.43693e-09
1.31748e-08
-2.77704e-09
1.33448e-08
-3.24661e-09
1.34545e-08
-3.8407e-09
1.34442e-08
-4.53855e-09
1.32417e-08
-5.28362e-09
-5.96986e-09
1.28003e-08
4.90656e-09
-2.70266e-08
8.36149e-09
-2.12827e-08
1.04727e-08
-1.51769e-08
1.16922e-08
-1.03781e-08
1.23937e-08
-7.06292e-09
1.28124e-08
-4.92191e-09
1.30825e-08
-3.60486e-09
1.32782e-08
-2.84249e-09
1.34403e-08
-2.45297e-09
1.35897e-08
-2.32096e-09
1.37357e-08
-2.3765e-09
1.38776e-08
-2.57887e-09
1.40054e-08
-2.90477e-09
1.40972e-08
-3.33844e-09
1.41182e-08
-3.8617e-09
1.40225e-08
-4.44285e-09
1.37657e-08
-5.02687e-09
-5.53539e-09
1.33313e-08
6.09629e-09
-3.31229e-08
1.00556e-08
-2.5242e-08
1.2232e-08
-1.73534e-08
1.33474e-08
-1.14934e-08
1.39096e-08
-7.62511e-09
1.42011e-08
-5.21338e-09
1.43664e-08
-3.77014e-09
1.44772e-08
-2.95328e-09
1.4568e-08
-2.54381e-09
1.46538e-08
-2.40681e-09
1.4738e-08
-2.46064e-09
1.4815e-08
-2.65587e-09
1.48712e-08
-2.96096e-09
1.48844e-08
-3.35164e-09
1.48247e-08
-3.80207e-09
1.46594e-08
-4.27754e-09
1.43636e-08
-4.73103e-09
-5.1076e-09
1.39358e-08
6.51335e-09
-3.96363e-08
1.02975e-08
-2.90261e-08
1.20896e-08
-1.91455e-08
1.28468e-08
-1.22506e-08
1.31355e-08
-7.91377e-09
1.32296e-08
-5.3075e-09
1.32517e-08
-3.79222e-09
1.3254e-08
-2.9556e-09
1.3257e-08
-2.54682e-09
1.32661e-08
-2.41588e-09
1.32783e-08
-2.47292e-09
1.32852e-08
-2.66277e-09
1.32731e-08
-2.94886e-09
1.32239e-08
-3.30242e-09
1.31166e-08
-3.69479e-09
1.29317e-08
-4.09264e-09
1.26579e-08
-4.45716e-09
-4.74889e-09
1.22992e-08
9.68783e-09
-4.93241e-08
1.44914e-08
-3.38297e-08
1.62927e-08
-2.09469e-08
1.67864e-08
-1.27443e-08
1.67999e-08
-7.92729e-09
1.66704e-08
-5.17799e-09
1.65222e-08
-3.64406e-09
1.63955e-08
-2.82886e-09
1.62978e-08
-2.44909e-09
1.62238e-08
-2.34194e-09
1.61626e-08
-2.41169e-09
1.60994e-08
-2.59954e-09
1.60165e-08
-2.86603e-09
1.58945e-08
-3.18039e-09
1.57138e-08
-3.51415e-09
1.54593e-08
-3.83812e-09
1.51249e-08
-4.12274e-09
-4.34177e-09
1.47178e-08
1.56511e-08
-6.49751e-08
2.141e-08
-3.95887e-08
2.25846e-08
-2.21215e-08
2.22957e-08
-1.24554e-08
2.16924e-08
-7.32398e-09
2.11216e-08
-4.6072e-09
2.06611e-08
-3.18356e-09
2.0308e-08
-2.47572e-09
2.00389e-08
-2.17996e-09
1.98275e-08
-2.13053e-09
1.96486e-08
-2.23282e-09
1.94784e-08
-2.42934e-09
1.92941e-08
-2.68177e-09
1.90748e-08
-2.96101e-09
1.88026e-08
-3.24204e-09
1.84665e-08
-3.50196e-09
1.80642e-08
-3.72041e-09
-3.88162e-09
1.7604e-08
2.86438e-08
-9.3619e-08
3.36869e-08
-4.46317e-08
3.23044e-08
-2.0739e-08
3.00796e-08
-1.02306e-08
2.82264e-08
-5.47084e-09
2.6857e-08
-3.2378e-09
2.58693e-08
-2.19579e-09
2.51507e-08
-1.75713e-09
2.46136e-08
-1.64284e-09
2.41933e-08
-1.71027e-09
2.38415e-08
-1.881e-09
2.35205e-08
-2.10838e-09
2.32005e-08
-2.36171e-09
2.28579e-08
-2.6184e-09
2.2476e-08
-2.86022e-09
2.20462e-08
-3.0721e-09
2.1568e-08
-3.2422e-09
-3.36276e-09
2.10491e-08
6.32423e-08
-1.56861e-07
5.67882e-08
-3.81776e-08
4.72655e-08
-1.12162e-08
4.07993e-08
-3.76446e-09
3.67004e-08
-1.37189e-09
3.40533e-08
-5.90741e-10
3.22796e-08
-4.22051e-10
3.10397e-08
-5.17188e-10
3.01307e-08
-7.33886e-10
2.94264e-08
-1.006e-09
2.88441e-08
-1.29868e-09
2.83274e-08
-1.59164e-09
2.78368e-08
-1.87113e-09
2.73452e-08
-2.12682e-09
2.68355e-08
-2.35053e-09
2.62994e-08
-2.536e-09
2.57363e-08
-2.6791e-09
-2.77821e-09
2.51518e-08
1.83548e-07
1.59403e-07
9.7506e-08
4.78643e-08
6.72537e-08
1.90361e-08
5.3851e-08
9.63826e-09
4.67878e-08
5.69125e-09
4.25918e-08
3.60532e-09
3.98792e-08
2.29052e-09
3.80069e-08
1.35512e-09
3.66379e-08
6.35133e-10
3.5579e-08
5.28361e-11
3.47077e-08
-4.27395e-10
3.39489e-08
-8.32823e-10
3.32532e-08
-1.17544e-09
3.25886e-08
-1.46218e-09
3.19353e-08
-1.6973e-09
3.12833e-08
-1.88395e-09
3.06293e-08
-2.02511e-09
-2.12416e-09
2.99752e-08
7.72742e-08
8.21287e-08
7.55876e-08
4.95509e-08
6.56584e-08
2.89653e-08
5.77275e-08
1.75691e-08
5.2266e-08
1.11528e-08
4.85422e-08
7.32911e-09
4.59362e-08
4.89647e-09
4.40409e-08
3.25048e-09
4.25995e-08
2.07654e-09
4.1449e-08
1.2033e-09
4.04884e-08
5.33179e-10
3.9648e-08
7.62473e-12
3.88745e-08
-4.01971e-10
3.81407e-08
-7.28352e-10
3.74299e-08
-9.86543e-10
3.67334e-08
-1.1874e-09
3.60477e-08
-1.3394e-09
-1.44954e-09
3.53731e-08
3.60297e-08
4.6099e-08
5.0247e-08
3.53336e-08
5.39878e-08
2.52245e-08
5.38755e-08
1.76815e-08
5.26154e-08
1.24128e-08
5.11738e-08
8.77077e-09
4.98476e-08
6.22264e-09
4.86953e-08
4.40274e-09
4.76987e-08
3.07312e-09
4.68213e-08
2.08078e-09
4.60278e-08
1.32661e-09
4.529e-08
7.45466e-10
4.45943e-08
2.93703e-10
4.39242e-08
-5.82626e-11
4.32672e-08
-3.29504e-10
4.26196e-08
-5.39852e-10
4.19809e-08
-7.00663e-10
-8.2086e-10
4.13522e-08
1.43829e-08
3.17161e-08
2.33978e-08
2.63188e-08
2.82309e-08
2.03913e-08
3.061e-08
1.53024e-08
3.16894e-08
1.13334e-08
3.21073e-08
8.3529e-09
3.21912e-08
6.13876e-09
3.21038e-08
4.49011e-09
3.19248e-08
3.25214e-09
3.16929e-08
2.31266e-09
3.14273e-08
1.59224e-09
3.11378e-08
1.03497e-09
3.08303e-08
6.01228e-10
3.05094e-08
2.62636e-10
3.01814e-08
-1.58864e-12
2.98458e-08
-2.04167e-10
2.95055e-08
-3.60407e-10
-4.79095e-10
2.91637e-08
8.62327e-09
2.30928e-08
1.5043e-08
1.98991e-08
1.93072e-08
1.61271e-08
2.19928e-08
1.26168e-08
2.36448e-08
9.68135e-09
2.4648e-08
7.3497e-09
2.5246e-08
5.5408e-09
2.55867e-08
4.14945e-09
2.5759e-08
3.07978e-09
2.58172e-08
2.2545e-09
2.57949e-08
1.61451e-09
2.57141e-08
1.11574e-09
2.55899e-08
7.25514e-10
2.54329e-08
4.19634e-10
2.52513e-08
1.79987e-10
2.50541e-08
-7.00357e-12
2.4844e-08
-1.50279e-10
-2.60425e-10
2.46253e-08
5.82002e-09
1.72728e-08
1.05282e-08
1.51909e-08
1.40117e-08
1.26436e-08
1.6472e-08
1.01566e-08
1.8172e-08
7.98131e-09
1.93353e-08
6.18639e-09
2.01258e-08
4.75033e-09
2.06565e-08
3.61879e-09
2.10035e-08
2.73271e-09
2.12184e-08
2.03961e-09
2.13363e-08
1.49666e-09
2.13817e-08
1.07033e-09
2.13723e-08
7.34867e-10
2.13213e-08
4.70657e-10
2.12386e-08
2.62713e-10
2.1132e-08
9.95304e-11
2.10092e-08
-2.74634e-11
-1.24774e-10
2.08736e-08
4.23364e-09
1.30391e-08
7.81695e-09
1.16076e-08
1.06369e-08
9.82359e-09
1.27638e-08
8.02966e-09
1.43315e-08
6.41368e-09
1.54728e-08
5.04506e-09
1.62972e-08
3.92598e-09
1.68874e-08
3.02857e-09
1.73041e-08
2.31601e-09
1.75911e-08
1.75261e-09
1.77802e-08
1.30757e-09
1.78947e-08
9.55852e-10
1.79519e-08
6.77673e-10
1.79649e-08
4.57604e-10
1.7944e-08
2.83676e-10
1.78969e-08
1.46583e-10
1.78304e-08
3.90537e-11
-4.41517e-11
1.77498e-08
3.23518e-09
9.80396e-09
6.04768e-09
8.7951e-09
8.34637e-09
7.5249e-09
1.01526e-08
6.22341e-09
1.15386e-08
5.02774e-09
1.25868e-08
3.99679e-09
1.3372e-08
3.14077e-09
1.39551e-08
2.44553e-09
1.43833e-08
1.88779e-09
1.46927e-08
1.44316e-09
1.49107e-08
1.08963e-09
1.50578e-08
8.0876e-10
1.51498e-08
5.85643e-10
1.51989e-08
4.08462e-10
1.52147e-08
2.67925e-10
1.52045e-08
1.56738e-10
1.51744e-08
6.91609e-11
6.48258e-13
1.51296e-08
2.55572e-09
7.24824e-09
4.8151e-09
6.53572e-09
6.70698e-09
5.63302e-09
8.23376e-09
4.69663e-09
9.43661e-09
3.82489e-09
1.03695e-08
3.06388e-09
1.10852e-08
2.42512e-09
1.16291e-08
1.90156e-09
1.20386e-08
1.47836e-09
1.23428e-08
1.13888e-09
1.25649e-08
8.67583e-10
1.27225e-08
6.51141e-10
1.28296e-08
4.78589e-10
1.28969e-08
3.41126e-10
1.29331e-08
2.31764e-10
1.29448e-08
1.44974e-10
1.29376e-08
7.63758e-11
2.24777e-11
1.29158e-08
2.0649e-09
5.18334e-09
3.9104e-09
4.69023e-09
5.48053e-09
4.06288e-09
6.77039e-09
3.40677e-09
7.80486e-09
2.79042e-09
8.62101e-09
2.24774e-09
9.2574e-09
1.78873e-09
9.74893e-09
1.41003e-09
1.01251e-08
1.10222e-09
1.04098e-08
8.54136e-10
1.06223e-08
6.55106e-10
1.07776e-08
4.95788e-10
1.08878e-08
3.68407e-10
1.09623e-08
2.66664e-10
1.10085e-08
1.85518e-10
1.10325e-08
1.20958e-10
1.10391e-08
6.97896e-11
2.94594e-11
1.10322e-08
1.69309e-09
3.49025e-09
3.21733e-09
3.16598e-09
4.52802e-09
2.75219e-09
5.61778e-09
2.31702e-09
6.50251e-09
1.90569e-09
7.20887e-09
1.54138e-09
7.76603e-09
1.23157e-09
8.2013e-09
9.74761e-10
8.53836e-09
7.65156e-10
8.79686e-09
5.95632e-10
8.99276e-09
4.5921e-10
9.13883e-09
3.49716e-10
9.24527e-09
2.61964e-10
9.32022e-09
1.91721e-10
9.37015e-09
1.35583e-10
9.40028e-09
9.08278e-11
9.41479e-09
5.52798e-11
2.71935e-11
9.41706e-09
1.39971e-09
2.09055e-09
2.66606e-09
1.89963e-09
3.76283e-09
1.65542e-09
4.68223e-09
1.39761e-09
5.43503e-09
1.1529e-09
6.04114e-09
9.35262e-10
6.52323e-09
7.49488e-10
6.90303e-09
5.94958e-10
7.19974e-09
4.68448e-10
7.42952e-09
3.65852e-10
7.60564e-09
2.83089e-10
7.73884e-09
2.16519e-10
7.83774e-09
1.63063e-10
7.90926e-09
1.20196e-10
7.95897e-09
8.58786e-11
7.99132e-09
5.84752e-11
8.00993e-09
3.66735e-11
1.94171e-11
8.0177e-09
1.15776e-09
9.32788e-10
2.20878e-09
8.48613e-10
3.12349e-09
7.40704e-10
3.89464e-09
6.26468e-10
4.52981e-09
5.17723e-10
5.04434e-09
4.20733e-10
5.45611e-09
3.3772e-10
5.78257e-09
2.68498e-10
6.03932e-09
2.11699e-10
6.23963e-09
1.65541e-10
6.39448e-09
1.28238e-10
6.51282e-09
9.81815e-11
6.60187e-09
7.40092e-11
6.66747e-09
5.45979e-11
6.71431e-09
3.90382e-11
6.74619e-09
2.65987e-11
6.76617e-09
1.66913e-11
8.8412e-12
6.77674e-09
9.32788e-10
1.7814e-09
2.5221e-09
3.14857e-09
3.6663e-09
4.08703e-09
4.42475e-09
4.69325e-09
4.90494e-09
5.07049e-09
5.19872e-09
5.29691e-09
5.37091e-09
5.42551e-09
5.46455e-09
5.49115e-09
5.50784e-09
5.51668e-09
2.56186e-10
-2.56186e-10
5.13804e-10
-2.57617e-10
7.72511e-10
-2.58707e-10
1.03196e-09
-2.59445e-10
1.29177e-09
-2.59818e-10
1.55159e-09
-2.59821e-10
1.81104e-09
-2.59445e-10
2.06973e-09
-2.58688e-10
2.32728e-09
-2.57548e-10
2.5833e-09
-2.56025e-10
2.83742e-09
-2.54124e-10
3.08927e-09
-2.51849e-10
3.33848e-09
-2.4921e-10
3.5847e-09
-2.46217e-10
3.82759e-09
-2.42885e-10
4.06682e-09
-2.39229e-10
4.30208e-09
-2.35269e-10
4.53311e-09
-2.31024e-10
4.75963e-09
-2.26519e-10
4.9814e-09
-2.21777e-10
5.19823e-09
-2.16825e-10
5.40992e-09
-2.11689e-10
5.61632e-09
-2.06398e-10
5.81729e-09
-2.00978e-10
6.01275e-09
-1.95457e-10
6.20261e-09
-1.89861e-10
6.38683e-09
-1.84216e-10
6.56537e-09
-1.78546e-10
6.73825e-09
-1.72873e-10
6.90547e-09
-1.67218e-10
7.06706e-09
-1.616e-10
7.2231e-09
-1.56034e-10
7.37364e-09
-1.50537e-10
7.51876e-09
-1.4512e-10
7.65855e-09
-1.39796e-10
7.79312e-09
-1.34572e-10
7.92258e-09
-1.29457e-10
8.04704e-09
-1.24457e-10
8.16661e-09
-1.19576e-10
8.28143e-09
-1.14819e-10
8.39162e-09
-1.10188e-10
8.4973e-09
-1.05684e-10
8.59861e-09
-1.01307e-10
8.69567e-09
-9.70593e-11
8.78861e-09
-9.29385e-11
8.87755e-09
-8.89442e-11
8.96263e-09
-8.50748e-11
9.04396e-09
-8.13284e-11
9.12166e-09
-7.77027e-11
9.19586e-09
-7.41958e-11
9.26666e-09
-7.08047e-11
9.33419e-09
-6.7527e-11
9.39855e-09
-6.43598e-11
9.45985e-09
-6.13005e-11
9.51819e-09
-5.8346e-11
9.57369e-09
-5.54936e-11
9.62643e-09
-5.27406e-11
9.67651e-09
-5.00838e-11
9.72403e-09
-4.75208e-11
9.76908e-09
-4.50487e-11
9.81175e-09
-4.26648e-11
9.85211e-09
-4.03664e-11
9.89026e-09
-3.81512e-11
9.92628e-09
-3.60163e-11
9.96024e-09
-3.39595e-11
9.99222e-09
-3.19783e-11
1.00223e-08
-3.00704e-11
1.00505e-08
-2.82335e-11
1.0077e-08
-2.64656e-11
1.01018e-08
-2.47641e-11
1.01249e-08
-2.31274e-11
1.01464e-08
-2.15532e-11
1.01665e-08
-2.00393e-11
1.01851e-08
-1.85842e-11
1.02022e-08
-1.71856e-11
1.02181e-08
-1.5842e-11
1.02326e-08
-1.45514e-11
1.02459e-08
-1.33121e-11
1.02581e-08
-1.21222e-11
1.0269e-08
-1.09803e-11
1.02789e-08
-9.88464e-12
1.02878e-08
-8.83352e-12
1.02956e-08
-7.82563e-12
1.03025e-08
-6.85925e-12
1.03084e-08
-5.93298e-12
1.03134e-08
-5.0452e-12
1.03176e-08
-4.19477e-12
1.0321e-08
-3.38004e-12
1.03236e-08
-2.59984e-12
1.03255e-08
-1.85286e-12
1.03266e-08
-1.13763e-12
1.0327e-08
-4.53112e-13
1.03268e-08
2.02119e-13
1.0326e-08
8.28947e-13
1.03246e-08
1.42891e-12
1.03226e-08
2.00284e-12
1.032e-08
2.55181e-12
1.0317e-08
3.07719e-12
1.03134e-08
3.57969e-12
1.03093e-08
4.06052e-12
1.03048e-08
4.52043e-12
1.02998e-08
4.96067e-12
1.02945e-08
5.38175e-12
1.02887e-08
5.78502e-12
1.02825e-08
6.17086e-12
1.0276e-08
6.54047e-12
1.02691e-08
6.89446e-12
1.02618e-08
7.23367e-12
1.02543e-08
7.55877e-12
1.02464e-08
7.87054e-12
1.02382e-08
8.16969e-12
1.02298e-08
8.45687e-12
1.0221e-08
8.73261e-12
1.0212e-08
8.99764e-12
1.02028e-08
9.25253e-12
1.01933e-08
9.49794e-12
1.01836e-08
9.73413e-12
1.01736e-08
9.9621e-12
1.01634e-08
1.01818e-11
1.0153e-08
1.03942e-11
1.01424e-08
1.05993e-11
1.01316e-08
1.0798e-11
1.01206e-08
1.09903e-11
1.01095e-08
1.1177e-11
1.00981e-08
1.13583e-11
1.00866e-08
1.15343e-11
1.00749e-08
1.17059e-11
1.0063e-08
1.1873e-11
1.00509e-08
1.20361e-11
1.00388e-08
1.21956e-11
1.00264e-08
1.23514e-11
1.00139e-08
1.25043e-11
1.00012e-08
1.26541e-11
9.98844e-09
1.28014e-11
9.97549e-09
1.29463e-11
9.96241e-09
1.30891e-11
9.94918e-09
1.32298e-11
9.93581e-09
1.33691e-11
9.9223e-09
1.35067e-11
9.90866e-09
1.36431e-11
9.89488e-09
1.37784e-11
9.88097e-09
1.3913e-11
9.86692e-09
1.40471e-11
9.85274e-09
1.41808e-11
9.83842e-09
1.43145e-11
9.82398e-09
1.44483e-11
9.80939e-09
1.45827e-11
9.79467e-09
1.47181e-11
9.77982e-09
1.4855e-11
9.76483e-09
1.49937e-11
9.74969e-09
1.5135e-11
9.73441e-09
1.52796e-11
9.71898e-09
1.54286e-11
9.7034e-09
1.55829e-11
9.68766e-09
1.57443e-11
9.67174e-09
1.59144e-11
9.65565e-09
1.60958e-11
9.63935e-09
1.62915e-11
9.62285e-09
1.65053e-11
9.60611e-09
1.67421e-11
9.5891e-09
1.70085e-11
9.57178e-09
1.73128e-11
9.55412e-09
1.76659e-11
9.53604e-09
1.80821e-11
9.51746e-09
1.85802e-11
9.49827e-09
1.91856e-11
9.47834e-09
1.99318e-11
9.45747e-09
2.08649e-11
9.43543e-09
2.20485e-11
9.41185e-09
2.35717e-11
9.38629e-09
2.55625e-11
9.35808e-09
2.82103e-11
9.32628e-09
3.18053e-11
9.28946e-09
3.68139e-11
9.24543e-09
4.40334e-11
9.19048e-09
5.49465e-11
9.11783e-09
7.26544e-11
9.01297e-09
1.04859e-10
8.83668e-09
1.7629e-10
4.01031e-10
8.43565e-09
2.57711e-10
-5.13898e-10
5.16853e-10
-5.16759e-10
7.77076e-10
-5.18931e-10
1.03802e-09
-5.20388e-10
1.29931e-09
-5.2111e-10
1.56057e-09
-5.2108e-10
1.82141e-09
-5.20286e-10
2.08144e-09
-5.1872e-10
2.34027e-09
-5.16379e-10
2.59751e-09
-5.13265e-10
2.85278e-09
-5.09386e-10
3.10568e-09
-5.04755e-10
3.35586e-09
-4.99387e-10
3.60295e-09
-4.93308e-10
3.84661e-09
-4.86544e-10
4.08651e-09
-4.79128e-10
4.32234e-09
-4.71101e-10
4.55382e-09
-4.62504e-10
4.78068e-09
-4.53384e-10
5.0027e-09
-4.43792e-10
5.21966e-09
-4.33782e-10
5.43138e-09
-4.23409e-10
5.63771e-09
-4.12729e-10
5.83853e-09
-4.01799e-10
6.03375e-09
-3.90674e-10
6.22329e-09
-3.79407e-10
6.40713e-09
-3.68051e-10
6.58523e-09
-3.56652e-10
6.75762e-09
-3.45257e-10
6.9243e-09
-3.33905e-10
7.08534e-09
-3.22635e-10
7.24078e-09
-3.11479e-10
7.39071e-09
-3.00466e-10
7.53521e-09
-2.89621e-10
7.67438e-09
-2.78965e-10
7.80833e-09
-2.68516e-10
7.93716e-09
-2.58289e-10
8.061e-09
-2.48296e-10
8.17996e-09
-2.38545e-10
8.29419e-09
-2.29042e-10
8.40379e-09
-2.19794e-10
8.50891e-09
-2.10802e-10
8.60967e-09
-2.02066e-10
8.7062e-09
-1.93588e-10
8.79863e-09
-1.85366e-10
8.88708e-09
-1.77396e-10
8.97168e-09
-1.69677e-10
9.05256e-09
-1.62203e-10
9.12982e-09
-1.54971e-10
9.2036e-09
-1.47976e-10
9.27401e-09
-1.41212e-10
9.34116e-09
-1.34674e-10
9.40516e-09
-1.28357e-10
9.46611e-09
-1.22255e-10
9.52413e-09
-1.16363e-10
9.57931e-09
-1.10674e-10
9.63175e-09
-1.05182e-10
9.68155e-09
-9.98835e-11
9.7288e-09
-9.47712e-11
9.77359e-09
-8.98401e-11
9.81601e-09
-8.5085e-11
9.85614e-09
-8.05004e-11
9.89407e-09
-7.60813e-11
9.92988e-09
-7.18226e-11
9.96364e-09
-6.77194e-11
9.99543e-09
-6.37671e-11
1.00253e-08
-5.99609e-11
1.00534e-08
-5.62964e-11
1.00797e-08
-5.27689e-11
1.01043e-08
-4.93745e-11
1.01273e-08
-4.61088e-11
1.01487e-08
-4.29678e-11
1.01686e-08
-3.99475e-11
1.01871e-08
-3.70438e-11
1.02041e-08
-3.42534e-11
1.02199e-08
-3.15723e-11
1.02343e-08
-2.8997e-11
1.02475e-08
-2.65238e-11
1.02595e-08
-2.41497e-11
1.02704e-08
-2.18708e-11
1.02802e-08
-1.96844e-11
1.0289e-08
-1.75869e-11
1.02967e-08
-1.55755e-11
1.03035e-08
-1.36469e-11
1.03094e-08
-1.17982e-11
1.03144e-08
-1.00266e-11
1.03185e-08
-8.32933e-12
1.03218e-08
-6.70329e-12
1.03244e-08
-5.14625e-12
1.03262e-08
-3.65521e-12
1.03273e-08
-2.2278e-12
1.03277e-08
-8.61457e-13
1.03274e-08
4.46156e-13
1.03266e-08
1.69749e-12
1.03251e-08
2.89484e-12
1.03231e-08
4.04043e-12
1.03205e-08
5.13653e-12
1.03174e-08
6.18496e-12
1.03138e-08
7.18825e-12
1.03097e-08
8.1479e-12
1.03051e-08
9.06622e-12
1.03001e-08
9.94478e-12
1.02947e-08
1.07857e-11
1.02889e-08
1.15906e-11
1.02827e-08
1.23611e-11
1.02762e-08
1.3099e-11
1.02693e-08
1.38057e-11
1.0262e-08
1.4483e-11
1.02544e-08
1.51322e-11
1.02466e-08
1.57548e-11
1.02384e-08
1.63521e-11
1.02299e-08
1.69254e-11
1.02212e-08
1.74761e-11
1.02122e-08
1.80056e-11
1.02029e-08
1.85145e-11
1.01934e-08
1.90046e-11
1.01837e-08
1.94766e-11
1.01737e-08
1.99315e-11
1.01635e-08
2.03706e-11
1.01531e-08
2.07947e-11
1.01425e-08
2.12047e-11
1.01317e-08
2.16015e-11
1.01207e-08
2.19859e-11
1.01095e-08
2.23587e-11
1.00981e-08
2.27208e-11
1.00866e-08
2.30729e-11
1.00749e-08
2.34155e-11
1.0063e-08
2.37495e-11
1.0051e-08
2.40754e-11
1.00388e-08
2.43939e-11
1.00264e-08
2.47056e-11
1.00139e-08
2.5011e-11
1.00013e-08
2.53105e-11
9.98846e-09
2.56048e-11
9.97551e-09
2.58945e-11
9.96242e-09
2.61797e-11
9.94919e-09
2.64613e-11
9.93582e-09
2.67394e-11
9.92231e-09
2.70145e-11
9.90867e-09
2.72872e-11
9.89489e-09
2.75579e-11
9.88098e-09
2.78269e-11
9.86693e-09
2.80948e-11
9.85275e-09
2.8362e-11
9.83843e-09
2.86292e-11
9.82398e-09
2.88969e-11
9.8094e-09
2.91657e-11
9.79468e-09
2.94363e-11
9.77983e-09
2.97097e-11
9.76483e-09
2.9987e-11
9.7497e-09
3.02693e-11
9.73442e-09
3.05584e-11
9.71899e-09
3.08557e-11
9.70341e-09
3.11641e-11
9.68767e-09
3.14863e-11
9.67176e-09
3.18261e-11
9.65567e-09
3.21881e-11
9.63938e-09
3.25783e-11
9.62288e-09
3.30046e-11
9.60615e-09
3.34767e-11
9.58915e-09
3.40076e-11
9.57185e-09
3.46135e-11
9.5542e-09
3.53163e-11
9.53613e-09
3.61443e-11
9.51758e-09
3.71348e-11
9.49843e-09
3.83379e-11
9.47854e-09
3.98202e-11
9.45773e-09
4.16728e-11
9.43576e-09
4.40206e-11
9.41229e-09
4.70398e-11
9.38687e-09
5.09818e-11
9.35886e-09
5.62169e-11
9.32736e-09
6.3311e-11
9.29101e-09
7.31653e-11
9.24774e-09
8.73037e-11
9.19418e-09
1.08505e-10
9.12445e-09
1.42379e-10
9.02744e-09
2.01874e-10
8.88145e-09
3.22282e-10
6.16455e-10
8.66602e-09
2.60797e-10
-7.74694e-10
5.23023e-10
-7.78985e-10
7.86313e-10
-7.82222e-10
1.05029e-09
-7.84365e-10
1.31456e-09
-7.85382e-10
1.57873e-09
-7.8525e-10
1.84239e-09
-7.83948e-10
2.10514e-09
-7.81466e-10
2.36656e-09
-7.77801e-10
2.62626e-09
-7.72958e-10
2.88382e-09
-7.66947e-10
3.13885e-09
-7.5979e-10
3.39098e-09
-7.51514e-10
3.63982e-09
-7.42154e-10
3.88504e-09
-7.31755e-10
4.12628e-09
-7.2037e-10
4.36323e-09
-7.08057e-10
4.59562e-09
-6.94886e-10
4.82316e-09
-6.80929e-10
5.04564e-09
-6.66268e-10
5.26284e-09
-6.50985e-10
5.4746e-09
-6.35167e-10
5.68077e-09
-6.18903e-10
5.88125e-09
-6.0228e-10
6.07596e-09
-5.85382e-10
6.26485e-09
-5.68294e-10
6.44789e-09
-5.51092e-10
6.62509e-09
-5.33849e-10
6.79646e-09
-5.16634e-10
6.96206e-09
-4.99506e-10
7.12195e-09
-4.8252e-10
7.27619e-09
-4.65725e-10
7.42489e-09
-4.49161e-10
7.56813e-09
-4.32865e-10
7.70604e-09
-4.16868e-10
7.83872e-09
-4.01194e-10
7.96629e-09
-3.85863e-10
8.08888e-09
-3.70891e-10
8.20663e-09
-3.5629e-10
8.31966e-09
-3.42069e-10
8.4281e-09
-3.28234e-10
8.53208e-09
-3.14787e-10
8.63174e-09
-3.01728e-10
8.72721e-09
-2.89057e-10
8.81862e-09
-2.7677e-10
8.90608e-09
-2.64864e-10
8.98974e-09
-2.53334e-10
9.06971e-09
-2.42171e-10
9.14611e-09
-2.31371e-10
9.21906e-09
-2.20925e-10
9.28867e-09
-2.10826e-10
9.35506e-09
-2.01064e-10
9.41834e-09
-1.91632e-10
9.4786e-09
-1.82521e-10
9.53596e-09
-1.73723e-10
9.59052e-09
-1.65228e-10
9.64236e-09
-1.57029e-10
9.6916e-09
-1.49116e-10
9.73831e-09
-1.41482e-10
9.78259e-09
-1.34119e-10
9.82452e-09
-1.27017e-10
9.86419e-09
-1.20171e-10
9.90168e-09
-1.13571e-10
9.93707e-09
-1.0721e-10
9.97043e-09
-1.01082e-10
1.00018e-08
-9.51781e-11
1.00314e-08
-8.94925e-11
1.00591e-08
-8.40184e-11
1.00851e-08
-7.8749e-11
1.01094e-08
-7.36779e-11
1.01321e-08
-6.8799e-11
1.01532e-08
-6.41063e-11
1.01729e-08
-5.95935e-11
1.01911e-08
-5.52553e-11
1.02079e-08
-5.10857e-11
1.02234e-08
-4.70796e-11
1.02376e-08
-4.32313e-11
1.02506e-08
-3.95357e-11
1.02625e-08
-3.59878e-11
1.02732e-08
-3.25824e-11
1.02828e-08
-2.93148e-11
1.02914e-08
-2.61802e-11
1.0299e-08
-2.31739e-11
1.03057e-08
-2.02916e-11
1.03114e-08
-1.75286e-11
1.03162e-08
-1.48807e-11
1.03203e-08
-1.23436e-11
1.03235e-08
-9.91334e-12
1.03259e-08
-7.58569e-12
1.03276e-08
-5.35706e-12
1.03286e-08
-3.22326e-12
1.03289e-08
-1.18076e-12
1.03286e-08
7.74038e-13
1.03277e-08
2.64486e-12
1.03261e-08
4.43493e-12
1.0324e-08
6.14768e-12
1.03214e-08
7.78634e-12
1.03182e-08
9.35418e-12
1.03145e-08
1.0854e-11
1.03104e-08
1.22892e-11
1.03058e-08
1.36623e-11
1.03008e-08
1.49762e-11
1.02953e-08
1.62338e-11
1.02895e-08
1.74375e-11
1.02832e-08
1.85898e-11
1.02766e-08
1.96935e-11
1.02697e-08
2.07506e-11
1.02624e-08
2.17637e-11
1.02548e-08
2.27348e-11
1.02469e-08
2.36661e-11
1.02387e-08
2.45597e-11
1.02302e-08
2.54177e-11
1.02214e-08
2.62416e-11
1.02124e-08
2.70336e-11
1.02031e-08
2.77955e-11
1.01936e-08
2.85288e-11
1.01838e-08
2.92351e-11
1.01739e-08
2.99163e-11
1.01637e-08
3.05734e-11
1.01532e-08
3.12082e-11
1.01426e-08
3.18219e-11
1.01318e-08
3.2416e-11
1.01208e-08
3.29915e-11
1.01096e-08
3.35499e-11
1.00982e-08
3.4092e-11
1.00867e-08
3.46192e-11
1.0075e-08
3.51325e-11
1.00631e-08
3.56326e-11
1.0051e-08
3.61209e-11
1.00388e-08
3.65981e-11
1.00265e-08
3.70649e-11
1.0014e-08
3.75224e-11
1.00013e-08
3.79713e-11
9.9885e-09
3.84124e-11
9.97555e-09
3.88462e-11
9.96246e-09
3.92738e-11
9.94922e-09
3.96956e-11
9.93585e-09
4.01125e-11
9.92234e-09
4.05249e-11
9.90869e-09
4.09335e-11
9.89491e-09
4.13391e-11
9.881e-09
4.17424e-11
9.86695e-09
4.2144e-11
9.85276e-09
4.25445e-11
9.83845e-09
4.2945e-11
9.824e-09
4.33461e-11
9.80942e-09
4.37488e-11
9.7947e-09
4.41545e-11
9.77984e-09
4.45642e-11
9.76485e-09
4.49796e-11
9.74972e-09
4.54025e-11
9.73444e-09
4.58352e-11
9.71902e-09
4.62805e-11
9.70344e-09
4.6742e-11
9.6877e-09
4.7224e-11
9.67179e-09
4.7732e-11
9.65571e-09
4.8273e-11
9.63943e-09
4.8856e-11
9.62294e-09
4.94922e-11
9.60622e-09
5.01965e-11
9.58924e-09
5.09876e-11
9.57197e-09
5.18901e-11
9.55435e-09
5.2936e-11
9.53633e-09
5.41671e-11
9.51782e-09
5.56388e-11
9.49874e-09
5.74245e-11
9.47893e-09
5.96228e-11
9.45824e-09
6.23674e-11
9.43642e-09
6.5842e-11
9.41315e-09
7.03037e-11
9.38802e-09
7.61189e-11
9.36041e-09
8.38245e-11
9.32949e-09
9.42322e-11
9.29403e-09
1.08622e-10
9.25222e-09
1.29117e-10
9.20124e-09
1.5948e-10
9.13668e-09
2.06942e-10
9.05179e-09
2.86764e-10
8.93989e-09
4.34182e-10
7.31802e-10
8.82454e-09
2.65515e-10
-1.04021e-09
5.32458e-10
-1.04593e-09
8.00441e-10
-1.0502e-09
1.06906e-09
-1.05298e-09
1.33789e-09
-1.05422e-09
1.60651e-09
-1.05387e-09
1.87448e-09
-1.05192e-09
2.14138e-09
-1.04836e-09
2.40675e-09
-1.04318e-09
2.67018e-09
-1.03639e-09
2.93123e-09
-1.028e-09
3.18951e-09
-1.01806e-09
3.44459e-09
-1.0066e-09
3.6961e-09
-9.93661e-10
3.94366e-09
-9.79314e-10
4.18692e-09
-9.6363e-10
4.42556e-09
-9.46696e-10
4.65928e-09
-9.28606e-10
4.88781e-09
-9.09468e-10
5.11094e-09
-8.89394e-10
5.32846e-09
-8.68504e-10
5.54022e-09
-8.46922e-10
5.74608e-09
-8.24772e-10
5.94598e-09
-8.02175e-10
6.13985e-09
-7.79252e-10
6.32767e-09
-7.56114e-10
6.50945e-09
-7.32868e-10
6.68521e-09
-7.09611e-10
6.85501e-09
-6.86433e-10
7.01891e-09
-6.63414e-10
7.17702e-09
-6.40622e-10
7.32941e-09
-6.1812e-10
7.47621e-09
-5.95961e-10
7.61754e-09
-5.74189e-10
7.75351e-09
-5.5284e-10
7.88426e-09
-5.31944e-10
8.00992e-09
-5.11526e-10
8.13064e-09
-4.91603e-10
8.24653e-09
-4.72189e-10
8.35776e-09
-4.53292e-10
8.46444e-09
-4.34918e-10
8.56672e-09
-4.17067e-10
8.66473e-09
-3.99741e-10
8.75861e-09
-3.82934e-10
8.84848e-09
-3.66642e-10
8.93448e-09
-3.50859e-10
9.01672e-09
-3.35576e-10
9.09533e-09
-3.20784e-10
9.17044e-09
-3.06474e-10
9.24214e-09
-2.92634e-10
9.31057e-09
-2.79253e-10
9.37583e-09
-2.66322e-10
9.43802e-09
-2.53827e-10
9.49726e-09
-2.41757e-10
9.55364e-09
-2.30102e-10
9.60726e-09
-2.18848e-10
9.65822e-09
-2.07986e-10
9.7066e-09
-1.97503e-10
9.75251e-09
-1.87388e-10
9.79602e-09
-1.77631e-10
9.83723e-09
-1.68222e-10
9.8762e-09
-1.59149e-10
9.91304e-09
-1.50402e-10
9.9478e-09
-1.41972e-10
9.98057e-09
-1.3385e-10
1.00114e-08
-1.26025e-10
1.00404e-08
-1.18488e-10
1.00676e-08
-1.11232e-10
1.00931e-08
-1.04246e-10
1.0117e-08
-9.75231e-11
1.01392e-08
-9.10545e-11
1.01599e-08
-8.48321e-11
1.01792e-08
-7.88485e-11
1.0197e-08
-7.30959e-11
1.02135e-08
-6.75667e-11
1.02287e-08
-6.22537e-11
1.02426e-08
-5.71503e-11
1.02553e-08
-5.22488e-11
1.02669e-08
-4.75432e-11
1.02773e-08
-4.30263e-11
1.02867e-08
-3.86922e-11
1.02951e-08
-3.45342e-11
1.03024e-08
-3.05464e-11
1.03089e-08
-2.67228e-11
1.03144e-08
-2.30572e-11
1.03191e-08
-1.95444e-11
1.03229e-08
-1.61784e-11
1.03259e-08
-1.29541e-11
1.03282e-08
-9.86575e-12
1.03298e-08
-6.90849e-12
1.03306e-08
-4.07716e-12
1.03308e-08
-1.36686e-12
1.03303e-08
1.22732e-12
1.03293e-08
3.71002e-12
1.03276e-08
6.0856e-12
1.03254e-08
8.35877e-12
1.03227e-08
1.05338e-11
1.03194e-08
1.26148e-11
1.03157e-08
1.46057e-11
1.03114e-08
1.65109e-11
1.03068e-08
1.83337e-11
1.03017e-08
2.00781e-11
1.02962e-08
2.17478e-11
1.02902e-08
2.33459e-11
1.0284e-08
2.48762e-11
1.02773e-08
2.63417e-11
1.02703e-08
2.77458e-11
1.0263e-08
2.90911e-11
1.02553e-08
3.03811e-11
1.02474e-08
3.16182e-11
1.02391e-08
3.28052e-11
1.02306e-08
3.3945e-11
1.02218e-08
3.50399e-11
1.02128e-08
3.60922e-11
1.02035e-08
3.71046e-11
1.01939e-08
3.80793e-11
1.01841e-08
3.9018e-11
1.01741e-08
3.99233e-11
1.01639e-08
4.0797e-11
1.01535e-08
4.1641e-11
1.01428e-08
4.2457e-11
1.0132e-08
4.32471e-11
1.0121e-08
4.40124e-11
1.01098e-08
4.4755e-11
1.00984e-08
4.54763e-11
1.00868e-08
4.61775e-11
1.00751e-08
4.68604e-11
1.00632e-08
4.75259e-11
1.00511e-08
4.81757e-11
1.00389e-08
4.88106e-11
1.00266e-08
4.94321e-11
1.0014e-08
5.0041e-11
1.00014e-08