/*--------------------------------*- C++ -*----------------------------------*\
  =========                 |
  \\      /  F ield         | OpenFOAM: The Open Source CFD Toolbox
   \\    /   O peration     | Website:  https://openfoam.org
    \\  /    A nd           | Version:  10
     \\/     M anipulation  |
\*---------------------------------------------------------------------------*/
FoamFile
{
    format      ascii;
    class       volScalarField;
    location    "20300";
    object      p;
}
// * * * * * * * * * * * * * * * * * * * * * * * * * * * * * * * * * * * * * //

dimensions      [1 -1 -2 0 0 0 0];

internalField   nonuniform List<scalar> 
6400
(
108.427
108.481
108.598
108.795
110.383
334.769
546.916
726.285
905.818
1081.29
1260.19
1436.08
1609.19
1776.15
1941.81
2113.64
2285.46
2455.19
2620.23
2782.29
2942.41
3100.55
3256.95
3411.96
3565.58
3717.4
3867.66
4016.57
4163.9
4308.94
4450.95
4588.07
4680.26
4733.88
4783.44
4827.82
4865.73
4895.81
4916.76
4927.52
4927.52
4916.76
4895.81
4865.73
4827.82
4783.44
4733.88
4680.26
4588.07
4450.95
4308.94
4163.9
4016.57
3867.66
3717.4
3565.58
3411.96
3256.95
3100.55
2942.41
2782.29
2620.23
2455.19
2285.46
2113.64
1941.81
1776.15
1609.19
1436.08
1260.19
1081.29
905.818
726.285
546.916
334.769
110.383
108.795
108.598
108.481
108.427
108.131
108.184
108.3
108.503
108.981
109.077
254.614
432.193
611.949
787.103
966.3
1142.18
1315.46
1482.2
1647.53
1819.64
1991.55
2161.39
2326.36
2488.37
2648.5
2806.63
2963.01
3118.03
3271.66
3423.47
3573.73
3722.65
3870.01
4015.08
4157.18
4294.49
4386.97
4440.8
4490.61
4535.27
4573.49
4603.87
4625.04
4635.93
4635.93
4625.04
4603.87
4573.49
4535.27
4490.61
4440.8
4386.97
4294.49
4157.18
4015.08
3870.01
3722.65
3573.73
3423.47
3271.66
3118.03
2963.01
2806.63
2648.5
2488.37
2326.36
2161.39
1991.55
1819.64
1647.53
1482.2
1315.46
1142.18
966.3
787.103
611.949
432.193
254.614
109.077
108.981
108.503
108.3
108.184
108.131
107.803
107.856
107.969
108.167
108.548
108.631
108.601
109.222
289.781
464.126
644.073
819.926
993.597
1159.84
1324.38
1497.15
1669.28
1839.4
2004.19
2166.09
2326.23
2484.34
2640.68
2795.7
2949.38
3101.17
3251.4
3400.35
3547.78
3692.92
3835.21
3972.99
4066.11
4120.43
4170.82
4216.15
4255.09
4286.15
4307.87
4319.07
4319.07
4307.87
4286.15
4255.09
4216.15
4170.82
4120.43
4066.11
3972.99
3835.21
3692.92
3547.78
3400.35
3251.4
3101.17
2949.38
2795.7
2640.68
2484.34
2326.23
2166.09
2004.19
1839.4
1669.28
1497.15
1324.38
1159.84
993.597
819.926
644.073
464.126
289.781
109.222
108.601
108.631
108.548
108.167
107.969
107.856
107.803
107.44
107.492
107.601
107.787
108.091
108.19
108.206
108.422
108.283
109.191
290.84
466.537
641.023
806.326
969.365
1143.45
1315.9
1486.56
1650.99
1812.71
1972.88
2130.94
2287.22
2442.24
2596.01
2747.75
2897.94
3046.94
3194.5
3339.76
3482.36
3620.94
3715.17
3770.33
3821.73
3868.24
3908.45
3940.74
3963.46
3975.21
3975.21
3963.46
3940.74
3908.45
3868.24
3821.73
3770.33
3715.17
3620.94
3482.36
3339.76
3194.5
3046.94
2897.94
2747.75
2596.01
2442.24
2287.22
2130.94
1972.88
1812.71
1650.99
1486.56
1315.9
1143.45
969.365
806.326
641.023
466.537
290.84
109.191
108.283
108.422
108.206
108.19
108.091
107.787
107.601
107.492
107.44
107.038
107.088
107.192
107.362
107.606
107.712
107.757
107.911
107.854
108.057
107.826
108.133
255.414
418.69
579.04
755.58
928.415
1100.01
1263.79
1425.2
1585.46
1743.45
1899.63
2054.65
2208.58
2360.22
2510.35
2659.41
2807.19
2952.6
3095.67
3235.43
3331.37
3387.83
3440.8
3489.15
3531.4
3565.7
3590.05
3602.74
3602.74
3590.05
3565.7
3531.4
3489.15
3440.8
3387.83
3331.37
3235.43
3095.67
2952.6
2807.19
2659.41
2510.35
2360.22
2208.58
2054.65
1899.63
1743.45
1585.46
1425.2
1263.79
1100.01
928.415
755.58
579.04
418.69
255.414
108.133
107.826
108.057
107.854
107.911
107.757
107.712
107.606
107.362
107.192
107.088
107.038
106.593
106.64
106.736
106.888
107.086
107.193
107.255
107.369
107.361
107.481
107.351
107.426
107.248
107.289
149.069
330.391
503.47
676.767
839.282
1000.26
1160.72
1318.59
1474.59
1629.62
1783.84
1935.31
2085.33
2234.48
2382.6
2528.18
2671.85
2813.26
2911.67
2969.98
3025.21
3076.3
3121.66
3159.12
3186.1
3200.28
3200.28
3186.1
3159.12
3121.66
3076.3
3025.21
2969.98
2911.67
2813.26
2671.85
2528.18
2382.6
2234.48
2085.33
1935.31
1783.84
1629.62
1474.59
1318.59
1160.72
1000.26
839.282
676.767
503.47
330.391
149.069
107.289
107.248
107.426
107.351
107.481
107.361
107.369
107.255
107.193
107.086
106.888
106.736
106.64
106.593
106.1
106.143
106.231
106.364
106.525
106.629
106.699
106.787
106.805
106.878
106.807
106.834
106.729
106.768
107.017
106.652
106.708
215.775
373.896
534.193
695.121
852.783
1008.49
1163.5
1318.26
1469.41
1619.24
1768.51
1917.18
2062.89
2207.25
2350.83
2452.65
2513.48
2571.83
2626.83
2676.86
2719.26
2750.45
2767.06
2767.06
2750.45
2719.26
2676.86
2626.83
2571.83
2513.48
2452.65
2350.83
2207.25
2062.89
1917.18
1768.51
1619.24
1469.41
1318.26
1163.5
1008.49
852.783
695.121
534.193
373.896
215.775
106.708
106.652
107.017
106.768
106.729
106.834
106.807
106.878
106.805
106.787
106.699
106.629
106.525
106.364
106.231
106.143
106.1
105.553
105.592
105.671
105.786
105.918
106.016
106.087
106.159
106.189
106.234
106.199
106.202
106.143
106.17
106.29
106.073
106.031
105.862
105.707
105.789
186.192
342.2
497.318
652.255
808.095
958.554
1108.08
1257.5
1407.09
1552.73
1697.8
1844.01
1950.52
2014.57
2076.97
2137.39
2194.4
2244.68
2282.79
2303.46
2303.46
2282.79
2244.68
2194.4
2137.39
2076.97
2014.57
1950.52
1844.01
1697.8
1552.73
1407.09
1257.5
1108.08
958.554
808.095
652.255
497.318
342.2
186.192
105.789
105.707
105.862
106.031
106.073
106.29
106.17
106.143
106.202
106.199
106.234
106.189
106.159
106.087
106.016
105.918
105.786
105.671
105.592
105.553
104.947
104.982
105.051
105.148
105.258
105.346
105.415
105.476
105.51
105.541
105.525
105.519
105.485
105.499
105.545
105.412
105.342
105.211
105.098
105.113
105.108
104.868
104.841
105.908
250.085
398.448
547.436
696.987
848.274
993.286
1138.86
1287.97
1401.1
1468.84
1536.01
1603.62
1671.04
1734.45
1784.5
1812.31
1812.31
1784.5
1734.45
1671.04
1603.62
1536.01
1468.84
1401.1
1287.97
1138.86
993.286
848.274
696.987
547.436
398.448
250.085
105.908
104.841
104.868
105.108
105.113
105.098
105.211
105.342
105.412
105.545
105.499
105.485
105.519
105.525
105.541
105.51
105.476
105.415
105.346
105.258
105.148
105.051
104.982
104.947
104.275
104.306
104.365
104.447
104.538
104.616
104.68
104.733
104.766
104.789
104.783
104.776
104.755
104.756
104.763
104.674
104.599
104.494
104.405
104.384
104.346
104.197
104.163
104.253
103.954
103.823
103.838
105.035
237.83
379.778
525.261
676.871
800.721
871.224
942.677
1018.81
1101.49
1188.54
1260.48
1301.65
1301.65
1260.48
1188.54
1101.49
1018.81
942.677
871.224
800.721
676.871
525.261
379.778
237.83
105.035
103.838
103.823
103.954
104.253
104.163
104.197
104.346
104.384
104.405
104.494
104.599
104.674
104.763
104.756
104.755
104.776
104.783
104.789
104.766
104.733
104.68
104.616
104.538
104.447
104.365
104.306
104.275
103.532
103.558
103.608
103.675
103.75
103.818
103.875
103.922
103.953
103.971
103.971
103.964
103.948
103.941
103.927
103.861
103.79
103.704
103.629
103.588
103.536
103.436
103.391
103.389
103.209
103.104
103.098
103.189
102.911
102.781
102.768
103.044
163.33
220.103
289.95
373.063
475.346
610.974
724.11
791.978
791.978
724.11
610.974
475.346
373.063
289.95
220.103
163.33
103.044
102.768
102.781
102.911
103.189
103.098
103.104
103.209
103.389
103.391
103.436
103.536
103.588
103.629
103.704
103.79
103.861
103.927
103.941
103.948
103.964
103.971
103.971
103.953
103.922
103.875
103.818
103.75
103.675
103.608
103.558
103.532
102.709
102.731
102.772
102.827
102.889
102.947
102.996
103.036
103.064
103.08
103.081
103.075
103.062
103.048
103.025
102.971
102.908
102.835
102.768
102.717
102.661
102.585
102.532
102.491
102.373
102.287
102.259
102.259
102.099
101.996
101.971
102.015
101.919
101.882
101.875
101.902
102.099
119.015
227.07
340.804
340.804
227.07
119.015
102.099
101.902
101.875
101.882
101.919
102.015
101.971
101.996
102.099
102.259
102.259
102.287
102.373
102.491
102.532
102.585
102.661
102.717
102.768
102.835
102.908
102.971
103.025
103.048
103.062
103.075
103.081
103.08
103.064
103.036
102.996
102.947
102.889
102.827
102.772
102.731
102.709
101.8
101.817
101.851
101.895
101.945
101.993
102.035
102.069
102.093
102.106
102.108
102.103
102.09
102.072
102.045
101.999
101.942
101.879
101.819
101.765
101.708
101.643
101.587
101.532
101.445
101.372
101.329
101.291
101.189
101.109
101.074
101.069
101.023
101.002
100.992
100.994
100.998
100.995
101.552
133.688
133.688
101.552
100.995
100.998
100.994
100.992
101.002
101.023
101.069
101.074
101.109
101.189
101.291
101.329
101.372
101.445
101.532
101.587
101.643
101.708
101.765
101.819
101.879
101.942
101.999
102.045
102.072
102.09
102.103
102.108
102.106
102.093
102.069
102.035
101.993
101.945
101.895
101.851
101.817
101.8
100.795
100.809
100.836
100.871
100.911
100.95
100.984
101.012
101.032
101.043
101.045
101.039
101.026
101.006
100.977
100.936
100.886
100.831
100.775
100.721
100.666
100.607
100.55
100.492
100.421
100.357
100.306
100.256
100.182
100.117
100.078
100.054
100.026
100.012
100.002
99.9964
99.9929
99.9891
99.9844
105.597
105.597
99.9844
99.9891
99.9929
99.9964
100.002
100.012
100.026
100.054
100.078
100.117
100.182
100.256
100.306
100.357
100.421
100.492
100.55
100.607
100.666
100.721
100.775
100.831
100.886
100.936
100.977
101.006
101.026
101.039
101.045
101.043
101.032
101.012
100.984
100.95
100.911
100.871
100.836
100.809
100.795
99.6869
99.6978
99.7183
99.7457
99.7766
99.8074
99.835
99.8573
99.873
99.8811
99.8816
99.8748
99.8613
99.841
99.8126
99.7751
99.7302
99.6805
99.6292
99.5774
99.5242
99.4692
99.414
99.357
99.2956
99.237
99.1844
99.132
99.0723
99.0184
98.9783
98.9481
98.9263
98.9144
98.9047
98.8972
98.8912
98.8859
98.8743
101.474
101.474
98.8743
98.8859
98.8912
98.8972
98.9047
98.9144
98.9263
98.9481
98.9783
99.0184
99.0723
99.132
99.1844
99.237
99.2956
99.357
99.414
99.4692
99.5242
99.5774
99.6292
99.6805
99.7302
99.7751
99.8126
99.841
99.8613
99.8748
99.8816
99.8811
99.873
99.8573
99.835
99.8074
99.7766
99.7457
99.7183
99.6978
99.6869
98.4649
98.4731
98.4885
98.5092
98.5327
98.5562
98.5773
98.5943
98.6059
98.6112
98.61
98.6023
98.5882
98.5677
98.5403
98.5057
98.465
98.42
98.3726
98.3237
98.2733
98.2214
98.1687
98.1147
98.0592
98.0051
97.9539
97.9034
97.8521
97.8051
97.7664
97.735
97.7155
97.7047
97.6952
97.6872
97.6805
97.6748
97.6625
99.6259
99.6259
97.6625
97.6748
97.6805
97.6872
97.6952
97.7047
97.7155
97.735
97.7664
97.8051
97.8521
97.9034
97.9539
98.0051
98.0592
98.1147
98.1687
98.2214
98.2733
98.3237
98.3726
98.42
98.465
98.5057
98.5403
98.5677
98.5882
98.6023
98.61
98.6112
98.6059
98.5943
98.5773
98.5562
98.5327
98.5092
98.4885
98.4731
98.4649
97.0334
97.0392
97.0502
97.065
97.0817
97.0984
97.1134
97.1251
97.1325
97.1348
97.1316
97.1227
97.1081
97.0877
97.0614
97.0294
96.9925
96.9516
96.9079
96.8623
96.8151
96.7666
96.7172
96.6669
96.6161
96.5663
96.5179
96.471
96.4256
96.3838
96.3476
96.317
96.2986
96.2883
96.2792
96.2712
96.2643
96.2585
96.2461
98.1045
98.1045
96.2461
96.2585
96.2643
96.2712
96.2792
96.2883
96.2986
96.317
96.3476
96.3838
96.4256
96.471
96.5179
96.5663
96.6161
96.6669
96.7172
96.7666
96.8151
96.8623
96.9079
96.9516
96.9925
97.0294
97.0614
97.0877
97.1081
97.1227
97.1316
97.1348
97.1325
97.1251
97.1134
97.0984
97.0817
97.065
97.0502
97.0392
97.0334
95.4485
95.4524
95.4599
95.4698
95.481
95.4921
95.5018
95.5088
95.5123
95.5117
95.5064
95.4962
95.4811
95.4609
95.4358
95.406
95.372
95.3345
95.2943
95.252
95.208
95.1628
95.1167
95.0701
95.0235
94.9774
94.9326
94.8894
94.8483
94.8104
94.7767
94.7477
94.7301
94.7203
94.7114
94.7035
94.6966
94.6906
94.6781
96.5672
96.5672
94.6781
94.6906
94.6966
94.7035
94.7114
94.7203
94.7301
94.7477
94.7767
94.8104
94.8483
94.8894
94.9326
94.9774
95.0235
95.0701
95.1167
95.1628
95.208
95.252
95.2943
95.3345
95.372
95.406
95.4358
95.4609
95.4811
95.4962
95.5064
95.5117
95.5123
95.5088
95.5018
95.4921
95.481
95.4698
95.4599
95.4524
95.4485
93.8596
93.8622
93.867
93.8734
93.8805
93.8873
93.8928
93.896
93.8964
93.8931
93.886
93.8747
93.8591
93.8392
93.815
93.7868
93.755
93.7201
93.6827
93.6432
93.6021
93.5599
93.5169
93.4735
93.4301
93.3874
93.3457
93.3057
93.2678
93.2328
93.2013
93.1737
93.1568
93.1473
93.1386
93.1308
93.1239
93.1179
93.1052
95.0501
95.0501
93.1052
93.1179
93.1239
93.1308
93.1386
93.1473
93.1568
93.1737
93.2013
93.2328
93.2678
93.3057
93.3457
93.3874
93.4301
93.4735
93.5169
93.5599
93.6021
93.6432
93.6827
93.7201
93.755
93.7868
93.815
93.8392
93.8591
93.8747
93.886
93.8931
93.8964
93.896
93.8928
93.8873
93.8805
93.8734
93.867
93.8622
93.8596
92.2681
92.2696
92.2726
92.2763
92.2803
92.2838
92.286
92.2862
92.2839
92.2786
92.2698
92.2575
92.2414
92.2216
92.1982
92.1712
92.1411
92.1083
92.0731
92.036
91.9974
91.9578
91.9174
91.8767
91.8362
91.7962
91.7573
91.7198
91.6845
91.6516
91.6219
91.5955
91.5792
91.5699
91.5614
91.5536
91.5467
91.5405
91.5278
93.5366
93.5366
91.5278
91.5405
91.5467
91.5536
91.5614
91.5699
91.5792
91.5955
91.6219
91.6516
91.6845
91.7198
91.7573
91.7962
91.8362
91.8767
91.9174
91.9578
91.9974
92.036
92.0731
92.1083
92.1411
92.1712
92.1982
92.2216
92.2414
92.2575
92.2698
92.2786
92.2839
92.2862
92.286
92.2838
92.2803
92.2763
92.2726
92.2696
92.2681
90.675
90.6758
90.6773
90.679
90.6806
90.6815
90.6811
90.6789
90.6745
90.6673
90.6573
90.644
90.6275
90.6077
90.5848
90.5588
90.53
90.4988
90.4654
90.4303
90.3938
90.3564
90.3182
90.2799
90.2416
90.2039
90.1673
90.132
90.0986
90.0674
90.039
90.0136
89.9977
89.9886
89.9802
89.9724
89.9654
89.9592
89.9463
92.0248
92.0248
89.9463
89.9592
89.9654
89.9724
89.9802
89.9886
89.9977
90.0136
90.039
90.0674
90.0986
90.132
90.1673
90.2039
90.2416
90.2799
90.3182
90.3564
90.3938
90.4303
90.4654
90.4988
90.53
90.5588
90.5848
90.6077
90.6275
90.644
90.6573
90.6673
90.6745
90.6789
90.6811
90.6815
90.6806
90.679
90.6773
90.6758
90.675
89.0811
89.0813
89.0817
89.0819
89.0817
89.0805
89.0781
89.0739
89.0677
89.0591
89.0478
89.0338
89.0169
88.9971
88.9744
88.9491
88.9214
88.8914
88.8595
88.826
88.7912
88.7556
88.7193
88.6828
88.6465
88.6107
88.5758
88.5423
88.5104
88.4805
88.4531
88.4285
88.4128
88.4038
88.3954
88.3876
88.3805
88.3741
88.361
90.5156
90.5156
88.361
88.3741
88.3805
88.3876
88.3954
88.4038
88.4128
88.4285
88.4531
88.4805
88.5104
88.5423
88.5758
88.6107
88.6465
88.6828
88.7193
88.7556
88.7912
88.826
88.8595
88.8914
88.9214
88.9491
88.9744
88.9971
89.0169
89.0338
89.0478
89.0591
89.0677
89.0739
89.0781
89.0805
89.0817
89.0819
89.0817
89.0813
89.0811
87.4869
87.4867
87.4862
87.4853
87.4836
87.4808
87.4768
87.471
87.4633
87.4535
87.4412
87.4264
87.4091
87.3892
87.3668
87.342
87.3149
87.2859
87.2552
87.2229
87.1896
87.1554
87.1206
87.0857
87.0509
87.0166
86.9831
86.9508
86.9201
86.8912
86.8645
86.8403
86.8247
86.8157
86.8073
86.7995
86.7922
86.7856
86.7723
89.0102
89.0102
86.7723
86.7856
86.7922
86.7995
86.8073
86.8157
86.8247
86.8403
86.8645
86.8912
86.9201
86.9508
86.9831
87.0166
87.0509
87.0857
87.1206
87.1554
87.1896
87.2229
87.2552
87.2859
87.3149
87.342
87.3668
87.3892
87.4091
87.4264
87.4412
87.4535
87.4633
87.471
87.4768
87.4808
87.4836
87.4853
87.4862
87.4867
87.4869
85.8929
85.8924
85.8912
85.8893
85.8865
85.8825
85.8771
85.8701
85.8612
85.8502
85.8371
85.8217
85.8039
85.7838
85.7615
85.737
85.7105
85.6822
85.6523
85.621
85.5888
85.5557
85.5221
85.4884
85.4548
85.4216
85.3892
85.3579
85.328
85.2997
85.2735
85.2494
85.2339
85.2248
85.2163
85.2083
85.2008
85.194
85.1804
87.5098
87.5098
85.1804
85.194
85.2008
85.2083
85.2163
85.2248
85.2339
85.2494
85.2735
85.2997
85.328
85.3579
85.3892
85.4216
85.4548
85.4884
85.5221
85.5557
85.5888
85.621
85.6523
85.6822
85.7105
85.737
85.7615
85.7838
85.8039
85.8217
85.8371
85.8502
85.8612
85.8701
85.8771
85.8825
85.8865
85.8893
85.8912
85.8924
85.8929
84.2995
84.2987
84.297
84.2944
84.2906
84.2856
84.2791
84.271
84.261
84.2492
84.2353
84.2192
84.2011
84.1808
84.1584
84.134
84.1078
84.08
84.0507
84.0202
83.9887
83.9565
83.9238
83.891
83.8582
83.8259
83.7942
83.7635
83.7341
83.7062
83.6801
83.6561
83.6404
83.6312
83.6225
83.6143
83.6066
83.5994
83.5855
86.0161
86.0161
83.5855
83.5994
83.6066
83.6143
83.6225
83.6312
83.6404
83.6561
83.6801
83.7062
83.7341
83.7635
83.7942
83.8259
83.8582
83.891
83.9238
83.9565
83.9887
84.0202
84.0507
84.08
84.1078
84.134
84.1584
84.1808
84.2011
84.2192
84.2353
84.2492
84.261
84.271
84.2791
84.2856
84.2906
84.2944
84.297
84.2987
84.2995
82.7069
82.7059
82.7037
82.7005
82.696
82.6901
82.6827
82.6737
82.6629
82.6502
82.6356
82.619
82.6003
82.5797
82.5572
82.5329
82.5069
82.4793
82.4504
82.4204
82.3894
82.3578
82.3257
82.2934
82.2613
82.2295
82.1983
82.1679
82.1388
82.111
82.0848
82.0605
82.0445
82.035
82.0261
82.0176
82.0096
82.0021
81.9878
84.5307
84.5307
81.9878
82.0021
82.0096
82.0176
82.0261
82.035
82.0445
82.0605
82.0848
82.111
82.1388
82.1679
82.1983
82.2295
82.2613
82.2934
82.3257
82.3578
82.3894
82.4204
82.4504
82.4793
82.5069
82.5329
82.5572
82.5797
82.6003
82.619
82.6356
82.6502
82.6629
82.6737
82.6827
82.6901
82.696
82.7005
82.7037
82.7059
82.7069
81.1153
81.1141
81.1116
81.1079
81.1027
81.0961
81.0879
81.0781
81.0665
81.0531
81.0378
81.0207
81.0016
80.9806
80.9579
80.9335
80.9074
80.88
80.8512
80.8214
80.7908
80.7594
80.7277
80.6958
80.664
80.6324
80.6014
80.5712
80.542
80.5141
80.4876
80.4628
80.4463
80.4366
80.4273
80.4184
80.4101
80.4022
80.3873
83.0559
83.0559
80.3873
80.4022
80.4101
80.4184
80.4273
80.4366
80.4463
80.4628
80.4876
80.5141
80.542
80.5712
80.6014
80.6324
80.664
80.6958
80.7277
80.7594
80.7908
80.8214
80.8512
80.88
80.9074
80.9335
80.9579
80.9806
81.0016
81.0207
81.0378
81.0531
81.0665
81.0781
81.0879
81.0961
81.1027
81.1079
81.1116
81.1141
81.1153
79.5249
79.5236
79.5208
79.5166
79.5109
79.5037
79.4949
79.4843
79.472
79.4579
79.442
79.4243
79.4047
79.3833
79.3603
79.3356
79.3094
79.2819
79.2531
79.2233
79.1928
79.1616
79.1299
79.0981
79.0664
79.0349
79.0038
78.9735
78.944
78.9157
78.8886
78.8632
78.846
78.8359
78.8261
78.8168
78.808
78.7996
78.7841
81.5939
81.5939
78.7841
78.7996
78.808
78.8168
78.8261
78.8359
78.846
78.8632
78.8886
78.9157
78.944
78.9735
79.0038
79.0349
79.0664
79.0981
79.1299
79.1616
79.1928
79.2233
79.2531
79.2819
79.3094
79.3356
79.3603
79.3833
79.4047
79.4243
79.442
79.4579
79.472
79.4843
79.4949
79.5037
79.5109
79.5166
79.5208
79.5236
79.5249
77.936
77.9345
77.9314
77.9269
77.9207
77.9129
77.9035
77.8923
77.8793
77.8646
77.8481
77.8297
77.8096
77.7878
77.7643
77.7392
77.7127
77.685
77.656
77.6261
77.5954
77.5641
77.5323
77.5004
77.4685
77.4368
77.4055
77.3748
77.3449
77.316
77.2882
77.2617
77.2438
77.2331
77.2228
77.2129
77.2035
77.1945
77.1782
80.1474
80.1474
77.1782
77.1945
77.2035
77.2129
77.2228
77.2331
77.2438
77.2617
77.2882
77.316
77.3449
77.3748
77.4055
77.4368
77.4685
77.5004
77.5323
77.5641
77.5954
77.6261
77.656
77.685
77.7127
77.7392
77.7643
77.7878
77.8096
77.8297
77.8481
77.8646
77.8793
77.8923
77.9035
77.9129
77.9207
77.9269
77.9314
77.9345
77.936
76.3485
76.3468
76.3436
76.3387
76.3321
76.3238
76.3138
76.302
76.2884
76.273
76.2559
76.2369
76.2162
76.1938
76.1698
76.1443
76.1174
76.0892
76.0599
76.0296
75.9986
75.967
75.9349
75.9027
75.8704
75.8383
75.8066
75.7754
75.7448
75.7151
75.6864
75.6588
75.6398
75.6284
75.6174
75.6067
75.5965
75.5867
75.5693
78.7186
78.7186
75.5693
75.5867
75.5965
75.6067
75.6174
75.6284
75.6398
75.6588
75.6864
75.7151
75.7448
75.7754
75.8066
75.8383
75.8704
75.9027
75.9349
75.967
75.9986
76.0296
76.0599
76.0892
76.1174
76.1443
76.1698
76.1938
76.2162
76.2369
76.2559
76.273
76.2884
76.302
76.3138
76.3238
76.3321
76.3387
76.3436
76.3468
76.3485
74.7626
74.7609
74.7574
74.7522
74.7452
74.7365
74.7259
74.7135
74.6993
74.6833
74.6655
74.6459
74.6245
74.6015
74.5769
74.5508
74.5233
74.4946
74.4648
74.434
74.4024
74.3703
74.3378
74.305
74.2722
74.2395
74.2072
74.1753
74.1439
74.1133
74.0834
74.0544
74.0342
74.022
74.01
73.9983
73.987
73.9762
73.9573
77.3073
77.3073
73.9573
73.9762
73.987
73.9983
74.01
74.022
74.0342
74.0544
74.0834
74.1133
74.1439
74.1753
74.2072
74.2395
74.2722
74.305
74.3378
74.3703
74.4024
74.434
74.4648
74.4946
74.5233
74.5508
74.5769
74.6015
74.6245
74.6459
74.6655
74.6833
74.6993
74.7135
74.7259
74.7365
74.7452
74.7522
74.7574
74.7609
74.7626
73.1785
73.1766
73.173
73.1675
73.1601
73.1509
73.1398
73.1269
73.112
73.0954
73.0768
73.0565
73.0345
73.0108
72.9855
72.9587
72.9305
72.9011
72.8705
72.8391
72.8068
72.774
72.7408
72.7073
72.6738
72.6404
72.6073
72.5746
72.5424
72.5107
72.4796
72.4491
72.4274
72.4142
72.4011
72.3881
72.3753
72.3629
72.3415
75.8996
75.8996
72.3415
72.3629
72.3753
72.3881
72.4011
72.4142
72.4274
72.4491
72.4796
72.5107
72.5424
72.5746
72.6073
72.6404
72.6738
72.7073
72.7408
72.774
72.8068
72.8391
72.8705
72.9011
72.9305
72.9587
72.9855
73.0108
73.0345
73.0565
73.0768
73.0954
73.112
73.1269
73.1398
73.1509
73.1601
73.1675
73.173
73.1766
73.1785
71.5962
71.5942
71.5904
71.5846
71.5769
71.5672
71.5556
71.5421
71.5266
71.5092
71.49
71.469
71.4462
71.4216
71.3955
71.3679
71.3389
71.3086
71.2773
71.2449
71.2118
71.1782
71.144
71.1097
71.0753
71.041
71.007
70.9734
70.9402
70.9076
70.8753
70.8433
70.8201
70.8058
70.7914
70.7768
70.762
70.7472
70.7219
74.4194
74.4194
70.7219
70.7472
70.762
70.7768
70.7914
70.8058
70.8201
70.8433
70.8753
70.9076
70.9402
70.9734
71.007
71.041
71.0753
71.1097
71.144
71.1782
71.2118
71.2449
71.2773
71.3086
71.3389
71.3679
71.3955
71.4216
71.4462
71.469
71.49
71.5092
71.5266
71.5421
71.5556
71.5672
71.5769
71.5846
71.5904
71.5942
71.5962
70.0158
70.0138
70.0097
70.0036
69.9955
69.9854
69.9733
69.9592
69.9431
69.925
69.905
69.8832
69.8595
69.8341
69.8071
69.7785
69.7486
69.7173
69.6849
69.6516
69.6175
69.5827
69.5475
69.5121
69.4767
69.4414
69.4063
69.3717
69.3376
69.304
69.2707
69.2376
69.2133
69.198
69.1824
69.1661
69.1491
69.131
69.0997
72.5288
72.5288
69.0997
69.131
69.1491
69.1661
69.1824
69.198
69.2133
69.2376
69.2707
69.304
69.3376
69.3717
69.4063
69.4414
69.4767
69.5121
69.5475
69.5827
69.6175
69.6516
69.6849
69.7173
69.7486
69.7785
69.8071
69.8341
69.8595
69.8832
69.905
69.925
69.9431
69.9592
69.9733
69.9854
69.9955
70.0036
70.0097
70.0138
70.0158
68.4374
68.4353
68.4311
68.4247
68.4162
68.4057
68.393
68.3783
68.3615
68.3427
68.3219
68.2992
68.2746
68.2482
68.2202
68.1906
68.1595
68.1271
68.0936
68.059
68.0237
67.9877
67.9513
67.9146
67.8779
67.8414
67.8053
67.7696
67.7345
67.7
67.6661
67.6324
67.6078
67.5923
67.5764
67.5596
67.5414
67.5209
67.4845
69.1299
69.1299
67.4845
67.5209
67.5414
67.5596
67.5764
67.5923
67.6078
67.6324
67.6661
67.7
67.7345
67.7696
67.8053
67.8414
67.8779
67.9146
67.9513
67.9877
68.0237
68.059
68.0936
68.1271
68.1595
68.1906
68.2202
68.2482
68.2746
68.2992
68.3219
68.3427
68.3615
68.3783
68.393
68.4057
68.4162
68.4247
68.4311
68.4353
68.4374
66.8612
66.859
66.8545
66.8479
66.8391
66.828
66.8148
66.7994
66.7819
66.7623
66.7407
66.717
66.6915
66.664
66.6349
66.6041
66.5718
66.5381
66.5032
66.4673
66.4305
66.3931
66.3552
66.3171
66.279
66.2411
66.2037
66.1668
66.1307
66.0955
66.0611
66.0276
66.0038
65.9893
65.9747
65.96
65.9452
65.9301
65.9082
65.9026
65.9026
65.9082
65.9301
65.9452
65.96
65.9747
65.9893
66.0038
66.0276
66.0611
66.0955
66.1307
66.1668
66.2037
66.2411
66.279
66.3171
66.3552
66.3931
66.4305
66.4673
66.5032
66.5381
66.5718
66.6041
66.6349
66.664
66.6915
66.717
66.7407
66.7623
66.7819
66.7994
66.8148
66.828
66.8391
66.8479
66.8545
66.859
66.8612
65.2872
65.2849
65.2802
65.2733
65.2641
65.2525
65.2388
65.2227
65.2045
65.184
65.1615
65.1368
65.1102
65.0816
65.0512
65.0191
64.9854
64.9503
64.9139
64.8764
64.838
64.7989
64.7594
64.7196
64.6799
64.6404
64.6015
64.5633
64.5261
64.4901
64.4554
64.4222
64.3997
64.3862
64.3734
64.3612
64.3501
64.3404
64.3307
64.3264
64.3264
64.3307
64.3404
64.3501
64.3612
64.3734
64.3862
64.3997
64.4222
64.4554
64.4901
64.5261
64.5633
64.6015
64.6404
64.6799
64.7196
64.7594
64.7989
64.838
64.8764
64.9139
64.9503
64.9854
65.0191
65.0512
65.0816
65.1102
65.1368
65.1615
65.184
65.2045
65.2227
65.2388
65.2525
65.2641
65.2733
65.2802
65.2849
65.2872
63.7155
63.7131
63.7082
63.701
63.6914
63.6793
63.665
63.6482
63.6292
63.6079
63.5843
63.5586
63.5308
63.501
63.4692
63.4357
63.4005
63.3637
63.3256
63.2864
63.2462
63.2052
63.1638
63.1221
63.0805
63.0392
62.9986
62.9588
62.9203
62.8833
62.8481
62.815
62.7931
62.7803
62.7684
62.7574
62.7477
62.7395
62.7332
62.729
62.729
62.7332
62.7395
62.7477
62.7574
62.7684
62.7803
62.7931
62.815
62.8481
62.8833
62.9203
62.9588
62.9986
63.0392
63.0805
63.1221
63.1638
63.2052
63.2462
63.2864
63.3256
63.3637
63.4005
63.4357
63.4692
63.501
63.5308
63.5586
63.5843
63.6079
63.6292
63.6482
63.665
63.6793
63.6914
63.701
63.7082
63.7131
63.7155
62.1462
62.1437
62.1386
62.1311
62.121
62.1085
62.0935
62.076
62.0562
62.0339
62.0093
61.9825
61.9534
61.9222
61.889
61.8539
61.817
61.7785
61.7386
61.6973
61.6551
61.612
61.5684
61.5246
61.4808
61.4374
61.3947
61.3531
61.313
61.2747
61.2386
61.205
61.1831
61.1703
61.1583
61.1474
61.1375
61.1291
61.1238
61.1197
61.1197
61.1238
61.1291
61.1375
61.1474
61.1583
61.1703
61.1831
61.205
61.2386
61.2747
61.313
61.3531
61.3947
61.4374
61.4808
61.5246
61.5684
61.612
61.6551
61.6973
61.7386
61.7785
61.817
61.8539
61.889
61.9222
61.9534
61.9825
62.0093
62.0339
62.0562
62.076
62.0935
62.1085
62.121
62.1311
62.1386
62.1437
62.1462
60.5794
60.5768
60.5715
60.5637
60.5532
60.5401
60.5245
60.5063
60.4855
60.4623
60.4366
60.4086
60.3782
60.3456
60.3108
60.274
60.2352
60.1948
60.1527
60.1093
60.0648
60.0193
59.9733
59.927
59.8807
59.8348
59.7898
59.746
59.7039
59.6639
59.6265
59.5919
59.5693
59.556
59.5434
59.5314
59.5203
59.5102
59.5049
59.5009
59.5009
59.5049
59.5102
59.5203
59.5314
59.5434
59.556
59.5693
59.5919
59.6265
59.6639
59.7039
59.746
59.7898
59.8348
59.8807
59.927
59.9733
60.0193
60.0648
60.1093
60.1527
60.1948
60.2352
60.274
60.3108
60.3456
60.3782
60.4086
60.4366
60.4623
60.4855
60.5063
60.5245
60.5401
60.5532
60.5637
60.5715
60.5768
60.5794
59.0153
59.0125
59.0071
58.9989
58.988
58.9743
58.958
58.939
58.9174
58.8931
58.8663
58.837
58.8052
58.771
58.7345
58.6959
58.6552
58.6126
58.5683
58.5225
58.4754
58.4273
58.3785
58.3293
58.2801
58.2314
58.1836
58.1372
58.0927
58.0506
58.0115
57.9756
57.9522
57.9384
57.9249
57.9115
57.8976
57.8818
57.868
57.8654
57.8654
57.868
57.8818
57.8976
57.9115
57.9249
57.9384
57.9522
57.9756
58.0115
58.0506
58.0927
58.1372
58.1836
58.2314
58.2801
58.3293
58.3785
58.4273
58.4754
58.5225
58.5683
58.6126
58.6552
58.6959
58.7345
58.771
58.8052
58.837
58.8663
58.8931
58.9174
58.939
58.958
58.9743
58.988
58.9989
59.0071
59.0125
59.0153
57.454
57.4512
57.4455
57.437
57.4256
57.4114
57.3944
57.3746
57.3521
57.3267
57.2987
57.268
57.2348
57.1989
57.1607
57.1201
57.0773
57.0324
56.9856
56.9371
56.8872
56.8361
56.7842
56.7318
56.6794
56.6273
56.5763
56.5267
56.4793
56.4346
56.3934
56.3562
56.3325
56.3189
56.3063
56.2948
56.2845
56.276
56.2701
56.2676
56.2676
56.2701
56.276
56.2845
56.2948
56.3063
56.3189
56.3325
56.3562
56.3934
56.4346
56.4793
56.5267
56.5763
56.6273
56.6794
56.7318
56.7842
56.8361
56.8872
56.9371
56.9856
57.0324
57.0773
57.1201
57.1607
57.1989
57.2348
57.268
57.2987
57.3267
57.3521
57.3746
57.3944
57.4114
57.4256
57.437
57.4455
57.4512
57.454
55.8957
55.8927
55.8868
55.8779
55.8661
55.8513
55.8336
55.813
55.7895
55.7631
55.7338
55.7017
55.6669
55.6293
55.5892
55.5465
55.5014
55.454
55.4045
55.3532
55.3002
55.2458
55.1904
55.1344
55.0782
55.0223
54.9674
54.9141
54.8631
54.8152
54.7713
54.7322
54.7081
54.6945
54.6824
54.6717
54.6628
54.6558
54.6509
54.6485
54.6485
54.6509
54.6558
54.6628
54.6717
54.6824
54.6945
54.7081
54.7322
54.7713
54.8152
54.8631
54.9141
54.9674
55.0223
55.0782
55.1344
55.1904
55.2458
55.3002
55.3532
55.4045
55.454
55.5014
55.5465
55.5892
55.6293
55.6669
55.7017
55.7338
55.7631
55.7895
55.813
55.8336
55.8513
55.8661
55.8779
55.8868
55.8927
55.8957
54.3402
54.3372
54.331
54.3218
54.3095
54.2942
54.2757
54.2543
54.2298
54.2022
54.1717
54.1381
54.1017
54.0623
54.0202
53.9753
53.9278
53.8778
53.8254
53.7709
53.7145
53.6565
53.5973
53.5371
53.4766
53.4163
53.3569
53.2991
53.2438
53.1918
53.1444
53.1025
53.0772
53.0631
53.0507
53.04
53.0312
53.0244
53.0197
53.0173
53.0173
53.0197
53.0244
53.0312
53.04
53.0507
53.0631
53.0772
53.1025
53.1444
53.1918
53.2438
53.2991
53.3569
53.4163
53.4766
53.5371
53.5973
53.6565
53.7145
53.7709
53.8254
53.8778
53.9278
53.9753
54.0202
54.0623
54.1017
54.1381
54.1717
54.2022
54.2298
54.2543
54.2757
54.2942
54.3095
54.3218
54.331
54.3372
54.3402
52.7879
52.7847
52.7783
52.7688
52.756
52.7401
52.7209
52.6986
52.6731
52.6444
52.6125
52.5775
52.5394
52.4982
52.4539
52.4067
52.3567
52.3038
52.2484
52.1905
52.1305
52.0685
52.005
51.9403
51.8749
51.8095
51.7448
51.6817
51.621
51.564
51.5119
51.4661
51.4386
51.4234
51.4101
51.3987
51.3895
51.3825
51.3776
51.3753
51.3753
51.3776
51.3825
51.3895
51.3987
51.4101
51.4234
51.4386
51.4661
51.5119
51.564
51.621
51.6817
51.7448
51.8095
51.8749
51.9403
52.005
52.0685
52.1305
52.1905
52.2484
52.3038
52.3567
52.4067
52.4539
52.4982
52.5394
52.5775
52.6125
52.6444
52.6731
52.6986
52.7209
52.7401
52.756
52.7688
52.7783
52.7847
52.7879
51.2387
51.2354
51.2288
51.2189
51.2057
51.1892
51.1693
51.1461
51.1196
51.0897
51.0565
51.02
50.9802
50.937
50.8906
50.841
50.7883
50.7325
50.6738
50.6124
50.5484
50.4821
50.4138
50.344
50.2732
50.202
50.1312
50.0617
49.9946
49.9313
49.8731
49.8218
49.7911
49.7742
49.7594
49.7469
49.7368
49.7292
49.7241
49.7217
49.7217
49.7241
49.7292
49.7368
49.7469
49.7594
49.7742
49.7911
49.8218
49.8731
49.9313
49.9946
50.0617
50.1312
50.202
50.2732
50.344
50.4138
50.4821
50.5484
50.6124
50.6738
50.7325
50.7883
50.841
50.8906
50.937
50.9802
51.02
51.0565
51.0897
51.1196
51.1461
51.1693
51.1892
51.2057
51.2189
51.2288
51.2354
51.2387
49.6929
49.6895
49.6826
49.6724
49.6587
49.6416
49.621
49.5969
49.5694
49.5384
49.5038
49.4658
49.4242
49.3791
49.3305
49.2785
49.223
49.1641
49.102
49.0367
48.9685
48.8976
48.8242
48.7488
48.6719
48.5941
48.5163
48.4393
48.3645
48.2933
48.2274
48.1689
48.1336
48.1142
48.0971
48.0828
48.0712