/*--------------------------------*- C++ -*----------------------------------*\
  =========                 |
  \\      /  F ield         | OpenFOAM: The Open Source CFD Toolbox
   \\    /   O peration     | Website:  https://openfoam.org
    \\  /    A nd           | Version:  10
     \\/     M anipulation  |
\*---------------------------------------------------------------------------*/
FoamFile
{
    format      ascii;
    class       volScalarField;
    location    "0.02";
    object      p;
}
// * * * * * * * * * * * * * * * * * * * * * * * * * * * * * * * * * * * * * //

dimensions      [0 2 -2 0 0 0 0];

internalField   nonuniform List<scalar> 
4000
(
5.94083
5.94034
5.93921
5.93717
5.93437
5.93078
5.92656
5.92155
5.91591
5.90946
5.90237
5.89444
5.88588
5.87645
5.86639
5.85544
5.84385
5.83131
5.81813
5.80396
5.78911
5.77319
5.75657
5.7388
5.72028
5.70052
5.67994
5.65803
5.63523
5.61098
5.58575
5.55895
5.53108
5.50147
5.47069
5.43802
5.40403
5.36798
5.33047
5.29068
5.24927
5.20537
5.15965
5.1112
5.06071
5.00724
4.9515
4.89249
4.83095
4.76584
4.69791
4.62608
4.55113
4.47194
4.3893
4.30206
4.21101
4.115
4.01482
3.90929
3.79922
3.68343
3.56274
3.43595
3.30393
3.16546
3.02145
2.8707
2.71417
2.55068
2.38126
2.20474
2.02227
1.83271
1.63733
1.43502
1.22719
1.0128
0.793413
0.568021
0.338366
0.10348
-0.134722
-0.377185
-0.621834
-0.869613
-1.11831
-1.36889
-1.61902
-1.86975
-2.11867
-2.36689
-2.61196
-2.85512
-3.0939
-3.32966
-3.55995
-3.78626
-4.00617
-4.22129
-4.42928
-4.63185
-4.82672
-5.01571
-5.19662
-5.37133
-5.53774
-5.69778
-5.84944
-5.99466
-6.13153
-6.26197
-6.38416
-6.49998
-6.60774
-6.70922
-6.80289
-6.89041
-6.97036
-7.04424
-7.1108
-7.17131
-7.22469
-7.27197
-7.31228
-7.34633
-7.37354
-7.39423
-7.40814
-7.41521
-7.41554
-7.4086
-7.39497
-7.3736
-7.34557
-7.30932
-7.26649
-7.21496
-7.15702
-7.08995
-7.01675
-6.93412
-6.84577
-6.74784
-6.64477
-6.53217
-6.41519
-6.28892
-6.1592
-6.02066
-5.87976
-5.73069
-5.58046
-5.42288
-5.26541
-5.10154
-4.93904
-4.77117
-4.60591
-4.43632
-4.27049
-4.10134
-3.93698
-3.77025
-3.60917
-3.44658
-3.29036
-3.13334
-2.98322
-2.83292
-2.68987
-2.5471
-2.41179
-2.27709
-2.1499
-2.02355
-1.90462
-1.78664
-1.67591
-1.56612
-1.46331
-1.36138
-1.26609
-1.17153
-1.08323
-0.995445
-0.913503
-0.831815
-0.755523
-0.679176
-0.607775
-0.53598
-0.468685
-0.400648
-0.33668
-0.271685
-0.210179
-0.148739
-0.0860286
-0.0320705
5.9436
5.94311
5.94198
5.93996
5.93716
5.93359
5.92937
5.92438
5.91875
5.91233
5.90525
5.89736
5.88882
5.87945
5.86942
5.85853
5.84698
5.83453
5.8214
5.80732
5.79254
5.77675
5.76021
5.74259
5.72417
5.70458
5.68413
5.66241
5.63977
5.61574
5.59069
5.56414
5.53647
5.50715
5.4766
5.44425
5.41053
5.37482
5.3376
5.2982
5.25711
5.21363
5.16826
5.12026
5.07017
5.01718
4.96185
4.90336
4.84226
4.77769
4.71022
4.63896
4.56448
4.48587
4.40371
4.31705
4.22648
4.13103
4.03131
3.92631
3.81666
3.70134
3.58099
3.45458
3.32278
3.18456
3.04063
2.88996
2.73331
2.56967
2.39987
2.22293
2.03978
1.84948
1.65307
1.44967
1.24045
1.0246
0.803449
0.576248
0.344486
0.107488
-0.133097
-0.377895
-0.62511
-0.87534
-1.12667
-1.3797
-1.63242
-1.88548
-2.13681
-2.38714
-2.63438
-2.87934
-3.11998
-3.35719
-3.58898
-3.81637
-4.03742
-4.25325
-4.46203
-4.66497
-4.86031
-5.04936
-5.23046
-5.40497
-5.57134
-5.73098
-5.88242
-6.0271
-6.16365
-6.29347
-6.41527
-6.53043
-6.63777
-6.7386
-6.83188
-6.91881
-6.99844
-7.07186
-7.13822
-7.19842
-7.25176
-7.29892
-7.33935
-7.37349
-7.40097
-7.42195
-7.43629
-7.44382
-7.4447
-7.43838
-7.42536
-7.4047
-7.37728
-7.34177
-7.29947
-7.24862
-7.19103
-7.12451
-7.0514
-6.96908
-6.88048
-6.78256
-6.67884
-6.56591
-6.44784
-6.32089
-6.18966
-6.05008
-5.90728
-5.75688
-5.60442
-5.44528
-5.28535
-5.11977
-4.95467
-4.78503
-4.61714
-4.44581
-4.27739
-4.10662
-3.93981
-3.77162
-3.6083
-3.44448
-3.28625
-3.12825
-2.97641
-2.82539
-2.6809
-2.53768
-2.40121
-2.26632
-2.13825
-2.01193
-1.89238
-1.77464
-1.6635
-1.55415
-1.45114
-1.34979
-1.25446
-1.16061
-1.07241
-0.985444
-0.903714
-0.822926
-0.746936
-0.671549
-0.600517
-0.529727
-0.462849
-0.395848
-0.332324
-0.26838
-0.207336
-0.146856
-0.0849644
-0.0316074
5.94914
5.94865
5.94753
5.94552
5.94274
5.93918
5.93497
5.93002
5.92441
5.91803
5.911
5.90317
5.89469
5.8854
5.87545
5.86466
5.85322
5.8409
5.82791
5.814
5.79939
5.7838
5.76747
5.75009
5.73193
5.71263
5.69249
5.67111
5.64882
5.62518
5.60055
5.57444
5.54724
5.51843
5.48841
5.45662
5.42349
5.38842
5.35185
5.31315
5.27277
5.23006
5.18547
5.13831
5.08906
5.03697
4.98255
4.92501
4.86487
4.80131
4.73486
4.66465
4.59122
4.51369
4.4326
4.34702
4.25751
4.16313
4.06442
3.96042
3.8517
3.73727
3.61771
3.49202
3.36079
3.22303
3.07937
2.92881
2.77202
2.60804
2.43761
2.25977
2.07537
1.88352
1.68516
1.47947
1.26754
1.04864
0.824014
0.593013
0.357081
0.115641
-0.129683
-0.379398
-0.63172
-0.887117
-1.14368
-1.40187
-1.6597
-1.91767
-2.17375
-2.42852
-2.67996
-2.92875
-3.1729
-3.41322
-3.64779
-3.87753
-4.10059
-4.31804
-4.52811
-4.73196
-4.92794
-5.11729
-5.29846
-5.47276
-5.63874
-5.79777
-5.94848
-6.09227
-6.22787
-6.35663
-6.47735
-6.59136
-6.69758
-6.79729
-6.88952
-6.97546
-7.05422
-7.12688
-7.19264
-7.2524
-7.30547
-7.35254
-7.39307
-7.4275
-7.45546
-7.4771
-7.49227
-7.5008
-7.5028
-7.49775
-7.48605
-7.46682
-7.4408
-7.40672
-7.36574
-7.31616
-7.25962
-7.194
-7.12148
-7.03954
-6.95089
-6.85266
-6.74815
-6.63411
-6.51442
-6.38553
-6.25187
-6.10958
-5.96359
-5.80979
-5.65352
-5.49046
-5.32627
-5.15642
-4.98682
-4.81277
-4.64031
-4.46462
-4.29178
-4.11685
-3.9459
-3.77392
-3.60688
-3.43972
-3.27827
-3.11747
-2.96294
-2.80967
-2.66307
-2.51817
-2.38014
-2.2441
-2.115
-1.98804
-1.86793
-1.75001
-1.63874
-1.5296
-1.42683
-1.32603
-1.23126
-1.13824
-1.05085
-0.96494
-0.884232
-0.804681
-0.729875
-0.655864
-0.586136
-0.516824
-0.451339
-0.385886
-0.323813
-0.261459
-0.201906
-0.143005
-0.0827241
-0.0307605
5.95745
5.95696
5.95585
5.95385
5.95108
5.94754
5.94336
5.93844
5.93288
5.92655
5.91959
5.91183
5.90345
5.89426
5.88444
5.87379
5.86251
5.85038
5.8376
5.82392
5.80958
5.79428
5.77828
5.76125
5.74348
5.7246
5.70492
5.68404
5.66228
5.63922
5.61521
5.58976
5.56327
5.5352
5.50598
5.47503
5.44279
5.40865
5.37307
5.33541
5.29612
5.25454
5.21114
5.16522
5.11725
5.0665
5.01346
4.95735
4.89869
4.83663
4.77173
4.7031
4.63128
4.55538
4.47593
4.392
4.30413
4.21137
4.11425
4.0118
3.90456
3.79151
3.67323
3.54867
3.41841
3.28142
3.13828
2.98798
2.83112
2.66671
2.49544
2.31632
2.13014
1.93599
1.73475
1.5256
1.3096
1.08601
0.856084
0.619204
0.376839
0.128478
-0.124197
-0.3816
-0.641864
-0.905345
-1.17004
-1.43629
-1.70202
-1.96762
-2.231
-2.49264
-2.75047
-3.00513
-3.25458
-3.49961
-3.73829
-3.97154
-4.19753
-4.41732
-4.62919
-4.83431
-5.03108
-5.22076
-5.40184
-5.57569
-5.74089
-5.89884
-6.04826
-6.19057
-6.32454
-6.45157
-6.57048
-6.68264
-6.78701
-6.88492
-6.97543
-7.05979
-7.13714
-7.20859
-7.27335
-7.33238
-7.38498
-7.43188
-7.47251
-7.50738
-7.53604
-7.55871
-7.57516
-7.58528
-7.58906
-7.58604
-7.5765
-7.55957
-7.53589
-7.50417
-7.46543
-7.41798
-7.3633
-7.29926
-7.22791
-7.14669
-7.05823
-6.95962
-6.85409
-6.73839
-6.61639
-6.48452
-6.34723
-6.20069
-6.04989
-5.89074
-5.72869
-5.55943
-5.38877
-5.21218
-5.03572
-4.85471
-4.67534
-4.49277
-4.31323
-4.13179
-3.95462
-3.7767
-3.60408
-3.43172
-3.26548
-3.10031
-2.94185
-2.78509
-2.63543
-2.4879
-2.34767
-2.20985
-2.07934
-1.95137
-1.83059
-1.71234
-1.60104
-1.49218
-1.38993
-1.28991
-1.19612
-1.10431
-1.01828
-0.933915
-0.85487
-0.777129
-0.704218
-0.632221
-0.564563
-0.497412
-0.434121
-0.37093
-0.311132
-0.251101
-0.193872
-0.137294
-0.079416
-0.0295096
5.9685
5.96802
5.96691
5.96492
5.96216
5.95865
5.95449
5.94961
5.9441
5.93784
5.93095
5.92329
5.91502
5.90596
5.8963
5.88583
5.87477
5.86287
5.85036
5.83699
5.82299
5.80807
5.7925
5.77593
5.75867
5.74035
5.72127
5.70105
5.68
5.6577
5.6345
5.60993
5.58436
5.55729
5.52912
5.49929
5.46823
5.43534
5.40107
5.36479
5.32695
5.28689
5.24508
5.2008
5.15457
5.10559
5.05442
5.00022
4.94354
4.88352
4.82071
4.75422
4.68459
4.61089
4.53369
4.45201
4.36641
4.27589
4.181
4.08071
3.97555
3.8645
3.74806
3.62519
3.4964
3.36062
3.21838
3.06862
2.91188
2.74712
2.57492
2.39428
2.20588
2.00877
1.80376
1.59001
1.36851
1.13853
0.901314
0.656285
0.404947
0.146885
-0.116131
-0.384373
-0.655843
-0.930731
-1.20688
-1.48446
-1.76126
-2.03753
-2.31103
-2.58217
-2.84878
-3.11142
-3.36805
-3.61939
-3.86352
-4.10136
-4.33111
-4.55385
-4.76789
-4.97446
-5.172
-5.36183
-5.5425
-5.71544
-5.87929
-6.03552
-6.18291
-6.32296
-6.45449
-6.57893
-6.69515
-6.80461
-6.90627
-7.00158
-7.0896
-7.17169
-7.24698
-7.31668
-7.37998
-7.43794
-7.4898
-7.53641
-7.57714
-7.61257
-7.64218
-7.6663
-7.68455
-7.69694
-7.7033
-7.70326
-7.6969
-7.68344
-7.66328
-7.63516
-7.59991
-7.55578
-7.50409
-7.44264
-7.3733
-7.29345
-7.2056
-7.10675
-7.00009
-6.88229
-6.75723
-6.6213
-6.47905
-6.3266
-6.16911
-6.00245
-5.83231
-5.65433
-5.47458
-5.28852
-5.10246
-4.91169
-4.72265
-4.53048
-4.34164
-4.15114
-3.96537
-3.77924
-3.59899
-3.41949
-3.24673
-3.07561
-2.91186
-2.75038
-2.59665
-2.44564
-2.30252
-2.16237
-2.03007
-1.90083
-1.77925
-1.66066
-1.54944
-1.44104
-1.3396
-1.24073
-1.14836
-1.05824
-0.97413
-0.891905
-0.815165
-0.739906
-0.669599
-0.600342
-0.535507
-0.471282
-0.410968
-0.350828
-0.294104
-0.237195
-0.183099
-0.129645
-0.0749845
-0.0278471
5.98229
5.98181
5.9807
5.97871
5.97596
5.97247
5.96834
5.9635
5.95803
5.95184
5.94503
5.93747
5.92932
5.92042
5.91093
5.90068
5.88986
5.87825
5.86607
5.85306
5.83948
5.82502
5.80996
5.79397
5.77733
5.75969
5.74135
5.72193
5.70176
5.6804
5.65821
5.63471
5.61031
5.58446
5.5576
5.52916
5.49957
5.46823
5.4356
5.40104
5.36502
5.32684
5.28703
5.24482
5.20075
5.15402
5.10519
5.0534
4.99923
4.94179
4.88163
4.81786
4.75102
4.68016
4.60585
4.52708
4.44442
4.35683
4.26485
4.16743
4.06508
3.95672
3.84284
3.72233
3.59567
3.46172
3.32095
3.17223
3.016
2.85115
2.67816
2.49594
2.30505
2.10447
1.89491
1.67543
1.44698
1.2088
0.962102
0.706359
0.443121
0.172108
-0.104782
-0.387611
-0.674184
-0.964436
-1.25598
-1.54876
-1.84031
-2.13071
-2.41755
-2.70109
-2.97906
-3.25195
-3.51765
-3.7769
-4.02776
-4.27117
-4.50537
-4.73148
-4.94788
-5.15586
-5.35392
-5.54348
-5.72316
-5.89447
-6.05613
-6.20971
-6.35407
-6.49081
-6.61879
-6.73952
-6.85192
-6.95753
-7.05539
-7.14703
-7.23157
-7.31046
-7.38285
-7.45006
-7.51127
-7.56764
-7.61839
-7.66449
-7.70522
-7.74131
-7.77212
-7.79812
-7.8188
-7.83428
-7.84423
-7.84835
-7.84653
-7.83803
-7.82301
-7.80023
-7.77019
-7.73115
-7.6841
-7.62678
-7.5608
-7.48342
-7.39697
-7.29834
-7.19064
-7.07042
-6.94161
-6.8005
-6.6518
-6.49156
-6.32519
-6.14853
-5.96756
-5.77791
-5.586
-5.38726
-5.18836
-4.98458
-4.78269
-4.57779
-4.37665
-4.17423
-3.97716
-3.78032
-3.59013
-3.40139
-3.22024
-3.04151
-2.87101
-2.70359
-2.54475
-2.38941
-2.24275
-2.09978
-1.96538
-1.83469
-1.71228
-1.59344
-1.48248
-1.37484
-1.2746
-1.17733
-1.08691
-0.999076
-0.917519
-0.838113
-0.764393
-0.692363
-0.625427
-0.559702
-0.498494
-0.438015
-0.381503
-0.32525
-0.272437
-0.219492
-0.16937
-0.119881
-0.0693027
-0.0257157
5.99881
5.99832
5.9972
5.99521
5.99246
5.98897
5.98486
5.98004
5.97461
5.96847
5.96174
5.95428
5.94626
5.93751
5.92822
5.9182
5.90765
5.89636
5.88454
5.87196
5.85885
5.84493
5.83046
5.81513
5.79922
5.78238
5.76492
5.74644
5.7273
5.70704
5.68605
5.66383
5.6408
5.61641
5.59111
5.56432
5.53648
5.50699
5.47633
5.44382
5.40997
5.37407
5.33664
5.29692
5.25546
5.21144
5.16544
5.11658
5.06544
5.01113
4.95422
4.89377
4.83036
4.76299
4.69225
4.61711
4.53812
4.45422
4.36596
4.27221
4.1735
4.06868
3.95822
3.84095
3.71728
3.58602
3.44753
3.30061
3.14559
2.98123
2.80789
2.62434
2.43099
2.22668
2.01194
1.78576
1.54891
1.3006
1.04197
0.772557
0.493945
0.206045
-0.089056
-0.391112
-0.697621
-1.00814
-1.31994
-1.63258
-1.94332
-2.25191
-2.55576
-2.85492
-3.14701
-3.43246
-3.70911
-3.97771
-4.23635
-4.48605
-4.72508
-4.95468
-5.17329
-5.38233
-5.58036
-5.76894
-5.94676
-6.11544
-6.27382
-6.42359
-6.56369
-6.69583
-6.81892
-6.93457
-7.04175
-7.14215
-7.23484
-7.32152
-7.40132
-7.47584
-7.54424
-7.60799
-7.66623
-7.72031
-7.76936
-7.81454
-7.85503
-7.89177
-7.92397
-7.9523
-7.97608
-7.99561
-8.01034
-8.02014
-8.0246
-8.0231
-8.01541
-8.00034
-7.97799
-7.94653
-7.90656
-7.85567
-7.79508
-7.72192
-7.63822
-7.54071
-7.43235
-7.30958
-7.17634
-7.02884
-6.87196
-6.70171
-6.52383
-6.33413
-6.13901
-5.9341
-5.72628
-5.51098
-5.29537
-5.07468
-4.85614
-4.63482
-4.41788
-4.20021
-3.98879
-3.77839
-3.57568
-3.37539
-3.18383
-2.99571
-2.81697
-2.64234
-2.47739
-2.31692
-2.16614
-2.01997
-1.88325
-1.75105
-1.62791
-1.50903
-1.39868
-1.29223
-1.1937
-1.09863
-1.01081
-0.925971
-0.847714
-0.771916
-0.702027
-0.634065
-0.57135
-0.510024
-0.453314
-0.397462
-0.34563
-0.294149
-0.246125
-0.198024
-0.152751
-0.108087
-0.0624568
-0.023167
6.01804
6.01755
6.01642
6.0144
6.01163
6.00812
6.004
5.99918
5.99377
5.98766
5.98099
5.97361
5.9657
5.95711
5.948
5.93822
5.92795
5.917
5.90558
5.89346
5.88087
5.86754
5.85374
5.83915
5.82407
5.80813
5.79166
5.77427
5.7563
5.73731
5.71769
5.69694
5.67548
5.65278
5.62928
5.60439
5.57859
5.55124
5.52285
5.49273
5.46141
5.42816
5.39352
5.35671
5.3183
5.27746
5.23478
5.18936
5.14182
5.09121
5.03815
4.98165
4.92233
4.85914
4.79271
4.72195
4.64744
4.56808
4.4844
4.39526
4.30115
4.20088
4.09489
3.98193
3.86238
3.73493
3.59988
3.45589
3.30316
3.14032
2.96751
2.78335
2.58799
2.3801
2.15993
1.92628
1.67969
1.41926
1.14596
0.859382
0.561143
0.251407
-0.0674576
-0.394741
-0.727467
-1.06462
-1.40293
-1.74143
-2.07692
-2.40877
-2.73404
-3.05258
-3.36186
-3.66221
-3.95152
-4.23056
-4.49753
-4.75356
-4.99708
-5.22947
-5.44934
-5.65824
-5.85492
-6.04106
-6.2155
-6.38
-6.53352
-6.67791
-6.81222
-6.93822
-7.05487
-7.16389
-7.26433
-7.358
-7.44407
-7.52435
-7.59804
-7.66687
-7.73003
-7.78913
-7.84334
-7.89415
-7.94069
-7.98431
-8.02414
-8.06132
-8.09496
-8.12598
-8.15353
-8.17817
-8.19912
-8.21646
-8.22947
-8.23763
-8.24032
-8.23631
-8.22518
-8.20497
-8.17568
-8.13469
-8.08266
-8.01645
-7.93769
-7.84285
-7.7347
-7.60949
-7.47118
-7.31589
-7.14875
-6.96574
-6.77302
-6.56643
-6.35295
-6.12823
-5.89979
-5.66309
-5.42591
-5.1835
-4.94367
-4.70145
-4.4645
-4.22766
-3.99827
-3.77103
-3.5529
-3.33847
-3.13427
-2.93486
-2.7463
-2.56319
-2.39114
-2.22483
-2.06945
-1.9198
-1.78071
-1.64711
-1.52349
-1.40497
-1.29573
-1.19109
-1.09495
-1.00284
-0.918434
-0.837444
-0.763372
-0.692096
-0.626965
-0.564014
-0.506467
-0.450493
-0.399229
-0.348955
-0.302748
-0.25698
-0.21468
-0.172355
-0.132858
-0.0939459
-0.0542206
-0.0200914
6.04003
6.03952
6.03836
6.0363
6.03347
6.0299
6.02573
6.02087
6.01544
6.00932
6.00266
5.99534
5.98751
5.97904
5.97011
5.96054
5.95056
5.93995
5.92895
5.9173
5.90528
5.89259
5.87951
5.86574
5.85156
5.83662
5.82125
5.80506
5.7884
5.77083
5.75273
5.73364
5.71395
5.69314
5.67166
5.64893
5.62542
5.6005
5.57469
5.54729
5.51884
5.4886
5.45715
5.42367
5.38876
5.35156
5.3127
5.27125
5.22785
5.18153
5.13293
5.08103
5.02648
4.96821
4.90685
4.84127
4.77211
4.69817
4.62006
4.53654
4.44814
4.35359
4.25331
4.146
4.03196
3.90982
3.77975
3.64029
3.49147
3.33176
3.16102
2.97765
2.78145
2.5708
2.34552
2.10416
1.84679
1.57229
1.28136
0.973533
0.650432
0.31255
-0.0373301
-0.397771
-0.765053
-1.13726
-1.51037
-1.88264
-2.25026
-2.61202
-2.96458
-3.30747
-3.63795
-3.95629
-4.26035
-4.55104
-4.82667
-5.0886
-5.33546
-5.56892
-5.78782
-5.99402
-6.18648
-6.36717
-6.53514
-6.6924
-6.83809
-6.97426
-7.10007
-7.21739
-7.32521
-7.42538
-7.51703
-7.60209
-7.67979
-7.75206
-7.81811
-7.87982
-7.93636
-7.98954
-8.03849
-8.08493
-8.12798
-8.16922
-8.2077
-8.24488
-8.27976
-8.3136
-8.34541
-8.37614
-8.40478
-8.43177
-8.45603
-8.47726
-8.49429
-8.5059
-8.51092
-8.50719
-8.49385
-8.46788
-8.42918
-8.37414
-8.30378
-8.21422
-8.1079
-7.98083
-7.83701
-7.67242
-7.49258
-7.29344
-7.08179
-6.85354
-6.61643
-6.36622
-6.11127
-5.84714
-5.58241
-5.3124
-5.04564
-4.77716
-4.51522
-4.25458
-4.00308
-3.75527
-3.51845
-3.28707
-3.06785
-2.85517
-2.65523
-2.46242
-2.28239
-2.10966
-1.94938
-1.79621
-1.65489
-1.52024
-1.39663
-1.27911
-1.17172
-1.06971
-0.976869
-0.88867
-0.808674
-0.732564
-0.66372
-0.598025
-0.538709
-0.481827
-0.430495
-0.380915
-0.336124
-0.292443
-0.252859
-0.213791
-0.178185
-0.142597
-0.109824
-0.0775933
-0.0447045
-0.0165518
6.06482
6.06428
6.06306
6.06091
6.05798
6.05431
6.05002
6.04506
6.03953
6.03335
6.02664
6.01931
6.01151
6.00312
5.99432
5.98495
5.97522
5.96494
5.95435
5.9432
5.93175
5.91974
5.90743
5.89452
5.88131
5.86745
5.85327
5.83839
5.82315
5.80713
5.79072
5.77343
5.75569
5.73697
5.71773
5.69738
5.67641
5.6542
5.63125
5.60689
5.58165
5.55479
5.5269
5.49716
5.46619
5.4331
5.39855
5.36159
5.32289
5.28143
5.23792
5.19128
5.14221
5.08957
5.03407
4.97451
4.91159
4.84404
4.77253
4.69574
4.61426
4.52673
4.43361
4.3335
4.2267
4.11172
3.98866
3.85592
3.71333
3.55916
3.39295
3.21279
3.01797
2.80645
2.57742
2.32888
2.06023
1.76991
1.45809
1.12417
0.769718
0.395673
0.00548442
-0.398223
-0.810461
-1.22791
-1.64542
-2.06028
-2.46796
-2.86669
-3.25273
-3.62531
-3.98157
-4.32172
-4.64362
-4.94825
-5.23403
-5.50252
-5.75256
-5.98611
-6.20232
-6.40341
-6.58869
-6.76052
-6.91827
-7.06433
-7.19813
-7.32204
-7.43533
-7.54001
-7.63521
-7.72298
-7.80254
-7.87599
-7.94258
-8.00436
-8.06053
-8.11307
-8.16115
-8.20671
-8.24892
-8.2897
-8.32819
-8.36621
-8.40279
-8.43964
-8.47574
-8.51274
-8.5496
-8.58777
-8.62615
-8.66569
-8.70498
-8.74405
-8.7811
-8.81487
-8.84322
-8.86355
-8.8738
-8.87029
-8.85171
-8.81378
-8.75663
-8.6758
-8.57333
-8.44489
-8.29457
-8.11825
-7.92195
-7.70174
-7.46523
-7.20855
-6.94046
-6.65699
-6.36758
-6.06801
-5.76791
-5.46272
-5.16187
-4.86043
-4.56738
-4.27741
-3.99887
-3.7262
-3.46702
-3.21559
-2.97882
-2.75089
-2.53804
-2.33446
-2.14579
-1.96631
-1.80111
-1.64466
-1.50157
-1.36653
-1.24377
-1.12818
-1.02369
-0.925445
-0.837082
-0.754019
-0.679668
-0.609687
-0.547318
-0.48844
-0.436158
-0.386544
-0.3426
-0.300561
-0.26336
-0.227366
-0.195472
-0.16415
-0.136261
-0.108417
-0.0833647
-0.0588016
-0.0337574
-0.012479
6.09251
6.09194
6.09062
6.08833
6.08522
6.08134
6.07685
6.07169
6.06598
6.05963
6.05279
6.04536
6.03752
6.02913
6.0204
6.01117
6.00166
5.99168
5.98148
5.97082
5.95995
5.94863
5.93712
5.92512
5.91294
5.90023
5.88732
5.87383
5.86013
5.84578
5.83117
5.81584
5.80022
5.78376
5.76696
5.74921
5.73102
5.71176
5.69197
5.67093
5.64923
5.62609
5.60215
5.57654
5.54993
5.52141
5.49166
5.45969
5.42624
5.39023
5.35242
5.31168
5.26878
5.22251
5.17366
5.12096
5.06518
5.005
4.94114
4.87224
4.79896
4.71986
4.63548
4.54434
4.44677
4.34119
4.22766
4.10447
3.97126
3.82611
3.66817
3.49516
3.30571
3.09713
2.86757
2.61406
2.33469
2.02683
1.68957
1.3219
0.925426
0.502054
0.0567753
-0.4054
-0.876901
-1.35198
-1.82385
-2.28868
-2.74141
-3.18003
-3.60098
-4.00388
-4.38629
-4.74881
-5.0895
-5.40948
-5.70715
-5.98412
-6.23918
-6.47444
-6.68916
-6.88584
-7.06406
-7.22655
-7.37307
-7.50644
-7.62644
-7.73569
-7.83362
-7.92251
-8.00168
-8.07344
-8.13717
-8.19511
-8.24659
-8.29374
-8.33577
-8.37475
-8.40987
-8.44324
-8.47416
-8.50487
-8.53461
-8.56557
-8.59674
-8.63017
-8.66482
-8.7029
-8.74347
-8.78883
-8.83795
-8.89265
-8.95137
-9.01471
-9.08008
-9.14619
-9.20944
-9.26645
-9.31324
-9.34496
-9.35838
-9.34807
-9.31279
-9.24726
-9.15291
-9.02501
-8.8678
-8.67715
-8.45982
-8.21218
-7.94302
-7.64891
-7.34007
-7.013
-6.67861
-6.33309
-5.98742
-5.63731
-5.29329
-4.95053
-4.61883
-4.29283
-3.98146
-3.67895
-3.39327
-3.11842
-2.86147
-2.61629
-2.38915
-2.17393
-1.97619
-1.78996
-1.62018
-1.46107
-1.31709
-1.18271
-1.06198
-0.949658
-0.849453
-0.756428
-0.674023
-0.597591
-0.530372
-0.467992
-0.413536
-0.362881
-0.318992
-0.277964
-0.242674
-0.209399
-0.180966
-0.153793
-0.130682
-0.108164
-0.0890177
-0.0699164
-0.0535629
-0.0376243
-0.0213937
-0.00787312
6.1233
6.12266
6.12119
6.11866
6.11525
6.11104
6.10621
6.10072
6.09468
6.08804
6.08094
6.0733
6.06529
6.05681
6.04805
6.03887
6.02951
6.01978
6.00991
5.99971
5.98942
5.97878
5.96808
5.95702
5.94591
5.93441
5.92285
5.91085
5.89878
5.88622
5.87357
5.86036
5.84702
5.83303
5.81887
5.80395
5.7888
5.77277
5.75641
5.73902
5.72119
5.70215
5.68253
5.66147
5.63966
5.61616
5.59169
5.56524
5.53757
5.50758
5.47608
5.44187
5.4058
5.36661
5.32515
5.28009
5.2323
5.18039
5.12519
5.06527
5.00141
4.93211
4.85805
4.77769
4.69146
4.59776
4.49667
4.38642
4.2666
4.1351
3.99077
3.83098
3.6536
3.45519
3.23244
2.98089
2.69616
2.373
2.00724
1.59522
1.13727
0.637091
0.104061
-0.450651
-1.01331
-1.57359
-2.12197
-2.65291
-3.16053
-3.64301
-4.09802
-4.52699
-4.92935
-5.30733
-5.6601
-5.98947
-6.29409
-6.57557
-6.83255
-7.06698
-7.27801
-7.46819
-7.63724
-7.78818
-7.92112
-8.03937
-8.143
-8.23493
-8.31486
-8.38546
-8.44633
-8.50004
-8.54608
-8.58682
-8.62158
-8.65239
-8.67839
-8.70148
-8.72083
-8.73871
-8.75478
-8.77176
-8.78943
-8.81014
-8.83272
-8.85919
-8.88848
-8.92336
-8.96338
-9.01206
-9.06916
-9.13804
-9.21762
-9.30962
-9.41097
-9.52028
-9.63199
-9.74127
-9.84111
-9.92447
-9.98515
-10.0158
-10.013
-9.97037
-9.8885
-9.76227
-9.59615
-9.38621
-9.1403
-8.85535
-8.54185
-8.19722
-7.83361
-7.44843
-7.05453
-6.64884
-6.24404
-5.8363
-5.4375
-5.04295
-4.6634
-4.2934
-3.94245
-3.60452
-3.28788
-2.98614
-2.70645
-2.44228
-2.19982
-1.97257
-1.76589
-1.57347
-1.40003
-1.23949
-1.09606
-0.963988
-0.84705
-0.739842
-0.645825
-0.559936
-0.485398
-0.41748
-0.35923
-0.306232
-0.261403
-0.220611
-0.186682
-0.155726
-0.130506
-0.107335
-0.0889414
-0.0717965
-0.0586197
-0.0460036
-0.0366572
-0.0273165
-0.0206534
-0.0142988
-0.00782021
-0.00285651
6.15749
6.15674
6.15504
6.15212
6.14823
6.1435
6.13813
6.13211
6.12558
6.11848
6.11097
6.10297
6.09467
6.08596
6.07705
6.06782
6.05849
6.0489
6.03928
6.02943
6.01962
6.00958
5.9996
5.98939
5.97926
5.96887
5.95857
5.94799
5.9375
5.92667
5.91593
5.90481
5.89376
5.88226
5.8708
5.8588
5.8468
5.83415
5.82142
5.8079
5.79422
5.77956
5.76461
5.74848
5.73189
5.71387
5.6952
5.6748
5.6535
5.63014
5.60559
5.5786
5.55009
5.51872
5.48545
5.44885
5.40993
5.3672
5.32166
5.27178
5.21853
5.16036
5.09817
5.03035
4.95761
4.87833
4.79282
4.69933
4.59756
4.48538
4.36149
4.22306
4.06727
3.89007
3.68667
3.45122
3.17665
2.85461
2.47555
2.0283
1.50427
0.901815
0.234706
-0.472151
-1.19102
-1.90222
-2.58955
-3.24139
-3.84773
-4.40566
-4.91463
-5.37932
-5.80278
-6.19057
-6.54454
-6.86855
-7.16263
-7.42947
-7.66834
-7.88176
-8.06921
-8.23346
-8.37439
-8.49546
-8.59724
-8.68335
-8.75418
-8.81305
-8.86012
-8.8985
-8.92817
-8.9521
-8.96993
-8.98425
-8.99424
-9.00186
-9.00566
-9.00719
-9.00489
-9.00087
-8.99507
-8.99194
-8.993
-9.00108
-9.01444
-9.03445
-9.05947
-9.09251
-9.13364
-9.18793
-9.25656
-9.3454
-9.45492
-9.58907
-9.74477
-9.92067
-10.1083
-10.2999
-10.4835
-10.6479
-10.7823
-10.8759
-10.9226
-10.9145
-10.8513
-10.7277
-10.5488
-10.3114
-10.0247
-9.68703
-9.31117
-8.89607
-8.4567
-7.99197
-7.51747
-7.03129
-6.54837
-6.06556
-5.59636
-5.13628
-4.69707
-4.27312
-3.87442
-3.49454
-3.1419
-2.80959
-2.50466
-2.22003
-1.96163
-1.72245
-1.50754
-1.31013
-1.1346
-0.9745
-0.833706
-0.706169
-0.595357
-0.495639
-0.410194
-0.333799
-0.269429
-0.212253
-0.165105
-0.123519
-0.0902387
-0.061119
-0.0388452
-0.0195475
-0.00587765
0.00581156
0.0128753
0.0187888
0.0208992
0.0225487
0.0210821
0.0196956
0.0157245
0.0115678
0.00732578
0.00276805
6.19558
6.19468
6.19258
6.18904
6.18435
6.17875
6.17251
6.16566
6.15835
6.15055
6.14243
6.13392
6.12522
6.11624
6.10721
6.098
6.08884
6.07958
6.07044
6.06123
6.05219
6.04307
6.03414
6.02512
6.01631
6.00737
5.99864
5.98976
5.98111
5.97227
5.96367
5.95484
5.94625
5.9374
5.92878
5.91982
5.91109
5.90193
5.89294
5.8834
5.87397
5.86384
5.85371
5.84268
5.8315
5.81919
5.80655
5.79248
5.77784
5.76145
5.74421
5.72483
5.70429
5.68118
5.65655
5.6289
5.59935
5.56632
5.53099
5.49174
5.44977
5.40348
5.35404
5.29989
5.24209
5.17911
5.11173
5.0384
4.95925
4.87239
4.77674
4.66939
4.54702
4.40444
4.23474
4.02919
3.77685
3.46595
3.0846
2.619
2.05366
1.36093
0.542416
-0.354609
-1.28257
-2.21295
-3.11672
-3.96481
-4.73367
-5.41435
-6.00619
-6.51742
-6.95641
-7.33469
-7.65993
-7.94121
-8.18312
-8.39203
-8.57041
-8.72308
-8.85153
-8.9598
-9.04874
-9.12185
-9.17972
-9.22549
-9.25945
-9.28421
-9.29986
-9.30874
-9.31089
-9.30872
-9.30209
-9.29401
-9.28382
-9.27316
-9.25964
-9.24467
-9.22682
-9.20806
-9.18477
-9.16303
-9.1441
-9.13145
-9.1236
-9.12167
-9.12502
-9.13775
-9.1622
-9.20567
-9.27257
-9.37277
-9.51093
-9.69549
-9.92557
-10.1999
-10.5056
-10.829
-11.1487
-11.4457
-11.7006
-11.8976
-12.0262
-12.0769
-12.0489
-11.9372
-11.7479
-11.4785
-11.1407
-10.7344
-10.276
-9.76685
-9.22612
-8.65538
-8.07396
-7.48208
-6.89756
-6.31844
-5.76008
-5.21832
-4.70588
-4.21687
-3.76162
-3.3331
-2.93965
-2.57361
-2.24169
-1.93604
-1.66214
-1.41225
-1.19095
-0.990871
-0.815924
-0.659205
-0.524146
-0.404342
-0.302876
-0.213849
-0.140103
-0.0762298
-0.0249225
0.0187685
0.0522324
0.0799976
0.0994933
0.114879
0.123599
0.129503
0.130031
0.128786
0.123189
0.116656
0.106576
0.0962236
0.0829725
0.0699492
0.0544789
0.038992
0.0233039
0.00857915
6.23833
6.23721
6.23455
6.23009
6.22423
6.21735
6.2098
6.20162
6.19298
6.18381
6.17431
6.16443
6.15439
6.14415
6.13397
6.12375
6.11378
6.10389
6.09436
6.08499
6.07603
6.06723
6.05888
6.05066
6.0429
6.03523
6.02802
6.02087
6.01418
6.00752
6.00134
5.99515
5.98944
5.98369
5.97842
5.97305
5.96816
5.9631
5.95848
5.95359
5.94909
5.94418
5.93956
5.93435
5.92932
5.92345
5.91759
5.91061
5.90341
5.89474
5.88559
5.87458
5.86275
5.84863
5.83335
5.8153
5.79573
5.77295
5.74832
5.7201
5.68977
5.65562
5.61923
5.57902
5.53663
5.49069
5.44282
5.39192
5.33928
5.28392
5.22609
5.16412
5.09533
5.01477
4.91244
4.77345
4.57101
4.27086
3.8214
3.1866
2.33251
1.33859
0.259716
-0.827132
-1.90824
-2.98843
-4.02816
-4.97355
-5.79028
-6.47145
-7.02661
-7.4741
-7.83389
-8.12405
-8.36019
-8.55294
-8.71204
-8.84186
-8.94895
-9.03462
-9.10499
-9.1594
-9.2038
-9.23591
-9.26226
-9.27901
-9.29266
-9.29761
-9.30095
-9.29593
-9.29055
-9.27675
-9.26365
-9.24391
-9.2297
-9.21045
-9.19428
-9.16434
-9.13986
-9.1143
-9.10004
-9.1165
-9.1425
-9.16427
-9.17955
-9.18493
-9.18372
-9.18159
-9.18737
-9.21013
-9.26097
-9.35212
-9.49858
-9.71359
-10.0052
-10.3737
-10.8059
-11.2783
-11.7598
-12.2182
-12.6243
-12.9547
-13.1943
-13.331
-13.3631
-13.2855
-13.1037
-12.8143
-12.4298
-11.9516
-11.3998
-10.7798
-10.1164
-9.41529
-8.7015
-7.97869
-7.26878
-6.57174
-5.90528
-5.26574
-4.6668
-4.10218
-3.58234
-3.09946
-2.66152
-2.25988
-1.90063
-1.57485
-1.28731
-1.02935
-0.804848
-0.605698
-0.435219
-0.285931
-0.160756
-0.0528438
0.0351631
0.109501
0.167694
0.215391
0.250189
0.277193
0.294007
0.305244
0.308483
0.307911
0.301067
0.291788
0.277569
0.261973
0.242445
0.222344
0.199062
0.175809
0.149945
0.124527
0.0968203
0.0692642
0.0412523
0.0152836
6.28705
6.2852
6.28122
6.275
6.26743
6.25926
6.25095
6.24247
6.23385
6.22491
6.21572
6.20616
6.19642
6.18641
6.1764
6.1663
6.15637
6.14649
6.13695
6.12754
6.11857
6.10979
6.10153
6.09348
6.08599
6.07875
6.07212
6.06575
6.06004
6.05459
6.04986
6.04539
6.04168
6.03822
6.03556
6.03311
6.03147
6.02999
6.02931
6.0287
6.02885
6.02894
6.02972
6.03028
6.0314
6.03207
6.03314
6.03346
6.03395
6.03334
6.03262
6.03035
6.02763
6.0229
6.01732
6.00921
5.99989
5.98754
5.97366
5.9564
5.93743
5.91498
5.89097
5.86381
5.83581
5.80578
5.77651
5.74757
5.72237
5.7017
5.68968
5.68869
5.70294
5.73543
5.7861
5.85101
5.90361
5.90297
5.68708
5.1034
3.4773
1.26217
-0.651364
-2.07582
-3.24933
-4.29457
-5.21124
-5.98953
-6.6309
-7.15314
-7.5736
-7.91561
-8.19272
-8.42224
-8.61015
-8.76811
-8.8973
-9.00656
-9.09471
-9.16871
-9.2259
-9.27271
-9.30661
-9.33409
-9.35237
-9.36724
-9.37501
-9.38062
-9.38006
-9.37801
-9.37002
-9.36084
-9.34473
-9.32855
-9.3076
-9.28872
-9.26239
-9.22715
-9.18308
-9.11725
-9.0368
-9.04032
-9.08112
-9.13333
-9.18142
-9.21649
-9.23589
-9.24532
-9.25239
-9.272
-9.31873
-9.4108
-9.56261
-9.79124
-10.1084
-10.5204
-11.0178
-11.5759
-12.1587
-12.7249
-13.2388
-13.6696
-13.9997
-14.2151
-14.3172
-14.3011
-14.1672
-13.9044
-13.5194
-13.0104
-12.3988
-11.6933
-10.9239
-10.102
-9.2592
-8.40464
-7.5657
-6.74577
-5.9657
-5.22328
-4.53333
-3.88963
-3.30275
-2.76441
-2.28218
-1.84652
-1.46258
-1.12034
-0.823446
-0.562206
-0.339571
-0.14664
0.0140007
0.150419
0.260312
0.350999
0.42037
0.475029
0.512935
0.539999
0.554149
0.560648
0.557332
0.548885
0.533034
0.513971
0.489317
0.462871
0.432161
0.400689
0.365897
0.331067
0.293569
0.256528
0.21727
0.178777
0.138254
0.0982093
0.0578126
0.0211591
6.34565
6.34309
6.33544
6.32294
6.30819
6.29309
6.27851
6.26451
6.2512
6.2384
6.22622
6.2145
6.20339
6.19274
6.18273
6.17317
6.16423
6.1557
6.14776
6.14015
6.1331
6.12633
6.12011
6.11414
6.10877
6.10366
6.09922
6.09508
6.0917
6.08868
6.08652
6.08477
6.08397
6.08363
6.08431
6.08546
6.0877
6.09038
6.09417
6.09836
6.10366
6.10926
6.11593
6.12274
6.13054
6.13827
6.14683
6.15504
6.16386
6.17196
6.18037
6.18761
6.19478
6.20025
6.20522
6.2079
6.20965
6.20855
6.20613
6.20045
6.19324
6.18268
6.17082
6.15611
6.1411
6.12484
6.11067
6.09873
6.09381
6.09823
6.11964
6.16529
6.24905
6.38846
6.60798
6.94164
7.42041
8.11672
8.98633
10.2867
10.4027
5.94867
2.24223
-0.235038
-2.22311
-3.78235
-4.9371
-5.79733
-6.44796
-6.95026
-7.35092
-7.68133
-7.96161
-8.20334
-8.41281
-8.59345
-8.74716
-8.87617
-8.98204
-9.06775
-9.13504
-9.18766
-9.22694
-9.25684
-9.27744
-9.29243
-9.30032
-9.30478
-9.30298
-9.29921
-9.28933
-9.2791
-9.26241
-9.24814
-9.22728
-9.21192
-9.18562
-9.16239
-9.1478
-9.12861
-9.2167
-9.25634
-9.28547
-9.31811
-9.34945
-9.37328
-9.38736
-9.3949
-9.39886
-9.41246
-9.45119
-9.53795
-9.69037
-9.92878
-10.2583
-10.6883
-11.2113
-11.8088
-12.4373
-13.0487
-13.5981
-14.0502
-14.3878
-14.6034
-14.713
-14.7209
-14.621
-14.39
-14.0288
-13.5279
-12.9033
-12.1652
-11.3409
-10.4464
-9.5171
-8.56879
-7.63402
-6.72024
-5.852
-5.02773
-4.26418
-3.55462
-2.91091
-2.32506
-1.80541
-1.34196
-0.93928
-0.586232
-0.285346
-0.0258762
0.190175
0.37239
0.518813
0.638038
0.728353
0.797587
0.844197
0.875231
0.889125
0.892108
0.882459
0.865624
0.839666
0.809341
0.772496
0.733319
0.689479
0.644717
0.596565
0.548435
0.497741
0.447662
0.395524
0.344337
0.291369
0.239475
0.185723
0.132604
0.0783905
0.0296911
6.41296
6.41902
6.41658
6.40663
6.39376
6.37984