/*--------------------------------*- C++ -*----------------------------------*\
  =========                 |
  \\      /  F ield         | OpenFOAM: The Open Source CFD Toolbox
   \\    /   O peration     | Website:  https://openfoam.org
    \\  /    A nd           | Version:  10
     \\/     M anipulation  |
\*---------------------------------------------------------------------------*/
FoamFile
{
    format      ascii;
    class       volVectorField;
    location    "0.02";
    object      U;
}
// * * * * * * * * * * * * * * * * * * * * * * * * * * * * * * * * * * * * * //

dimensions      [0 1 -1 0 0 0 0];

internalField   nonuniform List<vector> 
4000
(
(5.00001 -6.7578e-05 0)
(5.00017 -0.000216062 0)
(5.00045 -0.000357564 0)
(5.00088 -0.000497006 0)
(5.00147 -0.000636412 0)
(5.00219 -0.000775635 0)
(5.00305 -0.000915431 0)
(5.00404 -0.00105524 0)
(5.00518 -0.00119602 0)
(5.00646 -0.00133704 0)
(5.00788 -0.00147949 0)
(5.00945 -0.00162246 0)
(5.01116 -0.00176738 0)
(5.01301 -0.00191319 0)
(5.01501 -0.00206156 0)
(5.01716 -0.00221127 0)
(5.01946 -0.00236427 0)
(5.02192 -0.00251917 0)
(5.02453 -0.00267819 0)
(5.0273 -0.00283977 0)
(5.03024 -0.00300641 0)
(5.03335 -0.00317637 0)
(5.03663 -0.00335244 0)
(5.04008 -0.00353267 0)
(5.04372 -0.00372018 0)
(5.04756 -0.00391277 0)
(5.05159 -0.00411391 0)
(5.05582 -0.00432115 0)
(5.06027 -0.00453829 0)
(5.06494 -0.00476264 0)
(5.06983 -0.00499836 0)
(5.07497 -0.00524244 0)
(5.08036 -0.00549947 0)
(5.08602 -0.00576609 0)
(5.09194 -0.00604735 0)
(5.09816 -0.00633946 0)
(5.10467 -0.006648 0)
(5.1115 -0.00696872 0)
(5.11866 -0.00730775 0)
(5.12617 -0.0076603 0)
(5.13404 -0.00803311 0)
(5.1423 -0.00842082 0)
(5.15095 -0.00883082 0)
(5.16002 -0.00925707 0)
(5.16953 -0.00970768 0)
(5.1795 -0.0101758 0)
(5.18995 -0.0106704 0)
(5.20091 -0.0111838 0)
(5.21239 -0.0117257 0)
(5.22443 -0.0122874 0)
(5.23704 -0.0128796 0)
(5.25027 -0.0134924 0)
(5.26411 -0.0141375 0)
(5.27862 -0.0148038 0)
(5.29381 -0.0155037 0)
(5.30971 -0.016225 0)
(5.32635 -0.016981 0)
(5.34376 -0.0177576 0)
(5.36196 -0.0185694 0)
(5.38099 -0.0194005 0)
(5.40086 -0.0202662 0)
(5.42161 -0.0211488 0)
(5.44326 -0.0220643 0)
(5.46584 -0.0229929 0)
(5.48935 -0.0239513 0)
(5.51384 -0.0249172 0)
(5.53931 -0.0259081 0)
(5.56577 -0.0268991 0)
(5.59323 -0.027908 0)
(5.62171 -0.0289074 0)
(5.65118 -0.0299156 0)
(5.68167 -0.0309024 0)
(5.71314 -0.0318865 0)
(5.74559 -0.0328353 0)
(5.77898 -0.033768 0)
(5.81329 -0.0346499 0)
(5.84847 -0.0355007 0)
(5.88447 -0.0362845 0)
(5.92124 -0.0370217 0)
(5.95872 -0.0376761 0)
(5.99682 -0.0382691 0)
(6.03547 -0.038765 0)
(6.07458 -0.0391868 0)
(6.11407 -0.0395003 0)
(6.15383 -0.0397303 0)
(6.19376 -0.039845 0)
(6.23376 -0.0398706 0)
(6.27373 -0.0397787 0)
(6.31356 -0.0395967 0)
(6.35314 -0.0392998 0)
(6.39239 -0.0389158 0)
(6.43118 -0.0384237 0)
(6.46944 -0.0378511 0)
(6.50707 -0.0371806 0)
(6.54399 -0.0364386 0)
(6.58011 -0.0356114 0)
(6.61538 -0.0347229 0)
(6.6497 -0.0337632 0)
(6.68305 -0.0327528 0)
(6.71535 -0.0316852 0)
(6.74656 -0.0305772 0)
(6.77663 -0.0294257 0)
(6.80555 -0.0282428 0)
(6.83325 -0.0270288 0)
(6.85975 -0.025791 0)
(6.88498 -0.0245333 0)
(6.90897 -0.0232575 0)
(6.93166 -0.0219711 0)
(6.95309 -0.0206706 0)
(6.97321 -0.019367 0)
(6.99204 -0.0180514 0)
(7.00956 -0.0167384 0)
(7.02579 -0.0154138 0)
(7.04069 -0.0140963 0)
(7.05431 -0.0127661 0)
(7.0666 -0.0114457 0)
(7.0776 -0.0101102 0)
(7.08727 -0.00878613 0)
(7.09565 -0.00744394 0)
(7.10271 -0.00611402 0)
(7.10846 -0.00476277 0)
(7.11288 -0.00342401 0)
(7.11599 -0.00205997 0)
(7.11776 -0.000707216 0)
(7.11819 0.000676128 0)
(7.11727 0.00205059 0)
(7.11498 0.00346033 0)
(7.1113 0.0048632 0)
(7.10624 0.00630488 0)
(7.09975 0.00774104 0)
(7.09183 0.00921772 0)
(7.08245 0.0106889 0)
(7.0716 0.0121997 0)
(7.05927 0.013703 0)
(7.04542 0.0152415 0)
(7.03006 0.016768 0)
(7.01316 0.0183213 0)
(6.99474 0.0198552 0)
(6.97477 0.0214034 0)
(6.95329 0.0229219 0)
(6.93027 0.0244383 0)
(6.90578 0.0259124 0)
(6.8798 0.0273649 0)
(6.85241 0.028761 0)
(6.82361 0.0301144 0)
(6.79351 0.0313972 0)
(6.76212 0.0326156 0)
(6.72957 0.0337504 0)
(6.69587 0.0348007 0)
(6.66119 0.0357569 0)
(6.62555 0.036611 0)
(6.58911 0.0373639 0)
(6.55193 0.0380012 0)
(6.51418 0.0385344 0)
(6.4759 0.0389431 0)
(6.43726 0.039249 0)
(6.39834 0.0394266 0)
(6.35929 0.039507 0)
(6.32018 0.0394599 0)
(6.28116 0.0393249 0)
(6.2423 0.0390675 0)
(6.20372 0.0387345 0)
(6.16551 0.0382878 0)
(6.12776 0.0377801 0)
(6.09054 0.0371698 0)
(6.05394 0.0365143 0)
(6.01802 0.0357693 0)
(5.98285 0.0349951 0)
(5.94847 0.0341454 0)
(5.91493 0.0332823 0)
(5.88227 0.0323577 0)
(5.85051 0.0314348 0)
(5.8197 0.0304639 0)
(5.78983 0.0295083 0)
(5.76092 0.0285173 0)
(5.73297 0.0275537 0)
(5.706 0.0265662 0)
(5.67997 0.0256163 0)
(5.6549 0.0246526 0)
(5.63075 0.0237349 0)
(5.60753 0.0228119 0)
(5.58518 0.0219417 0)
(5.5637 0.0210733 0)
(5.54304 0.0202629 0)
(5.5232 0.0194599 0)
(5.50411 0.0187188 0)
(5.48576 0.0179893 0)
(5.46809 0.0173245 0)
(5.45108 0.0166744 0)
(5.43468 0.0160906 0)
(5.41885 0.0155236 0)
(5.40354 0.0150236 0)
(5.38873 0.0145416 0)
(5.37436 0.0141268 0)
(5.36043 0.0137305 0)
(5.34675 0.0133997 0)
(5.33379 0.0130915 0)
(5.32013 0.0128311 0)
(5.30946 0.012641 0)
(5.29048 0.0123753 0)
(5.00001 -0.000202589 0)
(5.00017 -0.000650129 0)
(5.00045 -0.00107524 0)
(5.00089 -0.00149375 0)
(5.00147 -0.00191151 0)
(5.00219 -0.00232914 0)
(5.00305 -0.00274798 0)
(5.00405 -0.00316753 0)
(5.00518 -0.00358929 0)
(5.00646 -0.00401257 0)
(5.00788 -0.00443921 0)
(5.00944 -0.00486837 0)
(5.01115 -0.00530227 0)
(5.01299 -0.00573994 0)
(5.01499 -0.00618403 0)
(5.01713 -0.00663346 0)
(5.01943 -0.0070913 0)
(5.02187 -0.00755634 0)
(5.02448 -0.00803211 0)
(5.02724 -0.00851726 0)
(5.03016 -0.00901577 0)
(5.03326 -0.00952613 0)
(5.03652 -0.0100528 0)
(5.03996 -0.010594 0)
(5.04359 -0.0111548 0)
(5.0474 -0.0117333 0)
(5.05141 -0.0123348 0)
(5.05562 -0.0129572 0)
(5.06004 -0.0136065 0)
(5.06468 -0.0142803 0)
(5.06955 -0.0149851 0)
(5.07465 -0.0157182 0)
(5.08001 -0.0164867 0)
(5.08563 -0.0172874 0)
(5.09151 -0.0181283 0)
(5.09769 -0.0190056 0)
(5.10416 -0.019928 0)
(5.11094 -0.0208912 0)
(5.11805 -0.0219046 0)
(5.12551 -0.0229635 0)
(5.13332 -0.0240779 0)
(5.14152 -0.0252424 0)
(5.15011 -0.0264679 0)
(5.15912 -0.0277482 0)
(5.16856 -0.0290952 0)
(5.17846 -0.0305014 0)
(5.18884 -0.0319799 0)
(5.19972 -0.0335222 0)
(5.21113 -0.0351421 0)
(5.22309 -0.0368298 0)
(5.23562 -0.0386003 0)
(5.24875 -0.0404421 0)
(5.26251 -0.0423711 0)
(5.27693 -0.044374 0)
(5.29202 -0.0464677 0)
(5.30784 -0.0486368 0)
(5.32438 -0.0508988 0)
(5.3417 -0.0532358 0)
(5.35981 -0.0556659 0)
(5.37875 -0.0581684 0)
(5.39854 -0.0607615 0)
(5.41921 -0.0634211 0)
(5.44078 -0.0661655 0)
(5.46329 -0.0689665 0)
(5.48675 -0.0718419 0)
(5.51119 -0.0747592 0)
(5.53661 -0.077735 0)
(5.56305 -0.0807322 0)
(5.59051 -0.0837658 0)
(5.619 -0.0867934 0)
(5.64851 -0.0898285 0)
(5.67905 -0.0928234 0)
(5.7106 -0.0957899 0)
(5.74316 -0.0986756 0)
(5.77669 -0.101491 0)
(5.81117 -0.104179 0)
(5.84655 -0.10675 0)
(5.88278 -0.109145 0)
(5.91981 -0.111375 0)
(5.95758 -0.113381 0)
(5.996 -0.115176 0)
(6.035 -0.116703 0)
(6.07448 -0.11798 0)
(6.11435 -0.118955 0)
(6.15451 -0.11965 0)
(6.19485 -0.120021 0)
(6.23528 -0.120096 0)
(6.27566 -0.119841 0)
(6.31591 -0.119287 0)
(6.35591 -0.118409 0)
(6.39556 -0.117245 0)
(6.43474 -0.115777 0)
(6.47338 -0.114044 0)
(6.51136 -0.112037 0)
(6.54862 -0.109797 0)
(6.58507 -0.107318 0)
(6.62063 -0.10464 0)
(6.65524 -0.101764 0)
(6.68885 -0.0987258 0)
(6.72138 -0.0955287 0)
(6.75282 -0.092204 0)
(6.7831 -0.0887587 0)
(6.81221 -0.0852173 0)
(6.8401 -0.0815897 0)
(6.86677 -0.0778927 0)
(6.89217 -0.0741389 0)
(6.91632 -0.0703373 0)
(6.93918 -0.066503 0)
(6.96076 -0.0626366 0)
(6.98104 -0.0587562 0)
(7.00005 -0.054854 0)
(7.01774 -0.050951 0)
(7.03416 -0.0470316 0)
(7.04927 -0.0431201 0)
(7.06309 -0.0391931 0)
(7.07562 -0.0352779 0)
(7.08687 -0.0313441 0)
(7.09681 -0.0274227 0)
(7.10549 -0.023477 0)
(7.11286 -0.0195419 0)
(7.11895 -0.0155742 0)
(7.12374 -0.0116112 0)
(7.12724 -0.00760315 0)
(7.12942 -0.00358957 0)
(7.13028 0.000483035 0)
(7.12981 0.00457177 0)
(7.128 0.00873232 0)
(7.12482 0.0129185 0)
(7.12026 0.0171865 0)
(7.1143 0.021487 0)
(7.10691 0.0258748 0)
(7.09807 0.0302968 0)
(7.08776 0.0348042 0)
(7.07597 0.0393404 0)
(7.06265 0.0439506 0)
(7.04782 0.0485746 0)
(7.03142 0.0532496 0)
(7.01348 0.057913 0)
(6.99397 0.0625924 0)
(6.97291 0.0672243 0)
(6.95028 0.071826 0)
(6.92614 0.0763353 0)
(6.90047 0.0807596 0)
(6.87335 0.0850411 0)
(6.84477 0.0891779 0)
(6.81485 0.0931199 0)
(6.78359 0.0968573 0)
(6.75113 0.100351 0)
(6.71749 0.103585 0)
(6.68282 0.106533 0)
(6.64716 0.109175 0)
(6.61068 0.111501 0)
(6.57342 0.113487 0)
(6.53557 0.115139 0)
(6.49718 0.116431 0)
(6.45843 0.117386 0)
(6.41938 0.117976 0)
(6.3802 0.11824 0)
(6.34096 0.118147 0)
(6.30182 0.117751 0)
(6.26284 0.117021 0)
(6.22417 0.11602 0)
(6.18587 0.114716 0)
(6.14805 0.113182 0)
(6.11078 0.111383 0)
(6.07415 0.1094 0)
(6.03823 0.107194 0)
(6.00307 0.104851 0)
(5.96872 0.10233 0)
(5.93524 0.099719 0)
(5.90265 0.0969734 0)
(5.87099 0.0941824 0)
(5.84029 0.0912987 0)
(5.81055 0.0884106 0)
(5.78179 0.0854682 0)
(5.75401 0.0825577 0)
(5.7272 0.079627 0)
(5.70136 0.0767598 0)
(5.67649 0.0739016 0)
(5.65254 0.0711331 0)
(5.62953 0.0683983 0)
(5.60739 0.0657745 0)
(5.58613 0.0632042 0)
(5.5657 0.0607615 0)
(5.54608 0.058388 0)
(5.52722 0.0561544 0)
(5.5091 0.0540018 0)
(5.49166 0.051998 0)
(5.47487 0.0500834 0)
(5.45869 0.0483233 0)
(5.44308 0.0466576 0)
(5.42799 0.0451495 0)
(5.41339 0.0437386 0)
(5.39922 0.0424863 0)
(5.38549 0.0413321 0)
(5.372 0.0403337 0)
(5.35922 0.03944 0)
(5.34577 0.038671 0)
(5.33525 0.0380965 0)
(5.3165 0.0373366 0)
(5.00001 -0.000337952 0)
(5.00017 -0.00108227 0)
(5.00045 -0.00178988 0)
(5.00088 -0.00248659 0)
(5.00146 -0.00318129 0)
(5.00218 -0.00387615 0)
(5.00304 -0.00457222 0)
(5.00403 -0.00527007 0)
(5.00516 -0.00597053 0)
(5.00643 -0.00667423 0)
(5.00784 -0.0073822 0)
(5.00939 -0.00809523 0)
(5.01108 -0.00881461 0)
(5.01291 -0.00954135 0)
(5.01489 -0.010277 0)
(5.01701 -0.0110229 0)
(5.01929 -0.0117808 0)
(5.02171 -0.0125522 0)
(5.02428 -0.0133393 0)
(5.02701 -0.0141438 0)
(5.0299 -0.0149681 0)
(5.03296 -0.0158141 0)
(5.03618 -0.0166847 0)
(5.03957 -0.0175817 0)
(5.04315 -0.0185085 0)
(5.0469 -0.019467 0)
(5.05085 -0.0204609 0)
(5.055 -0.0214924 0)
(5.05935 -0.0225652 0)
(5.06391 -0.0236819 0)
(5.0687 -0.0248466 0)
(5.07372 -0.0260617 0)
(5.07899 -0.0273317 0)
(5.0845 -0.0286593 0)
(5.09029 -0.0300493 0)
(5.09635 -0.0315043 0)
(5.10271 -0.0330295 0)
(5.10937 -0.0346275 0)
(5.11635 -0.0363038 0)
(5.12367 -0.0380611 0)
(5.13134 -0.0399051 0)
(5.13939 -0.0418386 0)
(5.14782 -0.0438674 0)
(5.15667 -0.0459941 0)
(5.16594 -0.048225 0)
(5.17567 -0.0505623 0)
(5.18586 -0.0530124 0)
(5.19656 -0.0555772 0)
(5.20777 -0.0582632 0)
(5.21952 -0.0610719 0)
(5.23185 -0.0640096 0)
(5.24477 -0.0670771 0)
(5.25831 -0.0702804 0)
(5.27251 -0.0736193 0)
(5.28738 -0.0770994 0)
(5.30297 -0.0807192 0)
(5.31929 -0.0844831 0)
(5.33638 -0.0883881 0)
(5.35427 -0.092437 0)
(5.37299 -0.0966246 0)
(5.39256 -0.100952 0)
(5.41303 -0.10541 0)
(5.43441 -0.109998 0)
(5.45674 -0.114703 0)
(5.48004 -0.119519 0)
(5.50435 -0.124431 0)
(5.52966 -0.129427 0)
(5.55602 -0.134487 0)
(5.58343 -0.139593 0)
(5.61192 -0.144719 0)
(5.64147 -0.149842 0)
(5.6721 -0.154928 0)
(5.70379 -0.15995 0)
(5.73655 -0.164867 0)
(5.77034 -0.169645 0)
(5.80514 -0.174241 0)
(5.84091 -0.178616 0)
(5.8776 -0.182725 0)
(5.91514 -0.186528 0)
(5.95349 -0.18998 0)
(5.99255 -0.193045 0)
(6.03223 -0.195683 0)
(6.07245 -0.197864 0)
(6.11309 -0.199557 0)
(6.15406 -0.200742 0)
(6.19523 -0.201399 0)
(6.23648 -0.201522 0)
(6.2777 -0.201104 0)
(6.31877 -0.20015 0)
(6.35957 -0.198667 0)
(6.4 -0.196671 0)
(6.43992 -0.19418 0)
(6.47927 -0.19122 0)
(6.51791 -0.187815 0)
(6.55578 -0.183998 0)
(6.59278 -0.179798 0)
(6.62885 -0.17525 0)
(6.66391 -0.170385 0)
(6.69792 -0.165239 0)
(6.7308 -0.159842 0)
(6.76253 -0.154228 0)
(6.79306 -0.148425 0)
(6.82237 -0.142461 0)
(6.85042 -0.136364 0)
(6.87721 -0.130156 0)
(6.9027 -0.123861 0)
(6.92691 -0.117494 0)
(6.9498 -0.111076 0)
(6.97139 -0.104618 0)
(6.99166 -0.0981352 0)
(7.01064 -0.0916337 0)
(7.0283 -0.0851245 0)
(7.04467 -0.0786099 0)
(7.05972 -0.0720973 0)
(7.0735 -0.0655845 0)
(7.08597 -0.0590756 0)
(7.09717 -0.0525647 0)
(7.10708 -0.046054 0)
(7.11572 -0.039535 0)
(7.12307 -0.0330079 0)
(7.12916 -0.0264607 0)
(7.13396 -0.0198897 0)
(7.13748 -0.0132795 0)
(7.1397 -0.0066231 0)
(7.14064 9.41017e-05 0)
(7.14025 0.00687931 0)
(7.13854 0.0137462 0)
(7.13548 0.0207017 0)
(7.13105 0.0277564 0)
(7.12523 0.0349155 0)
(7.118 0.0421845 0)
(7.10932 0.0495647 0)
(7.09917 0.0570543 0)
(7.08752 0.064648 0)
(7.07434 0.0723347 0)
(7.05961 0.0801007 0)
(7.0433 0.0879242 0)
(7.02541 0.0957816 0)
(7.00589 0.10364 0)
(6.98479 0.111467 0)
(6.96205 0.11922 0)
(6.93775 0.126858 0)
(6.91184 0.134332 0)
(6.88442 0.141596 0)
(6.85548 0.148598 0)
(6.82513 0.15529 0)
(6.79338 0.161623 0)
(6.76036 0.167553 0)
(6.72612 0.173035 0)
(6.69079 0.178032 0)
(6.65445 0.182509 0)
(6.61724 0.186438 0)
(6.57925 0.189797 0)
(6.54064 0.192571 0)
(6.50149 0.194747 0)
(6.46198 0.196326 0)
(6.4222 0.197308 0)
(6.38231 0.197705 0)
(6.34239 0.197527 0)
(6.3026 0.196799 0)
(6.26303 0.195541 0)
(6.2238 0.193786 0)
(6.18501 0.191559 0)
(6.14675 0.188902 0)
(6.10911 0.185845 0)
(6.07216 0.182432 0)
(6.03597 0.178695 0)
(6.00062 0.174681 0)
(5.96613 0.170421 0)
(5.93257 0.165963 0)
(5.89996 0.161335 0)
(5.86834 0.156583 0)
(5.83772 0.151734 0)
(5.80811 0.146829 0)
(5.77953 0.141891 0)
(5.75196 0.136959 0)
(5.72542 0.132051 0)
(5.69987 0.127201 0)
(5.67532 0.122424 0)
(5.65172 0.11775 0)
(5.62908 0.113187 0)
(5.60735 0.108764 0)
(5.58651 0.104484 0)
(5.56651 0.100372 0)
(5.54734 0.0964273 0)
(5.52894 0.0926718 0)
(5.51128 0.0891015 0)
(5.49432 0.0857355 0)
(5.47801 0.082567 0)
(5.46231 0.0796126 0)
(5.44719 0.0768631 0)
(5.43258 0.0743333 0)
(5.41847 0.0720119 0)
(5.40478 0.0699119 0)
(5.39153 0.0680209 0)
(5.37853 0.0663486 0)
(5.36621 0.0648889 0)
(5.35326 0.0636196 0)
(5.34312 0.0626562 0)
(5.32507 0.0614329 0)
(5.00001 -0.000472788 0)
(5.00017 -0.00151171 0)
(5.00045 -0.00250035 0)
(5.00088 -0.00347372 0)
(5.00145 -0.00444388 0)
(5.00217 -0.00541396 0)
(5.00302 -0.00638525 0)
(5.004 -0.00735863 0)
(5.00512 -0.00833503 0)
(5.00638 -0.00931548 0)
(5.00778 -0.0103012 0)
(5.00931 -0.0112934 0)
(5.01098 -0.0122938 0)
(5.0128 -0.0133039 0)
(5.01475 -0.0143257 0)
(5.01685 -0.0153613 0)
(5.01909 -0.0164129 0)
(5.02147 -0.0174828 0)
(5.024 -0.0185739 0)
(5.02669 -0.0196888 0)
(5.02953 -0.0208306 0)
(5.03252 -0.0220024 0)
(5.03568 -0.0232075 0)
(5.03901 -0.0244494 0)
(5.04251 -0.0257319 0)
(5.04618 -0.0270586 0)
(5.05004 -0.0284337 0)
(5.05409 -0.0298612 0)
(5.05833 -0.0313456 0)
(5.06279 -0.0328912 0)
(5.06746 -0.0345028 0)
(5.07235 -0.036185 0)
(5.07748 -0.037943 0)
(5.08285 -0.0397815 0)
(5.08848 -0.0417063 0)
(5.09438 -0.043722 0)
(5.10056 -0.045835 0)
(5.10704 -0.0480501 0)
(5.11383 -0.0503738 0)
(5.12094 -0.0528111 0)
(5.1284 -0.055369 0)
(5.13623 -0.0580525 0)
(5.14442 -0.0608686 0)
(5.15303 -0.0638225 0)
(5.16204 -0.0669215 0)
(5.1715 -0.0701706 0)
(5.18142 -0.0735771 0)
(5.19183 -0.0771458 0)
(5.20275 -0.080884 0)
(5.2142 -0.0847961 0)
(5.22621 -0.0888891 0)
(5.23881 -0.0931667 0)
(5.25202 -0.0976354 0)
(5.26589 -0.102298 0)
(5.28042 -0.10716 0)
(5.29566 -0.112223 0)
(5.31163 -0.117491 0)
(5.32838 -0.122963 0)
(5.34592 -0.128641 0)
(5.3643 -0.134522 0)
(5.38354 -0.140605 0)
(5.40369 -0.146882 0)
(5.42477 -0.153349 0)
(5.44682 -0.159994 0)
(5.46986 -0.166806 0)
(5.49394 -0.173767 0)
(5.51907 -0.180859 0)
(5.54529 -0.188057 0)
(5.57261 -0.195335 0)
(5.60107 -0.20266 0)
(5.63065 -0.209994 0)
(5.6614 -0.217296 0)
(5.69329 -0.224518 0)
(5.72633 -0.231611 0)
(5.7605 -0.238517 0)
(5.79578 -0.245178 0)
(5.83213 -0.251531 0)
(5.86951 -0.257513 0)
(5.90785 -0.263058 0)
(5.94708 -0.268104 0)
(5.98712 -0.272589 0)
(6.02788 -0.276459 0)
(6.06924 -0.279659 0)
(6.11109 -0.28215 0)
(6.15331 -0.283894 0)
(6.19576 -0.284871 0)
(6.23832 -0.28506 0)
(6.28084 -0.284462 0)
(6.32319 -0.283078 0)
(6.36524 -0.280927 0)
(6.40687 -0.278028 0)
(6.44795 -0.274416 0)
(6.48837 -0.270124 0)
(6.52803 -0.265199 0)
(6.56683 -0.259681 0)
(6.60468 -0.253623 0)
(6.64152 -0.247072 0)
(6.67726 -0.24008 0)
(6.71186 -0.232695 0)
(6.74526 -0.224967 0)
(6.77743 -0.21694 0)
(6.80832 -0.20866 0)
(6.83793 -0.200167 0)
(6.86621 -0.191499 0)
(6.89317 -0.18269 0)
(6.91878 -0.173771 0)
(6.94306 -0.164768 0)
(6.96598 -0.155706 0)
(6.98758 -0.146603 0)
(7.00782 -0.137477 0)
(7.02674 -0.128341 0)
(7.04433 -0.119204 0)
(7.06062 -0.110075 0)
(7.07558 -0.100957 0)
(7.08926 -0.0918531 0)
(7.10164 -0.0827614 0)
(7.11275 -0.07368 0)
(7.12258 -0.0646044 0)
(7.13115 -0.0555295 0)
(7.13845 -0.0464467 0)
(7.14451 -0.0373468 0)
(7.1493 -0.0282136 0)
(7.15284 -0.0190334 0)
(7.15509 -0.00978381 0)
(7.15609 -0.000454285 0)
(7.15578 0.0089789 0)
(7.15418 0.0185254 0)
(7.15124 0.0282098 0)
(7.14696 0.0380373 0)
(7.14129 0.0480313 0)
(7.13421 0.0581893 0)
(7.12569 0.0685298 0)
(7.11568 0.0790393 0)
(7.10416 0.089727 0)
(7.09106 0.100565 0)
(7.07638 0.111549 0)
(7.06005 0.122636 0)
(7.04207 0.133804 0)
(7.02238 0.144994 0)
(7.00101 0.156168 0)
(6.9779 0.167252 0)
(6.95311 0.178194 0)
(6.9266 0.188913 0)
(6.89846 0.199343 0)
(6.86868 0.209403 0)
(6.83737 0.219024 0)
(6.80454 0.228127 0)
(6.77035 0.236647 0)
(6.73483 0.244516 0)
(6.69815 0.251679 0)
(6.66037 0.258084 0)
(6.62168 0.263688 0)
(6.58216 0.268461 0)
(6.54201 0.272377 0)
(6.50131 0.275426 0)
(6.46026 0.277601 0)
(6.41896 0.278912 0)
(6.37758 0.279369 0)
(6.33624 0.279002 0)
(6.29509 0.277833 0)
(6.25423 0.275909 0)
(6.2138 0.273264 0)
(6.17389 0.269954 0)
(6.13462 0.266023 0)
(6.09605 0.261533 0)
(6.05829 0.256533 0)
(6.02139 0.251088 0)
(5.98543 0.245248 0)
(5.95044 0.239077 0)
(5.91646 0.232626 0)
(5.88355 0.225954 0)
(5.8517 0.21911 0)
(5.82095 0.212148 0)
(5.79129 0.205111 0)
(5.76274 0.198049 0)
(5.73527 0.190999 0)
(5.70889 0.184003 0)
(5.68357 0.177094 0)
(5.6593 0.170305 0)
(5.63604 0.163666 0)
(5.61378 0.157202 0)
(5.59246 0.150936 0)
(5.57207 0.144889 0)
(5.55256 0.13908 0)
(5.53389 0.133521 0)
(5.51602 0.128227 0)
(5.49891 0.123209 0)
(5.4825 0.118475 0)
(5.46677 0.114032 0)
(5.45166 0.109887 0)
(5.43712 0.106041 0)
(5.42311 0.1025 0)
(5.4096 0.099261 0)
(5.39651 0.0963287 0)
(5.38385 0.0936989 0)
(5.37145 0.091371 0)
(5.35971 0.0893479 0)
(5.34737 0.0875923 0)
(5.33771 0.0862571 0)
(5.32053 0.0845848 0)
(5.00001 -0.000606919 0)
(5.00017 -0.00193818 0)
(5.00044 -0.00320595 0)
(5.00087 -0.0044541 0)
(5.00144 -0.00569762 0)
(5.00215 -0.00694043 0)
(5.003 -0.00818398 0)
(5.00397 -0.00942937 0)
(5.00508 -0.0106777 0)
(5.00633 -0.0119301 0)
(5.00771 -0.0131882 0)
(5.00923 -0.0144535 0)
(5.01088 -0.0157281 0)
(5.01266 -0.0170141 0)
(5.01459 -0.0183138 0)
(5.01665 -0.01963 0)
(5.01884 -0.0209656 0)
(5.02118 -0.0223236 0)
(5.02366 -0.0237075 0)
(5.02629 -0.0251209 0)
(5.02906 -0.0265676 0)
(5.03198 -0.0280517 0)
(5.03506 -0.0295776 0)
(5.03829 -0.0311495 0)
(5.04169 -0.0327725 0)
(5.04526 -0.0344512 0)
(5.049 -0.0361911 0)
(5.05292 -0.0379972 0)
(5.05703 -0.0398754 0)
(5.06134 -0.0418311 0)
(5.06585 -0.0438707 0)
(5.07057 -0.046 0)
(5.07552 -0.0482258 0)
(5.0807 -0.0505541 0)
(5.08612 -0.0529924 0)
(5.0918 -0.0555468 0)
(5.09775 -0.0582253 0)
(5.10399 -0.0610344 0)
(5.11052 -0.0639823 0)
(5.11737 -0.0670758 0)
(5.12454 -0.0703237 0)
(5.13207 -0.0737328 0)
(5.13996 -0.0773121 0)
(5.14823 -0.0810686 0)
(5.15691 -0.0850116 0)
(5.16601 -0.0891481 0)
(5.17557 -0.0934874 0)
(5.18559 -0.0980364 0)
(5.19611 -0.102804 0)
(5.20715 -0.107798 0)
(5.21874 -0.113026 0)
(5.23091 -0.118495 0)
(5.24368 -0.124213 0)
(5.25709 -0.130184 0)
(5.27115 -0.136417 0)
(5.28593 -0.142915 0)
(5.30142 -0.149683 0)
(5.31769 -0.156723 0)
(5.33476 -0.164038 0)
(5.35267 -0.171626 0)
(5.37145 -0.179487 0)
(5.39115 -0.187615 0)
(5.41179 -0.196003 0)
(5.43343 -0.20464 0)
(5.4561 -0.213514 0)
(5.47984 -0.222604 0)
(5.50468 -0.231888 0)
(5.53067 -0.241338 0)
(5.55783 -0.250918 0)
(5.5862 -0.26059 0)
(5.6158 -0.270304 0)
(5.64665 -0.280007 0)
(5.67877 -0.289636 0)
(5.71216 -0.299124 0)
(5.74682 -0.308392 0)
(5.78273 -0.317361 0)
(5.81985 -0.325941 0)
(5.85816 -0.334046 0)
(5.89757 -0.341579 0)
(5.93803 -0.348453 0)
(5.97944 -0.354575 0)
(6.02169 -0.359868 0)
(6.06466 -0.364252 0)
(6.10821 -0.367671 0)
(6.15219 -0.370069 0)
(6.19645 -0.371417 0)
(6.24084 -0.371689 0)
(6.28518 -0.370886 0)
(6.32933 -0.369014 0)
(6.37313 -0.366101 0)
(6.41644 -0.362178 0)
(6.45912 -0.357297 0)
(6.50104 -0.351508 0)
(6.54208 -0.344878 0)
(6.58216 -0.337467 0)
(6.62116 -0.32935 0)
(6.65903 -0.320592 0)
(6.69568 -0.311269 0)
(6.73107 -0.301447 0)
(6.76515 -0.291194 0)
(6.79788 -0.280571 0)
(6.82924 -0.269642 0)
(6.85921 -0.258458 0)
(6.88778 -0.247073 0)
(6.91494 -0.235529 0)
(6.94068 -0.223869 0)
(6.96504 -0.212126 0)
(6.98798 -0.200331 0)
(7.00955 -0.188509 0)
(7.02972 -0.176681 0)
(7.04856 -0.164861 0)
(7.06603 -0.153064 0)
(7.08219 -0.141297 0)
(7.09701 -0.129564 0)
(7.11055 -0.117866 0)
(7.12279 -0.106202 0)
(7.13377 -0.0945685 0)
(7.14348 -0.0829575 0)
(7.15195 -0.0713621 0)
(7.15918 -0.0597694 0)
(7.16518 -0.0481656 0)
(7.16995 -0.0365273 0)
(7.17351 -0.0248338 0)
(7.17582 -0.013053 0)
(7.1769 -0.00116986 0)
(7.17672 0.0108505 0)
(7.17529 0.0230237 0)
(7.17255 0.0353873 0)
(7.1685 0.0479518 0)
(7.16309 0.0607548 0)
(7.15629 0.0737972 0)
(7.14805 0.0871111 0)
(7.13831 0.100682 0)
(7.12704 0.11453 0)
(7.11415 0.12862 0)
(7.09962 0.142952 0)
(7.08336 0.157466 0)
(7.06536 0.172139 0)
(7.04553 0.186887 0)
(7.02387 0.201658 0)
(7.00033 0.216349 0)
(6.97495 0.230885 0)
(6.94767 0.245149 0)
(6.91857 0.259051 0)
(6.88766 0.27247 0)
(6.85504 0.28531 0)
(6.82073 0.297457 0)
(6.7849 0.308819 0)
(6.74759 0.3193 0)
(6.709 0.328819 0)
(6.6692 0.337306 0)
(6.62841 0.344701 0)
(6.58673 0.350965 0)
(6.54437 0.356058 0)
(6.50146 0.359975 0)
(6.4582 0.362703 0)
(6.41473 0.364263 0)
(6.37124 0.364667 0)
(6.32785 0.363964 0)
(6.28474 0.362185 0)
(6.24203 0.359398 0)
(6.19987 0.355652 0)
(6.15835 0.351028 0)
(6.11759 0.345586 0)
(6.0777 0.339415 0)
(6.03874 0.33258 0)
(6.00079 0.325173 0)
(5.96391 0.317261 0)
(5.92815 0.308932 0)
(5.89355 0.300254 0)
(5.86013 0.291307 0)
(5.82791 0.282155 0)
(5.7969 0.272871 0)
(5.7671 0.263511 0)
(5.73851 0.254141 0)
(5.71111 0.244807 0)
(5.68488 0.235566 0)
(5.65979 0.226458 0)
(5.63583 0.217528 0)
(5.61294 0.20881 0)
(5.59111 0.200339 0)
(5.57028 0.192142 0)
(5.55043 0.184245 0)
(5.53149 0.176669 0)
(5.51343 0.169433 0)
(5.49619 0.162553 0)
(5.47975 0.156039 0)
(5.46403 0.149905 0)
(5.44899 0.144155 0)
(5.43459 0.138799 0)
(5.42077 0.133836 0)
(5.40749 0.129273 0)
(5.3947 0.125107 0)
(5.38234 0.121341 0)
(5.37041 0.11797 0)
(5.35874 0.114992 0)
(5.3477 0.11241 0)
(5.33612 0.110179 0)
(5.32704 0.108484 0)
(5.31091 0.106388 0)
(5.00001 -0.000740626 0)
(5.00017 -0.00236201 0)
(5.00044 -0.00390729 0)
(5.00087 -0.00542852 0)
(5.00144 -0.00694328 0)
(5.00214 -0.00845611 0)
(5.00298 -0.00996858 0)
(5.00395 -0.0114819 0)
(5.00505 -0.0129971 0)
(5.00628 -0.0145157 0)
(5.00765 -0.0160394 0)
(5.00914 -0.0175702 0)
(5.01077 -0.0191103 0)
(5.01252 -0.0206624 0)
(5.01441 -0.0222295 0)
(5.01643 -0.0238148 0)
(5.01858 -0.0254218 0)
(5.02086 -0.0270544 0)
(5.02328 -0.0287167 0)
(5.02583 -0.0304133 0)
(5.02852 -0.0321487 0)
(5.03135 -0.0339281 0)
(5.03433 -0.0357566 0)
(5.03746 -0.0376398 0)
(5.04073 -0.0395836 0)
(5.04417 -0.0415938 0)
(5.04776 -0.043677 0)
(5.05153 -0.0458395 0)
(5.05547 -0.0480884 0)
(5.0596 -0.0504304 0)
(5.06391 -0.0528734 0)
(5.06843 -0.0554243 0)
(5.07315 -0.0580916 0)
(5.07809 -0.0608828 0)
(5.08326 -0.0638067 0)
(5.08867 -0.0668713 0)
(5.09434 -0.0700862 0)
(5.10027 -0.0734594 0)
(5.10649 -0.0770011 0)
(5.113 -0.0807198 0)
(5.11982 -0.0846262 0)
(5.12697 -0.0887289 0)
(5.13447 -0.0930391 0)
(5.14234 -0.0975657 0)
(5.15059 -0.10232 0)
(5.15925 -0.107311 0)
(5.16834 -0.112551 0)
(5.17789 -0.118048 0)
(5.18791 -0.123815 0)
(5.19844 -0.129859 0)
(5.20949 -0.136194 0)
(5.22111 -0.142826 0)
(5.23331 -0.149767 0)
(5.24614 -0.157025 0)
(5.25962 -0.164609 0)
(5.27378 -0.172525 0)
(5.28867 -0.180783 0)
(5.30432 -0.189386 0)
(5.32076 -0.19834 0)
(5.33805 -0.207645 0)
(5.35622 -0.217304 0)
(5.37531 -0.227312 0)
(5.39537 -0.237666 0)
(5.41645 -0.248354 0)
(5.43859 -0.259365 0)
(5.46185 -0.270679 0)
(5.48626 -0.282272 0)
(5.51189 -0.294113 0)
(5.53877 -0.306162 0)
(5.56696 -0.318372 0)
(5.5965 -0.330685 0)
(5.62742 -0.343037 0)
(5.65975 -0.355347 0)
(5.69352 -0.36753 0)
(5.72873 -0.379483 0)
(5.76539 -0.391102 0)
(5.80348 -0.402264 0)
(5.84295 -0.412849 0)
(5.88376 -0.422724 0)
(5.92582 -0.431765 0)
(5.96902 -0.43984 0)
(6.01326 -0.446838 0)
(6.05836 -0.452645 0)
(6.10418 -0.45718 0)
(6.15053 -0.460364 0)
(6.19723 -0.462157 0)
(6.24407 -0.462527 0)
(6.29085 -0.461479 0)
(6.3374 -0.459025 0)
(6.38352 -0.455211 0)
(6.42905 -0.450085 0)
(6.47381 -0.443724 0)
(6.51769 -0.436201 0)
(6.56053 -0.427611 0)
(6.60225 -0.418041 0)
(6.64273 -0.407593 0)
(6.68191 -0.396357 0)
(6.7197 -0.384434 0)
(6.75608 -0.371913 0)
(6.79099 -0.358884 0)
(6.82441 -0.345428 0)
(6.85632 -0.331625 0)
(6.88673 -0.317543 0)
(6.9156 -0.303249 0)
(6.94298 -0.288797 0)
(6.96884 -0.27424 0)
(6.99324 -0.259619 0)
(7.01615 -0.244972 0)
(7.03764 -0.230329 0)
(7.05769 -0.215714 0)
(7.07636 -0.201144 0)
(7.09364 -0.186635 0)
(7.10959 -0.172195 0)
(7.12419 -0.157828 0)
(7.13751 -0.143533 0)
(7.14954 -0.129307 0)
(7.16031 -0.115144 0)
(7.16984 -0.101036 0)
(7.17815 -0.0869703 0)
(7.18525 -0.072931 0)
(7.19117 -0.0588972 0)
(7.19589 -0.0448384 0)
(7.19945 -0.0307243 0)
(7.20181 -0.0165118 0)
(7.203 -0.00217826 0)
(7.20299 0.0123242 0)
(7.20178 0.0270216 0)
(7.19933 0.041968 0)
(7.19562 0.0571848 0)
(7.1906 0.0727291 0)
(7.18423 0.0886114 0)
(7.17644 0.104884 0)
(7.16716 0.121537 0)
(7.15633 0.138607 0)
(7.14385 0.156057 0)
(7.12965 0.173893 0)
(7.11364 0.192043 0)
(7.09574 0.210479 0)
(7.07586 0.229088 0)
(7.05398 0.247804 0)
(7.03 0.266483 0)
(7.00394 0.285022 0)
(6.97575 0.303258 0)
(6.9455 0.321064 0)
(6.91317 0.338272 0)
(6.87889 0.354747 0)
(6.84268 0.370332 0)
(6.80472 0.384896 0)
(6.76509 0.398309 0)
(6.724 0.410459 0)
(6.68156 0.421252 0)
(6.63801 0.430607 0)
(6.59349 0.438472 0)
(6.54825 0.444799 0)
(6.50244 0.449582 0)
(6.45631 0.452807 0)
(6.41001 0.45451 0)
(6.36377 0.454711 0)
(6.31773 0.453479 0)
(6.27211 0.450861 0)
(6.22702 0.446954 0)
(6.18264 0.441824 0)
(6.13908 0.435585 0)
(6.09646 0.428318 0)
(6.05489 0.420142 0)
(6.01444 0.411147 0)
(5.9752 0.401452 0)
(5.93721 0.391148 0)
(5.90052 0.380349 0)
(5.86517 0.369142 0)
(5.83117 0.357631 0)
(5.79853 0.345897 0)
(5.76726 0.334034 0)
(5.73733 0.32211 0)
(5.70875 0.310208 0)
(5.68147 0.298386 0)
(5.65548 0.286713 0)
(5.63074 0.275238 0)
(5.60721 0.264014 0)
(5.58483 0.253083 0)
(5.56358 0.242485 0)
(5.5434 0.232253 0)
(5.52424 0.222416 0)
(5.50605 0.212999 0)
(5.48878 0.204022 0)
(5.47236 0.195502 0)
(5.45676 0.187452 0)
(5.44191 0.179884 0)
(5.42776 0.172804 0)
(5.41425 0.16622 0)
(5.40134 0.160131 0)
(5.38897 0.154543 0)
(5.37709 0.149451 0)
(5.36564 0.144857 0)
(5.35462 0.140756 0)
(5.34384 0.137142 0)
(5.33369 0.13402 0)
(5.32303 0.131334 0)
(5.31467 0.129303 0)
(5.29984 0.126823 0)
(5.00001 -0.000874339 0)
(5.00017 -0.00278405 0)
(5.00044 -0.00460573 0)
(5.00087 -0.00639876 0)
(5.00143 -0.0081829 0)
(5.00214 -0.00996311 0)
(5.00297 -0.0117409 0)
(5.00393 -0.0135175 0)
(5.00503 -0.015294 0)
(5.00625 -0.0170719 0)
(5.0076 -0.0188532 0)
(5.00907 -0.0206401 0)
(5.01067 -0.0224353 0)
(5.0124 -0.0242419 0)
(5.01425 -0.0260633 0)
(5.01622 -0.0279034 0)
(5.01832 -0.0297665 0)
(5.02054 -0.0316571 0)
(5.02288 -0.0335802 0)
(5.02535 -0.0355411 0)
(5.02795 -0.0375453 0)
(5.03068 -0.0395989 0)
(5.03354 -0.0417081 0)
(5.03654 -0.0438794 0)
(5.03968 -0.0461198 0)
(5.04296 -0.0484362 0)
(5.04639 -0.0508365 0)
(5.04997 -0.0533282 0)
(5.05371 -0.0559196 0)
(5.05762 -0.0586187 0)
(5.06171 -0.0614347 0)
(5.06598 -0.064376 0)
(5.07043 -0.0674526 0)
(5.07509 -0.0706734 0)
(5.07996 -0.0740489 0)
(5.08506 -0.0775886 0)
(5.09038 -0.0813039 0)
(5.09596 -0.0852044 0)
(5.10179 -0.0893024 0)
(5.1079 -0.0936079 0)
(5.1143 -0.0981338 0)
(5.12101 -0.10289 0)
(5.12805 -0.107891 0)
(5.13543 -0.113147 0)
(5.14317 -0.118672 0)
(5.1513 -0.124477 0)
(5.15983 -0.130576 0)
(5.1688 -0.136981 0)
(5.17822 -0.143706 0)
(5.18812 -0.150762 0)
(5.19853 -0.158163 0)
(5.20947 -0.165922 0)
(5.22099 -0.174051 0)
(5.23311 -0.182562 0)
(5.24585 -0.191468 0)
(5.25927 -0.200778 0)
(5.2734 -0.210505 0)
(5.28827 -0.220656 0)
(5.30393 -0.231241 0)
(5.32043 -0.242265 0)
(5.33781 -0.253735 0)
(5.35612 -0.265649 0)
(5.3754 -0.278008 0)
(5.39573 -0.290807 0)
(5.41715 -0.304035 0)
(5.43974 -0.317676 0)
(5.46353 -0.331708 0)
(5.48862 -0.3461 0)
(5.51505 -0.360811 0)
(5.5429 -0.375792 0)
(5.57222 -0.390976 0)
(5.6031 -0.406288 0)
(5.63556 -0.421633 0)
(5.66968 -0.436905 0)
(5.70548 -0.451976 0)
(5.74298 -0.466707 0)
(5.78219 -0.480938 0)
(5.82308 -0.494505 0)
(5.8656 -0.507222 0)
(5.90967 -0.518914 0)
(5.95518 -0.529393 0)
(6.00197 -0.538496 0)
(6.04987 -0.546063 0)
(6.09866 -0.551972 0)
(6.14813 -0.556117 0)
(6.19801 -0.55844 0)
(6.24807 -0.558904 0)
(6.29805 -0.557523 0)
(6.34772 -0.554324 0)
(6.39684 -0.549379 0)
(6.44523 -0.542769 0)
(6.49268 -0.534606 0)
(6.53904 -0.525 0)
(6.58416 -0.514085 0)
(6.62793 -0.501984 0)
(6.67023 -0.488835 0)
(6.71101 -0.474761 0)
(6.75017 -0.459893 0)
(6.78771 -0.444344 0)
(6.82356 -0.428232 0)
(6.85773 -0.411658 0)
(6.8902 -0.39472 0)
(6.921 -0.377503 0)
(6.95012 -0.360087 0)
(6.97761 -0.342537 0)
(7.00347 -0.324915 0)
(7.02776 -0.307269 0)
(7.05049 -0.289644 0)
(7.07172 -0.272072 0)
(7.09148 -0.254581 0)
(7.10981 -0.237189 0)
(7.12674 -0.219913 0)
(7.14232 -0.20276 0)
(7.15656 -0.185733 0)
(7.16951 -0.16883 0)
(7.1812 -0.152046 0)
(7.19166 -0.135372 0)
(7.20091 -0.1188 0)
(7.20898 -0.102312 0)
(7.21589 -0.0858899 0)
(7.22167 -0.0695036 0)
(7.22632 -0.0531166 0)
(7.22987 -0.0366861 0)
(7.2323 -0.0201595 0)
(7.23364 -0.0035031 0)
(7.23386 0.0133456 0)
(7.23297 0.0304287 0)