/*--------------------------------*- C++ -*----------------------------------*\
  =========                 |
  \\      /  F ield         | OpenFOAM: The Open Source CFD Toolbox
   \\    /   O peration     | Website:  https://openfoam.org
    \\  /    A nd           | Version:  11
     \\/     M anipulation  |
\*---------------------------------------------------------------------------*/
FoamFile
{
    format      ascii;
    class       volVectorField;
    location    "42";
    object      U;
}
// * * * * * * * * * * * * * * * * * * * * * * * * * * * * * * * * * * * * * //

dimensions      [0 1 -1 0 0 0 0];

internalField   nonuniform List<vector> 
2048
(
(1.00014 -0.000597057 0)
(1.00256 -0.00180184 0)
(1.00733 -0.00303195 0)
(1.01462 -0.00430148 0)
(1.02452 -0.00562086 0)
(1.03711 -0.0069933 0)
(1.05248 -0.008412 0)
(1.0707 -0.00985828 0)
(1.09181 -0.0113007 0)
(1.11578 -0.0126948 0)
(1.14248 -0.0139845 0)
(1.17164 -0.0151045 0)
(1.20288 -0.0159864 0)
(1.23567 -0.0165671 0)
(1.26936 -0.0168016 0)
(1.30324 -0.0166735 0)
(1.33658 -0.0162021 0)
(1.3687 -0.0154412 0)
(1.39903 -0.0144677 0)
(1.42719 -0.0133624 0)
(1.45297 -0.012194 0)
(1.47631 -0.0110141 0)
(1.49724 -0.009859 0)
(1.51586 -0.00875312 0)
(1.53229 -0.00771055 0)
(1.54669 -0.00673671 0)
(1.55919 -0.00583065 0)
(1.56994 -0.00498761 0)
(1.57906 -0.00420098 0)
(1.58667 -0.00346361 0)
(1.59285 -0.00276894 0)
(1.59768 -0.00211186 0)
(1.60124 -0.00148964 0)
(1.6036 -0.0009023 0)
(1.60482 -0.000353028 0)
(1.60498 0.000152088 0)
(1.60418 0.000604531 0)
(1.60252 0.000993604 0)
(1.60016 0.00130752 0)
(1.59724 0.00153516 0)
(1.59395 0.00166693 0)
(1.59048 0.00169521 0)
(1.58706 0.00161587 0)
(1.58391 0.00142826 0)
(1.58123 0.00113723 0)
(1.57924 0.000750216 0)
(1.57811 0.000282163 0)
(1.57799 -0.000246688 0)
(1.57899 -0.000813783 0)
(1.58115 -0.0013933 0)
(1.58451 -0.00195685 0)
(1.58895 -0.00247353 0)
(1.59442 -0.00291605 0)
(1.60064 -0.00325512 0)
(1.60755 -0.00347525 0)
(1.61463 -0.00355081 0)
(1.62198 -0.00349423 0)
(1.62871 -0.00327357 0)
(1.63541 -0.00296118 0)
(1.64058 -0.00247328 0)
(1.64577 -0.00202267 0)
(1.64849 -0.00133224 0)
(1.65162 -0.000978006 0)
(1.65197 -7.3949e-05 0)
(1.00013 -0.00178585 0)
(1.00253 -0.00538942 0)
(1.00725 -0.00907091 0)
(1.01446 -0.0128756 0)
(1.02429 -0.0168373 0)
(1.03681 -0.0209677 0)
(1.05213 -0.0252483 0)
(1.07037 -0.0296239 0)
(1.09159 -0.0339994 0)
(1.11577 -0.0382389 0)
(1.1428 -0.042169 0)
(1.17244 -0.0455886 0)
(1.20429 -0.0482856 0)
(1.2378 -0.0500629 0)
(1.27228 -0.0507763 0)
(1.30695 -0.0503695 0)
(1.34099 -0.0489015 0)
(1.37368 -0.0465465 0)
(1.40442 -0.0435513 0)
(1.43284 -0.0401684 0)
(1.45875 -0.0366085 0)
(1.48212 -0.0330272 0)
(1.50302 -0.0295332 0)
(1.52156 -0.0261983 0)
(1.5379 -0.0230624 0)
(1.55218 -0.0201391 0)
(1.56458 -0.0174235 0)
(1.57523 -0.0148994 0)
(1.58426 -0.0125456 0)
(1.59178 -0.0103392 0)
(1.59789 -0.00825949 0)
(1.60265 -0.00629045 0)
(1.60615 -0.00442337 0)
(1.60843 -0.00265838 0)
(1.60956 -0.00100486 0)
(1.60962 0.000518677 0)
(1.6087 0.00188556 0)
(1.6069 0.0030625 0)
(1.60436 0.00401352 0)
(1.60126 0.0047043 0)
(1.59776 0.00510485 0)
(1.59408 0.00519168 0)
(1.59044 0.00495094 0)
(1.58707 0.00438152 0)
(1.5842 0.00349517 0)
(1.58203 0.00232093 0)
(1.58077 0.000897858 0)
(1.58057 -0.000713661 0)
(1.58153 -0.00244414 0)
(1.58372 -0.00421271 0)
(1.58715 -0.0059322 0)
(1.59173 -0.00750916 0)
(1.59741 -0.00886 0)
(1.60387 -0.00989547 0)
(1.61107 -0.0105663 0)
(1.61844 -0.0107954 0)
(1.6261 -0.0106171 0)
(1.63309 -0.00993829 0)
(1.64006 -0.0089749 0)
(1.64537 -0.00748076 0)
(1.65071 -0.00609383 0)
(1.65339 -0.00398069 0)
(1.65658 -0.00288746 0)
(1.65664 -0.000144392 0)
(1.00013 -0.00295201 0)
(1.00246 -0.00891126 0)
(1.00707 -0.015009 0)
(1.01413 -0.021329 0)
(1.02377 -0.0279363 0)
(1.03613 -0.0348576 0)
(1.05136 -0.0420701 0)
(1.06961 -0.0494865 0)
(1.091 -0.0569489 0)
(1.11558 -0.0642214 0)
(1.14328 -0.0709959 0)
(1.17388 -0.0769141 0)
(1.20697 -0.0815938 0)
(1.24196 -0.0846796 0)
(1.27807 -0.0859039 0)
(1.31435 -0.0851513 0)
(1.34986 -0.0825281 0)
(1.3837 -0.0783686 0)
(1.41525 -0.0731351 0)
(1.44415 -0.0672807 0)
(1.47029 -0.0611687 0)
(1.4937 -0.055062 0)
(1.51451 -0.0491423 0)
(1.53287 -0.0435249 0)
(1.54899 -0.0382684 0)
(1.56304 -0.0333867 0)
(1.5752 -0.0288646 0)
(1.58564 -0.0246703 0)
(1.59449 -0.0207633 0)
(1.60185 -0.0171013 0)
(1.60781 -0.0136453 0)
(1.61244 -0.0103666 0)
(1.6158 -0.00724902 0)
(1.61794 -0.00429267 0)
(1.61891 -0.00151338 0)
(1.61877 0.00105766 0)
(1.6176 0.00337328 0)
(1.61551 0.00537336 0)
(1.61264 0.00699492 0)
(1.60914 0.00817786 0)
(1.60523 0.00886825 0)
(1.6011 0.00902362 0)
(1.59702 0.00861809 0)
(1.59321 0.0076484 0)
(1.58993 0.00613329 0)
(1.58741 0.0041232 0)
(1.58587 0.00168192 0)
(1.58547 -0.00108524 0)
(1.58635 -0.00406327 0)
(1.58857 -0.00711354 0)
(1.59216 -0.0100829 0)
(1.59702 -0.0128088 0)
(1.60309 -0.0151455 0)
(1.61004 -0.0169394 0)
(1.61781 -0.0181007 0)
(1.62576 -0.0184972 0)
(1.63404 -0.0181799 0)
(1.64157 -0.0169942 0)
(1.64905 -0.0152995 0)
(1.65466 -0.0126938 0)
(1.66031 -0.0102592 0)
(1.66288 -0.00659731 0)
(1.66616 -0.00466361 0)
(1.66562 2.95436e-05 0)
(1.00013 -0.00407282 0)
(1.00236 -0.0123035 0)
(1.00677 -0.0207487 0)
(1.01356 -0.029542 0)
(1.02289 -0.0387904 0)
(1.03494 -0.0485478 0)
(1.04994 -0.058801 0)
(1.06813 -0.0694409 0)
(1.08972 -0.080256 0)
(1.11486 -0.0909015 0)
(1.14354 -0.100907 0)
(1.17559 -0.109706 0)
(1.21062 -0.116677 0)
(1.24793 -0.121252 0)
(1.28661 -0.123002 0)
(1.32547 -0.12173 0)
(1.36326 -0.117632 0)
(1.39886 -0.11129 0)
(1.43159 -0.103456 0)
(1.46115 -0.0948161 0)
(1.48755 -0.0858955 0)
(1.51094 -0.07707 0)
(1.53153 -0.0685953 0)
(1.54956 -0.0606222 0)
(1.5653 -0.0532131 0)
(1.57896 -0.0463686 0)
(1.59076 -0.0400537 0)
(1.60087 -0.0342134 0)
(1.60942 -0.0287814 0)
(1.61653 -0.0236893 0)
(1.62228 -0.0188749 0)
(1.62672 -0.0142922 0)
(1.62989 -0.00991474 0)
(1.63182 -0.00574208 0)
(1.63254 -0.00179911 0)
(1.63211 0.00187128 0)
(1.63057 0.005195 0)
(1.62804 0.00807907 0)
(1.62464 0.0104294 0)
(1.62055 0.0121559 0)
(1.61598 0.0131755 0)
(1.61117 0.0134205 0)
(1.60637 0.0128495 0)
(1.60187 0.0114519 0)
(1.59794 0.00925633 0)
(1.59484 0.00632495 0)
(1.59282 0.00277296 0)
(1.59209 -0.0012755 0)
(1.59279 -0.00564141 0)
(1.59501 -0.0101227 0)
(1.59879 -0.0144975 0)
(1.60403 -0.0185241 0)
(1.61064 -0.0219804 0)
(1.61827 -0.0246399 0)
(1.62684 -0.0263615 0)
(1.63564 -0.026952 0)
(1.6448 -0.0264695 0)
(1.65308 -0.0246992 0)
(1.6613 -0.0221407 0)
(1.66729 -0.0182416 0)
(1.67335 -0.0145451 0)
(1.67568 -0.00911544 0)
(1.67908 -0.00617893 0)
(1.67749 0.000646437 0)
(1.00012 -0.00512275 0)
(1.00219 -0.0154925 0)
(1.00631 -0.0261736 0)
(1.01267 -0.0373656 0)
(1.02149 -0.0492329 0)
(1.03302 -0.0618744 0)
(1.04759 -0.0753063 0)
(1.06553 -0.089411 0)
(1.08723 -0.103953 0)
(1.11296 -0.118474 0)
(1.14289 -0.132338 0)
(1.17694 -0.144689 0)
(1.2147 -0.15452 0)
(1.25537 -0.160927 0)
(1.29778 -0.163192 0)
(1.34035 -0.161013 0)
(1.38132 -0.154827 0)
(1.41927 -0.14566 0)
(1.45346 -0.134659 0)
(1.48376 -0.122766 0)
(1.51037 -0.11067 0)
(1.5336 -0.0988641 0)
(1.55378 -0.0876741 0)
(1.57127 -0.0772677 0)
(1.58641 -0.0676853 0)
(1.59949 -0.058894 0)
(1.61075 -0.0508253 0)
(1.62037 -0.0433896 0)
(1.6285 -0.0364847 0)
(1.63526 -0.0300077 0)
(1.64069 -0.0238671 0)
(1.64485 -0.0179955 0)
(1.64775 -0.0123516 0)
(1.64937 -0.00692879 0)
(1.64975 -0.00176343 0)
(1.64889 0.00309036 0)
(1.64683 0.00751229 0)
(1.64366 0.0113696 0)
(1.63951 0.0145356 0)
(1.63458 0.0168833 0)
(1.62907 0.0182917 0)
(1.62324 0.0186619 0)
(1.6174 0.0179305 0)
(1.61186 0.0160782 0)
(1.60693 0.0131368 0)
(1.60293 0.00918524 0)
(1.60013 0.00436707 0)
(1.59877 -0.00115103 0)
(1.59905 -0.00711588 0)
(1.60106 -0.0132418 0)
(1.60487 -0.0192289 0)
(1.61036 -0.0247566 0)
(1.61744 -0.0295128 0)
(1.62571 -0.0331851 0)
(1.63506 -0.0355615 0)
(1.64469 -0.0363833 0)
(1.65472 -0.0356977 0)
(1.66375 -0.0332357 0)
(1.67268 -0.0296286 0)
(1.67899 -0.0241993 0)
(1.68539 -0.0189534 0)
(1.68726 -0.0114147 0)
(1.69069 -0.00719396 0)
(1.68759 0.00202072 0)
(1.0001 -0.00606739 0)
(1.00195 -0.0183794 0)
(1.00562 -0.0311202 0)
(1.01134 -0.0445854 0)
(1.01938 -0.059008 0)
(1.03007 -0.0745706 0)
(1.04387 -0.0913371 0)
(1.06125 -0.109199 0)
(1.08277 -0.127936 0)
(1.10898 -0.146963 0)
(1.14026 -0.165556 0)
(1.17681 -0.182485 0)
(1.21827 -0.196213 0)
(1.26366 -0.205235 0)
(1.31139 -0.208125 0)
(1.35913 -0.204404 0)
(1.40431 -0.195117 0)
(1.44514 -0.182109 0)
(1.48101 -0.167077 0)
(1.51206 -0.15124 0)
(1.53873 -0.135447 0)
(1.56149 -0.120309 0)
(1.58088 -0.106203 0)
(1.59741 -0.0932699 0)
(1.61155 -0.0814919 0)
(1.62362 -0.0707817 0)
(1.63392 -0.0610201 0)
(1.64265 -0.052065 0)
(1.64998 -0.0437613 0)
(1.65601 -0.0359599 0)
(1.66081 -0.0285334 0)
(1.66438 -0.0213921 0)
(1.66672 -0.0144741 0)
(1.66779 -0.00777413 0)
(1.66757 -0.0013016 0)
(1.66603 0.0048575 0)
(1.66315 0.0105155 0)
(1.65904 0.0154889 0)
(1.65382 0.0196105 0)
(1.64767 0.0227053 0)
(1.64081 0.0246022 0)
(1.63353 0.0251636 0)
(1.62615 0.0242976 0)
(1.61904 0.0219738 0)
(1.61255 0.0182238 0)
(1.60702 0.0131597 0)
(1.60278 0.00694621 0)
(1.60012 -0.000181451 0)
(1.59928 -0.00796888 0)
(1.60037 -0.0160454 0)
(1.60345 -0.0239377 0)
(1.6084 -0.0312274 0)
(1.61513 -0.0375125 0)
(1.62319 -0.042393 0)
(1.63247 -0.0455592 0)
(1.6421 -0.0466896 0)
(1.65221 -0.0457875 0)
(1.66128 -0.0425534 0)
(1.67029 -0.0377042 0)
(1.67648 -0.0304925 0)
(1.68284 -0.0233686 0)
(1.68415 -0.0133905 0)
(1.68738 -0.00755424 0)
(1.6827 0.00438065 0)
(1.00008 -0.00686193 0)
(1.0016 -0.020838 0)
(1.00464 -0.0353682 0)
(1.00944 -0.0509067 0)
(1.01632 -0.0677328 0)
(1.02572 -0.0862244 0)
(1.03825 -0.106473 0)
(1.05452 -0.128468 0)
(1.07541 -0.152014 0)
(1.1017 -0.176289 0)
(1.13413 -0.200673 0)
(1.17353 -0.223365 0)
(1.21966 -0.242486 0)
(1.27153 -0.255485 0)
(1.32703 -0.259268 0)
(1.38225 -0.253148 0)
(1.43313 -0.239444 0)
(1.4775 -0.221279 0)
(1.51506 -0.201049 0)
(1.54636 -0.180301 0)
(1.57212 -0.160091 0)
(1.59311 -0.141161 0)
(1.61018 -0.123869 0)
(1.62413 -0.108252 0)
(1.63559 -0.0942038 0)
(1.64502 -0.0815755 0)
(1.65277 -0.0701827 0)
(1.65911 -0.0598051 0)
(1.66425 -0.0502094 0)
(1.66832 -0.0411824 0)
(1.67136 -0.0325448 0)
(1.67338 -0.0241808 0)
(1.67433 -0.0159976 0)
(1.67417 -0.00801822 0)
(1.67282 -0.000193008 0)
(1.67015 0.00734392 0)
(1.66607 0.0143652 0)
(1.66065 0.0206394 0)
(1.65401 0.0259312 0)
(1.64628 0.0299903 0)
(1.63765 0.0325792 0)
(1.62841 0.0335013 0)
(1.6189 0.0326288 0)
(1.60948 0.0299044 0)
(1.60055 0.0253639 0)
(1.5925 0.0191424 0)
(1.58564 0.0114488 0)
(1.58022 0.00262336 0)
(1.57652 -0.00693747 0)
(1.57481 -0.0170578 0)
(1.57516 -0.0270699 0)
(1.57738 -0.0363471 0)
(1.58139 -0.0443754 0)
(1.5868 -0.0506862 0)
(1.59352 -0.0548587 0)
(1.60083 -0.0565211 0)
(1.60882 -0.0555915 0)
(1.61622 -0.0517666 0)
(1.6238 -0.0457704 0)
(1.62918 -0.036827 0)
(1.63475 -0.0277032 0)
(1.63599 -0.0150908 0)
(1.63891 -0.00742093 0)
(1.63417 0.007527 0)
(1.00005 -0.00745159 0)
(1.00114 -0.0227196 0)
(1.0033 -0.0386352 0)
(1.00685 -0.0559516 0)
(1.01204 -0.0748459 0)
(1.01952 -0.0962203 0)
(1.03001 -0.119949 0)
(1.04434 -0.146619 0)
(1.06397 -0.175821 0)
(1.08955 -0.206479 0)
(1.12287 -0.238268 0)
(1.16521 -0.267825 0)
(1.21636 -0.293667 0)
(1.27723 -0.311795 0)
(1.34505 -0.316277 0)
(1.41168 -0.306695 0)
(1.46981 -0.28731 0)
(1.5167 -0.262564 0)
(1.55289 -0.235612 0)
(1.57989 -0.208524 0)
(1.59928 -0.182814 0)
(1.61266 -0.159426 0)
(1.62162 -0.13856 0)
(1.62747 -0.120026 0)
(1.63109 -0.103603 0)
(1.63311 -0.0890862 0)
(1.63403 -0.0762078 0)
(1.63423 -0.0646369 0)
(1.63396 -0.054036 0)
(1.63335 -0.0440885 0)
(1.63244 -0.0345554 0)
(1.63119 -0.0252196 0)
(1.62953 -0.0159887 0)
(1.62729 -0.00686137 0)
(1.62445 0.00226116 0)
(1.6206 0.0110794 0)
(1.61553 0.0194197 0)
(1.60922 0.0270705 0)
(1.60163 0.0337123 0)
(1.59278 0.0389955 0)
(1.58275 0.0425969 0)
(1.57174 0.0442417 0)
(1.56003 0.043732 0)
(1.54795 0.0409631 0)
(1.53586 0.0359531 0)
(1.52412 0.0288323 0)
(1.51313 0.0198756 0)
(1.50319 0.00942782 0)
(1.49418 -0.00198924 0)
(1.48645 -0.0136409 0)
(1.48055 -0.0253928 0)
(1.47629 -0.0364947 0)
(1.4736 -0.0462205 0)
(1.47238 -0.0540404 0)
(1.47274 -0.0594543 0)
(1.4744 -0.0620777 0)
(1.47747 -0.0617219 0)
(1.48139 -0.0580896 0)
(1.48625 -0.0517926 0)
(1.49103 -0.0420153 0)
(1.49592 -0.0316678 0)
(1.49927 -0.0169777 0)
(1.50232 -0.00780241 0)
(1.50154 0.010158 0)
(0.999992 -0.00777724 0)
(1.00059 -0.0238623 0)
(1.00152 -0.0405929 0)
(1.00356 -0.0592806 0)
(1.00621 -0.0795895 0)
(1.01127 -0.103728 0)
(1.01811 -0.130363 0)
(1.02967 -0.162546 0)
(1.04629 -0.198003 0)
(1.07014 -0.237455 0)
(1.10481 -0.280305 0)
(1.14925 -0.318244 0)
(1.20642 -0.353178 0)
(1.28289 -0.378109 0)
(1.36939 -0.382311 0)
(1.44698 -0.367113 0)
(1.50424 -0.339298 0)
(1.54045 -0.304491 0)
(1.55945 -0.267161 0)
(1.56565 -0.230554 0)
(1.5629 -0.197224 0)
(1.55443 -0.168311 0)
(1.54297 -0.143471 0)
(1.53028 -0.122041 0)
(1.51731 -0.103585 0)
(1.50469 -0.0877524 0)
(1.49296 -0.0741137 0)
(1.48247 -0.0621903 0)
(1.47343 -0.0515071 0)
(1.46588 -0.0416427 0)
(1.45972 -0.0322326 0)
(1.45483 -0.022955 0)
(1.4509 -0.0136323 0)
(1.44774 -0.00402427 0)
(1.44499 0.00554769 0)
(1.44195 0.0150083 0)
(1.43841 0.0242959 0)
(1.43403 0.0331592 0)
(1.42843 0.0411818 0)
(1.42134 0.0479161 0)
(1.41264 0.0529389 0)
(1.40228 0.0558773 0)
(1.39037 0.0564364 0)
(1.37706 0.0544449 0)
(1.36263 0.0498634 0)
(1.34738 0.0428003 0)
(1.33162 0.0335354 0)
(1.31575 0.0224417 0)
(1.30023 0.0100005 0)
(1.28481 -0.00291741 0)
(1.26987 -0.0156582 0)
(1.25634 -0.0279019 0)
(1.24459 -0.0389887 0)
(1.23498 -0.0483538 0)
(1.22808 -0.0554731 0)
(1.22424 -0.0599515 0)
(1.22347 -0.0614521 0)
(1.22592 -0.0595803 0)
(1.23044 -0.0546916 0)
(1.23776 -0.0458103 0)
(1.24449 -0.0358425 0)
(1.25382 -0.0204524 0)
(1.25848 -0.0107269 0)
(1.26647 0.0100689 0)
(0.999887 -0.00779077 0)
(0.999994 -0.0240944 0)
(0.999241 -0.0409291 0)
(0.999749 -0.0604071 0)
(0.998569 -0.0811366 0)
(1.00132 -0.107727 0)
(1.00116 -0.135638 0)
(1.01066 -0.174517 0)
(1.01744 -0.214291 0)
(1.04172 -0.268296 0)
(1.07308 -0.326392 0)
(1.11953 -0.378606 0)
(1.19394 -0.44171 0)
(1.2934 -0.479497 0)
(1.3857 -0.474226 0)
(1.4428 -0.439171 0)
(1.46018 -0.388789 0)
(1.44833 -0.332067 0)
(1.41731 -0.275993 0)
(1.37632 -0.224848 0)
(1.33088 -0.182162 0)
(1.28524 -0.14796 0)
(1.24318 -0.120474 0)
(1.20609 -0.0983382 0)
(1.17385 -0.0805867 0)
(1.14637 -0.0663362 0)
(1.12368 -0.0547643 0)
(1.10569 -0.0451701 0)
(1.09215 -0.0369514 0)
(1.0827 -0.0295877 0)
(1.07686 -0.0225985 0)
(1.07421 -0.0155926 0)
(1.07419 -0.00819829 0)
(1.07595 -0.000192769 0)
(1.07894 0.00832069 0)
(1.08269 0.0174062 0)
(1.08648 0.0268552 0)
(1.08951 0.0363615 0)
(1.0911 0.0454785 0)
(1.09071 0.0536861 0)
(1.08791 0.0604497 0)
(1.08242 0.0652715 0)
(1.0741 0.0677442 0)
(1.06293 0.0675901 0)
(1.04906 0.0646952 0)
(1.03274 0.0591135 0)
(1.01437 0.0510479 0)
(0.994487 0.0408791 0)
(0.973908 0.0290878 0)
(0.95361 0.0160552 0)
(0.934409 0.00263117 0)
(0.917213 -0.0110016 0)
(0.903419 -0.0244291 0)
(0.893763 -0.03702 0)
(0.88867 -0.0479945 0)
(0.88821 -0.0566106 0)
(0.891779 -0.0621272 0)
(0.899384 -0.0638568 0)
(0.90878 -0.0617973 0)
(0.921806 -0.0548615 0)
(0.932389 -0.04583 0)
(0.947937 -0.029997 0)
(0.95423 -0.0196984 0)
(0.968929 0.00488851 0)
(0.999761 -0.00747102 0)
(0.999352 -0.0232373 0)
(0.99661 -0.0394452 0)
(0.995525 -0.0587855 0)
(0.989412 -0.0789282 0)
(0.990114 -0.106869 0)
(0.978979 -0.133992 0)
(0.988662 -0.179591 0)
(0.971563 -0.217765 0)
(1.00684 -0.29583 0)
(1.00151 -0.358361 0)
(1.07563 -0.458012 0)
(1.16753 -0.596959 0)
(1.25249 -0.62356 0)
(1.28109 -0.562497 0)
(1.24211 -0.468656 0)
(1.16098 -0.370581 0)
(1.06573 -0.280495 0)
(0.967099 -0.204795 0)
(0.876606 -0.143488 0)
(0.792851 -0.100005 0)
(0.722372 -0.0702071 0)
(0.669731 -0.049828 0)
(0.632142 -0.0370521 0)
(0.606109 -0.0298987 0)
(0.589298 -0.0262462 0)
(0.579987 -0.0244726 0)
(0.576674 -0.0235355 0)
(0.578072 -0.0227503 0)
(0.583127 -0.0216152 0)
(0.590949 -0.019747 0)
(0.600867 -0.0168182 0)
(0.612283 -0.0126213 0)
(0.624631 -0.00702823 0)
(0.637264 0.000323047 0)
(0.649594 0.00929357 0)
(0.661377 0.0193755 0)
(0.671822 0.03012 0)
(0.680156 0.0410802 0)
(0.685829 0.0516701 0)
(0.688397 0.0612451 0)
(0.68754 0.069185 0)
(0.683108 0.0749404 0)
(0.675145 0.0780788 0)
(0.663951 0.0783115 0)
(0.650082 0.0754848 0)
(0.63437 0.0695741 0)
(0.617867 0.0606604 0)
(0.601813 0.0489219 0)
(0.587433 0.0346165 0)
(0.575812 0.0181332 0)
(0.567649 0.000410689 0)
(0.563311 -0.0177342 0)
(0.562813 -0.0352325 0)
(0.565973 -0.0508838 0)
(0.572313 -0.0636045 0)
(0.581186 -0.0724444 0)
(0.592362 -0.0766624 0)
(0.604104 -0.0760463 0)
(0.618201 -0.0698678 0)
(0.628873 -0.0601572 0)
(0.644329 -0.0432016 0)
(0.648815 -0.0306767 0)
(0.66153 -0.00147143 0)
(0.999685 -0.00681238 0)
(0.998573 -0.021161 0)
(0.994026 -0.0360739 0)
(0.990744 -0.0539384 0)
(0.980124 -0.0728514 0)
(0.977167 -0.0995641 0)
(0.955393 -0.125346 0)
(0.962056 -0.172534 0)
(0.915087 -0.206406 0)
(0.962309 -0.305468 0)
(0.864348 -0.345423 0)
(1.02895 -0.564424 0)
(0.976304 -0.71864 0)
(0.954119 -0.633111 0)
(0.843218 -0.476572 0)
(0.678087 -0.324237 0)
(0.520603 -0.19934 0)
(0.395696 -0.110988 0)
(0.299397 -0.0570684 0)
(0.230844 -0.0200698 0)
(0.176431 -0.0155128 0)
(0.159715 -0.0233976 0)
(0.166507 -0.0297577 0)
(0.177711 -0.0348734 0)
(0.189708 -0.03842 0)
(0.201815 -0.0406524 0)
(0.213696 -0.0419337 0)
(0.225279 -0.0424565 0)
(0.236673 -0.0422192 0)
(0.247948 -0.0410893 0)
(0.259164 -0.0388898 0)
(0.270315 -0.0354257 0)
(0.281316 -0.0304407 0)
(0.292088 -0.0236631 0)
(0.302506 -0.0149449 0)
(0.312155 -0.00439892 0)
(0.320876 0.00751863 0)
(0.328481 0.0204859 0)
(0.334535 0.0340674 0)
(0.338662 0.0476104 0)
(0.34057 0.0603709 0)
(0.340124 0.0715757 0)
(0.337296 0.0804805 0)
(0.332309 0.0864197 0)
(0.325589 0.0888253 0)
(0.317707 0.0872971 0)
(0.309445 0.0816198 0)
(0.301574 0.0717839 0)
(0.294815 0.0580853 0)
(0.289712 0.0410623 0)
(0.286674 0.0215281 0)
(0.285813 0.000556058 0)
(0.287096 -0.0206208 0)
(0.290484 -0.0407776 0)
(0.295838 -0.0586587 0)
(0.302795 -0.0731269 0)
(0.311075 -0.0832272 0)
(0.320308 -0.0882408 0)
(0.329853 -0.0878388 0)
(0.340298 -0.081623 0)
(0.348248 -0.0704421 0)
(0.359282 -0.0528143 0)
(0.360015 -0.0358484 0)
(0.366974 -0.00350762 0)
(0.999688 -0.00579662 0)
(0.997665 -0.0178942 0)
(0.991809 -0.0307696 0)
(0.985578 -0.0458458 0)
(0.972055 -0.0627879 0)
(0.962553 -0.0852866 0)
(0.935513 -0.109956 0)
(0.928533 -0.14956 0)
(0.869184 -0.184953 0)
(0.891855 -0.272523 0)
(0.724701 -0.302029 0)
(0.910694 -0.591186 0)
(0.332891 -0.394306 0)
(0.237141 -0.23825 0)
(0.117867 -0.178199 0)
(0.0548057 -0.134654 0)
(0.0291745 -0.0930611 0)
(0.0173221 -0.0607184 0)
(0.010973 -0.0363908 0)
(0.00487696 -0.0158862 0)
(0.00825773 -0.0475713 0)
(0.0153035 -0.0617623 0)
(0.0282771 -0.0614578 0)
(0.0346146 -0.059381 0)
(0.0404073 -0.0565595 0)
(0.0456554 -0.0542501 0)
(0.0504734 -0.052636 0)
(0.0549595 -0.0513948 0)
(0.0591976 -0.0500919 0)
(0.0632372 -0.048314 0)
(0.0671159 -0.0456851 0)
(0.0708123 -0.0418536 0)
(0.0742812 -0.0365254 0)
(0.0775096 -0.0294558 0)
(0.0805072 -0.0204842 0)
(0.0831078 -0.00968293 0)
(0.0852463 0.00295946 0)
(0.0869578 0.0170059 0)
(0.0879793 0.0318637 0)
(0.088199 0.0468308 0)
(0.087526 0.0610764 0)
(0.0859701 0.0737088 0)
(0.0835188 0.0838603 0)
(0.0803501 0.0907223 0)
(0.0766617 0.093641 0)
(0.0727052 0.092149 0)
(0.0687836 0.0860251 0)
(0.0651952 0.0753748 0)
(0.0622746 0.0605599 0)
(0.0601042 0.0422235 0)
(0.0589693 0.0212783 0)
(0.0590087 -0.00113931 0)
(0.0602607 -0.0237702 0)
(0.0628002 -0.0452854 0)
(0.0665211 -0.0643197 0)
(0.0711632 -0.0796433 0)
(0.0764918 -0.0902652 0)
(0.0822187 -0.0955086 0)
(0.0882588 -0.0950078 0)
(0.094413 -0.0883911 0)
(0.099737 -0.0758624 0)
(0.105246 -0.0568609 0)
(0.103784 -0.0337101 0)
(0.108137 -0.00258165 0)
(0.99969 -0.00442268 0)
(0.996874 -0.0136209 0)
(0.989897 -0.0235561 0)
(0.981056 -0.0350325 0)
(0.965126 -0.0484873 0)
(0.949468 -0.0654425 0)
(0.918939 -0.0863297 0)
(0.8967 -0.114564 0)
(0.836177 -0.149773 0)
(0.815035 -0.202033 0)
(0.672834 -0.257847 0)
(0.734321 -0.385133 0)
(0.311738 -0.267061 0)
(0.300082 -0.253864 0)
(0.207708 -0.229969 0)
(0.128851 -0.178989 0)
(0.0783663 -0.122499 0)
(0.0467247 -0.0761796 0)
(0.029003 -0.0426656 0)
(0.0141437 -0.0163469 0)
(0.0213328 -0.0417263 0)
(-0.00254255 -0.0563885 0)
(-0.00428 -0.0562835 0)
(-0.0135792 -0.0547455 0)
(-0.020149 -0.0530482 0)
(-0.0262535 -0.0517892 0)
(-0.0318419 -0.0509142 0)
(-0.0369519 -0.0501681 0)
(-0.041647 -0.0492147 0)
(-0.0459957 -0.0476972 0)
(-0.0500497 -0.0452536 0)
(-0.0538671 -0.0415273 0)
(-0.0575217 -0.0362051 0)
(-0.0610414 -0.0290488 0)
(-0.0644536 -0.0199516 0)
(-0.0677598 -0.00893353 0)
(-0.0710225 0.00398976 0)
(-0.0742875 0.0182855 0)
(-0.0775807 0.0334225 0)
(-0.0808942 0.0486985 0)
(-0.0842621 0.0632704 0)
(-0.0876983 0.0762221 0)
(-0.0912304 0.0866454 0)
(-0.0948646 0.093712 0)
(-0.0985821 0.0967205 0)
(-0.102313 0.0951924 0)
(-0.106006 0.0889473 0)
(-0.109549 0.078017 0)
(-0.112677 0.0626744 0)
(-0.115307 0.0436255 0)
(-0.117094 0.0217706 0)
(-0.117938 -0.0016642 0)
(-0.117876 -0.0253794 0)
(-0.116861 -0.0478474 0)
(-0.11507 -0.0675589 0)
(-0.112752 -0.0832299 0)
(-0.110097 -0.093957 0)
(-0.107127 -0.0992331 0)
(-0.103703 -0.0987557 0)
(-0.0998014 -0.0921295 0)
(-0.0957972 -0.0788646 0)
(-0.092819 -0.0585057 0)
(-0.0916813 -0.0327442 0)
(-0.0880851 -0.00563003 0)
(0.999657 -0.00276376 0)
(0.996365 -0.00855303 0)
(0.988348 -0.0147741 0)
(0.977984 -0.0221007 0)
(0.959477 -0.0305085 0)
(0.940781 -0.0416202 0)
(0.904681 -0.0544237 0)
(0.877394 -0.0736854 0)
(0.80505 -0.0935998 0)
(0.778967 -0.13052 0)
(0.615612 -0.153305 0)
(0.684261 -0.239067 0)
(0.291075 -0.144414 0)
(0.300282 -0.112656 0)
(0.21582 -0.0966923 0)
(0.140272 -0.0779871 0)
(0.090034 -0.0570306 0)
(0.056819 -0.0378219 0)
(0.0381279 -0.0220068 0)
(0.020293 -0.00800309 0)
(0.0341907 -0.0280223 0)
(-0.00332273 -0.0406629 0)
(-0.0147353 -0.0424398 0)
(-0.0349415 -0.0418406 0)
(-0.0511732 -0.041228 0)
(-0.0659998 -0.0410044 0)
(-0.079516 -0.0410601 0)
(-0.0918688 -0.041131 0)
(-0.10321 -0.0408855 0)
(-0.113686 -0.0399674 0)
(-0.123415 -0.0380184 0)
(-0.132502 -0.0346988 0)
(-0.141051 -0.0297187 0)
(-0.149124 -0.0228668 0)
(-0.156742 -0.0140359 0)
(-0.163846 -0.00319719 0)
(-0.170585 0.00939834 0)
(-0.177054 0.0233967 0)
(-0.18315 0.0382792 0)
(-0.188888 0.0533347 0)
(-0.194301 0.0677255 0)
(-0.199429 0.0805417 0)
(-0.204317 0.0908687 0)
(-0.209034 0.0978658 0)
(-0.213599 0.100823 0)
(-0.217995 0.0992266 0)
(-0.222234 0.0927919 0)
(-0.226258 0.0815038 0)
(-0.229835 0.0656961 0)
(-0.232796 0.0460063 0)
(-0.234914 0.023355 0)
(-0.23622 -0.00106541 0)
(-0.236848 -0.0256762 0)
(-0.236734 -0.0488215 0)
(-0.236044 -0.0689364 0)
(-0.234947 -0.0848226 0)
(-0.233513 -0.0958007 0)
(-0.23162 -0.101611 0)
(-0.22902 -0.102024 0)
(-0.225659 -0.0963613 0)
(-0.222073 -0.0833769 0)
(-0.219177 -0.0620152 0)
(-0.217459 -0.0336926 0)
(-0.217443 -0.00595847 0)
(0.999649 -0.000943087 0)
(0.996074 -0.00291701 0)
(0.987566 -0.00507654 0)
(0.976271 -0.00757916 0)
(0.956629 -0.0105561 0)
(0.935864 -0.0143037 0)
(0.897727 -0.0189626 0)
(0.866231 -0.0252357 0)
(0.791232 -0.0327578 0)
(0.757677 -0.043962 0)
(0.594299 -0.0532226 0)
(0.653022 -0.0784584 0)
(0.274218 -0.0456232 0)
(0.293922 -0.0416881 0)
(0.219633 -0.0403066 0)
(0.149347 -0.0333421 0)
(0.0994903 -0.0239663 0)
(0.064632 -0.015435 0)
(0.0446044 -0.00876994 0)
(0.0244454 -0.00333424 0)
(0.0423985 -0.0127991 0)
(-0.00268222 -0.0186019 0)
(-0.0192233 -0.0202331 0)
(-0.0452525 -0.0211586 0)
(-0.0667251 -0.0223701 0)
(-0.0862499 -0.0238698 0)
(-0.104004 -0.0254631 0)
(-0.1202 -0.0268634 0)
(-0.135039 -0.0277602 0)
(-0.148708 -0.0278224 0)
(-0.161353 -0.0267206 0)
(-0.173097 -0.0241415 0)
(-0.184048 -0.0198219 0)
(-0.194286 -0.0135567 0)
(-0.20381 -0.00520925 0)
(-0.21266 0.00512437 0)
(-0.22095 0.0171576 0)
(-0.228682 0.0306369 0)
(-0.235835 0.0450196 0)
(-0.242418 0.0596014 0)
(-0.248464 0.0735583 0)
(-0.254018 0.0859934 0)
(-0.259128 0.0959922 0)
(-0.263856 0.102701 0)
(-0.268257 0.105397 0)
(-0.272353 0.10352 0)
(-0.276132 0.0967475 0)
(-0.279525 0.0850768 0)
(-0.28242 0.068815 0)
(-0.284713 0.0485209 0)
(-0.286388 0.0251334 0)
(-0.28745 -7.73157e-05 0)
(-0.287895 -0.0254023 0)
(-0.287715 -0.0491362 0)
(-0.286957 -0.0697105 0)
(-0.285736 -0.085999 0)
(-0.284198 -0.0974524 0)
(-0.28245 -0.103908 0)
(-0.280513 -0.105023 0)
(-0.278401 -0.0996547 0)
(-0.276308 -0.0858845 0)
(-0.274559 -0.0625216 0)
(-0.273508 -0.0323783 0)
(-0.273503 -0.00522171 0)
(0.999649 0.000946222 0)
(0.996075 0.00288951 0)
(0.987567 0.00498619 0)
(0.976272 0.00739911 0)
(0.956629 0.0102635 0)
(0.935864 0.0138807 0)
(0.897726 0.0183974 0)
(0.866231 0.0245182 0)
(0.791229 0.0318984 0)
(0.757678 0.0429386 0)
(0.594296 0.0521421 0)
(0.65304 0.0770964 0)
(0.274229 0.0449946 0)
(0.293947 0.0413996 0)
(0.219663 0.0401451 0)
(0.149375 0.033249 0)
(0.0995109 0.0239098 0)
(0.0646394 0.0153728 0)
(0.0445613 0.00864178 0)
(0.02443 0.00257523 0)
(0.0418633 0.00405746 0)
(-0.00386906 0.00617829 0)
(-0.0207647 0.00493431 0)
(-0.0471193 0.00229185 0)
(-0.0689406 -0.000991172 0)
(-0.0887535 -0.00442819 0)
(-0.106729 -0.00773775 0)
(-0.123079 -0.0106664 0)
(-0.138021 -0.0129139 0)
(-0.151739 -0.0141586 0)
(-0.164373 -0.0140823 0)
(-0.176039 -0.0124053 0)
(-0.186824 -0.00889204 0)
(-0.196755 -0.00337094 0)
(-0.205906 0.00424694 0)
(-0.214343 0.0138363 0)
(-0.222064 0.0252065 0)
(-0.229076 0.0380214 0)
(-0.235377 0.0517488 0)
(-0.240975 0.0656981 0)
(-0.245894 0.0790584 0)
(-0.250183 0.0909475 0)
(-0.253898 0.10046 0)
(-0.257091 0.106732 0)
(-0.259818 0.10902 0)
(-0.262125 0.106769 0)
(-0.264033 0.0996531 0)
(-0.265528 0.0876234 0)
(-0.266595 0.0709222 0)
(-0.267237 0.0501119 0)
(-0.267461 0.0261318 0)
(-0.267279 0.000349868 0)
(-0.266631 -0.0256142 0)
(-0.265492 -0.0499828 0)
(-0.263828 -0.0711059 0)
(-0.26172 -0.0877431 0)
(-0.259432 -0.099247 0)
(-0.257385 -0.105486 0)
(-0.255949 -0.106317 0)
(-0.255084 -0.100854 0)
(-0.254205 -0.0872432 0)
(-0.25241 -0.0640886 0)
(-0.249369 -0.0339082 0)
(-0.24636 -0.00599794 0)
(0.999657 0.00276655 0)
(0.996366 0.00852484 0)
(0.98835 0.0146834 0)
(0.977986 0.0219203 0)
(0.95948 0.0302167 0)
(0.940781 0.041197 0)
(0.904682 0.053862 0)
(0.877386 0.0729652 0)
(0.805049 0.0927502 0)
(0.778953 0.129483 0)
(0.615621 0.152248 0)
(0.684279 0.237669 0)
(0.291085 0.14376 0)
(0.300342 0.112378 0)
(0.215916 0.0965495 0)
(0.140367 0.077913 0)
(0.0901041 0.0570011 0)
(0.0568532 0.0378122 0)
(0.0380376 0.021985 0)
(0.020276 0.00753008 0)
(0.0327015 0.0203361 0)
(-0.00674955 0.0291981 0)
(-0.0192373 0.0279275 0)
(-0.0404576 0.0236557 0)
(-0.0577555 0.0184615 0)
(-0.073451 0.013214 0)
(-0.0876837 0.00826831 0)
(-0.100593 0.00389095 0)
(-0.112298 0.000372291 0)
(-0.122936 -0.00199378 0)
(-0.132628 -0.00291735 0)
(-0.141471 -0.00214125 0)
(-0.149522 0.000549981 0)
(-0.156806 0.00529188 0)
(-0.163346 0.0120984 0)
(-0.169163 0.0209187 0)
(-0.174249 0.0315426 0)
(-0.178592 0.0436068 0)
(-0.182181 0.0565856 0)
(-0.185008 0.0698033 0)
(-0.187086 0.0824632 0)
(-0.188456 0.0936983 0)
(-0.189187 0.10263 0)
(-0.189324 0.108407 0)
(-0.188932 0.11027 0)
(-0.188071 0.107641 0)
(-0.186814 0.100176 0)
(-0.185187 0.087802 0)
(-0.183236 0.0707506 0)
(-0.181024 0.0496106 0)
(-0.178629 0.0253326 0)
(-0.176127 -0.000834307 0)
(-0.173455 -0.0271972 0)
(-0.170683 -0.0520243 0)
(-0.167782 -0.0736224 0)
(-0.164698 -0.0905984 0)
(-0.16153 -0.102 0)
(-0.158597 -0.10749 0)
(-0.156482 -0.107164 0)
(-0.155425 -0.101002 0)
(-0.154902 -0.0881534 0)
(-0.15335 -0.0672639 0)
(-0.148807 -0.0390272 0)
(-0.142119 -0.00903125 0)
(0.999691 0.00442478 0)
(0.996875 0.0135914 0)
(0.989899 0.0234645 0)
(0.98106 0.0348516 0)
(0.965128 0.0481963 0)
(0.949469 0.0650206 0)
(0.918933 0.0857695 0)
(0.896698 0.113847 0)
(0.836154 0.148919 0)
(0.815048 0.20101 0)
(0.672776 0.25675 0)
(0.734453 0.383803 0)
(0.311795 0.266316 0)
(0.300178 0.253431 0)
(0.207846 0.229747 0)
(0.129002 0.178927 0)
(0.0784956 0.122521 0)
(0.0468175 0.076236 0)
(0.0289542 0.0427713 0)
(0.0141905 0.0164846 0)
(0.0193527 0.0359716 0)
(-0.00752456 0.0468118 0)
(-0.011065 0.0435037 0)
(-0.0221056 0.0379824 0)
(-0.0305565 0.0315337 0)
(-0.0382697 0.0250454 0)
(-0.0452527 0.0189226 0)
(-0.0515214 0.0135017 0)
(-0.0571166 0.0090714 0)
(-0.062085 0.00589043 0)
(-0.0664566 0.00420996 0)
(-0.0702487 0.004272 0)
(-0.0734645 0.00626461 0)
(-0.0760897 0.010299 0)
(-0.0781002 0.016403 0)
(-0.0794722 0.0245059 0)
(-0.0801751 0.0343939 0)
(-0.0801737 0.0456997 0)
(-0.0794379 0.0579031 0)
(-0.0779416 0.0703479 0)
(-0.0756807 0.0822658 0)
(-0.0726513 0.0928015 0)
(-0.0689443 0.10109 0)
(-0.0645569 0.106314 0)
(-0.0595671 0.107718 0)
(-0.0540774 0.104697 0)
(-0.0482067 0.0968896 0)
(-0.0419892 0.084231 0)
(-0.0355486 0.0669595 0)
(-0.0290411 0.0456794 0)
(-0.022723 0.0213929 0)
(-0.0166184 -0.00469723 0)
(-0.0107776 -0.0308894 0)
(-0.00558187 -0.0555696 0)
(-0.0011884 -0.0771356 0)
(0.0025147 -0.0941733 0)
(0.00565539 -0.105601 0)
(0.00842396 -0.110787 0)
(0.0106423 -0.109578 0)
(0.012283 -0.102147 0)
(0.0135172 -0.0889546 0)
(0.0148732 -0.0699682 0)
(0.0192124 -0.0459074 0)
(0.0271523 -0.0175763 0)
(0.999688 0.00579765 0)
(0.997668 0.0178634 0)
(0.991812 0.0306765 0)
(0.985583 0.0456658 0)
(0.972054 0.0624972 0)
(0.962557 0.0848702 0)
(0.935495 0.109396 0)
(0.928537 0.148853 0)
(0.869135 0.18409 0)
(0.891885 0.271499 0)
(0.724636 0.300934 0)
(0.910781 0.589738 0)
(0.333047 0.393755 0)
(0.237426 0.238024 0)
(0.118186 0.178018 0)
(0.0550667 0.134523 0)
(0.029388 0.0929814 0)
(0.0175326 0.0607329 0)
(0.0112576 0.0365955 0)
(0.005256 0.0163908 0)
(0.00854563 0.0438669 0)
(0.0123365 0.0545706 0)
(0.0225509 0.0508878 0)
(0.0262368 0.0445757 0)
(0.0293179 0.0368038 0)
(0.0318435 0.0291044 0)
(0.0339858 0.0221394 0)
(0.0358606 0.0161086 0)
(0.0375706 0.0111508 0)
(0.0392286 0.00747768 0)
(0.0409602 0.00533675 0)
(0.0428741 0.00497546 0)
(0.0450666 0.00653747 0)
(0.0476582 0.0100625 0)
(0.0507712 0.0155917 0)
(0.0544944 0.0230634 0)
(0.0588966 0.0322704 0)
(0.064048 0.0428514 0)