/*--------------------------------*- C++ -*----------------------------------*\
  =========                 |
  \\      /  F ield         | OpenFOAM: The Open Source CFD Toolbox
   \\    /   O peration     | Website:  https://openfoam.org
    \\  /    A nd           | Version:  10
     \\/     M anipulation  |
\*---------------------------------------------------------------------------*/
FoamFile
{
    format      ascii;
    class       volVectorField;
    location    "11400";
    object      Ub;
}
// * * * * * * * * * * * * * * * * * * * * * * * * * * * * * * * * * * * * * //

dimensions      [0 1 -1 0 0 0 0];

internalField   nonuniform List<vector> 
6400
(
(-4.62738e-21 -9.87899e-16 0)
(-1.39117e-20 -9.87899e-16 0)
(-2.32856e-20 -9.87899e-16 0)
(-3.28116e-20 -9.87899e-16 0)
(-4.25565e-20 -9.87899e-16 0)
(-5.25937e-20 -9.87899e-16 0)
(-6.30057e-20 -9.87899e-16 0)
(-7.38873e-20 -9.87899e-16 0)
(-8.53504e-20 -9.87899e-16 0)
(-9.75292e-20 -9.87899e-16 0)
(-1.10589e-19 -9.87899e-16 0)
(-1.24738e-19 -9.87899e-16 0)
(-1.40244e-19 -9.87898e-16 0)
(-1.57462e-19 -9.87898e-16 0)
(-1.76875e-19 -9.87898e-16 0)
(-1.99168e-19 -9.87898e-16 0)
(-2.25347e-19 -9.87897e-16 0)
(-2.56963e-19 -9.87897e-16 0)
(-2.96528e-19 -9.87896e-16 0)
(-3.48044e-19 -9.87894e-16 0)
(-4.56325e-19 -9.87893e-16 0)
(-6.03033e-08 -1.0851e-15 0)
(-8.12162e-05 -2.48468e-05 0)
(-0.000172979 9.49023e-07 0)
(-0.000186156 1.33732e-07 0)
(-0.000187114 -5.24317e-07 0)
(-0.000182156 -8.34259e-07 0)
(-0.000173962 -1.08021e-06 0)
(-0.000171608 4.09293e-07 0)
(-0.000173434 -1.95607e-07 0)
(-0.000169286 -7.80907e-07 0)
(-0.000161678 -8.8145e-07 0)
(-0.000154404 -1.51498e-06 0)
(-0.000146862 -2.03045e-06 0)
(-0.000136594 -2.75875e-06 0)
(-0.000122538 -3.7594e-06 0)
(-0.000103645 -4.96832e-06 0)
(-7.93651e-05 -6.22141e-06 0)
(-5.00452e-05 -7.27199e-06 0)
(-1.71181e-05 -7.87024e-06 0)
(1.71181e-05 -7.87024e-06 0)
(5.00452e-05 -7.27199e-06 0)
(7.93651e-05 -6.22141e-06 0)
(0.000103645 -4.96832e-06 0)
(0.000122538 -3.7594e-06 0)
(0.000136594 -2.75875e-06 0)
(0.000146862 -2.03045e-06 0)
(0.000154404 -1.51498e-06 0)
(0.000161678 -8.8145e-07 0)
(0.000169286 -7.80907e-07 0)
(0.000173434 -1.95607e-07 0)
(0.000171608 4.09293e-07 0)
(0.000173962 -1.08021e-06 0)
(0.000182156 -8.34259e-07 0)
(0.000187114 -5.24317e-07 0)
(0.000186156 1.33732e-07 0)
(0.000172979 9.49023e-07 0)
(8.12162e-05 -2.48468e-05 0)
(6.03033e-08 -1.0851e-15 0)
(4.56325e-19 -9.87893e-16 0)
(3.48044e-19 -9.87894e-16 0)
(2.96528e-19 -9.87896e-16 0)
(2.56963e-19 -9.87897e-16 0)
(2.25347e-19 -9.87897e-16 0)
(1.99168e-19 -9.87898e-16 0)
(1.76875e-19 -9.87898e-16 0)
(1.57462e-19 -9.87898e-16 0)
(1.40244e-19 -9.87898e-16 0)
(1.24738e-19 -9.87899e-16 0)
(1.10589e-19 -9.87899e-16 0)
(9.75292e-20 -9.87899e-16 0)
(8.53504e-20 -9.87899e-16 0)
(7.38873e-20 -9.87899e-16 0)
(6.30057e-20 -9.87899e-16 0)
(5.25937e-20 -9.87899e-16 0)
(4.25565e-20 -9.87899e-16 0)
(3.28116e-20 -9.87899e-16 0)
(2.32856e-20 -9.87899e-16 0)
(1.39117e-20 -9.87899e-16 0)
(4.62738e-21 -9.87899e-16 0)
(-4.62608e-21 -9.87896e-16 0)
(-1.39078e-20 -9.87896e-16 0)
(-2.3279e-20 -9.87896e-16 0)
(-3.2802e-20 -9.87895e-16 0)
(-4.25437e-20 -9.87895e-16 0)
(-5.25773e-20 -9.87895e-16 0)
(-6.29851e-20 -9.87895e-16 0)
(-7.38619e-20 -9.87895e-16 0)
(-8.53191e-20 -9.87895e-16 0)
(-9.74907e-20 -9.87895e-16 0)
(-1.10542e-19 -9.87894e-16 0)
(-1.24679e-19 -9.87894e-16 0)
(-1.40169e-19 -9.87893e-16 0)
(-1.57366e-19 -9.87893e-16 0)
(-1.7675e-19 -9.87892e-16 0)
(-1.98999e-19 -9.87891e-16 0)
(-2.25111e-19 -9.8789e-16 0)
(-2.56618e-19 -9.87888e-16 0)
(-2.9601e-19 -9.87885e-16 0)
(-3.47492e-19 -9.8788e-16 0)
(-4.19353e-19 -9.87875e-16 0)
(-1.32105e-18 -9.87914e-16 0)
(-4.66159e-07 -1.82172e-15 0)
(-8.4723e-05 1.54789e-06 0)
(-0.000173883 1.25923e-06 0)
(-0.000178566 -1.17966e-06 0)
(-0.000175003 -2.27696e-06 0)
(-0.00016738 -3.18866e-06 0)
(-0.000165587 1.50241e-06 0)
(-0.000168067 -4.74626e-07 0)
(-0.000164151 -2.31008e-06 0)
(-0.000156987 -2.57532e-06 0)
(-0.000150237 -4.53379e-06 0)
(-0.000143116 -6.09853e-06 0)
(-0.000133405 -8.32199e-06 0)
(-0.000120002 -1.14092e-05 0)
(-0.000101784 -1.51571e-05 0)
(-7.81378e-05 -1.90577e-05 0)
(-4.93632e-05 -2.23374e-05 0)
(-1.69008e-05 -2.42058e-05 0)
(1.69008e-05 -2.42058e-05 0)
(4.93632e-05 -2.23374e-05 0)
(7.81378e-05 -1.90577e-05 0)
(0.000101784 -1.51571e-05 0)
(0.000120002 -1.14092e-05 0)
(0.000133405 -8.32199e-06 0)
(0.000143116 -6.09853e-06 0)
(0.000150237 -4.53379e-06 0)
(0.000156987 -2.57532e-06 0)
(0.000164151 -2.31008e-06 0)
(0.000168067 -4.74626e-07 0)
(0.000165587 1.50241e-06 0)
(0.00016738 -3.18866e-06 0)
(0.000175003 -2.27696e-06 0)
(0.000178566 -1.17966e-06 0)
(0.000173883 1.25923e-06 0)
(8.4723e-05 1.54789e-06 0)
(4.66159e-07 -1.82172e-15 0)
(1.32105e-18 -9.87914e-16 0)
(4.19353e-19 -9.87875e-16 0)
(3.47492e-19 -9.8788e-16 0)
(2.9601e-19 -9.87885e-16 0)
(2.56618e-19 -9.87888e-16 0)
(2.25111e-19 -9.8789e-16 0)
(1.98999e-19 -9.87891e-16 0)
(1.7675e-19 -9.87892e-16 0)
(1.57366e-19 -9.87893e-16 0)
(1.40169e-19 -9.87893e-16 0)
(1.24679e-19 -9.87894e-16 0)
(1.10542e-19 -9.87894e-16 0)
(9.74907e-20 -9.87895e-16 0)
(8.53191e-20 -9.87895e-16 0)
(7.38619e-20 -9.87895e-16 0)
(6.29851e-20 -9.87895e-16 0)
(5.25773e-20 -9.87895e-16 0)
(4.25437e-20 -9.87895e-16 0)
(3.2802e-20 -9.87895e-16 0)
(2.3279e-20 -9.87896e-16 0)
(1.39078e-20 -9.87896e-16 0)
(4.62608e-21 -9.87896e-16 0)
(-4.62314e-21 -9.87893e-16 0)
(-1.38989e-20 -9.87893e-16 0)
(-2.32638e-20 -9.87893e-16 0)
(-3.27803e-20 -9.87893e-16 0)
(-4.25146e-20 -9.87893e-16 0)
(-5.254e-20 -9.87893e-16 0)
(-6.29384e-20 -9.87893e-16 0)
(-7.3804e-20 -9.87892e-16 0)
(-8.52478e-20 -9.87892e-16 0)
(-9.7403e-20 -9.87892e-16 0)
(-1.10433e-19 -9.87891e-16 0)
(-1.24544e-19 -9.8789e-16 0)
(-1.39999e-19 -9.8789e-16 0)
(-1.57148e-19 -9.87889e-16 0)
(-1.76464e-19 -9.87887e-16 0)
(-1.98614e-19 -9.87885e-16 0)
(-2.24571e-19 -9.87883e-16 0)
(-2.55829e-19 -9.8788e-16 0)
(-2.94812e-19 -9.87874e-16 0)
(-3.45825e-19 -9.87866e-16 0)
(-4.19672e-19 -9.87854e-16 0)
(-5.88617e-19 -9.87846e-16 0)
(-7.99081e-19 -9.87494e-16 0)
(-1.46741e-07 -1.17843e-15 0)
(-8.22257e-05 9.39303e-07 0)
(-0.000167421 -1.42414e-06 0)
(-0.000168793 -3.68898e-06 0)
(-0.000161744 -5.69611e-06 0)
(-0.000160706 3.02693e-06 0)
(-0.000164454 -7.84272e-07 0)
(-0.000160544 -4.03902e-06 0)
(-0.000153806 -4.27069e-06 0)
(-0.000147786 -7.68152e-06 0)
(-0.000141207 -1.02909e-05 0)
(-0.000132268 -1.40615e-05 0)
(-0.000119713 -1.94391e-05 0)
(-0.000102192 -2.60402e-05 0)
(-7.89114e-05 -3.29785e-05 0)
(-5.00659e-05 -3.88533e-05 0)
(-1.71776e-05 -4.22001e-05 0)
(1.71776e-05 -4.22001e-05 0)
(5.00659e-05 -3.88533e-05 0)
(7.89114e-05 -3.29785e-05 0)
(0.000102192 -2.60402e-05 0)
(0.000119713 -1.94391e-05 0)
(0.000132268 -1.40615e-05 0)
(0.000141207 -1.02909e-05 0)
(0.000147786 -7.68152e-06 0)
(0.000153806 -4.27069e-06 0)
(0.000160544 -4.03902e-06 0)
(0.000164454 -7.84272e-07 0)
(0.000160706 3.02693e-06 0)
(0.000161744 -5.69611e-06 0)
(0.000168793 -3.68898e-06 0)
(0.000167421 -1.42414e-06 0)
(8.22257e-05 9.39303e-07 0)
(1.46741e-07 -1.17843e-15 0)
(7.99081e-19 -9.87494e-16 0)
(5.88617e-19 -9.87846e-16 0)
(4.19672e-19 -9.87854e-16 0)
(3.45825e-19 -9.87866e-16 0)
(2.94812e-19 -9.87874e-16 0)
(2.55829e-19 -9.8788e-16 0)
(2.24571e-19 -9.87883e-16 0)
(1.98614e-19 -9.87885e-16 0)
(1.76464e-19 -9.87887e-16 0)
(1.57148e-19 -9.87889e-16 0)
(1.39999e-19 -9.8789e-16 0)
(1.24544e-19 -9.8789e-16 0)
(1.10433e-19 -9.87891e-16 0)
(9.7403e-20 -9.87892e-16 0)
(8.52478e-20 -9.87892e-16 0)
(7.3804e-20 -9.87892e-16 0)
(6.29384e-20 -9.87893e-16 0)
(5.254e-20 -9.87893e-16 0)
(4.25146e-20 -9.87893e-16 0)
(3.27803e-20 -9.87893e-16 0)
(2.32638e-20 -9.87893e-16 0)
(1.38989e-20 -9.87893e-16 0)
(4.62314e-21 -9.87893e-16 0)
(-4.61806e-21 -9.87891e-16 0)
(-1.38835e-20 -9.87891e-16 0)
(-2.32377e-20 -9.87891e-16 0)
(-3.27427e-20 -9.87891e-16 0)
(-4.24645e-20 -9.87891e-16 0)
(-5.24757e-20 -9.8789e-16 0)
(-6.28578e-20 -9.8789e-16 0)
(-7.37043e-20 -9.8789e-16 0)
(-8.51251e-20 -9.87889e-16 0)
(-9.7252e-20 -9.87888e-16 0)
(-1.10247e-19 -9.87888e-16 0)
(-1.24311e-19 -9.87887e-16 0)
(-1.39706e-19 -9.87885e-16 0)
(-1.56772e-19 -9.87884e-16 0)
(-1.75972e-19 -9.87882e-16 0)
(-1.97952e-19 -9.87879e-16 0)
(-2.23647e-19 -9.87876e-16 0)
(-2.5448e-19 -9.87871e-16 0)
(-2.92744e-19 -9.87863e-16 0)
(-3.42566e-19 -9.87852e-16 0)
(-4.1406e-19 -9.87832e-16 0)
(-5.45272e-19 -9.87792e-16 0)
(-6.00046e-19 -9.87514e-16 0)
(-4.91458e-19 -9.87317e-16 0)
(-7.94988e-09 -9.91255e-16 0)
(-6.82161e-05 -6.65176e-07 0)
(-0.000148274 -2.22474e-06 0)
(-0.000154671 -8.78766e-06 0)
(-0.000155669 5.55881e-06 0)
(-0.000161845 -1.10127e-06 0)
(-0.000157691 -6.06437e-06 0)
(-0.000151459 -5.7907e-06 0)
(-0.000146503 -1.08933e-05 0)
(-0.000140643 -1.44192e-05 0)
(-0.000132878 -1.9713e-05 0)
(-0.000121586 -2.76813e-05 0)
(-0.000104969 -3.76335e-05 0)
(-8.18973e-05 -4.82834e-05 0)
(-5.23475e-05 -5.74171e-05 0)
(-1.80233e-05 -6.26102e-05 0)
(1.80233e-05 -6.26102e-05 0)
(5.23475e-05 -5.74171e-05 0)
(8.18973e-05 -4.82834e-05 0)
(0.000104969 -3.76335e-05 0)
(0.000121586 -2.76813e-05 0)
(0.000132878 -1.9713e-05 0)
(0.000140643 -1.44192e-05 0)
(0.000146503 -1.08933e-05 0)
(0.000151459 -5.7907e-06 0)
(0.000157691 -6.06437e-06 0)
(0.000161845 -1.10127e-06 0)
(0.000155669 5.55881e-06 0)
(0.000154671 -8.78766e-06 0)
(0.000148274 -2.22474e-06 0)
(6.82161e-05 -6.65176e-07 0)
(7.94988e-09 -9.91255e-16 0)
(4.91458e-19 -9.87317e-16 0)
(6.00046e-19 -9.87514e-16 0)
(5.45272e-19 -9.87792e-16 0)
(4.1406e-19 -9.87832e-16 0)
(3.42566e-19 -9.87852e-16 0)
(2.92744e-19 -9.87863e-16 0)
(2.5448e-19 -9.87871e-16 0)
(2.23647e-19 -9.87876e-16 0)
(1.97952e-19 -9.87879e-16 0)
(1.75972e-19 -9.87882e-16 0)
(1.56772e-19 -9.87884e-16 0)
(1.39706e-19 -9.87885e-16 0)
(1.24311e-19 -9.87887e-16 0)
(1.10247e-19 -9.87888e-16 0)
(9.7252e-20 -9.87888e-16 0)
(8.51251e-20 -9.87889e-16 0)
(7.37043e-20 -9.8789e-16 0)
(6.28578e-20 -9.8789e-16 0)
(5.24757e-20 -9.8789e-16 0)
(4.24645e-20 -9.87891e-16 0)
(3.27427e-20 -9.87891e-16 0)
(2.32377e-20 -9.87891e-16 0)
(1.38835e-20 -9.87891e-16 0)
(4.61806e-21 -9.87891e-16 0)
(-4.61028e-21 -9.87888e-16 0)
(-1.38599e-20 -9.87888e-16 0)
(-2.31978e-20 -9.87888e-16 0)
(-3.26851e-20 -9.87888e-16 0)
(-4.23876e-20 -9.87888e-16 0)
(-5.23772e-20 -9.87887e-16 0)
(-6.27344e-20 -9.87887e-16 0)
(-7.35516e-20 -9.87886e-16 0)
(-8.49372e-20 -9.87886e-16 0)
(-9.70209e-20 -9.87885e-16 0)
(-1.09961e-19 -9.87884e-16 0)
(-1.23956e-19 -9.87883e-16 0)
(-1.39259e-19 -9.87881e-16 0)
(-1.562e-19 -9.87879e-16 0)
(-1.75224e-19 -9.87876e-16 0)
(-1.96945e-19 -9.87873e-16 0)
(-2.22246e-19 -9.87868e-16 0)
(-2.5244e-19 -9.87861e-16 0)
(-2.89603e-19 -9.87851e-16 0)
(-3.37356e-19 -9.87836e-16 0)
(-4.034e-19 -9.87809e-16 0)
(-5.03495e-19 -9.8775e-16 0)
(-5.39715e-19 -9.87531e-16 0)
(-4.46262e-19 -9.87359e-16 0)
(-2.81929e-19 -9.87262e-16 0)
(-2.52682e-11 -9.85843e-16 0)
(-4.16627e-05 -4.90488e-08 0)
(-0.000109116 -5.25319e-06 0)
(-0.000147236 1.03373e-05 0)
(-0.000159579 -1.41781e-06 0)
(-0.000155096 -8.58959e-06 0)
(-0.000149639 -6.83777e-06 0)
(-0.000146226 -1.41983e-05 0)
(-0.000141237 -1.81772e-05 0)
(-0.000135331 -2.47643e-05 0)
(-0.000126042 -3.58004e-05 0)
(-0.000110768 -4.98565e-05 0)
(-8.78516e-05 -6.5355e-05 0)
(-5.6795e-05 -7.89381e-05 0)
(-1.96487e-05 -8.65944e-05 0)
(1.96487e-05 -8.65944e-05 0)
(5.6795e-05 -7.89381e-05 0)
(8.78516e-05 -6.5355e-05 0)
(0.000110768 -4.98565e-05 0)
(0.000126042 -3.58004e-05 0)
(0.000135331 -2.47643e-05 0)
(0.000141237 -1.81772e-05 0)
(0.000146226 -1.41983e-05 0)
(0.000149639 -6.83777e-06 0)
(0.000155096 -8.58959e-06 0)
(0.000159579 -1.41781e-06 0)
(0.000147236 1.03373e-05 0)
(0.000109116 -5.25319e-06 0)
(4.16627e-05 -4.90488e-08 0)
(2.52682e-11 -9.85843e-16 0)
(2.81929e-19 -9.87262e-16 0)
(4.46262e-19 -9.87359e-16 0)
(5.39715e-19 -9.87531e-16 0)
(5.03495e-19 -9.8775e-16 0)
(4.034e-19 -9.87809e-16 0)
(3.37356e-19 -9.87836e-16 0)
(2.89603e-19 -9.87851e-16 0)
(2.5244e-19 -9.87861e-16 0)
(2.22246e-19 -9.87868e-16 0)
(1.96945e-19 -9.87873e-16 0)
(1.75224e-19 -9.87876e-16 0)
(1.562e-19 -9.87879e-16 0)
(1.39259e-19 -9.87881e-16 0)
(1.23956e-19 -9.87883e-16 0)
(1.09961e-19 -9.87884e-16 0)
(9.70209e-20 -9.87885e-16 0)
(8.49372e-20 -9.87886e-16 0)
(7.35516e-20 -9.87886e-16 0)
(6.27344e-20 -9.87887e-16 0)
(5.23772e-20 -9.87887e-16 0)
(4.23876e-20 -9.87888e-16 0)
(3.26851e-20 -9.87888e-16 0)
(2.31978e-20 -9.87888e-16 0)
(1.38599e-20 -9.87888e-16 0)
(4.61028e-21 -9.87888e-16 0)
(-4.5991e-21 -9.87886e-16 0)
(-1.38261e-20 -9.87886e-16 0)
(-2.31403e-20 -9.87885e-16 0)
(-3.26024e-20 -9.87885e-16 0)
(-4.22773e-20 -9.87885e-16 0)
(-5.22358e-20 -9.87884e-16 0)
(-6.25573e-20 -9.87884e-16 0)
(-7.33326e-20 -9.87883e-16 0)
(-8.46678e-20 -9.87882e-16 0)
(-9.66897e-20 -9.87881e-16 0)
(-1.09553e-19 -9.8788e-16 0)
(-1.23448e-19 -9.87878e-16 0)
(-1.3862e-19 -9.87876e-16 0)
(-1.55383e-19 -9.87873e-16 0)
(-1.74158e-19 -9.8787e-16 0)
(-1.95517e-19 -9.87866e-16 0)
(-2.20265e-19 -9.8786e-16 0)
(-2.4957e-19 -9.87851e-16 0)
(-2.85198e-19 -9.87839e-16 0)
(-3.29982e-19 -9.8782e-16 0)
(-3.88619e-19 -9.87787e-16 0)
(-4.6347e-19 -9.87719e-16 0)
(-4.85308e-19 -9.87544e-16 0)
(-4.08077e-19 -9.87398e-16 0)
(-2.71518e-19 -9.87316e-16 0)
(-1.25966e-19 -9.87333e-16 0)
(-2.51627e-20 -9.87252e-16 0)
(-7.928e-07 -1.66653e-15 0)
(-7.33466e-05 6.75503e-06 0)
(-0.000150445 -7.86864e-07 0)
(-0.000150934 -1.18231e-05 0)
(-0.000147784 -6.76495e-06 0)
(-0.000146695 -1.79951e-05 0)
(-0.000142543 -2.09834e-05 0)
(-0.000139811 -2.81171e-05 0)
(-0.000133877 -4.31571e-05 0)
(-0.000120783 -6.23638e-05 0)
(-9.82128e-05 -8.46497e-05 0)
(-6.45193e-05 -0.000104911 0)
(-2.24349e-05 -0.000116014 0)
(2.24349e-05 -0.000116014 0)
(6.45193e-05 -0.000104911 0)
(9.82128e-05 -8.46497e-05 0)
(0.000120783 -6.23638e-05 0)
(0.000133877 -4.31571e-05 0)
(0.000139811 -2.81171e-05 0)
(0.000142543 -2.09834e-05 0)
(0.000146695 -1.79951e-05 0)
(0.000147784 -6.76495e-06 0)
(0.000150934 -1.18231e-05 0)
(0.000150445 -7.86864e-07 0)
(7.33466e-05 6.75503e-06 0)
(7.928e-07 -1.66653e-15 0)
(2.51627e-20 -9.87252e-16 0)
(1.25966e-19 -9.87333e-16 0)
(2.71518e-19 -9.87316e-16 0)
(4.08077e-19 -9.87398e-16 0)
(4.85308e-19 -9.87544e-16 0)
(4.6347e-19 -9.87719e-16 0)
(3.88619e-19 -9.87787e-16 0)
(3.29982e-19 -9.8782e-16 0)
(2.85198e-19 -9.87839e-16 0)
(2.4957e-19 -9.87851e-16 0)
(2.20265e-19 -9.8786e-16 0)
(1.95517e-19 -9.87866e-16 0)
(1.74158e-19 -9.8787e-16 0)
(1.55383e-19 -9.87873e-16 0)
(1.3862e-19 -9.87876e-16 0)
(1.23448e-19 -9.87878e-16 0)
(1.09553e-19 -9.8788e-16 0)
(9.66897e-20 -9.87881e-16 0)
(8.46678e-20 -9.87882e-16 0)
(7.33326e-20 -9.87883e-16 0)
(6.25573e-20 -9.87884e-16 0)
(5.22358e-20 -9.87884e-16 0)
(4.22773e-20 -9.87885e-16 0)
(3.26024e-20 -9.87885e-16 0)
(2.31403e-20 -9.87885e-16 0)
(1.38261e-20 -9.87886e-16 0)
(4.5991e-21 -9.87886e-16 0)
(-4.5837e-21 -9.87883e-16 0)
(-1.37795e-20 -9.87882e-16 0)
(-2.30612e-20 -9.87882e-16 0)
(-3.24886e-20 -9.87882e-16 0)
(-4.21253e-20 -9.87881e-16 0)
(-5.20411e-20 -9.87881e-16 0)
(-6.23135e-20 -9.8788e-16 0)
(-7.30312e-20 -9.87879e-16 0)
(-8.42973e-20 -9.87878e-16 0)
(-9.62347e-20 -9.87877e-16 0)
(-1.08992e-19 -9.87875e-16 0)
(-1.22751e-19 -9.87873e-16 0)
(-1.37745e-19 -9.87871e-16 0)
(-1.54267e-19 -9.87867e-16 0)
(-1.72706e-19 -9.87863e-16 0)
(-1.9358e-19 -9.87858e-16 0)
(-2.17595e-19 -9.87851e-16 0)
(-2.45732e-19 -9.87841e-16 0)
(-2.79367e-19 -9.87826e-16 0)
(-3.20382e-19 -9.87804e-16 0)
(-3.70636e-19 -9.87766e-16 0)
(-4.25355e-19 -9.87696e-16 0)
(-4.36447e-19 -9.87556e-16 0)
(-3.72671e-19 -9.87433e-16 0)
(-2.61086e-19 -9.87364e-16 0)
(-1.44662e-19 -9.87373e-16 0)
(-8.05493e-20 -9.87456e-16 0)
(-2.45008e-19 -9.8762e-16 0)
(-1.15494e-19 -9.69214e-16 0)
(-2.5692e-05 -8.02965e-10 0)
(-8.95901e-05 -6.81876e-06 0)
(-0.000138763 -3.17066e-06 0)
(-0.000145408 -2.38012e-05 0)
(-0.000142203 -2.13262e-05 0)
(-0.000146093 -2.7088e-05 0)
(-0.000146261 -4.8712e-05 0)
(-0.000136913 -7.40758e-05 0)
(-0.000115653 -0.000106562 0)
(-7.75832e-05 -0.000138085 0)
(-2.70165e-05 -0.000153972 0)
(2.70165e-05 -0.000153972 0)
(7.75832e-05 -0.000138085 0)
(0.000115653 -0.000106562 0)
(0.000136913 -7.40758e-05 0)
(0.000146261 -4.8712e-05 0)
(0.000146093 -2.7088e-05 0)
(0.000142203 -2.13262e-05 0)
(0.000145408 -2.38012e-05 0)
(0.000138763 -3.17066e-06 0)
(8.95901e-05 -6.81876e-06 0)
(2.5692e-05 -8.02965e-10 0)
(1.15494e-19 -9.69214e-16 0)
(2.45008e-19 -9.8762e-16 0)
(8.05493e-20 -9.87456e-16 0)
(1.44662e-19 -9.87373e-16 0)
(2.61086e-19 -9.87364e-16 0)
(3.72671e-19 -9.87433e-16 0)
(4.36447e-19 -9.87556e-16 0)
(4.25355e-19 -9.87696e-16 0)
(3.70636e-19 -9.87766e-16 0)
(3.20382e-19 -9.87804e-16 0)
(2.79367e-19 -9.87826e-16 0)
(2.45732e-19 -9.87841e-16 0)
(2.17595e-19 -9.87851e-16 0)
(1.9358e-19 -9.87858e-16 0)
(1.72706e-19 -9.87863e-16 0)
(1.54267e-19 -9.87867e-16 0)
(1.37745e-19 -9.87871e-16 0)
(1.22751e-19 -9.87873e-16 0)
(1.08992e-19 -9.87875e-16 0)
(9.62347e-20 -9.87877e-16 0)
(8.42973e-20 -9.87878e-16 0)
(7.30312e-20 -9.87879e-16 0)
(6.23135e-20 -9.8788e-16 0)
(5.20411e-20 -9.87881e-16 0)
(4.21253e-20 -9.87881e-16 0)
(3.24886e-20 -9.87882e-16 0)
(2.30612e-20 -9.87882e-16 0)
(1.37795e-20 -9.87882e-16 0)
(4.5837e-21 -9.87883e-16 0)
(-4.56307e-21 -9.87879e-16 0)
(-1.37171e-20 -9.87879e-16 0)
(-2.29552e-20 -9.87879e-16 0)
(-3.23361e-20 -9.87878e-16 0)
(-4.1922e-20 -9.87878e-16 0)
(-5.17807e-20 -9.87877e-16 0)
(-6.19876e-20 -9.87876e-16 0)
(-7.26286e-20 -9.87875e-16 0)
(-8.38029e-20 -9.87874e-16 0)
(-9.56279e-20 -9.87872e-16 0)
(-1.08245e-19 -9.8787e-16 0)
(-1.21825e-19 -9.87868e-16 0)
(-1.36584e-19 -9.87865e-16 0)
(-1.52792e-19 -9.87861e-16 0)
(-1.70795e-19 -9.87856e-16 0)
(-1.91043e-19 -9.8785e-16 0)
(-2.14125e-19 -9.87841e-16 0)
(-2.408e-19 -9.8783e-16 0)
(-2.72003e-19 -9.87813e-16 0)
(-3.08639e-19 -9.87788e-16 0)
(-3.50326e-19 -9.87748e-16 0)
(-3.89279e-19 -9.8768e-16 0)
(-3.92686e-19 -9.87567e-16 0)
(-3.40115e-19 -9.87465e-16 0)
(-2.50279e-19 -9.87406e-16 0)
(-1.58298e-19 -9.87408e-16 0)
(-1.11355e-19 -9.87462e-16 0)
(-1.83566e-19 -9.87528e-16 0)
(-7.42699e-20 -9.87202e-16 0)
(1.24598e-19 -9.87389e-16 0)
(-1.43504e-12 -8.41987e-16 0)
(-2.95831e-05 -2.50704e-09 0)
(-8.1262e-05 -1.37493e-05 0)
(-0.000116742 -1.03001e-05 0)
(-0.000145242 -1.24978e-05 0)
(-0.00016099 -5.07478e-05 0)
(-0.000160212 -8.09565e-05 0)
(-0.000144966 -0.000130423 0)
(-9.98103e-05 -0.000184397 0)
(-3.42454e-05 -0.000205601 0)
(3.42454e-05 -0.000205601 0)
(9.98103e-05 -0.000184397 0)
(0.000144966 -0.000130423 0)
(0.000160212 -8.09565e-05 0)
(0.00016099 -5.07478e-05 0)
(0.000145242 -1.24978e-05 0)
(0.000116742 -1.03001e-05 0)
(8.1262e-05 -1.37493e-05 0)
(2.95831e-05 -2.50704e-09 0)
(1.43504e-12 -8.41987e-16 0)
(-1.24598e-19 -9.87389e-16 0)
(7.42699e-20 -9.87202e-16 0)
(1.83566e-19 -9.87528e-16 0)
(1.11355e-19 -9.87462e-16 0)
(1.58298e-19 -9.87408e-16 0)
(2.50279e-19 -9.87406e-16 0)
(3.40115e-19 -9.87465e-16 0)
(3.92686e-19 -9.87567e-16 0)
(3.89279e-19 -9.8768e-16 0)
(3.50326e-19 -9.87748e-16 0)
(3.08639e-19 -9.87788e-16 0)
(2.72003e-19 -9.87813e-16 0)
(2.408e-19 -9.8783e-16 0)
(2.14125e-19 -9.87841e-16 0)
(1.91043e-19 -9.8785e-16 0)
(1.70795e-19 -9.87856e-16 0)
(1.52792e-19 -9.87861e-16 0)
(1.36584e-19 -9.87865e-16 0)
(1.21825e-19 -9.87868e-16 0)
(1.08245e-19 -9.8787e-16 0)
(9.56279e-20 -9.87872e-16 0)
(8.38029e-20 -9.87874e-16 0)
(7.26286e-20 -9.87875e-16 0)
(6.19876e-20 -9.87876e-16 0)
(5.17807e-20 -9.87877e-16 0)
(4.1922e-20 -9.87878e-16 0)
(3.23361e-20 -9.87878e-16 0)
(2.29552e-20 -9.87879e-16 0)
(1.37171e-20 -9.87879e-16 0)
(4.56307e-21 -9.87879e-16 0)
(-4.53606e-21 -9.87875e-16 0)
(-1.36353e-20 -9.87875e-16 0)
(-2.28165e-20 -9.87875e-16 0)
(-3.21366e-20 -9.87875e-16 0)
(-4.16559e-20 -9.87874e-16 0)
(-5.14401e-20 -9.87873e-16 0)
(-6.15617e-20 -9.87872e-16 0)
(-7.21027e-20 -9.87871e-16 0)
(-8.31578e-20 -9.87869e-16 0)
(-9.48373e-20 -9.87867e-16 0)
(-1.07273e-19 -9.87865e-16 0)
(-1.20623e-19 -9.87862e-16 0)
(-1.35082e-19 -9.87859e-16 0)
(-1.5089e-19 -9.87854e-16 0)
(-1.68343e-19 -9.87849e-16 0)
(-1.87813e-19 -9.87841e-16 0)
(-2.09751e-19 -9.87832e-16 0)
(-2.34675e-19 -9.87819e-16 0)
(-2.63067e-19 -9.878e-16 0)
(-2.94961e-19 -9.87773e-16 0)
(-3.28482e-19 -9.87732e-16 0)
(-3.55326e-19 -9.87669e-16 0)
(-3.53531e-19 -9.87578e-16 0)
(-3.10293e-19 -9.87494e-16 0)
(-2.38764e-19 -9.87443e-16 0)
(-1.6614e-19 -9.87438e-16 0)
(-1.26321e-19 -9.87468e-16 0)
(-1.44851e-19 -9.87487e-16 0)
(-6.30382e-20 -9.8732e-16 0)
(6.21631e-20 -9.8745e-16 0)
(3.70248e-20 -9.87563e-16 0)
(6.35452e-20 -9.87408e-16 0)
(7.77921e-20 -8.78949e-16 0)
(-1.36451e-14 -7.89005e-16 0)
(-6.15105e-06 -2.68665e-11 0)
(-5.48052e-05 -2.53065e-05 0)
(-0.000141979 -4.11928e-05 0)
(-0.000184775 -0.000144936 0)
(-0.000135139 -0.000257837 0)
(-4.36891e-05 -0.000277678 0)
(4.36891e-05 -0.000277678 0)
(0.000135139 -0.000257837 0)
(0.000184775 -0.000144936 0)
(0.000141979 -4.11928e-05 0)
(5.48052e-05 -2.53065e-05 0)
(6.15105e-06 -2.68665e-11 0)
(1.36451e-14 -7.89005e-16 0)
(-7.77921e-20 -8.78949e-16 0)
(-6.35452e-20 -9.87408e-16 0)
(-3.70248e-20 -9.87563e-16 0)
(-6.21631e-20 -9.8745e-16 0)
(6.30382e-20 -9.8732e-16 0)
(1.44851e-19 -9.87487e-16 0)
(1.26321e-19 -9.87468e-16 0)
(1.6614e-19 -9.87438e-16 0)
(2.38764e-19 -9.87443e-16 0)
(3.10293e-19 -9.87494e-16 0)
(3.53531e-19 -9.87578e-16 0)
(3.55326e-19 -9.87669e-16 0)
(3.28482e-19 -9.87732e-16 0)
(2.94961e-19 -9.87773e-16 0)
(2.63067e-19 -9.878e-16 0)
(2.34675e-19 -9.87819e-16 0)
(2.09751e-19 -9.87832e-16 0)
(1.87813e-19 -9.87841e-16 0)
(1.68343e-19 -9.87849e-16 0)
(1.5089e-19 -9.87854e-16 0)
(1.35082e-19 -9.87859e-16 0)
(1.20623e-19 -9.87862e-16 0)
(1.07273e-19 -9.87865e-16 0)
(9.48373e-20 -9.87867e-16 0)
(8.31578e-20 -9.87869e-16 0)
(7.21027e-20 -9.87871e-16 0)
(6.15617e-20 -9.87872e-16 0)
(5.14401e-20 -9.87873e-16 0)
(4.16559e-20 -9.87874e-16 0)
(3.21366e-20 -9.87875e-16 0)
(2.28165e-20 -9.87875e-16 0)
(1.36353e-20 -9.87875e-16 0)
(4.53606e-21 -9.87875e-16 0)
(-4.50127e-21 -9.87871e-16 0)
(-1.353e-20 -9.87871e-16 0)
(-2.26379e-20 -9.87871e-16 0)
(-3.18798e-20 -9.8787e-16 0)
(-4.13138e-20 -9.8787e-16 0)
(-5.10024e-20 -9.87869e-16 0)
(-6.10147e-20 -9.87868e-16 0)
(-7.14283e-20 -9.87866e-16 0)
(-8.23315e-20 -9.87864e-16 0)
(-9.38265e-20 -9.87862e-16 0)
(-1.06033e-19 -9.87859e-16 0)
(-1.19094e-19 -9.87856e-16 0)
(-1.33179e-19 -9.87852e-16 0)
(-1.48491e-19 -9.87847e-16 0)
(-1.65272e-19 -9.87841e-16 0)
(-1.83802e-19 -9.87832e-16 0)
(-2.04387e-19 -9.87822e-16 0)
(-2.27299e-19 -9.87807e-16 0)
(-2.526e-19 -9.87788e-16 0)
(-2.7965e-19 -9.8776e-16 0)
(-3.05791e-19 -9.87719e-16 0)
(-3.23529e-19 -9.87662e-16 0)
(-3.18462e-19 -9.87588e-16 0)
(-2.82961e-19 -9.87519e-16 0)
(-2.26343e-19 -9.87475e-16 0)
(-1.68507e-19 -9.87464e-16 0)
(-1.31646e-19 -9.87476e-16 0)
(-1.21456e-19 -9.87475e-16 0)
(-5.89653e-20 -9.87395e-16 0)
(2.22547e-20 -9.87466e-16 0)
(2.48636e-20 -9.87537e-16 0)
(3.28816e-20 -9.87523e-16 0)
(3.29641e-20 -9.8761e-16 0)
(-1.80411e-20 -9.8762e-16 0)
(-2.783e-20 -9.87532e-16 0)
(-4.14359e-14 -9.63962e-16 0)
(-3.10428e-06 -1.23392e-09 0)
(-6.7957e-05 -8.74629e-05 0)
(-0.000106048 -0.000329244 0)
(-4.11955e-05 -0.000363433 0)
(4.11955e-05 -0.000363433 0)
(0.000106048 -0.000329244 0)
(6.7957e-05 -8.74629e-05 0)
(3.10428e-06 -1.23392e-09 0)
(4.14359e-14 -9.63962e-16 0)
(2.783e-20 -9.87532e-16 0)
(1.80411e-20 -9.8762e-16 0)
(-3.29641e-20 -9.8761e-16 0)
(-3.28816e-20 -9.87523e-16 0)
(-2.48636e-20 -9.87537e-16 0)
(-2.22547e-20 -9.87466e-16 0)
(5.89653e-20 -9.87395e-16 0)
(1.21456e-19 -9.87475e-16 0)
(1.31646e-19 -9.87476e-16 0)
(1.68507e-19 -9.87464e-16 0)
(2.26343e-19 -9.87475e-16 0)
(2.82961e-19 -9.87519e-16 0)
(3.18462e-19 -9.87588e-16 0)
(3.23529e-19 -9.87662e-16 0)
(3.05791e-19 -9.87719e-16 0)
(2.7965e-19 -9.8776e-16 0)
(2.526e-19 -9.87788e-16 0)
(2.27299e-19 -9.87807e-16 0)
(2.04387e-19 -9.87822e-16 0)
(1.83802e-19 -9.87832e-16 0)
(1.65272e-19 -9.87841e-16 0)
(1.48491e-19 -9.87847e-16 0)
(1.33179e-19 -9.87852e-16 0)
(1.19094e-19 -9.87856e-16 0)
(1.06033e-19 -9.87859e-16 0)
(9.38265e-20 -9.87862e-16 0)
(8.23315e-20 -9.87864e-16 0)
(7.14283e-20 -9.87866e-16 0)
(6.10147e-20 -9.87868e-16 0)
(5.10024e-20 -9.87869e-16 0)
(4.13138e-20 -9.8787e-16 0)
(3.18798e-20 -9.8787e-16 0)
(2.26379e-20 -9.87871e-16 0)
(1.353e-20 -9.87871e-16 0)
(4.50127e-21 -9.87871e-16 0)
(-4.45713e-21 -9.87867e-16 0)
(-1.33964e-20 -9.87867e-16 0)
(-2.24114e-20 -9.87866e-16 0)
(-3.15543e-20 -9.87866e-16 0)
(-4.08802e-20 -9.87865e-16 0)
(-5.04482e-20 -9.87864e-16 0)
(-6.03231e-20 -9.87863e-16 0)
(-7.05766e-20 -9.87861e-16 0)
(-8.12899e-20 -9.87859e-16 0)
(-9.25551e-20 -9.87856e-16 0)
(-1.04479e-19 -9.87853e-16 0)
(-1.17183e-19 -9.8785e-16 0)
(-1.30811e-19 -9.87845e-16 0)
(-1.45524e-19 -9.87839e-16 0)
(-1.61502e-19 -9.87832e-16 0)
(-1.78932e-19 -9.87823e-16 0)
(-1.97971e-19 -9.87812e-16 0)
(-2.18661e-19 -9.87796e-16 0)
(-2.4072e-19 -9.87776e-16 0)
(-2.63064e-19 -9.87748e-16 0)
(-2.82824e-19 -9.87709e-16 0)
(-2.93866e-19 -9.87658e-16 0)
(-2.86955e-19 -9.87597e-16 0)
(-2.5781e-19 -9.87541e-16 0)
(-2.12998e-19 -9.87502e-16 0)
(-1.66306e-19 -9.87487e-16 0)
(-1.31388e-19 -9.87487e-16 0)
(-1.07755e-19 -9.8748e-16 0)
(-5.87801e-20 -9.87444e-16 0)
(-3.54441e-21 -9.87483e-16 0)
(1.02881e-20 -9.87529e-16 0)
(1.4575e-20 -9.87538e-16 0)
(1.24742e-20 -9.87574e-16 0)
(-6.8242e-21 -9.87579e-16 0)
(-1.78574e-20 -9.87564e-16 0)
(-3.33662e-19 -9.87566e-16 0)
(-1.08743e-08 -1.19558e-14 0)
(-7.23118e-06 -2.07828e-05 0)
(-2.16793e-05 -0.000347064 0)
(-1.4459e-05 -0.000424421 0)
(1.4459e-05 -0.000424421 0)
(2.16793e-05 -0.000347064 0)
(7.23118e-06 -2.07828e-05 0)
(1.08743e-08 -1.19558e-14 0)
(3.33662e-19 -9.87566e-16 0)
(1.78574e-20 -9.87564e-16 0)
(6.8242e-21 -9.87579e-16 0)
(-1.24742e-20 -9.87574e-16 0)
(-1.4575e-20 -9.87538e-16 0)
(-1.02881e-20 -9.87529e-16 0)
(3.54441e-21 -9.87483e-16 0)
(5.87801e-20 -9.87444e-16 0)
(1.07755e-19 -9.8748e-16 0)
(1.31388e-19 -9.87487e-16 0)
(1.66306e-19 -9.87487e-16 0)
(2.12998e-19 -9.87502e-16 0)
(2.5781e-19 -9.87541e-16 0)
(2.86955e-19 -9.87597e-16 0)
(2.93866e-19 -9.87658e-16 0)
(2.82824e-19 -9.87709e-16 0)
(2.63064e-19 -9.87748e-16 0)
(2.4072e-19 -9.87776e-16 0)
(2.18661e-19 -9.87796e-16 0)
(1.97971e-19 -9.87812e-16 0)
(1.78932e-19 -9.87823e-16 0)
(1.61502e-19 -9.87832e-16 0)
(1.45524e-19 -9.87839e-16 0)
(1.30811e-19 -9.87845e-16 0)
(1.17183e-19 -9.8785e-16 0)
(1.04479e-19 -9.87853e-16 0)
(9.25551e-20 -9.87856e-16 0)
(8.12899e-20 -9.87859e-16 0)
(7.05766e-20 -9.87861e-16 0)
(6.03231e-20 -9.87863e-16 0)
(5.04482e-20 -9.87864e-16 0)
(4.08802e-20 -9.87865e-16 0)
(3.15543e-20 -9.87866e-16 0)
(2.24114e-20 -9.87866e-16 0)
(1.33964e-20 -9.87867e-16 0)
(4.45713e-21 -9.87867e-16 0)
(-4.40183e-21 -9.87862e-16 0)
(-1.32291e-20 -9.87862e-16 0)
(-2.21278e-20 -9.87862e-16 0)
(-3.11469e-20 -9.87861e-16 0)
(-4.03381e-20 -9.8786e-16 0)
(-4.97561e-20 -9.87859e-16 0)
(-5.94603e-20 -9.87857e-16 0)
(-6.95161e-20 -9.87855e-16 0)
(-7.99956e-20 -9.87853e-16 0)
(-9.09795e-20 -9.8785e-16 0)
(-1.02558e-19 -9.87847e-16 0)
(-1.14833e-19 -9.87843e-16 0)
(-1.27915e-19 -9.87838e-16 0)
(-1.41921e-19 -9.87831e-16 0)
(-1.56969e-19 -9.87824e-16 0)
(-1.73148e-19 -9.87814e-16 0)
(-1.9048e-19 -9.87801e-16 0)
(-2.08811e-19 -9.87785e-16 0)
(-2.27611e-19 -9.87765e-16 0)
(-2.45584e-19 -9.87737e-16 0)
(-2.60032e-19 -9.87701e-16 0)
(-2.66269e-19 -9.87657e-16 0)
(-2.58514e-19 -9.87606e-16 0)
(-2.34532e-19 -9.8756e-16 0)
(-1.98878e-19 -9.87526e-16 0)
(-1.60655e-19 -9.87509e-16 0)
(-1.28002e-19 -9.87502e-16 0)
(-9.96965e-20 -9.87494e-16 0)
(-6.02991e-20 -9.87478e-16 0)
(-2.04533e-20 -9.875e-16 0)
(-3.07302e-21 -9.87529e-16 0)
(2.44456e-21 -9.87543e-16 0)
(1.64126e-21 -9.87559e-16 0)
(-6.0303e-21 -9.87563e-16 0)
(-1.30299e-20 -9.87559e-16 0)
(-4.01194e-20 -9.87555e-16 0)
(-1.32415e-09 -2.20093e-15 0)
(-1.44494e-06 -1.21627e-05 0)
(-5.63215e-06 -0.000335914 0)
(-4.18853e-06 -0.00044726 0)
(4.18853e-06 -0.00044726 0)
(5.63215e-06 -0.000335914 0)
(1.44494e-06 -1.21627e-05 0)
(1.32415e-09 -2.20093e-15 0)
(4.01194e-20 -9.87555e-16 0)
(1.30299e-20 -9.87559e-16 0)
(6.0303e-21 -9.87563e-16 0)
(-1.64126e-21 -9.87559e-16 0)
(-2.44456e-21 -9.87543e-16 0)
(3.07302e-21 -9.87529e-16 0)
(2.04533e-20 -9.875e-16 0)
(6.02991e-20 -9.87478e-16 0)
(9.96965e-20 -9.87494e-16 0)
(1.28002e-19 -9.87502e-16 0)
(1.60655e-19 -9.87509e-16 0)
(1.98878e-19 -9.87526e-16 0)
(2.34532e-19 -9.8756e-16 0)
(2.58514e-19 -9.87606e-16 0)
(2.66269e-19 -9.87657e-16 0)
(2.60032e-19 -9.87701e-16 0)
(2.45584e-19 -9.87737e-16 0)
(2.27611e-19 -9.87765e-16 0)
(2.08811e-19 -9.87785e-16 0)
(1.9048e-19 -9.87801e-16 0)
(1.73148e-19 -9.87814e-16 0)
(1.56969e-19 -9.87824e-16 0)
(1.41921e-19 -9.87831e-16 0)
(1.27915e-19 -9.87838e-16 0)
(1.14833e-19 -9.87843e-16 0)
(1.02558e-19 -9.87847e-16 0)
(9.09795e-20 -9.8785e-16 0)
(7.99956e-20 -9.87853e-16 0)
(6.95161e-20 -9.87855e-16 0)
(5.94603e-20 -9.87857e-16 0)
(4.97561e-20 -9.87859e-16 0)
(4.03381e-20 -9.8786e-16 0)
(3.11469e-20 -9.87861e-16 0)
(2.21278e-20 -9.87862e-16 0)
(1.32291e-20 -9.87862e-16 0)
(4.40183e-21 -9.87862e-16 0)
(-4.33335e-21 -9.87857e-16 0)
(-1.3022e-20 -9.87857e-16 0)
(-2.17768e-20 -9.87856e-16 0)
(-3.06432e-20 -9.87856e-16 0)
(-3.96684e-20 -9.87855e-16 0)
(-4.89021e-20 -9.87853e-16 0)
(-5.83977e-20 -9.87851e-16 0)
(-6.82126e-20 -9.87849e-16 0)
(-7.8409e-20 -9.87847e-16 0)
(-8.90545e-20 -9.87844e-16 0)
(-1.00222e-19 -9.8784e-16 0)
(-1.11989e-19 -9.87835e-16 0)
(-1.24432e-19 -9.8783e-16 0)
(-1.37626e-19 -9.87823e-16 0)
(-1.51621e-19 -9.87815e-16 0)
(-1.66423e-19 -9.87804e-16 0)
(-1.81932e-19 -9.87792e-16 0)
(-1.97851e-19 -9.87775e-16 0)
(-2.13507e-19 -9.87754e-16 0)
(-2.27576e-19 -9.87728e-16 0)
(-2.37749e-19 -9.87696e-16 0)
(-2.40631e-19 -9.87657e-16 0)
(-2.32688e-19 -9.87615e-16 0)
(-2.12864e-19 -9.87577e-16 0)
(-1.84241e-19 -9.87547e-16 0)
(-1.52613e-19 -9.87529e-16 0)
(-1.22849e-19 -9.87519e-16 0)
(-9.45285e-20 -9.87511e-16 0)
(-6.21137e-20 -9.87504e-16 0)
(-3.15656e-20 -9.87516e-16 0)
(-1.38025e-20 -9.87534e-16 0)
(-5.98044e-21 -9.87546e-16 0)
(-4.26125e-21 -9.87554e-16 0)
(-6.28514e-21 -9.87556e-16 0)
(-8.48711e-21 -9.87554e-16 0)
(-1.36175e-20 -9.8755e-16 0)
(-2.20852e-10 -1.58668e-15 0)
(-3.9309e-07 -9.84667e-06 0)
(-2.41336e-06 -0.000329886 0)
(-2.02049e-06 -0.000455752 0)