/*--------------------------------*- C++ -*----------------------------------*\
  =========                 |
  \\      /  F ield         | OpenFOAM: The Open Source CFD Toolbox
   \\    /   O peration     | Website:  https://openfoam.org
    \\  /    A nd           | Version:  10
     \\/     M anipulation  |
\*---------------------------------------------------------------------------*/
FoamFile
{
    format      ascii;
    class       volScalarField;
    location    "1250";
    object      p;
}
// * * * * * * * * * * * * * * * * * * * * * * * * * * * * * * * * * * * * * //

dimensions      [1 -1 -2 0 0 0 0];

internalField   nonuniform List<scalar> 
3200
(
102.441
102.442
102.444
102.446
102.448
102.451
102.455
102.459
102.464
102.468
102.473
102.478
102.483
102.488
102.493
102.498
102.503
102.508
102.513
102.517
102.522
102.526
102.529
102.533
102.536
102.539
102.541
102.543
102.545
102.547
102.548
102.549
102.55
102.55
102.55
102.55
102.55
102.549
102.548
102.547
99.9873
99.988
99.9895
99.9917
99.9944
99.9977
100.001
100.006
100.01
100.015
100.02
100.025
100.03
100.035
100.041
100.046
100.051
100.056
100.061
100.065
100.07
100.074
100.078
100.081
100.085
100.088
100.09
100.092
100.094
100.096
100.097
100.098
100.099
100.1
100.1
100.099
100.099
100.098
100.097
100.096
97.5316
97.5324
97.534
97.5362
97.5391
97.5425
97.5465
97.5509
97.5556
97.5606
97.5659
97.5713
97.5768
97.5824
97.588
97.5935
97.599
97.6042
97.6093
97.6142
97.6189
97.6233
97.6274
97.6312
97.6346
97.6378
97.6406
97.6431
97.6452
97.647
97.6484
97.6495
97.6503
97.6508
97.651
97.6509
97.6505
97.6498
97.6488
97.6477
95.0742
95.0751
95.0768
95.0792
95.0823
95.086
95.0902
95.095
95.1001
95.1055
95.1112
95.117
95.123
95.1291
95.1351
95.1411
95.147
95.1527
95.1583
95.1636
95.1687
95.1735
95.178
95.1821
95.186
95.1894
95.1925
95.1953
95.1977
95.1997
95.2013
95.2026
95.2036
95.2042
95.2044
95.2044
95.204
95.2034
95.2024
95.2012
92.6151
92.616
92.6178
92.6205
92.6239
92.628
92.6326
92.6378
92.6434
92.6494
92.6556
92.6621
92.6687
92.6753
92.682
92.6887
92.6952
92.7015
92.7077
92.7137
92.7193
92.7247
92.7297
92.7344
92.7387
92.7426
92.7461
92.7493
92.752
92.7543
92.7562
92.7578
92.7589
92.7597
92.7601
92.7601
92.7598
92.7592
92.7583
92.7571
90.1539
90.1549
90.157
90.1599
90.1637
90.1682
90.1734
90.1792
90.1854
90.1921
90.1991
90.2063
90.2137
90.2212
90.2287
90.2362
90.2435
90.2507
90.2577
90.2644
90.2708
90.2769
90.2827
90.288
90.2929
90.2974
90.3015
90.3051
90.3083
90.311
90.3133
90.3152
90.3166
90.3176
90.3182
90.3183
90.3181
90.3176
90.3167
90.3154
87.6905
87.6917
87.694
87.6973
87.7015
87.7066
87.7125
87.719
87.726
87.7336
87.7415
87.7497
87.758
87.7665
87.7751
87.7836
87.792
87.8002
87.8082
87.8159
87.8233
87.8303
87.8369
87.8431
87.8488
87.8541
87.8589
87.8631
87.8669
87.8701
87.8729
87.8751
87.8769
87.8782
87.879
87.8793
87.8792
87.8787
87.8778
87.8766
85.2247
85.226
85.2286
85.2323
85.2371
85.2429
85.2496
85.257
85.265
85.2736
85.2826
85.2919
85.3015
85.3113
85.3211
85.3308
85.3405
85.35
85.3592
85.3682
85.3767
85.3849
85.3926
85.3999
85.4066
85.4128
85.4184
85.4235
85.428
85.4319
85.4352
85.438
85.4401
85.4418
85.4429
85.4434
85.4435
85.4431
85.4422
85.4409
82.756
82.7575
82.7605
82.7647
82.7702
82.7768
82.7844
82.7928
82.802
82.8119
82.8222
82.833
82.844
82.8552
82.8665
82.8778
82.889
82.9001
82.9108
82.9213
82.9313
82.9409
82.95
82.9585
82.9664
82.9738
82.9805
82.9865
82.9919
82.9966
83.0007
83.0041
83.0068
83.0089
83.0103
83.0112
83.0114
83.0111
83.0103
83.0089
80.2841
80.2858
80.2892
80.2941
80.3004
80.3079
80.3166
80.3263
80.3368
80.3482
80.3601
80.3725
80.3852
80.3982
80.4114
80.4245
80.4375
80.4504
80.463
80.4752
80.487
80.4983
80.5091
80.5192
80.5286
80.5374
80.5454
80.5526
80.5591
80.5649
80.5698
80.574
80.5773
80.58
80.5819
80.5831
80.5836
80.5834
80.5826
80.5812
77.8086
77.8106
77.8144
77.82
77.8272
77.8358
77.8458
77.8569
77.8691
77.8821
77.8958
77.9102
77.925
77.9401
77.9553
77.9706
77.9859
78.001
78.0157
78.0301
78.044
78.0574
78.0701
78.0821
78.0934
78.1039
78.1135
78.1223
78.1301
78.1371
78.1431
78.1482
78.1525
78.1558
78.1583
78.1599
78.1607
78.1607
78.1599
78.1584
75.3289
75.3311
75.3355
75.3419
75.3502
75.3601
75.3715
75.3843
75.3983
75.4133
75.4291
75.4457
75.4629
75.4804
75.4982
75.5161
75.5339
75.5516
75.569
75.5859
75.6024
75.6182
75.6334
75.6477
75.6612
75.6738
75.6854
75.6959
75.7055
75.714
75.7214
75.7277
75.7329
75.7371
75.7403
75.7425
75.7436
75.7438
75.7432
75.7416
72.8444
72.847
72.852
72.8593
72.8687
72.88
72.8931
72.9078
72.9239
72.9412
72.9595
72.9787
72.9985
73.0189
73.0396
73.0605
73.0814
73.1021
73.1226
73.1427
73.1622
73.181
73.199
73.2162
73.2324
73.2475
73.2615
73.2743
73.2859
73.2963
73.3054
73.3132
73.3198
73.325
73.3291
73.3319
73.3336
73.3341
73.3335
73.3319
70.3545
70.3574
70.3631
70.3714
70.3822
70.3951
70.4101
70.4269
70.4453
70.4652
70.4863
70.5084
70.5314
70.555
70.5791
70.6035
70.628
70.6524
70.6765
70.7002
70.7233
70.7457
70.7673
70.7878
70.8073
70.8256
70.8425
70.8581
70.8723
70.885
70.8963
70.906
70.9141
70.9208
70.9259
70.9296
70.9319
70.9328
70.9323
70.9306
67.8583
67.8617
67.8682
67.8776
67.8898
67.9045
67.9215
67.9407
67.9618
67.9846
68.0088
68.0343
68.0609
68.0883
68.1163
68.1447
68.1733
68.202
68.2304
68.2584
68.2859
68.3126
68.3383
68.363
68.3865
68.4086
68.4292
68.4483
68.4657
68.4813
68.4952
68.5073
68.5175
68.5259
68.5325
68.5373
68.5403
68.5417
68.5414
68.5396
65.3552
65.3589
65.3663
65.3769
65.3907
65.4074
65.4267
65.4485
65.4725
65.4985
65.5263
65.5556
65.5861
65.6178
65.6503
65.6834
65.7168
65.7504
65.7838
65.817
65.8496
65.8814
65.9123
65.942
65.9704
65.9972
66.0224
66.0457
66.0671
66.0865
66.1037
66.1188
66.1317
66.1423
66.1508
66.157
66.1611
66.1631
66.1631
66.1612
62.8441
62.8483
62.8565
62.8685
62.884
62.9028
62.9246
62.9493
62.9765
63.006
63.0377
63.0712
63.1063
63.1427
63.1802
63.2186
63.2576
63.2969
63.3362
63.3754
63.4141
63.4521
63.4891
63.5249
63.5593
63.5919
63.6228
63.6515
63.678
63.7021
63.7237
63.7427
63.759
63.7726
63.7835
63.7916
63.7971
63.8
63.8004
63.7983
60.3241
60.3288
60.338
60.3514
60.3687
60.3897
60.4142
60.4419
60.4726
60.506
60.5419
60.58
60.62
60.6618
60.705
60.7494
60.7946
60.8405
60.8866
60.9328
60.9787
61.024
61.0685
61.1117
61.1534
61.1934
61.2313
61.2668
61.2998
61.3301
61.3573
61.3814
61.4023
61.4198
61.4339
61.4447
61.4521
61.4561
61.457
61.4549
57.7942
57.7995
57.8096
57.8244
57.8437
57.8671
57.8943
57.9253
57.9596
57.9971
58.0375
58.0806
58.126
58.1736
58.2231
58.2741
58.3264
58.3798
58.4337
58.4881
58.5424
58.5964
58.6497
58.7019
58.7527
58.8017
58.8485
58.8928
58.9342
58.9724
59.0071
59.0381
59.0651
59.0879
59.1066
59.1209
59.1309
59.1367
59.1384
59.1361
55.2534
55.2591
55.2703
55.2866
55.3077
55.3335
55.3637
55.3979
55.4361
55.4779
55.523
55.5713
55.6226
55.6764
55.7327
55.791
55.8512
55.9128
55.9757
56.0393
56.1035
56.1677
56.2316
56.2947
56.3566
56.4168
56.4749
56.5303
56.5826
56.6314
56.6761
56.7163
56.7518
56.7822
56.8072
56.8267
56.8406
56.8489
56.8518
56.8494
52.7005
52.7067
52.7188
52.7366
52.7597
52.7879
52.8209
52.8585
52.9005
52.9466
52.9967
53.0504
53.1076
53.1681
53.2315
53.2977
53.3664
53.4372
53.5099
53.5841
53.6594
53.7354
53.8118
53.8879
53.9633
54.0375
54.1097
54.1795
54.2462
54.309
54.3673
54.4206
54.468
54.5092
54.5436
54.5708
54.5906
54.6029
54.6077
54.6052
50.1344
50.1412
50.1542
50.1734
50.1984
50.2289
50.2647
50.3055
50.3513
50.4017
50.4566
50.5158
50.5791
50.6462
50.7171
50.7914
50.869
50.9496
51.0329
51.1187
51.2065
51.2959
51.3867
51.4781
51.5698
51.661
51.7511
51.8393
51.9247
52.0065
52.0837
52.1552
52.2201
52.2774
52.3261
52.3655
52.3948
52.4137
52.4219
52.4197
47.5543
47.5615
47.5754
47.5959
47.6225
47.6552
47.6935
47.7375
47.7868
47.8412
47.9008
47.9652
48.0343
48.1081
48.1863
48.2688
48.3555
48.4461
48.5405
48.6385
48.7397
48.844
48.9508
49.0598
49.1704
49.2821
49.3941
49.5056
49.6155
49.7228
49.8261
49.924
50.0148
50.097
50.1688
50.2283
50.2742
50.3051
50.3201
50.319
44.9591
44.9666
44.9813
45.0029
45.0311
45.0656
45.1062
45.1528
45.2053
45.2634
45.3271
45.3963
45.4708
45.5507
45.6358
45.7261
45.8215
45.9219
46.0273
46.1376
46.2526
46.3723
46.4963
46.6244
46.7563
46.8915
47.0295
47.1695
47.3105
47.4513
47.5905
47.7261
47.8561
47.9778
48.0881
48.1837
48.261
48.3165
48.347
48.3503
42.3481
42.3559
42.3712
42.3937
42.423
42.459
42.5015
42.5503
42.6053
42.6665
42.7336
42.8068
42.8859
42.971
43.0621
43.1593
43.2624
43.3718
43.4873
43.609
43.7372
43.8717
44.0128
44.1603
44.3143
44.4748
44.6415
44.8141
44.9922
45.1749
45.3612
45.5493
45.737
45.9211
46.0974
46.2604
46.4029
46.5162
46.5902
46.6139
39.7205
39.7286
39.7443
39.7673
39.7975
39.8346
39.8783
39.9287
39.9856
40.0489
40.1186
40.1947
40.2773
40.3664
40.4621
40.5646
40.6739
40.7903
40.9141
41.0454
41.1845
41.3319
41.4879
41.6528
41.8272
42.0116
42.2064
42.4122
42.6296
42.8588
43.1003
43.3541
43.6195
43.8954
44.179
44.4654
44.7464
45.0086
45.2309
45.3808
37.0761
37.0842
37.1001
37.1235
37.154
37.1916
37.236
37.2872
37.345
37.4095
37.4806
37.5584
37.643
37.7345
37.833
37.9387
38.0519
38.1729
38.302
38.4396
38.5863
38.7425
38.909
39.0865
39.2758
39.4782
39.6949
39.9272
40.1771
40.4468
40.7387
41.0563
41.4032
41.7843
42.2054
42.673
43.1947
43.7776
44.4272
45.1429
34.4145
34.4226
34.4385
34.4618
34.4922
34.5297
34.5741
34.6252
34.683
34.7476
34.8188
34.8968
34.9817
35.0736
35.1728
35.2793
35.3936
35.516
35.6468
35.7866
35.9359
36.0954
36.2659
36.4484
36.6439
36.8537
37.0796
37.3233
37.5875
37.8749
38.1896
38.5365
38.9223
39.3563
39.8513
40.4263
41.1096
41.9442
42.998
46.2612
31.7359
31.7438
31.7594
31.7822
31.8122
31.849
31.8925
31.9427
31.9995
32.0629
32.1329
32.2095
32.293
32.3833
32.4808
32.5855
32.6978
32.8181
32.9467
33.084
33.2306
33.3871
33.5542
33.7328
33.9239
34.1285
34.3481
34.5841
34.8383
35.1128
35.4097
35.7316
36.0811
36.4607
36.8721
37.3155
37.7878
38.2786
38.8046
75.6678
29.0405
29.0482
29.0632
29.0852
29.1141
29.1496
29.1916
29.24
29.2948
29.3558
29.4232
29.497
29.5772
29.664
29.7575
29.8579
29.9653
30.0801
30.2025
30.3329
30.4717
30.6193
30.7762
30.9429
31.1202
31.3086
31.5089
31.722
31.9485
32.1894
32.4451
32.7161
33.0023
33.3029
33.616
33.9378
34.2624
34.5806
35.0285
59.3741
26.329
26.3363
26.3505
26.3714
26.3987
26.4324
26.4721
26.5179
26.5696
26.6273
26.6909
26.7603
26.8358
26.9172
27.0047
27.0985
27.1985
27.3049
27.418
27.5379
27.6647
27.7987
27.94
28.089
28.2458
28.4106
28.5837
28.7651
28.9549
29.1531
29.3595
29.5739
29.7958
30.0245
30.2591
30.4988
30.7428
30.9911
31.5996
49.7395
23.6021
23.6089
23.6221
23.6416
23.667
23.6982
23.7351
23.7775
23.8254
23.8787
23.9374
24.0014
24.0707
24.1453
24.2252
24.3105
24.4011
24.4971
24.5985
24.7052
24.8173
24.9348
25.0575
25.1853
25.3182
25.4558
25.598
25.7443
25.8944
26.0475
26.2032
26.3606
26.5191
26.6782
26.8374
26.997
27.1581
27.3231
28.1845
42.9962
20.8611
20.8672
20.8793
20.8969
20.92
20.9484
20.9819
21.0203
21.0637
21.1119
21.1648
21.2223
21.2845
21.3512
21.4224
21.498
21.5779
21.6621
21.7504
21.8427
21.9387
22.0383
22.1412
22.247
22.3553
22.4655
22.577
22.6892
22.801
22.9113
23.0191
23.1228
23.2209
23.3116
23.3932
23.4639
23.5227
23.5692
23.7911
35.2783
18.107
18.1125
18.1232
18.1389
18.1594
18.1845
18.2141
18.2482
18.2864
18.3289
18.3754
18.4258
18.4801
18.5382
18.5999
18.6652
18.7338
18.8056
18.8803
18.9578
19.0376
19.1196
19.2032
19.2879
19.3732
19.4584
19.5427
19.625
19.7043
19.7792
19.8482
19.9091
19.9595
19.9963
20.0151
20.0098
19.9718
19.8877
19.7371
19.6289
15.3414
15.3462
15.3554
15.3689
15.3866
15.4082
15.4337
15.4629
15.4956
15.5319
15.5716
15.6145
15.6606
15.7096
15.7616
15.8162
15.8733
15.9327
15.9941
16.0572
16.1217
16.1872
16.2531
16.3191
16.3844
16.4485
16.5105
16.5695
16.6246
16.6748
16.7186
16.7549
16.7822
16.799
16.8039
16.7957
16.7741
16.7403
16.6989
16.6608
12.5659
12.5699
12.5775
12.5887
12.6034
12.6213
12.6423
12.6664
12.6935
12.7234
12.7559
12.7911
12.8287
12.8686
12.9107
12.9548
13.0006
13.048
13.0967
13.1464
13.1967
13.2473
13.2978
13.3476
13.3963
13.4434
13.4881
13.5299
13.568
13.6018
13.6306
13.6538
13.6706
13.6808
13.6841
13.6808
13.6713
13.6571
13.6398
13.6215
9.78219
9.78527
9.79128
9.80009
9.81157
9.82562
9.84212
9.86099
9.88212
9.90541
9.93076
9.95807
9.9872
10.018
10.0504
10.0842
10.1192
10.1552
10.192
10.2292
10.2667
10.3042
10.3412
10.3774
10.4124
10.4458
10.4772
10.5061
10.5322
10.555
10.5743
10.5896
10.6009
10.6081
10.6112
10.6105
10.6065
10.5997
10.5909
10.5806
6.99195
6.99416
6.99849
7.00482
7.01307
7.02316
7.035
7.04853
7.06366
7.08031
7.09841
7.11786
7.13858
7.16045
7.18336
7.20719
7.23178
7.25697
7.28259
7.30844
7.33432
7.35998
7.38519
7.40969
7.43322
7.4555
7.47628
7.4953
7.51231
7.52712
7.53957
7.54954
7.55698
7.56192
7.56446
7.56476
7.56307
7.55964
7.55479
7.54879
4.19704
4.19838
4.20098
4.2048
4.20977
4.21584
4.22296
4.23109
4.24018
4.25017
4.26102
4.27267
4.28505
4.2981
4.31175
4.32591
4.34049
4.35538
4.37049
4.38568
4.40083
4.4158
4.43045
4.44462
4.45817
4.47094
4.4828
4.4936
4.50324
4.51162
4.51866
4.52433
4.52861
4.53153
4.53316
4.53358
4.53291
4.53126
4.52878
4.52558
1.39933
1.39977
1.40064
1.40192
1.40358
1.4056
1.40798
1.41069
1.41372
1.41705
1.42067
1.42454
1.42866
1.433
1.43753
1.44223
1.44706
1.45198
1.45697
1.46198
1.46697
1.47189
1.47669
1.48133
1.48575
1.48992
1.49377
1.49728
1.50041
1.50312
1.5054
1.50725
1.50865
1.50962
1.51017
1.51035
1.51017
1.50968
1.50891
1.5079
102.545
102.544
102.542
102.54
102.537
102.534
102.531
102.528
102.524
102.52
102.516
102.511
102.506
102.501
102.495
102.489
102.483
102.476
102.47
102.463
102.456
102.448
102.441
102.433
102.425
102.418
102.41
102.403
102.395
102.388
102.381
102.375
102.369
102.363
102.358
102.354
102.35
102.348
102.346
102.345
100.095
100.093
100.091
100.089
100.086
100.084
100.081
100.077
100.073
100.069
100.065
100.06
100.055
100.049
100.044
100.038
100.031
100.025
100.018
100.011
100.003
99.9957
99.988
99.9803
99.9725
99.9647
99.9569
99.9492
99.9417
99.9345
99.9275
99.9209
99.9147
99.909
99.9039
99.8995
99.8958
99.893
99.891
99.89
97.6462
97.6445
97.6426
97.6403
97.6377
97.6348
97.6315
97.6279
97.624
97.6197
97.6151
97.6101
97.6048
97.5992
97.5932
97.5869
97.5802
97.5733
97.5661
97.5587
97.5511
97.5432
97.5353
97.5272
97.5191
97.5109
97.5028
97.4949
97.487
97.4795
97.4722
97.4653
97.4589
97.453
97.4477
97.4431
97.4393
97.4364
97.4343
97.4332
95.1998
95.198
95.196
95.1936
95.1909
95.1878
95.1844
95.1806
95.1765
95.172
95.1671
95.1618
95.1562
95.1502
95.1438
95.1371
95.1301
95.1227
95.1151
95.1072
95.0991
95.0908
95.0823
95.0738
95.0651
95.0565
95.0479
95.0395
95.0312
95.0232
95.0155
95.0082
95.0014
94.9952
94.9896
94.9847
94.9807
94.9776
94.9754
94.9743
92.7556
92.7537
92.7516
92.7491
92.7462
92.7429
92.7393
92.7352
92.7308
92.7259
92.7207
92.715
92.7089
92.7024
92.6956
92.6883
92.6808
92.6728
92.6646
92.6561
92.6473
92.6384
92.6292
92.62
92.6107
92.6014
92.5921
92.583
92.5741
92.5655
92.5572
92.5494
92.5421
92.5354
92.5294
92.5242
92.5199
92.5165
92.5142
92.513
90.3138
90.3119
90.3096
90.3069
90.3038
90.3003
90.2963
90.2919
90.2871
90.2818
90.2761
90.2699
90.2632
90.2561
90.2486
90.2407
90.2324
90.2237
90.2147
90.2053
90.1957
90.1859
90.1759
90.1658
90.1556
90.1455
90.1354
90.1254
90.1157
90.1063
90.0973
90.0888
90.0808
90.0735
90.067
90.0613
90.0566
90.053
90.0504
90.0491
87.8749
87.8729
87.8704
87.8675
87.8641
87.8602
87.8559
87.8511
87.8457
87.8399
87.8335
87.8266
87.8193
87.8114
87.8031
87.7943
87.785
87.7754
87.7654
87.755
87.7444
87.7335
87.7224
87.7112
87.7
87.6887
87.6776
87.6666
87.6558
87.6455
87.6355
87.6261
87.6174
87.6094
87.6022
87.596
87.5908
87.5868
87.584
87.5826
85.4392
85.437
85.4343
85.4311
85.4273
85.4231
85.4182
85.4128
85.4069
85.4003
85.3932
85.3855
85.3772
85.3684
85.359
85.3492
85.3388
85.328
85.3167
85.3051
85.2932
85.281
85.2686
85.2561
85.2435
85.231
85.2185
85.2063
85.1943
85.1828
85.1717
85.1613
85.1516
85.1427
85.1347
85.1278
85.1221
85.1176
85.1146
85.113
83.007
83.0047
83.0017
82.9982
82.994
82.9892
82.9838
82.9777
82.971
82.9636
82.9555
82.9468
82.9374
82.9274
82.9168
82.9056
82.8938
82.8816
82.8689
82.8557
82.8422
82.8285
82.8145
82.8003
82.7862
82.7721
82.7581
82.7443
82.7309
82.718
82.7056
82.6939
82.6831
82.6731
82.6643
82.6566
82.6502
82.6452
82.6418
82.6401
80.5792
80.5766
80.5733
80.5693
80.5646
80.5592
80.5531
80.5461
80.5385
80.53
80.5208
80.5108
80.5001
80.4887
80.4765
80.4637
80.4503
80.4363
80.4218
80.4068
80.3914
80.3758
80.3599
80.3439
80.3278
80.3118
80.296
80.2805
80.2654
80.2508
80.2369
80.2238
80.2116
80.2005
80.1905
80.1819
80.1748
80.1692
80.1654
80.1635
78.1563
78.1534
78.1497
78.1452
78.1399
78.1337
78.1267
78.1187
78.1099
78.1001
78.0895
78.078
78.0656
78.0525
78.0385
78.0237
78.0083
77.9922
77.9755
77.9584
77.9408
77.9229
77.9047
77.8865
77.8682
77.85
77.8321
77.8145
77.7974
77.7809
77.7652
77.7505
77.7367
77.7242
77.7131
77.7034
77.6954
77.6892
77.6849
77.6827
75.7393
75.736
75.7319
75.7267
75.7206
75.7135
75.7053
75.6961
75.6859
75.6746
75.6622
75.6489
75.6345
75.6192
75.603
75.5859
75.568
75.5494
75.5302
75.5104
75.4902
75.4696
75.4488
75.4279
75.407
75.3863
75.3659
75.3459
75.3265
75.3079
75.2902
75.2735
75.258
75.2439
75.2314
75.2205
75.2116
75.2046
75.1998
75.1973
73.3293
73.3256
73.3208
73.3149
73.3078
73.2995
73.29
73.2792
73.2672
73.254
73.2395
73.2239
73.2071
73.1892
73.1703
73.1504
73.1296
73.108
73.0857
73.0628
73.0394
73.0158
72.9918
72.9679
72.944
72.9203
72.8971
72.8743
72.8523
72.8312
72.8112
72.7923
72.7749
72.7591
72.7449
72.7328
72.7227
72.7149
72.7095
72.7068
70.9277
70.9235
70.918
70.9111
70.9028
70.893
70.8818
70.8691
70.8549
70.8393
70.8223
70.8038
70.7841
70.763
70.7408
70.7175
70.6932
70.668
70.642
70.6155
70.5884
70.5611
70.5335
70.506
70.4786
70.4516
70.425
70.3992
70.3742
70.3503
70.3277
70.3064
70.2868
70.269
70.2531
70.2395
70.2282
70.2195
70.2135
70.2104
68.5363
68.5315
68.5251
68.5169
68.5071
68.4955
68.4821
68.467
68.4501
68.4315
68.4112
68.3893
68.3659
68.341
68.3148
68.2874
68.2588
68.2293
68.1991
68.1681
68.1368
68.1051
68.0734
68.0417
68.0103
67.9794
67.9492
67.9198
67.8915
67.8645
67.8389
67.815
67.793
67.773
67.7552
67.74
67.7274
67.7176
67.7109
67.7075
66.1575
66.1518
66.1442
66.1345
66.1227
66.1087
66.0926
66.0744
66.0541
66.0318
66.0075
65.9813
65.9533
65.9237
65.8926
65.8601
65.8265
65.7919
65.7564
65.7204
65.684
65.6473
65.6107
65.5744
65.5384
65.5032
65.4688
65.4354
65.4034
65.3729
65.3442
65.3173
65.2926
65.2703
65.2505
65.2335
65.2195
65.2086
65.2012
65.1974
63.794
63.7873
63.7781
63.7663
63.752
63.735
63.7154
63.6933
63.6686
63.6415
63.6121
63.5805
63.5469
63.5114
63.4743
63.4358
63.396
63.3552
63.3137
63.2717
63.2293
63.1869
63.1447
63.103
63.0619
63.0217
62.9827
62.945
62.9089
62.8747
62.8424
62.8124
62.7849
62.76
62.738
62.7192
62.7036
62.6916
62.6834
62.6792
61.4498
61.4416
61.4304
61.4159
61.3982
61.3772
61.3531
61.3257
61.2954
61.2622
61.2263
61.1879
61.1472
61.1045
61.06
61.014
60.9669
60.9188
60.87
60.8209
60.7717
60.7227
60.6742
60.6264
60.5796
60.534
60.4899
60.4474
60.4069
60.3686
60.3326
60.2993
60.2687
60.2412
60.2169
60.1961
60.179
60.1658
60.1567
60.1521
59.13
59.12
59.1059
59.0878
59.0655
59.0391
59.0087
58.9746
58.9367
58.8955
58.8512
58.8041
58.7544
58.7027
58.6491
58.5941
58.5381
58.4813
58.4241
58.3668
58.3098
58.2533
58.1977
58.1432
58.09
58.0385
57.9889
57.9413
57.8961
57.8535
57.8136
57.7768
57.7431
57.7128
57.6861
57.6633
57.6446
57.6302
57.6203
57.6153
56.8418
56.8292
56.8112
56.7878
56.7591
56.7253
56.6864
56.6428
56.595
56.5431
56.4878
56.4294
56.3684
56.3054
56.2406
56.1747
56.108
56.041
55.974
55.9073
55.8415
55.7766
55.7131
55.6513
55.5913
55.5335
55.478
55.4251
55.3751
55.328
55.2841
55.2436
55.2068
55.1737
55.1447
55.1199
55.0996
55.0839
55.0733
55.0678
54.5957
54.5792
54.5554
54.5244
54.4864
54.4417
54.3907
54.3341
54.2724
54.2062
54.1363
54.0633
53.988
53.9108
53.8324
53.7533
53.6741
53.5951
53.5169
53.4397
53.364
53.2901
53.2181
53.1485
53.0813
53.0169
52.9554
52.8971
52.8421
52.7905
52.7426
52.6986
52.6586
52.6229
52.5915
52.5648
52.5429
52.5261
52.5146
52.5087
52.4073
52.3848
52.3519
52.309
52.2567
52.1957
52.1269
52.0515
51.9704
51.8847
51.7954
51.7035
51.6099
51.5153
51.4204
51.3258
51.232
51.1396
51.0489
50.9603
50.874
50.7904
50.7096
50.6319
50.5575
50.4864
50.419
50.3552
50.2953
50.2395
50.1878
50.1404
50.0974
50.0591
50.0255
49.997
49.9737
49.9558
49.9435
49.9373
50.302
50.2693
50.2211
50.1583
50.0826
49.9957
49.8998
49.7965
49.6878
49.5753
49.4604
49.3443
49.228
49.1124
48.9982
48.8859
48.776
48.6689
48.5649
48.4642
48.3671
48.2737
48.1841
48.0984
48.0169
47.9395
47.8663
47.7975
47.7331
47.6732
47.618
47.5675
47.5219
47.4812
47.4458
47.4156
47.391
47.3721
47.3592
47.3526
48.3258
48.2735
48.1954
48.0956
47.9784
47.8484
47.7094
47.5647
47.417
47.2684
47.1205
46.9745
46.8313
46.6916
46.5559
46.4245
46.2977
46.1755
46.0582
45.9456
45.838
45.7353
45.6374
45.5445
45.4565
45.3733
45.2951
45.2218
45.1535
45.0902
45.0319
44.9788
44.9309
44.8883
44.8512
44.8197
44.7941
44.7744
44.761
44.7541
46.5772
46.4758
46.3269
46.1479
45.9516
45.747
45.5404
45.3356
45.1354
44.9412
44.754
44.5741
44.4018
44.2371
44.0798
43.9297
43.7867
43.6506
43.5211
43.398
43.2812
43.1705
43.0656
42.9666
42.8732
42.7854
42.7031
42.6263
42.5549
42.4889
42.4283
42.3732
42.3235
42.2795
42.2412
42.2087
42.1823
42.162
42.1482
42.1411
45.4104
45.0423
44.67
44.3051
43.9588
43.6349
43.3337
43.0539
42.7938
42.5515
42.3252
42.1135
41.9149
41.7284
41.5529
41.3876
41.2317
41.0847
40.9459
40.8149
40.6913
40.5747
40.4649
40.3615
40.2644
40.1735
40.0884
40.0092
39.9358
39.8681
39.806
39.7496
39.699
39.6541
39.615
39.582
39.5551
39.5345
39.5205
39.5133
49.116
43.707
42.9045
42.2752
41.7607
41.3256
40.9477
40.6131
40.3124
40.0392
39.7888
39.5579
39.3439
39.1448
38.959
38.7852
38.6223
38.4694
38.3258
38.1907
38.0637
37.9443
37.8321
37.7268
37.628
37.5357
37.4495
37.3694
37.2953
37.2269
37.1644
37.1076
37.0567
37.0116
36.9724
36.9392
36.9122
36.8916
36.8775
36.8703
53.5687
40.087
39.6973
39.3086
38.9271
38.5653
38.2278
37.9154
37.6267
37.3601
37.1133
36.8845
36.6717
36.4734
36.2882
36.1149
35.9525
35.8001
35.657
35.5225
35.3961
35.2772
35.1657
35.061
34.9629
34.8713
34.7858
34.7063
34.6328
34.5651
34.5031
34.4469
34.3965
34.3519
34.3131
34.2803
34.2536
34.2332
34.2194
34.2122
61.8345
37.1129
36.5962
36.2369
35.9034
35.5919
35.3005
35.0276
34.7721
34.5328
34.3085
34.0981
33.9007
33.7153
33.5409
33.3768
33.2222
33.0766
32.9394
32.8101
32.6882
32.5735
32.4656
32.3642
32.2692
32.1802
32.0972
32.02
31.9485
31.8826
31.8223
31.7677
31.7186
31.6751
31.6374
31.6055
31.5795
31.5596
31.5461
31.5392
48.9998
33.6439
33.1817
32.9251
32.6784
32.4414
32.2142
31.9965
31.7883
31.5893
31.3995
31.2185
31.0462
30.8821
30.7261
30.5779
30.437
30.3034
30.1766
30.0564
29.9426
29.8351
29.7335
29.6379
29.5479
29.4635
29.3846
29.3111
29.243
29.1801
29.1226
29.0703
29.0234
28.9818
28.9457
28.9151
28.8902
28.8712
28.8582
28.8516
38.9643
29.9548
29.6558
29.5057
29.3514
29.1946
29.0368
28.8793
28.7234
28.5698
28.4193
28.2726
28.13
27.9919
27.8585
27.73
27.6066
27.4882
27.3749
27.2667
27.1636
27.0655
26.9724
26.8844
26.8012
26.723
26.6496
26.5812
26.5175
26.4587
26.4048
26.3558
26.3117
26.2726
26.2386
26.2099
26.1864
26.1685
26.1563
26.15
30.1016
26.2452
26.1593
26.0986
26.0226
25.9348
25.8379
25.7344
25.6262
25.515
25.4021
25.2887
25.1758
25.0641
24.9542
24.8467
24.742
24.6404
24.5421
24.4474
24.3565
24.2693
24.1862
24.1071
24.032
23.9611
23.8944
23.832
23.7738
23.7199
23.6704
23.6253
23.5847
23.5486
23.5172
23.4907
23.469
23.4524
23.4411
23.4353
23.2575
22.7933
22.8059
22.7967
22.7692
22.7267
22.6721
22.6077
22.5358
22.4581
22.376
22.291
22.2041
22.1162
22.0282
21.9406
21.8541
21.7692
21.6861
21.6053
21.5271
21.4516
21.379
21.3096
21.2435
21.1807
21.1214
21.0657
21.0136
20.9653
20.9208
20.8802
20.8436
20.811
20.7826
20.7586
20.739
20.7239
20.7137
20.7084
19.5828
19.5962
19.6226
19.6291
19.6197
19.5974
19.5644
19.5226
19.4735
19.4185
19.3588
19.2954
19.2292
19.1611
19.0917
19.0218
18.9519
18.8824
18.8138
18.7465
18.6808
18.6169
18.5552
18.4957
18.4388
18.3846
18.3332
18.2847
18.2392
18.1969
18.1579
18.1222
18.0899
18.0612
18.0362
18.0149
17.9975
17.9842
17.9752
17.9705
16.6316
16.6115
16.5961
16.5805
16.562
16.5393
16.5118
16.4794
16.4425
16.4014
16.3566
16.3088
16.2583
16.2059
16.1519
16.097
16.0415
15.9859
15.9306
15.8759
15.822
15.7694
15.7183
15.6688
15.6212
15.5757
15.5323
15.4913
15.4527
15.4167
15.3834
15.3529
15.3253
15.3007
15.2793
15.261
15.2461
15.2346
15.2268
15.2228
13.6036
13.5862
13.5691
13.5514
13.5324
13.5114
13.4881
13.462
13.4333
13.4019
13.3679
13.3317
13.2935
13.2536
13.2123
13.17
13.1271
13.0838
13.0404
12.9972
12.9545
12.9126
12.8716
12.8318
12.7934
12.7564
12.7212
12.6877
12.6562
12.6267
12.5993
12.5742
12.5515
12.5312
12.5134
12.4983
12.486
12.4765
12.4701
12.4667
10.5693
10.5571
10.5439
10.5297
10.5144
10.4976
10.4793
10.4593
10.4375
10.4141
10.3889
10.3622
10.334
10.3046
10.2741
10.2427
10.2107
10.1784
10.1458
10.1132
10.0809
10.0491
10.0178
9.98732
9.95778
9.92932
9.90207
9.87615
9.85167
9.82873
9.80743
9.78785
9.77008
9.7542
9.7403
9.72846
9.71878
9.71135
9.70628
9.70368
7.54181
7.53387
7.52496
7.51509
7.50423
7.49235
7.47941
7.46536
7.45019
7.43389
7.4165
7.39807
7.37867
7.3584
7.33738
7.31574
7.29362
7.27116
7.24851
7.22582
7.20322
7.18087
7.15888
7.13739
7.11651
7.09635
7.077
7.05857
7.04112
7.02476
7.00953
6.99552
6.98279
6.97141
6.96144
6.95294
6.94599
6.94065
6.937
6.93514
4.52175
4.51729
4.51217
4.50642
4.50005
4.49303
4.48537
4.47707
4.46812
4.45853
4.44831
4.43749
4.42612
4.41424
4.40191
4.38922
4.37622
4.363
4.34966
4.33626
4.3229
4.30965
4.2966
4.28382
4.27139
4.25936
4.24781
4.23679
4.22634
4.21653
4.2074
4.19899
4.19134
4.1845
4.1785
4.17338
4.1692
4.16598
4.16379
4.16266
1.50668
1.50524
1.50357
1.50169
1.49959
1.49728
1.49475
1.492
1.48905
1.48588
1.48251
1.47894
1.47519
1.47128
1.46722
1.46303
1.45874
1.45438
1.44997
1.44554
1.44112
1.43673
1.43241
1.42817
1.42404
1.42004
1.4162
1.41253
1.40906
1.40579
1.40275
1.39994
1.39739
1.39511
1.39311
1.3914
1.39
1.38893
1.38819
1.38782
)
;

boundaryField
{
    top
    {
        type            fixedValue;
        value           uniform 0;
    }
    inlet
    {
        type            darcyGradPressure;
        gradient        nonuniform List<scalar> 
80
(
9.81
9.81
9.81
9.81
9.81
9.81
9.81
9.81
9.81
9.81
9.81
9.81
9.81
9.81
9.81
9.81
9.81
9.81
9.81
9.81
9.81
9.81
9.81
9.81
9.81
9.81
9.81
9.81
9.81
9.81
9.81
9.81
9.81
9.81
9.81
9.81
9.81
9.81
9.81
9.81
9.81
9.81
9.81
9.81
9.81
9.81
9.81
9.81
9.81
9.81
9.81
9.81
9.81
9.81
9.81
9.81
9.81
9.81
9.81
9.81
9.81
9.81
9.81
9.81
9.81
9.81
9.81
9.81
9.81
9.81
9.81
9.81
9.81
9.81
9.81
9.81
9.81
9.81
9.81
9.81
)
;
        value           nonuniform List<scalar> 
80
(
103.668
103.668
103.67
103.672
103.675
103.678
103.681
103.685
103.69
103.694
103.699
103.704
103.709
103.715
103.72
103.725
103.73
103.735
103.739
103.744
103.748
103.752
103.756
103.759
103.762
103.765
103.767
103.77
103.772
103.773
103.774
103.775
103.776
103.776
103.776
103.776
103.776
103.775
103.774
103.773
103.772
103.77
103.768
103.766
103.763
103.761
103.758
103.754
103.75
103.746
103.742
103.737
103.732
103.727
103.721
103.715
103.709
103.703
103.696
103.689
103.682
103.674
103.667
103.659
103.652
103.644
103.636
103.629
103.622
103.614
103.608
103.601
103.595
103.589
103.585
103.58
103.577
103.574
103.572
103.571
)
;
    }
    axis
    {
        type            darcyGradPressure;
        gradient        uniform -0;
        value           nonuniform List<scalar> 
80
(
102.441
99.9873
97.5316
95.0742
92.6151
90.1539
87.6905
85.2247
82.756
80.2841
77.8086
75.3289
72.8444
70.3545
67.8583
65.3552
62.8441
60.3241
57.7942
55.2534
52.7005
50.1344
47.5543
44.9591
42.3481
39.7205
37.0761
34.4145
31.7359
29.0405
26.329
23.6021
20.8611
18.107
15.3414
12.5659
9.78219
6.99195
4.19704
1.39933
102.345
99.89
97.4332
94.9743
92.513
90.0491
87.5826
85.113
82.6401
80.1635
77.6827
75.1973
72.7068
70.2104
67.7075
65.1974
62.6792
60.1521
57.6153
55.0678
52.5087
49.9373
47.3526
44.7541
42.1411
39.5133
36.8703
34.2122
31.5392
28.8516
26.15
23.4353
20.7084
17.9705
15.2228
12.4667
9.70368
6.93514
4.16266
1.38782
)
;
    }
    frontAndBack
    {
        type            empty;
    }
}


// ************************************************************************* //
