/*--------------------------------*- C++ -*----------------------------------*\
  =========                 |
  \\      /  F ield         | OpenFOAM: The Open Source CFD Toolbox
   \\    /   O peration     | Website:  https://openfoam.org
    \\  /    A nd           | Version:  11
     \\/     M anipulation  |
\*---------------------------------------------------------------------------*/
FoamFile
{
    format      ascii;
    class       volScalarField;
    location    "3";
    object      p;
}
// * * * * * * * * * * * * * * * * * * * * * * * * * * * * * * * * * * * * * //

dimensions      [0 2 -2 0 0 0 0];

internalField   nonuniform List<scalar> 
2048
(
0.255979
0.253691
0.24908
0.241942
0.232131
0.219504
0.203891
0.185106
0.162981
0.137417
0.108425
0.0761683
0.041008
0.00353191
-0.0354361
-0.0748597
-0.113554
-0.150283
-0.183877
-0.213337
-0.237884
-0.25696
-0.270203
-0.27744
-0.278714
-0.274308
-0.264713
-0.250665
-0.233145
-0.213289
-0.192234
-0.170986
-0.150347
-0.130892
-0.112991
-0.0968376
-0.0824926
-0.0699171
-0.0590081
-0.0496251
-0.0416112
-0.0348062
-0.0290549
-0.0242125
-0.0201482
-0.0167455
-0.0139027
-0.0115314
-0.00955592
-0.00791166
-0.00654381
-0.00540608
-0.00445941
-0.00367105
-0.0030133
-0.00246318
-0.00200085
-0.00161047
-0.00127694
-0.000990432
-0.000736668
-0.000514047
-0.000300765
-0.000115048
0.25834
0.256079
0.251517
0.244445
0.234705
0.222136
0.206544
0.187714
0.165451
0.139624
0.110218
0.0773807
0.0414701
0.00309733
-0.0368619
-0.0772959
-0.116935
-0.154472
-0.188701
-0.21863
-0.243506
-0.262797
-0.276143
-0.283356
-0.284454
-0.27969
-0.26954
-0.254757
-0.236385
-0.215642
-0.193744
-0.171757
-0.150512
-0.130594
-0.11236
-0.0959899
-0.0815228
-0.0688992
-0.0579962
-0.0486565
-0.0407094
-0.0339842
-0.0283179
-0.0235606
-0.0195778
-0.0162511
-0.0134773
-0.0111678
-0.00924694
-0.00765036
-0.00632382
-0.00522164
-0.00430542
-0.00354301
-0.00290737
-0.00237605
-0.00192974
-0.00155304
-0.0012313
-0.000955014
-0.000710309
-0.000495743
-0.000290027
-0.000111127
0.263043
0.260836
0.256379
0.249453
0.239874
0.227444
0.211918
0.193023
0.170499
0.144152
0.113911
0.079888
0.042435
0.00220675
-0.0398163
-0.0823595
-0.12396
-0.163147
-0.19865
-0.229506
-0.255036
-0.27476
-0.288325
-0.295511
-0.296275
-0.290797
-0.279505
-0.263189
-0.243033
-0.22044
-0.196795
-0.17328
-0.15079
-0.129925
-0.111027
-0.0942329
-0.0795355
-0.0668286
-0.0559481
-0.046703
-0.0388958
-0.0323352
-0.0268431
-0.0222589
-0.0184412
-0.0152675
-0.0126326
-0.0104469
-0.00863505
-0.00713348
-0.00588907
-0.00485744
-0.00400152
-0.0032905
-0.00269855
-0.00220435
-0.00178965
-0.00143993
-0.00114144
-0.000885254
-0.000658445
-0.000459625
-0.000269019
-0.000103186
0.270022
0.267909
0.263631
0.256957
0.247666
0.235501
0.22014
0.201214
0.178354
0.151251
0.119735
0.0838554
0.0439607
0.000778577
-0.0445456
-0.0904632
-0.135161
-0.176889
-0.2143
-0.246525
-0.273029
-0.293425
-0.30737
-0.314589
-0.31491
-0.308363
-0.29527
-0.276485
-0.253434
-0.227849
-0.201409
-0.175487
-0.151065
-0.128751
-0.108851
-0.091437
-0.0764225
-0.0636238
-0.0528091
-0.0437331
-0.0361571
-0.0298589
-0.0246383
-0.0203202
-0.0167539
-0.0138114
-0.011385
-0.0093844
-0.00773485
-0.00637431
-0.00525147
-0.00432401
-0.00355696
-0.00292148
-0.00239366
-0.00195386
-0.00158543
-0.00127513
-0.00101058
-0.000783708
-0.000582984
-0.000407082
-0.000238499
-9.1614e-05
0.279174
0.277207
0.27321
0.266937
0.258116
0.246411
0.231398
0.21257
0.189394
0.161362
0.128123
0.0895954
0.0461246
-0.00141389
-0.0516005
-0.102426
-0.15149
-0.196642
-0.236515
-0.270479
-0.298263
-0.319626
-0.334226
-0.341685
-0.341602
-0.33366
-0.31796
-0.295515
-0.268182
-0.238189
-0.207653
-0.178258
-0.151121
-0.12684
-0.105623
-0.0874263
-0.0720417
-0.0591744
-0.0484981
-0.0396927
-0.0324624
-0.0265433
-0.0217063
-0.0177577
-0.0145355
-0.011906
-0.00975897
-0.0080044
-0.00656912
-0.00539363
-0.00442955
-0.00363758
-0.00298572
-0.00244791
-0.00200279
-0.00163303
-0.00132403
-0.00106433
-0.000843277
-0.00065393
-0.000486573
-0.000339963
-0.000199516
-7.68152e-05
0.290339
0.288588
0.285011
0.279343
0.271249
0.260298
0.245925
0.227455
0.20413
0.175144
0.139827
0.0977616
0.0492139
-0.00469563
-0.0620208
-0.119811
-0.174655
-0.223984
-0.266662
-0.302545
-0.331779
-0.354408
-0.37016
-0.378418
-0.378263
-0.368703
-0.349404
-0.321656
-0.288123
-0.251872
-0.215637
-0.181487
-0.150705
-0.123865
-0.101025
-0.0819385
-0.0662042
-0.0533596
-0.0429481
-0.0345525
-0.0278072
-0.0223991
-0.0180665
-0.0145955
-0.0118127
-0.00957848
-0.00778134
-0.00633259
-0.00516197
-0.00421371
-0.00344354
-0.00281626
-0.0023038
-0.00188373
-0.00153797
-0.00125206
-0.00101405
-0.000814613
-0.000645265
-0.00050044
-0.000372608
-0.000260649
-0.000153462
-5.93197e-05
0.303278
0.301837
0.298859
0.294073
0.287065
0.277296
0.264006
0.246313
0.223157
0.193379
0.155862
0.109494
0.0541578
-0.00900891
-0.0770718
-0.144872
-0.207159
-0.261196
-0.306712
-0.344455
-0.375149
-0.399236
-0.416888
-0.427184
-0.427866
-0.416512
-0.392361
-0.357179
-0.314732
-0.269469
-0.225263
-0.184758
-0.149328
-0.119367
-0.0946511
-0.0746349
-0.0586439
-0.04599
-0.0360434
-0.0282613
-0.0221908
-0.0174613
-0.0137764
-0.0109026
-0.00865754
-0.00689898
-0.00551696
-0.00442694
-0.0035639
-0.00287778
-0.00232997
-0.00189065
-0.00153666
-0.00125
-0.00101652
-0.000825156
-0.000667019
-0.000535269
-0.000423905
-0.000328941
-0.000245326
-0.000172089
-0.000102057
-3.97778e-05
0.317662
0.316643
0.314483
0.310931
0.305485
0.297525
0.285998
0.269778
0.247256
0.216905
0.177076
0.125793
0.0623089
-0.0137244
-0.097794
-0.179873
-0.251566
-0.310602
-0.358546
-0.397734
-0.429822
-0.455948
-0.476988
-0.491702
-0.495227
-0.481859
-0.450771
-0.405157
-0.350331
-0.29247
-0.237115
-0.18793
-0.146466
-0.112742
-0.0859861
-0.0651382
-0.0491094
-0.0369051
-0.0276813
-0.0207515
-0.0155681
-0.0117014
-0.00882064
-0.00667515
-0.0050757
-0.00388047
-0.00298419
-0.00230922
-0.00179844
-0.00140972
-0.00111204
-0.000882495
-0.000704161
-0.000564451
-0.00045396
-0.000365663
-0.00029422
-0.000235668
-0.000186804
-0.000145434
-0.000109235
-7.74461e-05
-4.71366e-05
-1.8872e-05
0.333046
0.332573
0.331469
0.329561
0.326254
0.320972
0.312242
0.298811
0.277822
0.247354
0.204191
0.146236
0.0727256
-0.0212888
-0.12823
-0.229081
-0.311648
-0.37519
-0.423786
-0.462308
-0.494331
-0.523609
-0.552091
-0.575719
-0.586172
-0.571643
-0.530879
-0.469639
-0.396594
-0.320981
-0.25061
-0.190244
-0.141389
-0.103355
-0.0745123
-0.0530666
-0.0373678
-0.0260185
-0.0179017
-0.0121559
-0.00812865
-0.00533373
-0.00341525
-0.0021152
-0.00124727
-0.000678074
-0.000313303
-8.70095e-05
4.66822e-05
0.00011949
0.000153129
0.00016231
0.000156891
0.000143398
0.00012604
0.000107474
8.92274e-05
7.2205e-05
5.66567e-05
4.28774e-05
3.03493e-05
1.95979e-05
9.15082e-06
2.57796e-06
0.348875
0.349062
0.349241
0.349386
0.348828
0.347248
0.342708
0.334338
0.317118
0.289001
0.240757
0.171481
0.0778337
-0.0478112
-0.185627
-0.304936
-0.394763
-0.458272
-0.501808
-0.532847
-0.557467
-0.588629
-0.631993
-0.674799
-0.697231
-0.686128
-0.637376
-0.557161
-0.458866
-0.357698
-0.266
-0.190535
-0.132547
-0.0898882
-0.0593532
-0.0379447
-0.0232169
-0.0132763
-0.00671169
-0.00249602
0.000108988
0.00162756
0.0024268
0.00276164
0.00280763
0.00268349
0.00246737
0.00220935
0.00194062
0.00167978
0.00143714
0.00121769
0.00102305
0.000852871
0.000705549
0.00057894
0.000470453
0.000377715
0.000297877
0.000229231
0.000168357
0.000115494
6.47527e-05
2.38078e-05
0.364487
0.365413
0.367058
0.369571
0.372297
0.375325
0.376485
0.375952
0.366699
0.348238
0.299006
0.217561
0.0735535
-0.116078
-0.288383
-0.41181
-0.49394
-0.545398
-0.57423
-0.587367
-0.591056
-0.618958
-0.677776
-0.743552
-0.787125
-0.789765
-0.742698
-0.649822
-0.527899
-0.39897
-0.282184
-0.188376
-0.119457
-0.0717147
-0.0398417
-0.0191631
-0.00615316
0.0016987
0.00613421
0.00834893
0.00915962
0.00911818
0.00859108
0.00781675
0.00694574
0.00606872
0.00523663
0.00447531
0.00379533
0.00319819
0.00268021
0.00223501
0.00185499
0.00153227
0.00125912
0.00102838
0.000833261
0.00066807
0.000526882
0.000405999
0.00029918
0.000206363
0.000117409
4.39508e-05
0.379146
0.380834
0.384043
0.389054
0.395409
0.403502
0.411564
0.420696
0.424305
0.425035
0.394064
0.331849
0.119734
-0.185632
-0.389138
-0.497199
-0.557208
-0.5907
-0.606963
-0.606664
-0.59596
-0.633754
-0.706693
-0.782417
-0.836399
-0.849855
-0.807679
-0.710272
-0.574151
-0.42505
-0.287818
-0.178012
-0.0994391
-0.0476804
-0.0156464
0.00306777
0.0132171
0.0180366
0.0196403
0.0193837
0.0181223
0.0163831
0.0144819
0.0126006
0.0108377
0.00924009
0.0078238
0.0065874
0.00552019
0.00460689
0.00383047
0.00317381
0.0026206
0.00215584
0.00176592
0.00143891
0.00116398
0.000932286
0.000734972
0.000566438
0.000417814
0.000288726
0.000165117
6.22544e-05
0.39208
0.394492
0.399228
0.406653
0.416636
0.429708
0.445039
0.463873
0.482638
0.505118
0.515021
0.528952
0.395088
-0.108348
-0.372261
-0.499437
-0.560678
-0.58808
-0.602633
-0.613777
-0.605376
-0.651412
-0.732749
-0.813221
-0.868597
-0.879902
-0.832766
-0.728872
-0.583453
-0.42276
-0.273823
-0.154875
-0.0712615
-0.0184654
0.0117273
0.0270963
0.0334604
0.0346706
0.0331173
0.030228
0.0268266
0.0233695
0.0200957
0.0171187
0.0144795
0.0121792
0.010198
0.0085067
0.00707276
0.00586361
0.00484835
0.00399868
0.00328921
0.00269765
0.00220446
0.00179297
0.00144848
0.00115912
0.000913345
0.000703811
0.000519306
0.000359156
0.000205883
7.79487e-05
0.402548
0.405593
0.411647
0.421187
0.434332
0.451848
0.473565
0.501112
0.532977
0.572681
0.611644
0.65542
0.608575
0.152014
-0.140233
-0.322824
-0.438845
-0.508419
-0.549664
-0.581153
-0.597772
-0.649076
-0.734469
-0.816642
-0.870747
-0.877148
-0.817911
-0.706081
-0.554979
-0.39093
-0.239958
-0.120228
-0.0372563
0.013313
0.040042
0.0513766
0.0536988
0.0511965
0.0464168
0.0408273
0.0352232
0.0299998
0.0253254
0.021245
0.0177395
0.0147597
0.0122454
0.0101354
0.00837203
0.00690292
0.0056819
0.00466874
0.00382882
0.00313265
0.00255509
0.00207513
0.00167462
0.00133906
0.00105463
0.000812492
0.000599531
0.000414805
0.000238074
9.0401e-05
0.409916
0.413434
0.420454
0.431576
0.447045
0.46793
0.494255
0.528335
0.568475
0.619576
0.670529
0.731687
0.706012
0.245251
-0.0624094
-0.261854
-0.39281
-0.472442
-0.517705
-0.527832
-0.560754
-0.616554
-0.701384
-0.77987
-0.827039
-0.823957
-0.763811
-0.650476
-0.501168
-0.341889
-0.196531
-0.0825498
-0.00436686
0.0418508
0.0644038
0.0717675
0.0704272
0.0646755
0.0571231
0.0492452
0.0418
0.0351225
0.0293138
0.0243544
0.0201693
0.016664
0.0137426
0.0113164
0.00930674
0.00764526
0.00627345
0.00514161
0.00420782
0.00343697
0.0027996
0.0022714
0.00183161
0.00146379
0.00115244
0.000887673
0.000654992
0.000453262
0.000260306
9.9032e-05
0.413725
0.41749
0.425028
0.436983
0.453708
0.476352
0.505164
0.542447
0.586874
0.642633
0.699467
0.765465
0.749678
0.303527
-0.00585588
-0.215945
-0.358567
-0.446548
-0.495187
-0.48721
-0.52445
-0.58055
-0.662957
-0.737673
-0.779119
-0.768043
-0.705595
-0.595327
-0.453077
-0.302241
-0.165334
-0.0575387
0.0158281
0.0583562
0.0778792
0.0826991
0.0792089
0.0716665
0.062655
0.053608
0.0452353
0.0378248
0.0314371
0.0260205
0.021475
0.0176865
0.0145436
0.0119448
0.00980094
0.0080353
0.00658249
0.00538743
0.00440402
0.00359399
0.00292543
0.00237219
0.0019121
0.00152766
0.00120249
0.000926111
0.000683333
0.000472909
0.000271659
0.000103451
0.413725
0.41749
0.425028
0.436983
0.453708
0.476351
0.505164
0.542447
0.586874
0.642633
0.699467
0.765465
0.749679
0.303527
-0.00585534
-0.215945
-0.358566
-0.446547
-0.495185
-0.487206
-0.524446
-0.580546
-0.662953
-0.737669
-0.779113
-0.768035
-0.705588
-0.595321
-0.453071
-0.302237
-0.165332
-0.057537
0.0158297
0.0583579
0.0778808
0.0827006
0.0792102
0.0716675
0.0626557
0.0536084
0.0452354
0.0378247
0.0314368
0.0260201
0.0214746
0.0176861
0.0145431
0.0119443
0.00980053
0.00803493
0.00658215
0.00538712
0.00440376
0.00359376
0.00292523
0.00237203
0.00191196
0.00152755
0.0012024
0.000926038
0.000683277
0.000472868
0.000271633
0.000103439
0.409916
0.413433
0.420454
0.431575
0.447045
0.46793
0.494255
0.528335
0.568475
0.619576
0.670529
0.731687
0.706012
0.245252
-0.0624078
-0.261852
-0.392807
-0.472439
-0.517701
-0.527822
-0.560746
-0.616546
-0.701376
-0.779863
-0.82703
-0.823944
-0.763798
-0.650463
-0.501156
-0.341879
-0.196527
-0.0825451
-0.00436168
0.0418564
0.0644094
0.0717727
0.0704316
0.0646788
0.0571254
0.0492464
0.0418003
0.0351222
0.029313
0.0243533
0.0201681
0.0166627
0.0137413
0.0113152
0.00930555
0.00764416
0.00627246
0.00514072
0.00420704
0.00343629
0.00279902
0.0022709
0.0018312
0.00146345
0.00115217
0.000887455
0.000654824
0.000453139
0.000260225
9.89967e-05
0.402547
0.405592
0.411646
0.421186
0.434331
0.451848
0.473565
0.501112
0.532977
0.572681
0.611644
0.655421
0.608576
0.152016
-0.14023
-0.322821
-0.438841
-0.508414
-0.549659
-0.581144
-0.597765
-0.64907
-0.734465
-0.816643
-0.870742
-0.877139
-0.817906
-0.706069
-0.554967
-0.390921
-0.239951
-0.120221
-0.0372478
0.0133226
0.0400517
0.0513856
0.0537064
0.0512023
0.0464207
0.0408295
0.035224
0.0299994
0.0253243
0.0212434
0.0177375
0.0147576
0.0122433
0.0101334
0.00837013
0.00690117
0.00568031
0.00466732
0.00382757
0.00313155
0.00255415
0.00207433
0.00167395
0.00133851
0.00105418
0.000812135
0.000599256
0.000414602
0.000237941
9.0343e-05
0.392079
0.394491
0.399227
0.406652
0.416635
0.429707
0.445038
0.463873
0.482638
0.505118
0.515021
0.528952
0.395088
-0.108346
-0.372257
-0.499432
-0.560673
-0.588073
-0.602626
-0.61377
-0.60537
-0.651411
-0.732753
-0.813228
-0.868603
-0.879902
-0.83276
-0.728862
-0.583442
-0.422751
-0.273815
-0.154865
-0.07125
-0.0184523
0.0117406
0.0271086
0.0334707
0.0346786
0.0331227
0.0302312
0.0268279
0.0233692
0.0200944
0.0171166
0.0144771
0.0121766
0.0101953
0.0085041
0.00707029
0.00586131
0.00484625
0.00399679
0.00328754
0.00269618
0.00220319
0.00179189
0.00144757
0.00115837
0.000912732
0.000703322
0.000518928
0.000358878
0.000205701
7.78688e-05
0.379145
0.380832
0.384042
0.389053
0.395408
0.403501
0.411563
0.420695
0.424304
0.425035
0.394064
0.331849
0.119735
-0.185629
-0.389134
-0.497194
-0.557202
-0.590693
-0.606955
-0.606656
-0.595954
-0.633754
-0.7067
-0.782428
-0.836409
-0.849859
-0.807674
-0.71026
-0.574139
-0.42504
-0.287808
-0.178
-0.0994239
-0.0476635
-0.0156294
0.00308333
0.0132302
0.0180468
0.0196474
0.0193881
0.0181242
0.0163832
0.0144807
0.0125985
0.0108351
0.00923718
0.00782079
0.00658442
0.00551732
0.00460419
0.00382798
0.00317156
0.00261858
0.00215406
0.00176437
0.00143758
0.00116286
0.000931354
0.000734208
0.000565828
0.00041734
0.000288376
0.000164888
6.21537e-05
0.364485
0.365412
0.367057
0.369569
0.372295
0.375323
0.376483
0.375951
0.366699
0.348238
0.299006
0.217561
0.0735537
-0.116077
-0.288381
-0.411807
-0.493936
-0.545393
-0.574224
-0.587361
-0.591051
-0.618958
-0.677783
-0.743566
-0.787136
-0.789768
-0.742691
-0.649808
-0.527884
-0.398956
-0.28217
-0.188359
-0.119438
-0.0716941
-0.0398214
-0.0191443
-0.00613714
0.00171138
0.0061434
0.00835487
0.00916279
0.00911917
0.00859046
0.00781501
0.00694329
0.00606584
0.00523354
0.00447217
0.00379224
0.00319524
0.00267746
0.00223248
0.00185271
0.00153025
0.00125735
0.00102685
0.000831958
0.000666978
0.000525984
0.000405277
0.000298618
0.000205946
0.000117136
4.38308e-05
0.348873
0.34906
0.349239
0.349384
0.348826
0.347246
0.342707
0.334336
0.317117
0.289001
0.240756
0.17148
0.0778329
-0.0478119
-0.185628
-0.304936
-0.394762
-0.45827
-0.501806
-0.532846
-0.557468
-0.588634
-0.632003
-0.674812
-0.69724
-0.686129
-0.637366
-0.557144
-0.458848
-0.357679
-0.265981
-0.190514
-0.132524
-0.0898643
-0.0593298
-0.0379232
-0.0231983
-0.0132613
-0.00670044
-0.00248829
0.000113684
0.0016298
0.00242716
0.00276064
0.00280569
0.00268093
0.00246445
0.00220626
0.00193749
0.00167673
0.00143424
0.00121499
0.00102059
0.00085066
0.000703595
0.000577239
0.000468995
0.000376487
0.000296862
0.00022841
0.000167715
0.000115016
6.44383e-05
2.36699e-05
0.333044
0.33257
0.331466
0.329559
0.326252
0.32097
0.31224
0.29881
0.27782
0.247353
0.20419
0.146234
0.0727239
-0.0212909
-0.128232
-0.229083
-0.311649
-0.375191
-0.423787
-0.462311
-0.494337
-0.523619
-0.552102
-0.575729
-0.586176
-0.57164
-0.530867
-0.469621
-0.396573
-0.320958
-0.250587
-0.190219
-0.141363
-0.103328
-0.0744868
-0.053043
-0.0373471
-0.0260015
-0.0178885
-0.0121464
-0.00812232
-0.00533009
-0.00341371
-0.00211525
-0.00124849
-0.000680103
-0.000315861
-8.98794e-05
4.36709e-05
0.000116468
0.000150194
0.000159532
0.000154319
0.000141062
0.000123955
0.000105643
8.76455e-05
7.08619e-05
5.55386e-05
4.19684e-05
2.96349e-05
1.90646e-05
8.79893e-06
2.42365e-06
0.317659
0.31664
0.31448
0.310928
0.305482
0.297522
0.285995
0.269776
0.247254
0.216904
0.177074
0.125791
0.0623064
-0.0137275
-0.0977975
-0.179876
-0.251569
-0.310605
-0.358549
-0.397739
-0.429829
-0.455956
-0.476996
-0.491707
-0.495226
-0.481851
-0.450756
-0.405136
-0.350308
-0.292445
-0.237089
-0.187904
-0.146438
-0.112714
-0.0859593
-0.0651131
-0.0490872
-0.0368863
-0.0276663
-0.0207402
-0.0155601
-0.0116962
-0.0088178
-0.00667412
-0.00507604
-0.00388182
-0.00298624
-0.00231174
-0.00180122
-0.00141261
-0.00111491
-0.000885273
-0.000706775
-0.000566857
-0.000456133
-0.00036759
-0.000295901
-0.000237106
-0.000188009
-0.00014642
-0.000110014
-7.80296e-05
-4.75227e-05
-1.90413e-05
0.303275
0.301834
0.298856
0.29407
0.287062
0.277293
0.264003
0.24631
0.223155
0.193376
0.155859
0.109492
0.0541545
-0.00901288
-0.0770763
-0.144877
-0.207163
-0.2612
-0.306716
-0.34446
-0.375155
-0.399243
-0.416892
-0.427185
-0.427861
-0.4165
-0.392342
-0.357157
-0.314707
-0.269442
-0.225235
-0.18473
-0.1493
-0.119339
-0.0946236
-0.0746091
-0.0586206
-0.0459701
-0.036027
-0.0282485
-0.0221813
-0.0174547
-0.0137722
-0.0109005
-0.00865693
-0.00689955
-0.00551841
-0.004429
-0.00356635
-0.00288045
-0.00233272
-0.00189336
-0.00153926
-0.00125243
-0.00101874
-0.000827151
-0.000668775
-0.000536785
-0.000425186
-0.000329995
-0.000246163
-0.000172719
-0.000102474
-3.99611e-05
0.290335
0.288584
0.285007
0.279339
0.271246
0.260294
0.245922
0.227452
0.204126
0.175141
0.139823
0.0977581
0.0492099
-0.00470029
-0.062026
-0.119816
-0.17466
-0.223989
-0.266667
-0.30255
-0.331784
-0.354412
-0.370161
-0.378415
-0.378254
-0.368687
-0.349382
-0.321631
-0.288097
-0.251844
-0.215609
-0.181458
-0.150676
-0.123836
-0.100997
-0.0819123
-0.0661803
-0.0533388
-0.0429306
-0.0345385
-0.0277965
-0.0223912
-0.0180612
-0.0145922
-0.0118111
-0.00957826
-0.00778215
-0.00633415
-0.00516404
-0.00421611
-0.00344611
-0.00281887
-0.00230635
-0.00188616
-0.00154022
-0.00125411
-0.00101587
-0.000816196
-0.000646612
-0.000501556
-0.000373499
-0.000261321
-0.000153909
-5.95163e-05
0.27917
0.277202
0.273206
0.266932
0.258111
0.246407
0.231394
0.212567
0.18939
0.161358
0.128119
0.0895912
0.0461199
-0.00141914
-0.0516063
-0.102432
-0.151496
-0.196648
-0.23652
-0.270483
-0.298267
-0.319628
-0.334224
-0.341678
-0.341589
-0.333641
-0.317937
-0.295489
-0.268154
-0.238161
-0.207624
-0.178229
-0.151093
-0.126811
-0.105596
-0.0873999
-0.0720175
-0.059153
-0.0484799
-0.0396777
-0.0324506
-0.0265344
-0.0216999
-0.0177534
-0.0145331
-0.0119051
-0.00975918
-0.00800548
-0.00657083
-0.00539576
-0.00443194
-0.00364008
-0.00298822
-0.00245033
-0.00200507
-0.00163511
-0.00132591
-0.00106598
-0.000844689
-0.000655107
-0.000487517
-0.000340678
-0.000199993
-7.70253e-05
0.270018
0.267904
0.263627
0.256952
0.247661
0.235496
0.220135
0.20121
0.17835
0.151246
0.11973
0.0838505
0.0439554
0.000772779
-0.0445518
-0.0904697
-0.135167
-0.176895
-0.214304
-0.246528
-0.273031
-0.293424
-0.307365
-0.314579
-0.314895
-0.308342
-0.295245
-0.276458
-0.253405
-0.22782
-0.20138
-0.175458
-0.151035
-0.128723
-0.108823
-0.0914106
-0.0763981
-0.0636021
-0.0527903
-0.0437174
-0.0361445
-0.0298491
-0.0246311
-0.0203152
-0.0167508
-0.0138099
-0.0113847
-0.0093851
-0.00773627
-0.00637624
-0.00525373
-0.00432644
-0.00355943
-0.00292391
-0.00239597
-0.00195601
-0.00158737
-0.00127685
-0.00101206
-0.000784949
-0.000583982
-0.000407841
-0.000239008
-9.18391e-05
0.263038
0.260831
0.256374
0.249448
0.239869
0.227438
0.211913
0.193018
0.170494
0.144147
0.113906
0.0798826
0.0424292
0.00220042
-0.039823
-0.0823665
-0.123966
-0.163153
-0.198655
-0.229509
-0.255037
-0.274757
-0.288319
-0.2955
-0.296258
-0.290776
-0.27948
-0.263162
-0.243004
-0.22041
-0.196765
-0.17325
-0.15076
-0.129896
-0.110999
-0.0942065
-0.0795111
-0.0668066
-0.0559289
-0.0466867
-0.0388825
-0.0323248
-0.0268352
-0.0222532
-0.0184376
-0.0152655
-0.0126319
-0.0104473
-0.00863627
-0.00713527
-0.00589125
-0.00485984
-0.00400401
-0.00329297
-0.00270092
-0.00220656
-0.00179167
-0.00144173
-0.001143
-0.000886562
-0.000659501
-0.000460428
-0.000269559
-0.000103423
0.258335
0.256073
0.251511
0.244439
0.234699
0.22213
0.206538
0.187709
0.165445
0.139618
0.110213
0.0773747
0.0414637
0.00309048
-0.0368691
-0.0773032
-0.116942
-0.154478
-0.188705
-0.218632
-0.243505
-0.262793
-0.276135
-0.283343
-0.284436
-0.279668
-0.269514
-0.254729
-0.236356
-0.215612
-0.193714
-0.171727
-0.150483
-0.130565
-0.112333
-0.0959637
-0.0814984
-0.0688772
-0.0579768
-0.0486399
-0.0406956
-0.0339732
-0.0283095
-0.0235545
-0.0195737
-0.0162487
-0.0134764
-0.011168
-0.00924801
-0.00765207
-0.00632596
-0.00522404
-0.00430793
-0.00354553
-0.0029098
-0.00237833
-0.00193183
-0.00155491
-0.00123293
-0.000956389
-0.000711421
-0.000496592
-0.0002906
-0.000111378
0.255974
0.253686
0.249075
0.241937
0.232125
0.219498
0.203885
0.1851
0.162975
0.137411
0.108419
0.0761619
0.0410013
0.00352469
-0.0354436
-0.0748672
-0.113561
-0.150289
-0.183881
-0.213339
-0.237883
-0.256955
-0.270194
-0.277426
-0.278696
-0.274285
-0.264687
-0.250636
-0.233116
-0.213259
-0.192204
-0.170957
-0.150317
-0.130863
-0.112963
-0.0968116
-0.0824685
-0.0698952
-0.0589887
-0.0496084
-0.0415973
-0.034795
-0.0290462
-0.0242061
-0.0201438
-0.0167429
-0.0139015
-0.0115314
-0.00955688
-0.00791329
-0.00654591
-0.00540847
-0.00446194
-0.00367359
-0.00301578
-0.00246551
-0.002003
-0.0016124
-0.00127863
-0.000991858
-0.000737823
-0.000514933
-0.000301366
-0.000115315
)
;

boundaryField
{
    inlet
    {
        type            zeroGradient;
    }
    outlet
    {
        type            fixedValue;
        value           uniform 0;
    }
    top
    {
        type            symmetryPlane;
    }
    bottom
    {
        type            symmetryPlane;
    }
    frontAndBack
    {
        type            empty;
    }
}


// ************************************************************************* //
