/*--------------------------------*- C++ -*----------------------------------*\
  =========                 |
  \\      /  F ield         | OpenFOAM: The Open Source CFD Toolbox
   \\    /   O peration     | Website:  https://openfoam.org
    \\  /    A nd           | Version:  10
     \\/     M anipulation  |
\*---------------------------------------------------------------------------*/
FoamFile
{
    format      ascii;
    class       volScalarField;
    location    "0.55";
    object      p;
}
// * * * * * * * * * * * * * * * * * * * * * * * * * * * * * * * * * * * * * //

dimensions      [1 -1 -2 0 0 0 0];

internalField   nonuniform List<scalar> 
12225
(
1.45132e+07
1.44522e+07
1.43431e+07
1.41993e+07
1.40324e+07
1.38515e+07
1.36627e+07
1.34704e+07
1.32772e+07
1.30849e+07
1.28944e+07
1.2706e+07
1.25195e+07
1.23342e+07
1.2149e+07
1.19612e+07
1.17658e+07
1.15496e+07
1.45157e+07
1.44544e+07
1.43449e+07
1.42007e+07
1.40335e+07
1.38523e+07
1.36634e+07
1.34709e+07
1.32777e+07
1.30853e+07
1.28948e+07
1.27064e+07
1.252e+07
1.2335e+07
1.21502e+07
1.19633e+07
1.17702e+07
1.15632e+07
1.45211e+07
1.44592e+07
1.43488e+07
1.42038e+07
1.40359e+07
1.38541e+07
1.36648e+07
1.3472e+07
1.32786e+07
1.30862e+07
1.28957e+07
1.27074e+07
1.25213e+07
1.23367e+07
1.21528e+07
1.19676e+07
1.17786e+07
1.15832e+07
1.45301e+07
1.44673e+07
1.43555e+07
1.4209e+07
1.40399e+07
1.38571e+07
1.3667e+07
1.34738e+07
1.32801e+07
1.30876e+07
1.28971e+07
1.2709e+07
1.25233e+07
1.23395e+07
1.21568e+07
1.19742e+07
1.17903e+07
1.1606e+07
1.45434e+07
1.44791e+07
1.43652e+07
1.42165e+07
1.40456e+07
1.38614e+07
1.36704e+07
1.34764e+07
1.32823e+07
1.30896e+07
1.28992e+07
1.27113e+07
1.25262e+07
1.23434e+07
1.21624e+07
1.19828e+07
1.18045e+07
1.16297e+07
1.4562e+07
1.44956e+07
1.43786e+07
1.42269e+07
1.40534e+07
1.38673e+07
1.36748e+07
1.348e+07
1.32853e+07
1.30923e+07
1.29019e+07
1.27144e+07
1.25299e+07
1.23483e+07
1.21694e+07
1.19932e+07
1.18203e+07
1.16534e+07
1.45869e+07
1.45176e+07
1.43964e+07
1.42406e+07
1.40636e+07
1.38749e+07
1.36805e+07
1.34844e+07
1.3289e+07
1.30957e+07
1.29053e+07
1.27182e+07
1.25346e+07
1.23544e+07
1.21777e+07
1.20049e+07
1.1837e+07
1.16764e+07
1.46196e+07
1.45462e+07
1.44193e+07
1.4258e+07
1.40765e+07
1.38844e+07
1.36876e+07
1.34899e+07
1.32935e+07
1.30998e+07
1.29094e+07
1.27227e+07
1.254e+07
1.23614e+07
1.21871e+07
1.20176e+07
1.18541e+07
1.16986e+07
1.46618e+07
1.45827e+07
1.44481e+07
1.42795e+07
1.40922e+07
1.38958e+07
1.36961e+07
1.34965e+07
1.32989e+07
1.31046e+07
1.29141e+07
1.27279e+07
1.25462e+07
1.23692e+07
1.21972e+07
1.20309e+07
1.18712e+07
1.17197e+07
1.47158e+07
1.46288e+07
1.44837e+07
1.43057e+07
1.41111e+07
1.39094e+07
1.3706e+07
1.35039e+07
1.3305e+07
1.31099e+07
1.29194e+07
1.27337e+07
1.2553e+07
1.23776e+07
1.22079e+07
1.20443e+07
1.18879e+07
1.17396e+07
1.47847e+07
1.46863e+07
1.45272e+07
1.43369e+07
1.4133e+07
1.39248e+07
1.37171e+07
1.35122e+07
1.33116e+07
1.31157e+07
1.29251e+07
1.27398e+07
1.25602e+07
1.23863e+07
1.22186e+07
1.20575e+07
1.19037e+07
1.17579e+07
1.48653e+07
1.47517e+07
1.45749e+07
1.43701e+07
1.41558e+07
1.39405e+07
1.37281e+07
1.35203e+07
1.33179e+07
1.31212e+07
1.29304e+07
1.27455e+07
1.25667e+07
1.23942e+07
1.22281e+07
1.2069e+07
1.19172e+07
1.17732e+07
1.49642e+07
1.4829e+07
1.46291e+07
1.44066e+07
1.41801e+07
1.39568e+07
1.37393e+07
1.35283e+07
1.33241e+07
1.31265e+07
1.29355e+07
1.27509e+07
1.25729e+07
1.24016e+07
1.2237e+07
1.20795e+07
1.19294e+07
1.17868e+07
1.51097e+07
1.49359e+07
1.46996e+07
1.44517e+07
1.42089e+07
1.39754e+07
1.37515e+07
1.35368e+07
1.33304e+07
1.31318e+07
1.29405e+07
1.27564e+07
1.25792e+07
1.24091e+07
1.2246e+07
1.209e+07
1.19414e+07
1.18001e+07
1.53345e+07
1.50836e+07
1.47878e+07
1.45037e+07
1.42398e+07
1.39941e+07
1.37631e+07
1.35442e+07
1.33355e+07
1.31359e+07
1.29445e+07
1.27608e+07
1.25846e+07
1.24156e+07
1.22538e+07
1.20993e+07
1.19519e+07
1.18116e+07
1.57104e+07
1.52785e+07
1.48846e+07
1.4553e+07
1.42653e+07
1.40071e+07
1.37693e+07
1.35469e+07
1.33365e+07
1.31363e+07
1.29451e+07
1.27621e+07
1.25869e+07
1.24191e+07
1.22587e+07
1.21053e+07
1.19589e+07
1.18194e+07
1.64259e+07
1.5469e+07
1.49422e+07
1.45693e+07
1.42664e+07
1.40017e+07
1.37614e+07
1.35381e+07
1.33279e+07
1.31285e+07
1.29384e+07
1.27568e+07
1.25829e+07
1.24165e+07
1.22572e+07
1.21049e+07
1.19593e+07
1.18202e+07
1.55223e+07
1.51587e+07
1.47991e+07
1.44842e+07
1.42064e+07
1.39552e+07
1.37234e+07
1.35062e+07
1.33007e+07
1.3105e+07
1.2918e+07
1.27389e+07
1.25672e+07
1.24025e+07
1.22446e+07
1.20932e+07
1.19481e+07
1.18092e+07
1.48915e+07
1.47382e+07
1.45257e+07
1.42983e+07
1.40726e+07
1.3854e+07
1.36435e+07
1.3441e+07
1.32461e+07
1.30582e+07
1.28771e+07
1.27025e+07
1.25341e+07
1.23718e+07
1.22154e+07
1.20649e+07
1.192e+07
1.17806e+07
1.45176e+07
1.44276e+07
1.42834e+07
1.41114e+07
1.3927e+07
1.37383e+07
1.35497e+07
1.33632e+07
1.31802e+07
1.30012e+07
1.28266e+07
1.26568e+07
1.24917e+07
1.23316e+07
1.21765e+07
1.20263e+07
1.1881e+07
1.17407e+07
1.42989e+07
1.42329e+07
1.41201e+07
1.39777e+07
1.38181e+07
1.3649e+07
1.34755e+07
1.33007e+07
1.31265e+07
1.29541e+07
1.27845e+07
1.26182e+07
1.24556e+07
1.22969e+07
1.21423e+07
1.1992e+07
1.1846e+07
1.17044e+07
1.41517e+07
1.40976e+07
1.40021e+07
1.38777e+07
1.37341e+07
1.35785e+07
1.34159e+07
1.32497e+07
1.30821e+07
1.29148e+07
1.2749e+07
1.25853e+07
1.24244e+07
1.22666e+07
1.21122e+07
1.19614e+07
1.18143e+07
1.1671e+07
1.40508e+07
1.40034e+07
1.39181e+07
1.38048e+07
1.36717e+07
1.35252e+07
1.33702e+07
1.32101e+07
1.30474e+07
1.28838e+07
1.27206e+07
1.25588e+07
1.2399e+07
1.22417e+07
1.20871e+07
1.19356e+07
1.17872e+07
1.16421e+07
1.39816e+07
1.39381e+07
1.38591e+07
1.37528e+07
1.36266e+07
1.34863e+07
1.33365e+07
1.31806e+07
1.30213e+07
1.28603e+07
1.2699e+07
1.25385e+07
1.23794e+07
1.22222e+07
1.20673e+07
1.19149e+07
1.17652e+07
1.16181e+07
1.39344e+07
1.38934e+07
1.38183e+07
1.37166e+07
1.35949e+07
1.34587e+07
1.33124e+07
1.31594e+07
1.30024e+07
1.28432e+07
1.26832e+07
1.25235e+07
1.23648e+07
1.22076e+07
1.20523e+07
1.18991e+07
1.1748e+07
1.15992e+07
1.3903e+07
1.38634e+07
1.37909e+07
1.36921e+07
1.35732e+07
1.34397e+07
1.32958e+07
1.31447e+07
1.29892e+07
1.28312e+07
1.2672e+07
1.25129e+07
1.23544e+07
1.21971e+07
1.20414e+07
1.18874e+07
1.17353e+07
1.15849e+07
1.38828e+07
1.38441e+07
1.37731e+07
1.36761e+07
1.35591e+07
1.34273e+07
1.32848e+07
1.3135e+07
1.29805e+07
1.28232e+07
1.26646e+07
1.25057e+07
1.23473e+07
1.219e+07
1.20339e+07
1.18794e+07
1.17263e+07
1.15745e+07
1.38705e+07
1.38324e+07
1.37623e+07
1.36664e+07
1.35505e+07
1.34197e+07
1.32781e+07
1.3129e+07
1.29751e+07
1.28182e+07
1.26599e+07
1.25012e+07
1.23429e+07
1.21854e+07
1.20292e+07
1.18742e+07
1.17204e+07
1.15677e+07
1.3864e+07
1.38262e+07
1.37565e+07
1.36612e+07
1.35459e+07
1.34156e+07
1.32745e+07
1.31258e+07
1.29722e+07
1.28155e+07
1.26573e+07
1.24987e+07
1.23404e+07
1.21829e+07
1.20264e+07
1.18712e+07
1.1717e+07
1.15636e+07
1.38613e+07
1.38236e+07
1.37542e+07
1.3659e+07
1.3544e+07
1.34139e+07
1.3273e+07
1.31245e+07
1.2971e+07
1.28144e+07
1.26563e+07
1.24977e+07
1.23394e+07
1.21818e+07
1.20253e+07
1.18699e+07
1.17155e+07
1.15619e+07
1.07122e+07
1.07122e+07
1.07122e+07
1.07121e+07
1.0712e+07
1.07119e+07
1.07117e+07
1.07115e+07
1.07113e+07
1.07111e+07
1.07108e+07
1.07105e+07
1.07101e+07
1.07098e+07
1.07094e+07
1.0709e+07
1.07085e+07
1.0708e+07
1.07075e+07
1.07069e+07
1.07064e+07
1.07057e+07
1.07051e+07
1.07044e+07
1.07037e+07
1.07029e+07
1.07022e+07
1.07013e+07
1.07005e+07
1.06996e+07
1.06987e+07
1.06977e+07
1.06968e+07
1.06958e+07
1.06947e+07
1.06936e+07
1.06925e+07
1.06914e+07
1.06902e+07
1.0689e+07
1.06878e+07
1.06865e+07
1.06852e+07
1.06839e+07
1.06825e+07
1.06811e+07
1.06797e+07
1.06782e+07
1.06768e+07
1.06752e+07
1.06737e+07
1.06721e+07
1.06705e+07
1.06689e+07
1.06673e+07
1.06656e+07
1.06639e+07
1.06621e+07
1.06604e+07
1.06586e+07
1.06568e+07
1.06549e+07
1.06531e+07
1.06512e+07
1.06493e+07
1.06473e+07
1.06453e+07
1.06433e+07
1.06413e+07
1.06393e+07
1.06372e+07
1.06351e+07
1.0633e+07
1.06308e+07
1.06287e+07
1.06265e+07
1.06243e+07
1.0622e+07
1.06198e+07
1.06175e+07
1.06152e+07
1.06128e+07
1.06105e+07
1.06081e+07
1.06057e+07
1.06033e+07
1.06008e+07
1.05983e+07
1.05958e+07
1.05933e+07
1.05908e+07
1.05882e+07
1.05856e+07
1.0583e+07
1.05804e+07
1.05777e+07
1.0575e+07
1.05723e+07
1.05696e+07
1.05668e+07
1.0564e+07
1.05612e+07
1.05584e+07
1.05556e+07
1.05527e+07
1.05498e+07
1.05469e+07
1.05439e+07
1.05409e+07
1.05379e+07
1.05349e+07
1.05319e+07
1.05288e+07
1.05257e+07
1.05226e+07
1.05195e+07
1.05163e+07
1.05131e+07
1.05099e+07
1.05066e+07
1.05034e+07
1.05001e+07
1.04967e+07
1.04934e+07
1.049e+07
1.04866e+07
1.04832e+07
1.04797e+07
1.04762e+07
1.04727e+07
1.04692e+07
1.04656e+07
1.0462e+07
1.04584e+07
1.04547e+07
1.04511e+07
1.04473e+07
1.04436e+07
1.04398e+07
1.0436e+07
1.04322e+07
1.04283e+07
1.04245e+07
1.04205e+07
1.04166e+07
1.04126e+07
1.04086e+07
1.04046e+07
1.04005e+07
1.03964e+07
1.03922e+07
1.03881e+07
1.03839e+07
1.03796e+07
1.03754e+07
1.03711e+07
1.03667e+07
1.03624e+07
1.0358e+07
1.03535e+07
1.03491e+07
1.03446e+07
1.034e+07
1.03355e+07
1.03308e+07
1.03262e+07
1.03215e+07
1.03168e+07
1.03121e+07
1.03073e+07
1.03025e+07
1.02976e+07
1.02927e+07
1.02878e+07
1.02829e+07
1.02779e+07
1.02729e+07
1.02679e+07
1.0263e+07
1.0258e+07
1.07123e+07
1.07123e+07
1.07123e+07
1.07122e+07
1.07121e+07
1.0712e+07
1.07118e+07
1.07116e+07
1.07114e+07
1.07112e+07
1.07109e+07
1.07106e+07
1.07102e+07
1.07099e+07
1.07095e+07
1.07091e+07
1.07086e+07
1.07081e+07
1.07076e+07
1.0707e+07
1.07064e+07
1.07058e+07
1.07052e+07
1.07045e+07
1.07038e+07
1.0703e+07
1.07022e+07
1.07014e+07
1.07006e+07
1.06997e+07
1.06988e+07
1.06978e+07
1.06968e+07
1.06958e+07
1.06948e+07
1.06937e+07
1.06926e+07
1.06914e+07
1.06902e+07
1.0689e+07
1.06878e+07
1.06865e+07
1.06852e+07
1.06839e+07
1.06825e+07
1.06811e+07
1.06797e+07
1.06783e+07
1.06768e+07
1.06753e+07
1.06737e+07
1.06722e+07
1.06706e+07
1.06689e+07
1.06673e+07
1.06656e+07
1.06639e+07
1.06622e+07
1.06604e+07
1.06586e+07
1.06568e+07
1.0655e+07
1.06531e+07
1.06512e+07
1.06493e+07
1.06473e+07
1.06454e+07
1.06434e+07
1.06413e+07
1.06393e+07
1.06372e+07
1.06351e+07
1.0633e+07
1.06309e+07
1.06287e+07
1.06265e+07
1.06243e+07
1.0622e+07
1.06198e+07
1.06175e+07
1.06152e+07
1.06128e+07
1.06105e+07
1.06081e+07
1.06057e+07
1.06033e+07
1.06008e+07
1.05983e+07
1.05958e+07
1.05933e+07
1.05908e+07
1.05882e+07
1.05856e+07
1.0583e+07
1.05804e+07
1.05777e+07
1.0575e+07
1.05723e+07
1.05696e+07
1.05668e+07
1.0564e+07
1.05612e+07
1.05584e+07
1.05556e+07
1.05527e+07
1.05498e+07
1.05469e+07
1.05439e+07
1.05409e+07
1.05379e+07
1.05349e+07
1.05319e+07
1.05288e+07
1.05257e+07
1.05226e+07
1.05195e+07
1.05163e+07
1.05131e+07
1.05099e+07
1.05066e+07
1.05034e+07
1.05001e+07
1.04967e+07
1.04934e+07
1.049e+07
1.04866e+07
1.04832e+07
1.04797e+07
1.04762e+07
1.04727e+07
1.04692e+07
1.04656e+07
1.0462e+07
1.04584e+07
1.04547e+07
1.0451e+07
1.04473e+07
1.04436e+07
1.04398e+07
1.0436e+07
1.04322e+07
1.04283e+07
1.04245e+07
1.04205e+07
1.04166e+07
1.04126e+07
1.04086e+07
1.04046e+07
1.04005e+07
1.03964e+07
1.03922e+07
1.03881e+07
1.03839e+07
1.03796e+07
1.03754e+07
1.03711e+07
1.03667e+07
1.03624e+07
1.0358e+07
1.03535e+07
1.03491e+07
1.03446e+07
1.034e+07
1.03355e+07
1.03308e+07
1.03262e+07
1.03215e+07
1.03168e+07
1.03121e+07
1.03073e+07
1.03025e+07
1.02976e+07
1.02927e+07
1.02878e+07
1.02829e+07
1.02779e+07
1.02729e+07
1.02679e+07
1.02629e+07
1.0258e+07
1.07126e+07
1.07125e+07
1.07125e+07
1.07124e+07
1.07123e+07
1.07122e+07
1.0712e+07
1.07118e+07
1.07116e+07
1.07114e+07
1.07111e+07
1.07108e+07
1.07105e+07
1.07101e+07
1.07097e+07
1.07093e+07
1.07088e+07
1.07083e+07
1.07078e+07
1.07072e+07
1.07066e+07
1.0706e+07
1.07053e+07
1.07047e+07
1.07039e+07
1.07032e+07
1.07024e+07
1.07016e+07
1.07007e+07
1.06998e+07
1.06989e+07
1.06979e+07
1.0697e+07
1.06959e+07
1.06949e+07
1.06938e+07
1.06927e+07
1.06915e+07
1.06904e+07
1.06891e+07
1.06879e+07
1.06866e+07
1.06853e+07
1.0684e+07
1.06826e+07
1.06812e+07
1.06798e+07
1.06783e+07
1.06769e+07
1.06753e+07
1.06738e+07
1.06722e+07
1.06706e+07
1.0669e+07
1.06673e+07
1.06657e+07
1.06639e+07
1.06622e+07
1.06604e+07
1.06587e+07
1.06568e+07
1.0655e+07
1.06531e+07
1.06512e+07
1.06493e+07
1.06474e+07
1.06454e+07
1.06434e+07
1.06414e+07
1.06393e+07
1.06372e+07
1.06351e+07
1.0633e+07
1.06309e+07
1.06287e+07
1.06265e+07
1.06243e+07
1.0622e+07
1.06198e+07
1.06175e+07
1.06152e+07
1.06128e+07
1.06105e+07
1.06081e+07
1.06057e+07
1.06033e+07
1.06008e+07
1.05983e+07
1.05958e+07
1.05933e+07
1.05908e+07
1.05882e+07
1.05856e+07
1.0583e+07
1.05804e+07
1.05777e+07
1.0575e+07
1.05723e+07
1.05696e+07
1.05668e+07
1.0564e+07
1.05612e+07
1.05584e+07
1.05556e+07
1.05527e+07
1.05498e+07
1.05469e+07
1.05439e+07
1.05409e+07
1.05379e+07
1.05349e+07
1.05319e+07
1.05288e+07
1.05257e+07
1.05226e+07
1.05195e+07
1.05163e+07
1.05131e+07
1.05099e+07
1.05066e+07
1.05034e+07
1.05001e+07
1.04967e+07
1.04934e+07
1.049e+07
1.04866e+07
1.04832e+07
1.04797e+07
1.04762e+07
1.04727e+07
1.04692e+07
1.04656e+07
1.0462e+07
1.04584e+07
1.04547e+07
1.0451e+07
1.04473e+07
1.04436e+07
1.04398e+07
1.0436e+07
1.04322e+07
1.04283e+07
1.04245e+07
1.04205e+07
1.04166e+07
1.04126e+07
1.04086e+07
1.04046e+07
1.04005e+07
1.03964e+07
1.03922e+07
1.03881e+07
1.03839e+07
1.03796e+07
1.03754e+07
1.03711e+07
1.03667e+07
1.03624e+07
1.0358e+07
1.03535e+07
1.03491e+07
1.03446e+07
1.034e+07
1.03354e+07
1.03308e+07
1.03262e+07
1.03215e+07
1.03168e+07
1.03121e+07
1.03073e+07
1.03025e+07
1.02976e+07
1.02927e+07
1.02878e+07
1.02829e+07
1.02779e+07
1.02729e+07
1.02679e+07
1.02629e+07
1.02579e+07
1.07129e+07
1.07129e+07
1.07128e+07
1.07128e+07
1.07126e+07
1.07125e+07
1.07124e+07
1.07122e+07
1.07119e+07
1.07117e+07
1.07114e+07
1.07111e+07
1.07108e+07
1.07104e+07
1.071e+07
1.07096e+07
1.07091e+07
1.07086e+07
1.07081e+07
1.07075e+07
1.07069e+07
1.07063e+07
1.07056e+07
1.07049e+07
1.07042e+07
1.07034e+07
1.07026e+07
1.07018e+07
1.07009e+07
1.07e+07
1.06991e+07
1.06982e+07
1.06972e+07
1.06961e+07
1.06951e+07
1.0694e+07
1.06929e+07
1.06917e+07
1.06905e+07
1.06893e+07
1.0688e+07
1.06868e+07
1.06855e+07
1.06841e+07
1.06827e+07
1.06813e+07
1.06799e+07
1.06785e+07
1.0677e+07
1.06754e+07
1.06739e+07
1.06723e+07
1.06707e+07
1.06691e+07
1.06674e+07
1.06657e+07
1.0664e+07
1.06623e+07
1.06605e+07
1.06587e+07
1.06569e+07
1.0655e+07
1.06532e+07
1.06513e+07
1.06493e+07
1.06474e+07
1.06454e+07
1.06434e+07
1.06414e+07
1.06393e+07
1.06373e+07
1.06352e+07
1.0633e+07
1.06309e+07
1.06287e+07
1.06265e+07
1.06243e+07
1.06221e+07
1.06198e+07
1.06175e+07
1.06152e+07
1.06129e+07
1.06105e+07
1.06081e+07
1.06057e+07
1.06033e+07
1.06008e+07
1.05984e+07
1.05959e+07
1.05933e+07
1.05908e+07
1.05882e+07
1.05856e+07
1.0583e+07
1.05804e+07
1.05777e+07
1.0575e+07
1.05723e+07
1.05696e+07
1.05668e+07
1.0564e+07
1.05612e+07
1.05584e+07
1.05556e+07
1.05527e+07
1.05498e+07
1.05469e+07
1.05439e+07
1.05409e+07
1.05379e+07
1.05349e+07
1.05319e+07
1.05288e+07
1.05257e+07
1.05226e+07
1.05195e+07
1.05163e+07
1.05131e+07
1.05099e+07
1.05066e+07
1.05033e+07
1.05001e+07
1.04967e+07
1.04934e+07
1.049e+07
1.04866e+07
1.04832e+07
1.04797e+07
1.04762e+07
1.04727e+07
1.04692e+07
1.04656e+07
1.0462e+07
1.04584e+07
1.04547e+07
1.0451e+07
1.04473e+07
1.04436e+07
1.04398e+07
1.0436e+07
1.04322e+07
1.04283e+07
1.04245e+07
1.04205e+07
1.04166e+07
1.04126e+07
1.04086e+07
1.04046e+07
1.04005e+07
1.03964e+07
1.03922e+07
1.03881e+07
1.03839e+07
1.03796e+07
1.03754e+07
1.03711e+07
1.03667e+07
1.03624e+07
1.0358e+07
1.03535e+07
1.03491e+07
1.03446e+07
1.034e+07
1.03354e+07
1.03308e+07
1.03262e+07
1.03215e+07
1.03168e+07
1.03121e+07
1.03073e+07
1.03025e+07
1.02976e+07
1.02927e+07
1.02878e+07
1.02829e+07
1.02779e+07
1.02729e+07
1.02679e+07
1.02629e+07
1.02578e+07
1.07134e+07
1.07133e+07
1.07133e+07
1.07132e+07
1.07131e+07
1.0713e+07
1.07128e+07
1.07126e+07
1.07124e+07
1.07121e+07
1.07118e+07
1.07115e+07
1.07112e+07
1.07108e+07
1.07104e+07
1.071e+07
1.07095e+07
1.0709e+07
1.07084e+07
1.07079e+07
1.07073e+07
1.07066e+07
1.0706e+07
1.07053e+07
1.07045e+07
1.07037e+07
1.07029e+07
1.07021e+07
1.07012e+07
1.07003e+07
1.06994e+07
1.06984e+07
1.06974e+07
1.06964e+07
1.06953e+07
1.06942e+07
1.06931e+07
1.06919e+07
1.06907e+07
1.06895e+07
1.06882e+07
1.0687e+07
1.06856e+07
1.06843e+07
1.06829e+07
1.06815e+07
1.06801e+07
1.06786e+07
1.06771e+07
1.06756e+07
1.0674e+07
1.06724e+07
1.06708e+07
1.06692e+07
1.06675e+07
1.06658e+07
1.06641e+07
1.06624e+07
1.06606e+07
1.06588e+07
1.0657e+07
1.06551e+07
1.06532e+07
1.06513e+07
1.06494e+07
1.06475e+07
1.06455e+07
1.06435e+07
1.06414e+07
1.06394e+07
1.06373e+07
1.06352e+07
1.06331e+07
1.06309e+07
1.06288e+07
1.06266e+07
1.06243e+07
1.06221e+07
1.06198e+07
1.06175e+07
1.06152e+07
1.06129e+07
1.06105e+07
1.06081e+07
1.06057e+07
1.06033e+07
1.06008e+07
1.05984e+07
1.05959e+07
1.05933e+07
1.05908e+07
1.05882e+07
1.05856e+07
1.0583e+07
1.05804e+07
1.05777e+07
1.0575e+07
1.05723e+07
1.05696e+07
1.05668e+07
1.0564e+07
1.05612e+07
1.05584e+07
1.05556e+07
1.05527e+07
1.05498e+07
1.05469e+07
1.05439e+07
1.05409e+07
1.05379e+07
1.05349e+07
1.05319e+07
1.05288e+07
1.05257e+07
1.05226e+07
1.05195e+07
1.05163e+07
1.05131e+07
1.05099e+07
1.05066e+07
1.05033e+07
1.05e+07
1.04967e+07
1.04934e+07
1.049e+07
1.04866e+07
1.04832e+07
1.04797e+07
1.04762e+07
1.04727e+07
1.04692e+07
1.04656e+07
1.0462e+07
1.04584e+07
1.04547e+07
1.0451e+07
1.04473e+07
1.04436e+07
1.04398e+07
1.0436e+07
1.04322e+07
1.04283e+07
1.04245e+07
1.04205e+07
1.04166e+07
1.04126e+07
1.04086e+07
1.04046e+07
1.04005e+07
1.03964e+07
1.03922e+07
1.03881e+07
1.03839e+07
1.03796e+07
1.03754e+07
1.03711e+07
1.03667e+07
1.03624e+07
1.0358e+07
1.03535e+07
1.03491e+07
1.03446e+07
1.034e+07
1.03354e+07
1.03308e+07
1.03262e+07
1.03215e+07
1.03168e+07
1.0312e+07
1.03073e+07
1.03024e+07
1.02976e+07
1.02927e+07
1.02878e+07
1.02828e+07
1.02779e+07
1.02729e+07
1.02678e+07
1.02628e+07
1.02577e+07
1.07139e+07
1.07139e+07
1.07139e+07
1.07138e+07
1.07137e+07
1.07135e+07
1.07134e+07
1.07132e+07
1.07129e+07
1.07127e+07
1.07124e+07
1.07121e+07
1.07117e+07
1.07113e+07
1.07109e+07
1.07105e+07
1.071e+07
1.07095e+07
1.07089e+07
1.07083e+07
1.07077e+07
1.07071e+07
1.07064e+07
1.07057e+07
1.07049e+07
1.07042e+07
1.07033e+07
1.07025e+07
1.07016e+07
1.07007e+07
1.06997e+07
1.06988e+07
1.06978e+07
1.06967e+07
1.06956e+07
1.06945e+07
1.06934e+07
1.06922e+07
1.0691e+07
1.06898e+07
1.06885e+07
1.06872e+07
1.06859e+07
1.06845e+07
1.06831e+07
1.06817e+07
1.06803e+07
1.06788e+07
1.06773e+07
1.06757e+07
1.06742e+07
1.06726e+07
1.0671e+07
1.06693e+07
1.06677e+07
1.0666e+07
1.06642e+07
1.06625e+07
1.06607e+07
1.06589e+07
1.06571e+07
1.06552e+07
1.06533e+07
1.06514e+07
1.06495e+07
1.06475e+07
1.06455e+07
1.06435e+07
1.06415e+07
1.06395e+07
1.06374e+07
1.06353e+07
1.06331e+07
1.0631e+07
1.06288e+07
1.06266e+07
1.06244e+07
1.06221e+07
1.06199e+07
1.06176e+07
1.06153e+07
1.06129e+07
1.06105e+07
1.06082e+07
1.06058e+07
1.06033e+07
1.06009e+07
1.05984e+07
1.05959e+07
1.05934e+07
1.05908e+07
1.05882e+07
1.05856e+07
1.0583e+07
1.05804e+07
1.05777e+07
1.0575e+07
1.05723e+07
1.05696e+07
1.05668e+07
1.0564e+07
1.05612e+07
1.05584e+07
1.05556e+07
1.05527e+07
1.05498e+07
1.05469e+07
1.05439e+07
1.05409e+07
1.05379e+07
1.05349e+07
1.05319e+07
1.05288e+07
1.05257e+07
1.05226e+07
1.05195e+07
1.05163e+07
1.05131e+07
1.05099e+07
1.05066e+07
1.05033e+07
1.05e+07
1.04967e+07
1.04934e+07
1.049e+07
1.04866e+07
1.04832e+07
1.04797e+07
1.04762e+07
1.04727e+07
1.04692e+07
1.04656e+07
1.0462e+07
1.04584e+07
1.04547e+07
1.0451e+07
1.04473e+07
1.04436e+07
1.04398e+07
1.0436e+07
1.04322e+07
1.04283e+07
1.04244e+07
1.04205e+07
1.04166e+07
1.04126e+07
1.04086e+07
1.04046e+07
1.04005e+07
1.03964e+07
1.03922e+07
1.03881e+07
1.03839e+07
1.03796e+07
1.03754e+07
1.03711e+07
1.03667e+07
1.03624e+07
1.0358e+07
1.03535e+07
1.03491e+07
1.03446e+07
1.034e+07
1.03354e+07
1.03308e+07
1.03262e+07
1.03215e+07
1.03168e+07
1.0312e+07
1.03073e+07
1.03024e+07
1.02976e+07
1.02927e+07
1.02878e+07
1.02828e+07
1.02778e+07
1.02728e+07
1.02678e+07
1.02627e+07
1.02577e+07
1.07146e+07
1.07146e+07
1.07145e+07
1.07145e+07
1.07143e+07
1.07142e+07
1.0714e+07
1.07138e+07
1.07136e+07
1.07133e+07
1.0713e+07
1.07127e+07
1.07123e+07
1.0712e+07
1.07115e+07
1.07111e+07
1.07106e+07
1.07101e+07
1.07095e+07
1.07089e+07
1.07083e+07
1.07076e+07
1.07069e+07
1.07062e+07
1.07054e+07
1.07046e+07
1.07038e+07
1.0703e+07
1.07021e+07
1.07011e+07
1.07002e+07
1.06992e+07
1.06982e+07
1.06971e+07
1.0696e+07
1.06949e+07
1.06937e+07
1.06925e+07
1.06913e+07
1.06901e+07
1.06888e+07
1.06875e+07
1.06861e+07
1.06848e+07
1.06834e+07
1.06819e+07
1.06805e+07
1.0679e+07
1.06775e+07
1.06759e+07
1.06744e+07
1.06728e+07
1.06712e+07
1.06695e+07
1.06678e+07
1.06661e+07
1.06644e+07
1.06626e+07
1.06608e+07
1.0659e+07
1.06572e+07
1.06553e+07
1.06534e+07
1.06515e+07
1.06496e+07
1.06476e+07
1.06456e+07
1.06436e+07
1.06416e+07
1.06395e+07
1.06374e+07
1.06353e+07
1.06332e+07
1.0631e+07
1.06289e+07
1.06267e+07
1.06244e+07
1.06222e+07
1.06199e+07
1.06176e+07
1.06153e+07
1.06129e+07
1.06106e+07
1.06082e+07
1.06058e+07
1.06033e+07
1.06009e+07
1.05984e+07
1.05959e+07
1.05934e+07
1.05908e+07
1.05883e+07
1.05857e+07
1.0583e+07
1.05804e+07
1.05777e+07
1.0575e+07
1.05723e+07
1.05696e+07
1.05668e+07
1.05641e+07
1.05612e+07
1.05584e+07
1.05556e+07
1.05527e+07
1.05498e+07
1.05469e+07
1.05439e+07
1.05409e+07
1.0538e+07
1.05349e+07
1.05319e+07
1.05288e+07
1.05257e+07
1.05226e+07
1.05195e+07
1.05163e+07
1.05131e+07
1.05099e+07
1.05066e+07
1.05033e+07
1.05e+07
1.04967e+07
1.04934e+07
1.049e+07
1.04866e+07
1.04832e+07
1.04797e+07
1.04762e+07
1.04727e+07
1.04692e+07
1.04656e+07
1.0462e+07
1.04584e+07
1.04547e+07
1.0451e+07
1.04473e+07
1.04436e+07
1.04398e+07
1.0436e+07
1.04322e+07
1.04283e+07
1.04244e+07
1.04205e+07
1.04166e+07
1.04126e+07
1.04086e+07
1.04045e+07
1.04005e+07
1.03964e+07
1.03922e+07
1.03881e+07
1.03839e+07
1.03796e+07
1.03754e+07
1.03711e+07
1.03667e+07
1.03624e+07
1.0358e+07
1.03535e+07
1.03491e+07
1.03445e+07
1.034e+07
1.03354e+07
1.03308e+07
1.03262e+07
1.03215e+07
1.03168e+07
1.0312e+07
1.03073e+07
1.03024e+07
1.02976e+07
1.02927e+07
1.02878e+07
1.02828e+07
1.02778e+07
1.02728e+07
1.02678e+07
1.02627e+07
1.02576e+07
1.07154e+07
1.07154e+07
1.07153e+07
1.07153e+07
1.07151e+07
1.0715e+07
1.07148e+07
1.07146e+07
1.07144e+07
1.07141e+07
1.07138e+07
1.07135e+07
1.07131e+07
1.07127e+07
1.07123e+07
1.07118e+07
1.07113e+07
1.07107e+07
1.07102e+07
1.07096e+07
1.07089e+07
1.07083e+07
1.07075e+07
1.07068e+07
1.0706e+07
1.07052e+07
1.07044e+07
1.07035e+07
1.07026e+07
1.07016e+07
1.07007e+07
1.06997e+07
1.06986e+07
1.06975e+07
1.06964e+07
1.06953e+07
1.06941e+07
1.06929e+07
1.06917e+07
1.06904e+07
1.06891e+07
1.06878e+07
1.06865e+07
1.06851e+07
1.06837e+07
1.06822e+07
1.06808e+07
1.06793e+07
1.06777e+07
1.06762e+07
1.06746e+07
1.0673e+07
1.06714e+07
1.06697e+07
1.0668e+07
1.06663e+07
1.06645e+07
1.06628e+07
1.0661e+07
1.06592e+07
1.06573e+07
1.06555e+07
1.06536e+07
1.06516e+07
1.06497e+07
1.06477e+07
1.06457e+07
1.06437e+07
1.06417e+07
1.06396e+07
1.06375e+07
1.06354e+07
1.06333e+07
1.06311e+07
1.06289e+07
1.06267e+07
1.06245e+07
1.06222e+07
1.062e+07
1.06177e+07
1.06153e+07
1.0613e+07
1.06106e+07
1.06082e+07
1.06058e+07
1.06034e+07
1.06009e+07
1.05984e+07
1.05959e+07
1.05934e+07
1.05908e+07
1.05883e+07
1.05857e+07
1.05831e+07
1.05804e+07
1.05777e+07
1.05751e+07
1.05723e+07
1.05696e+07
1.05668e+07
1.05641e+07
1.05613e+07
1.05584e+07
1.05556e+07
1.05527e+07
1.05498e+07
1.05469e+07
1.05439e+07
1.0541e+07
1.0538e+07
1.05349e+07
1.05319e+07
1.05288e+07
1.05257e+07
1.05226e+07
1.05195e+07
1.05163e+07
1.05131e+07
1.05099e+07
1.05066e+07
1.05033e+07
1.05e+07
1.04967e+07
1.04934e+07
1.049e+07
1.04866e+07
1.04832e+07
1.04797e+07
1.04762e+07
1.04727e+07
1.04692e+07
1.04656e+07
1.0462e+07
1.04584e+07
1.04547e+07
1.0451e+07
1.04473e+07
1.04436e+07
1.04398e+07
1.0436e+07
1.04322e+07
1.04283e+07
1.04244e+07
1.04205e+07
1.04166e+07
1.04126e+07
1.04086e+07
1.04045e+07
1.04005e+07
1.03964e+07
1.03922e+07
1.03881e+07
1.03839e+07
1.03796e+07
1.03754e+07
1.03711e+07
1.03667e+07
1.03624e+07
1.0358e+07
1.03535e+07
1.03491e+07
1.03445e+07
1.034e+07
1.03354e+07
1.03308e+07
1.03262e+07
1.03215e+07
1.03168e+07
1.0312e+07
1.03072e+07
1.03024e+07
1.02976e+07
1.02927e+07
1.02877e+07
1.02828e+07
1.02778e+07
1.02728e+07
1.02677e+07
1.02626e+07
1.02575e+07
1.07164e+07
1.07163e+07
1.07163e+07
1.07162e+07
1.07161e+07
1.07159e+07
1.07157e+07
1.07155e+07
1.07153e+07
1.0715e+07
1.07147e+07
1.07143e+07
1.0714e+07
1.07135e+07
1.07131e+07
1.07126e+07
1.07121e+07
1.07115e+07
1.0711e+07
1.07103e+07
1.07097e+07
1.0709e+07
1.07083e+07
1.07075e+07
1.07067e+07
1.07059e+07
1.0705e+07
1.07041e+07
1.07032e+07
1.07022e+07
1.07012e+07
1.07002e+07
1.06991e+07
1.06981e+07
1.06969e+07
1.06958e+07
1.06946e+07
1.06934e+07
1.06921e+07
1.06908e+07
1.06895e+07
1.06882e+07
1.06868e+07
1.06854e+07
1.0684e+07
1.06825e+07
1.06811e+07
1.06796e+07
1.0678e+07
1.06765e+07
1.06749e+07
1.06732e+07
1.06716e+07
1.06699e+07
1.06682e+07
1.06665e+07
1.06647e+07
1.0663e+07
1.06612e+07
1.06593e+07
1.06575e+07
1.06556e+07
1.06537e+07
1.06518e+07
1.06498e+07
1.06478e+07
1.06458e+07
1.06438e+07
1.06418e+07
1.06397e+07
1.06376e+07
1.06355e+07
1.06333e+07
1.06312e+07
1.0629e+07
1.06268e+07
1.06245e+07
1.06223e+07
1.062e+07
1.06177e+07
1.06154e+07
1.0613e+07
1.06107e+07
1.06083e+07
1.06058e+07
1.06034e+07
1.06009e+07
1.05985e+07
1.0596e+07
1.05934e+07
1.05909e+07
1.05883e+07
1.05857e+07
1.05831e+07
1.05804e+07
1.05778e+07
1.05751e+07
1.05724e+07
1.05696e+07
1.05669e+07
1.05641e+07
1.05613e+07
1.05584e+07
1.05556e+07
1.05527e+07
1.05498e+07
1.05469e+07
1.05439e+07
1.0541e+07
1.0538e+07
1.05349e+07
1.05319e+07
1.05288e+07
1.05257e+07
1.05226e+07
1.05195e+07
1.05163e+07
1.05131e+07
1.05099e+07
1.05066e+07
1.05033e+07
1.05e+07
1.04967e+07
1.04934e+07
1.049e+07
1.04866e+07
1.04832e+07
1.04797e+07
1.04762e+07
1.04727e+07
1.04692e+07
1.04656e+07
1.0462e+07
1.04584e+07
1.04547e+07
1.0451e+07
1.04473e+07
1.04436e+07
1.04398e+07
1.0436e+07
1.04322e+07
1.04283e+07
1.04244e+07
1.04205e+07
1.04166e+07
1.04126e+07
1.04086e+07
1.04045e+07
1.04005e+07
1.03964e+07
1.03922e+07
1.03881e+07
1.03839e+07
1.03796e+07
1.03754e+07
1.03711e+07
1.03667e+07
1.03624e+07
1.0358e+07
1.03535e+07
1.0349e+07
1.03445e+07
1.034e+07
1.03354e+07
1.03308e+07
1.03262e+07
1.03215e+07
1.03168e+07
1.0312e+07
1.03072e+07
1.03024e+07
1.02976e+07
1.02927e+07
1.02877e+07
1.02828e+07
1.02778e+07
1.02727e+07
1.02677e+07
1.02626e+07
1.02574e+07
1.07174e+07
1.07174e+07
1.07173e+07
1.07172e+07
1.07171e+07
1.0717e+07
1.07168e+07
1.07166e+07
1.07163e+07
1.0716e+07
1.07157e+07
1.07153e+07
1.07149e+07
1.07145e+07
1.0714e+07
1.07135e+07
1.0713e+07
1.07124e+07
1.07118e+07
1.07112e+07
1.07105e+07
1.07098e+07
1.07091e+07
1.07083e+07
1.07075e+07
1.07066e+07
1.07057e+07
1.07048e+07
1.07039e+07
1.07029e+07
1.07019e+07
1.07008e+07
1.06997e+07
1.06986e+07
1.06975e+07
1.06963e+07
1.06951e+07
1.06939e+07
1.06926e+07
1.06913e+07
1.069e+07
1.06886e+07
1.06872e+07
1.06858e+07
1.06844e+07
1.06829e+07
1.06814e+07
1.06799e+07
1.06783e+07
1.06767e+07
1.06751e+07
1.06735e+07
1.06718e+07
1.06702e+07
1.06685e+07
1.06667e+07
1.0665e+07
1.06632e+07
1.06614e+07
1.06595e+07
1.06577e+07
1.06558e+07
1.06539e+07
1.06519e+07
1.065e+07
1.0648e+07
1.0646e+07
1.06439e+07
1.06419e+07
1.06398e+07
1.06377e+07
1.06356e+07
1.06334e+07
1.06313e+07
1.06291e+07
1.06269e+07
1.06246e+07
1.06224e+07
1.06201e+07
1.06178e+07
1.06154e+07
1.06131e+07
1.06107e+07
1.06083e+07
1.06059e+07
1.06034e+07
1.0601e+07
1.05985e+07
1.0596e+07
1.05935e+07
1.05909e+07
1.05883e+07
1.05857e+07
1.05831e+07
1.05804e+07
1.05778e+07
1.05751e+07
1.05724e+07
1.05696e+07
1.05669e+07
1.05641e+07
1.05613e+07
1.05584e+07
1.05556e+07
1.05527e+07
1.05498e+07
1.05469e+07
1.05439e+07
1.0541e+07
1.0538e+07
1.05349e+07
1.05319e+07
1.05288e+07
1.05257e+07
1.05226e+07
1.05195e+07
1.05163e+07
1.05131e+07
1.05099e+07
1.05066e+07
1.05033e+07
1.05e+07
1.04967e+07
1.04934e+07
1.049e+07
1.04866e+07
1.04832e+07
1.04797e+07
1.04762e+07
1.04727e+07
1.04692e+07
1.04656e+07
1.0462e+07
1.04584e+07
1.04547e+07
1.0451e+07
1.04473e+07
1.04436e+07
1.04398e+07
1.0436e+07
1.04322e+07
1.04283e+07
1.04244e+07
1.04205e+07
1.04166e+07
1.04126e+07
1.04086e+07
1.04045e+07
1.04005e+07
1.03964e+07
1.03922e+07
1.03881e+07
1.03839e+07
1.03796e+07
1.03754e+07
1.03711e+07
1.03667e+07
1.03624e+07
1.03579e+07
1.03535e+07
1.0349e+07
1.03445e+07
1.034e+07
1.03354e+07
1.03308e+07
1.03262e+07
1.03215e+07
1.03168e+07
1.0312e+07
1.03072e+07
1.03024e+07
1.02975e+07
1.02926e+07
1.02877e+07
1.02827e+07
1.02777e+07
1.02727e+07
1.02676e+07
1.02625e+07
1.02573e+07
1.07186e+07
1.07186e+07
1.07185e+07
1.07184e+07
1.07183e+07
1.07181e+07
1.07179e+07
1.07177e+07
1.07174e+07
1.07171e+07
1.07168e+07
1.07164e+07
1.0716e+07
1.07156e+07
1.07151e+07
1.07146e+07
1.0714e+07
1.07134e+07
1.07128e+07
1.07122e+07
1.07115e+07
1.07107e+07
1.071e+07
1.07092e+07
1.07083e+07
1.07074e+07
1.07065e+07
1.07056e+07
1.07046e+07
1.07036e+07
1.07026e+07
1.07015e+07
1.07004e+07
1.06993e+07
1.06981e+07
1.06969e+07
1.06957e+07
1.06944e+07
1.06931e+07
1.06918e+07
1.06905e+07
1.06891e+07
1.06877e+07
1.06862e+07
1.06848e+07
1.06833e+07
1.06818e+07
1.06802e+07
1.06787e+07
1.06771e+07
1.06755e+07
1.06738e+07
1.06721e+07
1.06704e+07
1.06687e+07
1.0667e+07
1.06652e+07
1.06634e+07
1.06616e+07
1.06597e+07
1.06578e+07
1.06559e+07
1.0654e+07
1.06521e+07
1.06501e+07
1.06481e+07
1.06461e+07
1.06441e+07
1.0642e+07
1.06399e+07
1.06378e+07
1.06357e+07
1.06335e+07
1.06314e+07
1.06292e+07
1.06269e+07
1.06247e+07
1.06224e+07
1.06201e+07
1.06178e+07
1.06155e+07
1.06131e+07
1.06108e+07
1.06084e+07
1.06059e+07
1.06035e+07
1.0601e+07
1.05985e+07
1.0596e+07
1.05935e+07
1.05909e+07
1.05883e+07
1.05857e+07
1.05831e+07
1.05805e+07
1.05778e+07
1.05751e+07
1.05724e+07
1.05696e+07
1.05669e+07
1.05641e+07
1.05613e+07
1.05585e+07
1.05556e+07
1.05527e+07
1.05498e+07
1.05469e+07
1.05439e+07
1.0541e+07
1.0538e+07
1.05349e+07
1.05319e+07
1.05288e+07
1.05257e+07
1.05226e+07
1.05195e+07
1.05163e+07
1.05131e+07
1.05099e+07
1.05066e+07
1.05033e+07
1.05e+07
1.04967e+07
1.04934e+07
1.049e+07
1.04866e+07
1.04832e+07
1.04797e+07