/*--------------------------------*- C++ -*----------------------------------*\
  =========                 |
  \\      /  F ield         | OpenFOAM: The Open Source CFD Toolbox
   \\    /   O peration     | Website:  https://openfoam.org
    \\  /    A nd           | Version:  10
     \\/     M anipulation  |
\*---------------------------------------------------------------------------*/
FoamFile
{
    format      ascii;
    class       volScalarField;
    location    "51";
    object      p;
}
// * * * * * * * * * * * * * * * * * * * * * * * * * * * * * * * * * * * * * //

dimensions      [1 -1 -2 0 0 0 0];

internalField   nonuniform List<scalar> 
100
(
1.02479e+07
1.02475e+07
1.0247e+07
1.02464e+07
1.02457e+07
1.0245e+07
1.02442e+07
1.02433e+07
1.02423e+07
1.02413e+07
1.02403e+07
1.02392e+07
1.02381e+07
1.02369e+07
1.02356e+07
1.02343e+07
1.0233e+07
1.02316e+07
1.02302e+07
1.02288e+07
1.02273e+07
1.02258e+07
1.02242e+07
1.02226e+07
1.02209e+07
1.02192e+07
1.02175e+07
1.02158e+07
1.0214e+07
1.02122e+07
1.02103e+07
1.02084e+07
1.02065e+07
1.02045e+07
1.02025e+07
1.02005e+07
1.01984e+07
1.01963e+07
1.01942e+07
1.01921e+07
1.01899e+07
1.01877e+07
1.01854e+07
1.01831e+07
1.01808e+07
1.01785e+07
1.01761e+07
1.01737e+07
1.01713e+07
1.01688e+07
1.01663e+07
1.01638e+07
1.01613e+07
1.01587e+07
1.01561e+07
1.01534e+07
1.01508e+07
1.01481e+07
1.01454e+07
1.01426e+07
1.01398e+07
1.0137e+07
1.01342e+07
1.01313e+07
1.01284e+07
1.01255e+07
1.01226e+07
1.01196e+07
1.01166e+07
1.01135e+07
1.01105e+07
1.01074e+07
1.01043e+07
1.01011e+07
1.00979e+07
1.00947e+07
1.00915e+07
1.00882e+07
1.0085e+07
1.00816e+07
1.00783e+07
1.00749e+07
1.00715e+07
1.0068e+07
1.00645e+07
1.0061e+07
1.00575e+07
1.00539e+07
1.00503e+07
1.00466e+07
1.00429e+07
1.00391e+07
1.00353e+07
1.00314e+07
1.00275e+07
1.00234e+07
1.00192e+07
1.00147e+07
1.00096e+07
1.00023e+07
)
;

boundaryField
{
    inlet
    {
        type            zeroGradient;
    }
    outlet
    {
        type            fixedValue;
        value           uniform 1e+07;
    }
    yzfaces
    {
        type            empty;
    }
}


// ************************************************************************* //
