/*--------------------------------*- C++ -*----------------------------------*\
  =========                 |
  \\      /  F ield         | OpenFOAM: The Open Source CFD Toolbox
   \\    /   O peration     | Website:  https://openfoam.org
    \\  /    A nd           | Version:  10
     \\/     M anipulation  |
\*---------------------------------------------------------------------------*/
FoamFile
{
    format      ascii;
    class       surfaceScalarField;
    location    "4500";
    object      phi;
}
// * * * * * * * * * * * * * * * * * * * * * * * * * * * * * * * * * * * * * //

dimensions      [0 3 -1 0 0 0 0];

internalField   nonuniform List<scalar> 
6280
(
-4.44105e-08
4.44105e-08
-8.77801e-08
4.33696e-08
-1.29887e-07
4.21067e-08
-1.70526e-07
4.06396e-08
-2.09508e-07
3.89817e-08
-2.46652e-07
3.71436e-08
-2.81785e-07
3.5133e-08
-3.14741e-07
3.29564e-08
-3.4536e-07
3.06184e-08
-3.73483e-07
2.81234e-08
-3.98958e-07
2.54753e-08
-4.21636e-07
2.2678e-08
-4.41372e-07
1.97362e-08
-4.58028e-07
1.66556e-08
-4.71471e-07
1.3443e-08
-4.81578e-07
1.0107e-08
-4.88237e-07
6.65856e-09
-4.91347e-07
3.11064e-09
-4.90826e-07
-5.20893e-10
-4.86609e-07
-4.21723e-09
-4.78653e-07
-7.95641e-09
-4.66939e-07
-1.17132e-08
-4.5148e-07
-1.54593e-08
-4.32317e-07
-1.91629e-08
-4.09528e-07
-2.27897e-08
-3.83224e-07
-2.63031e-08
-3.5356e-07
-2.96646e-08
-3.20725e-07
-3.2835e-08
-2.84949e-07
-3.57754e-08
-2.46501e-07
-3.84482e-08
-2.05683e-07
-4.08186e-08
-1.62827e-07
-4.28558e-08
-1.18293e-07
-4.45343e-08
-7.24577e-08
-4.58349e-08
-2.57116e-08
-4.67461e-08
2.15524e-08
-4.7264e-08
6.89455e-08
-4.73931e-08
1.16092e-07
-4.71461e-08
1.62634e-07
-4.65428e-08
-4.56098e-08
2.08244e-07
-4.49644e-08
8.93749e-08
-8.88872e-08
8.72924e-08
-1.31555e-07
8.47745e-08
-1.72771e-07
8.18556e-08
-2.12351e-07
7.8562e-08
-2.50121e-07
7.49137e-08
-2.85914e-07
7.09261e-08
-3.19569e-07
6.66105e-08
-3.50926e-07
6.19759e-08
-3.79832e-07
5.70297e-08
-4.06136e-07
5.17786e-08
-4.29687e-07
4.62293e-08
-4.5034e-07
4.03895e-08
-4.67953e-07
3.42688e-08
-4.82389e-07
2.78788e-08
-4.93517e-07
2.12346e-08
-5.01213e-07
1.43551e-08
-5.05366e-07
7.2635e-09
-5.05876e-07
-1.14924e-11
-5.02657e-07
-7.43553e-09
-4.95646e-07
-1.4968e-08
-4.84798e-07
-2.25614e-08
-4.70095e-07
-3.01618e-08
-4.5155e-07
-3.77081e-08
-4.29207e-07
-4.51329e-08
-4.03147e-07
-5.23628e-08
-3.73492e-07
-5.93199e-08
-3.40404e-07
-6.59229e-08
-3.0409e-07
-7.20891e-08
-2.64801e-07
-7.77369e-08
-2.22832e-07
-8.27885e-08
-1.78515e-07
-8.71724e-08
-1.32222e-07
-9.08271e-08
-8.43537e-08
-9.37033e-08
-3.53327e-08
-9.57671e-08
1.44046e-08
-9.70013e-08
6.4419e-08
-9.74075e-08
1.14278e-07
-9.70055e-08
1.63569e-07
-9.58332e-08
-9.39443e-08
2.11903e-07
-4.60525e-08
1.35427e-07
-9.10626e-08
1.32302e-07
-1.34833e-07
1.28545e-07
-1.77183e-07
1.24206e-07
-2.17942e-07
1.19321e-07
-2.56947e-07
1.13919e-07
-2.94043e-07
1.08022e-07
-3.29076e-07
1.01644e-07
-3.61897e-07
9.47968e-08
-3.92357e-07
8.74894e-08
-4.20307e-07
7.9729e-08
-4.45601e-07
7.15226e-08
-4.68089e-07
6.28784e-08
-4.87627e-07
5.38062e-08
-5.04067e-07
4.43188e-08
-5.17265e-07
3.44332e-08
-5.27082e-07
2.41713e-08
-5.33379e-07
1.3561e-08
-5.36028e-07
2.63737e-09
-5.34907e-07
-8.55628e-09
-5.29908e-07
-1.99676e-08
-5.20935e-07
-3.15343e-08
-5.07913e-07
-4.31831e-08
-4.90792e-07
-5.48296e-08
-4.69547e-07
-6.63779e-08
-4.44189e-07
-7.77206e-08
-4.14769e-07
-8.874e-08
-3.81383e-07
-9.93091e-08
-3.44178e-07
-1.09294e-07
-3.03356e-07
-1.18558e-07
-2.59182e-07
-1.26963e-07
-2.11977e-07
-1.34377e-07
-1.62125e-07
-1.40679e-07
-1.10065e-07
-1.45763e-07
-5.62858e-08
-1.49546e-07
-1.31372e-09
-1.51973e-07
5.43005e-08
-1.53022e-07
1.09998e-07
-1.52703e-07
1.65228e-07
-1.51063e-07
-1.48184e-07
2.19467e-07
-4.76358e-08
1.83063e-07
-9.42285e-08
1.78895e-07
-1.39606e-07
1.73923e-07
-1.8361e-07
1.68209e-07
-2.26089e-07
1.618e-07
-2.66902e-07
1.54731e-07
-3.05906e-07
1.47027e-07
-3.42966e-07
1.38704e-07
-3.77944e-07
1.29774e-07
-4.107e-07
1.20246e-07
-4.41094e-07
1.10124e-07
-4.68984e-07
9.94127e-08
-4.94223e-07
8.81174e-08
-5.16661e-07
7.6244e-08
-5.36144e-07
6.38013e-08
-5.52513e-07
5.08021e-08
-5.65606e-07
3.72645e-08
-5.75258e-07
2.3213e-08
-5.813e-07
8.67993e-09
-5.83564e-07
-6.29289e-09
-5.81879e-07
-2.16528e-08
-5.76078e-07
-3.73347e-08
-5.66002e-07
-5.32591e-08
-5.51501e-07
-6.93306e-08
-5.32442e-07
-8.54367e-08
-5.08717e-07
-1.01446e-07
-4.8025e-07
-1.17207e-07
-4.47009e-07
-1.3255e-07
-4.09017e-07
-1.47286e-07
-3.66366e-07
-1.61209e-07
-3.19227e-07
-1.74102e-07
-2.67864e-07
-1.8574e-07
-2.12641e-07
-1.95902e-07
-1.54026e-07
-2.04378e-07
-9.25906e-08
-2.10981e-07
-2.90014e-08
-2.15563e-07
3.59987e-08
-2.18022e-07
1.01615e-07
-2.18319e-07
1.67032e-07
-2.1648e-07
-2.12603e-07
2.31451e-07
-4.96563e-08
2.32719e-07
-9.82693e-08
2.27508e-07
-1.457e-07
2.21354e-07
-1.9182e-07
2.14329e-07
-2.36506e-07
2.06486e-07
-2.7964e-07
1.97865e-07
-3.21105e-07
1.88492e-07
-3.60784e-07
1.78383e-07
-3.98558e-07
1.67548e-07
-4.34306e-07
1.55993e-07
-4.67899e-07
1.43718e-07
-4.99207e-07
1.30721e-07
-5.2809e-07
1.17e-07
-5.544e-07
1.02554e-07
-5.77981e-07
8.73819e-08
-5.98665e-07
7.14863e-08
-6.16274e-07
5.48737e-08
-6.30617e-07
3.75559e-08
-6.41489e-07
1.95515e-08
-6.48669e-07
8.87555e-10
-6.51924e-07
-1.83985e-08
-6.51002e-07
-3.82565e-08
-6.4564e-07
-5.86213e-08
-6.35561e-07
-7.94091e-08
-6.20483e-07
-1.00515e-07
-6.00122e-07
-1.21807e-07
-5.74203e-07
-1.43126e-07
-5.42477e-07
-1.64277e-07
-5.04734e-07
-1.85029e-07
-4.60833e-07
-2.05111e-07
-4.10721e-07
-2.24213e-07
-3.54473e-07
-2.41989e-07
-2.92314e-07
-2.58061e-07
-2.24654e-07
-2.72038e-07
-1.52107e-07
-2.83528e-07
-7.55002e-08
-2.9217e-07
4.13541e-09
-2.97658e-07
8.5596e-08
-2.99779e-07
1.67561e-07
-2.98446e-07
-2.93713e-07
2.48672e-07
-5.20375e-08
2.84757e-07
-1.03033e-07
2.78504e-07
-1.52888e-07
2.71209e-07
-2.01511e-07
2.62951e-07
-2.48812e-07
2.53787e-07
-2.94704e-07
2.43758e-07
-3.39102e-07
2.32889e-07
-3.81914e-07
2.21195e-07
-4.23048e-07
2.08682e-07
-4.62406e-07
1.95351e-07
-4.99882e-07
1.81194e-07
-5.35364e-07
1.66203e-07
-5.68729e-07
1.50365e-07
-5.99843e-07
1.33668e-07
-6.28559e-07
1.16097e-07
-6.54713e-07
9.76405e-08
-6.78125e-07
7.82857e-08
-6.98593e-07
5.80239e-08
-7.15891e-07
3.68495e-08
-7.29765e-07
1.47618e-08
-7.39929e-07
-8.23393e-09
-7.46062e-07
-3.21238e-08
-7.478e-07
-5.68832e-08
-7.44736e-07
-8.24727e-08
-7.36417e-07
-1.08834e-07
-7.22342e-07
-1.35883e-07
-7.01967e-07
-1.63501e-07
-6.74715e-07
-1.91528e-07
-6.39995e-07
-2.19748e-07
-5.97229e-07
-2.47877e-07
-5.45892e-07
-2.75549e-07
-4.85575e-07
-3.02306e-07
-4.16051e-07
-3.27585e-07
-3.37362e-07
-3.50727e-07
-2.4991e-07
-3.70981e-07
-1.54537e-07
-3.87542e-07
-5.25851e-08
-3.9961e-07
5.40982e-08
-4.06463e-07
1.63224e-07
-4.07572e-07
-4.02705e-07
2.72216e-07
-5.46865e-08
3.39443e-07
-1.08335e-07
3.32152e-07
-1.60892e-07
3.23766e-07
-2.12309e-07
3.14368e-07
-2.62537e-07
3.04016e-07
-3.11527e-07
2.92748e-07
-3.59227e-07
2.80589e-07
-4.05582e-07
2.6755e-07
-4.50531e-07
2.53632e-07
-4.94009e-07
2.38829e-07
-5.35942e-07
2.23126e-07
-5.76245e-07
2.06506e-07
-6.14826e-07
1.88946e-07
-6.51577e-07
1.70419e-07
-6.86378e-07
1.50898e-07
-7.19089e-07
1.30352e-07
-7.49551e-07
1.08748e-07
-7.77579e-07
8.60521e-08
-8.0296e-07
6.22301e-08
-8.25443e-07
3.72449e-08
-8.44735e-07
1.10584e-08
-8.60491e-07
-1.63685e-08
-8.72298e-07
-4.50754e-08
-8.7967e-07
-7.51011e-08
-8.82023e-07
-1.0648e-07
-8.78667e-07
-1.39239e-07
-8.6878e-07
-1.73387e-07
-8.51405e-07
-2.08904e-07
-8.25431e-07
-2.45723e-07
-7.89607e-07
-2.83701e-07
-7.42566e-07
-3.2259e-07
-6.82885e-07
-3.61987e-07
-6.09191e-07
-4.01279e-07
-5.20325e-07
-4.39593e-07
-4.15572e-07
-4.75733e-07
-2.94957e-07
-5.08158e-07
-1.59572e-07
-5.34994e-07
-1.18854e-08
-5.5415e-07
1.44096e-07
-5.63553e-07
-5.61566e-07
3.02957e-07
-5.7496e-08
3.96939e-07
-1.13959e-07
3.88615e-07
-1.69389e-07
3.79196e-07
-2.23782e-07
3.68762e-07
-2.77135e-07
3.57369e-07
-3.29442e-07
3.45054e-07
-3.8069e-07
3.31837e-07
-4.30867e-07
3.17726e-07
-4.7995e-07
3.02715e-07
-5.27913e-07
2.86792e-07
-5.74722e-07
2.69935e-07
-6.20333e-07
2.52118e-07
-6.64695e-07
2.33308e-07
-7.07743e-07
2.13467e-07
-7.49399e-07
1.92555e-07
-7.89573e-07
1.70525e-07
-8.28153e-07
1.47328e-07
-8.65008e-07
1.22907e-07
-8.99981e-07
9.72028e-08
-9.32882e-07
7.01462e-08
-9.63483e-07
4.1659e-08
-9.91502e-07
1.16507e-08
-1.01659e-06
-1.99853e-08
-1.03832e-06
-5.33758e-08
-1.05613e-06
-8.86722e-08
-1.06931e-06
-1.26056e-07
-1.07696e-06
-1.65739e-07
-1.07789e-06
-2.07969e-07
-1.0706e-06
-2.53019e-07
-1.05313e-06
-3.0117e-07
-1.02304e-06
-3.52678e-07
-9.77314e-07
-4.07711e-07
-9.12358e-07
-4.66236e-07
-8.24091e-07
-5.27859e-07
-7.08244e-07
-5.91581e-07
-5.60933e-07
-6.55469e-07
-3.79664e-07
-7.16264e-07
-1.64818e-07
-7.68995e-07
7.84421e-08
-8.06814e-07
-8.21514e-07
3.3839e-07
-6.03481e-08
4.57288e-07
-1.19671e-07
4.47939e-07
-1.78023e-07
4.37547e-07
-2.3545e-07
4.26189e-07
-2.91998e-07
4.13916e-07
-3.47704e-07
4.0076e-07
-4.02604e-07
3.86737e-07
-4.56726e-07
3.71848e-07
-5.10095e-07
3.56084e-07
-5.62729e-07
3.39426e-07
-6.14641e-07
3.21846e-07
-6.65835e-07
3.03312e-07
-7.16311e-07
2.83784e-07
-7.66059e-07
2.63215e-07
-8.15061e-07
2.41557e-07
-8.6329e-07
2.18754e-07
-9.10709e-07
1.94746e-07
-9.5727e-07
1.69468e-07
-1.00291e-06
1.42846e-07
-1.04756e-06
1.14798e-07
-1.09114e-06
8.52305e-08
-1.13352e-06
5.40319e-08
-1.17457e-06
2.10669e-08
-1.21411e-06
-1.38337e-08
-1.2519e-06
-5.08868e-08
-1.28758e-06
-9.03759e-08
-1.32064e-06
-1.32677e-07
-1.35032e-06
-1.7829e-07
-1.37545e-06
-2.27886e-07
-1.39427e-06
-2.82352e-07
-1.4041e-06
-3.42852e-07
-1.40093e-06
-4.1088e-07
-1.37888e-06
-4.88281e-07
-1.32954e-06
-5.77206e-07
-1.24122e-06
-6.79893e-07
-1.09858e-06
-7.98113e-07
-8.82912e-07
-9.3193e-07
-5.74687e-07
-1.07722e-06
-1.60621e-07
-1.22088e-06
-1.33191e-06
3.49772e-07
-6.3118e-08
5.20406e-07
-1.25221e-07
5.10042e-07
-1.86417e-07
4.98743e-07
-2.46805e-07
4.86577e-07
-3.06477e-07
4.73589e-07
-3.6552e-07
4.59803e-07
-4.24015e-07
4.45231e-07
-4.82036e-07
4.2987e-07
-5.39656e-07
4.13704e-07
-5.96942e-07
3.96711e-07
-6.53956e-07
3.7886e-07
-7.10756e-07
3.60113e-07
-7.67398e-07
3.40426e-07
-8.23932e-07
3.19749e-07
-8.80406e-07
2.98031e-07
-9.36864e-07
2.75212e-07
-9.93351e-07
2.51234e-07
-1.04991e-06
2.2603e-07
-1.1066e-06
1.99535e-07
-1.16348e-06
1.71677e-07
-1.22063e-06
1.4238e-07
-1.27816e-06
1.11564e-07
-1.33623e-06
7.91344e-08
-1.39505e-06
4.4983e-08
-1.45491e-06
8.97207e-09
-1.5162e-06
-2.90821e-08
-1.57944e-06
-6.94393e-08
-1.64525e-06
-1.12482e-07
-1.71434e-06
-1.58793e-07
-1.78742e-06
-2.09274e-07
-1.86493e-06
-2.65337e-07
-1.94659e-06
-3.29221e-07
-2.03038e-06
-4.04492e-07
-2.11072e-06
-4.96866e-07
-2.17505e-06
-6.15566e-07
-2.1976e-06
-7.75564e-07
-2.12821e-06
-1.00132e-06
-1.87244e-06
-1.33299e-06
-1.25646e-06
-1.83686e-06
-2.62268e-06
3.43056e-08
-6.568e-08
5.86086e-07
-1.30357e-07
5.74719e-07
-1.94191e-07
5.62577e-07
-2.5733e-07
5.49717e-07
-3.19916e-07
5.36174e-07
-3.82079e-07
5.21967e-07
-4.43947e-07
5.07099e-07
-5.05641e-07
4.91564e-07
-5.6728e-07
4.75343e-07
-6.2898e-07
4.58411e-07
-6.90853e-07
4.40733e-07
-7.53011e-07
4.22271e-07
-8.15565e-07
4.0298e-07
-8.78625e-07
3.82809e-07
-9.42299e-07
3.61705e-07
-1.0067e-06
3.39614e-07
-1.07195e-06
3.16478e-07
-1.13816e-06
2.92241e-07
-1.20547e-06
2.66848e-07
-1.27404e-06
2.40251e-07
-1.34407e-06
2.12411e-07
-1.41581e-06
1.83302e-07
-1.4896e-06
1.5292e-07
-1.5659e-06
1.21289e-07
-1.6454e-06
8.84734e-08
-1.72908e-06
5.45922e-08
-1.81835e-06
1.98347e-08
-1.91532e-06
-1.55139e-08
-2.02307e-06
-5.10411e-08
-2.14619e-06
-8.61594e-08
-2.29149e-06
-1.20034e-07
-2.46925e-06
-1.51464e-07
-2.69506e-06
-1.7868e-07
-2.99294e-06
-1.98983e-07
-3.4004e-06
-2.08104e-07
-3.97692e-06
-1.99049e-07
-4.81822e-06
-1.60019e-07
-6.08048e-06
-7.07285e-08
-8.02145e-06
1.04113e-07
4.08371e-07
-1.10525e-05
-6.79125e-08
6.53998e-07
-1.34834e-07
6.41641e-07
-2.00974e-07
6.28717e-07
-2.66526e-07
6.15269e-07
-3.31674e-07
6.01321e-07
-3.96592e-07
5.86885e-07
-4.6145e-07
5.71957e-07
-5.26412e-07
5.56526e-07
-5.91642e-07
5.40573e-07
-6.573e-07
5.24069e-07
-7.23548e-07
5.06981e-07
-7.90546e-07
4.8927e-07
-8.58459e-07
4.70892e-07
-9.27448e-07
4.51798e-07
-9.97679e-07
4.31937e-07
-1.06932e-06
4.11255e-07
-1.14254e-06
3.89696e-07
-1.2175e-06
3.67208e-07
-1.2944e-06
3.43739e-07
-1.37339e-06
3.19248e-07
-1.45469e-06
2.93707e-07
-1.5385e-06
2.67113e-07
-1.62508e-06
2.39496e-07
-1.71473e-06
2.10945e-07
-1.80788e-06
1.81625e-07
-1.90511e-06
1.51819e-07
-2.00725e-06
1.21974e-07
-2.11553e-06
9.27705e-08
-2.23179e-06
6.52127e-08
-2.3587e-06
4.0754e-08
-2.5002e-06
2.14632e-08
-2.66191e-06
1.02451e-08
-2.85172e-06
1.11299e-08
-3.08035e-06
2.96464e-08
-3.36175e-06
7.32942e-08
-3.71291e-06
1.52119e-07
-4.15231e-06
2.79377e-07
-4.69526e-06
4.72225e-07
-5.3434e-06
7.52248e-07
1.11586e-06
-6.05088e-06
-6.97045e-08
7.23702e-07
-1.38431e-07
7.10367e-07
-2.0643e-07
6.96716e-07
-2.73934e-07
6.82773e-07
-3.41165e-07
6.68552e-07
-4.08333e-07
6.54053e-07
-4.75646e-07
6.39269e-07
-5.43305e-07
6.24185e-07
-6.11512e-07
6.0878e-07
-6.8047e-07
5.93026e-07
-7.5038e-07
5.76892e-07
-8.21451e-07
5.60341e-07
-8.93892e-07
5.43332e-07
-9.67916e-07
5.25821e-07
-1.04374e-06
5.07758e-07
-1.12157e-06
4.8909e-07
-1.20164e-06
4.6976e-07
-1.28414e-06
4.49708e-07
-1.36927e-06
4.28872e-07
-1.45721e-06
4.07187e-07
-1.5481e-06
3.84594e-07
-1.64202e-06
3.61037e-07
-1.739e-06
3.36475e-07
-1.83894e-06
3.10891e-07
-1.94163e-06
2.84311e-07
-2.04663e-06
2.56822e-07
-2.15327e-06
2.28611e-07
-2.26051e-06
2.00012e-07
-2.36687e-06
1.71567e-07
-2.47022e-06
1.44111e-07
-2.56764e-06
1.18883e-07
-2.65504e-06
9.76419e-08
-2.72671e-06
8.2802e-08
-2.7746e-06
7.75374e-08
-2.78712e-06
8.58097e-08
-2.74721e-06
1.12213e-07
-2.62931e-06
1.61472e-07
-2.39441e-06
2.37332e-07
-1.98265e-06
3.40479e-07
4.34037e-07
-1.30083e-06
-7.09607e-08
7.94663e-07
-1.40956e-07
7.80363e-07
-2.10268e-07
7.66028e-07
-2.79161e-07
7.51666e-07
-3.47885e-07
7.37275e-07
-4.16679e-07
7.22848e-07
-4.8578e-07
7.0837e-07
-5.55419e-07
6.93824e-07
-6.25828e-07
6.7919e-07
-6.97244e-07
6.64442e-07
-7.69904e-07
6.49552e-07
-8.44054e-07
6.34491e-07
-9.19945e-07
6.19224e-07
-9.97837e-07
6.03712e-07
-1.07799e-06
5.87914e-07
-1.16068e-06
5.71781e-07
-1.24618e-06
5.55258e-07
-1.33475e-06
5.3828e-07
-1.42665e-06
5.2077e-07
-1.5221e-06
5.02637e-07
-1.62128e-06
4.83767e-07
-1.72426e-06
4.64024e-07
-1.83102e-06
4.43237e-07
-1.94132e-06
4.21191e-07
-2.05464e-06
3.97622e-07
-2.17001e-06
3.72194e-07
-2.28589e-06
3.44494e-07
-2.39989e-06
3.14011e-07
-2.50845e-06
2.80129e-07
-2.60646e-06
2.42125e-07
-2.68677e-06
1.9919e-07
-2.73962e-06
1.50494e-07
-2.75214e-06
9.53153e-08
-2.70789e-06
3.32888e-08
-2.5869e-06
-3.51786e-08
-2.36643e-06
-1.08255e-07
-2.02321e-06
-1.81747e-07
-1.53798e-06
-2.47898e-07
-9.03359e-07
-2.94143e-07
-2.70459e-07
-1.98863e-07
-7.1607e-08
8.6627e-07
-1.4226e-07
8.51016e-07
-2.12264e-07
8.36031e-07
-2.819e-07
8.21303e-07
-3.5144e-07
8.06815e-07
-4.21142e-07
7.92549e-07
-4.91259e-07
7.78487e-07
-5.62045e-07
7.6461e-07
-6.33751e-07
7.50897e-07
-7.06636e-07
7.37327e-07
-7.80964e-07
7.2388e-07
-8.57007e-07
7.10534e-07
-9.3505e-07
6.97267e-07
-1.01539e-06
6.84053e-07
-1.09834e-06
6.70866e-07
-1.18423e-06
6.57671e-07
-1.2734e-06
6.44431e-07
-1.36622e-06
6.31093e-07
-1.46304e-06
6.17593e-07
-1.56425e-06
6.03843e-07
-1.67021e-06
5.89724e-07
-1.78125e-06
5.75073e-07
-1.89768e-06
5.59664e-07
-2.01967e-06
5.43183e-07
-2.14724e-06
5.25194e-07
-2.28014e-06
5.05088e-07
-2.41766e-06
4.82015e-07
-2.55844e-06
4.54791e-07
-2.70009e-06
4.21775e-07
-2.83866e-06
3.80696e-07
-2.96792e-06
3.2845e-07
-3.07827e-06
2.60842e-07
-3.15527e-06
1.72322e-07
-3.17776e-06
5.57746e-08
-3.11548e-06
-9.74541e-08
-2.9268e-06
-2.96942e-07
-2.55729e-06
-5.51257e-07
-1.94184e-06
-8.63341e-07
-1.01533e-06
-1.22066e-06
-1.40948e-06
1.23688e-07
-7.1594e-08
9.37864e-07
-1.42245e-07
9.21667e-07
-2.12266e-07
9.06052e-07
-2.81948e-07
8.90986e-07
-3.5157e-07
8.76437e-07
-4.21398e-07
8.62377e-07
-4.91693e-07
8.48783e-07
-5.62715e-07
8.35632e-07
-6.34725e-07
8.22906e-07
-7.07988e-07
8.1059e-07
-7.82779e-07
7.98671e-07
-8.59383e-07
7.87139e-07
-9.38103e-07
7.75987e-07
-1.01926e-06
7.65208e-07
-1.10319e-06
7.54799e-07
-1.19027e-06
7.44755e-07
-1.28091e-06
7.3507e-07
-1.37556e-06
7.25736e-07
-1.4747e-06
7.16736e-07
-1.5789e-06
7.08044e-07
-1.68879e-06
6.99617e-07
-1.80511e-06
6.91385e-07
-1.92868e-06
6.83241e-07
-2.06052e-06
6.75021e-07
-2.20181e-06
6.6648e-07
-2.35397e-06
6.57254e-07
-2.51876e-06
6.46801e-07
-2.69828e-06
6.34311e-07
-2.89507e-06
6.18569e-07
-3.1121e-06
5.97724e-07
-3.35256e-06
5.68911e-07
-3.61933e-06
5.27609e-07
-3.91356e-06
4.6655e-07
-4.2316e-06
3.73819e-07
-4.55861e-06
2.29553e-07
-4.85574e-06
1.87114e-10
-5.0354e-06
-3.71593e-07
-4.91442e-06
-9.8432e-07
-4.12731e-06
-2.00777e-06
-5.51114e-06
-2.56472e-08
-7.08996e-08
1.00876e-06
-1.40866e-07
9.91633e-07
-2.10208e-07
9.75395e-07
-2.79216e-07
9.59994e-07
-3.48163e-07
9.45384e-07
-4.17312e-07
9.31526e-07
-4.86918e-07
9.18389e-07
-5.57236e-07
9.05949e-07
-6.28519e-07
8.94189e-07
-7.01026e-07
8.83097e-07
-7.75024e-07
8.72669e-07
-8.50789e-07
8.62905e-07
-9.28616e-07
8.53813e-07
-1.00882e-06
8.45409e-07
-1.09173e-06
8.37714e-07
-1.17774e-06
8.30758e-07
-1.26724e-06
8.24576e-07
-1.36072e-06
8.19217e-07
-1.45872e-06
8.14735e-07
-1.56188e-06
8.11199e-07
-1.67095e-06
8.0869e-07
-1.78687e-06
8.0731e-07
-1.91082e-06
8.07184e-07
-2.04427e-06
8.0847e-07
-2.18917e-06
8.1138e-07
-2.34812e-06
8.16205e-07
-2.52467e-06
8.23359e-07
-2.72382e-06
8.33462e-07
-2.95272e-06
8.47468e-07
-3.22189e-06
8.66892e-07
-3.54718e-06
8.942e-07
-3.95305e-06
9.33483e-07
-4.47812e-06
9.91619e-07
-5.18462e-06
1.08032e-06
-6.17472e-06
1.21965e-06
-7.61878e-06
1.44424e-06
-9.80436e-06
1.814e-06
-1.32214e-05
2.43268e-06
-1.86239e-05
3.39481e-06
-2.57926e-05
1.65748e-06
-6.95297e-08
1.07829e-06
-1.38135e-07
1.06024e-06
-2.06111e-07
1.04337e-06
-2.73733e-07
1.02762e-06
-3.4126e-07
1.01291e-06
-4.08937e-07
9.99204e-07
-4.77006e-07
9.86458e-07
-5.45701e-07
9.74644e-07
-6.15255e-07
9.63743e-07
-6.85902e-07
9.53745e-07
-7.57882e-07
9.44649e-07
-8.31442e-07
9.36464e-07
-9.06839e-07
9.2921e-07
-9.84345e-07
9.22915e-07
-1.06425e-06
9.17621e-07
-1.14688e-06
9.13382e-07
-1.23257e-06
9.1027e-07
-1.32173e-06
9.08372e-07
-1.41479e-06
9.07802e-07
-1.51229e-06
9.087e-07
-1.61485e-06
9.11242e-07
-1.72319e-06
9.15653e-07
-1.83822e-06
9.22217e-07
-1.96106e-06
9.31303e-07
-2.09306e-06
9.43388e-07
-2.23596e-06
9.59099e-07
-2.39186e-06
9.79264e-07
-2.56339e-06
1.00499e-06
-2.75365e-06
1.03773e-06
-2.96622e-06
1.07946e-06
-3.20477e-06
1.13275e-06
-3.47223e-06
1.20095e-06
-3.76891e-06
1.2883e-06
-4.08842e-06
1.39983e-06
-4.40973e-06
1.54096e-06
-4.68171e-06
1.71622e-06
-4.79385e-06
1.92614e-06
-4.522e-06
2.16083e-06
-3.17743e-06
2.05025e-06
-3.00768e-05
1.10685e-06
-6.75163e-08
1.14581e-06
-1.34118e-07
1.12684e-06
-2.00075e-07
1.10933e-06
-2.65639e-07
1.09318e-06
-3.31045e-07
1.07832e-06
-3.96513e-07
1.06467e-06
-4.62257e-07
1.0522e-06
-5.28482e-07
1.04087e-06
-5.95389e-07
1.03065e-06
-6.63176e-07
1.02153e-06
-7.32039e-07
1.01351e-06
-8.02175e-07
1.0066e-06
-8.73783e-07
1.00082e-06
-9.47067e-07
9.96199e-07
-1.02223e-06
9.92788e-07
-1.0995e-06
9.90648e-07
-1.17909e-06
9.8986e-07
-1.26124e-06
9.90522e-07
-1.3462e-06
9.92761e-07
-1.43423e-06
9.96732e-07
-1.52562e-06
1.00263e-06
-1.62065e-06
1.01068e-06
-1.71962e-06
1.02119e-06
-1.82284e-06
1.03452e-06
-1.93055e-06
1.0511e-06
-2.04292e-06
1.07147e-06
-2.15993e-06
1.09628e-06
-2.28124e-06
1.12629e-06
-2.40592e-06
1.1624e-06
-2.53206e-06
1.20561e-06
-2.65626e-06
1.25695e-06
-2.77274e-06
1.31743e-06
-2.87226e-06
1.38781e-06
-2.94076e-06
1.46833e-06
-2.95802e-06
1.55822e-06
-2.89693e-06
1.65513e-06
-2.72521e-06
1.75441e-06
-2.413e-06
1.84861e-06
-1.7566e-06
1.39385e-06
-3.24473e-05
6.13843e-07
-6.49148e-08
1.21072e-06
-1.28926e-07
1.19085e-06
-1.92272e-07
1.17267e-06
-2.55172e-07
1.15608e-06
-3.17829e-07
1.14097e-06
-3.80432e-07
1.12728e-06
-4.43161e-07
1.11493e-06
-5.06186e-07
1.10389e-06
-5.69665e-07
1.09413e-06
-6.33754e-07
1.08562e-06
-6.98597e-07
1.07835e-06
-7.64332e-07
1.07234e-06
-8.31092e-07
1.06758e-06
-8.98997e-07
1.0641e-06
-9.68158e-07
1.06195e-06
-1.03867e-06
1.06116e-06
-1.11063e-06
1.06181e-06
-1.18407e-06
1.06397e-06
-1.25904e-06
1.06773e-06
-1.33553e-06
1.07322e-06
-1.41347e-06
1.08056e-06
-1.49271e-06
1.08993e-06
-1.57302e-06
1.1015e-06
-1.654e-06
1.1155e-06
-1.73507e-06
1.13217e-06
-1.81538e-06
1.15178e-06
-1.89371e-06
1.1746e-06
-1.96833e-06
1.20092e-06
-2.03691e-06
1.23098e-06
-2.09626e-06
1.26496e-06
-2.1422e-06
1.30288e-06
-2.16934e-06
1.34457e-06
-2.17105e-06
1.38952e-06
-2.1395e-06
1.43678e-06
-2.06608e-06
1.48481e-06
-1.94238e-06
1.53143e-06
-1.76177e-06
1.57381e-06
-1.52172e-06
1.60856e-06
-1.14613e-06
1.01827e-06
-3.40439e-05
4.50443e-07
-6.17987e-08
1.27252e-06
-1.22709e-07
1.25176e-06
-1.82929e-07
1.2329e-06
-2.42644e-07
1.21579e-06
-3.02019e-07
1.20035e-06
-3.61209e-07
1.18647e-06
-4.20355e-07
1.17408e-06
-4.79588e-07
1.16313e-06
-5.39026e-07
1.15357e-06
-5.98777e-07
1.14537e-06
-6.58935e-07
1.13851e-06
-7.19582e-07
1.13298e-06
-7.80783e-07
1.12878e-06
-8.42586e-07
1.12591e-06
-9.05016e-07
1.12438e-06
-9.6807e-07
1.12422e-06
-1.03171e-06
1.12545e-06
-1.09586e-06
1.12812e-06
-1.16038e-06
1.13225e-06
-1.22506e-06
1.1379e-06
-1.28962e-06
1.14512e-06
-1.35366e-06
1.15396e-06
-1.41662e-06
1.16446e-06
-1.4778e-06
1.17668e-06
-1.53626e-06
1.19063e-06
-1.59082e-06
1.20634e-06
-1.63998e-06
1.22377e-06
-1.68191e-06
1.24285e-06
-1.71437e-06
1.26344e-06
-1.73473e-06
1.28532e-06
-1.73999e-06
1.30814e-06
-1.72685e-06
1.33143e-06
-1.69188e-06
1.35456e-06
-1.63184e-06
1.37674e-06
-1.54405e-06
1.39702e-06
-1.42695e-06
1.41433e-06
-1.28066e-06
1.42752e-06
-1.10757e-06
1.43546e-06
-8.65285e-07
7.75988e-07
-3.53412e-05
4.32059e-07
-5.82546e-08
1.33078e-06
-1.15639e-07
1.30915e-06
-1.72312e-07
1.28957e-06
-2.28417e-07
1.2719e-06
-2.84083e-07
1.25601e-06
-3.39428e-07
1.24181e-06
-3.94557e-07
1.22921e-06
-4.4956e-07
1.21813e-06
-5.04517e-07
1.20852e-06
-5.59493e-07
1.20035e-06
-6.1454e-07
1.19356e-06
-6.69692e-07
1.18813e-06
-7.24962e-07
1.18405e-06
-7.80344e-07
1.18129e-06
-8.35802e-07
1.17984e-06
-8.91269e-07
1.17969e-06
-9.4664e-07
1.18082e-06
-1.00176e-06
1.18324e-06
-1.05642e-06
1.18691e-06
-1.11033e-06
1.19182e-06
-1.16313e-06
1.19792e-06
-1.21435e-06
1.20518e-06
-1.26339e-06
1.21351e-06
-1.30954e-06
1.22282e-06
-1.35188e-06
1.23298e-06
-1.38934e-06
1.2438e-06
-1.42064e-06
1.25507e-06
-1.4443e-06
1.26651e-06
-1.45862e-06
1.27777e-06
-1.46175e-06
1.28845e-06
-1.45172e-06
1.29811e-06
-1.42653e-06
1.30624e-06
-1.38432e-06
1.31235e-06
-1.32358e-06
1.316e-06
-1.24339e-06
1.31682e-06
-1.14373e-06
1.31467e-06
-1.02584e-06
1.30963e-06
-8.92509e-07
1.30213e-06
-7.03023e-07
5.86502e-07
-3.65169e-05
4.72703e-07
-5.43759e-08
1.38515e-06
-1.07905e-07
1.36268e-06
-1.60705e-07
1.34237e-06
-2.12879e-07
1.32407e-06
-2.6452e-07
1.30765e-06
-3.15709e-07
1.293e-06
-3.66515e-07
1.28001e-06
-4.16996e-07
1.26861e-06
-4.67196e-07
1.25872e-06
-5.17146e-07
1.2503e-06
-5.66863e-07
1.24328e-06
-6.16348e-07
1.23762e-06
-6.65581e-07
1.23328e-06
-7.14524e-07
1.23023e-06
-7.63112e-07
1.22843e-06
-8.11255e-07
1.22783e-06
-8.58827e-07
1.2284e-06
-9.05668e-07
1.23008e-06
-9.5157e-07
1.23281e-06
-9.96276e-07
1.23652e-06
-1.03947e-06
1.24112e-06
-1.08077e-06
1.24648e-06
-1.11972e-06
1.25246e-06
-1.15577e-06
1.25887e-06
-1.18828e-06
1.26549e-06
-1.21651e-06
1.27203e-06
-1.23959e-06
1.27815e-06
-1.25655e-06
1.28346e-06
-1.26627e-06
1.28749e-06
-1.2675e-06
1.28968e-06
-1.25884e-06
1.28945e-06
-1.23875e-06
1.28615e-06
-1.20554e-06
1.27914e-06
-1.1574e-06
1.26786e-06
-1.09248e-06
1.2519e-06
-1.00905e-06
1.23124e-06
-9.05883e-07
1.20646e-06
-7.8292e-07
1.17917e-06
-5.88995e-07
3.92578e-07
-3.76491e-05
5.43121e-07
-5.02581e-08
1.43541e-06
-9.96989e-08
1.41212e-06
-1.48398e-07
1.39107e-06
-1.96422e-07
1.3721e-06
-2.43827e-07
1.35506e-06
-2.90662e-07
1.33983e-06
-3.36964e-07
1.32631e-06
-3.82761e-07
1.31441e-06
-4.28068e-07
1.30403e-06
-4.72891e-07
1.29512e-06
-5.17222e-07
1.28761e-06
-5.61039e-07
1.28144e-06
-6.04308e-07
1.27655e-06
-6.46977e-07
1.2729e-06
-6.88978e-07
1.27043e-06
-7.30225e-07
1.26908e-06
-7.70615e-07
1.26878e-06
-8.1002e-07
1.26948e-06
-8.48294e-07
1.27109e-06
-8.8527e-07
1.2735e-06
-9.20757e-07
1.27661e-06
-9.54545e-07
1.28027e-06
-9.86405e-07
1.28432e-06
-1.01609e-06
1.28855e-06
-1.04334e-06
1.29273e-06
-1.06787e-06
1.29656e-06
-1.0894e-06
1.29968e-06
-1.10761e-06
1.30167e-06
-1.12212e-06
1.302e-06
-1.13248e-06
1.30004e-06
-1.13805e-06
1.29501e-06
-1.13785e-06
1.28596e-06
-1.13039e-06
1.27168e-06
-1.11324e-06
1.25071e-06
-1.08251e-06
1.22117e-06
-1.03204e-06
1.18078e-06
-9.52313e-07
1.12673e-06
-8.2889e-07
1.05574e-06
-4.95503e-07
5.91903e-08
-3.87808e-05
6.36283e-07
-4.59946e-08
1.48141e-06
-9.12059e-08
1.45733e-06
-1.35671e-07
1.43553e-06
-1.79421e-07
1.41585e-06
-2.22481e-07
1.39812e-06
-2.64867e-07
1.38222e-06
-3.06591e-07
1.36804e-06
-3.47654e-07
1.35547e-06
-3.88048e-07
1.34443e-06
-4.27759e-07
1.33483e-06
-4.66763e-07
1.32661e-06
-5.05024e-07
1.3197e-06
-5.42502e-07
1.31403e-06
-5.79144e-07
1.30954e-06
-6.14891e-07
1.30617e-06
-6.49678e-07
1.30386e-06
-6.83433e-07
1.30254e-06
-7.16083e-07
1.30213e-06
-7.47555e-07
1.30256e-06
-7.77786e-07
1.30373e-06
-8.06724e-07
1.30554e-06
-8.34341e-07
1.30788e-06
-8.60645e-07
1.31062e-06
-8.85695e-07
1.3136e-06
-9.0962e-07
1.31666e-06
-9.32644e-07
1.31959e-06
-9.55113e-07
1.32215e-06
-9.77527e-07
1.32408e-06
-1.00057e-06
1.32505e-06
-1.02516e-06
1.32463e-06
-1.05245e-06
1.3223e-06
-1.08383e-06
1.31733e-06
-1.12088e-06
1.30873e-06
-1.16518e-06
1.29501e-06
-1.21794e-06
1.27393e-06
-1.27914e-06
1.24197e-06
-1.34597e-06
1.19356e-06
-1.40978e-06
1.11955e-06
-4.12312e-07
-9.38274e-07
-3.99428e-05
7.49673e-07
-4.16731e-08
1.52308e-06
-8.26017e-08
1.49826e-06
-1.22787e-07
1.47572e-06
-1.62229e-07
1.45529e-06
-2.00922e-07
1.43681e-06
-2.38858e-07
1.42016e-06
-2.76022e-07
1.4052e-06
-3.12394e-07
1.39184e-06
-3.47948e-07
1.37998e-06
-3.82652e-07
1.36954e-06
-4.1647e-07
1.36043e-06
-4.49358e-07
1.35259e-06
-4.8127e-07
1.34594e-06
-5.12158e-07
1.34043e-06
-5.41971e-07
1.33599e-06
-5.7066e-07
1.33255e-06
-5.98182e-07
1.33006e-06
-6.24504e-07
1.32845e-06
-6.49609e-07
1.32766e-06
-6.73504e-07
1.32762e-06
-6.96228e-07
1.32827e-06
-7.17871e-07
1.32953e-06
-7.38587e-07
1.33134e-06
-7.58614e-07
1.33363e-06
-7.78312e-07
1.33636e-06
-7.98194e-07
1.33947e-06
-8.18984e-07
1.34294e-06
-8.41695e-07
1.3468e-06
-8.67731e-07
1.35108e-06
-8.9905e-07
1.35595e-06
-9.38397e-07
1.36165e-06
-9.89677e-07
1.36861e-06
-1.05852e-06
1.37758e-06
-1.15321e-06
1.3897e-06
-1.28617e-06
1.40688e-06
-1.47637e-06
1.43217e-06
-1.75335e-06
1.47054e-06
-2.16348e-06
1.52968e-06
-3.74e-07
-2.72775e-06
-4.1134e-05
8.1715e-07
-3.73741e-08
1.56045e-06
-7.4046e-08
1.53493e-06
-1.09986e-07
1.51166e-06
-1.45165e-07
1.49047e-06
-1.79552e-07
1.4712e-06
-2.13115e-07
1.45372e-06
-2.45817e-07
1.4379e-06
-2.77621e-07
1.42364e-06
-3.08483e-07
1.41084e-06
-3.38358e-07
1.39941e-06
-3.67196e-07
1.38927e-06
-3.94947e-07
1.38034e-06
-4.21558e-07
1.37255e-06
-4.46978e-07
1.36585e-06
-4.71158e-07
1.36017e-06
-4.94056e-07
1.35545e-06
-5.15636e-07
1.35164e-06
-5.35879e-07
1.3487e-06
-5.54783e-07
1.34657e-06
-5.72372e-07
1.34521e-06
-5.88702e-07
1.3446e-06
-6.03873e-07
1.3447e-06
-6.18039e-07
1.3455e-06
-6.31424e-07
1.34702e-06
-6.44334e-07
1.34927e-06
-6.57184e-07
1.35232e-06
-6.70516e-07
1.35628e-06
-6.85031e-07
1.36131e-06
-7.01622e-07
1.36767e-06
-7.21412e-07
1.37574e-06
-7.45794e-07
1.38603e-06
-7.76459e-07
1.39928e-06
-8.154e-07
1.41652e-06
-8.64846e-07
1.43915e-06
-9.27041e-07
1.46908e-06
-1.00372e-06
1.50885e-06
-1.09497e-06
1.56179e-06
-1.19548e-06
1.63019e-06
-4.10939e-07
-3.51229e-06
-4.23711e-05
8.26156e-07
-3.31688e-08
1.59362e-06
-6.5681e-08
1.56744e-06
-9.74796e-08
1.54346e-06
-1.28511e-07
1.5215e-06
-1.58721e-07
1.50141e-06
-1.88059e-07
1.48306e-06
-2.16469e-07
1.46631e-06
-2.43895e-07
1.45107e-06
-2.70282e-07
1.43723e-06
-2.95568e-07
1.4247e-06
-3.19693e-07
1.41339e-06
-3.42596e-07
1.40324e-06
-3.64215e-07
1.39417e-06
-3.8449e-07
1.38612e-06
-4.03364e-07
1.37904e-06
-4.20786e-07
1.37287e-06
-4.36711e-07
1.36757e-06
-4.51106e-07
1.36309e-06
-4.63948e-07
1.35941e-06
-4.75233e-07
1.3565e-06
-4.84974e-07
1.35434e-06
-4.93205e-07
1.35293e-06
-4.99983e-07
1.35228e-06
-5.05388e-07
1.35242e-06
-5.09519e-07
1.3534e-06
-5.12486e-07
1.35528e-06
-5.14396e-07
1.35819e-06
-5.15325e-07
1.36224e-06
-5.15278e-07
1.36763e-06
-5.14111e-07
1.37457e-06
-5.11427e-07
1.38334e-06
-5.06402e-07
1.39425e-06
-4.97523e-07
1.40764e-06
-4.82198e-07
1.42382e-06
-4.56175e-07
1.44306e-06
-4.12708e-07
1.46538e-06
-3.41362e-07
1.49045e-06
-2.25084e-07
1.51391e-06
-5.04741e-07
-3.23263e-06
-4.36637e-05
7.87876e-07
-2.91187e-08
1.62274e-06
-5.76284e-08
1.59595e-06
-8.54499e-08
1.57128e-06
-1.12509e-07
1.54856e-06
-1.38733e-07
1.52763e-06
-1.64053e-07
1.50838e-06
-1.88399e-07
1.49066e-06
-2.11701e-07
1.47437e-06
-2.33888e-07
1.45942e-06
-2.54888e-07
1.4457e-06
-2.74628e-07
1.43313e-06
-2.93033e-07
1.42165e-06
-3.10032e-07
1.41117e-06
-3.2555e-07
1.40164e-06
-3.39516e-07
1.39301e-06
-3.5186e-07
1.38522e-06
-3.62516e-07
1.37822e-06
-3.71422e-07
1.372e-06
-3.7852e-07
1.36651e-06
-3.83757e-07
1.36173e-06
-3.87082e-07
1.35766e-06
-3.88446e-07
1.35429e-06
-3.87797e-07
1.35163e-06
-3.85073e-07
1.3497e-06
-3.80188e-07
1.34851e-06
-3.7302e-07
1.34812e-06
-3.63383e-07
1.34855e-06
-3.50994e-07
1.34985e-06
-3.35424e-07
1.35206e-06
-3.16041e-07
1.35519e-06
-2.91923e-07
1.35923e-06
-2.61763e-07
1.3641e-06
-2.23755e-07
1.36963e-06
-1.75465e-07
1.37553e-06
-1.13725e-07
1.38132e-06
-3.4574e-08
1.38623e-06
6.66767e-08
1.38919e-06
1.9484e-07
1.38575e-06
-5.48012e-07
-2.48978e-06
-4.49718e-05
7.60089e-07
-2.52742e-08
1.64802e-06
-4.99889e-08
1.62066e-06
-7.40472e-08
1.59534e-06
-9.73586e-08
1.57187e-06
-1.19837e-07
1.55011e-06
-1.41399e-07
1.52994e-06
-1.61961e-07
1.51122e-06
-1.81443e-07
1.49386e-06
-1.99761e-07
1.47773e-06
-2.16834e-07
1.46277e-06
-2.32575e-07
1.44887e-06
-2.46901e-07
1.43597e-06
-2.59724e-07
1.42399e-06
-2.70958e-07
1.41288e-06
-2.80514e-07
1.40256e-06
-2.88301e-07