/*--------------------------------*- C++ -*----------------------------------*\
  =========                 |
  \\      /  F ield         | OpenFOAM: The Open Source CFD Toolbox
   \\    /   O peration     | Website:  https://openfoam.org
    \\  /    A nd           | Version:  10
     \\/     M anipulation  |
\*---------------------------------------------------------------------------*/
FoamFile
{
    format      ascii;
    class       volVectorField;
    location    "24700";
    object      Ub;
}
// * * * * * * * * * * * * * * * * * * * * * * * * * * * * * * * * * * * * * //

dimensions      [0 1 -1 0 0 0 0];

internalField   nonuniform List<vector> 
6400
(
(-2.95485e-06 4.94875e-07 0)
(-1.10083e-05 9.59322e-07 0)
(-4.16838e-05 5.14504e-06 0)
(-7.35758e-05 1.24277e-06 0)
(-8.04502e-05 8.1064e-08 0)
(-8.16362e-05 1.00366e-07 0)
(-8.28386e-05 9.40891e-08 0)
(-8.32555e-05 -5.21814e-08 0)
(-8.28251e-05 -7.27195e-08 0)
(-8.19527e-05 -1.37778e-07 0)
(-8.09249e-05 -1.00908e-07 0)
(-8.02145e-05 -7.04685e-08 0)
(-7.96129e-05 -7.64667e-08 0)
(-7.88071e-05 -1.10054e-07 0)
(-7.78994e-05 -9.55291e-08 0)
(-7.69e-05 -1.2728e-07 0)
(-7.51251e-05 -2.51941e-07 0)
(-7.27366e-05 -2.50919e-07 0)
(-7.0812e-05 -1.56708e-07 0)
(-6.94402e-05 -1.3773e-07 0)
(-6.76593e-05 -2.39106e-07 0)
(-6.43558e-05 -4.46586e-07 0)
(-6.04906e-05 -3.52711e-07 0)
(-5.78328e-05 -2.00632e-07 0)
(-5.62607e-05 -1.31548e-07 0)
(-5.4898e-05 -1.57638e-07 0)
(-5.28033e-05 -2.79973e-07 0)
(-4.92221e-05 -4.59459e-07 0)
(-4.4156e-05 -5.81508e-07 0)
(-3.90655e-05 -4.64138e-07 0)
(-3.52591e-05 -3.2024e-07 0)
(-3.23349e-05 -2.84576e-07 0)
(-3.01755e-05 -3.6401e-07 0)
(-2.84192e-05 -4.49357e-07 0)
(-2.61996e-05 -5.758e-07 0)
(-2.3333e-05 -7.45206e-07 0)
(-1.9645e-05 -9.51456e-07 0)
(-1.50205e-05 -1.17345e-06 0)
(-9.47945e-06 -1.37063e-06 0)
(-3.24667e-06 -1.48979e-06 0)
(3.24667e-06 -1.48979e-06 0)
(9.47945e-06 -1.37063e-06 0)
(1.50205e-05 -1.17345e-06 0)
(1.9645e-05 -9.51456e-07 0)
(2.3333e-05 -7.45206e-07 0)
(2.61996e-05 -5.758e-07 0)
(2.84192e-05 -4.49357e-07 0)
(3.01755e-05 -3.6401e-07 0)
(3.23349e-05 -2.84576e-07 0)
(3.52591e-05 -3.2024e-07 0)
(3.90655e-05 -4.64138e-07 0)
(4.4156e-05 -5.81508e-07 0)
(4.92221e-05 -4.59459e-07 0)
(5.28033e-05 -2.79973e-07 0)
(5.4898e-05 -1.57638e-07 0)
(5.62607e-05 -1.31548e-07 0)
(5.78328e-05 -2.00632e-07 0)
(6.04906e-05 -3.52711e-07 0)
(6.43558e-05 -4.46586e-07 0)
(6.76593e-05 -2.39106e-07 0)
(6.94402e-05 -1.3773e-07 0)
(7.0812e-05 -1.56708e-07 0)
(7.27366e-05 -2.50919e-07 0)
(7.51251e-05 -2.51941e-07 0)
(7.69e-05 -1.2728e-07 0)
(7.78994e-05 -9.55291e-08 0)
(7.88071e-05 -1.10054e-07 0)
(7.96129e-05 -7.64667e-08 0)
(8.02145e-05 -7.04685e-08 0)
(8.09249e-05 -1.00908e-07 0)
(8.19527e-05 -1.37778e-07 0)
(8.28251e-05 -7.27195e-08 0)
(8.32555e-05 -5.21814e-08 0)
(8.28386e-05 9.40891e-08 0)
(8.16362e-05 1.00366e-07 0)
(8.04502e-05 8.1064e-08 0)
(7.35758e-05 1.24277e-06 0)
(4.16838e-05 5.14504e-06 0)
(1.10083e-05 9.59322e-07 0)
(2.95485e-06 4.94875e-07 0)
(-2.72526e-06 1.59269e-06 0)
(-9.59841e-06 2.83501e-06 0)
(-4.01525e-05 1.6175e-05 0)
(-7.22451e-05 3.75747e-06 0)
(-7.83305e-05 2.57094e-07 0)
(-7.9419e-05 3.60644e-07 0)
(-8.07537e-05 3.37866e-07 0)
(-8.12617e-05 -1.29531e-07 0)
(-8.09046e-05 -1.89499e-07 0)
(-8.01051e-05 -4.00189e-07 0)
(-7.91342e-05 -2.84861e-07 0)
(-7.84946e-05 -1.92384e-07 0)
(-7.79595e-05 -2.13301e-07 0)
(-7.72009e-05 -3.21878e-07 0)
(-7.63422e-05 -2.74211e-07 0)
(-7.54198e-05 -3.70927e-07 0)
(-7.36968e-05 -7.65888e-07 0)
(-7.13291e-05 -7.62248e-07 0)
(-6.94563e-05 -4.65363e-07 0)
(-6.81687e-05 -4.05634e-07 0)
(-6.6484e-05 -7.1893e-07 0)
(-6.32124e-05 -1.37735e-06 0)
(-5.93519e-05 -1.07759e-06 0)
(-5.67571e-05 -6.03438e-07 0)
(-5.52598e-05 -3.90717e-07 0)
(-5.39697e-05 -4.7137e-07 0)
(-5.19511e-05 -8.50116e-07 0)
(-4.84378e-05 -1.40837e-06 0)
(-4.34005e-05 -1.79305e-06 0)
(-3.83444e-05 -1.422e-06 0)
(-3.46233e-05 -9.72958e-07 0)
(-3.1805e-05 -8.61663e-07 0)
(-2.97318e-05 -1.10456e-06 0)
(-2.80427e-05 -1.36629e-06 0)
(-2.5901e-05 -1.75519e-06 0)
(-2.31209e-05 -2.27824e-06 0)
(-1.952e-05 -2.91829e-06 0)
(-1.49689e-05 -3.61145e-06 0)
(-9.47162e-06 -4.23124e-06 0)
(-3.24916e-06 -4.60794e-06 0)
(3.24916e-06 -4.60794e-06 0)
(9.47162e-06 -4.23124e-06 0)
(1.49689e-05 -3.61145e-06 0)
(1.952e-05 -2.91829e-06 0)
(2.31209e-05 -2.27824e-06 0)
(2.5901e-05 -1.75519e-06 0)
(2.80427e-05 -1.36629e-06 0)
(2.97318e-05 -1.10456e-06 0)
(3.1805e-05 -8.61663e-07 0)
(3.46233e-05 -9.72958e-07 0)
(3.83444e-05 -1.422e-06 0)
(4.34005e-05 -1.79305e-06 0)
(4.84378e-05 -1.40837e-06 0)
(5.19511e-05 -8.50116e-07 0)
(5.39697e-05 -4.7137e-07 0)
(5.52598e-05 -3.90717e-07 0)
(5.67571e-05 -6.03438e-07 0)
(5.93519e-05 -1.07759e-06 0)
(6.32124e-05 -1.37735e-06 0)
(6.6484e-05 -7.1893e-07 0)
(6.81687e-05 -4.05634e-07 0)
(6.94563e-05 -4.65363e-07 0)
(7.13291e-05 -7.62248e-07 0)
(7.36968e-05 -7.65888e-07 0)
(7.54198e-05 -3.70927e-07 0)
(7.63422e-05 -2.74211e-07 0)
(7.72009e-05 -3.21878e-07 0)
(7.79595e-05 -2.13301e-07 0)
(7.84946e-05 -1.92384e-07 0)
(7.91342e-05 -2.84861e-07 0)
(8.01051e-05 -4.00189e-07 0)
(8.09046e-05 -1.89499e-07 0)
(8.12617e-05 -1.29531e-07 0)
(8.07537e-05 3.37866e-07 0)
(7.9419e-05 3.60644e-07 0)
(7.83305e-05 2.57094e-07 0)
(7.22451e-05 3.75747e-06 0)
(4.01525e-05 1.6175e-05 0)
(9.59841e-06 2.83501e-06 0)
(2.72526e-06 1.59269e-06 0)
(-2.25976e-06 1.04495e-06 0)
(-6.6386e-06 3.4913e-06 0)
(-3.79424e-05 2.88474e-05 0)
(-7.16766e-05 5.98305e-06 0)
(-7.6363e-05 2.9171e-07 0)
(-7.73612e-05 6.66195e-07 0)
(-7.90182e-05 6.31937e-07 0)
(-7.96792e-05 -2.2893e-07 0)
(-7.93998e-05 -3.04168e-07 0)
(-7.86681e-05 -6.99113e-07 0)
(-7.77275e-05 -4.81735e-07 0)
(-7.71697e-05 -3.18432e-07 0)
(-7.67151e-05 -3.57356e-07 0)
(-7.59905e-05 -5.60283e-07 0)
(-7.51711e-05 -4.60907e-07 0)
(-7.43579e-05 -6.19575e-07 0)
(-7.26655e-05 -1.34402e-06 0)
(-7.02401e-05 -1.33211e-06 0)
(-6.84014e-05 -7.88131e-07 0)
(-6.72431e-05 -6.7729e-07 0)
(-6.57091e-05 -1.22093e-06 0)
(-6.23957e-05 -2.4369e-06 0)
(-5.84169e-05 -1.87263e-06 0)
(-5.58801e-05 -1.02738e-06 0)
(-5.44981e-05 -6.57962e-07 0)
(-5.33249e-05 -7.97375e-07 0)
(-5.14141e-05 -1.45956e-06 0)
(-4.79529e-05 -2.4462e-06 0)
(-4.28373e-05 -3.14636e-06 0)
(-3.77172e-05 -2.46471e-06 0)
(-3.40881e-05 -1.66364e-06 0)
(-3.14319e-05 -1.46485e-06 0)
(-2.94963e-05 -1.87797e-06 0)
(-2.79141e-05 -2.32634e-06 0)
(-2.58929e-05 -2.99701e-06 0)
(-2.32383e-05 -3.90696e-06 0)
(-1.97451e-05 -5.03324e-06 0)
(-1.52463e-05 -6.27014e-06 0)
(-9.7073e-06 -7.39308e-06 0)
(-3.3427e-06 -8.08466e-06 0)
(3.3427e-06 -8.08466e-06 0)
(9.7073e-06 -7.39308e-06 0)
(1.52463e-05 -6.27014e-06 0)
(1.97451e-05 -5.03324e-06 0)
(2.32383e-05 -3.90696e-06 0)
(2.58929e-05 -2.99701e-06 0)
(2.79141e-05 -2.32634e-06 0)
(2.94963e-05 -1.87797e-06 0)
(3.14319e-05 -1.46485e-06 0)
(3.40881e-05 -1.66364e-06 0)
(3.77172e-05 -2.46471e-06 0)
(4.28373e-05 -3.14636e-06 0)
(4.79529e-05 -2.4462e-06 0)
(5.14141e-05 -1.45956e-06 0)
(5.33249e-05 -7.97375e-07 0)
(5.44981e-05 -6.57962e-07 0)
(5.58801e-05 -1.02738e-06 0)
(5.84169e-05 -1.87263e-06 0)
(6.23957e-05 -2.4369e-06 0)
(6.57091e-05 -1.22093e-06 0)
(6.72431e-05 -6.7729e-07 0)
(6.84014e-05 -7.88131e-07 0)
(7.02401e-05 -1.33211e-06 0)
(7.26655e-05 -1.34402e-06 0)
(7.43579e-05 -6.19575e-07 0)
(7.51711e-05 -4.60907e-07 0)
(7.59905e-05 -5.60283e-07 0)
(7.67151e-05 -3.57356e-07 0)
(7.71697e-05 -3.18432e-07 0)
(7.77275e-05 -4.81735e-07 0)
(7.86681e-05 -6.99113e-07 0)
(7.93998e-05 -3.04168e-07 0)
(7.96792e-05 -2.2893e-07 0)
(7.90182e-05 6.31937e-07 0)
(7.73612e-05 6.66195e-07 0)
(7.6363e-05 2.9171e-07 0)
(7.16766e-05 5.98305e-06 0)
(3.79424e-05 2.88474e-05 0)
(6.6386e-06 3.4913e-06 0)
(2.25976e-06 1.04495e-06 0)
(-1.29007e-17 -5.03461e-16 0)
(-1.31782e-10 1.65412e-06 0)
(-2.28897e-05 1.78444e-05 0)
(-5.65468e-05 3.48875e-06 0)
(-6.91648e-05 1.31975e-07 0)
(-7.31036e-05 1.16705e-06 0)
(-7.65454e-05 1.0792e-06 0)
(-7.78588e-05 -3.39406e-07 0)
(-7.78501e-05 -3.79472e-07 0)
(-7.72774e-05 -1.0431e-06 0)
(-7.63834e-05 -6.78174e-07 0)
(-7.59587e-05 -4.32463e-07 0)
(-7.56291e-05 -4.95605e-07 0)
(-7.49364e-05 -8.32148e-07 0)
(-7.41548e-05 -6.41856e-07 0)
(-7.35142e-05 -8.48552e-07 0)
(-7.18401e-05 -2.01426e-06 0)
(-6.92606e-05 -1.98076e-06 0)
(-6.74458e-05 -1.10772e-06 0)
(-6.64882e-05 -9.2786e-07 0)
(-6.51985e-05 -1.7199e-06 0)
(-6.17575e-05 -3.69825e-06 0)
(-5.75041e-05 -2.751e-06 0)
(-5.50387e-05 -1.45552e-06 0)
(-5.3835e-05 -9.14603e-07 0)
(-5.28426e-05 -1.11697e-06 0)
(-5.10922e-05 -2.09912e-06 0)
(-4.76821e-05 -3.58939e-06 0)
(-4.23614e-05 -4.70232e-06 0)
(-3.70615e-05 -3.60288e-06 0)
(-3.35527e-05 -2.37418e-06 0)
(-3.11426e-05 -2.07002e-06 0)
(-2.94172e-05 -2.65419e-06 0)
(-2.7999e-05 -3.29579e-06 0)
(-2.61637e-05 -4.26635e-06 0)
(-2.37018e-05 -5.60299e-06 0)
(-2.03675e-05 -7.29047e-06 0)
(-1.59227e-05 -9.18961e-06 0)
(-1.02536e-05 -1.09614e-05 0)
(-3.55582e-06 -1.20792e-05 0)
(3.55582e-06 -1.20792e-05 0)
(1.02536e-05 -1.09614e-05 0)
(1.59227e-05 -9.18961e-06 0)
(2.03675e-05 -7.29047e-06 0)
(2.37018e-05 -5.60299e-06 0)
(2.61637e-05 -4.26635e-06 0)
(2.7999e-05 -3.29579e-06 0)
(2.94172e-05 -2.65419e-06 0)
(3.11426e-05 -2.07002e-06 0)
(3.35527e-05 -2.37418e-06 0)
(3.70615e-05 -3.60288e-06 0)
(4.23614e-05 -4.70232e-06 0)
(4.76821e-05 -3.58939e-06 0)
(5.10922e-05 -2.09912e-06 0)
(5.28426e-05 -1.11697e-06 0)
(5.3835e-05 -9.14603e-07 0)
(5.50387e-05 -1.45552e-06 0)
(5.75041e-05 -2.751e-06 0)
(6.17575e-05 -3.69825e-06 0)
(6.51985e-05 -1.7199e-06 0)
(6.64882e-05 -9.2786e-07 0)
(6.74458e-05 -1.10772e-06 0)
(6.92606e-05 -1.98076e-06 0)
(7.18401e-05 -2.01426e-06 0)
(7.35142e-05 -8.48552e-07 0)
(7.41548e-05 -6.41856e-07 0)
(7.49364e-05 -8.32148e-07 0)
(7.56291e-05 -4.95605e-07 0)
(7.59587e-05 -4.32463e-07 0)
(7.63834e-05 -6.78174e-07 0)
(7.72774e-05 -1.0431e-06 0)
(7.78501e-05 -3.79472e-07 0)
(7.78588e-05 -3.39406e-07 0)
(7.65454e-05 1.0792e-06 0)
(7.31036e-05 1.16705e-06 0)
(6.91648e-05 1.31975e-07 0)
(5.65468e-05 3.48875e-06 0)
(2.28897e-05 1.78444e-05 0)
(1.31782e-10 1.65412e-06 0)
(1.29007e-17 -5.03461e-16 0)
(-5.47211e-20 -9.87786e-16 0)
(-1.99729e-19 -9.8772e-16 0)
(3.01305e-20 -9.86874e-16 0)
(3.01637e-19 -8.21696e-16 0)
(1.1492e-19 -6.54042e-16 0)
(-2.48301e-05 7.47651e-07 0)
(-5.9223e-05 6.79586e-07 0)
(-7.08772e-05 -1.97758e-07 0)
(-7.42204e-05 -2.01007e-07 0)
(-7.51032e-05 -1.40629e-06 0)
(-7.46528e-05 -8.38061e-07 0)
(-7.45873e-05 -5.0757e-07 0)
(-7.45187e-05 -6.08308e-07 0)
(-7.38899e-05 -1.15623e-06 0)
(-7.3161e-05 -7.99168e-07 0)
(-7.28129e-05 -1.01644e-06 0)
(-7.11564e-05 -2.8289e-06 0)
(-6.82852e-05 -2.74508e-06 0)
(-6.64894e-05 -1.39791e-06 0)
(-6.58392e-05 -1.12278e-06 0)
(-6.49494e-05 -2.16752e-06 0)
(-6.12615e-05 -5.29154e-06 0)
(-5.65048e-05 -3.72931e-06 0)
(-5.41509e-05 -1.8611e-06 0)
(-5.32169e-05 -1.13561e-06 0)
(-5.24909e-05 -1.40366e-06 0)
(-5.0978e-05 -2.75399e-06 0)
(-4.76342e-05 -4.85901e-06 0)
(-4.19334e-05 -6.56226e-06 0)
(-3.62935e-05 -4.84837e-06 0)
(-3.29596e-05 -3.0748e-06 0)
(-3.09107e-05 -2.64232e-06 0)
(-2.94874e-05 -3.38807e-06 0)
(-2.83085e-05 -4.22126e-06 0)
(-2.67507e-05 -5.5027e-06 0)
(-2.45865e-05 -7.30797e-06 0)
(-2.15084e-05 -9.65821e-06 0)
(-1.71564e-05 -1.2408e-05 0)
(-1.126e-05 -1.50902e-05 0)
(-3.95226e-06 -1.68528e-05 0)
(3.95226e-06 -1.68528e-05 0)
(1.126e-05 -1.50902e-05 0)
(1.71564e-05 -1.2408e-05 0)
(2.15084e-05 -9.65821e-06 0)
(2.45865e-05 -7.30797e-06 0)
(2.67507e-05 -5.5027e-06 0)
(2.83085e-05 -4.22126e-06 0)
(2.94874e-05 -3.38807e-06 0)
(3.09107e-05 -2.64232e-06 0)
(3.29596e-05 -3.0748e-06 0)
(3.62935e-05 -4.84837e-06 0)
(4.19334e-05 -6.56226e-06 0)
(4.76342e-05 -4.85901e-06 0)
(5.0978e-05 -2.75399e-06 0)
(5.24909e-05 -1.40366e-06 0)
(5.32169e-05 -1.13561e-06 0)
(5.41509e-05 -1.8611e-06 0)
(5.65048e-05 -3.72931e-06 0)
(6.12615e-05 -5.29154e-06 0)
(6.49494e-05 -2.16752e-06 0)
(6.58392e-05 -1.12278e-06 0)
(6.64894e-05 -1.39791e-06 0)
(6.82852e-05 -2.74508e-06 0)
(7.11564e-05 -2.8289e-06 0)
(7.28129e-05 -1.01644e-06 0)
(7.3161e-05 -7.99168e-07 0)
(7.38899e-05 -1.15623e-06 0)
(7.45187e-05 -6.08308e-07 0)
(7.45873e-05 -5.0757e-07 0)
(7.46528e-05 -8.38061e-07 0)
(7.51032e-05 -1.40629e-06 0)
(7.42204e-05 -2.01007e-07 0)
(7.08772e-05 -1.97758e-07 0)
(5.9223e-05 6.79586e-07 0)
(2.48301e-05 7.47651e-07 0)
(-1.1492e-19 -6.54042e-16 0)
(-3.01637e-19 -8.21696e-16 0)
(-3.01305e-20 -9.86874e-16 0)
(1.99729e-19 -9.8772e-16 0)
(5.47211e-20 -9.87786e-16 0)
(-4.30651e-20 -9.87756e-16 0)
(-1.26909e-19 -9.87682e-16 0)
(3.67378e-20 -9.87364e-16 0)
(2.25485e-19 -9.87647e-16 0)
(1.38435e-19 -9.87769e-16 0)
(1.48169e-19 -9.87574e-16 0)
(2.06148e-19 -8.38106e-16 0)
(9.68196e-20 -6.85416e-16 0)
(-1.62407e-05 -1.71007e-10 0)
(-4.83596e-05 -7.92073e-07 0)
(-6.67737e-05 -4.50616e-07 0)
(-7.05849e-05 -2.65199e-07 0)
(-7.23889e-05 -5.64594e-07 0)
(-7.24072e-05 -1.53934e-06 0)
(-7.19174e-05 -8.8961e-07 0)
(-7.21431e-05 -1.03318e-06 0)
(-7.05526e-05 -3.87744e-06 0)
(-6.71883e-05 -3.68321e-06 0)
(-6.54255e-05 -1.60757e-06 0)
(-6.52458e-05 -1.20878e-06 0)
(-6.5028e-05 -2.45657e-06 0)
(-6.09135e-05 -7.45531e-06 0)
(-5.5291e-05 -4.81707e-06 0)
(-5.31454e-05 -2.19435e-06 0)
(-5.26135e-05 -1.28346e-06 0)
(-5.2266e-05 -1.61486e-06 0)
(-5.11031e-05 -3.39528e-06 0)
(-4.78733e-05 -6.27466e-06 0)
(-4.15308e-05 -8.90032e-06 0)
(-3.53085e-05 -6.20657e-06 0)
(-3.22517e-05 -3.71238e-06 0)
(-3.07195e-05 -3.13008e-06 0)
(-2.97085e-05 -4.01196e-06 0)
(-2.88636e-05 -5.01873e-06 0)
(-2.7709e-05 -6.60207e-06 0)
(-2.60056e-05 -8.90542e-06 0)
(-2.33662e-05 -1.2042e-05 0)
(-1.92322e-05 -1.59338e-05 0)
(-1.30188e-05 -2.00061e-05 0)
(-4.66303e-06 -2.28681e-05 0)
(4.66303e-06 -2.28681e-05 0)
(1.30188e-05 -2.00061e-05 0)
(1.92322e-05 -1.59338e-05 0)
(2.33662e-05 -1.2042e-05 0)
(2.60056e-05 -8.90542e-06 0)
(2.7709e-05 -6.60207e-06 0)
(2.88636e-05 -5.01873e-06 0)
(2.97085e-05 -4.01196e-06 0)
(3.07195e-05 -3.13008e-06 0)
(3.22517e-05 -3.71238e-06 0)
(3.53085e-05 -6.20657e-06 0)
(4.15308e-05 -8.90032e-06 0)
(4.78733e-05 -6.27466e-06 0)
(5.11031e-05 -3.39528e-06 0)
(5.2266e-05 -1.61486e-06 0)
(5.26135e-05 -1.28346e-06 0)
(5.31454e-05 -2.19435e-06 0)
(5.5291e-05 -4.81707e-06 0)
(6.09135e-05 -7.45531e-06 0)
(6.5028e-05 -2.45657e-06 0)
(6.52458e-05 -1.20878e-06 0)
(6.54255e-05 -1.60757e-06 0)
(6.71883e-05 -3.68321e-06 0)
(7.05526e-05 -3.87744e-06 0)
(7.21431e-05 -1.03318e-06 0)
(7.19174e-05 -8.8961e-07 0)
(7.24072e-05 -1.53934e-06 0)
(7.23889e-05 -5.64594e-07 0)
(7.05849e-05 -2.65199e-07 0)
(6.67737e-05 -4.50616e-07 0)
(4.83596e-05 -7.92073e-07 0)
(1.62407e-05 -1.71007e-10 0)
(-9.68196e-20 -6.85416e-16 0)
(-2.06148e-19 -8.38106e-16 0)
(-1.48169e-19 -9.87574e-16 0)
(-1.38435e-19 -9.87769e-16 0)
(-2.25485e-19 -9.87647e-16 0)
(-3.67378e-20 -9.87364e-16 0)
(1.26909e-19 -9.87682e-16 0)
(4.30651e-20 -9.87756e-16 0)
(-3.05302e-20 -9.87732e-16 0)
(-7.40524e-20 -9.87664e-16 0)
(4.1245e-20 -9.87475e-16 0)
(1.72063e-19 -9.87643e-16 0)
(1.37154e-19 -9.87733e-16 0)
(1.45058e-19 -9.87665e-16 0)
(1.76376e-19 -9.87759e-16 0)
(1.17472e-19 -9.87809e-16 0)
(1.22453e-19 -9.87681e-16 0)
(1.86707e-19 -8.88419e-16 0)
(1.47355e-19 -7.56812e-16 0)
(-4.0119e-08 -6.70636e-16 0)
(-2.8474e-05 -2.37267e-07 0)
(-6.07349e-05 -8.7226e-07 0)
(-6.63409e-05 -4.55148e-07 0)
(-6.97125e-05 -4.94119e-07 0)
(-6.9346e-05 -5.23491e-06 0)
(-6.55602e-05 -4.86827e-06 0)
(-6.3999e-05 -1.62675e-06 0)
(-6.45834e-05 -1.10794e-06 0)
(-6.55581e-05 -2.34072e-06 0)
(-6.07404e-05 -1.06556e-05 0)
(-5.36438e-05 -5.98991e-06 0)
(-5.19354e-05 -2.36273e-06 0)
(-5.20009e-05 -1.30535e-06 0)
(-5.21762e-05 -1.68289e-06 0)
(-5.153e-05 -3.96939e-06 0)
(-4.85347e-05 -7.83953e-06 0)
(-4.1134e-05 -1.20366e-05 0)
(-3.39386e-05 -7.65905e-06 0)
(-3.13585e-05 -4.19307e-06 0)
(-3.05528e-05 -3.46209e-06 0)
(-3.00761e-05 -4.43177e-06 0)
(-2.96753e-05 -5.56403e-06 0)
(-2.90896e-05 -7.39383e-06 0)
(-2.80983e-05 -1.01723e-05 0)
(-2.62406e-05 -1.42034e-05 0)
(-2.26616e-05 -1.96566e-05 0)
(-1.61302e-05 -2.60283e-05 0)
(-5.9775e-06 -3.103e-05 0)
(5.9775e-06 -3.103e-05 0)
(1.61302e-05 -2.60283e-05 0)
(2.26616e-05 -1.96566e-05 0)
(2.62406e-05 -1.42034e-05 0)
(2.80983e-05 -1.01723e-05 0)
(2.90896e-05 -7.39383e-06 0)
(2.96753e-05 -5.56403e-06 0)
(3.00761e-05 -4.43177e-06 0)
(3.05528e-05 -3.46209e-06 0)
(3.13585e-05 -4.19307e-06 0)
(3.39386e-05 -7.65905e-06 0)
(4.1134e-05 -1.20366e-05 0)
(4.85347e-05 -7.83953e-06 0)
(5.153e-05 -3.96939e-06 0)
(5.21762e-05 -1.68289e-06 0)
(5.20009e-05 -1.30535e-06 0)
(5.19354e-05 -2.36273e-06 0)
(5.36438e-05 -5.98991e-06 0)
(6.07404e-05 -1.06556e-05 0)
(6.55581e-05 -2.34072e-06 0)
(6.45834e-05 -1.10794e-06 0)
(6.3999e-05 -1.62675e-06 0)
(6.55602e-05 -4.86827e-06 0)
(6.9346e-05 -5.23491e-06 0)
(6.97125e-05 -4.94119e-07 0)
(6.63409e-05 -4.55148e-07 0)
(6.07349e-05 -8.7226e-07 0)
(2.8474e-05 -2.37267e-07 0)
(4.0119e-08 -6.70636e-16 0)
(-1.47355e-19 -7.56812e-16 0)
(-1.86707e-19 -8.88419e-16 0)
(-1.22453e-19 -9.87681e-16 0)
(-1.17472e-19 -9.87809e-16 0)
(-1.76376e-19 -9.87759e-16 0)
(-1.45058e-19 -9.87665e-16 0)
(-1.37154e-19 -9.87733e-16 0)
(-1.72063e-19 -9.87643e-16 0)
(-4.1245e-20 -9.87475e-16 0)
(7.40524e-20 -9.87664e-16 0)
(3.05302e-20 -9.87732e-16 0)
(-1.90845e-20 -9.87713e-16 0)
(-3.69341e-20 -9.8766e-16 0)
(4.41505e-20 -9.87552e-16 0)
(1.35233e-19 -9.87648e-16 0)
(1.30126e-19 -9.87713e-16 0)
(1.38572e-19 -9.87691e-16 0)
(1.55569e-19 -9.87751e-16 0)
(1.2389e-19 -9.87784e-16 0)
(1.27823e-19 -9.87731e-16 0)
(1.6348e-19 -9.87768e-16 0)
(1.37528e-19 -9.87832e-16 0)
(7.49246e-20 -9.87806e-16 0)
(1.69501e-19 -9.85629e-16 0)
(2.41971e-19 -8.70267e-16 0)
(1.56069e-19 -7.5545e-16 0)
(-6.59261e-08 -9.13714e-16 0)
(-2.00831e-05 -2.99773e-06 0)
(-4.78864e-05 -2.76596e-06 0)
(-5.80167e-05 -7.84859e-07 0)
(-6.17223e-05 -4.99672e-07 0)
(-6.59936e-05 -1.06948e-06 0)
(-6.05666e-05 -1.5829e-05 0)
(-5.10497e-05 -7.09577e-06 0)
(-5.03638e-05 -2.19048e-06 0)
(-5.13324e-05 -1.13359e-06 0)
(-5.22178e-05 -1.4991e-06 0)
(-5.23445e-05 -4.37942e-06 0)
(-4.98777e-05 -9.49123e-06 0)
(-4.0717e-05 -1.6602e-05 0)
(-3.18791e-05 -9.11132e-06 0)
(-3.01888e-05 -4.34954e-06 0)
(-3.03947e-05 -3.5496e-06 0)
(-3.05622e-05 -4.53056e-06 0)
(-3.07138e-05 -5.69004e-06 0)
(-3.08923e-05 -7.61644e-06 0)
(-3.09802e-05 -1.07006e-05 0)
(-3.05382e-05 -1.55792e-05 0)
(-2.83765e-05 -2.30578e-05 0)
(-2.19374e-05 -3.34912e-05 0)
(-8.61104e-06 -4.33306e-05 0)
(8.61104e-06 -4.33306e-05 0)
(2.19374e-05 -3.34912e-05 0)
(2.83765e-05 -2.30578e-05 0)
(3.05382e-05 -1.55792e-05 0)
(3.09802e-05 -1.07006e-05 0)
(3.08923e-05 -7.61644e-06 0)
(3.07138e-05 -5.69004e-06 0)
(3.05622e-05 -4.53056e-06 0)
(3.03947e-05 -3.5496e-06 0)
(3.01888e-05 -4.34954e-06 0)
(3.18791e-05 -9.11132e-06 0)
(4.0717e-05 -1.6602e-05 0)
(4.98777e-05 -9.49123e-06 0)
(5.23445e-05 -4.37942e-06 0)
(5.22178e-05 -1.4991e-06 0)
(5.13324e-05 -1.13359e-06 0)
(5.03638e-05 -2.19048e-06 0)
(5.10497e-05 -7.09577e-06 0)
(6.05666e-05 -1.5829e-05 0)
(6.59936e-05 -1.06948e-06 0)
(6.17223e-05 -4.99672e-07 0)
(5.80167e-05 -7.84859e-07 0)
(4.78864e-05 -2.76596e-06 0)
(2.00831e-05 -2.99773e-06 0)
(6.59261e-08 -9.13714e-16 0)
(-1.56069e-19 -7.5545e-16 0)
(-2.41971e-19 -8.70267e-16 0)
(-1.69501e-19 -9.85629e-16 0)
(-7.49246e-20 -9.87806e-16 0)
(-1.37528e-19 -9.87832e-16 0)
(-1.6348e-19 -9.87768e-16 0)
(-1.27823e-19 -9.87731e-16 0)
(-1.2389e-19 -9.87784e-16 0)
(-1.55569e-19 -9.87751e-16 0)
(-1.38572e-19 -9.87691e-16 0)
(-1.30126e-19 -9.87713e-16 0)
(-1.35233e-19 -9.87648e-16 0)
(-4.41505e-20 -9.87552e-16 0)
(3.69341e-20 -9.8766e-16 0)
(1.90845e-20 -9.87713e-16 0)
(-9.74071e-21 -9.87702e-16 0)
(-1.18514e-20 -9.87663e-16 0)
(4.57579e-20 -9.87604e-16 0)
(1.10032e-19 -9.87658e-16 0)
(1.20276e-19 -9.87705e-16 0)
(1.30106e-19 -9.87707e-16 0)
(1.40438e-19 -9.87747e-16 0)
(1.25303e-19 -9.8777e-16 0)
(1.287e-19 -9.87748e-16 0)
(1.47737e-19 -9.87772e-16 0)
(1.32535e-19 -9.8781e-16 0)
(1.03747e-19 -9.87791e-16 0)
(1.60414e-19 -9.87705e-16 0)
(2.04074e-19 -9.8783e-16 0)
(1.59372e-19 -9.87854e-16 0)
(1.36826e-19 -9.87824e-16 0)
(1.89002e-19 -9.8591e-16 0)
(2.19721e-19 -9.12162e-16 0)
(1.89735e-19 -8.21748e-16 0)
(1.79661e-19 -7.28661e-16 0)
(1.87642e-13 -2.45245e-10 0)
(-1.25748e-05 -9.5327e-06 0)
(-3.41176e-05 -3.8002e-06 0)
(-4.54529e-05 -9.9515e-07 0)
(-4.8998e-05 -4.94997e-07 0)
(-5.15844e-05 -7.30389e-07 0)
(-5.33387e-05 -4.3806e-06 0)
(-5.23101e-05 -1.09137e-05 0)
(-4.02018e-05 -2.39285e-05 0)
(-2.85221e-05 -1.02346e-05 0)
(-2.86395e-05 -3.87978e-06 0)
(-3.024e-05 -3.30384e-06 0)
(-3.10926e-05 -4.19372e-06 0)
(-3.18509e-05 -5.21264e-06 0)
(-3.29546e-05 -6.92523e-06 0)
(-3.4567e-05 -9.8154e-06 0)
(-3.66145e-05 -1.49345e-05 0)
(-3.80368e-05 -2.4274e-05 0)
(-3.37797e-05 -4.20238e-05 0)
(-1.45981e-05 -6.48596e-05 0)
(1.45981e-05 -6.48596e-05 0)
(3.37797e-05 -4.20238e-05 0)
(3.80368e-05 -2.4274e-05 0)
(3.66145e-05 -1.49345e-05 0)
(3.4567e-05 -9.8154e-06 0)
(3.29546e-05 -6.92523e-06 0)
(3.18509e-05 -5.21264e-06 0)
(3.10926e-05 -4.19372e-06 0)
(3.024e-05 -3.30384e-06 0)
(2.86395e-05 -3.87978e-06 0)
(2.85221e-05 -1.02346e-05 0)
(4.02018e-05 -2.39285e-05 0)
(5.23101e-05 -1.09137e-05 0)
(5.33387e-05 -4.3806e-06 0)
(5.15844e-05 -7.30389e-07 0)
(4.8998e-05 -4.94997e-07 0)
(4.54529e-05 -9.9515e-07 0)
(3.41176e-05 -3.8002e-06 0)
(1.25748e-05 -9.5327e-06 0)
(-1.87642e-13 -2.45245e-10 0)
(-1.79661e-19 -7.28661e-16 0)
(-1.89735e-19 -8.21748e-16 0)
(-2.19721e-19 -9.12162e-16 0)
(-1.89002e-19 -9.8591e-16 0)
(-1.36826e-19 -9.87824e-16 0)
(-1.59372e-19 -9.87854e-16 0)
(-2.04074e-19 -9.8783e-16 0)
(-1.60414e-19 -9.87705e-16 0)
(-1.03747e-19 -9.87791e-16 0)
(-1.32535e-19 -9.8781e-16 0)
(-1.47737e-19 -9.87772e-16 0)
(-1.287e-19 -9.87748e-16 0)
(-1.25303e-19 -9.8777e-16 0)
(-1.40438e-19 -9.87747e-16 0)
(-1.30106e-19 -9.87707e-16 0)
(-1.20276e-19 -9.87705e-16 0)
(-1.10032e-19 -9.87658e-16 0)
(-4.57579e-20 -9.87604e-16 0)
(1.18514e-20 -9.87663e-16 0)
(9.74071e-21 -9.87702e-16 0)
(-2.79353e-21 -9.87696e-16 0)
(4.31015e-21 -9.87671e-16 0)
(4.62543e-20 -9.8764e-16 0)
(9.26594e-20 -9.87671e-16 0)
(1.09552e-19 -9.87704e-16 0)
(1.20726e-19 -9.87717e-16 0)
(1.28681e-19 -9.87745e-16 0)
(1.23331e-19 -9.87763e-16 0)
(1.2669e-19 -9.87758e-16 0)
(1.36977e-19 -9.87775e-16 0)
(1.2964e-19 -9.87798e-16 0)
(1.1912e-19 -9.87787e-16 0)
(1.52918e-19 -9.8775e-16 0)
(1.79301e-19 -9.87817e-16 0)
(1.58763e-19 -9.87839e-16 0)
(1.48949e-19 -9.87825e-16 0)
(1.79016e-19 -9.87803e-16 0)
(1.9837e-19 -9.87864e-16 0)
(1.84255e-19 -9.87883e-16 0)
(1.76831e-19 -9.87892e-16 0)
(1.7977e-19 -9.87901e-16 0)
(1.53087e-19 -9.87951e-16 0)
(1.32065e-19 -9.48464e-16 0)
(1.48292e-19 -8.85948e-16 0)
(1.58927e-19 -8.19068e-16 0)
(3.2229e-11 -6.66586e-08 0)
(1.97931e-09 -2.11667e-06 0)
(1.17101e-08 -5.75144e-06 0)
(-1.93242e-07 -1.42548e-05 0)
(-1.1668e-05 -5.32541e-06 0)
(-2.57504e-05 -2.07083e-06 0)
(-2.95322e-05 -2.59431e-06 0)
(-3.10461e-05 -3.28294e-06 0)
(-3.23742e-05 -3.94805e-06 0)
(-3.43864e-05 -4.96933e-06 0)
(-3.77753e-05 -6.62194e-06 0)
(-4.35918e-05 -1.00165e-05 0)
(-5.38192e-05 -1.70512e-05 0)
(-6.08765e-05 -4.58882e-05 0)
(-3.06854e-05 -0.000111092 0)
(3.06854e-05 -0.000111092 0)
(6.08765e-05 -4.58882e-05 0)
(5.38192e-05 -1.70512e-05 0)
(4.35918e-05 -1.00165e-05 0)
(3.77753e-05 -6.62194e-06 0)
(3.43864e-05 -4.96933e-06 0)
(3.23742e-05 -3.94805e-06 0)
(3.10461e-05 -3.28294e-06 0)
(2.95322e-05 -2.59431e-06 0)
(2.57504e-05 -2.07083e-06 0)
(1.1668e-05 -5.32541e-06 0)
(1.93242e-07 -1.42548e-05 0)
(-1.17101e-08 -5.75144e-06 0)
(-1.97931e-09 -2.11667e-06 0)
(-3.2229e-11 -6.66586e-08 0)
(-1.58927e-19 -8.19068e-16 0)
(-1.48292e-19 -8.85948e-16 0)
(-1.32065e-19 -9.48464e-16 0)
(-1.53087e-19 -9.87951e-16 0)
(-1.7977e-19 -9.87901e-16 0)
(-1.76831e-19 -9.87892e-16 0)
(-1.84255e-19 -9.87883e-16 0)
(-1.9837e-19 -9.87864e-16 0)
(-1.79016e-19 -9.87803e-16 0)
(-1.48949e-19 -9.87825e-16 0)
(-1.58763e-19 -9.87839e-16 0)
(-1.79301e-19 -9.87817e-16 0)
(-1.52918e-19 -9.8775e-16 0)
(-1.1912e-19 -9.87787e-16 0)
(-1.2964e-19 -9.87798e-16 0)
(-1.36977e-19 -9.87775e-16 0)
(-1.2669e-19 -9.87758e-16 0)
(-1.23331e-19 -9.87763e-16 0)
(-1.28681e-19 -9.87745e-16 0)
(-1.20726e-19 -9.87717e-16 0)
(-1.09552e-19 -9.87704e-16 0)
(-9.26594e-20 -9.87671e-16 0)
(-4.62543e-20 -9.8764e-16 0)
(-4.31015e-21 -9.87671e-16 0)
(2.79353e-21 -9.87696e-16 0)
(1.92474e-21 -9.87696e-16 0)
(1.40707e-20 -9.87681e-16 0)
(4.57788e-20 -9.87666e-16 0)
(8.03523e-20 -9.87685e-16 0)
(9.90973e-20 -9.87708e-16 0)
(1.11173e-19 -9.87724e-16 0)
(1.18828e-19 -9.87745e-16 0)
(1.19177e-19 -9.8776e-16 0)
(1.22901e-19 -9.87764e-16 0)
(1.29205e-19 -9.87777e-16 0)
(1.27194e-19 -9.87791e-16 0)
(1.25848e-19 -9.87787e-16 0)
(1.46393e-19 -9.87775e-16 0)
(1.62857e-19 -9.87812e-16 0)
(1.55643e-19 -9.8783e-16 0)
(1.53127e-19 -9.87827e-16 0)
(1.70512e-19 -9.87823e-16 0)
(1.82605e-19 -9.87859e-16 0)
(1.76715e-19 -9.87879e-16 0)
(1.71355e-19 -9.8789e-16 0)
(1.68827e-19 -9.87902e-16 0)
(1.52502e-19 -9.87928e-16 0)
(1.4051e-19 -9.87907e-16 0)
(1.49428e-19 -9.87904e-16 0)
(1.63288e-19 -9.87905e-16 0)
(1.96834e-19 -9.879e-16 0)
(2.45604e-19 -9.87949e-16 0)
(2.52337e-19 -9.88074e-16 0)
(4.83622e-20 -9.88291e-16 0)
(-6.90517e-20 -9.87821e-16 0)
(2.76001e-11 -3.50983e-07 0)
(1.58219e-10 -1.05058e-06 0)
(3.36654e-10 -1.3312e-06 0)
(5.01999e-10 -1.54779e-06 0)
(7.78581e-10 -1.8173e-06 0)
(1.54637e-09 -2.16383e-06 0)
(3.6589e-09 -3.52047e-06 0)
(1.04756e-08 -7.05615e-06 0)
(1.23568e-07 -4.17975e-05 0)
(1.15688e-07 -0.000137442 0)
(-1.15688e-07 -0.000137442 0)
(-1.23568e-07 -4.17975e-05 0)
(-1.04756e-08 -7.05615e-06 0)
(-3.6589e-09 -3.52047e-06 0)
(-1.54637e-09 -2.16383e-06 0)
(-7.78581e-10 -1.8173e-06 0)
(-5.01999e-10 -1.54779e-06 0)
(-3.36654e-10 -1.3312e-06 0)
(-1.58219e-10 -1.05058e-06 0)
(-2.76001e-11 -3.50983e-07 0)
(6.90517e-20 -9.87821e-16 0)
(-4.83622e-20 -9.88291e-16 0)
(-2.52337e-19 -9.88074e-16 0)
(-2.45604e-19 -9.87949e-16 0)
(-1.96834e-19 -9.879e-16 0)
(-1.63288e-19 -9.87905e-16 0)
(-1.49428e-19 -9.87904e-16 0)
(-1.4051e-19 -9.87907e-16 0)
(-1.52502e-19 -9.87928e-16 0)
(-1.68827e-19 -9.87902e-16 0)
(-1.71355e-19 -9.8789e-16 0)
(-1.76715e-19 -9.87879e-16 0)
(-1.82605e-19 -9.87859e-16 0)
(-1.70512e-19 -9.87823e-16 0)
(-1.53127e-19 -9.87827e-16 0)
(-1.55643e-19 -9.8783e-16 0)
(-1.62857e-19 -9.87812e-16 0)
(-1.46393e-19 -9.87775e-16 0)
(-1.25848e-19 -9.87787e-16 0)
(-1.27194e-19 -9.87791e-16 0)
(-1.29205e-19 -9.87777e-16 0)
(-1.22901e-19 -9.87764e-16 0)
(-1.19177e-19 -9.8776e-16 0)
(-1.18828e-19 -9.87745e-16 0)
(-1.11173e-19 -9.87724e-16 0)
(-9.90973e-20 -9.87708e-16 0)
(-8.03523e-20 -9.87685e-16 0)
(-4.57788e-20 -9.87666e-16 0)
(-1.40707e-20 -9.87681e-16 0)
(-1.92474e-21 -9.87696e-16 0)
(4.81786e-21 -9.877e-16 0)
(1.93956e-20 -9.87692e-16 0)
(4.4469e-20 -9.87686e-16 0)
(7.12073e-20 -9.87698e-16 0)
(8.94644e-20 -9.87715e-16 0)
(1.01911e-19 -9.8773e-16 0)
(1.10031e-19 -9.87747e-16 0)
(1.13693e-19 -9.87761e-16 0)
(1.18035e-19 -9.87768e-16 0)
(1.22967e-19 -9.87779e-16 0)
(1.24326e-19 -9.87789e-16 0)
(1.27207e-19 -9.87791e-16 0)
(1.40358e-19 -9.8779e-16 0)
(1.51334e-19 -9.87812e-16 0)
(1.50929e-19 -9.87827e-16 0)
(1.52237e-19 -9.8783e-16 0)
(1.62639e-19 -9.87835e-16 0)
(1.7026e-19 -9.87858e-16 0)
(1.68299e-19 -9.87876e-16 0)
(1.64569e-19 -9.87888e-16 0)
(1.6062e-19 -9.87901e-16 0)
(1.50669e-19 -9.87916e-16 0)
(1.44021e-19 -9.87909e-16 0)
(1.49314e-19 -9.87909e-16 0)
(1.60987e-19 -9.87913e-16 0)
(1.82807e-19 -9.87924e-16 0)
(2.05436e-19 -9.87966e-16 0)
(1.895e-19 -9.88051e-16 0)
(7.39581e-20 -9.88144e-16 0)
(2.61704e-21 -9.87981e-16 0)
(4.55365e-20 -9.87941e-16 0)
(8.35325e-20 -9.87946e-16 0)
(1.05469e-19 -9.87957e-16 0)
(1.19725e-19 -9.87967e-16 0)
(1.34725e-19 -9.87984e-16 0)
(3.64781e-16 -2.39478e-12 0)
(1.48795e-10 -4.52463e-07 0)
(8.82081e-10 -3.80981e-06 0)
(1.31905e-08 -3.76819e-05 0)
(1.24572e-08 -0.000130693 0)
(-1.24572e-08 -0.000130693 0)
(-1.31905e-08 -3.76819e-05 0)
(-8.82081e-10 -3.80981e-06 0)
(-1.48795e-10 -4.52463e-07 0)
(-3.64781e-16 -2.39478e-12 0)
(-1.34725e-19 -9.87984e-16 0)
(-1.19725e-19 -9.87967e-16 0)
(-1.05469e-19 -9.87957e-16 0)
(-8.35325e-20 -9.87946e-16 0)
(-4.55365e-20 -9.87941e-16 0)
(-2.61704e-21 -9.87981e-16 0)
(-7.39581e-20 -9.88144e-16 0)
(-1.895e-19 -9.88051e-16 0)
(-2.05436e-19 -9.87966e-16 0)
(-1.82807e-19 -9.87924e-16 0)
(-1.60987e-19 -9.87913e-16 0)
(-1.49314e-19 -9.87909e-16 0)
(-1.44021e-19 -9.87909e-16 0)
(-1.50669e-19 -9.87916e-16 0)
(-1.6062e-19 -9.87901e-16 0)
(-1.64569e-19 -9.87888e-16 0)
(-1.68299e-19 -9.87876e-16 0)
(-1.7026e-19 -9.87858e-16 0)
(-1.62639e-19 -9.87835e-16 0)
(-1.52237e-19 -9.8783e-16 0)
(-1.50929e-19 -9.87827e-16 0)
(-1.51334e-19 -9.87812e-16 0)
(-1.40358e-19 -9.8779e-16 0)
(-1.27207e-19 -9.87791e-16 0)
(-1.24326e-19 -9.87789e-16 0)
(-1.22967e-19 -9.87779e-16 0)
(-1.18035e-19 -9.87768e-16 0)
(-1.13693e-19 -9.87761e-16 0)
(-1.10031e-19 -9.87747e-16 0)
(-1.01911e-19 -9.8773e-16 0)
(-8.94644e-20 -9.87715e-16 0)
(-7.12073e-20 -9.87698e-16 0)
(-4.4469e-20 -9.87686e-16 0)
(-1.93956e-20 -9.87692e-16 0)
(-4.81786e-21 -9.877e-16 0)
(6.3558e-21 -9.87706e-16 0)
(2.17631e-20 -9.87703e-16 0)
(4.24816e-20 -9.87702e-16 0)
(6.39834e-20 -9.8771e-16 0)
(8.08213e-20 -9.87723e-16 0)
(9.31846e-20 -9.87737e-16 0)
(1.01856e-19 -9.87751e-16 0)
(1.07454e-19 -9.87763e-16 0)
(1.12503e-19 -9.87772e-16 0)
(1.17308e-19 -9.87781e-16 0)
(1.20678e-19 -9.8779e-16 0)
(1.25299e-19 -9.87794e-16 0)
(1.34458e-19 -9.87799e-16 0)
(1.42461e-19 -9.87814e-16 0)
(1.45191e-19 -9.87826e-16 0)
(1.48251e-19 -9.87833e-16 0)
(1.54925e-19 -9.87842e-16 0)
(1.59891e-19 -9.87859e-16 0)
(1.59653e-19 -9.87874e-16 0)
(1.57198e-19 -9.87887e-16 0)
(1.53603e-19 -9.87898e-16 0)
(1.47566e-19 -9.87909e-16 0)
(1.4392e-19 -9.8791e-16 0)
(1.47079e-19 -9.87913e-16 0)
(1.55105e-19 -9.87921e-16 0)
(1.67155e-19 -9.87936e-16 0)
(1.7414e-19 -9.87971e-16 0)
(1.53537e-19 -9.88025e-16 0)
(8.74021e-20 -9.88065e-16 0)
(4.3412e-20 -9.87993e-16 0)
(5.67556e-20 -9.87962e-16 0)
(7.89589e-20 -9.8796e-16 0)
(9.33733e-20 -9.87971e-16 0)
(1.00931e-19 -9.87982e-16 0)
(1.06648e-19 -9.87997e-16 0)
(1.08547e-19 -9.88019e-16 0)
(1.51679e-19 -1.70898e-15 0)
(3.68945e-10 -3.5651e-06 0)
(6.53792e-09 -3.6486e-05 0)
(6.16897e-09 -0.000128862 0)
(-6.16897e-09 -0.000128862 0)
(-6.53792e-09 -3.6486e-05 0)
(-3.68945e-10 -3.5651e-06 0)
(-1.51679e-19 -1.70898e-15 0)
(-1.08547e-19 -9.88019e-16 0)