/*--------------------------------*- C++ -*----------------------------------*\
  =========                 |
  \\      /  F ield         | OpenFOAM: The Open Source CFD Toolbox
   \\    /   O peration     | Website:  https://openfoam.org
    \\  /    A nd           | Version:  10
     \\/     M anipulation  |
\*---------------------------------------------------------------------------*/
FoamFile
{
    format      ascii;
    class       surfaceScalarField;
    location    "19800";
    object      phi;
}
// * * * * * * * * * * * * * * * * * * * * * * * * * * * * * * * * * * * * * //

dimensions      [0 3 -1 0 0 0 0];

internalField   nonuniform List<scalar> 
12640
(
-4.98313e-08
4.98313e-08
-1.04702e-07
5.48712e-08
-1.71995e-07
6.72926e-08
-2.60223e-07
8.82275e-08
-1.7498e-07
-8.52429e-08
-3.52507e-06
3.35009e-06
-3.58288e-06
5.78063e-08
-3.06495e-06
-5.17932e-07
-3.22748e-06
1.62531e-07
-3.20011e-06
-2.73736e-08
-3.4146e-06
2.14492e-07
-3.39454e-06
-2.00567e-08
-3.37393e-06
-2.06125e-08
-3.33058e-06
-4.33459e-08
-3.28503e-06
-4.55479e-08
-3.16579e-06
-1.19242e-07
-3.11125e-06
-5.45468e-08
-3.08429e-06
-2.69526e-08
-3.05234e-06
-3.19491e-08
-3.02609e-06
-2.62503e-08
-3.00016e-06
-2.59302e-08
-2.96066e-06
-3.9502e-08
-2.93096e-06
-2.97032e-08
-2.90969e-06
-2.12666e-08
-2.88897e-06
-2.07242e-08
-2.86628e-06
-2.2685e-08
-2.84231e-06
-2.39715e-08
-2.81084e-06
-3.14718e-08
-2.76283e-06
-4.80091e-08
-2.70203e-06
-6.08002e-08
-2.61076e-06
-9.12695e-08
-2.43873e-06
-1.72032e-07
-2.30891e-06
-1.29821e-07
-2.13787e-06
-1.71034e-07
-1.91731e-06
-2.20562e-07
-1.64012e-06
-2.77193e-07
-1.30262e-06
-3.37496e-07
-9.07598e-07
-3.95025e-07
-4.66636e-07
-4.40962e-07
-1.63722e-17
-4.66636e-07
4.66636e-07
-4.66636e-07
9.07598e-07
-4.40962e-07
1.30262e-06
-3.95025e-07
1.64012e-06
-3.37496e-07
1.91731e-06
-2.77193e-07
2.13787e-06
-2.20562e-07
2.30891e-06
-1.71034e-07
2.43873e-06
-1.29821e-07
2.61076e-06
-1.72032e-07
2.70203e-06
-9.12695e-08
2.76283e-06
-6.08002e-08
2.81084e-06
-4.80091e-08
2.84231e-06
-3.14718e-08
2.86628e-06
-2.39715e-08
2.88897e-06
-2.2685e-08
2.90969e-06
-2.07242e-08
2.93096e-06
-2.12666e-08
2.96066e-06
-2.97032e-08
3.00016e-06
-3.9502e-08
3.02609e-06
-2.59302e-08
3.05234e-06
-2.62503e-08
3.08429e-06
-3.19491e-08
3.11125e-06
-2.69526e-08
3.16579e-06
-5.45468e-08
3.28503e-06
-1.19242e-07
3.33058e-06
-4.55479e-08
3.37393e-06
-4.33459e-08
3.39454e-06
-2.06125e-08
3.4146e-06
-2.00567e-08
3.20011e-06
2.14492e-07
3.22748e-06
-2.73736e-08
3.06495e-06
1.62531e-07
3.58288e-06
-5.17932e-07
3.52507e-06
5.78063e-08
1.7498e-07
3.35009e-06
2.60223e-07
-8.52429e-08
1.71995e-07
8.82275e-08
1.04702e-07
6.72926e-08
4.98313e-08
5.48712e-08
4.98313e-08
-5.44168e-08
1.04248e-07
-1.1425e-07
1.14705e-07
-1.87654e-07
1.40696e-07
-2.93925e-07
1.94499e-07
-6.66121e-07
2.86953e-07
-1.12187e-07
2.79616e-06
-2.28421e-06
2.22983e-06
-3.0813e-06
2.7916e-07
-3.38458e-06
4.65813e-07
-3.3678e-06
-4.4157e-08
-3.63353e-06
4.80218e-07
-3.61191e-06
-4.16697e-08
-3.59832e-06
-3.42071e-08
-3.55646e-06
-8.52007e-08
-3.51536e-06
-8.66489e-08
-3.38452e-06
-2.5008e-07
-3.33057e-06
-1.08505e-07
-3.30546e-06
-5.20576e-08
-3.27259e-06
-6.48185e-08
-3.24632e-06
-5.25213e-08
-3.22058e-06
-5.16761e-08
-3.1783e-06
-8.17745e-08
-3.14756e-06
-6.04457e-08
-3.12605e-06
-4.27742e-08
-3.10476e-06
-4.20199e-08
-3.0811e-06
-4.63389e-08
-3.05631e-06
-4.87693e-08
-3.02349e-06
-6.42831e-08
-2.97222e-06
-9.92878e-08
-2.90812e-06
-1.24896e-07
-2.8127e-06
-1.86689e-07
-2.63194e-06
-3.52793e-07
-2.49435e-06
-2.67414e-07
-2.31236e-06
-3.53025e-07
-2.07675e-06
-4.5617e-07
-1.77935e-06
-5.74588e-07
-1.41551e-06
-7.01341e-07
-9.87647e-07
-8.22886e-07
-5.08282e-07
-9.20327e-07
-2.04643e-17
-9.74918e-07
5.08282e-07
-9.74918e-07
9.87647e-07
-9.20327e-07
1.41551e-06
-8.22886e-07
1.77935e-06
-7.01341e-07
2.07675e-06
-5.74588e-07
2.31236e-06
-4.5617e-07
2.49435e-06
-3.53025e-07
2.63194e-06
-2.67414e-07
2.8127e-06
-3.52793e-07
2.90812e-06
-1.86689e-07
2.97222e-06
-1.24896e-07
3.02349e-06
-9.92878e-08
3.05631e-06
-6.42831e-08
3.0811e-06
-4.87693e-08
3.10476e-06
-4.63389e-08
3.12605e-06
-4.20199e-08
3.14756e-06
-4.27742e-08
3.1783e-06
-6.04457e-08
3.22058e-06
-8.17745e-08
3.24632e-06
-5.16761e-08
3.27259e-06
-5.25213e-08
3.30546e-06
-6.48185e-08
3.33057e-06
-5.20576e-08
3.38452e-06
-1.08505e-07
3.51536e-06
-2.5008e-07
3.55646e-06
-8.66489e-08
3.59832e-06
-8.52007e-08
3.61191e-06
-3.42071e-08
3.63353e-06
-4.16697e-08
3.3678e-06
4.80218e-07
3.38458e-06
-4.4157e-08
3.0813e-06
4.65813e-07
2.28421e-06
2.7916e-07
1.12187e-07
2.22983e-06
6.66121e-07
2.79616e-06
2.93925e-07
2.86953e-07
1.87654e-07
1.94499e-07
1.1425e-07
1.40696e-07
5.44168e-08
1.14705e-07
1.04248e-07
-5.9088e-08
1.63336e-07
-1.23827e-07
1.79443e-07
-2.02748e-07
2.19618e-07
-3.171e-07
3.0885e-07
-5.87194e-07
5.57048e-07
-1.49152e-07
2.35812e-06
6.22901e-08
2.01839e-06
-2.54321e-07
5.95771e-07
-3.23358e-06
3.44508e-06
-3.45361e-06
1.75865e-07
-3.87142e-06
8.98033e-07
-3.84975e-06
-6.33378e-08
-3.85395e-06
-3.00148e-08
-3.81526e-06
-1.23887e-07
-3.78632e-06
-1.15587e-07
-3.63231e-06
-4.04091e-07
-3.58221e-06
-1.58609e-07
-3.56152e-06
-7.27408e-08
-3.5266e-06
-9.97377e-08
-3.50055e-06
-7.85766e-08
-3.47591e-06
-7.63112e-08
-3.42853e-06
-1.29163e-07
-3.39656e-06
-9.24114e-08
-3.37517e-06
-6.41598e-08
-3.35322e-06
-6.39726e-08
-3.32823e-06
-7.13313e-08
-3.30277e-06
-7.42261e-08
-3.26895e-06
-9.81096e-08
-3.21344e-06
-1.54795e-07
-3.14661e-06
-1.91722e-07
-3.04973e-06
-2.83574e-07
-2.86471e-06
-5.37805e-07
-2.72109e-06
-4.1104e-07
-2.52943e-06
-5.44685e-07
-2.27913e-06
-7.0647e-07
-1.96002e-06
-8.93698e-07
-1.56518e-06
-1.09618e-06
-1.0957e-06
-1.29236e-06
-5.65162e-07
-1.45087e-06
-1.16346e-17
-1.54008e-06
5.65162e-07
-1.54008e-06
1.0957e-06
-1.45087e-06
1.56518e-06
-1.29236e-06
1.96002e-06
-1.09618e-06
2.27913e-06
-8.93698e-07
2.52943e-06
-7.0647e-07
2.72109e-06
-5.44685e-07
2.86471e-06
-4.1104e-07
3.04973e-06
-5.37805e-07
3.14661e-06
-2.83574e-07
3.21344e-06
-1.91722e-07
3.26895e-06
-1.54795e-07
3.30277e-06
-9.81096e-08
3.32823e-06
-7.42261e-08
3.35322e-06
-7.13313e-08
3.37517e-06
-6.39726e-08
3.39656e-06
-6.41598e-08
3.42853e-06
-9.24114e-08
3.47591e-06
-1.29163e-07
3.50055e-06
-7.63112e-08
3.5266e-06
-7.85766e-08
3.56152e-06
-9.97377e-08
3.58221e-06
-7.27408e-08
3.63231e-06
-1.58609e-07
3.78632e-06
-4.04091e-07
3.81526e-06
-1.15587e-07
3.85395e-06
-1.23887e-07
3.84975e-06
-3.00148e-08
3.87142e-06
-6.33378e-08
3.45361e-06
8.98033e-07
3.23358e-06
1.75865e-07
2.54321e-07
3.44508e-06
-6.22901e-08
5.95771e-07
1.49152e-07
2.01839e-06
5.87194e-07
2.35812e-06
3.171e-07
5.57048e-07
2.02748e-07
3.0885e-07
1.23827e-07
2.19618e-07
5.9088e-08
1.79443e-07
1.63336e-07
-6.37016e-08
2.27038e-07
-1.33054e-07
2.48795e-07
-2.16243e-07
3.02807e-07
-3.30736e-07
4.23343e-07
-5.20201e-07
7.46513e-07
-1.86955e-07
2.02487e-06
-2.94986e-08
1.86093e-06
-4.71137e-07
1.03741e-06
2.06495e-07
2.76744e-06
-3.58226e-07
7.40587e-07
-3.74118e-06
4.28099e-06
-3.97826e-06
1.73741e-07
-4.09233e-06
8.40595e-08
-4.07956e-06
-1.36665e-07
-4.08598e-06
-1.09162e-07
-3.8929e-06
-5.97172e-07
-3.85584e-06
-1.95668e-07
-3.84528e-06
-8.33007e-08
-3.80712e-06
-1.37902e-07
-3.78244e-06
-1.03254e-07
-3.76131e-06
-9.74427e-08
-3.70527e-06
-1.85201e-07
-3.67242e-06
-1.25263e-07
-3.65216e-06
-8.442e-08
-3.62972e-06
-8.64129e-08
-3.60305e-06
-9.80032e-08
-3.57752e-06
-9.97516e-08
-3.54366e-06
-1.31975e-07
-3.48261e-06
-2.15838e-07
-3.41436e-06
-2.59972e-07
-3.32083e-06
-3.77105e-07
-3.13991e-06
-7.1873e-07
-2.994e-06
-5.56947e-07
-2.79614e-06
-7.42548e-07
-2.53379e-06
-9.68816e-07
-2.19337e-06
-1.23412e-06
-1.76344e-06
-1.52611e-06
-1.24183e-06
-1.81397e-06
-6.43099e-07
-2.0496e-06
-2.46997e-17
-2.18318e-06
6.43099e-07
-2.18318e-06
1.24183e-06
-2.0496e-06
1.76344e-06
-1.81397e-06
2.19337e-06
-1.52611e-06
2.53379e-06
-1.23412e-06
2.79614e-06
-9.68816e-07
2.994e-06
-7.42548e-07
3.13991e-06
-5.56947e-07
3.32083e-06
-7.1873e-07
3.41436e-06
-3.77105e-07
3.48261e-06
-2.59972e-07
3.54366e-06
-2.15838e-07
3.57752e-06
-1.31975e-07
3.60305e-06
-9.97516e-08
3.62972e-06
-9.80032e-08
3.65216e-06
-8.64129e-08
3.67242e-06
-8.442e-08
3.70527e-06
-1.25263e-07
3.76131e-06
-1.85201e-07
3.78244e-06
-9.74427e-08
3.80712e-06
-1.03254e-07
3.84528e-06
-1.37902e-07
3.85584e-06
-8.33007e-08
3.8929e-06
-1.95668e-07
4.08598e-06
-5.97172e-07
4.07956e-06
-1.09162e-07
4.09233e-06
-1.36665e-07
3.97826e-06
8.40595e-08
3.74118e-06
1.73741e-07
3.58226e-07
4.28099e-06
-2.06495e-07
7.40587e-07
4.71137e-07
2.76744e-06
2.94986e-08
1.03741e-06
1.86955e-07
1.86093e-06
5.20201e-07
2.02487e-06
3.30736e-07
7.46513e-07
2.16243e-07
4.23343e-07
1.33054e-07
3.02807e-07
6.37016e-08
2.48795e-07
2.27038e-07
-6.80696e-08
2.95107e-07
-1.41468e-07
3.22194e-07
-2.27209e-07
3.88548e-07
-3.36025e-07
5.32159e-07
-4.64817e-07
8.75305e-07
-2.18618e-07
1.77867e-06
-1.0048e-07
1.74279e-06
-3.73637e-07
1.31057e-06
5.88893e-08
2.33492e-06
-4.94503e-07
1.29398e-06
4.58537e-07
3.32795e-06
-3.37248e-07
9.69525e-07
-3.76761e-06
3.51442e-06
-4.1479e-06
2.43626e-07
-4.35358e-06
9.65243e-08
-4.12699e-06
-8.23768e-07
-4.13502e-06
-1.87638e-07
-4.14974e-06
-6.85746e-08
-4.1083e-06
-1.79343e-07
-4.08859e-06
-1.22961e-07
-4.07658e-06
-1.09461e-07
-4.00591e-06
-2.5587e-07
-3.9736e-06
-1.57573e-07
-3.95649e-06
-1.01529e-07
-3.93398e-06
-1.08915e-07
-3.9051e-06
-1.2689e-07
-3.88064e-06
-1.24212e-07
-3.84876e-06
-1.63851e-07
-3.77974e-06
-2.84856e-07
-3.71214e-06
-3.2758e-07
-3.62951e-06
-4.59735e-07
-3.4663e-06
-8.81931e-07
-3.32455e-06
-6.98698e-07
-3.12691e-06
-9.40192e-07
-2.85863e-06
-1.23709e-06
-2.50053e-06
-1.59223e-06
-2.03253e-06
-1.9941e-06
-1.44505e-06
-2.40145e-06
-7.53142e-07
-2.74151e-06
-4.78825e-17
-2.93632e-06
7.53142e-07
-2.93632e-06
1.44505e-06
-2.74151e-06
2.03253e-06
-2.40145e-06
2.50053e-06
-1.9941e-06
2.85863e-06
-1.59223e-06
3.12691e-06
-1.23709e-06
3.32455e-06
-9.40192e-07
3.4663e-06
-6.98698e-07
3.62951e-06
-8.81931e-07
3.71214e-06
-4.59735e-07
3.77974e-06
-3.2758e-07
3.84876e-06
-2.84856e-07
3.88064e-06
-1.63851e-07
3.9051e-06
-1.24212e-07
3.93398e-06
-1.2689e-07
3.95649e-06
-1.08915e-07
3.9736e-06
-1.01529e-07
4.00591e-06
-1.57573e-07
4.07658e-06
-2.5587e-07
4.08859e-06
-1.09461e-07
4.1083e-06
-1.22961e-07
4.14974e-06
-1.79343e-07
4.13502e-06
-6.85746e-08
4.12699e-06
-1.87638e-07
4.35358e-06
-8.23768e-07
4.1479e-06
9.65243e-08
3.76761e-06
2.43626e-07
3.37248e-07
3.51442e-06
-4.58537e-07
9.69525e-07
4.94503e-07
3.32795e-06
-5.88893e-08
1.29398e-06
3.73637e-07
2.33492e-06
1.0048e-07
1.31057e-06
2.18618e-07
1.74279e-06
4.64817e-07
1.77867e-06
3.36025e-07
8.75305e-07
2.27209e-07
5.32159e-07
1.41468e-07
3.88548e-07
6.80696e-08
3.22194e-07
2.95107e-07
-7.19647e-08
3.67072e-07
-1.48563e-07
3.98792e-07
-2.34917e-07
4.74902e-07
-3.34411e-07
6.31653e-07
-4.1992e-07
9.60815e-07
-2.43357e-07
1.60211e-06
-1.53225e-07
1.65266e-06
-3.07871e-07
1.46521e-06
-3.90031e-08
2.06605e-06
-3.39962e-07
1.59494e-06
2.68229e-07
2.71976e-06
-2.31045e-07
1.4688e-06
5.18238e-07
2.76514e-06
-2.11099e-07
9.72963e-07
-2.52978e-06
2.41521e-06
-3.94856e-06
5.95016e-07
-4.2811e-06
1.44894e-07
-4.42437e-06
7.46983e-08
-4.40307e-06
-2.00648e-07
-4.40545e-06
-1.20576e-07
-4.41898e-06
-9.59289e-08
-4.32444e-06
-3.50409e-07
-4.29771e-06
-1.84303e-07
-4.28818e-06
-1.11065e-07
-4.26668e-06
-1.30418e-07
-4.23463e-06
-1.58936e-07
-4.21331e-06
-1.45532e-07
-4.18758e-06
-1.89576e-07
-4.10547e-06
-3.6697e-07
-4.04143e-06
-3.91621e-07
-3.98086e-06
-5.20299e-07
-3.85684e-06
-1.00596e-06
-3.72951e-06
-8.26031e-07
-3.54278e-06
-1.12692e-06
-3.28081e-06
-1.49907e-06
-2.91559e-06
-1.95745e-06
-2.41043e-06
-2.49926e-06
-1.73909e-06
-3.07279e-06
-9.15197e-07
-3.5654e-06
-5.8877e-17
-3.85152e-06
9.15197e-07
-3.85152e-06
1.73909e-06
-3.5654e-06
2.41043e-06
-3.07279e-06
2.91559e-06
-2.49926e-06
3.28081e-06
-1.95745e-06
3.54278e-06
-1.49907e-06
3.72951e-06
-1.12692e-06
3.85684e-06
-8.26031e-07
3.98086e-06
-1.00596e-06
4.04143e-06
-5.20299e-07
4.10547e-06
-3.91621e-07
4.18758e-06
-3.6697e-07
4.21331e-06
-1.89576e-07
4.23463e-06
-1.45532e-07
4.26668e-06
-1.58936e-07
4.28818e-06
-1.30418e-07
4.29771e-06
-1.11065e-07
4.32444e-06
-1.84303e-07
4.41898e-06
-3.50409e-07
4.40545e-06
-9.59289e-08
4.40307e-06
-1.20576e-07
4.42437e-06
-2.00648e-07
4.2811e-06
7.46983e-08
3.94856e-06
1.44894e-07
2.52978e-06
5.95016e-07
2.11099e-07
2.41521e-06
-5.18238e-07
9.72963e-07
2.31045e-07
2.76514e-06
-2.68229e-07
1.4688e-06
3.39962e-07
2.71976e-06
3.90031e-08
1.59494e-06
3.07871e-07
2.06605e-06
1.53225e-07
1.46521e-06
2.43357e-07
1.65266e-06
4.1992e-07
1.60211e-06
3.34411e-07
9.60815e-07
2.34917e-07
6.31653e-07
1.48563e-07
4.74902e-07
7.19647e-08
3.98792e-07
3.67072e-07
-7.51349e-08
4.42207e-07
-1.53835e-07
4.77492e-07
-2.38896e-07
5.59963e-07
-3.27381e-07
7.20138e-07
-3.838e-07
1.01723e-06
-2.60867e-07
1.47917e-06
-1.90503e-07
1.5823e-06
-2.65746e-07
1.54046e-06
-9.91834e-08
1.89949e-06
-2.3821e-07
1.73397e-06
1.4443e-07
2.33712e-06
-9.82116e-08
1.71144e-06
3.53848e-07
2.31308e-06
-1.97362e-08
1.34655e-06
4.18508e-07
1.97696e-06
9.73118e-08
9.16212e-07
-4.89897e-07
7.32102e-07
-3.78985e-06
3.37465e-06
-4.33757e-06
3.47078e-07
-4.58124e-06
1.23093e-07
-4.73664e-06
5.94701e-08
-4.62688e-06
-4.60168e-07
-4.62986e-06
-1.81321e-07
-4.64174e-06
-9.91859e-08
-4.62586e-06
-1.46304e-07
-4.58989e-06
-1.94899e-07
-4.57607e-06
-1.59358e-07
-4.56569e-06
-1.99949e-07
-4.45929e-06
-4.73374e-07
-4.4029e-06
-4.48007e-07
-4.38025e-06
-5.42947e-07
-4.32878e-06
-1.05743e-06
-4.23148e-06
-9.23336e-07
-4.07174e-06
-1.28666e-06
-3.83935e-06
-1.73146e-06
-3.49321e-06
-2.30359e-06
-2.96397e-06
-3.02849e-06
-2.18621e-06
-3.85055e-06
-1.16675e-06
-4.58486e-06
-8.46456e-17
-5.01826e-06
1.16675e-06
-5.01826e-06
2.18621e-06
-4.58486e-06
2.96397e-06
-3.85055e-06
3.49321e-06
-3.02849e-06
3.83935e-06
-2.30359e-06
4.07174e-06
-1.73146e-06
4.23148e-06
-1.28666e-06
4.32878e-06
-9.23336e-07
4.38025e-06
-1.05743e-06
4.4029e-06
-5.42947e-07
4.45929e-06
-4.48007e-07
4.56569e-06
-4.73374e-07
4.57607e-06
-1.99949e-07
4.58989e-06
-1.59358e-07
4.62586e-06
-1.94899e-07
4.64174e-06
-1.46304e-07
4.62986e-06
-9.91859e-08
4.62688e-06
-1.81321e-07
4.73664e-06
-4.60168e-07
4.58124e-06
5.94701e-08
4.33757e-06
1.23093e-07
3.78985e-06
3.47078e-07
4.89897e-07
3.37465e-06
-9.73118e-08
7.32102e-07
-4.18508e-07
9.16212e-07
1.97362e-08
1.97696e-06
-3.53848e-07
1.34655e-06
9.82116e-08
2.31308e-06
-1.4443e-07
1.71144e-06
2.3821e-07
2.33712e-06
9.91834e-08
1.73397e-06
2.65746e-07
1.89949e-06
1.90503e-07
1.54046e-06
2.60867e-07
1.5823e-06
3.838e-07
1.47917e-06
3.27381e-07
1.01723e-06
2.38896e-07
7.20138e-07
1.53835e-07
5.59963e-07
7.51349e-08
4.77492e-07
4.42207e-07
-7.73276e-08
5.19534e-07
-1.56852e-07
5.57016e-07
-2.38956e-07
6.42068e-07
-3.16288e-07
7.9747e-07
-3.54427e-07
1.05537e-06
-2.71273e-07
1.39602e-06
-2.14975e-07
1.526e-06
-2.39764e-07
1.56524e-06
-1.32627e-07
1.79235e-06
-1.74402e-07
1.77574e-06
6.82968e-08
2.09442e-06
-2.10661e-08
1.8008e-06
2.48898e-07
2.04311e-06
6.9153e-08
1.52629e-06
3.06248e-07
1.73987e-06
8.02173e-08
1.14224e-06
-3.07298e-07
1.11962e-06
6.23489e-07
2.44386e-06
1.23896e-07
8.46671e-07
-5.19418e-07
7.66407e-07
-3.5497e-06
3.08975e-06
-4.43275e-06
4.2289e-07
-4.7482e-06
1.34124e-07
-4.92582e-06
7.84407e-08
-4.97098e-06
-1.01148e-07
-4.9488e-06
-2.17081e-07
-4.95942e-06
-1.48741e-07
-4.98947e-06
-1.69893e-07
-4.83512e-06
-6.27729e-07
-4.7936e-06
-4.89523e-07
-4.83065e-06
-5.05901e-07
-4.90438e-06
-9.83697e-07
-4.86018e-06
-9.67529e-07
-4.74591e-06
-1.40093e-06
-4.58611e-06
-1.89126e-06
-4.32141e-06
-2.56829e-06
-3.81752e-06
-3.53238e-06
-2.90917e-06
-4.7589e-06
-1.5829e-06
-5.91113e-06
-8.49658e-17
-6.60116e-06
1.5829e-06
-6.60116e-06
2.90917e-06
-5.91113e-06
3.81752e-06
-4.7589e-06
4.32141e-06
-3.53238e-06
4.58611e-06
-2.56829e-06
4.74591e-06
-1.89126e-06
4.86018e-06
-1.40093e-06
4.90438e-06
-9.67529e-07
4.83065e-06
-9.83697e-07
4.7936e-06
-5.05901e-07
4.83512e-06
-4.89523e-07
4.98947e-06
-6.27729e-07
4.95942e-06
-1.69893e-07
4.9488e-06
-1.48741e-07
4.97098e-06
-2.17081e-07
4.92582e-06
-1.01148e-07
4.7482e-06
7.84407e-08
4.43275e-06
1.34124e-07
3.5497e-06
4.2289e-07
5.19418e-07
3.08975e-06
-1.23896e-07
7.66407e-07
-6.23489e-07
8.46671e-07
3.07298e-07
2.44386e-06
-8.02173e-08
1.11962e-06
-3.06248e-07
1.14224e-06
-6.9153e-08
1.73987e-06
-2.48898e-07
1.52629e-06
2.10661e-08
2.04311e-06
-6.82968e-08
1.8008e-06
1.74402e-07
2.09442e-06
1.32627e-07
1.77574e-06
2.39764e-07
1.79235e-06
2.14975e-07
1.56524e-06
2.71273e-07
1.526e-06
3.54427e-07
1.39602e-06
3.16288e-07
1.05537e-06
2.38956e-07
7.9747e-07
1.56852e-07
6.42068e-07
7.73276e-08
5.57016e-07
5.19534e-07
-7.83203e-08
5.97855e-07
-1.57301e-07
6.35997e-07
-2.35166e-07
7.19932e-07
-3.02225e-07
8.6453e-07
-3.29719e-07
1.08287e-06
-2.75017e-07
1.34132e-06
-2.2899e-07
1.47997e-06
-2.23628e-07
1.55988e-06
-1.48347e-07
1.71707e-06
-1.36069e-07
1.76346e-06
2.40339e-08
1.93431e-06
1.88799e-08
1.80596e-06
1.83446e-07
1.87855e-06
1.12856e-07
1.59688e-06
2.32348e-07
1.62037e-06
8.40639e-08
1.29053e-06
-1.07594e-07
1.31127e-06
4.07106e-07
1.92916e-06
1.21984e-07
1.13179e-06
-2.31218e-07
1.11961e-06
6.59263e-07
2.19927e-06
2.45473e-07
8.36679e-07
-2.05242e-07
5.8484e-07
-1.35741e-06
1.23061e-06
-4.49273e-06
3.03417e-06
-4.90821e-06
1.98397e-07
-5.15588e-06
9.89234e-08
-5.39216e-06
6.63906e-08
-5.17931e-06
-8.40577e-07
-5.18767e-06
-4.81165e-07
-5.32023e-06
-3.7334e-07
-5.60868e-06
-6.95248e-07
-5.65617e-06
-9.20041e-07
-5.58285e-06
-1.47425e-06
-5.57343e-06
-1.90067e-06
-5.53789e-06
-2.60384e-06
-5.22114e-06
-3.84913e-06
-4.17013e-06
-5.80991e-06
-2.32475e-06
-7.75652e-06
-1.00804e-16
-8.92591e-06
2.32475e-06
-8.92591e-06
4.17013e-06
-7.75652e-06
5.22114e-06
-5.80991e-06
5.53789e-06
-3.84913e-06
5.57343e-06
-2.60384e-06
5.58285e-06
-1.90067e-06
5.65617e-06
-1.47425e-06
5.60868e-06
-9.20041e-07
5.32023e-06
-6.95248e-07
5.18767e-06
-3.7334e-07
5.17931e-06
-4.81165e-07
5.39216e-06
-8.40577e-07
5.15588e-06
6.63906e-08
4.90821e-06
9.89234e-08
4.49273e-06
1.98397e-07
1.35741e-06
3.03417e-06
2.05242e-07
1.23061e-06
-2.45473e-07
5.8484e-07
-6.59263e-07
8.36679e-07
2.31218e-07
2.19927e-06
-1.21984e-07
1.11961e-06
-4.07106e-07
1.13179e-06
1.07594e-07
1.92916e-06
-8.40639e-08
1.31127e-06
-2.32348e-07
1.29053e-06
-1.12856e-07
1.62037e-06
-1.83446e-07
1.59688e-06
-1.88799e-08
1.87855e-06
-2.40339e-08
1.80596e-06
1.36069e-07
1.93431e-06
1.48347e-07
1.76346e-06
2.23628e-07
1.71707e-06
2.2899e-07
1.55988e-06
2.75017e-07
1.47997e-06
3.29719e-07
1.34132e-06
3.02225e-07
1.08287e-06
2.35166e-07
8.6453e-07
1.57301e-07
7.19932e-07
7.83203e-08
6.35997e-07
5.97855e-07
-7.79527e-08
6.75807e-07
-1.55036e-07
7.1308e-07
-2.27794e-07
7.92691e-07
-2.85975e-07
9.2271e-07
-3.07769e-07
1.10466e-06
-2.72742e-07
1.30629e-06
-2.34504e-07
1.44174e-06
-2.12514e-07
1.53789e-06
-1.53041e-07
1.6576e-06
-1.1363e-07
1.72405e-06
-3.95318e-10
1.82108e-06
3.58392e-08
1.76972e-06
1.42494e-07
1.77189e-06
1.2868e-07
1.6107e-06
1.86087e-07
1.56297e-06
9.65283e-08
1.38008e-06
1.07892e-08
1.39701e-06
2.8031e-07
1.65964e-06
1.31256e-07
1.28085e-06
-2.85479e-08
1.27941e-06
4.3906e-07
1.73166e-06
2.16745e-07
1.05899e-06
-8.9152e-08
8.90736e-07
-1.73831e-07
1.31529e-06
7.55087e-07
2.10525e-06
2.31235e-07
7.22249e-07
-2.60431e-07
5.9059e-07
-1.63609e-06
1.44205e-06
-4.43997e-06
1.9633e-06
-5.10426e-06
1.83129e-07
-5.57183e-06
9.4226e-08
-6.33227e-06
6.51909e-08
-6.62354e-06
-6.28768e-07
-6.44855e-06
-1.64924e-06
-6.75764e-06
-1.59159e-06
-7.3076e-06
-2.05388e-06
-7.72818e-06
-3.42855e-06
-6.57838e-06
-6.95971e-06
-3.75873e-06
-1.05762e-05
-7.16793e-17
-1.26846e-05
3.75873e-06
-1.26846e-05
6.57838e-06
-1.05762e-05
7.72818e-06
-6.95971e-06
7.3076e-06
-3.42855e-06
6.75764e-06
-2.05388e-06
6.44855e-06
-1.59159e-06
6.62354e-06
-1.64924e-06
6.33227e-06
-6.28768e-07
5.57183e-06
6.51909e-08
5.10426e-06
9.4226e-08
4.43997e-06
1.83129e-07
1.63609e-06
1.9633e-06
2.60431e-07
1.44205e-06
-2.31235e-07
5.9059e-07
-7.55087e-07
7.22249e-07
1.73831e-07
2.10525e-06
8.9152e-08
1.31529e-06
-2.16745e-07
8.90736e-07
-4.3906e-07
1.05899e-06
2.85479e-08
1.73166e-06
-1.31256e-07
1.27941e-06
-2.8031e-07
1.28085e-06
-1.07892e-08
1.65964e-06
-9.65283e-08
1.39701e-06
-1.86087e-07
1.38008e-06
-1.2868e-07
1.56297e-06
-1.42494e-07
1.6107e-06
-3.58392e-08
1.77189e-06
3.95318e-10
1.76972e-06
1.1363e-07
1.82108e-06
1.53041e-07
1.72405e-06
2.12514e-07
1.6576e-06
2.34504e-07
1.53789e-06
2.72742e-07
1.44174e-06
3.07769e-07
1.30629e-06
2.85975e-07
1.10466e-06
2.27794e-07
9.2271e-07
1.55036e-07
7.92691e-07
7.79527e-08
7.1308e-07
6.75807e-07
-7.61533e-08
7.51961e-07
-1.50083e-07
7.87009e-07
-2.17245e-07
8.59853e-07
-2.68036e-07
9.73502e-07
-2.87005e-07
1.12363e-06
-2.65184e-07
1.28447e-06
-2.33096e-07
1.40965e-06
-2.03073e-07
1.50787e-06
-1.51194e-07
1.60572e-06
-1.00299e-07
1.67316e-06
-1.33125e-08
1.73409e-06
3.9853e-08
1.71656e-06
1.15867e-07
1.69588e-06
1.29171e-07
1.59739e-06
1.58242e-07
1.5339e-06
1.1012e-07
1.42821e-06
7.7694e-08
1.42944e-06
2.12459e-07
1.52488e-06
1.43605e-07
1.3497e-06
8.20995e-08
1.34092e-06
3.12885e-07
1.50087e-06
1.95536e-07
1.17634e-06
8.68341e-09
1.07759e-06
7.4407e-09
1.31653e-06
4.81376e-07
1.63132e-06
2.20607e-07
9.83018e-07
-6.47633e-08
8.7596e-07
8.2152e-08
1.29513e-06
5.7568e-07
1.46977e-06
1.50921e-07
6.07888e-07
-2.78966e-07
5.24113e-07
-1.33602e-06
1.12225e-06
-3.42148e-06
1.45669e-06
-5.18559e-06
1.14875e-07
-6.84034e-06
6.31529e-08
-8.9369e-06
4.26838e-08
-1.23961e-05
3.06792e-08
-1.14519e-05
-7.90394e-06
-6.68594e-06
-1.53421e-05
8.0956e-17
-1.93706e-05
6.68594e-06
-1.93706e-05
1.14519e-05
-1.53421e-05
1.23961e-05
-7.90394e-06
8.9369e-06
3.06792e-08
6.84034e-06
4.26838e-08
5.18559e-06
6.31529e-08
3.42148e-06
1.14875e-07
1.33602e-06
1.45669e-06
2.78966e-07
1.12225e-06
-1.50921e-07
5.24113e-07
-5.7568e-07
6.07888e-07
-8.2152e-08
1.46977e-06
6.47633e-08
1.29513e-06
-2.20607e-07
8.7596e-07
-4.81376e-07
9.83018e-07
-7.4407e-09
1.63132e-06
-8.68341e-09
1.31653e-06
-1.95536e-07
1.07759e-06
-3.12885e-07
1.17634e-06
-8.20995e-08
1.50087e-06
-1.43605e-07
1.34092e-06
-2.12459e-07
1.3497e-06
-7.7694e-08
1.52488e-06
-1.1012e-07
1.42944e-06
-1.58242e-07
1.42821e-06
-1.29171e-07
1.5339e-06
-1.15867e-07
1.59739e-06
-3.9853e-08
1.69588e-06
1.33125e-08
1.71656e-06
1.00299e-07
1.73409e-06
1.51194e-07
1.67316e-06
2.03073e-07
1.60572e-06
2.33096e-07
1.50787e-06
2.65184e-07
1.40965e-06
2.87005e-07
1.28447e-06
2.68036e-07
1.12363e-06
2.17245e-07
9.73502e-07
1.50083e-07
8.59853e-07
7.61533e-08
7.87009e-07
7.51961e-07
-7.29531e-08
8.24914e-07
-1.42638e-07
8.56694e-07
-2.03993e-07
9.21207e-07
-2.48697e-07
1.01821e-06
-2.66271e-07
1.1412e-06
-2.53096e-07
1.27129e-06
-2.26033e-07
1.38258e-06
-1.93216e-07
1.47505e-06
-1.45487e-07
1.55799e-06
-9.1627e-08
1.6193e-06
-1.98916e-08
1.66236e-06
3.74727e-08
1.65919e-06
9.73736e-08
1.63598e-06
1.22523e-07
1.57224e-06
1.41678e-07
1.51474e-06
1.21154e-07
1.44873e-06
1.14008e-07
1.43659e-06
1.80183e-07
1.4587e-06
1.5486e-07
1.37502e-06
1.38305e-07
1.35747e-06
2.45273e-07
1.39391e-06
1.84676e-07
1.23694e-06
8.16109e-08
1.18065e-06
1.03128e-07
1.29502e-06
3.324e-07
1.40205e-06
2.0967e-07
1.10575e-06
5.54255e-08
1.0302e-06
1.42793e-07
1.20777e-06
3.71399e-07
1.24117e-06
1.4026e-07
8.39027e-07
-1.25403e-07
7.89775e-07
-1.44699e-07
1.14154e-06
6.29662e-07
6.82332e-07
3.23858e-07
4.20679e-07
6.5646e-08
3.21365e-07
-2.1504e-07
3.2337e-07
-5.5637e-07
3.72009e-07
-8.27291e-06
-1.874e-07
-1.07841e-05
-1.28309e-05
5.48022e-17
-3.01547e-05
1.07841e-05
-3.01547e-05
8.27291e-06
-1.28309e-05
5.5637e-07
-1.874e-07
2.1504e-07
3.72009e-07
-6.5646e-08
3.2337e-07
-3.23858e-07
3.21365e-07
-6.29662e-07
4.20679e-07
1.44699e-07
6.82332e-07
1.25403e-07
1.14154e-06
-1.4026e-07
7.89775e-07
-3.71399e-07
8.39027e-07
-1.42793e-07
1.24117e-06
-5.54255e-08
1.20777e-06
-2.0967e-07
1.0302e-06
-3.324e-07
1.10575e-06
-1.03128e-07
1.40205e-06
-8.16109e-08
1.29502e-06
-1.84676e-07
1.18065e-06
-2.45273e-07
1.23694e-06
-1.38305e-07
1.39391e-06
-1.5486e-07
1.35747e-06
-1.80183e-07
1.37502e-06
-1.14008e-07
1.4587e-06
-1.21154e-07
1.43659e-06
-1.41678e-07
1.44873e-06
-1.22523e-07
1.51474e-06
-9.73736e-08
1.57224e-06
-3.74727e-08
1.63598e-06
1.98916e-08
1.65919e-06
9.1627e-08
1.66236e-06
1.45487e-07
1.6193e-06
1.93216e-07
1.55799e-06
2.26033e-07
1.47505e-06
2.53096e-07
1.38258e-06
2.66271e-07
1.27129e-06
2.48697e-07
1.1412e-06
2.03993e-07
1.01821e-06
1.42638e-07
9.21207e-07
7.29531e-08
8.56694e-07
8.24914e-07
-6.84823e-08
8.93396e-07
-1.33035e-07
9.21247e-07
-1.8854e-07
9.76712e-07
-2.28136e-07
1.0578e-06
-2.44838e-07
1.15791e-06
-2.3721e-07
1.26367e-06
-2.14358e-07
1.35973e-06
-1.81823e-07
1.44252e-06
-1.37323e-07
1.51349e-06
-8.487e-08
1.56684e-06
-2.29661e-08
1.60045e-06
3.26747e-08
1.60355e-06
8.367e-08
1.58498e-06
1.13517e-07
1.54239e-06
1.31438e-07
1.49682e-06
1.28477e-07
1.45169e-06
1.33074e-07
1.43199e-06
1.6726e-07
1.42451e-06
1.63485e-07
1.3788e-06
1.64919e-07
1.35604e-06
2.12052e-07
1.34677e-06
1.82129e-07
1.26686e-06
1.31019e-07
1.23176e-06
1.51959e-07
1.27408e-06
2.57047e-07
1.29696e-06
2.02553e-07
1.16024e-06
1.25236e-07
1.10752e-06
1.68741e-07
1.16426e-06
2.61408e-07
1.1485e-06
1.35965e-07
9.6447e-07
-9.87371e-09
9.35614e-07
3.91378e-08
1.09253e-06
2.09873e-07
5.11596e-07
1.72738e-07
4.57814e-07
7.56864e-08
4.18417e-07
-1.13464e-08
4.10403e-07
-6.52788e-08
4.25941e-07
-1.13739e-07
-1.3894e-07
-2.40539e-06
-1.05393e-05
-1.05789e-16
-3.25601e-05
2.40539e-06
-3.25601e-05
1.13739e-07
-1.05393e-05
6.52788e-08
-1.3894e-07
1.13464e-08
4.25941e-07
-7.56864e-08
4.10403e-07
-1.72738e-07
4.18417e-07
-2.09873e-07
4.57814e-07
-3.91378e-08
5.11596e-07
9.87371e-09
1.09253e-06
-1.35965e-07
9.35614e-07
-2.61408e-07
9.6447e-07
-1.68741e-07
1.1485e-06
-1.25236e-07
1.16426e-06
-2.02553e-07
1.10752e-06
-2.57047e-07
1.16024e-06
-1.51959e-07
1.29696e-06
-1.31019e-07
1.27408e-06
-1.82129e-07
1.23176e-06
-2.12052e-07
1.26686e-06
-1.64919e-07
1.34677e-06
-1.63485e-07
1.35604e-06
-1.6726e-07
1.3788e-06
-1.33074e-07
1.42451e-06
-1.28477e-07
1.43199e-06
-1.31438e-07
1.45169e-06
-1.13517e-07
1.49682e-06
-8.367e-08
1.54239e-06
-3.26747e-08
1.58498e-06
2.29661e-08
1.60355e-06
8.487e-08
1.60045e-06
1.37323e-07
1.56684e-06
1.81823e-07
1.51349e-06
2.14358e-07
1.44252e-06
2.3721e-07
1.35973e-06
2.44838e-07
1.26367e-06
2.28136e-07
1.15791e-06
1.8854e-07
1.0578e-06
1.33035e-07
9.76712e-07
6.84823e-08
9.21247e-07
8.93396e-07
-6.29527e-08
9.56349e-07
-1.21698e-07
9.79993e-07
-1.7139e-07
1.0264e-06
-2.06517e-07
1.09293e-06
-2.22367e-07
1.17376e-06
-2.18233e-07
1.25953e-06
-1.98967e-07
1.34047e-06
-1.6844e-07
1.41199e-06
-1.27324e-07
1.47237e-06
-7.84121e-08
1.51793e-06
-2.38367e-08
1.54588e-06
2.77296e-08
1.55199e-06
7.3177e-08
1.53953e-06
1.04611e-07
1.51096e-06
1.24459e-07
1.47697e-06
1.32315e-07
1.44383e-06
1.42694e-07
1.42161e-06
1.63496e-07
1.40371e-06
1.69377e-07
1.37292e-06
1.7684e-07
1.34858e-06
1.97694e-07
1.32592e-06
1.84438e-07
1.28012e-06
1.6218e-07
1.25402e-06
1.76662e-07
1.2596e-06
2.22242e-07
1.25138e-06
1.99147e-07
1.18334e-06
1.62135e-07
1.14453e-06
1.78197e-07
1.1482e-06
2.06368e-07
1.12033e-06
1.36531e-07
1.03431e-06
5.76852e-08
1.01446e-06
7.83293e-08
1.07189e-06
1.11314e-07
4.78612e-07
1.02379e-07
4.66749e-07
6.5301e-08
4.55494e-07
2.25507e-08
4.53153e-07
-1.24457e-08
4.60938e-07
-2.23391e-08
-1.29047e-07
-4.55688e-07
-1.01059e-05
-9.63435e-17
-3.30158e-05
4.55688e-07
-3.30158e-05
2.23391e-08
-1.01059e-05
1.24457e-08
-1.29047e-07
-2.25507e-08
4.60938e-07
-6.5301e-08
4.53153e-07
-1.02379e-07
4.55494e-07
-1.11314e-07
4.66749e-07
-7.83293e-08
4.78612e-07
-5.76852e-08
1.07189e-06
-1.36531e-07
1.01446e-06
-2.06368e-07
1.03431e-06
-1.78197e-07
1.12033e-06
-1.62135e-07
1.1482e-06
-1.99147e-07
1.14453e-06
-2.22242e-07
1.18334e-06
-1.76662e-07
1.25138e-06
-1.6218e-07
1.2596e-06
-1.84438e-07
1.25402e-06
-1.97694e-07
1.28012e-06
-1.7684e-07
1.32592e-06
-1.69377e-07
1.34858e-06
-1.63496e-07
1.37292e-06
-1.42694e-07
1.40371e-06
-1.32315e-07
1.42161e-06
-1.24459e-07
1.44383e-06
-1.04611e-07
1.47697e-06
-7.3177e-08
1.51096e-06
-2.77296e-08
1.53953e-06
2.38367e-08
1.55199e-06
7.84121e-08
1.54588e-06
1.27324e-07
1.51793e-06
1.6844e-07
1.47237e-06
1.98967e-07
1.41199e-06
2.18233e-07
1.34047e-06
2.22367e-07
1.25953e-06
2.06517e-07
1.17376e-06
1.7139e-07
1.09293e-06
1.21698e-07
1.0264e-06
6.29527e-08
9.79993e-07
9.56349e-07
-5.66285e-08
1.01298e-06
-1.09104e-07
1.03247e-06
-1.53041e-07
1.07034e-06
-1.84056e-07
1.12394e-06
-1.98842e-07
1.18854e-06
-1.96852e-07
1.25754e-06
-1.80661e-07
1.32427e-06
-1.53033e-07
1.38436e-06
-1.15723e-07
1.43506e-06
-7.13242e-08
1.47353e-06
-2.29364e-08
1.49749e-06
2.38736e-08
1.50518e-06
6.52538e-08
1.49815e-06
9.68879e-08
1.47933e-06
1.19102e-07
1.45476e-06
1.33453e-07
1.42948e-06
1.47109e-07
1.40795e-06
1.63152e-07
1.38767e-06
1.72991e-07
1.36308e-06
1.82059e-07
1.33951e-06
1.9278e-07
1.3152e-06
1.88589e-07
1.28431e-06
1.80811e-07
1.2618e-06
1.89452e-07
1.25095e-06
2.08021e-07
1.23281e-06
1.98047e-07
1.19331e-06
1.7976e-07
1.16282e-06
1.8081e-07
1.14715e-06
1.81165e-07
1.11997e-06
1.39325e-07
1.07615e-06
9.34369e-08
1.06035e-06
8.95411e-08
1.07579e-06
9.05469e-08
4.77606e-07
8.23614e-08
4.74935e-07
6.53987e-08
4.72457e-07
4.59834e-08
4.72568e-07
3.10073e-08
4.75914e-07
1.78679e-08
-1.15907e-07
-2.43045e-07
-9.84503e-06
-3.03082e-17
-3.32588e-05
2.43045e-07
-3.32588e-05
-1.78679e-08
-9.84503e-06
-3.10073e-08
-1.15907e-07
-4.59834e-08
4.75914e-07
-6.53987e-08
4.72568e-07
-8.23614e-08
4.72457e-07
-9.05469e-08
4.74935e-07
-8.95411e-08
4.77606e-07
-9.34369e-08
1.07579e-06
-1.39325e-07
1.06035e-06
-1.81165e-07
1.07615e-06
-1.8081e-07
1.11997e-06
-1.7976e-07
1.14715e-06
-1.98047e-07
1.16282e-06
-2.08021e-07
1.19331e-06
-1.89452e-07
1.23281e-06
-1.80811e-07
1.25095e-06
-1.88589e-07
1.2618e-06
-1.9278e-07
1.28431e-06
-1.82059e-07
1.3152e-06
-1.72991e-07
1.33951e-06
-1.63152e-07
1.36308e-06
-1.47109e-07
1.38767e-06
-1.33453e-07
1.40795e-06
-1.19102e-07
1.42948e-06
-9.68879e-08
1.45476e-06
-6.52538e-08
1.47933e-06
-2.38736e-08
1.49815e-06
2.29364e-08
1.50518e-06
7.13242e-08
1.49749e-06
1.15723e-07
1.47353e-06
1.53033e-07
1.43506e-06
1.80661e-07
1.38436e-06
1.96852e-07
1.32427e-06
1.98842e-07
1.25754e-06