/*--------------------------------*- C++ -*----------------------------------*\
  =========                 |
  \\      /  F ield         | OpenFOAM: The Open Source CFD Toolbox
   \\    /   O peration     | Website:  https://openfoam.org
    \\  /    A nd           | Version:  10
     \\/     M anipulation  |
\*---------------------------------------------------------------------------*/
FoamFile
{
    format      ascii;
    class       volVectorField;
    location    "19800";
    object      Ua;
}
// * * * * * * * * * * * * * * * * * * * * * * * * * * * * * * * * * * * * * //

dimensions      [0 1 -1 0 0 0 0];

internalField   nonuniform List<vector> 
6400
(
(-8.71643e-07 1.77178e-07 0)
(-2.70308e-06 1.95097e-07 0)
(-4.83996e-06 2.39262e-07 0)
(-7.56029e-06 3.13698e-07 0)
(-7.373e-06 -3.03086e-07 0)
(-2.89868e-06 6.93217e-05 0)
(-9.57747e-08 8.42927e-07 0)
(-2.61245e-08 2.37055e-07 0)
(-1.30584e-08 1.22155e-07 0)
(-8.97922e-09 7.9112e-08 0)
(-6.80225e-09 5.74754e-08 0)
(-5.53112e-09 4.45874e-08 0)
(-4.50599e-09 3.62156e-08 0)
(-3.77035e-09 3.03877e-08 0)
(-3.21326e-09 2.61196e-08 0)
(-2.75608e-09 2.28691e-08 0)
(-2.3898e-09 2.03352e-08 0)
(-2.12775e-09 1.83063e-08 0)
(-1.92078e-09 1.66476e-08 0)
(-1.74934e-09 1.52783e-08 0)
(-1.60707e-09 1.41351e-08 0)
(-1.48289e-09 1.31666e-08 0)
(-1.37551e-09 1.23394e-08 0)
(-1.28664e-09 1.1633e-08 0)
(-1.21079e-09 1.1016e-08 0)
(-1.1442e-09 1.04765e-08 0)
(-1.08518e-09 1.0008e-08 0)
(-1.0316e-09 9.5966e-09 0)
(-9.79722e-10 9.23728e-09 0)
(-9.27873e-10 8.91631e-09 0)
(-8.73882e-10 8.62904e-09 0)
(-8.07779e-10 8.37407e-09 0)
(-7.45595e-10 8.162e-09 0)
(-6.91393e-10 8.07514e-09 0)
(-6.24907e-10 7.99624e-09 0)
(-5.4402e-10 7.92688e-09 0)
(-4.47264e-10 7.86804e-09 0)
(-3.34476e-10 7.82329e-09 0)
(-2.07344e-10 7.79418e-09 0)
(-7.02693e-11 7.76995e-09 0)
(7.02693e-11 7.76995e-09 0)
(2.07344e-10 7.79418e-09 0)
(3.34476e-10 7.82329e-09 0)
(4.47264e-10 7.86804e-09 0)
(5.4402e-10 7.92688e-09 0)
(6.24907e-10 7.99624e-09 0)
(6.91393e-10 8.07514e-09 0)
(7.45595e-10 8.162e-09 0)
(8.07779e-10 8.37407e-09 0)
(8.73882e-10 8.62904e-09 0)
(9.27873e-10 8.91631e-09 0)
(9.79722e-10 9.23728e-09 0)
(1.0316e-09 9.5966e-09 0)
(1.08518e-09 1.0008e-08 0)
(1.1442e-09 1.04765e-08 0)
(1.21079e-09 1.1016e-08 0)
(1.28664e-09 1.1633e-08 0)
(1.37551e-09 1.23394e-08 0)
(1.48289e-09 1.31666e-08 0)
(1.60707e-09 1.41351e-08 0)
(1.74934e-09 1.52783e-08 0)
(1.92078e-09 1.66476e-08 0)
(2.12775e-09 1.83063e-08 0)
(2.3898e-09 2.03352e-08 0)
(2.75608e-09 2.28691e-08 0)
(3.21326e-09 2.61196e-08 0)
(3.77035e-09 3.03877e-08 0)
(4.50599e-09 3.62156e-08 0)
(5.53112e-09 4.45874e-08 0)
(6.80225e-09 5.74754e-08 0)
(8.97922e-09 7.9112e-08 0)
(1.30584e-08 1.22155e-07 0)
(2.61245e-08 2.37055e-07 0)
(9.57747e-08 8.42927e-07 0)
(2.89868e-06 6.93217e-05 0)
(7.373e-06 -3.03086e-07 0)
(7.56029e-06 3.13698e-07 0)
(4.83996e-06 2.39262e-07 0)
(2.70308e-06 1.95097e-07 0)
(8.71643e-07 1.77178e-07 0)
(-8.67824e-07 5.47838e-07 0)
(-2.68985e-06 6.02936e-07 0)
(-4.81468e-06 7.39516e-07 0)
(-7.68009e-06 1.00525e-06 0)
(-1.53106e-05 7.17193e-07 0)
(-1.24121e-05 2.18533e-05 0)
(-2.0206e-06 8.2991e-06 0)
(-2.6749e-07 1.11076e-06 0)
(-5.23966e-08 3.45957e-07 0)
(-2.67469e-08 1.63607e-07 0)
(-1.82305e-08 1.08124e-07 0)
(-1.41745e-08 8.01179e-08 0)
(-1.1226e-08 6.35993e-08 0)
(-9.24087e-09 5.26145e-08 0)
(-7.79342e-09 4.48252e-08 0)
(-6.63287e-09 3.89753e-08 0)
(-5.71649e-09 3.45353e-08 0)
(-5.0729e-09 3.10031e-08 0)
(-4.56768e-09 2.81304e-08 0)
(-4.15109e-09 2.57758e-08 0)
(-3.80779e-09 2.38167e-08 0)
(-3.50889e-09 2.21594e-08 0)
(-3.25093e-09 2.07533e-08 0)
(-3.0388e-09 1.95545e-08 0)
(-2.85846e-09 1.85098e-08 0)
(-2.70032e-09 1.7598e-08 0)
(-2.56044e-09 1.6807e-08 0)
(-2.43383e-09 1.61123e-08 0)
(-2.31132e-09 1.55045e-08 0)
(-2.18941e-09 1.49638e-08 0)
(-2.0639e-09 1.4479e-08 0)
(-1.91143e-09 1.40449e-08 0)
(-1.76808e-09 1.36807e-08 0)
(-1.64273e-09 1.35293e-08 0)
(-1.48833e-09 1.33912e-08 0)
(-1.29934e-09 1.32692e-08 0)
(-1.07147e-09 1.31653e-08 0)
(-8.035e-10 1.30858e-08 0)
(-4.9913e-10 1.30331e-08 0)
(-1.69341e-10 1.29909e-08 0)
(1.69341e-10 1.29909e-08 0)
(4.9913e-10 1.30331e-08 0)
(8.035e-10 1.30858e-08 0)
(1.07147e-09 1.31653e-08 0)
(1.29934e-09 1.32692e-08 0)
(1.48833e-09 1.33912e-08 0)
(1.64273e-09 1.35293e-08 0)
(1.76808e-09 1.36807e-08 0)
(1.91143e-09 1.40449e-08 0)
(2.0639e-09 1.4479e-08 0)
(2.18941e-09 1.49638e-08 0)
(2.31132e-09 1.55045e-08 0)
(2.43383e-09 1.61123e-08 0)
(2.56044e-09 1.6807e-08 0)
(2.70032e-09 1.7598e-08 0)
(2.85846e-09 1.85098e-08 0)
(3.0388e-09 1.95545e-08 0)
(3.25093e-09 2.07533e-08 0)
(3.50889e-09 2.21594e-08 0)
(3.80779e-09 2.38167e-08 0)
(4.15109e-09 2.57758e-08 0)
(4.56768e-09 2.81304e-08 0)
(5.0729e-09 3.10031e-08 0)
(5.71649e-09 3.45353e-08 0)
(6.63287e-09 3.89753e-08 0)
(7.79342e-09 4.48252e-08 0)
(9.24087e-09 5.26145e-08 0)
(1.1226e-08 6.35993e-08 0)
(1.41745e-08 8.01179e-08 0)
(1.82305e-08 1.08124e-07 0)
(2.67469e-08 1.63607e-07 0)
(5.23966e-08 3.45957e-07 0)
(2.6749e-07 1.11076e-06 0)
(2.0206e-06 8.2991e-06 0)
(1.24121e-05 2.18533e-05 0)
(1.53106e-05 7.17193e-07 0)
(7.68009e-06 1.00525e-06 0)
(4.81468e-06 7.39516e-07 0)
(2.68985e-06 6.02936e-07 0)
(8.67824e-07 5.47838e-07 0)
(-8.59133e-07 9.5141e-07 0)
(-2.65956e-06 1.04586e-06 0)
(-4.74837e-06 1.28112e-06 0)
(-7.55854e-06 1.78969e-06 0)
(-1.31484e-05 3.00089e-06 0)
(-1.07064e-05 1.83263e-05 0)
(-1.26296e-06 1.51048e-05 0)
(-2.7638e-06 3.11087e-06 0)
(-3.82824e-06 1.2534e-05 0)
(-1.91784e-07 7.49356e-07 0)
(-5.15296e-08 3.38409e-07 0)
(-3.09864e-08 1.90668e-07 0)
(-2.20629e-08 1.37338e-07 0)
(-1.72859e-08 1.08435e-07 0)
(-1.41903e-08 9.00632e-08 0)
(-1.18677e-08 7.7033e-08 0)
(-1.00985e-08 6.76405e-08 0)
(-8.90794e-09 6.03329e-08 0)
(-7.98358e-09 5.44853e-08 0)
(-7.22774e-09 4.97611e-08 0)
(-6.61376e-09 4.58628e-08 0)
(-6.08085e-09 4.25818e-08 0)
(-5.62228e-09 3.98254e-08 0)
(-5.24988e-09 3.74838e-08 0)
(-4.93508e-09 3.54525e-08 0)
(-4.65934e-09 3.36871e-08 0)
(-4.41636e-09 3.21586e-08 0)
(-4.19781e-09 3.0818e-08 0)
(-3.98624e-09 2.96443e-08 0)
(-3.77707e-09 2.86064e-08 0)
(-3.56648e-09 2.76771e-08 0)
(-3.3149e-09 2.68431e-08 0)
(-3.07852e-09 2.6142e-08 0)
(-2.87019e-09 2.58512e-08 0)
(-2.6115e-09 2.55879e-08 0)
(-2.29129e-09 2.53572e-08 0)
(-1.89959e-09 2.51634e-08 0)
(-1.43162e-09 2.50162e-08 0)
(-8.92687e-10 2.49186e-08 0)
(-3.03478e-10 2.48407e-08 0)
(3.03478e-10 2.48407e-08 0)
(8.92687e-10 2.49186e-08 0)
(1.43162e-09 2.50162e-08 0)
(1.89959e-09 2.51634e-08 0)
(2.29129e-09 2.53572e-08 0)
(2.6115e-09 2.55879e-08 0)
(2.87019e-09 2.58512e-08 0)
(3.07852e-09 2.6142e-08 0)
(3.3149e-09 2.68431e-08 0)
(3.56648e-09 2.76771e-08 0)
(3.77707e-09 2.86064e-08 0)
(3.98624e-09 2.96443e-08 0)
(4.19781e-09 3.0818e-08 0)
(4.41636e-09 3.21586e-08 0)
(4.65934e-09 3.36871e-08 0)
(4.93508e-09 3.54525e-08 0)
(5.24988e-09 3.74838e-08 0)
(5.62228e-09 3.98254e-08 0)
(6.08085e-09 4.25818e-08 0)
(6.61376e-09 4.58628e-08 0)
(7.22774e-09 4.97611e-08 0)
(7.98358e-09 5.44853e-08 0)
(8.90794e-09 6.03329e-08 0)
(1.00985e-08 6.76405e-08 0)
(1.18677e-08 7.7033e-08 0)
(1.41903e-08 9.00632e-08 0)
(1.72859e-08 1.08435e-07 0)
(2.20629e-08 1.37338e-07 0)
(3.09864e-08 1.90668e-07 0)
(5.15296e-08 3.38409e-07 0)
(1.91784e-07 7.49356e-07 0)
(3.82824e-06 1.2534e-05 0)
(2.7638e-06 3.11087e-06 0)
(1.26296e-06 1.51048e-05 0)
(1.07064e-05 1.83263e-05 0)
(1.31484e-05 3.00089e-06 0)
(7.55854e-06 1.78969e-06 0)
(4.74837e-06 1.28112e-06 0)
(2.65956e-06 1.04586e-06 0)
(8.59133e-07 9.5141e-07 0)
(-8.44451e-07 1.38799e-06 0)
(-2.60826e-06 1.52263e-06 0)
(-4.6304e-06 1.85751e-06 0)
(-7.25095e-06 2.60336e-06 0)
(-1.12803e-05 4.63488e-06 0)
(-9.37431e-06 1.5584e-05 0)
(-2.86938e-06 1.37931e-05 0)
(-6.6366e-06 5.80686e-06 0)
(-3.50818e-06 2.2089e-05 0)
(-1.69692e-06 3.2585e-06 0)
(-4.60156e-06 1.54803e-05 0)
(-2.06269e-07 7.50587e-07 0)
(-5.9117e-08 3.7935e-07 0)
(-3.40528e-08 2.19917e-07 0)
(-2.48913e-08 1.63652e-07 0)
(-1.96401e-08 1.326e-07 0)
(-1.61235e-08 1.13288e-07 0)
(-1.39858e-08 9.93439e-08 0)
(-1.23901e-08 8.87153e-08 0)
(-1.11227e-08 8.04395e-08 0)
(-1.01274e-08 7.37615e-08 0)
(-9.27218e-09 6.82177e-08 0)
(-8.5416e-09 6.36449e-08 0)
(-7.96182e-09 5.97896e-08 0)
(-7.47593e-09 5.64697e-08 0)
(-7.05087e-09 5.36035e-08 0)
(-6.67894e-09 5.1133e-08 0)
(-6.34827e-09 4.89722e-08 0)
(-6.02733e-09 4.70804e-08 0)
(-5.71287e-09 4.54229e-08 0)
(-5.40829e-09 4.39428e-08 0)
(-5.05555e-09 4.26117e-08 0)
(-4.72471e-09 4.14904e-08 0)
(-4.42872e-09 4.10269e-08 0)
(-4.05633e-09 4.06107e-08 0)
(-3.58695e-09 4.02492e-08 0)
(-2.9991e-09 3.99476e-08 0)
(-2.27832e-09 3.97185e-08 0)
(-1.42934e-09 3.95644e-08 0)
(-4.87512e-10 3.94432e-08 0)
(4.87512e-10 3.94432e-08 0)
(1.42934e-09 3.95644e-08 0)
(2.27832e-09 3.97185e-08 0)
(2.9991e-09 3.99476e-08 0)
(3.58695e-09 4.02492e-08 0)
(4.05633e-09 4.06107e-08 0)
(4.42872e-09 4.10269e-08 0)
(4.72471e-09 4.14904e-08 0)
(5.05555e-09 4.26117e-08 0)
(5.40829e-09 4.39428e-08 0)
(5.71287e-09 4.54229e-08 0)
(6.02733e-09 4.70804e-08 0)
(6.34827e-09 4.89722e-08 0)
(6.67894e-09 5.1133e-08 0)
(7.05087e-09 5.36035e-08 0)
(7.47593e-09 5.64697e-08 0)
(7.96182e-09 5.97896e-08 0)
(8.5416e-09 6.36449e-08 0)
(9.27218e-09 6.82177e-08 0)
(1.01274e-08 7.37615e-08 0)
(1.11227e-08 8.04395e-08 0)
(1.23901e-08 8.87153e-08 0)
(1.39858e-08 9.93439e-08 0)
(1.61235e-08 1.13288e-07 0)
(1.96401e-08 1.326e-07 0)
(2.48913e-08 1.63652e-07 0)
(3.40528e-08 2.19917e-07 0)
(5.9117e-08 3.7935e-07 0)
(2.06269e-07 7.50587e-07 0)
(4.60156e-06 1.54803e-05 0)
(1.69692e-06 3.2585e-06 0)
(3.50818e-06 2.2089e-05 0)
(6.6366e-06 5.80686e-06 0)
(2.86938e-06 1.37931e-05 0)
(9.37431e-06 1.5584e-05 0)
(1.12803e-05 4.63488e-06 0)
(7.25095e-06 2.60336e-06 0)
(4.6304e-06 1.85751e-06 0)
(2.60826e-06 1.52263e-06 0)
(8.44451e-07 1.388e-06 0)
(-8.22697e-07 1.85651e-06 0)
(-2.5325e-06 2.03019e-06 0)
(-4.45589e-06 2.45815e-06 0)
(-6.80732e-06 3.39734e-06 0)
(-9.67908e-06 5.76647e-06 0)
(-8.26009e-06 1.35237e-05 0)
(-3.85667e-06 1.28132e-05 0)
(-5.73025e-06 8.34836e-06 0)
(-3.80408e-06 1.81417e-05 0)
(-5.26488e-06 7.23401e-06 0)
(-4.34686e-07 2.7054e-05 0)
(1.47721e-06 4.06495e-06 0)
(-4.32958e-06 1.27832e-05 0)
(-3.19008e-07 1.01513e-06 0)
(-7.85889e-08 4.62732e-07 0)
(-3.97796e-08 2.65929e-07 0)
(-2.72774e-08 1.94625e-07 0)
(-2.19444e-08 1.58814e-07 0)
(-1.86439e-08 1.36457e-07 0)
(-1.63136e-08 1.21057e-07 0)
(-1.46467e-08 1.0952e-07 0)
(-1.32742e-08 1.00371e-07 0)
(-1.21321e-08 9.31288e-08 0)
(-1.12659e-08 8.71465e-08 0)
(-1.05525e-08 8.20779e-08 0)
(-9.93187e-09 7.77609e-08 0)
(-9.39612e-09 7.40768e-08 0)
(-8.92983e-09 7.08743e-08 0)
(-8.47464e-09 6.80735e-08 0)
(-8.03373e-09 6.56556e-08 0)
(-7.63311e-09 6.35076e-08 0)
(-7.1949e-09 6.1574e-08 0)
(-6.78592e-09 5.99409e-08 0)
(-6.41018e-09 5.92694e-08 0)
(-5.92794e-09 5.86725e-08 0)
(-5.30323e-09 5.81568e-08 0)
(-4.49114e-09 5.77241e-08 0)
(-3.45332e-09 5.73875e-08 0)
(-2.18673e-09 5.71525e-08 0)
(-7.49566e-10 5.69731e-08 0)
(7.49566e-10 5.69731e-08 0)
(2.18673e-09 5.71525e-08 0)
(3.45332e-09 5.73875e-08 0)
(4.49114e-09 5.77241e-08 0)
(5.30323e-09 5.81568e-08 0)
(5.92794e-09 5.86725e-08 0)
(6.41018e-09 5.92694e-08 0)
(6.78592e-09 5.99409e-08 0)
(7.1949e-09 6.1574e-08 0)
(7.63311e-09 6.35076e-08 0)
(8.03373e-09 6.56556e-08 0)
(8.47464e-09 6.80735e-08 0)
(8.92983e-09 7.08743e-08 0)
(9.39612e-09 7.40768e-08 0)
(9.93187e-09 7.77609e-08 0)
(1.05525e-08 8.20779e-08 0)
(1.12659e-08 8.71465e-08 0)
(1.21321e-08 9.31288e-08 0)
(1.32742e-08 1.00371e-07 0)
(1.46467e-08 1.0952e-07 0)
(1.63136e-08 1.21057e-07 0)
(1.86439e-08 1.36457e-07 0)
(2.19444e-08 1.58814e-07 0)
(2.72774e-08 1.94625e-07 0)
(3.97796e-08 2.65929e-07 0)
(7.85889e-08 4.62732e-07 0)
(3.19008e-07 1.01513e-06 0)
(4.32958e-06 1.27832e-05 0)
(-1.47721e-06 4.06495e-06 0)
(4.34686e-07 2.7054e-05 0)
(5.26488e-06 7.23401e-06 0)
(3.80408e-06 1.81417e-05 0)
(5.73025e-06 8.34836e-06 0)
(3.85667e-06 1.28132e-05 0)
(8.26009e-06 1.35237e-05 0)
(9.67908e-06 5.76647e-06 0)
(6.80732e-06 3.39734e-06 0)
(4.45589e-06 2.45815e-06 0)
(2.5325e-06 2.03019e-06 0)
(8.22697e-07 1.85651e-06 0)
(-7.92992e-07 2.35441e-06 0)
(-2.43003e-06 2.56351e-06 0)
(-4.22563e-06 3.07004e-06 0)
(-6.27353e-06 4.138e-06 0)
(-8.31212e-06 6.52843e-06 0)
(-7.30877e-06 1.20205e-05 0)
(-4.37001e-06 1.20727e-05 0)
(-5.0809e-06 9.86944e-06 0)
(-3.82227e-06 1.56479e-05 0)
(-4.17589e-06 1.02717e-05 0)
(-7.90439e-07 2.15029e-05 0)
(4.09746e-07 8.6696e-06 0)
(3.16463e-06 2.23273e-05 0)
(3.38443e-06 4.32565e-06 0)
(-3.03938e-06 8.94477e-06 0)
(-8.1005e-07 2.29843e-06 0)
(-1.30851e-07 6.39785e-07 0)
(-5.33456e-08 3.77544e-07 0)
(-3.33558e-08 2.40714e-07 0)
(-2.56035e-08 1.90072e-07 0)
(-2.15771e-08 1.62364e-07 0)
(-1.88409e-08 1.44046e-07 0)
(-1.68058e-08 1.31243e-07 0)
(-1.54159e-08 1.21409e-07 0)
(-1.43317e-08 1.13497e-07 0)
(-1.34157e-08 1.07017e-07 0)
(-1.26513e-08 1.01637e-07 0)
(-1.20143e-08 9.70405e-08 0)
(-1.13875e-08 9.30437e-08 0)
(-1.07892e-08 8.96821e-08 0)
(-1.02997e-08 8.67251e-08 0)
(-9.82057e-09 8.40694e-08 0)
(-9.37989e-09 8.18187e-08 0)
(-8.95418e-09 8.09016e-08 0)
(-8.39188e-09 8.00991e-08 0)
(-7.63386e-09 7.94051e-08 0)
(-6.58786e-09 7.88032e-08 0)
(-5.15762e-09 7.83011e-08 0)
(-3.31124e-09 7.79236e-08 0)
(-1.14337e-09 7.76493e-08 0)
(1.14337e-09 7.76493e-08 0)
(3.31124e-09 7.79236e-08 0)
(5.15762e-09 7.83011e-08 0)
(6.58786e-09 7.88032e-08 0)
(7.63386e-09 7.94051e-08 0)
(8.39188e-09 8.00991e-08 0)
(8.95418e-09 8.09016e-08 0)
(9.37989e-09 8.18187e-08 0)
(9.82057e-09 8.40694e-08 0)
(1.02997e-08 8.67251e-08 0)
(1.07892e-08 8.96821e-08 0)
(1.13875e-08 9.30437e-08 0)
(1.20143e-08 9.70405e-08 0)
(1.26513e-08 1.01637e-07 0)
(1.34157e-08 1.07017e-07 0)
(1.43317e-08 1.13497e-07 0)
(1.54159e-08 1.21409e-07 0)
(1.68058e-08 1.31243e-07 0)
(1.88409e-08 1.44046e-07 0)
(2.15771e-08 1.62364e-07 0)
(2.56035e-08 1.90072e-07 0)
(3.33558e-08 2.40714e-07 0)
(5.33456e-08 3.77544e-07 0)
(1.30851e-07 6.39785e-07 0)
(8.1005e-07 2.29843e-06 0)
(3.03938e-06 8.94477e-06 0)
(-3.38443e-06 4.32565e-06 0)
(-3.16463e-06 2.23273e-05 0)
(-4.09746e-07 8.6696e-06 0)
(7.90439e-07 2.15029e-05 0)
(4.17589e-06 1.02717e-05 0)
(3.82227e-06 1.56479e-05 0)
(5.0809e-06 9.86944e-06 0)
(4.37001e-06 1.20727e-05 0)
(7.30877e-06 1.20205e-05 0)
(8.31212e-06 6.52843e-06 0)
(6.27353e-06 4.138e-06 0)
(4.22563e-06 3.07004e-06 0)
(2.43003e-06 2.56351e-06 0)
(7.92992e-07 2.35441e-06 0)
(-7.54839e-07 2.87743e-06 0)
(-2.30033e-06 3.11568e-06 0)
(-3.94554e-06 3.67952e-06 0)
(-5.68907e-06 4.80637e-06 0)
(-7.14484e-06 7.03306e-06 0)
(-6.47661e-06 1.09557e-05 0)
(-4.53466e-06 1.15021e-05 0)
(-4.58368e-06 1.06868e-05 0)
(-3.66624e-06 1.40997e-05 0)
(-3.38961e-06 1.18361e-05 0)
(-9.4216e-07 1.798e-05 0)
(4.64329e-07 1.13075e-05 0)
(2.56824e-06 1.80559e-05 0)
(3.35663e-06 8.24714e-06 0)
(4.00624e-06 1.56166e-05 0)
(5.18215e-06 5.37326e-06 0)
(-3.94159e-06 3.11821e-06 0)
(-5.37396e-06 1.22783e-05 0)
(-5.34824e-07 1.39235e-06 0)
(-1.1195e-07 5.55495e-07 0)
(-5.06676e-08 3.58047e-07 0)
(-3.26021e-08 2.42508e-07 0)
(-2.53423e-08 1.96918e-07 0)
(-2.17843e-08 1.7196e-07 0)
(-1.95433e-08 1.55731e-07 0)
(-1.79064e-08 1.44223e-07 0)
(-1.66817e-08 1.35563e-07 0)
(-1.57644e-08 1.28613e-07 0)
(-1.48754e-08 1.22757e-07 0)
(-1.40509e-08 1.18102e-07 0)
(-1.34855e-08 1.14108e-07 0)
(-1.30533e-08 1.10568e-07 0)
(-1.26764e-08 1.07562e-07 0)
(-1.22656e-08 1.06357e-07 0)
(-1.17014e-08 1.05338e-07 0)
(-1.08988e-08 1.04449e-07 0)
(-9.66983e-09 1.0361e-07 0)
(-7.77552e-09 1.02799e-07 0)
(-5.09325e-09 1.02119e-07 0)
(-1.7772e-09 1.01652e-07 0)
(1.7772e-09 1.01652e-07 0)
(5.09325e-09 1.02119e-07 0)
(7.77552e-09 1.02799e-07 0)
(9.66983e-09 1.0361e-07 0)
(1.08988e-08 1.04449e-07 0)
(1.17014e-08 1.05338e-07 0)
(1.22656e-08 1.06357e-07 0)
(1.26764e-08 1.07562e-07 0)
(1.30533e-08 1.10568e-07 0)
(1.34855e-08 1.14108e-07 0)
(1.40509e-08 1.18102e-07 0)
(1.48754e-08 1.22757e-07 0)
(1.57644e-08 1.28613e-07 0)
(1.66817e-08 1.35563e-07 0)
(1.79064e-08 1.44223e-07 0)
(1.95433e-08 1.55731e-07 0)
(2.17843e-08 1.7196e-07 0)
(2.53423e-08 1.96918e-07 0)
(3.26021e-08 2.42508e-07 0)
(5.06676e-08 3.58047e-07 0)
(1.1195e-07 5.55495e-07 0)
(5.34824e-07 1.39235e-06 0)
(5.37396e-06 1.22783e-05 0)
(3.94159e-06 3.11821e-06 0)
(-5.18215e-06 5.37326e-06 0)
(-4.00624e-06 1.56166e-05 0)
(-3.35663e-06 8.24714e-06 0)
(-2.56824e-06 1.80559e-05 0)
(-4.64329e-07 1.13075e-05 0)
(9.4216e-07 1.798e-05 0)
(3.38961e-06 1.18361e-05 0)
(3.66624e-06 1.40997e-05 0)
(4.58368e-06 1.06868e-05 0)
(4.53466e-06 1.15021e-05 0)
(6.47661e-06 1.09557e-05 0)
(7.14484e-06 7.03306e-06 0)
(5.68907e-06 4.80637e-06 0)
(3.94554e-06 3.67952e-06 0)
(2.30033e-06 3.11568e-06 0)
(7.54839e-07 2.87743e-06 0)
(-7.08288e-07 3.41952e-06 0)
(-2.14498e-06 3.67825e-06 0)
(-3.62543e-06 4.27389e-06 0)
(-5.0858e-06 5.39594e-06 0)
(-6.14346e-06 7.36927e-06 0)
(-5.73114e-06 1.02229e-05 0)
(-4.45382e-06 1.10517e-05 0)
(-4.16521e-06 1.10425e-05 0)
(-3.41095e-06 1.31265e-05 0)
(-2.81225e-06 1.24789e-05 0)
(-9.71875e-07 1.57566e-05 0)
(4.32613e-07 1.2488e-05 0)
(2.08684e-06 1.54887e-05 0)
(2.91321e-06 1.02145e-05 0)
(3.43851e-06 1.32154e-05 0)
(3.53986e-06 7.31895e-06 0)
(-2.07996e-06 6.58389e-06 0)
(2.89618e-06 2.0688e-05 0)
(6.84572e-06 4.24444e-06 0)
(-3.62211e-06 3.16267e-06 0)
(-5.36514e-06 1.12463e-05 0)
(-7.06963e-07 1.66123e-06 0)
(-1.37109e-07 5.97285e-07 0)
(-5.91196e-08 3.80555e-07 0)
(-3.57387e-08 2.72942e-07 0)
(-2.72835e-08 2.15393e-07 0)
(-2.32536e-08 1.87935e-07 0)
(-2.10803e-08 1.71639e-07 0)
(-1.94019e-08 1.60316e-07 0)
(-1.80408e-08 1.52705e-07 0)
(-1.73413e-08 1.46786e-07 0)
(-1.70793e-08 1.41896e-07 0)
(-1.69299e-08 1.37832e-07 0)
(-1.66402e-08 1.36247e-07 0)
(-1.62305e-08 1.35046e-07 0)
(-1.56276e-08 1.33987e-07 0)
(-1.44511e-08 1.32788e-07 0)
(-1.20936e-08 1.31302e-07 0)
(-8.15324e-09 1.29884e-07 0)
(-2.88616e-09 1.2896e-07 0)
(2.88616e-09 1.2896e-07 0)
(8.15324e-09 1.29884e-07 0)
(1.20936e-08 1.31302e-07 0)
(1.44511e-08 1.32788e-07 0)
(1.56276e-08 1.33987e-07 0)
(1.62305e-08 1.35046e-07 0)
(1.66402e-08 1.36247e-07 0)
(1.69299e-08 1.37832e-07 0)
(1.70793e-08 1.41896e-07 0)
(1.73413e-08 1.46786e-07 0)
(1.80408e-08 1.52705e-07 0)
(1.94019e-08 1.60316e-07 0)
(2.10803e-08 1.71639e-07 0)
(2.32536e-08 1.87935e-07 0)
(2.72835e-08 2.15393e-07 0)
(3.57387e-08 2.72942e-07 0)
(5.91196e-08 3.80555e-07 0)
(1.37109e-07 5.97285e-07 0)
(7.06963e-07 1.66123e-06 0)
(5.36514e-06 1.12463e-05 0)
(3.62211e-06 3.16267e-06 0)
(-6.84572e-06 4.24444e-06 0)
(-2.89618e-06 2.0688e-05 0)
(2.07996e-06 6.58389e-06 0)
(-3.53986e-06 7.31895e-06 0)
(-3.43851e-06 1.32154e-05 0)
(-2.91321e-06 1.02145e-05 0)
(-2.08684e-06 1.54887e-05 0)
(-4.32613e-07 1.2488e-05 0)
(9.71875e-07 1.57566e-05 0)
(2.81225e-06 1.24789e-05 0)
(3.41095e-06 1.31265e-05 0)
(4.16521e-06 1.10425e-05 0)
(4.45382e-06 1.10517e-05 0)
(5.73114e-06 1.02229e-05 0)
(6.14346e-06 7.36927e-06 0)
(5.0858e-06 5.39594e-06 0)
(3.62543e-06 4.27389e-06 0)
(2.14498e-06 3.67825e-06 0)
(7.08288e-07 3.41952e-06 0)
(-6.54051e-07 3.97294e-06 0)
(-1.96767e-06 4.24183e-06 0)
(-3.27749e-06 4.84267e-06 0)
(-4.48774e-06 5.90933e-06 0)
(-5.27736e-06 7.60263e-06 0)
(-5.05014e-06 9.73276e-06 0)
(-4.20895e-06 1.06879e-05 0)
(-3.7798e-06 1.11116e-05 0)
(-3.10636e-06 1.24779e-05 0)
(-2.37516e-06 1.25838e-05 0)
(-9.35607e-07 1.43244e-05 0)
(3.58373e-07 1.2824e-05 0)
(1.68962e-06 1.39437e-05 0)
(2.47441e-06 1.11046e-05 0)
(2.88279e-06 1.19475e-05 0)
(2.64235e-06 8.64985e-06 0)
(-1.96498e-07 8.64317e-06 0)
(2.50122e-06 1.55485e-05 0)
(4.41843e-06 7.03454e-06 0)
(-9.1221e-07 6.70584e-06 0)
(3.57459e-06 1.88054e-05 0)
(7.55544e-06 4.47847e-06 0)
(3.35971e-07 2.55632e-06 0)
(-6.52666e-06 4.65441e-06 0)
(-5.04054e-06 1.09708e-05 0)
(-2.9322e-07 8.38114e-07 0)
(-9.63729e-08 4.62438e-07 0)
(-5.00014e-08 3.34741e-07 0)
(-3.28446e-08 2.56624e-07 0)
(-2.57955e-08 2.14952e-07 0)
(-2.32244e-08 1.94421e-07 0)
(-2.26815e-08 1.82671e-07 0)
(-2.28059e-08 1.75122e-07 0)
(-2.26436e-08 1.72286e-07 0)
(-2.25584e-08 1.70775e-07 0)
(-2.27252e-08 1.69551e-07 0)
(-2.23791e-08 1.67727e-07 0)
(-1.98899e-08 1.64485e-07 0)
(-1.39531e-08 1.61081e-07 0)
(-5.03076e-09 1.58957e-07 0)
(5.03076e-09 1.58957e-07 0)
(1.39531e-08 1.61081e-07 0)
(1.98899e-08 1.64485e-07 0)
(2.23791e-08 1.67727e-07 0)
(2.27252e-08 1.69551e-07 0)
(2.25584e-08 1.70775e-07 0)
(2.26436e-08 1.72286e-07 0)
(2.28059e-08 1.75122e-07 0)
(2.26815e-08 1.82671e-07 0)
(2.32244e-08 1.94421e-07 0)
(2.57955e-08 2.14952e-07 0)
(3.28446e-08 2.56624e-07 0)
(5.00014e-08 3.34741e-07 0)
(9.63729e-08 4.62438e-07 0)
(2.9322e-07 8.38114e-07 0)
(5.04054e-06 1.09708e-05 0)
(6.52666e-06 4.65441e-06 0)
(-3.35971e-07 2.55632e-06 0)
(-7.55544e-06 4.47847e-06 0)
(-3.57459e-06 1.88054e-05 0)
(9.1221e-07 6.70584e-06 0)
(-4.41843e-06 7.03454e-06 0)
(-2.50122e-06 1.55485e-05 0)
(1.96498e-07 8.64317e-06 0)
(-2.64235e-06 8.64985e-06 0)
(-2.88279e-06 1.19475e-05 0)
(-2.47441e-06 1.11046e-05 0)
(-1.68962e-06 1.39437e-05 0)
(-3.58373e-07 1.2824e-05 0)
(9.35607e-07 1.43244e-05 0)
(2.37516e-06 1.25838e-05 0)
(3.10636e-06 1.24779e-05 0)
(3.7798e-06 1.11116e-05 0)
(4.20895e-06 1.06879e-05 0)
(5.05014e-06 9.73276e-06 0)
(5.27736e-06 7.60263e-06 0)
(4.48774e-06 5.90933e-06 0)
(3.27749e-06 4.84267e-06 0)
(1.96767e-06 4.24183e-06 0)
(6.54051e-07 3.97294e-06 0)
(-5.93514e-07 4.52858e-06 0)
(-1.77392e-06 4.79672e-06 0)
(-2.91478e-06 5.37822e-06 0)
(-3.91172e-06 6.35463e-06 0)
(-4.52064e-06 7.77787e-06 0)
(-4.41988e-06 9.41372e-06 0)
(-3.86206e-06 1.03883e-05 0)
(-3.4035e-06 1.10143e-05 0)
(-2.78325e-06 1.19988e-05 0)
(-2.03037e-06 1.24e-05 0)
(-8.6816e-07 1.33525e-05 0)
(2.69862e-07 1.27135e-05 0)
(1.35779e-06 1.29793e-05 0)
(2.06466e-06 1.14047e-05 0)
(2.39657e-06 1.13186e-05 0)
(2.15177e-06 9.49551e-06 0)
(8.17092e-07 9.62947e-06 0)
(2.21637e-06 1.27602e-05 0)
(3.13357e-06 8.57828e-06 0)
(7.81996e-07 8.52986e-06 0)
(3.12555e-06 1.39766e-05 0)
(4.99315e-06 6.74017e-06 0)
(9.71462e-07 5.24649e-06 0)
(-2.00229e-06 9.0521e-06 0)
(4.42556e-06 1.82735e-05 0)
(7.50964e-06 3.27341e-06 0)
(-2.22294e-07 2.4516e-06 0)
(-5.39245e-06 5.36336e-06 0)
(-3.62214e-06 7.14639e-06 0)
(-2.79723e-07 7.80124e-07 0)
(-1.01082e-07 4.4712e-07 0)
(-5.84781e-08 3.35008e-07 0)
(-4.56505e-08 2.82328e-07 0)
(-3.90475e-08 2.55045e-07 0)
(-3.53571e-08 2.36625e-07 0)
(-3.56268e-08 2.24751e-07 0)
(-3.76062e-08 2.16209e-07 0)
(-3.61588e-08 2.05213e-07 0)
(-2.6522e-08 1.9523e-07 0)
(-9.73816e-09 1.89548e-07 0)
(9.73816e-09 1.89548e-07 0)
(2.6522e-08 1.9523e-07 0)
(3.61588e-08 2.05213e-07 0)
(3.76062e-08 2.16209e-07 0)
(3.56268e-08 2.24751e-07 0)
(3.53571e-08 2.36625e-07 0)
(3.90475e-08 2.55045e-07 0)
(4.56505e-08 2.82328e-07 0)
(5.84781e-08 3.35008e-07 0)
(1.01082e-07 4.4712e-07 0)
(2.79723e-07 7.80124e-07 0)
(3.62214e-06 7.14639e-06 0)
(5.39245e-06 5.36336e-06 0)
(2.22294e-07 2.4516e-06 0)
(-7.50964e-06 3.27341e-06 0)
(-4.42556e-06 1.82735e-05 0)
(2.00229e-06 9.0521e-06 0)
(-9.71462e-07 5.24649e-06 0)
(-4.99315e-06 6.74017e-06 0)
(-3.12555e-06 1.39766e-05 0)
(-7.81996e-07 8.52986e-06 0)
(-3.13357e-06 8.57828e-06 0)
(-2.21637e-06 1.27602e-05 0)
(-8.17092e-07 9.62947e-06 0)
(-2.15177e-06 9.49551e-06 0)
(-2.39657e-06 1.13186e-05 0)
(-2.06466e-06 1.14047e-05 0)
(-1.35779e-06 1.29793e-05 0)
(-2.69862e-07 1.27135e-05 0)
(8.6816e-07 1.33525e-05 0)
(2.03037e-06 1.24e-05 0)
(2.78325e-06 1.19988e-05 0)
(3.4035e-06 1.10143e-05 0)
(3.86206e-06 1.03883e-05 0)
(4.41988e-06 9.41372e-06 0)
(4.52064e-06 7.77787e-06 0)
(3.91172e-06 6.35463e-06 0)
(2.91478e-06 5.37822e-06 0)
(1.77392e-06 4.79672e-06 0)
(5.93514e-07 4.52858e-06 0)
(-5.2863e-07 5.07651e-06 0)
(-1.57045e-06 5.33365e-06 0)
(-2.54986e-06 5.87571e-06 0)
(-3.36865e-06 6.74209e-06 0)
(-3.8529e-06 7.92281e-06 0)
(-3.8331e-06 9.21159e-06 0)
(-3.45889e-06 1.01382e-05 0)
(-3.02773e-06 1.08294e-05 0)
(-2.45919e-06 1.16029e-05 0)
(-1.74578e-06 1.2079e-05 0)
(-7.88654e-07 1.26406e-05 0)
(1.84235e-07 1.23957e-05 0)
(1.08095e-06 1.23298e-05 0)
(1.70097e-06 1.14065e-05 0)
(1.99512e-06 1.10111e-05 0)
(1.86288e-06 9.98504e-06 0)
(1.30374e-06 1.00496e-05 0)
(2.01414e-06 1.13227e-05 0)
(2.47168e-06 9.35306e-06 0)
(1.56676e-06 9.31674e-06 0)
(2.74184e-06 1.14934e-05 0)
(3.52928e-06 7.94787e-06 0)
(1.41762e-06 6.99849e-06 0)
(1.11928e-07 9.3576e-06 0)
(3.3932e-06 1.32856e-05 0)
(4.87293e-06 6.06317e-06 0)
(1.08182e-06 5.2144e-06 0)
(1.20706e-07 9.7322e-06 0)
(4.56644e-06 1.22065e-05 0)
(5.04381e-06 2.8125e-06 0)
(-8.88842e-07 2.19854e-06 0)
(-1.05438e-05 4.22201e-06 0)
(-9.52124e-06 1.18379e-05 0)
(-1.22996e-06 1.07796e-06 0)
(-4.7536e-07 6.46631e-07 0)
(-2.57174e-07 4.71664e-07 0)
(-1.65312e-07 3.73131e-07 0)
(-1.08739e-07 2.9642e-07 0)
(-6.39476e-08 2.38206e-07 0)
(-2.26851e-08 2.16421e-07 0)
(2.26851e-08 2.16421e-07 0)
(6.39476e-08 2.38206e-07 0)
(1.08739e-07 2.9642e-07 0)
(1.65312e-07 3.73131e-07 0)
(2.57174e-07 4.71664e-07 0)
(4.7536e-07 6.46631e-07 0)
(1.22996e-06 1.07796e-06 0)
(9.52124e-06 1.18379e-05 0)
(1.05438e-05 4.22201e-06 0)
(8.88842e-07 2.19854e-06 0)
(-5.04381e-06 2.8125e-06 0)
(-4.56644e-06 1.22065e-05 0)
(-1.20706e-07 9.7322e-06 0)
(-1.08182e-06 5.2144e-06 0)
(-4.87293e-06 6.06317e-06 0)
(-3.3932e-06 1.32856e-05 0)
(-1.11928e-07 9.3576e-06 0)
(-1.41762e-06 6.99849e-06 0)
(-3.52928e-06 7.94787e-06 0)
(-2.74184e-06 1.14934e-05 0)
(-1.56676e-06 9.31674e-06 0)
(-2.47168e-06 9.35306e-06 0)
(-2.01414e-06 1.13227e-05 0)
(-1.30374e-06 1.00496e-05 0)
(-1.86288e-06 9.98504e-06 0)
(-1.99512e-06 1.10111e-05 0)
(-1.70097e-06 1.14065e-05 0)
(-1.08095e-06 1.23298e-05 0)
(-1.84235e-07 1.23957e-05 0)
(7.88654e-07 1.26406e-05 0)
(1.74578e-06 1.2079e-05 0)
(2.45919e-06 1.16029e-05 0)
(3.02773e-06 1.08294e-05 0)
(3.45889e-06 1.01382e-05 0)
(3.8331e-06 9.21159e-06 0)
(3.8529e-06 7.92281e-06 0)
(3.36865e-06 6.74209e-06 0)
(2.54986e-06 5.87571e-06 0)
(1.57045e-06 5.33365e-06 0)
(5.2863e-07 5.07651e-06 0)
(-4.6171e-07 5.60666e-06 0)
(-1.36445e-06 5.84428e-06 0)
(-2.19378e-06 6.33266e-06 0)
(-2.86501e-06 7.08163e-06 0)
(-3.25916e-06 8.05274e-06 0)
(-3.287e-06 9.08716e-06 0)
(-3.03234e-06 9.92793e-06 0)
(-2.65337e-06 1.06059e-05 0)
(-2.1436e-06 1.12487e-05 0)
(-1.50066e-06 1.17065e-05 0)
(-7.05786e-07 1.20763e-05 0)
(1.11268e-07 1.20027e-05 0)
(8.53424e-07 1.18466e-05 0)
(1.39169e-06 1.12698e-05 0)
(1.67209e-06 1.08396e-05 0)
(1.66343e-06 1.02291e-05 0)
(1.48831e-06 1.01903e-05 0)
(1.8619e-06 1.06083e-05 0)
(2.12044e-06 9.68792e-06 0)
(1.8554e-06 9.59429e-06 0)
(2.42761e-06 1.02925e-05 0)
(2.72109e-06 8.58056e-06 0)
(1.68529e-06 8.02931e-06 0)
(1.16919e-06 9.28551e-06 0)
(2.7564e-06 1.07853e-05 0)
(3.43069e-06 7.42672e-06 0)
(1.67775e-06 6.77748e-06 0)
(1.2545e-06 8.8992e-06 0)
(3.25425e-06 9.63889e-06 0)
(3.23822e-06 5.14458e-06 0)
(9.403e-08 4.6716e-06 0)
(-1.70944e-06 8.04904e-06 0)
(3.06926e-06 1.71122e-05 0)
(6.0347e-06 4.28443e-06 0)
(2.46512e-06 3.07614e-06 0)
(-9.45494e-07 2.92843e-06 0)
(-2.72847e-06 3.22644e-06 0)
(-1.59591e-06 1.22477e-06 0)
(-3.11632e-07 3.17413e-07 0)
(-8.32271e-08 2.18571e-07 0)
(8.32271e-08 2.18571e-07 0)
(3.11632e-07 3.17413e-07 0)
(1.59591e-06 1.22477e-06 0)
(2.72847e-06 3.22644e-06 0)
(9.45494e-07 2.92843e-06 0)
(-2.46512e-06 3.07614e-06 0)
(-6.0347e-06 4.28443e-06 0)
(-3.06926e-06 1.71122e-05 0)
(1.70944e-06 8.04904e-06 0)
(-9.403e-08 4.6716e-06 0)
(-3.23822e-06 5.14458e-06 0)
(-3.25425e-06 9.63889e-06 0)
(-1.2545e-06 8.8992e-06 0)
(-1.67775e-06 6.77748e-06 0)
(-3.43069e-06 7.42672e-06 0)
(-2.7564e-06 1.07853e-05 0)
(-1.16919e-06 9.28551e-06 0)
(-1.68529e-06 8.02931e-06 0)
(-2.72109e-06 8.58056e-06 0)
(-2.42761e-06 1.02925e-05 0)
(-1.8554e-06 9.59429e-06 0)
(-2.12044e-06 9.68792e-06 0)
(-1.8619e-06 1.06083e-05 0)
(-1.48831e-06 1.01903e-05 0)
(-1.66343e-06 1.02291e-05 0)
(-1.67209e-06 1.08396e-05 0)
(-1.39169e-06 1.12698e-05 0)
(-8.53424e-07 1.18466e-05 0)
(-1.11268e-07 1.20027e-05 0)
(7.05786e-07 1.20763e-05 0)
(1.50066e-06 1.17065e-05 0)
(2.1436e-06 1.12487e-05 0)
(2.65337e-06 1.06059e-05 0)
(3.03234e-06 9.92793e-06 0)
(3.287e-06 9.08716e-06 0)
(3.25916e-06 8.05274e-06 0)
(2.86501e-06 7.08163e-06 0)
(2.19378e-06 6.33266e-06 0)
(1.36445e-06 5.84428e-06 0)
(4.6171e-07 5.60666e-06 0)
(-3.95154e-07 6.10955e-06 0)
(-1.16279e-06 6.32157e-06 0)
(-1.85554e-06 6.74816e-06 0)
(-2.40429e-06 7.38136e-06 0)
(-2.72914e-06 8.17461e-06 0)
(-2.7815e-06 9.01319e-06 0)
(-2.60562e-06 9.75046e-06 0)
(-2.28603e-06 1.03736e-05 0)
(-1.84153e-06 1.09208e-05 0)
(-1.28209e-06 1.13285e-05 0)
(-6.22232e-07 1.16011e-05 0)
(5.60203e-08 1.16009e-05 0)
(6.71328e-07 1.14523e-05 0)
(1.1378e-06 1.10743e-05 0)
(1.41343e-06 1.07078e-05 0)
(1.49975e-06 1.03126e-05 0)
(1.50919e-06 1.01994e-05 0)
(1.73298e-06 1.02514e-05 0)
(1.90845e-06 9.79138e-06 0)
(1.89494e-06 9.64805e-06 0)
(2.17518e-06 9.74463e-06 0)
(2.27449e-06 8.90241e-06 0)
(1.80692e-06 8.57749e-06 0)
(1.63283e-06 9.13455e-06 0)
(2.36003e-06 9.59646e-06 0)
(2.65197e-06 8.05685e-06 0)
(1.8914e-06 7.60081e-06 0)
(1.69629e-06 8.43387e-06 0)
(2.48203e-06 8.49658e-06 0)
(2.29291e-06 6.41243e-06 0)
(7.27568e-07 6.13472e-06 0)
(1.68859e-07 7.94339e-06 0)
(1.43684e-06 9.55143e-06 0)
(2.20773e-06 7.02795e-06 0)
(1.43345e-06 5.91825e-06 0)
(3.71253e-07 5.87018e-06 0)
(-4.42018e-07 6.3836e-06 0)
(-8.09069e-07 2.23538e-06 0)
(-5.89916e-07 4.82549e-07 0)
(-1.57395e-07 1.9619e-07 0)
(1.57395e-07 1.9619e-07 0)
(5.89916e-07 4.82549e-07 0)
(8.09069e-07 2.23538e-06 0)
(4.42018e-07 6.3836e-06 0)
(-3.71253e-07 5.87018e-06 0)
(-1.43345e-06 5.91825e-06 0)
(-2.20773e-06 7.02795e-06 0)
(-1.43684e-06 9.55143e-06 0)
(-1.68859e-07 7.94339e-06 0)
(-7.27568e-07 6.13472e-06 0)
(-2.29291e-06 6.41243e-06 0)
(-2.48203e-06 8.49658e-06 0)
(-1.69629e-06 8.43387e-06 0)
(-1.8914e-06 7.60081e-06 0)
(-2.65197e-06 8.05685e-06 0)
(-2.36003e-06 9.59646e-06 0)
(-1.63283e-06 9.13455e-06 0)
(-1.80692e-06 8.57749e-06 0)
(-2.27449e-06 8.90241e-06 0)
(-2.17518e-06 9.74463e-06 0)
(-1.89494e-06 9.64805e-06 0)
(-1.90845e-06 9.79138e-06 0)
(-1.73298e-06 1.02514e-05 0)
(-1.50919e-06 1.01994e-05 0)
(-1.49975e-06 1.03126e-05 0)
(-1.41343e-06 1.07078e-05 0)
(-1.1378e-06 1.10743e-05 0)
(-6.71328e-07 1.14523e-05 0)
(-5.60203e-08 1.16009e-05 0)
(6.22232e-07 1.16011e-05 0)
(1.28209e-06 1.13285e-05 0)
(1.84153e-06 1.09208e-05 0)
(2.28603e-06 1.03736e-05 0)
(2.60562e-06 9.75046e-06 0)
(2.7815e-06 9.01319e-06 0)
(2.72914e-06 8.17461e-06 0)