/*--------------------------------*- C++ -*----------------------------------*\
  =========                 |
  \\      /  F ield         | OpenFOAM: The Open Source CFD Toolbox
   \\    /   O peration     | Website:  https://openfoam.org
    \\  /    A nd           | Version:  10
     \\/     M anipulation  |
\*---------------------------------------------------------------------------*/
FoamFile
{
    format      ascii;
    class       volScalarField;
    location    "17750";
    object      p;
}
// * * * * * * * * * * * * * * * * * * * * * * * * * * * * * * * * * * * * * //

dimensions      [1 -1 -2 0 0 0 0];

internalField   nonuniform List<scalar> 
3200
(
109.93
109.957
110.012
110.092
110.2
110.338
110.506
110.711
110.958
111.257
111.624
112.083
112.679
113.487
114.669
202.113
421.043
619.244
804.893
981.349
1150.44
1313.33
1470.81
1623.46
1771.74
1915.98
2056.48
2193.48
2327.17
2457.72
2585.29
2705.4
2817.35
2922.14
3020.19
3111.17
3193.8
3265.61
3322.37
3357.2
107.42
107.446
107.497
107.572
107.673
107.8
107.953
108.135
108.347
108.593
108.872
109.183
109.512
109.821
110.013
109.855
109.499
109.258
109.098
108.999
108.949
108.942
108.976
109.05
109.169
109.341
109.58
109.907
110.361
111.166
205.47
307.674
409.244
510.972
613.261
716.983
823.744
936.104
1057.77
1168.8
104.855
104.878
104.924
104.991
105.079
105.188
105.318
105.467
105.635
105.818
106.012
106.207
106.388
106.531
106.604
106.583
106.499
106.41
106.337
106.287
106.263
106.265
106.292
106.343
106.415
106.506
106.608
106.705
106.77
106.745
106.559
106.395
106.277
106.195
106.143
106.116
106.114
106.137
107.565
142.581
102.241
102.261
102.3
102.357
102.431
102.521
102.625
102.742
102.87
103.003
103.137
103.265
103.377
103.465
103.518
103.535
103.527
103.506
103.486
103.472
103.468
103.476
103.496
103.527
103.565
103.607
103.646
103.676
103.686
103.669
103.626
103.574
103.527
103.488
103.462
103.446
103.44
103.441
103.457
104.945
99.5856
99.6022
99.6344
99.6812
99.7412
99.8132
99.8953
99.9855
100.081
100.179
100.274
100.364
100.442
100.506
100.552
100.581
100.597
100.605
100.609
100.614
100.622
100.635
100.651
100.671
100.694
100.716
100.735
100.749
100.756
100.754
100.745
100.732
100.72
100.711
100.706
100.705
100.709
100.717
100.741
101.627
96.895
96.9085
96.9345
96.9721
97.0199
97.0766
97.1405
97.2097
97.2819
97.3547
97.4255
97.4917
97.5508
97.6011
97.6419
97.6734
97.6973
97.7157
97.7307
97.7444
97.758
97.7725
97.7879
97.8042
97.8206
97.8364
97.8508
97.863
97.8726
97.8798
97.8854
97.8908
97.8973
97.9061
97.9181
97.9336
97.9526
97.9741
98.0351
98.8534
94.1761
94.1869
94.2076
94.2374
94.2751
94.3194
94.369
94.4223
94.4775
94.533
94.587
94.6379
94.6844
94.7255
94.7611
94.7912
94.8164
94.8379
94.8566
94.8735
94.8894
94.9047
94.9198
94.9347
94.9492
94.9633
94.9768
94.9896
95.002
95.0143
95.0272
95.0415
95.0583
95.0787
95.1038
95.1349
95.1735
95.2215
95.4154
96.1176
91.4346
91.4431
91.4595
91.4829
91.5125
91.5471
91.5857
91.627
91.6698
91.7128
91.7548
91.795
91.8323
91.8664
91.897
91.9241
91.9481
91.9693
91.9884
92.0057
92.0218
92.037
92.0515
92.0654
92.0789
92.092
92.1048
92.1176
92.1306
92.1441
92.1587
92.1751
92.1941
92.2165
92.2437
92.2772
92.3189
92.3718
92.7402
93.3007
88.6751
88.6818
88.6947
88.7131
88.7363
88.7634
88.7936
88.8258
88.8593
88.8931
88.9263
88.9584
88.9887
89.017
89.043
89.0667
89.0882
89.1078
89.1256
89.1419
89.157
89.1712
89.1845
89.1971
89.2092
89.2208
89.2321
89.2433
89.2545
89.266
89.278
89.2907
89.3045
89.3196
89.3363
89.3546
89.3745
89.3957
89.5663
90.1413
85.9015
85.9068
85.9169
85.9314
85.9496
85.9709
85.9946
86.0199
86.0463
86.0731
86.0996
86.1254
86.1501
86.1735
86.1954
86.2156
86.2343
86.2515
86.2673
86.2819
86.2954
86.3079
86.3195
86.3304
86.3405
86.3501
86.3592
86.3677
86.3759
86.3837
86.3912
86.3982
86.4047
86.4105
86.4151
86.4181
86.4183
86.4146
86.405
86.6653
83.1168
83.1209
83.1289
83.1403
83.1546
83.1714
83.1901
83.2101
83.231
83.2523
83.2736
83.2944
83.3145
83.3338
83.3519
83.3689
83.3848
83.3994
83.413
83.4255
83.4369
83.4475
83.4571
83.4659
83.474
83.4813
83.4878
83.4936
83.4986
83.5028
83.506
83.5082
83.5091
83.5083
83.5056
83.5004
83.4921
83.4799
83.4629
83.4556
80.3233
80.3266
80.3329
80.3419
80.3532
80.3664
80.3811
80.397
80.4136
80.4306
80.4476
80.4644
80.4807
80.4964
80.5113
80.5254
80.5385
80.5507
80.5619
80.5722
80.5816
80.5901
80.5978
80.6046
80.6105
80.6156
80.6198
80.6231
80.6255
80.6269
80.6271
80.6261
80.6237
80.6198
80.6141
80.6064
80.5965
80.5844
80.57
80.5661
77.523
77.5256
77.5305
77.5376
77.5465
77.557
77.5686
77.5812
77.5944
77.6079
77.6215
77.635
77.6481
77.6607
77.6728
77.6842
77.6948
77.7047
77.7138
77.722
77.7294
77.736
77.7417
77.7466
77.7507
77.7539
77.7562
77.7576
77.758
77.7574
77.7558
77.753
77.7489
77.7436
77.737
77.729
77.7195
77.7088
77.6967
77.6941
74.7173
74.7193
74.7232
74.7287
74.7358
74.744
74.7532
74.7631
74.7736
74.7843
74.7951
74.8058
74.8162
74.8263
74.8359
74.845
74.8534
74.8612
74.8683
74.8746
74.8802
74.885
74.8891
74.8923
74.8948
74.8964
74.8972
74.8972
74.8962
74.8944
74.8916
74.8878
74.883
74.8773
74.8705
74.8628
74.8541
74.8446
74.8342
74.8324
71.9073
71.9089
71.9119
71.9163
71.9218
71.9282
71.9354
71.9432
71.9514
71.9599
71.9683
71.9768
71.985
71.9929
72.0004
72.0074
72.0139
72.0198
72.0251
72.0298
72.0338
72.0371
72.0397
72.0416
72.0427
72.0431
72.0428
72.0417
72.0397
72.0371
72.0336
72.0293
72.0242
72.0184
72.0118
72.0045
71.9966
71.988
71.9789
71.9774
69.0939
69.0952
69.0975
69.1009
69.1052
69.1102
69.1159
69.1219
69.1283
69.1348
69.1414
69.1479
69.1542
69.1603
69.166
69.1713
69.1761
69.1805
69.1842
69.1875
69.1901
69.1921
69.1935
69.1942
69.1943
69.1937
69.1924
69.1905
69.1879
69.1847
69.1808
69.1762
69.1711
69.1653
69.1589
69.1521
69.1447
69.1368
69.1286
69.1273
66.278
66.2789
66.2808
66.2834
66.2867
66.2905
66.2949
66.2995
66.3044
66.3094
66.3143
66.3192
66.324
66.3285
66.3327
66.3365
66.3399
66.3429
66.3454
66.3473
66.3488
66.3497
66.3501
66.3498
66.3491
66.3477
66.3458
66.3432
66.3402
66.3365
66.3324
66.3277
66.3225
66.3168
66.3106
66.3041
66.2971
66.2899
66.2823
66.281
63.4601
63.4608
63.4622
63.4641
63.4666
63.4695
63.4728
63.4763
63.4799
63.4836
63.4873
63.4908
63.4943
63.4974
63.5003
63.5029
63.5051
63.5069
63.5083
63.5093
63.5097
63.5097
63.5092
63.5082
63.5067
63.5048
63.5023
63.4993
63.4959
63.4919
63.4876
63.4828
63.4776
63.472
63.466
63.4598
63.4532
63.4463
63.4392
63.4378
60.6406
60.6411
60.6422
60.6436
60.6454
60.6476
60.65
60.6525
60.6551
60.6577
60.6603
60.6628
60.6651
60.6671
60.669
60.6705
60.6717
60.6725
60.673
60.6731
60.6727
60.6719
60.6707
60.6691
60.667
60.6645
60.6616
60.6583
60.6546
60.6504
60.6459
60.6411
60.6359
60.6304
60.6245
60.6185
60.6121
60.6056
60.5988
60.5974
57.82
57.8204
57.8211
57.8222
57.8235
57.8249
57.8266
57.8283
57.8301
57.8318
57.8335
57.835
57.8364
57.8376
57.8385
57.8392
57.8395
57.8395
57.8392
57.8385
57.8375
57.8361
57.8343
57.8321
57.8296
57.8267
57.8234
57.8198
57.8158
57.8115
57.8069
57.802
57.7968
57.7914
57.7857
57.7798
57.7736
57.7673
57.7608
57.7593
54.9986
54.9989
54.9994
55.0001
55.0009
55.0019
55.0029
55.004
55.0051
55.0061
55.007
55.0078
55.0084
55.0088
55.009
55.0089
55.0085
55.0078
55.0069
55.0056
55.004
55.002
54.9998
54.9972
54.9942
54.991
54.9874
54.9836
54.9794
54.975
54.9703
54.9653
54.9601
54.9547
54.9491
54.9433
54.9373
54.9312
54.9249
54.9233
52.1767
52.1768
52.1771
52.1775
52.178
52.1786
52.1791
52.1797
52.1802
52.1806
52.1809
52.181
52.181
52.1807
52.1803
52.1796
52.1786
52.1774
52.1759
52.1741
52.172
52.1696
52.1669
52.1639
52.1607
52.1572
52.1534
52.1493
52.145
52.1404
52.1356
52.1306
52.1255
52.1201
52.1145
52.1088
52.103
52.097
52.0909
52.0892
49.3544
49.3545
49.3546
49.3548
49.355
49.3552
49.3553
49.3555
49.3555
49.3554
49.3552
49.3548
49.3542
49.3534
49.3525
49.3513
49.3498
49.3481
49.3461
49.3439
49.3414
49.3386
49.3356
49.3323
49.3288
49.325
49.321
49.3168
49.3123
49.3077
49.3028
49.2978
49.2926
49.2872
49.2818
49.2761
49.2704
49.2646
49.2586
49.2567
46.5321
46.5321
46.532
46.532
46.532
46.5319
46.5317
46.5314
46.5311
46.5306
46.5299
46.5291
46.5281
46.5269
46.5255
46.5239
46.522
46.5199
46.5176
46.515
46.5121
46.5091
46.5058
46.5022
46.4985
46.4945
46.4903
46.4859
46.4813
46.4765
46.4716
46.4666
46.4613
46.456
46.4505
46.445
46.4393
46.4336
46.4278
46.4257
43.7097
43.7096
43.7095
43.7093
43.7091
43.7087
43.7083
43.7078
43.7071
43.7062
43.7053
43.7041
43.7027
43.7012
43.6994
43.6974
43.6952
43.6928
43.6901
43.6873
43.6841
43.6808
43.6772
43.6735
43.6695
43.6653
43.661
43.6564
43.6517
43.6469
43.6419
43.6368
43.6315
43.6262
43.6208
43.6152
43.6097
43.604
43.5983
43.5961
40.8874
40.8873
40.8871
40.8868
40.8864
40.8859
40.8852
40.8844
40.8835
40.8824
40.8811
40.8797
40.8781
40.8762
40.8742
40.8719
40.8694
40.8667
40.8638
40.8607
40.8573
40.8538
40.85
40.846
40.8419
40.8375
40.833
40.8283
40.8235
40.8185
40.8135
40.8083
40.803
40.7976
40.7922
40.7867
40.7812
40.7756
40.77
40.7676
38.0653
38.0652
38.0649
38.0645
38.064
38.0633
38.0625
38.0616
38.0604
38.0591
38.0577
38.056
38.0541
38.0521
38.0498
38.0473
38.0446
38.0417
38.0386
38.0352
38.0317
38.0279
38.024
38.0198
38.0155
38.011
38.0063
38.0015
37.9965
37.9914
37.9863
37.981
37.9756
37.9702
37.9648
37.9593
37.9537
37.9482
37.9427
37.9403
35.2435
35.2433
35.243
35.2426
35.242
35.2412
35.2403
35.2392
35.2379
35.2365
35.2348
35.233
35.231
35.2287
35.2263
35.2236
35.2208
35.2177
35.2144
35.2109
35.2072
35.2033
35.1991
35.1948
35.1903
35.1856
35.1808
35.1758
35.1707
35.1655
35.1602
35.1548
35.1493
35.1438
35.1382
35.1327
35.1272
35.1216
35.1161
35.1137
32.422
32.4219
32.4215
32.421
32.4203
32.4195
32.4185
32.4173
32.4159
32.4144
32.4126
32.4107
32.4086
32.4062
32.4037
32.4009
32.3979
32.3947
32.3913
32.3877
32.3839
32.3798
32.3755
32.3711
32.3664
32.3616
32.3566
32.3514
32.3461
32.3407
32.3351
32.3295
32.3239
32.3182
32.3125
32.3068
32.3012
32.2956
32.2901
32.2877
29.6009
29.6008
29.6004
29.5999
29.5991
29.5983
29.5972
29.596
29.5945
29.5929
29.5911
29.5891
29.5869
29.5845
29.5819
29.5791
29.5761
29.5728
29.5693
29.5656
29.5617
29.5576
29.5532
29.5486
29.5438
29.5388
29.5336
29.5282
29.5227
29.517
29.5112
29.5052
29.4993
29.4933
29.4873
29.4813
29.4755
29.4698
29.4643
29.4618
26.7802
26.78
26.7797
26.7791
26.7784
26.7775
26.7764
26.7752
26.7737
26.7721
26.7703
26.7683
26.7661
26.7637
26.7611
26.7583
26.7552
26.752
26.7485
26.7448
26.7408
26.7366
26.7322
26.7276
26.7226
26.7175
26.7121
26.7065
26.7007
26.6946
26.6884
26.682
26.6755
26.669
26.6624
26.6559
26.6496
26.6436
26.6378
26.6353
23.9599
23.9597
23.9594
23.9588
23.9581
23.9572
23.9562
23.9549
23.9535
23.9519
23.9502
23.9482
23.9461
23.9437
23.9412
23.9384
23.9354
23.9322
23.9288
23.9252
23.9213
23.9171
23.9127
23.908
23.9031
23.8979
23.8924
23.8865
23.8804
23.874
23.8673
23.8602
23.8529
23.8454
23.8378
23.8302
23.8227
23.8157
23.8094
23.807
21.14
21.1398
21.1395
21.139
21.1383
21.1374
21.1364
21.1352
21.1339
21.1324
21.1307
21.1288
21.1268
21.1245
21.1221
21.1195
21.1166
21.1136
21.1103
21.1068
21.103
21.099
21.0948
21.0902
21.0854
21.0802
21.0747
21.0688
21.0626
21.0558
21.0486
21.0409
21.0326
21.0236
21.0141
21.004
20.9936
20.9836
20.9754
20.975
18.3205
18.3203
18.32
18.3195
18.3189
18.3181
18.3171
18.316
18.3148
18.3134
18.3118
18.3101
18.3082
18.3061
18.3039
18.3014
18.2988
18.296
18.2929
18.2897
18.2862
18.2824
18.2784
18.2742
18.2696
18.2647
18.2595
18.2539
18.2478
18.2413
18.2341
18.2261
18.2173
18.2071
18.1953
18.181
18.163
18.1393
18.1066
18.0821
15.5013
15.5011
15.5008
15.5004
15.4998
15.4991
15.4983
15.4973
15.4962
15.495
15.4936
15.492
15.4903
15.4885
15.4865
15.4843
15.4819
15.4794
15.4767
15.4737
15.4706
15.4673
15.4637
15.4599
15.4558
15.4515
15.4469
15.4419
15.4366
15.431
15.4248
15.4183
15.4112
15.4036
15.3954
15.3867
15.3778
15.3693
15.3623
15.3594
12.6824
12.6823
12.682
12.6817
12.6812
12.6806
12.6799
12.679
12.6781
12.677
12.6758
12.6745
12.673
12.6714
12.6697
12.6679
12.6658
12.6637
12.6614
12.6589
12.6562
12.6534
12.6504
12.6472
12.6438
12.6402
12.6364
12.6324
12.6281
12.6237
12.6191
12.6144
12.6095
12.6046
12.5998
12.5953
12.5913
12.5882
12.5863
12.5862
9.8638
9.8637
9.8635
9.8632
9.86281
9.86232
9.86174
9.86107
9.8603
9.85944
9.85848
9.85741
9.85625
9.85497
9.85359
9.85209
9.85048
9.84874
9.84688
9.8449
9.84278
9.84053
9.83815
9.83564
9.83299
9.83022
9.82732
9.82432
9.82122
9.81806
9.81486
9.81168
9.80857
9.80561
9.8029
9.80055
9.79869
9.79744
9.79691
9.7972
7.04541
7.04534
7.04519
7.04497
7.04468
7.04433
7.0439
7.04341
7.04285
7.04221
7.04151
7.04073
7.03987
7.03894
7.03793
7.03684
7.03566
7.03439
7.03304
7.0316
7.03007
7.02845
7.02674
7.02494
7.02307
7.02113
7.01912
7.01707
7.01499
7.01291
7.01086
7.00888
7.00701
7.00529
7.00379
7.00257
7.00167
7.00114
7.00102
7.00131
4.22718
4.22714
4.22705
4.22691
4.22674
4.22652
4.22626
4.22596
4.22562
4.22523
4.2248
4.22432
4.2238
4.22324
4.22262
4.22195
4.22124
4.22047
4.21965
4.21877
4.21785
4.21687
4.21585
4.21478
4.21367
4.21252
4.21135
4.21017
4.20898
4.20781
4.20667
4.2056
4.2046
4.20371
4.20296
4.20237
4.20195
4.20174
4.20173
4.20193
1.40905
1.40903
1.409
1.40896
1.4089
1.40883
1.40874
1.40864
1.40852
1.40839
1.40825
1.40809
1.40791
1.40772
1.40752
1.40729
1.40705
1.40679
1.40652
1.40623
1.40592
1.40559
1.40525
1.4049
1.40453
1.40415
1.40377
1.40338
1.403
1.40262
1.40226
1.40191
1.4016
1.40133
1.4011
1.40092
1.4008
1.40074
1.40075
1.40082
3361.47
3334.51
3285.21
3221.05
3146.69
3064.98
2977.52
2884.99
2787.29
2683.54
2571.98
2451.56
2328.8
2203.66
2076.05
1945.91
1813.14
1677.65
1539.32
1398.02
1253.59
1105.81
954.418
799.038
639.109
473.7
300.974
119.253
115.137
114.008
113.226
112.655
112.222
111.886
111.621
111.413
111.254
111.137
111.06
111.021
1172.23
1061.54
944.777
839.064
739.827
644.155
550.298
457.357
365.132
274.093
185.34
111.848
110.835
110.283
109.89
109.606
109.402
109.259
109.167
109.119
109.112
109.147
109.225
109.354
109.544
109.813
110.191
110.7
110.734
110.473
110.133
109.796
109.494
109.234
109.016
108.837
108.697
108.592
108.522
108.486
130.401
106.29
105.922
105.906
105.918
105.958
106.026
106.125
106.26
106.439
106.676
106.944
107.003
106.944
106.841
106.73
106.631
106.551
106.496
106.467
106.465
106.493
106.55
106.638
106.757
106.904
107.067
107.207
107.238
107.158
107.009
106.828
106.64
106.462
106.302
106.164
106.052
105.966
105.907
105.877
103.191
103.196
103.208
103.225
103.251
103.289
103.342
103.409
103.49
103.583
103.681
103.768
103.818
103.832
103.818
103.79
103.758
103.728
103.706
103.697
103.702
103.723
103.761
103.814
103.88
103.953
104.023
104.072
104.081
104.044
103.969
103.867
103.753
103.636
103.525
103.425
103.341
103.275
103.229
103.206
100.436
100.446
100.458
100.476
100.499
100.529
100.565
100.609
100.657
100.708
100.758
100.803
100.837
100.859
100.869
100.871
100.868
100.864
100.862
100.865
100.874
100.891
100.916
100.947
100.982
101.018
101.048
101.067
101.066
101.043
100.999
100.938
100.866
100.79
100.715
100.645
100.584
100.536
100.502
100.484
97.6487
97.6585
97.6698
97.6847
97.7032
97.7254
97.751
97.7797
97.8107
97.8426
97.8739
97.9029
97.928
97.9482
97.9636
97.9748
97.9831
97.99
97.997
98.0054
98.0163
98.0301
98.0468
98.0656
98.0851
98.1031
98.1166
98.1225
98.118
98.1016
98.0733
98.0348
97.9889
97.9389
97.8883
97.8402
97.7977
97.7631
97.7386
97.7258
94.8355
94.845
94.8556
94.8684
94.8833
94.9004
94.9194
94.94
94.9618
94.9841
95.0062
95.0275
95.0471
95.0648
95.0802
95.0936
95.1054
95.1161
95.1263
95.1366
95.1474
95.159
95.1711
95.1833
95.1948
95.2044
95.2105
95.2117
95.2067
95.1947
95.1757
95.1503
95.1201
95.087
95.0529
95.0201
94.9907
94.9666
94.9493
94.9402
92.0067
92.016
92.0262
92.0376
92.0503
92.0642
92.0793
92.0953
92.112
92.129
92.1461
92.1629
92.179
92.1943
92.2085
92.2216
92.2338
92.2452
92.256
92.2663
92.2764
92.2863
92.2958
92.3045
92.3121
92.3178
92.3209
92.3207
92.3164
92.3078
92.2949
92.278
92.2579
92.2357
92.2128
92.1906
92.1705
92.1538
92.1419
92.1355
89.1694
89.1785
89.1883
89.1988
89.2101
89.2221
89.2347
89.248
89.2617
89.2756
89.2897
89.3037
89.3174
89.3306
89.3434
89.3555
89.367
89.3779
89.3882
89.398
89.4072
89.4158
89.4237
89.4307
89.4364
89.4405
89.4426
89.4423
89.4393
89.4334
89.4247
89.4135
89.4001
89.3853
89.37
89.355
89.3414
89.3301
89.3219
89.3175
86.3286
86.3369
86.3461
86.3558
86.366
86.3767
86.3878
86.3993
86.4111
86.4231
86.4352
86.4473
86.4593
86.471
86.4824
86.4934
86.504
86.5141
86.5237
86.5327
86.5411
86.5489
86.5558
86.5618
86.5667
86.5702
86.5722
86.5724
86.5707
86.5671
86.5615
86.5542
86.5454
86.5357
86.5256
86.5156
86.5065
86.4989
86.4934
86.4904
83.4862
83.493
83.5015
83.5105
83.5199
83.5297
83.5398
83.5501
83.5606
83.5713
83.5821
83.5929
83.6036
83.6141
83.6245
83.6345
83.6442
83.6535
83.6623
83.6707
83.6784
83.6855
83.6919
83.6974
83.702
83.7054
83.7076
83.7086
83.7081
83.7062
83.703
83.6985
83.693
83.6868
83.6802
83.6737
83.6677
83.6627
83.6591
83.6571
80.6388
80.646
80.6546
80.6634
80.6724
80.6817
80.6911
80.7007
80.7104
80.7202
80.7301
80.7399
80.7497
80.7594
80.7688
80.7781
80.7871
80.7957
80.8039
80.8117
80.8189
80.8256
80.8316
80.8369
80.8414
80.845
80.8476
80.8492
80.8497
80.8492
80.8477
80.8453
80.8421
80.8384
80.8344
80.8303
80.8266
80.8234
80.821
80.8198
77.7911
77.7985
77.8071
77.8158
77.8246
77.8335
77.8425
77.8516
77.8608
77.87
77.8792
77.8883
77.8974
77.9064
77.9153
77.9239
77.9323
77.9404
77.9481
77.9554
77.9623
77.9687
77.9745
77.9797
77.9842
77.988
77.9911
77.9933
77.9947
77.9952
77.995
77.9941
77.9926
77.9907
77.9884
77.9861
77.9839
77.982
77.9805
77.9798
74.9438
74.9513
74.9598
74.9684
74.977
74.9856
74.9944
75.0031
75.0119
75.0206
75.0294
75.0381
75.0467
75.0552
75.0635
75.0717
75.0796
75.0873
75.0946
75.1016
75.1083
75.1145
75.1202
75.1253
75.1299
75.134
75.1373
75.1401
75.1421
75.1435
75.1443
75.1445
75.1443
75.1436
75.1426
75.1415
75.1404
75.1394
75.1386
75.1382
72.0974
72.1048
72.1132
72.1217
72.1301
72.1386
72.147
72.1555
72.164
72.1724
72.1808
72.1891
72.1973
72.2055
72.2134
72.2212
72.2288
72.2362
72.2433
72.25
72.2565
72.2625
72.2682
72.2734
72.2781
72.2823
72.286
72.2891
72.2917
72.2937
72.2953
72.2963
72.2969
72.2972
72.2971
72.2969
72.2966
72.2962
72.2959
72.2957
69.2521
69.2594
69.2677
69.2759
69.2842
69.2925
69.3008
69.309
69.3172
69.3254
69.3335
69.3415
69.3494
69.3573
69.365
69.3725
69.3798
69.3869
69.3938
69.4004
69.4067
69.4127
69.4183
69.4235
69.4283
69.4327
69.4366
69.44
69.443
69.4456
69.4477
69.4493
69.4506
69.4515
69.4522
69.4525
69.4528
69.4529
69.4529
69.4529
66.4079
66.415
66.4232
66.4313
66.4394
66.4475
66.4556
66.4636
66.4716
66.4796
66.4874
66.4952
66.5029
66.5105
66.518
66.5253
66.5324
66.5393
66.546
66.5525
66.5587
66.5646
66.5702
66.5754
66.5803
66.5848
66.5889
66.5927
66.596
66.5989
66.6014
66.6035
66.6052
66.6067
66.6078
66.6086
66.6093
66.6097
66.61
66.6101
63.565
63.5719
63.5799
63.5878
63.5958
63.6037
63.6116
63.6194
63.6273
63.635
63.6427
63.6503
63.6578
63.6652
63.6724
63.6796
63.6865
63.6933
63.6999
63.7062
63.7124
63.7182
63.7238
63.729
63.734
63.7386
63.7429
63.7468
63.7503
63.7535
63.7563
63.7588
63.7609
63.7626
63.7641
63.7653
63.7662
63.7669
63.7673
63.7675
60.7233
60.73
60.7378
60.7456
60.7533
60.7611
60.7688
60.7765
60.7841
60.7917
60.7992
60.8066
60.814
60.8212
60.8283
60.8353
60.8421
60.8487
60.8552
60.8615
60.8675
60.8733
60.8789
60.8842
60.8892
60.8939
60.8982
60.9023
60.906
60.9094
60.9124
60.9151
60.9175
60.9195
60.9212
60.9226
60.9238
60.9246
60.9252
60.9255
57.8828
57.8892
57.8968
57.9045
57.9121
57.9196
57.9272
57.9347
57.9422
57.9496
57.9569
57.9642
57.9714
57.9785
57.9855
57.9923
57.999
58.0056
58.0119
58.0181
58.0241
58.0299
58.0354
58.0407
58.0457
58.0505
58.0549
58.0591
58.0629
58.0664
58.0696
58.0725
58.075
58.0773
58.0792
58.0808
58.082
58.083
58.0837
58.084
55.0434
55.0496
55.057
55.0645
55.0719
55.0794
55.0868
55.0941
55.1014
55.1087
55.1159
55.123
55.1301
55.137
55.1439
55.1506
55.1572
55.1637
55.17
55.1761
55.182
55.1878
55.1933
55.1985
55.2036
55.2083
55.2128
55.217
55.221
55.2246
55.2279
55.2309
55.2336
55.2359
55.238
55.2397
55.2411
55.2421
55.2428
55.2432
52.2052
52.211
52.2184
52.2256
52.2329
52.2402
52.2474
52.2546
52.2618
52.2689
52.276
52.283
52.2899
52.2968
52.3035
52.3102
52.3167
52.323
52.3293
52.3353
52.3412
52.3469
52.3524
52.3576
52.3627
52.3674
52.372
52.3762
52.3802
52.3839
52.3873
52.3903
52.3931
52.3956
52.3977
52.3995
52.4009
52.402
52.4028
52.4032
49.3679
49.3736
49.3807
49.3879
49.395
49.4021
49.4092
49.4163
49.4233
49.4303
49.4372
49.4441
49.4509
49.4577
49.4643
49.4709
49.4773
49.4836
49.4897
49.4957
49.5016
49.5072
49.5127
49.5179
49.5229
49.5277
49.5322
49.5365
49.5405
49.5442
49.5477
49.5508
49.5536
49.5561
49.5583
49.5601
49.5616
49.5628
49.5636
49.564
46.5317
46.5371
46.5441
46.5511
46.558
46.565
46.572
46.5789
46.5858
46.5927
46.5995
46.6063
46.613
46.6197
46.6263
46.6327
46.6391
46.6453
46.6514
46.6573
46.6631
46.6687
46.6741
46.6793
46.6843
46.6891
46.6936
46.6979
46.7019
46.7056
46.7091
46.7122
46.7151
46.7176
46.7198
46.7217
46.7232
46.7244
46.7252
46.7256
43.6964
43.7016
43.7084
43.7152
43.722
43.7288
43.7357
43.7425
43.7493
43.7561
43.7628
43.7695
43.7762
43.7828
43.7893
43.7957
43.802
43.8081
43.8142
43.8201
43.8258
43.8314
43.8367
43.8419
43.8469
43.8516
43.8561
43.8604
43.8644
43.8681
43.8715
43.8747
43.8775
43.8801
43.8823
43.8842
43.8857
43.8869
43.8877
43.8881
40.862
40.8669
40.8735
40.8802
40.8868
40.8935
40.9003
40.907
40.9137
40.9204
40.9271
40.9338
40.9403
40.9469
40.9533
40.9597
40.9659
40.9721
40.9781
40.9839
40.9896
40.9951
41.0005
41.0056
41.0105
41.0152
41.0197
41.0239
41.0278
41.0315
41.035
41.0381
41.0409
41.0435
41.0457
41.0475
41.0491
41.0502
41.051
41.0515
38.0282
38.0328
38.0393
38.0458
38.0524
38.059
38.0656
38.0723
38.079
38.0856
38.0923
38.0989
38.1055
38.112
38.1184
38.1248
38.131
38.1371
38.1431
38.1489
38.1546
38.16
38.1653
38.1704
38.1752
38.1799
38.1843
38.1885
38.1924
38.196
38.1994
38.2025
38.2053
38.2078
38.21
38.2118
38.2133
38.2145
38.2153
38.2157
35.1948
35.1992
35.2055
35.212
35.2184
35.225
35.2316
35.2383
35.245
35.2517
35.2584
35.265
35.2716
35.2782
35.2846
35.291
35.2972
35.3033
35.3092
35.315
35.3206
35.326
35.3313
35.3363
35.3411
35.3457
35.35
35.3541
35.3579
35.3615
35.3648
35.3678
35.3706
35.373
35.3752
35.377
35.3785
35.3796
35.3804
35.3808
32.3617
32.3658
32.372
32.3784
32.3848
32.3914
32.3981
32.4049
32.4117
32.4185
32.4253
32.432
32.4387
32.4454
32.4519
32.4583
32.4645
32.4706
32.4765
32.4823
32.4879
32.4932
32.4984
32.5033
32.508
32.5125
32.5167
32.5207
32.5245
32.528
32.5312
32.5341
32.5368
32.5392
32.5412
32.543
32.5444
32.5455
32.5463
32.5467
29.5282
29.5322
29.5383
29.5447
29.5513
29.558
29.565
29.572
29.579
29.5861
29.5931
29.6001
29.607
29.6137
29.6204
29.6268
29.6331
29.6392
29.6451
29.6508
29.6563
29.6616
29.6666
29.6715
29.6761
29.6804
29.6845
29.6884
29.692
29.6954
29.6985
29.7013
29.7039
29.7062
29.7082
29.7099
29.7112
29.7123
29.713
29.7134
26.6937
26.6974
26.7036
26.7102
26.7172
26.7245
26.732
26.7395
26.7471
26.7547
26.7621
26.7694
26.7765
26.7835
26.7902
26.7968
26.8031
26.8092
26.815
26.8206
26.826
26.8312
26.8361
26.8408
26.8452
26.8494
26.8534
26.8571
26.8606
26.8638
26.8667
26.8695
26.8719
26.8741
26.8759
26.8776
26.8789
26.8799
26.8805
26.8809
23.8563
23.8597
23.8663
23.8739
23.8821
23.8906
23.8993
23.9079
23.9164
23.9246
23.9326
23.9403
23.9478
23.9549
23.9618
23.9683
23.9746
23.9806
23.9864
23.9919
23.9971
24.0021
24.0068
24.0113
24.0155
24.0195
24.0233
24.0268
24.0301
24.0331
24.0359
24.0384
24.0407
24.0427
24.0445
24.046
24.0472
24.0482
24.0488
24.0491
21.0123
21.0141
21.0231
21.0341
21.0456
21.0569
21.0678
21.0781
21.0879
21.097
21.1056
21.1137
21.1213
21.1285
21.1354
21.1419
21.148
21.1538
21.1594
21.1646
21.1696
21.1743
21.1788
21.183
21.1869
21.1907
21.1942
21.1974
21.2005
21.2033
21.2059
21.2082
21.2103
21.2122
21.2138
21.2152
21.2163
21.2172
21.2178
21.2181
18.0901
18.131
18.1658
18.1916
18.2116
18.2279
18.2416
18.2535
18.2641
18.2736
18.2823
18.2904
18.2978
18.3048
18.3114
18.3175
18.3234
18.3288
18.334
18.3389
18.3435
18.3478
18.3519
18.3558
18.3594
18.3629
18.366
18.369
18.3718
18.3743
18.3766
18.3787
18.3806
18.3823
18.3838
18.385
18.386
18.3868
18.3873
18.3876
15.3625
15.3714
15.383
15.3953
15.4073
15.4186
15.4291
15.4388
15.4478
15.4561
15.4639
15.471
15.4778
15.4841
15.49
15.4955
15.5007
15.5057
15.5103
15.5147
15.5188
15.5227
15.5263
15.5298
15.533
15.536
15.5388
15.5414
15.5438
15.5461
15.5481
15.55
15.5516
15.5531
15.5544
15.5555
15.5564
15.557
15.5575
15.5577
12.5879
12.5915
12.5965
12.6026
12.6093
12.6162
12.6232
12.6301
12.6367
12.6431
12.6493
12.6551
12.6606
12.6659
12.6708
12.6755
12.68
12.6842
12.6881
12.6918
12.6954
12.6987
12.7018
12.7047
12.7074
12.71
12.7124
12.7146
12.7166
12.7185
12.7203
12.7218
12.7232
12.7245
12.7255
12.7265
12.7272
12.7278
12.7282
12.7284
9.79831
9.80024
9.80293
9.80628
9.81013
9.81435
9.8188
9.82338
9.82799
9.83256
9.83705
9.84141
9.84562
9.84967
9.85354
9.85723
9.86074
9.86407
9.86722
9.8702
9.87301
9.87566
9.87816
9.8805
9.88269
9.88474
9.88665
9.88842
9.89006
9.89157
9.89294
9.89419
9.89531
9.8963
9.89716
9.89788
9.89847
9.89892
9.89923
9.89939
7.00202
7.00316
7.0047
7.00662
7.00888
7.0114
7.01414
7.01702
7.01999
7.023
7.02601
7.02899
7.03191
7.03474
7.03748
7.04012
7.04264
7.04504
7.04732
7.04949
7.05153
7.05346
7.05528
7.05699
7.05859
7.06009
7.06148
7.06277
7.06397
7.06506
7.06607
7.06697
7.06779
7.06851
7.06913
7.06966
7.07009
7.07041
7.07064
7.07075
4.20233
4.20294
4.20376
4.20478
4.20597
4.20733
4.20881
4.2104
4.21206
4.21376
4.21549
4.21721
4.21892
4.22059
4.22221
4.22378
4.2253
4.22674
4.22812
4.22943
4.23067
4.23185
4.23295
4.23399
4.23496
4.23587
4.23672
4.23751
4.23823
4.2389
4.23951
4.24006
4.24056
4.24099
4.24137
4.24169
4.24195
4.24215
4.24228
4.24235
1.40095
1.40114
1.4014
1.40172
1.4021
1.40253
1.403
1.4035
1.40404
1.40459
1.40515
1.40571
1.40627
1.40682
1.40736
1.40788
1.40839
1.40887
1.40933
1.40977
1.41018
1.41058
1.41095
1.4113
1.41162
1.41193
1.41221
1.41248
1.41272
1.41294
1.41315
1.41333
1.4135
1.41365
1.41377
1.41388
1.41397
1.41403
1.41408
1.4141
)
;

boundaryField
{
    top
    {
        type            fixedValue;
        value           uniform 0;
    }
    inlet
    {
        type            darcyGradPressure;
        gradient        nonuniform List<scalar> 
80
(
9.81
9.81
9.81
9.81
9.81
9.81
9.81
9.81
9.81
9.81
9.81
9.81
9.81
9.81
9.81
1439.58
9356.6
9634.46
9714.4
9750.05
9769.17
9780.57
9787.89
9792.84
9796.33
9798.88
9800.78
9802.24
9803.39
9804.29
9805.02
9805.59
9806.03
9806.39
9806.69
9806.95
9807.18
9807.39
9807.58
9807.82
9809.34
9809.25
9809.18
9809.11
9809.03
9808.95
9808.86
9808.75
9808.61
9808.45
9808.24
9807.98
9807.65
9807.24
9806.72
9806.05
9805.17
9803.97
9802.32
9799.95
9796.42
9790.88
9781.6
9764.5
9727.91
9622.78
8809.47
16.3056
9.81
9.81
9.81
9.81
9.81
9.81
9.81
9.81
9.81
9.81
9.81
9.81
)
;
        value           nonuniform List<scalar> 
80
(
111.156
111.184
111.238
111.319
111.427
111.564
111.733
111.937
112.184
112.483
112.85
113.31
113.906
114.713
115.895
382.061
1590.62
1823.55
2019.19
2200.11
2371.59
2535.9
2694.3
2847.57
2996.28
3140.84
3281.58
3418.76
3552.59
3683.25
3810.92
3931.1
4043.1
4147.94
4246.03
4337.04
4419.7
4491.53
4548.32
4583.18
4587.64
4560.67
4511.36
4447.18
4372.81
4291.1
4203.63
4111.08
4013.36
3909.59
3798.01
3677.55
3554.76
3429.56
3301.89
3171.66
3038.79
2903.15
2764.61
2623.02
2478.14
2329.67
2177.12
2019.6
1855.1
1676.55
1402.16
121.292
116.363
115.234
114.452
113.882
113.449
113.112
112.847
112.64
112.48
112.363
112.286
112.247
)
;
    }
    axis
    {
        type            darcyGradPressure;
        gradient        uniform -0;
        value           nonuniform List<scalar> 
80
(
109.93
107.42
104.855
102.241
99.5856
96.895
94.1761
91.4346
88.6751
85.9015
83.1168
80.3233
77.523
74.7173
71.9073
69.0939
66.278
63.4601
60.6406
57.82
54.9986
52.1767
49.3544
46.5321
43.7097
40.8874
38.0653
35.2435
32.422
29.6009
26.7802
23.9599
21.14
18.3205
15.5013
12.6824
9.8638
7.04541
4.22718
1.40905
111.021
108.486
105.877
103.206
100.484
97.7258
94.9402
92.1355
89.3175
86.4904
83.6571
80.8198
77.9798
75.1382
72.2957
69.4529
66.6101
63.7675
60.9255
58.084
55.2432
52.4032
49.564
46.7256
43.8881
41.0515
38.2157
35.3808
32.5467
29.7134
26.8809
24.0491
21.2181
18.3876
15.5577
12.7284
9.89939
7.07075
4.24235
1.4141
)
;
    }
    frontAndBack
    {
        type            empty;
    }
}


// ************************************************************************* //
