/*--------------------------------*- C++ -*----------------------------------*\
  =========                 |
  \\      /  F ield         | OpenFOAM: The Open Source CFD Toolbox
   \\    /   O peration     | Website:  https://openfoam.org
    \\  /    A nd           | Version:  10
     \\/     M anipulation  |
\*---------------------------------------------------------------------------*/
FoamFile
{
    format      ascii;
    class       volVectorField;
    location    "4700";
    object      Ub;
}
// * * * * * * * * * * * * * * * * * * * * * * * * * * * * * * * * * * * * * //

dimensions      [0 1 -1 0 0 0 0];

internalField   nonuniform List<vector> 
6400
(
(-1.92675e-21 -9.87899e-16 0)
(-5.77574e-21 -9.87899e-16 0)
(-9.61106e-21 -9.87899e-16 0)
(-1.34233e-20 -9.87899e-16 0)
(-1.72024e-20 -9.87899e-16 0)
(-2.09377e-20 -9.87899e-16 0)
(-2.46175e-20 -9.87899e-16 0)
(-2.8229e-20 -9.87899e-16 0)
(-3.1758e-20 -9.87899e-16 0)
(-3.51885e-20 -9.87899e-16 0)
(-3.85027e-20 -9.87899e-16 0)
(-4.16806e-20 -9.87899e-16 0)
(-4.47e-20 -9.87899e-16 0)
(-4.75361e-20 -9.87899e-16 0)
(-5.0161e-20 -9.87899e-16 0)
(-5.25444e-20 -9.87899e-16 0)
(-5.46528e-20 -9.87899e-16 0)
(-5.64498e-20 -9.87899e-16 0)
(-5.78964e-20 -9.87899e-16 0)
(-5.89512e-20 -9.87899e-16 0)
(-5.95711e-20 -9.87899e-16 0)
(-5.97122e-20 -9.87899e-16 0)
(-5.93309e-20 -9.87899e-16 0)
(-5.83854e-20 -9.87899e-16 0)
(-5.68379e-20 -9.87899e-16 0)
(-5.46567e-20 -9.87899e-16 0)
(-5.18185e-20 -9.87899e-16 0)
(-4.83119e-20 -9.879e-16 0)
(-4.41396e-20 -9.879e-16 0)
(-3.9321e-20 -9.879e-16 0)
(-3.38947e-20 -9.879e-16 0)
(-2.7919e-20 -9.879e-16 0)
(-2.33487e-20 -9.879e-16 0)
(-2.04037e-20 -9.879e-16 0)
(-1.73881e-20 -9.879e-16 0)
(-1.43116e-20 -9.879e-16 0)
(-1.11846e-20 -9.879e-16 0)
(-8.01771e-21 -9.879e-16 0)
(-4.82218e-21 -9.879e-16 0)
(-1.60932e-21 -9.879e-16 0)
(1.60932e-21 -9.879e-16 0)
(4.82218e-21 -9.879e-16 0)
(8.01771e-21 -9.879e-16 0)
(1.11846e-20 -9.879e-16 0)
(1.43116e-20 -9.879e-16 0)
(1.73881e-20 -9.879e-16 0)
(2.04037e-20 -9.879e-16 0)
(2.33487e-20 -9.879e-16 0)
(2.7919e-20 -9.879e-16 0)
(3.38947e-20 -9.879e-16 0)
(3.9321e-20 -9.879e-16 0)
(4.41396e-20 -9.879e-16 0)
(4.83119e-20 -9.879e-16 0)
(5.18185e-20 -9.87899e-16 0)
(5.46567e-20 -9.87899e-16 0)
(5.68379e-20 -9.87899e-16 0)
(5.83854e-20 -9.87899e-16 0)
(5.93309e-20 -9.87899e-16 0)
(5.97122e-20 -9.87899e-16 0)
(5.95711e-20 -9.87899e-16 0)
(5.89512e-20 -9.87899e-16 0)
(5.78964e-20 -9.87899e-16 0)
(5.64498e-20 -9.87899e-16 0)
(5.46528e-20 -9.87899e-16 0)
(5.25444e-20 -9.87899e-16 0)
(5.0161e-20 -9.87899e-16 0)
(4.75361e-20 -9.87899e-16 0)
(4.47e-20 -9.87899e-16 0)
(4.16806e-20 -9.87899e-16 0)
(3.85027e-20 -9.87899e-16 0)
(3.51885e-20 -9.87899e-16 0)
(3.1758e-20 -9.87899e-16 0)
(2.8229e-20 -9.87899e-16 0)
(2.46175e-20 -9.87899e-16 0)
(2.09377e-20 -9.87899e-16 0)
(1.72024e-20 -9.87899e-16 0)
(1.34233e-20 -9.87899e-16 0)
(9.61106e-21 -9.87899e-16 0)
(5.77574e-21 -9.87899e-16 0)
(1.92675e-21 -9.87899e-16 0)
(-1.92695e-21 -9.87897e-16 0)
(-5.77632e-21 -9.87897e-16 0)
(-9.61205e-21 -9.87897e-16 0)
(-1.34247e-20 -9.87897e-16 0)
(-1.72042e-20 -9.87897e-16 0)
(-2.094e-20 -9.87897e-16 0)
(-2.46204e-20 -9.87897e-16 0)
(-2.82326e-20 -9.87897e-16 0)
(-3.17622e-20 -9.87897e-16 0)
(-3.51935e-20 -9.87897e-16 0)
(-3.85085e-20 -9.87897e-16 0)
(-4.16874e-20 -9.87898e-16 0)
(-4.47079e-20 -9.87898e-16 0)
(-4.75451e-20 -9.87898e-16 0)
(-5.01714e-20 -9.87898e-16 0)
(-5.25563e-20 -9.87898e-16 0)
(-5.46662e-20 -9.87898e-16 0)
(-5.64649e-20 -9.87898e-16 0)
(-5.79133e-20 -9.87898e-16 0)
(-5.897e-20 -9.87898e-16 0)
(-5.95918e-20 -9.87898e-16 0)
(-5.97348e-20 -9.87899e-16 0)
(-5.93553e-20 -9.87899e-16 0)
(-5.84114e-20 -9.87899e-16 0)
(-5.68653e-20 -9.87899e-16 0)
(-5.4685e-20 -9.87899e-16 0)
(-5.18474e-20 -9.879e-16 0)
(-4.83407e-20 -9.879e-16 0)
(-4.41675e-20 -9.879e-16 0)
(-3.93473e-20 -9.879e-16 0)
(-3.39184e-20 -9.879e-16 0)
(-2.79393e-20 -9.879e-16 0)
(-2.33662e-20 -9.87901e-16 0)
(-2.04192e-20 -9.87901e-16 0)
(-1.74014e-20 -9.87901e-16 0)
(-1.43227e-20 -9.87901e-16 0)
(-1.11933e-20 -9.87901e-16 0)
(-8.02399e-21 -9.87901e-16 0)
(-4.82597e-21 -9.87901e-16 0)
(-1.61059e-21 -9.87901e-16 0)
(1.61059e-21 -9.87901e-16 0)
(4.82597e-21 -9.87901e-16 0)
(8.02399e-21 -9.87901e-16 0)
(1.11933e-20 -9.87901e-16 0)
(1.43227e-20 -9.87901e-16 0)
(1.74014e-20 -9.87901e-16 0)
(2.04192e-20 -9.87901e-16 0)
(2.33662e-20 -9.87901e-16 0)
(2.79393e-20 -9.879e-16 0)
(3.39184e-20 -9.879e-16 0)
(3.93473e-20 -9.879e-16 0)
(4.41675e-20 -9.879e-16 0)
(4.83407e-20 -9.879e-16 0)
(5.18474e-20 -9.879e-16 0)
(5.4685e-20 -9.87899e-16 0)
(5.68653e-20 -9.87899e-16 0)
(5.84114e-20 -9.87899e-16 0)
(5.93553e-20 -9.87899e-16 0)
(5.97348e-20 -9.87899e-16 0)
(5.95918e-20 -9.87898e-16 0)
(5.897e-20 -9.87898e-16 0)
(5.79133e-20 -9.87898e-16 0)
(5.64649e-20 -9.87898e-16 0)
(5.46662e-20 -9.87898e-16 0)
(5.25563e-20 -9.87898e-16 0)
(5.01714e-20 -9.87898e-16 0)
(4.75451e-20 -9.87898e-16 0)
(4.47079e-20 -9.87898e-16 0)
(4.16874e-20 -9.87898e-16 0)
(3.85085e-20 -9.87897e-16 0)
(3.51935e-20 -9.87897e-16 0)
(3.17622e-20 -9.87897e-16 0)
(2.82326e-20 -9.87897e-16 0)
(2.46204e-20 -9.87897e-16 0)
(2.094e-20 -9.87897e-16 0)
(1.72042e-20 -9.87897e-16 0)
(1.34247e-20 -9.87897e-16 0)
(9.61205e-21 -9.87897e-16 0)
(5.77632e-21 -9.87897e-16 0)
(1.92695e-21 -9.87897e-16 0)
(-1.9274e-21 -9.87896e-16 0)
(-5.77768e-21 -9.87896e-16 0)
(-9.61435e-21 -9.87896e-16 0)
(-1.3428e-20 -9.87896e-16 0)
(-1.72086e-20 -9.87896e-16 0)
(-2.09456e-20 -9.87896e-16 0)
(-2.46272e-20 -9.87897e-16 0)
(-2.82408e-20 -9.87897e-16 0)
(-3.1772e-20 -9.87897e-16 0)
(-3.5205e-20 -9.87897e-16 0)
(-3.85221e-20 -9.87897e-16 0)
(-4.17032e-20 -9.87897e-16 0)
(-4.47262e-20 -9.87897e-16 0)
(-4.75662e-20 -9.87897e-16 0)
(-5.01955e-20 -9.87897e-16 0)
(-5.25837e-20 -9.87897e-16 0)
(-5.46972e-20 -9.87897e-16 0)
(-5.64998e-20 -9.87898e-16 0)
(-5.79523e-20 -9.87898e-16 0)
(-5.90133e-20 -9.87898e-16 0)
(-5.96395e-20 -9.87898e-16 0)
(-5.97868e-20 -9.87899e-16 0)
(-5.94115e-20 -9.87899e-16 0)
(-5.84714e-20 -9.87899e-16 0)
(-5.69285e-20 -9.879e-16 0)
(-5.47505e-20 -9.879e-16 0)
(-5.1914e-20 -9.879e-16 0)
(-4.84071e-20 -9.87901e-16 0)
(-4.42319e-20 -9.87901e-16 0)
(-3.94079e-20 -9.87901e-16 0)
(-3.39732e-20 -9.87902e-16 0)
(-2.79863e-20 -9.87902e-16 0)
(-2.34065e-20 -9.87902e-16 0)
(-2.04549e-20 -9.87902e-16 0)
(-1.74322e-20 -9.87902e-16 0)
(-1.43482e-20 -9.87902e-16 0)
(-1.12134e-20 -9.87902e-16 0)
(-8.03848e-21 -9.87902e-16 0)
(-4.83471e-21 -9.87902e-16 0)
(-1.61351e-21 -9.87902e-16 0)
(1.61351e-21 -9.87902e-16 0)
(4.83471e-21 -9.87902e-16 0)
(8.03848e-21 -9.87902e-16 0)
(1.12134e-20 -9.87902e-16 0)
(1.43482e-20 -9.87902e-16 0)
(1.74322e-20 -9.87902e-16 0)
(2.04549e-20 -9.87902e-16 0)
(2.34065e-20 -9.87902e-16 0)
(2.79863e-20 -9.87902e-16 0)
(3.39732e-20 -9.87902e-16 0)
(3.94079e-20 -9.87901e-16 0)
(4.42319e-20 -9.87901e-16 0)
(4.84071e-20 -9.87901e-16 0)
(5.1914e-20 -9.879e-16 0)
(5.47505e-20 -9.879e-16 0)
(5.69285e-20 -9.879e-16 0)
(5.84714e-20 -9.87899e-16 0)
(5.94115e-20 -9.87899e-16 0)
(5.97868e-20 -9.87899e-16 0)
(5.96395e-20 -9.87898e-16 0)
(5.90133e-20 -9.87898e-16 0)
(5.79523e-20 -9.87898e-16 0)
(5.64998e-20 -9.87898e-16 0)
(5.46972e-20 -9.87897e-16 0)
(5.25837e-20 -9.87897e-16 0)
(5.01955e-20 -9.87897e-16 0)
(4.75662e-20 -9.87897e-16 0)
(4.47262e-20 -9.87897e-16 0)
(4.17032e-20 -9.87897e-16 0)
(3.85221e-20 -9.87897e-16 0)
(3.5205e-20 -9.87897e-16 0)
(3.1772e-20 -9.87897e-16 0)
(2.82408e-20 -9.87897e-16 0)
(2.46272e-20 -9.87897e-16 0)
(2.09456e-20 -9.87896e-16 0)
(1.72086e-20 -9.87896e-16 0)
(1.3428e-20 -9.87896e-16 0)
(9.61435e-21 -9.87896e-16 0)
(5.77768e-21 -9.87896e-16 0)
(1.9274e-21 -9.87896e-16 0)
(-1.92817e-21 -9.87895e-16 0)
(-5.78003e-21 -9.87895e-16 0)
(-9.61832e-21 -9.87895e-16 0)
(-1.34337e-20 -9.87895e-16 0)
(-1.72161e-20 -9.87895e-16 0)
(-2.09551e-20 -9.87896e-16 0)
(-2.4639e-20 -9.87896e-16 0)
(-2.8255e-20 -9.87896e-16 0)
(-3.17889e-20 -9.87896e-16 0)
(-3.5225e-20 -9.87896e-16 0)
(-3.85455e-20 -9.87896e-16 0)
(-4.17304e-20 -9.87896e-16 0)
(-4.47577e-20 -9.87896e-16 0)
(-4.76024e-20 -9.87896e-16 0)
(-5.0237e-20 -9.87896e-16 0)
(-5.26309e-20 -9.87897e-16 0)
(-5.47508e-20 -9.87897e-16 0)
(-5.65601e-20 -9.87897e-16 0)
(-5.80197e-20 -9.87897e-16 0)
(-5.90881e-20 -9.87898e-16 0)
(-5.97219e-20 -9.87898e-16 0)
(-5.98767e-20 -9.87899e-16 0)
(-5.95085e-20 -9.87899e-16 0)
(-5.8575e-20 -9.879e-16 0)
(-5.70376e-20 -9.879e-16 0)
(-5.48636e-20 -9.87901e-16 0)
(-5.20291e-20 -9.87901e-16 0)
(-4.85217e-20 -9.87902e-16 0)
(-4.43433e-20 -9.87902e-16 0)
(-3.95127e-20 -9.87903e-16 0)
(-3.40679e-20 -9.87903e-16 0)
(-2.80675e-20 -9.87904e-16 0)
(-2.34762e-20 -9.87904e-16 0)
(-2.05166e-20 -9.87904e-16 0)
(-1.74853e-20 -9.87904e-16 0)
(-1.43924e-20 -9.87904e-16 0)
(-1.12481e-20 -9.87904e-16 0)
(-8.06353e-21 -9.87904e-16 0)
(-4.84983e-21 -9.87904e-16 0)
(-1.61857e-21 -9.87904e-16 0)
(1.61857e-21 -9.87904e-16 0)
(4.84983e-21 -9.87904e-16 0)
(8.06353e-21 -9.87904e-16 0)
(1.12481e-20 -9.87904e-16 0)
(1.43924e-20 -9.87904e-16 0)
(1.74853e-20 -9.87904e-16 0)
(2.05166e-20 -9.87904e-16 0)
(2.34762e-20 -9.87904e-16 0)
(2.80675e-20 -9.87904e-16 0)
(3.40679e-20 -9.87903e-16 0)
(3.95127e-20 -9.87903e-16 0)
(4.43433e-20 -9.87902e-16 0)
(4.85217e-20 -9.87902e-16 0)
(5.20291e-20 -9.87901e-16 0)
(5.48636e-20 -9.87901e-16 0)
(5.70376e-20 -9.879e-16 0)
(5.8575e-20 -9.879e-16 0)
(5.95085e-20 -9.87899e-16 0)
(5.98767e-20 -9.87899e-16 0)
(5.97219e-20 -9.87898e-16 0)
(5.90881e-20 -9.87898e-16 0)
(5.80197e-20 -9.87897e-16 0)
(5.65601e-20 -9.87897e-16 0)
(5.47508e-20 -9.87897e-16 0)
(5.26309e-20 -9.87897e-16 0)
(5.0237e-20 -9.87896e-16 0)
(4.76024e-20 -9.87896e-16 0)
(4.47577e-20 -9.87896e-16 0)
(4.17304e-20 -9.87896e-16 0)
(3.85455e-20 -9.87896e-16 0)
(3.5225e-20 -9.87896e-16 0)
(3.17889e-20 -9.87896e-16 0)
(2.8255e-20 -9.87896e-16 0)
(2.4639e-20 -9.87896e-16 0)
(2.09551e-20 -9.87896e-16 0)
(1.72161e-20 -9.87895e-16 0)
(1.34337e-20 -9.87895e-16 0)
(9.61832e-21 -9.87895e-16 0)
(5.78003e-21 -9.87895e-16 0)
(1.92817e-21 -9.87895e-16 0)
(-1.92936e-21 -9.87894e-16 0)
(-5.78363e-21 -9.87894e-16 0)
(-9.62441e-21 -9.87894e-16 0)
(-1.34424e-20 -9.87894e-16 0)
(-1.72277e-20 -9.87894e-16 0)
(-2.09697e-20 -9.87894e-16 0)
(-2.4657e-20 -9.87895e-16 0)
(-2.82767e-20 -9.87895e-16 0)
(-3.18149e-20 -9.87895e-16 0)
(-3.52556e-20 -9.87895e-16 0)
(-3.85814e-20 -9.87895e-16 0)
(-4.17722e-20 -9.87895e-16 0)
(-4.4806e-20 -9.87895e-16 0)
(-4.7658e-20 -9.87896e-16 0)
(-5.03007e-20 -9.87896e-16 0)
(-5.27034e-20 -9.87896e-16 0)
(-5.48329e-20 -9.87896e-16 0)
(-5.66525e-20 -9.87897e-16 0)
(-5.81231e-20 -9.87897e-16 0)
(-5.92029e-20 -9.87898e-16 0)
(-5.98483e-20 -9.87898e-16 0)
(-6.00147e-20 -9.87899e-16 0)
(-5.96576e-20 -9.87899e-16 0)
(-5.87342e-20 -9.879e-16 0)
(-5.72052e-20 -9.87901e-16 0)
(-5.50374e-20 -9.87901e-16 0)
(-5.22062e-20 -9.87902e-16 0)
(-4.86981e-20 -9.87903e-16 0)
(-4.45146e-20 -9.87903e-16 0)
(-3.96739e-20 -9.87904e-16 0)
(-3.42137e-20 -9.87905e-16 0)
(-2.81925e-20 -9.87905e-16 0)
(-2.35835e-20 -9.87906e-16 0)
(-2.06116e-20 -9.87906e-16 0)
(-1.75672e-20 -9.87906e-16 0)
(-1.44603e-20 -9.87906e-16 0)
(-1.13017e-20 -9.87906e-16 0)
(-8.10212e-21 -9.87906e-16 0)
(-4.87313e-21 -9.87906e-16 0)
(-1.62636e-21 -9.87906e-16 0)
(1.62636e-21 -9.87906e-16 0)
(4.87313e-21 -9.87906e-16 0)
(8.10212e-21 -9.87906e-16 0)
(1.13017e-20 -9.87906e-16 0)
(1.44603e-20 -9.87906e-16 0)
(1.75672e-20 -9.87906e-16 0)
(2.06116e-20 -9.87906e-16 0)
(2.35835e-20 -9.87906e-16 0)
(2.81925e-20 -9.87905e-16 0)
(3.42137e-20 -9.87905e-16 0)
(3.96739e-20 -9.87904e-16 0)
(4.45146e-20 -9.87903e-16 0)
(4.86981e-20 -9.87903e-16 0)
(5.22062e-20 -9.87902e-16 0)
(5.50374e-20 -9.87901e-16 0)
(5.72052e-20 -9.87901e-16 0)
(5.87342e-20 -9.879e-16 0)
(5.96576e-20 -9.87899e-16 0)
(6.00147e-20 -9.87899e-16 0)
(5.98483e-20 -9.87898e-16 0)
(5.92029e-20 -9.87898e-16 0)
(5.81231e-20 -9.87897e-16 0)
(5.66525e-20 -9.87897e-16 0)
(5.48329e-20 -9.87896e-16 0)
(5.27034e-20 -9.87896e-16 0)
(5.03007e-20 -9.87896e-16 0)
(4.7658e-20 -9.87896e-16 0)
(4.4806e-20 -9.87895e-16 0)
(4.17722e-20 -9.87895e-16 0)
(3.85814e-20 -9.87895e-16 0)
(3.52556e-20 -9.87895e-16 0)
(3.18149e-20 -9.87895e-16 0)
(2.82767e-20 -9.87895e-16 0)
(2.4657e-20 -9.87895e-16 0)
(2.09697e-20 -9.87894e-16 0)
(1.72277e-20 -9.87894e-16 0)
(1.34424e-20 -9.87894e-16 0)
(9.62441e-21 -9.87894e-16 0)
(5.78363e-21 -9.87894e-16 0)
(1.92936e-21 -9.87894e-16 0)
(-1.93107e-21 -9.87893e-16 0)
(-5.7888e-21 -9.87893e-16 0)
(-9.63315e-21 -9.87893e-16 0)
(-1.34549e-20 -9.87893e-16 0)
(-1.72442e-20 -9.87893e-16 0)
(-2.09907e-20 -9.87893e-16 0)
(-2.46828e-20 -9.87893e-16 0)
(-2.8308e-20 -9.87894e-16 0)
(-3.18522e-20 -9.87894e-16 0)
(-3.52997e-20 -9.87894e-16 0)
(-3.86329e-20 -9.87894e-16 0)
(-4.18323e-20 -9.87894e-16 0)
(-4.48755e-20 -9.87894e-16 0)
(-4.7738e-20 -9.87895e-16 0)
(-5.03923e-20 -9.87895e-16 0)
(-5.28078e-20 -9.87895e-16 0)
(-5.4951e-20 -9.87896e-16 0)
(-5.67856e-20 -9.87896e-16 0)
(-5.82719e-20 -9.87897e-16 0)
(-5.93682e-20 -9.87897e-16 0)
(-6.00304e-20 -9.87898e-16 0)
(-6.02136e-20 -9.87899e-16 0)
(-5.98725e-20 -9.87899e-16 0)
(-5.89637e-20 -9.879e-16 0)
(-5.74471e-20 -9.87901e-16 0)
(-5.52883e-20 -9.87902e-16 0)
(-5.24617e-20 -9.87903e-16 0)
(-4.89529e-20 -9.87904e-16 0)
(-4.47621e-20 -9.87905e-16 0)
(-3.99069e-20 -9.87906e-16 0)
(-3.44245e-20 -9.87907e-16 0)
(-2.83733e-20 -9.87907e-16 0)
(-2.37388e-20 -9.87908e-16 0)
(-2.0749e-20 -9.87908e-16 0)
(-1.76856e-20 -9.87908e-16 0)
(-1.45587e-20 -9.87908e-16 0)
(-1.13791e-20 -9.87908e-16 0)
(-8.15797e-21 -9.87909e-16 0)
(-4.90685e-21 -9.87909e-16 0)
(-1.63763e-21 -9.87909e-16 0)
(1.63763e-21 -9.87909e-16 0)
(4.90685e-21 -9.87909e-16 0)
(8.15797e-21 -9.87909e-16 0)
(1.13791e-20 -9.87908e-16 0)
(1.45587e-20 -9.87908e-16 0)
(1.76856e-20 -9.87908e-16 0)
(2.0749e-20 -9.87908e-16 0)
(2.37388e-20 -9.87908e-16 0)
(2.83733e-20 -9.87907e-16 0)
(3.44245e-20 -9.87907e-16 0)
(3.99069e-20 -9.87906e-16 0)
(4.47621e-20 -9.87905e-16 0)
(4.89529e-20 -9.87904e-16 0)
(5.24617e-20 -9.87903e-16 0)
(5.52883e-20 -9.87902e-16 0)
(5.74471e-20 -9.87901e-16 0)
(5.89637e-20 -9.879e-16 0)
(5.98725e-20 -9.87899e-16 0)
(6.02136e-20 -9.87899e-16 0)
(6.00304e-20 -9.87898e-16 0)
(5.93682e-20 -9.87897e-16 0)
(5.82719e-20 -9.87897e-16 0)
(5.67856e-20 -9.87896e-16 0)
(5.4951e-20 -9.87896e-16 0)
(5.28078e-20 -9.87895e-16 0)
(5.03923e-20 -9.87895e-16 0)
(4.7738e-20 -9.87895e-16 0)
(4.48755e-20 -9.87894e-16 0)
(4.18323e-20 -9.87894e-16 0)
(3.86329e-20 -9.87894e-16 0)
(3.52997e-20 -9.87894e-16 0)
(3.18522e-20 -9.87894e-16 0)
(2.8308e-20 -9.87894e-16 0)
(2.46828e-20 -9.87893e-16 0)
(2.09907e-20 -9.87893e-16 0)
(1.72442e-20 -9.87893e-16 0)
(1.34549e-20 -9.87893e-16 0)
(9.63315e-21 -9.87893e-16 0)
(5.7888e-21 -9.87893e-16 0)
(1.93107e-21 -9.87893e-16 0)
(-1.93343e-21 -9.87892e-16 0)
(-5.79593e-21 -9.87892e-16 0)
(-9.64521e-21 -9.87892e-16 0)
(-1.34722e-20 -9.87892e-16 0)
(-1.72671e-20 -9.87892e-16 0)
(-2.10196e-20 -9.87892e-16 0)
(-2.47185e-20 -9.87892e-16 0)
(-2.83511e-20 -9.87892e-16 0)
(-3.19036e-20 -9.87892e-16 0)
(-3.53604e-20 -9.87893e-16 0)
(-3.87042e-20 -9.87893e-16 0)
(-4.19152e-20 -9.87893e-16 0)
(-4.49715e-20 -9.87893e-16 0)
(-4.78485e-20 -9.87894e-16 0)
(-5.05188e-20 -9.87894e-16 0)
(-5.29519e-20 -9.87895e-16 0)
(-5.51144e-20 -9.87895e-16 0)
(-5.69695e-20 -9.87896e-16 0)
(-5.84778e-20 -9.87896e-16 0)
(-5.95969e-20 -9.87897e-16 0)
(-6.02825e-20 -9.87898e-16 0)
(-6.04889e-20 -9.87899e-16 0)
(-6.01702e-20 -9.879e-16 0)
(-5.92818e-20 -9.87901e-16 0)
(-5.77824e-20 -9.87902e-16 0)
(-5.56364e-20 -9.87903e-16 0)
(-5.28165e-20 -9.87904e-16 0)
(-4.93068e-20 -9.87905e-16 0)
(-4.51062e-20 -9.87906e-16 0)
(-4.0231e-20 -9.87907e-16 0)
(-3.47178e-20 -9.87908e-16 0)
(-2.8625e-20 -9.87909e-16 0)
(-2.39551e-20 -9.8791e-16 0)
(-2.09405e-20 -9.8791e-16 0)
(-1.78506e-20 -9.8791e-16 0)
(-1.46958e-20 -9.87911e-16 0)
(-1.14871e-20 -9.87911e-16 0)
(-8.23578e-21 -9.87911e-16 0)
(-4.95383e-21 -9.87911e-16 0)
(-1.65334e-21 -9.87911e-16 0)
(1.65334e-21 -9.87911e-16 0)
(4.95383e-21 -9.87911e-16 0)
(8.23578e-21 -9.87911e-16 0)
(1.14871e-20 -9.87911e-16 0)
(1.46958e-20 -9.87911e-16 0)
(1.78506e-20 -9.8791e-16 0)
(2.09405e-20 -9.8791e-16 0)
(2.39551e-20 -9.8791e-16 0)
(2.8625e-20 -9.87909e-16 0)
(3.47178e-20 -9.87908e-16 0)
(4.0231e-20 -9.87907e-16 0)
(4.51062e-20 -9.87906e-16 0)
(4.93068e-20 -9.87905e-16 0)
(5.28165e-20 -9.87904e-16 0)
(5.56364e-20 -9.87903e-16 0)
(5.77824e-20 -9.87902e-16 0)
(5.92818e-20 -9.87901e-16 0)
(6.01702e-20 -9.879e-16 0)
(6.04889e-20 -9.87899e-16 0)
(6.02825e-20 -9.87898e-16 0)
(5.95969e-20 -9.87897e-16 0)
(5.84778e-20 -9.87896e-16 0)
(5.69695e-20 -9.87896e-16 0)
(5.51144e-20 -9.87895e-16 0)
(5.29519e-20 -9.87895e-16 0)
(5.05188e-20 -9.87894e-16 0)
(4.78485e-20 -9.87894e-16 0)
(4.49715e-20 -9.87893e-16 0)
(4.19152e-20 -9.87893e-16 0)
(3.87042e-20 -9.87893e-16 0)
(3.53604e-20 -9.87893e-16 0)
(3.19036e-20 -9.87892e-16 0)
(2.83511e-20 -9.87892e-16 0)
(2.47185e-20 -9.87892e-16 0)
(2.10196e-20 -9.87892e-16 0)
(1.72671e-20 -9.87892e-16 0)
(1.34722e-20 -9.87892e-16 0)
(9.64521e-21 -9.87892e-16 0)
(5.79593e-21 -9.87892e-16 0)
(1.93343e-21 -9.87892e-16 0)
(-1.93659e-21 -9.8789e-16 0)
(-5.80548e-21 -9.8789e-16 0)
(-9.66138e-21 -9.8789e-16 0)
(-1.34953e-20 -9.87891e-16 0)
(-1.72977e-20 -9.87891e-16 0)
(-2.10584e-20 -9.87891e-16 0)
(-2.47663e-20 -9.87891e-16 0)
(-2.84089e-20 -9.87891e-16 0)
(-3.19726e-20 -9.87891e-16 0)
(-3.54419e-20 -9.87891e-16 0)
(-3.87997e-20 -9.87892e-16 0)
(-4.20264e-20 -9.87892e-16 0)
(-4.51003e-20 -9.87892e-16 0)
(-4.79968e-20 -9.87893e-16 0)
(-5.06887e-20 -9.87893e-16 0)
(-5.31456e-20 -9.87894e-16 0)
(-5.53339e-20 -9.87894e-16 0)
(-5.72168e-20 -9.87895e-16 0)
(-5.87546e-20 -9.87896e-16 0)
(-5.99047e-20 -9.87897e-16 0)
(-6.06219e-20 -9.87898e-16 0)
(-6.08599e-20 -9.87899e-16 0)
(-6.05716e-20 -9.879e-16 0)
(-5.9711e-20 -9.87901e-16 0)
(-5.82352e-20 -9.87902e-16 0)
(-5.61067e-20 -9.87904e-16 0)
(-5.32962e-20 -9.87905e-16 0)
(-4.97857e-20 -9.87907e-16 0)
(-4.55721e-20 -9.87908e-16 0)
(-4.06702e-20 -9.87909e-16 0)
(-3.51156e-20 -9.87911e-16 0)
(-2.89666e-20 -9.87912e-16 0)
(-2.42487e-20 -9.87912e-16 0)
(-2.12005e-20 -9.87913e-16 0)
(-1.80747e-20 -9.87913e-16 0)
(-1.4882e-20 -9.87913e-16 0)
(-1.16337e-20 -9.87914e-16 0)
(-8.34153e-21 -9.87914e-16 0)
(-5.01767e-21 -9.87914e-16 0)
(-1.67469e-21 -9.87914e-16 0)
(1.67469e-21 -9.87914e-16 0)
(5.01767e-21 -9.87914e-16 0)
(8.34153e-21 -9.87914e-16 0)
(1.16337e-20 -9.87914e-16 0)
(1.4882e-20 -9.87913e-16 0)
(1.80747e-20 -9.87913e-16 0)
(2.12005e-20 -9.87913e-16 0)
(2.42487e-20 -9.87912e-16 0)
(2.89666e-20 -9.87912e-16 0)
(3.51156e-20 -9.87911e-16 0)
(4.06702e-20 -9.87909e-16 0)
(4.55721e-20 -9.87908e-16 0)
(4.97857e-20 -9.87907e-16 0)
(5.32962e-20 -9.87905e-16 0)
(5.61067e-20 -9.87904e-16 0)
(5.82352e-20 -9.87902e-16 0)
(5.9711e-20 -9.87901e-16 0)
(6.05716e-20 -9.879e-16 0)
(6.08599e-20 -9.87899e-16 0)
(6.06219e-20 -9.87898e-16 0)
(5.99047e-20 -9.87897e-16 0)
(5.87546e-20 -9.87896e-16 0)
(5.72168e-20 -9.87895e-16 0)
(5.53339e-20 -9.87894e-16 0)
(5.31456e-20 -9.87894e-16 0)
(5.06887e-20 -9.87893e-16 0)
(4.79968e-20 -9.87893e-16 0)
(4.51003e-20 -9.87892e-16 0)
(4.20264e-20 -9.87892e-16 0)
(3.87997e-20 -9.87892e-16 0)
(3.54419e-20 -9.87891e-16 0)
(3.19726e-20 -9.87891e-16 0)
(2.84089e-20 -9.87891e-16 0)
(2.47663e-20 -9.87891e-16 0)
(2.10584e-20 -9.87891e-16 0)
(1.72977e-20 -9.87891e-16 0)
(1.34953e-20 -9.87891e-16 0)
(9.66138e-21 -9.8789e-16 0)
(5.80548e-21 -9.8789e-16 0)
(1.93659e-21 -9.8789e-16 0)
(-1.94074e-21 -9.87889e-16 0)
(-5.81801e-21 -9.87889e-16 0)
(-9.68258e-21 -9.87889e-16 0)
(-1.35257e-20 -9.87889e-16 0)
(-1.73379e-20 -9.87889e-16 0)
(-2.11094e-20 -9.87889e-16 0)
(-2.4829e-20 -9.87889e-16 0)
(-2.84848e-20 -9.87889e-16 0)
(-3.20632e-20 -9.8789e-16 0)
(-3.5549e-20 -9.8789e-16 0)
(-3.89252e-20 -9.8789e-16 0)
(-4.21726e-20 -9.87891e-16 0)
(-4.52696e-20 -9.87891e-16 0)
(-4.81919e-20 -9.87892e-16 0)
(-5.09122e-20 -9.87892e-16 0)
(-5.34004e-20 -9.87893e-16 0)
(-5.56228e-20 -9.87893e-16 0)
(-5.75426e-20 -9.87894e-16 0)
(-5.91196e-20 -9.87895e-16 0)
(-6.03106e-20 -9.87896e-16 0)
(-6.10699e-20 -9.87897e-16 0)
(-6.13499e-20 -9.87899e-16 0)
(-6.11022e-20 -9.879e-16 0)
(-6.02789e-20 -9.87902e-16 0)
(-5.88349e-20 -9.87903e-16 0)
(-5.67303e-20 -9.87905e-16 0)
(-5.39329e-20 -9.87906e-16 0)
(-5.0422e-20 -9.87908e-16 0)
(-4.61918e-20 -9.8791e-16 0)
(-4.1255e-20 -9.87912e-16 0)
(-3.56458e-20 -9.87913e-16 0)
(-2.94223e-20 -9.87914e-16 0)
(-2.46407e-20 -9.87915e-16 0)
(-2.15476e-20 -9.87916e-16 0)
(-1.8374e-20 -9.87916e-16 0)
(-1.51308e-20 -9.87916e-16 0)
(-1.18297e-20 -9.87917e-16 0)
(-8.48283e-21 -9.87917e-16 0)
(-5.10299e-21 -9.87917e-16 0)
(-1.70322e-21 -9.87917e-16 0)
(1.70322e-21 -9.87917e-16 0)
(5.10299e-21 -9.87917e-16 0)
(8.48283e-21 -9.87917e-16 0)
(1.18297e-20 -9.87917e-16 0)
(1.51308e-20 -9.87916e-16 0)
(1.8374e-20 -9.87916e-16 0)
(2.15476e-20 -9.87916e-16 0)
(2.46407e-20 -9.87915e-16 0)
(2.94223e-20 -9.87914e-16 0)
(3.56458e-20 -9.87913e-16 0)
(4.1255e-20 -9.87912e-16 0)
(4.61918e-20 -9.8791e-16 0)
(5.0422e-20 -9.87908e-16 0)
(5.39329e-20 -9.87906e-16 0)
(5.67303e-20 -9.87905e-16 0)
(5.88349e-20 -9.87903e-16 0)
(6.02789e-20 -9.87902e-16 0)
(6.11022e-20 -9.879e-16 0)
(6.13499e-20 -9.87899e-16 0)
(6.10699e-20 -9.87897e-16 0)
(6.03106e-20 -9.87896e-16 0)
(5.91196e-20 -9.87895e-16 0)
(5.75426e-20 -9.87894e-16 0)
(5.56228e-20 -9.87893e-16 0)
(5.34004e-20 -9.87893e-16 0)
(5.09122e-20 -9.87892e-16 0)
(4.81919e-20 -9.87892e-16 0)
(4.52696e-20 -9.87891e-16 0)
(4.21726e-20 -9.87891e-16 0)
(3.89252e-20 -9.8789e-16 0)
(3.5549e-20 -9.8789e-16 0)
(3.20632e-20 -9.8789e-16 0)
(2.84848e-20 -9.87889e-16 0)
(2.4829e-20 -9.87889e-16 0)
(2.11094e-20 -9.87889e-16 0)
(1.73379e-20 -9.87889e-16 0)
(1.35257e-20 -9.87889e-16 0)
(9.68258e-21 -9.87889e-16 0)
(5.81801e-21 -9.87889e-16 0)
(1.94074e-21 -9.87889e-16 0)
(-1.94608e-21 -9.87887e-16 0)
(-5.83416e-21 -9.87887e-16 0)
(-9.70992e-21 -9.87887e-16 0)
(-1.35648e-20 -9.87887e-16 0)
(-1.73898e-20 -9.87887e-16 0)
(-2.11751e-20 -9.87887e-16 0)
(-2.491e-20 -9.87888e-16 0)
(-2.85827e-20 -9.87888e-16 0)
(-3.21801e-20 -9.87888e-16 0)
(-3.56872e-20 -9.87888e-16 0)
(-3.90873e-20 -9.87889e-16 0)
(-4.23615e-20 -9.87889e-16 0)
(-4.54885e-20 -9.8789e-16 0)
(-4.84441e-20 -9.8789e-16 0)
(-5.12015e-20 -9.87891e-16 0)
(-5.37304e-20 -9.87892e-16 0)
(-5.59973e-20 -9.87893e-16 0)
(-5.79651e-20 -9.87894e-16 0)
(-5.95932e-20 -9.87895e-16 0)
(-6.08379e-20 -9.87896e-16 0)
(-6.16524e-20 -9.87897e-16 0)
(-6.19877e-20 -9.87899e-16 0)
(-6.17935e-20 -9.879e-16 0)
(-6.10197e-20 -9.87902e-16 0)
(-5.96183e-20 -9.87904e-16 0)
(-5.75459e-20 -9.87906e-16 0)
(-5.47668e-20 -9.87908e-16 0)
(-5.12566e-20 -9.8791e-16 0)
(-4.70059e-20 -9.87912e-16 0)
(-4.20243e-20 -9.87914e-16 0)
(-3.63442e-20 -9.87916e-16 0)
(-3.00232e-20 -9.87917e-16 0)
(-2.51579e-20 -9.87918e-16 0)
(-2.20059e-20 -9.87919e-16 0)
(-1.87693e-20 -9.87919e-16 0)
(-1.54594e-20 -9.8792e-16 0)
(-1.20886e-20 -9.8792e-16 0)
(-8.66956e-21 -9.8792e-16 0)
(-5.21576e-21 -9.8792e-16 0)
(-1.74093e-21 -9.87921e-16 0)
(1.74093e-21 -9.87921e-16 0)
(5.21576e-21 -9.8792e-16 0)
(8.66956e-21 -9.8792e-16 0)
(1.20886e-20 -9.8792e-16 0)
(1.54594e-20 -9.8792e-16 0)
(1.87693e-20 -9.87919e-16 0)
(2.20059e-20 -9.87919e-16 0)
(2.51579e-20 -9.87918e-16 0)
(3.00232e-20 -9.87917e-16 0)
(3.63442e-20 -9.87916e-16 0)
(4.20243e-20 -9.87914e-16 0)
(4.70059e-20 -9.87912e-16 0)
(5.12566e-20 -9.8791e-16 0)
(5.47668e-20 -9.87908e-16 0)
(5.75459e-20 -9.87906e-16 0)
(5.96183e-20 -9.87904e-16 0)
(6.10197e-20 -9.87902e-16 0)
(6.17935e-20 -9.879e-16 0)
(6.19877e-20 -9.87899e-16 0)
(6.16524e-20 -9.87897e-16 0)
(6.08379e-20 -9.87896e-16 0)
(5.95932e-20 -9.87895e-16 0)
(5.79651e-20 -9.87894e-16 0)
(5.59973e-20 -9.87893e-16 0)
(5.37304e-20 -9.87892e-16 0)
(5.12015e-20 -9.87891e-16 0)
(4.84441e-20 -9.8789e-16 0)
(4.54885e-20 -9.8789e-16 0)
(4.23615e-20 -9.87889e-16 0)
(3.90873e-20 -9.87889e-16 0)
(3.56872e-20 -9.87888e-16 0)
(3.21801e-20 -9.87888e-16 0)
(2.85827e-20 -9.87888e-16 0)
(2.491e-20 -9.87888e-16 0)
(2.11751e-20 -9.87887e-16 0)
(1.73898e-20 -9.87887e-16 0)
(1.35648e-20 -9.87887e-16 0)
(9.70992e-21 -9.87887e-16 0)
(5.83416e-21 -9.87887e-16 0)
(1.94608e-21 -9.87887e-16 0)
(-1.95287e-21 -9.87885e-16 0)
(-5.8547e-21 -9.87885e-16 0)
(-9.74468e-21 -9.87885e-16 0)
(-1.36146e-20 -9.87885e-16 0)
(-1.74557e-20 -9.87885e-16 0)
(-2.12586e-20 -9.87886e-16 0)
(-2.5013e-20 -9.87886e-16 0)
(-2.87074e-20 -9.87886e-16 0)
(-3.2329e-20 -9.87886e-16 0)
(-3.58632e-20 -9.87887e-16 0)
(-3.92939e-20 -9.87887e-16 0)
(-4.26024e-20 -9.87888e-16 0)
(-4.57677e-20 -9.87888e-16 0)
(-4.87662e-20 -9.87889e-16 0)
(-5.15711e-20 -9.8789e-16 0)
(-5.41523e-20 -9.8789e-16 0)
(-5.64764e-20 -9.87891e-16 0)
(-5.85061e-20 -9.87893e-16 0)
(-6.02004e-20 -9.87894e-16 0)
(-6.15146e-20 -9.87895e-16 0)
(-6.24009e-20 -9.87897e-16 0)
(-6.28083e-20 -9.87899e-16 0)
(-6.26843e-20 -9.879e-16 0)
(-6.19757e-20 -9.87903e-16 0)
(-6.06308e-20 -9.87905e-16 0)
(-5.8602e-20 -9.87907e-16 0)
(-5.58487e-20 -9.87909e-16 0)
(-5.23414e-20 -9.87912e-16 0)
(-4.80659e-20 -9.87914e-16 0)
(-4.30278e-20 -9.87917e-16 0)
(-3.72566e-20 -9.87919e-16 0)
(-3.08095e-20 -9.87921e-16 0)
(-2.58354e-20 -9.87922e-16 0)
(-2.26065e-20 -9.87922e-16 0)
(-1.92875e-20 -9.87923e-16 0)
(-1.58905e-20 -9.87923e-16 0)
(-1.24283e-20 -9.87924e-16 0)
(-8.91463e-21 -9.87924e-16 0)
(-5.36378e-21 -9.87924e-16 0)
(-1.79044e-21 -9.87924e-16 0)
(1.79044e-21 -9.87924e-16 0)
(5.36378e-21 -9.87924e-16 0)
(8.91463e-21 -9.87924e-16 0)
(1.24283e-20 -9.87924e-16 0)
(1.58905e-20 -9.87923e-16 0)
(1.92875e-20 -9.87923e-16 0)
(2.26065e-20 -9.87922e-16 0)
(2.58354e-20 -9.87922e-16 0)
(3.08095e-20 -9.87921e-16 0)
(3.72566e-20 -9.87919e-16 0)
(4.30278e-20 -9.87917e-16 0)
(4.80659e-20 -9.87914e-16 0)
(5.23414e-20 -9.87912e-16 0)
(5.58487e-20 -9.87909e-16 0)
(5.8602e-20 -9.87907e-16 0)
(6.06308e-20 -9.87905e-16 0)
(6.19757e-20 -9.87903e-16 0)
(6.26843e-20 -9.879e-16 0)
(6.28083e-20 -9.87899e-16 0)
(6.24009e-20 -9.87897e-16 0)
(6.15146e-20 -9.87895e-16 0)
(6.02004e-20 -9.87894e-16 0)
(5.85061e-20 -9.87893e-16 0)
(5.64764e-20 -9.87891e-16 0)
(5.41523e-20 -9.8789e-16 0)
(5.15711e-20 -9.8789e-16 0)
(4.87662e-20 -9.87889e-16 0)
(4.57677e-20 -9.87888e-16 0)
(4.26024e-20 -9.87888e-16 0)
(3.92939e-20 -9.87887e-16 0)
(3.58632e-20 -9.87887e-16 0)
(3.2329e-20 -9.87886e-16 0)
(2.87074e-20 -9.87886e-16 0)
(2.5013e-20 -9.87886e-16 0)
(2.12586e-20 -9.87886e-16 0)
(1.74557e-20 -9.87885e-16 0)
(1.36146e-20 -9.87885e-16 0)
(9.74468e-21 -9.87885e-16 0)
(5.8547e-21 -9.87885e-16 0)
(1.95287e-21 -9.87885e-16 0)
(-1.9614e-21 -9.87883e-16 0)
(-5.88049e-21 -9.87883e-16 0)
(-9.78833e-21 -9.87883e-16 0)
(-1.36771e-20 -9.87883e-16 0)
(-1.75385e-20 -9.87883e-16 0)
(-2.13636e-20 -9.87884e-16 0)
(-2.51425e-20 -9.87884e-16 0)
(-2.88642e-20 -9.87884e-16 0)
(-3.25163e-20 -9.87884e-16 0)
(-3.60849e-20 -9.87885e-16 0)
(-3.95541e-20 -9.87885e-16 0)
(-4.29059e-20 -9.87886e-16 0)
(-4.61199e-20 -9.87887e-16 0)
(-4.91726e-20 -9.87887e-16 0)
(-5.20379e-20 -9.87888e-16 0)
(-5.46858e-20 -9.87889e-16 0)
(-5.70829e-20 -9.8789e-16 0)
(-5.91917e-20 -9.87892e-16 0)
(-6.09708e-20 -9.87893e-16 0)
(-6.23746e-20 -9.87895e-16 0)
(-6.33535e-20 -9.87896e-16 0)
(-6.38545e-20 -9.87898e-16 0)
(-6.38222e-20 -9.87901e-16 0)
(-6.31993e-20 -9.87903e-16 0)
(-6.19296e-20 -9.87906e-16 0)
(-5.99597e-20 -9.87908e-16 0)
(-5.72427e-20 -9.87911e-16 0)
(-5.37425e-20 -9.87914e-16 0)
(-4.94383e-20 -9.87917e-16 0)
(-4.433e-20 -9.87919e-16 0)
(-3.84434e-20 -9.87922e-16 0)
(-3.18342e-20 -9.87924e-16 0)
(-2.67195e-20 -9.87926e-16 0)
(-2.33908e-20 -9.87926e-16 0)
(-1.99647e-20 -9.87927e-16 0)
(-1.6454e-20 -9.87928e-16 0)
(-1.28725e-20 -9.87928e-16 0)
(-9.23523e-21 -9.87928e-16 0)
(-5.55746e-21 -9.87929e-16 0)
(-1.85522e-21 -9.87929e-16 0)
(1.85522e-21 -9.87929e-16 0)
(5.55746e-21 -9.87929e-16 0)
(9.23523e-21 -9.87928e-16 0)
(1.28725e-20 -9.87928e-16 0)
(1.6454e-20 -9.87928e-16 0)
(1.99647e-20 -9.87927e-16 0)
(2.33908e-20 -9.87926e-16 0)
(2.67195e-20 -9.87926e-16 0)
(3.18342e-20 -9.87924e-16 0)
(3.84434e-20 -9.87922e-16 0)
(4.433e-20 -9.87919e-16 0)
(4.94383e-20 -9.87917e-16 0)
(5.37425e-20 -9.87914e-16 0)
(5.72427e-20 -9.87911e-16 0)
(5.99597e-20 -9.87908e-16 0)
(6.19296e-20 -9.87906e-16 0)
(6.31993e-20 -9.87903e-16 0)
(6.38222e-20 -9.87901e-16 0)
(6.38545e-20 -9.87898e-16 0)
(6.33535e-20 -9.87896e-16 0)
(6.23746e-20 -9.87895e-16 0)
(6.09708e-20 -9.87893e-16 0)
(5.91917e-20 -9.87892e-16 0)
(5.70829e-20 -9.8789e-16 0)
(5.46858e-20 -9.87889e-16 0)
(5.20379e-20 -9.87888e-16 0)
(4.91726e-20 -9.87887e-16 0)
(4.61199e-20 -9.87887e-16 0)
(4.29059e-20 -9.87886e-16 0)
(3.95541e-20 -9.87885e-16 0)
(3.60849e-20 -9.87885e-16 0)
(3.25163e-20 -9.87884e-16 0)
(2.88642e-20 -9.87884e-16 0)
(2.51425e-20 -9.87884e-16 0)
(2.13636e-20 -9.87884e-16 0)
(1.75385e-20 -9.87883e-16 0)
(1.36771e-20 -9.87883e-16 0)
(9.78833e-21 -9.87883e-16 0)
(5.88049e-21 -9.87883e-16 0)
(1.9614e-21 -9.87883e-16 0)
(-1.97199e-21 -9.87881e-16 0)
(-5.91249e-21 -9.87881e-16 0)
(-9.84251e-21 -9.87881e-16 0)
(-1.37547e-20 -9.87881e-16 0)
(-1.76414e-20 -9.87881e-16 0)
(-2.14941e-20 -9.87881e-16 0)
(-2.53035e-20 -9.87882e-16 0)
(-2.90591e-20 -9.87882e-16 0)
(-3.27494e-20 -9.87882e-16 0)
(-3.63608e-20 -9.87883e-16 0)
(-3.98783e-20 -9.87883e-16 0)
(-4.32845e-20 -9.87884e-16 0)
(-4.65594e-20 -9.87885e-16 0)
(-4.96805e-20 -9.87886e-16 0)
(-5.26218e-20 -9.87887e-16 0)
(-5.53539e-20 -9.87888e-16 0)
(-5.78435e-20 -9.87889e-16 0)
(-6.00529e-20 -9.8789e-16 0)
(-6.19401e-20 -9.87892e-16 0)
(-6.34584e-20 -9.87894e-16 0)
(-6.45564e-20 -9.87896e-16 0)
(-6.51786e-20 -9.87898e-16 0)
(-6.52656e-20 -9.87901e-16 0)
(-6.47555e-20 -9.87904e-16 0)
(-6.35858e-20 -9.87907e-16 0)
(-6.1696e-20 -9.8791e-16 0)
(-5.90309e-20 -9.87913e-16 0)
(-5.55453e-20 -9.87916e-16 0)
(-5.12096e-20 -9.8792e-16 0)
(-4.60159e-20 -9.87923e-16 0)
(-3.99842e-20 -9.87926e-16 0)
(-3.3168e-20 -9.87928e-16 0)
(-2.78723e-20 -9.8793e-16 0)
(-2.44144e-20 -9.87931e-16 0)
(-2.08491e-20 -9.87932e-16 0)
(-1.71904e-20 -9.87932e-16 0)
(-1.34535e-20 -9.87933e-16 0)
(-9.65462e-21 -9.87933e-16 0)
(-5.81089e-21 -9.87934e-16 0)
(-1.94e-21 -9.87934e-16 0)
(1.94e-21 -9.87934e-16 0)
(5.81089e-21 -9.87934e-16 0)
(9.65462e-21 -9.87933e-16 0)