/*--------------------------------*- C++ -*----------------------------------*\
  =========                 |
  \\      /  F ield         | OpenFOAM: The Open Source CFD Toolbox
   \\    /   O peration     | Website:  https://openfoam.org
    \\  /    A nd           | Version:  10
     \\/     M anipulation  |
\*---------------------------------------------------------------------------*/
FoamFile
{
    format      ascii;
    class       surfaceScalarField;
    location    "20700";
    object      phi;
}
// * * * * * * * * * * * * * * * * * * * * * * * * * * * * * * * * * * * * * //

dimensions      [0 3 -1 0 0 0 0];

internalField   nonuniform List<scalar> 
12640
(
-7.2678e-08
7.2678e-08
-1.61911e-07
8.92329e-08
-2.65907e-07
1.03996e-07
-2.10234e-06
1.83644e-06
-2.44529e-06
3.42946e-07
-3.53649e-06
1.0912e-06
-3.5028e-06
-3.36916e-08
-3.2419e-06
-2.609e-07
-3.17781e-06
-6.40838e-08
-2.99717e-06
-1.80646e-07
-2.97343e-06
-2.37332e-08
-3.19713e-06
2.23696e-07
-3.20613e-06
8.99883e-09
-3.17183e-06
-3.4296e-08
-3.07717e-06
-9.46615e-08
-3.03303e-06
-4.41405e-08
-3.01167e-06
-2.13547e-08
-2.98492e-06
-2.67506e-08
-2.96008e-06
-2.48395e-08
-2.93101e-06
-2.90755e-08
-2.88395e-06
-4.70547e-08
-2.85032e-06
-3.36316e-08
-2.8272e-06
-2.31224e-08
-2.80498e-06
-2.22223e-08
-2.78215e-06
-2.28294e-08
-2.76181e-06
-2.03335e-08
-2.74121e-06
-2.06033e-08
-2.71441e-06
-2.68053e-08
-2.67942e-06
-3.49908e-08
-2.63066e-06
-4.87504e-08
-2.54471e-06
-8.59517e-08
-2.37252e-06
-1.72196e-07
-2.24378e-06
-1.28742e-07
-2.07538e-06
-1.68399e-07
-1.85953e-06
-2.15847e-07
-1.58936e-06
-2.70169e-07
-1.26132e-06
-3.2804e-07
-8.78208e-07
-3.83112e-07
-4.51301e-07
-4.26907e-07
-2.24979e-17
-4.51301e-07
4.51301e-07
-4.51301e-07
8.78208e-07
-4.26907e-07
1.26132e-06
-3.83112e-07
1.58936e-06
-3.2804e-07
1.85953e-06
-2.70169e-07
2.07538e-06
-2.15847e-07
2.24378e-06
-1.68399e-07
2.37252e-06
-1.28742e-07
2.54471e-06
-1.72196e-07
2.63066e-06
-8.59517e-08
2.67942e-06
-4.87504e-08
2.71441e-06
-3.49908e-08
2.74121e-06
-2.68053e-08
2.76181e-06
-2.06033e-08
2.78215e-06
-2.03335e-08
2.80498e-06
-2.28294e-08
2.8272e-06
-2.22223e-08
2.85032e-06
-2.31224e-08
2.88395e-06
-3.36316e-08
2.93101e-06
-4.70547e-08
2.96008e-06
-2.90755e-08
2.98492e-06
-2.48395e-08
3.01167e-06
-2.67506e-08
3.03303e-06
-2.13547e-08
3.07717e-06
-4.41405e-08
3.17183e-06
-9.46615e-08
3.20613e-06
-3.4296e-08
3.19713e-06
8.99883e-09
2.97343e-06
2.23696e-07
2.99717e-06
-2.37332e-08
3.17781e-06
-1.80646e-07
3.2419e-06
-6.40838e-08
3.5028e-06
-2.609e-07
3.53649e-06
-3.36916e-08
2.44529e-06
1.0912e-06
2.10234e-06
3.42946e-07
2.65907e-07
1.83644e-06
1.61911e-07
1.03996e-07
7.2678e-08
8.92329e-08
7.2678e-08
-7.89285e-08
1.51606e-07
-1.76886e-07
1.87191e-07
-3.83928e-07
3.11038e-07
-9.95356e-08
1.55204e-06
-2.55413e-07
4.98824e-07
-3.46143e-06
4.29722e-06
-3.63333e-06
1.38209e-07
-3.39866e-06
-4.95568e-07
-3.36968e-06
-9.30702e-08
-3.17754e-06
-3.72785e-07
-3.15622e-06
-4.50555e-08
-3.42196e-06
4.8944e-07
-3.42824e-06
1.52737e-08
-3.39601e-06
-6.65243e-08
-3.29234e-06
-1.98324e-07
-3.2488e-06
-8.76827e-08
-3.22929e-06
-4.08655e-08
-3.202e-06
-5.40434e-08
-3.17715e-06
-4.96868e-08
-3.14792e-06
-5.8312e-08
-3.09705e-06
-9.79188e-08
-3.06209e-06
-6.85954e-08
-3.0386e-06
-4.66053e-08
-3.0156e-06
-4.52304e-08
-2.99163e-06
-4.68005e-08
-2.97054e-06
-4.14233e-08
-2.94923e-06
-4.1905e-08
-2.921e-06
-5.50355e-08
-2.88408e-06
-7.19181e-08
-2.83313e-06
-9.9699e-08
-2.74327e-06
-1.75806e-07
-2.56178e-06
-3.53692e-07
-2.42506e-06
-2.65457e-07
-2.24569e-06
-3.47775e-07
-2.01498e-06
-4.46552e-07
-1.72497e-06
-5.60177e-07
-1.37113e-06
-6.81883e-07
-9.55965e-07
-7.98277e-07
-4.9171e-07
-8.91163e-07
-2.57498e-17
-9.43011e-07
4.9171e-07
-9.43011e-07
9.55965e-07
-8.91163e-07
1.37113e-06
-7.98277e-07
1.72497e-06
-6.81883e-07
2.01498e-06
-5.60177e-07
2.24569e-06
-4.46552e-07
2.42506e-06
-3.47775e-07
2.56178e-06
-2.65457e-07
2.74327e-06
-3.53692e-07
2.83313e-06
-1.75806e-07
2.88408e-06
-9.9699e-08
2.921e-06
-7.19181e-08
2.94923e-06
-5.50355e-08
2.97054e-06
-4.1905e-08
2.99163e-06
-4.14233e-08
3.0156e-06
-4.68005e-08
3.0386e-06
-4.52304e-08
3.06209e-06
-4.66053e-08
3.09705e-06
-6.85954e-08
3.14792e-06
-9.79188e-08
3.17715e-06
-5.8312e-08
3.202e-06
-4.96868e-08
3.22929e-06
-5.40434e-08
3.2488e-06
-4.08655e-08
3.29234e-06
-8.76827e-08
3.39601e-06
-1.98324e-07
3.42824e-06
-6.65243e-08
3.42196e-06
1.52737e-08
3.15622e-06
4.8944e-07
3.17754e-06
-4.50555e-08
3.36968e-06
-3.72785e-07
3.39866e-06
-9.30702e-08
3.63333e-06
-4.95568e-07
3.46143e-06
1.38209e-07
2.55413e-07
4.29722e-06
9.95356e-08
4.98824e-07
3.83928e-07
1.55204e-06
1.76886e-07
3.11038e-07
7.89285e-08
1.87191e-07
1.51606e-07
-8.45367e-08
2.36143e-07
-1.86935e-07
2.89589e-07
-3.50167e-07
4.7427e-07
-1.69436e-07
1.37131e-06
-5.97596e-07
9.26984e-07
2.31395e-07
3.46823e-06
-1.22571e-06
1.59532e-06
-3.31705e-06
1.59576e-06
-3.54008e-06
1.29961e-07
-3.35304e-06
-5.59826e-07
-3.3406e-06
-5.74925e-08
-3.69298e-06
8.41826e-07
-3.68521e-06
7.4988e-09
-3.6585e-06
-9.32292e-08
-3.53675e-06
-3.20074e-07
-3.4963e-06
-1.28133e-07
-3.4809e-06
-5.62707e-08
-3.45225e-06
-8.26933e-08
-3.42768e-06
-7.42537e-08
-3.39918e-06
-8.68188e-08
-3.34142e-06
-1.55671e-07
-3.30504e-06
-1.04977e-07
-3.28168e-06
-6.99616e-08
-3.25772e-06
-6.91978e-08
-3.23205e-06
-7.24641e-08
-3.21016e-06
-6.33168e-08
-3.18836e-06
-6.37085e-08
-3.15849e-06
-8.49001e-08
-3.11958e-06
-1.10834e-07
-3.06758e-06
-1.51696e-07
-2.97649e-06
-2.669e-07
-2.78949e-06
-5.40692e-07
-2.64621e-06
-4.08729e-07
-2.457e-06
-5.36993e-07
-2.21178e-06
-6.91765e-07
-1.90047e-06
-8.71485e-07
-1.51627e-06
-1.06608e-06
-1.06053e-06
-1.25402e-06
-5.46659e-07
-1.40504e-06
-2.66508e-17
-1.48967e-06
5.46659e-07
-1.48967e-06
1.06053e-06
-1.40504e-06
1.51627e-06
-1.25402e-06
1.90047e-06
-1.06608e-06
2.21178e-06
-8.71485e-07
2.457e-06
-6.91765e-07
2.64621e-06
-5.36993e-07
2.78949e-06
-4.08729e-07
2.97649e-06
-5.40692e-07
3.06758e-06
-2.669e-07
3.11958e-06
-1.51696e-07
3.15849e-06
-1.10834e-07
3.18836e-06
-8.49001e-08
3.21016e-06
-6.37085e-08
3.23205e-06
-6.33168e-08
3.25772e-06
-7.24641e-08
3.28168e-06
-6.91978e-08
3.30504e-06
-6.99616e-08
3.34142e-06
-1.04977e-07
3.39918e-06
-1.55671e-07
3.42768e-06
-8.68188e-08
3.45225e-06
-7.42537e-08
3.4809e-06
-8.26933e-08
3.4963e-06
-5.62707e-08
3.53675e-06
-1.28133e-07
3.6585e-06
-3.20074e-07
3.68521e-06
-9.32292e-08
3.69298e-06
7.4988e-09
3.3406e-06
8.41826e-07
3.35304e-06
-5.74925e-08
3.54008e-06
-5.59826e-07
3.31705e-06
1.29961e-07
1.22571e-06
1.59576e-06
-2.31395e-07
1.59532e-06
5.97596e-07
3.46823e-06
1.69436e-07
9.26984e-07
3.50167e-07
1.37131e-06
1.86935e-07
4.7427e-07
8.45367e-08
2.89589e-07
2.36143e-07
-8.90469e-08
3.2519e-07
-1.92335e-07
3.92877e-07
-3.22388e-07
6.04323e-07
-2.16395e-07
1.26532e-06
-4.80712e-07
1.1913e-06
1.36254e-07
2.85126e-06
2.07212e-08
1.71085e-06
-7.36991e-09
1.62386e-06
-1.49137e-06
1.61396e-06
-3.24495e-06
1.19375e-06
-3.43302e-06
1.30578e-07
-3.98444e-06
1.39325e-06
-3.95413e-06
-2.28122e-08
-3.94798e-06
-9.93819e-08
-3.79609e-06
-4.71956e-07
-3.76595e-06
-1.58272e-07
-3.75966e-06
-6.25634e-08
-3.72893e-06
-1.13428e-07
-3.70583e-06
-9.7355e-08
-3.68046e-06
-1.12184e-07
-3.61106e-06
-2.25077e-07
-3.57385e-06
-1.42187e-07
-3.55183e-06
-9.19775e-08
-3.52693e-06
-9.41034e-08
-3.49894e-06
-1.00448e-07
-3.47646e-06
-8.5796e-08
-3.45477e-06
-8.53969e-08
-3.42318e-06
-1.16496e-07
-3.38241e-06
-1.516e-07
-3.33149e-06
-2.02619e-07
-3.2439e-06
-3.5449e-07
-3.05862e-06
-7.25971e-07
-2.91194e-06
-5.55408e-07
-2.71609e-06
-7.32842e-07
-2.45901e-06
-9.48848e-07
-2.1268e-06
-1.20369e-06
-1.70816e-06
-1.48473e-06
-1.20151e-06
-1.76066e-06
-6.21668e-07
-1.98488e-06
-4.54893e-17
-2.11134e-06
6.21668e-07
-2.11134e-06
1.20151e-06
-1.98488e-06
1.70816e-06
-1.76066e-06
2.1268e-06
-1.48473e-06
2.45901e-06
-1.20369e-06
2.71609e-06
-9.48848e-07
2.91194e-06
-7.32842e-07
3.05862e-06
-5.55408e-07
3.2439e-06
-7.25971e-07
3.33149e-06
-3.5449e-07
3.38241e-06
-2.02619e-07
3.42318e-06
-1.516e-07
3.45477e-06
-1.16496e-07
3.47646e-06
-8.53969e-08
3.49894e-06
-8.5796e-08
3.52693e-06
-1.00448e-07
3.55183e-06
-9.41034e-08
3.57385e-06
-9.19775e-08
3.61106e-06
-1.42187e-07
3.68046e-06
-2.25077e-07
3.70583e-06
-1.12184e-07
3.72893e-06
-9.7355e-08
3.75966e-06
-1.13428e-07
3.76595e-06
-6.25634e-08
3.79609e-06
-1.58272e-07
3.94798e-06
-4.71956e-07
3.95413e-06
-9.93819e-08
3.98444e-06
-2.28122e-08
3.43302e-06
1.39325e-06
3.24495e-06
1.30578e-07
1.49137e-06
1.19375e-06
7.36991e-09
1.61396e-06
-2.07212e-08
1.62386e-06
-1.36254e-07
1.71085e-06
4.80712e-07
2.85126e-06
2.16395e-07
1.1913e-06
3.22388e-07
1.26532e-06
1.92335e-07
6.04323e-07
8.90469e-08
3.92877e-07
3.2519e-07
-9.20695e-08
4.1726e-07
-1.93466e-07
4.94273e-07
-2.98922e-07
7.0978e-07
-2.43471e-07
1.20987e-06
-3.89937e-07
1.33777e-06
5.5106e-08
2.40622e-06
1.5531e-08
1.75042e-06
1.43715e-08
1.62501e-06
5.77442e-08
1.57059e-06
-5.91229e-09
1.25741e-06
-6.40522e-07
7.65188e-07
-3.89488e-06
4.6476e-06
-4.08023e-06
1.62537e-07
-4.2148e-06
3.51921e-08
-4.03734e-06
-6.49416e-07
-4.04293e-06
-1.52686e-07
-4.05905e-06
-4.64435e-08
-4.0268e-06
-1.45678e-07
-4.0086e-06
-1.15547e-07
-3.99218e-06
-1.28611e-07
-3.90291e-06
-3.14341e-07
-3.86691e-06
-1.78188e-07
-3.84863e-06
-1.10258e-07
-3.82297e-06
-1.19767e-07
-3.7917e-06
-1.31718e-07
-3.76918e-06
-1.08316e-07
-3.74883e-06
-1.05749e-07
-3.71536e-06
-1.49964e-07
-3.67285e-06
-1.94112e-07
-3.62626e-06
-2.49209e-07
-3.54959e-06
-4.31153e-07
-3.37789e-06
-8.9767e-07
-3.23307e-06
-7.00237e-07
-3.03668e-06
-9.2923e-07
-2.77395e-06
-1.21157e-06
-2.42447e-06
-1.55318e-06
-1.96816e-06
-1.94103e-06
-1.39697e-06
-2.33185e-06
-7.27137e-07
-2.65472e-06
-5.63393e-17
-2.83847e-06
7.27137e-07
-2.83847e-06
1.39697e-06
-2.65472e-06
1.96816e-06
-2.33185e-06
2.42447e-06
-1.94103e-06
2.77395e-06
-1.55318e-06
3.03668e-06
-1.21157e-06
3.23307e-06
-9.2923e-07
3.37789e-06
-7.00237e-07
3.54959e-06
-8.9767e-07
3.62626e-06
-4.31153e-07
3.67285e-06
-2.49209e-07
3.71536e-06
-1.94112e-07
3.74883e-06
-1.49964e-07
3.76918e-06
-1.05749e-07
3.7917e-06
-1.08316e-07
3.82297e-06
-1.31718e-07
3.84863e-06
-1.19767e-07
3.86691e-06
-1.10258e-07
3.90291e-06
-1.78188e-07
3.99218e-06
-3.14341e-07
4.0086e-06
-1.28611e-07
4.0268e-06
-1.15547e-07
4.05905e-06
-1.45678e-07
4.04293e-06
-4.64435e-08
4.03734e-06
-1.52686e-07
4.2148e-06
-6.49416e-07
4.08023e-06
3.51921e-08
3.89488e-06
1.62537e-07
6.40522e-07
4.6476e-06
5.91229e-09
7.65188e-07
-5.77442e-08
1.25741e-06
-1.43715e-08
1.57059e-06
-1.5531e-08
1.62501e-06
-5.5106e-08
1.75042e-06
3.89937e-07
2.40622e-06
2.43471e-07
1.33777e-06
2.98922e-07
1.20987e-06
1.93466e-07
7.0978e-07
9.20695e-08
4.94273e-07
4.1726e-07
-9.33197e-08
5.10579e-07
-1.90751e-07
5.91705e-07
-2.78097e-07
7.97125e-07
-2.54316e-07
1.18609e-06
-3.2136e-07
1.40481e-06
-4.82304e-09
2.08968e-06
4.55408e-09
1.74105e-06
1.03467e-08
1.61922e-06
3.21672e-08
1.54877e-06
-5.4817e-08
1.34439e-06
-5.38527e-07
1.2489e-06
6.42044e-07
3.46703e-06
-2.61557e-07
1.06614e-06
-2.97426e-06
2.7479e-06
-3.94718e-06
3.23505e-07
-4.21227e-06
1.12404e-07
-4.33474e-06
7.60208e-08
-4.32164e-06
-1.58775e-07
-4.32366e-06
-1.13524e-07
-4.33283e-06
-1.19449e-07
-4.21006e-06
-4.37111e-07
-4.1817e-06
-2.06538e-07
-4.1722e-06
-1.19767e-07
-4.14641e-06
-1.45549e-07
-4.11029e-06
-1.6784e-07
-4.08893e-06
-1.29674e-07
-4.07227e-06
-1.22409e-07
-4.03654e-06
-1.85699e-07
-3.99195e-06
-2.38699e-07
-3.95435e-06
-2.86811e-07
-3.89963e-06
-4.85865e-07
-3.76021e-06
-1.0371e-06
-3.62489e-06
-8.35556e-07
-3.43845e-06
-1.11568e-06
-3.18296e-06
-1.46706e-06
-2.82676e-06
-1.90938e-06
-2.3329e-06
-2.4349e-06
-1.67872e-06
-2.98603e-06
-8.81654e-07
-3.45178e-06
-2.87906e-17
-3.72013e-06
8.81654e-07
-3.72013e-06
1.67872e-06
-3.45178e-06
2.3329e-06
-2.98603e-06
2.82676e-06
-2.4349e-06
3.18296e-06
-1.90938e-06
3.43845e-06
-1.46706e-06
3.62489e-06
-1.11568e-06
3.76021e-06
-8.35556e-07
3.89963e-06
-1.0371e-06
3.95435e-06
-4.85865e-07
3.99195e-06
-2.86811e-07
4.03654e-06
-2.38699e-07
4.07227e-06
-1.85699e-07
4.08893e-06
-1.22409e-07
4.11029e-06
-1.29674e-07
4.14641e-06
-1.6784e-07
4.1722e-06
-1.45549e-07
4.1817e-06
-1.19767e-07
4.21006e-06
-2.06538e-07
4.33283e-06
-4.37111e-07
4.32366e-06
-1.19449e-07
4.32164e-06
-1.13524e-07
4.33474e-06
-1.58775e-07
4.21227e-06
7.60208e-08
3.94718e-06
1.12404e-07
2.97426e-06
3.23505e-07
2.61557e-07
2.7479e-06
-6.42044e-07
1.06614e-06
5.38527e-07
3.46703e-06
5.4817e-08
1.2489e-06
-3.21672e-08
1.34439e-06
-1.03467e-08
1.54877e-06
-4.55408e-09
1.61922e-06
4.82304e-09
1.74105e-06
3.2136e-07
2.08968e-06
2.54316e-07
1.40481e-06
2.78097e-07
1.18609e-06
1.90751e-07
7.97125e-07
9.33197e-08
5.91705e-07
5.10579e-07
-9.26427e-08
6.03222e-07
-1.84627e-07
6.83689e-07
-2.58455e-07
8.70954e-07
-2.52754e-07
1.18038e-06
-2.7048e-07
1.42254e-06
-4.70303e-08
1.86623e-06
-9.59043e-09
1.70361e-06
2.91354e-09
1.60672e-06
1.08124e-08
1.54087e-06
-7.15574e-08
1.42676e-06
-3.25103e-07
1.50244e-06
4.16762e-07
2.72517e-06
5.28534e-09
1.47761e-06
5.69409e-07
2.18377e-06
1.18457e-07
7.74456e-07
-4.7891e-07
7.09771e-07
-3.89003e-06
3.48714e-06
-4.29466e-06
2.45857e-07
-4.5118e-06
1.03613e-07
-4.65539e-06
2.4134e-08
-4.49717e-06
-5.95328e-07
-4.50337e-06
-2.00335e-07
-4.51722e-06
-1.05915e-07
-4.4951e-06
-1.67674e-07
-4.45252e-06
-2.10416e-07
-4.4355e-06
-1.46693e-07
-4.4275e-06
-1.30418e-07
-4.38857e-06
-2.2463e-07
-4.34033e-06
-2.86934e-07
-4.31808e-06
-3.09059e-07
-4.30109e-06
-5.0286e-07
-4.22335e-06
-1.11483e-06
-4.10636e-06
-9.5255e-07
-3.94689e-06
-1.27515e-06
-3.72434e-06
-1.6896e-06
-3.38778e-06
-2.24593e-06
-2.86696e-06
-2.95572e-06
-2.10492e-06
-3.74806e-06
-1.11985e-06
-4.43686e-06
-2.69665e-17
-4.83997e-06
1.11985e-06
-4.83997e-06
2.10492e-06
-4.43686e-06
2.86696e-06
-3.74806e-06
3.38778e-06
-2.95572e-06
3.72434e-06
-2.24593e-06
3.94689e-06
-1.6896e-06
4.10636e-06
-1.27515e-06
4.22335e-06
-9.5255e-07
4.30109e-06
-1.11483e-06
4.31808e-06
-5.0286e-07
4.34033e-06
-3.09059e-07
4.38857e-06
-2.86934e-07
4.4275e-06
-2.2463e-07
4.4355e-06
-1.30418e-07
4.45252e-06
-1.46693e-07
4.4951e-06
-2.10416e-07
4.51722e-06
-1.67674e-07
4.50337e-06
-1.05915e-07
4.49717e-06
-2.00335e-07
4.65539e-06
-5.95328e-07
4.5118e-06
2.4134e-08
4.29466e-06
1.03613e-07
3.89003e-06
2.45857e-07
4.7891e-07
3.48714e-06
-1.18457e-07
7.09771e-07
-5.69409e-07
7.74456e-07
-5.28534e-09
2.18377e-06
-4.16762e-07
1.47761e-06
3.25103e-07
2.72517e-06
7.15574e-08
1.50244e-06
-1.08124e-08
1.42676e-06
-2.91354e-09
1.54087e-06
9.59043e-09
1.60672e-06
4.70303e-08
1.70361e-06
2.7048e-07
1.86623e-06
2.52754e-07
1.42254e-06
2.58455e-07
1.18038e-06
1.84627e-07
8.70954e-07
9.26427e-08
6.83689e-07
6.03222e-07
-9.0023e-08
6.93245e-07
-1.75531e-07
7.69196e-07
-2.38912e-07
9.34335e-07
-2.42349e-07
1.18382e-06
-2.32762e-07
1.41295e-06
-7.50071e-08
1.70848e-06
-2.44741e-08
1.65307e-06
-6.2885e-09
1.58853e-06
-4.57638e-09
1.53916e-06
-6.75851e-08
1.48977e-06
-1.8047e-07
1.61533e-06
2.77428e-07
2.26727e-06
1.07507e-07
1.64754e-06
4.21554e-07
1.86973e-06
1.20621e-07
1.07539e-06
-2.73101e-07
1.10349e-06
7.18118e-07
2.49593e-06
1.77858e-07
7.86117e-07
-4.66331e-07
7.47802e-07
-3.37206e-06
2.92987e-06
-4.29762e-06
3.30227e-07
-4.61646e-06
1.18502e-07
-4.79362e-06
7.1245e-08
-4.82756e-06
-1.33729e-07
-4.79477e-06
-2.43205e-07
-4.79807e-06
-1.43396e-07
-4.81343e-06
-1.15054e-07
-4.77114e-06
-2.66923e-07
-4.7156e-06
-3.42471e-07
-4.71769e-06
-3.0697e-07
-4.76023e-06
-4.60322e-07
-4.79284e-06
-1.08222e-06
-4.69583e-06
-1.04955e-06
-4.58938e-06
-1.3816e-06
-4.45084e-06
-1.82815e-06
-4.19695e-06
-2.49982e-06
-3.69141e-06
-3.46127e-06
-2.78837e-06
-4.6511e-06
-1.51022e-06
-5.71501e-06
-8.96276e-17
-6.35019e-06
1.51022e-06
-6.35019e-06
2.78837e-06
-5.71501e-06
3.69141e-06
-4.6511e-06
4.19695e-06
-3.46127e-06
4.45084e-06
-2.49982e-06
4.58938e-06
-1.82815e-06
4.69583e-06
-1.3816e-06
4.79284e-06
-1.04955e-06
4.76023e-06
-1.08222e-06
4.71769e-06
-4.60322e-07
4.7156e-06
-3.0697e-07
4.77114e-06
-3.42471e-07
4.81343e-06
-2.66923e-07
4.79807e-06
-1.15054e-07
4.79477e-06
-1.43396e-07
4.82756e-06
-2.43205e-07
4.79362e-06
-1.33729e-07
4.61646e-06
7.1245e-08
4.29762e-06
1.18502e-07
3.37206e-06
3.30227e-07
4.66331e-07
2.92987e-06
-1.77858e-07
7.47802e-07
-7.18118e-07
7.86117e-07
2.73101e-07
2.49593e-06
-1.20621e-07
1.10349e-06
-4.21554e-07
1.07539e-06
-1.07507e-07
1.86973e-06
-2.77428e-07
1.64754e-06
1.8047e-07
2.26727e-06
6.75851e-08
1.61533e-06
4.57638e-09
1.48977e-06
6.2885e-09
1.53916e-06
2.44741e-08
1.58853e-06
7.50071e-08
1.65307e-06
2.32762e-07
1.70848e-06
2.42349e-07
1.41295e-06
2.38912e-07
1.18382e-06
1.75531e-07
9.34335e-07
9.0023e-08
7.69196e-07
6.93245e-07
-8.5579e-08
7.78824e-07
-1.63912e-07
8.47529e-07
-2.18815e-07
9.89238e-07
-2.26112e-07
1.19112e-06
-2.04093e-07
1.39093e-06
-9.18695e-08
1.59625e-06
-3.80272e-08
1.59923e-06
-1.54526e-08
1.56596e-06
-1.35776e-08
1.53728e-06
-5.23727e-08
1.52856e-06
-8.49789e-08
1.64793e-06
1.96905e-07
1.98538e-06
1.56416e-07
1.68802e-06
3.24733e-07
1.70141e-06
1.3717e-07
1.26295e-06
-5.82714e-08
1.29893e-06
4.91383e-07
1.94627e-06
1.88441e-07
1.08906e-06
-1.42857e-07
1.0791e-06
7.04291e-07
2.08272e-06
2.87489e-07
7.47029e-07
-1.06696e-07
5.12687e-07
-9.78454e-07
9.43003e-07
-4.30153e-06
3.18935e-06
-4.727e-06
1.82263e-07
-4.96235e-06
9.19565e-08
-5.13937e-06
6.19647e-08
-5.14153e-06
-2.64766e-07
-5.09069e-06
-3.93307e-07
-5.13983e-06
-2.57827e-07
-5.2742e-06
-3.2596e-07
-5.51148e-06
-8.44941e-07
-5.39133e-06
-1.1697e-06
-5.37656e-06
-1.39637e-06
-5.4236e-06
-1.78111e-06
-5.40196e-06
-2.52147e-06
-5.05331e-06
-3.80991e-06
-3.9624e-06
-5.74201e-06
-2.19813e-06
-7.47928e-06
-1.08529e-16
-8.54832e-06
2.19813e-06
-8.54832e-06
3.9624e-06
-7.47928e-06
5.05331e-06
-5.74201e-06
5.40196e-06
-3.80991e-06
5.4236e-06
-2.52147e-06
5.37656e-06
-1.78111e-06
5.39133e-06
-1.39637e-06
5.51148e-06
-1.1697e-06
5.2742e-06
-8.44941e-07
5.13983e-06
-3.2596e-07
5.09069e-06
-2.57827e-07
5.14153e-06
-3.93307e-07
5.13937e-06
-2.64766e-07
4.96235e-06
6.19647e-08
4.727e-06
9.19565e-08
4.30153e-06
1.82263e-07
9.78454e-07
3.18935e-06
1.06696e-07
9.43003e-07
-2.87489e-07
5.12687e-07
-7.04291e-07
7.47029e-07
1.42857e-07
2.08272e-06
-1.88441e-07
1.0791e-06
-4.91383e-07
1.08906e-06
5.82714e-08
1.94627e-06
-1.3717e-07
1.29893e-06
-3.24733e-07
1.26295e-06
-1.56416e-07
1.70141e-06
-1.96905e-07
1.68802e-06
8.49789e-08
1.98538e-06
5.23727e-08
1.64793e-06
1.35776e-08
1.52856e-06
1.54526e-08
1.53728e-06
3.80272e-08
1.56596e-06
9.18695e-08
1.59923e-06
2.04093e-07
1.59625e-06
2.26112e-07
1.39093e-06
2.18815e-07
1.19112e-06
1.63912e-07
9.89238e-07
8.5579e-08
8.47529e-07
7.78824e-07
-7.95433e-08
8.58367e-07
-1.50243e-07
9.18229e-07
-1.97919e-07
1.03691e-06
-2.06354e-07
1.19955e-06
-1.81054e-07
1.36563e-06
-1.00144e-07
1.51534e-06
-4.86452e-08
1.54773e-06
-2.29261e-08
1.54024e-06
-1.67099e-08
1.53107e-06
-3.25605e-08
1.54441e-06
-2.28643e-08
1.63824e-06
1.53985e-07
1.80854e-06
1.74352e-07
1.66766e-06
2.64777e-07
1.61098e-06
1.57952e-07
1.36978e-06
7.1026e-08
1.38586e-06
3.60272e-07
1.65702e-06
2.04612e-07
1.24472e-06
5.25185e-08
1.23119e-06
4.94055e-07
1.64118e-06
2.66476e-07
9.74609e-07
-2.56683e-08
8.04831e-07
-2.32296e-07
1.14963e-06
8.07965e-07
2.14909e-06
2.93085e-07
6.97144e-07
-1.06509e-07
4.91551e-07
-8.89108e-07
8.44564e-07
-4.36345e-06
3.20958e-06
-4.93856e-06
1.818e-07
-5.2887e-06
9.23164e-08
-5.67746e-06
6.27992e-08
-6.41843e-06
-1.03974e-07
-6.04011e-06
-1.54802e-06
-6.21251e-06
-1.22397e-06
-6.65281e-06
-1.3408e-06
-7.21605e-06
-1.95823e-06
-7.52172e-06
-3.50424e-06
-6.13527e-06
-7.12846e-06
-3.51656e-06
-1.0098e-05
-1.09003e-16
-1.20649e-05
3.51656e-06
-1.20649e-05
6.13527e-06
-1.0098e-05
7.52172e-06
-7.12846e-06
7.21605e-06
-3.50424e-06
6.65281e-06
-1.95823e-06
6.21251e-06
-1.3408e-06
6.04011e-06
-1.22397e-06
6.41843e-06
-1.54802e-06
5.67746e-06
-1.03974e-07
5.2887e-06
6.27992e-08
4.93856e-06
9.23164e-08
4.36345e-06
1.818e-07
8.89108e-07
3.20958e-06
1.06509e-07
8.44564e-07
-2.93085e-07
4.91551e-07
-8.07965e-07
6.97144e-07
2.32296e-07
2.14909e-06
2.56683e-08
1.14963e-06
-2.66476e-07
8.04831e-07
-4.94055e-07
9.74609e-07
-5.25185e-08
1.64118e-06
-2.04612e-07
1.23119e-06
-3.60272e-07
1.24472e-06
-7.1026e-08
1.65702e-06
-1.57952e-07
1.38586e-06
-2.64777e-07
1.36978e-06
-1.74352e-07
1.61098e-06
-1.53985e-07
1.66766e-06
2.28643e-08
1.80854e-06
3.25605e-08
1.63824e-06
1.67099e-08
1.54441e-06
2.29261e-08
1.53107e-06
4.86452e-08
1.54024e-06
1.00144e-07
1.54773e-06
1.81054e-07
1.51534e-06
2.06354e-07
1.36563e-06
1.97919e-07
1.19955e-06
1.50243e-07
1.03691e-06
7.95433e-08
9.18229e-07
8.58367e-07
-7.22332e-08
9.306e-07
-1.35027e-07
9.81024e-07
-1.76297e-07
1.07818e-06
-1.84687e-07
1.20794e-06
-1.6104e-07
1.34198e-06
-1.01718e-07
1.45602e-06
-5.52345e-08
1.50125e-06
-2.74459e-08
1.51245e-06
-1.49809e-08
1.5186e-06
-1.21844e-08
1.54162e-06
1.76281e-08
1.60843e-06
1.33566e-07
1.6926e-06
1.77021e-07
1.6242e-06
2.29925e-07
1.55808e-06
1.77279e-07
1.42242e-06
1.45904e-07
1.41724e-06
2.9176e-07
1.51117e-06
2.21031e-07
1.31545e-06
1.60418e-07
1.29181e-06
3.74732e-07
1.42687e-06
2.49701e-07
1.09964e-06
5.83135e-08
9.96219e-07
-4.14992e-09
1.21209e-06
5.22086e-07
1.62285e-06
2.69906e-07
9.49324e-07
-2.74434e-08
7.889e-07
-2.74559e-07
1.09168e-06
8.65723e-07
2.0693e-06
3.48903e-07
6.9862e-07
-1.93101e-08
4.6053e-07
-6.21883e-07
6.65372e-07
-2.99778e-06
2.27192e-06
-4.6401e-06
9.43039e-08
-5.92006e-06
5.59864e-08
-7.3013e-06
4.04317e-08
-9.29085e-06
3.13205e-08
-1.24461e-05
-3.48995e-07
-1.02595e-05
-9.31508e-06
-6.27268e-06
-1.40848e-05
-1.56852e-16
-1.83376e-05
6.27268e-06
-1.83376e-05
1.02595e-05
-1.40848e-05
1.24461e-05
-9.31508e-06
9.29085e-06
-3.48995e-07
7.3013e-06
3.13205e-08
5.92006e-06
4.04317e-08
4.6401e-06
5.59864e-08
2.99778e-06
9.43039e-08
6.21883e-07
2.27192e-06
1.93101e-08
6.65372e-07
-3.48903e-07
4.6053e-07
-8.65723e-07
6.9862e-07
2.74559e-07
2.0693e-06
2.74434e-08
1.09168e-06
-2.69906e-07
7.889e-07
-5.22086e-07
9.49324e-07
4.14992e-09
1.62285e-06
-5.83135e-08
1.21209e-06
-2.49701e-07
9.96219e-07
-3.74732e-07
1.09964e-06
-1.60418e-07
1.42687e-06
-2.21031e-07
1.29181e-06
-2.9176e-07
1.31545e-06
-1.45904e-07
1.51117e-06
-1.77279e-07
1.41724e-06
-2.29925e-07
1.42242e-06
-1.77021e-07
1.55808e-06
-1.33566e-07
1.6242e-06
-1.76281e-08
1.6926e-06
1.21844e-08
1.60843e-06
1.49809e-08
1.54162e-06
2.74459e-08
1.5186e-06
5.52345e-08
1.51245e-06
1.01718e-07
1.50125e-06
1.6104e-07
1.45602e-06
1.84687e-07
1.34198e-06
1.76297e-07
1.20794e-06
1.35027e-07
1.07818e-06
7.22332e-08
9.81024e-07
9.306e-07
-6.4015e-08
9.94615e-07
-1.1879e-07
1.0358e-06
-1.54219e-07
1.11361e-06
-1.62131e-07
1.21586e-06
-1.42228e-07
1.32208e-06
-9.79216e-08
1.41172e-06
-5.72036e-08
1.46053e-06
-2.82472e-08
1.48349e-06
-9.48798e-09
1.49984e-06
6.79104e-09
1.52534e-06
4.47286e-08
1.57049e-06
1.25864e-07
1.61146e-06
1.74213e-07
1.57585e-06
2.11261e-07
1.52103e-06
1.92879e-07
1.44081e-06
1.8837e-07
1.42175e-06
2.60963e-07
1.43858e-06
2.35301e-07
1.34111e-06
2.16698e-07
1.31041e-06
3.12294e-07
1.33127e-06
2.42678e-07
1.16926e-06
1.29087e-07
1.10981e-06
1.19369e-07
1.22181e-06
3.69441e-07
1.37278e-06
2.47641e-07
1.07112e-06
6.12443e-08
9.75297e-07
-6.20738e-09
1.15913e-06
5.36029e-07
1.52706e-06
3.10857e-07
9.23792e-07
4.06242e-08
7.30763e-07
-1.83761e-07
8.89757e-07
6.04944e-07
1.48322e-06
3.47182e-07
3.52066e-07
1.2364e-07
2.79529e-07
-1.2118e-07
2.85252e-07
-4.79835e-07
3.89976e-07
-1.19703e-06
3.68202e-07
-1.02694e-05
-2.42664e-07
-1.15297e-05
-1.28246e-05
-1.45453e-16
-2.98672e-05
1.15297e-05
-2.98672e-05
1.02694e-05
-1.28246e-05
1.19703e-06
-2.42664e-07
4.79835e-07
3.68202e-07
1.2118e-07
3.89976e-07
-1.2364e-07
2.85252e-07
-3.47182e-07
2.79529e-07
-6.04944e-07
3.52066e-07
1.83761e-07
1.48322e-06
-4.06242e-08
8.89757e-07
-3.10857e-07
7.30763e-07
-5.36029e-07
9.23792e-07
6.20738e-09
1.52706e-06
-6.12443e-08
1.15913e-06
-2.47641e-07
9.75297e-07
-3.69441e-07
1.07112e-06
-1.19369e-07
1.37278e-06
-1.29087e-07
1.22181e-06
-2.42678e-07
1.10981e-06
-3.12294e-07
1.16926e-06
-2.16698e-07
1.33127e-06
-2.35301e-07
1.31041e-06
-2.60963e-07
1.34111e-06
-1.8837e-07
1.43858e-06
-1.92879e-07
1.42175e-06
-2.11261e-07
1.44081e-06
-1.74213e-07
1.52103e-06
-1.25864e-07
1.57585e-06
-4.47286e-08
1.61146e-06
-6.79104e-09
1.57049e-06
9.48798e-09
1.52534e-06
2.82472e-08
1.49984e-06
5.72036e-08
1.48349e-06
9.79216e-08
1.46053e-06
1.42228e-07
1.41172e-06
1.62131e-07
1.32208e-06
1.54219e-07
1.21586e-06
1.1879e-07
1.11361e-06
6.4015e-08
1.0358e-06
9.94615e-07
-5.52664e-08
1.04988e-06
-1.0205e-07
1.08258e-06
-1.32043e-07
1.14361e-06
-1.39277e-07
1.22309e-06
-1.23467e-07
1.30627e-06
-8.96854e-08
1.37793e-06
-5.44084e-08
1.42525e-06
-2.50485e-08
1.45413e-06
-1.15338e-09
1.47595e-06
2.38351e-08
1.50035e-06
6.39304e-08
1.53039e-06
1.25128e-07
1.55026e-06
1.71184e-07
1.5298e-06
2.02599e-07
1.48962e-06
2.04637e-07
1.43877e-06
2.12717e-07
1.41367e-06
2.50856e-07
1.40044e-06
2.46942e-07
1.34502e-06
2.45251e-07
1.3121e-06
2.83729e-07
1.2928e-06
2.446e-07
1.20838e-06
1.82236e-07
1.17217e-06
1.85719e-07
1.21833e-06
2.9573e-07
1.26277e-06
2.3684e-07
1.13001e-06
1.33895e-07
1.07824e-06
1.26727e-07
1.1663e-06
3.68981e-07
1.28481e-06
2.70898e-07
1.02188e-06
1.02263e-07
8.99398e-07
1.38367e-08
9.78183e-07
3.16234e-07
1.18082e-06
2.4752e-07
4.20779e-07
1.46127e-07
3.80922e-07
5.95926e-08
3.71786e-07
6.34909e-08
3.86077e-07
4.59316e-08
3.85761e-07
-3.52302e-08
-1.61502e-07
-2.99752e-06
-9.86228e-06
-2.93365e-17
-3.28647e-05
2.99752e-06
-3.28647e-05
3.52302e-08
-9.86228e-06
-4.59316e-08
-1.61502e-07
-6.34909e-08
3.85761e-07
-5.95926e-08
3.86077e-07
-1.46127e-07
3.71786e-07
-2.4752e-07
3.80922e-07
-3.16234e-07
4.20779e-07
-1.38367e-08
1.18082e-06
-1.02263e-07
9.78183e-07
-2.70898e-07
8.99398e-07
-3.68981e-07
1.02188e-06
-1.26727e-07
1.28481e-06
-1.33895e-07
1.1663e-06
-2.3684e-07
1.07824e-06
-2.9573e-07
1.13001e-06
-1.85719e-07
1.26277e-06
-1.82236e-07
1.21833e-06
-2.446e-07
1.17217e-06
-2.83729e-07
1.20838e-06
-2.45251e-07
1.2928e-06
-2.46942e-07
1.3121e-06
-2.50856e-07
1.34502e-06
-2.12717e-07
1.40044e-06
-2.04637e-07
1.41367e-06
-2.02599e-07
1.43877e-06
-1.71184e-07
1.48962e-06
-1.25128e-07
1.5298e-06
-6.39304e-08
1.55026e-06
-2.38351e-08
1.53039e-06
1.15338e-09
1.50035e-06
2.50485e-08
1.47595e-06
5.44084e-08
1.45413e-06
8.96854e-08
1.42525e-06
1.23467e-07
1.37793e-06
1.39277e-07
1.30627e-06
1.32043e-07
1.22309e-06
1.0205e-07
1.14361e-06
5.52664e-08
1.08258e-06
1.04988e-06
-4.63399e-08
1.09622e-06
-8.52859e-08
1.12153e-06
-1.10123e-07
1.16844e-06
-1.16445e-07
1.22941e-06
-1.04131e-07
1.29395e-06
-7.77075e-08
1.35151e-06
-4.70672e-08
1.39461e-06
-1.79492e-08
1.42502e-06
9.38947e-09
1.44861e-06
3.92602e-08
1.47048e-06
7.87971e-08
1.49086e-06
1.28307e-07
1.50076e-06
1.70215e-07
1.48789e-06
2.00014e-07
1.45982e-06
2.13491e-07
1.42529e-06
2.27536e-07
1.39962e-06
2.50952e-07
1.37702e-06
2.56476e-07
1.3395e-06
2.60569e-07
1.30801e-06
2.74345e-07
1.27902e-06
2.52472e-07
1.23026e-06
2.20034e-07
1.20461e-06
2.23104e-07
1.21526e-06
2.664e-07
1.21947e-06
2.37168e-07
1.15925e-06
1.85306e-07
1.1301e-06
1.9074e-07
1.16086e-06
2.89907e-07
1.18564e-06
2.4365e-07
1.06813e-06
1.46564e-07
9.96484e-07
1.03653e-07
1.02109e-06
2.05347e-07
1.07913e-06
1.83385e-07
4.42742e-07
1.40083e-07
4.24224e-07
9.69521e-08
4.14917e-07
6.95467e-08
4.13483e-07
4.14642e-08
4.13844e-07
1.359e-08
-1.33628e-07
-4.47284e-07
-9.40141e-06
9.04646e-19
-3.3312e-05
4.47284e-07
-3.3312e-05
-1.359e-08
-9.40141e-06
-4.14642e-08
-1.33628e-07
-6.95467e-08
4.13844e-07
-9.69521e-08
4.13483e-07
-1.40083e-07
4.14917e-07
-1.83385e-07
4.24224e-07
-2.05347e-07
4.42742e-07
-1.03653e-07
1.07913e-06
-1.46564e-07
1.02109e-06
-2.4365e-07
9.96484e-07
-2.89907e-07
1.06813e-06
-1.9074e-07
1.18564e-06
-1.85306e-07
1.16086e-06
-2.37168e-07
1.1301e-06
-2.664e-07
1.15925e-06
-2.23104e-07
1.21947e-06
-2.20034e-07
1.21526e-06
-2.52472e-07
1.20461e-06
-2.74345e-07
1.23026e-06
-2.60569e-07
1.27902e-06
-2.56476e-07
1.30801e-06
-2.50952e-07
1.3395e-06
-2.27536e-07
1.37702e-06
-2.13491e-07
1.39962e-06
-2.00014e-07
1.42529e-06
-1.70215e-07
1.45982e-06
-1.28307e-07
1.48789e-06
-7.87971e-08
1.50076e-06
-3.92602e-08
1.49086e-06
-9.38947e-09
1.47048e-06
1.79492e-08
1.44861e-06
4.70672e-08
1.42502e-06
7.77075e-08
1.39461e-06
1.04131e-07
1.35151e-06
1.16445e-07
1.29395e-06
1.10123e-07
1.22941e-06
8.52859e-08
1.16844e-06
4.63399e-08
1.12153e-06
1.09622e-06
-3.75344e-08
1.13376e-06
-6.89001e-08
1.15289e-06
-8.87612e-08
1.1883e-06
-9.38175e-08
1.23447e-06
-8.39812e-08
1.28412e-06
-6.25902e-08
1.33012e-06
-3.56554e-08
1.36768e-06
-7.29408e-09
1.39665e-06
2.17862e-08
1.41953e-06
5.37647e-08
1.4385e-06
9.16264e-08
1.45299e-06
1.33972e-07
1.45841e-06
1.7195e-07
1.44991e-06
2.01244e-07
1.43052e-06
2.20679e-07
1.40586e-06
2.37697e-07
1.3826e-06
2.55541e-07
1.35918e-06
2.64768e-07
1.33027e-06
2.70572e-07
1.3022e-06
2.75296e-07
1.2743e-06
2.63446e-07
1.24211e-06
2.46932e-07
1.22113e-06
2.46918e-07
1.21527e-06
2.60559e-07
1.20583e-06
2.44825e-07
1.17498e-06
2.19406e-07
1.15552e-06
2.22222e-07
1.15805e-06
2.56254e-07
1.15161e-06
2.29607e-07
1.09478e-06
1.73682e-07
1.05241e-06
1.44172e-07
1.0506e-06
1.64895e-07
1.0584e-06
1.51898e-07
4.55738e-07
1.28898e-07
4.47224e-07
1.02527e-07
4.41288e-07
7.77356e-08
4.38274e-07
5.43737e-08
4.37206e-07
3.3619e-08
-1.12873e-07
-2.33799e-07
-9.13399e-06
-1.9434e-17
-3.35458e-05
2.33799e-07
-3.35458e-05
-3.3619e-08
-9.13399e-06
-5.43737e-08
-1.12873e-07
-7.77356e-08
4.37206e-07
-1.02527e-07
4.38274e-07
-1.28898e-07
4.41288e-07
-1.51898e-07
4.47224e-07
-1.64895e-07
4.55738e-07
-1.44172e-07
1.0584e-06
-1.73682e-07
1.0506e-06
-2.29607e-07
1.05241e-06
-2.56254e-07
1.09478e-06
-2.22222e-07
1.15161e-06
-2.19406e-07
1.15805e-06
-2.44825e-07
1.15552e-06
-2.60559e-07
1.17498e-06
-2.46918e-07
1.20583e-06
-2.46932e-07
1.21527e-06
-2.63446e-07
1.22113e-06
-2.75296e-07
1.24211e-06
-2.70572e-07
1.2743e-06
-2.64768e-07
1.3022e-06
-2.55541e-07
1.33027e-06
-2.37697e-07
1.35918e-06
-2.20679e-07
1.3826e-06
-2.01244e-07
1.40586e-06
-1.7195e-07
1.43052e-06
-1.33972e-07
1.44991e-06
-9.16264e-08
1.45841e-06
-5.37647e-08
1.45299e-06
-2.17862e-08
1.4385e-06
7.29408e-09
1.41953e-06
3.56554e-08
1.39665e-06
6.25902e-08
1.36768e-06
8.39812e-08
1.33012e-06
9.38175e-08