/*--------------------------------*- C++ -*----------------------------------*\
  =========                 |
  \\      /  F ield         | OpenFOAM: The Open Source CFD Toolbox
   \\    /   O peration     | Website:  https://openfoam.org
    \\  /    A nd           | Version:  10
     \\/     M anipulation  |
\*---------------------------------------------------------------------------*/
FoamFile
{
    format      ascii;
    class       volScalarField;
    location    "66";
    object      p;
}
// * * * * * * * * * * * * * * * * * * * * * * * * * * * * * * * * * * * * * //

dimensions      [1 -1 -2 0 0 0 0];

internalField   nonuniform List<scalar> 
100
(
1.02045e+07
1.02041e+07
1.02037e+07
1.02031e+07
1.02025e+07
1.02019e+07
1.02011e+07
1.02004e+07
1.01995e+07
1.01987e+07
1.01978e+07
1.01968e+07
1.01958e+07
1.01947e+07
1.01937e+07
1.01925e+07
1.01914e+07
1.01902e+07
1.0189e+07
1.01877e+07
1.01864e+07
1.01851e+07
1.01837e+07
1.01823e+07
1.01809e+07
1.01794e+07
1.01779e+07
1.01764e+07
1.01749e+07
1.01733e+07
1.01717e+07
1.01701e+07
1.01684e+07
1.01667e+07
1.0165e+07
1.01632e+07
1.01615e+07
1.01597e+07
1.01578e+07
1.0156e+07
1.01541e+07
1.01522e+07
1.01503e+07
1.01483e+07
1.01463e+07
1.01443e+07
1.01423e+07
1.01402e+07
1.01381e+07
1.0136e+07
1.01339e+07
1.01317e+07
1.01295e+07
1.01273e+07
1.01251e+07
1.01229e+07
1.01206e+07
1.01183e+07
1.0116e+07
1.01136e+07
1.01113e+07
1.01089e+07
1.01064e+07
1.0104e+07
1.01016e+07
1.00991e+07
1.00966e+07
1.0094e+07
1.00915e+07
1.00889e+07
1.00863e+07
1.00837e+07
1.00811e+07
1.00784e+07
1.00757e+07
1.0073e+07
1.00703e+07
1.00675e+07
1.00648e+07
1.0062e+07
1.00592e+07
1.00563e+07
1.00535e+07
1.00506e+07
1.00477e+07
1.00448e+07
1.00418e+07
1.00389e+07
1.00359e+07
1.00329e+07
1.00298e+07
1.00268e+07
1.00237e+07
1.00206e+07
1.00175e+07
1.00144e+07
1.00112e+07
1.0008e+07
1.00048e+07
1.00016e+07
)
;

boundaryField
{
    inlet
    {
        type            zeroGradient;
    }
    outlet
    {
        type            fixedValue;
        value           uniform 1e+07;
    }
    yzfaces
    {
        type            empty;
    }
}


// ************************************************************************* //
