/*--------------------------------*- C++ -*----------------------------------*\
  =========                 |
  \\      /  F ield         | OpenFOAM: The Open Source CFD Toolbox
   \\    /   O peration     | Website:  https://openfoam.org
    \\  /    A nd           | Version:  10
     \\/     M anipulation  |
\*---------------------------------------------------------------------------*/
FoamFile
{
    format      ascii;
    class       volVectorField;
    location    "1.96";
    object      Ua;
}
// * * * * * * * * * * * * * * * * * * * * * * * * * * * * * * * * * * * * * //

dimensions      [0 1 -1 0 0 0 0];

internalField   nonuniform List<vector> 
12225
(
(2.02118e-05 -2.59969e-06 0)
(5.90825e-05 -2.43378e-06 0)
(9.4311e-05 -2.12863e-06 0)
(0.00012533 -1.78452e-06 0)
(0.000152374 -1.46926e-06 0)
(0.000176083 -1.2166e-06 0)
(0.000197218 -1.038e-06 0)
(0.000216506 -9.34488e-07 0)
(0.000234599 -9.04929e-07 0)
(0.000252079 -9.5137e-07 0)
(0.000269499 -1.08345e-06 0)
(0.000287453 -1.3243e-06 0)
(0.00030668 -1.72209e-06 0)
(0.000328265 -2.37756e-06 0)
(0.000354091 -3.52089e-06 0)
(0.000388118 -5.77579e-06 0)
(0.000441213 -1.13628e-05 0)
(0.000557009 -3.17279e-05 0)
(1.36963e-05 -6.71876e-06 0)
(4.03426e-05 -6.32948e-06 0)
(6.51714e-05 -5.57467e-06 0)
(8.77789e-05 -4.70613e-06 0)
(0.000108177 -3.90028e-06 0)
(0.000126633 -3.24911e-06 0)
(0.000143524 -2.78744e-06 0)
(0.000159246 -2.52224e-06 0)
(0.000174181 -2.45386e-06 0)
(0.000188691 -2.59054e-06 0)
(0.000203135 -2.96039e-06 0)
(0.000217912 -3.62754e-06 0)
(0.000233521 -4.72296e-06 0)
(0.000250679 -6.5162e-06 0)
(0.000270564 -9.60854e-06 0)
(0.000295328 -1.55501e-05 0)
(0.000328788 -2.92741e-05 0)
(0.000369599 -7.11429e-05 0)
(1.05752e-05 -9.21095e-06 0)
(3.1345e-05 -8.75705e-06 0)
(5.11295e-05 -7.788e-06 0)
(6.9611e-05 -6.63589e-06 0)
(8.67139e-05 -5.54566e-06 0)
(0.000102542 -4.65368e-06 0)
(0.000117296 -4.01842e-06 0)
(0.000131219 -3.65818e-06 0)
(0.000144561 -3.58032e-06 0)
(0.000157571 -3.80202e-06 0)
(0.000170511 -4.36815e-06 0)
(0.000183667 -5.37464e-06 0)
(0.000197398 -7.01149e-06 0)
(0.000212183 -9.65827e-06 0)
(0.000228704 -1.41225e-05 0)
(0.000247826 -2.23049e-05 0)
(0.000269471 -3.92159e-05 0)
(0.000284066 -7.87271e-05 0)
(8.56432e-06 -1.08179e-05 0)
(2.55318e-05 -1.03822e-05 0)
(4.20151e-05 -9.3223e-06 0)
(5.77569e-05 -8.01466e-06 0)
(7.26394e-05 -6.75144e-06 0)
(8.66732e-05 -5.70504e-06 0)
(9.99555e-05 -4.95687e-06 0)
(0.00011263 -4.53887e-06 0)
(0.000124861 -4.46775e-06 0)
(0.000136825 -4.77047e-06 0)
(0.000148707 -5.50636e-06 0)
(0.000160715 -6.79502e-06 0)
(0.00017309 -8.8651e-06 0)
(0.000186116 -1.21547e-05 0)
(0.000200077 -1.75362e-05 0)
(0.000214952 -2.68369e-05 0)
(0.000228971 -4.39481e-05 0)
(0.000233445 -7.59757e-05 0)
(7.10893e-06 -1.17982e-05 0)
(2.13111e-05 -1.14352e-05 0)
(3.53633e-05 -1.0366e-05 0)
(4.90545e-05 -8.98947e-06 0)
(6.22474e-05 -7.63046e-06 0)
(7.48966e-05 -6.49086e-06 0)
(8.70299e-05 -5.67355e-06 0)
(9.87226e-05 -5.22486e-06 0)
(0.000110077 -5.17187e-06 0)
(0.00012121 -5.55102e-06 0)
(0.000132249 -6.433e-06 0)
(0.000143334 -7.95259e-06 0)
(0.000154606 -1.03567e-05 0)
(0.000166186 -1.40941e-05 0)
(0.000178062 -1.99883e-05 0)
(0.00018971 -2.95455e-05 0)
(0.000198979 -4.52996e-05 0)
(0.00019981 -7.00136e-05 0)
(5.98914e-06 -1.22845e-05 0)
(1.80528e-05 -1.20325e-05 0)
(3.01995e-05 -1.10123e-05 0)
(4.22551e-05 -9.63053e-06 0)
(5.40768e-05 -8.23444e-06 0)
(6.55848e-05 -7.04957e-06 0)
(7.67601e-05 -6.19817e-06 0)
(8.76275e-05 -5.74067e-06 0)
(9.82407e-05 -5.71446e-06 0)
(0.00010867 -6.16442e-06 0)
(0.000118993 -7.16892e-06 0)
(0.000129289 -8.86901e-06 0)
(0.000139618 -1.15107e-05 0)
(0.000149973 -1.55137e-05 0)
(0.000160152 -2.15777e-05 0)
(0.000169429 -3.08004e-05 0)
(0.000175896 -4.45838e-05 0)
(0.000175795 -6.34612e-05 0)
(5.09534e-06 -1.23594e-05 0)
(1.54429e-05 -1.22453e-05 0)
(2.60386e-05 -1.1316e-05 0)
(3.67385e-05 -9.97718e-06 0)
(4.74027e-05 -8.5904e-06 0)
(5.79327e-05 -7.3996e-06 0)
(6.82769e-05 -6.54365e-06 0)
(7.84229e-05 -6.09594e-06 0)
(8.83853e-05 -6.1034e-06 0)
(9.8195e-05 -6.61757e-06 0)
(0.000107888 -7.7205e-06 0)
(0.000117492 -9.55106e-06 0)
(0.000127001 -1.23381e-05 0)
(0.000136321 -1.6444e-05 0)
(0.000145151 -2.2411e-05 0)
(0.00015276 -3.0951e-05 0)
(0.000157687 -4.26881e-05 0)
(0.000157762 -5.72314e-05 0)
(4.36472e-06 -1.20816e-05 0)
(1.33015e-05 -1.21232e-05 0)
(2.26029e-05 -1.13138e-05 0)
(3.21502e-05 -1.00539e-05 0)
(4.18126e-05 -8.71342e-06 0)
(5.1483e-05 -7.54961e-06 0)
(6.10885e-05 -6.71467e-06 0)
(7.05883e-05 -6.29307e-06 0)
(7.99658e-05 -6.33977e-06 0)
(8.92187e-05 -6.91089e-06 0)
(9.83475e-05 -8.08812e-06 0)
(0.000107339 -1.00008e-05 0)
(0.000116137 -1.28487e-05 0)
(0.000124596 -1.69226e-05 0)
(0.000132388 -2.26058e-05 0)
(0.000138882 -3.03025e-05 0)
(0.000143051 -4.01765e-05 0)
(0.00014371 -5.15786e-05 0)
(3.75765e-06 -1.14983e-05 0)
(1.15149e-05 -1.17047e-05 0)
(1.97171e-05 -1.10327e-05 0)
(2.82671e-05 -9.87733e-06 0)
(3.70476e-05 -8.61232e-06 0)
(4.59505e-05 -7.50319e-06 0)
(5.48894e-05 -6.71166e-06 0)
(6.38022e-05 -6.33071e-06 0)
(7.26473e-05 -6.42137e-06 0)
(8.13947e-05 -7.04198e-06 0)
(9.00155e-05 -8.27029e-06 0)
(9.84641e-05 -1.02206e-05 0)
(0.000106653 -1.30569e-05 0)
(0.000114414 -1.69954e-05 0)
(0.000121438 -2.22815e-05 0)
(0.000127225 -2.91025e-05 0)
(0.000131102 -3.73886e-05 0)
(0.000132447 -4.65156e-05 0)
(3.24718e-06 -1.06514e-05 0)
(1.00056e-05 -1.10226e-05 0)
(1.72615e-05 -1.04946e-05 0)
(2.49374e-05 -9.46002e-06 0)
(3.29329e-05 -8.29277e-06 0)
(4.1144e-05 -7.26149e-06 0)
(4.94766e-05 -6.53304e-06 0)
(5.78528e-05 -6.20585e-06 0)
(6.62107e-05 -6.34469e-06 0)
(7.4498e-05 -7.00778e-06 0)
(8.26621e-05 -8.26603e-06 0)
(9.06348e-05 -1.02154e-05 0)
(9.83107e-05 -1.29821e-05 0)
(0.00010552 -1.67144e-05 0)
(0.000111996 -2.155e-05 0)
(0.00011737 -2.75394e-05 0)
(0.000121216 -3.45185e-05 0)
(0.000123224 -4.19784e-05 0)
(2.81365e-06 -9.58162e-06 0)
(8.71663e-06 -1.01071e-05 0)
(1.51481e-05 -9.71882e-06 0)
(2.20503e-05 -8.81258e-06 0)
(2.93423e-05 -7.75928e-06 0)
(3.69274e-05 -6.82498e-06 0)
(4.47074e-05 -6.17686e-06 0)
(5.25928e-05 -5.91534e-06 0)
(6.05053e-05 -6.10637e-06 0)
(6.83751e-05 -6.80598e-06 0)
(7.61318e-05 -8.07629e-06 0)
(8.36923e-05 -9.99381e-06 0)
(9.09446e-05 -1.26491e-05 0)
(9.77307e-05 -1.6134e-05 0)
(0.000103835 -2.05097e-05 0)
(0.000108994 -2.57503e-05 0)
(0.000112948 -3.16719e-05 0)
(0.000115551 -3.78883e-05 0)
(2.41149e-06 -8.42668e-06 0)
(7.52549e-06 -9.07801e-06 0)
(1.32074e-05 -8.80941e-06 0)
(1.94173e-05 -8.0244e-06 0)
(2.60872e-05 -7.08746e-06 0)
(3.31234e-05 -6.25721e-06 0)
(4.04217e-05 -5.6969e-06 0)
(4.78819e-05 -5.50582e-06 0)
(5.54132e-05 -5.74914e-06 0)
(6.29329e-05 -6.47951e-06 0)
(7.03594e-05 -7.75024e-06 0)
(7.76029e-05 -9.62052e-06 0)
(8.45531e-05 -1.21523e-05 0)
(9.10698e-05 -1.53964e-05 0)
(9.69808e-05 -1.93664e-05 0)
(0.000102096 -2.40005e-05 0)
(0.000106252 -2.9126e-05 0)
(0.000109373 -3.44524e-05 0)
(2.14949e-06 -7.1629e-06 0)
(6.73184e-06 -7.90616e-06 0)
(1.18772e-05 -7.7352e-06 0)
(1.75684e-05 -7.06493e-06 0)
(2.37568e-05 -6.24894e-06 0)
(3.03576e-05 -5.53255e-06 0)
(3.72672e-05 -5.07042e-06 0)
(4.43799e-05 -4.95765e-06 0)
(5.15966e-05 -5.25663e-06 0)
(5.88255e-05 -6.01563e-06 0)
(6.59773e-05 -7.27921e-06 0)
(7.29579e-05 -9.09131e-06 0)
(7.96606e-05 -1.1491e-05 0)
(8.59618e-05 -1.45001e-05 0)
(9.17237e-05 -1.81038e-05 0)
(9.68105e-05 -2.22275e-05 0)
(0.000101119 -2.67207e-05 0)
(0.000104616 -3.13647e-05 0)
(1.88705e-06 -5.65387e-06 0)
(5.92472e-06 -6.43835e-06 0)
(1.05086e-05 -6.33909e-06 0)
(1.56596e-05 -5.78403e-06 0)
(2.13513e-05 -5.10621e-06 0)
(2.75062e-05 -4.5276e-06 0)
(3.40188e-05 -4.18714e-06 0)
(4.07769e-05 -4.1714e-06 0)
(4.76732e-05 -4.53743e-06 0)
(5.46081e-05 -5.32739e-06 0)
(6.14864e-05 -6.57614e-06 0)
(6.82126e-05 -8.31272e-06 0)
(7.46867e-05 -1.05562e-05 0)
(8.08037e-05 -1.33065e-05 0)
(8.64589e-05 -1.65321e-05 0)
(9.15607e-05 -2.01583e-05 0)
(9.60495e-05 -2.40635e-05 0)
(9.99166e-05 -2.80899e-05 0)
(1.61163e-06 -3.92942e-06 0)
(5.06852e-06 -4.63867e-06 0)
(9.05557e-06 -4.5588e-06 0)
(1.36534e-05 -4.11186e-06 0)
(1.8853e-05 -3.5895e-06 0)
(2.45753e-05 -3.17462e-06 0)
(3.07054e-05 -2.9813e-06 0)
(3.71217e-05 -3.08262e-06 0)
(4.37081e-05 -3.52753e-06 0)
(5.03582e-05 -4.35068e-06 0)
(5.69736e-05 -5.57728e-06 0)
(6.34613e-05 -7.22386e-06 0)
(6.97327e-05 -9.29518e-06 0)
(7.57044e-05 -1.17785e-05 0)
(8.13028e-05 -1.46371e-05 0)
(8.64714e-05 -1.78058e-05 0)
(9.11795e-05 -2.11918e-05 0)
(9.54286e-05 -2.46844e-05 0)
(1.26608e-06 -2.05243e-06 0)
(4.01826e-06 -2.46913e-06 0)
(7.34344e-06 -2.33914e-06 0)
(1.13938e-05 -1.99648e-06 0)
(1.61475e-05 -1.65063e-06 0)
(2.14951e-05 -1.42457e-06 0)
(2.7295e-05 -1.39882e-06 0)
(3.34068e-05 -1.62999e-06 0)
(3.97047e-05 -2.15828e-06 0)
(4.6081e-05 -3.01315e-06 0)
(5.24458e-05 -4.21464e-06 0)
(5.87232e-05 -5.7724e-06 0)
(6.48472e-05 -7.68399e-06 0)
(7.07604e-05 -9.93172e-06 0)
(7.64144e-05 -1.24799e-05 0)
(8.17725e-05 -1.52739e-05 0)
(8.68125e-05 -1.82435e-05 0)
(9.15294e-05 -2.13087e-05 0)
(6.46273e-07 5.57362e-09 0)
(2.23556e-06 1.50327e-07 0)
(4.64125e-06 3.51683e-07 0)
(8.04857e-06 5.54444e-07 0)
(1.23215e-05 6.97338e-07 0)
(1.72711e-05 7.1677e-07 0)
(2.27322e-05 5.57557e-07 0)
(2.85675e-05 1.77337e-07 0)
(3.46587e-05 -4.53908e-07 0)
(4.0928e-05 -1.38933e-06 0)
(4.73238e-05 -2.64714e-06 0)
(5.37709e-05 -4.19581e-06 0)
(6.01829e-05 -6.02894e-06 0)
(6.64855e-05 -8.12646e-06 0)
(7.26156e-05 -1.04548e-05 0)
(7.85234e-05 -1.29683e-05 0)
(8.41731e-05 -1.56121e-05 0)
(8.9544e-05 -1.83273e-05 0)
(1.51882e-06 2.46312e-06 0)
(4.65216e-06 3.33677e-06 0)
(8.09529e-06 3.72846e-06 0)
(1.20267e-05 3.83845e-06 0)
(1.65146e-05 3.76466e-06 0)
(2.15381e-05 3.5248e-06 0)
(2.70228e-05 3.107e-06 0)
(3.28723e-05 2.4946e-06 0)
(3.8988e-05 1.67446e-06 0)
(4.52535e-05 6.06111e-07 0)
(5.15449e-05 -7.15522e-07 0)
(5.78358e-05 -2.35017e-06 0)
(6.41319e-05 -4.22344e-06 0)
(7.03711e-05 -6.27137e-06 0)
(7.64864e-05 -8.4655e-06 0)
(8.24268e-05 -1.07703e-05 0)
(8.81554e-05 -1.31462e-05 0)
(9.36486e-05 -1.55525e-05 0)
(2.13329e-06 5.86557e-06 0)
(6.5474e-06 7.22869e-06 0)
(1.12627e-05 7.84829e-06 0)
(1.63014e-05 7.93551e-06 0)
(2.16855e-05 7.65924e-06 0)
(2.74113e-05 7.12143e-06 0)
(3.34447e-05 6.3758e-06 0)
(3.97295e-05 5.44903e-06 0)
(4.61981e-05 4.3549e-06 0)
(5.2779e-05 3.10167e-06 0)
(5.94042e-05 1.70024e-06 0)
(6.596e-05 6.114e-08 0)
(7.23489e-05 -1.75606e-06 0)
(7.8578e-05 -3.76842e-06 0)
(8.4651e-05 -5.84507e-06 0)
(9.05356e-05 -7.96268e-06 0)
(9.62099e-05 -1.00962e-05 0)
(0.000101661 -1.22208e-05 0)
(2.44541e-06 9.68429e-06 0)
(7.55131e-06 1.10487e-05 0)
(1.30575e-05 1.16498e-05 0)
(1.89163e-05 1.16269e-05 0)
(2.5093e-05 1.11471e-05 0)
(3.15494e-05 1.03443e-05 0)
(3.82363e-05 9.31111e-06 0)
(4.50954e-05 8.10725e-06 0)
(5.20636e-05 6.77018e-06 0)
(5.90777e-05 5.32425e-06 0)
(6.60782e-05 3.78706e-06 0)
(7.30109e-05 2.1723e-06 0)
(7.98085e-05 4.76018e-07 0)
(8.63892e-05 -1.39252e-06 0)
(9.27485e-05 -3.36031e-06 0)
(9.89095e-05 -5.3201e-06 0)
(0.000104852 -7.25742e-06 0)
(0.000110563 -9.15811e-06 0)
(2.93034e-06 1.30141e-05 0)
(8.99842e-06 1.41188e-05 0)
(1.5454e-05 1.4501e-05 0)
(2.2241e-05 1.42606e-05 0)
(2.9302e-05 1.35524e-05 0)
(3.65793e-05 1.25167e-05 0)
(4.40125e-05 1.12598e-05 0)
(5.15394e-05 9.8554e-06 0)
(5.90982e-05 8.35178e-06 0)
(6.66305e-05 6.7803e-06 0)
(7.4083e-05 5.162e-06 0)
(8.14094e-05 3.51223e-06 0)
(8.85706e-05 1.8434e-06 0)
(9.55075e-05 1.39987e-07 0)
(0.00010217 -1.6926e-06 0)
(0.000108571 -3.53492e-06 0)
(0.000114728 -5.32876e-06 0)
(0.00012063 -7.06641e-06 0)
(3.52839e-06 1.57519e-05 0)
(1.07607e-05 1.65449e-05 0)
(1.83253e-05 1.66468e-05 0)
(2.61706e-05 1.61517e-05 0)
(3.42285e-05 1.52096e-05 0)
(4.24281e-05 1.39621e-05 0)
(5.07001e-05 1.25209e-05 0)
(5.89784e-05 1.09647e-05 0)
(6.72022e-05 9.34599e-06 0)
(7.53173e-05 7.69818e-06 0)
(8.3277e-05 6.04243e-06 0)
(9.10422e-05 4.39269e-06 0)
(9.85818e-05 2.75896e-06 0)
(0.000105872 1.14913e-06 0)
(0.000112855 -4.83128e-07 0)
(0.000119518 -2.2011e-06 0)
(0.000125895 -3.8539e-06 0)
(0.000131986 -5.4375e-06 0)
(4.2575e-06 1.77165e-05 0)
(1.29014e-05 1.82093e-05 0)
(2.17888e-05 1.80305e-05 0)
(3.0871e-05 1.7288e-05 0)
(4.00735e-05 1.61346e-05 0)
(4.93181e-05 1.47129e-05 0)
(5.85304e-05 1.3135e-05 0)
(6.7644e-05 1.14801e-05 0)
(7.66014e-05 9.80003e-06 0)
(8.53548e-05 8.12662e-06 0)
(9.38656e-05 6.47881e-06 0)
(0.000102104 4.86759e-06 0)
(0.000110047 3.29956e-06 0)
(0.000117681 1.77911e-06 0)
(0.000124988 3.09539e-07 0)
(0.000131935 -1.23568e-06 0)
(0.000138532 -2.74164e-06 0)
(0.000144812 -4.17092e-06 0)
(5.14276e-06 1.8817e-05 0)
(1.54973e-05 1.90464e-05 0)
(2.59735e-05 1.86212e-05 0)
(3.6518e-05 1.76703e-05 0)
(4.70512e-05 1.63523e-05 0)
(5.7491e-05 1.48102e-05 0)
(6.77638e-05 1.31539e-05 0)
(7.78074e-05 1.14591e-05 0)
(8.75725e-05 9.77411e-06 0)
(9.70213e-05 8.12702e-06 0)
(0.000106126 6.53293e-06 0)
(0.00011487 4.99906e-06 0)
(0.00012324 3.52834e-06 0)
(0.000131233 2.12153e-06 0)
(0.00013885 7.78435e-07 0)
(0.000146067 -5.59175e-07 0)
(0.00015289 -1.91002e-06 0)
(0.000159352 -3.18143e-06 0)
(6.22238e-06 1.90117e-05 0)
(1.86603e-05 1.90248e-05 0)
(3.10588e-05 1.8408e-05 0)
(4.33504e-05 1.73092e-05 0)
(5.5449e-05 1.58919e-05 0)
(6.72734e-05 1.42969e-05 0)
(7.87563e-05 1.26291e-05 0)
(8.98468e-05 1.09584e-05 0)
(0.00010051 9.32749e-06 0)
(0.000110723 7.75924e-06 0)
(0.000120475 6.26423e-06 0)
(0.000129762 4.84576e-06 0)
(0.000138587 3.50325e-06 0)
(0.00014696 2.23439e-06 0)
(0.00015489 1.03635e-06 0)
(0.000162374 -1.08503e-07 0)
(0.000169421 -1.29194e-06 0)
(0.000176065 -2.40135e-06 0)
(7.55765e-06 1.8277e-05 0)
(2.25686e-05 1.81269e-05 0)
(3.73274e-05 1.73864e-05 0)
(5.17409e-05 1.62158e-05 0)
(6.57157e-05 1.47784e-05 0)
(7.91758e-05 1.3209e-05 0)
(9.20686e-05 1.16042e-05 0)
(0.000104363 1.0026e-05 0)
(0.000116046 8.51001e-06 0)
(0.000127118 7.07342e-06 0)
(0.000137589 5.72225e-06 0)
(0.000147476 4.45617e-06 0)
(0.000156799 3.27168e-06 0)
(0.000165581 2.16408e-06 0)
(0.00017385 1.12846e-06 0)
(0.000181624 1.60195e-07 0)
(0.000188912 -8.35111e-07 0)
(0.000195739 -1.77777e-06 0)
(9.25641e-06 1.65803e-05 0)
(2.75358e-05 1.63243e-05 0)
(4.52765e-05 1.55392e-05 0)
(6.2346e-05 1.43861e-05 0)
(7.86418e-05 1.30203e-05 0)
(9.41007e-05 1.1565e-05 0)
(0.000108695 1.0105e-05 0)
(0.000122426 8.69228e-06 0)
(0.000135313 7.35465e-06 0)
(0.000147389 6.1037e-06 0)
(0.000158694 4.94138e-06 0)
(0.00016927 3.8645e-06 0)
(0.00017916 2.86753e-06 0)
(0.000188408 1.94428e-06 0)
(0.000197056 1.0887e-06 0)
(0.000205143 2.95205e-07 0)
(0.00021269 -4.99486e-07 0)
(0.000219726 -1.27046e-06 0)
(1.15369e-05 1.3839e-05 0)
(3.41977e-05 1.35412e-05 0)
(5.59164e-05 1.2803e-05 0)
(7.6501e-05 1.17724e-05 0)
(9.58394e-05 1.05853e-05 0)
(0.000113891 9.34571e-06 0)
(0.000130671 8.12262e-06 0)
(0.000146229 6.95626e-06 0)
(0.000160635 5.86626e-06 0)
(0.000173969 4.8591e-06 0)
(0.00018631 3.93373e-06 0)
(0.000197739 3.08528e-06 0)
(0.000208328 2.30737e-06 0)
(0.000218146 1.59345e-06 0)
(0.000227257 9.37351e-07 0)
(0.000235719 3.33622e-07 0)
(0.000243568 -2.57212e-07 0)
(0.000250848 -8.50081e-07 0)
(1.49579e-05 9.82634e-06 0)
(4.41832e-05 9.56307e-06 0)
(7.18397e-05 8.98662e-06 0)
(9.76404e-05 8.21106e-06 0)
(0.000121462 7.33767e-06 0)
(0.000143306 6.44126e-06 0)
(0.000163261 5.5697e-06 0)
(0.000181457 4.74939e-06 0)
(0.000198045 3.99193e-06 0)
(0.000213177 3.29981e-06 0)
(0.000226999 2.67046e-06 0)
(0.000239642 2.09902e-06 0)
(0.000251227 1.57984e-06 0)
(0.00026186 1.10738e-06 0)
(0.000271635 6.76614e-07 0)
(0.000280637 2.83149e-07 0)
(0.000288924 -9.23714e-08 0)
(0.000296564 -4.98201e-07 0)
(2.20302e-05 3.73819e-06 0)
(6.48313e-05 3.62599e-06 0)
(0.000104775 3.39464e-06 0)
(0.000141377 3.08974e-06 0)
(0.000174498 2.75093e-06 0)
(0.000204241 2.40691e-06 0)
(0.000230848 2.07554e-06 0)
(0.000254625 1.76631e-06 0)
(0.000275891 1.48303e-06 0)
(0.000294949 1.22611e-06 0)
(0.000312073 9.94125e-07 0)
(0.000327504 7.84876e-07 0)
(0.000341451 5.9595e-07 0)
(0.000354096 4.25037e-07 0)
(0.000365592 2.70063e-07 0)
(0.000376073 1.29245e-07 0)
(0.00038564 -2.36642e-09 0)
(0.000394315 -1.57041e-07 0)
(4.16057e-05 -1.98691e-05 -2.5631e-31)
(0.000124878 -1.98524e-05 2.55112e-31)
(0.000207963 -1.98105e-05 0)
(0.00029037 -1.97525e-05 0)
(0.000371611 -1.96738e-05 0)
(0.000451112 -1.95537e-05 -2.474e-31)
(0.000528203 -1.93727e-05 0)
(0.000602127 -1.91243e-05 0)
(0.000672073 -1.88183e-05 0)
(0.000737192 -1.84784e-05 0)
(0.00079662 -1.81384e-05 2.2503e-31)
(0.0008495 -1.78399e-05 0)
(0.000895018 -1.76304e-05 0)
(0.000932469 -1.75602e-05 0)
(0.000961368 -1.7679e-05 0)
(0.000981608 -1.80339e-05 2.21495e-31)
(0.000993675 -1.86717e-05 0)
(0.000998882 -1.96291e-05 0)
(0.000999622 -2.09608e-05 0)
(0.000999563 -2.27768e-05 0)
(0.00100357 -2.52631e-05 0)
(0.00101736 -2.87155e-05 0)
(0.0010474 -3.36366e-05 0)
(0.0011018 -4.09412e-05 5.16146e-31)
(0.00119338 -5.23909e-05 -6.63049e-31)
(0.00134824 -7.16336e-05 9.09927e-31)
(0.00163616 -0.000107088 1.36477e-30)
(0.00234956 -0.000181112 0)
(0.00821395 -0.000372101 0)
(0.0199614 -0.000854358 -1.08067e-29)
(0.0284994 -0.00279831 -3.58308e-29)
(0.0305415 0.000152951 0)
(0.0291663 0.00210866 0)
(0.0273822 0.000811949 1.08174e-29)
(0.026366 0.000835036 0)
(0.0252674 0.000930674 0)
(0.0241786 0.000805611 -1.06977e-29)
(0.0231992 0.000743047 0)
(0.0222882 0.000685453 -9.12237e-30)
(0.0214402 0.000633306 -1.68768e-29)
(0.0206525 0.000581513 0)
(0.0199253 0.000530692 0)
(0.0192571 0.000482787 0)
(0.0186441 0.000439093 0)
(0.0180816 0.000400049 0)
(0.017564 0.00036549 -9.86236e-30)
(0.0170865 0.000334946 -9.06155e-30)
(0.0166446 0.000307862 -8.35101e-30)
(0.0162345 0.000283713 0)
(0.0158529 0.000262056 7.14825e-30)
(0.0154972 0.000242526 0)
(0.0151649 0.000224834 -6.16985e-30)
(0.0148541 0.000208741 -5.74653e-30)
(0.0145629 0.000194052 0)
(0.0142897 0.000180602 0)
(0.0140333 0.000168251 0)
(0.0137922 0.000156879 -4.38086e-30)
(0.0135654 0.000146386 0)
(0.013352 0.000136683 0)
(0.0131509 0.000127694 0)
(0.0129615 0.000119355 0)
(0.0127828 0.000111608 0)
(0.0126143 0.000104403 0)
(0.0124554 9.7696e-05 0)
(0.0123053 9.14467e-05 0)
(0.0121637 8.56192e-05 2.50038e-30)
(0.0120299 8.01812e-05 0)
(0.0119035 7.51031e-05 0)
(0.0117842 7.0358e-05 -2.09692e-30)
(0.0116714 6.59213e-05 -1.97958e-30)
(0.0115648 6.17705e-05 0)
(0.011464 5.78851e-05 1.76695e-30)
(0.0113688 5.42461e-05 -1.67064e-30)
(0.0112788 5.08362e-05 0)
(0.0111938 4.76396e-05 1.49573e-30)
(0.0111134 4.46417e-05 0)
(0.0110374 4.18292e-05 0)
(0.0109657 3.91896e-05 -1.27192e-30)
(0.0108978 3.67118e-05 0)
(0.0108337 3.43853e-05 1.14461e-30)
(0.0107732 3.22004e-05 0)
(0.010716 3.01482e-05 -1.03231e-30)
(0.010662 2.82205e-05 -9.81207e-31)
(0.0106111 2.64096e-05 -9.33193e-31)
(0.010563 2.47085e-05 -1.77616e-30)
(0.0105176 2.31104e-05 1.6914e-30)
(0.0104748 2.16092e-05 0)
(0.0104344 2.01991e-05 0)
(0.0103964 1.88749e-05 0)
(0.0103605 1.76313e-05 1.40072e-30)
(0.0103267 1.64638e-05 1.33877e-30)
(0.0102949 1.53679e-05 -1.28061e-30)
(0.0102649 1.43394e-05 0)
(0.0102367 1.33744e-05 1.1748e-30)
(0.0102102 1.24693e-05 1.12676e-30)
(0.0101853 1.16205e-05 1.0817e-30)
(0.0101619 1.08248e-05 0)
(0.0101399 1.00791e-05 0)
(0.0101192 9.38059e-06 0)
(0.0100998 8.72643e-06 9.28046e-31)
(0.0100816 8.11407e-06 0)
(0.0100645 7.54104e-06 0)
(0.0100485 7.00505e-06 -8.36627e-31)
(0.0100335 6.50392e-06 0)
(0.0100195 6.03558e-06 0)
(0.0100064 5.59807e-06 -7.61899e-31)
(0.00999407 5.18956e-06 0)
(0.00998258 4.80831e-06 0)
(0.00997184 4.45266e-06 7.01053e-31)
(0.00996181 4.12107e-06 6.83436e-31)
(0.00995245 3.81206e-06 0)
(0.00994372 3.52424e-06 -6.51729e-31)
(0.00993558 3.2563e-06 0)
(0.00992799 3.007e-06 6.24243e-31)
(0.00992092 2.77517e-06 0)
(0.00991434 2.5597e-06 6.00476e-31)
(0.00990822 2.35956e-06 5.89835e-31)
(0.00990252 2.17375e-06 0)
(0.00989724 2.00136e-06 0)
(0.00989232 1.8415e-06 0)
(0.00988777 1.69336e-06 0)
(0.00988354 1.55617e-06 0)
(0.00987962 1.42918e-06 0)
(0.00987599 1.31172e-06 0)
(0.00987263 1.20314e-06 5.28374e-31)
(0.00986952 1.10283e-06 -5.23037e-31)
(0.00986664 1.01023e-06 0)
(0.00986399 9.24793e-07 0)
(0.00986153 8.46031e-07 0)
(0.00985927 7.73469e-07 0)
(0.00985718 7.06669e-07 -1.00395e-30)
(0.00985526 6.45219e-07 0)
(0.00985349 5.88736e-07 9.91407e-31)
(0.00985185 5.3686e-07 -9.8589e-31)
(0.00985035 4.8926e-07 0)
(0.00984897 4.45623e-07 0)
(0.00984771 4.05663e-07 0)
(0.00984654 3.69111e-07 9.68048e-31)
(0.00984547 3.35723e-07 9.64494e-31)
(0.00984449 3.05271e-07 0)
(0.00984359 2.7755e-07 9.58298e-31)
(0.00984276 2.52373e-07 9.55613e-31)
(0.00984201 2.29572e-07 -9.53189e-31)
(0.00984131 2.08998e-07 0)
(0.00984067 1.90526e-07 0)
(0.00984008 1.74049e-07 -9.47266e-31)
(0.00983953 1.59483e-07 0)
(0.00983903 1.46774e-07 0)
(0.00983856 1.35891e-07 0)
(0.00983812 1.26839e-07 0)
(0.0098377 1.19663e-07 9.41416e-31)
(0.0098373 1.14451e-07 9.4084e-31)
(0.00983691 1.1135e-07 0)
(0.00983652 1.10574e-07 9.40367e-31)
(0.00983613 1.12421e-07 0)
(0.00983572 1.17298e-07 0)
(0.00983529 1.25745e-07 9.41819e-31)
(0.00983481 1.38473e-07 0)
(0.00983427 1.56411e-07 9.44895e-31)
(0.00983365 1.80772e-07 0)
(0.00983292 2.13133e-07 0)
(0.00983204 2.55547e-07 9.54932e-31)
(0.00983096 3.10699e-07 0)
(0.00982964 3.82103e-07 9.6779e-31)
(0.00982798 4.74393e-07 0)
(0.0098259 5.9372e-07 0)
(0.00982325 7.48319e-07 0)
(0.00981987 9.49346e-07 -1.02552e-30)
(0.00981553 1.21213e-06 0)
(0.00980991 1.55812e-06 1.08753e-30)
(0.00980259 2.01801e-06 0)
(0.00979297 2.63701e-06 0)
(0.00978019 3.48419e-06 0)
(0.009763 4.67029e-06 0)
(0.00973947 6.38421e-06 0)
(0.00970646 8.97666e-06 0)
(0.00965837 1.31803e-05 0)
(0.00958386 2.08124e-05 -6.11405e-30)
(0.00945432 3.76994e-05 0)
(0.00916725 9.06514e-05 0)
(1.0536e-05 -4.9188e-05 6.35365e-31)
(3.16663e-05 -4.91099e-05 -6.33608e-31)
(5.28595e-05 -4.90135e-05 0)
(7.40632e-05 -4.89158e-05 1.26094e-30)
(9.52294e-05 -4.88161e-05 0)
(0.00011623 -4.86547e-05 -6.27475e-31)
(0.000136822 -4.83662e-05 -1.24377e-30)
(0.000156707 -4.79138e-05 -1.23114e-30)
(0.000175606 -4.72986e-05 0)
(0.000193325 -4.6552e-05 -1.19421e-30)
(0.000209789 -4.57281e-05 5.88545e-31)
(0.000225054 -4.49014e-05 0)
(0.000239328 -4.41691e-05 0)
(0.000252969 -4.36466e-05 0)
(0.00026645 -4.34588e-05 0)
(0.000280319 -4.37324e-05 5.61919e-31)
(0.000295166 -4.45914e-05 0)
(0.000311495 -4.61531e-05 1.17832e-30)
(0.000329732 -4.8563e-05 0)
(0.000350554 -5.20451e-05 0)
(0.000375069 -5.69493e-05 -1.45439e-30)
(0.000404673 -6.38224e-05 0)
(0.000440932 -7.35604e-05 1.88067e-30)
(0.000485752 -8.76978e-05 1.12773e-30)
(0.000541772 -0.00010899 -1.40226e-30)
(0.000612923 -0.000142557 1.83526e-30)
(0.000705543 -0.000199029 2.56405e-30)
(0.000829705 -0.0003043 0)
(0.00100222 -0.000538839 0)
(0.00141588 -0.00107744 -1.39089e-29)
(0.00591049 -0.00311452 -1.20414e-28)
(0.0151382 -0.000294062 0)
(0.0218217 0.00154097 0)
(0.0251795 -0.00117539 -1.48943e-29)
(0.0265304 0.00226995 0)
(0.0252244 0.00335771 0)
(0.023882 0.00225817 -2.94681e-29)
(0.0230114 0.00221574 0)
(0.0221182 0.00204222 -8.04906e-29)
(0.0212805 0.00189828 -4.95717e-29)
(0.020496 0.00174148 0)
(0.0197759 0.00158458 0)
(0.0191196 0.00143809 7.61528e-29)
(0.018521 0.00130625 6.92805e-29)
(0.0179729 0.00118973 6.32046e-29)
(0.0174688 0.0010873 -8.63801e-29)
(0.0170029 0.000997059 -2.61748e-29)
(0.0165709 0.000917078 2.48795e-29)
(0.0161692 0.000845695 -4.52483e-29)
(0.0157947 0.000781578 2.05762e-29)
(0.0154451 0.000723674 0)
(0.015118 0.00067115 -1.77057e-29)
(0.0148117 0.000623326 -5.00862e-29)
(0.0145245 0.000579636 0)
(0.0142548 0.000539602 0)
(0.0140014 0.000502816 0)
(0.0137631 0.000468929 -1.24465e-29)
(0.0135388 0.000437642 0)
(0.0133275 0.000408698 -2.23877e-29)
(0.0131285 0.000381874 0)
(0.0129408 0.00035698 -1.96775e-29)
(0.0127638 0.000333847 0)
(0.0125968 0.000312327 1.73365e-29)
(0.0124392 0.000292289 0)
(0.0122903 0.000273615 -1.53062e-29)
(0.0121498 0.000256199 2.1302e-29)
(0.0120171 0.000239945 0)
(0.0118917 0.000224765 1.2743e-29)
(0.0117731 0.000210578 -5.72126e-30)
(0.0116612 0.000197311 -5.37569e-30)
(0.0115553 0.000184899 0)
(0.0114552 0.000173278 1.47896e-29)
(0.0113607 0.000162393 -4.46598e-30)
(0.0112713 0.000152193 0)
(0.0111867 0.000142629 3.95099e-30)
(0.0111068 0.00013366 7.95892e-30)
(0.0110313 0.000125244 0)
(0.01096 0.000117345 -3.29205e-30)
(0.0108925 0.000109929 0)
(0.0108288 0.000102966 -3.42859e-30)
(0.0107686 9.64265e-05 0)
(0.0107118 9.02837e-05 3.09246e-30)
(0.0106581 8.45131e-05 -2.43624e-30)
(0.0106074 7.90919e-05 -7.38558e-30)
(0.0105595 7.39988e-05 -1.397e-29)
(0.0105144 6.92141e-05 1.32172e-29)
(0.0104718 6.47194e-05 0)
(0.0104316 6.04975e-05 0)
(0.0103938 5.65322e-05 0)
(0.0103581 5.28086e-05 -4.19741e-30)
(0.0103245 4.93125e-05 3.0369e-30)
(0.0102928 4.60306e-05 -2.86573e-30)
(0.010263 4.29505e-05 0)
(0.0102349 4.00606e-05 8.62964e-30)
(0.0102086 3.73498e-05 2.41298e-30)
(0.0101837 3.48078e-05 2.28038e-30)
(0.0101604 3.24248e-05 0)
(0.0101385 3.01915e-05 0)
(0.0101179 2.80993e-05 0)
(0.0100986 2.61401e-05 1.82825e-30)
(0.0100805 2.43059e-05 0)
(0.0100635 2.25896e-05 4.23644e-30)
(0.0100476 2.09842e-05 2.50815e-30)
(0.0100327 1.94831e-05 -3.90942e-30)
(0.0100187 1.80803e-05 0)
(0.0100056 1.67698e-05 -4.96319e-30)
(0.00999339 1.55462e-05 0)
(0.00998195 1.44041e-05 -3.37469e-30)
(0.00997126 1.33388e-05 4.42294e-30)
(0.00996128 1.23456e-05 4.26654e-30)
(0.00995196 1.14199e-05 0)
(0.00994326 1.05577e-05 1.95434e-30)
(0.00993515 9.75511e-06 -2.88514e-30)
(0.0099276 9.00831e-06 9.34485e-31)
(0.00992056 8.31383e-06 0)
(0.00991401 7.66837e-06 8.64573e-31)
(0.00990791 7.06881e-06 -1.76896e-30)
(0.00990224 6.5122e-06 0)
(0.00989698 5.99577e-06 -2.48923e-30)
(0.00989209 5.5169e-06 -2.43879e-30)
(0.00988755 5.07311e-06 -2.39205e-30)
(0.00988334 4.66211e-06 0)
(0.00987944 4.28168e-06 0)
(0.00987582 3.9298e-06 0)
(0.00987247 3.60451e-06 2.88987e-30)
(0.00986938 3.30401e-06 -6.36829e-31)
(0.00986652 3.02659e-06 0)
(0.00986387 2.77065e-06 2.14951e-30)
(0.00986143 2.53469e-06 2.12465e-30)
(0.00985917 2.3173e-06 0)
(0.00985709 2.11718e-06 -1.14978e-30)
(0.00985518 1.93308e-06 4.12253e-30)
(0.00985341 1.76386e-06 1.11291e-30)
(0.00985179 1.60845e-06 -5.15079e-30)
(0.00985029 1.46584e-06 0)
(0.00984892 1.3351e-06 0)
(0.00984765 1.21538e-06 0)
(0.0098465 1.10587e-06 1.04422e-30)
(0.00984543 1.00583e-06 4.96087e-30)
(0.00984445 9.14598e-07 3.90786e-30)
(0.00984356 8.31541e-07 1.01558e-30)
(0.00984273 7.56102e-07 4.88212e-30)
(0.00984198 6.8778e-07 -1.00056e-30)
(0.00984129 6.26132e-07 0)
(0.00984065 5.70776e-07 0)
(0.00984006 5.21394e-07 -4.80807e-30)
(0.00983952 4.77737e-07 0)
(0.00983902 4.39634e-07 0)
(0.00983855 4.06999e-07 3.80066e-30)
(0.00983811 3.79845e-07 0)
(0.00983769 3.58301e-07 4.75635e-30)
(0.0098373 3.42633e-07 9.64433e-31)
(0.00983691 3.33275e-07 0)
(0.00983653 3.30865e-07 4.74729e-30)
(0.00983614 3.36297e-07 0)
(0.00983573 3.50781e-07 0)
(0.0098353 3.75928e-07 9.67688e-31)
(0.00983483 4.13861e-07 3.80067e-30)
(0.0098343 4.67352e-07 9.77048e-31)
(0.00983368 5.4002e-07 0)
(0.00983296 6.36567e-07 0)
(0.00983209 7.63125e-07 4.87928e-30)
(0.00983103 9.27693e-07 0)
(0.00982972 1.14076e-06 4.99531e-30)
(0.00982809 1.41613e-06 0)
(0.00982604 1.77213e-06 0)
(0.00982343 2.23329e-06 0)
(0.00982011 2.83281e-06 -1.22029e-30)
(0.00981583 3.61626e-06 0)
(0.00981031 4.64731e-06 1.40698e-30)
(0.00980312 6.01693e-06 0)
(0.00979368 7.85878e-06 0)
(0.00978116 1.03764e-05 5.8406e-30)
(0.00976438 1.38944e-05 -6.56176e-30)
(0.00974149 1.89622e-05 0)
(0.00970962 2.65871e-05 0)
(0.00966381 3.88243e-05 0)
(0.00959501 6.05379e-05 1.79556e-29)
(0.00948569 0.000105835 0)
(0.00931324 0.000227863 -1.01278e-28)
(7.62382e-06 -6.64493e-05 3.43444e-30)
(2.29188e-05 -6.63562e-05 -5.44658e-34)
(3.8288e-05 -6.62994e-05 0)
(5.37274e-05 -6.62831e-05 1.27203e-33)
(6.92466e-05 -6.63313e-05 0)
(8.47872e-05 -6.63924e-05 0)
(0.000100158 -6.63978e-05 -3.42085e-30)
(0.000115084 -6.63e-05 -1.70838e-30)
(0.000129282 -6.60828e-05 1.69904e-30)
(0.00014251 -6.5756e-05 -1.69302e-30)
(0.000154585 -6.53479e-05 0)
(0.000165404 -6.49076e-05 0)
(0.000174984 -6.45097e-05 -1.65514e-30)
(0.000183498 -6.42551e-05 -3.2959e-30)
(0.000191281 -6.42688e-05 3.29551e-30)
(0.000198792 -6.46994e-05 0)
(0.000206546 -6.57109e-05 3.3679e-30)
(0.000215055 -6.74794e-05 1.73414e-30)
(0.000224816 -7.0199e-05 0)
(0.00023631 -7.41125e-05 3.79804e-30)
(0.000250003 -7.95641e-05 -2.04488e-30)
(0.000266332 -8.70555e-05 -4.46292e-30)
(0.000285701 -9.73124e-05 2.50197e-30)
(0.000308478 -0.000111393 0)
(0.000334951 -0.000130872 6.71847e-30)
(0.000364797 -0.000157987 8.11601e-30)
(0.000396293 -0.000195819 0)
(0.000426525 -0.000248729 1.27985e-29)
(0.000450087 -0.000321043 0)
(0.00045984 -0.000411992 2.12343e-29)
(0.000443108 -0.000532496 -1.37437e-29)
(0.000385109 -0.000670839 0)
(0.000658492 -0.000771894 0)
(0.00398966 -0.00227766 0)
(0.0119197 0.000943478 0)
(0.0189443 0.00149024 0)
(0.0222955 0.000938137 0)
(0.0228629 0.00400776 -2.10434e-28)
(0.0217967 0.00332493 8.80054e-29)
(0.0209783 0.00319176 0)
(0.0201741 0.00289938 0)
(0.0194661 0.00261213 0)
(0.0188392 0.0023579 2.48248e-28)
(0.0182744 0.00213724 1.12218e-28)
(0.0177584 0.00194673 -8.38318e-31)
(0.0172821 0.0017813 8.1584e-31)
(0.0168396 0.0016361 8.69693e-29)
(0.0164269 0.00150722 7.94725e-29)
(0.0160413 0.00139178 -1.47693e-28)
(0.0156805 0.00128769 -6.87928e-29)
(0.0153425 0.00119338 0)
(0.0150256 0.00110761 -5.93903e-29)
(0.0147281 0.00102936 -1.09911e-28)
(0.0144486 0.000957772 0)
(0.0141858 0.000892082 0)
(0.0139384 0.000831648 4.49695e-29)
(0.0137055 0.000775914 0)
(0.013486 0.000724403 0)
(0.0132791 0.000676704 -1.0997e-28)
(0.0130839 0.000632465 -6.91019e-29)
(0.0128997 0.000591379 -3.17917e-29)
(0.0127259 0.000553177 0)
(0.0125619 0.000517621 2.79467e-29)
(0.0124069 0.0004845 0)
(0.0122605 0.000453623 -7.49864e-29)
(0.0121222 0.000424816 2.31072e-29)
(0.0119915 0.000397923 4.45415e-29)
(0.011868 0.0003728 6.23029e-29)
(0.0117512 0.000349316 0)
(0.0116408 0.00032735 -3.71451e-29)
(0.0115364 0.000306793 0)
(0.0114377 0.000287543 -1.70258e-29)
(0.0113444 0.000269509 -3.10805e-29)
(0.0112561 0.000252605 -2.93076e-29)
(0.0111727 0.000236754 2.7645e-29)
(0.0110938 0.000221884 -1.35664e-29)
(0.0110192 0.000207929 0)
(0.0109487 0.00019483 0)