/*--------------------------------*- C++ -*----------------------------------*\
  =========                 |
  \\      /  F ield         | OpenFOAM: The Open Source CFD Toolbox
   \\    /   O peration     | Website:  https://openfoam.org
    \\  /    A nd           | Version:  10
     \\/     M anipulation  |
\*---------------------------------------------------------------------------*/
FoamFile
{
    format      ascii;
    class       surfaceScalarField;
    location    "4";
    object      phi;
}
// * * * * * * * * * * * * * * * * * * * * * * * * * * * * * * * * * * * * * //

dimensions      [0 3 -1 0 0 0 0];

internalField   nonuniform List<scalar> 
24170
(
-1.70015e-12
1.70015e-12
-3.79375e-12
2.0936e-12
-6.74397e-12
2.95022e-12
-1.10979e-11
4.35391e-12
-1.75528e-11
6.45493e-12
-2.70133e-11
9.46045e-12
-4.06388e-11
1.36255e-11
-5.98773e-11
1.92385e-11
-8.64755e-11
2.65982e-11
-1.22459e-10
3.59834e-11
-1.70087e-10
4.76286e-11
-2.31826e-10
6.17388e-11
-3.10455e-10
7.86292e-11
-4.09647e-10
9.91916e-11
-5.35935e-10
1.26288e-10
-7.05394e-10
1.69459e-10
-9.71491e-10
2.66097e-10
6.17937e-10
-1.58943e-09
-1.80009e-12
3.50024e-12
-4.01719e-12
4.3107e-12
-7.14225e-12
6.07527e-12
-1.17553e-11
8.96696e-12
-1.85961e-11
1.32958e-11
-2.86251e-11
1.94894e-11
-4.30747e-11
2.80751e-11
-6.34861e-11
3.965e-11
-9.17216e-11
5.48336e-11
-1.29943e-10
7.42051e-11
-1.80562e-10
9.82476e-11
-2.46192e-10
1.27369e-10
-3.29718e-10
1.62155e-10
-4.34756e-10
2.04229e-10
-5.67171e-10
2.58703e-10
-7.39198e-10
3.41486e-10
-9.77233e-10
5.04132e-10
9.22752e-10
-1.28205e-09
-1.87702e-12
5.37727e-12
-4.18995e-12
6.62363e-12
-7.45194e-12
9.33726e-12
-1.22698e-11
1.37848e-11
-1.94183e-11
2.04443e-11
-2.99053e-11
2.99764e-11
-4.50272e-11
4.31971e-11
-6.64106e-11
6.10334e-11
-9.60277e-11
8.44506e-11
-1.36175e-10
1.14353e-10
-1.89414e-10
1.51486e-10
-2.58484e-10
1.96439e-10
-3.46278e-10
2.49949e-10
-4.56016e-10
3.13967e-10
-5.91838e-10
3.94525e-10
-7.59305e-10
5.08954e-10
-9.58403e-10
7.0323e-10
1.08017e-09
-1.11582e-09
-1.91942e-12
7.29669e-12
-4.28652e-12
8.99072e-12
-7.62828e-12
1.2679e-11
-1.25686e-11
1.87251e-11
-1.9906e-11
2.77817e-11
-3.06822e-11
4.07525e-11
-4.6243e-11
5.87579e-11
-6.82862e-11
8.30766e-11
-9.88832e-11
1.15048e-10
-1.4046e-10
1.5593e-10
-1.95725e-10
2.06751e-10
-2.6753e-10
2.68245e-10
-3.58692e-10
3.41111e-10
-4.71766e-10
4.2704e-10
-6.08555e-10
5.31315e-10
-7.67729e-10
6.68128e-10
-9.32848e-10
8.68349e-10
1.17438e-09
-1.02706e-09
-1.91309e-12
9.20978e-12
-4.27548e-12
1.13531e-11
-7.61599e-12
1.60195e-11
-1.25619e-11
2.36711e-11
-1.99187e-11
3.51385e-11
-3.07421e-11
5.15759e-11
-4.64054e-11
7.44212e-11
-6.86549e-11
1.05326e-10
-9.9643e-11
1.46036e-10
-1.41916e-10
1.98203e-10
-1.98331e-10
2.63165e-10
-2.71856e-10
3.4177e-10
-3.65213e-10
4.34467e-10
-4.80206e-10
5.42034e-10
-6.1631e-10
6.67419e-10
-7.66873e-10
8.18691e-10
-9.08637e-10
1.01011e-09
1.24756e-09
-9.8182e-10
-1.84104e-12
1.10508e-11
-4.11925e-12
1.36313e-11
-7.34893e-12
1.92492e-11
-1.21419e-11
2.84641e-11
-1.92874e-11
4.22839e-11
-2.98271e-11
6.21157e-11
-4.51292e-11
8.97233e-11
-6.69556e-11
1.27152e-10
-9.75104e-11
1.7659e-10
-1.39445e-10
2.40138e-10
-1.95773e-10
3.19494e-10
-2.69627e-10
4.15623e-10
-3.63716e-10
5.28556e-10
-4.79287e-10
6.57605e-10
-6.14087e-10
8.02218e-10
-7.58422e-10
9.63026e-10
-8.88469e-10
1.14016e-09
1.32144e-09
-9.62349e-10
-1.68379e-12
1.27346e-11
-3.77463e-12
1.57222e-11
-6.75095e-12
2.22255e-11
-1.11841e-11
3.28972e-11
-1.7816e-11
4.89158e-11
-2.7636e-11
7.19357e-11
-4.19619e-11
1.04049e-10
-6.25219e-11
1.47712e-10
-9.15272e-11
2.05596e-10
-1.31708e-10
2.80319e-10
-1.86255e-10
3.74041e-10
-2.58559e-10
4.87927e-10
-3.51561e-10
6.21559e-10
-4.66448e-10
7.72491e-10
-6.00319e-10
9.36089e-10
-7.42696e-10
1.1054e-09
-8.72153e-10
1.26962e-09
1.40878e-09
-9.59493e-10
-1.42004e-12
1.41546e-11
-3.19442e-12
1.74966e-11
-5.73865e-12
2.47698e-11
-9.55172e-12
3.67103e-11
-1.5288e-11
5.4652e-11
-2.38334e-11
8.04812e-11
-3.63934e-11
1.16609e-10
-5.45921e-11
1.65911e-10
-8.05791e-11
2.31583e-10
-1.17118e-10
3.16857e-10
-1.67593e-10
4.24516e-10
-2.3581e-10
5.56144e-10
-3.25353e-10
7.11102e-10
-4.38178e-10
8.85316e-10
-5.7219e-10
1.0701e-09
-7.18113e-10
1.25133e-09
-8.57741e-10
1.40925e-09
1.51965e-09
-9.68611e-10
-1.02822e-12
1.51829e-11
-2.33075e-12
1.87991e-11
-4.22728e-12
2.66663e-11
-7.10514e-12
3.95881e-11
-1.14805e-11
5.90274e-11
-1.807e-11
8.70707e-11
-2.78836e-11
1.26423e-10
-4.23426e-11
1.8037e-10
-6.34286e-11
2.52669e-10
-9.38517e-11
3.4728e-10
-1.37185e-10
4.67849e-10
-1.97834e-10
6.16793e-10
-2.80583e-10
7.93851e-10
-3.89324e-10
9.94057e-10
-5.24619e-10
1.2054e-09
-6.80382e-10
1.40709e-09
-8.41641e-10
1.5705e-09
1.66548e-09
-9.87468e-10
-4.89093e-13
1.5672e-11
-1.14083e-12
1.94508e-11
-2.14082e-12
2.76663e-11
-3.71832e-12
4.11656e-11
-6.18985e-12
6.14989e-11
-1.00206e-11
9.09015e-11
-1.59167e-11
1.32319e-10
-2.4959e-11
1.89412e-10
-3.87998e-11
2.6651e-10
-5.9935e-11
3.68415e-10
-9.20353e-11
4.9995e-10
-1.4024e-10
6.64998e-10
-2.11157e-10
8.64768e-10
-3.12076e-10
1.09498e-09
-4.48691e-10
1.34201e-09
-6.20888e-10
1.57929e-09
-8.17647e-10
1.76726e-09
1.86304e-09
-1.01521e-09
2.10251e-13
1.54617e-11
4.04023e-13
1.9257e-11
5.71938e-13
2.74984e-11
6.94837e-13
4.10427e-11
7.26562e-13
6.14672e-11
5.52302e-13
9.10758e-11
-9.40772e-14
1.32965e-10
-1.76841e-12
1.91087e-10
-5.55188e-12
2.70293e-10
-1.34372e-11
3.76301e-10
-2.89153e-11
5.15428e-10
-5.77621e-11
6.93844e-10
-1.08863e-10
9.1587e-10
-1.94522e-10
1.18064e-09
-3.28994e-10
1.47648e-09
-5.23203e-10
1.7735e-09
-7.74056e-10
2.01812e-09
2.14087e-09
-1.05188e-09
8.40464e-13
1.46213e-11
1.8063e-12
1.82912e-11
3.05835e-12
2.62463e-11
4.78366e-12
3.93174e-11
7.21022e-12
5.90406e-11
1.05971e-11
8.76888e-11
1.51831e-11
1.28379e-10
2.10854e-11
1.85184e-10
2.8096e-11
2.63283e-10
3.52917e-11
3.69105e-10
4.03413e-11
5.10378e-10
3.83698e-11
6.95816e-10
2.03057e-11
9.33934e-10
-2.90128e-11
1.22995e-09
-1.31658e-10
1.57913e-09
-3.1284e-10
1.95468e-09
-5.86215e-10
2.29149e-09
2.47908e-09
-9.24426e-10
1.82898e-12
1.27923e-11
3.98395e-12
1.61362e-11
6.87117e-12
2.33591e-11
1.0974e-11
3.52146e-11
1.69141e-11
5.31006e-11
2.5482e-11
7.9121e-11
3.76118e-11
1.16249e-10
5.43152e-11
1.68481e-10
7.64914e-11
2.41106e-10
1.04483e-10
3.41114e-10
1.37149e-10
4.77712e-10
1.70085e-10
6.6288e-10
1.9246e-10
9.11559e-10
1.8206e-10
1.24035e-09
9.92901e-11
1.6619e-09
-1.1475e-10
2.16872e-09
-5.19998e-10
2.69674e-09
3.06554e-09
-1.10646e-09
3.31283e-12
9.47944e-12
7.25509e-12
1.2194e-11
1.26063e-11
1.80079e-11
2.03014e-11
2.75195e-11
3.15762e-11
4.18257e-11
4.80834e-11
6.26138e-11
7.19185e-11
9.24142e-11
1.05674e-10
1.34725e-10
1.524e-10
1.94381e-10
2.15307e-10
2.78206e-10
2.96913e-10
3.96106e-10
3.96946e-10
5.62848e-10
5.07658e-10
8.00847e-10
6.04068e-10
1.14394e-09
6.2551e-10
1.64046e-09
4.47031e-10
2.3472e-09
-1.40195e-10
3.28396e-09
4.24794e-09
-1.3226e-09
5.33002e-12
4.14942e-12
1.16987e-11
5.82528e-12
2.03961e-11
9.31053e-12
3.29635e-11
1.49521e-11
5.14868e-11
2.33024e-11
7.88925e-11
3.52081e-11
1.19003e-10
5.23041e-11
1.7688e-10
7.68475e-11
2.59212e-10
1.12049e-10
3.74689e-10
1.62729e-10
5.34246e-10
2.36549e-10
7.50615e-10
3.46479e-10
1.03556e-09
5.159e-10
1.38994e-09
7.89567e-10
1.77249e-09
1.25791e-09
2.00717e-09
2.11251e-09
1.51509e-09
3.77605e-09
7.21274e-09
-1.44971e-09
7.6401e-12
-3.49068e-12
1.67639e-11
-3.29852e-12
2.92555e-11
-3.18105e-12
4.72738e-11
-3.06623e-12
7.38002e-11
-3.22399e-12
1.13431e-10
-4.42314e-12
1.72022e-10
-6.2863e-12
2.57646e-10
-8.77716e-12
3.81697e-10
-1.20009e-11
5.60578e-10
-1.61527e-11
8.18681e-10
-2.15534e-11
1.19387e-09
-2.87097e-11
1.74819e-09
-3.84221e-11
2.58974e-09
-5.19793e-11
3.91915e-09
-7.15065e-11
6.13227e-09
-1.00604e-10
1.00539e-08
-1.45558e-10
-2.17894e-10
1.74845e-08
2.93298e-07
2.05899e-07
2.2505e-07
6.82446e-08
1.99707e-07
2.53391e-08
1.90402e-07
9.30218e-09
1.88523e-07
1.87598e-09
1.89635e-07
-1.1162e-09
1.92311e-07
-2.68279e-09
1.96403e-07
-4.1003e-09
2.01832e-07
-5.44146e-09
2.08614e-07
-6.79749e-09
2.16855e-07
-8.2629e-09
2.26767e-07
-9.94037e-09
2.38682e-07
-1.19541e-08
2.53099e-07
-1.4469e-08
2.70745e-07
-1.77169e-08
2.92675e-07
-2.20314e-08
3.20417e-07
-2.78872e-08
-3.59164e-08
3.56115e-07
1.02695e-07
1.03204e-07
1.0957e-07
6.13695e-08
1.00755e-07
3.41543e-08
9.1517e-08
1.85399e-08
8.39274e-08
9.46557e-09
7.88168e-08
3.99446e-09
7.57554e-08
3.7854e-10
7.37015e-08
-2.04634e-09
7.22965e-08
-4.0365e-09
7.13353e-08
-5.83632e-09
7.06384e-08
-7.56592e-09
6.99985e-08
-9.30052e-09
6.91251e-08
-1.10807e-08
6.7565e-08
-1.29089e-08
6.45824e-08
-1.47343e-08
5.8974e-08
-1.64231e-08
4.87983e-08
-1.77115e-08
-1.81387e-08
3.10206e-08
4.86361e-08
5.45681e-08
6.96765e-08
4.03291e-08
7.65256e-08
2.73052e-08
7.75124e-08
1.75531e-08
7.63392e-08
1.06388e-08
7.4592e-08
5.74164e-09
7.28041e-08
2.16646e-09
7.12702e-08
-5.12495e-10
6.97471e-08
-2.51335e-09
6.81093e-08
-4.19853e-09
6.62014e-08
-5.65806e-09
6.38392e-08
-6.93834e-09
6.0811e-08
-8.05242e-09
5.68882e-08
-8.98605e-09
5.18562e-08
-9.7023e-09
4.55809e-08
-1.01477e-08
3.81328e-08
-1.02634e-08
-1.00051e-08
2.99991e-08
1.93776e-08
3.51906e-08
3.15594e-08
2.81473e-08
3.81642e-08
2.07004e-08
4.13742e-08
1.43431e-08
4.26775e-08
9.33547e-09
4.29302e-08
5.48892e-09
4.25728e-08
2.52391e-09
4.18619e-08
1.98403e-10
4.08687e-08
-1.52018e-09
3.95897e-08
-2.91956e-09
3.80124e-08
-4.08073e-09
3.6112e-08
-5.03797e-09
3.38647e-08
-5.80509e-09
3.12609e-08
-6.3822e-09
2.83207e-08
-6.76214e-09
2.51102e-08
-6.93723e-09
2.17535e-08
-6.90669e-09
-6.68388e-09
1.84323e-08
1.11888e-08
2.40018e-08
1.93475e-08
1.99886e-08
2.46411e-08
1.54068e-08
2.78106e-08
1.11736e-08
2.95404e-08
7.60564e-09
3.03146e-08
4.71469e-09
3.04372e-08
2.40137e-09
3.00866e-08
5.48964e-10
2.94298e-08
-8.63396e-10
2.84857e-08
-1.97544e-09
2.72827e-08
-2.87773e-09
2.58417e-08
-3.59695e-09
2.41849e-08
-4.14829e-09
2.23429e-08
-4.54021e-09
2.03596e-08
-4.77885e-09
1.82943e-08
-4.87193e-09
1.62195e-08
-4.83187e-09
-4.6775e-09
1.42131e-08
7.14818e-09
1.68536e-08
1.277e-08
1.43668e-08
1.67779e-08
1.1399e-08
1.94344e-08
8.51713e-09
2.10627e-08
5.97735e-09
2.19338e-08
3.84355e-09
2.22448e-08
2.09033e-09
2.21303e-08
6.6345e-10
2.17196e-08
-4.52665e-10
2.10588e-08
-1.31464e-09
2.01883e-08
-2.00716e-09
1.91419e-08
-2.55056e-09
1.79524e-08
-2.95878e-09
1.66545e-08
-3.24233e-09
1.52865e-08
-3.41086e-09
1.38898e-08
-3.47525e-09
1.25066e-08
-3.44869e-09
-3.34702e-09
1.11761e-08
4.87966e-09
1.1974e-08
8.88782e-09
1.03586e-08
1.19097e-08
8.37711e-09
1.40373e-08
6.38948e-09
1.54306e-08
4.58402e-09
1.62458e-08
3.02836e-09
1.66108e-08
1.72537e-09
1.66231e-08
6.51118e-10
1.63777e-08
-2.07234e-10
1.59255e-08
-8.62457e-10
1.53057e-08
-1.38732e-09
1.45519e-08
-1.79683e-09
1.36955e-08
-2.10239e-09
1.27668e-08
-2.3136e-09
1.17957e-08
-2.43971e-09
1.0811e-08
-2.49063e-09
9.83975e-09
-2.47741e-09
-2.41208e-09
8.90482e-09
3.48541e-09
8.48855e-09
6.42722e-09
7.41678e-09
8.72615e-09
6.07818e-09
1.041e-08
4.70562e-09
1.15616e-08
3.43241e-09
1.22746e-08
2.31535e-09
1.26338e-08
1.36618e-09
1.27096e-08
5.75381e-10
1.25703e-08
-6.80086e-11
1.22631e-08
-5.55254e-10
1.18217e-08
-9.45916e-10
1.12756e-08
-1.25067e-09
1.06514e-08
-1.47818e-09
9.97385e-09
-1.6361e-09
9.2661e-09
-1.73196e-09
8.54913e-09
-1.77366e-09
7.84138e-09
-1.76965e-09
-1.72875e-09
7.15804e-09
2.56822e-09
5.92033e-09
4.77546e-09
5.20954e-09
6.54287e-09
4.31077e-09
7.87343e-09
3.37506e-09
8.81183e-09
2.49401e-09
9.41651e-09
1.71067e-09
9.74504e-09
1.03764e-09
9.84846e-09
4.71961e-10
9.77598e-09
4.46995e-12
9.56789e-09
-3.47164e-10
9.25188e-09
-6.29897e-10
8.85238e-09
-8.51178e-10
8.3913e-09
-1.01709e-09
7.88844e-09
-1.13324e-09
7.36168e-09
-1.2052e-09
6.82682e-09
-1.2388e-09
6.29731e-09
-1.24014e-09
-1.21547e-09
5.78403e-09
1.93117e-09
3.98916e-09
3.61199e-09
3.52872e-09
4.98133e-09
2.94144e-09
6.03302e-09
2.32337e-09
6.792e-09
1.73503e-09
7.29602e-09
1.20665e-09
7.58501e-09
7.48654e-10
7.69619e-09
3.60785e-10
7.66261e-09
3.80503e-11
7.52283e-09
-2.07386e-10
7.29613e-09
-4.03198e-10
7.00212e-09
-5.57165e-10
6.65834e-09
-6.73318e-10
6.28057e-09
-7.55461e-10
5.88279e-09
-8.07426e-10
5.47721e-09
-8.33215e-10
5.07406e-09
-8.36997e-10
-8.23e-10
4.68159e-09
1.46768e-09
2.52147e-09
2.75687e-09
2.23953e-09
3.82063e-09
1.87768e-09
4.65014e-09
1.49386e-09
5.25967e-09
1.1255e-09
5.67424e-09
7.92072e-10
5.92195e-09
5.00948e-10
6.02997e-09
2.52765e-10
6.02297e-09
4.50531e-11
5.92973e-09
-1.1415e-10
5.76666e-09
-2.40122e-10
5.54925e-09
-3.39762e-10
5.29142e-09
-4.15487e-10
5.0056e-09
-4.69639e-10
4.70279e-09
-5.04618e-10
4.39252e-09
-5.22949e-10
4.08279e-09
-5.27263e-10
-5.20222e-10
3.78001e-09
1.11517e-09
1.40631e-09
2.10153e-09
1.25317e-09
2.92345e-09
1.05575e-09
3.5722e-09
8.4512e-10
4.05602e-09
6.41679e-10
4.39176e-09
4.56336e-10
4.59921e-09
2.9349e-10
4.69816e-09
1.53822e-10
4.70694e-09
3.62724e-11
4.64663e-09
-5.38406e-11
4.53061e-09
-1.24103e-10
4.37092e-09
-1.80076e-10
4.17844e-09
-2.23008e-10
3.96295e-09
-2.54143e-10
3.7331e-09
-2.74773e-10
3.49641e-09
-2.8626e-10
3.25917e-09
-2.90017e-10
-2.87475e-10
3.02642e-09
8.31798e-10
5.74512e-10
1.57159e-09
5.13374e-10
2.19304e-09
4.34307e-10
2.6886e-09
3.49561e-10
3.063e-09
2.67272e-10
3.32746e-09
1.9188e-10
3.4957e-09
1.25253e-10
3.58175e-09
6.77726e-11
3.59889e-09
1.91348e-11
3.56212e-09
-1.70767e-11
3.48214e-09
-4.41188e-11
3.36813e-09
-6.60698e-11
3.22848e-09
-8.33575e-11
3.07071e-09
-9.63769e-11
2.90147e-09
-1.05525e-10
2.72643e-09
-1.11225e-10
2.55034e-09
-1.1393e-10
-1.14118e-10
2.37699e-09
5.74512e-10
1.08789e-09
1.52219e-09
1.87175e-09
2.13902e-09
2.3309e-09
2.45616e-09
2.52393e-09
2.54306e-09
2.52599e-09
2.48187e-09
2.4158e-09
2.33244e-09
2.23607e-09
2.13054e-09
2.01932e-09
1.90539e-09
1.79127e-09
-2.6302e-11
2.6302e-11
-5.27458e-11
2.64438e-11
-7.92909e-11
2.65451e-11
-1.05896e-10
2.66048e-11
-1.32517e-10
2.66215e-11
-1.59112e-10
2.65944e-11
-1.85634e-10
2.65229e-11
-2.12041e-10
2.64065e-11
-2.38286e-10
2.62452e-11
-2.64325e-10
2.60391e-11
-2.90114e-10
2.57885e-11
-3.15608e-10
2.54943e-11
-3.40766e-10
2.51574e-11
-3.65545e-10
2.47791e-11
-3.89905e-10
2.43608e-11
-4.1381e-10
2.39042e-11
-4.37221e-10
2.34112e-11
-4.60105e-10
2.2884e-11
-4.8243e-10
2.23249e-11
-5.04166e-10
2.17361e-11
-5.25286e-10
2.11202e-11
-5.45766e-10
2.04799e-11
-5.65584e-10
1.98178e-11
-5.84721e-10
1.91367e-11
-6.0316e-10
1.84391e-11
-6.20888e-10
1.77279e-11
-6.37893e-10
1.70057e-11
-6.54169e-10
1.62752e-11
-6.69707e-10
1.55389e-11
-6.84507e-10
1.47993e-11
-6.98566e-10
1.40588e-11
-7.11885e-10
1.33196e-11
-7.24469e-10
1.25839e-11
-7.36323e-10
1.18537e-11
-7.47454e-10
1.11309e-11
-7.57871e-10
1.04173e-11
-7.67585e-10
9.71451e-12
-7.76609e-10
9.02394e-12
-7.84956e-10
8.34694e-12
-7.92641e-10
7.68473e-12
-7.99679e-10
7.03834e-12
-8.06088e-10
6.40868e-12
-8.11885e-10
5.79657e-12
-8.17087e-10
5.20267e-12
-8.21715e-10
4.6275e-12
-8.25786e-10
4.07154e-12
-8.29321e-10
3.5351e-12
-8.3234e-10
3.0184e-12
-8.34861e-10
2.52158e-12
-8.36906e-10
2.04471e-12
-8.38494e-10
1.58774e-12
-8.39644e-10
1.15059e-12
-8.40378e-10
7.33068e-13
-8.40713e-10
3.34976e-13
-8.40669e-10
-4.39932e-14
-8.40264e-10
-4.0416e-13
-8.39518e-10
-7.45869e-13
-8.38449e-10
-1.06957e-12
-8.37073e-10
-1.37565e-12
-8.35409e-10
-1.66461e-12
-8.33472e-10
-1.93692e-12
-8.31279e-10
-2.19307e-12
-8.28845e-10
-2.43359e-12
-8.26186e-10
-2.659e-12
-8.23316e-10
-2.86983e-12
-8.2025e-10
-3.06662e-12
-8.17e-10
-3.24989e-12
-8.1358e-10
-3.42019e-12
-8.10002e-10
-3.57803e-12
-8.06278e-10
-3.72395e-12
-8.02419e-10
-3.85844e-12
-7.98437e-10
-3.98203e-12
-7.94342e-10
-4.0952e-12
-7.90143e-10
-4.19842e-12
-7.85851e-10
-4.29218e-12
-7.81474e-10
-4.37691e-12
-7.77021e-10
-4.45306e-12
-7.725e-10
-4.52103e-12
-7.67919e-10
-4.58126e-12
-7.63285e-10
-4.6341e-12
-7.58605e-10
-4.67995e-12
-7.53886e-10
-4.71916e-12
-7.49134e-10
-4.75203e-12
-7.44355e-10
-4.77892e-12
-7.39555e-10
-4.8001e-12
-7.34739e-10
-4.81588e-12
-7.29912e-10
-4.82649e-12
-7.2508e-10
-4.8322e-12
-7.20247e-10
-4.83323e-12
-7.15417e-10
-4.82978e-12
-7.10595e-10
-4.82207e-12
-7.05785e-10
-4.81024e-12
-7.0099e-10
-4.79448e-12
-6.96216e-10
-4.7749e-12
-6.91464e-10
-4.75165e-12
-6.86739e-10
-4.72482e-12
-6.82045e-10
-4.69451e-12
-6.77384e-10
-4.66081e-12
-6.7276e-10
-4.62377e-12
-6.68176e-10
-4.58344e-12
-6.63637e-10
-4.53986e-12
-6.59144e-10
-4.49307e-12
-6.547e-10
-4.44307e-12
-6.50311e-10
-4.38989e-12
-6.45977e-10
-4.33352e-12
-6.41703e-10
-4.27397e-12
-6.37492e-10
-4.21125e-12
-6.33347e-10
-4.14536e-12
-6.2927e-10
-4.07631e-12
-6.25266e-10
-4.00413e-12
-6.21337e-10
-3.92885e-12
-6.17487e-10
-3.85052e-12
-6.13717e-10
-3.76923e-12
-6.10032e-10
-3.68506e-12
-6.06434e-10
-3.59815e-12
-6.02926e-10
-3.50866e-12
-5.99509e-10
-3.41677e-12
-5.96186e-10
-3.32275e-12
-5.92959e-10
-3.22684e-12
-5.8983e-10
-3.12939e-12
-5.86799e-10
-3.03075e-12
-5.83868e-10
-2.93134e-12
-5.81036e-10
-2.83162e-12
-5.78304e-10
-2.73212e-12
-5.75671e-10
-2.63341e-12
-5.73135e-10
-2.5361e-12
-5.70694e-10
-2.4409e-12
-5.68345e-10
-2.34854e-12
-5.66085e-10
-2.25986e-12
-5.63909e-10
-2.17576e-12
-5.61812e-10
-2.09721e-12
-5.59787e-10
-2.02532e-12
-5.57826e-10
-1.96127e-12
-5.55919e-10
-1.90639e-12
-5.54057e-10
-1.86215e-12
-5.52227e-10
-1.83021e-12
-5.50415e-10
-1.81238e-12
-5.48604e-10
-1.81076e-12
-5.46776e-10
-1.82765e-12
-5.4491e-10
-1.8657e-12
-5.42983e-10
-1.92789e-12
-5.40965e-10
-2.01758e-12
-5.38826e-10
-2.13862e-12
-5.36531e-10
-2.29535e-12
-5.34038e-10
-2.4927e-12
-5.31302e-10
-2.73628e-12
-5.2827e-10
-3.03247e-12
-5.24881e-10
-3.38848e-12
-5.21069e-10
-3.81248e-12
-5.16755e-10
-4.31371e-12
-5.11852e-10
-4.90258e-12
-5.06261e-10
-5.59078e-12
-4.9987e-10
-6.39144e-12
-4.92551e-10
-7.31912e-12
-4.84161e-10
-8.39003e-12
-4.74539e-10
-9.62195e-12
-4.63505e-10
-1.10343e-11
-4.50857e-10
-1.2648e-11
-4.36371e-10
-1.44853e-11
-4.19802e-10
-1.65694e-11
-4.00878e-10
-1.89241e-11
-3.79305e-10
-2.15725e-11
-3.54769e-10
-2.45366e-11
-3.26933e-10
-2.78352e-11
-2.95451e-10
-3.14821e-11
-2.59968e-10
-3.54835e-11
-2.20133e-10
-3.9835e-11
-1.75615e-10
-4.45177e-11
-1.26121e-10
-4.9494e-11
-7.14192e-11
-5.47021e-11
-1.1368e-11
-6.00513e-11
5.40476e-11
-6.54156e-11
1.24675e-10
-7.06277e-11
2.00146e-10
-7.54702e-11
2.79808e-10
-7.96619e-11
3.62634e-10
-8.28269e-11
4.47044e-10
-8.44097e-11
5.3044e-10
-8.33957e-11
6.07583e-10
-7.71435e-11
-5.46899e-11
6.62273e-10
-2.64819e-11
5.27839e-11
-5.31054e-11
5.30672e-11
-7.9829e-11
5.32688e-11
-1.0661e-10
5.33858e-11
-1.33405e-10
5.3416e-11
-1.60168e-10
5.33575e-11
-1.86854e-10
5.32091e-11
-2.13418e-10
5.297e-11
-2.39812e-10
5.26401e-11
-2.65993e-10
5.22197e-11
-2.91914e-10
5.17097e-11
-3.17532e-10
5.11118e-11
-3.42802e-10
5.04279e-11
-3.67684e-10
4.96605e-11
-3.92136e-10
4.88129e-11
-4.1612e-10
4.78885e-11
-4.396e-10
4.68913e-11
-4.62542e-10
4.58255e-11
-4.84912e-10
4.46958e-11
-5.06684e-10
4.35071e-11
-5.27828e-10
4.22646e-11
-5.48321e-10
4.09735e-11
-5.68143e-10
3.96392e-11
-5.87273e-10
3.82673e-11
-6.05697e-10
3.68631e-11
-6.23402e-10
3.54323e-11
-6.40376e-10
3.39801e-11
-6.56613e-10
3.25118e-11
-6.72106e-10
3.10326e-11
-6.86855e-10
2.95475e-11
-7.00857e-10
2.80612e-11
-7.14116e-10
2.65783e-11
-7.26635e-10
2.51029e-11
-7.3842e-10
2.36393e-11
-7.49481e-10
2.2191e-11
-7.59825e-10
2.07617e-11
-7.69465e-10
1.93544e-11
-7.78413e-10
1.79721e-11
-7.86684e-10
1.66175e-11
-7.94292e-10
1.52928e-11
-8.01254e-10
1.40002e-11
-8.07586e-10
1.27415e-11
-8.13308e-10
1.15181e-11
-8.18437e-10
1.03314e-11
-8.22992e-10
9.18249e-12
-8.26992e-10
8.07216e-12
-8.30458e-10
7.00106e-12
-8.33409e-10
5.96962e-12
-8.35866e-10
4.97809e-12
-8.37848e-10
4.02653e-12
-8.39375e-10
3.11487e-12
-8.40467e-10
2.2429e-12
-8.41144e-10
1.41024e-12
-8.41426e-10
6.16447e-13
-8.41331e-10
-1.39082e-13
-8.40878e-10
-8.5699e-13
-8.40086e-10
-1.53806e-12
-8.38972e-10
-2.18308e-12
-8.37555e-10
-2.79295e-12
-8.35851e-10
-3.36861e-12
-8.33877e-10
-3.91101e-12
-8.31649e-10
-4.42118e-12
-8.29182e-10
-4.90016e-12
-8.26492e-10
-5.34898e-12
-8.23593e-10
-5.76872e-12
-8.20499e-10
-6.16044e-12
-8.17224e-10
-6.52522e-12
-8.1378e-10
-6.86411e-12
-8.1018e-10
-7.17819e-12
-8.06435e-10
-7.46848e-12
-8.02558e-10
-7.73603e-12
-7.98558e-10
-7.98182e-12
-7.94446e-10
-8.20684e-12
-7.90233e-10
-8.41208e-12
-7.85926e-10
-8.59842e-12
-7.81537e-10
-8.76679e-12
-7.77072e-10
-8.91806e-12
-7.7254e-10
-9.05307e-12
-7.67948e-10
-9.17261e-12
-7.63305e-10
-9.27748e-12
-7.58616e-10
-9.36839e-12
-7.53889e-10
-9.44607e-12
-7.4913e-10
-9.51115e-12
-7.44345e-10
-9.56431e-12
-7.39539e-10
-9.60611e-12
-7.34718e-10
-9.63713e-12
-7.29886e-10
-9.65786e-12
-7.2505e-10
-9.66885e-12
-7.20212e-10
-9.67049e-12
-7.15379e-10
-9.66324e-12
-7.10554e-10
-9.64746e-12
-7.0574e-10
-9.62351e-12
-7.00943e-10
-9.5917e-12
-6.96166e-10
-9.5523e-12
-6.91412e-10
-9.50557e-12
-6.86685e-10
-9.45172e-12
-6.81988e-10
-9.39094e-12
-6.77326e-10
-9.32337e-12
-6.727e-10
-9.24916e-12
-6.68116e-10
-9.16837e-12
-6.63574e-10
-9.08111e-12
-6.5908e-10
-8.98742e-12
-6.54636e-10
-8.88734e-12
-6.50245e-10
-8.78089e-12
-6.4591e-10
-8.66808e-12
-6.41635e-10
-8.54891e-12
-6.37423e-10
-8.42339e-12
-6.33277e-10
-8.29153e-12
-6.292e-10
-8.15335e-12
-6.25195e-10
-8.00891e-12
-6.21266e-10
-7.85826e-12
-6.17415e-10
-7.7015e-12
-6.13645e-10
-7.53879e-12
-6.0996e-10
-7.37034e-12
-6.06362e-10
-7.19636e-12
-6.02853e-10
-7.01722e-12
-5.99437e-10
-6.83329e-12
-5.96114e-10
-6.64504e-12
-5.92888e-10
-6.45302e-12
-5.8976e-10
-6.25789e-12
-5.8673e-10
-6.06037e-12
-5.838e-10
-5.8613e-12
-5.8097e-10
-5.6616e-12
-5.7824e-10
-5.46231e-12
-5.75609e-10
-5.26459e-12
-5.73075e-10
-5.06968e-12
-5.70637e-10
-4.87894e-12
-5.68292e-10
-4.69389e-12
-5.66035e-10
-4.51619e-12
-5.63863e-10
-4.3476e-12
-5.61771e-10
-4.19013e-12
-5.5975e-10
-4.04592e-12
-5.57794e-10
-3.91736e-12
-5.55893e-10
-3.80711e-12
-5.54037e-10
-3.71811e-12
-5.52214e-10
-3.65362e-12
-5.50409e-10
-3.61733e-12
-5.48606e-10
-3.61337e-12
-5.46788e-10
-3.64637e-12
-5.44932e-10
-3.7216e-12
-5.43015e-10
-3.845e-12
-5.41009e-10
-4.0233e-12
-5.38883e-10
-4.26415e-12
-5.36602e-10
-4.57624e-12
-5.34126e-10
-4.96942e-12
-5.31407e-10
-5.4549e-12
-5.28394e-10
-6.0454e-12
-5.25027e-10
-6.75531e-12
-5.21239e-10
-7.60099e-12
-5.16952e-10
-8.60088e-12
-5.12078e-10
-9.77579e-12
-5.0652e-10
-1.11491e-11
-5.00164e-10
-1.2747e-11
-4.92885e-10
-1.45988e-11
-4.84538e-10
-1.67367e-11
-4.74964e-10
-1.91965e-11
-4.63981e-10
-2.20169e-11
-4.51389e-10
-2.524e-11
-4.36964e-10
-2.89103e-11
-4.20459e-10
-3.30744e-11
-4.01603e-10
-3.77801e-11
-3.80102e-10
-4.3074e-11
-3.55638e-10
-4.90004e-11
-3.27876e-10
-5.55972e-11
-2.96465e-10
-6.28926e-11
-2.61049e-10
-7.08999e-11
-2.21273e-10
-7.9611e-11
-1.76802e-10
-8.89887e-11
-1.27337e-10
-9.89585e-11
-7.26412e-11
-1.09398e-10
-1.25658e-11
-1.20127e-10
5.29118e-11
-1.30893e-10
1.23648e-10
-1.41364e-10
1.99285e-10
-1.51107e-10
2.79188e-10
-1.59565e-10
3.62364e-10
-1.66003e-10
4.4732e-10
-1.69365e-10
5.31777e-10
-1.67853e-10
6.12127e-10
-1.57494e-10
-1.26882e-10
6.84319e-10
-2.68463e-11
7.96302e-11
-5.38337e-11
8.00547e-11
-8.0919e-11
8.03541e-11
-1.08057e-10
8.05239e-11
-1.35202e-10
8.05607e-11
-1.62306e-10
8.04619e-11
-1.89322e-10
8.02255e-11
-2.16203e-10
7.98506e-11
-2.429e-10
7.93371e-11
-2.69366e-10
7.86857e-11
-2.95554e-10
7.78981e-11
-3.21419e-10
7.69768e-11
-3.46917e-10
7.59251e-11
-3.72003e-10
7.47471e-11
-3.96638e-10
7.34478e-11
-4.20782e-10
7.20328e-11
-4.44399e-10
7.05081e-11
-4.67454e-10
6.88807e-11
-4.89916e-10
6.71576e-11
-5.11755e-10
6.53465e-11
-5.32946e-10
6.34553e-11
-5.53465e-10
6.14922e-11
-5.73291e-10
5.94655e-11
-5.92407e-10
5.73834e-11
-6.10799e-10
5.52545e-11
-6.28453e-10
5.3087e-11
-6.45362e-10
5.08891e-11
-6.61519e-10
4.86688e-11
-6.7692e-10
4.64337e-11
-6.91564e-10
4.41914e-11
-7.05452e-10
4.1949e-11
-7.18587e-10
3.97132e-11
-7.30975e-10
3.74905e-11
-7.42622e-10
3.52869e-11
-7.53539e-10
3.31078e-11
-7.63736e-10
3.09586e-11
-7.73225e-10
2.88438e-11
-7.82021e-10
2.67677e-11
-7.90138e-10
2.47343e-11
-7.97592e-10
2.27468e-11
-8.044e-10
2.08084e-11
-8.1058e-10
1.89217e-11
-8.16151e-10
1.70889e-11
-8.21131e-10
1.53118e-11
-8.25541e-10
1.3592e-11
-8.29399e-10
1.19306e-11
-8.32727e-10
1.03285e-11
-8.35543e-10
8.78631e-12
-8.3787e-10
7.30428e-12
-8.39726e-10
5.88249e-12
-8.41131e-10
4.52075e-12
-8.42107e-10
3.21867e-12
-8.42673e-10
1.97568e-12
-8.42847e-10
7.91013e-13
-8.4265e-10
-3.36216e-13
-8.421e-10
-1.40707e-12
-8.41215e-10
-2.42269e-12
-8.40014e-10
-3.38434e-12
-8.38514e-10
-4.29337e-12
-8.36731e-10
-5.15119e-12
-8.34683e-10
-5.95929e-12
-8.32385e-10
-6.7192e-12
-8.29852e-10
-7.43248e-12
-8.27101e-10
-8.10071e-12
-8.24144e-10
-8.7255e-12
-8.20996e-10
-9.30847e-12
-8.1767e-10
-9.85122e-12
-8.14179e-10
-1.03553e-11
-8.10534e-10
-1.08224e-11
-8.06749e-10
-1.1254e-11
-8.02833e-10
-1.16517e-11
-7.98798e-10
-1.2017e-11
-7.94654e-10
-1.23513e-11
-7.9041e-10
-1.2656e-11
-7.86075e-10
-1.29327e-11
-7.8166e-10
-1.31825e-11
-7.77171e-10
-1.34069e-11
-7.72617e-10
-1.3607e-11
-7.68006e-10
-1.37841e-11
-7.63344e-10
-1.39393e-11
-7.58638e-10
-1.40737e-11
-7.53896e-10
-1.41884e-11
-7.49123e-10
-1.42844e-11
-7.44325e-10
-1.43626e-11
-7.39507e-10
-1.44239e-11
-7.34675e-10
-1.44691e-11
-7.29834e-10
-1.4499e-11
-7.24988e-10
-1.45143e-11
-7.20143e-10
-1.45158e-11
-7.15302e-10
-1.4504e-11
-7.1047e-10
-1.44795e-11
-7.05651e-10
-1.44428e-11
-7.00848e-10
-1.43944e-11
-6.96066e-10
-1.43347e-11
-6.91307e-10
-1.4264e-11
-6.86576e-10
-1.41828e-11
-6.81876e-10
-1.40912e-11
-6.7721e-10
-1.39894e-11
-6.72582e-10
-1.38777e-11
-6.67994e-10
-1.37563e-11
-6.6345e-10
-1.36251e-11
-6.58953e-10
-1.34843e-11
-6.54506e-10
-1.3334e-11
-6.50113e-10
-1.31741e-11
-6.45776e-10
-1.30047e-11
-6.41499e-10
-1.28258e-11
-6.37285e-10
-1.26373e-11
-6.33138e-10
-1.24393e-11
-6.29059e-10
-1.22319e-11
-6.25053e-10
-1.2015e-11
-6.21122e-10
-1.17888e-11
-6.17271e-10
-1.15534e-11
-6.135e-10
-1.13091e-11
-6.09815e-10
-1.1056e-11
-6.06216e-10
-1.07947e-11
-6.02708e-10
-1.05256e-11
-5.99292e-10
-1.02493e-11
-5.9597e-10
-9.96642e-12
-5.92746e-10
-9.67788e-12
-5.89619e-10
-9.38461e-12
-5.86592e-10
-9.08774e-12
-5.83664e-10
-8.7885e-12
-5.80838e-10
-8.48828e-12
-5.78111e-10
-8.18867e-12
-5.75485e-10
-7.89133e-12
-5.72956e-10
-7.59819e-12
-5.70524e-10
-7.31129e-12
-5.68185e-10
-7.03289e-12
-5.65935e-10
-6.76544e-12
-5.63771e-10
-6.51164e-12
-5.61687e-10
-6.27443e-12
-5.59676e-10
-6.05707e-12
-5.5773e-10
-5.86311e-12
-5.55841e-10
-5.69651e-12
-5.53997e-10
-5.56167e-12
-5.52187e-10
-5.46349e-12
-5.50397e-10
-5.40745e-12
-5.48611e-10
-5.39973e-12
-5.4681e-10
-5.44727e-12
-5.44974e-10
-5.55793e-12
-5.43078e-10
-5.74058e-12
-5.41096e-10
-6.00531e-12
-5.38997e-10
-6.36355e-12
-5.36745e-10
-6.82828e-12
-5.343e-10
-7.41427e-12
-5.31616e-10
-8.13825e-12
-5.28643e-10
-9.01927e-12
-5.25319e-10
-1.00789e-11
-5.21578e-10
-1.13416e-11
-5.17344e-10
-1.2835e-11
-5.1253e-10
-1.45903e-11
-5.07036e-10
-1.66426e-11
-5.00752e-10
-1.90311e-11
-4.93551e-10
-2.17996e-11
-4.85291e-10
-2.49968e-11
-4.75811e-10
-2.86762e-11
-4.64932e-10
-3.28962e-11
-4.52452e-10
-3.77199e-11
-4.38148e-10
-4.32145e-11
-4.21772e-10
-4.94505e-11
-4.03052e-10
-5.64996e-11
-3.81693e-10
-6.44331e-11
-3.57376e-10
-7.33179e-11
-3.29761e-10
-8.32121e-11
-2.98494e-10
-9.41596e-11
-2.63212e-10
-1.06182e-10
-2.23555e-10
-1.19268e-10
-1.79179e-10
-1.33365e-10
-1.29775e-10
-1.48363e-10
-7.50922e-11
-1.64081e-10
-1.49703e-11
-1.80249e-10
5.06293e-11
-1.96493e-10
1.21581e-10
-2.12316e-10
1.97547e-10
-2.27074e-10
2.77926e-10
-2.39944e-10
3.61782e-10
-2.49859e-10
4.47763e-10
-2.55346e-10
5.34012e-10
-2.54101e-10
6.18352e-10
-2.41834e-10
-2.09535e-10
7.01004e-10
-2.74047e-11
1.07035e-10
-5.49498e-11
1.076e-10
-8.25889e-11
1.07993e-10
-1.10273e-10
1.08208e-10
-1.37954e-10
1.08241e-10
-1.6558e-10
1.08088e-10
-1.931e-10
1.07746e-10
-2.20464e-10
1.07215e-10
-2.47621e-10
1.06494e-10
-2.74521e-10
1.05586e-10
-3.01114e-10
1.04492e-10
-3.27354e-10
1.03216e-10
-3.53193e-10
1.01765e-10
-3.78589e-10
1.00142e-10
-4.03498e-10
9.83567e-11
-4.2788e-10
9.64157e-11
-4.517e-10
9.43281e-11
-4.74923e-10
9.21034e-11
-4.97517e-10
8.97518e-11
-5.19455e-10
8.72839e-11
-5.4071e-10
8.47106e-11
-5.61261e-10
8.20433e-11
-5.81089e-10
7.92933e-11
-6.00178e-10
7.64721e-11
-6.18514e-10
7.3591e-11
-6.36089e-10
7.06614e-11
-6.52894e-10
6.76943e-11
-6.68925e-10
6.47004e-11
-6.84182e-10
6.169e-11
-6.98664e-10
5.86732e-11
-7.12374e-10
5.56594e-11
-7.25318e-10
5.26576e-11
-7.37504e-10
4.96763e-11
-7.48941e-10
4.67232e-11
-7.59638e-10
4.38058e-11
-7.69611e-10
4.09307e-11
-7.78871e-10
3.8104e-11
-7.87435e-10
3.53314e-11
-7.95318e-10
3.26177e-11
-8.02538e-10
2.99673e-11
-8.09114e-10
2.73841e-11
-8.15064e-10
2.48715e-11
-8.20407e-10
2.24322e-11
-8.25164e-10
2.00685e-11
-8.29354e-10
1.77823e-11
-8.32999e-10
1.5575e-11
-8.36118e-10
1.34476e-11
-8.38732e-10
1.14008e-11
-8.40863e-10
9.43477e-12
-8.4253e-10
7.54953e-12
-8.43754e-10
5.74473e-12
-8.44555e-10
4.01972e-12
-8.44953e-10
2.37367e-12
-8.44967e-10
8.0546e-13
-8.44617e-10
-6.86156e-13
-8.43922e-10
-2.10265e-12
-8.42899e-10
-3.44561e-12
-8.41566e-10
-4.71679e-12
-8.39942e-10
-5.918e-12
-8.38042e-10
-7.05119e-12
-8.35883e-10
-8.11837e-12
-8.3348e-10
-9.12159e-12
-8.3085e-10
-1.0063e-11
-8.28006e-10
-1.09446e-11
-8.24963e-10
-1.17687e-11
-8.21734e-10
-1.25374e-11
-8.18332e-10
-1.32528e-11
-8.1477e-10
-1.39171e-11
-8.1106e-10
-1.45324e-11
-8.07214e-10
-1.51007e-11
-8.03241e-10
-1.56242e-11
-7.99153e-10
-1.61048e-11
-7.9496e-10
-1.65445e-11
-7.90671e-10
-1.69451e-11
-7.86295e-10
-1.73086e-11
-7.81841e-10
-1.76367e-11
-7.77317e-10
-1.79311e-11
-7.7273e-10
-1.81935e-11
-7.68089e-10
-1.84254e-11
-7.634e-10
-1.86285e-11
-7.58669e-10
-1.88042e-11
-7.53904e-10
-1.89538e-11
-7.4911e-10
-1.90786e-11
-7.44292e-10
-1.918e-11
-7.39457e-10
-1.92591e-11
-7.34609e-10
-1.93169e-11
-7.29754e-10
-1.93545e-11
-7.24895e-10
-1.93729e-11
-7.20038e-10
-1.9373e-11
-7.15186e-10
-1.93556e-11
-7.10344e-10
-1.93213e-11
-7.05516e-10
-1.9271e-11
-7.00705e-10
-1.92052e-11
-6.95916e-10
-1.91244e-11
-6.9115e-10
-1.90292e-11
-6.86413e-10
-1.892e-11
-6.81707e-10
-1.8797e-11
-6.77036e-10
-1.86606e-11
-6.72403e-10
-1.85111e-11
-6.6781e-10
-1.83486e-11
-6.63262e-10
-1.81732e-11
-6.58762e-10
-1.7985e-11
-6.54311e-10
-1.77842e-11
-6.49915e-10
-1.75707e-11
-6.45575e-10