/*--------------------------------*- C++ -*----------------------------------*\
  =========                 |
  \\      /  F ield         | OpenFOAM: The Open Source CFD Toolbox
   \\    /   O peration     | Website:  https://openfoam.org
    \\  /    A nd           | Version:  10
     \\/     M anipulation  |
\*---------------------------------------------------------------------------*/
FoamFile
{
    format      ascii;
    class       volVectorField;
    location    "24000";
    object      Ub;
}
// * * * * * * * * * * * * * * * * * * * * * * * * * * * * * * * * * * * * * //

dimensions      [0 1 -1 0 0 0 0];

internalField   nonuniform List<vector> 
3200
(
(-1.83069e-20 -9.87872e-16 0)
(-5.7499e-20 -9.87868e-16 0)
(-1.05682e-19 -9.87858e-16 0)
(-1.73231e-19 -9.87838e-16 0)
(-2.79467e-19 -9.87797e-16 0)
(-2.60647e-12 -9.87713e-16 0)
(-1.7375e-05 -3.58341e-09 0)
(-4.84661e-05 -6.09958e-05 0)
(-6.35799e-05 -9.05686e-06 0)
(-6.56613e-05 -4.06681e-06 0)
(-6.67888e-05 -2.34307e-06 0)
(-6.75554e-05 -1.51876e-06 0)
(-6.81265e-05 -1.05881e-06 0)
(-6.85743e-05 -7.76822e-07 0)
(-6.89375e-05 -5.92224e-07 0)
(-6.92393e-05 -4.65289e-07 0)
(-6.9495e-05 -3.74568e-07 0)
(-6.97148e-05 -3.07668e-07 0)
(-6.99061e-05 -2.5704e-07 0)
(-7.00744e-05 -2.17879e-07 0)
(-7.02237e-05 -1.87012e-07 0)
(-7.03573e-05 -1.62284e-07 0)
(-7.04774e-05 -1.42191e-07 0)
(-7.05863e-05 -1.25667e-07 0)
(-6.74713e-05 -7.22374e-06 0)
(-5.86257e-05 -1.29901e-05 0)
(-4.91993e-05 -8.7758e-06 0)
(-4.31358e-05 -5.57655e-06 0)
(-3.93885e-05 -3.55971e-06 0)
(-3.70482e-05 -2.34886e-06 0)
(-3.55231e-05 -1.6582e-06 0)
(-3.44356e-05 -1.31606e-06 0)
(-3.35285e-05 -1.23901e-06 0)
(-3.25962e-05 -1.41263e-06 0)
(-3.14301e-05 -1.8861e-06 0)
(-2.97689e-05 -2.78132e-06 0)
(-2.72394e-05 -4.31892e-06 0)
(-2.3275e-05 -6.86874e-06 0)
(-1.69908e-05 -1.10449e-05 0)
(-7.46691e-06 -1.6461e-05 0)
(-1.20934e-20 -9.87828e-16 0)
(-3.62366e-20 -9.87819e-16 0)
(-5.97397e-20 -9.878e-16 0)
(-7.93285e-20 -9.87763e-16 0)
(-8.36201e-20 -9.877e-16 0)
(-3.93475e-20 -9.87588e-16 0)
(1.22886e-19 -9.87346e-16 0)
(2.56399e-19 -9.54249e-16 0)
(2.4372e-19 -9.20209e-16 0)
(2.02627e-19 -8.89044e-16 0)
(1.7431e-19 -8.59723e-16 0)
(1.54285e-19 -8.31779e-16 0)
(1.39558e-19 -8.04952e-16 0)
(1.28372e-19 -7.79071e-16 0)
(1.1968e-19 -7.5402e-16 0)
(1.12837e-19 -7.29712e-16 0)
(1.07439e-19 -7.06081e-16 0)
(1.03238e-19 -6.83075e-16 0)
(1.00099e-19 -6.6065e-16 0)
(9.79814e-20 -6.38773e-16 0)
(9.69485e-20 -6.17412e-16 0)
(9.7195e-20 -5.96542e-16 0)
(9.91122e-20 -5.76141e-16 0)
(1.05749e-14 -1.14361e-11 0)
(1.56113e-08 -7.11209e-06 0)
(-4.55972e-06 -1.28893e-05 0)
(-1.29165e-05 -8.68335e-06 0)
(-1.90452e-05 -5.4909e-06 0)
(-2.28902e-05 -3.47979e-06 0)
(-2.53313e-05 -2.27381e-06 0)
(-2.69523e-05 -1.58736e-06 0)
(-2.81286e-05 -1.24887e-06 0)
(-2.91173e-05 -1.17499e-06 0)
(-3.01245e-05 -1.35143e-06 0)
(-3.1359e-05 -1.82742e-06 0)
(-3.30826e-05 -2.72496e-06 0)
(-3.56689e-05 -4.26476e-06 0)
(-3.96799e-05 -6.82926e-06 0)
(-4.21139e-05 -2.20333e-05 0)
(-2.17335e-05 -9.16656e-05 0)
(-5.51714e-21 -9.87803e-16 0)
(-1.54642e-20 -9.87795e-16 0)
(-2.18161e-20 -9.8778e-16 0)
(-2.07957e-20 -9.87756e-16 0)
(-6.47861e-21 -9.87723e-16 0)
(2.83776e-20 -9.87689e-16 0)
(8.45405e-20 -9.87672e-16 0)
(1.3228e-19 -9.87723e-16 0)
(1.48987e-19 -9.87774e-16 0)
(1.47667e-19 -9.87807e-16 0)
(1.40505e-19 -9.87829e-16 0)
(1.32121e-19 -9.87844e-16 0)
(1.24148e-19 -9.87855e-16 0)
(1.17081e-19 -9.87863e-16 0)
(1.11002e-19 -9.87869e-16 0)
(1.05848e-19 -9.87874e-16 0)
(1.01523e-19 -9.87878e-16 0)
(9.79265e-20 -9.87881e-16 0)
(9.49692e-20 -9.87885e-16 0)
(9.2562e-20 -9.87888e-16 0)
(9.06003e-20 -9.87891e-16 0)
(8.89257e-20 -9.87894e-16 0)
(8.72514e-20 -9.87899e-16 0)
(8.50154e-20 -9.87904e-16 0)
(8.01814e-20 -9.87914e-16 0)
(6.30766e-20 -9.8794e-16 0)
(5.09242e-20 -9.84507e-16 0)
(5.33321e-20 -9.78768e-16 0)
(5.49171e-20 -9.71848e-16 0)
(5.60671e-20 -9.6436e-16 0)
(5.7027e-20 -9.56629e-16 0)
(5.79765e-20 -9.48818e-16 0)
(5.90732e-20 -9.41002e-16 0)
(6.04851e-20 -9.33192e-16 0)
(6.24209e-20 -9.25355e-16 0)
(6.51687e-20 -9.17411e-16 0)
(6.91527e-20 -9.09239e-16 0)
(1.64119e-12 -1.25403e-08 0)
(6.51954e-09 -2.02151e-05 0)
(1.48058e-08 -0.000145843 0)
(-1.06135e-21 -9.87793e-16 0)
(-2.20525e-21 -9.87789e-16 0)
(-3.94037e-22 -9.8778e-16 0)
(6.41176e-21 -9.87768e-16 0)
(2.00578e-20 -9.87755e-16 0)
(4.11188e-20 -9.87745e-16 0)
(6.67942e-20 -9.87746e-16 0)
(8.94598e-20 -9.87763e-16 0)
(1.0342e-19 -9.87785e-16 0)
(1.09536e-19 -9.87805e-16 0)
(1.10682e-19 -9.87822e-16 0)
(1.09119e-19 -9.87835e-16 0)
(1.06261e-19 -9.87845e-16 0)
(1.02909e-19 -9.87854e-16 0)
(9.94909e-20 -9.87861e-16 0)
(9.62177e-20 -9.87867e-16 0)
(9.3181e-20 -9.87871e-16 0)
(9.04014e-20 -9.87876e-16 0)
(8.78547e-20 -9.87879e-16 0)
(8.54799e-20 -9.87883e-16 0)
(8.31778e-20 -9.87887e-16 0)
(8.0801e-20 -9.8789e-16 0)
(7.81406e-20 -9.87894e-16 0)
(7.49171e-20 -9.87897e-16 0)
(7.07976e-20 -9.87901e-16 0)
(6.56726e-20 -9.87903e-16 0)
(6.14287e-20 -9.879e-16 0)
(5.92096e-20 -9.87899e-16 0)
(5.80119e-20 -9.87898e-16 0)
(5.73472e-20 -9.87897e-16 0)
(5.69693e-20 -9.87897e-16 0)
(5.67432e-20 -9.87898e-16 0)
(5.65766e-20 -9.87898e-16 0)
(5.63752e-20 -9.879e-16 0)
(5.60031e-20 -9.87901e-16 0)
(5.52315e-20 -9.87903e-16 0)
(5.36598e-20 -9.87906e-16 0)
(5.60451e-20 -1.32551e-15 0)
(2.48011e-09 -1.79965e-05 0)
(1.54858e-08 -0.000138169 0)
(1.33799e-21 -9.87794e-16 0)
(4.61436e-21 -9.87791e-16 0)
(9.62725e-21 -9.87787e-16 0)
(1.72877e-20 -9.87782e-16 0)
(2.80295e-20 -9.87778e-16 0)
(4.14395e-20 -9.87776e-16 0)
(5.59425e-20 -9.87779e-16 0)
(6.90921e-20 -9.87788e-16 0)
(7.90326e-20 -9.87799e-16 0)
(8.54316e-20 -9.87811e-16 0)
(8.88826e-20 -9.87823e-16 0)
(9.02031e-20 -9.87833e-16 0)
(9.01128e-20 -9.87842e-16 0)
(8.91496e-20 -9.8785e-16 0)
(8.76813e-20 -9.87856e-16 0)
(8.59449e-20 -9.87862e-16 0)
(8.40824e-20 -9.87867e-16 0)
(8.21697e-20 -9.87871e-16 0)
(8.02356e-20 -9.87875e-16 0)
(7.82745e-20 -9.87879e-16 0)
(7.62554e-20 -9.87882e-16 0)
(7.41309e-20 -9.87885e-16 0)
(7.18492e-20 -9.87888e-16 0)
(6.9376e-20 -9.87891e-16 0)
(6.67327e-20 -9.87893e-16 0)
(6.40573e-20 -9.87894e-16 0)
(6.16536e-20 -9.87895e-16 0)
(5.97199e-20 -9.87895e-16 0)
(5.82084e-20 -9.87895e-16 0)
(5.70131e-20 -9.87895e-16 0)
(5.6029e-20 -9.87896e-16 0)
(5.51633e-20 -9.87896e-16 0)
(5.43333e-20 -9.87897e-16 0)
(5.34603e-20 -9.87898e-16 0)
(5.24653e-20 -9.87899e-16 0)
(5.12703e-20 -9.879e-16 0)
(4.98109e-20 -9.87901e-16 0)
(5.8899e-20 -1.53644e-15 0)
(2.25617e-09 -1.7176e-05 0)
(1.30978e-08 -0.000132166 0)
(2.40086e-21 -9.87799e-16 0)
(7.50024e-21 -9.87798e-16 0)
(1.34509e-20 -9.87797e-16 0)
(2.06296e-20 -9.87795e-16 0)
(2.90881e-20 -9.87794e-16 0)
(3.84675e-20 -9.87795e-16 0)
(4.80129e-20 -9.87799e-16 0)
(5.6786e-20 -9.87804e-16 0)
(6.40527e-20 -9.87811e-16 0)
(6.95232e-20 -9.87819e-16 0)
(7.32782e-20 -9.87827e-16 0)
(7.5588e-20 -9.87835e-16 0)
(7.67723e-20 -9.87842e-16 0)
(7.71249e-20 -9.87848e-16 0)
(7.68845e-20 -9.87854e-16 0)
(7.62306e-20 -9.87859e-16 0)
(7.52908e-20 -9.87864e-16 0)
(7.41501e-20 -9.87868e-16 0)
(7.28611e-20 -9.87872e-16 0)
(7.14529e-20 -9.87875e-16 0)
(6.99392e-20 -9.87878e-16 0)
(6.83268e-20 -9.87881e-16 0)
(6.66242e-20 -9.87884e-16 0)
(6.48511e-20 -9.87886e-16 0)
(6.3047e-20 -9.87888e-16 0)
(6.1275e-20 -9.87889e-16 0)
(5.96098e-20 -9.8789e-16 0)
(5.81024e-20 -9.87891e-16 0)
(5.67604e-20 -9.87892e-16 0)
(5.5563e-20 -9.87893e-16 0)
(5.44753e-20 -9.87893e-16 0)
(5.34582e-20 -9.87894e-16 0)
(5.2473e-20 -9.87895e-16 0)
(5.14849e-20 -9.87896e-16 0)
(5.04654e-20 -9.87896e-16 0)
(4.93969e-20 -9.87897e-16 0)
(4.82771e-20 -9.87897e-16 0)
(6.2313e-20 -1.70447e-15 0)
(2.04196e-09 -1.62371e-05 0)
(1.12651e-08 -0.000126219 0)
(2.73563e-21 -9.87806e-16 0)
(8.32373e-21 -9.87806e-16 0)
(1.42577e-20 -9.87806e-16 0)
(2.06816e-20 -9.87806e-16 0)
(2.7563e-20 -9.87807e-16 0)
(3.46833e-20 -9.87809e-16 0)
(4.16791e-20 -9.87812e-16 0)
(4.81415e-20 -9.87816e-16 0)
(5.37404e-20 -9.87821e-16 0)
(5.83023e-20 -9.87827e-16 0)
(6.1807e-20 -9.87832e-16 0)
(6.43398e-20 -9.87838e-16 0)
(6.60388e-20 -9.87844e-16 0)
(6.70549e-20 -9.87849e-16 0)
(6.75287e-20 -9.87854e-16 0)
(6.75803e-20 -9.87858e-16 0)
(6.73054e-20 -9.87863e-16 0)
(6.67778e-20 -9.87866e-16 0)
(6.60524e-20 -9.8787e-16 0)
(6.51697e-20 -9.87873e-16 0)
(6.41601e-20 -9.87876e-16 0)
(6.30491e-20 -9.87878e-16 0)
(6.18605e-20 -9.8788e-16 0)
(6.06201e-20 -9.87882e-16 0)
(5.93569e-20 -9.87884e-16 0)
(5.81019e-20 -9.87886e-16 0)
(5.68837e-20 -9.87887e-16 0)
(5.57224e-20 -9.87888e-16 0)
(5.46258e-20 -9.87889e-16 0)
(5.35914e-20 -9.8789e-16 0)
(5.26093e-20 -9.87891e-16 0)
(5.16663e-20 -9.87892e-16 0)
(5.0748e-20 -9.87892e-16 0)
(4.9842e-20 -9.87893e-16 0)
(4.8939e-20 -9.87894e-16 0)
(4.80344e-20 -9.87894e-16 0)
(4.71294e-20 -9.87895e-16 0)
(6.45492e-20 -1.8836e-15 0)
(1.83768e-09 -1.52987e-05 0)
(9.7327e-09 -0.000120332 0)
(2.71691e-21 -9.87814e-16 0)
(8.17384e-21 -9.87814e-16 0)
(1.37201e-20 -9.87815e-16 0)
(1.94e-20 -9.87816e-16 0)
(2.51707e-20 -9.87817e-16 0)
(3.0906e-20 -9.87819e-16 0)
(3.64231e-20 -9.87821e-16 0)
(4.15266e-20 -9.87825e-16 0)
(4.60553e-20 -9.87829e-16 0)
(4.99114e-20 -9.87833e-16 0)
(5.30656e-20 -9.87837e-16 0)
(5.55436e-20 -9.87842e-16 0)
(5.74066e-20 -9.87846e-16 0)
(5.87326e-20 -9.87851e-16 0)
(5.96031e-20 -9.87855e-16 0)
(6.00948e-20 -9.87859e-16 0)
(6.02752e-20 -9.87862e-16 0)
(6.02017e-20 -9.87865e-16 0)
(5.99216e-20 -9.87869e-16 0)
(5.94739e-20 -9.87871e-16 0)
(5.88913e-20 -9.87874e-16 0)
(5.82018e-20 -9.87876e-16 0)
(5.74305e-20 -9.87878e-16 0)
(5.66009e-20 -9.8788e-16 0)
(5.57348e-20 -9.87882e-16 0)
(5.48521e-20 -9.87883e-16 0)
(5.39693e-20 -9.87885e-16 0)
(5.30987e-20 -9.87886e-16 0)
(5.22476e-20 -9.87887e-16 0)
(5.14188e-20 -9.87888e-16 0)
(5.06115e-20 -9.87889e-16 0)
(4.98231e-20 -9.8789e-16 0)
(4.90497e-20 -9.8789e-16 0)
(4.8288e-20 -9.87891e-16 0)
(4.75354e-20 -9.87891e-16 0)
(4.67909e-20 -9.87892e-16 0)
(4.60551e-20 -9.87892e-16 0)
(6.81717e-20 -2.13618e-15 0)
(1.64963e-09 -1.43908e-05 0)
(8.38991e-09 -0.000114508 0)
(2.54618e-21 -9.87822e-16 0)
(7.61789e-21 -9.87822e-16 0)
(1.26595e-20 -9.87823e-16 0)
(1.76734e-20 -9.87824e-16 0)
(2.26211e-20 -9.87825e-16 0)
(2.74277e-20 -9.87827e-16 0)
(3.19955e-20 -9.87829e-16 0)
(3.62242e-20 -9.87832e-16 0)
(4.00299e-20 -9.87835e-16 0)
(4.33579e-20 -9.87839e-16 0)
(4.61866e-20 -9.87842e-16 0)
(4.85236e-20 -9.87846e-16 0)
(5.03979e-20 -9.87849e-16 0)
(5.18518e-20 -9.87853e-16 0)
(5.29337e-20 -9.87856e-16 0)
(5.36928e-20 -9.8786e-16 0)
(5.41756e-20 -9.87863e-16 0)
(5.44248e-20 -9.87865e-16 0)
(5.44778e-20 -9.87868e-16 0)
(5.43678e-20 -9.87871e-16 0)
(5.41235e-20 -9.87873e-16 0)
(5.37702e-20 -9.87875e-16 0)
(5.33306e-20 -9.87877e-16 0)
(5.28245e-20 -9.87879e-16 0)
(5.22697e-20 -9.8788e-16 0)
(5.16813e-20 -9.87882e-16 0)
(5.10721e-20 -9.87883e-16 0)
(5.04519e-20 -9.87884e-16 0)
(4.9828e-20 -9.87885e-16 0)
(4.92051e-20 -9.87886e-16 0)
(4.8586e-20 -9.87887e-16 0)
(4.79723e-20 -9.87888e-16 0)
(4.73646e-20 -9.87889e-16 0)
(4.67631e-20 -9.87889e-16 0)
(4.61681e-20 -9.8789e-16 0)
(4.55801e-20 -9.8789e-16 0)
(4.49999e-20 -9.87891e-16 0)
(7.34016e-20 -2.43677e-15 0)
(1.478e-09 -1.3518e-05 0)
(7.19974e-09 -0.000108751 0)
(2.32362e-21 -9.87829e-16 0)
(6.93234e-21 -9.87829e-16 0)
(1.14613e-20 -9.8783e-16 0)
(1.58961e-20 -9.87831e-16 0)
(2.02045e-20 -9.87832e-16 0)
(2.43392e-20 -9.87834e-16 0)
(2.82442e-20 -9.87836e-16 0)
(3.18644e-20 -9.87838e-16 0)
(3.51539e-20 -9.87841e-16 0)
(3.80817e-20 -9.87843e-16 0)
(4.06343e-20 -9.87846e-16 0)
(4.28142e-20 -9.87849e-16 0)
(4.46369e-20 -9.87852e-16 0)
(4.6127e-20 -9.87855e-16 0)
(4.73147e-20 -9.87858e-16 0)
(4.82322e-20 -9.87861e-16 0)
(4.89119e-20 -9.87863e-16 0)
(4.9385e-20 -9.87866e-16 0)
(4.96802e-20 -9.87868e-16 0)
(4.98239e-20 -9.8787e-16 0)
(4.98398e-20 -9.87873e-16 0)
(4.97492e-20 -9.87874e-16 0)
(4.95712e-20 -9.87876e-16 0)
(4.93224e-20 -9.87878e-16 0)
(4.90178e-20 -9.87879e-16 0)
(4.86699e-20 -9.87881e-16 0)
(4.82895e-20 -9.87882e-16 0)
(4.78855e-20 -9.87883e-16 0)
(4.74649e-20 -9.87884e-16 0)
(4.70332e-20 -9.87885e-16 0)
(4.65946e-20 -9.87886e-16 0)
(4.61523e-20 -9.87887e-16 0)
(4.57087e-20 -9.87887e-16 0)
(4.52658e-20 -9.87888e-16 0)
(4.48251e-20 -9.87888e-16 0)
(4.43881e-20 -9.87889e-16 0)
(4.39561e-20 -9.87889e-16 0)
(7.87435e-20 -2.7396e-15 0)
(1.32155e-09 -1.26788e-05 0)
(6.14824e-09 -0.000103062 0)
(2.09588e-21 -9.87835e-16 0)
(6.24384e-21 -9.87836e-16 0)
(1.0296e-20 -9.87836e-16 0)
(1.42325e-20 -9.87837e-16 0)
(1.80267e-20 -9.87838e-16 0)
(2.16463e-20 -9.8784e-16 0)
(2.5057e-20 -9.87841e-16 0)
(2.82263e-20 -9.87843e-16 0)
(3.11278e-20 -9.87846e-16 0)
(3.37437e-20 -9.87848e-16 0)
(3.60661e-20 -9.8785e-16 0)
(3.80963e-20 -9.87853e-16 0)
(3.98438e-20 -9.87855e-16 0)
(4.13243e-20 -9.87858e-16 0)
(4.25575e-20 -9.8786e-16 0)
(4.35654e-20 -9.87862e-16 0)
(4.43711e-20 -9.87865e-16 0)
(4.49972e-20 -9.87867e-16 0)
(4.54657e-20 -9.87869e-16 0)
(4.57971e-20 -9.87871e-16 0)
(4.60105e-20 -9.87873e-16 0)
(4.61231e-20 -9.87874e-16 0)
(4.61507e-20 -9.87876e-16 0)
(4.61073e-20 -9.87877e-16 0)
(4.60053e-20 -9.87879e-16 0)
(4.58556e-20 -9.8788e-16 0)
(4.56675e-20 -9.87881e-16 0)
(4.54491e-20 -9.87882e-16 0)
(4.52069e-20 -9.87883e-16 0)
(4.49467e-20 -9.87884e-16 0)
(4.4673e-20 -9.87885e-16 0)
(4.43897e-20 -9.87886e-16 0)
(4.40998e-20 -9.87886e-16 0)
(4.38062e-20 -9.87887e-16 0)
(4.3511e-20 -9.87887e-16 0)
(4.32162e-20 -9.87888e-16 0)
(4.29235e-20 -9.87888e-16 0)
(8.35785e-20 -3.02731e-15 0)
(1.17892e-09 -1.18709e-05 0)
(5.22519e-09 -9.74441e-05 0)
(1.88286e-21 -9.87841e-16 0)
(5.60526e-21 -9.87841e-16 0)
(9.23128e-21 -9.87842e-16 0)
(1.27405e-20 -9.87843e-16 0)
(1.61109e-20 -9.87844e-16 0)
(1.93192e-20 -9.87845e-16 0)
(2.23426e-20 -9.87846e-16 0)
(2.51609e-20 -9.87848e-16 0)
(2.77579e-20 -9.8785e-16 0)
(3.01232e-20 -9.87852e-16 0)
(3.22522e-20 -9.87854e-16 0)
(3.41463e-20 -9.87856e-16 0)
(3.58121e-20 -9.87858e-16 0)
(3.72602e-20 -9.8786e-16 0)
(3.85042e-20 -9.87862e-16 0)
(3.956e-20 -9.87864e-16 0)
(4.04441e-20 -9.87866e-16 0)
(4.11734e-20 -9.87868e-16 0)
(4.17647e-20 -9.8787e-16 0)
(4.22338e-20 -9.87872e-16 0)
(4.2596e-20 -9.87873e-16 0)
(4.28652e-20 -9.87875e-16 0)
(4.30542e-20 -9.87876e-16 0)
(4.31747e-20 -9.87877e-16 0)
(4.32371e-20 -9.87879e-16 0)
(4.32508e-20 -9.8788e-16 0)
(4.32239e-20 -9.87881e-16 0)
(4.31635e-20 -9.87882e-16 0)
(4.3076e-20 -9.87883e-16 0)
(4.29665e-20 -9.87884e-16 0)
(4.28397e-20 -9.87884e-16 0)
(4.26996e-20 -9.87885e-16 0)
(4.25494e-20 -9.87886e-16 0)
(4.23922e-20 -9.87886e-16 0)
(4.22305e-20 -9.87887e-16 0)
(4.20665e-20 -9.87887e-16 0)
(4.19021e-20 -9.87888e-16 0)
(8.77661e-20 -3.30064e-15 0)
(1.04889e-09 -1.10926e-05 0)
(4.41953e-09 -9.18995e-05 0)
(1.69156e-21 -9.87846e-16 0)
(5.03424e-21 -9.87846e-16 0)
(8.28651e-21 -9.87847e-16 0)
(1.14295e-20 -9.87848e-16 0)
(1.4445e-20 -9.87849e-16 0)
(1.73153e-20 -9.8785e-16 0)
(2.00245e-20 -9.87851e-16 0)
(2.2559e-20 -9.87852e-16 0)
(2.49086e-20 -9.87854e-16 0)
(2.70668e-20 -9.87856e-16 0)
(2.90311e-20 -9.87857e-16 0)
(3.08029e-20 -9.87859e-16 0)
(3.23873e-20 -9.87861e-16 0)
(3.37919e-20 -9.87863e-16 0)
(3.50267e-20 -9.87864e-16 0)
(3.61032e-20 -9.87866e-16 0)
(3.70338e-20 -9.87868e-16 0)
(3.78314e-20 -9.87869e-16 0)
(3.85087e-20 -9.87871e-16 0)
(3.90783e-20 -9.87872e-16 0)
(3.95522e-20 -9.87874e-16 0)
(3.99417e-20 -9.87875e-16 0)
(4.02571e-20 -9.87877e-16 0)
(4.05083e-20 -9.87878e-16 0)
(4.0704e-20 -9.87879e-16 0)
(4.08521e-20 -9.8788e-16 0)
(4.09597e-20 -9.87881e-16 0)
(4.10332e-20 -9.87882e-16 0)
(4.10782e-20 -9.87883e-16 0)
(4.10995e-20 -9.87883e-16 0)
(4.11016e-20 -9.87884e-16 0)
(4.10882e-20 -9.87885e-16 0)
(4.10626e-20 -9.87885e-16 0)
(4.10278e-20 -9.87886e-16 0)
(4.09862e-20 -9.87886e-16 0)
(4.09403e-20 -9.87887e-16 0)
(4.08919e-20 -9.87887e-16 0)
(9.14986e-20 -3.56514e-15 0)
(9.3041e-10 -1.03425e-05 0)
(3.71979e-09 -8.64308e-05 0)
(1.52305e-21 -9.87851e-16 0)
(4.53238e-21 -9.87851e-16 0)
(7.45956e-21 -9.87852e-16 0)
(1.0288e-20 -9.87852e-16 0)
(1.30026e-20 -9.87853e-16 0)
(1.55896e-20 -9.87854e-16 0)
(1.80373e-20 -9.87855e-16 0)
(2.03361e-20 -9.87856e-16 0)
(2.24791e-20 -9.87857e-16 0)
(2.44621e-20 -9.87859e-16 0)
(2.62838e-20 -9.8786e-16 0)
(2.79458e-20 -9.87862e-16 0)
(2.94519e-20 -9.87863e-16 0)
(3.08079e-20 -9.87865e-16 0)
(3.20215e-20 -9.87866e-16 0)
(3.31013e-20 -9.87868e-16 0)
(3.40568e-20 -9.87869e-16 0)
(3.48979e-20 -9.87871e-16 0)
(3.56346e-20 -9.87872e-16 0)
(3.62768e-20 -9.87874e-16 0)
(3.68341e-20 -9.87875e-16 0)
(3.73156e-20 -9.87876e-16 0)
(3.773e-20 -9.87877e-16 0)
(3.80852e-20 -9.87878e-16 0)
(3.83885e-20 -9.87879e-16 0)
(3.86469e-20 -9.8788e-16 0)
(3.88663e-20 -9.87881e-16 0)
(3.90524e-20 -9.87882e-16 0)
(3.92102e-20 -9.87883e-16 0)
(3.93439e-20 -9.87884e-16 0)
(3.94578e-20 -9.87884e-16 0)
(3.95552e-20 -9.87885e-16 0)
(3.96392e-20 -9.87886e-16 0)
(3.97128e-20 -9.87886e-16 0)
(3.97783e-20 -9.87887e-16 0)
(3.98378e-20 -9.87887e-16 0)
(3.98933e-20 -9.87887e-16 0)
(9.48433e-20 -3.82863e-15 0)
(8.22547e-10 -9.61924e-06 0)
(3.11412e-09 -8.10412e-05 0)
(1.37582e-21 -9.87855e-16 0)
(4.09444e-21 -9.87855e-16 0)
(6.7395e-21 -9.87856e-16 0)
(9.29685e-21 -9.87856e-16 0)
(1.17539e-20 -9.87857e-16 0)
(1.41e-20 -9.87858e-16 0)
(1.63259e-20 -9.87859e-16 0)
(1.84247e-20 -9.8786e-16 0)
(2.03914e-20 -9.87861e-16 0)
(2.22234e-20 -9.87862e-16 0)
(2.39201e-20 -9.87863e-16 0)
(2.54827e-20 -9.87865e-16 0)
(2.69144e-20 -9.87866e-16 0)
(2.822e-20 -9.87867e-16 0)
(2.94051e-20 -9.87869e-16 0)
(3.04767e-20 -9.8787e-16 0)
(3.14421e-20 -9.87871e-16 0)
(3.2309e-20 -9.87872e-16 0)
(3.30855e-20 -9.87874e-16 0)
(3.37794e-20 -9.87875e-16 0)
(3.43984e-20 -9.87876e-16 0)
(3.49499e-20 -9.87877e-16 0)
(3.54412e-20 -9.87878e-16 0)
(3.58788e-20 -9.87879e-16 0)
(3.62688e-20 -9.8788e-16 0)
(3.66172e-20 -9.87881e-16 0)
(3.69291e-20 -9.87882e-16 0)
(3.72094e-20 -9.87883e-16 0)
(3.74623e-20 -9.87883e-16 0)
(3.7692e-20 -9.87884e-16 0)
(3.7902e-20 -9.87885e-16 0)
(3.80954e-20 -9.87885e-16 0)
(3.82752e-20 -9.87886e-16 0)
(3.84439e-20 -9.87886e-16 0)
(3.86038e-20 -9.87887e-16 0)
(3.8757e-20 -9.87887e-16 0)
(3.89053e-20 -9.87888e-16 0)
(9.80669e-20 -4.09595e-15 0)
(7.24363e-10 -8.92076e-06 0)
(2.59143e-09 -7.57336e-05 0)
(1.24743e-21 -9.87859e-16 0)
(3.71276e-21 -9.87859e-16 0)
(6.11266e-21 -9.87859e-16 0)
(8.4352e-21 -9.8786e-16 0)
(1.06701e-20 -9.8786e-16 0)
(1.28085e-20 -9.87861e-16 0)
(1.48436e-20 -9.87862e-16 0)
(1.67699e-20 -9.87863e-16 0)
(1.85839e-20 -9.87864e-16 0)
(2.02837e-20 -9.87865e-16 0)
(2.1869e-20 -9.87866e-16 0)
(2.33411e-20 -9.87867e-16 0)
(2.47025e-20 -9.87868e-16 0)
(2.59571e-20 -9.87869e-16 0)
(2.71096e-20 -9.87871e-16 0)
(2.81651e-20 -9.87872e-16 0)
(2.91297e-20 -9.87873e-16 0)
(3.00096e-20 -9.87874e-16 0)
(3.08111e-20 -9.87875e-16 0)
(3.15407e-20 -9.87876e-16 0)
(3.22045e-20 -9.87877e-16 0)
(3.28088e-20 -9.87878e-16 0)
(3.33593e-20 -9.87879e-16 0)
(3.38617e-20 -9.8788e-16 0)
(3.43211e-20 -9.87881e-16 0)
(3.47425e-20 -9.87882e-16 0)
(3.51303e-20 -9.87883e-16 0)
(3.54888e-20 -9.87883e-16 0)
(3.58217e-20 -9.87884e-16 0)
(3.61325e-20 -9.87885e-16 0)
(3.64245e-20 -9.87885e-16 0)
(3.67004e-20 -9.87886e-16 0)
(3.69629e-20 -9.87886e-16 0)
(3.72143e-20 -9.87887e-16 0)
(3.74567e-20 -9.87887e-16 0)
(3.76921e-20 -9.87888e-16 0)
(3.79221e-20 -9.87888e-16 0)
(1.01078e-19 -4.36736e-15 0)
(6.3497e-10 -8.2453e-06 0)
(2.14211e-09 -7.05115e-05 0)
(1.13524e-21 -9.87862e-16 0)
(3.37934e-21 -9.87862e-16 0)
(5.56532e-21 -9.87863e-16 0)
(7.68327e-21 -9.87863e-16 0)
(9.7247e-21 -9.87864e-16 0)
(1.16826e-20 -9.87864e-16 0)
(1.35514e-20 -9.87865e-16 0)
(1.53269e-20 -9.87866e-16 0)
(1.70065e-20 -9.87867e-16 0)
(1.85889e-20 -9.87868e-16 0)
(2.00739e-20 -9.87869e-16 0)
(2.14629e-20 -9.8787e-16 0)
(2.27578e-20 -9.87871e-16 0)
(2.39619e-20 -9.87872e-16 0)
(2.50788e-20 -9.87873e-16 0)
(2.61129e-20 -9.87874e-16 0)
(2.7069e-20 -9.87875e-16 0)
(2.79522e-20 -9.87876e-16 0)
(2.87675e-20 -9.87877e-16 0)
(2.95203e-20 -9.87878e-16 0)
(3.02156e-20 -9.87879e-16 0)
(3.08586e-20 -9.8788e-16 0)
(3.14542e-20 -9.8788e-16 0)
(3.20069e-20 -9.87881e-16 0)
(3.25212e-20 -9.87882e-16 0)
(3.30013e-20 -9.87883e-16 0)
(3.34509e-20 -9.87884e-16 0)
(3.38738e-20 -9.87884e-16 0)
(3.42732e-20 -9.87885e-16 0)
(3.46521e-20 -9.87885e-16 0)
(3.50134e-20 -9.87886e-16 0)
(3.53595e-20 -9.87887e-16 0)
(3.56928e-20 -9.87887e-16 0)
(3.60155e-20 -9.87888e-16 0)
(3.63293e-20 -9.87888e-16 0)
(3.6636e-20 -9.87888e-16 0)
(3.6937e-20 -9.87889e-16 0)
(1.03926e-19 -4.65419e-15 0)
(5.53655e-10 -7.59177e-06 0)
(1.75732e-09 -6.53786e-05 0)
(1.03676e-21 -9.87865e-16 0)
(3.08665e-21 -9.87866e-16 0)
(5.0849e-21 -9.87866e-16 0)
(7.02331e-21 -9.87866e-16 0)
(8.89494e-21 -9.87867e-16 0)
(1.06941e-20 -9.87867e-16 0)
(1.24163e-20 -9.87868e-16 0)
(1.40585e-20 -9.87869e-16 0)
(1.56184e-20 -9.87869e-16 0)
(1.70952e-20 -9.8787e-16 0)
(1.8489e-20 -9.87871e-16 0)
(1.98009e-20 -9.87872e-16 0)
(2.10326e-20 -9.87873e-16 0)
(2.21867e-20 -9.87874e-16 0)
(2.32663e-20 -9.87875e-16 0)
(2.42751e-20 -9.87876e-16 0)
(2.52169e-20 -9.87876e-16 0)
(2.60958e-20 -9.87877e-16 0)
(2.69162e-20 -9.87878e-16 0)
(2.76823e-20 -9.87879e-16 0)
(2.83984e-20 -9.8788e-16 0)
(2.90688e-20 -9.87881e-16 0)
(2.96976e-20 -9.87882e-16 0)
(3.02886e-20 -9.87882e-16 0)
(3.08456e-20 -9.87883e-16 0)
(3.13722e-20 -9.87884e-16 0)
(3.18715e-20 -9.87885e-16 0)
(3.23468e-20 -9.87885e-16 0)
(3.28009e-20 -9.87886e-16 0)
(3.32363e-20 -9.87886e-16 0)
(3.36556e-20 -9.87887e-16 0)
(3.4061e-20 -9.87888e-16 0)
(3.44545e-20 -9.87888e-16 0)
(3.48379e-20 -9.87889e-16 0)
(3.5213e-20 -9.87889e-16 0)
(3.55812e-20 -9.87889e-16 0)
(3.5944e-20 -9.8789e-16 0)
(1.06933e-19 -4.99105e-15 0)
(4.79817e-10 -6.95936e-06 0)
(1.42901e-09 -6.03386e-05 0)
(9.49735e-22 -9.87868e-16 0)
(2.82803e-21 -9.87868e-16 0)
(4.66033e-21 -9.87869e-16 0)
(6.43992e-21 -9.87869e-16 0)
(8.16113e-21 -9.87869e-16 0)
(9.81938e-21 -9.8787e-16 0)
(1.14111e-20 -9.8787e-16 0)
(1.29338e-20 -9.87871e-16 0)
(1.43859e-20 -9.87872e-16 0)
(1.57668e-20 -9.87872e-16 0)
(1.70766e-20 -9.87873e-16 0)
(1.83163e-20 -9.87874e-16 0)
(1.94875e-20 -9.87875e-16 0)
(2.05923e-20 -9.87876e-16 0)
(2.16334e-20 -9.87876e-16 0)
(2.26137e-20 -9.87877e-16 0)
(2.35365e-20 -9.87878e-16 0)
(2.44052e-20 -9.87879e-16 0)
(2.52235e-20 -9.8788e-16 0)
(2.59949e-20 -9.87881e-16 0)
(2.6723e-20 -9.87881e-16 0)
(2.74114e-20 -9.87882e-16 0)
(2.80635e-20 -9.87883e-16 0)
(2.86826e-20 -9.87884e-16 0)
(2.9272e-20 -9.87884e-16 0)
(2.98345e-20 -9.87885e-16 0)
(3.03731e-20 -9.87886e-16 0)
(3.08904e-20 -9.87886e-16 0)
(3.13888e-20 -9.87887e-16 0)
(3.18706e-20 -9.87888e-16 0)
(3.23379e-20 -9.87888e-16 0)
(3.27926e-20 -9.87889e-16 0)
(3.32365e-20 -9.87889e-16 0)
(3.36712e-20 -9.8789e-16 0)
(3.40981e-20 -9.8789e-16 0)
(3.45187e-20 -9.8789e-16 0)
(3.4934e-20 -9.87891e-16 0)
(1.10933e-19 -5.33449e-15 0)
(4.12912e-10 -6.34779e-06 0)
(1.15038e-09 -5.5396e-05 0)
(8.72243e-22 -9.87871e-16 0)
(2.59769e-21 -9.87871e-16 0)
(4.28208e-21 -9.87871e-16 0)
(5.91993e-21 -9.87872e-16 0)
(7.50664e-21 -9.87872e-16 0)
(9.03853e-21 -9.87872e-16 0)
(1.05128e-20 -9.87873e-16 0)
(1.19274e-20 -9.87873e-16 0)
(1.32812e-20 -9.87874e-16 0)
(1.45738e-20 -9.87875e-16 0)
(1.58054e-20 -9.87875e-16 0)
(1.69769e-20 -9.87876e-16 0)
(1.80898e-20 -9.87877e-16 0)
(1.91458e-20 -9.87878e-16 0)
(2.01472e-20 -9.87878e-16 0)
(2.10965e-20 -9.87879e-16 0)
(2.19965e-20 -9.8788e-16 0)
(2.28501e-20 -9.87881e-16 0)
(2.36603e-20 -9.87881e-16 0)
(2.44302e-20 -9.87882e-16 0)
(2.51628e-20 -9.87883e-16 0)
(2.58611e-20 -9.87884e-16 0)
(2.65281e-20 -9.87884e-16 0)
(2.71666e-20 -9.87885e-16 0)
(2.77793e-20 -9.87886e-16 0)
(2.83687e-20 -9.87886e-16 0)
(2.89373e-20 -9.87887e-16 0)
(2.94874e-20 -9.87888e-16 0)
(3.0021e-20 -9.87888e-16 0)
(3.05401e-20 -9.87889e-16 0)
(3.10465e-20 -9.87889e-16 0)
(3.15418e-20 -9.8789e-16 0)
(3.20275e-20 -9.8789e-16 0)
(3.2505e-20 -9.87891e-16 0)
(3.29754e-20 -9.87891e-16 0)
(3.34399e-20 -9.87892e-16 0)
(3.38995e-20 -9.87892e-16 0)
(1.13372e-19 -5.69178e-15 0)
(3.52526e-10 -5.75753e-06 0)
(9.15183e-10 -5.05556e-05 0)
(8.02627e-22 -9.87873e-16 0)
(2.39072e-21 -9.87873e-16 0)
(3.94206e-21 -9.87874e-16 0)
(5.45221e-21 -9.87874e-16 0)
(6.91745e-21 -9.87874e-16 0)
(8.33483e-21 -9.87875e-16 0)
(9.70212e-21 -9.87875e-16 0)
(1.10178e-20 -9.87876e-16 0)
(1.2281e-20 -9.87876e-16 0)
(1.34914e-20 -9.87877e-16 0)
(1.46495e-20 -9.87877e-16 0)
(1.5756e-20 -9.87878e-16 0)
(1.68121e-20 -9.87879e-16 0)
(1.78195e-20 -9.87879e-16 0)
(1.87801e-20 -9.8788e-16 0)
(1.96962e-20 -9.87881e-16 0)
(2.057e-20 -9.87882e-16 0)
(2.14041e-20 -9.87882e-16 0)
(2.2201e-20 -9.87883e-16 0)
(2.29635e-20 -9.87884e-16 0)
(2.3694e-20 -9.87884e-16 0)
(2.43952e-20 -9.87885e-16 0)
(2.50697e-20 -9.87886e-16 0)
(2.57198e-20 -9.87886e-16 0)
(2.63479e-20 -9.87887e-16 0)
(2.69562e-20 -9.87888e-16 0)
(2.75468e-20 -9.87888e-16 0)
(2.81215e-20 -9.87889e-16 0)
(2.86823e-20 -9.87889e-16 0)
(2.92308e-20 -9.8789e-16 0)
(2.97684e-20 -9.87891e-16 0)
(3.02966e-20 -9.87891e-16 0)
(3.08165e-20 -9.87892e-16 0)
(3.13293e-20 -9.87892e-16 0)
(3.18359e-20 -9.87892e-16 0)
(3.23371e-20 -9.87893e-16 0)
(3.28335e-20 -9.87893e-16 0)
(1.1689e-19 -6.06872e-15 0)
(2.98282e-10 -5.18931e-06 0)
(7.17766e-10 -4.58224e-05 0)
(7.39492e-22 -9.87876e-16 0)
(2.20297e-21 -9.87876e-16 0)
(3.63348e-21 -9.87876e-16 0)
(5.02742e-21 -9.87876e-16 0)
(6.38183e-21 -9.87876e-16 0)
(7.69435e-21 -9.87877e-16 0)
(8.96324e-21 -9.87877e-16 0)
(1.01873e-20 -9.87878e-16 0)
(1.1366e-20 -9.87878e-16 0)
(1.24992e-20 -9.87879e-16 0)
(1.35873e-20 -9.87879e-16 0)
(1.4631e-20 -9.8788e-16 0)
(1.56315e-20 -9.8788e-16 0)
(1.65902e-20 -9.87881e-16 0)
(1.75088e-20 -9.87882e-16 0)
(1.83894e-20 -9.87882e-16 0)
(1.92338e-20 -9.87883e-16 0)
(2.00444e-20 -9.87884e-16 0)
(2.08234e-20 -9.87885e-16 0)
(2.1573e-20 -9.87885e-16 0)
(2.22956e-20 -9.87886e-16 0)
(2.29933e-20 -9.87887e-16 0)
(2.36686e-20 -9.87887e-16 0)
(2.43233e-20 -9.87888e-16 0)
(2.49597e-20 -9.87888e-16 0)
(2.55795e-20 -9.87889e-16 0)
(2.61847e-20 -9.8789e-16 0)
(2.67768e-20 -9.8789e-16 0)
(2.73575e-20 -9.87891e-16 0)
(2.79282e-20 -9.87891e-16 0)
(2.84901e-20 -9.87892e-16 0)
(2.90444e-20 -9.87892e-16 0)
(2.95922e-20 -9.87893e-16 0)
(3.01343e-20 -9.87893e-16 0)
(3.06715e-20 -9.87894e-16 0)
(3.12045e-20 -9.87894e-16 0)
(3.1734e-20 -9.87895e-16 0)
(1.19028e-19 -6.45775e-15 0)
(2.49798e-10 -4.64235e-06 0)
(5.52652e-10 -4.12024e-05 0)
(6.81673e-22 -9.87878e-16 0)
(2.03098e-21 -9.87878e-16 0)
(3.35064e-21 -9.87878e-16 0)
(4.63778e-21 -9.87878e-16 0)
(5.89001e-21 -9.87878e-16 0)
(7.10548e-21 -9.87879e-16 0)
(8.28285e-21 -9.87879e-16 0)
(9.42125e-21 -9.8788e-16 0)
(1.05203e-20 -9.8788e-16 0)
(1.158e-20 -9.8788e-16 0)
(1.26007e-20 -9.87881e-16 0)
(1.35832e-20 -9.87882e-16 0)
(1.45286e-20 -9.87882e-16 0)
(1.54382e-20 -9.87883e-16 0)
(1.63135e-20 -9.87883e-16 0)
(1.71562e-20 -9.87884e-16 0)
(1.79682e-20 -9.87885e-16 0)
(1.87515e-20 -9.87885e-16 0)
(1.95079e-20 -9.87886e-16 0)
(2.02396e-20 -9.87887e-16 0)
(2.09487e-20 -9.87887e-16 0)
(2.16371e-20 -9.87888e-16 0)
(2.23067e-20 -9.87889e-16 0)
(2.29596e-20 -9.87889e-16 0)
(2.35974e-20 -9.8789e-16 0)
(2.4222e-20 -9.8789e-16 0)
(2.4835e-20 -9.87891e-16 0)
(2.54377e-20 -9.87892e-16 0)
(2.60316e-20 -9.87892e-16 0)
(2.66179e-20 -9.87893e-16 0)
(2.71978e-20 -9.87893e-16 0)
(2.7772e-20 -9.87894e-16 0)
(2.83417e-20 -9.87894e-16 0)
(2.89074e-20 -9.87895e-16 0)
(2.94698e-20 -9.87895e-16 0)
(3.00296e-20 -9.87896e-16 0)
(3.05874e-20 -9.87896e-16 0)
(1.2178e-19 -6.80382e-15 0)
(2.0656e-10 -4.1153e-06 0)
(4.16894e-10 -3.6702e-05 0)
(6.28201e-22 -9.8788e-16 0)
(1.87188e-21 -9.8788e-16 0)
(3.08885e-21 -9.8788e-16 0)
(4.27681e-21 -9.8788e-16 0)
(5.43389e-21 -9.8788e-16 0)
(6.55862e-21 -9.87881e-16 0)
(7.64997e-21 -9.87881e-16 0)
(8.70734e-21 -9.87881e-16 0)
(9.73046e-21 -9.87882e-16 0)
(1.07195e-20 -9.87882e-16 0)
(1.16748e-20 -9.87883e-16 0)
(1.25971e-20 -9.87883e-16 0)
(1.34875e-20 -9.87884e-16 0)
(1.43472e-20 -9.87884e-16 0)
(1.51775e-20 -9.87885e-16 0)
(1.598e-20 -9.87886e-16 0)
(1.67564e-20 -9.87886e-16 0)
(1.75084e-20 -9.87887e-16 0)
(1.82379e-20 -9.87887e-16 0)
(1.89468e-20 -9.87888e-16 0)
(1.96368e-20 -9.87889e-16 0)
(2.03099e-20 -9.87889e-16 0)
(2.09678e-20 -9.8789e-16 0)
(2.16124e-20 -9.87891e-16 0)
(2.22452e-20 -9.87891e-16 0)
(2.28679e-20 -9.87892e-16 0)
(2.34819e-20 -9.87892e-16 0)
(2.40887e-20 -9.87893e-16 0)
(2.46893e-20 -9.87894e-16 0)
(2.5285e-20 -9.87894e-16 0)
(2.58767e-20 -9.87895e-16 0)
(2.64651e-20 -9.87895e-16 0)
(2.7051e-20 -9.87896e-16 0)
(2.76348e-20 -9.87896e-16 0)
(2.82168e-20 -9.87897e-16 0)
(2.87973e-20 -9.87897e-16 0)
(2.93761e-20 -9.87898e-16 0)
(1.21268e-19 -7.01614e-15 0)
(1.68279e-10 -3.60998e-06 0)
(3.0697e-10 -3.23288e-05 0)
(5.78278e-22 -9.87881e-16 0)
(1.72329e-21 -9.87881e-16 0)
(2.84422e-21 -9.87881e-16 0)
(3.93922e-21 -9.87882e-16 0)
(5.00682e-21 -9.87882e-16 0)
(6.04587e-21 -9.87882e-16 0)
(7.0556e-21 -9.87883e-16 0)
(8.03557e-21 -9.87883e-16 0)
(8.98567e-21 -9.87883e-16 0)
(9.90608e-21 -9.87884e-16 0)
(1.07973e-20 -9.87884e-16 0)
(1.16599e-20 -9.87885e-16 0)
(1.2495e-20 -9.87885e-16 0)
(1.33036e-20 -9.87886e-16 0)
(1.4087e-20 -9.87886e-16 0)
(1.48467e-20 -9.87887e-16 0)
(1.55842e-20 -9.87888e-16 0)
(1.63011e-20 -9.87888e-16 0)
(1.69991e-20 -9.87889e-16 0)
(1.768e-20 -9.87889e-16 0)
(1.83455e-20 -9.8789e-16 0)
(1.89973e-20 -9.87891e-16 0)
(1.96372e-20 -9.87891e-16 0)
(2.02669e-20 -9.87892e-16 0)
(2.08879e-20 -9.87893e-16 0)
(2.15018e-20 -9.87893e-16 0)
(2.21101e-20 -9.87894e-16 0)
(2.27141e-20 -9.87894e-16 0)
(2.3315e-20 -9.87895e-16 0)
(2.39139e-20 -9.87896e-16 0)
(2.45116e-20 -9.87896e-16 0)
(2.51089e-20 -9.87897e-16 0)
(2.57063e-20 -9.87897e-16 0)
(2.63042e-20 -9.87898e-16 0)
(2.69027e-20 -9.87898e-16 0)
(2.75018e-20 -9.87899e-16 0)
(2.8101e-20 -9.87899e-16 0)
(1.18603e-19 -7.03771e-15 0)
(1.34785e-10 -3.12712e-06 0)
(2.18712e-10 -2.80912e-05 0)
(5.31255e-22 -9.87883e-16 0)
(1.5833e-21 -9.87883e-16 0)
(2.6136e-21 -9.87883e-16 0)
(3.62069e-21 -9.87883e-16 0)
(4.60339e-21 -9.87883e-16 0)
(5.56083e-21 -9.87884e-16 0)
(6.49242e-21 -9.87884e-16 0)
(7.39786e-21 -9.87884e-16 0)
(8.27712e-21 -9.87885e-16 0)
(9.13043e-21 -9.87885e-16 0)
(9.95825e-21 -9.87886e-16 0)
(1.07613e-20 -9.87886e-16 0)
(1.15403e-20 -9.87887e-16 0)
(1.22965e-20 -9.87887e-16 0)
(1.30309e-20 -9.87888e-16 0)
(1.3745e-20 -9.87888e-16 0)