/*--------------------------------*- C++ -*----------------------------------*\
  =========                 |
  \\      /  F ield         | OpenFOAM: The Open Source CFD Toolbox
   \\    /   O peration     | Website:  https://openfoam.org
    \\  /    A nd           | Version:  10
     \\/     M anipulation  |
\*---------------------------------------------------------------------------*/
FoamFile
{
    format      ascii;
    class       volScalarField;
    location    "0.073";
    object      p;
}
// * * * * * * * * * * * * * * * * * * * * * * * * * * * * * * * * * * * * * //

dimensions      [0 2 -2 0 0 0 0];

internalField   nonuniform List<scalar> 
4000
(
17.4517
17.451
17.4496
17.4473
17.4442
17.4403
17.4358
17.4306
17.4246
17.4179
17.4104
17.4022
17.3933
17.3835
17.373
17.3616
17.3494
17.3364
17.3225
17.3077
17.292
17.2754
17.2578
17.2393
17.2197
17.1991
17.1773
17.1545
17.1304
17.1052
17.0787
17.0508
17.0215
16.9908
16.9586
16.9248
16.8894
16.8522
16.8133
16.7724
16.7296
16.6847
16.6376
16.5883
16.5366
16.4824
16.4256
16.3661
16.3038
16.2384
16.17
16.0983
16.0232
15.9446
15.8623
15.7761
15.686
15.5917
15.493
15.3899
15.2822
15.1696
15.0521
14.9295
14.8016
14.6684
14.5296
14.3853
14.2352
14.0793
13.9177
13.7502
13.5769
13.3978
13.213
13.0228
12.8271
12.6263
12.4206
12.2103
11.9958
11.7775
11.5559
11.3314
11.1045
10.8758
10.6458
10.4153
10.1845
9.95439
9.72524
9.49779
9.27245
9.04985
8.83036
8.61453
8.40266
8.19525
7.99248
7.79478
7.60225
7.41524
7.23375
7.05807
6.8881
6.7241
6.56587
6.41361
6.26705
6.12639
5.99126
5.86186
5.73775
5.61912
5.5055
5.39708
5.29332
5.19445
5.09987
5.00985
4.92375
4.84187
4.76351
4.68905
4.61771
4.54994
4.48493
4.42317
4.3638
4.30739
4.25302
4.20134
4.15137
4.10384
4.05769
4.01375
3.97089
3.93001
3.88994
3.85163
3.81386
3.77765
3.74171
3.70715
3.6726
3.63924
3.60566
3.57309
3.54007
3.50788
3.47504
3.44286
3.40984
3.37731
3.34376
3.31055
3.27617
3.24199
3.20649
3.17105
3.13415
3.0972
3.05864
3.01994
2.97946
2.93873
2.89604
2.85301
2.80778
2.76211
2.71396
2.66523
2.61369
2.56139
2.50589
2.44944
2.38933
2.32802
2.26257
2.19564
2.12407
2.05072
1.97225
1.89168
1.80554
1.71703
1.62259
1.52564
1.42258
1.31706
1.2055
1.09177
0.972161
0.850804
0.723424
0.594797
0.459642
0.324811
0.182396
0.0722461
17.4546
17.454
17.4525
17.4502
17.4471
17.4433
17.4388
17.4336
17.4276
17.4209
17.4135
17.4053
17.3964
17.3867
17.3762
17.3649
17.3528
17.3398
17.326
17.3113
17.2957
17.2791
17.2617
17.2432
17.2238
17.2033
17.1817
17.159
17.1352
17.1101
17.0837
17.0561
17.027
16.9966
16.9646
16.9311
16.8959
16.859
16.8204
16.7798
16.7373
16.6927
16.646
16.5971
16.5457
16.4919
16.4355
16.3764
16.3145
16.2496
16.1816
16.1103
16.0357
15.9575
15.8757
15.79
15.7002
15.6064
15.5081
15.4054
15.2981
15.1858
15.0686
14.9463
14.8186
14.6855
14.5468
14.4024
14.2522
14.0961
13.9341
13.7661
13.5922
13.4123
13.2266
13.0352
12.8383
12.6361
12.4288
12.2168
12.0004
11.7802
11.5564
11.3298
11.1007
10.8697
10.6375
10.4047
10.1719
9.93964
9.70853
9.47922
9.25219
9.02802
8.80715
8.5901
8.37719
8.16888
7.96541
7.76714
7.57422
7.38694
7.20535
7.02967
6.85986
6.69609
6.53824
6.38643
6.24045
6.1004
5.966
5.83733
5.71405
5.59624
5.48351
5.37593
5.27307
5.17503
5.08135
4.99213
4.90688
4.82576
4.74822
4.67447
4.60392
4.53682
4.47256
4.41144
4.3528
4.29699
4.24333
4.19222
4.14293
4.09593
4.05044
4.00699
3.96476
3.92434
3.88486
3.84697
3.80975
3.77393
3.73852
3.70431
3.67028
3.63725
3.60417
3.57191
3.53938
3.50747
3.47511
3.44318
3.4106
3.3783
3.34517
3.31214
3.27815
3.24411
3.20895
3.17362
3.13705
3.10018
3.06195
3.02332
2.98319
2.94256
2.90028
2.8574
2.81268
2.76723
2.7197
2.67128
2.62048
2.5686
2.51395
2.45798
2.39882
2.33802
2.27356
2.20713
2.13654
2.0636
1.98602
1.9057
1.82028
1.73178
1.6378
1.54053
1.4376
1.33138
1.21958
1.10475
0.984521
0.861659
0.733333
0.602832
0.466485
0.329767
0.185661
0.0728472
17.4605
17.4599
17.4584
17.4561
17.4531
17.4493
17.4448
17.4396
17.4336
17.427
17.4196
17.4115
17.4026
17.393
17.3826
17.3714
17.3594
17.3466
17.3329
17.3184
17.3029
17.2866
17.2694
17.2511
17.2319
17.2117
17.1905
17.1681
17.1446
17.1198
17.0939
17.0666
17.038
17.008
16.9765
16.9435
16.9089
16.8725
16.8345
16.7945
16.7527
16.7088
16.6627
16.6145
16.5639
16.5108
16.4552
16.3969
16.3358
16.2718
16.2046
16.1343
16.0605
15.9833
15.9023
15.8175
15.7287
15.6357
15.5384
15.4365
15.3299
15.2184
15.1018
14.98
14.8527
14.7199
14.5814
14.437
14.2866
14.13
13.9673
13.7984
13.6232
13.4419
13.2543
13.0607
12.8613
12.6561
12.4457
12.2301
12.01
11.7857
11.5577
11.3266
11.0929
10.8574
10.6206
10.3833
10.146
9.90955
9.67442
9.44134
9.21082
8.9835
8.75981
8.5403
8.3253
8.11525
7.91041
7.71111
7.51748
7.3298
7.14809
6.97255
6.80312
6.63994
6.48287
6.332
6.18712
6.0483
5.91526
5.78804
5.66632
5.55012
5.43906
5.33319
5.23208
5.1358
5.04387
4.95639
4.87287
4.79344
4.71755
4.64541
4.57643
4.51086
4.44808
4.38838
4.33114
4.27667
4.22432
4.17447
4.12641
4.08059
4.03626
3.99392
3.95278
3.91339
3.87493
3.83801
3.80175
3.76683
3.73231
3.69894
3.66574
3.63349
3.60119
3.56965
3.53785
3.50664
3.47496
3.44368
3.41177
3.38007
3.34756
3.31511
3.28169
3.24817
3.21355
3.1787
3.14262
3.1062
3.06845
3.03026
2.99062
2.95047
2.90875
2.86644
2.82239
2.77765
2.73095
2.68343
2.63366
2.58288
2.52948
2.47479
2.41705
2.35769
2.29477
2.22983
2.16076
2.08924
2.01302
1.93387
1.84948
1.7617
1.66824
1.57106
1.46795
1.36105
1.24825
1.1319
1.00983
0.884609
0.753628
0.619989
0.480253
0.339807
0.191567
0.0749987
17.4693
17.4687
17.4672
17.465
17.4619
17.4581
17.4537
17.4485
17.4426
17.436
17.4287
17.4207
17.412
17.4025
17.3922
17.3811
17.3693
17.3567
17.3432
17.3289
17.3137
17.2977
17.2808
17.2629
17.2441
17.2243
17.2034
17.1815
17.1585
17.1344
17.109
17.0823
17.0544
17.0251
16.9943
16.962
16.9282
16.8927
16.8555
16.8165
16.7756
16.7327
16.6877
16.6405
16.5911
16.5392
16.4848
16.4277
16.3679
16.3051
16.2393
16.1703
16.0979
16.022
15.9424
15.859
15.7716
15.68
15.5839
15.4833
15.3779
15.2676
15.152
15.0311
14.9046
14.7723
14.6341
14.4898
14.3391
14.1821
14.0184
13.8482
13.6712
13.4875
13.2972
13.1003
12.897
12.6875
12.472
12.2511
12.025
11.7944
11.5598
11.3217
11.081
10.8383
10.5944
10.3501
10.106
9.86292
9.6216
9.38273
9.14689
8.91475
8.68677
8.46351
8.24533
8.03267
7.82576
7.62495
7.43034
7.24216
7.06043
6.88527
6.71661
6.55452
6.39884
6.2496
6.10656
5.96976
5.83888
5.71395
5.5946
5.48087
5.37235
5.26906
5.17056
5.07691
4.98762
4.90276
4.82184
4.74496
4.67158
4.60188
4.53529
4.47201
4.41146
4.35392
4.29874
4.24627
4.19585
4.14785
4.10159
4.0575
4.01484
3.97413
3.93457
3.89673
3.85978
3.82434
3.78952
3.75601
3.72288
3.69086
3.65897
3.628
3.59693
3.56657
3.53591
3.50579
3.47515
3.44486
3.41388
3.38308
3.35143
3.31978
3.28713
3.25434
3.22044
3.18625
3.15084
3.11505
3.07796
3.04041
3.00148
2.96204
2.92114
2.87968
2.83662
2.79296
2.7475
2.70133
2.65309
2.60397
2.55241
2.4997
2.44407
2.38695
2.32632
2.26374
2.19702
2.12778
2.05371
1.97651
1.89378
1.80732
1.71472
1.61789
1.51456
1.40679
1.29248
1.17389
1.04893
0.920098
0.784911
0.646406
0.501291
0.355028
0.200454
0.0782089
17.481
17.4804
17.479
17.4767
17.4737
17.4699
17.4655
17.4604
17.4546
17.448
17.4408
17.4329
17.4243
17.4149
17.4048
17.394
17.3824
17.37
17.3568
17.3428
17.328
17.3123
17.2958
17.2784
17.2601
17.2408
17.2206
17.1993
17.1769
17.1535
17.1289
17.103
17.0759
17.0475
17.0177
16.9865
16.9537
16.9193
16.8833
16.8455
16.8059
16.7643
16.7207
16.675
16.627
16.5767
16.5238
16.4684
16.4103
16.3493
16.2852
16.218
16.1475
16.0735
15.9959
15.9144
15.8288
15.7391
15.6449
15.5461
15.4424
15.3337
15.2197
15.1001
14.9748
14.8434
14.7058
14.5618
14.411
14.2534
14.0887
13.9168
13.7375
13.5509
13.3569
13.1556
12.947
12.7315
12.5093
12.2808
12.0465
11.8071
11.563
11.3153
11.0645
10.8117
10.5577
10.3034
10.0497
9.79751
9.54761
9.30081
9.05776
8.81915
8.58548
8.35731
8.135
7.91897
7.70943
7.50671
7.31088
7.12214
6.94047
6.76596
6.59848
6.43806
6.28446
6.13767
5.99739
5.86359
5.73591
5.61432
5.49843
5.38822
5.28327
5.18357
5.08868
4.99862
4.91289
4.83157
4.75414
4.68069
4.61068
4.54426
4.48086
4.42068
4.36313
4.30848
4.25611
4.20634
4.15851
4.11302
4.06916
4.02739
3.98696
3.9484
3.9109
3.87505
3.84002
3.80646
3.77346
3.74175
3.71038
3.6801
3.64993
3.62067
3.59126
3.56257
3.5335
3.50493
3.47577
3.4469
3.41725
3.38769
3.35719
3.32659
3.29493
3.26301
3.22993
3.19647
3.16178
3.12664
3.09024
3.05336
3.0152
2.97658
2.93665
2.89627
2.8545
2.81229
2.76854
2.72429
2.67823
2.63152
2.58262
2.53281
2.48026
2.42642
2.36917
2.31009
2.24681
2.18101
2.11014
2.03594
1.95576
1.87139
1.78023
1.68412
1.58066
1.47184
1.35553
1.23388
1.10491
0.971016
0.82989
0.684509
0.531759
0.377219
0.213602
0.0829083
17.4956
17.495
17.4936
17.4913
17.4883
17.4846
17.4802
17.4751
17.4694
17.4629
17.4558
17.448
17.4395
17.4303
17.4204
17.4098
17.3985
17.3864
17.3735
17.3599
17.3455
17.3304
17.3144
17.2975
17.2798
17.2612
17.2417
17.2212
17.1997
17.1771
17.1534
17.1286
17.1026
17.0753
17.0467
17.0167
16.9853
16.9523
16.9178
16.8815
16.8435
16.8036
16.7617
16.7178
16.6717
16.6233
16.5725
16.5192
16.4632
16.4044
16.3426
16.2777
16.2096
16.138
16.0627
15.9837
15.9007
15.8134
15.7217
15.6253
15.524
15.4175
15.3056
15.1879
15.0643
14.9344
14.7978
14.6545
14.5039
14.3459
14.1802
14.0065
13.8247
13.6346
13.4361
13.2292
13.014
12.7907
12.5596
12.3212
12.076
11.8247
11.5681
11.3072
11.0429
10.7765
10.5089
10.2413
9.97471
9.71031
9.449
9.19173
8.93927
8.69236
8.45154
8.21737
7.99018
7.77033
7.55798
7.35336
7.1565
6.96752
6.78633
6.61298
6.44727
6.28919
6.13844
5.99497
5.8584
5.72863
5.60526
5.48817
5.37693
5.27145
5.17127
5.07634
4.98618
4.90079
4.81967
4.74287
4.66986
4.60073
4.53494
4.47262
4.41321
4.35689
4.30308
4.25204
4.20314
4.15673
4.11214
4.06978
4.02895
3.99012
3.95253
3.91671
3.88187
3.84859
3.81603
3.78483
3.75411
3.72459
3.69533
3.66712
3.63895
3.61169
3.58425
3.55754
3.53042
3.50381
3.47656
3.44957
3.42172
3.39389
3.36499
3.33587
3.30553
3.27477
3.24269
3.21007
3.1761
3.14154
3.10568
3.06928
3.03168
2.99363
2.95448
2.91503
2.87451
2.8338
2.79194
2.74993
2.70653
2.6629
2.61746
2.57153
2.52318
2.4739
2.42141
2.36732
2.30903
2.24826
2.18215
2.11245
2.0362
1.95512
1.86635
1.77163
1.66837
1.55842
1.43963
1.31401
1.17971
1.03901
0.889855
0.735146
0.572102
0.406434
0.230852
0.0888573
17.513
17.5124
17.511
17.5088
17.5058
17.5021
17.4977
17.4927
17.487
17.4806
17.4736
17.4659
17.4576
17.4486
17.4389
17.4285
17.4175
17.4057
17.3933
17.3801
17.3662
17.3516
17.3362
17.32
17.303
17.2852
17.2665
17.2469
17.2263
17.2048
17.1823
17.1586
17.1339
17.1079
17.0808
17.0523
17.0224
16.9911
16.9583
16.9239
16.8878
16.8499
16.8101
16.7684
16.7245
16.6785
16.6301
16.5793
16.5259
16.4698
16.4108
16.3488
16.2835
16.2149
16.1427
16.0668
15.9868
15.9027
15.8141
15.7209
15.6226
15.5191
15.4101
15.2951
15.174
15.0462
14.9115
14.7695
14.6197
14.4618
14.2954
14.1201
13.9356
13.7417
13.538
13.3246
13.1013
12.8684
12.6261
12.3749
12.1154
11.8486
11.5754
11.2971
11.0151
10.7307
10.4453
10.1605
9.87735
9.59733
9.32151
9.051
8.78667
8.52938
8.27972
8.03826
7.80532
7.58121
7.366
7.15981
6.96253
6.77414
6.59444
6.42335
6.26057
6.10601
5.9593
5.82031
5.68863
5.56411
5.44626
5.33494
5.22963
5.13019
5.0361
4.94726
4.86314
4.78369
4.70838
4.63724
4.56973
4.50593
4.4453
4.38797
4.33338
4.28173
4.23242
4.18571
4.14097
4.09855
4.05777
4.01905
3.98171
3.94622
3.91186
3.8792
3.84743
3.81717
3.78757
3.7593
3.73142
3.70469
3.67809
3.65246
3.62675
3.60187
3.57672
3.55226
3.52734
3.50293
3.47785
3.45306
3.42735
3.40165
3.3748
3.34764
3.3191
3.28995
3.2593
3.22782
3.19482
3.16094
3.12567
3.08965
3.05246
3.01478
2.9762
2.93744
2.898
2.85869
2.81876
2.77916
2.73879
2.69878
2.65759
2.61656
2.57366
2.53046
2.48442
2.43727
2.38603
2.33252
2.27339
2.21044
2.14018
2.06432
1.97949
1.88733
1.78494
1.67398
1.55224
1.42154
1.28023
1.13044
0.970548
0.803332
0.626443
0.44591
0.253829
0.0976217
17.5334
17.5327
17.5313
17.5291
17.5261
17.5224
17.518
17.513
17.5074
17.5011
17.4941
17.4865
17.4784
17.4695
17.4601
17.45
17.4392
17.4279
17.4159
17.4032
17.3898
17.3758
17.3611
17.3457
17.3296
17.3127
17.2949
17.2764
17.257
17.2367
17.2155
17.1933
17.17
17.1457
17.1201
17.0934
17.0654
17.0361
17.0053
16.973
16.9391
16.9036
16.8663
16.8271
16.7859
16.7426
16.697
16.6492
16.5988
16.5459
16.4901
16.4314
16.3697
16.3046
16.236
16.1638
16.0877
16.0074
15.9227
15.8334
15.7391
15.6395
15.5342
15.4229
15.3052
15.1806
15.0487
14.909
14.7609
14.604
14.4376
14.2613
14.0744
13.8767
13.6675
13.4466
13.2139
12.9693
12.7131
12.4458
12.1682
11.8813
11.5865
11.2854
10.9798
10.6716
10.3629
10.0555
9.75114
9.45146
9.15776
8.87126
8.59288
8.32347
8.06363
7.81391
7.57458
7.3459
7.12786
6.92048
6.72351
6.53678
6.3599
6.19262
6.03447
5.8852
5.74432
5.61158
5.48649
5.36883
5.25806
5.15398
5.05604
4.96405
4.87743
4.79604
4.7193
4.6471
4.57888
4.51463
4.45376
4.39636
4.34186
4.29041
4.24145
4.19521
4.15112
4.10946
4.06962
4.03192
3.99571
3.96136
3.92818
3.89662
3.86599
3.83682
3.80839
3.78134
3.75486
3.7297
3.70494
3.68138
3.65796
3.63554
3.61299
3.59122
3.56903
3.54744
3.52519
3.50338
3.48072
3.4583
3.43484
3.41135
3.38657
3.3614
3.33467
3.30714
3.27786
3.24745
3.21526
3.18185
3.14685
3.11081
3.0736
3.03577
2.99728
2.95874
2.92
2.88177
2.84363
2.80644
2.76932
2.73336
2.69712
2.66197
2.62581
2.59032
2.5527
2.51486
2.47329
2.43001
2.38095
2.32803
2.26692
2.19932
2.12107
2.03367
1.93364
1.8224
1.69756
1.56067
1.41044
1.24878
1.07481
0.891187
0.696265
0.496528
0.282348
0.110102
17.5565
17.5559
17.5545
17.5522
17.5492
17.5455
17.5411
17.5361
17.5304
17.5241
17.5172
17.5097
17.5017
17.493
17.4837
17.4739
17.4635
17.4525
17.4409
17.4287
17.4159
17.4026
17.3886
17.374
17.3587
17.3428
17.3261
17.3088
17.2907
17.2717
17.2519
17.2313
17.2097
17.1871
17.1634
17.1387
17.1128
17.0857
17.0572
17.0274
16.996
16.9632
16.9286
16.8924
16.8542
16.8141
16.7718
16.7274
16.6806
16.6313
16.5794
16.5246
16.4669
16.406
16.3418
16.274
16.2024
16.1268
16.0469
15.9624
15.873
15.7784
15.678
15.5716
15.4586
15.3386
15.2109
15.075
14.9301
14.7756
14.6106
14.4345
14.2462
14.0452
13.8306
13.6019
13.3584
13.1
12.8269
12.5393
12.2384
11.9255
11.6024
11.2715
10.9352
10.5961
10.2568
9.92014
9.58829
9.26348
8.94741
8.64149
8.3467
8.0638
7.79319
7.53522
7.28995
7.05746
6.83758
6.63016
6.43483
6.25126
6.0789
5.91731
5.76586
5.62407
5.4913
5.36712
5.2509
5.1423
5.04071
4.94585
4.85712
4.77429
4.69677
4.62435
4.55643
4.49289
4.4331
4.37702
4.32404
4.27421
4.22693
4.18235
4.13987
4.09976
4.06144
4.02526
3.99066
3.95802
3.92674
3.89723
3.86881
3.84189
3.81572
3.79081
3.76636
3.743
3.71992
3.69792
3.67615
3.65556
3.63517
3.616
3.59686
3.57878
3.56036
3.54269
3.52428
3.50631
3.48726
3.46836
3.44813
3.42771
3.40567
3.383
3.3584
3.33262
3.30469
3.27514
3.24339
3.2099
3.17451
3.13765
3.09955
3.06063
3.02133
2.98212
2.94335
2.90561
2.86888
2.83391
2.80012
2.76856
2.73789
2.70962
2.68151
2.65555
2.62853
2.60274
2.574
2.54464
2.50962
2.47102
2.42335
2.36818
2.30024
2.22062
2.12503
2.0143
1.88584
1.74063
1.57809
1.3998
1.2064
1.00047
0.782004
0.557351
0.31736
0.121572
17.5826
17.582
17.5805
17.5782
17.5751
17.5713
17.5668
17.5617
17.556
17.5496
17.5428
17.5353
17.5274
17.5188
17.5098
17.5003
17.4902
17.4797
17.4686
17.457
17.4449
17.4323
17.4192
17.4055
17.3913
17.3765
17.3611
17.345
17.3283
17.311
17.2928
17.2739
17.2542
17.2336
17.212
17.1895
17.166
17.1413
17.1154
17.0883
17.0598
17.0299
16.9985
16.9655
16.9307
16.8941
16.8555
16.8149
16.772
16.7269
16.6792
16.6289
16.5758
16.5197
16.4604
16.3977
16.3314
16.2613
16.187
16.1083
16.0249
15.9363
15.8422
15.7421
15.6355
15.5217
15.4001
15.2699
15.1304
14.9804
14.8191
14.6452
14.4575
14.2549
14.0361
13.7999
13.5452
13.2713
12.9779
12.6651
12.3338
11.986
11.6243
11.2525
10.8746
10.4946
10.116
9.74218
9.37604
9.0203
8.6771
8.34817
8.03458
7.73702
7.45565
7.19044
6.94103
6.70706
6.48797
6.28329
6.09238
5.9147
5.74951
5.59621
5.454
5.32223
5.20007
5.08693
4.98203
4.88487
4.79473
4.71123
4.63372
4.56191
4.49516
4.43326
4.37557
4.32194
4.27173
4.22488
4.18076
4.13942
4.10027
4.06347
4.02847
3.99547
3.96391
3.93405
3.90533
3.87814
3.85196
3.82727
3.80351
3.78117
3.7596
3.73926
3.7194
3.70052
3.68175
3.6637
3.64547
3.62799
3.61037
3.59382
3.57731
3.56215
3.54694
3.53298
3.51857
3.50502
3.49046
3.47626
3.46053
3.44453
3.42644
3.40733
3.38559
3.362
3.3354
3.30634
3.27426
3.23957
3.20242
3.16316
3.12254
3.08088
3.03925
2.99798
2.95813
2.92004
2.88433
2.85149
2.82139
2.79492
2.77103
2.75122
2.73338
2.71974
2.70685
2.69746
2.68665
2.67728
2.66299
2.64619
2.61957
2.5847
2.53429
2.46894
2.38261
2.27525
2.14339
1.98732
1.80732
1.60506
1.38402
1.14704
0.898099
0.640705
0.374961
0.127399
17.6117
17.611
17.6095
17.607
17.6038
17.5998
17.5952
17.5899
17.584
17.5776
17.5705
17.563
17.555
17.5465
17.5375
17.5281
17.5183
17.508
17.4974
17.4863
17.4748
17.4629
17.4505
17.4378
17.4246
17.4109
17.3967
17.3821
17.3669
17.3512
17.3348
17.3178
17.3001
17.2817
17.2625
17.2424
17.2215
17.1996
17.1766
17.1526
17.1273
17.1008
17.0728
17.0435
17.0125
16.9799
16.9455
16.9092
16.8708
16.8303
16.7875
16.7422
16.6943
16.6436
16.5899
16.5331
16.473
16.4092
16.3415
16.2698
16.1935
16.1124
16.026
15.9339
15.8355
15.7301
15.617
15.4953
15.364
15.2218
15.0674
14.8993
14.7157
14.5147
14.2942
14.0522
13.7868
13.4965
13.18
12.8371
12.4686
12.0764
11.6639
11.2364
10.8007
10.3638
9.93172
9.50915
9.09986
8.70685
8.33224
7.9776
7.64376
7.33116
7.03959
6.76854
6.5171
6.28432
6.06907
5.87036
5.68714
5.51853
5.36357
5.22146
5.09126
4.97216
4.86321
4.76366
4.67258
4.58934
4.51311
4.44339
4.37946
4.32095
4.2672
4.21791
4.17244
4.13057
4.09166
4.05554
4.02159
3.98976
3.9595
3.93103
3.90393
3.87858
3.85449
3.83198
3.81044
3.79015
3.77048
3.75181
3.73358
3.7163
3.69943
3.68353
3.66804
3.65356
3.63945
3.62629
3.61315
3.60064
3.58769
3.57536
3.5626
3.55098
3.53919
3.52903
3.51873
3.51015
3.50106
3.49317
3.48393
3.47476
3.46309
3.44996
3.43316
3.41328
3.38877
3.35992
3.32624
3.28798
3.24592
3.20038
3.15313
3.10444
3.05658
3.00973
2.96605
2.9255
2.88956
2.85822
2.83202
2.81151
2.79605
2.78726
2.78308
2.78634
2.79313
2.80726
2.82261
2.84316
2.86056
2.87802
2.88546
2.88435
2.86429
2.8247
2.75651
2.65753
2.52243
2.34995
2.14174
1.90065
1.63564
1.35176
1.05967
0.758886
0.464231
0.133876
17.6439
17.6432
17.6415
17.6388
17.6353
17.6311
17.6262
17.6206
17.6145
17.6079
17.6008
17.5933
17.5853
17.5769
17.5682
17.5591
17.5496
17.5398
17.5297
17.5193
17.5086
17.4976
17.4862
17.4745
17.4625
17.4501
17.4374
17.4243
17.4107
17.3968
17.3823
17.3673
17.3518
17.3357
17.3189
17.3015
17.2833
17.2643
17.2444
17.2236
17.2017
17.1787
17.1545
17.129
17.1021
17.0737
17.0437
17.012
16.9785
16.943
16.9053
16.8655
16.8232
16.7784
16.7309
16.6806
16.6272
16.5705
16.5103
16.4463
16.3783
16.306
16.2288
16.1465
16.0584
15.9638
15.8621
15.7522
15.6329
15.503
15.3606
15.2037
15.03
14.8366
14.62
14.3769
14.103
13.7947
13.4488
13.0639
12.6416
12.1864
11.7052
11.2058
10.6969
10.1877
9.68622
9.20001
8.73494
8.29493
7.88199
7.49703
7.14014
6.81101
6.50879
6.23232
5.98008
5.75044
5.54164
5.35203
5.18
5.02418
4.88329
4.75624
4.6419
4.53931
4.44738
4.36518
4.29168
4.22609
4.16748
4.11523
4.06853
4.02693
3.98969
3.95648
3.9266
3.89977
3.87531
3.85298
3.83212
3.81258
3.79374
3.77573
3.75816
3.74143
3.72525
3.7102
3.696
3.68309
3.67092
3.65971
3.64879
3.63838
3.62791
3.61768
3.60714
3.59675
3.58618
3.57627
3.56681
3.5586
3.55077
3.5439
3.53666
3.53019
3.52312
3.51748
3.51165
3.50819
3.50493
3.50436
3.50341
3.50388
3.50218
3.49929
3.49181
3.47991
3.46103
3.43477
3.40015
3.35706
3.30692
3.2503
3.19039
3.12794
3.06703
3.00817
2.95506
2.90728
2.86732
2.8344
2.80976
2.79319
2.78483
2.78616
2.79596
2.81757
2.84731
2.88992
2.93888
2.99893
3.06003
3.12596
3.18335
3.23287
3.25997
3.26147
3.22301
3.13735
2.99513
2.79249
2.53343
2.22596
1.88909
1.53493
1.18301
0.833422
0.508318
0.13322
17.6796
17.6788
17.6769
17.6739
17.6699
17.6652
17.6597
17.6535
17.6467
17.6394
17.6317
17.6237
17.6152
17.6065
17.5975
17.5883
17.5788
17.5691
17.5593
17.5493
17.5391
17.5288
17.5183
17.5076
17.4968
17.4858
17.4745
17.4631
17.4514
17.4394
17.4271
17.4144
17.4014
17.3879
17.374
17.3595
17.3445
17.3288
17.3125
17.2953
17.2773
17.2584
17.2384
17.2174
17.1951
17.1715
17.1465
17.1199
17.0917
17.0617
17.0299
16.996
16.96
16.9217
16.881
16.8377
16.7917
16.7429
16.691
16.6358
16.5771
16.5147
16.4483
16.3775
16.3018
16.2207
16.1335
16.0392
15.9367
15.8246
15.7009
15.5634
15.409
15.234
15.0338
14.8029
14.5345
14.2208
13.8527
13.4209
12.92
12.3553
11.7465
11.1199
10.495
9.88142
9.2855
8.71547
8.17906
7.68106
7.22304
6.8047
6.4247
6.08124
5.77225
5.4956
5.24904
5.03023
4.83671
4.66604
4.5159
4.38419
4.26901
4.16873
4.08178
4.00684
3.94253
3.88769
3.84113
3.80185
3.76886
3.74141
3.71869
3.70011
3.68499
3.67288
3.6631
3.65525
3.64859
3.64272
3.63696
3.63122
3.62521
3.61947
3.61381
3.6083
3.60229
3.59622
3.58995
3.58431
3.57911
3.57484
3.57091
3.56747
3.56383
3.56012
3.55581
3.55097
3.54497
3.53818
3.53078
3.52419
3.51879
3.51555
3.51337
3.51256
3.51144
3.51158
3.51141
3.51359
3.51609
3.52186
3.52789
3.53684
3.54492
3.55325
3.55736
3.55668
3.54691
3.52644
3.49313
3.44634
3.38771
3.31827
3.24274
3.16303
3.08535
3.01103
2.94529
2.88736
2.84067
2.80325
2.77707
2.76033
2.75409
2.75877
2.7745
2.80465
2.84779
2.90901
2.98355
3.07771
3.18089
3.29795
3.41229
3.52388
3.61377
3.67541
3.68461
3.62491
3.47957
3.23904
2.91296
2.51827
2.09215
1.65605
1.23994
0.846029
0.491578
0.130511
17.7191
17.7182
17.7159
17.7123
17.7078
17.7025
17.6966
17.6901
17.6831
17.6757
17.6678
17.6597
17.6513
17.6427
17.6339
17.625
17.6159
17.6067
17.5973
17.5879
17.5784
17.5689
17.5592
17.5496
17.5398
17.53
17.5202
17.5102
17.5002
17.49
17.4797
17.4691
17.4584
17.4474
17.4362
17.4246
17.4126
17.4001
17.3872
17.3737
17.3595
17.3446
17.3289
17.3123
17.2947
17.276
17.256
17.2348
17.2121
17.1879
17.162
17.1344
17.1049
17.0734
17.0397
17.0039
16.9657
16.925
16.8818
16.836
16.7873
16.7357
16.681
16.6229
16.5613
16.4958
16.4258
16.3507
16.2696
16.1812
16.0836
15.9745
15.8502
15.7062
15.5362
15.3326
15.0858
14.7852
14.4195
13.973
13.4271
12.7526
11.957
11.1059
10.2596
9.4446
8.67439
7.96176
7.3153
6.7381
6.22925
5.78546
5.40136
5.07069
4.78705
4.54478
4.33878
4.16461
4.01812
3.89568
3.79393
3.7101
3.64163
3.58646
3.54266
3.50869
3.48299
3.46439
3.45167
3.44396
3.44033
3.4402
3.44283
3.44789
3.45479
3.46328
3.4728
3.48304
3.49321
3.50259
3.5096
3.51333
3.51448
3.51505
3.51571
3.51678
3.51762
3.51838
3.51861
3.51893
3.51915
3.51988
3.52082
3.52215
3.52322
3.52369
3.52312
3.52148
3.51857
3.51426
3.50849
3.50189
3.49555
3.49112
3.48884
3.48887
3.4899
3.49274
3.49661
3.50396
3.51287
3.52481
3.53704
3.55185
3.5665
3.58248
3.59586
3.60439
3.6028
3.5865
3.55307
3.50102
3.43314
3.34998
3.2579
3.16051
3.06702
2.97916
2.90327
2.83792
2.78744
2.74739
2.72068
2.70359
2.69973
2.70693
2.72963
2.76252
2.81226
2.88348
2.96988
3.08361
3.21828
3.37388
3.53517
3.70652
3.86728
4.00713
4.0891
4.09452
3.98847
3.72646
3.31662
2.80796
2.27087
1.74835
1.27647
0.856905
0.494099
0.145351
17.7634
17.7622
17.7592
17.7544
17.7481
17.7408
17.7327
17.7241
17.7151
17.7058
17.6964
17.6869
17.6774
17.668
17.6586
17.6493
17.6401
17.6311
17.6222
17.6134
17.6047
17.5962
17.5878
17.5796
17.5714
17.5634
17.5556
17.5478
17.54
17.5324
17.5247
17.5171
17.5094
17.5016
17.4938
17.4858
17.4776
17.4692
17.4604
17.4513
17.4417
17.4316
17.4208
17.4093
17.3971
17.3839
17.3696
17.3543
17.3377
17.3197
17.3003
17.2793
17.2566
17.2322
17.2058
17.1776
17.1473
17.115
17.0806
17.0441
17.0054
16.9647
16.9219
16.8771
16.8303
16.7816
16.7308
16.6781
16.6231
16.5654
16.5039
16.4371
16.3618
16.2728
16.1609
16.0118
15.8012
15.4973
15.0568
14.4476
13.6597
12.7626
11.7606
10.7122
9.65605
8.62443
7.66974
6.83323
6.12709
5.54535
5.07541
4.70173
4.40737
4.17584
3.99303
3.84778
3.7317
3.63857
3.56378
3.50387
3.4563
3.41908
3.39071
3.36989
3.35557
3.34676
3.34263
3.34242
3.34549
3.35125
3.35927
3.36909
3.38047
3.39302
3.40665
3.42105
3.4362
3.45181
3.46777
3.48363
3.49729
3.50364
3.50558
3.50649
3.50707
3.50732
3.50742
3.5076
3.50788
3.50837
3.50906
3.50998
3.51102
3.5121
3.51291
3.51339
3.5132
3.51164
3.50854
3.50415
3.49898
3.49304
3.48715
3.48226
3.47887
3.47704
3.47737
3.4796
3.48342
3.49261
3.50477
3.51987
3.53585
3.55519
3.57497
3.59731
3.61861
3.63714
3.64581
3.63793
3.60735
3.55233
3.47634
3.3824
3.27707
3.16617
3.06027
2.96322
2.88041
2.81174
2.75938
2.71916
2.69006
2.66978
2.65711
2.65111
2.65929
2.68736
2.72357
2.77743
2.85642
2.97188
3.11105
3.28907
3.47886
3.68614
3.91622
4.1537
4.32407
4.36007
4.21191
3.83937
3.28996
2.6433
1.99914
1.41284
0.926597
0.546571
0.270073
0.0611812
17.8135
17.8119
17.8086
17.8036
17.7974
17.7903
17.7824
17.7738
17.7646
17.755
17.7453
17.7354
17.7255
17.7155
17.7056
17.6958
17.6861
17.6767
17.6675
17.6585
17.6498
17.6413
17.6331
17.6253
17.6177
17.6104
17.6035
17.5968
17.5904
17.5842
17.5784
17.5727
17.5672
17.562
17.5568
17.5518
17.5468
17.5418
17.5368
17.5316
17.5262
17.5206
17.5146
17.5081
17.501
17.4933
17.4848
17.4754
17.4649
17.4534
17.4405
17.4263
17.4106
17.3933
17.3744
17.3538
17.3314
17.3074
17.2817
17.2545
17.2258
17.1959
17.1651
17.1338
17.1024
17.0716
17.042
17.0148
16.9912
16.9728
16.9616
16.9601
16.9705
16.995
17.0333
17.0807
17.1116
17.0834
16.8328
16.2155
14.6124
12.5336
10.8122
9.53828
8.45022
7.47055
6.6319
5.94673
5.39892
4.96482
4.62201
4.35142
4.13678
3.96518
3.82667
3.71417
3.62248
3.54794
3.4877
3.43964
3.40193
3.37317
3.35203
3.33747
3.32844
3.32417
3.32379
3.32678
3.33242
3.34042
3.35018
3.3616
3.37414
3.38785
3.40224
3.41745
3.433
3.44898
3.4648
3.48036
3.49252
3.49697
3.49821
3.49942
3.50068
3.50191
3.50305
3.50451
3.50616
3.50838
3.51094
3.51409
3.5175
3.52109
3.52369
3.5248
3.52398
3.52125
3.51638
3.51032
3.50306
3.49567
3.48833
3.48292
3.47787
3.4746
3.47259
3.47251
3.47403
3.4835
3.49649
3.51449
3.53512
3.56015
3.58623
3.61513
3.64106
3.66002
3.66374
3.64563
3.60243
3.53369
3.44485
3.33989
3.22407
3.10612
2.99408
2.89445
2.81003
2.74443
2.69555
2.66167
2.6371
2.62356
2.61618
2.61588
2.61789
2.63742
2.65839
2.68837
2.73919
2.82205
2.91313
3.05461
3.1969
3.34194
3.49766
3.65769
3.7508
3.75195
3.58992
3.24718
2.74501
2.15634
1.56647
1.0315
0.596021
0.267491
0.0363209
-0.0379613
17.8723
17.8685
17.8587
17.8448
17.8305
17.8171
17.8043
17.7916
17.7792
17.7674
17.7562
17.7455
17.7353
17.7256
17.7164
17.7075
17.6991
17.6911
17.6835
17.6763
17.6696
17.6632
17.6573
17.6517
17.6466
17.642
17.6377
17.6338
17.6304
17.6274
17.6248
17.6225
17.6207
17.6192
17.618
17.6171
17.6165
17.6161
17.6158
17.6156
17.6154
17.6151
17.6146
17.6139
17.6127
17.6111
17.6089
17.6059
17.6021
17.5973
17.5914
17.5843
17.5759
17.5662
17.5551
17.5427
17.5289
17.5139
17.4978
17.4809
17.4633
17.4456
17.4281
17.4115
17.3964
17.3838
17.3748
17.3709
17.3738
17.3863
17.4124
17.4586
17.535
17.6573
17.8474
18.1387
18.5645
19.2028
20.0018
21.2275
21.1108
16.8452
13.3648
11.0069
9.12703
7.68771
6.64278
5.88313
5.32912
4.92075
4.61298
4.37436
4.18357
4.0267
3.89494
3.78294
3.68741
3.60637
3.53837
3.48232
3.43708
3.4016
3.3747
3.35536
3.34242
3.33499
3.3321
3.33309
3.33717
3.34392
3.35273
3.36337
3.37534
3.38858
3.40269
3.41774
3.4334
3.45039
3.46724
3.49295
3.4981
3.50044
3.50163
3.50248
3.50304
3.50374
3.50425
3.5051
3.50598
3.5076
3.50935
3.51166
3.51384
3.5163
3.51811
3.51886
3.51785
3.51554
3.51161
3.50616
3.49926
3.49172
3.4846
3.47831
3.4723
3.46742
3.46472
3.4642
3.46619
3.47288
3.47757
3.48568
3.49653
3.51186
3.52633
3.54239
3.55568
3.56459
3.55944
3.53843
3.49342
3.42016
3.32619
3.22
3.10875
2.99613
2.89168
2.79765
2.71974
2.65783
2.61499
2.58532
2.56844
2.55873
2.55356
2.55257
2.55943
2.56833
2.5774
2.59719
2.63788
2.69021
2.76007
2.85601
2.96076
3.0774
3.19701
3.2847
3.30427
3.25638
3.15438
2.93398
2.57339
2.13808
1.70545
1.29461
0.906003
0.572039
0.303698
-0.0507068
17.9438
17.9529
17.9517
17.9404
17.9257
17.9102
17.8941
17.8775
17.8609
17.8446
17.8289
17.8138
17.7993
17.7857
17.7728
17.7607
17.7494
17.7388
17.7289
17.7197
17.7113
17.7037
17.6968
17.6906
17.6852
17.6805
17.6765
17.6732
17.6706
17.6688
17.6676
17.6672
17.6675
17.6685
17.6701
17.6724
17.6754
17.6789
17.6829
17.6875
17.6925
17.6978
17.7035
17.7094
17.7154
17.7214
17.7273
17.733
17.7383
17.7432
17.7474
17.7508
17.7533
17.7548
17.7552
17.7544
17.7523
17.7489
17.7444
17.7387
17.7322
17.7251
17.7177
17.7106
17.7043
17.6996
17.6972
17.698
17.703
17.7126
17.7266
17.7446
17.7701
17.8165
17.909
18.0848
18.3812
18.8644
19.537
20.5405
20.9573
18.0828
15.6322
13.7751
12.1065
10.6633
9.45365
8.43846
7.58932
6.88114
6.29064
5.79788
5.38603
5.0411
4.75171
4.50859
4.30429
4.13278
3.98913
3.86925
3.76978
3.6878
3.62087
3.56683
3.52388
3.49038
3.46495
3.4464
3.43369
3.42591
3.42232
3.42225
3.42515
3.43057
3.43811
3.44748
3.45835
3.47105
3.4834
3.50352
3.50345
3.50344
3.5035
3.50363
3.50371
3.50398
3.50412
3.50449
3.50474
3.50551
3.50618
3.50709
3.5074
3.50759
3.5071
3.50604
3.50402
3.50145
3.49788
3.49299
3.48657
3.47929
3.472
3.46525
3.45891
3.45366
3.4509
3.45253
3.45781
3.46566
3.47038
3.47525
3.4825
3.49525
3.50737
3.5158
3.51685
3.51271
3.5021
3.48046
3.44662
3.39227
3.32183
3.23057
3.13233
3.02341
2.92034
2.82019
2.73944
2.67239
2.6275
2.5937
2.57571
2.5655
2.56573
2.57279
2.5857
2.60259
2.62776
2.6708
2.72914
2.8038
2.89269
2.99507
3.09732
3.20842
3.30692
3.38403
3.40586
3.36799
3.27488
3.12625
2.88392
2.56925
2.24499
1.91722
1.57824
1.2579
0.960041
0.310015
18.0087
17.9692
17.93
17.9068
17.8921
17.8777
17.8627
17.8488
17.8366
17.8255
17.8149
17.8046
17.7949
17.7858
17.7773
17.7694
17.7619
17.7551
17.7487
17.743
17.738
17.7336
17.7301
17.7273
17.7254
17.7243
17.724
17.7246
17.7261
17.7286
17.732
17.7365
17.7421
17.7486
17.7563
17.765
17.7747
17.7854
17.797
17.8095
17.8229
17.8369
17.8516
17.8667
17.8821
17.8976
17.9129
17.9279
17.9422
17.9555
17.9676
17.9782
17.9869
17.9934
17.9975
17.9989
17.9975
17.9932
17.9859
17.9758
17.963
17.9478
17.9308
17.9126
17.8937
17.8751
17.8577
17.8426
17.8312
17.8256
17.8261
17.8237
17.8041
17.7645
17.7233
17.7193
17.7873
17.9553
18.2209
18.6889
18.9832
17.1978
15.5279
14.0208
12.5881
11.2965
10.1572
9.15911
8.29208
7.54347
6.89974
6.34791
5.87596
5.47307
5.12969
4.83752
4.58943
4.37927
4.20178
4.05244
3.92739
3.82326
3.73716
3.66655