/*--------------------------------*- C++ -*----------------------------------*\
  =========                 |
  \\      /  F ield         | OpenFOAM: The Open Source CFD Toolbox
   \\    /   O peration     | Website:  https://openfoam.org
    \\  /    A nd           | Version:  10
     \\/     M anipulation  |
\*---------------------------------------------------------------------------*/
FoamFile
{
    format      ascii;
    class       volScalarField;
    location    "2.37";
    object      p;
}
// * * * * * * * * * * * * * * * * * * * * * * * * * * * * * * * * * * * * * //

dimensions      [1 -1 -2 0 0 0 0];

internalField   nonuniform List<scalar> 
12225
(
1.76419e+07
1.7589e+07
1.74944e+07
1.73698e+07
1.72253e+07
1.70685e+07
1.69047e+07
1.67373e+07
1.65686e+07
1.63998e+07
1.62314e+07
1.60634e+07
1.58954e+07
1.57265e+07
1.55549e+07
1.53776e+07
1.51887e+07
1.4973e+07
1.76441e+07
1.7591e+07
1.7496e+07
1.73711e+07
1.72263e+07
1.70692e+07
1.69053e+07
1.67378e+07
1.65691e+07
1.64003e+07
1.62319e+07
1.60641e+07
1.58962e+07
1.57276e+07
1.55565e+07
1.53802e+07
1.51941e+07
1.49888e+07
1.76489e+07
1.75952e+07
1.74995e+07
1.73738e+07
1.72284e+07
1.70709e+07
1.69066e+07
1.6739e+07
1.65702e+07
1.64013e+07
1.62331e+07
1.60654e+07
1.5898e+07
1.57299e+07
1.55599e+07
1.53858e+07
1.52045e+07
1.50127e+07
1.76568e+07
1.76023e+07
1.75054e+07
1.73784e+07
1.7232e+07
1.70737e+07
1.69088e+07
1.67408e+07
1.65719e+07
1.64031e+07
1.6235e+07
1.60677e+07
1.59008e+07
1.57337e+07
1.55654e+07
1.53944e+07
1.52192e+07
1.50404e+07
1.76686e+07
1.76128e+07
1.7514e+07
1.73852e+07
1.72371e+07
1.70777e+07
1.6912e+07
1.67436e+07
1.65743e+07
1.64056e+07
1.62377e+07
1.60709e+07
1.59049e+07
1.57392e+07
1.55731e+07
1.54058e+07
1.52374e+07
1.50701e+07
1.76851e+07
1.76274e+07
1.75259e+07
1.73945e+07
1.72442e+07
1.70831e+07
1.69163e+07
1.67472e+07
1.65777e+07
1.64089e+07
1.62414e+07
1.60752e+07
1.59103e+07
1.57463e+07
1.55829e+07
1.54199e+07
1.52582e+07
1.51006e+07
1.77072e+07
1.7647e+07
1.75417e+07
1.74067e+07
1.72535e+07
1.70902e+07
1.69219e+07
1.67519e+07
1.6582e+07
1.64132e+07
1.62461e+07
1.60808e+07
1.59172e+07
1.57552e+07
1.55948e+07
1.54364e+07
1.5281e+07
1.51316e+07
1.77364e+07
1.76725e+07
1.75622e+07
1.74223e+07
1.72652e+07
1.70991e+07
1.6929e+07
1.67578e+07
1.65874e+07
1.64186e+07
1.62519e+07
1.60876e+07
1.59255e+07
1.57659e+07
1.56088e+07
1.54548e+07
1.53053e+07
1.51626e+07
1.77741e+07
1.77051e+07
1.7588e+07
1.74417e+07
1.72797e+07
1.711e+07
1.69375e+07
1.67649e+07
1.65938e+07
1.64251e+07
1.62589e+07
1.60957e+07
1.59354e+07
1.57782e+07
1.56245e+07
1.54749e+07
1.53306e+07
1.51936e+07
1.78226e+07
1.77465e+07
1.76201e+07
1.74655e+07
1.7297e+07
1.71229e+07
1.69475e+07
1.67733e+07
1.66014e+07
1.64326e+07
1.62671e+07
1.61051e+07
1.59467e+07
1.57921e+07
1.56417e+07
1.54963e+07
1.53568e+07
1.52246e+07
1.78846e+07
1.77983e+07
1.76593e+07
1.74939e+07
1.73175e+07
1.71379e+07
1.6959e+07
1.67828e+07
1.66101e+07
1.64412e+07
1.62764e+07
1.61157e+07
1.59593e+07
1.58074e+07
1.56603e+07
1.55187e+07
1.53834e+07
1.52553e+07
1.79577e+07
1.78576e+07
1.77026e+07
1.75243e+07
1.73388e+07
1.71533e+07
1.69708e+07
1.67925e+07
1.66188e+07
1.645e+07
1.62859e+07
1.61265e+07
1.59719e+07
1.58224e+07
1.56782e+07
1.55399e+07
1.5408e+07
1.52832e+07
1.80478e+07
1.79279e+07
1.77521e+07
1.7558e+07
1.73619e+07
1.71696e+07
1.69831e+07
1.68026e+07
1.6628e+07
1.64592e+07
1.62958e+07
1.61378e+07
1.59851e+07
1.5838e+07
1.56965e+07
1.55612e+07
1.54324e+07
1.53105e+07
1.8181e+07
1.80258e+07
1.78169e+07
1.76001e+07
1.73897e+07
1.71889e+07
1.69974e+07
1.68143e+07
1.66388e+07
1.647e+07
1.63076e+07
1.61512e+07
1.60008e+07
1.58563e+07
1.57178e+07
1.55857e+07
1.546e+07
1.53411e+07
1.83887e+07
1.8162e+07
1.78987e+07
1.76494e+07
1.74206e+07
1.72095e+07
1.70125e+07
1.68268e+07
1.66504e+07
1.64821e+07
1.6321e+07
1.61666e+07
1.60187e+07
1.58771e+07
1.57419e+07
1.5613e+07
1.54905e+07
1.53746e+07
1.87404e+07
1.83439e+07
1.79901e+07
1.76979e+07
1.74484e+07
1.72271e+07
1.70253e+07
1.68376e+07
1.66612e+07
1.6494e+07
1.63349e+07
1.6183e+07
1.60381e+07
1.58998e+07
1.5768e+07
1.56425e+07
1.55233e+07
1.54104e+07
1.94235e+07
1.85265e+07
1.80489e+07
1.77196e+07
1.74572e+07
1.72314e+07
1.70286e+07
1.68419e+07
1.66674e+07
1.65029e+07
1.63469e+07
1.61986e+07
1.60573e+07
1.59227e+07
1.57946e+07
1.56728e+07
1.5557e+07
1.54471e+07
1.85816e+07
1.82509e+07
1.79304e+07
1.76553e+07
1.74168e+07
1.72044e+07
1.70107e+07
1.68312e+07
1.66628e+07
1.65039e+07
1.63531e+07
1.62097e+07
1.60732e+07
1.59432e+07
1.58193e+07
1.57015e+07
1.55893e+07
1.54827e+07
1.80191e+07
1.78847e+07
1.77007e+07
1.75065e+07
1.73164e+07
1.71347e+07
1.69618e+07
1.67974e+07
1.66408e+07
1.64914e+07
1.63487e+07
1.62124e+07
1.60821e+07
1.59577e+07
1.58389e+07
1.57255e+07
1.56174e+07
1.55143e+07
1.76993e+07
1.76229e+07
1.75013e+07
1.7358e+07
1.7206e+07
1.70524e+07
1.69006e+07
1.67522e+07
1.66082e+07
1.64689e+07
1.63346e+07
1.62053e+07
1.60811e+07
1.59619e+07
1.58476e+07
1.57382e+07
1.56336e+07
1.55335e+07
1.7517e+07
1.74623e+07
1.73694e+07
1.72531e+07
1.7124e+07
1.69888e+07
1.68516e+07
1.67148e+07
1.65802e+07
1.64485e+07
1.63205e+07
1.61965e+07
1.60767e+07
1.59614e+07
1.58504e+07
1.57438e+07
1.56417e+07
1.55438e+07
1.73966e+07
1.73526e+07
1.72754e+07
1.71755e+07
1.70613e+07
1.69388e+07
1.68121e+07
1.66841e+07
1.65565e+07
1.64308e+07
1.63077e+07
1.61878e+07
1.60715e+07
1.59591e+07
1.58506e+07
1.57463e+07
1.5646e+07
1.55498e+07
1.73152e+07
1.72773e+07
1.72093e+07
1.71196e+07
1.70152e+07
1.69013e+07
1.67821e+07
1.66602e+07
1.65379e+07
1.64165e+07
1.6297e+07
1.61802e+07
1.60666e+07
1.59564e+07
1.58498e+07
1.57471e+07
1.56483e+07
1.55533e+07
1.72599e+07
1.72255e+07
1.71633e+07
1.70801e+07
1.6982e+07
1.68741e+07
1.67599e+07
1.66425e+07
1.65239e+07
1.64056e+07
1.62888e+07
1.61742e+07
1.60624e+07
1.59539e+07
1.58487e+07
1.57472e+07
1.56494e+07
1.55553e+07
1.72225e+07
1.71903e+07
1.71317e+07
1.70527e+07
1.69589e+07
1.68548e+07
1.67442e+07
1.66298e+07
1.65137e+07
1.63976e+07
1.62827e+07
1.61697e+07
1.60592e+07
1.59518e+07
1.58477e+07
1.5747e+07
1.56499e+07
1.55564e+07
1.71976e+07
1.71668e+07
1.71105e+07
1.70342e+07
1.69431e+07
1.68417e+07
1.67333e+07
1.6621e+07
1.65067e+07
1.63921e+07
1.62784e+07
1.61664e+07
1.60569e+07
1.59503e+07
1.58468e+07
1.57467e+07
1.56501e+07
1.55571e+07
1.71817e+07
1.71517e+07
1.70968e+07
1.70222e+07
1.69329e+07
1.68331e+07
1.67262e+07
1.66152e+07
1.6502e+07
1.63883e+07
1.62755e+07
1.61642e+07
1.60553e+07
1.59492e+07
1.58461e+07
1.57464e+07
1.56502e+07
1.55574e+07
1.7172e+07
1.71426e+07
1.70885e+07
1.70149e+07
1.69266e+07
1.68278e+07
1.67218e+07
1.66116e+07
1.64991e+07
1.6386e+07
1.62736e+07
1.61628e+07
1.60543e+07
1.59485e+07
1.58457e+07
1.57462e+07
1.56501e+07
1.55575e+07
1.71668e+07
1.71376e+07
1.7084e+07
1.70109e+07
1.69232e+07
1.68249e+07
1.67194e+07
1.66096e+07
1.64975e+07
1.63847e+07
1.62726e+07
1.61621e+07
1.60537e+07
1.5948e+07
1.58454e+07
1.57461e+07
1.56501e+07
1.55576e+07
1.71647e+07
1.71356e+07
1.70821e+07
1.70093e+07
1.69218e+07
1.68237e+07
1.67185e+07
1.66088e+07
1.64968e+07
1.63842e+07
1.62722e+07
1.61617e+07
1.60535e+07
1.59479e+07
1.58453e+07
1.5746e+07
1.56501e+07
1.55576e+07
1.29751e+07
1.2974e+07
1.29718e+07
1.29684e+07
1.29639e+07
1.29581e+07
1.29512e+07
1.2943e+07
1.29335e+07
1.29228e+07
1.29108e+07
1.28974e+07
1.28827e+07
1.28667e+07
1.28493e+07
1.28306e+07
1.28104e+07
1.27889e+07
1.27659e+07
1.27416e+07
1.27158e+07
1.26886e+07
1.26599e+07
1.26297e+07
1.25981e+07
1.2565e+07
1.25304e+07
1.24942e+07
1.24565e+07
1.24173e+07
1.23764e+07
1.23339e+07
1.22898e+07
1.22439e+07
1.21964e+07
1.21471e+07
1.20961e+07
1.20431e+07
1.19883e+07
1.19316e+07
1.18728e+07
1.18119e+07
1.17487e+07
1.16832e+07
1.16151e+07
1.15442e+07
1.14704e+07
1.13934e+07
1.13126e+07
1.12277e+07
1.1138e+07
1.10424e+07
1.09394e+07
1.08258e+07
1.06985e+07
1.06929e+07
1.06896e+07
1.06863e+07
1.06832e+07
1.06801e+07
1.06771e+07
1.06741e+07
1.06712e+07
1.06683e+07
1.06654e+07
1.06626e+07
1.06598e+07
1.0657e+07
1.06542e+07
1.06514e+07
1.06486e+07
1.06459e+07
1.06431e+07
1.06404e+07
1.06376e+07
1.06349e+07
1.06322e+07
1.06295e+07
1.06267e+07
1.0624e+07
1.06213e+07
1.06186e+07
1.06159e+07
1.06131e+07
1.06104e+07
1.06076e+07
1.06049e+07
1.06021e+07
1.05994e+07
1.05966e+07
1.05938e+07
1.0591e+07
1.05882e+07
1.05854e+07
1.05826e+07
1.05798e+07
1.05769e+07
1.05741e+07
1.05712e+07
1.05683e+07
1.05654e+07
1.05625e+07
1.05595e+07
1.05566e+07
1.05536e+07
1.05506e+07
1.05476e+07
1.05446e+07
1.05415e+07
1.05385e+07
1.05354e+07
1.05323e+07
1.05292e+07
1.0526e+07
1.05228e+07
1.05197e+07
1.05164e+07
1.05132e+07
1.051e+07
1.05067e+07
1.05034e+07
1.05e+07
1.04967e+07
1.04933e+07
1.04899e+07
1.04865e+07
1.0483e+07
1.04796e+07
1.04761e+07
1.04725e+07
1.0469e+07
1.04654e+07
1.04618e+07
1.04582e+07
1.04545e+07
1.04508e+07
1.04471e+07
1.04434e+07
1.04396e+07
1.04358e+07
1.0432e+07
1.04281e+07
1.04242e+07
1.04203e+07
1.04163e+07
1.04124e+07
1.04083e+07
1.04043e+07
1.04002e+07
1.03961e+07
1.0392e+07
1.03878e+07
1.03836e+07
1.03794e+07
1.03751e+07
1.03708e+07
1.03665e+07
1.03621e+07
1.03577e+07
1.03533e+07
1.03488e+07
1.03443e+07
1.03398e+07
1.03352e+07
1.03306e+07
1.0326e+07
1.03213e+07
1.03166e+07
1.03118e+07
1.03071e+07
1.03022e+07
1.02974e+07
1.02925e+07
1.02876e+07
1.02827e+07
1.02777e+07
1.02727e+07
1.02677e+07
1.02628e+07
1.02578e+07
1.29795e+07
1.29784e+07
1.29762e+07
1.29728e+07
1.29682e+07
1.29624e+07
1.29555e+07
1.29472e+07
1.29377e+07
1.2927e+07
1.29149e+07
1.29015e+07
1.28867e+07
1.28707e+07
1.28532e+07
1.28344e+07
1.28142e+07
1.27926e+07
1.27696e+07
1.27451e+07
1.27193e+07
1.2692e+07
1.26633e+07
1.26331e+07
1.26015e+07
1.25684e+07
1.25337e+07
1.24976e+07
1.24599e+07
1.24206e+07
1.23798e+07
1.23374e+07
1.22933e+07
1.22475e+07
1.22e+07
1.21508e+07
1.20998e+07
1.2047e+07
1.19923e+07
1.19357e+07
1.1877e+07
1.18162e+07
1.17532e+07
1.16878e+07
1.162e+07
1.15494e+07
1.1476e+07
1.13995e+07
1.13194e+07
1.12354e+07
1.11469e+07
1.10528e+07
1.09515e+07
1.08393e+07
1.07046e+07
1.06924e+07
1.06892e+07
1.06861e+07
1.0683e+07
1.068e+07
1.0677e+07
1.0674e+07
1.06711e+07
1.06682e+07
1.06654e+07
1.06625e+07
1.06597e+07
1.06569e+07
1.06541e+07
1.06513e+07
1.06486e+07
1.06458e+07
1.06431e+07
1.06403e+07
1.06376e+07
1.06349e+07
1.06322e+07
1.06294e+07
1.06267e+07
1.0624e+07
1.06213e+07
1.06186e+07
1.06158e+07
1.06131e+07
1.06104e+07
1.06076e+07
1.06049e+07
1.06021e+07
1.05994e+07
1.05966e+07
1.05938e+07
1.0591e+07
1.05882e+07
1.05854e+07
1.05826e+07
1.05798e+07
1.05769e+07
1.05741e+07
1.05712e+07
1.05683e+07
1.05654e+07
1.05625e+07
1.05595e+07
1.05566e+07
1.05536e+07
1.05506e+07
1.05476e+07
1.05446e+07
1.05415e+07
1.05385e+07
1.05354e+07
1.05323e+07
1.05292e+07
1.0526e+07
1.05228e+07
1.05196e+07
1.05164e+07
1.05132e+07
1.05099e+07
1.05067e+07
1.05034e+07
1.05e+07
1.04967e+07
1.04933e+07
1.04899e+07
1.04865e+07
1.0483e+07
1.04796e+07
1.04761e+07
1.04725e+07
1.0469e+07
1.04654e+07
1.04618e+07
1.04582e+07
1.04545e+07
1.04508e+07
1.04471e+07
1.04434e+07
1.04396e+07
1.04358e+07
1.0432e+07
1.04281e+07
1.04242e+07
1.04203e+07
1.04163e+07
1.04124e+07
1.04083e+07
1.04043e+07
1.04002e+07
1.03961e+07
1.0392e+07
1.03878e+07
1.03836e+07
1.03794e+07
1.03751e+07
1.03708e+07
1.03665e+07
1.03621e+07
1.03577e+07
1.03533e+07
1.03488e+07
1.03443e+07
1.03398e+07
1.03352e+07
1.03306e+07
1.0326e+07
1.03213e+07
1.03166e+07
1.03118e+07
1.03071e+07
1.03022e+07
1.02974e+07
1.02925e+07
1.02876e+07
1.02827e+07
1.02777e+07
1.02727e+07
1.02677e+07
1.02627e+07
1.02578e+07
1.29885e+07
1.29874e+07
1.29851e+07
1.29817e+07
1.29771e+07
1.29713e+07
1.29642e+07
1.2956e+07
1.29464e+07
1.29355e+07
1.29234e+07
1.29099e+07
1.28951e+07
1.28789e+07
1.28614e+07
1.28424e+07
1.28221e+07
1.28004e+07
1.27773e+07
1.27527e+07
1.27268e+07
1.26994e+07
1.26706e+07
1.26403e+07
1.26086e+07
1.25754e+07
1.25407e+07
1.25045e+07
1.24667e+07
1.24274e+07
1.23866e+07
1.23441e+07
1.23e+07
1.22543e+07
1.22069e+07
1.21577e+07
1.21068e+07
1.20541e+07
1.19995e+07
1.1943e+07
1.18845e+07
1.18239e+07
1.17612e+07
1.16962e+07
1.16288e+07
1.15589e+07
1.14863e+07
1.14107e+07
1.13319e+07
1.12497e+07
1.11635e+07
1.10728e+07
1.09771e+07
1.08753e+07
1.07661e+07
1.06921e+07
1.06888e+07
1.06858e+07
1.06827e+07
1.06797e+07
1.06768e+07
1.06738e+07
1.06709e+07
1.06681e+07
1.06652e+07
1.06624e+07
1.06596e+07
1.06568e+07
1.0654e+07
1.06512e+07
1.06485e+07
1.06457e+07
1.0643e+07
1.06403e+07
1.06375e+07
1.06348e+07
1.06321e+07
1.06294e+07
1.06267e+07
1.06239e+07
1.06212e+07
1.06185e+07
1.06158e+07
1.06131e+07
1.06103e+07
1.06076e+07
1.06048e+07
1.06021e+07
1.05993e+07
1.05966e+07
1.05938e+07
1.0591e+07
1.05882e+07
1.05854e+07
1.05826e+07
1.05797e+07
1.05769e+07
1.0574e+07
1.05712e+07
1.05683e+07
1.05654e+07
1.05624e+07
1.05595e+07
1.05566e+07
1.05536e+07
1.05506e+07
1.05476e+07
1.05446e+07
1.05415e+07
1.05385e+07
1.05354e+07
1.05323e+07
1.05291e+07
1.0526e+07
1.05228e+07
1.05196e+07
1.05164e+07
1.05132e+07
1.05099e+07
1.05067e+07
1.05034e+07
1.05e+07
1.04967e+07
1.04933e+07
1.04899e+07
1.04865e+07
1.0483e+07
1.04796e+07
1.04761e+07
1.04725e+07
1.0469e+07
1.04654e+07
1.04618e+07
1.04582e+07
1.04545e+07
1.04508e+07
1.04471e+07
1.04434e+07
1.04396e+07
1.04358e+07
1.04319e+07
1.04281e+07
1.04242e+07
1.04203e+07
1.04163e+07
1.04123e+07
1.04083e+07
1.04043e+07
1.04002e+07
1.03961e+07
1.0392e+07
1.03878e+07
1.03836e+07
1.03794e+07
1.03751e+07
1.03708e+07
1.03665e+07
1.03621e+07
1.03577e+07
1.03533e+07
1.03488e+07
1.03443e+07
1.03398e+07
1.03352e+07
1.03306e+07
1.0326e+07
1.03213e+07
1.03166e+07
1.03118e+07
1.03071e+07
1.03022e+07
1.02974e+07
1.02925e+07
1.02876e+07
1.02827e+07
1.02777e+07
1.02727e+07
1.02677e+07
1.02627e+07
1.02577e+07
1.30021e+07
1.3001e+07
1.29987e+07
1.29952e+07
1.29906e+07
1.29847e+07
1.29776e+07
1.29692e+07
1.29596e+07
1.29486e+07
1.29363e+07
1.29227e+07
1.29078e+07
1.28915e+07
1.28738e+07
1.28547e+07
1.28343e+07
1.28124e+07
1.27891e+07
1.27644e+07
1.27383e+07
1.27108e+07
1.26818e+07
1.26514e+07
1.26195e+07
1.25861e+07
1.25513e+07
1.25149e+07
1.24771e+07
1.24377e+07
1.23967e+07
1.23542e+07
1.231e+07
1.22643e+07
1.22168e+07
1.21677e+07
1.21168e+07
1.20642e+07
1.20098e+07
1.19535e+07
1.18952e+07
1.1835e+07
1.17726e+07
1.17082e+07
1.16414e+07
1.15723e+07
1.15007e+07
1.14264e+07
1.13493e+07
1.12692e+07
1.11858e+07
1.10988e+07
1.1008e+07
1.09129e+07
1.08116e+07
1.06963e+07
1.06883e+07
1.06853e+07
1.06823e+07
1.06794e+07
1.06765e+07
1.06736e+07
1.06707e+07
1.06678e+07
1.0665e+07
1.06622e+07
1.06594e+07
1.06566e+07
1.06538e+07
1.06511e+07
1.06483e+07
1.06456e+07
1.06429e+07
1.06401e+07
1.06374e+07
1.06347e+07
1.0632e+07
1.06293e+07
1.06266e+07
1.06239e+07
1.06212e+07
1.06184e+07
1.06157e+07
1.0613e+07
1.06103e+07
1.06075e+07
1.06048e+07
1.06021e+07
1.05993e+07
1.05965e+07
1.05938e+07
1.0591e+07
1.05882e+07
1.05854e+07
1.05825e+07
1.05797e+07
1.05769e+07
1.0574e+07
1.05711e+07
1.05683e+07
1.05653e+07
1.05624e+07
1.05595e+07
1.05565e+07
1.05536e+07
1.05506e+07
1.05476e+07
1.05446e+07
1.05415e+07
1.05384e+07
1.05354e+07
1.05323e+07
1.05291e+07
1.0526e+07
1.05228e+07
1.05196e+07
1.05164e+07
1.05132e+07
1.05099e+07
1.05067e+07
1.05034e+07
1.05e+07
1.04967e+07
1.04933e+07
1.04899e+07
1.04865e+07
1.0483e+07
1.04796e+07
1.04761e+07
1.04725e+07
1.0469e+07
1.04654e+07
1.04618e+07
1.04582e+07
1.04545e+07
1.04508e+07
1.04471e+07
1.04434e+07
1.04396e+07
1.04358e+07
1.04319e+07
1.04281e+07
1.04242e+07
1.04203e+07
1.04163e+07
1.04123e+07
1.04083e+07
1.04043e+07
1.04002e+07
1.03961e+07
1.0392e+07
1.03878e+07
1.03836e+07
1.03794e+07
1.03751e+07
1.03708e+07
1.03665e+07
1.03621e+07
1.03577e+07
1.03533e+07
1.03488e+07
1.03443e+07
1.03398e+07
1.03352e+07
1.03306e+07
1.0326e+07
1.03213e+07
1.03166e+07
1.03118e+07
1.0307e+07
1.03022e+07
1.02974e+07
1.02925e+07
1.02876e+07
1.02826e+07
1.02777e+07
1.02727e+07
1.02677e+07
1.02627e+07
1.02576e+07
1.30205e+07
1.30194e+07
1.3017e+07
1.30135e+07
1.30088e+07
1.30028e+07
1.29956e+07
1.29871e+07
1.29773e+07
1.29662e+07
1.29538e+07
1.294e+07
1.29248e+07
1.29083e+07
1.28905e+07
1.28712e+07
1.28505e+07
1.28284e+07
1.2805e+07
1.278e+07
1.27537e+07
1.27259e+07
1.26967e+07
1.26661e+07
1.2634e+07
1.26004e+07
1.25653e+07
1.25288e+07
1.24907e+07
1.24512e+07
1.241e+07
1.23674e+07
1.23231e+07
1.22773e+07
1.22298e+07
1.21807e+07
1.21299e+07
1.20773e+07
1.2023e+07
1.19669e+07
1.1909e+07
1.18491e+07
1.17873e+07
1.17234e+07
1.16574e+07
1.15892e+07
1.15188e+07
1.14459e+07
1.13706e+07
1.12927e+07
1.12121e+07
1.11287e+07
1.10425e+07
1.09534e+07
1.08617e+07
1.07675e+07
1.06882e+07
1.06848e+07
1.06819e+07
1.0679e+07
1.06761e+07
1.06732e+07
1.06704e+07
1.06675e+07
1.06647e+07
1.06619e+07
1.06592e+07
1.06564e+07
1.06536e+07
1.06509e+07
1.06482e+07
1.06454e+07
1.06427e+07
1.064e+07
1.06373e+07
1.06346e+07
1.06319e+07
1.06292e+07
1.06265e+07
1.06238e+07
1.06211e+07
1.06184e+07
1.06156e+07
1.06129e+07
1.06102e+07
1.06075e+07
1.06047e+07
1.0602e+07
1.05992e+07
1.05965e+07
1.05937e+07
1.05909e+07
1.05881e+07
1.05853e+07
1.05825e+07
1.05797e+07
1.05768e+07
1.0574e+07
1.05711e+07
1.05682e+07
1.05653e+07
1.05624e+07
1.05595e+07
1.05565e+07
1.05536e+07
1.05506e+07
1.05476e+07
1.05445e+07
1.05415e+07
1.05384e+07
1.05353e+07
1.05322e+07
1.05291e+07
1.0526e+07
1.05228e+07
1.05196e+07
1.05164e+07
1.05132e+07
1.05099e+07
1.05066e+07
1.05033e+07
1.05e+07
1.04967e+07
1.04933e+07
1.04899e+07
1.04865e+07
1.0483e+07
1.04796e+07
1.04761e+07
1.04725e+07
1.0469e+07
1.04654e+07
1.04618e+07
1.04582e+07
1.04545e+07
1.04508e+07
1.04471e+07
1.04433e+07
1.04396e+07
1.04358e+07
1.04319e+07
1.04281e+07
1.04242e+07
1.04203e+07
1.04163e+07
1.04123e+07
1.04083e+07
1.04043e+07
1.04002e+07
1.03961e+07
1.0392e+07
1.03878e+07
1.03836e+07
1.03794e+07
1.03751e+07
1.03708e+07
1.03665e+07
1.03621e+07
1.03577e+07
1.03533e+07
1.03488e+07
1.03443e+07
1.03398e+07
1.03352e+07
1.03306e+07
1.0326e+07
1.03213e+07
1.03166e+07
1.03118e+07
1.0307e+07
1.03022e+07
1.02974e+07
1.02925e+07
1.02876e+07
1.02826e+07
1.02777e+07
1.02727e+07
1.02676e+07
1.02626e+07
1.02576e+07
1.30437e+07
1.30425e+07
1.30401e+07
1.30365e+07
1.30316e+07
1.30256e+07
1.30182e+07
1.30095e+07
1.29996e+07
1.29882e+07
1.29756e+07
1.29616e+07
1.29462e+07
1.29295e+07
1.29113e+07
1.28918e+07
1.28708e+07
1.28485e+07
1.28247e+07
1.27995e+07
1.27728e+07
1.27448e+07
1.27152e+07
1.26843e+07
1.26519e+07
1.2618e+07
1.25827e+07
1.25459e+07
1.25076e+07
1.24678e+07
1.24265e+07
1.23836e+07
1.23392e+07
1.22933e+07
1.22457e+07
1.21966e+07
1.21458e+07
1.20933e+07
1.20392e+07
1.19833e+07
1.19256e+07
1.18661e+07
1.18048e+07
1.17416e+07
1.16764e+07
1.16092e+07
1.15399e+07
1.14686e+07
1.1395e+07
1.13192e+07
1.12412e+07
1.11609e+07
1.10782e+07
1.09931e+07
1.09051e+07
1.08119e+07
1.07048e+07
1.06843e+07
1.06813e+07
1.06785e+07
1.06756e+07
1.06728e+07
1.067e+07
1.06672e+07
1.06644e+07
1.06616e+07
1.06589e+07
1.06561e+07
1.06534e+07
1.06507e+07
1.06479e+07
1.06452e+07
1.06425e+07
1.06398e+07
1.06371e+07
1.06344e+07
1.06317e+07
1.0629e+07
1.06263e+07
1.06236e+07
1.06209e+07
1.06182e+07
1.06155e+07
1.06128e+07
1.06101e+07
1.06074e+07
1.06047e+07
1.06019e+07
1.05992e+07
1.05964e+07
1.05936e+07
1.05909e+07
1.05881e+07
1.05853e+07
1.05825e+07
1.05796e+07
1.05768e+07
1.05739e+07
1.05711e+07
1.05682e+07
1.05653e+07
1.05624e+07
1.05594e+07
1.05565e+07
1.05535e+07
1.05505e+07
1.05475e+07
1.05445e+07
1.05415e+07
1.05384e+07
1.05353e+07
1.05322e+07
1.05291e+07
1.0526e+07
1.05228e+07
1.05196e+07
1.05164e+07
1.05132e+07
1.05099e+07
1.05066e+07
1.05033e+07
1.05e+07
1.04967e+07
1.04933e+07
1.04899e+07
1.04865e+07
1.0483e+07
1.04795e+07
1.0476e+07
1.04725e+07
1.0469e+07
1.04654e+07
1.04618e+07
1.04582e+07
1.04545e+07
1.04508e+07
1.04471e+07
1.04433e+07
1.04396e+07
1.04358e+07
1.04319e+07
1.04281e+07
1.04242e+07
1.04203e+07
1.04163e+07
1.04123e+07
1.04083e+07
1.04043e+07
1.04002e+07
1.03961e+07
1.0392e+07
1.03878e+07
1.03836e+07
1.03794e+07
1.03751e+07
1.03708e+07
1.03665e+07
1.03621e+07
1.03577e+07
1.03533e+07
1.03488e+07
1.03443e+07
1.03398e+07
1.03352e+07
1.03306e+07
1.0326e+07
1.03213e+07
1.03166e+07
1.03118e+07
1.0307e+07
1.03022e+07
1.02974e+07
1.02925e+07
1.02876e+07
1.02826e+07
1.02776e+07
1.02726e+07
1.02676e+07
1.02626e+07
1.02575e+07
1.30718e+07
1.30705e+07
1.3068e+07
1.30643e+07
1.30593e+07
1.30531e+07
1.30455e+07
1.30366e+07
1.30264e+07
1.30148e+07
1.30019e+07
1.29876e+07
1.29719e+07
1.29548e+07
1.29363e+07
1.29164e+07
1.28951e+07
1.28724e+07
1.28482e+07
1.28226e+07
1.27956e+07
1.27671e+07
1.27373e+07
1.27059e+07
1.26731e+07
1.26389e+07
1.26032e+07
1.25661e+07
1.25275e+07
1.24874e+07
1.24458e+07
1.24028e+07
1.23582e+07
1.23121e+07
1.22644e+07
1.22152e+07
1.21644e+07
1.2112e+07
1.2058e+07
1.20023e+07
1.19449e+07
1.18858e+07
1.1825e+07
1.17624e+07
1.1698e+07
1.16318e+07
1.15637e+07
1.14937e+07
1.14218e+07
1.1348e+07
1.12723e+07
1.11946e+07
1.11152e+07
1.10338e+07
1.09506e+07
1.08652e+07
1.07771e+07
1.06859e+07
1.06806e+07
1.06779e+07
1.06751e+07
1.06723e+07
1.06695e+07
1.06667e+07
1.0664e+07
1.06612e+07
1.06585e+07
1.06558e+07
1.06531e+07
1.06504e+07
1.06477e+07
1.0645e+07
1.06423e+07
1.06396e+07
1.06369e+07
1.06342e+07
1.06316e+07
1.06289e+07
1.06262e+07
1.06235e+07
1.06208e+07
1.06181e+07
1.06154e+07
1.06127e+07
1.061e+07
1.06073e+07
1.06046e+07
1.06018e+07
1.05991e+07
1.05963e+07
1.05936e+07
1.05908e+07
1.0588e+07
1.05852e+07
1.05824e+07
1.05796e+07
1.05768e+07
1.05739e+07
1.0571e+07
1.05682e+07
1.05653e+07
1.05623e+07
1.05594e+07
1.05565e+07
1.05535e+07
1.05505e+07
1.05475e+07
1.05445e+07
1.05415e+07
1.05384e+07
1.05353e+07
1.05322e+07
1.05291e+07
1.05259e+07
1.05228e+07
1.05196e+07
1.05164e+07
1.05132e+07
1.05099e+07
1.05066e+07
1.05033e+07
1.05e+07
1.04967e+07
1.04933e+07
1.04899e+07
1.04865e+07
1.0483e+07
1.04795e+07
1.0476e+07
1.04725e+07
1.0469e+07
1.04654e+07
1.04618e+07
1.04581e+07
1.04545e+07
1.04508e+07
1.04471e+07
1.04433e+07
1.04396e+07
1.04358e+07
1.04319e+07
1.04281e+07
1.04242e+07
1.04203e+07
1.04163e+07
1.04123e+07
1.04083e+07
1.04043e+07
1.04002e+07
1.03961e+07
1.0392e+07
1.03878e+07
1.03836e+07
1.03794e+07
1.03751e+07
1.03708e+07
1.03665e+07
1.03621e+07
1.03577e+07
1.03533e+07
1.03488e+07
1.03443e+07
1.03398e+07
1.03352e+07
1.03306e+07
1.03259e+07
1.03213e+07
1.03166e+07
1.03118e+07
1.0307e+07
1.03022e+07
1.02974e+07
1.02925e+07
1.02876e+07
1.02826e+07
1.02776e+07
1.02726e+07
1.02676e+07
1.02625e+07
1.02574e+07
1.31047e+07
1.31034e+07
1.31008e+07
1.3097e+07
1.30918e+07
1.30854e+07
1.30776e+07
1.30684e+07
1.30579e+07
1.3046e+07
1.30327e+07
1.30181e+07
1.3002e+07
1.29845e+07
1.29655e+07
1.29452e+07
1.29234e+07
1.29002e+07
1.28755e+07
1.28495e+07
1.2822e+07
1.2793e+07
1.27627e+07
1.27309e+07
1.26976e+07
1.2663e+07
1.26269e+07
1.25893e+07
1.25503e+07
1.25099e+07
1.2468e+07
1.24247e+07
1.23798e+07
1.23335e+07
1.22857e+07
1.22364e+07
1.21855e+07
1.21331e+07
1.20792e+07
1.20237e+07
1.19666e+07
1.19078e+07
1.18475e+07
1.17855e+07
1.17218e+07
1.16565e+07
1.15895e+07
1.15208e+07
1.14504e+07
1.13783e+07
1.13047e+07
1.12294e+07
1.11526e+07
1.10744e+07
1.09949e+07
1.09143e+07
1.08329e+07
1.07508e+07
1.06805e+07
1.06773e+07
1.06745e+07
1.06718e+07
1.0669e+07
1.06663e+07
1.06635e+07
1.06608e+07
1.06581e+07
1.06554e+07
1.06527e+07
1.06501e+07
1.06474e+07
1.06447e+07
1.0642e+07
1.06394e+07
1.06367e+07
1.0634e+07
1.06314e+07
1.06287e+07
1.0626e+07
1.06233e+07
1.06207e+07
1.0618e+07
1.06153e+07
1.06126e+07
1.06099e+07
1.06072e+07
1.06045e+07
1.06017e+07
1.0599e+07
1.05962e+07
1.05935e+07
1.05907e+07
1.05879e+07
1.05852e+07
1.05823e+07
1.05795e+07
1.05767e+07
1.05738e+07
1.0571e+07
1.05681e+07
1.05652e+07
1.05623e+07
1.05594e+07
1.05564e+07
1.05535e+07
1.05505e+07
1.05475e+07
1.05445e+07
1.05414e+07
1.05384e+07
1.05353e+07
1.05322e+07
1.05291e+07
1.05259e+07
1.05228e+07
1.05196e+07
1.05164e+07
1.05131e+07
1.05099e+07
1.05066e+07
1.05033e+07
1.05e+07
1.04966e+07
1.04933e+07
1.04899e+07
1.04865e+07
1.0483e+07
1.04795e+07
1.0476e+07
1.04725e+07
1.0469e+07
1.04654e+07
1.04618e+07
1.04581e+07
1.04545e+07
1.04508e+07
1.04471e+07
1.04433e+07
1.04396e+07
1.04358e+07
1.04319e+07
1.04281e+07
1.04242e+07
1.04203e+07
1.04163e+07
1.04123e+07
1.04083e+07
1.04043e+07
1.04002e+07
1.03961e+07
1.0392e+07
1.03878e+07
1.03836e+07
1.03794e+07
1.03751e+07
1.03708e+07
1.03665e+07
1.03621e+07
1.03577e+07
1.03533e+07
1.03488e+07
1.03443e+07
1.03398e+07
1.03352e+07
1.03306e+07
1.03259e+07
1.03213e+07
1.03166e+07
1.03118e+07
1.0307e+07
1.03022e+07
1.02974e+07
1.02925e+07
1.02875e+07
1.02826e+07
1.02776e+07
1.02726e+07
1.02675e+07
1.02624e+07
1.02573e+07
1.31428e+07
1.31414e+07
1.31387e+07
1.31347e+07
1.31293e+07
1.31226e+07
1.31145e+07
1.3105e+07
1.30941e+07
1.30818e+07
1.30681e+07
1.3053e+07
1.30364e+07
1.30183e+07
1.29989e+07
1.29779e+07
1.29556e+07
1.29318e+07
1.29066e+07
1.28799e+07
1.28518e+07
1.28223e+07
1.27914e+07
1.2759e+07
1.27253e+07
1.26901e+07
1.26535e+07
1.26154e+07
1.2576e+07
1.25351e+07
1.24929e+07
1.24491e+07
1.2404e+07
1.23574e+07
1.23094e+07
1.22599e+07
1.2209e+07
1.21565e+07
1.21027e+07
1.20473e+07
1.19904e+07
1.1932e+07
1.1872e+07
1.18106e+07
1.17476e+07
1.16831e+07
1.1617e+07
1.15494e+07
1.14804e+07
1.14098e+07
1.13379e+07
1.12646e+07
1.119e+07
1.11142e+07
1.10373e+07
1.09592e+07
1.08794e+07
1.07961e+07
1.07015e+07
1.06767e+07
1.06739e+07
1.06711e+07
1.06684e+07
1.06657e+07
1.0663e+07
1.06604e+07
1.06577e+07
1.0655e+07
1.06524e+07
1.06497e+07
1.0647e+07
1.06444e+07
1.06417e+07
1.06391e+07
1.06364e+07
1.06338e+07
1.06311e+07
1.06285e+07
1.06258e+07
1.06231e+07
1.06205e+07
1.06178e+07
1.06151e+07
1.06124e+07
1.06097e+07
1.0607e+07
1.06043e+07
1.06016e+07
1.05989e+07
1.05962e+07
1.05934e+07
1.05906e+07
1.05879e+07
1.05851e+07
1.05823e+07
1.05795e+07
1.05766e+07
1.05738e+07
1.05709e+07
1.05681e+07
1.05652e+07
1.05623e+07
1.05593e+07
1.05564e+07
1.05534e+07
1.05505e+07
1.05475e+07
1.05444e+07
1.05414e+07
1.05383e+07
1.05353e+07
1.05322e+07
1.05291e+07
1.05259e+07
1.05228e+07
1.05196e+07
1.05164e+07
1.05131e+07
1.05099e+07
1.05066e+07
1.05033e+07
1.05e+07
1.04966e+07
1.04933e+07
1.04899e+07
1.04864e+07
1.0483e+07
1.04795e+07
1.0476e+07
1.04725e+07
1.0469e+07
1.04654e+07
1.04618e+07
1.04581e+07
1.04545e+07
1.04508e+07
1.04471e+07
1.04433e+07
1.04396e+07
1.04358e+07
1.04319e+07
1.04281e+07
1.04242e+07
1.04203e+07
1.04163e+07
1.04123e+07
1.04083e+07
1.04043e+07
1.04002e+07
1.03961e+07
1.0392e+07
1.03878e+07
1.03836e+07
1.03794e+07
1.03751e+07
1.03708e+07
1.03665e+07
1.03621e+07
1.03577e+07
1.03533e+07
1.03488e+07
1.03443e+07
1.03398e+07
1.03352e+07
1.03306e+07
1.03259e+07
1.03213e+07
1.03165e+07
1.03118e+07
1.0307e+07
1.03022e+07
1.02973e+07
1.02924e+07
1.02875e+07
1.02826e+07
1.02776e+07
1.02725e+07
1.02675e+07
1.02624e+07
1.02572e+07
1.31862e+07
1.31847e+07
1.31818e+07
1.31776e+07
1.31719e+07
1.31649e+07
1.31564e+07
1.31465e+07
1.31352e+07
1.31224e+07
1.31081e+07
1.30924e+07
1.30752e+07
1.30565e+07
1.30364e+07
1.30148e+07
1.29917e+07
1.29672e+07
1.29413e+07
1.2914e+07
1.28852e+07
1.2855e+07
1.28234e+07
1.27903e+07
1.27559e+07
1.27201e+07
1.26829e+07
1.26443e+07
1.26043e+07
1.2563e+07
1.25202e+07
1.24761e+07
1.24305e+07
1.23836e+07
1.23353e+07
1.22856e+07
1.22345e+07
1.2182e+07
1.21281e+07
1.20728e+07
1.20161e+07
1.19579e+07
1.18983e+07
1.18373e+07
1.17749e+07
1.17111e+07
1.16459e+07
1.15793e+07
1.15114e+07
1.14421e+07
1.13717e+07
1.13e+07
1.12272e+07
1.11534e+07
1.10785e+07
1.10027e+07
1.09257e+07
1.0847e+07
1.07656e+07
1.06792e+07
1.06731e+07
1.06705e+07
1.06678e+07
1.06652e+07
1.06625e+07
1.06599e+07
1.06572e+07
1.06546e+07
1.06519e+07
1.06493e+07
1.06467e+07
1.0644e+07
1.06414e+07
1.06388e+07
1.06361e+07
1.06335e+07
1.06309e+07
1.06282e+07
1.06256e+07
1.06229e+07
1.06203e+07
1.06176e+07
1.0615e+07
1.06123e+07
1.06096e+07
1.06069e+07
1.06042e+07
1.06015e+07
1.05988e+07
1.0596e+07
1.05933e+07
1.05905e+07
1.05878e+07
1.0585e+07
1.05822e+07
1.05794e+07
1.05766e+07
1.05737e+07
1.05709e+07
1.0568e+07
1.05651e+07
1.05622e+07
1.05593e+07
1.05563e+07
1.05534e+07
1.05504e+07
1.05474e+07
1.05444e+07
1.05414e+07
1.05383e+07
1.05352e+07
1.05321e+07
1.0529e+07
1.05259e+07
1.05227e+07
1.05195e+07
1.05163e+07
1.05131e+07
1.05099e+07
1.05066e+07
1.05033e+07
1.05e+07
1.04966e+07
1.04933e+07
1.04899e+07
1.04864e+07
1.0483e+07
1.04795e+07
1.0476e+07
1.04725e+07
1.04689e+07
1.04654e+07
1.04618e+07
1.04581e+07
1.04545e+07
1.04508e+07
1.04471e+07
1.04433e+07
1.04396e+07
1.04358e+07
1.04319e+07
1.04281e+07
1.04242e+07
1.04203e+07
1.04163e+07
1.04123e+07
1.04083e+07
1.04043e+07
1.04002e+07
1.03961e+07
1.0392e+07
1.03878e+07
1.03836e+07
1.03794e+07
1.03751e+07
1.03708e+07
1.03665e+07
1.03621e+07
1.03577e+07
1.03533e+07
1.03488e+07
1.03443e+07
1.03398e+07
1.03352e+07
1.03306e+07
1.03259e+07
1.03213e+07
1.03165e+07
1.03118e+07
1.0307e+07
1.03022e+07
1.02973e+07
1.02924e+07
1.02875e+07
1.02825e+07
1.02775e+07
1.02725e+07
1.02674e+07
1.02623e+07
1.02571e+07
1.3235e+07
1.32333e+07
1.32303e+07
1.32258e+07
1.32199e+07
1.32124e+07
1.32035e+07
1.31931e+07
1.31812e+07
1.31677e+07
1.31528e+07
1.31363e+07
1.31184e+07
1.30989e+07
1.3078e+07
1.30556e+07
1.30318e+07
1.30064e+07
1.29797e+07
1.29515e+07
1.29219e+07
1.28909e+07
1.28585e+07
1.28247e+07
1.27895e+07
1.27529e+07
1.2715e+07
1.26758e+07
1.26352e+07
1.25932e+07
1.25499e+07
1.25053e+07
1.24593e+07
1.2412e+07
1.23633e+07
1.23134e+07
1.22621e+07
1.22094e+07
1.21554e+07
1.21001e+07
1.20434e+07
1.19854e+07
1.19261e+07
1.18655e+07
1.18036e+07
1.17403e+07
1.16758e+07
1.16101e+07
1.15431e+07
1.1475e+07
1.14057e+07
1.13354e+07
1.12641e+07
1.11919e+07
1.11188e+07
1.10449e+07
1.09702e+07
1.08948e+07
1.08189e+07
1.07428e+07
1.06731e+07
1.06698e+07
1.06672e+07
1.06645e+07
1.06619e+07
1.06593e+07
1.06567e+07
1.06541e+07
1.06515e+07
1.06489e+07
1.06463e+07
1.06437e+07
1.06411e+07
1.06384e+07
1.06358e+07
1.06332e+07
1.06306e+07
1.0628e+07
1.06253e+07
1.06227e+07
1.06201e+07
1.06174e+07
1.06148e+07
1.06121e+07
1.06094e+07
1.06068e+07
1.06041e+07
1.06014e+07
1.05986e+07
1.05959e+07
1.05932e+07
1.05904e+07
1.05877e+07
1.05849e+07
1.05821e+07
1.05793e+07
1.05765e+07
1.05737e+07
1.05708e+07
1.05679e+07
1.05651e+07
1.05622e+07
1.05592e+07
1.05563e+07
1.05533e+07
1.05504e+07
1.05474e+07
1.05444e+07
1.05413e+07
1.05383e+07
1.05352e+07
1.05321e+07
1.0529e+07
1.05259e+07
1.05227e+07
1.05195e+07
1.05163e+07
1.05131e+07
1.05098e+07
1.05066e+07
1.05033e+07
1.05e+07
1.04966e+07
1.04932e+07
1.04898e+07
1.04864e+07