/*--------------------------------*- C++ -*----------------------------------*\
  =========                 |
  \\      /  F ield         | OpenFOAM: The Open Source CFD Toolbox
   \\    /   O peration     | Website:  https://openfoam.org
    \\  /    A nd           | Version:  10
     \\/     M anipulation  |
\*---------------------------------------------------------------------------*/
FoamFile
{
    format      ascii;
    class       surfaceScalarField;
    location    "2.37";
    object      phi;
}
// * * * * * * * * * * * * * * * * * * * * * * * * * * * * * * * * * * * * * //

dimensions      [0 3 -1 0 0 0 0];

internalField   nonuniform List<scalar> 
24170
(
1.46703e-09
-1.46703e-09
2.72189e-09
-1.25486e-09
3.71329e-09
-9.91398e-10
4.46025e-09
-7.46957e-10
5.01232e-09
-5.52076e-10
5.42307e-09
-4.10747e-10
5.73858e-09
-3.15512e-10
5.99505e-09
-2.56472e-10
6.22025e-09
-2.25197e-10
6.43622e-09
-2.15967e-10
6.66227e-09
-2.26057e-10
6.91837e-09
-2.56097e-10
7.22972e-09
-3.11351e-10
7.63529e-09
-4.05569e-10
8.20798e-09
-5.72688e-10
9.11663e-09
-9.08644e-10
1.08848e-08
-1.76815e-09
-5.064e-09
1.59488e-08
1.66066e-09
-3.12769e-09
3.07537e-09
-2.66957e-09
4.18647e-09
-2.1025e-09
5.01791e-09
-1.5784e-09
5.62798e-09
-1.16214e-09
6.07858e-09
-8.61348e-10
6.4224e-09
-6.59334e-10
6.70044e-09
-5.34511e-10
6.94388e-09
-4.68639e-10
7.17727e-09
-4.49351e-10
7.42186e-09
-4.70655e-10
7.69931e-09
-5.33549e-10
8.03639e-09
-6.48426e-10
8.4731e-09
-8.4228e-10
9.0798e-09
-1.17939e-09
9.9976e-09
-1.82644e-09
1.15145e-08
-3.28502e-09
-7.24589e-09
1.36964e-08
1.85456e-09
-4.98226e-09
3.42556e-09
-4.24057e-09
4.64972e-09
-3.32665e-09
5.55801e-09
-2.48669e-09
6.21896e-09
-1.82309e-09
6.70341e-09
-1.34581e-09
7.07065e-09
-1.02657e-09
7.36617e-09
-8.30029e-10
7.62415e-09
-7.26615e-10
7.8711e-09
-6.96304e-10
8.12958e-09
-7.29131e-10
8.42183e-09
-8.25802e-10
8.77413e-09
-1.00073e-09
9.22286e-09
-1.29102e-09
9.82372e-09
-1.78025e-09
1.06584e-08
-2.66111e-09
1.17676e-08
-4.39426e-09
-7.97315e-09
1.24949e-08
2.07064e-09
-7.05289e-09
3.81057e-09
-5.98051e-09
5.15137e-09
-4.66745e-09
6.13473e-09
-3.47005e-09
6.84258e-09
-2.53093e-09
7.35649e-09
-1.85972e-09
7.74303e-09
-1.41312e-09
8.05231e-09
-1.13931e-09
8.3213e-09
-9.95603e-10
8.5781e-09
-9.53097e-10
8.84587e-09
-9.96906e-10
9.14641e-09
-1.12634e-09
9.50341e-09
-1.35773e-09
9.94553e-09
-1.73313e-09
1.05061e-08
-2.34077e-09
1.12024e-08
-3.35743e-09
1.1919e-08
-5.11088e-09
-8.01513e-09
1.1961e-08
2.32241e-09
-9.3753e-09
4.25194e-09
-7.91004e-09
5.71602e-09
-6.13153e-09
6.77287e-09
-4.5269e-09
7.52264e-09
-3.2807e-09
8.06026e-09
-2.39734e-09
8.46067e-09
-1.81353e-09
8.77879e-09
-1.45743e-09
9.05416e-09
-1.27098e-09
9.31599e-09
-1.21492e-09
9.58734e-09
-1.26825e-09
9.88835e-09
-1.42735e-09
1.02383e-08
-1.70767e-09
1.06552e-08
-2.15002e-09
1.11478e-08
-2.83342e-09
1.16828e-08
-3.89237e-09
1.20815e-08
-5.5096e-09
-7.75358e-09
1.18199e-08
2.62497e-09
-1.20003e-08
4.77209e-09
-1.00572e-08
6.36713e-09
-7.72657e-09
7.49395e-09
-5.65372e-09
8.27785e-09
-4.0646e-09
8.83077e-09
-2.95025e-09
9.23733e-09
-2.22009e-09
9.55747e-09
-1.77757e-09
9.83297e-09
-1.54647e-09
1.00935e-08
-1.47547e-09
1.03612e-08
-1.53599e-09
1.06536e-08
-1.71966e-09
1.09838e-08
-2.03796e-09
1.13584e-08
-2.52462e-09
1.17647e-08
-3.2397e-09
1.2139e-08
-4.26661e-09
1.23024e-08
-5.67306e-09
-7.36852e-09
1.19174e-08
2.99871e-09
-1.4999e-08
5.39968e-09
-1.24581e-08
7.13276e-09
-9.45965e-09
8.32188e-09
-6.84284e-09
9.12756e-09
-4.87028e-09
9.68336e-09
-3.50606e-09
1.00852e-08
-2.62191e-09
1.0398e-08
-2.09039e-09
1.06653e-08
-1.81375e-09
1.09165e-08
-1.72665e-09
1.11719e-08
-1.79138e-09
1.14452e-08
-1.99297e-09
1.17432e-08
-2.33598e-09
1.20614e-08
-2.84283e-09
1.23719e-08
-3.55021e-09
1.26003e-08
-4.49498e-09
1.25984e-08
-5.67122e-09
-6.94089e-09
1.21708e-08
3.47338e-09
-1.84724e-08
6.17428e-09
-1.5159e-08
8.04937e-09
-1.13347e-08
9.28592e-09
-8.07938e-09
1.00939e-08
-5.67828e-09
1.06346e-08
-4.04672e-09
1.10165e-08
-3.00384e-09
1.13095e-08
-2.38334e-09
1.15577e-08
-2.06203e-09
1.17895e-08
-1.95843e-09
1.20224e-08
-2.02425e-09
1.22657e-08
-2.23623e-09
1.25196e-08
-2.58995e-09
1.27711e-08
-3.09432e-09
1.29842e-08
-3.76327e-09
1.30877e-08
-4.59848e-09
1.29728e-08
-5.55635e-09
-6.50495e-09
1.25369e-08
4.09469e-09
-2.25671e-08
7.15293e-09
-1.82173e-08
9.16611e-09
-1.33479e-08
1.0423e-08
-9.33625e-09
1.12033e-08
-6.45863e-09
1.1703e-08
-4.54639e-09
1.20444e-08
-3.34523e-09
1.2301e-08
-2.64e-09
1.25167e-08
-2.27768e-09
1.2717e-08
-2.15875e-09
1.29159e-08
-2.22313e-09
1.31179e-08
-2.43821e-09
1.33175e-08
-2.78957e-09
1.34959e-08
-3.27268e-09
1.36152e-08
-3.88262e-09
1.36155e-08
-4.5988e-09
1.34239e-08
-5.36471e-09
-6.07369e-09
1.29926e-08
4.93602e-09
-2.75031e-08
8.42027e-09
-2.17015e-08
1.05504e-08
-1.5478e-08
1.17801e-08
-1.0566e-08
1.24872e-08
-7.1657e-09
1.29094e-08
-4.96864e-09
1.31826e-08
-3.61848e-09
1.3382e-08
-2.83931e-09
1.35483e-08
-2.444e-09
1.37031e-08
-2.31355e-09
1.38555e-08
-2.37559e-09
1.40053e-08
-2.58792e-09
1.41421e-08
-2.9264e-09
1.42443e-08
-3.3749e-09
1.42768e-08
-3.91511e-09
1.41933e-08
-4.51528e-09
1.39488e-08
-5.12018e-09
-5.65077e-09
1.35258e-08
6.12076e-09
-3.36238e-08
1.01052e-08
-2.5686e-08
1.22953e-08
-1.76681e-08
1.34167e-08
-1.16873e-08
1.39819e-08
-7.73094e-09
1.42762e-08
-5.26295e-09
1.44452e-08
-3.7875e-09
1.4561e-08
-2.95506e-09
1.46581e-08
-2.5411e-09
1.47515e-08
-2.40698e-09
1.48445e-08
-2.46861e-09
1.49317e-08
-2.67508e-09
1.49993e-08
-2.99398e-09
1.5025e-08
-3.40059e-09
1.49786e-08
-3.86879e-09
1.4827e-08
-4.36369e-09
1.45447e-08
-4.83788e-09
-5.23576e-09
1.41297e-08
6.52721e-09
-4.0151e-08
1.03272e-08
-2.9486e-08
1.21253e-08
-1.94662e-08
1.28834e-08
-1.24455e-08
1.31728e-08
-8.02026e-09
1.32691e-08
-5.35928e-09
1.32953e-08
-3.81372e-09
1.33035e-08
-2.96326e-09
1.33139e-08
-2.55149e-09
1.33316e-08
-2.4247e-09
1.33537e-08
-2.49066e-09
1.33713e-08
-2.69275e-09
1.33709e-08
-2.99353e-09
1.3334e-08
-3.36372e-09
1.32396e-08
-3.77432e-09
1.30675e-08
-4.19167e-09
1.28062e-08
-4.57652e-09
-4.88881e-09
1.24592e-08
9.7005e-09
-4.98515e-08
1.45168e-08
-3.43023e-08
1.63172e-08
-2.12666e-08
1.68062e-08
-1.29344e-08
1.68175e-08
-8.03153e-09
1.66898e-08
-5.23157e-09
1.65471e-08
-3.67105e-09
1.64287e-08
-2.84489e-09
1.63416e-08
-2.46429e-09
1.62798e-08
-2.36293e-09
1.6232e-08
-2.4429e-09
1.61833e-08
-2.64404e-09
1.61158e-08
-2.92602e-09
1.60096e-08
-3.25754e-09
1.5845e-08
-3.60973e-09
1.56064e-08
-3.95301e-09
1.52872e-08
-4.25734e-09
-4.4959e-09
1.48943e-08
1.56638e-08
-6.55153e-08
2.14258e-08
-4.00644e-08
2.25852e-08
-2.24259e-08
2.22819e-08
-1.26311e-08
2.16721e-08
-7.42179e-09
2.1103e-08
-4.66245e-09
2.06504e-08
-3.21842e-09
2.03094e-08
-2.50393e-09
2.00553e-08
-2.21021e-09
1.98609e-08
-2.16853e-09
1.97004e-08
-2.28239e-09
1.95495e-08
-2.49311e-09
1.93851e-08
-2.7616e-09
1.91858e-08
-3.05822e-09
1.89335e-08
-3.35751e-09
1.86167e-08
-3.63614e-09
1.82326e-08
-3.87327e-09
-4.05262e-09
1.77893e-08
2.86604e-08
-9.41757e-08
3.3677e-08
-4.5081e-08
3.22514e-08
-2.10004e-08
2.99987e-08
-1.03784e-08
2.81359e-08
-5.55894e-09
2.67703e-08
-3.29682e-09
2.57951e-08
-2.24328e-09
2.50947e-08
-1.80347e-09
2.45789e-08
-1.69451e-09
2.41821e-08
-1.77164e-09
2.38548e-08
-1.95511e-09
2.3559e-08
-2.19733e-09
2.32643e-08
-2.46692e-09
2.29468e-08
-2.74075e-09
2.25894e-08
-3.00011e-09
2.21828e-08
-3.22946e-09
2.1726e-08
-3.41654e-09
-3.55318e-09
2.12266e-08
6.32414e-08
-1.57417e-07
5.66753e-08
-3.85149e-08
4.70722e-08
-1.13972e-08
4.05763e-08
-3.88254e-09
3.64779e-08
-1.46058e-09
3.38458e-08
-6.64706e-10
3.20939e-08
-4.91329e-10
3.08799e-08
-5.89517e-10
3.00002e-08
-8.14775e-10
2.93277e-08
-1.09915e-09
2.87788e-08
-1.40625e-09
2.82961e-08
-1.71461e-09
2.78391e-08
-2.00987e-09
2.73796e-08
-2.28127e-09
2.68998e-08
-2.52031e-09
2.63908e-08
-2.72049e-09
2.58518e-08
-2.87748e-09
-2.98948e-09
2.52881e-08
1.82959e-07
1.5915e-07
9.67577e-08
4.76868e-08
6.65288e-08
1.88317e-08
5.31978e-08
9.4485e-09
4.62138e-08
5.52338e-09
4.20959e-08
3.4532e-09
3.94582e-08
2.14645e-09
3.76559e-08
1.21273e-09
3.63514e-08
4.89755e-10
3.53495e-08
-9.73131e-11
3.4528e-08
-5.84737e-10
3.38132e-08
-9.99793e-10
3.31565e-08
-1.35317e-09
3.25262e-08
-1.651e-09
3.1903e-08
-1.89711e-09
3.12769e-08
-2.0944e-09
3.06451e-08
-2.24568e-09
-2.35418e-09
3.00098e-08
7.72269e-08
8.19227e-08
7.53977e-08
4.95159e-08
6.53278e-08
2.89016e-08
5.73135e-08
1.74628e-08
5.18186e-08
1.10184e-08
4.80939e-08
7.17785e-09
4.55063e-08
4.73402e-09
4.36399e-08
3.07917e-09
4.22326e-08
1.89705e-09
4.11196e-08
1.01567e-09
4.01976e-08
3.37293e-10
3.93903e-08
-1.92522e-10
3.86471e-08
-6.09958e-10
3.79403e-08
-9.44164e-10
3.72532e-08
-1.21003e-09
3.65771e-08
-1.4183e-09
3.59087e-08
-1.57729e-09
-1.69391e-09
3.52484e-08
3.59353e-08
4.59874e-08
5.01191e-08
3.53321e-08
5.38008e-08
2.52199e-08
5.36248e-08
1.76388e-08
5.23135e-08
1.23296e-08
5.08377e-08
8.65366e-09
4.94926e-08
6.0791e-09
4.83331e-08
4.23873e-09
4.73371e-08
2.893e-09
4.64652e-08
1.88762e-09
4.56799e-08
1.12259e-09
4.49552e-08
5.32189e-10
4.42729e-08
7.22866e-11
4.36118e-08
-2.83066e-10
4.29622e-08
-5.60396e-10
4.232e-08
-7.76059e-10
4.16842e-08
-9.41528e-10
-1.0658e-09
4.10561e-08
1.43017e-08
3.16856e-08
2.32889e-08
2.6345e-08
2.80991e-08
2.04097e-08
3.04528e-08
1.52851e-08
3.15075e-08
1.1275e-08
3.19038e-08
8.25736e-09
3.19701e-08
6.01271e-09
3.1869e-08
4.33992e-09
3.16789e-08
3.08306e-09
3.14377e-08
2.12877e-09
3.11637e-08
1.39662e-09
3.0866e-08
8.2991e-10
3.05498e-08
3.88463e-10
3.02232e-08
4.35178e-11
2.98853e-08
-2.22518e-10
2.95385e-08
-4.29254e-10
2.91859e-08
-5.88918e-10
-7.10453e-10
2.88306e-08
8.56901e-09
2.31166e-08
1.49664e-08
1.99475e-08
1.92156e-08
1.61606e-08
2.18852e-08
1.26155e-08
2.35196e-08
9.64054e-09
2.45046e-08
7.2724e-09
2.50845e-08
5.43278e-09
2.54077e-08
4.01675e-09
2.5563e-08
2.92773e-09
2.56044e-08
2.0874e-09
2.55653e-08
1.43574e-09
2.54673e-08
9.27863e-10
2.53253e-08
5.30498e-10
2.51498e-08
2.18975e-10
2.4952e-08
-2.47161e-11
2.47354e-08
-2.1262e-10
2.45051e-08
-3.58635e-10
-4.70876e-10
2.42655e-08
5.78705e-09
1.73296e-08
1.04803e-08
1.52543e-08
1.39538e-08
1.26871e-08
1.64029e-08
1.01664e-08
1.80892e-08
7.95419e-09
1.92365e-08
6.12509e-09
2.00093e-08
4.66002e-09
2.0521e-08
3.50502e-09
2.08483e-08
2.6005e-09
2.10425e-08
1.89312e-09
2.11391e-08
1.3392e-09
2.11625e-08
9.04444e-10
2.11305e-08
5.62519e-10
2.10561e-08
2.93324e-10
2.09499e-08
8.15133e-11
2.08206e-08
-8.33571e-11
2.06732e-08
-2.11167e-10
-3.10147e-10
2.05124e-08
4.21616e-09
1.31134e-08
7.79175e-09
1.16787e-08
1.06061e-08
9.87267e-09
1.27254e-08
8.04706e-09
1.42821e-08
6.39749e-09
1.54092e-08
4.99799e-09
1.62166e-08
3.85267e-09
1.67876e-08
2.934e-09
1.71834e-08
2.20473e-09
1.74481e-08
1.62841e-09
1.76138e-08
1.1735e-09
1.77039e-08
8.14288e-10
1.7736e-08
5.30415e-10
1.77233e-08
3.06028e-10
1.7676e-08
1.28828e-10
1.76032e-08
-1.05487e-11
1.75104e-08
-1.18359e-10
-2.02356e-10
1.74026e-08
3.22886e-09
9.88454e-09
6.03987e-09
8.86771e-09
8.33692e-09
7.57562e-09
1.01385e-08
6.24547e-09
1.15158e-08
5.02024e-09
1.25514e-08
3.96233e-09
1.33206e-08
3.08346e-09
1.38849e-08
2.36973e-09
1.42921e-08
1.79747e-09
1.45789e-08
1.34163e-09
1.47728e-08
9.79572e-10
1.48949e-08
6.92245e-10
1.4961e-08
4.64254e-10
1.49837e-08
2.83399e-10
1.49724e-08
1.40091e-10
1.49351e-08
2.68046e-11
1.48781e-08
-6.13768e-11
-1.30061e-10
1.48058e-08
2.5574e-09
7.32713e-09
4.82029e-09
6.60483e-09
6.71386e-09
5.68205e-09
8.23846e-09
4.72087e-09
9.43461e-09
3.8241e-09
1.03565e-08
3.04046e-09
1.10573e-08
2.3826e-09
1.15835e-08
1.84362e-09
1.19726e-08
1.40831e-09
1.22547e-08
1.05952e-09
1.24532e-08
7.81135e-10
1.25861e-08
5.59335e-10
1.26676e-08
3.82743e-10
1.27088e-08
2.42236e-10
1.27183e-08
1.30577e-10
1.2703e-08
4.20502e-11
1.2669e-08
-2.7396e-11
-8.14204e-11
1.26204e-08
2.07231e-09
5.25482e-09
3.92513e-09
4.75202e-09
5.49964e-09
4.10754e-09
6.78941e-09
3.43111e-09
7.81892e-09
2.79458e-09
8.62557e-09
2.23381e-09
9.24856e-09
1.75961e-09
9.7235e-09
1.36867e-09
1.00805e-08
1.05127e-09
1.03443e-08
7.95812e-10
1.05342e-08
5.91169e-10
1.0666e-08
4.27602e-10
1.07517e-08
2.97008e-10
1.08011e-08
1.92829e-10
1.08218e-08
1.0983e-10
1.082e-08
4.38547e-11
1.08009e-08
-8.23749e-12
-4.86886e-11
1.07681e-08
1.70457e-09
3.55025e-09
3.23895e-09
3.21763e-09
4.5561e-09
2.79038e-09
5.64749e-09
2.33972e-09
6.52884e-09
1.91323e-09
7.22723e-09
1.53543e-09
7.7725e-09
1.21434e-09
8.19272e-09
9.48452e-10
8.51224e-09
7.31747e-10
8.7513e-09
5.56758e-10
8.9263e-09
4.16167e-10
9.0504e-09
3.03503e-10
9.13407e-09
2.13335e-10
9.18566e-09
1.41242e-10
9.21181e-09
8.36731e-11
9.21787e-09
3.78017e-11
9.20825e-09
1.37752e-12
-2.68456e-11
9.18641e-09
1.4141e-09
2.13615e-09
2.6927e-09
1.93904e-09
3.7976e-09
1.68548e-09
4.72016e-09
1.41717e-09
5.47109e-09
1.1623e-09
6.07083e-09
9.35685e-10
6.54275e-09
7.42419e-10
6.90933e-09
5.81872e-10
7.19043e-09
4.50647e-10
7.40278e-09
3.44407e-10
7.5601e-09
2.58848e-10
7.67347e-09
1.90132e-10
7.75179e-09
1.35019e-10
7.80217e-09
9.086e-11
7.83032e-09
5.55209e-11
7.84083e-09
2.72961e-11
7.83738e-09
4.82132e-12
-1.26466e-11
7.82318e-09
1.17481e-09
9.6134e-10
2.2402e-09
8.73646e-10
3.16495e-09
7.60731e-10
3.94112e-09
6.40997e-10
4.57643e-09
5.26983e-10
5.08677e-09
4.25348e-10
5.49073e-09
3.38454e-10
5.80651e-09
2.66099e-10
6.05033e-09
2.06823e-10
6.23601e-09
1.58729e-10
6.37494e-09
1.19914e-10
6.4764e-09
8.86759e-11
6.54785e-09
6.35694e-11
6.5953e-09
4.34099e-11
6.62358e-09
2.72407e-11
6.63658e-09
1.42955e-11
6.63744e-09
3.96081e-12
-4.06006e-12
6.62885e-09
9.6134e-10
1.83499e-09
2.59572e-09
3.23671e-09
3.7637e-09
4.18904e-09
4.5275e-09
4.7936e-09
5.00042e-09
5.15915e-09
5.27906e-09
5.36774e-09
5.43131e-09
5.47472e-09
5.50196e-09
5.51625e-09
5.52022e-09
5.51616e-09
2.07742e-10
-2.07742e-10
4.16761e-10
-2.0902e-10
6.26894e-10
-2.10132e-10
8.37964e-10
-2.1107e-10
1.04979e-09
-2.11824e-10
1.26217e-09
-2.12384e-10
1.47491e-09
-2.12742e-10
1.6878e-09
-2.1289e-10
1.90063e-09
-2.12821e-10
2.11316e-09
-2.12533e-10
2.32519e-09
-2.12027e-10
2.53649e-09
-2.11307e-10
2.74688e-09
-2.10384e-10
2.95615e-09
-2.09276e-10
3.16416e-09
-2.08007e-10
3.37077e-09
-2.06612e-10
3.57591e-09
-2.05136e-10
3.77954e-09
-2.03633e-10
3.98171e-09
-2.0217e-10
4.18253e-09
-2.00819e-10
4.38218e-09
-1.99654e-10
4.58093e-09
-1.98751e-10
4.77911e-09
-1.98179e-10
4.97712e-09
-1.98001e-10
5.17538e-09
-1.98269e-10
5.37442e-09
-1.99031e-10
5.57474e-09
-2.00324e-10
5.77692e-09
-2.02183e-10
5.98156e-09
-2.04635e-10
6.18926e-09
-2.07702e-10
6.40066e-09
-2.11398e-10
6.61638e-09
-2.15722e-10
6.83703e-09
-2.20656e-10
7.06319e-09
-2.26154e-10
7.29533e-09
-2.32146e-10
7.53388e-09
-2.38543e-10
7.77914e-09
-2.45261e-10
8.03139e-09
-2.52253e-10
8.29094e-09
-2.59552e-10
8.55825e-09
-2.67307e-10
8.83406e-09
-2.75809e-10
9.11956e-09
-2.85505e-10
9.41657e-09
-2.97006e-10
9.72766e-09
-3.11091e-10
1.00564e-08
-3.28742e-10
1.04076e-08
-3.51204e-10
1.07877e-08
-3.80089e-10
1.12052e-08
-4.1753e-10
1.16716e-08
-4.66351e-10
1.22017e-08
-5.30094e-10
1.2814e-08
-6.12345e-10
1.35273e-08
-7.13281e-10
1.4344e-08
-8.16708e-10
1.51934e-08
-8.49389e-10
1.9675e-08
-4.48157e-09
1.81992e-08
1.47575e-09
1.72759e-08
9.23316e-10
1.66237e-08
6.52196e-10
1.61194e-08
5.04326e-10
1.57036e-08
4.15796e-10
1.53456e-08
3.57988e-10
1.50284e-08
3.1716e-10
1.47421e-08
2.8634e-10
1.44803e-08
2.61815e-10
1.42388e-08
2.41497e-10
1.40146e-08
2.24153e-10
1.38056e-08
2.09012e-10
1.361e-08
1.95572e-10
1.34266e-08
1.8349e-10
1.3254e-08
1.72523e-10
1.30915e-08
1.62493e-10
1.29383e-08
1.53265e-10
1.27935e-08
1.44735e-10
1.26567e-08
1.3682e-10
1.25273e-08
1.29451e-10
1.24047e-08
1.22571e-10
1.22886e-08
1.16135e-10
1.21785e-08
1.10101e-10
1.2074e-08
1.04434e-10
1.19749e-08
9.91041e-11
1.18808e-08
9.40855e-11
1.17915e-08
8.93547e-11
1.17066e-08
8.4891e-11
1.16259e-08
8.06763e-11
1.15492e-08
7.66943e-11
1.14763e-08
7.29305e-11
1.14069e-08
6.93714e-11
1.13409e-08
6.60053e-11
1.12781e-08
6.2821e-11
1.12183e-08
5.98086e-11
1.11613e-08
5.69589e-11
1.11071e-08
5.42633e-11
1.10553e-08
5.1714e-11
1.1006e-08
4.93034e-11
1.0959e-08
4.7025e-11
1.09141e-08
4.4872e-11
1.08713e-08
4.28382e-11
1.08304e-08
4.09184e-11
1.07913e-08
3.91066e-11
1.07539e-08
3.73979e-11
1.07181e-08
3.57873e-11
1.06838e-08
3.42703e-11
1.0651e-08
3.28421e-11
1.06195e-08
3.1499e-11
1.05892e-08
3.02363e-11
1.05602e-08
2.90506e-11
1.05323e-08
2.7938e-11
1.05054e-08
2.6895e-11
1.04794e-08
2.59181e-11
1.04544e-08
2.50042e-11
1.04303e-08
2.415e-11
1.04069e-08
2.33526e-11
1.03843e-08
2.26091e-11
1.03624e-08
2.19167e-11
1.03411e-08
2.12729e-11
1.03205e-08
2.06752e-11
1.03003e-08
2.01209e-11
1.02807e-08
1.96082e-11
1.02616e-08
1.91343e-11
1.02429e-08
1.86977e-11
1.02246e-08
1.82958e-11
1.02067e-08
1.79272e-11
1.01891e-08
1.75897e-11
1.01718e-08
1.72819e-11
1.01548e-08
1.70018e-11
1.01381e-08
1.67479e-11
1.01215e-08
1.6519e-11
1.01052e-08
1.63132e-11
1.00891e-08
1.61295e-11
1.00731e-08
1.59665e-11
1.00573e-08
1.58229e-11
1.00416e-08
1.56978e-11
1.0026e-08
1.55897e-11
1.00105e-08
1.54979e-11
9.9951e-09
1.54213e-11
9.97974e-09
1.53592e-11
9.96443e-09
1.53103e-11
9.94916e-09
1.52743e-11
9.93391e-09
1.52501e-11
9.91867e-09
1.52371e-11
9.90344e-09
1.52348e-11
9.8882e-09
1.52424e-11
9.87294e-09
1.52596e-11
9.85765e-09
1.52858e-11
9.84233e-09
1.53206e-11
9.82697e-09
1.53636e-11
9.81155e-09
1.54147e-11
9.79608e-09
1.54736e-11
9.78054e-09
1.55404e-11
9.76492e-09
1.5615e-11
9.74922e-09
1.56975e-11
9.73344e-09
1.57885e-11
9.71755e-09
1.58884e-11
9.70155e-09
1.59979e-11
9.68543e-09
1.61184e-11
9.66918e-09
1.62513e-11
9.65278e-09
1.63989e-11
9.63622e-09
1.65637e-11
9.61947e-09
1.67495e-11
9.60251e-09
1.69608e-11
9.5853e-09
1.72041e-11
9.56782e-09
1.74873e-11
9.54999e-09
1.78214e-11
9.53177e-09
1.82202e-11
9.51307e-09
1.87026e-11
9.49378e-09
1.92937e-11
9.47375e-09
2.00269e-11
9.4528e-09
2.09482e-11
9.43068e-09
2.21209e-11
9.40705e-09
2.3634e-11
9.38143e-09
2.56154e-11
9.35318e-09
2.82544e-11
9.32134e-09
3.18407e-11
9.2845e-09
3.68405e-11
9.24045e-09
4.40506e-11
9.18549e-09
5.49528e-11
9.11285e-09
7.26465e-11
9.00802e-09
1.0483e-10
8.8318e-09
1.76217e-10
4.00829e-10
8.43097e-09
2.37949e-10
-4.45691e-10
4.77415e-10
-4.48486e-10
7.18218e-10
-4.50935e-10
9.60175e-10
-4.53027e-10
1.2031e-09
-4.54746e-10
1.4468e-09
-4.56086e-10
1.69111e-09
-4.5705e-10
1.93586e-09
-4.57646e-10
2.18093e-09
-4.57886e-10
2.42618e-09
-4.57787e-10
2.67152e-09
-4.57366e-10
2.91686e-09
-4.56644e-10
3.16212e-09
-4.55646e-10
3.40724e-09
-4.54397e-10
3.65216e-09
-4.52925e-10
3.89681e-09
-4.5126e-10
4.14111e-09
-4.49434e-10
4.38496e-09
-4.47482e-10
4.62822e-09
-4.45439e-10
4.87075e-09
-4.43344e-10
5.11233e-09
-4.41239e-10
5.35275e-09
-4.39168e-10
5.59175e-09
-4.3718e-10
5.82908e-09
-4.3533e-10
6.06448e-09
-4.33676e-10
6.29774e-09
-4.32284e-10
6.52864e-09
-4.31227e-10
6.75704e-09
-4.30585e-10
6.98285e-09
-4.30443e-10
7.20604e-09
-4.30892e-10
7.42667e-09
-4.32024e-10
7.64487e-09
-4.33927e-10
7.8609e-09
-4.36684e-10
8.07512e-09
-4.40377e-10
8.28806e-09
-4.45085e-10
8.50042e-09
-4.50901e-10
8.71311e-09
-4.57951e-10
8.92728e-09
-4.66416e-10
9.14429e-09
-4.76564e-10
9.36576e-09
-4.88782e-10
9.59356e-09
-5.03605e-10
9.8298e-09
-5.21751e-10
1.00769e-08
-5.44151e-10
1.03379e-08
-5.72009e-10
1.0616e-08
-6.06876e-10
1.09156e-08
-6.5079e-10
1.1242e-08
-7.06488e-10
1.16022e-08
-7.77773e-10
1.2006e-08
-8.70157e-10
1.2468e-08
-9.92097e-10
1.30134e-08
-1.15772e-09
1.36937e-08
-1.39357e-09
1.4634e-08
-1.75704e-09
1.61671e-08
-2.3825e-09
1.68202e-08
-5.13465e-09
1.71822e-08
1.11373e-09
1.67814e-08
1.32413e-09
1.63569e-08
1.07672e-09
1.59611e-08
9.00142e-10
1.5601e-08
7.75853e-10
1.52737e-08
6.85318e-10
1.49746e-08
6.16269e-10
1.46996e-08
5.6131e-10
1.44454e-08
5.15996e-10
1.42094e-08
4.77572e-10
1.39893e-08
4.44264e-10
1.37834e-08
4.14889e-10
1.35903e-08
3.88632e-10
1.34089e-08
3.64912e-10
1.32381e-08
3.43306e-10
1.30771e-08
3.23498e-10
1.29251e-08
3.0524e-10
1.27815e-08
2.88339e-10
1.26457e-08
2.72638e-10
1.25172e-08
2.58009e-10
1.23954e-08
2.44343e-10
1.228e-08
2.31549e-10
1.21705e-08
2.19549e-10
1.20667e-08
2.08275e-10
1.19681e-08
1.97668e-10
1.18745e-08
1.87676e-10
1.17856e-08
1.78256e-10
1.17012e-08
1.69365e-10
1.16209e-08
1.60968e-10
1.15445e-08
1.53033e-10
1.14719e-08
1.45532e-10
1.14029e-08
1.38438e-10
1.13371e-08
1.31728e-10
1.12746e-08
1.25379e-10
1.1215e-08
1.19373e-10
1.11583e-08
1.1369e-10
1.11042e-08
1.08315e-10
1.10527e-08
1.0323e-10
1.10036e-08
9.84226e-11
1.09567e-08
9.38779e-11
1.0912e-08
8.95833e-11
1.08693e-08
8.55268e-11
1.08286e-08
8.16967e-11
1.07896e-08
7.80826e-11
1.07523e-08
7.46738e-11
1.07166e-08
7.14609e-11
1.06825e-08
6.84343e-11
1.06497e-08
6.55853e-11
1.06183e-08
6.29055e-11
1.05882e-08
6.03866e-11
1.05592e-08
5.8021e-11
1.05313e-08
5.58012e-11
1.05045e-08
5.37204e-11
1.04787e-08
5.17714e-11
1.04537e-08
4.9948e-11
1.04296e-08
4.82438e-11
1.04063e-08
4.66529e-11
1.03838e-08
4.51695e-11
1.03619e-08
4.37885e-11
1.03407e-08
4.2504e-11
1.032e-08
4.13115e-11
1.02999e-08
4.0206e-11
1.02804e-08
3.91829e-11
1.02613e-08
3.82378e-11
1.02426e-08
3.73667e-11
1.02243e-08
3.65653e-11
1.02064e-08
3.583e-11
1.01888e-08
3.5157e-11
1.01716e-08
3.45429e-11
1.01546e-08
3.39844e-11
1.01379e-08
3.34783e-11
1.01214e-08
3.30216e-11
1.01051e-08
3.26115e-11
1.0089e-08
3.22453e-11
1.0073e-08
3.19203e-11
1.00572e-08
3.16342e-11
1.00415e-08
3.13848e-11
1.00259e-08
3.11696e-11
1.00104e-08
3.09868e-11
9.99502e-09
3.08346e-11
9.97967e-09
3.07106e-11
9.96437e-09
3.06139e-11
9.9491e-09
3.05422e-11
9.93386e-09
3.04944e-11
9.91862e-09
3.0469e-11
9.90339e-09
3.04648e-11
9.88816e-09
3.04804e-11
9.8729e-09
3.05151e-11
9.85762e-09
3.05677e-11
9.8423e-09
3.06376e-11
9.82694e-09
3.07239e-11
9.81153e-09
3.08263e-11
9.79606e-09
3.09443e-11
9.78052e-09
3.10779e-11
9.76491e-09
3.12271e-11
9.74921e-09
3.13922e-11
9.73343e-09
3.15741e-11
9.71754e-09
3.17735e-11
9.70155e-09
3.19926e-11
9.68543e-09
3.22332e-11
9.66919e-09
3.24987e-11
9.65279e-09
3.2793e-11
9.63623e-09
3.31217e-11
9.61949e-09
3.3492e-11
9.60254e-09
3.39132e-11
9.58535e-09
3.43979e-11
9.56787e-09
3.49618e-11
9.55007e-09
3.56265e-11
9.53187e-09
3.642e-11
9.51319e-09
3.73792e-11
9.49393e-09
3.85537e-11
9.47395e-09
4.001e-11
9.45306e-09
4.1839e-11
9.43101e-09
4.41651e-11
9.40748e-09
4.71642e-11
9.38201e-09
5.10875e-11
9.35396e-09
5.63049e-11
9.32242e-09
6.33818e-11
9.28604e-09
7.32187e-11
9.24275e-09
8.73384e-11
9.18919e-09
1.08518e-10
9.11947e-09
1.42365e-10
9.02248e-09
2.01819e-10
8.87654e-09
3.22152e-10
6.16155e-10
8.66122e-09
2.50105e-10
-6.95796e-10
5.01835e-10
-7.00215e-10
7.54963e-10
-7.04064e-10
1.00926e-09
-7.07326e-10
1.2645e-09
-7.09985e-10
1.52046e-09
-7.1204e-10
1.7769e-09
-7.13499e-10
2.03364e-09
-7.14387e-10
2.29049e-09
-7.14731e-10
2.54727e-09
-7.14567e-10
2.80383e-09
-7.13929e-10
3.06004e-09
-7.12856e-10
3.31578e-09
-7.11382e-10
3.57093e-09
-7.09544e-10
3.82537e-09
-7.07371e-10
4.079e-09
-7.0489e-10
4.33168e-09
-7.02116e-10
4.58326e-09
-6.99057e-10
4.83354e-09
-6.95715e-10
5.08228e-09
-6.92085e-10
5.32921e-09
-6.88169e-10
5.57401e-09
-6.83976e-10
5.81637e-09
-6.79536e-10
6.05595e-09
-6.74906e-10
6.29244e-09
-6.70169e-10
6.52559e-09
-6.65439e-10
6.75522e-09
-6.60856e-10
6.98122e-09
-6.5658e-10
7.20356e-09
-6.52787e-10
7.42233e-09
-6.49661e-10
7.6377e-09
-6.47392e-10
7.84994e-09
-6.4617e-10
8.05945e-09
-6.46189e-10
8.26672e-09
-6.47646e-10
8.47238e-09
-6.5075e-10
8.67722e-09
-6.55737e-10
8.88215e-09
-6.62885e-10
9.08827e-09
-6.72537e-10
9.29683e-09
-6.85125e-10
9.50925e-09
-7.01203e-10
9.72712e-09
-7.21475e-10
9.95221e-09
-7.46837e-10
1.01865e-08
-7.78424e-10
1.04322e-08
-8.17679e-10
1.06917e-08
-8.66449e-10
1.09681e-08
-9.2713e-10
1.12645e-08
-1.00289e-09
1.15847e-08
-1.09799e-09
1.19328e-08
-1.21831e-09
1.23128e-08
-1.37208e-09
1.2726e-08
-1.57089e-09
1.31626e-08
-1.8302e-09
1.35714e-08
-2.16584e-09
1.37579e-08
-2.56902e-09
1.15148e-08
-2.89154e-09
1.66383e-08
-4.00974e-09
1.63246e-08
1.63783e-09
1.60346e-08
1.36669e-09
1.57365e-08
1.19822e-09
1.5439e-08
1.07344e-09
1.51512e-08
9.73073e-10
1.4878e-08
8.8946e-10
1.46208e-08
8.18523e-10
1.43793e-08
7.5746e-10
1.41527e-08
7.04171e-10
1.39399e-08
6.57065e-10
1.37399e-08
6.14954e-10
1.35516e-08
5.76948e-10
1.33741e-08
5.42378e-10
1.32067e-08
5.10732e-10
1.30485e-08
4.81609e-10
1.28991e-08
4.54692e-10
1.27577e-08
4.29722e-10
1.26239e-08
4.06487e-10
1.24971e-08
3.84808e-10
1.23769e-08
3.64535e-10
1.22629e-08
3.45538e-10
1.21547e-08
3.27705e-10
1.20521e-08
3.1094e-10
1.19546e-08
2.95159e-10
1.1862e-08
2.80286e-10
1.1774e-08
2.66255e-10
1.16903e-08
2.53009e-10
1.16108e-08
2.40495e-10
1.15352e-08
2.28666e-10
1.14632e-08
2.1748e-10
1.13948e-08
2.06899e-10
1.13296e-08
1.96887e-10
1.12676e-08
1.87414e-10
1.12085e-08
1.7845e-10
1.11522e-08
1.69968e-10
1.10986e-08
1.61943e-10
1.10474e-08
1.54353e-10
1.09987e-08
1.47174e-10
1.09522e-08
1.40388e-10
1.09078e-08
1.33975e-10
1.08654e-08
1.27916e-10
1.08249e-08
1.22196e-10
1.07862e-08
1.16798e-10
1.07492e-08
1.11707e-10
1.07137e-08
1.06907e-10
1.06798e-08
1.02387e-10
1.06472e-08
9.81308e-11
1.0616e-08
9.41276e-11
1.0586e-08
9.03649e-11
1.05572e-08
8.68311e-11
1.05295e-08
8.35152e-11
1.05028e-08
8.04067e-11
1.04771e-08
7.74953e-11
1.04523e-08
7.47713e-11
1.04283e-08
7.22256e-11
1.04051e-08
6.98492e-11
1.03826e-08
6.76334e-11
1.03608e-08
6.55702e-11
1.03397e-08
6.36518e-11
1.03191e-08
6.18706e-11
1.02991e-08
6.02193e-11
1.02796e-08
5.86914e-11
1.02606e-08
5.72799e-11
1.0242e-08
5.59789e-11
1.02237e-08
5.47822e-11
1.02059e-08
5.36842e-11
1.01884e-08
5.26793e-11
1.01711e-08
5.17626e-11
1.01542e-08
5.09288e-11
1.01375e-08
5.01734e-11
1.0121e-08
4.94919e-11
1.01048e-08
4.88799e-11
1.00887e-08
4.83335e-11
1.00727e-08
4.78489e-11
1.0057e-08
4.74223e-11
1.00413e-08
4.70504e-11
1.00257e-08
4.673e-11
1.00103e-08
4.64579e-11
9.99486e-09
4.62311e-11
9.97952e-09
4.60472e-11
9.96423e-09
4.59034e-11
9.94898e-09
4.57975e-11
9.93375e-09
4.57271e-11
9.91853e-09
4.56901e-11
9.90331e-09
4.56848e-11
9.88808e-09
4.57094e-11
9.87283e-09
4.57623e-11
9.85755e-09
4.5842e-11
9.84225e-09
4.59475e-11
9.82689e-09
4.60776e-11
9.81149e-09
4.62316e-11
9.79602e-09
4.64091e-11
9.78049e-09
4.66097e-11
9.76488e-09
4.68336e-11
9.74919e-09
4.70813e-11
9.73341e-09
4.73537e-11
9.71754e-09
4.76527e-11
9.70155e-09
4.79806e-11
9.68544e-09
4.83407e-11
9.6692e-09
4.87376e-11
9.65282e-09
4.91775e-11
9.63627e-09
4.96684e-11
9.61954e-09
5.0221e-11
9.6026e-09
5.08491e-11
9.58543e-09
5.15711e-11
9.56798e-09
5.24109e-11
9.55021e-09
5.33998e-11
9.53205e-09
5.45793e-11
9.51342e-09
5.60041e-11
9.49423e-09
5.77471e-11
9.47433e-09
5.99067e-11
9.45356e-09
6.2616e-11
9.43166e-09
6.60581e-11
9.40834e-09
7.04899e-11
9.38315e-09
7.62772e-11
9.3555e-09
8.39563e-11
9.32454e-09
9.43382e-11
9.28906e-09
1.08702e-10
9.24723e-09
1.2917e-10
9.19624e-09
1.59502e-10
9.13168e-09
2.06924e-10
9.04681e-09
2.8669e-10
8.93495e-09
4.34015e-10
7.31459e-10
8.81965e-09
2.59232e-10
-9.55028e-10
5.20186e-10
-9.6117e-10
7.82586e-10
-9.66463e-10
1.04614e-09
-9.70883e-10
1.31057e-09
-9.74409e-10
1.57556e-09
-9.77032e-10
1.84082e-09
-9.78762e-10
2.10605e-09
-9.79619e-10
2.37096e-09
-9.79638e-10
2.63525e-09
-9.78855e-10
2.89863e-09
-9.77316e-10
3.16084e-09
-9.75065e-10
3.42161e-09
-9.7215e-10
3.68068e-09
-9.68616e-10
3.93782e-09
-9.64506e-10
4.19279e-09
-9.5986e-10
4.44538e-09
-9.5471e-10
4.69541e-09
-9.49087e-10
4.94271e-09
-9.43013e-10
5.18714e-09
-9.36514e-10
5.42859e-09
-9.2962e-10
5.66699e-09
-9.22374e-10
5.90229e-09
-9.14835e-10
6.13447e-09
-9.07087e-10
6.36354e-09
-8.99236e-10
6.58952e-09
-8.91418e-10
6.81245e-09
-8.83792e-10
7.03241e-09
-8.76541e-10
7.2495e-09
-8.69871e-10
7.46384e-09
-8.64002e-10
7.67562e-09
-8.59169e-10
7.88507e-09
-8.55623e-10
8.09251e-09
-8.53626e-10
8.29832e-09
-8.53457e-10
8.50298e-09
-8.55419e-10
8.7071e-09
-8.59849e-10
8.91134e-09
-8.67133e-10
9.11653e-09
-8.7772e-10
9.32355e-09
-8.9215e-10
9.53342e-09
-9.11076e-10
9.74724e-09
-9.35296e-10
9.9662e-09
-9.65792e-10
1.01916e-08
-1.00378e-09
1.04246e-08
-1.05075e-09
1.06668e-08
-1.1086e-09
1.09193e-08
-1.1797e-09
1.11835e-08
-1.26705e-09
1.146e-08
-1.3745e-09
1.17487e-08
-1.50701e-09
1.20475e-08
-1.6709e-09
1.23509e-08
-1.87423e-09
1.26477e-08
-2.12707e-09
1.29244e-08
-2.44253e-09
1.31973e-08
-2.8419e-09
1.3685e-08
-3.37918e-09
1.45522e-08
-4.87696e-09
1.58339e-08
3.56067e-10
1.57225e-08
1.47815e-09
1.55074e-08
1.41329e-09
1.52567e-08
1.32411e-09
1.50012e-08
1.22862e-09
1.47523e-08
1.13839e-09
1.45139e-08
1.05692e-09
1.42872e-08
9.84155e-10
1.40723e-08
9.19029e-10
1.3869e-08
8.60383e-10
1.36767e-08
8.07222e-10
1.34949e-08
7.58743e-10
1.3323e-08
7.14305e-10
1.31603e-08
6.73388e-10
1.30064e-08
6.35569e-10
1.28606e-08
6.00497e-10
1.27224e-08
5.67876e-10
1.25915e-08
5.37458e-10
1.24672e-08
5.09028e-10
1.23494e-08
4.82404e-10
1.22375e-08
4.57426e-10
1.21312e-08
4.33955e-10
1.20303e-08
4.11869e-10
1.19344e-08
3.91062e-10
1.18432e-08
3.7144e-10
1.17566e-08
3.52918e-10
1.16742e-08
3.35423e-10
1.15958e-08
3.18886e-10
1.15212e-08
3.03248e-10
1.14502e-08
2.88454e-10
1.13827e-08
2.74456e-10
1.13183e-08
2.61208e-10
1.12571e-08
2.48669e-10
1.11987e-08
2.36802e-10
1.11431e-08
2.2557e-10
1.10901e-08
2.14942e-10
1.10396e-08
2.04887e-10
1.09914e-08
1.95377e-10
1.09454e-08
1.86386e-10
1.09015e-08
1.77888e-10
1.08595e-08
1.6986e-10
1.08195e-08
1.62279e-10
1.07811e-08
1.55125e-10
1.07445e-08
1.48376e-10
1.07093e-08
1.42015e-10
1.06757e-08
1.36022e-10
1.06435e-08
1.30381e-10
1.06125e-08
1.25074e-10
1.05828e-08
1.20086e-10
1.05542e-08
1.15402e-10
1.05267e-08
1.11006e-10
1.05003e-08
1.06885e-10
1.04747e-08
1.03026e-10
1.04501e-08
9.94147e-11
1.04263e-08
9.604e-11
1.04032e-08
9.28898e-11
1.03809e-08
8.99527e-11
1.03593e-08
8.72178e-11
1.03382e-08
8.46749e-11
1.03178e-08
8.23141e-11
1.02979e-08
8.01255e-11
1.02785e-08
7.81004e-11
1.02595e-08
7.62301e-11
1.0241e-08
7.45061e-11
1.02229e-08
7.29204e-11
1.02051e-08
7.14658e-11
1.01876e-08
7.01346e-11
1.01705e-08
6.89203e-11
1.01536e-08
6.78161e-11
1.01369e-08
6.68158e-11
1.01205e-08
6.59136e-11
1.01043e-08
6.51036e-11
1.00882e-08
6.43808e-11
1.00724e-08
6.37397e-11
1.00566e-08
6.31758e-11
1.0041e-08
6.26843e-11
1.00254e-08
6.22611e-11
1.001e-08
6.19021e-11
9.99462e-09
6.16032e-11
9.97931e-09
6.13613e-11
9.96404e-09
6.11725e-11
9.9488e-09
6.10339e-11
9.93358e-09
6.09424e-11
9.91838e-09