/*--------------------------------*- C++ -*----------------------------------*\
  =========                 |
  \\      /  F ield         | OpenFOAM: The Open Source CFD Toolbox
   \\    /   O peration     | Website:  https://openfoam.org
    \\  /    A nd           | Version:  10
     \\/     M anipulation  |
\*---------------------------------------------------------------------------*/
FoamFile
{
    format      ascii;
    class       volVectorField;
    location    "2.37";
    object      Ua;
}
// * * * * * * * * * * * * * * * * * * * * * * * * * * * * * * * * * * * * * //

dimensions      [0 1 -1 0 0 0 0];

internalField   nonuniform List<vector> 
12225
(
(1.60038e-05 -2.05669e-06 0)
(4.67766e-05 -1.92443e-06 0)
(7.46502e-05 -1.68078e-06 0)
(9.91673e-05 -1.40541e-06 0)
(0.000120508 -1.15227e-06 0)
(0.000139177 -9.48187e-07 0)
(0.000155774 -8.02187e-07 0)
(0.000170871 -7.14913e-07 0)
(0.000184982 -6.85151e-07 0)
(0.00019856 -7.14063e-07 0)
(0.000212036 -8.08591e-07 0)
(0.000225868 -9.85971e-07 0)
(0.000240621 -1.28253e-06 0)
(0.000257123 -1.77464e-06 0)
(0.00027681 -2.6374e-06 0)
(0.0003027 -4.34624e-06 0)
(0.000343086 -8.59602e-06 0)
(0.000431279 -2.41256e-05 0)
(1.0813e-05 -5.3091e-06 0)
(3.18486e-05 -4.99903e-06 0)
(5.14451e-05 -4.39701e-06 0)
(6.92797e-05 -3.70268e-06 0)
(8.53573e-05 -3.05611e-06 0)
(9.98841e-05 -2.53033e-06 0)
(0.000113153 -2.15277e-06 0)
(0.000125475 -1.92847e-06 0)
(0.000137146 -1.8569e-06 0)
(0.000148446 -1.94332e-06 0)
(0.000159653 -2.20809e-06 0)
(0.00017107 -2.69899e-06 0)
(0.000183077 -3.51468e-06 0)
(0.000196219 -4.85927e-06 0)
(0.000211389 -7.18943e-06 0)
(0.000230215 -1.16848e-05 0)
(0.000255579 -2.21038e-05 0)
(0.000286345 -5.39664e-05 0)
(8.33038e-06 -7.26684e-06 0)
(2.46911e-05 -6.90568e-06 0)
(4.0274e-05 -6.13384e-06 0)
(5.48263e-05 -5.21392e-06 0)
(6.82843e-05 -4.33991e-06 0)
(8.07249e-05 -3.61986e-06 0)
(9.23032e-05 -3.0998e-06 0)
(0.000103205 -2.79356e-06 0)
(0.000113624 -2.70577e-06 0)
(0.000123753 -2.84814e-06 0)
(0.000133789 -3.25338e-06 0)
(0.000143953 -3.99288e-06 0)
(0.000154513 -5.20956e-06 0)
(0.000165832 -7.19021e-06 0)
(0.000178425 -1.05467e-05 0)
(0.000192935 -1.67218e-05 0)
(0.000209275 -2.95207e-05 0)
(0.000220085 -5.94759e-05 0)
(6.73538e-06 -8.52365e-06 0)
(2.00793e-05 -8.17715e-06 0)
(3.30422e-05 -7.33374e-06 0)
(4.54197e-05 -6.29045e-06 0)
(5.71152e-05 -5.27821e-06 0)
(6.81331e-05 -4.43336e-06 0)
(7.85456e-05 -3.81996e-06 0)
(8.84619e-05 -3.46241e-06 0)
(9.80074e-05 -3.37246e-06 0)
(0.000107316 -3.56906e-06 0)
(0.000116528 -4.09554e-06 0)
(0.000125801 -5.04085e-06 0)
(0.000135316 -6.57657e-06 0)
(0.000145286 -9.03296e-06 0)
(0.000155921 -1.30694e-05 0)
(0.000167192 -2.00685e-05 0)
(0.000177735 -3.29754e-05 0)
(0.000180912 -5.7158e-05 0)
(5.58354e-06 -9.28601e-06 0)
(1.67385e-05 -8.99715e-06 0)
(2.77759e-05 -8.14694e-06 0)
(3.85286e-05 -7.04921e-06 0)
(4.88853e-05 -5.96037e-06 0)
(5.88064e-05 -5.03979e-06 0)
(6.83099e-05 -4.36838e-06 0)
(7.7451e-05 -3.98176e-06 0)
(8.63063e-05 -3.89957e-06 0)
(9.49639e-05 -4.14789e-06 0)
(0.00010352 -4.77838e-06 0)
(0.000112078 -5.89113e-06 0)
(0.000120744 -7.67095e-06 0)
(0.000129607 -1.04553e-05 0)
(0.000138652 -1.48646e-05 0)
(0.000147474 -2.20348e-05 0)
(0.000154427 -3.38751e-05 0)
(0.000154904 -5.24536e-05 0)
(4.69902e-06 -9.65968e-06 0)
(1.41643e-05 -9.45861e-06 0)
(2.36954e-05 -8.64763e-06 0)
(3.31545e-05 -7.54605e-06 0)
(4.24264e-05 -6.42734e-06 0)
(5.14449e-05 -5.4694e-06 0)
(6.01913e-05 -4.76824e-06 0)
(6.86816e-05 -4.37049e-06 0)
(7.69545e-05 -4.30374e-06 0)
(8.50614e-05 -4.60036e-06 0)
(9.30604e-05 -5.31768e-06 0)
(0.000101009 -6.5602e-06 0)
(0.000108952 -8.51154e-06 0)
(0.00011688 -1.14862e-05 0)
(0.000124636 -1.60097e-05 0)
(0.000131666 -2.29062e-05 0)
(0.000136518 -3.32253e-05 0)
(0.000136346 -4.73496e-05 0)
(3.99423e-06 -9.71035e-06 0)
(1.2106e-05 -9.61828e-06 0)
(2.04131e-05 -8.87962e-06 0)
(2.88017e-05 -7.81229e-06 0)
(3.71594e-05 -6.70061e-06 0)
(4.54055e-05 -5.73672e-06 0)
(5.34962e-05 -5.02964e-06 0)
(6.14183e-05 -4.63607e-06 0)
(6.91804e-05 -4.59095e-06 0)
(7.68036e-05 -4.93173e-06 0)
(8.43135e-05 -5.71836e-06 0)
(9.17294e-05 -7.05342e-06 0)
(9.90448e-05 -9.1071e-06 0)
(0.000106186 -1.21501e-05 0)
(0.000112923 -1.65876e-05 0)
(0.0001187 -2.29512e-05 0)
(0.000122411 -3.17022e-05 0)
(0.00012242 -4.25301e-05 0)
(3.41903e-06 -9.48484e-06 0)
(1.04199e-05 -9.51566e-06 0)
(1.77072e-05 -8.87211e-06 0)
(2.51872e-05 -7.86747e-06 0)
(3.27549e-05 -6.79219e-06 0)
(4.03232e-05 -5.84866e-06 0)
(4.78319e-05 -5.15627e-06 0)
(5.52461e-05 -4.78036e-06 0)
(6.255e-05 -4.76208e-06 0)
(6.97394e-05 -5.14235e-06 0)
(7.68126e-05 -5.98081e-06 0)
(8.37576e-05 -7.37266e-06 0)
(9.05313e-05 -9.4658e-06 0)
(9.7021e-05 -1.24763e-05 0)
(0.000102978 -1.66891e-05 0)
(0.000107925 -2.24031e-05 0)
(0.000111087 -2.97335e-05 0)
(0.000111577 -3.818e-05 0)
(2.9418e-06 -9.02061e-06 0)
(9.01517e-06 -9.18136e-06 0)
(1.54378e-05 -8.64664e-06 0)
(2.21327e-05 -7.72488e-06 0)
(2.90061e-05 -6.70914e-06 0)
(3.59702e-05 -5.8081e-06 0)
(4.29548e-05 -5.1485e-06 0)
(4.99084e-05 -4.80231e-06 0)
(5.67961e-05 -4.8154e-06 0)
(6.35927e-05 -5.23044e-06 0)
(7.0274e-05 -6.10404e-06 0)
(7.68039e-05 -7.51998e-06 0)
(8.31152e-05 -9.59889e-06 0)
(8.90791e-05 -1.25006e-05 0)
(9.44628e-05 -1.64057e-05 0)
(9.889e-05 -2.14501e-05 0)
(0.000101854 -2.75747e-05 0)
(0.000102895 -3.43021e-05 0)
(2.54105e-06 -8.35088e-06 0)
(7.83011e-06 -8.64142e-06 0)
(1.35093e-05 -8.22062e-06 0)
(1.95173e-05 -7.39451e-06 0)
(2.57734e-05 -6.45602e-06 0)
(3.2194e-05 -5.61599e-06 0)
(3.87026e-05 -5.00511e-06 0)
(4.52362e-05 -4.69959e-06 0)
(5.17441e-05 -4.74821e-06 0)
(5.81841e-05 -5.19366e-06 0)
(6.45142e-05 -6.0874e-06 0)
(7.06813e-05 -7.49934e-06 0)
(7.6605e-05 -9.52165e-06 0)
(8.21562e-05 -1.22628e-05 0)
(8.71354e-05 -1.58227e-05 0)
(9.12645e-05 -2.02349e-05 0)
(9.42271e-05 -2.53708e-05 0)
(9.57952e-05 -3.08429e-05 0)
(2.20111e-06 -7.50778e-06 0)
(6.81931e-06 -7.91969e-06 0)
(1.18517e-05 -7.60929e-06 0)
(1.72523e-05 -6.88478e-06 0)
(2.29562e-05 -6.03636e-06 0)
(2.88856e-05 -5.27268e-06 0)
(3.49615e-05 -4.72456e-06 0)
(4.11116e-05 -4.4697e-06 0)
(4.72733e-05 -4.55789e-06 0)
(5.33908e-05 -5.03023e-06 0)
(5.94088e-05 -5.93162e-06 0)
(6.52632e-05 -7.31735e-06 0)
(7.08687e-05 -9.25291e-06 0)
(7.61062e-05 -1.18044e-05 0)
(8.08141e-05 -1.50145e-05 0)
(8.47958e-05 -1.88601e-05 0)
(8.786e-05 -2.31993e-05 0)
(8.99009e-05 -2.77388e-05 0)
(1.88598e-06 -6.59959e-06 0)
(5.88583e-06 -7.11029e-06 0)
(1.03304e-05 -6.89441e-06 0)
(1.51881e-05 -6.26579e-06 0)
(2.04043e-05 -5.50938e-06 0)
(2.59036e-05 -4.82782e-06 0)
(3.16026e-05 -4.3487e-06 0)
(3.74213e-05 -4.14885e-06 0)
(4.32871e-05 -4.27749e-06 0)
(4.91348e-05 -4.77325e-06 0)
(5.49006e-05 -5.67451e-06 0)
(6.05155e-05 -7.02362e-06 0)
(6.58958e-05 -8.86468e-06 0)
(7.09362e-05 -1.12333e-05 0)
(7.5508e-05 -1.41366e-05 0)
(7.94708e-05 -1.75255e-05 0)
(8.27038e-05 -2.12673e-05 0)
(8.51553e-05 -2.51421e-05 0)
(1.68103e-06 -5.60752e-06 0)
(5.26492e-06 -6.19024e-06 0)
(9.28956e-06 -6.05135e-06 0)
(1.3741e-05 -5.5134e-06 0)
(1.85801e-05 -4.85263e-06 0)
(2.3739e-05 -4.26107e-06 0)
(2.91349e-05 -3.85947e-06 0)
(3.46836e-05 -3.72131e-06 0)
(4.03067e-05 -3.89376e-06 0)
(4.59318e-05 -4.4122e-06 0)
(5.14898e-05 -5.30858e-06 0)
(5.69083e-05 -6.61394e-06 0)
(6.21067e-05 -8.35537e-06 0)
(6.69923e-05 -1.0547e-05 0)
(7.14626e-05 -1.31752e-05 0)
(7.54174e-05 -1.61817e-05 0)
(7.87819e-05 -1.94515e-05 0)
(8.15348e-05 -2.28192e-05 0)
(1.47584e-06 -4.42454e-06 0)
(4.63376e-06 -5.03926e-06 0)
(8.21906e-06 -4.95686e-06 0)
(1.22478e-05 -4.5099e-06 0)
(1.66983e-05 -3.95838e-06 0)
(2.15089e-05 -3.47585e-06 0)
(2.65956e-05 -3.17064e-06 0)
(3.18697e-05 -3.10949e-06 0)
(3.72465e-05 -3.33548e-06 0)
(4.2648e-05 -3.87954e-06 0)
(4.80005e-05 -4.76647e-06 0)
(5.3231e-05 -6.01633e-06 0)
(5.82638e-05 -7.6415e-06 0)
(6.30203e-05 -9.63992e-06 0)
(6.74229e-05 -1.19859e-05 0)
(7.14043e-05 -1.46217e-05 0)
(7.49221e-05 -1.74545e-05 0)
(7.79725e-05 -2.03652e-05 0)
(1.26059e-06 -3.07471e-06 0)
(3.96441e-06 -3.62971e-06 0)
(7.08296e-06 -3.5626e-06 0)
(1.0679e-05 -3.20098e-06 0)
(1.4745e-05 -2.77237e-06 0)
(1.92179e-05 -2.41957e-06 0)
(2.40076e-05 -2.23127e-06 0)
(2.9018e-05 -2.26367e-06 0)
(3.41582e-05 -2.55365e-06 0)
(3.93451e-05 -3.12657e-06 0)
(4.45026e-05 -4.00017e-06 0)
(4.95596e-05 -5.18531e-06 0)
(5.44487e-05 -6.68387e-06 0)
(5.91074e-05 -8.48463e-06 0)
(6.34813e-05 -1.05584e-05 0)
(6.75294e-05 -1.2855e-05 0)
(7.12307e-05 -1.53039e-05 0)
(7.45887e-05 -1.78217e-05 0)
(9.90732e-07 -1.60856e-06 0)
(3.14366e-06 -1.93208e-06 0)
(5.7446e-06 -1.82574e-06 0)
(8.91315e-06 -1.54672e-06 0)
(1.26313e-05 -1.25808e-06 0)
(1.68132e-05 -1.05553e-06 0)
(2.1348e-05 -1.00133e-06 0)
(2.61262e-05 -1.13866e-06 0)
(3.10491e-05 -1.49763e-06 0)
(3.60325e-05 -2.09929e-06 0)
(4.1006e-05 -2.95796e-06 0)
(4.59113e-05 -4.07966e-06 0)
(5.06984e-05 -5.4613e-06 0)
(5.53249e-05 -7.08841e-06 0)
(5.97558e-05 -8.93317e-06 0)
(6.39654e-05 -1.0954e-05 0)
(6.79391e-05 -1.30975e-05 0)
(7.16753e-05 -1.53039e-05 0)
(5.08337e-07 4.71184e-09 0)
(1.75238e-06 1.19977e-07 0)
(3.63344e-06 2.82975e-07 0)
(6.30297e-06 4.52069e-07 0)
(9.6519e-06 5.80241e-07 0)
(1.35299e-05 6.18528e-07 0)
(1.7806e-05 5.24703e-07 0)
(2.23718e-05 2.66798e-07 0)
(2.7135e-05 -1.77316e-07 0)
(3.20273e-05 -8.31403e-07 0)
(3.70155e-05 -1.73961e-06 0)
(4.20547e-05 -2.8606e-06 0)
(4.70772e-05 -4.18931e-06 0)
(5.20257e-05 -5.71022e-06 0)
(5.68526e-05 -7.39766e-06 0)
(6.15201e-05 -9.21693e-06 0)
(6.60015e-05 -1.11268e-05 0)
(7.02815e-05 -1.30831e-05 0)
(1.19148e-06 1.93597e-06 0)
(3.64978e-06 2.62494e-06 0)
(6.35278e-06 2.94137e-06 0)
(9.44156e-06 3.04047e-06 0)
(1.29693e-05 2.99975e-06 0)
(1.69194e-05 2.83427e-06 0)
(2.12331e-05 2.536e-06 0)
(2.58351e-05 2.09319e-06 0)
(3.06486e-05 1.49681e-06 0)
(3.55905e-05 7.32413e-07 0)
(4.0561e-05 -2.34822e-07 0)
(4.55134e-05 -1.39864e-06 0)
(5.0462e-05 -2.77061e-06 0)
(5.53847e-05 -4.2673e-06 0)
(6.02294e-05 -5.86751e-06 0)
(6.49549e-05 -7.54456e-06 0)
(6.95309e-05 -9.26872e-06 0)
(7.39379e-05 -1.10096e-05 0)
(1.67727e-06 4.6184e-06 0)
(5.14891e-06 5.69996e-06 0)
(8.86048e-06 6.20133e-06 0)
(1.28305e-05 6.28701e-06 0)
(1.70767e-05 6.08994e-06 0)
(2.15966e-05 5.69132e-06 0)
(2.63635e-05 5.13473e-06 0)
(3.1334e-05 4.44244e-06 0)
(3.64554e-05 3.62642e-06 0)
(4.16726e-05 2.69417e-06 0)
(4.69327e-05 1.65394e-06 0)
(5.21621e-05 4.72919e-07 0)
(5.72697e-05 -8.55801e-07 0)
(6.22399e-05 -2.32513e-06 0)
(6.70936e-05 -3.85433e-06 0)
(7.1814e-05 -5.40829e-06 0)
(7.63834e-05 -6.96857e-06 0)
(8.07911e-05 -8.51691e-06 0)
(1.92646e-06 7.64739e-06 0)
(5.9502e-06 8.73432e-06 0)
(1.02934e-05 9.22438e-06 0)
(1.49204e-05 9.2257e-06 0)
(1.98051e-05 8.86959e-06 0)
(2.49179e-05 8.26226e-06 0)
(3.02208e-05 7.47775e-06 0)
(3.56684e-05 6.56416e-06 0)
(4.12117e-05 5.55198e-06 0)
(4.68014e-05 4.46105e-06 0)
(5.23915e-05 3.30563e-06 0)
(5.79398e-05 2.0967e-06 0)
(6.34086e-05 8.47223e-07 0)
(6.87201e-05 -5.05991e-07 0)
(7.3848e-05 -1.95646e-06 0)
(7.88254e-05 -3.40805e-06 0)
(8.36459e-05 -4.8373e-06 0)
(8.82998e-05 -6.23422e-06 0)
(2.31419e-06 1.03059e-05 0)
(7.10785e-06 1.11893e-05 0)
(1.22123e-05 1.15073e-05 0)
(1.75859e-05 1.13367e-05 0)
(2.31852e-05 1.07994e-05 0)
(2.89657e-05 1.00063e-05 0)
(3.48804e-05 9.04242e-06 0)
(4.08809e-05 7.96661e-06 0)
(4.69189e-05 6.81779e-06 0)
(5.29488e-05 5.62125e-06 0)
(5.8929e-05 4.39383e-06 0)
(6.48234e-05 3.14766e-06 0)
(7.06012e-05 1.89256e-06 0)
(7.62356e-05 6.37322e-07 0)
(8.1666e-05 -6.88345e-07 0)
(8.68793e-05 -2.06445e-06 0)
(9.19076e-05 -3.39854e-06 0)
(9.6748e-05 -4.68553e-06 0)
(2.79383e-06 1.25072e-05 0)
(8.52204e-06 1.31445e-05 0)
(1.45187e-05 1.32399e-05 0)
(2.07465e-05 1.28662e-05 0)
(2.71538e-05 1.21413e-05 0)
(3.36861e-05 1.11776e-05 0)
(4.02891e-05 1.00639e-05 0)
(4.69114e-05 8.86318e-06 0)
(5.35052e-05 7.61751e-06 0)
(6.00279e-05 6.35368e-06 0)
(6.64427e-05 5.08859e-06 0)
(7.2719e-05 3.8332e-06 0)
(7.88321e-05 2.59517e-06 0)
(8.47631e-05 1.38044e-06 0)
(9.04858e-05 1.85674e-07 0)
(9.59657e-05 -1.07451e-06 0)
(0.000101209 -2.31246e-06 0)
(0.000106239 -3.49353e-06 0)
(3.3801e-06 1.41021e-05 0)
(1.02443e-05 1.45011e-05 0)
(1.73079e-05 1.43723e-05 0)
(2.45364e-05 1.37997e-05 0)
(3.18736e-05 1.29039e-05 0)
(3.92589e-05 1.17979e-05 0)
(4.66344e-05 1.0571e-05 0)
(5.39479e-05 9.28648e-06 0)
(6.11542e-05 7.98579e-06 0)
(6.82153e-05 6.69451e-06 0)
(7.51007e-05 5.42769e-06 0)
(8.17865e-05 4.19391e-06 0)
(8.82549e-05 2.99814e-06 0)
(9.44937e-05 1.84343e-06 0)
(0.000100495 7.31827e-07 0)
(0.000106231 -3.74465e-07 0)
(0.000111697 -1.50927e-06 0)
(0.000116919 -2.58176e-06 0)
(4.09357e-06 1.5013e-05 0)
(1.23376e-05 1.52021e-05 0)
(2.06854e-05 1.48753e-05 0)
(2.90993e-05 1.41338e-05 0)
(3.75191e-05 1.3103e-05 0)
(4.58816e-05 1.18964e-05 0)
(5.41288e-05 1.06017e-05 0)
(6.2212e-05 9.27947e-06 0)
(7.0092e-05 7.96828e-06 0)
(7.77388e-05 6.69067e-06 0)
(8.51304e-05 5.45862e-06 0)
(9.22519e-05 4.27775e-06 0)
(9.90943e-05 3.15009e-06 0)
(0.000105653 2.07594e-06 0)
(0.000111929 1.05481e-06 0)
(0.000117915 8.1275e-08 0)
(0.000123601 -9.26806e-07 0)
(0.000128999 -1.88578e-06 0)
(4.96556e-06 1.52021e-05 0)
(1.48935e-05 1.52182e-05 0)
(2.47982e-05 1.47363e-05 0)
(3.46307e-05 1.38731e-05 0)
(4.43262e-05 1.27584e-05 0)
(5.38216e-05 1.15044e-05 0)
(6.30641e-05 1.01947e-05 0)
(7.20137e-05 8.88539e-06 0)
(8.06421e-05 7.6105e-06 0)
(8.89315e-05 6.38844e-06 0)
(9.68723e-05 5.22759e-06 0)
(0.000104461 4.13041e-06 0)
(0.0001117 3.09617e-06 0)
(0.000118596 2.12273e-06 0)
(0.000125155 1.20742e-06 0)
(0.00013139 3.47494e-07 0)
(0.000137294 -5.13143e-07 0)
(0.000142876 -1.35348e-06 0)
(6.04635e-06 1.46464e-05 0)
(1.80585e-05 1.45312e-05 0)
(2.98782e-05 1.39478e-05 0)
(4.14368e-05 1.30232e-05 0)
(5.26629e-05 1.18875e-05 0)
(6.3498e-05 1.06482e-05 0)
(7.39004e-05 9.38276e-06 0)
(8.38459e-05 8.14085e-06 0)
(9.33237e-05 6.95093e-06 0)
(0.000102334 5.82684e-06 0)
(0.000110884 4.77331e-06 0)
(0.000118986 3.78989e-06 0)
(0.000126656 2.87358e-06 0)
(0.000133913 2.02031e-06 0)
(0.000140775 1.22586e-06 0)
(0.000147262 4.86271e-07 0)
(0.000153381 -2.26706e-07 0)
(0.000159146 -9.43462e-07 0)
(7.42434e-06 1.33158e-05 0)
(2.20894e-05 1.31148e-05 0)
(3.63334e-05 1.24926e-05 0)
(5.00558e-05 1.15777e-05 0)
(6.3178e-05 1.04941e-05 0)
(7.5651e-05 9.34041e-06 0)
(8.74535e-05 8.18469e-06 0)
(9.85861e-05 7.06874e-06 0)
(0.000109065 6.01484e-06 0)
(0.000118915 5.03228e-06 0)
(0.000128168 4.12254e-06 0)
(0.000136857 3.2829e-06 0)
(0.000145016 2.50875e-06 0)
(0.000152678 1.79487e-06 0)
(0.000159877 1.13618e-06 0)
(0.000166642 5.28059e-07 0)
(0.000172994 -3.99183e-08 0)
(0.000178953 -6.2559e-07 0)
(9.27837e-06 1.11398e-05 0)
(2.75074e-05 1.09038e-05 0)
(4.49915e-05 1.03161e-05 0)
(6.1582e-05 9.49497e-06 0)
(7.71922e-05 8.5495e-06 0)
(9.17911e-05 7.56313e-06 0)
(0.000105391 6.59139e-06 0)
(0.000118032 5.66667e-06 0)
(0.000129769 4.80475e-06 0)
(0.000140667 4.01083e-06 0)
(0.000150789 3.28396e-06 0)
(0.000160198 2.62011e-06 0)
(0.000168951 2.01397e-06 0)
(0.000177104 1.4601e-06 0)
(0.000184707 9.53353e-07 0)
(0.000191803 4.89143e-07 0)
(0.000198435 6.34321e-08 0)
(0.000204624 -3.78533e-07 0)
(1.20646e-05 7.92947e-06 0)
(3.56424e-05 7.71967e-06 0)
(5.7969e-05 7.25878e-06 0)
(7.88182e-05 6.63843e-06 0)
(9.80929e-05 5.94015e-06 0)
(0.000115797 5.22422e-06 0)
(0.000132 4.52927e-06 0)
(0.000146808 3.8766e-06 0)
(0.000160343 3.27557e-06 0)
(0.000172726 2.72812e-06 0)
(0.000184074 2.23213e-06 0)
(0.000194492 1.78358e-06 0)
(0.000204077 1.37779e-06 0)
(0.000212913 1.01017e-06 0)
(0.000221075 6.76533e-07 0)
(0.00022863 3.73187e-07 0)
(0.000235636 9.69027e-08 0)
(0.000242132 -1.88701e-07 0)
(1.77691e-05 3.02217e-06 0)
(5.22948e-05 2.93247e-06 0)
(8.45228e-05 2.747e-06 0)
(0.000114064 2.50248e-06 0)
(0.000140807 2.23092e-06 0)
(0.000164836 1.95548e-06 0)
(0.000186347 1.69063e-06 0)
(0.000205588 1.44401e-06 0)
(0.000222817 1.21872e-06 0)
(0.000238281 1.01505e-06 0)
(0.0002522 8.31833e-07 0)
(0.000264769 6.67248e-07 0)
(0.000276158 5.19302e-07 0)
(0.000286511 3.8608e-07 0)
(0.000295953 2.6586e-07 0)
(0.000304591 1.57138e-07 0)
(0.000312518 5.86184e-08 0)
(0.000319786 -4.36675e-08 0)
(1.41206e-05 -1.10447e-05 -1.42582e-31)
(4.24583e-05 -1.1029e-05 1.42045e-31)
(7.09549e-05 -1.10022e-05 0)
(9.95859e-05 -1.09646e-05 0)
(0.000128327 -1.09161e-05 0)
(0.000157151 -1.08559e-05 -1.38454e-31)
(0.00018603 -1.07821e-05 0)
(0.000214929 -1.06925e-05 0)
(0.000243811 -1.05848e-05 0)
(0.000272629 -1.04572e-05 0)
(0.000301335 -1.03083e-05 1.29675e-31)
(0.000329874 -1.01376e-05 0)
(0.000358185 -9.94533e-06 0)
(0.000386205 -9.73249e-06 0)
(0.000413865 -9.50122e-06 0)
(0.000441094 -9.25466e-06 1.14407e-31)
(0.000467816 -8.99709e-06 0)
(0.000493952 -8.73382e-06 0)
(0.00051942 -8.47101e-06 0)
(0.000544132 -8.2153e-06 0)
(0.000567998 -7.97328e-06 0)
(0.000590919 -7.75115e-06 0)
(0.000612789 -7.55421e-06 0)
(0.000633489 -7.38673e-06 8.79932e-32)
(0.000652891 -7.25194e-06 -8.60219e-32)
(0.00067085 -7.15208e-06 8.45193e-32)
(0.000687205 -7.08863e-06 8.35061e-32)
(0.000701783 -7.06245e-06 0)
(0.000714402 -7.07392e-06 0)
(0.000724882 -7.12309e-06 -8.35067e-32)
(0.000733058 -7.20968e-06 -8.45295e-32)
(0.000738812 -7.33307e-06 0)
(0.0007421 -7.49216e-06 0)
(0.000742996 -7.6853e-06 -9.05594e-32)
(0.000741728 -7.91026e-06 0)
(0.000738702 -8.16446e-06 0)
(0.000734502 -8.44565e-06 1.00487e-31)
(0.000729858 -8.75296e-06 0)
(0.000725577 -9.08828e-06 1.08898e-31)
(0.000722465 -9.45762e-06 2.27417e-31)
(0.000721252 -9.87238e-06 0)
(0.000722553 -1.03503e-05 0)
(0.000726866 -1.09164e-05 0)
(0.000734607 -1.16045e-05 0)
(0.000746193 -1.24599e-05 0)
(0.000762144 -1.35444e-05 3.32122e-31)
(0.000783252 -1.4946e-05 3.67852e-31)
(0.000810841 -1.67939e-05 4.14969e-31)
(0.000847272 -1.92883e-05 0)
(0.000897081 -2.27541e-05 -5.67e-31)
(0.000970086 -2.77573e-05 0)
(0.00109255 -3.54334e-05 8.90138e-31)
(0.00137153 -4.90975e-05 1.23676e-30)
(0.00338075 -9.64812e-05 0)
(0.0115675 -0.00279219 0)
(0.0172845 0.0009042 0)
(0.0162016 0.000558859 -1.48287e-29)
(0.0154926 0.000389823 0)
(0.0149743 0.000297704 0)
(0.0145636 0.000242495 0)
(0.0142195 0.000206359 0)
(0.0139201 0.000180765 0)
(0.0136532 0.0001614 0)
(0.0134115 0.00014597 0)
(0.01319 0.000133186 0)
(0.0129857 0.000122284 3.46755e-30)
(0.012796 0.000112788 0)
(0.0126193 0.000104384 0)
(0.0124541 9.68577e-05 -2.79774e-30)
(0.0122994 9.00554e-05 -2.61826e-30)
(0.0121543 8.38643e-05 0)
(0.0120178 7.81983e-05 2.30511e-30)
(0.0118895 7.29897e-05 -2.16744e-30)
(0.0117686 6.81843e-05 0)
(0.0116546 6.37375e-05 1.92273e-30)
(0.0115472 5.96122e-05 0)
(0.0114458 5.57769e-05 0)
(0.0113501 5.22047e-05 -1.61742e-30)
(0.0112598 4.88722e-05 0)
(0.0111745 4.57592e-05 1.44667e-30)
(0.0110939 4.28478e-05 0)
(0.0110178 4.01222e-05 -1.29726e-30)
(0.010946 3.75685e-05 -1.22955e-30)
(0.0108781 3.5174e-05 -1.16605e-30)
(0.010814 3.29276e-05 -2.21294e-30)
(0.0107535 3.08191e-05 2.10108e-30)
(0.0106964 2.88394e-05 0)
(0.0106425 2.698e-05 0)
(0.0105917 2.52334e-05 0)
(0.0105437 2.35925e-05 1.71756e-30)
(0.0104985 2.20509e-05 1.63573e-30)
(0.0104559 2.06026e-05 -1.55884e-30)
(0.0104157 1.92421e-05 0)
(0.0103778 1.79643e-05 1.41875e-30)
(0.0103422 1.67642e-05 1.35504e-30)
(0.0103087 1.56376e-05 1.29521e-30)
(0.0102771 1.45801e-05 0)
(0.0102475 1.35878e-05 0)
(0.0102196 1.2657e-05 0)
(0.0101934 1.17842e-05 1.09055e-30)
(0.0101688 1.09661e-05 0)
(0.0101457 1.01996e-05 0)
(0.0101241 9.48174e-06 -9.68237e-31)
(0.0101038 8.80973e-06 0)
(0.0100848 8.18094e-06 0)
(0.010067 7.59288e-06 -8.67891e-31)
(0.0100503 7.04319e-06 0)
(0.0100347 6.52962e-06 0)
(0.0100201 6.05005e-06 7.85915e-31)
(0.0100065 5.60248e-06 7.62132e-31)
(0.00999375 5.185e-06 0)
(0.00998187 4.79579e-06 -7.19269e-31)
(0.00997079 4.43317e-06 0)
(0.00996045 4.09549e-06 6.8205e-31)
(0.00995082 3.78124e-06 0)
(0.00994186 3.48896e-06 6.49817e-31)
(0.00993351 3.21728e-06 6.35372e-31)
(0.00992575 2.9649e-06 0)
(0.00991853 2.7306e-06 0)
(0.00991183 2.51321e-06 0)
(0.00990561 2.31165e-06 0)
(0.00989984 2.12488e-06 0)
(0.00989449 1.95194e-06 0)
(0.00988953 1.79189e-06 0)
(0.00988494 1.64388e-06 5.51741e-31)
(0.00988069 1.50709e-06 -5.44464e-31)
(0.00987676 1.38077e-06 0)
(0.00987313 1.26418e-06 0)
(0.00986977 1.15666e-06 0)
(0.00986668 1.05758e-06 0)
(0.00986382 9.66328e-07 -1.03142e-30)
(0.00986119 8.8236e-07 0)
(0.00985877 8.05153e-07 1.01428e-30)
(0.00985654 7.34219e-07 -1.00674e-30)
(0.00985448 6.69105e-07 0)
(0.0098526 6.09387e-07 0)
(0.00985086 5.54671e-07 0)
(0.00984927 5.04591e-07 9.82314e-31)
(0.00984781 4.58809e-07 9.77442e-31)
(0.00984647 4.17012e-07 0)
(0.00984524 3.78914e-07 9.68934e-31)
(0.00984411 3.44252e-07 9.6524e-31)
(0.00984308 3.12788e-07 -9.61895e-31)
(0.00984213 2.84311e-07 0)
(0.00984126 2.58631e-07 0)
(0.00984046 2.35587e-07 -9.53665e-31)
(0.00983972 2.15044e-07 0)
(0.00983905 1.96896e-07 0)
(0.00983842 1.81071e-07 0)
(0.00983783 1.67531e-07 0)
(0.00983728 1.56282e-07 9.45163e-31)
(0.00983676 1.47378e-07 9.44194e-31)
(0.00983627 1.40931e-07 0)
(0.00983578 1.37126e-07 9.43042e-31)
(0.0098353 1.36235e-07 0)
(0.00983481 1.38636e-07 0)
(0.00983431 1.44848e-07 9.43701e-31)
(0.00983376 1.55558e-07 0)
(0.00983316 1.71678e-07 9.46369e-31)
(0.00983249 1.944e-07 0)
(0.00983171 2.25284e-07 0)
(0.00983078 2.66369e-07 9.55933e-31)
(0.00982967 3.20325e-07 0)
(0.00982831 3.90652e-07 9.68548e-31)
(0.00982662 4.81972e-07 0)
(0.00982451 6.00424e-07 0)
(0.00982184 7.54233e-07 0)
(0.00981844 9.54543e-07 -1.02592e-30)
(0.00981408 1.21668e-06 0)
(0.00980844 1.56206e-06 1.08779e-30)
(0.00980111 2.02139e-06 0)
(0.00979147 2.63986e-06 0)
(0.00977868 3.48652e-06 0)
(0.00976148 4.67209e-06 0)
(0.00973795 6.38542e-06 0)
(0.00970493 8.97719e-06 0)
(0.00965684 1.31799e-05 0)
(0.00958233 2.08106e-05 -6.11338e-30)
(0.00945281 3.76946e-05 0)
(0.00916578 9.06379e-05 0)
(5.95007e-06 -2.87646e-05 3.71562e-31)
(1.7887e-05 -2.87018e-05 -3.70327e-31)
(2.98788e-05 -2.86148e-05 0)
(4.19105e-05 -2.85034e-05 7.34817e-31)
(5.39684e-05 -2.83685e-05 0)
(6.60364e-05 -2.82084e-05 -3.63805e-31)
(7.80906e-05 -2.80192e-05 -7.20591e-31)
(9.00963e-05 -2.77957e-05 -7.14247e-31)
(0.000102007 -2.75328e-05 0)
(0.000113768 -2.7226e-05 -6.98402e-31)
(0.000125314 -2.68721e-05 3.45834e-31)
(0.000136576 -2.64693e-05 0)
(0.000147484 -2.60176e-05 0)
(0.000157969 -2.55185e-05 0)
(0.000167967 -2.49757e-05 0)
(0.000177426 -2.4395e-05 3.13203e-31)
(0.000186311 -2.37848e-05 0)
(0.00019461 -2.31558e-05 5.89374e-31)
(0.00020234 -2.25213e-05 0)
(0.000209549 -2.18958e-05 0)
(0.000216319 -2.12947e-05 -5.40241e-31)
(0.000222757 -2.07331e-05 0)
(0.000228991 -2.02244e-05 5.11974e-31)
(0.000235157 -1.97801e-05 2.52876e-31)
(0.000241396 -1.94094e-05 -2.4801e-31)
(0.000247843 -1.91189e-05 2.4418e-31)
(0.000254623 -1.89133e-05 2.41443e-31)
(0.000261846 -1.87959e-05 0)
(0.000269605 -1.87683e-05 0)
(0.000277978 -1.88317e-05 -2.40112e-31)
(0.000287027 -1.89863e-05 -7.19236e-31)
(0.000296801 -1.92323e-05 0)
(0.000307341 -1.95688e-05 0)
(0.000318684 -1.99951e-05 -2.54668e-31)
(0.000330868 -2.05097e-05 0)
(0.000343937 -2.1112e-05 0)
(0.000357945 -2.18025e-05 2.77566e-31)
(0.000372955 -2.25858e-05 0)
(0.000389048 -2.34722e-05 8.87148e-31)
(0.000406318 -2.44806e-05 6.23217e-31)
(0.000424882 -2.56418e-05 0)
(0.000444883 -2.70004e-05 0)
(0.000466505 -2.86184e-05 -1.43548e-30)
(0.000489992 -3.05802e-05 -1.53468e-30)
(0.000515686 -3.30002e-05 -1.65737e-30)
(0.000544087 -3.60373e-05 2.73039e-30)
(0.000575958 -3.9919e-05 1.01828e-30)
(0.000612517 -4.49863e-05 -1.11948e-30)
(0.000655822 -5.17777e-05 2.61491e-30)
(0.000709642 -6.12079e-05 -1.56543e-30)
(0.000781765 -7.49975e-05 0)
(0.000891605 -9.69731e-05 2.48565e-30)
(0.00110607 -0.000138643 1.06209e-29)
(0.00194028 -0.000269048 0)
(0.00896883 -0.00503644 0)
(0.0155009 0.0015792 0)
(0.0155112 0.00135708 -3.54459e-29)
(0.0151447 0.00103139 0)
(0.0147799 0.000827854 -4.41947e-29)
(0.0144443 0.00069425 0)
(0.0141396 0.000600957 -3.2404e-29)
(0.0138625 0.000531724 0)
(0.0136091 0.000477604 2.59767e-29)
(0.013376 0.000433524 0)
(0.0131605 0.000396472 -2.17399e-29)
(0.0129605 0.000364575 2.98021e-29)
(0.0127741 0.000336615 0)
(0.0126 0.000311764 1.73077e-29)
(0.0124369 0.000289441 -7.77548e-30)
(0.012284 0.000269223 -7.24926e-30)
(0.0121403 0.000250793 0)
(0.0120051 0.000233908 1.95562e-29)
(0.0118778 0.000218372 -5.9252e-30)
(0.0117579 0.000204029 0)
(0.0116449 0.00019075 5.2057e-30)
(0.0115382 0.000178425 1.0314e-29)
(0.0114375 0.000166963 0)
(0.0113425 0.000156284 -4.30764e-30)
(0.0112527 0.00014632 0)
(0.0111679 0.000137009 -4.3326e-30)
(0.0110878 0.0001283 0)
(0.0110122 0.000120145 3.88564e-30)
(0.0109407 0.000112503 -3.16645e-30)
(0.0108732 0.000105337 -9.45226e-30)
(0.0108095 9.86136e-05 -1.78466e-29)
(0.0107493 9.23021e-05 1.68535e-29)
(0.0106925 8.63754e-05 0)
(0.0106389 8.08086e-05 0)
(0.0105883 7.55791e-05 0)
(0.0105405 7.06658e-05 -5.14645e-30)
(0.0104955 6.60495e-05 3.91026e-30)
(0.0104531 6.17125e-05 -3.68404e-30)
(0.0104131 5.76381e-05 0)
(0.0103754 5.38112e-05 1.07955e-29)
(0.01034 5.02172e-05 3.08441e-30)
(0.0103066 4.68428e-05 2.90838e-30)
(0.0102752 4.36755e-05 0)
(0.0102457 4.07034e-05 0)
(0.0102179 3.79154e-05 0)
(0.0101919 3.53012e-05 2.30627e-30)
(0.0101674 3.28507e-05 0)
(0.0101444 3.05547e-05 5.07529e-30)
(0.0101229 2.84044e-05 2.90243e-30)
(0.0101026 2.63914e-05 -4.63693e-30)
(0.0100837 2.45079e-05 0)
(0.010066 2.27463e-05 -5.90437e-30)
(0.0100494 2.10997e-05 0)
(0.0100338 1.95612e-05 -3.91772e-30)
(0.0100193 1.81246e-05 5.17655e-30)
(0.0100058 1.67839e-05 4.96541e-30)
(0.00999308 1.55332e-05 0)
(0.00998125 1.43673e-05 2.15667e-30)
(0.00997021 1.3281e-05 -3.25633e-30)
(0.00995992 1.22694e-05 1.10461e-30)
(0.00995034 1.1328e-05 0)
(0.00994141 1.04524e-05 1.0098e-30)
(0.0099331 9.63856e-06 -1.90538e-30)
(0.00992537 8.8825e-06 0)
(0.00991818 8.18058e-06 -2.71914e-30)
(0.00991151 7.52935e-06 -2.65054e-30)
(0.00990532 6.92552e-06 -2.58694e-30)
(0.00989957 6.366e-06 0)
(0.00989424 5.84787e-06 0)
(0.0098893 5.3684e-06 0)
(0.00988473 4.92499e-06 3.09756e-30)
(0.0098805 4.5152e-06 -6.99971e-31)
(0.00987658 4.13675e-06 0)
(0.00987297 3.78748e-06 2.25636e-30)
(0.00986963 3.46536e-06 2.22243e-30)
(0.00986654 3.16851e-06 0)
(0.0098637 2.89513e-06 -1.23085e-30)
(0.00986108 2.64357e-06 4.27169e-30)
(0.00985867 2.41226e-06 1.18044e-30)
(0.00985644 2.19975e-06 -5.33641e-30)
(0.0098544 2.00467e-06 0)
(0.00985252 1.82575e-06 0)
(0.00985079 1.66182e-06 0)
(0.00984921 1.51178e-06 1.08645e-30)
(0.00984775 1.37462e-06 5.07636e-30)
(0.00984642 1.24939e-06 3.97783e-30)
(0.00984519 1.13524e-06 1.04713e-30)
(0.00984407 1.03139e-06 4.96814e-30)
(0.00984304 9.37112e-07 -1.02644e-30)
(0.0098421 8.51781e-07 0)
(0.00984123 7.74831e-07 0)
(0.00984043 7.05774e-07 -4.86544e-30)
(0.0098397 6.44206e-07 0)
(0.00983903 5.89812e-07 0)
(0.0098384 5.42369e-07 3.8286e-30)
(0.00983782 5.01767e-07 0)
(0.00983727 4.6802e-07 4.79019e-30)
(0.00983676 4.41288e-07 9.74583e-31)
(0.00983626 4.21907e-07 0)
(0.00983578 4.10425e-07 4.77162e-30)
(0.0098353 4.0765e-07 0)
(0.00983482 4.14717e-07 0)
(0.00983431 4.33167e-07 9.73513e-31)
(0.00983378 4.65055e-07 3.81086e-30)
(0.00983319 5.13098e-07 9.81673e-31)
(0.00983252 5.80853e-07 0)
(0.00983175 6.72978e-07 0)
(0.00983084 7.95553e-07 4.88875e-30)
(0.00982974 9.56537e-07 0)
(0.00982839 1.16637e-06 5.00263e-30)
(0.00982673 1.43884e-06 0)
(0.00982465 1.79222e-06 0)
(0.00982202 2.25101e-06 0)
(0.00981867 2.84839e-06 -1.22176e-30)
(0.00981438 3.62988e-06 0)
(0.00980884 4.65913e-06 1.40806e-30)
(0.00980163 6.02707e-06 0)
(0.00979218 7.86732e-06 0)
(0.00977965 1.03834e-05 5.84148e-30)
(0.00976286 1.38998e-05 -6.5623e-30)
(0.00973997 1.89659e-05 0)
(0.00970809 2.65887e-05 0)
(0.00966228 3.88232e-05 0)
(0.00959348 6.05327e-05 1.79537e-29)
(0.00948417 0.000105822 0)
(0.00931175 0.00022783 -1.01263e-28)
(4.64687e-06 -4.07759e-05 2.10751e-30)
(1.39664e-05 -4.06659e-05 -3.31919e-34)
(2.33253e-05 -4.05296e-05 0)
(3.27164e-05 -4.03653e-05 7.74579e-34)
(4.21334e-05 -4.0175e-05 0)
(5.15695e-05 -3.99587e-05 0)
(6.10122e-05 -3.97142e-05 -2.04597e-30)
(7.04403e-05 -3.94374e-05 -1.0161e-30)
(7.98231e-05 -3.91243e-05 1.00568e-30)
(8.91218e-05 -3.87713e-05 -9.98005e-31)
(9.82919e-05 -3.8376e-05 0)
(0.000107284 -3.79372e-05 0)
(0.000116049 -3.74549e-05 -9.59963e-31)
(0.000124536 -3.69304e-05 -1.89161e-30)
(0.000132697 -3.63666e-05 1.86131e-30)
(0.000140493 -3.57679e-05 0)
(0.000147897 -3.51404e-05 1.79576e-30)
(0.0001549 -3.44923e-05 8.84288e-31)
(0.000161517 -3.38335e-05 0)
(0.00016779 -3.31757e-05 1.69137e-30)
(0.000173788 -3.25317e-05 -8.32718e-31)
(0.000179608 -3.19146e-05 -1.6245e-30)
(0.000185365 -3.13372e-05 8.01293e-31)
(0.000191183 -3.08116e-05 0)
(0.000197191 -3.03488e-05 1.54106e-30)
(0.000203509 -2.99584e-05 1.51998e-30)
(0.000210249 -2.96486e-05 0)
(0.000217505 -2.94268e-05 1.49051e-30)
(0.000225356 -2.9299e-05 0)
(0.000233866 -2.92707e-05 1.48013e-30)
(0.000243085 -2.93468e-05 -7.47118e-31)
(0.000253051 -2.9532e-05 0)
(0.000263793 -2.98308e-05 0)
(0.000275336 -3.02484e-05 0)
(0.000287702 -3.07908e-05 0)
(0.000300913 -3.1466e-05 0)
(0.000314998 -3.22852e-05 0)
(0.000329988 -3.32644e-05 1.67298e-30)
(0.000345926 -3.44265e-05 -8.5723e-31)
(0.000362865 -3.58039e-05 0)
(0.000380878 -3.74413e-05 0)
(0.000400059 -3.93999e-05 0)
(0.000420542 -4.17614e-05 -4.21873e-30)
(0.000442513 -4.46365e-05 -2.26586e-30)
(0.000466241 -4.81749e-05 -2.20205e-32)
(0.000492123 -5.25849e-05 2.32429e-32)
(0.000520752 -5.81633e-05 -2.9332e-30)
(0.000553046 -6.53519e-05 -3.32638e-30)
(0.000590484 -7.48413e-05 7.59898e-30)
(0.000635589 -8.77905e-05 4.44861e-30)
(0.000693074 -0.000106344 0)
(0.000773072 -0.000135097 6.87482e-30)
(0.000903387 -0.000186563 1.90769e-29)
(0.00121208 -0.000316133 0)
(0.00439315 -0.00257826 0)
(0.0112682 -0.00181428 -9.21995e-29)
(0.0150542 0.00178216 0)
(0.0147886 0.00145318 0)
(0.0145298 0.00123394 -1.96868e-28)
(0.0142673 0.00107552 -1.15248e-28)
(0.0140093 0.000954057 -5.06465e-29)
(0.0137621 0.000856945 0)
(0.0135286 0.000776919 4.14433e-29)
(0.0133095 0.000709391 0)
(0.0131042 0.000651285 -1.05962e-28)
(0.0129118 0.000600473 3.2263e-29)
(0.0127314 0.000555451 6.1039e-29)
(0.0125621 0.000515134 8.46405e-29)
(0.012403 0.000478726 0)
(0.0122534 0.000445626 -4.9548e-29)