/*--------------------------------*- C++ -*----------------------------------*\
  =========                 |
  \\      /  F ield         | OpenFOAM: The Open Source CFD Toolbox
   \\    /   O peration     | Website:  https://openfoam.org
    \\  /    A nd           | Version:  11
     \\/     M anipulation  |
\*---------------------------------------------------------------------------*/
FoamFile
{
    format      ascii;
    class       volVectorField;
    location    "36";
    object      U;
}
// * * * * * * * * * * * * * * * * * * * * * * * * * * * * * * * * * * * * * //

dimensions      [0 1 -1 0 0 0 0];

internalField   nonuniform List<vector> 
2048
(
(1.00014 -0.000597469 0)
(1.00256 -0.00180222 0)
(1.00733 -0.00303153 0)
(1.01462 -0.00429949 0)
(1.02451 -0.00561657 0)
(1.03709 -0.00698596 0)
(1.05244 -0.00840086 0)
(1.07063 -0.00984258 0)
(1.09171 -0.0112796 0)
(1.11563 -0.0126675 0)
(1.14227 -0.01395 0)
(1.17135 -0.0150617 0)
(1.2025 -0.0159341 0)
(1.23517 -0.0165041 0)
(1.26873 -0.0167264 0)
(1.30245 -0.0165846 0)
(1.33559 -0.016098 0)
(1.36748 -0.0153205 0)
(1.39756 -0.0143294 0)
(1.42543 -0.0132059 0)
(1.45088 -0.0120197 0)
(1.47386 -0.0108238 0)
(1.4944 -0.00965654 0)
(1.5126 -0.00854499 0)
(1.52862 -0.00750659 0)
(1.54262 -0.00655076 0)
(1.55477 -0.00568092 0)
(1.56527 -0.00489677 0)
(1.57427 -0.00419588 0)
(1.58195 -0.00357454 0)
(1.58847 -0.00302837 0)
(1.59397 -0.00255273 0)
(1.59859 -0.00214311 0)
(1.60246 -0.00179525 0)
(1.60569 -0.00150509 0)
(1.6084 -0.0012686 0)
(1.61069 -0.00108165 0)
(1.61266 -0.000939832 0)
(1.61439 -0.00083826 0)
(1.61595 -0.000771494 0)
(1.61742 -0.000733417 0)
(1.61883 -0.000717252 0)
(1.62024 -0.000715605 0)
(1.62166 -0.000720656 0)
(1.6231 -0.000724342 0)
(1.62454 -0.000718747 0)
(1.62596 -0.000696315 0)
(1.62732 -0.00065049 0)
(1.62858 -0.000575804 0)
(1.62965 -0.000468718 0)
(1.63048 -0.000327243 0)
(1.63099 -0.000152154 0)
(1.63113 5.38971e-05 0)
(1.63081 0.00028503 0)
(1.63005 0.000535142 0)
(1.62868 0.000793399 0)
(1.62693 0.00105308 0)
(1.62442 0.00129964 0)
(1.62184 0.00153022 0)
(1.61811 0.0017262 0)
(1.6152 0.00189501 0)
(1.61001 0.00201231 0)
(1.60792 0.00210033 0)
(1.60028 0.00213168 0)
(1.00013 -0.0017871 0)
(1.00253 -0.00539064 0)
(1.00725 -0.00906973 0)
(1.01446 -0.0128697 0)
(1.02428 -0.0168246 0)
(1.03679 -0.0209459 0)
(1.0521 -0.0252152 0)
(1.07031 -0.0295772 0)
(1.09149 -0.0339367 0)
(1.11563 -0.0381577 0)
(1.1426 -0.0420662 0)
(1.17216 -0.0454613 0)
(1.20392 -0.04813 0)
(1.23732 -0.0498752 0)
(1.27166 -0.0505521 0)
(1.30617 -0.0501043 0)
(1.34003 -0.0485906 0)
(1.37249 -0.0461857 0)
(1.40298 -0.0431369 0)
(1.4311 -0.0396986 0)
(1.45669 -0.0360839 0)
(1.47969 -0.0324528 0)
(1.50019 -0.0289198 0)
(1.5183 -0.0255648 0)
(1.5342 -0.0224378 0)
(1.54806 -0.0195646 0)
(1.56006 -0.0169537 0)
(1.57041 -0.0146028 0)
(1.57927 -0.0125036 0)
(1.58681 -0.010644 0)
(1.5932 -0.00901038 0)
(1.59857 -0.0075883 0)
(1.60307 -0.00636413 0)
(1.60682 -0.00532514 0)
(1.60995 -0.00445923 0)
(1.61256 -0.0037545 0)
(1.61476 -0.00319867 0)
(1.61664 -0.00277863 0)
(1.6183 -0.00247986 0)
(1.6198 -0.00228608 0)
(1.62122 -0.00217892 0)
(1.6226 -0.00213795 0)
(1.62399 -0.00214081 0)
(1.6254 -0.00216379 0)
(1.62685 -0.00218235 0)
(1.62832 -0.00217233 0)
(1.62978 -0.0021107 0)
(1.63119 -0.00197737 0)
(1.6325 -0.00175582 0)
(1.63364 -0.00143508 0)
(1.63453 -0.00100945 0)
(1.6351 -0.000480721 0)
(1.63529 0.000143829 0)
(1.635 0.000845715 0)
(1.63425 0.00160595 0)
(1.63288 0.00239076 0)
(1.63111 0.00318039 0)
(1.62854 0.00392903 0)
(1.6259 0.00462979 0)
(1.62207 0.00522274 0)
(1.61908 0.00573515 0)
(1.61376 0.00608622 0)
(1.61161 0.0063534 0)
(1.60379 0.00644146 0)
(1.00013 -0.00295416 0)
(1.00247 -0.00891348 0)
(1.00707 -0.0150073 0)
(1.01413 -0.0213198 0)
(1.02377 -0.0279159 0)
(1.03612 -0.0348223 0)
(1.05133 -0.0420162 0)
(1.06955 -0.0494104 0)
(1.09091 -0.0568465 0)
(1.11545 -0.0640885 0)
(1.14309 -0.0708278 0)
(1.17362 -0.0767056 0)
(1.20663 -0.0813389 0)
(1.24151 -0.0843716 0)
(1.27749 -0.0855356 0)
(1.31362 -0.0847148 0)
(1.34894 -0.0820153 0)
(1.38257 -0.0777717 0)
(1.41387 -0.0724471 0)
(1.44248 -0.066497 0)
(1.46829 -0.0602889 0)
(1.49133 -0.0540924 0)
(1.51171 -0.0480987 0)
(1.52962 -0.0424366 0)
(1.54525 -0.037182 0)
(1.55881 -0.0323698 0)
(1.57051 -0.028008 0)
(1.58055 -0.0240891 0)
(1.58911 -0.0205962 0)
(1.59637 -0.0175065 0)
(1.60248 -0.0147948 0)
(1.6076 -0.0124361 0)
(1.61185 -0.0104072 0)
(1.61538 -0.00868705 0)
(1.61829 -0.00725571 0)
(1.6207 -0.00609385 0)
(1.62271 -0.00518154 0)
(1.62443 -0.00449739 0)
(1.62593 -0.00401757 0)
(1.62731 -0.00371504 0)
(1.62862 -0.0035592 0)
(1.62993 -0.00351568 0)
(1.63127 -0.00354664 0)
(1.63267 -0.00361161 0)
(1.63414 -0.00366863 0)
(1.63566 -0.00367596 0)
(1.6372 -0.0035938 0)
(1.63872 -0.00338717 0)
(1.64014 -0.00302739 0)
(1.6414 -0.00249531 0)
(1.64242 -0.00178083 0)
(1.6431 -0.00088832 0)
(1.64339 0.000172889 0)
(1.64316 0.0013707 0)
(1.64244 0.0026709 0)
(1.64105 0.00401412 0)
(1.63922 0.00536687 0)
(1.63654 0.00664778 0)
(1.63377 0.00784692 0)
(1.62975 0.0088565 0)
(1.62659 0.00972989 0)
(1.62101 0.010318 0)
(1.61872 0.0107707 0)
(1.61054 0.0109014 0)
(1.00013 -0.00407595 0)
(1.00236 -0.012307 0)
(1.00677 -0.0207471 0)
(1.01356 -0.0295301 0)
(1.02289 -0.0387633 0)
(1.03493 -0.0485004 0)
(1.04992 -0.0587283 0)
(1.06809 -0.0693377 0)
(1.08965 -0.080117 0)
(1.11474 -0.0907208 0)
(1.14337 -0.100678 0)
(1.17536 -0.109422 0)
(1.2103 -0.116329 0)
(1.24752 -0.120832 0)
(1.28608 -0.122498 0)
(1.3248 -0.121131 0)
(1.36241 -0.116926 0)
(1.39782 -0.110465 0)
(1.4303 -0.102501 0)
(1.45958 -0.0937204 0)
(1.48565 -0.0846555 0)
(1.50865 -0.07569 0)
(1.5288 -0.0670924 0)
(1.54634 -0.0590326 0)
(1.56152 -0.051598 0)
(1.5746 -0.0448199 0)
(1.58582 -0.038698 0)
(1.59538 -0.033214 0)
(1.60348 -0.0283381 0)
(1.61029 -0.0240329 0)
(1.61599 -0.0202594 0)
(1.62071 -0.0169804 0)
(1.6246 -0.0141629 0)
(1.62777 -0.0117774 0)
(1.63034 -0.00979687 0)
(1.63244 -0.00819525 0)
(1.63416 -0.00694584 0)
(1.6356 -0.00601983 0)
(1.63687 -0.00538467 0)
(1.63803 -0.00500287 0)
(1.63917 -0.00483138 0)
(1.64035 -0.00482144 0)
(1.64161 -0.00491896 0)
(1.64297 -0.00506557 0)
(1.64444 -0.00520024 0)
(1.64602 -0.00526156 0)
(1.64765 -0.00519064 0)
(1.6493 -0.00493544 0)
(1.65088 -0.0044528 0)
(1.65231 -0.00371394 0)
(1.6535 -0.00270219 0)
(1.65433 -0.00142387 0)
(1.65474 0.000107484 0)
(1.65459 0.00184349 0)
(1.65389 0.00373231 0)
(1.65246 0.00568676 0)
(1.65053 0.00765755 0)
(1.64767 0.00952186 0)
(1.64468 0.0112659 0)
(1.64035 0.0127261 0)
(1.63691 0.0139878 0)
(1.63091 0.0148199 0)
(1.62841 0.0154662 0)
(1.61966 0.0156158 0)
(1.00012 -0.00512698 0)
(1.00219 -0.0154977 0)
(1.00631 -0.0261727 0)
(1.01267 -0.0373521 0)
(1.02149 -0.0492004 0)
(1.03302 -0.0618167 0)
(1.04757 -0.0752171 0)
(1.0655 -0.089284 0)
(1.08716 -0.103781 0)
(1.11287 -0.118251 0)
(1.14275 -0.132055 0)
(1.17674 -0.144337 0)
(1.21443 -0.154088 0)
(1.25501 -0.160404 0)
(1.29732 -0.162564 0)
(1.33976 -0.160265 0)
(1.38058 -0.153942 0)
(1.41834 -0.14462 0)
(1.45231 -0.133446 0)
(1.48234 -0.121364 0)
(1.50862 -0.109067 0)
(1.53145 -0.0970571 0)
(1.55116 -0.0856759 0)
(1.56811 -0.0751155 0)
(1.58262 -0.0654499 0)
(1.59501 -0.0566883 0)
(1.60552 -0.0488104 0)
(1.61439 -0.0417793 0)
(1.62182 -0.0355449 0)
(1.62801 -0.0300508 0)
(1.6331 -0.0252412 0)
(1.63725 -0.0210664 0)
(1.64058 -0.0174832 0)
(1.64322 -0.0144545 0)
(1.64528 -0.0119468 0)
(1.64689 -0.00992854 0)
(1.64814 -0.00836775 0)
(1.64914 -0.00722961 0)
(1.64999 -0.00647392 0)
(1.65079 -0.00605337 0)
(1.6516 -0.0059124 0)
(1.6525 -0.00598681 0)
(1.65354 -0.00620462 0)
(1.65474 -0.00648795 0)
(1.65612 -0.006755 0)
(1.65765 -0.00692206 0)
(1.65931 -0.00690764 0)
(1.66102 -0.00663985 0)
(1.6627 -0.00605866 0)
(1.66425 -0.00512305 0)
(1.66557 -0.00380896 0)
(1.66652 -0.00212028 0)
(1.66702 -7.05213e-05 0)
(1.6669 0.00226787 0)
(1.66617 0.00481701 0)
(1.66462 0.00745791 0)
(1.6625 0.0101248 0)
(1.65936 0.0126432 0)
(1.65604 0.014998 0)
(1.65128 0.0169531 0)
(1.64744 0.0186417 0)
(1.64086 0.01972 0)
(1.63807 0.0205722 0)
(1.62854 0.0206984 0)
(1.0001 -0.00607283 0)
(1.00195 -0.0183866 0)
(1.00562 -0.0311207 0)
(1.01134 -0.0445713 0)
(1.01938 -0.0589718 0)
(1.03007 -0.0745049 0)
(1.04386 -0.0912346 0)
(1.06122 -0.109052 0)
(1.08272 -0.127738 0)
(1.1089 -0.146704 0)
(1.14015 -0.165228 0)
(1.17666 -0.182076 0)
(1.21806 -0.19571 0)
(1.26337 -0.204624 0)
(1.31102 -0.207389 0)
(1.35865 -0.203524 0)
(1.4037 -0.194071 0)
(1.44436 -0.180872 0)
(1.48003 -0.165622 0)
(1.51083 -0.149541 0)
(1.53719 -0.13348 0)
(1.55956 -0.118058 0)
(1.57847 -0.103668 0)
(1.59441 -0.0904798 0)
(1.60782 -0.0785192 0)
(1.61906 -0.0677538 0)
(1.62842 -0.0581299 0)
(1.63614 -0.049578 0)
(1.64246 -0.0420164 0)
(1.64755 -0.0353625 0)
(1.65159 -0.029542 0)
(1.65472 -0.0244925 0)
(1.65705 -0.0201617 0)
(1.65872 -0.016506 0)
(1.65984 -0.0134875 0)
(1.66052 -0.0110702 0)
(1.66086 -0.00921913 0)
(1.66099 -0.00789558 0)
(1.661 -0.00705298 0)
(1.66098 -0.0066356 0)
(1.66104 -0.00657642 0)
(1.66124 -0.0067957 0)
(1.66163 -0.00720171 0)
(1.66226 -0.00769317 0)
(1.66314 -0.00816357 0)
(1.66425 -0.00850376 0)
(1.66556 -0.00860687 0)
(1.667 -0.00837647 0)
(1.66847 -0.00773354 0)
(1.66986 -0.00662249 0)
(1.67106 -0.00500972 0)
(1.67191 -0.00290437 0)
(1.67232 -0.000307031 0)
(1.67207 0.00269036 0)
(1.67117 0.00597955 0)
(1.6694 0.00939576 0)
(1.66702 0.0128538 0)
(1.66353 0.016112 0)
(1.65983 0.0191617 0)
(1.65457 0.0216629 0)
(1.65031 0.0238315 0)
(1.64311 0.025147 0)
(1.64 0.0262263 0)
(1.62966 0.0262537 0)
(1.00008 -0.00686873 0)
(1.0016 -0.0208475 0)
(1.00464 -0.0353709 0)
(1.00944 -0.0508931 0)
(1.01633 -0.0676947 0)
(1.02572 -0.0861529 0)
(1.03824 -0.106361 0)
(1.05451 -0.128306 0)
(1.07538 -0.151794 0)
(1.10165 -0.176002 0)
(1.13406 -0.200309 0)
(1.17342 -0.222912 0)
(1.21951 -0.241928 0)
(1.27133 -0.254806 0)
(1.32676 -0.258448 0)
(1.38189 -0.252163 0)
(1.43267 -0.238266 0)
(1.47691 -0.219875 0)
(1.51431 -0.199382 0)
(1.5454 -0.17833 0)
(1.57089 -0.157776 0)
(1.59153 -0.138463 0)
(1.60814 -0.120765 0)
(1.6215 -0.104751 0)
(1.63219 -0.0903657 0)
(1.64067 -0.0775275 0)
(1.64728 -0.066139 0)
(1.65232 -0.0560781 0)
(1.65605 -0.0472135 0)
(1.65868 -0.0394256 0)
(1.66036 -0.0326164 0)
(1.66122 -0.0267087 0)
(1.66139 -0.0216421 0)
(1.66098 -0.0173681 0)
(1.66008 -0.0138461 0)
(1.65881 -0.0110354 0)
(1.65726 -0.00890337 0)
(1.65553 -0.00740951 0)
(1.65374 -0.00650214 0)
(1.65196 -0.00611809 0)
(1.65031 -0.00618091 0)
(1.64886 -0.006597 0)
(1.64768 -0.00725886 0)
(1.64681 -0.00804549 0)
(1.64628 -0.00882217 0)
(1.6461 -0.00944178 0)
(1.64623 -0.00976573 0)
(1.64661 -0.00967274 0)
(1.64716 -0.00905676 0)
(1.64778 -0.00784478 0)
(1.64833 -0.00599044 0)
(1.64869 -0.00348904 0)
(1.64876 -0.000376807 0)
(1.64827 0.00324004 0)
(1.6472 0.00726647 0)
(1.64531 0.0114858 0)
(1.64286 0.0157886 0)
(1.6393 0.0198431 0)
(1.63556 0.0236636 0)
(1.63022 0.026755 0)
(1.6259 0.0294724 0)
(1.61859 0.0310121 0)
(1.61542 0.0323664 0)
(1.60497 0.032202 0)
(1.00005 -0.00745987 0)
(1.00115 -0.0227318 0)
(1.0033 -0.0386408 0)
(1.00685 -0.0559396 0)
(1.01205 -0.0748076 0)
(1.01953 -0.0961451 0)
(1.03002 -0.119829 0)
(1.04434 -0.146445 0)
(1.06395 -0.175586 0)
(1.08952 -0.206174 0)
(1.12283 -0.237879 0)
(1.16514 -0.267342 0)
(1.21628 -0.293075 0)
(1.27711 -0.311073 0)
(1.34489 -0.315402 0)
(1.41146 -0.305639 0)
(1.46952 -0.286039 0)
(1.51634 -0.261042 0)
(1.55246 -0.233796 0)
(1.57937 -0.206361 0)
(1.59864 -0.180237 0)
(1.61184 -0.15636 0)
(1.62052 -0.134945 0)
(1.62592 -0.115831 0)
(1.62888 -0.0988495 0)
(1.62998 -0.0838716 0)
(1.62967 -0.0707373 0)
(1.62832 -0.059244 0)
(1.6262 -0.0491865 0)
(1.62348 -0.0403899 0)
(1.62028 -0.0327173 0)
(1.61668 -0.0260652 0)
(1.61275 -0.0203587 0)
(1.60854 -0.0155457 0)
(1.60411 -0.0115885 0)
(1.5995 -0.00843122 0)
(1.59478 -0.00605276 0)
(1.59 -0.00441774 0)
(1.58525 -0.00347579 0)
(1.5806 -0.00315993 0)
(1.57613 -0.00338313 0)
(1.57193 -0.00404087 0)
(1.56805 -0.00500937 0)
(1.56459 -0.00615345 0)
(1.56159 -0.00734473 0)
(1.55911 -0.00840189 0)
(1.55714 -0.00913845 0)
(1.55567 -0.00940148 0)
(1.55466 -0.00905502 0)
(1.55404 -0.00799708 0)
(1.55371 -0.00615254 0)
(1.55356 -0.00348682 0)
(1.55348 -9.1892e-05 0)
(1.55321 0.00392153 0)
(1.5527 0.00849195 0)
(1.55165 0.0133592 0)
(1.55026 0.0183996 0)
(1.54795 0.0231804 0)
(1.54551 0.0277525 0)
(1.54163 0.0314244 0)
(1.53858 0.0347335 0)
(1.53292 0.0365002 0)
(1.53059 0.0381968 0)
(1.52234 0.0378254 0)
(0.999992 -0.00778708 0)
(1.00059 -0.0238775 0)
(1.00152 -0.0406022 0)
(1.00357 -0.0592709 0)
(1.00623 -0.0795531 0)
(1.01129 -0.103651 0)
(1.01813 -0.130242 0)
(1.02968 -0.162365 0)
(1.04629 -0.19776 0)
(1.07014 -0.237138 0)
(1.1048 -0.2799 0)
(1.14923 -0.317749 0)
(1.20641 -0.352569 0)
(1.28285 -0.377355 0)
(1.36933 -0.381388 0)
(1.44693 -0.366004 0)
(1.50424 -0.337983 0)
(1.54056 -0.302951 0)
(1.55972 -0.265357 0)
(1.56613 -0.228425 0)
(1.56362 -0.194672 0)
(1.55537 -0.1652 0)
(1.54406 -0.139683 0)
(1.53138 -0.117482 0)
(1.51817 -0.0982009 0)
(1.50498 -0.0815627 0)
(1.49221 -0.0672567 0)
(1.48014 -0.0549467 0)
(1.46887 -0.0443256 0)
(1.45841 -0.0351413 0)
(1.44867 -0.027195 0)
(1.43956 -0.0203363 0)
(1.43096 -0.0144542 0)
(1.42277 -0.0094934 0)
(1.41492 -0.00540486 0)
(1.40731 -0.00217624 0)
(1.39987 0.000240588 0)
(1.39257 0.00187777 0)
(1.38544 0.00276593 0)
(1.3785 0.00295383 0)
(1.3718 0.00251671 0)
(1.36542 0.00155459 0)
(1.35944 0.000182477 0)
(1.35392 -0.00144279 0)
(1.34899 -0.00312005 0)
(1.34482 -0.00473514 0)
(1.34148 -0.00608595 0)
(1.339 -0.00698885 0)
(1.33744 -0.00727845 0)
(1.33679 -0.00681589 0)
(1.33701 -0.00549117 0)
(1.33794 -0.00325296 0)
(1.33953 -0.000104222 0)
(1.34152 0.00384264 0)
(1.34381 0.00851728 0)
(1.346 0.0136392 0)
(1.34815 0.0190837 0)
(1.34968 0.0243444 0)
(1.35109 0.0294853 0)
(1.3514 0.0336498 0)
(1.35194 0.0375015 0)
(1.35086 0.0395415 0)
(1.35092 0.0416032 0)
(1.34858 0.0412101 0)
(0.999888 -0.00780215 0)
(0.999997 -0.0241128 0)
(0.999249 -0.0409425 0)
(0.999759 -0.0604005 0)
(0.998586 -0.0811036 0)
(1.00133 -0.107649 0)
(1.00119 -0.135519 0)
(1.01067 -0.174328 0)
(1.01747 -0.214052 0)
(1.04173 -0.267968 0)
(1.07311 -0.325989 0)
(1.11957 -0.378124 0)
(1.19399 -0.441079 0)
(1.29345 -0.478708 0)
(1.38583 -0.4733 0)
(1.44312 -0.43813 0)
(1.46083 -0.387642 0)
(1.44941 -0.330818 0)
(1.41895 -0.274604 0)
(1.37861 -0.223268 0)
(1.33393 -0.180264 0)
(1.28915 -0.145576 0)
(1.24791 -0.117403 0)
(1.21149 -0.0943781 0)
(1.17967 -0.0755627 0)
(1.15214 -0.0601374 0)
(1.12871 -0.0473788 0)
(1.10909 -0.0367171 0)
(1.09284 -0.0277274 0)
(1.07946 -0.0200884 0)
(1.06845 -0.0135522 0)
(1.05933 -0.00793248 0)
(1.05169 -0.00310842 0)
(1.04511 0.00102131 0)
(1.03928 0.00444167 0)
(1.03398 0.00712903 0)
(1.02905 0.00911029 0)
(1.02434 0.0103854 0)
(1.01975 0.0109458 0)
(1.01528 0.0107993 0)
(1.01097 0.00998301 0)
(1.00692 0.00856652 0)
(1.00326 0.00665216 0)
(1.00016 0.0043727 0)
(0.997706 0.00191278 0)
(0.996099 -0.00054697 0)
(0.995555 -0.00287242 0)
(0.996152 -0.00485805 0)
(0.997967 -0.00629735 0)
(1.00101 -0.00700827 0)
(1.00526 -0.00682185 0)
(1.01056 -0.00562019 0)
(1.01683 -0.003299 0)
(1.02379 6.20387e-05 0)
(1.03129 0.00437439 0)
(1.03887 0.00937281 0)
(1.04647 0.0149104 0)
(1.05357 0.0204635 0)
(1.06035 0.0260265 0)
(1.06627 0.0306948 0)
(1.0716 0.0350699 0)
(1.07644 0.0375747 0)
(1.07969 0.0400222 0)
(1.08503 0.0400449 0)
(0.999761 -0.00748382 0)
(0.999354 -0.023259 0)
(0.996618 -0.0394625 0)
(0.995534 -0.0587831 0)
(0.98943 -0.0788986 0)
(0.990127 -0.106794 0)
(0.979008 -0.133877 0)
(0.988672 -0.179399 0)
(0.97161 -0.21754 0)
(1.00685 -0.295484 0)
(1.00159 -0.358003 0)
(1.07569 -0.457524 0)
(1.16763 -0.596329 0)
(1.25274 -0.622902 0)
(1.28165 -0.561878 0)
(1.24315 -0.468103 0)
(1.16265 -0.370089 0)
(1.06806 -0.28005 0)
(0.970286 -0.204334 0)
(0.880601 -0.143 0)
(0.797969 -0.0993584 0)
(0.728747 -0.0691903 0)
(0.677063 -0.0480557 0)
(0.639996 -0.0340319 0)
(0.613886 -0.0251684 0)
(0.596205 -0.019454 0)
(0.585068 -0.0154111 0)
(0.578883 -0.0121852 0)
(0.576312 -0.0093318 0)
(0.576293 -0.006619 0)
(0.578011 -0.00393577 0)
(0.580845 -0.0012548 0)
(0.584334 0.0013946 0)
(0.588103 0.00396028 0)
(0.59186 0.00636533 0)
(0.595451 0.00849233 0)
(0.598791 0.0101792 0)
(0.601803 0.0113059 0)
(0.604455 0.0117825 0)
(0.606824 0.0115573 0)
(0.609025 0.0106091 0)
(0.611216 0.00896216 0)
(0.613554 0.00667561 0)
(0.616247 0.00383378 0)
(0.619488 0.000578576 0)
(0.623415 -0.00284134 0)
(0.628114 -0.00624838 0)
(0.633713 -0.00938806 0)
(0.640254 -0.0119931 0)
(0.647715 -0.013818 0)
(0.656041 -0.0146488 0)
(0.665115 -0.0143211 0)
(0.674836 -0.0127153 0)
(0.685004 -0.00983458 0)
(0.695492 -0.00576077 0)
(0.705977 -0.000723572 0)
(0.716357 0.00507181 0)
(0.72623 0.0111337 0)
(0.735647 0.0172824 0)
(0.744378 0.022698 0)
(0.752168 0.0277457 0)
(0.760241 0.0309716 0)
(0.765214 0.0339146 0)
(0.775595 0.0346384 0)
(0.999686 -0.00682646 0)
(0.998575 -0.021186 0)
(0.994032 -0.0360946 0)
(0.990753 -0.0539407 0)
(0.980138 -0.0728245 0)
(0.977184 -0.0994939 0)
(0.955416 -0.125231 0)
(0.962077 -0.172351 0)
(0.915126 -0.206185 0)
(0.962334 -0.30513 0)
(0.864443 -0.345121 0)
(1.02901 -0.563893 0)
(0.976534 -0.718224 0)
(0.954618 -0.632911 0)
(0.844142 -0.476588 0)
(0.679522 -0.324436 0)
(0.522557 -0.199639 0)
(0.398088 -0.111275 0)
(0.302305 -0.0572906 0)
(0.234079 -0.0204608 0)
(0.180421 -0.0153548 0)
(0.163305 -0.0221717 0)
(0.169192 -0.0271054 0)
(0.179401 -0.0303145 0)
(0.190153 -0.0314799 0)
(0.200664 -0.0309355 0)
(0.210514 -0.0292061 0)
(0.219578 -0.0267052 0)
(0.227916 -0.0236867 0)
(0.235662 -0.0203125 0)
(0.242921 -0.0167094 0)
(0.249749 -0.0129931 0)
(0.256173 -0.00927938 0)
(0.262265 -0.00570067 0)
(0.26801 -0.00229707 0)
(0.273325 0.000766578 0)
(0.278307 0.00328084 0)
(0.283022 0.0050904 0)
(0.28751 0.0060929 0)
(0.29186 0.00624179 0)
(0.296167 0.00548369 0)
(0.300527 0.00382093 0)
(0.305025 0.00133619 0)
(0.309783 -0.00183803 0)
(0.314907 -0.00554112 0)
(0.320462 -0.00956965 0)
(0.326505 -0.0136188 0)
(0.333082 -0.0174098 0)
(0.340201 -0.0206525 0)
(0.347855 -0.0230702 0)
(0.355996 -0.0244143 0)
(0.364557 -0.0244893 0)
(0.373481 -0.0231724 0)
(0.382633 -0.020444 0)
(0.391935 -0.0163654 0)
(0.401206 -0.0111376 0)
(0.410355 -0.00501091 0)
(0.419134 0.00157704 0)
(0.427569 0.00828693 0)
(0.435587 0.0144039 0)
(0.442951 0.0199241 0)
(0.451005 0.0236927 0)
(0.456083 0.0269702 0)
(0.469006 0.0273926 0)
(0.999688 -0.00581187 0)
(0.997668 -0.017922 0)
(0.991814 -0.0307937 0)
(0.985587 -0.0458523 0)
(0.972065 -0.0627638 0)
(0.962571 -0.085222 0)
(0.935527 -0.109841 0)
(0.928564 -0.14939 0)
(0.869197 -0.184724 0)
(0.891916 -0.27223 0)
(0.724721 -0.301705 0)
(0.910815 -0.590743 0)
(0.333011 -0.394173 0)
(0.237304 -0.238258 0)
(0.118043 -0.178259 0)
(0.0549575 -0.134775 0)
(0.0293083 -0.0932427 0)
(0.0174566 -0.0609736 0)
(0.0111506 -0.036753 0)
(0.00507783 -0.0164013 0)
(0.00863637 -0.0468748 0)
(0.0144404 -0.0595762 0)
(0.0263031 -0.0578039 0)
(0.0315026 -0.0537126 0)
(0.0360293 -0.0483587 0)
(0.039918 -0.0430595 0)
(0.0432909 -0.0381946 0)
(0.0462619 -0.0336801 0)
(0.048902 -0.0293601 0)
(0.0512866 -0.0251464 0)
(0.0534803 -0.0210046 0)
(0.0555377 -0.0169337 0)
(0.0575052 -0.0129685 0)
(0.0594285 -0.00918607 0)
(0.0613216 -0.00572463 0)
(0.0631764 -0.00268816 0)
(0.0650227 -0.000226789 0)
(0.0669043 0.00153209 0)
(0.0688771 0.00250207 0)
(0.0709648 0.0025577 0)
(0.0731721 0.00166032 0)
(0.0755771 -0.000189017 0)
(0.0782194 -0.00291963 0)
(0.0811289 -0.00639773 0)
(0.0843421 -0.0104472 0)
(0.0878899 -0.0148355 0)
(0.0918059 -0.0192762 0)
(0.0961053 -0.0234663 0)
(0.100792 -0.0270953 0)
(0.105875 -0.0298689 0)
(0.111295 -0.0315213 0)
(0.117044 -0.0318503 0)
(0.123076 -0.0307238 0)
(0.129306 -0.0280965 0)
(0.135701 -0.0240359 0)
(0.142146 -0.0187268 0)
(0.148538 -0.0124224 0)
(0.154821 -0.00556352 0)
(0.160928 0.00143001 0)
(0.16693 0.00790434 0)
(0.172988 0.013402 0)
(0.179661 0.0173974 0)
(0.185628 0.019825 0)
(0.199553 0.0186587 0)
(0.999691 -0.00443891 0)
(0.996875 -0.0136507 0)
(0.9899 -0.0235831 0)
(0.981062 -0.0350417 0)
(0.965134 -0.0484669 0)
(0.949479 -0.0653799 0)
(0.918951 -0.08622 0)
(0.896718 -0.114395 0)
(0.836191 -0.149554 0)
(0.815071 -0.201747 0)
(0.672844 -0.257535 0)
(0.734426 -0.384744 0)
(0.311803 -0.266845 0)
(0.300165 -0.253798 0)
(0.207815 -0.23004 0)
(0.128966 -0.179182 0)
(0.0784734 -0.122782 0)
(0.0468167 -0.0765246 0)
(0.0290414 -0.043071 0)
(0.0142152 -0.0168246 0)
(0.0206627 -0.0402967 0)
(-0.00463508 -0.0532306 0)
(-0.0072078 -0.051659 0)
(-0.0173579 -0.0481557 0)
(-0.0249653 -0.0439353 0)
(-0.0320438 -0.0396782 0)
(-0.0385774 -0.0355186 0)
(-0.0445793 -0.031458 0)
(-0.0500931 -0.0274666 0)
(-0.0551628 -0.0235166 0)
(-0.059822 -0.0195966 0)
(-0.0640965 -0.0157218 0)
(-0.0680087 -0.0119435 0)
(-0.0715677 -0.00836868 0)
(-0.0747806 -0.00510526 0)
(-0.0776995 -0.00228204 0)
(-0.0803144 -2.2371e-06 0)
(-0.0825732 0.00158618 0)
(-0.0845234 0.00235155 0)
(-0.0861757 0.0021833 0)
(-0.0874936 0.0010445 0)
(-0.0884837 -0.00105827 0)
(-0.0891275 -0.0040703 0)
(-0.0894056 -0.00786553 0)
(-0.0893074 -0.0122563 0)
(-0.0888193 -0.0170027 0)
(-0.0879278 -0.0218146 0)
(-0.086632 -0.0263755 0)
(-0.0849323 -0.0303641 0)
(-0.0828368 -0.0334708 0)
(-0.0803862 -0.0354252 0)
(-0.0775744 -0.0360198 0)
(-0.0744427 -0.0351198 0)
(-0.0710356 -0.0326843 0)
(-0.067374 -0.0287594 0)
(-0.0635371 -0.0234972 0)
(-0.0596098 -0.0171971 0)
(-0.0555942 -0.0103095 0)
(-0.0515242 -0.00336926 0)
(-0.0471745 0.00295009 0)
(-0.0421594 0.00786391 0)
(-0.0360632 0.0107062 0)
(-0.0284933 0.010701 0)
(-0.0172192 0.00682674 0)
(0.999657 -0.00278059 0)
(0.996366 -0.00858422 0)
(0.98835 -0.0148029 0)
(0.977987 -0.0221119 0)
(0.959482 -0.0304899 0)
(0.940786 -0.0415595 0)
(0.904688 -0.0543162 0)
(0.877399 -0.0735185 0)
(0.80506 -0.0933868 0)
(0.778974 -0.130232 0)
(0.615632 -0.153015 0)
(0.68429 -0.238653 0)
(0.291095 -0.144236 0)
(0.300324 -0.112656 0)
(0.215881 -0.0967938 0)
(0.140336 -0.0781645 0)
(0.0900897 -0.0572748 0)
(0.0568616 -0.0381209 0)
(0.0381204 -0.0223449 0)
(0.0203155 -0.0082067 0)
(0.0335916 -0.0256972 0)
(-0.00499136 -0.0365823 0)
(-0.0170489 -0.036883 0)
(-0.0379249 -0.0344062 0)
(-0.0549368 -0.0312794 0)
(-0.0704878 -0.028092 0)
(-0.0846815 -0.024922 0)
(-0.0976483 -0.0217581 0)
(-0.109519 -0.0185722 0)
(-0.120421 -0.0153452 0)
(-0.13046 -0.0120803 0)
(-0.139727 -0.0088109 0)
(-0.148313 -0.00559693 0)
(-0.156259 -0.0025092 0)
(-0.163594 0.00030187 0)
(-0.170346 0.00269408 0)
(-0.176559 0.00456086 0)
(-0.182296 0.00573416 0)
(-0.187547 0.00606248 0)
(-0.192329 0.00548382 0)
(-0.196654 0.0039248 0)
(-0.200513 0.00138714 0)
(-0.203905 -0.0020642 0)
(-0.206835 -0.00629411 0)
(-0.20931 -0.0111161 0)
(-0.211329 -0.0162969 0)
(-0.21289 -0.0215417 0)
(-0.214001 -0.0265251 0)
(-0.214669 -0.0309152 0)
(-0.214907 -0.0344002 0)
(-0.214734 -0.0367152 0)
(-0.214154 -0.0376575 0)
(-0.213174 -0.0370909 0)
(-0.211821 -0.0349541 0)
(-0.210139 -0.0312749 0)
(-0.208202 -0.0262013 0)
(-0.206054 -0.0200412 0)
(-0.203669 -0.013309 0)
(-0.200939 -0.00677792 0)
(-0.197645 -0.00134132 0)
(-0.193451 0.00217627 0)
(-0.188139 0.00342422 0)
(-0.181961 0.0028387 0)
(-0.176495 0.00129677 0)
(0.999649 -0.000960154 0)
(0.996074 -0.00294876 0)
(0.987566 -0.00510584 0)
(0.976271 -0.00759099 0)
(0.956629 -0.0105377 0)
(0.935862 -0.0142437 0)
(0.897725 -0.0188541 0)
(0.866228 -0.0250706 0)
(0.791228 -0.0325414 0)
(0.757672 -0.0436803 0)
(0.594295 -0.0529247 0)
(0.653021 -0.0780599 0)
(0.274216 -0.0454537 0)
(0.293925 -0.0416854 0)
(0.21964 -0.040405 0)
(0.149356 -0.0335184 0)
(0.099499 -0.0242066 0)
(0.064638 -0.0157186 0)
(0.0445889 -0.00906788 0)
(0.0244454 -0.00340121 0)
(0.0421261 -0.00989581 0)
(-0.00348946 -0.0138909 0)
(-0.0204278 -0.01407 0)
(-0.0468872 -0.0131207 0)
(-0.0688596 -0.0118258 0)
(-0.0888607 -0.0103772 0)
(-0.107069 -0.00877782 0)
(-0.123687 -0.00700338 0)
(-0.138894 -0.00503918 0)
(-0.15286 -0.0028887 0)
(-0.165731 -0.000579546 0)
(-0.177621 0.00183231 0)
(-0.188606 0.0042696 0)
(-0.198791 0.00664735 0)
(-0.208257 0.00880935 0)
(-0.217029 0.0106101 0)
(-0.225154 0.0118709 0)
(-0.232675 0.0124577 0)
(-0.239619 0.0122454 0)
(-0.246013 0.011128 0)
(-0.251877 0.0090514 0)
(-0.257219 0.00601093 0)
(-0.262036 0.00205953 0)
(-0.266346 -0.00269291 0)
(-0.270192 -0.00799591 0)
(-0.273583 -0.0136552 0)
(-0.276513 -0.0193681 0)
(-0.278991 -0.0248041 0)
(-0.281028 -0.0296313 0)
(-0.282635 -0.0335438 0)
(-0.283826 -0.0362808 0)
(-0.284609 -0.0376375 0)
(-0.284991 -0.0374695 0)
(-0.284984 -0.0356976 0)
(-0.284607 -0.0323301 0)
(-0.283891 -0.0275106 0)
(-0.282861 -0.0215886 0)
(-0.281503 -0.0151907 0)
(-0.279752 -0.00921487 0)
(-0.277525 -0.00458963 0)
(-0.274794 -0.00185112 0)
(-0.271708 -0.000806862 0)
(-0.268817 -0.000508255 0)
(-0.267062 -0.000135422 0)
(0.999649 0.000929297 0)
(0.996074 0.00285815 0)
(0.987565 0.00495757 0)
(0.976269 0.0073882 0)
(0.956624 0.0102832 0)
(0.935856 0.0139421 0)
(0.897717 0.0185078 0)
(0.866217 0.0246853 0)
(0.791214 0.032118 0)
(0.757653 0.0432225 0)
(0.594276 0.0524446 0)
(0.652992 0.0774969 0)
(0.274195 0.045163 0)
(0.293905 0.0414019 0)
(0.219618 0.0400451 0)
(0.149334 0.0330695 0)
(0.0994757 0.0236657 0)
(0.0646136 0.0150864 0)
(0.0445581 0.00834429 0)
(0.0244202 0.0025283 0)
(0.0420408 0.00707532 0)
(-0.00353383 0.0111053 0)
(-0.0204598 0.011369 0)
(-0.0468759 0.0106262 0)
(-0.068787 0.00985202 0)
(-0.0887073 0.00934433 0)
(-0.106816 0.00918378 0)
(-0.123317 0.00940218 0)
(-0.138393 0.00999858 0)
(-0.152214 0.0109458 0)
(-0.164925 0.0121917 0)
(-0.176643 0.01366 0)
(-0.187457 0.0152455 0)
(-0.197452 0.016806 0)
(-0.206702 0.0182143 0)
(-0.215255 0.0193129 0)
(-0.223161 0.0199328 0)
(-0.230462 0.0199201 0)
(-0.237194 0.0191383 0)
(-0.243387 0.0174815 0)
(-0.249061 0.0148886 0)
(-0.254237 0.0113483 0)
(-0.258958 0.00691331 0)
(-0.263181 0.00169888 0)
(-0.266982 -0.00411409 0)
(-0.270432 -0.0102376 0)
(-0.273489 -0.0163964 0)
(-0.276167 -0.0222609 0)
(-0.278479 -0.0275009 0)
(-0.280442 -0.0318124 0)
(-0.282072 -0.0349365 0)
(-0.283379 -0.0366713 0)
(-0.284359 -0.0368773 0)
(-0.285003 -0.0354774 0)
(-0.285277 -0.0324767 0)
(-0.285152 -0.0280178 0)
(-0.28461 -0.0224482 0)
(-0.283675 -0.0163842 0)
(-0.282427 -0.0106993 0)
(-0.281025 -0.00629528 0)
(-0.279611 -0.00365702 0)
(-0.27833 -0.00248278 0)
(-0.277393 -0.00174389 0)
(-0.276943 -0.000567766 0)
(0.999657 0.00275013 0)
(0.996364 0.00849483 0)
(0.988346 0.0146566 0)
(0.97798 0.0219119 0)
(0.95947 0.0302391 0)
(0.940767 0.0412622 0)
(0.904664 0.0539753 0)
(0.877364 0.0731385 0)
(0.80502 0.0929713 0)
(0.778916 0.129779 0)
(0.615576 0.152548 0)
(0.6842 0.23809 0)
(0.291029 0.143937 0)
(0.300259 0.112375 0)
(0.215815 0.0964432 0)
(0.140269 0.0777283 0)
(0.090022 0.0567482 0)
(0.0567928 0.0375058 0)
(0.0380356 0.0216458 0)
(0.0202488 0.00736425 0)
(0.0333308 0.0229106 0)
(-0.00517881 0.0337747 0)
(-0.0172117 0.0341276 0)
(-0.037964 0.0318255 0)
(-0.0547995 0.029176 0)
(-0.0701114 0.0268814 0)
(-0.0840067 0.0251105 0)
(-0.0966256 0.0239041 0)
(-0.108107 0.0232466 0)
(-0.118581 0.0230861 0)
(-0.128156 0.0233448 0)
(-0.13692 0.0239234 0)
(-0.144943 0.0247004 0)
(-0.152285 0.0255303 0)
(-0.159002 0.0262607 0)
(-0.165136 0.0267267 0)
(-0.17073 0.0267591 0)
(-0.175823 0.0261989 0)
(-0.18045 0.0249059 0)
(-0.184643 0.0227723 0)
(-0.188424 0.0197329 0)
(-0.191821 0.0157705 0)
(-0.194866 0.0109347 0)
(-0.19758 0.00536447 0)
(-0.199998 -0.000821246 0)
(-0.202133 -0.00731306 0)
(-0.204046 -0.0138154 0)
(-0.20573 -0.0200039 0)
(-0.207197 -0.0255505 0)
(-0.208463 -0.0301506 0)
(-0.209545 -0.0335469 0)
(-0.210453 -0.0355456 0)
(-0.211186 -0.0360283 0)
(-0.211727 -0.0349505 0)
(-0.212005 -0.032344 0)
(-0.211951 -0.0283428 0)
(-0.211455 -0.0232319 0)
(-0.210503 -0.0175245 0)
(-0.209212 -0.0119501 0)
(-0.20786 -0.00734422 0)
(-0.206739 -0.00426898 0)
(-0.206031 -0.00274244 0)
(-0.205824 -0.00189873 0)
(-0.205837 -0.000724934 0)
(0.99969 0.00440922 0)
(0.996873 0.0135636 0)
(0.989894 0.0234407 0)
(0.98105 0.0348471 0)
(0.965115 0.0482229 0)
(0.949449 0.0650909 0)
(0.918911 0.0858889 0)
(0.896663 0.114027 0)
(0.836122 0.149151 0)
(0.814982 0.20131 0)
(0.672743 0.25708 0)
(0.734292 0.384204 0)
(0.311691 0.266534 0)
(0.300054 0.253496 0)
(0.207698 0.229666 0)
(0.128851 0.178714 0)
(0.0783615 0.122214 0)
(0.0467086 0.0758671 0)
(0.0289137 0.042348 0)
(0.0141176 0.0160085 0)
(0.020164 0.0376219 0)
(-0.00515091 0.050436 0)
(-0.00774534 0.0488508 0)
(-0.0177561 0.0454453 0)
(-0.0251271 0.0416114 0)
(-0.0318537 0.0381644 0)
(-0.0379288 0.0353297 0)
(-0.0433837 0.0331674 0)
(-0.0482725 0.0316536 0)
(-0.0526428 0.0307205 0)
(-0.0565276 0.0302754 0)
(-0.059952 0.0302056 0)
(-0.0629375 0.0303809 0)
(-0.0655051 0.0306544 0)
(-0.0676771 0.0308684 0)
(-0.0694781 0.0308565 0)
(-0.0709376 0.0304523 0)
(-0.0720854 0.0294965 0)
(-0.0729483 0.0278411 0)
(-0.0735596 0.0253666 0)
(-0.0739423 0.0220076 0)
(-0.074119 0.0177602 0)
(-0.074122 0.0126864 0)
(-0.0739843 0.00687725 0)
(-0.073768 0.000507962 0)
(-0.0734478 -0.006172 0)
(-0.0730873 -0.0128346 0)
(-0.0727151 -0.0191652 0)
(-0.0723505 -0.0248421 0)
(-0.0720027 -0.0295626 0)
(-0.0716782 -0.0330697 0)
(-0.0713696 -0.0351734 0)
(-0.0710637 -0.0357655 0)
(-0.0707387 -0.0348262 0)
(-0.0703343 -0.0324295 0)
(-0.069787 -0.0287515 0)
(-0.0689884 -0.0240623 0)
(-0.0678707 -0.0187976 0)
(-0.066468 -0.0135003 0)
(-0.0648948 -0.00882386 0)
(-0.0635539 -0.00522624 0)
(-0.0624792 -0.00303562 0)
(-0.062144 -0.0017468 0)
(-0.061563 -0.000898753 0)
(0.999688 0.00578331 0)
(0.997665 0.0178383 0)
(0.991806 0.0306569 0)
(0.985571 0.0456657 0)
(0.972039 0.0625298 0)
(0.962531 0.0849454 0)
(0.935473 0.109524 0)
(0.928489 0.149038 0)
(0.869106 0.18434 0)
(0.891792 0.27181 0)
(0.724595 0.301284 0)
(0.910602 0.590203 0)
(0.332885 0.393879 0)
(0.237221 0.238007 0)
(0.117973 0.177951 0)
(0.0548882 0.13439 0)
(0.0292348 0.0927848 0)
(0.017385 0.060461 0)
(0.0110705 0.0362136 0)
(0.00504432 0.0158468 0)
(0.00817712 0.0446104 0)
(0.0133555 0.0569305 0)
(0.0248878 0.0549702 0)
(0.0300028 0.0508414 0)
(0.0345903 0.0457696 0)
(0.0386883 0.0412021 0)
(0.0424244 0.0375877 0)
(0.0459047 0.0348769 0)