/*--------------------------------*- C++ -*----------------------------------*\
| =========                 |                                                 |
| \\      /  F ield         | foam-extend: Open Source CFD                    |
|  \\    /   O peration     | Version:     5.0                                |
|   \\  /    A nd           | Web:         http://www.foam-extend.org         |
|    \\/     M anipulation  |                                                 |
\*---------------------------------------------------------------------------*/
FoamFile
{
    version     2.0;
    format      ascii;
    class       volVectorField;
    location    "3";
    object      U.water;
}
// * * * * * * * * * * * * * * * * * * * * * * * * * * * * * * * * * * * * * //

dimensions      [0 1 -1 0 0 0 0];

internalField   nonuniform List<vector> 
100
(
(1.78719e-05 0 0)
(6.17742e-05 0 0)
(8.77028e-05 0 0)
(0.000123029 0 0)
(0.000166114 0 0)
(0.00019741 0 0)
(0.000241196 0 0)
(0.000274704 0 0)
(0.000311355 0 0)
(0.00035542 0 0)
(0.000400314 0 0)
(0.000440702 0 0)
(0.000482533 0 0)
(0.000521556 0 0)
(0.00055327 0 0)
(0.000593495 0 0)
(0.000635602 0 0)
(0.000683578 0 0)
(0.000720661 0 0)
(0.000754994 0 0)
(0.000800282 0 0)
(0.000838892 0 0)
(0.000876306 0 0)
(0.00091502 0 0)
(0.000953194 0 0)
(0.00099669 0 0)
(0.00103772 0 0)
(0.00106345 0 0)
(0.00109617 0 0)
(0.00113959 0 0)
(0.00117857 0 0)
(0.00121603 0 0)
(0.00124929 0 0)
(0.00128329 0 0)
(0.0013182 0 0)
(0.00135713 0 0)
(0.00139381 0 0)
(0.00142416 0 0)
(0.00146363 0 0)
(0.00149883 0 0)
(0.00153314 0 0)
(0.00157099 0 0)
(0.00161076 0 0)
(0.00164512 0 0)
(0.00167704 0 0)
(0.00171853 0 0)
(0.00175592 0 0)
(0.00178793 0 0)
(0.00182349 0 0)
(0.00186082 0 0)
(0.00189981 0 0)
(0.0019379 0 0)
(0.00197443 0 0)
(0.00200862 0 0)
(0.00204374 0 0)
(0.00208763 0 0)
(0.00212696 0 0)
(0.00216628 0 0)
(0.00220571 0 0)
(0.00224273 0 0)
(0.00227798 0 0)
(0.00231485 0 0)
(0.00235588 0 0)
(0.00239482 0 0)
(0.00243218 0 0)
(0.00247158 0 0)
(0.00251144 0 0)
(0.00255037 0 0)
(0.00259411 0 0)
(0.00263695 0 0)
(0.00267808 0 0)
(0.0027224 0 0)
(0.00276448 0 0)
(0.00280619 0 0)
(0.00285208 0 0)
(0.00289597 0 0)
(0.00293938 0 0)
(0.00298732 0 0)
(0.00303406 0 0)
(0.00308227 0 0)
(0.00313144 0 0)
(0.0031793 0 0)
(0.00322998 0 0)
(0.00328222 0 0)
(0.0033331 0 0)
(0.00338277 0 0)
(0.00343755 0 0)
(0.00349671 0 0)
(0.00355292 0 0)
(0.00360573 0 0)
(0.00365948 0 0)
(0.00371718 0 0)
(0.00377289 0 0)
(0.00382972 0 0)
(0.00388699 0 0)
(0.00394261 0 0)
(0.0039985 0 0)
(0.00405091 0 0)
(0.00410478 0 0)
(0.00415869 0 0)
)
;

boundaryField
{
    inlet
    {
        type            fixedValue;
        value           uniform (0 0 0);
    }
    outlet
    {
        type            zeroGradient;
    }
    yzfaces
    {
        type            empty;
    }
}


// ************************************************************************* //
