/*--------------------------------*- C++ -*----------------------------------*\
  =========                 |
  \\      /  F ield         | OpenFOAM: The Open Source CFD Toolbox
   \\    /   O peration     | Website:  https://openfoam.org
    \\  /    A nd           | Version:  10
     \\/     M anipulation  |
\*---------------------------------------------------------------------------*/
FoamFile
{
    format      ascii;
    class       surfaceScalarField;
    location    "16800";
    object      phi;
}
// * * * * * * * * * * * * * * * * * * * * * * * * * * * * * * * * * * * * * //

dimensions      [0 3 -1 0 0 0 0];

internalField   nonuniform List<scalar> 
12640
(
-2.45692e-08
2.45692e-08
-4.97472e-08
2.5178e-08
-7.62207e-08
2.64735e-08
-1.04859e-07
2.86378e-08
-1.36882e-07
3.20231e-08
-1.74191e-07
3.73097e-08
-2.20076e-07
4.58848e-08
-2.80759e-07
6.06825e-08
-3.64588e-07
8.38289e-08
-3.06531e-07
-5.80568e-08
-3.32068e-06
3.01415e-06
-3.55352e-06
2.3284e-07
-3.15203e-06
-4.01495e-07
-3.7398e-06
5.8777e-07
-3.71844e-06
-2.13548e-08
-3.68582e-06
-3.26228e-08
-3.62833e-06
-5.74888e-08
-3.45206e-06
-1.76274e-07
-3.40697e-06
-4.50854e-08
-3.48807e-06
8.11009e-08
-3.48212e-06
-5.95096e-09
-3.44484e-06
-3.72823e-08
-3.37123e-06
-7.36053e-08
-3.33196e-06
-3.92694e-08
-3.31711e-06
-1.48581e-08
-3.29446e-06
-2.26499e-08
-3.26864e-06
-2.58207e-08
-3.23549e-06
-3.31423e-08
-3.18756e-06
-4.79375e-08
-3.12805e-06
-5.95045e-08
-3.02795e-06
-1.00102e-07
-2.82914e-06
-1.98809e-07
-2.68741e-06
-1.41735e-07
-2.50157e-06
-1.85841e-07
-2.25816e-06
-2.43406e-07
-1.94453e-06
-3.13633e-07
-1.5533e-06
-3.91229e-07
-1.08696e-06
-4.66333e-07
-5.60359e-07
-5.26605e-07
-6.20777e-18
-5.60359e-07
5.60359e-07
-5.60359e-07
1.08696e-06
-5.26605e-07
1.5533e-06
-4.66333e-07
1.94453e-06
-3.91229e-07
2.25816e-06
-3.13633e-07
2.50157e-06
-2.43406e-07
2.68741e-06
-1.85841e-07
2.82914e-06
-1.41735e-07
3.02795e-06
-1.98809e-07
3.12805e-06
-1.00102e-07
3.18756e-06
-5.95045e-08
3.23549e-06
-4.79375e-08
3.26864e-06
-3.31423e-08
3.29446e-06
-2.58207e-08
3.31711e-06
-2.26499e-08
3.33196e-06
-1.48581e-08
3.37123e-06
-3.92694e-08
3.44484e-06
-7.36053e-08
3.48212e-06
-3.72823e-08
3.48807e-06
-5.95096e-09
3.40697e-06
8.11009e-08
3.45206e-06
-4.50854e-08
3.62833e-06
-1.76274e-07
3.68582e-06
-5.74888e-08
3.71844e-06
-3.26228e-08
3.7398e-06
-2.13548e-08
3.15203e-06
5.8777e-07
3.55352e-06
-4.01495e-07
3.32068e-06
2.3284e-07
3.06531e-07
3.01415e-06
3.64588e-07
-5.80568e-08
2.80759e-07
8.38289e-08
2.20076e-07
6.06825e-08
1.74191e-07
4.58848e-08
1.36882e-07
3.73097e-08
1.04859e-07
3.20231e-08
7.62207e-08
2.86378e-08
4.97472e-08
2.64735e-08
2.45692e-08
2.5178e-08
2.45692e-08
-2.69192e-08
5.14885e-08
-5.45024e-08
5.27611e-08
-8.3498e-08
5.54691e-08
-1.14851e-07
5.99904e-08
-1.49884e-07
6.70566e-08
-1.9065e-07
7.80757e-08
-2.40682e-07
9.59168e-08
-3.06843e-07
1.26844e-07
-4.06633e-07
1.83619e-07
-7.44815e-07
2.80125e-07
-2.29571e-07
2.49891e-06
-2.04828e-06
2.05155e-06
-3.1336e-06
6.83826e-07
-3.93065e-06
1.38482e-06
-3.92063e-06
-3.13725e-08
-3.90665e-06
-4.6611e-08
-3.86185e-06
-1.02281e-07
-3.67017e-06
-3.67957e-07
-3.62808e-06
-8.71809e-08
-3.72894e-06
1.81962e-07
-3.72355e-06
-1.13336e-08
-3.68683e-06
-7.40021e-08
-3.60711e-06
-1.53326e-07
-3.56755e-06
-7.88339e-08
-3.55488e-06
-2.75282e-08
-3.53187e-06
-4.56604e-08
-3.50567e-06
-5.20174e-08
-3.4716e-06
-6.72144e-08
-3.42099e-06
-9.85452e-08
-3.35936e-06
-1.21137e-07
-3.25536e-06
-2.041e-07
-3.04562e-06
-4.08548e-07
-2.8963e-06
-2.91058e-07
-2.70008e-06
-3.82063e-07
-2.44179e-06
-5.01695e-07
-2.10677e-06
-6.48655e-07
-1.68603e-06
-8.11967e-07
-1.18168e-06
-9.70677e-07
-6.09826e-07
-1.09846e-06
-2.32561e-17
-1.17019e-06
6.09826e-07
-1.17019e-06
1.18168e-06
-1.09846e-06
1.68603e-06
-9.70677e-07
2.10677e-06
-8.11967e-07
2.44179e-06
-6.48655e-07
2.70008e-06
-5.01695e-07
2.8963e-06
-3.82063e-07
3.04562e-06
-2.91058e-07
3.25536e-06
-4.08548e-07
3.35936e-06
-2.041e-07
3.42099e-06
-1.21137e-07
3.4716e-06
-9.85452e-08
3.50567e-06
-6.72144e-08
3.53187e-06
-5.20174e-08
3.55488e-06
-4.56604e-08
3.56755e-06
-2.75282e-08
3.60711e-06
-7.88339e-08
3.68683e-06
-1.53326e-07
3.72355e-06
-7.40021e-08
3.72894e-06
-1.13336e-08
3.62808e-06
1.81962e-07
3.67017e-06
-8.71809e-08
3.86185e-06
-3.67957e-07
3.90665e-06
-1.02281e-07
3.92063e-06
-4.6611e-08
3.93065e-06
-3.13725e-08
3.1336e-06
1.38482e-06
2.04828e-06
6.83826e-07
2.29571e-07
2.05155e-06
7.44815e-07
2.49891e-06
4.06633e-07
2.80125e-07
3.06843e-07
1.83619e-07
2.40682e-07
1.26844e-07
1.9065e-07
9.59168e-08
1.49884e-07
7.80757e-08
1.14851e-07
6.70566e-08
8.3498e-08
5.99904e-08
5.45024e-08
5.54691e-08
2.69192e-08
5.27611e-08
5.14885e-08
-2.94529e-08
8.09414e-08
-5.96248e-08
8.2933e-08
-9.13242e-08
8.71685e-08
-1.25567e-07
9.42333e-08
-1.63767e-07
1.05256e-07
-2.0809e-07
1.22399e-07
-2.62218e-07
1.50045e-07
-3.33308e-07
1.97934e-07
-4.40489e-07
2.908e-07
-6.90107e-07
5.29742e-07
-3.31274e-07
2.14008e-06
-1.93461e-07
1.91373e-06
-3.62162e-07
8.52527e-07
-3.83994e-06
4.8626e-06
-4.0803e-06
2.08993e-07
-4.1414e-06
1.44883e-08
-4.13335e-06
-1.10333e-07
-3.91104e-06
-5.90266e-07
-3.87524e-06
-1.22983e-07
-4.0152e-06
3.21925e-07
-4.00628e-06
-2.02511e-08
-3.97091e-06
-1.09373e-07
-3.8788e-06
-2.4544e-07
-3.83951e-06
-1.18121e-07
-3.83146e-06
-3.55804e-08
-3.80735e-06
-6.9768e-08
-3.78077e-06
-7.85979e-08
-3.74593e-06
-1.02054e-07
-3.69168e-06
-1.52799e-07
-3.62934e-06
-1.83476e-07
-3.5246e-06
-3.08834e-07
-3.30641e-06
-6.26746e-07
-3.15217e-06
-4.45296e-07
-2.94869e-06
-5.85546e-07
-2.67779e-06
-7.72595e-07
-2.32087e-06
-1.00557e-06
-1.86539e-06
-1.26744e-06
-1.31213e-06
-1.52394e-06
-6.78792e-07
-1.7318e-06
-1.42366e-17
-1.84898e-06
6.78792e-07
-1.84898e-06
1.31213e-06
-1.7318e-06
1.86539e-06
-1.52394e-06
2.32087e-06
-1.26744e-06
2.67779e-06
-1.00557e-06
2.94869e-06
-7.72595e-07
3.15217e-06
-5.85546e-07
3.30641e-06
-4.45296e-07
3.5246e-06
-6.26746e-07
3.62934e-06
-3.08834e-07
3.69168e-06
-1.83476e-07
3.74593e-06
-1.52799e-07
3.78077e-06
-1.02054e-07
3.80735e-06
-7.85979e-08
3.83146e-06
-6.9768e-08
3.83951e-06
-3.55804e-08
3.8788e-06
-1.18121e-07
3.97091e-06
-2.4544e-07
4.00628e-06
-1.09373e-07
4.0152e-06
-2.02511e-08
3.87524e-06
3.21925e-07
3.91104e-06
-1.22983e-07
4.13335e-06
-5.90266e-07
4.1414e-06
-1.10333e-07
4.0803e-06
1.44883e-08
3.83994e-06
2.08993e-07
3.62162e-07
4.8626e-06
1.93461e-07
8.52527e-07
3.31274e-07
1.91373e-06
6.90107e-07
2.14008e-06
4.40489e-07
5.29742e-07
3.33308e-07
2.908e-07
2.62218e-07
1.97934e-07
2.0809e-07
1.50045e-07
1.63767e-07
1.22399e-07
1.25567e-07
1.05256e-07
9.13242e-08
9.42333e-08
5.96248e-08
8.71685e-08
2.94529e-08
8.2933e-08
8.09414e-08
-3.21678e-08
1.13109e-07
-6.51067e-08
1.15872e-07
-9.96809e-08
1.21743e-07
-1.36967e-07
1.3152e-07
-1.78445e-07
1.46734e-07
-2.26337e-07
1.70292e-07
-2.84315e-07
2.08022e-07
-3.59195e-07
2.72814e-07
-4.66709e-07
3.98314e-07
-6.46194e-07
7.09227e-07
-3.78914e-07
1.8728e-06
-2.85188e-07
1.82001e-06
-7.68707e-07
1.33605e-06
2.28334e-07
3.86556e-06
-1.05328e-06
1.49061e-06
-4.08302e-06
3.04423e-06
-4.3667e-06
1.73346e-07
-4.13192e-06
-8.2505e-07
-4.122e-06
-1.32902e-07
-4.33868e-06
5.386e-07
-4.31976e-06
-3.91697e-08
-4.28991e-06
-1.3922e-07
-4.17595e-06
-3.59403e-07
-4.13924e-06
-1.54828e-07
-4.14057e-06
-3.42528e-08
-4.11436e-06
-9.59803e-08
-4.08791e-06
-1.05045e-07
-4.05316e-06
-1.36805e-07
-3.99396e-06
-2.11996e-07
-3.93374e-06
-2.43697e-07
-3.83419e-06
-4.08389e-07
-3.61227e-06
-8.48666e-07
-3.45856e-06
-5.99007e-07
-3.25467e-06
-7.89429e-07
-2.9775e-06
-1.04976e-06
-2.60134e-06
-1.38174e-06
-2.10671e-06
-1.76207e-06
-1.49136e-06
-2.13929e-06
-7.74814e-07
-2.44835e-06
1.15866e-18
-2.62379e-06
7.74814e-07
-2.62379e-06
1.49136e-06
-2.44835e-06
2.10671e-06
-2.13929e-06
2.60134e-06
-1.76207e-06
2.9775e-06
-1.38174e-06
3.25467e-06
-1.04976e-06
3.45856e-06
-7.89429e-07
3.61227e-06
-5.99007e-07
3.83419e-06
-8.48666e-07
3.93374e-06
-4.08389e-07
3.99396e-06
-2.43697e-07
4.05316e-06
-2.11996e-07
4.08791e-06
-1.36805e-07
4.11436e-06
-1.05045e-07
4.14057e-06
-9.59803e-08
4.13924e-06
-3.42528e-08
4.17595e-06
-1.54828e-07
4.28991e-06
-3.59403e-07
4.31976e-06
-1.3922e-07
4.33868e-06
-3.91697e-08
4.122e-06
5.386e-07
4.13192e-06
-1.32902e-07
4.3667e-06
-8.2505e-07
4.08302e-06
1.73346e-07
1.05328e-06
3.04423e-06
-2.28334e-07
1.49061e-06
7.68707e-07
3.86556e-06
2.85188e-07
1.33605e-06
3.78914e-07
1.82001e-06
6.46194e-07
1.8728e-06
4.66709e-07
7.09227e-07
3.59195e-07
3.98314e-07
2.84315e-07
2.72814e-07
2.26337e-07
2.08022e-07
1.78445e-07
1.70292e-07
1.36967e-07
1.46734e-07
9.96809e-08
1.3152e-07
6.51067e-08
1.21743e-07
3.21678e-08
1.15872e-07
1.13109e-07
-3.50539e-08
1.48163e-07
-7.0925e-08
1.51743e-07
-1.08524e-07
1.59341e-07
-1.4897e-07
1.71966e-07
-1.93774e-07
1.91537e-07
-2.45131e-07
2.21649e-07
-3.06483e-07
2.69375e-07
-3.83592e-07
3.49923e-07
-4.86178e-07
5.009e-07
-6.12505e-07
8.35555e-07
-4.1997e-07
1.68026e-06
-3.52837e-07
1.75287e-06
-6.33884e-07
1.61709e-06
5.91283e-08
3.17255e-06
-2.88092e-07
1.83783e-06
7.61221e-08
2.68002e-06
-1.65639e-06
1.90586e-06
-3.96576e-06
1.48431e-06
-4.26587e-06
1.6721e-07
-4.67458e-06
9.47311e-07
-4.64623e-06
-6.75141e-08
-4.63902e-06
-1.46438e-07
-4.48924e-06
-5.09176e-07
-4.46175e-06
-1.82317e-07
-4.48168e-06
-1.43267e-08
-4.45135e-06
-1.26312e-07
-4.42636e-06
-1.30027e-07
-4.39366e-06
-1.69506e-07
-4.32698e-06
-2.78679e-07
-4.27354e-06
-2.97138e-07
-4.18901e-06
-4.92918e-07
-3.96956e-06
-1.06811e-06
-3.82565e-06
-7.42922e-07
-3.63397e-06
-9.81109e-07
-3.36357e-06
-1.32016e-06
-2.97622e-06
-1.76909e-06
-2.4391e-06
-2.29918e-06
-1.74417e-06
-2.83422e-06
-9.12312e-07
-3.28021e-06
-1.26997e-17
-3.5361e-06
9.12312e-07
-3.5361e-06
1.74417e-06
-3.28021e-06
2.4391e-06
-2.83422e-06
2.97622e-06
-2.29918e-06
3.36357e-06
-1.76909e-06
3.63397e-06
-1.32016e-06
3.82565e-06
-9.81109e-07
3.96956e-06
-7.42922e-07
4.18901e-06
-1.06811e-06
4.27354e-06
-4.92918e-07
4.32698e-06
-2.97138e-07
4.39366e-06
-2.78679e-07
4.42636e-06
-1.69506e-07
4.45135e-06
-1.30027e-07
4.48168e-06
-1.26312e-07
4.46175e-06
-1.43267e-08
4.48924e-06
-1.82317e-07
4.63902e-06
-5.09176e-07
4.64623e-06
-1.46438e-07
4.67458e-06
-6.75141e-08
4.26587e-06
9.47311e-07
3.96576e-06
1.6721e-07
1.65639e-06
1.48431e-06
-7.61221e-08
1.90586e-06
2.88092e-07
2.68002e-06
-5.91283e-08
1.83783e-06
6.33884e-07
3.17255e-06
3.52837e-07
1.61709e-06
4.1997e-07
1.75287e-06
6.12505e-07
1.68026e-06
4.86178e-07
8.35555e-07
3.83592e-07
5.009e-07
3.06483e-07
3.49923e-07
2.45131e-07
2.69375e-07
1.93774e-07
2.21649e-07
1.4897e-07
1.91537e-07
1.08524e-07
1.71966e-07
7.0925e-08
1.59341e-07
3.50539e-08
1.51743e-07
1.48163e-07
-3.80917e-08
1.86255e-07
-7.70362e-08
1.90688e-07
-1.17775e-07
2.0008e-07
-1.61447e-07
2.15638e-07
-2.09539e-07
2.39629e-07
-2.64116e-07
2.76226e-07
-3.28142e-07
3.33401e-07
-4.05708e-07
4.27489e-07
-4.99947e-07
5.95139e-07
-5.87746e-07
9.23353e-07
-4.53407e-07
1.54592e-06
-4.00514e-07
1.69998e-06
-5.40461e-07
1.75704e-06
-6.79778e-08
2.70006e-06
-2.32172e-07
2.00202e-06
3.59576e-08
2.41189e-06
2.67029e-08
1.91512e-06
-3.97152e-08
1.55073e-06
-8.90481e-07
1.01798e-06
-4.54966e-06
4.60649e-06
-4.8116e-06
1.94426e-07
-4.96744e-06
9.40317e-09
-4.78527e-06
-6.91349e-07
-4.79297e-06
-1.74614e-07
-4.85317e-06
4.58657e-08
-4.81563e-06
-1.63852e-07
-4.79586e-06
-1.49794e-07
-4.76976e-06
-1.95605e-07
-4.69008e-06
-3.58363e-07
-4.65091e-06
-3.36305e-07
-4.59769e-06
-5.46144e-07
-4.38586e-06
-1.27993e-06
-4.26669e-06
-8.62093e-07
-4.10953e-06
-1.13827e-06
-3.87152e-06
-1.55818e-06
-3.49228e-06
-2.14833e-06
-2.9125e-06
-2.87896e-06
-2.11453e-06
-3.63219e-06
-1.11735e-06
-4.27739e-06
-3.45627e-17
-4.65345e-06
1.11735e-06
-4.65345e-06
2.11453e-06
-4.27739e-06
2.9125e-06
-3.63219e-06
3.49228e-06
-2.87896e-06
3.87152e-06
-2.14833e-06
4.10953e-06
-1.55818e-06
4.26669e-06
-1.13827e-06
4.38586e-06
-8.62093e-07
4.59769e-06
-1.27993e-06
4.65091e-06
-5.46144e-07
4.69008e-06
-3.36305e-07
4.76976e-06
-3.58363e-07
4.79586e-06
-1.95605e-07
4.81563e-06
-1.49794e-07
4.85317e-06
-1.63852e-07
4.79297e-06
4.58657e-08
4.78527e-06
-1.74614e-07
4.96744e-06
-6.91349e-07
4.8116e-06
9.40317e-09
4.54966e-06
1.94426e-07
8.90481e-07
4.60649e-06
3.97152e-08
1.01798e-06
-2.67029e-08
1.55073e-06
-3.59576e-08
1.91512e-06
2.32172e-07
2.41189e-06
6.79778e-08
2.00202e-06
5.40461e-07
2.70006e-06
4.00514e-07
1.75704e-06
4.53407e-07
1.69998e-06
5.87746e-07
1.54592e-06
4.99947e-07
9.23353e-07
4.05708e-07
5.95139e-07
3.28142e-07
4.27489e-07
2.64116e-07
3.33401e-07
2.09539e-07
2.76226e-07
1.61447e-07
2.39629e-07
1.17775e-07
2.15638e-07
7.70362e-08
2.0008e-07
3.80917e-08
1.90688e-07
1.86255e-07
-4.12492e-08
2.27504e-07
-8.33707e-08
2.32809e-07
-1.27316e-07
2.44025e-07
-1.74207e-07
2.62529e-07
-2.25446e-07
2.90868e-07
-2.82844e-07
3.33624e-07
-3.4865e-07
3.99208e-07
-4.24919e-07
5.03758e-07
-5.09059e-07
6.79279e-07
-5.70117e-07
9.84412e-07
-4.78863e-07
1.45467e-06
-4.32462e-07
1.65358e-06
-4.79887e-07
1.80447e-06
-1.58133e-07
2.37831e-06
-2.05581e-07
2.04947e-06
-2.00369e-08
2.22634e-06
-1.4338e-08
1.90942e-06
-1.06197e-07
1.64259e-06
-5.97053e-07
1.50883e-06
5.78453e-07
3.43099e-06
-4.26091e-07
1.19897e-06
-3.68636e-06
3.26967e-06
-4.70283e-06
3.25121e-07
-5.00526e-06
1.27817e-07
-5.21547e-06
2.56078e-07
-5.18463e-06
-1.94694e-07
-5.18781e-06
-1.46617e-07
-5.18248e-06
-2.00934e-07
-5.07884e-06
-4.62004e-07
-5.06686e-06
-3.48283e-07
-5.07328e-06
-5.39724e-07
-4.86543e-06
-1.48778e-06
-4.79428e-06
-9.33243e-07
-4.71073e-06
-1.22181e-06
-4.55542e-06
-1.71349e-06
-4.22899e-06
-2.47476e-06
-3.61389e-06
-3.49407e-06
-2.68331e-06
-4.56277e-06
-1.43914e-06
-5.52157e-06
-1.69624e-17
-6.09258e-06
1.43914e-06
-6.09258e-06
2.68331e-06
-5.52157e-06
3.61389e-06
-4.56277e-06
4.22899e-06
-3.49407e-06
4.55542e-06
-2.47476e-06
4.71073e-06
-1.71349e-06
4.79428e-06
-1.22181e-06
4.86543e-06
-9.33243e-07
5.07328e-06
-1.48778e-06
5.06686e-06
-5.39724e-07
5.07884e-06
-3.48283e-07
5.18248e-06
-4.62004e-07
5.18781e-06
-2.00934e-07
5.18463e-06
-1.46617e-07
5.21547e-06
-1.94694e-07
5.00526e-06
2.56078e-07
4.70283e-06
1.27817e-07
3.68636e-06
3.25121e-07
4.26091e-07
3.26967e-06
-5.78453e-07
1.19897e-06
5.97053e-07
3.43099e-06
1.06197e-07
1.50883e-06
1.4338e-08
1.64259e-06
2.00369e-08
1.90942e-06
2.05581e-07
2.22634e-06
1.58133e-07
2.04947e-06
4.79887e-07
2.37831e-06
4.32462e-07
1.80447e-06
4.78863e-07
1.65358e-06
5.70117e-07
1.45467e-06
5.09059e-07
9.84412e-07
4.24919e-07
6.79279e-07
3.4865e-07
5.03758e-07
2.82844e-07
3.99208e-07
2.25446e-07
3.33624e-07
1.74207e-07
2.90868e-07
1.27316e-07
2.62529e-07
8.33707e-08
2.44025e-07
4.12492e-08
2.32809e-07
2.27504e-07
-4.4479e-08
2.71983e-07
-8.98275e-08
2.78158e-07
-1.36978e-07
2.91176e-07
-1.86992e-07
3.12543e-07
-2.41117e-07
3.44993e-07
-3.00784e-07
3.93291e-07
-3.6735e-07
4.65773e-07
-4.40781e-07
5.77189e-07
-5.144e-07
7.52897e-07
-5.57587e-07
1.0276e-06
-4.96579e-07
1.39366e-06
-4.52603e-07
1.6096e-06
-4.43701e-07
1.79556e-06
-2.20807e-07
2.15541e-06
-2.0001e-07
2.02867e-06
-6.76246e-08
2.09396e-06
-5.41585e-08
1.89595e-06
-1.35744e-07
1.72417e-06
-3.7801e-07
1.7511e-06
3.12982e-07
2.73999e-06
-1.555e-07
1.66745e-06
5.93874e-07
2.5203e-06
9.44655e-09
9.09549e-07
-7.16093e-07
8.53357e-07
-4.76643e-06
4.30641e-06
-5.19785e-06
2.36725e-07
-5.45817e-06
1.13704e-07
-5.58683e-06
-7.22698e-08
-5.46136e-06
-5.87479e-07
-5.5105e-06
-2.99138e-07
-5.63454e-06
-4.15684e-07
-5.39745e-06
-1.72487e-06
-5.40964e-06
-9.21059e-07
-5.46736e-06
-1.1641e-06
-5.4953e-06
-1.68555e-06
-5.32911e-06
-2.64094e-06
-4.69803e-06
-4.12515e-06
-3.60897e-06
-5.65183e-06
-1.97713e-06
-7.15341e-06
1.1174e-17
-8.06971e-06
1.97713e-06
-8.06971e-06
3.60897e-06
-7.15341e-06
4.69803e-06
-5.65183e-06
5.32911e-06
-4.12515e-06
5.4953e-06
-2.64094e-06
5.46736e-06
-1.68555e-06
5.40964e-06
-1.1641e-06
5.39745e-06
-9.21059e-07
5.63454e-06
-1.72487e-06
5.5105e-06
-4.15684e-07
5.46136e-06
-2.99138e-07
5.58683e-06
-5.87479e-07
5.45817e-06
-7.22698e-08
5.19785e-06
1.13704e-07
4.76643e-06
2.36725e-07
7.16093e-07
4.30641e-06
-9.44655e-09
8.53357e-07
-5.93874e-07
9.09549e-07
1.555e-07
2.5203e-06
-3.12982e-07
1.66745e-06
3.7801e-07
2.73999e-06
1.35744e-07
1.7511e-06
5.41585e-08
1.72417e-06
6.76246e-08
1.89595e-06
2.0001e-07
2.09396e-06
2.20807e-07
2.02867e-06
4.43701e-07
2.15541e-06
4.52603e-07
1.79556e-06
4.96579e-07
1.6096e-06
5.57587e-07
1.39366e-06
5.144e-07
1.0276e-06
4.40781e-07
7.52897e-07
3.6735e-07
5.77189e-07
3.00784e-07
4.65773e-07
2.41117e-07
3.93291e-07
1.86992e-07
3.44993e-07
1.36978e-07
3.12543e-07
8.98275e-08
2.91176e-07
4.4479e-08
2.78158e-07
2.71983e-07
-4.77158e-08
3.19699e-07
-9.62693e-08
3.26711e-07
-1.46539e-07
3.41446e-07
-1.99475e-07
3.65479e-07
-2.56094e-07
4.01612e-07
-3.17348e-07
4.54545e-07
-3.83613e-07
5.32038e-07
-4.53014e-07
6.4659e-07
-5.16607e-07
8.16491e-07
-5.48146e-07
1.05914e-06
-5.07243e-07
1.35276e-06
-4.64204e-07
1.56656e-06
-4.24309e-07
1.75567e-06
-2.64148e-07
1.99525e-06
-2.08064e-07
1.97259e-06
-1.08482e-07
1.99438e-06
-8.91672e-08
1.87664e-06
-1.44222e-07
1.77923e-06
-2.4326e-07
1.85014e-06
1.57442e-07
2.33929e-06
-2.27803e-08
1.84767e-06
3.72274e-07
2.12524e-06
7.64819e-10
1.28106e-06
-4.96125e-07
1.35025e-06
8.32279e-07
2.97801e-06
1.09658e-07
9.59346e-07
-7.11003e-07
9.34365e-07
-4.45115e-06
3.66788e-06
-5.3184e-06
2.79772e-07
-5.74174e-06
1.242e-07
-6.23734e-06
7.99164e-08
-5.89204e-06
-2.07017e-06
-6.05446e-06
-7.58634e-07
-6.37253e-06
-8.46034e-07
-6.78975e-06
-1.26832e-06
-7.07655e-06
-2.35415e-06
-6.4317e-06
-4.76999e-06
-5.23054e-06
-6.853e-06
-2.9487e-06
-9.43525e-06
8.83625e-18
-1.10184e-05
2.9487e-06
-1.10184e-05
5.23054e-06
-9.43525e-06
6.4317e-06
-6.853e-06
7.07655e-06
-4.76999e-06
6.78975e-06
-2.35415e-06
6.37253e-06
-1.26832e-06
6.05446e-06
-8.46034e-07
5.89204e-06
-7.58634e-07
6.23734e-06
-2.07017e-06
5.74174e-06
7.99164e-08
5.3184e-06
1.242e-07
4.45115e-06
2.79772e-07
7.11003e-07
3.66788e-06
-1.09658e-07
9.34365e-07
-8.32279e-07
9.59346e-07
4.96125e-07
2.97801e-06
-7.64819e-10
1.35025e-06
-3.72274e-07
1.28106e-06
2.27803e-08
2.12524e-06
-1.57442e-07
1.84767e-06
2.4326e-07
2.33929e-06
1.44222e-07
1.85014e-06
8.91672e-08
1.77923e-06
1.08482e-07
1.87664e-06
2.08064e-07
1.99438e-06
2.64148e-07
1.97259e-06
4.24309e-07
1.99525e-06
4.64204e-07
1.75567e-06
5.07243e-07
1.56656e-06
5.48146e-07
1.35276e-06
5.16607e-07
1.05914e-06
4.53014e-07
8.16491e-07
3.83613e-07
6.4659e-07
3.17348e-07
5.32038e-07
2.56094e-07
4.54545e-07
1.99475e-07
4.01612e-07
1.46539e-07
3.65479e-07
9.62693e-08
3.41446e-07
4.77158e-08
3.26711e-07
3.19699e-07
-5.08742e-08
3.70573e-07
-1.02519e-07
3.78356e-07
-1.55718e-07
3.94645e-07
-2.11257e-07
4.21019e-07
-2.69856e-07
4.60211e-07
-3.31922e-07
5.16611e-07
-3.96877e-07
5.96994e-07
-4.61461e-07
7.11173e-07
-5.16047e-07
8.71078e-07
-5.40015e-07
1.08311e-06
-5.11788e-07
1.32453e-06
-4.69731e-07
1.52451e-06
-4.1545e-07
1.70139e-06
-2.94449e-07
1.87425e-06
-2.23667e-07
1.90181e-06
-1.43529e-07
1.91424e-06
-1.18106e-07
1.85121e-06
-1.43406e-07
1.80453e-06
-1.64848e-07
1.87158e-06
7.02077e-08
2.10424e-06
3.28738e-08
1.88501e-06
2.32347e-07
1.92577e-06
1.52614e-08
1.49814e-06
-2.04849e-07
1.57036e-06
4.92067e-07
2.28109e-06
1.15105e-07
1.33631e-06
-2.96738e-07
1.34621e-06
8.59542e-07
2.5116e-06
2.48633e-07
8.9068e-07
-3.84069e-07
7.56902e-07
-2.30752e-06
2.00337e-06
-5.11518e-06
7.37486e-07
-5.94443e-06
7.06152e-08
-6.84293e-06
5.24659e-08
-8.15325e-06
4.19945e-08
-1.00158e-05
-4.91552e-07
-9.06603e-06
-5.71981e-06
-8.35734e-06
-7.56169e-06
-4.85964e-06
-1.2933e-05
3.60226e-17
-1.5878e-05
4.85964e-06
-1.5878e-05
8.35734e-06
-1.2933e-05
9.06603e-06
-7.56169e-06
1.00158e-05
-5.71981e-06
8.15325e-06
-4.91552e-07
6.84293e-06
4.19945e-08
5.94443e-06
5.24659e-08
5.11518e-06
7.06152e-08
2.30752e-06
7.37486e-07
3.84069e-07
2.00337e-06
-2.48633e-07
7.56902e-07
-8.59542e-07
8.9068e-07
2.96738e-07
2.5116e-06
-1.15105e-07
1.34621e-06
-4.92067e-07
1.33631e-06
2.04849e-07
2.28109e-06
-1.52614e-08
1.57036e-06
-2.32347e-07
1.49814e-06
-3.28738e-08
1.92577e-06
-7.02077e-08
1.88501e-06
1.64848e-07
2.10424e-06
1.43406e-07
1.87158e-06
1.18106e-07
1.80453e-06
1.43529e-07
1.85121e-06
2.23667e-07
1.91424e-06
2.94449e-07
1.90181e-06
4.1545e-07
1.87425e-06
4.69731e-07
1.70139e-06
5.11788e-07
1.52451e-06
5.40015e-07
1.32453e-06
5.16047e-07
1.08311e-06
4.61461e-07
8.71078e-07
3.96877e-07
7.11173e-07
3.31922e-07
5.96994e-07
2.69856e-07
5.16611e-07
2.11257e-07
4.60211e-07
1.55718e-07
4.21019e-07
1.02519e-07
3.94645e-07
5.08742e-08
3.78356e-07
3.70573e-07
-5.38483e-08
4.24421e-07
-1.08361e-07
4.32868e-07
-1.64181e-07
4.50465e-07
-2.21884e-07
4.78722e-07
-2.81841e-07
5.20168e-07
-3.43902e-07
5.78672e-07
-4.06671e-07
6.59763e-07
-4.66042e-07
7.70543e-07
-5.12842e-07
9.17878e-07
-5.31758e-07
1.10202e-06
-5.11193e-07
1.30396e-06
-4.70855e-07
1.48417e-06
-4.12326e-07
1.64286e-06
-3.16048e-07
1.77797e-06
-2.42206e-07
1.82796e-06
-1.73231e-07
1.84526e-06
-1.41249e-07
1.81923e-06
-1.40477e-07
1.80376e-06
-1.22465e-07
1.85357e-06
2.2029e-08
1.95974e-06
4.62784e-08
1.86076e-06
1.47606e-07
1.82444e-06
3.48484e-08
1.6109e-06
-4.64493e-08
1.65166e-06
3.02783e-07
1.93186e-06
1.28732e-07
1.51036e-06
-3.32185e-08
1.50816e-06
5.36281e-07
1.9421e-06
2.39159e-07
1.1878e-06
-6.86083e-08
1.06467e-06
3.87831e-07
1.54693e-06
1.60442e-07
9.64874e-07
-1.18089e-07
3.49146e-07
-4.82225e-07
4.16602e-07
-1.12331e-06
6.83075e-07
-2.49912e-06
8.8426e-07
-8.33216e-06
1.13234e-07
-1.44836e-05
-1.41028e-06
-8.59787e-06
-1.88186e-05
2.19758e-17
-2.44759e-05
8.59787e-06
-2.44759e-05
1.44836e-05
-1.88186e-05
8.33216e-06
-1.41028e-06
2.49912e-06
1.13234e-07
1.12331e-06
8.8426e-07
4.82225e-07
6.83075e-07
1.18089e-07
4.16602e-07
-1.60442e-07
3.49146e-07
-3.87831e-07
9.64874e-07
6.86083e-08
1.54693e-06
-2.39159e-07
1.06467e-06
-5.36281e-07
1.1878e-06
3.32185e-08
1.9421e-06
-1.28732e-07
1.50816e-06
-3.02783e-07
1.51036e-06
4.64493e-08
1.93186e-06
-3.48484e-08
1.65166e-06
-1.47606e-07
1.6109e-06
-4.62784e-08
1.82444e-06
-2.2029e-08
1.86076e-06
1.22465e-07
1.95974e-06
1.40477e-07
1.85357e-06
1.41249e-07
1.80376e-06
1.73231e-07
1.81923e-06
2.42206e-07
1.84526e-06
3.16048e-07
1.82796e-06
4.12326e-07
1.77797e-06
4.70855e-07
1.64286e-06
5.11193e-07
1.48417e-06
5.31758e-07
1.30396e-06
5.12842e-07
1.10202e-06
4.66042e-07
9.17878e-07
4.06671e-07
7.70543e-07
3.43902e-07
6.59763e-07
2.81841e-07
5.78672e-07
2.21884e-07
5.20168e-07
1.64181e-07
4.78722e-07
1.08361e-07
4.50465e-07
5.38483e-08
4.32868e-07
4.24421e-07
-5.65139e-08
4.80935e-07
-1.13544e-07
4.89898e-07
-1.71553e-07
5.08474e-07
-2.30864e-07
5.38032e-07
-2.9148e-07
5.80784e-07
-3.52736e-07
6.39927e-07
-4.12626e-07
7.19653e-07
-4.66717e-07
8.24634e-07
-5.06944e-07
9.58106e-07
-5.22322e-07
1.1174e-06
-5.06324e-07
1.28797e-06
-4.68571e-07
1.44642e-06
-4.11487e-07
1.58577e-06
-3.31568e-07
1.69805e-06
-2.60438e-07
1.75684e-06
-1.97858e-07
1.78268e-06
-1.59595e-07
1.78097e-06
-1.39051e-07
1.78321e-06
-1.02291e-07
1.81681e-06
-5.69982e-09
1.86315e-06
3.98025e-08
1.81526e-06
9.7476e-08
1.76677e-06
5.05173e-08
1.65786e-06
3.35878e-08
1.66858e-06
2.04939e-07
1.76051e-06
1.40532e-07
1.57477e-06
9.44802e-08
1.55421e-06
3.60644e-07
1.67594e-06
2.25167e-07
1.32328e-06
7.0242e-08
1.21959e-06
2.49782e-07
1.36739e-06
1.01081e-07
1.11357e-06
-2.64969e-08
4.76724e-07
-1.2166e-07
5.11766e-07
-2.44822e-08
5.85897e-07
2.46352e-07
6.13426e-07
-1.40225e-07
4.99812e-07
-1.30611e-06
-2.44396e-07
-6.25003e-06
-1.38747e-05
-9.60723e-17
-3.07259e-05
6.25003e-06
-3.07259e-05
1.30611e-06
-1.38747e-05
1.40225e-07
-2.44396e-07
-2.46352e-07
4.99812e-07
2.44822e-08
6.13426e-07
1.2166e-07
5.85897e-07
2.64969e-08
5.11766e-07
-1.01081e-07
4.76724e-07
-2.49782e-07
1.11357e-06
-7.0242e-08
1.36739e-06
-2.25167e-07
1.21959e-06
-3.60644e-07
1.32328e-06
-9.44802e-08
1.67594e-06
-1.40532e-07
1.55421e-06
-2.04939e-07
1.57477e-06
-3.35878e-08
1.76051e-06
-5.05173e-08
1.66858e-06
-9.7476e-08
1.65786e-06
-3.98025e-08
1.76677e-06
5.69982e-09
1.81526e-06
1.02291e-07
1.86315e-06
1.39051e-07
1.81681e-06
1.59595e-07
1.78321e-06
1.97858e-07
1.78097e-06
2.60438e-07
1.78268e-06
3.31568e-07
1.75684e-06
4.11487e-07
1.69805e-06
4.68571e-07
1.58577e-06
5.06324e-07
1.44642e-06
5.22322e-07
1.28797e-06
5.06944e-07
1.1174e-06
4.66717e-07
9.58106e-07
4.12626e-07
8.24634e-07
3.52736e-07
7.19653e-07
2.9148e-07
6.39927e-07
2.30864e-07
5.80784e-07
1.71553e-07
5.38032e-07
1.13544e-07
5.08474e-07
5.65139e-08
4.89898e-07
4.80935e-07
-5.87328e-08
5.39668e-07
-1.17796e-07
5.48961e-07
-1.77436e-07
5.68115e-07
-2.37701e-07
5.98297e-07
-2.98238e-07
6.41321e-07
-3.57954e-07
6.99643e-07
-4.14477e-07
7.76177e-07
-4.63465e-07
8.73621e-07
-4.98216e-07
9.92857e-07
-5.10991e-07
1.13017e-06
-4.9784e-07
1.27482e-06
-4.63363e-07
1.41194e-06
-4.10579e-07
1.53299e-06
-3.42338e-07
1.62981e-06
-2.76274e-07
1.69077e-06
-2.17638e-07
1.72405e-06
-1.74233e-07
1.73756e-06
-1.40322e-07
1.7493e-06
-9.53748e-08
1.77186e-06
-2.36342e-08
1.79141e-06
2.60577e-08
1.76557e-06
6.73874e-08
1.72544e-06
5.93009e-08
1.66595e-06
7.0203e-08
1.65768e-06
1.57369e-07
1.67334e-06
1.46679e-07
1.58546e-06
1.47807e-07
1.55308e-06
2.67571e-07
1.55617e-06
2.09337e-07
1.38151e-06
1.30685e-07
1.29825e-06
1.81846e-07
1.31623e-06
9.02929e-08
1.20513e-06
3.53214e-08
5.31696e-07
2.76775e-09
5.44319e-07
2.37277e-08
5.64937e-07
6.36061e-08
5.73547e-07
1.13554e-09
5.62283e-07
-4.37372e-08
-1.99524e-07
-9.02916e-07
-1.30155e-05
3.58308e-17
-3.16289e-05
9.02916e-07
-3.16289e-05
4.37372e-08
-1.30155e-05
-1.13554e-09
-1.99524e-07
-6.36061e-08
5.62283e-07
-2.37277e-08
5.73547e-07
-2.76775e-09
5.64937e-07
-3.53214e-08
5.44319e-07
-9.02929e-08
5.31696e-07
-1.81846e-07
1.20513e-06
-1.30685e-07
1.31623e-06
-2.09337e-07
1.29825e-06
-2.67571e-07
1.38151e-06
-1.47807e-07
1.55617e-06
-1.46679e-07
1.55308e-06
-1.57369e-07
1.58546e-06
-7.0203e-08
1.67334e-06
-5.93009e-08
1.65768e-06
-6.73874e-08
1.66595e-06
-2.60577e-08
1.72544e-06
2.36342e-08
1.76557e-06
9.53748e-08
1.79141e-06
1.40322e-07
1.77186e-06
1.74233e-07
1.7493e-06
2.17638e-07
1.73756e-06
2.76274e-07
1.72405e-06
3.42338e-07
1.69077e-06
4.10579e-07
1.62981e-06
4.63363e-07
1.53299e-06
4.9784e-07
1.41194e-06
5.10991e-07
1.27482e-06
4.98216e-07
1.13017e-06
4.63465e-07
9.92857e-07
4.14477e-07
8.73621e-07
3.57954e-07
7.76177e-07
2.98238e-07
6.99643e-07
2.37701e-07
6.41321e-07
1.77436e-07
5.98297e-07
1.17796e-07
5.68115e-07
5.87328e-08
5.48961e-07
5.39668e-07
-6.0362e-08
6.0003e-07
-1.20838e-07
6.09437e-07
-1.81438e-07
6.28715e-07
-2.41931e-07
6.5879e-07
-3.0165e-07
7.01039e-07
-3.59196e-07
7.5719e-07
-4.12062e-07
8.29043e-07
-4.56278e-07
9.17837e-07
-4.86499e-07
1.02308e-06
-4.97313e-07
1.14099e-06
-4.86172e-07
1.26368e-06
-4.55374e-07
1.38114e-06
-4.08058e-07
1.48567e-06
-3.48869e-07
1.57062e-06
-2.88494e-07
1.63039e-06
-2.3281e-07
1.66837e-06
-1.85979e-07
1.69073e-06
-1.44059e-07
1.70738e-06
-9.6073e-08
1.72387e-06
-3.7207e-08
1.73254e-06
1.10602e-08
1.7173e-06
4.79371e-08
1.68856e-06
6.14342e-08
1.65245e-06
8.38384e-08
1.63528e-06
1.34232e-07
1.62295e-06
1.46746e-07
1.57294e-06
1.63468e-07
1.53636e-06
2.17218e-07
1.50242e-06
1.9325e-07
1.40548e-06
1.51192e-07
1.3403e-06
1.50943e-07
1.31648e-06
9.37081e-08
1.26236e-06
6.66444e-08
5.5876e-07
4.86097e-08
5.62354e-07
4.50571e-08
5.6849e-07
4.5656e-08
5.72948e-07
3.31161e-08
5.74823e-07
1.0025e-08
-1.76432e-07
-3.23406e-07
-1.26821e-05
4.8107e-17
-3.19523e-05
3.23406e-07
-3.19523e-05
-1.0025e-08
-1.26821e-05
-3.31161e-08
-1.76432e-07
-4.5656e-08
5.74823e-07
-4.50571e-08
5.72948e-07
-4.86097e-08
5.6849e-07
-6.66444e-08
5.62354e-07
-9.37081e-08
5.5876e-07
-1.50943e-07
1.26236e-06
-1.51192e-07
1.31648e-06
-1.9325e-07
1.3403e-06
-2.17218e-07
1.40548e-06
-1.63468e-07
1.50242e-06
-1.46746e-07
1.53636e-06
-1.34232e-07
1.57294e-06
-8.38384e-08
1.62295e-06
-6.14342e-08
1.63528e-06
-4.79371e-08
1.65245e-06
-1.10602e-08
1.68856e-06
3.7207e-08
1.7173e-06
9.6073e-08
1.73254e-06
1.44059e-07
1.72387e-06
1.85979e-07
1.70738e-06
2.3281e-07
1.69073e-06
2.88494e-07
1.66837e-06
3.48869e-07
1.63039e-06
4.08058e-07
1.57062e-06
4.55374e-07
1.48567e-06
4.86172e-07
1.38114e-06
4.97313e-07
1.26368e-06
4.86499e-07
1.14099e-06
4.56278e-07
1.02308e-06
4.12062e-07
9.17837e-07
3.59196e-07
8.29043e-07
3.0165e-07
7.5719e-07
2.41931e-07
7.01039e-07
1.81438e-07
6.5879e-07
1.20838e-07
6.28715e-07
6.0362e-08
6.09437e-07
6.0003e-07
-6.12652e-08
6.61295e-07
-1.22412e-07
6.70585e-07
-1.83208e-07
6.8951e-07
-2.43164e-07
7.18747e-07
-3.01363e-07
7.59238e-07
-3.56233e-07
8.12059e-07
-4.0532e-07
8.7813e-07
-4.45178e-07
9.57696e-07
-4.7167e-07
1.04957e-06
-4.81022e-07
1.15034e-06
-4.71545e-07
1.2542e-06
-4.44557e-07
1.35415e-06
-4.02947e-07
1.44406e-06
-3.51253e-07
1.51893e-06
-2.96482e-07
1.57562e-06
-2.43602e-07
1.61549e-06
-1.95242e-07
1.64237e-06
-1.49346e-07
1.66148e-06
-1.0082e-07
1.67535e-06
-4.8818e-08
1.68054e-06
-2.96352e-09
1.67144e-06
3.36106e-08
1.65199e-06
5.83627e-08
1.6277e-06
8.54805e-08
1.60816e-06
1.20961e-07
1.58747e-06
1.41738e-07
1.55217e-06
1.6147e-07
1.51663e-06
1.87329e-07
1.47656e-06
1.77726e-07
1.41508e-06
1.53316e-07
1.36471e-06
1.37131e-07
1.33267e-06
9.90334e-08
1.30046e-06
8.26555e-08
5.75137e-07
6.96324e-08
5.75377e-07
6.12759e-08
5.76846e-07
5.57379e-08
5.78486e-07
5.09834e-08
5.79577e-07
3.17401e-08
-1.57189e-07
-2.16201e-07
-1.24342e-05
1.8557e-17
-3.21685e-05
2.16201e-07
-3.21685e-05
-3.17401e-08
-1.24342e-05
-5.09834e-08
-1.57189e-07
-5.57379e-08
5.79577e-07
-6.12759e-08
5.78486e-07
-6.96324e-08
5.76846e-07
-8.26555e-08
5.75377e-07
-9.90334e-08
5.75137e-07
-1.37131e-07
1.30046e-06
-1.53316e-07
1.33267e-06
-1.77726e-07
1.36471e-06
-1.87329e-07
1.41508e-06
-1.6147e-07
1.47656e-06
-1.41738e-07
1.51663e-06
-1.20961e-07
1.55217e-06
-8.54805e-08
1.58747e-06
-5.83627e-08
1.60816e-06
-3.36106e-08
1.6277e-06
2.96352e-09
1.65199e-06
4.8818e-08
1.67144e-06
1.0082e-07
1.68054e-06
1.49346e-07
1.67535e-06
1.95242e-07
1.66148e-06
2.43602e-07
1.64237e-06
2.96482e-07
1.61549e-06
3.51253e-07
1.57562e-06
4.02947e-07
1.51893e-06
4.44557e-07
1.44406e-06
4.71545e-07
1.35415e-06
4.81022e-07
1.2542e-06
4.7167e-07
1.15034e-06
4.45178e-07
1.04957e-06
4.0532e-07
9.57696e-07
3.56233e-07
8.7813e-07
3.01363e-07
8.12059e-07
2.43164e-07
7.59238e-07
1.83208e-07
7.18747e-07
1.22412e-07
6.8951e-07