/*--------------------------------*- C++ -*----------------------------------*\
  =========                 |
  \\      /  F ield         | OpenFOAM: The Open Source CFD Toolbox
   \\    /   O peration     | Website:  https://openfoam.org
    \\  /    A nd           | Version:  10
     \\/     M anipulation  |
\*---------------------------------------------------------------------------*/
FoamFile
{
    format      ascii;
    class       volVectorField;
    location    "16800";
    object      Ub;
}
// * * * * * * * * * * * * * * * * * * * * * * * * * * * * * * * * * * * * * //

dimensions      [0 1 -1 0 0 0 0];

internalField   nonuniform List<vector> 
6400
(
(-7.6553e-21 -9.87899e-16 0)
(-2.31556e-20 -9.87899e-16 0)
(-3.92491e-20 -9.87899e-16 0)
(-5.64208e-20 -9.87899e-16 0)
(-7.53215e-20 -9.87899e-16 0)
(-9.69243e-20 -9.87898e-16 0)
(-1.22846e-19 -9.87898e-16 0)
(-1.5605e-19 -9.87897e-16 0)
(-2.01966e-19 -9.87895e-16 0)
(-2.52738e-09 -9.91766e-16 0)
(-5.79101e-05 -3.37176e-06 0)
(-0.000120039 -1.08185e-06 0)
(-0.000117255 -1.76861e-06 0)
(-0.000120533 1.9296e-06 0)
(-0.000130445 -1.75917e-07 0)
(-0.000129505 -1.87324e-07 0)
(-0.000127931 -2.59254e-07 0)
(-0.000123843 -6.71038e-07 0)
(-0.000119973 -1.97348e-07 0)
(-0.000120603 2.56552e-07 0)
(-0.000121918 -4.90136e-08 0)
(-0.000121162 -1.57355e-07 0)
(-0.000119223 -2.84071e-07 0)
(-0.000117249 -1.60041e-07 0)
(-0.000116302 -7.16334e-08 0)
(-0.000115646 -9.79882e-08 0)
(-0.000114799 -1.08137e-07 0)
(-0.000113767 -1.33214e-07 0)
(-0.000112349 -1.8501e-07 0)
(-0.00011047 -2.25433e-07 0)
(-0.000107678 -3.69163e-07 0)
(-0.00010245 -7.19585e-07 0)
(-9.64934e-05 -1.14615e-06 0)
(-9.07636e-05 -1.49883e-06 0)
(-8.32554e-05 -1.95919e-06 0)
(-7.35119e-05 -2.52087e-06 0)
(-6.11827e-05 -3.14151e-06 0)
(-4.61825e-05 -3.74225e-06 0)
(-2.88144e-05 -4.22438e-06 0)
(-9.80161e-06 -4.49436e-06 0)
(9.80161e-06 -4.49436e-06 0)
(2.88144e-05 -4.22438e-06 0)
(4.61825e-05 -3.74225e-06 0)
(6.11827e-05 -3.14151e-06 0)
(7.35119e-05 -2.52087e-06 0)
(8.32554e-05 -1.95919e-06 0)
(9.07636e-05 -1.49883e-06 0)
(9.64934e-05 -1.14615e-06 0)
(0.00010245 -7.19585e-07 0)
(0.000107678 -3.69163e-07 0)
(0.00011047 -2.25433e-07 0)
(0.000112349 -1.8501e-07 0)
(0.000113767 -1.33214e-07 0)
(0.000114799 -1.08137e-07 0)
(0.000115646 -9.79882e-08 0)
(0.000116302 -7.16334e-08 0)
(0.000117249 -1.60041e-07 0)
(0.000119223 -2.84071e-07 0)
(0.000121162 -1.57355e-07 0)
(0.000121918 -4.90136e-08 0)
(0.000120603 2.56552e-07 0)
(0.000119973 -1.97348e-07 0)
(0.000123843 -6.71038e-07 0)
(0.000127931 -2.59254e-07 0)
(0.000129505 -1.87324e-07 0)
(0.000130445 -1.75917e-07 0)
(0.000120533 1.9296e-06 0)
(0.000117255 -1.76861e-06 0)
(0.000120039 -1.08185e-06 0)
(5.79101e-05 -3.37176e-06 0)
(2.52738e-09 -9.91766e-16 0)
(2.01966e-19 -9.87895e-16 0)
(1.5605e-19 -9.87897e-16 0)
(1.22846e-19 -9.87898e-16 0)
(9.69243e-20 -9.87898e-16 0)
(7.53215e-20 -9.87899e-16 0)
(5.64208e-20 -9.87899e-16 0)
(3.92491e-20 -9.87899e-16 0)
(2.31556e-20 -9.87899e-16 0)
(7.6553e-21 -9.87899e-16 0)
(-7.64705e-21 -9.87894e-16 0)
(-2.31297e-20 -9.87894e-16 0)
(-3.92023e-20 -9.87893e-16 0)
(-5.63456e-20 -9.87893e-16 0)
(-7.52041e-20 -9.87892e-16 0)
(-9.67368e-20 -9.87891e-16 0)
(-1.2253e-19 -9.8789e-16 0)
(-1.55538e-19 -9.87887e-16 0)
(-2.0268e-19 -9.87882e-16 0)
(-3.27097e-19 -9.87884e-16 0)
(-4.03896e-12 -9.87003e-16 0)
(-3.2097e-05 -4.99988e-09 0)
(-8.20211e-05 -1.59765e-06 0)
(-0.000112585 6.54945e-06 0)
(-0.000125171 -3.92336e-07 0)
(-0.000124802 -4.1414e-07 0)
(-0.000123871 -6.6565e-07 0)
(-0.000120104 -2.01201e-06 0)
(-0.000116379 -5.33965e-07 0)
(-0.000117318 8.80999e-07 0)
(-0.000118842 -1.0875e-07 0)
(-0.000118171 -4.37617e-07 0)
(-0.000116315 -8.44583e-07 0)
(-0.000114413 -4.54306e-07 0)
(-0.000113581 -1.82347e-07 0)
(-0.000113012 -2.72226e-07 0)
(-0.000112228 -3.04193e-07 0)
(-0.000111267 -3.82642e-07 0)
(-0.000109917 -5.45276e-07 0)
(-0.000108127 -6.65542e-07 0)
(-0.000105486 -1.10383e-06 0)
(-0.000100483 -2.1808e-06 0)
(-9.4757e-05 -3.48291e-06 0)
(-8.92466e-05 -4.5635e-06 0)
(-8.19984e-05 -5.9808e-06 0)
(-7.25368e-05 -7.71805e-06 0)
(-6.04845e-05 -9.6451e-06 0)
(-4.5732e-05 -1.15155e-05 0)
(-2.85696e-05 -1.30198e-05 0)
(-9.72503e-06 -1.38635e-05 0)
(9.72503e-06 -1.38635e-05 0)
(2.85696e-05 -1.30198e-05 0)
(4.5732e-05 -1.15155e-05 0)
(6.04845e-05 -9.6451e-06 0)
(7.25368e-05 -7.71805e-06 0)
(8.19984e-05 -5.9808e-06 0)
(8.92466e-05 -4.5635e-06 0)
(9.4757e-05 -3.48291e-06 0)
(0.000100483 -2.1808e-06 0)
(0.000105486 -1.10383e-06 0)
(0.000108127 -6.65542e-07 0)
(0.000109917 -5.45276e-07 0)
(0.000111267 -3.82642e-07 0)
(0.000112228 -3.04193e-07 0)
(0.000113012 -2.72226e-07 0)
(0.000113581 -1.82347e-07 0)
(0.000114413 -4.54306e-07 0)
(0.000116315 -8.44583e-07 0)
(0.000118171 -4.37617e-07 0)
(0.000118842 -1.0875e-07 0)
(0.000117318 8.80999e-07 0)
(0.000116379 -5.33965e-07 0)
(0.000120104 -2.01201e-06 0)
(0.000123871 -6.6565e-07 0)
(0.000124802 -4.1414e-07 0)
(0.000125171 -3.92336e-07 0)
(0.000112585 6.54945e-06 0)
(8.20211e-05 -1.59765e-06 0)
(3.2097e-05 -4.99988e-09 0)
(4.03896e-12 -9.87003e-16 0)
(3.27097e-19 -9.87884e-16 0)
(2.0268e-19 -9.87882e-16 0)
(1.55538e-19 -9.87887e-16 0)
(1.2253e-19 -9.8789e-16 0)
(9.67368e-20 -9.87891e-16 0)
(7.52041e-20 -9.87892e-16 0)
(5.63456e-20 -9.87893e-16 0)
(3.92023e-20 -9.87893e-16 0)
(2.31297e-20 -9.87894e-16 0)
(7.64705e-21 -9.87894e-16 0)
(-7.6282e-21 -9.8789e-16 0)
(-2.30708e-20 -9.8789e-16 0)
(-3.90952e-20 -9.87889e-16 0)
(-5.61741e-20 -9.87889e-16 0)
(-7.49364e-20 -9.87888e-16 0)
(-9.63095e-20 -9.87886e-16 0)
(-1.21808e-19 -9.87883e-16 0)
(-1.54239e-19 -9.87878e-16 0)
(-2.00411e-19 -9.87868e-16 0)
(-2.9282e-19 -9.87847e-16 0)
(-2.64534e-19 -9.87605e-16 0)
(-1.43702e-19 -9.87595e-16 0)
(-5.12666e-08 -8.01233e-16 0)
(-5.56955e-05 4.53993e-06 0)
(-0.000114931 -2.66421e-07 0)
(-0.000119479 -4.79252e-07 0)
(-0.000120276 -9.76271e-07 0)
(-0.000116937 -3.56806e-06 0)
(-0.000113191 -8.76051e-07 0)
(-0.000114709 1.68373e-06 0)
(-0.000116616 -2.04953e-07 0)
(-0.000115974 -7.3349e-07 0)
(-0.000114122 -1.4907e-06 0)
(-0.000112213 -7.66483e-07 0)
(-0.000111526 -2.85169e-07 0)
(-0.000111059 -4.66688e-07 0)
(-0.000110322 -5.16959e-07 0)
(-0.00010943 -6.51253e-07 0)
(-0.000108135 -9.4042e-07 0)
(-0.00010644 -1.12754e-06 0)
(-0.000104011 -1.86623e-06 0)
(-9.93164e-05 -3.72175e-06 0)
(-9.39017e-05 -5.93012e-06 0)
(-8.87008e-05 -7.77958e-06 0)
(-8.18037e-05 -1.02325e-05 0)
(-7.26758e-05 -1.32716e-05 0)
(-6.08644e-05 -1.66726e-05 0)
(-4.61984e-05 -1.99939e-05 0)
(-2.89463e-05 -2.2679e-05 0)
(-9.86902e-06 -2.419e-05 0)
(9.86902e-06 -2.419e-05 0)
(2.89463e-05 -2.2679e-05 0)
(4.61984e-05 -1.99939e-05 0)
(6.08644e-05 -1.66726e-05 0)
(7.26758e-05 -1.32716e-05 0)
(8.18037e-05 -1.02325e-05 0)
(8.87008e-05 -7.77958e-06 0)
(9.39017e-05 -5.93012e-06 0)
(9.93164e-05 -3.72175e-06 0)
(0.000104011 -1.86623e-06 0)
(0.00010644 -1.12754e-06 0)
(0.000108135 -9.4042e-07 0)
(0.00010943 -6.51253e-07 0)
(0.000110322 -5.16959e-07 0)
(0.000111059 -4.66688e-07 0)
(0.000111526 -2.85169e-07 0)
(0.000112213 -7.66483e-07 0)
(0.000114122 -1.4907e-06 0)
(0.000115974 -7.3349e-07 0)
(0.000116616 -2.04953e-07 0)
(0.000114709 1.68373e-06 0)
(0.000113191 -8.76051e-07 0)
(0.000116937 -3.56806e-06 0)
(0.000120276 -9.76271e-07 0)
(0.000119479 -4.79252e-07 0)
(0.000114931 -2.66421e-07 0)
(5.56955e-05 4.53993e-06 0)
(5.12666e-08 -8.01233e-16 0)
(1.43702e-19 -9.87595e-16 0)
(2.64534e-19 -9.87605e-16 0)
(2.9282e-19 -9.87847e-16 0)
(2.00411e-19 -9.87868e-16 0)
(1.54239e-19 -9.87878e-16 0)
(1.21808e-19 -9.87883e-16 0)
(9.63095e-20 -9.87886e-16 0)
(7.49364e-20 -9.87888e-16 0)
(5.61741e-20 -9.87889e-16 0)
(3.90952e-20 -9.87889e-16 0)
(2.30708e-20 -9.8789e-16 0)
(7.6282e-21 -9.8789e-16 0)
(-7.59587e-21 -9.87886e-16 0)
(-2.29697e-20 -9.87886e-16 0)
(-3.89118e-20 -9.87885e-16 0)
(-5.58804e-20 -9.87884e-16 0)
(-7.44791e-20 -9.87883e-16 0)
(-9.55822e-20 -9.8788e-16 0)
(-1.20582e-19 -9.87876e-16 0)
(-1.51954e-19 -9.87869e-16 0)
(-1.95023e-19 -9.87855e-16 0)
(-2.62793e-19 -9.8782e-16 0)
(-2.42062e-19 -9.87644e-16 0)
(-1.56816e-19 -9.87662e-16 0)
(-2.48859e-19 -9.8776e-16 0)
(-1.276e-19 -9.83947e-16 0)
(-1.09153e-05 -2.84286e-12 0)
(-6.49156e-05 -2.16765e-07 0)
(-0.000111849 -5.42673e-07 0)
(-0.000112602 -5.38917e-06 0)
(-0.00010938 -1.14974e-06 0)
(-0.000112129 2.8722e-06 0)
(-0.000114755 -3.66443e-07 0)
(-0.000114112 -1.01768e-06 0)
(-0.000112208 -2.2687e-06 0)
(-0.000110213 -1.07708e-06 0)
(-0.000109745 -3.45716e-07 0)
(-0.000109417 -6.79214e-07 0)
(-0.00010872 -7.36691e-07 0)
(-0.000107909 -9.27885e-07 0)
(-0.000106665 -1.37134e-06 0)
(-0.000105082 -1.58946e-06 0)
(-0.000102965 -2.61754e-06 0)
(-9.87039e-05 -5.31049e-06 0)
(-9.37251e-05 -8.41676e-06 0)
(-8.89852e-05 -1.10612e-05 0)
(-8.26088e-05 -1.46395e-05 0)
(-7.39488e-05 -1.91583e-05 0)
(-6.24063e-05 -2.42953e-05 0)
(-4.76932e-05 -2.93646e-05 0)
(-3.00386e-05 -3.34997e-05 0)
(-1.02703e-05 -3.58404e-05 0)
(1.02703e-05 -3.58404e-05 0)
(3.00386e-05 -3.34997e-05 0)
(4.76932e-05 -2.93646e-05 0)
(6.24063e-05 -2.42953e-05 0)
(7.39488e-05 -1.91583e-05 0)
(8.26088e-05 -1.46395e-05 0)
(8.89852e-05 -1.10612e-05 0)
(9.37251e-05 -8.41676e-06 0)
(9.87039e-05 -5.31049e-06 0)
(0.000102965 -2.61754e-06 0)
(0.000105082 -1.58946e-06 0)
(0.000106665 -1.37134e-06 0)
(0.000107909 -9.27885e-07 0)
(0.00010872 -7.36691e-07 0)
(0.000109417 -6.79214e-07 0)
(0.000109745 -3.45716e-07 0)
(0.000110213 -1.07708e-06 0)
(0.000112208 -2.2687e-06 0)
(0.000114112 -1.01768e-06 0)
(0.000114755 -3.66443e-07 0)
(0.000112129 2.8722e-06 0)
(0.00010938 -1.14974e-06 0)
(0.000112602 -5.38917e-06 0)
(0.000111849 -5.42673e-07 0)
(6.49156e-05 -2.16765e-07 0)
(1.09153e-05 -2.84286e-12 0)
(1.276e-19 -9.83947e-16 0)
(2.48859e-19 -9.8776e-16 0)
(1.56816e-19 -9.87662e-16 0)
(2.42062e-19 -9.87644e-16 0)
(2.62793e-19 -9.8782e-16 0)
(1.95023e-19 -9.87855e-16 0)
(1.51954e-19 -9.87869e-16 0)
(1.20582e-19 -9.87876e-16 0)
(9.55822e-20 -9.8788e-16 0)
(7.44791e-20 -9.87883e-16 0)
(5.58804e-20 -9.87884e-16 0)
(3.89118e-20 -9.87885e-16 0)
(2.29697e-20 -9.87886e-16 0)
(7.59587e-21 -9.87886e-16 0)
(-7.54666e-21 -9.87882e-16 0)
(-2.28159e-20 -9.87882e-16 0)
(-3.86331e-20 -9.87881e-16 0)
(-5.54353e-20 -9.87879e-16 0)
(-7.37885e-20 -9.87877e-16 0)
(-9.44907e-20 -9.87874e-16 0)
(-1.18756e-19 -9.87868e-16 0)
(-1.48565e-19 -9.87859e-16 0)
(-1.87251e-19 -9.87842e-16 0)
(-2.36533e-19 -9.87801e-16 0)
(-2.22279e-19 -9.87673e-16 0)
(-1.66376e-19 -9.87672e-16 0)
(-2.12429e-19 -9.87711e-16 0)
(-1.23738e-19 -9.87453e-16 0)
(-4.92931e-20 -9.87684e-16 0)
(-4.56346e-20 -8.87729e-16 0)
(-1.83937e-05 -2.29113e-10 0)
(-6.62084e-05 -3.18425e-06 0)
(-9.93359e-05 -6.28828e-07 0)
(-0.000107995 4.88672e-06 0)
(-0.00011261 -6.45851e-07 0)
(-0.00011219 -1.22783e-06 0)
(-0.000110298 -3.26829e-06 0)
(-0.000108159 -1.35786e-06 0)
(-0.00010807 -3.16412e-07 0)
(-0.000107946 -9.21895e-07 0)
(-0.000107279 -9.57742e-07 0)
(-0.000106583 -1.20319e-06 0)
(-0.000105383 -1.85221e-06 0)
(-0.000103932 -2.02513e-06 0)
(-0.000102266 -3.30208e-06 0)
(-9.85928e-05 -6.90848e-06 0)
(-9.4202e-05 -1.08255e-05 0)
(-9.01466e-05 -1.4253e-05 0)
(-8.45626e-05 -1.90469e-05 0)
(-7.66139e-05 -2.52931e-05 0)
(-6.5442e-05 -3.25756e-05 0)
(-5.05532e-05 -3.9873e-05 0)
(-3.21025e-05 -4.59129e-05 0)
(-1.10249e-05 -4.93632e-05 0)
(1.10249e-05 -4.93632e-05 0)
(3.21025e-05 -4.59129e-05 0)
(5.05532e-05 -3.9873e-05 0)
(6.5442e-05 -3.25756e-05 0)
(7.66139e-05 -2.52931e-05 0)
(8.45626e-05 -1.90469e-05 0)
(9.01466e-05 -1.4253e-05 0)
(9.4202e-05 -1.08255e-05 0)
(9.85928e-05 -6.90848e-06 0)
(0.000102266 -3.30208e-06 0)
(0.000103932 -2.02513e-06 0)
(0.000105383 -1.85221e-06 0)
(0.000106583 -1.20319e-06 0)
(0.000107279 -9.57742e-07 0)
(0.000107946 -9.21895e-07 0)
(0.00010807 -3.16412e-07 0)
(0.000108159 -1.35786e-06 0)
(0.000110298 -3.26829e-06 0)
(0.00011219 -1.22783e-06 0)
(0.00011261 -6.45851e-07 0)
(0.000107995 4.88672e-06 0)
(9.93359e-05 -6.28828e-07 0)
(6.62084e-05 -3.18425e-06 0)
(1.83937e-05 -2.29113e-10 0)
(4.56346e-20 -8.87729e-16 0)
(4.92931e-20 -9.87684e-16 0)
(1.23738e-19 -9.87453e-16 0)
(2.12429e-19 -9.87711e-16 0)
(1.66376e-19 -9.87672e-16 0)
(2.22279e-19 -9.87673e-16 0)
(2.36533e-19 -9.87801e-16 0)
(1.87251e-19 -9.87842e-16 0)
(1.48565e-19 -9.87859e-16 0)
(1.18756e-19 -9.87868e-16 0)
(9.44907e-20 -9.87874e-16 0)
(7.37885e-20 -9.87877e-16 0)
(5.54353e-20 -9.87879e-16 0)
(3.86331e-20 -9.87881e-16 0)
(2.28159e-20 -9.87882e-16 0)
(7.54666e-21 -9.87882e-16 0)
(-7.47673e-21 -9.87877e-16 0)
(-2.25976e-20 -9.87877e-16 0)
(-3.8238e-20 -9.87876e-16 0)
(-5.48064e-20 -9.87874e-16 0)
(-7.2818e-20 -9.87871e-16 0)
(-9.29702e-20 -9.87867e-16 0)
(-1.1625e-19 -9.8786e-16 0)
(-1.44042e-19 -9.87849e-16 0)
(-1.77764e-19 -9.87829e-16 0)
(-2.13495e-19 -9.87787e-16 0)
(-2.0436e-19 -9.87694e-16 0)
(-1.6761e-19 -9.8768e-16 0)
(-1.84697e-19 -9.87685e-16 0)
(-1.19426e-19 -9.87527e-16 0)
(-5.89141e-20 -9.87655e-16 0)
(-3.85135e-20 -9.87576e-16 0)
(1.22992e-20 -9.87638e-16 0)
(-3.60015e-18 -8.63569e-16 0)
(-4.24207e-06 -7.18263e-14 0)
(-5.41846e-05 3.0897e-06 0)
(-0.000102911 -4.10696e-07 0)
(-0.000107677 -9.65709e-07 0)
(-0.00010742 -4.57698e-06 0)
(-0.000105509 -1.51259e-06 0)
(-0.000106262 -9.651e-08 0)
(-0.000106515 -1.21749e-06 0)
(-0.000105886 -1.16465e-06 0)
(-0.000105383 -1.45563e-06 0)
(-0.000104219 -2.41272e-06 0)
(-0.000102911 -2.3921e-06 0)
(-0.000101894 -3.82761e-06 0)
(-9.89741e-05 -8.4759e-06 0)
(-9.53278e-05 -1.2963e-05 0)
(-9.22835e-05 -1.70762e-05 0)
(-8.79298e-05 -2.31463e-05 0)
(-8.11293e-05 -3.14575e-05 0)
(-7.05635e-05 -4.1542e-05 0)
(-5.53843e-05 -5.18471e-05 0)
(-3.56065e-05 -6.05758e-05 0)
(-1.23101e-05 -6.56309e-05 0)
(1.23101e-05 -6.56309e-05 0)
(3.56065e-05 -6.05758e-05 0)
(5.53843e-05 -5.18471e-05 0)
(7.05635e-05 -4.1542e-05 0)
(8.11293e-05 -3.14575e-05 0)
(8.79298e-05 -2.31463e-05 0)
(9.22835e-05 -1.70762e-05 0)
(9.53278e-05 -1.2963e-05 0)
(9.89741e-05 -8.4759e-06 0)
(0.000101894 -3.82761e-06 0)
(0.000102911 -2.3921e-06 0)
(0.000104219 -2.41272e-06 0)
(0.000105383 -1.45563e-06 0)
(0.000105886 -1.16465e-06 0)
(0.000106515 -1.21749e-06 0)
(0.000106262 -9.651e-08 0)
(0.000105509 -1.51259e-06 0)
(0.00010742 -4.57698e-06 0)
(0.000107677 -9.65709e-07 0)
(0.000102911 -4.10696e-07 0)
(5.41846e-05 3.0897e-06 0)
(4.24207e-06 -7.18263e-14 0)
(3.60015e-18 -8.63569e-16 0)
(-1.22992e-20 -9.87638e-16 0)
(3.85135e-20 -9.87576e-16 0)
(5.89141e-20 -9.87655e-16 0)
(1.19426e-19 -9.87527e-16 0)
(1.84697e-19 -9.87685e-16 0)
(1.6761e-19 -9.8768e-16 0)
(2.0436e-19 -9.87694e-16 0)
(2.13495e-19 -9.87787e-16 0)
(1.77764e-19 -9.87829e-16 0)
(1.44042e-19 -9.87849e-16 0)
(1.1625e-19 -9.8786e-16 0)
(9.29702e-20 -9.87867e-16 0)
(7.2818e-20 -9.87871e-16 0)
(5.48064e-20 -9.87874e-16 0)
(3.8238e-20 -9.87876e-16 0)
(2.25976e-20 -9.87877e-16 0)
(7.47673e-21 -9.87877e-16 0)
(-7.38176e-21 -9.87872e-16 0)
(-2.23014e-20 -9.87872e-16 0)
(-3.77035e-20 -9.8787e-16 0)
(-5.3959e-20 -9.87868e-16 0)
(-7.15199e-20 -9.87865e-16 0)
(-9.09611e-20 -9.8786e-16 0)
(-1.13009e-19 -9.87852e-16 0)
(-1.38434e-19 -9.8784e-16 0)
(-1.6714e-19 -9.87818e-16 0)
(-1.93124e-19 -9.87778e-16 0)
(-1.87721e-19 -9.87708e-16 0)
(-1.63086e-19 -9.87686e-16 0)
(-1.6327e-19 -9.87673e-16 0)
(-1.14177e-19 -9.87577e-16 0)
(-6.50884e-20 -9.87642e-16 0)
(-4.03754e-20 -9.87605e-16 0)
(-6.15155e-21 -9.87656e-16 0)
(-2.15703e-20 -9.87696e-16 0)
(-1.2585e-19 -9.87738e-16 0)
(-3.32844e-21 -9.40758e-16 0)
(-3.04136e-09 -7.33382e-16 0)
(-3.66121e-05 -3.14727e-07 0)
(-8.37678e-05 -2.65839e-06 0)
(-9.74076e-05 -7.69797e-07 0)
(-0.000102622 6.69556e-07 0)
(-0.000104442 -1.56372e-06 0)
(-0.000104171 -1.29625e-06 0)
(-0.000104154 -1.62578e-06 0)
(-0.000103062 -3.11503e-06 0)
(-0.000101902 -2.61985e-06 0)
(-0.000101848 -4.03677e-06 0)
(-9.98256e-05 -1.00083e-05 0)
(-9.70238e-05 -1.45244e-05 0)
(-9.54701e-05 -1.90402e-05 0)
(-9.3071e-05 -2.63309e-05 0)
(-8.82322e-05 -3.71402e-05 0)
(-7.87751e-05 -5.11379e-05 0)
(-6.32499e-05 -6.57118e-05 0)
(-4.14063e-05 -7.85423e-05 0)
(-1.44548e-05 -8.6118e-05 0)
(1.44548e-05 -8.6118e-05 0)
(4.14063e-05 -7.85423e-05 0)
(6.32499e-05 -6.57118e-05 0)
(7.87751e-05 -5.11379e-05 0)
(8.82322e-05 -3.71402e-05 0)
(9.3071e-05 -2.63309e-05 0)
(9.54701e-05 -1.90402e-05 0)
(9.70238e-05 -1.45244e-05 0)
(9.98256e-05 -1.00083e-05 0)
(0.000101848 -4.03677e-06 0)
(0.000101902 -2.61985e-06 0)
(0.000103062 -3.11503e-06 0)
(0.000104154 -1.62578e-06 0)
(0.000104171 -1.29625e-06 0)
(0.000104442 -1.56372e-06 0)
(0.000102622 6.69556e-07 0)
(9.74076e-05 -7.69797e-07 0)
(8.37678e-05 -2.65839e-06 0)
(3.66121e-05 -3.14727e-07 0)
(3.04136e-09 -7.33382e-16 0)
(3.32844e-21 -9.40758e-16 0)
(1.2585e-19 -9.87738e-16 0)
(2.15703e-20 -9.87696e-16 0)
(6.15155e-21 -9.87656e-16 0)
(4.03754e-20 -9.87605e-16 0)
(6.50884e-20 -9.87642e-16 0)
(1.14177e-19 -9.87577e-16 0)
(1.6327e-19 -9.87673e-16 0)
(1.63086e-19 -9.87686e-16 0)
(1.87721e-19 -9.87708e-16 0)
(1.93124e-19 -9.87778e-16 0)
(1.6714e-19 -9.87818e-16 0)
(1.38434e-19 -9.8784e-16 0)
(1.13009e-19 -9.87852e-16 0)
(9.09611e-20 -9.8786e-16 0)
(7.15199e-20 -9.87865e-16 0)
(5.3959e-20 -9.87868e-16 0)
(3.77035e-20 -9.8787e-16 0)
(2.23014e-20 -9.87872e-16 0)
(7.38176e-21 -9.87872e-16 0)
(-7.25709e-21 -9.87867e-16 0)
(-2.19131e-20 -9.87866e-16 0)
(-3.70051e-20 -9.87865e-16 0)
(-5.28582e-20 -9.87862e-16 0)
(-6.98492e-20 -9.87858e-16 0)
(-8.84151e-20 -9.87852e-16 0)
(-1.09011e-19 -9.87844e-16 0)
(-1.31853e-19 -9.8783e-16 0)
(-1.55845e-19 -9.87808e-16 0)
(-1.74903e-19 -9.87771e-16 0)
(-1.71995e-19 -9.87718e-16 0)
(-1.54866e-19 -9.87692e-16 0)
(-1.46239e-19 -9.87671e-16 0)
(-1.08419e-19 -9.87611e-16 0)
(-6.86595e-20 -9.8764e-16 0)
(-4.36666e-20 -9.87625e-16 0)
(-1.98698e-20 -9.87657e-16 0)
(-3.0984e-20 -9.87685e-16 0)
(-8.38228e-20 -9.87692e-16 0)
(-1.06098e-20 -9.87508e-16 0)
(2.56943e-20 -9.87717e-16 0)
(7.1524e-20 -9.86831e-16 0)
(9.84363e-20 -8.30391e-16 0)
(-1.87925e-07 -8.7921e-16 0)
(-4.3516e-05 6.30318e-07 0)
(-9.08587e-05 -8.72627e-07 0)
(-9.74891e-05 -6.65391e-07 0)
(-0.000101108 -1.36675e-06 0)
(-0.000101154 -4.02724e-06 0)
(-0.000100462 -2.5567e-06 0)
(-0.000102051 -3.62925e-06 0)
(-0.000101018 -1.16396e-05 0)
(-9.89594e-05 -1.50429e-05 0)
(-9.95997e-05 -1.92929e-05 0)
(-0.000100384 -2.73952e-05 0)
(-9.91178e-05 -4.11259e-05 0)
(-9.18168e-05 -6.11508e-05 0)
(-7.60654e-05 -8.1911e-05 0)
(-5.11505e-05 -0.000101591 0)
(-1.8104e-05 -0.000113488 0)
(1.8104e-05 -0.000113488 0)
(5.11505e-05 -0.000101591 0)
(7.60654e-05 -8.1911e-05 0)
(9.18168e-05 -6.11508e-05 0)
(9.91178e-05 -4.11259e-05 0)
(0.000100384 -2.73952e-05 0)
(9.95997e-05 -1.92929e-05 0)
(9.89594e-05 -1.50429e-05 0)
(0.000101018 -1.16396e-05 0)
(0.000102051 -3.62925e-06 0)
(0.000100462 -2.5567e-06 0)
(0.000101154 -4.02724e-06 0)
(0.000101108 -1.36675e-06 0)
(9.74891e-05 -6.65391e-07 0)
(9.08587e-05 -8.72627e-07 0)
(4.3516e-05 6.30318e-07 0)
(1.87925e-07 -8.7921e-16 0)
(-9.84363e-20 -8.30391e-16 0)
(-7.1524e-20 -9.86831e-16 0)
(-2.56943e-20 -9.87717e-16 0)
(1.06098e-20 -9.87508e-16 0)
(8.38228e-20 -9.87692e-16 0)
(3.0984e-20 -9.87685e-16 0)
(1.98698e-20 -9.87657e-16 0)
(4.36666e-20 -9.87625e-16 0)
(6.86595e-20 -9.8764e-16 0)
(1.08419e-19 -9.87611e-16 0)
(1.46239e-19 -9.87671e-16 0)
(1.54866e-19 -9.87692e-16 0)
(1.71995e-19 -9.87718e-16 0)
(1.74903e-19 -9.87771e-16 0)
(1.55845e-19 -9.87808e-16 0)
(1.31853e-19 -9.8783e-16 0)
(1.09011e-19 -9.87844e-16 0)
(8.84151e-20 -9.87852e-16 0)
(6.98492e-20 -9.87858e-16 0)
(5.28582e-20 -9.87862e-16 0)
(3.70051e-20 -9.87865e-16 0)
(2.19131e-20 -9.87866e-16 0)
(7.25709e-21 -9.87867e-16 0)
(-7.09793e-21 -9.87861e-16 0)
(-2.14184e-20 -9.8786e-16 0)
(-3.61188e-20 -9.87858e-16 0)
(-5.14711e-20 -9.87856e-16 0)
(-6.77679e-20 -9.87851e-16 0)
(-8.5302e-20 -9.87845e-16 0)
(-1.04271e-19 -9.87835e-16 0)
(-1.24452e-19 -9.87821e-16 0)
(-1.44235e-19 -9.87799e-16 0)
(-1.58387e-19 -9.87766e-16 0)
(-1.56994e-19 -9.87725e-16 0)
(-1.44507e-19 -9.87697e-16 0)
(-1.3217e-19 -9.87674e-16 0)
(-1.02411e-19 -9.87636e-16 0)
(-7.02435e-20 -9.87645e-16 0)
(-4.70875e-20 -9.8764e-16 0)
(-2.94012e-20 -9.8766e-16 0)
(-3.47177e-20 -9.87677e-16 0)
(-5.76397e-20 -9.8767e-16 0)
(-1.27658e-20 -9.87577e-16 0)
(2.00316e-20 -9.87676e-16 0)
(5.19888e-20 -9.87604e-16 0)
(5.54912e-20 -9.8776e-16 0)
(-7.3687e-20 -9.87759e-16 0)
(5.00044e-20 -9.82036e-16 0)
(1.40117e-19 -8.20329e-16 0)
(-3.09614e-08 -6.97595e-16 0)
(-3.67663e-05 -5.27151e-07 0)
(-8.10497e-05 -2.27119e-06 0)
(-9.22193e-05 -1.21279e-06 0)
(-9.9965e-05 -1.61803e-06 0)
(-0.000101243 -1.38207e-05 0)
(-9.97236e-05 -1.37233e-05 0)
(-0.000103737 -1.63541e-05 0)
(-0.000109876 -2.38955e-05 0)
(-0.000115753 -4.02187e-05 0)
(-0.000112763 -7.14109e-05 0)
(-9.73525e-05 -0.000100283 0)
(-6.8277e-05 -0.000132946 0)
(-2.46145e-05 -0.000152937 0)
(2.46145e-05 -0.000152937 0)
(6.8277e-05 -0.000132946 0)
(9.73525e-05 -0.000100283 0)
(0.000112763 -7.14109e-05 0)
(0.000115753 -4.02187e-05 0)
(0.000109876 -2.38955e-05 0)
(0.000103737 -1.63541e-05 0)
(9.97236e-05 -1.37233e-05 0)
(0.000101243 -1.38207e-05 0)
(9.9965e-05 -1.61803e-06 0)
(9.22193e-05 -1.21279e-06 0)
(8.10497e-05 -2.27119e-06 0)
(3.67663e-05 -5.27151e-07 0)
(3.09614e-08 -6.97595e-16 0)
(-1.40117e-19 -8.20329e-16 0)
(-5.00044e-20 -9.82036e-16 0)
(7.3687e-20 -9.87759e-16 0)
(-5.54912e-20 -9.8776e-16 0)
(-5.19888e-20 -9.87604e-16 0)
(-2.00316e-20 -9.87676e-16 0)
(1.27658e-20 -9.87577e-16 0)
(5.76397e-20 -9.8767e-16 0)
(3.47177e-20 -9.87677e-16 0)
(2.94012e-20 -9.8766e-16 0)
(4.70875e-20 -9.8764e-16 0)
(7.02435e-20 -9.87645e-16 0)
(1.02411e-19 -9.87636e-16 0)
(1.3217e-19 -9.87674e-16 0)
(1.44507e-19 -9.87697e-16 0)
(1.56994e-19 -9.87725e-16 0)
(1.58387e-19 -9.87766e-16 0)
(1.44235e-19 -9.87799e-16 0)
(1.24452e-19 -9.87821e-16 0)
(1.04271e-19 -9.87835e-16 0)
(8.5302e-20 -9.87845e-16 0)
(6.77679e-20 -9.87851e-16 0)
(5.14711e-20 -9.87856e-16 0)
(3.61188e-20 -9.87858e-16 0)
(2.14184e-20 -9.8786e-16 0)
(7.09793e-21 -9.87861e-16 0)
(-6.89969e-21 -9.87855e-16 0)
(-2.08036e-20 -9.87854e-16 0)
(-3.50227e-20 -9.87852e-16 0)
(-4.97701e-20 -9.87849e-16 0)
(-6.52499e-20 -9.87844e-16 0)
(-8.16147e-20 -9.87837e-16 0)
(-9.88417e-20 -9.87827e-16 0)
(-1.1641e-19 -9.87813e-16 0)
(-1.32572e-19 -9.87792e-16 0)
(-1.43226e-19 -9.87763e-16 0)
(-1.42648e-19 -9.87729e-16 0)
(-1.33116e-19 -9.87703e-16 0)
(-1.20051e-19 -9.8768e-16 0)
(-9.62784e-20 -9.87653e-16 0)
(-7.02683e-20 -9.87653e-16 0)
(-4.98001e-20 -9.87651e-16 0)
(-3.54836e-20 -9.87662e-16 0)
(-3.54669e-20 -9.87672e-16 0)
(-4.18062e-20 -9.87663e-16 0)
(-1.28354e-20 -9.87617e-16 0)
(1.39802e-20 -9.87662e-16 0)
(3.59699e-20 -9.87642e-16 0)
(3.35813e-20 -9.87722e-16 0)
(-2.57124e-20 -9.87714e-16 0)
(3.89532e-20 -9.87565e-16 0)
(8.23463e-20 -9.87753e-16 0)
(-2.46336e-20 -9.87754e-16 0)
(7.6329e-20 -9.85625e-16 0)
(1.50294e-19 -8.54824e-16 0)
(-6.65553e-12 -7.18968e-16 0)
(-1.62906e-05 -7.4287e-09 0)
(-5.50251e-05 -7.56566e-06 0)
(-8.38682e-05 -6.23778e-06 0)
(-9.71484e-05 -6.92597e-06 0)
(-0.000114026 -1.02972e-05 0)
(-0.000138217 -2.31918e-05 0)
(-0.000145192 -8.42794e-05 0)
(-0.000132583 -0.000115639 0)
(-0.000100575 -0.000179234 0)
(-3.69795e-05 -0.000215446 0)
(3.69795e-05 -0.000215446 0)
(0.000100575 -0.000179234 0)
(0.000132583 -0.000115639 0)
(0.000145192 -8.42794e-05 0)
(0.000138217 -2.31918e-05 0)
(0.000114026 -1.02972e-05 0)
(9.71484e-05 -6.92597e-06 0)
(8.38682e-05 -6.23778e-06 0)
(5.50251e-05 -7.56566e-06 0)
(1.62906e-05 -7.4287e-09 0)
(6.65553e-12 -7.18968e-16 0)
(-1.50294e-19 -8.54824e-16 0)
(-7.6329e-20 -9.85625e-16 0)
(2.46336e-20 -9.87754e-16 0)
(-8.23463e-20 -9.87753e-16 0)
(-3.89532e-20 -9.87565e-16 0)
(2.57124e-20 -9.87714e-16 0)
(-3.35813e-20 -9.87722e-16 0)
(-3.59699e-20 -9.87642e-16 0)
(-1.39802e-20 -9.87662e-16 0)
(1.28354e-20 -9.87617e-16 0)
(4.18062e-20 -9.87663e-16 0)
(3.54669e-20 -9.87672e-16 0)
(3.54836e-20 -9.87662e-16 0)
(4.98001e-20 -9.87651e-16 0)
(7.02683e-20 -9.87653e-16 0)
(9.62784e-20 -9.87653e-16 0)
(1.20051e-19 -9.8768e-16 0)
(1.33116e-19 -9.87703e-16 0)
(1.42648e-19 -9.87729e-16 0)
(1.43226e-19 -9.87763e-16 0)
(1.32572e-19 -9.87792e-16 0)
(1.1641e-19 -9.87813e-16 0)
(9.88417e-20 -9.87827e-16 0)
(8.16147e-20 -9.87837e-16 0)
(6.52499e-20 -9.87844e-16 0)
(4.97701e-20 -9.87849e-16 0)
(3.50227e-20 -9.87852e-16 0)
(2.08036e-20 -9.87854e-16 0)
(6.89969e-21 -9.87855e-16 0)
(-6.65836e-21 -9.87848e-16 0)
(-2.00572e-20 -9.87847e-16 0)
(-3.36998e-20 -9.87845e-16 0)
(-4.7737e-20 -9.87842e-16 0)
(-6.22857e-20 -9.87836e-16 0)
(-7.73733e-20 -9.87829e-16 0)
(-9.28086e-20 -9.87819e-16 0)
(-1.07911e-19 -9.87805e-16 0)
(-1.21039e-19 -9.87785e-16 0)
(-1.29165e-19 -9.8776e-16 0)
(-1.28961e-19 -9.87732e-16 0)
(-1.21431e-19 -9.87708e-16 0)
(-1.09206e-19 -9.87687e-16 0)
(-9.00637e-20 -9.87667e-16 0)
(-6.90283e-20 -9.87662e-16 0)
(-5.13689e-20 -9.8766e-16 0)
(-3.88856e-20 -9.87666e-16 0)
(-3.48355e-20 -9.8767e-16 0)
(-3.25128e-20 -9.87663e-16 0)
(-1.24189e-20 -9.87641e-16 0)
(8.44623e-21 -9.87661e-16 0)
(2.39739e-20 -9.87661e-16 0)
(2.25606e-20 -9.87702e-16 0)
(-1.43446e-21 -9.87694e-16 0)
(3.16958e-20 -9.87632e-16 0)
(5.3357e-20 -9.87718e-16 0)
(1.18103e-20 -9.87718e-16 0)
(6.22038e-20 -9.87616e-16 0)
(9.58833e-20 -9.87767e-16 0)
(2.10886e-20 -9.87783e-16 0)
(3.94719e-20 -9.87611e-16 0)
(6.77941e-20 -9.19658e-16 0)
(5.23702e-21 -8.35619e-16 0)
(-1.12774e-19 -7.78658e-16 0)
(-3.21686e-08 -8.58556e-16 0)
(-1.63276e-05 -4.21299e-06 0)
(-7.38375e-05 -4.598e-05 0)
(-0.00015795 -7.23042e-05 0)
(-0.000160033 -0.000254364 0)
(-5.96253e-05 -0.000323138 0)
(5.96253e-05 -0.000323138 0)
(0.000160033 -0.000254364 0)
(0.00015795 -7.23042e-05 0)
(7.38375e-05 -4.598e-05 0)
(1.63276e-05 -4.21299e-06 0)
(3.21686e-08 -8.58556e-16 0)
(1.12774e-19 -7.78658e-16 0)
(-5.23702e-21 -8.35619e-16 0)
(-6.77941e-20 -9.19658e-16 0)
(-3.94719e-20 -9.87611e-16 0)
(-2.10886e-20 -9.87783e-16 0)
(-9.58833e-20 -9.87767e-16 0)
(-6.22038e-20 -9.87616e-16 0)
(-1.18103e-20 -9.87718e-16 0)
(-5.3357e-20 -9.87718e-16 0)
(-3.16958e-20 -9.87632e-16 0)
(1.43446e-21 -9.87694e-16 0)
(-2.25606e-20 -9.87702e-16 0)
(-2.39739e-20 -9.87661e-16 0)
(-8.44623e-21 -9.87661e-16 0)
(1.24189e-20 -9.87641e-16 0)
(3.25128e-20 -9.87663e-16 0)
(3.48355e-20 -9.8767e-16 0)
(3.88856e-20 -9.87666e-16 0)
(5.13689e-20 -9.8766e-16 0)
(6.90283e-20 -9.87662e-16 0)
(9.00637e-20 -9.87667e-16 0)
(1.09206e-19 -9.87687e-16 0)
(1.21431e-19 -9.87708e-16 0)
(1.28961e-19 -9.87732e-16 0)
(1.29165e-19 -9.8776e-16 0)
(1.21039e-19 -9.87785e-16 0)
(1.07911e-19 -9.87805e-16 0)
(9.28086e-20 -9.87819e-16 0)
(7.73733e-20 -9.87829e-16 0)
(6.22857e-20 -9.87836e-16 0)
(4.7737e-20 -9.87842e-16 0)
(3.36998e-20 -9.87845e-16 0)
(2.00572e-20 -9.87847e-16 0)
(6.65836e-21 -9.87848e-16 0)
(-6.37107e-21 -9.87841e-16 0)
(-1.91714e-20 -9.8784e-16 0)
(-3.21403e-20 -9.87838e-16 0)
(-4.53664e-20 -9.87834e-16 0)
(-5.88863e-20 -9.87829e-16 0)
(-7.26255e-20 -9.87821e-16 0)
(-8.62829e-20 -9.87811e-16 0)
(-9.91325e-20 -9.87797e-16 0)
(-1.09765e-19 -9.8778e-16 0)
(-1.16034e-19 -9.87758e-16 0)
(-1.15964e-19 -9.87734e-16 0)
(-1.09904e-19 -9.87713e-16 0)
(-9.92131e-20 -9.87694e-16 0)
(-8.37681e-20 -9.87678e-16 0)
(-6.67397e-20 -9.87671e-16 0)
(-5.16659e-20 -9.87669e-16 0)
(-4.02973e-20 -9.8767e-16 0)
(-3.36677e-20 -9.87671e-16 0)
(-2.72076e-20 -9.87666e-16 0)
(-1.21743e-20 -9.87656e-16 0)
(3.84456e-21 -9.87666e-16 0)
(1.5476e-20 -9.87671e-16 0)
(1.6684e-20 -9.87691e-16 0)
(9.48157e-21 -9.87688e-16 0)
(2.68902e-20 -9.87665e-16 0)
(3.89466e-20 -9.87703e-16 0)
(2.64941e-20 -9.87705e-16 0)
(5.13083e-20 -9.87669e-16 0)
(6.60412e-20 -9.87739e-16 0)
(3.33029e-20 -9.87754e-16 0)
(3.60778e-20 -9.87714e-16 0)
(3.95545e-20 -9.87767e-16 0)
(8.40827e-21 -9.87781e-16 0)
(-1.67024e-20 -9.87766e-16 0)
(-1.64753e-20 -9.87718e-16 0)
(2.50125e-20 -9.86771e-16 0)
(-3.91212e-09 -3.81799e-15 0)
(-7.75194e-06 -1.4722e-05 0)
(-4.71279e-05 -0.000262128 0)
(-3.93799e-05 -0.000441921 0)
(3.93799e-05 -0.000441921 0)
(4.71279e-05 -0.000262128 0)
(7.75194e-06 -1.4722e-05 0)
(3.91212e-09 -3.81799e-15 0)
(-2.50125e-20 -9.86771e-16 0)
(1.64753e-20 -9.87718e-16 0)
(1.67024e-20 -9.87766e-16 0)
(-8.40827e-21 -9.87781e-16 0)
(-3.95545e-20 -9.87767e-16 0)
(-3.60778e-20 -9.87714e-16 0)
(-3.33029e-20 -9.87754e-16 0)
(-6.60412e-20 -9.87739e-16 0)
(-5.13083e-20 -9.87669e-16 0)
(-2.64941e-20 -9.87705e-16 0)
(-3.89466e-20 -9.87703e-16 0)
(-2.68902e-20 -9.87665e-16 0)
(-9.48157e-21 -9.87688e-16 0)
(-1.6684e-20 -9.87691e-16 0)
(-1.5476e-20 -9.87671e-16 0)
(-3.84456e-21 -9.87666e-16 0)
(1.21743e-20 -9.87656e-16 0)
(2.72076e-20 -9.87666e-16 0)
(3.36677e-20 -9.87671e-16 0)
(4.02973e-20 -9.8767e-16 0)
(5.16659e-20 -9.87669e-16 0)
(6.67397e-20 -9.87671e-16 0)
(8.37681e-20 -9.87678e-16 0)
(9.92131e-20 -9.87694e-16 0)
(1.09904e-19 -9.87713e-16 0)
(1.15964e-19 -9.87734e-16 0)
(1.16034e-19 -9.87758e-16 0)
(1.09765e-19 -9.8778e-16 0)
(9.91325e-20 -9.87797e-16 0)
(8.62829e-20 -9.87811e-16 0)
(7.26255e-20 -9.87821e-16 0)
(5.88863e-20 -9.87829e-16 0)
(4.53664e-20 -9.87834e-16 0)
(3.21403e-20 -9.87838e-16 0)
(1.91714e-20 -9.8784e-16 0)
(6.37107e-21 -9.87841e-16 0)
(-6.03672e-21 -9.87834e-16 0)
(-1.81441e-20 -9.87833e-16 0)
(-3.03447e-20 -9.8783e-16 0)
(-4.2669e-20 -9.87827e-16 0)
(-5.50853e-20 -9.87821e-16 0)
(-6.74452e-20 -9.87814e-16 0)
(-7.93926e-20 -9.87804e-16 0)
(-9.02373e-20 -9.87791e-16 0)
(-9.88441e-20 -9.87775e-16 0)
(-1.03729e-19 -9.87756e-16 0)
(-1.0369e-19 -9.87736e-16 0)
(-9.87951e-20 -9.87717e-16 0)
(-8.98261e-20 -9.87701e-16 0)
(-7.73869e-20 -9.87688e-16 0)
(-6.35826e-20 -9.8768e-16 0)
(-5.07656e-20 -9.87676e-16 0)
(-4.02776e-20 -9.87676e-16 0)
(-3.23309e-20 -9.87675e-16 0)
(-2.42256e-20 -9.87671e-16 0)
(-1.22321e-20 -9.87667e-16 0)
(2.49099e-22 -9.87672e-16 0)
(9.60455e-21 -9.87677e-16 0)
(1.30214e-20 -9.87688e-16 0)
(1.33108e-20 -9.87688e-16 0)
(2.33904e-20 -9.87681e-16 0)
(3.12508e-20 -9.87698e-16 0)
(3.02681e-20 -9.87702e-16 0)
(4.26937e-20 -9.87694e-16 0)
(4.90179e-20 -9.87727e-16 0)
(3.49484e-20 -9.87739e-16 0)
(3.21228e-20 -9.87729e-16 0)
(2.79712e-20 -9.87752e-16 0)
(1.2911e-20 -9.87755e-16 0)
(3.91491e-21 -9.87748e-16 0)
(2.72328e-21 -9.87735e-16 0)
(8.97641e-21 -9.87729e-16 0)
(2.74158e-12 -1.64051e-15 0)
(-8.0778e-08 -5.92155e-06 0)
(-5.11104e-06 -0.00021567 0)
(-5.03026e-06 -0.000499073 0)
(5.03026e-06 -0.000499073 0)
(5.11104e-06 -0.00021567 0)