/*--------------------------------*- C++ -*----------------------------------*\
  =========                 |
  \\      /  F ield         | OpenFOAM: The Open Source CFD Toolbox
   \\    /   O peration     | Website:  https://openfoam.org
    \\  /    A nd           | Version:  10
     \\/     M anipulation  |
\*---------------------------------------------------------------------------*/
FoamFile
{
    format      ascii;
    class       surfaceScalarField;
    location    "19400";
    object      phi;
}
// * * * * * * * * * * * * * * * * * * * * * * * * * * * * * * * * * * * * * //

dimensions      [0 3 -1 0 0 0 0];

internalField   nonuniform List<scalar> 
12640
(
-4.38442e-08
4.38442e-08
-9.14304e-08
4.75862e-08
-1.48445e-07
5.7015e-08
-2.27472e-07
7.90261e-08
-3.62505e-07
1.35033e-07
-1.62272e-06
1.26021e-06
-2.63898e-06
1.01626e-06
-3.57606e-06
9.37085e-07
-3.54364e-06
-3.24204e-08
-3.43601e-06
-1.07628e-07
-3.38365e-06
-5.23613e-08
-3.21066e-06
-1.72991e-07
-3.16099e-06
-4.96678e-08
-3.14149e-06
-1.94998e-08
-3.12795e-06
-1.35461e-08
-3.18385e-06
5.59033e-08
-3.17171e-06
-1.21413e-08
-3.14731e-06
-2.43966e-08
-3.11332e-06
-3.39932e-08
-3.08224e-06
-3.10813e-08
-3.06106e-06
-2.11824e-08
-3.04441e-06
-1.66448e-08
-3.02294e-06
-2.14726e-08
-3.00056e-06
-2.23769e-08
-2.9726e-06
-2.79635e-08
-2.9328e-06
-3.98022e-08
-2.89982e-06
-3.29746e-08
-2.87189e-06
-2.79279e-08
-2.83755e-06
-3.43465e-08
-2.78309e-06
-5.44547e-08
-2.69246e-06
-9.06298e-08
-2.51712e-06
-1.75341e-07
-2.38327e-06
-1.33849e-07
-2.20629e-06
-1.76985e-07
-1.9778e-06
-2.28486e-07
-1.69093e-06
-2.86872e-07
-1.34228e-06
-3.48652e-07
-9.34861e-07
-4.07417e-07
-4.80541e-07
-4.54319e-07
1.34163e-17
-4.80541e-07
4.80541e-07
-4.80541e-07
9.34861e-07
-4.54319e-07
1.34228e-06
-4.07417e-07
1.69093e-06
-3.48652e-07
1.9778e-06
-2.86872e-07
2.20629e-06
-2.28486e-07
2.38327e-06
-1.76985e-07
2.51712e-06
-1.33849e-07
2.69246e-06
-1.75341e-07
2.78309e-06
-9.06298e-08
2.83755e-06
-5.44547e-08
2.87189e-06
-3.43465e-08
2.89982e-06
-2.79279e-08
2.9328e-06
-3.29746e-08
2.9726e-06
-3.98022e-08
3.00056e-06
-2.79635e-08
3.02294e-06
-2.23769e-08
3.04441e-06
-2.14726e-08
3.06106e-06
-1.66448e-08
3.08224e-06
-2.11824e-08
3.11332e-06
-3.10813e-08
3.14731e-06
-3.39932e-08
3.17171e-06
-2.43966e-08
3.18385e-06
-1.21413e-08
3.12795e-06
5.59033e-08
3.14149e-06
-1.35461e-08
3.16099e-06
-1.94998e-08
3.21066e-06
-4.96678e-08
3.38365e-06
-1.72991e-07
3.43601e-06
-5.23613e-08
3.54364e-06
-1.07628e-07
3.57606e-06
-3.24204e-08
2.63898e-06
9.37085e-07
1.62272e-06
1.01626e-06
3.62505e-07
1.26021e-06
2.27472e-07
1.35033e-07
1.48445e-07
7.90261e-08
9.14304e-08
5.7015e-08
4.38442e-08
4.75862e-08
4.38442e-08
-4.79116e-08
9.17558e-08
-9.98352e-08
9.95098e-08
-1.61773e-07
1.18953e-07
-2.46835e-07
1.64089e-07
-4.08444e-07
2.96642e-07
-3.07873e-07
1.15964e-06
-2.65196e-07
9.73586e-07
-3.45538e-06
4.12726e-06
-3.66025e-06
1.72456e-07
-3.60597e-06
-1.61911e-07
-3.58509e-06
-7.32429e-08
-3.40386e-06
-3.5422e-07
-3.36417e-06
-8.93547e-08
-3.3507e-06
-3.29708e-08
-3.3378e-06
-2.64499e-08
-3.40777e-06
1.25878e-07
-3.39514e-06
-2.47686e-08
-3.3714e-06
-4.81355e-08
-3.3365e-06
-6.88958e-08
-3.30466e-06
-6.29263e-08
-3.28376e-06
-4.20803e-08
-3.26771e-06
-3.26896e-08
-3.24568e-06
-4.35082e-08
-3.22293e-06
-4.51257e-08
-3.19412e-06
-5.67684e-08
-3.1513e-06
-8.26284e-08
-3.11668e-06
-6.75956e-08
-3.08785e-06
-5.67569e-08
-3.05215e-06
-7.00499e-08
-2.99485e-06
-1.11748e-07
-2.90009e-06
-1.85387e-07
-2.71603e-06
-3.59403e-07
-2.57423e-06
-2.75651e-07
-2.3859e-06
-3.65318e-07
-2.14177e-06
-4.72614e-07
-1.83396e-06
-5.94679e-07
-1.45814e-06
-7.24473e-07
-1.01698e-06
-8.48577e-07
-5.23257e-07
-9.48044e-07
2.11419e-17
-1.0038e-06
5.23257e-07
-1.0038e-06
1.01698e-06
-9.48044e-07
1.45814e-06
-8.48577e-07
1.83396e-06
-7.24473e-07
2.14177e-06
-5.94679e-07
2.3859e-06
-4.72614e-07
2.57423e-06
-3.65318e-07
2.71603e-06
-2.75651e-07
2.90009e-06
-3.59403e-07
2.99485e-06
-1.85387e-07
3.05215e-06
-1.11748e-07
3.08785e-06
-7.00499e-08
3.11668e-06
-5.67569e-08
3.1513e-06
-6.75956e-08
3.19412e-06
-8.26284e-08
3.22293e-06
-5.67684e-08
3.24568e-06
-4.51257e-08
3.26771e-06
-4.35082e-08
3.28376e-06
-3.26896e-08
3.30466e-06
-4.20803e-08
3.3365e-06
-6.29263e-08
3.3714e-06
-6.88958e-08
3.39514e-06
-4.81355e-08
3.40777e-06
-2.47686e-08
3.3378e-06
1.25878e-07
3.3507e-06
-2.64499e-08
3.36417e-06
-3.29708e-08
3.40386e-06
-8.93547e-08
3.58509e-06
-3.5422e-07
3.60597e-06
-7.32429e-08
3.66025e-06
-1.61911e-07
3.45538e-06
1.72456e-07
2.65196e-07
4.12726e-06
3.07873e-07
9.73586e-07
4.08444e-07
1.15964e-06
2.46835e-07
2.96642e-07
1.61773e-07
1.64089e-07
9.98352e-08
1.18953e-07
4.79116e-08
9.95098e-08
9.17558e-08
-5.21074e-08
1.43863e-07
-1.0839e-07
1.55793e-07
-1.74857e-07
1.85419e-07
-2.63159e-07
2.52391e-07
-3.98664e-07
4.32148e-07
-3.48343e-07
1.10932e-06
-6.0963e-07
1.23487e-06
1.4725e-07
3.37038e-06
-1.20045e-06
1.52015e-06
-3.54945e-06
2.18709e-06
-3.76754e-06
1.4485e-07
-3.59766e-06
-5.24099e-07
-3.58916e-06
-9.78579e-08
-3.58919e-06
-3.29434e-08
-3.57403e-06
-4.16082e-08
-3.67145e-06
2.23306e-07
-3.65418e-06
-4.20475e-08
-3.63126e-06
-7.10526e-08
-3.59435e-06
-1.05803e-07
-3.56101e-06
-9.62718e-08
-3.54066e-06
-6.24242e-08
-3.52581e-06
-4.75413e-08
-3.50262e-06
-6.66961e-08
-3.4796e-06
-6.81473e-08
-3.45015e-06
-8.62229e-08
-3.40229e-06
-1.30486e-07
-3.36577e-06
-1.04112e-07
-3.33656e-06
-8.5965e-08
-3.30009e-06
-1.06519e-07
-3.24042e-06
-1.71422e-07
-3.14407e-06
-2.81738e-07
-2.95604e-06
-5.47437e-07
-2.80812e-06
-4.23565e-07
-2.60967e-06
-5.6377e-07
-2.35006e-06
-7.32225e-07
-2.01957e-06
-9.25163e-07
-1.61172e-06
-1.13233e-06
-1.1278e-06
-1.3325e-06
-5.81581e-07
-1.49426e-06
1.42236e-17
-1.58538e-06
5.81581e-07
-1.58538e-06
1.1278e-06
-1.49426e-06
1.61172e-06
-1.3325e-06
2.01957e-06
-1.13233e-06
2.35006e-06
-9.25163e-07
2.60967e-06
-7.32225e-07
2.80812e-06
-5.6377e-07
2.95604e-06
-4.23565e-07
3.14407e-06
-5.47437e-07
3.24042e-06
-2.81738e-07
3.30009e-06
-1.71422e-07
3.33656e-06
-1.06519e-07
3.36577e-06
-8.5965e-08
3.40229e-06
-1.04112e-07
3.45015e-06
-1.30486e-07
3.4796e-06
-8.62229e-08
3.50262e-06
-6.81473e-08
3.52581e-06
-6.66961e-08
3.54066e-06
-4.75413e-08
3.56101e-06
-6.24242e-08
3.59435e-06
-9.62718e-08
3.63126e-06
-1.05803e-07
3.65418e-06
-7.10526e-08
3.67145e-06
-4.20475e-08
3.57403e-06
2.23306e-07
3.58919e-06
-4.16082e-08
3.58916e-06
-3.29434e-08
3.59766e-06
-9.78579e-08
3.76754e-06
-5.24099e-07
3.54945e-06
1.4485e-07
1.20045e-06
2.18709e-06
-1.4725e-07
1.52015e-06
6.0963e-07
3.37038e-06
3.48343e-07
1.23487e-06
3.98664e-07
1.10932e-06
2.63159e-07
4.32148e-07
1.74857e-07
2.52391e-07
1.0839e-07
1.85419e-07
5.21074e-08
1.55793e-07
1.43863e-07
-5.63324e-08
2.00196e-07
-1.16848e-07
2.16308e-07
-1.87182e-07
2.55752e-07
-2.76278e-07
3.41487e-07
-3.907e-07
5.46569e-07
-3.73438e-07
1.09206e-06
-5.21811e-07
1.38325e-06
4.14451e-08
2.80713e-06
-1.48064e-07
1.70966e-06
-5.48693e-08
2.0939e-06
-1.94101e-06
2.03099e-06
-3.5206e-06
1.05548e-06
-3.75979e-06
1.41334e-07
-3.82315e-06
3.04164e-08
-3.81175e-06
-5.30058e-08
-3.96547e-06
3.77028e-07
-3.93802e-06
-6.94988e-08
-3.91866e-06
-9.0409e-08
-3.87923e-06
-1.45235e-07
-3.8441e-06
-1.31401e-07
-3.8254e-06
-8.11235e-08
-3.81326e-06
-5.96881e-08
-3.78824e-06
-9.17084e-08
-3.76555e-06
-9.08462e-08
-3.73637e-06
-1.15402e-07
-3.68047e-06
-1.86381e-07
-3.64216e-06
-1.42423e-07
-3.61376e-06
-1.14369e-07
-3.57779e-06
-1.42491e-07
-3.51667e-06
-2.32539e-07
-3.42328e-06
-3.75131e-07
-3.2401e-06
-7.30614e-07
-3.09009e-06
-5.73575e-07
-2.88494e-06
-7.68922e-07
-2.61221e-06
-1.00495e-06
-2.25916e-06
-1.27822e-06
-1.81496e-06
-1.57653e-06
-1.27752e-06
-1.86993e-06
-6.61442e-07
-2.11034e-06
-2.63531e-17
-2.24682e-06
6.61442e-07
-2.24682e-06
1.27752e-06
-2.11034e-06
1.81496e-06
-1.86993e-06
2.25916e-06
-1.57653e-06
2.61221e-06
-1.27822e-06
2.88494e-06
-1.00495e-06
3.09009e-06
-7.68922e-07
3.2401e-06
-5.73575e-07
3.42328e-06
-7.30614e-07
3.51667e-06
-3.75131e-07
3.57779e-06
-2.32539e-07
3.61376e-06
-1.42491e-07
3.64216e-06
-1.14369e-07
3.68047e-06
-1.42423e-07
3.73637e-06
-1.86381e-07
3.76555e-06
-1.15402e-07
3.78824e-06
-9.08462e-08
3.81326e-06
-9.17084e-08
3.8254e-06
-5.96881e-08
3.8441e-06
-8.11235e-08
3.87923e-06
-1.31401e-07
3.91866e-06
-1.45235e-07
3.93802e-06
-9.0409e-08
3.96547e-06
-6.94988e-08
3.81175e-06
3.77028e-07
3.82315e-06
-5.30058e-08
3.75979e-06
3.04164e-08
3.5206e-06
1.41334e-07
1.94101e-06
1.05548e-06
5.48693e-08
2.03099e-06
1.48064e-07
2.0939e-06
-4.14451e-08
1.70966e-06
5.21811e-07
2.80713e-06
3.73438e-07
1.38325e-06
3.907e-07
1.09206e-06
2.76278e-07
5.46569e-07
1.87182e-07
3.41487e-07
1.16848e-07
2.55752e-07
5.63324e-08
2.16308e-07
2.00196e-07
-6.04538e-08
2.60649e-07
-1.24899e-07
2.80753e-07
-1.98213e-07
3.29067e-07
-2.86063e-07
4.29337e-07
-3.83404e-07
6.4391e-07
-3.85507e-07
1.09416e-06
-4.54545e-07
1.45228e-06
-4.53298e-08
2.39791e-06
-1.30615e-07
1.79495e-06
-2.16868e-08
1.98497e-06
1.1531e-07
1.894e-06
-8.2017e-08
1.25281e-06
-1.3167e-06
1.37601e-06
-3.71121e-06
2.42493e-06
-3.92519e-06
1.60971e-07
-4.25366e-06
7.05503e-07
-4.22374e-06
-9.94246e-08
-4.22299e-06
-9.11581e-08
-4.18427e-06
-1.83957e-07
-4.14911e-06
-1.66552e-07
-4.1351e-06
-9.51343e-08
-4.12904e-06
-6.57491e-08
-4.1012e-06
-1.19552e-07
-4.08021e-06
-1.11835e-07
-4.0536e-06
-1.4201e-07
-3.98446e-06
-2.55523e-07
-3.94503e-06
-1.81857e-07
-3.91952e-06
-1.3988e-07
-3.88615e-06
-1.7586e-07
-3.82462e-06
-2.94064e-07
-3.74122e-06
-4.58534e-07
-3.57739e-06
-8.9444e-07
-3.43237e-06
-7.18595e-07
-3.22686e-06
-9.74435e-07
-2.9466e-06
-1.28521e-06
-2.57416e-06
-1.65066e-06
-2.09041e-06
-2.06027e-06
-1.48555e-06
-2.47479e-06
-7.74132e-07
-2.82176e-06
-3.7718e-17
-3.02095e-06
7.74132e-07
-3.02095e-06
1.48555e-06
-2.82176e-06
2.09041e-06
-2.47479e-06
2.57416e-06
-2.06027e-06
2.9466e-06
-1.65066e-06
3.22686e-06
-1.28521e-06
3.43237e-06
-9.74435e-07
3.57739e-06
-7.18595e-07
3.74122e-06
-8.9444e-07
3.82462e-06
-4.58534e-07
3.88615e-06
-2.94064e-07
3.91952e-06
-1.7586e-07
3.94503e-06
-1.3988e-07
3.98446e-06
-1.81857e-07
4.0536e-06
-2.55523e-07
4.08021e-06
-1.4201e-07
4.1012e-06
-1.11835e-07
4.12904e-06
-1.19552e-07
4.1351e-06
-6.57491e-08
4.14911e-06
-9.51343e-08
4.18427e-06
-1.66552e-07
4.22299e-06
-1.83957e-07
4.22374e-06
-9.11581e-08
4.25366e-06
-9.94246e-08
3.92519e-06
7.05503e-07
3.71121e-06
1.60971e-07
1.3167e-06
2.42493e-06
8.2017e-08
1.37601e-06
-1.1531e-07
1.25281e-06
2.16868e-08
1.894e-06
1.30615e-07
1.98497e-06
4.53298e-08
1.79495e-06
4.54545e-07
2.39791e-06
3.85507e-07
1.45228e-06
3.83404e-07
1.09416e-06
2.86063e-07
6.4391e-07
1.98213e-07
4.29337e-07
1.24899e-07
3.29067e-07
6.04538e-08
2.80753e-07
2.60649e-07
-6.43065e-08
3.24956e-07
-1.32184e-07
3.48631e-07
-2.07426e-07
4.04309e-07
-2.92407e-07
5.14318e-07
-3.75718e-07
7.27221e-07
-3.87193e-07
1.10564e-06
-4.04447e-07
1.46954e-06
-1.09726e-07
2.10319e-06
-1.24351e-07
1.80957e-06
-3.28401e-08
1.89346e-06
6.2664e-08
1.79849e-06
-7.4522e-08
1.39e-06
-1.81375e-07
1.48287e-06
1.95146e-07
2.04841e-06
-4.88439e-07
8.44556e-07
-3.92855e-06
4.14561e-06
-4.26605e-06
2.38075e-07
-4.4599e-06
1.02701e-07
-4.47158e-06
-1.72282e-07
-4.45644e-06
-1.81695e-07
-4.45997e-06
-9.15985e-08
-4.46992e-06
-5.57998e-08
-4.43872e-06
-1.50754e-07
-4.42306e-06
-1.27498e-07
-4.40473e-06
-1.60339e-07
-4.31268e-06
-3.47567e-07
-4.27424e-06
-2.20307e-07
-4.25519e-06
-1.58923e-07
-4.22782e-06
-2.03235e-07
-4.16613e-06
-3.55753e-07
-4.10291e-06
-5.21749e-07
-3.98132e-06
-1.01603e-06
-3.85325e-06
-8.46673e-07
-3.65776e-06
-1.16992e-06
-3.38101e-06
-1.56197e-06
-2.99899e-06
-2.03267e-06
-2.47653e-06
-2.58274e-06
-1.78628e-06
-3.16504e-06
-9.40054e-07
-3.66799e-06
-2.03606e-17
-3.96101e-06
9.40054e-07
-3.96101e-06
1.78628e-06
-3.66799e-06
2.47653e-06
-3.16504e-06
2.99899e-06
-2.58274e-06
3.38101e-06
-2.03267e-06
3.65776e-06
-1.56197e-06
3.85325e-06
-1.16992e-06
3.98132e-06
-8.46673e-07
4.10291e-06
-1.01603e-06
4.16613e-06
-5.21749e-07
4.22782e-06
-3.55753e-07
4.25519e-06
-2.03235e-07
4.27424e-06
-1.58923e-07
4.31268e-06
-2.20307e-07
4.40473e-06
-3.47567e-07
4.42306e-06
-1.60339e-07
4.43872e-06
-1.27498e-07
4.46992e-06
-1.50754e-07
4.45997e-06
-5.57998e-08
4.45644e-06
-9.15985e-08
4.47158e-06
-1.81695e-07
4.4599e-06
-1.72282e-07
4.26605e-06
1.02701e-07
3.92855e-06
2.38075e-07
4.88439e-07
4.14561e-06
-1.95146e-07
8.44556e-07
1.81375e-07
2.04841e-06
7.4522e-08
1.48287e-06
-6.2664e-08
1.39e-06
3.28401e-08
1.79849e-06
1.24351e-07
1.89346e-06
1.09726e-07
1.80957e-06
4.04447e-07
2.10319e-06
3.87193e-07
1.46954e-06
3.75718e-07
1.10564e-06
2.92407e-07
7.27221e-07
2.07426e-07
5.14318e-07
1.32184e-07
4.04309e-07
6.43065e-08
3.48631e-07
3.24956e-07
-6.76985e-08
3.92654e-07
-1.38317e-07
4.19249e-07
-2.1434e-07
4.80332e-07
-2.95229e-07
5.95207e-07
-3.66791e-07
7.98782e-07
-3.81115e-07
1.11996e-06
-3.67743e-07
1.45617e-06
-1.55504e-07
1.89095e-06
-1.26348e-07
1.78041e-06
-4.73895e-08
1.8145e-06
1.98243e-08
1.73128e-06
-7.06186e-08
1.48044e-06
-1.31227e-07
1.54348e-06
6.992e-08
1.84726e-06
-4.31354e-07
1.34583e-06
6.63685e-07
3.05057e-06
-3.99083e-09
9.05751e-07
-1.12465e-06
1.22336e-06
-4.164e-06
2.86707e-06
-4.52573e-06
1.80032e-07
-4.7077e-06
9.03688e-08
-4.79879e-06
3.52979e-08
-4.78004e-06
-1.69511e-07
-4.78485e-06
-1.22688e-07
-4.79175e-06
-1.5343e-07
-4.6591e-06
-4.80217e-07
-4.6283e-06
-2.5111e-07
-4.62221e-06
-1.65016e-07
-4.60667e-06
-2.1877e-07
-4.54209e-06
-4.20333e-07
-4.5132e-06
-5.50641e-07
-4.46941e-06
-1.05982e-06
-4.37884e-06
-9.37246e-07
-4.20811e-06
-1.34065e-06
-3.95511e-06
-1.81497e-06
-3.58832e-06
-2.39947e-06
-3.04066e-06
-3.13039e-06
-2.24342e-06
-3.96228e-06
-1.19777e-06
-4.71364e-06
-5.65375e-17
-5.15878e-06
1.19777e-06
-5.15878e-06
2.24342e-06
-4.71364e-06
3.04066e-06
-3.96228e-06
3.58832e-06
-3.13039e-06
3.95511e-06
-2.39947e-06
4.20811e-06
-1.81497e-06
4.37884e-06
-1.34065e-06
4.46941e-06
-9.37246e-07
4.5132e-06
-1.05982e-06
4.54209e-06
-5.50641e-07
4.60667e-06
-4.20333e-07
4.62221e-06
-2.1877e-07
4.6283e-06
-1.65016e-07
4.6591e-06
-2.5111e-07
4.79175e-06
-4.80217e-07
4.78485e-06
-1.5343e-07
4.78004e-06
-1.22688e-07
4.79879e-06
-1.69511e-07
4.7077e-06
3.52979e-08
4.52573e-06
9.03688e-08
4.164e-06
1.80032e-07
1.12465e-06
2.86707e-06
3.99083e-09
1.22336e-06
-6.63685e-07
9.05751e-07
4.31354e-07
3.05057e-06
-6.992e-08
1.34583e-06
1.31227e-07
1.84726e-06
7.06186e-08
1.54348e-06
-1.98243e-08
1.48044e-06
4.73895e-08
1.73128e-06
1.26348e-07
1.8145e-06
1.55504e-07
1.78041e-06
3.67743e-07
1.89095e-06
3.81115e-07
1.45617e-06
3.66791e-07
1.11996e-06
2.95229e-07
7.98782e-07
2.1434e-07
5.95207e-07
1.38317e-07
4.80332e-07
6.76985e-08
4.19249e-07
3.92654e-07
-7.04229e-08
4.63077e-07
-1.42911e-07
4.91737e-07
-2.18547e-07
5.55968e-07
-2.94494e-07
6.71154e-07
-3.56046e-07
8.60334e-07
-3.69592e-07
1.13351e-06
-3.40727e-07
1.4273e-06
-1.86482e-07
1.73671e-06
-1.33672e-07
1.7276e-06
-6.39644e-08
1.74479e-06
-1.4385e-08
1.6817e-06
-6.8377e-08
1.53443e-06
-1.00178e-07
1.57528e-06
4.4674e-09
1.74262e-06
-2.27581e-07
1.57788e-06
4.19022e-07
2.40397e-06
4.87502e-08
1.27602e-06
-1.35211e-07
1.40732e-06
5.41765e-07
2.1901e-06
-5.4553e-08
7.7635e-07
-1.06397e-06
1.09979e-06
-4.44632e-06
3.41765e-06
-4.8034e-06
1.87563e-07
-5.02082e-06
9.47355e-08
-5.1677e-06
-6.54797e-09
-4.98554e-06
-6.62375e-07
-4.99277e-06
-2.43885e-07
-5.01645e-06
-1.41339e-07
-5.02621e-06
-2.09008e-07
-4.94874e-06
-4.97805e-07
-4.97344e-06
-5.25936e-07
-5.06218e-06
-9.71082e-07
-5.0488e-06
-9.50623e-07
-4.91493e-06
-1.47452e-06
-4.72027e-06
-2.00962e-06
-4.42854e-06
-2.6912e-06
-3.90751e-06
-3.65143e-06
-2.9834e-06
-4.8864e-06
-1.62498e-06
-6.07206e-06
-6.32278e-17
-6.78375e-06
1.62498e-06
-6.78375e-06
2.9834e-06
-6.07206e-06
3.90751e-06
-4.8864e-06
4.42854e-06
-3.65143e-06
4.72027e-06
-2.6912e-06
4.91493e-06
-2.00962e-06
5.0488e-06
-1.47452e-06
5.06218e-06
-9.50623e-07
4.97344e-06
-9.71082e-07
4.94874e-06
-5.25936e-07
5.02621e-06
-4.97805e-07
5.01645e-06
-2.09008e-07
4.99277e-06
-1.41339e-07
4.98554e-06
-2.43885e-07
5.1677e-06
-6.62375e-07
5.02082e-06
-6.54797e-09
4.8034e-06
9.47355e-08
4.44632e-06
1.87563e-07
1.06397e-06
3.41765e-06
5.4553e-08
1.09979e-06
-5.41765e-07
7.7635e-07
1.35211e-07
2.1901e-06
-4.87502e-08
1.40732e-06
-4.19022e-07
1.27602e-06
2.27581e-07
2.40397e-06
-4.4674e-09
1.57788e-06
1.00178e-07
1.74262e-06
6.8377e-08
1.57528e-06
1.4385e-08
1.53443e-06
6.39644e-08
1.6817e-06
1.33672e-07
1.74479e-06
1.86482e-07
1.7276e-06
3.40727e-07
1.73671e-06
3.69592e-07
1.4273e-06
3.56046e-07
1.13351e-06
2.94494e-07
8.60334e-07
2.18547e-07
6.71154e-07
1.42911e-07
5.55968e-07
7.04229e-08
4.91737e-07
4.63077e-07
-7.22756e-08
5.35353e-07
-1.45619e-07
5.65081e-07
-2.19749e-07
6.30099e-07
-2.90228e-07
7.41632e-07
-3.43186e-07
9.13292e-07
-3.54471e-07
1.14479e-06
-3.20105e-07
1.39294e-06
-2.06116e-07
1.62272e-06
-1.43637e-07
1.66512e-06
-8.10901e-08
1.68224e-06
-4.12954e-08
1.6419e-06
-6.79202e-08
1.56106e-06
-8.0882e-08
1.58824e-06
-2.36451e-08
1.68538e-06
-1.06477e-07
1.66071e-06
2.6415e-07
2.03334e-06
7.62204e-08
1.46395e-06
-1.26666e-08
1.4962e-06
3.49256e-07
1.82818e-06
-3.59273e-10
1.12597e-06
-2.51289e-07
1.35072e-06
7.37813e-07
2.42854e-06
1.23498e-07
8.01879e-07
-6.0439e-07
8.22623e-07
-3.75562e-06
3.14468e-06
-4.73e-06
3.12001e-07
-5.09617e-06
1.22285e-07
-5.31348e-06
7.59672e-08
-5.44348e-06
-7.90021e-08
-5.35012e-06
-5.91161e-07
-5.46584e-06
-4.10218e-07
-5.77177e-06
-6.65153e-07
-5.93878e-06
-7.83618e-07
-5.80442e-06
-1.60887e-06
-5.72212e-06
-2.09192e-06
-5.65004e-06
-2.76328e-06
-5.32563e-06
-3.97584e-06
-4.27962e-06
-5.93241e-06
-2.38925e-06
-7.96243e-06
-3.689e-17
-9.173e-06
2.38925e-06
-9.173e-06
4.27962e-06
-7.96243e-06
5.32563e-06
-5.93241e-06
5.65004e-06
-3.97584e-06
5.72212e-06
-2.76328e-06
5.80442e-06
-2.09192e-06
5.93878e-06
-1.60887e-06
5.77177e-06
-7.83618e-07
5.46584e-06
-6.65153e-07
5.35012e-06
-4.10218e-07
5.44348e-06
-5.91161e-07
5.31348e-06
-7.90021e-08
5.09617e-06
7.59672e-08
4.73e-06
1.22285e-07
3.75562e-06
3.12001e-07
6.0439e-07
3.14468e-06
-1.23498e-07
8.22623e-07
-7.37813e-07
8.01879e-07
2.51289e-07
2.42854e-06
3.59274e-10
1.35072e-06
-3.49256e-07
1.12597e-06
1.26666e-08
1.82818e-06
-7.62204e-08
1.4962e-06
-2.6415e-07
1.46395e-06
1.06477e-07
2.03334e-06
2.36451e-08
1.66071e-06
8.0882e-08
1.68538e-06
6.79202e-08
1.58824e-06
4.12954e-08
1.56106e-06
8.10901e-08
1.6419e-06
1.43637e-07
1.68224e-06
2.06116e-07
1.66512e-06
3.20105e-07
1.62272e-06
3.54471e-07
1.39294e-06
3.43186e-07
1.14479e-06
2.90228e-07
9.13292e-07
2.19749e-07
7.41632e-07
1.45619e-07
6.30099e-07
7.22756e-08
5.65081e-07
5.35353e-07
-7.30769e-08
6.0843e-07
-1.46165e-07
6.38169e-07
-2.17777e-07
7.01711e-07
-2.82546e-07
8.06401e-07
-3.28158e-07
9.58904e-07
-3.37066e-07
1.1537e-06
-3.032e-07
1.35907e-06
-2.17234e-07
1.53675e-06
-1.53975e-07
1.60187e-06
-9.73507e-08
1.62562e-06
-6.21468e-08
1.6067e-06
-6.88303e-08
1.56774e-06
-6.84639e-08
1.58787e-06
-3.10773e-08
1.64799e-06
-3.91103e-08
1.66874e-06
1.71036e-07
1.82319e-06
9.03232e-08
1.54467e-06
5.53077e-08
1.53122e-06
2.36694e-07
1.64679e-06
4.64569e-08
1.3162e-06
-5.09442e-08
1.44812e-06
4.70168e-07
1.90743e-06
1.39784e-07
1.13226e-06
-2.03881e-07
1.16629e-06
7.81619e-07
2.15918e-06
3.11225e-07
7.82396e-07
-8.74075e-08
5.20917e-07
-7.9541e-07
7.8397e-07
-4.27251e-06
3.3981e-06
-5.11785e-06
2.54176e-07
-5.64056e-06
1.12491e-07
-6.37937e-06
7.3663e-08
-7.17784e-06
1.48434e-08
-6.72291e-06
-2.0638e-06
-6.87092e-06
-1.94391e-06
-7.38721e-06
-2.24698e-06
-7.83323e-06
-3.52983e-06
-6.7833e-06
-6.98234e-06
-3.87153e-06
-1.08742e-05
-9.05038e-17
-1.30445e-05
3.87153e-06
-1.30445e-05
6.7833e-06
-1.08742e-05
7.83323e-06
-6.98234e-06
7.38721e-06
-3.52983e-06
6.87092e-06
-2.24698e-06
6.72291e-06
-1.94391e-06
7.17784e-06
-2.0638e-06
6.37937e-06
1.48434e-08
5.64056e-06
7.3663e-08
5.11785e-06
1.12491e-07
4.27251e-06
2.54176e-07
7.9541e-07
3.3981e-06
8.74075e-08
7.8397e-07
-3.11225e-07
5.20917e-07
-7.81619e-07
7.82396e-07
2.03881e-07
2.15918e-06
-1.39784e-07
1.16629e-06
-4.70168e-07
1.13226e-06
5.09442e-08
1.90743e-06
-4.64569e-08
1.44812e-06
-2.36694e-07
1.3162e-06
-5.53077e-08
1.64679e-06
-9.03232e-08
1.53122e-06
-1.71036e-07
1.54467e-06
3.91103e-08
1.82319e-06
3.10773e-08
1.66874e-06
6.84639e-08
1.64799e-06
6.88303e-08
1.58787e-06
6.21468e-08
1.56774e-06
9.73507e-08
1.6067e-06
1.53975e-07
1.62562e-06
2.17234e-07
1.60187e-06
3.032e-07
1.53675e-06
3.37066e-07
1.35907e-06
3.28158e-07
1.1537e-06
2.82546e-07
9.58904e-07
2.17777e-07
8.06401e-07
1.46165e-07
7.01711e-07
7.30769e-08
6.38169e-07
6.0843e-07
-7.26948e-08
6.81125e-07
-1.44383e-07
7.09857e-07
-2.1261e-07
7.69937e-07
-2.7166e-07
8.65452e-07
-3.11082e-07
9.98326e-07
-3.182e-07
1.16082e-06
-2.87999e-07
1.32887e-06
-2.21938e-07
1.47069e-06
-1.62927e-07
1.54285e-06
-1.11521e-07
1.57421e-06
-7.79344e-08
1.57311e-06
-7.04462e-08
1.56025e-06
-6.0016e-08
1.57744e-06
-2.8883e-08
1.61686e-06
-4.16466e-09
1.64402e-06
1.17748e-07
1.70128e-06
9.56969e-08
1.56672e-06
8.96448e-08
1.53727e-06
1.76709e-07
1.55972e-06
8.4037e-08
1.40887e-06
5.93068e-08
1.47285e-06
3.21299e-07
1.64544e-06
1.61852e-07
1.29171e-06
2.53713e-08
1.30277e-06
5.12036e-07
1.67252e-06
2.75787e-07
1.01864e-06
-2.98745e-08
8.26578e-07
-3.43192e-07
1.09729e-06
8.69886e-07
2.18502e-06
3.48808e-07
7.75254e-07
-7.26653e-08
5.33964e-07
-9.28473e-07
9.2947e-07
-2.15553e-06
1.2419e-06
-4.42381e-06
2.04485e-07
-6.44838e-06
8.06605e-08
-8.7452e-06
4.98345e-08
-1.23098e-05
3.47443e-08
-1.19571e-05
-7.33505e-06
-6.86785e-06
-1.59634e-05
-4.52715e-17
-1.99124e-05
6.86785e-06
-1.99124e-05
1.19571e-05
-1.59634e-05
1.23098e-05
-7.33505e-06
8.7452e-06
3.47443e-08
6.44838e-06
4.98345e-08
4.42381e-06
8.06605e-08
2.15553e-06
2.04485e-07
9.28473e-07
1.2419e-06
7.26653e-08
9.2947e-07
-3.48808e-07
5.33964e-07
-8.69886e-07
7.75254e-07
3.43192e-07
2.18502e-06
2.98745e-08
1.09729e-06
-2.75787e-07
8.26578e-07
-5.12036e-07
1.01864e-06
-2.53713e-08
1.67252e-06
-1.61852e-07
1.30277e-06
-3.21299e-07
1.29171e-06
-5.93068e-08
1.64544e-06
-8.4037e-08
1.47285e-06
-1.76709e-07
1.40887e-06
-8.96448e-08
1.55972e-06
-9.56969e-08
1.53727e-06
-1.17748e-07
1.56672e-06
4.16466e-09
1.70128e-06
2.8883e-08
1.64402e-06
6.0016e-08
1.61686e-06
7.04462e-08
1.57744e-06
7.79344e-08
1.56025e-06
1.11521e-07
1.57311e-06
1.62927e-07
1.57421e-06
2.21938e-07
1.54285e-06
2.87999e-07
1.47069e-06
3.182e-07
1.32887e-06
3.11082e-07
1.16082e-06
2.7166e-07
9.98326e-07
2.1261e-07
8.65452e-07
1.44383e-07
7.69937e-07
7.26948e-08
7.09857e-07
6.81125e-07
-7.10652e-08
7.5219e-07
-1.40237e-07
7.79029e-07
-2.0438e-07
8.3408e-07
-2.57877e-07
9.18949e-07
-2.92181e-07
1.03263e-06
-2.98311e-07
1.16695e-06
-2.73098e-07
1.30365e-06
-2.21657e-07
1.41925e-06
-1.69242e-07
1.49044e-06
-1.22651e-07
1.52762e-06
-8.93606e-08
1.53982e-06
-7.2081e-08
1.54297e-06
-5.39349e-08
1.5593e-06
-2.34845e-08
1.58641e-06
1.27058e-08
1.60783e-06
8.85523e-08
1.62544e-06
9.60794e-08
1.55919e-06
1.05099e-07
1.52825e-06
1.48309e-07
1.51651e-06
1.11475e-07
1.44571e-06
1.17117e-07
1.46721e-06
2.45692e-07
1.51687e-06
1.8086e-07
1.35654e-06
1.39377e-07
1.34425e-06
3.64347e-07
1.44755e-06
2.44546e-07
1.13845e-06
4.89025e-08
1.02222e-06
-4.8264e-08
1.19445e-06
5.28802e-07
1.60796e-06
3.09787e-07
9.94269e-07
3.96188e-08
8.04132e-07
-5.03506e-08
1.01944e-06
5.83529e-07
6.08018e-07
3.88303e-07
3.99711e-07
1.733e-07
2.95663e-07
-5.11138e-08
2.74248e-07
-3.1556e-07
2.99191e-07
-7.42648e-06
-2.24132e-07
-1.03404e-05
-1.30495e-05
3.73547e-17
-3.02527e-05
1.03404e-05
-3.02527e-05
7.42648e-06
-1.30495e-05
3.1556e-07
-2.24132e-07
5.11138e-08
2.99191e-07
-1.733e-07
2.74248e-07
-3.88303e-07
2.95663e-07
-5.83529e-07
3.99711e-07
5.03506e-08
6.08018e-07
-3.96188e-08
1.01944e-06
-3.09787e-07
8.04132e-07
-5.28802e-07
9.94269e-07
4.8264e-08
1.60796e-06
-4.89025e-08
1.19445e-06
-2.44546e-07
1.02222e-06
-3.64347e-07
1.13845e-06
-1.39377e-07
1.44755e-06
-1.8086e-07
1.34425e-06
-2.45692e-07
1.35654e-06
-1.17117e-07
1.51687e-06
-1.11475e-07
1.46721e-06
-1.48309e-07
1.44571e-06
-1.05099e-07
1.51651e-06
-9.60794e-08
1.52825e-06
-8.85523e-08
1.55919e-06
-1.27058e-08
1.62544e-06
2.34845e-08
1.60783e-06
5.39349e-08
1.58641e-06
7.2081e-08
1.5593e-06
8.93606e-08
1.54297e-06
1.22651e-07
1.53982e-06
1.69242e-07
1.52762e-06
2.21657e-07
1.49044e-06
2.73098e-07
1.41925e-06
2.98311e-07
1.30365e-06
2.92181e-07
1.16695e-06
2.57877e-07
1.03263e-06
2.0438e-07
9.18949e-07
1.40237e-07
8.3408e-07
7.10652e-08
7.79029e-07
7.5219e-07
-6.82051e-08
8.20395e-07
-1.33835e-07
8.44659e-07
-1.93367e-07
8.93612e-07
-2.41587e-07
9.67169e-07
-2.71722e-07
1.06276e-06
-2.77579e-07
1.1728e-06
-2.57587e-07
1.28366e-06
-2.17281e-07
1.37894e-06
-1.72134e-07
1.44529e-06
-1.30099e-07
1.48559e-06
-9.687e-08
1.50659e-06
-7.31357e-08
1.51924e-06
-4.93162e-08
1.53548e-06
-1.79829e-08
1.55508e-06
2.0324e-08
1.56953e-06
7.30833e-08
1.57268e-06
9.4154e-08
1.53812e-06
1.11015e-07
1.51139e-06
1.36971e-07
1.49056e-06
1.30072e-07
1.45261e-06
1.46479e-07
1.4508e-06
2.11293e-07
1.45205e-06
1.93911e-07
1.37392e-06
1.90364e-07
1.3478e-06
2.87439e-07
1.35047e-06
2.26041e-07
1.19984e-06
1.16147e-07
1.13212e-06
9.71394e-08
1.21346e-06
3.57272e-07
1.34782e-06
2.70773e-07
1.08077e-06
1.21598e-07
9.53307e-07
1.19957e-07
1.02108e-06
2.5729e-07
4.70685e-07
2.34726e-07
4.22275e-07
1.50732e-07
3.79657e-07
6.34795e-08
3.61501e-07
-2.73741e-09
3.65407e-07
-4.08345e-08
-1.86035e-07
-2.19987e-06
-1.08905e-05
4.98117e-17
-3.24526e-05
2.19987e-06
-3.24526e-05
4.08345e-08
-1.08905e-05
2.73741e-09
-1.86035e-07
-6.34795e-08
3.65407e-07
-1.50732e-07
3.61501e-07
-2.34726e-07
3.79657e-07
-2.5729e-07
4.22275e-07
-1.19957e-07
4.70685e-07
-1.21598e-07
1.02108e-06
-2.70773e-07
9.53307e-07
-3.57272e-07
1.08077e-06
-9.71394e-08
1.34782e-06
-1.16147e-07
1.21346e-06
-2.26041e-07
1.13212e-06
-2.87439e-07
1.19984e-06
-1.90364e-07
1.35047e-06
-1.93911e-07
1.3478e-06
-2.11293e-07
1.37392e-06
-1.46479e-07
1.45205e-06
-1.30072e-07
1.4508e-06
-1.36971e-07
1.45261e-06
-1.11015e-07
1.49056e-06
-9.4154e-08
1.51139e-06
-7.30833e-08
1.53812e-06
-2.0324e-08
1.57268e-06
1.79829e-08
1.56953e-06
4.93162e-08
1.55508e-06
7.31357e-08
1.53548e-06
9.687e-08
1.51924e-06
1.30099e-07
1.50659e-06
1.72134e-07
1.48559e-06
2.17281e-07
1.44529e-06
2.57587e-07
1.37894e-06
2.77579e-07
1.28366e-06
2.71722e-07
1.1728e-06
2.41587e-07
1.06276e-06
1.93367e-07
9.67169e-07
1.33835e-07
8.93612e-07
6.82051e-08
8.44659e-07
8.20395e-07
-6.42147e-08
8.8461e-07
-1.2542e-07
9.05865e-07
-1.79973e-07
9.48165e-07
-2.23239e-07
1.01043e-06
-2.49985e-07
1.08951e-06
-2.56052e-07
1.17887e-06
-2.40925e-07
1.26854e-06
-2.09349e-07
1.34737e-06
-1.71207e-07
1.40715e-06
-1.33524e-07
1.4479e-06
-1.00729e-07
1.4738e-06
-7.3127e-08
1.49164e-06
-4.55331e-08
1.50788e-06
-1.34148e-08
1.52296e-06
2.36666e-08
1.53245e-06
6.50711e-08
1.53127e-06
9.16007e-08
1.51159e-06
1.12667e-07
1.49032e-06
1.33663e-07
1.46956e-06
1.41878e-07
1.44439e-06
1.61207e-07
1.43147e-06
1.9764e-07
1.41562e-06
2.01278e-07
1.37029e-06
2.09964e-07
1.33911e-06
2.49502e-07
1.31094e-06
2.18356e-07
1.23099e-06
1.6291e-07
1.18756e-06
1.65211e-07
1.21116e-06
2.75261e-07
1.23777e-06
2.41338e-07
1.11469e-06
1.62964e-07
1.03168e-06
1.5452e-07
1.02952e-06
1.75197e-07
4.50008e-07
1.63251e-07
4.34221e-07
1.25195e-07
4.17713e-07
7.88231e-08
4.07873e-07
3.7981e-08
4.0625e-07
1.25841e-08
-1.60638e-07
-4.38969e-07
-1.04389e-05
-5.07275e-17
-3.28916e-05
4.38969e-07
-3.28916e-05
-1.25841e-08
-1.04389e-05
-3.7981e-08
-1.60638e-07
-7.88231e-08
4.0625e-07
-1.25195e-07
4.07873e-07
-1.63251e-07
4.17713e-07
-1.75197e-07
4.34221e-07
-1.5452e-07
4.50008e-07
-1.62964e-07
1.02952e-06
-2.41338e-07
1.03168e-06
-2.75261e-07
1.11469e-06
-1.65211e-07
1.23777e-06
-1.6291e-07
1.21116e-06
-2.18356e-07
1.18756e-06
-2.49502e-07
1.23099e-06
-2.09964e-07
1.31094e-06
-2.01278e-07
1.33911e-06
-1.9764e-07
1.37029e-06
-1.61207e-07
1.41562e-06
-1.41878e-07
1.43147e-06
-1.33663e-07
1.44439e-06
-1.12667e-07
1.46956e-06
-9.16007e-08
1.49032e-06
-6.50711e-08
1.51159e-06
-2.36666e-08
1.53127e-06
1.34148e-08
1.53245e-06
4.55331e-08
1.52296e-06
7.3127e-08
1.50788e-06
1.00729e-07
1.49164e-06
1.33524e-07
1.4738e-06
1.71207e-07
1.4479e-06
2.09349e-07
1.40715e-06
2.40925e-07
1.34737e-06
2.56052e-07
1.26854e-06
2.49985e-07
1.17887e-06
2.23239e-07
1.08951e-06
1.79973e-07
1.01043e-06
1.2542e-07
9.48165e-07
6.42147e-08
9.05865e-07
8.8461e-07
-5.92676e-08
9.43877e-07
-1.15345e-07
9.61942e-07
-1.64691e-07
9.97511e-07
-2.03317e-07
1.04906e-06
-2.27252e-07
1.11345e-06
-2.33747e-07
1.18537e-06
-2.22845e-07
1.25763e-06
-1.98217e-07
1.32274e-06
-1.66378e-07
1.37531e-06
-1.32851e-07
1.41438e-06
-1.01112e-07
1.44206e-06
-7.16738e-08
1.4622e-06
-4.20226e-08
1.47823e-06
-9.73055e-09
1.49067e-06
2.53411e-08
1.49737e-06
6.1033e-08
1.49558e-06
8.93005e-08
1.48332e-06
1.12671e-07
1.46695e-06
1.33383e-07
1.44885e-06
1.48829e-07
1.42895e-06
1.68489e-07
1.41181e-06
1.92964e-07
1.39114e-06
2.04393e-07
1.35886e-06
2.15494e-07
1.32801e-06
2.31667e-07
1.29476e-06
2.16686e-07
1.24597e-06
1.9108e-07
1.21317e-06
1.95188e-07
1.20705e-06
2.37261e-07
1.1957e-06
2.21104e-07
1.13085e-06
1.7761e-07
1.07517e-06
1.57113e-07
1.05002e-06
1.50181e-07
4.5694e-07
1.35158e-07
4.49244e-07
1.11153e-07
4.41718e-07
8.26205e-08
4.36406e-07
5.4873e-08
4.33997e-07
3.24296e-08
-1.38195e-07
-2.37252e-07
-1.01692e-05
-4.60902e-17
-3.31288e-05
2.37252e-07
-3.31288e-05
-3.24296e-08
-1.01692e-05
-5.4873e-08
-1.38195e-07
-8.26205e-08
4.33997e-07
-1.11153e-07
4.36406e-07
-1.35158e-07
4.41718e-07
-1.50181e-07
4.49244e-07
-1.57113e-07
4.5694e-07
-1.7761e-07
1.05002e-06
-2.21104e-07
1.07517e-06
-2.37261e-07
1.13085e-06
-1.95188e-07
1.1957e-06
-1.9108e-07
1.20705e-06
-2.16686e-07
1.21317e-06
-2.31667e-07
1.24597e-06
-2.15494e-07
1.29476e-06
-2.04393e-07
1.32801e-06
-1.92964e-07
1.35886e-06
-1.68489e-07
1.39114e-06
-1.48829e-07
1.41181e-06
-1.33383e-07
1.42895e-06
-1.12671e-07
1.44885e-06
-8.93005e-08
1.46695e-06
-6.1033e-08
1.48332e-06
-2.53411e-08
1.49558e-06
9.73055e-09
1.49737e-06
4.20226e-08
1.49067e-06
7.16738e-08
1.47823e-06
1.01112e-07
1.4622e-06
1.32851e-07
1.44206e-06
1.66378e-07
1.41438e-06
1.98217e-07
1.37531e-06
2.22845e-07
1.32274e-06
2.33747e-07
1.25763e-06
2.27252e-07
1.18537e-06
2.03317e-07
1.11345e-06
1.64691e-07
1.04906e-06