/*--------------------------------*- C++ -*----------------------------------*\
  =========                 |
  \\      /  F ield         | OpenFOAM: The Open Source CFD Toolbox
   \\    /   O peration     | Website:  https://openfoam.org
    \\  /    A nd           | Version:  10
     \\/     M anipulation  |
\*---------------------------------------------------------------------------*/
FoamFile
{
    format      ascii;
    class       surfaceScalarField;
    location    "0.056";
    object      phi;
}
// * * * * * * * * * * * * * * * * * * * * * * * * * * * * * * * * * * * * * //

dimensions      [0 3 -1 0 0 0 0];

internalField   nonuniform List<scalar> 
7780
(
2.50003e-09
-3.6653e-14
2.50011e-09
-1.09902e-13
2.50027e-09
-1.83667e-13
2.5005e-09
-2.57868e-13
2.50082e-09
-3.31661e-13
2.50119e-09
-4.06263e-13
2.50166e-09
-4.80493e-13
2.50217e-09
-5.55855e-13
2.5028e-09
-6.30805e-13
2.50346e-09
-7.07197e-13
2.50424e-09
-7.83163e-13
2.50506e-09
-8.60938e-13
2.50599e-09
-9.38322e-13
2.50696e-09
-1.01794e-12
2.50806e-09
-1.09725e-12
2.50919e-09
-1.17928e-12
2.51045e-09
-1.26113e-12
2.51175e-09
-1.34626e-12
2.51318e-09
-1.43138e-12
2.51465e-09
-1.52037e-12
2.51626e-09
-1.60956e-12
2.5179e-09
-1.70324e-12
2.51971e-09
-1.79737e-12
2.52154e-09
-1.89663e-12
2.52355e-09
-1.99662e-12
2.52559e-09
-2.10242e-12
2.52781e-09
-2.20926e-12
2.53006e-09
-2.32263e-12
2.53252e-09
-2.43737e-12
2.535e-09
-2.55941e-12
2.5377e-09
-2.68317e-12
2.54044e-09
-2.81501e-12
2.54341e-09
-2.94898e-12
2.54642e-09
-3.09184e-12
2.54968e-09
-3.23725e-12
2.55299e-09
-3.39237e-12
2.55656e-09
-3.55048e-12
2.56019e-09
-3.71915e-12
2.56411e-09
-3.89126e-12
2.56809e-09
-4.0748e-12
2.57238e-09
-4.26222e-12
2.57674e-09
-4.46195e-12
2.58144e-09
-4.66602e-12
2.58622e-09
-4.88325e-12
2.59136e-09
-5.10527e-12
2.59659e-09
-5.34131e-12
2.60221e-09
-5.58254e-12
2.60794e-09
-5.83861e-12
2.61408e-09
-6.10024e-12
2.62034e-09
-6.37748e-12
2.62704e-09
-6.66058e-12
2.63387e-09
-6.95995e-12
2.64118e-09
-7.26536e-12
2.64864e-09
-7.58758e-12
2.6566e-09
-7.91586e-12
2.66473e-09
-8.2613e-12
2.67339e-09
-8.61258e-12
2.68223e-09
-8.98109e-12
2.69163e-09
-9.35491e-12
2.70123e-09
-9.74566e-12
2.71142e-09
-1.01408e-11
2.72183e-09
-1.0552e-11
2.73284e-09
-1.09661e-11
2.74408e-09
-1.13949e-11
2.75596e-09
-1.18244e-11
2.76807e-09
-1.22665e-11
2.78083e-09
-1.27062e-11
2.79382e-09
-1.31555e-11
2.80747e-09
-1.35985e-11
2.82135e-09
-1.40471e-11
2.83589e-09
-1.44845e-11
2.85064e-09
-1.49225e-11
2.86604e-09
-1.53434e-11
2.88163e-09
-1.5759e-11
2.89784e-09
-1.6151e-11
2.91419e-09
-1.65312e-11
2.93113e-09
-1.68806e-11
2.94815e-09
-1.72113e-11
2.96572e-09
-1.75042e-11
2.9833e-09
-1.7772e-11
3.00136e-09
-1.79955e-11
3.01936e-09
-1.81881e-11
3.03775e-09
-1.83314e-11
3.056e-09
-1.84396e-11
3.07455e-09
-1.84951e-11
3.09287e-09
-1.85135e-11
3.11141e-09
-1.8478e-11
3.12962e-09
-1.84055e-11
3.14796e-09
-1.82803e-11
3.16588e-09
-1.81204e-11
3.18386e-09
-1.79109e-11
3.20133e-09
-1.7671e-11
3.21877e-09
-1.73865e-11
3.23565e-09
-1.70771e-11
3.25244e-09
-1.67292e-11
3.2686e-09
-1.63629e-11
3.28462e-09
-1.59647e-11
3.29998e-09
-1.55549e-11
3.31516e-09
-1.51202e-11
3.32963e-09
-1.46803e-11
3.34391e-09
-1.4222e-11
3.35748e-09
-1.37647e-11
3.37082e-09
-1.3295e-11
3.38345e-09
-1.28317e-11
3.39587e-09
-1.23612e-11
3.40757e-09
-1.19018e-11
3.41906e-09
-1.14395e-11
3.42985e-09
-1.09921e-11
3.44044e-09
-1.05454e-11
3.45036e-09
-1.01166e-11
3.46009e-09
-9.69106e-12
3.46918e-09
-9.28571e-12
3.47811e-09
-8.88568e-12
3.48641e-09
-8.5073e-12
3.49459e-09
-8.13554e-12
3.50217e-09
-7.78638e-12
3.50966e-09
-7.44458e-12
3.51657e-09
-7.12581e-12
3.52343e-09
-6.81468e-12
3.52975e-09
-6.52665e-12
3.53603e-09
-6.24617e-12
3.54181e-09
-5.98857e-12
3.54758e-09
-5.73815e-12
3.55288e-09
-5.51023e-12
3.5582e-09
-5.28889e-12
3.56307e-09
-5.08954e-12
3.56801e-09
-4.89601e-12
3.57251e-09
-4.72387e-12
3.57711e-09
-4.55661e-12
3.58128e-09
-4.41001e-12
3.5856e-09
-4.26714e-12
3.5895e-09
-4.14409e-12
3.59358e-09
-4.02335e-12
3.59725e-09
-3.92138e-12
3.60113e-09
-3.82004e-12
3.60461e-09
-3.73626e-12
3.60833e-09
-3.65116e-12
3.61165e-09
-3.58228e-12
3.61523e-09
-3.50999e-12
3.61841e-09
-3.45263e-12
3.62188e-09
-3.38988e-12
3.62495e-09
-3.34104e-12
3.62832e-09
-3.28523e-12
3.63128e-09
-3.24292e-12
3.63456e-09
-3.19281e-12
3.63743e-09
-3.15667e-12
3.64065e-09
-3.11292e-12
3.64343e-09
-3.08473e-12
3.64659e-09
-3.05028e-12
3.64931e-09
-3.03412e-12
3.65245e-09
-3.01417e-12
3.65514e-09
-3.01624e-12
3.6583e-09
-3.01782e-12
3.661e-09
-3.0458e-12
3.66423e-09
-3.0769e-12
3.667e-09
-3.13888e-12
3.67038e-09
-3.20716e-12
3.67329e-09
-3.31019e-12
3.6769e-09
-3.42136e-12
3.68004e-09
-3.56973e-12
3.68397e-09
-3.72572e-12
3.68742e-09
-3.91903e-12
3.69177e-09
-4.11608e-12
3.69559e-09
-4.34752e-12
3.70043e-09
-4.57459e-12
3.70466e-09
-4.82958e-12
3.71004e-09
-5.06752e-12
3.71468e-09
-5.32341e-12
3.72058e-09
-5.54524e-12
3.72559e-09
-5.77231e-12
3.73195e-09
-5.94507e-12
3.7372e-09
-6.10915e-12
3.74387e-09
-6.19733e-12
3.74918e-09
-6.26383e-12
3.75596e-09
-6.23405e-12
3.76108e-09
-6.1729e-12
3.76771e-09
-5.99877e-12
3.77235e-09
-5.78896e-12
3.77853e-09
-5.45539e-12
3.78239e-09
-5.0889e-12
3.7878e-09
-4.59527e-12
3.79057e-09
-4.07911e-12
3.79492e-09
-3.43968e-12
3.79634e-09
-2.79371e-12
3.79936e-09
-2.03358e-12
3.79924e-09
-1.28668e-12
3.80074e-09
-4.38826e-13
3.79893e-09
3.72124e-13
3.79881e-09
1.26642e-12
3.79526e-09
2.09884e-12
3.79348e-09
2.99578e-12
3.78823e-09
3.80633e-12
3.78485e-09
4.66296e-12
3.77797e-09
5.41111e-12
3.77309e-09
6.1895e-12
3.76478e-09
6.84206e-12
3.75784e-09
7.50622e-12
3.75002e-09
8.0633e-12
3.7415e-09
8.51151e-12
9.15356e-12
2.50003e-09
-7.35366e-14
2.50011e-09
-2.20136e-13
2.50027e-09
-3.67958e-13
2.5005e-09
-5.15898e-13
2.50081e-09
-6.63895e-13
2.50118e-09
-8.12382e-13
2.50165e-09
-9.61246e-13
2.50217e-09
-1.11091e-12
2.50278e-09
-1.2612e-12
2.50345e-09
-1.41265e-12
2.50422e-09
-1.56507e-12
2.50504e-09
-1.71906e-12
2.50596e-09
-1.87444e-12
2.50693e-09
-2.03192e-12
2.50802e-09
-2.1913e-12
2.50915e-09
-2.3534e-12
2.5104e-09
-2.51799e-12
2.51169e-09
-2.68603e-12
2.51311e-09
-2.85725e-12
2.51457e-09
-3.03272e-12
2.51617e-09
-3.21214e-12
2.51781e-09
-3.39669e-12
2.5196e-09
-3.58605e-12
2.52143e-09
-3.78148e-12
2.52341e-09
-3.98263e-12
2.52544e-09
-4.19089e-12
2.52764e-09
-4.40586e-12
2.52989e-09
-4.62901e-12
2.53231e-09
-4.85993e-12
2.53479e-09
-5.10018e-12
2.53746e-09
-5.3493e-12
2.54018e-09
-5.60896e-12
2.54312e-09
-5.87865e-12
2.54612e-09
-6.16014e-12
2.54934e-09
-6.45287e-12
2.55263e-09
-6.75868e-12
2.55617e-09
-7.07698e-12
2.55978e-09
-7.4097e-12
2.56366e-09
-7.75618e-12
2.56762e-09
-8.11844e-12
2.57186e-09
-8.49574e-12
2.57621e-09
-8.89019e-12
2.58086e-09
-9.30098e-12
2.58561e-09
-9.73029e-12
2.5907e-09
-1.01772e-11
2.59591e-09
-1.0644e-11
2.60147e-09
-1.11296e-11
2.60717e-09
-1.16364e-11
2.61325e-09
-1.21632e-11
2.61948e-09
-1.27122e-11
2.62612e-09
-1.32823e-11
2.63293e-09
-1.38757e-11
2.64018e-09
-1.4491e-11
2.64761e-09
-1.51302e-11
2.6555e-09
-1.57918e-11
2.66361e-09
-1.64779e-11
2.6722e-09
-1.71863e-11
2.68102e-09
-1.79189e-11
2.69036e-09
-1.86734e-11
2.69994e-09
-1.94513e-11
2.71007e-09
-2.02496e-11
2.72046e-09
-2.10694e-11
2.73142e-09
-2.19072e-11
2.74266e-09
-2.27635e-11
2.75449e-09
-2.36338e-11
2.76661e-09
-2.45181e-11
2.77934e-09
-2.54109e-11
2.79235e-09
-2.63112e-11
2.80599e-09
-2.72127e-11
2.81991e-09
-2.81133e-11
2.83446e-09
-2.90056e-11
2.84928e-09
-2.98866e-11
2.8647e-09
-3.07478e-11
2.88038e-09
-3.15853e-11
2.89664e-09
-3.23898e-11
2.91311e-09
-3.31567e-11
2.93013e-09
-3.38764e-11
2.94731e-09
-3.45441e-11
2.96498e-09
-3.515e-11
2.98274e-09
-3.569e-11
3.00092e-09
-3.6155e-11
3.01912e-09
-3.65419e-11
3.03765e-09
-3.68432e-11
3.0561e-09
-3.70575e-11
3.07481e-09
-3.71793e-11
3.09334e-09
-3.72095e-11
3.11203e-09
-3.7145e-11
3.13045e-09
-3.6989e-11
3.14893e-09
-3.67409e-11
3.16705e-09
-3.64061e-11
3.18515e-09
-3.59861e-11
3.20279e-09
-3.54882e-11
3.22035e-09
-3.49155e-11
3.23737e-09
-3.42766e-11
3.25424e-09
-3.35756e-11
3.27053e-09
-3.28218e-11
3.2866e-09
-3.20197e-11
3.30205e-09
-3.1179e-11
3.31726e-09
-3.0304e-11
3.33181e-09
-2.9404e-11
3.34608e-09
-2.84829e-11
3.3597e-09
-2.75495e-11
3.37302e-09
-2.66071e-11
3.38568e-09
-2.56635e-11
3.39806e-09
-2.47211e-11
3.40977e-09
-2.37871e-11
3.4212e-09
-2.28629e-11
3.43199e-09
-2.19546e-11
3.44252e-09
-2.1063e-11
3.45242e-09
-2.01934e-11
3.46208e-09
-1.93456e-11
3.47115e-09
-1.85243e-11
3.48e-09
-1.77285e-11
3.48828e-09
-1.69621e-11
3.49637e-09
-1.62237e-11
3.50392e-09
-1.55167e-11
3.51132e-09
-1.4839e-11
3.5182e-09
-1.41935e-11
3.52497e-09
-1.35779e-11
3.53125e-09
-1.29945e-11
3.53745e-09
-1.24408e-11
3.54319e-09
-1.19188e-11
3.54888e-09
-1.14258e-11
3.55415e-09
-1.09637e-11
3.55939e-09
-1.05294e-11
3.56423e-09
-1.01249e-11
3.56908e-09
-9.74686e-12
3.57356e-09
-9.39713e-12
3.57807e-09
-9.07225e-12
3.58224e-09
-8.77396e-12
3.58647e-09
-8.49858e-12
3.59037e-09
-8.24768e-12
3.59437e-09
-8.01732e-12
3.59805e-09
-7.80883e-12
3.60186e-09
-7.61801e-12
3.60535e-09
-7.4459e-12
3.609e-09
-7.28808e-12
3.61234e-09
-7.1454e-12
3.61587e-09
-7.01338e-12
3.61908e-09
-6.89283e-12
3.6225e-09
-6.77947e-12
3.62559e-09
-6.67438e-12
3.62892e-09
-6.57386e-12
3.63191e-09
-6.4796e-12
3.63515e-09
-6.38883e-12
3.63805e-09
-6.30421e-12
3.64121e-09
-6.22417e-12
3.64402e-09
-6.15258e-12
3.64712e-09
-6.08913e-12
3.64986e-09
-6.03902e-12
3.65292e-09
-6.00303e-12
3.65562e-09
-5.98754e-12
3.65867e-09
-5.99399e-12
3.66137e-09
-6.02964e-12
3.66447e-09
-6.09596e-12
3.66723e-09
-6.20049e-12
3.67046e-09
-6.34387e-12
3.67336e-09
-6.53323e-12
3.67682e-09
-6.76738e-12
3.67995e-09
-7.05205e-12
3.68373e-09
-7.38317e-12
3.68719e-09
-7.7641e-12
3.6914e-09
-8.18684e-12
3.69528e-09
-8.65138e-12
3.7e-09
-9.14512e-12
3.70435e-09
-9.66403e-12
3.70966e-09
-1.01907e-11
3.7145e-09
-1.0717e-11
3.7204e-09
-1.12213e-11
3.72569e-09
-1.16921e-11
3.7321e-09
-1.21052e-11
3.73774e-09
-1.24472e-11
3.74453e-09
-1.26937e-11
3.75032e-09
-1.28321e-11
3.75727e-09
-1.28404e-11
3.76295e-09
-1.27096e-11
3.76978e-09
-1.24228e-11
3.77504e-09
-1.19772e-11
3.78142e-09
-1.13627e-11
3.78592e-09
-1.05845e-11
3.79151e-09
-9.6406e-12
3.79494e-09
-8.54446e-12
3.79941e-09
-7.30034e-12
3.80146e-09
-5.92786e-12
3.80454e-09
-4.43598e-12
3.80499e-09
-2.84845e-12
3.80648e-09
-1.17814e-12
3.80518e-09
5.45061e-13
3.80496e-09
2.30744e-12
3.80186e-09
4.07683e-12
3.7999e-09
5.84033e-12
3.79504e-09
7.56534e-12
3.79139e-09
9.24152e-12
3.78486e-09
1.08376e-11
3.77965e-09
1.2347e-11
3.77165e-09
1.37429e-11
3.76441e-09
1.50162e-11
3.75664e-09
1.61775e-11
3.74808e-09
1.70919e-11
1.83544e-11
2.50003e-09
-1.10135e-13
2.50011e-09
-3.2983e-13
2.50027e-09
-5.51211e-13
2.50049e-09
-7.72593e-13
2.5008e-09
-9.94152e-13
2.50118e-09
-1.21621e-12
2.50164e-09
-1.43894e-12
2.50215e-09
-1.66256e-12
2.50277e-09
-1.88726e-12
2.50343e-09
-2.11334e-12
2.50419e-09
-2.34103e-12
2.50501e-09
-2.5707e-12
2.50592e-09
-2.80266e-12
2.50689e-09
-3.03734e-12
2.50796e-09
-3.27511e-12
2.50908e-09
-3.51649e-12
2.51032e-09
-3.7619e-12
2.5116e-09
-4.01194e-12
2.513e-09
-4.26711e-12
2.51445e-09
-4.52805e-12
2.51602e-09
-4.79532e-12
2.51765e-09
-5.06966e-12
2.51941e-09
-5.35165e-12
2.52121e-09
-5.64209e-12
2.52317e-09
-5.94163e-12
2.52518e-09
-6.25112e-12
2.52734e-09
-6.57124e-12
2.52955e-09
-6.9029e-12
2.53194e-09
-7.24684e-12
2.53438e-09
-7.60399e-12
2.53701e-09
-7.97514e-12
2.5397e-09
-8.36128e-12
2.54259e-09
-8.7632e-12
2.54554e-09
-9.18196e-12
2.54871e-09
-9.61837e-12
2.55196e-09
-1.00735e-11
2.55544e-09
-1.05483e-11
2.55899e-09
-1.10437e-11
2.56281e-09
-1.15607e-11
2.56671e-09
-1.21003e-11
2.57089e-09
-1.26636e-11
2.57517e-09
-1.32515e-11
2.57974e-09
-1.38651e-11
2.58443e-09
-1.45054e-11
2.58944e-09
-1.51732e-11
2.59457e-09
-1.58698e-11
2.60005e-09
-1.6596e-11
2.60568e-09
-1.73528e-11
2.61167e-09
-1.8141e-11
2.61782e-09
-1.89617e-11
2.62437e-09
-1.98154e-11
2.63109e-09
-2.07031e-11
2.63824e-09
-2.16253e-11
2.64559e-09
-2.25827e-11
2.65339e-09
-2.35755e-11
2.6614e-09
-2.46043e-11
2.6699e-09
-2.56689e-11
2.67864e-09
-2.67693e-11
2.68789e-09
-2.79049e-11
2.69739e-09
-2.90754e-11
2.70744e-09
-3.02794e-11
2.71776e-09
-3.15157e-11
2.72865e-09
-3.27822e-11
2.73984e-09
-3.40768e-11
2.75162e-09
-3.53961e-11
2.76371e-09
-3.67368e-11
2.77641e-09
-3.80945e-11
2.78943e-09
-3.94641e-11
2.80308e-09
-4.08397e-11
2.81704e-09
-4.22148e-11
2.83163e-09
-4.35816e-11
2.84654e-09
-4.49319e-11
2.86207e-09
-4.62563e-11
2.87788e-09
-4.75451e-11
2.8943e-09
-4.87875e-11
2.91096e-09
-4.99723e-11
2.9282e-09
-5.10881e-11
2.94562e-09
-5.21232e-11
2.96356e-09
-5.30662e-11
2.98162e-09
-5.39059e-11
3.00012e-09
-5.46318e-11
3.01865e-09
-5.52348e-11
3.03754e-09
-5.57066e-11
3.05636e-09
-5.60407e-11
3.07543e-09
-5.62326e-11
3.09434e-09
-5.62793e-11
3.11339e-09
-5.61801e-11
3.13218e-09
-5.59363e-11
3.15101e-09
-5.5551e-11
3.16947e-09
-5.5029e-11
3.18787e-09
-5.43769e-11
3.20582e-09
-5.36026e-11
3.22364e-09
-5.27151e-11
3.24092e-09
-5.17242e-11
3.258e-09
-5.06405e-11
3.27449e-09
-4.94749e-11
3.29072e-09
-4.82385e-11
3.30632e-09
-4.69423e-11
3.32162e-09
-4.55973e-11
3.33627e-09
-4.4214e-11
3.3506e-09
-4.28024e-11
3.36425e-09
-4.13722e-11
3.37759e-09
-3.99322e-11
3.39025e-09
-3.84908e-11
3.40259e-09
-3.70553e-11
3.41427e-09
-3.56328e-11
3.42564e-09
-3.4229e-11
3.43636e-09
-3.28498e-11
3.44681e-09
-3.14994e-11
3.45663e-09
-3.01823e-11
3.46618e-09
-2.89016e-11
3.47515e-09
-2.76606e-11
3.48388e-09
-2.64612e-11
3.49205e-09
-2.53057e-11
3.50003e-09
-2.41951e-11
3.50747e-09
-2.3131e-11
3.51474e-09
-2.21135e-11
3.52151e-09
-2.11435e-11
3.52815e-09
-2.02206e-11
3.53433e-09
-1.93452e-11
3.5404e-09
-1.85164e-11
3.54603e-09
-1.77342e-11
3.5516e-09
-1.69973e-11
3.55675e-09
-1.63056e-11
3.56188e-09
-1.56576e-11
3.56662e-09
-1.50531e-11
3.57136e-09
-1.44902e-11
3.57574e-09
-1.39686e-11
3.58015e-09
-1.34865e-11
3.58422e-09
-1.30431e-11
3.58836e-09
-1.26364e-11
3.59218e-09
-1.22654e-11
3.59609e-09
-1.19276e-11
3.5997e-09
-1.16216e-11
3.60343e-09
-1.13444e-11
3.60686e-09
-1.10941e-11
3.61045e-09
-1.08672e-11
3.61375e-09
-1.06614e-11
3.61723e-09
-1.0473e-11
3.62041e-09
-1.02994e-11
3.62379e-09
-1.01374e-11
3.62687e-09
-9.98434e-12
3.63016e-09
-9.83816e-12
3.63315e-09
-9.69703e-12
3.63635e-09
-9.5605e-12
3.63924e-09
-9.42817e-12
3.64236e-09
-9.30172e-12
3.64514e-09
-9.18269e-12
3.64818e-09
-9.07508e-12
3.65087e-09
-8.98252e-12
3.65383e-09
-8.911e-12
3.65645e-09
-8.86622e-12
3.65938e-09
-8.85547e-12
3.66197e-09
-8.88602e-12
3.66491e-09
-8.96535e-12
3.66753e-09
-9.10163e-12
3.67058e-09
-9.30113e-12
3.67332e-09
-9.57177e-12
3.67657e-09
-9.91689e-12
3.67954e-09
-1.03428e-11
3.68311e-09
-1.08481e-11
3.68643e-09
-1.14358e-11
3.69047e-09
-1.20977e-11
3.69425e-09
-1.28319e-11
3.69888e-09
-1.36224e-11
3.70322e-09
-1.44604e-11
3.70852e-09
-1.5322e-11
3.71347e-09
-1.61907e-11
3.71948e-09
-1.70359e-11
3.72502e-09
-1.78342e-11
3.73169e-09
-1.85505e-11
3.73772e-09
-1.9157e-11
3.74491e-09
-1.96191e-11
3.75123e-09
-1.99083e-11
3.7587e-09
-1.99954e-11
3.765e-09
-1.98559e-11
3.77242e-09
-1.94711e-11
3.77836e-09
-1.88248e-11
3.78534e-09
-1.79125e-11
3.79051e-09
-1.67295e-11
3.79666e-09
-1.52865e-11
3.80069e-09
-1.35902e-11
3.80563e-09
-1.16644e-11
3.80817e-09
-9.52383e-12
3.81158e-09
-7.20201e-12
3.81237e-09
-4.71673e-12
3.814e-09
-2.11124e-12
3.81288e-09
5.87856e-13
3.81262e-09
3.33621e-12
3.80951e-09
6.10548e-12
3.80734e-09
8.85114e-12
3.80231e-09
1.1546e-11
3.79829e-09
1.41481e-11
3.79143e-09
1.6634e-11
3.78572e-09
1.89666e-11
3.77729e-09
2.11297e-11
3.76946e-09
2.30866e-11
3.76113e-09
2.48614e-11
3.75199e-09
2.62621e-11
2.81676e-11
2.50003e-09
-1.46484e-13
2.5001e-09
-4.38829e-13
2.50027e-09
-7.33207e-13
2.50049e-09
-1.0275e-12
2.5008e-09
-1.32196e-12
2.50117e-09
-1.61696e-12
2.50163e-09
-1.91272e-12
2.50214e-09
-2.20948e-12
2.50274e-09
-2.50753e-12
2.5034e-09
-2.80719e-12
2.50416e-09
-3.10884e-12
2.50496e-09
-3.41289e-12
2.50587e-09
-3.71981e-12
2.50682e-09
-4.03011e-12
2.50788e-09
-4.34437e-12
2.50898e-09
-4.66318e-12
2.5102e-09
-4.98721e-12
2.51146e-09
-5.31717e-12
2.51284e-09
-5.6538e-12
2.51426e-09
-5.99791e-12
2.51581e-09
-6.35032e-12
2.5174e-09
-6.71191e-12
2.51913e-09
-7.08359e-12
2.5209e-09
-7.46632e-12
2.52282e-09
-7.86108e-12
2.52478e-09
-8.26889e-12
2.5269e-09
-8.69081e-12
2.52907e-09
-9.1279e-12
2.5314e-09
-9.5813e-12
2.53379e-09
-1.00521e-11
2.53636e-09
-1.05416e-11
2.53898e-09
-1.10508e-11
2.54181e-09
-1.15811e-11
2.54469e-09
-1.21336e-11
2.54779e-09
-1.27097e-11
2.55095e-09
-1.33106e-11
2.55435e-09
-1.39377e-11
2.55782e-09
-1.45921e-11
2.56155e-09
-1.52754e-11
2.56536e-09
-1.59888e-11
2.56944e-09
-1.67337e-11
2.57362e-09
-1.75115e-11
2.57809e-09
-1.83236e-11
2.58266e-09
-1.91712e-11
2.58756e-09
-2.00559e-11
2.59258e-09
-2.09789e-11
2.59794e-09
-2.19416e-11
2.60344e-09
-2.29453e-11
2.6093e-09
-2.39913e-11
2.61532e-09
-2.50808e-11
2.62174e-09
-2.6215e-11
2.62833e-09
-2.7395e-11
2.63534e-09
-2.86218e-11
2.64255e-09
-2.98963e-11
2.65021e-09
-3.12192e-11
2.65808e-09
-3.25911e-11
2.66644e-09
-3.40122e-11
2.67504e-09
-3.54828e-11
2.68416e-09
-3.70023e-11
2.69353e-09
-3.85704e-11
2.70346e-09
-4.01858e-11
2.71367e-09
-4.18471e-11
2.72445e-09
-4.3552e-11
2.73555e-09
-4.52976e-11
2.74725e-09
-4.70804e-11
2.75928e-09
-4.88958e-11
2.77194e-09
-5.07385e-11
2.78495e-09
-5.26017e-11
2.7986e-09
-5.44781e-11
2.81261e-09
-5.63584e-11
2.82728e-09
-5.82329e-11
2.8423e-09
-6.00898e-11
2.85797e-09
-6.19167e-11
2.87398e-09
-6.36994e-11
2.89064e-09
-6.5423e-11
2.90759e-09
-6.70715e-11
2.92515e-09
-6.86285e-11
2.94295e-09
-7.00765e-11
2.96131e-09
-7.13991e-11
2.97983e-09
-7.25793e-11
2.99882e-09
-7.3602e-11
3.01788e-09
-7.44526e-11
3.03731e-09
-7.51193e-11
3.0567e-09
-7.5592e-11
3.07635e-09
-7.58639e-11
3.09584e-09
-7.59304e-11
3.11547e-09
-7.57911e-11
3.13482e-09
-7.54475e-11
3.15419e-09
-7.4905e-11
3.17317e-09
-7.41708e-11
3.19207e-09
-7.32552e-11
3.21047e-09
-7.21698e-11
3.2287e-09
-7.09283e-11
3.24636e-09
-6.95452e-11
3.26377e-09
-6.8036e-11
3.28054e-09
-6.64162e-11
3.29702e-09
-6.4702e-11
3.31282e-09
-6.2909e-11
3.32829e-09
-6.10524e-11
3.34305e-09
-5.91471e-11
3.35747e-09
-5.72071e-11
3.37118e-09
-5.52454e-11
3.38453e-09
-5.32743e-11
3.39717e-09
-5.13051e-11
3.40947e-09
-4.93479e-11
3.42108e-09
-4.7412e-11
3.43237e-09
-4.55055e-11
3.44298e-09
-4.36356e-11
3.4533e-09
-4.18084e-11
3.46297e-09
-4.00295e-11
3.47238e-09
-3.83029e-11
3.48118e-09
-3.66325e-11
3.48974e-09
-3.5021e-11
3.49773e-09
-3.3471e-11
3.50552e-09
-3.19835e-11
3.51278e-09
-3.05603e-11
3.51986e-09
-2.92014e-11
3.52645e-09
-2.79075e-11
3.5329e-09
-2.6678e-11
3.53889e-09
-2.55129e-11
3.54478e-09
-2.4411e-11
3.55024e-09
-2.33719e-11
3.55563e-09
-2.23941e-11
3.56062e-09
-2.14769e-11
3.56557e-09
-2.06186e-11
3.57015e-09
-1.98186e-11
3.57473e-09
-1.90747e-11
3.57896e-09
-1.83865e-11
3.58322e-09
-1.77517e-11
3.58715e-09
-1.71695e-11
3.59115e-09
-1.66373e-11
3.59484e-09
-1.6154e-11
3.59863e-09
-1.57164e-11
3.60212e-09
-1.53226e-11
3.60575e-09
-1.49687e-11
3.6091e-09
-1.46517e-11
3.61261e-09
-1.4367e-11
3.61584e-09
-1.41105e-11
3.61926e-09
-1.38772e-11
3.6224e-09
-1.36623e-11
3.62574e-09
-1.3461e-11
3.6288e-09
-1.32687e-11
3.63207e-09
-1.30818e-11
3.63503e-09
-1.28967e-11
3.63822e-09
-1.27126e-11
3.64108e-09
-1.25278e-11
3.64416e-09
-1.23449e-11
3.6469e-09
-1.21653e-11
3.64987e-09
-1.19949e-11
3.65247e-09
-1.18388e-11
3.65532e-09
-1.17061e-11
3.65781e-09
-1.16051e-11
3.66056e-09
-1.15469e-11
3.66296e-09
-1.15429e-11
3.66568e-09
-1.16047e-11
3.66805e-09
-1.17454e-11
3.67081e-09
-1.19753e-11
3.67327e-09
-1.2308e-11
3.6762e-09
-1.27497e-11
3.67887e-09
-1.33125e-11
3.68213e-09
-1.39958e-11
3.68517e-09
-1.48074e-11
3.68893e-09
-1.57372e-11
3.69251e-09
-1.67855e-11
3.69696e-09
-1.79305e-11
3.70123e-09
-1.91621e-11
3.70651e-09
-2.04457e-11
3.71158e-09
-2.17591e-11
3.71778e-09
-2.30561e-11
3.72366e-09
-2.43027e-11
3.73076e-09
-2.54451e-11
3.73737e-09
-2.64409e-11
3.74523e-09
-2.72358e-11
3.75234e-09
-2.77853e-11
3.76068e-09
-2.80434e-11
3.76794e-09
-2.79713e-11
3.77636e-09
-2.75394e-11
3.78333e-09
-2.67221e-11
3.79134e-09
-2.55125e-11
3.79753e-09
-2.39029e-11
3.80464e-09
-2.19108e-11
3.80956e-09
-1.95461e-11
3.81531e-09
-1.68465e-11
3.81855e-09
-1.38336e-11
3.82255e-09
-1.05581e-11
3.82379e-09
-7.04553e-12
3.82575e-09
-3.3615e-12
3.82479e-09
4.55643e-13
3.82456e-09
4.33968e-12
3.82134e-09
8.25083e-12
3.81891e-09
1.2123e-11
3.81348e-09
1.59183e-11
3.80896e-09
1.9575e-11
3.80147e-09
2.30604e-11
3.79503e-09
2.63201e-11
3.78578e-09
2.93311e-11
3.77707e-09
3.20424e-11
3.76781e-09
3.4482e-11
3.7577e-09
3.64003e-11
3.89637e-11
2.50003e-09
-1.8254e-13
2.5001e-09
-5.47078e-13
2.50026e-09
-9.13867e-13
2.50049e-09
-1.28045e-12
2.50079e-09
-1.64709e-12
2.50116e-09
-2.01419e-12
2.50161e-09
-2.38201e-12
2.50212e-09
-2.7508e-12
2.50272e-09
-3.12091e-12
2.50337e-09
-3.4927e-12
2.50411e-09
-3.86665e-12
2.50491e-09
-4.24325e-12
2.5058e-09
-4.62309e-12
2.50674e-09
-5.00681e-12
2.50778e-09
-5.39511e-12
2.50886e-09
-5.78877e-12
2.51005e-09
-6.18863e-12
2.51129e-09
-6.59555e-12
2.51264e-09
-7.01051e-12
2.51403e-09
-7.4345e-12
2.51554e-09
-7.86857e-12
2.51709e-09
-8.31383e-12
2.51878e-09
-8.77144e-12
2.5205e-09
-9.24259e-12
2.52237e-09
-9.72854e-12
2.52427e-09
-1.02305e-11
2.52633e-09
-1.075e-11
2.52843e-09
-1.12881e-11
2.5307e-09
-1.18465e-11
2.53301e-09
-1.24264e-11
2.53551e-09
-1.30295e-11
2.53805e-09
-1.3657e-11
2.54078e-09
-1.43108e-11
2.54357e-09
-1.49922e-11
2.54657e-09
-1.57029e-11
2.54964e-09
-1.64444e-11
2.55292e-09
-1.72186e-11
2.55628e-09
-1.80269e-11
2.55989e-09
-1.88711e-11
2.56358e-09
-1.9753e-11
2.56753e-09
-2.06742e-11
2.57157e-09
-2.16365e-11
2.5759e-09
-2.26416e-11
2.58033e-09
-2.36914e-11
2.58508e-09
-2.47874e-11
2.58994e-09
-2.59317e-11
2.59514e-09
-2.71257e-11
2.60047e-09
-2.83714e-11
2.60616e-09
-2.96703e-11
2.61201e-09
-3.10242e-11
2.61824e-09
-3.24347e-11
2.62465e-09
-3.39033e-11
2.63148e-09
-3.54314e-11
2.6385e-09
-3.70204e-11
2.64596e-09
-3.86715e-11
2.65365e-09
-4.03855e-11
2.66182e-09
-4.21634e-11
2.67022e-09
-4.40055e-11
2.67915e-09
-4.59119e-11
2.68835e-09
-4.78824e-11
2.69809e-09
-4.99162e-11
2.70814e-09
-5.20117e-11
2.71877e-09
-5.4167e-11
2.72972e-09
-5.63791e-11
2.74131e-09
-5.8644e-11
2.75324e-09
-6.09567e-11
2.76583e-09
-6.3311e-11
2.77879e-09
-6.56993e-11
2.79244e-09
-6.81123e-11
2.80649e-09
-7.05391e-11
2.82124e-09
-7.29672e-11
2.83639e-09
-7.53818e-11
2.85226e-09
-7.77665e-11
2.86852e-09
-8.01029e-11
2.88549e-09
-8.23709e-11
2.90282e-09
-8.45485e-11
2.92082e-09
-8.6613e-11
2.93913e-09
-8.85402e-11
2.95806e-09
-9.03063e-11
2.97721e-09
-9.18871e-11
2.99689e-09
-9.32605e-11
3.01669e-09
-9.44056e-11
3.03689e-09
-9.53047e-11
3.05709e-09
-9.59432e-11
3.07755e-09
-9.63111e-11
3.09786e-09
-9.64019e-11
3.1183e-09
-9.6215e-11
3.13845e-09
-9.5753e-11
3.15858e-09
-9.5024e-11
3.17829e-09
-9.4039e-11
3.19786e-09
-9.28133e-11
3.21689e-09
-9.13637e-11
3.23569e-09
-8.97103e-11
3.25385e-09
-8.78736e-11
3.27171e-09
-8.58759e-11
3.28887e-09
-8.37387e-11
3.30566e-09
-8.14844e-11
3.32172e-09
-7.91341e-11
3.33739e-09
-7.67084e-11
3.3523e-09
-7.42267e-11
3.36681e-09
-7.17074e-11
3.38057e-09
-6.91673e-11
3.39392e-09
-6.66221e-11
3.40654e-09
-6.4086e-11
3.41876e-09
-6.15717e-11
3.43028e-09
-5.90907e-11
3.44143e-09
-5.66531e-11
3.45189e-09
-5.42677e-11
3.46203e-09
-5.19419e-11
3.47151e-09
-4.96824e-11
3.4807e-09
-4.74941e-11
3.48928e-09
-4.53815e-11
3.49761e-09
-4.33475e-11
3.50536e-09
-4.1395e-11
3.5129e-09
-3.9525e-11
3.51991e-09
-3.77391e-11
3.52674e-09
-3.6037e-11
3.53308e-09
-3.44191e-11
3.53927e-09
-3.28841e-11
3.54502e-09
-3.14317e-11
3.55066e-09
-3.00598e-11
3.55588e-09
-2.87678e-11
3.56102e-09
-2.75533e-11
3.56578e-09
-2.64155e-11
3.57051e-09
-2.53517e-11
3.57487e-09
-2.43614e-11
3.57923e-09
-2.34419e-11
3.58325e-09
-2.25928e-11
3.5873e-09
-2.18115e-11
3.59104e-09
-2.10974e-11
3.59484e-09
-2.04476e-11
3.59836e-09
-1.98613e-11
3.60197e-09
-1.93347e-11
3.60532e-09
-1.88658e-11
3.6088e-09
-1.84497e-11
3.61203e-09
-1.80827e-11
3.61543e-09
-1.77581e-11
3.61857e-09
-1.74705e-11
3.62192e-09
-1.7212e-11
3.62501e-09
-1.69754e-11
3.62832e-09
-1.67529e-11
3.63136e-09
-1.65368e-11
3.63462e-09
-1.6321e-11
3.63759e-09
-1.60991e-11
3.64078e-09
-1.58686e-11
3.64363e-09
-1.56263e-11
3.6467e-09
-1.53747e-11
3.6494e-09
-1.51153e-11
3.65231e-09
-1.48561e-11
3.65483e-09
-1.46036e-11
3.65755e-09
-1.43711e-11
3.65987e-09
-1.41701e-11
3.66241e-09
-1.40176e-11
3.66455e-09
-1.39292e-11
3.66694e-09
-1.39237e-11
3.66897e-09
-1.402e-11
3.67132e-09
-1.42357e-11
3.67336e-09
-1.45911e-11
3.67581e-09
-1.50997e-11
3.67802e-09
-1.57802e-11
3.68077e-09
-1.66378e-11
3.68337e-09
-1.76862e-11
3.68668e-09
-1.89174e-11
3.6899e-09
-2.03351e-11
3.69402e-09
-2.19141e-11
3.69811e-09
-2.36431e-11
3.7033e-09
-2.54768e-11
3.70846e-09
-2.73852e-11
3.71488e-09
-2.93034e-11
3.72119e-09
-3.11823e-11
3.72888e-09
-3.29428e-11
3.73629e-09
-3.45215e-11
3.74512e-09
-3.58354e-11
3.75338e-09
-3.68168e-11
3.763e-09
-3.73936e-11
3.77167e-09
-3.75071e-11
3.78157e-09
-3.71101e-11
3.79006e-09
-3.61651e-11
3.79962e-09
-3.46602e-11
3.80728e-09
-3.25865e-11
3.81583e-09
-2.99695e-11
3.82205e-09
-2.68276e-11
3.82898e-09
-2.32163e-11
3.83323e-09
-1.917e-11
3.83808e-09
-1.476e-11
3.83995e-09
-1.00274e-11
3.84237e-09
-5.05904e-12
3.84163e-09
8.5907e-14
3.84144e-09
5.31739e-12
3.83802e-09
1.0578e-11
3.83523e-09
1.57786e-11
3.82921e-09
2.08652e-11
3.82395e-09
2.57545e-11
3.81554e-09
3.04002e-11
3.80806e-09
3.47287e-11
3.79762e-09
3.87072e-11
3.78765e-09
4.22674e-11
3.77707e-09
4.54401e-11
3.76558e-09
4.79155e-11
5.11377e-11
2.50003e-09
-2.18385e-13
2.5001e-09
-6.54722e-13
2.50026e-09
-1.0934e-12
2.50048e-09
-1.53166e-12
2.50079e-09
-1.96975e-12
2.50115e-09
-2.40807e-12
2.5016e-09
-2.84686e-12
2.5021e-09
-3.28638e-12
2.5027e-09
-3.72701e-12
2.50334e-09
-4.16916e-12
2.50407e-09
-4.61338e-12
2.50485e-09
-5.06025e-12
2.50573e-09
-5.51049e-12
2.50665e-09
-5.96483e-12
2.50767e-09
-6.42417e-12
2.50872e-09
-6.88942e-12
2.50989e-09
-7.3616e-12
2.51109e-09
-7.84178e-12
2.51241e-09
-8.33113e-12
2.51376e-09
-8.83084e-12
2.51523e-09
-9.34224e-12
2.51673e-09
-9.86662e-12
2.51836e-09
-1.04054e-11
2.52002e-09
-1.09601e-11
2.52183e-09
-1.15321e-11
2.52366e-09
-1.2123e-11
2.52565e-09
-1.27345e-11
2.52767e-09
-1.33682e-11
2.52985e-09
-1.40258e-11
2.53207e-09
-1.47089e-11
2.53447e-09
-1.54196e-11
2.53691e-09
-1.61594e-11
2.53953e-09
-1.69303e-11
2.54221e-09
-1.77343e-11
2.54509e-09
-1.85731e-11
2.54802e-09
-1.94489e-11
2.55117e-09
-2.03635e-11
2.55439e-09
-2.13191e-11
2.55785e-09
-2.23176e-11
2.56138e-09
-2.33612e-11
2.56516e-09
-2.44519e-11
2.56904e-09
-2.55919e-11
2.57319e-09
-2.67833e-11
2.57744e-09
-2.80283e-11
2.582e-09
-2.9329e-11
2.58666e-09
-3.06877e-11
2.59166e-09
-3.21065e-11
2.59678e-09
-3.35876e-11
2.60226e-09
-3.51332e-11
2.60788e-09
-3.67454e-11
2.61389e-09
-3.84264e-11
2.62006e-09
-4.01781e-11
2.62665e-09
-4.20026e-11
2.63343e-09
-4.39019e-11
2.64065e-09
-4.58775e-11
2.64809e-09
-4.79313e-11
2.656e-09
-5.00645e-11
2.66416e-09
-5.22783e-11
2.67284e-09
-5.45734e-11
2.68179e-09
-5.69503e-11
2.6913e-09
-5.94087e-11
2.70111e-09
-6.19478e-11
2.71153e-09
-6.45661e-11
2.72229e-09
-6.72611e-11
2.73369e-09
-7.00291e-11
2.74547e-09
-7.28651e-11
2.75794e-09
-7.57627e-11
2.77082e-09
-7.87137e-11
2.78443e-09
-8.17079e-11
2.79849e-09
-8.47326e-11
2.81332e-09
-8.77731e-11
2.8286e-09
-9.08116e-11
2.84469e-09
-9.38279e-11
2.86124e-09
-9.67982e-11
2.87858e-09
-9.96967e-11
2.89638e-09
-1.02494e-10
2.91495e-09
-1.0516e-10
2.93391e-09
-1.0766e-10
2.95359e-09
-1.09961e-10
2.97358e-09
-1.12029e-10
2.99417e-09
-1.13832e-10
3.01495e-09
-1.15339e-10
3.03619e-09
-1.16524e-10
3.05745e-09
-1.17366e-10
3.07901e-09
-1.17851e-10
3.10042e-09
-1.17971e-10
3.12195e-09
-1.17724e-10
3.14315e-09
-1.17116e-10
3.1643e-09
-1.16159e-10
3.18497e-09
-1.14869e-10
3.20544e-09
-1.13268e-10
3.22529e-09
-1.11381e-10
3.24483e-09
-1.09236e-10
3.26366e-09
-1.06862e-10
3.28208e-09
-1.0429e-10
3.29973e-09
-1.01549e-10
3.31693e-09
-9.86693e-11
3.33331e-09
-9.56791e-11
3.34922e-09
-9.26056e-11
3.3643e-09
-8.94738e-11
3.37891e-09
-8.63069e-11
3.3927e-09
-8.31262e-11
3.40604e-09
-7.99506e-11
3.41858e-09
-7.67974e-11
3.4307e-09
-7.36817e-11
3.44206e-09
-7.06169e-11
3.45302e-09
-6.76145e-11
3.46327e-09
-6.46848e-11
3.47317e-09
-6.18358e-11
3.48239e-09
-5.90751e-11
3.49131e-09
-5.6408e-11
3.4996e-09
-5.38394e-11
3.50762e-09
-5.13723e-11
3.51506e-09
-4.90094e-11
3.52228e-09
-4.67517e-11
3.52898e-09
-4.46001e-11
3.53548e-09
-4.25539e-11
3.54151e-09
-4.0613e-11
3.54739e-09
-3.87749e-11
3.55282e-09
-3.70389e-11
3.55815e-09
-3.54017e-11
3.56307e-09
-3.3862e-11
3.56792e-09
-3.24164e-11
3.57239e-09
-3.10636e-11
3.57682e-09
-2.98002e-11
3.58091e-09
-2.86253e-11
3.58499e-09
-2.75359e-11
3.58875e-09
-2.65318e-11
3.59254e-09
-2.56102e-11
3.59602e-09
-2.47714e-11
3.59958e-09
-2.40122e-11
3.60286e-09
-2.3333e-11
3.60625e-09
-2.27294e-11
3.60939e-09
-2.22004e-11
3.61268e-09
-2.17398e-11
3.61574e-09
-2.13436e-11
3.61899e-09
-2.10031e-11
3.62202e-09
-2.07108e-11
3.62527e-09
-2.04552e-11
3.6283e-09
-2.02256e-11
3.63157e-09
-2.00096e-11
3.6346e-09
-1.97949e-11
3.63787e-09
-1.95706e-11
3.64085e-09
-1.93262e-11
3.64407e-09
-1.90556e-11
3.64695e-09
-1.8753e-11
3.65003e-09
-1.842e-11
3.65272e-09
-1.80575e-11
3.65558e-09
-1.76757e-11
3.65801e-09
-1.72834e-11
3.6606e-09
-1.68986e-11
3.66272e-09
-1.65371e-11
3.66499e-09
-1.62229e-11
3.6668e-09
-1.59784e-11
3.66879e-09
-1.58307e-11
3.67035e-09
-1.58076e-11
3.67214e-09
-1.59362e-11
3.67358e-09
-1.6248e-11
3.67535e-09
-1.67657e-11
3.67686e-09
-1.75213e-11
3.67887e-09
-1.85276e-11
3.68075e-09
-1.98117e-11
3.68333e-09
-2.13697e-11
3.68593e-09
-2.3216e-11
3.68947e-09
-2.53229e-11
3.69316e-09
-2.76827e-11
3.69806e-09
-3.02376e-11
3.70318e-09
-3.29501e-11
3.70976e-09
-3.57312e-11
3.71654e-09
-3.8511e-11
3.72493e-09
-4.11754e-11
3.73337e-09
-4.36285e-11
3.74347e-09
-4.57461e-11
3.75328e-09
-4.74223e-11
3.76467e-09
-4.85467e-11
3.77528e-09
-4.90271e-11
3.78726e-09
-4.87919e-11
3.79789e-09
-4.77843e-11
3.8096e-09
-4.59878e-11
3.81935e-09
-4.33926e-11
3.82988e-09
-4.00396e-11
3.83792e-09
-3.59612e-11
3.84651e-09
-3.12402e-11
3.85215e-09
-2.59308e-11
3.85817e-09
-2.01329e-11
3.86092e-09
-1.39093e-11
3.86396e-09
-7.37068e-12
3.86353e-09
-6.05924e-13
3.86339e-09