/*--------------------------------*- C++ -*----------------------------------*\
  =========                 |
  \\      /  F ield         | OpenFOAM: The Open Source CFD Toolbox
   \\    /   O peration     | Website:  https://openfoam.org
    \\  /    A nd           | Version:  10
     \\/     M anipulation  |
\*---------------------------------------------------------------------------*/
FoamFile
{
    format      ascii;
    class       volVectorField;
    location    "0.056";
    object      U;
}
// * * * * * * * * * * * * * * * * * * * * * * * * * * * * * * * * * * * * * //

dimensions      [0 1 -1 0 0 0 0];

internalField   nonuniform List<vector> 
4000
(
(5.00002 -7.3441e-05 0)
(5.0001 -0.000220053 0)
(5.00034 -0.000367596 0)
(5.00073 -0.000516063 0)
(5.00128 -0.000663727 0)
(5.00197 -0.000812946 0)
(5.00281 -0.000961413 0)
(5.00379 -0.0011121 0)
(5.00493 -0.00126205 0)
(5.00622 -0.00141488 0)
(5.00767 -0.00156698 0)
(5.00926 -0.00172268 0)
(5.01101 -0.00187776 0)
(5.01292 -0.00203727 0)
(5.01499 -0.00219632 0)
(5.01721 -0.00236072 0)
(5.0196 -0.00252493 0)
(5.02216 -0.00269552 0)
(5.02489 -0.00286626 0)
(5.02778 -0.00304453 0)
(5.03086 -0.00322338 0)
(5.03412 -0.00341098 0)
(5.03757 -0.00359968 0)
(5.04121 -0.00379845 0)
(5.04505 -0.00399888 0)
(5.04909 -0.00421076 0)
(5.05334 -0.00442494 0)
(5.05782 -0.004652 0)
(5.06252 -0.00488207 0)
(5.06746 -0.0051265 0)
(5.07264 -0.00537469 0)
(5.07808 -0.00563879 0)
(5.08378 -0.00590746 0)
(5.08976 -0.00619361 0)
(5.09603 -0.00648519 0)
(5.10259 -0.00679589 0)
(5.10947 -0.0071129 0)
(5.11667 -0.0074507 0)
(5.12422 -0.00779572 0)
(5.13211 -0.00816324 0)
(5.14038 -0.00853889 0)
(5.14903 -0.00893875 0)
(5.15809 -0.00934767 0)
(5.16756 -0.00978251 0)
(5.17747 -0.0102273 0)
(5.18784 -0.0106997 0)
(5.19869 -0.0111829 0)
(5.21003 -0.0116953 0)
(5.22189 -0.0122192 0)
(5.23428 -0.0127738 0)
(5.24723 -0.0133406 0)
(5.26076 -0.0139394 0)
(5.2749 -0.0145507 0)
(5.28966 -0.0151951 0)
(5.30508 -0.0158519 0)
(5.32116 -0.0165425 0)
(5.33794 -0.0172451 0)
(5.35543 -0.0179815 0)
(5.37367 -0.0187289 0)
(5.39267 -0.0195093 0)
(5.41246 -0.0202988 0)
(5.43305 -0.0211197 0)
(5.45446 -0.0219466 0)
(5.47672 -0.022802 0)
(5.49983 -0.023659 0)
(5.52381 -0.02454 0)
(5.54868 -0.0254167 0)
(5.57443 -0.0263112 0)
(5.60107 -0.0271935 0)
(5.6286 -0.0280856 0)
(5.65703 -0.0289557 0)
(5.68632 -0.0298257 0)
(5.71647 -0.0306619 0)
(5.74746 -0.0314864 0)
(5.77926 -0.0322641 0)
(5.81183 -0.0330171 0)
(5.84513 -0.0337093 0)
(5.87911 -0.0343635 0)
(5.91372 -0.034943 0)
(5.94888 -0.0354716 0)
(5.98454 -0.0359131 0)
(6.02061 -0.0362928 0)
(6.05702 -0.0365752 0)
(6.09368 -0.0367878 0)
(6.13051 -0.0368967 0)
(6.16741 -0.0369317 0)
(6.20429 -0.0368607 0)
(6.24106 -0.0367161 0)
(6.27763 -0.0364678 0)
(6.31392 -0.0361502 0)
(6.34983 -0.0357351 0)
(6.3853 -0.035259 0)
(6.42023 -0.0346951 0)
(6.45457 -0.0340809 0)
(6.48826 -0.033391 0)
(6.52122 -0.0326635 0)
(6.55342 -0.0318737 0)
(6.58481 -0.0310597 0)
(6.61535 -0.0301969 0)
(6.64501 -0.0293233 0)
(6.67377 -0.0284138 0)
(6.70162 -0.0275058 0)
(6.72853 -0.0265739 0)
(6.75451 -0.0256541 0)
(6.77956 -0.0247206 0)
(6.80367 -0.0238082 0)
(6.82686 -0.0228904 0)
(6.84913 -0.0220011 0)
(6.87051 -0.021113 0)
(6.89102 -0.0202589 0)
(6.91066 -0.0194112 0)
(6.92948 -0.0186016 0)
(6.94748 -0.0178023 0)
(6.96471 -0.0170441 0)
(6.98119 -0.0162989 0)
(6.99694 -0.0155969 0)
(7.012 -0.0149098 0)
(7.02639 -0.0142672 0)
(7.04016 -0.0136407 0)
(7.05332 -0.0130593 0)
(7.06592 -0.0124943 0)
(7.07797 -0.0119746 0)
(7.08952 -0.011471 0)
(7.10058 -0.0110122 0)
(7.11119 -0.0105687 0)
(7.12138 -0.0101691 0)
(7.13118 -0.00978333 0)
(7.14061 -0.00944007 0)
(7.1497 -0.00910865 0)
(7.15847 -0.00881797 0)
(7.16695 -0.00853655 0)
(7.17517 -0.00829369 0)
(7.18314 -0.00805694 0)
(7.19089 -0.00785617 0)
(7.19843 -0.00765783 0)
(7.20579 -0.00749257 0)
(7.21298 -0.00732567 0)
(7.22002 -0.00718882 0)
(7.22691 -0.00704614 0)
(7.23368 -0.0069307 0)
(7.24032 -0.00680559 0)
(7.24686 -0.00670562 0)
(7.25329 -0.0065931 0)
(7.25962 -0.00650487 0)
(7.26586 -0.00640282 0)
(7.27201 -0.00632602 0)
(7.27809 -0.00623623 0)
(7.28409 -0.00617483 0)
(7.29003 -0.00610363 0)
(7.29592 -0.00606616 0)
(7.30177 -0.0060243 0)
(7.3076 -0.00602337 0)
(7.31343 -0.00602511 0)
(7.31929 -0.00607609 0)
(7.32521 -0.00613737 0)
(7.33121 -0.00625622 0)
(7.33734 -0.00639214 0)
(7.34363 -0.00659249 0)
(7.35014 -0.00681403 0)
(7.35689 -0.00710377 0)
(7.36395 -0.0074141 0)
(7.37133 -0.00779161 0)
(7.37911 -0.00818244 0)
(7.38728 -0.0086332 0)
(7.39593 -0.00908175 0)
(7.40501 -0.00957591 0)
(7.41461 -0.0100434 0)
(7.42464 -0.0105353 0)
(7.43518 -0.0109678 0)
(7.44611 -0.0113983 0)
(7.45748 -0.0117305 0)
(7.46911 -0.0120321 0)
(7.48105 -0.012194 0)
(7.49305 -0.0122989 0)
(7.50517 -0.0122255 0)
(7.5171 -0.0120753 0)
(7.52888 -0.0117155 0)
(7.54019 -0.0112698 0)
(7.55104 -0.0105945 0)
(7.56111 -0.00983836 0)
(7.57041 -0.00884704 0)
(7.57862 -0.00779482 0)
(7.58578 -0.00651614 0)
(7.59157 -0.00520784 0)
(7.59605 -0.00369209 0)
(7.59895 -0.0021863 0)
(7.60036 -0.000499961 0)
(7.60005 0.00113023 0)
(7.59814 0.00290574 0)
(7.59445 0.00457587 0)
(7.58914 0.00635407 0)
(7.58209 0.00797879 0)
(7.57346 0.00967522 0)
(7.56317 0.0111747 0)
(7.55139 0.0127145 0)
(7.53817 0.0140254 0)
(7.52336 0.0153334 0)
(7.50687 0.0164664 0)
(7.49505 0.0173546 0)
(7.46701 0.0186352 0)
(5.00002 -0.000220443 0)
(5.0001 -0.000660317 0)
(5.00034 -0.00110368 0)
(5.00073 -0.00154823 0)
(5.00127 -0.00199204 0)
(5.00196 -0.00243848 0)
(5.00279 -0.0028849 0)
(5.00377 -0.00333527 0)
(5.00491 -0.00378613 0)
(5.00619 -0.00424233 0)
(5.00763 -0.00469965 0)
(5.00922 -0.00516391 0)
(5.01096 -0.0056302 0)
(5.01286 -0.00610533 0)
(5.01492 -0.00658364 0)
(5.01713 -0.00707298 0)
(5.01951 -0.00756694 0)
(5.02205 -0.0080744 0)
(5.02476 -0.0085882 0)
(5.02764 -0.00911827 0)
(5.0307 -0.00965663 0)
(5.03394 -0.0102143 0)
(5.03736 -0.0107824 0)
(5.04098 -0.0113731 0)
(5.04479 -0.0119767 0)
(5.04881 -0.0126062 0)
(5.05303 -0.0132512 0)
(5.05747 -0.0139258 0)
(5.06214 -0.0146186 0)
(5.06704 -0.0153449 0)
(5.07218 -0.0160923 0)
(5.07758 -0.0168772 0)
(5.08324 -0.0176863 0)
(5.08917 -0.0185369 0)
(5.09539 -0.019415 0)
(5.1019 -0.0203388 0)
(5.10872 -0.0212936 0)
(5.11587 -0.0222984 0)
(5.12335 -0.0233375 0)
(5.13119 -0.0244311 0)
(5.13939 -0.0255625 0)
(5.14798 -0.0267529 0)
(5.15696 -0.0279845 0)
(5.16636 -0.0292796 0)
(5.1762 -0.0306193 0)
(5.18649 -0.0320267 0)
(5.19726 -0.0334821 0)
(5.20852 -0.0350095 0)
(5.22029 -0.0365877 0)
(5.2326 -0.0382418 0)
(5.24547 -0.0399493 0)
(5.25891 -0.0417359 0)
(5.27296 -0.0435779 0)
(5.28763 -0.0455014 0)
(5.30295 -0.0474813 0)
(5.31894 -0.049544 0)
(5.33563 -0.0516627 0)
(5.35304 -0.0538638 0)
(5.37119 -0.0561187 0)
(5.39011 -0.0584535 0)
(5.40982 -0.060837 0)
(5.43033 -0.0632951 0)
(5.45168 -0.0657938 0)
(5.47387 -0.0683579 0)
(5.49694 -0.0709504 0)
(5.52088 -0.0735945 0)
(5.54572 -0.0762497 0)
(5.57147 -0.0789377 0)
(5.59812 -0.081614 0)
(5.62568 -0.0842982 0)
(5.65415 -0.086942 0)
(5.68351 -0.0895628 0)
(5.71376 -0.0921088 0)
(5.74487 -0.0945956 0)
(5.77682 -0.0969682 0)
(5.80956 -0.0992414 0)
(5.84306 -0.101358 0)
(5.87727 -0.103334 0)
(5.91213 -0.105111 0)
(5.94758 -0.106707 0)
(5.98354 -0.108066 0)
(6.01993 -0.109209 0)
(6.05668 -0.110085 0)
(6.09369 -0.11072 0)
(6.13088 -0.111067 0)
(6.16814 -0.11116 0)
(6.20538 -0.11096 0)
(6.24251 -0.110506 0)
(6.27944 -0.109766 0)
(6.31606 -0.108787 0)
(6.3523 -0.10754 0)
(6.38806 -0.10608 0)
(6.42328 -0.104382 0)
(6.45788 -0.102503 0)
(6.49179 -0.100425 0)
(6.52496 -0.0982035 0)
(6.55733 -0.0958224 0)
(6.58887 -0.09334 0)
(6.61953 -0.0907386 0)
(6.64929 -0.0880764 0)
(6.67812 -0.0853346 0)
(6.70602 -0.0825696 0)
(6.73296 -0.0797611 0)
(6.75895 -0.0769628 0)
(6.78398 -0.0741523 0)
(6.80806 -0.0713803 0)
(6.8312 -0.0686219 0)
(6.85342 -0.065925 0)
(6.87474 -0.0632621 0)
(6.89516 -0.0606782 0)
(6.91472 -0.0581437 0)
(6.93344 -0.0557008 0)
(6.95135 -0.0533183 0)
(6.96847 -0.0510359 0)
(6.98483 -0.0488211 0)
(7.00047 -0.0467119 0)
(7.01541 -0.0446743 0)
(7.02969 -0.042745 0)
(7.04333 -0.0408892 0)
(7.05637 -0.0391425 0)
(7.06885 -0.0374692 0)
(7.08078 -0.0359042 0)
(7.0922 -0.0344112 0)
(7.10315 -0.0330245 0)
(7.11364 -0.0317071 0)
(7.12372 -0.0304932 0)
(7.13341 -0.0293448 0)
(7.14273 -0.028296 0)
(7.15172 -0.0273079 0)
(7.16039 -0.0264146 0)
(7.16878 -0.0255757 0)
(7.17691 -0.0248256 0)
(7.1848 -0.0241221 0)
(7.19247 -0.0234998 0)
(7.19995 -0.0229149 0)
(7.20725 -0.0224022 0)
(7.21439 -0.0219162 0)
(7.22138 -0.0214925 0)
(7.22824 -0.0210841 0)
(7.23498 -0.020728 0)
(7.2416 -0.0203768 0)
(7.24812 -0.0200696 0)
(7.25454 -0.0197593 0)
(7.26086 -0.0194884 0)
(7.26709 -0.0192109 0)
(7.27322 -0.0189737 0)
(7.27928 -0.0187326 0)
(7.28525 -0.0185396 0)
(7.29116 -0.0183526 0)
(7.297 -0.0182284 0)
(7.30279 -0.0181271 0)
(7.30854 -0.0181096 0)
(7.31428 -0.0181369 0)
(7.32003 -0.018273 0)
(7.32582 -0.0184782 0)
(7.33168 -0.0188179 0)
(7.33766 -0.0192489 0)
(7.34379 -0.0198362 0)
(7.35013 -0.0205298 0)
(7.35671 -0.0213923 0)
(7.36361 -0.022363 0)
(7.37085 -0.0235 0)
(7.3785 -0.0247282 0)
(7.38659 -0.0260997 0)
(7.39518 -0.0275215 0)
(7.40426 -0.0290398 0)
(7.41391 -0.0305414 0)
(7.42407 -0.0320685 0)
(7.4348 -0.0334874 0)
(7.446 -0.034841 0)
(7.45772 -0.0359769 0)
(7.46979 -0.0369462 0)
(7.48223 -0.037582 0)
(7.49484 -0.0379531 0)
(7.5076 -0.0378842 0)
(7.52027 -0.037471 0)
(7.53281 -0.0365351 0)
(7.54493 -0.0352079 0)
(7.55661 -0.0333127 0)
(7.56753 -0.0310225 0)
(7.57766 -0.0281644 0)
(7.5867 -0.0249548 0)
(7.59464 -0.0212201 0)
(7.60119 -0.0172124 0)
(7.60636 -0.0127533 0)
(7.6099 -0.00812494 0)
(7.61187 -0.00314305 0)
(7.61206 0.00187814 0)
(7.61055 0.00713263 0)
(7.60722 0.0122869 0)
(7.60217 0.017549 0)
(7.59532 0.0225731 0)
(7.58682 0.0275844 0)
(7.57661 0.0322321 0)
(7.56486 0.0367616 0)
(7.55159 0.0408291 0)
(7.53681 0.0446658 0)
(7.5201 0.0480939 0)
(7.50823 0.0507985 0)
(7.4801 0.0545991 0)
(5.00002 -0.000367185 0)
(5.0001 -0.00110016 0)
(5.00033 -0.00183902 0)
(5.00072 -0.00257811 0)
(5.00126 -0.0033177 0)
(5.00195 -0.00405935 0)
(5.00278 -0.00480318 0)
(5.00375 -0.00555047 0)
(5.00488 -0.00630132 0)
(5.00616 -0.00705731 0)
(5.00758 -0.00781857 0)
(5.00916 -0.00858705 0)
(5.01089 -0.00936296 0)
(5.01277 -0.0101486 0)
(5.01481 -0.0109443 0)
(5.017 -0.0117528 0)
(5.01936 -0.0125744 0)
(5.02187 -0.0134122 0)
(5.02455 -0.0142668 0)
(5.0274 -0.0151415 0)
(5.03043 -0.0160368 0)
(5.03363 -0.0169567 0)
(5.03701 -0.0179015 0)
(5.04058 -0.0188755 0)
(5.04434 -0.0198793 0)
(5.0483 -0.0209173 0)
(5.05246 -0.02199 0)
(5.05684 -0.0231023 0)
(5.06144 -0.0242547 0)
(5.06627 -0.0254524 0)
(5.07134 -0.0266958 0)
(5.07665 -0.0279903 0)
(5.08223 -0.0293366 0)
(5.08807 -0.0307401 0)
(5.09419 -0.0322015 0)
(5.1006 -0.0337266 0)
(5.10732 -0.0353158 0)
(5.11435 -0.0369754 0)
(5.12172 -0.0387055 0)
(5.12943 -0.0405128 0)
(5.13751 -0.0423972 0)
(5.14596 -0.0443654 0)
(5.15481 -0.0464175 0)
(5.16407 -0.0485601 0)
(5.17376 -0.0507931 0)
(5.1839 -0.0531234 0)
(5.19451 -0.0555503 0)
(5.20561 -0.0580808 0)
(5.21721 -0.0607139 0)
(5.22935 -0.0634565 0)
(5.24205 -0.066307 0)
(5.25531 -0.0692719 0)
(5.26918 -0.0723491 0)
(5.28367 -0.0755444 0)
(5.29881 -0.0788548 0)
(5.31462 -0.0822853 0)
(5.33113 -0.0858313 0)
(5.34836 -0.0894969 0)
(5.36634 -0.0932756 0)
(5.38508 -0.0971695 0)
(5.40463 -0.10117 0)
(5.42499 -0.105277 0)
(5.44621 -0.109478 0)
(5.46828 -0.113771 0)
(5.49124 -0.118139 0)
(5.51511 -0.122576 0)
(5.53989 -0.127061 0)
(5.56561 -0.131583 0)
(5.59227 -0.136117 0)
(5.61988 -0.140644 0)
(5.64844 -0.145136 0)
(5.67794 -0.14957 0)
(5.70837 -0.15391 0)
(5.73972 -0.158129 0)
(5.77196 -0.162188 0)
(5.80505 -0.166055 0)
(5.83896 -0.169688 0)
(5.87363 -0.173057 0)
(5.90901 -0.176118 0)
(5.94502 -0.178842 0)
(5.9816 -0.181192 0)
(6.01865 -0.183143 0)
(6.0561 -0.184665 0)
(6.09383 -0.185742 0)
(6.13175 -0.186356 0)
(6.16976 -0.186501 0)
(6.20774 -0.186172 0)
(6.24561 -0.185377 0)
(6.28325 -0.18412 0)
(6.32056 -0.182423 0)
(6.35745 -0.1803 0)
(6.39383 -0.177782 0)
(6.42961 -0.174892 0)
(6.46473 -0.171667 0)
(6.49911 -0.168135 0)
(6.53269 -0.164334 0)
(6.56542 -0.160296 0)
(6.59726 -0.15606 0)
(6.62817 -0.151657 0)
(6.65813 -0.147124 0)
(6.68711 -0.14249 0)
(6.7151 -0.137791 0)
(6.74209 -0.13305 0)
(6.76808 -0.128301 0)
(6.79308 -0.123562 0)
(6.8171 -0.118865 0)
(6.84015 -0.114222 0)
(6.86224 -0.109658 0)
(6.8834 -0.105185 0)
(6.90366 -0.100823 0)
(6.92303 -0.0965766 0)
(6.94154 -0.0924631 0)
(6.95924 -0.088484 0)
(6.97613 -0.0846524 0)
(6.99227 -0.0809665 0)
(7.00767 -0.0774361 0)
(7.02238 -0.074057 0)
(7.03642 -0.0708367 0)
(7.04982 -0.0677686 0)
(7.06263 -0.0648589 0)
(7.07486 -0.0620994 0)
(7.08656 -0.0594952 0)
(7.09775 -0.057037 0)
(7.10847 -0.0547295 0)
(7.11874 -0.0525625 0)
(7.1286 -0.0505403 0)
(7.13807 -0.0486523 0)
(7.14718 -0.0469023 0)
(7.15597 -0.045279 0)
(7.16444 -0.0437857 0)
(7.17265 -0.0424099 0)
(7.1806 -0.0411541 0)
(7.18832 -0.0400043 0)
(7.19583 -0.0389618 0)
(7.20317 -0.0380111 0)
(7.21033 -0.0371517 0)
(7.21736 -0.036367 0)
(7.22424 -0.0356552 0)
(7.23101 -0.0349993 0)
(7.23767 -0.0343971 0)
(7.24423 -0.0338328 0)
(7.25069 -0.0333053 0)
(7.25706 -0.0328019 0)
(7.26334 -0.0323244 0)
(7.26952 -0.0318651 0)
(7.27561 -0.0314307 0)
(7.28161 -0.0310199 0)
(7.28752 -0.0306457 0)
(7.29333 -0.0303132 0)
(7.29906 -0.0300424 0)
(7.30471 -0.0298438 0)
(7.3103 -0.0297439 0)
(7.31584 -0.0297564 0)
(7.32135 -0.0299128 0)
(7.32687 -0.0302265 0)
(7.33243 -0.0307314 0)
(7.33809 -0.0314363 0)
(7.34387 -0.032374 0)
(7.34984 -0.0335429 0)
(7.35605 -0.0349707 0)
(7.36258 -0.0366397 0)
(7.36947 -0.0385672 0)
(7.37681 -0.040714 0)
(7.38462 -0.0430817 0)
(7.39301 -0.0456062 0)
(7.40198 -0.0482692 0)
(7.41161 -0.0509808 0)
(7.42186 -0.0537013 0)
(7.43282 -0.0563187 0)
(7.44439 -0.0587748 0)
(7.45661 -0.0609437 0)
(7.46933 -0.0627566 0)
(7.48257 -0.064087 0)
(7.49611 -0.0648677 0)
(7.50992 -0.0649873 0)
(7.52373 -0.0643941 0)
(7.53749 -0.0630063 0)
(7.55088 -0.060801 0)
(7.56385 -0.0577365 0)
(7.57604 -0.0538281 0)
(7.58741 -0.0490788 0)
(7.59762 -0.0435428 0)
(7.60663 -0.0372593 0)
(7.61414 -0.0303111 0)
(7.62014 -0.0227657 0)
(7.62434 -0.0147211 0)
(7.6268 -0.00627048 0)
(7.62731 0.00245979 0)
(7.62595 0.0113722 0)
(7.62258 0.0203315 0)
(7.61731 0.0292416 0)
(7.61008 0.0379683 0)
(7.60103 0.0464257 0)
(7.59012 0.0544894 0)
(7.57754 0.0620905 0)
(7.56332 0.069127 0)
(7.54755 0.0755282 0)
(7.52962 0.0813382 0)
(7.51686 0.0859317 0)
(7.48686 0.0922428 0)
(5.00002 -0.000513037 0)
(5.0001 -0.00153762 0)
(5.00033 -0.00256969 0)
(5.00072 -0.00360162 0)
(5.00125 -0.0046343 0)
(5.00193 -0.00566914 0)
(5.00276 -0.00670694 0)
(5.00373 -0.00774864 0)
(5.00484 -0.00879521 0)
(5.00611 -0.00984787 0)
(5.00752 -0.0109079 0)
(5.00908 -0.0119768 0)
(5.01079 -0.0130561 0)
(5.01265 -0.0141478 0)
(5.01466 -0.0152538 0)
(5.01682 -0.0163762 0)
(5.01914 -0.0175173 0)
(5.02162 -0.0186797 0)
(5.02426 -0.0198658 0)
(5.02706 -0.0210786 0)
(5.03003 -0.0223208 0)
(5.03317 -0.0235957 0)
(5.03649 -0.0249063 0)
(5.03999 -0.026256 0)
(5.04368 -0.0276481 0)
(5.04755 -0.0290864 0)
(5.05163 -0.0305742 0)
(5.05592 -0.0321156 0)
(5.06042 -0.0337143 0)
(5.06514 -0.0353743 0)
(5.07009 -0.0370997 0)
(5.07528 -0.0388947 0)
(5.08073 -0.0407633 0)
(5.08643 -0.0427102 0)
(5.09241 -0.0447395 0)
(5.09867 -0.0468559 0)
(5.10523 -0.0490636 0)
(5.1121 -0.0513677 0)
(5.11929 -0.0537724 0)
(5.12682 -0.0562827 0)
(5.13471 -0.058903 0)
(5.14296 -0.0616385 0)
(5.1516 -0.0644935 0)
(5.16065 -0.0674732 0)
(5.17012 -0.0705819 0)
(5.18003 -0.0738247 0)
(5.1904 -0.0772058 0)
(5.20125 -0.0807301 0)
(5.21261 -0.0844016 0)
(5.22449 -0.0882249 0)
(5.23692 -0.0922034 0)
(5.24992 -0.0963414 0)
(5.26352 -0.100641 0)
(5.27773 -0.105107 0)
(5.29259 -0.10974 0)
(5.30812 -0.114541 0)
(5.32435 -0.119512 0)
(5.3413 -0.124653 0)
(5.35901 -0.129961 0)
(5.37749 -0.135434 0)
(5.39679 -0.141068 0)
(5.41691 -0.146856 0)
(5.4379 -0.152789 0)
(5.45978 -0.158858 0)
(5.48257 -0.165048 0)
(5.5063 -0.171343 0)
(5.53098 -0.177722 0)
(5.55664 -0.184164 0)
(5.5833 -0.190639 0)
(5.61096 -0.197118 0)
(5.63963 -0.203564 0)
(5.66932 -0.209938 0)
(5.70002 -0.216196 0)
(5.73171 -0.22229 0)
(5.76438 -0.228171 0)
(5.798 -0.233784 0)
(5.83252 -0.239073 0)
(5.86789 -0.243984 0)
(5.90406 -0.24846 0)
(5.94095 -0.252448 0)
(5.97849 -0.255896 0)
(6.01656 -0.258761 0)
(6.05508 -0.261001 0)
(6.09393 -0.262587 0)
(6.13301 -0.263495 0)
(6.17218 -0.263711 0)
(6.21133 -0.263233 0)
(6.25034 -0.262066 0)
(6.28909 -0.260225 0)
(6.32746 -0.257735 0)
(6.36536 -0.254629 0)
(6.40269 -0.250945 0)
(6.43934 -0.246728 0)
(6.47525 -0.242025 0)
(6.51033 -0.236889 0)
(6.54453 -0.231372 0)
(6.5778 -0.225527 0)
(6.61008 -0.219408 0)
(6.64136 -0.213064 0)
(6.6716 -0.206546 0)
(6.70078 -0.199901 0)
(6.72891 -0.193172 0)
(6.75597 -0.1864 0)
(6.78196 -0.179624 0)
(6.80691 -0.172877 0)
(6.83081 -0.166193 0)
(6.8537 -0.159598 0)
(6.8756 -0.153119 0)
(6.89652 -0.146777 0)
(6.9165 -0.140593 0)
(6.93558 -0.134582 0)
(6.95377 -0.128761 0)
(6.97113 -0.123139 0)
(6.98767 -0.117726 0)
(7.00344 -0.112528 0)
(7.01848 -0.107551 0)
(7.03281 -0.102797 0)
(7.04647 -0.0982689 0)
(7.05951 -0.0939644 0)
(7.07194 -0.0898846 0)
(7.08381 -0.0860248 0)
(7.09515 -0.0823845 0)
(7.10599 -0.0789574 0)
(7.11636 -0.0757424 0)
(7.12629 -0.0727321 0)
(7.13582 -0.0699251 0)
(7.14497 -0.0673131 0)
(7.15377 -0.0648947 0)
(7.16225 -0.0626608 0)
(7.17044 -0.0606094 0)
(7.17836 -0.0587301 0)
(7.18604 -0.0570196 0)
(7.19352 -0.0554657 0)
(7.2008 -0.0540626 0)
(7.20792 -0.0527958 0)
(7.21489 -0.0516562 0)
(7.22174 -0.0506272 0)
(7.22848 -0.0496965 0)
(7.23513 -0.0488465 0)
(7.24169 -0.0480627 0)
(7.24817 -0.0473292 0)
(7.25457 -0.046632 0)
(7.26089 -0.04596 0)
(7.26713 -0.0453029 0)
(7.27328 -0.0446582 0)
(7.27932 -0.0440227 0)
(7.28526 -0.0434048 0)
(7.29108 -0.0428113 0)
(7.29679 -0.042262 0)
(7.30236 -0.0417747 0)
(7.30782 -0.0413792 0)
(7.31315 -0.041104 0)
(7.31838 -0.0409853 0)
(7.32354 -0.0410602 0)
(7.32864 -0.0413657 0)
(7.33372 -0.0419443 0)
(7.33884 -0.0428269 0)
(7.34405 -0.0440561 0)
(7.34942 -0.0456484 0)
(7.35501 -0.0476395 0)
(7.36092 -0.0500225 0)
(7.36721 -0.0528177 0)
(7.37399 -0.0559858 0)
(7.38132 -0.0595224 0)
(7.38933 -0.0633496 0)
(7.39804 -0.0674297 0)
(7.40758 -0.0716439 0)
(7.41793 -0.075917 0)
(7.42918 -0.0800948 0)
(7.44128 -0.0840669 0)
(7.45426 -0.0876569 0)
(7.468 -0.0907304 0)
(7.48248 -0.0931121 0)
(7.49749 -0.0946636 0)
(7.51297 -0.095237 0)
(7.52862 -0.0947134 0)
(7.54434 -0.092998 0)
(7.55978 -0.0900136 0)
(7.57482 -0.0857371 0)
(7.58907 -0.0801479 0)
(7.60242 -0.0732998 0)
(7.6145 -0.0652276 0)
(7.62523 -0.0560494 0)
(7.63425 -0.0458387 0)
(7.64155 -0.0347592 0)
(7.64679 -0.0228965 0)
(7.65003 -0.0104639 0)
(7.65103 0.00241089 0)
(7.64987 0.0155133 0)
(7.64641 0.0287074 0)
(7.64077 0.0417785 0)
(7.63288 0.0545966 0)
(7.62292 0.0669604 0)
(7.61087 0.0787579 0)
(7.59693 0.0898112 0)
(7.58115 0.100042 0)
(7.56371 0.10928 0)
(7.54385 0.117627 0)
(7.52961 0.124203 0)
(7.49656 0.133111 0)
(5.00002 -0.000657856 0)
(5.0001 -0.0019721 0)
(5.00033 -0.00329496 0)
(5.00071 -0.00461729 0)
(5.00125 -0.00594014 0)
(5.00192 -0.0072651 0)
(5.00274 -0.00859316 0)
(5.0037 -0.00992532 0)
(5.0048 -0.0112629 0)
(5.00605 -0.0126072 0)
(5.00745 -0.01396 0)
(5.00898 -0.0153231 0)
(5.01067 -0.0166987 0)
(5.0125 -0.0180891 0)
(5.01448 -0.0194967 0)
(5.0166 -0.0209244 0)
(5.01888 -0.0223751 0)
(5.0213 -0.0238521 0)
(5.02389 -0.0253586 0)
(5.02663 -0.0268984 0)
(5.02953 -0.0284751 0)
(5.03259 -0.0300927 0)
(5.03583 -0.0317554 0)
(5.03923 -0.0334673 0)
(5.04282 -0.0352331 0)
(5.04659 -0.0370572 0)
(5.05056 -0.0389446 0)
(5.05472 -0.0409 0)
(5.05908 -0.0429285 0)
(5.06366 -0.0450353 0)
(5.06846 -0.0472258 0)
(5.0735 -0.0495052 0)
(5.07877 -0.0518792 0)
(5.08429 -0.0543533 0)
(5.09008 -0.0569333 0)
(5.09614 -0.0596251 0)
(5.10249 -0.0624344 0)
(5.10913 -0.0653673 0)
(5.1161 -0.0684298 0)
(5.12338 -0.071628 0)
(5.13102 -0.0749681 0)
(5.13901 -0.0784561 0)
(5.14737 -0.0820984 0)
(5.15613 -0.0859011 0)
(5.16531 -0.0898704 0)
(5.17491 -0.0940126 0)
(5.18497 -0.0983337 0)
(5.19549 -0.10284 0)
(5.20651 -0.107537 0)
(5.21805 -0.11243 0)
(5.23012 -0.117526 0)
(5.24276 -0.122829 0)
(5.25598 -0.128344 0)
(5.26982 -0.134075 0)
(5.2843 -0.140026 0)
(5.29944 -0.146201 0)
(5.31529 -0.1526 0)
(5.33186 -0.159225 0)
(5.34919 -0.166075 0)
(5.3673 -0.173149 0)
(5.38623 -0.180441 0)
(5.40602 -0.187947 0)
(5.42668 -0.195656 0)
(5.44826 -0.203557 0)
(5.47079 -0.211634 0)
(5.4943 -0.219868 0)
(5.51881 -0.228235 0)
(5.54436 -0.236706 0)
(5.57097 -0.245247 0)
(5.59866 -0.253818 0)
(5.62745 -0.262374 0)
(5.65735 -0.270861 0)
(5.68837 -0.279223 0)
(5.7205 -0.287393 0)
(5.75373 -0.295304 0)
(5.78804 -0.302879 0)
(5.82338 -0.310042 0)
(5.85971 -0.31671 0)
(5.89696 -0.322806 0)
(5.93506 -0.32825 0)
(5.97392 -0.332968 0)
(6.01342 -0.336893 0)
(6.05345 -0.33997 0)
(6.09388 -0.342149 0)
(6.13458 -0.3434 0)
(6.17539 -0.343703 0)
(6.21618 -0.343054 0)
(6.2568 -0.341461 0)
(6.29711 -0.33895 0)
(6.33699 -0.335555 0)
(6.3763 -0.331324 0)
(6.41493 -0.326311 0)
(6.45278 -0.320581 0)
(6.48976 -0.314203 0)
(6.5258 -0.307251 0)
(6.56083 -0.299798 0)
(6.59479 -0.291921 0)
(6.62766 -0.283694 0)
(6.65939 -0.275191 0)
(6.68997 -0.266478 0)
(6.7194 -0.257622 0)
(6.74766 -0.248681 0)
(6.77477 -0.239712 0)
(6.80074 -0.230765 0)
(6.82558 -0.221883 0)
(6.84931 -0.213107 0)
(6.87197 -0.204471 0)
(6.89358 -0.196007 0)
(6.91417 -0.187741 0)
(6.93378 -0.179696 0)
(6.95245 -0.171891 0)
(6.97021 -0.164343 0)
(6.98711 -0.157063 0)
(7.00318 -0.150063 0)
(7.01846 -0.143348 0)
(7.03299 -0.136926 0)
(7.04682 -0.130797 0)
(7.05998 -0.124964 0)
(7.0725 -0.119425 0)
(7.08444 -0.114179 0)
(7.09581 -0.10922 0)
(7.10666 -0.104547 0)
(7.11702 -0.10015 0)
(7.12692 -0.0960294 0)
(7.1364 -0.0921743 0)
(7.14547 -0.0885828 0)
(7.15418 -0.0852453 0)
(7.16256 -0.0821595 0)
(7.17062 -0.0793151 0)
(7.17841 -0.0767097 0)
(7.18594 -0.0743314 0)
(7.19326 -0.0721763 0)
(7.20038 -0.07023 0)
(7.20733 -0.0684852 0)
(7.21416 -0.0669239 0)
(7.22086 -0.0655338 0)
(7.22748 -0.0642926 0)
(7.23402 -0.0631826 0)
(7.24051 -0.0621785 0)
(7.24695 -0.061258 0)
(7.25335 -0.0603964 0)
(7.2597 -0.0595703 0)
(7.266 -0.0587609 0)
(7.27223 -0.057949 0)
(7.27838 -0.0571277 0)
(7.28443 -0.0562878 0)
(7.29036 -0.0554385 0)
(7.29614 -0.0545853 0)
(7.30175 -0.0537556 0)
(7.30718 -0.0529714 0)
(7.31242 -0.0522766 0)
(7.31746 -0.0517097 0)
(7.32231 -0.0513261 0)
(7.32698 -0.0511787 0)
(7.33151 -0.0513272 0)
(7.33593 -0.0518346 0)
(7.34029 -0.0527555 0)
(7.34467 -0.0541563 0)
(7.34913 -0.0560747 0)
(7.35377 -0.0585711 0)
(7.35871 -0.0616523 0)
(7.36404 -0.0653595 0)
(7.36991 -0.0696542 0)
(7.37643 -0.0745431 0)
(7.38374 -0.0799296 0)
(7.39194 -0.0857704 0)
(7.4012 -0.0919045 0)
(7.41153 -0.0982282 0)
(7.42309 -0.104521 0)
(7.43583 -0.110619 0)
(7.44984 -0.11626 0)
(7.46497 -0.121239 0)
(7.48123 -0.125286 0)
(7.49836 -0.128184 0)
(7.51628 -0.129705 0)
(7.53462 -0.12966 0)
(7.55325 -0.127902 0)
(7.57171 -0.12431 0)
(7.58982 -0.118849 0)
(7.60711 -0.111488 0)
(7.62339 -0.102312 0)
(7.63821 -0.091376 0)
(7.65144 -0.0788638 0)
(7.66267 -0.0648825 0)
(7.67183 -0.0496733 0)
(7.67857 -0.0333638 0)
(7.6829 -0.0162592 0)
(7.68458 0.00145338 0)
(7.68369 0.0194664 0)
(7.68007 0.0375892 0)
(7.67387 0.0555161 0)
(7.66502 0.0730669 0)
(7.65374 0.0899559 0)
(7.64002 0.106029 0)
(7.62411 0.121033 0)
(7.60608 0.13486 0)
(7.58623 0.147275 0)
(7.56359 0.1584 0)
(7.54723 0.167111 0)
(7.50989 0.178649 0)
(5.00002 -0.000801708 0)
(5.0001 -0.00240379 0)
(5.00033 -0.00401512 0)
(5.00071 -0.00562525 0)
(5.00124 -0.00723528 0)
(5.00191 -0.00884684 0)
(5.00272 -0.010461 0)
(5.00367 -0.0120788 0)
(5.00476 -0.0137016 0)
(5.006 -0.0153312 0)
(5.00737 -0.0169695 0)
(5.00889 -0.0186186 0)
(5.01054 -0.0202813 0)
(5.01234 -0.0219603 0)
(5.01428 -0.0236587 0)
(5.01636 -0.02538 0)
(5.01858 -0.0271279 0)
(5.02095 -0.0289062 0)
(5.02346 -0.0307191 0)
(5.02613 -0.0325712 0)
(5.02894 -0.034467 0)
(5.03191 -0.0364113 0)
(5.03505 -0.0384093 0)
(5.03834 -0.0404662 0)
(5.04181 -0.0425875 0)
(5.04545 -0.0447787 0)
(5.04927 -0.0470458 0)
(5.05327 -0.0493947 0)
(5.05748 -0.0518316 0)
(5.06188 -0.0543627 0)
(5.06649 -0.0569947 0)
(5.07132 -0.0597342 0)
(5.07638 -0.0625879 0)
(5.08168 -0.0655628 0)
(5.08723 -0.0686661 0)
(5.09304 -0.0719049 0)
(5.09912 -0.0752866 0)
(5.10549 -0.0788185 0)
(5.11216 -0.0825083 0)
(5.11914 -0.0863636 0)
(5.12646 -0.0903921 0)
(5.13412 -0.0946015 0)
(5.14214 -0.0989998 0)
(5.15054 -0.103595 0)
(5.15934 -0.108394 0)
(5.16856 -0.113406 0)
(5.17821 -0.118638 0)
(5.18833 -0.124098 0)
(5.19892 -0.129794 0)
(5.21002 -0.135733 0)
(5.22164 -0.141923 0)
(5.23382 -0.148371 0)
(5.24657 -0.155083 0)
(5.25993 -0.162067 0)
(5.27392 -0.169326 0)
(5.28857 -0.176868 0)
(5.30391 -0.184695 0)
(5.31998 -0.19281 0)
(5.33681 -0.201216 0)
(5.35443 -0.209911 0)
(5.37288 -0.218894 0)
(5.3922 -0.228159 0)
(5.41242 -0.237698 0)
(5.43358 -0.247501 0)
(5.45573 -0.257551 0)
(5.4789 -0.267827 0)
(5.50314 -0.278304 0)
(5.52848 -0.288949 0)
(5.55497 -0.299722 0)
(5.58263 -0.310576 0)
(5.6115 -0.321455 0)
(5.64161 -0.332294 0)
(5.67298 -0.34302 0)
(5.70561 -0.353547 0)
(5.7395 -0.363786 0)
(5.77465 -0.373634 0)
(5.81102 -0.382987 0)
(5.84857 -0.39173 0)
(5.88723 -0.399753 0)
(5.92691 -0.40694 0)
(5.96752 -0.413189 0)
(6.00892 -0.418397 0)
(6.05097 -0.422483 0)
(6.09352 -0.425377 0)
(6.13638 -0.427035 0)
(6.1794 -0.427428 0)
(6.22238 -0.426557 0)
(6.26515 -0.424438 0)
(6.30755 -0.42111 0)
(6.3494 -0.416627 0)
(6.39058 -0.41106 0)
(6.43094 -0.404487 0)
(6.47036 -0.397 0)
(6.50875 -0.388692 0)
(6.54602 -0.379664 0)
(6.58211 -0.370014 0)
(6.61697 -0.359843 0)
(6.65056 -0.349248 0)
(6.68285 -0.338325 0)
(6.71384 -0.327163 0)
(6.74353 -0.315847 0)
(6.77193 -0.304457 0)
(6.79905 -0.293062 0)
(6.82493 -0.281728 0)
(6.84958 -0.270513 0)
(6.87305 -0.259466 0)
(6.89536 -0.248631 0)
(6.91657 -0.238045 0)
(6.93671 -0.227739 0)
(6.95582 -0.21774 0)
(6.97394 -0.208066 0)
(6.99114 -0.198736 0)
(7.00744 -0.189761 0)
(7.02289 -0.181153 0)
(7.03755 -0.172914 0)
(7.05145 -0.16505 0)
(7.06464 -0.157561 0)
(7.07716 -0.150447 0)
(7.08905 -0.143702 0)
(7.10035 -0.137324 0)
(7.11111 -0.131305 0)
(7.12134 -0.12564 0)
(7.13111 -0.120318 0)
(7.14042 -0.115335 0)
(7.14932 -0.11068 0)
(7.15783 -0.10635 0)
(7.16599 -0.102334 0)
(7.17382 -0.0986297 0)
(7.18135 -0.0952266 0)
(7.18862 -0.0921236 0)
(7.19566 -0.0893077 0)
(7.2025 -0.086776 0)
(7.20916 -0.0845114 0)
(7.21568 -0.0825061 0)
(7.22211 -0.0807363 0)
(7.22845 -0.0791861 0)
(7.23475 -0.0778243 0)
(7.24102 -0.0766254 0)
(7.2473 -0.0755522 0)
(7.25358 -0.0745713 0)
(7.25987 -0.0736446 0)
(7.26617 -0.0727361 0)
(7.27247 -0.0718146 0)
(7.27873 -0.0708498 0)
(7.28494 -0.0698272 0)
(7.29104 -0.0687305 0)
(7.297 -0.0675693 0)
(7.30279 -0.0663482 0)
(7.30835 -0.0651037 0)
(7.31365 -0.0638644 0)
(7.31867 -0.0626913 0)
(7.32338 -0.0616364 0)
(7.32777 -0.0607792 0)
(7.33185 -0.0601927 0)
(7.33564 -0.0599659 0)
(7.33918 -0.0601887 0)
(7.34252 -0.0609476 0)
(7.34573 -0.0623429 0)
(7.34891 -0.0644433 0)
(7.35217 -0.0673474 0)
(7.35566 -0.0710872 0)
(7.35952 -0.0757412 0)
(7.36394 -0.0812824 0)
(7.36908 -0.0877442 0)
(7.37518 -0.0950183 0)
(7.38238 -0.103066 0)
(7.39093 -0.11168 0)
(7.40094 -0.120727 0)
(7.41261 -0.129902 0)
(7.42596 -0.138973 0)
(7.44113 -0.14756 0)
(7.45798 -0.155353 0)
(7.47653 -0.161948 0)
(7.4965 -0.167009 0)
(7.51775 -0.170183 0)
(7.53983 -0.171179 0)
(7.5625 -0.169768 0)
(7.58519 -0.16577 0)
(7.60762 -0.15913 0)
(7.62916 -0.149813 0)
(7.64955 -0.137949 0)
(7.6682 -0.123634 0)
(7.68491 -0.107141 0)
(7.6992 -0.0886396 0)
(7.71095 -0.0684671 0)
(7.71976 -0.0468249 0)
(7.72559 -0.0241073 0)
(7.72821 -0.000596944 0)
(7.72767 0.0232895 0)
(7.72383 0.0472864 0)
(7.71685 0.070984 0)
(7.70669 0.0941333 0)
(7.69359 0.116353 0)
(7.67758 0.137428 0)
(7.65898 0.157023 0)
(7.63787 0.174983 0)
(7.61473 0.191001 0)
(7.58829 0.205204 0)
(7.56903 0.216244 0)
(7.52578 0.230455 0)
(5.00002 -0.000944888 0)
(5.0001 -0.00283355 0)
(5.00033 -0.00473149 0)
(5.00071 -0.00662715 0)
(5.00124 -0.00852149 0)
(5.0019 -0.010416 0)
(5.00271 -0.0123118 0)
(5.00365 -0.0142097 0)
(5.00473 -0.0161113 0)
(5.00595 -0.0180184 0)
(5.00731 -0.0199333 0)
(5.0088 -0.0218585 0)
(5.01043 -0.023797 0)
(5.01219 -0.0257522 0)
(5.01408 -0.0277277 0)
(5.01611 -0.0297277 0)
(5.01827 -0.0317566 0)
(5.02057 -0.0338192 0)
(5.02301 -0.0359206 0)
(5.02559 -0.0380661 0)
(5.02831 -0.0402615 0)
(5.03117 -0.0425127 0)
(5.03418 -0.0448258 0)
(5.03735 -0.0472073 0)
(5.04067 -0.0496638 0)
(5.04416 -0.052202 0)
(5.04781 -0.0548291 0)
(5.05164 -0.057552 0)
(5.05564 -0.0603784 0)
(5.05984 -0.0633155 0)
(5.06423 -0.0663712 0)
(5.06882 -0.0695531 0)
(5.07363 -0.0728695 0)
(5.07866 -0.0763283 0)
(5.08393 -0.0799379 0)
(5.08944 -0.0837067 0)
(5.09521 -0.0876434 0)
(5.10125 -0.0917567 0)
(5.10757 -0.0960554 0)
(5.11419 -0.100549 0)
(5.12113 -0.105246 0)
(5.12839 -0.110155 0)
(5.136 -0.115288 0)
(5.14397 -0.120652 0)
(5.15232 -0.126257 0)
(5.16107 -0.132113 0)
(5.17024 -0.13823 0)
(5.17985 -0.144617 0)
(5.18993 -0.151285 0)
(5.20049 -0.158242 0)
(5.21157 -0.165499 0)
(5.22317 -0.173064 0)
(5.23535 -0.180947 0)
(5.24811 -0.189158 0)
(5.26149 -0.197704 0)
(5.27552 -0.206593 0)
(5.29024 -0.215833 0)
(5.30568 -0.225429 0)
(5.32187 -0.235387 0)
(5.33885 -0.24571 0)
(5.35667 -0.256399 0)
(5.37537 -0.267452 0)
(5.39499 -0.278865 0)
(5.41557 -0.29063 0)
(5.43718 -0.302732 0)
(5.45987 -0.315153 0)
(5.48368 -0.327868 0)
(5.50867 -0.340844 0)
(5.53489 -0.354037 0)
(5.56241 -0.367395 0)
(5.59127 -0.380854 0)
(5.62152 -0.394337 0)
(5.6532 -0.407755 0)
(5.68634 -0.421001 0)
(5.72097 -0.433959 0)
(5.75709 -0.446496 0)
(5.79469 -0.458468 0)
(5.83372 -0.469722 0)
(5.87414 -0.4801 0)
(5.91583 -0.489441 0)
(5.9587 -0.497594 0)
(6.00257 -0.504412 0)
(6.04728 -0.509773 0)
(6.09262 -0.513574 0)
(6.13836 -0.515748 0)
(6.18429 -0.516252 0)
(6.23016 -0.515089 0)
(6.27575 -0.512285 0)
(6.32086 -0.507904 0)
(6.36528 -0.502031 0)
(6.40884 -0.494775 0)
(6.4514 -0.486256 0)
(6.49281 -0.476607 0)
(6.53296 -0.465963 0)
(6.57178 -0.454461 0)
(6.60919 -0.442234 0)
(6.64514 -0.429415 0)
(6.67961 -0.416125 0)
(6.71258 -0.402483 0)