/*--------------------------------*- C++ -*----------------------------------*\
  =========                 |
  \\      /  F ield         | OpenFOAM: The Open Source CFD Toolbox
   \\    /   O peration     | Website:  https://openfoam.org
    \\  /    A nd           | Version:  10
     \\/     M anipulation  |
\*---------------------------------------------------------------------------*/
FoamFile
{
    format      ascii;
    class       volScalarField;
    location    "57";
    object      p;
}
// * * * * * * * * * * * * * * * * * * * * * * * * * * * * * * * * * * * * * //

dimensions      [1 -1 -2 0 0 0 0];

internalField   nonuniform List<scalar> 
100
(
1.02243e+07
1.02239e+07
1.02234e+07
1.02228e+07
1.02222e+07
1.02215e+07
1.02207e+07
1.02199e+07
1.0219e+07
1.0218e+07
1.0217e+07
1.0216e+07
1.02149e+07
1.02138e+07
1.02126e+07
1.02114e+07
1.02102e+07
1.02089e+07
1.02075e+07
1.02062e+07
1.02048e+07
1.02033e+07
1.02019e+07
1.02003e+07
1.01988e+07
1.01972e+07
1.01956e+07
1.0194e+07
1.01923e+07
1.01906e+07
1.01888e+07
1.0187e+07
1.01852e+07
1.01834e+07
1.01815e+07
1.01796e+07
1.01777e+07
1.01757e+07
1.01737e+07
1.01717e+07
1.01697e+07
1.01676e+07
1.01655e+07
1.01634e+07
1.01612e+07
1.0159e+07
1.01568e+07
1.01545e+07
1.01523e+07
1.015e+07
1.01476e+07
1.01453e+07
1.01429e+07
1.01405e+07
1.01381e+07
1.01356e+07
1.01331e+07
1.01306e+07
1.01281e+07
1.01255e+07
1.01229e+07
1.01203e+07
1.01176e+07
1.0115e+07
1.01123e+07
1.01096e+07
1.01068e+07
1.0104e+07
1.01012e+07
1.00984e+07
1.00956e+07
1.00927e+07
1.00898e+07
1.00869e+07
1.00839e+07
1.0081e+07
1.0078e+07
1.0075e+07
1.00719e+07
1.00688e+07
1.00657e+07
1.00626e+07
1.00595e+07
1.00563e+07
1.00531e+07
1.00499e+07
1.00466e+07
1.00433e+07
1.004e+07
1.00367e+07
1.00333e+07
1.003e+07
1.00266e+07
1.00231e+07
1.00196e+07
1.00161e+07
1.00126e+07
1.00091e+07
1.00055e+07
1.00018e+07
)
;

boundaryField
{
    inlet
    {
        type            zeroGradient;
    }
    outlet
    {
        type            fixedValue;
        value           uniform 1e+07;
    }
    yzfaces
    {
        type            empty;
    }
}


// ************************************************************************* //
