/*--------------------------------*- C++ -*----------------------------------*\
  =========                 |
  \\      /  F ield         | OpenFOAM: The Open Source CFD Toolbox
   \\    /   O peration     | Website:  https://openfoam.org
    \\  /    A nd           | Version:  10
     \\/     M anipulation  |
\*---------------------------------------------------------------------------*/
FoamFile
{
    format      ascii;
    class       volVectorField;
    location    "57";
    object      Ua;
}
// * * * * * * * * * * * * * * * * * * * * * * * * * * * * * * * * * * * * * //

dimensions      [0 1 -1 0 0 0 0];

internalField   nonuniform List<vector> 
100
(
(0.000199172 0 0)
(0.000398077 0 0)
(0.000397537 0 0)
(0.000396989 0 0)
(0.000396437 0 0)
(0.000395882 0 0)
(0.000395325 0 0)
(0.000394767 0 0)
(0.000394208 0 0)
(0.000393649 0 0)
(0.000393089 0 0)
(0.000392528 0 0)
(0.000391967 0 0)
(0.000391406 0 0)
(0.000390844 0 0)
(0.000390282 0 0)
(0.00038972 0 0)
(0.000389157 0 0)
(0.000388593 0 0)
(0.000388029 0 0)
(0.000387465 0 0)
(0.0003869 0 0)
(0.000386335 0 0)
(0.000385769 0 0)
(0.000385203 0 0)
(0.000384636 0 0)
(0.000384069 0 0)
(0.000383501 0 0)
(0.000382932 0 0)
(0.000382362 0 0)
(0.000381792 0 0)
(0.000381222 0 0)
(0.00038065 0 0)
(0.000380078 0 0)
(0.000379505 0 0)
(0.000378931 0 0)
(0.000378356 0 0)
(0.00037778 0 0)
(0.000377204 0 0)
(0.000376626 0 0)
(0.000376048 0 0)
(0.000375468 0 0)
(0.000374888 0 0)
(0.000374306 0 0)
(0.000373724 0 0)
(0.00037314 0 0)
(0.000372555 0 0)
(0.000371969 0 0)
(0.000371382 0 0)
(0.000370793 0 0)
(0.000370203 0 0)
(0.000369612 0 0)
(0.000369019 0 0)
(0.000368425 0 0)
(0.00036783 0 0)
(0.000367233 0 0)
(0.000366634 0 0)
(0.000366034 0 0)
(0.000365432 0 0)
(0.000364828 0 0)
(0.000364223 0 0)
(0.000363615 0 0)
(0.000363006 0 0)
(0.000362395 0 0)
(0.000361781 0 0)
(0.000361166 0 0)
(0.000360548 0 0)
(0.000359927 0 0)
(0.000359305 0 0)
(0.000358679 0 0)
(0.000358051 0 0)
(0.00035742 0 0)
(0.000356786 0 0)
(0.000356148 0 0)
(0.000355508 0 0)
(0.000354863 0 0)
(0.000354215 0 0)
(0.000353563 0 0)
(0.000352906 0 0)
(0.000352244 0 0)
(0.000351578 0 0)
(0.000350905 0 0)
(0.000350227 0 0)
(0.000349543 0 0)
(0.000348851 0 0)
(0.000348151 0 0)
(0.000347442 0 0)
(0.000346724 0 0)
(0.000345995 0 0)
(0.000345254 0 0)
(0.000344498 0 0)
(0.000343727 0 0)
(0.000342937 0 0)
(0.000342126 0 0)
(0.00034129 0 0)
(0.000340424 0 0)
(0.000339523 0 0)
(0.000338578 0 0)
(0.000337578 0 0)
(0.000336511 0 0)
)
;

boundaryField
{
    inlet
    {
        type            fixedValue;
        value           uniform (0 0 0);
    }
    outlet
    {
        type            zeroGradient;
    }
    yzfaces
    {
        type            empty;
    }
}


// ************************************************************************* //
