/*--------------------------------*- C++ -*----------------------------------*\
  =========                 |
  \\      /  F ield         | OpenFOAM: The Open Source CFD Toolbox
   \\    /   O peration     | Website:  https://openfoam.org
    \\  /    A nd           | Version:  10
     \\/     M anipulation  |
\*---------------------------------------------------------------------------*/
FoamFile
{
    format      ascii;
    class       volVectorField;
    location    "10750";
    object      Ub;
}
// * * * * * * * * * * * * * * * * * * * * * * * * * * * * * * * * * * * * * //

dimensions      [0 1 -1 0 0 0 0];

internalField   nonuniform List<vector> 
3200
(
(-5.17341e-21 -9.87891e-16 0)
(-1.54664e-20 -9.87891e-16 0)
(-2.56879e-20 -9.87891e-16 0)
(-3.59088e-20 -9.87891e-16 0)
(-4.61979e-20 -9.87891e-16 0)
(-5.66243e-20 -9.8789e-16 0)
(-6.72593e-20 -9.8789e-16 0)
(-7.81786e-20 -9.8789e-16 0)
(-8.94647e-20 -9.87889e-16 0)
(-1.0121e-19 -9.87889e-16 0)
(-1.13519e-19 -9.87888e-16 0)
(-1.26515e-19 -9.87887e-16 0)
(-1.40344e-19 -9.87886e-16 0)
(-1.55183e-19 -9.87885e-16 0)
(-1.7125e-19 -9.87883e-16 0)
(-1.88817e-19 -9.87881e-16 0)
(-2.08238e-19 -9.87879e-16 0)
(-2.29968e-19 -9.87876e-16 0)
(-2.54619e-19 -9.87873e-16 0)
(-2.83024e-19 -9.87868e-16 0)
(-3.16346e-19 -9.87861e-16 0)
(-3.56249e-19 -9.87853e-16 0)
(-4.05178e-19 -9.87841e-16 0)
(-4.66815e-19 -9.87824e-16 0)
(-5.46852e-19 -9.87798e-16 0)
(-6.54301e-19 -9.87759e-16 0)
(-8.03751e-19 -9.87698e-16 0)
(-1.01929e-18 -9.876e-16 0)
(-6.9802e-16 -9.87438e-16 0)
(-8.8108e-06 -4.41257e-13 0)
(-7.4138e-05 -6.96152e-05 0)
(-0.000133354 -1.29277e-05 0)
(-0.000137305 -6.46641e-06 0)
(-0.000139391 -4.08606e-06 0)
(-0.000140853 -2.83765e-06 0)
(-0.000141983 -2.07294e-06 0)
(-0.000142897 -1.55267e-06 0)
(-0.000143277 -2.21063e-06 0)
(-0.0001202 -6.69989e-05 0)
(-6.47662e-05 -9.46706e-05 0)
(-5.09351e-21 -9.87876e-16 0)
(-1.52255e-20 -9.87876e-16 0)
(-2.52811e-20 -9.87876e-16 0)
(-3.5326e-20 -9.87875e-16 0)
(-4.54236e-20 -9.87875e-16 0)
(-5.56366e-20 -9.87874e-16 0)
(-6.60289e-20 -9.87873e-16 0)
(-7.66672e-20 -9.87872e-16 0)
(-8.76224e-20 -9.8787e-16 0)
(-9.89719e-20 -9.87868e-16 0)
(-1.10801e-19 -9.87866e-16 0)
(-1.23207e-19 -9.87864e-16 0)
(-1.36298e-19 -9.87861e-16 0)
(-1.50201e-19 -9.87857e-16 0)
(-1.65062e-19 -9.87853e-16 0)
(-1.81051e-19 -9.87848e-16 0)
(-1.98362e-19 -9.87842e-16 0)
(-2.17219e-19 -9.87834e-16 0)
(-2.3787e-19 -9.87825e-16 0)
(-2.60572e-19 -9.87813e-16 0)
(-2.85555e-19 -9.87797e-16 0)
(-3.12939e-19 -9.87777e-16 0)
(-3.42563e-19 -9.8775e-16 0)
(-3.73628e-19 -9.87714e-16 0)
(-4.03996e-19 -9.87665e-16 0)
(-4.28817e-19 -9.87596e-16 0)
(-4.37868e-19 -9.875e-16 0)
(-4.10453e-19 -9.87362e-16 0)
(-3.0571e-19 -9.87163e-16 0)
(-4.73551e-20 -9.86867e-16 0)
(1.88213e-19 -9.65021e-16 0)
(1.80581e-19 -9.14536e-16 0)
(6.30831e-20 -8.6844e-16 0)
(-4.26913e-20 -8.25105e-16 0)
(-1.49475e-19 -7.83859e-16 0)
(-2.79414e-19 -7.44343e-16 0)
(-5.54043e-09 -7.18004e-16 0)
(-1.49988e-05 -1.05327e-06 0)
(-5.49994e-05 -6.70454e-05 0)
(-4.62398e-05 -0.00028749 0)
(-4.93926e-21 -9.87862e-16 0)
(-1.47607e-20 -9.87861e-16 0)
(-2.4497e-20 -9.87861e-16 0)
(-3.42043e-20 -9.8786e-16 0)
(-4.39362e-20 -9.87859e-16 0)
(-5.37442e-20 -9.87858e-16 0)
(-6.36794e-20 -9.87856e-16 0)
(-7.37926e-20 -9.87854e-16 0)
(-8.41357e-20 -9.87852e-16 0)
(-9.47617e-20 -9.87849e-16 0)
(-1.05725e-19 -9.87846e-16 0)
(-1.17081e-19 -9.87843e-16 0)
(-1.28886e-19 -9.87838e-16 0)
(-1.41196e-19 -9.87833e-16 0)
(-1.54061e-19 -9.87827e-16 0)
(-1.67521e-19 -9.8782e-16 0)
(-1.81597e-19 -9.87811e-16 0)
(-1.96274e-19 -9.878e-16 0)
(-2.11477e-19 -9.87788e-16 0)
(-2.27027e-19 -9.87773e-16 0)
(-2.42585e-19 -9.87754e-16 0)
(-2.57559e-19 -9.87732e-16 0)
(-2.7097e-19 -9.87704e-16 0)
(-2.81282e-19 -9.87671e-16 0)
(-2.86189e-19 -9.87631e-16 0)
(-2.82438e-19 -9.87584e-16 0)
(-2.65833e-19 -9.8753e-16 0)
(-2.31863e-19 -9.87475e-16 0)
(-1.77889e-19 -9.87426e-16 0)
(-1.08919e-19 -9.87405e-16 0)
(-5.06871e-20 -9.87452e-16 0)
(-2.65568e-20 -9.87516e-16 0)
(-2.91123e-20 -9.87552e-16 0)
(-4.16205e-20 -9.87563e-16 0)
(-5.28798e-20 -9.87554e-16 0)
(-5.20532e-20 -9.87522e-16 0)
(-2.42824e-20 -9.87466e-16 0)
(-4.13403e-11 -9.91462e-16 0)
(-1.61789e-06 -1.07969e-06 0)
(-9.7656e-07 -0.000394237 0)
(-4.72092e-21 -9.87848e-16 0)
(-1.41033e-20 -9.87847e-16 0)
(-2.33895e-20 -9.87847e-16 0)
(-3.26239e-20 -9.87846e-16 0)
(-4.1847e-20 -9.87844e-16 0)
(-5.10969e-20 -9.87843e-16 0)
(-6.04087e-20 -9.87841e-16 0)
(-6.98155e-20 -9.87838e-16 0)
(-7.9347e-20 -9.87835e-16 0)
(-8.90301e-20 -9.87832e-16 0)
(-9.88869e-20 -9.87828e-16 0)
(-1.08933e-19 -9.87823e-16 0)
(-1.19176e-19 -9.87818e-16 0)
(-1.29611e-19 -9.87812e-16 0)
(-1.40212e-19 -9.87805e-16 0)
(-1.5093e-19 -9.87796e-16 0)
(-1.61678e-19 -9.87787e-16 0)
(-1.72316e-19 -9.87776e-16 0)
(-1.82635e-19 -9.87763e-16 0)
(-1.9233e-19 -9.87747e-16 0)
(-2.00975e-19 -9.8773e-16 0)
(-2.07991e-19 -9.8771e-16 0)
(-2.12625e-19 -9.87688e-16 0)
(-2.13948e-19 -9.87663e-16 0)
(-2.10895e-19 -9.87635e-16 0)
(-2.02399e-19 -9.87607e-16 0)
(-1.87648e-19 -9.87579e-16 0)
(-1.66545e-19 -9.87554e-16 0)
(-1.4033e-19 -9.87536e-16 0)
(-1.12185e-19 -9.87528e-16 0)
(-8.70222e-20 -9.87532e-16 0)
(-6.84938e-20 -9.87542e-16 0)
(-5.63975e-20 -9.8755e-16 0)
(-4.81415e-20 -9.87554e-16 0)
(-4.08e-20 -9.87553e-16 0)
(-3.20097e-20 -9.87549e-16 0)
(-2.08294e-20 -9.87545e-16 0)
(-1.65631e-12 -9.89851e-16 0)
(-3.00199e-07 -4.3295e-07 0)
(2.88372e-07 -0.000404793 0)
(-4.45189e-21 -9.87835e-16 0)
(-1.3294e-20 -9.87834e-16 0)
(-2.2029e-20 -9.87833e-16 0)
(-3.0688e-20 -9.87832e-16 0)
(-3.92981e-20 -9.87831e-16 0)
(-4.78831e-20 -9.87829e-16 0)
(-5.6463e-20 -9.87826e-16 0)
(-6.50533e-20 -9.87824e-16 0)
(-7.36644e-20 -9.8782e-16 0)
(-8.23004e-20 -9.87816e-16 0)
(-9.09577e-20 -9.87812e-16 0)
(-9.96227e-20 -9.87807e-16 0)
(-1.08269e-19 -9.87801e-16 0)
(-1.16854e-19 -9.87795e-16 0)
(-1.25314e-19 -9.87787e-16 0)
(-1.3356e-19 -9.87779e-16 0)
(-1.41467e-19 -9.87769e-16 0)
(-1.48874e-19 -9.87758e-16 0)
(-1.55569e-19 -9.87746e-16 0)
(-1.6129e-19 -9.87733e-16 0)
(-1.65719e-19 -9.87718e-16 0)
(-1.68484e-19 -9.87702e-16 0)
(-1.69182e-19 -9.87685e-16 0)
(-1.67405e-19 -9.87667e-16 0)
(-1.62803e-19 -9.87648e-16 0)
(-1.55163e-19 -9.8763e-16 0)
(-1.44518e-19 -9.87613e-16 0)
(-1.31256e-19 -9.87599e-16 0)
(-1.16186e-19 -9.87588e-16 0)
(-1.00482e-19 -9.87581e-16 0)
(-8.54123e-20 -9.87577e-16 0)
(-7.1868e-20 -9.87576e-16 0)
(-6.00472e-20 -9.87576e-16 0)
(-4.95987e-20 -9.87576e-16 0)
(-3.9963e-20 -9.87576e-16 0)
(-3.06656e-20 -9.87575e-16 0)
(-2.15361e-20 -9.87575e-16 0)
(-3.21993e-12 -9.90267e-16 0)
(-1.15285e-07 -4.28553e-07 0)
(5.46221e-07 -0.000410536 0)
(-4.147e-21 -9.87822e-16 0)
(-1.23779e-20 -9.87822e-16 0)
(-2.04924e-20 -9.87821e-16 0)
(-2.85086e-20 -9.8782e-16 0)
(-3.64415e-20 -9.87818e-16 0)
(-4.43018e-20 -9.87816e-16 0)
(-5.20963e-20 -9.87813e-16 0)
(-5.98264e-20 -9.8781e-16 0)
(-6.74876e-20 -9.87807e-16 0)
(-7.50682e-20 -9.87803e-16 0)
(-8.25478e-20 -9.87798e-16 0)
(-8.9896e-20 -9.87793e-16 0)
(-9.70699e-20 -9.87787e-16 0)
(-1.04012e-19 -9.87781e-16 0)
(-1.10648e-19 -9.87773e-16 0)
(-1.16885e-19 -9.87765e-16 0)
(-1.22607e-19 -9.87756e-16 0)
(-1.27675e-19 -9.87747e-16 0)
(-1.31931e-19 -9.87736e-16 0)
(-1.35193e-19 -9.87725e-16 0)
(-1.37267e-19 -9.87713e-16 0)
(-1.37958e-19 -9.877e-16 0)
(-1.37082e-19 -9.87687e-16 0)
(-1.34497e-19 -9.87674e-16 0)
(-1.30125e-19 -9.87661e-16 0)
(-1.23988e-19 -9.87648e-16 0)
(-1.16232e-19 -9.87637e-16 0)
(-1.07137e-19 -9.87627e-16 0)
(-9.71039e-20 -9.87619e-16 0)
(-8.65995e-20 -9.87612e-16 0)
(-7.60696e-20 -9.87608e-16 0)
(-6.58442e-20 -9.87605e-16 0)
(-5.60865e-20 -9.87602e-16 0)
(-4.68136e-20 -9.87601e-16 0)
(-3.79607e-20 -9.87599e-16 0)
(-2.94476e-20 -9.87599e-16 0)
(-2.12492e-20 -9.87598e-16 0)
(-3.94724e-12 -9.90662e-16 0)
(-1.04419e-07 -4.6449e-07 0)
(5.39826e-07 -0.000415796 0)
(-3.82085e-21 -9.87811e-16 0)
(-1.13991e-20 -9.8781e-16 0)
(-1.88544e-20 -9.87809e-16 0)
(-2.61938e-20 -9.87808e-16 0)
(-3.34215e-20 -9.87806e-16 0)
(-4.0538e-20 -9.87804e-16 0)
(-4.75397e-20 -9.87801e-16 0)
(-5.44183e-20 -9.87798e-16 0)
(-6.11593e-20 -9.87795e-16 0)
(-6.77421e-20 -9.87791e-16 0)
(-7.41381e-20 -9.87786e-16 0)
(-8.03103e-20 -9.87781e-16 0)
(-8.62121e-20 -9.87776e-16 0)
(-9.17863e-20 -9.8777e-16 0)
(-9.69646e-20 -9.87763e-16 0)
(-1.01667e-19 -9.87755e-16 0)
(-1.05803e-19 -9.87748e-16 0)
(-1.09272e-19 -9.87739e-16 0)
(-1.11966e-19 -9.8773e-16 0)
(-1.13777e-19 -9.87721e-16 0)
(-1.14598e-19 -9.87711e-16 0)
(-1.14337e-19 -9.87701e-16 0)
(-1.12924e-19 -9.87691e-16 0)
(-1.10323e-19 -9.87681e-16 0)
(-1.06543e-19 -9.87671e-16 0)
(-1.01647e-19 -9.87662e-16 0)
(-9.57536e-20 -9.87654e-16 0)
(-8.9032e-20 -9.87647e-16 0)
(-8.16876e-20 -9.8764e-16 0)
(-7.39381e-20 -9.87635e-16 0)
(-6.59858e-20 -9.8763e-16 0)
(-5.79938e-20 -9.87627e-16 0)
(-5.00737e-20 -9.87624e-16 0)
(-4.22885e-20 -9.87622e-16 0)
(-3.46658e-20 -9.87621e-16 0)
(-2.7213e-20 -9.8762e-16 0)
(-1.99552e-20 -9.87619e-16 0)
(-4.33049e-12 -9.91027e-16 0)
(-1.0872e-07 -5.07474e-07 0)
(5.2905e-07 -0.000420911 0)
(-3.48655e-21 -9.878e-16 0)
(-1.0397e-20 -9.878e-16 0)
(-1.71814e-20 -9.87799e-16 0)
(-2.3838e-20 -9.87797e-16 0)
(-3.03623e-20 -9.87796e-16 0)
(-3.67476e-20 -9.87793e-16 0)
(-4.29832e-20 -9.87791e-16 0)
(-4.90546e-20 -9.87788e-16 0)
(-5.49424e-20 -9.87784e-16 0)
(-6.0622e-20 -9.87781e-16 0)
(-6.60632e-20 -9.87776e-16 0)
(-7.12292e-20 -9.87772e-16 0)
(-7.60772e-20 -9.87766e-16 0)
(-8.05576e-20 -9.87761e-16 0)
(-8.46148e-20 -9.87755e-16 0)
(-8.81878e-20 -9.87748e-16 0)
(-9.12114e-20 -9.87741e-16 0)
(-9.36187e-20 -9.87734e-16 0)
(-9.53434e-20 -9.87727e-16 0)
(-9.63238e-20 -9.87719e-16 0)
(-9.65073e-20 -9.87711e-16 0)
(-9.58548e-20 -9.87703e-16 0)
(-9.43461e-20 -9.87695e-16 0)
(-9.19843e-20 -9.87687e-16 0)
(-8.87988e-20 -9.8768e-16 0)
(-8.48464e-20 -9.87673e-16 0)
(-8.02093e-20 -9.87667e-16 0)
(-7.49903e-20 -9.87661e-16 0)
(-6.93042e-20 -9.87656e-16 0)
(-6.32687e-20 -9.87652e-16 0)
(-5.69939e-20 -9.87648e-16 0)
(-5.05751e-20 -9.87645e-16 0)
(-4.40882e-20 -9.87643e-16 0)
(-3.759e-20 -9.87641e-16 0)
(-3.11205e-20 -9.87639e-16 0)
(-2.47073e-20 -9.87638e-16 0)
(-1.83964e-20 -9.87638e-16 0)
(-4.67245e-12 -9.91372e-16 0)
(-1.1506e-07 -5.51607e-07 0)
(5.21463e-07 -0.000425987 0)
(-3.15493e-21 -9.8779e-16 0)
(-9.40409e-21 -9.8779e-16 0)
(-1.55277e-20 -9.87789e-16 0)
(-2.15171e-20 -9.87788e-16 0)
(-2.73622e-20 -9.87786e-16 0)
(-3.30509e-20 -9.87784e-16 0)
(-3.85688e-20 -9.87782e-16 0)
(-4.38982e-20 -9.87779e-16 0)
(-4.90182e-20 -9.87775e-16 0)
(-5.39042e-20 -9.87772e-16 0)
(-5.85276e-20 -9.87768e-16 0)
(-6.28561e-20 -9.87763e-16 0)
(-6.68537e-20 -9.87759e-16 0)
(-7.0481e-20 -9.87754e-16 0)
(-7.36961e-20 -9.87748e-16 0)
(-7.64554e-20 -9.87743e-16 0)
(-7.87153e-20 -9.87737e-16 0)
(-8.04336e-20 -9.87731e-16 0)
(-8.15717e-20 -9.87724e-16 0)
(-8.20972e-20 -9.87718e-16 0)
(-8.19862e-20 -9.87712e-16 0)
(-8.12255e-20 -9.87705e-16 0)
(-7.98151e-20 -9.87699e-16 0)
(-7.77693e-20 -9.87693e-16 0)
(-7.51174e-20 -9.87687e-16 0)
(-7.19024e-20 -9.87682e-16 0)
(-6.818e-20 -9.87677e-16 0)
(-6.40144e-20 -9.87673e-16 0)
(-5.94752e-20 -9.87669e-16 0)
(-5.46327e-20 -9.87665e-16 0)
(-4.95539e-20 -9.87662e-16 0)
(-4.43001e-20 -9.8766e-16 0)
(-3.89245e-20 -9.87658e-16 0)
(-3.34723e-20 -9.87656e-16 0)
(-2.79807e-20 -9.87655e-16 0)
(-2.24801e-20 -9.87654e-16 0)
(-1.70223e-20 -9.87654e-16 0)
(-5.01254e-12 -9.91736e-16 0)
(-1.22441e-07 -6.0088e-07 0)
(5.16483e-07 -0.000431068 0)
(-2.83427e-21 -9.87782e-16 0)
(-8.44508e-21 -9.87781e-16 0)
(-1.39338e-20 -9.87781e-16 0)
(-1.92873e-20 -9.87779e-16 0)
(-2.44917e-20 -9.87778e-16 0)
(-2.95323e-20 -9.87776e-16 0)
(-3.43926e-20 -9.87773e-16 0)
(-3.90543e-20 -9.87771e-16 0)
(-4.34972e-20 -9.87768e-16 0)
(-4.76986e-20 -9.87764e-16 0)
(-5.1634e-20 -9.87761e-16 0)
(-5.52767e-20 -9.87757e-16 0)
(-5.85983e-20 -9.87753e-16 0)
(-6.15695e-20 -9.87748e-16 0)
(-6.41605e-20 -9.87743e-16 0)
(-6.63419e-20 -9.87738e-16 0)
(-6.80859e-20 -9.87733e-16 0)
(-6.93676e-20 -9.87728e-16 0)
(-7.0166e-20 -9.87723e-16 0)
(-7.04656e-20 -9.87718e-16 0)
(-7.02574e-20 -9.87712e-16 0)
(-6.95402e-20 -9.87707e-16 0)
(-6.83208e-20 -9.87702e-16 0)
(-6.66147e-20 -9.87698e-16 0)
(-6.44453e-20 -9.87693e-16 0)
(-6.18433e-20 -9.87689e-16 0)
(-5.88452e-20 -9.87685e-16 0)
(-5.54917e-20 -9.87682e-16 0)
(-5.18257e-20 -9.87679e-16 0)
(-4.78905e-20 -9.87676e-16 0)
(-4.37284e-20 -9.87674e-16 0)
(-3.93798e-20 -9.87672e-16 0)
(-3.48829e-20 -9.87671e-16 0)
(-3.02733e-20 -9.87669e-16 0)
(-2.55852e-20 -9.87669e-16 0)
(-2.0851e-20 -9.87668e-16 0)
(-1.61322e-20 -9.87668e-16 0)
(-5.71573e-12 -9.92334e-16 0)
(-1.30596e-07 -6.74455e-07 0)
(5.13824e-07 -0.000436184 0)
(-2.53033e-21 -9.87774e-16 0)
(-7.53697e-21 -9.87774e-16 0)
(-1.24275e-20 -9.87773e-16 0)
(-1.7186e-20 -9.87772e-16 0)
(-2.17969e-20 -9.8777e-16 0)
(-2.62441e-20 -9.87768e-16 0)
(-3.0511e-20 -9.87766e-16 0)
(-3.45801e-20 -9.87764e-16 0)
(-3.8433e-20 -9.87761e-16 0)
(-4.20505e-20 -9.87758e-16 0)
(-4.54122e-20 -9.87755e-16 0)
(-4.84974e-20 -9.87751e-16 0)
(-5.12851e-20 -9.87747e-16 0)
(-5.37545e-20 -9.87743e-16 0)
(-5.58857e-20 -9.87739e-16 0)
(-5.76602e-20 -9.87735e-16 0)
(-5.90617e-20 -9.87731e-16 0)
(-6.00767e-20 -9.87726e-16 0)
(-6.06953e-20 -9.87722e-16 0)
(-6.0912e-20 -9.87718e-16 0)
(-6.07257e-20 -9.87713e-16 0)
(-6.01402e-20 -9.87709e-16 0)
(-5.91641e-20 -9.87705e-16 0)
(-5.78108e-20 -9.87701e-16 0)
(-5.60974e-20 -9.87698e-16 0)
(-5.40442e-20 -9.87695e-16 0)
(-5.16735e-20 -9.87692e-16 0)
(-4.90091e-20 -9.87689e-16 0)
(-4.60747e-20 -9.87687e-16 0)
(-4.28937e-20 -9.87685e-16 0)
(-3.94889e-20 -9.87684e-16 0)
(-3.58828e-20 -9.87682e-16 0)
(-3.20982e-20 -9.87681e-16 0)
(-2.81594e-20 -9.87681e-16 0)
(-2.40941e-20 -9.8768e-16 0)
(-1.99345e-20 -9.8768e-16 0)
(-1.57539e-20 -9.8768e-16 0)
(-6.99671e-12 -9.93166e-16 0)
(-1.3947e-07 -7.72821e-07 0)
(5.13119e-07 -0.000441359 0)
(-2.24663e-21 -9.87767e-16 0)
(-6.69008e-21 -9.87767e-16 0)
(-1.10251e-20 -9.87766e-16 0)
(-1.52347e-20 -9.87765e-16 0)
(-1.93025e-20 -9.87764e-16 0)
(-2.32126e-20 -9.87762e-16 0)
(-2.69492e-20 -9.8776e-16 0)
(-3.04964e-20 -9.87758e-16 0)
(-3.38384e-20 -9.87755e-16 0)
(-3.69593e-20 -9.87752e-16 0)
(-3.98434e-20 -9.87749e-16 0)
(-4.24753e-20 -9.87746e-16 0)
(-4.48403e-20 -9.87743e-16 0)
(-4.69247e-20 -9.8774e-16 0)
(-4.87165e-20 -9.87736e-16 0)
(-5.02051e-20 -9.87732e-16 0)
(-5.13827e-20 -9.87729e-16 0)
(-5.22437e-20 -9.87725e-16 0)
(-5.27857e-20 -9.87721e-16 0)
(-5.30093e-20 -9.87718e-16 0)
(-5.29183e-20 -9.87714e-16 0)
(-5.25194e-20 -9.87711e-16 0)
(-5.18217e-20 -9.87707e-16 0)
(-5.08366e-20 -9.87704e-16 0)
(-4.95764e-20 -9.87702e-16 0)
(-4.80537e-20 -9.87699e-16 0)
(-4.62805e-20 -9.87697e-16 0)
(-4.4267e-20 -9.87695e-16 0)
(-4.20209e-20 -9.87693e-16 0)
(-3.95467e-20 -9.87692e-16 0)
(-3.68461e-20 -9.87691e-16 0)
(-3.39182e-20 -9.87691e-16 0)
(-3.07615e-20 -9.87691e-16 0)
(-2.73765e-20 -9.8769e-16 0)
(-2.37696e-20 -9.87691e-16 0)
(-1.9958e-20 -9.87691e-16 0)
(-1.60173e-20 -9.87691e-16 0)
(-8.61591e-12 -9.94236e-16 0)
(-1.48879e-07 -8.90011e-07 0)
(5.14427e-07 -0.000446615 0)
(-1.98488e-21 -9.87761e-16 0)
(-5.90927e-21 -9.87761e-16 0)
(-9.73402e-21 -9.8776e-16 0)
(-1.3442e-20 -9.87759e-16 0)
(-1.70172e-20 -9.87758e-16 0)
(-2.04445e-20 -9.87756e-16 0)
(-2.37095e-20 -9.87754e-16 0)
(-2.67984e-20 -9.87752e-16 0)
(-2.9698e-20 -9.8775e-16 0)
(-3.23957e-20 -9.87748e-16 0)
(-3.48799e-20 -9.87745e-16 0)
(-3.71399e-20 -9.87742e-16 0)
(-3.91661e-20 -9.87739e-16 0)
(-4.09507e-20 -9.87736e-16 0)
(-4.24875e-20 -9.87733e-16 0)
(-4.37723e-20 -9.8773e-16 0)
(-4.48033e-20 -9.87727e-16 0)
(-4.5581e-20 -9.87724e-16 0)
(-4.61085e-20 -9.8772e-16 0)
(-4.63913e-20 -9.87717e-16 0)
(-4.64371e-20 -9.87714e-16 0)
(-4.62556e-20 -9.87712e-16 0)
(-4.5858e-20 -9.87709e-16 0)
(-4.5256e-20 -9.87706e-16 0)
(-4.44608e-20 -9.87704e-16 0)
(-4.34823e-20 -9.87702e-16 0)
(-4.23273e-20 -9.87701e-16 0)
(-4.09981e-20 -9.87699e-16 0)
(-3.94907e-20 -9.87698e-16 0)
(-3.77931e-20 -9.87698e-16 0)
(-3.58836e-20 -9.87697e-16 0)
(-3.37297e-20 -9.87697e-16 0)
(-3.12884e-20 -9.87698e-16 0)
(-2.85081e-20 -9.87699e-16 0)
(-2.53338e-20 -9.877e-16 0)
(-2.1718e-20 -9.87701e-16 0)
(-1.76939e-20 -9.87703e-16 0)
(-1.12702e-11 -9.95709e-16 0)
(-1.58167e-07 -1.0303e-06 0)
(5.18876e-07 -0.000451971 0)
(-1.74541e-21 -9.87756e-16 0)
(-5.19536e-21 -9.87755e-16 0)
(-8.55493e-21 -9.87755e-16 0)
(-1.18076e-20 -9.87754e-16 0)
(-1.49383e-20 -9.87753e-16 0)
(-1.79331e-20 -9.87751e-16 0)
(-2.07792e-20 -9.8775e-16 0)
(-2.34649e-20 -9.87748e-16 0)
(-2.59796e-20 -9.87746e-16 0)
(-2.83136e-20 -9.87744e-16 0)
(-3.04587e-20 -9.87741e-16 0)
(-3.24081e-20 -9.87739e-16 0)
(-3.41563e-20 -9.87736e-16 0)
(-3.56999e-20 -9.87733e-16 0)
(-3.70372e-20 -9.87731e-16 0)
(-3.8169e-20 -9.87728e-16 0)
(-3.90979e-20 -9.87725e-16 0)
(-3.98293e-20 -9.87722e-16 0)
(-4.03707e-20 -9.8772e-16 0)
(-4.07321e-20 -9.87717e-16 0)
(-4.09257e-20 -9.87714e-16 0)
(-4.09654e-20 -9.87712e-16 0)
(-4.08668e-20 -9.8771e-16 0)
(-4.06462e-20 -9.87707e-16 0)
(-4.03196e-20 -9.87706e-16 0)
(-3.99022e-20 -9.87704e-16 0)
(-3.94058e-20 -9.87703e-16 0)
(-3.88374e-20 -9.87702e-16 0)
(-3.81959e-20 -9.87701e-16 0)
(-3.74679e-20 -9.87701e-16 0)
(-3.66227e-20 -9.87701e-16 0)
(-3.56051e-20 -9.87702e-16 0)
(-3.43266e-20 -9.87703e-16 0)
(-3.26555e-20 -9.87705e-16 0)
(-3.0407e-20 -9.87708e-16 0)
(-2.73358e-20 -9.87711e-16 0)
(-2.32342e-20 -9.87715e-16 0)
(-1.78918e-11 -9.98566e-16 0)
(-1.65895e-07 -1.24893e-06 0)
(5.29524e-07 -0.000457447 0)
(-1.52761e-21 -9.87751e-16 0)
(-4.54635e-21 -9.87751e-16 0)
(-7.48399e-21 -9.8775e-16 0)
(-1.0325e-20 -9.87749e-16 0)
(-1.30556e-20 -9.87748e-16 0)
(-1.56631e-20 -9.87747e-16 0)
(-1.81365e-20 -9.87746e-16 0)
(-2.04658e-20 -9.87744e-16 0)
(-2.26427e-20 -9.87742e-16 0)
(-2.46601e-20 -9.8774e-16 0)
(-2.65122e-20 -9.87738e-16 0)
(-2.81953e-20 -9.87736e-16 0)
(-2.97071e-20 -9.87733e-16 0)
(-3.10471e-20 -9.87731e-16 0)
(-3.22173e-20 -9.87729e-16 0)
(-3.32215e-20 -9.87726e-16 0)
(-3.40659e-20 -9.87724e-16 0)
(-3.47593e-20 -9.87721e-16 0)
(-3.53128e-20 -9.87719e-16 0)
(-3.57403e-20 -9.87716e-16 0)
(-3.60583e-20 -9.87714e-16 0)
(-3.62858e-20 -9.87712e-16 0)
(-3.64446e-20 -9.8771e-16 0)
(-3.65589e-20 -9.87708e-16 0)
(-3.66555e-20 -9.87706e-16 0)
(-3.67631e-20 -9.87704e-16 0)
(-3.69123e-20 -9.87703e-16 0)
(-3.71341e-20 -9.87702e-16 0)
(-3.74588e-20 -9.87701e-16 0)
(-3.79123e-20 -9.87701e-16 0)
(-3.85111e-20 -9.87701e-16 0)
(-3.92527e-20 -9.87702e-16 0)
(-4.00982e-20 -9.87704e-16 0)
(-4.09446e-20 -9.87707e-16 0)
(-4.15745e-20 -9.87711e-16 0)
(-4.15734e-20 -9.87717e-16 0)
(-4.04426e-20 -9.87725e-16 0)
(-5.51611e-11 -1.01339e-15 0)
(-1.66405e-07 -2.4048e-06 0)
(5.5799e-07 -0.000463062 0)
(-1.3303e-21 -9.87747e-16 0)
(-3.95859e-21 -9.87747e-16 0)
(-6.5147e-21 -9.87746e-16 0)
(-8.98436e-21 -9.87745e-16 0)
(-1.13549e-20 -9.87744e-16 0)
(-1.36152e-20 -9.87743e-16 0)
(-1.57555e-20 -9.87742e-16 0)
(-1.77677e-20 -9.8774e-16 0)
(-1.96451e-20 -9.87739e-16 0)
(-2.13823e-20 -9.87737e-16 0)
(-2.29758e-20 -9.87735e-16 0)
(-2.44236e-20 -9.87733e-16 0)
(-2.57255e-20 -9.87731e-16 0)
(-2.68832e-20 -9.87729e-16 0)
(-2.79006e-20 -9.87727e-16 0)
(-2.87833e-20 -9.87724e-16 0)
(-2.95398e-20 -9.87722e-16 0)
(-3.01804e-20 -9.8772e-16 0)
(-3.07184e-20 -9.87718e-16 0)
(-3.11698e-20 -9.87715e-16 0)
(-3.15538e-20 -9.87713e-16 0)
(-3.18927e-20 -9.87711e-16 0)
(-3.2213e-20 -9.87709e-16 0)
(-3.25456e-20 -9.87707e-16 0)
(-3.2927e-20 -9.87705e-16 0)
(-3.34004e-20 -9.87704e-16 0)
(-3.40179e-20 -9.87702e-16 0)
(-3.48429e-20 -9.87701e-16 0)
(-3.59541e-20 -9.87699e-16 0)
(-3.74513e-20 -9.87698e-16 0)
(-3.94637e-20 -9.87698e-16 0)
(-4.21617e-20 -9.87697e-16 0)
(-4.57754e-20 -9.87697e-16 0)
(-5.06217e-20 -9.87698e-16 0)
(-5.71449e-20 -9.877e-16 0)
(-6.59795e-20 -9.87704e-16 0)
(-7.97021e-20 -9.87709e-16 0)
(-5.47529e-10 -1.23758e-15 0)
(-1.38049e-07 -1.11151e-05 0)
(6.41433e-07 -0.000468816 0)
(-1.15201e-21 -9.87743e-16 0)
(-3.42757e-21 -9.87743e-16 0)
(-5.63931e-21 -9.87743e-16 0)
(-7.77416e-21 -9.87742e-16 0)
(-9.82066e-21 -9.87741e-16 0)
(-1.17689e-20 -9.8774e-16 0)
(-1.36104e-20 -9.87739e-16 0)
(-1.53382e-20 -9.87737e-16 0)
(-1.69469e-20 -9.87736e-16 0)
(-1.84325e-20 -9.87734e-16 0)
(-1.97926e-20 -9.87733e-16 0)
(-2.10264e-20 -9.87731e-16 0)
(-2.21347e-20 -9.87729e-16 0)
(-2.31202e-20 -9.87727e-16 0)
(-2.39874e-20 -9.87725e-16 0)
(-2.47425e-20 -9.87723e-16 0)
(-2.53941e-20 -9.87721e-16 0)
(-2.59527e-20 -9.87719e-16 0)
(-2.64311e-20 -9.87717e-16 0)
(-2.68449e-20 -9.87715e-16 0)
(-2.72122e-20 -9.87713e-16 0)
(-2.75546e-20 -9.8771e-16 0)
(-2.78973e-20 -9.87708e-16 0)
(-2.82701e-20 -9.87706e-16 0)
(-2.87085e-20 -9.87704e-16 0)
(-2.92552e-20 -9.87702e-16 0)
(-2.99622e-20 -9.877e-16 0)
(-3.08944e-20 -9.87698e-16 0)
(-3.2134e-20 -9.87696e-16 0)
(-3.37878e-20 -9.87694e-16 0)
(-3.5997e-20 -9.87692e-16 0)
(-3.89534e-20 -9.87689e-16 0)
(-4.29225e-20 -9.87686e-16 0)
(-4.82799e-20 -9.87683e-16 0)
(-5.55673e-20 -9.87679e-16 0)
(-6.55799e-20 -9.87674e-16 0)
(-9.99885e-20 -9.87668e-16 0)
(-6.73888e-09 -2.59788e-15 0)
(-1.11903e-07 -2.84218e-05 0)
(7.24691e-07 -0.000474676 0)
(-9.91186e-22 -9.8774e-16 0)
(-2.94863e-21 -9.8774e-16 0)
(-4.84988e-21 -9.8774e-16 0)
(-6.68301e-21 -9.87739e-16 0)
(-8.43761e-21 -9.87738e-16 0)
(-1.01048e-20 -9.87737e-16 0)
(-1.1677e-20 -9.87736e-16 0)
(-1.31483e-20 -9.87735e-16 0)
(-1.45139e-20 -9.87734e-16 0)
(-1.57707e-20 -9.87732e-16 0)
(-1.69168e-20 -9.87731e-16 0)
(-1.79518e-20 -9.87729e-16 0)
(-1.88769e-20 -9.87727e-16 0)
(-1.96945e-20 -9.87726e-16 0)
(-2.04088e-20 -9.87724e-16 0)
(-2.10253e-20 -9.87722e-16 0)
(-2.15512e-20 -9.8772e-16 0)
(-2.19952e-20 -9.87718e-16 0)
(-2.23678e-20 -9.87716e-16 0)
(-2.2681e-20 -9.87714e-16 0)
(-2.29489e-20 -9.87712e-16 0)
(-2.31873e-20 -9.8771e-16 0)
(-2.3414e-20 -9.87708e-16 0)
(-2.36492e-20 -9.87706e-16 0)
(-2.39152e-20 -9.87703e-16 0)
(-2.42372e-20 -9.87701e-16 0)
(-2.46426e-20 -9.87699e-16 0)
(-2.51615e-20 -9.87696e-16 0)
(-2.58254e-20 -9.87694e-16 0)
(-2.66662e-20 -9.8769e-16 0)
(-2.77123e-20 -9.87687e-16 0)
(-2.89821e-20 -9.87683e-16 0)
(-3.04711e-20 -9.87679e-16 0)
(-3.21291e-20 -9.87673e-16 0)
(-3.38187e-20 -9.87666e-16 0)
(-3.52427e-20 -9.87657e-16 0)
(-8.59274e-20 -9.87646e-16 0)
(-6.57228e-09 -4.46186e-15 0)
(-2.07712e-07 -3.93237e-05 0)
(5.75886e-07 -0.000480694 0)
(-8.46351e-22 -9.87737e-16 0)
(-2.51731e-21 -9.87737e-16 0)
(-4.13894e-21 -9.87737e-16 0)
(-5.70031e-21 -9.87736e-16 0)
(-7.19193e-21 -9.87736e-16 0)
(-8.60566e-21 -9.87735e-16 0)
(-9.93472e-21 -9.87734e-16 0)
(-1.11736e-20 -9.87733e-16 0)
(-1.23182e-20 -9.87732e-16 0)
(-1.33656e-20 -9.8773e-16 0)
(-1.43139e-20 -9.87729e-16 0)
(-1.51628e-20 -9.87727e-16 0)
(-1.59129e-20 -9.87726e-16 0)
(-1.65659e-20 -9.87724e-16 0)
(-1.7125e-20 -9.87723e-16 0)
(-1.75939e-20 -9.87721e-16 0)
(-1.79778e-20 -9.87719e-16 0)
(-1.82824e-20 -9.87717e-16 0)
(-1.85145e-20 -9.87715e-16 0)
(-1.86815e-20 -9.87714e-16 0)
(-1.87913e-20 -9.87712e-16 0)
(-1.88523e-20 -9.8771e-16 0)
(-1.88726e-20 -9.87708e-16 0)
(-1.88601e-20 -9.87705e-16 0)
(-1.88215e-20 -9.87703e-16 0)
(-1.87618e-20 -9.87701e-16 0)
(-1.86823e-20 -9.87698e-16 0)
(-1.85794e-20 -9.87696e-16 0)
(-1.84415e-20 -9.87693e-16 0)
(-1.82446e-20 -9.8769e-16 0)
(-1.7947e-20 -9.87686e-16 0)
(-1.74812e-20 -9.87682e-16 0)
(-1.67428e-20 -9.87678e-16 0)
(-1.55763e-20 -9.87673e-16 0)
(-1.37578e-20 -9.87667e-16 0)
(-1.09759e-20 -9.8766e-16 0)
(-1.60263e-20 -9.87653e-16 0)
(-3.87361e-21 -5.33316e-15 0)
(-2.8861e-07 -3.90987e-05 0)
(4.31521e-07 -0.000486901 0)
(-7.16166e-22 -9.87735e-16 0)
(-2.12959e-21 -9.87735e-16 0)
(-3.49982e-21 -9.87735e-16 0)
(-4.81676e-21 -9.87734e-16 0)
(-6.07164e-21 -9.87734e-16 0)
(-7.25694e-21 -9.87733e-16 0)
(-8.36637e-21 -9.87732e-16 0)
(-9.39481e-21 -9.87731e-16 0)
(-1.03383e-20 -9.8773e-16 0)
(-1.11938e-20 -9.87729e-16 0)
(-1.19596e-20 -9.87728e-16 0)
(-1.26346e-20 -9.87726e-16 0)
(-1.32189e-20 -9.87725e-16 0)
(-1.37131e-20 -9.87723e-16 0)
(-1.41188e-20 -9.87722e-16 0)
(-1.44381e-20 -9.8772e-16 0)
(-1.46735e-20 -9.87719e-16 0)
(-1.48279e-20 -9.87717e-16 0)
(-1.49044e-20 -9.87715e-16 0)
(-1.49058e-20 -9.87713e-16 0)
(-1.48347e-20 -9.87712e-16 0)
(-1.46927e-20 -9.8771e-16 0)
(-1.44802e-20 -9.87708e-16 0)
(-1.41959e-20 -9.87706e-16 0)
(-1.38358e-20 -9.87704e-16 0)
(-1.33925e-20 -9.87701e-16 0)
(-1.28537e-20 -9.87699e-16 0)
(-1.22012e-20 -9.87697e-16 0)
(-1.14086e-20 -9.87694e-16 0)
(-1.04399e-20 -9.87691e-16 0)
(-9.24675e-21 -9.87688e-16 0)
(-7.76663e-21 -9.87685e-16 0)
(-5.9208e-21 -9.87681e-16 0)
(-3.61384e-21 -9.87678e-16 0)
(-7.35295e-22 -9.87674e-16 0)
(2.83474e-21 -9.8767e-16 0)
(7.21386e-21 -9.87666e-16 0)
(4.76178e-20 -5.69046e-15 0)
(-3.16548e-07 -3.53831e-05 0)
(3.79652e-07 -0.00049318 0)
(-5.99458e-22 -9.87733e-16 0)
(-1.78199e-21 -9.87733e-16 0)
(-2.92677e-21 -9.87733e-16 0)
(-4.02439e-21 -9.87732e-16 0)
(-5.06668e-21 -9.87732e-16 0)
(-6.0466e-21 -9.87731e-16 0)
(-6.9582e-21 -9.8773e-16 0)
(-7.79657e-21 -9.8773e-16 0)
(-8.55776e-21 -9.87729e-16 0)
(-9.23874e-21 -9.87728e-16 0)
(-9.83729e-21 -9.87726e-16 0)
(-1.0352e-20 -9.87725e-16 0)
(-1.07819e-20 -9.87724e-16 0)
(-1.11269e-20 -9.87723e-16 0)
(-1.1387e-20 -9.87721e-16 0)
(-1.15628e-20 -9.8772e-16 0)
(-1.16547e-20 -9.87718e-16 0)
(-1.16632e-20 -9.87717e-16 0)
(-1.15885e-20 -9.87715e-16 0)
(-1.14302e-20 -9.87714e-16 0)
(-1.11871e-20 -9.87712e-16 0)
(-1.08569e-20 -9.8771e-16 0)
(-1.04355e-20 -9.87709e-16 0)
(-9.91712e-21 -9.87707e-16 0)
(-9.29325e-21 -9.87705e-16 0)
(-8.55249e-21 -9.87703e-16 0)
(-7.67999e-21 -9.87701e-16 0)
(-6.65693e-21 -9.87699e-16 0)
(-5.46029e-21 -9.87697e-16 0)
(-4.06284e-21 -9.87694e-16 0)
(-2.43356e-21 -9.87692e-16 0)
(-5.38943e-22 -9.8769e-16 0)
(1.65468e-21 -9.87687e-16 0)
(4.17714e-21 -9.87685e-16 0)
(7.04842e-21 -9.87682e-16 0)
(1.02699e-20 -9.8768e-16 0)
(1.38127e-20 -9.87678e-16 0)
(6.62613e-20 -6.06738e-15 0)
(-3.19986e-07 -3.06889e-05 0)
(3.38078e-07 -0.000499333 0)
(-4.95219e-22 -9.87732e-16 0)
(-1.47152e-21 -9.87732e-16 0)
(-2.41487e-21 -9.87731e-16 0)
(-3.31648e-21 -9.87731e-16 0)
(-4.16867e-21 -9.8773e-16 0)
(-4.96476e-21 -9.8773e-16 0)
(-5.69909e-21 -9.87729e-16 0)
(-6.36687e-21 -9.87728e-16 0)
(-6.96417e-21 -9.87728e-16 0)
(-7.48781e-21 -9.87727e-16 0)
(-7.9353e-21 -9.87726e-16 0)
(-8.30469e-21 -9.87724e-16 0)
(-8.59456e-21 -9.87723e-16 0)
(-8.80381e-21 -9.87722e-16 0)
(-8.93162e-21 -9.87721e-16 0)
(-8.97722e-21 -9.8772e-16 0)
(-8.9398e-21 -9.87718e-16 0)
(-8.81833e-21 -9.87717e-16 0)
(-8.61133e-21 -9.87716e-16 0)
(-8.3167e-21 -9.87714e-16 0)
(-7.93149e-21 -9.87713e-16 0)
(-7.45165e-21 -9.87711e-16 0)
(-6.87183e-21 -9.8771e-16 0)
(-6.18512e-21 -9.87708e-16 0)
(-5.38284e-21 -9.87707e-16 0)
(-4.4544e-21 -9.87705e-16 0)
(-3.38724e-21 -9.87703e-16 0)
(-2.16686e-21 -9.87702e-16 0)
(-7.77092e-22 -9.877e-16 0)
(7.99349e-22 -9.87698e-16 0)
(2.57999e-21 -9.87696e-16 0)
(4.5812e-21 -9.87695e-16 0)
(6.81622e-21 -9.87693e-16 0)
(9.29245e-21 -9.87691e-16 0)
(1.2008e-20 -9.8769e-16 0)
(1.49471e-20 -9.87688e-16 0)
(1.80748e-20 -9.87687e-16 0)
(8.26415e-20 -6.45639e-15 0)
(-2.73512e-07 -2.55894e-05 0)
(3.01241e-07 -0.000504952 0)
(-4.02578e-22 -9.8773e-16 0)
(-1.19559e-21 -9.8773e-16 0)
(-1.95991e-21 -9.8773e-16 0)
(-2.68728e-21 -9.8773e-16 0)
(-3.37045e-21 -9.87729e-16 0)
(-4.00309e-21 -9.87729e-16 0)
(-4.57974e-21 -9.87728e-16 0)
(-5.09577e-21 -9.87727e-16 0)
(-5.54726e-21 -9.87727e-16 0)
(-5.93096e-21 -9.87726e-16 0)
(-6.24418e-21 -9.87725e-16 0)
(-6.4847e-21 -9.87724e-16 0)
(-6.65069e-21 -9.87723e-16 0)
(-6.7406e-21 -9.87722e-16 0)
(-6.75301e-21 -9.87721e-16 0)
(-6.68659e-21 -9.8772e-16 0)
(-6.53988e-21 -9.87719e-16 0)
(-6.31122e-21 -9.87717e-16 0)
(-5.99857e-21 -9.87716e-16 0)
(-5.59941e-21 -9.87715e-16 0)
(-5.11058e-21 -9.87714e-16 0)
(-4.52814e-21 -9.87712e-16 0)
(-3.84725e-21 -9.87711e-16 0)
(-3.06212e-21 -9.8771e-16 0)
(-2.16591e-21 -9.87709e-16 0)
(-1.15069e-21 -9.87707e-16 0)
(-7.54859e-24 -9.87706e-16 0)
(1.27339e-21 -9.87705e-16 0)
(2.70279e-21 -9.87703e-16 0)
(4.29189e-21 -9.87702e-16 0)
(6.05236e-21 -9.87701e-16 0)
(7.99616e-21 -9.877e-16 0)
(1.01356e-20 -9.87699e-16 0)
(1.24839e-20 -9.87698e-16 0)
(1.5056e-20 -9.87697e-16 0)
(1.78714e-20 -9.87696e-16 0)
(2.0957e-20 -9.87696e-16 0)
(9.97409e-20 -6.80243e-15 0)
(-1.14752e-07 -2.06198e-05 0)
(2.67007e-07 -0.000509072 0)
(-3.20768e-22 -9.87729e-16 0)
(-9.51921e-22 -9.87729e-16 0)
(-1.55818e-21 -9.87729e-16 0)
(-2.13175e-21 -9.87729e-16 0)
(-2.66578e-21 -9.87728e-16 0)
(-3.15425e-21 -9.87728e-16 0)
(-3.59196e-21 -9.87727e-16 0)
(-3.97443e-21 -9.87727e-16 0)
(-4.29781e-21 -9.87726e-16 0)
(-4.55887e-21 -9.87725e-16 0)
(-4.75487e-21 -9.87725e-16 0)
(-4.8835e-21 -9.87724e-16 0)
(-4.94278e-21 -9.87723e-16 0)
(-4.93102e-21 -9.87722e-16 0)
(-4.84665e-21 -9.87721e-16 0)
(-4.68823e-21 -9.8772e-16 0)
(-4.45426e-21 -9.87719e-16 0)
(-4.14316e-21 -9.87718e-16 0)
(-3.75315e-21 -9.87717e-16 0)
(-3.28219e-21 -9.87716e-16 0)
(-2.72788e-21 -9.87715e-16 0)
(-2.08746e-21 -9.87714e-16 0)
(-1.35771e-21 -9.87713e-16 0)
(-5.34963e-22 -9.87712e-16 0)
(3.84858e-22 -9.87711e-16 0)
(1.40624e-21 -9.8771e-16 0)
(2.53402e-21 -9.87709e-16 0)
(3.77327e-21 -9.87708e-16 0)
(5.12927e-21 -9.87707e-16 0)
(6.60749e-21 -9.87706e-16 0)
(8.21364e-21 -9.87705e-16 0)
(9.954e-21 -9.87705e-16 0)
(1.1836e-20 -9.87704e-16 0)
(1.38697e-20 -9.87704e-16 0)
(1.60694e-20 -9.87704e-16 0)
(1.84581e-20 -9.87704e-16 0)
(2.10729e-20 -9.87704e-16 0)
(1.00991e-19 -7.01477e-15 0)
(1.61213e-10 -1.65154e-05 0)
(2.32338e-07 -0.000511068 0)
(-2.49097e-22 -9.87729e-16 0)
(-7.3847e-22 -9.87728e-16 0)
(-1.20631e-21 -9.87728e-16 0)
(-1.64529e-21 -9.87728e-16 0)
(-2.04893e-21 -9.87728e-16 0)
(-2.41153e-21 -9.87727e-16 0)
(-2.72813e-21 -9.87727e-16 0)
(-2.99446e-21 -9.87726e-16 0)
(-3.20682e-21 -9.87726e-16 0)
(-3.36208e-21 -9.87725e-16 0)
(-3.45758e-21 -9.87724e-16 0)
(-3.49107e-21 -9.87724e-16 0)
(-3.46066e-21 -9.87723e-16 0)
(-3.36473e-21 -9.87722e-16 0)
(-3.2019e-21 -9.87721e-16 0)
(-2.97093e-21 -9.8772e-16 0)
(-2.67072e-21 -9.8772e-16 0)
(-2.3002e-21 -9.87719e-16 0)
(-1.85832e-21 -9.87718e-16 0)
(-1.34401e-21 -9.87717e-16 0)
(-7.56167e-22 -9.87716e-16 0)
(-9.3648e-23 -9.87715e-16 0)
(6.44727e-22 -9.87714e-16 0)
(1.46013e-21 -9.87714e-16 0)
(2.35367e-21 -9.87713e-16 0)
(3.32632e-21 -9.87712e-16 0)
(4.37876e-21 -9.87711e-16 0)