/*--------------------------------*- C++ -*----------------------------------*\
  =========                 |
  \\      /  F ield         | OpenFOAM: The Open Source CFD Toolbox
   \\    /   O peration     | Website:  https://openfoam.org
    \\  /    A nd           | Version:  10
     \\/     M anipulation  |
\*---------------------------------------------------------------------------*/
FoamFile
{
    format      ascii;
    class       volScalarField;
    location    "0.065";
    object      pPrime2Mean;
}
// * * * * * * * * * * * * * * * * * * * * * * * * * * * * * * * * * * * * * //

dimensions      [0 4 -4 0 0 0 0];

internalField   nonuniform List<scalar> 
12225
(
6.54038e+06
6.43727e+06
6.33101e+06
6.22822e+06
6.12923e+06
6.03383e+06
5.94182e+06
5.85295e+06
5.76695e+06
5.68355e+06
5.60241e+06
5.52316e+06
5.44533e+06
5.36835e+06
5.2914e+06
5.21322e+06
5.13153e+06
5.04057e+06
6.54055e+06
6.43735e+06
6.33107e+06
6.22828e+06
6.1293e+06
6.03391e+06
5.9419e+06
5.85304e+06
5.76707e+06
5.6837e+06
5.6026e+06
5.5234e+06
5.44565e+06
5.3688e+06
5.29207e+06
5.2143e+06
5.13357e+06
5.04566e+06
6.5408e+06
6.4375e+06
6.33121e+06
6.22842e+06
6.12945e+06
6.03407e+06
5.94209e+06
5.85327e+06
5.76734e+06
5.68403e+06
5.60301e+06
5.52393e+06
5.44636e+06
5.36978e+06
5.2935e+06
5.21658e+06
5.13767e+06
5.05513e+06
6.54108e+06
6.43774e+06
6.33144e+06
6.22866e+06
6.12969e+06
6.03435e+06
5.9424e+06
5.85363e+06
5.76778e+06
5.68457e+06
5.60369e+06
5.52481e+06
5.44752e+06
5.37137e+06
5.2958e+06
5.22013e+06
5.14366e+06
5.06648e+06
6.54139e+06
6.43808e+06
6.33178e+06
6.229e+06
6.13006e+06
6.03475e+06
5.94286e+06
5.85417e+06
5.76843e+06
5.68536e+06
5.60468e+06
5.52608e+06
5.4492e+06
5.37365e+06
5.29901e+06
5.2249e+06
5.15117e+06
5.07874e+06
6.54188e+06
6.43856e+06
6.33225e+06
6.22948e+06
6.13057e+06
6.03531e+06
5.94349e+06
5.85491e+06
5.76931e+06
5.68645e+06
5.60604e+06
5.5278e+06
5.45144e+06
5.37665e+06
5.30315e+06
5.23081e+06
5.15984e+06
5.09143e+06
6.54252e+06
6.43919e+06
6.33287e+06
6.23011e+06
6.13123e+06
6.03604e+06
5.94433e+06
5.85589e+06
5.77048e+06
5.68787e+06
5.6078e+06
5.53003e+06
5.4543e+06
5.38041e+06
5.30821e+06
5.23774e+06
5.16941e+06
5.10434e+06
6.54332e+06
6.44001e+06
6.33368e+06
6.23093e+06
6.13209e+06
6.03698e+06
5.9454e+06
5.85713e+06
5.77196e+06
5.68966e+06
5.61001e+06
5.5328e+06
5.45782e+06
5.38495e+06
5.31415e+06
5.24556e+06
5.17966e+06
5.11736e+06
6.54448e+06
6.44107e+06
6.3347e+06
6.23195e+06
6.13316e+06
6.03815e+06
5.94673e+06
5.85867e+06
5.77379e+06
5.69187e+06
5.61271e+06
5.53614e+06
5.46201e+06
5.39025e+06
5.32089e+06
5.25413e+06
5.19042e+06
5.13044e+06
6.54582e+06
6.44239e+06
6.33596e+06
6.23321e+06
6.13448e+06
6.03959e+06
5.94835e+06
5.86056e+06
5.77601e+06
5.69453e+06
5.61593e+06
5.54008e+06
5.46688e+06
5.39628e+06
5.32837e+06
5.26335e+06
5.20158e+06
5.14356e+06
6.54781e+06
6.44403e+06
6.3375e+06
6.23474e+06
6.13608e+06
6.04133e+06
5.9503e+06
5.8628e+06
5.77865e+06
5.69767e+06
5.6197e+06
5.54464e+06
5.4724e+06
5.403e+06
5.3365e+06
5.2731e+06
5.21306e+06
5.15669e+06
6.54957e+06
6.44582e+06
6.33919e+06
6.23641e+06
6.13782e+06
6.04322e+06
5.95242e+06
5.86523e+06
5.78148e+06
5.701e+06
5.62366e+06
5.54936e+06
5.47805e+06
5.40973e+06
5.34448e+06
5.28244e+06
5.22379e+06
5.16874e+06
6.55212e+06
6.44793e+06
6.34113e+06
6.23832e+06
6.1398e+06
6.04536e+06
5.95481e+06
5.86796e+06
5.78464e+06
5.7047e+06
5.62801e+06
5.5545e+06
5.48411e+06
5.41685e+06
5.35278e+06
5.29198e+06
5.23458e+06
5.18067e+06
6.55546e+06
6.45073e+06
6.3437e+06
6.24084e+06
6.1424e+06
6.04817e+06
5.95793e+06
5.87149e+06
5.78871e+06
5.70942e+06
5.63351e+06
5.56091e+06
5.49157e+06
5.42548e+06
5.36265e+06
5.30314e+06
5.24699e+06
5.19422e+06
6.55984e+06
6.45441e+06
6.34706e+06
6.24413e+06
6.1458e+06
6.05182e+06
5.96196e+06
5.87605e+06
5.7939e+06
5.71538e+06
5.64038e+06
5.56881e+06
5.50061e+06
5.43576e+06
5.37422e+06
5.31601e+06
5.26109e+06
5.20944e+06
6.56521e+06
6.4591e+06
6.35138e+06
6.24836e+06
6.15018e+06
6.05651e+06
5.96712e+06
5.88182e+06
5.80042e+06
5.72279e+06
5.6488e+06
5.57835e+06
5.51136e+06
5.44778e+06
5.38754e+06
5.33058e+06
5.27685e+06
5.22626e+06
6.57183e+06
6.46483e+06
6.35672e+06
6.25366e+06
6.15566e+06
6.06238e+06
5.97356e+06
5.88896e+06
5.80842e+06
5.73176e+06
5.65885e+06
5.58957e+06
5.52382e+06
5.46149e+06
5.4025e+06
5.34674e+06
5.29411e+06
5.2445e+06
6.57896e+06
6.47136e+06
6.36301e+06
6.25999e+06
6.16228e+06
6.06947e+06
5.98129e+06
5.89749e+06
5.81786e+06
5.74223e+06
5.67043e+06
5.60232e+06
5.53777e+06
5.47663e+06
5.4188e+06
5.36414e+06
5.31251e+06
5.26379e+06
6.58627e+06
6.47823e+06
6.36984e+06
6.26704e+06
6.16974e+06
6.07753e+06
5.99008e+06
5.90713e+06
5.82846e+06
5.75385e+06
5.68313e+06
5.61613e+06
5.55268e+06
5.49263e+06
5.43583e+06
5.38213e+06
5.33138e+06
5.28343e+06
6.59025e+06
6.48276e+06
6.3748e+06
6.27245e+06
6.17567e+06
6.08403e+06
5.99722e+06
5.91495e+06
5.837e+06
5.76315e+06
5.6932e+06
5.62697e+06
5.56428e+06
5.50496e+06
5.44884e+06
5.39577e+06
5.34558e+06
5.29813e+06
6.59167e+06
6.48507e+06
6.3777e+06
6.27586e+06
6.17953e+06
6.08834e+06
6.00199e+06
5.9202e+06
5.84273e+06
5.76937e+06
5.69991e+06
5.63415e+06
5.57192e+06
5.51304e+06
5.45733e+06
5.40463e+06
5.35478e+06
5.30763e+06
6.5926e+06
6.48643e+06
6.37957e+06
6.27817e+06
6.18225e+06
6.09143e+06
6.00544e+06
5.924e+06
5.84688e+06
5.77387e+06
5.70475e+06
5.63933e+06
5.57741e+06
5.51883e+06
5.4634e+06
5.41095e+06
5.36133e+06
5.31437e+06
6.59199e+06
6.48695e+06
6.38069e+06
6.27971e+06
6.18412e+06
6.09361e+06
6.00789e+06
5.92671e+06
5.84985e+06
5.77708e+06
5.70821e+06
5.64301e+06
5.58132e+06
5.52294e+06
5.46769e+06
5.41542e+06
5.36595e+06
5.31913e+06
6.59176e+06
6.48718e+06
6.38136e+06
6.28072e+06
6.1854e+06
6.09512e+06
6.0096e+06
5.92862e+06
5.85194e+06
5.77935e+06
5.71063e+06
5.6456e+06
5.58406e+06
5.52581e+06
5.4707e+06
5.41854e+06
5.36918e+06
5.32245e+06
6.59141e+06
6.4872e+06
6.38174e+06
6.28137e+06
6.18626e+06
6.09615e+06
6.01078e+06
5.92993e+06
5.85338e+06
5.7809e+06
5.71231e+06
5.64738e+06
5.58594e+06
5.52779e+06
5.47276e+06
5.42068e+06
5.37139e+06
5.32472e+06
6.59051e+06
6.48705e+06
6.38194e+06
6.28178e+06
6.18683e+06
6.09683e+06
6.01156e+06
5.93081e+06
5.85434e+06
5.78195e+06
5.71343e+06
5.64858e+06
5.5872e+06
5.52912e+06
5.47415e+06
5.42212e+06
5.37287e+06
5.32624e+06
6.58988e+06
6.4869e+06
6.38205e+06
6.28204e+06
6.18719e+06
6.09727e+06
6.01207e+06
5.93137e+06
5.85496e+06
5.78262e+06
5.71415e+06
5.64935e+06
5.58801e+06
5.52997e+06
5.47504e+06
5.42304e+06
5.37382e+06
5.32722e+06
6.58952e+06
6.4868e+06
6.3821e+06
6.28219e+06
6.1874e+06
6.09753e+06
6.01237e+06
5.93171e+06
5.85534e+06
5.78303e+06
5.71459e+06
5.64981e+06
5.58851e+06
5.53049e+06
5.47558e+06
5.4236e+06
5.3744e+06
5.32781e+06
6.58935e+06
6.48675e+06
6.38213e+06
6.28227e+06
6.18751e+06
6.09767e+06
6.01254e+06
5.9319e+06
5.85554e+06
5.78325e+06
5.71483e+06
5.65006e+06
5.58877e+06
5.53077e+06
5.47587e+06
5.4239e+06
5.37471e+06
5.32813e+06
6.58928e+06
6.48672e+06
6.38214e+06
6.2823e+06
6.18756e+06
6.09773e+06
6.01261e+06
5.93197e+06
5.85562e+06
5.78334e+06
5.71492e+06
5.65017e+06
5.58888e+06
5.53088e+06
5.47598e+06
5.42402e+06
5.37484e+06
5.32826e+06
4.2606e+06
4.26026e+06
4.25958e+06
4.25854e+06
4.25714e+06
4.25538e+06
4.25325e+06
4.25075e+06
4.24786e+06
4.24459e+06
4.24094e+06
4.23689e+06
4.23244e+06
4.22758e+06
4.22233e+06
4.21666e+06
4.21059e+06
4.20411e+06
4.19723e+06
4.18993e+06
4.18223e+06
4.17413e+06
4.16563e+06
4.15673e+06
4.14743e+06
4.13775e+06
4.12768e+06
4.11724e+06
4.10641e+06
4.0952e+06
4.08362e+06
4.07168e+06
4.05938e+06
4.04672e+06
4.0337e+06
4.02034e+06
4.00664e+06
3.9926e+06
3.97825e+06
3.96357e+06
3.94857e+06
3.93326e+06
3.91763e+06
3.90169e+06
3.88545e+06
3.86891e+06
3.85207e+06
3.83495e+06
3.81754e+06
3.79985e+06
3.7819e+06
3.76369e+06
3.74522e+06
3.72651e+06
3.70756e+06
3.68836e+06
3.66894e+06
3.64929e+06
3.62941e+06
3.6093e+06
3.58899e+06
3.56846e+06
3.54774e+06
3.5268e+06
3.50567e+06
3.48433e+06
3.46279e+06
3.44106e+06
3.41913e+06
3.397e+06
3.37469e+06
3.35219e+06
3.32952e+06
3.30666e+06
3.28363e+06
3.26044e+06
3.23709e+06
3.21358e+06
3.18993e+06
3.16613e+06
3.14219e+06
3.11812e+06
3.09392e+06
3.06958e+06
3.04512e+06
3.02054e+06
2.99583e+06
2.97101e+06
2.94608e+06
2.92105e+06
2.89592e+06
2.8707e+06
2.84539e+06
2.81999e+06
2.79449e+06
2.76888e+06
2.74315e+06
2.71731e+06
2.69135e+06
2.66526e+06
2.63905e+06
2.61273e+06
2.5863e+06
2.55976e+06
2.53313e+06
2.5064e+06
2.4796e+06
2.45273e+06
2.4258e+06
2.39881e+06
2.37177e+06
2.34469e+06
2.31756e+06
2.29039e+06
2.26317e+06
2.23592e+06
2.20862e+06
2.18128e+06
2.1539e+06
2.12648e+06
2.09903e+06
2.07153e+06
2.04401e+06
2.01645e+06
1.98886e+06
1.96124e+06
1.93361e+06
1.90595e+06
1.87828e+06
1.85059e+06
1.8229e+06
1.7952e+06
1.7675e+06
1.73981e+06
1.71211e+06
1.68443e+06
1.65676e+06
1.6291e+06
1.60147e+06
1.57386e+06
1.54627e+06
1.51872e+06
1.4912e+06
1.46372e+06
1.43629e+06
1.4089e+06
1.38157e+06
1.35429e+06
1.32708e+06
1.29993e+06
1.27285e+06
1.24585e+06
1.21893e+06
1.1921e+06
1.16537e+06
1.13873e+06
1.1122e+06
1.08578e+06
1.05947e+06
1.0333e+06
1.00725e+06
981329
955553
929927
904455
879145
854006
829047
804278
779707
755346
731205
707297
683637
660244
637140
614357
591941
569972
548621
4.26215e+06
4.26181e+06
4.26112e+06
4.26008e+06
4.25867e+06
4.2569e+06
4.25476e+06
4.25224e+06
4.24934e+06
4.24606e+06
4.24238e+06
4.23831e+06
4.23384e+06
4.22896e+06
4.22368e+06
4.21799e+06
4.21189e+06
4.20538e+06
4.19846e+06
4.19113e+06
4.1834e+06
4.17527e+06
4.16673e+06
4.1578e+06
4.14847e+06
4.13875e+06
4.12865e+06
4.11817e+06
4.1073e+06
4.09607e+06
4.08447e+06
4.0725e+06
4.06018e+06
4.04749e+06
4.03445e+06
4.02106e+06
4.00733e+06
3.99327e+06
3.97889e+06
3.96418e+06
3.94916e+06
3.93381e+06
3.91816e+06
3.90219e+06
3.88593e+06
3.86936e+06
3.85251e+06
3.83537e+06
3.81794e+06
3.80024e+06
3.78227e+06
3.76404e+06
3.74555e+06
3.72683e+06
3.70786e+06
3.68865e+06
3.66921e+06
3.64954e+06
3.62965e+06
3.60954e+06
3.58921e+06
3.56868e+06
3.54794e+06
3.527e+06
3.50586e+06
3.48451e+06
3.46296e+06
3.44122e+06
3.41928e+06
3.39715e+06
3.37482e+06
3.35232e+06
3.32963e+06
3.30677e+06
3.28374e+06
3.26054e+06
3.23718e+06
3.21367e+06
3.19001e+06
3.1662e+06
3.14226e+06
3.11818e+06
3.09398e+06
3.06964e+06
3.04518e+06
3.02059e+06
2.99589e+06
2.97107e+06
2.94614e+06
2.92111e+06
2.89599e+06
2.87078e+06
2.84547e+06
2.82007e+06
2.79456e+06
2.76895e+06
2.74321e+06
2.71737e+06
2.6914e+06
2.66531e+06
2.6391e+06
2.61277e+06
2.58634e+06
2.5598e+06
2.53316e+06
2.50643e+06
2.47963e+06
2.45275e+06
2.42581e+06
2.39882e+06
2.37178e+06
2.3447e+06
2.31757e+06
2.29039e+06
2.26318e+06
2.23592e+06
2.20863e+06
2.18129e+06
2.15391e+06
2.12649e+06
2.09903e+06
2.07153e+06
2.04401e+06
2.01645e+06
1.98886e+06
1.96125e+06
1.93361e+06
1.90595e+06
1.87828e+06
1.8506e+06
1.8229e+06
1.7952e+06
1.76751e+06
1.73981e+06
1.71211e+06
1.68443e+06
1.65676e+06
1.62911e+06
1.60147e+06
1.57386e+06
1.54627e+06
1.51872e+06
1.4912e+06
1.46372e+06
1.43629e+06
1.4089e+06
1.38157e+06
1.35429e+06
1.32708e+06
1.29993e+06
1.27285e+06
1.24585e+06
1.21894e+06
1.19211e+06
1.16537e+06
1.13873e+06
1.1122e+06
1.08578e+06
1.05948e+06
1.0333e+06
1.00725e+06
981329
955553
929927
904455
879145
854005
829045
804275
779704
755341
731199
707289
683627
660231
637122
614331
591900
569898
548446
4.26524e+06
4.26489e+06
4.26419e+06
4.26314e+06
4.26173e+06
4.25994e+06
4.25778e+06
4.25524e+06
4.25231e+06
4.249e+06
4.24528e+06
4.24117e+06
4.23665e+06
4.23172e+06
4.22639e+06
4.22064e+06
4.21448e+06
4.20791e+06
4.20093e+06
4.19354e+06
4.18574e+06
4.17754e+06
4.16894e+06
4.15993e+06
4.15054e+06
4.14075e+06
4.13058e+06
4.12003e+06
4.1091e+06
4.09781e+06
4.08614e+06
4.07411e+06
4.06173e+06
4.04899e+06
4.0359e+06
4.02246e+06
4.00868e+06
3.99457e+06
3.98014e+06
3.96539e+06
3.95031e+06
3.93491e+06
3.91921e+06
3.90319e+06
3.88689e+06
3.87028e+06
3.85338e+06
3.8362e+06
3.81873e+06
3.80099e+06
3.78299e+06
3.76472e+06
3.74621e+06
3.72745e+06
3.70845e+06
3.68921e+06
3.66974e+06
3.65004e+06
3.63012e+06
3.60999e+06
3.58965e+06
3.5691e+06
3.54834e+06
3.52738e+06
3.50622e+06
3.48485e+06
3.46329e+06
3.44152e+06
3.41957e+06
3.39742e+06
3.37509e+06
3.35257e+06
3.32987e+06
3.30699e+06
3.28395e+06
3.26074e+06
3.23737e+06
3.21384e+06
3.19017e+06
3.16635e+06
3.1424e+06
3.11831e+06
3.0941e+06
3.06975e+06
3.04528e+06
3.0207e+06
2.99599e+06
2.97118e+06
2.94626e+06
2.92123e+06
2.89612e+06
2.8709e+06
2.84559e+06
2.82018e+06
2.79467e+06
2.76905e+06
2.74331e+06
2.71746e+06
2.69149e+06
2.66539e+06
2.63918e+06
2.61285e+06
2.58641e+06
2.55986e+06
2.53321e+06
2.50648e+06
2.47967e+06
2.45279e+06
2.42585e+06
2.39885e+06
2.37181e+06
2.34472e+06
2.31758e+06
2.29041e+06
2.26319e+06
2.23593e+06
2.20863e+06
2.18129e+06
2.15391e+06
2.12649e+06
2.09903e+06
2.07154e+06
2.04401e+06
2.01645e+06
1.98886e+06
1.96125e+06
1.93361e+06
1.90595e+06
1.87828e+06
1.8506e+06
1.8229e+06
1.79521e+06
1.76751e+06
1.73981e+06
1.71212e+06
1.68443e+06
1.65676e+06
1.62911e+06
1.60147e+06
1.57386e+06
1.54628e+06
1.51872e+06
1.4912e+06
1.46373e+06
1.43629e+06
1.4089e+06
1.38157e+06
1.35429e+06
1.32708e+06
1.29993e+06
1.27286e+06
1.24586e+06
1.21894e+06
1.19211e+06
1.16537e+06
1.13873e+06
1.1122e+06
1.08578e+06
1.05948e+06
1.0333e+06
1.00725e+06
981329
955553
929926
904454
879142
854002
829041
804270
779697
755333
731188
707275
683609
660205
637087
614280
591821
569764
548173
4.2699e+06
4.26954e+06
4.26883e+06
4.26777e+06
4.26633e+06
4.26452e+06
4.26233e+06
4.25975e+06
4.25678e+06
4.25341e+06
4.24963e+06
4.24545e+06
4.24086e+06
4.23585e+06
4.23044e+06
4.2246e+06
4.21836e+06
4.21169e+06
4.20462e+06
4.19713e+06
4.18924e+06
4.18094e+06
4.17223e+06
4.16313e+06
4.15364e+06
4.14375e+06
4.13348e+06
4.12283e+06
4.11181e+06
4.10041e+06
4.08865e+06
4.07653e+06
4.06405e+06
4.05122e+06
4.03804e+06
4.02452e+06
4.01067e+06
3.99649e+06
3.98199e+06
3.96716e+06
3.95201e+06
3.93655e+06
3.92078e+06
3.9047e+06
3.88833e+06
3.87165e+06
3.85469e+06
3.83744e+06
3.81992e+06
3.80212e+06
3.78406e+06
3.76574e+06
3.74718e+06
3.72836e+06
3.70932e+06
3.69003e+06
3.67052e+06
3.65079e+06
3.63084e+06
3.61068e+06
3.5903e+06
3.56972e+06
3.54893e+06
3.52794e+06
3.50675e+06
3.48536e+06
3.46376e+06
3.44197e+06
3.41999e+06
3.39782e+06
3.37546e+06
3.35292e+06
3.33021e+06
3.30731e+06
3.28425e+06
3.26103e+06
3.23764e+06
3.2141e+06
3.19041e+06
3.16657e+06
3.1426e+06
3.1185e+06
3.09427e+06
3.06992e+06
3.04544e+06
3.02085e+06
2.99615e+06
2.97134e+06
2.94642e+06
2.9214e+06
2.89628e+06
2.87107e+06
2.84575e+06
2.82034e+06
2.79482e+06
2.76919e+06
2.74345e+06
2.71759e+06
2.69162e+06
2.66552e+06
2.6393e+06
2.61296e+06
2.58651e+06
2.55995e+06
2.5333e+06
2.50655e+06
2.47973e+06
2.45284e+06
2.4259e+06
2.39889e+06
2.37184e+06
2.34474e+06
2.31761e+06
2.29043e+06
2.26321e+06
2.23595e+06
2.20865e+06
2.1813e+06
2.15392e+06
2.1265e+06
2.09904e+06
2.07154e+06
2.04402e+06
2.01646e+06
1.98887e+06
1.96125e+06
1.93361e+06
1.90596e+06
1.87829e+06
1.8506e+06
1.82291e+06
1.79521e+06
1.76751e+06
1.73981e+06
1.71212e+06
1.68444e+06
1.65677e+06
1.62911e+06
1.60148e+06
1.57386e+06
1.54628e+06
1.51873e+06
1.49121e+06
1.46373e+06
1.43629e+06
1.40891e+06
1.38157e+06
1.3543e+06
1.32708e+06
1.29994e+06
1.27286e+06
1.24586e+06
1.21894e+06
1.19211e+06
1.16538e+06
1.13874e+06
1.11221e+06
1.08578e+06
1.05948e+06
1.0333e+06
1.00724e+06
981327
955551
929923
904450
879138
853997
829035
804262
779687
755320
731172
707254
683581
660168
637035
614207
591711
569586
547857
4.27616e+06
4.27579e+06
4.27507e+06
4.27398e+06
4.27252e+06
4.27067e+06
4.26843e+06
4.26579e+06
4.26275e+06
4.2593e+06
4.25544e+06
4.25116e+06
4.24647e+06
4.24136e+06
4.23583e+06
4.22988e+06
4.22352e+06
4.21673e+06
4.20953e+06
4.20191e+06
4.19389e+06
4.18546e+06
4.17662e+06
4.16739e+06
4.15776e+06
4.14774e+06
4.13734e+06
4.12656e+06
4.1154e+06
4.10388e+06
4.09199e+06
4.07974e+06
4.06714e+06
4.05419e+06
4.0409e+06
4.02727e+06
4.01331e+06
3.99903e+06
3.98443e+06
3.9695e+06
3.95427e+06
3.93872e+06
3.92286e+06
3.9067e+06
3.89024e+06
3.87348e+06
3.85643e+06
3.8391e+06
3.82149e+06
3.80361e+06
3.78547e+06
3.76708e+06
3.74845e+06
3.72957e+06
3.71046e+06
3.69112e+06
3.67156e+06
3.65178e+06
3.63178e+06
3.61157e+06
3.59116e+06
3.57053e+06
3.54971e+06
3.52868e+06
3.50745e+06
3.48602e+06
3.46439e+06
3.44257e+06
3.42055e+06
3.39835e+06
3.37596e+06
3.35339e+06
3.33064e+06
3.30772e+06
3.28463e+06
3.26138e+06
3.23798e+06
3.21441e+06
3.1907e+06
3.16685e+06
3.14286e+06
3.11875e+06
3.0945e+06
3.07014e+06
3.04566e+06
3.02106e+06
2.99636e+06
2.97154e+06
2.94662e+06
2.92161e+06
2.89649e+06
2.87127e+06
2.84595e+06
2.82053e+06
2.79501e+06
2.76937e+06
2.74363e+06
2.71776e+06
2.69178e+06
2.66567e+06
2.63944e+06
2.6131e+06
2.58664e+06
2.56007e+06
2.5334e+06
2.50665e+06
2.47982e+06
2.45292e+06
2.42596e+06
2.39895e+06
2.37189e+06
2.34478e+06
2.31764e+06
2.29046e+06
2.26323e+06
2.23597e+06
2.20867e+06
2.18132e+06
2.15394e+06
2.12651e+06
2.09905e+06
2.07155e+06
2.04402e+06
2.01646e+06
1.98887e+06
1.96126e+06
1.93362e+06
1.90596e+06
1.87829e+06
1.8506e+06
1.82291e+06
1.79521e+06
1.76751e+06
1.73982e+06
1.71212e+06
1.68444e+06
1.65677e+06
1.62912e+06
1.60148e+06
1.57387e+06
1.54628e+06
1.51873e+06
1.49121e+06
1.46373e+06
1.4363e+06
1.40891e+06
1.38158e+06
1.3543e+06
1.32709e+06
1.29994e+06
1.27286e+06
1.24586e+06
1.21895e+06
1.19212e+06
1.16538e+06
1.13874e+06
1.11221e+06
1.08579e+06
1.05948e+06
1.0333e+06
1.00724e+06
981326
955548
929919
904445
879132
853990
829026
804252
779674
755304
731151
707227
683545
660120
636970
614114
591576
569379
547525
4.28406e+06
4.28369e+06
4.28294e+06
4.28182e+06
4.28031e+06
4.2784e+06
4.27609e+06
4.27337e+06
4.27024e+06
4.26669e+06
4.26273e+06
4.25834e+06
4.25352e+06
4.24828e+06
4.24261e+06
4.23651e+06
4.22999e+06
4.22305e+06
4.21568e+06
4.2079e+06
4.19971e+06
4.19111e+06
4.18211e+06
4.1727e+06
4.1629e+06
4.15272e+06
4.14215e+06
4.1312e+06
4.11989e+06
4.1082e+06
4.09615e+06
4.08375e+06
4.071e+06
4.0579e+06
4.04447e+06
4.0307e+06
4.01661e+06
4.0022e+06
3.98747e+06
3.97242e+06
3.95707e+06
3.94141e+06
3.92544e+06
3.90918e+06
3.89261e+06
3.87575e+06
3.85859e+06
3.84115e+06
3.82344e+06
3.80545e+06
3.78722e+06
3.76873e+06
3.75001e+06
3.73105e+06
3.71187e+06
3.69246e+06
3.67283e+06
3.65299e+06
3.63293e+06
3.61267e+06
3.5922e+06
3.57153e+06
3.55065e+06
3.52958e+06
3.5083e+06
3.48683e+06
3.46516e+06
3.4433e+06
3.42124e+06
3.399e+06
3.37657e+06
3.35396e+06
3.33117e+06
3.30821e+06
3.28509e+06
3.2618e+06
3.23837e+06
3.21478e+06
3.19105e+06
3.16718e+06
3.14317e+06
3.11903e+06
3.09478e+06
3.0704e+06
3.04591e+06
3.02131e+06
2.9966e+06
2.97179e+06
2.94687e+06
2.92185e+06
2.89673e+06
2.8715e+06
2.84618e+06
2.82076e+06
2.79523e+06
2.76958e+06
2.74383e+06
2.71796e+06
2.69196e+06
2.66585e+06
2.63961e+06
2.61326e+06
2.58679e+06
2.56021e+06
2.53353e+06
2.50676e+06
2.47991e+06
2.453e+06
2.42603e+06
2.39901e+06
2.37194e+06
2.34483e+06
2.31768e+06
2.29049e+06
2.26326e+06
2.236e+06
2.20869e+06
2.18134e+06
2.15395e+06
2.12653e+06
2.09906e+06
2.07156e+06
2.04403e+06
2.01647e+06
1.98888e+06
1.96126e+06
1.93362e+06
1.90597e+06
1.87829e+06
1.85061e+06
1.82292e+06
1.79522e+06
1.76752e+06
1.73982e+06
1.71213e+06
1.68445e+06
1.65678e+06
1.62912e+06
1.60149e+06
1.57387e+06
1.54629e+06
1.51874e+06
1.49122e+06
1.46374e+06
1.43631e+06
1.40892e+06
1.38159e+06
1.35431e+06
1.32709e+06
1.29995e+06
1.27287e+06
1.24587e+06
1.21895e+06
1.19212e+06
1.16539e+06
1.13875e+06
1.11221e+06
1.08579e+06
1.05948e+06
1.0333e+06
1.00724e+06
981325
955546
929915
904439
879125
853981
829016
804239
779659
755284
731126
707194
683502
660063
636892
614007
591423
569154
547190
4.29367e+06
4.29328e+06
4.2925e+06
4.29132e+06
4.28975e+06
4.28776e+06
4.28537e+06
4.28255e+06
4.2793e+06
4.27563e+06
4.27153e+06
4.26699e+06
4.26202e+06
4.25661e+06
4.25077e+06
4.24449e+06
4.23778e+06
4.23065e+06
4.22309e+06
4.2151e+06
4.20671e+06
4.1979e+06
4.18869e+06
4.17908e+06
4.16908e+06
4.15869e+06
4.14792e+06
4.13677e+06
4.12525e+06
4.11337e+06
4.10113e+06
4.08854e+06
4.07561e+06
4.06234e+06
4.04873e+06
4.0348e+06
4.02055e+06
4.00597e+06
3.99109e+06
3.9759e+06
3.96041e+06
3.94461e+06
3.92852e+06
3.91212e+06
3.89543e+06
3.87844e+06
3.86116e+06
3.84359e+06
3.82575e+06
3.80765e+06
3.78929e+06
3.7707e+06
3.75187e+06
3.73282e+06
3.71354e+06
3.69405e+06
3.67434e+06
3.65443e+06
3.6343e+06
3.61397e+06
3.59344e+06
3.57271e+06
3.55178e+06
3.53065e+06
3.50933e+06
3.4878e+06
3.46609e+06
3.44418e+06
3.42207e+06
3.39978e+06
3.3773e+06
3.35464e+06
3.3318e+06
3.30879e+06
3.28562e+06
3.26229e+06
3.23882e+06
3.2152e+06
3.19144e+06
3.16755e+06
3.14352e+06
3.11937e+06
3.0951e+06
3.07071e+06
3.04621e+06
3.0216e+06
2.99688e+06
2.97206e+06
2.94714e+06
2.92211e+06
2.89699e+06
2.87177e+06
2.84644e+06
2.82101e+06
2.79547e+06
2.76982e+06
2.74405e+06
2.71817e+06
2.69217e+06
2.66605e+06
2.6398e+06
2.61343e+06
2.58695e+06
2.56036e+06
2.53367e+06
2.50688e+06
2.48002e+06
2.4531e+06
2.42612e+06
2.39909e+06
2.37201e+06
2.34489e+06
2.31773e+06
2.29054e+06
2.2633e+06
2.23603e+06
2.20872e+06
2.18136e+06
2.15397e+06
2.12654e+06
2.09908e+06
2.07158e+06
2.04404e+06
2.01648e+06
1.98889e+06
1.96127e+06
1.93363e+06
1.90597e+06
1.8783e+06
1.85062e+06
1.82292e+06
1.79523e+06
1.76753e+06
1.73983e+06
1.71214e+06
1.68445e+06
1.65678e+06
1.62913e+06
1.60149e+06
1.57388e+06
1.5463e+06
1.51875e+06
1.49123e+06
1.46375e+06
1.43631e+06
1.40893e+06
1.38159e+06
1.35432e+06
1.3271e+06
1.29995e+06
1.27288e+06
1.24588e+06
1.21896e+06
1.19213e+06
1.16539e+06
1.13875e+06
1.11222e+06
1.08579e+06
1.05949e+06
1.0333e+06
1.00725e+06
981324
955543
929911
904433
879118
853972
829005
804225
779641
755261
731096
707156
683452
659997
636804
613887
591257
568919
546860
4.30503e+06
4.30461e+06
4.30378e+06
4.30254e+06
4.30089e+06
4.29881e+06
4.2963e+06
4.29335e+06
4.28996e+06
4.28614e+06
4.28187e+06
4.27715e+06
4.27199e+06
4.26638e+06
4.26033e+06
4.25383e+06
4.2469e+06
4.23953e+06
4.23174e+06
4.22352e+06
4.21488e+06
4.20583e+06
4.19637e+06
4.18652e+06
4.17627e+06
4.16564e+06
4.15463e+06
4.14324e+06
4.13149e+06
4.11938e+06
4.10692e+06
4.09411e+06
4.08096e+06
4.06747e+06
4.05367e+06
4.03954e+06
4.02509e+06
4.01034e+06
3.99528e+06
3.97992e+06
3.96427e+06
3.94832e+06
3.93207e+06
3.91553e+06
3.89869e+06
3.88155e+06
3.86412e+06
3.84641e+06
3.82842e+06
3.81018e+06
3.79169e+06
3.77296e+06
3.75401e+06
3.73484e+06
3.71546e+06
3.69587e+06
3.67608e+06
3.65608e+06
3.63587e+06
3.61547e+06
3.59487e+06
3.57407e+06
3.55308e+06
3.53189e+06
3.51051e+06
3.48893e+06
3.46716e+06
3.44519e+06
3.42304e+06
3.40069e+06
3.37815e+06
3.35544e+06
3.33254e+06
3.30948e+06
3.28625e+06
3.26287e+06
3.23935e+06
3.21569e+06
3.1919e+06
3.16798e+06
3.14393e+06
3.11976e+06
3.09547e+06
3.07107e+06
3.04655e+06
3.02193e+06
2.9972e+06
2.97236e+06
2.94743e+06
2.9224e+06
2.89727e+06
2.87205e+06
2.84671e+06
2.82127e+06
2.79572e+06
2.77006e+06
2.74428e+06
2.71839e+06
2.69238e+06
2.66625e+06
2.63999e+06
2.61362e+06
2.58712e+06
2.56052e+06
2.53381e+06
2.50701e+06
2.48014e+06
2.4532e+06
2.42621e+06
2.39917e+06
2.37208e+06
2.34495e+06
2.31779e+06
2.29059e+06
2.26335e+06
2.23607e+06
2.20875e+06
2.18139e+06
2.154e+06
2.12657e+06
2.0991e+06
2.0716e+06
2.04406e+06
2.01649e+06
1.9889e+06
1.96128e+06
1.93364e+06
1.90598e+06
1.87831e+06
1.85063e+06
1.82293e+06
1.79524e+06
1.76754e+06
1.73984e+06
1.71215e+06
1.68446e+06
1.65679e+06
1.62914e+06
1.60151e+06
1.57389e+06
1.54631e+06
1.51876e+06
1.49124e+06
1.46376e+06
1.43633e+06
1.40894e+06
1.3816e+06
1.35433e+06
1.32711e+06
1.29996e+06
1.27289e+06
1.24589e+06
1.21897e+06
1.19214e+06
1.1654e+06
1.13876e+06
1.11222e+06
1.0858e+06
1.05949e+06
1.0333e+06
1.00725e+06
981323
955541
929907
904427
879110
853962
828993
804210
779621
755236
731064
707114
683397
659925
636709
613758
591083
568682
546539
4.31821e+06
4.31775e+06
4.31687e+06
4.31555e+06
4.3138e+06
4.3116e+06
4.30895e+06
4.30584e+06
4.30228e+06
4.29827e+06
4.29379e+06
4.28886e+06
4.28347e+06
4.27762e+06
4.27131e+06
4.26456e+06
4.25736e+06
4.24972e+06
4.24165e+06
4.23315e+06
4.22423e+06
4.21489e+06
4.20515e+06
4.19501e+06
4.18448e+06
4.17357e+06
4.16228e+06
4.15062e+06
4.1386e+06
4.12622e+06
4.1135e+06
4.10043e+06
4.08703e+06
4.07331e+06
4.05926e+06
4.04491e+06
4.03025e+06
4.01529e+06
4.00004e+06
3.98449e+06
3.96866e+06
3.95254e+06
3.93612e+06
3.9194e+06
3.90239e+06
3.88509e+06
3.86749e+06
3.84961e+06
3.83145e+06
3.81305e+06
3.7944e+06
3.77552e+06
3.75643e+06
3.73713e+06
3.71763e+06
3.69793e+06
3.67804e+06
3.65794e+06
3.63765e+06
3.61716e+06
3.59648e+06
3.5756e+06
3.55454e+06
3.53328e+06
3.51184e+06
3.4902e+06
3.46837e+06
3.44634e+06
3.42413e+06
3.40172e+06
3.37912e+06
3.35634e+06
3.33338e+06
3.31026e+06
3.28697e+06
3.26354e+06
3.23997e+06
3.21627e+06
3.19244e+06
3.16848e+06
3.14441e+06
3.12021e+06
3.0959e+06
3.07147e+06
3.04694e+06
3.02229e+06
2.99754e+06
2.97269e+06
2.94775e+06
2.92271e+06
2.89757e+06
2.87233e+06
2.84699e+06
2.82154e+06
2.79598e+06
2.7703e+06
2.74451e+06
2.71861e+06
2.69259e+06
2.66645e+06
2.64018e+06
2.6138e+06
2.58729e+06
2.56068e+06
2.53396e+06
2.50715e+06
2.48026e+06
2.45331e+06
2.42631e+06
2.39926e+06
2.37216e+06
2.34502e+06
2.31785e+06
2.29064e+06
2.26339e+06
2.23611e+06
2.20879e+06
2.18143e+06
2.15403e+06
2.12659e+06
2.09912e+06
2.07162e+06
2.04408e+06
2.01651e+06
1.98891e+06
1.9613e+06
1.93365e+06
1.906e+06
1.87832e+06
1.85064e+06
1.82294e+06
1.79525e+06
1.76755e+06
1.73985e+06
1.71216e+06
1.68448e+06
1.65681e+06
1.62915e+06
1.60152e+06
1.57391e+06
1.54632e+06
1.51877e+06
1.49125e+06
1.46377e+06
1.43634e+06
1.40895e+06
1.38162e+06
1.35434e+06
1.32712e+06
1.29997e+06
1.2729e+06
1.2459e+06
1.21898e+06
1.19215e+06
1.16541e+06
1.13877e+06
1.11223e+06
1.0858e+06
1.05949e+06
1.03331e+06
1.00725e+06
981322
955538
929902
904421
879102
853952
828979
804192
779599
755208
731028
707068
683338
659847
636607
613624
590904
568445
546229
4.33331e+06
4.3328e+06
4.33185e+06
4.33044e+06
4.32857e+06
4.32622e+06
4.3234e+06
4.32011e+06
4.31634e+06
4.31209e+06
4.30737e+06
4.30217e+06
4.2965e+06
4.29036e+06
4.28376e+06
4.2767e+06
4.26919e+06
4.26123e+06
4.25284e+06
4.24401e+06
4.23476e+06
4.2251e+06
4.21502e+06
4.20456e+06
4.1937e+06
4.18247e+06
4.17086e+06
4.15889e+06
4.14656e+06
4.13389e+06
4.12087e+06
4.10751e+06
4.09383e+06
4.07984e+06
4.06553e+06
4.05093e+06
4.03603e+06
4.02084e+06
4.00537e+06
3.98962e+06
3.97358e+06
3.95726e+06
3.94065e+06
3.92374e+06
3.90654e+06
3.88904e+06
3.87125e+06
3.85318e+06
3.83484e+06
3.81624e+06
3.79742e+06
3.77837e+06
3.75913e+06
3.73969e+06
3.72005e+06
3.70023e+06
3.68022e+06
3.66001e+06
3.63962e+06
3.61903e+06
3.59826e+06
3.5773e+06
3.55616e+06
3.53482e+06
3.51331e+06
3.4916e+06
3.4697e+06
3.44761e+06
3.42532e+06
3.40285e+06
3.38018e+06
3.35734e+06
3.33431e+06
3.31113e+06
3.28778e+06
3.2643e+06
3.24067e+06
3.21693e+06
3.19305e+06
3.16906e+06
3.14495e+06
3.12073e+06
3.09638e+06
3.07193e+06
3.04737e+06
3.02269e+06
2.99792e+06
2.97305e+06
2.94808e+06
2.92303e+06
2.89788e+06
2.87263e+06
2.84728e+06
2.82181e+06
2.79623e+06
2.77053e+06
2.74473e+06
2.71881e+06
2.69278e+06
2.66663e+06
2.64036e+06
2.61397e+06
2.58745e+06
2.56082e+06
2.53409e+06
2.50727e+06
2.48037e+06
2.45341e+06
2.4264e+06
2.39934e+06
2.37224e+06
2.3451e+06
2.31792e+06
2.2907e+06
2.26345e+06
2.23616e+06
2.20883e+06
2.18147e+06
2.15406e+06
2.12662e+06
2.09915e+06
2.07164e+06
2.0441e+06
2.01653e+06
1.98893e+06
1.96131e+06
1.93367e+06
1.90601e+06
1.87834e+06
1.85065e+06
1.82296e+06
1.79526e+06
1.76756e+06
1.73987e+06
1.71217e+06
1.68449e+06
1.65682e+06
1.62917e+06
1.60154e+06
1.57393e+06
1.54634e+06
1.51879e+06
1.49127e+06
1.46379e+06
1.43636e+06
1.40897e+06
1.38163e+06
1.35435e+06
1.32714e+06
1.29999e+06
1.27291e+06
1.24591e+06
1.21899e+06
1.19216e+06
1.16542e+06
1.13878e+06
1.11224e+06
1.08581e+06
1.0595e+06
1.03331e+06
1.00725e+06
981321
955536
929898
904414
879093
853940
828965
804174
779576
755178
730989
707019
683275
659766
636501
613487
590725
568212
545933
4.35044e+06
4.34989e+06
4.34886e+06
4.34733e+06
4.34532e+06
4.3428e+06
4.33978e+06
4.33625e+06
4.33223e+06
4.3277e+06
4.32268e+06
4.31717e+06
4.31118e+06
4.3047e+06
4.29774e+06
4.29032e+06
4.28244e+06
4.27411e+06
4.26533e+06
4.25613e+06
4.2465e+06
4.23645e+06
4.22601e+06
4.21517e+06
4.20394e+06
4.19235e+06
4.18038e+06
4.16806e+06
4.15539e+06
4.14238e+06
4.12903e+06
4.11535e+06
4.10136e+06
4.08706e+06
4.07247e+06
4.05758e+06
4.04241e+06
4.02697e+06
4.01125e+06
3.99526e+06
3.97899e+06
3.96245e+06
3.94562e+06
3.9285e+06
3.91108e+06
3.89337e+06
3.87537e+06
3.85709e+06
3.83855e+06
3.81976e+06
3.80074e+06
3.78151e+06
3.7621e+06
3.7425e+06
3.72272e+06
3.70275e+06
3.68261e+06
3.66228e+06
3.64177e+06
3.62108e+06
3.6002e+06
3.57915e+06
3.55791e+06
3.53649e+06
3.51489e+06
3.4931e+06
3.47113e+06
3.44897e+06
3.42661e+06
3.40406e+06
3.38133e+06
3.35841e+06
3.33532e+06
3.31207e+06
3.28866e+06
3.26512e+06
3.24145e+06
3.21766e+06
3.19374e+06
3.16971e+06
3.14557e+06
3.1213e+06
3.09693e+06
3.07244e+06
3.04784e+06
3.02314e+06
2.99834e+06
2.97344e+06
2.94845e+06
2.92337e+06
2.8982e+06
2.87294e+06
2.84756e+06
2.82208e+06
2.79647e+06
2.77076e+06
2.74493e+06
2.719e+06
2.69296e+06
2.6668e+06
2.64052e+06
2.61412e+06
2.58759e+06
2.56096e+06
2.53421e+06
2.50738e+06
2.48048e+06
2.45351e+06
2.4265e+06
2.39943e+06
2.37232e+06
2.34517e+06
2.31799e+06
2.29076e+06
2.26351e+06
2.23621e+06
2.20888e+06
2.18151e+06
2.1541e+06
2.12666e+06
2.09918e+06
2.07167e+06
2.04412e+06
2.01655e+06
1.98895e+06
1.96133e+06
1.93369e+06
1.90603e+06
1.87835e+06
1.85067e+06
1.82297e+06
1.79528e+06
1.76758e+06
1.73988e+06
1.71219e+06
1.68451e+06
1.65684e+06
1.62919e+06
1.60156e+06
1.57395e+06
1.54637e+06
1.51881e+06
1.4913e+06
1.46382e+06
1.43638e+06
1.40899e+06
1.38165e+06
1.35437e+06
1.32716e+06
1.30001e+06
1.27293e+06
1.24592e+06
1.219e+06
1.19217e+06
1.16543e+06
1.13879e+06
1.11225e+06
1.08582e+06
1.0595e+06
1.03331e+06
1.00725e+06
981321
955533
929893
904408
879084
853929
828950
804155
779551
755147
730949
706968
683209
659682
636394
613348
590547
567986
545652
4.36978e+06
4.36917e+06
4.36804e+06
4.36638e+06
4.36419e+06
4.36146e+06
4.3582e+06
4.3544e+06
4.35008e+06
4.34523e+06
4.33985e+06
4.33397e+06
4.32758e+06
4.32069e+06
4.31332e+06
4.30547e+06
4.29716e+06
4.28839e+06
4.27917e+06
4.26952e+06
4.25945e+06
4.24898e+06
4.2381e+06
4.22684e+06
4.2152e+06
4.2032e+06
4.19083e+06
4.17812e+06
4.16506e+06
4.15167e+06
4.13796e+06
4.12393e+06
4.10959e+06