/*--------------------------------*- C++ -*----------------------------------*\
  =========                 |
  \\      /  F ield         | OpenFOAM: The Open Source CFD Toolbox
   \\    /   O peration     | Website:  https://openfoam.org
    \\  /    A nd           | Version:  10
     \\/     M anipulation  |
\*---------------------------------------------------------------------------*/
FoamFile
{
    format      ascii;
    class       volVectorField;
    location    "0.116";
    object      U;
}
// * * * * * * * * * * * * * * * * * * * * * * * * * * * * * * * * * * * * * //

dimensions      [0 1 -1 0 0 0 0];

internalField   nonuniform List<vector> 
4000
(
(5.00002 -7.35898e-05 0)
(5.00015 -0.000220819 0)
(5.00044 -0.000368102 0)
(5.00088 -0.000515622 0)
(5.00148 -0.000663468 0)
(5.00222 -0.000811793 0)
(5.0031 -0.000960688 0)
(5.00414 -0.00111033 0)
(5.00532 -0.00126083 0)
(5.00666 -0.00141241 0)
(5.00815 -0.00156523 0)
(5.00979 -0.00171953 0)
(5.01159 -0.00187553 0)
(5.01354 -0.00203351 0)
(5.01565 -0.00219373 0)
(5.01793 -0.00235649 0)
(5.02037 -0.00252214 0)
(5.02297 -0.00269099 0)
(5.02575 -0.00286344 0)
(5.02869 -0.00303984 0)
(5.03182 -0.00322067 0)
(5.03513 -0.00340628 0)
(5.03863 -0.00359721 0)
(5.04232 -0.00379383 0)
(5.04621 -0.00399673 0)
(5.0503 -0.00420631 0)
(5.05461 -0.00442321 0)
(5.05914 -0.00464782 0)
(5.06389 -0.00488084 0)
(5.06889 -0.00512269 0)
(5.07413 -0.0053741 0)
(5.07962 -0.00563549 0)
(5.08538 -0.00590765 0)
(5.09142 -0.006191 0)
(5.09774 -0.00648636 0)
(5.10437 -0.00679417 0)
(5.11131 -0.00711526 0)
(5.11857 -0.00745009 0)
(5.12618 -0.00779952 0)
(5.13415 -0.00816399 0)
(5.14248 -0.00854438 0)
(5.1512 -0.00894112 0)
(5.16033 -0.00935512 0)
(5.16988 -0.00978677 0)
(5.17987 -0.010237 0)
(5.19031 -0.0107061 0)
(5.20124 -0.011195 0)
(5.21266 -0.0117041 0)
(5.2246 -0.0122341 0)
(5.23708 -0.0127853 0)
(5.25013 -0.0133584 0)
(5.26375 -0.0139536 0)
(5.27798 -0.0145716 0)
(5.29284 -0.0152122 0)
(5.30835 -0.0158759 0)
(5.32454 -0.0165625 0)
(5.34142 -0.0172722 0)
(5.35903 -0.0180045 0)
(5.37738 -0.0187591 0)
(5.39649 -0.019535 0)
(5.41639 -0.0203318 0)
(5.4371 -0.0211479 0)
(5.45864 -0.0219822 0)
(5.48102 -0.0228323 0)
(5.50426 -0.0236966 0)
(5.52837 -0.0245719 0)
(5.55337 -0.0254556 0)
(5.57926 -0.0263438 0)
(5.60604 -0.0272329 0)
(5.63371 -0.0281179 0)
(5.66227 -0.0289943 0)
(5.69171 -0.0298563 0)
(5.722 -0.0306984 0)
(5.75313 -0.0315138 0)
(5.78507 -0.0322965 0)
(5.81778 -0.0330392 0)
(5.85122 -0.0337355 0)
(5.88534 -0.034378 0)
(5.92008 -0.0349605 0)
(5.95537 -0.035476 0)
(5.99115 -0.0359191 0)
(6.02735 -0.0362839 0)
(6.06387 -0.0365664 0)
(6.10064 -0.0367623 0)
(6.13756 -0.0368696 0)
(6.17455 -0.0368861 0)
(6.21151 -0.0368118 0)
(6.24836 -0.0366468 0)
(6.28499 -0.0363933 0)
(6.32132 -0.0360535 0)
(6.35726 -0.0356316 0)
(6.39274 -0.0351314 0)
(6.42768 -0.0345587 0)
(6.46201 -0.0339187 0)
(6.49565 -0.0332181 0)
(6.52856 -0.0324628 0)
(6.56069 -0.0316601 0)
(6.59198 -0.0308159 0)
(6.6224 -0.0299376 0)
(6.65192 -0.0290311 0)
(6.68052 -0.0281029 0)
(6.70817 -0.0271588 0)
(6.73487 -0.0262046 0)
(6.7606 -0.0252451 0)
(6.78537 -0.0242857 0)
(6.80917 -0.0233304 0)
(6.83202 -0.0223836 0)
(6.85392 -0.0214485 0)
(6.87489 -0.0205288 0)
(6.89495 -0.0196269 0)
(6.91411 -0.0187455 0)
(6.9324 -0.0178863 0)
(6.94984 -0.0170513 0)
(6.96646 -0.0162415 0)
(6.98228 -0.0154582 0)
(6.99733 -0.0147017 0)
(7.01163 -0.0139729 0)
(7.02522 -0.0132716 0)
(7.03812 -0.0125982 0)
(7.05036 -0.0119523 0)
(7.06197 -0.0113338 0)
(7.07297 -0.0107421 0)
(7.0834 -0.010177 0)
(7.09328 -0.00963755 0)
(7.10263 -0.00912334 0)
(7.11147 -0.00863345 0)
(7.11985 -0.00816722 0)
(7.12776 -0.0077237 0)
(7.13525 -0.00730215 0)
(7.14233 -0.00690157 0)
(7.14901 -0.0065212 0)
(7.15533 -0.00616007 0)
(7.1613 -0.00581742 0)
(7.16693 -0.00549234 0)
(7.17225 -0.00518412 0)
(7.17727 -0.00489187 0)
(7.182 -0.00461494 0)
(7.18647 -0.00435249 0)
(7.19068 -0.00410391 0)
(7.19465 -0.00386839 0)
(7.1984 -0.00364538 0)
(7.20192 -0.0034341 0)
(7.20524 -0.00323407 0)
(7.20837 -0.00304456 0)
(7.21132 -0.00286518 0)
(7.21409 -0.00269525 0)
(7.21669 -0.00253447 0)
(7.21915 -0.00238222 0)
(7.22145 -0.00223827 0)
(7.22362 -0.002102 0)
(7.22565 -0.00197325 0)
(7.22756 -0.00185138 0)
(7.22935 -0.00173627 0)
(7.23103 -0.00162728 0)
(7.23261 -0.00152431 0)
(7.23409 -0.00142676 0)
(7.23547 -0.00133458 0)
(7.23677 -0.00124721 0)
(7.23798 -0.00116467 0)
(7.23911 -0.00108644 0)
(7.24017 -0.00101261 0)
(7.24115 -0.000942701 0)
(7.24208 -0.000876823 0)
(7.24293 -0.000814514 0)
(7.24373 -0.000755897 0)
(7.24448 -0.000700505 0)
(7.24517 -0.000648449 0)
(7.24581 -0.00059926 0)
(7.2464 -0.00055304 0)
(7.24695 -0.00050934 0)
(7.24746 -0.000468258 0)
(7.24793 -0.000429389 0)
(7.24836 -0.000392842 0)
(7.24875 -0.000358271 0)
(7.24912 -0.000325798 0)
(7.24944 -0.000295136 0)
(7.24974 -0.000266416 0)
(7.25002 -0.000239395 0)
(7.25026 -0.000214201 0)
(7.25048 -0.000190614 0)
(7.25068 -0.000168745 0)
(7.25085 -0.000148387 0)
(7.25101 -0.00012962 0)
(7.25115 -0.000112245 0)
(7.25127 -9.63141e-05 0)
(7.25138 -8.16338e-05 0)
(7.25147 -6.82333e-05 0)
(7.25155 -5.59423e-05 0)
(7.25162 -4.47711e-05 0)
(7.25168 -3.45878e-05 0)
(7.25174 -2.53858e-05 0)
(7.25178 -1.70849e-05 0)
(7.25181 -9.67032e-06 0)
(7.25184 -3.11463e-06 0)
(7.25187 2.52685e-06 0)
(7.25189 7.26875e-06 0)
(7.25191 1.09088e-05 0)
(7.25192 1.34727e-05 0)
(7.25194 1.53345e-05 0)
(7.25195 1.64549e-05 0)
(5.00002 -0.000220462 0)
(5.00015 -0.000661578 0)
(5.00044 -0.00110294 0)
(5.00088 -0.001545 0)
(5.00147 -0.00198804 0)
(5.00221 -0.00243246 0)
(5.00309 -0.00287856 0)
(5.00413 -0.0033268 0)
(5.00531 -0.0037776 0)
(5.00664 -0.00423152 0)
(5.00813 -0.00468911 0)
(5.00976 -0.00515104 0)
(5.01155 -0.00561801 0)
(5.0135 -0.00609078 0)
(5.0156 -0.00657022 0)
(5.01786 -0.00705719 0)
(5.02029 -0.00755273 0)
(5.02288 -0.00805781 0)
(5.02564 -0.0085736 0)
(5.02857 -0.00910122 0)
(5.03168 -0.00964197 0)
(5.03497 -0.010197 0)
(5.03845 -0.0107679 0)
(5.04211 -0.0113559 0)
(5.04598 -0.0119625 0)
(5.05005 -0.0125891 0)
(5.05433 -0.0132374 0)
(5.05882 -0.0139089 0)
(5.06354 -0.0146055 0)
(5.0685 -0.0153285 0)
(5.0737 -0.0160799 0)
(5.07915 -0.0168614 0)
(5.08487 -0.0176749 0)
(5.09086 -0.018522 0)
(5.09714 -0.0194049 0)
(5.10371 -0.0203252 0)
(5.1106 -0.0212851 0)
(5.11781 -0.0222863 0)
(5.12536 -0.023331 0)
(5.13326 -0.024421 0)
(5.14154 -0.0255585 0)
(5.15019 -0.0267451 0)
(5.15925 -0.0279833 0)
(5.16873 -0.0292747 0)
(5.17864 -0.0306215 0)
(5.18901 -0.0320253 0)
(5.19986 -0.0334883 0)
(5.2112 -0.035012 0)
(5.22306 -0.0365985 0)
(5.23546 -0.038249 0)
(5.24841 -0.0399654 0)
(5.26195 -0.0417485 0)
(5.27609 -0.0435999 0)
(5.29086 -0.04552 0)
(5.30628 -0.0475098 0)
(5.32238 -0.0495691 0)
(5.33917 -0.0516982 0)
(5.35669 -0.0538958 0)
(5.37496 -0.0561614 0)
(5.39399 -0.0584924 0)
(5.41381 -0.0608869 0)
(5.43445 -0.0633409 0)
(5.45592 -0.0658504 0)
(5.47824 -0.0684097 0)
(5.50144 -0.0710127 0)
(5.52551 -0.0736511 0)
(5.55049 -0.0763163 0)
(5.57637 -0.0789972 0)
(5.60316 -0.0816824 0)
(5.63086 -0.0843578 0)
(5.65947 -0.087009 0)
(5.68897 -0.0896188 0)
(5.71937 -0.0921702 0)
(5.75062 -0.0946433 0)
(5.78271 -0.0970186 0)
(5.8156 -0.0992749 0)
(5.84924 -0.101391 0)
(5.88359 -0.103346 0)
(5.91858 -0.10512 0)
(5.95416 -0.10669 0)
(5.99025 -0.108041 0)
(6.02677 -0.109155 0)
(6.06364 -0.110017 0)
(6.10076 -0.110617 0)
(6.13805 -0.110946 0)
(6.1754 -0.110998 0)
(6.21273 -0.110774 0)
(6.24993 -0.110273 0)
(6.28692 -0.109503 0)
(6.32359 -0.108471 0)
(6.35986 -0.107188 0)
(6.39565 -0.105669 0)
(6.43087 -0.10393 0)
(6.46545 -0.101987 0)
(6.49933 -0.0998603 0)
(6.53245 -0.0975693 0)
(6.56476 -0.095135 0)
(6.5962 -0.092577 0)
(6.62676 -0.0899163 0)
(6.65638 -0.087172 0)
(6.68506 -0.0843638 0)
(6.71276 -0.0815091 0)
(6.73949 -0.0786256 0)
(6.76524 -0.0757286 0)
(6.79 -0.0728333 0)
(6.81378 -0.0699524 0)
(6.83659 -0.0670985 0)
(6.85844 -0.0642818 0)
(6.87935 -0.0615124 0)
(6.89933 -0.0587981 0)
(6.91841 -0.0561463 0)
(6.93661 -0.0535626 0)
(6.95395 -0.0510522 0)
(6.97047 -0.0486187 0)
(6.98618 -0.0462653 0)
(7.00112 -0.0439938 0)
(7.01532 -0.0418058 0)
(7.0288 -0.0397017 0)
(7.04159 -0.0376817 0)
(7.05372 -0.0357451 0)
(7.06522 -0.0338913 0)
(7.07612 -0.0321187 0)
(7.08644 -0.0304257 0)
(7.09622 -0.0288104 0)
(7.10547 -0.0272708 0)
(7.11422 -0.0258044 0)
(7.1225 -0.0244089 0)
(7.13033 -0.0230816 0)
(7.13773 -0.0218201 0)
(7.14473 -0.0206216 0)
(7.15133 -0.0194836 0)
(7.15758 -0.0184034 0)
(7.16347 -0.0173785 0)
(7.16904 -0.0164063 0)
(7.17429 -0.0154846 0)
(7.17924 -0.0146107 0)
(7.18392 -0.0137827 0)
(7.18833 -0.0129981 0)
(7.19249 -0.0122551 0)
(7.19641 -0.0115513 0)
(7.2001 -0.0108852 0)
(7.20358 -0.0102545 0)
(7.20686 -0.00965765 0)
(7.20994 -0.00909273 0)
(7.21285 -0.00855822 0)
(7.21558 -0.00805238 0)
(7.21815 -0.00757387 0)
(7.22057 -0.00712109 0)
(7.22284 -0.00669293 0)
(7.22497 -0.00628792 0)
(7.22698 -0.00590514 0)
(7.22886 -0.00554322 0)
(7.23063 -0.00520135 0)
(7.23228 -0.00487825 0)
(7.23383 -0.0045732 0)
(7.23529 -0.00428497 0)
(7.23665 -0.00401293 0)
(7.23792 -0.00375591 0)
(7.23912 -0.00351338 0)
(7.24023 -0.00328426 0)
(7.24127 -0.0030681 0)
(7.24224 -0.0028639 0)
(7.24315 -0.00267131 0)
(7.24399 -0.00248939 0)
(7.24477 -0.00231783 0)
(7.2455 -0.00215574 0)
(7.24618 -0.00200285 0)
(7.24681 -0.00185831 0)
(7.24739 -0.0017219 0)
(7.24793 -0.00159283 0)
(7.24843 -0.00147093 0)
(7.24888 -0.00135554 0)
(7.24931 -0.00124656 0)
(7.24969 -0.00114347 0)
(7.25004 -0.00104624 0)
(7.25036 -0.000954512 0)
(7.25066 -0.000868304 0)
(7.25092 -0.000787383 0)
(7.25116 -0.00071177 0)
(7.25137 -0.000641297 0)
(7.25156 -0.000575953 0)
(7.25173 -0.000515571 0)
(7.25188 -0.000460078 0)
(7.25201 -0.000409274 0)
(7.25213 -0.000363014 0)
(7.25223 -0.000321051 0)
(7.25232 -0.000283181 0)
(7.2524 -0.000249128 0)
(7.25246 -0.00021866 0)
(7.25252 -0.000191509 0)
(7.25256 -0.00016743 0)
(7.2526 -0.000146208 0)
(7.25264 -0.000127619 0)
(7.25266 -0.000111531 0)
(7.25268 -9.78426e-05 0)
(7.2527 -8.64744e-05 0)
(7.25271 -7.76068e-05 0)
(7.25272 -7.11791e-05 0)
(7.25274 -6.71937e-05 0)
(7.25274 -6.60407e-05 0)
(5.00002 -0.000366782 0)
(5.00015 -0.00110064 0)
(5.00044 -0.00183499 0)
(5.00088 -0.0025704 0)
(5.00147 -0.00330736 0)
(5.0022 -0.0040464 0)
(5.00308 -0.00478808 0)
(5.0041 -0.00553306 0)
(5.00528 -0.00628211 0)
(5.0066 -0.00703607 0)
(5.00808 -0.00779589 0)
(5.0097 -0.00856264 0)
(5.01148 -0.0093375 0)
(5.01341 -0.0101217 0)
(5.01549 -0.0109168 0)
(5.01773 -0.0117241 0)
(5.02014 -0.0125454 0)
(5.0227 -0.0133823 0)
(5.02543 -0.0142368 0)
(5.02833 -0.0151108 0)
(5.03141 -0.0160064 0)
(5.03466 -0.0169257 0)
(5.03809 -0.017871 0)
(5.04171 -0.0188447 0)
(5.04552 -0.0198491 0)
(5.04954 -0.0208868 0)
(5.05376 -0.0219605 0)
(5.05819 -0.0230728 0)
(5.06284 -0.0242264 0)
(5.06773 -0.0254242 0)
(5.07285 -0.0266692 0)
(5.07822 -0.0279642 0)
(5.08386 -0.0293123 0)
(5.08976 -0.0307167 0)
(5.09594 -0.0321804 0)
(5.10241 -0.0337066 0)
(5.10919 -0.0352985 0)
(5.11629 -0.0369595 0)
(5.12372 -0.0386929 0)
(5.13151 -0.0405018 0)
(5.13965 -0.0423898 0)
(5.14817 -0.0443601 0)
(5.15709 -0.0464161 0)
(5.16643 -0.0485611 0)
(5.1762 -0.0507985 0)
(5.18641 -0.0531314 0)
(5.1971 -0.055563 0)
(5.20828 -0.0580965 0)
(5.21998 -0.0607348 0)
(5.2322 -0.0634806 0)
(5.24498 -0.0663366 0)
(5.25834 -0.0693051 0)
(5.27231 -0.0723882 0)
(5.28689 -0.0755874 0)
(5.30213 -0.0789039 0)
(5.31805 -0.0823385 0)
(5.33466 -0.085891 0)
(5.352 -0.0895608 0)
(5.37009 -0.0933461 0)
(5.38895 -0.0972442 0)
(5.40861 -0.101251 0)
(5.4291 -0.105362 0)
(5.45043 -0.109569 0)
(5.47263 -0.113865 0)
(5.49573 -0.118239 0)
(5.51972 -0.122678 0)
(5.54464 -0.127167 0)
(5.5705 -0.131689 0)
(5.5973 -0.136224 0)
(5.62505 -0.14075 0)
(5.65375 -0.145241 0)
(5.6834 -0.14967 0)
(5.71398 -0.154005 0)
(5.74547 -0.158215 0)
(5.77785 -0.162264 0)
(5.81109 -0.166116 0)
(5.84515 -0.169735 0)
(5.87996 -0.173083 0)
(5.91548 -0.176123 0)
(5.95163 -0.17882 0)
(5.98834 -0.181141 0)
(6.02553 -0.183057 0)
(6.06309 -0.184542 0)
(6.10094 -0.185576 0)
(6.13897 -0.186145 0)
(6.17708 -0.186238 0)
(6.21516 -0.185855 0)
(6.2531 -0.184998 0)
(6.29081 -0.183677 0)
(6.32818 -0.181907 0)
(6.36511 -0.179709 0)
(6.40152 -0.177108 0)
(6.43732 -0.174132 0)
(6.47243 -0.170812 0)
(6.50678 -0.167181 0)
(6.54032 -0.163275 0)
(6.57299 -0.159128 0)
(6.60474 -0.154776 0)
(6.63555 -0.150255 0)
(6.66538 -0.145597 0)
(6.6942 -0.140836 0)
(6.72202 -0.136002 0)
(6.74881 -0.131125 0)
(6.77457 -0.126231 0)
(6.79931 -0.121346 0)
(6.82304 -0.11649 0)
(6.84577 -0.111686 0)
(6.86751 -0.106949 0)
(6.88828 -0.102296 0)
(6.90811 -0.0977406 0)
(6.92702 -0.0932939 0)
(6.94503 -0.0889653 0)
(6.96218 -0.084763 0)
(6.97849 -0.0806928 0)
(6.99399 -0.0767596 0)
(7.00871 -0.0729664 0)
(7.02268 -0.0693154 0)
(7.03594 -0.0658072 0)
(7.04851 -0.0624416 0)
(7.06042 -0.0592176 0)
(7.07171 -0.0561333 0)
(7.08239 -0.053186 0)
(7.09251 -0.0503728 0)
(7.10208 -0.04769 0)
(7.11113 -0.045134 0)
(7.1197 -0.0427005 0)
(7.12779 -0.0403854 0)
(7.13545 -0.0381841 0)
(7.14268 -0.0360924 0)
(7.14951 -0.0341057 0)
(7.15596 -0.0322197 0)
(7.16205 -0.0304299 0)
(7.16781 -0.0287321 0)
(7.17324 -0.027122 0)
(7.17836 -0.0255955 0)
(7.18319 -0.0241486 0)
(7.18775 -0.0227775 0)
(7.19205 -0.0214785 0)
(7.1961 -0.020248 0)
(7.19991 -0.0190826 0)
(7.20351 -0.0179792 0)
(7.2069 -0.0169346 0)
(7.21009 -0.0159459 0)
(7.21309 -0.0150102 0)
(7.21592 -0.0141248 0)
(7.21858 -0.013287 0)
(7.22108 -0.0124944 0)
(7.22343 -0.0117444 0)
(7.22564 -0.0110348 0)
(7.22771 -0.0103635 0)
(7.22966 -0.0097284 0)
(7.23149 -0.00912772 0)
(7.2332 -0.00855974 0)
(7.23481 -0.00802286 0)
(7.23632 -0.00751561 0)
(7.23773 -0.00703654 0)
(7.23905 -0.0065843 0)
(7.24028 -0.00615751 0)
(7.24144 -0.00575487 0)
(7.24251 -0.00537505 0)
(7.24352 -0.00501677 0)
(7.24446 -0.00467875 0)
(7.24534 -0.00435979 0)
(7.24615 -0.00405871 0)
(7.24691 -0.00377439 0)
(7.24762 -0.00350578 0)
(7.24827 -0.00325189 0)
(7.24888 -0.00301178 0)
(7.24944 -0.00278464 0)
(7.24996 -0.00256964 0)
(7.25044 -0.00236613 0)
(7.25088 -0.00217343 0)
(7.25129 -0.00199105 0)
(7.25166 -0.0018185 0)
(7.25199 -0.00165542 0)
(7.2523 -0.0015015 0)
(7.25258 -0.00135651 0)
(7.25283 -0.00122031 0)
(7.25305 -0.00109271 0)
(7.25325 -0.000973691 0)
(7.25343 -0.00086305 0)
(7.25358 -0.000760775 0)
(7.25372 -0.000666616 0)
(7.25384 -0.000580493 0)
(7.25394 -0.000502085 0)
(7.25403 -0.000431199 0)
(7.25411 -0.000367459 0)
(7.25418 -0.000310573 0)
(7.25423 -0.000260164 0)
(7.25428 -0.000215872 0)
(7.25432 -0.000177372 0)
(7.25435 -0.00014428 0)
(7.25438 -0.000116371 0)
(7.2544 -9.32741e-05 0)
(7.25441 -7.4882e-05 0)
(7.25442 -6.08479e-05 0)
(7.25443 -5.11933e-05 0)
(7.25443 -4.54742e-05 0)
(7.25444 -4.36823e-05 0)
(7.25443 -4.61041e-05 0)
(5.00002 -0.000512381 0)
(5.00015 -0.00153745 0)
(5.00043 -0.00256312 0)
(5.00087 -0.00359007 0)
(5.00146 -0.00461889 0)
(5.00218 -0.00565024 0)
(5.00306 -0.00668486 0)
(5.00408 -0.00772363 0)
(5.00524 -0.00876755 0)
(5.00655 -0.0098178 0)
(5.00801 -0.0108757 0)
(5.00962 -0.0119426 0)
(5.01137 -0.0130203 0)
(5.01328 -0.0141105 0)
(5.01534 -0.0152151 0)
(5.01755 -0.0163364 0)
(5.01992 -0.0174766 0)
(5.02245 -0.0186381 0)
(5.02513 -0.0198236 0)
(5.02799 -0.0210357 0)
(5.03101 -0.0222775 0)
(5.0342 -0.023552 0)
(5.03757 -0.0248622 0)
(5.04112 -0.0262116 0)
(5.04486 -0.0276036 0)
(5.04879 -0.0290417 0)
(5.05292 -0.0305295 0)
(5.05726 -0.032071 0)
(5.06181 -0.0336698 0)
(5.06659 -0.0353301 0)
(5.0716 -0.0370559 0)
(5.07685 -0.0388514 0)
(5.08235 -0.0407209 0)
(5.08811 -0.0426687 0)
(5.09415 -0.0446991 0)
(5.10047 -0.0468169 0)
(5.10709 -0.0490264 0)
(5.11403 -0.0513323 0)
(5.12128 -0.0537393 0)
(5.12888 -0.0562521 0)
(5.13684 -0.0588755 0)
(5.14516 -0.0616142 0)
(5.15388 -0.064473 0)
(5.163 -0.0674567 0)
(5.17254 -0.07057 0)
(5.18253 -0.0738176 0)
(5.19298 -0.0772042 0)
(5.20392 -0.0807341 0)
(5.21536 -0.0844118 0)
(5.22732 -0.0882415 0)
(5.23984 -0.0922271 0)
(5.25293 -0.0963721 0)
(5.26662 -0.10068 0)
(5.28093 -0.105153 0)
(5.29589 -0.109794 0)
(5.31153 -0.114604 0)
(5.32786 -0.119584 0)
(5.34492 -0.124733 0)
(5.36274 -0.13005 0)
(5.38134 -0.135531 0)
(5.40075 -0.141174 0)
(5.421 -0.14697 0)
(5.44211 -0.152911 0)
(5.46412 -0.158987 0)
(5.48704 -0.165184 0)
(5.5109 -0.171484 0)
(5.53572 -0.177869 0)
(5.56152 -0.184314 0)
(5.58832 -0.190791 0)
(5.61612 -0.19727 0)
(5.64494 -0.203714 0)
(5.67478 -0.210084 0)
(5.70563 -0.216334 0)
(5.73747 -0.222419 0)
(5.77029 -0.228286 0)
(5.80406 -0.233882 0)
(5.83873 -0.23915 0)
(5.87426 -0.244035 0)
(5.91058 -0.24848 0)
(5.94761 -0.252432 0)
(5.98529 -0.255839 0)
(6.0235 -0.258655 0)
(6.06215 -0.260843 0)
(6.10113 -0.262369 0)
(6.14032 -0.263211 0)
(6.1796 -0.263356 0)
(6.21885 -0.2628 0)
(6.25795 -0.261549 0)
(6.29678 -0.259618 0)
(6.33523 -0.257033 0)
(6.37318 -0.253824 0)
(6.41054 -0.250031 0)
(6.44722 -0.245697 0)
(6.48314 -0.240869 0)
(6.51821 -0.235599 0)
(6.55238 -0.229939 0)
(6.58559 -0.223942 0)
(6.61781 -0.21766 0)
(6.64899 -0.211145 0)
(6.67911 -0.204446 0)
(6.70815 -0.197611 0)
(6.73611 -0.190684 0)
(6.76297 -0.183707 0)
(6.78875 -0.176719 0)
(6.81345 -0.169753 0)
(6.83708 -0.162843 0)
(6.85966 -0.156015 0)
(6.88122 -0.149295 0)
(6.90178 -0.142704 0)
(6.92136 -0.13626 0)
(6.94 -0.129979 0)
(6.95772 -0.123874 0)
(6.97455 -0.117954 0)
(6.99054 -0.112229 0)
(7.00571 -0.106703 0)
(7.02009 -0.101379 0)
(7.03372 -0.0962616 0)
(7.04664 -0.0913493 0)
(7.05887 -0.0866418 0)
(7.07044 -0.0821367 0)
(7.0814 -0.0778309 0)
(7.09176 -0.0737202 0)
(7.10156 -0.0697999 0)
(7.11083 -0.0660644 0)
(7.11959 -0.0625078 0)
(7.12786 -0.0591241 0)
(7.13568 -0.0559068 0)
(7.14307 -0.0528495 0)
(7.15005 -0.0499456 0)
(7.15664 -0.0471888 0)
(7.16286 -0.0445726 0)
(7.16873 -0.0420908 0)
(7.17426 -0.0397374 0)
(7.17949 -0.0375063 0)
(7.18442 -0.035392 0)
(7.18907 -0.0333887 0)
(7.19345 -0.0314911 0)
(7.19758 -0.0296939 0)
(7.20148 -0.0279921 0)
(7.20515 -0.0263808 0)
(7.2086 -0.0248554 0)
(7.21185 -0.0234115 0)
(7.21492 -0.0220448 0)
(7.2178 -0.0207515 0)
(7.22051 -0.0195278 0)
(7.22306 -0.0183702 0)
(7.22546 -0.0172751 0)
(7.22771 -0.0162394 0)
(7.22982 -0.0152599 0)
(7.23181 -0.0143335 0)
(7.23368 -0.0134575 0)
(7.23543 -0.0126291 0)
(7.23707 -0.0118458 0)
(7.2386 -0.0111053 0)
(7.24004 -0.0104054 0)
(7.24139 -0.00974418 0)
(7.24264 -0.00911981 0)
(7.24382 -0.00853057 0)
(7.24492 -0.0079747 0)
(7.24595 -0.00745059 0)
(7.2469 -0.00695651 0)
(7.2478 -0.00649085 0)
(7.24863 -0.00605183 0)
(7.2494 -0.00563792 0)
(7.25012 -0.00524735 0)
(7.25079 -0.00487869 0)
(7.25141 -0.00453035 0)
(7.25199 -0.00420108 0)
(7.25252 -0.00388952 0)
(7.25302 -0.00359468 0)
(7.25347 -0.0033155 0)
(7.25388 -0.00305122 0)
(7.25427 -0.0028011 0)
(7.25461 -0.00256459 0)
(7.25493 -0.00234119 0)
(7.25521 -0.00213051 0)
(7.25547 -0.00193225 0)
(7.2557 -0.00174612 0)
(7.2559 -0.0015719 0)
(7.25608 -0.00140937 0)
(7.25624 -0.00125828 0)
(7.25638 -0.0011184 0)
(7.25649 -0.000989417 0)
(7.2566 -0.000871019 0)
(7.25668 -0.000762754 0)
(7.25676 -0.000664209 0)
(7.25682 -0.000574849 0)
(7.25687 -0.000494149 0)
(7.25691 -0.000421586 0)
(7.25694 -0.000356581 0)
(7.25696 -0.000298719 0)
(7.25698 -0.000247441 0)
(7.25699 -0.000202503 0)
(7.257 -0.000163436 0)
(7.257 -0.000130204 0)
(7.257 -0.000102447 0)
(7.257 -8.05108e-05 0)
(7.25699 -6.37233e-05 0)
(7.257 -5.39443e-05 0)
(7.25698 -4.56327e-05 0)
(5.00002 -0.000657006 0)
(5.00015 -0.00197128 0)
(5.00043 -0.00328616 0)
(5.00087 -0.0046023 0)
(5.00145 -0.00592033 0)
(5.00217 -0.00724096 0)
(5.00303 -0.00856503 0)
(5.00404 -0.00989358 0)
(5.00519 -0.0112278 0)
(5.00649 -0.0125692 0)
(5.00793 -0.0139193 0)
(5.00952 -0.01528 0)
(5.01125 -0.0166534 0)
(5.01313 -0.0180418 0)
(5.01515 -0.0194478 0)
(5.01733 -0.020874 0)
(5.01965 -0.0223235 0)
(5.02213 -0.0237994 0)
(5.02476 -0.0253052 0)
(5.02755 -0.0268444 0)
(5.0305 -0.0284208 0)
(5.03361 -0.0300383 0)
(5.0369 -0.0317011 0)
(5.04036 -0.0334135 0)
(5.044 -0.0351799 0)
(5.04782 -0.037005 0)
(5.05184 -0.0388934 0)
(5.05606 -0.0408502 0)
(5.06048 -0.0428802 0)
(5.06511 -0.0449888 0)
(5.06997 -0.0471811 0)
(5.07506 -0.0494626 0)
(5.08039 -0.0518387 0)
(5.08597 -0.0543152 0)
(5.09182 -0.0568976 0)
(5.09794 -0.0595919 0)
(5.10435 -0.0624038 0)
(5.11106 -0.0653395 0)
(5.11808 -0.0684049 0)
(5.12544 -0.0716061 0)
(5.13314 -0.0749494 0)
(5.1412 -0.0784409 0)
(5.14964 -0.082087 0)
(5.15847 -0.0858937 0)
(5.16772 -0.0898675 0)
(5.1774 -0.0940145 0)
(5.18753 -0.0983408 0)
(5.19814 -0.102853 0)
(5.20924 -0.107556 0)
(5.22086 -0.112456 0)
(5.23302 -0.117559 0)
(5.24575 -0.12287 0)
(5.25907 -0.128393 0)
(5.273 -0.134133 0)
(5.28758 -0.140094 0)
(5.30283 -0.146278 0)
(5.31877 -0.152687 0)
(5.33545 -0.159323 0)
(5.35289 -0.166184 0)
(5.37112 -0.173269 0)
(5.39017 -0.180572 0)
(5.41007 -0.188089 0)
(5.43087 -0.195809 0)
(5.45257 -0.20372 0)
(5.47523 -0.211807 0)
(5.49888 -0.22005 0)
(5.52353 -0.228425 0)
(5.54922 -0.236902 0)
(5.57597 -0.245448 0)
(5.60381 -0.254021 0)
(5.63276 -0.262576 0)
(5.66281 -0.271061 0)
(5.69399 -0.279415 0)
(5.72627 -0.287575 0)
(5.75966 -0.29547 0)
(5.79412 -0.303026 0)
(5.82963 -0.310163 0)
(5.86612 -0.316801 0)
(5.90353 -0.32286 0)
(5.94179 -0.32826 0)
(5.9808 -0.332927 0)
(6.02045 -0.336794 0)
(6.06063 -0.339803 0)
(6.1012 -0.341907 0)
(6.14202 -0.343073 0)
(6.18295 -0.343282 0)
(6.22386 -0.342528 0)
(6.26458 -0.340823 0)
(6.30498 -0.33819 0)
(6.34494 -0.334666 0)
(6.38431 -0.330297 0)
(6.423 -0.325142 0)
(6.46089 -0.319263 0)
(6.4979 -0.312729 0)
(6.53394 -0.305614 0)
(6.56896 -0.297991 0)
(6.6029 -0.289934 0)
(6.63571 -0.281517 0)
(6.66737 -0.272809 0)
(6.69786 -0.26388 0)
(6.72717 -0.254793 0)
(6.75528 -0.245607 0)
(6.78222 -0.236377 0)
(6.80798 -0.227154 0)
(6.83259 -0.217983 0)
(6.85606 -0.208903 0)
(6.87843 -0.199953 0)
(6.89971 -0.191161 0)
(6.91995 -0.182556 0)
(6.93918 -0.174161 0)
(6.95743 -0.165993 0)
(6.97474 -0.158069 0)
(6.99114 -0.1504 0)
(7.00668 -0.142995 0)
(7.02139 -0.13586 0)
(7.03531 -0.128998 0)
(7.04848 -0.12241 0)
(7.06093 -0.116097 0)
(7.0727 -0.110055 0)
(7.08383 -0.104281 0)
(7.09434 -0.0987684 0)
(7.10427 -0.0935119 0)
(7.11365 -0.0885042 0)
(7.1225 -0.0837374 0)
(7.13087 -0.0792031 0)
(7.13876 -0.0748927 0)
(7.14622 -0.0707975 0)
(7.15325 -0.0669086 0)
(7.1599 -0.0632171 0)
(7.16616 -0.0597142 0)
(7.17207 -0.0563914 0)
(7.17765 -0.0532404 0)
(7.18291 -0.050253 0)
(7.18787 -0.0474214 0)
(7.19254 -0.0447383 0)
(7.19695 -0.0421965 0)
(7.2011 -0.039789 0)
(7.20502 -0.0375093 0)
(7.2087 -0.0353511 0)
(7.21217 -0.0333082 0)
(7.21544 -0.0313746 0)
(7.21852 -0.0295447 0)
(7.22141 -0.0278128 0)
(7.22414 -0.026174 0)
(7.2267 -0.024623 0)
(7.2291 -0.0231554 0)
(7.23136 -0.0217668 0)
(7.23349 -0.0204531 0)
(7.23548 -0.0192105 0)
(7.23735 -0.0180353 0)
(7.23911 -0.0169241 0)
(7.24075 -0.0158736 0)
(7.2423 -0.0148805 0)
(7.24374 -0.0139419 0)
(7.24509 -0.0130549 0)
(7.24635 -0.0122169 0)
(7.24753 -0.0114255 0)
(7.24863 -0.0106783 0)
(7.24966 -0.00997331 0)
(7.25061 -0.00930849 0)
(7.25151 -0.00868176 0)
(7.25234 -0.00809125 0)
(7.25311 -0.00753479 0)
(7.25383 -0.00701044 0)
(7.2545 -0.00651594 0)
(7.25512 -0.00604934 0)
(7.2557 -0.00560838 0)
(7.25624 -0.0051913 0)
(7.25673 -0.00479609 0)
(7.25719 -0.00442137 0)
(7.25761 -0.00406559 0)
(7.25799 -0.00372787 0)
(7.25834 -0.00340726 0)
(7.25866 -0.00310336 0)
(7.25895 -0.00281575 0)
(7.2592 -0.00254434 0)
(7.25943 -0.00228907 0)
(7.25963 -0.00204995 0)
(7.25981 -0.00182698 0)
(7.25996 -0.00162011 0)
(7.26009 -0.00142919 0)
(7.26021 -0.00125398 0)
(7.2603 -0.00109407 0)
(7.26038 -0.000949011 0)
(7.26044 -0.000818113 0)
(7.2605 -0.000700721 0)
(7.26054 -0.000595979 0)
(7.26057 -0.000503073 0)
(7.26059 -0.000421128 0)
(7.26061 -0.000349248 0)
(7.26062 -0.000286704 0)
(7.26063 -0.0002326 0)
(7.26063 -0.00018647 0)
(7.26063 -0.000147493 0)
(7.26062 -0.000115492 0)
(7.2606 -8.97725e-05 0)
(7.26059 -7.04762e-05 0)
(7.26057 -5.67882e-05 0)
(7.26056 -4.96345e-05 0)
(7.26051 -4.78025e-05 0)
(5.00002 -0.000800701 0)
(5.00015 -0.00240228 0)
(5.00043 -0.00400428 0)
(5.00086 -0.00560722 0)
(5.00144 -0.00721161 0)
(5.00215 -0.0088181 0)
(5.00301 -0.0104276 0)
(5.00401 -0.0120411 0)
(5.00515 -0.0136601 0)
(5.00643 -0.0152862 0)
(5.00785 -0.0169213 0)
(5.00942 -0.0185676 0)
(5.01112 -0.0202277 0)
(5.01296 -0.0219043 0)
(5.01495 -0.0236006 0)
(5.01707 -0.0253199 0)
(5.01935 -0.0270659 0)
(5.02176 -0.0288425 0)
(5.02433 -0.0306539 0)
(5.02704 -0.0325044 0)
(5.02991 -0.0343987 0)
(5.03293 -0.0363417 0)
(5.03611 -0.0383385 0)
(5.03946 -0.0403944 0)
(5.04298 -0.0425148 0)
(5.04667 -0.0447054 0)
(5.05054 -0.0469721 0)
(5.0546 -0.049321 0)
(5.05886 -0.0517582 0)
(5.06331 -0.05429 0)
(5.06798 -0.0569232 0)
(5.07287 -0.0596642 0)
(5.07799 -0.06252 0)
(5.08334 -0.0654975 0)
(5.08895 -0.0686038 0)
(5.09482 -0.071846 0)
(5.10097 -0.0752316 0)
(5.1074 -0.0787679 0)
(5.11414 -0.0824624 0)
(5.12119 -0.0863229 0)
(5.12857 -0.0903568 0)
(5.1363 -0.0945722 0)
(5.14439 -0.0989767 0)
(5.15286 -0.103578 0)
(5.16174 -0.108385 0)
(5.17103 -0.113404 0)
(5.18076 -0.118644 0)
(5.19096 -0.124112 0)
(5.20163 -0.129817 0)
(5.21281 -0.135765 0)
(5.22452 -0.141965 0)
(5.23679 -0.148423 0)
(5.24963 -0.155146 0)
(5.26308 -0.16214 0)
(5.27717 -0.169411 0)
(5.29192 -0.176965 0)
(5.30737 -0.184805 0)
(5.32355 -0.192934 0)
(5.34049 -0.201353 0)
(5.35822 -0.210062 0)
(5.37679 -0.219059 0)
(5.39623 -0.228338 0)
(5.41657 -0.237892 0)
(5.43786 -0.247708 0)
(5.46014 -0.257771 0)
(5.48345 -0.26806 0)
(5.50783 -0.278548 0)
(5.53332 -0.289203 0)
(5.55995 -0.299984 0)
(5.58777 -0.310843 0)
(5.6168 -0.321724 0)
(5.64706 -0.332562 0)
(5.67859 -0.343282 0)
(5.71139 -0.3538 0)
(5.74545 -0.364023 0)
(5.78077 -0.37385 0)
(5.81731 -0.383174 0)
(5.85503 -0.391882 0)
(5.89386 -0.399861 0)
(5.93372 -0.406999 0)
(5.97449 -0.413187 0)
(6.01606 -0.418328 0)
(6.05828 -0.422336 0)
(6.10098 -0.425145 0)
(6.144 -0.426707 0)
(6.18716 -0.426994 0)
(6.23027 -0.426003 0)
(6.27317 -0.423751 0)
(6.31567 -0.420275 0)
(6.35762 -0.415629 0)
(6.39888 -0.409884 0)
(6.4393 -0.403122 0)
(6.47877 -0.395433 0)
(6.51719 -0.386915 0)
(6.55448 -0.377669 0)
(6.59057 -0.367795 0)
(6.62542 -0.357395 0)
(6.65897 -0.346565 0)
(6.69122 -0.335401 0)
(6.72214 -0.32399 0)
(6.75175 -0.312415 0)
(6.78003 -0.300752 0)
(6.80702 -0.289071 0)
(6.83273 -0.277433 0)
(6.85718 -0.265894 0)
(6.88042 -0.254504 0)
(6.90248 -0.243306 0)
(6.92339 -0.232336 0)
(6.94321 -0.221626 0)
(6.96196 -0.211202 0)
(6.97969 -0.201085 0)
(6.99646 -0.191292 0)
(7.0123 -0.181836 0)
(7.02725 -0.172724 0)
(7.04137 -0.163963 0)
(7.05469 -0.155555 0)
(7.06726 -0.147499 0)
(7.07911 -0.139793 0)
(7.09029 -0.132431 0)
(7.10084 -0.125407 0)
(7.11078 -0.118712 0)
(7.12016 -0.112338 0)
(7.129 -0.106273 0)
(7.13734 -0.100508 0)
(7.1452 -0.0950303 0)
(7.15262 -0.0898285 0)
(7.15961 -0.084891 0)
(7.1662 -0.0802061 0)
(7.17242 -0.0757626 0)
(7.17828 -0.0715492 0)
(7.1838 -0.0675552 0)
(7.18901 -0.06377 0)
(7.19392 -0.0601834 0)
(7.19854 -0.0567856 0)
(7.2029 -0.0535672 0)
(7.207 -0.0505192 0)
(7.21087 -0.0476332 0)
(7.2145 -0.044901 0)
(7.21793 -0.0423149 0)
(7.22115 -0.0398676 0)
(7.22418 -0.0375521 0)
(7.22703 -0.0353617 0)
(7.22971 -0.0332898 0)
(7.23223 -0.03133 0)
(7.2346 -0.0294763 0)
(7.23682 -0.0277226 0)
(7.23891 -0.0260634 0)
(7.24087 -0.0244935 0)
(7.24271 -0.0230081 0)
(7.24443 -0.0216026 0)
(7.24605 -0.0202731 0)
(7.24756 -0.0190159 0)
(7.24897 -0.0178275 0)
(7.25029 -0.0167047 0)
(7.25152 -0.0156442 0)
(7.25268 -0.014643 0)
(7.25375 -0.0136983 0)
(7.25475 -0.0128074 0)
(7.25568 -0.0119673 0)
(7.25654 -0.011176 0)
(7.25735 -0.0104305 0)
(7.2581 -0.0097288 0)
(7.25879 -0.00906819 0)
(7.25944 -0.00844637 0)
(7.26004 -0.00786055 0)
(7.2606 -0.00730822 0)
(7.26112 -0.00678654 0)
(7.2616 -0.00629295 0)
(7.26204 -0.00582478 0)
(7.26245 -0.00537979 0)
(7.26282 -0.00495586 0)
(7.26316 -0.00455146 0)
(7.26347 -0.00416532 0)
(7.26375 -0.00379685 0)
(7.26399 -0.00344569 0)
(7.26421 -0.00311207 0)
(7.26439 -0.00279633 0)
(7.26455 -0.00249911 0)
(7.26468 -0.00222098 0)
(7.26479 -0.00196247 0)
(7.26488 -0.00172384 0)
(7.26495 -0.0015051 0)
(7.265 -0.00130589 0)
(7.26504 -0.00112555 0)
(7.26507 -0.000963108 0)
(7.26508 -0.000817396 0)
(7.26509 -0.000687085 0)
(7.26509 -0.000570839 0)
(7.26508 -0.000467321 0)
(7.26507 -0.000375332 0)
(7.26505 -0.000293829 0)
(7.26503 -0.000221945 0)
(7.26501 -0.000159128 0)
(7.26498 -0.000104879 0)
(7.26495 -5.9255e-05 0)
(7.26492 -2.19628e-05 0)
(7.26489 6.37196e-06 0)
(7.26484 2.67364e-05 0)
(7.26483 3.75941e-05 0)
(7.26476 4.65423e-05 0)
(5.00002 -0.00094376 0)
(5.00015 -0.00283129 0)
(5.00043 -0.0047188 0)
(5.00086 -0.00660646 0)
(5.00143 -0.00849449 0)
(5.00214 -0.0103834 0)
(5.003 -0.0122738 0)
(5.00399 -0.014167 0)
(5.00512 -0.0160642 0)
(5.00638 -0.0179674 0)
(5.00779 -0.0198787 0)
(5.00932 -0.0218008 0)
(5.011 -0.0237366 0)
(5.0128 -0.0256895 0)
(5.01475 -0.0276632 0)
(5.01682 -0.0296619 0)
(5.01903 -0.0316899 0)
(5.02138 -0.033752 0)
(5.02387 -0.0358532 0)
(5.0265 -0.0379989 0)
(5.02927 -0.0401947 0)
(5.03218 -0.0424465 0)
(5.03525 -0.0447604 0)
(5.03847 -0.0471426 0)
(5.04184 -0.0495998 0)
(5.04538 -0.0521388 0)
(5.04908 -0.0547664 0)
(5.05296 -0.0574899 0)
(5.05702 -0.0603166 0)
(5.06127 -0.0632541 0)
(5.06572 -0.06631 0)
(5.07037 -0.0694923 0)
(5.07523 -0.072809 0)
(5.08032 -0.0762684 0)
(5.08565 -0.0798789 0)
(5.09122 -0.0836489 0)
(5.09705 -0.0875872 0)
(5.10315 -0.0917025 0)
(5.10954 -0.0960039 0)
(5.11622 -0.1005 0)
(5.12322 -0.105201 0)
(5.13055 -0.110116 0)
(5.13823 -0.115253 0)
(5.14627 -0.120623 0)
(5.15469 -0.126235 0)
(5.16352 -0.132098 0)
(5.17277 -0.138224 0)
(5.18246 -0.14462 0)
(5.19262 -0.151297 0)
(5.20326 -0.158265 0)
(5.21442 -0.165532 0)
(5.22612 -0.17311 0)
(5.23838 -0.181006 0)
(5.25123 -0.18923 0)
(5.26471 -0.197791 0)
(5.27884 -0.206695 0)
(5.29366 -0.215951 0)
(5.3092 -0.225565 0)
(5.3255 -0.23554 0)
(5.3426 -0.245881 0)
(5.36054 -0.256588 0)
(5.37935 -0.26766 0)
(5.3991 -0.279092 0)
(5.41981 -0.290875 0)
(5.44156 -0.302996 0)
(5.46438 -0.315435 0)
(5.48833 -0.328167 0)
(5.51347 -0.341158 0)
(5.53985 -0.354364 0)
(5.56752 -0.367733 0)
(5.59654 -0.3812 0)
(5.62696 -0.394686 0)
(5.65881 -0.408102 0)
(5.69213 -0.421343 0)
(5.72694 -0.434287 0)
(5.76325 -0.446804 0)
(5.80103 -0.458747 0)
(5.84025 -0.469964 0)