/*--------------------------------*- C++ -*----------------------------------*\
  =========                 |
  \\      /  F ield         | OpenFOAM: The Open Source CFD Toolbox
   \\    /   O peration     | Website:  https://openfoam.org
    \\  /    A nd           | Version:  10
     \\/     M anipulation  |
\*---------------------------------------------------------------------------*/
FoamFile
{
    format      ascii;
    class       volVectorField;
    location    "22000";
    object      Ub;
}
// * * * * * * * * * * * * * * * * * * * * * * * * * * * * * * * * * * * * * //

dimensions      [0 1 -1 0 0 0 0];

internalField   nonuniform List<vector> 
3200
(
(-1.37837e-20 -9.87879e-16 0)
(-4.23128e-20 -9.87877e-16 0)
(-7.41805e-20 -9.87873e-16 0)
(-1.12846e-19 -9.87866e-16 0)
(-1.63755e-19 -9.87853e-16 0)
(-2.36512e-19 -9.8783e-16 0)
(-3.49405e-19 -9.87787e-16 0)
(-3.37132e-16 -9.87702e-16 0)
(-3.77737e-06 -4.9582e-13 0)
(-4.27597e-05 -6.62086e-05 0)
(-7.99402e-05 -1.16672e-05 0)
(-8.27833e-05 -4.8569e-06 0)
(-8.42043e-05 -2.73535e-06 0)
(-8.51591e-05 -1.75324e-06 0)
(-8.58701e-05 -1.2139e-06 0)
(-8.64289e-05 -8.86354e-07 0)
(-8.68833e-05 -6.73289e-07 0)
(-8.7262e-05 -5.2746e-07 0)
(-8.75834e-05 -4.2362e-07 0)
(-8.78603e-05 -3.47279e-07 0)
(-8.81017e-05 -2.89648e-07 0)
(-8.83144e-05 -2.45163e-07 0)
(-8.85033e-05 -2.10166e-07 0)
(-8.86724e-05 -1.82176e-07 0)
(-8.88227e-05 -1.63843e-07 0)
(-8.72745e-05 -3.92949e-06 0)
(-8.4114e-05 -3.79042e-06 0)
(-8.14201e-05 -2.92077e-06 0)
(-7.94075e-05 -2.25721e-06 0)
(-7.78667e-05 -1.84193e-06 0)
(-7.65883e-05 -1.65566e-06 0)
(-7.53802e-05 -1.70082e-06 0)
(-7.40401e-05 -2.02397e-06 0)
(-7.23163e-05 -2.73409e-06 0)
(-6.98526e-05 -4.03052e-06 0)
(-6.61116e-05 -6.24938e-06 0)
(-6.02589e-05 -9.94003e-06 0)
(-5.09851e-05 -1.59942e-05 0)
(-3.62108e-05 -2.58895e-05 0)
(-1.47439e-05 -3.58851e-05 0)
(-1.12035e-20 -9.87843e-16 0)
(-3.38812e-20 -9.87838e-16 0)
(-5.74683e-20 -9.87829e-16 0)
(-8.24419e-20 -9.87813e-16 0)
(-1.08301e-19 -9.87787e-16 0)
(-1.31844e-19 -9.87745e-16 0)
(-1.4263e-19 -9.87675e-16 0)
(-1.11244e-19 -9.87557e-16 0)
(3.86349e-20 -9.8735e-16 0)
(2.4306e-19 -9.72593e-16 0)
(2.89193e-19 -9.29602e-16 0)
(2.21988e-19 -8.90819e-16 0)
(1.75112e-19 -8.54544e-16 0)
(1.3978e-19 -8.20087e-16 0)
(1.10644e-19 -7.87077e-16 0)
(8.44021e-20 -7.55279e-16 0)
(5.86602e-20 -7.24536e-16 0)
(3.12358e-20 -6.94733e-16 0)
(-3.90235e-22 -6.65782e-16 0)
(-3.97012e-20 -6.37614e-16 0)
(-9.20933e-20 -6.10174e-16 0)
(-1.66504e-19 -5.83414e-16 0)
(-2.78458e-19 -5.57293e-16 0)
(-1.64114e-10 -5.31791e-16 0)
(-1.80358e-05 -4.37329e-09 0)
(-4.26589e-05 -3.78835e-06 0)
(-5.16471e-05 -3.66369e-06 0)
(-5.56873e-05 -2.80561e-06 0)
(-5.85377e-05 -2.15154e-06 0)
(-6.07019e-05 -1.74413e-06 0)
(-6.24771e-05 -1.56449e-06 0)
(-6.40959e-05 -1.61527e-06 0)
(-6.57832e-05 -1.94326e-06 0)
(-6.78052e-05 -2.65758e-06 0)
(-7.05275e-05 -3.95773e-06 0)
(-7.44941e-05 -6.17997e-06 0)
(-8.05432e-05 -9.87378e-06 0)
(-8.99842e-05 -1.59387e-05 0)
(-8.77e-05 -7.46303e-05 0)
(-4.06195e-05 -0.000184476 0)
(-7.62099e-21 -9.87815e-16 0)
(-2.25812e-20 -9.87811e-16 0)
(-3.66791e-20 -9.87801e-16 0)
(-4.89608e-20 -9.87785e-16 0)
(-5.74684e-20 -9.87763e-16 0)
(-5.85583e-20 -9.87731e-16 0)
(-4.62156e-20 -9.87691e-16 0)
(-1.24585e-20 -9.87646e-16 0)
(4.71391e-20 -9.87614e-16 0)
(1.10692e-19 -9.87643e-16 0)
(1.41826e-19 -9.87716e-16 0)
(1.41061e-19 -9.8776e-16 0)
(1.2895e-19 -9.87788e-16 0)
(1.13205e-19 -9.87805e-16 0)
(9.65433e-20 -9.87815e-16 0)
(7.9787e-20 -9.8782e-16 0)
(6.30893e-20 -9.8782e-16 0)
(4.64868e-20 -9.87815e-16 0)
(3.02784e-20 -9.87804e-16 0)
(1.55226e-20 -9.87786e-16 0)
(4.96397e-21 -9.87758e-16 0)
(4.90777e-21 -9.87714e-16 0)
(2.90485e-20 -9.87646e-16 0)
(1.06245e-19 -9.87542e-16 0)
(2.41461e-19 -9.87282e-16 0)
(3.03389e-19 -9.66483e-16 0)
(2.69641e-19 -9.46463e-16 0)
(2.40152e-19 -9.2683e-16 0)
(2.19021e-19 -9.07502e-16 0)
(2.0376e-19 -8.88502e-16 0)
(1.92773e-19 -8.69838e-16 0)
(1.852e-19 -8.51488e-16 0)
(1.80703e-19 -8.33398e-16 0)
(1.79382e-19 -8.15474e-16 0)
(1.81788e-19 -7.97566e-16 0)
(1.89044e-19 -7.79445e-16 0)
(2.031e-19 -7.60777e-16 0)
(5.16927e-12 -7.75549e-09 0)
(-7.05251e-06 -5.73428e-05 0)
(-5.40436e-06 -0.000322433 0)
(-4.35434e-21 -9.87798e-16 0)
(-1.25989e-20 -9.87794e-16 0)
(-1.94593e-20 -9.87786e-16 0)
(-2.38644e-20 -9.87775e-16 0)
(-2.43713e-20 -9.87759e-16 0)
(-1.91586e-20 -9.87741e-16 0)
(-6.35275e-21 -9.87722e-16 0)
(1.49615e-20 -9.87705e-16 0)
(4.27286e-20 -9.87699e-16 0)
(6.97715e-20 -9.8771e-16 0)
(8.78253e-20 -9.87733e-16 0)
(9.51767e-20 -9.87755e-16 0)
(9.50744e-20 -9.87772e-16 0)
(9.05781e-20 -9.87785e-16 0)
(8.37781e-20 -9.87793e-16 0)
(7.60208e-20 -9.87797e-16 0)
(6.82551e-20 -9.87796e-16 0)
(6.13286e-20 -9.87793e-16 0)
(5.6233e-20 -9.87785e-16 0)
(5.43224e-20 -9.87773e-16 0)
(5.74852e-20 -9.87757e-16 0)
(6.81559e-20 -9.87738e-16 0)
(8.88156e-20 -9.87718e-16 0)
(1.20106e-19 -9.87705e-16 0)
(1.55515e-19 -9.87715e-16 0)
(1.78996e-19 -9.87757e-16 0)
(1.85801e-19 -9.87789e-16 0)
(1.84486e-19 -9.87812e-16 0)
(1.79839e-19 -9.87829e-16 0)
(1.74074e-19 -9.87842e-16 0)
(1.6815e-19 -9.87853e-16 0)
(1.62395e-19 -9.87862e-16 0)
(1.56775e-19 -9.87871e-16 0)
(1.50953e-19 -9.8788e-16 0)
(1.4423e-19 -9.8789e-16 0)
(1.3533e-19 -9.87902e-16 0)
(1.22012e-19 -9.87918e-16 0)
(1.10142e-19 -1.32554e-15 0)
(5.00412e-09 -1.85374e-05 0)
(-2.41645e-08 -0.000339522 0)
(-1.91752e-21 -9.87789e-16 0)
(-5.33597e-21 -9.87786e-16 0)
(-7.5397e-21 -9.87781e-16 0)
(-7.74886e-21 -9.87773e-16 0)
(-5.17296e-21 -9.87764e-16 0)
(8.80639e-22 -9.87754e-16 0)
(1.07549e-20 -9.87745e-16 0)
(2.40484e-20 -9.87739e-16 0)
(3.92264e-20 -9.87737e-16 0)
(5.36868e-20 -9.87742e-16 0)
(6.49336e-20 -9.87751e-16 0)
(7.19866e-20 -9.87761e-16 0)
(7.53008e-20 -9.87771e-16 0)
(7.58651e-20 -9.87779e-16 0)
(7.47095e-20 -9.87784e-16 0)
(7.27484e-20 -9.87787e-16 0)
(7.0782e-20 -9.87788e-16 0)
(6.95497e-20 -9.87786e-16 0)
(6.97789e-20 -9.87782e-16 0)
(7.22005e-20 -9.87777e-16 0)
(7.74946e-20 -9.8777e-16 0)
(8.61279e-20 -9.87764e-16 0)
(9.80405e-20 -9.8776e-16 0)
(1.12204e-19 -9.87761e-16 0)
(1.2629e-19 -9.87768e-16 0)
(1.37362e-19 -9.87781e-16 0)
(1.44092e-19 -9.87795e-16 0)
(1.47104e-19 -9.87809e-16 0)
(1.47423e-19 -9.87821e-16 0)
(1.45903e-19 -9.87832e-16 0)
(1.43119e-19 -9.87841e-16 0)
(1.39394e-19 -9.8785e-16 0)
(1.34841e-19 -9.87858e-16 0)
(1.29415e-19 -9.87865e-16 0)
(1.22948e-19 -9.87871e-16 0)
(1.15209e-19 -9.87877e-16 0)
(1.06003e-19 -9.87882e-16 0)
(1.16023e-19 -1.53641e-15 0)
(5.92914e-09 -2.00097e-05 0)
(-3.63634e-08 -0.000323855 0)
(-3.00649e-22 -9.87786e-16 0)
(-6.05645e-22 -9.87784e-16 0)
(-5.57487e-23 -9.87781e-16 0)
(1.83748e-21 -9.87776e-16 0)
(5.46417e-21 -9.87771e-16 0)
(1.1044e-20 -9.87765e-16 0)
(1.85221e-20 -9.87761e-16 0)
(2.74684e-20 -9.87758e-16 0)
(3.70578e-20 -9.87758e-16 0)
(4.62281e-20 -9.87761e-16 0)
(5.40419e-20 -9.87765e-16 0)
(6.00197e-20 -9.8777e-16 0)
(6.41752e-20 -9.87775e-16 0)
(6.68367e-20 -9.8778e-16 0)
(6.84746e-20 -9.87784e-16 0)
(6.95944e-20 -9.87786e-16 0)
(7.06858e-20 -9.87787e-16 0)
(7.22001e-20 -9.87787e-16 0)
(7.45333e-20 -9.87786e-16 0)
(7.79996e-20 -9.87784e-16 0)
(8.27848e-20 -9.87783e-16 0)
(8.88802e-20 -9.87782e-16 0)
(9.6012e-20 -9.87783e-16 0)
(1.03605e-19 -9.87785e-16 0)
(1.10852e-19 -9.8779e-16 0)
(1.1695e-19 -9.87797e-16 0)
(1.2142e-19 -9.87805e-16 0)
(1.24189e-19 -9.87813e-16 0)
(1.25411e-19 -9.87821e-16 0)
(1.25319e-19 -9.87828e-16 0)
(1.24138e-19 -9.87835e-16 0)
(1.22046e-19 -9.87842e-16 0)
(1.19175e-19 -9.87847e-16 0)
(1.15618e-19 -9.87852e-16 0)
(1.11457e-19 -9.87856e-16 0)
(1.06797e-19 -9.87859e-16 0)
(1.01805e-19 -9.87861e-16 0)
(1.2752e-19 -1.70441e-15 0)
(5.88037e-09 -1.95274e-05 0)
(-3.74557e-08 -0.000308645 0)
(6.92928e-22 -9.87786e-16 0)
(2.26182e-21 -9.87785e-16 0)
(4.36155e-21 -9.87783e-16 0)
(7.27975e-21 -9.87781e-16 0)
(1.12049e-20 -9.87778e-16 0)
(1.61927e-20 -9.87775e-16 0)
(2.21355e-20 -9.87773e-16 0)
(2.87513e-20 -9.87772e-16 0)
(3.56161e-20 -9.87772e-16 0)
(4.22528e-20 -9.87773e-16 0)
(4.82555e-20 -9.87776e-16 0)
(5.33903e-20 -9.87779e-16 0)
(5.76186e-20 -9.87782e-16 0)
(6.1057e-20 -9.87785e-16 0)
(6.39179e-20 -9.87787e-16 0)
(6.64566e-20 -9.87789e-16 0)
(6.89324e-20 -9.87791e-16 0)
(7.15812e-20 -9.87791e-16 0)
(7.45923e-20 -9.87792e-16 0)
(7.80881e-20 -9.87792e-16 0)
(8.21039e-20 -9.87793e-16 0)
(8.65709e-20 -9.87794e-16 0)
(9.13118e-20 -9.87796e-16 0)
(9.60575e-20 -9.87799e-16 0)
(1.00492e-19 -9.87802e-16 0)
(1.04325e-19 -9.87807e-16 0)
(1.07355e-19 -9.87812e-16 0)
(1.09494e-19 -9.87817e-16 0)
(1.10744e-19 -9.87823e-16 0)
(1.11164e-19 -9.87828e-16 0)
(1.1084e-19 -9.87832e-16 0)
(1.09866e-19 -9.87837e-16 0)
(1.08337e-19 -9.87841e-16 0)
(1.06348e-19 -9.87844e-16 0)
(1.03997e-19 -9.87847e-16 0)
(1.01391e-19 -9.87849e-16 0)
(9.86511e-20 -9.8785e-16 0)
(1.33743e-19 -1.88351e-15 0)
(5.37622e-09 -1.84346e-05 0)
(-3.14267e-08 -0.000293543 0)
(1.26831e-21 -9.87789e-16 0)
(3.90497e-21 -9.87789e-16 0)
(6.84069e-21 -9.87787e-16 0)
(1.02412e-20 -9.87786e-16 0)
(1.41996e-20 -9.87785e-16 0)
(1.87239e-20 -9.87783e-16 0)
(2.37316e-20 -9.87782e-16 0)
(2.90586e-20 -9.87782e-16 0)
(3.44862e-20 -9.87782e-16 0)
(3.97847e-20 -9.87783e-16 0)
(4.47616e-20 -9.87785e-16 0)
(4.92989e-20 -9.87787e-16 0)
(5.33635e-20 -9.87789e-16 0)
(5.69973e-20 -9.87791e-16 0)
(6.02943e-20 -9.87793e-16 0)
(6.33756e-20 -9.87794e-16 0)
(6.63672e-20 -9.87796e-16 0)
(6.93813e-20 -9.87797e-16 0)
(7.25018e-20 -9.87798e-16 0)
(7.57726e-20 -9.878e-16 0)
(7.91908e-20 -9.87801e-16 0)
(8.27046e-20 -9.87803e-16 0)
(8.62184e-20 -9.87805e-16 0)
(8.96062e-20 -9.87807e-16 0)
(9.27319e-20 -9.8781e-16 0)
(9.54725e-20 -9.87814e-16 0)
(9.7737e-20 -9.87817e-16 0)
(9.94748e-20 -9.87821e-16 0)
(1.00673e-19 -9.87825e-16 0)
(1.0135e-19 -9.87828e-16 0)
(1.01543e-19 -9.87832e-16 0)
(1.01304e-19 -9.87835e-16 0)
(1.00693e-19 -9.87837e-16 0)
(9.97754e-20 -9.8784e-16 0)
(9.86185e-20 -9.87842e-16 0)
(9.72925e-20 -9.87843e-16 0)
(9.58672e-20 -9.87845e-16 0)
(1.41994e-19 -2.13608e-15 0)
(4.82123e-09 -1.72609e-05 0)
(-2.33765e-08 -0.000278647 0)
(1.5816e-21 -9.87793e-16 0)
(4.79074e-21 -9.87793e-16 0)
(8.15008e-21 -9.87792e-16 0)
(1.17547e-20 -9.87792e-16 0)
(1.56529e-20 -9.87791e-16 0)
(1.98421e-20 -9.8779e-16 0)
(2.42706e-20 -9.8779e-16 0)
(2.88467e-20 -9.8779e-16 0)
(3.34559e-20 -9.8779e-16 0)
(3.79817e-20 -9.87791e-16 0)
(4.23272e-20 -9.87792e-16 0)
(4.64293e-20 -9.87794e-16 0)
(5.02647e-20 -9.87795e-16 0)
(5.3846e-20 -9.87797e-16 0)
(5.72123e-20 -9.87799e-16 0)
(6.04177e-20 -9.878e-16 0)
(6.35189e-20 -9.87802e-16 0)
(6.65653e-20 -9.87803e-16 0)
(6.95914e-20 -9.87805e-16 0)
(7.26104e-20 -9.87806e-16 0)
(7.56132e-20 -9.87808e-16 0)
(7.8568e-20 -9.8781e-16 0)
(8.14255e-20 -9.87812e-16 0)
(8.41256e-20 -9.87814e-16 0)
(8.66063e-20 -9.87816e-16 0)
(8.88123e-20 -9.87819e-16 0)
(9.0702e-20 -9.87822e-16 0)
(9.22512e-20 -9.87824e-16 0)
(9.34532e-20 -9.87827e-16 0)
(9.43166e-20 -9.8783e-16 0)
(9.48628e-20 -9.87832e-16 0)
(9.51223e-20 -9.87834e-16 0)
(9.51323e-20 -9.87836e-16 0)
(9.49339e-20 -9.87838e-16 0)
(9.45704e-20 -9.8784e-16 0)
(9.40853e-20 -9.87841e-16 0)
(9.3521e-20 -9.87842e-16 0)
(1.53701e-19 -2.43665e-15 0)
(4.30574e-09 -1.61244e-05 0)
(-1.53821e-08 -0.000264009 0)
(1.73682e-21 -9.87798e-16 0)
(5.22342e-21 -9.87798e-16 0)
(8.77003e-21 -9.87798e-16 0)
(1.24315e-20 -9.87797e-16 0)
(1.62342e-20 -9.87797e-16 0)
(2.01751e-20 -9.87797e-16 0)
(2.42241e-20 -9.87797e-16 0)
(2.83309e-20 -9.87797e-16 0)
(3.24342e-20 -9.87798e-16 0)
(3.64728e-20 -9.87798e-16 0)
(4.03949e-20 -9.87799e-16 0)
(4.4165e-20 -9.87801e-16 0)
(4.77665e-20 -9.87802e-16 0)
(5.12004e-20 -9.87803e-16 0)
(5.44808e-20 -9.87805e-16 0)
(5.76293e-20 -9.87806e-16 0)
(6.06693e-20 -9.87807e-16 0)
(6.36207e-20 -9.87809e-16 0)
(6.64957e-20 -9.8781e-16 0)
(6.92968e-20 -9.87812e-16 0)
(7.20157e-20 -9.87814e-16 0)
(7.46344e-20 -9.87815e-16 0)
(7.71278e-20 -9.87817e-16 0)
(7.94672e-20 -9.87819e-16 0)
(8.16239e-20 -9.87821e-16 0)
(8.35733e-20 -9.87823e-16 0)
(8.52972e-20 -9.87825e-16 0)
(8.67862e-20 -9.87827e-16 0)
(8.80394e-20 -9.8783e-16 0)
(8.9064e-20 -9.87832e-16 0)
(8.98744e-20 -9.87833e-16 0)
(9.04904e-20 -9.87835e-16 0)
(9.09359e-20 -9.87837e-16 0)
(9.1237e-20 -9.87838e-16 0)
(9.14213e-20 -9.87839e-16 0)
(9.15158e-20 -9.8784e-16 0)
(9.15464e-20 -9.87841e-16 0)
(1.65937e-19 -2.73946e-15 0)
(3.8409e-09 -1.50458e-05 0)
(-8.30835e-09 -0.000249654 0)
(1.79876e-21 -9.87803e-16 0)
(5.38998e-21 -9.87803e-16 0)
(8.98849e-21 -9.87803e-16 0)
(1.26262e-20 -9.87803e-16 0)
(1.63181e-20 -9.87803e-16 0)
(2.00625e-20 -9.87803e-16 0)
(2.38426e-20 -9.87803e-16 0)
(2.76306e-20 -9.87804e-16 0)
(3.13931e-20 -9.87804e-16 0)
(3.50966e-20 -9.87805e-16 0)
(3.87121e-20 -9.87806e-16 0)
(4.22187e-20 -9.87807e-16 0)
(4.56042e-20 -9.87808e-16 0)
(4.88652e-20 -9.87809e-16 0)
(5.20049e-20 -9.8781e-16 0)
(5.50304e-20 -9.87812e-16 0)
(5.79498e-20 -9.87813e-16 0)
(6.07697e-20 -9.87814e-16 0)
(6.34933e-20 -9.87816e-16 0)
(6.61197e-20 -9.87817e-16 0)
(6.86429e-20 -9.87819e-16 0)
(7.10532e-20 -9.8782e-16 0)
(7.33382e-20 -9.87822e-16 0)
(7.54844e-20 -9.87824e-16 0)
(7.74793e-20 -9.87826e-16 0)
(7.93126e-20 -9.87827e-16 0)
(8.09779e-20 -9.87829e-16 0)
(8.24731e-20 -9.87831e-16 0)
(8.38008e-20 -9.87832e-16 0)
(8.49681e-20 -9.87834e-16 0)
(8.59861e-20 -9.87835e-16 0)
(8.6869e-20 -9.87837e-16 0)
(8.76334e-20 -9.87838e-16 0)
(8.82975e-20 -9.87839e-16 0)
(8.888e-20 -9.8784e-16 0)
(8.93994e-20 -9.87841e-16 0)
(8.98731e-20 -9.87842e-16 0)
(1.77552e-19 -3.02717e-15 0)
(3.42597e-09 -1.4024e-05 0)
(-2.53013e-09 -0.000235594 0)
(1.80635e-21 -9.87808e-16 0)
(5.40188e-21 -9.87808e-16 0)
(8.97474e-21 -9.87808e-16 0)
(1.25436e-20 -9.87809e-16 0)
(1.61173e-20 -9.87809e-16 0)
(1.96951e-20 -9.87809e-16 0)
(2.32677e-20 -9.87809e-16 0)
(2.68197e-20 -9.8781e-16 0)
(3.03324e-20 -9.8781e-16 0)
(3.37868e-20 -9.87811e-16 0)
(3.71661e-20 -9.87812e-16 0)
(4.0457e-20 -9.87813e-16 0)
(4.36509e-20 -9.87814e-16 0)
(4.67432e-20 -9.87815e-16 0)
(4.97329e-20 -9.87816e-16 0)
(5.26208e-20 -9.87817e-16 0)
(5.54087e-20 -9.87818e-16 0)
(5.80978e-20 -9.8782e-16 0)
(6.06882e-20 -9.87821e-16 0)
(6.3178e-20 -9.87822e-16 0)
(6.55638e-20 -9.87824e-16 0)
(6.78404e-20 -9.87825e-16 0)
(7.00023e-20 -9.87827e-16 0)
(7.20436e-20 -9.87828e-16 0)
(7.39596e-20 -9.8783e-16 0)
(7.57471e-20 -9.87831e-16 0)
(7.74051e-20 -9.87833e-16 0)
(7.89353e-20 -9.87834e-16 0)
(8.03418e-20 -9.87835e-16 0)
(8.16314e-20 -9.87837e-16 0)
(8.28134e-20 -9.87838e-16 0)
(8.38987e-20 -9.87839e-16 0)
(8.49003e-20 -9.8784e-16 0)
(8.58322e-20 -9.87841e-16 0)
(8.67097e-20 -9.87842e-16 0)
(8.75491e-20 -9.87843e-16 0)
(8.83678e-20 -9.87843e-16 0)
(1.88178e-19 -3.30049e-15 0)
(3.05374e-09 -1.30521e-05 0)
(1.94517e-09 -0.000221826 0)
(1.78257e-21 -9.87814e-16 0)
(5.32467e-21 -9.87814e-16 0)
(8.82755e-21 -9.87814e-16 0)
(1.23022e-20 -9.87814e-16 0)
(1.5754e-20 -9.87814e-16 0)
(1.91827e-20 -9.87814e-16 0)
(2.25831e-20 -9.87815e-16 0)
(2.59464e-20 -9.87815e-16 0)
(2.92621e-20 -9.87816e-16 0)
(3.25189e-20 -9.87817e-16 0)
(3.57068e-20 -9.87817e-16 0)
(3.88172e-20 -9.87818e-16 0)
(4.18437e-20 -9.87819e-16 0)
(4.47824e-20 -9.8782e-16 0)
(4.76307e-20 -9.87821e-16 0)
(5.03874e-20 -9.87822e-16 0)
(5.3052e-20 -9.87824e-16 0)
(5.56239e-20 -9.87825e-16 0)
(5.81023e-20 -9.87826e-16 0)
(6.04857e-20 -9.87827e-16 0)
(6.27722e-20 -9.87829e-16 0)
(6.49597e-20 -9.8783e-16 0)
(6.70459e-20 -9.87831e-16 0)
(6.9029e-20 -9.87832e-16 0)
(7.0908e-20 -9.87834e-16 0)
(7.26831e-20 -9.87835e-16 0)
(7.43556e-20 -9.87836e-16 0)
(7.59286e-20 -9.87838e-16 0)
(7.74067e-20 -9.87839e-16 0)
(7.87958e-20 -9.8784e-16 0)
(8.01032e-20 -9.87841e-16 0)
(8.13374e-20 -9.87842e-16 0)
(8.25078e-20 -9.87843e-16 0)
(8.36246e-20 -9.87844e-16 0)
(8.46984e-20 -9.87845e-16 0)
(8.57402e-20 -9.87845e-16 0)
(8.67614e-20 -9.87846e-16 0)
(1.97327e-19 -3.56499e-15 0)
(2.70163e-09 -1.21225e-05 0)
(5.3334e-09 -0.000208345 0)
(1.74087e-21 -9.87819e-16 0)
(5.19664e-21 -9.87819e-16 0)
(8.60453e-21 -9.87819e-16 0)
(1.19711e-20 -9.87819e-16 0)
(1.52995e-20 -9.87819e-16 0)
(1.85898e-20 -9.8782e-16 0)
(2.1839e-20 -9.8782e-16 0)
(2.50422e-20 -9.87821e-16 0)
(2.81931e-20 -9.87821e-16 0)
(3.12851e-20 -9.87822e-16 0)
(3.43118e-20 -9.87823e-16 0)
(3.72677e-20 -9.87823e-16 0)
(4.01484e-20 -9.87824e-16 0)
(4.29505e-20 -9.87825e-16 0)
(4.56717e-20 -9.87826e-16 0)
(4.83104e-20 -9.87827e-16 0)
(5.08654e-20 -9.87828e-16 0)
(5.3336e-20 -9.8783e-16 0)
(5.57212e-20 -9.87831e-16 0)
(5.80204e-20 -9.87832e-16 0)
(6.02327e-20 -9.87833e-16 0)
(6.23576e-20 -9.87834e-16 0)
(6.43947e-20 -9.87835e-16 0)
(6.63441e-20 -9.87837e-16 0)
(6.82066e-20 -9.87838e-16 0)
(6.99836e-20 -9.87839e-16 0)
(7.16775e-20 -9.8784e-16 0)
(7.32915e-20 -9.87841e-16 0)
(7.48297e-20 -9.87842e-16 0)
(7.62971e-20 -9.87843e-16 0)
(7.76991e-20 -9.87844e-16 0)
(7.90419e-20 -9.87845e-16 0)
(8.03317e-20 -9.87846e-16 0)
(8.15751e-20 -9.87847e-16 0)
(8.27784e-20 -9.87847e-16 0)
(8.39474e-20 -9.87848e-16 0)
(8.50873e-20 -9.87849e-16 0)
(2.05345e-19 -3.82848e-15 0)
(2.37777e-09 -1.12332e-05 0)
(7.77384e-09 -0.000195141 0)
(1.6891e-21 -9.87824e-16 0)
(5.04012e-21 -9.87824e-16 0)
(8.3392e-21 -9.87824e-16 0)
(1.15903e-20 -9.87824e-16 0)
(1.47953e-20 -9.87824e-16 0)
(1.79544e-20 -9.87825e-16 0)
(2.10659e-20 -9.87825e-16 0)
(2.4127e-20 -9.87826e-16 0)
(2.7134e-20 -9.87826e-16 0)
(3.00828e-20 -9.87827e-16 0)
(3.29695e-20 -9.87828e-16 0)
(3.57905e-20 -9.87828e-16 0)
(3.85429e-20 -9.87829e-16 0)
(4.12241e-20 -9.8783e-16 0)
(4.38325e-20 -9.87831e-16 0)
(4.63667e-20 -9.87832e-16 0)
(4.88258e-20 -9.87833e-16 0)
(5.1209e-20 -9.87834e-16 0)
(5.35161e-20 -9.87835e-16 0)
(5.57467e-20 -9.87836e-16 0)
(5.7901e-20 -9.87837e-16 0)
(5.99792e-20 -9.87839e-16 0)
(6.19819e-20 -9.8784e-16 0)
(6.39101e-20 -9.87841e-16 0)
(6.57652e-20 -9.87842e-16 0)
(6.75492e-20 -9.87843e-16 0)
(6.92645e-20 -9.87844e-16 0)
(7.09143e-20 -9.87845e-16 0)
(7.25019e-20 -9.87846e-16 0)
(7.40311e-20 -9.87847e-16 0)
(7.55062e-20 -9.87848e-16 0)
(7.69314e-20 -9.87849e-16 0)
(7.8311e-20 -9.87849e-16 0)
(7.96492e-20 -9.8785e-16 0)
(8.095e-20 -9.87851e-16 0)
(8.22166e-20 -9.87851e-16 0)
(8.34516e-20 -9.87852e-16 0)
(2.13258e-19 -4.0958e-15 0)
(2.08853e-09 -1.03867e-05 0)
(9.28226e-09 -0.000182207 0)
(1.63182e-21 -9.87828e-16 0)
(4.86807e-21 -9.87828e-16 0)
(8.05103e-21 -9.87829e-16 0)
(1.11831e-20 -9.87829e-16 0)
(1.42656e-20 -9.87829e-16 0)
(1.72987e-20 -9.8783e-16 0)
(2.02816e-20 -9.8783e-16 0)
(2.32125e-20 -9.87831e-16 0)
(2.60894e-20 -9.87831e-16 0)
(2.891e-20 -9.87832e-16 0)
(3.16717e-20 -9.87833e-16 0)
(3.43724e-20 -9.87833e-16 0)
(3.70102e-20 -9.87834e-16 0)
(3.95836e-20 -9.87835e-16 0)
(4.20913e-20 -9.87836e-16 0)
(4.45325e-20 -9.87837e-16 0)
(4.69068e-20 -9.87838e-16 0)
(4.92138e-20 -9.87839e-16 0)
(5.14536e-20 -9.8784e-16 0)
(5.36265e-20 -9.87841e-16 0)
(5.57328e-20 -9.87842e-16 0)
(5.77735e-20 -9.87843e-16 0)
(5.97496e-20 -9.87844e-16 0)
(6.16623e-20 -9.87845e-16 0)
(6.35135e-20 -9.87846e-16 0)
(6.5305e-20 -9.87847e-16 0)
(6.70393e-20 -9.87848e-16 0)
(6.87189e-20 -9.87849e-16 0)
(7.03467e-20 -9.8785e-16 0)
(7.19257e-20 -9.8785e-16 0)
(7.34591e-20 -9.87851e-16 0)
(7.49502e-20 -9.87852e-16 0)
(7.6402e-20 -9.87853e-16 0)
(7.78179e-20 -9.87854e-16 0)
(7.92007e-20 -9.87854e-16 0)
(8.05536e-20 -9.87855e-16 0)
(8.18796e-20 -9.87855e-16 0)
(2.21058e-19 -4.36721e-15 0)
(1.82997e-09 -9.57536e-06 0)
(9.96974e-09 -0.00016954 0)
(1.57163e-21 -9.87833e-16 0)
(4.68789e-21 -9.87833e-16 0)
(7.7511e-21 -9.87833e-16 0)
(1.07629e-20 -9.87834e-16 0)
(1.37241e-20 -9.87834e-16 0)
(1.66351e-20 -9.87834e-16 0)
(1.94955e-20 -9.87835e-16 0)
(2.23046e-20 -9.87835e-16 0)
(2.5061e-20 -9.87836e-16 0)
(2.77637e-20 -9.87836e-16 0)
(3.04111e-20 -9.87837e-16 0)
(3.30021e-20 -9.87838e-16 0)
(3.55357e-20 -9.87839e-16 0)
(3.80109e-20 -9.8784e-16 0)
(4.04273e-20 -9.8784e-16 0)
(4.27844e-20 -9.87841e-16 0)
(4.50823e-20 -9.87842e-16 0)
(4.7321e-20 -9.87843e-16 0)
(4.9501e-20 -9.87844e-16 0)
(5.16227e-20 -9.87845e-16 0)
(5.36871e-20 -9.87846e-16 0)
(5.56952e-20 -9.87847e-16 0)
(5.76482e-20 -9.87848e-16 0)
(5.95476e-20 -9.87849e-16 0)
(6.1395e-20 -9.8785e-16 0)
(6.31924e-20 -9.87851e-16 0)
(6.49419e-20 -9.87852e-16 0)
(6.66456e-20 -9.87853e-16 0)
(6.83059e-20 -9.87853e-16 0)
(6.99252e-20 -9.87854e-16 0)
(7.1506e-20 -9.87855e-16 0)
(7.30506e-20 -9.87856e-16 0)
(7.45615e-20 -9.87857e-16 0)
(7.6041e-20 -9.87857e-16 0)
(7.74909e-20 -9.87858e-16 0)
(7.89133e-20 -9.87859e-16 0)
(8.03093e-20 -9.87859e-16 0)
(2.28615e-19 -4.65406e-15 0)
(1.59573e-09 -8.79584e-06 0)
(1.00205e-08 -0.000157133 0)
(1.50997e-21 -9.87837e-16 0)
(4.50364e-21 -9.87838e-16 0)
(7.44548e-21 -9.87838e-16 0)
(1.03367e-20 -9.87838e-16 0)
(1.3178e-20 -9.87838e-16 0)
(1.59698e-20 -9.87839e-16 0)
(1.87122e-20 -9.87839e-16 0)
(2.14049e-20 -9.8784e-16 0)
(2.40475e-20 -9.8784e-16 0)
(2.66393e-20 -9.87841e-16 0)
(2.91799e-20 -9.87842e-16 0)
(3.16687e-20 -9.87842e-16 0)
(3.41052e-20 -9.87843e-16 0)
(3.64893e-20 -9.87844e-16 0)
(3.88209e-20 -9.87845e-16 0)
(4.11001e-20 -9.87846e-16 0)
(4.33272e-20 -9.87846e-16 0)
(4.55027e-20 -9.87847e-16 0)
(4.76272e-20 -9.87848e-16 0)
(4.97016e-20 -9.87849e-16 0)
(5.17269e-20 -9.8785e-16 0)
(5.37043e-20 -9.87851e-16 0)
(5.56351e-20 -9.87852e-16 0)
(5.75208e-20 -9.87853e-16 0)
(5.93629e-20 -9.87854e-16 0)
(6.11632e-20 -9.87855e-16 0)
(6.29236e-20 -9.87856e-16 0)
(6.46458e-20 -9.87857e-16 0)
(6.63318e-20 -9.87857e-16 0)
(6.79836e-20 -9.87858e-16 0)
(6.96032e-20 -9.87859e-16 0)
(7.11923e-20 -9.8786e-16 0)
(7.2753e-20 -9.8786e-16 0)
(7.42869e-20 -9.87861e-16 0)
(7.57959e-20 -9.87862e-16 0)
(7.72816e-20 -9.87862e-16 0)
(7.87459e-20 -9.87863e-16 0)
(2.36834e-19 -4.99091e-15 0)
(1.38536e-09 -8.04658e-06 0)
(9.56721e-09 -0.000144985 0)
(1.44758e-21 -9.87842e-16 0)
(4.31743e-21 -9.87842e-16 0)
(7.13722e-21 -9.87842e-16 0)
(9.90795e-21 -9.87842e-16 0)
(1.26304e-20 -9.87843e-16 0)
(1.53052e-20 -9.87843e-16 0)
(1.79325e-20 -9.87843e-16 0)
(2.05127e-20 -9.87844e-16 0)
(2.30456e-20 -9.87845e-16 0)
(2.55314e-20 -9.87845e-16 0)
(2.79699e-20 -9.87846e-16 0)
(3.03613e-20 -9.87847e-16 0)
(3.27055e-20 -9.87847e-16 0)
(3.50029e-20 -9.87848e-16 0)
(3.72538e-20 -9.87849e-16 0)
(3.94587e-20 -9.8785e-16 0)
(4.16182e-20 -9.87851e-16 0)
(4.3733e-20 -9.87852e-16 0)
(4.58041e-20 -9.87852e-16 0)
(4.78325e-20 -9.87853e-16 0)
(4.98192e-20 -9.87854e-16 0)
(5.17657e-20 -9.87855e-16 0)
(5.36732e-20 -9.87856e-16 0)
(5.55431e-20 -9.87857e-16 0)
(5.7377e-20 -9.87858e-16 0)
(5.91763e-20 -9.87859e-16 0)
(6.09428e-20 -9.8786e-16 0)
(6.2678e-20 -9.87861e-16 0)
(6.43834e-20 -9.87861e-16 0)
(6.60608e-20 -9.87862e-16 0)
(6.77116e-20 -9.87863e-16 0)
(6.93373e-20 -9.87864e-16 0)
(7.09393e-20 -9.87864e-16 0)
(7.25189e-20 -9.87865e-16 0)
(7.40773e-20 -9.87866e-16 0)
(7.56152e-20 -9.87866e-16 0)
(7.71331e-20 -9.87867e-16 0)
(2.47398e-19 -5.33437e-15 0)
(1.19449e-09 -7.32546e-06 0)
(8.775e-09 -0.000133097 0)
(1.3848e-21 -9.87846e-16 0)
(4.13016e-21 -9.87846e-16 0)
(6.82755e-21 -9.87846e-16 0)
(9.47798e-21 -9.87846e-16 0)
(1.20823e-20 -9.87847e-16 0)
(1.46412e-20 -9.87847e-16 0)
(1.71553e-20 -9.87848e-16 0)
(1.96251e-20 -9.87848e-16 0)
(2.2051e-20 -9.87849e-16 0)
(2.44334e-20 -9.87849e-16 0)
(2.67727e-20 -9.8785e-16 0)
(2.90693e-20 -9.87851e-16 0)
(3.13238e-20 -9.87851e-16 0)
(3.35367e-20 -9.87852e-16 0)
(3.57088e-20 -9.87853e-16 0)
(3.78408e-20 -9.87854e-16 0)
(3.99336e-20 -9.87855e-16 0)
(4.19883e-20 -9.87856e-16 0)
(4.40058e-20 -9.87856e-16 0)
(4.59874e-20 -9.87857e-16 0)
(4.79344e-20 -9.87858e-16 0)
(4.98479e-20 -9.87859e-16 0)
(5.17294e-20 -9.8786e-16 0)
(5.35802e-20 -9.87861e-16 0)
(5.54018e-20 -9.87862e-16 0)
(5.71956e-20 -9.87863e-16 0)
(5.8963e-20 -9.87864e-16 0)
(6.07053e-20 -9.87865e-16 0)
(6.2424e-20 -9.87865e-16 0)
(6.41203e-20 -9.87866e-16 0)
(6.57955e-20 -9.87867e-16 0)
(6.74508e-20 -9.87868e-16 0)
(6.90874e-20 -9.87869e-16 0)
(7.07065e-20 -9.87869e-16 0)
(7.23092e-20 -9.8787e-16 0)
(7.3897e-20 -9.87871e-16 0)
(7.54713e-20 -9.87871e-16 0)
(2.5483e-19 -5.69167e-15 0)
(1.02284e-09 -6.6299e-06 0)
(7.75666e-09 -0.00012147 0)
(1.3217e-21 -9.8785e-16 0)
(3.942e-21 -9.8785e-16 0)
(6.51663e-21 -9.8785e-16 0)
(9.04664e-21 -9.8785e-16 0)
(1.1533e-20 -9.87851e-16 0)
(1.39766e-20 -9.87851e-16 0)
(1.63782e-20 -9.87851e-16 0)
(1.87386e-20 -9.87852e-16 0)
(2.10585e-20 -9.87853e-16 0)
(2.33387e-20 -9.87853e-16 0)
(2.55797e-20 -9.87854e-16 0)
(2.77826e-20 -9.87855e-16 0)
(2.99479e-20 -9.87855e-16 0)
(3.20767e-20 -9.87856e-16 0)
(3.417e-20 -9.87857e-16 0)
(3.62287e-20 -9.87858e-16 0)
(3.8254e-20 -9.87859e-16 0)
(4.0247e-20 -9.87859e-16 0)
(4.22091e-20 -9.8786e-16 0)
(4.41415e-20 -9.87861e-16 0)
(4.60456e-20 -9.87862e-16 0)
(4.79226e-20 -9.87863e-16 0)
(4.97741e-20 -9.87864e-16 0)
(5.16013e-20 -9.87865e-16 0)
(5.34056e-20 -9.87866e-16 0)
(5.51883e-20 -9.87867e-16 0)
(5.69507e-20 -9.87868e-16 0)
(5.86941e-20 -9.87869e-16 0)
(6.04194e-20 -9.87869e-16 0)
(6.21279e-20 -9.8787e-16 0)
(6.38204e-20 -9.87871e-16 0)
(6.5498e-20 -9.87872e-16 0)
(6.71612e-20 -9.87873e-16 0)
(6.8811e-20 -9.87874e-16 0)
(7.04478e-20 -9.87874e-16 0)
(7.20723e-20 -9.87875e-16 0)
(7.3685e-20 -9.87876e-16 0)
(2.64675e-19 -6.06862e-15 0)
(8.66868e-10 -5.96046e-06 0)
(6.64208e-09 -0.000110109 0)
(1.25824e-21 -9.87853e-16 0)
(3.75278e-21 -9.87854e-16 0)
(6.20403e-21 -9.87854e-16 0)
(8.61315e-21 -9.87854e-16 0)
(1.09812e-20 -9.87854e-16 0)
(1.33093e-20 -9.87855e-16 0)
(1.55983e-20 -9.87855e-16 0)
(1.78492e-20 -9.87856e-16 0)
(2.0063e-20 -9.87856e-16 0)
(2.22407e-20 -9.87857e-16 0)
(2.43832e-20 -9.87858e-16 0)
(2.64916e-20 -9.87858e-16 0)
(2.85669e-20 -9.87859e-16 0)
(3.06103e-20 -9.8786e-16 0)
(3.26231e-20 -9.87861e-16 0)
(3.46063e-20 -9.87862e-16 0)
(3.65615e-20 -9.87862e-16 0)
(3.84899e-20 -9.87863e-16 0)
(4.03929e-20 -9.87864e-16 0)
(4.2272e-20 -9.87865e-16 0)
(4.41287e-20 -9.87866e-16 0)
(4.59643e-20 -9.87867e-16 0)
(4.77802e-20 -9.87868e-16 0)
(4.9578e-20 -9.87869e-16 0)
(5.13589e-20 -9.8787e-16 0)
(5.31242e-20 -9.87871e-16 0)
(5.48751e-20 -9.87872e-16 0)
(5.66127e-20 -9.87873e-16 0)
(5.8338e-20 -9.87874e-16 0)
(6.00518e-20 -9.87874e-16 0)
(6.1755e-20 -9.87875e-16 0)
(6.34481e-20 -9.87876e-16 0)
(6.51316e-20 -9.87877e-16 0)
(6.68056e-20 -9.87878e-16 0)
(6.84701e-20 -9.87879e-16 0)
(7.01245e-20 -9.87879e-16 0)
(7.17677e-20 -9.8788e-16 0)
(2.71375e-19 -6.45766e-15 0)
(7.27827e-10 -5.32475e-06 0)
(5.50214e-09 -9.90249e-05 0)
(1.19428e-21 -9.87857e-16 0)
(3.5621e-21 -9.87857e-16 0)
(5.88906e-21 -9.87857e-16 0)
(8.17641e-21 -9.87858e-16 0)
(1.04253e-20 -9.87858e-16 0)
(1.2637e-20 -9.87858e-16 0)
(1.48125e-20 -9.87859e-16 0)
(1.6953e-20 -9.87859e-16 0)
(1.90596e-20 -9.8786e-16 0)
(2.11335e-20 -9.8786e-16 0)
(2.31758e-20 -9.87861e-16 0)
(2.51879e-20 -9.87862e-16 0)
(2.71709e-20 -9.87863e-16 0)
(2.91262e-20 -9.87863e-16 0)
(3.10553e-20 -9.87864e-16 0)
(3.29595e-20 -9.87865e-16 0)
(3.48404e-20 -9.87866e-16 0)
(3.66995e-20 -9.87867e-16 0)
(3.85384e-20 -9.87868e-16 0)
(4.03586e-20 -9.87869e-16 0)
(4.21617e-20 -9.8787e-16 0)
(4.39494e-20 -9.87871e-16 0)
(4.5723e-20 -9.87872e-16 0)
(4.74842e-20 -9.87873e-16 0)
(4.92343e-20 -9.87874e-16 0)
(5.09746e-20 -9.87875e-16 0)
(5.27063e-20 -9.87876e-16 0)
(5.44306e-20 -9.87877e-16 0)
(5.61484e-20 -9.87878e-16 0)
(5.78606e-20 -9.87879e-16 0)
(5.95678e-20 -9.8788e-16 0)
(6.12705e-20 -9.8788e-16 0)
(6.29694e-20 -9.87881e-16 0)
(6.46646e-20 -9.87882e-16 0)
(6.63568e-20 -9.87883e-16 0)
(6.80462e-20 -9.87884e-16 0)
(6.97338e-20 -9.87885e-16 0)
(2.79866e-19 -6.80374e-15 0)
(6.0476e-10 -4.71347e-06 0)
(4.39397e-09 -8.82278e-05 0)
(1.1297e-21 -9.8786e-16 0)
(3.36956e-21 -9.8786e-16 0)
(5.57098e-21 -9.87861e-16 0)
(7.73528e-21 -9.87861e-16 0)
(9.86372e-21 -9.87861e-16 0)
(1.19576e-20 -9.87862e-16 0)
(1.4018e-20 -9.87862e-16 0)
(1.60464e-20 -9.87863e-16 0)
(1.80438e-20 -9.87863e-16 0)
(2.00117e-20 -9.87864e-16 0)
(2.19514e-20 -9.87865e-16 0)
(2.38641e-20 -9.87865e-16 0)
(2.57514e-20 -9.87866e-16 0)
(2.76148e-20 -9.87867e-16 0)
(2.94558e-20 -9.87868e-16 0)
(3.12761e-20 -9.87869e-16 0)
(3.30772e-20 -9.8787e-16 0)
(3.48609e-20 -9.87871e-16 0)
(3.66289e-20 -9.87871e-16 0)
(3.83831e-20 -9.87872e-16 0)
(4.01251e-20 -9.87873e-16 0)
(4.18566e-20 -9.87874e-16 0)
(4.35795e-20 -9.87876e-16 0)
(4.52953e-20 -9.87877e-16 0)
(4.70056e-20 -9.87878e-16 0)
(4.87118e-20 -9.87879e-16 0)
(5.04153e-20 -9.8788e-16 0)
(5.21174e-20 -9.87881e-16 0)
(5.38189e-20 -9.87882e-16 0)
(5.55207e-20 -9.87883e-16 0)
(5.72236e-20 -9.87884e-16 0)
(5.89279e-20 -9.87885e-16 0)
(6.0634e-20 -9.87886e-16 0)
(6.2342e-20 -9.87887e-16 0)
(6.4052e-20 -9.87888e-16 0)
(6.57641e-20 -9.87888e-16 0)
(6.74783e-20 -9.87889e-16 0)
(2.80725e-19 -7.01609e-15 0)
(4.93494e-10 -4.12391e-06 0)
(3.38963e-09 -7.77332e-05 0)
(1.06438e-21 -9.87864e-16 0)
(3.17478e-21 -9.87864e-16 0)
(5.24913e-21 -9.87864e-16 0)
(7.2888e-21 -9.87864e-16 0)
(9.2951e-21 -9.87864e-16 0)
(1.12693e-20 -9.87865e-16 0)
(1.32127e-20 -9.87865e-16 0)
(1.51267e-20 -9.87866e-16 0)
(1.70124e-20 -9.87866e-16 0)
(1.88714e-20 -9.87867e-16 0)
(2.0705e-20 -9.87868e-16 0)
(2.25147e-20 -9.87869e-16 0)
(2.4302e-20 -9.87869e-16 0)
(2.60685e-20 -9.8787e-16 0)
(2.7816e-20 -9.87871e-16 0)
(2.95461e-20 -9.87872e-16 0)
(3.12607e-20 -9.87873e-16 0)
(3.29616e-20 -9.87874e-16 0)
(3.46507e-20 -9.87875e-16 0)
(3.633e-20 -9.87876e-16 0)
(3.80015e-20 -9.87877e-16 0)
(3.96671e-20 -9.87878e-16 0)
(4.13288e-20 -9.87879e-16 0)
(4.29885e-20 -9.8788e-16 0)
(4.4648e-20 -9.87881e-16 0)
(4.6309e-20 -9.87882e-16 0)
(4.79732e-20 -9.87884e-16 0)
(4.9642e-20 -9.87885e-16 0)
(5.13166e-20 -9.87886e-16 0)
(5.2998e-20 -9.87887e-16 0)
(5.4687e-20 -9.87888e-16 0)
(5.63838e-20 -9.87889e-16 0)
(5.80886e-20 -9.8789e-16 0)
(5.98011e-20 -9.87891e-16 0)
(6.15205e-20 -9.87892e-16 0)
(6.32454e-20 -9.87893e-16 0)
(6.49736e-20 -9.87894e-16 0)
(2.76169e-19 -7.03768e-15 0)
(3.95768e-10 -3.56852e-06 0)
(2.51531e-09 -6.75604e-05 0)
(9.98226e-22 -9.87867e-16 0)
(2.9775e-21 -9.87867e-16 0)
(4.92309e-21 -9.87867e-16 0)
(6.83633e-21 -9.87867e-16 0)
(8.71855e-21 -9.87867e-16 0)
(1.0571e-20 -9.87868e-16 0)
(1.2395e-20 -9.87868e-16 0)
(1.41919e-20 -9.87869e-16 0)
(1.5963e-20 -9.87869e-16 0)
(1.77097e-20 -9.8787e-16 0)
(1.94333e-20 -9.87871e-16 0)
(2.11356e-20 -9.87872e-16 0)
(2.28179e-20 -9.87872e-16 0)
(2.4482e-20 -9.87873e-16 0)
(2.61296e-20 -9.87874e-16 0)