/*--------------------------------*- C++ -*----------------------------------*\
  =========                 |
  \\      /  F ield         | OpenFOAM: The Open Source CFD Toolbox
   \\    /   O peration     | Website:  https://openfoam.org
    \\  /    A nd           | Version:  10
     \\/     M anipulation  |
\*---------------------------------------------------------------------------*/
FoamFile
{
    format      ascii;
    class       volScalarField;
    location    "1.25";
    object      p;
}
// * * * * * * * * * * * * * * * * * * * * * * * * * * * * * * * * * * * * * //

dimensions      [1 -1 -2 0 0 0 0];

internalField   nonuniform List<scalar> 
12225
(
1.619e+07
1.61331e+07
1.60313e+07
1.58971e+07
1.57409e+07
1.55711e+07
1.53931e+07
1.52108e+07
1.50265e+07
1.48414e+07
1.46562e+07
1.44709e+07
1.42849e+07
1.40971e+07
1.39056e+07
1.37069e+07
1.34941e+07
1.32494e+07
1.61923e+07
1.61352e+07
1.60331e+07
1.58984e+07
1.5742e+07
1.55719e+07
1.53938e+07
1.52114e+07
1.5027e+07
1.4842e+07
1.46568e+07
1.44716e+07
1.42858e+07
1.40984e+07
1.39075e+07
1.37101e+07
1.35004e+07
1.32678e+07
1.61974e+07
1.61398e+07
1.60368e+07
1.59014e+07
1.57444e+07
1.55738e+07
1.53953e+07
1.52127e+07
1.50282e+07
1.48432e+07
1.46582e+07
1.44733e+07
1.42879e+07
1.41012e+07
1.39116e+07
1.37166e+07
1.35126e+07
1.32957e+07
1.62058e+07
1.61473e+07
1.60431e+07
1.59064e+07
1.57482e+07
1.55768e+07
1.53978e+07
1.52148e+07
1.50302e+07
1.48452e+07
1.46604e+07
1.44759e+07
1.42913e+07
1.41057e+07
1.39181e+07
1.37267e+07
1.35299e+07
1.33282e+07
1.62184e+07
1.61585e+07
1.60523e+07
1.59137e+07
1.57539e+07
1.55812e+07
1.54014e+07
1.52179e+07
1.50331e+07
1.48482e+07
1.46637e+07
1.44798e+07
1.42961e+07
1.41122e+07
1.39272e+07
1.37402e+07
1.35513e+07
1.33631e+07
1.62359e+07
1.61741e+07
1.60651e+07
1.59236e+07
1.57616e+07
1.55872e+07
1.54062e+07
1.52221e+07
1.5037e+07
1.48521e+07
1.4668e+07
1.44849e+07
1.43026e+07
1.41207e+07
1.39388e+07
1.37569e+07
1.35758e+07
1.3399e+07
1.62594e+07
1.61949e+07
1.6082e+07
1.59368e+07
1.57716e+07
1.5595e+07
1.54125e+07
1.52275e+07
1.5042e+07
1.48572e+07
1.46736e+07
1.44915e+07
1.43107e+07
1.41312e+07
1.3953e+07
1.37763e+07
1.36027e+07
1.34355e+07
1.62902e+07
1.62219e+07
1.61038e+07
1.59535e+07
1.57843e+07
1.56048e+07
1.54203e+07
1.52342e+07
1.50482e+07
1.48635e+07
1.46805e+07
1.44996e+07
1.43207e+07
1.41439e+07
1.39695e+07
1.37981e+07
1.36314e+07
1.34721e+07
1.63301e+07
1.62565e+07
1.61313e+07
1.59744e+07
1.58e+07
1.56167e+07
1.54298e+07
1.52422e+07
1.50557e+07
1.4871e+07
1.46888e+07
1.45092e+07
1.43324e+07
1.41585e+07
1.39881e+07
1.38219e+07
1.36614e+07
1.35088e+07
1.63812e+07
1.63002e+07
1.61653e+07
1.59998e+07
1.58188e+07
1.56309e+07
1.5441e+07
1.52517e+07
1.50644e+07
1.48799e+07
1.46985e+07
1.45204e+07
1.43458e+07
1.4175e+07
1.40085e+07
1.38472e+07
1.36924e+07
1.35455e+07
1.64466e+07
1.6355e+07
1.62069e+07
1.60302e+07
1.58408e+07
1.56473e+07
1.54538e+07
1.52625e+07
1.50744e+07
1.489e+07
1.47095e+07
1.4533e+07
1.43608e+07
1.41931e+07
1.40306e+07
1.38738e+07
1.37239e+07
1.3582e+07
1.65233e+07
1.64173e+07
1.62528e+07
1.60626e+07
1.58638e+07
1.56641e+07
1.54669e+07
1.52735e+07
1.50846e+07
1.49002e+07
1.47206e+07
1.45457e+07
1.43758e+07
1.4211e+07
1.40519e+07
1.3899e+07
1.37531e+07
1.36151e+07
1.66175e+07
1.64912e+07
1.63051e+07
1.60985e+07
1.58887e+07
1.5682e+07
1.54806e+07
1.5285e+07
1.50952e+07
1.4911e+07
1.47324e+07
1.45591e+07
1.43915e+07
1.42295e+07
1.40736e+07
1.39243e+07
1.37821e+07
1.36476e+07
1.67566e+07
1.65937e+07
1.63734e+07
1.61433e+07
1.59186e+07
1.57031e+07
1.54966e+07
1.52984e+07
1.51077e+07
1.49238e+07
1.47464e+07
1.45751e+07
1.44101e+07
1.42513e+07
1.40989e+07
1.39534e+07
1.38149e+07
1.36839e+07
1.69723e+07
1.6736e+07
1.64594e+07
1.61956e+07
1.59519e+07
1.57257e+07
1.55136e+07
1.53127e+07
1.51213e+07
1.49381e+07
1.47623e+07
1.45935e+07
1.44314e+07
1.42761e+07
1.41275e+07
1.39859e+07
1.38512e+07
1.37237e+07
1.73353e+07
1.6925e+07
1.65553e+07
1.62472e+07
1.5982e+07
1.57452e+07
1.55281e+07
1.53255e+07
1.51342e+07
1.49524e+07
1.4779e+07
1.46132e+07
1.44546e+07
1.43032e+07
1.41586e+07
1.4021e+07
1.38902e+07
1.37663e+07
1.80334e+07
1.71135e+07
1.66168e+07
1.62704e+07
1.59919e+07
1.57506e+07
1.55327e+07
1.53313e+07
1.51423e+07
1.49637e+07
1.47939e+07
1.46321e+07
1.44778e+07
1.43306e+07
1.41904e+07
1.4057e+07
1.39302e+07
1.38099e+07
1.71718e+07
1.68287e+07
1.64933e+07
1.62031e+07
1.59496e+07
1.57225e+07
1.55145e+07
1.53208e+07
1.51387e+07
1.49662e+07
1.48023e+07
1.46462e+07
1.44973e+07
1.43554e+07
1.42201e+07
1.40913e+07
1.39687e+07
1.38522e+07
1.65886e+07
1.64473e+07
1.62528e+07
1.60466e+07
1.58438e+07
1.5649e+07
1.5463e+07
1.52856e+07
1.51162e+07
1.49541e+07
1.47991e+07
1.46509e+07
1.4509e+07
1.43734e+07
1.42439e+07
1.41202e+07
1.40023e+07
1.38899e+07
1.62534e+07
1.61722e+07
1.60428e+07
1.58896e+07
1.57268e+07
1.55616e+07
1.5398e+07
1.52377e+07
1.50818e+07
1.49307e+07
1.47849e+07
1.46443e+07
1.45091e+07
1.43794e+07
1.42549e+07
1.41357e+07
1.40217e+07
1.39128e+07
1.6061e+07
1.60025e+07
1.59031e+07
1.57784e+07
1.56396e+07
1.54939e+07
1.53457e+07
1.51978e+07
1.50519e+07
1.49091e+07
1.47701e+07
1.46353e+07
1.45051e+07
1.43795e+07
1.42587e+07
1.41428e+07
1.40315e+07
1.3925e+07
1.59334e+07
1.58862e+07
1.58033e+07
1.56958e+07
1.55727e+07
1.54405e+07
1.53035e+07
1.51649e+07
1.50266e+07
1.48902e+07
1.47565e+07
1.46262e+07
1.44997e+07
1.43774e+07
1.42595e+07
1.41459e+07
1.40368e+07
1.39322e+07
1.58468e+07
1.5806e+07
1.57328e+07
1.56361e+07
1.55234e+07
1.54003e+07
1.52712e+07
1.51393e+07
1.50066e+07
1.48748e+07
1.47451e+07
1.46181e+07
1.44946e+07
1.43747e+07
1.42589e+07
1.41471e+07
1.40396e+07
1.39363e+07
1.57878e+07
1.57507e+07
1.56836e+07
1.55938e+07
1.54878e+07
1.5371e+07
1.52474e+07
1.51202e+07
1.49915e+07
1.48631e+07
1.47362e+07
1.46117e+07
1.44902e+07
1.43721e+07
1.42578e+07
1.41474e+07
1.4041e+07
1.39387e+07
1.57478e+07
1.57131e+07
1.56498e+07
1.55644e+07
1.5463e+07
1.53503e+07
1.52305e+07
1.51064e+07
1.49805e+07
1.48545e+07
1.47296e+07
1.46068e+07
1.44867e+07
1.43699e+07
1.42567e+07
1.41472e+07
1.40416e+07
1.394e+07
1.57213e+07
1.5688e+07
1.56271e+07
1.55446e+07
1.5446e+07
1.53362e+07
1.52188e+07
1.50969e+07
1.49729e+07
1.48484e+07
1.47249e+07
1.46033e+07
1.44842e+07
1.43683e+07
1.42558e+07
1.41469e+07
1.40419e+07
1.39407e+07
1.57042e+07
1.56718e+07
1.56124e+07
1.55317e+07
1.5435e+07
1.53269e+07
1.52111e+07
1.50906e+07
1.49678e+07
1.48444e+07
1.47218e+07
1.46009e+07
1.44825e+07
1.43671e+07
1.42551e+07
1.41467e+07
1.4042e+07
1.39411e+07
1.56938e+07
1.56619e+07
1.56034e+07
1.55238e+07
1.54282e+07
1.53212e+07
1.52063e+07
1.50867e+07
1.49646e+07
1.48419e+07
1.47198e+07
1.45994e+07
1.44814e+07
1.43663e+07
1.42546e+07
1.41464e+07
1.4042e+07
1.39413e+07
1.56882e+07
1.56566e+07
1.55986e+07
1.55195e+07
1.54246e+07
1.53181e+07
1.52037e+07
1.50846e+07
1.49629e+07
1.48405e+07
1.47187e+07
1.45985e+07
1.44808e+07
1.43659e+07
1.42543e+07
1.41463e+07
1.4042e+07
1.39414e+07
1.56859e+07
1.56544e+07
1.55966e+07
1.55178e+07
1.54231e+07
1.53168e+07
1.52027e+07
1.50837e+07
1.49622e+07
1.48399e+07
1.47182e+07
1.45982e+07
1.44805e+07
1.43657e+07
1.42542e+07
1.41462e+07
1.40419e+07
1.39414e+07
1.07364e+07
1.07364e+07
1.07363e+07
1.07361e+07
1.07359e+07
1.07357e+07
1.07354e+07
1.0735e+07
1.07346e+07
1.07342e+07
1.07337e+07
1.07331e+07
1.07325e+07
1.07318e+07
1.07311e+07
1.07303e+07
1.07295e+07
1.07286e+07
1.07277e+07
1.07267e+07
1.07257e+07
1.07247e+07
1.07236e+07
1.07224e+07
1.07213e+07
1.072e+07
1.07188e+07
1.07175e+07
1.07162e+07
1.07148e+07
1.07134e+07
1.0712e+07
1.07105e+07
1.0709e+07
1.07075e+07
1.0706e+07
1.07044e+07
1.07028e+07
1.07012e+07
1.06996e+07
1.06979e+07
1.06963e+07
1.06946e+07
1.06929e+07
1.06911e+07
1.06894e+07
1.06876e+07
1.06858e+07
1.0684e+07
1.06821e+07
1.06803e+07
1.06784e+07
1.06765e+07
1.06746e+07
1.06727e+07
1.06708e+07
1.06688e+07
1.06668e+07
1.06648e+07
1.06628e+07
1.06608e+07
1.06587e+07
1.06567e+07
1.06546e+07
1.06525e+07
1.06504e+07
1.06482e+07
1.06461e+07
1.06439e+07
1.06417e+07
1.06395e+07
1.06373e+07
1.0635e+07
1.06328e+07
1.06305e+07
1.06282e+07
1.06258e+07
1.06235e+07
1.06212e+07
1.06188e+07
1.06164e+07
1.0614e+07
1.06115e+07
1.06091e+07
1.06066e+07
1.06041e+07
1.06016e+07
1.05991e+07
1.05965e+07
1.05939e+07
1.05913e+07
1.05887e+07
1.05861e+07
1.05834e+07
1.05808e+07
1.05781e+07
1.05753e+07
1.05726e+07
1.05698e+07
1.05671e+07
1.05643e+07
1.05614e+07
1.05586e+07
1.05557e+07
1.05528e+07
1.05499e+07
1.05469e+07
1.0544e+07
1.0541e+07
1.0538e+07
1.0535e+07
1.05319e+07
1.05288e+07
1.05257e+07
1.05226e+07
1.05194e+07
1.05163e+07
1.05131e+07
1.05098e+07
1.05066e+07
1.05033e+07
1.05e+07
1.04967e+07
1.04933e+07
1.04899e+07
1.04865e+07
1.04831e+07
1.04796e+07
1.04761e+07
1.04726e+07
1.04691e+07
1.04655e+07
1.04619e+07
1.04583e+07
1.04546e+07
1.04509e+07
1.04472e+07
1.04435e+07
1.04397e+07
1.04359e+07
1.04321e+07
1.04282e+07
1.04244e+07
1.04204e+07
1.04165e+07
1.04125e+07
1.04085e+07
1.04045e+07
1.04004e+07
1.03963e+07
1.03921e+07
1.0388e+07
1.03838e+07
1.03795e+07
1.03753e+07
1.0371e+07
1.03666e+07
1.03623e+07
1.03579e+07
1.03534e+07
1.0349e+07
1.03445e+07
1.03399e+07
1.03354e+07
1.03308e+07
1.03261e+07
1.03214e+07
1.03167e+07
1.0312e+07
1.03072e+07
1.03024e+07
1.02975e+07
1.02927e+07
1.02877e+07
1.02828e+07
1.02778e+07
1.02729e+07
1.02679e+07
1.02629e+07
1.02579e+07
1.07366e+07
1.07366e+07
1.07365e+07
1.07363e+07
1.07361e+07
1.07359e+07
1.07356e+07
1.07352e+07
1.07348e+07
1.07344e+07
1.07338e+07
1.07333e+07
1.07326e+07
1.0732e+07
1.07312e+07
1.07305e+07
1.07296e+07
1.07288e+07
1.07278e+07
1.07269e+07
1.07259e+07
1.07248e+07
1.07237e+07
1.07225e+07
1.07213e+07
1.07201e+07
1.07189e+07
1.07176e+07
1.07162e+07
1.07148e+07
1.07134e+07
1.0712e+07
1.07106e+07
1.07091e+07
1.07076e+07
1.0706e+07
1.07045e+07
1.07029e+07
1.07013e+07
1.06996e+07
1.0698e+07
1.06963e+07
1.06946e+07
1.06929e+07
1.06911e+07
1.06894e+07
1.06876e+07
1.06858e+07
1.0684e+07
1.06821e+07
1.06803e+07
1.06784e+07
1.06765e+07
1.06746e+07
1.06727e+07
1.06708e+07
1.06688e+07
1.06668e+07
1.06648e+07
1.06628e+07
1.06608e+07
1.06587e+07
1.06567e+07
1.06546e+07
1.06525e+07
1.06504e+07
1.06482e+07
1.06461e+07
1.06439e+07
1.06417e+07
1.06395e+07
1.06373e+07
1.0635e+07
1.06328e+07
1.06305e+07
1.06282e+07
1.06258e+07
1.06235e+07
1.06211e+07
1.06188e+07
1.06164e+07
1.0614e+07
1.06115e+07
1.06091e+07
1.06066e+07
1.06041e+07
1.06016e+07
1.05991e+07
1.05965e+07
1.05939e+07
1.05913e+07
1.05887e+07
1.05861e+07
1.05834e+07
1.05808e+07
1.05781e+07
1.05753e+07
1.05726e+07
1.05698e+07
1.05671e+07
1.05642e+07
1.05614e+07
1.05586e+07
1.05557e+07
1.05528e+07
1.05499e+07
1.05469e+07
1.0544e+07
1.0541e+07
1.0538e+07
1.0535e+07
1.05319e+07
1.05288e+07
1.05257e+07
1.05226e+07
1.05194e+07
1.05163e+07
1.05131e+07
1.05098e+07
1.05066e+07
1.05033e+07
1.05e+07
1.04967e+07
1.04933e+07
1.04899e+07
1.04865e+07
1.04831e+07
1.04796e+07
1.04761e+07
1.04726e+07
1.04691e+07
1.04655e+07
1.04619e+07
1.04583e+07
1.04546e+07
1.04509e+07
1.04472e+07
1.04435e+07
1.04397e+07
1.04359e+07
1.04321e+07
1.04282e+07
1.04244e+07
1.04204e+07
1.04165e+07
1.04125e+07
1.04085e+07
1.04045e+07
1.04004e+07
1.03963e+07
1.03921e+07
1.0388e+07
1.03838e+07
1.03795e+07
1.03753e+07
1.0371e+07
1.03666e+07
1.03623e+07
1.03579e+07
1.03534e+07
1.0349e+07
1.03445e+07
1.03399e+07
1.03354e+07
1.03308e+07
1.03261e+07
1.03214e+07
1.03167e+07
1.0312e+07
1.03072e+07
1.03024e+07
1.02975e+07
1.02926e+07
1.02877e+07
1.02828e+07
1.02778e+07
1.02728e+07
1.02678e+07
1.02629e+07
1.02579e+07
1.07371e+07
1.0737e+07
1.07369e+07
1.07368e+07
1.07366e+07
1.07363e+07
1.0736e+07
1.07356e+07
1.07352e+07
1.07347e+07
1.07342e+07
1.07336e+07
1.0733e+07
1.07323e+07
1.07316e+07
1.07308e+07
1.07299e+07
1.0729e+07
1.07281e+07
1.07271e+07
1.07261e+07
1.0725e+07
1.07239e+07
1.07227e+07
1.07215e+07
1.07203e+07
1.0719e+07
1.07177e+07
1.07163e+07
1.0715e+07
1.07136e+07
1.07121e+07
1.07106e+07
1.07092e+07
1.07076e+07
1.07061e+07
1.07045e+07
1.07029e+07
1.07013e+07
1.06997e+07
1.0698e+07
1.06963e+07
1.06946e+07
1.06929e+07
1.06912e+07
1.06894e+07
1.06876e+07
1.06858e+07
1.0684e+07
1.06822e+07
1.06803e+07
1.06784e+07
1.06765e+07
1.06746e+07
1.06727e+07
1.06708e+07
1.06688e+07
1.06668e+07
1.06648e+07
1.06628e+07
1.06608e+07
1.06587e+07
1.06567e+07
1.06546e+07
1.06525e+07
1.06504e+07
1.06482e+07
1.06461e+07
1.06439e+07
1.06417e+07
1.06395e+07
1.06373e+07
1.0635e+07
1.06327e+07
1.06305e+07
1.06282e+07
1.06258e+07
1.06235e+07
1.06211e+07
1.06188e+07
1.06164e+07
1.0614e+07
1.06115e+07
1.06091e+07
1.06066e+07
1.06041e+07
1.06016e+07
1.05991e+07
1.05965e+07
1.05939e+07
1.05913e+07
1.05887e+07
1.05861e+07
1.05834e+07
1.05808e+07
1.05781e+07
1.05753e+07
1.05726e+07
1.05698e+07
1.05671e+07
1.05642e+07
1.05614e+07
1.05586e+07
1.05557e+07
1.05528e+07
1.05499e+07
1.05469e+07
1.0544e+07
1.0541e+07
1.0538e+07
1.0535e+07
1.05319e+07
1.05288e+07
1.05257e+07
1.05226e+07
1.05194e+07
1.05163e+07
1.0513e+07
1.05098e+07
1.05066e+07
1.05033e+07
1.05e+07
1.04967e+07
1.04933e+07
1.04899e+07
1.04865e+07
1.04831e+07
1.04796e+07
1.04761e+07
1.04726e+07
1.04691e+07
1.04655e+07
1.04619e+07
1.04583e+07
1.04546e+07
1.04509e+07
1.04472e+07
1.04435e+07
1.04397e+07
1.04359e+07
1.04321e+07
1.04282e+07
1.04243e+07
1.04204e+07
1.04165e+07
1.04125e+07
1.04085e+07
1.04045e+07
1.04004e+07
1.03963e+07
1.03921e+07
1.0388e+07
1.03838e+07
1.03795e+07
1.03753e+07
1.0371e+07
1.03666e+07
1.03623e+07
1.03579e+07
1.03534e+07
1.0349e+07
1.03445e+07
1.03399e+07
1.03354e+07
1.03307e+07
1.03261e+07
1.03214e+07
1.03167e+07
1.0312e+07
1.03072e+07
1.03024e+07
1.02975e+07
1.02926e+07
1.02877e+07
1.02828e+07
1.02778e+07
1.02728e+07
1.02678e+07
1.02628e+07
1.02578e+07
1.07377e+07
1.07377e+07
1.07376e+07
1.07374e+07
1.07372e+07
1.07369e+07
1.07366e+07
1.07362e+07
1.07358e+07
1.07353e+07
1.07348e+07
1.07342e+07
1.07335e+07
1.07328e+07
1.07321e+07
1.07312e+07
1.07304e+07
1.07295e+07
1.07285e+07
1.07275e+07
1.07264e+07
1.07253e+07
1.07242e+07
1.0723e+07
1.07218e+07
1.07205e+07
1.07192e+07
1.07179e+07
1.07165e+07
1.07151e+07
1.07137e+07
1.07123e+07
1.07108e+07
1.07093e+07
1.07077e+07
1.07062e+07
1.07046e+07
1.0703e+07
1.07014e+07
1.06997e+07
1.06981e+07
1.06964e+07
1.06947e+07
1.06929e+07
1.06912e+07
1.06894e+07
1.06876e+07
1.06858e+07
1.0684e+07
1.06822e+07
1.06803e+07
1.06785e+07
1.06766e+07
1.06747e+07
1.06727e+07
1.06708e+07
1.06688e+07
1.06668e+07
1.06648e+07
1.06628e+07
1.06608e+07
1.06587e+07
1.06567e+07
1.06546e+07
1.06525e+07
1.06504e+07
1.06482e+07
1.06461e+07
1.06439e+07
1.06417e+07
1.06395e+07
1.06373e+07
1.0635e+07
1.06328e+07
1.06305e+07
1.06282e+07
1.06258e+07
1.06235e+07
1.06211e+07
1.06188e+07
1.06164e+07
1.0614e+07
1.06115e+07
1.06091e+07
1.06066e+07
1.06041e+07
1.06016e+07
1.05991e+07
1.05965e+07
1.05939e+07
1.05913e+07
1.05887e+07
1.05861e+07
1.05834e+07
1.05808e+07
1.05781e+07
1.05753e+07
1.05726e+07
1.05698e+07
1.0567e+07
1.05642e+07
1.05614e+07
1.05586e+07
1.05557e+07
1.05528e+07
1.05499e+07
1.05469e+07
1.0544e+07
1.0541e+07
1.0538e+07
1.05349e+07
1.05319e+07
1.05288e+07
1.05257e+07
1.05226e+07
1.05194e+07
1.05162e+07
1.0513e+07
1.05098e+07
1.05066e+07
1.05033e+07
1.05e+07
1.04967e+07
1.04933e+07
1.04899e+07
1.04865e+07
1.04831e+07
1.04796e+07
1.04761e+07
1.04726e+07
1.04691e+07
1.04655e+07
1.04619e+07
1.04583e+07
1.04546e+07
1.04509e+07
1.04472e+07
1.04435e+07
1.04397e+07
1.04359e+07
1.04321e+07
1.04282e+07
1.04243e+07
1.04204e+07
1.04165e+07
1.04125e+07
1.04085e+07
1.04044e+07
1.04004e+07
1.03963e+07
1.03921e+07
1.0388e+07
1.03838e+07
1.03795e+07
1.03753e+07
1.0371e+07
1.03666e+07
1.03623e+07
1.03579e+07
1.03534e+07
1.0349e+07
1.03445e+07
1.03399e+07
1.03354e+07
1.03307e+07
1.03261e+07
1.03214e+07
1.03167e+07
1.0312e+07
1.03072e+07
1.03024e+07
1.02975e+07
1.02926e+07
1.02877e+07
1.02828e+07
1.02778e+07
1.02728e+07
1.02678e+07
1.02628e+07
1.02578e+07
1.07386e+07
1.07386e+07
1.07385e+07
1.07383e+07
1.07381e+07
1.07378e+07
1.07375e+07
1.07371e+07
1.07366e+07
1.07361e+07
1.07355e+07
1.07349e+07
1.07342e+07
1.07335e+07
1.07327e+07
1.07319e+07
1.0731e+07
1.073e+07
1.07291e+07
1.0728e+07
1.07269e+07
1.07258e+07
1.07246e+07
1.07234e+07
1.07221e+07
1.07209e+07
1.07195e+07
1.07182e+07
1.07168e+07
1.07154e+07
1.07139e+07
1.07124e+07
1.07109e+07
1.07094e+07
1.07079e+07
1.07063e+07
1.07047e+07
1.07031e+07
1.07015e+07
1.06998e+07
1.06981e+07
1.06964e+07
1.06947e+07
1.0693e+07
1.06912e+07
1.06895e+07
1.06877e+07
1.06859e+07
1.06841e+07
1.06822e+07
1.06804e+07
1.06785e+07
1.06766e+07
1.06747e+07
1.06727e+07
1.06708e+07
1.06688e+07
1.06668e+07
1.06648e+07
1.06628e+07
1.06608e+07
1.06587e+07
1.06567e+07
1.06546e+07
1.06525e+07
1.06504e+07
1.06482e+07
1.06461e+07
1.06439e+07
1.06417e+07
1.06395e+07
1.06373e+07
1.0635e+07
1.06328e+07
1.06305e+07
1.06282e+07
1.06258e+07
1.06235e+07
1.06211e+07
1.06188e+07
1.06164e+07
1.0614e+07
1.06115e+07
1.06091e+07
1.06066e+07
1.06041e+07
1.06016e+07
1.05991e+07
1.05965e+07
1.05939e+07
1.05913e+07
1.05887e+07
1.05861e+07
1.05834e+07
1.05807e+07
1.05781e+07
1.05753e+07
1.05726e+07
1.05698e+07
1.0567e+07
1.05642e+07
1.05614e+07
1.05586e+07
1.05557e+07
1.05528e+07
1.05499e+07
1.05469e+07
1.0544e+07
1.0541e+07
1.0538e+07
1.05349e+07
1.05319e+07
1.05288e+07
1.05257e+07
1.05226e+07
1.05194e+07
1.05162e+07
1.0513e+07
1.05098e+07
1.05066e+07
1.05033e+07
1.05e+07
1.04967e+07
1.04933e+07
1.04899e+07
1.04865e+07
1.04831e+07
1.04796e+07
1.04761e+07
1.04726e+07
1.04691e+07
1.04655e+07
1.04619e+07
1.04583e+07
1.04546e+07
1.04509e+07
1.04472e+07
1.04435e+07
1.04397e+07
1.04359e+07
1.04321e+07
1.04282e+07
1.04243e+07
1.04204e+07
1.04165e+07
1.04125e+07
1.04085e+07
1.04044e+07
1.04004e+07
1.03963e+07
1.03921e+07
1.0388e+07
1.03838e+07
1.03795e+07
1.03753e+07
1.0371e+07
1.03666e+07
1.03623e+07
1.03579e+07
1.03534e+07
1.0349e+07
1.03445e+07
1.03399e+07
1.03354e+07
1.03307e+07
1.03261e+07
1.03214e+07
1.03167e+07
1.0312e+07
1.03072e+07
1.03024e+07
1.02975e+07
1.02926e+07
1.02877e+07
1.02828e+07
1.02778e+07
1.02728e+07
1.02678e+07
1.02627e+07
1.02577e+07
1.07398e+07
1.07397e+07
1.07396e+07
1.07394e+07
1.07392e+07
1.07389e+07
1.07385e+07
1.07381e+07
1.07376e+07
1.07371e+07
1.07365e+07
1.07358e+07
1.07351e+07
1.07344e+07
1.07335e+07
1.07327e+07
1.07317e+07
1.07308e+07
1.07297e+07
1.07287e+07
1.07275e+07
1.07264e+07
1.07251e+07
1.07239e+07
1.07226e+07
1.07213e+07
1.07199e+07
1.07185e+07
1.07171e+07
1.07156e+07
1.07142e+07
1.07127e+07
1.07111e+07
1.07096e+07
1.0708e+07
1.07065e+07
1.07048e+07
1.07032e+07
1.07016e+07
1.06999e+07
1.06982e+07
1.06965e+07
1.06948e+07
1.06931e+07
1.06913e+07
1.06895e+07
1.06877e+07
1.06859e+07
1.06841e+07
1.06822e+07
1.06804e+07
1.06785e+07
1.06766e+07
1.06747e+07
1.06728e+07
1.06708e+07
1.06688e+07
1.06669e+07
1.06649e+07
1.06628e+07
1.06608e+07
1.06588e+07
1.06567e+07
1.06546e+07
1.06525e+07
1.06504e+07
1.06482e+07
1.06461e+07
1.06439e+07
1.06417e+07
1.06395e+07
1.06373e+07
1.0635e+07
1.06328e+07
1.06305e+07
1.06282e+07
1.06258e+07
1.06235e+07
1.06211e+07
1.06188e+07
1.06164e+07
1.0614e+07
1.06115e+07
1.06091e+07
1.06066e+07
1.06041e+07
1.06016e+07
1.05991e+07
1.05965e+07
1.05939e+07
1.05913e+07
1.05887e+07
1.05861e+07
1.05834e+07
1.05807e+07
1.05781e+07
1.05753e+07
1.05726e+07
1.05698e+07
1.0567e+07
1.05642e+07
1.05614e+07
1.05586e+07
1.05557e+07
1.05528e+07
1.05499e+07
1.05469e+07
1.0544e+07
1.0541e+07
1.0538e+07
1.05349e+07
1.05319e+07
1.05288e+07
1.05257e+07
1.05226e+07
1.05194e+07
1.05162e+07
1.0513e+07
1.05098e+07
1.05066e+07
1.05033e+07
1.05e+07
1.04966e+07
1.04933e+07
1.04899e+07
1.04865e+07
1.04831e+07
1.04796e+07
1.04761e+07
1.04726e+07
1.04691e+07
1.04655e+07
1.04619e+07
1.04583e+07
1.04546e+07
1.04509e+07
1.04472e+07
1.04435e+07
1.04397e+07
1.04359e+07
1.04321e+07
1.04282e+07
1.04243e+07
1.04204e+07
1.04165e+07
1.04125e+07
1.04085e+07
1.04044e+07
1.04004e+07
1.03963e+07
1.03921e+07
1.0388e+07
1.03838e+07
1.03795e+07
1.03753e+07
1.0371e+07
1.03666e+07
1.03623e+07
1.03579e+07
1.03534e+07
1.0349e+07
1.03445e+07
1.03399e+07
1.03353e+07
1.03307e+07
1.03261e+07
1.03214e+07
1.03167e+07
1.0312e+07
1.03072e+07
1.03024e+07
1.02975e+07
1.02926e+07
1.02877e+07
1.02827e+07
1.02778e+07
1.02728e+07
1.02677e+07
1.02627e+07
1.02576e+07
1.07411e+07
1.07411e+07
1.0741e+07
1.07409e+07
1.07405e+07
1.07403e+07
1.07399e+07
1.07394e+07
1.07388e+07
1.07382e+07
1.07376e+07
1.0737e+07
1.07362e+07
1.07354e+07
1.07345e+07
1.07336e+07
1.07326e+07
1.07316e+07
1.07306e+07
1.07294e+07
1.07282e+07
1.0727e+07
1.07258e+07
1.07244e+07
1.07231e+07
1.07217e+07
1.07203e+07
1.07189e+07
1.07174e+07
1.0716e+07
1.07145e+07
1.07129e+07
1.07114e+07
1.07098e+07
1.07082e+07
1.07066e+07
1.0705e+07
1.07034e+07
1.07017e+07
1.07e+07
1.06983e+07
1.06966e+07
1.06949e+07
1.06931e+07
1.06914e+07
1.06896e+07
1.06878e+07
1.0686e+07
1.06841e+07
1.06823e+07
1.06804e+07
1.06785e+07
1.06766e+07
1.06747e+07
1.06728e+07
1.06708e+07
1.06689e+07
1.06669e+07
1.06649e+07
1.06629e+07
1.06608e+07
1.06588e+07
1.06567e+07
1.06546e+07
1.06525e+07
1.06504e+07
1.06482e+07
1.06461e+07
1.06439e+07
1.06417e+07
1.06395e+07
1.06373e+07
1.0635e+07
1.06328e+07
1.06305e+07
1.06282e+07
1.06258e+07
1.06235e+07
1.06211e+07
1.06188e+07
1.06164e+07
1.0614e+07
1.06115e+07
1.06091e+07
1.06066e+07
1.06041e+07
1.06016e+07
1.05991e+07
1.05965e+07
1.05939e+07
1.05913e+07
1.05887e+07
1.05861e+07
1.05834e+07
1.05807e+07
1.0578e+07
1.05753e+07
1.05726e+07
1.05698e+07
1.0567e+07
1.05642e+07
1.05614e+07
1.05586e+07
1.05557e+07
1.05528e+07
1.05499e+07
1.05469e+07
1.0544e+07
1.0541e+07
1.0538e+07
1.05349e+07
1.05319e+07
1.05288e+07
1.05257e+07
1.05226e+07
1.05194e+07
1.05162e+07
1.0513e+07
1.05098e+07
1.05066e+07
1.05033e+07
1.05e+07
1.04966e+07
1.04933e+07
1.04899e+07
1.04865e+07
1.04831e+07
1.04796e+07
1.04761e+07
1.04726e+07
1.04691e+07
1.04655e+07
1.04619e+07
1.04583e+07
1.04546e+07
1.04509e+07
1.04472e+07
1.04435e+07
1.04397e+07
1.04359e+07
1.04321e+07
1.04282e+07
1.04243e+07
1.04204e+07
1.04165e+07
1.04125e+07
1.04085e+07
1.04044e+07
1.04004e+07
1.03963e+07
1.03921e+07
1.0388e+07
1.03838e+07
1.03795e+07
1.03753e+07
1.0371e+07
1.03666e+07
1.03623e+07
1.03579e+07
1.03534e+07
1.0349e+07
1.03445e+07
1.03399e+07
1.03353e+07
1.03307e+07
1.03261e+07
1.03214e+07
1.03167e+07
1.0312e+07
1.03072e+07
1.03023e+07
1.02975e+07
1.02926e+07
1.02877e+07
1.02827e+07
1.02777e+07
1.02727e+07
1.02677e+07
1.02626e+07
1.02575e+07
1.07608e+07
1.0759e+07
1.07557e+07
1.07505e+07
1.07487e+07
1.07442e+07
1.0742e+07
1.07409e+07
1.074e+07
1.07394e+07
1.0739e+07
1.07384e+07
1.07376e+07
1.07366e+07
1.07357e+07
1.07347e+07
1.07337e+07
1.07327e+07
1.07315e+07
1.07303e+07
1.07291e+07
1.07278e+07
1.07265e+07
1.07251e+07
1.07237e+07
1.07223e+07
1.07208e+07
1.07193e+07
1.07178e+07
1.07163e+07
1.07148e+07
1.07132e+07
1.07116e+07
1.071e+07
1.07084e+07
1.07068e+07
1.07052e+07
1.07035e+07
1.07018e+07
1.07001e+07
1.06984e+07
1.06967e+07
1.0695e+07
1.06932e+07
1.06914e+07
1.06897e+07
1.06879e+07
1.0686e+07
1.06842e+07
1.06823e+07
1.06805e+07
1.06786e+07
1.06767e+07
1.06748e+07
1.06728e+07
1.06709e+07
1.06689e+07
1.06669e+07
1.06649e+07
1.06629e+07
1.06608e+07
1.06588e+07
1.06567e+07
1.06546e+07
1.06525e+07
1.06504e+07
1.06483e+07
1.06461e+07
1.06439e+07
1.06417e+07
1.06395e+07
1.06373e+07
1.0635e+07
1.06328e+07
1.06305e+07
1.06282e+07
1.06259e+07
1.06235e+07
1.06212e+07
1.06188e+07
1.06164e+07
1.0614e+07
1.06115e+07
1.06091e+07
1.06066e+07
1.06041e+07
1.06016e+07
1.05991e+07
1.05965e+07
1.05939e+07
1.05913e+07
1.05887e+07
1.05861e+07
1.05834e+07
1.05807e+07
1.0578e+07
1.05753e+07
1.05726e+07
1.05698e+07
1.0567e+07
1.05642e+07
1.05614e+07
1.05586e+07
1.05557e+07
1.05528e+07
1.05499e+07
1.05469e+07
1.0544e+07
1.0541e+07
1.0538e+07
1.05349e+07
1.05319e+07
1.05288e+07
1.05257e+07
1.05226e+07
1.05194e+07
1.05162e+07
1.0513e+07
1.05098e+07
1.05066e+07
1.05033e+07
1.05e+07
1.04966e+07
1.04933e+07
1.04899e+07
1.04865e+07
1.04831e+07
1.04796e+07
1.04761e+07
1.04726e+07
1.04691e+07
1.04655e+07
1.04619e+07
1.04583e+07
1.04546e+07
1.04509e+07
1.04472e+07
1.04435e+07
1.04397e+07
1.04359e+07
1.04321e+07
1.04282e+07
1.04243e+07
1.04204e+07
1.04165e+07
1.04125e+07
1.04085e+07
1.04044e+07
1.04004e+07
1.03963e+07
1.03921e+07
1.0388e+07
1.03838e+07
1.03795e+07
1.03753e+07
1.0371e+07
1.03666e+07
1.03623e+07
1.03579e+07
1.03534e+07
1.0349e+07
1.03445e+07
1.03399e+07
1.03353e+07
1.03307e+07
1.03261e+07
1.03214e+07
1.03167e+07
1.03119e+07
1.03072e+07
1.03023e+07
1.02975e+07
1.02926e+07
1.02877e+07
1.02827e+07
1.02777e+07
1.02727e+07
1.02676e+07
1.02625e+07
1.02574e+07
1.08553e+07
1.08539e+07
1.08515e+07
1.08484e+07
1.08451e+07
1.08413e+07
1.08379e+07
1.08412e+07
1.08277e+07
1.07955e+07
1.07505e+07
1.07422e+07
1.07394e+07
1.07379e+07
1.07367e+07
1.07358e+07
1.0735e+07
1.0734e+07
1.07327e+07
1.07314e+07
1.073e+07
1.07287e+07
1.07272e+07
1.07258e+07
1.07243e+07
1.07228e+07
1.07213e+07
1.07198e+07
1.07182e+07
1.07167e+07
1.07151e+07
1.07135e+07
1.07119e+07
1.07103e+07
1.07087e+07
1.0707e+07
1.07054e+07
1.07037e+07
1.0702e+07
1.07003e+07
1.06986e+07
1.06968e+07
1.06951e+07
1.06933e+07
1.06915e+07
1.06897e+07
1.06879e+07
1.06861e+07
1.06843e+07
1.06824e+07
1.06805e+07
1.06786e+07
1.06767e+07
1.06748e+07
1.06729e+07
1.06709e+07
1.06689e+07
1.06669e+07
1.06649e+07
1.06629e+07
1.06609e+07
1.06588e+07
1.06567e+07
1.06546e+07
1.06525e+07
1.06504e+07
1.06483e+07
1.06461e+07
1.06439e+07
1.06417e+07
1.06395e+07
1.06373e+07
1.0635e+07
1.06328e+07
1.06305e+07
1.06282e+07
1.06259e+07
1.06235e+07
1.06212e+07
1.06188e+07
1.06164e+07
1.0614e+07
1.06115e+07
1.06091e+07
1.06066e+07
1.06041e+07
1.06016e+07
1.05991e+07
1.05965e+07
1.05939e+07
1.05913e+07
1.05887e+07
1.05861e+07
1.05834e+07
1.05807e+07
1.0578e+07
1.05753e+07
1.05726e+07
1.05698e+07
1.0567e+07
1.05642e+07
1.05614e+07
1.05586e+07
1.05557e+07
1.05528e+07
1.05499e+07
1.05469e+07
1.0544e+07
1.0541e+07
1.0538e+07
1.05349e+07
1.05319e+07
1.05288e+07
1.05257e+07
1.05226e+07
1.05194e+07
1.05162e+07
1.0513e+07
1.05098e+07
1.05066e+07
1.05033e+07
1.05e+07
1.04966e+07
1.04933e+07
1.04899e+07
1.04865e+07
1.04831e+07
1.04796e+07
1.04761e+07
1.04726e+07
1.04691e+07
1.04655e+07
1.04619e+07
1.04583e+07
1.04546e+07
1.04509e+07
1.04472e+07
1.04435e+07
1.04397e+07
1.04359e+07
1.04321e+07
1.04282e+07
1.04243e+07
1.04204e+07
1.04165e+07
1.04125e+07
1.04085e+07
1.04044e+07
1.04004e+07
1.03963e+07
1.03921e+07
1.0388e+07
1.03838e+07
1.03795e+07
1.03753e+07
1.0371e+07
1.03666e+07
1.03623e+07
1.03579e+07
1.03534e+07
1.0349e+07
1.03444e+07
1.03399e+07
1.03353e+07
1.03307e+07
1.03261e+07
1.03214e+07
1.03167e+07
1.03119e+07
1.03072e+07
1.03023e+07
1.02975e+07
1.02926e+07
1.02876e+07
1.02827e+07
1.02777e+07
1.02727e+07
1.02676e+07
1.02625e+07
1.02573e+07
1.09462e+07
1.09448e+07
1.09424e+07
1.0939e+07
1.09347e+07
1.09294e+07
1.0923e+07
1.09152e+07
1.09039e+07
1.08893e+07
1.08755e+07
1.08704e+07
1.08771e+07
1.08676e+07
1.08427e+07
1.0799e+07
1.07418e+07
1.07364e+07
1.07342e+07
1.07325e+07
1.07311e+07
1.07296e+07
1.07281e+07
1.07265e+07
1.0725e+07
1.07234e+07
1.07218e+07
1.07202e+07
1.07186e+07
1.0717e+07
1.07154e+07
1.07138e+07
1.07122e+07
1.07105e+07
1.07089e+07
1.07072e+07
1.07055e+07
1.07038e+07
1.07021e+07
1.07004e+07
1.06987e+07
1.06969e+07
1.06952e+07
1.06934e+07
1.06916e+07
1.06898e+07
1.0688e+07
1.06862e+07
1.06843e+07
1.06824e+07
1.06806e+07
1.06787e+07
1.06768e+07
1.06748e+07
1.06729e+07
1.06709e+07
1.0669e+07
1.0667e+07
1.0665e+07
1.06629e+07
1.06609e+07
1.06588e+07
1.06567e+07
1.06547e+07
1.06525e+07
1.06504e+07
1.06483e+07
1.06461e+07
1.06439e+07
1.06417e+07
1.06395e+07
1.06373e+07
1.0635e+07
1.06328e+07
1.06305e+07
1.06282e+07
1.06259e+07
1.06235e+07
1.06212e+07
1.06188e+07
1.06164e+07
1.0614e+07
1.06115e+07
1.06091e+07
1.06066e+07
1.06041e+07
1.06016e+07
1.05991e+07
1.05965e+07
1.05939e+07
1.05913e+07
1.05887e+07
1.05861e+07
1.05834e+07
1.05807e+07
1.0578e+07
1.05753e+07
1.05726e+07
1.05698e+07
1.0567e+07
1.05642e+07
1.05614e+07
1.05586e+07
1.05557e+07
1.05528e+07
1.05499e+07
1.05469e+07
1.0544e+07
1.0541e+07
1.0538e+07
1.05349e+07
1.05319e+07
1.05288e+07
1.05257e+07
1.05226e+07
1.05194e+07
1.05162e+07
1.0513e+07
1.05098e+07
1.05065e+07
1.05033e+07
1.05e+07
1.04966e+07
1.04933e+07
1.04899e+07
1.04865e+07
1.04831e+07
1.04796e+07
1.04761e+07
1.04726e+07
1.04691e+07
1.04655e+07
1.04619e+07
1.04583e+07
1.04546e+07
1.04509e+07
1.04472e+07
1.04435e+07
1.04397e+07
1.04359e+07
1.04321e+07
1.04282e+07
1.04243e+07
1.04204e+07
1.04165e+07
1.04125e+07
1.04085e+07
1.04044e+07
1.04004e+07
1.03963e+07
1.03921e+07
1.0388e+07
1.03837e+07
1.03795e+07
1.03753e+07
1.0371e+07
1.03666e+07
1.03623e+07
1.03579e+07
1.03534e+07
1.03489e+07
1.03444e+07
1.03399e+07
1.03353e+07
1.03307e+07
1.03261e+07
1.03214e+07
1.03167e+07
1.03119e+07
1.03071e+07
1.03023e+07
1.02975e+07
1.02926e+07
1.02876e+07
1.02827e+07
1.02777e+07
1.02726e+07
1.02675e+07
1.02624e+07
1.02573e+07
1.10376e+07
1.10361e+07
1.10334e+07
1.10295e+07
1.10245e+07
1.10182e+07
1.10105e+07
1.10014e+07
1.09907e+07
1.09789e+07
1.09667e+07
1.09551e+07
1.09433e+07
1.09276e+07
1.09067e+07
1.08814e+07
1.08556e+07
1.08373e+07
1.08296e+07
1.08023e+07
1.07515e+07
1.07315e+07
1.07289e+07
1.07273e+07
1.07257e+07
1.0724e+07
1.07223e+07
1.07207e+07
1.0719e+07
1.07174e+07
1.07158e+07
1.07141e+07
1.07124e+07
1.07108e+07
1.07091e+07
1.07074e+07
1.07057e+07
1.0704e+07
1.07023e+07
1.07006e+07
1.06988e+07
1.06971e+07
1.06953e+07
1.06935e+07
1.06917e+07
1.06899e+07
1.06881e+07
1.06862e+07
1.06844e+07
1.06825e+07
1.06806e+07
1.06787e+07
1.06768e+07
1.06749e+07
1.06729e+07
1.0671e+07
1.0669e+07
1.0667e+07
1.0665e+07
1.06629e+07
1.06609e+07
1.06588e+07
1.06568e+07
1.06547e+07
1.06526e+07
1.06504e+07
1.06483e+07
1.06461e+07
1.06439e+07
1.06418e+07
1.06395e+07
1.06373e+07
1.06351e+07
1.06328e+07
1.06305e+07
1.06282e+07
1.06259e+07
1.06235e+07
1.06212e+07
1.06188e+07
1.06164e+07
1.0614e+07
1.06115e+07
1.06091e+07
1.06066e+07
1.06041e+07
1.06016e+07
1.05991e+07
1.05965e+07
1.05939e+07
1.05913e+07
1.05887e+07
1.05861e+07
1.05834e+07
1.05807e+07
1.0578e+07
1.05753e+07
1.05726e+07
1.05698e+07
1.0567e+07
1.05642e+07
1.05614e+07
1.05586e+07
1.05557e+07
1.05528e+07
1.05499e+07
1.05469e+07
1.0544e+07
1.0541e+07
1.0538e+07
1.05349e+07
1.05319e+07
1.05288e+07
1.05257e+07
1.05226e+07
1.05194e+07
1.05162e+07
1.0513e+07
1.05098e+07
1.05065e+07
1.05033e+07
1.05e+07
1.04966e+07
1.04933e+07
1.04899e+07
1.04865e+07