/*--------------------------------*- C++ -*----------------------------------*\
  =========                 |
  \\      /  F ield         | OpenFOAM: The Open Source CFD Toolbox
   \\    /   O peration     | Website:  https://openfoam.org
    \\  /    A nd           | Version:  10
     \\/     M anipulation  |
\*---------------------------------------------------------------------------*/
FoamFile
{
    format      ascii;
    class       surfaceScalarField;
    location    "1.25";
    object      phi;
}
// * * * * * * * * * * * * * * * * * * * * * * * * * * * * * * * * * * * * * //

dimensions      [0 3 -1 0 0 0 0];

internalField   nonuniform List<scalar> 
24170
(
1.4246e-09
-1.4246e-09
2.64502e-09
-1.22041e-09
3.61288e-09
-9.67864e-10
4.34679e-09
-7.33906e-10
4.89431e-09
-5.47518e-10
5.30679e-09
-4.12481e-10
5.62852e-09
-3.21737e-10
5.89447e-09
-2.65944e-10
6.13166e-09
-2.37188e-10
6.36184e-09
-2.30187e-10
6.60445e-09
-2.42602e-10
6.87991e-09
-2.75462e-10
7.21447e-09
-3.3456e-10
7.64901e-09
-4.34544e-10
8.26025e-09
-6.11244e-10
9.22586e-09
-9.65601e-10
1.10961e-08
-1.87027e-09
-5.3333e-09
1.64294e-08
1.62435e-09
-3.04895e-09
3.00959e-09
-2.60566e-09
4.1011e-09
-2.05938e-09
4.92267e-09
-1.55547e-09
5.53084e-09
-1.15569e-09
5.98554e-09
-8.67182e-10
6.33782e-09
-6.74014e-10
6.62754e-09
-5.55667e-10
6.88527e-09
-4.94913e-10
7.13533e-09
-4.80249e-10
7.39919e-09
-5.0646e-10
7.69909e-09
-5.75362e-10
8.06297e-09
-6.98447e-10
8.53297e-09
-9.04543e-10
9.18339e-09
-1.26166e-09
1.01634e-08
-1.94561e-09
1.17777e-08
-3.48453e-09
-7.65777e-09
1.41021e-08
1.82187e-09
-4.87082e-09
3.36614e-09
-4.14993e-09
4.57271e-09
-3.26596e-09
5.47259e-09
-2.45535e-09
6.13275e-09
-1.81585e-09
6.62222e-09
-1.35665e-09
6.99874e-09
-1.05054e-09
7.30677e-09
-8.63701e-10
7.57993e-09
-7.68072e-10
7.84459e-09
-7.44901e-10
8.12351e-09
-7.85381e-10
8.43959e-09
-8.91444e-10
8.82026e-09
-1.07912e-09
9.30388e-09
-1.38816e-09
9.9494e-09
-1.90718e-09
1.08436e-08
-2.83977e-09
1.2031e-08
-4.67195e-09
-8.45176e-09
1.2825e-08
2.04123e-09
-6.91205e-09
3.7569e-09
-5.86559e-09
5.08194e-09
-4.59099e-09
6.05822e-09
-3.43163e-09
6.76627e-09
-2.5239e-09
7.28596e-09
-1.87634e-09
7.68243e-09
-1.44701e-09
8.00484e-09
-1.18611e-09
8.28965e-09
-1.05288e-09
8.56483e-09
-1.02008e-09
8.85381e-09
-1.07436e-09
9.17895e-09
-1.21659e-09
9.56501e-09
-1.46518e-09
1.00422e-08
-1.86531e-09
1.06457e-08
-2.51076e-09
1.13946e-08
-3.58868e-09
1.21683e-08
-5.44558e-09
-8.51992e-09
1.22364e-08
2.29627e-09
-9.20832e-09
4.20395e-09
-7.77328e-09
5.65412e-09
-6.04116e-09
6.7053e-09
-4.4828e-09
7.45629e-09
-3.2749e-09
8.00045e-09
-2.42049e-09
8.41137e-09
-1.85793e-09
8.7431e-09
-1.51784e-09
9.03472e-09
-1.3445e-09
9.31534e-09
-1.30071e-09
9.60825e-09
-1.36726e-09
9.93408e-09
-1.54243e-09
1.03129e-08
-1.84396e-09
1.07636e-08
-2.316e-09
1.12956e-08
-3.04278e-09
1.18739e-08
-4.16704e-09
1.23109e-08
-5.88251e-09
-8.26315e-09
1.20541e-08
2.60219e-09
-1.18105e-08
4.72995e-09
-9.90104e-09
6.31306e-09
-7.62428e-09
7.43574e-09
-5.60548e-09
8.22201e-09
-4.06116e-09
8.78223e-09
-2.98072e-09
9.19982e-09
-2.27552e-09
9.53391e-09
-1.85193e-09
9.82586e-09
-1.63646e-09
1.01053e-08
-1.58014e-09
1.03945e-08
-1.65646e-09
1.07112e-08
-1.85912e-09
1.10692e-08
-2.20196e-09
1.14751e-08
-2.72187e-09
1.19154e-08
-3.48317e-09
1.23232e-08
-4.57475e-09
1.25096e-08
-6.06893e-09
-7.87134e-09
1.21178e-08
2.97944e-09
-1.47899e-08
5.36365e-09
-1.22852e-08
7.087e-09
-9.34762e-09
8.27374e-09
-6.79222e-09
9.08303e-09
-4.87046e-09
9.64696e-09
-3.54464e-09
1.00602e-08
-2.68881e-09
1.03872e-08
-2.17886e-09
1.06709e-08
-1.92014e-09
1.09406e-08
-1.84991e-09
1.12169e-08
-1.93271e-09
1.15134e-08
-2.15566e-09
1.18371e-08
-2.52562e-09
1.21829e-08
-3.06766e-09
1.25212e-08
-3.82152e-09
1.27734e-08
-4.82689e-09
1.27826e-08
-6.07819e-09
-7.43037e-09
1.23417e-08
3.45783e-09
-1.82478e-08
6.14472e-09
-1.49721e-08
8.01254e-09
-1.12154e-08
9.24873e-09
-8.02841e-09
1.00618e-08
-5.68351e-09
1.06114e-08
-4.09426e-09
1.10051e-08
-3.08256e-09
1.13122e-08
-2.48588e-09
1.15765e-08
-2.18443e-09
1.18261e-08
-2.09953e-09
1.20786e-08
-2.18521e-09
1.23432e-08
-2.42026e-09
1.26198e-08
-2.80226e-09
1.28943e-08
-3.34215e-09
1.31284e-08
-4.05565e-09
1.32468e-08
-4.94523e-09
1.31339e-08
-5.96532e-09
-6.97697e-09
1.26805e-08
4.08309e-09
-2.23309e-08
7.13024e-09
-1.80193e-08
9.13896e-09
-1.32242e-08
1.03978e-08
-9.28728e-09
1.11849e-08
-6.47053e-09
1.16943e-08
-4.60374e-09
1.20477e-08
-3.43597e-09
1.23181e-08
-2.75627e-09
1.2549e-08
-2.41529e-09
1.27659e-08
-2.31642e-09
1.29825e-08
-2.40187e-09
1.32032e-08
-2.64091e-09
1.34217e-08
-3.02078e-09
1.36178e-08
-3.53827e-09
1.37514e-08
-4.18921e-09
1.37586e-08
-4.95245e-09
1.3562e-08
-5.76868e-09
-6.52541e-09
1.31104e-08
4.92856e-09
-2.72594e-08
8.40489e-09
-2.14956e-08
1.05339e-08
-1.53531e-08
1.17684e-08
-1.05218e-08
1.24839e-08
-7.18608e-09
1.29168e-08
-5.03661e-09
1.3202e-08
-3.72121e-09
1.34144e-08
-2.96862e-09
1.35946e-08
-2.59554e-09
1.37641e-08
-2.48592e-09
1.39318e-08
-2.56956e-09
1.40969e-08
-2.80592e-09
1.42482e-08
-3.17208e-09
1.43625e-08
-3.65263e-09
1.44025e-08
-4.22924e-09
1.4319e-08
-4.86893e-09
1.4064e-08
-5.51364e-09
-6.07997e-09
1.36185e-08
6.11759e-09
-3.3377e-08
1.00977e-08
-2.54757e-08
1.22907e-08
-1.75461e-08
1.34202e-08
-1.16513e-08
1.39959e-08
-7.76181e-09
1.43015e-08
-5.34226e-09
1.44822e-08
-3.90189e-09
1.46098e-08
-3.09625e-09
1.4719e-08
-2.70474e-09
1.48247e-08
-2.59155e-09
1.49297e-08
-2.67461e-09
1.50281e-08
-2.90435e-09
1.51053e-08
-3.24921e-09
1.51373e-08
-3.68469e-09
1.50923e-08
-4.18417e-09
1.49347e-08
-4.71133e-09
1.46374e-08
-5.21635e-09
-5.64058e-09
1.4198e-08
6.5298e-09
-3.99068e-08
1.03302e-08
-2.92761e-08
1.21348e-08
-1.93508e-08
1.29027e-08
-1.24192e-08
1.32023e-08
-8.06136e-09
1.33083e-08
-5.44827e-09
1.33435e-08
-3.93711e-09
1.33602e-08
-3.11295e-09
1.33787e-08
-2.72325e-09
1.34041e-08
-2.61698e-09
1.34332e-08
-2.7037e-09
1.34568e-08
-2.92789e-09
1.34602e-08
-3.25264e-09
1.34241e-08
-3.64862e-09
1.33261e-08
-4.08612e-09
1.31448e-08
-4.5301e-09
1.28678e-08
-4.93935e-09
-5.27163e-09
1.24989e-08
9.70625e-09
-4.96131e-08
1.45269e-08
-3.40968e-08
1.63401e-08
-2.11639e-08
1.6844e-08
-1.29231e-08
1.68688e-08
-8.08615e-09
1.67523e-08
-5.33179e-09
1.6619e-08
-3.80372e-09
1.65084e-08
-3.00242e-09
1.64279e-08
-2.64277e-09
1.63718e-08
-2.56087e-09
1.63284e-08
-2.66029e-09
1.62822e-08
-2.88165e-09
1.62144e-08
-3.18491e-09
1.61043e-08
-3.53849e-09
1.5931e-08
-3.91276e-09
1.56778e-08
-4.27692e-09
1.53379e-08
-4.59951e-09
-4.8523e-09
1.49186e-08
1.56722e-08
-6.52852e-08
2.14469e-08
-3.98716e-08
2.26299e-08
-2.23469e-08
2.23492e-08
-1.26424e-08
2.17567e-08
-7.49367e-09
2.11997e-08
-4.77478e-09
2.07554e-08
-3.35937e-09
2.042e-08
-2.66702e-09
2.01694e-08
-2.39223e-09
1.99767e-08
-2.36815e-09
1.98158e-08
-2.4994e-09
1.9662e-08
-2.72779e-09
1.94913e-08
-3.01424e-09
1.92815e-08
-3.32873e-09
1.90139e-08
-3.6451e-09
1.86761e-08
-3.93911e-09
1.82655e-08
-4.18896e-09
-4.37756e-09
1.77908e-08
2.86691e-08
-9.39543e-08
3.37194e-08
-4.49218e-08
3.23368e-08
-2.09643e-08
3.01161e-08
-1.04217e-08
2.82727e-08
-5.65028e-09
2.69175e-08
-3.41954e-09
2.59468e-08
-2.3887e-09
2.52469e-08
-1.96712e-09
2.47289e-08
-1.87421e-09
2.43271e-08
-1.96637e-09
2.39922e-08
-2.16453e-09
2.36857e-08
-2.42126e-09
2.33765e-08
-2.70507e-09
2.30402e-08
-2.9924e-09
2.26591e-08
-3.26405e-09
2.22239e-08
-3.50385e-09
2.17339e-08
-3.69901e-09
-3.84096e-09
2.11973e-08
6.32652e-08
-1.5722e-07
5.67892e-08
-3.84459e-08
4.72533e-08
-1.14284e-08
4.07899e-08
-3.95836e-09
3.67026e-08
-1.56294e-09
3.40705e-08
-7.87448e-10
3.2313e-08
-6.31217e-10
3.10902e-08
-7.44313e-10
3.01988e-08
-9.82856e-10
2.95116e-08
-1.27917e-09
2.89447e-08
-1.59761e-09
2.84403e-08
-1.91681e-09
2.79575e-08
-2.22234e-09
2.74683e-08
-2.50318e-09
2.69547e-08
-2.75048e-09
2.64082e-08
-2.95735e-09
2.58284e-08
-3.11915e-09
-3.23388e-09
2.52213e-08
1.83376e-07
1.59155e-07
9.7287e-08
4.76431e-08
6.70522e-08
1.88064e-08
5.36837e-08
9.41015e-09
4.66574e-08
5.46334e-09
4.24974e-08
3.37252e-09
3.98184e-08
2.04783e-09
3.79756e-08
1.09845e-09
3.66314e-08
3.61359e-10
3.55894e-08
-2.37174e-10
3.47283e-08
-7.36514e-10
3.39734e-08
-1.16195e-09
3.32756e-08
-1.52448e-09
3.26026e-08
-1.83018e-09
3.19349e-08
-2.08278e-09
3.12626e-08
-2.28501e-09
3.0583e-08
-2.43955e-09
-2.5496e-09
2.98987e-08
7.72654e-08
8.18893e-08
7.55344e-08
4.93741e-08
6.5561e-08
2.87798e-08
5.76045e-08
1.73666e-08
5.21331e-08
1.09348e-08
4.84087e-08
7.09693e-09
4.58064e-08
4.65005e-09
4.39157e-08
2.98923e-09
4.24773e-08
1.79976e-09
4.13295e-08
9.10617e-10
4.03688e-08
2.24201e-10
3.95179e-08
-3.11073e-10
3.87288e-08
-7.35423e-10
3.79741e-08
-1.07547e-09
3.72373e-08
-1.34598e-09
3.65099e-08
-1.55764e-09
3.57892e-08
-1.71877e-09
-1.83628e-09
3.50758e-08
3.59891e-08
4.59002e-08
5.01863e-08
3.51769e-08
5.38981e-08
2.50681e-08
5.37542e-08
1.75105e-08
5.24651e-08
1.22239e-08
5.0998e-08
8.56406e-09
4.96488e-08
5.99924e-09
4.84743e-08
4.16368e-09
4.74548e-08
2.81932e-09
4.65523e-08
1.8131e-09
4.57305e-08
1.04596e-09
4.49666e-08
4.52905e-10
4.4241e-08
-9.85853e-12
4.35324e-08
-3.66838e-10
4.2833e-08
-6.46662e-10
4.21396e-08
-8.6424e-10
4.14518e-08
-1.03094e-09
-1.15572e-09
4.07713e-08
1.43405e-08
3.15596e-08
2.33316e-08
2.61859e-08
2.81425e-08
2.02571e-08
3.0498e-08
1.5155e-08
3.1553e-08
1.11689e-08
3.19461e-08
8.171e-09
3.20047e-08
5.94056e-09
3.18914e-08
4.27702e-09
3.16852e-08
3.02553e-09
3.14245e-08
2.07382e-09
3.11281e-08
1.34238e-09
3.08057e-08
7.75246e-10
3.04631e-08
3.32758e-10
3.01095e-08
-1.32773e-11
2.97428e-08
-2.7989e-10
2.93664e-08
-4.87816e-10
2.89838e-08
-6.48338e-10
-7.7029e-10
2.85983e-08
8.58691e-09
2.29727e-08
1.49817e-08
1.97911e-08
1.92236e-08
1.60153e-08
2.18861e-08
1.24924e-08
2.35138e-08
9.54122e-09
2.44912e-08
7.19355e-09
2.50621e-08
5.36966e-09
2.53744e-08
3.96476e-09
2.55168e-08
2.88304e-09
2.55436e-08
2.0471e-09
2.54882e-08
1.39775e-09
2.53727e-08
8.90772e-10
2.5212e-08
4.9345e-10
2.50172e-08
1.81501e-10
2.47996e-08
-6.23071e-11
2.45626e-08
-2.50786e-10
2.43115e-08
-3.97295e-10
-5.09845e-10
2.40511e-08
5.79005e-09
1.71827e-08
1.0475e-08
1.51061e-08
1.39371e-08
1.25532e-08
1.63752e-08
1.00543e-08
1.80516e-08
7.86478e-09
1.91897e-08
6.05551e-09
1.99532e-08
4.60611e-09
2.04554e-08
3.46263e-09
2.07723e-08
2.56605e-09
2.09557e-08
1.8638e-09
2.10405e-08
1.31292e-09
2.10515e-08
8.79761e-10
2.10065e-08
5.38485e-10
2.09186e-08
2.69383e-10
2.07988e-08
5.74221e-11
2.06555e-08
-1.07459e-10
2.04939e-08
-2.35662e-10
-3.34931e-10
2.0319e-08
4.20934e-09
1.29733e-08
7.77222e-09
1.15433e-08
1.05726e-08
9.75279e-09
1.2679e-08
7.94789e-09
1.42245e-08
6.31927e-09
1.53419e-08
4.93813e-09
1.61405e-08
3.8075e-09
1.67033e-08
2.89982e-09
1.70911e-08
2.17832e-09
1.73477e-08
1.60718e-09
1.75051e-08
1.15552e-09
1.75867e-08
7.98156e-10
1.761e-08
5.15197e-10
1.75882e-08
2.91131e-10
1.75317e-08
1.13907e-10
1.74498e-08
-2.54689e-11
1.73476e-08
-1.33476e-10
-2.17668e-10
1.72303e-08
3.21571e-09
9.75763e-09
6.01087e-09
8.74811e-09
8.29228e-09
7.47137e-09
1.00801e-08
6.16011e-09
1.14458e-08
4.95358e-09
1.24719e-08
3.912e-09
1.32331e-08
3.04626e-09
1.37905e-08
2.34244e-09
1.41915e-08
1.77727e-09
1.44725e-08
1.32626e-09
1.46607e-08
9.67286e-10
1.47771e-08
6.81797e-10
1.48375e-08
4.54784e-10
1.48542e-08
2.74348e-10
1.4837e-08
1.31134e-10
1.47937e-08
1.78047e-11
1.47307e-08
-7.04215e-11
-1.39316e-10
1.46523e-08
2.54028e-09
7.21736e-09
4.78527e-09
6.50311e-09
6.66227e-09
5.59437e-09
8.17273e-09
4.64966e-09
9.35741e-09
3.7689e-09
1.02702e-08
2.9992e-09
1.09639e-08
2.35254e-09
1.14843e-08
1.82205e-09
1.18687e-08
1.39286e-09
1.21467e-08
1.04826e-09
1.23414e-08
7.72613e-10
1.24707e-08
5.52473e-10
1.25487e-08
3.76798e-10
1.25864e-08
2.36716e-10
1.25923e-08
1.25182e-10
1.25735e-08
3.66143e-11
1.25359e-08
-3.28722e-11
-8.70374e-11
1.24837e-08
2.0528e-09
5.16456e-09
3.88656e-09
4.66936e-09
5.44408e-09
4.03684e-09
6.71974e-09
3.374e-09
7.73812e-09
2.75053e-09
8.53628e-09
2.20104e-09
9.1529e-09
1.73591e-09
9.6231e-09
1.35185e-09
9.97654e-09
1.03942e-09
1.02374e-08
7.87402e-10
1.0425e-08
5.85015e-10
1.05546e-08
4.22839e-10
1.06384e-08
2.93031e-10
1.06859e-08
1.89235e-10
1.07047e-08
1.06365e-10
1.07009e-08
4.03704e-11
1.06798e-08
-1.17605e-11
-5.22983e-11
1.06451e-08
1.68374e-09
3.48082e-09
3.19854e-09
3.15456e-09
4.49868e-09
2.7367e-09
5.57623e-09
2.29645e-09
6.44689e-09
1.87986e-09
7.13736e-09
1.51057e-09
7.67695e-09
1.19632e-09
8.09319e-09
9.35619e-10
8.40993e-09
7.22675e-10
8.64704e-09
5.50294e-10
8.82063e-09
4.11429e-10
8.94362e-09
2.99844e-10
9.02635e-09
2.10301e-10
9.07706e-09
1.38526e-10
9.10235e-09
8.10823e-11
9.10749e-09
3.52221e-11
9.09694e-09
-1.2117e-12
-2.94723e-11
9.07412e-09
1.39266e-09
2.08817e-09
2.65156e-09
1.89565e-09
3.73967e-09
1.64859e-09
4.64876e-09
1.38736e-09
5.38947e-09
1.13916e-09
5.98178e-09
9.18259e-10
6.44853e-09
7.29571e-10
6.81164e-09
5.72506e-10
7.0905e-09
4.43815e-10
7.30145e-09
3.39345e-10
7.45791e-09
2.54973e-10
7.57074e-09
1.87013e-10
7.64868e-09
1.32355e-10
7.69876e-09
8.84449e-11
7.72662e-09
5.32239e-11
7.7368e-09
2.50398e-11
7.73302e-09
2.57288e-12
-1.48619e-11
7.71841e-09
1.15298e-09
9.35193e-10
2.19862e-09
8.50006e-10
3.1067e-09
7.40511e-10
3.86961e-09
6.24446e-10
4.49491e-09
5.13865e-10
4.99799e-09
4.1517e-10
5.39693e-09
3.30639e-10
5.70934e-09
2.60093e-10
5.951e-09
2.02152e-10
6.13534e-09
1.55009e-10
6.27346e-09
1.16853e-10
6.37441e-09
8.60548e-11
6.44553e-09
6.12348e-11
6.49272e-09
4.12558e-11
6.52075e-09
2.51978e-11
6.53347e-09
1.23207e-11
6.53401e-09
2.02816e-12
-5.83913e-12
6.52499e-09
9.35193e-10
1.7852e-09
2.52571e-09
3.15015e-09
3.66402e-09
4.07919e-09
4.40983e-09
4.66992e-09
4.87207e-09
5.02708e-09
5.14394e-09
5.22999e-09
5.29123e-09
5.33248e-09
5.35768e-09
5.37e-09
5.37203e-09
5.36619e-09
4.0845e-10
-4.0845e-10
8.18772e-10
-4.10322e-10
1.22998e-09
-4.11204e-10
1.64101e-09
-4.11035e-10
2.05077e-09
-4.09759e-10
2.45811e-09
-4.0734e-10
2.86188e-09
-4.0377e-10
3.26096e-09
-3.99078e-10
3.65428e-09
-3.93325e-10
4.04087e-09
-3.86586e-10
4.4198e-09
-3.78933e-10
4.79022e-09
-3.70419e-10
5.15131e-09
-3.61088e-10
5.50229e-09
-3.5098e-10
5.84243e-09
-3.40137e-10
6.17104e-09
-3.28611e-10
6.48749e-09
-3.16451e-10
6.7912e-09
-3.03709e-10
7.08164e-09
-2.90438e-10
7.35834e-09
-2.76705e-10
7.62094e-09
-2.62594e-10
7.86914e-09
-2.48207e-10
8.10281e-09
-2.33664e-10
8.3219e-09
-2.19093e-10
8.52653e-09
-2.04629e-10
8.71693e-09
-1.90402e-10
8.89346e-09
-1.76531e-10
9.05658e-09
-1.63123e-10
9.20685e-09
-1.50263e-10
9.34487e-09
-1.3802e-10
9.47131e-09
-1.26444e-10
9.58687e-09
-1.15562e-10
9.69226e-09
-1.0539e-10
9.78819e-09
-9.59257e-11
9.87535e-09
-8.7157e-11
9.95441e-09
-7.9062e-11
1.0026e-08
-7.1612e-11
1.00908e-08
-6.47737e-11
1.01493e-08
-5.85102e-11
1.02021e-08
-5.27841e-11
1.02496e-08
-4.75568e-11
1.02924e-08
-4.27903e-11
1.03309e-08
-3.84481e-11
1.03654e-08
-3.44953e-11
1.03963e-08
-3.08981e-11
1.04239e-08
-2.76259e-11
1.04486e-08
-2.46496e-11
1.04705e-08
-2.19422e-11
1.049e-08
-1.94789e-11
1.05072e-08
-1.72373e-11
1.05224e-08
-1.51962e-11
1.05357e-08
-1.33369e-11
1.05474e-08
-1.16418e-11
1.05575e-08
-1.00956e-11
1.05662e-08
-8.68362e-12
1.05736e-08
-7.393e-12
1.05798e-08
-6.2123e-12
1.05849e-08
-5.13042e-12
1.0589e-08
-4.13816e-12
1.05923e-08
-3.22667e-12
1.05947e-08
-2.38811e-12
1.05963e-08
-1.61552e-12
1.05972e-08
-9.02536e-13
1.05974e-08
-2.43234e-13
1.0597e-08
3.67365e-13
1.05961e-08
9.34008e-13
1.05947e-08
1.46088e-12
1.05927e-08
1.95176e-12
1.05903e-08
2.40983e-12
1.05875e-08
2.83862e-12
1.05842e-08
3.24029e-12
1.05806e-08
3.61769e-12
1.05766e-08
3.97304e-12
1.05723e-08
4.30813e-12
1.05677e-08
4.62493e-12
1.05628e-08
4.92487e-12
1.05576e-08
5.20958e-12
1.05521e-08
5.48018e-12
1.05463e-08
5.73812e-12
1.05404e-08
5.98417e-12
1.05341e-08
6.21948e-12
1.05277e-08
6.44492e-12
1.0521e-08
6.66106e-12
1.05142e-08
6.86881e-12
1.05071e-08
7.0687e-12
1.04998e-08
7.26152e-12
1.04924e-08
7.4475e-12
1.04848e-08
7.62742e-12
1.0477e-08
7.80151e-12
1.0469e-08
7.9702e-12
1.04608e-08
8.13403e-12
1.04526e-08
8.29317e-12
1.04441e-08
8.44811e-12
1.04355e-08
8.59885e-12
1.04268e-08
8.74605e-12
1.04179e-08
8.88968e-12
1.04088e-08
9.02995e-12
1.03997e-08
9.16738e-12
1.03904e-08
9.30189e-12
1.03809e-08
9.43384e-12
1.03714e-08
9.56324e-12
1.03617e-08
9.69052e-12
1.03519e-08
9.81547e-12
1.03419e-08
9.93871e-12
1.03319e-08
1.00599e-11
1.03217e-08
1.01796e-11
1.03114e-08
1.02976e-11
1.0301e-08
1.04143e-11
1.02904e-08
1.05296e-11
1.02798e-08
1.06437e-11
1.0269e-08
1.07568e-11
1.02582e-08
1.08689e-11
1.02472e-08
1.098e-11
1.02361e-08
1.10903e-11
1.02249e-08
1.11999e-11
1.02136e-08
1.1309e-11
1.02022e-08
1.14173e-11
1.01907e-08
1.15254e-11
1.0179e-08
1.16328e-11
1.01673e-08
1.17401e-11
1.01554e-08
1.18469e-11
1.01435e-08
1.19537e-11
1.01314e-08
1.20602e-11
1.01193e-08
1.21668e-11
1.0107e-08
1.22733e-11
1.00946e-08
1.23796e-11
1.00821e-08
1.24863e-11
1.00695e-08
1.25929e-11
1.00568e-08
1.26998e-11
1.0044e-08
1.2807e-11
1.00311e-08
1.29142e-11
1.00181e-08
1.3022e-11
1.0005e-08
1.313e-11
9.99171e-09
1.32385e-11
9.97837e-09
1.33475e-11
9.96491e-09
1.34571e-11
9.95134e-09
1.3567e-11
9.93766e-09
1.36778e-11
9.92387e-09
1.37892e-11
9.90997e-09
1.39013e-11
9.89596e-09
1.40143e-11
9.88183e-09
1.41283e-11
9.86759e-09
1.42434e-11
9.85323e-09
1.43597e-11
9.83875e-09
1.44773e-11
9.82415e-09
1.45964e-11
9.80944e-09
1.47173e-11
9.7946e-09
1.48402e-11
9.77963e-09
1.49657e-11
9.76454e-09
1.50941e-11
9.74931e-09
1.52258e-11
9.73395e-09
1.53617e-11
9.71845e-09
1.55027e-11
9.7028e-09
1.56498e-11
9.68699e-09
1.58045e-11
9.67102e-09
1.59686e-11
9.65488e-09
1.61445e-11
9.63854e-09
1.63352e-11
9.622e-09
1.65444e-11
9.60522e-09
1.67771e-11
9.58818e-09
1.70397e-11
9.57084e-09
1.73406e-11
9.55315e-09
1.76906e-11
9.53505e-09
1.81039e-11
9.51645e-09
1.85995e-11
9.49725e-09
1.92025e-11
9.4773e-09
1.99466e-11
9.45642e-09
2.08778e-11
9.43436e-09
2.20596e-11
9.41078e-09
2.3581e-11
9.38521e-09
2.55703e-11
9.35699e-09
2.82166e-11
9.32518e-09
3.181e-11
9.28837e-09
3.68171e-11
9.24433e-09
4.40348e-11
9.18939e-09
5.49458e-11
9.11674e-09
7.26508e-11
9.01188e-09
1.04851e-10
8.83561e-09
1.76272e-10
4.00986e-10
8.43463e-09
4.12748e-10
-8.21198e-10
8.27438e-10
-8.25011e-10
1.24311e-09
-8.26872e-10
1.65867e-09
-8.26599e-10
2.07293e-09
-8.24018e-10
2.48461e-09
-8.19023e-10
2.89243e-09
-8.11587e-10
3.29514e-09
-8.01789e-10
3.69164e-09
-7.89825e-10
4.08098e-09
-7.7593e-10
4.46234e-09
-7.60288e-10
4.83491e-09
-7.42991e-10
5.1979e-09
-7.2408e-10
5.55053e-09
-7.03607e-10
5.89206e-09
-6.81663e-10
6.2218e-09
-6.58359e-10
6.53915e-09
-6.33799e-10
6.84351e-09
-6.08069e-10
7.13433e-09
-5.81258e-10
7.41111e-09
-5.5348e-10
7.67341e-09
-5.249e-10
7.92094e-09
-4.95735e-10
8.15352e-09
-4.66245e-10
8.37114e-09
-4.36713e-10
8.57394e-09
-4.07427e-10
8.7622e-09
-3.78666e-10
8.93635e-09
-3.5068e-10
9.09692e-09
-3.23686e-10
9.24451e-09
-2.97857e-10
9.37981e-09
-2.73325e-10
9.50355e-09
-2.50181e-10
9.61646e-09
-2.28474e-10
9.7193e-09
-2.08224e-10
9.81279e-09
-1.89417e-10
9.89765e-09
-1.72021e-10
9.97458e-09
-1.55984e-10
1.00442e-08
-1.41243e-10
1.01072e-08
-1.27726e-10
1.0164e-08
-1.15355e-10
1.02153e-08
-1.04053e-10
1.02615e-08
-9.374e-11
1.0303e-08
-8.43401e-11
1.03403e-08
-7.57791e-11
1.03738e-08
-6.79866e-11
1.04038e-08
-6.08963e-11
1.04306e-08
-5.44461e-11
1.04546e-08
-4.85788e-11
1.04759e-08
-4.32409e-11
1.04948e-08
-3.83839e-11
1.05115e-08
-3.39626e-11
1.05262e-08
-2.99363e-11
1.05392e-08
-2.62675e-11
1.05505e-08
-2.2922e-11
1.05602e-08
-1.98691e-11
1.05686e-08
-1.70805e-11
1.05758e-08
-1.4531e-11
1.05817e-08
-1.21972e-11
1.05867e-08
-1.00587e-11
1.05906e-08
-8.09623e-12
1.05937e-08
-6.29281e-12
1.05959e-08
-4.63336e-12
1.05974e-08
-3.10369e-12
1.05982e-08
-1.6913e-12
1.05984e-08
-3.85013e-13
1.05979e-08
8.25439e-13
1.05969e-08
1.94901e-12
1.05954e-08
2.99422e-12
1.05933e-08
3.96821e-12
1.05909e-08
4.87801e-12
1.0588e-08
5.72924e-12
1.05847e-08
6.52758e-12
1.0581e-08
7.27768e-12
1.0577e-08
7.98399e-12
1.05727e-08
8.65063e-12
1.0568e-08
9.28074e-12
1.05631e-08
9.87776e-12
1.05578e-08
1.04445e-11
1.05523e-08
1.09836e-11
1.05466e-08
1.14971e-11
1.05406e-08
1.19875e-11
1.05343e-08
1.24564e-11
1.05279e-08
1.29056e-11
1.05212e-08
1.33365e-11
1.05143e-08
1.37509e-11
1.05072e-08
1.41497e-11
1.05e-08
1.45342e-11
1.04925e-08
1.49053e-11
1.04849e-08
1.52643e-11
1.04771e-08
1.56117e-11
1.04691e-08
1.59486e-11
1.04609e-08
1.62755e-11
1.04526e-08
1.65933e-11
1.04442e-08
1.69025e-11
1.04356e-08
1.72037e-11
1.04268e-08
1.74975e-11
1.04179e-08
1.77843e-11
1.04089e-08
1.80648e-11
1.03997e-08
1.8339e-11
1.03904e-08
1.86079e-11
1.0381e-08
1.88713e-11
1.03714e-08
1.913e-11
1.03617e-08
1.93841e-11
1.03519e-08
1.9634e-11
1.0342e-08
1.98801e-11
1.03319e-08
2.01225e-11
1.03217e-08
2.03615e-11
1.03114e-08
2.05975e-11
1.0301e-08
2.08306e-11
1.02905e-08
2.10611e-11
1.02798e-08
2.12893e-11
1.02691e-08
2.15152e-11
1.02582e-08
2.17392e-11
1.02472e-08
2.19613e-11
1.02361e-08
2.2182e-11
1.02249e-08
2.2401e-11
1.02136e-08
2.26189e-11
1.02022e-08
2.28358e-11
1.01907e-08
2.30515e-11
1.0179e-08
2.32665e-11
1.01673e-08
2.34809e-11
1.01554e-08
2.36947e-11
1.01435e-08
2.39081e-11
1.01314e-08
2.41211e-11
1.01193e-08
2.4334e-11
1.0107e-08
2.4547e-11
1.00946e-08
2.47599e-11
1.00821e-08
2.4973e-11
1.00695e-08
2.51863e-11
1.00568e-08
2.54e-11
1.0044e-08
2.56142e-11
1.00311e-08
2.58289e-11
1.00181e-08
2.60443e-11
1.0005e-08
2.62603e-11
9.99172e-09
2.64773e-11
9.97837e-09
2.66953e-11
9.96491e-09
2.69141e-11
9.95134e-09
2.71343e-11
9.93767e-09
2.73556e-11
9.92388e-09
2.75783e-11
9.90998e-09
2.78027e-11
9.89596e-09
2.80288e-11
9.88183e-09
2.82566e-11
9.86759e-09
2.84867e-11
9.85323e-09
2.87191e-11
9.83875e-09
2.89543e-11
9.82416e-09
2.91925e-11
9.80944e-09
2.94343e-11
9.7946e-09
2.96801e-11
9.77964e-09
2.99308e-11
9.76454e-09
3.01873e-11
9.74932e-09
3.04506e-11
9.73396e-09
3.07223e-11
9.71846e-09
3.10037e-11
9.70281e-09
3.12976e-11
9.68701e-09
3.16065e-11
9.67104e-09
3.19343e-11
9.6549e-09
3.22852e-11
9.63857e-09
3.26655e-11
9.62203e-09
3.30826e-11
9.60526e-09
3.35465e-11
9.58823e-09
3.40698e-11
9.5709e-09
3.46689e-11
9.55323e-09
3.53655e-11
9.53514e-09
3.61879e-11
9.51657e-09
3.71733e-11
9.4974e-09
3.83717e-11
9.4775e-09
3.98497e-11
9.45668e-09
4.16984e-11
9.43469e-09
4.40427e-11
9.41122e-09
4.70585e-11
9.38579e-09
5.09973e-11
9.35778e-09
5.62294e-11
9.32627e-09
6.33205e-11
9.28991e-09
7.31717e-11
9.24664e-09
8.73066e-11
9.19308e-09
1.08504e-10
9.12336e-09
1.42372e-10
9.02635e-09
2.01859e-10
8.88037e-09
3.2225e-10
6.16387e-10
8.66497e-09
4.2111e-10
-1.24231e-09
8.4443e-10
-1.24833e-09
1.26917e-09
-1.25161e-09
1.69421e-09
-1.25164e-09
2.11801e-09
-1.24782e-09
2.53895e-09
-1.23996e-09
2.95532e-09
-1.22796e-09
3.36543e-09
-1.2119e-09
3.76808e-09
-1.19247e-09
4.16258e-09
-1.17043e-09
4.54849e-09
-1.14621e-09
4.92526e-09
-1.11976e-09
5.29206e-09
-1.09088e-09
5.64798e-09
-1.05953e-09
5.99223e-09
-1.02592e-09
6.3242e-09
-9.90325e-10
6.64333e-09
-9.52934e-10
6.94907e-09
-9.13808e-10
7.24078e-09
-8.72968e-10
7.51782e-09
-8.30521e-10
7.77964e-09
-7.86712e-10
8.02582e-09
-7.41917e-10
8.25617e-09
-6.96597e-10
8.47071e-09
-6.51254e-10
8.66967e-09
-6.06384e-10
8.85345e-09
-5.62448e-10
9.02262e-09
-5.19851e-10
9.17786e-09
-4.78924e-10
9.31993e-09
-4.39926e-10
9.44964e-09
-4.0304e-10
9.56784e-09
-3.68377e-10
9.67535e-09
-3.3599e-10
9.77301e-09
-3.05877e-10
9.86159e-09
-2.77998e-10
9.94184e-09
-2.52278e-10
1.00145e-08
-2.28623e-10
1.00802e-08
-2.0692e-10
1.01395e-08
-1.87051e-10
1.0193e-08
-1.68892e-10
1.02413e-08
-1.52317e-10
1.02848e-08
-1.37205e-10
1.03238e-08
-1.23438e-10
1.0359e-08
-1.10904e-10
1.03905e-08
-9.94976e-11
1.04187e-08
-8.91196e-11
1.04439e-08
-7.96783e-11
1.04664e-08
-7.10888e-11
1.04865e-08
-6.32726e-11
1.05043e-08
-5.61583e-11
1.052e-08
-4.96802e-11
1.05338e-08
-4.37783e-11
1.05459e-08
-3.83979e-11
1.05565e-08
-3.34897e-11
1.05657e-08
-2.90082e-11
1.05735e-08
-2.49127e-11
1.05801e-08
-2.1166e-11
1.05857e-08
-1.77347e-11
1.05902e-08
-1.45882e-11
1.05938e-08
-1.16991e-11
1.05965e-08
-9.04275e-12
1.05985e-08
-6.59649e-12
1.05997e-08
-4.34029e-12
1.06003e-08
-2.2557e-12
1.06002e-08
-3.26478e-13
1.05996e-08
1.46228e-12
1.05984e-08
3.12402e-12
1.05968e-08
4.67076e-12
1.05946e-08
6.11311e-12
1.0592e-08
7.46101e-12
1.0589e-08
8.7233e-12
1.05857e-08
9.90756e-12
1.05819e-08
1.10211e-11
1.05778e-08
1.20704e-11
1.05734e-08
1.30609e-11
1.05687e-08
1.3998e-11
1.05637e-08
1.48862e-11
1.05584e-08
1.57298e-11
1.05529e-08
1.65325e-11
1.05471e-08
1.72977e-11
1.0541e-08
1.80286e-11
1.05347e-08
1.87278e-11
1.05282e-08
1.93979e-11
1.05215e-08
2.00411e-11
1.05146e-08
2.06594e-11
1.05075e-08
2.12548e-11
1.05002e-08
2.18291e-11
1.04928e-08
2.23837e-11
1.04851e-08
2.292e-11
1.04773e-08
2.34394e-11
1.04693e-08
2.39428e-11
1.04611e-08
2.44318e-11
1.04528e-08
2.4907e-11
1.04443e-08
2.53695e-11
1.04357e-08
2.58202e-11
1.0427e-08
2.62598e-11
1.04181e-08
2.66891e-11
1.0409e-08
2.71087e-11
1.03998e-08
2.75195e-11
1.03905e-08
2.79217e-11
1.03811e-08
2.83164e-11
1.03715e-08
2.87037e-11
1.03618e-08
2.90842e-11
1.0352e-08
2.94585e-11
1.0342e-08
2.9827e-11
1.0332e-08
3.01901e-11
1.03218e-08
3.05482e-11
1.03115e-08
3.09017e-11
1.03011e-08
3.12511e-11
1.02905e-08
3.15965e-11
1.02799e-08
3.19382e-11
1.02691e-08
3.22769e-11
1.02582e-08
3.26126e-11
1.02472e-08
3.29455e-11
1.02362e-08
3.32761e-11
1.0225e-08
3.36046e-11
1.02136e-08
3.39312e-11
1.02022e-08
3.42561e-11
1.01907e-08
3.45797e-11
1.01791e-08
3.4902e-11
1.01673e-08
3.52233e-11
1.01555e-08
3.55438e-11
1.01435e-08
3.58639e-11
1.01314e-08
3.61833e-11
1.01193e-08
3.65027e-11
1.0107e-08
3.68218e-11
1.00946e-08
3.71411e-11
1.00821e-08
3.74606e-11
1.00695e-08
3.77805e-11
1.00568e-08
3.81009e-11
1.0044e-08
3.84222e-11
1.00311e-08
3.87441e-11
1.00181e-08
3.90671e-11
1.0005e-08
3.93912e-11
9.99172e-09
3.97166e-11
9.97837e-09
4.00432e-11
9.96492e-09
4.03716e-11
9.95135e-09
4.07016e-11
9.93767e-09
4.10337e-11
9.92388e-09
4.13678e-11
9.90998e-09
4.17041e-11
9.89597e-09
4.2043e-11
9.88184e-09
4.23848e-11
9.86759e-09
4.27298e-11
9.85323e-09
4.30783e-11
9.83876e-09
4.34309e-11
9.82416e-09
4.3788e-11
9.80945e-09
4.41503e-11
9.79461e-09
4.4519e-11
9.77964e-09
4.48947e-11
9.76455e-09
4.52791e-11
9.74933e-09
4.56735e-11
9.73397e-09
4.60802e-11
9.71847e-09
4.65018e-11
9.70283e-09
4.69416e-11
9.68703e-09
4.74037e-11
9.67107e-09
4.78937e-11
9.65494e-09
4.84183e-11
9.63862e-09
4.89863e-11
9.62209e-09
4.9609e-11
9.60534e-09
5.03009e-11
9.58833e-09
5.10807e-11
9.57102e-09
5.1973e-11
9.55338e-09
5.30096e-11
9.53533e-09
5.42323e-11
9.51681e-09
5.56964e-11
9.49771e-09
5.7475e-11
9.47789e-09
5.9667e-11
9.45718e-09
6.24058e-11
9.43535e-09
6.5875e-11
9.41208e-09
7.03317e-11
9.38693e-09
7.61422e-11
9.35932e-09
8.38433e-11
9.32839e-09
9.42464e-11
9.29293e-09
1.08631e-10
9.25112e-09
1.29121e-10
9.20014e-09
1.59479e-10
9.13558e-09
2.06932e-10
9.0507e-09
2.86743e-10
8.93881e-09
4.34141e-10
7.31723e-10
8.82347e-09
4.32455e-10
-1.67476e-09
8.67932e-10
-1.68381e-09
1.30659e-09
-1.69028e-09
1.74755e-09
-1.69259e-09
2.18743e-09
-1.68769e-09
2.62431e-09
-1.67684e-09
3.05549e-09
-1.65914e-09
3.47714e-09
-1.63355e-09
3.88768e-09
-1.60301e-09
4.28807e-09
-1.57082e-09
4.67977e-09
-1.5379e-09
5.06281e-09
-1.5028e-09
5.43571e-09
-1.46378e-09
5.79673e-09
-1.42055e-09
6.14484e-09
-1.37402e-09
6.47978e-09
-1.32527e-09
6.8015e-09
-1.27466e-09
7.10958e-09
-1.22188e-09
7.40311e-09
-1.1665e-09
7.68102e-09
-1.10843e-09
7.94238e-09
-1.04807e-09
8.18658e-09
-9.86116e-10
8.41338e-09
-9.23404e-10
8.62292e-09
-8.60787e-10
8.8156e-09
-7.99064e-10
8.99208e-09
-7.38933e-10
9.1532e-09
-6.80972e-10
9.29991e-09
-6.2563e-10
9.43321e-09
-5.73227e-10
9.55414e-09
-5.23966e-10
9.6637e-09
-4.77944e-10
9.76289e-09
-4.35174e-10
9.85261e-09
-3.956e-10
9.93373e-09
-3.59116e-10
1.0007e-08
-3.25581e-10
1.00732e-08
-2.94833e-10
1.0133e-08
-2.66696e-10
1.0187e-08
-2.40988e-10
1.02356e-08
-2.1753e-10
1.02794e-08
-1.96146e-10
1.03189e-08
-1.76667e-10
1.03544e-08
-1.58932e-10
1.03863e-08
-1.42793e-10
1.04149e-08
-1.28107e-10
1.04405e-08
-1.14745e-10
1.04634e-08
-1.02587e-10
1.04838e-08
-9.15235e-11
1.0502e-08
-8.14522e-11
1.05181e-08
-7.22808e-11
1.05324e-08
-6.39249e-11
1.05449e-08
-5.63078e-11
1.05559e-08
-4.93592e-11
1.05654e-08
-4.30159e-11
1.05736e-08
-3.72197e-11
1.05806e-08
-3.19188e-11
1.05865e-08
-2.70654e-11
1.05914e-08
-2.26168e-11
1.05954e-08
-1.8534e-11
1.05984e-08
-1.4782e-11
1.06007e-08
-1.1329e-11
1.06023e-08
-8.14621e-12
1.06031e-08
-5.20805e-12
1.06034e-08
-2.49095e-12
1.0603e-08
2.61289e-14
1.06021e-08
2.36207e-12
1.06007e-08
4.53427e-12
1.05988e-08
6.55774e-12
1.05965e-08
8.44672e-12
1.05937e-08
1.02134e-11
1.05906e-08
1.18692e-11
1.05871e-08
1.34243e-11
1.05832e-08
1.48878e-11
1.0579e-08
1.62677e-11
1.05745e-08
1.75715e-11
1.05697e-08
1.88059e-11
1.05646e-08
1.99769e-11
1.05592e-08
2.10895e-11
1.05536e-08
2.21492e-11
1.05478e-08
2.31599e-11
1.05417e-08
2.41259e-11
1.05353e-08
2.50503e-11
1.05288e-08
2.59369e-11
1.05221e-08
2.67883e-11
1.05151e-08
2.76071e-11
1.0508e-08
2.83962e-11
1.05006e-08
2.91571e-11
1.04931e-08
2.98925e-11
1.04854e-08
3.06037e-11
1.04776e-08
3.12928e-11
1.04696e-08
3.19611e-11
1.04614e-08
3.26101e-11
1.04531e-08
3.32412e-11
1.04446e-08
3.38555e-11
1.04359e-08
3.44543e-11
1.04272e-08
3.50383e-11
1.04182e-08
3.56088e-11
1.04092e-08
3.61667e-11
1.04e-08
3.67128e-11
1.03907e-08
3.72477e-11
1.03812e-08
3.77725e-11
1.03716e-08
3.82876e-11
1.03619e-08
3.87939e-11
1.03521e-08
3.92919e-11
1.03421e-08
3.97822e-11
1.03321e-08
4.02655e-11
1.03219e-08
4.07421e-11
1.03116e-08
4.12127e-11
1.03011e-08
4.16776e-11
1.02906e-08
4.21375e-11
1.02799e-08
4.25926e-11
1.02692e-08
4.30434e-11
1.02583e-08
4.34905e-11
1.02473e-08
4.3934e-11
1.02362e-08
4.43742e-11
1.0225e-08
4.48117e-11
1.02137e-08
4.52469e-11
1.02023e-08
4.56797e-11
1.01907e-08
4.61106e-11
1.01791e-08
4.65401e-11
1.01673e-08
4.69683e-11
1.01555e-08
4.73953e-11
1.01435e-08
4.78217e-11
1.01315e-08
4.82474e-11
1.01193e-08
4.86729e-11
1.0107e-08
4.90982e-11
1.00946e-08
4.95236e-11
1.00821e-08
4.99496e-11
1.00696e-08
5.03759e-11
1.00568e-08
5.08031e-11
1.0044e-08
5.12311e-11
1.00311e-08
5.16603e-11
1.00181e-08
5.20907e-11
1.0005e-08
5.25227e-11
9.99173e-09
5.29564e-11
9.97838e-09
5.33919e-11
9.96492e-09
5.38296e-11
9.95136e-09
5.42695e-11