/*--------------------------------*- C++ -*----------------------------------*\
  =========                 |
  \\      /  F ield         | OpenFOAM: The Open Source CFD Toolbox
   \\    /   O peration     | Website:  https://openfoam.org
    \\  /    A nd           | Version:  10
     \\/     M anipulation  |
\*---------------------------------------------------------------------------*/
FoamFile
{
    format      ascii;
    class       volSymmTensorField;
    location    "0.031";
    object      UPrime2Mean;
}
// * * * * * * * * * * * * * * * * * * * * * * * * * * * * * * * * * * * * * //

dimensions      [0 2 -2 0 0 0 0];

internalField   nonuniform List<symmTensor> 
12225
(
(0.0517155 0.000875116 0 0.00227284 0 0)
(0.0151816 -0.000122273 0 0.00109151 0 0)
(0.0207513 -0.000679685 0 0.000774486 0 0)
(0.0240801 -0.000957952 0 0.000629461 0 0)
(0.0349657 -0.00148816 0 0.000552914 0 0)
(0.0570168 -0.00232519 0 0.000520404 0 0)
(0.0914595 -0.00356598 0 0.00051508 0 0)
(0.13875 -0.00469841 0 0.000458822 0 0)
(0.203751 -0.00724278 0 0.000567103 0 0)
(0.287085 -0.00751317 0 0.000447977 0 0)
(0.405382 -0.0148178 0 0.00081644 0 0)
(0.547476 -0.00999151 0 0.000492784 0 0)
(0.770283 -0.0348025 0 0.00197265 0 0)
(1.01659 -0.00661464 0 0.00107456 0 0)
(1.47304 -0.0992304 0 0.00878046 0 0)
(1.9826 0.0289307 0 0.00712925 0 0)
(3.12108 -0.395383 0 0.0741318 0 0)
(4.87253 0.0823203 0 0.0300121 0 0)
(0.0504404 0.00107938 0 0.00265424 0 0)
(0.0148773 0.000495336 0 0.00128749 0 0)
(0.0151424 -9.74919e-05 0 0.000848777 0 0)
(0.0132886 -0.000177299 0 0.000742255 0 0)
(0.0130168 -0.000316707 0 0.000747125 0 0)
(0.0145376 -0.000861177 0 0.000839714 0 0)
(0.0177087 -0.00166437 0 0.000933264 0 0)
(0.0239918 -0.00320541 0 0.00119774 0 0)
(0.0335995 -0.00478354 0 0.00130755 0 0)
(0.0513586 -0.00835286 0 0.00200114 0 0)
(0.0746653 -0.010777 0 0.00207763 0 0)
(0.119498 -0.0197979 0 0.00390457 0 0)
(0.171214 -0.0230532 0 0.00380684 0 0)
(0.28312 -0.0484213 0 0.00921638 0 0)
(0.396919 -0.0530693 0 0.00870236 0 0)
(0.703219 -0.138413 0 0.0298486 0 0)
(0.986216 -0.18897 0 0.0382831 0 0)
(1.82136 -0.603472 0 0.227446 0 0)
(0.0605698 0.00163759 0 0.00314538 0 0)
(0.0182239 0.0007536 0 0.00160704 0 0)
(0.0160851 -9.48199e-05 0 0.0010895 0 0)
(0.0136713 -0.00044359 0 0.000959362 0 0)
(0.0137261 -0.000732751 0 0.000999032 0 0)
(0.0153344 -0.00120488 0 0.0011203 0 0)
(0.0183133 -0.00212598 0 0.00137502 0 0)
(0.0229163 -0.00341261 0 0.00161867 0 0)
(0.0301493 -0.00563938 0 0.00227417 0 0)
(0.0405671 -0.00800634 0 0.00270829 0 0)
(0.0571449 -0.013292 0 0.00437497 0 0)
(0.0804825 -0.017796 0 0.00513679 0 0)
(0.118835 -0.0315429 0 0.00973152 0 0)
(0.172445 -0.0410548 0 0.011271 0 0)
(0.264693 -0.0812971 0 0.0267962 0 0)
(0.395806 -0.116224 0 0.0360675 0 0)
(0.608612 -0.254441 0 0.113768 0 0)
(0.874739 -0.479481 0 0.286565 0 0)
(0.0533517 0.000232747 0 0.00334132 0 0)
(0.0154153 -0.000138927 0 0.00195666 0 0)
(0.0153337 -0.000736141 0 0.00143632 0 0)
(0.0131188 -0.000977631 0 0.00132033 0 0)
(0.0127552 -0.00130501 0 0.00141424 0 0)
(0.0140138 -0.00202583 0 0.00167178 0 0)
(0.0167347 -0.00317821 0 0.00204105 0 0)
(0.0212928 -0.00496134 0 0.00267011 0 0)
(0.0282128 -0.00734372 0 0.00342251 0 0)
(0.0387889 -0.0111779 0 0.00479771 0 0)
(0.0542102 -0.0162776 0 0.00643934 0 0)
(0.0776061 -0.0249766 0 0.00963547 0 0)
(0.111532 -0.0368578 0 0.013806 0 0)
(0.162662 -0.0580918 0 0.0224405 0 0)
(0.237676 -0.091083 0 0.0368217 0 0)
(0.345306 -0.151227 0 0.069065 0 0)
(0.49201 -0.26395 0 0.148388 0 0)
(0.645562 -0.432421 0 0.311126 0 0)
(0.0557224 0.00197897 0 0.0039146 0 0)
(0.0174632 0.000586748 0 0.00234468 0 0)
(0.0171922 -0.000244871 0 0.00174024 0 0)
(0.0144037 -0.000548749 0 0.00161835 0 0)
(0.0134433 -0.000899997 0 0.00176663 0 0)
(0.0143016 -0.00171804 0 0.00212169 0 0)
(0.0168114 -0.00317806 0 0.00270687 0 0)
(0.0212404 -0.00529616 0 0.00350177 0 0)
(0.0282633 -0.00840973 0 0.00478477 0 0)
(0.03883 -0.0127188 0 0.00651596 0 0)
(0.0543868 -0.0194071 0 0.00940086 0 0)
(0.076814 -0.0289519 0 0.013494 0 0)
(0.109127 -0.0442618 0 0.0206595 0 0)
(0.154702 -0.0673045 0 0.0321486 0 0)
(0.219144 -0.105181 0 0.0538498 0 0)
(0.303456 -0.167427 0 0.0969508 0 0)
(0.407701 -0.26423 0 0.180203 0 0)
(0.500319 -0.406911 0 0.364435 0 0)
(0.0538142 -0.000634568 0 0.00479088 0 0)
(0.0155998 -0.000526945 0 0.00306107 0 0)
(0.0159821 -0.00153725 0 0.00223282 0 0)
(0.013517 -0.00180654 0 0.00211113 0 0)
(0.0126977 -0.00214059 0 0.0023227 0 0)
(0.0137049 -0.00306905 0 0.00285019 0 0)
(0.0162359 -0.00473188 0 0.00370013 0 0)
(0.0204482 -0.00722008 0 0.00494561 0 0)
(0.0270119 -0.0107927 0 0.00674151 0 0)
(0.0368437 -0.0159345 0 0.00937809 0 0)
(0.0512622 -0.0234908 0 0.0133436 0 0)
(0.0717135 -0.0346088 0 0.0194092 0 0)
(0.10067 -0.0514623 0 0.0291646 0 0)
(0.139946 -0.0767456 0 0.0451796 0 0)
(0.192886 -0.116045 0 0.0734327 0 0)
(0.256916 -0.17467 0 0.123988 0 0)
(0.328718 -0.25991 0 0.216853 0 0)
(0.386152 -0.367581 0 0.382447 0 0)
(0.0552004 0.00116334 0 0.00457156 0 0)
(0.0183139 0.000122116 0 0.00360332 0 0)
(0.0196591 -0.000500537 0 0.00286312 0 0)
(0.0176477 -0.000861931 0 0.00277198 0 0)
(0.0172053 -0.00155495 0 0.00312093 0 0)
(0.0186977 -0.00288222 0 0.00384013 0 0)
(0.0218504 -0.00501391 0 0.00496332 0 0)
(0.0266193 -0.00809167 0 0.00660067 0 0)
(0.0334185 -0.0123947 0 0.00898555 0 0)
(0.0429479 -0.0184106 0 0.0125044 0 0)
(0.0563495 -0.02699 0 0.017752 0 0)
(0.0747928 -0.0393853 0 0.0258208 0 0)
(0.100056 -0.0574316 0 0.0383556 0 0)
(0.132864 -0.0837882 0 0.0587807 0 0)
(0.174492 -0.121847 0 0.0921553 0 0)
(0.221093 -0.175316 0 0.149149 0 0)
(0.268962 -0.245482 0 0.242002 0 0)
(0.302953 -0.325287 0 0.390676 0 0)
(0.0528153 0.00151343 0 0.00590873 0 0)
(0.0117944 0.000513539 0 0.00406189 0 0)
(0.0126365 -0.000561154 0 0.00322765 0 0)
(0.0113765 -0.00110355 0 0.00337586 0 0)
(0.0115303 -0.00183047 0 0.00396582 0 0)
(0.0132506 -0.00320967 0 0.0049697 0 0)
(0.0163065 -0.00542934 0 0.0064777 0 0)
(0.020629 -0.00860314 0 0.00864606 0 0)
(0.0265803 -0.0130324 0 0.0117721 0 0)
(0.0348302 -0.0192691 0 0.0163379 0 0)
(0.0463287 -0.0281765 0 0.0230776 0 0)
(0.0619054 -0.0408688 0 0.0332396 0 0)
(0.0825839 -0.058913 0 0.0487144 0 0)
(0.108379 -0.084228 0 0.072967 0 0)
(0.139323 -0.118997 0 0.110828 0 0)
(0.171883 -0.164601 0 0.170927 0 0)
(0.20275 -0.219919 0 0.26154 0 0)
(0.222758 -0.277906 0 0.395352 0 0)
(0.0609353 0.00102549 0 0.00548573 0 0)
(0.0211828 -0.00048523 0 0.0040986 0 0)
(0.021792 -0.0017609 0 0.00351975 0 0)
(0.019336 -0.00221996 0 0.00372411 0 0)
(0.0181343 -0.00290384 0 0.00443714 0 0)
(0.0187543 -0.00439947 0 0.00564241 0 0)
(0.0212019 -0.00684278 0 0.00750089 0 0)
(0.0251704 -0.0103094 0 0.0102441 0 0)
(0.0305174 -0.0150816 0 0.0142015 0 0)
(0.0375719 -0.0216602 0 0.0199262 0 0)
(0.0471126 -0.030789 0 0.0282335 0 0)
(0.0597432 -0.0434464 0 0.0405133 0 0)
(0.0760146 -0.0608859 0 0.0587075 0 0)
(0.0954164 -0.0844035 0 0.0861497 0 0)
(0.117438 -0.115126 0 0.126991 0 0)
(0.138965 -0.152859 0 0.187929 0 0)
(0.15786 -0.1956 0 0.274224 0 0)
(0.168513 -0.23687 0 0.393124 0 0)
(0.058051 0.00325876 0 0.00617122 0 0)
(0.0163418 -0.000358218 0 0.00449934 0 0)
(0.015781 -0.00155336 0 0.0041669 0 0)
(0.0138156 -0.00161161 0 0.00474467 0 0)
(0.0134733 -0.00202978 0 0.00574545 0 0)
(0.014582 -0.00345751 0 0.00729337 0 0)
(0.0169171 -0.00597976 0 0.00959945 0 0)
(0.0203345 -0.0095419 0 0.0129222 0 0)
(0.024915 -0.014298 0 0.0176624 0 0)
(0.0309239 -0.0206965 0 0.0244646 0 0)
(0.0387928 -0.0294468 0 0.0342283 0 0)
(0.0487828 -0.0413653 0 0.0484133 0 0)
(0.0610446 -0.0573266 0 0.0689277 0 0)
(0.0749131 -0.0779706 0 0.0987836 0 0)
(0.0895874 -0.103625 0 0.141292 0 0)
(0.102753 -0.133245 0 0.201418 0 0)
(0.113027 -0.164657 0 0.282053 0 0)
(0.1175 -0.19248 0 0.387511 0 0)
(0.0482594 0.00223227 0 0.00648248 0 0)
(0.0122529 -0.00109188 0 0.00550156 0 0)
(0.0127207 -0.00307242 0 0.00469911 0 0)
(0.010643 -0.00346948 0 0.00502403 0 0)
(0.00993445 -0.00397406 0 0.00622795 0 0)
(0.0106108 -0.00541532 0 0.00823957 0 0)
(0.0124692 -0.00788494 0 0.0111431 0 0)
(0.015246 -0.0113584 0 0.0151992 0 0)
(0.0188769 -0.0160248 0 0.0208584 0 0)
(0.0235529 -0.022283 0 0.0288351 0 0)
(0.02961 -0.0306767 0 0.0400804 0 0)
(0.0371599 -0.0417545 0 0.0560102 0 0)
(0.0461067 -0.0560001 0 0.0783572 0 0)
(0.0557066 -0.0735577 0 0.109682 0 0)
(0.0651429 -0.0941637 0 0.152486 0 0)
(0.0727703 -0.116443 0 0.210338 0 0)
(0.0778095 -0.138331 0 0.284539 0 0)
(0.078929 -0.155727 0 0.377787 0 0)
(0.0572125 0.00272256 0 0.00646351 0 0)
(0.0168101 -0.00112093 0 0.00618326 0 0)
(0.0165455 -0.00250696 0 0.00558991 0 0)
(0.0141538 -0.00238361 0 0.00591107 0 0)
(0.0130989 -0.00266047 0 0.00721013 0 0)
(0.0134741 -0.00400839 0 0.0094705 0 0)
(0.0148154 -0.00631475 0 0.0127585 0 0)
(0.0166637 -0.00945427 0 0.017349 0 0)
(0.0189584 -0.0135658 0 0.023716 0 0)
(0.0219024 -0.0189746 0 0.0325953 0 0)
(0.0257066 -0.0261155 0 0.0449329 0 0)
(0.0303375 -0.0353297 0 0.0620553 0 0)
(0.0355965 -0.0468177 0 0.0854834 0 0)
(0.0408429 -0.0603562 0 0.117337 0 0)
(0.0455857 -0.0754149 0 0.159403 0 0)
(0.0488111 -0.0905032 0 0.214229 0 0)
(0.0503353 -0.103925 0 0.282124 0 0)
(0.0496038 -0.112464 0 0.364926 0 0)
(0.0500411 0.00226481 0 0.00759525 0 0)
(0.0147959 -0.00201029 0 0.00643607 0 0)
(0.0152442 -0.00355962 0 0.00556395 0 0)
(0.0130013 -0.00357158 0 0.00631822 0 0)
(0.0121286 -0.00385666 0 0.00814287 0 0)
(0.0123962 -0.00508423 0 0.0108496 0 0)
(0.0132735 -0.00719355 0 0.0145994 0 0)
(0.0144742 -0.0100672 0 0.0197751 0 0)
(0.0160471 -0.0138189 0 0.0268877 0 0)
(0.0181339 -0.0187035 0 0.0366375 0 0)
(0.0208326 -0.025013 0 0.0498936 0 0)
(0.024033 -0.0328755 0 0.0678618 0 0)
(0.0275458 -0.0423027 0 0.0918201 0 0)
(0.0308489 -0.0528524 0 0.123486 0 0)
(0.0335365 -0.0639078 0 0.164083 0 0)
(0.0349519 -0.0740178 0 0.215459 0 0)
(0.035135 -0.0818959 0 0.277302 0 0)
(0.033907 -0.0848532 0 0.351034 0 0)
(0.0525557 0.00155784 0 0.00922635 0 0)
(0.01491 -0.000791816 0 0.00813677 0 0)
(0.0148658 -0.00169097 0 0.00776058 0 0)
(0.0129013 -0.00121223 0 0.00863909 0 0)
(0.011823 -0.00104358 0 0.0104221 0 0)
(0.0114692 -0.0018016 0 0.0132933 0 0)
(0.0116408 -0.00345307 0 0.0174279 0 0)
(0.0121687 -0.00574925 0 0.0231074 0 0)
(0.0130209 -0.00863024 0 0.0307885 0 0)
(0.014199 -0.0122337 0 0.0411599 0 0)
(0.0156765 -0.0167706 0 0.0550448 0 0)
(0.0172917 -0.0222454 0 0.0734892 0 0)
(0.0188678 -0.0285136 0 0.0974712 0 0)
(0.0200525 -0.0350024 0 0.128283 0 0)
(0.0207 -0.0410662 0 0.166575 0 0)
(0.0205888 -0.0454447 0 0.213606 0 0)
(0.0199524 -0.0472165 0 0.268583 0 0)
(0.0191591 -0.0443764 0 0.332617 0 0)
(0.0537367 0.00336175 0 0.00909722 0 0)
(0.0141482 -0.000949885 0 0.00826733 0 0)
(0.0142057 -0.00305495 0 0.00750067 0 0)
(0.0127727 -0.00281856 0 0.00866865 0 0)
(0.0122273 -0.00269058 0 0.0110452 0 0)
(0.0119767 -0.00347622 0 0.0144895 0 0)
(0.0118625 -0.00504939 0 0.01917 0 0)
(0.0118707 -0.00707848 0 0.0254339 0 0)
(0.0120627 -0.00947307 0 0.0337654 0 0)
(0.0124688 -0.0122992 0 0.044785 0 0)
(0.0130578 -0.0156137 0 0.0591467 0 0)
(0.0136781 -0.0192558 0 0.0776586 0 0)
(0.0141656 -0.0229351 0 0.100993 0 0)
(0.0143146 -0.0260208 0 0.130053 0 0)
(0.0140703 -0.0279508 0 0.165067 0 0)
(0.013547 -0.027663 0 0.206854 0 0)
(0.0130888 -0.0246791 0 0.254359 0 0)
(0.0131929 -0.0174343 0 0.308607 0 0)
(0.0556196 0.00273949 0 0.0110921 0 0)
(0.014389 -0.000873622 0 0.0113944 0 0)
(0.013109 -0.00256086 0 0.010839 0 0)
(0.0107643 -0.00204114 0 0.0116513 0 0)
(0.00976482 -0.00147653 0 0.0138226 0 0)
(0.00924949 -0.00168534 0 0.0172058 0 0)
(0.00893115 -0.00259775 0 0.0218794 0 0)
(0.00875648 -0.00386989 0 0.0281894 0 0)
(0.00870325 -0.00527591 0 0.0365791 0 0)
(0.00871691 -0.00670937 0 0.0475224 0 0)
(0.00873775 -0.00807711 0 0.0614557 0 0)
(0.00869936 -0.00911092 0 0.0789276 0 0)
(0.00860035 -0.0094984 0 0.10033 0 0)
(0.00848039 -0.00868043 0 0.12624 0 0)
(0.00846781 -0.00629349 0 0.156577 0 0)
(0.00884418 -0.0015627 0 0.191925 0 0)
(0.00988956 0.00564526 0 0.231185 0 0)
(0.0122378 0.0164803 0 0.275292 0 0)
(0.0544615 0.00329728 0 0.0119019 0 0)
(0.017476 -0.000794119 0 0.0116563 0 0)
(0.0164723 -0.00255824 0 0.00980222 0 0)
(0.0136654 -0.0021613 0 0.0104291 0 0)
(0.0124475 -0.00163023 0 0.0130077 0 0)
(0.0118069 -0.00174312 0 0.0169499 0 0)
(0.0112638 -0.00232966 0 0.0220603 0 0)
(0.0108057 -0.00292646 0 0.0285291 0 0)
(0.0104962 -0.00324717 0 0.0367309 0 0)
(0.0103012 -0.00317842 0 0.0471129 0 0)
(0.0101559 -0.00265228 0 0.0600331 0 0)
(0.0100791 -0.00144934 0 0.075864 0 0)
(0.010155 0.000672168 0 0.0947371 0 0)
(0.0105641 0.00417003 0 0.116957 0 0)
(0.0114444 0.00924946 0 0.142231 0 0)
(0.0131498 0.0165161 0 0.170957 0 0)
(0.0158143 0.0258569 0 0.202077 0 0)
(0.0200372 0.0382305 0 0.236527 0 0)
(0.0529056 0.00325359 0 0.0128285 0 0)
(0.0141019 -0.00176775 0 0.0129651 0 0)
(0.0143393 -0.0046558 0 0.0115505 0 0)
(0.0127026 -0.00440233 0 0.0122303 0 0)
(0.0117467 -0.00359833 0 0.0144599 0 0)
(0.0107 -0.00317516 0 0.0177527 0 0)
(0.00966268 -0.00312217 0 0.0220503 0 0)
(0.00896714 -0.00311366 0 0.0275698 0 0)
(0.00870284 -0.00281571 0 0.0345953 0 0)
(0.00873047 -0.00196446 0 0.0434238 0 0)
(0.00891446 -0.00035449 0 0.0542287 0 0)
(0.00928792 0.00225755 0 0.0671594 0 0)
(0.00998874 0.00608321 0 0.0821828 0 0)
(0.0112757 0.0114173 0 0.0994462 0 0)
(0.013304 0.0183654 0 0.118632 0 0)
(0.0164641 0.0272409 0 0.140047 0 0)
(0.0208076 0.0379077 0 0.162838 0 0)
(0.026933 0.0508625 0 0.187696 0 0)
(0.0545723 0.00276962 0 0.0119781 0 0)
(0.0173501 -0.000249215 0 0.0115623 0 0)
(0.017479 -0.00191157 0 0.00985452 0 0)
(0.0138594 -0.00141933 0 0.0102563 0 0)
(0.0118119 -0.000274677 0 0.0121101 0 0)
(0.0108283 0.000749986 0 0.0149572 0 0)
(0.0104745 0.00170782 0 0.0187286 0 0)
(0.0106286 0.00300667 0 0.023484 0 0)
(0.011238 0.00497584 0 0.0293044 0 0)
(0.0121937 0.00777415 0 0.0362915 0 0)
(0.0134589 0.0114533 0 0.044503 0 0)
(0.0152096 0.0161059 0 0.0540176 0 0)
(0.0176852 0.0218127 0 0.0647795 0 0)
(0.0211819 0.0287444 0 0.0768531 0 0)
(0.0258347 0.0369107 0 0.0899745 0 0)
(0.0319475 0.046504 0 0.104365 0 0)
(0.0395037 0.0573466 0 0.11942 0 0)
(0.048901 0.0697906 0 0.135722 0 0)
(0.0528131 0.00316124 0 0.0117203 0 0)
(0.0143146 -0.00172022 0 0.0119708 0 0)
(0.0121133 -0.00332338 0 0.00955013 0 0)
(0.00946091 -0.00211796 0 0.00910075 0 0)
(0.00860371 -0.000513619 0 0.0101911 0 0)
(0.00813608 0.00072015 0 0.0122141 0 0)
(0.00778987 0.00178319 0 0.0149305 0 0)
(0.0078411 0.0031985 0 0.0182745 0 0)
(0.00850241 0.0053191 0 0.0222662 0 0)
(0.00982491 0.00824111 0 0.0269868 0 0)
(0.0118309 0.0119501 0 0.0324933 0 0)
(0.0146383 0.0164785 0 0.0388438 0 0)
(0.0184176 0.0218812 0 0.0459915 0 0)
(0.0233707 0.0282785 0 0.0539569 0 0)
(0.0296118 0.0356836 0 0.0625416 0 0)
(0.0373334 0.0442117 0 0.0718648 0 0)
(0.0465148 0.0537122 0 0.081517 0 0)
(0.0573914 0.0643854 0 0.0918049 0 0)
(0.0517771 0.00342038 0 0.0106153 0 0)
(0.0149137 0.000882707 0 0.00983395 0 0)
(0.0134273 6.93538e-05 0 0.00766179 0 0)
(0.0106056 0.00125305 0 0.00724678 0 0)
(0.0100844 0.00269696 0 0.0078823 0 0)
(0.0105349 0.0040481 0 0.0092443 0 0)
(0.011414 0.00549116 0 0.0112045 0 0)
(0.0127724 0.00731675 0 0.013668 0 0)
(0.0147263 0.00974175 0 0.0165932 0 0)
(0.0173095 0.0128483 0 0.0199999 0 0)
(0.0205855 0.0166332 0 0.0239033 0 0)
(0.0247287 0.0211136 0 0.0283292 0 0)
(0.0299666 0.0263273 0 0.03324 0 0)
(0.0365136 0.032366 0 0.038642 0 0)
(0.0444589 0.0392428 0 0.0444041 0 0)
(0.0539457 0.0470335 0 0.0506185 0 0)
(0.0649567 0.0556175 0 0.0570189 0 0)
(0.0775859 0.0650812 0 0.0638231 0 0)
(0.0538742 0.00121885 0 0.0116634 0 0)
(0.0164193 0.000195822 0 0.0096493 0 0)
(0.0153411 0.000119023 0 0.00699092 0 0)
(0.0134246 0.000874975 0 0.0063477 0 0)
(0.0132255 0.00176904 0 0.00671797 0 0)
(0.0136505 0.00280543 0 0.00759334 0 0)
(0.0145275 0.00417869 0 0.00881973 0 0)
(0.0159884 0.00606452 0 0.01038 0 0)
(0.0181729 0.00851193 0 0.0122924 0 0)
(0.0211837 0.0114993 0 0.0145673 0 0)
(0.0251362 0.0150125 0 0.0171911 0 0)
(0.0302152 0.019099 0 0.020146 0 0)
(0.0365775 0.0238034 0 0.0233809 0 0)
(0.0443773 0.0292002 0 0.026895 0 0)
(0.0536626 0.035249 0 0.0306119 0 0)
(0.0645874 0.0419868 0 0.0346271 0 0)
(0.0770868 0.0492757 0 0.0387856 0 0)
(0.091279 0.0572201 0 0.0432016 0 0)
(0.0613225 0.0018186 0 0.009929 0 0)
(0.0192741 -7.84448e-05 0 0.00763309 0 0)
(0.0162567 -0.000903862 0 0.00542114 0 0)
(0.0143931 -0.000271033 0 0.00469741 0 0)
(0.014498 0.000692279 0 0.00485566 0 0)
(0.0149638 0.00168921 0 0.00551315 0 0)
(0.0156443 0.00284691 0 0.00638047 0 0)
(0.0169242 0.00434974 0 0.00738908 0 0)
(0.0190995 0.00627198 0 0.00860367 0 0)
(0.0222311 0.00862201 0 0.010056 0 0)
(0.0262692 0.0113902 0 0.0117196 0 0)
(0.0312454 0.0145846 0 0.0135805 0 0)
(0.0372782 0.0182158 0 0.0156303 0 0)
(0.0445758 0.022337 0 0.0179012 0 0)
(0.053248 0.0269544 0 0.020352 0 0)
(0.0634927 0.0321284 0 0.0230245 0 0)
(0.0752728 0.0378012 0 0.0257879 0 0)
(0.0886855 0.0440334 0 0.0287023 0 0)
(0.0608956 0.000960931 0 0.00840985 0 0)
(0.0192797 -0.00034373 0 0.00647071 0 0)
(0.0169583 -0.000175221 0 0.00461738 0 0)
(0.0154191 0.000789935 0 0.00404883 0 0)
(0.01528 0.00167215 0 0.00420359 0 0)
(0.0152952 0.00253549 0 0.00459678 0 0)
(0.0158144 0.00359018 0 0.00507065 0 0)
(0.0174605 0.00501896 0 0.00564226 0 0)
(0.0205281 0.00687524 0 0.00634892 0 0)
(0.024956 0.00912053 0 0.00721427 0 0)
(0.0305608 0.0116917 0 0.0082353 0 0)
(0.0372574 0.0145584 0 0.00940538 0 0)
(0.0450654 0.0177189 0 0.0107121 0 0)
(0.0540869 0.0212158 0 0.0121574 0 0)
(0.0643683 0.0250639 0 0.0136994 0 0)
(0.0760615 0.0293204 0 0.0153674 0 0)
(0.0891797 0.0339395 0 0.0170863 0 0)
(0.103767 0.0389838 0 0.0188731 0 0)
(0.0516353 0.00205935 0 0.00724083 0 0)
(0.0150175 -0.000314185 0 0.00529823 0 0)
(0.0142888 -0.00104663 0 0.00371105 0 0)
(0.0129396 -0.000562529 0 0.00320067 0 0)
(0.0126327 0.000215502 0 0.00318576 0 0)
(0.0124401 0.000935206 0 0.00335848 0 0)
(0.0128119 0.00157257 0 0.00363601 0 0)
(0.0142778 0.00235041 0 0.0040053 0 0)
(0.0170316 0.00342833 0 0.00444809 0 0)
(0.0209932 0.00483592 0 0.00495954 0 0)
(0.0259891 0.00654865 0 0.00554809 0 0)
(0.0319533 0.00855646 0 0.00622193 0 0)
(0.0389552 0.0108583 0 0.00697809 0 0)
(0.0471687 0.0134809 0 0.00782191 0 0)
(0.0567005 0.0164217 0 0.00872872 0 0)
(0.0677173 0.0197033 0 0.00972529 0 0)
(0.0801995 0.0232649 0 0.0107602 0 0)
(0.0942241 0.0271432 0 0.0118496 0 0)
(0.0506963 -0.00075248 0 0.00660785 0 0)
(0.0146248 -0.000384198 0 0.00484627 0 0)
(0.0136055 -0.000144023 0 0.00321614 0 0)
(0.0119045 6.71151e-05 0 0.00253056 0 0)
(0.0119793 0.00029394 0 0.00231027 0 0)
(0.0127728 0.000596586 0 0.00230785 0 0)
(0.014266 0.00101817 0 0.00240218 0 0)
(0.016549 0.00164845 0 0.00253902 0 0)
(0.0196787 0.00255186 0 0.00270879 0 0)
(0.0237245 0.00373496 0 0.00292703 0 0)
(0.0287459 0.00518139 0 0.00321151 0 0)
(0.0348489 0.0068753 0 0.00356115 0 0)
(0.0421777 0.0087856 0 0.00395753 0 0)
(0.0509047 0.0108963 0 0.00438963 0 0)
(0.061121 0.013186 0 0.00484299 0 0)
(0.0729447 0.0156705 0 0.00534483 0 0)
(0.0863462 0.018328 0 0.00587485 0 0)
(0.10131 0.021205 0 0.00643996 0 0)
(0.0518237 -0.000505228 0 0.00563122 0 0)
(0.0121243 -0.00109617 0 0.00359389 0 0)
(0.0111705 -0.000661799 0 0.00243775 0 0)
(0.0109292 -0.000214419 0 0.00199289 0 0)
(0.0120631 7.5191e-05 0 0.00186405 0 0)
(0.0127122 0.000353448 0 0.00182519 0 0)
(0.0132436 0.000716833 0 0.00179346 0 0)
(0.0144824 0.00119532 0 0.00180149 0 0)
(0.016935 0.00183251 0 0.00186389 0 0)
(0.020752 0.00266396 0 0.00195996 0 0)
(0.025904 0.00368974 0 0.00207706 0 0)
(0.0323685 0.00488103 0 0.00221886 0 0)
(0.0401697 0.00619717 0 0.0023924 0 0)
(0.0493729 0.00762508 0 0.00260194 0 0)
(0.0599632 0.00915979 0 0.00284132 0 0)
(0.0719938 0.0108342 0 0.00312063 0 0)
(0.0854143 0.0126432 0 0.00342231 0 0)
(0.100198 0.0146316 0 0.00374004 0 0)
(0.0553512 -0.000919475 0 0.00429912 0 0)
(0.0177403 -0.000266009 0 0.00223857 0 0)
(0.0162206 -0.000373348 0 0.0014782 0 0)
(0.0144845 -0.000380602 0 0.00118438 0 0)
(0.0144881 -0.00021641 0 0.00105254 0 0)
(0.015061 -2.88371e-06 0 0.000996366 0 0)
(0.0163648 0.000173601 0 0.000969922 0 0)
(0.0184726 0.000347429 0 0.000957183 0 0)
(0.0213498 0.000596157 0 0.000954865 0 0)
(0.0250947 0.000977392 0 0.000963843 0 0)
(0.0299093 0.00152224 0 0.000985636 0 0)
(0.0359836 0.00223174 0 0.00102241 0 0)
(0.0434356 0.00307711 0 0.00107572 0 0)
(0.0523354 0.00402584 0 0.00114563 0 0)
(0.0626605 0.00505359 0 0.00122851 0 0)
(0.0744637 0.00616057 0 0.00133092 0 0)
(0.087731 0.00734792 0 0.00144808 0 0)
(0.102397 0.00863017 0 0.00157796 0 0)
(0.0494287 -0.000757216 0 0.00362209 0 0)
(0.0125342 -0.000141067 0 0.00157059 0 0)
(0.0126582 -4.17258e-05 0 0.00105544 0 0)
(0.0119985 -0.00024904 0 0.000907365 0 0)
(0.0119909 -0.000500856 0 0.000849959 0 0)
(0.0118825 -0.000619405 0 0.000814514 0 0)
(0.0124615 -0.000566257 0 0.000795072 0 0)
(0.0142767 -0.000383313 0 0.000788774 0 0)
(0.0173768 -0.000129415 0 0.000789466 0 0)
(0.0216441 0.000147355 0 0.000798132 0 0)
(0.0269789 0.000433371 0 0.00081663 0 0)
(0.0333934 0.000743809 0 0.000843351 0 0)
(0.0409406 0.00109718 0 0.000877666 0 0)
(0.0497665 0.00149781 0 0.0009192 0 0)
(0.0598892 0.00194606 0 0.000960926 0 0)
(0.0714866 0.00245159 0 0.00100935 0 0)
(0.0844363 0.00301417 0 0.00106118 0 0)
(0.0989374 0.00365302 0 0.00110343 0 0)
(0.0526126 -0.000456134 0 0.0023915 0 0)
(0.01621 8.9969e-05 0 0.00134514 0 0)
(0.0166894 0.000307636 0 0.00102499 0 0)
(0.0148189 0.000371643 0 0.00088938 0 0)
(0.0146797 0.000535509 0 0.000800254 0 0)
(0.0158298 0.000704177 0 0.000737468 0 0)
(0.0176303 0.000775757 0 0.000682048 0 0)
(0.0196785 0.00073218 0 0.000624998 0 0)
(0.0220134 0.000650415 0 0.000572797 0 0)
(0.0249928 0.000635025 0 0.000526716 0 0)
(0.0290132 0.00072128 0 0.000480291 0 0)
(0.0342634 0.000869537 0 0.000433887 0 0)
(0.0407309 0.00102965 0 0.000394816 0 0)
(0.0483266 0.00117831 0 0.000365523 0 0)
(0.05704 0.00131806 0 0.000343351 0 0)
(0.066905 0.00145608 0 0.000328075 0 0)
(0.0780085 0.00159877 0 0.000315395 0 0)
(0.0902918 0.0017664 0 0.000302765 0 0)
(0.016058 -0.0339368 8.13875e-22 0.0732418 -1.50705e-21 3.59745e-37)
(0.118872 -0.0780836 -1.85328e-21 0.0546439 7.1812e-22 3.54715e-37)
(0.265329 -0.0805648 0 0.0353076 0 0)
(0.388893 -0.0649462 0 0.0330478 0 0)
(0.491873 -0.0578119 0 0.044799 0 0)
(0.621133 -0.0797355 1.23516e-21 0.060872 8.77245e-22 3.3412e-37)
(0.817374 -0.126352 0 0.0715872 0 0)
(1.11805 -0.183274 0 0.0731174 0 0)
(1.52949 -0.233027 0 0.0666835 0 0)
(2.02854 -0.263647 0 0.0550753 0 0)
(2.57748 -0.269789 1.43052e-21 0.0418877 -2.32115e-22 3.09489e-37)
(3.12856 -0.251221 0 0.0298479 0 0)
(3.63689 -0.211302 0 0.0205216 0 0)
(4.06087 -0.155755 0 0.0145502 0 0)
(4.36841 -0.0905889 0 0.0120149 0 0)
(4.54513 -0.0220065 -1.05697e-21 0.0126809 1.16759e-21 2.86075e-37)
(4.58391 0.0440227 0 0.0162294 0 0)
(4.49735 0.100578 0 0.0220394 0 0)
(4.30422 0.140107 0 0.0292701 0 0)
(4.04933 0.155522 0 0.0363389 0 0)
(3.76139 0.142955 0 0.0415942 0 0)
(3.51203 0.100601 0 0.0438177 0 0)
(3.31154 0.0342628 0 0.0422105 0 0)
(3.25397 -0.0688797 -1.68744e-20 0.0471485 1.48141e-21 2.51093e-37)
(3.29945 -0.158215 1.87641e-20 0.0494799 -1.24818e-21 2.46932e-37)
(3.57563 -0.316484 -2.01022e-20 0.0874899 6.56872e-22 2.42817e-37)
(4.04081 -0.498557 -2.12353e-20 0.208411 1.66177e-22 2.38748e-37)
(4.62857 -0.663486 0 0.350427 0 0)
(5.30512 -0.773651 0 0.413355 0 0)
(6.05981 -0.878847 2.52737e-20 0.485197 -3.54823e-22 2.26822e-37)
(6.89121 -0.931656 2.72964e-20 0.536361 -8.39349e-22 2.2294e-37)
(7.78996 -0.937204 0 0.524985 0 0)
(8.76396 -0.910366 0 0.468391 0 0)
(9.80145 -0.892829 3.56627e-20 0.408916 -2.38663e-21 2.11575e-37)
(10.8709 -0.91986 0 0.358555 0 0)
(11.9913 -0.872049 0 0.293185 0 0)
(13.1557 -0.717678 -4.4974e-20 0.210458 2.50636e-21 2.00636e-37)
(14.3259 -0.598567 0 0.149274 0 0)
(15.5688 -0.58041 -5.04982e-20 0.125567 2.19135e-21 1.93579e-37)
(16.9335 -0.607226 -1.05743e-19 0.106181 3.89252e-21 7.60479e-37)
(18.3803 -0.620275 0 0.0882163 0 0)
(19.8519 -0.614158 0 0.0731927 0 0)
(21.3056 -0.592015 0 0.0607138 0 0)
(22.7047 -0.557223 0 0.050534 0 0)
(24.0203 -0.513162 0 0.0423013 0 0)
(25.2286 -0.463115 -1.22507e-19 0.0357098 1.39126e-21 6.81324e-37)
(26.3129 -0.409988 -1.23345e-19 0.0304528 1.06844e-21 6.68765e-37)
(27.2657 -0.356016 -1.23653e-19 0.0262685 7.75267e-22 6.56382e-37)
(28.0824 -0.302459 0 0.0229171 0 0)
(28.7674 -0.250458 1.22802e-19 0.0202161 -2.73779e-22 6.32147e-37)
(29.3207 -0.200774 0 0.0180089 0 0)
(29.75 -0.153983 -1.20259e-19 0.0161684 -1.21119e-22 6.08608e-37)
(30.0607 -0.110706 -1.1846e-19 0.0146109 -2.81042e-22 5.97097e-37)
(30.2603 -0.0709841 0 0.0132591 0 0)
(30.3582 -0.0349496 0 0.0120728 0 0)
(30.3615 -0.00245659 0 0.0110215 0 0)
(30.2788 0.0266448 -1.0872e-19 0.0100908 -7.09477e-22 5.52744e-37)
(30.1174 0.0525203 0 0.0092719 0 0)
(29.8852 0.0752857 0 0.00855821 0 0)
(29.5893 0.0952462 0 0.00793663 0 0)
(29.2367 0.11256 0 0.00739928 0 0)
(28.833 0.127637 0 0.0069322 0 0)
(28.3837 0.140822 0 0.00653062 0 0)
(27.8928 0.15257 0 0.00619107 0 0)
(27.3627 0.163188 0 0.00591936 0 0)
(26.7954 0.173004 8.03144e-20 0.00571739 9.26479e-22 4.62458e-37)
(26.1926 0.181967 0 0.00559523 0 0)
(25.5561 0.190144 0 0.00554216 0 0)
(24.8883 0.197272 -7.0629e-20 0.00555574 -9.07762e-22 4.35138e-37)
(24.1927 0.203189 -6.74622e-20 0.00561235 -8.96839e-22 4.26326e-37)
(23.473 0.207662 0 0.00569283 0 0)
(22.7345 0.210572 6.12749e-20 0.00577147 8.66238e-22 4.09133e-37)
(21.9826 0.211774 -5.82742e-20 0.005836 -8.4614e-22 4.00748e-37)
(21.2234 0.211268 0 0.00586978 0 0)
(20.4629 0.209119 5.25067e-20 0.00586531 7.96197e-22 3.84396e-37)
(19.7069 0.205556 0 0.00580849 0 0)
(18.9601 0.200956 0 0.00569483 0 0)
(18.2256 0.195854 -4.45518e-20 0.00552064 -7.03629e-22 3.60882e-37)
(17.5039 0.190887 0 0.00529155 0 0)
(16.7936 0.186714 3.97406e-20 0.00503002 6.40946e-22 3.45862e-37)
(16.0904 0.183889 0 0.00475409 0 0)
(15.3885 0.182838 -3.52834e-20 0.00449276 -5.86524e-22 3.31351e-37)
(14.6809 0.183774 -3.3168e-20 0.00427904 -5.63859e-22 3.24282e-37)
(13.9602 0.186663 -3.1118e-20 0.00414021 -5.44299e-22 3.17336e-37)
(13.2196 0.191186 -5.82554e-20 0.00409258 -1.0547e-21 1.24204e-36)
(12.4535 0.196918 5.43862e-20 0.00416189 1.02529e-21 1.21521e-36)
(11.6586 0.203106 0 0.0043448 0 0)
(10.8345 0.208966 0 0.00463592 0 0)
(9.98358 0.213675 0 0.00501934 0 0)
(9.11182 0.216303 4.00804e-20 0.00545656 9.14999e-22 1.11252e-36)
(8.2286 0.216201 3.68559e-20 0.00591076 8.81306e-22 1.08797e-36)
(7.34644 0.212738 -3.38088e-20 0.00632729 -8.4286e-22 1.06386e-36)
(6.47947 0.205534 0 0.00664717 0 0)
(5.64272 0.194697 2.83165e-20 0.00682747 7.50888e-22 1.01691e-36)
(4.85096 0.180537 2.58947e-20 0.00682849 6.98641e-22 9.94073e-37)
(4.11684 0.163805 2.36939e-20 0.00664097 6.43782e-22 9.71644e-37)
(3.45013 0.145396 0 0.00627388 0 0)
(2.85682 0.12627 0 0.00575536 0 0)
(2.33973 0.107435 0 0.00513609 0 0)
(1.89908 0.0897166 1.69261e-20 0.00446868 4.22701e-22 8.85918e-37)
(1.53023 0.0733208 0 0.00376138 0 0)
(1.22616 0.058778 0 0.00307465 0 0)
(0.97968 0.046312 -1.35599e-20 0.00244573 -2.76619e-22 8.25646e-37)
(0.782532 0.0359493 0 0.00189981 0 0)
(0.626407 0.0275623 0 0.0014484 0 0)
(0.503587 0.0209175 -1.11993e-20 0.00109012 -1.60828e-22 7.68656e-37)
(0.407326 0.0157343 0 0.000814694 0 0)
(0.331999 0.0117318 0 0.000607645 0 0)
(0.273078 0.00865871 9.54843e-21 0.00045411 7.84237e-23 7.14795e-37)
(0.226997 0.00630355 9.11681e-21 0.000340905 5.75371e-23 6.97512e-37)
(0.190988 0.0044962 0 0.000257439 0 0)
(0.162923 0.00310267 -8.39346e-21 0.000195677 -2.3417e-23 6.6392e-37)
(0.141177 0.00202066 0 0.000149769 0 0)
(0.124507 0.00117384 7.826e-21 0.00011556 -2.93128e-24 6.31592e-37)
(0.111958 0.00050677 0 9.01297e-05 0 0)
(0.102777 -2.0195e-05 7.38678e-21 7.14568e-05 -2.37101e-23 6.0049e-37)
(0.0963559 -0.000435042 7.20876e-21 5.81862e-05 -3.24252e-23 5.85385e-37)
(0.0921883 -0.000759432 0 4.94998e-05 0 0)
(0.0898522 -0.00101097 0 4.47732e-05 0 0)
(0.0889821 -0.00120374 0 4.34329e-05 0 0)
(0.0892729 -0.00135006 0 4.49657e-05 0 0)
(0.0904789 -0.00146191 0 4.87519e-05 0 0)
(0.0924098 -0.00154966 0 5.41581e-05 0 0)
(0.0949222 -0.0016209 0 6.0744e-05 0 0)
(0.0979122 -0.0016821 6.50696e-21 6.81175e-05 -7.01902e-23 4.74676e-37)
(0.10131 -0.00173859 -6.48068e-21 7.59176e-05 7.16672e-23 4.62037e-37)
(0.105073 -0.00179363 0 8.39104e-05 0 0)
(0.109176 -0.00185052 0 9.16857e-05 0 0)
(0.113618 -0.00191262 0 9.83741e-05 0 0)
(0.118415 -0.00198111 0 0.000102886 0 0)
(0.123586 -0.00205387 -1.28857e-20 0.000104492 1.38567e-22 1.61016e-36)
(0.129149 -0.00212631 0 0.000103162 0 0)
(0.13511 -0.00219318 1.2887e-20 9.95612e-05 -1.28243e-22 1.52159e-36)
(0.141458 -0.00225056 -1.28845e-20 9.47101e-05 1.22397e-22 1.47866e-36)
(0.148172 -0.00229667 0 8.95416e-05 0 0)
(0.155219 -0.00233158 0 8.46242e-05 0 0)
(0.162567 -0.00235606 0 8.01468e-05 0 0)
(0.170181 -0.00237068 1.28264e-20 7.60455e-05 -9.91621e-23 1.31566e-36)
(0.178028 -0.00237515 1.27971e-20 7.21284e-05 -9.36136e-23 1.27701e-36)
(0.186071 -0.00236813 0 6.8156e-05 0 0)
(0.194271 -0.00234726 1.27185e-20 6.38853e-05 -8.25636e-23 1.20216e-36)
(0.202578 -0.00230956 1.26686e-20 5.9106e-05 -7.69588e-23 1.16592e-36)
(0.210931 -0.00225213 -1.26111e-20 5.36867e-05 7.12713e-23 1.13047e-36)
(0.219262 -0.00217309 0 4.7629e-05 0 0)
(0.227492 -0.00207244 0 4.11012e-05 0 0)
(0.235543 -0.00195244 -1.23906e-20 3.44158e-05 5.42275e-23 1.02863e-36)
(0.24334 -0.00181744 0 2.79537e-05 0 0)
(0.25082 -0.00167329 0 2.20654e-05 0 0)
(0.257938 -0.00152626 0 1.69912e-05 0 0)
(0.264666 -0.00138216 0 1.28311e-05 0 0)
(0.270996 -0.00124565 1.18645e-20 9.56235e-06 -3.15922e-23 8.73291e-37)
(0.276932 -0.00111997 1.17392e-20 7.08117e-06 -2.84402e-23 8.4428e-37)
(0.282494 -0.00100691 0 5.2471e-06 0 0)
(0.287705 -0.000907126 1.14737e-20 3.91669e-06 -2.33989e-23 7.88229e-37)
(0.292593 -0.000820333 0 2.96282e-06 0 0)
(0.297186 -0.000745779 0 2.28242e-06 0 0)
(0.301519 -0.00068232 1.10468e-20 1.7966e-06 -1.83288e-23 7.08917e-37)
(0.305612 -0.000628816 0 1.44776e-06 0 0)
(0.309504 -0.000584093 1.07488e-20 1.19544e-06 -1.61419e-23 6.59103e-37)
(0.313205 -0.000547221 0 1.01175e-06 0 0)