/*--------------------------------*- C++ -*----------------------------------*\
  =========                 |
  \\      /  F ield         | OpenFOAM: The Open Source CFD Toolbox
   \\    /   O peration     | Website:  https://openfoam.org
    \\  /    A nd           | Version:  10
     \\/     M anipulation  |
\*---------------------------------------------------------------------------*/
FoamFile
{
    format      ascii;
    class       volScalarField;
    location    "8200";
    object      p;
}
// * * * * * * * * * * * * * * * * * * * * * * * * * * * * * * * * * * * * * //

dimensions      [1 -1 -2 0 0 0 0];

internalField   nonuniform List<scalar> 
6400
(
111.618
111.63
111.653
111.689
111.736
111.796
111.868
111.954
112.052
112.164
112.291
112.432
112.59
112.764
112.955
113.166
113.397
113.65
113.928
114.232
114.566
114.933
115.338
115.786
116.284
116.841
117.47
118.188
119.017
119.992
121.17
122.642
124.047
125.059
126.274
127.919
399.143
743.37
1012.4
1146.3
1146.3
1012.4
743.37
399.143
127.919
126.274
125.059
124.047
122.642
121.17
119.992
119.017
118.188
117.47
116.841
116.284
115.786
115.338
114.933
114.566
114.232
113.928
113.65
113.397
113.166
112.955
112.764
112.59
112.432
112.291
112.164
112.052
111.954
111.868
111.796
111.736
111.689
111.653
111.63
111.618
111.324
111.335
111.359
111.394
111.442
111.502
111.574
111.659
111.758
111.87
111.996
112.138
112.295
112.469
112.66
112.871
113.102
113.355
113.633
113.937
114.271
114.637
115.042
115.489
115.987
116.544
117.173
117.889
118.716
119.69
120.863
122.328
123.72
124.721
125.918
127.404
131.715
468.477
752.223
886.079
886.079
752.223
468.477
131.715
127.404
125.918
124.721
123.72
122.328
120.863
119.69
118.716
117.889
117.173
116.544
115.987
115.489
115.042
114.637
114.271
113.937
113.633
113.355
113.102
112.871
112.66
112.469
112.295
112.138
111.996
111.87
111.758
111.659
111.574
111.502
111.442
111.394
111.359
111.335
111.324
111
111.012
111.035
111.071
111.118
111.178
111.25
111.335
111.434
111.546
111.672
111.814
111.971
112.145
112.336
112.547
112.777
113.031
113.308
113.611
113.945
114.311
114.715
115.162
115.659
116.215
116.841
117.555
118.379
119.347
120.511
121.959
123.324
124.298
125.452
126.86
128.755
220.016
519.14
647.51
647.51
519.14
220.016
128.755
126.86
125.452
124.298
123.324
121.959
120.511
119.347
118.379
117.555
116.841
116.215
115.659
115.162
114.715
114.311
113.945
113.611
113.308
113.031
112.777
112.547
112.336
112.145
111.971
111.814
111.672
111.546
111.434
111.335
111.25
111.178
111.118
111.071
111.035
111.012
111
110.644
110.656
110.68
110.715
110.762
110.822
110.894
110.979
111.078
111.19
111.316
111.457
111.614
111.788
111.979
112.189
112.42
112.673
112.949
113.253
113.585
113.951
114.354
114.8
115.295
115.849
116.473
117.183
118.001
118.959
120.108
121.526
122.847
123.778
124.859
126.13
127.612
141.508
352.651
454.682
454.682
352.651
141.508
127.612
126.13
124.859
123.778
122.847
121.526
120.108
118.959
118.001
117.183
116.473
115.849
115.295
114.8
114.354
113.951
113.585
113.253
112.949
112.673
112.42
112.189
111.979
111.788
111.614
111.457
111.316
111.19
111.078
110.979
110.894
110.822
110.762
110.715
110.68
110.656
110.644
110.253
110.265
110.289
110.324
110.371
110.431
110.503
110.588
110.686
110.798
110.924
111.065
111.222
111.395
111.586
111.796
112.026
112.278
112.554
112.857
113.189
113.553
113.955
114.399
114.891
115.442
116.062
116.766
117.575
118.52
119.645
121.021
122.278
123.15
124.137
125.252
126.476
132.981
261.142
329.614
329.614
261.142
132.981
126.476
125.252
124.137
123.15
122.278
121.021
119.645
118.52
117.575
116.766
116.062
115.442
114.891
114.399
113.955
113.553
113.189
112.857
112.554
112.278
112.026
111.796
111.586
111.395
111.222
111.065
110.924
110.798
110.686
110.588
110.503
110.431
110.371
110.324
110.289
110.265
110.253
109.823
109.835
109.859
109.894
109.941
110.001
110.073
110.157
110.255
110.367
110.493
110.634
110.79
110.963
111.154
111.363
111.592
111.844
112.119
112.42
112.751
113.113
113.513
113.954
114.444
114.99
115.603
116.299
117.095
118.021
119.114
120.434
121.609
122.407
123.286
124.237
125.231
128.835
212.923
259.045
259.045
212.923
128.835
125.231
124.237
123.286
122.407
121.609
120.434
119.114
118.021
117.095
116.299
115.603
114.99
114.444
113.954
113.513
113.113
112.751
112.42
112.119
111.844
111.592
111.363
111.154
110.963
110.79
110.634
110.493
110.367
110.255
110.157
110.073
110.001
109.941
109.894
109.859
109.835
109.823
109.35
109.362
109.386
109.421
109.468
109.527
109.599
109.684
109.781
109.893
110.018
110.159
110.315
110.487
110.677
110.885
111.114
111.364
111.638
111.938
112.267
112.627
113.024
113.461
113.946
114.486
115.092
115.775
116.555
117.455
118.508
119.756
120.834
121.549
122.311
123.103
123.883
126.009
182.638
214.643
214.643
182.638
126.009
123.883
123.103
122.311
121.549
120.834
119.756
118.508
117.455
116.555
115.775
115.092
114.486
113.946
113.461
113.024
112.627
112.267
111.938
111.638
111.364
111.114
110.885
110.677
110.487
110.315
110.159
110.018
109.893
109.781
109.684
109.599
109.527
109.468
109.421
109.386
109.362
109.35
108.83
108.842
108.865
108.9
108.947
109.007
109.078
109.163
109.26
109.371
109.496
109.636
109.791
109.963
110.152
110.359
110.587
110.835
111.108
111.406
111.732
112.089
112.482
112.915
113.394
113.926
114.52
115.189
115.947
116.815
117.817
118.98
119.95
120.577
121.223
121.865
122.463
123.795
161.912
183.861
183.861
161.912
123.795
122.463
121.865
121.223
120.577
119.95
118.98
117.817
116.815
115.947
115.189
114.52
113.926
113.394
112.915
112.482
112.089
111.732
111.406
111.108
110.835
110.587
110.359
110.152
109.963
109.791
109.636
109.496
109.371
109.26
109.163
109.078
109.007
108.947
108.9
108.865
108.842
108.83
108.258
108.27
108.293
108.328
108.375
108.434
108.505
108.589
108.686
108.796
108.921
109.06
109.214
109.385
109.573
109.779
110.005
110.252
110.522
110.817
111.14
111.493
111.881
112.308
112.779
113.301
113.881
114.531
115.263
116.092
117.034
118.101
118.957
119.496
120.032
120.545
120.996
121.89
147.708
162.617
162.617
147.708
121.89
120.996
120.545
120.032
119.496
118.957
118.101
117.034
116.092
115.263
114.531
113.881
113.301
112.779
112.308
111.881
111.493
111.14
110.817
110.522
110.252
110.005
109.779
109.573
109.385
109.214
109.06
108.921
108.796
108.686
108.589
108.505
108.434
108.375
108.328
108.293
108.27
108.258
107.628
107.639
107.663
107.697
107.744
107.803
107.873
107.957
108.053
108.163
108.287
108.425
108.578
108.748
108.934
109.139
109.362
109.607
109.874
110.166
110.485
110.833
111.215
111.634
112.095
112.604
113.168
113.795
114.494
115.277
116.151
117.114
117.856
118.311
118.75
119.154
119.495
120.141
138.049
148.336
148.336
138.049
120.141
119.495
119.154
118.75
118.311
117.856
117.114
116.151
115.277
114.494
113.795
113.168
112.604
112.095
111.634
111.215
110.833
110.485
110.166
109.874
109.607
109.362
109.139
108.934
108.748
108.578
108.425
108.287
108.163
108.053
107.957
107.873
107.803
107.744
107.697
107.663
107.639
107.628
106.934
106.946
106.969
107.003
107.05
107.108
107.178
107.261
107.357
107.466
107.588
107.725
107.877
108.045
108.23
108.432
108.653
108.895
109.158
109.446
109.76
110.102
110.476
110.885
111.334
111.827
112.371
112.97
113.632
114.362
115.161
116.018
116.65
117.029
117.385
117.703
117.963
118.462
131.427
138.845
138.845
131.427
118.462
117.963
117.703
117.385
117.029
116.65
116.018
115.161
114.362
113.632
112.97
112.371
111.827
111.334
110.885
110.476
110.102
109.76
109.446
109.158
108.895
108.653
108.432
108.23
108.045
107.877
107.725
107.588
107.466
107.357
107.261
107.178
107.108
107.05
107.003
106.969
106.946
106.934
106.17
106.182
106.204
106.239
106.285
106.342
106.412
106.494
106.589
106.697
106.818
106.954
107.104
107.27
107.452
107.652
107.87
108.108
108.367
108.649
108.956
109.291
109.655
110.053
110.487
110.962
111.481
112.048
112.668
113.34
114.06
114.81
115.342
115.654
115.941
116.192
116.393
116.804
126.717
132.43
132.43
126.717
116.804
116.393
116.192
115.941
115.654
115.342
114.81
114.06
113.34
112.668
112.048
111.481
110.962
110.487
110.053
109.655
109.291
108.956
108.649
108.367
108.108
107.87
107.652
107.452
107.27
107.104
106.954
106.818
106.697
106.589
106.494
106.412
106.342
106.285
106.239
106.204
106.182
106.17
105.329
105.34
105.362
105.396
105.442
105.499
105.568
105.649
105.742
105.849
105.969
106.102
106.251
106.414
106.593
106.79
107.004
107.237
107.491
107.767
108.066
108.391
108.745
109.128
109.545
109.997
110.489
111.02
111.593
112.204
112.843
113.49
113.932
114.187
114.418
114.617
114.775
115.13
123.114
127.84
127.84
123.114
115.13
114.775
114.617
114.418
114.187
113.932
113.49
112.843
112.204
111.593
111.02
110.489
109.997
109.545
109.128
108.745
108.391
108.066
107.767
107.491
107.237
107.004
106.79
106.593
106.414
106.251
106.102
105.969
105.849
105.742
105.649
105.568
105.499
105.442
105.396
105.362
105.34
105.329
104.401
104.412
104.434
104.468
104.513
104.569
104.637
104.717
104.809
104.914
105.032
105.163
105.309
105.469
105.645
105.837
106.046
106.274
106.521
106.789
107.08
107.394
107.733
108.101
108.497
108.925
109.384
109.876
110.398
110.945
111.505
112.056
112.42
112.627
112.813
112.971
113.098
113.414
120.071
124.226
124.226
120.071
113.414
113.098
112.971
112.813
112.627
112.42
112.056
111.505
110.945
110.398
109.876
109.384
108.925
108.497
108.101
107.733
107.394
107.08
106.789
106.521
106.274
106.046
105.837
105.645
105.469
105.309
105.163
105.032
104.914
104.809
104.717
104.637
104.569
104.513
104.468
104.434
104.412
104.401
103.378
103.389
103.411
103.444
103.488
103.543
103.61
103.688
103.779
103.882
103.997
104.126
104.268
104.425
104.597
104.784
104.988
105.209
105.448
105.707
105.986
106.287
106.611
106.96
107.333
107.732
108.158
108.607
109.077
109.559
110.042
110.505
110.802
110.969
111.118
111.244
111.345
111.629
117.22
121.038
121.038
117.22
111.629
111.345
111.244
111.118
110.969
110.802
110.505
110.042
109.559
109.077
108.607
108.158
107.732
107.333
106.96
106.611
106.287
105.986
105.707
105.448
105.209
104.988
104.784
104.597
104.425
104.268
104.126
103.997
103.882
103.779
103.688
103.61
103.543
103.488
103.444
103.411
103.389
103.378
102.25
102.261
102.282
102.314
102.358
102.412
102.477
102.554
102.642
102.742
102.855
102.981
103.119
103.272
103.438
103.619
103.816
104.029
104.259
104.507
104.774
105.06
105.366
105.693
106.041
106.41
106.798
107.203
107.619
108.039
108.449
108.833
109.073
109.206
109.324
109.423
109.502
109.744
114.319
117.933
117.933
114.319
109.744
109.502
109.423
109.324
109.206
109.073
108.833
108.449
108.039
107.619
107.203
106.798
106.41
106.041
105.693
105.366
105.06
104.774
104.507
104.259
104.029
103.816
103.619
103.438
103.272
103.119
102.981
102.855
102.742
102.642
102.554
102.477
102.412
102.358
102.314
102.282
102.261
102.25
100.926
100.937
100.958
100.989
101.031
101.083
101.147
101.221
101.307
101.404
101.514
101.635
101.769
101.915
102.076
102.25
102.438
102.641
102.86
103.095
103.346
103.614
103.899
104.201
104.52
104.853
105.2
105.556
105.917
106.272
106.612
106.92
107.108
107.21
107.299
107.373
107.43
107.612
111.022
114.5
114.5
111.022
107.612
107.43
107.373
107.299
107.21
107.108
106.92
106.612
106.272
105.917
105.556
105.2
104.853
104.52
104.201
103.899
103.614
103.346
103.095
102.86
102.641
102.438
102.25
102.076
101.915
101.769
101.635
101.514
101.404
101.307
101.221
101.147
101.083
101.031
100.989
100.958
100.937
100.926
99.4559
99.466
99.4861
99.5163
99.5568
99.6076
99.6688
99.7406
99.8232
99.9167
100.022
100.138
100.266
100.406
100.559
100.724
100.903
101.095
101.3
101.52
101.754
102.002
102.263
102.538
102.826
103.123
103.428
103.737
104.043
104.339
104.616
104.86
105.003
105.079
105.144
105.195
105.231
105.331
107.288
110.747
110.747
107.288
105.331
105.231
105.195
105.144
105.079
105.003
104.86
104.616
104.339
104.043
103.737
103.428
103.123
102.826
102.538
102.263
102.002
101.754
101.52
101.3
101.095
100.903
100.724
100.559
100.406
100.266
100.138
100.022
99.9167
99.8232
99.7406
99.6688
99.6076
99.5568
99.5163
99.4861
99.466
99.4559
97.9753
97.985
98.0043
98.0335
98.0724
98.1212
98.18
98.2489
98.3281
98.4178
98.518
98.6291
98.7512
98.8845
99.0293
99.1857
99.354
99.5343
99.7267
99.9312
100.148
100.376
100.615
100.864
101.121
101.385
101.653
101.919
102.179
102.426
102.652
102.845
102.954
103.011
103.056
103.09
103.11
103.133
103.635
107.213
107.213
103.635
103.133
103.11
103.09
103.056
103.011
102.954
102.845
102.652
102.426
102.179
101.919
101.653
101.385
101.121
100.864
100.615
100.376
100.148
99.9312
99.7267
99.5343
99.354
99.1857
99.0293
98.8845
98.7512
98.6291
98.518
98.4178
98.3281
98.2489
98.18
98.1212
98.0724
98.0335
98.0043
97.985
97.9753
96.485
96.4943
96.5129
96.5408
96.5781
96.6249
96.6811
96.7471
96.8227
96.9082
97.0037
97.1093
97.2251
97.3514
97.4881
97.6354
97.7933
97.9618
98.1409
98.3304
98.5298
98.7385
98.9559
99.1805
99.4106
99.6441
99.8777
100.108
100.329
100.535
100.72
100.874
100.957
100.999
101.031
101.053
101.062
101.059
101.049
104.578
104.578
101.049
101.059
101.062
101.053
101.031
100.999
100.957
100.874
100.72
100.535
100.329
100.108
99.8777
99.6441
99.4106
99.1805
98.9559
98.7385
98.5298
98.3304
98.1409
97.9618
97.7933
97.6354
97.4881
97.3514
97.2251
97.1093
97.0037
96.9082
96.8227
96.7471
96.6811
96.6249
96.5781
96.5408
96.5129
96.4943
96.485
94.9854
94.9943
95.012
95.0387
95.0743
95.119
95.1726
95.2354
95.3074
95.3887
95.4792
95.5792
95.6887
95.8077
95.9363
96.0744
96.2219
96.3788
96.5449
96.7196
96.9025
97.0929
97.2897
97.4916
97.6967
97.9027
98.1067
98.3049
98.4931
98.6659
98.8175
98.9414
99.0058
99.0377
99.0611
99.0756
99.0807
99.0758
99.0671
102.536
102.536
99.0671
99.0758
99.0807
99.0756
99.0611
99.0377
99.0058
98.9414
98.8175
98.6659
98.4931
98.3049
98.1067
97.9027
97.6967
97.4916
97.2897
97.0929
96.9025
96.7196
96.5449
96.3788
96.2219
96.0744
95.9363
95.8077
95.6887
95.5792
95.4792
95.3887
95.3074
95.2354
95.1726
95.119
95.0743
95.0387
95.012
94.9943
94.9854
93.4769
93.4854
93.5023
93.5277
93.5616
93.604
93.655
93.7146
93.7829
93.8598
93.9454
94.0397
94.1428
94.2545
94.375
94.5039
94.6413
94.7868
94.94
95.1006
95.2679
95.4409
95.6186
95.7995
95.9819
96.1634
96.3413
96.5124
96.6727
96.818
96.9433
97.0435
97.0942
97.1187
97.1363
97.1465
97.1491
97.144
97.1354
100.638
100.638
97.1354
97.144
97.1491
97.1465
97.1363
97.1187
97.0942
97.0435
96.9433
96.818
96.6727
96.5124
96.3413
96.1634
95.9819
95.7995
95.6186
95.4409
95.2679
95.1006
94.94
94.7868
94.6413
94.5039
94.375
94.2545
94.1428
94.0397
93.9454
93.8598
93.7829
93.7146
93.655
93.604
93.5616
93.5277
93.5023
93.4854
93.4769
91.96
91.968
91.9841
92.0082
92.0403
92.0805
92.1288
92.1852
92.2496
92.3222
92.4028
92.4914
92.5881
92.6927
92.8051
92.9251
93.0525
93.1869
93.3279
93.475
93.6274
93.7842
93.9442
94.106
94.2679
94.4276
94.5828
94.7305
94.8674
94.9899
95.094
95.1759
95.2161
95.2353
95.2485
95.2557
95.2567
95.2513
95.2427
98.8117
98.8117
95.2427
95.2513
95.2567
95.2557
95.2485
95.2353
95.2161
95.1759
95.094
94.9899
94.8674
94.7305
94.5828
94.4276
94.2679
94.106
93.9442
93.7842
93.6274
93.475
93.3279
93.1869
93.0525
92.9251
92.8051
92.6927
92.5881
92.4914
92.4028
92.3222
92.2496
92.1852
92.1288
92.0805
92.0403
92.0082
91.9841
91.968
91.96
90.4351
90.4427
90.4579
90.4806
90.511
90.549
90.5945
90.6476
90.7083
90.7765
90.8521
90.9352
91.0255
91.1231
91.2276
91.3389
91.4566
91.5804
91.7097
91.844
91.9825
92.1242
92.268
92.4125
92.5559
92.6965
92.8318
92.9595
93.0766
93.1802
93.2671
93.3343
93.3665
93.3815
93.3916
93.3965
93.3963
93.3908
93.3821
97.0388
97.0388
93.3821
93.3908
93.3963
93.3965
93.3916
93.3815
93.3665
93.3343
93.2671
93.1802
93.0766
92.9595
92.8318
92.6965
92.5559
92.4125
92.268
92.1242
91.9825
91.844
91.7097
91.5804
91.4566
91.3389
91.2276
91.1231
91.0255
90.9352
90.8521
90.7765
90.7083
90.6476
90.5945
90.549
90.511
90.4806
90.4579
90.4427
90.4351
88.9025
88.9097
88.924
88.9455
88.9741
89.0098
89.0526
89.1025
89.1595
89.2233
89.2941
89.3716
89.4558
89.5465
89.6433
89.7462
89.8547
89.9683
90.0866
90.2089
90.3344
90.4622
90.5911
90.7199
90.8469
90.9705
91.0885
91.199
91.2993
91.3872
91.46
91.5153
91.5412
91.5529
91.5605
91.5637
91.5625
91.5569
91.5482
95.3129
95.3129
91.5482
91.5569
91.5625
91.5637
91.5605
91.5529
91.5412
91.5153
91.46
91.3872
91.2993
91.199
91.0885
90.9705
90.8469
90.7199
90.5911
90.4622
90.3344
90.2089
90.0866
89.9683
89.8547
89.7462
89.6433
89.5465
89.4558
89.3716
89.2941
89.2233
89.1595
89.1025
89.0526
89.0098
88.9741
88.9455
88.924
88.9097
88.9025
87.3628
87.3696
87.383
87.4032
87.43
87.4636
87.5037
87.5504
87.6036
87.6633
87.7293
87.8014
87.8796
87.9636
88.0531
88.1479
88.2476
88.3516
88.4595
88.5706
88.6841
88.7991
88.9145
89.029
89.1414
89.2499
89.3529
89.4485
89.5346
89.6092
89.6703
89.716
89.7366
89.7458
89.7513
89.7532
89.7512
89.7455
89.7368
93.6305
93.6305
89.7368
89.7455
89.7512
89.7532
89.7513
89.7458
89.7366
89.716
89.6703
89.6092
89.5346
89.4485
89.3529
89.2499
89.1414
89.029
88.9145
88.7991
88.6841
88.5706
88.4595
88.3516
88.2476
88.1479
88.0531
87.9636
87.8796
87.8014
87.7293
87.6633
87.6036
87.5504
87.5037
87.4636
87.43
87.4032
87.383
87.3696
87.3628
85.8164
85.8227
85.8353
85.8542
85.8793
85.9107
85.9482
85.9918
86.0414
86.097
86.1583
86.2252
86.2976
86.3752
86.4577
86.5448
86.636
86.731
86.8292
86.9299
87.0322
87.1355
87.2386
87.3404
87.4397
87.535
87.6248
87.7074
87.7813
87.8447
87.896
87.9336
87.9501
87.9571
87.961
87.9617
87.9591
87.9533
87.9446
91.99
91.99
87.9446
87.9533
87.9591
87.9617
87.961
87.9571
87.9501
87.9336
87.896
87.8447
87.7813
87.7074
87.6248
87.535
87.4397
87.3404
87.2386
87.1355
87.0322
86.9299
86.8292
86.731
86.636
86.5448
86.4577
86.3752
86.2976
86.2252
86.1583
86.097
86.0414
85.9918
85.9482
85.9107
85.8793
85.8542
85.8353
85.8227
85.8164
84.2637
84.2696
84.2813
84.299
84.3224
84.3516
84.3866
84.4272
84.4733
84.5248
84.5816
84.6436
84.7104
84.7818
84.8576
84.9374
85.0208
85.1073
85.1964
85.2874
85.3796
85.4721
85.564
85.6544
85.7419
85.8255
85.9037
85.9752
86.0385
86.0924
86.1353
86.1662
86.1791
86.1843
86.1868
86.1865
86.1835
86.1776
86.1689
90.3915
90.3915
86.1689
86.1776
86.1835
86.1865
86.1868
86.1843
86.1791
86.1662
86.1353
86.0924
86.0385
85.9752
85.9037
85.8255
85.7419
85.6544
85.564
85.4721
85.3796
85.2874
85.1964
85.1073
85.0208
84.9374
84.8576
84.7818
84.7104
84.6436
84.5816
84.5248
84.4733
84.4272
84.3866
84.3516
84.3224
84.299
84.2813
84.2696
84.2637
82.7051
82.7105
82.7215
82.7379
82.7597
82.7869
82.8193
82.857
82.8997
82.9474
82.9999
83.057
83.1185
83.1841
83.2536
83.3265
83.4025
83.481
83.5617
83.6437
83.7265
83.8092
83.8911
83.9711
84.0482
84.1214
84.1894
84.2511
84.3053
84.3509
84.3867
84.4118
84.4217
84.4254
84.4267
84.4256
84.4221
84.4161
84.4075
88.8367
88.8367
84.4075
84.4161
84.4221
84.4256
84.4267
84.4254
84.4217
84.4118
84.3867
84.3509
84.3053
84.2511
84.1894
84.1214
84.0482
83.9711
83.8911
83.8092
83.7265
83.6437
83.5617
83.481
83.4025
83.3265
83.2536
83.1841
83.1185
83.057
82.9999
82.9474
82.8997
82.857
82.8193
82.7869
82.7597
82.7379
82.7215
82.7105
82.7051
81.1409
81.146
81.1562
81.1714
81.1917
81.2168
81.2469
81.2817
81.3212
81.3652
81.4136
81.4661
81.5225
81.5826
81.6461
81.7125
81.7816
81.8527
81.9255
81.9993
82.0735
82.1473
82.22
82.2907
82.3584
82.4223
82.4814
82.5345
82.5807
82.6191
82.6488
82.6689
82.6761
82.6785
82.6788
82.677
82.6731
82.667
82.6585
87.3289
87.3289
82.6585
82.667
82.6731
82.677
82.6788
82.6785
82.6761
82.6689
82.6488
82.6191
82.5807
82.5345
82.4814
82.4223
82.3584
82.2907
82.22
82.1473
82.0735
81.9993
81.9255
81.8527
81.7816
81.7125
81.6461
81.5826
81.5225
81.4661
81.4136
81.3652
81.3212
81.2817
81.2469
81.2168
81.1917
81.1714
81.1562
81.146
81.1409
79.5717
79.5765
79.5859
79.6
79.6187
79.6419
79.6697
79.7018
79.7382
79.7786
79.8231
79.8712
79.9229
79.9777
80.0356
80.0959
80.1585
80.2228
80.2883
80.3545
80.4208
80.4865
80.5509
80.6132
80.6726
80.7282
80.7792
80.8248
80.864
80.8961
80.9203
80.9361
80.9411
80.9423
80.9417
80.9392
80.9349
80.9287
80.9203
85.8739
85.8739
80.9203
80.9287
80.9349
80.9392
80.9417
80.9423
80.9411
80.9361
80.9203
80.8961
80.864
80.8248
80.7792
80.7282
80.6726
80.6132
80.5509
80.4865
80.4208
80.3545
80.2883
80.2228
80.1585
80.0959
80.0356
79.9777
79.9229
79.8712
79.8231
79.7786
79.7382
79.7018
79.6697
79.6419
79.6187
79.6
79.5859
79.5765
79.5717
77.9978
78.0022
78.0109
78.0239
78.0411
78.0625
78.0881
78.1176
78.151
78.1882
78.2288
78.2729
78.32
78.37
78.4225
78.4772
78.5337
78.5916
78.6504
78.7097
78.7687
78.827
78.8839
78.9386
78.9904
79.0387
79.0826
79.1214
79.1544
79.1809
79.2004
79.2123
79.2151
79.2153
79.2139
79.2108
79.2061
79.1998
79.1915
84.48
84.48
79.1915
79.1998
79.2061
79.2108
79.2139
79.2153
79.2151
79.2123
79.2004
79.1809
79.1544
79.1214
79.0826
79.0387
78.9904
78.9386
78.8839
78.827
78.7687
78.7097
78.6504
78.5916
78.5337
78.4772
78.4225
78.37
78.32
78.2729
78.2288
78.1882
78.151
78.1176
78.0881
78.0625
78.0411
78.0239
78.0109
78.0022
77.9978
76.4196
76.4236
76.4316
76.4435
76.4594
76.479
76.5025
76.5296
76.5602
76.5941
76.6313
76.6714
76.7143
76.7596
76.8072
76.8566
76.9075
76.9595
77.0122
77.065
77.1174
77.169
77.219
77.2668
77.3119
77.3535
77.3911
77.4238
77.4513
77.4728
77.488
77.4964
77.4973
77.4965
77.4943
77.4906
77.4855
77.4791
77.4709
83.1619
83.1619
77.4709
77.4791
77.4855
77.4906
77.4943
77.4965
77.4973
77.4964
77.488
77.4728
77.4513
77.4238
77.3911
77.3535
77.3119
77.2668
77.219
77.169
77.1174
77.065
77.0122
76.9595
76.9075
76.8566
76.8072
76.7596
76.7143
76.6714
76.6313
76.5941
76.5602
76.5296
76.5025
76.479
76.4594
76.4435
76.4316
76.4236
76.4196
74.8373
74.841
74.8483
74.8592
74.8738
74.8918
74.9132
74.938
74.9659
74.9969
75.0307
75.0672
75.106
75.1471
75.19
75.2345
75.2802
75.3268
75.3738
75.4207
75.4671
75.5124
75.5562
75.5979
75.6368
75.6725
75.7043
75.7316
75.7541
75.7711
75.7823
75.7875
75.7867
75.7849
75.7819
75.7776
75.7721
75.7654
75.7573
81.9402
81.9402
75.7573
75.7654
75.7721
75.7776
75.7819
75.7849
75.7867
75.7875
75.7823
75.7711
75.7541
75.7316
75.7043
75.6725
75.6368
75.5979
75.5562
75.5124
75.4671
75.4207
75.3738
75.3268
75.2802
75.2345
75.19
75.1471
75.106
75.0672
75.0307
74.9969
74.9659
74.938
74.9132
74.8918
74.8738
74.8592
74.8483
74.841
74.8373
73.2513
73.2547
73.2614
73.2714
73.2847
73.3011
73.3207
73.3433
73.3687
73.3968
73.4275
73.4605
73.4957
73.5327
73.5713
73.6112
73.6521
73.6936
73.7354
73.7769
73.8177
73.8575
73.8956
73.9316
73.965
73.9953
74.0219
74.0443
74.0623
74.0752
74.0828
74.0849
74.0823
74.0796
74.0758
74.0709
74.0649
74.0578
74.0499
80.8466
80.8466
74.0499
74.0578
74.0649
74.0709
74.0758
74.0796
74.0823
74.0849
74.0828
74.0752
74.0623
74.0443
74.0219
73.9953
73.965
73.9316
73.8956
73.8575
73.8177
73.7769
73.7354
73.6936
73.6521
73.6112
73.5713
73.5327
73.4957
73.4605
73.4275
73.3968
73.3687
73.3433
73.3207
73.3011
73.2847
73.2714
73.2614
73.2547
73.2513
71.662
71.6651
71.6712
71.6803
71.6924
71.7074
71.7252
71.7457
71.7687
71.7942
71.8219
71.8517
71.8834
71.9167
71.9513
71.987
72.0234
72.0603
72.0972
72.1337
72.1695
72.2041
72.2371
72.268
72.2964
72.3217
72.3436
72.3616
72.3754
72.3846
72.3888
72.388
72.3837
72.38
72.3753
72.3697
72.363
72.3555
72.3477
79.9341
79.9341
72.3477
72.3555
72.363
72.3697
72.3753
72.38
72.3837
72.388
72.3888
72.3846
72.3754
72.3616
72.3436
72.3217
72.2964
72.268
72.2371
72.2041
72.1695
72.1337
72.0972
72.0603
72.0234
71.987
71.9513
71.9167
71.8834
71.8517
71.8219
71.7942
71.7687
71.7457
71.7252
71.7074
71.6924
71.6803
71.6712
71.6651
71.662
70.0697
70.0724
70.078
70.0863
70.0972
70.1108
70.1269
70.1455
70.1663
70.1893
70.2143
70.2411
70.2695
70.2993
70.3302
70.362
70.3943
70.4269
70.4593
70.4913
70.5225
70.5524
70.5807
70.6069
70.6307
70.6516
70.6692
70.6832
70.6932
70.6988
70.6999
70.6962
70.6901
70.6854
70.6798
70.6733
70.6659
70.6577
70.65
79.2946
79.2946
70.65
70.6577
70.6659
70.6733
70.6798
70.6854
70.6901
70.6962
70.6999
70.6988
70.6932
70.6832
70.6692
70.6516
70.6307
70.6069
70.5807
70.5524
70.5225
70.4913
70.4593
70.4269
70.3943
70.362
70.3302
70.2993
70.2695
70.2411
70.2143
70.1893
70.1663
70.1455
70.1269
70.1108
70.0972
70.0863
70.078
70.0724
70.0697
68.4745
68.477
68.482
68.4895
68.4995
68.5117
68.5263
68.543
68.5618
68.5824
68.6049
68.6289
68.6543
68.6808
68.7083
68.7364
68.765
68.7936
68.822
68.8498
68.8767
68.9023
68.9263
68.9483
68.9679
68.9848
68.9985
69.0088
69.0152
69.0177
69.0157
69.0093
69.0013
68.9955
68.9888
68.9813
68.9729
68.9638
68.9562
79.0919
79.0919
68.9562
68.9638
68.9729
68.9813
68.9888
68.9955
69.0013
69.0093
69.0157
69.0177
69.0152
69.0088
68.9985
68.9848
68.9679
68.9483
68.9263
68.9023
68.8767
68.8498
68.822
68.7936
68.765
68.7364
68.7083
68.6808
68.6543
68.6289
68.6049
68.5824
68.5618
68.543
68.5263
68.5117
68.4995
68.4895
68.482
68.477
68.4745
66.8768
66.8791
66.8836
66.8904
66.8993
66.9104
66.9235
66.9385
66.9553
66.9738
66.9939
67.0153
67.0379
67.0614
67.0857
67.1105
67.1355
67.1605
67.1851
67.2091
67.2322
67.2539
67.274
67.2921
67.3079
67.321
67.3312
67.3381
67.3414
67.3408
67.3361
67.327
67.3171
67.3101
67.3022
67.2933
67.2837
67.2733
67.2656
79.5333
79.5333
67.2656
67.2733
67.2837
67.2933
67.3022
67.3101
67.3171
67.327
67.3361
67.3408
67.3414
67.3381
67.3312
67.321
67.3079
67.2921
67.274
67.2539
67.2322
67.2091
67.1851
67.1605
67.1355
67.1105
67.0857
67.0614
67.0379
67.0153
66.9939
66.9738
66.9553
66.9385
66.9235
66.9104
66.8993
66.8904
66.8836
66.8791
66.8768
65.2769
65.2789
65.283
65.289
65.2971
65.307
65.3187
65.3321
65.3471
65.3637
65.3815
65.4005
65.4205
65.4413
65.4626
65.4843
65.5061
65.5278
65.549
65.5695
65.5889
65.6071
65.6236
65.6382
65.6505
65.6603
65.6672
65.671
65.6714
65.6681
65.6608
65.6493
65.6376
65.6293
65.62
65.6096
65.598
65.5855
65.5771
79.5558
79.5558
65.5771
65.5855
65.598
65.6096
65.62
65.6293
65.6376
65.6493
65.6608
65.6681
65.6714
65.671
65.6672
65.6603
65.6505
65.6382
65.6236
65.6071
65.5889
65.5695
65.549
65.5278
65.5061
65.4843
65.4626
65.4413
65.4205
65.4005
65.3815
65.3637
65.3471
65.3321
65.3187
65.307
65.2971
65.289
65.283
65.2789
65.2769
63.6749
63.6767
63.6803
63.6858
63.6929
63.7018
63.7122
63.7242
63.7375
63.7522
63.7679
63.7847
63.8023
63.8205
63.8392
63.858
63.8769
63.8955
63.9135
63.9308
63.947
63.9619
63.9752
63.9865
63.9957
64.0024
64.0064
64.0074
64.0051
63.9994
63.9899
63.9763
63.9632
63.954
63.9435
63.9314
63.9171
63.8994
63.8841
65.2959
65.2959
63.8841
63.8994
63.9171
63.9314
63.9435
63.954
63.9632
63.9763
63.9899
63.9994
64.0051
64.0074
64.0064
64.0024
63.9957
63.9865
63.9752
63.9619
63.947
63.9308
63.9135
63.8955
63.8769
63.858
63.8392
63.8205
63.8023
63.7847
63.7679
63.7522
63.7375
63.7242
63.7122
63.7018
63.6929
63.6858
63.6803
63.6767
63.6749
62.0713
62.0729
62.0761
62.081
62.0873
62.0952
62.1045
62.115
62.1269
62.1398
62.1537
62.1684
62.1837
62.1996
62.2158
62.232
62.2481
62.2639
62.2791
62.2935
62.3067
62.3186
62.3289
62.3374
62.3436
62.3475
62.3488
62.3472
62.3426
62.3346
62.3233
62.3082
62.2946
62.2855
62.2755
62.2649
62.2538
62.2426
62.2323
63.5231
63.5231
62.2323
62.2426
62.2538
62.2649
62.2755
62.2855
62.2946
62.3082
62.3233
62.3346
62.3426
62.3472
62.3488
62.3475
62.3436
62.3374
62.3289
62.3186
62.3067
62.2935
62.2791
62.2639
62.2481
62.232
62.2158
62.1996
62.1837
62.1684
62.1537
62.1398
62.1269
62.115
62.1045
62.0952
62.0873
62.081
62.0761
62.0729
62.0713
60.466
60.4675
60.4704
60.4746
60.4803
60.4872
60.4954
60.5047
60.5151
60.5264
60.5385
60.5513
60.5647
60.5784
60.5923
60.6061
60.6198
60.633
60.6455
60.6572
60.6678
60.677
60.6846
60.6903
60.6939
60.6953
60.6941
60.6902
60.6833
60.6734
60.6603
60.644
60.63
60.6208
60.6111
60.601
60.5906
60.5801
60.5696
61.8691
61.8691
60.5696
60.5801
60.5906
60.601
60.6111
60.6208
60.63
60.644
60.6603
60.6734
60.6833
60.6902
60.6941
60.6953
60.6939
60.6903
60.6846
60.677
60.6678
60.6572
60.6455
60.633
60.6198
60.6061
60.5923
60.5784
60.5647
60.5513
60.5385
60.5264
60.5151
60.5047
60.4954
60.4872
60.4803
60.4746
60.4704
60.4675
60.466
58.8594
58.8606
58.8632
58.8669
58.8719
58.878
58.8851
58.8933
58.9024
58.9122
58.9227
58.9338
58.9453
58.957
58.9688
58.9804
58.9918
59.0027
59.0129
59.0221
59.0302
59.0369
59.042
59.0453
59.0466
59.0456
59.0421
59.036
59.0271
59.0153
59.0006
58.9829
58.9682
58.9587
58.9488
58.9384
58.9278
58.917
58.9059
60.2293
60.2293
58.9059
58.917
58.9278
58.9384
58.9488
58.9587
58.9682
58.9829
59.0006
59.0153
59.0271
59.036
59.0421
59.0456
59.0466
59.0453
59.042
59.0369
59.0302
59.0221
59.0129
59.0027
58.9918
58.9804
58.9688
58.957
58.9453
58.9338
58.9227
58.9122
58.9024
58.8933
58.8851
58.878
58.8719
58.8669
58.8632
58.8606
58.8594
57.2514
57.2525
57.2547
57.258
57.2624
57.2677
57.2739
57.281
57.2888
57.2973
57.3064
57.3159
57.3256
57.3355
57.3454
57.3551
57.3644
57.3731
57.3811
57.3881
57.394
57.3985
57.4013
57.4024
57.4015
57.3983
57.3927
57.3846
57.3738
57.3602
57.3437
57.3245
57.3089
57.2988
57.2882
57.2774
57.2662
57.2547
57.2429
58.5929
58.5929
57.2429
57.2547
57.2662
57.2774
57.2882
57.2988
57.3089
57.3245
57.3437
57.3602
57.3738
57.3846
57.3927
57.3983
57.4015
57.4024
57.4013
57.3985
57.394
57.3881
57.3811
57.3731
57.3644
57.3551
57.3454
57.3355
57.3256
57.3159
57.3064
57.2973
57.2888
57.281
57.2739
57.2677
57.2624
57.258
57.2547
57.2525
57.2514
55.6424
55.6433
55.6453
55.6481
55.6519
55.6565
55.6618
55.6679
55.6747
55.6819
55.6896
55.6976
55.7058
55.7141
55.7222
55.7301
55.7375
55.7443
55.7503
55.7553
55.7591
55.7616
55.7624
55.7615
55.7586
55.7534
55.746
55.736
55.7233
55.7079
55.6896
55.6687
55.6518
55.6409
55.6296
55.6179
55.6058
55.5935
55.5808
56.9579
56.9579
55.5808
55.5935
55.6058
55.6179
55.6296
55.6409
55.6518
55.6687
55.6896
55.7079
55.7233
55.736
55.746
55.7534
55.7586
55.7615
55.7624
55.7616
55.7591
55.7553
55.7503
55.7443
55.7375
55.7301
55.7222
55.7141
55.7058
55.6976
55.6896
55.6819
55.6747
55.6679
55.6618
55.6565
55.6519
55.6481
55.6453
55.6433
55.6424
54.0323
54.0332
54.0348
54.0373
54.0405
54.0444
54.049
54.0542
54.06
54.0661
54.0726
54.0792
54.086
54.0927
54.0993
54.1055
54.1112
54.1163
54.1205
54.1237
54.1257
54.1263
54.1253
54.1226
54.1178
54.111
54.1017
54.0899
54.0755
54.0583
54.0383
54.0154
53.997
53.9851
53.9728
53.9601
53.947
53.9336
53.9197
55.3233