/*--------------------------------*- C++ -*----------------------------------*\
  =========                 |
  \\      /  F ield         | OpenFOAM: The Open Source CFD Toolbox
   \\    /   O peration     | Website:  https://openfoam.org
    \\  /    A nd           | Version:  10
     \\/     M anipulation  |
\*---------------------------------------------------------------------------*/
FoamFile
{
    format      ascii;
    class       surfaceScalarField;
    location    "8200";
    object      phi;
}
// * * * * * * * * * * * * * * * * * * * * * * * * * * * * * * * * * * * * * //

dimensions      [0 3 -1 0 0 0 0];

internalField   nonuniform List<scalar> 
12640
(
-1.35143e-08
1.35143e-08
-2.70868e-08
1.35725e-08
-4.07766e-08
1.36898e-08
-5.46446e-08
1.38681e-08
-6.8755e-08
1.41104e-08
-8.31757e-08
1.44207e-08
-9.79803e-08
1.48046e-08
-1.13249e-07
1.52687e-08
-1.29071e-07
1.58219e-08
-1.45546e-07
1.64749e-08
-1.62787e-07
1.72411e-08
-1.80924e-07
1.81372e-08
-2.00108e-07
1.91837e-08
-2.20515e-07
2.04067e-08
-2.42353e-07
2.18385e-08
-2.65874e-07
2.35205e-08
-2.91379e-07
2.55054e-08
-3.19241e-07
2.78617e-08
-3.4992e-07
3.06789e-08
-3.83996e-07
3.40763e-08
-4.22211e-07
3.82154e-08
-4.6553e-07
4.33187e-08
-5.1523e-07
4.97002e-08
-5.73044e-07
5.78141e-08
-6.41381e-07
6.83369e-08
-7.23694e-07
8.2313e-08
-8.25117e-07
1.01423e-07
-9.5363e-07
1.28512e-07
-1.12233e-06
1.687e-07
-1.35427e-06
2.31936e-07
-1.69378e-06
3.39515e-07
-2.23679e-06
5.43015e-07
-2.62092e-06
3.84127e-07
-3.14321e-06
5.22284e-07
-3.87089e-06
7.27687e-07
-6.23931e-06
2.36842e-06
-1.06098e-05
4.37048e-06
-8.67111e-06
-1.93868e-06
-4.42295e-06
-4.24816e-06
-1.17031e-17
-4.42295e-06
4.42295e-06
-4.42295e-06
8.67111e-06
-4.24816e-06
1.06098e-05
-1.93868e-06
6.23931e-06
4.37048e-06
3.87089e-06
2.36842e-06
3.14321e-06
7.27687e-07
2.62092e-06
5.22284e-07
2.23679e-06
3.84127e-07
1.69378e-06
5.43015e-07
1.35427e-06
3.39515e-07
1.12233e-06
2.31936e-07
9.5363e-07
1.687e-07
8.25117e-07
1.28512e-07
7.23694e-07
1.01423e-07
6.41381e-07
8.2313e-08
5.73044e-07
6.83369e-08
5.1523e-07
5.78141e-08
4.6553e-07
4.97002e-08
4.22211e-07
4.33187e-08
3.83996e-07
3.82154e-08
3.4992e-07
3.40763e-08
3.19241e-07
3.06789e-08
2.91379e-07
2.78617e-08
2.65874e-07
2.55054e-08
2.42353e-07
2.35205e-08
2.20515e-07
2.18385e-08
2.00108e-07
2.04067e-08
1.80924e-07
1.91837e-08
1.62787e-07
1.81372e-08
1.45546e-07
1.72411e-08
1.29071e-07
1.64749e-08
1.13249e-07
1.58219e-08
9.79803e-08
1.52687e-08
8.31757e-08
1.48046e-08
6.8755e-08
1.44207e-08
5.46446e-08
1.41104e-08
4.07766e-08
1.38681e-08
2.70868e-08
1.36898e-08
1.35143e-08
1.35725e-08
1.35143e-08
-1.48201e-08
2.83344e-08
-2.97039e-08
2.84563e-08
-4.47163e-08
2.87022e-08
-5.99241e-08
2.90759e-08
-7.53975e-08
2.95837e-08
-9.1211e-08
3.02343e-08
-1.07445e-07
3.10387e-08
-1.24188e-07
3.20116e-08
-1.41537e-07
3.31711e-08
-1.59602e-07
3.45397e-08
-1.78506e-07
3.61455e-08
-1.98392e-07
3.80233e-08
-2.19425e-07
4.02165e-08
-2.41798e-07
4.27793e-08
-2.65739e-07
4.57796e-08
-2.91522e-07
4.9304e-08
-3.1948e-07
5.34628e-08
-3.50017e-07
5.83992e-08
-3.83639e-07
6.43006e-08
-4.2098e-07
7.14168e-08
-4.62849e-07
8.00851e-08
-5.10302e-07
9.0771e-08
-5.64732e-07
1.0413e-07
-6.28029e-07
1.21112e-07
-7.02819e-07
1.43126e-07
-7.92858e-07
1.72352e-07
-9.03722e-07
2.12288e-07
-1.04406e-06
2.68845e-07
-1.22799e-06
3.52639e-07
-1.48028e-06
4.84222e-07
-1.84811e-06
7.07345e-07
-2.43224e-06
1.12714e-06
-2.84146e-06
7.93352e-07
-3.39814e-06
1.07896e-06
-4.21963e-06
1.54918e-06
-4.24236e-06
2.39114e-06
-9.71019e-06
9.83832e-06
-9.01607e-06
-2.63281e-06
-4.37532e-06
-8.88892e-06
-5.25499e-18
-8.79826e-06
4.37532e-06
-8.79826e-06
9.01607e-06
-8.88892e-06
9.71019e-06
-2.63281e-06
4.24236e-06
9.83832e-06
4.21963e-06
2.39114e-06
3.39814e-06
1.54918e-06
2.84146e-06
1.07896e-06
2.43224e-06
7.93352e-07
1.84811e-06
1.12714e-06
1.48028e-06
7.07345e-07
1.22799e-06
4.84222e-07
1.04406e-06
3.52639e-07
9.03722e-07
2.68845e-07
7.92858e-07
2.12288e-07
7.02819e-07
1.72352e-07
6.28029e-07
1.43126e-07
5.64732e-07
1.21112e-07
5.10302e-07
1.0413e-07
4.62849e-07
9.0771e-08
4.2098e-07
8.00851e-08
3.83639e-07
7.14168e-08
3.50017e-07
6.43006e-08
3.1948e-07
5.83992e-08
2.91522e-07
5.34628e-08
2.65739e-07
4.9304e-08
2.41798e-07
4.57796e-08
2.19425e-07
4.27793e-08
1.98392e-07
4.02165e-08
1.78506e-07
3.80233e-08
1.59602e-07
3.61455e-08
1.41537e-07
3.45397e-08
1.24188e-07
3.31711e-08
1.07445e-07
3.20116e-08
9.1211e-08
3.10387e-08
7.53975e-08
3.02343e-08
5.99241e-08
2.95837e-08
4.47163e-08
2.90759e-08
2.97039e-08
2.87022e-08
1.48201e-08
2.84563e-08
2.83344e-08
-1.62481e-08
4.45824e-08
-3.25659e-08
4.47742e-08
-4.90246e-08
4.51608e-08
-6.56972e-08
4.57485e-08
-8.26606e-08
4.65472e-08
-9.99965e-08
4.75701e-08
-1.17793e-07
4.88352e-08
-1.36146e-07
5.0365e-08
-1.55163e-07
5.21881e-08
-1.74964e-07
5.43399e-08
-1.95683e-07
5.68647e-08
-2.17476e-07
5.98169e-08
-2.40525e-07
6.32647e-08
-2.65038e-07
6.72931e-08
-2.91268e-07
7.20089e-08
-3.19511e-07
7.75477e-08
-3.50131e-07
8.40827e-08
-3.8357e-07
9.18383e-08
-4.20378e-07
1.01108e-07
-4.61245e-07
1.12284e-07
-5.07054e-07
1.25894e-07
-5.58948e-07
1.42665e-07
-6.18441e-07
1.63624e-07
-6.8758e-07
1.9025e-07
-7.69199e-07
2.24745e-07
-8.67344e-07
2.70497e-07
-9.87992e-07
3.32937e-07
-1.14036e-06
4.21209e-07
-1.33937e-06
5.51657e-07
-1.61086e-06
7.55703e-07
-2.00306e-06
1.09955e-06
-2.61567e-06
1.73975e-06
-3.03394e-06
1.21162e-06
-3.5911e-06
1.63613e-06
-4.3846e-06
2.34268e-06
-5.67816e-06
3.6847e-06
-3.29345e-06
7.45361e-06
-9.34283e-06
3.41657e-06
-4.14648e-06
-1.40853e-05
-5.54576e-18
-1.29447e-05
4.14648e-06
-1.29447e-05
9.34283e-06
-1.40853e-05
3.29345e-06
3.41657e-06
5.67816e-06
7.45361e-06
4.3846e-06
3.6847e-06
3.5911e-06
2.34268e-06
3.03394e-06
1.63613e-06
2.61567e-06
1.21162e-06
2.00306e-06
1.73975e-06
1.61086e-06
1.09955e-06
1.33937e-06
7.55703e-07
1.14036e-06
5.51657e-07
9.87992e-07
4.21209e-07
8.67344e-07
3.32937e-07
7.69199e-07
2.70497e-07
6.8758e-07
2.24745e-07
6.18441e-07
1.9025e-07
5.58948e-07
1.63624e-07
5.07054e-07
1.42665e-07
4.61245e-07
1.25894e-07
4.20378e-07
1.12284e-07
3.8357e-07
1.01108e-07
3.50131e-07
9.18383e-08
3.19511e-07
8.40827e-08
2.91268e-07
7.75477e-08
2.65038e-07
7.20089e-08
2.40525e-07
6.72931e-08
2.17476e-07
6.32647e-08
1.95683e-07
5.98169e-08
1.74964e-07
5.68647e-08
1.55163e-07
5.43399e-08
1.36146e-07
5.21881e-08
1.17793e-07
5.0365e-08
9.99965e-08
4.88352e-08
8.26606e-08
4.75701e-08
6.56972e-08
4.65472e-08
4.90246e-08
4.57485e-08
3.25659e-08
4.51608e-08
1.62481e-08
4.47742e-08
4.45824e-08
-1.78081e-08
6.23905e-08
-3.56925e-08
6.26587e-08
-5.3731e-08
6.31992e-08
-7.20034e-08
6.4021e-08
-9.05939e-08
6.51376e-08
-1.09592e-07
6.65679e-08
-1.29093e-07
6.83365e-08
-1.49203e-07
7.04753e-08
-1.70039e-07
7.30238e-08
-1.91731e-07
7.60318e-08
-2.14427e-07
7.95606e-08
-2.38296e-07
8.36866e-08
-2.63536e-07
8.85046e-08
-2.90376e-07
9.41332e-08
-3.19089e-07
1.00721e-07
-3.49999e-07
1.08458e-07
-3.83499e-07
1.17583e-07
-4.20072e-07
1.28411e-07
-4.60313e-07
1.41349e-07
-5.0497e-07
1.56941e-07
-5.54996e-07
1.7592e-07
-6.11627e-07
1.99296e-07
-6.76491e-07
2.28488e-07
-7.51783e-07
2.65542e-07
-8.4053e-07
3.13493e-07
-9.4703e-07
3.76997e-07
-1.07758e-06
4.63491e-07
-1.2418e-06
5.85425e-07
-1.45503e-06
7.64883e-07
-1.74318e-06
1.04386e-06
-2.15298e-06
1.50935e-06
-2.77502e-06
2.36178e-06
-3.17992e-06
1.61653e-06
-3.69284e-06
2.14905e-06
-4.34196e-06
2.99179e-06
-5.04864e-06
4.39139e-06
-4.27049e-06
6.67546e-06
-6.52945e-06
5.67553e-06
-3.24606e-06
-1.73687e-05
-1.17581e-18
-1.61908e-05
3.24606e-06
-1.61908e-05
6.52945e-06
-1.73687e-05
4.27049e-06
5.67553e-06
5.04864e-06
6.67546e-06
4.34196e-06
4.39139e-06
3.69284e-06
2.99179e-06
3.17992e-06
2.14905e-06
2.77502e-06
1.61653e-06
2.15298e-06
2.36178e-06
1.74318e-06
1.50935e-06
1.45503e-06
1.04386e-06
1.2418e-06
7.64883e-07
1.07758e-06
5.85425e-07
9.4703e-07
4.63491e-07
8.4053e-07
3.76997e-07
7.51783e-07
3.13493e-07
6.76491e-07
2.65542e-07
6.11627e-07
2.28488e-07
5.54996e-07
1.99296e-07
5.0497e-07
1.7592e-07
4.60313e-07
1.56941e-07
4.20072e-07
1.41349e-07
3.83499e-07
1.28411e-07
3.49999e-07
1.17583e-07
3.19089e-07
1.08458e-07
2.90376e-07
1.00721e-07
2.63536e-07
9.41332e-08
2.38296e-07
8.85046e-08
2.14427e-07
8.36866e-08
1.91731e-07
7.95606e-08
1.70039e-07
7.60318e-08
1.49203e-07
7.30238e-08
1.29093e-07
7.04753e-08
1.09592e-07
6.83365e-08
9.05939e-08
6.65679e-08
7.20034e-08
6.51376e-08
5.3731e-08
6.4021e-08
3.56925e-08
6.31992e-08
1.78081e-08
6.26587e-08
6.23905e-08
-1.95102e-08
8.19007e-08
-3.91038e-08
8.22522e-08
-5.88655e-08
8.29609e-08
-7.88828e-08
8.40383e-08
-9.92474e-08
8.55022e-08
-1.20057e-07
8.73771e-08
-1.41416e-07
8.96955e-08
-1.63439e-07
9.24988e-08
-1.86254e-07
9.5839e-08
-2.10003e-07
9.97808e-08
-2.34847e-07
1.04405e-07
-2.60971e-07
1.0981e-07
-2.88588e-07
1.16121e-07
-3.17947e-07
1.23493e-07
-3.49345e-07
1.32119e-07
-3.83132e-07
1.42245e-07
-4.19736e-07
1.54187e-07
-4.59675e-07
1.6835e-07
-5.03593e-07
1.85267e-07
-5.52293e-07
2.05641e-07
-6.068e-07
2.30427e-07
-6.68433e-07
2.60929e-07
-7.38927e-07
2.98982e-07
-8.20607e-07
3.47222e-07
-9.16661e-07
4.09547e-07
-1.03157e-06
4.91908e-07
-1.17183e-06
6.03754e-07
-1.34719e-06
7.60784e-07
-1.57283e-06
9.90523e-07
-1.87346e-06
1.34448e-06
-2.29093e-06
1.92682e-06
-2.89762e-06
2.96847e-06
-3.2648e-06
1.98371e-06
-3.69747e-06
2.58171e-06
-4.17622e-06
3.47055e-06
-4.58442e-06
4.79959e-06
-4.59249e-06
6.68353e-06
-4.24202e-06
5.32505e-06
-2.26872e-06
-1.93419e-05
-3.51052e-18
-1.84595e-05
2.26872e-06
-1.84595e-05
4.24202e-06
-1.93419e-05
4.59249e-06
5.32505e-06
4.58442e-06
6.68353e-06
4.17622e-06
4.79959e-06
3.69747e-06
3.47055e-06
3.2648e-06
2.58171e-06
2.89762e-06
1.98371e-06
2.29093e-06
2.96847e-06
1.87346e-06
1.92682e-06
1.57283e-06
1.34448e-06
1.34719e-06
9.90523e-07
1.17183e-06
7.60784e-07
1.03157e-06
6.03754e-07
9.16661e-07
4.91908e-07
8.20607e-07
4.09547e-07
7.38927e-07
3.47222e-07
6.68433e-07
2.98982e-07
6.068e-07
2.60929e-07
5.52293e-07
2.30427e-07
5.03593e-07
2.05641e-07
4.59675e-07
1.85267e-07
4.19736e-07
1.6835e-07
3.83132e-07
1.54187e-07
3.49345e-07
1.42245e-07
3.17947e-07
1.32119e-07
2.88588e-07
1.23493e-07
2.60971e-07
1.16121e-07
2.34847e-07
1.0981e-07
2.10003e-07
1.04405e-07
1.86254e-07
9.97808e-08
1.63439e-07
9.5839e-08
1.41416e-07
9.24988e-08
1.20057e-07
8.96955e-08
9.92474e-08
8.73771e-08
7.88828e-08
8.55022e-08
5.88655e-08
8.40383e-08
3.91038e-08
8.29609e-08
1.95102e-08
8.22522e-08
8.19007e-08
-2.13643e-08
1.03265e-07
-4.28194e-08
1.03707e-07
-6.44579e-08
1.04599e-07
-8.63749e-08
1.05955e-07
-1.0867e-07
1.07798e-07
-1.3145e-07
1.10157e-07
-1.54829e-07
1.13074e-07
-1.78932e-07
1.16601e-07
-2.03896e-07
1.20803e-07
-2.29877e-07
1.25761e-07
-2.57048e-07
1.31576e-07
-2.85611e-07
1.38373e-07
-3.15797e-07
1.46307e-07
-3.47874e-07
1.5557e-07
-3.82162e-07
1.66407e-07
-4.19041e-07
1.79124e-07
-4.58967e-07
1.94114e-07
-5.025e-07
2.11883e-07
-5.50325e-07
2.33092e-07
-6.03302e-07
2.58619e-07
-6.62518e-07
2.89642e-07
-7.29367e-07
3.27778e-07
-8.05673e-07
3.75288e-07
-8.9386e-07
4.3541e-07
-9.9722e-07
5.12907e-07
-1.12032e-06
6.1501e-07
-1.26967e-06
7.53102e-07
-1.45477e-06
9.45884e-07
-1.6899e-06
1.22565e-06
-1.9969e-06
1.65149e-06
-2.40908e-06
2.339e-06
-2.97219e-06
3.53158e-06
-3.27963e-06
2.29115e-06
-3.60766e-06
2.90975e-06
-3.91099e-06
3.77387e-06
-4.07927e-06
4.96787e-06
-3.94659e-06
6.55084e-06
-3.07269e-06
4.45116e-06
-1.67861e-06
-2.0736e-05
-3.05858e-18
-2.01381e-05
1.67861e-06
-2.01381e-05
3.07269e-06
-2.0736e-05
3.94659e-06
4.45116e-06
4.07927e-06
6.55084e-06
3.91099e-06
4.96787e-06
3.60766e-06
3.77387e-06
3.27963e-06
2.90975e-06
2.97219e-06
2.29115e-06
2.40908e-06
3.53158e-06
1.9969e-06
2.339e-06
1.6899e-06
1.65149e-06
1.45477e-06
1.22565e-06
1.26967e-06
9.45884e-07
1.12032e-06
7.53102e-07
9.9722e-07
6.1501e-07
8.9386e-07
5.12907e-07
8.05673e-07
4.3541e-07
7.29367e-07
3.75288e-07
6.62518e-07
3.27778e-07
6.03302e-07
2.89642e-07
5.50325e-07
2.58619e-07
5.025e-07
2.33092e-07
4.58967e-07
2.11883e-07
4.19041e-07
1.94114e-07
3.82162e-07
1.79124e-07
3.47874e-07
1.66407e-07
3.15797e-07
1.5557e-07
2.85611e-07
1.46307e-07
2.57048e-07
1.38373e-07
2.29877e-07
1.31576e-07
2.03896e-07
1.25761e-07
1.78932e-07
1.20803e-07
1.54829e-07
1.16601e-07
1.3145e-07
1.13074e-07
1.0867e-07
1.10157e-07
8.63749e-08
1.07798e-07
6.44579e-08
1.05955e-07
4.28194e-08
1.04599e-07
2.13643e-08
1.03707e-07
1.03265e-07
-2.33799e-08
1.26645e-07
-4.68586e-08
1.27186e-07
-7.05367e-08
1.28277e-07
-9.45176e-08
1.29936e-07
-1.1891e-07
1.3219e-07
-1.43829e-07
1.35076e-07
-1.69398e-07
1.38644e-07
-1.95754e-07
1.42957e-07
-2.23045e-07
1.48094e-07
-2.51438e-07
1.54155e-07
-2.81123e-07
1.61262e-07
-3.12316e-07
1.69566e-07
-3.45264e-07
1.79255e-07
-3.80259e-07
1.90565e-07
-4.17642e-07
2.0379e-07
-4.5782e-07
2.19301e-07
-5.0128e-07
2.37574e-07
-5.48615e-07
2.59218e-07
-6.00554e-07
2.85031e-07
-6.58003e-07
3.16067e-07
-7.221e-07
3.53739e-07
-7.94299e-07
3.99977e-07
-8.76484e-07
4.57472e-07
-9.7113e-07
5.30056e-07
-1.08155e-06
6.23329e-07
-1.21226e-06
7.45722e-07
-1.36953e-06
9.10363e-07
-1.56213e-06
1.13849e-06
-1.80254e-06
1.46605e-06
-2.10794e-06
1.95689e-06
-2.49956e-06
2.73063e-06
-2.99084e-06
4.02286e-06
-3.22225e-06
2.52256e-06
-3.43322e-06
3.12072e-06
-3.56598e-06
3.90663e-06
-3.51465e-06
4.91654e-06
-3.11901e-06
6.1552e-06
-2.26855e-06
3.6007e-06
-1.27911e-06
-2.17255e-05
-5.46243e-18
-2.14172e-05
1.27911e-06
-2.14172e-05
2.26855e-06
-2.17255e-05
3.11901e-06
3.6007e-06
3.51465e-06
6.1552e-06
3.56598e-06
4.91654e-06
3.43322e-06
3.90663e-06
3.22225e-06
3.12072e-06
2.99084e-06
2.52256e-06
2.49956e-06
4.02286e-06
2.10794e-06
2.73063e-06
1.80254e-06
1.95689e-06
1.56213e-06
1.46605e-06
1.36953e-06
1.13849e-06
1.21226e-06
9.10363e-07
1.08155e-06
7.45722e-07
9.7113e-07
6.23329e-07
8.76484e-07
5.30056e-07
7.94299e-07
4.57472e-07
7.221e-07
3.99977e-07
6.58003e-07
3.53739e-07
6.00554e-07
3.16067e-07
5.48615e-07
2.85031e-07
5.0128e-07
2.59218e-07
4.5782e-07
2.37574e-07
4.17642e-07
2.19301e-07
3.80259e-07
2.0379e-07
3.45264e-07
1.90565e-07
3.12316e-07
1.79255e-07
2.81123e-07
1.69566e-07
2.51438e-07
1.61262e-07
2.23045e-07
1.54155e-07
1.95754e-07
1.48094e-07
1.69398e-07
1.42957e-07
1.43829e-07
1.38644e-07
1.1891e-07
1.35076e-07
9.45176e-08
1.3219e-07
7.05367e-08
1.29936e-07
4.68586e-08
1.28277e-07
2.33799e-08
1.27186e-07
1.26645e-07
-2.55657e-08
1.52211e-07
-5.12385e-08
1.52859e-07
-7.71275e-08
1.54166e-07
-1.03345e-07
1.56154e-07
-1.30008e-07
1.58853e-07
-1.57241e-07
1.62309e-07
-1.85179e-07
1.66582e-07
-2.13968e-07
1.71745e-07
-2.43768e-07
1.77895e-07
-2.7476e-07
1.85147e-07
-3.07147e-07
1.93649e-07
-3.4116e-07
2.03579e-07
-3.77066e-07
2.15161e-07
-4.15173e-07
2.28673e-07
-4.55846e-07
2.44463e-07
-4.99516e-07
2.62971e-07
-5.46698e-07
2.84756e-07
-5.98017e-07
3.10536e-07
-6.54233e-07
3.41248e-07
-7.16288e-07
3.78122e-07
-7.85358e-07
4.22808e-07
-8.62926e-07
4.77546e-07
-9.50895e-07
5.45441e-07
-1.05173e-06
6.30886e-07
-1.16864e-06
7.40248e-07
-1.30593e-06
8.83006e-07
-1.46927e-06
1.07371e-06
-1.66621e-06
1.33543e-06
-1.90637e-06
1.70621e-06
-2.2006e-06
2.25111e-06
-2.55546e-06
3.08549e-06
-2.95079e-06
4.41819e-06
-3.09808e-06
2.66985e-06
-3.19259e-06
3.21523e-06
-3.17486e-06
3.8889e-06
-2.95162e-06
4.69329e-06
-2.39095e-06
5.59453e-06
-1.67161e-06
2.88137e-06
-9.60767e-07
-2.24363e-05
3.26395e-19
-2.2378e-05
9.60767e-07
-2.2378e-05
1.67161e-06
-2.24363e-05
2.39095e-06
2.88137e-06
2.95162e-06
5.59453e-06
3.17486e-06
4.69329e-06
3.19259e-06
3.8889e-06
3.09808e-06
3.21523e-06
2.95079e-06
2.66985e-06
2.55546e-06
4.41819e-06
2.2006e-06
3.08549e-06
1.90637e-06
2.25111e-06
1.66621e-06
1.70621e-06
1.46927e-06
1.33543e-06
1.30593e-06
1.07371e-06
1.16864e-06
8.83006e-07
1.05173e-06
7.40248e-07
9.50895e-07
6.30886e-07
8.62926e-07
5.45441e-07
7.85358e-07
4.77546e-07
7.16288e-07
4.22808e-07
6.54233e-07
3.78122e-07
5.98017e-07
3.41248e-07
5.46698e-07
3.10536e-07
4.99516e-07
2.84756e-07
4.55846e-07
2.62971e-07
4.15173e-07
2.44463e-07
3.77066e-07
2.28673e-07
3.4116e-07
2.15161e-07
3.07147e-07
2.03579e-07
2.7476e-07
1.93649e-07
2.43768e-07
1.85147e-07
2.13968e-07
1.77895e-07
1.85179e-07
1.71745e-07
1.57241e-07
1.66582e-07
1.30008e-07
1.62309e-07
1.03345e-07
1.58853e-07
7.71275e-08
1.56154e-07
5.12385e-08
1.54166e-07
2.55657e-08
1.52859e-07
1.52211e-07
-2.79287e-08
1.80139e-07
-5.59732e-08
1.80904e-07
-8.4251e-08
1.82444e-07
-1.12883e-07
1.84786e-07
-1.41997e-07
1.87966e-07
-1.71726e-07
1.92038e-07
-2.02214e-07
1.9707e-07
-2.33619e-07
2.03151e-07
-2.66114e-07
2.10389e-07
-2.99891e-07
2.18924e-07
-3.35166e-07
2.28924e-07
-3.72186e-07
2.40599e-07
-4.11234e-07
2.54208e-07
-4.52636e-07
2.70075e-07
-4.96777e-07
2.88604e-07
-5.44107e-07
3.10301e-07
-5.95165e-07
3.35814e-07
-6.50598e-07
3.65969e-07
-7.1119e-07
4.01839e-07
-7.779e-07
4.44832e-07
-8.51915e-07
4.96823e-07
-9.34715e-07
5.60346e-07
-1.02816e-06
6.38886e-07
-1.13461e-06
7.37335e-07
-1.25706e-06
8.62702e-07
-1.39933e-06
1.02528e-06
-1.56618e-06
1.24056e-06
-1.76329e-06
1.53254e-06
-1.99654e-06
1.93946e-06
-2.26909e-06
2.52367e-06
-2.57197e-06
3.38836e-06
-2.85527e-06
4.7015e-06
-2.91964e-06
2.73422e-06
-2.91078e-06
3.20637e-06
-2.77665e-06
3.75477e-06
-2.44671e-06
4.36336e-06
-1.83746e-06
4.98527e-06
-1.23994e-06
2.28385e-06
-7.14904e-07
-2.29614e-05
2.91549e-18
-2.30929e-05
7.14904e-07
-2.30929e-05
1.23994e-06
-2.29614e-05
1.83746e-06
2.28385e-06
2.44671e-06
4.98527e-06
2.77665e-06
4.36336e-06
2.91078e-06
3.75477e-06
2.91964e-06
3.20637e-06
2.85527e-06
2.73422e-06
2.57197e-06
4.7015e-06
2.26909e-06
3.38836e-06
1.99654e-06
2.52367e-06
1.76329e-06
1.93946e-06
1.56618e-06
1.53254e-06
1.39933e-06
1.24056e-06
1.25706e-06
1.02528e-06
1.13461e-06
8.62702e-07
1.02816e-06
7.37335e-07
9.34715e-07
6.38886e-07
8.51915e-07
5.60346e-07
7.779e-07
4.96823e-07
7.1119e-07
4.44832e-07
6.50598e-07
4.01839e-07
5.95165e-07
3.65969e-07
5.44107e-07
3.35814e-07
4.96777e-07
3.10301e-07
4.52636e-07
2.88604e-07
4.11234e-07
2.70075e-07
3.72186e-07
2.54208e-07
3.35166e-07
2.40599e-07
2.99891e-07
2.28924e-07
2.66114e-07
2.18924e-07
2.33619e-07
2.10389e-07
2.02214e-07
2.03151e-07
1.71726e-07
1.9707e-07
1.41997e-07
1.92038e-07
1.12883e-07
1.87966e-07
8.4251e-08
1.84786e-07
5.59732e-08
1.82444e-07
2.79287e-08
1.80904e-07
1.80139e-07
-3.04736e-08
2.10613e-07
-6.10716e-08
2.11502e-07
-9.19205e-08
2.13293e-07
-1.2315e-07
2.16016e-07
-1.54897e-07
2.19713e-07
-1.87304e-07
2.24445e-07
-2.20526e-07
2.30292e-07
-2.54731e-07
2.37355e-07
-2.90102e-07
2.4576e-07
-3.26843e-07
2.55666e-07
-3.65185e-07
2.67266e-07
-4.05386e-07
2.808e-07
-4.47744e-07
2.96566e-07
-4.92601e-07
3.14932e-07
-5.40354e-07
3.36357e-07
-5.91472e-07
3.61419e-07
-6.46506e-07
3.90848e-07
-7.06115e-07
4.25578e-07
-7.71089e-07
4.66813e-07
-8.42382e-07
5.16126e-07
-9.2116e-07
5.75601e-07
-1.00885e-06
6.48032e-07
-1.10719e-06
7.37229e-07
-1.21833e-06
8.48479e-07
-1.34489e-06
9.89256e-07
-1.48995e-06
1.17033e-06
-1.65696e-06
1.40757e-06
-1.8492e-06
1.72478e-06
-2.06807e-06
2.15833e-06
-2.30855e-06
2.76414e-06
-2.54727e-06
3.62708e-06
-2.71308e-06
4.86731e-06
-2.70408e-06
2.72521e-06
-2.61388e-06
3.11618e-06
-2.40326e-06
3.54415e-06
-2.02717e-06
3.98726e-06
-1.44524e-06
4.40334e-06
-9.42204e-07
1.78082e-06
-5.40547e-07
-2.3363e-05
6.0817e-18
-2.36335e-05
5.40547e-07
-2.36335e-05
9.42204e-07
-2.3363e-05
1.44524e-06
1.78082e-06
2.02717e-06
4.40334e-06
2.40326e-06
3.98726e-06
2.61388e-06
3.54415e-06
2.70408e-06
3.11618e-06
2.71308e-06
2.72521e-06
2.54727e-06
4.86731e-06
2.30855e-06
3.62708e-06
2.06807e-06
2.76414e-06
1.8492e-06
2.15833e-06
1.65696e-06
1.72478e-06
1.48995e-06
1.40757e-06
1.34489e-06
1.17033e-06
1.21833e-06
9.89256e-07
1.10719e-06
8.48479e-07
1.00885e-06
7.37229e-07
9.2116e-07
6.48032e-07
8.42382e-07
5.75601e-07
7.71089e-07
5.16126e-07
7.06115e-07
4.66813e-07
6.46506e-07
4.25578e-07
5.91472e-07
3.90848e-07
5.40354e-07
3.61419e-07
4.92601e-07
3.36357e-07
4.47744e-07
3.14932e-07
4.05386e-07
2.96566e-07
3.65185e-07
2.808e-07
3.26843e-07
2.67266e-07
2.90102e-07
2.55666e-07
2.54731e-07
2.4576e-07
2.20526e-07
2.37355e-07
1.87304e-07
2.30292e-07
1.54897e-07
2.24445e-07
1.2315e-07
2.19713e-07
9.19205e-08
2.16016e-07
6.10716e-08
2.13293e-07
3.04736e-08
2.11502e-07
2.10613e-07
-3.32013e-08
2.43814e-07
-6.65356e-08
2.44836e-07
-1.00138e-07
2.46895e-07
-1.34147e-07
2.50025e-07
-1.68708e-07
2.54274e-07
-2.03973e-07
2.59711e-07
-2.40107e-07
2.66426e-07
-2.77287e-07
2.74535e-07
-3.15707e-07
2.8418e-07
-3.55581e-07
2.9554e-07
-3.9715e-07
3.08834e-07
-4.40684e-07
3.24334e-07
-4.86491e-07
3.42373e-07
-5.34924e-07
3.63365e-07
-5.86389e-07
3.87823e-07
-6.41361e-07
4.16391e-07
-7.00395e-07
4.49882e-07
-7.64144e-07
4.89327e-07
-8.33383e-07
5.36051e-07
-9.09031e-07
5.91775e-07
-9.92188e-07
6.58758e-07
-1.08416e-06
7.40003e-07
-1.18649e-06
8.39563e-07
-1.301e-06
9.62981e-07
-1.4297e-06
1.11796e-06
-1.57472e-06
1.31535e-06
-1.73785e-06
1.5707e-06
-1.91953e-06
1.90646e-06
-2.11639e-06
2.35519e-06
-2.31567e-06
2.96342e-06
-2.48289e-06
3.7943e-06
-2.53674e-06
4.92116e-06
-2.46955e-06
2.65802e-06
-2.32364e-06
2.97027e-06
-2.07342e-06
3.29393e-06
-1.69503e-06
3.60887e-06
-1.17566e-06
3.88397e-06
-7.47509e-07
1.35267e-06
-4.2735e-07
-2.36832e-05
-2.41948e-18
-2.40608e-05
4.2735e-07
-2.40608e-05
7.47509e-07
-2.36832e-05
1.17566e-06
1.35267e-06
1.69503e-06
3.88397e-06
2.07342e-06
3.60887e-06
2.32364e-06
3.29393e-06
2.46955e-06
2.97027e-06
2.53674e-06
2.65802e-06
2.48289e-06
4.92116e-06
2.31567e-06
3.7943e-06
2.11639e-06
2.96342e-06
1.91953e-06
2.35519e-06
1.73785e-06
1.90646e-06
1.57472e-06
1.5707e-06
1.4297e-06
1.31535e-06
1.301e-06
1.11796e-06
1.18649e-06
9.62981e-07
1.08416e-06
8.39563e-07
9.92188e-07
7.40003e-07
9.09031e-07
6.58758e-07
8.33383e-07
5.91775e-07
7.64144e-07
5.36051e-07
7.00395e-07
4.89327e-07
6.41361e-07
4.49882e-07
5.86389e-07
4.16391e-07
5.34924e-07
3.87823e-07
4.86491e-07
3.63365e-07
4.40684e-07
3.42373e-07
3.9715e-07
3.24334e-07
3.55581e-07
3.08834e-07
3.15707e-07
2.9554e-07
2.77287e-07
2.8418e-07
2.40107e-07
2.74535e-07
2.03973e-07
2.66426e-07
1.68708e-07
2.59711e-07
1.34147e-07
2.54274e-07
1.00138e-07
2.50025e-07
6.65356e-08
2.46895e-07
3.32013e-08
2.44836e-07
2.43814e-07
-3.61077e-08
2.79922e-07
-7.23566e-08
2.81085e-07
-1.0889e-07
2.83429e-07
-1.45854e-07
2.86989e-07
-1.83403e-07
2.91822e-07
-2.21697e-07
2.98005e-07
-2.6091e-07
3.05638e-07
-3.01225e-07
3.14851e-07
-3.42848e-07
3.25802e-07
-3.85999e-07
3.38691e-07
-4.30928e-07
3.53763e-07
-4.77911e-07
3.71318e-07
-5.27263e-07
3.91725e-07
-5.79339e-07
4.15441e-07
-6.34547e-07
4.43031e-07
-6.93357e-07
4.75201e-07
-7.56311e-07
5.12835e-07
-8.24036e-07
5.57052e-07
-8.97263e-07
6.09278e-07
-9.7684e-07
6.71352e-07
-1.06375e-06
7.45663e-07
-1.1591e-06
8.35355e-07
-1.26414e-06
9.44609e-07
-1.38021e-06
1.07905e-06
-1.50858e-06
1.24632e-06
-1.65015e-06
1.45693e-06
-1.80482e-06
1.72537e-06
-1.97001e-06
2.07166e-06
-2.13781e-06
2.52299e-06
-2.28921e-06
3.11482e-06
-2.38333e-06
3.88842e-06
-2.33983e-06
4.87766e-06
-2.23177e-06
2.54996e-06
-2.05429e-06
2.79279e-06
-1.79317e-06
3.03281e-06
-1.43876e-06
3.25446e-06
-9.91784e-07
3.43699e-06
-6.26546e-07
9.87434e-07
-3.60947e-07
-2.39488e-05
-1.0888e-18
-2.44218e-05
3.60947e-07
-2.44218e-05
6.26546e-07
-2.39488e-05
9.91784e-07
9.87434e-07
1.43876e-06
3.43699e-06
1.79317e-06
3.25446e-06
2.05429e-06
3.03281e-06
2.23177e-06
2.79279e-06
2.33983e-06
2.54996e-06
2.38333e-06
4.87766e-06
2.28921e-06
3.88842e-06
2.13781e-06
3.11482e-06
1.97001e-06
2.52299e-06
1.80482e-06
2.07166e-06
1.65015e-06
1.72537e-06
1.50858e-06
1.45693e-06
1.38021e-06
1.24632e-06
1.26414e-06
1.07905e-06
1.1591e-06
9.44609e-07
1.06375e-06
8.35355e-07
9.7684e-07
7.45663e-07
8.97263e-07
6.71352e-07
8.24036e-07
6.09278e-07
7.56311e-07
5.57052e-07
6.93357e-07
5.12835e-07
6.34547e-07
4.75201e-07
5.79339e-07
4.43031e-07
5.27263e-07
4.15441e-07
4.77911e-07
3.91725e-07
4.30928e-07
3.71318e-07
3.85999e-07
3.53763e-07
3.42848e-07
3.38691e-07
3.01225e-07
3.25802e-07
2.6091e-07
3.14851e-07
2.21697e-07
3.05638e-07
1.83403e-07
2.98005e-07
1.45854e-07
2.91822e-07
1.0889e-07
2.86989e-07
7.23566e-08
2.83429e-07
3.61077e-08
2.81085e-07
2.79922e-07
-3.91818e-08
3.19104e-07
-7.85119e-08
3.20415e-07
-1.18141e-07
3.23057e-07
-1.58222e-07
3.27071e-07
-1.98917e-07
3.32517e-07
-2.40393e-07
3.39481e-07
-2.82829e-07
3.48074e-07
-3.26417e-07
3.58439e-07
-3.71366e-07
3.70751e-07
-4.17903e-07
3.85229e-07
-4.66281e-07
4.02141e-07
-5.16778e-07
4.21815e-07
-5.69707e-07
4.44654e-07
-6.2542e-07
4.71153e-07
-6.84312e-07
5.01923e-07
-7.46833e-07
5.37722e-07
-8.13493e-07
5.79495e-07
-8.84868e-07
6.28428e-07
-9.61612e-07
6.86022e-07
-1.04445e-06
7.54192e-07
-1.13419e-06
8.354e-07
-1.23167e-06
9.32839e-07
-1.33775e-06
1.05068e-06
-1.45314e-06
1.19444e-06
-1.57821e-06
1.37139e-06
-1.7125e-06
1.59123e-06
-1.85389e-06
1.86677e-06
-1.99695e-06
2.21471e-06
-2.13001e-06
2.65605e-06
-2.2301e-06
3.2149e-06
-2.25507e-06
3.91339e-06
-2.13433e-06
4.75692e-06
-2.0017e-06
2.41734e-06
-1.81217e-06
2.60325e-06
-1.55954e-06
2.78019e-06
-1.24238e-06
2.9373e-06
-8.6694e-07
3.06155e-06
-5.53308e-07
6.73802e-07
-3.27538e-07
-2.41745e-05
3.77135e-18
-2.47493e-05
3.27538e-07
-2.47493e-05
5.53308e-07
-2.41745e-05
8.6694e-07
6.73802e-07
1.24238e-06
3.06155e-06
1.55954e-06
2.9373e-06
1.81217e-06
2.78019e-06
2.0017e-06
2.60325e-06
2.13433e-06
2.41734e-06
2.25507e-06
4.75692e-06
2.2301e-06
3.91339e-06
2.13001e-06
3.2149e-06
1.99695e-06
2.65605e-06
1.85389e-06
2.21471e-06
1.7125e-06
1.86677e-06
1.57821e-06
1.59123e-06
1.45314e-06
1.37139e-06
1.33775e-06
1.19444e-06
1.23167e-06
1.05068e-06
1.13419e-06
9.32839e-07
1.04445e-06
8.354e-07
9.61612e-07
7.54192e-07
8.84868e-07
6.86022e-07
8.13493e-07
6.28428e-07
7.46833e-07
5.79495e-07
6.84312e-07
5.37722e-07
6.2542e-07
5.01923e-07
5.69707e-07
4.71153e-07
5.16778e-07
4.44654e-07
4.66281e-07
4.21815e-07
4.17903e-07
4.02141e-07
3.71366e-07
3.85229e-07
3.26417e-07
3.70751e-07
2.82829e-07
3.58439e-07
2.40393e-07
3.48074e-07
1.98917e-07
3.39481e-07
1.58222e-07
3.32517e-07
1.18141e-07
3.27071e-07
7.85119e-08
3.23057e-07
3.91818e-08
3.20415e-07
3.19104e-07
-4.2403e-08
3.61507e-07
-8.49601e-08
3.62972e-07
-1.27827e-07
3.65924e-07
-1.71164e-07
3.70408e-07
-2.15136e-07
3.76489e-07
-2.59917e-07
3.84261e-07
-3.05688e-07
3.93846e-07
-3.52646e-07
4.05397e-07
-4.01002e-07
4.19106e-07
-4.50983e-07
4.3521e-07
-5.02839e-07
4.53996e-07
-5.56843e-07
4.75819e-07
-6.13299e-07
5.0111e-07
-6.72541e-07
5.30395e-07
-7.34939e-07
5.64322e-07
-8.00906e-07
6.03689e-07
-8.70894e-07
6.49483e-07
-9.45399e-07
7.02933e-07
-1.02496e-06
7.65579e-07
-1.11012e-06
8.39361e-07
-1.20146e-06
9.2674e-07
-1.29948e-06
1.03085e-06
-1.40451e-06
1.15572e-06
-1.51658e-06
1.3065e-06
-1.63503e-06
1.48984e-06
-1.75801e-06
1.7142e-06
-1.88147e-06
1.99023e-06
-1.99761e-06
2.33085e-06
-2.09224e-06
2.75068e-06
-2.14105e-06
3.26372e-06
-2.10511e-06
3.87746e-06
-1.92862e-06
4.58042e-06
-1.78458e-06
2.27331e-06
-1.59653e-06
2.4152e-06
-1.36327e-06
2.54692e-06
-1.08754e-06
2.66158e-06
-7.775e-07
2.75151e-06
-5.05849e-07
4.02151e-07
-3.1603e-07
-2.43644e-05
-3.19809e-18
-2.50653e-05
3.1603e-07
-2.50653e-05
5.05849e-07
-2.43644e-05
7.775e-07
4.02151e-07
1.08754e-06
2.75151e-06
1.36327e-06
2.66158e-06
1.59653e-06
2.54692e-06
1.78458e-06
2.4152e-06
1.92862e-06
2.27331e-06
2.10511e-06
4.58042e-06
2.14105e-06
3.87746e-06
2.09224e-06
3.26372e-06
1.99761e-06
2.75068e-06
1.88147e-06
2.33085e-06
1.75801e-06
1.99023e-06
1.63503e-06
1.7142e-06
1.51658e-06
1.48984e-06
1.40451e-06
1.3065e-06
1.29948e-06
1.15572e-06
1.20146e-06
1.03085e-06
1.11012e-06
9.2674e-07
1.02496e-06
8.39361e-07
9.45399e-07
7.65579e-07
8.70894e-07
7.02933e-07
8.00906e-07
6.49483e-07
7.34939e-07
6.03689e-07
6.72541e-07
5.64322e-07
6.13299e-07
5.30395e-07
5.56843e-07
5.0111e-07
5.02839e-07
4.75819e-07
4.50983e-07
4.53996e-07
4.01002e-07
4.3521e-07
3.52646e-07
4.19106e-07
3.05688e-07
4.05397e-07
2.59917e-07
3.93846e-07
2.15136e-07
3.84261e-07
1.71164e-07
3.76489e-07
1.27827e-07
3.70408e-07
8.49601e-08
3.65924e-07
4.2403e-08
3.62972e-07
3.61507e-07
-4.57389e-08
4.07245e-07
-9.16354e-08
4.08869e-07
-1.37849e-07
4.12138e-07
-1.84543e-07
4.17101e-07
-2.31884e-07
4.23831e-07
-2.80048e-07
4.32426e-07
-3.29219e-07
4.43017e-07
-3.7959e-07
4.55769e-07
-4.3137e-07
4.70886e-07
-4.84781e-07
4.88621e-07
-5.40063e-07
5.09278e-07
-5.97475e-07
5.33232e-07
-6.57299e-07
5.60933e-07
-7.19839e-07
5.92934e-07
-7.85422e-07
6.29905e-07
-8.544e-07
6.72667e-07
-9.27142e-07
7.22226e-07
-1.00403e-06
7.79822e-07
-1.08544e-06
8.46989e-07
-1.17171e-06
9.25635e-07
-1.26311e-06
1.01813e-06
-1.35971e-06
1.12745e-06
-1.4613e-06
1.25731e-06
-1.56712e-06
1.41232e-06
-1.67549e-06
1.59821e-06
-1.78324e-06
1.82195e-06
-1.88473e-06
2.09173e-06
-1.97051e-06
2.41663e-06
-2.02534e-06
2.80551e-06
-2.02598e-06
3.26436e-06
-1.9397e-06
3.79118e-06
-1.7266e-06
4.36732e-06
-1.58005e-06
2.12676e-06
-1.40085e-06
2.236e-06
-1.19038e-06
2.33646e-06
-9.52991e-07
2.42419e-06
-6.96582e-07
2.4951e-06
-4.66071e-07
1.7164e-07
-3.18776e-07
-2.45117e-05
-5.6003e-18
-2.53841e-05
3.18776e-07
-2.53841e-05
4.66071e-07
-2.45117e-05
6.96582e-07
1.7164e-07
9.52991e-07
2.4951e-06
1.19038e-06
2.42419e-06
1.40085e-06
2.33646e-06
1.58005e-06
2.236e-06
1.7266e-06
2.12676e-06
1.9397e-06
4.36732e-06
2.02598e-06
3.79118e-06
2.02534e-06
3.26436e-06
1.97051e-06
2.80551e-06
1.88473e-06
2.41663e-06
1.78324e-06
2.09173e-06
1.67549e-06
1.82195e-06
1.56712e-06
1.59821e-06
1.4613e-06
1.41232e-06
1.35971e-06
1.25731e-06
1.26311e-06
1.12745e-06
1.17171e-06
1.01813e-06
1.08544e-06
9.25635e-07
1.00403e-06
8.46989e-07
9.27142e-07
7.79822e-07
8.544e-07
7.22226e-07
7.85422e-07
6.72667e-07
7.19839e-07
6.29905e-07
6.57299e-07
5.92934e-07
5.97475e-07
5.60933e-07
5.40063e-07
5.33232e-07
4.84781e-07
5.09278e-07
4.3137e-07
4.88621e-07
3.7959e-07
4.70886e-07
3.29219e-07
4.55769e-07
2.80048e-07
4.43017e-07
2.31884e-07
4.32426e-07
1.84543e-07
4.23831e-07
1.37849e-07
4.17101e-07
9.16354e-08
4.12138e-07
4.57389e-08
4.08869e-07
4.07245e-07
-4.91418e-08
4.56387e-07
-9.84419e-08
4.58169e-07
-1.4806e-07
4.61756e-07
-1.98159e-07
4.672e-07
-2.48905e-07
4.74577e-07
-3.00471e-07
4.83992e-07
-3.53037e-07
4.95583e-07
-4.06791e-07
5.09523e-07
-4.61931e-07
5.26026e-07
-5.18666e-07
5.45356e-07
-5.77218e-07
5.6783e-07
-6.37821e-07