/*--------------------------------*- C++ -*----------------------------------*\
  =========                 |
  \\      /  F ield         | OpenFOAM: The Open Source CFD Toolbox
   \\    /   O peration     | Website:  https://openfoam.org
    \\  /    A nd           | Version:  10
     \\/     M anipulation  |
\*---------------------------------------------------------------------------*/
FoamFile
{
    format      ascii;
    class       volVectorField;
    location    "20500";
    object      Ub;
}
// * * * * * * * * * * * * * * * * * * * * * * * * * * * * * * * * * * * * * //

dimensions      [0 1 -1 0 0 0 0];

internalField   nonuniform List<vector> 
3200
(
(-1.14255e-20 -9.87882e-16 0)
(-3.4666e-20 -9.87881e-16 0)
(-5.93336e-20 -9.8788e-16 0)
(-8.69133e-20 -9.87876e-16 0)
(-1.19472e-19 -9.87871e-16 0)
(-1.60225e-19 -9.87863e-16 0)
(-2.14606e-19 -9.87848e-16 0)
(-2.92413e-19 -9.87823e-16 0)
(-4.12264e-19 -9.87776e-16 0)
(-1.84468e-15 -9.87686e-16 0)
(-6.14914e-06 -2.40221e-12 0)
(-4.67618e-05 -7.32727e-05 0)
(-8.32033e-05 -1.13991e-05 0)
(-8.60725e-05 -4.90885e-06 0)
(-8.75369e-05 -2.81039e-06 0)
(-8.85274e-05 -1.82063e-06 0)
(-8.92679e-05 -1.27017e-06 0)
(-8.98515e-05 -9.32755e-07 0)
(-9.03271e-05 -7.11709e-07 0)
(-9.07241e-05 -5.59571e-07 0)
(-9.10616e-05 -4.50735e-07 0)
(-9.13527e-05 -3.70413e-07 0)
(-9.16067e-05 -3.09584e-07 0)
(-9.18306e-05 -2.62503e-07 0)
(-9.20297e-05 -2.25377e-07 0)
(-9.2208e-05 -1.95626e-07 0)
(-9.23479e-05 -2.18978e-07 0)
(-9.13215e-05 -2.83224e-06 0)
(-8.91831e-05 -2.78648e-06 0)
(-8.72203e-05 -2.4432e-06 0)
(-8.55066e-05 -2.21857e-06 0)
(-8.39005e-05 -2.21522e-06 0)
(-8.21938e-05 -2.51577e-06 0)
(-8.01065e-05 -3.24912e-06 0)
(-7.72403e-05 -4.63522e-06 0)
(-7.2998e-05 -7.04125e-06 0)
(-6.64588e-05 -1.10681e-05 0)
(-5.61805e-05 -1.76947e-05 0)
(-3.98746e-05 -2.85493e-05 0)
(-1.64226e-05 -3.8951e-05 0)
(-1.01602e-20 -9.87851e-16 0)
(-3.06359e-20 -9.87849e-16 0)
(-5.17373e-20 -9.87844e-16 0)
(-7.40666e-20 -9.87836e-16 0)
(-9.81123e-20 -9.87824e-16 0)
(-1.24001e-19 -9.87805e-16 0)
(-1.50794e-19 -9.87776e-16 0)
(-1.74632e-19 -9.8773e-16 0)
(-1.84048e-19 -9.87655e-16 0)
(-1.48271e-19 -9.87532e-16 0)
(8.52464e-21 -9.87318e-16 0)
(2.05241e-19 -9.6788e-16 0)
(2.39183e-19 -9.24848e-16 0)
(1.69589e-19 -8.85888e-16 0)
(1.18875e-19 -8.494e-16 0)
(7.89565e-20 -8.14719e-16 0)
(4.4689e-20 -7.81484e-16 0)
(1.27602e-20 -7.49467e-16 0)
(-1.93581e-20 -7.1851e-16 0)
(-5.41009e-20 -6.885e-16 0)
(-9.44017e-20 -6.59349e-16 0)
(-1.44413e-19 -6.30989e-16 0)
(-2.10618e-19 -6.03363e-16 0)
(-3.03731e-19 -5.76424e-16 0)
(-4.58196e-19 -5.50127e-16 0)
(-1.18568e-08 -5.26314e-16 0)
(-2.52021e-05 -4.75189e-08 0)
(-5.43074e-05 -2.68008e-06 0)
(-6.01006e-05 -2.64956e-06 0)
(-6.33661e-05 -2.31856e-06 0)
(-6.59341e-05 -2.10398e-06 0)
(-6.81865e-05 -2.10899e-06 0)
(-7.04119e-05 -2.41657e-06 0)
(-7.2929e-05 -3.15594e-06 0)
(-7.61578e-05 -4.54727e-06 0)
(-8.07091e-05 -6.958e-06 0)
(-8.75124e-05 -1.09892e-05 0)
(-9.80148e-05 -1.76203e-05 0)
(-9.37905e-05 -8.72681e-05 0)
(-4.22156e-05 -0.00019617 0)
(-8.17906e-21 -9.87824e-16 0)
(-2.44426e-20 -9.87822e-16 0)
(-4.05144e-20 -9.87816e-16 0)
(-5.62718e-20 -9.87807e-16 0)
(-7.12558e-20 -9.87793e-16 0)
(-8.43983e-20 -9.87775e-16 0)
(-9.35861e-20 -9.87749e-16 0)
(-9.50562e-20 -9.87716e-16 0)
(-8.28735e-20 -9.87674e-16 0)
(-4.96394e-20 -9.8763e-16 0)
(7.66501e-21 -9.876e-16 0)
(6.59389e-20 -9.87633e-16 0)
(9.17635e-20 -9.87702e-16 0)
(8.75073e-20 -9.87745e-16 0)
(7.19968e-20 -9.87772e-16 0)
(5.25445e-20 -9.87788e-16 0)
(3.1832e-20 -9.87797e-16 0)
(1.07377e-20 -9.878e-16 0)
(-1.049e-20 -9.87798e-16 0)
(-3.16605e-20 -9.87791e-16 0)
(-5.21936e-20 -9.87777e-16 0)
(-7.04906e-20 -9.87754e-16 0)
(-8.27699e-20 -9.87719e-16 0)
(-8.07634e-20 -9.87665e-16 0)
(-4.71301e-20 -9.87583e-16 0)
(5.36241e-20 -9.8746e-16 0)
(1.85051e-19 -9.86748e-16 0)
(2.16739e-19 -9.62606e-16 0)
(1.68732e-19 -9.40323e-16 0)
(1.30756e-19 -9.18852e-16 0)
(1.00614e-19 -8.97927e-16 0)
(7.54798e-20 -8.77434e-16 0)
(5.35086e-20 -8.57276e-16 0)
(3.34822e-20 -8.37334e-16 0)
(1.45335e-20 -8.17433e-16 0)
(-4.03235e-21 -7.97317e-16 0)
(-2.62048e-14 -7.76601e-16 0)
(-5.27903e-07 -3.67513e-10 0)
(-2.13229e-05 -6.24436e-05 0)
(-1.44482e-05 -0.000393301 0)
(-6.0918e-21 -9.87804e-16 0)
(-1.80429e-20 -9.87801e-16 0)
(-2.93672e-20 -9.87796e-16 0)
(-3.96522e-20 -9.87787e-16 0)
(-4.8258e-20 -9.87776e-16 0)
(-5.42175e-20 -9.87762e-16 0)
(-5.6172e-20 -9.87744e-16 0)
(-5.24339e-20 -9.87724e-16 0)
(-4.13721e-20 -9.87704e-16 0)
(-2.24262e-20 -9.87688e-16 0)
(2.04109e-21 -9.87682e-16 0)
(2.50312e-20 -9.87692e-16 0)
(3.91062e-20 -9.87713e-16 0)
(4.29654e-20 -9.87733e-16 0)
(3.95896e-20 -9.87749e-16 0)
(3.18391e-20 -9.8776e-16 0)
(2.17373e-20 -9.87767e-16 0)
(1.06564e-20 -9.87769e-16 0)
(-3.66946e-22 -9.87766e-16 0)
(-1.03468e-20 -9.8776e-16 0)
(-1.81049e-20 -9.8775e-16 0)
(-2.20624e-20 -9.87735e-16 0)
(-2.01103e-20 -9.87716e-16 0)
(-9.72057e-21 -9.87694e-16 0)
(1.12598e-20 -9.87674e-16 0)
(4.20943e-20 -9.87664e-16 0)
(7.26076e-20 -9.87684e-16 0)
(8.76458e-20 -9.87727e-16 0)
(8.64125e-20 -9.87758e-16 0)
(7.75615e-20 -9.87779e-16 0)
(6.53722e-20 -9.87793e-16 0)
(5.18302e-20 -9.87803e-16 0)
(3.7827e-20 -9.8781e-16 0)
(2.37471e-20 -9.87815e-16 0)
(9.76496e-21 -9.87817e-16 0)
(-3.98181e-21 -9.87818e-16 0)
(-1.81747e-20 -9.87818e-16 0)
(-5.61188e-10 -1.14658e-15 0)
(-5.78246e-08 -1.03868e-05 0)
(5.7218e-08 -0.000472532 0)
(-4.27257e-21 -9.87789e-16 0)
(-1.25577e-20 -9.87787e-16 0)
(-2.01276e-20 -9.87782e-16 0)
(-2.65569e-20 -9.87776e-16 0)
(-3.13381e-20 -9.87767e-16 0)
(-3.38765e-20 -9.87757e-16 0)
(-3.35398e-20 -9.87746e-16 0)
(-2.97941e-20 -9.87735e-16 0)
(-2.24599e-20 -9.87724e-16 0)
(-1.20712e-20 -9.87717e-16 0)
(-1.86676e-22 -9.87715e-16 0)
(1.07507e-20 -9.87718e-16 0)
(1.85143e-20 -9.87726e-16 0)
(2.22727e-20 -9.87735e-16 0)
(2.24602e-20 -9.87742e-16 0)
(2.0007e-20 -9.87748e-16 0)
(1.59069e-20 -9.87752e-16 0)
(1.10729e-20 -9.87753e-16 0)
(6.33039e-21 -9.87751e-16 0)
(2.45708e-21 -9.87748e-16 0)
(2.15053e-22 -9.87742e-16 0)
(3.41716e-22 -9.87735e-16 0)
(3.46333e-21 -9.87727e-16 0)
(9.89204e-21 -9.8772e-16 0)
(1.92819e-20 -9.87716e-16 0)
(3.02063e-20 -9.87716e-16 0)
(3.99997e-20 -9.87724e-16 0)
(4.59653e-20 -9.87736e-16 0)
(4.73033e-20 -9.87749e-16 0)
(4.48429e-20 -9.8776e-16 0)
(3.96469e-20 -9.87769e-16 0)
(3.25834e-20 -9.87776e-16 0)
(2.42548e-20 -9.87781e-16 0)
(1.50267e-20 -9.87784e-16 0)
(5.0636e-21 -9.87785e-16 0)
(-5.66213e-21 -9.87785e-16 0)
(-2.02853e-20 -9.87783e-16 0)
(-1.37537e-09 -1.40437e-15 0)
(-1.29818e-09 -1.70688e-05 0)
(5.29363e-08 -0.000473025 0)
(-2.84913e-21 -9.87778e-16 0)
(-8.32141e-21 -9.87777e-16 0)
(-1.31733e-20 -9.87774e-16 0)
(-1.70674e-20 -9.87769e-16 0)
(-1.96693e-20 -9.87763e-16 0)
(-2.06659e-20 -9.87756e-16 0)
(-1.98138e-20 -9.87749e-16 0)
(-1.70177e-20 -9.87742e-16 0)
(-1.24287e-20 -9.87737e-16 0)
(-6.52753e-21 -9.87733e-16 0)
(-1.25627e-22 -9.87731e-16 0)
(5.79373e-21 -9.87732e-16 0)
(1.03951e-20 -9.87734e-16 0)
(1.32651e-20 -9.87738e-16 0)
(1.44308e-20 -9.87741e-16 0)
(1.4207e-20 -9.87744e-16 0)
(1.30453e-20 -9.87746e-16 0)
(1.14378e-20 -9.87746e-16 0)
(9.86532e-21 -9.87745e-16 0)
(8.7693e-21 -9.87744e-16 0)
(8.52714e-21 -9.87741e-16 0)
(9.41691e-21 -9.87738e-16 0)
(1.1565e-20 -9.87735e-16 0)
(1.48807e-20 -9.87733e-16 0)
(1.89976e-20 -9.87732e-16 0)
(2.32687e-20 -9.87734e-16 0)
(2.68783e-20 -9.87737e-16 0)
(2.91139e-20 -9.87742e-16 0)
(2.96333e-20 -9.87747e-16 0)
(2.84695e-20 -9.87753e-16 0)
(2.58601e-20 -9.87757e-16 0)
(2.21131e-20 -9.87761e-16 0)
(1.75356e-20 -9.87764e-16 0)
(1.24073e-20 -9.87765e-16 0)
(6.98216e-21 -9.87765e-16 0)
(1.50838e-21 -9.87763e-16 0)
(-5.61157e-21 -9.8776e-16 0)
(-7.40487e-10 -1.67858e-15 0)
(-6.12213e-10 -2.14057e-05 0)
(-4.90934e-09 -0.00047284 0)
(-1.80218e-21 -9.87772e-16 0)
(-5.23458e-21 -9.87771e-16 0)
(-8.19679e-21 -9.87768e-16 0)
(-1.04503e-20 -9.87765e-16 0)
(-1.17905e-20 -9.87761e-16 0)
(-1.20633e-20 -9.87756e-16 0)
(-1.11914e-20 -9.87752e-16 0)
(-9.20688e-21 -9.87747e-16 0)
(-6.27734e-21 -9.87744e-16 0)
(-2.71194e-21 -9.87741e-16 0)
(1.07255e-21 -9.8774e-16 0)
(4.63207e-21 -9.8774e-16 0)
(7.60171e-21 -9.8774e-16 0)
(9.7767e-21 -9.87741e-16 0)
(1.11287e-20 -9.87743e-16 0)
(1.17699e-20 -9.87744e-16 0)
(1.19006e-20 -9.87744e-16 0)
(1.17612e-20 -9.87744e-16 0)
(1.15946e-20 -9.87744e-16 0)
(1.16179e-20 -9.87743e-16 0)
(1.19988e-20 -9.87742e-16 0)
(1.28339e-20 -9.87741e-16 0)
(1.41299e-20 -9.87739e-16 0)
(1.57923e-20 -9.87739e-16 0)
(1.76278e-20 -9.87739e-16 0)
(1.93703e-20 -9.8774e-16 0)
(2.07339e-20 -9.87742e-16 0)
(2.14833e-20 -9.87744e-16 0)
(2.14876e-20 -9.87747e-16 0)
(2.07317e-20 -9.87749e-16 0)
(1.92922e-20 -9.87751e-16 0)
(1.73061e-20 -9.87753e-16 0)
(1.49461e-20 -9.87754e-16 0)
(1.24069e-20 -9.87754e-16 0)
(9.9014e-21 -9.87754e-16 0)
(7.66518e-21 -9.87753e-16 0)
(5.96607e-21 -9.87751e-16 0)
(7.10336e-21 -1.88332e-15 0)
(2.24528e-11 -2.16394e-05 0)
(-4.20508e-08 -0.000472358 0)
(-1.05552e-21 -9.87768e-16 0)
(-3.04623e-21 -9.87767e-16 0)
(-4.70841e-21 -9.87765e-16 0)
(-5.88277e-21 -9.87763e-16 0)
(-6.44723e-21 -9.8776e-16 0)
(-6.32694e-21 -9.87757e-16 0)
(-5.50574e-21 -9.87754e-16 0)
(-4.03567e-21 -9.87751e-16 0)
(-2.03962e-21 -9.87748e-16 0)
(2.98292e-22 -9.87747e-16 0)
(2.75759e-21 -9.87745e-16 0)
(5.11911e-21 -9.87744e-16 0)
(7.20525e-21 -9.87744e-16 0)
(8.90855e-21 -9.87744e-16 0)
(1.01995e-20 -9.87744e-16 0)
(1.11161e-20 -9.87745e-16 0)
(1.17434e-20 -9.87745e-16 0)
(1.21906e-20 -9.87744e-16 0)
(1.25704e-20 -9.87744e-16 0)
(1.29813e-20 -9.87744e-16 0)
(1.34937e-20 -9.87743e-16 0)
(1.41402e-20 -9.87742e-16 0)
(1.491e-20 -9.87742e-16 0)
(1.57495e-20 -9.87742e-16 0)
(1.65707e-20 -9.87742e-16 0)
(1.72659e-20 -9.87743e-16 0)
(1.77294e-20 -9.87743e-16 0)
(1.78782e-20 -9.87744e-16 0)
(1.76684e-20 -9.87746e-16 0)
(1.70999e-20 -9.87747e-16 0)
(1.62129e-20 -9.87748e-16 0)
(1.50793e-20 -9.87749e-16 0)
(1.37943e-20 -9.87749e-16 0)
(1.24677e-20 -9.87749e-16 0)
(1.12185e-20 -9.87749e-16 0)
(1.01684e-20 -9.87749e-16 0)
(9.43672e-21 -9.87748e-16 0)
(1.37586e-20 -2.13587e-15 0)
(-7.69101e-09 -2.04029e-05 0)
(-5.76865e-08 -0.00047175 0)
(-5.26784e-22 -9.87765e-16 0)
(-1.5013e-21 -9.87765e-16 0)
(-2.25915e-21 -9.87764e-16 0)
(-2.69707e-21 -9.87762e-16 0)
(-2.74231e-21 -9.8776e-16 0)
(-2.35782e-21 -9.87758e-16 0)
(-1.54613e-21 -9.87756e-16 0)
(-3.50477e-22 -9.87754e-16 0)
(1.14874e-21 -9.87752e-16 0)
(2.84324e-21 -9.8775e-16 0)
(4.61168e-21 -9.87749e-16 0)
(6.33768e-21 -9.87748e-16 0)
(7.92672e-21 -9.87747e-16 0)
(9.31755e-21 -9.87747e-16 0)
(1.04856e-20 -9.87746e-16 0)
(1.14393e-20 -9.87746e-16 0)
(1.22108e-20 -9.87746e-16 0)
(1.28457e-20 -9.87745e-16 0)
(1.33925e-20 -9.87745e-16 0)
(1.38928e-20 -9.87744e-16 0)
(1.4375e-20 -9.87744e-16 0)
(1.485e-20 -9.87744e-16 0)
(1.53094e-20 -9.87743e-16 0)
(1.57281e-20 -9.87743e-16 0)
(1.6069e-20 -9.87743e-16 0)
(1.62901e-20 -9.87743e-16 0)
(1.63531e-20 -9.87744e-16 0)
(1.62306e-20 -9.87744e-16 0)
(1.59118e-20 -9.87745e-16 0)
(1.54039e-20 -9.87745e-16 0)
(1.47316e-20 -9.87746e-16 0)
(1.39332e-20 -9.87746e-16 0)
(1.30566e-20 -9.87746e-16 0)
(1.21545e-20 -9.87747e-16 0)
(1.12787e-20 -9.87747e-16 0)
(1.04747e-20 -9.87747e-16 0)
(9.77572e-21 -9.87747e-16 0)
(1.50701e-20 -2.43642e-15 0)
(-1.59092e-08 -1.89377e-05 0)
(-6.72282e-08 -0.000471155 0)
(-1.47491e-22 -9.87764e-16 0)
(-3.93735e-22 -9.87764e-16 0)
(-5.04483e-22 -9.87763e-16 0)
(-4.13965e-22 -9.87762e-16 0)
(-7.85542e-23 -9.8776e-16 0)
(5.20728e-22 -9.87759e-16 0)
(1.37738e-21 -9.87757e-16 0)
(2.46074e-21 -9.87756e-16 0)
(3.71996e-21 -9.87754e-16 0)
(5.09051e-21 -9.87753e-16 0)
(6.50257e-21 -9.87752e-16 0)
(7.89005e-21 -9.87751e-16 0)
(9.19828e-21 -9.8775e-16 0)
(1.03891e-20 -9.87749e-16 0)
(1.14423e-20 -9.87748e-16 0)
(1.23542e-20 -9.87748e-16 0)
(1.31334e-20 -9.87747e-16 0)
(1.3796e-20 -9.87747e-16 0)
(1.43601e-20 -9.87746e-16 0)
(1.48417e-20 -9.87745e-16 0)
(1.52513e-20 -9.87745e-16 0)
(1.55922e-20 -9.87744e-16 0)
(1.58601e-20 -9.87744e-16 0)
(1.60445e-20 -9.87744e-16 0)
(1.61312e-20 -9.87744e-16 0)
(1.61055e-20 -9.87743e-16 0)
(1.59552e-20 -9.87743e-16 0)
(1.5674e-20 -9.87744e-16 0)
(1.52626e-20 -9.87744e-16 0)
(1.47297e-20 -9.87744e-16 0)
(1.40911e-20 -9.87744e-16 0)
(1.33681e-20 -9.87744e-16 0)
(1.25853e-20 -9.87744e-16 0)
(1.17677e-20 -9.87744e-16 0)
(1.09385e-20 -9.87744e-16 0)
(1.01159e-20 -9.87745e-16 0)
(9.31126e-21 -9.87745e-16 0)
(1.51561e-20 -2.7392e-15 0)
(-2.16092e-08 -1.75331e-05 0)
(-7.29525e-08 -0.000470594 0)
(1.32978e-22 -9.87764e-16 0)
(4.26317e-22 -9.87764e-16 0)
(7.98642e-22 -9.87763e-16 0)
(1.29129e-21 -9.87762e-16 0)
(1.93048e-21 -9.87761e-16 0)
(2.7261e-21 -9.8776e-16 0)
(3.67191e-21 -9.87759e-16 0)
(4.74713e-21 -9.87758e-16 0)
(5.91947e-21 -9.87756e-16 0)
(7.14927e-21 -9.87755e-16 0)
(8.39427e-21 -9.87754e-16 0)
(9.61427e-21 -9.87753e-16 0)
(1.0775e-20 -9.87752e-16 0)
(1.18505e-20 -9.87751e-16 0)
(1.2824e-20 -9.8775e-16 0)
(1.36871e-20 -9.87749e-16 0)
(1.44382e-20 -9.87748e-16 0)
(1.50799e-20 -9.87748e-16 0)
(1.56166e-20 -9.87747e-16 0)
(1.60529e-20 -9.87746e-16 0)
(1.63913e-20 -9.87746e-16 0)
(1.66323e-20 -9.87745e-16 0)
(1.67737e-20 -9.87744e-16 0)
(1.68118e-20 -9.87744e-16 0)
(1.67421e-20 -9.87743e-16 0)
(1.65608e-20 -9.87743e-16 0)
(1.62663e-20 -9.87743e-16 0)
(1.58597e-20 -9.87743e-16 0)
(1.5346e-20 -9.87742e-16 0)
(1.47337e-20 -9.87742e-16 0)
(1.40342e-20 -9.87742e-16 0)
(1.32616e-20 -9.87742e-16 0)
(1.24309e-20 -9.87742e-16 0)
(1.15568e-20 -9.87742e-16 0)
(1.06532e-20 -9.87742e-16 0)
(9.73144e-21 -9.87742e-16 0)
(8.79979e-21 -9.87742e-16 0)
(1.50014e-20 -3.02686e-15 0)
(-2.54551e-08 -1.62323e-05 0)
(-7.62896e-08 -0.000470067 0)
(3.49776e-22 -9.87765e-16 0)
(1.0619e-21 -9.87765e-16 0)
(1.81435e-21 -9.87764e-16 0)
(2.63271e-21 -9.87764e-16 0)
(3.53259e-21 -9.87763e-16 0)
(4.51895e-21 -9.87762e-16 0)
(5.58653e-21 -9.87761e-16 0)
(6.72112e-21 -9.87759e-16 0)
(7.90155e-21 -9.87758e-16 0)
(9.10229e-21 -9.87757e-16 0)
(1.02962e-20 -9.87756e-16 0)
(1.14569e-20 -9.87755e-16 0)
(1.25612e-20 -9.87754e-16 0)
(1.35898e-20 -9.87753e-16 0)
(1.45286e-20 -9.87752e-16 0)
(1.53675e-20 -9.87751e-16 0)
(1.61005e-20 -9.8775e-16 0)
(1.67241e-20 -9.87749e-16 0)
(1.72365e-20 -9.87748e-16 0)
(1.76366e-20 -9.87747e-16 0)
(1.79234e-20 -9.87746e-16 0)
(1.80956e-20 -9.87745e-16 0)
(1.81516e-20 -9.87745e-16 0)
(1.80901e-20 -9.87744e-16 0)
(1.79102e-20 -9.87743e-16 0)
(1.76124e-20 -9.87742e-16 0)
(1.71987e-20 -9.87742e-16 0)
(1.66733e-20 -9.87741e-16 0)
(1.60423e-20 -9.87741e-16 0)
(1.53143e-20 -9.8774e-16 0)
(1.44993e-20 -9.8774e-16 0)
(1.3609e-20 -9.8774e-16 0)
(1.26555e-20 -9.8774e-16 0)
(1.16511e-20 -9.8774e-16 0)
(1.0608e-20 -9.87739e-16 0)
(9.53705e-21 -9.87739e-16 0)
(8.44822e-21 -9.8774e-16 0)
(1.48761e-20 -3.30015e-15 0)
(-2.78321e-08 -1.50263e-05 0)
(-7.80354e-08 -0.000469566 0)
(5.26444e-22 -9.87766e-16 0)
(1.58162e-21 -9.87766e-16 0)
(2.65071e-21 -9.87766e-16 0)
(3.7493e-21 -9.87765e-16 0)
(4.88639e-21 -9.87764e-16 0)
(6.06413e-21 -9.87763e-16 0)
(7.27805e-21 -9.87762e-16 0)
(8.51797e-21 -9.87761e-16 0)
(9.76932e-21 -9.8776e-16 0)
(1.10146e-20 -9.87759e-16 0)
(1.22351e-20 -9.87758e-16 0)
(1.34123e-20 -9.87757e-16 0)
(1.45288e-20 -9.87756e-16 0)
(1.55695e-20 -9.87755e-16 0)
(1.65217e-20 -9.87753e-16 0)
(1.7375e-20 -9.87752e-16 0)
(1.81213e-20 -9.87751e-16 0)
(1.87542e-20 -9.8775e-16 0)
(1.92685e-20 -9.87749e-16 0)
(1.966e-20 -9.87748e-16 0)
(1.99251e-20 -9.87747e-16 0)
(2.00611e-20 -9.87745e-16 0)
(2.00657e-20 -9.87744e-16 0)
(1.99376e-20 -9.87743e-16 0)
(1.96766e-20 -9.87742e-16 0)
(1.92839e-20 -9.87742e-16 0)
(1.87625e-20 -9.87741e-16 0)
(1.81171e-20 -9.8774e-16 0)
(1.73544e-20 -9.87739e-16 0)
(1.64828e-20 -9.87738e-16 0)
(1.55126e-20 -9.87738e-16 0)
(1.44552e-20 -9.87737e-16 0)
(1.3323e-20 -9.87737e-16 0)
(1.21293e-20 -9.87737e-16 0)
(1.08874e-20 -9.87736e-16 0)
(9.61055e-21 -9.87736e-16 0)
(8.31159e-21 -9.87736e-16 0)
(1.48938e-20 -3.56459e-15 0)
(-2.91033e-08 -1.39008e-05 0)
(-7.86993e-08 -0.000469084 0)
(6.78347e-22 -9.87768e-16 0)
(2.0301e-21 -9.87768e-16 0)
(3.37763e-21 -9.87767e-16 0)
(4.73027e-21 -9.87767e-16 0)
(6.09303e-21 -9.87766e-16 0)
(7.46636e-21 -9.87765e-16 0)
(8.84639e-21 -9.87765e-16 0)
(1.02254e-20 -9.87764e-16 0)
(1.15928e-20 -9.87762e-16 0)
(1.29357e-20 -9.87761e-16 0)
(1.42402e-20 -9.8776e-16 0)
(1.54922e-20 -9.87759e-16 0)
(1.66778e-20 -9.87758e-16 0)
(1.77841e-20 -9.87756e-16 0)
(1.87993e-20 -9.87755e-16 0)
(1.97128e-20 -9.87754e-16 0)
(2.05153e-20 -9.87752e-16 0)
(2.11983e-20 -9.87751e-16 0)
(2.17545e-20 -9.8775e-16 0)
(2.21772e-20 -9.87748e-16 0)
(2.24606e-20 -9.87747e-16 0)
(2.25996e-20 -9.87746e-16 0)
(2.25902e-20 -9.87744e-16 0)
(2.24295e-20 -9.87743e-16 0)
(2.21159e-20 -9.87742e-16 0)
(2.16495e-20 -9.8774e-16 0)
(2.10321e-20 -9.87739e-16 0)
(2.02676e-20 -9.87738e-16 0)
(1.93621e-20 -9.87737e-16 0)
(1.83238e-20 -9.87736e-16 0)
(1.71629e-20 -9.87735e-16 0)
(1.58919e-20 -9.87734e-16 0)
(1.45249e-20 -9.87734e-16 0)
(1.30774e-20 -9.87733e-16 0)
(1.15664e-20 -9.87733e-16 0)
(1.0009e-20 -9.87732e-16 0)
(8.42293e-21 -9.87732e-16 0)
(1.51164e-20 -3.82803e-15 0)
(-2.94595e-08 -1.28433e-05 0)
(-7.86479e-08 -0.000468614 0)
(8.15245e-22 -9.8777e-16 0)
(2.43561e-21 -9.8777e-16 0)
(4.03923e-21 -9.8777e-16 0)
(5.63172e-21 -9.87769e-16 0)
(7.21579e-21 -9.87769e-16 0)
(8.79107e-21 -9.87768e-16 0)
(1.03542e-20 -9.87767e-16 0)
(1.18991e-20 -9.87766e-16 0)
(1.34176e-20 -9.87765e-16 0)
(1.48998e-20 -9.87764e-16 0)
(1.63346e-20 -9.87762e-16 0)
(1.77104e-20 -9.87761e-16 0)
(1.90156e-20 -9.8776e-16 0)
(2.02383e-20 -9.87758e-16 0)
(2.13673e-20 -9.87757e-16 0)
(2.23916e-20 -9.87756e-16 0)
(2.33008e-20 -9.87754e-16 0)
(2.4085e-20 -9.87752e-16 0)
(2.47344e-20 -9.87751e-16 0)
(2.524e-20 -9.87749e-16 0)
(2.55933e-20 -9.87748e-16 0)
(2.57862e-20 -9.87746e-16 0)
(2.58118e-20 -9.87744e-16 0)
(2.56638e-20 -9.87742e-16 0)
(2.53375e-20 -9.87741e-16 0)
(2.48297e-20 -9.87739e-16 0)
(2.41392e-20 -9.87737e-16 0)
(2.3267e-20 -9.87736e-16 0)
(2.22168e-20 -9.87734e-16 0)
(2.0995e-20 -9.87733e-16 0)
(1.96111e-20 -9.87732e-16 0)
(1.80779e-20 -9.87731e-16 0)
(1.64115e-20 -9.8773e-16 0)
(1.46309e-20 -9.87729e-16 0)
(1.2758e-20 -9.87728e-16 0)
(1.08166e-20 -9.87728e-16 0)
(8.83218e-21 -9.87727e-16 0)
(1.56411e-20 -4.09528e-15 0)
(-2.89855e-08 -1.18432e-05 0)
(-7.81679e-08 -0.000468146 0)
(9.43057e-22 -9.87773e-16 0)
(2.81529e-21 -9.87773e-16 0)
(4.66209e-21 -9.87772e-16 0)
(6.48717e-21 -9.87772e-16 0)
(8.29221e-21 -9.87771e-16 0)
(1.00767e-20 -9.8777e-16 0)
(1.18379e-20 -9.8777e-16 0)
(1.3571e-20 -9.87769e-16 0)
(1.52696e-20 -9.87767e-16 0)
(1.69258e-20 -9.87766e-16 0)
(1.85304e-20 -9.87765e-16 0)
(2.00737e-20 -9.87764e-16 0)
(2.15452e-20 -9.87762e-16 0)
(2.2934e-20 -9.87761e-16 0)
(2.4229e-20 -9.87759e-16 0)
(2.54189e-20 -9.87758e-16 0)
(2.64923e-20 -9.87756e-16 0)
(2.74375e-20 -9.87754e-16 0)
(2.82428e-20 -9.87752e-16 0)
(2.88965e-20 -9.8775e-16 0)
(2.93866e-20 -9.87748e-16 0)
(2.97015e-20 -9.87746e-16 0)
(2.98298e-20 -9.87744e-16 0)
(2.97606e-20 -9.87742e-16 0)
(2.94839e-20 -9.8774e-16 0)
(2.89909e-20 -9.87738e-16 0)
(2.82743e-20 -9.87736e-16 0)
(2.73293e-20 -9.87734e-16 0)
(2.61536e-20 -9.87732e-16 0)
(2.47487e-20 -9.8773e-16 0)
(2.31201e-20 -9.87728e-16 0)
(2.12783e-20 -9.87726e-16 0)
(1.92392e-20 -9.87725e-16 0)
(1.70247e-20 -9.87723e-16 0)
(1.46628e-20 -9.87722e-16 0)
(1.21869e-20 -9.87722e-16 0)
(9.63554e-21 -9.87721e-16 0)
(1.65359e-20 -4.36661e-15 0)
(-2.78026e-08 -1.08926e-05 0)
(-7.75046e-08 -0.000467668 0)
(1.06502e-21 -9.87776e-16 0)
(3.17842e-21 -9.87775e-16 0)
(5.26045e-21 -9.87775e-16 0)
(7.31426e-21 -9.87775e-16 0)
(9.34145e-21 -9.87774e-16 0)
(1.13419e-20 -9.87773e-16 0)
(1.33138e-20 -9.87773e-16 0)
(1.52538e-20 -9.87772e-16 0)
(1.71569e-20 -9.8777e-16 0)
(1.90167e-20 -9.87769e-16 0)
(2.0826e-20 -9.87768e-16 0)
(2.25762e-20 -9.87767e-16 0)
(2.42581e-20 -9.87765e-16 0)
(2.58616e-20 -9.87763e-16 0)
(2.73759e-20 -9.87762e-16 0)
(2.87895e-20 -9.8776e-16 0)
(3.00902e-20 -9.87758e-16 0)
(3.12651e-20 -9.87756e-16 0)
(3.23005e-20 -9.87754e-16 0)
(3.31819e-20 -9.87752e-16 0)
(3.38941e-20 -9.87749e-16 0)
(3.44211e-20 -9.87747e-16 0)
(3.47465e-20 -9.87744e-16 0)
(3.48531e-20 -9.87742e-16 0)
(3.47236e-20 -9.87739e-16 0)
(3.43409e-20 -9.87736e-16 0)
(3.36883e-20 -9.87734e-16 0)
(3.27503e-20 -9.87731e-16 0)
(3.15136e-20 -9.87728e-16 0)
(2.9968e-20 -9.87726e-16 0)
(2.81076e-20 -9.87723e-16 0)
(2.59329e-20 -9.87721e-16 0)
(2.34525e-20 -9.87719e-16 0)
(2.0685e-20 -9.87717e-16 0)
(1.76611e-20 -9.87715e-16 0)
(1.44251e-20 -9.87714e-16 0)
(1.10353e-20 -9.87713e-16 0)
(1.79651e-20 -4.65336e-15 0)
(-2.62e-08 -9.98534e-06 0)
(-7.68973e-08 -0.000467172 0)
(1.18245e-21 -9.87779e-16 0)
(3.52868e-21 -9.87779e-16 0)
(5.83967e-21 -9.87778e-16 0)
(8.11898e-21 -9.87778e-16 0)
(1.03689e-20 -9.87777e-16 0)
(1.25903e-20 -9.87777e-16 0)
(1.47827e-20 -9.87776e-16 0)
(1.69442e-20 -9.87775e-16 0)
(1.90713e-20 -9.87774e-16 0)
(2.11596e-20 -9.87773e-16 0)
(2.32034e-20 -9.87771e-16 0)
(2.51956e-20 -9.8777e-16 0)
(2.71286e-20 -9.87768e-16 0)
(2.89932e-20 -9.87767e-16 0)
(3.07794e-20 -9.87765e-16 0)
(3.24762e-20 -9.87763e-16 0)
(3.40712e-20 -9.87761e-16 0)
(3.5551e-20 -9.87758e-16 0)
(3.69005e-20 -9.87756e-16 0)
(3.81034e-20 -9.87754e-16 0)
(3.91418e-20 -9.87751e-16 0)
(3.99958e-20 -9.87748e-16 0)
(4.06439e-20 -9.87745e-16 0)
(4.10626e-20 -9.87742e-16 0)
(4.12263e-20 -9.87739e-16 0)
(4.11077e-20 -9.87736e-16 0)
(4.06773e-20 -9.87732e-16 0)
(3.99046e-20 -9.87729e-16 0)
(3.87577e-20 -9.87725e-16 0)
(3.7205e-20 -9.87722e-16 0)
(3.52167e-20 -9.87718e-16 0)
(3.27666e-20 -9.87715e-16 0)
(2.9836e-20 -9.87711e-16 0)
(2.64186e-20 -9.87708e-16 0)
(2.25265e-20 -9.87705e-16 0)
(1.81987e-20 -9.87703e-16 0)
(1.35105e-20 -9.87701e-16 0)
(2.03829e-20 -4.99009e-15 0)
(-2.45195e-08 -9.11711e-06 0)
(-7.65924e-08 -0.000466648 0)
(1.29524e-21 -9.87782e-16 0)
(3.86562e-21 -9.87782e-16 0)
(6.39843e-21 -9.87782e-16 0)
(8.89846e-21 -9.87782e-16 0)
(1.13693e-20 -9.87781e-16 0)
(1.38134e-20 -9.8778e-16 0)
(1.62318e-20 -9.8778e-16 0)
(1.86244e-20 -9.87779e-16 0)
(2.09898e-20 -9.87777e-16 0)
(2.33253e-20 -9.87776e-16 0)
(2.56273e-20 -9.87775e-16 0)
(2.78909e-20 -9.87773e-16 0)
(3.01099e-20 -9.87772e-16 0)
(3.22771e-20 -9.8777e-16 0)
(3.43841e-20 -9.87768e-16 0)
(3.64211e-20 -9.87766e-16 0)
(3.83768e-20 -9.87764e-16 0)
(4.02384e-20 -9.87762e-16 0)
(4.19913e-20 -9.87759e-16 0)
(4.36187e-20 -9.87756e-16 0)
(4.51018e-20 -9.87753e-16 0)
(4.64189e-20 -9.8775e-16 0)
(4.75454e-20 -9.87747e-16 0)
(4.84534e-20 -9.87743e-16 0)
(4.9111e-20 -9.8774e-16 0)
(4.94818e-20 -9.87736e-16 0)
(4.95242e-20 -9.87731e-16 0)
(4.91912e-20 -9.87727e-16 0)
(4.84287e-20 -9.87722e-16 0)
(4.7176e-20 -9.87718e-16 0)
(4.53645e-20 -9.87713e-16 0)
(4.29181e-20 -9.87708e-16 0)
(3.97546e-20 -9.87703e-16 0)
(3.57892e-20 -9.87698e-16 0)
(3.09422e-20 -9.87693e-16 0)
(2.51554e-20 -9.87689e-16 0)
(1.84227e-20 -9.87685e-16 0)
(2.55261e-20 -5.33336e-15 0)
(-2.09881e-08 -8.28461e-06 0)
(-7.65107e-08 -0.000466077 0)
(1.40225e-21 -9.87786e-16 0)
(4.18564e-21 -9.87786e-16 0)
(6.93039e-21 -9.87786e-16 0)
(9.64306e-21 -9.87786e-16 0)
(1.23291e-20 -9.87785e-16 0)
(1.49928e-20 -9.87784e-16 0)
(1.76372e-20 -9.87784e-16 0)
(2.02644e-20 -9.87783e-16 0)
(2.28751e-20 -9.87782e-16 0)
(2.54692e-20 -9.8778e-16 0)
(2.80452e-20 -9.87779e-16 0)
(3.06008e-20 -9.87778e-16 0)
(3.31322e-20 -9.87776e-16 0)
(3.5635e-20 -9.87774e-16 0)
(3.8103e-20 -9.87772e-16 0)
(4.05291e-20 -9.8777e-16 0)
(4.29046e-20 -9.87768e-16 0)
(4.52189e-20 -9.87766e-16 0)
(4.746e-20 -9.87763e-16 0)
(4.96133e-20 -9.8776e-16 0)
(5.16619e-20 -9.87757e-16 0)
(5.3586e-20 -9.87753e-16 0)
(5.53623e-20 -9.8775e-16 0)
(5.69634e-20 -9.87746e-16 0)
(5.8357e-20 -9.87742e-16 0)
(5.95048e-20 -9.87737e-16 0)
(6.03615e-20 -9.87732e-16 0)
(6.08723e-20 -9.87727e-16 0)
(6.09715e-20 -9.87721e-16 0)
(6.05783e-20 -9.87715e-16 0)
(5.95931e-20 -9.87709e-16 0)
(5.78902e-20 -9.87702e-16 0)
(5.53085e-20 -9.87694e-16 0)
(5.16359e-20 -9.87686e-16 0)
(4.65863e-20 -9.87678e-16 0)
(3.97619e-20 -9.8767e-16 0)
(3.05918e-20 -9.87661e-16 0)
(4.37652e-20 -5.69039e-15 0)
(1.80246e-08 -7.48393e-06 0)
(-7.51592e-08 -0.000465096 0)
(1.50153e-21 -9.87791e-16 0)
(4.48289e-21 -9.8779e-16 0)
(7.42549e-21 -9.8779e-16 0)
(1.03381e-20 -9.8779e-16 0)
(1.32282e-20 -9.87789e-16 0)
(1.61025e-20 -9.87789e-16 0)
(1.89662e-20 -9.87788e-16 0)
(2.18238e-20 -9.87787e-16 0)
(2.46786e-20 -9.87786e-16 0)
(2.7533e-20 -9.87785e-16 0)
(3.03885e-20 -9.87784e-16 0)
(3.32455e-20 -9.87782e-16 0)
(3.61037e-20 -9.87781e-16 0)
(3.89617e-20 -9.87779e-16 0)
(4.18169e-20 -9.87777e-16 0)
(4.4666e-20 -9.87775e-16 0)
(4.75042e-20 -9.87773e-16 0)
(5.03253e-20 -9.87771e-16 0)
(5.31219e-20 -9.87768e-16 0)
(5.58845e-20 -9.87765e-16 0)
(5.86018e-20 -9.87762e-16 0)
(6.12599e-20 -9.87758e-16 0)
(6.38425e-20 -9.87754e-16 0)
(6.63295e-20 -9.8775e-16 0)
(6.86973e-20 -9.87745e-16 0)
(7.09173e-20 -9.8774e-16 0)
(7.29554e-20 -9.87735e-16 0)
(7.47702e-20 -9.87729e-16 0)
(7.63121e-20 -9.87723e-16 0)
(7.75208e-20 -9.87715e-16 0)
(7.83233e-20 -9.87708e-16 0)
(7.86307e-20 -9.87699e-16 0)
(7.83357e-20 -9.8769e-16 0)
(7.73088e-20 -9.87679e-16 0)
(7.53962e-20 -9.87667e-16 0)
(7.24209e-20 -9.87654e-16 0)
(6.81885e-20 -9.8764e-16 0)
(2.10157e-19 -6.06706e-15 0)
(7.27822e-10 -6.70011e-06 0)
(-1.40219e-07 -0.000459312 0)
(1.59066e-21 -9.87795e-16 0)
(4.74998e-21 -9.87795e-16 0)
(7.87114e-21 -9.87795e-16 0)
(1.09653e-20 -9.87794e-16 0)
(1.40423e-20 -9.87794e-16 0)
(1.71112e-20 -9.87793e-16 0)
(2.01797e-20 -9.87793e-16 0)
(2.32547e-20 -9.87792e-16 0)
(2.63424e-20 -9.87791e-16 0)
(2.9448e-20 -9.8779e-16 0)
(3.2576e-20 -9.87789e-16 0)
(3.57302e-20 -9.87788e-16 0)
(3.89137e-20 -9.87786e-16 0)
(4.21292e-20 -9.87785e-16 0)
(4.53783e-20 -9.87783e-16 0)
(4.86622e-20 -9.87781e-16 0)
(5.19813e-20 -9.87779e-16 0)
(5.53354e-20 -9.87777e-16 0)
(5.87231e-20 -9.87774e-16 0)
(6.21425e-20 -9.87771e-16 0)
(6.55904e-20 -9.87768e-16 0)
(6.90626e-20 -9.87765e-16 0)
(7.25535e-20 -9.87761e-16 0)
(7.60564e-20 -9.87757e-16 0)
(7.95629e-20 -9.87752e-16 0)
(8.30629e-20 -9.87747e-16 0)
(8.65448e-20 -9.87741e-16 0)
(8.99951e-20 -9.87735e-16 0)
(9.33987e-20 -9.87728e-16 0)
(9.6739e-20 -9.87721e-16 0)
(9.99986e-20 -9.87712e-16 0)
(1.03161e-19 -9.87703e-16 0)
(1.0621e-19 -9.87693e-16 0)
(1.09138e-19 -9.87681e-16 0)
(1.11947e-19 -9.87668e-16 0)
(1.14656e-19 -9.87653e-16 0)
(1.17317e-19 -9.87636e-16 0)
(4.43964e-19 -6.45594e-15 0)
(1.40567e-09 -5.96835e-06 0)
(-2.03267e-07 -0.000443345 0)
(1.66692e-21 -9.878e-16 0)
(4.97869e-21 -9.878e-16 0)
(8.25343e-21 -9.87799e-16 0)
(1.15047e-20 -9.87799e-16 0)
(1.47447e-20 -9.87799e-16 0)
(1.79847e-20 -9.87798e-16 0)
(2.12351e-20 -9.87798e-16 0)
(2.45053e-20 -9.87797e-16 0)
(2.7804e-20 -9.87796e-16 0)
(3.11394e-20 -9.87796e-16 0)
(3.45191e-20 -9.87795e-16 0)
(3.79504e-20 -9.87794e-16 0)
(4.14402e-20 -9.87792e-16 0)
(4.49949e-20 -9.87791e-16 0)
(4.86209e-20 -9.87789e-16 0)
(5.23245e-20 -9.87788e-16 0)
(5.61115e-20 -9.87786e-16 0)
(5.99881e-20 -9.87784e-16 0)
(6.39601e-20 -9.87781e-16 0)
(6.80337e-20 -9.87779e-16 0)
(7.2215e-20 -9.87776e-16 0)
(7.65104e-20 -9.87773e-16 0)
(8.09271e-20 -9.87769e-16 0)
(8.54725e-20 -9.87765e-16 0)
(9.01556e-20 -9.87761e-16 0)
(9.49864e-20 -9.87756e-16 0)
(9.99773e-20 -9.87751e-16 0)
(1.05144e-19 -9.87745e-16 0)
(1.10505e-19 -9.87739e-16 0)
(1.16087e-19 -9.87732e-16 0)
(1.21921e-19 -9.87724e-16 0)
(1.2805e-19 -9.87715e-16 0)
(1.3453e-19 -9.87705e-16 0)
(1.41431e-19 -9.87694e-16 0)
(1.48846e-19 -9.87682e-16 0)
(1.56889e-19 -9.87668e-16 0)
(1.65699e-19 -9.87653e-16 0)
(6.96233e-19 -6.80202e-15 0)
(1.83236e-09 -5.28721e-06 0)
(-2.25312e-07 -0.000416404 0)
(1.72754e-21 -9.87805e-16 0)
(5.16071e-21 -9.87805e-16 0)
(8.55824e-21 -9.87804e-16 0)
(1.19359e-20 -9.87804e-16 0)
(1.53083e-20 -9.87804e-16 0)
(1.86886e-20 -9.87804e-16 0)
(2.20896e-20 -9.87803e-16 0)
(2.55231e-20 -9.87803e-16 0)
(2.90002e-20 -9.87802e-16 0)
(3.25318e-20 -9.87801e-16 0)
(3.61285e-20 -9.87801e-16 0)
(3.98007e-20 -9.878e-16 0)
(4.35587e-20 -9.87799e-16 0)
(4.74129e-20 -9.87798e-16 0)
(5.1374e-20 -9.87797e-16 0)
(5.54529e-20 -9.87795e-16 0)
(5.96608e-20 -9.87794e-16 0)
(6.40099e-20 -9.87792e-16 0)
(6.85126e-20 -9.8779e-16 0)
(7.31825e-20 -9.87788e-16 0)
(7.80343e-20 -9.87785e-16 0)
(8.30841e-20 -9.87783e-16 0)
(8.83496e-20 -9.8778e-16 0)
(9.38508e-20 -9.87776e-16 0)
(9.96103e-20 -9.87773e-16 0)
(1.05654e-19 -9.87769e-16 0)
(1.12012e-19 -9.87764e-16 0)
(1.1872e-19 -9.87759e-16 0)
(1.2582e-19 -9.87754e-16 0)
(1.33362e-19 -9.87748e-16 0)
(1.41408e-19 -9.87741e-16 0)
(1.50032e-19 -9.87734e-16 0)
(1.59325e-19 -9.87726e-16 0)
(1.69399e-19 -9.87717e-16 0)
(1.80393e-19 -9.87707e-16 0)
(1.92479e-19 -9.87696e-16 0)
(2.05873e-19 -9.87685e-16 0)
(9.11561e-19 -7.01454e-15 0)
(1.96882e-09 -4.60942e-06 0)
(-2.02656e-07 -0.000380178 0)
(1.76995e-21 -9.8781e-16 0)
(5.28821e-21 -9.8781e-16 0)
(8.77239e-21 -9.8781e-16 0)
(1.22402e-20 -9.87809e-16 0)
(1.57079e-20 -9.87809e-16 0)
(1.91908e-20 -9.87809e-16 0)
(2.27034e-20 -9.87809e-16 0)
(2.62594e-20 -9.87808e-16 0)
(2.98723e-20 -9.87808e-16 0)
(3.3555e-20 -9.87808e-16 0)
(3.73207e-20 -9.87807e-16 0)
(4.11823e-20 -9.87807e-16 0)
(4.51532e-20 -9.87806e-16 0)
(4.92468e-20 -9.87805e-16 0)
(5.34775e-20 -9.87804e-16 0)
(5.786e-20 -9.87803e-16 0)
(6.241e-20 -9.87802e-16 0)
(6.71442e-20 -9.87801e-16 0)
(7.20805e-20 -9.87799e-16 0)
(7.72383e-20 -9.87798e-16 0)
(8.26386e-20 -9.87796e-16 0)
(8.83042e-20 -9.87794e-16 0)
(9.42604e-20 -9.87792e-16 0)
(1.00535e-19 -9.8779e-16 0)
(1.07159e-19 -9.87787e-16 0)
(1.14166e-19 -9.87784e-16 0)
(1.21595e-19 -9.87781e-16 0)
(1.2949e-19 -9.87777e-16 0)
(1.37899e-19 -9.87773e-16 0)
(1.46878e-19 -9.87768e-16 0)
(1.5649e-19 -9.87764e-16 0)
(1.66807e-19 -9.87758e-16 0)
(1.7791e-19 -9.87753e-16 0)
(1.89895e-19 -9.87747e-16 0)
(2.02866e-19 -9.8774e-16 0)
(2.16942e-19 -9.87733e-16 0)
(2.32258e-19 -9.87726e-16 0)
(1.0477e-18 -7.03642e-15 0)
(1.82679e-09 -3.97778e-06 0)
(-1.44212e-07 -0.000337683 0)
(1.79193e-21 -9.87815e-16 0)
(5.35454e-21 -9.87815e-16 0)
(8.88459e-21 -9.87815e-16 0)
(1.24012e-20 -9.87815e-16 0)
(1.59221e-20 -9.87815e-16 0)
(1.94638e-20 -9.87815e-16 0)
(2.30424e-20 -9.87815e-16 0)
(2.6673e-20 -9.87814e-16 0)
(3.03705e-20 -9.87814e-16 0)
(3.41497e-20 -9.87814e-16 0)