/*--------------------------------*- C++ -*----------------------------------*\
  =========                 |
  \\      /  F ield         | OpenFOAM: The Open Source CFD Toolbox
   \\    /   O peration     | Website:  https://openfoam.org
    \\  /    A nd           | Version:  10
     \\/     M anipulation  |
\*---------------------------------------------------------------------------*/
FoamFile
{
    format      ascii;
    class       volScalarField;
    location    "2.24";
    object      p;
}
// * * * * * * * * * * * * * * * * * * * * * * * * * * * * * * * * * * * * * //

dimensions      [1 -1 -2 0 0 0 0];

internalField   nonuniform List<scalar> 
12225
(
1.74126e+07
1.73594e+07
1.72642e+07
1.71387e+07
1.69932e+07
1.68353e+07
1.66702e+07
1.65016e+07
1.63315e+07
1.61612e+07
1.59913e+07
1.58217e+07
1.56521e+07
1.54813e+07
1.53078e+07
1.51285e+07
1.49372e+07
1.47186e+07
1.74148e+07
1.73613e+07
1.72658e+07
1.714e+07
1.69942e+07
1.68361e+07
1.66709e+07
1.65021e+07
1.6332e+07
1.61617e+07
1.59918e+07
1.58224e+07
1.56529e+07
1.54824e+07
1.53094e+07
1.51312e+07
1.49427e+07
1.47347e+07
1.74196e+07
1.73656e+07
1.72693e+07
1.71428e+07
1.69964e+07
1.68378e+07
1.66722e+07
1.65033e+07
1.63331e+07
1.61628e+07
1.5993e+07
1.58238e+07
1.56547e+07
1.54849e+07
1.5313e+07
1.51368e+07
1.49533e+07
1.4759e+07
1.74276e+07
1.73728e+07
1.72752e+07
1.71474e+07
1.7e+07
1.68405e+07
1.66745e+07
1.65052e+07
1.63348e+07
1.61646e+07
1.5995e+07
1.58261e+07
1.56576e+07
1.54888e+07
1.53186e+07
1.51456e+07
1.49683e+07
1.47873e+07
1.74395e+07
1.73833e+07
1.72839e+07
1.71542e+07
1.70052e+07
1.68446e+07
1.66777e+07
1.65079e+07
1.63373e+07
1.61671e+07
1.59977e+07
1.58294e+07
1.56617e+07
1.54943e+07
1.53264e+07
1.51573e+07
1.49868e+07
1.48175e+07
1.7456e+07
1.7398e+07
1.72959e+07
1.71636e+07
1.70123e+07
1.68501e+07
1.66821e+07
1.65116e+07
1.63407e+07
1.61705e+07
1.60015e+07
1.58338e+07
1.56673e+07
1.55016e+07
1.53364e+07
1.51717e+07
1.50081e+07
1.48486e+07
1.74783e+07
1.74177e+07
1.73118e+07
1.71759e+07
1.70217e+07
1.68572e+07
1.66877e+07
1.65164e+07
1.63451e+07
1.61749e+07
1.60063e+07
1.58394e+07
1.56743e+07
1.55107e+07
1.53486e+07
1.51884e+07
1.50313e+07
1.48802e+07
1.75076e+07
1.74433e+07
1.73323e+07
1.71916e+07
1.70335e+07
1.68662e+07
1.66948e+07
1.65224e+07
1.63506e+07
1.61804e+07
1.60123e+07
1.58464e+07
1.56828e+07
1.55216e+07
1.53629e+07
1.52073e+07
1.50561e+07
1.49118e+07
1.75455e+07
1.74761e+07
1.73583e+07
1.72112e+07
1.7048e+07
1.68772e+07
1.67034e+07
1.65296e+07
1.63572e+07
1.6187e+07
1.60194e+07
1.58547e+07
1.56929e+07
1.55342e+07
1.53789e+07
1.52278e+07
1.5082e+07
1.49435e+07
1.75942e+07
1.75177e+07
1.73906e+07
1.72351e+07
1.70656e+07
1.68902e+07
1.67136e+07
1.65381e+07
1.63649e+07
1.61947e+07
1.60278e+07
1.58644e+07
1.57045e+07
1.55484e+07
1.53966e+07
1.52496e+07
1.51087e+07
1.49752e+07
1.76565e+07
1.75698e+07
1.743e+07
1.72636e+07
1.70861e+07
1.69054e+07
1.67253e+07
1.65478e+07
1.63737e+07
1.62035e+07
1.60373e+07
1.58752e+07
1.57174e+07
1.5564e+07
1.54155e+07
1.52726e+07
1.51359e+07
1.50066e+07
1.77299e+07
1.76293e+07
1.74735e+07
1.72943e+07
1.71076e+07
1.69209e+07
1.67371e+07
1.65576e+07
1.63826e+07
1.62124e+07
1.60469e+07
1.58862e+07
1.57303e+07
1.55794e+07
1.54339e+07
1.52943e+07
1.51611e+07
1.50351e+07
1.78203e+07
1.76999e+07
1.75233e+07
1.73282e+07
1.71309e+07
1.69374e+07
1.67496e+07
1.65678e+07
1.6392e+07
1.62218e+07
1.60571e+07
1.58978e+07
1.57438e+07
1.55954e+07
1.54527e+07
1.53161e+07
1.51861e+07
1.50631e+07
1.79541e+07
1.77982e+07
1.75884e+07
1.73705e+07
1.71589e+07
1.69569e+07
1.67641e+07
1.65798e+07
1.64029e+07
1.62329e+07
1.60692e+07
1.59116e+07
1.57599e+07
1.56141e+07
1.54745e+07
1.53411e+07
1.52144e+07
1.50944e+07
1.81624e+07
1.7935e+07
1.76706e+07
1.74201e+07
1.71901e+07
1.69778e+07
1.67795e+07
1.65925e+07
1.64149e+07
1.62453e+07
1.6083e+07
1.59274e+07
1.57783e+07
1.56355e+07
1.54991e+07
1.53692e+07
1.52457e+07
1.51288e+07
1.85151e+07
1.81175e+07
1.77624e+07
1.74689e+07
1.72182e+07
1.69956e+07
1.67925e+07
1.66036e+07
1.6426e+07
1.62576e+07
1.60972e+07
1.59443e+07
1.57982e+07
1.56588e+07
1.55259e+07
1.53995e+07
1.52794e+07
1.51655e+07
1.91995e+07
1.83007e+07
1.78215e+07
1.74908e+07
1.72271e+07
1.70001e+07
1.67961e+07
1.66082e+07
1.64325e+07
1.62669e+07
1.61098e+07
1.59603e+07
1.5818e+07
1.56825e+07
1.55534e+07
1.54306e+07
1.5314e+07
1.52033e+07
1.83561e+07
1.80244e+07
1.77028e+07
1.74264e+07
1.71867e+07
1.69731e+07
1.67783e+07
1.65977e+07
1.64282e+07
1.62682e+07
1.61164e+07
1.59721e+07
1.58346e+07
1.57037e+07
1.55789e+07
1.54602e+07
1.53473e+07
1.524e+07
1.77921e+07
1.76572e+07
1.74723e+07
1.72771e+07
1.70861e+07
1.69033e+07
1.67295e+07
1.65641e+07
1.64065e+07
1.62561e+07
1.61125e+07
1.59753e+07
1.58441e+07
1.57189e+07
1.55993e+07
1.54852e+07
1.53764e+07
1.52727e+07
1.74712e+07
1.73944e+07
1.72722e+07
1.71281e+07
1.69753e+07
1.68208e+07
1.66681e+07
1.65188e+07
1.63739e+07
1.62338e+07
1.60987e+07
1.59686e+07
1.58436e+07
1.57236e+07
1.56086e+07
1.54986e+07
1.53933e+07
1.52927e+07
1.72882e+07
1.72332e+07
1.71397e+07
1.70228e+07
1.6893e+07
1.6757e+07
1.6619e+07
1.64814e+07
1.63459e+07
1.62135e+07
1.60847e+07
1.59599e+07
1.58395e+07
1.57234e+07
1.56118e+07
1.55046e+07
1.54019e+07
1.53035e+07
1.71672e+07
1.71231e+07
1.70454e+07
1.6945e+07
1.68301e+07
1.67069e+07
1.65794e+07
1.64506e+07
1.63223e+07
1.61958e+07
1.60719e+07
1.59513e+07
1.58344e+07
1.57213e+07
1.56123e+07
1.55073e+07
1.54065e+07
1.53098e+07
1.70855e+07
1.70473e+07
1.6979e+07
1.68888e+07
1.67837e+07
1.66692e+07
1.65492e+07
1.64267e+07
1.63037e+07
1.61815e+07
1.60614e+07
1.59439e+07
1.58296e+07
1.57187e+07
1.56116e+07
1.55084e+07
1.5409e+07
1.53135e+07
1.70299e+07
1.69953e+07
1.69327e+07
1.68491e+07
1.67505e+07
1.66418e+07
1.6527e+07
1.64089e+07
1.62896e+07
1.61706e+07
1.60531e+07
1.59379e+07
1.58255e+07
1.57163e+07
1.56106e+07
1.55086e+07
1.54103e+07
1.53157e+07
1.69923e+07
1.696e+07
1.6901e+07
1.68216e+07
1.67272e+07
1.66225e+07
1.65112e+07
1.63962e+07
1.62794e+07
1.61627e+07
1.60471e+07
1.59334e+07
1.58224e+07
1.57143e+07
1.56097e+07
1.55085e+07
1.54109e+07
1.5317e+07
1.69674e+07
1.69364e+07
1.68797e+07
1.6803e+07
1.67114e+07
1.66093e+07
1.65004e+07
1.63873e+07
1.62724e+07
1.61571e+07
1.60427e+07
1.59302e+07
1.58201e+07
1.57128e+07
1.56088e+07
1.55082e+07
1.54111e+07
1.53177e+07
1.69514e+07
1.69212e+07
1.6866e+07
1.67909e+07
1.67011e+07
1.66007e+07
1.64932e+07
1.63815e+07
1.62677e+07
1.61534e+07
1.60398e+07
1.5928e+07
1.58185e+07
1.57118e+07
1.56082e+07
1.5508e+07
1.54112e+07
1.5318e+07
1.69417e+07
1.6912e+07
1.68576e+07
1.67836e+07
1.66948e+07
1.65954e+07
1.64888e+07
1.63779e+07
1.62648e+07
1.61511e+07
1.6038e+07
1.59266e+07
1.58175e+07
1.57111e+07
1.56078e+07
1.55078e+07
1.54112e+07
1.53182e+07
1.69364e+07
1.6907e+07
1.68531e+07
1.67796e+07
1.66913e+07
1.65925e+07
1.64864e+07
1.63759e+07
1.62632e+07
1.61498e+07
1.6037e+07
1.59258e+07
1.58169e+07
1.57107e+07
1.56075e+07
1.55077e+07
1.54112e+07
1.53183e+07
1.69343e+07
1.6905e+07
1.68512e+07
1.6778e+07
1.66899e+07
1.65913e+07
1.64854e+07
1.63751e+07
1.62625e+07
1.61492e+07
1.60366e+07
1.59255e+07
1.58166e+07
1.57105e+07
1.56074e+07
1.55076e+07
1.54112e+07
1.53183e+07
1.26676e+07
1.26665e+07
1.26641e+07
1.26606e+07
1.26558e+07
1.26497e+07
1.26424e+07
1.26338e+07
1.26238e+07
1.26125e+07
1.25998e+07
1.25857e+07
1.25702e+07
1.25532e+07
1.25349e+07
1.2515e+07
1.24937e+07
1.24709e+07
1.24466e+07
1.24208e+07
1.23934e+07
1.23644e+07
1.23339e+07
1.23018e+07
1.2268e+07
1.22325e+07
1.21953e+07
1.21564e+07
1.21157e+07
1.20732e+07
1.20288e+07
1.19825e+07
1.19342e+07
1.18838e+07
1.18313e+07
1.17765e+07
1.17193e+07
1.16596e+07
1.15971e+07
1.15317e+07
1.14631e+07
1.13908e+07
1.13146e+07
1.12336e+07
1.11472e+07
1.10541e+07
1.09524e+07
1.08381e+07
1.07147e+07
1.07098e+07
1.07063e+07
1.07029e+07
1.06997e+07
1.06965e+07
1.06934e+07
1.06903e+07
1.06873e+07
1.06843e+07
1.06814e+07
1.06784e+07
1.06756e+07
1.06727e+07
1.06699e+07
1.06671e+07
1.06643e+07
1.06615e+07
1.06587e+07
1.0656e+07
1.06532e+07
1.06505e+07
1.06478e+07
1.06451e+07
1.06424e+07
1.06397e+07
1.0637e+07
1.06343e+07
1.06316e+07
1.06289e+07
1.06262e+07
1.06236e+07
1.06209e+07
1.06182e+07
1.06155e+07
1.06128e+07
1.061e+07
1.06073e+07
1.06046e+07
1.06019e+07
1.05991e+07
1.05964e+07
1.05936e+07
1.05908e+07
1.05881e+07
1.05853e+07
1.05824e+07
1.05796e+07
1.05768e+07
1.05739e+07
1.05711e+07
1.05682e+07
1.05653e+07
1.05624e+07
1.05594e+07
1.05565e+07
1.05535e+07
1.05506e+07
1.05475e+07
1.05445e+07
1.05415e+07
1.05384e+07
1.05354e+07
1.05322e+07
1.05291e+07
1.0526e+07
1.05228e+07
1.05196e+07
1.05164e+07
1.05132e+07
1.05099e+07
1.05067e+07
1.05034e+07
1.05e+07
1.04967e+07
1.04933e+07
1.04899e+07
1.04865e+07
1.04831e+07
1.04796e+07
1.04761e+07
1.04726e+07
1.0469e+07
1.04654e+07
1.04618e+07
1.04582e+07
1.04545e+07
1.04508e+07
1.04471e+07
1.04434e+07
1.04396e+07
1.04358e+07
1.0432e+07
1.04281e+07
1.04242e+07
1.04203e+07
1.04164e+07
1.04124e+07
1.04084e+07
1.04043e+07
1.04002e+07
1.03961e+07
1.0392e+07
1.03878e+07
1.03836e+07
1.03794e+07
1.03751e+07
1.03708e+07
1.03665e+07
1.03621e+07
1.03577e+07
1.03533e+07
1.03488e+07
1.03443e+07
1.03398e+07
1.03352e+07
1.03306e+07
1.0326e+07
1.03213e+07
1.03166e+07
1.03119e+07
1.03071e+07
1.03023e+07
1.02974e+07
1.02925e+07
1.02876e+07
1.02827e+07
1.02777e+07
1.02727e+07
1.02678e+07
1.02628e+07
1.02578e+07
1.26722e+07
1.2671e+07
1.26687e+07
1.26651e+07
1.26603e+07
1.26542e+07
1.26469e+07
1.26382e+07
1.26282e+07
1.26168e+07
1.26041e+07
1.259e+07
1.25744e+07
1.25574e+07
1.2539e+07
1.25191e+07
1.24977e+07
1.24749e+07
1.24505e+07
1.24247e+07
1.23973e+07
1.23683e+07
1.23378e+07
1.23057e+07
1.22719e+07
1.22365e+07
1.21994e+07
1.21605e+07
1.21199e+07
1.20775e+07
1.20332e+07
1.1987e+07
1.19389e+07
1.18886e+07
1.18363e+07
1.17817e+07
1.17247e+07
1.16653e+07
1.16031e+07
1.15382e+07
1.147e+07
1.13985e+07
1.13232e+07
1.12436e+07
1.11589e+07
1.10682e+07
1.09695e+07
1.08588e+07
1.07243e+07
1.07093e+07
1.07059e+07
1.07027e+07
1.06995e+07
1.06963e+07
1.06932e+07
1.06902e+07
1.06872e+07
1.06842e+07
1.06813e+07
1.06784e+07
1.06755e+07
1.06726e+07
1.06698e+07
1.0667e+07
1.06642e+07
1.06614e+07
1.06587e+07
1.06559e+07
1.06532e+07
1.06505e+07
1.06478e+07
1.06451e+07
1.06424e+07
1.06397e+07
1.0637e+07
1.06343e+07
1.06316e+07
1.06289e+07
1.06262e+07
1.06235e+07
1.06208e+07
1.06181e+07
1.06154e+07
1.06127e+07
1.061e+07
1.06073e+07
1.06046e+07
1.06019e+07
1.05991e+07
1.05964e+07
1.05936e+07
1.05908e+07
1.0588e+07
1.05852e+07
1.05824e+07
1.05796e+07
1.05768e+07
1.05739e+07
1.05711e+07
1.05682e+07
1.05653e+07
1.05624e+07
1.05594e+07
1.05565e+07
1.05535e+07
1.05505e+07
1.05475e+07
1.05445e+07
1.05415e+07
1.05384e+07
1.05353e+07
1.05322e+07
1.05291e+07
1.0526e+07
1.05228e+07
1.05196e+07
1.05164e+07
1.05132e+07
1.05099e+07
1.05067e+07
1.05034e+07
1.05e+07
1.04967e+07
1.04933e+07
1.04899e+07
1.04865e+07
1.04831e+07
1.04796e+07
1.04761e+07
1.04726e+07
1.0469e+07
1.04654e+07
1.04618e+07
1.04582e+07
1.04545e+07
1.04508e+07
1.04471e+07
1.04434e+07
1.04396e+07
1.04358e+07
1.0432e+07
1.04281e+07
1.04242e+07
1.04203e+07
1.04164e+07
1.04124e+07
1.04084e+07
1.04043e+07
1.04002e+07
1.03961e+07
1.0392e+07
1.03878e+07
1.03836e+07
1.03794e+07
1.03751e+07
1.03708e+07
1.03665e+07
1.03621e+07
1.03577e+07
1.03533e+07
1.03488e+07
1.03443e+07
1.03398e+07
1.03352e+07
1.03306e+07
1.0326e+07
1.03213e+07
1.03166e+07
1.03119e+07
1.03071e+07
1.03023e+07
1.02974e+07
1.02925e+07
1.02876e+07
1.02827e+07
1.02777e+07
1.02727e+07
1.02677e+07
1.02628e+07
1.02578e+07
1.26816e+07
1.26804e+07
1.26781e+07
1.26745e+07
1.26696e+07
1.26635e+07
1.26561e+07
1.26474e+07
1.26373e+07
1.26259e+07
1.26131e+07
1.25989e+07
1.25832e+07
1.25662e+07
1.25477e+07
1.25277e+07
1.25062e+07
1.24833e+07
1.24589e+07
1.24329e+07
1.24055e+07
1.23764e+07
1.23459e+07
1.23137e+07
1.22799e+07
1.22445e+07
1.22075e+07
1.21687e+07
1.21281e+07
1.20858e+07
1.20416e+07
1.19956e+07
1.19476e+07
1.18976e+07
1.18455e+07
1.17912e+07
1.17346e+07
1.16756e+07
1.16141e+07
1.15499e+07
1.14828e+07
1.14126e+07
1.1339e+07
1.12617e+07
1.11804e+07
1.10946e+07
1.10039e+07
1.09082e+07
1.0808e+07
1.07096e+07
1.07053e+07
1.07022e+07
1.06991e+07
1.0696e+07
1.0693e+07
1.06899e+07
1.0687e+07
1.0684e+07
1.06811e+07
1.06782e+07
1.06753e+07
1.06725e+07
1.06697e+07
1.06669e+07
1.06641e+07
1.06613e+07
1.06586e+07
1.06558e+07
1.06531e+07
1.06504e+07
1.06477e+07
1.0645e+07
1.06423e+07
1.06396e+07
1.06369e+07
1.06342e+07
1.06315e+07
1.06289e+07
1.06262e+07
1.06235e+07
1.06208e+07
1.06181e+07
1.06154e+07
1.06127e+07
1.061e+07
1.06073e+07
1.06046e+07
1.06018e+07
1.05991e+07
1.05963e+07
1.05936e+07
1.05908e+07
1.0588e+07
1.05852e+07
1.05824e+07
1.05796e+07
1.05768e+07
1.05739e+07
1.0571e+07
1.05682e+07
1.05653e+07
1.05624e+07
1.05594e+07
1.05565e+07
1.05535e+07
1.05505e+07
1.05475e+07
1.05445e+07
1.05415e+07
1.05384e+07
1.05353e+07
1.05322e+07
1.05291e+07
1.0526e+07
1.05228e+07
1.05196e+07
1.05164e+07
1.05132e+07
1.05099e+07
1.05067e+07
1.05034e+07
1.05e+07
1.04967e+07
1.04933e+07
1.04899e+07
1.04865e+07
1.0483e+07
1.04796e+07
1.04761e+07
1.04726e+07
1.0469e+07
1.04654e+07
1.04618e+07
1.04582e+07
1.04545e+07
1.04508e+07
1.04471e+07
1.04434e+07
1.04396e+07
1.04358e+07
1.0432e+07
1.04281e+07
1.04242e+07
1.04203e+07
1.04163e+07
1.04124e+07
1.04084e+07
1.04043e+07
1.04002e+07
1.03961e+07
1.0392e+07
1.03878e+07
1.03836e+07
1.03794e+07
1.03751e+07
1.03708e+07
1.03665e+07
1.03621e+07
1.03577e+07
1.03533e+07
1.03488e+07
1.03443e+07
1.03398e+07
1.03352e+07
1.03306e+07
1.0326e+07
1.03213e+07
1.03166e+07
1.03118e+07
1.03071e+07
1.03023e+07
1.02974e+07
1.02925e+07
1.02876e+07
1.02827e+07
1.02777e+07
1.02727e+07
1.02677e+07
1.02627e+07
1.02577e+07
1.26959e+07
1.26947e+07
1.26923e+07
1.26887e+07
1.26838e+07
1.26776e+07
1.26702e+07
1.26614e+07
1.26512e+07
1.26397e+07
1.26268e+07
1.26125e+07
1.25968e+07
1.25796e+07
1.2561e+07
1.25409e+07
1.25194e+07
1.24963e+07
1.24718e+07
1.24457e+07
1.24181e+07
1.2389e+07
1.23583e+07
1.23261e+07
1.22922e+07
1.22568e+07
1.22196e+07
1.21808e+07
1.21403e+07
1.2098e+07
1.20539e+07
1.2008e+07
1.19602e+07
1.19104e+07
1.18586e+07
1.18047e+07
1.17486e+07
1.16903e+07
1.16296e+07
1.15664e+07
1.15006e+07
1.1432e+07
1.13605e+07
1.1286e+07
1.12083e+07
1.11272e+07
1.10429e+07
1.09554e+07
1.0865e+07
1.07701e+07
1.07051e+07
1.07018e+07
1.06987e+07
1.06956e+07
1.06926e+07
1.06896e+07
1.06866e+07
1.06837e+07
1.06808e+07
1.06779e+07
1.06751e+07
1.06722e+07
1.06694e+07
1.06667e+07
1.06639e+07
1.06611e+07
1.06584e+07
1.06557e+07
1.0653e+07
1.06502e+07
1.06476e+07
1.06449e+07
1.06422e+07
1.06395e+07
1.06368e+07
1.06341e+07
1.06315e+07
1.06288e+07
1.06261e+07
1.06234e+07
1.06207e+07
1.0618e+07
1.06153e+07
1.06126e+07
1.06099e+07
1.06072e+07
1.06045e+07
1.06018e+07
1.0599e+07
1.05963e+07
1.05935e+07
1.05908e+07
1.0588e+07
1.05852e+07
1.05824e+07
1.05796e+07
1.05767e+07
1.05739e+07
1.0571e+07
1.05681e+07
1.05653e+07
1.05623e+07
1.05594e+07
1.05565e+07
1.05535e+07
1.05505e+07
1.05475e+07
1.05445e+07
1.05415e+07
1.05384e+07
1.05353e+07
1.05322e+07
1.05291e+07
1.0526e+07
1.05228e+07
1.05196e+07
1.05164e+07
1.05132e+07
1.05099e+07
1.05067e+07
1.05034e+07
1.05e+07
1.04967e+07
1.04933e+07
1.04899e+07
1.04865e+07
1.0483e+07
1.04796e+07
1.04761e+07
1.04725e+07
1.0469e+07
1.04654e+07
1.04618e+07
1.04582e+07
1.04545e+07
1.04508e+07
1.04471e+07
1.04434e+07
1.04396e+07
1.04358e+07
1.0432e+07
1.04281e+07
1.04242e+07
1.04203e+07
1.04163e+07
1.04124e+07
1.04084e+07
1.04043e+07
1.04002e+07
1.03961e+07
1.0392e+07
1.03878e+07
1.03836e+07
1.03794e+07
1.03751e+07
1.03708e+07
1.03665e+07
1.03621e+07
1.03577e+07
1.03533e+07
1.03488e+07
1.03443e+07
1.03398e+07
1.03352e+07
1.03306e+07
1.0326e+07
1.03213e+07
1.03166e+07
1.03118e+07
1.03071e+07
1.03022e+07
1.02974e+07
1.02925e+07
1.02876e+07
1.02827e+07
1.02777e+07
1.02727e+07
1.02677e+07
1.02627e+07
1.02577e+07
1.27152e+07
1.2714e+07
1.27115e+07
1.27079e+07
1.27029e+07
1.26966e+07
1.26891e+07
1.26802e+07
1.26699e+07
1.26583e+07
1.26453e+07
1.26308e+07
1.26149e+07
1.25976e+07
1.25788e+07
1.25586e+07
1.25369e+07
1.25137e+07
1.2489e+07
1.24627e+07
1.2435e+07
1.24057e+07
1.23749e+07
1.23425e+07
1.23085e+07
1.22729e+07
1.22357e+07
1.21968e+07
1.21563e+07
1.2114e+07
1.207e+07
1.20242e+07
1.19765e+07
1.1927e+07
1.18755e+07
1.18221e+07
1.17666e+07
1.1709e+07
1.16492e+07
1.15871e+07
1.15227e+07
1.14559e+07
1.13866e+07
1.13148e+07
1.12403e+07
1.11633e+07
1.10838e+07
1.10018e+07
1.09172e+07
1.08289e+07
1.07321e+07
1.07014e+07
1.06982e+07
1.06951e+07
1.06921e+07
1.06891e+07
1.06862e+07
1.06833e+07
1.06804e+07
1.06776e+07
1.06747e+07
1.06719e+07
1.06692e+07
1.06664e+07
1.06636e+07
1.06609e+07
1.06582e+07
1.06555e+07
1.06528e+07
1.06501e+07
1.06474e+07
1.06447e+07
1.0642e+07
1.06394e+07
1.06367e+07
1.0634e+07
1.06313e+07
1.06287e+07
1.0626e+07
1.06233e+07
1.06206e+07
1.0618e+07
1.06153e+07
1.06126e+07
1.06099e+07
1.06072e+07
1.06045e+07
1.06017e+07
1.0599e+07
1.05962e+07
1.05935e+07
1.05907e+07
1.05879e+07
1.05852e+07
1.05824e+07
1.05795e+07
1.05767e+07
1.05739e+07
1.0571e+07
1.05681e+07
1.05652e+07
1.05623e+07
1.05594e+07
1.05564e+07
1.05535e+07
1.05505e+07
1.05475e+07
1.05445e+07
1.05414e+07
1.05384e+07
1.05353e+07
1.05322e+07
1.05291e+07
1.0526e+07
1.05228e+07
1.05196e+07
1.05164e+07
1.05132e+07
1.05099e+07
1.05066e+07
1.05033e+07
1.05e+07
1.04967e+07
1.04933e+07
1.04899e+07
1.04865e+07
1.0483e+07
1.04796e+07
1.04761e+07
1.04725e+07
1.0469e+07
1.04654e+07
1.04618e+07
1.04582e+07
1.04545e+07
1.04508e+07
1.04471e+07
1.04434e+07
1.04396e+07
1.04358e+07
1.0432e+07
1.04281e+07
1.04242e+07
1.04203e+07
1.04163e+07
1.04124e+07
1.04083e+07
1.04043e+07
1.04002e+07
1.03961e+07
1.0392e+07
1.03878e+07
1.03836e+07
1.03794e+07
1.03751e+07
1.03708e+07
1.03665e+07
1.03621e+07
1.03577e+07
1.03533e+07
1.03488e+07
1.03443e+07
1.03398e+07
1.03352e+07
1.03306e+07
1.0326e+07
1.03213e+07
1.03166e+07
1.03118e+07
1.03071e+07
1.03022e+07
1.02974e+07
1.02925e+07
1.02876e+07
1.02826e+07
1.02777e+07
1.02727e+07
1.02677e+07
1.02626e+07
1.02576e+07
1.27395e+07
1.27382e+07
1.27357e+07
1.2732e+07
1.27269e+07
1.27206e+07
1.27129e+07
1.27038e+07
1.26934e+07
1.26816e+07
1.26684e+07
1.26537e+07
1.26377e+07
1.26201e+07
1.26011e+07
1.25807e+07
1.25587e+07
1.25353e+07
1.25103e+07
1.24839e+07
1.24559e+07
1.24264e+07
1.23954e+07
1.23628e+07
1.23286e+07
1.22929e+07
1.22555e+07
1.22165e+07
1.21759e+07
1.21336e+07
1.20896e+07
1.20439e+07
1.19964e+07
1.19471e+07
1.1896e+07
1.1843e+07
1.17881e+07
1.17313e+07
1.16724e+07
1.16115e+07
1.15485e+07
1.14834e+07
1.14161e+07
1.13468e+07
1.12753e+07
1.12017e+07
1.11262e+07
1.10487e+07
1.09694e+07
1.08879e+07
1.08035e+07
1.07136e+07
1.06976e+07
1.06945e+07
1.06915e+07
1.06886e+07
1.06857e+07
1.06828e+07
1.06799e+07
1.06771e+07
1.06743e+07
1.06716e+07
1.06688e+07
1.06661e+07
1.06633e+07
1.06606e+07
1.06579e+07
1.06552e+07
1.06525e+07
1.06499e+07
1.06472e+07
1.06445e+07
1.06419e+07
1.06392e+07
1.06365e+07
1.06339e+07
1.06312e+07
1.06285e+07
1.06259e+07
1.06232e+07
1.06205e+07
1.06179e+07
1.06152e+07
1.06125e+07
1.06098e+07
1.06071e+07
1.06044e+07
1.06017e+07
1.05989e+07
1.05962e+07
1.05934e+07
1.05907e+07
1.05879e+07
1.05851e+07
1.05823e+07
1.05795e+07
1.05767e+07
1.05738e+07
1.0571e+07
1.05681e+07
1.05652e+07
1.05623e+07
1.05594e+07
1.05564e+07
1.05535e+07
1.05505e+07
1.05475e+07
1.05445e+07
1.05414e+07
1.05384e+07
1.05353e+07
1.05322e+07
1.05291e+07
1.05259e+07
1.05228e+07
1.05196e+07
1.05164e+07
1.05132e+07
1.05099e+07
1.05066e+07
1.05033e+07
1.05e+07
1.04967e+07
1.04933e+07
1.04899e+07
1.04865e+07
1.0483e+07
1.04796e+07
1.04761e+07
1.04725e+07
1.0469e+07
1.04654e+07
1.04618e+07
1.04582e+07
1.04545e+07
1.04508e+07
1.04471e+07
1.04434e+07
1.04396e+07
1.04358e+07
1.0432e+07
1.04281e+07
1.04242e+07
1.04203e+07
1.04163e+07
1.04124e+07
1.04083e+07
1.04043e+07
1.04002e+07
1.03961e+07
1.0392e+07
1.03878e+07
1.03836e+07
1.03794e+07
1.03751e+07
1.03708e+07
1.03665e+07
1.03621e+07
1.03577e+07
1.03533e+07
1.03488e+07
1.03443e+07
1.03398e+07
1.03352e+07
1.03306e+07
1.0326e+07
1.03213e+07
1.03166e+07
1.03118e+07
1.03071e+07
1.03022e+07
1.02974e+07
1.02925e+07
1.02876e+07
1.02826e+07
1.02777e+07
1.02726e+07
1.02676e+07
1.02626e+07
1.02575e+07
1.27689e+07
1.27675e+07
1.2765e+07
1.27611e+07
1.27559e+07
1.27494e+07
1.27416e+07
1.27323e+07
1.27217e+07
1.27096e+07
1.26962e+07
1.26813e+07
1.26649e+07
1.26471e+07
1.26278e+07
1.2607e+07
1.25848e+07
1.2561e+07
1.25358e+07
1.2509e+07
1.24807e+07
1.24509e+07
1.24196e+07
1.23868e+07
1.23523e+07
1.23164e+07
1.22788e+07
1.22397e+07
1.21989e+07
1.21566e+07
1.21126e+07
1.20669e+07
1.20196e+07
1.19705e+07
1.19197e+07
1.18672e+07
1.18128e+07
1.17567e+07
1.16987e+07
1.16389e+07
1.15772e+07
1.15137e+07
1.14483e+07
1.13811e+07
1.13121e+07
1.12415e+07
1.11693e+07
1.10957e+07
1.10207e+07
1.09445e+07
1.0867e+07
1.07878e+07
1.07037e+07
1.06937e+07
1.06908e+07
1.06879e+07
1.0685e+07
1.06822e+07
1.06794e+07
1.06766e+07
1.06739e+07
1.06711e+07
1.06684e+07
1.06657e+07
1.0663e+07
1.06603e+07
1.06576e+07
1.06549e+07
1.06523e+07
1.06496e+07
1.0647e+07
1.06443e+07
1.06416e+07
1.0639e+07
1.06363e+07
1.06337e+07
1.0631e+07
1.06284e+07
1.06257e+07
1.06231e+07
1.06204e+07
1.06177e+07
1.06151e+07
1.06124e+07
1.06097e+07
1.0607e+07
1.06043e+07
1.06016e+07
1.05989e+07
1.05961e+07
1.05934e+07
1.05906e+07
1.05878e+07
1.05851e+07
1.05823e+07
1.05794e+07
1.05766e+07
1.05738e+07
1.05709e+07
1.05681e+07
1.05652e+07
1.05623e+07
1.05593e+07
1.05564e+07
1.05534e+07
1.05505e+07
1.05475e+07
1.05444e+07
1.05414e+07
1.05384e+07
1.05353e+07
1.05322e+07
1.05291e+07
1.05259e+07
1.05228e+07
1.05196e+07
1.05164e+07
1.05132e+07
1.05099e+07
1.05066e+07
1.05033e+07
1.05e+07
1.04967e+07
1.04933e+07
1.04899e+07
1.04865e+07
1.0483e+07
1.04796e+07
1.04761e+07
1.04725e+07
1.0469e+07
1.04654e+07
1.04618e+07
1.04582e+07
1.04545e+07
1.04508e+07
1.04471e+07
1.04434e+07
1.04396e+07
1.04358e+07
1.0432e+07
1.04281e+07
1.04242e+07
1.04203e+07
1.04163e+07
1.04124e+07
1.04083e+07
1.04043e+07
1.04002e+07
1.03961e+07
1.0392e+07
1.03878e+07
1.03836e+07
1.03794e+07
1.03751e+07
1.03708e+07
1.03665e+07
1.03621e+07
1.03577e+07
1.03533e+07
1.03488e+07
1.03443e+07
1.03398e+07
1.03352e+07
1.03306e+07
1.0326e+07
1.03213e+07
1.03166e+07
1.03118e+07
1.0307e+07
1.03022e+07
1.02974e+07
1.02925e+07
1.02876e+07
1.02826e+07
1.02776e+07
1.02726e+07
1.02676e+07
1.02625e+07
1.02574e+07
1.28034e+07
1.2802e+07
1.27993e+07
1.27953e+07
1.279e+07
1.27833e+07
1.27752e+07
1.27657e+07
1.27548e+07
1.27425e+07
1.27287e+07
1.27134e+07
1.26967e+07
1.26785e+07
1.26589e+07
1.26377e+07
1.2615e+07
1.25909e+07
1.25652e+07
1.25381e+07
1.25094e+07
1.24792e+07
1.24475e+07
1.24143e+07
1.23796e+07
1.23433e+07
1.23055e+07
1.22661e+07
1.22252e+07
1.21827e+07
1.21387e+07
1.2093e+07
1.20457e+07
1.19968e+07
1.19463e+07
1.18942e+07
1.18403e+07
1.17848e+07
1.17277e+07
1.16688e+07
1.16083e+07
1.15462e+07
1.14824e+07
1.14171e+07
1.13503e+07
1.12821e+07
1.12127e+07
1.11421e+07
1.10706e+07
1.09983e+07
1.09253e+07
1.08517e+07
1.07767e+07
1.06966e+07
1.06899e+07
1.0687e+07
1.06843e+07
1.06815e+07
1.06788e+07
1.06761e+07
1.06733e+07
1.06706e+07
1.0668e+07
1.06653e+07
1.06626e+07
1.06599e+07
1.06573e+07
1.06546e+07
1.0652e+07
1.06493e+07
1.06467e+07
1.0644e+07
1.06414e+07
1.06388e+07
1.06361e+07
1.06335e+07
1.06309e+07
1.06282e+07
1.06256e+07
1.06229e+07
1.06203e+07
1.06176e+07
1.06149e+07
1.06123e+07
1.06096e+07
1.06069e+07
1.06042e+07
1.06015e+07
1.05988e+07
1.0596e+07
1.05933e+07
1.05905e+07
1.05878e+07
1.0585e+07
1.05822e+07
1.05794e+07
1.05766e+07
1.05737e+07
1.05709e+07
1.0568e+07
1.05651e+07
1.05622e+07
1.05593e+07
1.05564e+07
1.05534e+07
1.05504e+07
1.05474e+07
1.05444e+07
1.05414e+07
1.05383e+07
1.05353e+07
1.05322e+07
1.05291e+07
1.05259e+07
1.05228e+07
1.05196e+07
1.05164e+07
1.05131e+07
1.05099e+07
1.05066e+07
1.05033e+07
1.05e+07
1.04967e+07
1.04933e+07
1.04899e+07
1.04865e+07
1.0483e+07
1.04795e+07
1.0476e+07
1.04725e+07
1.0469e+07
1.04654e+07
1.04618e+07
1.04582e+07
1.04545e+07
1.04508e+07
1.04471e+07
1.04434e+07
1.04396e+07
1.04358e+07
1.04319e+07
1.04281e+07
1.04242e+07
1.04203e+07
1.04163e+07
1.04124e+07
1.04083e+07
1.04043e+07
1.04002e+07
1.03961e+07
1.0392e+07
1.03878e+07
1.03836e+07
1.03794e+07
1.03751e+07
1.03708e+07
1.03665e+07
1.03621e+07
1.03577e+07
1.03533e+07
1.03488e+07
1.03443e+07
1.03398e+07
1.03352e+07
1.03306e+07
1.0326e+07
1.03213e+07
1.03166e+07
1.03118e+07
1.0307e+07
1.03022e+07
1.02974e+07
1.02925e+07
1.02876e+07
1.02826e+07
1.02776e+07
1.02726e+07
1.02675e+07
1.02624e+07
1.02573e+07
1.28432e+07
1.28417e+07
1.28389e+07
1.28348e+07
1.28292e+07
1.28223e+07
1.28139e+07
1.28041e+07
1.27928e+07
1.27801e+07
1.27659e+07
1.27502e+07
1.27331e+07
1.27144e+07
1.26942e+07
1.26726e+07
1.26494e+07
1.26247e+07
1.25986e+07
1.25709e+07
1.25418e+07
1.25111e+07
1.2479e+07
1.24453e+07
1.24102e+07
1.23735e+07
1.23354e+07
1.22957e+07
1.22545e+07
1.22119e+07
1.21677e+07
1.21219e+07
1.20747e+07
1.20259e+07
1.19756e+07
1.19237e+07
1.18703e+07
1.18153e+07
1.17588e+07
1.17008e+07
1.16413e+07
1.15804e+07
1.1518e+07
1.14543e+07
1.13893e+07
1.13231e+07
1.12559e+07
1.11877e+07
1.11188e+07
1.10494e+07
1.09795e+07
1.09095e+07
1.08391e+07
1.07674e+07
1.06909e+07
1.06861e+07
1.06834e+07
1.06808e+07
1.06781e+07
1.06754e+07
1.06728e+07
1.06701e+07
1.06674e+07
1.06648e+07
1.06621e+07
1.06595e+07
1.06569e+07
1.06542e+07
1.06516e+07
1.0649e+07
1.06464e+07
1.06438e+07
1.06411e+07
1.06385e+07
1.06359e+07
1.06333e+07
1.06307e+07
1.0628e+07
1.06254e+07
1.06228e+07
1.06201e+07
1.06175e+07
1.06148e+07
1.06121e+07
1.06095e+07
1.06068e+07
1.06041e+07
1.06014e+07
1.05987e+07
1.05959e+07
1.05932e+07
1.05905e+07
1.05877e+07
1.05849e+07
1.05821e+07
1.05793e+07
1.05765e+07
1.05737e+07
1.05708e+07
1.0568e+07
1.05651e+07
1.05622e+07
1.05593e+07
1.05563e+07
1.05534e+07
1.05504e+07
1.05474e+07
1.05444e+07
1.05414e+07
1.05383e+07
1.05352e+07
1.05321e+07
1.0529e+07
1.05259e+07
1.05227e+07
1.05196e+07
1.05164e+07
1.05131e+07
1.05099e+07
1.05066e+07
1.05033e+07
1.05e+07
1.04966e+07
1.04933e+07
1.04899e+07
1.04865e+07
1.0483e+07
1.04795e+07
1.0476e+07
1.04725e+07
1.0469e+07
1.04654e+07
1.04618e+07
1.04582e+07
1.04545e+07
1.04508e+07
1.04471e+07
1.04433e+07
1.04396e+07
1.04358e+07
1.04319e+07
1.04281e+07
1.04242e+07
1.04203e+07
1.04163e+07
1.04123e+07
1.04083e+07
1.04043e+07
1.04002e+07
1.03961e+07
1.0392e+07
1.03878e+07
1.03836e+07
1.03794e+07
1.03751e+07
1.03708e+07
1.03665e+07
1.03621e+07
1.03577e+07
1.03533e+07
1.03488e+07
1.03443e+07
1.03398e+07
1.03352e+07
1.03306e+07
1.0326e+07
1.03213e+07
1.03166e+07
1.03118e+07
1.0307e+07
1.03022e+07
1.02974e+07
1.02925e+07
1.02875e+07
1.02826e+07
1.02776e+07
1.02725e+07
1.02675e+07
1.02624e+07
1.02572e+07
1.28884e+07
1.28868e+07
1.28839e+07
1.28795e+07
1.28737e+07
1.28665e+07
1.28578e+07
1.28476e+07
1.28359e+07
1.28227e+07
1.28079e+07
1.27917e+07
1.2774e+07
1.27547e+07
1.27339e+07
1.27117e+07
1.26879e+07
1.26626e+07
1.26358e+07
1.26075e+07
1.25778e+07
1.25465e+07
1.25138e+07
1.24796e+07
1.24439e+07
1.24068e+07
1.23682e+07
1.23282e+07
1.22867e+07
1.22437e+07
1.21993e+07
1.21534e+07
1.21061e+07
1.20573e+07
1.20071e+07
1.19554e+07
1.19023e+07
1.18478e+07
1.17919e+07
1.17346e+07
1.16759e+07
1.16159e+07
1.15547e+07
1.14922e+07
1.14287e+07
1.13641e+07
1.12986e+07
1.12323e+07
1.11654e+07
1.10981e+07
1.10304e+07
1.09626e+07
1.08948e+07
1.08267e+07
1.07576e+07
1.06862e+07
1.06826e+07
1.068e+07
1.06774e+07
1.06748e+07
1.06721e+07
1.06695e+07
1.06669e+07
1.06643e+07
1.06617e+07
1.0659e+07
1.06564e+07
1.06538e+07
1.06512e+07
1.06486e+07
1.0646e+07
1.06434e+07
1.06408e+07
1.06382e+07
1.06356e+07
1.0633e+07
1.06304e+07
1.06278e+07
1.06252e+07
1.06226e+07
1.06199e+07
1.06173e+07
1.06146e+07
1.0612e+07
1.06093e+07
1.06067e+07
1.0604e+07
1.06013e+07
1.05986e+07
1.05958e+07
1.05931e+07
1.05904e+07
1.05876e+07
1.05849e+07
1.05821e+07
1.05793e+07
1.05765e+07
1.05736e+07
1.05708e+07
1.05679e+07
1.0565e+07
1.05621e+07
1.05592e+07
1.05563e+07
1.05533e+07
1.05504e+07
1.05474e+07
1.05444e+07
1.05413e+07
1.05383e+07
1.05352e+07
1.05321e+07
1.0529e+07
1.05259e+07
1.05227e+07
1.05195e+07
1.05163e+07
1.05131e+07
1.05099e+07
1.05066e+07
1.05033e+07
1.05e+07
1.04966e+07
1.04933e+07
1.04899e+07
1.04864e+07
1.0483e+07
1.04795e+07
1.0476e+07
1.04725e+07
1.0469e+07
1.04654e+07
1.04618e+07
1.04581e+07
1.04545e+07
1.04508e+07
1.04471e+07
1.04433e+07
1.04396e+07
1.04358e+07
1.04319e+07
1.04281e+07
1.04242e+07
1.04203e+07
1.04163e+07
1.04123e+07
1.04083e+07
1.04043e+07
1.04002e+07
1.03961e+07
1.0392e+07
1.03878e+07
1.03836e+07
1.03794e+07
1.03751e+07
1.03708e+07
1.03665e+07
1.03621e+07
1.03577e+07
1.03533e+07
1.03488e+07
1.03443e+07
1.03398e+07
1.03352e+07
1.03306e+07
1.0326e+07
1.03213e+07
1.03166e+07
1.03118e+07
1.0307e+07
1.03022e+07
1.02973e+07
1.02924e+07
1.02875e+07
1.02826e+07
1.02776e+07
1.02725e+07
1.02674e+07
1.02623e+07
1.02572e+07
1.29392e+07
1.29375e+07
1.29344e+07
1.29298e+07
1.29237e+07
1.29161e+07
1.29069e+07
1.28962e+07
1.2884e+07
1.28702e+07
1.28548e+07
1.28379e+07
1.28195e+07
1.27995e+07
1.2778e+07
1.27549e+07
1.27304e+07
1.27043e+07
1.26768e+07
1.26477e+07
1.26172e+07
1.25853e+07
1.25519e+07
1.2517e+07
1.24807e+07
1.2443e+07
1.24039e+07
1.23634e+07
1.23214e+07
1.22781e+07
1.22334e+07
1.21873e+07
1.21398e+07
1.20909e+07
1.20407e+07
1.19891e+07
1.19362e+07
1.1882e+07
1.18265e+07
1.17697e+07
1.17116e+07
1.16524e+07
1.15921e+07
1.15306e+07
1.14682e+07
1.14049e+07
1.13407e+07
1.12759e+07
1.12105e+07
1.11446e+07
1.10784e+07
1.1012e+07
1.09455e+07
1.08788e+07
1.08116e+07
1.07424e+07
1.06823e+07
1.06793e+07
1.06767e+07
1.06741e+07
1.06715e+07
1.06689e+07
1.06663e+07
1.06637e+07
1.06611e+07
1.06586e+07
1.0656e+07
1.06534e+07
1.06508e+07
1.06483e+07
1.06457e+07
1.06431e+07
1.06405e+07
1.06379e+07
1.06354e+07
1.06328e+07
1.06302e+07
1.06276e+07
1.0625e+07
1.06224e+07
1.06197e+07
1.06171e+07
1.06145e+07
1.06118e+07
1.06092e+07
1.06065e+07
1.06038e+07
1.06011e+07
1.05985e+07
1.05957e+07
1.0593e+07
1.05903e+07
1.05875e+07
1.05848e+07
1.0582e+07
1.05792e+07
1.05764e+07
1.05736e+07
1.05707e+07
1.05679e+07
1.0565e+07
1.05621e+07
1.05592e+07
1.05562e+07
1.05533e+07
1.05503e+07
1.05473e+07
1.05443e+07
1.05413e+07
1.05383e+07
1.05352e+07
1.05321e+07
1.0529e+07
1.05259e+07
1.05227e+07
1.05195e+07
1.05163e+07
1.05131e+07
1.05098e+07
1.05066e+07
1.05033e+07
1.05e+07
1.04966e+07
1.04933e+07
1.04899e+07