/*--------------------------------*- C++ -*----------------------------------*\
  =========                 |
  \\      /  F ield         | OpenFOAM: The Open Source CFD Toolbox
   \\    /   O peration     | Website:  https://openfoam.org
    \\  /    A nd           | Version:  10
     \\/     M anipulation  |
\*---------------------------------------------------------------------------*/
FoamFile
{
    format      ascii;
    class       volScalarField;
    location    "2.24";
    object      Sb;
}
// * * * * * * * * * * * * * * * * * * * * * * * * * * * * * * * * * * * * * //

dimensions      [0 0 0 0 0 0 0];

internalField   nonuniform List<scalar> 
12225
(
0.87427
0.873279
0.872044
0.870694
0.869316
0.867966
0.866682
0.865483
0.864384
0.863394
0.862524
0.861783
0.86119
0.860774
0.860594
0.860778
0.861673
0.864337
0.886104
0.884851
0.883306
0.881634
0.879943
0.878302
0.876753
0.875317
0.874009
0.872837
0.871809
0.870936
0.870234
0.869735
0.869493
0.869624
0.870364
0.872118
0.893528
0.892056
0.890258
0.888326
0.886389
0.884522
0.882769
0.881152
0.879685
0.878375
0.877227
0.87625
0.875459
0.87488
0.87456
0.874581
0.875074
0.876154
0.899422
0.897738
0.895697
0.893523
0.891358
0.889284
0.887346
0.885568
0.883958
0.882523
0.881265
0.880191
0.879311
0.878646
0.878228
0.878106
0.878334
0.878908
0.904579
0.902676
0.90039
0.897973
0.895582
0.893306
0.891189
0.889253
0.887506
0.885949
0.884583
0.883411
0.882438
0.881675
0.881142
0.880859
0.880831
0.88101
0.909345
0.907206
0.904661
0.901992
0.89937
0.896887
0.89459
0.892496
0.89061
0.88893
0.887454
0.886179
0.885104
0.884234
0.883572
0.883118
0.882851
0.882711
0.913908
0.911509
0.908684
0.905747
0.902881
0.900184
0.8977
0.895443
0.893414
0.891607
0.890015
0.88863
0.887446
0.886457
0.885657
0.88503
0.884544
0.88414
0.918388
0.915697
0.912563
0.909336
0.906211
0.903287
0.900606
0.898178
0.896
0.89406
0.892345
0.890842
0.88954
0.888425
0.88748
0.886684
0.885997
0.885369
0.922876
0.919849
0.91637
0.912824
0.909418
0.906252
0.903362
0.900754
0.898418
0.896336
0.894491
0.892863
0.891434
0.890186
0.889095
0.888133
0.887264
0.886443
0.927447
0.924026
0.920157
0.916257
0.912544
0.909115
0.906002
0.903203
0.900699
0.898467
0.896483
0.894722
0.893161
0.891775
0.890537
0.889416
0.88838
0.88739
0.932169
0.92828
0.923961
0.919664
0.915613
0.9119
0.908547
0.905543
0.902861
0.90047
0.89834
0.896439
0.89474
0.893213
0.891829
0.890558
0.889367
0.888227
0.937114
0.932656
0.927813
0.923066
0.91864
0.914617
0.911006
0.907784
0.904914
0.902356
0.900071
0.898025
0.896184
0.894515
0.892987
0.891571
0.890237
0.888961
0.941574
0.936512
0.931137
0.92595
0.921166
0.916852
0.913003
0.909583
0.906542
0.903833
0.901411
0.899236
0.897269
0.895479
0.893832
0.892299
0.890855
0.889475
0.946981
0.941076
0.934993
0.929236
0.924001
0.91933
0.915193
0.911535
0.908292
0.905407
0.902826
0.900503
0.898398
0.896474
0.894698
0.893043
0.891481
0.889993
0.953628
0.946503
0.939449
0.932943
0.927136
0.922024
0.917542
0.913604
0.910128
0.907042
0.904283
0.901798
0.899542
0.897474
0.89556
0.893771
0.892081
0.890472
0.962027
0.953057
0.944613
0.937088
0.930542
0.924888
0.919997
0.915741
0.912011
0.908711
0.905764
0.903103
0.900676
0.898439
0.896356
0.8944
0.892549
0.890787
0.973801
0.962027
0.951451
0.942471
0.934951
0.928609
0.923192
0.918505
0.914401
0.910747
0.907439
0.904425
0.90166
0.899109
0.896739
0.894526
0.892451
0.890498
0.958399
0.950268
0.942636
0.935725
0.929573
0.924131
0.919314
0.915031
0.911197
0.907758
0.904671
0.901838
0.899201
0.896741
0.894442
0.892288
0.890264
0.88836
0.943267
0.937748
0.932143
0.926802
0.921852
0.917323
0.9132
0.909447
0.906024
0.90289
0.900008
0.897374
0.89497
0.892728
0.890629
0.88866
0.886807
0.88506
0.932395
0.928362
0.92399
0.919638
0.915473
0.911566
0.907935
0.904577
0.901472
0.898598
0.895933
0.893454
0.891145
0.889024
0.887032
0.885157
0.88339
0.881721
0.923073
0.919986
0.916478
0.912863
0.909313
0.905914
0.902703
0.899693
0.896878
0.89425
0.891794
0.889496
0.887342
0.885324
0.883453
0.881691
0.880026
0.878452
0.914845
0.912392
0.909508
0.906457
0.903397
0.900418
0.897564
0.894858
0.892305
0.889902
0.887643
0.885517
0.883517
0.881631
0.879865
0.878209
0.876643
0.875161
0.907383
0.905379
0.902963
0.900353
0.897691
0.895062
0.892515
0.890077
0.887758
0.885561
0.883483
0.881519
0.879663
0.877909
0.876249
0.874693
0.873221
0.871827
0.900437
0.898765
0.896712
0.894457
0.892123
0.889793
0.887513
0.885312
0.883203
0.881194
0.879284
0.877472
0.875752
0.874121
0.872574
0.871114
0.869733
0.868423
0.893791
0.892377
0.890614
0.888651
0.886597
0.884524
0.882479
0.88049
0.878574
0.876738
0.874984
0.873313
0.871723
0.870209
0.86877
0.867401
0.866108
0.864879
0.887228
0.886023
0.8845
0.882785
0.880972
0.879127
0.877294
0.8755
0.873761
0.872086
0.87048
0.868943
0.867475
0.866075
0.864739
0.863465
0.862257
0.861106
0.88048
0.87945
0.878133
0.876636
0.875039
0.873402
0.871764
0.870151
0.86858
0.867059
0.865595
0.864188
0.862841
0.861551
0.860317
0.859137
0.858014
0.856943
0.873121
0.872246
0.871115
0.869817
0.868422
0.866981
0.86553
0.864093
0.862686
0.861318
0.859995
0.85872
0.857493
0.856316
0.855186
0.854102
0.853067
0.852079
0.864234
0.863504
0.862551
0.861448
0.860253
0.85901
0.857751
0.856496
0.855261
0.854054
0.852882
0.851747
0.85065
0.849594
0.848577
0.847599
0.846659
0.845761
0.850305
0.849728
0.848965
0.848072
0.847096
0.846072
0.845024
0.843973
0.842929
0.841903
0.840898
0.839919
0.838968
0.838045
0.837152
0.836288
0.835453
0.834657
0.748323
0.748375
0.74844
0.748516
0.748603
0.748702
0.748815
0.748945
0.749096
0.74927
0.749474
0.74971
0.749984
0.750303
0.750672
0.751099
0.751592
0.752162
0.752817
0.753571
0.754436
0.755427
0.756556
0.757839
0.759289
0.760915
0.762722
0.764705
0.766847
0.769117
0.771464
0.773828
0.776139
0.778326
0.780332
0.782112
0.783639
0.784901
0.785894
0.786615
0.787055
0.787181
0.786914
0.786067
0.78418
0.779912
0.767642
0.675974
0.0618901
3.04045e-06
1.1e-06
1.1e-06
1.1e-06
1.1e-06
1.1e-06
1.1e-06
1.1e-06
1.1e-06
1.1e-06
1.1e-06
1.1e-06
1.1e-06
1.1e-06
1.1e-06
1.1e-06
1.1e-06
1.1e-06
1.1e-06
1.1e-06
1.1e-06
1.1e-06
1.1e-06
1.1e-06
1.1e-06
1.1e-06
1.1e-06
1.1e-06
1.1e-06
1.1e-06
1.1e-06
1.1e-06
1.1e-06
1.1e-06
1.1e-06
1.1e-06
1.1e-06
1.1e-06
1.1e-06
1.1e-06
1.1e-06
1.1e-06
1.1e-06
1.1e-06
1.1e-06
1.1e-06
1.1e-06
1.1e-06
1.1e-06
1.1e-06
1.1e-06
1.1e-06
1.1e-06
1.1e-06
1.1e-06
1.1e-06
1.1e-06
1.1e-06
1.1e-06
1.1e-06
1.1e-06
1.1e-06
1.1e-06
1.1e-06
1.1e-06
1.1e-06
1.1e-06
1.1e-06
1.1e-06
1.1e-06
1.1e-06
1.1e-06
1.1e-06
1.1e-06
1.1e-06
1.1e-06
1.1e-06
1.1e-06
1.1e-06
1.1e-06
1.1e-06
1.1e-06
1.1e-06
1.1e-06
1.1e-06
1.1e-06
1.1e-06
1.1e-06
1.1e-06
1.1e-06
1.1e-06
1.1e-06
1.1e-06
1.1e-06
1.1e-06
1.1e-06
1.1e-06
1.1e-06
1.1e-06
1.1e-06
1.1e-06
1.1e-06
1.1e-06
1.1e-06
1.1e-06
1.1e-06
1.1e-06
1.1e-06
1.1e-06
1.1e-06
1.1e-06
1.1e-06
1.1e-06
1.1e-06
1.1e-06
1.1e-06
1.1e-06
1.1e-06
1.1e-06
1.1e-06
1.1e-06
1.1e-06
1.1e-06
1.1e-06
1.1e-06
1.1e-06
1.1e-06
1.1e-06
1.1e-06
1.1e-06
1.1e-06
0.802453
0.802504
0.802571
0.802652
0.802746
0.802858
0.803003
0.803194
0.803447
0.803774
0.804184
0.804683
0.805275
0.805956
0.80672
0.807553
0.808439
0.809351
0.810262
0.811144
0.811969
0.812713
0.813356
0.813881
0.814278
0.814539
0.814663
0.814651
0.814509
0.814242
0.81386
0.81337
0.812777
0.812089
0.811308
0.810438
0.80948
0.808435
0.8073
0.806066
0.804715
0.80321
0.801476
0.799361
0.796538
0.792184
0.783616
0.754628
0.334724
0.000253291
1.1e-06
1.1e-06
1.1e-06
1.1e-06
1.1e-06
1.1e-06
1.1e-06
1.1e-06
1.1e-06
1.1e-06
1.1e-06
1.1e-06
1.1e-06
1.1e-06
1.1e-06
1.1e-06
1.1e-06
1.1e-06
1.1e-06
1.1e-06
1.1e-06
1.1e-06
1.1e-06
1.1e-06
1.1e-06
1.1e-06
1.1e-06
1.1e-06
1.1e-06
1.1e-06
1.1e-06
1.1e-06
1.1e-06
1.1e-06
1.1e-06
1.1e-06
1.1e-06
1.1e-06
1.1e-06
1.1e-06
1.1e-06
1.1e-06
1.1e-06
1.1e-06
1.1e-06
1.1e-06
1.1e-06
1.1e-06
1.1e-06
1.1e-06
1.1e-06
1.1e-06
1.1e-06
1.1e-06
1.1e-06
1.1e-06
1.1e-06
1.1e-06
1.1e-06
1.1e-06
1.1e-06
1.1e-06
1.1e-06
1.1e-06
1.1e-06
1.1e-06
1.1e-06
1.1e-06
1.1e-06
1.1e-06
1.1e-06
1.1e-06
1.1e-06
1.1e-06
1.1e-06
1.1e-06
1.1e-06
1.1e-06
1.1e-06
1.1e-06
1.1e-06
1.1e-06
1.1e-06
1.1e-06
1.1e-06
1.1e-06
1.1e-06
1.1e-06
1.1e-06
1.1e-06
1.1e-06
1.1e-06
1.1e-06
1.1e-06
1.1e-06
1.1e-06
1.1e-06
1.1e-06
1.1e-06
1.1e-06
1.1e-06
1.1e-06
1.1e-06
1.1e-06
1.1e-06
1.1e-06
1.1e-06
1.1e-06
1.1e-06
1.1e-06
1.1e-06
1.1e-06
1.1e-06
1.1e-06
1.1e-06
1.1e-06
1.1e-06
1.1e-06
1.1e-06
1.1e-06
1.1e-06
1.1e-06
1.1e-06
1.1e-06
1.1e-06
1.1e-06
1.1e-06
1.1e-06
1.1e-06
1.1e-06
0.815227
0.815285
0.815344
0.815406
0.815467
0.815532
0.815614
0.815729
0.815892
0.816114
0.816407
0.816776
0.817226
0.817759
0.818369
0.819046
0.819773
0.820527
0.821276
0.82199
0.822633
0.823177
0.823596
0.823873
0.823997
0.823963
0.823772
0.823429
0.822943
0.822327
0.821591
0.820748
0.81981
0.818787
0.81769
0.816527
0.815305
0.814027
0.812694
0.8113
0.80983
0.808253
0.806508
0.804483
0.801953
0.798429
0.792612
0.779584
0.709496
0.0879245
6.36142e-06
1.1e-06
1.1e-06
1.1e-06
1.1e-06
1.1e-06
1.1e-06
1.1e-06
1.1e-06
1.1e-06
1.1e-06
1.1e-06
1.1e-06
1.1e-06
1.1e-06
1.1e-06
1.1e-06
1.1e-06
1.1e-06
1.1e-06
1.1e-06
1.1e-06
1.1e-06
1.1e-06
1.1e-06
1.1e-06
1.1e-06
1.1e-06
1.1e-06
1.1e-06
1.1e-06
1.1e-06
1.1e-06
1.1e-06
1.1e-06
1.1e-06
1.1e-06
1.1e-06
1.1e-06
1.1e-06
1.1e-06
1.1e-06
1.1e-06
1.1e-06
1.1e-06
1.1e-06
1.1e-06
1.1e-06
1.1e-06
1.1e-06
1.1e-06
1.1e-06
1.1e-06
1.1e-06
1.1e-06
1.1e-06
1.1e-06
1.1e-06
1.1e-06
1.1e-06
1.1e-06
1.1e-06
1.1e-06
1.1e-06
1.1e-06
1.1e-06
1.1e-06
1.1e-06
1.1e-06
1.1e-06
1.1e-06
1.1e-06
1.1e-06
1.1e-06
1.1e-06
1.1e-06
1.1e-06
1.1e-06
1.1e-06
1.1e-06
1.1e-06
1.1e-06
1.1e-06
1.1e-06
1.1e-06
1.1e-06
1.1e-06
1.1e-06
1.1e-06
1.1e-06
1.1e-06
1.1e-06
1.1e-06
1.1e-06
1.1e-06
1.1e-06
1.1e-06
1.1e-06
1.1e-06
1.1e-06
1.1e-06
1.1e-06
1.1e-06
1.1e-06
1.1e-06
1.1e-06
1.1e-06
1.1e-06
1.1e-06
1.1e-06
1.1e-06
1.1e-06
1.1e-06
1.1e-06
1.1e-06
1.1e-06
1.1e-06
1.1e-06
1.1e-06
1.1e-06
1.1e-06
1.1e-06
1.1e-06
1.1e-06
1.1e-06
1.1e-06
1.1e-06
1.1e-06
1.1e-06
1.1e-06
0.822333
0.822414
0.822486
0.822554
0.822612
0.822662
0.822708
0.822757
0.822816
0.822891
0.822986
0.823105
0.823249
0.823417
0.823607
0.823814
0.824031
0.824247
0.824452
0.824632
0.824772
0.824862
0.82489
0.824846
0.824724
0.824518
0.824225
0.823843
0.823375
0.822824
0.822193
0.821488
0.820716
0.819883
0.818993
0.818053
0.817064
0.816027
0.814938
0.813788
0.81256
0.811226
0.809735
0.808006
0.80589
0.803102
0.799001
0.7918
0.773801
0.614984
0.0146555
1.10573e-06
1.1e-06
1.1e-06
1.1e-06
1.1e-06
1.1e-06
1.1e-06
1.1e-06
1.1e-06
1.1e-06
1.1e-06
1.1e-06
1.1e-06
1.1e-06
1.1e-06
1.1e-06
1.1e-06
1.1e-06
1.1e-06
1.1e-06
1.1e-06
1.1e-06
1.1e-06
1.1e-06
1.1e-06
1.1e-06
1.1e-06
1.1e-06
1.1e-06
1.1e-06
1.1e-06
1.1e-06
1.1e-06
1.1e-06
1.1e-06
1.1e-06
1.1e-06
1.1e-06
1.1e-06
1.1e-06
1.1e-06
1.1e-06
1.1e-06
1.1e-06
1.1e-06
1.1e-06
1.1e-06
1.1e-06
1.1e-06
1.1e-06
1.1e-06
1.1e-06
1.1e-06
1.1e-06
1.1e-06
1.1e-06
1.1e-06
1.1e-06
1.1e-06
1.1e-06
1.1e-06
1.1e-06
1.1e-06
1.1e-06
1.1e-06
1.1e-06
1.1e-06
1.1e-06
1.1e-06
1.1e-06
1.1e-06
1.1e-06
1.1e-06
1.1e-06
1.1e-06
1.1e-06
1.1e-06
1.1e-06
1.1e-06
1.1e-06
1.1e-06
1.1e-06
1.1e-06
1.1e-06
1.1e-06
1.1e-06
1.1e-06
1.1e-06
1.1e-06
1.1e-06
1.1e-06
1.1e-06
1.1e-06
1.1e-06
1.1e-06
1.1e-06
1.1e-06
1.1e-06
1.1e-06
1.1e-06
1.1e-06
1.1e-06
1.1e-06
1.1e-06
1.1e-06
1.1e-06
1.1e-06
1.1e-06
1.1e-06
1.1e-06
1.1e-06
1.1e-06
1.1e-06
1.1e-06
1.1e-06
1.1e-06
1.1e-06
1.1e-06
1.1e-06
1.1e-06
1.1e-06
1.1e-06
1.1e-06
1.1e-06
1.1e-06
1.1e-06
1.1e-06
1.1e-06
1.1e-06
0.827433
0.827545
0.827642
0.827726
0.827794
0.827845
0.82788
0.827902
0.827914
0.827919
0.82792
0.827918
0.827913
0.827906
0.827896
0.827879
0.827854
0.827815
0.827759
0.827679
0.82757
0.827426
0.827243
0.827015
0.826739
0.826411
0.826028
0.82559
0.825095
0.824545
0.823941
0.823285
0.822579
0.821827
0.82103
0.820189
0.819305
0.818375
0.817394
0.816353
0.815237
0.814022
0.812669
0.811121
0.809279
0.806974
0.80387
0.7992
0.790712
0.767495
0.496058
0.00241976
1.1e-06
1.1e-06
1.1e-06
1.1e-06
1.1e-06
1.1e-06
1.1e-06
1.1e-06
1.1e-06
1.1e-06
1.1e-06
1.1e-06
1.1e-06
1.1e-06
1.1e-06
1.1e-06
1.1e-06
1.1e-06
1.1e-06
1.1e-06
1.1e-06
1.1e-06
1.1e-06
1.1e-06
1.1e-06
1.1e-06
1.1e-06
1.1e-06
1.1e-06
1.1e-06
1.1e-06
1.1e-06
1.1e-06
1.1e-06
1.1e-06
1.1e-06
1.1e-06
1.1e-06
1.1e-06
1.1e-06
1.1e-06
1.1e-06
1.1e-06
1.1e-06
1.1e-06
1.1e-06
1.1e-06
1.1e-06
1.1e-06
1.1e-06
1.1e-06
1.1e-06
1.1e-06
1.1e-06
1.1e-06
1.1e-06
1.1e-06
1.1e-06
1.1e-06
1.1e-06
1.1e-06
1.1e-06
1.1e-06
1.1e-06
1.1e-06
1.1e-06
1.1e-06
1.1e-06
1.1e-06
1.1e-06
1.1e-06
1.1e-06
1.1e-06
1.1e-06
1.1e-06
1.1e-06
1.1e-06
1.1e-06
1.1e-06
1.1e-06
1.1e-06
1.1e-06
1.1e-06
1.1e-06
1.1e-06
1.1e-06
1.1e-06
1.1e-06
1.1e-06
1.1e-06
1.1e-06
1.1e-06
1.1e-06
1.1e-06
1.1e-06
1.1e-06
1.1e-06
1.1e-06
1.1e-06
1.1e-06
1.1e-06
1.1e-06
1.1e-06
1.1e-06
1.1e-06
1.1e-06
1.1e-06
1.1e-06
1.1e-06
1.1e-06
1.1e-06
1.1e-06
1.1e-06
1.1e-06
1.1e-06
1.1e-06
1.1e-06
1.1e-06
1.1e-06
1.1e-06
1.1e-06
1.1e-06
1.1e-06
1.1e-06
1.1e-06
1.1e-06
1.1e-06
1.1e-06
0.831538
0.831687
0.831814
0.831921
0.832005
0.832066
0.832103
0.832117
0.83211
0.832082
0.832036
0.831971
0.831888
0.831787
0.831668
0.831531
0.831374
0.831196
0.830994
0.830768
0.830515
0.830233
0.829919
0.829572
0.829189
0.828768
0.82831
0.827812
0.827274
0.826696
0.826079
0.825424
0.82473
0.823999
0.82323
0.822424
0.821578
0.82069
0.819753
0.81876
0.817698
0.816547
0.815279
0.813852
0.812202
0.810222
0.807725
0.804336
0.799178
0.789556
0.760972
0.402133
0.000692268
1.1e-06
1.1e-06
1.1e-06
1.1e-06
1.1e-06
1.1e-06
1.1e-06
1.1e-06
1.1e-06
1.1e-06
1.1e-06
1.1e-06
1.1e-06
1.1e-06
1.1e-06
1.1e-06
1.1e-06
1.1e-06
1.1e-06
1.1e-06
1.1e-06
1.1e-06
1.1e-06
1.1e-06
1.1e-06
1.1e-06
1.1e-06
1.1e-06
1.1e-06
1.1e-06
1.1e-06
1.1e-06
1.1e-06
1.1e-06
1.1e-06
1.1e-06
1.1e-06
1.1e-06
1.1e-06
1.1e-06
1.1e-06
1.1e-06
1.1e-06
1.1e-06
1.1e-06
1.1e-06
1.1e-06
1.1e-06
1.1e-06
1.1e-06
1.1e-06
1.1e-06
1.1e-06
1.1e-06
1.1e-06
1.1e-06
1.1e-06
1.1e-06
1.1e-06
1.1e-06
1.1e-06
1.1e-06
1.1e-06
1.1e-06
1.1e-06
1.1e-06
1.1e-06
1.1e-06
1.1e-06
1.1e-06
1.1e-06
1.1e-06
1.1e-06
1.1e-06
1.1e-06
1.1e-06
1.1e-06
1.1e-06
1.1e-06
1.1e-06
1.1e-06
1.1e-06
1.1e-06
1.1e-06
1.1e-06
1.1e-06
1.1e-06
1.1e-06
1.1e-06
1.1e-06
1.1e-06
1.1e-06
1.1e-06
1.1e-06
1.1e-06
1.1e-06
1.1e-06
1.1e-06
1.1e-06
1.1e-06
1.1e-06
1.1e-06
1.1e-06
1.1e-06
1.1e-06
1.1e-06
1.1e-06
1.1e-06
1.1e-06
1.1e-06
1.1e-06
1.1e-06
1.1e-06
1.1e-06
1.1e-06
1.1e-06
1.1e-06
1.1e-06
1.1e-06
1.1e-06
1.1e-06
1.1e-06
1.1e-06
1.1e-06
1.1e-06
1.1e-06
1.1e-06
0.835062
0.83525
0.835411
0.835546
0.835652
0.835728
0.835774
0.83579
0.835776
0.835733
0.835661
0.83556
0.835432
0.835276
0.835092
0.834882
0.834645
0.834381
0.834089
0.83377
0.833424
0.833049
0.832645
0.832211
0.831748
0.831254
0.83073
0.830174
0.829588
0.82897
0.82832
0.82764
0.826929
0.826186
0.825412
0.824604
0.82376
0.822878
0.821952
0.820974
0.819935
0.818819
0.817604
0.816262
0.814748
0.812991
0.810881
0.808214
0.804581
0.799
0.788337
0.75395
0.326049
0.000271843
1.1e-06
1.1e-06
1.1e-06
1.1e-06
1.1e-06
1.1e-06
1.1e-06
1.1e-06
1.1e-06
1.1e-06
1.1e-06
1.1e-06
1.1e-06
1.1e-06
1.1e-06
1.1e-06
1.1e-06
1.1e-06
1.1e-06
1.1e-06
1.1e-06
1.1e-06
1.1e-06
1.1e-06
1.1e-06
1.1e-06
1.1e-06
1.1e-06
1.1e-06
1.1e-06
1.1e-06
1.1e-06
1.1e-06
1.1e-06
1.1e-06
1.1e-06
1.1e-06
1.1e-06
1.1e-06
1.1e-06
1.1e-06
1.1e-06
1.1e-06
1.1e-06
1.1e-06
1.1e-06
1.1e-06
1.1e-06
1.1e-06
1.1e-06
1.1e-06
1.1e-06
1.1e-06
1.1e-06
1.1e-06
1.1e-06
1.1e-06
1.1e-06
1.1e-06
1.1e-06
1.1e-06
1.1e-06
1.1e-06
1.1e-06
1.1e-06
1.1e-06
1.1e-06
1.1e-06
1.1e-06
1.1e-06
1.1e-06
1.1e-06
1.1e-06
1.1e-06
1.1e-06
1.1e-06
1.1e-06
1.1e-06
1.1e-06
1.1e-06
1.1e-06
1.1e-06
1.1e-06
1.1e-06
1.1e-06
1.1e-06
1.1e-06
1.1e-06
1.1e-06
1.1e-06
1.1e-06
1.1e-06
1.1e-06
1.1e-06
1.1e-06
1.1e-06
1.1e-06
1.1e-06
1.1e-06
1.1e-06
1.1e-06
1.1e-06
1.1e-06
1.1e-06
1.1e-06
1.1e-06
1.1e-06
1.1e-06
1.1e-06
1.1e-06
1.1e-06
1.1e-06
1.1e-06
1.1e-06
1.1e-06
1.1e-06
1.1e-06
1.1e-06
1.1e-06
1.1e-06
1.1e-06
1.1e-06
1.1e-06
1.1e-06
1.1e-06
1.1e-06
0.838217
0.838445
0.838643
0.838807
0.838938
0.839034
0.839093
0.839115
0.839101
0.83905
0.838962
0.838839
0.83868
0.838486
0.838258
0.837998
0.837705
0.83738
0.837024
0.836638
0.836222
0.835778
0.835304
0.834803
0.834273
0.833716
0.833132
0.832521
0.831883
0.831219
0.830528
0.829811
0.829068
0.828297
0.827498
0.82667
0.82581
0.824916
0.823982
0.823003
0.82197
0.820871
0.819691
0.818407
0.816989
0.815389
0.813535
0.811309
0.808492
0.80464
0.798655
0.786901
0.745079
0.252221
0.000110975
1.1e-06
1.1e-06
1.1e-06
1.1e-06
1.1e-06
1.1e-06
1.1e-06
1.1e-06
1.1e-06
1.1e-06
1.1e-06
1.1e-06
1.1e-06
1.1e-06
1.1e-06
1.1e-06
1.1e-06
1.1e-06
1.1e-06
1.1e-06
1.1e-06
1.1e-06
1.1e-06
1.1e-06
1.1e-06
1.1e-06
1.1e-06
1.1e-06
1.1e-06
1.1e-06
1.1e-06
1.1e-06
1.1e-06
1.1e-06
1.1e-06
1.1e-06
1.1e-06
1.1e-06
1.1e-06
1.1e-06
1.1e-06
1.1e-06
1.1e-06
1.1e-06
1.1e-06
1.1e-06
1.1e-06
1.1e-06
1.1e-06
1.1e-06
1.1e-06
1.1e-06
1.1e-06
1.1e-06
1.1e-06
1.1e-06
1.1e-06
1.1e-06
1.1e-06
1.1e-06
1.1e-06
1.1e-06
1.1e-06
1.1e-06
1.1e-06
1.1e-06
1.1e-06
1.1e-06
1.1e-06
1.1e-06
1.1e-06
1.1e-06
1.1e-06
1.1e-06
1.1e-06
1.1e-06
1.1e-06
1.1e-06
1.1e-06
1.1e-06
1.1e-06
1.1e-06
1.1e-06
1.1e-06
1.1e-06
1.1e-06
1.1e-06
1.1e-06
1.1e-06
1.1e-06
1.1e-06
1.1e-06
1.1e-06
1.1e-06
1.1e-06
1.1e-06
1.1e-06
1.1e-06
1.1e-06
1.1e-06
1.1e-06
1.1e-06
1.1e-06
1.1e-06
1.1e-06
1.1e-06
1.1e-06
1.1e-06
1.1e-06
1.1e-06
1.1e-06
1.1e-06
1.1e-06
1.1e-06
1.1e-06
1.1e-06
1.1e-06
1.1e-06
1.1e-06
1.1e-06
1.1e-06
1.1e-06
1.1e-06
1.1e-06
1.1e-06
0.84112
0.841391
0.841627
0.841824
0.841982
0.842098
0.842172
0.842203
0.842191
0.842136
0.842037
0.841896
0.841713
0.84149
0.841227
0.840926
0.840587
0.840213
0.839805
0.839364
0.838891
0.838387
0.837854
0.837293
0.836705
0.83609
0.83545
0.834785
0.834096
0.833384
0.832647
0.831888
0.831105
0.830298
0.829467
0.828609
0.827723
0.826807
0.825856
0.824866
0.823829
0.822737
0.821578
0.820334
0.818984
0.817494
0.815816
0.813875
0.811542
0.808584
0.80451
0.798083
0.784994
0.73162
0.17386
3.78633e-05
1.1e-06
1.1e-06
1.1e-06
1.1e-06
1.1e-06
1.1e-06
1.1e-06
1.1e-06
1.1e-06
1.1e-06
1.1e-06
1.1e-06
1.1e-06
1.1e-06
1.1e-06
1.1e-06
1.1e-06
1.1e-06
1.1e-06
1.1e-06
1.1e-06
1.1e-06
1.1e-06
1.1e-06
1.1e-06
1.1e-06
1.1e-06
1.1e-06
1.1e-06
1.1e-06
1.1e-06
1.1e-06
1.1e-06
1.1e-06
1.1e-06
1.1e-06
1.1e-06
1.1e-06
1.1e-06
1.1e-06
1.1e-06
1.1e-06
1.1e-06
1.1e-06
1.1e-06
1.1e-06
1.1e-06
1.1e-06
1.1e-06
1.1e-06
1.1e-06
1.1e-06
1.1e-06
1.1e-06
1.1e-06
1.1e-06
1.1e-06
1.1e-06
1.1e-06
1.1e-06
1.1e-06
1.1e-06
1.1e-06
1.1e-06
1.1e-06
1.1e-06
1.1e-06
1.1e-06
1.1e-06
1.1e-06
1.1e-06
1.1e-06
1.1e-06
1.1e-06
1.1e-06
1.1e-06
1.1e-06
1.1e-06
1.1e-06
1.1e-06
1.1e-06
1.1e-06
1.1e-06
1.1e-06
1.1e-06
1.1e-06
1.1e-06
1.1e-06
1.1e-06
1.1e-06
1.1e-06
1.1e-06
1.1e-06
1.1e-06
1.1e-06
1.1e-06
1.1e-06
1.1e-06
1.1e-06
1.1e-06
1.1e-06
1.1e-06
1.1e-06
1.1e-06
1.1e-06
1.1e-06
1.1e-06
1.1e-06
1.1e-06
1.1e-06
1.1e-06
1.1e-06
1.1e-06
1.1e-06
1.1e-06
1.1e-06
1.1e-06
1.1e-06
1.1e-06
1.1e-06
1.1e-06
1.1e-06
1.1e-06
1.1e-06
0.843845
0.84416
0.844435
0.844667
0.844853
0.844992
0.845083
0.845124
0.845115
0.845056
0.844947
0.844791
0.844586
0.844335
0.84404
0.843701
0.843322
0.842903
0.842446
0.841955
0.841429
0.840871
0.840284
0.839667
0.839024
0.838355
0.837661
0.836943
0.836203
0.835441
0.834658
0.833853
0.833028
0.832181
0.831313
0.830421
0.829505
0.828562
0.827589
0.826583
0.825536
0.824444
0.823295
0.822078
0.820776
0.819364
0.817809
0.81606
0.814036
0.811599
0.808493
0.804168
0.797199
0.78229
0.707803
0.0950846
8.5147e-06
1.1e-06
1.1e-06
1.1e-06
1.1e-06
1.1e-06
1.1e-06
1.1e-06
1.1e-06
1.1e-06
1.1e-06
1.1e-06
1.1e-06
1.1e-06
1.1e-06
1.1e-06
1.1e-06
1.1e-06
1.1e-06
1.1e-06
1.1e-06
1.1e-06
1.1e-06
1.1e-06
1.1e-06
1.1e-06
1.1e-06
1.1e-06
1.1e-06
1.1e-06
1.1e-06
1.1e-06
1.1e-06
1.1e-06
1.1e-06
1.1e-06
1.1e-06
1.1e-06
1.1e-06
1.1e-06
1.1e-06
1.1e-06
1.1e-06
1.1e-06
1.1e-06
1.1e-06
1.1e-06
1.1e-06
1.1e-06
1.1e-06
1.1e-06
1.1e-06
1.1e-06
1.1e-06
1.1e-06
1.1e-06
1.1e-06
1.1e-06
1.1e-06
1.1e-06
1.1e-06
1.1e-06
1.1e-06
1.1e-06
1.1e-06
1.1e-06
1.1e-06
1.1e-06
1.1e-06
1.1e-06
1.1e-06
1.1e-06
1.1e-06
1.1e-06
1.1e-06
1.1e-06
1.1e-06
1.1e-06
1.1e-06
1.1e-06
1.1e-06
1.1e-06
1.1e-06
1.1e-06
1.1e-06
1.1e-06
1.1e-06
1.1e-06
1.1e-06
1.1e-06
1.1e-06
1.1e-06
1.1e-06
1.1e-06
1.1e-06
1.1e-06
1.1e-06
1.1e-06
1.1e-06
1.1e-06
1.1e-06
1.1e-06
1.1e-06
1.1e-06
1.1e-06
1.1e-06
1.1e-06
1.1e-06
1.1e-06
1.1e-06
1.1e-06
1.1e-06
1.1e-06
1.1e-06
1.1e-06
1.1e-06
1.1e-06
1.1e-06
1.1e-06
1.1e-06
1.1e-06
1.1e-06
1.1e-06
1.1e-06
0.84643
0.846793
0.84711
0.847378
0.847595
0.847759
0.847867
0.847918
0.847913
0.847851
0.847733
0.847559
0.847333
0.847054
0.846726
0.846351
0.84593
0.845467
0.844963
0.844422
0.843846
0.843236
0.842595
0.841925
0.841227
0.840505
0.839758
0.838989
0.838198
0.837387
0.836556
0.835706
0.834837
0.833948
0.833041
0.832114
0.831165
0.830193
0.829195
0.828169
0.82711
0.826012
0.824868
0.823668
0.822399
0.821043
0.819576
0.81796
0.816143
0.814036
0.811488
0.808212
0.803579
0.795891
0.778305
0.658699
0.0333987
1.55072e-06
1.1e-06
1.1e-06
1.1e-06
1.1e-06
1.1e-06
1.1e-06
1.1e-06
1.1e-06
1.1e-06
1.1e-06
1.1e-06
1.1e-06
1.1e-06
1.1e-06
1.1e-06
1.1e-06
1.1e-06
1.1e-06
1.1e-06
1.1e-06
1.1e-06
1.1e-06
1.1e-06
1.1e-06
1.1e-06
1.1e-06
1.1e-06
1.1e-06
1.1e-06
1.1e-06
1.1e-06
1.1e-06
1.1e-06
1.1e-06
1.1e-06
1.1e-06
1.1e-06
1.1e-06
1.1e-06
1.1e-06
1.1e-06
1.1e-06
1.1e-06
1.1e-06
1.1e-06
1.1e-06
1.1e-06
1.1e-06
1.1e-06
1.1e-06
1.1e-06
1.1e-06
1.1e-06
1.1e-06
1.1e-06
1.1e-06
1.1e-06
1.1e-06
1.1e-06
1.1e-06
1.1e-06
1.1e-06
1.1e-06
1.1e-06
1.1e-06
1.1e-06
1.1e-06
1.1e-06
1.1e-06
1.1e-06
1.1e-06
1.1e-06
1.1e-06
1.1e-06
1.1e-06
1.1e-06
1.1e-06
1.1e-06
1.1e-06
1.1e-06
1.1e-06
1.1e-06
1.1e-06
1.1e-06
1.1e-06
1.1e-06
1.1e-06
1.1e-06
1.1e-06
1.1e-06
1.1e-06
1.1e-06
1.1e-06
1.1e-06
1.1e-06
1.1e-06
1.1e-06
1.1e-06
1.1e-06
1.1e-06
1.1e-06
1.1e-06
1.1e-06
1.1e-06
1.1e-06
1.1e-06
1.1e-06
1.1e-06
1.1e-06
1.1e-06
1.1e-06
1.1e-06
1.1e-06
1.1e-06
1.1e-06
1.1e-06
1.1e-06
1.1e-06
1.1e-06
1.1e-06
1.1e-06
1.1e-06
0.848901
0.849314
0.849677
0.849985
0.850235
0.850424
0.850551
0.850613
0.850612
0.850546
0.850417
0.850226
0.849975
0.849667
0.849305
0.848891
0.848428
0.847919
0.847368
0.846776
0.846148
0.845486
0.844792
0.844068
0.843318
0.842542
0.841743
0.840922
0.840082
0.839222
0.838343
0.837448
0.836535
0.835605
0.834659
0.833695
0.832713
0.831711
0.830687
0.82964
0.828565
0.827458
0.826313
0.825122
0.823876
0.82256
0.821156
0.819637
0.817964
0.816078
0.813881
0.811205
0.807721
0.802684
0.793971
0.771929
0.547302
0.00519145
1.10005e-06
1.1e-06
1.1e-06
1.1e-06
1.1e-06
1.1e-06
1.1e-06
1.1e-06
1.1e-06
1.1e-06
1.1e-06
1.1e-06
1.1e-06
1.1e-06
1.1e-06
1.1e-06
1.1e-06
1.1e-06
1.1e-06
1.1e-06
1.1e-06
1.1e-06
1.1e-06
1.1e-06
1.1e-06
1.1e-06
1.1e-06
1.1e-06
1.1e-06
1.1e-06
1.1e-06
1.1e-06
1.1e-06
1.1e-06
1.1e-06
1.1e-06
1.1e-06
1.1e-06
1.1e-06
1.1e-06
1.1e-06
1.1e-06
1.1e-06
1.1e-06
1.1e-06
1.1e-06
1.1e-06
1.1e-06
1.1e-06
1.1e-06
1.1e-06
1.1e-06
1.1e-06
1.1e-06
1.1e-06
1.1e-06
1.1e-06
1.1e-06
1.1e-06
1.1e-06
1.1e-06
1.1e-06
1.1e-06
1.1e-06
1.1e-06
1.1e-06
1.1e-06
1.1e-06
1.1e-06
1.1e-06
1.1e-06
1.1e-06
1.1e-06
1.1e-06
1.1e-06
1.1e-06
1.1e-06
1.1e-06
1.1e-06
1.1e-06
1.1e-06
1.1e-06
1.1e-06
1.1e-06
1.1e-06
1.1e-06
1.1e-06
1.1e-06
1.1e-06
1.1e-06
1.1e-06
1.1e-06
1.1e-06
1.1e-06
1.1e-06
1.1e-06
1.1e-06
1.1e-06
1.1e-06
1.1e-06
1.1e-06
1.1e-06
1.1e-06
1.1e-06
1.1e-06
1.1e-06
1.1e-06
1.1e-06
1.1e-06
1.1e-06
1.1e-06
1.1e-06
1.1e-06
1.1e-06
1.1e-06
1.1e-06
1.1e-06
1.1e-06
1.1e-06
1.1e-06
1.1e-06
1.1e-06
0.851269
0.851737
0.852149
0.852501
0.852787
0.853005
0.853151
0.853225
0.853227
0.853156
0.853014
0.852804
0.852527
0.852187
0.851788
0.851332
0.850824
0.850268
0.849666
0.849023
0.848342
0.847626
0.846878
0.846101
0.845298
0.844469
0.843619
0.842748
0.841857
0.840949
0.840025
0.839084
0.838129
0.837159
0.836174
0.835173
0.834158
0.833126
0.832076
0.831006
0.829913
0.828795
0.827645
0.826458
0.825226
0.823939
0.822581
0.821132
0.819563
0.817832
0.815872
0.813573
0.810742
0.806986
0.801386
0.791087
0.760208
0.361458
0.00042138
1.1e-06
1.1e-06
1.1e-06
1.1e-06
1.1e-06
1.1e-06
1.1e-06
1.1e-06
1.1e-06
1.1e-06
1.1e-06
1.1e-06
1.1e-06
1.1e-06
1.1e-06
1.1e-06
1.1e-06
1.1e-06
1.1e-06
1.1e-06
1.1e-06
1.1e-06
1.1e-06
1.1e-06
1.1e-06
1.1e-06
1.1e-06
1.1e-06
1.1e-06
1.1e-06
1.1e-06
1.1e-06
1.1e-06
1.1e-06
1.1e-06
1.1e-06
1.1e-06
1.1e-06
1.1e-06
1.1e-06
1.1e-06
1.1e-06
1.1e-06
1.1e-06
1.1e-06
1.1e-06
1.1e-06
1.1e-06
1.1e-06
1.1e-06
1.1e-06
1.1e-06
1.1e-06
1.1e-06
1.1e-06
1.1e-06
1.1e-06
1.1e-06
1.1e-06
1.1e-06
1.1e-06
1.1e-06
1.1e-06
1.1e-06
1.1e-06
1.1e-06
1.1e-06
1.1e-06
1.1e-06
1.1e-06
1.1e-06
1.1e-06
1.1e-06
1.1e-06
1.1e-06
1.1e-06
1.1e-06
1.1e-06
1.1e-06
1.1e-06
1.1e-06
1.1e-06
1.1e-06
1.1e-06
1.1e-06
1.1e-06
1.1e-06
1.1e-06
1.1e-06
1.1e-06
1.1e-06
1.1e-06
1.1e-06
1.1e-06
1.1e-06
1.1e-06
1.1e-06
1.1e-06
1.1e-06
1.1e-06
1.1e-06
1.1e-06
1.1e-06
1.1e-06
1.1e-06
1.1e-06
1.1e-06
1.1e-06
1.1e-06
1.1e-06
1.1e-06
1.1e-06
1.1e-06
1.1e-06
1.1e-06
1.1e-06
1.1e-06
1.1e-06
1.1e-06
1.1e-06
1.1e-06
0.85354
0.854069
0.854536
0.854935
0.855261
0.855509
0.855677
0.855763
0.855767
0.85569
0.855534
0.855301
0.854995
0.854619
0.854179
0.853679
0.853123
0.852516
0.851862
0.851165
0.85043
0.849659
0.848857
0.848026
0.847169
0.846289
0.845387
0.844466
0.843528
0.842573
0.841604
0.84062
0.839623
0.838614
0.837591
0.836556
0.835509
0.834447
0.83337
0.832278
0.831167
0.830034
0.828877
0.82769
0.826466
0.825198
0.823873
0.822476
0.820984
0.819365
0.817572
0.815529
0.813109
0.81008
0.805962
0.799555
0.786714
0.735687
0.169378
3.78718e-05
1.1e-06
1.1e-06
1.1e-06
1.1e-06
1.1e-06
1.1e-06
1.1e-06
1.1e-06
1.1e-06
1.1e-06
1.1e-06
1.1e-06
1.1e-06
1.1e-06
1.1e-06
1.1e-06
1.1e-06
1.1e-06
1.1e-06
1.1e-06
1.1e-06
1.1e-06
1.1e-06
1.1e-06
1.1e-06
1.1e-06
1.1e-06
1.1e-06
1.1e-06
1.1e-06
1.1e-06
1.1e-06
1.1e-06
1.1e-06
1.1e-06
1.1e-06
1.1e-06
1.1e-06
1.1e-06
1.1e-06
1.1e-06
1.1e-06
1.1e-06
1.1e-06
1.1e-06
1.1e-06
1.1e-06
1.1e-06
1.1e-06
1.1e-06
1.1e-06
1.1e-06
1.1e-06
1.1e-06
1.1e-06
1.1e-06
1.1e-06
1.1e-06
1.1e-06
1.1e-06
1.1e-06
1.1e-06
1.1e-06
1.1e-06
1.1e-06
1.1e-06
1.1e-06
1.1e-06
1.1e-06
1.1e-06
1.1e-06
1.1e-06
1.1e-06
1.1e-06
1.1e-06
1.1e-06
1.1e-06
1.1e-06
1.1e-06
1.1e-06
1.1e-06
1.1e-06
1.1e-06
1.1e-06
1.1e-06
1.1e-06
1.1e-06
1.1e-06
1.1e-06
1.1e-06
1.1e-06
1.1e-06
1.1e-06
1.1e-06
1.1e-06
1.1e-06
1.1e-06
1.1e-06
1.1e-06
1.1e-06
1.1e-06
1.1e-06
1.1e-06
1.1e-06
1.1e-06
1.1e-06
1.1e-06
1.1e-06
1.1e-06
1.1e-06
1.1e-06
1.1e-06
1.1e-06
1.1e-06
1.1e-06
1.1e-06
1.1e-06
1.1e-06
1.1e-06
1.1e-06
0.855716
0.856312
0.85684
0.857292
0.857662
0.857944
0.858135
0.858233
0.858239
0.858154
0.857979
0.85772
0.85738
0.856965
0.856481
0.855932
0.855324
0.854663
0.853954
0.853201
0.85241
0.851583
0.850726
0.849841
0.848932
0.848
0.847049
0.84608
0.845095
0.844096
0.843083
0.842058
0.841022
0.839975
0.838918
0.837849
0.836771
0.835681
0.834578
0.833463
0.832333
0.831186
0.830019
0.828828
0.827608
0.826351
0.82505
0.82369
0.822256
0.820721
0.81905
0.817189
0.815049
0.812479
0.809197
0.804587
0.79701
0.779979
0.671058
0.0401409
1.94446e-06
1.1e-06
1.1e-06
1.1e-06
1.1e-06
1.1e-06
1.1e-06
1.1e-06
1.1e-06
1.1e-06
1.1e-06
1.1e-06
1.1e-06
1.1e-06
1.1e-06
1.1e-06
1.1e-06
1.1e-06
1.1e-06
1.1e-06
1.1e-06
1.1e-06
1.1e-06
1.1e-06
1.1e-06
1.1e-06
1.1e-06
1.1e-06
1.1e-06
1.1e-06
1.1e-06
1.1e-06
1.1e-06
1.1e-06
1.1e-06
1.1e-06
1.1e-06
1.1e-06
1.1e-06
1.1e-06
1.1e-06
1.1e-06
1.1e-06
1.1e-06
1.1e-06
1.1e-06
1.1e-06
1.1e-06
1.1e-06
1.1e-06
1.1e-06
1.1e-06
1.1e-06
1.1e-06
1.1e-06
1.1e-06
1.1e-06
1.1e-06
1.1e-06
1.1e-06
1.1e-06
1.1e-06
1.1e-06
1.1e-06
1.1e-06
1.1e-06
1.1e-06
1.1e-06
1.1e-06
1.1e-06
1.1e-06
1.1e-06
1.1e-06
1.1e-06
1.1e-06
1.1e-06
1.1e-06
1.1e-06
1.1e-06
1.1e-06
1.1e-06
1.1e-06
1.1e-06
1.1e-06
1.1e-06
1.1e-06
1.1e-06
1.1e-06
1.1e-06
1.1e-06
1.1e-06
1.1e-06
1.1e-06
1.1e-06
1.1e-06
1.1e-06
1.1e-06
1.1e-06
1.1e-06
1.1e-06
1.1e-06
1.1e-06
1.1e-06
1.1e-06
1.1e-06
1.1e-06
1.1e-06
1.1e-06
1.1e-06
1.1e-06
1.1e-06
1.1e-06
1.1e-06
1.1e-06
1.1e-06
1.1e-06
1.1e-06
1.1e-06
1.1e-06
1.1e-06
0.857793
0.858465
0.859061
0.859573
0.859992
0.860312
0.860528
0.860639
0.860645
0.860548
0.860352
0.860062
0.859683
0.859223
0.858689
0.858086
0.857422
0.856704
0.855937
0.855126
0.854277
0.853395
0.852483
0.851544
0.850583
0.849602
0.848602
0.847587
0.846558
0.845517
0.844464
0.8434
0.842328
0.841246
0.840155
0.839056
0.837949
0.836832
0.835706
0.834569
0.83342
0.832258
0.83108
0.829883
0.828662
0.827412
0.826127
0.824794
0.823402
0.82193
0.820351
0.818624
0.816685
0.814429
0.811672
0.808054
0.80275
0.793345
0.76803
0.468856
0.00172005
1.1e-06
1.1e-06
1.1e-06
1.1e-06
1.1e-06
1.1e-06
1.1e-06
1.1e-06
1.1e-06
1.1e-06
1.1e-06
1.1e-06
1.1e-06
1.1e-06
1.1e-06
1.1e-06
1.1e-06
1.1e-06
1.1e-06
1.1e-06
1.1e-06
1.1e-06
1.1e-06
1.1e-06
1.1e-06
1.1e-06
1.1e-06
1.1e-06
1.1e-06
1.1e-06
1.1e-06
1.1e-06
1.1e-06
1.1e-06
1.1e-06
1.1e-06
1.1e-06
1.1e-06
1.1e-06
1.1e-06
1.1e-06
1.1e-06
1.1e-06
1.1e-06
1.1e-06
1.1e-06
1.1e-06
1.1e-06
1.1e-06
1.1e-06
1.1e-06
1.1e-06
1.1e-06
1.1e-06
1.1e-06
1.1e-06
1.1e-06
1.1e-06
1.1e-06
1.1e-06
1.1e-06
1.1e-06
1.1e-06
1.1e-06
1.1e-06
1.1e-06
1.1e-06
1.1e-06
1.1e-06
1.1e-06
1.1e-06
1.1e-06
1.1e-06
1.1e-06
1.1e-06
1.1e-06
1.1e-06
1.1e-06
1.1e-06
1.1e-06
1.1e-06
1.1e-06
1.1e-06
1.1e-06
1.1e-06
1.1e-06
1.1e-06
1.1e-06
1.1e-06
1.1e-06
1.1e-06
1.1e-06
1.1e-06
1.1e-06
1.1e-06
1.1e-06
1.1e-06
1.1e-06
1.1e-06
1.1e-06
1.1e-06
1.1e-06
1.1e-06
1.1e-06
1.1e-06
1.1e-06
1.1e-06
1.1e-06
1.1e-06
1.1e-06
1.1e-06
1.1e-06
1.1e-06
1.1e-06
1.1e-06
1.1e-06
1.1e-06
1.1e-06
1.1e-06
0.859875
0.86064
0.861321
0.861906
0.862385
0.86275
0.862995
0.86312
0.863124
0.86301
0.862785
0.862455
0.862029
0.861514
0.86092
0.860255
0.859527
0.858744
0.857912
0.857038
0.856128
0.855185
0.854216
0.853222
0.852208
0.851175
0.850128
0.849067
0.847994
0.846911
0.845818
0.844718
0.84361
0.842494
0.841372
0.840244
0.839108
0.837966
0.836817
0.835659
0.834492
0.833314
0.832124
0.830919
0.829695
0.828448
0.827173
0.825861
0.824501
0.823078
0.821572
0.819952
0.81817
0.816154
0.813779
0.810822
0.806819
0.800637
0.788459
0.742911
0.190144
5.41049e-05
1.1e-06
1.1e-06
1.1e-06
1.1e-06
1.1e-06
1.1e-06
1.1e-06
1.1e-06
1.1e-06
1.1e-06
1.1e-06
1.1e-06