/*--------------------------------*- C++ -*----------------------------------*\
  =========                 |
  \\      /  F ield         | OpenFOAM: The Open Source CFD Toolbox
   \\    /   O peration     | Website:  https://openfoam.org
    \\  /    A nd           | Version:  10
     \\/     M anipulation  |
\*---------------------------------------------------------------------------*/
FoamFile
{
    format      ascii;
    class       volVectorField;
    location    "2.24";
    object      Ua;
}
// * * * * * * * * * * * * * * * * * * * * * * * * * * * * * * * * * * * * * //

dimensions      [0 1 -1 0 0 0 0];

internalField   nonuniform List<vector> 
12225
(
(1.71519e-05 -2.20479e-06 0)
(5.01332e-05 -2.06323e-06 0)
(8.00104e-05 -1.8026e-06 0)
(0.000106295 -1.5082e-06 0)
(0.000129182 -1.23779e-06 0)
(0.000149212 -1.02007e-06 0)
(0.000167027 -8.64713e-07 0)
(0.000183244 -7.72442e-07 0)
(0.00019841 -7.42021e-07 0)
(0.000213015 -7.74787e-07 0)
(0.000227521 -8.78323e-07 0)
(0.00024242 -1.07132e-06 0)
(0.000258323 -1.39307e-06 0)
(0.000276123 -1.9261e-06 0)
(0.000297368 -2.85948e-06 0)
(0.000325319 -4.70638e-06 0)
(0.000368922 -9.29576e-06 0)
(0.000464125 -2.60576e-05 0)
(1.15988e-05 -5.69328e-06 0)
(3.4163e-05 -5.36132e-06 0)
(5.51837e-05 -4.71711e-06 0)
(7.43152e-05 -3.97457e-06 0)
(9.15639e-05 -3.2837e-06 0)
(0.000107152 -2.72269e-06 0)
(0.000121395 -2.32094e-06 0)
(0.000134627 -2.08394e-06 0)
(0.000147166 -2.01127e-06 0)
(0.000159313 -2.10883e-06 0)
(0.000171367 -2.39883e-06 0)
(0.000183656 -2.93308e-06 0)
(0.000196591 -3.81833e-06 0)
(0.000210759 -5.27518e-06 0)
(0.000227125 -7.79694e-06 0)
(0.00024745 -1.26573e-05 0)
(0.000274851 -2.39138e-05 0)
(0.000308127 -5.83198e-05 0)
(8.94142e-06 -7.79617e-06 0)
(2.65019e-05 -7.40934e-06 0)
(4.3227e-05 -6.58303e-06 0)
(5.88456e-05 -5.59884e-06 0)
(7.32905e-05 -4.66467e-06 0)
(8.66452e-05 -3.89625e-06 0)
(9.90771e-05 -3.34295e-06 0)
(0.000110787 -3.01968e-06 0)
(0.000121983 -2.93163e-06 0)
(0.000132872 -3.09175e-06 0)
(0.000143668 -3.53565e-06 0)
(0.000154609 -4.34078e-06 0)
(0.000165986 -5.66181e-06 0)
(0.000178191 -7.80889e-06 0)
(0.000191779 -1.14433e-05 0)
(0.00020745 -1.81238e-05 0)
(0.000225115 -3.19611e-05 0)
(0.000236847 -6.43342e-05 0)
(7.23278e-06 -9.14783e-06 0)
(2.15618e-05 -8.77657e-06 0)
(3.54808e-05 -7.87333e-06 0)
(4.87705e-05 -6.75684e-06 0)
(6.13281e-05 -5.67471e-06 0)
(7.31593e-05 -4.77307e-06 0)
(8.43427e-05 -4.12061e-06 0)
(9.49962e-05 -3.74364e-06 0)
(0.000105255 -3.655e-06 0)
(0.000115265 -3.87552e-06 0)
(0.000125177 -4.45234e-06 0)
(0.00013516 -5.48199e-06 0)
(0.000145412 -7.15027e-06 0)
(0.000156163 -9.81448e-06 0)
(0.00016764 -1.41877e-05 0)
(0.000179817 -2.17647e-05 0)
(0.000191223 -3.57295e-05 0)
(0.000194699 -6.18876e-05 0)
(5.99811e-06 -9.96907e-06 0)
(1.79809e-05 -9.65949e-06 0)
(2.98365e-05 -8.74872e-06 0)
(4.13854e-05 -7.57372e-06 0)
(5.25088e-05 -6.40956e-06 0)
(6.31652e-05 -5.42714e-06 0)
(7.33747e-05 -4.71324e-06 0)
(8.31977e-05 -4.3062e-06 0)
(9.27171e-05 -4.22742e-06 0)
(0.000102028 -4.50539e-06 0)
(0.000111236 -5.19637e-06 0)
(0.000120451 -6.40896e-06 0)
(0.000129789 -8.34345e-06 0)
(0.000139347 -1.13651e-05 0)
(0.00014911 -1.61454e-05 0)
(0.000158641 -2.39133e-05 0)
(0.000166168 -3.67347e-05 0)
(0.000166714 -5.6851e-05 0)
(5.04947e-06 -1.0373e-05 0)
(1.52203e-05 -1.01575e-05 0)
(2.54609e-05 -9.28857e-06 0)
(3.56231e-05 -8.10926e-06 0)
(4.55839e-05 -6.91311e-06 0)
(5.52732e-05 -5.89094e-06 0)
(6.46715e-05 -5.14576e-06 0)
(7.3797e-05 -4.72776e-06 0)
(8.26919e-05 -4.66686e-06 0)
(9.14123e-05 -4.99842e-06 0)
(0.000100021 -5.78482e-06 0)
(0.000108581 -7.13954e-06 0)
(0.000117141 -9.26168e-06 0)
(0.000125691 -1.2492e-05 0)
(0.000134063 -1.73994e-05 0)
(0.000141658 -2.48768e-05 0)
(0.00014691 -3.60612e-05 0)
(0.000146743 -5.13712e-05 0)
(4.29323e-06 -1.043e-05 0)
(1.30119e-05 -1.03313e-05 0)
(2.19395e-05 -9.53974e-06 0)
(3.09538e-05 -8.39698e-06 0)
(3.99345e-05 -7.20836e-06 0)
(4.87957e-05 -6.18005e-06 0)
(5.74912e-05 -5.42904e-06 0)
(6.60077e-05 -5.01634e-06 0)
(7.43548e-05 -4.97982e-06 0)
(8.25561e-05 -5.36027e-06 0)
(9.06395e-05 -6.223e-06 0)
(9.86263e-05 -7.67945e-06 0)
(0.00010651 -9.9143e-06 0)
(0.000114211 -1.3221e-05 0)
(0.000121482 -1.80389e-05 0)
(0.000127723 -2.49444e-05 0)
(0.000131738 -3.44387e-05 0)
(0.000131758 -4.61893e-05 0)
(3.67577e-06 -1.01901e-05 0)
(1.12019e-05 -1.02232e-05 0)
(1.90352e-05 -9.53345e-06 0)
(2.70747e-05 -8.45776e-06 0)
(3.52081e-05 -7.30815e-06 0)
(4.33425e-05 -6.30185e-06 0)
(5.1414e-05 -5.56702e-06 0)
(5.93857e-05 -5.17396e-06 0)
(6.72413e-05 -5.16721e-06 0)
(7.49768e-05 -5.59134e-06 0)
(8.25909e-05 -6.51131e-06 0)
(9.0071e-05 -8.03064e-06 0)
(9.73708e-05 -1.031e-05 0)
(0.000104369 -1.35838e-05 0)
(0.000110797 -1.81615e-05 0)
(0.000116138 -2.43678e-05 0)
(0.000119556 -3.23293e-05 0)
(0.000120088 -4.15068e-05 0)
(3.16326e-06 -9.69332e-06 0)
(9.69351e-06 -9.86591e-06 0)
(1.65985e-05 -9.29276e-06 0)
(2.37954e-05 -8.30582e-06 0)
(3.11838e-05 -7.22003e-06 0)
(3.867e-05 -6.25943e-06 0)
(4.61792e-05 -5.5601e-06 0)
(5.36568e-05 -5.19948e-06 0)
(6.10658e-05 -5.22719e-06 0)
(6.83794e-05 -5.68967e-06 0)
(7.55719e-05 -6.64863e-06 0)
(8.2605e-05 -8.19524e-06 0)
(8.9406e-05 -1.04607e-05 0)
(9.5836e-05 -1.36188e-05 0)
(0.000101644 -1.78659e-05 0)
(0.000106421 -2.33503e-05 0)
(0.000109621 -3.00095e-05 0)
(0.000110743 -3.73284e-05 0)
(2.73273e-06 -8.97538e-06 0)
(8.42046e-06 -9.28731e-06 0)
(1.4527e-05 -8.83628e-06 0)
(2.09863e-05 -7.95183e-06 0)
(2.77122e-05 -6.94885e-06 0)
(3.46151e-05 -6.05377e-06 0)
(4.16135e-05 -5.40696e-06 0)
(4.86402e-05 -5.09038e-06 0)
(5.56413e-05 -5.15684e-06 0)
(6.25716e-05 -5.65273e-06 0)
(6.93864e-05 -6.63421e-06 0)
(7.60285e-05 -8.17748e-06 0)
(8.2411e-05 -1.03829e-05 0)
(8.83948e-05 -1.33688e-05 0)
(9.37639e-05 -1.7244e-05 0)
(9.82174e-05 -2.20459e-05 0)
(0.000101412 -2.76364e-05 0)
(0.0001031 -3.35972e-05 0)
(2.36739e-06 -8.07069e-06 0)
(7.33423e-06 -8.51297e-06 0)
(1.27458e-05 -8.18036e-06 0)
(1.85529e-05 -7.40481e-06 0)
(2.46857e-05 -6.4984e-06 0)
(3.10612e-05 -5.68526e-06 0)
(3.7595e-05 -5.10592e-06 0)
(4.421e-05 -4.84399e-06 0)
(5.0839e-05 -4.95331e-06 0)
(5.74225e-05 -5.47859e-06 0)
(6.39012e-05 -6.46885e-06 0)
(7.0206e-05 -7.98445e-06 0)
(7.62449e-05 -1.00969e-05 0)
(8.1889e-05 -1.28785e-05 0)
(8.69635e-05 -1.63762e-05 0)
(9.12553e-05 -2.05659e-05 0)
(9.45568e-05 -2.52946e-05 0)
(9.67527e-05 -3.02455e-05 0)
(2.02866e-06 -7.09551e-06 0)
(6.33088e-06 -7.64396e-06 0)
(1.11109e-05 -7.41277e-06 0)
(1.63347e-05 -6.74005e-06 0)
(2.19436e-05 -5.9323e-06 0)
(2.78572e-05 -5.20726e-06 0)
(3.39863e-05 -4.70202e-06 0)
(4.02451e-05 -4.49927e-06 0)
(4.65562e-05 -4.65223e-06 0)
(5.28494e-05 -5.20291e-06 0)
(5.90565e-05 -6.19327e-06 0)
(6.51029e-05 -7.66964e-06 0)
(7.08983e-05 -9.68035e-06 0)
(7.63288e-05 -1.22645e-05 0)
(8.12549e-05 -1.54307e-05 0)
(8.55242e-05 -1.91263e-05 0)
(8.90056e-05 -2.32082e-05 0)
(9.16423e-05 -2.74387e-05 0)
(1.80825e-06 -6.02972e-06 0)
(5.66318e-06 -6.65563e-06 0)
(9.99173e-06 -6.50709e-06 0)
(1.47789e-05 -5.93166e-06 0)
(1.99827e-05 -5.22649e-06 0)
(2.55306e-05 -4.59798e-06 0)
(3.13339e-05 -4.17592e-06 0)
(3.73025e-05 -4.0394e-06 0)
(4.33522e-05 -4.23943e-06 0)
(4.94057e-05 -4.81452e-06 0)
(5.53883e-05 -5.79959e-06 0)
(6.12223e-05 -7.22872e-06 0)
(6.68203e-05 -9.13178e-06 0)
(7.20821e-05 -1.15246e-05 0)
(7.68966e-05 -1.4393e-05 0)
(8.1155e-05 -1.76744e-05 0)
(8.47757e-05 -2.12447e-05 0)
(8.77352e-05 -2.4925e-05 0)
(1.58755e-06 -4.75827e-06 0)
(4.98435e-06 -5.41874e-06 0)
(8.84053e-06 -5.33091e-06 0)
(1.31733e-05 -4.85313e-06 0)
(1.79595e-05 -4.26516e-06 0)
(2.3133e-05 -3.75359e-06 0)
(2.8604e-05 -3.43487e-06 0)
(3.4277e-05 -3.38091e-06 0)
(4.00616e-05 -3.6383e-06 0)
(4.58738e-05 -4.24068e-06 0)
(5.16343e-05 -5.21523e-06 0)
(5.72643e-05 -6.58409e-06 0)
(6.26821e-05 -8.36111e-06 0)
(6.78026e-05 -1.05446e-05 0)
(7.25415e-05 -1.31071e-05 0)
(7.68259e-05 -1.59865e-05 0)
(8.06094e-05 -1.90827e-05 0)
(8.38875e-05 -2.22667e-05 0)
(1.35598e-06 -3.3068e-06 0)
(4.26436e-06 -3.9034e-06 0)
(7.6186e-06 -3.83206e-06 0)
(1.14862e-05 -3.44593e-06 0)
(1.5859e-05 -2.98984e-06 0)
(2.06695e-05 -2.61738e-06 0)
(2.58209e-05 -2.42394e-06 0)
(3.12101e-05 -2.47011e-06 0)
(3.67395e-05 -2.79579e-06 0)
(4.23196e-05 -3.42862e-06 0)
(4.78687e-05 -4.38807e-06 0)
(5.33098e-05 -5.68627e-06 0)
(5.85705e-05 -7.32568e-06 0)
(6.35831e-05 -9.29454e-06 0)
(6.82885e-05 -1.15617e-05 0)
(7.26423e-05 -1.40729e-05 0)
(7.66213e-05 -1.67523e-05 0)
(8.0229e-05 -1.95094e-05 0)
(1.06557e-06 -1.72914e-06 0)
(3.38134e-06 -2.07778e-06 0)
(6.17892e-06 -1.9644e-06 0)
(9.58663e-06 -1.66694e-06 0)
(1.35853e-05 -1.36097e-06 0)
(1.80826e-05 -1.14948e-06 0)
(2.29594e-05 -1.09951e-06 0)
(2.80978e-05 -1.25771e-06 0)
(3.33919e-05 -1.65672e-06 0)
(3.87512e-05 -2.31965e-06 0)
(4.41003e-05 -3.2622e-06 0)
(4.93764e-05 -4.49116e-06 0)
(5.45256e-05 -6.00349e-06 0)
(5.95019e-05 -7.78383e-06 0)
(6.42671e-05 -9.80227e-06 0)
(6.87931e-05 -1.20139e-05 0)
(7.30635e-05 -1.43612e-05 0)
(7.70762e-05 -1.67791e-05 0)
(5.45843e-07 4.99557e-09 0)
(1.88378e-06 1.28489e-07 0)
(3.90751e-06 3.02451e-07 0)
(6.77763e-06 4.81698e-07 0)
(1.03776e-05 6.15463e-07 0)
(1.45464e-05 6.50944e-07 0)
(1.91438e-05 5.42554e-07 0)
(2.40535e-05 2.55683e-07 0)
(2.91761e-05 -2.33754e-07 0)
(3.44413e-05 -9.55676e-07 0)
(3.98118e-05 -1.9502e-06 0)
(4.52349e-05 -3.17703e-06 0)
(5.06375e-05 -4.63081e-06 0)
(5.5958e-05 -6.29478e-06 0)
(6.1145e-05 -8.14119e-06 0)
(6.61576e-05 -1.01325e-05 0)
(7.09671e-05 -1.22242e-05 0)
(7.55567e-05 -1.43682e-05 0)
(1.28065e-06 2.07974e-06 0)
(3.92288e-06 2.81946e-06 0)
(6.82765e-06 3.15712e-06 0)
(1.01462e-05 3.2603e-06 0)
(1.39357e-05 3.21222e-06 0)
(1.81786e-05 3.0288e-06 0)
(2.28116e-05 2.70113e-06 0)
(2.7754e-05 2.21629e-06 0)
(3.29232e-05 1.56426e-06 0)
(3.82271e-05 7.25285e-07 0)
(4.35589e-05 -3.30414e-07 0)
(4.88772e-05 -1.60906e-06 0)
(5.41964e-05 -3.10628e-06 0)
(5.94852e-05 -4.74071e-06 0)
(6.46859e-05 -6.48921e-06 0)
(6.97542e-05 -8.32285e-06 0)
(7.46578e-05 -1.02094e-05 0)
(7.93762e-05 -1.21159e-05 0)
(1.80172e-06 4.95936e-06 0)
(5.53065e-06 6.11846e-06 0)
(9.51645e-06 6.65315e-06 0)
(1.37786e-05 6.74068e-06 0)
(1.83363e-05 6.52391e-06 0)
(2.31866e-05 6.08982e-06 0)
(2.8301e-05 5.48489e-06 0)
(3.36327e-05 4.73274e-06 0)
(3.9125e-05 3.84591e-06 0)
(4.47187e-05 2.83213e-06 0)
(5.03569e-05 1.70046e-06 0)
(5.59557e-05 4.06549e-07 0)
(6.14189e-05 -1.03982e-06 0)
(6.67395e-05 -2.64871e-06 0)
(7.19376e-05 -4.31581e-06 0)
(7.69898e-05 -6.01159e-06 0)
(8.18766e-05 -7.716e-06 0)
(8.65868e-05 -9.40911e-06 0)
(2.06837e-06 8.20558e-06 0)
(6.38814e-06 9.36917e-06 0)
(1.10497e-05 9.89083e-06 0)
(1.60145e-05 9.88719e-06 0)
(2.1254e-05 9.4994e-06 0)
(2.67364e-05 8.84132e-06 0)
(3.24208e-05 7.99217e-06 0)
(3.82585e-05 7.00329e-06 0)
(4.41967e-05 5.90714e-06 0)
(5.01826e-05 4.72482e-06 0)
(5.61665e-05 3.4715e-06 0)
(6.21032e-05 2.15882e-06 0)
(6.79497e-05 8.01119e-07 0)
(7.362e-05 -6.78482e-07 0)
(7.90944e-05 -2.26483e-06 0)
(8.44114e-05 -3.84546e-06 0)
(8.95575e-05 -5.40365e-06 0)
(9.45218e-05 -6.92837e-06 0)
(2.48308e-06 1.10497e-05 0)
(7.62618e-06 1.19946e-05 0)
(1.31015e-05 1.23314e-05 0)
(1.88636e-05 1.21435e-05 0)
(2.48655e-05 1.15616e-05 0)
(3.10592e-05 1.07048e-05 0)
(3.73943e-05 9.664e-06 0)
(4.38186e-05 8.50214e-06 0)
(5.02803e-05 7.26075e-06 0)
(5.67305e-05 5.96676e-06 0)
(6.31247e-05 4.63817e-06 0)
(6.94237e-05 3.28791e-06 0)
(7.55949e-05 1.92649e-06 0)
(8.16058e-05 5.63699e-07 0)
(8.7392e-05 -8.93263e-07 0)
(9.29449e-05 -2.38864e-06 0)
(9.83004e-05 -3.84023e-06 0)
(0.000103454 -5.24235e-06 0)
(2.99566e-06 1.34003e-05 0)
(9.13727e-06 1.4081e-05 0)
(1.55653e-05 1.41795e-05 0)
(2.22389e-05 1.37743e-05 0)
(2.91021e-05 1.2992e-05 0)
(3.60962e-05 1.19532e-05 0)
(4.31629e-05 1.07529e-05 0)
(5.02469e-05 9.45841e-06 0)
(5.7297e-05 8.11468e-06 0)
(6.42675e-05 6.75031e-06 0)
(7.1119e-05 5.38333e-06 0)
(7.78187e-05 4.02546e-06 0)
(8.43401e-05 2.68492e-06 0)
(9.06629e-05 1.3681e-06 0)
(9.67522e-05 6.33804e-08 0)
(0.000102578 -1.31196e-06 0)
(0.000108153 -2.65656e-06 0)
(0.0001135 -3.94105e-06 0)
(3.62173e-06 1.50988e-05 0)
(1.09762e-05 1.55244e-05 0)
(1.85428e-05 1.5383e-05 0)
(2.62834e-05 1.47655e-05 0)
(3.41372e-05 1.38011e-05 0)
(4.20389e-05 1.26109e-05 0)
(4.99264e-05 1.12907e-05 0)
(5.77435e-05 9.90786e-06 0)
(6.5442e-05 8.50683e-06 0)
(7.29812e-05 7.11488e-06 0)
(8.03283e-05 5.74806e-06 0)
(8.74579e-05 4.41558e-06 0)
(9.4351e-05 3.12278e-06 0)
(0.000100995 1.873e-06 0)
(0.00010738 6.68531e-07 0)
(0.000113476 -5.46077e-07 0)
(0.000119279 -1.77697e-06 0)
(0.000124817 -2.9417e-06 0)
(4.38312e-06 1.60639e-05 0)
(1.32098e-05 1.62647e-05 0)
(2.21458e-05 1.59121e-05 0)
(3.11497e-05 1.51145e-05 0)
(4.01562e-05 1.40068e-05 0)
(4.90972e-05 1.27103e-05 0)
(5.79105e-05 1.13189e-05 0)
(6.6544e-05 9.89728e-06 0)
(7.49557e-05 8.48673e-06 0)
(8.31135e-05 7.11127e-06 0)
(9.09941e-05 5.78371e-06 0)
(9.85816e-05 4.51003e-06 0)
(0.000105866 3.29249e-06 0)
(0.000112844 2.13145e-06 0)
(0.000119515 1.02648e-06 0)
(0.000125866 -3.53185e-08 0)
(0.000131891 -1.13414e-06 0)
(0.000137615 -2.17431e-06 0)
(5.3131e-06 1.62562e-05 0)
(1.59354e-05 1.62721e-05 0)
(2.65307e-05 1.57541e-05 0)
(3.70455e-05 1.48275e-05 0)
(4.74096e-05 1.36313e-05 0)
(5.75551e-05 1.22855e-05 0)
(6.74253e-05 1.08796e-05 0)
(7.69775e-05 9.47353e-06 0)
(8.61816e-05 8.10358e-06 0)
(9.50185e-05 6.78944e-06 0)
(0.000103478 5.54003e-06 0)
(0.000111557 4.35801e-06 0)
(0.000119258 3.24264e-06 0)
(0.000126587 2.19169e-06 0)
(0.000133553 1.20238e-06 0)
(0.000140167 2.71857e-07 0)
(0.000146421 -6.72462e-07 0)
(0.000152326 -1.58299e-06 0)
(6.46503e-06 1.56526e-05 0)
(1.93082e-05 1.55283e-05 0)
(3.19434e-05 1.49025e-05 0)
(4.42957e-05 1.39113e-05 0)
(5.62881e-05 1.2694e-05 0)
(6.78574e-05 1.13655e-05 0)
(7.89592e-05 1.00086e-05 0)
(8.95675e-05 8.67628e-06 0)
(9.96709e-05 7.39897e-06 0)
(0.00010927 6.19143e-06 0)
(0.000118372 5.05872e-06 0)
(0.000126991 4.00037e-06 0)
(0.000135144 3.01321e-06 0)
(0.000142851 2.09295e-06 0)
(0.000150133 1.23514e-06 0)
(0.00015701 4.35575e-07 0)
(0.000163489 -3.47281e-07 0)
(0.000169586 -1.1233e-06 0)
(7.93278e-06 1.42219e-05 0)
(2.36013e-05 1.40062e-05 0)
(3.88173e-05 1.33398e-05 0)
(5.34718e-05 1.23601e-05 0)
(6.74804e-05 1.12e-05 0)
(8.07901e-05 9.96448e-06 0)
(9.33783e-05 8.72643e-06 0)
(0.000105246 7.53043e-06 0)
(0.000116409 6.40024e-06 0)
(0.000126897 5.34576e-06 0)
(0.000136741 4.36859e-06 0)
(0.000145979 3.46586e-06 0)
(0.000154646 2.63264e-06 0)
(0.000162778 1.86344e-06 0)
(0.000170412 1.15288e-06 0)
(0.000177579 4.96051e-07 0)
(0.000184299 -1.25887e-07 0)
(0.000190596 -7.62024e-07 0)
(9.90627e-06 1.18902e-05 0)
(2.93678e-05 1.16374e-05 0)
(4.8031e-05 1.10087e-05 0)
(6.5736e-05 1.01305e-05 0)
(8.2389e-05 9.11921e-06 0)
(9.79573e-05 8.06397e-06 0)
(0.000112453 7.02402e-06 0)
(0.000125921 6.03391e-06 0)
(0.000138419 5.11047e-06 0)
(0.000150015 4.25924e-06 0)
(0.000160779 3.47922e-06 0)
(0.000170776 2.76612e-06 0)
(0.00018007 2.11433e-06 0)
(0.000188719 1.51805e-06 0)
(0.000196777 9.71846e-07 0)
(0.000204291 4.70877e-07 0)
(0.000211299 8.50907e-09 0)
(0.00021783 -4.76323e-07 0)
(1.28703e-05 8.45767e-06 0)
(3.80212e-05 8.23331e-06 0)
(6.18343e-05 7.74082e-06 0)
(8.40669e-05 7.07802e-06 0)
(0.000104615 6.33189e-06 0)
(0.000123483 5.56673e-06 0)
(0.000140744 4.82371e-06 0)
(0.000156513 4.12555e-06 0)
(0.000170918 3.48221e-06 0)
(0.00018409 2.89577e-06 0)
(0.000196154 2.36398e-06 0)
(0.000207222 1.88256e-06 0)
(0.000217396 1.44656e-06 0)
(0.000226768 1.0511e-06 0)
(0.000235418 6.91755e-07 0)
(0.000243416 3.64608e-07 0)
(0.000250825 6.62373e-08 0)
(0.000257686 -2.51543e-07 0)
(1.89521e-05 3.22179e-06 0)
(5.57758e-05 3.12595e-06 0)
(9.01478e-05 2.9279e-06 0)
(0.000121654 2.66683e-06 0)
(0.000150174 2.37686e-06 0)
(0.000175797 2.08268e-06 0)
(0.000198734 1.79969e-06 0)
(0.000219249 1.53605e-06 0)
(0.000237617 1.29505e-06 0)
(0.000254099 1.077e-06 0)
(0.000268931 8.80669e-07 0)
(0.000282321 7.04122e-07 0)
(0.00029445 5.45242e-07 0)
(0.000305471 4.02e-07 0)
(0.000315518 2.72571e-07 0)
(0.000324705 1.55363e-07 0)
(0.00033313 4.8993e-08 0)
(0.00034084 -6.61681e-08 0)
(1.75185e-05 -1.23046e-05 -1.58827e-31)
(5.26625e-05 -1.22879e-05 1.58196e-31)
(8.79721e-05 -1.22584e-05 0)
(0.000123402 -1.22165e-05 0)
(0.000158908 -1.21623e-05 0)
(0.000194441 -1.20935e-05 -1.54009e-31)
(0.000229945 -1.20061e-05 0)
(0.000265353 -1.18959e-05 0)
(0.00030059 -1.17594e-05 0)
(0.000335567 -1.15941e-05 0)
(0.000370186 -1.13991e-05 1.4296e-31)
(0.000404341 -1.11754e-05 0)
(0.000437913 -1.09255e-05 0)
(0.000470778 -1.06537e-05 0)
(0.000502801 -1.03664e-05 0)
(0.000533839 -1.00714e-05 1.23868e-31)
(0.000563737 -9.77828e-06 0)
(0.000592334 -9.49704e-06 0)
(0.000619452 -9.23772e-06 0)
(0.000644903 -9.00943e-06 0)
(0.00066848 -8.81976e-06 0)
(0.000689962 -8.67467e-06 0)
(0.000709111 -8.57867e-06 0)
(0.00072568 -8.53512e-06 1.01747e-31)
(0.000739424 -8.54639e-06 -1.01731e-31)
(0.000750126 -8.61392e-06 1.02477e-31)
(0.000757632 -8.73815e-06 1.03994e-31)
(0.000761898 -8.91841e-06 0)
(0.00076305 -9.15293e-06 0)
(0.000761435 -9.4391e-06 -1.13009e-31)
(0.000757656 -9.77411e-06 -1.17383e-31)
(0.000752562 -1.01561e-05 0)
(0.000747184 -1.05859e-05 0)
(0.000742629 -1.10692e-05 -1.343e-31)
(0.00073996 -1.16186e-05 0)
(0.000740111 -1.22553e-05 0)
(0.000743849 -1.30112e-05 1.59384e-31)
(0.000751805 -1.39309e-05 0)
(0.00076457 -1.50762e-05 1.8583e-31)
(0.000782826 -1.65335e-05 4.089e-31)
(0.000807543 -1.84281e-05 0)
(0.000840294 -2.09488e-05 0)
(0.000883845 -2.43939e-05 0)
(0.000943499 -2.92588e-05 0)
(0.00103078 -3.64266e-05 0)
(0.00117688 -4.7703e-05 1.20531e-30)
(0.00151432 -6.83e-05 1.72976e-30)
(0.0044438 -0.00013726 3.44317e-30)
(0.0133427 -0.00340083 0)
(0.0188626 0.000995409 2.6176e-29)
(0.0176901 0.000669278 0)
(0.0168784 0.000472981 -1.26248e-29)
(0.0162815 0.00035993 -9.68836e-30)
(0.0158087 0.000294142 0)
(0.0154093 0.000253742 0)
(0.0150562 0.00022661 0)
(0.0147351 0.000206399 -5.68316e-30)
(0.0144388 0.000189918 0)
(0.0141631 0.000175625 0)
(0.0139058 0.000162796 0)
(0.0136651 0.000151097 0)
(0.0134397 0.000140361 0)
(0.0132284 0.000130494 0)
(0.0130302 0.000121423 0)
(0.0128442 0.00011308 0)
(0.0126694 0.000105404 3.02374e-30)
(0.012505 9.83317e-05 0)
(0.0123503 9.18066e-05 0)
(0.0122046 8.57757e-05 -2.50539e-30)
(0.0120672 8.01915e-05 -2.3578e-30)
(0.0119377 7.50114e-05 0)
(0.0118154 7.01981e-05 2.09353e-30)
(0.0117 6.57182e-05 -1.97501e-30)
(0.011591 6.15427e-05 0)
(0.0114881 5.76458e-05 1.76133e-30)
(0.0113908 5.40044e-05 0)
(0.0112989 5.05984e-05 0)
(0.0112121 4.74097e-05 -1.49022e-30)
(0.01113 4.44219e-05 0)
(0.0110525 4.16205e-05 1.3368e-30)
(0.0109792 3.89924e-05 0)
(0.0109099 3.65255e-05 -1.20174e-30)
(0.0108445 3.42092e-05 -1.14032e-30)
(0.0107827 3.20334e-05 -1.08262e-30)
(0.0107243 2.99893e-05 -2.05679e-30)
(0.0106692 2.80684e-05 1.95489e-30)
(0.0106172 2.62633e-05 0)
(0.0105681 2.45667e-05 0)
(0.0105218 2.29722e-05 0)
(0.0104782 2.14738e-05 1.60493e-30)
(0.010437 2.00658e-05 1.5302e-30)
(0.0103982 1.87429e-05 -1.45997e-30)
(0.0103617 1.75003e-05 0)
(0.0103273 1.63333e-05 1.33205e-30)
(0.0102949 1.52376e-05 1.27388e-30)
(0.0102644 1.42091e-05 1.21927e-30)
(0.0102358 1.32441e-05 0)
(0.0102088 1.23388e-05 0)
(0.0101835 1.149e-05 0)
(0.0101597 1.06944e-05 1.03262e-30)
(0.0101374 9.94893e-06 0)
(0.0101165 9.25077e-06 0)
(0.0100969 8.5972e-06 -9.21221e-31)
(0.0100785 7.98564e-06 0)
(0.0100612 7.41365e-06 0)
(0.0100451 6.87894e-06 -8.29947e-31)
(0.01003 6.37932e-06 0)
(0.0100158 5.91272e-06 0)
(0.0100026 5.47719e-06 7.55474e-31)
(0.0099903 5.07087e-06 7.33885e-31)
(0.00997878 4.692e-06 0)
(0.00996803 4.33893e-06 -6.94996e-31)
(0.00995801 4.01008e-06 0)
(0.00994866 3.70396e-06 6.61251e-31)
(0.00993995 3.41917e-06 0)
(0.00993184 3.15436e-06 6.32046e-31)
(0.0099243 2.90829e-06 6.18963e-31)
(0.00991728 2.67977e-06 0)
(0.00991076 2.46767e-06 0)
(0.00990471 2.27093e-06 0)
(0.00989908 2.08855e-06 0)
(0.00989387 1.9196e-06 0)
(0.00988904 1.76317e-06 0)
(0.00988456 1.61845e-06 0)
(0.00988041 1.48463e-06 5.43295e-31)
(0.00987657 1.36099e-06 -5.36717e-31)
(0.00987302 1.24682e-06 0)
(0.00986974 1.14146e-06 0)
(0.00986672 1.04432e-06 0)
(0.00986392 9.54803e-07 0)
(0.00986134 8.7238e-07 -1.02148e-30)
(0.00985897 7.96544e-07 0)
(0.00985678 7.26823e-07 1.006e-30)
(0.00985477 6.62777e-07 -9.99185e-31)
(0.00985291 6.03993e-07 0)
(0.00985121 5.50089e-07 0)
(0.00984965 5.00709e-07 0)
(0.00984821 4.55523e-07 9.7714e-31)
(0.00984689 4.14225e-07 9.72745e-31)
(0.00984568 3.76534e-07 0)
(0.00984457 3.42192e-07 9.65074e-31)
(0.00984355 3.10963e-07 9.61745e-31)
(0.00984262 2.82636e-07 -9.58733e-31)
(0.00984176 2.57021e-07 0)
(0.00984097 2.33951e-07 0)
(0.00984025 2.13285e-07 -9.51339e-31)
(0.00983958 1.94908e-07 0)
(0.00983897 1.7873e-07 0)
(0.0098384 1.64695e-07 0)
(0.00983786 1.52782e-07 0)
(0.00983736 1.43008e-07 9.43798e-31)
(0.00983689 1.35442e-07 9.42971e-31)
(0.00983643 1.30208e-07 0)
(0.00983598 1.275e-07 9.42065e-31)
(0.00983553 1.27601e-07 0)
(0.00983507 1.309e-07 0)
(0.00983459 1.37922e-07 9.43011e-31)
(0.00983407 1.49363e-07 0)
(0.00983349 1.66142e-07 9.45828e-31)
(0.00983284 1.89458e-07 0)
(0.00983207 2.20877e-07 0)
(0.00983117 2.62444e-07 9.55563e-31)
(0.00983007 3.16832e-07 0)
(0.00982872 3.87549e-07 9.68266e-31)
(0.00982704 4.79221e-07 0)
(0.00982494 5.97989e-07 0)
(0.00982228 7.52083e-07 0)
(0.00981889 9.52652e-07 -1.02577e-30)
(0.00981453 1.21502e-06 0)
(0.0098089 1.56062e-06 1.08769e-30)
(0.00980157 2.02015e-06 0)
(0.00979194 2.6388e-06 0)
(0.00977915 3.48565e-06 0)
(0.00976196 4.6714e-06 0)
(0.00973843 6.38493e-06 0)
(0.00970541 8.97693e-06 0)
(0.00965732 1.31799e-05 0)
(0.00958281 2.08111e-05 -6.11358e-30)
(0.00945329 3.76961e-05 0)
(0.00916625 9.06421e-05 0)
(6.66718e-06 -3.17872e-05 4.10602e-31)
(2.00409e-05 -3.17189e-05 -4.09246e-31)
(3.34698e-05 -3.16248e-05 0)
(4.69327e-05 -3.15054e-05 8.12177e-31)
(6.04107e-05 -3.13619e-05 0)
(7.38783e-05 -3.11895e-05 -4.02242e-31)
(8.72933e-05 -3.09791e-05 -7.96667e-31)
(0.000100593 -3.07201e-05 -7.89345e-31)
(0.000113696 -3.04035e-05 0)
(0.000126509 -3.00225e-05 -7.7009e-31)
(0.000138933 -2.9574e-05 3.80595e-31)
(0.00015087 -2.90579e-05 0)
(0.000162227 -2.84777e-05 0)
(0.000172933 -2.78409e-05 0)
(0.000182935 -2.71588e-05 0)
(0.000192218 -2.64475e-05 3.39557e-31)
(0.000200808 -2.5727e-05 0)
(0.000208778 -2.50203e-05 6.36901e-31)
(0.000216242 -2.43519e-05 0)
(0.000223352 -2.37457e-05 0)
(0.00023028 -2.32228e-05 -5.89421e-31)
(0.000237205 -2.28012e-05 0)
(0.000244305 -2.24947e-05 5.69937e-31)
(0.000251746 -2.23137e-05 2.85426e-31)
(0.000259685 -2.22658e-05 -2.84713e-31)
(0.000268262 -2.23561e-05 2.85778e-31)
(0.0002776 -2.25877e-05 2.88662e-31)
(0.000287805 -2.29622e-05 0)
(0.000298967 -2.34799e-05 0)
(0.000311167 -2.41407e-05 -3.08338e-31)
(0.000324488 -2.49451e-05 -9.48072e-31)
(0.000339021 -2.58971e-05 0)
(0.000354879 -2.70067e-05 0)
(0.000372202 -2.82943e-05 -3.61301e-31)
(0.000391163 -2.97948e-05 0)
(0.000411975 -3.15621e-05 0)
(0.000434903 -3.36742e-05 4.30095e-31)
(0.000460274 -3.62409e-05 0)
(0.000488516 -3.9415e-05 1.49945e-30)
(0.000520205 -4.34127e-05 1.10991e-30)
(0.000556165 -4.8549e-05 0)
(0.000597666 -5.53024e-05 0)
(0.000646813 -6.44378e-05 -3.27027e-30)
(0.00070745 -7.72622e-05 -3.92755e-30)
(0.0007875 -9.62285e-05 -4.90052e-30)
(0.000906516 -0.00012667 9.71604e-30)
(0.00113003 -0.000183736 4.72279e-30)
(0.00191763 -0.000348134 -8.86321e-30)
(0.00891811 -0.00448723 2.31142e-28)
(0.0162592 0.000651939 1.72361e-29)
(0.0169502 0.00174306 0)
(0.0164449 0.00125349 -3.27903e-29)
(0.0160331 0.000987383 -7.84623e-29)
(0.0156627 0.000833555 0)
(0.0153174 0.000736035 0)
(0.0149924 0.000666843 0)
(0.0146862 0.000612249 -1.6173e-29)
(0.0143981 0.000565699 0)
(0.0141276 0.000524171 -2.84331e-29)
(0.013874 0.00048632 0)
(0.0136362 0.000451544 -2.4632e-29)
(0.0134134 0.000419537 0)
(0.0132044 0.00039009 2.14141e-29)
(0.0130084 0.000363012 0)
(0.0128243 0.000338113 -1.86911e-29)
(0.0126512 0.000315203 2.59368e-29)
(0.0124884 0.000294097 0)
(0.0123351 0.000274621 1.53624e-29)
(0.0121906 0.000256616 -6.92118e-30)
(0.0120544 0.000239941 -6.48692e-30)
(0.0119259 0.000224468 0)
(0.0118045 0.000210087 1.76853e-29)
(0.01169 0.000196699 -5.36055e-30)
(0.0115817 0.000184218 0)
(0.0114795 0.000172566 4.73176e-30)
(0.0113829 0.000161677 9.43347e-30)
(0.0112915 0.00015149 0)
(0.0112052 0.000141951 -3.9339e-30)
(0.0111236 0.000133012 0)
(0.0110465 0.00012463 -4.004e-30)
(0.0109737 0.000116765 0)
(0.0109048 0.000109382 3.59981e-30)
(0.0108397 0.000102449 -2.90416e-30)
(0.0107782 9.59359e-05 -8.71198e-30)
(0.0107202 8.98164e-05 -1.64611e-29)
(0.0106654 8.40657e-05 1.55563e-29)
(0.0106136 7.86609e-05 0)
(0.0105648 7.3581e-05 0)
(0.0105187 6.88066e-05 0)
(0.0104753 6.43196e-05 -4.80912e-30)
(0.0104343 6.01032e-05 3.59995e-30)
(0.0103957 5.61416e-05 -3.39332e-30)
(0.0103593 5.24202e-05 0)
(0.0103251 4.89251e-05 1.00258e-29)
(0.0102929 4.56435e-05 2.84573e-30)
(0.0102625 4.25632e-05 2.68505e-30)
(0.010234 3.96728e-05 0)
(0.0102072 3.69615e-05 0)
(0.010182 3.44191e-05 0)
(0.0101583 3.2036e-05 2.13588e-30)
(0.0101361 2.98031e-05 0)
(0.0101153 2.77119e-05 4.77585e-30)
(0.0100957 2.57542e-05 2.76157e-30)
(0.0100774 2.39223e-05 -4.37687e-30)
(0.0100602 2.2209e-05 0)
(0.0100442 2.06072e-05 -5.56746e-30)
(0.0100291 1.91106e-05 0)
(0.0100151 1.77129e-05 -3.72306e-30)
(0.0100019 1.64083e-05 4.90624e-30)
(0.00998965 1.51911e-05 4.71457e-30)
(0.00997818 1.40562e-05 0)
(0.00996747 1.29985e-05 2.08395e-30)
(0.00995749 1.20134e-05 -3.12286e-30)
(0.00994818 1.10964e-05 1.04341e-30)
(0.00993951 1.02432e-05 0)
(0.00993144 9.44997e-06 9.57502e-31)
(0.00992392 8.71282e-06 -1.85623e-30)
(0.00991694 8.02823e-06 0)
(0.00991045 7.39282e-06 -2.63622e-30)
(0.00990441 6.80344e-06 -2.57415e-30)
(0.00989882 6.25709e-06 -2.5166e-30)
(0.00989362 5.75094e-06 0)
(0.00988881 5.28233e-06 0)
(0.00988435 4.84877e-06 0)
(0.00988022 4.44788e-06 3.0225e-30)
(0.0098764 4.07746e-06 -6.77147e-31)
(0.00987287 3.73542e-06 0)
(0.0098696 3.4198e-06 2.21771e-30)
(0.00986658 3.12876e-06 2.18705e-30)
(0.0098638 2.86059e-06 0)
(0.00986123 2.61366e-06 -1.20151e-30)
(0.00985887 2.38646e-06 4.21768e-30)
(0.00985669 2.17758e-06 1.15599e-30)
(0.00985468 1.9857e-06 -5.26918e-30)
(0.00985284 1.80959e-06 0)
(0.00985114 1.64809e-06 0)
(0.00984958 1.50015e-06 0)
(0.00984815 1.36477e-06 1.07115e-30)
(0.00984684 1.24104e-06 5.03449e-30)
(0.00984563 1.12811e-06 3.95245e-30)
(0.00984453 1.02522e-06 1.03569e-30)
(0.00984351 9.31648e-07 4.93694e-30)
(0.00984258 8.4677e-07 -1.01706e-30)
(0.00984173 7.70015e-07 0)
(0.00984095 7.00885e-07 0)
(0.00984023 6.38954e-07 -4.84461e-30)
(0.00983956 5.83874e-07 0)
(0.00983895 5.35381e-07 0)
(0.00983838 4.93304e-07 3.81844e-30)
(0.00983785 4.57574e-07 0)
(0.00983735 4.28249e-07 4.77789e-30)
(0.00983688 4.05526e-07 9.70897e-31)
(0.00983642 3.89777e-07 0)
(0.00983598 3.81583e-07 4.76277e-30)
(0.00983553 3.81783e-07 0)
(0.00983508 3.91538e-07 0)
(0.0098346 4.12414e-07 9.71394e-31)
(0.00983408 4.46493e-07 3.80714e-30)
(0.00983351 4.9651e-07 9.79989e-31)
(0.00983287 5.66046e-07 0)
(0.00983211 6.59773e-07 0)
(0.00983122 7.83791e-07 4.88528e-30)
(0.00983013 9.46073e-07 0)
(0.0098288 1.15708e-06 4.99993e-30)
(0.00982715 1.43059e-06 0)
(0.00982508 1.78492e-06 0)
(0.00982246 2.24457e-06 0)
(0.00981912 2.84272e-06 -1.22122e-30)
(0.00981484 3.62491e-06 0)
(0.0098093 4.65481e-06 1.40766e-30)
(0.0098021 6.02335e-06 0)
(0.00979265 7.86417e-06 0)
(0.00978013 1.03808e-05 5.84112e-30)
(0.00976334 1.38977e-05 -6.56206e-30)
(0.00974045 1.89644e-05 0)
(0.00970857 2.65879e-05 0)
(0.00966276 3.88233e-05 0)
(0.00959396 6.05341e-05 1.79543e-29)
(0.00948465 0.000105826 0)
(0.00931222 0.00022784 -1.01268e-28)
(5.12758e-06 -4.47333e-05 2.31205e-30)
(1.5411e-05 -4.46182e-05 -3.66239e-34)
(2.57371e-05 -4.44789e-05 0)
(3.60966e-05 -4.43134e-05 8.54596e-34)
(4.64828e-05 -4.41256e-05 0)
(5.6886e-05 -4.39139e-05 0)
(6.72823e-05 -4.36712e-05 -2.2498e-30)
(7.76298e-05 -4.33883e-05 -1.11789e-30)
(8.78707e-05 -4.3057e-05 1.10677e-30)
(9.7936e-05 -4.26713e-05 -1.0984e-30)
(0.000107751 -4.22276e-05 0)
(0.00011724 -4.1725e-05 0)
(0.000126331 -4.11653e-05 -1.05515e-30)
(0.000134957 -4.05532e-05 -2.07742e-30)
(0.000143072 -3.98964e-05 2.04232e-30)
(0.000150652 -3.92065e-05 0)
(0.000157709 -3.84987e-05 1.96799e-30)
(0.000164295 -3.77918e-05 9.69136e-31)
(0.00017051 -3.71072e-05 0)
(0.000176488 -3.64674e-05 1.86032e-30)
(0.000182395 -3.58946e-05 -9.1924e-31)
(0.00018841 -3.54091e-05 -1.80391e-30)
(0.000194713 -3.50291e-05 8.96286e-31)
(0.000201471 -3.47706e-05 0)
(0.000208836 -3.46472e-05 1.76163e-30)
(0.000216939 -3.46715e-05 1.76173e-30)
(0.000225892 -3.48545e-05 0)
(0.000235791 -3.5207e-05 1.78675e-30)
(0.000246715 -3.57398e-05 0)
(0.000258734 -3.64646e-05 1.84852e-30)
(0.000271915 -3.73959e-05 -9.53822e-31)
(0.000286323 -3.85527e-05 0)
(0.000302035 -3.99614e-05 0)
(0.000319139 -4.16594e-05 0)
(0.00033774 -4.36995e-05 0)
(0.000357964 -4.61549e-05 0)
(0.00037997 -4.91271e-05 0)
(0.000403957 -5.27552e-05 2.67015e-30)
(0.000430188 -5.72312e-05 -1.43876e-30)
(0.000459025 -6.28248e-05 0)
(0.000490987 -6.99226e-05 0)
(0.000526849 -7.90998e-05 0)
(0.000567833 -9.12513e-05 -9.30107e-30)
(0.000615968 -0.00010786 -5.51806e-30)
(0.00067489 -0.000131608 -3.18816e-32)
(0.000751915 -0.000168002 3.55223e-32)
(0.000865276 -0.00023094 -1.18167e-29)
(0.0010861 -0.00037261 -1.91609e-29)
(0.00243909 -0.00135522 1.3955e-28)
(0.00940383 -0.00275708 1.41205e-28)
(0.0155064 0.00167823 0)
(0.0158201 0.00159139 -8.45135e-29)
(0.0156984 0.00139502 -1.47947e-28)
(0.0154633 0.00126433 0)
(0.0151826 0.00116435 0)
(0.0148896 0.00107951 5.79183e-29)
(0.0146003 0.00100299 0)
(0.0143225 0.000932066 0)
(0.0140592 0.000865862 -1.39603e-28)
(0.0138115 0.000804175 -8.70624e-29)
(0.0135792 0.000746967 -3.98996e-29)
(0.0133613 0.000694149 0)
(0.0131569 0.000645532 3.46156e-29)
(0.0129651 0.000600845 0)
(0.0127848 0.000559775 -9.16482e-29)
(0.0126152 0.000521994 2.81777e-29)
(0.0124555 0.000487185 5.39023e-29)
(0.0123049 0.000455055 7.52253e-29)
(0.0121629 0.000425339 0)
(0.012029 0.000397803 -4.45397e-29)
(0.0119024 0.000372239 0)
(0.0117829 0.000348466 -2.02406e-29)
(0.01167 0.000326323 -3.70471e-29)