/*--------------------------------*- C++ -*----------------------------------*\
  =========                 |
  \\      /  F ield         | OpenFOAM: The Open Source CFD Toolbox
   \\    /   O peration     | Website:  https://openfoam.org
    \\  /    A nd           | Version:  10
     \\/     M anipulation  |
\*---------------------------------------------------------------------------*/
FoamFile
{
    format      ascii;
    class       surfaceScalarField;
    location    "2000";
    object      phi;
}
// * * * * * * * * * * * * * * * * * * * * * * * * * * * * * * * * * * * * * //

dimensions      [0 3 -1 0 0 0 0];

internalField   nonuniform List<scalar> 
6280
(
-9.90263e-09
9.90263e-09
-1.9514e-08
9.61134e-09
-2.87331e-08
9.21915e-09
-3.74717e-08
8.73855e-09
-4.56533e-08
8.18158e-09
-5.3213e-08
7.5598e-09
-6.00973e-08
6.88425e-09
-6.62628e-08
6.16548e-09
-7.16762e-08
5.41345e-09
-7.63138e-08
4.63758e-09
-8.01605e-08
3.84673e-09
-8.32097e-08
3.04918e-09
-8.54623e-08
2.25262e-09
-8.69265e-08
1.46414e-09
-8.76167e-08
6.90246e-10
-8.75535e-08
-6.31784e-11
-8.67627e-08
-7.90862e-10
-8.52745e-08
-1.48815e-09
-8.31235e-08
-2.15099e-09
-8.03476e-08
-2.77596e-09
-7.69874e-08
-3.36022e-09
-7.30858e-08
-3.90151e-09
-6.86877e-08
-4.39815e-09
-6.38387e-08
-4.849e-09
-5.85853e-08
-5.25341e-09
-5.29741e-08
-5.61123e-09
-4.70513e-08
-5.92275e-09
-4.08626e-08
-6.18867e-09
-3.44526e-08
-6.41003e-09
-2.78644e-08
-6.58822e-09
-2.11395e-08
-6.7249e-09
-1.43175e-08
-6.82194e-09
-7.43609e-09
-6.88145e-09
-5.30431e-10
-6.90566e-09
6.36648e-09
-6.89691e-09
1.32241e-08
-6.85763e-09
2.00144e-08
-6.79029e-09
2.67118e-08
-6.69737e-09
3.32931e-08
-6.58134e-09
-6.44462e-09
3.97377e-08
-1.01529e-08
2.00555e-08
-2.00086e-08
1.9467e-08
-2.94649e-08
1.86754e-08
-3.84321e-08
1.77058e-08
-4.68327e-08
1.65822e-08
-5.46007e-08
1.53278e-08
-6.16813e-08
1.39649e-08
-6.80303e-08
1.25144e-08
-7.36132e-08
1.09964e-08
-7.84054e-08
9.42974e-09
-8.23908e-08
7.83221e-09
-8.55621e-08
6.22042e-09
-8.79193e-08
4.60986e-09
-8.947e-08
3.01483e-09
-9.02282e-08
1.44845e-09
-9.0214e-08
-7.73762e-11
-8.94529e-08
-1.55195e-09
-8.79753e-08
-2.96579e-09
-8.58156e-08
-4.31066e-09
-8.30121e-08
-5.5795e-09
-7.96058e-08
-6.76649e-09
-7.56404e-08
-7.86694e-09
-7.11612e-08
-8.87733e-09
-6.6215e-08
-9.79522e-09
-6.08492e-08
-1.06192e-08
-5.51115e-08
-1.13489e-08
-4.90496e-08
-1.19847e-08
-4.27103e-08
-1.2528e-08
-3.61395e-08
-1.29808e-08
-2.93819e-08
-1.33458e-08
-2.24804e-08
-1.36264e-08
-1.5476e-08
-1.38264e-08
-8.40758e-09
-1.39498e-08
-1.31192e-09
-1.40013e-08
5.77677e-09
-1.39856e-08
1.28267e-08
-1.39076e-08
1.98088e-08
-1.37723e-08
2.66962e-08
-1.35848e-08
3.3465e-08
-1.33501e-08
-1.30731e-08
4.00935e-08
-1.06567e-08
3.07122e-08
-2.10044e-08
2.98147e-08
-3.09382e-08
2.86093e-08
-4.03662e-08
2.71337e-08
-4.92085e-08
2.54245e-08
-5.73969e-08
2.35162e-08
-6.48744e-08
2.14424e-08
-7.15946e-08
1.92346e-08
-7.75211e-08
1.69229e-08
-8.26272e-08
1.45358e-08
-8.6895e-08
1.21e-08
-9.03152e-08
9.64067e-09
-9.28866e-08
7.18124e-09
-9.46152e-08
4.74341e-09
-9.55139e-08
2.34716e-09
-9.5602e-08
1.07109e-11
-9.49044e-08
-2.24952e-09
-9.34513e-08
-4.41893e-09
-9.12772e-08
-6.4847e-09
-8.84209e-08
-8.43585e-09
-8.49242e-08
-1.02632e-08
-8.08319e-08
-1.19593e-08
-7.61908e-08
-1.35184e-08
-7.10495e-08
-1.49365e-08
-6.54574e-08
-1.62113e-08
-5.94647e-08
-1.73416e-08
-5.31213e-08
-1.83281e-08
-4.64768e-08
-1.91724e-08
-3.95801e-08
-1.98776e-08
-3.24784e-08
-2.04475e-08
-2.52178e-08
-2.08871e-08
-1.78421e-08
-2.12021e-08
-1.03932e-08
-2.13988e-08
-2.91044e-09
-2.14841e-08
4.56916e-09
-2.14652e-08
1.20113e-08
-2.13497e-08
1.93844e-08
-2.11454e-08
2.66595e-08
-2.086e-08
3.38106e-08
-2.05012e-08
-2.00767e-08
4.08142e-08
-1.14204e-08
4.21326e-08
-2.2514e-08
4.09083e-08
-3.31725e-08
3.92678e-08
-4.33003e-08
3.72616e-08
-5.28143e-08
3.49384e-08
-6.16429e-08
3.23449e-08
-6.97261e-08
2.95255e-08
-7.7014e-08
2.65225e-08
-8.34673e-08
2.33762e-08
-8.9056e-08
2.01245e-08
-9.37595e-08
1.68035e-08
-9.75657e-08
1.34469e-08
-1.00471e-07
1.00862e-08
-1.02478e-07
6.75104e-09
-1.036e-07
3.46846e-09
-1.03852e-07
2.63409e-10
-1.0326e-07
-2.84153e-09
-1.01853e-07
-5.82611e-09
-9.96654e-08
-8.67245e-09
-9.67362e-08
-1.13651e-08
-9.31085e-08
-1.38909e-08
-8.88285e-08
-1.62392e-08
-8.39453e-08
-1.84016e-08
-7.851e-08
-2.03719e-08
-7.25751e-08
-2.21462e-08
-6.61941e-08
-2.37226e-08
-5.94209e-08
-2.51013e-08
-5.23091e-08
-2.62842e-08
-4.49118e-08
-2.72748e-08
-3.72809e-08
-2.80783e-08
-2.94669e-08
-2.87011e-08
-2.15182e-08
-2.91508e-08
-1.34811e-08
-2.94358e-08
-5.39963e-09
-2.95656e-08
2.68515e-09
-2.955e-08
1.07348e-08
-2.93994e-08
1.8714e-08
-2.91246e-08
2.65902e-08
-2.87362e-08
3.43341e-08
-2.82451e-08
-2.76619e-08
4.19193e-08
-1.24529e-08
5.45855e-08
-2.45557e-08
5.30111e-08
-3.61953e-08
5.09074e-08
-4.7272e-08
4.83382e-08
-5.76983e-08
4.53647e-08
-6.73985e-08
4.20452e-08
-7.63082e-08
3.84352e-08
-8.43735e-08
3.45878e-08
-9.15506e-08
3.05533e-08
-9.78055e-08
2.63794e-08
-1.03113e-07
2.21112e-08
-1.07458e-07
1.77914e-08
-1.10831e-07
1.346e-08
-1.13235e-07
9.15445e-09
-1.14676e-07
4.9096e-09
-1.1517e-07
7.57538e-10
-1.14739e-07
-3.27238e-09
-1.13412e-07
-7.15364e-09
-1.11222e-07
-1.08626e-08
-1.08208e-07
-1.43785e-08
-1.04415e-07
-1.76836e-08
-9.98914e-08
-2.07632e-08
-9.46877e-08
-2.36053e-08
-8.88586e-08
-2.62009e-08
-8.24607e-08
-2.85441e-08
-7.5552e-08
-3.06313e-08
-6.81916e-08
-3.24618e-08
-6.04387e-08
-3.40371e-08
-5.23522e-08
-3.53613e-08
-4.39905e-08
-3.64401e-08
-3.54102e-08
-3.72814e-08
-2.66665e-08
-3.78945e-08
-1.78119e-08
-3.82903e-08
-8.89689e-09
-3.84806e-08
3.13803e-11
-3.84782e-08
8.92862e-09
-3.82967e-08
1.77539e-08
-3.79498e-08
2.64696e-08
-3.74519e-08
3.50416e-08
-3.68171e-08
-3.60596e-08
4.34393e-08
-1.37656e-08
6.83511e-08
-2.7152e-08
6.63975e-08
-4.00412e-08
6.37966e-08
-5.23285e-08
6.06255e-08
-6.39215e-08
5.69577e-08
-7.47395e-08
5.28632e-08
-8.47129e-08
4.84086e-08
-9.37826e-08
4.36575e-08
-1.01899e-07
3.867e-08
-1.09023e-07
3.35035e-08
-1.15125e-07
2.82124e-08
-1.20181e-07
2.28482e-08
-1.24181e-07
1.74596e-08
-1.27119e-07
1.20925e-08
-1.28999e-07
6.78968e-09
-1.29833e-07
1.59109e-09
-1.29639e-07
-3.46648e-09
-1.28443e-07
-8.34942e-09
-1.26278e-07
-1.30274e-08
-1.23183e-07
-1.74735e-08
-1.19202e-07
-2.16643e-08
-1.14386e-07
-2.55798e-08
-1.08787e-07
-2.92037e-08
-1.02465e-07
-3.25231e-08
-9.54804e-08
-3.55287e-08
-8.78971e-08
-3.82147e-08
-7.97804e-08
-4.05784e-08
-7.1197e-08
-4.26206e-08
-6.22136e-08
-4.43447e-08
-5.28966e-08
-4.57571e-08
-4.33114e-08
-4.68666e-08
-3.35217e-08
-4.76842e-08
-2.35892e-08
-4.82229e-08
-1.35726e-08
-4.84972e-08
-3.52793e-09
-4.8523e-08
6.4926e-09
-4.83172e-08
1.64403e-08
-4.78975e-08
2.62703e-08
-4.72819e-08
3.59419e-08
-4.64887e-08
-4.55362e-08
4.54184e-08
-1.53709e-08
8.3722e-08
-3.03284e-08
8.1355e-08
-4.47493e-08
7.82175e-08
-5.85237e-08
7.43999e-08
-7.15539e-08
6.99879e-08
-8.37538e-08
6.50631e-08
-9.50478e-08
5.97027e-08
-1.05371e-07
5.39802e-08
-1.14666e-07
4.79656e-08
-1.22888e-07
4.17255e-08
-1.29999e-07
3.53234e-08
-1.35971e-07
2.88197e-08
-1.40783e-07
2.22718e-08
-1.44424e-07
1.5734e-08
-1.46893e-07
9.25791e-09
-1.48193e-07
2.89164e-09
-1.4834e-07
-3.31975e-09
-1.47355e-07
-9.33464e-09
-1.45267e-07
-1.5115e-08
-1.42114e-07
-2.06264e-08
-1.3794e-07
-2.58384e-08
-1.32796e-07
-3.07246e-08
-1.26737e-07
-3.52626e-08
-1.19826e-07
-3.94343e-08
-1.12128e-07
-4.32258e-08
-1.03716e-07
-4.66275e-08
-9.46604e-08
-4.96337e-08
-8.5038e-08
-5.2243e-08
-7.49251e-08
-5.44576e-08
-6.43986e-08
-5.62835e-08
-5.35351e-08
-5.773e-08
-4.241e-08
-5.88094e-08
-3.10964e-08
-5.95365e-08
-1.96649e-08
-5.99286e-08
-8.18286e-09
-6.0005e-08
3.28624e-09
-5.97863e-08
1.46831e-08
-5.92944e-08
2.59532e-08
-5.85519e-08
3.70463e-08
-5.75819e-08
-5.64075e-08
4.79177e-08
-1.72818e-08
1.01004e-07
-3.41111e-08
9.81843e-08
-5.036e-08
9.44664e-08
-6.59138e-08
8.99537e-08
-8.06698e-08
8.47439e-08
-9.45359e-08
7.89292e-08
-1.0743e-07
7.2597e-08
-1.1928e-07
6.58303e-08
-1.30023e-07
5.87079e-08
-1.39603e-07
5.13054e-08
-1.47974e-07
4.36945e-08
-1.55098e-07
3.59444e-08
-1.60948e-07
2.8121e-08
-1.65501e-07
2.02874e-08
-1.68747e-07
1.25037e-08
-1.70682e-07
4.82701e-09
-1.71313e-07
-2.68863e-09
-1.70655e-07
-9.99263e-09
-1.68732e-07
-1.7038e-08
-1.65577e-07
-2.37814e-08
-1.61232e-07
-3.01839e-08
-1.55745e-07
-3.62107e-08
-1.49176e-07
-4.18317e-08
-1.41589e-07
-4.70214e-08
-1.33056e-07
-5.17595e-08
-1.23653e-07
-5.60305e-08
-1.13462e-07
-5.98241e-08
-1.0257e-07
-6.31349e-08
-9.10653e-08
-6.59625e-08
-7.90376e-08
-6.83112e-08
-6.65779e-08
-7.01897e-08
-5.37766e-08
-7.16107e-08
-4.07222e-08
-7.25908e-08
-2.7501e-08
-7.31498e-08
-1.41958e-08
-7.33102e-08
-8.85168e-10
-7.30969e-08
1.23572e-08
-7.25367e-08
2.54628e-08
-7.16575e-08
3.83692e-08
-7.04882e-08
-6.9058e-08
5.10198e-08
-1.95098e-08
1.20514e-07
-3.85239e-08
1.17198e-07
-5.69109e-08
1.12853e-07
-7.45524e-08
1.07595e-07
-9.1341e-08
1.01532e-07
-1.07179e-07
9.47675e-08
-1.21979e-07
8.73966e-08
-1.3566e-07
7.95111e-08
-1.4815e-07
7.11978e-08
-1.59384e-07
6.25399e-08
-1.69306e-07
5.36169e-08
-1.77868e-07
4.45056e-08
-1.85027e-07
3.528e-08
-1.90751e-07
2.60115e-08
-1.95016e-07
1.6769e-08
-1.97808e-07
7.61877e-09
-1.99121e-07
-1.37574e-09
-1.98959e-07
-1.0154e-08
-1.97339e-07
-1.86587e-08
-1.94284e-07
-2.68363e-08
-1.89831e-07
-3.46372e-08
-1.84025e-07
-4.20161e-08
-1.76924e-07
-4.89328e-08
-1.68593e-07
-5.53521e-08
-1.59109e-07
-6.12443e-08
-1.48553e-07
-6.65856e-08
-1.37019e-07
-7.13582e-08
-1.24604e-07
-7.55505e-08
-1.11409e-07
-7.91569e-08
-9.75426e-08
-8.21779e-08
-8.31124e-08
-8.462e-08
-6.8228e-08
-8.64951e-08
-5.29986e-08
-8.78203e-08
-3.7531e-08
-8.86174e-08
-2.19289e-08
-8.89122e-08
-6.2916e-09
-8.87343e-08
9.28732e-09
-8.81156e-08
2.47205e-08
-8.70907e-08
3.99277e-08
-8.56954e-08
-8.39665e-08
5.48361e-08
-2.20636e-08
1.42577e-07
-4.35848e-08
1.3872e-07
-6.44314e-08
1.337e-07
-8.44827e-08
1.27647e-07
-1.03628e-07
1.20678e-07
-1.21766e-07
1.12906e-07
-1.38802e-07
1.04433e-07
-1.54649e-07
9.53573e-08
-1.69224e-07
8.57729e-08
-1.82452e-07
7.57684e-08
-1.94265e-07
6.54297e-08
-2.04599e-07
5.48401e-08
-2.134e-07
4.40803e-08
-2.20617e-07
3.32292e-08
-2.26212e-07
2.23638e-08
-2.30153e-07
1.15592e-08
-2.32417e-07
8.88837e-10
-2.32995e-07
-9.57641e-09
-2.31885e-07
-1.9768e-08
-2.29102e-07
-2.96202e-08
-2.24668e-07
-3.9071e-08
-2.18622e-07
-4.80623e-08
-2.11014e-07
-5.65405e-08
-2.01908e-07
-6.44576e-08
-1.91382e-07
-7.1771e-08
-1.79522e-07
-7.8445e-08
-1.6643e-07
-8.44503e-08
-1.52215e-07
-8.97654e-08
-1.36996e-07
-9.43759e-08
-1.20899e-07
-9.82755e-08
-1.04053e-07
-1.01465e-07
-8.65948e-08
-1.03954e-07
-6.8658e-08
-1.05757e-07
-5.03778e-08
-1.06898e-07
-3.18864e-08
-1.07404e-07
-1.33112e-08
-1.07309e-07
5.22634e-09
-1.06653e-07
2.36122e-08
-1.05477e-07
4.17411e-08
-1.03824e-07
-1.01743e-07
5.95175e-08
-2.49464e-08
1.67524e-07
-4.93018e-08
1.63075e-07
-7.29361e-08
1.57334e-07
-9.57295e-08
1.5044e-07
-1.17571e-07
1.42519e-07
-1.38356e-07
1.3369e-07
-1.57984e-07
1.24061e-07
-1.76362e-07
1.13735e-07
-1.93399e-07
1.0281e-07
-2.09008e-07
9.13771e-08
-2.23106e-07
7.95273e-08
-2.35613e-07
6.73478e-08
-2.46457e-07
5.49243e-08
-2.5557e-07
4.23415e-08
-2.62889e-07
2.96831e-08
-2.68362e-07
1.70321e-08
-2.71944e-07
4.47098e-09
-2.73602e-07
-7.91876e-09
-2.73313e-07
-2.00567e-08
-2.71069e-07
-3.1864e-08
-2.66876e-07
-4.32641e-08
-2.60755e-07
-5.41834e-08
-2.52743e-07
-6.45519e-08
-2.42896e-07
-7.43046e-08
-2.31286e-07
-8.33817e-08
-2.18e-07
-9.17304e-08
-2.03146e-07
-9.93049e-08
-1.86843e-07
-1.06068e-07
-1.69228e-07
-1.11991e-07
-1.50447e-07
-1.17056e-07
-1.30658e-07
-1.21254e-07
-1.10026e-07
-1.24585e-07
-8.8722e-08
-1.27061e-07
-6.69165e-08
-1.28703e-07
-4.47809e-08
-1.29539e-07
-2.24823e-08
-1.29608e-07
-1.81502e-10
-1.28954e-07
2.19695e-08
-1.27628e-07
4.38293e-08
-1.25684e-07
-1.23182e-07
6.5269e-08
-2.81538e-08
1.95677e-07
-5.56672e-08
1.90589e-07
-8.24169e-08
1.84084e-07
-1.08288e-07
1.76311e-07
-1.33172e-07
1.67404e-07
-1.56965e-07
1.57483e-07
-1.79565e-07
1.46661e-07
-2.00872e-07
1.35042e-07
-2.20786e-07
1.22724e-07
-2.3921e-07
1.09801e-07
-2.56046e-07
9.63632e-08
-2.71198e-07
8.24993e-08
-2.8457e-07
6.8297e-08
-2.96072e-07
5.38438e-08
-3.05617e-07
3.92275e-08
-3.13121e-07
2.45367e-08
-3.18512e-07
9.86144e-09
-3.21723e-07
-4.70758e-09
-3.22701e-07
-1.90785e-08
-3.21406e-07
-3.3159e-08
-3.17814e-07
-4.68568e-08
-3.11916e-07
-6.00805e-08
-3.03728e-07
-7.27405e-08
-2.93282e-07
-8.47502e-08
-2.80636e-07
-9.60276e-08
-2.65871e-07
-1.06496e-07
-2.49089e-07
-1.16086e-07
-2.30419e-07
-1.24738e-07
-2.10011e-07
-1.324e-07
-1.88033e-07
-1.39034e-07
-1.64675e-07
-1.44612e-07
-1.40139e-07
-1.49121e-07
-1.1464e-07
-1.52561e-07
-8.83993e-08
-1.54944e-07
-6.16414e-08
-1.56297e-07
-3.45894e-08
-1.5666e-07
-7.46081e-09
-1.56083e-07
1.95364e-08
-1.54625e-07
4.62075e-08
-1.52355e-07
-1.49349e-07
7.23738e-08
-3.16703e-08
2.27348e-07
-6.2652e-08
2.2157e-07
-9.28343e-08
2.14266e-07
-1.22113e-07
2.0559e-07
-1.50386e-07
1.95677e-07
-1.77555e-07
1.84652e-07
-2.03518e-07
1.72624e-07
-2.28174e-07
1.59698e-07
-2.51417e-07
1.45967e-07
-2.73139e-07
1.31523e-07
-2.93228e-07
1.16452e-07
-3.1157e-07
1.00841e-07
-3.28048e-07
8.4775e-08
-3.42543e-07
6.83395e-08
-3.54938e-07
5.16225e-08
-3.65116e-07
3.47146e-08
-3.72964e-07
1.77092e-08
-3.78375e-07
7.03481e-10
-3.81252e-07
-1.62017e-08
-3.81509e-07
-3.2902e-08
-3.79076e-07
-4.92899e-08
-3.73901e-07
-6.52551e-08
-3.65955e-07
-8.06861e-08
-3.55235e-07
-9.5471e-08
-3.41763e-07
-1.09499e-07
-3.25596e-07
-1.22663e-07
-3.0682e-07
-1.34862e-07
-2.85559e-07
-1.45999e-07
-2.61968e-07
-1.55992e-07
-2.36234e-07
-1.64767e-07
-2.08579e-07
-1.72267e-07
-1.79249e-07
-1.78451e-07
-1.48514e-07
-1.83296e-07
-1.16662e-07
-1.86796e-07
-8.39917e-08
-1.88967e-07
-5.0807e-08
-1.89845e-07
-1.7409e-08
-1.89481e-07
1.59105e-08
-1.87944e-07
4.88751e-08
-1.8532e-07
-1.81703e-07
8.12292e-08
-3.54668e-08
2.62814e-07
-7.01996e-08
2.56303e-07
-1.04108e-07
2.48174e-07
-1.37103e-07
2.38585e-07
-1.69099e-07
2.27673e-07
-2.00004e-07
2.15558e-07
-2.29726e-07
2.02346e-07
-2.58164e-07
1.88136e-07
-2.85212e-07
1.73014e-07
-3.10754e-07
1.57065e-07
-3.34667e-07
1.40366e-07
-3.56821e-07
1.22995e-07
-3.77077e-07
1.05031e-07
-3.95288e-07
8.65505e-08
-4.11302e-07
6.76366e-08
-4.24962e-07
4.83749e-08
-4.3611e-07
2.88568e-08
-4.44586e-07
9.17978e-09
-4.50236e-07
-1.05517e-08
-4.52913e-07
-3.02258e-08
-4.52479e-07
-4.97231e-08
-4.48818e-07
-6.89167e-08
-4.41831e-07
-8.76733e-08
-4.31448e-07
-1.05854e-07
-4.17633e-07
-1.23314e-07
-4.00387e-07
-1.39909e-07
-3.79755e-07
-1.55494e-07
-3.55826e-07
-1.69928e-07
-3.28743e-07
-1.83075e-07
-2.98698e-07
-1.94812e-07
-2.65935e-07
-2.0503e-07
-2.30746e-07
-2.13641e-07
-1.93467e-07
-2.20575e-07
-1.54471e-07
-2.25792e-07
-1.1416e-07
-2.29278e-07
-7.29553e-08
-2.3105e-07
-3.12833e-08
-2.31152e-07
1.04332e-08
-2.29661e-07
5.17885e-08
-2.26675e-07
-2.22318e-07
9.24035e-08
-3.94972e-08
3.02312e-07
-7.822e-08
2.95026e-07
-1.16105e-07
2.8606e-07
-1.53091e-07
2.75571e-07
-1.8911e-07
2.63692e-07
-2.2409e-07
2.50537e-07
-2.5795e-07
2.36206e-07
-2.90599e-07
2.20785e-07
-3.21935e-07
2.04351e-07
-3.51844e-07
1.86973e-07
-3.80196e-07
1.68718e-07
-4.06849e-07
1.49648e-07
-4.31645e-07
1.29827e-07
-4.54412e-07
1.09318e-07
-4.74964e-07
8.8189e-08
-4.93103e-07
6.65138e-08
-5.08618e-07
4.43719e-08
-5.2129e-07
2.18519e-08
-5.30894e-07
-9.47635e-10
-5.37203e-07
-2.39165e-08
-5.39994e-07
-4.69323e-08
-5.39052e-07
-6.98589e-08
-5.34179e-07
-9.25466e-08
-5.252e-07
-1.14832e-07
-5.11975e-07
-1.3654e-07
-4.94403e-07
-1.57481e-07
-4.72438e-07
-1.7746e-07
-4.46091e-07
-1.96274e-07
-4.15447e-07
-2.13719e-07
-3.80663e-07
-2.29596e-07
-3.41978e-07
-2.43715e-07
-2.99714e-07
-2.55904e-07
-2.54274e-07
-2.66015e-07
-2.06135e-07
-2.73932e-07
-1.55836e-07
-2.79577e-07
-1.03969e-07
-2.82917e-07
-5.11547e-08
-2.83967e-07
1.97477e-09
-2.8279e-07
5.47991e-08
-2.79499e-07
-2.74249e-07
1.0673e-07
-4.36964e-08
3.46008e-07
-8.65844e-08
3.37914e-07
-1.28639e-07
3.28114e-07
-1.69829e-07
3.16761e-07
-2.1012e-07
3.03982e-07
-2.49463e-07
2.89881e-07
-2.87801e-07
2.74544e-07
-3.2506e-07
2.58044e-07
-3.61152e-07
2.40443e-07
-3.95971e-07
2.21792e-07
-4.29392e-07
2.02139e-07
-4.6127e-07
1.81525e-07
-4.91436e-07
1.59993e-07
-5.19702e-07
1.37583e-07
-5.45854e-07
1.14341e-07
-5.69655e-07
9.03152e-08
-5.90846e-07
6.55627e-08
-6.09144e-07
4.01497e-08
-6.24246e-07
1.41547e-08
-6.35833e-07
-1.23295e-08
-6.43572e-07
-3.91932e-08
-6.47124e-07
-6.63072e-08
-6.4615e-07
-9.35209e-08
-6.40322e-07
-1.2066e-07
-6.29334e-07
-1.47527e-07
-6.12917e-07
-1.73898e-07
-5.90852e-07
-1.99524e-07
-5.62991e-07
-2.24135e-07
-5.29269e-07
-2.47441e-07
-4.89728e-07
-2.69138e-07
-4.44527e-07
-2.88916e-07
-3.93961e-07
-3.0647e-07
-3.38463e-07
-3.21512e-07
-2.78612e-07
-3.33783e-07
-2.15118e-07
-3.43071e-07
-1.48812e-07
-3.49222e-07
-8.06188e-08
-3.5216e-07
-1.15166e-08
-3.51893e-07
5.74998e-08
-3.48516e-07
-3.42216e-07
1.25467e-07
-4.79783e-08
3.93986e-07
-9.51225e-08
3.85058e-07
-1.41454e-07
3.74445e-07
-1.86984e-07
3.62292e-07
-2.31716e-07
3.48714e-07
-2.75637e-07
3.33802e-07
-3.18721e-07
3.17628e-07
-3.60924e-07
3.00247e-07
-4.02183e-07
2.81702e-07
-4.42413e-07
2.62022e-07
-4.81507e-07
2.41232e-07
-5.1933e-07
2.19348e-07
-5.5572e-07
1.96384e-07
-5.90486e-07
1.72349e-07
-6.23402e-07
1.47257e-07
-6.54207e-07
1.21121e-07
-6.82605e-07
9.39604e-08
-7.08259e-07
6.58039e-08
-7.30795e-07
3.66902e-08
-7.49797e-07
6.67305e-09
-7.64815e-07
-2.41752e-08
-7.75363e-07
-5.57595e-08
-7.80926e-07
-8.79575e-08
-7.80972e-07
-1.20615e-07
-7.74958e-07
-1.53541e-07
-7.62353e-07
-1.86503e-07
-7.42652e-07
-2.19225e-07
-7.15408e-07
-2.51379e-07
-6.80258e-07
-2.82592e-07
-6.36956e-07
-3.12439e-07
-5.85415e-07
-3.40457e-07
-5.25742e-07
-3.66144e-07
-4.58272e-07
-3.88982e-07
-3.83598e-07
-4.08457e-07
-3.02586e-07
-4.24083e-07
-2.1637e-07
-4.35437e-07
-1.26331e-07
-4.422e-07
-3.40374e-08
-4.44186e-07
5.88274e-08
-4.41381e-07
-4.33957e-07
1.50568e-07
-5.22363e-08
4.46223e-07
-1.03622e-07
4.36444e-07
-1.54233e-07
4.25056e-07
-2.04132e-07
4.12191e-07
-2.53367e-07
3.9795e-07
-3.01973e-07
3.82408e-07
-3.49965e-07
3.6562e-07
-3.9734e-07
3.47622e-07
-4.44073e-07
3.28435e-07
-4.90117e-07
3.08067e-07
-5.35399e-07
2.86514e-07
-5.79815e-07
2.63765e-07
-6.23232e-07
2.398e-07
-6.65478e-07
2.14595e-07
-7.06342e-07
1.88121e-07
-7.45568e-07
1.60347e-07
-7.8285e-07
1.31242e-07
-8.17827e-07
1.00781e-07
-8.50079e-07
6.89425e-08
-8.79121e-07
3.57148e-08
-9.04398e-07
1.1016e-09
-9.25283e-07
-3.48738e-08
-9.41079e-07
-7.21623e-08
-9.51013e-07
-1.10681e-07
-9.5425e-07
-1.50304e-07
-9.49901e-07
-1.90853e-07
-9.37039e-07
-2.32087e-07
-9.14729e-07
-2.73688e-07
-8.82069e-07
-3.15252e-07
-8.38234e-07
-3.56274e-07
-7.8255e-07
-3.96141e-07
-7.14564e-07
-4.34129e-07
-6.34144e-07
-4.69403e-07
-5.41565e-07
-5.01036e-07
-4.37609e-07
-5.28038e-07
-3.23636e-07
-5.4941e-07
-2.01614e-07
-5.64222e-07
-7.40911e-08
-5.71709e-07
5.59234e-08
-5.71395e-07
-5.63204e-07
1.85171e-07
-5.63452e-08
5.02568e-07
-1.11833e-07
4.91931e-07
-1.66599e-07
4.79822e-07
-2.20764e-07
4.66356e-07
-2.74432e-07
4.51618e-07
-3.27689e-07
4.35665e-07
-3.80604e-07
4.18535e-07
-4.33225e-07
4.00243e-07
-4.85581e-07
3.80791e-07
-5.37679e-07
3.60164e-07
-5.89497e-07
3.38333e-07
-6.4099e-07
3.15257e-07
-6.92076e-07
2.90886e-07
-7.42638e-07
2.65157e-07
-7.92516e-07
2.37999e-07
-8.41502e-07
2.09332e-07
-8.89327e-07
1.79068e-07
-9.35661e-07
1.47115e-07
-9.80096e-07
1.13377e-07
-1.02214e-06
7.77547e-08
-1.06119e-06
4.01526e-08
-1.09654e-06
4.81268e-10
-1.12737e-06
-4.13361e-08
-1.15269e-06
-8.53556e-08
-1.17139e-06
-1.31602e-07
-1.18219e-06
-1.80058e-07
-1.18364e-06
-2.3064e-07
-1.17414e-06
-2.83187e-07
-1.15197e-06
-3.37424e-07
-1.1153e-06
-3.92935e-07
-1.06232e-06
-4.49124e-07
-9.9128e-07
-5.0517e-07
-9.00699e-07
-5.59984e-07
-7.89567e-07
-6.12168e-07
-6.57618e-07
-6.59988e-07
-5.05642e-07
-7.01386e-07
-3.35815e-07
-7.34049e-07
-1.51952e-07
-7.55572e-07
4.04248e-08
-7.63772e-07
-7.57149e-07
2.3437e-07
-6.01655e-08
5.62733e-07
-1.19475e-07
5.5124e-07
-1.78128e-07
5.38476e-07
-2.36308e-07
5.24536e-07
-2.94178e-07
5.09487e-07
-3.51882e-07
4.93369e-07
-4.09549e-07
4.76202e-07
-4.67291e-07
4.57985e-07
-5.25201e-07
4.38701e-07
-5.83354e-07
4.18317e-07
-6.41803e-07
3.96782e-07
-7.00579e-07
3.74034e-07
-7.59686e-07
3.49993e-07
-8.19095e-07
3.24567e-07
-8.78742e-07
2.97646e-07
-9.38518e-07
2.69107e-07
-9.9826e-07
2.3881e-07
-1.05774e-06
2.06597e-07
-1.11666e-06
1.72294e-07
-1.17461e-06
1.35709e-07
-1.23109e-06
9.66326e-08
-1.28545e-06
5.48385e-08
-1.33687e-06
1.00849e-08
-1.38434e-06
-3.78821e-08
-1.42662e-06
-8.93233e-08
-1.46218e-06
-1.44498e-07
-1.48917e-06
-2.03653e-07
-1.50536e-06
-2.67e-07
-1.50809e-06
-3.3469e-07
-1.49426e-06
-4.0677e-07
-1.46025e-06
-4.83126e-07
-1.40203e-06
-5.6339e-07
-1.3152e-06
-6.46823e-07
-1.19522e-06
-7.32139e-07
-1.03794e-06
-8.17276e-07
-8.40214e-07
-8.99108e-07
-6.01145e-07
-9.73118e-07
-3.2359e-07
-1.03313e-06
-1.6066e-08
-1.0713e-06
-1.0789e-06
3.05689e-07
-6.355e-08
6.26283e-07
-1.26252e-07
6.13942e-07
-1.88371e-07
6.00595e-07
-2.5015e-07
5.86315e-07
-3.11814e-07
5.7115e-07
-3.73567e-07
5.55123e-07
-4.35604e-07
5.38238e-07
-4.98101e-07
5.20483e-07
-5.61227e-07
5.01827e-07
-6.25134e-07
4.82224e-07
-6.89964e-07
4.61612e-07
-7.55844e-07
4.39914e-07
-8.22887e-07
4.17036e-07
-8.91186e-07
3.92866e-07
-9.60814e-07
3.67274e-07
-1.03181e-06
3.40108e-07
-1.1042e-06
3.11192e-07
-1.17793e-06
2.80327e-07
-1.25291e-06
2.47281e-07
-1.329e-06
2.1179e-07
-1.40591e-06
1.73552e-07
-1.4833e-06
1.3222e-07
-1.56061e-06
8.74007e-08
-1.63714e-06
3.86416e-08
-1.71189e-06
-1.45718e-08
-1.78356e-06
-7.28259e-08
-1.85043e-06
-1.36787e-07
-1.91021e-06
-2.07212e-07
-1.95995e-06
-2.84951e-07
-1.99576e-06
-3.7096e-07
-2.0126e-06
-4.66291e-07
-2.00391e-06
-5.72081e-07
-1.96124e-06
-6.89489e-07
-1.87381e-06
-8.19566e-07
-1.72813e-06
-9.62957e-07
-1.50797e-06
-1.11927e-06
-1.19528e-06
-1.28581e-06
-7.73382e-07
-1.45503e-06
-2.35015e-07
-1.60966e-06
-1.71345e-06
3.99527e-07
-6.63531e-08
6.92637e-07
-1.31871e-07
6.7946e-07
-1.96879e-07
6.65603e-07
-2.61676e-07
6.51113e-07
-3.26544e-07
6.36017e-07
-3.91746e-07
6.20325e-07
-4.57537e-07
6.0403e-07
-5.24163e-07
5.87109e-07
-5.91863e-07
5.69526e-07
-6.60871e-07
5.51232e-07
-7.31423e-07
5.32164e-07
-8.03751e-07
5.12242e-07
-8.78089e-07
4.91373e-07
-9.54669e-07
4.69447e-07
-1.03373e-06
4.46332e-07
-1.1155e-06
4.21878e-07
-1.20021e-06
3.95906e-07
-1.2881e-06
3.68211e-07
-1.37936e-06
3.38549e-07
-1.47421e-06
3.0664e-07
-1.57281e-06
2.72151e-07
-1.67528e-06
2.34692e-07
-1.78169e-06
1.93804e-07
-1.89199e-06
1.48941e-07
-2.00601e-06
9.94524e-08
-2.1234e-06
4.45627e-08
-2.24352e-06
-1.66618e-08
-2.36539e-06
-8.53513e-08
-2.48745e-06
-1.62887e-07
-2.60743e-06
-2.50983e-07
-2.72191e-06
-3.51807e-07
-2.8258e-06
-4.68189e-07
-2.91133e-06
-6.03964e-07
-2.96629e-06
-7.64599e-07
-2.97095e-06
-9.58297e-07
-2.8922e-06
-1.19802e-06
-2.67286e-06
-1.50515e-06
-2.21183e-06
-1.91606e-06
-1.32758e-06
-2.49391e-06
-3.34954e-06
3.08511e-07
-6.84407e-08
7.61077e-07
-1.36062e-07
7.47082e-07
-2.03238e-07
7.32779e-07
-2.70316e-07
7.1819e-07
-3.37624e-07
7.03326e-07
-4.05479e-07
6.8818e-07
-4.74187e-07
6.72738e-07
-5.44051e-07
6.56973e-07
-6.15377e-07
6.40852e-07
-6.88473e-07
6.24328e-07
-7.63657e-07
6.07348e-07
-8.41261e-07
5.89846e-07
-9.21633e-07
5.71745e-07
-1.00514e-06
5.52955e-07
-1.09218e-06
5.33372e-07
-1.18318e-06
5.12875e-07
-1.27859e-06
4.91322e-07
-1.37893e-06
4.68547e-07
-1.48474e-06
4.44357e-07
-1.59662e-06
4.18523e-07
-1.71525e-06
3.90776e-07
-1.84135e-06
3.60797e-07
-1.97575e-06
3.28202e-07
-2.11934e-06
2.92532e-07
-2.27312e-06
2.53237e-07
-2.43821e-06
2.09649e-07
-2.61584e-06
1.60966e-07
-2.80741e-06
1.06222e-07
-3.01458e-06
4.42786e-08
-3.23938e-06
-2.61832e-08
-3.48457e-06
-1.06611e-07
-3.75432e-06
-1.98446e-07
-4.05548e-06
-3.028e-07
-4.4003e-06
-4.19779e-07
-4.81144e-06
-5.47156e-07
-5.33161e-06
-6.77858e-07
-6.04141e-06
-7.95339e-07
-7.09224e-06
-8.65232e-07
-8.76559e-06
-8.20562e-07
-5.42029e-07
-1.15731e-05
-6.9701e-08
8.30778e-07
-1.38598e-07
8.15979e-07
-2.071e-07
8.01281e-07
-2.7559e-07
7.8668e-07
-3.4443e-07
7.72166e-07
-4.13972e-07
7.57722e-07
-4.84561e-07
7.43327e-07
-5.56545e-07
7.28957e-07
-6.30276e-07
7.14582e-07
-7.06116e-07
7.00169e-07
-7.84449e-07
6.8568e-07
-8.65677e-07
6.71074e-07
-9.50238e-07
6.56305e-07
-1.0386e-06
6.4132e-07
-1.13129e-06
6.26061e-07
-1.22888e-06
6.10461e-07
-1.332e-06
5.94448e-07
-1.44139e-06
5.77936e-07
-1.55787e-06
5.60829e-07
-1.68236e-06
5.43017e-07
-1.81596e-06
5.24373e-07
-1.95991e-06
5.04749e-07
-2.11568e-06
4.83969e-07
-2.28497e-06
4.61828e-07
-2.46981e-06
4.38073e-07
-2.67255e-06
4.12396e-07
-2.89599e-06
3.84406e-07
-3.14337e-06
3.53596e-07
-3.41837e-06
3.19284e-07
-3.72508e-06
2.80523e-07
-4.06764e-06
2.3595e-07
-4.44962e-06
1.8353e-07
-4.87256e-06
1.20141e-07
-5.33319e-06
4.08495e-08
-5.81803e-06
-6.23106e-08
-6.29347e-06
-2.02423e-07
-6.68755e-06
-4.01258e-07
-6.85741e-06
-6.95371e-07
-6.53148e-06
-1.14649e-06
-1.75143e-06
-5.32208e-06
-7.00536e-08
9.00832e-07
-1.39317e-07
8.85242e-07
-2.08216e-07
8.7018e-07
-2.77153e-07
8.55616e-07
-3.46507e-07
8.4152e-07
-4.16649e-07
8.27864e-07
-4.87944e-07
8.14622e-07
-5.60759e-07
8.01773e-07
-6.35471e-07
7.89294e-07
-7.12471e-07
7.77169e-07
-7.92171e-07
7.6538e-07
-8.75012e-07
7.53916e-07
-9.61472e-07
7.42765e-07
-1.05207e-06
7.31921e-07
-1.14739e-06
7.21381e-07
-1.24808e-06
7.11146e-07
-1.35485e-06
7.01221e-07
-1.46854e-06
6.91623e-07
-1.59008e-06
6.82371e-07
-1.72056e-06
6.73501e-07
-1.86125e-06
6.65061e-07
-2.01362e-06
6.5712e-07
-2.17943e-06
6.49772e-07
-2.36074e-06
6.43147e-07
-2.56009e-06
6.37416e-07
-2.7805e-06
6.32812e-07
-3.02573e-06
6.29637e-07
-3.30042e-06
6.28284e-07
-3.61039e-06
6.29257e-07
-3.96305e-06
6.33182e-07
-4.36792e-06
6.40819e-07
-4.83744e-06
6.53046e-07
-5.38811e-06
6.70813e-07
-6.04228e-06
6.95016e-07
-6.83085e-06
7.26262e-07
-7.79771e-06
7.64435e-07
-9.00692e-06
8.07957e-07
-1.05549e-05
8.52599e-07
-1.25638e-05
8.62386e-07
-1.32156e-05
-1.09958e-06
-6.94567e-08
9.70289e-07
-1.38133e-07
9.53918e-07
-2.06457e-07
9.38504e-07
-2.74827e-07
9.23987e-07
-3.43623e-07
9.10317e-07
-4.13215e-07
8.97455e-07
-4.83965e-07
8.85372e-07
-5.56238e-07
8.74046e-07
-6.30408e-07
8.63464e-07
-7.0686e-07
8.53621e-07
-7.86002e-07
8.44522e-07
-8.68266e-07
8.3618e-07
-9.5412e-07
8.28619e-07
-1.04407e-06
8.21874e-07
-1.13868e-06
8.15992e-07
-1.23857e-06
8.11036e-07
-1.34444e-06
8.07083e-07
-1.45705e-06
8.04233e-07
-1.57728e-06
8.0261e-07
-1.70615e-06
8.02369e-07
-1.84479e-06
8.037e-07
-1.99452e-06
8.06846e-07
-2.15685e-06
8.12109e-07
-2.33358e-06
8.19871e-07
-2.52679e-06
8.30625e-07
-2.73898e-06
8.45001e-07
-2.97317e-06
8.63828e-07
-3.23308e-06
8.882e-07
-3.52341e-06
9.19586e-07
-3.85022e-06
9.59993e-07
-4.22161e-06
1.01221e-06
-4.64873e-06
1.08017e-06
-5.14749e-06
1.16957e-06
-5.74124e-06
1.28877e-06
-6.4653e-06
1.45032e-06
-7.37417e-06
1.67331e-06
-8.55353e-06
1.98731e-06
-1.01395e-05
2.43861e-06
-1.22035e-05
2.92639e-06
-2.86767e-05
3.25757e-06
-6.791e-08
1.0382e-06
-1.35048e-07
1.02106e-06
-2.01822e-07
1.00528e-06
-2.68614e-07
9.90778e-07
-3.35785e-07
9.77487e-07
-4.03681e-07
9.65351e-07
-4.72644e-07
9.54335e-07
-5.43012e-07
9.44415e-07
-6.15129e-07
9.35581e-07
-6.89346e-07
9.27838e-07
-7.66029e-07
9.21205e-07
-8.45563e-07
9.15713e-07
-9.28355e-07
9.11411e-07
-1.01484e-06
9.08364e-07
-1.1055e-06
9.06652e-07
-1.20085e-06
9.06379e-07
-1.30143e-06
9.0767e-07
-1.40788e-06
9.10676e-07
-1.52084e-06
9.15577e-07
-1.64107e-06
9.2259e-07
-1.76934e-06
9.31972e-07
-1.90652e-06
9.44028e-07
-2.05353e-06
9.59121e-07
-2.21135e-06
9.77687e-07
-2.38097e-06
1.00024e-06
-2.56338e-06
1.02741e-06
-2.7595e-06
1.05995e-06
-2.97005e-06
1.09875e-06
-3.19539e-06
1.14492e-06
-3.43516e-06
1.19977e-06
-3.68782e-06
1.26486e-06
-3.9497e-06
1.34205e-06
-4.21354e-06
1.43341e-06
-4.46588e-06
1.54111e-06
-4.68263e-06
1.66707e-06
-4.82144e-06
1.81212e-06
-4.80857e-06
1.97445e-06
-4.51638e-06
2.14641e-06
-3.33491e-06
1.74492e-06
-3.32453e-05
1.23367e-06
-6.54548e-08
1.10365e-06
-1.30145e-07
1.08575e-06
-1.94443e-07
1.06958e-06
-2.58697e-07
1.05503e-06
-3.23232e-07
1.04202e-06
-3.88358e-07
1.03048e-06
-4.54375e-07
1.02035e-06
-5.21577e-07
1.01162e-06
-5.90256e-07
1.00426e-06
-6.60704e-07
9.98286e-07
-7.33218e-07
9.93719e-07
-8.08103e-07
9.90598e-07
-8.85674e-07
9.88982e-07
-9.66258e-07
9.88948e-07
-1.0502e-06
9.90591e-07
-1.13785e-06
9.9403e-07
-1.22958e-06
9.99405e-07
-1.32579e-06
1.00688e-06
-1.42686e-06
1.01665e-06
-1.53319e-06
1.02892e-06
-1.64518e-06
1.04396e-06
-1.76318e-06
1.06203e-06
-1.88751e-06
1.08345e-06
-2.01837e-06
1.10855e-06
-2.15581e-06
1.13769e-06
-2.29964e-06
1.17125e-06
-2.44929e-06
1.2096e-06
-2.60362e-06
1.25308e-06
-2.76069e-06
1.30199e-06
-2.91738e-06
1.35646e-06
-3.06894e-06
1.41642e-06
-3.20831e-06
1.48142e-06
-3.32539e-06
1.55049e-06
-3.40611e-06
1.62183e-06
-3.43159e-06
1.69255e-06
-3.37779e-06
1.75832e-06
-3.21644e-06
1.8131e-06
-2.91923e-06
1.8492e-06
-2.1551e-06
9.80783e-07
-3.63349e-05
9.34488e-07
-6.21685e-08
1.16582e-06
-1.2358e-07
1.14716e-06
-1.84562e-07
1.13056e-06
-2.45412e-07
1.11588e-06
-3.06411e-07
1.10302e-06
-3.67819e-07
1.09189e-06
-4.29882e-07
1.08242e-06
-4.92835e-07
1.07457e-06
-5.56903e-07
1.06833e-06
-6.22306e-07
1.06369e-06
-6.89256e-07
1.06067e-06
-7.5796e-07
1.0593e-06
-8.28621e-07
1.05964e-06
-9.01438e-07
1.06177e-06
-9.76604e-07
1.06576e-06
-1.0543e-06
1.07173e-06
-1.13471e-06
1.07981e-06
-1.21799e-06
1.09015e-06
-1.30426e-06
1.10292e-06
-1.39364e-06
1.1183e-06
-1.48618e-06
1.1365e-06
-1.58188e-06
1.15773e-06
-1.68064e-06
1.18221e-06
-1.78226e-06
1.21016e-06
-1.88637e-06
1.2418e-06
-1.99242e-06
1.27729e-06
-2.09956e-06
1.31674e-06
-2.20666e-06
1.36018e-06
-2.31213e-06
1.40746e-06
-2.41389e-06
1.45822e-06
-2.50925e-06
1.51178e-06
-2.5948e-06
1.56698e-06
-2.66636e-06
1.62205e-06
-2.71881e-06
1.67428e-06
-2.74601e-06
1.71975e-06
-2.74045e-06
1.75275e-06
-2.69244e-06
1.7651e-06
-2.58812e-06
1.74488e-06
-1.68796e-06
8.06218e-08
-3.90126e-05
9.89764e-07
-5.81574e-08
1.22398e-06
-1.1557e-07
1.20457e-06
-1.7251e-07
1.1875e-06
-2.29221e-07
1.17259e-06
-2.85929e-07
1.15973e-06
-3.42836e-07
1.14879e-06
-4.00131e-07