/*--------------------------------*- C++ -*----------------------------------*\
  =========                 |
  \\      /  F ield         | OpenFOAM: The Open Source CFD Toolbox
   \\    /   O peration     | Website:  https://openfoam.org
    \\  /    A nd           | Version:  10
     \\/     M anipulation  |
\*---------------------------------------------------------------------------*/
FoamFile
{
    format      ascii;
    class       volScalarField;
    location    "63";
    object      p;
}
// * * * * * * * * * * * * * * * * * * * * * * * * * * * * * * * * * * * * * //

dimensions      [1 -1 -2 0 0 0 0];

internalField   nonuniform List<scalar> 
100
(
1.02104e+07
1.02101e+07
1.02096e+07
1.02091e+07
1.02084e+07
1.02078e+07
1.0207e+07
1.02062e+07
1.02054e+07
1.02045e+07
1.02035e+07
1.02026e+07
1.02015e+07
1.02005e+07
1.01993e+07
1.01982e+07
1.0197e+07
1.01958e+07
1.01945e+07
1.01932e+07
1.01919e+07
1.01905e+07
1.01891e+07
1.01877e+07
1.01862e+07
1.01848e+07
1.01832e+07
1.01817e+07
1.01801e+07
1.01785e+07
1.01768e+07
1.01751e+07
1.01734e+07
1.01717e+07
1.01699e+07
1.01681e+07
1.01663e+07
1.01645e+07
1.01626e+07
1.01607e+07
1.01587e+07
1.01568e+07
1.01548e+07
1.01528e+07
1.01507e+07
1.01487e+07
1.01466e+07
1.01445e+07
1.01423e+07
1.01402e+07
1.0138e+07
1.01358e+07
1.01335e+07
1.01313e+07
1.0129e+07
1.01266e+07
1.01243e+07
1.01219e+07
1.01196e+07
1.01171e+07
1.01147e+07
1.01122e+07
1.01098e+07
1.01072e+07
1.01047e+07
1.01022e+07
1.00996e+07
1.0097e+07
1.00944e+07
1.00917e+07
1.0089e+07
1.00863e+07
1.00836e+07
1.00809e+07
1.00781e+07
1.00753e+07
1.00725e+07
1.00697e+07
1.00668e+07
1.0064e+07
1.00611e+07
1.00581e+07
1.00552e+07
1.00522e+07
1.00492e+07
1.00462e+07
1.00432e+07
1.00401e+07
1.00371e+07
1.0034e+07
1.00308e+07
1.00277e+07
1.00245e+07
1.00213e+07
1.00181e+07
1.00149e+07
1.00116e+07
1.00083e+07
1.0005e+07
1.00017e+07
)
;

boundaryField
{
    inlet
    {
        type            zeroGradient;
    }
    outlet
    {
        type            fixedValue;
        value           uniform 1e+07;
    }
    yzfaces
    {
        type            empty;
    }
}


// ************************************************************************* //
