/*--------------------------------*- C++ -*----------------------------------*\
  =========                 |
  \\      /  F ield         | OpenFOAM: The Open Source CFD Toolbox
   \\    /   O peration     | Website:  https://openfoam.org
    \\  /    A nd           | Version:  10
     \\/     M anipulation  |
\*---------------------------------------------------------------------------*/
FoamFile
{
    format      ascii;
    class       volVectorField;
    location    "63";
    object      Ua;
}
// * * * * * * * * * * * * * * * * * * * * * * * * * * * * * * * * * * * * * //

dimensions      [0 1 -1 0 0 0 0];

internalField   nonuniform List<vector> 
100
(
(0.000198708 0 0)
(0.000397177 0 0)
(0.000396691 0 0)
(0.000396197 0 0)
(0.000395699 0 0)
(0.000395199 0 0)
(0.000394696 0 0)
(0.000394193 0 0)
(0.000393689 0 0)
(0.000393184 0 0)
(0.000392678 0 0)
(0.000392172 0 0)
(0.000391666 0 0)
(0.000391159 0 0)
(0.000390652 0 0)
(0.000390145 0 0)
(0.000389637 0 0)
(0.000389129 0 0)
(0.000388621 0 0)
(0.000388112 0 0)
(0.000387603 0 0)
(0.000387094 0 0)
(0.000386584 0 0)
(0.000386074 0 0)
(0.000385564 0 0)
(0.000385053 0 0)
(0.000384542 0 0)
(0.00038403 0 0)
(0.000383518 0 0)
(0.000383006 0 0)
(0.000382493 0 0)
(0.000381979 0 0)
(0.000381465 0 0)
(0.00038095 0 0)
(0.000380435 0 0)
(0.000379919 0 0)
(0.000379403 0 0)
(0.000378886 0 0)
(0.000378368 0 0)
(0.00037785 0 0)
(0.000377331 0 0)
(0.000376811 0 0)
(0.000376291 0 0)
(0.000375769 0 0)
(0.000375247 0 0)
(0.000374725 0 0)
(0.000374201 0 0)
(0.000373677 0 0)
(0.000373152 0 0)
(0.000372625 0 0)
(0.000372098 0 0)
(0.00037157 0 0)
(0.000371042 0 0)
(0.000370512 0 0)
(0.000369981 0 0)
(0.000369449 0 0)
(0.000368916 0 0)
(0.000368382 0 0)
(0.000367847 0 0)
(0.00036731 0 0)
(0.000366773 0 0)
(0.000366234 0 0)
(0.000365694 0 0)
(0.000365153 0 0)
(0.000364611 0 0)
(0.000364067 0 0)
(0.000363521 0 0)
(0.000362974 0 0)
(0.000362426 0 0)
(0.000361876 0 0)
(0.000361325 0 0)
(0.000360772 0 0)
(0.000360217 0 0)
(0.00035966 0 0)
(0.000359102 0 0)
(0.000358541 0 0)
(0.000357979 0 0)
(0.000357414 0 0)
(0.000356847 0 0)
(0.000356278 0 0)
(0.000355706 0 0)
(0.000355132 0 0)
(0.000354555 0 0)
(0.000353976 0 0)
(0.000353393 0 0)
(0.000352807 0 0)
(0.000352218 0 0)
(0.000351625 0 0)
(0.000351029 0 0)
(0.000350428 0 0)
(0.000349823 0 0)
(0.000349213 0 0)
(0.000348598 0 0)
(0.000347977 0 0)
(0.00034735 0 0)
(0.000346717 0 0)
(0.000346076 0 0)
(0.000345427 0 0)
(0.000344769 0 0)
(0.000344101 0 0)
)
;

boundaryField
{
    inlet
    {
        type            fixedValue;
        value           uniform (0 0 0);
    }
    outlet
    {
        type            zeroGradient;
    }
    yzfaces
    {
        type            empty;
    }
}


// ************************************************************************* //
