/*--------------------------------*- C++ -*----------------------------------*\
  =========                 |
  \\      /  F ield         | OpenFOAM: The Open Source CFD Toolbox
   \\    /   O peration     | Website:  https://openfoam.org
    \\  /    A nd           | Version:  10
     \\/     M anipulation  |
\*---------------------------------------------------------------------------*/
FoamFile
{
    format      ascii;
    class       surfaceScalarField;
    location    "1.06";
    object      phi;
}
// * * * * * * * * * * * * * * * * * * * * * * * * * * * * * * * * * * * * * //

dimensions      [0 3 -1 0 0 0 0];

internalField   nonuniform List<scalar> 
24170
(
1.41048e-09
-1.41048e-09
2.61879e-09
-1.20832e-09
3.57718e-09
-9.58389e-10
4.30398e-09
-7.26798e-10
4.84611e-09
-5.42128e-10
5.25422e-09
-4.08107e-10
5.57199e-09
-3.17769e-10
5.83388e-09
-2.61889e-10
6.06652e-09
-2.32642e-10
6.2913e-09
-2.24783e-10
6.52725e-09
-2.35953e-10
6.79434e-09
-2.67088e-10
7.1181e-09
-3.23762e-10
7.53826e-09
-4.20161e-10
8.12932e-09
-5.91061e-10
9.06386e-09
-9.34538e-10
1.08768e-08
-1.81294e-09
-5.17987e-09
1.60567e-08
1.61142e-09
-3.0219e-09
2.98553e-09
-2.58242e-09
4.06833e-09
-2.04119e-09
4.8834e-09
-1.54187e-09
5.48669e-09
-1.14541e-09
5.93742e-09
-8.5884e-10
6.28604e-09
-6.66392e-10
6.57193e-09
-5.47777e-10
6.82522e-09
-4.85933e-10
7.06987e-09
-4.6943e-10
7.32692e-09
-4.93008e-10
7.61812e-09
-5.58286e-10
7.97067e-09
-6.76313e-10
8.42551e-09
-8.75003e-10
9.05481e-09
-1.22035e-09
1.00034e-08
-1.88313e-09
1.15671e-08
-3.37665e-09
-7.43051e-09
1.38177e-08
1.80907e-09
-4.83097e-09
3.34215e-09
-4.1155e-09
4.53983e-09
-3.23888e-09
5.43294e-09
-2.43498e-09
6.08788e-09
-1.80035e-09
6.57299e-09
-1.34395e-09
6.94541e-09
-1.03882e-09
7.24911e-09
-8.51475e-10
7.51727e-09
-7.54089e-10
7.77586e-09
-7.28018e-10
8.04723e-09
-7.64381e-10
8.35376e-09
-8.64815e-10
8.72215e-09
-1.04471e-09
9.18966e-09
-1.34251e-09
9.81348e-09
-1.84417e-09
1.06777e-08
-2.74731e-09
1.18249e-08
-4.52387e-09
-8.1911e-09
1.25855e-08
2.02854e-09
-6.85952e-09
3.73294e-09
-5.8199e-09
5.04888e-09
-4.55482e-09
6.0181e-09
-3.4042e-09
6.72055e-09
-2.5028e-09
7.23543e-09
-1.85884e-09
7.62731e-09
-1.43069e-09
7.94482e-09
-1.16898e-09
8.224e-09
-1.03327e-09
8.49243e-09
-9.96452e-10
8.77312e-09
-1.04507e-09
9.08794e-09
-1.17964e-09
9.46098e-09
-1.41775e-09
9.92154e-09
-1.80307e-09
1.05038e-08
-2.42646e-09
1.12259e-08
-3.4694e-09
1.19699e-08
-5.26787e-09
-8.24606e-09
1.20249e-08
2.28371e-09
-9.14323e-09
4.18007e-09
-7.71626e-09
5.62098e-09
-5.99572e-09
6.66482e-09
-4.44804e-09
7.40987e-09
-3.24784e-09
7.94878e-09
-2.39776e-09
8.3546e-09
-1.83651e-09
8.68087e-09
-1.49525e-09
8.96625e-09
-1.31865e-09
9.23948e-09
-1.26968e-09
9.52343e-09
-1.32903e-09
9.83833e-09
-1.49453e-09
1.02037e-08
-1.78308e-09
1.06378e-08
-2.23724e-09
1.11498e-08
-2.93847e-09
1.17054e-08
-4.02498e-09
1.21217e-08
-5.68411e-09
-7.98593e-09
1.18615e-08
2.58981e-09
-1.1733e-08
4.70623e-09
-9.83268e-09
6.27996e-09
-7.56945e-09
7.39511e-09
-5.5632e-09
8.17512e-09
-4.02785e-09
8.72971e-09
-2.95234e-09
9.14172e-09
-2.24852e-09
9.4698e-09
-1.82334e-09
9.75494e-09
-1.60379e-09
1.00264e-08
-1.54112e-09
1.03061e-08
-1.60873e-09
1.06114e-08
-1.79988e-09
1.09559e-08
-2.12754e-09
1.13458e-08
-2.62714e-09
1.17681e-08
-3.36076e-09
1.21573e-08
-4.41418e-09
1.23299e-08
-5.85675e-09
-7.59546e-09
1.19395e-08
2.9673e-09
-1.47003e-08
5.3402e-09
-1.22056e-08
7.05413e-09
-9.28338e-09
8.23323e-09
-6.74229e-09
9.03603e-09
-4.83065e-09
9.59398e-09
-3.51029e-09
1.00012e-08
-2.65579e-09
1.03217e-08
-2.14377e-09
1.0598e-08
-1.88014e-09
1.08593e-08
-1.80241e-09
1.11257e-08
-1.87508e-09
1.14107e-08
-2.08488e-09
1.1721e-08
-2.43789e-09
1.20519e-08
-2.95799e-09
1.23744e-08
-3.68331e-09
1.26121e-08
-4.65182e-09
1.26127e-08
-5.85734e-09
-7.15811e-09
1.21753e-08
3.44599e-09
-1.81463e-08
6.12167e-09
-1.48813e-08
7.98015e-09
-1.11419e-08
9.20869e-09
-7.97083e-09
1.00151e-08
-5.63709e-09
1.05585e-08
-4.05365e-09
1.09458e-08
-3.04313e-09
1.12459e-08
-2.44385e-09
1.15024e-08
-2.13665e-09
1.17432e-08
-2.04319e-09
1.19856e-08
-2.11748e-09
1.22387e-08
-2.33802e-09
1.25026e-08
-2.70179e-09
1.27635e-08
-3.21889e-09
1.29843e-08
-3.90407e-09
1.30917e-08
-4.75921e-09
1.29738e-08
-5.73949e-09
-6.70946e-09
1.25252e-08
4.07162e-09
-2.22179e-08
7.10774e-09
-1.79174e-08
9.10736e-09
-1.31415e-08
1.03587e-08
-9.22221e-09
1.11391e-08
-6.41748e-09
1.16422e-08
-4.5567e-09
1.19889e-08
-3.38985e-09
1.2252e-08
-2.70695e-09
1.24747e-08
-2.3594e-09
1.26825e-08
-2.25098e-09
1.28891e-08
-2.32399e-09
1.30986e-08
-2.54752e-09
1.33052e-08
-2.90841e-09
1.34893e-08
-3.40298e-09
1.36119e-08
-4.02668e-09
1.36112e-08
-4.75852e-09
1.34122e-08
-5.54052e-09
-6.26324e-09
1.2966e-08
4.91755e-09
-2.71355e-08
8.38315e-09
-2.1383e-08
1.05034e-08
-1.52618e-08
1.17308e-08
-1.04496e-08
1.24399e-08
-7.12655e-09
1.28663e-08
-4.98309e-09
1.31446e-08
-3.6682e-09
1.33495e-08
-2.91175e-09
1.35214e-08
-2.53132e-09
1.36817e-08
-2.41131e-09
1.38394e-08
-2.48171e-09
1.39938e-08
-2.70192e-09
1.41343e-08
-3.04887e-09
1.42383e-08
-3.507e-09
1.42697e-08
-4.05804e-09
1.41808e-08
-4.66961e-09
1.39253e-08
-5.28511e-09
-5.82353e-09
1.34856e-08
6.10713e-09
-3.32426e-08
1.0077e-08
-2.53528e-08
1.2262e-08
-1.74469e-08
1.3385e-08
-1.15726e-08
1.39546e-08
-7.69615e-09
1.42539e-08
-5.28233e-09
1.44275e-08
-3.84188e-09
1.45475e-08
-3.03169e-09
1.46483e-08
-2.6321e-09
1.47448e-08
-2.50785e-09
1.48402e-08
-2.57712e-09
1.49288e-08
-2.79047e-09
1.49963e-08
-3.11637e-09
1.50197e-08
-3.53042e-09
1.4968e-08
-4.0064e-09
1.48072e-08
-4.50873e-09
1.4511e-08
-4.98894e-09
-5.39016e-09
1.40776e-08
6.52196e-09
-3.97646e-08
1.03145e-08
-2.91454e-08
1.21134e-08
-1.92457e-08
1.28765e-08
-1.23357e-08
1.31712e-08
-7.99086e-09
1.32719e-08
-5.38299e-09
1.33011e-08
-3.87112e-09
1.33112e-08
-3.04179e-09
1.33226e-08
-2.64345e-09
1.33404e-08
-2.5257e-09
1.33618e-08
-2.59843e-09
1.33776e-08
-2.80631e-09
1.33739e-08
-3.11264e-09
1.33318e-08
-3.48834e-09
1.32296e-08
-3.90422e-09
1.30469e-08
-4.32606e-09
1.27718e-08
-4.71378e-09
-5.0265e-09
1.24081e-08
9.69761e-09
-4.94622e-08
1.45102e-08
-3.3958e-08
1.63182e-08
-2.10537e-08
1.68179e-08
-1.28353e-08
1.68378e-08
-8.01081e-09
1.67155e-08
-5.26072e-09
1.65754e-08
-3.73101e-09
1.64574e-08
-2.92379e-09
1.63689e-08
-2.55497e-09
1.63045e-08
-2.46129e-09
1.62528e-08
-2.54672e-09
1.61987e-08
-2.75219e-09
1.6124e-08
-3.03793e-09
1.60084e-08
-3.37278e-09
1.58319e-08
-3.72767e-09
1.55784e-08
-4.07256e-09
1.52415e-08
-4.37691e-09
-4.61344e-09
1.48285e-08
1.56624e-08
-6.51246e-08
2.14301e-08
-3.97257e-08
2.26101e-08
-2.22338e-08
2.23265e-08
-1.25517e-08
2.17296e-08
-7.4139e-09
2.11665e-08
-4.69765e-09
2.07148e-08
-3.2793e-09
2.03711e-08
-2.58016e-09
2.01119e-08
-2.29573e-09
1.99104e-08
-2.2598e-09
1.97411e-08
-2.37739e-09
1.95796e-08
-2.59068e-09
1.94026e-08
-2.86095e-09
1.91885e-08
-3.15865e-09
1.89189e-08
-3.45816e-09
1.85822e-08
-3.73587e-09
1.8176e-08
-3.97069e-09
-4.14618e-09
1.77088e-08
2.86573e-08
-9.37819e-08
3.37057e-08
-4.4774e-08
3.23251e-08
-2.08532e-08
3.01039e-08
-1.03305e-08
2.82567e-08
-5.56674e-09
2.68952e-08
-3.33616e-09
2.59167e-08
-2.30075e-09
2.5208e-08
-1.87148e-09
2.46809e-08
-1.76865e-09
2.42703e-08
-1.84921e-09
2.39274e-08
-2.03444e-09
2.3614e-08
-2.2773e-09
2.32997e-08
-2.54667e-09
2.29606e-08
-2.81947e-09
2.25794e-08
-3.07697e-09
2.2147e-08
-3.30352e-09
2.16631e-08
-3.48679e-09
-3.61861e-09
2.11355e-08
6.32552e-08
-1.57037e-07
5.67939e-08
-3.83127e-08
4.72674e-08
-1.13267e-08
4.08043e-08
-3.86737e-09
3.67119e-08
-1.47434e-09
3.40726e-08
-6.96864e-10
3.23072e-08
-5.35287e-10
3.1076e-08
-6.40318e-10
3.01762e-08
-8.68807e-10
2.94808e-08
-1.15381e-09
2.89065e-08
-1.46016e-09
2.83962e-08
-1.76697e-09
2.79097e-08
-2.0602e-09
2.74194e-08
-2.32919e-09
2.69078e-08
-2.56541e-09
2.63666e-08
-2.76225e-09
2.57951e-08
-2.91534e-09
-3.02285e-09
2.51994e-08
1.83477e-07
1.59274e-07
9.7416e-08
4.7748e-08
6.71729e-08
1.89164e-08
5.37866e-08
9.51893e-09
4.67411e-08
5.57116e-09
4.25624e-08
3.48187e-09
3.98658e-08
2.16125e-09
3.80075e-08
1.218e-09
3.66501e-08
4.88601e-10
3.55993e-08
-1.02949e-10
3.47322e-08
-5.93151e-10
3.39746e-08
-1.00937e-09
3.32773e-08
-1.36285e-09
3.2608e-08
-1.65992e-09
3.19472e-08
-1.90456e-09
3.12847e-08
-2.09973e-09
3.06176e-08
-2.24829e-09
-2.3535e-09
2.99482e-08
7.72714e-08
8.20029e-08
7.55664e-08
4.9453e-08
6.56188e-08
2.88639e-08
5.76776e-08
1.74601e-08
5.22124e-08
1.10364e-08
4.84888e-08
7.20549e-09
4.58847e-08
4.76534e-09
4.39913e-08
3.11138e-09
4.25509e-08
1.92901e-09
4.14009e-08
1.04706e-09
4.04398e-08
3.67947e-10
3.95937e-08
-1.63261e-10
3.88117e-08
-5.80837e-10
3.80665e-08
-9.14744e-10
3.73418e-08
-1.17987e-09
3.6629e-08
-1.38693e-09
3.5925e-08
-1.54427e-09
-1.65883e-09
3.52303e-08
3.60112e-08
4.59917e-08
5.02189e-08
3.52453e-08
5.39462e-08
2.51366e-08
5.38193e-08
1.75871e-08
5.25456e-08
1.23101e-08
5.10916e-08
8.65949e-09
4.97539e-08
6.10306e-09
4.85901e-08
4.27512e-09
4.75814e-08
2.93776e-09
4.66905e-08
1.93798e-09
4.58817e-08
1.17674e-09
4.51294e-08
5.89017e-10
4.44176e-08
1.30915e-10
4.37271e-08
-2.24171e-10
4.30476e-08
-5.00419e-10
4.23758e-08
-7.15103e-10
4.17111e-08
-8.79589e-10
-1.00281e-09
4.10551e-08
1.43627e-08
3.1629e-08
2.33654e-08
2.62425e-08
2.81872e-08
2.03148e-08
3.05543e-08
1.52199e-08
3.16213e-08
1.12431e-08
3.20264e-08
8.25438e-09
3.20972e-08
6.03229e-09
3.19961e-08
4.37616e-09
3.18027e-08
3.1312e-09
3.15554e-08
2.18524e-09
3.12733e-08
1.45884e-09
3.09663e-08
8.96078e-10
3.06398e-08
4.57335e-10
3.03014e-08
1.14272e-10
2.99527e-08
-1.51746e-10
2.95953e-08
-3.5766e-10
2.92324e-08
-5.1671e-10
-6.37723e-10
2.88673e-08
8.60516e-09
2.30239e-08
1.50118e-08
1.98359e-08
1.92642e-08
1.60624e-08
2.19376e-08
1.25466e-08
2.35768e-08
9.60391e-09
2.45664e-08
7.26474e-09
2.51501e-08
5.44861e-09
2.54757e-08
4.05053e-09
2.56322e-08
2.97471e-09
2.56736e-08
2.14383e-09
2.56337e-08
1.49878e-09
2.55343e-08
9.95439e-10
2.53905e-08
6.01144e-10
2.52131e-08
2.91677e-10
2.50124e-08
4.89324e-11
2.47937e-08
-1.3897e-10
2.45616e-08
-2.8456e-10
-3.96559e-10
2.43204e-08
5.80454e-09
1.72193e-08
1.05003e-08
1.51402e-08
1.39722e-08
1.25905e-08
1.64205e-08
1.00983e-08
1.81078e-08
7.91652e-09
1.92577e-08
6.11491e-09
2.00338e-08
4.67246e-09
2.05493e-08
3.53504e-09
2.08804e-08
2.64365e-09
2.10784e-08
1.94577e-09
2.11787e-08
1.39854e-09
2.12057e-08
9.68409e-10
2.11773e-08
6.29594e-10
2.11065e-08
3.62445e-10
2.10035e-08
1.51956e-10
2.08777e-08
-1.32091e-11
2.07338e-08
-1.40642e-10
-2.39555e-10
2.05768e-08
4.22065e-09
1.29987e-08
7.79275e-09
1.15681e-08
1.06019e-08
9.78136e-09
1.27176e-08
7.98259e-09
1.42732e-08
6.36088e-09
1.54017e-08
4.98644e-09
1.62123e-08
3.86187e-09
1.67879e-08
2.95943e-09
1.71892e-08
2.24237e-09
1.746e-08
1.67494e-09
1.76322e-08
1.22634e-09
1.77291e-08
8.71482e-10
1.77682e-08
5.90536e-10
1.77626e-08
3.68051e-10
1.77225e-08
1.92032e-10
1.76561e-08
5.31464e-11
1.75707e-08
-5.51812e-11
-1.39091e-10
1.74702e-08
3.22442e-09
9.77424e-09
6.02715e-09
8.76534e-09
8.31613e-09
7.49238e-09
1.01121e-08
6.18659e-09
1.1487e-08
4.98601e-09
1.25233e-08
3.95014e-09
1.32957e-08
3.08952e-09
1.3865e-08
2.3901e-09
1.42787e-08
1.82862e-09
1.4573e-08
1.38068e-09
1.47751e-08
1.02423e-09
1.49058e-08
7.40781e-10
1.4981e-08
5.15403e-10
1.50128e-08
3.36246e-10
1.50108e-08
1.93993e-10
1.49826e-08
8.13292e-11
1.49348e-08
-7.39611e-12
-7.60111e-11
1.48718e-08
2.54688e-09
7.22736e-09
4.79793e-09
6.51428e-09
6.6813e-09
5.60902e-09
8.19892e-09
4.66896e-09
9.39176e-09
3.79316e-09
1.03138e-08
3.02815e-09
1.10176e-08
2.38565e-09
1.1549e-08
1.85872e-09
1.19451e-08
1.43252e-09
1.22354e-08
1.09038e-09
1.24429e-08
8.16749e-10
1.25854e-08
5.98242e-10
1.26769e-08
4.23873e-10
1.27284e-08
2.84817e-10
1.27483e-08
1.74064e-10
1.27436e-08
8.60697e-11
1.27197e-08
1.64443e-11
-3.77771e-11
1.26815e-08
2.05769e-09
5.16967e-09
3.8962e-09
4.67578e-09
5.45898e-09
4.04624e-09
6.74078e-09
3.38716e-09
7.76633e-09
2.76761e-09
8.57268e-09
2.2218e-09
9.19842e-09
1.75991e-09
9.67854e-09
1.3786e-09
1.00426e-08
1.06847e-09
1.03146e-08
8.18348e-10
1.05139e-08
6.17511e-10
1.06555e-08
4.56593e-10
1.07516e-08
3.27796e-10
1.08116e-08
2.24802e-10
1.08431e-08
1.42554e-10
1.08522e-08
7.70261e-11
1.08436e-08
2.50117e-11
-1.5784e-11
1.08216e-08
1.68726e-09
3.48241e-09
3.20569e-09
3.15735e-09
4.51011e-09
2.74182e-09
5.59285e-09
2.30442e-09
6.46973e-09
1.89073e-09
7.16741e-09
1.52413e-09
7.71508e-09
1.21223e-09
8.14016e-09
9.53526e-10
8.46639e-09
7.42245e-10
8.7135e-09
5.71235e-10
8.89752e-09
4.33494e-10
9.03129e-09
3.22825e-10
9.12506e-09
2.34025e-10
9.18702e-09
1.62847e-10
9.22369e-09
1.05875e-10
9.24034e-09
6.03782e-11
9.24118e-09
2.41708e-11
-4.40689e-12
9.22981e-09
1.39507e-09
2.08734e-09
2.65665e-09
1.89577e-09
3.74815e-09
1.65033e-09
4.66155e-09
1.39101e-09
5.40755e-09
1.14473e-09
6.00609e-09
9.25591e-10
6.47988e-09
7.3844e-10
6.85073e-09
5.82676e-10
7.1379e-09
4.55069e-10
7.35764e-09
3.51496e-10
7.52327e-09
2.67861e-10
7.64559e-09
2.00509e-10
7.73327e-09
1.4635e-10
7.79327e-09
1.02848e-10
7.83118e-09
6.79568e-11
7.85153e-09
4.00356e-11
7.85793e-09
1.77691e-11
1.08172e-13
7.85341e-09
1.15432e-09
9.33021e-10
2.20167e-09
8.48412e-10
3.1122e-09
7.39805e-10
3.87846e-09
6.24751e-10
4.50801e-09
5.15171e-10
5.01621e-09
4.1739e-10
5.421e-09
3.33655e-10
5.73989e-09
2.63786e-10
5.98855e-09
2.06411e-10
6.1803e-09
1.5974e-10
6.32619e-09
1.21977e-10
6.43519e-09
9.15078e-11
6.51458e-09
6.69618e-11
6.57021e-09
4.72116e-11
6.60683e-09
3.13438e-11
6.62824e-09
1.86239e-11
6.63754e-09
8.46227e-12
3.8446e-13
6.63727e-09
9.33021e-10
1.78143e-09
2.52124e-09
3.14599e-09
3.66116e-09
4.07855e-09
4.41221e-09
4.67599e-09
4.8824e-09
5.04214e-09
5.16412e-09
5.25563e-09
5.32259e-09
5.3698e-09
5.40115e-09
5.41977e-09
5.42823e-09
5.42862e-09
2.97796e-10
-2.97796e-10
5.97138e-10
-2.99342e-10
8.97509e-10
-3.00371e-10
1.19838e-09
-3.00868e-10
1.4992e-09
-3.00822e-10
1.79943e-09
-3.00226e-10
2.0985e-09
-2.99078e-10
2.39588e-09
-2.97378e-10
2.69101e-09
-2.9513e-10
2.98335e-09
-2.9234e-10
3.27237e-09
-2.89017e-10
3.55754e-09
-2.85172e-10
3.83836e-09
-2.8082e-10
4.11434e-09
-2.75977e-10
4.385e-09
-2.70667e-10
4.64992e-09
-2.64915e-10
4.90867e-09
-2.58752e-10
5.16089e-09
-2.52216e-10
5.40623e-09
-2.45346e-10
5.64442e-09
-2.38186e-10
5.8752e-09
-2.30785e-10
6.09839e-09
-2.2319e-10
6.31385e-09
-2.15452e-10
6.52147e-09
-2.07623e-10
6.72122e-09
-1.99749e-10
6.9131e-09
-1.9188e-10
7.09716e-09
-1.84057e-10
7.27348e-09
-1.76321e-10
7.44218e-09
-1.68707e-10
7.60343e-09
-1.61246e-10
7.75739e-09
-1.53963e-10
7.90427e-09
-1.4688e-10
8.04428e-09
-1.40012e-10
8.17766e-09
-1.33373e-10
8.30463e-09
-1.26969e-10
8.42543e-09
-1.20807e-10
8.54032e-09
-1.14887e-10
8.64953e-09
-1.0921e-10
8.7533e-09
-1.03772e-10
8.85187e-09
-9.857e-11
8.94547e-09
-9.3597e-11
9.03432e-09
-8.88466e-11
9.11863e-09
-8.43115e-11
9.19861e-09
-7.9984e-11
9.27447e-09
-7.58553e-11
9.34638e-09
-7.19174e-11
9.41455e-09
-6.81618e-11
9.47913e-09
-6.458e-11
9.54029e-09
-6.11638e-11
9.5982e-09
-5.79055e-11
9.65299e-09
-5.47969e-11
9.70482e-09
-5.18308e-11
9.75382e-09
-4.9e-11
9.80012e-09
-4.62979e-11
9.84384e-09
-4.37176e-11
9.88509e-09
-4.12531e-11
9.92399e-09
-3.88988e-11
9.96064e-09
-3.66487e-11
9.99514e-09
-3.44981e-11
1.00276e-08
-3.24417e-11
1.00581e-08
-3.04749e-11
1.00866e-08
-2.85936e-11
1.01134e-08
-2.67935e-11
1.01385e-08
-2.50706e-11
1.01619e-08
-2.34214e-11
1.01838e-08
-2.18425e-11
1.02041e-08
-2.03305e-11
1.0223e-08
-1.88825e-11
1.02405e-08
-1.74957e-11
1.02567e-08
-1.6167e-11
1.02715e-08
-1.48944e-11
1.02852e-08
-1.3675e-11
1.02977e-08
-1.25066e-11
1.03091e-08
-1.13872e-11
1.03194e-08
-1.03144e-11
1.03287e-08
-9.28667e-12
1.0337e-08
-8.30177e-12
1.03444e-08
-7.35816e-12
1.03508e-08
-6.45384e-12
1.03564e-08
-5.58749e-12
1.03612e-08
-4.75734e-12
1.03651e-08
-3.96193e-12
1.03683e-08
-3.2e-12
1.03708e-08
-2.46999e-12
1.03726e-08
-1.7707e-12
1.03737e-08
-1.10065e-12
1.03741e-08
-4.58932e-13
1.0374e-08
1.55928e-13
1.03732e-08
7.44861e-13
1.03719e-08
1.30895e-12
1.03701e-08
1.84945e-12
1.03677e-08
2.36716e-12
1.03648e-08
2.86326e-12
1.03615e-08
3.3384e-12
1.03577e-08
3.79387e-12
1.03535e-08
4.23026e-12
1.03488e-08
4.64842e-12
1.03438e-08
5.04946e-12
1.03384e-08
5.43386e-12
1.03325e-08
5.80259e-12
1.03264e-08
6.15619e-12
1.03199e-08
6.49566e-12
1.03131e-08
6.82128e-12
1.03059e-08
7.13421e-12
1.02985e-08
7.43459e-12
1.02908e-08
7.72342e-12
1.02828e-08
8.0011e-12
1.02745e-08
8.26829e-12
1.0266e-08
8.52543e-12
1.02572e-08
8.77315e-12
1.02482e-08
9.01195e-12
1.0239e-08
9.24232e-12
1.02295e-08
9.46462e-12
1.02198e-08
9.6794e-12
1.02099e-08
9.88708e-12
1.01998e-08
1.00882e-11
1.01896e-08
1.02828e-11
1.01791e-08
1.04717e-11
1.01684e-08
1.06549e-11
1.01576e-08
1.08331e-11
1.01466e-08
1.10062e-11
1.01354e-08
1.11749e-11
1.01241e-08
1.13393e-11
1.01126e-08
1.14999e-11
1.01009e-08
1.16568e-11
1.00891e-08
1.18101e-11
1.00772e-08
1.19606e-11
1.0065e-08
1.21079e-11
1.00528e-08
1.22527e-11
1.00404e-08
1.23951e-11
1.00279e-08
1.25351e-11
1.00152e-08
1.26733e-11
1.00024e-08
1.28094e-11
9.98944e-09
1.29441e-11
9.97636e-09
1.30772e-11
9.96315e-09
1.32092e-11
9.94981e-09
1.33398e-11
9.93634e-09
1.34698e-11
9.92274e-09
1.35989e-11
9.90901e-09
1.37273e-11
9.89516e-09
1.38554e-11
9.88117e-09
1.39832e-11
9.86706e-09
1.41111e-11
9.85282e-09
1.42391e-11
9.83846e-09
1.43675e-11
9.82396e-09
1.44966e-11
9.80933e-09
1.46266e-11
9.79458e-09
1.47579e-11
9.77968e-09
1.4891e-11
9.76466e-09
1.50264e-11
9.74949e-09
1.51645e-11
9.73419e-09
1.53063e-11
9.71873e-09
1.54527e-11
9.70313e-09
1.56046e-11
9.68737e-09
1.57638e-11
9.67143e-09
1.5932e-11
9.65532e-09
1.61116e-11
9.63902e-09
1.63056e-11
9.6225e-09
1.65179e-11
9.60575e-09
1.67534e-11
9.58873e-09
1.70186e-11
9.57141e-09
1.73217e-11
9.55373e-09
1.76739e-11
9.53564e-09
1.80891e-11
9.51706e-09
1.85864e-11
9.49786e-09
1.9191e-11
9.47793e-09
1.99364e-11
9.45706e-09
2.0869e-11
9.43501e-09
2.2052e-11
9.41143e-09
2.35745e-11
9.38587e-09
2.55648e-11
9.35766e-09
2.82122e-11
9.32585e-09
3.18066e-11
9.28903e-09
3.68147e-11
9.245e-09
4.40336e-11
9.19006e-09
5.49459e-11
9.1174e-09
7.26527e-11
9.01255e-09
1.04856e-10
8.83626e-09
1.76283e-10
4.01013e-10
8.43525e-09
3.00097e-10
-5.97893e-10
6.01733e-10
-6.00978e-10
9.04373e-10
-6.03011e-10
1.20747e-09
-6.03962e-10
1.51045e-09
-6.03808e-10
1.81277e-09
-6.0254e-10
2.11384e-09
-6.00153e-10
2.41312e-09
-5.96654e-10
2.71004e-09
-5.92052e-10
3.00406e-09
-5.86361e-10
3.29464e-09
-5.79599e-10
3.58126e-09
-5.71786e-10
3.86339e-09
-5.6295e-10
4.14053e-09
-5.53124e-10
4.41222e-09
-5.42352e-10
4.67799e-09
-5.30686e-10
4.93743e-09
-5.18192e-10
5.19016e-09
-5.04942e-10
5.43583e-09
-4.91022e-10
5.67417e-09
-4.76522e-10
5.90492e-09
-4.6154e-10
6.12791e-09
-4.46179e-10
6.343e-09
-4.30542e-10
6.55011e-09
-4.14733e-10
6.74921e-09
-3.98853e-10
6.94033e-09
-3.82996e-10
7.12353e-09
-3.67252e-10
7.29891e-09
-3.51701e-10
7.46661e-09
-3.36412e-10
7.62681e-09
-3.21447e-10
7.7797e-09
-3.06854e-10
7.9255e-09
-2.92676e-10
8.06443e-09
-2.78942e-10
8.19673e-09
-2.65676e-10
8.32265e-09
-2.5289e-10
8.44244e-09
-2.40594e-10
8.55634e-09
-2.2879e-10
8.66461e-09
-2.17474e-10
8.76748e-09
-2.0664e-10
8.86518e-09
-1.96278e-10
8.95796e-09
-1.86376e-10
9.04603e-09
-1.76919e-10
9.12962e-09
-1.67892e-10
9.20891e-09
-1.59279e-10
9.28412e-09
-1.51063e-10
9.35543e-09
-1.43227e-10
9.42302e-09
-1.35753e-10
9.48706e-09
-1.28626e-10
9.54773e-09
-1.21827e-10
9.60517e-09
-1.15342e-10
9.65952e-09
-1.09156e-10
9.71094e-09
-1.03252e-10
9.75956e-09
-9.76168e-11
9.8055e-09
-9.22372e-11
9.84888e-09
-8.70998e-11
9.88982e-09
-8.21928e-11
9.92843e-09
-7.7504e-11
9.9648e-09
-7.3023e-11
9.99904e-09
-6.87392e-11
1.00312e-08
-6.46427e-11
1.00615e-08
-6.07246e-11
1.00899e-08
-5.6976e-11
1.01165e-08
-5.33889e-11
1.01414e-08
-4.99555e-11
1.01646e-08
-4.66685e-11
1.01863e-08
-4.35215e-11
1.02065e-08
-4.05075e-11
1.02252e-08
-3.7621e-11
1.02426e-08
-3.48558e-11
1.02586e-08
-3.22069e-11
1.02734e-08
-2.9669e-11
1.02869e-08
-2.72374e-11
1.02993e-08
-2.49075e-11
1.03106e-08
-2.26747e-11
1.03208e-08
-2.05353e-11
1.033e-08
-1.84852e-11
1.03383e-08
-1.65207e-11
1.03455e-08
-1.46381e-11
1.03519e-08
-1.28343e-11
1.03574e-08
-1.11058e-11
1.03621e-08
-9.44965e-12
1.0366e-08
-7.86275e-12
1.03692e-08
-6.34251e-12
1.03716e-08
-4.88582e-12
1.03733e-08
-3.49036e-12
1.03744e-08
-2.1534e-12
1.03748e-08
-8.72822e-13
1.03746e-08
3.54193e-13
1.03738e-08
1.52941e-12
1.03724e-08
2.65537e-12
1.03706e-08
3.73399e-12
1.03682e-08
4.76736e-12
1.03653e-08
5.75734e-12
1.03619e-08
6.7059e-12
1.03581e-08
7.61484e-12
1.03538e-08
8.48592e-12
1.03492e-08
9.32093e-12
1.03441e-08
1.01212e-11
1.03386e-08
1.08888e-11
1.03328e-08
1.16247e-11
1.03266e-08
1.23308e-11
1.03201e-08
1.30083e-11
1.03133e-08
1.36587e-11
1.03061e-08
1.42833e-11
1.02987e-08
1.48832e-11
1.02909e-08
1.54599e-11
1.02829e-08
1.60143e-11
1.02747e-08
1.65479e-11
1.02661e-08
1.70614e-11
1.02573e-08
1.75562e-11
1.02483e-08
1.8033e-11
1.02391e-08
1.8493e-11
1.02296e-08
1.8937e-11
1.02199e-08
1.93662e-11
1.021e-08
1.9781e-11
1.01999e-08
2.01825e-11
1.01896e-08
2.05716e-11
1.01792e-08
2.09487e-11
1.01685e-08
2.13149e-11
1.01577e-08
2.16707e-11
1.01466e-08
2.20168e-11
1.01355e-08
2.23539e-11
1.01241e-08
2.26824e-11
1.01126e-08
2.30031e-11
1.0101e-08
2.33166e-11
1.00891e-08
2.36233e-11
1.00772e-08
2.39237e-11
1.00651e-08
2.42183e-11
1.00528e-08
2.45077e-11
1.00404e-08
2.47921e-11
1.00279e-08
2.50722e-11
1.00152e-08
2.53482e-11
1.00024e-08
2.56204e-11
9.98945e-09
2.58896e-11
9.97637e-09
2.61558e-11
9.96316e-09
2.64193e-11
9.94982e-09
2.66809e-11
9.93635e-09
2.69404e-11
9.92275e-09
2.71985e-11
9.90902e-09
2.74554e-11
9.89517e-09
2.77115e-11
9.88118e-09
2.7967e-11
9.86707e-09
2.82226e-11
9.85283e-09
2.84784e-11
9.83846e-09
2.87352e-11
9.82397e-09
2.89932e-11
9.80934e-09
2.92532e-11
9.79458e-09
2.95157e-11
9.77969e-09
2.97817e-11
9.76467e-09
3.00522e-11
9.7495e-09
3.03283e-11
9.7342e-09
3.06117e-11
9.71875e-09
3.09038e-11
9.70314e-09
3.12075e-11
9.68738e-09
3.15253e-11
9.67145e-09
3.18612e-11
9.65534e-09
3.22196e-11
9.63904e-09
3.26066e-11
9.62253e-09
3.30298e-11
9.60578e-09
3.34992e-11
9.58878e-09
3.40277e-11
9.57147e-09
3.46313e-11
9.55381e-09
3.53321e-11
9.53574e-09
3.61583e-11
9.51718e-09
3.71471e-11
9.49802e-09
3.83487e-11
9.47813e-09
3.98295e-11
9.45732e-09
4.16808e-11
9.43534e-09
4.40275e-11
9.41187e-09
4.70455e-11
9.38645e-09
5.09865e-11
9.35844e-09
5.62206e-11
9.32693e-09
6.33137e-11
9.29058e-09
7.31669e-11
9.24731e-09
8.7304e-11
9.19375e-09
1.08504e-10
9.12403e-09
1.42376e-10
9.02702e-09
2.01867e-10
8.88103e-09
3.22269e-10
6.16428e-10
8.66562e-09
3.04783e-10
-9.02676e-10
6.11089e-10
-9.07284e-10
9.18345e-10
-9.10267e-10
1.22596e-09
-9.11576e-10
1.53333e-09
-9.11181e-10
1.83986e-09
-9.09071e-10
2.14496e-09
-9.05252e-10
2.44805e-09
-8.99744e-10
2.74857e-09
-8.92569e-10
3.04596e-09
-8.83755e-10
3.33969e-09
-8.73325e-10
3.62921e-09
-8.61304e-10
3.91398e-09
-8.47726e-10
4.1935e-09
-8.32636e-10
4.46724e-09
-8.16097e-10
4.73474e-09
-7.9819e-10
4.99557e-09
-7.79015e-10
5.24931e-09
-7.58689e-10
5.49564e-09
-7.37347e-10
5.73425e-09
-7.15134e-10
5.96492e-09
-6.92205e-10
6.18746e-09
-6.68724e-10
6.40177e-09
-6.44855e-10
6.6078e-09
-6.20762e-10
6.80555e-09
-5.96603e-10
6.99508e-09
-5.72525e-10
7.17649e-09
-5.48664e-10
7.34993e-09
-5.2514e-10
7.51558e-09
-5.02059e-10
7.67364e-09
-4.79509e-10
7.82435e-09
-4.57561e-10
7.96794e-09
-4.3627e-10
8.10468e-09
-4.15679e-10
8.23482e-09
-3.95816e-10
8.35863e-09
-3.76697e-10
8.47636e-09
-3.5833e-10
8.58829e-09
-3.40714e-10
8.69465e-09
-3.2384e-10
8.79571e-09
-3.07695e-10
8.89169e-09
-2.92262e-10
8.98284e-09
-2.7752e-10
9.06936e-09
-2.63446e-10
9.15149e-09
-2.50015e-10
9.22941e-09
-2.37203e-10
9.30333e-09
-2.24981e-10
9.37343e-09
-2.13326e-10
9.43988e-09
-2.0221e-10
9.50287e-09
-1.91608e-10
9.56253e-09
-1.81495e-10
9.61904e-09
-1.71848e-10
9.67253e-09
-1.62643e-10
9.72313e-09
-1.53858e-10
9.77099e-09
-1.45471e-10
9.81621e-09
-1.37464e-10
9.85893e-09
-1.29816e-10
9.89925e-09
-1.22509e-10
9.93727e-09
-1.15526e-10
9.9731e-09
-1.08851e-10
1.00068e-08
-1.02469e-10
1.00385e-08
-9.63652e-11
1.00684e-08
-9.05257e-11
1.00963e-08
-8.49382e-11
1.01225e-08
-7.95902e-11
1.0147e-08
-7.44708e-11
1.01699e-08
-6.95691e-11
1.01913e-08
-6.4875e-11
1.02112e-08
-6.03789e-11
1.02296e-08
-5.60723e-11
1.02467e-08
-5.19464e-11
1.02625e-08
-4.79931e-11
1.0277e-08
-4.42054e-11
1.02904e-08
-4.05757e-11
1.03025e-08
-3.70973e-11
1.03136e-08
-3.3764e-11
1.03237e-08
-3.05695e-11
1.03327e-08
-2.75081e-11
1.03407e-08
-2.45742e-11
1.03479e-08
-2.17626e-11
1.03541e-08
-1.90683e-11
1.03595e-08
-1.64863e-11
1.0364e-08
-1.40123e-11
1.03678e-08
-1.16415e-11
1.03709e-08
-9.37e-12
1.03732e-08
-7.19362e-12
1.03748e-08
-5.10849e-12
1.03757e-08
-3.11068e-12
1.03761e-08
-1.19677e-12
1.03758e-08
6.36814e-13
1.03749e-08
2.39351e-12
1.03735e-08
4.07625e-12
1.03715e-08
5.68855e-12
1.03691e-08
7.2332e-12
1.03661e-08
8.71311e-12
1.03627e-08
1.01313e-11
1.03588e-08
1.14902e-11
1.03545e-08
1.27926e-11
1.03498e-08
1.40409e-11
1.03447e-08
1.52378e-11
1.03392e-08
1.63853e-11
1.03333e-08
1.7486e-11
1.03271e-08
1.85419e-11
1.03206e-08
1.95552e-11
1.03137e-08
2.0528e-11
1.03065e-08
2.14622e-11
1.0299e-08
2.23596e-11
1.02913e-08
2.32223e-11
1.02832e-08
2.40518e-11
1.02749e-08
2.48501e-11
1.02664e-08
2.56185e-11
1.02576e-08
2.63586e-11
1.02485e-08
2.70723e-11
1.02393e-08
2.77608e-11
1.02298e-08
2.84253e-11
1.02201e-08
2.90674e-11
1.02102e-08
2.96885e-11
1.02001e-08
3.02896e-11
1.01898e-08
3.08718e-11
1.01793e-08
3.14367e-11
1.01686e-08
3.19848e-11
1.01578e-08
3.25175e-11
1.01467e-08
3.30358e-11
1.01355e-08
3.35407e-11
1.01242e-08
3.40327e-11
1.01127e-08
3.45132e-11
1.0101e-08
3.49826e-11
1.00892e-08
3.54421e-11
1.00772e-08
3.58921e-11
1.00651e-08
3.63335e-11
1.00529e-08
3.6767e-11
1.00405e-08
3.71933e-11
1.00279e-08
3.76128e-11
1.00152e-08
3.80265e-11
1.00024e-08
3.84347e-11
9.98948e-09
3.8838e-11
9.9764e-09
3.92368e-11
9.96319e-09
3.9632e-11
9.94984e-09
4.00239e-11
9.93637e-09
4.0413e-11
9.92277e-09
4.07999e-11
9.90904e-09
4.11849e-11
9.89518e-09
4.15687e-11
9.8812e-09
4.19519e-11
9.86708e-09
4.2335e-11
9.85284e-09
4.27186e-11
9.83848e-09
4.31034e-11
9.82398e-09
4.34901e-11
9.80935e-09
4.38796e-11
9.7946e-09
4.42732e-11
9.77971e-09
4.46718e-11
9.76468e-09
4.50771e-11
9.74952e-09
4.54907e-11
9.73421e-09
4.59149e-11
9.71877e-09
4.63525e-11
9.70317e-09
4.68069e-11
9.68741e-09
4.72824e-11
9.67149e-09
4.77845e-11
9.65539e-09
4.83201e-11
9.63909e-09
4.88982e-11
9.62259e-09
4.953e-11
9.60586e-09
5.02302e-11
9.58887e-09
5.10176e-11
9.57159e-09
5.19168e-11
9.55396e-09
5.29596e-11
9.53593e-09
5.4188e-11
9.51742e-09
5.56572e-11
9.49833e-09
5.74406e-11
9.47852e-09
5.96368e-11
9.45782e-09
6.23795e-11
9.436e-09
6.58523e-11
9.41273e-09
7.03123e-11
9.38759e-09
7.6126e-11
9.35998e-09
8.383e-11
9.32906e-09
9.42361e-11
9.2936e-09
1.08624e-10
9.25179e-09
1.29117e-10
9.20081e-09
1.59479e-10
9.13625e-09
2.06937e-10
9.05136e-09
2.86755e-10
8.93947e-09
4.34166e-10
7.3177e-10
8.82413e-09
3.12025e-10
-1.2147e-09
6.25551e-10
-1.22081e-09
9.39941e-10
-1.22466e-09
1.25453e-09
-1.22617e-09
1.56864e-09
-1.22529e-09
1.88161e-09
-1.22204e-09
2.19281e-09
-1.21645e-09
2.50164e-09
-1.20858e-09
2.80756e-09
-1.19848e-09
3.11002e-09
-1.18622e-09
3.40849e-09
-1.1718e-09
3.70242e-09
-1.15523e-09
3.99124e-09
-1.13655e-09
4.27438e-09
-1.11577e-09
4.55128e-09
-1.093e-09
4.82144e-09
-1.06834e-09
5.08437e-09
-1.04194e-09
5.33965e-09
-1.01397e-09
5.58692e-09
-9.84619e-10
5.82589e-09
-9.54103e-10
6.05633e-09
-9.22648e-10
6.2781e-09
-8.90491e-10
6.49111e-09
-8.5787e-10
6.69537e-09
-8.25019e-10
6.89093e-09
-7.92163e-10
7.07791e-09
-7.59508e-10
7.25649e-09
-7.27239e-10
7.42687e-09
-6.95518e-10
7.58929e-09
-6.64482e-10
7.74402e-09
-6.34241e-10
7.89134e-09
-6.04883e-10
8.03155e-09
-5.76473e-10
8.16492e-09
-5.49055e-10
8.29176e-09
-5.22657e-10
8.41236e-09
-4.97292e-10
8.52699e-09
-4.7296e-10
8.63592e-09
-4.49651e-10
8.73943e-09
-4.27349e-10
8.83777e-09
-4.06029e-10
8.93117e-09
-3.85663e-10
9.01987e-09
-3.6622e-10
9.10409e-09
-3.47665e-10
9.18404e-09
-3.29964e-10
9.25991e-09
-3.13081e-10
9.33191e-09
-2.9698e-10
9.40021e-09
-2.81624e-10
9.46498e-09
-2.66978e-10
9.52638e-09
-2.5301e-10
9.58457e-09
-2.39684e-10
9.63969e-09
-2.26969e-10
9.69188e-09
-2.14836e-10
9.74128e-09
-2.03253e-10
9.788e-09
-1.92194e-10
9.83217e-09
-1.81632e-10
9.87389e-09
-1.71541e-10
9.91328e-09
-1.61898e-10
9.95044e-09
-1.52681e-10
9.98546e-09
-1.43868e-10
1.00184e-08
-1.35439e-10
1.00494e-08
-1.27376e-10
1.00786e-08
-1.1966e-10
1.01059e-08
-1.12275e-10
1.01315e-08
-1.05205e-10
1.01555e-08
-9.84362e-11
1.01779e-08
-9.19534e-11
1.01987e-08
-8.57438e-11
1.02182e-08
-7.97953e-11
1.02362e-08
-7.40959e-11
1.02529e-08
-6.86349e-11
1.02683e-08
-6.34017e-11
1.02825e-08
-5.83864e-11
1.02955e-08
-5.35797e-11
1.03073e-08
-4.89729e-11
1.03181e-08
-4.45574e-11
1.03279e-08
-4.03253e-11
1.03366e-08
-3.62689e-11
1.03445e-08
-3.23812e-11
1.03513e-08
-2.86549e-11
1.03574e-08
-2.50837e-11
1.03625e-08
-2.16611e-11
1.03669e-08
-1.83813e-11
1.03705e-08
-1.52381e-11
1.03734e-08
-1.22261e-11
1.03755e-08
-9.34022e-12
1.0377e-08
-6.57471e-12
1.03778e-08
-3.92526e-12
1.0378e-08
-1.38654e-12
1.03776e-08
1.04556e-12
1.03766e-08
3.37595e-12
1.03751e-08
5.60859e-12
1.0373e-08
7.7477e-12
1.03704e-08
9.79724e-12
1.03674e-08
1.17611e-11
1.03639e-08
1.36431e-11
1.03599e-08
1.54465e-11
1.03555e-08
1.71751e-11
1.03507e-08
1.88322e-11
1.03456e-08
2.04209e-11
1.034e-08
2.19443e-11
1.03341e-08
2.34057e-11
1.03278e-08
2.48077e-11
1.03212e-08
2.61532e-11
1.03143e-08
2.74451e-11
1.03071e-08
2.86857e-11
1.02996e-08
2.98777e-11
1.02918e-08
3.10235e-11
1.02837e-08
3.21256e-11
1.02753e-08
3.31859e-11
1.02668e-08
3.42069e-11
1.02579e-08
3.51905e-11
1.02489e-08
3.61387e-11
1.02396e-08
3.70537e-11
1.02301e-08
3.79371e-11
1.02203e-08
3.87906e-11
1.02104e-08
3.96162e-11
1.02003e-08
4.04154e-11
1.019e-08
4.11896e-11
1.01795e-08
4.19406e-11
1.01688e-08
4.26697e-11
1.01579e-08
4.33783e-11
1.01469e-08
4.40676e-11
1.01357e-08
4.47393e-11
1.01243e-08
4.53939e-11
1.01128e-08
4.60332e-11
1.01011e-08
4.6658e-11
1.00893e-08
4.72693e-11
1.00773e-08
4.78684e-11
1.00652e-08
4.84559e-11
1.00529e-08
4.90331e-11
1.00405e-08
4.96005e-11
1.0028e-08
5.01592e-11
1.00153e-08
5.07099e-11
1.00025e-08