/*--------------------------------*- C++ -*----------------------------------*\
  =========                 |
  \\      /  F ield         | OpenFOAM: The Open Source CFD Toolbox
   \\    /   O peration     | Website:  https://openfoam.org
    \\  /    A nd           | Version:  10
     \\/     M anipulation  |
\*---------------------------------------------------------------------------*/
FoamFile
{
    format      ascii;
    class       volVectorField;
    location    "1.06";
    object      Ua;
}
// * * * * * * * * * * * * * * * * * * * * * * * * * * * * * * * * * * * * * //

dimensions      [0 1 -1 0 0 0 0];

internalField   nonuniform List<vector> 
12225
(
(4.20532e-05 -5.40267e-06 0)
(0.000122972 -5.06054e-06 0)
(0.000196428 -4.43281e-06 0)
(0.000261284 -3.72602e-06 0)
(0.000318044 -3.07907e-06 0)
(0.000368041 -2.56063e-06 0)
(0.000412844 -2.19387e-06 0)
(0.000453952 -1.98086e-06 0)
(0.000492705 -1.91951e-06 0)
(0.000530301 -2.01459e-06 0)
(0.000567884 -2.2869e-06 0)
(0.000606687 -2.7857e-06 0)
(0.000648256 -3.61326e-06 0)
(0.000694872 -4.98351e-06 0)
(0.000750519 -7.38619e-06 0)
(0.00082362 -1.21526e-05 0)
(0.000937409 -2.40445e-05 0)
(0.00118585 -6.77835e-05 0)
(2.866e-05 -1.40456e-05 0)
(8.4413e-05 -1.32387e-05 0)
(0.000136347 -1.16768e-05 0)
(0.000183618 -9.88239e-06 0)
(0.000226269 -8.21927e-06 0)
(0.00026488 -6.87598e-06 0)
(0.000300259 -5.92334e-06 0)
(0.000333255 -5.37542e-06 0)
(0.000364682 -5.23358e-06 0)
(0.000395312 -5.51636e-06 0)
(0.00042592 -6.28474e-06 0)
(0.000457365 -7.67641e-06 0)
(0.000490734 -9.97185e-06 0)
(0.0005276 -1.37487e-05 0)
(0.000570562 -2.02982e-05 0)
(0.000624409 -3.29607e-05 0)
(0.000697809 -6.24136e-05 0)
(0.000789273 -0.000152983 0)
(2.23517e-05 -1.94072e-05 0)
(6.6246e-05 -1.84598e-05 0)
(0.000108038 -1.64388e-05 0)
(0.000147049 -1.40401e-05 0)
(0.000183134 -1.17734e-05 0)
(0.000216536 -9.92054e-06 0)
(0.000247703 -8.60143e-06 0)
(0.000277169 -7.85354e-06 0)
(0.000305484 -7.69296e-06 0)
(0.000333201 -8.1579e-06 0)
(0.000360892 -9.3465e-06 0)
(0.000389204 -1.14671e-05 0)
(0.000418939 -1.49315e-05 0)
(0.00045119 -2.05637e-05 0)
(0.000487537 -3.01206e-05 0)
(0.000530046 -4.77547e-05 0)
(0.000578965 -8.44678e-05 0)
(0.000614222 -0.000170956 0)
(1.82448e-05 -2.29392e-05 0)
(5.43884e-05 -2.20252e-05 0)
(8.94848e-05 -1.98004e-05 0)
(0.000122978 -1.70606e-05 0)
(0.00015463 -1.44183e-05 0)
(0.000184488 -1.22323e-05 0)
(0.000212782 -1.06707e-05 0)
(0.000239841 -9.7997e-06 0)
(0.000266041 -9.65536e-06 0)
(0.000291779 -1.02976e-05 0)
(0.000317481 -1.18574e-05 0)
(0.000343623 -1.45976e-05 0)
(0.00037077 -1.90196e-05 0)
(0.000399601 -2.60858e-05 0)
(0.000430835 -3.77184e-05 0)
(0.000464592 -5.79616e-05 0)
(0.000497279 -9.54829e-05 0)
(0.000510129 -0.000166298 0)
(1.52435e-05 -2.51535e-05 0)
(4.56958e-05 -2.43887e-05 0)
(7.58151e-05 -2.21319e-05 0)
(0.000105142 -1.92323e-05 0)
(0.000133397 -1.63751e-05 0)
(0.000160503 -1.3983e-05 0)
(0.000186547 -1.22699e-05 0)
(0.000211713 -1.13323e-05 0)
(0.000236244 -1.12289e-05 0)
(0.000260416 -1.2041e-05 0)
(0.000284533 -1.3926e-05 0)
(0.000308926 -1.71832e-05 0)
(0.000333946 -2.23604e-05 0)
(0.000359915 -3.04548e-05 0)
(0.000386889 -4.33021e-05 0)
(0.000413839 -6.42781e-05 0)
(0.000436174 -9.91124e-05 0)
(0.000440569 -0.00015421 0)
(1.29146e-05 -2.63146e-05 0)
(3.89278e-05 -2.57814e-05 0)
(6.51118e-05 -2.36168e-05 0)
(9.10872e-05 -2.06923e-05 0)
(0.00011656 -1.77442e-05 0)
(0.000141382 -1.52468e-05 0)
(0.000165536 -1.34557e-05 0)
(0.000189099 -1.24978e-05 0)
(0.000212211 -1.24541e-05 0)
(0.000235047 -1.34251e-05 0)
(0.000257805 -1.55871e-05 0)
(0.000280684 -1.92566e-05 0)
(0.000303854 -2.49851e-05 0)
(0.000327349 -3.37154e-05 0)
(0.000350781 -4.70257e-05 0)
(0.000372623 -6.74082e-05 0)
(0.000388704 -9.80913e-05 0)
(0.000390633 -0.000140451 0)
(1.10414e-05 -2.65874e-05 0)
(3.34644e-05 -2.63446e-05 0)
(5.64192e-05 -2.43627e-05 0)
(7.9593e-05 -2.15167e-05 0)
(0.000102698 -1.85766e-05 0)
(0.000125544 -1.60576e-05 0)
(0.000148042 -1.42511e-05 0)
(0.00017019 -1.33121e-05 0)
(0.000192043 -1.33426e-05 0)
(0.00021369 -1.44587e-05 0)
(0.000235234 -1.68464e-05 0)
(0.000256763 -2.08205e-05 0)
(0.000278295 -2.68995e-05 0)
(0.000299657 -3.59066e-05 0)
(0.000320221 -4.90787e-05 0)
(0.000338402 -6.80565e-05 0)
(0.000350947 -9.43203e-05 0)
(0.000352938 -0.000127108 0)
(9.49936e-06 -2.609e-05 0)
(2.89492e-05 -2.61769e-05 0)
(4.91887e-05 -2.44412e-05 0)
(6.99612e-05 -2.17518e-05 0)
(9.0999e-05 -1.88995e-05 0)
(0.000112091 -1.64292e-05 0)
(0.000133103 -1.46618e-05 0)
(0.000153969 -1.37763e-05 0)
(0.000174675 -1.38925e-05 0)
(0.000195237 -1.51373e-05 0)
(0.000215677 -1.76976e-05 0)
(0.000235989 -2.18694e-05 0)
(0.000256074 -2.81102e-05 0)
(0.000275631 -3.70878e-05 0)
(0.000293953 -4.96886e-05 0)
(0.000309635 -6.68617e-05 0)
(0.000320363 -8.90354e-05 0)
(0.000323398 -0.000114813 0)
(8.20939e-06 -2.49178e-05 0)
(2.51563e-05 -2.53554e-05 0)
(4.30727e-05 -2.39052e-05 0)
(6.1751e-05 -2.14286e-05 0)
(8.09528e-05 -1.87274e-05 0)
(0.000100464 -1.63657e-05 0)
(0.000120121 -1.46852e-05 0)
(0.000139808 -1.38838e-05 0)
(0.000159455 -1.40948e-05 0)
(0.000179016 -1.54507e-05 0)
(0.000198446 -1.81307e-05 0)
(0.000217661 -2.23993e-05 0)
(0.000236485 -2.86357e-05 0)
(0.000254553 -3.73433e-05 0)
(0.000271185 -4.90982e-05 0)
(0.00028525 -6.43553e-05 0)
(0.0002952 -8.29968e-05 0)
(0.000299569 -0.000103647 0)
(7.11759e-06 -2.31567e-05 0)
(2.19307e-05 -2.39468e-05 0)
(3.78329e-05 -2.27981e-05 0)
(5.46614e-05 -2.05706e-05 0)
(7.22148e-05 -1.80694e-05 0)
(9.02878e-05 -1.58663e-05 0)
(0.000108697 -1.43148e-05 0)
(0.000127292 -1.36248e-05 0)
(0.000145956 -1.39382e-05 0)
(0.000164592 -1.53876e-05 0)
(0.000183097 -1.81378e-05 0)
(0.000201334 -2.2413e-05 0)
(0.000219077 -2.85088e-05 0)
(0.00023595 -3.67751e-05 0)
(0.000251354 -4.75428e-05 0)
(0.000264436 -6.09499e-05 0)
(0.000274205 -7.66496e-05 0)
(0.000279904 -9.35049e-05 0)
(6.1844e-06 -2.08918e-05 0)
(1.91583e-05 -2.20135e-05 0)
(3.32935e-05 -2.11589e-05 0)
(4.84724e-05 -1.91985e-05 0)
(6.45358e-05 -1.69329e-05 0)
(8.12939e-05 -1.49297e-05 0)
(9.85531e-05 -1.35437e-05 0)
(0.000116136 -1.29896e-05 0)
(0.000133888 -1.3412e-05 0)
(0.000151669 -1.49389e-05 0)
(0.000169335 -1.77155e-05 0)
(0.000186708 -2.19225e-05 0)
(0.000203542 -2.77752e-05 0)
(0.00021948 -3.54942e-05 0)
(0.000234026 -4.52335e-05 0)
(0.000246563 -5.69511e-05 0)
(0.000256473 -7.02435e-05 0)
(0.000263382 -8.42406e-05 0)
(5.31338e-06 -1.84184e-05 0)
(1.65803e-05 -1.98121e-05 0)
(2.90986e-05 -1.92108e-05 0)
(4.27908e-05 -1.75043e-05 0)
(5.75261e-05 -1.54808e-05 0)
(7.31197e-05 -1.36933e-05 0)
(8.93645e-05 -1.24888e-05 0)
(0.000106058 -1.20798e-05 0)
(0.000123017 -1.26096e-05 0)
(0.000140069 -1.41982e-05 0)
(0.000157041 -1.69711e-05 0)
(0.000173736 -2.10694e-05 0)
(0.000189906 -2.66427e-05 0)
(0.000205228 -3.38171e-05 0)
(0.000219301 -4.26346e-05 0)
(0.000231672 -5.29665e-05 0)
(0.000241942 -6.44276e-05 0)
(0.000249907 -7.63595e-05 0)
(4.74193e-06 -1.56887e-05 0)
(1.48509e-05 -1.72829e-05 0)
(2.62047e-05 -1.68895e-05 0)
(3.87759e-05 -1.54244e-05 0)
(5.24752e-05 -1.36537e-05 0)
(6.71361e-05 -1.21027e-05 0)
(8.25508e-05 -1.11011e-05 0)
(9.85047e-05 -1.08525e-05 0)
(0.000114793 -1.14943e-05 0)
(0.000131223 -1.31363e-05 0)
(0.0001476 -1.58837e-05 0)
(0.000163716 -1.98424e-05 0)
(0.000179326 -2.51087e-05 0)
(0.000194142 -3.17408e-05 0)
(0.000207839 -3.97135e-05 0)
(0.000220088 -4.88642e-05 0)
(0.00023063 -5.88545e-05 0)
(0.000239363 -6.91856e-05 0)
(4.16709e-06 -1.24089e-05 0)
(1.30848e-05 -1.40958e-05 0)
(2.32147e-05 -1.38557e-05 0)
(3.4614e-05 -1.26344e-05 0)
(4.72398e-05 -1.11535e-05 0)
(6.09385e-05 -9.88899e-06 0)
(7.54961e-05 -9.13804e-06 0)
(9.0683e-05 -9.08677e-06 0)
(0.000106276 -9.86046e-06 0)
(0.000122061 -1.1555e-05 0)
(0.000137829 -1.42528e-05 0)
(0.000153365 -1.80248e-05 0)
(0.000168439 -2.29203e-05 0)
(0.000182802 -2.89453e-05 0)
(0.000196203 -3.60334e-05 0)
(0.000208415 -4.40179e-05 0)
(0.000219281 -5.2622e-05 0)
(0.000228755 -6.1483e-05 0)
(3.56099e-06 -8.63674e-06 0)
(1.12028e-05 -1.01658e-05 0)
(2.00265e-05 -9.96781e-06 0)
(3.02212e-05 -8.97712e-06 0)
(4.17803e-05 -7.82429e-06 0)
(5.45385e-05 -6.90115e-06 0)
(6.82569e-05 -6.45268e-06 0)
(8.2683e-05 -6.6371e-06 0)
(9.75748e-05 -7.56206e-06 0)
(0.000112704 -9.30608e-06 0)
(0.000127856 -1.19289e-05 0)
(0.000142818 -1.54717e-05 0)
(0.000157387 -1.99489e-05 0)
(0.000171362 -2.53344e-05 0)
(0.000184559 -3.15456e-05 0)
(0.000196828 -3.84329e-05 0)
(0.000208076 -4.57826e-05 0)
(0.000218281 -5.33379e-05 0)
(2.79625e-06 -4.49944e-06 0)
(8.88242e-06 -5.40305e-06 0)
(1.62505e-05 -5.09676e-06 0)
(2.52491e-05 -4.32888e-06 0)
(3.58429e-05 -3.55201e-06 0)
(4.77854e-05 -3.02822e-06 0)
(6.07569e-05 -2.93003e-06 0)
(7.44567e-05 -3.38019e-06 0)
(8.86326e-05 -4.46749e-06 0)
(0.000103073 -6.25548e-06 0)
(0.000117591 -8.79005e-06 0)
(0.000132014 -1.20927e-05 0)
(0.000146179 -1.61577e-05 0)
(0.000159931 -2.09436e-05 0)
(0.000173129 -2.63675e-05 0)
(0.000185664 -3.23032e-05 0)
(0.000197461 -3.85887e-05 0)
(0.000208493 -4.50418e-05 0)
(1.41128e-06 1.68333e-08 0)
(4.91334e-06 3.45081e-07 0)
(1.02249e-05 8.04987e-07 0)
(1.773e-05 1.27683e-06 0)
(2.71715e-05 1.62948e-06 0)
(3.81814e-05 1.72634e-06 0)
(5.0427e-05 1.44718e-06 0)
(6.36115e-05 6.97902e-07 0)
(7.74649e-05 -5.89461e-07 0)
(9.17453e-05 -2.4824e-06 0)
(0.000106289 -5.07998e-06 0)
(0.000120935 -8.28611e-06 0)
(0.000135481 -1.20846e-05 0)
(0.000149756 -1.64281e-05 0)
(0.000163615 -2.12395e-05 0)
(0.000176947 -2.64159e-05 0)
(0.000189676 -3.18354e-05 0)
(0.000201758 -3.73679e-05 0)
(3.31479e-06 5.38275e-06 0)
(1.01454e-05 7.28729e-06 0)
(1.76373e-05 8.14389e-06 0)
(2.61893e-05 8.41328e-06 0)
(3.59695e-05 8.31193e-06 0)
(4.69521e-05 7.87527e-06 0)
(5.89865e-05 7.07254e-06 0)
(7.18658e-05 5.86287e-06 0)
(8.53695e-05 4.21449e-06 0)
(9.92817e-05 2.08706e-06 0)
(0.000113358 -5.9436e-07 0)
(0.000127406 -3.80128e-06 0)
(0.000141384 -7.57879e-06 0)
(0.000155223 -1.17006e-05 0)
(0.00016878 -1.61043e-05 0)
(0.000181944 -2.07125e-05 0)
(0.000194641 -2.54393e-05 0)
(0.000206822 -3.01974e-05 0)
(4.61373e-06 1.27356e-05 0)
(1.41518e-05 1.5658e-05 0)
(2.4323e-05 1.69827e-05 0)
(3.51779e-05 1.71905e-05 0)
(4.67749e-05 1.66534e-05 0)
(5.9115e-05 1.55887e-05 0)
(7.21305e-05 1.41071e-05 0)
(8.57021e-05 1.22613e-05 0)
(9.96829e-05 1.00782e-05 0)
(0.000113917 7.5763e-06 0)
(0.000128255 4.77395e-06 0)
(0.00014254 1.61089e-06 0)
(0.000156571 -1.95163e-06 0)
(0.000170233 -5.82868e-06 0)
(0.000183529 -9.88694e-06 0)
(0.000196427 -1.4002e-05 0)
(0.000208884 -1.81209e-05 0)
(0.000220869 -2.2192e-05 0)
(5.24744e-06 2.08225e-05 0)
(1.61997e-05 2.37252e-05 0)
(2.79947e-05 2.49988e-05 0)
(4.05212e-05 2.49657e-05 0)
(5.37057e-05 2.39943e-05 0)
(6.74694e-05 2.23722e-05 0)
(8.17105e-05 2.02945e-05 0)
(9.63058e-05 1.78849e-05 0)
(0.000111121 1.52208e-05 0)
(0.000126022 1.23526e-05 0)
(0.000140881 9.31726e-06 0)
(0.000155583 6.14589e-06 0)
(0.000170031 2.86924e-06 0)
(0.000184097 -6.15498e-07 0)
(0.000197682 -4.29593e-06 0)
(0.000210792 -8.00725e-06 0)
(0.000223439 -1.1643e-05 0)
(0.000235603 -1.51753e-05 0)
(6.23141e-06 2.769e-05 0)
(1.91347e-05 3.00301e-05 0)
(3.28475e-05 3.08374e-05 0)
(4.72307e-05 3.03469e-05 0)
(6.21553e-05 2.8899e-05 0)
(7.74968e-05 2.67951e-05 0)
(9.31278e-05 2.426e-05 0)
(0.000108918 2.14474e-05 0)
(0.000124739 1.84574e-05 0)
(0.000140469 1.53546e-05 0)
(0.000156 1.21827e-05 0)
(0.000171238 8.97357e-06 0)
(0.000186103 5.75354e-06 0)
(0.000200535 2.54669e-06 0)
(0.000214451 -7.32752e-07 0)
(0.000227795 -4.12079e-06 0)
(0.000240587 -7.42134e-06 0)
(0.000252852 -1.05811e-05 0)
(7.43409e-06 3.31687e-05 0)
(2.26735e-05 3.48455e-05 0)
(3.85969e-05 3.50658e-05 0)
(5.50669e-05 3.40488e-05 0)
(7.19258e-05 3.21223e-05 0)
(8.90187e-05 2.95897e-05 0)
(0.000106199 2.66862e-05 0)
(0.000123329 2.35762e-05 0)
(0.000140287 2.0368e-05 0)
(0.000156963 1.71302e-05 0)
(0.000173265 1.39057e-05 0)
(0.00018912 1.07229e-05 0)
(0.00020447 7.6016e-06 0)
(0.000219272 4.55782e-06 0)
(0.000233501 1.60518e-06 0)
(0.000247092 -1.37222e-06 0)
(0.000260045 -4.36385e-06 0)
(0.000272413 -7.19234e-06 0)
(8.88711e-06 3.6933e-05 0)
(2.69318e-05 3.79772e-05 0)
(4.54641e-05 3.76174e-05 0)
(6.43453e-05 3.60976e-05 0)
(8.34005e-05 3.37481e-05 0)
(0.000102457 3.08723e-05 0)
(0.00012136 2.77051e-05 0)
(0.000139972 2.44108e-05 0)
(0.00015818 2.10956e-05 0)
(0.000175894 1.78244e-05 0)
(0.000193041 1.46351e-05 0)
(0.000209569 1.15491e-05 0)
(0.000225442 8.57892e-06 0)
(0.000240641 5.73213e-06 0)
(0.000255156 3.01412e-06 0)
(0.000268992 4.17348e-07 0)
(0.000282112 -2.21614e-06 0)
(0.000294538 -4.73036e-06 0)
(1.0635e-05 3.88487e-05 0)
(3.2047e-05 3.93418e-05 0)
(5.36822e-05 3.84798e-05 0)
(7.53864e-05 3.6545e-05 0)
(9.69707e-05 3.38761e-05 0)
(0.000118255 3.07736e-05 0)
(0.000139087 2.74659e-05 0)
(0.000159341 2.41094e-05 0)
(0.000178924 2.0802e-05 0)
(0.000197768 1.76001e-05 0)
(0.000215829 1.45333e-05 0)
(0.00023308 1.16152e-05 0)
(0.000249512 8.85039e-06 0)
(0.000265127 6.23904e-06 0)
(0.00027994 3.77948e-06 0)
(0.000293971 1.46929e-06 0)
(0.000307223 -7.6287e-07 0)
(0.000319725 -2.97038e-06 0)
(1.27464e-05 3.88798e-05 0)
(3.82206e-05 3.89241e-05 0)
(6.3575e-05 3.76782e-05 0)
(8.86217e-05 3.54583e-05 0)
(0.000113158 3.26081e-05 0)
(0.000137007 2.94202e-05 0)
(0.000160029 2.61104e-05 0)
(0.000182127 2.28213e-05 0)
(0.000203239 1.96385e-05 0)
(0.000223332 1.66076e-05 0)
(0.000242395 1.37487e-05 0)
(0.000260435 1.10671e-05 0)
(0.000277472 8.56042e-06 0)
(0.000293537 6.22266e-06 0)
(0.000308666 4.04662e-06 0)
(0.000322902 2.02501e-06 0)
(0.000336291 1.42525e-07 0)
(0.000348848 -1.73842e-06 0)
(1.53329e-05 3.70249e-05 0)
(4.57769e-05 3.67333e-05 0)
(7.56565e-05 3.52468e-05 0)
(0.00010473 3.29005e-05 0)
(0.000132782 3.00324e-05 0)
(0.000159645 2.69189e-05 0)
(0.000185216 2.37564e-05 0)
(0.000209439 2.06699e-05 0)
(0.0002323 1.77299e-05 0)
(0.000253812 1.49702e-05 0)
(0.000274011 1.24016e-05 0)
(0.000292945 1.00223e-05 0)
(0.00031067 7.82414e-06 0)
(0.000327247 5.79664e-06 0)
(0.000342741 3.92882e-06 0)
(0.000357218 2.21024e-06 0)
(0.000370743 6.31286e-07 0)
(0.000383356 -9.04147e-07 0)
(1.85931e-05 3.32631e-05 0)
(5.52929e-05 3.27566e-05 0)
(9.0842e-05 3.11922e-05 0)
(0.000124922 2.8901e-05 0)
(0.000157302 2.61994e-05 0)
(0.000187845 2.33359e-05 0)
(0.000216501 2.04809e-05 0)
(0.00024328 1.77378e-05 0)
(0.000268236 1.51611e-05 0)
(0.00029145 1.27728e-05 0)
(0.000313014 1.0576e-05 0)
(0.000333029 8.56341e-06 0)
(0.000351597 6.7232e-06 0)
(0.000368815 5.04226e-06 0)
(0.000384782 3.50774e-06 0)
(0.000399588 2.10783e-06 0)
(0.000413322 8.31779e-07 0)
(0.000426054 -3.69257e-07 0)
(2.29359e-05 2.74806e-05 0)
(6.79597e-05 2.68911e-05 0)
(0.000111027 2.54332e-05 0)
(0.00015171 2.3405e-05 0)
(0.000189764 2.10791e-05 0)
(0.000225106 1.86621e-05 0)
(0.00025777 1.62905e-05 0)
(0.000287867 1.40433e-05 0)
(0.000315551 1.19582e-05 0)
(0.000340993 1.00474e-05 0)
(0.000364366 8.30804e-06 0)
(0.00038584 6.73007e-06 0)
(0.000405573 5.30042e-06 0)
(0.000423714 4.00564e-06 0)
(0.000440398 2.83312e-06 0)
(0.00045575 1.77149e-06 0)
(0.000469884 8.1068e-07 0)
(0.000482905 -6.80128e-08 0)
(2.946e-05 1.9303e-05 0)
(8.69872e-05 1.87849e-05 0)
(0.000141339 1.76577e-05 0)
(0.000191923 1.61474e-05 0)
(0.000238487 1.44533e-05 0)
(0.00028104 1.27219e-05 0)
(0.00031976 1.10465e-05 0)
(0.000354919 9.47805e-06 0)
(0.000386823 8.03864e-06 0)
(0.000415782 6.73265e-06 0)
(0.00044209 5.55479e-06 0)
(0.000466016 4.49528e-06 0)
(0.0004878 3.54294e-06 0)
(0.00050766 2.68678e-06 0)
(0.000525784 1.91675e-06 0)
(0.000542343 1.22398e-06 0)
(0.000557488 6.00752e-07 0)
(0.000571354 4.052e-08 0)
(4.45842e-05 7.28698e-06 0)
(0.000131236 7.06729e-06 0)
(0.000212213 6.61803e-06 0)
(0.000286608 6.02848e-06 0)
(0.000354177 5.37582e-06 0)
(0.000415139 4.71559e-06 0)
(0.000469978 4.08223e-06 0)
(0.000519292 3.49386e-06 0)
(0.000563703 2.95767e-06 0)
(0.000603796 2.47431e-06 0)
(0.000640098 2.04095e-06 0)
(0.000673073 1.65328e-06 0)
(0.00070312 1.30658e-06 0)
(0.000730583 9.96356e-07 0)
(0.000755757 7.18544e-07 0)
(0.000778894 4.69603e-07 0)
(0.000800212 2.46477e-07 0)
(0.000819901 4.65338e-08 0)
(0.000131866 -0.000281857 -3.64136e-30)
(0.000396572 -0.000281256 3.63046e-30)
(0.000662651 -0.000280168 0)
(0.00092964 -0.00027859 0)
(0.00119707 -0.000276524 0)
(0.00146445 -0.000273975 -3.52375e-30)
(0.0017313 -0.000270951 0)
(0.00199713 -0.000267464 0)
(0.00226146 -0.000263529 0)
(0.00252379 -0.000259161 0)
(0.00278365 -0.000254379 3.25492e-30)
(0.00304057 -0.000249203 0)
(0.0032941 -0.000243654 0)
(0.00354378 -0.000237756 0)
(0.00378918 -0.000231538 0)
(0.0040299 -0.000225029 2.86086e-30)
(0.00426555 -0.000218263 0)
(0.00449577 -0.000211277 0)
(0.00472025 -0.00020411 0)
(0.00493871 -0.000196804 0)
(0.00515088 -0.000189401 0)
(0.00535659 -0.000181944 0)
(0.00555566 -0.000174475 0)
(0.00574798 -0.000167037 2.09104e-30)
(0.00593349 -0.000159666 -1.9936e-30)
(0.00611216 -0.000152401 1.89758e-30)
(0.00628401 -0.000145273 1.80343e-30)
(0.00644908 -0.000138311 0)
(0.00660746 -0.000131538 0)
(0.00675927 -0.000124976 -1.53548e-30)
(0.00690464 -0.000118639 -1.45187e-30)
(0.00704374 -0.00011254 0)
(0.00717675 -0.000106685 0)
(0.00730385 -0.000101079 -1.2202e-30)
(0.00742525 -9.57242e-05 0)
(0.00754116 -9.0618e-05 0)
(0.00765179 -8.57575e-05 1.01806e-30)
(0.00775734 -8.11373e-05 0)
(0.00785803 -7.6751e-05 8.99221e-31)
(0.00795407 -7.25908e-05 1.68864e-30)
(0.00804565 -6.86484e-05 0)
(0.00813299 -6.49148e-05 0)
(0.00821626 -6.13809e-05 0)
(0.00829566 -5.80373e-05 0)
(0.00837137 -5.48748e-05 0)
(0.00844355 -5.18841e-05 1.14182e-30)
(0.00851237 -4.90562e-05 1.0671e-30)
(0.00857798 -4.63825e-05 9.96439e-31)
(0.00864054 -4.38545e-05 0)
(0.00870019 -4.14641e-05 -8.66418e-31)
(0.00875706 -3.92038e-05 0)
(0.00881128 -3.7066e-05 7.50108e-31)
(0.00886298 -3.50441e-05 6.96617e-31)
(0.00891227 -3.31312e-05 0)
(0.00895927 -3.13213e-05 0)
(0.00900407 -2.96086e-05 0)
(0.00904677 -2.79875e-05 5.09873e-31)
(0.00908748 -2.64528e-05 0)
(0.00912628 -2.49997e-05 0)
(0.00916326 -2.36237e-05 0)
(0.00919849 -2.23205e-05 0)
(0.00923206 -2.1086e-05 0)
(0.00926404 -1.99166e-05 0)
(0.00929451 -1.88086e-05 0)
(0.00932351 -1.77589e-05 0)
(0.00935114 -1.67642e-05 -2.1257e-31)
(0.00937743 -1.58216e-05 0)
(0.00940245 -1.49285e-05 0)
(0.00942626 -1.40823e-05 1.41473e-31)
(0.00944891 -1.32805e-05 1.20207e-31)
(0.00947044 -1.25208e-05 0)
(0.00949092 -1.18011e-05 -8.09781e-32)
(0.00951038 -1.11193e-05 6.28941e-32)
(0.00952887 -1.04736e-05 0)
(0.00954644 -9.86219e-06 -2.95456e-32)
(0.00956311 -9.28325e-06 0)
(0.00957894 -8.73522e-06 0)
(0.00959396 -8.21655e-06 -1.41123e-32)
(0.00960821 -7.72579e-06 0)
(0.00962172 -7.26155e-06 3.94547e-32)
(0.00963453 -6.82253e-06 0)
(0.00964666 -6.40747e-06 -6.21235e-32)
(0.00965815 -6.01518e-06 -7.25336e-32)
(0.00966903 -5.64454e-06 -8.2371e-32)
(0.00967932 -5.29447e-06 -1.83323e-31)
(0.00968906 -4.96395e-06 2.00875e-31)
(0.00969826 -4.65199e-06 0)
(0.00970696 -4.35768e-06 0)
(0.00971518 -4.08011e-06 0)
(0.00972294 -3.81844e-06 2.61693e-31)
(0.00973026 -3.57186e-06 2.74788e-31)
(0.00973717 -3.3396e-06 -2.8712e-31)
(0.00974368 -3.12093e-06 0)
(0.00974982 -2.91515e-06 3.09661e-31)
(0.0097556 -2.72157e-06 3.19946e-31)
(0.00976105 -2.53956e-06 3.29612e-31)
(0.00976617 -2.36852e-06 0)
(0.00977099 -2.20786e-06 0)
(0.00977552 -2.05701e-06 0)
(0.00977978 -1.91546e-06 3.62762e-31)
(0.00978377 -1.7827e-06 0)
(0.00978753 -1.65825e-06 0)
(0.00979105 -1.54164e-06 -3.82616e-31)
(0.00979435 -1.43244e-06 0)
(0.00979744 -1.33024e-06 0)
(0.00980034 -1.23463e-06 -3.98929e-31)
(0.00980305 -1.14525e-06 0)
(0.00980558 -1.06173e-06 0)
(0.00980795 -9.83731e-07 4.12259e-31)
(0.00981017 -9.1093e-07 4.16128e-31)
(0.00981224 -8.43019e-07 0)
(0.00981417 -7.79708e-07 -4.23103e-31)
(0.00981597 -7.20719e-07 0)
(0.00981765 -6.65789e-07 4.29155e-31)
(0.00981922 -6.14669e-07 0)
(0.00982068 -5.67124e-07 4.34401e-31)
(0.00982203 -5.2293e-07 4.36745e-31)
(0.00982329 -4.81877e-07 0)
(0.00982447 -4.43764e-07 0)
(0.00982556 -4.08403e-07 0)
(0.00982657 -3.75615e-07 0)
(0.00982751 -3.45231e-07 0)
(0.00982837 -3.17093e-07 0)
(0.00982918 -2.91051e-07 0)
(0.00982993 -2.66963e-07 4.50356e-31)
(0.00983062 -2.44696e-07 -4.51535e-31)
(0.00983125 -2.24124e-07 0)
(0.00983184 -2.05129e-07 0)
(0.00983239 -1.876e-07 0)
(0.00983289 -1.7143e-07 0)
(0.00983335 -1.56522e-07 -9.12446e-31)
(0.00983378 -1.42781e-07 0)
(0.00983417 -1.30119e-07 9.15255e-31)
(0.00983453 -1.18453e-07 -9.16496e-31)
(0.00983486 -1.07702e-07 0)
(0.00983516 -9.77929e-08 0)
(0.00983544 -8.86517e-08 0)
(0.0098357 -8.0209e-08 9.20565e-31)
(0.00983593 -7.23977e-08 9.21394e-31)
(0.00983614 -6.51514e-08 0)
(0.00983633 -5.84044e-08 9.22875e-31)
(0.0098365 -5.20907e-08 9.23541e-31)
(0.00983666 -4.61423e-08 -9.24175e-31)
(0.00983679 -4.04885e-08 0)
(0.00983691 -3.50536e-08 0)
(0.00983702 -2.97551e-08 -9.25904e-31)
(0.00983711 -2.45012e-08 0)
(0.00983718 -1.91873e-08 0)
(0.00983723 -1.3692e-08 0)
(0.00983727 -7.87233e-09 0)
(0.00983729 -1.5568e-09 9.28843e-31)
(0.00983728 5.46223e-09 9.29569e-31)
(0.00983725 1.34395e-08 0)
(0.00983718 2.26895e-08 9.31342e-31)
(0.00983708 3.36041e-08 0)
(0.00983694 4.66742e-08 0)
(0.00983675 6.25184e-08 9.35419e-31)
(0.00983648 8.19199e-08 0)
(0.00983614 1.05875e-07 9.39846e-31)
(0.0098357 1.35655e-07 0)
(0.00983512 1.72895e-07 0)
(0.00983438 2.197e-07 9.51447e-31)
(0.00983344 2.788e-07 0)
(0.00983223 3.53754e-07 9.65103e-31)
(0.00983067 4.49236e-07 0)
(0.00982868 5.71434e-07 0)
(0.00982612 7.28619e-07 0)
(0.00982282 9.31981e-07 -1.024e-30)
(0.00981854 1.19688e-06 0)
(0.00981298 1.5448e-06 1.08644e-30)
(0.00980571 2.00645e-06 0)
(0.00979613 2.6271e-06 0)
(0.00978339 3.47586e-06 0)
(0.00976623 4.66351e-06 0)
(0.00974273 6.37904e-06 0)
(0.00970973 8.9733e-06 0)
(0.00966165 1.31792e-05 0)
(0.00958714 2.08147e-05 -6.11515e-30)
(0.00945758 3.77082e-05 0)
(0.00917043 9.06793e-05 0)
(0.000132885 -0.00084775 1.09522e-29)
(0.000399629 -0.000845925 -1.09191e-29)
(0.000667732 -0.000842624 0)
(0.000936717 -0.000837837 2.16133e-29)
(0.00120609 -0.00083157 0)
(0.00147537 -0.000823839 -1.06304e-29)
(0.00174404 -0.000814674 -2.09764e-29)
(0.00201161 -0.000804113 -2.06908e-29)
(0.00227758 -0.000792203 0)
(0.00254146 -0.000778992 -2.00164e-29)
(0.00280278 -0.000764535 9.84829e-30)
(0.00306105 -0.00074889 0)
(0.00331581 -0.000732122 0)
(0.0035666 -0.000714301 0)
(0.00381299 -0.000695511 0)
(0.00405456 -0.000675842 8.68719e-30)
(0.00429091 -0.000655398 0)
(0.00452168 -0.00063429 1.61825e-29)
(0.00474655 -0.000612639 0)
(0.00496523 -0.000590571 0)
(0.00517747 -0.000568216 -1.44435e-29)
(0.00538309 -0.000545707 0)
(0.00558192 -0.000523173 1.32601e-29)
(0.00577387 -0.00050074 6.40375e-30)
(0.00595887 -0.000478526 -6.11446e-30)
(0.00613692 -0.000456642 5.82951e-30)
(0.00630805 -0.000435185 5.55017e-30)
(0.00647233 -0.000414241 0)
(0.00662985 -0.000393882 0)
(0.00678075 -0.000374168 -4.75595e-30)
(0.00692518 -0.000355142 -1.33616e-29)
(0.00706332 -0.00033684 0)
(0.00719537 -0.000319281 0)
(0.00732151 -0.000302479 -3.82301e-30)
(0.00744197 -0.000286433 0)
(0.00755696 -0.00027114 0)
(0.00766669 -0.000256588 3.22581e-30)
(0.00777137 -0.000242759 0)
(0.00787124 -0.000229633 8.43921e-30)
(0.00796648 -0.000217186 5.42605e-30)
(0.00805732 -0.000205393 0)
(0.00814394 -0.000194226 0)
(0.00822654 -0.000183657 -8.71794e-30)
(0.0083053 -0.000173658 -8.19357e-30)
(0.00838041 -0.000164201 -7.69756e-30)
(0.00845202 -0.000155258 1.10422e-29)
(0.00852031 -0.000146802 3.59357e-30)
(0.00858543 -0.000138806 -2.97996e-30)
(0.00864753 -0.000131246 5.96863e-30)
(0.00870674 -0.000124098 -3.0023e-30)
(0.0087632 -0.000117338 0)
(0.00881704 -0.000110945 2.65969e-30)
(0.00886839 -0.000104897 7.08769e-30)
(0.00891734 -9.91756e-05 0)
(0.00896402 -9.37618e-05 0)
(0.00900853 -8.86381e-05 0)
(0.00905096 -8.37882e-05 1.95219e-30)
(0.00909141 -7.91967e-05 0)
(0.00912997 -7.4849e-05 3.00739e-30)
(0.00916672 -7.07317e-05 0)
(0.00920175 -6.68318e-05 2.58614e-30)
(0.00923512 -6.31376e-05 0)
(0.00926692 -5.96377e-05 -2.20805e-30)
(0.0092972 -5.63217e-05 0)
(0.00932605 -5.31796e-05 1.86859e-30)
(0.00935352 -5.02023e-05 -2.78894e-30)
(0.00937966 -4.73809e-05 0)
(0.00940455 -4.47073e-05 -1.42318e-30)
(0.00942823 -4.21739e-05 8.67577e-31)
(0.00945076 -3.97733e-05 8.04988e-31)
(0.00947219 -3.74989e-05 0)
(0.00949256 -3.5344e-05 -1.6203e-30)
(0.00951192 -3.33028e-05 6.36286e-31)
(0.00953031 -3.13694e-05 0)
(0.00954779 -2.95385e-05 -5.38133e-31)
(0.00956438 -2.78048e-05 -5.34243e-31)
(0.00958014 -2.61637e-05 0)
(0.00959508 -2.46105e-05 4.09635e-31)
(0.00960926 -2.31408e-05 0)
(0.00962271 -2.17505e-05 -1.19321e-31)
(0.00963545 -2.04357e-05 0)
(0.00964752 -1.91927e-05 1.87196e-31)
(0.00965896 -1.80178e-05 2.37707e-31)
(0.00966979 -1.69077e-05 1.69678e-31)
(0.00968003 -1.58592e-05 1.74326e-31)
(0.00968972 -1.48693e-05 -1.8489e-32)
(0.00969888 -1.39349e-05 0)
(0.00970754 -1.30534e-05 0)
(0.00971572 -1.2222e-05 0)
(0.00972345 -1.14383e-05 -7.8604e-31)
(0.00973074 -1.06997e-05 -9.36891e-32)
(0.00973761 -1.0004e-05 5.74003e-32)
(0.0097441 -9.34902e-06 0)
(0.00975021 -8.73261e-06 9.47554e-31)
(0.00975596 -8.15277e-06 3.91764e-32)
(0.00976138 -7.60759e-06 6.76173e-32)
(0.00976648 -7.09524e-06 0)
(0.00977128 -6.61397e-06 0)
(0.00977579 -6.16213e-06 0)
(0.00978003 -5.73812e-06 1.65147e-31)
(0.00978401 -5.34043e-06 0)
(0.00978774 -4.96762e-06 1.33501e-30)
(0.00979125 -4.61832e-06 1.14822e-30)
(0.00979453 -4.29121e-06 -1.40624e-30)
(0.00979761 -3.98505e-06 0)
(0.0098005 -3.69866e-06 -1.74018e-30)
(0.0098032 -3.4309e-06 0)
(0.00980572 -3.1807e-06 -1.52317e-30)
(0.00980808 -2.94705e-06 1.85854e-30)
(0.00981029 -2.72896e-06 1.89289e-30)
(0.00981235 -2.52552e-06 0)
(0.00981427 -2.33586e-06 1.26948e-30)
(0.00981607 -2.15915e-06 -1.63074e-30)
(0.00981774 -1.9946e-06 3.60461e-31)
(0.0098193 -1.84146e-06 0)
(0.00982075 -1.69902e-06 3.75886e-31)
(0.0098221 -1.56663e-06 -1.31037e-30)
(0.00982336 -1.44365e-06 0)
(0.00982452 -1.32947e-06 -1.71813e-30)
(0.00982561 -1.22354e-06 -1.72929e-30)
(0.00982662 -1.12531e-06 -1.73964e-30)
(0.00982755 -1.03429e-06 0)
(0.00982842 -9.49991e-07 0)
(0.00982922 -8.71974e-07 0)
(0.00982996 -7.99811e-07 2.19674e-30)
(0.00983065 -7.33103e-07 -4.26286e-31)
(0.00983128 -6.71473e-07 0)
(0.00983187 -6.14568e-07 1.79344e-30)
(0.00983241 -5.62052e-07 1.79897e-30)
(0.00983291 -5.13611e-07 0)
(0.00983337 -4.68947e-07 -8.80144e-31)
(0.0098338 -4.27782e-07 3.62624e-30)
(0.00983419 -3.89849e-07 8.88402e-31)
(0.00983455 -3.54899e-07 -4.53364e-30)
(0.00983487 -3.22694e-07 0)
(0.00983518 -2.93007e-07 0)
(0.00983545 -2.65623e-07 0)
(0.00983571 -2.40333e-07 9.0401e-31)
(0.00983594 -2.16934e-07 4.57709e-30)
(0.00983615 -1.95229e-07 3.67521e-30)
(0.00983634 -1.7502e-07 9.10818e-31)
(0.00983651 -1.56111e-07 4.59622e-30)
(0.00983666 -1.38298e-07 -9.14647e-31)
(0.0098368 -1.21369e-07 0)
(0.00983692 -1.05098e-07 0)
(0.00983703 -8.92389e-08 -4.61722e-30)
(0.00983711 -7.35167e-08 0)
(0.00983719 -5.76188e-08 0)
(0.00983724 -4.11828e-08 3.70748e-30)
(0.00983728 -2.37813e-08 0)
(0.00983729 -4.90254e-09 4.6435e-30)
(0.00983729 1.6074e-08 9.30667e-31)
(0.00983726 3.99085e-08 0)
(0.0098372 6.75402e-08 4.66593e-30)
(0.0098371 1.00139e-07 0)
(0.00983696 1.39171e-07 0)
(0.00983677 1.86482e-07 9.48238e-31)
(0.00983651 2.4441e-07 3.76627e-30)
(0.00983617 3.15928e-07 9.61568e-31)
(0.00983573 4.04834e-07 0)
(0.00983517 5.16002e-07 0)
(0.00983444 6.55713e-07 4.84707e-30)
(0.00983351 8.32111e-07 0)
(0.00983232 1.05581e-06 4.97018e-30)
(0.00983079 1.34075e-06 0)
(0.00982883 1.70535e-06 0)
(0.0098263 2.17426e-06 0)
(0.00982305 2.78077e-06 -1.21519e-30)
(0.00981885 3.57055e-06 0)
(0.00981338 4.60737e-06 1.40314e-30)
(0.00980624 5.98229e-06 0)
(0.00979684 7.82908e-06 0)
(0.00978436 1.03514e-05 5.83665e-30)
(0.00976761 1.3874e-05 -6.55877e-30)
(0.00974475 1.89467e-05 0)
(0.00971289 2.65769e-05 0)
(0.0096671 3.88207e-05 0)
(0.00959829 6.05441e-05 1.79588e-29)
(0.00948896 0.000105859 0)
(0.00931646 0.000227931 -1.01309e-28)
(0.00013496 -0.00142026 7.34096e-29)
(0.000405851 -0.00141715 -9.65798e-33)
(0.000678074 -0.00141152 0)
(0.000951116 -0.00140335 2.25306e-32)
(0.00122445 -0.00139266 0)
(0.00149756 -0.00137949 0)
(0.0017699 -0.00136389 -7.03023e-29)
(0.00204096 -0.00134594 -3.46954e-29)
(0.00231024 -0.00132574 3.41057e-29)
(0.00257724 -0.00130336 -3.35692e-29)
(0.00284147 -0.00127889 0)
(0.00310245 -0.00125244 0)
(0.0033597 -0.00122409 -3.14039e-29)
(0.00361275 -0.00119397 -6.12146e-29)
(0.00386113 -0.0011622 5.95369e-29)
(0.00410441 -0.00112894 0)
(0.00434218 -0.00109437 5.59622e-29)
(0.00457405 -0.00105868 2.71502e-29)
(0.00479969 -0.00102208 0)
(0.00501881 -0.000984795 5.02016e-29)
(0.00523116 -0.000947045 -2.42335e-29)
(0.00543657 -0.000909061 -4.62271e-29)
(0.00563488 -0.00087107 2.22505e-29)
(0.00582602 -0.000833288 0)
(0.00600996 -0.00079592 4.02966e-29)
(0.00618672 -0.000759152 3.83707e-29)
(0.00635637 -0.00072315 0)
(0.006519 -0.000688055 3.4648e-29)
(0.00667475 -0.000653988 0)
(0.00682379 -0.000621041 3.11403e-29)
(0.0069663 -0.000589287 -1.49037e-29)
(0.00710249 -0.000558775 0)
(0.00723258 -0.000529535 0)
(0.00735678 -0.000501581 0)
(0.00747533 -0.000474911 0)
(0.00758846 -0.000449511 0)
(0.00769639 -0.000425357 0)
(0.00779935 -0.000402417 1.96996e-29)
(0.00789755 -0.000380653 -9.09377e-30)
(0.00799122 -0.000360023 0)
(0.00808055 -0.000340483 0)
(0.00816575 -0.000321984 0)
(0.008247 -0.00030448 -2.95353e-29)
(0.00832449 -0.000287921 -1.4099e-29)
(0.0083984 -0.00027226 -3.96591e-31)
(0.0084689 -0.000257452 3.99915e-31)
(0.00853613 -0.000243449 -1.13768e-29)
(0.00860026 -0.00023021 -1.10894e-29)
(0.00866143 -0.000217691 2.04638e-29)
(0.00871978 -0.000205853 9.40708e-30)
(0.00877543 -0.000194656 0)
(0.00882851 -0.000184066 8.26536e-30)
(0.00887914 -0.000174048 1.58998e-29)
(0.00892743 -0.000164568 0)
(0.00897349 -0.000155598 0)
(0.00901741 -0.000147107 -6.32784e-30)
(0.0090593 -0.000139068 0)
(0.00909924 -0.000131457 0)
(0.00913732 -0.00012425 1.5819e-29)
(0.00917363 -0.000117423 9.54221e-30)
(0.00920823 -0.000110956 4.86668e-30)
(0.00924121 -0.000104829 0)
(0.00927264 -9.90241e-05 -4.24374e-30)
(0.00930258 -9.35233e-05 0)
(0.0093311 -8.83105e-05 1.01718e-29)