/*--------------------------------*- C++ -*----------------------------------*\
  =========                 |
  \\      /  F ield         | OpenFOAM: The Open Source CFD Toolbox
   \\    /   O peration     | Website:  https://openfoam.org
    \\  /    A nd           | Version:  10
     \\/     M anipulation  |
\*---------------------------------------------------------------------------*/
FoamFile
{
    format      ascii;
    class       volVectorField;
    location    "0.047";
    object      UMean;
}
// * * * * * * * * * * * * * * * * * * * * * * * * * * * * * * * * * * * * * //

dimensions      [0 1 -1 0 0 0 0];

internalField   nonuniform List<vector> 
12225
(
(9.85292 0.0447839 0)
(9.57054 0.060599 0)
(9.27813 0.0582374 0)
(8.97871 0.0565773 0)
(8.68629 0.0555856 0)
(8.40623 0.0546336 0)
(8.1399 0.0529832 0)
(7.88432 0.0520422 0)
(7.64053 0.0499856 0)
(7.40375 0.0501596 0)
(7.17838 0.0472622 0)
(6.95541 0.0503572 0)
(6.7429 0.0448848 0)
(6.52627 0.0555933 0)
(6.31513 0.0423274 0)
(6.09607 0.0725176 0)
(5.86921 0.0328187 0)
(5.64661 0.102942 0)
(10.005 0.051276 0)
(10.0767 0.0736657 0)
(10.1202 0.0725163 0)
(10.1348 0.0729939 0)
(10.1334 0.0757259 0)
(10.1234 0.0778573 0)
(10.1067 0.0798007 0)
(10.0838 0.0807324 0)
(10.0544 0.0828044 0)
(10.02 0.0833146 0)
(9.97967 0.0867428 0)
(9.9361 0.0868209 0)
(9.88602 0.0936474 0)
(9.83375 0.0932755 0)
(9.7726 0.106953 0)
(9.70998 0.105311 0)
(9.63581 0.12352 0)
(9.55339 0.105255 0)
(10.0044 0.0308923 0)
(10.0474 0.0528112 0)
(10.0798 0.0547917 0)
(10.0967 0.0562483 0)
(10.1073 0.0598678 0)
(10.1172 0.0637511 0)
(10.1281 0.0665089 0)
(10.1384 0.0693958 0)
(10.1482 0.0713741 0)
(10.1561 0.0748316 0)
(10.1639 0.0766394 0)
(10.1694 0.0820107 0)
(10.1768 0.0842367 0)
(10.1812 0.0938043 0)
(10.1913 0.0974246 0)
(10.1981 0.111729 0)
(10.2166 0.113567 0)
(10.2292 0.110589 0)
(9.9962 0.0267371 0)
(10.0299 0.0558254 0)
(10.0574 0.0608105 0)
(10.0724 0.061793 0)
(10.081 0.0648253 0)
(10.0887 0.0681907 0)
(10.0973 0.0710479 0)
(10.1063 0.0730131 0)
(10.1153 0.0752921 0)
(10.1238 0.0772533 0)
(10.1322 0.0803234 0)
(10.1408 0.0831167 0)
(10.1505 0.0878094 0)
(10.1615 0.0924941 0)
(10.176 0.0991645 0)
(10.1947 0.105374 0)
(10.2198 0.107318 0)
(10.2502 0.102334 0)
(9.98952 0.0221478 0)
(10.0163 0.0466876 0)
(10.0403 0.0528149 0)
(10.0552 0.0540358 0)
(10.0645 0.0565488 0)
(10.0721 0.0600821 0)
(10.0801 0.0631277 0)
(10.0884 0.0656877 0)
(10.0966 0.0678285 0)
(10.1045 0.0702674 0)
(10.1124 0.072776 0)
(10.1206 0.0760165 0)
(10.1297 0.0796185 0)
(10.1404 0.0840213 0)
(10.1536 0.0885892 0)
(10.1707 0.0916765 0)
(10.1914 0.0913653 0)
(10.2151 0.0812194 0)
(9.97375 0.0168609 0)
(9.99661 0.0418163 0)
(10.0174 0.0510531 0)
(10.0316 0.0537316 0)
(10.0413 0.0564152 0)
(10.0492 0.0599561 0)
(10.0571 0.0632723 0)
(10.0652 0.065858 0)
(10.0733 0.0680558 0)
(10.0812 0.0702185 0)
(10.0889 0.0725576 0)
(10.0971 0.0752242 0)
(10.106 0.078139 0)
(10.1166 0.0812672 0)
(10.1292 0.0837734 0)
(10.1447 0.0845791 0)
(10.1624 0.0812257 0)
(10.1812 0.0710655 0)
(9.98236 0.0169665 0)
(10.0014 0.0369184 0)
(10.0184 0.0462884 0)
(10.0307 0.0493724 0)
(10.0397 0.0516358 0)
(10.0473 0.0547546 0)
(10.0547 0.0579616 0)
(10.0625 0.0606011 0)
(10.0704 0.0627928 0)
(10.0783 0.064896 0)
(10.0862 0.0671109 0)
(10.0945 0.0694322 0)
(10.1035 0.0717926 0)
(10.1137 0.0738284 0)
(10.1255 0.074974 0)
(10.139 0.0740409 0)
(10.1537 0.0696567 0)
(10.1684 0.0604296 0)
(9.98914 0.0116489 0)
(10.0078 0.0315536 0)
(10.0233 0.0424964 0)
(10.0346 0.0471799 0)
(10.0438 0.0500379 0)
(10.0519 0.0530978 0)
(10.0596 0.0562167 0)
(10.0673 0.0588776 0)
(10.075 0.0610174 0)
(10.0828 0.0629094 0)
(10.0906 0.0647619 0)
(10.0987 0.066586 0)
(10.1076 0.068228 0)
(10.1173 0.0693107 0)
(10.1283 0.0692588 0)
(10.1401 0.067203 0)
(10.1524 0.0623039 0)
(10.164 0.0538056 0)
(9.989 0.0118051 0)
(10.0037 0.0285478 0)
(10.0162 0.0384485 0)
(10.0262 0.0432014 0)
(10.0354 0.0459415 0)
(10.0441 0.0486552 0)
(10.0523 0.0515503 0)
(10.0604 0.0542121 0)
(10.0684 0.0564265 0)
(10.0764 0.0582519 0)
(10.0844 0.0598446 0)
(10.0928 0.061203 0)
(10.1018 0.0621787 0)
(10.1115 0.0624159 0)
(10.1219 0.0614888 0)
(10.1328 0.0588101 0)
(10.1433 0.053883 0)
(10.1532 0.0463627 0)
(9.97607 0.0107606 0)
(9.9906 0.024067 0)
(10.002 0.0337383 0)
(10.0108 0.0394902 0)
(10.0195 0.0428947 0)
(10.028 0.0456208 0)
(10.0362 0.0482817 0)
(10.0444 0.0507829 0)
(10.0526 0.052909 0)
(10.0609 0.0546036 0)
(10.0693 0.0558946 0)
(10.0779 0.0567894 0)
(10.0866 0.0571741 0)
(10.0958 0.0568396 0)
(10.1049 0.0554166 0)
(10.1143 0.0525641 0)
(10.1229 0.0479015 0)
(10.1311 0.0414081 0)
(9.96129 0.00871538 0)
(9.97551 0.0215179 0)
(9.986 0.0300646 0)
(9.99395 0.03558 0)
(10.0018 0.0390582 0)
(10.0095 0.0415699 0)
(10.0169 0.0438675 0)
(10.0241 0.0460619 0)
(10.0313 0.0479744 0)
(10.0387 0.049499 0)
(10.0462 0.0506187 0)
(10.0537 0.0513208 0)
(10.0613 0.0514463 0)
(10.0691 0.0508265 0)
(10.0771 0.0491377 0)
(10.0849 0.0462298 0)
(10.0925 0.0418405 0)
(10.0991 0.0361635 0)
(10.0017 0.00890758 0)
(10.0138 0.0188712 0)
(10.0228 0.0267756 0)
(10.0298 0.0323957 0)
(10.0371 0.0361245 0)
(10.0446 0.0388226 0)
(10.0518 0.0411751 0)
(10.0587 0.0433395 0)
(10.0655 0.0451513 0)
(10.0724 0.0464668 0)
(10.0793 0.0472629 0)
(10.0862 0.0475581 0)
(10.0933 0.04726 0)
(10.1002 0.0462424 0)
(10.1072 0.0442882 0)
(10.1136 0.0413289 0)
(10.1198 0.0372282 0)
(10.1244 0.0322308 0)
(9.98543 0.00787123 0)
(9.99781 0.0143022 0)
(10.0064 0.0221684 0)
(10.0128 0.0282183 0)
(10.0197 0.0319523 0)
(10.0271 0.0343714 0)
(10.0347 0.0363785 0)
(10.042 0.038268 0)
(10.0492 0.039912 0)
(10.0563 0.0411646 0)
(10.0635 0.0419272 0)
(10.0708 0.0421629 0)
(10.0781 0.0418047 0)
(10.0854 0.0407662 0)
(10.0926 0.0389244 0)
(10.0992 0.0362586 0)
(10.1053 0.032746 0)
(10.1102 0.0285852 0)
(10.0101 0.00835206 0)
(10.0244 0.0143893 0)
(10.0336 0.0209379 0)
(10.039 0.0259741 0)
(10.0447 0.0293316 0)
(10.0511 0.0317577 0)
(10.058 0.0338435 0)
(10.0648 0.0356869 0)
(10.0716 0.0371411 0)
(10.0784 0.0380702 0)
(10.0853 0.0384234 0)
(10.0922 0.0382085 0)
(10.0991 0.0374105 0)
(10.1056 0.0360558 0)
(10.1118 0.0340885 0)
(10.1172 0.0316034 0)
(10.1221 0.0285359 0)
(10.1258 0.0251836 0)
(9.9993 0.00150214 0)
(10.0121 0.00877024 0)
(10.0197 0.0145168 0)
(10.024 0.0187422 0)
(10.0289 0.0219242 0)
(10.0351 0.0244252 0)
(10.0419 0.0263371 0)
(10.0488 0.0277102 0)
(10.0558 0.0286367 0)
(10.0629 0.0292086 0)
(10.0699 0.0294612 0)
(10.0769 0.0293955 0)
(10.0835 0.0289455 0)
(10.0898 0.028077 0)
(10.0957 0.0267079 0)
(10.1011 0.024913 0)
(10.1059 0.0226496 0)
(10.1103 0.020182 0)
(9.99813 0.00624275 0)
(10.0112 0.0111214 0)
(10.0185 0.0149299 0)
(10.0222 0.0181434 0)
(10.0265 0.0207872 0)
(10.0323 0.0227835 0)
(10.0389 0.0241467 0)
(10.0455 0.0250091 0)
(10.0519 0.0255104 0)
(10.0581 0.0257501 0)
(10.0641 0.0257156 0)
(10.07 0.025384 0)
(10.0758 0.024658 0)
(10.0814 0.0235638 0)
(10.0866 0.022038 0)
(10.0915 0.0202745 0)
(10.0959 0.0182051 0)
(10.0998 0.0162193 0)
(9.98786 -0.00577893 0)
(9.99931 0.000516839 0)
(10.0055 0.00423256 0)
(10.0088 0.00700514 0)
(10.0131 0.00923488 0)
(10.0189 0.0109432 0)
(10.0254 0.0121788 0)
(10.0318 0.0130201 0)
(10.0381 0.0135103 0)
(10.044 0.0136966 0)
(10.0499 0.0135835 0)
(10.0556 0.0132177 0)
(10.0612 0.0125804 0)
(10.0665 0.0117634 0)
(10.0715 0.0107348 0)
(10.0761 0.00966154 0)
(10.0802 0.00845322 0)
(10.084 0.0073894 0)
(10.0007 0.00738984 0)
(10.0093 0.00735644 0)
(10.0131 0.00802077 0)
(10.0148 0.00853254 0)
(10.018 0.00887263 0)
(10.023 0.00923861 0)
(10.0289 0.00966775 0)
(10.0348 0.0100403 0)
(10.0405 0.0101968 0)
(10.0459 0.0100744 0)
(10.0512 0.00967287 0)
(10.0564 0.00908397 0)
(10.0613 0.00833889 0)
(10.066 0.00753742 0)
(10.0704 0.00663553 0)
(10.0745 0.00575863 0)
(10.0784 0.00478669 0)
(10.0818 0.00394611 0)
(9.99302 -0.00299489 0)
(10.0074 -0.00411287 0)
(10.0154 -0.00480249 0)
(10.0193 -0.00535434 0)
(10.0232 -0.00573913 0)
(10.0281 -0.00596179 0)
(10.0338 -0.00606425 0)
(10.0395 -0.00610752 0)
(10.0452 -0.00619202 0)
(10.0506 -0.00637881 0)
(10.0559 -0.0066964 0)
(10.061 -0.00710028 0)
(10.0659 -0.00758386 0)
(10.0706 -0.00807763 0)
(10.0751 -0.00862172 0)
(10.0793 -0.00911703 0)
(10.0832 -0.00966439 0)
(10.0868 -0.0100707 0)
(9.98367 -0.00467181 0)
(9.99467 -0.00440092 0)
(10.0004 -0.00597743 0)
(10.0031 -0.00742849 0)
(10.0065 -0.00821557 0)
(10.0112 -0.00857675 0)
(10.0164 -0.00885409 0)
(10.0216 -0.00922548 0)
(10.0267 -0.00973093 0)
(10.0316 -0.0103247 0)
(10.0364 -0.010968 0)
(10.0411 -0.0115937 0)
(10.0456 -0.0121917 0)
(10.0498 -0.0127009 0)
(10.0538 -0.0131588 0)
(10.0575 -0.0134926 0)
(10.061 -0.0138055 0)
(10.0645 -0.0139787 0)
(9.97765 -0.00424344 0)
(9.98766 -0.00883121 0)
(9.99312 -0.0125377 0)
(9.99669 -0.0151808 0)
(10.0011 -0.0168507 0)
(10.0064 -0.0179278 0)
(10.0121 -0.0187803 0)
(10.0177 -0.0195933 0)
(10.0232 -0.0203709 0)
(10.0285 -0.0210363 0)
(10.0337 -0.0215699 0)
(10.0386 -0.0219697 0)
(10.0432 -0.0222938 0)
(10.0476 -0.0225542 0)
(10.0517 -0.0228243 0)
(10.0556 -0.0230703 0)
(10.0594 -0.0233859 0)
(10.063 -0.0236658 0)
(10.0053 -0.00352257 0)
(10.0161 -0.0123912 0)
(10.0227 -0.0162118 0)
(10.0267 -0.0180985 0)
(10.0312 -0.0195632 0)
(10.0366 -0.0209087 0)
(10.0422 -0.0221253 0)
(10.0474 -0.0231989 0)
(10.0523 -0.0241241 0)
(10.0569 -0.0248702 0)
(10.0613 -0.0254261 0)
(10.0657 -0.0258042 0)
(10.07 -0.02608 0)
(10.0743 -0.026303 0)
(10.0786 -0.0265654 0)
(10.0827 -0.0268519 0)
(10.0867 -0.0272283 0)
(10.0906 -0.0275761 0)
(9.98423 -0.00348226 0)
(10.0005 -0.0148585 0)
(10.0104 -0.0212728 0)
(10.0154 -0.0246395 0)
(10.02 -0.0266402 0)
(10.0251 -0.0280623 0)
(10.0306 -0.0292026 0)
(10.036 -0.0301519 0)
(10.041 -0.0309655 0)
(10.0458 -0.031704 0)
(10.0504 -0.0324171 0)
(10.0547 -0.0331097 0)
(10.059 -0.0337724 0)
(10.0631 -0.0343592 0)
(10.067 -0.0348793 0)
(10.0708 -0.0353008 0)
(10.0745 -0.0356904 0)
(10.0781 -0.0360033 0)
(9.99239 -0.0118793 0)
(10.0093 -0.0181091 0)
(10.0208 -0.0241664 0)
(10.0274 -0.0276218 0)
(10.0328 -0.0291442 0)
(10.0382 -0.0301076 0)
(10.0439 -0.0311523 0)
(10.0496 -0.0322565 0)
(10.0552 -0.0332137 0)
(10.0607 -0.0339188 0)
(10.0659 -0.0344114 0)
(10.0707 -0.0347698 0)
(10.0754 -0.0350783 0)
(10.0797 -0.0353756 0)
(10.0839 -0.035714 0)
(10.0877 -0.0360718 0)
(10.0915 -0.0364934 0)
(10.0949 -0.0369106 0)
(9.99148 -0.0154167 0)
(10.0057 -0.0251315 0)
(10.0164 -0.0314699 0)
(10.0236 -0.0346999 0)
(10.0297 -0.0363172 0)
(10.0354 -0.0376052 0)
(10.0411 -0.0389257 0)
(10.0467 -0.0401461 0)
(10.052 -0.0411357 0)
(10.0571 -0.0419083 0)
(10.0619 -0.0425465 0)
(10.0667 -0.0431012 0)
(10.0713 -0.043596 0)
(10.0759 -0.0440183 0)
(10.0803 -0.0443774 0)
(10.0846 -0.0446813 0)
(10.0887 -0.0449711 0)
(10.0925 -0.0452479 0)
(9.99994 -0.0131263 0)
(10.0186 -0.0263355 0)
(10.0325 -0.031893 0)
(10.0413 -0.0338446 0)
(10.0478 -0.0351021 0)
(10.0535 -0.0365097 0)
(10.0589 -0.0378856 0)
(10.0642 -0.0390024 0)
(10.0693 -0.0398575 0)
(10.0741 -0.0405471 0)
(10.0786 -0.0411569 0)
(10.0828 -0.0417204 0)
(10.0868 -0.0422451 0)
(10.0906 -0.0427112 0)
(10.0943 -0.0431209 0)
(10.0977 -0.0434648 0)
(10.1011 -0.0437789 0)
(10.1044 -0.0440506 0)
(9.97602 -0.0252979 0)
(9.99853 -0.0374715 0)
(10.0155 -0.0422889 0)
(10.0249 -0.0435718 0)
(10.0306 -0.0445789 0)
(10.0357 -0.0458522 0)
(10.041 -0.0469419 0)
(10.0465 -0.0477099 0)
(10.0518 -0.0483057 0)
(10.0568 -0.048851 0)
(10.0614 -0.0493659 0)
(10.0657 -0.0498296 0)
(10.07 -0.0502291 0)
(10.0742 -0.0505726 0)
(10.0783 -0.050886 0)
(10.0822 -0.051184 0)
(10.0861 -0.0514944 0)
(10.0897 -0.05181 0)
(9.97802 -0.0229075 0)
(10.0026 -0.0341771 0)
(10.0224 -0.0372024 0)
(10.0336 -0.038156 0)
(10.0407 -0.0397379 0)
(10.0474 -0.0415496 0)
(10.0546 -0.042927 0)
(10.0619 -0.043865 0)
(10.0689 -0.0445964 0)
(10.0752 -0.0452908 0)
(10.0811 -0.0459769 0)
(10.0866 -0.0466598 0)
(10.092 -0.047287 0)
(10.0972 -0.047863 0)
(10.1023 -0.048334 0)
(10.1071 -0.0487608 0)
(10.1118 -0.0491184 0)
(10.116 -0.0495089 0)
(9.9832 -0.0357463 0)
(10.0279 -0.0519078 0)
(10.0601 -0.0514682 0)
(10.0778 -0.0512391 0)
(10.088 -0.0525956 0)
(10.095 -0.053843 0)
(10.0997 -0.0545115 0)
(10.1023 -0.0548782 0)
(10.1027 -0.0551951 0)
(10.1011 -0.0555704 0)
(10.0977 -0.0559801 0)
(10.0928 -0.0564142 0)
(10.0863 -0.0567835 0)
(10.0789 -0.0571107 0)
(10.0703 -0.0573217 0)
(10.0612 -0.0575272 0)
(10.051 -0.0576689 0)
(10.0412 -0.057926 0)
(9.89723 -0.0384766 0)
(9.74019 -0.0498776 0)
(9.57554 -0.0482887 0)
(9.4051 -0.046881 0)
(9.23811 -0.0464846 0)
(9.07865 -0.0460397 0)
(8.92715 -0.0453291 0)
(8.78294 -0.0445049 0)
(8.6453 -0.043676 0)
(8.51385 -0.0428776 0)
(8.38809 -0.0420984 0)
(8.26799 -0.0413468 0)
(8.15298 -0.0405968 0)
(8.04349 -0.0398806 0)
(7.9384 -0.0391698 0)
(7.83894 -0.0385307 0)
(7.74268 -0.037918 0)
(7.6527 -0.0374439 0)
(-0.146773 0.291504 3.54165e-21)
(-0.319194 0.124633 -3.49769e-21)
(-0.392207 -0.011287 0)
(-0.376504 -0.128554 0)
(-0.238396 -0.245962 0)
(-0.00974407 -0.337515 3.3981e-21)
(0.29688 -0.39712 0)
(0.649305 -0.417963 0)
(1.0165 -0.410987 0)
(1.37143 -0.381752 0)
(1.699 -0.336207 -3.16528e-21)
(1.98737 -0.280723 0)
(2.22726 -0.219814 0)
(2.41228 -0.156778 0)
(2.53928 -0.093543 0)
(2.60789 -0.0314863 -2.62888e-21)
(2.61776 0.0289233 0)
(2.57065 0.0867715 0)
(2.46659 0.142047 0)
(2.31094 0.192584 0)
(2.10242 0.238018 0)
(1.85645 0.272083 0)
(1.56631 0.297746 0)
(1.26554 0.293904 -2.544e-21)
(0.932541 0.304955 2.54977e-21)
(0.616956 0.24802 -2.54439e-21)
(0.31285 0.155591 -2.52622e-21)
(0.0055109 0.0474338 0)
(-0.263596 0.00172935 0)
(-0.562914 0.118674 2.41004e-21)
(-0.912555 0.21369 2.34974e-21)
(-1.30957 0.261816 0)
(-1.72552 0.269722 0)
(-2.11117 0.23715 2.08117e-21)
(-2.43496 0.181447 0)
(-2.68561 0.112059 0)
(-2.84901 0.0475834 -1.80213e-21)
(-2.94385 0.0142769 0)
(-3.00096 0.00948016 -1.59846e-21)
(-3.06708 0.0359042 -2.94537e-21)
(-3.16912 0.0657943 0)
(-3.30284 0.0815257 0)
(-3.46524 0.0867779 0)
(-3.62457 0.0577344 0)
(-3.73669 0.0420182 0)
(-3.85406 0.037563 -2.06557e-21)
(-3.97318 -0.0651839 -1.95963e-21)
(-4.13216 -0.0705295 -1.84257e-21)
(-4.31211 0.13778 0)
(-4.64207 0.239162 1.75167e-21)
(-4.92564 0.207182 0)
(-5.18111 0.189874 -1.61176e-21)
(-5.41364 0.171965 -1.51548e-21)
(-5.60747 0.149553 0)
(-5.75681 0.106716 0)
(-5.88365 0.0633328 0)
(-6.00245 0.0979402 -1.12568e-21)
(-6.14678 0.118309 0)
(-6.25202 0.0844946 0)
(-6.31683 0.0617429 0)
(-6.35526 0.0377181 0)
(-6.36194 0.0178397 0)
(-6.34608 -0.000136993 0)
(-6.306 -0.015892 0)
(-6.246 -0.0300158 0)
(-6.1658 -0.0428199 6.36116e-22)
(-6.06729 -0.0544578 0)
(-5.95083 -0.0650878 0)
(-5.81807 -0.0747082 -8.99964e-22)
(-5.66979 -0.0833672 -1.04143e-21)
(-5.50731 -0.0910185 0)
(-5.33201 -0.0976401 1.39306e-21)
(-5.14524 -0.103217 -1.5974e-21)
(-4.94854 -0.107712 0)
(-4.74357 -0.111135 2.04582e-21)
(-4.53203 -0.113501 0)
(-4.31559 -0.114901 0)
(-4.09579 -0.115462 -2.76349e-21)
(-3.87387 -0.11536 0)
(-3.65072 -0.11483 3.23649e-21)
(-3.42689 -0.114088 0)
(-3.20249 -0.113365 -3.68824e-21)
(-2.97725 -0.11288 -3.90464e-21)
(-2.75061 -0.112796 -4.11485e-21)
(-2.52169 -0.113198 -8.63857e-21)
(-2.28951 -0.11415 9.03683e-21)
(-2.0531 -0.11557 0)
(-1.81156 -0.117333 0)
(-1.56426 -0.11926 0)
(-1.31099 -0.121095 1.05262e-20)
(-1.05216 -0.122627 1.08662e-20)
(-0.788666 -0.123581 -1.1187e-20)
(-0.521969 -0.123693 0)
(-0.253947 -0.122803 1.17508e-20)
(0.0131722 -0.120801 1.19838e-20)
(0.277157 -0.117713 1.21789e-20)
(0.535955 -0.113663 0)
(0.787859 -0.108859 0)
(1.03148 -0.103524 0)
(1.26584 -0.0978842 1.2568e-20)
(1.49017 -0.092395 0)
(1.70408 -0.0867192 0)
(1.9077 -0.0811563 -1.25161e-20)
(2.10092 -0.0756475 0)
(2.28382 -0.070262 0)
(2.45647 -0.0649696 -1.22824e-20)
(2.61893 -0.0598124 0)
(2.77124 -0.0548057 0)
(2.9135 -0.0500081 1.19449e-20)
(3.04592 -0.045399 1.18181e-20)
(3.16887 -0.0410123 0)
(3.28274 -0.0368503 -1.15514e-20)
(3.38792 -0.0329451 0)
(3.48486 -0.029306 1.12741e-20)
(3.57408 -0.0259572 0)
(3.65603 -0.0228732 1.09929e-20)
(3.73121 -0.0200125 1.08525e-20)
(3.80012 -0.0173772 0)
(3.86311 -0.0149361 0)
(3.92056 -0.0126642 0)
(3.97277 -0.010538 0)
(4.01999 -0.00853221 0)
(4.06242 -0.00662413 0)
(4.1002 -0.00479313 0)
(4.13346 -0.00302278 9.7776e-21)
(4.16224 -0.00130276 -9.6516e-21)
(4.18661 0.000373082 0)
(4.2066 0.00200752 0)
(4.22222 0.00359603 0)
(4.23352 0.00513145 0)
(4.24057 0.00660193 -1.81041e-20)
(4.24347 0.00799524 0)
(4.24235 0.00930005 1.76539e-20)
(4.23738 0.010508 -1.74354e-20)
(4.22876 0.0116102 0)
(4.21671 0.012593 0)
(4.20148 0.0134419 0)
(4.18337 0.0141628 1.66052e-20)
(4.16263 0.0147841 1.6408e-20)
(4.13952 0.0153221 0)
(4.11426 0.0157504 1.60248e-20)
(4.0871 0.0160413 1.58382e-20)
(4.05829 0.0162173 -1.56546e-20)
(4.02804 0.0163251 0)
(3.99655 0.0163664 0)
(3.96408 0.0162301 -1.51192e-20)
(3.93108 0.0157472 0)
(3.89821 0.0148714 0)
(3.86608 0.0137679 0)
(3.83507 0.0126749 0)
(3.80534 0.0117134 1.4266e-20)
(3.77697 0.0108607 1.41004e-20)
(3.75 0.0100749 0)
(3.7244 0.00937998 1.3774e-20)
(3.69997 0.00884002 0)
(3.67637 0.0084972 0)
(3.65325 0.00833765 1.32948e-20)
(3.63038 0.00829061 0)
(3.60763 0.00825604 1.29803e-20)
(3.5851 0.00812752 0)
(3.56291 0.00779476 0)
(3.54147 0.0071874 1.25158e-20)
(3.5211 0.00633464 0)
(3.50238 0.005382 1.22125e-20)
(3.48519 0.00451692 0)
(3.4698 0.00386178 0)
(3.45519 0.00347955 0)
(3.44173 0.00329611 -1.16268e-20)
(3.42762 0.00337081 0)
(3.41409 0.00349581 1.13453e-20)
(3.39817 0.00407187 0)
(3.38216 0.00445593 0)
(3.36165 0.00605097 0)
(3.33857 0.00653549 0)
(3.30991 0.0105707 0)
(3.26791 0.0102891 0)
(3.22869 0.0213787 0)
(3.13079 0.0174417 -2.07782e-20)
(3.08903 0.0540997 0)
(2.79935 0.0440475 0)
(0.00130156 0.593275 -1.05623e-20)
(0.0338722 0.337602 1.04447e-20)
(0.0607576 0.0827753 0)
(0.195647 -0.185245 -6.77179e-21)
(0.424525 -0.518924 0)
(0.730263 -0.805597 -3.40254e-21)
(1.06548 -0.994518 6.5622e-21)
(1.39685 -1.08205 6.45412e-21)
(1.70599 -1.08226 0)
(1.98331 -1.01547 6.10196e-21)
(2.22279 -0.902183 3.16895e-21)
(2.42056 -0.760172 0)
(2.5736 -0.602757 0)
(2.68189 -0.438735 0)
(2.74628 -0.27404 0)
(2.76821 -0.112305 2.633e-21)
(2.74886 0.0433679 0)
(2.69105 0.191226 -4.69315e-21)
(2.59579 0.32884 0)
(2.46564 0.456715 0)
(2.30233 0.570068 4.68905e-21)
(2.10718 0.669256 0)
(1.88933 0.740097 -4.77126e-21)
(1.6459 0.799111 2.55088e-21)
(1.40044 0.806122 -2.55708e-21)
(1.11647 0.787161 2.55204e-21)
(0.75861 0.858842 2.53414e-21)
(0.322452 0.92689 0)
(-0.176325 0.944453 0)
(-0.713722 0.950873 -2.41608e-21)
(-1.20643 0.974431 2.03946e-21)
(-1.6399 0.993659 0)
(-2.047 0.960647 0)
(-2.40084 0.855574 -2.08497e-21)
(-2.71623 0.692365 0)
(-2.98291 0.495002 0)
(-3.18712 0.284611 1.80778e-21)
(-3.3476 0.127479 0)
(-3.48629 0.0937897 -1.12453e-21)
(-3.62544 0.17477 2.95693e-21)
(-3.78102 0.267273 0)
(-3.94877 0.346171 0)
(-4.1203 0.35319 4.05983e-21)
(-4.32675 0.280144 3.89519e-21)
(-4.55756 0.26411 3.70051e-21)
(-4.74972 0.298095 -1.43712e-21)
(-5.03028 0.439238 1.96946e-21)
(-5.35509 0.542586 4.90124e-21)
(-5.55435 0.570053 -2.87776e-21)
(-5.76619 0.565254 -1.7629e-21)
(-5.93273 0.509774 0)
(-6.09036 0.460426 1.62216e-21)
(-6.21388 0.387346 -8.4986e-22)
(-6.31059 0.298449 0)
(-6.40636 0.253248 0)
(-6.52196 0.257512 0)
(-6.5836 0.230185 1.13277e-21)
(-6.61684 0.175377 0)
(-6.61571 0.110257 -1.41084e-21)
(-6.59451 0.0545662 0)
(-6.5539 0.00155116 -1.11289e-21)
(-6.49669 -0.043921 0)
(-6.42519 -0.0850741 9.41929e-22)
(-6.33975 -0.12161 0)
(-6.24167 -0.155118 -9.50556e-22)
(-6.13066 -0.186088 3.94187e-22)
(-6.00721 -0.215161 0)
(-5.87105 -0.2425 1.35721e-21)
(-5.72192 -0.268067 8.99758e-22)
(-5.55986 -0.291684 1.04104e-21)
(-5.38543 -0.312985 0)
(-5.1992 -0.331706 1.23547e-21)
(-5.00244 -0.347576 1.59695e-21)
(-4.79649 -0.360425 0)
(-4.58295 -0.370196 -2.04542e-21)
(-4.36343 -0.37695 4.45783e-21)
(-4.13958 -0.380899 0)
(-3.91285 -0.382424 2.76316e-21)
(-3.68447 -0.382026 0)
(-3.45525 -0.38036 -9.63283e-21)
(-3.22562 -0.378073 0)
(-2.99561 -0.37584 1.09918e-20)
(-2.76486 -0.374268 3.90436e-21)
(-2.53265 -0.37384 -4.04035e-21)
(-2.29805 -0.374828 -8.48524e-21)
(-2.05998 -0.377357 8.87913e-21)
(-1.81739 -0.381278 0)
(-1.56942 -0.38624 0)
(-1.31542 -0.391726 0)
(-1.05519 -0.397065 -3.14181e-20)
(-0.78898 -0.401504 -1.08652e-20)
(-0.517835 -0.404209 1.11859e-20)
(-0.243332 -0.404425 0)
(0.0324076 -0.401618 1.16321e-20)
(0.306996 -0.395522 -1.19824e-20)
(0.578009 -0.386209 -1.21775e-20)
(0.843331 -0.37407 0)
(1.10129 -0.359708 0)
(1.35062 -0.343852 0)
(1.59042 -0.327293 -1.2566e-20)
(1.82022 -0.310551 0)
(2.03994 -0.293786 2.50486e-20)
(2.24973 -0.277294 3.74802e-20)
(2.44961 -0.261071 -2.48455e-20)
(2.63969 -0.24518 0)
(2.82003 -0.229585 -1.22306e-20)
(2.99072 -0.214347 0)
(3.15174 -0.199536 -2.40843e-20)
(3.30319 -0.185269 1.19041e-20)
(3.44532 -0.171525 1.17806e-20)
(3.57847 -0.158383 0)
(3.70303 -0.145924 3.46172e-20)
(3.81939 -0.134225 -2.27952e-20)
(3.92799 -0.123324 -1.12714e-20)
(4.02934 -0.11322 0)
(4.12394 -0.103888 -1.09902e-20)
(4.21227 -0.095245 -3.25303e-20)
(4.29479 -0.0872572 0)
(4.37192 -0.0798524 -2.11269e-20)
(4.44402 -0.0729551 -2.08537e-20)
(4.5114 -0.0664922 -2.05837e-20)
(4.57433 -0.0603929 0)
(4.63301 -0.0545935 0)
(4.68762 -0.0490359 0)
(4.73826 -0.0436708 9.76492e-21)
(4.785 -0.0384605 9.64886e-21)
(4.82789 -0.0333798 0)
(4.86696 -0.0284184 1.8798e-20)
(4.90224 -0.0235803 1.85588e-20)
(4.93374 -0.0188809 0)
(4.96154 -0.0143465 1.80983e-20)
(4.9857 -0.0100078 3.57313e-20)
(5.00636 -0.00589523 -1.7648e-20)
(5.02369 -0.00203432 -1.74205e-20)
(5.03789 0.00155428 0)
(5.0492 0.00485438 0)
(5.05785 0.00785096 0)
(5.06408 0.0105359 -1.65988e-20)
(5.06812 0.0129164 1.6396e-20)
(5.07021 0.0150163 3.24111e-20)
(5.07061 0.0168639 -1.60181e-20)
(5.06949 0.0184842 1.58273e-20)
(5.06693 0.0198926 1.56478e-20)
(5.06302 0.0210839 0)
(5.05785 0.0220413 0)
(5.05157 0.0227316 -1.51097e-20)
(5.04433 0.0230967 0)
(5.03615 0.0230878 0)
(5.02701 0.0227192 2.91884e-20)
(5.01686 0.0220574 0)
(5.00578 0.021163 1.42584e-20)
(4.99404 0.0200899 -1.4093e-20)
(4.98213 0.0189363 0)
(4.9705 0.0178507 1.37668e-20)
(4.95938 0.0169672 0)
(4.94873 0.0163221 0)
(4.93836 0.0158488 -1.32874e-20)
(4.92816 0.0154458 2.62594e-20)
(4.91817 0.0150423 -1.2973e-20)
(4.90861 0.0146024 0)
(4.89968 0.0140978 0)
(4.89149 0.0134718 1.25088e-20)
(4.88391 0.0126854 0)
(4.87681 0.0117334 1.22058e-20)
(4.86997 0.0107492 0)
(4.8633 0.00983741 0)
(4.85659 0.00923788 0)
(4.8497 0.0088391 1.16199e-20)
(4.84242 0.00898352 0)
(4.83433 0.00912879 -1.13385e-20)
(4.82549 0.0102849 0)
(4.81453 0.0108768 0)
(4.80291 0.0139276 2.18676e-20)
(4.78581 0.0147966 -2.16128e-20)
(4.77016 0.0222706 0)
(4.73932 0.0227643 0)
(4.719 0.0419948 0)
(4.65446 0.0410778 6.22227e-20)
(4.63398 0.0977367 0)
(4.48877 0.103597 -4.0788e-20)
(0.0545026 0.325397 -2.38472e-23)
(0.140081 0.119149 -1.39404e-20)
(0.337016 -0.278375 0)
(0.668779 -0.787465 1.35503e-20)
(1.04074 -1.24183 0)
(1.38421 -1.55454 0)
(1.67204 -1.70882 -3.4201e-22)
(1.90121 -1.722 -6.4617e-21)
(2.07878 -1.62669 -5.78194e-21)
(2.2131 -1.45747 -6.10839e-21)
(2.31024 -1.2438 0)
(2.3745 -1.00748 0)
(2.40926 -0.763152 4.83348e-21)
(2.4165 -0.519768 9.28809e-21)
(2.3971 -0.282684 -8.97789e-21)
(2.35145 -0.0547742 0)
(2.28093 0.161453 -8.58327e-21)
(2.18721 0.364145 4.69436e-21)
(2.07286 0.551453 0)
(1.94083 0.722307 -8.5061e-21)
(1.79487 0.874267 -4.69181e-21)
(1.63249 1.00046 8.67048e-21)
(1.45816 1.10569 4.77587e-21)
(1.27526 1.15555 0)
(1.06673 1.20569 -8.92185e-21)
(0.769971 1.35831 -8.93662e-21)
(0.441239 1.51017 0)
(0.0726178 1.66475 -8.81492e-21)
(-0.325956 1.77653 0)
(-0.737747 1.81699 -8.43029e-21)
(-1.15456 1.77957 -4.40823e-21)
(-1.5365 1.6888 0)
(-1.88642 1.55578 0)
(-2.18888 1.37016 0)
(-2.47374 1.15304 0)
(-2.72046 0.899268 0)
(-2.96002 0.655322 0)
(-3.18835 0.479246 -5.07816e-21)
(-3.43547 0.436128 7.31601e-21)
(-3.71159 0.501307 0)
(-3.97983 0.585328 0)
(-4.27318 0.627719 0)
(-4.51824 0.694462 -8.37853e-22)
(-4.8203 0.705239 -3.90101e-21)
(-5.09056 0.688216 -6.56619e-21)
(-5.3392 0.72143 6.15021e-21)
(-5.56614 0.772406 2.40107e-21)
(-5.75202 0.790378 -3.05287e-21)
(-5.87394 0.781565 9.02913e-22)
(-5.98318 0.741934 -1.83071e-21)
(-6.05402 0.669752 0)
(-6.11904 0.578982 -1.60645e-21)
(-6.16484 0.482228 8.61312e-22)
(-6.22897 0.420281 0)
(-6.29084 0.377502 0)
(-6.32815 0.320336 1.17908e-21)
(-6.32245 0.238507 0)
(-6.30042 0.152114 0)
(-6.26116 0.0685239 -2.02682e-22)
(-6.2143 -0.0068509 -1.38648e-21)
(-6.15641 -0.0753883 1.10287e-21)
(-6.09081 -0.135546 0)
(-6.0154 -0.190061 -9.30505e-22)
(-5.93056 -0.239556 0)
(-5.83493 -0.285953 -2.13038e-22)
(-5.72785 -0.330054 -1.01853e-21)
(-5.6083 -0.372632 1.65558e-21)
(-5.47562 -0.413776 7.24055e-22)
(-5.32938 -0.453144 0)
(-5.16962 -0.490137 -3.21497e-21)
(-4.99692 -0.523953 0)
(-4.81235 -0.553869 -7.36776e-21)
(-4.61727 -0.579254 -5.63552e-21)
(-4.41331 -0.599704 -6.57806e-21)
(-4.20229 -0.615063 7.56165e-21)
(-3.98607 -0.625398 -1.30192e-20)
(-3.76654 -0.631081 0)
(-3.54542 -0.632744 0)
(-3.32408 -0.631301 1.15852e-20)
(-3.10341 -0.627851 1.89402e-20)
(-2.88381 -0.623554 0)
(-2.66516 -0.619573 -7.30001e-21)
(-2.44684 -0.616919 0)
(-2.2278 -0.616388 2.42243e-20)
(-2.00669 -0.61844 2.4034e-22)
(-1.78201 -0.62319 -2.48769e-22)
(-1.55227 -0.630373 -1.84291e-20)
(-1.31618 -0.639358 0)
(-1.07278 -0.649226 1.99158e-20)
(-0.821611 -0.658799 2.56629e-22)
(-0.562882 -0.666725 0)
(-0.29764 -0.67155 0)
(-0.0277759 -0.671962 0)
(0.244155 -0.667019 -2.33804e-20)
(0.515167 -0.656327 0)
(0.782268 -0.640035 0)
(1.04292 -0.618841 0)
(1.29523 -0.59386 0)
(1.5378 -0.56665 0)
(1.76992 -0.538374 -2.49429e-20)
(1.99154 -0.509971 0)
(2.20279 -0.481937 -2.50446e-20)
(2.4041 -0.4546 -2.49628e-20)
(2.59568 -0.427984 2.48417e-20)
(2.77782 -0.402107 0)
(2.95062 -0.376818 2.45071e-20)
(3.11419 -0.352149 0)
(3.26855 -0.32819 2.40814e-20)
(3.41376 -0.304938 -2.38437e-20)
(3.5501 -0.282501 -7.06636e-20)
(3.67786 -0.26106 0)
(3.79737 -0.240759 -6.90996e-20)
(3.90903 -0.221729 -2.27036e-20)
(4.0133 -0.204015 0)
(4.11069 -0.187602 -4.43994e-20)
(4.20166 -0.17246 -4.38465e-20)
(4.28669 -0.158508 6.49724e-20)
(4.36623 -0.145654 0)
(4.44066 -0.133784 2.11251e-20)
(4.51035 -0.122777 2.08521e-20)
(4.57559 -0.112508 6.17011e-20)
(4.63662 -0.102859 0)
(4.69364 -0.0937222 0)
(4.7468 -0.0849986 0)
(4.79621 -0.0765999 1.95061e-20)
(4.84192 -0.068455 0)
(4.88396 -0.0605192 0)
(4.92235 -0.0527721 -1.87971e-20)
(4.95708 -0.0452161 -1.85579e-20)
(4.98819 -0.0378795 0)
(5.01571 -0.0308096 0)
(5.03974 -0.024068 -3.57298e-20)
(5.06037 -0.0177206 0)
(5.07778 -0.0118266 3.48486e-20)
(5.09219 -0.00643221 3.44086e-20)
(5.10385 -0.0015643 0)
(5.11312 0.00278461 0)
(5.12035 0.00664537 -3.31812e-20)
(5.12592 0.0100468 -8.13526e-24)
(5.13014 0.0130043 -7.29252e-24)
(5.13329 0.0155451 0)
(5.13563 0.0177367 -6.33093e-20)
(5.13729 0.0196604 0)
(5.13825 0.0213552 0)
(5.13838 0.022779 0)
(5.13761 0.0238271 3.02203e-20)
(5.13603 0.0244137 0)
(5.13389 0.0245796 -5.90515e-20)
(5.13131 0.0245125 -2.91868e-20)
(5.12819 0.0243879 0)
(5.12423 0.0241815 -2.85152e-20)
(5.11917 0.023688 0)
(5.11305 0.0227483 0)
(5.10635 0.0214658 -8.25943e-20)
(5.09973 0.0201773 5.44188e-20)
(5.09364 0.0191978 0)
(5.08815 0.0186028 5.31447e-20)
(5.08302 0.0182117 -2.62572e-20)
(5.07796 0.0177444 0)
(5.07294 0.0169947 0)
(5.06818 0.0159338 0)
(5.064 0.0146295 -7.50463e-20)
(5.06057 0.0132191 0)
(5.05776 0.011801 -2.44089e-20)
(5.05541 0.0105907 0)
(5.05315 0.00965075 0)
(5.05091 0.00923114 0)
(5.04823 0.00909601 0)
(5.04532 0.00967158 0)
(5.04137 0.0102727 0)
(5.03715 0.012133 -4.47889e-20)
(5.03082 0.0134944 0)
(5.02449 0.0176628 -2.18651e-20)
(5.0138 0.0199531 6.48125e-20)
(5.00412 0.0290178 0)
(4.9852 0.0327072 0)
(4.97053 0.0536591 -4.17866e-20)
(4.93696 0.0618927 -4.14521e-20)
(4.91763 0.115647 4.09749e-20)
(4.86722 0.144314 4.07802e-20)
(-0.0323909 0.118936 2.1116e-20)
(0.198652 -0.314864 2.09212e-20)
(0.630798 -1.08596 1.36463e-20)
(1.04181 -1.68377 6.45496e-21)
(1.37122 -2.03656 0)
(1.59915 -2.16813 -1.21787e-20)
(1.735 -2.12695 5.38522e-21)
(1.80158 -1.96516 0)
(1.82338 -1.73116 5.78448e-21)
(1.82113 -1.46293 0)
(1.80746 -1.18419 -9.49845e-21)
(1.78686 -0.905594 0)
(1.75886 -0.630436 -4.83043e-21)
(1.72008 -0.360685 -9.28077e-21)
(1.66714 -0.0987265 8.96991e-21)
(1.59749 0.152419 0)
(1.51172 0.389372 8.57531e-21)
(1.41034 0.609374 0)
(1.29549 0.811271 0)
(1.16932 0.993951 8.5006e-21)
(1.03689 1.15802 0)
(0.895155 1.29975 -7.66883e-22)
(0.755985 1.39718 0)
(0.583067 1.51263 0)
(0.352367 1.69726 8.21102e-22)
(0.0975477 1.88942 8.94392e-21)
(-0.171055 2.0748 8.0588e-21)
(-0.442274 2.23025 8.82756e-21)
(-0.711694 2.33194 0)
(-0.980009 2.37148 1.60899e-20)
(-1.26116 2.3379 0)
(-1.54637 2.2342 7.11185e-21)
(-1.83386 2.07535 0)
(-2.10777 1.86713 0)
(-2.38129 1.62325 -5.97781e-21)
(-2.63964 1.34135 0)
(-2.91347 1.10082 5.07107e-21)
(-3.2014 0.963506 5.39e-22)
(-3.52929 0.975526 -8.57353e-21)
(-3.88571 1.0756 6.93575e-21)
(-4.23957 1.17754 0)
(-4.56589 1.193 0)
(-4.84501 1.17424 1.60217e-21)
(-5.10022 1.10679 0)
(-5.32088 1.0504 2.86268e-21)
(-5.51522 1.03819 -2.6313e-21)
(-5.65537 1.01601 -2.39946e-21)
(-5.74956 0.971964 0)
(-5.80743 0.911587 1.97162e-21)
(-5.84734 0.825764 1.82338e-21)
(-5.86542 0.726197 -1.46522e-21)
(-5.88553 0.632098 1.59824e-21)
(-5.90655 0.553344 1.50186e-21)
(-5.93222 0.484517 0)
(-5.9347 0.402333 0)
(-5.91093 0.301694 -1.1686e-21)
(-5.86832 0.195613 0)
(-5.82212 0.0958066 0)
(-5.7687 0.00253167 1.58113e-21)
(-5.71247 -0.0820685 1.36183e-21)
(-5.65024 -0.159122 0)
(-5.58334 -0.229062 0)
(-5.50944 -0.293956 0)
(-5.42825 -0.355001 0)
(-5.33778 -0.41399 1.12166e-21)
(-5.23674 -0.471788 -4.68289e-22)
(-5.12332 -0.528967 -1.62495e-21)
(-4.99616 -0.585266 -3.2897e-21)
(-4.85429 -0.639878 0)
(-4.69742 -0.691538 7.1149e-22)
(-4.52595 -0.738836 0)
(-4.34105 -0.780428 4.72432e-21)
(-4.14444 -0.815373 5.7087e-22)
(-3.93825 -0.843075 6.55439e-21)
(-3.7248 -0.863268 -7.53925e-21)
(-3.50648 -0.876007 4.19372e-22)
(-3.28574 -0.881798 0)
(-3.06484 -0.881595 -1.02384e-20)
(-2.8457 -0.876791 -1.15684e-20)
(-2.62965 -0.869143 -2.47792e-20)
(-2.41737 -0.860539 0)
(-2.20891 -0.85282 1.40911e-20)
(-2.00356 -0.847604 0)
(-1.79998 -0.846112 -3.18392e-20)
(-1.59638 -0.849063 1.68709e-20)