/*--------------------------------*- C++ -*----------------------------------*\
  =========                 |
  \\      /  F ield         | OpenFOAM: The Open Source CFD Toolbox
   \\    /   O peration     | Website:  https://openfoam.org
    \\  /    A nd           | Version:  10
     \\/     M anipulation  |
\*---------------------------------------------------------------------------*/
FoamFile
{
    format      ascii;
    class       volVectorField;
    location    "1";
    object      Ua;
}
// * * * * * * * * * * * * * * * * * * * * * * * * * * * * * * * * * * * * * //

dimensions      [0 1 -1 0 0 0 0];

internalField   nonuniform List<vector> 
12225
(
(-6.28658e-07 1.26634e-07 0)
(-2.54277e-06 2.69713e-07 0)
(-6.46787e-06 5.76897e-07 0)
(-1.3952e-05 1.10284e-06 0)
(-2.69633e-05 1.9365e-06 0)
(-4.81035e-05 3.20429e-06 0)
(-8.07937e-05 5.07244e-06 0)
(-0.000129417 7.74626e-06 0)
(-0.000199394 1.14637e-05 0)
(-0.000297156 1.64826e-05 0)
(-0.00043001 2.30649e-05 0)
(-0.000605959 3.14771e-05 0)
(-0.000833742 4.20561e-05 0)
(-0.00112383 5.54754e-05 0)
(-0.00149242 7.36112e-05 0)
(-0.0019752 0.000102596 0)
(-0.00268281 0.00016682 0)
(-0.00410898 0.000400801 0)
(-5.98194e-07 3.82415e-07 0)
(-2.44418e-06 8.20027e-07 0)
(-6.27824e-06 1.7596e-06 0)
(-1.36299e-05 3.36837e-06 0)
(-2.6445e-05 5.91872e-06 0)
(-4.72981e-05 9.79786e-06 0)
(-7.95789e-05 1.55154e-05 0)
(-0.000127637 2.37012e-05 0)
(-0.000196861 3.50861e-05 0)
(-0.000293653 5.0462e-05 0)
(-0.000425295 7.06328e-05 0)
(-0.000599739 9.64082e-05 0)
(-0.000825555 0.000128788 0)
(-0.00111261 0.000169711 0)
(-0.00147493 0.000224451 0)
(-0.00193907 0.000309466 0)
(-0.00256195 0.000483231 0)
(-0.00338303 0.00100032 0)
(-5.30981e-07 6.34425e-07 0)
(-2.22665e-06 1.38134e-06 0)
(-5.85983e-06 2.98511e-06 0)
(-1.29191e-05 5.73154e-06 0)
(-2.53008e-05 1.00865e-05 0)
(-4.55195e-05 1.67131e-05 0)
(-7.68954e-05 2.64854e-05 0)
(-0.000123703 4.04856e-05 0)
(-0.000191258 5.99721e-05 0)
(-0.000285902 8.63103e-05 0)
(-0.000414862 0.000120882 0)
(-0.000585991 0.000165053 0)
(-0.000807526 0.000220422 0)
(-0.00108818 0.000289894 0)
(-0.00143811 0.000380995 0)
(-0.00187037 0.000515496 0)
(-0.00239182 0.000758506 0)
(-0.00289899 0.00130283 0)
(-4.20338e-07 8.61531e-07 0)
(-1.86854e-06 1.92757e-06 0)
(-5.17091e-06 4.21682e-06 0)
(-1.17484e-05 8.13801e-06 0)
(-2.34155e-05 1.43583e-05 0)
(-4.25873e-05 2.38296e-05 0)
(-7.24677e-05 3.78091e-05 0)
(-0.000117206 5.78588e-05 0)
(-0.000181996 8.58008e-05 0)
(-0.000273079 0.000123618 0)
(-0.000397597 0.000173309 0)
(-0.000563277 0.000236796 0)
(-0.000777927 0.000316137 0)
(-0.00104879 0.000414661 0)
(-0.0013815 0.000540354 0)
(-0.00177623 0.000714328 0)
(-0.00220897 0.00098914 0)
(-0.00255713 0.00146999 0)
(-2.59479e-07 1.03474e-06 0)
(-1.34785e-06 2.42257e-06 0)
(-4.16901e-06 5.40335e-06 0)
(-1.00452e-05 1.05107e-05 0)
(-2.06708e-05 1.86175e-05 0)
(-3.83143e-05 3.09729e-05 0)
(-6.60076e-05 4.92335e-05 0)
(-0.000107713 7.54655e-05 0)
(-0.000168443 0.000112093 0)
(-0.000254286 0.000161766 0)
(-0.000372281 0.000227149 0)
(-0.000530033 0.000310719 0)
(-0.000734955 0.000414812 0)
(-0.000992902 0.000542497 0)
(-0.00130549 0.000700257 0)
(-0.00166362 0.000903694 0)
(-0.00203013 0.00118501 0)
(-0.00230293 0.00158367 0)
(-4.19782e-08 1.11567e-06 0)
(-6.43711e-07 2.81815e-06 0)
(-2.81372e-06 6.47557e-06 0)
(-7.73995e-06 1.27449e-05 0)
(-1.69524e-05 2.27041e-05 0)
(-3.25175e-05 3.7903e-05 0)
(-5.72285e-05 6.04066e-05 0)
(-9.47854e-05 9.28072e-05 0)
(-0.000149942 0.00013817 0)
(-0.000228577 0.000199869 0)
(-0.000337603 0.000281306 0)
(-0.000484569 0.000385532 0)
(-0.000676701 0.000515007 0)
(-0.000918985 0.000671887 0)
(-0.0012105 0.000859488 0)
(-0.00153747 0.00108501 0)
(-0.00186106 0.00136019 0)
(-0.00210549 0.00168547 0)
(2.37546e-07 1.0551e-06 0)
(2.61379e-07 3.05221e-06 0)
(-1.071e-06 7.34384e-06 0)
(-4.77347e-06 1.4704e-05 0)
(-1.21614e-05 2.64081e-05 0)
(-2.50346e-05 4.43009e-05 0)
(-4.5869e-05 7.08572e-05 0)
(-7.80097e-05 0.000109209 0)
(-0.000125856 0.0001631 0)
(-0.000194994 0.000236702 0)
(-0.000292194 0.000334251 0)
(-0.000425061 0.000459472 0)
(-0.000601032 0.000614904 0)
(-0.000825178 0.000801375 0)
(-0.00109615 0.001018 0)
(-0.00139976 0.00126248 0)
(-0.00170146 0.00152921 0)
(-0.0019462 0.00179813 0)
(5.82474e-07 7.91968e-07 0)
(1.37849e-06 3.04739e-06 0)
(1.08095e-06 7.89586e-06 0)
(-1.10708e-06 1.62156e-05 0)
(-6.23026e-06 2.94622e-05 0)
(-1.57488e-05 4.97581e-05 0)
(-3.17278e-05 7.99753e-05 0)
(-5.70454e-05 0.000123788 0)
(-9.562e-05 0.000185648 0)
(-0.000152635 0.000270612 0)
(-0.000234669 0.000383904 0)
(-0.000349533 0.00053014 0)
(-0.00050542 0.000712139 0)
(-0.000708781 0.000929433 0)
(-0.000960303 0.00117669 0)
(-0.00124904 0.00144223 0)
(-0.0015472 0.00170619 0)
(-0.00181285 0.00193709 0)
(9.92909e-07 2.53129e-07 0)
(2.70814e-06 2.71072e-06 0)
(3.64357e-06 7.99622e-06 0)
(3.26358e-06 1.70709e-05 0)
(8.54567e-07 3.15394e-05 0)
(-4.62223e-06 5.37688e-05 0)
(-1.47145e-05 8.69964e-05 0)
(-3.16957e-05 0.000135419 0)
(-5.88394e-05 0.000204216 0)
(-0.000100753 0.000299417 0)
(-0.00016372 0.000427459 0)
(-0.000255859 0.000594238 0)
(-0.000386719 0.000803443 0)
(-0.000565634 0.00105401 0)
(-0.000798053 0.00133685 0)
(-0.00107973 0.00163168 0)
(-0.00139088 0.00190572 0)
(-0.00169631 0.00211735 0)
(1.46408e-06 -6.45442e-07 0)
(4.23507e-06 1.93515e-06 0)
(6.58788e-06 7.48858e-06 0)
(8.2907e-06 1.70269e-05 0)
(9.02333e-06 3.22556e-05 0)
(8.25658e-06 5.57314e-05 0)
(5.08045e-06 9.09975e-05 0)
(-2.01055e-06 0.00014272 0)
(-1.54278e-05 0.000216791 0)
(-3.8944e-05 0.000320295 0)
(-7.82989e-05 0.000461154 0)
(-0.000141856 0.000647158 0)
(-0.000240979 0.000883958 0)
(-0.000389396 0.00117154 0)
(-0.00060037 0.00149903 0)
(-0.000880494 0.00183896 0)
(-0.00122051 0.00214477 0)
(-0.00158811 0.00235896 0)
(1.98441e-06 -1.99524e-06 0)
(5.92218e-06 6.0374e-07 0)
(9.84233e-06 6.20234e-06 0)
(1.38525e-05 1.58175e-05 0)
(1.80859e-05 3.11835e-05 0)
(2.26136e-05 5.4965e-05 0)
(2.72914e-05 9.09137e-05 0)
(3.15707e-05 0.00014406 0)
(3.41804e-05 0.000220927 0)
(3.25731e-05 0.00032968 0)
(2.2034e-05 0.000480002 0)
(-5.59931e-06 0.000682371 0)
(-6.34685e-05 0.000946084 0)
(-0.000170832 0.0012751 0)
(-0.000352145 0.00166077 0)
(-0.00063103 0.0020717 0)
(-0.00101572 0.00244533 0)
(-0.00147766 0.00269445 0)
(2.48802e-06 -3.69709e-06 0)
(7.55652e-06 -1.19083e-06 0)
(1.29954e-05 4.21784e-06 0)
(1.92422e-05 1.34984e-05 0)
(2.68937e-05 2.83247e-05 0)
(3.66503e-05 5.13673e-05 0)
(4.91844e-05 8.64483e-05 0)
(6.50103e-05 0.000138781 0)
(8.42128e-05 0.000215317 0)
(0.000105872 0.000325119 0)
(0.000126979 0.000479626 0)
(0.000140585 0.000692469 0)
(0.000132946 0.000978114 0)
(7.98635e-05 0.00134794 0)
(-5.61828e-05 0.0018015 0)
(-0.00032321 0.00231076 0)
(-0.000761198 0.00279892 0)
(-0.00135744 0.00313086 0)
(2.98769e-06 -5.92042e-06 0)
(9.18077e-06 -3.64187e-06 0)
(1.61284e-05 1.2979e-06 0)
(2.45906e-05 9.75116e-06 0)
(3.5652e-05 2.32042e-05 0)
(5.06937e-05 4.42078e-05 0)
(7.12754e-05 7.64779e-05 0)
(9.91077e-05 0.000125161 0)
(0.000135897 0.000197315 0)
(0.000182858 0.000302564 0)
(0.000239613 0.000453886 0)
(0.000301969 0.00066838 0)
(0.000357829 0.000967439 0)
(0.000380434 0.00137479 0)
(0.000319165 0.0019088 0)
(9.27447e-05 0.00256206 0)
(-0.000397567 0.00325841 0)
(-0.0011943 0.00378926 0)
(3.5191e-06 -9.13801e-06 0)
(1.09168e-05 -7.29542e-06 0)
(1.94754e-05 -3.23393e-06 0)
(3.02716e-05 3.6676e-06 0)
(4.49611e-05 1.44645e-05 0)
(6.57554e-05 3.14154e-05 0)
(9.52731e-05 5.78626e-05 0)
(0.00013671 9.84709e-05 0)
(0.000193939 0.000159838 0)
(0.000271333 0.000251429 0)
(0.000373044 0.000387011 0)
(0.000501063 0.000586817 0)
(0.000650689 0.000880572 0)
(0.000800758 0.00131087 0)
(0.000894424 0.00193398 0)
(0.000806883 0.00280734 0)
(0.000311875 0.00393142 0)
(-0.000860505 0.00505649 0)
(3.9956e-06 -1.36598e-05 0)
(1.25062e-05 -1.25626e-05 0)
(2.25456e-05 -9.90854e-06 0)
(3.53604e-05 -5.47061e-06 0)
(5.32334e-05 8.40784e-07 0)
(7.93565e-05 1.08205e-05 0)
(0.000117451 2.70313e-05 0)
(0.00017233 5.29108e-05 0)
(0.000250437 9.34469e-05 0)
(0.000360326 0.000156173 0)
(0.000513084 0.000252932 0)
(0.000722337 0.000403139 0)
(0.00100264 0.000639968 0)
(0.00136261 0.00102225 0)
(0.00178223 0.00165737 0)
(0.00214376 0.00274458 0)
(0.0020295 0.00465319 0)
(0.000141747 0.00804892 0)
(4.23082e-06 -1.96733e-05 0)
(1.3441e-05 -1.98062e-05 0)
(2.44407e-05 -1.90778e-05 0)
(3.80437e-05 -1.77467e-05 0)
(5.71925e-05 -1.82477e-05 0)
(8.62988e-05 -1.8923e-05 0)
(0.000129785 -1.84326e-05 0)
(0.000193604 -1.56929e-05 0)
(0.000286325 -9.1016e-06 0)
(0.000420369 3.8357e-06 0)
(0.000614217 2.73192e-05 0)
(0.000896421 6.89211e-05 0)
(0.00131326 0.00014316 0)
(0.00194414 0.000279466 0)
(0.00293374 0.000540546 0)
(0.00456213 0.00106597 0)
(0.00740229 0.00217825 0)
(0.0126846 0.00464622 0)
(8.65651e-08 -1.14804e-05 0)
(1.61404e-07 -1.19637e-05 0)
(1.46478e-07 -1.21494e-05 0)
(1.44063e-07 -1.23043e-05 0)
(1.60341e-07 -1.67734e-05 0)
(2.00778e-07 -2.38737e-05 0)
(2.59066e-07 -3.28691e-05 0)
(3.36812e-07 -4.42041e-05 0)
(4.40577e-07 -5.84896e-05 0)
(5.80513e-07 -7.66861e-05 0)
(7.72769e-07 -0.000100242 0)
(1.04317e-06 -0.000131334 0)
(1.43388e-06 -0.000173278 0)
(2.01594e-06 -0.000231247 0)
(2.91373e-06 -0.000313532 0)
(4.35468e-06 -0.000433793 0)
(6.77475e-06 -0.000615132 0)
(1.10547e-05 -0.000897865 0)
(1.06254e-05 1.18148e-05 0)
(3.20766e-05 1.32815e-05 0)
(5.52889e-05 1.25393e-05 0)
(8.22225e-05 1.03562e-05 0)
(0.000112292 4.70366e-06 0)
(0.000143746 -3.39301e-06 0)
(0.000176149 -1.45874e-05 0)
(0.000210178 -2.90311e-05 0)
(0.000246302 -4.6608e-05 0)
(0.000284373 -6.83433e-05 0)
(0.000324201 -9.56209e-05 0)
(0.000365396 -0.000130327 0)
(0.000407061 -0.000175052 0)
(0.000447196 -0.000233366 0)
(0.000481589 -0.000310231 0)
(0.000501741 -0.000412581 0)
(0.000491016 -0.000550243 0)
(0.000417489 -0.000737607 0)
(1.55185e-05 3.51523e-05 0)
(4.68306e-05 3.82396e-05 0)
(7.87779e-05 3.63451e-05 0)
(0.00011153 3.10219e-05 0)
(0.000145059 2.29339e-05 0)
(0.000179158 1.2589e-05 0)
(0.000213514 -1.04563e-06 0)
(0.000247396 -1.9021e-05 0)
(0.000280539 -4.06878e-05 0)
(0.000312919 -6.62601e-05 0)
(0.000343851 -9.67356e-05 0)
(0.000372304 -0.000133197 0)
(0.000396778 -0.000176733 0)
(0.000415166 -0.000228248 0)
(0.000424678 -0.00028808 0)
(0.000421973 -0.000355281 0)
(0.000403803 -0.000426315 0)
(0.000368737 -0.000492788 0)
(1.74634e-05 5.45127e-05 0)
(5.28515e-05 5.7008e-05 0)
(8.8843e-05 5.41297e-05 0)
(0.000124957 4.72673e-05 0)
(0.000160891 3.74073e-05 0)
(0.00019637 2.51128e-05 0)
(0.000231112 1.05296e-05 0)
(0.000264636 -7.73381e-06 0)
(0.000296389 -3.06459e-05 0)
(0.000325837 -5.66666e-05 0)
(0.000352307 -8.62136e-05 0)
(0.00037494 -0.000119582 0)
(0.000392637 -0.000156812 0)
(0.000404131 -0.000197525 0)
(0.000408147 -0.000240747 0)
(0.00040366 -0.000284734 0)
(0.000390267 -0.00032691 0)
(0.000368626 -0.000364077 0)
(1.97716e-05 6.74029e-05 0)
(5.95702e-05 6.85231e-05 0)
(9.94939e-05 6.45991e-05 0)
(0.000138904 5.67804e-05 0)
(0.000177361 4.60209e-05 0)
(0.000214507 3.29076e-05 0)
(0.000249993 1.76833e-05 0)
(0.000283518 1.27214e-07 0)
(0.000314269 -2.21533e-05 0)
(0.000341617 -4.69943e-05 0)
(0.000365275 -7.42248e-05 0)
(0.0003845 -0.000103789 0)
(0.000398539 -0.000135391 0)
(0.000406714 -0.000168428 0)
(0.000408519 -0.000201953 0)
(0.000403747 -0.000234702 0)
(0.000392619 -0.000265217 0)
(0.000375857 -0.000292081 0)
(2.22163e-05 7.53001e-05 0)
(6.66167e-05 7.51557e-05 0)
(0.000110559 7.03718e-05 0)
(0.000153352 6.19628e-05 0)
(0.000194474 5.08191e-05 0)
(0.000233503 3.75302e-05 0)
(0.000270055 2.23985e-05 0)
(0.000303747 5.52887e-06 0)
(0.00033399 -1.49237e-05 0)
(0.000360289 -3.77545e-05 0)
(0.000382248 -6.21384e-05 0)
(0.000399336 -8.78793e-05 0)
(0.000411152 -0.000114598 0)
(0.000417408 -0.000141725 0)
(0.000417977 -0.000168524 0)
(0.000412964 -0.000194152 0)
(0.000402746 -0.000217754 0)
(0.000387963 -0.000238602 0)
(2.49153e-05 7.8624e-05 0)
(7.43929e-05 7.75037e-05 0)
(0.000122758 7.21444e-05 0)
(0.00016928 6.34963e-05 0)
(0.000213384 5.23985e-05 0)
(0.00025461 3.94318e-05 0)
(0.000292559 2.49301e-05 0)
(0.000326844 9.05307e-06 0)
(0.000357081 -9.14127e-06 0)
(0.000382826 -2.96048e-05 0)
(0.000403667 -5.10396e-05 0)
(0.000419339 -7.3187e-05 0)
(0.000429673 -9.56776e-05 0)
(0.000434583 -0.000118047 0)
(0.000434133 -0.000139758 0)
(0.000428576 -0.000160252 0)
(0.000418352 -0.000179011 0)
(0.000404059 -0.000195623 0)
(2.79716e-05 7.78742e-05 0)
(8.32166e-05 7.60861e-05 0)
(0.000136627 7.04651e-05 0)
(0.000187417 6.19221e-05 0)
(0.000234972 5.12517e-05 0)
(0.000278816 3.90166e-05 0)
(0.000318558 2.55626e-05 0)
(0.000353852 1.10857e-05 0)
(0.000384467 -4.79135e-06 0)
(0.000410017 -2.27505e-05 0)
(0.000430166 -4.12532e-05 0)
(0.000444864 -6.00264e-05 0)
(0.000454059 -7.87551e-05 0)
(0.000457791 -9.70845e-05 0)
(0.000456252 -0.000114639 0)
(0.000449793 -0.000131056 0)
(0.0004389 -0.000146022 0)
(0.000424164 -0.000159307 0)
(3.15065e-05 7.35315e-05 0)
(9.34444e-05 7.13597e-05 0)
(0.000152741 6.57857e-05 0)
(0.000208531 5.76773e-05 0)
(0.000260163 4.77789e-05 0)
(0.000307162 3.66231e-05 0)
(0.000349169 2.45488e-05 0)
(0.000385903 1.17639e-05 0)
(0.000417243 -1.75737e-06 0)
(0.000442897 -1.71654e-05 0)
(0.000462668 -3.27844e-05 0)
(0.000476642 -4.83681e-05 0)
(0.000484843 -6.3662e-05 0)
(0.000487411 -7.84041e-05 0)
(0.00048463 -9.23478e-05 0)
(0.000476919 -0.000105282 0)
(0.000464812 -0.000117043 0)
(0.000448918 -0.000127518 0)
(3.56986e-05 6.60075e-05 0)
(0.000105596 6.37058e-05 0)
(0.000171929 5.8471e-05 0)
(0.00023372 5.11083e-05 0)
(0.000290284 4.22968e-05 0)
(0.000341159 3.25238e-05 0)
(0.000386042 2.21042e-05 0)
(0.000424734 1.12355e-05 0)
(0.000457178 3.37181e-08 0)
(0.000483256 -1.27537e-05 0)
(0.00050295 -2.5553e-05 0)
(0.000516394 -3.81061e-05 0)
(0.000523684 -5.01973e-05 0)
(0.000525035 -6.16361e-05 0)
(0.000520794 -7.22873e-05 0)
(0.000511441 -8.2079e-05 0)
(0.000497571 -9.09787e-05 0)
(0.000479849 -9.89663e-05 0)
(4.08732e-05 5.56117e-05 0)
(0.000120622 5.3408e-05 0)
(0.000195709 4.87893e-05 0)
(0.000265014 4.24684e-05 0)
(0.000327809 3.50381e-05 0)
(0.000383663 2.69228e-05 0)
(0.000432342 1.83994e-05 0)
(0.000473742 9.63853e-06 0)
(0.000507882 7.38714e-07 0)
(0.000534872 -9.40757e-06 0)
(0.000554877 -1.94868e-05 0)
(0.000568047 -2.91677e-05 0)
(0.00057454 -3.82408e-05 0)
(0.000574609 -4.65582e-05 0)
(0.000568633 -5.4082e-05 0)
(0.000557148 -6.08917e-05 0)
(0.000540852 -6.71138e-05 0)
(0.00052052 -7.28188e-05 0)
(4.77952e-05 4.25236e-05 0)
(0.000140769 4.0631e-05 0)
(0.000227706 3.69005e-05 0)
(0.000307298 3.19157e-05 0)
(0.000378772 2.6156e-05 0)
(0.000441737 1.99652e-05 0)
(0.000496048 1.35695e-05 0)
(0.000541706 7.10658e-06 0)
(0.000578814 6.28324e-07 0)
(0.000607794 -7.1014e-06 0)
(0.000629034 -1.46906e-05 0)
(0.000642643 -2.17623e-05 0)
(0.000648757 -2.80535e-05 0)
(0.00064757 -3.33775e-05 0)
(0.00063942 -3.77395e-05 0)
(0.000624917 -4.14094e-05 0)
(0.000604987 -4.48082e-05 0)
(0.000580698 -4.82065e-05 0)
(5.92451e-05 2.68322e-05 0)
(0.000174258 2.54694e-05 0)
(0.000281329 2.29216e-05 0)
(0.000378902 1.95959e-05 0)
(0.000466141 1.58254e-05 0)
(0.000542702 1.18518e-05 0)
(0.000608533 7.83947e-06 0)
(0.000663724 3.89175e-06 0)
(0.000708403 -1.93472e-07 0)
(0.000743749 -6.50261e-06 0)
(0.00077054 -1.26759e-05 0)
(0.000788243 -1.82618e-05 0)
(0.000796379 -2.28069e-05 0)
(0.000794389 -2.57967e-05 0)
(0.000782024 -2.68743e-05 0)
(0.000759985 -2.62111e-05 0)
(0.000730375 -2.46938e-05 0)
(0.000696158 -2.34099e-05 0)
(0.000102964 9.08675e-06 0)
(0.000304145 8.56595e-06 0)
(0.000494872 7.62669e-06 0)
(0.000673807 6.42195e-06 0)
(0.000840598 5.07704e-06 0)
(0.000995545 3.68456e-06 0)
(0.0011393 2.30984e-06 0)
(0.00127264 9.96207e-07 0)
(0.00139613 -4.7361e-07 0)
(0.00150943 -3.47348e-06 0)
(0.0016126 -6.42945e-06 0)
(0.00170741 -9.08215e-06 0)
(0.00179652 -1.11337e-05 0)
(0.00188262 -1.21884e-05 0)
(0.00196718 -1.18876e-05 0)
(0.00204911 -1.02143e-05 0)
(0.00212458 -7.7447e-06 0)
(0.00218896 -5.35618e-06 0)
(-1.14675e-05 2.45113e-05 3.16666e-31)
(-3.44887e-05 2.44619e-05 -3.15756e-31)
(-5.76334e-05 2.43731e-05 0)
(-8.08641e-05 2.42443e-05 0)
(-0.000104142 2.40755e-05 0)
(-0.000127428 2.38667e-05 3.06966e-31)
(-0.000150682 2.36182e-05 0)
(-0.000173862 2.33307e-05 0)
(-0.000196927 2.30049e-05 0)
(-0.000219837 2.2642e-05 0)
(-0.00024255 2.22432e-05 -2.84623e-31)
(-0.000265026 2.18101e-05 0)
(-0.000287224 2.13445e-05 0)
(-0.000309107 2.08482e-05 0)
(-0.000330637 2.03234e-05 0)
(-0.000351777 1.97724e-05 -2.514e-31)
(-0.000372493 1.91976e-05 0)
(-0.000392752 1.86014e-05 0)
(-0.000412525 1.79864e-05 0)
(-0.000431782 1.73552e-05 0)
(-0.000450497 1.67106e-05 0)
(-0.000468648 1.6055e-05 0)
(-0.000486211 1.53913e-05 0)
(-0.00050317 1.47218e-05 -1.84336e-31)
(-0.000519507 1.40493e-05 1.7545e-31)
(-0.000535209 1.33761e-05 -1.66565e-31)
(-0.000550265 1.27047e-05 -1.57708e-31)
(-0.000564667 1.20372e-05 0)
(-0.000578408 1.13758e-05 0)
(-0.000591486 1.07225e-05 1.31603e-31)
(-0.000603899 1.00793e-05 1.23143e-31)
(-0.000615648 9.44779e-06 0)
(-0.000626737 8.82966e-06 0)
(-0.000637171 8.22635e-06 9.88015e-32)
(-0.000646958 7.63919e-06 0)
(-0.000656106 7.06935e-06 0)
(-0.000664628 6.51788e-06 -7.63958e-32)
(-0.000672535 5.98567e-06 0)
(-0.000679843 5.47352e-06 -6.27182e-32)
(-0.000686566 4.98207e-06 -1.12574e-31)
(-0.000692722 4.51185e-06 0)
(-0.000698329 4.06329e-06 0)
(-0.000703405 3.63669e-06 0)
(-0.000707972 3.23227e-06 0)
(-0.00071205 2.85015e-06 0)
(-0.00071566 2.49035e-06 -4.74777e-32)
(-0.000718825 2.15282e-06 -3.86783e-32)
(-0.000721568 1.83744e-06 -3.0461e-32)
(-0.000723912 1.544e-06 0)
(-0.00072588 1.27224e-06 1.57492e-32)
(-0.000727497 1.02183e-06 0)
(-0.000728786 7.92402e-07 -3.27708e-33)
(-0.000729772 5.83513e-07 2.14611e-33)
(-0.000730479 3.94686e-07 0)
(-0.000730931 2.25398e-07 0)
(-0.000731152 7.5085e-08 0)
(-0.000731165 -5.68538e-08 1.87317e-32)
(-0.000730994 -1.71054e-07 0)
(-0.000730663 -2.68182e-07 0)
(-0.000730193 -3.48932e-07 0)
(-0.000729608 -4.14027e-07 0)
(-0.000728928 -4.64209e-07 0)
(-0.000728176 -5.00242e-07 0)
(-0.000727371 -5.22905e-07 0)
(-0.000726533 -5.32993e-07 0)
(-0.000725681 -5.3131e-07 -3.08668e-32)
(-0.000724834 -5.18665e-07 0)
(-0.000724009 -4.95872e-07 0)
(-0.000723221 -4.63742e-07 2.9062e-32)
(-0.000722487 -4.23083e-07 2.7994e-32)
(-0.000721821 -3.74692e-07 0)
(-0.000721237 -3.19353e-07 -2.52829e-32)
(-0.000720747 -2.57834e-07 2.36812e-32)
(-0.000720363 -1.9088e-07 0)
(-0.000720095 -1.19211e-07 -2.00826e-32)
(-0.000719954 -4.35209e-08 0)
(-0.000719947 3.55308e-08 0)
(-0.000720083 1.17318e-07 1.39679e-32)
(-0.000720368 2.01252e-07 0)
(-0.000720808 2.86783e-07 -9.60455e-33)
(-0.000721409 3.73401e-07 0)
(-0.000722174 4.60638e-07 5.14293e-33)
(-0.000723107 5.48069e-07 2.90482e-33)
(-0.000724211 6.3531e-07 6.7576e-34)
(-0.000725489 7.22019e-07 -3.07111e-33)
(-0.000726941 8.07895e-07 7.44188e-33)
(-0.00072857 8.92676e-07 0)
(-0.000730375 9.76142e-07 0)
(-0.000732357 1.0581e-06 0)
(-0.000734515 1.13841e-06 2.41718e-32)
(-0.000736849 1.21694e-06 2.81214e-32)
(-0.000739359 1.29361e-06 -3.19666e-32)
(-0.000742044 1.36835e-06 0)
(-0.000744902 1.44112e-06 3.93312e-32)
(-0.000747932 1.51191e-06 4.28477e-32)
(-0.000751133 1.58073e-06 4.62542e-32)
(-0.000754503 1.64759e-06 0)
(-0.000758042 1.71252e-06 0)
(-0.000761748 1.77559e-06 0)
(-0.000765619 1.83684e-06 5.88107e-32)
(-0.000769655 1.89634e-06 0)
(-0.000773854 1.95417e-06 0)
(-0.000778216 2.0104e-06 -6.71893e-32)
(-0.000782739 2.06512e-06 0)
(-0.000787423 2.1184e-06 0)
(-0.000792266 2.17033e-06 -7.47935e-32)
(-0.00079727 2.22098e-06 0)
(-0.000802432 2.27043e-06 0)
(-0.000807754 2.31876e-06 8.17363e-32)
(-0.000813235 2.36603e-06 8.39213e-32)
(-0.000818874 2.41231e-06 0)
(-0.000824673 2.45764e-06 -8.81167e-32)
(-0.00083063 2.50206e-06 0)
(-0.000836748 2.54562e-06 9.20956e-32)
(-0.000843025 2.58834e-06 0)
(-0.000849463 2.63023e-06 9.58691e-32)
(-0.000856061 2.67128e-06 9.76804e-32)
(-0.00086282 2.71149e-06 0)
(-0.00086974 2.75081e-06 0)
(-0.000876822 2.78919e-06 0)
(-0.000884064 2.82656e-06 0)
(-0.000891468 2.86282e-06 0)
(-0.000899031 2.89786e-06 0)
(-0.000906754 2.93153e-06 0)
(-0.000914634 2.96363e-06 1.10028e-31)
(-0.000922669 2.99396e-06 -1.11217e-31)
(-0.000930856 3.02226e-06 0)
(-0.000939192 3.04823e-06 0)
(-0.000947671 3.07152e-06 0)
(-0.000956288 3.09171e-06 0)
(-0.000965035 3.10834e-06 -2.3026e-31)
(-0.000973903 3.12086e-06 0)
(-0.000982881 3.12864e-06 2.30673e-31)
(-0.000991955 3.13095e-06 -2.30055e-31)
(-0.00100111 3.12697e-06 0)
(-0.00101033 3.11575e-06 0)
(-0.00101958 3.0962e-06 0)
(-0.00102884 3.06709e-06 2.19968e-31)
(-0.00103809 3.02699e-06 2.14949e-31)
(-0.00104728 2.9743e-06 0)
(-0.00105636 2.90718e-06 2.00836e-31)
(-0.0010653 2.82353e-06 1.91343e-31)
(-0.00107402 2.72098e-06 -1.79915e-31)
(-0.00108247 2.59682e-06 0)
(-0.00109056 2.44799e-06 0)
(-0.00109819 2.27101e-06 -1.31107e-31)
(-0.00110526 2.06195e-06 0)
(-0.00111165 1.81637e-06 0)
(-0.00111721 1.52927e-06 0)
(-0.00112179 1.19504e-06 0)
(-0.00112518 8.07363e-07 -2.2779e-32)
(-0.00112717 3.59221e-07 -6.9304e-32)
(-0.00112751 -1.57205e-07 0)
(-0.00112593 -7.50557e-07 -1.83935e-31)
(-0.00112209 -1.43033e-06 0)
(-0.00111563 -2.20687e-06 0)
(-0.00110613 -3.09136e-06 -4.24098e-31)
(-0.00109312 -4.09569e-06 0)
(-0.00107608 -5.23238e-06 -6.42638e-31)
(-0.00105442 -6.51429e-06 0)
(-0.00102749 -7.95428e-06 0)
(-0.00099457 -9.56473e-06 -1.08289e-30)
(-0.000954885 -1.13568e-05 0)
(-0.000907594 -1.33397e-05 -1.465e-30)
(-0.000851806 -1.55192e-05 0)
(-0.000786591 -1.78966e-05 0)
(-0.000711005 -2.04668e-05 0)
(-0.000624112 -2.32162e-05 2.45944e-30)
(-0.000525031 -2.61206e-05 0)
(-0.000412981 -2.91425e-05 -3.05227e-30)
(-0.000287347 -3.22288e-05 0)
(-0.000147756 -3.5308e-05 0)
(5.82703e-06 -3.82873e-05 0)
(0.000172996 -4.10496e-05 0)
(0.000352766 -4.34475e-05 0)
(0.000543391 -4.52897e-05 0)
(0.000742061 -4.63012e-05 0)
(0.000944203 -4.59923e-05 9.33264e-30)
(0.00114124 -4.31057e-05 0)
(0.00130995 -3.24683e-05 0)
(-1.155e-05 7.37103e-05 -9.52271e-31)
(-3.47363e-05 7.35609e-05 9.49519e-31)
(-5.80456e-05 7.32921e-05 0)
(-8.14395e-05 7.29026e-05 -1.88064e-30)
(-0.000104878 7.23919e-05 0)
(-0.000128322 7.17602e-05 9.25964e-31)
(-0.000151728 7.10087e-05 1.82837e-30)
(-0.000175056 7.01392e-05 1.80479e-30)
(-0.000198263 6.91541e-05 0)
(-0.000221307 6.80569e-05 1.74878e-30)
(-0.000244146 6.68515e-05 -8.61153e-31)
(-0.00026674 6.55427e-05 0)
(-0.000289047 6.41359e-05 0)
(-0.000311029 6.26369e-05 0)
(-0.000332648 6.10522e-05 0)
(-0.000353867 5.93887e-05 -7.63404e-31)
(-0.000374651 5.76538e-05 0)
(-0.000394969 5.58549e-05 -1.42516e-30)
(-0.000414788 5.39998e-05 0)
(-0.000434082 5.20965e-05 0)
(-0.000452824 5.0153e-05 1.27504e-30)
(-0.00047099 4.81773e-05 0)
(-0.00048856 4.61775e-05 -1.17059e-30)
(-0.000505516 4.41612e-05 -5.64802e-31)
(-0.000521841 4.21361e-05 5.38436e-31)
(-0.000537523 4.01096e-05 -5.12059e-31)
(-0.000552552 3.80889e-05 -4.85764e-31)
(-0.000566918 3.60807e-05 0)
(-0.000580618 3.40914e-05 0)
(-0.000593648 3.2127e-05 4.08224e-31)
(-0.000606008 3.01933e-05 1.13495e-30)
(-0.000617699 2.82954e-05 0)
(-0.000628726 2.64381e-05 0)
(-0.000639094 2.46258e-05 3.10737e-31)
(-0.000648812 2.28624e-05 0)
(-0.000657889 2.11515e-05 0)
(-0.000666337 1.9496e-05 -2.44114e-31)
(-0.000674169 1.78988e-05 0)
(-0.0006814 1.6362e-05 -5.94204e-31)
(-0.000688047 1.48877e-05 -3.68594e-31)
(-0.000694125 1.34774e-05 0)
(-0.000699654 1.21323e-05 0)
(-0.000704654 1.08533e-05 4.94556e-31)
(-0.000709144 9.64105e-06 4.3146e-31)
(-0.000713147 8.49586e-06 3.71878e-31)
(-0.000716683 7.41781e-06 -4.90635e-31)
(-0.000719775 6.4067e-06 -1.48616e-31)
(-0.000722447 5.46214e-06 9.0023e-32)
(-0.000724721 4.5835e-06 -1.68521e-31)
(-0.000726622 3.76997e-06 8.02965e-32)
(-0.000728173 3.02057e-06 0)
(-0.000729399 2.33414e-06 -4.31156e-32)
(-0.000730324 1.70937e-06 -4.6346e-32)
(-0.000730972 1.14481e-06 0)
(-0.000731367 6.3889e-07 0)
(-0.000731534 1.89899e-07 0)
(-0.000731496 -2.0397e-07 2.25424e-32)
(-0.000731276 -5.4463e-07 0)
(-0.000730898 -8.34087e-07 1.12145e-31)
(-0.000730385 -1.07443e-06 0)
(-0.000729758 -1.26784e-06 1.34462e-31)
(-0.00072904 -1.41653e-06 0)
(-0.000728252 -1.52281e-06 -1.47501e-31)
(-0.000727413 -1.58903e-06 0)
(-0.000726545 -1.61757e-06 1.52239e-31)
(-0.000725665 -1.61084e-06 -2.10579e-31)
(-0.000724792 -1.57128e-06 0)
(-0.000723942 -1.50134e-06 -1.45984e-31)
(-0.000723134 -1.40345e-06 5.33508e-32)
(-0.000722381 -1.28004e-06 5.01432e-32)
(-0.000721698 -1.1335e-06 0)
(-0.0007211 -9.66197e-07 -1.6005e-31)
(-0.000720597 -7.80427e-07 3.71864e-32)
(-0.000720202 -5.78432e-07 0)
(-0.000719926 -3.62374e-07 -2.63642e-32)
(-0.000719777 -1.34332e-07 -7.49184e-32)
(-0.000719765 1.03714e-07 0)
(-0.000719896 3.49886e-07 7.95179e-33)
(-0.000720179 6.02418e-07 0)
(-0.000720617 8.59663e-07 2.88182e-32)
(-0.000721218 1.12009e-06 0)
(-0.000721983 1.38231e-06 -1.54047e-32)
(-0.000722918 1.64504e-06 -2.54557e-32)
(-0.000724025 1.90713e-06 -6.24261e-32)
(-0.000725305 2.16757e-06 -1.64943e-31)
(-0.000726761 2.42545e-06 2.04595e-31)
(-0.000728393 2.68e-06 0)
(-0.000730203 2.93055e-06 0)
(-0.000732189 3.17655e-06 0)
(-0.000734352 3.41754e-06 -7.26569e-32)
(-0.000736691 3.65317e-06 1.54079e-31)
(-0.000739206 3.88318e-06 -1.65852e-31)
(-0.000741896 4.10739e-06 0)
(-0.000744759 4.32567e-06 4.95063e-31)
(-0.000747794 4.53799e-06 1.99299e-31)
(-0.000750999 4.74436e-06 2.09817e-31)
(-0.000754375 4.94486e-06 0)
(-0.000757918 5.13958e-06 0)
(-0.000761628 5.32867e-06 0)
(-0.000765504 5.51232e-06 2.48834e-31)
(-0.000769544 5.69073e-06 0)
(-0.000773747 5.86411e-06 4.60194e-31)
(-0.000778112 6.03271e-06 2.01659e-31)
(-0.000782638 6.19676e-06 -4.92908e-31)
(-0.000787325 6.3565e-06 0)
(-0.000792172 6.51219e-06 -8.2299e-31)
(-0.000797178 6.66407e-06 0)
(-0.000802344 6.81235e-06 -5.52837e-31)
(-0.000807668 6.95727e-06 8.88361e-31)
(-0.000813151 7.09901e-06 9.0905e-31)
(-0.000818793 7.23777e-06 0)
(-0.000824593 7.37371e-06 2.64403e-31)
(-0.000830553 7.50695e-06 -6.19329e-31)
(-0.000836673 7.6376e-06 3.55348e-31)
(-0.000842952 7.76573e-06 0)
(-0.000849391 7.89138e-06 3.67867e-31)
(-0.000855991 8.01454e-06 -2.93084e-31)
(-0.000862752 8.13515e-06 0)
(-0.000869674 8.25312e-06 -6.89093e-31)
(-0.000876758 8.3683e-06 -6.99663e-31)
(-0.000884003 8.48045e-06 -7.09891e-31)
(-0.000891408 8.5893e-06 0)
(-0.000898974 8.69448e-06 0)
(-0.000906699 8.79555e-06 0)
(-0.000914582 8.89196e-06 1.16318e-30)
(-0.00092262 8.98307e-06 -4.20849e-31)
(-0.000930811 9.06811e-06 0)
(-0.000939151 9.14618e-06 7.6831e-31)
(-0.000947635 9.21621e-06 7.73949e-31)
(-0.000956257 9.277e-06 0)
(-0.000965009 9.32711e-06 -8.73268e-31)
(-0.000973884 9.36492e-06 1.56873e-30)
(-0.000982869 9.38854e-06 8.77933e-31)
(-0.000991951 9.3958e-06 -2.44612e-30)
(-0.00100111 9.38424e-06 0)
(-0.00101034 9.35099e-06 0)
(-0.00101961 9.29281e-06 0)
(-0.00102888 9.206e-06 8.54712e-31)
(-0.00103814 9.0863e-06 2.3283e-30)
(-0.00104735 8.92888e-06 1.45081e-30)
(-0.00105646 8.72825e-06 8.0271e-31)
(-0.00106541 8.47812e-06 2.12678e-30)
(-0.00107416 8.17137e-06 -7.43458e-31)
(-0.00108264 7.7999e-06 0)
(-0.00109075 7.35451e-06 0)
(-0.00109842 6.82481e-06 -1.59835e-30)
(-0.00110554 6.199e-06 0)
(-0.00111197 5.46379e-06 0)
(-0.00111758 4.60417e-06 5.29953e-31)
(-0.00112221 3.6033e-06 0)
(-0.00112567 2.44228e-06 2.26055e-31)
(-0.00112773 1.10003e-06 7.24133e-33)
(-0.00112815 -4.4689e-07 0)
(-0.00112666 -2.22442e-06 -1.22199e-30)
(-0.00112292 -4.26106e-06 0)
(-0.00111656 -6.58787e-06 0)
(-0.00110718 -9.2384e-06 -1.05979e-30)
(-0.00109431 -1.22484e-05 -2.94629e-30)
(-0.00107741 -1.56556e-05 -1.7205e-30)
(-0.0010559 -1.94985e-05 0)
(-0.00102913 -2.3816e-05 0)
(-0.00099639 -2.86452e-05 -9.35601e-30)
(-0.000956886 -3.40201e-05 0)
(-0.000909781 -3.99682e-05 -1.28274e-29)
(-0.000854179 -4.65076e-05 0)
(-0.000789146 -5.36423e-05 0)
(-0.000713728 -6.13574e-05 0)
(-0.000626983 -6.96127e-05 7.25699e-30)
(-0.000528015 -7.83358e-05 0)
(-0.000416032 -8.7415e-05 -9.07778e-30)
(-0.000290402 -9.66911e-05 0)
(-0.000150737 -0.00010595 0)
(3.01927e-06 -0.000114914 -2.37624e-29)
(0.000170484 -0.000123232 2.54194e-29)
(0.000350703 -0.000130466 0)
(0.000541985 -0.000136048 0)
(0.000741652 -0.000139182 0)
(0.000945565 -0.000138507 -2.81068e-29)
(0.00114722 -0.000130879 0)
(0.00133805 -0.000105756 4.27287e-29)
(-1.17172e-05 0.000123443 -6.38046e-30)
(-3.5238e-05 0.00012319 8.38562e-34)
(-5.88807e-05 0.000122734 0)
(-8.2605e-05 0.000122074 -1.95681e-33)
(-0.000106369 0.000121208 0)
(-0.000130131 0.000120138 0)
(-0.000153847 0.000118865 6.12698e-30)
(-0.000177473 0.000117392 3.02612e-30)
(-0.000200965 0.000115724 -2.97714e-30)
(-0.00022428 0.000113867 2.93279e-30)
(-0.000247374 0.000111827 0)
(-0.000270206 0.000109614 0)
(-0.000292732 0.000107236 2.75123e-30)
(-0.000314913 0.000104703 5.36838e-30)
(-0.00033671 0.000102027 -5.22694e-30)
(-0.000358086 9.92192e-05 0)
(-0.000379007 9.62924e-05 -4.9245e-30)
(-0.000399439 9.32595e-05 -2.39184e-30)
(-0.000419352 9.01338e-05 0)
(-0.000438717 8.69287e-05 -4.43194e-30)
(-0.00045751 8.36578e-05 2.1409e-30)
(-0.000475707 8.03347e-05 4.08581e-30)
(-0.000493288 7.69729e-05 -1.96641e-30)
(-0.000510236 7.35855e-05 0)
(-0.000526536 7.01853e-05 -3.5539e-30)
(-0.000542175 6.67848e-05 -3.37588e-30)
(-0.000557146 6.33958e-05 0)
(-0.000571441 6.00297e-05 -3.0225e-30)
(-0.000585055 5.66971e-05 0)
(-0.000597987 5.34081e-05 -2.67642e-30)
(-0.000610239 5.01721e-05 1.2681e-30)
(-0.000621812 4.69976e-05 0)
(-0.000632713 4.38926e-05 0)
(-0.000642947 4.08643e-05 0)
(-0.000652526 3.79191e-05 0)
(-0.000661458 3.50628e-05 0)
(-0.000669758 3.23004e-05 0)
(-0.000677438 2.96363e-05 -1.43619e-30)
(-0.000684516 2.70742e-05 6.35204e-31)
(-0.000691007 2.46172e-05 0)
(-0.00069693 2.22678e-05 0)
(-0.000702304 2.0028e-05 0)
(-0.000707149 1.78991e-05 1.68376e-30)
(-0.000711486 1.58821e-05 7.53894e-31)
(-0.000715337 1.39775e-05 3.37788e-32)
(-0.000718724 1.21853e-05 -3.39383e-32)
(-0.000721671 1.05051e-05 4.40869e-31)
(-0.000724199 8.93612e-06 3.93594e-31)
(-0.000726335 7.47735e-06 -6.01656e-31)
(-0.0007281 6.12735e-06 -2.13636e-31)
(-0.00072952 4.88443e-06 0)
(-0.000730619 3.74661e-06 -9.01983e-32)
(-0.000731422 2.71169e-06 -1.07698e-31)