/*--------------------------------*- C++ -*----------------------------------*\
  =========                 |
  \\      /  F ield         | OpenFOAM: The Open Source CFD Toolbox
   \\    /   O peration     | Website:  https://openfoam.org
    \\  /    A nd           | Version:  10
     \\/     M anipulation  |
\*---------------------------------------------------------------------------*/
FoamFile
{
    format      ascii;
    class       volScalarField;
    location    "1.71";
    object      p;
}
// * * * * * * * * * * * * * * * * * * * * * * * * * * * * * * * * * * * * * //

dimensions      [1 -1 -2 0 0 0 0];

internalField   nonuniform List<scalar> 
12225
(
1.65853e+07
1.65303e+07
1.64319e+07
1.63022e+07
1.61515e+07
1.59877e+07
1.58161e+07
1.56405e+07
1.5463e+07
1.52849e+07
1.51068e+07
1.49285e+07
1.47495e+07
1.45688e+07
1.43844e+07
1.4193e+07
1.39877e+07
1.37513e+07
1.65875e+07
1.65323e+07
1.64336e+07
1.63035e+07
1.61525e+07
1.59885e+07
1.58168e+07
1.56411e+07
1.54636e+07
1.52855e+07
1.51074e+07
1.49292e+07
1.47504e+07
1.45701e+07
1.43863e+07
1.4196e+07
1.39938e+07
1.37692e+07
1.65924e+07
1.65367e+07
1.64372e+07
1.63064e+07
1.61548e+07
1.59903e+07
1.58183e+07
1.56423e+07
1.54648e+07
1.52867e+07
1.51087e+07
1.49308e+07
1.47524e+07
1.45728e+07
1.43903e+07
1.42024e+07
1.40057e+07
1.37964e+07
1.66007e+07
1.65441e+07
1.64433e+07
1.63112e+07
1.61585e+07
1.59932e+07
1.58206e+07
1.56444e+07
1.54667e+07
1.52886e+07
1.51109e+07
1.49334e+07
1.47557e+07
1.45772e+07
1.43966e+07
1.42123e+07
1.40226e+07
1.38281e+07
1.66128e+07
1.6555e+07
1.64523e+07
1.63183e+07
1.6164e+07
1.59974e+07
1.58241e+07
1.56474e+07
1.54695e+07
1.52915e+07
1.5114e+07
1.49371e+07
1.47605e+07
1.45835e+07
1.44055e+07
1.42255e+07
1.40435e+07
1.38621e+07
1.66299e+07
1.65701e+07
1.64646e+07
1.63279e+07
1.61714e+07
1.60032e+07
1.58288e+07
1.56514e+07
1.54732e+07
1.52953e+07
1.51182e+07
1.49421e+07
1.47668e+07
1.45918e+07
1.44169e+07
1.42418e+07
1.40675e+07
1.38973e+07
1.66527e+07
1.65903e+07
1.64811e+07
1.63407e+07
1.61812e+07
1.60108e+07
1.58348e+07
1.56566e+07
1.5478e+07
1.53002e+07
1.51237e+07
1.49485e+07
1.47747e+07
1.46022e+07
1.44307e+07
1.42608e+07
1.40938e+07
1.39329e+07
1.66828e+07
1.66166e+07
1.65022e+07
1.63569e+07
1.61935e+07
1.60202e+07
1.58424e+07
1.56631e+07
1.54841e+07
1.53063e+07
1.51304e+07
1.49564e+07
1.47845e+07
1.46145e+07
1.44469e+07
1.42822e+07
1.41219e+07
1.39689e+07
1.67216e+07
1.66503e+07
1.6529e+07
1.63772e+07
1.62086e+07
1.60318e+07
1.58516e+07
1.56709e+07
1.54913e+07
1.53137e+07
1.51385e+07
1.49659e+07
1.47959e+07
1.46289e+07
1.44652e+07
1.43055e+07
1.41514e+07
1.40049e+07
1.67715e+07
1.66929e+07
1.65621e+07
1.64019e+07
1.62269e+07
1.60455e+07
1.58624e+07
1.56801e+07
1.54998e+07
1.53224e+07
1.51479e+07
1.49768e+07
1.48091e+07
1.46451e+07
1.44853e+07
1.43304e+07
1.41818e+07
1.40409e+07
1.68353e+07
1.67463e+07
1.66027e+07
1.64314e+07
1.62483e+07
1.60614e+07
1.58749e+07
1.56906e+07
1.55096e+07
1.53322e+07
1.51587e+07
1.49892e+07
1.48238e+07
1.46629e+07
1.45069e+07
1.43566e+07
1.42129e+07
1.40768e+07
1.69102e+07
1.68072e+07
1.66474e+07
1.64631e+07
1.62707e+07
1.60778e+07
1.58876e+07
1.57013e+07
1.55195e+07
1.53423e+07
1.51697e+07
1.50017e+07
1.48386e+07
1.46805e+07
1.45279e+07
1.43814e+07
1.42417e+07
1.41095e+07
1.70025e+07
1.68794e+07
1.66984e+07
1.6498e+07
1.62949e+07
1.60952e+07
1.59009e+07
1.57125e+07
1.55299e+07
1.53529e+07
1.51812e+07
1.5015e+07
1.48541e+07
1.46988e+07
1.45494e+07
1.44065e+07
1.42704e+07
1.41416e+07
1.71388e+07
1.69798e+07
1.67652e+07
1.65417e+07
1.63241e+07
1.61157e+07
1.59165e+07
1.57256e+07
1.55422e+07
1.53655e+07
1.51951e+07
1.50308e+07
1.48726e+07
1.47204e+07
1.45745e+07
1.44353e+07
1.43029e+07
1.41777e+07
1.73507e+07
1.71193e+07
1.68494e+07
1.65929e+07
1.63566e+07
1.61379e+07
1.59332e+07
1.57398e+07
1.55557e+07
1.53797e+07
1.52109e+07
1.50491e+07
1.48938e+07
1.47451e+07
1.4603e+07
1.44676e+07
1.4339e+07
1.42174e+07
1.77082e+07
1.73051e+07
1.69434e+07
1.66434e+07
1.63861e+07
1.61572e+07
1.59477e+07
1.57525e+07
1.55686e+07
1.53941e+07
1.52277e+07
1.50689e+07
1.49171e+07
1.47722e+07
1.46341e+07
1.45027e+07
1.4378e+07
1.42599e+07
1.83992e+07
1.74911e+07
1.70041e+07
1.66665e+07
1.63962e+07
1.61628e+07
1.59527e+07
1.57587e+07
1.55772e+07
1.54057e+07
1.5243e+07
1.50882e+07
1.49406e+07
1.48001e+07
1.46663e+07
1.45391e+07
1.44184e+07
1.43039e+07
1.75485e+07
1.72118e+07
1.68841e+07
1.66017e+07
1.6356e+07
1.61365e+07
1.59359e+07
1.57496e+07
1.55748e+07
1.54095e+07
1.52525e+07
1.51033e+07
1.49611e+07
1.48257e+07
1.46969e+07
1.45743e+07
1.44578e+07
1.43471e+07
1.69769e+07
1.68392e+07
1.66502e+07
1.64503e+07
1.62542e+07
1.60663e+07
1.58874e+07
1.5717e+07
1.55546e+07
1.53995e+07
1.52513e+07
1.51097e+07
1.49745e+07
1.48454e+07
1.47222e+07
1.46047e+07
1.44928e+07
1.43863e+07
1.66504e+07
1.65718e+07
1.64466e+07
1.62987e+07
1.61417e+07
1.59829e+07
1.58257e+07
1.5672e+07
1.55228e+07
1.53785e+07
1.52392e+07
1.51053e+07
1.49766e+07
1.48532e+07
1.4735e+07
1.4622e+07
1.45139e+07
1.44108e+07
1.64639e+07
1.64075e+07
1.63116e+07
1.61915e+07
1.6058e+07
1.59181e+07
1.57761e+07
1.56346e+07
1.54951e+07
1.53588e+07
1.52263e+07
1.5098e+07
1.49741e+07
1.48549e+07
1.47403e+07
1.46304e+07
1.45251e+07
1.44244e+07
1.63405e+07
1.62951e+07
1.62153e+07
1.61121e+07
1.59939e+07
1.58672e+07
1.57361e+07
1.56036e+07
1.54716e+07
1.53415e+07
1.52141e+07
1.50902e+07
1.49701e+07
1.4854e+07
1.47422e+07
1.46348e+07
1.45316e+07
1.44327e+07
1.6257e+07
1.62177e+07
1.61475e+07
1.60547e+07
1.59467e+07
1.58289e+07
1.57055e+07
1.55795e+07
1.54529e+07
1.53274e+07
1.52039e+07
1.50833e+07
1.4966e+07
1.48523e+07
1.47426e+07
1.46369e+07
1.45353e+07
1.44378e+07
1.62001e+07
1.61645e+07
1.61002e+07
1.60142e+07
1.59127e+07
1.5801e+07
1.5683e+07
1.55615e+07
1.54389e+07
1.53166e+07
1.51959e+07
1.50777e+07
1.49624e+07
1.48505e+07
1.47422e+07
1.46378e+07
1.45374e+07
1.44408e+07
1.61616e+07
1.61283e+07
1.60677e+07
1.5986e+07
1.5889e+07
1.57813e+07
1.56669e+07
1.55486e+07
1.54287e+07
1.53087e+07
1.519e+07
1.50734e+07
1.49595e+07
1.48489e+07
1.47417e+07
1.46382e+07
1.45385e+07
1.44427e+07
1.61361e+07
1.61042e+07
1.60459e+07
1.5967e+07
1.58728e+07
1.57678e+07
1.56558e+07
1.55397e+07
1.54215e+07
1.53031e+07
1.51858e+07
1.50703e+07
1.49574e+07
1.48476e+07
1.47411e+07
1.46383e+07
1.45391e+07
1.44438e+07
1.61197e+07
1.60887e+07
1.60318e+07
1.59547e+07
1.58623e+07
1.5759e+07
1.56486e+07
1.55337e+07
1.54168e+07
1.52994e+07
1.51829e+07
1.50682e+07
1.49559e+07
1.48467e+07
1.47407e+07
1.46383e+07
1.45395e+07
1.44444e+07
1.61097e+07
1.60792e+07
1.60233e+07
1.59471e+07
1.58558e+07
1.57536e+07
1.56441e+07
1.55301e+07
1.54139e+07
1.52971e+07
1.51811e+07
1.50668e+07
1.4955e+07
1.48461e+07
1.47404e+07
1.46382e+07
1.45396e+07
1.44447e+07
1.61043e+07
1.60741e+07
1.60186e+07
1.59431e+07
1.58523e+07
1.57507e+07
1.56416e+07
1.55281e+07
1.54122e+07
1.52958e+07
1.51801e+07
1.50661e+07
1.49545e+07
1.48457e+07
1.47402e+07
1.46381e+07
1.45397e+07
1.44449e+07
1.61021e+07
1.6072e+07
1.60167e+07
1.59414e+07
1.58509e+07
1.57494e+07
1.56406e+07
1.55273e+07
1.54116e+07
1.52953e+07
1.51797e+07
1.50658e+07
1.49542e+07
1.48455e+07
1.47401e+07
1.46381e+07
1.45397e+07
1.4445e+07
1.08258e+07
1.08254e+07
1.08246e+07
1.08234e+07
1.08218e+07
1.08201e+07
1.08182e+07
1.08161e+07
1.08138e+07
1.08114e+07
1.08091e+07
1.08068e+07
1.08044e+07
1.0802e+07
1.07995e+07
1.07968e+07
1.07941e+07
1.07913e+07
1.07885e+07
1.07856e+07
1.07826e+07
1.07796e+07
1.07766e+07
1.07735e+07
1.07704e+07
1.07672e+07
1.07641e+07
1.07609e+07
1.07577e+07
1.07545e+07
1.07514e+07
1.07482e+07
1.07451e+07
1.0742e+07
1.0739e+07
1.07359e+07
1.0733e+07
1.073e+07
1.07271e+07
1.07242e+07
1.07213e+07
1.07185e+07
1.07157e+07
1.07129e+07
1.07102e+07
1.07075e+07
1.07048e+07
1.07021e+07
1.06995e+07
1.06969e+07
1.06943e+07
1.06917e+07
1.06891e+07
1.06866e+07
1.0684e+07
1.06815e+07
1.0679e+07
1.06765e+07
1.06739e+07
1.06714e+07
1.0669e+07
1.06665e+07
1.0664e+07
1.06615e+07
1.0659e+07
1.06565e+07
1.06541e+07
1.06516e+07
1.06491e+07
1.06466e+07
1.06441e+07
1.06416e+07
1.06391e+07
1.06366e+07
1.06341e+07
1.06316e+07
1.06291e+07
1.06265e+07
1.0624e+07
1.06214e+07
1.06189e+07
1.06163e+07
1.06137e+07
1.06111e+07
1.06085e+07
1.06059e+07
1.06033e+07
1.06006e+07
1.0598e+07
1.05953e+07
1.05926e+07
1.05899e+07
1.05872e+07
1.05845e+07
1.05817e+07
1.05789e+07
1.05762e+07
1.05734e+07
1.05705e+07
1.05677e+07
1.05648e+07
1.0562e+07
1.05591e+07
1.05562e+07
1.05532e+07
1.05503e+07
1.05473e+07
1.05443e+07
1.05413e+07
1.05382e+07
1.05352e+07
1.05321e+07
1.0529e+07
1.05259e+07
1.05227e+07
1.05196e+07
1.05164e+07
1.05131e+07
1.05099e+07
1.05066e+07
1.05034e+07
1.05e+07
1.04967e+07
1.04933e+07
1.04899e+07
1.04865e+07
1.04831e+07
1.04796e+07
1.04761e+07
1.04726e+07
1.04691e+07
1.04655e+07
1.04619e+07
1.04582e+07
1.04546e+07
1.04509e+07
1.04472e+07
1.04434e+07
1.04397e+07
1.04359e+07
1.0432e+07
1.04282e+07
1.04243e+07
1.04204e+07
1.04164e+07
1.04124e+07
1.04084e+07
1.04044e+07
1.04003e+07
1.03962e+07
1.03921e+07
1.03879e+07
1.03837e+07
1.03795e+07
1.03752e+07
1.03709e+07
1.03666e+07
1.03622e+07
1.03578e+07
1.03534e+07
1.03489e+07
1.03444e+07
1.03399e+07
1.03353e+07
1.03307e+07
1.03261e+07
1.03214e+07
1.03167e+07
1.03119e+07
1.03071e+07
1.03023e+07
1.02975e+07
1.02926e+07
1.02877e+07
1.02827e+07
1.02778e+07
1.02728e+07
1.02678e+07
1.02628e+07
1.02579e+07
1.08888e+07
1.08873e+07
1.08843e+07
1.0879e+07
1.08705e+07
1.08564e+07
1.08357e+07
1.08206e+07
1.08144e+07
1.08111e+07
1.0809e+07
1.08068e+07
1.08046e+07
1.08023e+07
1.07999e+07
1.07971e+07
1.07942e+07
1.07914e+07
1.07885e+07
1.07857e+07
1.07827e+07
1.07797e+07
1.07767e+07
1.07735e+07
1.07704e+07
1.07672e+07
1.0764e+07
1.07608e+07
1.07576e+07
1.07544e+07
1.07513e+07
1.07481e+07
1.0745e+07
1.07419e+07
1.07388e+07
1.07358e+07
1.07328e+07
1.07298e+07
1.07269e+07
1.0724e+07
1.07212e+07
1.07184e+07
1.07156e+07
1.07128e+07
1.07101e+07
1.07074e+07
1.07047e+07
1.07021e+07
1.06994e+07
1.06968e+07
1.06942e+07
1.06916e+07
1.06891e+07
1.06865e+07
1.0684e+07
1.06814e+07
1.06789e+07
1.06764e+07
1.06739e+07
1.06714e+07
1.06689e+07
1.06664e+07
1.06639e+07
1.06615e+07
1.0659e+07
1.06565e+07
1.0654e+07
1.06515e+07
1.06491e+07
1.06466e+07
1.06441e+07
1.06416e+07
1.06391e+07
1.06366e+07
1.06341e+07
1.06316e+07
1.0629e+07
1.06265e+07
1.0624e+07
1.06214e+07
1.06189e+07
1.06163e+07
1.06137e+07
1.06111e+07
1.06085e+07
1.06059e+07
1.06033e+07
1.06006e+07
1.0598e+07
1.05953e+07
1.05926e+07
1.05899e+07
1.05872e+07
1.05844e+07
1.05817e+07
1.05789e+07
1.05761e+07
1.05733e+07
1.05705e+07
1.05677e+07
1.05648e+07
1.0562e+07
1.05591e+07
1.05562e+07
1.05532e+07
1.05503e+07
1.05473e+07
1.05443e+07
1.05413e+07
1.05382e+07
1.05352e+07
1.05321e+07
1.0529e+07
1.05259e+07
1.05227e+07
1.05196e+07
1.05164e+07
1.05131e+07
1.05099e+07
1.05066e+07
1.05033e+07
1.05e+07
1.04967e+07
1.04933e+07
1.04899e+07
1.04865e+07
1.04831e+07
1.04796e+07
1.04761e+07
1.04726e+07
1.04691e+07
1.04655e+07
1.04619e+07
1.04582e+07
1.04546e+07
1.04509e+07
1.04472e+07
1.04434e+07
1.04397e+07
1.04359e+07
1.0432e+07
1.04282e+07
1.04243e+07
1.04204e+07
1.04164e+07
1.04124e+07
1.04084e+07
1.04044e+07
1.04003e+07
1.03962e+07
1.03921e+07
1.03879e+07
1.03837e+07
1.03795e+07
1.03752e+07
1.03709e+07
1.03666e+07
1.03622e+07
1.03578e+07
1.03534e+07
1.03489e+07
1.03444e+07
1.03399e+07
1.03353e+07
1.03307e+07
1.03261e+07
1.03214e+07
1.03167e+07
1.03119e+07
1.03071e+07
1.03023e+07
1.02975e+07
1.02926e+07
1.02877e+07
1.02827e+07
1.02778e+07
1.02728e+07
1.02678e+07
1.02628e+07
1.02579e+07
1.09563e+07
1.0955e+07
1.09522e+07
1.09481e+07
1.09424e+07
1.09353e+07
1.09283e+07
1.09243e+07
1.09266e+07
1.09391e+07
1.09393e+07
1.09284e+07
1.09056e+07
1.08668e+07
1.08101e+07
1.07984e+07
1.07941e+07
1.07914e+07
1.07886e+07
1.07858e+07
1.0783e+07
1.078e+07
1.07768e+07
1.07736e+07
1.07704e+07
1.07672e+07
1.0764e+07
1.07607e+07
1.07574e+07
1.07542e+07
1.0751e+07
1.07478e+07
1.07447e+07
1.07416e+07
1.07385e+07
1.07355e+07
1.07325e+07
1.07296e+07
1.07266e+07
1.07238e+07
1.07209e+07
1.07181e+07
1.07154e+07
1.07126e+07
1.07099e+07
1.07072e+07
1.07045e+07
1.07019e+07
1.06993e+07
1.06966e+07
1.06941e+07
1.06915e+07
1.06889e+07
1.06864e+07
1.06838e+07
1.06813e+07
1.06788e+07
1.06763e+07
1.06738e+07
1.06713e+07
1.06688e+07
1.06663e+07
1.06639e+07
1.06614e+07
1.06589e+07
1.06564e+07
1.0654e+07
1.06515e+07
1.0649e+07
1.06465e+07
1.0644e+07
1.06415e+07
1.06391e+07
1.06366e+07
1.0634e+07
1.06315e+07
1.0629e+07
1.06265e+07
1.06239e+07
1.06214e+07
1.06188e+07
1.06163e+07
1.06137e+07
1.06111e+07
1.06085e+07
1.06059e+07
1.06032e+07
1.06006e+07
1.05979e+07
1.05953e+07
1.05926e+07
1.05899e+07
1.05872e+07
1.05844e+07
1.05817e+07
1.05789e+07
1.05761e+07
1.05733e+07
1.05705e+07
1.05677e+07
1.05648e+07
1.0562e+07
1.05591e+07
1.05561e+07
1.05532e+07
1.05503e+07
1.05473e+07
1.05443e+07
1.05413e+07
1.05382e+07
1.05352e+07
1.05321e+07
1.0529e+07
1.05259e+07
1.05227e+07
1.05196e+07
1.05164e+07
1.05131e+07
1.05099e+07
1.05066e+07
1.05033e+07
1.05e+07
1.04967e+07
1.04933e+07
1.04899e+07
1.04865e+07
1.04831e+07
1.04796e+07
1.04761e+07
1.04726e+07
1.0469e+07
1.04655e+07
1.04619e+07
1.04582e+07
1.04546e+07
1.04509e+07
1.04472e+07
1.04434e+07
1.04397e+07
1.04359e+07
1.0432e+07
1.04282e+07
1.04243e+07
1.04204e+07
1.04164e+07
1.04124e+07
1.04084e+07
1.04044e+07
1.04003e+07
1.03962e+07
1.03921e+07
1.03879e+07
1.03837e+07
1.03795e+07
1.03752e+07
1.03709e+07
1.03666e+07
1.03622e+07
1.03578e+07
1.03534e+07
1.03489e+07
1.03444e+07
1.03399e+07
1.03353e+07
1.03307e+07
1.0326e+07
1.03214e+07
1.03167e+07
1.03119e+07
1.03071e+07
1.03023e+07
1.02975e+07
1.02926e+07
1.02877e+07
1.02827e+07
1.02778e+07
1.02728e+07
1.02678e+07
1.02628e+07
1.02578e+07
1.10253e+07
1.10242e+07
1.1022e+07
1.10189e+07
1.10148e+07
1.10101e+07
1.10053e+07
1.1001e+07
1.09974e+07
1.0994e+07
1.09876e+07
1.0977e+07
1.09623e+07
1.09447e+07
1.09286e+07
1.09239e+07
1.09347e+07
1.09317e+07
1.0917e+07
1.08896e+07
1.08455e+07
1.07845e+07
1.07766e+07
1.07734e+07
1.07704e+07
1.07672e+07
1.0764e+07
1.07604e+07
1.07571e+07
1.07539e+07
1.07506e+07
1.07474e+07
1.07442e+07
1.07411e+07
1.0738e+07
1.0735e+07
1.07321e+07
1.07291e+07
1.07262e+07
1.07234e+07
1.07205e+07
1.07178e+07
1.0715e+07
1.07123e+07
1.07096e+07
1.07069e+07
1.07042e+07
1.07016e+07
1.0699e+07
1.06964e+07
1.06938e+07
1.06913e+07
1.06887e+07
1.06862e+07
1.06837e+07
1.06812e+07
1.06787e+07
1.06762e+07
1.06737e+07
1.06712e+07
1.06687e+07
1.06662e+07
1.06638e+07
1.06613e+07
1.06588e+07
1.06563e+07
1.06539e+07
1.06514e+07
1.06489e+07
1.06465e+07
1.0644e+07
1.06415e+07
1.0639e+07
1.06365e+07
1.0634e+07
1.06315e+07
1.0629e+07
1.06264e+07
1.06239e+07
1.06214e+07
1.06188e+07
1.06162e+07
1.06137e+07
1.06111e+07
1.06085e+07
1.06058e+07
1.06032e+07
1.06006e+07
1.05979e+07
1.05953e+07
1.05926e+07
1.05899e+07
1.05872e+07
1.05844e+07
1.05817e+07
1.05789e+07
1.05761e+07
1.05733e+07
1.05705e+07
1.05677e+07
1.05648e+07
1.05619e+07
1.0559e+07
1.05561e+07
1.05532e+07
1.05503e+07
1.05473e+07
1.05443e+07
1.05413e+07
1.05382e+07
1.05352e+07
1.05321e+07
1.0529e+07
1.05259e+07
1.05227e+07
1.05195e+07
1.05164e+07
1.05131e+07
1.05099e+07
1.05066e+07
1.05033e+07
1.05e+07
1.04967e+07
1.04933e+07
1.04899e+07
1.04865e+07
1.04831e+07
1.04796e+07
1.04761e+07
1.04726e+07
1.0469e+07
1.04655e+07
1.04619e+07
1.04582e+07
1.04546e+07
1.04509e+07
1.04472e+07
1.04434e+07
1.04397e+07
1.04359e+07
1.0432e+07
1.04282e+07
1.04243e+07
1.04204e+07
1.04164e+07
1.04124e+07
1.04084e+07
1.04044e+07
1.04003e+07
1.03962e+07
1.03921e+07
1.03879e+07
1.03837e+07
1.03795e+07
1.03752e+07
1.03709e+07
1.03666e+07
1.03622e+07
1.03578e+07
1.03534e+07
1.03489e+07
1.03444e+07
1.03399e+07
1.03353e+07
1.03307e+07
1.0326e+07
1.03214e+07
1.03167e+07
1.03119e+07
1.03071e+07
1.03023e+07
1.02975e+07
1.02926e+07
1.02877e+07
1.02827e+07
1.02778e+07
1.02728e+07
1.02677e+07
1.02627e+07
1.02577e+07
1.10965e+07
1.10955e+07
1.10936e+07
1.10908e+07
1.10872e+07
1.1083e+07
1.10781e+07
1.10727e+07
1.10668e+07
1.106e+07
1.10517e+07
1.10417e+07
1.10302e+07
1.1018e+07
1.10063e+07
1.09965e+07
1.09881e+07
1.09768e+07
1.09609e+07
1.09403e+07
1.09159e+07
1.08919e+07
1.08786e+07
1.0876e+07
1.08576e+07
1.08224e+07
1.07676e+07
1.07596e+07
1.07564e+07
1.07535e+07
1.075e+07
1.07467e+07
1.07436e+07
1.07405e+07
1.07374e+07
1.07344e+07
1.07314e+07
1.07285e+07
1.07257e+07
1.07228e+07
1.072e+07
1.07173e+07
1.07145e+07
1.07118e+07
1.07092e+07
1.07065e+07
1.07039e+07
1.07013e+07
1.06987e+07
1.06961e+07
1.06935e+07
1.0691e+07
1.06885e+07
1.06859e+07
1.06834e+07
1.06809e+07
1.06784e+07
1.0676e+07
1.06735e+07
1.0671e+07
1.06685e+07
1.06661e+07
1.06636e+07
1.06612e+07
1.06587e+07
1.06562e+07
1.06538e+07
1.06513e+07
1.06488e+07
1.06464e+07
1.06439e+07
1.06414e+07
1.06389e+07
1.06364e+07
1.06339e+07
1.06314e+07
1.06289e+07
1.06264e+07
1.06238e+07
1.06213e+07
1.06187e+07
1.06162e+07
1.06136e+07
1.0611e+07
1.06084e+07
1.06058e+07
1.06032e+07
1.06005e+07
1.05979e+07
1.05952e+07
1.05925e+07
1.05898e+07
1.05871e+07
1.05844e+07
1.05817e+07
1.05789e+07
1.05761e+07
1.05733e+07
1.05705e+07
1.05677e+07
1.05648e+07
1.05619e+07
1.0559e+07
1.05561e+07
1.05532e+07
1.05502e+07
1.05473e+07
1.05443e+07
1.05413e+07
1.05382e+07
1.05352e+07
1.05321e+07
1.0529e+07
1.05259e+07
1.05227e+07
1.05195e+07
1.05163e+07
1.05131e+07
1.05099e+07
1.05066e+07
1.05033e+07
1.05e+07
1.04967e+07
1.04933e+07
1.04899e+07
1.04865e+07
1.04831e+07
1.04796e+07
1.04761e+07
1.04726e+07
1.0469e+07
1.04655e+07
1.04619e+07
1.04582e+07
1.04546e+07
1.04509e+07
1.04472e+07
1.04434e+07
1.04397e+07
1.04359e+07
1.0432e+07
1.04282e+07
1.04243e+07
1.04204e+07
1.04164e+07
1.04124e+07
1.04084e+07
1.04044e+07
1.04003e+07
1.03962e+07
1.03921e+07
1.03879e+07
1.03837e+07
1.03795e+07
1.03752e+07
1.03709e+07
1.03666e+07
1.03622e+07
1.03578e+07
1.03534e+07
1.03489e+07
1.03444e+07
1.03399e+07
1.03353e+07
1.03307e+07
1.0326e+07
1.03214e+07
1.03167e+07
1.03119e+07
1.03071e+07
1.03023e+07
1.02975e+07
1.02926e+07
1.02877e+07
1.02827e+07
1.02777e+07
1.02727e+07
1.02677e+07
1.02627e+07
1.02576e+07
1.11699e+07
1.11689e+07
1.1167e+07
1.11643e+07
1.11607e+07
1.11563e+07
1.11512e+07
1.11451e+07
1.11383e+07
1.11305e+07
1.11216e+07
1.11116e+07
1.11007e+07
1.1089e+07
1.10769e+07
1.10646e+07
1.10517e+07
1.10374e+07
1.10212e+07
1.10031e+07
1.09837e+07
1.09643e+07
1.09463e+07
1.09287e+07
1.09078e+07
1.08827e+07
1.08556e+07
1.08346e+07
1.0816e+07
1.0777e+07
1.07491e+07
1.07455e+07
1.07428e+07
1.07396e+07
1.07366e+07
1.07336e+07
1.07307e+07
1.07278e+07
1.07249e+07
1.07221e+07
1.07194e+07
1.07167e+07
1.0714e+07
1.07113e+07
1.07086e+07
1.0706e+07
1.07034e+07
1.07008e+07
1.06983e+07
1.06957e+07
1.06932e+07
1.06907e+07
1.06881e+07
1.06856e+07
1.06832e+07
1.06807e+07
1.06782e+07
1.06757e+07
1.06733e+07
1.06708e+07
1.06683e+07
1.06659e+07
1.06634e+07
1.0661e+07
1.06585e+07
1.06561e+07
1.06536e+07
1.06512e+07
1.06487e+07
1.06462e+07
1.06438e+07
1.06413e+07
1.06388e+07
1.06363e+07
1.06338e+07
1.06313e+07
1.06288e+07
1.06263e+07
1.06238e+07
1.06212e+07
1.06187e+07
1.06161e+07
1.06136e+07
1.0611e+07
1.06084e+07
1.06058e+07
1.06031e+07
1.06005e+07
1.05979e+07
1.05952e+07
1.05925e+07
1.05898e+07
1.05871e+07
1.05844e+07
1.05816e+07
1.05789e+07
1.05761e+07
1.05733e+07
1.05705e+07
1.05676e+07
1.05648e+07
1.05619e+07
1.0559e+07
1.05561e+07
1.05532e+07
1.05502e+07
1.05473e+07
1.05443e+07
1.05412e+07
1.05382e+07
1.05352e+07
1.05321e+07
1.0529e+07
1.05259e+07
1.05227e+07
1.05195e+07
1.05163e+07
1.05131e+07
1.05099e+07
1.05066e+07
1.05033e+07
1.05e+07
1.04967e+07
1.04933e+07
1.04899e+07
1.04865e+07
1.04831e+07
1.04796e+07
1.04761e+07
1.04726e+07
1.0469e+07
1.04655e+07
1.04619e+07
1.04582e+07
1.04546e+07
1.04509e+07
1.04472e+07
1.04434e+07
1.04397e+07
1.04359e+07
1.0432e+07
1.04282e+07
1.04243e+07
1.04204e+07
1.04164e+07
1.04124e+07
1.04084e+07
1.04044e+07
1.04003e+07
1.03962e+07
1.03921e+07
1.03879e+07
1.03837e+07
1.03795e+07
1.03752e+07
1.03709e+07
1.03666e+07
1.03622e+07
1.03578e+07
1.03534e+07
1.03489e+07
1.03444e+07
1.03399e+07
1.03353e+07
1.03307e+07
1.0326e+07
1.03214e+07
1.03166e+07
1.03119e+07
1.03071e+07
1.03023e+07
1.02974e+07
1.02926e+07
1.02876e+07
1.02827e+07
1.02777e+07
1.02727e+07
1.02677e+07
1.02626e+07
1.02575e+07
1.12457e+07
1.12446e+07
1.12427e+07
1.12399e+07
1.12361e+07
1.12315e+07
1.1226e+07
1.12195e+07
1.12121e+07
1.12038e+07
1.11944e+07
1.11841e+07
1.11729e+07
1.11608e+07
1.11479e+07
1.11342e+07
1.11197e+07
1.11041e+07
1.10874e+07
1.10695e+07
1.10507e+07
1.10313e+07
1.10114e+07
1.09908e+07
1.0969e+07
1.09457e+07
1.09215e+07
1.08974e+07
1.08726e+07
1.08452e+07
1.08184e+07
1.07923e+07
1.07458e+07
1.07382e+07
1.07356e+07
1.07326e+07
1.07297e+07
1.07269e+07
1.07241e+07
1.07213e+07
1.07186e+07
1.07159e+07
1.07133e+07
1.07106e+07
1.0708e+07
1.07054e+07
1.07029e+07
1.07003e+07
1.06978e+07
1.06953e+07
1.06928e+07
1.06903e+07
1.06878e+07
1.06853e+07
1.06828e+07
1.06804e+07
1.06779e+07
1.06754e+07
1.0673e+07
1.06706e+07
1.06681e+07
1.06657e+07
1.06632e+07
1.06608e+07
1.06584e+07
1.06559e+07
1.06535e+07
1.0651e+07
1.06486e+07
1.06461e+07
1.06436e+07
1.06412e+07
1.06387e+07
1.06362e+07
1.06337e+07
1.06312e+07
1.06287e+07
1.06262e+07
1.06237e+07
1.06212e+07
1.06186e+07
1.06161e+07
1.06135e+07
1.06109e+07
1.06083e+07
1.06057e+07
1.06031e+07
1.06005e+07
1.05978e+07
1.05952e+07
1.05925e+07
1.05898e+07
1.05871e+07
1.05843e+07
1.05816e+07
1.05788e+07
1.05761e+07
1.05733e+07
1.05704e+07
1.05676e+07
1.05648e+07
1.05619e+07
1.0559e+07
1.05561e+07
1.05532e+07
1.05502e+07
1.05472e+07
1.05443e+07
1.05412e+07
1.05382e+07
1.05351e+07
1.05321e+07
1.0529e+07
1.05258e+07
1.05227e+07
1.05195e+07
1.05163e+07
1.05131e+07
1.05099e+07
1.05066e+07
1.05033e+07
1.05e+07
1.04967e+07
1.04933e+07
1.04899e+07
1.04865e+07
1.04831e+07
1.04796e+07
1.04761e+07
1.04726e+07
1.0469e+07
1.04655e+07
1.04619e+07
1.04582e+07
1.04546e+07
1.04509e+07
1.04472e+07
1.04434e+07
1.04397e+07
1.04359e+07
1.0432e+07
1.04282e+07
1.04243e+07
1.04204e+07
1.04164e+07
1.04124e+07
1.04084e+07
1.04044e+07
1.04003e+07
1.03962e+07
1.03921e+07
1.03879e+07
1.03837e+07
1.03795e+07
1.03752e+07
1.03709e+07
1.03666e+07
1.03622e+07
1.03578e+07
1.03534e+07
1.03489e+07
1.03444e+07
1.03399e+07
1.03353e+07
1.03307e+07
1.0326e+07
1.03214e+07
1.03166e+07
1.03119e+07
1.03071e+07
1.03023e+07
1.02974e+07
1.02926e+07
1.02876e+07
1.02827e+07
1.02777e+07
1.02727e+07
1.02676e+07
1.02626e+07
1.02575e+07
1.13242e+07
1.1323e+07
1.13209e+07
1.13179e+07
1.1314e+07
1.13091e+07
1.13032e+07
1.12963e+07
1.12884e+07
1.12796e+07
1.12697e+07
1.12589e+07
1.1247e+07
1.12343e+07
1.12206e+07
1.1206e+07
1.11904e+07
1.11739e+07
1.11564e+07
1.11379e+07
1.11185e+07
1.10983e+07
1.10774e+07
1.10555e+07
1.10328e+07
1.10091e+07
1.09846e+07
1.09593e+07
1.09331e+07
1.09059e+07
1.08777e+07
1.08482e+07
1.08156e+07
1.07837e+07
1.07413e+07
1.07312e+07
1.07286e+07
1.07258e+07
1.0723e+07
1.07204e+07
1.07177e+07
1.07151e+07
1.07125e+07
1.07099e+07
1.07073e+07
1.07048e+07
1.07023e+07
1.06997e+07
1.06972e+07
1.06947e+07
1.06923e+07
1.06898e+07
1.06873e+07
1.06849e+07
1.06824e+07
1.068e+07
1.06776e+07
1.06751e+07
1.06727e+07
1.06703e+07
1.06678e+07
1.06654e+07
1.0663e+07
1.06606e+07
1.06581e+07
1.06557e+07
1.06533e+07
1.06508e+07
1.06484e+07
1.0646e+07
1.06435e+07
1.0641e+07
1.06386e+07
1.06361e+07
1.06336e+07
1.06311e+07
1.06286e+07
1.06261e+07
1.06236e+07
1.06211e+07
1.06185e+07
1.0616e+07
1.06134e+07
1.06109e+07
1.06083e+07
1.06057e+07
1.0603e+07
1.06004e+07
1.05978e+07
1.05951e+07
1.05924e+07
1.05897e+07
1.0587e+07
1.05843e+07
1.05816e+07
1.05788e+07
1.0576e+07
1.05732e+07
1.05704e+07
1.05676e+07
1.05647e+07
1.05619e+07
1.0559e+07
1.05561e+07
1.05531e+07
1.05502e+07
1.05472e+07
1.05442e+07
1.05412e+07
1.05382e+07
1.05351e+07
1.05321e+07
1.0529e+07
1.05258e+07
1.05227e+07
1.05195e+07
1.05163e+07
1.05131e+07
1.05099e+07
1.05066e+07
1.05033e+07
1.05e+07
1.04967e+07
1.04933e+07
1.04899e+07
1.04865e+07
1.04831e+07
1.04796e+07
1.04761e+07
1.04726e+07
1.0469e+07
1.04655e+07
1.04619e+07
1.04582e+07
1.04546e+07
1.04509e+07
1.04472e+07
1.04434e+07
1.04397e+07
1.04359e+07
1.0432e+07
1.04282e+07
1.04243e+07
1.04204e+07
1.04164e+07
1.04124e+07
1.04084e+07
1.04044e+07
1.04003e+07
1.03962e+07
1.03921e+07
1.03879e+07
1.03837e+07
1.03795e+07
1.03752e+07
1.03709e+07
1.03666e+07
1.03622e+07
1.03578e+07
1.03534e+07
1.03489e+07
1.03444e+07
1.03399e+07
1.03353e+07
1.03307e+07
1.0326e+07
1.03214e+07
1.03166e+07
1.03119e+07
1.03071e+07
1.03023e+07
1.02974e+07
1.02925e+07
1.02876e+07
1.02827e+07
1.02777e+07
1.02726e+07
1.02676e+07
1.02625e+07
1.02574e+07
1.14056e+07
1.14043e+07
1.14021e+07
1.13989e+07
1.13946e+07
1.13894e+07
1.13831e+07
1.13757e+07
1.13674e+07
1.13579e+07
1.13474e+07
1.13359e+07
1.13234e+07
1.13098e+07
1.12953e+07
1.12798e+07
1.12633e+07
1.12458e+07
1.12274e+07
1.1208e+07
1.11877e+07
1.11665e+07
1.11445e+07
1.11216e+07
1.10978e+07
1.10732e+07
1.10477e+07
1.10214e+07
1.09942e+07
1.09661e+07
1.0937e+07
1.09068e+07
1.08754e+07
1.08431e+07
1.08091e+07
1.07755e+07
1.07309e+07
1.07244e+07
1.07219e+07
1.07193e+07
1.07167e+07
1.07141e+07
1.07116e+07
1.07091e+07
1.07066e+07
1.07041e+07
1.07016e+07
1.06991e+07
1.06966e+07
1.06942e+07
1.06917e+07
1.06893e+07
1.06868e+07
1.06844e+07
1.0682e+07
1.06796e+07
1.06772e+07
1.06748e+07
1.06724e+07
1.06699e+07
1.06675e+07
1.06651e+07
1.06627e+07
1.06603e+07
1.06579e+07
1.06555e+07
1.06531e+07
1.06506e+07
1.06482e+07
1.06458e+07
1.06433e+07
1.06409e+07
1.06384e+07
1.0636e+07
1.06335e+07
1.0631e+07
1.06285e+07
1.0626e+07
1.06235e+07
1.0621e+07
1.06185e+07
1.06159e+07
1.06133e+07
1.06108e+07
1.06082e+07
1.06056e+07
1.0603e+07
1.06004e+07
1.05977e+07
1.05951e+07
1.05924e+07
1.05897e+07
1.0587e+07
1.05843e+07
1.05815e+07
1.05788e+07
1.0576e+07
1.05732e+07
1.05704e+07
1.05676e+07
1.05647e+07
1.05619e+07
1.0559e+07
1.05561e+07
1.05531e+07
1.05502e+07
1.05472e+07
1.05442e+07
1.05412e+07
1.05382e+07
1.05351e+07
1.0532e+07
1.05289e+07
1.05258e+07
1.05227e+07
1.05195e+07
1.05163e+07
1.05131e+07
1.05099e+07
1.05066e+07
1.05033e+07
1.05e+07
1.04967e+07
1.04933e+07
1.04899e+07
1.04865e+07
1.0483e+07
1.04796e+07
1.04761e+07
1.04726e+07
1.0469e+07
1.04654e+07
1.04618e+07
1.04582e+07
1.04546e+07
1.04509e+07
1.04472e+07
1.04434e+07
1.04396e+07
1.04358e+07
1.0432e+07
1.04282e+07
1.04243e+07
1.04204e+07
1.04164e+07
1.04124e+07
1.04084e+07
1.04044e+07
1.04003e+07
1.03962e+07
1.03921e+07
1.03879e+07
1.03837e+07
1.03795e+07
1.03752e+07
1.03709e+07
1.03666e+07
1.03622e+07
1.03578e+07
1.03534e+07
1.03489e+07
1.03444e+07
1.03398e+07
1.03353e+07
1.03307e+07
1.0326e+07
1.03213e+07
1.03166e+07
1.03119e+07
1.03071e+07
1.03023e+07
1.02974e+07
1.02925e+07
1.02876e+07
1.02826e+07
1.02776e+07
1.02726e+07
1.02675e+07
1.02624e+07
1.02573e+07
1.14903e+07
1.14889e+07
1.14865e+07
1.1483e+07
1.14784e+07
1.14728e+07
1.1466e+07
1.14581e+07
1.14491e+07
1.1439e+07
1.14278e+07
1.14155e+07
1.14021e+07
1.13877e+07
1.13722e+07
1.13557e+07
1.13381e+07
1.13196e+07
1.13001e+07
1.12797e+07
1.12583e+07
1.1236e+07
1.12128e+07
1.11888e+07
1.11638e+07
1.11381e+07
1.11115e+07
1.1084e+07
1.10557e+07
1.10266e+07
1.09965e+07
1.09656e+07
1.09338e+07
1.09012e+07
1.08676e+07
1.08333e+07
1.07976e+07
1.07625e+07
1.07214e+07
1.07182e+07
1.07156e+07
1.07131e+07
1.07106e+07
1.07082e+07
1.07057e+07
1.07032e+07
1.07008e+07
1.06984e+07
1.06959e+07
1.06935e+07
1.06911e+07
1.06887e+07
1.06863e+07
1.06839e+07
1.06815e+07
1.06791e+07
1.06767e+07
1.06744e+07
1.0672e+07
1.06696e+07
1.06672e+07
1.06648e+07
1.06624e+07
1.066e+07
1.06576e+07
1.06552e+07
1.06528e+07
1.06504e+07
1.0648e+07
1.06456e+07
1.06432e+07
1.06407e+07
1.06383e+07
1.06358e+07
1.06334e+07
1.06309e+07
1.06284e+07
1.06259e+07
1.06234e+07
1.06209e+07
1.06184e+07
1.06158e+07
1.06133e+07
1.06107e+07
1.06081e+07
1.06055e+07
1.06029e+07
1.06003e+07
1.05977e+07
1.0595e+07
1.05923e+07
1.05896e+07
1.05869e+07
1.05842e+07
1.05815e+07
1.05787e+07
1.0576e+07
1.05732e+07
1.05704e+07
1.05675e+07
1.05647e+07
1.05618e+07
1.05589e+07
1.0556e+07
1.05531e+07
1.05502e+07
1.05472e+07
1.05442e+07
1.05412e+07
1.05382e+07
1.05351e+07
1.0532e+07
1.05289e+07
1.05258e+07
1.05227e+07
1.05195e+07
1.05163e+07
1.05131e+07
1.05099e+07
1.05066e+07
1.05033e+07
1.05e+07
1.04967e+07
1.04933e+07
1.04899e+07
1.04865e+07
1.0483e+07
1.04796e+07
1.04761e+07
1.04726e+07
1.0469e+07
1.04654e+07
1.04618e+07
1.04582e+07
1.04546e+07
1.04509e+07
1.04472e+07
1.04434e+07
1.04396e+07
1.04358e+07
1.0432e+07
1.04282e+07
1.04243e+07
1.04203e+07
1.04164e+07
1.04124e+07
1.04084e+07
1.04044e+07
1.04003e+07
1.03962e+07
1.03921e+07
1.03879e+07
1.03837e+07
1.03795e+07
1.03752e+07
1.03709e+07
1.03666e+07
1.03622e+07
1.03578e+07
1.03534e+07
1.03489e+07
1.03444e+07
1.03398e+07
1.03353e+07
1.03307e+07
1.0326e+07
1.03213e+07
1.03166e+07
1.03119e+07
1.03071e+07
1.03023e+07
1.02974e+07
1.02925e+07
1.02876e+07
1.02826e+07
1.02776e+07
1.02726e+07
1.02675e+07
1.02624e+07
1.02572e+07
1.15786e+07
1.15771e+07
1.15745e+07
1.15707e+07
1.15657e+07
1.15595e+07
1.15522e+07
1.15437e+07
1.15339e+07
1.1523e+07
1.1511e+07
1.14977e+07
1.14834e+07
1.14679e+07
1.14514e+07
1.14337e+07
1.1415e+07
1.13953e+07
1.13746e+07
1.13529e+07
1.13303e+07
1.13068e+07
1.12823e+07
1.1257e+07
1.12308e+07
1.12038e+07
1.1176e+07
1.11473e+07
1.11178e+07
1.10875e+07
1.10564e+07
1.10245e+07
1.09918e+07
1.09584e+07
1.09241e+07
1.08891e+07
1.0853e+07
1.08155e+07
1.07748e+07
1.0727e+07
1.07144e+07
1.0712e+07
1.07096e+07
1.07072e+07
1.07048e+07
1.07024e+07
1.07e+07
1.06976e+07
1.06952e+07
1.06928e+07
1.06905e+07
1.06881e+07
1.06857e+07
1.06834e+07
1.0681e+07
1.06787e+07
1.06763e+07
1.06739e+07
1.06716e+07
1.06692e+07
1.06668e+07
1.06645e+07
1.06621e+07
1.06597e+07
1.06574e+07
1.0655e+07
1.06526e+07
1.06502e+07
1.06478e+07
1.06454e+07
1.0643e+07
1.06405e+07
1.06381e+07
1.06356e+07
1.06332e+07
1.06307e+07
1.06283e+07
1.06258e+07
1.06233e+07
1.06208e+07
1.06182e+07
1.06157e+07
1.06132e+07
1.06106e+07
1.0608e+07
1.06054e+07
1.06028e+07
1.06002e+07
1.05976e+07
1.05949e+07
1.05923e+07
1.05896e+07
1.05869e+07
1.05842e+07
1.05814e+07
1.05787e+07
1.05759e+07
1.05731e+07
1.05703e+07
1.05675e+07
1.05647e+07
1.05618e+07
1.05589e+07
1.0556e+07
1.05531e+07
1.05501e+07
1.05472e+07
1.05442e+07
1.05412e+07
1.05381e+07
1.05351e+07
1.0532e+07
1.05289e+07
1.05258e+07
1.05227e+07
1.05195e+07
1.05163e+07
1.05131e+07
1.05098e+07
1.05066e+07
1.05033e+07
1.05e+07
1.04966e+07
1.04933e+07