/*--------------------------------*- C++ -*----------------------------------*\
  =========                 |
  \\      /  F ield         | OpenFOAM: The Open Source CFD Toolbox
   \\    /   O peration     | Website:  https://openfoam.org
    \\  /    A nd           | Version:  10
     \\/     M anipulation  |
\*---------------------------------------------------------------------------*/
FoamFile
{
    format      ascii;
    class       volScalarField;
    location    "1.71";
    object      Sb;
}
// * * * * * * * * * * * * * * * * * * * * * * * * * * * * * * * * * * * * * //

dimensions      [0 0 0 0 0 0 0];

internalField   nonuniform List<scalar> 
12225
(
0.86452
0.863466
0.862156
0.860724
0.859265
0.857837
0.856479
0.855214
0.854055
0.853015
0.852104
0.851333
0.850723
0.850306
0.850147
0.850387
0.851401
0.854316
0.877144
0.875811
0.874171
0.872399
0.870611
0.868878
0.867243
0.865731
0.864354
0.863124
0.862048
0.861137
0.860411
0.859902
0.859671
0.85984
0.86066
0.862547
0.88505
0.88348
0.881566
0.879515
0.87746
0.875483
0.873628
0.871919
0.870371
0.868989
0.867782
0.866757
0.865931
0.865332
0.865011
0.865054
0.865596
0.866749
0.891338
0.889537
0.887362
0.885048
0.882747
0.880544
0.878489
0.876604
0.874899
0.873381
0.872052
0.870919
0.869994
0.869298
0.868865
0.868747
0.868997
0.869601
0.89685
0.894811
0.892369
0.889793
0.887246
0.884824
0.882573
0.880516
0.878661
0.877009
0.875561
0.874318
0.873289
0.872483
0.871922
0.871623
0.871592
0.871769
0.901949
0.899656
0.896934
0.894083
0.891286
0.888639
0.886192
0.883962
0.881954
0.880167
0.878597
0.87724
0.876097
0.875172
0.874467
0.87398
0.873687
0.873519
0.906837
0.904263
0.901237
0.898096
0.895035
0.892156
0.889504
0.887096
0.884932
0.883005
0.881306
0.879828
0.878563
0.877506
0.876648
0.875972
0.875439
0.874986
0.911643
0.908752
0.905393
0.901937
0.898594
0.895468
0.892603
0.890008
0.88768
0.885606
0.883772
0.882164
0.880769
0.879572
0.878555
0.877692
0.876942
0.876248
0.916462
0.913207
0.909475
0.905675
0.902027
0.898638
0.895545
0.892754
0.890253
0.888023
0.886046
0.8843
0.882766
0.881422
0.880244
0.879201
0.878252
0.877351
0.921375
0.917695
0.91354
0.909356
0.905376
0.901702
0.898367
0.895367
0.892682
0.890289
0.888159
0.886267
0.884587
0.883092
0.881754
0.880538
0.879408
0.878325
0.926457
0.922269
0.917628
0.913015
0.908669
0.904686
0.90109
0.897867
0.894988
0.892421
0.890131
0.888086
0.886255
0.884607
0.883109
0.88173
0.880434
0.879189
0.931784
0.92698
0.921771
0.916671
0.911919
0.9076
0.903724
0.900264
0.897181
0.894431
0.891974
0.88977
0.887783
0.88598
0.884327
0.882791
0.881342
0.879953
0.936594
0.931136
0.925351
0.919774
0.914633
0.91
0.905867
0.902191
0.898923
0.896009
0.893402
0.891057
0.888936
0.887001
0.885219
0.883559
0.881991
0.880492
0.942431
0.936058
0.929505
0.923311
0.917683
0.912663
0.908217
0.904285
0.900798
0.897693
0.894913
0.89241
0.890138
0.88806
0.88614
0.884348
0.882656
0.881042
0.949617
0.941918
0.934312
0.927306
0.921058
0.915561
0.910742
0.906507
0.902768
0.899447
0.896476
0.893799
0.891365
0.889133
0.887066
0.885132
0.883305
0.881563
0.958716
0.949008
0.939892
0.931781
0.924731
0.918647
0.913386
0.90881
0.904798
0.901249
0.898076
0.895209
0.892593
0.89018
0.887933
0.885823
0.883827
0.881927
0.971537
0.958742
0.947318
0.937639
0.929541
0.922711
0.916875
0.911821
0.907393
0.903444
0.899876
0.896629
0.893656
0.890913
0.888369
0.885996
0.883772
0.881679
0.954829
0.946049
0.937831
0.930401
0.923793
0.917951
0.91278
0.908182
0.904067
0.900381
0.897066
0.894008
0.891171
0.888531
0.886066
0.883759
0.881593
0.879555
0.938534
0.932592
0.926571
0.920842
0.915539
0.91069
0.906277
0.902262
0.8986
0.895249
0.892168
0.889363
0.886787
0.884385
0.882138
0.880031
0.87805
0.876183
0.926876
0.92254
0.917851
0.913192
0.908738
0.904563
0.900687
0.897103
0.893792
0.890728
0.887888
0.885248
0.882801
0.880538
0.878415
0.876419
0.874539
0.872766
0.916914
0.913598
0.909841
0.905978
0.902189
0.898565
0.895146
0.891941
0.888949
0.886156
0.883547
0.881109
0.878825
0.876699
0.874713
0.872842
0.871078
0.869412
0.908145
0.905513
0.902429
0.899174
0.895915
0.892746
0.889715
0.886843
0.884136
0.88159
0.879199
0.876951
0.874837
0.872847
0.870994
0.869245
0.867593
0.866031
0.900212
0.898063
0.895484
0.892705
0.889876
0.887087
0.884388
0.881808
0.879356
0.877036
0.874844
0.872774
0.87082
0.868974
0.867235
0.865601
0.864056
0.862594
0.892841
0.891052
0.888864
0.886468
0.883995
0.881528
0.879119
0.876795
0.874573
0.872457
0.870449
0.868544
0.86674
0.86503
0.86341
0.861887
0.860444
0.859077
0.885802
0.884292
0.882418
0.880338
0.878165
0.875977
0.873821
0.871728
0.869714
0.867786
0.865947
0.864196
0.862532
0.860951
0.859448
0.858029
0.856682
0.855403
0.878863
0.877579
0.875964
0.874151
0.872239
0.870297
0.868369
0.866485
0.864662
0.862908
0.861227
0.859622
0.85809
0.85663
0.85524
0.853918
0.852663
0.851471
0.871738
0.870644
0.869253
0.867674
0.865994
0.864275
0.862556
0.860866
0.859222
0.857633
0.856104
0.854638
0.853234
0.851891
0.850609
0.849384
0.848222
0.847114
0.863979
0.863053
0.86186
0.860495
0.859031
0.85752
0.856001
0.854498
0.853028
0.8516
0.85022
0.848891
0.847614
0.846388
0.845214
0.844089
0.843018
0.841994
0.854606
0.853836
0.852834
0.851675
0.850422
0.849119
0.8478
0.846486
0.845193
0.843931
0.842705
0.841518
0.840373
0.83927
0.838208
0.837187
0.836211
0.835272
0.839623
0.839009
0.838195
0.837243
0.8362
0.835104
0.833983
0.832856
0.831735
0.830631
0.829549
0.828492
0.827465
0.826466
0.825498
0.82456
0.823659
0.822805
0.0613581
0.0589481
0.0545124
0.0457577
0.0364095
0.0142775
0.00199503
0.000195573
1.32096e-05
1.1e-06
1.1e-06
1.1e-06
1.1e-06
1.1e-06
1.1e-06
1.1e-06
1.1e-06
1.1e-06
1.1e-06
1.1e-06
1.1e-06
1.1e-06
1.1e-06
1.1e-06
1.1e-06
1.1e-06
1.1e-06
1.1e-06
1.1e-06
1.1e-06
1.1e-06
1.1e-06
1.1e-06
1.1e-06
1.1e-06
1.1e-06
1.1e-06
1.1e-06
1.1e-06
1.1e-06
1.1e-06
1.1e-06
1.1e-06
1.1e-06
1.1e-06
1.1e-06
1.1e-06
1.1e-06
1.1e-06
1.1e-06
1.1e-06
1.1e-06
1.1e-06
1.1e-06
1.1e-06
1.1e-06
1.1e-06
1.1e-06
1.1e-06
1.1e-06
1.1e-06
1.1e-06
1.1e-06
1.1e-06
1.1e-06
1.1e-06
1.1e-06
1.1e-06
1.1e-06
1.1e-06
1.1e-06
1.1e-06
1.1e-06
1.1e-06
1.1e-06
1.1e-06
1.1e-06
1.1e-06
1.1e-06
1.1e-06
1.1e-06
1.1e-06
1.1e-06
1.1e-06
1.1e-06
1.1e-06
1.1e-06
1.1e-06
1.1e-06
1.1e-06
1.1e-06
1.1e-06
1.1e-06
1.1e-06
1.1e-06
1.1e-06
1.1e-06
1.1e-06
1.1e-06
1.1e-06
1.1e-06
1.1e-06
1.1e-06
1.1e-06
1.1e-06
1.1e-06
1.1e-06
1.1e-06
1.1e-06
1.1e-06
1.1e-06
1.1e-06
1.1e-06
1.1e-06
1.1e-06
1.1e-06
1.1e-06
1.1e-06
1.1e-06
1.1e-06
1.1e-06
1.1e-06
1.1e-06
1.1e-06
1.1e-06
1.1e-06
1.1e-06
1.1e-06
1.1e-06
1.1e-06
1.1e-06
1.1e-06
1.1e-06
1.1e-06
1.1e-06
1.1e-06
1.1e-06
1.1e-06
1.1e-06
1.1e-06
1.1e-06
1.1e-06
1.1e-06
1.1e-06
1.1e-06
1.1e-06
1.1e-06
1.1e-06
1.1e-06
1.1e-06
1.1e-06
1.1e-06
1.1e-06
1.1e-06
1.1e-06
1.1e-06
1.1e-06
1.1e-06
1.1e-06
1.1e-06
1.1e-06
1.1e-06
1.1e-06
1.1e-06
1.1e-06
1.1e-06
1.1e-06
1.1e-06
1.1e-06
1.1e-06
1.1e-06
1.1e-06
1.1e-06
1.1e-06
1.1e-06
1.1e-06
1.1e-06
1.1e-06
1.1e-06
1.1e-06
0.676222
0.675206
0.674175
0.670183
0.6702
0.639254
0.522143
0.325182
0.128765
2.76389e-05
1.1e-06
1.1e-06
1.1e-06
1.1e-06
1.1e-06
1.1e-06
1.1e-06
1.1e-06
1.1e-06
1.1e-06
1.1e-06
1.1e-06
1.1e-06
1.1e-06
1.1e-06
1.1e-06
1.1e-06
1.1e-06
1.1e-06
1.1e-06
1.1e-06
1.1e-06
1.1e-06
1.1e-06
1.1e-06
1.1e-06
1.1e-06
1.1e-06
1.1e-06
1.1e-06
1.1e-06
1.1e-06
1.1e-06
1.1e-06
1.1e-06
1.1e-06
1.1e-06
1.1e-06
1.1e-06
1.1e-06
1.1e-06
1.1e-06
1.1e-06
1.1e-06
1.1e-06
1.1e-06
1.1e-06
1.1e-06
1.1e-06
1.1e-06
1.1e-06
1.1e-06
1.1e-06
1.1e-06
1.1e-06
1.1e-06
1.1e-06
1.1e-06
1.1e-06
1.1e-06
1.1e-06
1.1e-06
1.1e-06
1.1e-06
1.1e-06
1.1e-06
1.1e-06
1.1e-06
1.1e-06
1.1e-06
1.1e-06
1.1e-06
1.1e-06
1.1e-06
1.1e-06
1.1e-06
1.1e-06
1.1e-06
1.1e-06
1.1e-06
1.1e-06
1.1e-06
1.1e-06
1.1e-06
1.1e-06
1.1e-06
1.1e-06
1.1e-06
1.1e-06
1.1e-06
1.1e-06
1.1e-06
1.1e-06
1.1e-06
1.1e-06
1.1e-06
1.1e-06
1.1e-06
1.1e-06
1.1e-06
1.1e-06
1.1e-06
1.1e-06
1.1e-06
1.1e-06
1.1e-06
1.1e-06
1.1e-06
1.1e-06
1.1e-06
1.1e-06
1.1e-06
1.1e-06
1.1e-06
1.1e-06
1.1e-06
1.1e-06
1.1e-06
1.1e-06
1.1e-06
1.1e-06
1.1e-06
1.1e-06
1.1e-06
1.1e-06
1.1e-06
1.1e-06
1.1e-06
1.1e-06
1.1e-06
1.1e-06
1.1e-06
1.1e-06
1.1e-06
1.1e-06
1.1e-06
1.1e-06
1.1e-06
1.1e-06
1.1e-06
1.1e-06
1.1e-06
1.1e-06
1.1e-06
1.1e-06
1.1e-06
1.1e-06
1.1e-06
1.1e-06
1.1e-06
1.1e-06
1.1e-06
1.1e-06
1.1e-06
1.1e-06
1.1e-06
1.1e-06
1.1e-06
1.1e-06
1.1e-06
1.1e-06
1.1e-06
1.1e-06
1.1e-06
1.1e-06
1.1e-06
1.1e-06
1.1e-06
1.1e-06
1.1e-06
0.781657
0.78161
0.78157
0.780982
0.780616
0.784602
0.791824
0.799557
0.806034
0.807652
0.798397
0.783964
0.758269
0.685365
0.378301
0.117101
4.60247e-05
1.1e-06
1.1e-06
1.1e-06
1.1e-06
1.1e-06
1.1e-06
1.1e-06
1.1e-06
1.1e-06
1.1e-06
1.1e-06
1.1e-06
1.1e-06
1.1e-06
1.1e-06
1.1e-06
1.1e-06
1.1e-06
1.1e-06
1.1e-06
1.1e-06
1.1e-06
1.1e-06
1.1e-06
1.1e-06
1.1e-06
1.1e-06
1.1e-06
1.1e-06
1.1e-06
1.1e-06
1.1e-06
1.1e-06
1.1e-06
1.1e-06
1.1e-06
1.1e-06
1.1e-06
1.1e-06
1.1e-06
1.1e-06
1.1e-06
1.1e-06
1.1e-06
1.1e-06
1.1e-06
1.1e-06
1.1e-06
1.1e-06
1.1e-06
1.1e-06
1.1e-06
1.1e-06
1.1e-06
1.1e-06
1.1e-06
1.1e-06
1.1e-06
1.1e-06
1.1e-06
1.1e-06
1.1e-06
1.1e-06
1.1e-06
1.1e-06
1.1e-06
1.1e-06
1.1e-06
1.1e-06
1.1e-06
1.1e-06
1.1e-06
1.1e-06
1.1e-06
1.1e-06
1.1e-06
1.1e-06
1.1e-06
1.1e-06
1.1e-06
1.1e-06
1.1e-06
1.1e-06
1.1e-06
1.1e-06
1.1e-06
1.1e-06
1.1e-06
1.1e-06
1.1e-06
1.1e-06
1.1e-06
1.1e-06
1.1e-06
1.1e-06
1.1e-06
1.1e-06
1.1e-06
1.1e-06
1.1e-06
1.1e-06
1.1e-06
1.1e-06
1.1e-06
1.1e-06
1.1e-06
1.1e-06
1.1e-06
1.1e-06
1.1e-06
1.1e-06
1.1e-06
1.1e-06
1.1e-06
1.1e-06
1.1e-06
1.1e-06
1.1e-06
1.1e-06
1.1e-06
1.1e-06
1.1e-06
1.1e-06
1.1e-06
1.1e-06
1.1e-06
1.1e-06
1.1e-06
1.1e-06
1.1e-06
1.1e-06
1.1e-06
1.1e-06
1.1e-06
1.1e-06
1.1e-06
1.1e-06
1.1e-06
1.1e-06
1.1e-06
1.1e-06
1.1e-06
1.1e-06
1.1e-06
1.1e-06
1.1e-06
1.1e-06
1.1e-06
1.1e-06
1.1e-06
1.1e-06
1.1e-06
1.1e-06
1.1e-06
1.1e-06
1.1e-06
1.1e-06
1.1e-06
1.1e-06
1.1e-06
1.1e-06
1.1e-06
1.1e-06
0.801415
0.801434
0.801439
0.801249
0.801009
0.801625
0.80323
0.80566
0.808579
0.811742
0.815134
0.818234
0.821087
0.823556
0.825645
0.826676
0.823369
0.812684
0.796373
0.767654
0.679991
0.295264
0.0205718
1.1e-06
1.1e-06
1.1e-06
1.1e-06
1.1e-06
1.1e-06
1.1e-06
1.1e-06
1.1e-06
1.1e-06
1.1e-06
1.1e-06
1.1e-06
1.1e-06
1.1e-06
1.1e-06
1.1e-06
1.1e-06
1.1e-06
1.1e-06
1.1e-06
1.1e-06
1.1e-06
1.1e-06
1.1e-06
1.1e-06
1.1e-06
1.1e-06
1.1e-06
1.1e-06
1.1e-06
1.1e-06
1.1e-06
1.1e-06
1.1e-06
1.1e-06
1.1e-06
1.1e-06
1.1e-06
1.1e-06
1.1e-06
1.1e-06
1.1e-06
1.1e-06
1.1e-06
1.1e-06
1.1e-06
1.1e-06
1.1e-06
1.1e-06
1.1e-06
1.1e-06
1.1e-06
1.1e-06
1.1e-06
1.1e-06
1.1e-06
1.1e-06
1.1e-06
1.1e-06
1.1e-06
1.1e-06
1.1e-06
1.1e-06
1.1e-06
1.1e-06
1.1e-06
1.1e-06
1.1e-06
1.1e-06
1.1e-06
1.1e-06
1.1e-06
1.1e-06
1.1e-06
1.1e-06
1.1e-06
1.1e-06
1.1e-06
1.1e-06
1.1e-06
1.1e-06
1.1e-06
1.1e-06
1.1e-06
1.1e-06
1.1e-06
1.1e-06
1.1e-06
1.1e-06
1.1e-06
1.1e-06
1.1e-06
1.1e-06
1.1e-06
1.1e-06
1.1e-06
1.1e-06
1.1e-06
1.1e-06
1.1e-06
1.1e-06
1.1e-06
1.1e-06
1.1e-06
1.1e-06
1.1e-06
1.1e-06
1.1e-06
1.1e-06
1.1e-06
1.1e-06
1.1e-06
1.1e-06
1.1e-06
1.1e-06
1.1e-06
1.1e-06
1.1e-06
1.1e-06
1.1e-06
1.1e-06
1.1e-06
1.1e-06
1.1e-06
1.1e-06
1.1e-06
1.1e-06
1.1e-06
1.1e-06
1.1e-06
1.1e-06
1.1e-06
1.1e-06
1.1e-06
1.1e-06
1.1e-06
1.1e-06
1.1e-06
1.1e-06
1.1e-06
1.1e-06
1.1e-06
1.1e-06
1.1e-06
1.1e-06
1.1e-06
1.1e-06
1.1e-06
1.1e-06
1.1e-06
1.1e-06
1.1e-06
1.1e-06
1.1e-06
1.1e-06
1.1e-06
0.811137
0.811193
0.811217
0.811246
0.811116
0.811156
0.811537
0.812262
0.813314
0.814637
0.816202
0.817844
0.819473
0.820985
0.822057
0.822666
0.823119
0.82335
0.823208
0.822524
0.821191
0.819684
0.81746
0.803414
0.77704
0.7024
0.322593
0.0375458
2.76773e-06
1.1e-06
1.1e-06
1.1e-06
1.1e-06
1.1e-06
1.1e-06
1.1e-06
1.1e-06
1.1e-06
1.1e-06
1.1e-06
1.1e-06
1.1e-06
1.1e-06
1.1e-06
1.1e-06
1.1e-06
1.1e-06
1.1e-06
1.1e-06
1.1e-06
1.1e-06
1.1e-06
1.1e-06
1.1e-06
1.1e-06
1.1e-06
1.1e-06
1.1e-06
1.1e-06
1.1e-06
1.1e-06
1.1e-06
1.1e-06
1.1e-06
1.1e-06
1.1e-06
1.1e-06
1.1e-06
1.1e-06
1.1e-06
1.1e-06
1.1e-06
1.1e-06
1.1e-06
1.1e-06
1.1e-06
1.1e-06
1.1e-06
1.1e-06
1.1e-06
1.1e-06
1.1e-06
1.1e-06
1.1e-06
1.1e-06
1.1e-06
1.1e-06
1.1e-06
1.1e-06
1.1e-06
1.1e-06
1.1e-06
1.1e-06
1.1e-06
1.1e-06
1.1e-06
1.1e-06
1.1e-06
1.1e-06
1.1e-06
1.1e-06
1.1e-06
1.1e-06
1.1e-06
1.1e-06
1.1e-06
1.1e-06
1.1e-06
1.1e-06
1.1e-06
1.1e-06
1.1e-06
1.1e-06
1.1e-06
1.1e-06
1.1e-06
1.1e-06
1.1e-06
1.1e-06
1.1e-06
1.1e-06
1.1e-06
1.1e-06
1.1e-06
1.1e-06
1.1e-06
1.1e-06
1.1e-06
1.1e-06
1.1e-06
1.1e-06
1.1e-06
1.1e-06
1.1e-06
1.1e-06
1.1e-06
1.1e-06
1.1e-06
1.1e-06
1.1e-06
1.1e-06
1.1e-06
1.1e-06
1.1e-06
1.1e-06
1.1e-06
1.1e-06
1.1e-06
1.1e-06
1.1e-06
1.1e-06
1.1e-06
1.1e-06
1.1e-06
1.1e-06
1.1e-06
1.1e-06
1.1e-06
1.1e-06
1.1e-06
1.1e-06
1.1e-06
1.1e-06
1.1e-06
1.1e-06
1.1e-06
1.1e-06
1.1e-06
1.1e-06
1.1e-06
1.1e-06
1.1e-06
1.1e-06
1.1e-06
1.1e-06
1.1e-06
1.1e-06
1.1e-06
1.1e-06
1.1e-06
0.817569
0.817665
0.81772
0.817807
0.817755
0.817692
0.817723
0.817882
0.818179
0.818605
0.819146
0.819758
0.820401
0.821013
0.8215
0.821785
0.821891
0.821812
0.821485
0.82083
0.819753
0.818265
0.81631
0.813958
0.810942
0.806598
0.800148
0.790703
0.757151
0.565543
0.124936
2.46363e-05
1.1e-06
1.1e-06
1.1e-06
1.1e-06
1.1e-06
1.1e-06
1.1e-06
1.1e-06
1.1e-06
1.1e-06
1.1e-06
1.1e-06
1.1e-06
1.1e-06
1.1e-06
1.1e-06
1.1e-06
1.1e-06
1.1e-06
1.1e-06
1.1e-06
1.1e-06
1.1e-06
1.1e-06
1.1e-06
1.1e-06
1.1e-06
1.1e-06
1.1e-06
1.1e-06
1.1e-06
1.1e-06
1.1e-06
1.1e-06
1.1e-06
1.1e-06
1.1e-06
1.1e-06
1.1e-06
1.1e-06
1.1e-06
1.1e-06
1.1e-06
1.1e-06
1.1e-06
1.1e-06
1.1e-06
1.1e-06
1.1e-06
1.1e-06
1.1e-06
1.1e-06
1.1e-06
1.1e-06
1.1e-06
1.1e-06
1.1e-06
1.1e-06
1.1e-06
1.1e-06
1.1e-06
1.1e-06
1.1e-06
1.1e-06
1.1e-06
1.1e-06
1.1e-06
1.1e-06
1.1e-06
1.1e-06
1.1e-06
1.1e-06
1.1e-06
1.1e-06
1.1e-06
1.1e-06
1.1e-06
1.1e-06
1.1e-06
1.1e-06
1.1e-06
1.1e-06
1.1e-06
1.1e-06
1.1e-06
1.1e-06
1.1e-06
1.1e-06
1.1e-06
1.1e-06
1.1e-06
1.1e-06
1.1e-06
1.1e-06
1.1e-06
1.1e-06
1.1e-06
1.1e-06
1.1e-06
1.1e-06
1.1e-06
1.1e-06
1.1e-06
1.1e-06
1.1e-06
1.1e-06
1.1e-06
1.1e-06
1.1e-06
1.1e-06
1.1e-06
1.1e-06
1.1e-06
1.1e-06
1.1e-06
1.1e-06
1.1e-06
1.1e-06
1.1e-06
1.1e-06
1.1e-06
1.1e-06
1.1e-06
1.1e-06
1.1e-06
1.1e-06
1.1e-06
1.1e-06
1.1e-06
1.1e-06
1.1e-06
1.1e-06
1.1e-06
1.1e-06
1.1e-06
1.1e-06
1.1e-06
1.1e-06
1.1e-06
1.1e-06
1.1e-06
1.1e-06
1.1e-06
1.1e-06
1.1e-06
1.1e-06
1.1e-06
1.1e-06
0.822456
0.822601
0.822697
0.822777
0.822777
0.822729
0.822676
0.822643
0.822641
0.822674
0.822734
0.822812
0.822893
0.822946
0.822946
0.822858
0.822662
0.822337
0.821853
0.82117
0.820263
0.819108
0.817665
0.815904
0.813749
0.811097
0.807833
0.803764
0.798318
0.79008
0.774156
0.723228
0.342305
0.0315004
1.70675e-06
1.1e-06
1.1e-06
1.1e-06
1.1e-06
1.1e-06
1.1e-06
1.1e-06
1.1e-06
1.1e-06
1.1e-06
1.1e-06
1.1e-06
1.1e-06
1.1e-06
1.1e-06
1.1e-06
1.1e-06
1.1e-06
1.1e-06
1.1e-06
1.1e-06
1.1e-06
1.1e-06
1.1e-06
1.1e-06
1.1e-06
1.1e-06
1.1e-06
1.1e-06
1.1e-06
1.1e-06
1.1e-06
1.1e-06
1.1e-06
1.1e-06
1.1e-06
1.1e-06
1.1e-06
1.1e-06
1.1e-06
1.1e-06
1.1e-06
1.1e-06
1.1e-06
1.1e-06
1.1e-06
1.1e-06
1.1e-06
1.1e-06
1.1e-06
1.1e-06
1.1e-06
1.1e-06
1.1e-06
1.1e-06
1.1e-06
1.1e-06
1.1e-06
1.1e-06
1.1e-06
1.1e-06
1.1e-06
1.1e-06
1.1e-06
1.1e-06
1.1e-06
1.1e-06
1.1e-06
1.1e-06
1.1e-06
1.1e-06
1.1e-06
1.1e-06
1.1e-06
1.1e-06
1.1e-06
1.1e-06
1.1e-06
1.1e-06
1.1e-06
1.1e-06
1.1e-06
1.1e-06
1.1e-06
1.1e-06
1.1e-06
1.1e-06
1.1e-06
1.1e-06
1.1e-06
1.1e-06
1.1e-06
1.1e-06
1.1e-06
1.1e-06
1.1e-06
1.1e-06
1.1e-06
1.1e-06
1.1e-06
1.1e-06
1.1e-06
1.1e-06
1.1e-06
1.1e-06
1.1e-06
1.1e-06
1.1e-06
1.1e-06
1.1e-06
1.1e-06
1.1e-06
1.1e-06
1.1e-06
1.1e-06
1.1e-06
1.1e-06
1.1e-06
1.1e-06
1.1e-06
1.1e-06
1.1e-06
1.1e-06
1.1e-06
1.1e-06
1.1e-06
1.1e-06
1.1e-06
1.1e-06
1.1e-06
1.1e-06
1.1e-06
1.1e-06
1.1e-06
1.1e-06
1.1e-06
1.1e-06
1.1e-06
1.1e-06
1.1e-06
1.1e-06
1.1e-06
1.1e-06
1.1e-06
1.1e-06
0.826458
0.826655
0.826799
0.826902
0.82694
0.826921
0.826859
0.826767
0.82665
0.826515
0.82636
0.826185
0.825984
0.825751
0.825473
0.825137
0.824729
0.824237
0.823639
0.822918
0.822058
0.821042
0.819854
0.818474
0.816878
0.81503
0.812875
0.810346
0.807308
0.803501
0.798371
0.790734
0.776679
0.735901
0.40658
0.0378325
2.21596e-06
1.13715e-06
1.1e-06
1.1e-06
1.1e-06
1.1e-06
1.1e-06
1.1e-06
1.1e-06
1.1e-06
1.1e-06
1.1e-06
1.1e-06
1.1e-06
1.1e-06
1.1e-06
1.1e-06
1.1e-06
1.1e-06
1.1e-06
1.1e-06
1.1e-06
1.1e-06
1.1e-06
1.1e-06
1.1e-06
1.1e-06
1.1e-06
1.1e-06
1.1e-06
1.1e-06
1.1e-06
1.1e-06
1.1e-06
1.1e-06
1.1e-06
1.1e-06
1.1e-06
1.1e-06
1.1e-06
1.1e-06
1.1e-06
1.1e-06
1.1e-06
1.1e-06
1.1e-06
1.1e-06
1.1e-06
1.1e-06
1.1e-06
1.1e-06
1.1e-06
1.1e-06
1.1e-06
1.1e-06
1.1e-06
1.1e-06
1.1e-06
1.1e-06
1.1e-06
1.1e-06
1.1e-06
1.1e-06
1.1e-06
1.1e-06
1.1e-06
1.1e-06
1.1e-06
1.1e-06
1.1e-06
1.1e-06
1.1e-06
1.1e-06
1.1e-06
1.1e-06
1.1e-06
1.1e-06
1.1e-06
1.1e-06
1.1e-06
1.1e-06
1.1e-06
1.1e-06
1.1e-06
1.1e-06
1.1e-06
1.1e-06
1.1e-06
1.1e-06
1.1e-06
1.1e-06
1.1e-06
1.1e-06
1.1e-06
1.1e-06
1.1e-06
1.1e-06
1.1e-06
1.1e-06
1.1e-06
1.1e-06
1.1e-06
1.1e-06
1.1e-06
1.1e-06
1.1e-06
1.1e-06
1.1e-06
1.1e-06
1.1e-06
1.1e-06
1.1e-06
1.1e-06
1.1e-06
1.1e-06
1.1e-06
1.1e-06
1.1e-06
1.1e-06
1.1e-06
1.1e-06
1.1e-06
1.1e-06
1.1e-06
1.1e-06
1.1e-06
1.1e-06
1.1e-06
1.1e-06
1.1e-06
1.1e-06
1.1e-06
1.1e-06
1.1e-06
1.1e-06
1.1e-06
1.1e-06
1.1e-06
1.1e-06
1.1e-06
1.1e-06
1.1e-06
1.1e-06
1.1e-06
0.829892
0.830144
0.830339
0.830479
0.830557
0.83057
0.830525
0.830425
0.830275
0.830077
0.829834
0.829546
0.829214
0.828836
0.82841
0.827933
0.827398
0.826799
0.826127
0.825372
0.824525
0.823577
0.822517
0.821335
0.820019
0.818555
0.816922
0.815088
0.813002
0.810579
0.807675
0.804015
0.799005
0.791245
0.77606
0.724691
0.317558
0.0170983
1.94538e-05
1.1e-06
1.1e-06
1.1e-06
1.1e-06
1.1e-06
1.1e-06
1.1e-06
1.1e-06
1.1e-06
1.1e-06
1.1e-06
1.1e-06
1.1e-06
1.1e-06
1.1e-06
1.1e-06
1.1e-06
1.1e-06
1.1e-06
1.1e-06
1.1e-06
1.1e-06
1.1e-06
1.1e-06
1.1e-06
1.1e-06
1.1e-06
1.1e-06
1.1e-06
1.1e-06
1.1e-06
1.1e-06
1.1e-06
1.1e-06
1.1e-06
1.1e-06
1.1e-06
1.1e-06
1.1e-06
1.1e-06
1.1e-06
1.1e-06
1.1e-06
1.1e-06
1.1e-06
1.1e-06
1.1e-06
1.1e-06
1.1e-06
1.1e-06
1.1e-06
1.1e-06
1.1e-06
1.1e-06
1.1e-06
1.1e-06
1.1e-06
1.1e-06
1.1e-06
1.1e-06
1.1e-06
1.1e-06
1.1e-06
1.1e-06
1.1e-06
1.1e-06
1.1e-06
1.1e-06
1.1e-06
1.1e-06
1.1e-06
1.1e-06
1.1e-06
1.1e-06
1.1e-06
1.1e-06
1.1e-06
1.1e-06
1.1e-06
1.1e-06
1.1e-06
1.1e-06
1.1e-06
1.1e-06
1.1e-06
1.1e-06
1.1e-06
1.1e-06
1.1e-06
1.1e-06
1.1e-06
1.1e-06
1.1e-06
1.1e-06
1.1e-06
1.1e-06
1.1e-06
1.1e-06
1.1e-06
1.1e-06
1.1e-06
1.1e-06
1.1e-06
1.1e-06
1.1e-06
1.1e-06
1.1e-06
1.1e-06
1.1e-06
1.1e-06
1.1e-06
1.1e-06
1.1e-06
1.1e-06
1.1e-06
1.1e-06
1.1e-06
1.1e-06
1.1e-06
1.1e-06
1.1e-06
1.1e-06
1.1e-06
1.1e-06
1.1e-06
1.1e-06
1.1e-06
1.1e-06
1.1e-06
1.1e-06
1.1e-06
1.1e-06
1.1e-06
1.1e-06
1.1e-06
1.1e-06
1.1e-06
1.1e-06
1.1e-06
1.1e-06
1.1e-06
0.832943
0.833252
0.8335
0.833685
0.833802
0.833851
0.833831
0.833743
0.833591
0.833376
0.8331
0.832766
0.832374
0.831927
0.831425
0.830868
0.830257
0.829588
0.828859
0.828068
0.827209
0.826279
0.825273
0.824186
0.823009
0.821737
0.820356
0.818851
0.8172
0.815364
0.813284
0.810861
0.807915
0.804109
0.798712
0.789816
0.770257
0.672368
0.141148
0.000499511
1.11245e-06
1.1e-06
1.1e-06
1.1e-06
1.1e-06
1.1e-06
1.1e-06
1.1e-06
1.1e-06
1.1e-06
1.1e-06
1.1e-06
1.1e-06
1.1e-06
1.1e-06
1.1e-06
1.1e-06
1.1e-06
1.1e-06
1.1e-06
1.1e-06
1.1e-06
1.1e-06
1.1e-06
1.1e-06
1.1e-06
1.1e-06
1.1e-06
1.1e-06
1.1e-06
1.1e-06
1.1e-06
1.1e-06
1.1e-06
1.1e-06
1.1e-06
1.1e-06
1.1e-06
1.1e-06
1.1e-06
1.1e-06
1.1e-06
1.1e-06
1.1e-06
1.1e-06
1.1e-06
1.1e-06
1.1e-06
1.1e-06
1.1e-06
1.1e-06
1.1e-06
1.1e-06
1.1e-06
1.1e-06
1.1e-06
1.1e-06
1.1e-06
1.1e-06
1.1e-06
1.1e-06
1.1e-06
1.1e-06
1.1e-06
1.1e-06
1.1e-06
1.1e-06
1.1e-06
1.1e-06
1.1e-06
1.1e-06
1.1e-06
1.1e-06
1.1e-06
1.1e-06
1.1e-06
1.1e-06
1.1e-06
1.1e-06
1.1e-06
1.1e-06
1.1e-06
1.1e-06
1.1e-06
1.1e-06
1.1e-06
1.1e-06
1.1e-06
1.1e-06
1.1e-06
1.1e-06
1.1e-06
1.1e-06
1.1e-06
1.1e-06
1.1e-06
1.1e-06
1.1e-06
1.1e-06
1.1e-06
1.1e-06
1.1e-06
1.1e-06
1.1e-06
1.1e-06
1.1e-06
1.1e-06
1.1e-06
1.1e-06
1.1e-06
1.1e-06
1.1e-06
1.1e-06
1.1e-06
1.1e-06
1.1e-06
1.1e-06
1.1e-06
1.1e-06
1.1e-06
1.1e-06
1.1e-06
1.1e-06
1.1e-06
1.1e-06
1.1e-06
1.1e-06
1.1e-06
1.1e-06
1.1e-06
1.1e-06
1.1e-06
1.1e-06
1.1e-06
1.1e-06
1.1e-06
1.1e-06
1.1e-06
1.1e-06
1.1e-06
0.83573
0.836098
0.8364
0.836633
0.836792
0.836876
0.836884
0.836816
0.836674
0.836458
0.836171
0.835816
0.835395
0.834911
0.834367
0.833764
0.833105
0.832391
0.831622
0.830799
0.829922
0.828988
0.827998
0.826947
0.825833
0.824651
0.823395
0.822055
0.820619
0.819065
0.817364
0.815468
0.813301
0.810734
0.807538
0.803252
0.796806
0.784969
0.750643
0.436215
0.0144478
1.1287e-06
1.1e-06
1.1e-06
1.1e-06
1.1e-06
1.1e-06
1.1e-06
1.1e-06
1.1e-06
1.1e-06
1.1e-06
1.1e-06
1.1e-06
1.1e-06
1.1e-06
1.1e-06
1.1e-06
1.1e-06
1.1e-06
1.1e-06
1.1e-06
1.1e-06
1.1e-06
1.1e-06
1.1e-06
1.1e-06
1.1e-06
1.1e-06
1.1e-06
1.1e-06
1.1e-06
1.1e-06
1.1e-06
1.1e-06
1.1e-06
1.1e-06
1.1e-06
1.1e-06
1.1e-06
1.1e-06
1.1e-06
1.1e-06
1.1e-06
1.1e-06
1.1e-06
1.1e-06
1.1e-06
1.1e-06
1.1e-06
1.1e-06
1.1e-06
1.1e-06
1.1e-06
1.1e-06
1.1e-06
1.1e-06
1.1e-06
1.1e-06
1.1e-06
1.1e-06
1.1e-06
1.1e-06
1.1e-06
1.1e-06
1.1e-06
1.1e-06
1.1e-06
1.1e-06
1.1e-06
1.1e-06
1.1e-06
1.1e-06
1.1e-06
1.1e-06
1.1e-06
1.1e-06
1.1e-06
1.1e-06
1.1e-06
1.1e-06
1.1e-06
1.1e-06
1.1e-06
1.1e-06
1.1e-06
1.1e-06
1.1e-06
1.1e-06
1.1e-06
1.1e-06
1.1e-06
1.1e-06
1.1e-06
1.1e-06
1.1e-06
1.1e-06
1.1e-06
1.1e-06
1.1e-06
1.1e-06
1.1e-06
1.1e-06
1.1e-06
1.1e-06
1.1e-06
1.1e-06
1.1e-06
1.1e-06
1.1e-06
1.1e-06
1.1e-06
1.1e-06
1.1e-06
1.1e-06
1.1e-06
1.1e-06
1.1e-06
1.1e-06
1.1e-06
1.1e-06
1.1e-06
1.1e-06
1.1e-06
1.1e-06
1.1e-06
1.1e-06
1.1e-06
1.1e-06
1.1e-06
1.1e-06
1.1e-06
1.1e-06
1.1e-06
1.1e-06
1.1e-06
1.1e-06
1.1e-06
1.1e-06
1.1e-06
0.838331
0.83876
0.839119
0.839402
0.839604
0.839725
0.839761
0.839714
0.839583
0.83937
0.839079
0.838712
0.838272
0.837763
0.837188
0.836552
0.835857
0.835107
0.834304
0.83345
0.832548
0.831598
0.830601
0.829557
0.828463
0.827319
0.82612
0.824862
0.823535
0.822127
0.820622
0.818991
0.817195
0.815171
0.812818
0.809961
0.806269
0.801025
0.792315
0.772734
0.658432
0.0864358
8.65745e-06
1.1e-06
1.1e-06
1.1e-06
1.1e-06
1.1e-06
1.1e-06
1.1e-06
1.1e-06
1.1e-06
1.1e-06
1.1e-06
1.1e-06
1.1e-06
1.1e-06
1.1e-06
1.1e-06
1.1e-06
1.1e-06
1.1e-06
1.1e-06
1.1e-06
1.1e-06
1.1e-06
1.1e-06
1.1e-06
1.1e-06
1.1e-06
1.1e-06
1.1e-06
1.1e-06
1.1e-06
1.1e-06
1.1e-06
1.1e-06
1.1e-06
1.1e-06
1.1e-06
1.1e-06
1.1e-06
1.1e-06
1.1e-06
1.1e-06
1.1e-06
1.1e-06
1.1e-06
1.1e-06
1.1e-06
1.1e-06
1.1e-06
1.1e-06
1.1e-06
1.1e-06
1.1e-06
1.1e-06
1.1e-06
1.1e-06
1.1e-06
1.1e-06
1.1e-06
1.1e-06
1.1e-06
1.1e-06
1.1e-06
1.1e-06
1.1e-06
1.1e-06
1.1e-06
1.1e-06
1.1e-06
1.1e-06
1.1e-06
1.1e-06
1.1e-06
1.1e-06
1.1e-06
1.1e-06
1.1e-06
1.1e-06
1.1e-06
1.1e-06
1.1e-06
1.1e-06
1.1e-06
1.1e-06
1.1e-06
1.1e-06
1.1e-06
1.1e-06
1.1e-06
1.1e-06
1.1e-06
1.1e-06
1.1e-06
1.1e-06
1.1e-06
1.1e-06
1.1e-06
1.1e-06
1.1e-06
1.1e-06
1.1e-06
1.1e-06
1.1e-06
1.1e-06
1.1e-06
1.1e-06
1.1e-06
1.1e-06
1.1e-06
1.1e-06
1.1e-06
1.1e-06
1.1e-06
1.1e-06
1.1e-06
1.1e-06
1.1e-06
1.1e-06
1.1e-06
1.1e-06
1.1e-06
1.1e-06
1.1e-06
1.1e-06
1.1e-06
1.1e-06
1.1e-06
1.1e-06
1.1e-06
1.1e-06
1.1e-06
1.1e-06
1.1e-06
1.1e-06
1.1e-06
1.1e-06
1.1e-06
0.840794
0.841289
0.841707
0.842043
0.842291
0.842448
0.842513
0.842485
0.842365
0.842155
0.841859
0.841479
0.84102
0.840487
0.839884
0.839215
0.838486
0.837701
0.836864
0.835977
0.835045
0.834069
0.833052
0.831995
0.830898
0.829761
0.828582
0.827358
0.826083
0.824751
0.82335
0.821863
0.820265
0.818522
0.816579
0.814349
0.81169
0.808335
0.803738
0.796535
0.78205
0.725203
0.218313
0.000197976
1.1e-06
1.1e-06
1.1e-06
1.1e-06
1.1e-06
1.1e-06
1.1e-06
1.1e-06
1.1e-06
1.1e-06
1.1e-06
1.1e-06
1.1e-06
1.1e-06
1.1e-06
1.1e-06
1.1e-06
1.1e-06
1.1e-06
1.1e-06
1.1e-06
1.1e-06
1.1e-06
1.1e-06
1.1e-06
1.1e-06
1.1e-06
1.1e-06
1.1e-06
1.1e-06
1.1e-06
1.1e-06
1.1e-06
1.1e-06
1.1e-06
1.1e-06
1.1e-06
1.1e-06
1.1e-06
1.1e-06
1.1e-06
1.1e-06
1.1e-06
1.1e-06
1.1e-06
1.1e-06
1.1e-06
1.1e-06
1.1e-06
1.1e-06
1.1e-06
1.1e-06
1.1e-06
1.1e-06
1.1e-06
1.1e-06
1.1e-06
1.1e-06
1.1e-06
1.1e-06
1.1e-06
1.1e-06
1.1e-06
1.1e-06
1.1e-06
1.1e-06
1.1e-06
1.1e-06
1.1e-06
1.1e-06
1.1e-06
1.1e-06
1.1e-06
1.1e-06
1.1e-06
1.1e-06
1.1e-06
1.1e-06
1.1e-06
1.1e-06
1.1e-06
1.1e-06
1.1e-06
1.1e-06
1.1e-06
1.1e-06
1.1e-06
1.1e-06
1.1e-06
1.1e-06
1.1e-06
1.1e-06
1.1e-06
1.1e-06
1.1e-06
1.1e-06
1.1e-06
1.1e-06
1.1e-06
1.1e-06
1.1e-06
1.1e-06
1.1e-06
1.1e-06
1.1e-06
1.1e-06
1.1e-06
1.1e-06
1.1e-06
1.1e-06
1.1e-06
1.1e-06
1.1e-06
1.1e-06
1.1e-06
1.1e-06
1.1e-06
1.1e-06
1.1e-06
1.1e-06
1.1e-06
1.1e-06
1.1e-06
1.1e-06
1.1e-06
1.1e-06
1.1e-06
1.1e-06
1.1e-06
1.1e-06
1.1e-06
1.1e-06
1.1e-06
1.1e-06
1.1e-06
1.1e-06
0.843145
0.843711
0.844194
0.844586
0.844882
0.845078
0.845171
0.845162
0.845051
0.844841
0.844535
0.844139
0.843658
0.843097
0.842462
0.841758
0.840992
0.840168
0.839292
0.838367
0.837399
0.83639
0.835343
0.834261
0.833145
0.831997
0.830814
0.829597
0.828343
0.827045
0.825698
0.824289
0.822804
0.82122
0.819503
0.817604
0.815446
0.812902
0.80974
0.8055
0.799077
0.786963
0.748426
0.335144
0.000566182
1.1e-06
1.1e-06
1.1e-06
1.1e-06
1.1e-06
1.1e-06
1.1e-06
1.1e-06
1.1e-06
1.1e-06
1.1e-06
1.1e-06
1.1e-06
1.1e-06
1.1e-06
1.1e-06
1.1e-06
1.1e-06
1.1e-06
1.1e-06
1.1e-06
1.1e-06
1.1e-06
1.1e-06
1.1e-06
1.1e-06
1.1e-06
1.1e-06
1.1e-06
1.1e-06
1.1e-06
1.1e-06
1.1e-06
1.1e-06
1.1e-06
1.1e-06
1.1e-06
1.1e-06
1.1e-06
1.1e-06
1.1e-06
1.1e-06
1.1e-06
1.1e-06
1.1e-06
1.1e-06
1.1e-06
1.1e-06
1.1e-06
1.1e-06
1.1e-06
1.1e-06
1.1e-06
1.1e-06
1.1e-06
1.1e-06
1.1e-06
1.1e-06
1.1e-06
1.1e-06
1.1e-06
1.1e-06
1.1e-06
1.1e-06
1.1e-06
1.1e-06
1.1e-06
1.1e-06
1.1e-06
1.1e-06
1.1e-06
1.1e-06
1.1e-06
1.1e-06
1.1e-06
1.1e-06
1.1e-06
1.1e-06
1.1e-06
1.1e-06
1.1e-06
1.1e-06
1.1e-06
1.1e-06
1.1e-06
1.1e-06
1.1e-06
1.1e-06
1.1e-06
1.1e-06
1.1e-06
1.1e-06
1.1e-06
1.1e-06
1.1e-06
1.1e-06
1.1e-06
1.1e-06
1.1e-06
1.1e-06
1.1e-06
1.1e-06
1.1e-06
1.1e-06
1.1e-06
1.1e-06
1.1e-06
1.1e-06
1.1e-06
1.1e-06
1.1e-06
1.1e-06
1.1e-06
1.1e-06
1.1e-06
1.1e-06
1.1e-06
1.1e-06
1.1e-06
1.1e-06
1.1e-06
1.1e-06
1.1e-06
1.1e-06
1.1e-06
1.1e-06
1.1e-06
1.1e-06
1.1e-06
1.1e-06
1.1e-06
1.1e-06
1.1e-06
1.1e-06
1.1e-06
0.845394
0.846038
0.846592
0.847047
0.847395
0.847631
0.847754
0.847762
0.847658
0.847443
0.847125
0.846707
0.846198
0.845603
0.84493
0.844185
0.843376
0.842508
0.841588
0.840621
0.839611
0.838563
0.83748
0.836365
0.835221
0.834049
0.832849
0.831622
0.830366
0.829079
0.827755
0.826387
0.824965
0.823473
0.821891
0.820186
0.818311
0.816192
0.813712
0.810655
0.806603
0.800574
0.789586
0.757696
0.402301
0.00104208
1.1e-06
1.1e-06
1.1e-06
1.1e-06
1.1e-06
1.1e-06
1.1e-06
1.1e-06
1.1e-06
1.1e-06
1.1e-06
1.1e-06
1.1e-06
1.1e-06
1.1e-06
1.1e-06
1.1e-06
1.1e-06
1.1e-06
1.1e-06
1.1e-06
1.1e-06
1.1e-06
1.1e-06
1.1e-06
1.1e-06
1.1e-06
1.1e-06
1.1e-06
1.1e-06
1.1e-06
1.1e-06
1.1e-06
1.1e-06
1.1e-06
1.1e-06
1.1e-06
1.1e-06
1.1e-06
1.1e-06
1.1e-06
1.1e-06
1.1e-06
1.1e-06
1.1e-06
1.1e-06
1.1e-06
1.1e-06
1.1e-06
1.1e-06
1.1e-06
1.1e-06
1.1e-06
1.1e-06
1.1e-06
1.1e-06
1.1e-06
1.1e-06
1.1e-06
1.1e-06
1.1e-06
1.1e-06
1.1e-06
1.1e-06
1.1e-06
1.1e-06
1.1e-06
1.1e-06
1.1e-06
1.1e-06
1.1e-06
1.1e-06
1.1e-06
1.1e-06
1.1e-06
1.1e-06
1.1e-06
1.1e-06
1.1e-06
1.1e-06
1.1e-06
1.1e-06
1.1e-06
1.1e-06
1.1e-06
1.1e-06
1.1e-06
1.1e-06
1.1e-06
1.1e-06
1.1e-06
1.1e-06
1.1e-06
1.1e-06
1.1e-06
1.1e-06
1.1e-06
1.1e-06
1.1e-06
1.1e-06
1.1e-06
1.1e-06
1.1e-06
1.1e-06
1.1e-06
1.1e-06
1.1e-06
1.1e-06
1.1e-06
1.1e-06
1.1e-06
1.1e-06
1.1e-06
1.1e-06
1.1e-06
1.1e-06
1.1e-06
1.1e-06
1.1e-06
1.1e-06
1.1e-06
1.1e-06
1.1e-06
1.1e-06
1.1e-06
1.1e-06
1.1e-06
1.1e-06
1.1e-06
1.1e-06
1.1e-06
1.1e-06
1.1e-06
1.1e-06
0.847541
0.848273
0.848907
0.849432
0.849838
0.850119
0.850271
0.850296
0.850194
0.849972
0.849633
0.849188
0.848643
0.848007
0.847289
0.846497
0.84564
0.844723
0.843754
0.84274
0.841684
0.840593
0.839469
0.838316
0.837138
0.835935
0.834711
0.833464
0.832194
0.830901
0.829581
0.82823
0.82684
0.825401
0.823899
0.822313
0.82061
0.818746
0.816647
0.814196
0.811184
0.8072
0.801294
0.79062
0.760421
0.421153
0.00113731
1.1e-06
1.1e-06
1.1e-06
1.1e-06
1.1e-06
1.1e-06
1.1e-06
1.1e-06
1.1e-06
1.1e-06
1.1e-06
1.1e-06
1.1e-06
1.1e-06
1.1e-06
1.1e-06
1.1e-06
1.1e-06
1.1e-06
1.1e-06
1.1e-06
1.1e-06
1.1e-06
1.1e-06
1.1e-06
1.1e-06
1.1e-06
1.1e-06
1.1e-06
1.1e-06
1.1e-06
1.1e-06
1.1e-06
1.1e-06
1.1e-06
1.1e-06
1.1e-06
1.1e-06
1.1e-06
1.1e-06
1.1e-06
1.1e-06
1.1e-06
1.1e-06
1.1e-06
1.1e-06
1.1e-06
1.1e-06
1.1e-06
1.1e-06
1.1e-06
1.1e-06
1.1e-06
1.1e-06
1.1e-06
1.1e-06
1.1e-06
1.1e-06
1.1e-06
1.1e-06
1.1e-06
1.1e-06
1.1e-06
1.1e-06
1.1e-06
1.1e-06
1.1e-06
1.1e-06
1.1e-06
1.1e-06
1.1e-06
1.1e-06
1.1e-06
1.1e-06
1.1e-06
1.1e-06
1.1e-06
1.1e-06
1.1e-06
1.1e-06
1.1e-06
1.1e-06
1.1e-06
1.1e-06
1.1e-06
1.1e-06
1.1e-06
1.1e-06
1.1e-06
1.1e-06
1.1e-06
1.1e-06
1.1e-06
1.1e-06
1.1e-06
1.1e-06
1.1e-06
1.1e-06
1.1e-06
1.1e-06
1.1e-06
1.1e-06
1.1e-06
1.1e-06
1.1e-06
1.1e-06
1.1e-06
1.1e-06
1.1e-06
1.1e-06
1.1e-06
1.1e-06
1.1e-06
1.1e-06
1.1e-06
1.1e-06
1.1e-06
1.1e-06
1.1e-06
1.1e-06
1.1e-06
1.1e-06
1.1e-06
1.1e-06
1.1e-06
1.1e-06
1.1e-06
1.1e-06
1.1e-06
1.1e-06
1.1e-06
1.1e-06
1.1e-06
0.849702
0.850542
0.851274
0.851883
0.852358
0.852691
0.852877
0.852917
0.852815
0.852576
0.852209
0.851725
0.851133
0.850445
0.849672
0.848822
0.847906
0.846932
0.845907
0.844839
0.843731
0.842591
0.841422
0.840227
0.839009
0.837772
0.836515
0.835242
0.833951
0.832643
0.831315
0.829965
0.828588
0.827178
0.825725
0.824214
0.822625
0.820929
0.81908
0.817008
0.814598
0.811646
0.807743
0.801942
0.791357
0.760467
0.389707
0.000671386
1.1e-06
1.1e-06
1.1e-06
1.1e-06
1.1e-06
1.1e-06
1.1e-06
1.1e-06
1.1e-06
1.1e-06
1.1e-06
1.1e-06
1.1e-06
1.1e-06
1.1e-06
1.1e-06
1.1e-06
1.1e-06
1.1e-06
1.1e-06
1.1e-06
1.1e-06
1.1e-06
1.1e-06
1.1e-06
1.1e-06
1.1e-06
1.1e-06
1.1e-06
1.1e-06
1.1e-06
1.1e-06
1.1e-06
1.1e-06
1.1e-06
1.1e-06
1.1e-06
1.1e-06
1.1e-06
1.1e-06
1.1e-06
1.1e-06
1.1e-06
1.1e-06
1.1e-06
1.1e-06
1.1e-06
1.1e-06
1.1e-06
1.1e-06
1.1e-06
1.1e-06
1.1e-06
1.1e-06
1.1e-06
1.1e-06
1.1e-06
1.1e-06
1.1e-06
1.1e-06
1.1e-06
1.1e-06
1.1e-06