/*--------------------------------*- C++ -*----------------------------------*\
  =========                 |
  \\      /  F ield         | OpenFOAM: The Open Source CFD Toolbox
   \\    /   O peration     | Website:  https://openfoam.org
    \\  /    A nd           | Version:  10
     \\/     M anipulation  |
\*---------------------------------------------------------------------------*/
FoamFile
{
    format      ascii;
    class       volSymmTensorField;
    location    "0.043";
    object      UPrime2Mean;
}
// * * * * * * * * * * * * * * * * * * * * * * * * * * * * * * * * * * * * * //

dimensions      [0 2 -2 0 0 0 0];

internalField   nonuniform List<symmTensor> 
12225
(
(0.045158 0.000943788 0 0.00216227 0 0)
(0.0166319 -0.000137738 0 0.00104419 0 0)
(0.0203666 -0.000619594 0 0.000738941 0 0)
(0.02286 -0.00083714 0 0.000598905 0 0)
(0.0313526 -0.00123497 0 0.0005237 0 0)
(0.048967 -0.00190401 0 0.000490198 0 0)
(0.0771537 -0.00295286 0 0.000484168 0 0)
(0.116554 -0.00395483 0 0.000441151 0 0)
(0.171413 -0.00608221 0 0.000522729 0 0)
(0.242627 -0.00661872 0 0.000441943 0 0)
(0.345914 -0.0128399 0 0.00075134 0 0)
(0.475884 -0.010464 0 0.000560934 0 0)
(0.684631 -0.0318879 0 0.00185388 0 0)
(0.939695 -0.0147142 0 0.0013414 0 0)
(1.40478 -0.0952419 0 0.00805647 0 0)
(2.01168 -0.0103433 0 0.00698178 0 0)
(3.22741 -0.378716 0 0.0627054 0 0)
(5.4057 -0.0626603 0 0.0300321 0 0)
(0.040677 0.000863954 0 0.00258434 0 0)
(0.0143065 0.000646168 0 0.00129056 0 0)
(0.0143999 0.000325933 0 0.000869007 0 0)
(0.0130177 0.000252891 0 0.000748916 0 0)
(0.0131247 8.63177e-05 0 0.000736224 0 0)
(0.0148931 -0.000419581 0 0.000802861 0 0)
(0.0183562 -0.00115489 0 0.000869221 0 0)
(0.0248077 -0.0025267 0 0.00107909 0 0)
(0.0348506 -0.00400489 0 0.00119279 0 0)
(0.0529163 -0.00734432 0 0.00179932 0 0)
(0.0775847 -0.0101016 0 0.00200598 0 0)
(0.123623 -0.0190677 0 0.00372865 0 0)
(0.179881 -0.0245616 0 0.00422542 0 0)
(0.298064 -0.0508855 0 0.00971859 0 0)
(0.427865 -0.0645062 0 0.0116799 0 0)
(0.762113 -0.153715 0 0.033347 0 0)
(1.09438 -0.228144 0 0.0502533 0 0)
(2.06015 -0.6305 0 0.216507 0 0)
(0.0491447 0.00148509 0 0.00327277 0 0)
(0.0176661 0.000896907 0 0.00172398 0 0)
(0.0162351 0.000217147 0 0.00117953 0 0)
(0.0143726 -0.000153944 0 0.00103742 0 0)
(0.0143056 -0.000521491 0 0.00105365 0 0)
(0.0156996 -0.00106459 0 0.00114353 0 0)
(0.0184703 -0.00200958 0 0.00135764 0 0)
(0.0230511 -0.00331059 0 0.00159617 0 0)
(0.0302908 -0.00548287 0 0.00220103 0 0)
(0.041321 -0.00804184 0 0.0027107 0 0)
(0.0581346 -0.0133155 0 0.0043633 0 0)
(0.0829045 -0.0188494 0 0.00557358 0 0)
(0.120494 -0.0327441 0 0.0104629 0 0)
(0.176031 -0.0459164 0 0.013968 0 0)
(0.262345 -0.085968 0 0.0309996 0 0)
(0.392512 -0.129772 0 0.0473434 0 0)
(0.583833 -0.260447 0 0.125649 0 0)
(0.840158 -0.476325 0 0.290824 0 0)
(0.0465925 0.000127359 0 0.00323971 0 0)
(0.0171227 -0.000148236 0 0.00189703 0 0)
(0.0166295 -0.00049092 0 0.00137326 0 0)
(0.0148922 -0.000721258 0 0.00125278 0 0)
(0.0144584 -0.00111142 0 0.00133135 0 0)
(0.0153288 -0.00181984 0 0.00154249 0 0)
(0.0176189 -0.00285492 0 0.0018517 0 0)
(0.0217851 -0.00445596 0 0.00240268 0 0)
(0.0283745 -0.00669495 0 0.00313266 0 0)
(0.0386634 -0.0103799 0 0.00446257 0 0)
(0.053724 -0.0155293 0 0.00624168 0 0)
(0.0765452 -0.0243093 0 0.00961907 0 0)
(0.109185 -0.0368136 0 0.0145704 0 0)
(0.157941 -0.0586735 0 0.0243935 0 0)
(0.227451 -0.0927265 0 0.0415106 0 0)
(0.325428 -0.152541 0 0.0774749 0 0)
(0.45422 -0.258344 0 0.15809 0 0)
(0.58794 -0.414169 0 0.316191 0 0)
(0.0464198 0.00121673 0 0.00426752 0 0)
(0.0159829 0.000406444 0 0.00253919 0 0)
(0.0154378 -0.000196636 0 0.00177702 0 0)
(0.0134518 -0.000474531 0 0.00162847 0 0)
(0.0127063 -0.000843602 0 0.001778 0 0)
(0.0133687 -0.00164257 0 0.00212605 0 0)
(0.0156044 -0.00303688 0 0.0026902 0 0)
(0.0198359 -0.00509909 0 0.0034732 0 0)
(0.026777 -0.00817255 0 0.00473535 0 0)
(0.0373886 -0.0125432 0 0.00651162 0 0)
(0.0529796 -0.019308 0 0.00949358 0 0)
(0.0752398 -0.029161 0 0.0139449 0 0)
(0.1067 -0.0448143 0 0.0217751 0 0)
(0.150179 -0.0684916 0 0.034727 0 0)
(0.209987 -0.106465 0 0.058592 0 0)
(0.286197 -0.16698 0 0.104251 0 0)
(0.37779 -0.25812 0 0.188359 0 0)
(0.458036 -0.388237 0 0.361246 0 0)
(0.0443692 -0.000599071 0 0.00494238 0 0)
(0.0157495 -0.000371891 0 0.00294886 0 0)
(0.0154144 -0.00124937 0 0.00203155 0 0)
(0.0130805 -0.00152561 0 0.00189581 0 0)
(0.0123318 -0.00187736 0 0.00210102 0 0)
(0.0133567 -0.00277472 0 0.00259511 0 0)
(0.0159105 -0.00435648 0 0.00339236 0 0)
(0.0200567 -0.00672511 0 0.00458295 0 0)
(0.026307 -0.0101445 0 0.00634153 0 0)
(0.0355063 -0.0151196 0 0.00898791 0 0)
(0.0489319 -0.0225006 0 0.0130625 0 0)
(0.0679544 -0.0334519 0 0.0194226 0 0)
(0.0947155 -0.0500516 0 0.0297437 0 0)
(0.13064 -0.074903 0 0.0468199 0 0)
(0.178188 -0.112838 0 0.0763737 0 0)
(0.234601 -0.168446 0 0.128124 0 0)
(0.296462 -0.247105 0 0.219156 0 0)
(0.344832 -0.345008 0 0.37625 0 0)
(0.0442064 0.000989492 0 0.00471438 0 0)
(0.016643 0.000323395 0 0.00354634 0 0)
(0.0173212 -0.000162728 0 0.00273585 0 0)
(0.0157026 -0.000582374 0 0.00264033 0 0)
(0.0154831 -0.0013339 0 0.00298645 0 0)
(0.0169571 -0.00264948 0 0.00368754 0 0)
(0.019956 -0.00467463 0 0.00477217 0 0)
(0.0244966 -0.00756043 0 0.00635209 0 0)
(0.0309202 -0.0116001 0 0.00867429 0 0)
(0.0398018 -0.0172955 0 0.0121559 0 0)
(0.0521734 -0.0255046 0 0.0174501 0 0)
(0.0691197 -0.0374733 0 0.025726 0 0)
(0.0922178 -0.054966 0 0.0387361 0 0)
(0.122036 -0.0804482 0 0.0599498 0 0)
(0.159459 -0.116895 0 0.0942807 0 0)
(0.200812 -0.167344 0 0.151611 0 0)
(0.242587 -0.232447 0 0.242782 0 0)
(0.271441 -0.305807 0 0.385685 0 0)
(0.0429321 0.0011583 0 0.00567842 0 0)
(0.0122868 0.000498662 0 0.00366781 0 0)
(0.0128996 -0.0002209 0 0.00283136 0 0)
(0.0119823 -0.000717943 0 0.00293182 0 0)
(0.0121297 -0.00144982 0 0.00346556 0 0)
(0.0135102 -0.00278094 0 0.00441484 0 0)
(0.016079 -0.00487736 0 0.00585305 0 0)
(0.0199611 -0.00787162 0 0.00793229 0 0)
(0.0255675 -0.0120875 0 0.0109644 0 0)
(0.0334655 -0.0180822 0 0.0154671 0 0)
(0.0444191 -0.0267035 0 0.0222212 0 0)
(0.0590765 -0.0390412 0 0.0325348 0 0)
(0.0782192 -0.0565323 0 0.0483124 0 0)
(0.101727 -0.0808868 0 0.0729687 0 0)
(0.129342 -0.113863 0 0.111059 0 0)
(0.157797 -0.156455 0 0.170629 0 0)
(0.183932 -0.207218 0 0.259056 0 0)
(0.199879 -0.259794 0 0.388068 0 0)
(0.0503924 0.000761928 0 0.00553974 0 0)
(0.0201555 -0.000652049 0 0.00395484 0 0)
(0.0201016 -0.00168167 0 0.00329473 0 0)
(0.0180677 -0.00220109 0 0.00348008 0 0)
(0.0172972 -0.00292769 0 0.00418002 0 0)
(0.0180594 -0.00434102 0 0.00537865 0 0)
(0.0201429 -0.00662249 0 0.00720585 0 0)
(0.0235025 -0.00988576 0 0.00987344 0 0)
(0.0283971 -0.0144029 0 0.0137153 0 0)
(0.0352028 -0.020657 0 0.019309 0 0)
(0.0444004 -0.0293616 0 0.0274997 0 0)
(0.0562586 -0.0414417 0 0.0397073 0 0)
(0.0710841 -0.0580091 0 0.0578703 0 0)
(0.088301 -0.0801647 0 0.0852484 0 0)
(0.107266 -0.108741 0 0.125759 0 0)
(0.12518 -0.143337 0 0.185684 0 0)
(0.140067 -0.181823 0 0.269773 0 0)
(0.14715 -0.218199 0 0.385039 0 0)
(0.0471571 0.00178135 0 0.00597817 0 0)
(0.0164642 -0.000600759 0 0.00438267 0 0)
(0.0157672 -0.00154141 0 0.00389468 0 0)
(0.013824 -0.00181817 0 0.00434767 0 0)
(0.0134792 -0.00246116 0 0.00526671 0 0)
(0.0147319 -0.0039407 0 0.00668507 0 0)
(0.0171087 -0.0063026 0 0.00883186 0 0)
(0.0202501 -0.0095746 0 0.0120108 0 0)
(0.0242815 -0.0140108 0 0.0166218 0 0)
(0.0296297 -0.0200902 0 0.0233033 0 0)
(0.0367936 -0.0284742 0 0.0329515 0 0)
(0.0459846 -0.0398946 0 0.0470096 0 0)
(0.0572377 -0.0550986 0 0.0673068 0 0)
(0.0697449 -0.0745451 0 0.0967334 0 0)
(0.0826227 -0.0983194 0 0.138357 0 0)
(0.0935598 -0.125177 0 0.196929 0 0)
(0.101434 -0.15287 0 0.275013 0 0)
(0.103641 -0.176197 0 0.377144 0 0)
(0.0403512 0.00142704 0 0.00625217 0 0)
(0.0127105 -0.000935516 0 0.00519321 0 0)
(0.0126964 -0.00228997 0 0.00450223 0 0)
(0.0110615 -0.0027825 0 0.00484248 0 0)
(0.0106536 -0.00350676 0 0.00593887 0 0)
(0.0114495 -0.00500119 0 0.00775432 0 0)
(0.0132667 -0.00738562 0 0.0104156 0 0)
(0.0159048 -0.0107268 0 0.0142385 0 0)
(0.0193426 -0.0152552 0 0.0196915 0 0)
(0.0237516 -0.0213634 0 0.0274825 0 0)
(0.0294315 -0.0295452 0 0.0385254 0 0)
(0.036441 -0.040264 0 0.0541721 0 0)
(0.0446566 -0.0538951 0 0.0760139 0 0)
(0.0532571 -0.0704498 0 0.106468 0 0)
(0.0614452 -0.0895368 0 0.147797 0 0)
(0.0676322 -0.10971 0 0.203477 0 0)
(0.0712229 -0.128892 0 0.274638 0 0)
(0.0711601 -0.143103 0 0.364309 0 0)
(0.0464744 0.00214279 0 0.00623331 0 0)
(0.0156229 -0.000680984 0 0.00560482 0 0)
(0.014931 -0.00162181 0 0.00492647 0 0)
(0.012927 -0.00153286 0 0.00527979 0 0)
(0.0119181 -0.00184988 0 0.00654052 0 0)
(0.0119723 -0.00307662 0 0.00866564 0 0)
(0.0128431 -0.00514409 0 0.0117553 0 0)
(0.0142667 -0.00797199 0 0.0161302 0 0)
(0.0162044 -0.0117186 0 0.0222835 0 0)
(0.0187821 -0.0167241 0 0.0309365 0 0)
(0.0221581 -0.0233829 0 0.0429778 0 0)
(0.0263092 -0.0319686 0 0.0596592 0 0)
(0.0310246 -0.0425583 0 0.0823611 0 0)
(0.0357306 -0.0548915 0 0.113084 0 0)
(0.0398708 -0.0683143 0 0.153434 0 0)
(0.04265 -0.081481 0 0.205924 0 0)
(0.0438115 -0.0925038 0 0.270765 0 0)
(0.0432681 -0.0986487 0 0.35006 0 0)
(0.0423878 0.00126336 0 0.00752757 0 0)
(0.0150095 -0.00182117 0 0.00651339 0 0)
(0.0151364 -0.00309882 0 0.00543138 0 0)
(0.0137241 -0.00318278 0 0.00600259 0 0)
(0.0132805 -0.00353356 0 0.00766407 0 0)
(0.0134946 -0.00468893 0 0.0101801 0 0)
(0.0140869 -0.0066139 0 0.0136844 0 0)
(0.0149816 -0.00922898 0 0.0185772 0 0)
(0.0162674 -0.0126364 0 0.0254099 0 0)
(0.0180177 -0.0170516 0 0.0348896 0 0)
(0.0202182 -0.0226774 0 0.0478196 0 0)
(0.0226842 -0.0295353 0 0.065281 0 0)
(0.0251965 -0.0374924 0 0.0883837 0 0)
(0.027381 -0.0460803 0 0.11872 0 0)
(0.0290043 -0.0546507 0 0.157388 0 0)
(0.0297248 -0.0619205 0 0.206247 0 0)
(0.0297304 -0.0665798 0 0.26493 0 0)
(0.0291731 -0.0662573 0 0.335054 0 0)
(0.0439291 0.00125883 0 0.00899842 0 0)
(0.0155879 -0.000470232 0 0.00780132 0 0)
(0.0153456 -0.00117283 0 0.00699773 0 0)
(0.0137461 -0.000888628 0 0.00763888 0 0)
(0.0128374 -0.000942838 0 0.00933466 0 0)
(0.0125328 -0.00179226 0 0.0120722 0 0)
(0.0127123 -0.00339789 0 0.0159493 0 0)
(0.0132652 -0.00559665 0 0.021274 0 0)
(0.0141548 -0.00835682 0 0.0285242 0 0)
(0.0153216 -0.0117361 0 0.0383366 0 0)
(0.0166696 -0.0158257 0 0.0514236 0 0)
(0.0180214 -0.0205494 0 0.0687459 0 0)
(0.0192311 -0.0257403 0 0.0912292 0 0)
(0.0200502 -0.030826 0 0.120165 0 0)
(0.0204271 -0.0351847 0 0.156177 0 0)
(0.0202919 -0.0375429 0 0.20055 0 0)
(0.0200621 -0.0370572 0 0.252407 0 0)
(0.0202327 -0.0316998 0 0.312966 0 0)
(0.043725 0.00327999 0 0.00911906 0 0)
(0.0135604 -0.000132293 0 0.00833647 0 0)
(0.012894 -0.00167601 0 0.00759306 0 0)
(0.0115929 -0.00161408 0 0.00870711 0 0)
(0.0112364 -0.00170816 0 0.0109678 0 0)
(0.0112113 -0.00247629 0 0.0141413 0 0)
(0.011309 -0.00383747 0 0.0184045 0 0)
(0.0114837 -0.0055969 0 0.0241883 0 0)
(0.0117507 -0.00770102 0 0.0320069 0 0)
(0.0121107 -0.010173 0 0.0424388 0 0)
(0.0125508 -0.0130325 0 0.0560339 0 0)
(0.0129578 -0.0161027 0 0.0734837 0 0)
(0.0132507 -0.0191123 0 0.0953173 0 0)
(0.0133025 -0.0214396 0 0.122369 0 0)
(0.013146 -0.0225464 0 0.154804 0 0)
(0.0129801 -0.0213563 0 0.193514 0 0)
(0.0131965 -0.0174342 0 0.237451 0 0)
(0.0145068 -0.00920391 0 0.287757 0 0)
(0.0457415 0.00208515 0 0.0104456 0 0)
(0.0150822 -0.000885991 0 0.0104836 0 0)
(0.0137575 -0.00241364 0 0.00966999 0 0)
(0.0114954 -0.00220097 0 0.0103426 0 0)
(0.0103471 -0.00192819 0 0.012372 0 0)
(0.00971283 -0.00226566 0 0.0155303 0 0)
(0.00937452 -0.00316248 0 0.0198811 0 0)
(0.00929213 -0.00433948 0 0.0257437 0 0)
(0.00938889 -0.00560168 0 0.0335197 0 0)
(0.00954068 -0.00683209 0 0.0436698 0 0)
(0.009655 -0.00792402 0 0.0566084 0 0)
(0.00967468 -0.00861961 0 0.0728471 0 0)
(0.00962955 -0.00863788 0 0.0927083 0 0)
(0.00962967 -0.00744967 0 0.116735 0 0)
(0.00986181 -0.00472415 0 0.144789 0 0)
(0.0106868 0.000295906 0 0.17746 0 0)
(0.0124688 0.00770947 0 0.213602 0 0)
(0.0159025 0.0186369 0 0.254147 0 0)
(0.0445549 0.00245582 0 0.0114362 0 0)
(0.0168517 -7.91381e-05 0 0.0110205 0 0)
(0.0159615 -0.00126837 0 0.0091429 0 0)
(0.0136409 -0.00110406 0 0.00979267 0 0)
(0.0123906 -0.000876391 0 0.0123117 0 0)
(0.0115683 -0.00114804 0 0.0160021 0 0)
(0.0109152 -0.00176187 0 0.0207073 0 0)
(0.0104018 -0.00236766 0 0.0266947 0 0)
(0.0100499 -0.00273863 0 0.0343349 0 0)
(0.00982289 -0.00274612 0 0.0440085 0 0)
(0.00967214 -0.0022998 0 0.0559801 0 0)
(0.00962283 -0.0011951 0 0.0705434 0 0)
(0.00975732 0.000790269 0 0.0877795 0 0)
(0.0102508 0.00408137 0 0.107987 0 0)
(0.0112504 0.00889582 0 0.130888 0 0)
(0.0131343 0.0157749 0 0.156899 0 0)
(0.0160891 0.02465 0 0.184995 0 0)
(0.0207504 0.0362875 0 0.216072 0 0)
(0.0432444 0.00283823 0 0.0127167 0 0)
(0.0144073 -0.0012954 0 0.0124548 0 0)
(0.013972 -0.00370975 0 0.0105766 0 0)
(0.0123709 -0.00359583 0 0.0110734 0 0)
(0.0113969 -0.00291712 0 0.0132437 0 0)
(0.0104197 -0.00240382 0 0.0164583 0 0)
(0.00956411 -0.0020722 0 0.020542 0 0)
(0.00905891 -0.00169523 0 0.0256813 0 0)
(0.00893447 -0.00102439 0 0.0321937 0 0)
(0.00908696 0.000159365 0 0.0403744 0 0)
(0.00944079 0.0020433 0 0.0503578 0 0)
(0.0100696 0.00484653 0 0.0622454 0 0)
(0.0111255 0.00875642 0 0.075954 0 0)
(0.0128796 0.0140285 0 0.0915866 0 0)
(0.0154916 0.020754 0 0.108828 0 0)
(0.0193375 0.0291912 0 0.127997 0 0)
(0.0244821 0.0392155 0 0.148316 0 0)
(0.0314595 0.0512211 0 0.17049 0 0)
(0.045001 0.0023111 0 0.0113112 0 0)
(0.0173868 0.000276559 0 0.0114613 0 0)
(0.0172184 -0.000939409 0 0.0100339 0 0)
(0.0143178 -0.00060978 0 0.0103692 0 0)
(0.0125509 0.000274148 0 0.0120019 0 0)
(0.011528 0.00120501 0 0.0145586 0 0)
(0.0110832 0.00221354 0 0.0179843 0 0)
(0.011203 0.00359732 0 0.0223101 0 0)
(0.0118358 0.00561314 0 0.027581 0 0)
(0.0128731 0.00840333 0 0.0338885 0 0)
(0.0142579 0.0120231 0 0.0412991 0 0)
(0.0161207 0.0165553 0 0.049901 0 0)
(0.0186602 0.022054 0 0.0596497 0 0)
(0.0221483 0.0286549 0 0.0706058 0 0)
(0.026707 0.036344 0 0.0825101 0 0)
(0.0326105 0.0452678 0 0.0955426 0 0)
(0.0398431 0.0552527 0 0.109129 0 0)
(0.0487712 0.0665729 0 0.123749 0 0)
(0.0447347 0.00241857 0 0.0115459 0 0)
(0.0152458 -0.000711436 0 0.0120842 0 0)
(0.0129461 -0.00172431 0 0.00971633 0 0)
(0.0106504 -0.000534316 0 0.00907188 0 0)
(0.00988676 0.000966491 0 0.00993517 0 0)
(0.00952836 0.00215983 0 0.0118044 0 0)
(0.00940548 0.0032356 0 0.0143686 0 0)
(0.00973319 0.00464702 0 0.0174421 0 0)
(0.0106599 0.00671335 0 0.0210136 0 0)
(0.0122336 0.00953797 0 0.0252173 0 0)
(0.0144835 0.0131162 0 0.0301663 0 0)
(0.0175061 0.0174715 0 0.0359329 0 0)
(0.0214292 0.0226342 0 0.0424681 0 0)
(0.0264172 0.0286956 0 0.0497672 0 0)
(0.0325483 0.0356393 0 0.0576267 0 0)
(0.0399862 0.0435428 0 0.0661312 0 0)
(0.0487014 0.0522392 0 0.0749079 0 0)
(0.0588915 0.0618805 0 0.084205 0 0)
(0.0422896 0.00286288 0 0.0105715 0 0)
(0.0142644 0.00124371 0 0.00984195 0 0)
(0.0125676 0.000649511 0 0.00791025 0 0)
(0.0101226 0.0016796 0 0.00753012 0 0)
(0.00958015 0.00293816 0 0.00815466 0 0)
(0.00993381 0.00412829 0 0.00946288 0 0)
(0.0107696 0.00544319 0 0.0112724 0 0)
(0.0121054 0.00715216 0 0.0134684 0 0)
(0.0140082 0.00940856 0 0.0160189 0 0)
(0.0164995 0.0122611 0 0.0189965 0 0)
(0.0196436 0.0157351 0 0.0224811 0 0)
(0.0235843 0.0198841 0 0.0265218 0 0)
(0.0284879 0.0247445 0 0.0310726 0 0)
(0.0345274 0.0303728 0 0.0361184 0 0)
(0.0417782 0.0367254 0 0.0415156 0 0)
(0.0504114 0.0438476 0 0.0473298 0 0)
(0.0604002 0.0515912 0 0.0533048 0 0)
(0.0718914 0.0600518 0 0.0596077 0 0)
(0.0431031 0.00116064 0 0.0113776 0 0)
(0.0148698 0.000425131 0 0.00976653 0 0)
(0.0138705 0.000424136 0 0.00719636 0 0)
(0.0120837 0.00115066 0 0.00638946 0 0)
(0.0115767 0.0019116 0 0.00660782 0 0)
(0.0117373 0.00271912 0 0.00740061 0 0)
(0.0124187 0.00380367 0 0.00858207 0 0)
(0.0136624 0.00535645 0 0.0100677 0 0)
(0.0155371 0.00743343 0 0.0118259 0 0)
(0.0180918 0.010015 0 0.0138587 0 0)
(0.0214011 0.0130863 0 0.0161837 0 0)
(0.0256436 0.0166865 0 0.0188349 0 0)
(0.031014 0.0208504 0 0.0218059 0 0)
(0.0376927 0.0256356 0 0.0251043 0 0)
(0.0457446 0.0310011 0 0.028628 0 0)
(0.0552924 0.0369734 0 0.0324317 0 0)
(0.0662801 0.0434275 0 0.0363429 0 0)
(0.0787842 0.0504341 0 0.0404376 0 0)
(0.0488678 0.00117063 0 0.00972859 0 0)
(0.0170182 9.58918e-05 0 0.00762883 0 0)
(0.0147422 -0.000367464 0 0.00537106 0 0)
(0.0134765 0.000139425 0 0.00465141 0 0)
(0.0136745 0.000855858 0 0.00481595 0 0)
(0.0140767 0.00163919 0 0.00544932 0 0)
(0.0146283 0.00263859 0 0.0062954 0 0)
(0.0157035 0.00401231 0 0.00727528 0 0)
(0.0175764 0.00580994 0 0.00840454 0 0)
(0.0203181 0.00801124 0 0.00971979 0 0)
(0.0239113 0.0105845 0 0.0112449 0 0)
(0.0283981 0.0135307 0 0.0129979 0 0)
(0.0338815 0.0168628 0 0.0149612 0 0)
(0.0405293 0.020626 0 0.017133 0 0)
(0.0484405 0.0248214 0 0.0194488 0 0)
(0.0577723 0.0294811 0 0.0219448 0 0)
(0.0685101 0.0345509 0 0.0245113 0 0)
(0.0806901 0.0400714 0 0.0272022 0 0)
(0.0505207 0.000249761 0 0.00848398 0 0)
(0.0176898 -0.000252499 0 0.00624946 0 0)
(0.0152673 2.23916e-05 0 0.00432734 0 0)
(0.0140505 0.000882427 0 0.00377716 0 0)
(0.014161 0.00168389 0 0.00386091 0 0)
(0.0146427 0.00247196 0 0.00420215 0 0)
(0.0156549 0.00343291 0 0.00465999 0 0)
(0.017533 0.00473253 0 0.00520999 0 0)
(0.0204604 0.00643177 0 0.0058754 0 0)
(0.0244345 0.00849322 0 0.00667812 0 0)
(0.0293824 0.0108539 0 0.00762073 0 0)
(0.0353072 0.0134963 0 0.00870868 0 0)
(0.0422695 0.0164299 0 0.00993506 0 0)
(0.050384 0.0196905 0 0.011297 0 0)
(0.0596863 0.0232762 0 0.0127509 0 0)
(0.0703047 0.0272195 0 0.0143194 0 0)
(0.0822362 0.0314656 0 0.0159346 0 0)
(0.0955063 0.0360677 0 0.0176126 0 0)
(0.0449396 0.00150543 0 0.00774991 0 0)
(0.0169438 3.66504e-05 0 0.00584011 0 0)
(0.0160017 -0.000552912 0 0.00422035 0 0)
(0.0144444 -0.000253547 0 0.00367776 0 0)
(0.0138307 0.000209907 0 0.00355259 0 0)
(0.0135758 0.000649139 0 0.00364581 0 0)
(0.0139978 0.00116572 0 0.00388844 0 0)
(0.0154054 0.00193085 0 0.0042265 0 0)
(0.0178744 0.00302083 0 0.00463338 0 0)
(0.0213139 0.00442522 0 0.00512288 0 0)
(0.0255763 0.00609045 0 0.00570763 0 0)
(0.0306225 0.00798124 0 0.00638013 0 0)
(0.0365448 0.010091 0 0.00712168 0 0)
(0.043542 0.012451 0 0.00792826 0 0)
(0.0517234 0.0150664 0 0.00877085 0 0)
(0.0612756 0.0179697 0 0.00968163 0 0)
(0.0721578 0.0211114 0 0.0106197 0 0)
(0.0844823 0.0245227 0 0.0115943 0 0)
(0.0448326 -1.6725e-09 0 0.00677252 0 0)
(0.0176754 -0.000260374 0 0.00515626 0 0)
(0.0167462 -0.000262214 0 0.00349631 0 0)
(0.0151266 -9.52729e-05 0 0.00280792 0 0)
(0.0147638 8.72903e-05 0 0.00259016 0 0)
(0.0149328 0.000267119 0 0.00254745 0 0)
(0.0155674 0.000515966 0 0.00260044 0 0)
(0.0167905 0.000989877 0 0.00272959 0 0)
(0.0187561 0.00177532 0 0.00290823 0 0)
(0.0216011 0.00285805 0 0.00312957 0 0)
(0.0254115 0.00419266 0 0.0034089 0 0)
(0.0302726 0.00574636 0 0.00374884 0 0)
(0.0362798 0.00749146 0 0.00413537 0 0)
(0.0435597 0.00941637 0 0.00456103 0 0)
(0.0521682 0.0114975 0 0.00500623 0 0)
(0.0622081 0.0137467 0 0.00549522 0 0)
(0.0736604 0.0161418 0 0.00600836 0 0)
(0.0864861 0.0187135 0 0.00654356 0 0)
(0.0420329 -0.000690088 0 0.00560915 0 0)
(0.0120532 -0.00105711 0 0.00359776 0 0)
(0.0113846 -0.00073534 0 0.00245466 0 0)
(0.011101 -0.000395092 0 0.00202801 0 0)
(0.0117399 -0.000175453 0 0.00190345 0 0)
(0.012023 9.57621e-06 0 0.00188976 0 0)
(0.0121657 0.000282187 0 0.00190357 0 0)
(0.0127968 0.000716502 0 0.00193512 0 0)
(0.0144109 0.00132756 0 0.00199912 0 0)
(0.0172509 0.00209487 0 0.00210075 0 0)
(0.0213651 0.00300237 0 0.00223121 0 0)
(0.0267401 0.00404639 0 0.002381 0 0)
(0.0333737 0.00521739 0 0.00254843 0 0)
(0.0413062 0.00651215 0 0.00273966 0 0)
(0.0505272 0.00791908 0 0.00295204 0 0)
(0.0610791 0.00944838 0 0.00320163 0 0)
(0.0729246 0.0110837 0 0.00347147 0 0)
(0.085981 0.0128524 0 0.00375495 0 0)
(0.0463238 -0.000817147 0 0.00446398 0 0)
(0.0173764 -0.000284157 0 0.00232989 0 0)
(0.0158567 -0.000426625 0 0.00156945 0 0)
(0.0146146 -0.000390654 0 0.00127017 0 0)
(0.0148894 -0.000223376 0 0.00112123 0 0)
(0.0155994 -2.44395e-05 0 0.00104063 0 0)
(0.0167824 0.000162823 0 0.00100146 0 0)
(0.018643 0.000366616 0 0.000984384 0 0)
(0.0213094 0.000644067 0 0.00097984 0 0)
(0.0248918 0.00104123 0 0.000991193 0 0)
(0.0295071 0.00158684 0 0.00102022 0 0)
(0.0352607 0.00228441 0 0.00106071 0 0)
(0.0422262 0.00310404 0 0.00110656 0 0)
(0.0504375 0.00401014 0 0.00116109 0 0)
(0.0598492 0.00497866 0 0.00123055 0 0)
(0.0704967 0.00601628 0 0.00132736 0 0)
(0.0823796 0.00713324 0 0.0014472 0 0)
(0.0954481 0.00834649 0 0.00158305 0 0)
(0.0407864 -0.000487112 0 0.00366773 0 0)
(0.0126169 5.23007e-06 0 0.00153626 0 0)
(0.0123628 6.72309e-05 0 0.00104766 0 0)
(0.0117883 -3.06566e-05 0 0.000884071 0 0)
(0.0118418 -0.000182208 0 0.000810976 0 0)
(0.0118609 -0.000254506 0 0.000776116 0 0)
(0.012386 -0.000171281 0 0.000758645 0 0)
(0.013967 3.0162e-05 0 0.000752975 0 0)
(0.0167705 0.000276155 0 0.000760527 0 0)
(0.0207153 0.000540225 0 0.000776536 0 0)
(0.0256907 0.000836304 0 0.000795568 0 0)
(0.0316948 0.00117839 0 0.00081904 0 0)
(0.0387553 0.0015715 0 0.000850948 0 0)
(0.046945 0.00201438 0 0.000891709 0 0)
(0.0562524 0.00249851 0 0.000934567 0 0)
(0.0668288 0.00302279 0 0.000985285 0 0)
(0.0786387 0.00357802 0 0.0010391 0 0)
(0.0918609 0.00417786 0 0.00108272 0 0)
(0.042822 -0.000317069 0 0.0024373 0 0)
(0.0160678 9.01996e-05 0 0.00127767 0 0)
(0.0162349 0.000198723 0 0.000966945 0 0)
(0.0146978 0.000232318 0 0.000842302 0 0)
(0.0145623 0.000355144 0 0.000760494 0 0)
(0.015549 0.00050381 0 0.000700583 0 0)
(0.0172823 0.000577246 0 0.000651811 0 0)
(0.0194493 0.000551654 0 0.000606738 0 0)
(0.0220108 0.000489343 0 0.000562636 0 0)
(0.0251889 0.000466819 0 0.000520118 0 0)
(0.0292674 0.000524837 0 0.000480363 0 0)
(0.0344607 0.000659578 0 0.000444122 0 0)
(0.0408925 0.00083734 0 0.000412103 0 0)
(0.0485938 0.00101778 0 0.000384253 0 0)
(0.0575352 0.00117995 0 0.000360578 0 0)
(0.0676831 0.00132179 0 0.000343914 0 0)
(0.0790053 0.00144829 0 0.000330039 0 0)
(0.0913508 0.00158952 0 0.000315722 0 0)
(0.0234434 -0.0524128 9.13796e-22 0.119196 -1.8694e-21 2.60589e-37)
(0.161228 -0.106864 -2.1636e-21 0.0739616 1.05909e-21 2.56943e-37)
(0.371399 -0.109076 0 0.040318 0 0)
(0.567049 -0.0725276 0 0.0267071 0 0)
(0.648827 -0.0144881 0 0.0366176 0 0)
(0.675541 0.00542382 2.17259e-21 0.0663571 1.04948e-21 2.42025e-37)
(0.711044 -0.0305232 0 0.0987671 0 0)
(0.861214 -0.113648 0 0.116901 0 0)
(1.18567 -0.211799 0 0.120949 0 0)
(1.6958 -0.298751 0 0.111945 0 0)
(2.36321 -0.358702 2.92216e-21 0.095111 -8.48401e-22 2.24169e-37)
(3.13469 -0.384741 0 0.0757775 0 0)
(3.94823 -0.377378 0 0.0577563 0 0)
(4.7431 -0.342305 0 0.0430682 0 0)
(5.46976 -0.28684 0 0.0324595 0 0)
(6.0923 -0.21764 4.2751e-21 0.02583 4.90217e-22 2.07202e-37)
(6.5861 -0.140317 0 0.0228214 0 0)
(6.93406 -0.0582423 0 0.022815 0 0)
(7.12597 0.025572 0 0.0253802 0 0)
(7.15263 0.109879 0 0.0300943 0 0)
(7.01915 0.19189 0 0.0371196 0 0)
(6.72117 0.268707 0 0.0482514 0 0)
(6.28822 0.333943 0 0.0650012 0 0)
(5.71348 0.372556 -7.33494e-21 0.101843 1.8164e-21 1.81872e-37)
(5.08894 0.362515 9.46108e-21 0.13831 -1.79275e-21 1.78861e-37)
(4.46831 0.249629 -1.13914e-20 0.209841 1.45048e-21 1.75883e-37)
(4.06172 0.038889 -1.31638e-20 0.316924 9.42551e-22 1.72939e-37)
(3.88738 -0.273447 0 0.385165 0 0)
(4.11826 -0.520277 0 0.320006 0 0)
(4.53226 -0.599714 1.75771e-20 0.400319 -5.75792e-22 1.64303e-37)
(5.08961 -0.66392 1.92045e-20 0.439382 -9.73059e-22 1.6149e-37)
(5.80825 -0.724484 0 0.423743 0 0)
(6.73711 -0.780656 0 0.388935 0 0)
(7.86796 -0.824123 2.48594e-20 0.369727 -1.20575e-21 1.53255e-37)
(9.18608 -0.882446 0 0.375086 0 0)
(10.7419 -0.974515 0 0.420174 0 0)
(12.6992 -1.17813 -2.89281e-20 0.518407 5.0009e-22 1.45331e-37)
(15.2073 -1.44209 0 0.558286 0 0)
(18.2294 -1.59598 -3.09811e-20 0.497637 5.71045e-22 1.40219e-37)
(21.2764 -1.45576 -6.42407e-20 0.349546 1.58725e-21 5.50851e-37)
(23.7223 -1.09812 0 0.242867 0 0)
(25.2345 -0.724174 0 0.198508 0 0)
(25.6994 -0.381796 0 0.204174 0 0)
(25.6005 -0.401081 0 0.232669 0 0)
(25.7942 -0.404879 0 0.312522 0 0)
(25.8657 -0.421523 -8.1214e-20 0.384527 1.44622e-21 4.93512e-37)
(25.8522 -1.11881 -8.2837e-20 0.399906 3.75861e-22 4.84413e-37)
(25.4951 -1.12234 -8.40082e-20 0.547163 2.82808e-22 4.75442e-37)
(24.9791 0.145093 0 0.202629 0 0)
(23.1798 0.486115 8.71755e-20 0.334454 -1.91434e-21 4.57874e-37)
(22.4579 0.15031 0 0.251231 0 0)
(22.4 -0.0823908 -8.91445e-20 0.21091 1.45821e-21 4.40813e-37)
(22.8404 -0.257646 -8.99478e-20 0.164719 1.32414e-21 4.32472e-37)
(23.6212 -0.370738 0 0.131996 0 0)
(24.6515 -0.442427 0 0.105002 0 0)
(25.8294 -0.483292 0 0.0850868 0 0)
(27.1155 -0.503371 -9.32266e-20 0.0694724 9.36167e-22 4.00351e-37)
(28.4515 -0.508917 0 0.0575432 0 0)
(29.8173 -0.503953 0 0.0480058 0 0)
(31.1776 -0.490611 0 0.0403044 0 0)
(32.5164 -0.470028 0 0.0338632 0 0)
(33.806 -0.442565 0 0.0283867 0 0)
(35.0288 -0.408536 0 0.0236559 0 0)
(36.16 -0.368258 0 0.0195626 0 0)
(37.1799 -0.322452 0 0.0160471 0 0)
(38.0675 -0.27205 9.62233e-20 0.0130754 -1.33886e-22 3.34991e-37)
(38.8059 -0.218664 0 0.0106336 0 0)
(39.3811 -0.16367 0 0.00868114 0 0)
(39.7919 -0.108794 -9.29421e-20 0.00718332 -1.74198e-22 3.15209e-37)
(40.0339 -0.0552075 -9.12001e-20 0.00607824 -2.68064e-22 3.08827e-37)
(40.1073 -0.00420602 0 0.00530753 0 0)
(40.0221 0.0432449 8.68097e-20 0.00480433 4.29729e-22 2.96375e-37)
(39.7861 0.0862561 -8.42206e-20 0.00451413 -4.9452e-22 2.90301e-37)
(39.4129 0.124096 0 0.00438681 0 0)
(38.9182 0.156117 7.84521e-20 0.00438584 5.86905e-22 2.78455e-37)
(38.3208 0.181961 0 0.00447882 0 0)
(37.6399 0.201413 0 0.00465575 0 0)
(36.8948 0.214696 -6.90169e-20 0.0049146 -6.31724e-22 2.61418e-37)
(36.1033 0.222817 0 0.0052365 0 0)
(35.2803 0.227451 6.26986e-20 0.0055753 6.11554e-22 2.50536e-37)
(34.4351 0.230701 0 0.00587983 0 0)
(33.5702 0.234699 -5.66234e-20 0.00612884 -5.73346e-22 2.40023e-37)
(32.6799 0.241424 -5.37031e-20 0.00633723 -5.555e-22 2.34901e-37)
(31.7517 0.252094 -5.08551e-20 0.00655155 -5.41952e-22 2.29869e-37)
(30.7695 0.267046 -9.61317e-20 0.00681456 -1.0678e-21 8.99693e-37)
(29.7153 0.286448 9.06352e-20 0.00717055 1.06364e-21 8.80256e-37)
(28.5699 0.309874 0 0.007647 0 0)
(27.3172 0.335808 0 0.00824686 0 0)
(25.9469 0.362298 0 0.0089517 0 0)
(24.4581 0.387246 6.89166e-20 0.00971962 1.11957e-21 8.05861e-37)
(22.8615 0.408414 6.35351e-20 0.0104939 1.13351e-21 7.88077e-37)
(21.1762 0.423488 -5.82327e-20 0.0112222 -1.13845e-21 7.70609e-37)
(19.4323 0.430557 0 0.011857 0 0)
(17.6658 0.428416 4.81275e-20 0.0123434 1.10494e-21 7.36605e-37)
(15.9163 0.416829 4.34666e-20 0.0126191 1.06346e-21 7.2006e-37)
(14.2208 0.396747 3.91465e-20 0.0126398 1.00734e-21 7.03814e-37)
(12.6103 0.370063 0 0.0123901 0 0)
(11.1068 0.339163 0 0.0118936 0 0)
(9.72414 0.306343 0 0.0111961 0 0)
(8.46785 0.273567 2.56093e-20 0.0103632 7.20632e-22 6.41723e-37)
(7.33763 0.242827 0 0.00953335 0 0)
(6.3283 0.213937 0 0.00862662 0 0)
(5.43081 0.187714 -1.88483e-20 0.00775125 -5.28745e-22 5.98067e-37)
(4.63643 0.16388 0 0.00690924 0 0)
(3.93561 0.142506 0 0.00613407 0 0)
(3.31973 0.123263 -1.40945e-20 0.00542371 -3.71553e-22 5.56784e-37)
(2.78073 0.106084 0 0.0047872 0 0)
(2.31166 0.0907929 0 0.00422165 0 0)
(1.90619 0.0773293 1.07698e-20 0.00372761 2.47663e-22 5.17767e-37)
(1.55796 0.0653583 9.90679e-21 0.00328534 2.13691e-22 5.05246e-37)
(1.26066 0.0547579 0 0.0028906 0 0)
(1.00891 0.0453845 -8.46855e-21 0.00253654 -1.55445e-22 4.80911e-37)
(0.797893 0.0371508 0 0.0022194 0 0)
(0.62322 0.0299615 7.34425e-21 0.00193499 1.08271e-22 4.57492e-37)
(0.480805 0.0237191 0 0.00167904 0 0)
(0.366822 0.0183391 6.46638e-21 0.00144826 7.02197e-23 4.34961e-37)
(0.277697 0.0137483 6.10322e-21 0.00124022 5.39462e-23 4.2402e-37)
(0.210077 0.00988166 0 0.00105344 0 0)
(0.160813 0.00667804 0 0.000886912 0 0)
(0.126952 0.00407865 0 0.000739859 0 0)
(0.105757 0.00202473 0 0.000611709 0 0)
(0.0947051 0.000456564 0 0.000501888 0 0)
(0.0915251 -0.000685849 0 0.000409535 0 0)
(0.0941896 -0.00146139 0 0.00033338 0 0)
(0.100931 -0.0019267 4.47429e-21 0.000271873 -3.26684e-23 3.43828e-37)
(0.110238 -0.00213512 -4.38715e-21 0.000223559 3.91516e-23 3.34672e-37)
(0.120848 -0.00213501 0 0.000187308 0 0)
(0.131702 -0.00197009 0 0.000161787 0 0)
(0.141943 -0.00168226 0 0.000145373 0 0)
(0.150898 -0.00131132 0 0.000137424 0 0)
(0.15808 -0.000907603 -8.42254e-21 0.000138709 1.2675e-22 1.16631e-36)
(0.16325 -0.000521829 0 0.000148691 0 0)
(0.166399 -0.000162682 8.48234e-21 0.000164123 -1.35014e-22 1.10216e-36)
(0.167592 0.000190265 -8.54066e-21 0.000182487 1.38041e-22 1.07106e-36)
(0.166934 0.000481242 0 0.000204156 0 0)
(0.164848 0.000560633 0 0.000225849 0 0)
(0.16219 0.000350268 0 0.000234754 0 0)
(0.159943 -4.82184e-05 8.87273e-21 0.000227329 -1.30514e-22 9.52992e-37)
(0.158827 -0.00044742 8.95945e-21 0.000218356 -1.27194e-22 9.25002e-37)
(0.159099 -0.000744687 0 0.000218108 0 0)
(0.160724 -0.000970019 9.12508e-21 0.000222847 -1.20896e-22 8.70784e-37)
(0.163646 -0.0012095 9.20157e-21 0.000225439 -1.15614e-22 8.44538e-37)
(0.167912 -0.00150567 -9.2709e-21 0.000219384 1.08701e-22 8.18854e-37)
(0.173589 -0.00182192 0 0.000203434 0 0)
(0.180642 -0.00208978 0 0.000186755 0 0)
(0.188898 -0.00227465 -9.42289e-21 0.000179352 9.05163e-23 7.45088e-37)
(0.198137 -0.00239025 0 0.000181288 0 0)
(0.208186 -0.00246969 0 0.000186227 0 0)
(0.21895 -0.0025394 0 0.000189934 0 0)
(0.230399 -0.00261297 0 0.000192462 0 0)
(0.242545 -0.00269552 9.54298e-21 0.000195097 -8.00549e-23 6.32574e-37)
(0.255419 -0.00278732 9.55386e-21 0.000197854 -7.70098e-23 6.1156e-37)
(0.269059 -0.00288435 0 0.000199417 0 0)
(0.283485 -0.00297707 9.55777e-21 0.000197451 -6.8247e-23 5.7096e-37)
(0.298685 -0.00304702 0 0.000188141 0 0)
(0.314557 -0.00306376 0 0.000167167 0 0)
(0.330878 -0.00299302 9.49251e-21 0.000134184 -4.7707e-23 5.13511e-37)
(0.347273 -0.00281988 0 9.61575e-05 0 0)
(0.363327 -0.00256617 9.38319e-21 6.28182e-05 -3.43909e-23 4.77429e-37)
(0.378662 -0.00227844 0 3.93337e-05 0 0)
(0.393106 -0.00199891 0 2.49078e-05 0 0)