/*--------------------------------*- C++ -*----------------------------------*\
  =========                 |
  \\      /  F ield         | OpenFOAM: The Open Source CFD Toolbox
   \\    /   O peration     | Website:  https://openfoam.org
    \\  /    A nd           | Version:  10
     \\/     M anipulation  |
\*---------------------------------------------------------------------------*/
FoamFile
{
    format      ascii;
    class       volVectorField;
    location    "17200";
    object      Ua;
}
// * * * * * * * * * * * * * * * * * * * * * * * * * * * * * * * * * * * * * //

dimensions      [0 1 -1 0 0 0 0];

internalField   nonuniform List<vector> 
6400
(
(-4.61956e-07 9.39013e-08 0)
(-1.399e-06 9.65715e-08 0)
(-2.3774e-06 1.02307e-07 0)
(-3.43194e-06 1.12048e-07 0)
(-4.61145e-06 1.27708e-07 0)
(-5.99373e-06 1.53268e-07 0)
(-7.72107e-06 1.97846e-07 0)
(-1.0084e-05 2.82469e-07 0)
(-1.30418e-05 3.18757e-07 0)
(-7.73124e-06 6.14309e-06 0)
(-4.53916e-07 5.56169e-06 0)
(-4.28549e-08 4.63186e-07 0)
(-2.39324e-08 1.84114e-07 0)
(-1.41358e-08 1.08924e-07 0)
(-9.53773e-09 7.56908e-08 0)
(-7.36409e-09 5.72069e-08 0)
(-6.01602e-09 4.56856e-08 0)
(-5.11228e-09 3.78477e-08 0)
(-4.3519e-09 3.22444e-08 0)
(-3.75565e-09 2.80699e-08 0)
(-3.28271e-09 2.4872e-08 0)
(-2.897e-09 2.23428e-08 0)
(-2.58231e-09 2.03085e-08 0)
(-2.34002e-09 1.86548e-08 0)
(-2.13594e-09 1.72692e-08 0)
(-1.96234e-09 1.61039e-08 0)
(-1.82033e-09 1.51236e-08 0)
(-1.69663e-09 1.4286e-08 0)
(-1.58719e-09 1.3574e-08 0)
(-1.49157e-09 1.2951e-08 0)
(-1.39927e-09 1.24036e-08 0)
(-1.29168e-09 1.19263e-08 0)
(-1.1937e-09 1.1536e-08 0)
(-1.11e-09 1.13775e-08 0)
(-1.00684e-09 1.1234e-08 0)
(-8.79714e-10 1.11083e-08 0)
(-7.25555e-10 1.10019e-08 0)
(-5.43965e-10 1.09213e-08 0)
(-3.3778e-10 1.0869e-08 0)
(-1.14559e-10 1.08256e-08 0)
(1.14559e-10 1.08256e-08 0)
(3.3778e-10 1.0869e-08 0)
(5.43965e-10 1.09213e-08 0)
(7.25555e-10 1.10019e-08 0)
(8.79714e-10 1.11083e-08 0)
(1.00684e-09 1.1234e-08 0)
(1.11e-09 1.13775e-08 0)
(1.1937e-09 1.1536e-08 0)
(1.29168e-09 1.19263e-08 0)
(1.39927e-09 1.24036e-08 0)
(1.49157e-09 1.2951e-08 0)
(1.58719e-09 1.3574e-08 0)
(1.69663e-09 1.4286e-08 0)
(1.82033e-09 1.51236e-08 0)
(1.96234e-09 1.61039e-08 0)
(2.13594e-09 1.72692e-08 0)
(2.34002e-09 1.86548e-08 0)
(2.58231e-09 2.03085e-08 0)
(2.897e-09 2.23428e-08 0)
(3.28271e-09 2.4872e-08 0)
(3.75565e-09 2.80699e-08 0)
(4.3519e-09 3.22444e-08 0)
(5.11228e-09 3.78477e-08 0)
(6.01602e-09 4.56856e-08 0)
(7.36409e-09 5.72069e-08 0)
(9.53773e-09 7.56908e-08 0)
(1.41358e-08 1.08924e-07 0)
(2.39324e-08 1.84114e-07 0)
(4.28549e-08 4.63186e-07 0)
(4.53916e-07 5.56169e-06 0)
(7.73124e-06 6.14309e-06 0)
(1.30418e-05 3.18757e-07 0)
(1.0084e-05 2.82469e-07 0)
(7.72107e-06 1.97846e-07 0)
(5.99373e-06 1.53268e-07 0)
(4.61145e-06 1.27708e-07 0)
(3.43194e-06 1.12048e-07 0)
(2.3774e-06 1.02307e-07 0)
(1.399e-06 9.65715e-08 0)
(4.61956e-07 9.39013e-08 0)
(-4.61387e-07 2.90669e-07 0)
(-1.39721e-06 2.98919e-07 0)
(-2.3741e-06 3.16636e-07 0)
(-3.42653e-06 3.46713e-07 0)
(-4.60266e-06 3.9502e-07 0)
(-5.97879e-06 4.7374e-07 0)
(-7.69354e-06 6.10793e-07 0)
(-1.00583e-05 8.77053e-07 0)
(-1.47081e-05 1.36207e-06 0)
(-1.42404e-05 1.13779e-05 0)
(-9.19712e-06 4.36703e-06 0)
(-4.03545e-06 1.67573e-05 0)
(-1.29027e-07 5.75465e-07 0)
(-4.43477e-08 2.35294e-07 0)
(-2.58292e-08 1.43982e-07 0)
(-1.88521e-08 1.03021e-07 0)
(-1.49344e-08 8.02334e-08 0)
(-1.24889e-08 6.53614e-08 0)
(-1.05096e-08 5.51749e-08 0)
(-9.00381e-09 4.77326e-08 0)
(-7.83081e-09 4.21302e-08 0)
(-6.88574e-09 3.77217e-08 0)
(-6.11976e-09 3.42304e-08 0)
(-5.53737e-09 3.13996e-08 0)
(-5.04865e-09 2.90333e-08 0)
(-4.63368e-09 2.70612e-08 0)
(-4.29649e-09 2.54023e-08 0)
(-4.00278e-09 2.39836e-08 0)
(-3.74328e-09 2.27838e-08 0)
(-3.51861e-09 2.17357e-08 0)
(-3.30402e-09 2.08115e-08 0)
(-3.05569e-09 2e-08 0)
(-2.8302e-09 1.9333e-08 0)
(-2.63773e-09 1.90581e-08 0)
(-2.39948e-09 1.88074e-08 0)
(-2.10351e-09 1.85859e-08 0)
(-1.74099e-09 1.83983e-08 0)
(-1.30942e-09 1.82554e-08 0)
(-8.15029e-10 1.81613e-08 0)
(-2.76765e-10 1.80859e-08 0)
(2.76765e-10 1.80859e-08 0)
(8.15029e-10 1.81613e-08 0)
(1.30942e-09 1.82554e-08 0)
(1.74099e-09 1.83983e-08 0)
(2.10351e-09 1.85859e-08 0)
(2.39948e-09 1.88074e-08 0)
(2.63773e-09 1.90581e-08 0)
(2.8302e-09 1.9333e-08 0)
(3.05569e-09 2e-08 0)
(3.30402e-09 2.08115e-08 0)
(3.51861e-09 2.17357e-08 0)
(3.74328e-09 2.27838e-08 0)
(4.00278e-09 2.39836e-08 0)
(4.29649e-09 2.54023e-08 0)
(4.63368e-09 2.70612e-08 0)
(5.04865e-09 2.90333e-08 0)
(5.53737e-09 3.13996e-08 0)
(6.11976e-09 3.42304e-08 0)
(6.88574e-09 3.77217e-08 0)
(7.83081e-09 4.21302e-08 0)
(9.00381e-09 4.77326e-08 0)
(1.05096e-08 5.51749e-08 0)
(1.24889e-08 6.53614e-08 0)
(1.49344e-08 8.02334e-08 0)
(1.88521e-08 1.03021e-07 0)
(2.58292e-08 1.43982e-07 0)
(4.43477e-08 2.35294e-07 0)
(1.29027e-07 5.75465e-07 0)
(4.03545e-06 1.67573e-05 0)
(9.19712e-06 4.36703e-06 0)
(1.42404e-05 1.13779e-05 0)
(1.47081e-05 1.36207e-06 0)
(1.00583e-05 8.77053e-07 0)
(7.69354e-06 6.10793e-07 0)
(5.97879e-06 4.7374e-07 0)
(4.60266e-06 3.9502e-07 0)
(3.42653e-06 3.46713e-07 0)
(2.3741e-06 3.16636e-07 0)
(1.39721e-06 2.98919e-07 0)
(4.61387e-07 2.90669e-07 0)
(-4.60082e-07 5.06043e-07 0)
(-1.39311e-06 5.20348e-07 0)
(-2.36655e-06 5.51049e-07 0)
(-3.41414e-06 6.03114e-07 0)
(-4.5826e-06 6.86571e-07 0)
(-5.94474e-06 8.22091e-07 0)
(-7.62946e-06 1.05672e-06 0)
(-9.91091e-06 1.51624e-06 0)
(-1.36141e-05 2.66514e-06 0)
(-1.39651e-05 1.00564e-05 0)
(-1.82776e-05 6.2849e-06 0)
(-1.38367e-05 3.04157e-05 0)
(-1.81652e-06 9.88302e-06 0)
(-3.32706e-07 1.28481e-06 0)
(-7.48976e-08 4.66691e-07 0)
(-4.06136e-08 2.43723e-07 0)
(-2.89809e-08 1.72036e-07 0)
(-2.32006e-08 1.33689e-07 0)
(-1.89899e-08 1.1016e-07 0)
(-1.60133e-08 9.39043e-08 0)
(-1.37866e-08 8.21339e-08 0)
(-1.20383e-08 7.30433e-08 0)
(-1.06396e-08 6.60266e-08 0)
(-9.60363e-09 6.03875e-08 0)
(-8.73728e-09 5.571e-08 0)
(-8.00357e-09 5.18641e-08 0)
(-7.41643e-09 4.86371e-08 0)
(-6.90439e-09 4.58814e-08 0)
(-6.45253e-09 4.35681e-08 0)
(-6.06826e-09 4.15549e-08 0)
(-5.70824e-09 3.97793e-08 0)
(-5.29731e-09 3.82184e-08 0)
(-4.92633e-09 3.69379e-08 0)
(-4.6102e-09 3.64102e-08 0)
(-4.2153e-09 3.59306e-08 0)
(-3.717e-09 3.55099e-08 0)
(-3.09507e-09 3.51583e-08 0)
(-2.34073e-09 3.48943e-08 0)
(-1.46306e-09 3.47203e-08 0)
(-4.97938e-10 3.45817e-08 0)
(4.97938e-10 3.45817e-08 0)
(1.46306e-09 3.47203e-08 0)
(2.34073e-09 3.48943e-08 0)
(3.09507e-09 3.51583e-08 0)
(3.717e-09 3.55099e-08 0)
(4.2153e-09 3.59306e-08 0)
(4.6102e-09 3.64102e-08 0)
(4.92633e-09 3.69379e-08 0)
(5.29731e-09 3.82184e-08 0)
(5.70824e-09 3.97793e-08 0)
(6.06826e-09 4.15549e-08 0)
(6.45253e-09 4.35681e-08 0)
(6.90439e-09 4.58814e-08 0)
(7.41643e-09 4.86371e-08 0)
(8.00357e-09 5.18641e-08 0)
(8.73728e-09 5.571e-08 0)
(9.60363e-09 6.03875e-08 0)
(1.06396e-08 6.60266e-08 0)
(1.20383e-08 7.30433e-08 0)
(1.37866e-08 8.21339e-08 0)
(1.60133e-08 9.39043e-08 0)
(1.89899e-08 1.1016e-07 0)
(2.32006e-08 1.33689e-07 0)
(2.89809e-08 1.72036e-07 0)
(4.06136e-08 2.43723e-07 0)
(7.48976e-08 4.66691e-07 0)
(3.32706e-07 1.28481e-06 0)
(1.81652e-06 9.88302e-06 0)
(1.38367e-05 3.04157e-05 0)
(1.82776e-05 6.2849e-06 0)
(1.39651e-05 1.00564e-05 0)
(1.36141e-05 2.66514e-06 0)
(9.91091e-06 1.51624e-06 0)
(7.62946e-06 1.05672e-06 0)
(5.94474e-06 8.22091e-07 0)
(4.5826e-06 6.86571e-07 0)
(3.41414e-06 6.03114e-07 0)
(2.36655e-06 5.51049e-07 0)
(1.39311e-06 5.20348e-07 0)
(4.60082e-07 5.06043e-07 0)
(-4.57845e-07 7.41351e-07 0)
(-1.38607e-06 7.62164e-07 0)
(-2.35362e-06 8.06787e-07 0)
(-3.39298e-06 8.82326e-07 0)
(-4.54846e-06 1.00301e-06 0)
(-5.88718e-06 1.19781e-06 0)
(-7.52178e-06 1.5314e-06 0)
(-9.66016e-06 2.173e-06 0)
(-1.26245e-05 3.70903e-06 0)
(-1.33769e-05 9.30013e-06 0)
(-1.59422e-05 8.78376e-06 0)
(-1.09053e-05 2.54799e-05 0)
(4.17287e-07 1.80648e-05 0)
(-2.89747e-06 3.8387e-06 0)
(-4.68968e-06 1.41637e-05 0)
(-2.6061e-07 9.40359e-07 0)
(-7.19459e-08 4.46104e-07 0)
(-4.40735e-08 2.61762e-07 0)
(-3.23746e-08 1.95591e-07 0)
(-2.59792e-08 1.59199e-07 0)
(-2.17736e-08 1.35914e-07 0)
(-1.871e-08 1.19022e-07 0)
(-1.6345e-08 1.06685e-07 0)
(-1.46824e-08 9.70009e-08 0)
(-1.33014e-08 8.90982e-08 0)
(-1.21386e-08 8.27478e-08 0)
(-1.12354e-08 7.74552e-08 0)
(-1.04455e-08 7.29551e-08 0)
(-9.7494e-09 6.9226e-08 0)
(-9.17546e-09 6.6e-08 0)
(-8.65484e-09 6.31586e-08 0)
(-8.07439e-09 6.06614e-08 0)
(-7.55639e-09 5.86209e-08 0)
(-7.11731e-09 5.77813e-08 0)
(-6.56026e-09 5.70199e-08 0)
(-5.83782e-09 5.63547e-08 0)
(-4.90692e-09 5.58047e-08 0)
(-3.74309e-09 5.53943e-08 0)
(-2.35516e-09 5.51206e-08 0)
(-8.0444e-10 5.49061e-08 0)
(8.0444e-10 5.49061e-08 0)
(2.35516e-09 5.51206e-08 0)
(3.74309e-09 5.53943e-08 0)
(4.90692e-09 5.58047e-08 0)
(5.83782e-09 5.63547e-08 0)
(6.56026e-09 5.70199e-08 0)
(7.11731e-09 5.77813e-08 0)
(7.55639e-09 5.86209e-08 0)
(8.07439e-09 6.06614e-08 0)
(8.65484e-09 6.31586e-08 0)
(9.17546e-09 6.6e-08 0)
(9.7494e-09 6.9226e-08 0)
(1.04455e-08 7.29551e-08 0)
(1.12354e-08 7.74552e-08 0)
(1.21386e-08 8.27478e-08 0)
(1.33014e-08 8.90982e-08 0)
(1.46824e-08 9.70009e-08 0)
(1.6345e-08 1.06685e-07 0)
(1.871e-08 1.19022e-07 0)
(2.17736e-08 1.35914e-07 0)
(2.59792e-08 1.59199e-07 0)
(3.23746e-08 1.95591e-07 0)
(4.40735e-08 2.61762e-07 0)
(7.19459e-08 4.46104e-07 0)
(2.6061e-07 9.40359e-07 0)
(4.68968e-06 1.41637e-05 0)
(2.89747e-06 3.8387e-06 0)
(-4.17287e-07 1.80648e-05 0)
(1.09053e-05 2.54799e-05 0)
(1.59422e-05 8.78376e-06 0)
(1.33769e-05 9.30013e-06 0)
(1.26245e-05 3.70903e-06 0)
(9.66016e-06 2.173e-06 0)
(7.52178e-06 1.5314e-06 0)
(5.88718e-06 1.19781e-06 0)
(4.54846e-06 1.00301e-06 0)
(3.39298e-06 8.82326e-07 0)
(2.35362e-06 8.06787e-07 0)
(1.38607e-06 7.62164e-07 0)
(4.57845e-07 7.41351e-07 0)
(-4.54446e-07 9.97844e-07 0)
(-1.37539e-06 1.02556e-06 0)
(-2.33401e-06 1.08491e-06 0)
(-3.36101e-06 1.1851e-06 0)
(-4.4972e-06 1.3444e-06 0)
(-5.80173e-06 1.59926e-06 0)
(-7.36567e-06 2.02846e-06 0)
(-9.32284e-06 2.82527e-06 0)
(-1.17058e-05 4.55288e-06 0)
(-1.25951e-05 8.9197e-06 0)
(-1.3954e-05 1.0252e-05 0)
(-9.83746e-06 2.14497e-05 0)
(-2.07233e-06 1.67738e-05 0)
(-6.69531e-06 7.38636e-06 0)
(-3.59922e-06 2.47788e-05 0)
(-2.49096e-06 4.07899e-06 0)
(-5.73627e-06 1.71964e-05 0)
(-2.94105e-07 9.68299e-07 0)
(-8.27378e-08 4.91294e-07 0)
(-4.72036e-08 2.91108e-07 0)
(-3.49436e-08 2.21815e-07 0)
(-2.83524e-08 1.84093e-07 0)
(-2.39394e-08 1.60728e-07 0)
(-2.1192e-08 1.43864e-07 0)
(-1.89961e-08 1.30791e-07 0)
(-1.7193e-08 1.20793e-07 0)
(-1.58716e-08 1.12627e-07 0)
(-1.47146e-08 1.05767e-07 0)
(-1.36981e-08 1.00216e-07 0)
(-1.29019e-08 9.54641e-08 0)
(-1.22162e-08 9.12997e-08 0)
(-1.14816e-08 8.76514e-08 0)
(-1.08415e-08 8.46968e-08 0)
(-1.0309e-08 8.34848e-08 0)
(-9.61618e-09 8.23848e-08 0)
(-8.6733e-09 8.14212e-08 0)
(-7.39165e-09 8.06251e-08 0)
(-5.71113e-09 8.0025e-08 0)
(-3.62959e-09 7.96097e-08 0)
(-1.24653e-09 7.92937e-08 0)
(1.24653e-09 7.92937e-08 0)
(3.62959e-09 7.96097e-08 0)
(5.71113e-09 8.0025e-08 0)
(7.39165e-09 8.06251e-08 0)
(8.6733e-09 8.14212e-08 0)
(9.61618e-09 8.23848e-08 0)
(1.0309e-08 8.34848e-08 0)
(1.08415e-08 8.46968e-08 0)
(1.14816e-08 8.76514e-08 0)
(1.22162e-08 9.12997e-08 0)
(1.29019e-08 9.54641e-08 0)
(1.36981e-08 1.00216e-07 0)
(1.47146e-08 1.05767e-07 0)
(1.58716e-08 1.12627e-07 0)
(1.7193e-08 1.20793e-07 0)
(1.89961e-08 1.30791e-07 0)
(2.1192e-08 1.43864e-07 0)
(2.39394e-08 1.60728e-07 0)
(2.83524e-08 1.84093e-07 0)
(3.49436e-08 2.21815e-07 0)
(4.72036e-08 2.91108e-07 0)
(8.27378e-08 4.91294e-07 0)
(2.94105e-07 9.68299e-07 0)
(5.73627e-06 1.71964e-05 0)
(2.49096e-06 4.07899e-06 0)
(3.59922e-06 2.47788e-05 0)
(6.69531e-06 7.38636e-06 0)
(2.07233e-06 1.67738e-05 0)
(9.83746e-06 2.14497e-05 0)
(1.3954e-05 1.0252e-05 0)
(1.25951e-05 8.9197e-06 0)
(1.17058e-05 4.55288e-06 0)
(9.32284e-06 2.82527e-06 0)
(7.36567e-06 2.02846e-06 0)
(5.80173e-06 1.59926e-06 0)
(4.4972e-06 1.3444e-06 0)
(3.36101e-06 1.1851e-06 0)
(2.33401e-06 1.08491e-06 0)
(1.37539e-06 1.02556e-06 0)
(4.54446e-07 9.97844e-07 0)
(-4.49625e-07 1.27662e-06 0)
(-1.36025e-06 1.31155e-06 0)
(-2.30631e-06 1.3862e-06 0)
(-3.31605e-06 1.51175e-06 0)
(-4.42569e-06 1.71004e-06 0)
(-5.68447e-06 2.02357e-06 0)
(-7.15876e-06 2.53995e-06 0)
(-8.91422e-06 3.45598e-06 0)
(-1.08337e-05 5.24258e-06 0)
(-1.16949e-05 8.76946e-06 0)
(-1.22701e-05 1.09876e-05 0)
(-8.99725e-06 1.8447e-05 0)
(-3.67907e-06 1.57761e-05 0)
(-5.81102e-06 1.0432e-05 0)
(-4.01318e-06 2.02422e-05 0)
(-5.63528e-06 8.84826e-06 0)
(-2.69197e-07 2.97659e-05 0)
(1.46606e-06 4.99253e-06 0)
(-4.95515e-06 1.32885e-05 0)
(-4.92174e-07 1.42238e-06 0)
(-1.12275e-07 6.00723e-07 0)
(-5.48833e-08 3.48311e-07 0)
(-3.80927e-08 2.57041e-07 0)
(-3.12055e-08 2.13662e-07 0)
(-2.68232e-08 1.86934e-07 0)
(-2.36604e-08 1.69391e-07 0)
(-2.16304e-08 1.56171e-07 0)
(-1.99014e-08 1.45571e-07 0)
(-1.8412e-08 1.37438e-07 0)
(-1.73429e-08 1.3064e-07 0)
(-1.64972e-08 1.24777e-07 0)
(-1.56522e-08 1.19693e-07 0)
(-1.49553e-08 1.15659e-07 0)
(-1.44127e-08 1.14017e-07 0)
(-1.36758e-08 1.12516e-07 0)
(-1.25748e-08 1.11178e-07 0)
(-1.09294e-08 1.10055e-07 0)
(-8.60282e-09 1.09172e-07 0)
(-5.54909e-09 1.08509e-07 0)
(-1.92126e-09 1.08026e-07 0)
(1.92126e-09 1.08026e-07 0)
(5.54909e-09 1.08509e-07 0)
(8.60282e-09 1.09172e-07 0)
(1.09294e-08 1.10055e-07 0)
(1.25748e-08 1.11178e-07 0)
(1.36758e-08 1.12516e-07 0)
(1.44127e-08 1.14017e-07 0)
(1.49553e-08 1.15659e-07 0)
(1.56522e-08 1.19693e-07 0)
(1.64972e-08 1.24777e-07 0)
(1.73429e-08 1.3064e-07 0)
(1.8412e-08 1.37438e-07 0)
(1.99014e-08 1.45571e-07 0)
(2.16304e-08 1.56171e-07 0)
(2.36604e-08 1.69391e-07 0)
(2.68232e-08 1.86934e-07 0)
(3.12055e-08 2.13662e-07 0)
(3.80927e-08 2.57041e-07 0)
(5.48833e-08 3.48311e-07 0)
(1.12275e-07 6.00723e-07 0)
(4.92174e-07 1.42238e-06 0)
(4.95515e-06 1.32885e-05 0)
(-1.46606e-06 4.99253e-06 0)
(2.69197e-07 2.97659e-05 0)
(5.63528e-06 8.84826e-06 0)
(4.01318e-06 2.02422e-05 0)
(5.81102e-06 1.0432e-05 0)
(3.67907e-06 1.57761e-05 0)
(8.99725e-06 1.8447e-05 0)
(1.22701e-05 1.09876e-05 0)
(1.16949e-05 8.76946e-06 0)
(1.08337e-05 5.24258e-06 0)
(8.91422e-06 3.45598e-06 0)
(7.15876e-06 2.53995e-06 0)
(5.68447e-06 2.02357e-06 0)
(4.42569e-06 1.71004e-06 0)
(3.31605e-06 1.51175e-06 0)
(2.30631e-06 1.3862e-06 0)
(1.36025e-06 1.31155e-06 0)
(4.49625e-07 1.27662e-06 0)
(-4.43095e-07 1.57851e-06 0)
(-1.33978e-06 1.62083e-06 0)
(-2.26897e-06 1.71103e-06 0)
(-3.25582e-06 1.86199e-06 0)
(-4.33098e-06 2.09837e-06 0)
(-5.53234e-06 2.46659e-06 0)
(-6.90113e-06 3.05706e-06 0)
(-8.44813e-06 4.0528e-06 0)
(-9.99276e-06 5.81179e-06 0)
(-1.07387e-05 8.74211e-06 0)
(-1.08432e-05 1.12376e-05 0)
(-8.29893e-06 1.62405e-05 0)
(-4.62816e-06 1.49674e-05 0)
(-5.27008e-06 1.21558e-05 0)
(-4.09441e-06 1.75223e-05 0)
(-4.4058e-06 1.22018e-05 0)
(-7.23029e-07 2.33775e-05 0)
(9.08989e-07 1.02444e-05 0)
(3.68378e-06 2.30144e-05 0)
(4.36465e-06 5.04855e-06 0)
(-3.55516e-06 7.80697e-06 0)
(-2.24169e-06 5.85857e-06 0)
(-2.12141e-07 8.72402e-07 0)
(-7.89477e-08 4.93156e-07 0)
(-4.64395e-08 3.15456e-07 0)
(-3.50818e-08 2.51163e-07 0)
(-3.01611e-08 2.1842e-07 0)
(-2.68068e-08 1.97397e-07 0)
(-2.42627e-08 1.83638e-07 0)
(-2.27203e-08 1.73148e-07 0)
(-2.16787e-08 1.64665e-07 0)
(-2.07764e-08 1.57579e-07 0)
(-2.01339e-08 1.52245e-07 0)
(-1.97615e-08 1.50115e-07 0)
(-1.92085e-08 1.48143e-07 0)
(-1.81454e-08 1.46299e-07 0)
(-1.62077e-08 1.44692e-07 0)
(-1.31035e-08 1.4332e-07 0)
(-8.64107e-09 1.42127e-07 0)
(-3.02763e-09 1.41292e-07 0)
(3.02763e-09 1.41292e-07 0)
(8.64107e-09 1.42127e-07 0)
(1.31035e-08 1.4332e-07 0)
(1.62077e-08 1.44692e-07 0)
(1.81454e-08 1.46299e-07 0)
(1.92085e-08 1.48143e-07 0)
(1.97615e-08 1.50115e-07 0)
(2.01339e-08 1.52245e-07 0)
(2.07764e-08 1.57579e-07 0)
(2.16787e-08 1.64665e-07 0)
(2.27203e-08 1.73148e-07 0)
(2.42627e-08 1.83638e-07 0)
(2.68068e-08 1.97397e-07 0)
(3.01611e-08 2.1842e-07 0)
(3.50818e-08 2.51163e-07 0)
(4.64395e-08 3.15456e-07 0)
(7.89477e-08 4.93156e-07 0)
(2.12141e-07 8.72402e-07 0)
(2.24169e-06 5.85857e-06 0)
(3.55516e-06 7.80697e-06 0)
(-4.36465e-06 5.04855e-06 0)
(-3.68378e-06 2.30144e-05 0)
(-9.08989e-07 1.02444e-05 0)
(7.23029e-07 2.33775e-05 0)
(4.4058e-06 1.22018e-05 0)
(4.09441e-06 1.75223e-05 0)
(5.27008e-06 1.21558e-05 0)
(4.62816e-06 1.49674e-05 0)
(8.29893e-06 1.62405e-05 0)
(1.08432e-05 1.12376e-05 0)
(1.07387e-05 8.74211e-06 0)
(9.99276e-06 5.81179e-06 0)
(8.44813e-06 4.0528e-06 0)
(6.90113e-06 3.05706e-06 0)
(5.53234e-06 2.46659e-06 0)
(4.33098e-06 2.09837e-06 0)
(3.25582e-06 1.86199e-06 0)
(2.26897e-06 1.71103e-06 0)
(1.33978e-06 1.62083e-06 0)
(4.43095e-07 1.57851e-06 0)
(-4.34555e-07 1.90401e-06 0)
(-1.31306e-06 1.9537e-06 0)
(-2.22044e-06 2.05925e-06 0)
(-3.17816e-06 2.2348e-06 0)
(-4.21052e-06 2.50681e-06 0)
(-5.34349e-06 2.92311e-06 0)
(-6.59515e-06 3.57084e-06 0)
(-7.93722e-06 4.60749e-06 0)
(-9.17522e-06 6.28434e-06 0)
(-9.77423e-06 8.76609e-06 0)
(-9.62602e-06 1.11931e-05 0)
(-7.68092e-06 1.46295e-05 0)
(-5.10281e-06 1.42785e-05 0)
(-4.91543e-06 1.29991e-05 0)
(-3.98822e-06 1.59029e-05 0)
(-3.58177e-06 1.37736e-05 0)
(-9.51524e-07 1.94813e-05 0)
(7.66585e-07 1.28961e-05 0)
(2.85731e-06 1.85691e-05 0)
(3.57262e-06 8.97518e-06 0)
(2.0743e-06 1.39322e-05 0)
(4.43165e-06 1.10856e-05 0)
(-1.763e-06 3.98543e-06 0)
(-5.33797e-06 1.04321e-05 0)
(-1.29117e-06 3.05564e-06 0)
(-1.84837e-07 7.73885e-07 0)
(-7.59967e-08 4.71391e-07 0)
(-4.56741e-08 3.23883e-07 0)
(-3.4853e-08 2.62698e-07 0)
(-3.05755e-08 2.33302e-07 0)
(-2.85186e-08 2.1575e-07 0)
(-2.73038e-08 2.03702e-07 0)
(-2.67589e-08 1.9609e-07 0)
(-2.68728e-08 1.93238e-07 0)
(-2.7003e-08 1.90607e-07 0)
(-2.64696e-08 1.87895e-07 0)
(-2.45232e-08 1.85462e-07 0)
(-2.06117e-08 1.83161e-07 0)
(-1.40578e-08 1.80628e-07 0)
(-5.01088e-09 1.7891e-07 0)
(5.01088e-09 1.7891e-07 0)
(1.40578e-08 1.80628e-07 0)
(2.06117e-08 1.83161e-07 0)
(2.45232e-08 1.85462e-07 0)
(2.64696e-08 1.87895e-07 0)
(2.7003e-08 1.90607e-07 0)
(2.68728e-08 1.93238e-07 0)
(2.67589e-08 1.9609e-07 0)
(2.73038e-08 2.03702e-07 0)
(2.85186e-08 2.1575e-07 0)
(3.05755e-08 2.33302e-07 0)
(3.4853e-08 2.62698e-07 0)
(4.56741e-08 3.23883e-07 0)
(7.59967e-08 4.71391e-07 0)
(1.84837e-07 7.73885e-07 0)
(1.29117e-06 3.05564e-06 0)
(5.33797e-06 1.04321e-05 0)
(1.763e-06 3.98543e-06 0)
(-4.43165e-06 1.10856e-05 0)
(-2.0743e-06 1.39322e-05 0)
(-3.57262e-06 8.97518e-06 0)
(-2.85731e-06 1.85691e-05 0)
(-7.66585e-07 1.28961e-05 0)
(9.51524e-07 1.94813e-05 0)
(3.58177e-06 1.37736e-05 0)
(3.98822e-06 1.59029e-05 0)
(4.91543e-06 1.29991e-05 0)
(5.10281e-06 1.42785e-05 0)
(7.68092e-06 1.46295e-05 0)
(9.62602e-06 1.11931e-05 0)
(9.77423e-06 8.76609e-06 0)
(9.17522e-06 6.28434e-06 0)
(7.93722e-06 4.60749e-06 0)
(6.59515e-06 3.57084e-06 0)
(5.34349e-06 2.92311e-06 0)
(4.21052e-06 2.50681e-06 0)
(3.17816e-06 2.2348e-06 0)
(2.22044e-06 2.05925e-06 0)
(1.31306e-06 1.9537e-06 0)
(4.34555e-07 1.90401e-06 0)
(-4.23703e-07 2.2531e-06 0)
(-1.27919e-06 2.30987e-06 0)
(-2.15927e-06 2.43e-06 0)
(-3.08119e-06 2.62833e-06 0)
(-4.06252e-06 2.93184e-06 0)
(-5.11759e-06 3.3871e-06 0)
(-6.24526e-06 4.07285e-06 0)
(-7.39328e-06 5.11523e-06 0)
(-8.37948e-06 6.67706e-06 0)
(-8.83439e-06 8.79957e-06 0)
(-8.57483e-06 1.09915e-05 0)
(-7.10308e-06 1.34494e-05 0)
(-5.24573e-06 1.36671e-05 0)
(-4.64333e-06 1.32813e-05 0)
(-3.78947e-06 1.48972e-05 0)
(-3.02927e-06 1.42979e-05 0)
(-1.05804e-06 1.70968e-05 0)
(5.51528e-07 1.39284e-05 0)
(2.1681e-06 1.6037e-05 0)
(2.80393e-06 1.09589e-05 0)
(2.19917e-06 1.27875e-05 0)
(3.08315e-06 1.09388e-05 0)
(5.46938e-08 7.82628e-06 0)
(2.81765e-06 1.76804e-05 0)
(6.17969e-06 6.72327e-06 0)
(-1.14689e-06 3.33878e-06 0)
(-5.58535e-06 7.43028e-06 0)
(-2.74008e-06 5.93727e-06 0)
(-2.52753e-07 8.66649e-07 0)
(-9.46987e-08 5.04304e-07 0)
(-5.42522e-08 3.78999e-07 0)
(-4.13149e-08 2.93372e-07 0)
(-3.77746e-08 2.62949e-07 0)
(-3.78756e-08 2.5328e-07 0)
(-3.92077e-08 2.46327e-07 0)
(-4.00259e-08 2.39643e-07 0)
(-3.86116e-08 2.3486e-07 0)
(-3.43128e-08 2.30539e-07 0)
(-2.46644e-08 2.23877e-07 0)
(-8.99483e-09 2.19649e-07 0)
(8.99483e-09 2.19649e-07 0)
(2.46644e-08 2.23877e-07 0)
(3.43128e-08 2.30539e-07 0)
(3.86116e-08 2.3486e-07 0)
(4.00259e-08 2.39643e-07 0)
(3.92077e-08 2.46327e-07 0)
(3.78756e-08 2.5328e-07 0)
(3.77746e-08 2.62949e-07 0)
(4.13149e-08 2.93372e-07 0)
(5.42522e-08 3.78999e-07 0)
(9.46987e-08 5.04304e-07 0)
(2.52753e-07 8.66649e-07 0)
(2.74008e-06 5.93727e-06 0)
(5.58535e-06 7.43028e-06 0)
(1.14689e-06 3.33878e-06 0)
(-6.17969e-06 6.72327e-06 0)
(-2.81765e-06 1.76804e-05 0)
(-5.46938e-08 7.82628e-06 0)
(-3.08315e-06 1.09388e-05 0)
(-2.19917e-06 1.27875e-05 0)
(-2.80393e-06 1.09589e-05 0)
(-2.1681e-06 1.6037e-05 0)
(-5.51528e-07 1.39284e-05 0)
(1.05804e-06 1.70968e-05 0)
(3.02927e-06 1.42979e-05 0)
(3.78947e-06 1.48972e-05 0)
(4.64333e-06 1.32813e-05 0)
(5.24573e-06 1.36671e-05 0)
(7.10308e-06 1.34494e-05 0)
(8.57483e-06 1.09915e-05 0)
(8.83439e-06 8.79957e-06 0)
(8.37948e-06 6.67706e-06 0)
(7.39328e-06 5.11523e-06 0)
(6.24526e-06 4.07285e-06 0)
(5.11759e-06 3.3871e-06 0)
(4.06252e-06 2.93184e-06 0)
(3.08119e-06 2.62833e-06 0)
(2.15927e-06 2.43e-06 0)
(1.27919e-06 2.30987e-06 0)
(4.23703e-07 2.2531e-06 0)
(-4.10264e-07 2.62508e-06 0)
(-1.23737e-06 2.68837e-06 0)
(-2.08421e-06 2.82167e-06 0)
(-2.96354e-06 3.03983e-06 0)
(-3.88616e-06 3.36901e-06 0)
(-4.85604e-06 3.85206e-06 0)
(-5.85763e-06 4.55574e-06 0)
(-6.82742e-06 5.57401e-06 0)
(-7.60767e-06 7.00254e-06 0)
(-7.93934e-06 8.82266e-06 0)
(-7.65223e-06 1.07239e-05 0)
(-6.54258e-06 1.25723e-05 0)
(-5.16399e-06 1.31096e-05 0)
(-4.39266e-06 1.32221e-05 0)
(-3.55369e-06 1.42011e-05 0)
(-2.65343e-06 1.42499e-05 0)
(-1.10615e-06 1.5583e-05 0)
(3.14319e-07 1.40936e-05 0)
(1.59855e-06 1.45838e-05 0)
(2.19657e-06 1.18622e-05 0)
(2.05321e-06 1.22087e-05 0)
(2.34764e-06 1.10037e-05 0)
(1.00901e-06 9.67588e-06 0)
(2.51454e-06 1.39513e-05 0)
(3.99451e-06 8.32974e-06 0)
(3.12158e-07 6.57134e-06 0)
(4.58419e-07 1.29697e-05 0)
(4.45278e-06 1.07933e-05 0)
(2.15991e-06 3.14899e-06 0)
(-7.06363e-06 3.31925e-06 0)
(-6.86394e-06 1.25527e-05 0)
(-7.14989e-07 1.36751e-06 0)
(-2.32127e-07 6.17155e-07 0)
(-1.58505e-07 5.10311e-07 0)
(-1.21646e-07 4.42916e-07 0)
(-9.47145e-08 3.88913e-07 0)
(-7.38817e-08 3.31365e-07 0)
(-6.50916e-08 3.00815e-07 0)
(-4.97781e-08 2.72597e-07 0)
(-1.84491e-08 2.59946e-07 0)
(1.84491e-08 2.59946e-07 0)
(4.97781e-08 2.72597e-07 0)
(6.50916e-08 3.00815e-07 0)
(7.38817e-08 3.31365e-07 0)
(9.47145e-08 3.88913e-07 0)
(1.21646e-07 4.42916e-07 0)
(1.58505e-07 5.10311e-07 0)
(2.32127e-07 6.17155e-07 0)
(7.14989e-07 1.36751e-06 0)
(6.86394e-06 1.25527e-05 0)
(7.06363e-06 3.31925e-06 0)
(-2.15991e-06 3.14899e-06 0)
(-4.45278e-06 1.07933e-05 0)
(-4.58419e-07 1.29697e-05 0)
(-3.12158e-07 6.57134e-06 0)
(-3.99451e-06 8.32974e-06 0)
(-2.51454e-06 1.39513e-05 0)
(-1.00901e-06 9.67588e-06 0)
(-2.34764e-06 1.10037e-05 0)
(-2.05321e-06 1.22087e-05 0)
(-2.19657e-06 1.18622e-05 0)
(-1.59855e-06 1.45838e-05 0)
(-3.14319e-07 1.40936e-05 0)
(1.10615e-06 1.5583e-05 0)
(2.65343e-06 1.42499e-05 0)
(3.55369e-06 1.42011e-05 0)
(4.39266e-06 1.32221e-05 0)
(5.16399e-06 1.31096e-05 0)
(6.54258e-06 1.25723e-05 0)
(7.65223e-06 1.07239e-05 0)
(7.93934e-06 8.82266e-06 0)
(7.60767e-06 7.00254e-06 0)
(6.82742e-06 5.57401e-06 0)
(5.85763e-06 4.55574e-06 0)
(4.85604e-06 3.85206e-06 0)
(3.88616e-06 3.36901e-06 0)
(2.96354e-06 3.03983e-06 0)
(2.08421e-06 2.82167e-06 0)
(1.23737e-06 2.68837e-06 0)
(4.10264e-07 2.62508e-06 0)
(-3.94019e-07 3.01849e-06 0)
(-1.187e-06 3.08738e-06 0)
(-1.99446e-06 3.23171e-06 0)
(-2.8246e-06 3.46563e-06 0)
(-3.68192e-06 3.81319e-06 0)
(-4.5619e-06 4.31154e-06 0)
(-5.43973e-06 5.01363e-06 0)
(-6.25011e-06 5.98408e-06 0)
(-6.86368e-06 7.27111e-06 0)
(-7.0991e-06 8.82957e-06 0)
(-6.82836e-06 1.04442e-05 0)
(-5.98929e-06 1.19039e-05 0)
(-4.93549e-06 1.25944e-05 0)
(-4.13319e-06 1.29662e-05 0)
(-3.3091e-06 1.36432e-05 0)
(-2.38912e-06 1.39162e-05 0)
(-1.12991e-06 1.45491e-05 0)
(8.52884e-08 1.38417e-05 0)
(1.13075e-06 1.37004e-05 0)
(1.69992e-06 1.21747e-05 0)
(1.79301e-06 1.19155e-05 0)
(1.91429e-06 1.10973e-05 0)
(1.40544e-06 1.0468e-05 0)
(2.18792e-06 1.20553e-05 0)
(2.77805e-06 9.23232e-06 0)
(1.01034e-06 8.2938e-06 0)
(1.05205e-06 1.11576e-05 0)
(2.76742e-06 9.8615e-06 0)
(1.12384e-06 5.99341e-06 0)
(-3.54626e-06 7.17916e-06 0)
(2.1535e-06 2.0394e-05 0)
(6.48103e-06 4.35963e-06 0)
(6.97407e-07 3.13433e-06 0)
(-3.70431e-06 3.59789e-06 0)
(-8.46998e-06 5.54564e-06 0)
(-6.10931e-06 4.76054e-06 0)
(-9.70562e-07 9.22949e-07 0)
(-3.47141e-07 4.93045e-07 0)
(-1.62232e-07 3.32591e-07 0)
(-5.03045e-08 2.91478e-07 0)
(5.03045e-08 2.91478e-07 0)
(1.62232e-07 3.32591e-07 0)
(3.47141e-07 4.93045e-07 0)
(9.70562e-07 9.22949e-07 0)
(6.10931e-06 4.76054e-06 0)
(8.46998e-06 5.54564e-06 0)
(3.70431e-06 3.59789e-06 0)
(-6.97407e-07 3.13433e-06 0)
(-6.48103e-06 4.35963e-06 0)
(-2.1535e-06 2.0394e-05 0)
(3.54626e-06 7.17916e-06 0)
(-1.12384e-06 5.99341e-06 0)
(-2.76742e-06 9.8615e-06 0)
(-1.05205e-06 1.11576e-05 0)
(-1.01034e-06 8.2938e-06 0)
(-2.77805e-06 9.23232e-06 0)
(-2.18792e-06 1.20553e-05 0)
(-1.40544e-06 1.0468e-05 0)
(-1.91429e-06 1.10973e-05 0)
(-1.79301e-06 1.19155e-05 0)
(-1.69992e-06 1.21747e-05 0)
(-1.13075e-06 1.37004e-05 0)
(-8.52884e-08 1.38417e-05 0)
(1.12991e-06 1.45491e-05 0)
(2.38912e-06 1.39162e-05 0)
(3.3091e-06 1.36432e-05 0)
(4.13319e-06 1.29662e-05 0)
(4.93549e-06 1.25944e-05 0)
(5.98929e-06 1.19039e-05 0)
(6.82836e-06 1.04442e-05 0)
(7.0991e-06 8.82957e-06 0)
(6.86368e-06 7.27111e-06 0)
(6.25011e-06 5.98408e-06 0)
(5.43973e-06 5.01363e-06 0)
(4.5619e-06 4.31154e-06 0)
(3.68192e-06 3.81319e-06 0)
(2.8246e-06 3.46563e-06 0)
(1.99446e-06 3.23171e-06 0)
(1.187e-06 3.08738e-06 0)
(3.94019e-07 3.01849e-06 0)
(-3.74842e-07 3.4309e-06 0)
(-1.12776e-06 3.50413e-06 0)
(-1.88978e-06 3.65665e-06 0)
(-2.66474e-06 3.90125e-06 0)
(-3.45168e-06 4.25879e-06 0)
(-4.23988e-06 4.75947e-06 0)
(-4.99993e-06 5.44232e-06 0)
(-5.67104e-06 6.3475e-06 0)
(-6.15167e-06 7.49197e-06 0)
(-6.31673e-06 8.82202e-06 0)
(-6.08105e-06 1.01807e-05 0)
(-5.44149e-06 1.13784e-05 0)
(-4.61569e-06 1.21162e-05 0)
(-3.85459e-06 1.26058e-05 0)
(-3.06719e-06 1.31391e-05 0)
(-2.19254e-06 1.34577e-05 0)
(-1.14387e-06 1.37735e-05 0)
(-1.1923e-07 1.34192e-05 0)
(7.48661e-07 1.30999e-05 0)
(1.28613e-06 1.21818e-05 0)
(1.49986e-06 1.17406e-05 0)
(1.6123e-06 1.11469e-05 0)
(1.48507e-06 1.07505e-05 0)
(1.8826e-06 1.11487e-05 0)
(2.09233e-06 9.71889e-06 0)
(1.27843e-06 9.16992e-06 0)
(1.2428e-06 1.02801e-05 0)
(1.84278e-06 9.52327e-06 0)
(8.19857e-07 7.74817e-06 0)
(-1.10584e-06 8.8983e-06 0)
(1.58517e-06 1.42436e-05 0)
(3.46297e-06 7.23848e-06 0)
(1.00457e-06 6.42985e-06 0)
(-4.21044e-07 7.17723e-06 0)
(-2.90996e-07 9.60762e-06 0)
(6.07376e-07 8.75316e-06 0)
(-1.64955e-06 4.57851e-06 0)
(-2.60995e-06 2.07612e-06 0)
(-7.13672e-07 5.9468e-07 0)
(-1.59368e-07 2.9501e-07 0)
(1.59368e-07 2.9501e-07 0)
(7.13672e-07 5.9468e-07 0)
(2.60995e-06 2.07612e-06 0)
(1.64955e-06 4.57851e-06 0)
(-6.07376e-07 8.75316e-06 0)
(2.90996e-07 9.60762e-06 0)
(4.21044e-07 7.17723e-06 0)
(-1.00457e-06 6.42985e-06 0)
(-3.46297e-06 7.23848e-06 0)
(-1.58517e-06 1.42436e-05 0)
(1.10584e-06 8.8983e-06 0)
(-8.19857e-07 7.74817e-06 0)
(-1.84278e-06 9.52327e-06 0)
(-1.2428e-06 1.02801e-05 0)
(-1.27843e-06 9.16992e-06 0)
(-2.09233e-06 9.71889e-06 0)
(-1.8826e-06 1.11487e-05 0)
(-1.48507e-06 1.07505e-05 0)
(-1.6123e-06 1.11469e-05 0)
(-1.49986e-06 1.17406e-05 0)
(-1.28613e-06 1.21818e-05 0)
(-7.48661e-07 1.30999e-05 0)
(1.1923e-07 1.34192e-05 0)
(1.14387e-06 1.37735e-05 0)
(2.19254e-06 1.34577e-05 0)
(3.06719e-06 1.31391e-05 0)
(3.85459e-06 1.26058e-05 0)
(4.61569e-06 1.21162e-05 0)
(5.44149e-06 1.13784e-05 0)
(6.08105e-06 1.01807e-05 0)
(6.31673e-06 8.82202e-06 0)
(6.15167e-06 7.49197e-06 0)
(5.67104e-06 6.3475e-06 0)
(4.99993e-06 5.44232e-06 0)
(4.23988e-06 4.75947e-06 0)
(3.45168e-06 4.25879e-06 0)
(2.66474e-06 3.90125e-06 0)
(1.88978e-06 3.65665e-06 0)
(1.12776e-06 3.50413e-06 0)
(3.74842e-07 3.4309e-06 0)
(-3.52739e-07 3.85884e-06 0)
(-1.05976e-06 3.93484e-06 0)
(-1.77069e-06 4.09213e-06 0)
(-2.48543e-06 4.34157e-06 0)
(-3.19873e-06 4.70011e-06 0)
(-3.89598e-06 5.19061e-06 0)
(-4.54697e-06 5.83932e-06 0)
(-5.09894e-06 6.66765e-06 0)
(-5.47513e-06 7.67365e-06 0)
(-5.59121e-06 8.80461e-06 0)
(-5.39502e-06 9.94479e-06 0)
(-4.90228e-06 1.09514e-05 0)
(-4.24352e-06 1.16734e-05 0)
(-3.55771e-06 1.21984e-05 0)
(-2.83074e-06 1.26561e-05 0)
(-2.03449e-06 1.29586e-05 0)
(-1.15124e-06 1.31392e-05 0)
(-2.91681e-07 1.29482e-05 0)
(4.3891e-07 1.26331e-05 0)
(9.39408e-07 1.20382e-05 0)
(1.21186e-06 1.15962e-05 0)
(1.36037e-06 1.11366e-05 0)
(1.39878e-06 1.08086e-05 0)
(1.60985e-06 1.07372e-05 0)
(1.67895e-06 9.96997e-06 0)
(1.31494e-06 9.60039e-06 0)
(1.2417e-06 9.91479e-06 0)
(1.36564e-06 9.47515e-06 0)
(7.85169e-07 8.72865e-06 0)
(4.32198e-08 9.45686e-06 0)
(1.23089e-06 1.14414e-05 0)
(1.98781e-06 8.51933e-06 0)
(9.98652e-07 8.0269e-06 0)
(3.81609e-07 8.23773e-06 0)
(1.0971e-07 8.75971e-06 0)
(-5.20558e-08 8.68976e-06 0)
(-6.67442e-07 8.36968e-06 0)
(-9.89432e-07 3.29492e-06 0)
(-6.1085e-07 7.0793e-07 0)
(-1.92331e-07 2.43617e-07 0)
(1.92331e-07 2.43617e-07 0)
(6.1085e-07 7.0793e-07 0)
(9.89432e-07 3.29492e-06 0)
(6.67442e-07 8.36968e-06 0)
(5.20558e-08 8.68976e-06 0)
(-1.0971e-07 8.75971e-06 0)
(-3.81609e-07 8.23773e-06 0)
(-9.98652e-07 8.0269e-06 0)
(-1.98781e-06 8.51933e-06 0)
(-1.23089e-06 1.14414e-05 0)
(-4.32198e-08 9.45686e-06 0)
(-7.85169e-07 8.72865e-06 0)
(-1.36564e-06 9.47515e-06 0)
(-1.2417e-06 9.91479e-06 0)
(-1.31494e-06 9.60039e-06 0)
(-1.67895e-06 9.96997e-06 0)
(-1.60985e-06 1.07372e-05 0)
(-1.39878e-06 1.08086e-05 0)
(-1.36037e-06 1.11366e-05 0)
(-1.21186e-06 1.15962e-05 0)
(-9.39408e-07 1.20382e-05 0)
(-4.3891e-07 1.26331e-05 0)
(2.91681e-07 1.29482e-05 0)
(1.15124e-06 1.31392e-05 0)
(2.03449e-06 1.29586e-05 0)
(2.83074e-06 1.26561e-05 0)
(3.55771e-06 1.21984e-05 0)
(4.24352e-06 1.16734e-05 0)
(4.90228e-06 1.09514e-05 0)
(5.39502e-06 9.94479e-06 0)
(5.59121e-06 8.80461e-06 0)
(5.47513e-06 7.67365e-06 0)
(5.09894e-06 6.66765e-06 0)
(4.54697e-06 5.83932e-06 0)
(3.89598e-06 5.19061e-06 0)
(3.19873e-06 4.70011e-06 0)
(2.48543e-06 4.34157e-06 0)