/*--------------------------------*- C++ -*----------------------------------*\
  =========                 |
  \\      /  F ield         | OpenFOAM: The Open Source CFD Toolbox
   \\    /   O peration     | Website:  https://openfoam.org
    \\  /    A nd           | Version:  10
     \\/     M anipulation  |
\*---------------------------------------------------------------------------*/
FoamFile
{
    format      ascii;
    class       volVectorField;
    location    "17200";
    object      Ub;
}
// * * * * * * * * * * * * * * * * * * * * * * * * * * * * * * * * * * * * * //

dimensions      [0 1 -1 0 0 0 0];

internalField   nonuniform List<vector> 
6400
(
(-8.22876e-21 -9.87899e-16 0)
(-2.49203e-20 -9.87899e-16 0)
(-4.23484e-20 -9.87899e-16 0)
(-6.11328e-20 -9.87899e-16 0)
(-8.21431e-20 -9.87899e-16 0)
(-1.06766e-19 -9.87898e-16 0)
(-1.37534e-19 -9.87897e-16 0)
(-1.79628e-19 -9.87896e-16 0)
(-1.55366e-11 -9.87908e-16 0)
(-3.69047e-05 -3.97393e-08 0)
(-8.40383e-05 -3.56348e-06 0)
(-0.000115132 3.77535e-06 0)
(-0.000135225 -3.42216e-07 0)
(-0.000128282 -1.36407e-06 0)
(-0.000123056 1.16307e-07 0)
(-0.000123616 -1.35938e-07 0)
(-0.000125486 4.13047e-07 0)
(-0.000127463 -9.49195e-08 0)
(-0.000126609 -1.48998e-07 0)
(-0.000124889 -2.60992e-07 0)
(-0.00012279 -2.1866e-07 0)
(-0.000120246 -3.45775e-07 0)
(-0.000117643 -2.26101e-07 0)
(-0.00011587 -1.73272e-07 0)
(-0.000114043 -2.34059e-07 0)
(-0.000112167 -1.80766e-07 0)
(-0.00011064 -1.60824e-07 0)
(-0.000108988 -2.04425e-07 0)
(-0.000107214 -1.84122e-07 0)
(-0.000105506 -1.89547e-07 0)
(-0.000103206 -3.03378e-07 0)
(-9.88065e-05 -6.15234e-07 0)
(-9.35334e-05 -1.0658e-06 0)
(-8.81141e-05 -1.43569e-06 0)
(-8.08567e-05 -1.90618e-06 0)
(-7.13524e-05 -2.46305e-06 0)
(-5.93188e-05 -3.06278e-06 0)
(-4.47229e-05 -3.63474e-06 0)
(-2.78786e-05 -4.09099e-06 0)
(-9.47878e-06 -4.34605e-06 0)
(9.47878e-06 -4.34605e-06 0)
(2.78786e-05 -4.09099e-06 0)
(4.47229e-05 -3.63474e-06 0)
(5.93188e-05 -3.06278e-06 0)
(7.13524e-05 -2.46305e-06 0)
(8.08567e-05 -1.90618e-06 0)
(8.81141e-05 -1.43569e-06 0)
(9.35334e-05 -1.0658e-06 0)
(9.88065e-05 -6.15234e-07 0)
(0.000103206 -3.03378e-07 0)
(0.000105506 -1.89547e-07 0)
(0.000107214 -1.84122e-07 0)
(0.000108988 -2.04425e-07 0)
(0.00011064 -1.60824e-07 0)
(0.000112167 -1.80766e-07 0)
(0.000114043 -2.34059e-07 0)
(0.00011587 -1.73272e-07 0)
(0.000117643 -2.26101e-07 0)
(0.000120246 -3.45775e-07 0)
(0.00012279 -2.1866e-07 0)
(0.000124889 -2.60992e-07 0)
(0.000126609 -1.48998e-07 0)
(0.000127463 -9.49195e-08 0)
(0.000125486 4.13047e-07 0)
(0.000123616 -1.35938e-07 0)
(0.000123056 1.16307e-07 0)
(0.000128282 -1.36407e-06 0)
(0.000135225 -3.42216e-07 0)
(0.000115132 3.77535e-06 0)
(8.40383e-05 -3.56348e-06 0)
(3.69047e-05 -3.97393e-08 0)
(1.55366e-11 -9.87908e-16 0)
(1.79628e-19 -9.87896e-16 0)
(1.37534e-19 -9.87897e-16 0)
(1.06766e-19 -9.87898e-16 0)
(8.21431e-20 -9.87899e-16 0)
(6.11328e-20 -9.87899e-16 0)
(4.23484e-20 -9.87899e-16 0)
(2.49203e-20 -9.87899e-16 0)
(8.22876e-21 -9.87899e-16 0)
(-8.21858e-21 -9.87893e-16 0)
(-2.48883e-20 -9.87893e-16 0)
(-4.22894e-20 -9.87893e-16 0)
(-6.1036e-20 -9.87892e-16 0)
(-8.19863e-20 -9.87891e-16 0)
(-1.06499e-19 -9.8789e-16 0)
(-1.37043e-19 -9.87888e-16 0)
(-1.79166e-19 -9.87883e-16 0)
(-2.61992e-19 -9.87874e-16 0)
(-6.1328e-18 -9.87643e-16 0)
(-2.98809e-06 -1.44208e-14 0)
(-6.4918e-05 4.0057e-06 0)
(-0.000125771 -4.81191e-07 0)
(-0.000122082 -3.99758e-06 0)
(-0.000118122 6.05013e-07 0)
(-0.000119431 -3.35096e-07 0)
(-0.000121648 1.40528e-06 0)
(-0.000123933 -2.38621e-07 0)
(-0.000123202 -3.9315e-07 0)
(-0.000121647 -7.56064e-07 0)
(-0.000119717 -6.17766e-07 0)
(-0.00011731 -1.03332e-06 0)
(-0.000114807 -6.55413e-07 0)
(-0.000113177 -4.94497e-07 0)
(-0.000111445 -6.94951e-07 0)
(-0.00010964 -5.26658e-07 0)
(-0.000108207 -4.65991e-07 0)
(-0.000106626 -6.07791e-07 0)
(-0.000104911 -5.42621e-07 0)
(-0.000103295 -5.56686e-07 0)
(-0.00010113 -9.03602e-07 0)
(-9.69485e-05 -1.85814e-06 0)
(-9.19053e-05 -3.2369e-06 0)
(-8.66944e-05 -4.37274e-06 0)
(-7.96787e-05 -5.82315e-06 0)
(-7.04332e-05 -7.54604e-06 0)
(-5.8655e-05 -9.40699e-06 0)
(-4.42912e-05 -1.11865e-05 0)
(-2.76429e-05 -1.26096e-05 0)
(-9.40489e-06 -1.34065e-05 0)
(9.40489e-06 -1.34065e-05 0)
(2.76429e-05 -1.26096e-05 0)
(4.42912e-05 -1.11865e-05 0)
(5.8655e-05 -9.40699e-06 0)
(7.04332e-05 -7.54604e-06 0)
(7.96787e-05 -5.82315e-06 0)
(8.66944e-05 -4.37274e-06 0)
(9.19053e-05 -3.2369e-06 0)
(9.69485e-05 -1.85814e-06 0)
(0.00010113 -9.03602e-07 0)
(0.000103295 -5.56686e-07 0)
(0.000104911 -5.42621e-07 0)
(0.000106626 -6.07791e-07 0)
(0.000108207 -4.65991e-07 0)
(0.00010964 -5.26658e-07 0)
(0.000111445 -6.94951e-07 0)
(0.000113177 -4.94497e-07 0)
(0.000114807 -6.55413e-07 0)
(0.00011731 -1.03332e-06 0)
(0.000119717 -6.17766e-07 0)
(0.000121647 -7.56064e-07 0)
(0.000123202 -3.9315e-07 0)
(0.000123933 -2.38621e-07 0)
(0.000121648 1.40528e-06 0)
(0.000119431 -3.35096e-07 0)
(0.000118122 6.05013e-07 0)
(0.000122082 -3.99758e-06 0)
(0.000125771 -4.81191e-07 0)
(6.4918e-05 4.0057e-06 0)
(2.98809e-06 -1.44208e-14 0)
(6.1328e-18 -9.87643e-16 0)
(2.61992e-19 -9.87874e-16 0)
(1.79166e-19 -9.87883e-16 0)
(1.37043e-19 -9.87888e-16 0)
(1.06499e-19 -9.8789e-16 0)
(8.19863e-20 -9.87891e-16 0)
(6.1036e-20 -9.87892e-16 0)
(4.22894e-20 -9.87893e-16 0)
(2.48883e-20 -9.87893e-16 0)
(8.21858e-21 -9.87893e-16 0)
(-8.19535e-21 -9.87889e-16 0)
(-2.48151e-20 -9.87889e-16 0)
(-4.21549e-20 -9.87889e-16 0)
(-6.08154e-20 -9.87888e-16 0)
(-8.1629e-20 -9.87886e-16 0)
(-1.05893e-19 -9.87884e-16 0)
(-1.35902e-19 -9.8788e-16 0)
(-1.76541e-19 -9.87872e-16 0)
(-2.42506e-19 -9.87851e-16 0)
(-2.48758e-19 -9.87719e-16 0)
(-3.25673e-19 -9.87786e-16 0)
(-1.861e-10 -9.40612e-16 0)
(-3.86584e-05 -2.31053e-07 0)
(-9.23151e-05 -2.68806e-06 0)
(-0.000111423 1.64588e-06 0)
(-0.000115295 -6.10565e-07 0)
(-0.000118321 2.67877e-06 0)
(-0.000121236 -4.51842e-07 0)
(-0.000120563 -6.32573e-07 0)
(-0.00011916 -1.30841e-06 0)
(-0.000117398 -1.01352e-06 0)
(-0.000115091 -1.81436e-06 0)
(-0.000112613 -1.10622e-06 0)
(-0.000111163 -8.2276e-07 0)
(-0.000109506 -1.21386e-06 0)
(-0.000107728 -8.96761e-07 0)
(-0.000106403 -7.87729e-07 0)
(-0.000104874 -1.05788e-06 0)
(-0.00010319 -9.29312e-07 0)
(-0.000101685 -9.39365e-07 0)
(-9.97192e-05 -1.523e-06 0)
(-9.58613e-05 -3.15179e-06 0)
(-9.1156e-05 -5.50386e-06 0)
(-8.62434e-05 -7.45795e-06 0)
(-7.95482e-05 -9.9759e-06 0)
(-7.0595e-05 -1.29918e-05 0)
(-5.90228e-05 -1.6271e-05 0)
(-4.47304e-05 -1.94257e-05 0)
(-2.79957e-05 -2.19633e-05 0)
(-9.53976e-06 -2.33902e-05 0)
(9.53976e-06 -2.33902e-05 0)
(2.79957e-05 -2.19633e-05 0)
(4.47304e-05 -1.94257e-05 0)
(5.90228e-05 -1.6271e-05 0)
(7.0595e-05 -1.29918e-05 0)
(7.95482e-05 -9.9759e-06 0)
(8.62434e-05 -7.45795e-06 0)
(9.1156e-05 -5.50386e-06 0)
(9.58613e-05 -3.15179e-06 0)
(9.97192e-05 -1.523e-06 0)
(0.000101685 -9.39365e-07 0)
(0.00010319 -9.29312e-07 0)
(0.000104874 -1.05788e-06 0)
(0.000106403 -7.87729e-07 0)
(0.000107728 -8.96761e-07 0)
(0.000109506 -1.21386e-06 0)
(0.000111163 -8.2276e-07 0)
(0.000112613 -1.10622e-06 0)
(0.000115091 -1.81436e-06 0)
(0.000117398 -1.01352e-06 0)
(0.00011916 -1.30841e-06 0)
(0.000120563 -6.32573e-07 0)
(0.000121236 -4.51842e-07 0)
(0.000118321 2.67877e-06 0)
(0.000115295 -6.10565e-07 0)
(0.000111423 1.64588e-06 0)
(9.23151e-05 -2.68806e-06 0)
(3.86584e-05 -2.31053e-07 0)
(1.861e-10 -9.40612e-16 0)
(3.25673e-19 -9.87786e-16 0)
(2.48758e-19 -9.87719e-16 0)
(2.42506e-19 -9.87851e-16 0)
(1.76541e-19 -9.87872e-16 0)
(1.35902e-19 -9.8788e-16 0)
(1.05893e-19 -9.87884e-16 0)
(8.1629e-20 -9.87886e-16 0)
(6.08154e-20 -9.87888e-16 0)
(4.21549e-20 -9.87889e-16 0)
(2.48151e-20 -9.87889e-16 0)
(8.19535e-21 -9.87889e-16 0)
(-8.1555e-21 -9.87885e-16 0)
(-2.46898e-20 -9.87885e-16 0)
(-4.19245e-20 -9.87884e-16 0)
(-6.04385e-20 -9.87883e-16 0)
(-8.10208e-20 -9.87881e-16 0)
(-1.04867e-19 -9.87877e-16 0)
(-1.33984e-19 -9.87871e-16 0)
(-1.72074e-19 -9.8786e-16 0)
(-2.24877e-19 -9.87832e-16 0)
(-2.3828e-19 -9.87733e-16 0)
(-2.83975e-19 -9.87742e-16 0)
(-1.94255e-19 -9.87445e-16 0)
(7.43305e-21 -9.87285e-16 0)
(-2.8054e-08 -7.90616e-16 0)
(-4.99798e-05 1.19502e-06 0)
(-0.000103743 -3.82801e-07 0)
(-0.000113088 4.6733e-06 0)
(-0.000118261 -7.57065e-07 0)
(-0.000117929 -7.98942e-07 0)
(-0.00011684 -1.92997e-06 0)
(-0.000115343 -1.34525e-06 0)
(-0.000113145 -2.73747e-06 0)
(-0.000110623 -1.55298e-06 0)
(-0.000109445 -1.12469e-06 0)
(-0.000107858 -1.81314e-06 0)
(-0.000106066 -1.27775e-06 0)
(-0.000104888 -1.10683e-06 0)
(-0.000103404 -1.56693e-06 0)
(-0.000101722 -1.33606e-06 0)
(-0.000100367 -1.31466e-06 0)
(-9.86949e-05 -2.12488e-06 0)
(-9.53138e-05 -4.44625e-06 0)
(-9.11081e-05 -7.79102e-06 0)
(-8.66432e-05 -1.06117e-05 0)
(-8.04182e-05 -1.43056e-05 0)
(-7.18604e-05 -1.87955e-05 0)
(-6.0499e-05 -2.37333e-05 0)
(-4.61425e-05 -2.85334e-05 0)
(-2.90247e-05 -3.24357e-05 0)
(-9.91774e-06 -3.46453e-05 0)
(9.91774e-06 -3.46453e-05 0)
(2.90247e-05 -3.24357e-05 0)
(4.61425e-05 -2.85334e-05 0)
(6.0499e-05 -2.37333e-05 0)
(7.18604e-05 -1.87955e-05 0)
(8.04182e-05 -1.43056e-05 0)
(8.66432e-05 -1.06117e-05 0)
(9.11081e-05 -7.79102e-06 0)
(9.53138e-05 -4.44625e-06 0)
(9.86949e-05 -2.12488e-06 0)
(0.000100367 -1.31466e-06 0)
(0.000101722 -1.33606e-06 0)
(0.000103404 -1.56693e-06 0)
(0.000104888 -1.10683e-06 0)
(0.000106066 -1.27775e-06 0)
(0.000107858 -1.81314e-06 0)
(0.000109445 -1.12469e-06 0)
(0.000110623 -1.55298e-06 0)
(0.000113145 -2.73747e-06 0)
(0.000115343 -1.34525e-06 0)
(0.00011684 -1.92997e-06 0)
(0.000117929 -7.98942e-07 0)
(0.000118261 -7.57065e-07 0)
(0.000113088 4.6733e-06 0)
(0.000103743 -3.82801e-07 0)
(4.99798e-05 1.19502e-06 0)
(2.8054e-08 -7.90616e-16 0)
(-7.43305e-21 -9.87285e-16 0)
(1.94255e-19 -9.87445e-16 0)
(2.83975e-19 -9.87742e-16 0)
(2.3828e-19 -9.87733e-16 0)
(2.24877e-19 -9.87832e-16 0)
(1.72074e-19 -9.8786e-16 0)
(1.33984e-19 -9.87871e-16 0)
(1.04867e-19 -9.87877e-16 0)
(8.10208e-20 -9.87881e-16 0)
(6.04385e-20 -9.87883e-16 0)
(4.19245e-20 -9.87884e-16 0)
(2.46898e-20 -9.87885e-16 0)
(8.1555e-21 -9.87885e-16 0)
(-8.09496e-21 -9.87881e-16 0)
(-2.44995e-20 -9.8788e-16 0)
(-4.15753e-20 -9.87879e-16 0)
(-5.98691e-20 -9.87877e-16 0)
(-8.01076e-20 -9.87875e-16 0)
(-1.03345e-19 -9.8787e-16 0)
(-1.31203e-19 -9.87862e-16 0)
(-1.66066e-19 -9.87848e-16 0)
(-2.08513e-19 -9.87817e-16 0)
(-2.24353e-19 -9.8774e-16 0)
(-2.4856e-19 -9.87716e-16 0)
(-1.75233e-19 -9.87516e-16 0)
(-3.6914e-20 -9.876e-16 0)
(-1.19262e-19 -9.87767e-16 0)
(-6.41122e-20 -9.85286e-16 0)
(-1.20203e-07 -8.50704e-16 0)
(-5.16241e-05 2.96394e-06 0)
(-0.000106887 -4.6785e-07 0)
(-0.000112628 -5.56264e-07 0)
(-0.000113663 -2.59955e-06 0)
(-0.000113039 -1.4835e-06 0)
(-0.000111155 -3.89679e-06 0)
(-0.000108562 -1.95368e-06 0)
(-0.000107857 -1.3497e-06 0)
(-0.000106353 -2.54592e-06 0)
(-0.000104491 -1.65413e-06 0)
(-0.000103546 -1.39797e-06 0)
(-0.0001021 -2.16775e-06 0)
(-0.000100377 -1.75758e-06 0)
(-9.92279e-05 -1.65546e-06 0)
(-9.79717e-05 -2.66011e-06 0)
(-9.52581e-05 -5.67168e-06 0)
(-9.17632e-05 -9.97276e-06 0)
(-8.79674e-05 -1.36894e-05 0)
(-8.24528e-05 -1.86866e-05 0)
(-7.44796e-05 -2.4908e-05 0)
(-6.33903e-05 -3.18687e-05 0)
(-4.88391e-05 -3.87448e-05 0)
(-3.09691e-05 -4.44345e-05 0)
(-1.06293e-05 -4.76919e-05 0)
(1.06293e-05 -4.76919e-05 0)
(3.09691e-05 -4.44345e-05 0)
(4.88391e-05 -3.87448e-05 0)
(6.33903e-05 -3.18687e-05 0)
(7.44796e-05 -2.4908e-05 0)
(8.24528e-05 -1.86866e-05 0)
(8.79674e-05 -1.36894e-05 0)
(9.17632e-05 -9.97276e-06 0)
(9.52581e-05 -5.67168e-06 0)
(9.79717e-05 -2.66011e-06 0)
(9.92279e-05 -1.65546e-06 0)
(0.000100377 -1.75758e-06 0)
(0.0001021 -2.16775e-06 0)
(0.000103546 -1.39797e-06 0)
(0.000104491 -1.65413e-06 0)
(0.000106353 -2.54592e-06 0)
(0.000107857 -1.3497e-06 0)
(0.000108562 -1.95368e-06 0)
(0.000111155 -3.89679e-06 0)
(0.000113039 -1.4835e-06 0)
(0.000113663 -2.59955e-06 0)
(0.000112628 -5.56264e-07 0)
(0.000106887 -4.6785e-07 0)
(5.16241e-05 2.96394e-06 0)
(1.20203e-07 -8.50704e-16 0)
(6.41122e-20 -9.85286e-16 0)
(1.19262e-19 -9.87767e-16 0)
(3.6914e-20 -9.876e-16 0)
(1.75233e-19 -9.87516e-16 0)
(2.4856e-19 -9.87716e-16 0)
(2.24353e-19 -9.8774e-16 0)
(2.08513e-19 -9.87817e-16 0)
(1.66066e-19 -9.87848e-16 0)
(1.31203e-19 -9.87862e-16 0)
(1.03345e-19 -9.8787e-16 0)
(8.01076e-20 -9.87875e-16 0)
(5.98691e-20 -9.87877e-16 0)
(4.15753e-20 -9.87879e-16 0)
(2.44995e-20 -9.8788e-16 0)
(8.09496e-21 -9.87881e-16 0)
(-8.00908e-21 -9.87876e-16 0)
(-2.42299e-20 -9.87875e-16 0)
(-4.10818e-20 -9.87874e-16 0)
(-5.9068e-20 -9.87872e-16 0)
(-7.88339e-20 -9.87868e-16 0)
(-1.01256e-19 -9.87862e-16 0)
(-1.27518e-19 -9.87853e-16 0)
(-1.58787e-19 -9.87837e-16 0)
(-1.92979e-19 -9.87805e-16 0)
(-2.08318e-19 -9.87742e-16 0)
(-2.18565e-19 -9.87703e-16 0)
(-1.60266e-19 -9.8757e-16 0)
(-6.55346e-20 -9.87617e-16 0)
(-1.03511e-19 -9.87713e-16 0)
(-7.1486e-20 -9.87538e-16 0)
(-1.0038e-19 -9.87741e-16 0)
(-4.79515e-21 -9.82325e-16 0)
(-3.06045e-09 -7.43104e-16 0)
(-4.34454e-05 -1.29618e-07 0)
(-9.49891e-05 -1.46887e-06 0)
(-0.000106436 -7.40502e-07 0)
(-0.000107691 -5.35284e-06 0)
(-0.000105703 -2.16918e-06 0)
(-0.000106113 -1.3784e-06 0)
(-0.000104813 -3.5072e-06 0)
(-0.000102833 -1.98575e-06 0)
(-0.000102306 -1.60754e-06 0)
(-0.000100898 -2.92232e-06 0)
(-9.90578e-05 -2.18146e-06 0)
(-9.81968e-05 -1.92033e-06 0)
(-9.75126e-05 -3.05472e-06 0)
(-9.5686e-05 -6.73078e-06 0)
(-9.31613e-05 -1.18401e-05 0)
(-9.03617e-05 -1.64294e-05 0)
(-8.59446e-05 -2.28653e-05 0)
(-7.88905e-05 -3.11896e-05 0)
(-6.8233e-05 -4.07259e-05 0)
(-5.33777e-05 -5.03655e-05 0)
(-3.42689e-05 -5.8577e-05 0)
(-1.18424e-05 -6.33562e-05 0)
(1.18424e-05 -6.33562e-05 0)
(3.42689e-05 -5.8577e-05 0)
(5.33777e-05 -5.03655e-05 0)
(6.8233e-05 -4.07259e-05 0)
(7.88905e-05 -3.11896e-05 0)
(8.59446e-05 -2.28653e-05 0)
(9.03617e-05 -1.64294e-05 0)
(9.31613e-05 -1.18401e-05 0)
(9.5686e-05 -6.73078e-06 0)
(9.75126e-05 -3.05472e-06 0)
(9.81968e-05 -1.92033e-06 0)
(9.90578e-05 -2.18146e-06 0)
(0.000100898 -2.92232e-06 0)
(0.000102306 -1.60754e-06 0)
(0.000102833 -1.98575e-06 0)
(0.000104813 -3.5072e-06 0)
(0.000106113 -1.3784e-06 0)
(0.000105703 -2.16918e-06 0)
(0.000107691 -5.35284e-06 0)
(0.000106436 -7.40502e-07 0)
(9.49891e-05 -1.46887e-06 0)
(4.34454e-05 -1.29618e-07 0)
(3.06045e-09 -7.43104e-16 0)
(4.79515e-21 -9.82325e-16 0)
(1.0038e-19 -9.87741e-16 0)
(7.1486e-20 -9.87538e-16 0)
(1.03511e-19 -9.87713e-16 0)
(6.55346e-20 -9.87617e-16 0)
(1.60266e-19 -9.8757e-16 0)
(2.18565e-19 -9.87703e-16 0)
(2.08318e-19 -9.87742e-16 0)
(1.92979e-19 -9.87805e-16 0)
(1.58787e-19 -9.87837e-16 0)
(1.27518e-19 -9.87853e-16 0)
(1.01256e-19 -9.87862e-16 0)
(7.88339e-20 -9.87868e-16 0)
(5.9068e-20 -9.87872e-16 0)
(4.10818e-20 -9.87874e-16 0)
(2.42299e-20 -9.87875e-16 0)
(8.00908e-21 -9.87876e-16 0)
(-7.89277e-21 -9.8787e-16 0)
(-2.38653e-20 -9.8787e-16 0)
(-4.04167e-20 -9.87868e-16 0)
(-5.79952e-20 -9.87865e-16 0)
(-7.71468e-20 -9.87861e-16 0)
(-9.85464e-20 -9.87855e-16 0)
(-1.22928e-19 -9.87844e-16 0)
(-1.50485e-19 -9.87826e-16 0)
(-1.77999e-19 -9.87795e-16 0)
(-1.91287e-19 -9.87743e-16 0)
(-1.93148e-19 -9.87698e-16 0)
(-1.47827e-19 -9.87609e-16 0)
(-8.24404e-20 -9.87632e-16 0)
(-9.38748e-20 -9.87682e-16 0)
(-7.29328e-20 -9.87586e-16 0)
(-7.84796e-20 -9.87681e-16 0)
(-1.28792e-20 -9.87482e-16 0)
(1.61916e-20 -9.87716e-16 0)
(6.56184e-20 -9.86727e-16 0)
(-9.47885e-14 -7.87336e-16 0)
(-1.88397e-05 -2.77054e-10 0)
(-6.35126e-05 -3.07787e-06 0)
(-9.41226e-05 -1.10173e-06 0)
(-0.000101436 -6.69268e-07 0)
(-0.000102175 -4.79535e-06 0)
(-0.000100511 -2.14059e-06 0)
(-0.000100971 -1.60632e-06 0)
(-9.96816e-05 -3.95021e-06 0)
(-9.76231e-05 -2.57516e-06 0)
(-9.71917e-05 -2.04673e-06 0)
(-9.7285e-05 -3.19908e-06 0)
(-9.65712e-05 -7.50681e-06 0)
(-9.53072e-05 -1.30563e-05 0)
(-9.39932e-05 -1.83654e-05 0)
(-9.13221e-05 -2.63358e-05 0)
(-8.57866e-05 -3.73208e-05 0)
(-7.5909e-05 -5.02701e-05 0)
(-6.07325e-05 -6.37644e-05 0)
(-3.97342e-05 -7.58458e-05 0)
(-1.3872e-05 -8.30373e-05 0)
(1.3872e-05 -8.30373e-05 0)
(3.97342e-05 -7.58458e-05 0)
(6.07325e-05 -6.37644e-05 0)
(7.5909e-05 -5.02701e-05 0)
(8.57866e-05 -3.73208e-05 0)
(9.13221e-05 -2.63358e-05 0)
(9.39932e-05 -1.83654e-05 0)
(9.53072e-05 -1.30563e-05 0)
(9.65712e-05 -7.50681e-06 0)
(9.7285e-05 -3.19908e-06 0)
(9.71917e-05 -2.04673e-06 0)
(9.76231e-05 -2.57516e-06 0)
(9.96816e-05 -3.95021e-06 0)
(0.000100971 -1.60632e-06 0)
(0.000100511 -2.14059e-06 0)
(0.000102175 -4.79535e-06 0)
(0.000101436 -6.69268e-07 0)
(9.41226e-05 -1.10173e-06 0)
(6.35126e-05 -3.07787e-06 0)
(1.88397e-05 -2.77054e-10 0)
(9.47885e-14 -7.87336e-16 0)
(-6.56184e-20 -9.86727e-16 0)
(-1.61916e-20 -9.87716e-16 0)
(1.28792e-20 -9.87482e-16 0)
(7.84796e-20 -9.87681e-16 0)
(7.29328e-20 -9.87586e-16 0)
(9.38748e-20 -9.87682e-16 0)
(8.24404e-20 -9.87632e-16 0)
(1.47827e-19 -9.87609e-16 0)
(1.93148e-19 -9.87698e-16 0)
(1.91287e-19 -9.87743e-16 0)
(1.77999e-19 -9.87795e-16 0)
(1.50485e-19 -9.87826e-16 0)
(1.22928e-19 -9.87844e-16 0)
(9.85464e-20 -9.87855e-16 0)
(7.71468e-20 -9.87861e-16 0)
(5.79952e-20 -9.87865e-16 0)
(4.04167e-20 -9.87868e-16 0)
(2.38653e-20 -9.8787e-16 0)
(7.89277e-21 -9.8787e-16 0)
(-7.74064e-21 -9.87865e-16 0)
(-2.33893e-20 -9.87864e-16 0)
(-3.95523e-20 -9.87862e-16 0)
(-5.66119e-20 -9.87859e-16 0)
(-7.50012e-20 -9.87854e-16 0)
(-9.51824e-20 -9.87846e-16 0)
(-1.17478e-19 -9.87835e-16 0)
(-1.41384e-19 -9.87816e-16 0)
(-1.63436e-19 -9.87787e-16 0)
(-1.74106e-19 -9.87742e-16 0)
(-1.71466e-19 -9.87699e-16 0)
(-1.36819e-19 -9.87638e-16 0)
(-9.08953e-20 -9.87644e-16 0)
(-8.75575e-20 -9.87667e-16 0)
(-7.10413e-20 -9.87615e-16 0)
(-6.38013e-20 -9.87653e-16 0)
(-1.69493e-20 -9.87551e-16 0)
(1.3655e-20 -9.87669e-16 0)
(5.08966e-20 -9.87568e-16 0)
(6.36384e-20 -9.87739e-16 0)
(3.69491e-20 -9.87627e-16 0)
(7.89401e-20 -8.77841e-16 0)
(-2.4737e-11 -7.06979e-16 0)
(-2.80433e-05 -8.0784e-09 0)
(-7.1043e-05 -2.76527e-06 0)
(-9.00597e-05 -1.07404e-06 0)
(-9.66661e-05 -7.65168e-07 0)
(-9.73212e-05 -5.38577e-06 0)
(-9.54478e-05 -2.80599e-06 0)
(-9.59299e-05 -1.92289e-06 0)
(-9.71743e-05 -2.91924e-06 0)
(-9.77798e-05 -7.90223e-06 0)
(-9.80381e-05 -1.30962e-05 0)
(-9.89477e-05 -1.86646e-05 0)
(-9.91737e-05 -2.80521e-05 0)
(-9.62629e-05 -4.264e-05 0)
(-8.78566e-05 -6.02442e-05 0)
(-7.26617e-05 -7.92332e-05 0)
(-4.89516e-05 -9.78941e-05 0)
(-1.73449e-05 -0.000109277 0)
(1.73449e-05 -0.000109277 0)
(4.89516e-05 -9.78941e-05 0)
(7.26617e-05 -7.92332e-05 0)
(8.78566e-05 -6.02442e-05 0)
(9.62629e-05 -4.264e-05 0)
(9.91737e-05 -2.80521e-05 0)
(9.89477e-05 -1.86646e-05 0)
(9.80381e-05 -1.30962e-05 0)
(9.77798e-05 -7.90223e-06 0)
(9.71743e-05 -2.91924e-06 0)
(9.59299e-05 -1.92289e-06 0)
(9.54478e-05 -2.80599e-06 0)
(9.73212e-05 -5.38577e-06 0)
(9.66661e-05 -7.65168e-07 0)
(9.00597e-05 -1.07404e-06 0)
(7.1043e-05 -2.76527e-06 0)
(2.80433e-05 -8.0784e-09 0)
(2.4737e-11 -7.06979e-16 0)
(-7.89401e-20 -8.77841e-16 0)
(-3.69491e-20 -9.87627e-16 0)
(-6.36384e-20 -9.87739e-16 0)
(-5.08966e-20 -9.87568e-16 0)
(-1.3655e-20 -9.87669e-16 0)
(1.69493e-20 -9.87551e-16 0)
(6.38013e-20 -9.87653e-16 0)
(7.10413e-20 -9.87615e-16 0)
(8.75575e-20 -9.87667e-16 0)
(9.08953e-20 -9.87644e-16 0)
(1.36819e-19 -9.87638e-16 0)
(1.71466e-19 -9.87699e-16 0)
(1.74106e-19 -9.87742e-16 0)
(1.63436e-19 -9.87787e-16 0)
(1.41384e-19 -9.87816e-16 0)
(1.17478e-19 -9.87835e-16 0)
(9.51824e-20 -9.87846e-16 0)
(7.50012e-20 -9.87854e-16 0)
(5.66119e-20 -9.87859e-16 0)
(3.95523e-20 -9.87862e-16 0)
(2.33893e-20 -9.87864e-16 0)
(7.74064e-21 -9.87865e-16 0)
(-7.54734e-21 -9.87858e-16 0)
(-2.2786e-20 -9.87857e-16 0)
(-3.84626e-20 -9.87855e-16 0)
(-5.48846e-20 -9.87852e-16 0)
(-7.23648e-20 -9.87846e-16 0)
(-9.11587e-20 -9.87838e-16 0)
(-1.11246e-19 -9.87826e-16 0)
(-1.31695e-19 -9.87807e-16 0)
(-1.49262e-19 -9.8778e-16 0)
(-1.57365e-19 -9.87742e-16 0)
(-1.52742e-19 -9.87703e-16 0)
(-1.26526e-19 -9.87659e-16 0)
(-9.34411e-20 -9.87655e-16 0)
(-8.27106e-20 -9.87662e-16 0)
(-6.75011e-20 -9.87633e-16 0)
(-5.39597e-20 -9.87644e-16 0)
(-1.88467e-20 -9.87594e-16 0)
(9.82426e-21 -9.8765e-16 0)
(3.86199e-20 -9.87613e-16 0)
(4.99457e-20 -9.87703e-16 0)
(3.91734e-20 -9.87671e-16 0)
(5.49195e-20 -9.87704e-16 0)
(9.74249e-22 -9.87759e-16 0)
(5.01902e-20 -9.87466e-16 0)
(1.10078e-19 -8.59787e-16 0)
(-2.30625e-13 -7.11402e-16 0)
(-1.63254e-05 -2.41604e-10 0)
(-5.52721e-05 -3.1097e-06 0)
(-8.26654e-05 -1.42674e-06 0)
(-9.01084e-05 -8.89933e-07 0)
(-9.53568e-05 -1.68687e-06 0)
(-9.83158e-05 -7.89858e-06 0)
(-0.000100423 -1.11326e-05 0)
(-0.000104741 -1.58241e-05 0)
(-0.000110172 -2.56065e-05 0)
(-0.000112052 -4.59345e-05 0)
(-0.000106302 -6.99039e-05 0)
(-9.24761e-05 -9.61944e-05 0)
(-6.53211e-05 -0.000127761 0)
(-2.36013e-05 -0.000147089 0)
(2.36013e-05 -0.000147089 0)
(6.53211e-05 -0.000127761 0)
(9.24761e-05 -9.61944e-05 0)
(0.000106302 -6.99039e-05 0)
(0.000112052 -4.59345e-05 0)
(0.000110172 -2.56065e-05 0)
(0.000104741 -1.58241e-05 0)
(0.000100423 -1.11326e-05 0)
(9.83158e-05 -7.89858e-06 0)
(9.53568e-05 -1.68687e-06 0)
(9.01084e-05 -8.89933e-07 0)
(8.26654e-05 -1.42674e-06 0)
(5.52721e-05 -3.1097e-06 0)
(1.63254e-05 -2.41604e-10 0)
(2.30625e-13 -7.11402e-16 0)
(-1.10078e-19 -8.59787e-16 0)
(-5.01902e-20 -9.87466e-16 0)
(-9.74249e-22 -9.87759e-16 0)
(-5.49195e-20 -9.87704e-16 0)
(-3.91734e-20 -9.87671e-16 0)
(-4.99457e-20 -9.87703e-16 0)
(-3.86199e-20 -9.87613e-16 0)
(-9.82426e-21 -9.8765e-16 0)
(1.88467e-20 -9.87594e-16 0)
(5.39597e-20 -9.87644e-16 0)
(6.75011e-20 -9.87633e-16 0)
(8.27106e-20 -9.87662e-16 0)
(9.34411e-20 -9.87655e-16 0)
(1.26526e-19 -9.87659e-16 0)
(1.52742e-19 -9.87703e-16 0)
(1.57365e-19 -9.87742e-16 0)
(1.49262e-19 -9.8778e-16 0)
(1.31695e-19 -9.87807e-16 0)
(1.11246e-19 -9.87826e-16 0)
(9.11587e-20 -9.87838e-16 0)
(7.23648e-20 -9.87846e-16 0)
(5.48846e-20 -9.87852e-16 0)
(3.84626e-20 -9.87855e-16 0)
(2.2786e-20 -9.87857e-16 0)
(7.54734e-21 -9.87858e-16 0)
(-7.30795e-21 -9.87852e-16 0)
(-2.20411e-20 -9.87851e-16 0)
(-3.71256e-20 -9.87848e-16 0)
(-5.27889e-20 -9.87844e-16 0)
(-6.92234e-20 -9.87838e-16 0)
(-8.64996e-20 -9.8783e-16 0)
(-1.04341e-19 -9.87817e-16 0)
(-1.21615e-19 -9.87799e-16 0)
(-1.35514e-19 -9.87774e-16 0)
(-1.41422e-19 -9.87741e-16 0)
(-1.36308e-19 -9.87707e-16 0)
(-1.16542e-19 -9.87675e-16 0)
(-9.19851e-20 -9.87665e-16 0)
(-7.82456e-20 -9.87663e-16 0)
(-6.33012e-20 -9.87646e-16 0)
(-4.72649e-20 -9.87645e-16 0)
(-1.97036e-20 -9.87621e-16 0)
(5.59889e-21 -9.87647e-16 0)
(2.84747e-20 -9.87639e-16 0)
(3.91271e-20 -9.87687e-16 0)
(3.65733e-20 -9.87681e-16 0)
(4.1818e-20 -9.87703e-16 0)
(1.79732e-20 -9.87726e-16 0)
(4.47909e-20 -9.8765e-16 0)
(7.11534e-20 -9.8775e-16 0)
(5.5604e-21 -9.87781e-16 0)
(8.16573e-21 -9.87643e-16 0)
(7.93164e-20 -9.03493e-16 0)
(3.75462e-20 -7.76391e-16 0)
(-1.06673e-08 -6.56836e-16 0)
(-3.22975e-05 -3.63797e-07 0)
(-7.55232e-05 -3.90073e-06 0)
(-9.13498e-05 -4.7614e-06 0)
(-0.000102827 -6.68838e-06 0)
(-0.000120501 -1.14592e-05 0)
(-0.000133372 -4.51304e-05 0)
(-0.000132447 -7.7457e-05 0)
(-0.000126115 -0.00010872 0)
(-9.68839e-05 -0.000172107 0)
(-3.56313e-05 -0.000207206 0)
(3.56313e-05 -0.000207206 0)
(9.68839e-05 -0.000172107 0)
(0.000126115 -0.00010872 0)
(0.000132447 -7.7457e-05 0)
(0.000133372 -4.51304e-05 0)
(0.000120501 -1.14592e-05 0)
(0.000102827 -6.68838e-06 0)
(9.13498e-05 -4.7614e-06 0)
(7.55232e-05 -3.90073e-06 0)
(3.22975e-05 -3.63797e-07 0)
(1.06673e-08 -6.56836e-16 0)
(-3.75462e-20 -7.76391e-16 0)
(-7.93164e-20 -9.03493e-16 0)
(-8.16573e-21 -9.87643e-16 0)
(-5.5604e-21 -9.87781e-16 0)
(-7.11534e-20 -9.8775e-16 0)
(-4.47909e-20 -9.8765e-16 0)
(-1.79732e-20 -9.87726e-16 0)
(-4.1818e-20 -9.87703e-16 0)
(-3.65733e-20 -9.87681e-16 0)
(-3.91271e-20 -9.87687e-16 0)
(-2.84747e-20 -9.87639e-16 0)
(-5.59889e-21 -9.87647e-16 0)
(1.97036e-20 -9.87621e-16 0)
(4.72649e-20 -9.87645e-16 0)
(6.33012e-20 -9.87646e-16 0)
(7.82456e-20 -9.87663e-16 0)
(9.19851e-20 -9.87665e-16 0)
(1.16542e-19 -9.87675e-16 0)
(1.36308e-19 -9.87707e-16 0)
(1.41422e-19 -9.87741e-16 0)
(1.35514e-19 -9.87774e-16 0)
(1.21615e-19 -9.87799e-16 0)
(1.04341e-19 -9.87817e-16 0)
(8.64996e-20 -9.8783e-16 0)
(6.92234e-20 -9.87838e-16 0)
(5.27889e-20 -9.87844e-16 0)
(3.71256e-20 -9.87848e-16 0)
(2.20411e-20 -9.87851e-16 0)
(7.30795e-21 -9.87852e-16 0)
(-7.01857e-21 -9.87845e-16 0)
(-2.11437e-20 -9.87844e-16 0)
(-3.55269e-20 -9.87841e-16 0)
(-5.03141e-20 -9.87837e-16 0)
(-6.55853e-20 -9.87831e-16 0)
(-8.12602e-20 -9.87822e-16 0)
(-9.68968e-20 -9.87809e-16 0)
(-1.11332e-19 -9.87792e-16 0)
(-1.22261e-19 -9.87769e-16 0)
(-1.26455e-19 -9.87741e-16 0)
(-1.21632e-19 -9.87712e-16 0)
(-1.06686e-19 -9.87686e-16 0)
(-8.79149e-20 -9.87674e-16 0)
(-7.36237e-20 -9.87668e-16 0)
(-5.89443e-20 -9.87655e-16 0)
(-4.25569e-20 -9.87651e-16 0)
(-2.01269e-20 -9.87639e-16 0)
(1.51923e-21 -9.87652e-16 0)
(2.01418e-20 -9.87654e-16 0)
(3.02804e-20 -9.87682e-16 0)
(3.19385e-20 -9.87686e-16 0)
(3.40988e-20 -9.87701e-16 0)
(2.50348e-20 -9.87712e-16 0)
(3.8973e-20 -9.87684e-16 0)
(4.94847e-20 -9.87734e-16 0)
(1.79969e-20 -9.87751e-16 0)
(1.87399e-20 -9.877e-16 0)
(4.92955e-20 -9.87723e-16 0)
(2.00187e-20 -9.87792e-16 0)
(-6.31688e-20 -9.87771e-16 0)
(3.83598e-20 -9.86472e-16 0)
(1.15445e-19 -8.76822e-16 0)
(1.24228e-20 -7.87041e-16 0)
(-2.2786e-15 -7.28013e-16 0)
(-2.00739e-06 -6.62407e-12 0)
(-3.11621e-05 -2.1689e-05 0)
(-9.41416e-05 -4.01964e-05 0)
(-0.000165754 -7.16138e-05 0)
(-0.000158858 -0.000248357 0)
(-5.80902e-05 -0.0003117 0)
(5.80902e-05 -0.0003117 0)
(0.000158858 -0.000248357 0)
(0.000165754 -7.16138e-05 0)
(9.41416e-05 -4.01964e-05 0)
(3.11621e-05 -2.1689e-05 0)
(2.00739e-06 -6.62407e-12 0)
(2.2786e-15 -7.28013e-16 0)
(-1.24228e-20 -7.87041e-16 0)
(-1.15445e-19 -8.76822e-16 0)
(-3.83598e-20 -9.86472e-16 0)
(6.31688e-20 -9.87771e-16 0)
(-2.00187e-20 -9.87792e-16 0)
(-4.92955e-20 -9.87723e-16 0)
(-1.87399e-20 -9.877e-16 0)
(-1.79969e-20 -9.87751e-16 0)
(-4.94847e-20 -9.87734e-16 0)
(-3.8973e-20 -9.87684e-16 0)
(-2.50348e-20 -9.87712e-16 0)
(-3.40988e-20 -9.87701e-16 0)
(-3.19385e-20 -9.87686e-16 0)
(-3.02804e-20 -9.87682e-16 0)
(-2.01418e-20 -9.87654e-16 0)
(-1.51923e-21 -9.87652e-16 0)
(2.01269e-20 -9.87639e-16 0)
(4.25569e-20 -9.87651e-16 0)
(5.89443e-20 -9.87655e-16 0)
(7.36237e-20 -9.87668e-16 0)
(8.79149e-20 -9.87674e-16 0)
(1.06686e-19 -9.87686e-16 0)
(1.21632e-19 -9.87712e-16 0)
(1.26455e-19 -9.87741e-16 0)
(1.22261e-19 -9.87769e-16 0)
(1.11332e-19 -9.87792e-16 0)
(9.68968e-20 -9.87809e-16 0)
(8.12602e-20 -9.87822e-16 0)
(6.55853e-20 -9.87831e-16 0)
(5.03141e-20 -9.87837e-16 0)
(3.55269e-20 -9.87841e-16 0)
(2.11437e-20 -9.87844e-16 0)
(7.01857e-21 -9.87845e-16 0)
(-6.67698e-21 -9.87837e-16 0)
(-2.00885e-20 -9.87836e-16 0)
(-3.36623e-20 -9.87833e-16 0)
(-4.74664e-20 -9.87829e-16 0)
(-6.14841e-20 -9.87823e-16 0)
(-7.5524e-20 -9.87814e-16 0)
(-8.90627e-20 -9.87802e-16 0)
(-1.01017e-19 -9.87785e-16 0)
(-1.09578e-19 -9.87765e-16 0)
(-1.12519e-19 -9.87741e-16 0)
(-1.08321e-19 -9.87717e-16 0)
(-9.69282e-20 -9.87696e-16 0)
(-8.22184e-20 -9.87683e-16 0)
(-6.8661e-20 -9.87674e-16 0)
(-5.46353e-20 -9.87664e-16 0)
(-3.90552e-20 -9.87659e-16 0)
(-2.03756e-20 -9.87653e-16 0)
(-2.12381e-21 -9.87659e-16 0)
(1.33357e-20 -9.87665e-16 0)
(2.29096e-20 -9.87682e-16 0)
(2.67168e-20 -9.87689e-16 0)
(2.87195e-20 -9.877e-16 0)
(2.64533e-20 -9.87707e-16 0)
(3.35343e-20 -9.877e-16 0)
(3.72703e-20 -9.87725e-16 0)
(2.27723e-20 -9.87735e-16 0)
(2.21377e-20 -9.87715e-16 0)
(3.28251e-20 -9.87729e-16 0)
(1.46039e-20 -9.8776e-16 0)
(-1.9698e-20 -9.8774e-16 0)
(2.82362e-20 -9.87645e-16 0)
(6.16851e-20 -9.8777e-16 0)
(1.78943e-20 -9.87784e-16 0)
(-7.49997e-21 -9.87771e-16 0)
(-5.18346e-21 -9.87722e-16 0)
(1.08191e-20 -9.79988e-16 0)
(-1.6916e-08 -5.29526e-15 0)
(-1.24121e-05 -1.8354e-05 0)
(-5.64913e-05 -0.000258302 0)
(-4.40961e-05 -0.00043465 0)
(4.40961e-05 -0.00043465 0)
(5.64913e-05 -0.000258302 0)
(1.24121e-05 -1.8354e-05 0)
(1.6916e-08 -5.29526e-15 0)
(-1.08191e-20 -9.79988e-16 0)
(5.18346e-21 -9.87722e-16 0)
(7.49997e-21 -9.87771e-16 0)
(-1.78943e-20 -9.87784e-16 0)
(-6.16851e-20 -9.8777e-16 0)
(-2.82362e-20 -9.87645e-16 0)
(1.9698e-20 -9.8774e-16 0)
(-1.46039e-20 -9.8776e-16 0)
(-3.28251e-20 -9.87729e-16 0)
(-2.21377e-20 -9.87715e-16 0)
(-2.27723e-20 -9.87735e-16 0)
(-3.72703e-20 -9.87725e-16 0)
(-3.35343e-20 -9.877e-16 0)
(-2.64533e-20 -9.87707e-16 0)
(-2.87195e-20 -9.877e-16 0)
(-2.67168e-20 -9.87689e-16 0)
(-2.29096e-20 -9.87682e-16 0)
(-1.33357e-20 -9.87665e-16 0)
(2.12381e-21 -9.87659e-16 0)
(2.03756e-20 -9.87653e-16 0)
(3.90552e-20 -9.87659e-16 0)
(5.46353e-20 -9.87664e-16 0)
(6.8661e-20 -9.87674e-16 0)
(8.22184e-20 -9.87683e-16 0)
(9.69282e-20 -9.87696e-16 0)
(1.08321e-19 -9.87717e-16 0)
(1.12519e-19 -9.87741e-16 0)
(1.09578e-19 -9.87765e-16 0)
(1.01017e-19 -9.87785e-16 0)
(8.90627e-20 -9.87802e-16 0)
(7.5524e-20 -9.87814e-16 0)
(6.14841e-20 -9.87823e-16 0)
(4.74664e-20 -9.87829e-16 0)
(3.36623e-20 -9.87833e-16 0)
(2.00885e-20 -9.87836e-16 0)
(6.67698e-21 -9.87837e-16 0)
(-6.28326e-21 -9.8783e-16 0)
(-1.88773e-20 -9.87828e-16 0)
(-3.1541e-20 -9.87826e-16 0)
(-4.42724e-20 -9.87821e-16 0)
(-5.69783e-20 -9.87815e-16 0)
(-6.93984e-20 -9.87806e-16 0)
(-8.09943e-20 -9.87794e-16 0)
(-9.08263e-20 -9.8778e-16 0)
(-9.75274e-20 -9.87762e-16 0)
(-9.95951e-20 -9.87742e-16 0)
(-9.61004e-20 -9.87721e-16 0)
(-8.73234e-20 -9.87703e-16 0)
(-7.5589e-20 -9.87691e-16 0)
(-6.33728e-20 -9.87681e-16 0)
(-5.04234e-20 -9.87673e-16 0)
(-3.624e-20 -9.87668e-16 0)
(-2.05068e-20 -9.87664e-16 0)
(-5.19564e-21 -9.87668e-16 0)
(7.8182e-21 -9.87673e-16 0)
(1.67335e-20 -9.87684e-16 0)
(2.15865e-20 -9.87692e-16 0)
(2.42319e-20 -9.877e-16 0)
(2.49161e-20 -9.87706e-16 0)
(2.86759e-20 -9.87707e-16 0)
(2.99067e-20 -9.87721e-16 0)
(2.34228e-20 -9.87728e-16 0)
(2.21181e-20 -9.87722e-16 0)
(2.43258e-20 -9.8773e-16 0)
(1.39861e-20 -9.87743e-16 0)
(7.69865e-22 -9.8773e-16 0)
(2.19257e-20 -9.87695e-16 0)
(3.54085e-20 -9.87747e-16 0)
(1.77888e-20 -9.87756e-16 0)
(6.79752e-21 -9.87752e-16 0)
(1.95424e-21 -9.87742e-16 0)
(-2.3281e-21 -9.87744e-16 0)
(-2.30916e-10 -1.64715e-15 0)
(-1.93809e-07 -5.76703e-06 0)
(-6.29519e-06 -0.000210965 0)
(-6.10161e-06 -0.000499266 0)
(6.10161e-06 -0.000499266 0)
(6.29519e-06 -0.000210965 0)