/*--------------------------------*- C++ -*----------------------------------*\
  =========                 |
  \\      /  F ield         | OpenFOAM: The Open Source CFD Toolbox
   \\    /   O peration     | Website:  https://openfoam.org
    \\  /    A nd           | Version:  10
     \\/     M anipulation  |
\*---------------------------------------------------------------------------*/
FoamFile
{
    format      ascii;
    class       volVectorField;
    location    "1500";
    object      Ub;
}
// * * * * * * * * * * * * * * * * * * * * * * * * * * * * * * * * * * * * * //

dimensions      [0 1 -1 0 0 0 0];

internalField   nonuniform List<vector> 
6400
(
(-2.90393e-22 -9.87899e-16 0)
(-8.6917e-22 -9.87899e-16 0)
(-1.44193e-21 -9.87899e-16 0)
(-2.00469e-21 -9.87899e-16 0)
(-2.55352e-21 -9.87899e-16 0)
(-3.08453e-21 -9.87899e-16 0)
(-3.59392e-21 -9.87899e-16 0)
(-4.07799e-21 -9.87899e-16 0)
(-4.53315e-21 -9.87899e-16 0)
(-4.95597e-21 -9.87899e-16 0)
(-5.34316e-21 -9.87899e-16 0)
(-5.69163e-21 -9.87899e-16 0)
(-5.9985e-21 -9.87899e-16 0)
(-6.26113e-21 -9.87899e-16 0)
(-6.47713e-21 -9.87899e-16 0)
(-6.64443e-21 -9.87899e-16 0)
(-6.76125e-21 -9.87899e-16 0)
(-6.82617e-21 -9.87899e-16 0)
(-6.83815e-21 -9.87899e-16 0)
(-6.79653e-21 -9.87899e-16 0)
(-6.70107e-21 -9.87899e-16 0)
(-6.552e-21 -9.87899e-16 0)
(-6.34995e-21 -9.87899e-16 0)
(-6.09606e-21 -9.87899e-16 0)
(-5.79193e-21 -9.87899e-16 0)
(-5.43964e-21 -9.87899e-16 0)
(-5.04172e-21 -9.87899e-16 0)
(-4.60117e-21 -9.87899e-16 0)
(-4.12144e-21 -9.87899e-16 0)
(-3.60639e-21 -9.87899e-16 0)
(-3.06023e-21 -9.87899e-16 0)
(-2.48756e-21 -9.87899e-16 0)
(-2.06217e-21 -9.87899e-16 0)
(-1.79448e-21 -9.87899e-16 0)
(-1.52369e-21 -9.87899e-16 0)
(-1.25026e-21 -9.87899e-16 0)
(-9.74679e-22 -9.87899e-16 0)
(-6.97407e-22 -9.87899e-16 0)
(-4.18928e-22 -9.87899e-16 0)
(-1.39723e-22 -9.87899e-16 0)
(1.39723e-22 -9.87899e-16 0)
(4.18928e-22 -9.87899e-16 0)
(6.97407e-22 -9.87899e-16 0)
(9.74679e-22 -9.87899e-16 0)
(1.25026e-21 -9.87899e-16 0)
(1.52369e-21 -9.87899e-16 0)
(1.79448e-21 -9.87899e-16 0)
(2.06217e-21 -9.87899e-16 0)
(2.48756e-21 -9.87899e-16 0)
(3.06023e-21 -9.87899e-16 0)
(3.60639e-21 -9.87899e-16 0)
(4.12144e-21 -9.87899e-16 0)
(4.60117e-21 -9.87899e-16 0)
(5.04172e-21 -9.87899e-16 0)
(5.43964e-21 -9.87899e-16 0)
(5.79193e-21 -9.87899e-16 0)
(6.09606e-21 -9.87899e-16 0)
(6.34995e-21 -9.87899e-16 0)
(6.552e-21 -9.87899e-16 0)
(6.70107e-21 -9.87899e-16 0)
(6.79653e-21 -9.87899e-16 0)
(6.83815e-21 -9.87899e-16 0)
(6.82617e-21 -9.87899e-16 0)
(6.76125e-21 -9.87899e-16 0)
(6.64443e-21 -9.87899e-16 0)
(6.47713e-21 -9.87899e-16 0)
(6.26113e-21 -9.87899e-16 0)
(5.9985e-21 -9.87899e-16 0)
(5.69163e-21 -9.87899e-16 0)
(5.34316e-21 -9.87899e-16 0)
(4.95597e-21 -9.87899e-16 0)
(4.53315e-21 -9.87899e-16 0)
(4.07799e-21 -9.87899e-16 0)
(3.59392e-21 -9.87899e-16 0)
(3.08453e-21 -9.87899e-16 0)
(2.55352e-21 -9.87899e-16 0)
(2.00469e-21 -9.87899e-16 0)
(1.44193e-21 -9.87899e-16 0)
(8.6917e-22 -9.87899e-16 0)
(2.90393e-22 -9.87899e-16 0)
(-2.9048e-22 -9.87898e-16 0)
(-8.6943e-22 -9.87898e-16 0)
(-1.44236e-21 -9.87898e-16 0)
(-2.0053e-21 -9.87898e-16 0)
(-2.55429e-21 -9.87898e-16 0)
(-3.08546e-21 -9.87898e-16 0)
(-3.59501e-21 -9.87898e-16 0)
(-4.07924e-21 -9.87898e-16 0)
(-4.53455e-21 -9.87898e-16 0)
(-4.95751e-21 -9.87898e-16 0)
(-5.34484e-21 -9.87898e-16 0)
(-5.69343e-21 -9.87898e-16 0)
(-6.00042e-21 -9.87898e-16 0)
(-6.26315e-21 -9.87898e-16 0)
(-6.47924e-21 -9.87898e-16 0)
(-6.64661e-21 -9.87898e-16 0)
(-6.76349e-21 -9.87898e-16 0)
(-6.82846e-21 -9.87898e-16 0)
(-6.84047e-21 -9.87899e-16 0)
(-6.79886e-21 -9.87899e-16 0)
(-6.70339e-21 -9.87899e-16 0)
(-6.55429e-21 -9.87899e-16 0)
(-6.35219e-21 -9.87899e-16 0)
(-6.09824e-21 -9.87899e-16 0)
(-5.79402e-21 -9.87899e-16 0)
(-5.44161e-21 -9.87899e-16 0)
(-5.04356e-21 -9.87899e-16 0)
(-4.60287e-21 -9.87899e-16 0)
(-4.12297e-21 -9.87899e-16 0)
(-3.60773e-21 -9.87899e-16 0)
(-3.06138e-21 -9.87899e-16 0)
(-2.4885e-21 -9.87899e-16 0)
(-2.06295e-21 -9.87899e-16 0)
(-1.79516e-21 -9.87899e-16 0)
(-1.52426e-21 -9.87899e-16 0)
(-1.25074e-21 -9.87899e-16 0)
(-9.75049e-22 -9.87899e-16 0)
(-6.97672e-22 -9.87899e-16 0)
(-4.19087e-22 -9.87899e-16 0)
(-1.39776e-22 -9.87899e-16 0)
(1.39776e-22 -9.87899e-16 0)
(4.19087e-22 -9.87899e-16 0)
(6.97672e-22 -9.87899e-16 0)
(9.75049e-22 -9.87899e-16 0)
(1.25074e-21 -9.87899e-16 0)
(1.52426e-21 -9.87899e-16 0)
(1.79516e-21 -9.87899e-16 0)
(2.06295e-21 -9.87899e-16 0)
(2.4885e-21 -9.87899e-16 0)
(3.06138e-21 -9.87899e-16 0)
(3.60773e-21 -9.87899e-16 0)
(4.12297e-21 -9.87899e-16 0)
(4.60287e-21 -9.87899e-16 0)
(5.04356e-21 -9.87899e-16 0)
(5.44161e-21 -9.87899e-16 0)
(5.79402e-21 -9.87899e-16 0)
(6.09824e-21 -9.87899e-16 0)
(6.35219e-21 -9.87899e-16 0)
(6.55429e-21 -9.87899e-16 0)
(6.70339e-21 -9.87899e-16 0)
(6.79886e-21 -9.87899e-16 0)
(6.84047e-21 -9.87899e-16 0)
(6.82846e-21 -9.87898e-16 0)
(6.76349e-21 -9.87898e-16 0)
(6.64661e-21 -9.87898e-16 0)
(6.47924e-21 -9.87898e-16 0)
(6.26315e-21 -9.87898e-16 0)
(6.00042e-21 -9.87898e-16 0)
(5.69343e-21 -9.87898e-16 0)
(5.34484e-21 -9.87898e-16 0)
(4.95751e-21 -9.87898e-16 0)
(4.53455e-21 -9.87898e-16 0)
(4.07924e-21 -9.87898e-16 0)
(3.59501e-21 -9.87898e-16 0)
(3.08546e-21 -9.87898e-16 0)
(2.55429e-21 -9.87898e-16 0)
(2.0053e-21 -9.87898e-16 0)
(1.44236e-21 -9.87898e-16 0)
(8.6943e-22 -9.87898e-16 0)
(2.9048e-22 -9.87898e-16 0)
(-2.9068e-22 -9.87898e-16 0)
(-8.7003e-22 -9.87898e-16 0)
(-1.44336e-21 -9.87898e-16 0)
(-2.00669e-21 -9.87898e-16 0)
(-2.55607e-21 -9.87898e-16 0)
(-3.08762e-21 -9.87898e-16 0)
(-3.59754e-21 -9.87898e-16 0)
(-4.08212e-21 -9.87898e-16 0)
(-4.53777e-21 -9.87898e-16 0)
(-4.96106e-21 -9.87898e-16 0)
(-5.34869e-21 -9.87898e-16 0)
(-5.69758e-21 -9.87898e-16 0)
(-6.00482e-21 -9.87898e-16 0)
(-6.26779e-21 -9.87898e-16 0)
(-6.48409e-21 -9.87898e-16 0)
(-6.65164e-21 -9.87898e-16 0)
(-6.76866e-21 -9.87898e-16 0)
(-6.83374e-21 -9.87898e-16 0)
(-6.84581e-21 -9.87899e-16 0)
(-6.80422e-21 -9.87899e-16 0)
(-6.70874e-21 -9.87899e-16 0)
(-6.55956e-21 -9.87899e-16 0)
(-6.35736e-21 -9.87899e-16 0)
(-6.10324e-21 -9.87899e-16 0)
(-5.79882e-21 -9.87899e-16 0)
(-5.44616e-21 -9.87899e-16 0)
(-5.04781e-21 -9.87899e-16 0)
(-4.60677e-21 -9.87899e-16 0)
(-4.12649e-21 -9.87899e-16 0)
(-3.61083e-21 -9.87899e-16 0)
(-3.06402e-21 -9.87899e-16 0)
(-2.49065e-21 -9.87899e-16 0)
(-2.06474e-21 -9.87899e-16 0)
(-1.79672e-21 -9.87899e-16 0)
(-1.52559e-21 -9.87899e-16 0)
(-1.25183e-21 -9.87899e-16 0)
(-9.75899e-22 -9.87899e-16 0)
(-6.98281e-22 -9.87899e-16 0)
(-4.19453e-22 -9.87899e-16 0)
(-1.39899e-22 -9.87899e-16 0)
(1.39899e-22 -9.87899e-16 0)
(4.19453e-22 -9.87899e-16 0)
(6.98281e-22 -9.87899e-16 0)
(9.75899e-22 -9.87899e-16 0)
(1.25183e-21 -9.87899e-16 0)
(1.52559e-21 -9.87899e-16 0)
(1.79672e-21 -9.87899e-16 0)
(2.06474e-21 -9.87899e-16 0)
(2.49065e-21 -9.87899e-16 0)
(3.06402e-21 -9.87899e-16 0)
(3.61083e-21 -9.87899e-16 0)
(4.12649e-21 -9.87899e-16 0)
(4.60677e-21 -9.87899e-16 0)
(5.04781e-21 -9.87899e-16 0)
(5.44616e-21 -9.87899e-16 0)
(5.79882e-21 -9.87899e-16 0)
(6.10324e-21 -9.87899e-16 0)
(6.35736e-21 -9.87899e-16 0)
(6.55956e-21 -9.87899e-16 0)
(6.70874e-21 -9.87899e-16 0)
(6.80422e-21 -9.87899e-16 0)
(6.84581e-21 -9.87899e-16 0)
(6.83374e-21 -9.87898e-16 0)
(6.76866e-21 -9.87898e-16 0)
(6.65164e-21 -9.87898e-16 0)
(6.48409e-21 -9.87898e-16 0)
(6.26779e-21 -9.87898e-16 0)
(6.00482e-21 -9.87898e-16 0)
(5.69758e-21 -9.87898e-16 0)
(5.34869e-21 -9.87898e-16 0)
(4.96106e-21 -9.87898e-16 0)
(4.53777e-21 -9.87898e-16 0)
(4.08212e-21 -9.87898e-16 0)
(3.59754e-21 -9.87898e-16 0)
(3.08762e-21 -9.87898e-16 0)
(2.55607e-21 -9.87898e-16 0)
(2.00669e-21 -9.87898e-16 0)
(1.44336e-21 -9.87898e-16 0)
(8.7003e-22 -9.87898e-16 0)
(2.9068e-22 -9.87898e-16 0)
(-2.91025e-22 -9.87898e-16 0)
(-8.71064e-22 -9.87898e-16 0)
(-1.44508e-21 -9.87898e-16 0)
(-2.00908e-21 -9.87898e-16 0)
(-2.55913e-21 -9.87898e-16 0)
(-3.09134e-21 -9.87898e-16 0)
(-3.60189e-21 -9.87898e-16 0)
(-4.08709e-21 -9.87898e-16 0)
(-4.54334e-21 -9.87898e-16 0)
(-4.96719e-21 -9.87898e-16 0)
(-5.35536e-21 -9.87898e-16 0)
(-5.70473e-21 -9.87898e-16 0)
(-6.01244e-21 -9.87898e-16 0)
(-6.27581e-21 -9.87898e-16 0)
(-6.49247e-21 -9.87898e-16 0)
(-6.66032e-21 -9.87898e-16 0)
(-6.77759e-21 -9.87898e-16 0)
(-6.84285e-21 -9.87898e-16 0)
(-6.85503e-21 -9.87899e-16 0)
(-6.81348e-21 -9.87899e-16 0)
(-6.71797e-21 -9.87899e-16 0)
(-6.56868e-21 -9.87899e-16 0)
(-6.36628e-21 -9.87899e-16 0)
(-6.11189e-21 -9.87899e-16 0)
(-5.80711e-21 -9.87899e-16 0)
(-5.45401e-21 -9.87899e-16 0)
(-5.05514e-21 -9.87899e-16 0)
(-4.61352e-21 -9.87899e-16 0)
(-4.13257e-21 -9.87899e-16 0)
(-3.61618e-21 -9.87899e-16 0)
(-3.06859e-21 -9.87899e-16 0)
(-2.49438e-21 -9.87899e-16 0)
(-2.06784e-21 -9.87899e-16 0)
(-1.79942e-21 -9.87899e-16 0)
(-1.52789e-21 -9.87899e-16 0)
(-1.25371e-21 -9.87899e-16 0)
(-9.77369e-22 -9.87899e-16 0)
(-6.99333e-22 -9.87899e-16 0)
(-4.20085e-22 -9.87899e-16 0)
(-1.40109e-22 -9.87899e-16 0)
(1.40109e-22 -9.87899e-16 0)
(4.20085e-22 -9.87899e-16 0)
(6.99333e-22 -9.87899e-16 0)
(9.77369e-22 -9.87899e-16 0)
(1.25371e-21 -9.87899e-16 0)
(1.52789e-21 -9.87899e-16 0)
(1.79942e-21 -9.87899e-16 0)
(2.06784e-21 -9.87899e-16 0)
(2.49438e-21 -9.87899e-16 0)
(3.06859e-21 -9.87899e-16 0)
(3.61618e-21 -9.87899e-16 0)
(4.13257e-21 -9.87899e-16 0)
(4.61352e-21 -9.87899e-16 0)
(5.05514e-21 -9.87899e-16 0)
(5.45401e-21 -9.87899e-16 0)
(5.80711e-21 -9.87899e-16 0)
(6.11189e-21 -9.87899e-16 0)
(6.36628e-21 -9.87899e-16 0)
(6.56868e-21 -9.87899e-16 0)
(6.71797e-21 -9.87899e-16 0)
(6.81348e-21 -9.87899e-16 0)
(6.85503e-21 -9.87899e-16 0)
(6.84285e-21 -9.87898e-16 0)
(6.77759e-21 -9.87898e-16 0)
(6.66032e-21 -9.87898e-16 0)
(6.49247e-21 -9.87898e-16 0)
(6.27581e-21 -9.87898e-16 0)
(6.01244e-21 -9.87898e-16 0)
(5.70473e-21 -9.87898e-16 0)
(5.35536e-21 -9.87898e-16 0)
(4.96719e-21 -9.87898e-16 0)
(4.54334e-21 -9.87898e-16 0)
(4.08709e-21 -9.87898e-16 0)
(3.60189e-21 -9.87898e-16 0)
(3.09134e-21 -9.87898e-16 0)
(2.55913e-21 -9.87898e-16 0)
(2.00908e-21 -9.87898e-16 0)
(1.44508e-21 -9.87898e-16 0)
(8.71064e-22 -9.87898e-16 0)
(2.91025e-22 -9.87898e-16 0)
(-2.91556e-22 -9.87898e-16 0)
(-8.72654e-22 -9.87898e-16 0)
(-1.44772e-21 -9.87898e-16 0)
(-2.01277e-21 -9.87898e-16 0)
(-2.56384e-21 -9.87898e-16 0)
(-3.09705e-21 -9.87898e-16 0)
(-3.60858e-21 -9.87898e-16 0)
(-4.09473e-21 -9.87898e-16 0)
(-4.55189e-21 -9.87898e-16 0)
(-4.9766e-21 -9.87898e-16 0)
(-5.36559e-21 -9.87898e-16 0)
(-5.71573e-21 -9.87898e-16 0)
(-6.02413e-21 -9.87898e-16 0)
(-6.28813e-21 -9.87898e-16 0)
(-6.50535e-21 -9.87898e-16 0)
(-6.67367e-21 -9.87898e-16 0)
(-6.79131e-21 -9.87898e-16 0)
(-6.85684e-21 -9.87898e-16 0)
(-6.8692e-21 -9.87899e-16 0)
(-6.82771e-21 -9.87899e-16 0)
(-6.73214e-21 -9.87899e-16 0)
(-6.58268e-21 -9.87899e-16 0)
(-6.37998e-21 -9.87899e-16 0)
(-6.12517e-21 -9.87899e-16 0)
(-5.81984e-21 -9.87899e-16 0)
(-5.46607e-21 -9.87899e-16 0)
(-5.06642e-21 -9.87899e-16 0)
(-4.62388e-21 -9.87899e-16 0)
(-4.14192e-21 -9.87899e-16 0)
(-3.6244e-21 -9.87899e-16 0)
(-3.0756e-21 -9.87899e-16 0)
(-2.5001e-21 -9.87899e-16 0)
(-2.0726e-21 -9.87899e-16 0)
(-1.80356e-21 -9.87899e-16 0)
(-1.53141e-21 -9.87899e-16 0)
(-1.25661e-21 -9.87899e-16 0)
(-9.79627e-22 -9.87899e-16 0)
(-7.0095e-22 -9.87899e-16 0)
(-4.21057e-22 -9.87899e-16 0)
(-1.40433e-22 -9.87899e-16 0)
(1.40434e-22 -9.87899e-16 0)
(4.21057e-22 -9.87899e-16 0)
(7.0095e-22 -9.87899e-16 0)
(9.79627e-22 -9.87899e-16 0)
(1.25661e-21 -9.87899e-16 0)
(1.53141e-21 -9.87899e-16 0)
(1.80356e-21 -9.87899e-16 0)
(2.0726e-21 -9.87899e-16 0)
(2.5001e-21 -9.87899e-16 0)
(3.0756e-21 -9.87899e-16 0)
(3.6244e-21 -9.87899e-16 0)
(4.14192e-21 -9.87899e-16 0)
(4.62388e-21 -9.87899e-16 0)
(5.06642e-21 -9.87899e-16 0)
(5.46607e-21 -9.87899e-16 0)
(5.81984e-21 -9.87899e-16 0)
(6.12517e-21 -9.87899e-16 0)
(6.37998e-21 -9.87899e-16 0)
(6.58268e-21 -9.87899e-16 0)
(6.73214e-21 -9.87899e-16 0)
(6.82771e-21 -9.87899e-16 0)
(6.8692e-21 -9.87899e-16 0)
(6.85684e-21 -9.87898e-16 0)
(6.79131e-21 -9.87898e-16 0)
(6.67367e-21 -9.87898e-16 0)
(6.50535e-21 -9.87898e-16 0)
(6.28813e-21 -9.87898e-16 0)
(6.02413e-21 -9.87898e-16 0)
(5.71573e-21 -9.87898e-16 0)
(5.36559e-21 -9.87898e-16 0)
(4.9766e-21 -9.87898e-16 0)
(4.55189e-21 -9.87898e-16 0)
(4.09473e-21 -9.87898e-16 0)
(3.60858e-21 -9.87898e-16 0)
(3.09705e-21 -9.87898e-16 0)
(2.56384e-21 -9.87898e-16 0)
(2.01277e-21 -9.87898e-16 0)
(1.44772e-21 -9.87898e-16 0)
(8.72654e-22 -9.87898e-16 0)
(2.91556e-22 -9.87898e-16 0)
(-2.9232e-22 -9.87898e-16 0)
(-8.74944e-22 -9.87898e-16 0)
(-1.45153e-21 -9.87898e-16 0)
(-2.01807e-21 -9.87898e-16 0)
(-2.57062e-21 -9.87898e-16 0)
(-3.10528e-21 -9.87898e-16 0)
(-3.61822e-21 -9.87898e-16 0)
(-4.10573e-21 -9.87898e-16 0)
(-4.5642e-21 -9.87898e-16 0)
(-4.99017e-21 -9.87898e-16 0)
(-5.38033e-21 -9.87898e-16 0)
(-5.73157e-21 -9.87898e-16 0)
(-6.04098e-21 -9.87898e-16 0)
(-6.30589e-21 -9.87898e-16 0)
(-6.5239e-21 -9.87898e-16 0)
(-6.69289e-21 -9.87898e-16 0)
(-6.81108e-21 -9.87898e-16 0)
(-6.87701e-21 -9.87898e-16 0)
(-6.88962e-21 -9.87899e-16 0)
(-6.84823e-21 -9.87899e-16 0)
(-6.75258e-21 -9.87899e-16 0)
(-6.60287e-21 -9.87899e-16 0)
(-6.39974e-21 -9.87899e-16 0)
(-6.14432e-21 -9.87899e-16 0)
(-5.83821e-21 -9.87899e-16 0)
(-5.48347e-21 -9.87899e-16 0)
(-5.08267e-21 -9.87899e-16 0)
(-4.63882e-21 -9.87899e-16 0)
(-4.15539e-21 -9.87899e-16 0)
(-3.63626e-21 -9.87899e-16 0)
(-3.08571e-21 -9.87899e-16 0)
(-2.50836e-21 -9.87899e-16 0)
(-2.07946e-21 -9.87899e-16 0)
(-1.80954e-21 -9.87899e-16 0)
(-1.53649e-21 -9.87899e-16 0)
(-1.26078e-21 -9.87899e-16 0)
(-9.82884e-22 -9.87899e-16 0)
(-7.03281e-22 -9.87899e-16 0)
(-4.22458e-22 -9.87899e-16 0)
(-1.40901e-22 -9.87899e-16 0)
(1.40901e-22 -9.87899e-16 0)
(4.22458e-22 -9.87899e-16 0)
(7.03281e-22 -9.87899e-16 0)
(9.82884e-22 -9.87899e-16 0)
(1.26078e-21 -9.87899e-16 0)
(1.53649e-21 -9.87899e-16 0)
(1.80954e-21 -9.87899e-16 0)
(2.07946e-21 -9.87899e-16 0)
(2.50836e-21 -9.87899e-16 0)
(3.08571e-21 -9.87899e-16 0)
(3.63626e-21 -9.87899e-16 0)
(4.15539e-21 -9.87899e-16 0)
(4.63882e-21 -9.87899e-16 0)
(5.08267e-21 -9.87899e-16 0)
(5.48347e-21 -9.87899e-16 0)
(5.83821e-21 -9.87899e-16 0)
(6.14432e-21 -9.87899e-16 0)
(6.39974e-21 -9.87899e-16 0)
(6.60287e-21 -9.87899e-16 0)
(6.75258e-21 -9.87899e-16 0)
(6.84823e-21 -9.87899e-16 0)
(6.88962e-21 -9.87899e-16 0)
(6.87701e-21 -9.87898e-16 0)
(6.81108e-21 -9.87898e-16 0)
(6.69289e-21 -9.87898e-16 0)
(6.5239e-21 -9.87898e-16 0)
(6.30589e-21 -9.87898e-16 0)
(6.04098e-21 -9.87898e-16 0)
(5.73157e-21 -9.87898e-16 0)
(5.38033e-21 -9.87898e-16 0)
(4.99017e-21 -9.87898e-16 0)
(4.5642e-21 -9.87898e-16 0)
(4.10573e-21 -9.87898e-16 0)
(3.61822e-21 -9.87898e-16 0)
(3.10528e-21 -9.87898e-16 0)
(2.57062e-21 -9.87898e-16 0)
(2.01807e-21 -9.87898e-16 0)
(1.45153e-21 -9.87898e-16 0)
(8.74944e-22 -9.87898e-16 0)
(2.9232e-22 -9.87898e-16 0)
(-2.93379e-22 -9.87898e-16 0)
(-8.78116e-22 -9.87898e-16 0)
(-1.4568e-21 -9.87898e-16 0)
(-2.02542e-21 -9.87898e-16 0)
(-2.58002e-21 -9.87898e-16 0)
(-3.11668e-21 -9.87898e-16 0)
(-3.63157e-21 -9.87898e-16 0)
(-4.12097e-21 -9.87898e-16 0)
(-4.58126e-21 -9.87898e-16 0)
(-5.00896e-21 -9.87898e-16 0)
(-5.40076e-21 -9.87898e-16 0)
(-5.75352e-21 -9.87898e-16 0)
(-6.06432e-21 -9.87898e-16 0)
(-6.33049e-21 -9.87898e-16 0)
(-6.5496e-21 -9.87898e-16 0)
(-6.71953e-21 -9.87898e-16 0)
(-6.83847e-21 -9.87898e-16 0)
(-6.90496e-21 -9.87898e-16 0)
(-6.91792e-21 -9.87899e-16 0)
(-6.87665e-21 -9.87899e-16 0)
(-6.7809e-21 -9.87899e-16 0)
(-6.63084e-21 -9.87899e-16 0)
(-6.42713e-21 -9.87899e-16 0)
(-6.17086e-21 -9.87899e-16 0)
(-5.86365e-21 -9.87899e-16 0)
(-5.50758e-21 -9.87899e-16 0)
(-5.10519e-21 -9.87899e-16 0)
(-4.65953e-21 -9.87899e-16 0)
(-4.17406e-21 -9.87899e-16 0)
(-3.6527e-21 -9.87899e-16 0)
(-3.09973e-21 -9.87899e-16 0)
(-2.5198e-21 -9.879e-16 0)
(-2.08897e-21 -9.879e-16 0)
(-1.81783e-21 -9.879e-16 0)
(-1.54354e-21 -9.879e-16 0)
(-1.26657e-21 -9.879e-16 0)
(-9.87398e-22 -9.879e-16 0)
(-7.06513e-22 -9.879e-16 0)
(-4.244e-22 -9.879e-16 0)
(-1.41549e-22 -9.879e-16 0)
(1.41549e-22 -9.879e-16 0)
(4.244e-22 -9.879e-16 0)
(7.06513e-22 -9.879e-16 0)
(9.87398e-22 -9.879e-16 0)
(1.26657e-21 -9.879e-16 0)
(1.54354e-21 -9.879e-16 0)
(1.81783e-21 -9.879e-16 0)
(2.08897e-21 -9.879e-16 0)
(2.5198e-21 -9.879e-16 0)
(3.09973e-21 -9.87899e-16 0)
(3.6527e-21 -9.87899e-16 0)
(4.17406e-21 -9.87899e-16 0)
(4.65953e-21 -9.87899e-16 0)
(5.10519e-21 -9.87899e-16 0)
(5.50758e-21 -9.87899e-16 0)
(5.86365e-21 -9.87899e-16 0)
(6.17086e-21 -9.87899e-16 0)
(6.42713e-21 -9.87899e-16 0)
(6.63084e-21 -9.87899e-16 0)
(6.7809e-21 -9.87899e-16 0)
(6.87665e-21 -9.87899e-16 0)
(6.91792e-21 -9.87899e-16 0)
(6.90496e-21 -9.87898e-16 0)
(6.83847e-21 -9.87898e-16 0)
(6.71953e-21 -9.87898e-16 0)
(6.5496e-21 -9.87898e-16 0)
(6.33049e-21 -9.87898e-16 0)
(6.06432e-21 -9.87898e-16 0)
(5.75352e-21 -9.87898e-16 0)
(5.40076e-21 -9.87898e-16 0)
(5.00896e-21 -9.87898e-16 0)
(4.58126e-21 -9.87898e-16 0)
(4.12097e-21 -9.87898e-16 0)
(3.63157e-21 -9.87898e-16 0)
(3.11668e-21 -9.87898e-16 0)
(2.58002e-21 -9.87898e-16 0)
(2.02542e-21 -9.87898e-16 0)
(1.4568e-21 -9.87898e-16 0)
(8.78116e-22 -9.87898e-16 0)
(2.93379e-22 -9.87898e-16 0)
(-2.94805e-22 -9.87897e-16 0)
(-8.82389e-22 -9.87897e-16 0)
(-1.4639e-21 -9.87897e-16 0)
(-2.03532e-21 -9.87897e-16 0)
(-2.59267e-21 -9.87897e-16 0)
(-3.13204e-21 -9.87897e-16 0)
(-3.64957e-21 -9.87897e-16 0)
(-4.14151e-21 -9.87898e-16 0)
(-4.60425e-21 -9.87898e-16 0)
(-5.03429e-21 -9.87898e-16 0)
(-5.42828e-21 -9.87898e-16 0)
(-5.78309e-21 -9.87898e-16 0)
(-6.09578e-21 -9.87898e-16 0)
(-6.36365e-21 -9.87898e-16 0)
(-6.58425e-21 -9.87898e-16 0)
(-6.75545e-21 -9.87898e-16 0)
(-6.8754e-21 -9.87898e-16 0)
(-6.94265e-21 -9.87898e-16 0)
(-6.95607e-21 -9.87899e-16 0)
(-6.91498e-21 -9.87899e-16 0)
(-6.81909e-21 -9.87899e-16 0)
(-6.66857e-21 -9.87899e-16 0)
(-6.46406e-21 -9.87899e-16 0)
(-6.20667e-21 -9.87899e-16 0)
(-5.89798e-21 -9.87899e-16 0)
(-5.5401e-21 -9.87899e-16 0)
(-5.13558e-21 -9.87899e-16 0)
(-4.68747e-21 -9.87899e-16 0)
(-4.19926e-21 -9.879e-16 0)
(-3.67488e-21 -9.879e-16 0)
(-3.11865e-21 -9.879e-16 0)
(-2.53524e-21 -9.879e-16 0)
(-2.10181e-21 -9.879e-16 0)
(-1.82901e-21 -9.879e-16 0)
(-1.55304e-21 -9.879e-16 0)
(-1.27438e-21 -9.879e-16 0)
(-9.9349e-22 -9.879e-16 0)
(-7.10875e-22 -9.879e-16 0)
(-4.27021e-22 -9.879e-16 0)
(-1.42423e-22 -9.879e-16 0)
(1.42423e-22 -9.879e-16 0)
(4.27021e-22 -9.879e-16 0)
(7.10875e-22 -9.879e-16 0)
(9.9349e-22 -9.879e-16 0)
(1.27438e-21 -9.879e-16 0)
(1.55304e-21 -9.879e-16 0)
(1.82901e-21 -9.879e-16 0)
(2.10181e-21 -9.879e-16 0)
(2.53524e-21 -9.879e-16 0)
(3.11865e-21 -9.879e-16 0)
(3.67488e-21 -9.879e-16 0)
(4.19926e-21 -9.879e-16 0)
(4.68747e-21 -9.87899e-16 0)
(5.13558e-21 -9.87899e-16 0)
(5.5401e-21 -9.87899e-16 0)
(5.89798e-21 -9.87899e-16 0)
(6.20667e-21 -9.87899e-16 0)
(6.46406e-21 -9.87899e-16 0)
(6.66857e-21 -9.87899e-16 0)
(6.81909e-21 -9.87899e-16 0)
(6.91498e-21 -9.87899e-16 0)
(6.95607e-21 -9.87899e-16 0)
(6.94265e-21 -9.87898e-16 0)
(6.8754e-21 -9.87898e-16 0)
(6.75545e-21 -9.87898e-16 0)
(6.58425e-21 -9.87898e-16 0)
(6.36365e-21 -9.87898e-16 0)
(6.09578e-21 -9.87898e-16 0)
(5.78309e-21 -9.87898e-16 0)
(5.42828e-21 -9.87898e-16 0)
(5.03429e-21 -9.87898e-16 0)
(4.60425e-21 -9.87898e-16 0)
(4.14151e-21 -9.87898e-16 0)
(3.64957e-21 -9.87897e-16 0)
(3.13204e-21 -9.87897e-16 0)
(2.59267e-21 -9.87897e-16 0)
(2.03532e-21 -9.87897e-16 0)
(1.4639e-21 -9.87897e-16 0)
(8.82389e-22 -9.87897e-16 0)
(2.94805e-22 -9.87897e-16 0)
(-2.9669e-22 -9.87897e-16 0)
(-8.88035e-22 -9.87897e-16 0)
(-1.47329e-21 -9.87897e-16 0)
(-2.04841e-21 -9.87897e-16 0)
(-2.6094e-21 -9.87897e-16 0)
(-3.15233e-21 -9.87897e-16 0)
(-3.67334e-21 -9.87897e-16 0)
(-4.16866e-21 -9.87897e-16 0)
(-4.63463e-21 -9.87897e-16 0)
(-5.06775e-21 -9.87897e-16 0)
(-5.46466e-21 -9.87898e-16 0)
(-5.82219e-21 -9.87898e-16 0)
(-6.13737e-21 -9.87898e-16 0)
(-6.40749e-21 -9.87898e-16 0)
(-6.63006e-21 -9.87898e-16 0)
(-6.80293e-21 -9.87898e-16 0)
(-6.92424e-21 -9.87898e-16 0)
(-6.99248e-21 -9.87898e-16 0)
(-7.00654e-21 -9.87899e-16 0)
(-6.96568e-21 -9.87899e-16 0)
(-6.86961e-21 -9.87899e-16 0)
(-6.71848e-21 -9.87899e-16 0)
(-6.51293e-21 -9.87899e-16 0)
(-6.25404e-21 -9.87899e-16 0)
(-5.94341e-21 -9.87899e-16 0)
(-5.58314e-21 -9.87899e-16 0)
(-5.1758e-21 -9.879e-16 0)
(-4.72445e-21 -9.879e-16 0)
(-4.23261e-21 -9.879e-16 0)
(-3.70423e-21 -9.879e-16 0)
(-3.14369e-21 -9.879e-16 0)
(-2.55568e-21 -9.879e-16 0)
(-2.1188e-21 -9.879e-16 0)
(-1.84382e-21 -9.879e-16 0)
(-1.56563e-21 -9.879e-16 0)
(-1.28471e-21 -9.879e-16 0)
(-1.00156e-21 -9.879e-16 0)
(-7.16649e-22 -9.879e-16 0)
(-4.30491e-22 -9.879e-16 0)
(-1.43581e-22 -9.879e-16 0)
(1.43581e-22 -9.879e-16 0)
(4.30491e-22 -9.879e-16 0)
(7.16649e-22 -9.879e-16 0)
(1.00156e-21 -9.879e-16 0)
(1.28471e-21 -9.879e-16 0)
(1.56563e-21 -9.879e-16 0)
(1.84382e-21 -9.879e-16 0)
(2.1188e-21 -9.879e-16 0)
(2.55568e-21 -9.879e-16 0)
(3.14369e-21 -9.879e-16 0)
(3.70423e-21 -9.879e-16 0)
(4.23261e-21 -9.879e-16 0)
(4.72445e-21 -9.879e-16 0)
(5.1758e-21 -9.879e-16 0)
(5.58314e-21 -9.87899e-16 0)
(5.94341e-21 -9.87899e-16 0)
(6.25404e-21 -9.87899e-16 0)
(6.51293e-21 -9.87899e-16 0)
(6.71848e-21 -9.87899e-16 0)
(6.86961e-21 -9.87899e-16 0)
(6.96568e-21 -9.87899e-16 0)
(7.00654e-21 -9.87899e-16 0)
(6.99248e-21 -9.87898e-16 0)
(6.92424e-21 -9.87898e-16 0)
(6.80293e-21 -9.87898e-16 0)
(6.63006e-21 -9.87898e-16 0)
(6.40749e-21 -9.87898e-16 0)
(6.13737e-21 -9.87898e-16 0)
(5.82219e-21 -9.87898e-16 0)
(5.46466e-21 -9.87898e-16 0)
(5.06775e-21 -9.87897e-16 0)
(4.63463e-21 -9.87897e-16 0)
(4.16866e-21 -9.87897e-16 0)
(3.67334e-21 -9.87897e-16 0)
(3.15233e-21 -9.87897e-16 0)
(2.6094e-21 -9.87897e-16 0)
(2.04841e-21 -9.87897e-16 0)
(1.47329e-21 -9.87897e-16 0)
(8.88035e-22 -9.87897e-16 0)
(2.9669e-22 -9.87897e-16 0)
(-2.99144e-22 -9.87897e-16 0)
(-8.95387e-22 -9.87897e-16 0)
(-1.4855e-21 -9.87897e-16 0)
(-2.06544e-21 -9.87897e-16 0)
(-2.63118e-21 -9.87897e-16 0)
(-3.17876e-21 -9.87897e-16 0)
(-3.7043e-21 -9.87897e-16 0)
(-4.20401e-21 -9.87897e-16 0)
(-4.6742e-21 -9.87897e-16 0)
(-5.11135e-21 -9.87897e-16 0)
(-5.51205e-21 -9.87897e-16 0)
(-5.87312e-21 -9.87898e-16 0)
(-6.19156e-21 -9.87898e-16 0)
(-6.4646e-21 -9.87898e-16 0)
(-6.68975e-21 -9.87898e-16 0)
(-6.86481e-21 -9.87898e-16 0)
(-6.98789e-21 -9.87898e-16 0)
(-7.05744e-21 -9.87898e-16 0)
(-7.07232e-21 -9.87899e-16 0)
(-7.03178e-21 -9.87899e-16 0)
(-6.93548e-21 -9.87899e-16 0)
(-6.78357e-21 -9.87899e-16 0)
(-6.57666e-21 -9.87899e-16 0)
(-6.31583e-21 -9.87899e-16 0)
(-6.00267e-21 -9.87899e-16 0)
(-5.63929e-21 -9.879e-16 0)
(-5.22828e-21 -9.879e-16 0)
(-4.7727e-21 -9.879e-16 0)
(-4.27613e-21 -9.879e-16 0)
(-3.74255e-21 -9.879e-16 0)
(-3.17637e-21 -9.879e-16 0)
(-2.58236e-21 -9.879e-16 0)
(-2.14098e-21 -9.879e-16 0)
(-1.86315e-21 -9.879e-16 0)
(-1.58206e-21 -9.879e-16 0)
(-1.29821e-21 -9.879e-16 0)
(-1.01208e-21 -9.879e-16 0)
(-7.24187e-22 -9.879e-16 0)
(-4.3502e-22 -9.879e-16 0)
(-1.45092e-22 -9.879e-16 0)
(1.45092e-22 -9.879e-16 0)
(4.3502e-22 -9.879e-16 0)
(7.24187e-22 -9.879e-16 0)
(1.01208e-21 -9.879e-16 0)
(1.29821e-21 -9.879e-16 0)
(1.58206e-21 -9.879e-16 0)
(1.86315e-21 -9.879e-16 0)
(2.14098e-21 -9.879e-16 0)
(2.58236e-21 -9.879e-16 0)
(3.17637e-21 -9.879e-16 0)
(3.74255e-21 -9.879e-16 0)
(4.27613e-21 -9.879e-16 0)
(4.7727e-21 -9.879e-16 0)
(5.22828e-21 -9.879e-16 0)
(5.63929e-21 -9.879e-16 0)
(6.00267e-21 -9.87899e-16 0)
(6.31583e-21 -9.87899e-16 0)
(6.57666e-21 -9.87899e-16 0)
(6.78357e-21 -9.87899e-16 0)
(6.93548e-21 -9.87899e-16 0)
(7.03178e-21 -9.87899e-16 0)
(7.07232e-21 -9.87899e-16 0)
(7.05744e-21 -9.87898e-16 0)
(6.98789e-21 -9.87898e-16 0)
(6.86481e-21 -9.87898e-16 0)
(6.68975e-21 -9.87898e-16 0)
(6.4646e-21 -9.87898e-16 0)
(6.19156e-21 -9.87898e-16 0)
(5.87312e-21 -9.87898e-16 0)
(5.51205e-21 -9.87897e-16 0)
(5.11135e-21 -9.87897e-16 0)
(4.6742e-21 -9.87897e-16 0)
(4.20401e-21 -9.87897e-16 0)
(3.7043e-21 -9.87897e-16 0)
(3.17876e-21 -9.87897e-16 0)
(2.63118e-21 -9.87897e-16 0)
(2.06544e-21 -9.87897e-16 0)
(1.4855e-21 -9.87897e-16 0)
(8.95387e-22 -9.87897e-16 0)
(2.99144e-22 -9.87897e-16 0)
(-3.02302e-22 -9.87896e-16 0)
(-9.0485e-22 -9.87896e-16 0)
(-1.50123e-21 -9.87897e-16 0)
(-2.08737e-21 -9.87897e-16 0)
(-2.65922e-21 -9.87897e-16 0)
(-3.21279e-21 -9.87897e-16 0)
(-3.74416e-21 -9.87897e-16 0)
(-4.24952e-21 -9.87897e-16 0)
(-4.72516e-21 -9.87897e-16 0)
(-5.16749e-21 -9.87897e-16 0)
(-5.57309e-21 -9.87897e-16 0)
(-5.93873e-21 -9.87897e-16 0)
(-6.26137e-21 -9.87898e-16 0)
(-6.5382e-21 -9.87898e-16 0)
(-6.76668e-21 -9.87898e-16 0)
(-6.94457e-21 -9.87898e-16 0)
(-7.06993e-21 -9.87898e-16 0)
(-7.14119e-21 -9.87898e-16 0)
(-7.15715e-21 -9.87899e-16 0)
(-7.11702e-21 -9.87899e-16 0)
(-7.02045e-21 -9.87899e-16 0)
(-6.86754e-21 -9.87899e-16 0)
(-6.65889e-21 -9.87899e-16 0)
(-6.39556e-21 -9.87899e-16 0)
(-6.07916e-21 -9.879e-16 0)
(-5.71177e-21 -9.879e-16 0)
(-5.29602e-21 -9.879e-16 0)
(-4.83501e-21 -9.879e-16 0)
(-4.33233e-21 -9.879e-16 0)
(-3.79203e-21 -9.879e-16 0)
(-3.21857e-21 -9.879e-16 0)
(-2.61682e-21 -9.87901e-16 0)
(-2.16963e-21 -9.87901e-16 0)
(-1.88811e-21 -9.87901e-16 0)
(-1.60328e-21 -9.87901e-16 0)
(-1.31564e-21 -9.87901e-16 0)
(-1.02568e-21 -9.87901e-16 0)
(-7.33923e-22 -9.87901e-16 0)
(-4.40871e-22 -9.87901e-16 0)
(-1.47043e-22 -9.87901e-16 0)
(1.47043e-22 -9.87901e-16 0)
(4.40871e-22 -9.87901e-16 0)
(7.33923e-22 -9.87901e-16 0)
(1.02568e-21 -9.87901e-16 0)
(1.31564e-21 -9.87901e-16 0)
(1.60328e-21 -9.87901e-16 0)
(1.88811e-21 -9.87901e-16 0)
(2.16963e-21 -9.87901e-16 0)
(2.61682e-21 -9.87901e-16 0)
(3.21857e-21 -9.879e-16 0)
(3.79203e-21 -9.879e-16 0)
(4.33233e-21 -9.879e-16 0)
(4.83501e-21 -9.879e-16 0)
(5.29602e-21 -9.879e-16 0)
(5.71177e-21 -9.879e-16 0)
(6.07916e-21 -9.879e-16 0)
(6.39556e-21 -9.87899e-16 0)
(6.65889e-21 -9.87899e-16 0)
(6.86754e-21 -9.87899e-16 0)
(7.02045e-21 -9.87899e-16 0)
(7.11702e-21 -9.87899e-16 0)
(7.15715e-21 -9.87899e-16 0)
(7.14119e-21 -9.87898e-16 0)
(7.06993e-21 -9.87898e-16 0)
(6.94457e-21 -9.87898e-16 0)
(6.76668e-21 -9.87898e-16 0)
(6.5382e-21 -9.87898e-16 0)
(6.26137e-21 -9.87898e-16 0)
(5.93873e-21 -9.87897e-16 0)
(5.57309e-21 -9.87897e-16 0)
(5.16749e-21 -9.87897e-16 0)
(4.72516e-21 -9.87897e-16 0)
(4.24952e-21 -9.87897e-16 0)
(3.74416e-21 -9.87897e-16 0)
(3.21279e-21 -9.87897e-16 0)
(2.65922e-21 -9.87897e-16 0)
(2.08737e-21 -9.87897e-16 0)
(1.50123e-21 -9.87897e-16 0)
(9.0485e-22 -9.87896e-16 0)
(3.02302e-22 -9.87896e-16 0)
(-3.06333e-22 -9.87896e-16 0)
(-9.16925e-22 -9.87896e-16 0)
(-1.52131e-21 -9.87896e-16 0)
(-2.11536e-21 -9.87896e-16 0)
(-2.695e-21 -9.87896e-16 0)
(-3.25621e-21 -9.87896e-16 0)
(-3.79504e-21 -9.87896e-16 0)
(-4.30763e-21 -9.87897e-16 0)
(-4.79021e-21 -9.87897e-16 0)
(-5.23917e-21 -9.87897e-16 0)
(-5.65104e-21 -9.87897e-16 0)
(-6.02252e-21 -9.87897e-16 0)
(-6.35053e-21 -9.87897e-16 0)
(-6.63221e-21 -9.87898e-16 0)
(-6.86497e-21 -9.87898e-16 0)
(-7.0465e-21 -9.87898e-16 0)
(-7.1748e-21 -9.87898e-16 0)
(-7.24826e-21 -9.87898e-16 0)
(-7.26562e-21 -9.87899e-16 0)
(-7.22605e-21 -9.87899e-16 0)
(-7.12914e-21 -9.87899e-16 0)
(-6.97498e-21 -9.87899e-16 0)
(-6.76411e-21 -9.87899e-16 0)
(-6.49761e-21 -9.879e-16 0)
(-6.17707e-21 -9.879e-16 0)
(-5.80457e-21 -9.879e-16 0)
(-5.38277e-21 -9.879e-16 0)
(-4.9148e-21 -9.879e-16 0)
(-4.40431e-21 -9.87901e-16 0)
(-3.85541e-21 -9.87901e-16 0)
(-3.27265e-21 -9.87901e-16 0)
(-2.66098e-21 -9.87901e-16 0)
(-2.20634e-21 -9.87901e-16 0)
(-1.9201e-21 -9.87901e-16 0)
(-1.63048e-21 -9.87901e-16 0)
(-1.33798e-21 -9.87901e-16 0)
(-1.04311e-21 -9.87901e-16 0)
(-7.46401e-22 -9.87901e-16 0)
(-4.4837e-22 -9.87901e-16 0)
(-1.49545e-22 -9.87901e-16 0)
(1.49545e-22 -9.87901e-16 0)
(4.4837e-22 -9.87901e-16 0)
(7.46401e-22 -9.87901e-16 0)
(1.04311e-21 -9.87901e-16 0)
(1.33798e-21 -9.87901e-16 0)
(1.63048e-21 -9.87901e-16 0)
(1.9201e-21 -9.87901e-16 0)
(2.20634e-21 -9.87901e-16 0)
(2.66098e-21 -9.87901e-16 0)
(3.27265e-21 -9.87901e-16 0)
(3.85541e-21 -9.87901e-16 0)
(4.40431e-21 -9.87901e-16 0)
(4.9148e-21 -9.879e-16 0)
(5.38277e-21 -9.879e-16 0)
(5.80457e-21 -9.879e-16 0)
(6.17707e-21 -9.879e-16 0)
(6.49761e-21 -9.879e-16 0)
(6.76411e-21 -9.87899e-16 0)
(6.97498e-21 -9.87899e-16 0)
(7.12914e-21 -9.87899e-16 0)
(7.22605e-21 -9.87899e-16 0)
(7.26562e-21 -9.87899e-16 0)
(7.24826e-21 -9.87898e-16 0)
(7.1748e-21 -9.87898e-16 0)
(7.0465e-21 -9.87898e-16 0)
(6.86497e-21 -9.87898e-16 0)
(6.63221e-21 -9.87898e-16 0)
(6.35053e-21 -9.87897e-16 0)
(6.02252e-21 -9.87897e-16 0)
(5.65104e-21 -9.87897e-16 0)
(5.23917e-21 -9.87897e-16 0)
(4.79021e-21 -9.87897e-16 0)
(4.30763e-21 -9.87897e-16 0)
(3.79504e-21 -9.87896e-16 0)
(3.25621e-21 -9.87896e-16 0)
(2.695e-21 -9.87896e-16 0)
(2.11536e-21 -9.87896e-16 0)
(1.52131e-21 -9.87896e-16 0)
(9.16925e-22 -9.87896e-16 0)
(3.06333e-22 -9.87896e-16 0)
(-3.11439e-22 -9.87896e-16 0)
(-9.32225e-22 -9.87896e-16 0)
(-1.54674e-21 -9.87896e-16 0)
(-2.15082e-21 -9.87896e-16 0)
(-2.74035e-21 -9.87896e-16 0)
(-3.31125e-21 -9.87896e-16 0)
(-3.85953e-21 -9.87896e-16 0)
(-4.38128e-21 -9.87896e-16 0)
(-4.87268e-21 -9.87896e-16 0)
(-5.33006e-21 -9.87897e-16 0)
(-5.74989e-21 -9.87897e-16 0)
(-6.12881e-21 -9.87897e-16 0)
(-6.46366e-21 -9.87897e-16 0)
(-6.75153e-21 -9.87897e-16 0)
(-6.98973e-21 -9.87898e-16 0)
(-7.1759e-21 -9.87898e-16 0)
(-7.30798e-21 -9.87898e-16 0)
(-7.38426e-21 -9.87898e-16 0)
(-7.40343e-21 -9.87899e-16 0)
(-7.3646e-21 -9.87899e-16 0)
(-7.2673e-21 -9.87899e-16 0)
(-7.11158e-21 -9.87899e-16 0)
(-6.89794e-21 -9.879e-16 0)
(-6.62744e-21 -9.879e-16 0)
(-6.30164e-21 -9.879e-16 0)
(-5.92268e-21 -9.879e-16 0)
(-5.4932e-21 -9.879e-16 0)
(-5.0164e-21 -9.87901e-16 0)
(-4.49598e-21 -9.87901e-16 0)
(-3.93614e-21 -9.87901e-16 0)
(-3.34154e-21 -9.87901e-16 0)
(-2.71723e-21 -9.87901e-16 0)
(-2.25311e-21 -9.87901e-16 0)
(-1.96086e-21 -9.87901e-16 0)
(-1.66513e-21 -9.87901e-16 0)
(-1.36644e-21 -9.87901e-16 0)
(-1.06532e-21 -9.87901e-16 0)
(-7.623e-22 -9.87901e-16 0)
(-4.57924e-22 -9.87901e-16 0)
(-1.52732e-22 -9.87901e-16 0)
(1.52732e-22 -9.87901e-16 0)
(4.57924e-22 -9.87901e-16 0)
(7.623e-22 -9.87901e-16 0)
(1.06532e-21 -9.87901e-16 0)
(1.36644e-21 -9.87901e-16 0)
(1.66513e-21 -9.87901e-16 0)