/*--------------------------------*- C++ -*----------------------------------*\
  =========                 |
  \\      /  F ield         | OpenFOAM: The Open Source CFD Toolbox
   \\    /   O peration     | Website:  https://openfoam.org
    \\  /    A nd           | Version:  10
     \\/     M anipulation  |
\*---------------------------------------------------------------------------*/
FoamFile
{
    format      ascii;
    class       volScalarField;
    location    "17400";
    object      p;
}
// * * * * * * * * * * * * * * * * * * * * * * * * * * * * * * * * * * * * * //

dimensions      [1 -1 -2 0 0 0 0];

internalField   nonuniform List<scalar> 
6400
(
111.612
111.635
111.683
111.757
111.86
111.996
112.172
112.4
112.7
114.165
341.942
557.309
738.17
946.439
1150.89
1350.77
1546.28
1733.46
1918.35
2110.28
2302
2491.04
2674.08
2853.53
3030.55
3204.72
3376.55
3545.96
3711.97
3875.08
4035.34
4191.13
4297.14
4359.24
4417.06
4469.21
4514.02
4549.73
4574.68
4587.52
4587.52
4574.68
4549.73
4514.02
4469.21
4417.06
4359.24
4297.14
4191.13
4035.34
3875.08
3711.97
3545.96
3376.55
3204.72
3030.55
2853.53
2674.08
2491.04
2302
2110.28
1918.35
1733.46
1546.28
1350.77
1150.89
946.439
738.17
557.309
341.942
114.165
112.7
112.4
112.172
111.996
111.86
111.757
111.683
111.635
111.612
111.317
111.34
111.388
111.462
111.565
111.7
111.875
112.103
112.41
113.004
113.263
265.028
442.88
652.545
857.048
1056.93
1252.63
1439.55
1624.03
1816.28
2008.11
2197.31
2380.24
2559.64
2736.68
2910.82
3082.66
3252.11
3418.11
3581.21
3741.55
3897.54
4003.86
4066.2
4124.34
4176.86
4222.07
4258.16
4283.4
4296.41
4296.41
4283.4
4258.16
4222.07
4176.86
4124.34
4066.2
4003.86
3897.54
3741.55
3581.21
3418.11
3252.11
3082.66
2910.82
2736.68
2559.64
2380.24
2197.31
2008.11
1816.28
1624.03
1439.55
1252.63
1056.93
857.048
652.545
442.88
265.028
113.263
113.004
112.41
112.103
111.875
111.7
111.565
111.462
111.388
111.34
111.317
110.992
111.015
111.063
111.137
111.239
111.373
111.548
111.773
112.077
112.573
112.784
112.863
116.921
330.342
534.903
734.812
930.982
1117.27
1300.77
1493.81
1685.89
1875.45
2058.12
2237.41
2414.49
2588.59
2760.44
2930
3095.94
3259.04
3419.54
3575.99
3683.01
3745.93
3804.81
3858.2
3904.33
3941.3
3967.25
3980.65
3980.65
3967.25
3941.3
3904.33
3858.2
3804.81
3745.93
3683.01
3575.99
3419.54
3259.04
3095.94
2930
2760.44
2588.59
2414.49
2237.41
2058.12
1875.45
1685.89
1493.81
1300.77
1117.27
930.982
734.812
534.903
330.342
116.921
112.863
112.784
112.573
112.077
111.773
111.548
111.373
111.239
111.137
111.063
111.015
110.992
110.634
110.658
110.705
110.778
110.879
111.013
111.185
111.406
111.7
112.118
112.34
112.479
112.964
112.803
181.634
381.656
578.794
763.91
945.547
1140.13
1332.61
1522.85
1705.02
1884.1
2061.3
2235.29
2407.15
2576.92
2742.75
2905.83
3066.61
3223.84
3332.07
3396
3456.16
3511.07
3558.86
3597.41
3624.62
3638.74
3638.74
3624.62
3597.41
3558.86
3511.07
3456.16
3396
3332.07
3223.84
3066.61
2905.83
2742.75
2576.92
2407.15
2235.29
2061.3
1884.1
1705.02
1522.85
1332.61
1140.13
945.547
763.91
578.794
381.656
181.634
112.803
112.964
112.479
112.34
112.118
111.7
111.406
111.185
111.013
110.879
110.778
110.705
110.658
110.634
110.24
110.263
110.31
110.383
110.483
110.615
110.783
110.999
111.277
111.633
111.86
112.032
112.391
112.345
112.512
112.437
195.201
376.534
554.814
752.308
945.239
1136.72
1317.94
1496.71
1674.14
1847.94
2019.81
2189.96
2355.58
2518.61
2679.78
2838.18
2948.22
3013.69
3075.86
3133.19
3183.62
3224.75
3254.06
3269.37
3269.37
3254.06
3224.75
3183.62
3133.19
3075.86
3013.69
2948.22
2838.18
2679.78
2518.61
2355.58
2189.96
2019.81
1847.94
1674.14
1496.71
1317.94
1136.72
945.239
752.308
554.814
376.534
195.201
112.437
112.512
112.345
112.391
112.032
111.86
111.633
111.277
110.999
110.783
110.615
110.483
110.383
110.31
110.263
110.24
109.806
109.829
109.875
109.947
110.045
110.174
110.339
110.546
110.805
111.114
111.338
111.525
111.8
111.826
111.947
111.922
111.992
111.961
124.013
327.239
520.437
714.153
893.577
1071.9
1249.81
1423.24
1595.12
1765.94
1931.16
2094.05
2255.77
2415.76
2528.31
2595.96
2661.09
2722.08
2776.57
2821.71
2854.37
2871.61
2871.61
2854.37
2821.71
2776.57
2722.08
2661.09
2595.96
2528.31
2415.76
2255.77
2094.05
1931.16
1765.94
1595.12
1423.24
1249.81
1071.9
893.577
714.153
520.437
327.239
124.013
111.961
111.992
111.922
111.947
111.826
111.8
111.525
111.338
111.114
110.805
110.546
110.339
110.174
110.045
109.947
109.875
109.829
109.806
109.327
109.349
109.395
109.465
109.562
109.687
109.846
110.044
110.283
110.553
110.77
110.958
111.178
111.246
111.343
111.355
111.412
111.442
111.789
111.407
111.735
253.622
428.265
605.967
784.872
957.566
1129.41
1301.49
1465.89
1628.53
1790.91
1952.93
2068.72
2139.32
2208.61
2275
2335.59
2386.93
2424.98
2445.37
2445.37
2424.98
2386.93
2335.59
2275
2208.61
2139.32
2068.72
1952.93
1790.91
1628.53
1465.89
1301.49
1129.41
957.566
784.872
605.967
428.265
253.622
111.735
111.407
111.789
111.442
111.412
111.355
111.343
111.246
111.178
110.958
110.77
110.553
110.283
110.044
109.846
109.687
109.562
109.465
109.395
109.349
109.327
108.798
108.82
108.865
108.934
109.028
109.149
109.301
109.487
109.706
109.945
110.15
110.333
110.517
110.606
110.692
110.726
110.779
110.831
111.021
110.812
110.805
110.54
110.49
111.625
276.299
446.933
618.553
793.128
955.82
1117.96
1281.09
1445.57
1565.16
1639.49
1714.48
1788.81
1858.48
1919.46
1966.4
1992.15
1992.15
1966.4
1919.46
1858.48
1788.81
1714.48
1639.49
1565.16
1445.57
1281.09
1117.96
955.82
793.128
618.553
446.933
276.299
111.625
110.49
110.54
110.805
110.812
111.021
110.831
110.779
110.726
110.692
110.606
110.517
110.333
110.15
109.945
109.706
109.487
109.301
109.149
109.028
108.934
108.865
108.82
108.798
108.215
108.237
108.28
108.347
108.437
108.554
108.698
108.871
109.071
109.282
109.474
109.647
109.806
109.905
109.986
110.033
110.085
110.14
110.241
110.127
110.08
109.911
109.868
109.994
109.7
109.633
110.081
239.669
396.623
557.822
721.747
889.007
1012.38
1090.92
1173.33
1259.72
1342.73
1418.75
1481.35
1516.76
1516.76
1481.35
1418.75
1342.73
1259.72
1173.33
1090.92
1012.38
889.007
721.747
557.822
396.623
239.669
110.081
109.633
109.7
109.994
109.868
109.911
110.08
110.127
110.241
110.14
110.085
110.033
109.986
109.905
109.806
109.647
109.474
109.282
109.071
108.871
108.698
108.554
108.437
108.347
108.28
108.237
108.215
107.572
107.593
107.635
107.698
107.785
107.896
108.031
108.191
108.371
108.56
108.736
108.896
109.039
109.14
109.219
109.273
109.324
109.373
109.427
109.363
109.308
109.197
109.154
109.183
109.012
108.953
109.02
108.797
108.705
108.773
116.916
278.962
404.346
486.428
577.143
684.323
785.228
883.913
977.246
1031.41
1031.41
977.246
883.913
785.228
684.323
577.143
486.428
404.346
278.962
116.916
108.773
108.705
108.797
109.02
108.953
109.012
109.183
109.154
109.197
109.308
109.363
109.427
109.373
109.324
109.273
109.219
109.14
109.039
108.896
108.736
108.56
108.371
108.191
108.031
107.896
107.785
107.698
107.635
107.593
107.572
106.861
106.881
106.921
106.982
107.064
107.168
107.294
107.44
107.602
107.771
107.931
108.078
108.206
108.305
108.382
108.439
108.488
108.531
108.56
108.524
108.474
108.397
108.354
108.338
108.233
108.178
108.174
108.044
107.979
108.025
108.199
107.899
107.842
107.851
107.942
126.926
196.709
315.291
476.869
567.493
567.493
476.869
315.291
196.709
126.926
107.942
107.851
107.842
107.899
108.199
108.025
107.979
108.044
108.174
108.178
108.233
108.338
108.354
108.397
108.474
108.524
108.56
108.531
108.488
108.439
108.382
108.305
108.206
108.078
107.931
107.771
107.602
107.44
107.294
107.168
107.064
106.982
106.921
106.881
106.861
106.076
106.095
106.133
106.19
106.267
106.364
106.479
106.612
106.757
106.907
107.051
107.184
107.301
107.395
107.47
107.528
107.574
107.61
107.628
107.606
107.566
107.511
107.47
107.436
107.364
107.313
107.281
107.2
107.153
107.171
107.225
107.075
107.027
107.015
107.009
106.975
106.961
107.398
139.777
220.544
220.544
139.777
107.398
106.961
106.975
107.009
107.015
107.027
107.075
107.225
107.171
107.153
107.2
107.281
107.313
107.364
107.436
107.47
107.511
107.566
107.606
107.628
107.61
107.574
107.528
107.47
107.395
107.301
107.184
107.051
106.907
106.757
106.612
106.479
106.364
106.267
106.19
106.133
106.095
106.076
105.209
105.227
105.262
105.316
105.387
105.475
105.581
105.7
105.829
105.962
106.09
106.21
106.316
106.404
106.475
106.531
106.575
106.606
106.62
106.606
106.576
106.535
106.497
106.459
106.405
106.358
106.319
106.262
106.225
106.221
106.224
106.144
106.106
106.089
106.075
106.061
106.054
106.068
106.633
120.847
120.847
106.633
106.068
106.054
106.061
106.075
106.089
106.106
106.144
106.224
106.221
106.225
106.262
106.319
106.358
106.405
106.459
106.497
106.535
106.576
106.606
106.62
106.606
106.575
106.531
106.475
106.404
106.316
106.21
106.09
105.962
105.829
105.7
105.581
105.475
105.387
105.316
105.262
105.227
105.209
104.251
104.267
104.3
104.349
104.414
104.495
104.589
104.695
104.809
104.926
105.04
105.147
105.242
105.323
105.39
105.444
105.484
105.512
105.524
105.516
105.494
105.463
105.429
105.393
105.35
105.308
105.269
105.226
105.194
105.177
105.16
105.111
105.081
105.066
105.053
105.043
105.036
105.034
105.032
109.351
109.351
105.032
105.034
105.036
105.043
105.053
105.066
105.081
105.111
105.16
105.177
105.194
105.226
105.269
105.308
105.35
105.393
105.429
105.463
105.494
105.516
105.524
105.512
105.484
105.444
105.39
105.323
105.242
105.147
105.04
104.926
104.809
104.695
104.589
104.495
104.414
104.349
104.3
104.267
104.251
103.192
103.207
103.237
103.281
103.34
103.412
103.496
103.589
103.689
103.792
103.892
103.986
104.071
104.145
104.207
104.257
104.294
104.319
104.331
104.328
104.312
104.289
104.26
104.228
104.192
104.156
104.12
104.084
104.055
104.032
104.009
103.974
103.95
103.938
103.927
103.917
103.91
103.905
103.893
106.326
106.326
103.893
103.905
103.91
103.917
103.927
103.938
103.95
103.974
104.009
104.032
104.055
104.084
104.12
104.156
104.192
104.228
104.26
104.289
104.312
104.328
104.331
104.319
104.294
104.257
104.207
104.145
104.071
103.986
103.892
103.792
103.689
103.589
103.496
103.412
103.34
103.281
103.237
103.207
103.192
102.022
102.036
102.062
102.102
102.154
102.218
102.291
102.373
102.46
102.548
102.636
102.718
102.794
102.86
102.916
102.961
102.996
103.019
103.031
103.031
103.021
103.003
102.98
102.953
102.922
102.891
102.86
102.829
102.801
102.777
102.753
102.725
102.706
102.695
102.686
102.677
102.67
102.665
102.653
104.667
104.667
102.653
102.665
102.67
102.677
102.686
102.695
102.706
102.725
102.753
102.777
102.801
102.829
102.86
102.891
102.922
102.953
102.98
103.003
103.021
103.031
103.031
103.019
102.996
102.961
102.916
102.86
102.794
102.718
102.636
102.548
102.46
102.373
102.291
102.218
102.154
102.102
102.062
102.036
102.022
100.648
100.66
100.683
100.718
100.763
100.818
100.881
100.95
101.024
101.099
101.174
101.245
101.31
101.368
101.418
101.459
101.49
101.512
101.524
101.526
101.52
101.507
101.489
101.467
101.442
101.416
101.389
101.362
101.337
101.313
101.29
101.267
101.251
101.242
101.233
101.226
101.219
101.214
101.202
103.161
103.161
101.202
101.214
101.219
101.226
101.233
101.242
101.251
101.267
101.29
101.313
101.337
101.362
101.389
101.416
101.442
101.467
101.489
101.507
101.52
101.526
101.524
101.512
101.49
101.459
101.418
101.368
101.31
101.245
101.174
101.099
101.024
100.95
100.881
100.818
100.763
100.718
100.683
100.66
100.648
99.1197
99.1298
99.1499
99.1795
99.2181
99.2646
99.3179
99.3765
99.4385
99.502
99.5648
99.6249
99.6808
99.7309
99.7743
99.8102
99.8383
99.8583
99.8702
99.8743
99.8714
99.8624
99.8486
99.8311
99.8108
99.7887
99.7658
99.7427
99.7202
99.6984
99.6771
99.6564
99.6426
99.6346
99.627
99.6201
99.6137
99.608
99.5962
101.597
101.597
99.5962
99.608
99.6137
99.6201
99.627
99.6346
99.6426
99.6564
99.6771
99.6984
99.7202
99.7427
99.7658
99.7887
99.8108
99.8311
99.8486
99.8624
99.8714
99.8743
99.8702
99.8583
99.8383
99.8102
99.7743
99.7309
99.6808
99.6249
99.5648
99.502
99.4385
99.3765
99.3179
99.2646
99.2181
99.1795
99.1499
99.1298
99.1197
97.5815
97.5902
97.6074
97.6326
97.6654
97.7048
97.7499
97.7994
97.8517
97.9052
97.9583
98.0095
98.0572
98.1004
98.1381
98.1697
98.1948
98.2131
98.2246
98.2296
98.2287
98.2225
98.212
98.198
98.1813
98.1627
98.143
98.1228
98.1027
98.0828
98.0634
98.0448
98.0322
98.0248
98.0178
98.0112
98.0051
97.9993
97.9876
100.048
100.048
97.9876
97.9993
98.0051
98.0112
98.0178
98.0248
98.0322
98.0448
98.0634
98.0828
98.1027
98.1228
98.143
98.1627
98.1813
98.198
98.212
98.2225
98.2287
98.2296
98.2246
98.2131
98.1948
98.1697
98.1381
98.1004
98.0572
98.0095
97.9583
97.9052
97.8517
97.7994
97.7499
97.7048
97.6654
97.6326
97.6074
97.5902
97.5815
96.0347
96.0421
96.0567
96.0782
96.106
96.1395
96.1776
96.2194
96.2636
96.3088
96.3539
96.3974
96.4382
96.4754
96.5081
96.5358
96.558
96.5746
96.5854
96.5909
96.5912
96.587
96.5788
96.5675
96.5536
96.5378
96.5207
96.5029
96.4848
96.4667
96.4489
96.4318
96.4201
96.4132
96.4065
96.4001
96.3941
96.3883
96.3766
98.504
98.504
96.3766
96.3883
96.3941
96.4001
96.4065
96.4132
96.4201
96.4318
96.4489
96.4667
96.4848
96.5029
96.5207
96.5378
96.5536
96.5675
96.5788
96.587
96.5912
96.5909
96.5854
96.5746
96.558
96.5358
96.5081
96.4754
96.4382
96.3974
96.3539
96.3088
96.2636
96.2194
96.1776
96.1395
96.106
96.0782
96.0567
96.0421
96.0347
94.4804
94.4867
94.4992
94.5174
94.541
94.5694
94.6016
94.637
94.6744
94.7127
94.7509
94.788
94.8229
94.8549
94.8832
94.9073
94.9269
94.9417
94.9518
94.9572
94.9582
94.9553
94.9489
94.9396
94.9278
94.9142
94.8992
94.8833
94.8669
94.8503
94.8339
94.8178
94.8068
94.8001
94.7937
94.7874
94.7814
94.7757
94.764
96.9643
96.9643
94.764
94.7757
94.7814
94.7874
94.7937
94.8001
94.8068
94.8178
94.8339
94.8503
94.8669
94.8833
94.8992
94.9142
94.9278
94.9396
94.9489
94.9553
94.9582
94.9572
94.9518
94.9417
94.9269
94.9073
94.8832
94.8549
94.8229
94.788
94.7509
94.7127
94.6744
94.637
94.6016
94.5694
94.541
94.5174
94.4992
94.4867
94.4804
92.9199
92.9253
92.9358
92.9513
92.9713
92.9953
93.0226
93.0526
93.0842
93.1167
93.1492
93.1807
93.2106
93.238
93.2624
93.2833
93.3005
93.3136
93.3227
93.3279
93.3293
93.3272
93.322
93.3141
93.3039
93.2919
93.2786
93.2642
93.2492
93.2338
93.2184
93.2032
93.1925
93.1861
93.1798
93.1736
93.1676
93.1618
93.1501
95.43
95.43
93.1501
93.1618
93.1676
93.1736
93.1798
93.1861
93.1925
93.2032
93.2184
93.2338
93.2492
93.2642
93.2786
93.2919
93.3039
93.3141
93.322
93.3272
93.3293
93.3279
93.3227
93.3136
93.3005
93.2833
93.2624
93.238
93.2106
93.1807
93.1492
93.1167
93.0842
93.0526
93.0226
92.9953
92.9713
92.9513
92.9358
92.9253
92.9199
91.354
91.3586
91.3675
91.3806
91.3976
91.4179
91.4411
91.4664
91.4932
91.5208
91.5483
91.5752
91.6006
91.6241
91.6451
91.6632
91.6781
91.6896
91.6977
91.7024
91.7038
91.7021
91.6977
91.6908
91.6818
91.6711
91.659
91.6458
91.6318
91.6174
91.6027
91.5881
91.5777
91.5714
91.5651
91.559
91.5529
91.547
91.5353
93.9022
93.9022
91.5353
91.547
91.5529
91.559
91.5651
91.5714
91.5777
91.5881
91.6027
91.6174
91.6318
91.6458
91.659
91.6711
91.6818
91.6908
91.6977
91.7021
91.7038
91.7024
91.6977
91.6896
91.6781
91.6632
91.6451
91.6241
91.6006
91.5752
91.5483
91.5208
91.4932
91.4664
91.4411
91.4179
91.3976
91.3806
91.3675
91.3586
91.354
89.7836
89.7875
89.795
89.8062
89.8205
89.8377
89.8573
89.8787
89.9014
89.9248
89.9482
89.971
89.9927
90.0127
90.0307
90.0462
90.0591
90.069
90.076
90.0801
90.0813
90.0798
90.0759
90.0696
90.0615
90.0516
90.0404
90.0281
90.0149
90.0011
89.987
89.9728
89.9625
89.9562
89.95
89.9438
89.9377
89.9317
89.9199
92.3825
92.3825
89.9199
89.9317
89.9377
89.9438
89.95
89.9562
89.9625
89.9728
89.987
90.0011
90.0149
90.0281
90.0404
90.0516
90.0615
90.0696
90.0759
90.0798
90.0813
90.0801
90.076
90.069
90.0591
90.0462
90.0307
90.0127
89.9927
89.971
89.9482
89.9248
89.9014
89.8787
89.8573
89.8377
89.8205
89.8062
89.795
89.7875
89.7836
88.2094
88.2126
88.219
88.2284
88.2406
88.2551
88.2717
88.2898
88.309
88.3288
88.3486
88.368
88.3864
88.4034
88.4187
88.432
88.4429
88.4514
88.4573
88.4607
88.4616
88.46
88.4563
88.4505
88.4428
88.4336
88.4229
88.4112
88.3986
88.3852
88.3715
88.3574
88.3472
88.3409
88.3346
88.3283
88.3221
88.3159
88.3041
90.8725
90.8725
88.3041
88.3159
88.3221
88.3283
88.3346
88.3409
88.3472
88.3574
88.3715
88.3852
88.3986
88.4112
88.4229
88.4336
88.4428
88.4505
88.4563
88.46
88.4616
88.4607
88.4573
88.4514
88.4429
88.432
88.4187
88.4034
88.3864
88.368
88.3486
88.3288
88.309
88.2898
88.2717
88.2551
88.2406
88.2284
88.219
88.2126
88.2094
86.6319
86.6346
86.64
86.648
86.6582
86.6705
86.6845
86.6998
86.7161
86.7328
86.7495
86.7659
86.7815
86.7959
86.8088
86.82
86.8292
86.8363
86.8412
86.8438
86.8442
86.8425
86.8387
86.8331
86.8257
86.8168
86.8066
86.7952
86.7829
86.7698
86.7562
86.7421
86.7318
86.7254
86.719
86.7126
86.7063
86.6999
86.6879
89.3739
89.3739
86.6879
86.6999
86.7063
86.7126
86.719
86.7254
86.7318
86.7421
86.7562
86.7698
86.7829
86.7952
86.8066
86.8168
86.8257
86.8331
86.8387
86.8425
86.8442
86.8438
86.8412
86.8363
86.8292
86.82
86.8088
86.7959
86.7815
86.7659
86.7495
86.7328
86.7161
86.6998
86.6845
86.6705
86.6582
86.648
86.64
86.6346
86.6319
85.0516
85.0539
85.0585
85.0652
85.0739
85.0842
85.096
85.1089
85.1226
85.1367
85.1508
85.1646
85.1777
85.1898
85.2007
85.21
85.2176
85.2234
85.2273
85.2291
85.229
85.227
85.2231
85.2175
85.2102
85.2015
85.1914
85.1802
85.168
85.155
85.1413
85.1271
85.1166
85.1101
85.1035
85.0969
85.0903
85.0837
85.0715
87.8893
87.8893
85.0715
85.0837
85.0903
85.0969
85.1035
85.1101
85.1166
85.1271
85.1413
85.155
85.168
85.1802
85.1914
85.2015
85.2102
85.2175
85.2231
85.227
85.229
85.2291
85.2273
85.2234
85.2176
85.21
85.2007
85.1898
85.1777
85.1646
85.1508
85.1367
85.1226
85.1089
85.096
85.0842
85.0739
85.0652
85.0585
85.0539
85.0516
83.4691
83.471
83.4749
83.4805
83.4878
83.4965
83.5064
83.5173
83.5287
83.5406
83.5524
83.564
83.5749
83.585
83.594
83.6017
83.6079
83.6125
83.6153
83.6164
83.6158
83.6133
83.6092
83.6034
83.5961
83.5874
83.5774
83.5662
83.554
83.5408
83.5269
83.5124
83.5016
83.4949
83.4881
83.4813
83.4744
83.4675
83.455
86.4213
86.4213
83.455
83.4675
83.4744
83.4813
83.4881
83.4949
83.5016
83.5124
83.5269
83.5408
83.554
83.5662
83.5774
83.5874
83.5961
83.6034
83.6092
83.6133
83.6158
83.6164
83.6153
83.6125
83.6079
83.6017
83.594
83.585
83.5749
83.564
83.5524
83.5406
83.5287
83.5173
83.5064
83.4965
83.4878
83.4805
83.4749
83.471
83.4691
81.8845
81.8862
81.8894
81.8941
81.9002
81.9076
81.9159
81.9249
81.9346
81.9444
81.9543
81.9639
81.973
81.9813
81.9887
81.9949
81.9998
82.0032
82.0052
82.0055
82.0042
82.0014
81.9969
81.9909
81.9835
81.9747
81.9645
81.9532
81.9408
81.9274
81.9132
81.8982
81.887
81.88
81.8729
81.8658
81.8586
81.8514
81.8385
84.9738
84.9738
81.8385
81.8514
81.8586
81.8658
81.8729
81.88
81.887
81.8982
81.9132
81.9274
81.9408
81.9532
81.9645
81.9747
81.9835
81.9909
81.9969
82.0014
82.0042
82.0055
82.0052
82.0032
81.9998
81.9949
81.9887
81.9813
81.973
81.9639
81.9543
81.9444
81.9346
81.9249
81.9159
81.9076
81.9002
81.8941
81.8894
81.8862
81.8845
80.2984
80.2998
80.3025
80.3064
80.3115
80.3176
80.3245
80.3321
80.3401
80.3483
80.3565
80.3644
80.3718
80.3786
80.3845
80.3894
80.3931
80.3955
80.3966
80.3962
80.3943
80.391
80.3862
80.3799
80.3722
80.3632
80.3529
80.3413
80.3286
80.3149
80.3001
80.2846
80.2728
80.2655
80.258
80.2505
80.2429
80.2353
80.222
83.5511
83.5511
80.222
80.2353
80.2429
80.2505
80.258
80.2655
80.2728
80.2846
80.3001
80.3149
80.3286
80.3413
80.3529
80.3632
80.3722
80.3799
80.3862
80.391
80.3943
80.3962
80.3966
80.3955
80.3931
80.3894
80.3845
80.3786
80.3718
80.3644
80.3565
80.3483
80.3401
80.3321
80.3245
80.3176
80.3115
80.3064
80.3025
80.2998
80.2984
78.7109
78.712
78.7143
78.7175
78.7218
78.7268
78.7326
78.7389
78.7455
78.7522
78.7589
78.7653
78.7714
78.7768
78.7814
78.7851
78.7877
78.7892
78.7894
78.7883
78.7859
78.7821
78.7769
78.7703
78.7623
78.753
78.7425
78.7306
78.7175
78.7033
78.6879
78.6716
78.6592
78.6514
78.6435
78.6355
78.6275
78.6193
78.6054
82.1587
82.1587
78.6054
78.6193
78.6275
78.6355
78.6435
78.6514
78.6592
78.6716
78.6879
78.7033
78.7175
78.7306
78.7425
78.753
78.7623
78.7703
78.7769
78.7821
78.7859
78.7883
78.7894
78.7892
78.7877
78.7851
78.7814
78.7768
78.7714
78.7653
78.7589
78.7522
78.7455
78.7389
78.7326
78.7268
78.7218
78.7175
78.7143
78.712
78.7109
77.1222
77.1231
77.125
77.1277
77.1312
77.1354
77.1401
77.1453
77.1506
77.1561
77.1615
77.1667
77.1715
77.1757
77.1792
77.1818
77.1835
77.1841
77.1836
77.1819
77.1789
77.1746
77.169
77.162
77.1538
77.1442
77.1333
77.1211
77.1075
77.0928
77.0767
77.0595
77.0463
77.0381
77.0296
77.021
77.0123
77.0035
76.9889
80.8038
80.8038
76.9889
77.0035
77.0123
77.021
77.0296
77.0381
77.0463
77.0595
77.0767
77.0928
77.1075
77.1211
77.1333
77.1442
77.1538
77.162
77.169
77.1746
77.1789
77.1819
77.1836
77.1841
77.1835
77.1818
77.1792
77.1757
77.1715
77.1667
77.1615
77.1561
77.1506
77.1453
77.1401
77.1354
77.1312
77.1277
77.125
77.1231
77.1222
75.5326
75.5334
75.5349
75.5371
75.54
75.5434
75.5472
75.5514
75.5558
75.5602
75.5645
75.5685
75.5722
75.5753
75.5778
75.5795
75.5803
75.5802
75.579
75.5766
75.5731
75.5684
75.5624
75.5551
75.5466
75.5367
75.5254
75.5128
75.4989
75.4835
75.4667
75.4485
75.4344
75.4255
75.4163
75.407
75.3975
75.3879
75.3725
79.4936
79.4936
75.3725
75.3879
75.3975
75.407
75.4163
75.4255
75.4344
75.4485
75.4667
75.4835
75.4989
75.5128
75.5254
75.5367
75.5466
75.5551
75.5624
75.5684
75.5731
75.5766
75.579
75.5802
75.5803
75.5795
75.5778
75.5753
75.5722
75.5685
75.5645
75.5602
75.5558
75.5514
75.5472
75.5434
75.54
75.5371
75.5349
75.5334
75.5326
73.9422
73.9428
73.9441
73.9459
73.9482
73.9509
73.954
73.9574
73.9608
73.9643
73.9676
73.9707
73.9734
73.9756
73.9772
73.9781
73.9781
73.9773
73.9754
73.9726
73.9686
73.9634
73.9571
73.9495
73.9406
73.9305
73.9189
73.906
73.8916
73.8756
73.8581
73.8388
73.8237
73.814
73.804
73.7938
73.7833
73.7727
73.756
78.2289
78.2289
73.756
73.7727
73.7833
73.7938
73.804
73.814
73.8237
73.8388
73.8581
73.8756
73.8916
73.906
73.9189
73.9305
73.9406
73.9495
73.9571
73.9634
73.9686
73.9726
73.9754
73.9773
73.9781
73.9781
73.9772
73.9756
73.9734
73.9707
73.9676
73.9643
73.9608
73.9574
73.954
73.9509
73.9482
73.9459
73.9441
73.9428
73.9422
72.3512
72.3517
72.3527
72.3541
72.356
72.3582
72.3606
72.3632
72.3659
72.3685
72.371
72.3732
72.3751
72.3765
72.3773
72.3775
72.3768
72.3754
72.373
72.3696
72.3652
72.3597
72.353
72.3452
72.336
72.3256
72.3138
72.3006
72.2858
72.2694
72.2511
72.2308
72.2146
72.2041
72.1932
72.1818
72.17
72.1579
72.1395
76.9792
76.9792
72.1395
72.1579
72.17
72.1818
72.1932
72.2041
72.2146
72.2308
72.2511
72.2694
72.2858
72.3006
72.3138
72.3256
72.336
72.3452
72.353
72.3597
72.3652
72.3696
72.373
72.3754
72.3768
72.3775
72.3773
72.3765
72.3751
72.3732
72.371
72.3685
72.3659
72.3632
72.3606
72.3582
72.356
72.3541
72.3527
72.3517
72.3512
70.7597
70.7601
70.7609
70.762
70.7634
70.7651
70.767
70.769
70.771
70.7729
70.7747
70.7762
70.7773
70.778
70.7781
70.7776
70.7764
70.7744
70.7715
70.7677
70.7629
70.7571
70.7502
70.7421
70.7328
70.7222
70.7102
70.6968
70.6818
70.665
70.6462
70.6251
70.6078
70.5965
70.5846
70.5719
70.5585
70.5443
70.5233
75.5637
75.5637
70.5233
70.5443
70.5585
70.5719
70.5846
70.5965
70.6078
70.6251
70.6462
70.665
70.6818
70.6968
70.7102
70.7222
70.7328
70.7421
70.7502
70.7571
70.7629
70.7677
70.7715
70.7744
70.7764
70.7776
70.7781
70.778
70.7773
70.7762
70.7747
70.7729
70.771
70.769
70.767
70.7651
70.7634
70.762
70.7609
70.7601
70.7597
69.1678
69.1681
69.1687
69.1695
69.1706
69.1719
69.1733
69.1747
69.1761
69.1774
69.1786
69.1794
69.1799
69.18
69.1795
69.1785
69.1768
69.1743
69.171
69.1668
69.1617
69.1556
69.1484
69.1402
69.1307
69.1201
69.108
69.0946
69.0795
69.0626
69.0436
69.0221
69.0042
68.9925
68.9798
68.9659
68.9508
68.934
68.9095
73.2566
73.2566
68.9095
68.934
68.9508
68.9659
68.9798
68.9925
69.0042
69.0221
69.0436
69.0626
69.0795
69.0946
69.108
69.1201
69.1307
69.1402
69.1484
69.1556
69.1617
69.1668
69.171
69.1743
69.1768
69.1785
69.1795
69.18
69.1799
69.1794
69.1786
69.1774
69.1761
69.1747
69.1733
69.1719
69.1706
69.1695
69.1687
69.1681
69.1678
67.5756
67.5758
67.5762
67.5769
67.5777
67.5785
67.5795
67.5805
67.5814
67.5822
67.5828
67.5831
67.583
67.5826
67.5816
67.58
67.5779
67.575
67.5713
67.5668
67.5615
67.5552
67.5478
67.5395
67.53
67.5193
67.5073
67.4939
67.479
67.4623
67.4435
67.4223
67.4047
67.3931
67.3805
67.3668
67.3513
67.3335
67.3077
68.2648
68.2648
67.3077
67.3335
67.3513
67.3668
67.3805
67.3931
67.4047
67.4223
67.4435
67.4623
67.479
67.4939
67.5073
67.5193
67.53
67.5395
67.5478
67.5552
67.5615
67.5668
67.5713
67.575
67.5779
67.58
67.5816
67.5826
67.583
67.5831
67.5828
67.5822
67.5814
67.5805
67.5795
67.5785
67.5777
67.5769
67.5762
67.5758
67.5756
65.9832
65.9833
65.9836
65.984
65.9846
65.9851
65.9857
65.9863
65.9868
65.9871
65.9872
65.987
65.9865
65.9856
65.9842
65.9822
65.9797
65.9764
65.9725
65.9677
65.9622
65.9557
65.9483
65.9399
65.9304
65.9198
65.908
65.8949
65.8803
65.864
65.8459
65.8256
65.8092
65.7986
65.7874
65.7759
65.7641
65.7526
65.7424
65.7371
65.7371
65.7424
65.7526
65.7641
65.7759
65.7874
65.7986
65.8092
65.8256
65.8459
65.864
65.8803
65.8949
65.908
65.9198
65.9304
65.9399
65.9483
65.9557
65.9622
65.9677
65.9725
65.9764
65.9797
65.9822
65.9842
65.9856
65.9865
65.987
65.9872
65.9871
65.9868
65.9863
65.9857
65.9851
65.9846
65.984
65.9836
65.9833
65.9832
64.3906
64.3907
64.3908
64.3911
64.3914
64.3917
64.392
64.3922
64.3923
64.3923
64.392
64.3914
64.3905
64.3891
64.3873
64.385
64.3821
64.3786
64.3744
64.3695
64.3638
64.3572
64.3498
64.3414
64.332
64.3216
64.31
64.2973
64.2832
64.2676
64.2505
64.2315
64.2163
64.2066
64.1965
64.1861
64.1756
64.1655
64.1593
64.155
64.155
64.1593
64.1655
64.1756
64.1861
64.1965
64.2066
64.2163
64.2315
64.2505
64.2676
64.2832
64.2973
64.31
64.3216
64.332
64.3414
64.3498
64.3572
64.3638
64.3695
64.3744
64.3786
64.3821
64.385
64.3873
64.3891
64.3905
64.3914
64.392
64.3923
64.3923
64.3922
64.392
64.3917
64.3914
64.3911
64.3908
64.3907
64.3906
62.7979
62.7979
62.798
62.7981
62.7982
62.7983
62.7983
62.7983
62.798
62.7976
62.797
62.7961
62.7948
62.7931
62.791
62.7884
62.7852
62.7815
62.7771
62.772
62.7662
62.7596
62.7521
62.7439
62.7346
62.7245
62.7133
62.701
62.6875
62.6728
62.6568
62.6393
62.6254
62.6165
62.6069
62.5966
62.585
62.571
62.5583
62.5557
62.5557
62.5583
62.571
62.585
62.5966
62.6069
62.6165
62.6254
62.6393
62.6568
62.6728
62.6875
62.701
62.7133
62.7245
62.7346
62.7439
62.7521
62.7596
62.7662
62.772
62.7771
62.7815
62.7852
62.7884
62.791
62.7931
62.7948
62.7961
62.797
62.7976
62.798
62.7983
62.7983
62.7983
62.7982
62.7981
62.798
62.7979
62.7979
61.2054
61.2054
61.2054
61.2054
61.2053
61.2052
61.205
61.2046
61.2041
61.2035
61.2025
61.2013
61.1997
61.1978
61.1954
61.1925
61.1892
61.1852
61.1807
61.1755
61.1696
61.163
61.1556
61.1475
61.1385
61.1286
61.1178
61.1061
61.0933
61.0796
61.0649
61.0491
61.037
61.0294
61.0217
61.0139
61.0062
60.9991
60.9934
60.9909
60.9909
60.9934
60.9991
61.0062
61.0139
61.0217
61.0294
61.037
61.0491
61.0649
61.0796
61.0933
61.1061
61.1178
61.1286
61.1385
61.1475
61.1556
61.163
61.1696
61.1755
61.1807
61.1852
61.1892
61.1925
61.1954
61.1978
61.1997
61.2013
61.2025
61.2035
61.2041
61.2046
61.205
61.2052
61.2053
61.2054
61.2054
61.2054
61.2054
59.6129
59.6128
59.6128
59.6126
59.6124
59.6121
59.6117
59.6112
59.6105
59.6095
59.6083
59.6069
59.605
59.6029
59.6003
59.5972
59.5937
59.5896
59.5849
59.5797
59.5738
59.5672
59.5599
59.5519
59.5431
59.5336
59.5233
59.5121
59.5002
59.4874
59.474
59.4599
59.4494
59.443
59.4367
59.4305
59.4246
59.4193
59.4145
59.4122
59.4122
59.4145
59.4193
59.4246
59.4305
59.4367
59.443
59.4494
59.4599
59.474
59.4874
59.5002
59.5121
59.5233
59.5336
59.5431
59.5519
59.5599
59.5672
59.5738
59.5797
59.5849
59.5896
59.5937
59.5972
59.6003
59.6029
59.605
59.6069
59.6083
59.6095
59.6105
59.6112
59.6117
59.6121
59.6124
59.6126
59.6128
59.6128
59.6129
58.0204
58.0203
58.0202
58.02
58.0196
58.0192
58.0186
58.0179
58.017
58.0159
58.0145
58.0128
58.0107
58.0084
58.0056
58.0024
57.9987
57.9945
57.9898
57.9845
57.9786
57.9721
57.9649
57.9571
57.9486
57.9394
57.9296
57.919
57.9078
57.896
57.8837
57.871
57.8618
57.8563
57.8508
57.8455
57.8405
57.8357
57.8313
57.829
57.829
57.8313
57.8357
57.8405
57.8455
57.8508
57.8563
57.8618
57.871
57.8837
57.896
57.9078
57.919
57.9296
57.9394
57.9486
57.9571
57.9649
57.9721
57.9786
57.9845
57.9898
57.9945
57.9987
58.0024
58.0056
58.0084
58.0107
58.0128
58.0145
58.0159
58.017
58.0179
58.0186
58.0192
58.0196
58.02
58.0202
58.0203
58.0204
56.428
56.4279
56.4277
56.4274
56.427
56.4264
56.4257
56.4248
56.4237
56.4224
56.4209
56.419
56.4168
56.4143
56.4113
56.408
56.4042
56.3999
56.3952
56.3899
56.384
56.3776
56.3706
56.363
56.3548
56.3459
56.3365
56.3265
56.316
56.305
56.2937
56.2822
56.2739
56.2689
56.264
56.2593
56.2547
56.2503
56.246
56.2437
56.2437
56.246
56.2503
56.2547
56.2593
56.264
56.2689
56.2739
56.2822
56.2937
56.305
56.316
56.3265
56.3365
56.3459
56.3548
56.363
56.3706
56.3776
56.384
56.3899
56.3952
56.3999
56.4042
56.408
56.4113
56.4143
56.4168
56.419
56.4209
56.4224
56.4237
56.4248
56.4257
56.4264
56.427
56.4274
56.4277
56.4279
56.428
54.8357
54.8355
54.8353
54.8349
54.8344
54.8338
54.833
54.832
54.8307
54.8293
54.8275
54.8255
54.8232
54.8205
54.8175
54.8141
54.8102
54.8059
54.8011
54.7958
54.79
54.7837
54.7769
54.7695
54.7615
54.753
54.7441
54.7346
54.7247
54.7144
54.7039
54.6933
54.6857
54.6811
54.6766
54.6721
54.6678
54.6636
54.6595
54.6572
54.6572
54.6595
54.6636
54.6678
54.6721
54.6766
54.6811
54.6857
54.6933
54.7039
54.7144
54.7247
54.7346
54.7441
54.753
54.7615
54.7695
54.7769
54.7837
54.79
54.7958
54.8011
54.8059
54.8102
54.8141
54.8175
54.8205
54.8232
54.8255
54.8275
54.8293
54.8307
54.832
54.833
54.8338
54.8344
54.8349
54.8353
54.8355
54.8357
53.2435
53.2433
53.243
53.2426
53.2421
53.2413
53.2404
53.2393
53.2379
53.2364
53.2345
53.2324
53.23
53.2272
53.2241
53.2206
53.2167
53.2123
53.2075
53.2023
53.1966
53.1904
53.1837
53.1765
53.1688
53.1607
53.1521
53.1431
53.1337
53.1241
53.1142
53.1043
53.0972
53.0929
53.0886
53.0844
53.0803
53.0763
53.0723
53.07
53.07
53.0723
53.0763
53.0803
53.0844
53.0886