/*--------------------------------*- C++ -*----------------------------------*\
  =========                 |
  \\      /  F ield         | OpenFOAM: The Open Source CFD Toolbox
   \\    /   O peration     | Website:  https://openfoam.org
    \\  /    A nd           | Version:  10
     \\/     M anipulation  |
\*---------------------------------------------------------------------------*/
FoamFile
{
    format      ascii;
    class       surfaceScalarField;
    location    "17400";
    object      phi;
}
// * * * * * * * * * * * * * * * * * * * * * * * * * * * * * * * * * * * * * //

dimensions      [0 3 -1 0 0 0 0];

internalField   nonuniform List<scalar> 
12640
(
-2.72069e-08
2.72069e-08
-5.52487e-08
2.80418e-08
-8.5094e-08
2.98453e-08
-1.18032e-07
3.29384e-08
-1.56011e-07
3.79789e-08
-2.02336e-07
4.63244e-08
-2.63093e-07
6.07571e-08
-3.44567e-07
8.14737e-08
-2.34947e-07
-1.0962e-07
-3.43299e-06
3.19805e-06
-3.59293e-06
1.59933e-07
-3.1191e-06
-4.73827e-07
-3.65665e-06
5.3755e-07
-3.63214e-06
-2.4507e-08
-3.58125e-06
-5.08942e-08
-3.52606e-06
-5.51918e-08
-3.39355e-06
-1.32502e-07
-3.36662e-06
-2.69371e-08
-3.50744e-06
1.40826e-07
-3.51447e-06
7.0225e-09
-3.47455e-06
-3.99199e-08
-3.37204e-06
-1.02509e-07
-3.31263e-06
-5.94037e-08
-3.27364e-06
-3.89956e-08
-3.22616e-06
-4.74777e-08
-3.18736e-06
-3.88039e-08
-3.14645e-06
-4.09016e-08
-3.08686e-06
-5.95984e-08
-3.03599e-06
-5.08688e-08
-2.98572e-06
-5.02695e-08
-2.90479e-06
-8.09229e-08
-2.7389e-06
-1.65892e-07
-2.60753e-06
-1.3137e-07
-2.42897e-06
-1.78564e-07
-2.19088e-06
-2.38086e-07
-1.88309e-06
-3.07789e-07
-1.50097e-06
-3.8212e-07
-1.04841e-06
-4.5256e-07
-5.39842e-07
-5.08572e-07
-2.54253e-17
-5.39842e-07
5.39842e-07
-5.39842e-07
1.04841e-06
-5.08572e-07
1.50097e-06
-4.5256e-07
1.88309e-06
-3.8212e-07
2.19088e-06
-3.07789e-07
2.42897e-06
-2.38086e-07
2.60753e-06
-1.78564e-07
2.7389e-06
-1.3137e-07
2.90479e-06
-1.65892e-07
2.98572e-06
-8.09229e-08
3.03599e-06
-5.02695e-08
3.08686e-06
-5.08688e-08
3.14645e-06
-5.95984e-08
3.18736e-06
-4.09016e-08
3.22616e-06
-3.88039e-08
3.27364e-06
-4.74777e-08
3.31263e-06
-3.89956e-08
3.37204e-06
-5.94037e-08
3.47455e-06
-1.02509e-07
3.51447e-06
-3.99199e-08
3.50744e-06
7.0225e-09
3.36662e-06
1.40826e-07
3.39355e-06
-2.69371e-08
3.52606e-06
-1.32502e-07
3.58125e-06
-5.51918e-08
3.63214e-06
-5.08942e-08
3.65665e-06
-2.4507e-08
3.1191e-06
5.3755e-07
3.59293e-06
-4.73827e-07
3.43299e-06
1.59933e-07
2.34947e-07
3.19805e-06
3.44567e-07
-1.0962e-07
2.63093e-07
8.14737e-08
2.02336e-07
6.07571e-08
1.56011e-07
4.63244e-08
1.18032e-07
3.79789e-08
8.5094e-08
3.29384e-08
5.52487e-08
2.98453e-08
2.72069e-08
2.80418e-08
2.72069e-08
-2.98015e-08
5.70084e-08
-6.05125e-08
5.87528e-08
-9.31862e-08
6.2519e-08
-1.29221e-07
6.89736e-08
-1.70721e-07
7.94781e-08
-2.21241e-07
9.6845e-08
-2.87583e-07
1.27098e-07
-3.87026e-07
1.80917e-07
-7.50016e-07
2.5337e-07
-1.87414e-07
2.63545e-06
-2.19847e-06
2.17099e-06
-3.11319e-06
4.40895e-07
-3.84608e-06
1.27044e-06
-3.83255e-06
-3.80357e-08
-3.79643e-06
-8.70142e-08
-3.75248e-06
-9.91437e-08
-3.61027e-06
-2.74708e-07
-3.58424e-06
-5.29715e-08
-3.75289e-06
3.09474e-07
-3.75995e-06
1.4087e-08
-3.72091e-06
-7.89625e-08
-3.60857e-06
-2.14846e-07
-3.54805e-06
-1.19928e-07
-3.50934e-06
-7.77026e-08
-3.45909e-06
-9.77265e-08
-3.41926e-06
-7.86368e-08
-3.37727e-06
-8.28888e-08
-3.31297e-06
-1.23905e-07
-3.25958e-06
-1.04251e-07
-3.20782e-06
-1.02034e-07
-3.12409e-06
-1.64655e-07
-2.95082e-06
-3.3916e-07
-2.81264e-06
-2.69545e-07
-2.62386e-06
-3.6735e-07
-2.37055e-06
-4.9139e-07
-2.04099e-06
-6.37354e-07
-1.6295e-06
-7.93609e-07
-1.13981e-06
-9.42252e-07
-5.87479e-07
-1.0609e-06
-3.67545e-17
-1.12732e-06
5.87479e-07
-1.12732e-06
1.13981e-06
-1.0609e-06
1.6295e-06
-9.42252e-07
2.04099e-06
-7.93609e-07
2.37055e-06
-6.37354e-07
2.62386e-06
-4.9139e-07
2.81264e-06
-3.6735e-07
2.95082e-06
-2.69545e-07
3.12409e-06
-3.3916e-07
3.20782e-06
-1.64655e-07
3.25958e-06
-1.02034e-07
3.31297e-06
-1.04251e-07
3.37727e-06
-1.23905e-07
3.41926e-06
-8.28888e-08
3.45909e-06
-7.86368e-08
3.50934e-06
-9.77265e-08
3.54805e-06
-7.77026e-08
3.60857e-06
-1.19928e-07
3.72091e-06
-2.14846e-07
3.75995e-06
-7.89625e-08
3.75289e-06
1.4087e-08
3.58424e-06
3.09474e-07
3.61027e-06
-5.29715e-08
3.75248e-06
-2.74708e-07
3.79643e-06
-9.91437e-08
3.83255e-06
-8.70142e-08
3.84608e-06
-3.80357e-08
3.11319e-06
1.27044e-06
2.19847e-06
4.40895e-07
1.87414e-07
2.17099e-06
7.50016e-07
2.63545e-06
3.87026e-07
2.5337e-07
2.87583e-07
1.80917e-07
2.21241e-07
1.27098e-07
1.70721e-07
9.6845e-08
1.29221e-07
7.94781e-08
9.31862e-08
6.89736e-08
6.05125e-08
6.2519e-08
2.98015e-08
5.87528e-08
5.70084e-08
-3.25873e-08
8.95957e-08
-6.61563e-08
9.23217e-08
-1.0184e-07
9.82028e-08
-1.41133e-07
1.08266e-07
-1.86258e-07
1.24603e-07
-2.40934e-07
1.51521e-07
-3.12351e-07
1.98516e-07
-4.20358e-07
2.88923e-07
-6.86478e-07
5.1949e-07
-2.92219e-07
2.24119e-06
-1.09483e-07
1.98825e-06
-3.38212e-07
6.69624e-07
-3.7655e-06
4.69772e-06
-3.99171e-06
1.8818e-07
-4.02298e-06
-5.57508e-08
-4.01233e-06
-1.09789e-07
-3.85113e-06
-4.35914e-07
-3.82379e-06
-8.03099e-08
-4.04736e-06
5.33051e-07
-4.04787e-06
1.45906e-08
-4.01153e-06
-1.15303e-07
-3.8799e-06
-3.46469e-07
-3.81976e-06
-1.8007e-07
-3.78325e-06
-1.14211e-07
-3.72821e-06
-1.5277e-07
-3.68775e-06
-1.19098e-07
-3.64554e-06
-1.25095e-07
-3.57353e-06
-1.9592e-07
-3.51764e-06
-1.60146e-07
-3.46607e-06
-1.53595e-07
-3.38255e-06
-2.48183e-07
-3.20696e-06
-5.14744e-07
-3.06499e-06
-4.11517e-07
-2.86876e-06
-5.63583e-07
-2.60157e-06
-7.58573e-07
-2.24866e-06
-9.90263e-07
-1.80215e-06
-1.24013e-06
-1.26477e-06
-1.47962e-06
-6.53389e-07
-1.67228e-06
-1.84379e-17
-1.78071e-06
6.53389e-07
-1.78071e-06
1.26477e-06
-1.67228e-06
1.80215e-06
-1.47962e-06
2.24866e-06
-1.24013e-06
2.60157e-06
-9.90263e-07
2.86876e-06
-7.58573e-07
3.06499e-06
-5.63583e-07
3.20696e-06
-4.11517e-07
3.38255e-06
-5.14744e-07
3.46607e-06
-2.48183e-07
3.51764e-06
-1.53595e-07
3.57353e-06
-1.60146e-07
3.64554e-06
-1.9592e-07
3.68775e-06
-1.25095e-07
3.72821e-06
-1.19098e-07
3.78325e-06
-1.5277e-07
3.81976e-06
-1.14211e-07
3.8799e-06
-1.8007e-07
4.01153e-06
-3.46469e-07
4.04787e-06
-1.15303e-07
4.04736e-06
1.45906e-08
3.82379e-06
5.33051e-07
3.85113e-06
-8.03099e-08
4.01233e-06
-4.35914e-07
4.02298e-06
-1.09789e-07
3.99171e-06
-5.57508e-08
3.7655e-06
1.8818e-07
3.38212e-07
4.69772e-06
1.09483e-07
6.69624e-07
2.92219e-07
1.98825e-06
6.86478e-07
2.24119e-06
4.20358e-07
5.1949e-07
3.12351e-07
2.88923e-07
2.40934e-07
1.98516e-07
1.86258e-07
1.51521e-07
1.41133e-07
1.24603e-07
1.0184e-07
1.08266e-07
6.61563e-08
9.82028e-08
3.25873e-08
9.23217e-08
8.95957e-08
-3.55551e-08
1.25151e-07
-7.21575e-08
1.28924e-07
-1.11009e-07
1.37054e-07
-1.53675e-07
1.50932e-07
-2.02441e-07
1.7337e-07
-2.6103e-07
2.1011e-07
-3.36378e-07
2.73864e-07
-4.45204e-07
3.9775e-07
-6.34556e-07
7.08841e-07
-3.37906e-07
1.94454e-06
-2.1078e-07
1.86113e-06
-7.35256e-07
1.1941e-06
2.44719e-07
3.71775e-06
-9.25197e-07
1.3581e-06
-3.94987e-06
2.96892e-06
-4.22462e-06
1.64964e-07
-4.07419e-06
-5.86344e-07
-4.05499e-06
-9.95124e-08
-4.38503e-06
8.63092e-07
-4.36752e-06
-2.91959e-09
-4.34059e-06
-1.42231e-07
-4.17487e-06
-5.12195e-07
-4.11958e-06
-2.3536e-07
-4.08936e-06
-1.44425e-07
-4.02651e-06
-2.15624e-07
-3.98681e-06
-1.58801e-07
-3.94669e-06
-1.65214e-07
-3.86234e-06
-2.80269e-07
-3.80461e-06
-2.17873e-07
-3.75637e-06
-2.01839e-07
-3.67823e-06
-3.26323e-07
-3.50926e-06
-6.83707e-07
-3.36944e-06
-5.51338e-07
-3.17198e-06
-7.6104e-07
-2.89554e-06
-1.03502e-06
-2.51988e-06
-1.36592e-06
-2.03305e-06
-1.72696e-06
-1.43531e-06
-2.07736e-06
-7.44544e-07
-2.36305e-06
-7.40657e-18
-2.52525e-06
7.44544e-07
-2.52525e-06
1.43531e-06
-2.36305e-06
2.03305e-06
-2.07736e-06
2.51988e-06
-1.72696e-06
2.89554e-06
-1.36592e-06
3.17198e-06
-1.03502e-06
3.36944e-06
-7.6104e-07
3.50926e-06
-5.51338e-07
3.67823e-06
-6.83707e-07
3.75637e-06
-3.26323e-07
3.80461e-06
-2.01839e-07
3.86234e-06
-2.17873e-07
3.94669e-06
-2.80269e-07
3.98681e-06
-1.65214e-07
4.02651e-06
-1.58801e-07
4.08936e-06
-2.15624e-07
4.11958e-06
-1.44425e-07
4.17487e-06
-2.3536e-07
4.34059e-06
-5.12195e-07
4.36752e-06
-1.42231e-07
4.38503e-06
-2.91959e-09
4.05499e-06
8.63092e-07
4.07419e-06
-9.95124e-08
4.22462e-06
-5.86344e-07
3.94987e-06
1.64964e-07
9.25197e-07
2.96892e-06
-2.44719e-07
1.3581e-06
7.35256e-07
3.71775e-06
2.1078e-07
1.1941e-06
3.37906e-07
1.86113e-06
6.34556e-07
1.94454e-06
4.45204e-07
7.08841e-07
3.36378e-07
3.9775e-07
2.6103e-07
2.73864e-07
2.02441e-07
2.1011e-07
1.53675e-07
1.7337e-07
1.11009e-07
1.50932e-07
7.21575e-08
1.37054e-07
3.55551e-08
1.28924e-07
1.25151e-07
-3.86856e-08
1.63836e-07
-7.84716e-08
1.6871e-07
-1.20609e-07
1.79191e-07
-1.66698e-07
1.97021e-07
-2.19004e-07
2.25675e-07
-2.81031e-07
2.72137e-07
-3.587e-07
3.51533e-07
-4.62576e-07
5.01626e-07
-5.93774e-07
8.40039e-07
-3.77524e-07
1.72829e-06
-2.86369e-07
1.76997e-06
-5.97678e-07
1.50541e-06
7.74002e-08
3.04267e-06
-2.79472e-07
1.71497e-06
1.25919e-07
2.56353e-06
-1.22552e-06
1.5164e-06
-3.89384e-06
2.08197e-06
-4.15823e-06
1.64885e-07
-4.74171e-06
1.44657e-06
-4.69849e-06
-4.61365e-08
-4.70497e-06
-1.35754e-07
-4.48163e-06
-7.35539e-07
-4.44292e-06
-2.74067e-07
-4.42729e-06
-1.60056e-07
-4.35119e-06
-2.9172e-07
-4.31531e-06
-1.94681e-07
-4.28225e-06
-1.98274e-07
-4.17729e-06
-3.85235e-07
-4.11944e-06
-2.75718e-07
-4.07945e-06
-2.41834e-07
-4.01447e-06
-3.91304e-07
-3.86576e-06
-8.32409e-07
-3.73829e-06
-6.78808e-07
-3.55115e-06
-9.48182e-07
-3.2753e-06
-1.31087e-06
-2.88076e-06
-1.76047e-06
-2.3488e-06
-2.25892e-06
-1.67419e-06
-2.75196e-06
-8.7426e-07
-3.16298e-06
-2.10211e-17
-3.39951e-06
8.7426e-07
-3.39951e-06
1.67419e-06
-3.16298e-06
2.3488e-06
-2.75196e-06
2.88076e-06
-2.25892e-06
3.2753e-06
-1.76047e-06
3.55115e-06
-1.31087e-06
3.73829e-06
-9.48182e-07
3.86576e-06
-6.78808e-07
4.01447e-06
-8.32409e-07
4.07945e-06
-3.91304e-07
4.11944e-06
-2.41834e-07
4.17729e-06
-2.75718e-07
4.28225e-06
-3.85235e-07
4.31531e-06
-1.98274e-07
4.35119e-06
-1.94681e-07
4.42729e-06
-2.9172e-07
4.44292e-06
-1.60056e-07
4.48163e-06
-2.74067e-07
4.70497e-06
-7.35539e-07
4.69849e-06
-1.35754e-07
4.74171e-06
-4.61365e-08
4.15823e-06
1.44657e-06
3.89384e-06
1.64885e-07
1.22552e-06
2.08197e-06
-1.25919e-07
1.5164e-06
2.79472e-07
2.56353e-06
-7.74002e-08
1.71497e-06
5.97678e-07
3.04267e-06
2.86369e-07
1.50541e-06
3.77524e-07
1.76997e-06
5.93774e-07
1.72829e-06
4.62576e-07
8.40039e-07
3.587e-07
5.01626e-07
2.81031e-07
3.51533e-07
2.19004e-07
2.72137e-07
1.66698e-07
2.25675e-07
1.20609e-07
1.97021e-07
7.84716e-08
1.79191e-07
3.86856e-08
1.6871e-07
1.63836e-07
-4.19464e-08
2.05783e-07
-8.50265e-08
2.1179e-07
-1.30513e-07
2.24678e-07
-1.79987e-07
2.46496e-07
-2.35585e-07
2.81273e-07
-3.0034e-07
3.36892e-07
-3.78493e-07
4.29686e-07
-4.73686e-07
5.9682e-07
-5.62867e-07
9.2922e-07
-4.09929e-07
1.57535e-06
-3.40426e-07
1.70047e-06
-5.0256e-07
1.66754e-06
-4.72387e-08
2.58735e-06
-2.22083e-07
1.88981e-06
4.55771e-08
2.29587e-06
-1.27265e-07
1.68924e-06
5.67895e-08
1.89792e-06
-6.49547e-07
8.71221e-07
-4.5757e-06
5.37272e-06
-4.83008e-06
2.08243e-07
-5.0479e-06
8.20637e-08
-4.75743e-06
-1.02601e-06
-4.775e-06
-2.5649e-07
-4.79489e-06
-1.40174e-07
-4.69661e-06
-3.89997e-07
-4.67195e-06
-2.19336e-07
-4.65704e-06
-2.13192e-07
-4.51553e-06
-5.26744e-07
-4.46162e-06
-3.29621e-07
-4.43738e-06
-2.66076e-07
-4.39645e-06
-4.32238e-07
-4.28718e-06
-9.41674e-07
-4.18887e-06
-7.77117e-07
-4.03278e-06
-1.10428e-06
-3.77722e-06
-1.56643e-06
-3.37382e-06
-2.16387e-06
-2.79427e-06
-2.83847e-06
-2.02165e-06
-3.52458e-06
-1.06666e-06
-4.11798e-06
-3.8954e-17
-4.46617e-06
1.06666e-06
-4.46617e-06
2.02165e-06
-4.11798e-06
2.79427e-06
-3.52458e-06
3.37382e-06
-2.83847e-06
3.77722e-06
-2.16387e-06
4.03278e-06
-1.56643e-06
4.18887e-06
-1.10428e-06
4.28718e-06
-7.77117e-07
4.39645e-06
-9.41674e-07
4.43738e-06
-4.32238e-07
4.46162e-06
-2.66076e-07
4.51553e-06
-3.29621e-07
4.65704e-06
-5.26744e-07
4.67195e-06
-2.13192e-07
4.69661e-06
-2.19336e-07
4.79489e-06
-3.89997e-07
4.775e-06
-1.40174e-07
4.75743e-06
-2.5649e-07
5.0479e-06
-1.02601e-06
4.83008e-06
8.20637e-08
4.5757e-06
2.08243e-07
6.49547e-07
5.37272e-06
-5.67895e-08
8.71221e-07
1.27265e-07
1.89792e-06
-4.55771e-08
1.68924e-06
2.22083e-07
2.29587e-06
4.72387e-08
1.88981e-06
5.0256e-07
2.58735e-06
3.40426e-07
1.66754e-06
4.09929e-07
1.70047e-06
5.62867e-07
1.57535e-06
4.73686e-07
9.2922e-07
3.78493e-07
5.9682e-07
3.0034e-07
4.29686e-07
2.35585e-07
3.36892e-07
1.79987e-07
2.81273e-07
1.30513e-07
2.46496e-07
8.50265e-08
2.24678e-07
4.19464e-08
2.1179e-07
2.05783e-07
-4.52886e-08
2.51071e-07
-9.17162e-08
2.58218e-07
-1.40537e-07
2.73499e-07
-1.9325e-07
2.99209e-07
-2.51736e-07
3.39759e-07
-3.1831e-07
4.03466e-07
-3.95131e-07
5.06507e-07
-4.79755e-07
6.81443e-07
-5.40009e-07
9.89474e-07
-4.3464e-07
1.46998e-06
-3.7733e-07
1.64316e-06
-4.41096e-07
1.73131e-06
-1.35325e-07
2.28158e-06
-1.9497e-07
1.94946e-06
-2.26386e-08
2.12354e-06
-1.14603e-07
1.78121e-06
-6.0448e-08
1.84376e-06
-6.9515e-07
1.50592e-06
7.66293e-07
3.91128e-06
-2.93216e-07
1.26775e-06
-3.05315e-06
2.842e-06
-4.55486e-06
4.75704e-07
-4.95712e-06
1.45763e-07
-5.14207e-06
4.47789e-08
-5.03071e-06
-5.01361e-07
-5.04431e-06
-2.05732e-07
-5.07687e-06
-1.8063e-07
-4.86805e-06
-7.35562e-07
-4.82896e-06
-3.68718e-07
-4.83207e-06
-2.62964e-07
-4.82975e-06
-4.34559e-07
-4.78422e-06
-9.872e-07
-4.74209e-06
-8.19246e-07
-4.65433e-06
-1.19204e-06
-4.45877e-06
-1.76199e-06
-4.06767e-06
-2.55497e-06
-3.44595e-06
-3.46019e-06
-2.55189e-06
-4.41864e-06
-1.36765e-06
-5.30222e-06
-3.49606e-17
-5.83383e-06
1.36765e-06
-5.83383e-06
2.55189e-06
-5.30222e-06
3.44595e-06
-4.41864e-06
4.06767e-06
-3.46019e-06
4.45877e-06
-2.55497e-06
4.65433e-06
-1.76199e-06
4.74209e-06
-1.19204e-06
4.78422e-06
-8.19246e-07
4.82975e-06
-9.872e-07
4.83207e-06
-4.34559e-07
4.82896e-06
-2.62964e-07
4.86805e-06
-3.68718e-07
5.07687e-06
-7.35562e-07
5.04431e-06
-1.8063e-07
5.03071e-06
-2.05732e-07
5.14207e-06
-5.01361e-07
4.95712e-06
4.47789e-08
4.55486e-06
1.45763e-07
3.05315e-06
4.75704e-07
2.93216e-07
2.842e-06
-7.66293e-07
1.26775e-06
6.9515e-07
3.91128e-06
6.0448e-08
1.50592e-06
1.14603e-07
1.84376e-06
2.26386e-08
1.78121e-06
1.9497e-07
2.12354e-06
1.35325e-07
1.94946e-06
4.41096e-07
2.28158e-06
3.7733e-07
1.73131e-06
4.3464e-07
1.64316e-06
5.40009e-07
1.46998e-06
4.79755e-07
9.89474e-07
3.95131e-07
6.81443e-07
3.1831e-07
5.06507e-07
2.51736e-07
4.03466e-07
1.9325e-07
3.39759e-07
1.40537e-07
2.99209e-07
9.17162e-08
2.73499e-07
4.52886e-08
2.58218e-07
2.51071e-07
-4.86444e-08
2.99716e-07
-9.83956e-08
3.07969e-07
-1.50442e-07
3.25545e-07
-2.06121e-07
3.54889e-07
-2.66935e-07
4.00572e-07
-3.3429e-07
4.70821e-07
-4.08193e-07
5.8041e-07
-4.8184e-07
7.55091e-07
-5.23087e-07
1.03072e-06
-4.51781e-07
1.39867e-06
-4.01169e-07
1.59255e-06
-4.04548e-07
1.73469e-06
-1.96265e-07
2.0733e-06
-1.88775e-07
1.94197e-06
-7.41374e-08
2.0089e-06
-1.1669e-07
1.82376e-06
-1.14961e-07
1.84204e-06
-4.16009e-07
1.80697e-06
4.59735e-07
3.03554e-06
1.43593e-08
1.71313e-06
5.81115e-07
2.27524e-06
1.10344e-07
9.46475e-07
-5.86326e-07
8.42433e-07
-4.03677e-06
3.49522e-06
-4.89892e-06
3.60792e-07
-5.23922e-06
1.34569e-07
-5.49289e-06
7.30368e-08
-5.18711e-06
-1.04134e-06
-5.20557e-06
-3.50251e-07
-5.25965e-06
-2.08892e-07
-5.31698e-06
-3.7722e-07
-5.36054e-06
-9.43643e-07
-5.41643e-06
-7.63359e-07
-5.46496e-06
-1.14351e-06
-5.41514e-06
-1.81181e-06
-5.07241e-06
-2.8977e-06
-4.43672e-06
-4.09588e-06
-3.41246e-06
-5.44289e-06
-1.8713e-06
-6.84338e-06
-1.71232e-17
-7.70513e-06
1.8713e-06
-7.70513e-06
3.41246e-06
-6.84338e-06
4.43672e-06
-5.44289e-06
5.07241e-06
-4.09588e-06
5.41514e-06
-2.8977e-06
5.46496e-06
-1.81181e-06
5.41643e-06
-1.14351e-06
5.36054e-06
-7.63359e-07
5.31698e-06
-9.43643e-07
5.25965e-06
-3.7722e-07
5.20557e-06
-2.08892e-07
5.18711e-06
-3.50251e-07
5.49289e-06
-1.04134e-06
5.23922e-06
7.30368e-08
4.89892e-06
1.34569e-07
4.03677e-06
3.60792e-07
5.86326e-07
3.49522e-06
-1.10344e-07
8.42433e-07
-5.81115e-07
9.46475e-07
-1.43593e-08
2.27524e-06
-4.59735e-07
1.71313e-06
4.16009e-07
3.03554e-06
1.14961e-07
1.80697e-06
1.1669e-07
1.84204e-06
7.41374e-08
1.82376e-06
1.88775e-07
2.0089e-06
1.96265e-07
1.94197e-06
4.04548e-07
2.0733e-06
4.01169e-07
1.73469e-06
4.51781e-07
1.59255e-06
5.23087e-07
1.39867e-06
4.8184e-07
1.03072e-06
4.08193e-07
7.55091e-07
3.3429e-07
5.8041e-07
2.66935e-07
4.70821e-07
2.06121e-07
4.00572e-07
1.50442e-07
3.54889e-07
9.83956e-08
3.25545e-07
4.86444e-08
3.07969e-07
2.99716e-07
-5.19244e-08
3.5164e-07
-1.04877e-07
3.60922e-07
-1.59924e-07
3.80591e-07
-2.18163e-07
4.13128e-07
-2.80608e-07
4.63017e-07
-3.47668e-07
5.37881e-07
-4.17448e-07
6.5019e-07
-4.80735e-07
8.18377e-07
-5.09979e-07
1.05997e-06
-4.61931e-07
1.35063e-06
-4.15382e-07
1.546e-06
-3.85046e-07
1.70435e-06
-2.38024e-07
1.92627e-06
-1.95455e-07
1.8994e-06
-1.13396e-07
1.92684e-06
-1.24821e-07
1.83519e-06
-1.32168e-07
1.84938e-06
-2.4341e-07
1.91821e-06
2.75109e-07
2.51702e-06
1.1315e-07
1.87509e-06
4.0714e-07
1.98125e-06
1.03003e-07
1.25061e-06
-3.03544e-07
1.24898e-06
7.09125e-07
2.48255e-06
1.60474e-07
9.09443e-07
-5.23635e-07
8.18679e-07
-3.18867e-06
2.73807e-06
-4.78703e-06
5.57018e-07
-5.29311e-06
1.55824e-07
-5.59281e-06
9.08083e-08
-5.81078e-06
-1.5925e-07
-5.97593e-06
-7.78494e-07
-6.19473e-06
-5.44553e-07
-6.50653e-06
-8.31709e-07
-6.82228e-06
-1.49607e-06
-6.55094e-06
-3.16903e-06
-5.99331e-06
-4.65351e-06
-4.93037e-06
-6.50582e-06
-2.78674e-06
-8.98702e-06
-3.39491e-17
-1.04919e-05
2.78674e-06
-1.04919e-05
4.93037e-06
-8.98702e-06
5.99331e-06
-6.50582e-06
6.55094e-06
-4.65351e-06
6.82228e-06
-3.16903e-06
6.50653e-06
-1.49607e-06
6.19473e-06
-8.31709e-07
5.97593e-06
-5.44553e-07
5.81078e-06
-7.78494e-07
5.59281e-06
-1.5925e-07
5.29311e-06
9.08083e-08
4.78703e-06
1.55824e-07
3.18867e-06
5.57018e-07
5.23635e-07
2.73807e-06
-1.60474e-07
8.18679e-07
-7.09125e-07
9.09443e-07
3.03544e-07
2.48255e-06
-1.03003e-07
1.24898e-06
-4.0714e-07
1.25061e-06
-1.1315e-07
1.98125e-06
-2.75109e-07
1.87509e-06
2.4341e-07
2.51702e-06
1.32168e-07
1.91821e-06
1.24821e-07
1.84938e-06
1.13396e-07
1.83519e-06
1.95455e-07
1.92684e-06
2.38024e-07
1.8994e-06
3.85046e-07
1.92627e-06
4.15382e-07
1.70435e-06
4.61931e-07
1.546e-06
5.09979e-07
1.35063e-06
4.80735e-07
1.05997e-06
4.17448e-07
8.18377e-07
3.47668e-07
6.5019e-07
2.80608e-07
5.37881e-07
2.18163e-07
4.63017e-07
1.59924e-07
4.13128e-07
1.04877e-07
3.80591e-07
5.19244e-08
3.60922e-07
3.5164e-07
-5.50171e-08
4.06657e-07
-1.10932e-07
4.16837e-07
-1.68626e-07
4.38284e-07
-2.28887e-07
4.7339e-07
-2.92173e-07
5.26303e-07
-3.5792e-07
6.03629e-07
-4.22809e-07
7.15078e-07
-4.76922e-07
8.7249e-07
-4.98768e-07
1.08181e-06
-4.65931e-07
1.31779e-06
-4.22593e-07
1.50266e-06
-3.76067e-07
1.65783e-06
-2.66673e-07
1.81688e-06
-2.08659e-07
1.84138e-06
-1.43482e-07
1.86167e-06
-1.33948e-07
1.82565e-06
-1.30616e-07
1.84605e-06
-1.42155e-07
1.92975e-06
1.67934e-07
2.20693e-06
1.46236e-07
1.89679e-06
2.94256e-07
1.83323e-06
1.12636e-07
1.43223e-06
-7.57929e-08
1.43741e-06
4.49867e-07
1.95689e-06
1.57092e-07
1.20222e-06
-1.77996e-07
1.15377e-06
5.88993e-07
1.97108e-06
2.44718e-07
9.01293e-07
-1.79804e-07
5.80347e-07
-9.2075e-07
8.31754e-07
-4.90671e-06
3.82671e-06
-5.92606e-06
2.40857e-07
-6.52142e-06
5.08027e-08
-7.39447e-06
4.1349e-08
-8.92545e-06
3.49094e-08
-8.53481e-06
-3.55968e-06
-8.39335e-06
-4.79498e-06
-7.94265e-06
-6.95652e-06
-4.60606e-06
-1.23236e-05
3.11708e-17
-1.50979e-05
4.60606e-06
-1.50979e-05
7.94265e-06
-1.23236e-05
8.39335e-06
-6.95652e-06
8.53481e-06
-4.79498e-06
8.92545e-06
-3.55968e-06
7.39447e-06
3.49094e-08
6.52142e-06
4.1349e-08
5.92606e-06
5.08027e-08
4.90671e-06
2.40857e-07
9.2075e-07
3.82671e-06
1.79804e-07
8.31754e-07
-2.44718e-07
5.80347e-07
-5.88993e-07
9.01293e-07
1.77996e-07
1.97108e-06
-1.57092e-07
1.15377e-06
-4.49867e-07
1.20222e-06
7.57929e-08
1.95689e-06
-1.12636e-07
1.43741e-06
-2.94256e-07
1.43223e-06
-1.46236e-07
1.83323e-06
-1.67934e-07
1.89679e-06
1.42155e-07
2.20693e-06
1.30616e-07
1.92975e-06
1.33948e-07
1.84605e-06
1.43482e-07
1.82565e-06
2.08659e-07
1.86167e-06
2.66673e-07
1.84138e-06
3.76067e-07
1.81688e-06
4.22593e-07
1.65783e-06
4.65931e-07
1.50266e-06
4.98768e-07
1.31779e-06
4.76922e-07
1.08181e-06
4.22809e-07
8.7249e-07
3.5792e-07
7.15078e-07
2.92173e-07
6.03629e-07
2.28887e-07
5.26303e-07
1.68626e-07
4.7339e-07
1.10932e-07
4.38284e-07
5.50171e-08
4.16837e-07
4.06657e-07
-5.77914e-08
4.64449e-07
-1.16295e-07
4.7534e-07
-1.76149e-07
4.98139e-07
-2.3778e-07
5.35021e-07
-3.01071e-07
5.89593e-07
-3.64627e-07
6.67186e-07
-4.24272e-07
7.74723e-07
-4.70608e-07
9.18826e-07
-4.87884e-07
1.09909e-06
-4.64683e-07
1.29459e-06
-4.24599e-07
1.46258e-06
-3.72593e-07
1.60582e-06
-2.8635e-07
1.73064e-06
-2.23775e-07
1.77881e-06
-1.66407e-07
1.8043e-06
-1.41802e-07
1.80105e-06
-1.22273e-07
1.82652e-06
-8.64111e-08
1.89389e-06
1.06418e-07
2.0141e-06
1.44458e-07
1.85875e-06
2.22187e-07
1.7555e-06
1.2484e-07
1.52958e-06
4.71416e-08
1.51511e-06
3.04172e-07
1.69986e-06
1.60152e-07
1.34624e-06
9.73124e-09
1.30419e-06
3.77747e-07
1.60307e-06
1.87928e-07
1.09111e-06
-1.34147e-07
9.02422e-07
-5.02677e-07
1.20028e-06
8.68297e-07
2.45574e-06
2.31493e-07
8.77661e-07
-6.15545e-08
3.4385e-07
-4.65608e-07
4.45403e-07
-1.13995e-06
7.09248e-07
-4.99537e-06
2.95744e-07
-9.86593e-06
7.55892e-08
-1.44783e-05
-2.34411e-06
-8.22888e-06
-1.85731e-05
6.23944e-17
-2.33268e-05
8.22888e-06
-2.33268e-05
1.44783e-05
-1.85731e-05
9.86593e-06
-2.34411e-06
4.99537e-06
7.55892e-08
1.13995e-06
2.95744e-07
4.65608e-07
7.09248e-07
6.15545e-08
4.45403e-07
-2.31493e-07
3.4385e-07
-8.68297e-07
8.77661e-07
5.02677e-07
2.45574e-06
1.34147e-07
1.20028e-06
-1.87928e-07
9.02422e-07
-3.77747e-07
1.09111e-06
-9.73124e-09
1.60307e-06
-1.60152e-07
1.30419e-06
-3.04172e-07
1.34624e-06
-4.71416e-08
1.69986e-06
-1.2484e-07
1.51511e-06
-2.22187e-07
1.52958e-06
-1.44458e-07
1.7555e-06
-1.06418e-07
1.85875e-06
8.64111e-08
2.0141e-06
1.22273e-07
1.89389e-06
1.41802e-07
1.82652e-06
1.66407e-07
1.80105e-06
2.23775e-07
1.8043e-06
2.8635e-07
1.77881e-06
3.72593e-07
1.73064e-06
4.24599e-07
1.60582e-06
4.64683e-07
1.46258e-06
4.87884e-07
1.29459e-06
4.70608e-07
1.09909e-06
4.24272e-07
9.18826e-07
3.64627e-07
7.74723e-07
3.01071e-07
6.67186e-07
2.3778e-07
5.89593e-07
1.76149e-07
5.35021e-07
1.16295e-07
4.98139e-07
5.77914e-08
4.7534e-07
4.64449e-07
-6.01012e-08
5.2455e-07
-1.20677e-07
5.35916e-07
-1.82078e-07
5.5954e-07
-2.44339e-07
5.97282e-07
-3.06813e-07
6.52067e-07
-3.67489e-07
7.27862e-07
-4.21878e-07
8.29113e-07
-4.61791e-07
9.58739e-07
-4.76144e-07
1.11344e-06
-4.58996e-07
1.27744e-06
-4.22495e-07
1.42607e-06
-3.71014e-07
1.55434e-06
-2.99543e-07
1.65917e-06
-2.37752e-07
1.71702e-06
-1.83501e-07
1.75005e-06
-1.47846e-07
1.76539e-06
-1.13787e-07
1.79246e-06
-5.85125e-08
1.83862e-06
6.98533e-08
1.88573e-06
1.27297e-07
1.8013e-06
1.75542e-07
1.70726e-06
1.32561e-07
1.57256e-06
1.07444e-07
1.54022e-06
2.2694e-07
1.58036e-06
1.62972e-07
1.41021e-06
1.00842e-07
1.36632e-06
2.59871e-07
1.44404e-06
1.49198e-07
1.20178e-06
-5.72748e-08
1.1089e-06
-1.72593e-07
1.3156e-06
4.76283e-07
1.80686e-06
2.10465e-07
1.14348e-06
8.75869e-08
4.66729e-07
4.66085e-08
4.86381e-07
2.39504e-07
5.16352e-07
1.0007e-07
4.35178e-07
-2.2851e-07
4.04169e-07
-2.35799e-06
-2.14629e-07
-7.33547e-06
-1.35956e-05
-5.53498e-17
-3.06623e-05
7.33547e-06
-3.06623e-05
2.35799e-06
-1.35956e-05
2.2851e-07
-2.14629e-07
-1.0007e-07
4.04169e-07
-2.39504e-07
4.35178e-07
-4.66085e-08
5.16352e-07
-8.75869e-08
4.86381e-07
-2.10465e-07
4.66729e-07
-4.76283e-07
1.14348e-06
1.72593e-07
1.80686e-06
5.72748e-08
1.3156e-06
-1.49198e-07
1.1089e-06
-2.59871e-07
1.20178e-06
-1.00842e-07
1.44404e-06
-1.62972e-07
1.36632e-06
-2.2694e-07
1.41021e-06
-1.07444e-07
1.58036e-06
-1.32561e-07
1.54022e-06
-1.75542e-07
1.57256e-06
-1.27297e-07
1.70726e-06
-6.98533e-08
1.8013e-06
5.85125e-08
1.88573e-06
1.13787e-07
1.83862e-06
1.47846e-07
1.79246e-06
1.83501e-07
1.76539e-06
2.37752e-07
1.75005e-06
2.99543e-07
1.71702e-06
3.71014e-07
1.65917e-06
4.22495e-07
1.55434e-06
4.58996e-07
1.42607e-06
4.76144e-07
1.27744e-06
4.61791e-07
1.11344e-06
4.21878e-07
9.58739e-07
3.67489e-07
8.29113e-07
3.06813e-07
7.27862e-07
2.44339e-07
6.52067e-07
1.82078e-07
5.97282e-07
1.20677e-07
5.5954e-07
6.01012e-08
5.35916e-07
5.2455e-07
-6.17955e-08
5.86346e-07
-1.23787e-07
5.97907e-07
-1.8601e-07
6.21762e-07
-2.48114e-07
6.59386e-07
-3.09011e-07
7.12965e-07
-3.66323e-07
7.85174e-07
-4.1568e-07
8.78469e-07
-4.50357e-07
9.93415e-07
-4.62725e-07
1.12581e-06
-4.49493e-07
1.26421e-06
-4.16851e-07
1.39343e-06
-3.68891e-07
1.50638e-06
-3.0755e-07
1.59782e-06
-2.48784e-07
1.65825e-06
-1.957e-07
1.69696e-06
-1.52336e-07
1.72203e-06
-1.08053e-07
1.74818e-06
-4.70776e-08
1.77764e-06
4.59732e-08
1.79268e-06
1.05491e-07
1.74178e-06
1.43653e-07
1.66909e-06
1.33659e-07
1.58256e-06
1.32416e-07
1.54147e-06
1.87158e-07
1.52562e-06
1.62822e-07
1.43454e-06
1.38813e-07
1.39033e-06
1.97111e-07
1.38574e-06
1.29931e-07
1.26896e-06
1.2201e-08
1.22663e-06
-1.10066e-08
1.33881e-06
2.81632e-07
1.51422e-06
1.83937e-07
1.24117e-06
1.32177e-07
5.18489e-07
1.06188e-07
5.12371e-07
1.13548e-07
5.08992e-07
5.58265e-08
4.929e-07
-3.0663e-08
4.90659e-07
-5.71818e-08
-1.8811e-07
-1.15694e-06
-1.24958e-05
2.46747e-18
-3.18192e-05
1.15694e-06
-3.18192e-05
5.71818e-08
-1.24958e-05
3.0663e-08
-1.8811e-07
-5.58265e-08
4.90659e-07
-1.13548e-07
4.929e-07
-1.06188e-07
5.08992e-07
-1.32177e-07
5.12371e-07
-1.83937e-07
5.18489e-07
-2.81632e-07
1.24117e-06
1.10066e-08
1.51422e-06
-1.2201e-08
1.33881e-06
-1.29931e-07
1.22663e-06
-1.97111e-07
1.26896e-06
-1.38813e-07
1.38574e-06
-1.62822e-07
1.39033e-06
-1.87158e-07
1.43454e-06
-1.32416e-07
1.52562e-06
-1.33659e-07
1.54147e-06
-1.43653e-07
1.58256e-06
-1.05491e-07
1.66909e-06
-4.59732e-08
1.74178e-06
4.70776e-08
1.79268e-06
1.08053e-07
1.77764e-06
1.52336e-07
1.74818e-06
1.957e-07
1.72203e-06
2.48784e-07
1.69696e-06
3.0755e-07
1.65825e-06
3.68891e-07
1.59782e-06
4.16851e-07
1.50638e-06
4.49493e-07
1.39343e-06
4.62725e-07
1.26421e-06
4.50357e-07
1.12581e-06
4.1568e-07
9.93415e-07
3.66323e-07
8.78469e-07
3.09011e-07
7.85174e-07
2.48114e-07
7.12965e-07
1.8601e-07
6.59386e-07
1.23787e-07
6.21762e-07
6.17955e-08
5.97907e-07
5.86346e-07
-6.27308e-08
6.49076e-07
-1.25357e-07
6.60533e-07
-1.87592e-07
6.83998e-07
-2.48744e-07
7.20538e-07
-3.07403e-07
7.71624e-07
-3.61057e-07
8.38828e-07
-4.0574e-07
9.23152e-07
-4.36156e-07
1.02383e-06
-4.471e-07
1.13675e-06
-4.36593e-07
1.2537e-06
-4.07896e-07
1.36473e-06
-3.64682e-07
1.46317e-06
-3.10944e-07
1.54409e-06
-2.5597e-07
1.60328e-06
-2.03706e-07
1.6447e-06
-1.55667e-07
1.67399e-06
-1.05651e-07
1.69816e-06
-4.50687e-08
1.71706e-06
2.82008e-08
1.71941e-06
8.39667e-08
1.68602e-06
1.19777e-07
1.63328e-06
1.2866e-07
1.57367e-06
1.3832e-07
1.53181e-06
1.65512e-07
1.49843e-06
1.5928e-07
1.44078e-06
1.50251e-07
1.39935e-06
1.6521e-07
1.37078e-06
1.24026e-07
1.31015e-06
6.23642e-08
1.28829e-06
6.45176e-08
1.33666e-06
1.89682e-07
1.38906e-06
1.56662e-07
1.27419e-06
1.31452e-07
5.43699e-07
1.09002e-07
5.34821e-07
8.89736e-08
5.2902e-07
5.69851e-08
5.24889e-07
2.10227e-08
5.26621e-07
4.56418e-09
-1.71652e-07
-3.63502e-07
-1.21278e-05
-1.00724e-18
-3.21827e-05
3.63502e-07
-3.21827e-05
-4.56418e-09
-1.21278e-05
-2.10227e-08
-1.71652e-07
-5.69851e-08
5.26621e-07
-8.89736e-08
5.24889e-07
-1.09002e-07
5.2902e-07
-1.31452e-07
5.34821e-07
-1.56662e-07
5.43699e-07
-1.89682e-07
1.27419e-06
-6.45176e-08
1.38906e-06
-6.23642e-08
1.33666e-06
-1.24026e-07
1.28829e-06
-1.6521e-07
1.31015e-06
-1.50251e-07
1.37078e-06
-1.5928e-07
1.39935e-06
-1.65512e-07
1.44078e-06
-1.3832e-07
1.49843e-06
-1.2866e-07
1.53181e-06
-1.19777e-07
1.57367e-06
-8.39667e-08
1.63328e-06
-2.82008e-08
1.68602e-06
4.50687e-08
1.71941e-06
1.05651e-07
1.71706e-06
1.55667e-07
1.69816e-06
2.03706e-07
1.67399e-06
2.5597e-07
1.6447e-06
3.10944e-07
1.60328e-06
3.64682e-07
1.54409e-06
4.07896e-07
1.46317e-06
4.36593e-07
1.36473e-06
4.471e-07
1.2537e-06
4.36156e-07
1.13675e-06
4.0574e-07
1.02383e-06
3.61057e-07
9.23152e-07
3.07403e-07
8.38828e-07
2.48744e-07
7.71624e-07
1.87592e-07
7.20538e-07
1.25357e-07
6.83998e-07
6.27308e-08
6.60533e-07
6.49076e-07
-6.27867e-08
7.11863e-07
-1.25169e-07
7.22916e-07
-1.86563e-07
7.45391e-07
-2.45994e-07
7.7997e-07
-3.01868e-07
8.27497e-07
-3.51724e-07
8.88684e-07
-3.92142e-07
9.63571e-07
-4.19073e-07
1.05076e-06
-4.28961e-07
1.14664e-06
-4.20544e-07
1.24528e-06
-3.95687e-07
1.33988e-06
-3.57488e-07
1.42497e-06
-3.0996e-07
1.49656e-06
-2.58996e-07
1.55231e-06
-2.08047e-07
1.59375e-06
-1.5804e-07
1.62398e-06
-1.05955e-07
1.64608e-06
-4.81961e-08
1.6593e-06
1.33899e-08
1.65783e-06
6.43971e-08
1.63501e-06
1.00062e-07
1.59762e-06
1.19126e-07
1.55461e-06
1.34182e-07
1.51675e-06
1.51253e-07
1.48136e-06
1.52944e-07
1.43908e-06
1.49791e-07
1.40251e-06
1.49359e-07
1.37121e-06
1.24551e-07
1.33496e-06
9.38091e-08
1.31903e-06
9.82902e-08
1.33217e-06
1.47712e-07
1.33964e-06
1.34834e-07
1.28707e-06
1.2057e-07
5.57963e-07
1.0413e-07
5.51261e-07
8.66035e-08
5.46546e-07
6.77324e-08
5.4376e-07
5.13804e-08
5.42973e-07
3.11945e-08
-1.51466e-07
-2.24786e-07
-1.18718e-05
-2.76435e-17
-3.24075e-05
2.24786e-07
-3.24075e-05
-3.11945e-08
-1.18718e-05
-5.13804e-08
-1.51466e-07
-6.77324e-08
5.42973e-07
-8.66035e-08
5.4376e-07
-1.0413e-07
5.46546e-07
-1.2057e-07
5.51261e-07
-1.34834e-07
5.57963e-07
-1.47712e-07
1.28707e-06
-9.82902e-08
1.33964e-06
-9.38091e-08
1.33217e-06
-1.24551e-07
1.31903e-06
-1.49359e-07
1.33496e-06
-1.49791e-07
1.37121e-06
-1.52944e-07
1.40251e-06
-1.51253e-07
1.43908e-06
-1.34182e-07
1.48136e-06
-1.19126e-07
1.51675e-06
-1.00062e-07
1.55461e-06
-6.43971e-08
1.59762e-06
-1.33899e-08
1.63501e-06
4.81961e-08
1.65783e-06
1.05955e-07
1.6593e-06
1.5804e-07
1.64608e-06
2.08047e-07
1.62398e-06
2.58996e-07
1.59375e-06
3.0996e-07
1.55231e-06
3.57488e-07
1.49656e-06
3.95687e-07
1.42497e-06
4.20544e-07
1.33988e-06
4.28961e-07
1.24528e-06
4.19073e-07
1.14664e-06
3.92142e-07
1.05076e-06
3.51724e-07
9.63571e-07
3.01868e-07
8.88684e-07
2.45994e-07
8.27497e-07
1.86563e-07
7.7997e-07
1.25169e-07
7.45391e-07
6.27867e-08