/*--------------------------------*- C++ -*----------------------------------*\
  =========                 |
  \\      /  F ield         | OpenFOAM: The Open Source CFD Toolbox
   \\    /   O peration     | Website:  https://openfoam.org
    \\  /    A nd           | Version:  10
     \\/     M anipulation  |
\*---------------------------------------------------------------------------*/
FoamFile
{
    format      ascii;
    class       surfaceScalarField;
    location    "14400";
    object      phi;
}
// * * * * * * * * * * * * * * * * * * * * * * * * * * * * * * * * * * * * * //

dimensions      [0 3 -1 0 0 0 0];

internalField   nonuniform List<scalar> 
12640
(
-1.82837e-08
1.82837e-08
-3.67891e-08
1.85054e-08
-5.57509e-08
1.89618e-08
-7.54315e-08
1.96806e-08
-9.61402e-08
2.07086e-08
-1.18259e-07
2.21193e-08
-1.42286e-07
2.40263e-08
-1.68894e-07
2.66082e-08
-1.99049e-07
3.01546e-08
-2.34207e-07
3.51582e-08
-2.76715e-07
4.25077e-08
-3.30615e-07
5.39003e-08
-4.02966e-07
7.23512e-08
-4.95499e-07
9.25328e-08
-2.30749e-07
-2.6475e-07
-4.26123e-06
4.03048e-06
-4.3035e-06
4.22742e-08
-4.13565e-06
-1.6785e-07
-3.75389e-06
-3.81766e-07
-4.30781e-06
5.53929e-07
-4.29982e-06
-7.99287e-09
-4.08925e-06
-2.10568e-07
-3.99167e-06
-9.75849e-08
-3.84705e-06
-1.44617e-07
-3.77351e-06
-7.35422e-08
-3.71046e-06
-6.30479e-08
-3.66541e-06
-4.50484e-08
-3.63039e-06
-3.50272e-08
-3.58607e-06
-4.43201e-08
-3.53984e-06
-4.62264e-08
-3.46621e-06
-7.36297e-08
-3.30328e-06
-1.62933e-07
-3.16226e-06
-1.41014e-07
-2.96312e-06
-1.99141e-07
-2.68924e-06
-2.73879e-07
-2.32667e-06
-3.62576e-07
-1.86684e-06
-4.59829e-07
-1.31143e-06
-5.55412e-07
-6.77852e-07
-6.33575e-07
-2.32297e-17
-6.77852e-07
6.77852e-07
-6.77852e-07
1.31143e-06
-6.33575e-07
1.86684e-06
-5.55412e-07
2.32667e-06
-4.59829e-07
2.68924e-06
-3.62576e-07
2.96312e-06
-2.73879e-07
3.16226e-06
-1.99141e-07
3.30328e-06
-1.41014e-07
3.46621e-06
-1.62933e-07
3.53984e-06
-7.36297e-08
3.58607e-06
-4.62264e-08
3.63039e-06
-4.43201e-08
3.66541e-06
-3.50272e-08
3.71046e-06
-4.50484e-08
3.77351e-06
-6.30479e-08
3.84705e-06
-7.35422e-08
3.99167e-06
-1.44617e-07
4.08925e-06
-9.75849e-08
4.29982e-06
-2.10568e-07
4.30781e-06
-7.99287e-09
3.75389e-06
5.53929e-07
4.13565e-06
-3.81766e-07
4.3035e-06
-1.6785e-07
4.26123e-06
4.22742e-08
2.30749e-07
4.03048e-06
4.95499e-07
-2.6475e-07
4.02966e-07
9.25328e-08
3.30615e-07
7.23512e-08
2.76715e-07
5.39003e-08
2.34207e-07
4.25077e-08
1.99049e-07
3.51582e-08
1.68894e-07
3.01546e-08
1.42286e-07
2.66082e-08
1.18259e-07
2.40264e-08
9.61402e-08
2.21193e-08
7.54315e-08
2.07086e-08
5.57509e-08
1.96806e-08
3.67891e-08
1.89618e-08
1.82837e-08
1.85054e-08
1.82837e-08
-2.00435e-08
3.83272e-08
-4.03296e-08
3.87915e-08
-6.11148e-08
3.97471e-08
-8.26863e-08
4.12521e-08
-1.05382e-07
4.34042e-08
-1.29619e-07
4.63568e-08
-1.5594e-07
5.0347e-08
-1.85079e-07
5.5747e-08
-2.18084e-07
6.31598e-08
-2.56535e-07
7.36091e-08
-3.02966e-07
8.89391e-08
-3.6175e-07
1.12684e-07
-4.41024e-07
1.51626e-07
-5.60628e-07
2.12137e-07
-1.05237e-06
2.26991e-07
-2.5852e-07
3.23663e-06
-3.86055e-06
3.6443e-06
-4.27658e-06
2.48176e-07
-3.89445e-06
-7.63891e-07
-4.57631e-06
1.23579e-06
-4.56849e-06
-1.58182e-08
-4.34066e-06
-4.38393e-07
-4.25192e-06
-1.86329e-07
-4.09759e-06
-2.98946e-07
-4.02616e-06
-1.44972e-07
-3.96179e-06
-1.2742e-07
-3.91674e-06
-9.00979e-08
-3.88246e-06
-6.93091e-08
-3.83659e-06
-9.01826e-08
-3.78995e-06
-9.28705e-08
-3.71539e-06
-1.48191e-07
-3.54778e-06
-3.30539e-07
-3.4009e-06
-2.87899e-07
-3.1918e-06
-4.08237e-07
-2.9019e-06
-5.63785e-07
-2.51559e-06
-7.48882e-07
-2.02261e-06
-9.52813e-07
-1.42347e-06
-1.15455e-06
-7.36681e-07
-1.32036e-06
-3.13063e-17
-1.41453e-06
7.36681e-07
-1.41453e-06
1.42347e-06
-1.32036e-06
2.02261e-06
-1.15455e-06
2.51559e-06
-9.52813e-07
2.9019e-06
-7.48882e-07
3.1918e-06
-5.63785e-07
3.4009e-06
-4.08237e-07
3.54778e-06
-2.87899e-07
3.71539e-06
-3.30539e-07
3.78995e-06
-1.48191e-07
3.83659e-06
-9.28705e-08
3.88246e-06
-9.01826e-08
3.91674e-06
-6.93091e-08
3.96179e-06
-9.00979e-08
4.02616e-06
-1.2742e-07
4.09759e-06
-1.44972e-07
4.25192e-06
-2.98946e-07
4.34066e-06
-1.86329e-07
4.56849e-06
-4.38393e-07
4.57631e-06
-1.58182e-08
3.89445e-06
1.23579e-06
4.27658e-06
-7.63891e-07
3.86055e-06
2.48176e-07
2.5852e-07
3.6443e-06
1.05237e-06
3.23663e-06
5.60628e-07
2.26991e-07
4.41024e-07
2.12137e-07
3.6175e-07
1.51626e-07
3.02966e-07
1.12684e-07
2.56535e-07
8.89391e-08
2.18084e-07
7.36091e-08
1.85079e-07
6.31598e-08
1.5594e-07
5.5747e-08
1.29619e-07
5.0347e-08
1.05382e-07
4.63568e-08
8.26863e-08
4.34042e-08
6.11148e-08
4.12521e-08
4.03296e-08
3.97471e-08
2.00435e-08
3.87915e-08
3.83272e-08
-2.19577e-08
6.02849e-08
-4.41799e-08
6.10136e-08
-6.69463e-08
6.25135e-08
-9.05694e-08
6.48752e-08
-1.15417e-07
6.82516e-08
-1.41942e-07
7.28817e-08
-1.7073e-07
7.91355e-08
-2.02575e-07
8.7592e-08
-2.38603e-07
9.91871e-08
-2.80498e-07
1.15504e-07
-3.30944e-07
1.39385e-07
-3.94551e-07
1.76291e-07
-4.80268e-07
2.37343e-07
-6.14062e-07
3.45931e-07
-9.82252e-07
5.9518e-07
-5.81055e-07
2.83543e-06
-2.01647e-07
3.2649e-06
-2.54584e-06
2.59237e-06
-3.86899e-06
5.59259e-07
-4.89602e-06
2.26282e-06
-4.88512e-06
-2.67269e-08
-4.62295e-06
-7.00556e-07
-4.56003e-06
-2.4925e-07
-4.38619e-06
-4.72792e-07
-4.32207e-06
-2.09086e-07
-4.25525e-06
-1.94244e-07
-4.21042e-06
-1.34923e-07
-4.17803e-06
-1.01704e-07
-4.12932e-06
-1.38886e-07
-4.0835e-06
-1.38689e-07
-4.01154e-06
-2.20151e-07
-3.84641e-06
-4.95676e-07
-3.69809e-06
-4.36219e-07
-3.4831e-06
-6.23231e-07
-3.17931e-06
-8.67573e-07
-2.76851e-06
-1.15968e-06
-2.23675e-06
-1.48458e-06
-1.58098e-06
-1.81032e-06
-8.20567e-07
-2.08077e-06
-2.22867e-17
-2.2351e-06
8.20567e-07
-2.2351e-06
1.58098e-06
-2.08077e-06
2.23675e-06
-1.81032e-06
2.76851e-06
-1.48458e-06
3.17931e-06
-1.15968e-06
3.4831e-06
-8.67573e-07
3.69809e-06
-6.23231e-07
3.84641e-06
-4.36219e-07
4.01154e-06
-4.95676e-07
4.0835e-06
-2.20151e-07
4.12932e-06
-1.38689e-07
4.17803e-06
-1.38886e-07
4.21042e-06
-1.01704e-07
4.25525e-06
-1.34923e-07
4.32207e-06
-1.94244e-07
4.38619e-06
-2.09086e-07
4.56003e-06
-4.72792e-07
4.62295e-06
-2.4925e-07
4.88512e-06
-7.00556e-07
4.89602e-06
-2.67269e-08
3.86899e-06
2.26282e-06
2.54584e-06
5.59259e-07
2.01647e-07
2.59237e-06
5.81055e-07
3.2649e-06
9.82252e-07
2.83543e-06
6.14062e-07
5.9518e-07
4.80268e-07
3.45931e-07
3.94551e-07
2.37343e-07
3.30944e-07
1.76291e-07
2.80498e-07
1.39385e-07
2.38603e-07
1.15504e-07
2.02575e-07
9.91871e-08
1.7073e-07
8.7592e-08
1.41942e-07
7.91355e-08
1.15417e-07
7.28817e-08
9.05694e-08
6.82516e-08
6.69463e-08
6.48752e-08
4.41799e-08
6.25135e-08
2.19577e-08
6.10136e-08
6.02849e-08
-2.40336e-08
8.43186e-08
-4.83544e-08
8.53344e-08
-7.32659e-08
8.7425e-08
-9.91066e-08
9.07159e-08
-1.26274e-07
9.54185e-08
-1.55255e-07
1.01863e-07
-1.8668e-07
1.1056e-07
-2.21392e-07
1.22305e-07
-2.60583e-07
1.38378e-07
-3.06015e-07
1.60935e-07
-3.60449e-07
1.9382e-07
-4.28555e-07
2.44397e-07
-5.19303e-07
3.28091e-07
-6.56379e-07
4.83008e-07
-9.23309e-07
8.6211e-07
-6.07784e-07
2.51991e-06
-2.96693e-07
2.95381e-06
-1.56245e-07
2.45192e-06
-5.56348e-07
9.59362e-07
-4.89023e-06
6.59671e-06
-5.16108e-06
2.44122e-07
-4.88802e-06
-9.73615e-07
-4.89837e-06
-2.389e-07
-4.69274e-06
-6.78418e-07
-4.64937e-06
-2.52458e-07
-4.57962e-06
-2.63991e-07
-4.5367e-06
-1.77843e-07
-4.50919e-06
-1.29217e-07
-4.45598e-06
-1.92099e-07
-4.4136e-06
-1.81069e-07
-4.35028e-06
-2.83469e-07
-4.19984e-06
-6.46114e-07
-4.05862e-06
-5.77441e-07
-3.84634e-06
-8.35515e-07
-3.53471e-06
-1.1792e-06
-3.10227e-06
-1.59212e-06
-2.52818e-06
-2.05867e-06
-1.80084e-06
-2.53766e-06
-9.39441e-07
-2.94217e-06
-1.11197e-17
-3.17454e-06
9.39441e-07
-3.17454e-06
1.80084e-06
-2.94217e-06
2.52818e-06
-2.53766e-06
3.10227e-06
-2.05867e-06
3.53471e-06
-1.59212e-06
3.84634e-06
-1.1792e-06
4.05862e-06
-8.35515e-07
4.19984e-06
-5.77441e-07
4.35028e-06
-6.46114e-07
4.4136e-06
-2.83469e-07
4.45598e-06
-1.81069e-07
4.50919e-06
-1.92099e-07
4.5367e-06
-1.29217e-07
4.57962e-06
-1.77843e-07
4.64937e-06
-2.63991e-07
4.69274e-06
-2.52458e-07
4.89837e-06
-6.78418e-07
4.88802e-06
-2.389e-07
5.16108e-06
-9.73615e-07
4.89023e-06
2.44122e-07
5.56348e-07
6.59671e-06
1.56245e-07
9.59362e-07
2.96693e-07
2.45192e-06
6.07784e-07
2.95381e-06
9.23309e-07
2.51991e-06
6.56379e-07
8.6211e-07
5.19303e-07
4.83008e-07
4.28555e-07
3.28091e-07
3.60449e-07
2.44397e-07
3.06015e-07
1.9382e-07
2.60583e-07
1.60935e-07
2.21392e-07
1.38378e-07
1.8668e-07
1.22305e-07
1.55255e-07
1.1056e-07
1.26274e-07
1.01863e-07
9.91066e-08
9.54185e-08
7.32659e-08
9.07159e-08
4.83544e-08
8.7425e-08
2.40336e-08
8.53344e-08
8.43186e-08
-2.62767e-08
1.10595e-07
-5.28634e-08
1.11921e-07
-8.00877e-08
1.14649e-07
-1.08314e-07
1.18942e-07
-1.37967e-07
1.25072e-07
-1.69568e-07
1.33465e-07
-2.03783e-07
1.44775e-07
-2.41499e-07
1.6002e-07
-2.83948e-07
1.80827e-07
-3.32924e-07
2.09911e-07
-3.91166e-07
2.52062e-07
-4.63126e-07
3.16356e-07
-5.56769e-07
4.21733e-07
-6.88572e-07
6.14811e-07
-8.75568e-07
1.04911e-06
-6.30738e-07
2.27508e-06
-3.66939e-07
2.69001e-06
-2.94923e-07
2.3799e-06
-1.0521e-06
1.71654e-06
3.71824e-07
5.17278e-06
-2.00643e-06
2.62237e-06
-4.75091e-06
1.77087e-06
-5.19626e-06
2.06447e-07
-4.97862e-06
-8.96056e-07
-4.99662e-06
-2.34464e-07
-4.92657e-06
-3.3404e-07
-4.89072e-06
-2.1369e-07
-4.8747e-06
-1.45241e-07
-4.81397e-06
-2.52827e-07
-4.77952e-06
-2.1552e-07
-4.73381e-06
-3.29172e-07
-4.6165e-06
-7.63432e-07
-4.4971e-06
-6.96837e-07
-4.3032e-06
-1.02942e-06
-3.99486e-06
-1.48754e-06
-3.54934e-06
-2.03764e-06
-2.93354e-06
-2.67447e-06
-2.11593e-06
-3.35527e-06
-1.11263e-06
-3.94547e-06
-1.10188e-17
-4.28717e-06
1.11263e-06
-4.28717e-06
2.11593e-06
-3.94547e-06
2.93354e-06
-3.35527e-06
3.54934e-06
-2.67447e-06
3.99486e-06
-2.03764e-06
4.3032e-06
-1.48754e-06
4.4971e-06
-1.02942e-06
4.6165e-06
-6.96837e-07
4.73381e-06
-7.63432e-07
4.77952e-06
-3.29172e-07
4.81397e-06
-2.1552e-07
4.8747e-06
-2.52827e-07
4.89072e-06
-1.45241e-07
4.92657e-06
-2.1369e-07
4.99662e-06
-3.3404e-07
4.97862e-06
-2.34464e-07
5.19626e-06
-8.96056e-07
4.75091e-06
2.06447e-07
2.00643e-06
1.77087e-06
-3.71824e-07
2.62237e-06
1.0521e-06
5.17278e-06
2.94923e-07
1.71654e-06
3.66939e-07
2.3799e-06
6.30738e-07
2.69001e-06
8.75568e-07
2.27508e-06
6.88572e-07
1.04911e-06
5.56769e-07
6.14811e-07
4.63126e-07
4.21733e-07
3.91166e-07
3.16356e-07
3.32924e-07
2.52062e-07
2.83948e-07
2.09911e-07
2.41499e-07
1.80827e-07
2.03783e-07
1.6002e-07
1.69568e-07
1.44775e-07
1.37967e-07
1.33465e-07
1.08314e-07
1.25072e-07
8.00877e-08
1.18942e-07
5.28634e-08
1.14649e-07
2.62767e-08
1.11921e-07
1.10595e-07
-2.86889e-08
1.39284e-07
-5.77104e-08
1.40943e-07
-8.74149e-08
1.44354e-07
-1.18191e-07
1.49718e-07
-1.5049e-07
1.57371e-07
-1.84861e-07
1.67836e-07
-2.21997e-07
1.81912e-07
-2.62811e-07
2.00834e-07
-3.08547e-07
2.26563e-07
-3.60964e-07
2.62328e-07
-4.22642e-07
3.1374e-07
-4.97481e-07
3.91195e-07
-5.91463e-07
5.15715e-07
-7.12022e-07
7.35371e-07
-8.38336e-07
1.17542e-06
-6.50516e-07
2.08726e-06
-4.33329e-07
2.47282e-06
-3.89496e-07
2.33607e-06
-8.10006e-07
2.13705e-06
1.92574e-07
4.1702e-06
1.1889e-07
2.69606e-06
-1.92275e-07
2.08204e-06
-2.77718e-06
2.79135e-06
-4.8354e-06
1.16217e-06
-5.27043e-06
2.00562e-07
-5.25916e-06
-3.45315e-07
-5.25744e-06
-2.15401e-07
-5.27191e-06
-1.30774e-07
-5.19916e-06
-3.25575e-07
-5.18102e-06
-2.33658e-07
-5.16567e-06
-3.44524e-07
-5.10718e-06
-8.21924e-07
-5.03477e-06
-7.69243e-07
-4.8879e-06
-1.17629e-06
-4.60006e-06
-1.77537e-06
-4.16109e-06
-2.47661e-06
-3.51658e-06
-3.31898e-06
-2.58626e-06
-4.28559e-06
-1.37559e-06
-5.15614e-06
-2.1524e-17
-5.66276e-06
1.37559e-06
-5.66276e-06
2.58626e-06
-5.15614e-06
3.51658e-06
-4.28559e-06
4.16109e-06
-3.31898e-06
4.60006e-06
-2.47661e-06
4.8879e-06
-1.77537e-06
5.03477e-06
-1.17629e-06
5.10718e-06
-7.69243e-07
5.16567e-06
-8.21924e-07
5.18102e-06
-3.44524e-07
5.19916e-06
-2.33658e-07
5.27191e-06
-3.25575e-07
5.25744e-06
-1.30774e-07
5.25916e-06
-2.15401e-07
5.27043e-06
-3.45315e-07
4.8354e-06
2.00562e-07
2.77718e-06
1.16217e-06
1.92275e-07
2.79135e-06
-1.1889e-07
2.08204e-06
-1.92574e-07
2.69606e-06
8.10006e-07
4.1702e-06
3.89496e-07
2.13705e-06
4.33329e-07
2.33607e-06
6.50516e-07
2.47282e-06
8.38336e-07
2.08726e-06
7.12022e-07
1.17542e-06
5.91463e-07
7.35371e-07
4.97481e-07
5.15715e-07
4.22642e-07
3.91195e-07
3.60964e-07
3.1374e-07
3.08547e-07
2.62328e-07
2.62811e-07
2.26563e-07
2.21997e-07
2.00834e-07
1.84861e-07
1.81912e-07
1.5049e-07
1.67836e-07
1.18191e-07
1.57371e-07
8.74149e-08
1.49718e-07
5.77104e-08
1.44354e-07
2.86889e-08
1.40943e-07
1.39284e-07
-3.12682e-08
1.70552e-07
-6.28898e-08
1.72564e-07
-9.52367e-08
1.76701e-07
-1.28719e-07
1.832e-07
-1.63809e-07
1.92461e-07
-2.01075e-07
2.05102e-07
-2.41227e-07
2.22063e-07
-2.85178e-07
2.44785e-07
-3.3414e-07
2.75525e-07
-3.89759e-07
3.17948e-07
-4.54291e-07
3.78272e-07
-5.30742e-07
4.67646e-07
-6.22433e-07
6.07406e-07
-7.28279e-07
8.41217e-07
-8.10337e-07
1.25748e-06
-6.67341e-07
1.94426e-06
-4.91658e-07
2.29714e-06
-4.51037e-07
2.29545e-06
-6.45016e-07
2.33103e-06
3.47281e-08
3.49046e-06
5.68877e-08
2.6739e-06
-8.30446e-08
2.22197e-06
2.32417e-07
2.47589e-06
-1.52894e-07
1.54748e-06
-1.85018e-06
1.89785e-06
-5.01091e-06
2.81541e-06
-5.45533e-06
2.2902e-07
-5.65075e-06
6.46378e-08
-5.58612e-06
-3.90204e-07
-5.61018e-06
-2.09594e-07
-5.64592e-06
-3.08789e-07
-5.6792e-06
-7.88639e-07
-5.69767e-06
-7.50772e-07
-5.65508e-06
-1.21889e-06
-5.40491e-06
-2.02554e-06
-5.01465e-06
-2.86687e-06
-4.39194e-06
-3.94169e-06
-3.32673e-06
-5.3508e-06
-1.79578e-06
-6.6871e-06
-1.30026e-17
-7.45853e-06
1.79578e-06
-7.45853e-06
3.32673e-06
-6.6871e-06
4.39194e-06
-5.3508e-06
5.01465e-06
-3.94169e-06
5.40491e-06
-2.86687e-06
5.65508e-06
-2.02554e-06
5.69767e-06
-1.21889e-06
5.6792e-06
-7.50772e-07
5.64592e-06
-7.88639e-07
5.61018e-06
-3.08789e-07
5.58612e-06
-2.09594e-07
5.65075e-06
-3.90204e-07
5.45533e-06
6.46378e-08
5.01091e-06
2.2902e-07
1.85018e-06
2.81541e-06
1.52894e-07
1.89785e-06
-2.32417e-07
1.54748e-06
8.30446e-08
2.47589e-06
-5.68877e-08
2.22197e-06
-3.47281e-08
2.6739e-06
6.45016e-07
3.49046e-06
4.51037e-07
2.33103e-06
4.91658e-07
2.29545e-06
6.67341e-07
2.29714e-06
8.10337e-07
1.94426e-06
7.28279e-07
1.25748e-06
6.22433e-07
8.41217e-07
5.30742e-07
6.07406e-07
4.54291e-07
4.67646e-07
3.89759e-07
3.78272e-07
3.3414e-07
3.17948e-07
2.85178e-07
2.75525e-07
2.41227e-07
2.44785e-07
2.01075e-07
2.22063e-07
1.63809e-07
2.05102e-07
1.28719e-07
1.92461e-07
9.52367e-08
1.832e-07
6.28898e-08
1.76701e-07
3.12682e-08
1.72564e-07
1.70552e-07
-3.40059e-08
2.04558e-07
-6.83834e-08
2.06942e-07
-1.03522e-07
2.11839e-07
-1.39848e-07
2.19526e-07
-1.77849e-07
2.30462e-07
-2.18101e-07
2.45355e-07
-2.61311e-07
2.65273e-07
-3.08362e-07
2.91837e-07
-3.60383e-07
3.27546e-07
-4.18809e-07
3.76374e-07
-4.85405e-07
4.44868e-07
-5.62001e-07
5.44241e-07
-6.49023e-07
6.94429e-07
-7.3884e-07
9.31033e-07
-7.89879e-07
1.30852e-06
-6.81131e-07
1.83551e-06
-5.39506e-07
2.15551e-06
-4.89584e-07
2.24553e-06
-5.40475e-07
2.38192e-06
-7.95203e-08
3.0295e-06
-2.69642e-09
2.59707e-06
-5.45122e-08
2.27378e-06
1.21199e-07
2.30018e-06
-1.08804e-07
1.77748e-06
-1.70238e-07
1.95929e-06
2.70886e-07
2.37429e-06
-6.96191e-07
1.1961e-06
-4.83936e-06
4.20781e-06
-5.57807e-06
3.48499e-07
-5.93516e-06
1.47502e-07
-6.13056e-06
-1.13387e-07
-6.30812e-06
-6.11087e-07
-6.49917e-06
-5.59718e-07
-6.70516e-06
-1.01289e-06
-6.46214e-06
-2.26856e-06
-6.21095e-06
-3.11806e-06
-5.7811e-06
-4.37154e-06
-4.57566e-06
-6.55624e-06
-2.50684e-06
-8.75592e-06
8.32577e-18
-9.96538e-06
2.50684e-06
-9.96538e-06
4.57566e-06
-8.75592e-06
5.7811e-06
-6.55624e-06
6.21095e-06
-4.37154e-06
6.46214e-06
-3.11806e-06
6.70516e-06
-2.26856e-06
6.49917e-06
-1.01289e-06
6.30812e-06
-5.59718e-07
6.13056e-06
-6.11087e-07
5.93516e-06
-1.13387e-07
5.57807e-06
1.47502e-07
4.83936e-06
3.48499e-07
6.96191e-07
4.20781e-06
-2.70886e-07
1.1961e-06
1.70238e-07
2.37429e-06
1.08804e-07
1.95929e-06
-1.21199e-07
1.77748e-06
5.45122e-08
2.30018e-06
2.69642e-09
2.27378e-06
7.95203e-08
2.59707e-06
5.40475e-07
3.0295e-06
4.89584e-07
2.38192e-06
5.39506e-07
2.24553e-06
6.81131e-07
2.15551e-06
7.89879e-07
1.83551e-06
7.3884e-07
1.30852e-06
6.49023e-07
9.31033e-07
5.62001e-07
6.94429e-07
4.85405e-07
5.44241e-07
4.18809e-07
4.44868e-07
3.60383e-07
3.76374e-07
3.08362e-07
3.27546e-07
2.61311e-07
2.91837e-07
2.18101e-07
2.65273e-07
1.77849e-07
2.45355e-07
1.39848e-07
2.30462e-07
1.03522e-07
2.19526e-07
6.83834e-08
2.11839e-07
3.40059e-08
2.06942e-07
2.04558e-07
-3.68855e-08
2.41444e-07
-7.41561e-08
2.44212e-07
-1.12213e-07
2.49896e-07
-1.51494e-07
2.58806e-07
-1.92488e-07
2.71456e-07
-2.35767e-07
2.88634e-07
-2.8201e-07
3.11515e-07
-3.32032e-07
3.41859e-07
-3.86816e-07
3.8233e-07
-4.47492e-07
4.37051e-07
-5.15186e-07
5.12561e-07
-5.90393e-07
6.19448e-07
-6.70868e-07
7.74904e-07
-7.4497e-07
1.00514e-06
-7.75044e-07
1.33859e-06
-6.91634e-07
1.7521e-06
-5.76146e-07
2.04003e-06
-5.13355e-07
2.18274e-06
-4.80597e-07
2.34916e-06
-1.62149e-07
2.71105e-06
-5.89752e-08
2.4939e-06
-5.52165e-08
2.27003e-06
4.23632e-08
2.2026e-06
-8.78361e-08
1.90768e-06
-1.14811e-07
1.98626e-06
9.2979e-08
2.1665e-06
-4.30282e-07
1.71936e-06
7.3093e-07
3.0466e-06
-3.73182e-08
1.11675e-06
-1.07022e-06
1.1804e-06
-5.62077e-06
4.43717e-06
-6.47832e-06
2.46468e-07
-7.09642e-06
5.83747e-08
-8.15692e-06
4.76138e-08
-7.63193e-06
-2.79355e-06
-7.77316e-06
-2.97683e-06
-8.15201e-06
-3.99269e-06
-6.8739e-06
-7.83436e-06
-3.77376e-06
-1.18561e-05
-1.16552e-17
-1.37391e-05
3.77376e-06
-1.37391e-05
6.8739e-06
-1.18561e-05
8.15201e-06
-7.83436e-06
7.77316e-06
-3.99269e-06
7.63193e-06
-2.97683e-06
8.15692e-06
-2.79355e-06
7.09642e-06
4.76138e-08
6.47832e-06
5.83747e-08
5.62077e-06
2.46468e-07
1.07022e-06
4.43717e-06
3.73182e-08
1.1804e-06
-7.3093e-07
1.11675e-06
4.30282e-07
3.0466e-06
-9.2979e-08
1.71936e-06
1.14811e-07
2.1665e-06
8.78361e-08
1.98626e-06
-4.23632e-08
1.90768e-06
5.52165e-08
2.2026e-06
5.89752e-08
2.27003e-06
1.62149e-07
2.4939e-06
4.80597e-07
2.71105e-06
5.13355e-07
2.34916e-06
5.76146e-07
2.18274e-06
6.91634e-07
2.04003e-06
7.75044e-07
1.7521e-06
7.4497e-07
1.33859e-06
6.70868e-07
1.00514e-06
5.90393e-07
7.74904e-07
5.15186e-07
6.19448e-07
4.47492e-07
5.12561e-07
3.86816e-07
4.37051e-07
3.32032e-07
3.8233e-07
2.8201e-07
3.41859e-07
2.35767e-07
3.11515e-07
1.92488e-07
2.88634e-07
1.51494e-07
2.71456e-07
1.12213e-07
2.58806e-07
7.41561e-08
2.49896e-07
3.68855e-08
2.44212e-07
2.41444e-07
-3.98798e-08
2.81324e-07
-8.01514e-08
2.84484e-07
-1.21221e-07
2.90966e-07
-1.63525e-07
3.0111e-07
-2.07545e-07
3.15476e-07
-2.53826e-07
3.34915e-07
-3.0299e-07
3.60679e-07
-3.55745e-07
3.94614e-07
-4.12863e-07
4.39448e-07
-4.75081e-07
4.99268e-07
-5.42787e-07
5.80267e-07
-6.15152e-07
6.91813e-07
-6.87832e-07
8.47584e-07
-7.47591e-07
1.06489e-06
-7.6389e-07
1.35489e-06
-6.98583e-07
1.6868e-06
-6.02183e-07
1.94363e-06
-5.28369e-07
2.10892e-06
-4.51694e-07
2.27249e-06
-2.23115e-07
2.48247e-06
-1.11353e-07
2.38214e-06
-7.46178e-08
2.23329e-06
-1.50127e-08
2.143e-06
-7.99599e-08
1.97263e-06
-8.83567e-08
1.99466e-06
8.77372e-09
2.06937e-06
-1.95277e-07
1.92341e-06
3.99419e-07
2.4519e-06
-2.57647e-08
1.54193e-06
-4.90818e-07
1.64545e-06
8.8026e-07
3.06609e-06
-5.78617e-08
1.18459e-06
-7.41252e-07
7.41765e-07
-1.88195e-06
1.18831e-06
-5.03609e-06
3.6059e-07
-8.11914e-06
1.06216e-07
-1.21746e-05
6.27938e-08
-1.13331e-05
-8.67592e-06
-6.00393e-06
-1.71852e-05
-5.99022e-17
-1.97431e-05
6.00393e-06
-1.97431e-05
1.13331e-05
-1.71852e-05
1.21746e-05
-8.67592e-06
8.11914e-06
6.27938e-08
5.03609e-06
1.06216e-07
1.88195e-06
3.6059e-07
7.41252e-07
1.18831e-06
5.78617e-08
7.41765e-07
-8.8026e-07
1.18459e-06
4.90818e-07
3.06609e-06
2.57647e-08
1.64545e-06
-3.99419e-07
1.54193e-06
1.95277e-07
2.4519e-06
-8.77372e-09
1.92341e-06
8.83567e-08
2.06937e-06
7.99599e-08
1.99466e-06
1.50127e-08
1.97263e-06
7.46178e-08
2.143e-06
1.11353e-07
2.23329e-06
2.23115e-07
2.38214e-06
4.51694e-07
2.48247e-06
5.28369e-07
2.27249e-06
6.02183e-07
2.10892e-06
6.98583e-07
1.94363e-06
7.6389e-07
1.6868e-06
7.47591e-07
1.35489e-06
6.87832e-07
1.06489e-06
6.15152e-07
8.47584e-07
5.42787e-07
6.91813e-07
4.75081e-07
5.80267e-07
4.12863e-07
4.99268e-07
3.55745e-07
4.39448e-07
3.0299e-07
3.94614e-07
2.53826e-07
3.60679e-07
2.07545e-07
3.34915e-07
1.63525e-07
3.15476e-07
1.21221e-07
3.0111e-07
8.01514e-08
2.90966e-07
3.98798e-08
2.84484e-07
2.81324e-07
-4.29486e-08
3.24272e-07
-8.62865e-08
3.27822e-07
-1.30415e-07
3.35094e-07
-1.75756e-07
3.46451e-07
-2.22766e-07
3.62487e-07
-2.71941e-07
3.8409e-07
-3.23817e-07
4.12555e-07
-3.78947e-07
4.49744e-07
-4.37837e-07
4.98338e-07
-5.00768e-07
5.62199e-07
-5.6737e-07
6.46869e-07
-6.35651e-07
7.60095e-07
-6.99935e-07
9.11869e-07
-7.47253e-07
1.11221e-06
-7.5462e-07
1.36226e-06
-7.01816e-07
1.63399e-06
-6.19037e-07
1.86085e-06
-5.3851e-07
2.0284e-06
-4.42771e-07
2.17675e-06
-2.6988e-07
2.30958e-06
-1.59461e-07
2.27172e-06
-1.04486e-07
2.17832e-06
-5.9191e-08
2.0977e-06
-8.21767e-08
1.99561e-06
-7.81764e-08
1.99066e-06
-2.69795e-08
2.01817e-06
-8.16531e-08
1.97808e-06
2.09896e-07
2.16035e-06
-2.29898e-09
1.75413e-06
-1.82081e-07
1.82523e-06
4.93659e-07
2.39035e-06
1.04726e-07
1.57352e-06
9.71899e-08
7.49301e-07
4.94966e-07
7.90539e-07
2.65941e-07
5.89615e-07
-1.31542e-07
5.03699e-07
-5.82044e-07
5.13295e-07
-8.80769e-06
-4.50278e-07
-7.928e-06
-1.80649e-05
-4.78485e-17
-2.76711e-05
7.928e-06
-2.76711e-05
8.80769e-06
-1.80649e-05
5.82044e-07
-4.50278e-07
1.31542e-07
5.13295e-07
-2.65941e-07
5.03699e-07
-4.94966e-07
5.89615e-07
-9.71899e-08
7.90539e-07
-1.04726e-07
7.49301e-07
-4.93659e-07
1.57352e-06
1.82081e-07
2.39035e-06
2.29898e-09
1.82523e-06
-2.09896e-07
1.75413e-06
8.16531e-08
2.16035e-06
2.69795e-08
1.97808e-06
7.81764e-08
2.01817e-06
8.21767e-08
1.99066e-06
5.9191e-08
1.99561e-06
1.04486e-07
2.0977e-06
1.59461e-07
2.17832e-06
2.6988e-07
2.27172e-06
4.42771e-07
2.30958e-06
5.3851e-07
2.17675e-06
6.19037e-07
2.0284e-06
7.01816e-07
1.86085e-06
7.5462e-07
1.63399e-06
7.47253e-07
1.36226e-06
6.99935e-07
1.11221e-06
6.35651e-07
9.11869e-07
5.6737e-07
7.60095e-07
5.00768e-07
6.46869e-07
4.37837e-07
5.62199e-07
3.78947e-07
4.98338e-07
3.23817e-07
4.49744e-07
2.71941e-07
4.12555e-07
2.22766e-07
3.8409e-07
1.75756e-07
3.62487e-07
1.30415e-07
3.46451e-07
8.62865e-08
3.35094e-07
4.29486e-08
3.27822e-07
3.24272e-07
-4.60361e-08
3.70308e-07
-9.24473e-08
3.74233e-07
-1.39616e-07
3.82262e-07
-1.87936e-07
3.94771e-07
-2.37818e-07
4.12369e-07
-2.89685e-07
4.35957e-07
-3.43951e-07
4.66821e-07
-4.00978e-07
5.06771e-07
-4.60964e-07
5.58324e-07
-5.2371e-07
6.24945e-07
-5.88146e-07
7.11305e-07
-6.51409e-07
8.23357e-07
-7.07265e-07
9.67724e-07
-7.4417e-07
1.14912e-06
-7.45706e-07
1.36379e-06
-7.01331e-07
1.58962e-06
-6.28427e-07
1.78794e-06
-5.45894e-07
1.94586e-06
-4.45568e-07
2.07642e-06
-3.07433e-07
2.17145e-06
-2.0308e-07
2.16737e-06
-1.38924e-07
2.11416e-06
-9.57214e-08
2.0545e-06
-9.16279e-08
1.99152e-06
-7.74452e-08
1.97648e-06
-4.1686e-08
1.98241e-06
-3.45711e-08
1.97097e-06
1.07665e-07
2.01811e-06
1.8931e-08
1.84286e-06
-2.92233e-08
1.87339e-06
2.95031e-07
2.06609e-06
1.6182e-07
1.70673e-06
1.69582e-07
7.41539e-07
2.3602e-07
7.24101e-07
1.60473e-07
6.65162e-07
3.46247e-08
6.29547e-07
-8.62736e-08
6.34194e-07
-2.58341e-07
-2.78211e-07
-2.38202e-06
-1.59412e-05
2.05811e-17
-3.00531e-05
2.38202e-06
-3.00531e-05
2.58341e-07
-1.59412e-05
8.62736e-08
-2.78211e-07
-3.46247e-08
6.34194e-07
-1.60473e-07
6.29547e-07
-2.3602e-07
6.65162e-07
-1.69582e-07
7.24101e-07
-1.6182e-07
7.41539e-07
-2.95031e-07
1.70673e-06
2.92233e-08
2.06609e-06
-1.8931e-08
1.87339e-06
-1.07665e-07
1.84286e-06
3.45711e-08
2.01811e-06
4.1686e-08
1.97097e-06
7.74452e-08
1.98241e-06
9.16279e-08
1.97648e-06
9.57214e-08
1.99152e-06
1.38924e-07
2.0545e-06
2.0308e-07
2.11416e-06
3.07433e-07
2.16737e-06
4.45568e-07
2.17145e-06
5.45894e-07
2.07642e-06
6.28427e-07
1.94586e-06
7.01331e-07
1.78794e-06
7.45706e-07
1.58962e-06
7.4417e-07
1.36379e-06
7.07265e-07
1.14912e-06
6.51409e-07
9.67724e-07
5.88146e-07
8.23357e-07
5.2371e-07
7.11305e-07
4.60964e-07
6.24945e-07
4.00978e-07
5.58324e-07
3.43951e-07
5.06771e-07
2.89685e-07
4.66821e-07
2.37818e-07
4.35957e-07
1.87936e-07
4.12369e-07
1.39616e-07
3.94771e-07
9.24473e-08
3.82262e-07
4.60361e-08
3.74233e-07
3.70308e-07
-4.90691e-08
4.19377e-07
-9.84844e-08
4.23648e-07
-1.48594e-07
4.32372e-07
-1.99746e-07
4.45923e-07
-2.52284e-07
4.64907e-07
-3.06531e-07
4.90204e-07
-3.62755e-07
5.23045e-07
-4.21093e-07
5.65109e-07
-4.81418e-07
6.18648e-07
-5.43075e-07
6.86603e-07
-6.04425e-07
7.72655e-07
-6.62086e-07
8.81017e-07
-7.09912e-07
1.01555e-06
-7.3831e-07
1.17752e-06
-7.3595e-07
1.36143e-06
-6.97256e-07
1.55092e-06
-6.3196e-07
1.72265e-06
-5.51365e-07
1.86527e-06
-4.54222e-07
1.97928e-06
-3.38682e-07
2.05591e-06
-2.42054e-07
2.07074e-06
-1.74028e-07
2.04613e-06
-1.27848e-07
2.00832e-06
-1.05959e-07
1.96963e-06
-8.27889e-08
1.95331e-06
-4.98757e-08
1.9495e-06
-2.08074e-08
1.9419e-06
5.44833e-08
1.94282e-06
3.18441e-08
1.8655e-06
3.78872e-08
1.86735e-06
1.93172e-07
1.91081e-06
1.58256e-07
1.74165e-06
1.53962e-07
7.45833e-07
1.50579e-07
7.27484e-07
1.10573e-07
7.05167e-07
4.8236e-08
6.91885e-07
-1.2561e-08
6.94991e-07
-4.65272e-08
-2.44245e-07
-5.22e-07
-1.54657e-05
-2.04138e-18
-3.05751e-05
5.22e-07
-3.05751e-05
4.65272e-08
-1.54657e-05
1.2561e-08
-2.44245e-07
-4.8236e-08
6.94991e-07
-1.10573e-07
6.91885e-07
-1.50579e-07
7.05167e-07
-1.53962e-07
7.27484e-07
-1.58256e-07
7.45833e-07
-1.93172e-07
1.74165e-06
-3.78872e-08
1.91081e-06
-3.18441e-08
1.86735e-06
-5.44833e-08
1.8655e-06
2.08074e-08
1.94282e-06
4.98757e-08
1.9419e-06
8.27889e-08
1.9495e-06
1.05959e-07
1.95331e-06
1.27848e-07
1.96963e-06
1.74028e-07
2.00832e-06
2.42054e-07
2.04613e-06
3.38682e-07
2.07074e-06
4.54222e-07
2.05591e-06
5.51365e-07
1.97928e-06
6.3196e-07
1.86527e-06
6.97256e-07
1.72265e-06
7.3595e-07
1.55092e-06
7.3831e-07
1.36143e-06
7.09912e-07
1.17752e-06
6.62086e-07
1.01555e-06
6.04425e-07
8.81017e-07
5.43075e-07
7.72655e-07
4.81418e-07
6.86603e-07
4.21093e-07
6.18648e-07
3.62755e-07
5.65109e-07
3.06531e-07
5.23045e-07
2.52284e-07
4.90204e-07
1.99746e-07
4.64907e-07
1.48594e-07
4.45923e-07
9.84844e-08
4.32372e-07
4.90691e-08
4.23648e-07
4.19377e-07
-5.19553e-08
4.71333e-07
-1.04211e-07
4.75905e-07
-1.57064e-07
4.85225e-07
-2.10797e-07
4.99656e-07
-2.65666e-07
5.19776e-07
-3.21872e-07
5.4641e-07
-3.79512e-07
5.80684e-07
-4.38489e-07
6.24086e-07
-4.9836e-07
6.7852e-07
-5.58086e-07
7.46329e-07
-6.15635e-07
8.30205e-07
-6.67452e-07
9.32834e-07
-7.07931e-07
1.05603e-06
-7.29493e-07
1.19908e-06
-7.24472e-07
1.35641e-06
-6.8979e-07
1.51624e-06
-6.30877e-07
1.66373e-06
-5.54972e-07
1.78936e-06
-4.64744e-07
1.88905e-06
-3.65e-07
1.95616e-06
-2.76233e-07
1.98197e-06
-2.0739e-07
1.97729e-06
-1.57119e-07
1.95805e-06
-1.23346e-07
1.93586e-06
-9.24666e-08
1.92243e-06
-5.80227e-08
1.91506e-06
-2.24187e-08
1.9063e-06
2.59967e-08
1.89441e-06
3.57335e-08
1.85576e-06
6.05329e-08
1.84255e-06
1.38016e-07
1.83333e-06
1.35175e-07
1.74449e-06
1.2831e-07
7.52698e-07
1.1583e-07
7.39965e-07
9.19198e-08
7.29078e-07
6.06854e-08
7.23119e-07
3.161e-08
7.24066e-07
7.56582e-09
-2.202e-07
-2.72949e-07
-1.51852e-05
-8.72069e-18
-3.0848e-05
2.72949e-07
-3.0848e-05
-7.56582e-09
-1.51852e-05
-3.161e-08
-2.202e-07
-6.06854e-08
7.24066e-07
-9.19198e-08
7.23119e-07
-1.1583e-07
7.29078e-07
-1.2831e-07
7.39965e-07
-1.35175e-07
7.52698e-07
-1.38016e-07
1.74449e-06
-6.05329e-08
1.83333e-06
-3.57335e-08
1.84255e-06
-2.59967e-08
1.85576e-06
2.24187e-08
1.89441e-06
5.80227e-08
1.9063e-06
9.24666e-08
1.91506e-06
1.23346e-07
1.92243e-06
1.57119e-07
1.93586e-06
2.0739e-07
1.95805e-06
2.76233e-07
1.97729e-06
3.65e-07
1.98197e-06
4.64744e-07
1.95616e-06
5.54972e-07
1.88905e-06
6.30877e-07
1.78936e-06
6.8979e-07
1.66373e-06
7.24472e-07
1.51624e-06
7.29493e-07
1.35641e-06
7.07931e-07
1.19908e-06
6.67452e-07
1.05603e-06
6.15635e-07
9.32834e-07
5.58086e-07
8.30205e-07
4.9836e-07
7.46329e-07
4.38489e-07
6.7852e-07
3.79512e-07
6.24086e-07
3.21872e-07
5.80684e-07
2.65666e-07
5.4641e-07
2.10797e-07
5.19776e-07
1.57064e-07
4.99656e-07
1.04211e-07
4.85225e-07
5.19553e-08
4.75905e-07
4.71333e-07
-5.45844e-08
5.25917e-07
-1.09406e-07
5.30726e-07
-1.64692e-07
5.4051e-07
-2.20639e-07
5.55604e-07
-2.77399e-07
5.76536e-07
-3.35034e-07
6.04045e-07
-3.9346e-07
6.39111e-07
-4.52353e-07
6.82978e-07
-5.10996e-07
7.37163e-07
-5.68065e-07
8.03398e-07
-6.21336e-07
8.83476e-07
-6.67366e-07
9.78864e-07
-7.01338e-07
1.09e-06
-7.17483e-07
1.21522e-06
-7.10665e-07
1.34959e-06
-6.79105e-07
1.48468e-06
-6.25972e-07
1.6106e-06
-5.56343e-07
1.71973e-06
-4.7449e-07
1.8072e-06
-3.86786e-07
1.86846e-06
-3.05437e-07
1.90062e-06
-2.37579e-07
1.90943e-06
-1.83988e-07
1.90446e-06
-1.42344e-07
1.89421e-06
-1.05291e-07
1.88537e-06
-6.82417e-08
1.87801e-06
-3.08337e-08
1.86889e-06
8.21419e-09
1.85536e-06
3.22513e-08
1.83173e-06
6.15509e-08
1.81325e-06
1.04717e-07
1.79016e-06
1.11228e-07
1.73798e-06
1.06875e-07
7.57051e-07
9.80944e-08
7.48745e-07
8.49757e-08
7.42196e-07
6.99245e-08
7.3817e-07
5.72986e-08
7.36692e-07
3.2409e-08
-1.95311e-07
-2.09807e-07
-1.4943e-05
-8.8276e-18
-3.10579e-05
2.09807e-07
-3.10579e-05
-3.2409e-08
-1.4943e-05
-5.72986e-08
-1.95311e-07
-6.99245e-08
7.36692e-07
-8.49757e-08
7.3817e-07
-9.80944e-08
7.42196e-07
-1.06875e-07
7.48745e-07
-1.11228e-07
7.57051e-07
-1.04717e-07
1.73798e-06
-6.15509e-08
1.79016e-06
-3.22513e-08
1.81325e-06
-8.21419e-09
1.83173e-06
3.08337e-08
1.85536e-06
6.82417e-08
1.86889e-06
1.05291e-07
1.87801e-06
1.42344e-07
1.88537e-06
1.83988e-07
1.89421e-06
2.37579e-07
1.90446e-06
3.05437e-07
1.90943e-06
3.86786e-07
1.90062e-06
4.7449e-07
1.86846e-06
5.56343e-07
1.8072e-06
6.25972e-07
1.71973e-06
6.79105e-07
1.6106e-06
7.10665e-07
1.48468e-06
7.17483e-07
1.34959e-06
7.01338e-07
1.21522e-06
6.67366e-07
1.09e-06
6.21336e-07
9.78864e-07
5.68065e-07
8.83476e-07
5.10996e-07
8.03398e-07
4.52353e-07
7.37163e-07
3.9346e-07
6.82978e-07
3.35034e-07
6.39111e-07
2.77399e-07
6.04045e-07
2.20639e-07
5.76536e-07
1.64692e-07
5.55604e-07
1.09406e-07
5.4051e-07
5.45844e-08
5.30726e-07
5.25917e-07
-5.68303e-08
5.82747e-07
-1.13817e-07
5.87713e-07