/*--------------------------------*- C++ -*----------------------------------*\
  =========                 |
  \\      /  F ield         | OpenFOAM: The Open Source CFD Toolbox
   \\    /   O peration     | Website:  https://openfoam.org
    \\  /    A nd           | Version:  10
     \\/     M anipulation  |
\*---------------------------------------------------------------------------*/
FoamFile
{
    format      ascii;
    class       volScalarField;
    location    "2.29";
    object      Sb;
}
// * * * * * * * * * * * * * * * * * * * * * * * * * * * * * * * * * * * * * //

dimensions      [0 0 0 0 0 0 0];

internalField   nonuniform List<scalar> 
12225
(
0.875041
0.874055
0.872827
0.871482
0.87011
0.868767
0.867487
0.866293
0.865198
0.864211
0.863343
0.862604
0.862011
0.861594
0.86141
0.861589
0.862473
0.865117
0.886813
0.885567
0.884029
0.882364
0.880681
0.879047
0.877504
0.876073
0.87477
0.873601
0.872576
0.871705
0.871004
0.870504
0.87026
0.870386
0.871117
0.872858
0.894198
0.892734
0.890944
0.889022
0.887093
0.885235
0.883489
0.881879
0.880418
0.879112
0.877967
0.876993
0.876203
0.875624
0.875302
0.87532
0.875806
0.876879
0.900059
0.898384
0.896354
0.894191
0.892036
0.889972
0.888043
0.886272
0.884669
0.883239
0.881986
0.880915
0.880037
0.879373
0.878954
0.87883
0.879054
0.879623
0.905188
0.903296
0.901021
0.898617
0.896238
0.893972
0.891865
0.889938
0.888199
0.886648
0.885288
0.88412
0.883149
0.882389
0.881856
0.881571
0.881541
0.881718
0.909927
0.907801
0.905269
0.902614
0.900005
0.897535
0.895248
0.893164
0.891287
0.889615
0.888145
0.886874
0.885804
0.884936
0.884276
0.883822
0.883555
0.883415
0.914464
0.912079
0.909269
0.906347
0.903497
0.900814
0.898342
0.896096
0.894077
0.892278
0.890693
0.889314
0.888135
0.88715
0.886352
0.885728
0.885243
0.884841
0.918918
0.916242
0.913126
0.909916
0.906808
0.903899
0.901232
0.898817
0.896649
0.894718
0.893011
0.891516
0.890219
0.889109
0.888169
0.887375
0.886692
0.886068
0.92338
0.92037
0.916911
0.913385
0.909998
0.906848
0.903973
0.901379
0.899055
0.896983
0.895147
0.893527
0.892105
0.890863
0.889777
0.88882
0.887956
0.88714
0.927923
0.924523
0.920676
0.916798
0.913105
0.909695
0.906599
0.903814
0.901324
0.899103
0.89713
0.895378
0.893825
0.892445
0.891214
0.8901
0.889069
0.888086
0.932617
0.928751
0.924457
0.920185
0.916157
0.912464
0.90913
0.906142
0.903474
0.901096
0.898977
0.897087
0.895397
0.893878
0.892502
0.891238
0.890054
0.888921
0.937532
0.933101
0.928286
0.923567
0.919166
0.915165
0.911575
0.90837
0.905516
0.902972
0.9007
0.898666
0.896834
0.895174
0.893655
0.892248
0.890923
0.889655
0.941964
0.936933
0.931591
0.926434
0.921677
0.917388
0.913561
0.910159
0.907135
0.904442
0.902033
0.89987
0.897915
0.896135
0.894497
0.892974
0.891539
0.890168
0.947337
0.941469
0.935423
0.9297
0.924495
0.919851
0.915738
0.9121
0.908876
0.906007
0.903441
0.901132
0.899038
0.897126
0.895361
0.893715
0.892164
0.890685
0.953942
0.946862
0.939851
0.933384
0.927611
0.92253
0.918073
0.914158
0.910702
0.907633
0.90489
0.90242
0.900177
0.898121
0.896219
0.894441
0.892762
0.891163
0.962286
0.953374
0.944982
0.937503
0.930996
0.925376
0.920513
0.916283
0.912574
0.909293
0.906363
0.903718
0.901305
0.899082
0.897012
0.895068
0.893229
0.891478
0.973978
0.962285
0.951776
0.94285
0.935375
0.929071
0.923687
0.919028
0.914949
0.911319
0.908031
0.905036
0.902288
0.899752
0.897397
0.895197
0.893135
0.891193
0.958679
0.950599
0.943014
0.936144
0.930028
0.924618
0.919829
0.91557
0.911759
0.908339
0.905269
0.902455
0.899835
0.89739
0.895105
0.892964
0.890952
0.889059
0.94364
0.938154
0.932583
0.927272
0.922351
0.917848
0.913748
0.910016
0.906612
0.903496
0.90063
0.898009
0.895618
0.89339
0.891304
0.889346
0.887504
0.885768
0.932831
0.928823
0.924476
0.920148
0.916007
0.912121
0.908511
0.905171
0.902083
0.899225
0.896574
0.894109
0.891811
0.889701
0.887721
0.885857
0.884099
0.88244
0.923561
0.920493
0.917004
0.91341
0.90988
0.906499
0.903305
0.900311
0.897511
0.894897
0.892454
0.890168
0.888026
0.886017
0.884156
0.882402
0.880747
0.879182
0.915378
0.912939
0.910071
0.907037
0.903994
0.90103
0.898191
0.8955
0.89296
0.890569
0.888321
0.886206
0.884216
0.88234
0.880581
0.878933
0.877376
0.875901
0.907955
0.905962
0.903559
0.900963
0.898315
0.8957
0.893166
0.89074
0.888433
0.886247
0.884179
0.882225
0.880379
0.878633
0.876981
0.875432
0.873967
0.872579
0.901044
0.899382
0.897339
0.895096
0.892774
0.890455
0.888187
0.885996
0.883899
0.881899
0.879998
0.878194
0.876483
0.87486
0.87332
0.871866
0.870492
0.869188
0.894431
0.893025
0.891271
0.889318
0.887273
0.885211
0.883176
0.881197
0.87929
0.877462
0.875717
0.874053
0.87247
0.870964
0.869531
0.868168
0.866881
0.865658
0.887899
0.8867
0.885185
0.883479
0.881675
0.879839
0.878014
0.876228
0.874497
0.87283
0.871231
0.869701
0.868241
0.866846
0.865516
0.864248
0.863045
0.8619
0.881182
0.880158
0.878847
0.877357
0.875769
0.874139
0.872508
0.870903
0.869338
0.867825
0.866367
0.864967
0.863625
0.862341
0.861113
0.859938
0.858821
0.857754
0.873858
0.872987
0.871861
0.870569
0.86918
0.867746
0.866301
0.864871
0.86347
0.862109
0.860792
0.859522
0.858301
0.857129
0.856004
0.854926
0.853895
0.852911
0.865011
0.864284
0.863336
0.862238
0.861048
0.859811
0.858557
0.857309
0.856079
0.854878
0.853711
0.852581
0.85149
0.850439
0.849427
0.848454
0.847519
0.846625
0.851159
0.850586
0.849827
0.848939
0.847968
0.846949
0.845908
0.844863
0.843826
0.842805
0.841807
0.840835
0.83989
0.838974
0.838087
0.83723
0.836401
0.83561
0.752529
0.752569
0.752616
0.752669
0.752729
0.752794
0.752868
0.752951
0.753048
0.753159
0.75329
0.753442
0.753621
0.753831
0.754075
0.75436
0.754691
0.755076
0.755521
0.756037
0.756633
0.757318
0.758106
0.759008
0.760037
0.761206
0.762527
0.764007
0.765651
0.767454
0.769402
0.771467
0.773606
0.775764
0.777881
0.779894
0.781749
0.783406
0.784838
0.786033
0.786986
0.787697
0.788158
0.788348
0.788207
0.787601
0.786215
0.783218
0.77575
0.74528
0.315711
0.000248007
1.1e-06
1.1e-06
1.1e-06
1.1e-06
1.1e-06
1.1e-06
1.1e-06
1.1e-06
1.1e-06
1.1e-06
1.1e-06
1.1e-06
1.1e-06
1.1e-06
1.1e-06
1.1e-06
1.1e-06
1.1e-06
1.1e-06
1.1e-06
1.1e-06
1.1e-06
1.1e-06
1.1e-06
1.1e-06
1.1e-06
1.1e-06
1.1e-06
1.1e-06
1.1e-06
1.1e-06
1.1e-06
1.1e-06
1.1e-06
1.1e-06
1.1e-06
1.1e-06
1.1e-06
1.1e-06
1.1e-06
1.1e-06
1.1e-06
1.1e-06
1.1e-06
1.1e-06
1.1e-06
1.1e-06
1.1e-06
1.1e-06
1.1e-06
1.1e-06
1.1e-06
1.1e-06
1.1e-06
1.1e-06
1.1e-06
1.1e-06
1.1e-06
1.1e-06
1.1e-06
1.1e-06
1.1e-06
1.1e-06
1.1e-06
1.1e-06
1.1e-06
1.1e-06
1.1e-06
1.1e-06
1.1e-06
1.1e-06
1.1e-06
1.1e-06
1.1e-06
1.1e-06
1.1e-06
1.1e-06
1.1e-06
1.1e-06
1.1e-06
1.1e-06
1.1e-06
1.1e-06
1.1e-06
1.1e-06
1.1e-06
1.1e-06
1.1e-06
1.1e-06
1.1e-06
1.1e-06
1.1e-06
1.1e-06
1.1e-06
1.1e-06
1.1e-06
1.1e-06
1.1e-06
1.1e-06
1.1e-06
1.1e-06
1.1e-06
1.1e-06
1.1e-06
1.1e-06
1.1e-06
1.1e-06
1.1e-06
1.1e-06
1.1e-06
1.1e-06
1.1e-06
1.1e-06
1.1e-06
1.1e-06
1.1e-06
1.1e-06
1.1e-06
1.1e-06
1.1e-06
1.1e-06
1.1e-06
1.1e-06
1.1e-06
1.1e-06
1.1e-06
1.1e-06
1.1e-06
0.803681
0.803727
0.803786
0.803856
0.803934
0.804027
0.804144
0.804297
0.804498
0.804759
0.805089
0.805495
0.805982
0.80655
0.807199
0.807919
0.808699
0.809523
0.810367
0.811207
0.812018
0.812774
0.813454
0.814039
0.814515
0.814871
0.815103
0.815207
0.815187
0.815046
0.814792
0.814432
0.813973
0.813421
0.812784
0.812067
0.811273
0.810408
0.809474
0.808473
0.807402
0.806254
0.805015
0.80365
0.802097
0.800234
0.797812
0.794255
0.787929
0.771766
0.630733
0.0189132
1.12039e-06
1.1e-06
1.1e-06
1.1e-06
1.1e-06
1.1e-06
1.1e-06
1.1e-06
1.1e-06
1.1e-06
1.1e-06
1.1e-06
1.1e-06
1.1e-06
1.1e-06
1.1e-06
1.1e-06
1.1e-06
1.1e-06
1.1e-06
1.1e-06
1.1e-06
1.1e-06
1.1e-06
1.1e-06
1.1e-06
1.1e-06
1.1e-06
1.1e-06
1.1e-06
1.1e-06
1.1e-06
1.1e-06
1.1e-06
1.1e-06
1.1e-06
1.1e-06
1.1e-06
1.1e-06
1.1e-06
1.1e-06
1.1e-06
1.1e-06
1.1e-06
1.1e-06
1.1e-06
1.1e-06
1.1e-06
1.1e-06
1.1e-06
1.1e-06
1.1e-06
1.1e-06
1.1e-06
1.1e-06
1.1e-06
1.1e-06
1.1e-06
1.1e-06
1.1e-06
1.1e-06
1.1e-06
1.1e-06
1.1e-06
1.1e-06
1.1e-06
1.1e-06
1.1e-06
1.1e-06
1.1e-06
1.1e-06
1.1e-06
1.1e-06
1.1e-06
1.1e-06
1.1e-06
1.1e-06
1.1e-06
1.1e-06
1.1e-06
1.1e-06
1.1e-06
1.1e-06
1.1e-06
1.1e-06
1.1e-06
1.1e-06
1.1e-06
1.1e-06
1.1e-06
1.1e-06
1.1e-06
1.1e-06
1.1e-06
1.1e-06
1.1e-06
1.1e-06
1.1e-06
1.1e-06
1.1e-06
1.1e-06
1.1e-06
1.1e-06
1.1e-06
1.1e-06
1.1e-06
1.1e-06
1.1e-06
1.1e-06
1.1e-06
1.1e-06
1.1e-06
1.1e-06
1.1e-06
1.1e-06
1.1e-06
1.1e-06
1.1e-06
1.1e-06
1.1e-06
1.1e-06
1.1e-06
1.1e-06
1.1e-06
1.1e-06
1.1e-06
1.1e-06
1.1e-06
0.816109
0.816165
0.816221
0.816277
0.816332
0.816388
0.816455
0.816545
0.816671
0.816842
0.817069
0.817359
0.817716
0.818144
0.818641
0.819201
0.819816
0.820467
0.821132
0.821787
0.822401
0.822946
0.823398
0.823735
0.823944
0.824015
0.823945
0.823735
0.823391
0.822921
0.822336
0.821646
0.820862
0.819996
0.819058
0.818057
0.817002
0.8159
0.814756
0.813573
0.81235
0.811081
0.809748
0.808323
0.806749
0.80493
0.802679
0.799611
0.794777
0.785036
0.749757
0.259986
0.000106476
1.1e-06
1.1e-06
1.1e-06
1.1e-06
1.1e-06
1.1e-06
1.1e-06
1.1e-06
1.1e-06
1.1e-06
1.1e-06
1.1e-06
1.1e-06
1.1e-06
1.1e-06
1.1e-06
1.1e-06
1.1e-06
1.1e-06
1.1e-06
1.1e-06
1.1e-06
1.1e-06
1.1e-06
1.1e-06
1.1e-06
1.1e-06
1.1e-06
1.1e-06
1.1e-06
1.1e-06
1.1e-06
1.1e-06
1.1e-06
1.1e-06
1.1e-06
1.1e-06
1.1e-06
1.1e-06
1.1e-06
1.1e-06
1.1e-06
1.1e-06
1.1e-06
1.1e-06
1.1e-06
1.1e-06
1.1e-06
1.1e-06
1.1e-06
1.1e-06
1.1e-06
1.1e-06
1.1e-06
1.1e-06
1.1e-06
1.1e-06
1.1e-06
1.1e-06
1.1e-06
1.1e-06
1.1e-06
1.1e-06
1.1e-06
1.1e-06
1.1e-06
1.1e-06
1.1e-06
1.1e-06
1.1e-06
1.1e-06
1.1e-06
1.1e-06
1.1e-06
1.1e-06
1.1e-06
1.1e-06
1.1e-06
1.1e-06
1.1e-06
1.1e-06
1.1e-06
1.1e-06
1.1e-06
1.1e-06
1.1e-06
1.1e-06
1.1e-06
1.1e-06
1.1e-06
1.1e-06
1.1e-06
1.1e-06
1.1e-06
1.1e-06
1.1e-06
1.1e-06
1.1e-06
1.1e-06
1.1e-06
1.1e-06
1.1e-06
1.1e-06
1.1e-06
1.1e-06
1.1e-06
1.1e-06
1.1e-06
1.1e-06
1.1e-06
1.1e-06
1.1e-06
1.1e-06
1.1e-06
1.1e-06
1.1e-06
1.1e-06
1.1e-06
1.1e-06
1.1e-06
1.1e-06
1.1e-06
1.1e-06
1.1e-06
1.1e-06
1.1e-06
1.1e-06
0.823101
0.823181
0.823251
0.823316
0.823372
0.823418
0.823458
0.823497
0.82354
0.823594
0.823662
0.823747
0.823851
0.823974
0.824116
0.824273
0.824441
0.824613
0.824779
0.824929
0.825053
0.825139
0.825177
0.825158
0.825074
0.82492
0.824691
0.824385
0.824002
0.823543
0.823011
0.822411
0.821747
0.821026
0.820252
0.819431
0.818568
0.817666
0.816726
0.815747
0.814725
0.813649
0.812502
0.811255
0.809864
0.808252
0.806288
0.803725
0.800026
0.793761
0.779389
0.693793
0.0610663
3.21579e-06
1.1e-06
1.1e-06
1.1e-06
1.1e-06
1.1e-06
1.1e-06
1.1e-06
1.1e-06
1.1e-06
1.1e-06
1.1e-06
1.1e-06
1.1e-06
1.1e-06
1.1e-06
1.1e-06
1.1e-06
1.1e-06
1.1e-06
1.1e-06
1.1e-06
1.1e-06
1.1e-06
1.1e-06
1.1e-06
1.1e-06
1.1e-06
1.1e-06
1.1e-06
1.1e-06
1.1e-06
1.1e-06
1.1e-06
1.1e-06
1.1e-06
1.1e-06
1.1e-06
1.1e-06
1.1e-06
1.1e-06
1.1e-06
1.1e-06
1.1e-06
1.1e-06
1.1e-06
1.1e-06
1.1e-06
1.1e-06
1.1e-06
1.1e-06
1.1e-06
1.1e-06
1.1e-06
1.1e-06
1.1e-06
1.1e-06
1.1e-06
1.1e-06
1.1e-06
1.1e-06
1.1e-06
1.1e-06
1.1e-06
1.1e-06
1.1e-06
1.1e-06
1.1e-06
1.1e-06
1.1e-06
1.1e-06
1.1e-06
1.1e-06
1.1e-06
1.1e-06
1.1e-06
1.1e-06
1.1e-06
1.1e-06
1.1e-06
1.1e-06
1.1e-06
1.1e-06
1.1e-06
1.1e-06
1.1e-06
1.1e-06
1.1e-06
1.1e-06
1.1e-06
1.1e-06
1.1e-06
1.1e-06
1.1e-06
1.1e-06
1.1e-06
1.1e-06
1.1e-06
1.1e-06
1.1e-06
1.1e-06
1.1e-06
1.1e-06
1.1e-06
1.1e-06
1.1e-06
1.1e-06
1.1e-06
1.1e-06
1.1e-06
1.1e-06
1.1e-06
1.1e-06
1.1e-06
1.1e-06
1.1e-06
1.1e-06
1.1e-06
1.1e-06
1.1e-06
1.1e-06
1.1e-06
1.1e-06
1.1e-06
1.1e-06
1.1e-06
1.1e-06
0.828151
0.828263
0.828359
0.828441
0.828508
0.828558
0.828591
0.828609
0.828616
0.828614
0.828604
0.828589
0.828569
0.828545
0.828515
0.828479
0.828434
0.828378
0.828307
0.828217
0.828103
0.827961
0.827787
0.827575
0.827323
0.827027
0.826685
0.826294
0.825855
0.825366
0.824829
0.824246
0.823618
0.822948
0.822239
0.821491
0.820708
0.819889
0.819033
0.818137
0.817195
0.816197
0.815128
0.813962
0.812665
0.81118
0.809416
0.807212
0.80426
0.79986
0.792008
0.771605
0.558772
0.00575972
1.10005e-06
1.1e-06
1.1e-06
1.1e-06
1.1e-06
1.1e-06
1.1e-06
1.1e-06
1.1e-06
1.1e-06
1.1e-06
1.1e-06
1.1e-06
1.1e-06
1.1e-06
1.1e-06
1.1e-06
1.1e-06
1.1e-06
1.1e-06
1.1e-06
1.1e-06
1.1e-06
1.1e-06
1.1e-06
1.1e-06
1.1e-06
1.1e-06
1.1e-06
1.1e-06
1.1e-06
1.1e-06
1.1e-06
1.1e-06
1.1e-06
1.1e-06
1.1e-06
1.1e-06
1.1e-06
1.1e-06
1.1e-06
1.1e-06
1.1e-06
1.1e-06
1.1e-06
1.1e-06
1.1e-06
1.1e-06
1.1e-06
1.1e-06
1.1e-06
1.1e-06
1.1e-06
1.1e-06
1.1e-06
1.1e-06
1.1e-06
1.1e-06
1.1e-06
1.1e-06
1.1e-06
1.1e-06
1.1e-06
1.1e-06
1.1e-06
1.1e-06
1.1e-06
1.1e-06
1.1e-06
1.1e-06
1.1e-06
1.1e-06
1.1e-06
1.1e-06
1.1e-06
1.1e-06
1.1e-06
1.1e-06
1.1e-06
1.1e-06
1.1e-06
1.1e-06
1.1e-06
1.1e-06
1.1e-06
1.1e-06
1.1e-06
1.1e-06
1.1e-06
1.1e-06
1.1e-06
1.1e-06
1.1e-06
1.1e-06
1.1e-06
1.1e-06
1.1e-06
1.1e-06
1.1e-06
1.1e-06
1.1e-06
1.1e-06
1.1e-06
1.1e-06
1.1e-06
1.1e-06
1.1e-06
1.1e-06
1.1e-06
1.1e-06
1.1e-06
1.1e-06
1.1e-06
1.1e-06
1.1e-06
1.1e-06
1.1e-06
1.1e-06
1.1e-06
1.1e-06
1.1e-06
1.1e-06
1.1e-06
1.1e-06
1.1e-06
1.1e-06
0.832234
0.832381
0.832508
0.832614
0.832698
0.832759
0.832796
0.832811
0.832803
0.832775
0.832726
0.832658
0.832572
0.832467
0.832344
0.832202
0.832041
0.83186
0.831658
0.831433
0.831183
0.830908
0.830605
0.830273
0.82991
0.829515
0.829086
0.828623
0.828125
0.827593
0.827025
0.826424
0.825789
0.825121
0.824422
0.823691
0.822928
0.822132
0.821301
0.820432
0.819517
0.818547
0.81751
0.816386
0.815146
0.813749
0.812132
0.810189
0.807733
0.804392
0.799286
0.789686
0.760548
0.377513
0.000470875
1.1e-06
1.1e-06
1.1e-06
1.1e-06
1.1e-06
1.1e-06
1.1e-06
1.1e-06
1.1e-06
1.1e-06
1.1e-06
1.1e-06
1.1e-06
1.1e-06
1.1e-06
1.1e-06
1.1e-06
1.1e-06
1.1e-06
1.1e-06
1.1e-06
1.1e-06
1.1e-06
1.1e-06
1.1e-06
1.1e-06
1.1e-06
1.1e-06
1.1e-06
1.1e-06
1.1e-06
1.1e-06
1.1e-06
1.1e-06
1.1e-06
1.1e-06
1.1e-06
1.1e-06
1.1e-06
1.1e-06
1.1e-06
1.1e-06
1.1e-06
1.1e-06
1.1e-06
1.1e-06
1.1e-06
1.1e-06
1.1e-06
1.1e-06
1.1e-06
1.1e-06
1.1e-06
1.1e-06
1.1e-06
1.1e-06
1.1e-06
1.1e-06
1.1e-06
1.1e-06
1.1e-06
1.1e-06
1.1e-06
1.1e-06
1.1e-06
1.1e-06
1.1e-06
1.1e-06
1.1e-06
1.1e-06
1.1e-06
1.1e-06
1.1e-06
1.1e-06
1.1e-06
1.1e-06
1.1e-06
1.1e-06
1.1e-06
1.1e-06
1.1e-06
1.1e-06
1.1e-06
1.1e-06
1.1e-06
1.1e-06
1.1e-06
1.1e-06
1.1e-06
1.1e-06
1.1e-06
1.1e-06
1.1e-06
1.1e-06
1.1e-06
1.1e-06
1.1e-06
1.1e-06
1.1e-06
1.1e-06
1.1e-06
1.1e-06
1.1e-06
1.1e-06
1.1e-06
1.1e-06
1.1e-06
1.1e-06
1.1e-06
1.1e-06
1.1e-06
1.1e-06
1.1e-06
1.1e-06
1.1e-06
1.1e-06
1.1e-06
1.1e-06
1.1e-06
1.1e-06
1.1e-06
1.1e-06
1.1e-06
1.1e-06
1.1e-06
0.835751
0.835937
0.836097
0.836231
0.836337
0.836414
0.836461
0.836479
0.836467
0.836426
0.836357
0.836258
0.836132
0.835979
0.835799
0.835592
0.835359
0.8351
0.834815
0.834503
0.834166
0.833802
0.833412
0.832995
0.832551
0.832079
0.83158
0.831053
0.830498
0.829916
0.829307
0.82867
0.828006
0.827315
0.826598
0.825853
0.825079
0.824276
0.823439
0.822567
0.821651
0.820686
0.819659
0.818555
0.817352
0.81602
0.814513
0.812759
0.810642
0.807946
0.80423
0.798402
0.786796
0.744042
0.228649
7.83221e-05
1.1e-06
1.1e-06
1.1e-06
1.1e-06
1.1e-06
1.1e-06
1.1e-06
1.1e-06
1.1e-06
1.1e-06
1.1e-06
1.1e-06
1.1e-06
1.1e-06
1.1e-06
1.1e-06
1.1e-06
1.1e-06
1.1e-06
1.1e-06
1.1e-06
1.1e-06
1.1e-06
1.1e-06
1.1e-06
1.1e-06
1.1e-06
1.1e-06
1.1e-06
1.1e-06
1.1e-06
1.1e-06
1.1e-06
1.1e-06
1.1e-06
1.1e-06
1.1e-06
1.1e-06
1.1e-06
1.1e-06
1.1e-06
1.1e-06
1.1e-06
1.1e-06
1.1e-06
1.1e-06
1.1e-06
1.1e-06
1.1e-06
1.1e-06
1.1e-06
1.1e-06
1.1e-06
1.1e-06
1.1e-06
1.1e-06
1.1e-06
1.1e-06
1.1e-06
1.1e-06
1.1e-06
1.1e-06
1.1e-06
1.1e-06
1.1e-06
1.1e-06
1.1e-06
1.1e-06
1.1e-06
1.1e-06
1.1e-06
1.1e-06
1.1e-06
1.1e-06
1.1e-06
1.1e-06
1.1e-06
1.1e-06
1.1e-06
1.1e-06
1.1e-06
1.1e-06
1.1e-06
1.1e-06
1.1e-06
1.1e-06
1.1e-06
1.1e-06
1.1e-06
1.1e-06
1.1e-06
1.1e-06
1.1e-06
1.1e-06
1.1e-06
1.1e-06
1.1e-06
1.1e-06
1.1e-06
1.1e-06
1.1e-06
1.1e-06
1.1e-06
1.1e-06
1.1e-06
1.1e-06
1.1e-06
1.1e-06
1.1e-06
1.1e-06
1.1e-06
1.1e-06
1.1e-06
1.1e-06
1.1e-06
1.1e-06
1.1e-06
1.1e-06
1.1e-06
1.1e-06
1.1e-06
1.1e-06
1.1e-06
1.1e-06
0.838906
0.839133
0.839329
0.839493
0.839623
0.839719
0.83978
0.839805
0.839794
0.839747
0.839664
0.839546
0.839392
0.839205
0.838985
0.838732
0.838447
0.838131
0.837786
0.837411
0.837008
0.836577
0.836119
0.835635
0.835124
0.834588
0.834027
0.833442
0.832833
0.832199
0.831542
0.830862
0.830159
0.829433
0.828682
0.827908
0.827108
0.826281
0.825424
0.824534
0.823605
0.822631
0.821603
0.820508
0.81933
0.818045
0.816621
0.815006
0.813125
0.810844
0.807919
0.80383
0.797233
0.783232
0.717046
0.112777
1.23017e-05
1.1e-06
1.1e-06
1.1e-06
1.1e-06
1.1e-06
1.1e-06
1.1e-06
1.1e-06
1.1e-06
1.1e-06
1.1e-06
1.1e-06
1.1e-06
1.1e-06
1.1e-06
1.1e-06
1.1e-06
1.1e-06
1.1e-06
1.1e-06
1.1e-06
1.1e-06
1.1e-06
1.1e-06
1.1e-06
1.1e-06
1.1e-06
1.1e-06
1.1e-06
1.1e-06
1.1e-06
1.1e-06
1.1e-06
1.1e-06
1.1e-06
1.1e-06
1.1e-06
1.1e-06
1.1e-06
1.1e-06
1.1e-06
1.1e-06
1.1e-06
1.1e-06
1.1e-06
1.1e-06
1.1e-06
1.1e-06
1.1e-06
1.1e-06
1.1e-06
1.1e-06
1.1e-06
1.1e-06
1.1e-06
1.1e-06
1.1e-06
1.1e-06
1.1e-06
1.1e-06
1.1e-06
1.1e-06
1.1e-06
1.1e-06
1.1e-06
1.1e-06
1.1e-06
1.1e-06
1.1e-06
1.1e-06
1.1e-06
1.1e-06
1.1e-06
1.1e-06
1.1e-06
1.1e-06
1.1e-06
1.1e-06
1.1e-06
1.1e-06
1.1e-06
1.1e-06
1.1e-06
1.1e-06
1.1e-06
1.1e-06
1.1e-06
1.1e-06
1.1e-06
1.1e-06
1.1e-06
1.1e-06
1.1e-06
1.1e-06
1.1e-06
1.1e-06
1.1e-06
1.1e-06
1.1e-06
1.1e-06
1.1e-06
1.1e-06
1.1e-06
1.1e-06
1.1e-06
1.1e-06
1.1e-06
1.1e-06
1.1e-06
1.1e-06
1.1e-06
1.1e-06
1.1e-06
1.1e-06
1.1e-06
1.1e-06
1.1e-06
1.1e-06
1.1e-06
1.1e-06
1.1e-06
1.1e-06
1.1e-06
0.841817
0.842085
0.842318
0.842514
0.842671
0.842788
0.842864
0.842898
0.84289
0.842839
0.842746
0.842612
0.842436
0.842221
0.841967
0.841676
0.841348
0.840986
0.84059
0.840162
0.839703
0.839215
0.838699
0.838156
0.837587
0.836993
0.836375
0.835734
0.835071
0.834386
0.83368
0.832953
0.832206
0.831438
0.830649
0.829838
0.829004
0.828146
0.827261
0.826347
0.825398
0.824409
0.823374
0.822281
0.821118
0.819868
0.818505
0.816993
0.81528
0.813278
0.810841
0.807688
0.803204
0.795731
0.778627
0.664196
0.0360845
1.64402e-06
1.1e-06
1.1e-06
1.1e-06
1.1e-06
1.1e-06
1.1e-06
1.1e-06
1.1e-06
1.1e-06
1.1e-06
1.1e-06
1.1e-06
1.1e-06
1.1e-06
1.1e-06
1.1e-06
1.1e-06
1.1e-06
1.1e-06
1.1e-06
1.1e-06
1.1e-06
1.1e-06
1.1e-06
1.1e-06
1.1e-06
1.1e-06
1.1e-06
1.1e-06
1.1e-06
1.1e-06
1.1e-06
1.1e-06
1.1e-06
1.1e-06
1.1e-06
1.1e-06
1.1e-06
1.1e-06
1.1e-06
1.1e-06
1.1e-06
1.1e-06
1.1e-06
1.1e-06
1.1e-06
1.1e-06
1.1e-06
1.1e-06
1.1e-06
1.1e-06
1.1e-06
1.1e-06
1.1e-06
1.1e-06
1.1e-06
1.1e-06
1.1e-06
1.1e-06
1.1e-06
1.1e-06
1.1e-06
1.1e-06
1.1e-06
1.1e-06
1.1e-06
1.1e-06
1.1e-06
1.1e-06
1.1e-06
1.1e-06
1.1e-06
1.1e-06
1.1e-06
1.1e-06
1.1e-06
1.1e-06
1.1e-06
1.1e-06
1.1e-06
1.1e-06
1.1e-06
1.1e-06
1.1e-06
1.1e-06
1.1e-06
1.1e-06
1.1e-06
1.1e-06
1.1e-06
1.1e-06
1.1e-06
1.1e-06
1.1e-06
1.1e-06
1.1e-06
1.1e-06
1.1e-06
1.1e-06
1.1e-06
1.1e-06
1.1e-06
1.1e-06
1.1e-06
1.1e-06
1.1e-06
1.1e-06
1.1e-06
1.1e-06
1.1e-06
1.1e-06
1.1e-06
1.1e-06
1.1e-06
1.1e-06
1.1e-06
1.1e-06
1.1e-06
1.1e-06
1.1e-06
1.1e-06
1.1e-06
0.84455
0.844861
0.845133
0.845363
0.845549
0.845689
0.845781
0.845825
0.84582
0.845766
0.845665
0.845515
0.845319
0.845077
0.844792
0.844465
0.844097
0.843691
0.843248
0.842771
0.84226
0.841719
0.841149
0.840551
0.839926
0.839277
0.838605
0.83791
0.837195
0.836458
0.835703
0.834928
0.834135
0.833323
0.832492
0.831641
0.830771
0.829878
0.828962
0.82802
0.827048
0.826042
0.824995
0.8239
0.822746
0.82152
0.820203
0.818767
0.817175
0.815368
0.81325
0.810655
0.807255
0.802315
0.793727
0.771899
0.547432
0.00509137
1.10004e-06
1.1e-06
1.1e-06
1.1e-06
1.1e-06
1.1e-06
1.1e-06
1.1e-06
1.1e-06
1.1e-06
1.1e-06
1.1e-06
1.1e-06
1.1e-06
1.1e-06
1.1e-06
1.1e-06
1.1e-06
1.1e-06
1.1e-06
1.1e-06
1.1e-06
1.1e-06
1.1e-06
1.1e-06
1.1e-06
1.1e-06
1.1e-06
1.1e-06
1.1e-06
1.1e-06
1.1e-06
1.1e-06
1.1e-06
1.1e-06
1.1e-06
1.1e-06
1.1e-06
1.1e-06
1.1e-06
1.1e-06
1.1e-06
1.1e-06
1.1e-06
1.1e-06
1.1e-06
1.1e-06
1.1e-06
1.1e-06
1.1e-06
1.1e-06
1.1e-06
1.1e-06
1.1e-06
1.1e-06
1.1e-06
1.1e-06
1.1e-06
1.1e-06
1.1e-06
1.1e-06
1.1e-06
1.1e-06
1.1e-06
1.1e-06
1.1e-06
1.1e-06
1.1e-06
1.1e-06
1.1e-06
1.1e-06
1.1e-06
1.1e-06
1.1e-06
1.1e-06
1.1e-06
1.1e-06
1.1e-06
1.1e-06
1.1e-06
1.1e-06
1.1e-06
1.1e-06
1.1e-06
1.1e-06
1.1e-06
1.1e-06
1.1e-06
1.1e-06
1.1e-06
1.1e-06
1.1e-06
1.1e-06
1.1e-06
1.1e-06
1.1e-06
1.1e-06
1.1e-06
1.1e-06
1.1e-06
1.1e-06
1.1e-06
1.1e-06
1.1e-06
1.1e-06
1.1e-06
1.1e-06
1.1e-06
1.1e-06
1.1e-06
1.1e-06
1.1e-06
1.1e-06
1.1e-06
1.1e-06
1.1e-06
1.1e-06
1.1e-06
1.1e-06
1.1e-06
1.1e-06
1.1e-06
0.847145
0.847502
0.847816
0.848082
0.848298
0.848462
0.848572
0.848626
0.848625
0.848568
0.848457
0.848292
0.848074
0.847805
0.847488
0.847125
0.846717
0.846267
0.845778
0.845252
0.844691
0.844098
0.843474
0.842822
0.842144
0.841442
0.840716
0.839969
0.839201
0.838414
0.837609
0.836786
0.835946
0.83509
0.834216
0.833325
0.832417
0.831489
0.830541
0.82957
0.828573
0.827547
0.826487
0.825386
0.824236
0.823027
0.821743
0.820364
0.818861
0.817193
0.815294
0.813057
0.810287
0.806599
0.801078
0.790886
0.760219
0.362134
0.000413482
1.1e-06
1.1e-06
1.1e-06
1.1e-06
1.1e-06
1.1e-06
1.1e-06
1.1e-06
1.1e-06
1.1e-06
1.1e-06
1.1e-06
1.1e-06
1.1e-06
1.1e-06
1.1e-06
1.1e-06
1.1e-06
1.1e-06
1.1e-06
1.1e-06
1.1e-06
1.1e-06
1.1e-06
1.1e-06
1.1e-06
1.1e-06
1.1e-06
1.1e-06
1.1e-06
1.1e-06
1.1e-06
1.1e-06
1.1e-06
1.1e-06
1.1e-06
1.1e-06
1.1e-06
1.1e-06
1.1e-06
1.1e-06
1.1e-06
1.1e-06
1.1e-06
1.1e-06
1.1e-06
1.1e-06
1.1e-06
1.1e-06
1.1e-06
1.1e-06
1.1e-06
1.1e-06
1.1e-06
1.1e-06
1.1e-06
1.1e-06
1.1e-06
1.1e-06
1.1e-06
1.1e-06
1.1e-06
1.1e-06
1.1e-06
1.1e-06
1.1e-06
1.1e-06
1.1e-06
1.1e-06
1.1e-06
1.1e-06
1.1e-06
1.1e-06
1.1e-06
1.1e-06
1.1e-06
1.1e-06
1.1e-06
1.1e-06
1.1e-06
1.1e-06
1.1e-06
1.1e-06
1.1e-06
1.1e-06
1.1e-06
1.1e-06
1.1e-06
1.1e-06
1.1e-06
1.1e-06
1.1e-06
1.1e-06
1.1e-06
1.1e-06
1.1e-06
1.1e-06
1.1e-06
1.1e-06
1.1e-06
1.1e-06
1.1e-06
1.1e-06
1.1e-06
1.1e-06
1.1e-06
1.1e-06
1.1e-06
1.1e-06
1.1e-06
1.1e-06
1.1e-06
1.1e-06
1.1e-06
1.1e-06
1.1e-06
1.1e-06
1.1e-06
1.1e-06
1.1e-06
1.1e-06
0.849624
0.850032
0.85039
0.850696
0.850944
0.851134
0.851262
0.851327
0.85133
0.85127
0.851147
0.850965
0.850724
0.850427
0.850076
0.849674
0.849224
0.848729
0.848193
0.847617
0.847005
0.846359
0.845682
0.844977
0.844246
0.84349
0.842711
0.841912
0.841093
0.840256
0.839402
0.838532
0.837646
0.836745
0.83583
0.834898
0.833952
0.832989
0.832008
0.831008
0.829986
0.82894
0.827865
0.826756
0.825606
0.824407
0.823147
0.82181
0.820375
0.818809
0.817065
0.815071
0.812701
0.809729
0.805681
0.799374
0.786739
0.737006
0.176509
4.09069e-05
1.1e-06
1.1e-06
1.1e-06
1.1e-06
1.1e-06
1.1e-06
1.1e-06
1.1e-06
1.1e-06
1.1e-06
1.1e-06
1.1e-06
1.1e-06
1.1e-06
1.1e-06
1.1e-06
1.1e-06
1.1e-06
1.1e-06
1.1e-06
1.1e-06
1.1e-06
1.1e-06
1.1e-06
1.1e-06
1.1e-06
1.1e-06
1.1e-06
1.1e-06
1.1e-06
1.1e-06
1.1e-06
1.1e-06
1.1e-06
1.1e-06
1.1e-06
1.1e-06
1.1e-06
1.1e-06
1.1e-06
1.1e-06
1.1e-06
1.1e-06
1.1e-06
1.1e-06
1.1e-06
1.1e-06
1.1e-06
1.1e-06
1.1e-06
1.1e-06
1.1e-06
1.1e-06
1.1e-06
1.1e-06
1.1e-06
1.1e-06
1.1e-06
1.1e-06
1.1e-06
1.1e-06
1.1e-06
1.1e-06
1.1e-06
1.1e-06
1.1e-06
1.1e-06
1.1e-06
1.1e-06
1.1e-06
1.1e-06
1.1e-06
1.1e-06
1.1e-06
1.1e-06
1.1e-06
1.1e-06
1.1e-06
1.1e-06
1.1e-06
1.1e-06
1.1e-06
1.1e-06
1.1e-06
1.1e-06
1.1e-06
1.1e-06
1.1e-06
1.1e-06
1.1e-06
1.1e-06
1.1e-06
1.1e-06
1.1e-06
1.1e-06
1.1e-06
1.1e-06
1.1e-06
1.1e-06
1.1e-06
1.1e-06
1.1e-06
1.1e-06
1.1e-06
1.1e-06
1.1e-06
1.1e-06
1.1e-06
1.1e-06
1.1e-06
1.1e-06
1.1e-06
1.1e-06
1.1e-06
1.1e-06
1.1e-06
1.1e-06
1.1e-06
1.1e-06
1.1e-06
0.852
0.852462
0.852869
0.853217
0.853501
0.853718
0.853866
0.853943
0.853949
0.853884
0.85375
0.853548
0.853282
0.852953
0.852565
0.852123
0.851628
0.851086
0.8505
0.849873
0.849208
0.848509
0.847778
0.847019
0.846234
0.845425
0.844594
0.843744
0.842875
0.841989
0.841087
0.840171
0.83924
0.838296
0.837339
0.836369
0.835385
0.834388
0.833375
0.832347
0.8313
0.830232
0.829141
0.828022
0.826869
0.825676
0.824433
0.823127
0.821742
0.820252
0.818623
0.816802
0.814703
0.812182
0.808962
0.804448
0.797054
0.780576
0.680076
0.0472776
2.38171e-06
1.1e-06
1.1e-06
1.1e-06
1.1e-06
1.1e-06
1.1e-06
1.1e-06
1.1e-06
1.1e-06
1.1e-06
1.1e-06
1.1e-06
1.1e-06
1.1e-06
1.1e-06
1.1e-06
1.1e-06
1.1e-06
1.1e-06
1.1e-06
1.1e-06
1.1e-06
1.1e-06
1.1e-06
1.1e-06
1.1e-06
1.1e-06
1.1e-06
1.1e-06
1.1e-06
1.1e-06
1.1e-06
1.1e-06
1.1e-06
1.1e-06
1.1e-06
1.1e-06
1.1e-06
1.1e-06
1.1e-06
1.1e-06
1.1e-06
1.1e-06
1.1e-06
1.1e-06
1.1e-06
1.1e-06
1.1e-06
1.1e-06
1.1e-06
1.1e-06
1.1e-06
1.1e-06
1.1e-06
1.1e-06
1.1e-06
1.1e-06
1.1e-06
1.1e-06
1.1e-06
1.1e-06
1.1e-06
1.1e-06
1.1e-06
1.1e-06
1.1e-06
1.1e-06
1.1e-06
1.1e-06
1.1e-06
1.1e-06
1.1e-06
1.1e-06
1.1e-06
1.1e-06
1.1e-06
1.1e-06
1.1e-06
1.1e-06
1.1e-06
1.1e-06
1.1e-06
1.1e-06
1.1e-06
1.1e-06
1.1e-06
1.1e-06
1.1e-06
1.1e-06
1.1e-06
1.1e-06
1.1e-06
1.1e-06
1.1e-06
1.1e-06
1.1e-06
1.1e-06
1.1e-06
1.1e-06
1.1e-06
1.1e-06
1.1e-06
1.1e-06
1.1e-06
1.1e-06
1.1e-06
1.1e-06
1.1e-06
1.1e-06
1.1e-06
1.1e-06
1.1e-06
1.1e-06
1.1e-06
1.1e-06
1.1e-06
1.1e-06
1.1e-06
1.1e-06
0.854279
0.8548
0.855261
0.855656
0.855979
0.856226
0.856395
0.856484
0.856493
0.856422
0.856273
0.856049
0.855754
0.85539
0.854962
0.854475
0.853933
0.853341
0.852702
0.852021
0.851302
0.850549
0.849764
0.848951
0.848112
0.84725
0.846368
0.845467
0.844549
0.843616
0.842668
0.841707
0.840734
0.839749
0.838752
0.837744
0.836725
0.835694
0.834651
0.833594
0.832523
0.831434
0.830326
0.829195
0.828037
0.826846
0.825614
0.824331
0.822983
0.821551
0.820009
0.818315
0.816409
0.814192
0.811487
0.807952
0.80281
0.793802
0.770228
0.503387
0.00269204
1.1e-06
1.1e-06
1.1e-06
1.1e-06
1.1e-06
1.1e-06
1.1e-06
1.1e-06
1.1e-06
1.1e-06
1.1e-06
1.1e-06
1.1e-06
1.1e-06
1.1e-06
1.1e-06
1.1e-06
1.1e-06
1.1e-06
1.1e-06
1.1e-06
1.1e-06
1.1e-06
1.1e-06
1.1e-06
1.1e-06
1.1e-06
1.1e-06
1.1e-06
1.1e-06
1.1e-06
1.1e-06
1.1e-06
1.1e-06
1.1e-06
1.1e-06
1.1e-06
1.1e-06
1.1e-06
1.1e-06
1.1e-06
1.1e-06
1.1e-06
1.1e-06
1.1e-06
1.1e-06
1.1e-06
1.1e-06
1.1e-06
1.1e-06
1.1e-06
1.1e-06
1.1e-06
1.1e-06
1.1e-06
1.1e-06
1.1e-06
1.1e-06
1.1e-06
1.1e-06
1.1e-06
1.1e-06
1.1e-06
1.1e-06
1.1e-06
1.1e-06
1.1e-06
1.1e-06
1.1e-06
1.1e-06
1.1e-06
1.1e-06
1.1e-06
1.1e-06
1.1e-06
1.1e-06
1.1e-06
1.1e-06
1.1e-06
1.1e-06
1.1e-06
1.1e-06
1.1e-06
1.1e-06
1.1e-06
1.1e-06
1.1e-06
1.1e-06
1.1e-06
1.1e-06
1.1e-06
1.1e-06
1.1e-06
1.1e-06
1.1e-06
1.1e-06
1.1e-06
1.1e-06
1.1e-06
1.1e-06
1.1e-06
1.1e-06
1.1e-06
1.1e-06
1.1e-06
1.1e-06
1.1e-06
1.1e-06
1.1e-06
1.1e-06
1.1e-06
1.1e-06
1.1e-06
1.1e-06
1.1e-06
1.1e-06
1.1e-06
1.1e-06
1.1e-06
0.85646
0.857048
0.857568
0.858015
0.858381
0.858662
0.858854
0.858955
0.858966
0.858887
0.858721
0.858471
0.858143
0.85774
0.857268
0.856732
0.856139
0.855493
0.854799
0.854063
0.853288
0.852478
0.851638
0.850771
0.849879
0.848966
0.848033
0.847084
0.846118
0.845139
0.844148
0.843144
0.84213
0.841106
0.840073
0.839029
0.837977
0.836915
0.835842
0.834759
0.833664
0.832554
0.831429
0.830286
0.82912
0.827928
0.826702
0.825434
0.824115
0.822727
0.82125
0.819653
0.81789
0.815889
0.81353
0.810595
0.806642
0.800594
0.788905
0.747795
0.229787
8.80814e-05
1.1e-06
1.1e-06
1.1e-06
1.1e-06
1.1e-06
1.1e-06
1.1e-06
1.1e-06
1.1e-06
1.1e-06
1.1e-06
1.1e-06
1.1e-06
1.1e-06
1.1e-06
1.1e-06
1.1e-06
1.1e-06
1.1e-06
1.1e-06
1.1e-06
1.1e-06
1.1e-06
1.1e-06
1.1e-06
1.1e-06
1.1e-06
1.1e-06
1.1e-06
1.1e-06
1.1e-06
1.1e-06
1.1e-06
1.1e-06
1.1e-06
1.1e-06
1.1e-06
1.1e-06
1.1e-06
1.1e-06
1.1e-06
1.1e-06
1.1e-06
1.1e-06
1.1e-06
1.1e-06
1.1e-06
1.1e-06
1.1e-06
1.1e-06
1.1e-06
1.1e-06
1.1e-06
1.1e-06
1.1e-06
1.1e-06
1.1e-06
1.1e-06
1.1e-06
1.1e-06
1.1e-06
1.1e-06
1.1e-06
1.1e-06
1.1e-06
1.1e-06
1.1e-06
1.1e-06
1.1e-06
1.1e-06
1.1e-06
1.1e-06
1.1e-06
1.1e-06
1.1e-06
1.1e-06
1.1e-06
1.1e-06
1.1e-06
1.1e-06
1.1e-06
1.1e-06
1.1e-06
1.1e-06
1.1e-06
1.1e-06
1.1e-06
1.1e-06
1.1e-06
1.1e-06
1.1e-06
1.1e-06
1.1e-06
1.1e-06
1.1e-06
1.1e-06
1.1e-06
1.1e-06
1.1e-06
1.1e-06
1.1e-06
1.1e-06
1.1e-06
1.1e-06
1.1e-06
1.1e-06
1.1e-06
1.1e-06
1.1e-06
1.1e-06
1.1e-06
1.1e-06
1.1e-06
1.1e-06
1.1e-06
1.1e-06
1.1e-06
1.1e-06
0.858541
0.859203
0.859791
0.860296
0.860711
0.861029
0.861246
0.86136
0.861372
0.861282
0.861094
0.860814
0.860447
0.86
0.859479
0.85889
0.858241
0.857538
0.856787
0.855992
0.85516
0.854294
0.853399
0.852477
0.851534
0.85057
0.849589
0.848592
0.847582
0.84656
0.845527
0.844484
0.843432
0.842372
0.841304
0.840228
0.839145
0.838053
0.836954
0.835846
0.834728
0.833599
0.832458
0.831301
0.830126
0.82893
0.827707
0.82645
0.82515
0.823795
0.822368
0.820846
0.819191
0.817351
0.815238
0.812705
0.809473
0.804941
0.797526
0.781105
0.683807
0.0517131
2.79831e-06
1.1e-06
1.1e-06
1.1e-06
1.1e-06
1.1e-06
1.1e-06
1.1e-06
1.1e-06
1.1e-06
1.1e-06
1.1e-06
1.1e-06
1.1e-06
1.1e-06
1.1e-06
1.1e-06
1.1e-06
1.1e-06
1.1e-06
1.1e-06
1.1e-06
1.1e-06
1.1e-06
1.1e-06
1.1e-06
1.1e-06
1.1e-06
1.1e-06
1.1e-06
1.1e-06
1.1e-06
1.1e-06
1.1e-06
1.1e-06
1.1e-06
1.1e-06
1.1e-06
1.1e-06
1.1e-06
1.1e-06
1.1e-06
1.1e-06
1.1e-06
1.1e-06
1.1e-06
1.1e-06
1.1e-06
1.1e-06
1.1e-06
1.1e-06
1.1e-06
1.1e-06
1.1e-06
1.1e-06
1.1e-06
1.1e-06
1.1e-06
1.1e-06
1.1e-06
1.1e-06
1.1e-06
1.1e-06
1.1e-06
1.1e-06
1.1e-06
1.1e-06
1.1e-06
1.1e-06
1.1e-06
1.1e-06
1.1e-06
1.1e-06
1.1e-06
1.1e-06
1.1e-06
1.1e-06
1.1e-06
1.1e-06
1.1e-06
1.1e-06
1.1e-06
1.1e-06
1.1e-06
1.1e-06
1.1e-06
1.1e-06
1.1e-06
1.1e-06
1.1e-06
1.1e-06
1.1e-06
1.1e-06
1.1e-06
1.1e-06
1.1e-06
1.1e-06
1.1e-06
1.1e-06
1.1e-06
1.1e-06
1.1e-06
1.1e-06
1.1e-06
1.1e-06
1.1e-06
1.1e-06
1.1e-06
1.1e-06
1.1e-06
1.1e-06
1.1e-06
1.1e-06
1.1e-06
1.1e-06
1.1e-06
1.1e-06
1.1e-06
0.860626
0.861379
0.86205
0.862627
0.863102
0.863465
0.863711
0.863839
0.863848
0.863743
0.863527
0.863208
0.862794
0.862293
0.861713
0.861062
0.860349
0.859581
0.858766
0.857908
0.857013
0.856087
0.855134
0.854157
0.85316
0.852145
0.851115
0.850071
0.849017
0.847952
0.846878
0.845797
0.844709
0.843614
0.842513
0.841406
0.840293
0.839174
0.838049
0.836917
0.835778
0.834629
0.833471
0.832301
0.831117
0.829915
0.828691
0.827441
0.826156
0.824826
0.82344
0.821976
0.82041
0.818699
0.816781
0.814553
0.811832
0.808258
0.803008
0.793647
0.768053
0.448325
0.00127475
1.1e-06
1.1e-06
1.1e-06
1.1e-06