/*--------------------------------*- C++ -*----------------------------------*\
  =========                 |
  \\      /  F ield         | OpenFOAM: The Open Source CFD Toolbox
   \\    /   O peration     | Website:  https://openfoam.org
    \\  /    A nd           | Version:  10
     \\/     M anipulation  |
\*---------------------------------------------------------------------------*/
FoamFile
{
    format      ascii;
    class       volVectorField;
    location    "2.29";
    object      Ub;
}
// * * * * * * * * * * * * * * * * * * * * * * * * * * * * * * * * * * * * * //

dimensions      [0 1 -1 0 0 0 0];

internalField   nonuniform List<vector> 
12225
(
(0.0022808 -0.000460653 0)
(0.00651163 -0.000410379 0)
(0.0100012 -0.000337698 0)
(0.0126996 -0.000265054 0)
(0.014714 -0.000204122 0)
(0.0162053 -0.000158285 0)
(0.0173288 -0.000126761 0)
(0.0182128 -0.000107451 0)
(0.0189569 -9.83874e-05 0)
(0.0196387 -9.83706e-05 0)
(0.0203227 -0.000107305 0)
(0.0210701 -0.000126632 0)
(0.0219514 -0.00016032 0)
(0.0230669 -0.000217431 0)
(0.0245915 -0.000319644 0)
(0.026903 -0.000528012 0)
(0.0310844 -0.00106986 0)
(0.0417662 -0.00319159 0)
(0.00241625 -0.00144415 0)
(0.00688999 -0.00128464 0)
(0.0105624 -0.00105488 0)
(0.0133848 -0.000825931 0)
(0.0154773 -0.000634412 0)
(0.0170154 -0.000490679 0)
(0.0181662 -0.000392029 0)
(0.0190663 -0.000331707 0)
(0.0198208 -0.00030343 0)
(0.0205111 -0.000303348 0)
(0.0212039 -0.000331052 0)
(0.0219619 -0.000390859 0)
(0.0228557 -0.000494725 0)
(0.0239831 -0.0006697 0)
(0.0255055 -0.00097896 0)
(0.0277323 -0.00159105 0)
(0.0312921 -0.00306066 0)
(0.0367076 -0.00776481 0)
(0.00252135 -0.00255162 0)
(0.00717766 -0.00226433 0)
(0.0109752 -0.00185301 0)
(0.0138705 -0.00144535 0)
(0.0159992 -0.00110594 0)
(0.0175514 -0.00085224 0)
(0.0187045 -0.000678692 0)
(0.019601 -0.000572846 0)
(0.0203495 -0.000523284 0)
(0.0210327 -0.00052294 0)
(0.0217174 -0.000570742 0)
(0.0224647 -0.000673624 0)
(0.0233409 -0.000851054 0)
(0.0244316 -0.00114624 0)
(0.0258625 -0.00165562 0)
(0.0278219 -0.00261355 0)
(0.0304781 -0.00465668 0)
(0.0329945 -0.00961051 0)
(0.00262912 -0.00378949 0)
(0.00746658 -0.00335182 0)
(0.0113757 -0.00273053 0)
(0.0143229 -0.00211955 0)
(0.0164656 -0.00161428 0)
(0.018012 -0.00123869 0)
(0.0191506 -0.000982909 0)
(0.0200297 -0.000827407 0)
(0.0207601 -0.000754607 0)
(0.0214245 -0.00075351 0)
(0.0220882 -0.000821782 0)
(0.0228084 -0.000968217 0)
(0.0236432 -0.00121816 0)
(0.0246592 -0.00162635 0)
(0.0259357 -0.00230736 0)
(0.0275376 -0.00350838 0)
(0.0293412 -0.0057691 0)
(0.0303157 -0.0101052 0)
(0.00275329 -0.00517581 0)
(0.00779321 -0.00455788 0)
(0.0118139 -0.0036908 0)
(0.0147987 -0.00284721 0)
(0.016936 -0.00215599 0)
(0.0184575 -0.00164603 0)
(0.0195649 -0.00130076 0)
(0.0204125 -0.0010917 0)
(0.0211123 -0.000993776 0)
(0.021746 -0.000991101 0)
(0.0223758 -0.0010792 0)
(0.0230529 -0.00126745 0)
(0.0238242 -0.00158442 0)
(0.0247342 -0.00208981 0)
(0.0258151 -0.00289915 0)
(0.0270378 -0.00422926 0)
(0.0281508 -0.00645091 0)
(0.0283196 -0.00997392 0)
(0.00290522 -0.0067378 0)
(0.00818587 -0.00589842 0)
(0.012325 -0.00473863 0)
(0.0153336 -0.00362645 0)
(0.0174439 -0.00272629 0)
(0.0189188 -0.00206873 0)
(0.0199762 -0.00162692 0)
(0.0207763 -0.00136076 0)
(0.0214318 -0.00123599 0)
(0.0220219 -0.0012306 0)
(0.0226041 -0.00133682 0)
(0.0232223 -0.00156286 0)
(0.0239107 -0.00193717 0)
(0.0246912 -0.00251731 0)
(0.025557 -0.00340498 0)
(0.0264235 -0.00476273 0)
(0.0270221 -0.00679688 0)
(0.0267796 -0.00957132 0)
(0.00309799 -0.00851392 0)
(0.00867554 -0.00739452 0)
(0.0129439 -0.00587906 0)
(0.0159592 -0.00445325 0)
(0.0180157 -0.00331767 0)
(0.0194177 -0.00249871 0)
(0.0204026 -0.00195385 0)
(0.0211367 -0.00162778 0)
(0.0217323 -0.00147483 0)
(0.0222648 -0.00146542 0)
(0.0227855 -0.00158703 0)
(0.0233298 -0.00184472 0)
(0.023919 -0.00226334 0)
(0.0245553 -0.00289198 0)
(0.0252054 -0.00380902 0)
(0.0257633 -0.0051175 0)
(0.0259986 -0.00689928 0)
(0.0255554 -0.00906248 0)
(0.00334931 -0.0105585 0)
(0.00930213 -0.00907324 0)
(0.0137121 -0.00711583 0)
(0.016709 -0.00531956 0)
(0.0186763 -0.00391829 0)
(0.0199724 -0.00292419 0)
(0.0208577 -0.00227103 0)
(0.0215044 -0.00188354 0)
(0.0220226 -0.00170191 0)
(0.0224822 -0.00168726 0)
(0.0229275 -0.0018208 0)
(0.0233845 -0.00210243 0)
(0.0238623 -0.00255025 0)
(0.0243487 -0.00320058 0)
(0.0247962 -0.00410491 0)
(0.0251012 -0.00531425 0)
(0.0250898 -0.00683215 0)
(0.0245575 -0.00852042 0)
(0.00368513 -0.0129497 0)
(0.0101217 -0.0109686 0)
(0.0146833 -0.00844896 0)
(0.0176228 -0.00621036 0)
(0.0194522 -0.00450977 0)
(0.0206 -0.00332814 0)
(0.0213527 -0.00256403 0)
(0.0218869 -0.00211585 0)
(0.0223082 -0.00190652 0)
(0.0226792 -0.00188601 0)
(0.0230355 -0.00202781 0)
(0.0233937 -0.00232488 0)
(0.023753 -0.00278642 0)
(0.0240915 -0.00343399 0)
(0.0243579 -0.00429367 0)
(0.0244642 -0.00537774 0)
(0.0242902 -0.0066492 0)
(0.0237273 -0.00797522 0)
(0.00414581 -0.0158033 0)
(0.0112171 -0.0131221 0)
(0.0159303 -0.00986984 0)
(0.0187489 -0.00709905 0)
(0.0203718 -0.00506398 0)
(0.0213163 -0.00368645 0)
(0.0218964 -0.00281335 0)
(0.0222893 -0.00230894 0)
(0.0225926 -0.00207534 0)
(0.0228588 -0.00204972 0)
(0.0231136 -0.00219664 0)
(0.0233645 -0.00250102 0)
(0.0236025 -0.00296213 0)
(0.0238008 -0.00358707 0)
(0.0239116 -0.00438112 0)
(0.0238663 -0.00533182 0)
(0.0235879 -0.00638698 0)
(0.023024 -0.00743754 0)
(0.00479752 -0.0192973 0)
(0.0127172 -0.0155806 0)
(0.0175546 -0.0113517 0)
(0.0201471 -0.00793968 0)
(0.0214656 -0.00553847 0)
(0.0221355 -0.00396543 0)
(0.0224947 -0.00299327 0)
(0.022714 -0.00244291 0)
(0.0228769 -0.00219232 0)
(0.0230225 -0.00216469 0)
(0.0231651 -0.00231514 0)
(0.023303 -0.00262024 0)
(0.0234211 -0.0030696 0)
(0.0234911 -0.00365792 0)
(0.0234717 -0.00437555 0)
(0.0233132 -0.00519692 0)
(0.0229695 -0.00606917 0)
(0.0224189 -0.00690953 0)
(0.00568375 -0.0232941 0)
(0.0146756 -0.0181433 0)
(0.0195482 -0.01272 0)
(0.0217713 -0.00861214 0)
(0.0226803 -0.00585773 0)
(0.0230125 -0.00411821 0)
(0.0231154 -0.00307352 0)
(0.0231414 -0.0024965 0)
(0.0231536 -0.00224093 0)
(0.0231741 -0.00221698 0)
(0.0232049 -0.00237147 0)
(0.0232357 -0.00267384 0)
(0.023247 -0.00310595 0)
(0.0232107 -0.00365364 0)
(0.0230925 -0.00429844 0)
(0.0228564 -0.00500989 0)
(0.0224747 -0.00574056 0)
(0.0219403 -0.00642895 0)
(0.00692991 -0.028422 0)
(0.0172998 -0.0209799 0)
(0.0220249 -0.013955 0)
(0.023658 -0.0090591 0)
(0.0240125 -0.00597118 0)
(0.0239259 -0.00410765 0)
(0.023729 -0.00302806 0)
(0.0235386 -0.0024517 0)
(0.0233876 -0.00220879 0)
(0.023277 -0.00219839 0)
(0.0231946 -0.00236077 0)
(0.0231215 -0.00265997 0)
(0.0230343 -0.00307237 0)
(0.0229059 -0.0035782 0)
(0.022708 -0.0041548 0)
(0.0224153 -0.00477169 0)
(0.022012 -0.00538911 0)
(0.0214981 -0.0059619 0)
(0.00918008 -0.0364364 0)
(0.0217366 -0.0244627 0)
(0.0257917 -0.0149717 0)
(0.0262916 -0.00912768 0)
(0.0257539 -0.00575075 0)
(0.0250598 -0.00383967 0)
(0.0244573 -0.00278966 0)
(0.0239881 -0.00226034 0)
(0.023635 -0.00206101 0)
(0.0233677 -0.00208315 0)
(0.0231552 -0.00226335 0)
(0.022968 -0.00256264 0)
(0.0227785 -0.00295417 0)
(0.0225605 -0.00341538 0)
(0.0222908 -0.0039227 0)
(0.0219521 -0.00444884 0)
(0.021536 -0.00496289 0)
(0.0210456 -0.00543363 0)
(0.0137797 -0.0504404 0)
(0.0299711 -0.0280122 0)
(0.0316973 -0.0148837 0)
(0.0299277 -0.00821816 0)
(0.0279467 -0.00483388 0)
(0.0263913 -0.0030925 0)
(0.025262 -0.00221558 0)
(0.0244521 -0.00182445 0)
(0.0238627 -0.00172567 0)
(0.0234191 -0.00181504 0)
(0.023066 -0.00203305 0)
(0.0227613 -0.00234286 0)
(0.0224722 -0.00271863 0)
(0.0221725 -0.00313878 0)
(0.0218424 -0.00358238 0)
(0.0214694 -0.00402768 0)
(0.0210484 -0.00445274 0)
(0.0205827 -0.00483754 0)
(0.0249439 -0.0794742 0)
(0.047299 -0.0275068 0)
(0.0409226 -0.0111082 0)
(0.0345722 -0.0050985 0)
(0.0303912 -0.00261999 0)
(0.027733 -0.00154634 0)
(0.0259995 -0.00111725 0)
(0.024825 -0.00102158 0)
(0.0239941 -0.00111628 0)
(0.0233766 -0.0013287 0)
(0.0228894 -0.00161797 0)
(0.0224769 -0.00195851 0)
(0.0221004 -0.00233176 0)
(0.0217329 -0.00272192 0)
(0.0213562 -0.00311411 0)
(0.0209599 -0.00349388 0)
(0.0205401 -0.00384777 0)
(0.0200986 -0.00416454 0)
(0.0592049 0.000543403 0)
(0.0905197 0.00301121 0)
(0.0528475 0.00253962 0)
(0.0387502 0.001977 0)
(0.0321728 0.00149904 0)
(0.0285757 0.0010666 0)
(0.0263844 0.000652564 0)
(0.0249421 0.000244995 0)
(0.0239309 -0.000160851 0)
(0.0231783 -0.000565588 0)
(0.0225817 -0.000967125 0)
(0.0220778 -0.00136576 0)
(0.0216271 -0.00175715 0)
(0.0212036 -0.00213592 0)
(0.0207909 -0.00249596 0)
(0.0203795 -0.002831 0)
(0.0199653 -0.00313532 0)
(0.0195482 -0.00340444 0)
(0.0204975 0.0761429 0)
(0.0405095 0.0319703 0)
(0.037351 0.0163466 0)
(0.0325499 0.00959375 0)
(0.0289616 0.00613684 0)
(0.0265107 0.00410243 0)
(0.0248305 0.0027595 0)
(0.0236429 0.00178603 0)
(0.0227681 0.00102599 0)
(0.0220929 0.000398921 0)
(0.0215463 -0.000138383 0)
(0.0210805 -0.000611426 0)
(0.0206619 -0.00103394 0)
(0.0202698 -0.00141594 0)
(0.0198925 -0.0017607 0)
(0.0195233 -0.0020696 0)
(0.0191592 -0.00234325 0)
(0.0187993 -0.00258222 0)
(0.00782325 0.0403919 0)
(0.018733 0.0279003 0)
(0.0226194 0.0185307 0)
(0.023379 0.0125128 0)
(0.023051 0.0086639 0)
(0.0224394 0.00611386 0)
(0.0218198 0.00434421 0)
(0.0212686 0.00305662 0)
(0.0207929 0.00207769 0)
(0.0203795 0.00130426 0)
(0.0200117 0.000673397 0)
(0.0196759 0.000147939 0)
(0.0193626 -0.000297409 0)
(0.019063 -0.000679035 0)
(0.0187704 -0.00101024 0)
(0.0184819 -0.00129835 0)
(0.0181965 -0.00154834 0)
(0.0179143 -0.00176408 0)
(0.00425207 0.0245184 0)
(0.0111748 0.0202732 0)
(0.0152736 0.0156171 0)
(0.017399 0.0117323 0)
(0.0184071 0.00875666 0)
(0.0188326 0.00652997 0)
(0.0189638 0.00485879 0)
(0.0189467 0.00358585 0)
(0.0188531 0.00259695 0)
(0.0187176 0.00181251 0)
(0.0185569 0.00117783 0)
(0.0183793 0.000655334 0)
(0.0181891 0.000219038 0)
(0.0179905 -0.00014658 0)
(0.0177855 -0.000455283 0)
(0.0175744 -0.000719204 0)
(0.0173591 -0.000945368 0)
(0.0171413 -0.00113904 0)
(0.00292518 0.0172907 0)
(0.00803308 0.0152092 0)
(0.0116643 0.0125106 0)
(0.0140216 0.00993765 0)
(0.0154852 0.00775566 0)
(0.0163731 0.00599428 0)
(0.0169004 0.00459778 0)
(0.0172014 0.00349276 0)
(0.0173571 0.00261278 0)
(0.0174165 0.00190465 0)
(0.0174094 0.00132798 0)
(0.0173546 0.000852839 0)
(0.0172647 0.000457214 0)
(0.0171484 0.000124961 0)
(0.0170132 -0.000153436 0)
(0.0168641 -0.000388504 0)
(0.016704 -0.000589027 0)
(0.0165362 -0.000760238 0)
(0.00226788 0.0127539 0)
(0.00637399 0.0115589 0)
(0.00957157 0.0098631 0)
(0.0118881 0.00810987 0)
(0.0135031 0.00652064 0)
(0.014607 0.0051685 0)
(0.0153523 0.00405244 0)
(0.0158481 0.00314261 0)
(0.0161689 0.00240256 0)
(0.0163652 0.00179851 0)
(0.0164709 0.00130227 0)
(0.0165096 0.000891506 0)
(0.016498 0.000548905 0)
(0.0164481 0.000261208 0)
(0.0163693 1.8633e-05 0)
(0.0162692 -0.000184783 0)
(0.0161531 -0.000357476 0)
(0.0160248 -0.000504798 0)
(0.00189653 0.00959312 0)
(0.00540057 0.00883784 0)
(0.00827231 0.0077081 0)
(0.0104873 0.00647927 0)
(0.0121353 0.00531522 0)
(0.013336 0.00428827 0)
(0.0141988 0.00341586 0)
(0.014811 0.00268871 0)
(0.0152377 0.00208739 0)
(0.0155264 0.00159072 0)
(0.0157116 0.00117938 0)
(0.0158182 0.00083712 0)
(0.0158647 0.000550791 0)
(0.015865 0.000309974 0)
(0.0158298 0.000106478 0)
(0.0157677 -6.50351e-05 0)
(0.0156853 -0.000209607 0)
(0.0155875 -0.000332975 0)
(0.0016669 0.00724141 0)
(0.00478421 0.0067369 0)
(0.00741881 0.00595702 0)
(0.00953065 0.00508048 0)
(0.0111663 0.00422532 0)
(0.0124053 0.00345179 0)
(0.0133297 0.00278114 0)
(0.0140102 0.00221306 0)
(0.0145034 0.00173742 0)
(0.0148532 0.0013409 0)
(0.0150927 0.0010103 0)
(0.0152472 0.000733927 0)
(0.0153357 0.000501997 0)
(0.015373 0.000306537 0)
(0.0153705 0.000141155 0)
(0.0153372 9.34389e-07 0)
(0.0152806 -0.000116873 0)
(0.015206 -0.00021731 0)
(0.001515 0.00541456 0)
(0.00436979 0.00506864 0)
(0.00682976 0.00452219 0)
(0.00885073 0.00389459 0)
(0.0104571 0.00327001 0)
(0.0117053 0.00269524 0)
(0.0126592 0.00218972 0)
(0.013378 0.00175654 0)
(0.0139118 0.00139052 0)
(0.0143008 0.00108324 0)
(0.0145767 0.000825688 0)
(0.0147642 0.000609549 0)
(0.0148824 0.000427653 0)
(0.0149464 0.000274048 0)
(0.0149679 0.000143878 0)
(0.0149562 3.32166e-05 0)
(0.0149189 -6.00457e-05 0)
(0.0148621 -0.000139269 0)
(0.00140842 0.00395387 0)
(0.0040754 0.0037164 0)
(0.00640253 0.00333564 0)
(0.00834536 0.00289198 0)
(0.00991632 0.00244447 0)
(0.0111577 0.00202777 0)
(0.0121219 0.00165759 0)
(0.0128601 0.00133777 0)
(0.013417 0.00106574 0)
(0.0138301 0.000836177 0)
(0.0141296 0.000642979 0)
(0.0143393 0.000480338 0)
(0.0144782 0.000343136 0)
(0.0145612 0.000227056 0)
(0.0146003 0.000128539 0)
(0.0146047 4.46836e-05 0)
(0.0145822 -2.63731e-05 0)
(0.014539 -8.64649e-05 0)
(0.00132871 0.00276341 0)
(0.00385281 0.0026046 0)
(0.00607344 0.0023473 0)
(0.00794713 0.00204457 0)
(0.00947961 0.00173646 0)
(0.0107045 0.00144723 0)
(0.0116665 0.00118852 0)
(0.012411 0.000963708 0)
(0.012979 0.000771584 0)
(0.0134055 0.000608818 0)
(0.0137193 0.000471413 0)
(0.0139434 0.000355451 0)
(0.0140963 0.000257427 0)
(0.0141929 0.000174356 0)
(0.0142447 0.000103753 0)
(0.0142612 4.35832e-05 0)
(0.0142501 -7.6572e-06 0)
(0.0142175 -5.07692e-05 0)
(0.00126365 0.00178173 0)
(0.00366922 0.00168252 0)
(0.00579703 0.0015206 0)
(0.00760504 0.00132885 0)
(0.00909523 0.00113252 0)
(0.0102957 0.00094722 0)
(0.0112458 0.000780695 0)
(0.0119869 0.000635403 0)
(0.012557 0.000510813 0)
(0.0129889 0.000404958 0)
(0.0133101 0.000315381 0)
(0.0135428 0.000239629 0)
(0.0137049 0.000175485 0)
(0.0138109 0.000121041 0)
(0.0138722 7.47065e-05 0)
(0.013898 3.51678e-05 0)
(0.0138958 1.36378e-06 0)
(0.0138718 -2.69576e-05 0)
(0.00120231 0.00096844 0)
(0.00349431 0.000915732 0)
(0.00552893 0.000829246 0)
(0.00726591 0.000726396 0)
(0.00870514 0.000620674 0)
(0.009871 0.000520542 0)
(0.0107991 0.000430268 0)
(0.0115273 0.000351284 0)
(0.0120911 0.000283387 0)
(0.0125215 0.000225575 0)
(0.0128443 0.000176559 0)
(0.0130809 0.000135038 0)
(0.0132485 9.98239e-05 0)
(0.0133609 6.98935e-05 0)
(0.0134293 4.43866e-05 0)
(0.0134626 2.25919e-05 0)
(0.0134681 3.92092e-06 0)
(0.0134517 -1.16759e-05 0)
(0.001123 0.000299937 0)
(0.00326588 0.000283838 0)
(0.0051729 0.000257336 0)
(0.00680638 0.000225747 0)
(0.00816515 0.000193205 0)
(0.00927057 0.000162323 0)
(0.0101547 0.00013443 0)
(0.0108519 0.000109986 0)
(0.0113948 8.89403e-05 0)
(0.0118119 7.09961e-05 0)
(0.0121273 5.57627e-05 0)
(0.0123607 4.2843e-05 0)
(0.0125284 3.18737e-05 0)
(0.0126434 2.25402e-05 0)
(0.012716 1.45779e-05 0)
(0.0127548 7.76739e-06 0)
(0.0127666 1.92721e-06 0)
(0.0127574 -2.92998e-06 0)
(7.77935e-05 -0.000188753 -2.43866e-30)
(0.00023407 -0.000188551 2.43421e-30)
(0.000391453 -0.000188216 0)
(0.000549843 -0.000187741 0)
(0.000709133 -0.00018712 0)
(0.000869208 -0.000186347 -2.39822e-30)
(0.00102995 -0.000185421 0)
(0.00119123 -0.00018434 0)
(0.00135294 -0.000183106 0)
(0.00151495 -0.000181723 0)
(0.00167717 -0.000180201 2.30925e-30)
(0.00183949 -0.000178554 0)
(0.00200184 -0.000176801 0)
(0.00216418 -0.000174969 0)
(0.00232651 -0.000173091 0)
(0.00248887 -0.000171212 2.18348e-30)
(0.00265136 -0.000169383 0)
(0.00281417 -0.000167664 0)
(0.00297757 -0.000166119 0)
(0.00314191 -0.000164814 0)
(0.00330765 -0.000163809 0)
(0.00347534 -0.000163161 0)
(0.00364563 -0.000162919 0)
(0.00381922 -0.000163122 2.06322e-30)
(0.00399691 -0.000163805 -2.06994e-30)
(0.00417957 -0.000164993 2.08314e-30)
(0.00436808 -0.000166703 2.10302e-30)
(0.00456334 -0.00016894 0)
(0.00476621 -0.000171695 0)
(0.00497745 -0.000174941 -2.2023e-30)
(0.00519763 -0.00017863 -2.24738e-30)
(0.00542709 -0.000182696 0)
(0.00566585 -0.000187063 0)
(0.00591366 -0.000191666 -2.40742e-30)
(0.00617006 -0.000196483 0)
(0.00643454 -0.000201565 0)
(0.00670677 -0.000207067 2.59711e-30)
(0.00698685 -0.000213273 0)
(0.0072755 -0.000220599 2.76529e-30)
(0.00757429 -0.000229614 5.75655e-30)
(0.00788579 -0.000241068 0)
(0.00821384 -0.000255965 0)
(0.00856386 -0.000275708 0)
(0.00894345 -0.000302381 0)
(0.00936339 -0.000339287 0)
(0.00983936 -0.000392071 9.90249e-30)
(0.0103949 -0.000471131 1.1933e-29)
(0.0110651 -0.000597071 1.51727e-29)
(0.0118845 -0.000812389 0)
(0.0125153 -0.0011885 -3.04264e-29)
(0.00638048 -0.00100595 0)
(3.06632e-05 -1.40029e-08 -3.61966e-34)
(1.84633e-17 -8.43172e-21 -2.17955e-46)
(9.5566e-32 3.12573e-33 0)
(9.14552e-32 2.19192e-33 0)
(8.83799e-32 1.66867e-33 0)
(8.59004e-32 1.3529e-33 -3.69998e-59)
(8.3791e-32 1.14516e-33 0)
(8.1933e-32 9.95853e-34 0)
(8.02606e-32 8.80148e-34 0)
(7.87354e-32 7.85462e-34 0)
(7.73326e-32 7.05159e-34 0)
(7.60348e-32 6.35486e-34 0)
(7.4829e-32 5.74109e-34 0)
(7.37051e-32 5.19441e-34 0)
(7.26546e-32 4.70325e-34 1.38729e-59)
(7.16707e-32 4.25884e-34 0)
(7.07474e-32 3.85431e-34 0)
(6.98799e-32 3.48426e-34 -1.06564e-59)
(6.90637e-32 3.14429e-34 -9.75836e-60)
(6.8295e-32 2.83086e-34 0)
(6.75706e-32 2.54103e-34 8.16368e-60)
(6.68874e-32 2.27232e-34 -7.45298e-60)
(6.62428e-32 2.02266e-34 0)
(6.56343e-32 1.79026e-34 6.1773e-60)
(6.50596e-32 1.57358e-34 0)
(6.45169e-32 1.37126e-34 0)
(6.40042e-32 1.18212e-34 -4.5668e-60)
(6.35198e-32 1.00513e-34 0)
(6.30621e-32 8.39345e-35 3.6585e-60)
(6.26297e-32 6.83943e-35 0)
(6.22212e-32 5.38178e-35 -2.86017e-60)
(6.18353e-32 4.01381e-35 -2.49743e-60)
(6.14708e-32 2.72945e-35 -2.15683e-60)
(6.11266e-32 1.52318e-35 -3.67376e-60)
(6.08016e-32 3.89965e-36 3.07258e-60)
(6.04948e-32 -6.74793e-36 0)
(6.02054e-32 -1.67533e-35 0)
(5.99323e-32 -2.61556e-35 0)
(5.96748e-32 -3.49909e-35 1.00876e-60)
(5.9432e-32 -4.32928e-35 5.68108e-61)
(5.92032e-32 -5.10925e-35 -1.5406e-61)
(5.89876e-32 -5.84192e-35 0)
(5.87847e-32 -6.53001e-35 -6.0022e-61)
(5.85936e-32 -7.17607e-35 -9.43219e-61)
(5.84139e-32 -7.7825e-35 -1.26523e-60)
(5.82448e-32 -8.35156e-35 0)
(5.80859e-32 -8.88538e-35 0)
(5.79366e-32 -9.38595e-35 0)
(5.77964e-32 -9.85516e-35 -2.36592e-60)
(5.76647e-32 -1.02948e-34 0)
(5.75412e-32 -1.07066e-34 0)
(5.74254e-32 -1.10921e-34 3.02294e-60)
(5.73169e-32 -1.14528e-34 0)
(5.72151e-32 -1.17902e-34 0)
(5.71199e-32 -1.21056e-34 3.56134e-60)
(5.70308e-32 -1.24004e-34 0)
(5.69475e-32 -1.26756e-34 0)
(5.68695e-32 -1.29326e-34 -4.00068e-60)
(5.67967e-32 -1.31723e-34 -4.12805e-60)
(5.67288e-32 -1.33958e-34 0)
(5.66653e-32 -1.36041e-34 4.35749e-60)
(5.66062e-32 -1.37981e-34 0)
(5.6551e-32 -1.39788e-34 -4.55659e-60)
(5.64996e-32 -1.41468e-34 0)
(5.64518e-32 -1.4303e-34 -4.72891e-60)
(5.64073e-32 -1.44482e-34 -4.8061e-60)
(5.63659e-32 -1.45831e-34 0)
(5.63274e-32 -1.47082e-34 0)
(5.62917e-32 -1.48243e-34 0)
(5.62585e-32 -1.49319e-34 0)
(5.62277e-32 -1.50316e-34 0)
(5.61992e-32 -1.51239e-34 0)
(5.61727e-32 -1.52093e-34 0)
(5.61483e-32 -1.52883e-34 -5.25259e-60)
(5.61256e-32 -1.53612e-34 5.29141e-60)
(5.61047e-32 -1.54286e-34 0)
(5.60853e-32 -1.54908e-34 0)
(5.60675e-32 -1.55481e-34 0)
(5.6051e-32 -1.56009e-34 0)
(5.60358e-32 -1.56496e-34 1.08894e-59)
(5.60218e-32 -1.56943e-34 0)
(5.60089e-32 -1.57355e-34 -1.09808e-59)
(5.5997e-32 -1.57732e-34 1.1021e-59)
(5.5986e-32 -1.58079e-34 0)
(5.5976e-32 -1.58398e-34 0)
(5.59667e-32 -1.58689e-34 0)
(5.59583e-32 -1.58956e-34 -1.11511e-59)
(5.59505e-32 -1.59199e-34 -1.1177e-59)
(5.59433e-32 -1.59422e-34 0)
(5.59368e-32 -1.59625e-34 -1.12223e-59)
(5.59308e-32 -1.59809e-34 -1.12419e-59)
(5.59253e-32 -1.59976e-34 1.12597e-59)
(5.59202e-32 -1.60128e-34 0)
(5.59156e-32 -1.60264e-34 0)
(5.59113e-32 -1.60386e-34 1.13034e-59)
(5.59074e-32 -1.60495e-34 0)
(5.59038e-32 -1.60591e-34 0)
(5.59004e-32 -1.60674e-34 0)
(5.58973e-32 -1.60745e-34 0)
(5.58943e-32 -1.60804e-34 -1.13482e-59)
(5.58915e-32 -1.6085e-34 -1.13532e-59)
(5.58889e-32 -1.60882e-34 0)
(5.58862e-32 -1.60899e-34 -1.13589e-59)
(5.58836e-32 -1.60901e-34 0)
(5.58809e-32 -1.60884e-34 0)
(5.58782e-32 -1.60846e-34 -1.13541e-59)
(5.58752e-32 -1.60782e-34 0)
(5.58718e-32 -1.60688e-34 -1.13384e-59)
(5.58681e-32 -1.60557e-34 0)
(5.58637e-32 -1.60379e-34 0)
(5.58585e-32 -1.60144e-34 -1.12834e-59)
(5.58522e-32 -1.59836e-34 0)
(5.58445e-32 -1.59435e-34 -1.12114e-59)
(5.5835e-32 -1.58915e-34 0)
(5.5823e-32 -1.58241e-34 0)
(5.58079e-32 -1.57366e-34 0)
(5.57886e-32 -1.56227e-34 1.08849e-59)
(5.57639e-32 -1.54736e-34 0)
(5.57319e-32 -1.52773e-34 -1.05332e-59)
(5.56902e-32 -1.50163e-34 0)
(5.56355e-32 -1.46648e-34 0)
(5.55628e-32 -1.41837e-34 0)
(5.54651e-32 -1.351e-34 0)
(5.53314e-32 -1.25364e-34 0)
(5.51438e-32 -1.10637e-34 0)
(5.48705e-32 -8.67569e-35 0)
(5.44472e-32 -4.33986e-35 -1.30905e-60)
(5.37113e-32 5.25374e-35 0)
(5.20804e-32 3.53364e-34 0)
(0.000101502 -0.000601105 7.76548e-30)
(0.000305404 -0.000600563 -7.75126e-30)
(0.000510771 -0.000599603 0)
(0.000717485 -0.000598214 1.54296e-29)
(0.000925426 -0.00059638 0)
(0.00113448 -0.000594105 -7.66523e-30)
(0.00134455 -0.0005914 -1.52238e-29)
(0.00155559 -0.000588289 -1.51334e-29)
(0.00176756 -0.000584798 0)
(0.00198048 -0.000580961 -1.4924e-29)
(0.00219438 -0.000576814 7.42924e-30)
(0.00240932 -0.000572397 0)
(0.00262534 -0.000567758 0)
(0.00284249 -0.000562951 0)
(0.00306082 -0.000558038 0)
(0.00328031 -0.000553092 7.10982e-30)
(0.00350091 -0.000548193 0)
(0.00372249 -0.000543431 1.38716e-29)
(0.00394486 -0.000538901 0)
(0.00416774 -0.000534701 0)
(0.00439081 -0.000530931 -1.35169e-29)
(0.00461371 -0.000527689 0)
(0.00483604 -0.000525068 1.33443e-29)
(0.00505744 -0.000523162 6.70201e-30)
(0.00527755 -0.000522058 -6.68514e-30)
(0.00549607 -0.000521842 6.67976e-30)
(0.00571276 -0.000522594 6.68692e-30)
(0.00592745 -0.000524386 0)
(0.00614008 -0.000527277 0)
(0.00635071 -0.000531305 -6.79198e-30)
(0.00655953 -0.000536485 -2.04145e-29)
(0.00676689 -0.000542817 0)
(0.00697335 -0.000550305 0)
(0.00717965 -0.000558993 -7.14006e-30)
(0.00738678 -0.00056902 0)
(0.00759597 -0.000580677 0)
(0.00780872 -0.000594467 7.59112e-30)
(0.00802678 -0.000611153 0)
(0.00825219 -0.000631802 2.40105e-29)
(0.00848738 -0.000657842 1.68044e-29)
(0.0087352 -0.000691157 0)
(0.00899908 -0.000734266 0)
(0.00928319 -0.000790645 -3.99986e-29)
(0.0095925 -0.000865271 -4.38275e-29)
(0.00993275 -0.0009656 -4.89822e-29)
(0.0103096 -0.00110328 8.43401e-29)
(0.0107255 -0.00129722 3.3279e-29)
(0.011169 -0.00157885 -4.00211e-29)
(0.0115764 -0.00199877 1.02241e-28)
(0.0116695 -0.00260596 -6.70869e-29)
(0.00763007 -0.00245423 0)
(0.00183914 -4.85017e-06 8.19534e-32)
(3.49283e-08 -4.78524e-11 -4.12314e-37)
(1.42981e-31 8.17491e-33 0)
(8.94648e-32 6.12368e-33 0)
(8.72447e-32 4.94337e-33 0)
(8.51989e-32 4.18395e-33 -1.10164e-58)
(8.33173e-32 3.65303e-33 0)
(8.15848e-32 3.25073e-33 -1.75763e-58)
(7.99868e-32 2.92653e-33 0)
(7.85098e-32 2.65447e-33 -1.44647e-58)
(7.71409e-32 2.42035e-33 0)
(7.58688e-32 2.21555e-33 1.21706e-58)
(7.46834e-32 2.03428e-33 0)
(7.3576e-32 1.87234e-33 -1.03746e-58)
(7.25393e-32 1.72656e-33 1.42455e-58)
(7.15669e-32 1.59445e-33 0)
(7.06536e-32 1.47406e-33 8.28791e-59)
(6.97946e-32 1.36381e-33 -3.69013e-59)
(6.89859e-32 1.26244e-33 -3.4262e-59)
(6.82239e-32 1.16892e-33 0)
(6.75053e-32 1.0824e-33 9.19064e-59)
(6.68274e-32 1.00214e-33 -2.74825e-59)
(6.61874e-32 9.2755e-34 0)
(6.55831e-32 8.58092e-34 2.37295e-59)
(6.50123e-32 7.93313e-34 4.71528e-59)
(6.44731e-32 7.32816e-34 0)
(6.39635e-32 6.76249e-34 -1.89907e-59)
(6.34821e-32 6.23304e-34 0)
(6.30271e-32 5.73704e-34 -1.92939e-59)
(6.25971e-32 5.27203e-34 0)
(6.21909e-32 4.83582e-34 1.69051e-59)
(6.18071e-32 4.42639e-34 -1.29012e-59)
(6.14445e-32 4.04195e-34 -3.85978e-59)
(6.11021e-32 3.68085e-34 -7.15143e-59)
(6.07788e-32 3.34159e-34 6.61763e-59)
(6.04736e-32 3.02281e-34 0)
(6.01856e-32 2.72324e-34 0)
(5.99139e-32 2.4417e-34 0)
(5.96576e-32 2.17714e-34 -1.97063e-59)
(5.9416e-32 1.92853e-34 1.27758e-59)
(5.91883e-32 1.69495e-34 -1.15575e-59)
(5.89738e-32 1.47553e-34 0)
(5.87718e-32 1.26946e-34 3.35644e-59)
(5.85816e-32 1.07597e-34 8.32877e-60)
(5.84027e-32 8.94338e-35 7.38132e-60)
(5.82345e-32 7.23898e-35 0)
(5.80763e-32 5.64012e-35 0)
(5.79276e-32 4.1408e-35 0)
(5.77881e-32 2.73538e-35 4.14284e-60)
(5.7657e-32 1.41849e-35 0)
(5.75341e-32 1.85081e-36 1.1058e-59)
(5.74188e-32 -9.69627e-36 7.6324e-60)
(5.73107e-32 -2.05017e-35 -8.7047e-60)
(5.72094e-32 -3.06083e-35 0)
(5.71146e-32 -4.00567e-35 -7.2717e-60)
(5.70259e-32 -4.88854e-35 0)
(5.69429e-32 -5.71309e-35 -4.84786e-60)
(5.68653e-32 -6.48277e-35 3.37093e-60)
(5.67928e-32 -7.20086e-35 2.24015e-60)
(5.67252e-32 -7.87043e-35 0)
(5.6662e-32 -8.49445e-35 3.63496e-60)
(5.66031e-32 -9.07567e-35 -1.30682e-60)
(5.65482e-32 -9.61673e-35 -2.30161e-60)
(5.6497e-32 -1.01201e-34 0)
(5.64494e-32 -1.05882e-34 -2.80848e-60)
(5.6405e-32 -1.10231e-34 -2.29133e-60)
(5.63638e-32 -1.1427e-34 0)
(5.63255e-32 -1.1802e-34 1.56452e-60)
(5.62899e-32 -1.21497e-34 1.9308e-60)
(5.62569e-32 -1.24721e-34 2.27038e-60)
(5.62263e-32 -1.27708e-34 0)
(5.61979e-32 -1.30473e-34 0)
(5.61715e-32 -1.33031e-34 0)
(5.61472e-32 -1.35397e-34 -7.74359e-60)
(5.61246e-32 -1.37583e-34 4.46275e-60)
(5.61038e-32 -1.39601e-34 0)
(5.60845e-32 -1.41463e-34 -4.03406e-60)
(5.60667e-32 -1.43181e-34 -4.21498e-60)
(5.60503e-32 -1.44763e-34 0)
(5.60351e-32 -1.46221e-34 9.82706e-60)
(5.60212e-32 -1.47561e-34 -9.35299e-60)
(5.60083e-32 -1.48794e-34 -1.00957e-59)
(5.59965e-32 -1.49926e-34 2.00653e-59)
(5.59856e-32 -1.50966e-34 0)
(5.59756e-32 -1.51919e-34 0)
(5.59664e-32 -1.52792e-34 0)
(5.59579e-32 -1.53591e-34 -1.05964e-59)
(5.59502e-32 -1.54321e-34 -2.14504e-59)
(5.59431e-32 -1.54988e-34 -1.09183e-59)
(5.59365e-32 -1.55595e-34 -1.08057e-59)
(5.59306e-32 -1.56148e-34 -2.20263e-59)
(5.59251e-32 -1.56649e-34 1.09157e-59)
(5.592e-32 -1.57103e-34 0)
(5.59154e-32 -1.57511e-34 0)
(5.59112e-32 -1.57878e-34 2.2572e-59)
(5.59073e-32 -1.58204e-34 0)
(5.59037e-32 -1.58491e-34 0)
(5.59003e-32 -1.58741e-34 -1.17106e-59)
(5.58972e-32 -1.58954e-34 0)
(5.58943e-32 -1.5913e-34 -2.29684e-59)
(5.58915e-32 -1.59267e-34 -1.11896e-59)
(5.58888e-32 -1.59364e-34 0)
(5.58862e-32 -1.59417e-34 -2.30613e-59)
(5.58836e-32 -1.59422e-34 0)
(5.5881e-32 -1.59372e-34 0)
(5.58782e-32 -1.59258e-34 -1.11899e-59)
(5.58752e-32 -1.59069e-34 -1.17878e-59)
(5.5872e-32 -1.58789e-34 -1.1142e-59)
(5.58682e-32 -1.58397e-34 0)
(5.58639e-32 -1.57868e-34 0)
(5.58588e-32 -1.57166e-34 -2.23761e-59)
(5.58526e-32 -1.56247e-34 0)
(5.5845e-32 -1.5505e-34 -2.17262e-59)
(5.58356e-32 -1.53498e-34 0)
(5.58238e-32 -1.51487e-34 0)
(5.58089e-32 -1.48877e-34 0)
(5.57899e-32 -1.4548e-34 9.77363e-60)
(5.57656e-32 -1.41037e-34 0)
(5.57341e-32 -1.35187e-34 -8.7146e-60)
(5.56932e-32 -1.27412e-34 0)
(5.56395e-32 -1.16954e-34 0)
(5.55683e-32 -1.02656e-34 -2.37875e-61)
(5.54729e-32 -8.26743e-35 -3.85816e-60)
(5.53429e-32 -5.38872e-35 0)
(5.51617e-32 -1.0573e-35 0)
(5.49015e-32 5.89448e-35 0)
(5.45106e-32 1.823e-34 6.85855e-59)
(5.38895e-32 4.39635e-34 0)
(5.29097e-32 1.13289e-33 -5.08525e-58)
(0.000108518 -0.00106159 5.48699e-29)
(0.000326523 -0.00106074 -7.76596e-33)
(0.000546091 -0.00105911 0)
(0.00076705 -0.00105671 1.81663e-32)
(0.000989232 -0.00105353 0)
(0.00121247 -0.00104958 0)
(0.00143662 -0.00104491 -5.38507e-29)
(0.00166156 -0.00103959 -2.67941e-29)
(0.0018872 -0.00103368 2.65863e-29)
(0.0021135 -0.00102727 -2.64546e-29)
(0.00234041 -0.00102043 0)
(0.00256792 -0.00101322 0)
(0.00279603 -0.00100571 -2.57988e-29)
(0.00302474 -0.000997955 -5.11644e-29)
(0.00325402 -0.000990008 5.07211e-29)
(0.00348384 -0.000981912 0)
(0.00371409 -0.000973699 4.98127e-29)
(0.0039446 -0.000965394 2.47685e-29)
(0.00417513 -0.000957021 0)
(0.00440534 -0.000948613 4.84179e-29)
(0.0046348 -0.000940216 -2.40851e-29)
(0.00486304 -0.000931906 -4.74894e-29)
(0.00508957 -0.000923787 2.3639e-29)
(0.0053139 -0.000915996 0)
(0.00553563 -0.000908699 4.61943e-29)
(0.00575441 -0.00090209 4.58216e-29)
(0.00597001 -0.000896379 0)
(0.00618234 -0.000891792 4.52286e-29)
(0.00639141 -0.000888559 0)
(0.00659739 -0.000886913 4.49176e-29)
(0.0068006 -0.000887086 -2.26095e-29)
(0.00700149 -0.000889328 0)
(0.00720071 -0.000893916 0)
(0.00739905 -0.000901195 0)
(0.00759749 -0.000911613 0)
(0.0077972 -0.000925776 0)
(0.00799952 -0.000944499 0)
(0.00820598 -0.000968867 4.89266e-29)
(0.00841828 -0.0010003 -2.50619e-29)
(0.0086383 -0.00104063 0)
(0.0088681 -0.00109227 0)
(0.00910985 -0.00115836 0)
(0.00936579 -0.00124308 -1.2632e-28)
(0.00963793 -0.0013521 -6.89918e-29)
(0.00992754 -0.00149323 -4.68927e-31)
(0.0102341 -0.00167725 4.83416e-31)
(0.0105529 -0.00191881 -9.77047e-29)
(0.010872 -0.00223633 -1.14589e-28)
(0.0111668 -0.00264711 2.71067e-28)
(0.0113912 -0.00314018 1.60729e-28)
(0.0112133 -0.00349849 0)
(0.00548644 -0.00189667 9.72781e-29)
(1.10996e-05 -2.7908e-08 2.65075e-34)
(2.32794e-19 -5.3155e-22 0)
(8.71806e-32 8.60621e-33 0)
(8.57568e-32 7.43282e-33 3.96414e-58)
(8.41725e-32 6.59451e-33 0)
(8.25537e-32 5.92709e-33 0)
(8.09789e-32 5.36516e-33 -8.62704e-58)
(7.94849e-32 4.88014e-33 -5.27112e-58)
(7.80829e-32 4.45678e-33 -2.37784e-58)
(7.67718e-32 4.08461e-33 0)
(7.55459e-32 3.75523e-33 2.01275e-58)
(7.43984e-32 3.4617e-33 0)
(7.33224e-32 3.19826e-33 -5.23734e-58)
(7.2312e-32 2.96026e-33 1.59871e-58)
(7.13621e-32 2.74397e-33 3.03937e-58)
(7.04681e-32 2.5464e-33 4.21555e-58)
(6.96258e-32 2.36513e-33 0)
(6.88317e-32 2.1982e-33 -2.46789e-58)
(6.80826e-32 2.044e-33 0)
(6.73756e-32 1.90119e-33 -1.11014e-58)
(6.67079e-32 1.76861e-33 -2.01768e-58)
(6.60773e-32 1.64529e-33 -1.88838e-58)
(6.54813e-32 1.53039e-33 1.76789e-58)
(6.49182e-32 1.42317e-33 -8.5837e-59)
(6.43858e-32 1.32299e-33 0)
(6.38826e-32 1.22929e-33 0)
(6.34069e-32 1.14155e-33 1.35997e-58)
(6.29573e-32 1.05933e-33 6.66568e-59)
(6.25322e-32 9.8223e-34 0)
(6.21305e-32 9.09883e-34 5.29072e-59)
(6.17509e-32 8.41965e-34 0)
(6.13922e-32 7.78178e-34 5.1826e-59)
(6.10534e-32 7.18255e-34 -1.7736e-58)
(6.07334e-32 6.61948e-34 1.65565e-58)
(6.04313e-32 6.09031e-34 -8.00929e-59)
(6.01462e-32 5.59297e-34 0)
(5.98772e-32 5.12553e-34 6.99604e-59)
(5.96234e-32 4.68621e-34 -1.25062e-58)
(5.93842e-32 4.27336e-34 0)
(5.91587e-32 3.88545e-34 0)
(5.89462e-32 3.52102e-34 0)
(5.87461e-32 3.17873e-34 4.39629e-59)
(5.85577e-32 2.85732e-34 0)
(5.83805e-32 2.55561e-34 0)
(5.82138e-32 2.27247e-34 0)
(5.8057e-32 2.00685e-34 0)
(5.79098e-32 1.75776e-34 0)
(5.77714e-32 1.52426e-34 -3.21277e-59)
(5.76416e-32 1.30547e-34 0)