/*--------------------------------*- C++ -*----------------------------------*\
  =========                 |
  \\      /  F ield         | OpenFOAM: The Open Source CFD Toolbox
   \\    /   O peration     | Website:  https://openfoam.org
    \\  /    A nd           | Version:  11
     \\/     M anipulation  |
\*---------------------------------------------------------------------------*/
FoamFile
{
    format      ascii;
    class       volScalarField;
    location    "95";
    object      p;
}
// * * * * * * * * * * * * * * * * * * * * * * * * * * * * * * * * * * * * * //

dimensions      [0 2 -2 0 0 0 0];

internalField   nonuniform List<scalar> 
2048
(
0.356777
0.354236
0.349117
0.341204
0.330362
0.316476
0.299415
0.279048
0.255295
0.228174
0.19786
0.164729
0.129404
0.0927804
0.0560195
0.0205054
-0.0122521
-0.0407549
-0.0636808
-0.0800264
-0.0891897
-0.0910445
-0.0859041
-0.0744013
-0.0574463
-0.036186
-0.0119161
0.0140149
0.0402952
0.0657185
0.089188
0.109712
0.126387
0.138443
0.145334
0.146835
0.143146
0.134967
0.123522
0.110465
0.0976638
0.0869046
0.0794947
0.0761359
0.0768964
0.0812855
0.088314
0.0967932
0.105565
0.113642
0.120241
0.12484
0.127081
0.126849
0.124046
0.118858
0.11125
0.101697
0.0900148
0.0770418
0.0621326
0.04661
0.0290275
0.0114121
0.359404
0.356883
0.351799
0.343929
0.333127
0.319255
0.302157
0.281671
0.257682
0.230177
0.199301
0.165413
0.129134
0.0913886
0.0534008
0.0166472
-0.0172548
-0.0467065
-0.0703161
-0.0870499
-0.0963018
-0.0979396
-0.092282
-0.0799775
-0.061972
-0.0394751
-0.0138642
0.013431
0.0410134
0.0675804
0.0919898
0.113211
0.130291
0.142423
0.149058
0.149988
0.145445
0.136188
0.123526
0.109217
0.0952545
0.0835561
0.0755004
0.0718165
0.0725645
0.0771996
0.0846443
0.0936296
0.102937
0.111537
0.118627
0.123678
0.126331
0.126479
0.124027
0.119163
0.111849
0.102554
0.0910785
0.0782633
0.0634056
0.0478246
0.0299703
0.0118219
0.364646
0.362167
0.357161
0.349394
0.338691
0.324872
0.307726
0.287026
0.262584
0.234318
0.202311
0.166881
0.128645
0.0885796
0.048035
0.00868463
-0.027611
-0.0590298
-0.0840379
-0.101555
-0.110973
-0.112164
-0.105438
-0.0914804
-0.071303
-0.0462403
-0.0178467
0.0122596
0.0425072
0.0714402
0.0977926
0.12043
0.138312
0.150568
0.156633
0.156331
0.149966
0.138413
0.123166
0.106217
0.0898198
0.0761412
0.0667363
0.0624167
0.0632156
0.0684461
0.0768336
0.0869345
0.0973974
0.107109
0.115226
0.121207
0.124705
0.125619
0.123871
0.119648
0.112923
0.104142
0.0930958
0.0805791
0.065831
0.0501316
0.0318188
0.0127471
0.372451
0.370046
0.365182
0.357607
0.347103
0.333427
0.316281
0.295332
0.270272
0.24089
0.207161
0.169333
0.128017
0.0842722
0.0396378
-0.00389006
-0.0440249
-0.0785622
-0.105758
-0.124484
-0.134155
-0.134639
-0.126229
-0.109641
-0.0860068
-0.0568641
-0.0240453
0.0105026
0.044914
0.0775404
0.106922
0.131741
0.150824
0.163206
0.168284
0.165933
0.156554
0.1412
0.121648
0.100308
0.0798948
0.0629853
0.051469
0.0462945
0.0474052
0.0538127
0.0639067
0.0759534
0.0883776
0.0999278
0.109704
0.117155
0.12196
0.12404
0.123352
0.12008
0.114226
0.106212
0.0958143
0.0837375
0.0691292
0.0532899
0.0342412
0.0141834
0.382733
0.380452
0.375823
0.368575
0.358432
0.345066
0.328059
0.30693
0.281188
0.250404
0.214353
0.173139
0.127364
0.0782391
0.0276041
-0.0220285
-0.0676906
-0.106632
-0.136886
-0.157316
-0.167363
-0.166869
-0.156069
-0.135691
-0.107056
-0.0720292
-0.0328534
0.00807163
0.0484434
0.0862363
0.119747
0.147522
0.168197
0.180599
0.184062
0.17854
0.164583
0.143501
0.117499
0.0895744
0.0631286
0.0413622
0.0268008
0.0206651
0.022673
0.0312642
0.044282
0.0595073
0.0750107
0.0893505
0.101565
0.111118
0.117741
0.121406
0.122125
0.120102
0.115397
0.108379
0.0988162
0.0872379
0.0727439
0.0566642
0.0366397
0.015699
0.395355
0.393266
0.389007
0.382284
0.372748
0.359963
0.343359
0.322264
0.295937
0.263624
0.224747
0.179047
0.127028
0.0701442
0.0107872
-0.047522
-0.100698
-0.145378
-0.179552
-0.202207
-0.21281
-0.211097
-0.197124
-0.171568
-0.135988
-0.0927841
-0.0448806
0.00469443
0.0531037
0.097865
0.136886
0.168497
0.190984
0.203031
0.203937
0.19372
0.173063
0.143624
0.10826
0.0708704
0.0358598
0.00735226
-0.0112481
-0.0182913
-0.0143918
-0.00205435
0.0157234
0.0359495
0.0561277
0.0745458
0.0901936
0.1026
0.111609
0.117287
0.11975
0.119259
0.115951
0.110087
0.101404
0.0902389
0.0758178
0.0594773
0.0387292
0.0170085
0.410104
0.408301
0.404592
0.398671
0.3901
0.378321
0.362549
0.341882
0.315241
0.281483
0.239528
0.188367
0.128069
0.0600669
-0.0122464
-0.0830551
-0.146285
-0.19812
-0.237046
-0.262473
-0.273868
-0.270698
-0.252639
-0.220235
-0.17531
-0.120939
-0.0611326
-0.000100763
0.0585423
0.112122
0.158321
0.195386
0.220273
0.231516
0.229005
0.212993
0.184046
0.143982
0.0962663
0.0458315
-0.00149926
-0.0400242
-0.0647429
-0.0737929
-0.0673893
-0.0493624
-0.0242978
0.00343491
0.0304357
0.0546076
0.0749231
0.0910643
0.103077
0.111202
0.11573
0.117015
0.115238
0.110514
0.102613
0.0918107
0.0776616
0.0613691
0.0404867
0.0180212
0.42667
0.42527
0.422338
0.417581
0.410465
0.400335
0.386086
0.366547
0.340035
0.305007
0.25976
0.20235
0.132097
0.0488013
-0.0426008
-0.13136
-0.208054
-0.268897
-0.313687
-0.34274
-0.355546
-0.350872
-0.327583
-0.286066
-0.228682
-0.159516
-0.0838333
-0.0074046
0.0645073
0.128482
0.182924
0.226031
0.254729
0.265248
0.258911
0.236927
0.199814
0.149434
0.0894102
0.0250028
-0.0370696
-0.0894492
-0.125467
-0.140416
-0.134328
-0.111049
-0.0771533
-0.0394666
-0.0031794
0.0287598
0.0552009
0.0760602
0.0917118
0.102691
0.109538
0.112717
0.112448
0.108767
0.101609
0.0913005
0.0777908
0.0619429
0.041509
0.0185698
0.444632
0.443763
0.441861
0.438701
0.433649
0.426076
0.414431
0.397385
0.371928
0.336077
0.286414
0.220829
0.138406
0.0340911
-0.0842572
-0.196972
-0.290648
-0.362664
-0.414762
-0.448635
-0.464176
-0.458918
-0.429756
-0.37644
-0.302004
-0.21271
-0.116485
-0.0210202
0.0674219
0.144589
0.20808
0.251891
0.283253
0.292372
0.280531
0.251017
0.206744
0.14989
0.0826901
0.00910081
-0.0644377
-0.129733
-0.178579
-0.204004
-0.203471
-0.179162
-0.138524
-0.0909008
-0.0441408
-0.0029399
0.0309054
0.0573848
0.0772349
0.0913819
0.100683
0.10575
0.106878
0.104132
0.0977028
0.0880497
0.0755132
0.0605335
0.0412055
0.0184589
0.463442
0.463231
0.462605
0.461486
0.459152
0.455231
0.447669
0.435515
0.413473
0.379395
0.3235
0.244845
0.139469
-0.00059166
-0.155267
-0.293384
-0.402652
-0.484808
-0.543586
-0.582476
-0.60156
-0.598349
-0.56564
-0.500002
-0.404354
-0.287857
-0.163592
-0.0442051
0.0618446
0.150871
0.222519
0.274757
0.292355
0.285262
0.263113
0.229784
0.185439
0.129561
0.0624404
-0.0134375
-0.0923248
-0.165676
-0.223952
-0.2588
-0.265603
-0.243939
-0.200355
-0.145326
-0.0891024
-0.0386422
0.00299249
0.0354792
0.0597775
0.0771942
0.0889098
0.0957076
0.0980031
0.0959987
0.0902134
0.0813262
0.0700303
0.0564136
0.03895
0.0174385
0.482442
0.482983
0.483841
0.485119
0.486098
0.486826
0.484975
0.480687
0.466512
0.44195
0.384234
0.291765
0.131871
-0.0783624
-0.274989
-0.425776
-0.537213
-0.620146
-0.679959
-0.721382
-0.74317
-0.747583
-0.721849
-0.65151
-0.537093
-0.392404
-0.237426
-0.0906062
0.0351202
0.131556
0.194428
0.226259
0.232595
0.220394
0.198983
0.169941
0.132146
0.0839879
0.0242423
-0.0464981
-0.123977
-0.199827
-0.263404
-0.304884
-0.317392
-0.299454
-0.25575
-0.196494
-0.133296
-0.0750969
-0.0264702
0.011605
0.0400743
0.0604956
0.0743044
0.0824549
0.0855219
0.0839353
0.0785833
0.0704474
0.0605402
0.0488048
0.034088
0.0152474
0.500886
0.502213
0.504683
0.508539
0.513248
0.51918
0.52439
0.529995
0.52892
0.524011
0.48481
0.411904
0.180432
-0.152886
-0.38797
-0.530019
-0.625716
-0.697174
-0.752227
-0.790396
-0.808326
-0.832481
-0.833772
-0.781057
-0.667955
-0.509893
-0.334882
-0.170616
-0.0399354
0.0459143
0.0915553
0.110465
0.115305
0.108182
0.0975148
0.0810084
0.0562783
0.0213192
-0.0256097
-0.0853046
-0.155362
-0.228348
-0.29301
-0.337913
-0.354804
-0.340841
-0.298938
-0.238516
-0.171565
-0.108288
-0.0545793
-0.0122226
0.0194826
0.0421568
0.0573854
0.0662592
0.0695067
0.0678156
0.0624694
0.0548602
0.0463622
0.0370482
0.0260749
0.0116756
0.517975
0.520067
0.524144
0.530538
0.539056
0.5502
0.563001
0.578703
0.593379
0.611008
0.614156
0.620799
0.472494
-0.0618081
-0.357501
-0.517597
-0.614146
-0.678173
-0.730389
-0.793393
-0.806339
-0.840003
-0.864701
-0.839082
-0.748792
-0.602484
-0.436448
-0.283987
-0.170892
-0.104045
-0.0710345
-0.0553403
-0.0478232
-0.034245
-0.0240671
-0.0206002
-0.0273034
-0.0459423
-0.0775508
-0.123162
-0.181828
-0.247629
-0.309559
-0.355094
-0.374397
-0.36426
-0.325425
-0.26652
-0.19921
-0.134143
-0.0780717
-0.0335086
-0.000137158
0.0235587
0.0391858
0.047882
0.0504718
0.0478961
0.0418781
0.0343502
0.0271559
0.0207817
0.0145838
0.00659583
0.532928
0.535706
0.541213
0.549895
0.561823
0.57774
0.59738
0.622364
0.650977
0.686885
0.720977
0.759408
0.701836
0.220564
-0.0970602
-0.305606
-0.45002
-0.551373
-0.628412
-0.705611
-0.747751
-0.78844
-0.824825
-0.820414
-0.761849
-0.641309
-0.515261
-0.402552
-0.324751
-0.282746
-0.261457
-0.243874
-0.221092
-0.188336
-0.152797
-0.123644
-0.107639
-0.107091
-0.121861
-0.152057
-0.197284
-0.253123
-0.309504
-0.353622
-0.374912
-0.367192
-0.33227
-0.277179
-0.212694
-0.149247
-0.0939002
-0.0496723
-0.016642
0.0064886
0.0212075
0.0285671
0.0294131
0.0249411
0.0173662
0.00927255
0.00310379
-6.02169e-05
-0.000378264
2.57067e-05
0.545056
0.548372
0.554982
0.565462
0.580019
0.599717
0.624513
0.65675
0.694573
0.743115
0.790752
0.848628
0.815921
0.336375
0.00875239
-0.211369
-0.365451
-0.472384
-0.550457
-0.616857
-0.658177
-0.691918
-0.721813
-0.726874
-0.694186
-0.627263
-0.554641
-0.498309
-0.468366
-0.457742
-0.450387
-0.432021
-0.39619
-0.341258
-0.277458
-0.219016
-0.176879
-0.154916
-0.151991
-0.166484
-0.197536
-0.241804
-0.290524
-0.331201
-0.352474
-0.348022
-0.318112
-0.268843
-0.209998
-0.151321
-0.0997229
-0.0584511
-0.0279099
-0.00708631
0.00525945
0.00996179
0.00783435
0.000318144
-0.0098293
-0.0192575
-0.0247879
-0.0246109
-0.0182448
-0.00780504
0.553832
0.557473
0.564758
0.576321
0.592471
0.614395
0.642305
0.678537
0.72168
0.776103
0.831224
0.895724
0.875974
0.417762
0.0955232
-0.128224
-0.286847
-0.395344
-0.469196
-0.519099
-0.547677
-0.562588
-0.583936
-0.592323
-0.585235
-0.569392
-0.559866
-0.565844
-0.584788
-0.604847
-0.612032
-0.595947
-0.547553
-0.471722
-0.381267
-0.294834
-0.227268
-0.184307
-0.164373
-0.164085
-0.181435
-0.213613
-0.253314
-0.289084
-0.309614
-0.308106
-0.283844
-0.241918
-0.190908
-0.13955
-0.0942587
-0.0582579
-0.0321718
-0.0153026
-0.00675915
-0.0060195
-0.0123437
-0.024044
-0.0377433
-0.0492718
-0.0546304
-0.0511294
-0.0378459
-0.0164202
0.558924
0.562646
0.570105
0.58198
0.598457
0.620871
0.649443
0.686501
0.730713
0.786389
0.843111
0.909284
0.892747
0.441622
0.126632
-0.0896772
-0.239786
-0.339502
-0.401807
-0.436271
-0.448381
-0.448167
-0.454385
-0.46333
-0.479076
-0.507617
-0.552417
-0.608265
-0.664632
-0.706588
-0.723725
-0.70708
-0.651236
-0.5599
-0.448923
-0.340698
-0.252978
-0.192817
-0.158538
-0.145564
-0.150692
-0.171271
-0.201423
-0.23118
-0.250003
-0.251058
-0.23257
-0.198832
-0.157019
-0.114666
-0.0774691
-0.0484292
-0.0282905
-0.0166809
-0.0131177
-0.0174305
-0.0289597
-0.0457434
-0.0637788
-0.0781125
-0.0838732
-0.0774714
-0.0575118
-0.025108
0.560246
0.56379
0.570866
0.582048
0.597776
0.618963
0.645716
0.680404
0.721416
0.77369
0.826243
0.889345
0.8662
0.407639
0.101908
-0.0959314
-0.226272
-0.305809
-0.350607
-0.371017
-0.367125
-0.357669
-0.355017
-0.365575
-0.398517
-0.457355
-0.538127
-0.624085
-0.700422
-0.753655
-0.775272
-0.758634
-0.698434
-0.597847
-0.474212
-0.352603
-0.25254
-0.181362
-0.137041
-0.114373
-0.109387
-0.119503
-0.140226
-0.163386
-0.179574
-0.182468
-0.169232
-0.143736
-0.111512
-0.0788298
-0.0505496
-0.0293236
-0.015944
-0.0103614
-0.0125089
-0.0225483
-0.0398626
-0.0622191
-0.0850538
-0.102698
-0.109453
-0.100904
-0.0752017
-0.0329945
0.557976
0.56113
0.567413
0.577321
0.591039
0.609328
0.6321
0.661046
0.694798
0.736968
0.779171
0.827124
0.786624
0.338985
0.0555477
-0.117928
-0.224097
-0.283026
-0.311284
-0.319919
-0.304009
-0.290759
-0.28443
-0.297337
-0.340567
-0.415203
-0.511058
-0.609266
-0.692136
-0.748529
-0.771212
-0.754776
-0.692751
-0.588119
-0.459331
-0.33303
-0.228993
-0.153709
-0.104382
-0.0754992
-0.0628476
-0.0640279
-0.0758246
-0.0920355
-0.104744
-0.107533
-0.0997316
-0.0818124
-0.0586041
-0.0352361
-0.015694
-0.00223561
0.00433316
0.00376133
-0.00425423
-0.0201362
-0.0432551
-0.0711563
-0.098808
-0.119973
-0.128296
-0.118683
-0.0888582
-0.0391831
0.552507
0.555103
0.560222
0.568254
0.579126
0.593399
0.610345
0.63128
0.652839
0.678954
0.69387
0.714261
0.591671
0.103669
-0.144497
-0.253415
-0.293872
-0.300216
-0.292227
-0.27169
-0.254661
-0.23876
-0.231777
-0.246902
-0.293973
-0.372267
-0.469607
-0.56701
-0.648063
-0.703504
-0.726021
-0.709027
-0.645442
-0.539551
-0.411866
-0.289057
-0.188824
-0.115624
-0.0658602
-0.0340692
-0.0162296
-0.0102682
-0.0141643
-0.0236213
-0.0325078
-0.0354373
-0.0305637
-0.0185936
-0.00296091
0.0123734
0.0242494
0.0308011
0.0312213
0.0250053
0.011568
-0.00967394
-0.0380364
-0.0709065
-0.102923
-0.127518
-0.137914
-0.128562
-0.0968085
-0.0429368
0.544386
0.546321
0.550045
0.555868
0.563394
0.57305
0.583204
0.595001
0.60218
0.607411
0.582959
0.529324
0.331755
0.0431153
-0.142082
-0.229166
-0.266556
-0.277659
-0.271333
-0.250474
-0.222769
-0.198614
-0.190193
-0.207683
-0.255698
-0.330769
-0.421403
-0.51149
-0.586823
-0.638622
-0.659502
-0.637906
-0.569345
-0.463137
-0.342216
-0.230247
-0.140124
-0.0735226
-0.0265269
0.00569693
0.0266006
0.0378365
0.0404923
0.0371775
0.0323651
0.0304396
0.0335407
0.0412845
0.0512358
0.0603813
0.0662685
0.0673602
0.0628421
0.0520165
0.0341235
0.00851802
-0.0240332
-0.0608386
-0.0964
-0.124085
-0.136951
-0.129281
-0.0981063
-0.0438192
0.534285
0.535515
0.537782
0.541275
0.545399
0.550285
0.553903
0.556469
0.551333
0.537984
0.495905
0.4233
0.291982
0.116916
-0.0393262
-0.144762
-0.206713
-0.236639
-0.242505
-0.229459
-0.200936
-0.172011
-0.165502
-0.188571
-0.238556
-0.30926
-0.391152
-0.47114
-0.535815
-0.575394
-0.581648
-0.546311
-0.47037
-0.368427
-0.261656
-0.16675
-0.0906646
-0.032956
0.0096762
0.0408438
0.0632684
0.0781621
0.0859321
0.0878675
0.086988
0.0867545
0.0892419
0.0944499
0.100697
0.105711
0.107568
0.104953
0.0970252
0.0829551
0.0619102
0.0332631
-0.00212352
-0.041571
-0.0796408
-0.109901
-0.125492
-0.120844
-0.0927544
-0.041806
0.522921
0.523455
0.524341
0.525598
0.526611
0.52711
0.525279
0.520306
0.507467
0.484713
0.443407
0.382342
0.298956
0.185453
0.0613881
-0.04233
-0.114431
-0.157986
-0.178963
-0.182939
-0.17582
-0.16865
-0.17299
-0.195987
-0.239881
-0.300651
-0.368829
-0.431376
-0.474062
-0.490714
-0.476215
-0.429217
-0.355797
-0.269182
-0.183582
-0.108314
-0.0465526
0.00242298
0.040544
0.0699293
0.092627
0.109787
0.121463
0.127842
0.130562
0.132281
0.135001
0.13909
0.143415
0.146218
0.14592
0.141333
0.131572
0.115721
0.0929463
0.06269
0.0259008
-0.0148507
-0.0543605
-0.0866262
-0.105057
-0.10452
-0.0816795
-0.0372791
0.510985
0.510891
0.510556
0.509856
0.508243
0.505189
0.499317
0.48944
0.472886
0.447761
0.411118
0.360797
0.296299
0.212911
0.118096
0.0309418
-0.0362301
-0.0826426
-0.112508
-0.130552
-0.14153
-0.150988
-0.165267
-0.190007
-0.22701
-0.272576
-0.320292
-0.357116
-0.379663
-0.379309
-0.355682
-0.311512
-0.252153
-0.185692
-0.120218
-0.0610819
-0.0104996
0.0314567
0.0656126
0.0930117
0.11499
0.132849
0.147019
0.15718
0.163526
0.167525
0.170993
0.174854
0.178558
0.180702
0.17984
0.174787
0.164592
0.14829
0.12509
0.0945243
0.0575914
0.016694
-0.0233242
-0.0570705
-0.0783272
-0.0825926
-0.0665154
-0.0309369
0.499104
0.498486
0.497139
0.49486
0.491186
0.485541
0.476945
0.464332
0.446204
0.421082
0.387447
0.343376
0.28821
0.221729
0.148358
0.0780563
0.0191429
-0.0262932
-0.0603049
-0.0859208
-0.106013
-0.123514
-0.142012
-0.164809
-0.192644
-0.223214
-0.252104
-0.276586
-0.286499
-0.279636
-0.257358
-0.221569
-0.175361
-0.123721
-0.0719631
-0.0239017
0.0185408
0.0548619
0.0853895
0.11074
0.131656
0.149114
0.16396
0.17638
0.186071
0.193127
0.198312
0.202718
0.206478
0.208798
0.208398
0.203985
0.194458
0.178774
0.156186
0.12631
0.0901759
0.0499837
0.0101681
-0.0245767
-0.0484731
-0.0577703
-0.0491764
-0.0236105
0.487812
0.486784
0.484648
0.481173
0.475983
0.468572
0.458236
0.444144
0.425311
0.400624
0.369038
0.329482
0.281841
0.227247
0.168525
0.110677
0.0587519
0.0151625
-0.0203835
-0.0493867
-0.0735407
-0.0946167
-0.114634
-0.13535
-0.157264
-0.179326
-0.198915
-0.212539
-0.215759
-0.207202
-0.187111
-0.156817
-0.118953
-0.0771238
-0.0348959
0.00507637
0.0412663
0.0730519
0.100433
0.123761
0.143537
0.160407
0.175103
0.188092
0.199442
0.209195
0.217084
0.223351
0.228109
0.231115
0.231568
0.228271
0.22001
0.205633
0.184376
0.155899
0.121217
0.08229
0.0431414
0.00775701
-0.018525
-0.0326967
-0.0315312
-0.0161458
0.477534
0.476204
0.473484
0.469149
0.462894
0.454316
0.442891
0.427989
0.408899
0.384856
0.355211
0.319556
0.278109
0.231916
0.18278
0.133441
0.0870376
0.0457635
0.0102327
-0.0200672
-0.0460994
-0.0689478
-0.0897085
-0.109264
-0.127854
-0.14466
-0.157801
-0.165137
-0.164616
-0.154914
-0.136167
-0.109802
-0.0779223
-0.0429422
-0.00728966
0.0270106
0.0586237
0.0868881
0.111655
0.133131
0.151713
0.167856
0.182106
0.195012
0.206897
0.217794
0.22756
0.236027
0.242878
0.24758
0.249433
0.247499
0.240685
0.227839
0.208188
0.181393
0.148394
0.110917
0.0726068
0.0368464
0.00864157
-0.00970988
-0.0151165
-0.00926292
0.468592
0.46705
0.463917
0.458986
0.452009
0.442675
0.43059
0.415282
0.396249
0.373004
0.345194
0.312712
0.275832
0.235314
0.192404
0.148864
0.106786
0.0679301
0.033185
0.00259317
-0.0242716
-0.0479699
-0.0690159
-0.0877399
-0.104081
-0.117408
-0.126631
-0.130429
-0.127541
-0.117203
-0.0997197
-0.0762346
-0.0483182
-0.0178164
0.0133566
0.0435719
0.0717183
0.0972018
0.119834
0.139711
0.157125
0.172483
0.186241
0.198866
0.210767
0.221994
0.232676
0.242392
0.250835
0.257361
0.261064
0.260866
0.255668
0.244379
0.226288
0.201099
0.169713
0.133696
0.0964193
0.0608388
0.0316119
0.0102194
-0.000506173
-0.00323149
0.46122
0.459534
0.456122
0.450791
0.443342
0.433536
0.421076
0.405618
0.386812
0.364355
0.338059
0.307925
0.274211
0.237504
0.198749
0.159227
0.120425
0.0837014
0.0499546
0.0195345
-0.00758438
-0.031569
-0.0525622
-0.0705888
-0.0854594
-0.0967172
-0.103634
-0.105335
-0.101073
-0.090512
-0.0739743
-0.0523969
-0.0271285
0.000277621
0.0282816
0.0555746
0.0812126
0.104636
0.125619
0.144202
0.160624
0.175257
0.188527
0.200853
0.212614
0.223971
0.23498
0.245363
0.254714
0.262348
0.267346
0.268588
0.264901
0.255147
0.238619
0.215059
0.185367
0.151024
0.115175
0.0803847
0.0508232
0.0272063
0.0120416
0.00180598
0.455576
0.453796
0.450204
0.444619
0.436877
0.426792
0.41414
0.398667
0.380123
0.358309
0.333124
0.304617
0.273034
0.238872
0.202895
0.166101
0.129618
0.0945305
0.0616862
0.0316009
0.0045123
-0.0194871
-0.0403245
-0.0578724
-0.0718797
-0.0819089
-0.0874353
-0.0879133
-0.0829092
-0.0722755
-0.0563817
-0.0360979
-0.01262
0.0127213
0.0386216
0.063947
0.087845
0.109787
0.129546
0.147146
0.162799
0.176846
0.18969
0.201736
0.213336
0.224709
0.23591
0.246709
0.256651
0.26502
0.270875
0.273088
0.270493
0.261968
0.24682
0.224803
0.196774
0.164105
0.129676
0.095689
0.0658144
0.0403092
0.0214025
0.00541838
0.451763
0.449928
0.446229
0.440496
0.432587
0.422352
0.409614
0.394171
0.375835
0.354462
0.329999
0.302521
0.272271
0.239693
0.205437
0.170332
0.135312
0.101306
0.069118
0.0393424
0.012363
-0.0115775
-0.0322837
-0.0495349
-0.0630299
-0.0723652
-0.0771249
-0.076935
-0.071524
-0.0608778
-0.0454095
-0.0259377
-0.00355276
0.0205364
0.0451434
0.0692329
0.0920186
0.113003
0.131964
0.148913
0.164046
0.177684
0.190222
0.202062
0.21355
0.224916
0.236222
0.24727
0.257598
0.266473
0.272928
0.275817
0.27397
0.266284
0.252085
0.231136
0.204245
0.172688
0.139137
0.105563
0.075273
0.0483755
0.0269009
0.00751268
0.449846
0.447984
0.444236
0.438435
0.430451
0.420151
0.407381
0.391965
0.373739
0.352589
0.328482
0.301506
0.271901
0.240083
0.206649
0.17235
0.138032
0.10456
0.0727127
0.0431148
0.0162123
-0.00768184
-0.0283116
-0.0454119
-0.0586626
-0.0676911
-0.0721149
-0.0716255
-0.0660342
-0.0553982
-0.0401427
-0.0210578
0.000810704
0.0243038
0.0482893
0.0717821
0.0940293
0.114548
0.133115
0.149739
0.164606
0.178033
0.190413
0.20215
0.213582
0.224941
0.236293
0.247454
0.257967
0.267091
0.273851
0.277087
0.27562
0.268348
0.254596
0.234136
0.207747
0.176674
0.143482
0.110061
0.079512
0.0519547
0.0292642
0.00845215
)
;

boundaryField
{
    inlet
    {
        type            zeroGradient;
    }
    outlet
    {
        type            fixedValue;
        value           uniform 0;
    }
    top
    {
        type            symmetryPlane;
    }
    bottom
    {
        type            symmetryPlane;
    }
    frontAndBack
    {
        type            empty;
    }
}


// ************************************************************************* //
