/*--------------------------------*- C++ -*----------------------------------*\
  =========                 |
  \\      /  F ield         | OpenFOAM: The Open Source CFD Toolbox
   \\    /   O peration     | Website:  https://openfoam.org
    \\  /    A nd           | Version:  11
     \\/     M anipulation  |
\*---------------------------------------------------------------------------*/
FoamFile
{
    format      ascii;
    class       surfaceScalarField;
    location    "95";
    object      phi;
}
// * * * * * * * * * * * * * * * * * * * * * * * * * * * * * * * * * * * * * //

dimensions      [0 3 -1 0 0 0 0];

internalField   nonuniform List<scalar> 
4000
(
0.0250329
-3.29229e-05
0.0251311
-9.82095e-05
0.0252943
-0.000163157
0.0255226
-0.00022827
0.0258163
-0.000293696
0.0261754
-0.000359188
0.0265994
-0.000423973
0.0270861
-0.000486666
0.0276313
-0.000545198
0.0282281
-0.000596787
0.028866
-0.000637965
0.0295308
-0.000664784
0.030204
-0.000673177
0.0308635
-0.000659481
0.0314846
-0.000621078
0.0320416
-0.000557041
0.0325103
-0.000468701
0.0328704
-0.00036006
0.0331077
-0.000237314
0.0332155
-0.00010788
0.0331933
2.22119e-05
0.0330538
0.000139579
0.0328117
0.000242033
0.0324906
0.000321116
0.0321201
0.000370534
0.0317348
0.000385254
0.0313727
0.000362141
0.0310713
0.000301418
0.0308654
0.000205896
0.0307854
8.00034e-05
0.0308528
-6.74759e-05
0.0310815
-0.000228679
0.0314736
-0.000392102
0.0320182
-0.000544621
0.0326911
-0.000672842
0.0334547
-0.000763597
0.0342607
-0.000805995
0.0350526
-0.000791955
0.03577
-0.000717343
0.0363562
-0.00058621
0.0367616
-0.000405427
0.0369481
-0.000186465
0.0369065
4.15483e-05
0.0366335
0.000272992
0.0361457
0.000487878
0.0354718
0.000673832
0.0346481
0.000823739
0.0337128
0.000935262
0.0327034
0.00100939
0.0316537
0.00104971
0.0305934
0.00106033
0.0295472
0.00104622
0.0285364
0.00101081
0.027579
0.000957334
0.0266906
0.000888476
0.0258885
0.000802037
0.0251827
0.000705805
0.0246034
0.000579274
0.0241452
0.000458249
0.0238746
0.000270566
0.023732
0.000142633
0.0238702
-0.000138199
0.0240882
-0.000217984
-0.000645406
0.0250327
-6.56407e-05
0.0251302
-0.000195659
0.0252922
-0.000325176
0.0255193
-0.000455358
0.0258122
-0.000586592
0.0261715
-0.000718486
0.0265971
-0.000849604
0.0270877
-0.00097724
0.0276398
-0.00109727
0.028247
-0.00120407
0.0288996
-0.00129049
0.0295831
-0.00134829
0.0302786
-0.0013687
0.0309628
-0.00134369
0.0316091
-0.00126736
0.0321895
-0.00113745
0.0326774
-0.000956642
0.0330509
-0.000733545
0.0332949
-0.000481289
0.0334021
-0.000215046
0.0333721
5.22147e-05
0.0332169
0.000294721
0.0329525
0.000506475
0.0326028
0.000670773
0.0321996
0.000773782
0.0317797
0.000805096
0.031383
0.000758837
0.03105
0.000634433
0.0308184
0.000437515
0.0307205
0.000177932
0.0307792
-0.000126157
0.0310106
-0.000460158
0.0314181
-0.000799533
0.0319908
-0.00111737
0.0327036
-0.00138564
0.0335171
-0.00157712
0.0343793
-0.00166812
0.0352291
-0.00164178
0.0360007
-0.00148898
0.0366308
-0.00121631
0.0370657
-0.00084025
0.0372637
-0.000384514
0.0372164
8.88175e-05
0.0369218
0.000567686
0.0364003
0.00100933
0.0356857
0.00138842
0.0348184
0.00169105
0.0338403
0.00191337
0.0327912
0.0020585
0.0317061
0.00213479
0.030615
0.00215139
0.0295423
0.00211895
0.0285085
0.00204459
0.0275306
0.0019353
0.0266233
0.00179573
0.0258025
0.00162287
0.0250791
0.0014292
0.0244814
0.00117697
0.0240069
0.000932708
0.023718
0.000559452
0.0235517
0.000308984
0.0236601
-0.000246603
0.02383
-0.000387893
-0.00124619
0.0250321
-9.77502e-05
0.0251279
-0.000291406
0.0252873
-0.000484658
0.0255116
-0.000679649
0.0258023
-0.000877289
0.0261611
-0.0010773
0.0265894
-0.00127785
0.0270872
-0.00147503
0.0276526
-0.00166273
0.0282808
-0.00183225
0.0289627
-0.00197238
0.0296843
-0.00206992
0.0304258
-0.00211017
0.0311613
-0.00207922
0.0318603
-0.00196632
0.0324894
-0.00176656
0.033017
-0.00148427
0.0334179
-0.00113439
0.0336754
-0.000738763
0.0337812
-0.000320904
0.0337344
9.90101e-05
0.0335477
0.00048141
0.0332367
0.00081751
0.0328281
0.00107933
0.0323571
0.00124482
0.0318652
0.00129702
0.0313973
0.00122667
0.0309988
0.00103292
0.0307129
0.000723453
0.0305771
0.000313731
0.0306167
-0.000165789
0.0308529
-0.000696272
0.0312908
-0.00123748
0.0319207
-0.00174733
0.0327156
-0.0021805
0.0336322
-0.00249368
0.0346108
-0.00264674
0.0355807
-0.00261171
0.0364643
-0.00237256
0.0371856
-0.00193767
0.037682
-0.00133663
0.0379046
-0.000607106
0.037845
0.000148448
0.0375043
0.00090833
0.0369124
0.00160127
0.036113
0.00218781
0.035156
0.00264803
0.0340907
0.00297868
0.0329615
0.00318766
0.0318058
0.00329056
0.0306537
0.00330344
0.0295287
0.00324396
0.0284499
0.00312339
0.0274318
0.00295347
0.0264872
0.00274029
0.0256292
0.00248084
0.0248705
0.00218787
0.0242367
0.0018108
0.0237275
0.00144193
0.0233912
0.000895712
0.0231552
0.00054506
0.0231766
-0.000268005
0.0232183
-0.000429662
-0.00178888
0.0250311
-0.000128812
0.0251238
-0.000384115
0.0252786
-0.000639511
0.0254976
-0.00089859
0.0257834
-0.00116316
0.0261396
-0.00143351
0.0265697
-0.00170791
0.0270763
-0.00198158
0.0276602
-0.00224669
0.028319
-0.002491
0.0290452
-0.0026986
0.0298255
-0.00285021
0.0306386
-0.00292328
0.0314554
-0.00289609
0.0322388
-0.00274973
0.0329459
-0.00247363
0.0335365
-0.00207491
0.0339807
-0.00157857
0.0342598
-0.00101784
0.034364
-0.000425115
0.0342925
0.000170486
0.0340562
0.000717749
0.0336724
0.0012013
0.0331708
0.00158092
0.032592
0.00182365
0.0319853
0.00190373
0.0314038
0.00180814
0.0309029
0.00153383
0.0305303
0.00109611
0.0303286
0.000515367
0.0303359
-0.000173078
0.0305751
-0.000935485
0.0310576
-0.00171993
0.0317745
-0.00246425
0.0326964
-0.00310244
0.0337729
-0.0035701
0.0349335
-0.00380737
0.0360905
-0.00376872
0.0371495
-0.00343161
0.0380149
-0.00280301
0.0386101
-0.00193186
0.0388754
-0.000872382
0.0387977
0.000226115
0.0383856
0.00132042
0.0376831
0.00230384
0.0367505
0.00312037
0.0356535
0.00374504
0.0344535
0.00417865
0.0332026
0.00443857
0.0319411
0.00455205
0.0306993
0.00454527
0.0294983
0.00444494
0.0283545
0.00426719
0.0272784
0.00402964
0.0262795
0.0037391
0.0253676
0.00339275
0.0245596
0.00299591
0.0238707
0.0024997
0.0232974
0.00201526
0.022853
0.00134013
0.0224844
0.000913577
0.0223564
-0.00013998
0.0222801
-0.0003533
-0.00235242
0.0250293
-0.000158162
0.0251171
-0.000471854
0.0252642
-0.000786641
0.0254739
-0.00110824
0.0257504
-0.00143974
0.0260996
-0.00178267
0.0265278
-0.00213614
0.0270414
-0.00249516
0.0276461
-0.00285135
0.0283433
-0.00318818
0.0291294
-0.00348469
0.0299917
-0.0037125
0.0309066
-0.00383818
0.031841
-0.00383056
0.0327472
-0.00365593
0.0335663
-0.00329273
0.0342465
-0.00275511
0.0347527
-0.00208475
0.0350639
-0.00132907
0.0351681
-0.000529238
0.0350633
0.000275248
0.0347578
0.00102327
0.0342707
0.00168835
0.0336364
0.0022153
0.0329033
0.00255668
0.0321308
0.00267628
0.0313861
0.00255279
0.0307326
0.00218731
0.0302339
0.00159485
0.0299395
0.000809802
0.0298929
-0.000126526
0.0301291
-0.00117165
0.0306668
-0.00225763
0.031497
-0.00329452
0.032581
-0.00418637
0.0338526
-0.00484171
0.0352287
-0.00518351
0.03661
-0.00514996
0.0378928
-0.00471447
0.0389626
-0.00387273
0.0397209
-0.00269021
0.0400863
-0.00123778
0.0400173
0.000295085
0.0395304
0.00180735
0.0386874
0.00314685
0.0375762
0.00423157
0.0362892
0.00503208
0.0349073
0.00556047
0.0334939
0.00585203
0.0320934
0.00595252
0.0307355
0.0059032
0.0294382
0.00574219
0.0282131
0.00549237
0.0270636
0.00517906
0.0259969
0.00480585
0.02502
0.00436962
0.0241491
0.00386679
0.0233747
0.00327413
0.0226815
0.00270851
0.0220679
0.00195372
0.0215528
0.00142866
0.0213253
8.75515e-05
0.0212953
-0.00032331
-0.00304196
0.0250267
-0.000184847
0.0251068
-0.000551937
0.0252417
-0.000921582
0.0254363
-0.00130279
0.0256965
-0.00169995
0.0260311
-0.00211733
0.02645
-0.00255506
0.0269643
-0.00300938
0.0275865
-0.00347355
0.0283245
-0.00392622
0.0291847
-0.00434487
0.0301559
-0.00468377
0.0312118
-0.004894
0.0323133
-0.00493215
0.0333913
-0.00473389
0.034362
-0.00426339
0.0351615
-0.00355459
0.0357514
-0.00267469
0.0361083
-0.00168597
0.0362162
-0.00063719
0.0360705
0.000421039
0.0356754
0.00141835
0.035049
0.00231474
0.0342324
0.00303189
0.0332875
0.00350156
0.0322896
0.00367424
0.0313184
0.003524
0.0304566
0.00304912
0.0297789
0.00227248
0.0293473
0.00124144
0.0292167
4.01262e-06
0.0294331
-0.00138796
0.0300158
-0.00284042
0.0309321
-0.00421076
0.0321085
-0.0053628
0.0334684
-0.00620157
0.0349441
-0.00665929
0.0364706
-0.00667643
0.0379591
-0.00620293
0.0393004
-0.00521403
0.0403538
-0.00374361
0.0410043
-0.00188834
0.0411201
0.000179338
0.0406934
0.002234
0.0397817
0.00405853
0.0385056
0.00550765
0.0370067
0.00653102
0.0354083
0.00715888
0.0337987
0.00746162
0.0322322
0.00751906
0.0307384
0.007397
0.0293308
0.00714974
0.0280128
0.00681039
0.0267809
0.00641092
0.0256396
0.00594719
0.0245908
0.00541839
0.0236335
0.00482414
0.0227293
0.00417826
0.0218757
0.00356217
0.0211037
0.00272565
0.020537
0.00199543
0.0203375
0.000287066
0.0204752
-0.000461002
-0.00384184
0.0250227
-0.000207593
0.0250917
-0.00062086
0.0252082
-0.00103813
0.0253795
-0.00147407
0.0256124
-0.00193284
0.0259212
-0.00242612
0.026318
-0.00295188
0.0268217
-0.0035131
0.0274516
-0.0041034
0.0282229
-0.00469757
0.0291641
-0.00528603
0.0302684
-0.00578809
0.0315174
-0.00614297
0.0328605
-0.00627522
0.0341788
-0.00605228
0.0353522
-0.0054367
0.0363089
-0.00451138
0.037011
-0.00337676
0.0374309
-0.00210584
0.0375485
-0.00075481
0.0373544
0.000615147
0.0368453
0.00192745
0.0360389
0.0031211
0.0349812
0.00408962
0.0337487
0.0047341
0.0324434
0.00497954
0.0311734
0.00479397
0.0300366
0.00418593
0.0291121
0.00319695
0.0284637
0.00188989
0.0281728
0.000294858
0.0282916
-0.00150678
0.0287682
-0.00331702
0.0294752
-0.00491769
0.0303306
-0.00621822
0.0313522
-0.00722318
0.0326006
-0.0079077
0.0340987
-0.00817456
0.0357845
-0.00788867
0.0375152
-0.00694479
0.0391028
-0.00533115
0.0403577
-0.00314328
0.0410577
-0.000520654
0.0410862
0.00220548
0.0404352
0.00470957
0.0392161
0.00672676
0.0376213
0.00812579
0.0358487
0.00893145
0.0340487
0.00926162
0.0323105
0.00925732
0.0306751
0.00903233
0.0291534
0.00867149
0.0277398
0.00822403
0.0264251
0.00772555
0.0252088
0.00716349
0.0240772
0.00655
0.0230052
0.0058961
0.0219497
0.00523377
0.020957
0.00455492
0.0201089
0.00357377
0.0195857
0.00251863
0.0194681
0.000404585
0.0197492
-0.000742097
-0.00465965
0.0250173
-0.000224852
0.0250708
-0.000674446
0.025161
-0.00112832
0.0252985
-0.00161151
0.0254877
-0.00212207
0.0257538
-0.00269218
0.0261055
-0.00330358
0.0265836
-0.00399124
0.0272033
-0.00472306
0.0279962
-0.00549052
0.0290176
-0.00630744
0.0302526
-0.00702311
0.0317651
-0.00765543
0.03347
-0.00798008
0.0351334
-0.00771576
0.0365812
-0.00688445
0.0377391
-0.00566932
0.0385734
-0.00421103
0.0390627
-0.0025951
0.0391911
-0.000883257
0.0389403
0.000865921
0.0382891
0.00257868
0.0372566
0.00415356
0.0358951
0.00545121
0.0342942
0.00633499
0.0325756
0.00669809
0.0308924
0.00647716
0.0293904
0.00568795
0.0281393
0.00444802
0.0271683
0.00286089
0.0265446
0.00091859
0.0262099
-0.0011721
0.0259715
-0.00307857
0.025693
-0.00463921
0.0255697
-0.00609495
0.0259153
-0.00756871
0.0269117
-0.00890413
0.0285414
-0.00980431
0.0306346
-0.0099818
0.032953
-0.00926318
0.0352429
-0.00762108
0.0372758
-0.00517619
0.0388365
-0.00208131
0.0397159
0.00132602
0.0397852
0.00464033
0.0390599
0.00745206
0.0377076
0.0094781
0.035977
0.010662
0.0341028
0.0111358
0.0322483
0.0111119
0.0304975
0.0107831
0.0288756
0.0102934
0.0273772
0.00972236
0.0259906
0.00911216
0.0247034
0.00845076
0.0234796
0.00777375
0.0222816
0.00709408
0.0210925
0.00642295
0.0200162
0.00563115
0.0191612
0.00442877
0.0187119
0.00296793
0.0186536
0.000462915
0.0190091
-0.00109765
-0.00542353
0.0250102
-0.000235051
0.0250438
-0.000708043
0.0250988
-0.0011833
0.0251897
-0.00170246
0.0253139
-0.00224629
0.0255129
-0.00289111
0.0257773
-0.00356804
0.0262049
-0.00441876
0.026768
-0.00528615
0.027597
-0.00631961
0.0286953
-0.00740569
0.0300281
-0.00835589
0.031951
-0.00957833
0.0342082
-0.0102373
0.0362954
-0.00980295
0.0379903
-0.00857936
0.0392543
-0.00693327
0.0400965
-0.00505319
0.0405604
-0.00305906
0.0406765
-0.000999324
0.0403901
0.00115233
0.039642
0.00332678
0.0384175
0.00537803
0.036738
0.00713073
0.0347164
0.00835661
0.0325375
0.00887692
0.0303708
0.00864388
0.0283186
0.00774016
0.0265106
0.00625604
0.0250932
0.00427831
0.0238129
0.00219887
0.0220589
0.000581892
0.0201244
-0.00114406
0.0185061
-0.00302093
0.0178846
-0.00547342
0.0184554
-0.00813951
0.0200218
-0.0104705
0.0222762
-0.0120587
0.0249419
-0.0126475
0.0277753
-0.0120966
0.0305543
-0.0104001
0.0330852
-0.00770712
0.0352304
-0.00422649
0.0368157
-0.000259274
0.0376554
0.0038006
0.0376483
0.00745919
0.0368471
0.0102793
0.0354535
0.0120557
0.03373
0.0128593
0.0319057
0.0129361
0.0301266
0.0125623
0.0284562
0.0119638
0.0269077
0.0112708
0.0254728
0.0105471
0.0241242
0.00979932
0.0228098
0.00908813
0.0214992
0.00840472
0.020218
0.00770413
0.0191097
0.00673951
0.0182818
0.00525667
0.0178906
0.0033591
0.0178514
0.000502109
0.0182203
-0.00146655
-0.00609044
0.025002
-0.000237013
0.0250106
-0.00071665
0.0250227
-0.00119544
0.0250528
-0.00173252
0.0250917
-0.00228522
0.0251897
-0.00298907
0.0253112
-0.00368959
0.0256252
-0.00473276
0.0260104
-0.00567139
0.0269135
-0.00722265
0.0279893
-0.0084815
0.0296115
-0.00997814
0.0322521
-0.0122189
0.0349802
-0.0129654
0.0370128
-0.0118356
0.0383226
-0.00988915
0.0390756
-0.00768622
0.0394277
-0.0054053
0.0395796
-0.00321101
0.0396301
-0.00104983
0.0394821
0.00130036
0.0389712
0.00383766
0.0379423
0.00640694
0.0362975
0.00877551
0.0340814
0.0105727
0.0314639
0.0114945
0.0287205
0.0113872
0.0262035
0.0102572
0.0240335
0.00842604
0.0216349
0.00667688
0.0183126
0.00552118
0.0146513
0.00424323
0.011845
0.00166225
0.0108831
-0.00205905
0.011537
-0.00612739
0.0131886
-0.00979104
0.0153982
-0.0126801
0.0179561
-0.0146167
0.0207593
-0.0154507
0.0236921
-0.0150294
0.0265895
-0.0132975
0.0292635
-0.0103811
0.0315904
-0.00655343
0.033467
-0.00213584
0.0347528
0.00251481
0.035313
0.00689893
0.0350928
0.0104995
0.034185
0.0129634
0.0327992
0.0142451
0.0311722
0.0145631
0.0294892
0.0142454
0.0278561
0.0135969
0.0263159
0.012811
0.0248692
0.0119938
0.0234798
0.0111888
0.0220938
0.0104741
0.0207039
0.00979458
0.0193772
0.00903087
0.0182705
0.00784612
0.0174756
0.00605165
0.0171109
0.00372377
0.0170554
0.000557629
0.0173906
-0.00180181
-0.00663824
0.0249931
-0.000230126
0.0249721
-0.000695618
0.0249368
-0.00116012
0.0248913
-0.00168707
0.0248336
-0.00222751
0.0247888
-0.00294425
0.0247333
-0.00363416
0.024805
-0.0048044
0.0248575
-0.00572386
0.0256015
-0.00796672
0.026291
-0.00917099
0.0291003
-0.0127875
0.0320316
-0.0151501
0.0336277
-0.0145616
0.033838
-0.012046
0.0333104
-0.00936152
0.0325111
-0.00688688
0.0317817
-0.00467599
0.0314667
-0.00289595
0.0314523
-0.00103547
0.0319379
0.000814814
0.032416
0.00335953
0.0323811
0.0064418
0.0315803
0.00957636
0.0299653
0.0121877
0.0276654
0.0137944
0.0249312
0.0141215
0.0218569
0.0133314
0.0180687
0.0122143
0.0134075
0.0113381
0.00895426
0.00997444
0.00626035
0.00693714
0.0057334
0.0021892
0.00663009
-0.00295574
0.00832988
-0.00782718
0.0103892
-0.0118504
0.0126094
-0.0149003
0.0149632
-0.0169705
0.0175011
-0.0179885
0.0202285
-0.0177568
0.0230389
-0.0161079
0.0257233
-0.0130655
0.0281068
-0.00893697
0.0300856
-0.00411456
0.0315762
0.00102412
0.032484
0.00599123
0.0327228
0.0102606
0.0322988
0.0133874
0.0313363
0.0152076
0.0300281
0.0158713
0.0285589
0.0157146
0.0270594
0.0150964
0.0255986
0.0142719
0.0241878
0.0134045
0.022791
0.0125856
0.0213684
0.0118967
0.0199427
0.0112203
0.0186113
0.0103622
0.0175257
0.00893172
0.0167578
0.0068196
0.0163894
0.00409214
0.0162932
0.000653822
0.0165621
-0.00207072
-0.00705927
0.0249837
-0.00021387
0.024931
-0.000642841
0.0248456
-0.00107474
0.0247164
-0.00155787
0.0245565
-0.00206764
0.0243389
-0.00272663
0.0241029
-0.00339816
0.023801
-0.00450251
0.0234905
-0.00541331
0.0233414
-0.00781768
0.0231406
-0.00897012
0.0265515
-0.0161983
0.027096
-0.0156946
0.0241954
-0.011661
0.0210153
-0.00886593
0.018259
-0.00660522
0.0162026
-0.00483043
0.0151
-0.00357335
0.0149366
-0.00273263
0.0152343
-0.00133316
0.0173382
-0.00128905
0.0195965
0.00110126
0.0212063
0.00483193
0.0217716
0.00901112
0.021238
0.0127213
0.0196698
0.0153626
0.0170497
0.0167416
0.013209
0.0171722
0.00843079
0.0169924
0.00406966
0.0156992
0.00169475
0.0123493
0.00158619
0.00704571
0.00283665
0.000938737
0.00477192
-0.004891
0.00699342
-0.0100487
0.00921992
-0.0140769
0.0113053
-0.0169857
0.0132765
-0.0189417
0.0152946
-0.0200066
0.0175176
-0.0199799
0.0199506
-0.0185409
0.0224369
-0.0155518
0.0247536
-0.0112537
0.0267407
-0.00610156
0.0283235
-0.000558741
0.0294328
0.00488196
0.0300009
0.0096925
0.0299939
0.0133944
0.0294629
0.0157387
0.0285358
0.0167984
0.0273661
0.0168843
0.026085
0.0163774
0.0247738
0.0155831
0.0234512
0.0147271
0.0220904
0.0139464
0.0206761
0.013311
0.0192618
0.0126346
0.0179621
0.0116619
0.0169112
0.00998267
0.0161629
0.00756786
0.0157697
0.00448539
0.0156181
0.000805421
0.0157978
-0.00225042
-0.00735267
0.0249739
-0.000187746
0.0248913
-0.0005603
0.0247545
-0.000937868
0.0245462
-0.0013496
0.0242768
-0.00179824
0.0238953
-0.00234518
0.0234583
-0.00296115
0.0227978
-0.00384196
0.0221518
-0.00476732
0.0208764
-0.00654228
0.0195526
-0.00764639
0.0158722
-0.0125179
0.00899334
-0.00881578
0.00475165
-0.00741927
0.00250923
-0.0066235
0.00146825
-0.00556424
0.00105292
-0.00441511
0.000990011
-0.00351045
0.0011848
-0.00292742
0.0025138
-0.00266216
0.00623968
-0.00501493
0.00884314
-0.0015022
0.0105609
0.00311417
0.0112692
0.00830277
0.0108835
0.013107
0.00931759
0.0169284
0.00648069
0.0195785
0.00285117
0.0208017
-0.000377931
0.0202215
-0.00194769
0.017269
-0.00162245
0.0120241
-2.30015e-05
0.00544626
0.00206594
-0.00115021
0.00453685
-0.00736191
0.00703634
-0.0125482
0.00933455
-0.0163751
0.0112569
-0.018908
0.0128043
-0.0204891
0.0141886
-0.0213909
0.0157049
-0.0214962
0.0175174
-0.0203534
0.0195667
-0.0176011
0.021638
-0.013325
0.0235206
-0.0079842
0.0251134
-0.00215149
0.0263321
0.00366328
0.0271326
0.00889193
0.0274674
0.0130597
0.0273373
0.0158687
0.0268078
0.017328
0.0259864
0.0177056
0.0249854
0.0173784
0.0238819
0.0166866
0.0226979
0.0159111
0.0214211
0.0152233
0.0200649
0.0146672
0.0187106
0.0139889
0.0174761
0.0128964
0.0164739
0.0109849
0.0157432
0.00829849
0.0153156
0.00491303
0.0151026
0.00101843
0.0151777
-0.00232552
-0.00751898
0.0249647
-0.000152485
0.0248567
-0.000452297
0.0246721
-0.000753228
0.0243972
-0.00107469
0.0240213
-0.00142235
0.02351
-0.00183391
0.022853
-0.00230411
0.0219478
-0.00293677
0.0208199
-0.00363938
0.0190515
-0.00477394
0.0170047
-0.00559958
0.0128385
-0.00835169
0.00941987
-0.00539711
0.00679102
-0.00479042
0.00469992
-0.0045324
0.00313768
-0.004002
0.00211759
-0.00339502
0.00154041
-0.00293326
0.0013243
-0.00271131
0.0015549
-0.00289277
0.00192099
-0.00538102
0.00225756
-0.00183877
0.00241392
0.00295781
0.00211331
0.00860338
0.00107762
0.0141427
-0.000764826
0.0187709
-0.0028981
0.0217118
-0.00458084
0.0224844
-0.00498973
0.0206304
-0.00396326
0.0162425
-0.00202951
0.0100904
0.000248036
0.00316871
0.00270717
-0.00360934
0.00528406
-0.00993881
0.00781253
-0.0150766
0.0100779
-0.0186405
0.0118602
-0.0206904
0.0130726
-0.0217014
0.0138841
-0.0222024
0.0146622
-0.0222743
0.0157341
-0.0214252
0.0171814
-0.0190484
0.0188515
-0.0149951
0.0205247
-0.00965744
0.0220322
-0.003659
0.0233041
0.00239138
0.0242734
0.00792265
0.0248886
0.0124445
0.0251176
0.0156397
0.0249745
0.0174711
0.0245198
0.0181603
0.0238349
0.0180634
0.0229805
0.0175409
0.0219781
0.0169135
0.0208333
0.016368
0.0195892
0.0159113
0.0183411
0.015237
0.0172077
0.0140298
0.0162722
0.0119204
0.0155659
0.00900484
0.015107
0.00537189
0.0148314
0.00129402
0.0147929
-0.00228699
-0.00755662
0.024958
-0.000110506
0.0248297
-0.000323948
0.0246092
-0.000532754
0.0242807
-0.000746164
0.0238261
-0.000967763
0.0232076
-0.0012154
0.0223928
-0.00148937
0.0212933
-0.00183719
0.0198705
-0.00221662
0.01789
-0.00279341
0.0154993
-0.00320893
0.0116975
-0.00454991
0.00905906
-0.00275863
0.00678059
-0.00251194
0.00479982
-0.00255164
0.00326458
-0.00246676
0.00220135
-0.0023318
0.00152481
-0.00225672
0.00112757
-0.00231407
0.000735992
-0.00250119
-0.000874263
-0.00377076
-0.00224701
-0.000466024
-0.00353958
0.00425038
-0.0048721
0.0099359
-0.00618847
0.0154591
-0.00724593
0.0198284
-0.007682
0.0221478
-0.0070419
0.0218443
-0.00527033
0.0188589
-0.00281906
0.0137912
-0.000186943
0.00745824
0.00227814
0.000703621
0.00475957
-0.00609076
0.00718846
-0.0123677
0.00948644
-0.0173746
0.0114949
-0.0206489
0.0130173
-0.0222128
0.0139076
-0.0225917
0.0142275
-0.0225223
0.0143163
-0.0223631
0.0146084
-0.0217174
0.0153501
-0.0197901
0.0164941
-0.0161391
0.0178426
-0.0110059
0.0192047
-0.00502113
0.0204696
0.00112655
0.021558
0.00683419
0.0224034
0.0115991
0.0229478
0.0150953
0.0231648
0.0172541
0.0230725
0.0182525
0.0227166
0.0184193
0.0221357
0.0181218
0.0213485
0.0177007
0.0203814
0.0173352
0.0192996
0.0169931
0.0182067
0.0163299
0.0172087
0.0150278
0.016366
0.0127631
0.015702
0.00966889
0.0152256
0.0058482
0.0148944
0.00162525
0.0147388
-0.00213142
-0.00746195
0.0249539
-6.44307e-05
0.0248133
-0.000183337
0.0245716
-0.000291012
0.024211
-0.00038561
0.0237108
-0.000467566
0.0230287
-0.000533248
0.0221296
-0.000590269
0.0209184
-0.00062605
0.0193667
-0.000664923
0.0172484
-0.000675103
0.0147433
-0.000703863
0.0109572
-0.000763761
0.00861219
-0.000413622
0.0066283
-0.000528057
0.00482583
-0.000749172
0.00333911
-0.000980039
0.00223198
-0.00122467
0.00145091
-0.00147565
0.000884997
-0.00174816
0.00021498
-0.00183118
-0.00226146
-0.00129432
-0.00454473
0.00181725
-0.00647934
0.00618498
-0.00790166
0.0113582
-0.00867001
0.0162274
-0.00855205
0.0197104
-0.00733361
0.0209294
-0.00508096
0.0195917
-0.00218328
0.0159612
0.000826051
0.0107819
0.00357122
0.00471307
0.00604555
-0.0017707
0.00831227
-0.00835749
0.0103793
-0.0144348
0.0122037
-0.019199
0.0136822
-0.0221274
0.0147105
-0.023241
0.015178
-0.0230592
0.015052
-0.0223964
0.0145497
-0.0218608
0.0141099
-0.0212775
0.0141125
-0.0197927
0.0146557
-0.0166823
0.0155971
-0.0119473
0.0167392
-0.00616324
0.0179452
-7.93721e-05
0.0191074
0.005672
0.0201371
0.0105694
0.0209517
0.0142806
0.021493
0.0167128
0.0217421
0.0180035
0.0217093
0.0184521
0.0214107
0.0184204
0.0208646
0.0182467
0.0201149
0.0180849
0.0192439
0.0178641
0.0183538
0.0172201
0.0175265
0.0158551
0.01681
0.0134795
0.0162137
0.0102651
0.0157415
0.00632044
0.0153717
0.00199508
0.0151032
-0.00186299
-0.00723237
0.0249528
-1.72218e-05
0.0248091
-3.95995e-05
0.0245624
-4.43239e-05
0.0241961
-1.93167e-05
0.0236876
4.08953e-05
0.0229953
0.000159105
0.022085
0.000319952
0.0208603
0.00059865
0.019294
0.000901415
0.0171602
0.00145866
0.0146336
0.00182277
0.0108358
0.00303405
0.00849431
0.00192786
0.00650391
0.00146234
0.00468883
0.0010659
0.00318586
0.000522926
0.00206771
-0.000106507
0.00126047
-0.000668407
0.000666121
-0.00115381
8.24002e-05
-0.00124746
-0.0020824
0.000870477
-0.00436869
0.00410354
-0.00607822
0.00789452
-0.00693445
0.0122144
-0.00677944
0.0160724
-0.00552915
0.0184601
-0.00322389
0.0186241
-0.000158056
0.0165258
0.00312731
0.0126758
0.00619962
0.0077096
0.00884311
0.00206958
0.0110507
-0.00397829
0.0129084
-0.0102152
0.0144821
-0.0160084
0.0157164
-0.0204333
0.0165194
-0.0229305
0.0168754
-0.023597
0.0167896
-0.0229734
0.0162203
-0.0218271
0.0152363
-0.0208768
0.0141761
-0.0202174
0.0134821
-0.0190988
0.0133952
-0.0165954
0.0138733
-0.0124254
0.0147473
-0.00703721
0.0158413
-0.0011734
0.0170309
0.00448243
0.018196
0.00940431
0.0192316
0.013245
0.0200528
0.0158916
0.0206089
0.0174475
0.0208784
0.0181826
0.0208592
0.0184396
0.0205719
0.018534
0.0200742
0.0185827
0.0194564
0.0184819
0.0188087
0.0178678
0.0181948
0.0164691
0.0176395
0.0140349
0.0171447
0.0107599
0.0167057
0.00675942
0.0163183
0.0023825
0.0159516
-0.00149626
-0.00687086
0.0249552
2.75959e-05
0.0248181
9.74753e-05
0.0245837
0.000190093
0.0242345
0.000329882
0.0237562
0.000519191
0.0231086
0.000806673
0.0222601
0.00116843
0.0211221
0.00173672
0.0196543
0.00236918
0.0176296
0.00348333
0.015175
0.00427739
0.0113403
0.00686878
0.008709
0.00455915
0.00640426
0.00376709
0.00438622
0.00308395
0.00281933
0.00208982
0.00170696
0.00100586
0.000958553
7.99958e-05
0.000440686
-0.000635944
0.000146002
-0.000952773
-0.000880955
0.00189743
-0.00234492
0.0055675
-0.00318139
0.00873098
-0.00308678
0.0121198
-0.00195902
0.0149446
0.000219437
0.0162816
0.00313301
0.0157106
0.00638973
0.0132691
0.00959068
0.00947486
0.0123872
0.00491306
0.0146752
-0.000218354
0.016456
-0.0057591
0.0178739
-0.0116331
0.0189461
-0.0170807
0.0195729
-0.0210601
0.0196744
-0.023032
0.0193059
-0.0232285
0.0186018
-0.0222693
0.0175912
-0.0208164
0.0162367
-0.0195223
0.0147093
-0.01869
0.0134248
-0.0178143
0.0127413
-0.0159119
0.0127392
-0.0124233
0.013294
-0.00759205
0.0142325
-0.00211191
0.0154028
0.00331215
0.0166535
0.00815363
0.0178581
0.0120404
0.0189089
0.0148407
0.0197284
0.016628
0.0202698
0.0176412
0.0205191
0.0181903
0.020501
0.018552
0.0202826
0.0188011
0.0199513
0.0188131
0.0195828
0.0182363
0.0192176
0.0168343
0.0188599
0.0143926
0.0185023
0.0111175
0.0181288
0.00713285
0.0177502
0.0027612
0.0173113
-0.00105743
-0.00639043
0.0249599
6.77434e-05
0.0248376
0.00021976
0.02463
0.000397613
0.0243237
0.00063624
0.023909
0.000933877
0.0233509
0.0013648
0.0226391
0.00188023
0.0216711
0.00270466
0.0204692
0.00357109
0.0186269
0.00532567
0.0164782
0.00642606
0.0122213
0.0111257
0.00882011
0.00796035
0.00616436
0.00642284
0.00401266
0.00523564
0.00239844
0.00370403
0.00132068
0.00208362
0.000645564
0.000755116
0.000217076
-0.000207456
0.000174496
-0.000910193
0.000611933
0.00146
0.000780916
0.00539852
0.0011536
0.0083583
0.00230089
0.0109726
0.00430852
0.012937
0.00699728
0.0135929
0.0101025
0.0126053
0.0132645
0.0101072
0.0161294
0.00660998
0.0184681
0.00257438
0.0202694
-0.00201969
0.0216869
-0.00717659
0.0227843
-0.0127305
0.0234186
-0.017715
0.0234358
-0.0210773
0.0228309
-0.022427
0.0217584
-0.0221561
0.0204532
-0.0209641
0.019034
-0.0193972
0.0174211
-0.0179093
0.0156011
-0.01687
0.0138769
-0.0160902
0.0126719
-0.0147069
0.0122084
-0.0119599
0.0124393
-0.00782291
0.0131888
-0.00286141
0.0142796
0.00222129
0.0155571
0.00687619
0.0168719
0.0107256
0.0180953
0.0136173
0.0191274
0.0155959
0.019904
0.0168646
0.0204055
0.0176888
0.0206608
0.0182968
0.0207391
0.0187227
0.0207198
0.0188324
0.0206575
0.0182986
0.0205699
0.0169219
0.0204416
0.0145208
0.0202554
0.0113038
0.0199813
0.00740692
0.0196382
0.00310431
0.0191628
-0.000581963
-0.00581512
0.0249673
0.000100444
0.0248657
0.000321336
0.0246986
0.000564774
0.0244485
0.000886253
0.0241279
0.00125455
0.0236835
0.00180914
0.0231747
0.00238902
0.0224289
0.00345053
0.0216823
0.00431763
0.0202951
0.00671291
0.0188226
0.00789857
0.0150185
0.0149297
0.00829682
0.014682
0.00413532
0.0105843
0.00188798
0.00748298
0.00080966
0.00478235
0.000322372
0.00257091
6.35363e-05
0.00101395
-0.000166681
2.27608e-05
-0.00020407
-0.000872804
0.00100939
0.000246541
0.00314786
0.00326005
0.00537931
0.00612685
0.00781761
0.00853425
0.0105912
0.0101634
0.0136187
0.0105654
0.0166689
0.00955508
0.0194593
0.00731673
0.0217867
0.00428266
0.0236334
0.000727669
0.0251539
-0.00354018
0.026492
-0.00851475
0.027432
-0.0136705
0.0276478
-0.0179307
0.0270175
-0.020447
0.0257023
-0.0211118
0.0239946
-0.0204484
0.0221826
-0.019152
0.0204324
-0.017647
0.018668
-0.0161449
0.0167392
-0.0149412
0.0147644
-0.0141154
0.0131589
-0.0131014
0.0122676
-0.0110686
0.0121493
-0.00770454
0.0126699
-0.00338204
0.0136474
0.00124378
0.0149037
0.00561986
0.0162742
0.00935516
0.0176138
0.0122777
0.0188077
0.014402
0.0197823
0.01589
0.0205168
0.0169544
0.0210424
0.0177711
0.0214245
0.0183406
0.0217287
0.0185283
0.0219873
0.01804
0.022195
0.0167142
0.0223192
0.0143966
0.0223303
0.0112927
0.0221847
0.00755254
0.0219074
0.00338161
0.0214347
-0.000109217
-0.00517895
0.0249759
0.000124526
0.0249001
0.000397165
0.0247785
0.000686378
0.024599
0.00106573
0.0243779
0.00147568
0.0240849
0.00210216
0.023763
0.00271085
0.0233597
0.00385385
0.022932
0.00474537
0.0226458
0.00699912
0.0222822
0.00826211
0.0253602
0.0118517
0.0256298
0.0144125
0.0222519
0.0139622
0.0182515
0.0114835
0.0142776
0.00875618
0.0106177
0.00623082
0.00751583
0.00411585
0.00495322
0.00258537
0.00290481
0.00117561
0.00244017
0.000711177
0.00417841
0.0015218
0.00717466
0.0031306
0.0106207
0.00508824
0.0141759
0.00660814
0.0176117
0.00712969
0.0207195
0.00644727
0.0233848
0.00465137
0.025667
0.00200053
0.027692
-0.00129738
0.0295721
-0.00542026
0.0310817
-0.0100243
0.0317793
-0.0143681
0.0313866
-0.017538
0.0300008
-0.0190612
0.0280043
-0.0191153
0.0258006
-0.0182447
0.0236538
-0.0170053
0.0216975
-0.0156907
0.0198841
-0.0143315
0.0179939
-0.0130509
0.0159585
-0.01208
0.0140907
-0.0112336
0.012828
-0.00980585
0.0123715
-0.00724808
0.0126495
-0.00365997
0.0134744
0.000418891
0.014661
0.00443317
0.0160322
0.00798401
0.0174324
0.0108775
0.0187393
0.0130951
0.0198765
0.0147528
0.0208236
0.0160073
0.0216104
0.0169843
0.0222933
0.0176578
0.022919
0.0179026
0.0234992
0.0174597
0.0240074
0.016206
0.0243941
0.0140099
0.0246186
0.0110682
0.0246253
0.00754588
0.0244389
0.003568
0.0240101
0.000319593
-0.00452232
0.0249843
0.000140273
0.0249374
0.00044403
0.0248609
0.000762832
0.0247597
0.00116698
0.0246322
0.00160317
0.0245054
0.00222893
0.0243519
0.00286436
0.024316
0.00388977
0.0242352
0.00482617
0.0248246
0.00640972
0.0253226
0.00776414
0.0278314
0.00934287
0.0304484
0.0117956
0.031586
0.0128246
0.03107
0.0119994
0.0294496
0.0103766
0.0271277
0.00855266
0.0244627
0.00678086
0.0217949
0.00525319
0.0189628
0.00400774
0.016384
0.00328991
0.0148515
0.00305432
0.0147567
0.00322538
0.016146
0.00369894
0.0186144
0.00413975
0.0215965
0.00414765
0.0246405
0.00340326
0.0275335
0.00175835
0.0302169
-0.000682833
0.0326957
-0.00377625
0.0346722
-0.00739674
0.0357514
-0.0111035
0.0356021
-0.0142188
0.0342424
-0.0161783
0.0320484
-0.0168672
0.0295268
-0.0165938
0.0270622
-0.0157801
0.0248082
-0.0147513