/*--------------------------------*- C++ -*----------------------------------*\
  =========                 |
  \\      /  F ield         | OpenFOAM: The Open Source CFD Toolbox
   \\    /   O peration     | Website:  https://openfoam.org
    \\  /    A nd           | Version:  10
     \\/     M anipulation  |
\*---------------------------------------------------------------------------*/
FoamFile
{
    format      ascii;
    class       surfaceScalarField;
    location    "1.23";
    object      phi;
}
// * * * * * * * * * * * * * * * * * * * * * * * * * * * * * * * * * * * * * //

dimensions      [0 3 -1 0 0 0 0];

internalField   nonuniform List<scalar> 
24170
(
1.42328e-09
-1.42328e-09
2.64256e-09
-1.21929e-09
3.60956e-09
-9.66997e-10
4.34284e-09
-7.33277e-10
4.8899e-09
-5.47064e-10
5.30203e-09
-4.12134e-10
5.62347e-09
-3.21439e-10
5.88912e-09
-2.65647e-10
6.12597e-09
-2.36853e-10
6.35575e-09
-2.29779e-10
6.59784e-09
-2.42084e-10
6.87262e-09
-2.74787e-10
7.20628e-09
-3.33661e-10
7.63959e-09
-4.33309e-10
8.24905e-09
-6.09457e-10
9.21182e-09
-9.6277e-10
1.10767e-08
-1.8649e-09
-5.31865e-09
1.63954e-08
1.62314e-09
-3.04641e-09
3.00734e-09
-2.60349e-09
4.09806e-09
-2.05772e-09
4.91906e-09
-1.55427e-09
5.52682e-09
-1.15483e-09
5.98121e-09
-8.66525e-10
6.33322e-09
-6.73446e-10
6.62267e-09
-5.55094e-10
6.88007e-09
-4.94255e-10
7.12972e-09
-4.79434e-10
7.39305e-09
-5.05413e-10
7.69225e-09
-5.73988e-10
8.0552e-09
-6.96607e-10
8.5239e-09
-9.0201e-10
9.17246e-09
-1.25802e-09
1.01496e-08
-1.93993e-09
1.17592e-08
-3.47449e-09
-7.63622e-09
1.40768e-08
1.82069e-09
-4.8671e-09
3.36393e-09
-4.14674e-09
4.56971e-09
-3.2635e-09
5.469e-09
-2.45356e-09
6.12873e-09
-1.81456e-09
6.61786e-09
-1.35566e-09
6.99408e-09
-1.04967e-09
7.3018e-09
-8.62813e-10
7.57459e-09
-7.67046e-10
7.83879e-09
-7.4363e-10
8.11712e-09
-7.83747e-10
8.43244e-09
-8.89304e-10
8.8121e-09
-1.07627e-09
9.29435e-09
-1.38426e-09
9.93798e-09
-1.90165e-09
1.08295e-08
-2.83143e-09
1.20133e-08
-4.65828e-09
-8.42726e-09
1.28043e-08
2.04008e-09
-6.90718e-09
3.75473e-09
-5.86139e-09
5.07896e-09
-4.58773e-09
6.05464e-09
-3.42923e-09
6.76223e-09
-2.52215e-09
7.28156e-09
-1.87498e-09
7.67769e-09
-1.4458e-09
7.99975e-09
-1.18487e-09
8.28414e-09
-1.05144e-09
8.55881e-09
-1.0183e-09
8.84714e-09
-1.07208e-09
9.17147e-09
-1.21363e-09
9.55646e-09
-1.46126e-09
1.00322e-08
-1.86002e-09
1.0634e-08
-2.5034e-09
1.13805e-08
-3.57801e-09
1.21516e-08
-5.42933e-09
-8.49445e-09
1.22188e-08
2.29514e-09
-9.20232e-09
4.20182e-09
-7.76807e-09
5.65118e-09
-6.03709e-09
6.70174e-09
-4.47979e-09
7.45226e-09
-3.27267e-09
7.99601e-09
-2.41873e-09
8.40656e-09
-1.85635e-09
8.73789e-09
-1.5162e-09
9.02905e-09
-1.3426e-09
9.30912e-09
-1.29837e-09
9.60133e-09
-1.3643e-09
9.92631e-09
-1.5386e-09
1.0304e-08
-1.83896e-09
1.07533e-08
-2.30935e-09
1.12837e-08
-3.03375e-09
1.18601e-08
-4.15445e-09
1.22954e-08
-5.86457e-09
-8.23769e-09
1.20386e-08
2.6011e-09
-1.18034e-08
4.72786e-09
-9.89483e-09
6.31017e-09
-7.6194e-09
7.43222e-09
-5.60185e-09
8.218e-09
-4.05844e-09
8.7778e-09
-2.97853e-09
9.19498e-09
-2.27353e-09
9.52863e-09
-1.84985e-09
9.82008e-09
-1.63405e-09
1.00989e-08
-1.5772e-09
1.03874e-08
-1.65277e-09
1.07032e-08
-1.85441e-09
1.10601e-08
-2.19588e-09
1.14647e-08
-2.71392e-09
1.19036e-08
-3.47266e-09
1.23098e-08
-4.56068e-09
1.24953e-08
-6.04999e-09
-7.84636e-09
1.21039e-08
2.97838e-09
-1.47818e-08
5.36162e-09
-1.22781e-08
7.08417e-09
-9.34195e-09
8.27029e-09
-6.78797e-09
9.07908e-09
-4.86723e-09
9.64256e-09
-3.54201e-09
1.00554e-08
-2.68638e-09
1.03819e-08
-2.17631e-09
1.0665e-08
-1.9172e-09
1.09342e-08
-1.84634e-09
1.12096e-08
-1.92826e-09
1.15053e-08
-2.15006e-09
1.18279e-08
-2.5185e-09
1.21725e-08
-3.05854e-09
1.25097e-08
-3.80978e-09
1.27607e-08
-4.81174e-09
1.27695e-08
-6.05876e-09
-7.40612e-09
1.23293e-08
3.45682e-09
-1.82386e-08
6.14276e-09
-1.4964e-08
8.0098e-09
-1.1209e-08
9.24538e-09
-8.02355e-09
1.00579e-08
-5.67978e-09
1.06071e-08
-4.09116e-09
1.10004e-08
-3.07966e-09
1.13069e-08
-2.48282e-09
1.15706e-08
-2.18092e-09
1.18196e-08
-2.09531e-09
1.20713e-08
-2.18001e-09
1.23351e-08
-2.41379e-09
1.26107e-08
-2.79417e-09
1.28842e-08
-3.33201e-09
1.31173e-08
-4.04293e-09
1.3235e-08
-4.92935e-09
1.3122e-08
-5.94577e-09
-6.95357e-09
1.26694e-08
4.08213e-09
-2.23208e-08
7.12836e-09
-1.80102e-08
9.13635e-09
-1.3217e-08
1.03946e-08
-9.28184e-09
1.11812e-08
-6.46631e-09
1.16902e-08
-4.60017e-09
1.20431e-08
-3.43259e-09
1.2313e-08
-2.75268e-09
1.25432e-08
-2.41119e-09
1.27595e-08
-2.31153e-09
1.29754e-08
-2.39592e-09
1.31952e-08
-2.63362e-09
1.34128e-08
-3.01182e-09
1.36081e-08
-3.52727e-09
1.37409e-08
-4.17575e-09
1.37477e-08
-4.93615e-09
1.35512e-08
-5.74927e-09
-6.50292e-09
1.31006e-08
4.92766e-09
-2.72484e-08
8.40311e-09
-2.14857e-08
1.05314e-08
-1.53453e-08
1.17654e-08
-1.05158e-08
1.24805e-08
-7.18139e-09
1.29129e-08
-5.03259e-09
1.31976e-08
-3.71734e-09
1.34094e-08
-2.96449e-09
1.35891e-08
-2.59085e-09
1.37579e-08
-2.48037e-09
1.39249e-08
-2.56289e-09
1.40892e-08
-2.79787e-09
1.42397e-08
-3.16236e-09
1.43534e-08
-3.64093e-09
1.43929e-08
-4.21528e-09
1.43092e-08
-4.85246e-09
1.40545e-08
-5.49457e-09
-6.05843e-09
1.361e-08
6.11676e-09
-3.33652e-08
1.0096e-08
-2.5465e-08
1.22884e-08
-1.75377e-08
1.34174e-08
-1.16448e-08
1.39927e-08
-7.75669e-09
1.42979e-08
-5.33779e-09
1.44781e-08
-3.89753e-09
1.46052e-08
-3.09158e-09
1.47138e-08
-2.69945e-09
1.48188e-08
-2.58536e-09
1.49232e-08
-2.66726e-09
1.50209e-08
-2.89562e-09
1.50974e-08
-3.23885e-09
1.51289e-08
-3.67247e-09
1.50836e-08
-4.16991e-09
1.4926e-08
-4.6949e-09
1.46292e-08
-5.19776e-09
-5.62001e-09
1.41908e-08
6.52921e-09
-3.98944e-08
1.0329e-08
-2.92648e-08
1.21332e-08
-1.93419e-08
1.29008e-08
-1.24124e-08
1.32e-08
-8.05592e-09
1.33057e-08
-5.44344e-09
1.33405e-08
-3.93234e-09
1.33567e-08
-3.10782e-09
1.33747e-08
-2.71744e-09
1.33996e-08
-2.61025e-09
1.34282e-08
-2.69582e-09
1.34512e-08
-2.91864e-09
1.34542e-08
-3.24183e-09
1.34178e-08
-3.63608e-09
1.33196e-08
-4.07173e-09
1.31385e-08
-4.51381e-09
1.2862e-08
-4.92124e-09
-5.25189e-09
1.24939e-08
9.70561e-09
-4.96e-08
1.45257e-08
-3.40849e-08
1.63385e-08
-2.11547e-08
1.68422e-08
-1.29161e-08
1.68667e-08
-8.08042e-09
1.67499e-08
-5.32657e-09
1.6616e-08
-3.79848e-09
1.65049e-08
-2.99676e-09
1.64239e-08
-2.63641e-09
1.63672e-08
-2.55356e-09
1.63233e-08
-2.65184e-09
1.62765e-08
-2.8719e-09
1.62084e-08
-3.1737e-09
1.6098e-08
-3.52572e-09
1.59247e-08
-3.89837e-09
1.56718e-08
-4.26093e-09
1.53326e-08
-4.58203e-09
-4.83351e-09
1.49142e-08
1.56715e-08
-6.52714e-08
2.14457e-08
-3.98591e-08
2.26287e-08
-2.23376e-08
2.23479e-08
-1.26353e-08
2.17551e-08
-7.4877e-09
2.11977e-08
-4.76918e-09
2.07529e-08
-3.35364e-09
2.04169e-08
-2.6608e-09
2.01658e-08
-2.38527e-09
1.99725e-08
-2.36026e-09
1.98111e-08
-2.4904e-09
1.96567e-08
-2.71758e-09
1.94858e-08
-3.00272e-09
1.92759e-08
-3.31584e-09
1.90084e-08
-3.63086e-09
1.8671e-08
-3.92357e-09
1.82612e-08
-4.17224e-09
-4.35986e-09
1.77876e-08
2.86683e-08
-9.39397e-08
3.37186e-08
-4.49094e-08
3.23364e-08
-2.09554e-08
3.01158e-08
-1.04147e-08
2.82723e-08
-5.64415e-09
2.69167e-08
-3.41355e-09
2.59455e-08
-2.38244e-09
2.5245e-08
-1.9603e-09
2.47263e-08
-1.86663e-09
2.4324e-08
-1.95789e-09
2.39886e-08
-2.15503e-09
2.36817e-08
-2.41069e-09
2.33723e-08
-2.69336e-09
2.30361e-08
-2.97957e-09
2.26553e-08
-3.25013e-09
2.22207e-08
-3.48894e-09
2.17317e-08
-3.68323e-09
-3.82448e-09
2.11963e-08
6.32645e-08
-1.57204e-07
5.67902e-08
-3.84351e-08
4.72554e-08
-1.14206e-08
4.07923e-08
-3.95164e-09
3.67047e-08
-1.55652e-09
3.40721e-08
-7.8095e-10
3.2314e-08
-6.24368e-10
3.10906e-08
-7.36891e-10
3.01987e-08
-9.74696e-10
2.95109e-08
-1.27016e-09
2.89436e-08
-1.58769e-09
2.84389e-08
-1.90596e-09
2.79561e-08
-2.21058e-09
2.74671e-08
-2.49055e-09
2.6954e-08
-2.73706e-09
2.64083e-08
-2.94324e-09
2.58296e-08
-3.10449e-09
-3.2188e-09
2.52239e-08
1.83386e-07
1.59164e-07
9.72999e-08
4.76509e-08
6.70645e-08
1.88148e-08
5.36945e-08
9.41837e-09
4.66665e-08
5.47139e-09
4.2505e-08
3.38059e-09
3.98245e-08
2.05613e-09
3.79805e-08
1.10714e-09
3.66352e-08
3.7057e-10
3.55925e-08
-2.27499e-10
3.47311e-08
-7.26206e-10
3.39761e-08
-1.15101e-09
3.32784e-08
-1.51293e-09
3.2606e-08
-1.81808e-09
3.19391e-08
-2.07019e-09
3.12679e-08
-2.27202e-09
3.05897e-08
-2.42626e-09
-2.53612e-09
2.9907e-08
7.72661e-08
8.18978e-08
7.55377e-08
4.93794e-08
6.55668e-08
2.87856e-08
5.7612e-08
1.73732e-08
5.21412e-08
1.09422e-08
4.8417e-08
7.10482e-09
4.58147e-08
4.65843e-09
4.39237e-08
2.99808e-09
4.24852e-08
1.80909e-09
4.13373e-08
9.20412e-10
4.03767e-08
2.34449e-10
3.95263e-08
-3.00624e-10
3.87379e-08
-7.24592e-10
3.79842e-08
-1.0643e-09
3.72485e-08
-1.33454e-09
3.65225e-08
-1.54602e-09
3.58033e-08
-1.70704e-09
-1.82453e-09
3.50917e-08
3.59911e-08
4.59066e-08
5.01893e-08
3.51812e-08
5.39025e-08
2.50725e-08
5.37601e-08
1.75156e-08
5.24724e-08
1.22298e-08
5.10065e-08
8.57079e-09
4.96583e-08
6.00663e-09
4.84847e-08
4.17163e-09
4.7466e-08
2.82777e-09
4.65645e-08
1.82197e-09
4.57438e-08
1.05518e-09
4.49807e-08
4.62432e-10
4.42564e-08
-2.48154e-13
4.35492e-08
-3.57097e-10
4.28514e-08
-6.36819e-10
4.21598e-08
-8.54355e-10
4.14738e-08
-1.02107e-09
-1.14592e-09
4.07952e-08
1.43424e-08
3.15642e-08
2.33344e-08
2.61893e-08
2.81462e-08
2.02606e-08
3.05027e-08
1.51591e-08
3.15586e-08
1.11739e-08
3.19527e-08
8.17677e-09
3.20123e-08
5.94701e-09
3.18999e-08
4.28403e-09
3.16946e-08
3.03301e-09
3.14349e-08
2.08167e-09
3.11396e-08
1.35053e-09
3.08184e-08
7.83622e-10
3.04769e-08
3.41289e-10
3.01245e-08
-4.75018e-12
2.9759e-08
-2.71347e-10
2.9384e-08
-4.79299e-10
2.90028e-08
-6.39888e-10
-7.61946e-10
2.86188e-08
8.58841e-09
2.29758e-08
1.49841e-08
1.97936e-08
1.92267e-08
1.6018e-08
2.18901e-08
1.24958e-08
2.35186e-08
9.54535e-09
2.4497e-08
7.19841e-09
2.50688e-08
5.37516e-09
2.53821e-08
3.97078e-09
2.55256e-08
2.88949e-09
2.55534e-08
2.05389e-09
2.54991e-08
1.40478e-09
2.53847e-08
8.97988e-10
2.52252e-08
5.00779e-10
2.50316e-08
1.88884e-10
2.48153e-08
-5.50136e-11
2.45795e-08
-2.43516e-10
2.43297e-08
-3.90105e-10
-5.02776e-10
2.40705e-08
5.79117e-09
1.71846e-08
1.04769e-08
1.51079e-08
1.39397e-08
1.25552e-08
1.63785e-08
1.0057e-08
1.80557e-08
7.86813e-09
1.91946e-08
6.05952e-09
1.99591e-08
4.61069e-09
2.04622e-08
3.46769e-09
2.07802e-08
2.57149e-09
2.09645e-08
1.86953e-09
2.10504e-08
1.31887e-09
2.10626e-08
8.85857e-10
2.10187e-08
5.4467e-10
2.0932e-08
2.75608e-10
2.08133e-08
6.36434e-11
2.06712e-08
-1.01383e-10
2.05107e-08
-2.29657e-10
-3.29022e-10
2.0337e-08
4.21016e-09
1.29744e-08
7.77366e-09
1.15444e-08
1.05746e-08
9.75425e-09
1.26817e-08
7.94992e-09
1.42279e-08
6.32192e-09
1.53461e-08
4.94135e-09
1.61455e-08
3.81123e-09
1.67092e-08
2.90397e-09
1.70979e-08
2.1828e-09
1.73556e-08
1.61191e-09
1.7514e-08
1.16043e-09
1.75967e-08
8.03191e-10
1.7621e-08
5.20305e-10
1.76004e-08
2.9627e-10
1.7545e-08
1.19043e-10
1.7464e-08
-2.04425e-11
1.73629e-08
-1.28512e-10
-2.128e-10
1.72467e-08
3.21629e-09
9.75816e-09
6.01193e-09
8.74872e-09
8.29382e-09
7.47235e-09
1.00821e-08
6.1616e-09
1.14485e-08
4.9556e-09
1.24753e-08
3.91453e-09
1.32373e-08
3.04922e-09
1.37955e-08
2.34575e-09
1.41975e-08
1.78086e-09
1.44793e-08
1.33005e-09
1.46685e-08
9.7123e-10
1.47859e-08
6.85843e-10
1.48473e-08
4.5889e-10
1.48651e-08
2.78479e-10
1.48489e-08
1.35258e-10
1.48065e-08
2.1895e-11
1.47445e-08
-6.64543e-11
-1.35419e-10
1.46671e-08
2.54067e-09
7.21749e-09
4.78602e-09
6.50337e-09
6.66341e-09
5.59496e-09
8.17432e-09
4.65068e-09
9.35953e-09
3.77038e-09
1.0273e-08
3.00109e-09
1.09674e-08
2.35478e-09
1.14886e-08
1.82458e-09
1.18738e-08
1.39562e-09
1.21527e-08
1.05119e-09
1.23482e-08
7.75665e-10
1.24785e-08
5.55608e-10
1.25574e-08
3.79982e-10
1.25959e-08
2.39921e-10
1.26028e-08
1.28383e-10
1.25849e-08
3.97912e-11
1.25482e-08
-2.9791e-11
-8.40047e-11
1.24968e-08
2.05305e-09
5.16443e-09
3.88705e-09
4.66937e-09
5.44488e-09
4.03714e-09
6.72091e-09
3.37465e-09
7.73976e-09
2.75154e-09
8.53847e-09
2.20238e-09
9.15573e-09
1.73752e-09
9.62662e-09
1.35369e-09
9.98081e-09
1.04144e-09
1.02425e-08
7.89547e-10
1.04309e-08
5.87255e-10
1.05613e-08
4.25143e-10
1.06459e-08
2.95375e-10
1.06943e-08
1.91597e-10
1.07139e-08
1.08728e-10
1.0711e-08
4.27187e-11
1.06907e-08
-9.48279e-12
-5.00483e-11
1.06567e-08
1.68388e-09
3.48055e-09
3.19884e-09
3.15441e-09
4.4992e-09
2.73678e-09
5.57706e-09
2.2968e-09
6.44812e-09
1.88048e-09
7.13907e-09
1.51143e-09
7.67922e-09
1.19737e-09
8.09607e-09
9.36838e-10
8.41349e-09
7.24021e-10
8.6513e-09
5.51736e-10
8.82561e-09
4.12941e-10
8.94935e-09
3.01404e-10
9.03284e-09
2.11891e-10
9.0843e-09
1.40132e-10
9.11034e-09
8.2691e-11
9.11623e-09
3.68261e-11
9.10639e-09
3.59309e-13
-2.79448e-11
9.08428e-09
1.39271e-09
2.08784e-09
2.65171e-09
1.89542e-09
3.73997e-09
1.64852e-09
4.6493e-09
1.38746e-09
5.39034e-09
1.13944e-09
5.98307e-09
9.18698e-10
6.4503e-09
7.30143e-10
6.81395e-09
5.73184e-10
7.09339e-09
4.44577e-10
7.30496e-09
3.40171e-10
7.46206e-09
2.55845e-10
7.57554e-09
1.87918e-10
7.65415e-09
1.33281e-10
7.7049e-09
8.93836e-11
7.73342e-09
5.41672e-11
7.74427e-09
2.59813e-11
7.74113e-09
3.50095e-12
-1.39675e-11
7.72715e-09
1.15295e-09
9.3489e-10
2.19861e-09
8.49759e-10
3.10678e-09
7.40349e-10
3.86986e-09
6.24378e-10
4.49541e-09
5.13889e-10
4.99884e-09
4.15276e-10
5.39817e-09
3.30813e-10
5.71103e-09
2.60323e-10
5.95318e-09
2.02426e-10
6.13803e-09
1.55317e-10
6.27669e-09
1.17187e-10
6.3782e-09
8.64079e-11
6.44988e-09
6.16013e-11
6.49763e-09
4.16313e-11
6.52622e-09
2.55785e-11
6.5395e-09
1.27031e-11
6.54059e-09
2.40737e-12
-5.48363e-12
6.53211e-09
9.3489e-10
1.78465e-09
2.525e-09
3.14938e-09
3.66326e-09
4.07854e-09
4.40935e-09
4.66968e-09
4.8721e-09
5.02742e-09
5.14461e-09
5.23101e-09
5.29262e-09
5.33425e-09
5.35983e-09
5.37253e-09
5.37494e-09
5.36945e-09
3.84604e-10
-3.84604e-10
7.70884e-10
-3.8628e-10
1.15786e-09
-3.8698e-10
1.54459e-09
-3.86723e-10
1.93014e-09
-3.85558e-10
2.3137e-09
-3.83552e-10
2.69447e-09
-3.80773e-10
3.07173e-09
-3.77264e-10
3.44477e-09
-3.73035e-10
3.81283e-09
-3.68062e-10
4.17514e-09
-3.62305e-10
4.53087e-09
-3.55731e-10
4.87919e-09
-3.48321e-10
5.21927e-09
-3.40078e-10
5.55028e-09
-3.31018e-10
5.87145e-09
-3.21169e-10
6.18202e-09
-3.10567e-10
6.48128e-09
-2.99263e-10
6.76861e-09
-2.87325e-10
7.04345e-09
-2.74837e-10
7.30535e-09
-2.61902e-10
7.55398e-09
-2.48635e-10
7.78914e-09
-2.35158e-10
8.01074e-09
-2.21601e-10
8.21883e-09
-2.08089e-10
8.41358e-09
-1.94745e-10
8.59526e-09
-1.8168e-10
8.76425e-09
-1.68995e-10
8.92102e-09
-1.56773e-10
9.06611e-09
-1.45082e-10
9.20008e-09
-1.3397e-10
9.32355e-09
-1.23472e-10
9.43715e-09
-1.13603e-10
9.54152e-09
-1.04368e-10
9.63728e-09
-9.57591e-11
9.72504e-09
-8.77612e-11
9.80539e-09
-8.03507e-11
9.87889e-09
-7.35001e-11
9.94607e-09
-6.71785e-11
1.00074e-08
-6.13539e-11
1.00634e-08
-5.5993e-11
1.01145e-08
-5.10632e-11
1.0161e-08
-4.65327e-11
1.02034e-08
-4.2371e-11
1.02419e-08
-3.85488e-11
1.0277e-08
-3.50389e-11
1.03088e-08
-3.18158e-11
1.03376e-08
-2.88553e-11
1.03638e-08
-2.61355e-11
1.03874e-08
-2.36361e-11
1.04088e-08
-2.13379e-11
1.0428e-08
-1.92238e-11
1.04453e-08
-1.72775e-11
1.04607e-08
-1.54849e-11
1.04746e-08
-1.38322e-11
1.04869e-08
-1.2307e-11
1.04978e-08
-1.08986e-11
1.05074e-08
-9.59619e-12
1.05158e-08
-8.3908e-12
1.0523e-08
-7.27374e-12
1.05293e-08
-6.23723e-12
1.05345e-08
-5.27432e-12
1.05389e-08
-4.37859e-12
1.05425e-08
-3.54401e-12
1.05452e-08
-2.76548e-12
1.05473e-08
-2.03809e-12
1.05486e-08
-1.35747e-12
1.05494e-08
-7.19668e-13
1.05495e-08
-1.21291e-13
1.0549e-08
4.41403e-13
1.05481e-08
9.70782e-13
1.05466e-08
1.46991e-12
1.05446e-08
1.94122e-12
1.05423e-08
2.38671e-12
1.05395e-08
2.80859e-12
1.05362e-08
3.20847e-12
1.05327e-08
3.58821e-12
1.05287e-08
3.94911e-12
1.05244e-08
4.29283e-12
1.05198e-08
4.62033e-12
1.05149e-08
4.93295e-12
1.05096e-08
5.23173e-12
1.05041e-08
5.51743e-12
1.04983e-08
5.79113e-12
1.04923e-08
6.05353e-12
1.0486e-08
6.30556e-12
1.04794e-08
6.54762e-12
1.04726e-08
6.78063e-12
1.04656e-08
7.00498e-12
1.04584e-08
7.22121e-12
1.0451e-08
7.43001e-12
1.04433e-08
7.63165e-12
1.04355e-08
7.82678e-12
1.04275e-08
8.01549e-12
1.04193e-08
8.19856e-12
1.04109e-08
8.37605e-12
1.04024e-08
8.54829e-12
1.03937e-08
8.71589e-12
1.03848e-08
8.87885e-12
1.03757e-08
9.03764e-12
1.03666e-08
9.19233e-12
1.03572e-08
9.34345e-12
1.03477e-08
9.49085e-12
1.03381e-08
9.63523e-12
1.03283e-08
9.77632e-12
1.03184e-08
9.91469e-12
1.03083e-08
1.00504e-11
1.02982e-08
1.01836e-11
1.02878e-08
1.03144e-11
1.02774e-08
1.04432e-11
1.02668e-08
1.05699e-11
1.02561e-08
1.06949e-11
1.02453e-08
1.08181e-11
1.02344e-08
1.09397e-11
1.02233e-08
1.10599e-11
1.02121e-08
1.11789e-11
1.02008e-08
1.12965e-11
1.01894e-08
1.14133e-11
1.01779e-08
1.15288e-11
1.01663e-08
1.16437e-11
1.01545e-08
1.17577e-11
1.01426e-08
1.18711e-11
1.01306e-08
1.19838e-11
1.01186e-08
1.20961e-11
1.01063e-08
1.2208e-11
1.0094e-08
1.23193e-11
1.00816e-08
1.24307e-11
1.00691e-08
1.25416e-11
1.00564e-08
1.26525e-11
1.00436e-08
1.27634e-11
1.00308e-08
1.28742e-11
1.00178e-08
1.29852e-11
1.00047e-08
1.30962e-11
9.99147e-09
1.32074e-11
9.97815e-09
1.3319e-11
9.96472e-09
1.34309e-11
9.95118e-09
1.3543e-11
9.93752e-09
1.36558e-11
9.92376e-09
1.37691e-11
9.90987e-09
1.3883e-11
9.89587e-09
1.39976e-11
9.88176e-09
1.4113e-11
9.86753e-09
1.42294e-11
9.85319e-09
1.43469e-11
9.83872e-09
1.44657e-11
9.82413e-09
1.45859e-11
9.80943e-09
1.47077e-11
9.79459e-09
1.48316e-11
9.77964e-09
1.49579e-11
9.76455e-09
1.5087e-11
9.74933e-09
1.52193e-11
9.73397e-09
1.53559e-11
9.71848e-09
1.54975e-11
9.70283e-09
1.5645e-11
9.68703e-09
1.58002e-11
9.67107e-09
1.59647e-11
9.65493e-09
1.61411e-11
9.63859e-09
1.63321e-11
9.62205e-09
1.65416e-11
9.60528e-09
1.67746e-11
9.58824e-09
1.70375e-11
9.5709e-09
1.73386e-11
9.55321e-09
1.76888e-11
9.53511e-09
1.81023e-11
9.51651e-09
1.85981e-11
9.49731e-09
1.92013e-11
9.47737e-09
1.99455e-11
9.45649e-09
2.08769e-11
9.43443e-09
2.20588e-11
9.41085e-09
2.35804e-11
9.38528e-09
2.55697e-11
9.35706e-09
2.82161e-11
9.32525e-09
3.18097e-11
9.28844e-09
3.68168e-11
9.2444e-09
4.40347e-11
9.18946e-09
5.49458e-11
9.11681e-09
7.2651e-11
9.01195e-09
1.04852e-10
8.83568e-09
1.76273e-10
4.00988e-10
8.43469e-09
3.89022e-10
-7.73626e-10
7.79601e-10
-7.76859e-10
1.17063e-09
-7.78004e-10
1.56102e-09
-7.77119e-10
1.94981e-09
-7.74351e-10
2.33619e-09
-7.69927e-10
2.71949e-09
-7.6407e-10
3.09913e-09
-7.5691e-10
3.47454e-09
-7.48442e-10
3.84502e-09
-7.38544e-10
4.20977e-09
-7.27056e-10
4.5679e-09
-7.13862e-10
4.91851e-09
-6.98927e-10
5.26071e-09
-6.82275e-10
5.59365e-09
-6.63961e-10
5.91652e-09
-6.4404e-10
6.22853e-09
-6.22576e-10
6.52893e-09
-5.99663e-10
6.81704e-09
-5.75435e-10
7.09227e-09
-5.50073e-10
7.35417e-09
-5.23794e-10
7.60238e-09
-4.96845e-10
7.83671e-09
-4.69488e-10
8.0571e-09
-4.41994e-10
8.26364e-09
-4.14628e-10
8.45654e-09
-3.87645e-10
8.63614e-09
-3.61278e-10
8.80287e-09
-3.35729e-10
8.95726e-09
-3.11167e-10
9.0999e-09
-2.87723e-10
9.23142e-09
-2.65491e-10
9.35248e-09
-2.44529e-10
9.46374e-09
-2.24863e-10
9.56587e-09
-2.06492e-10
9.6595e-09
-1.89395e-10
9.74527e-09
-1.73531e-10
9.82377e-09
-1.58848e-10
9.89556e-09
-1.45287e-10
9.96116e-09
-1.32782e-10
1.00211e-08
-1.21266e-10
1.00757e-08
-1.10671e-10
1.01256e-08
-1.00931e-10
1.01711e-08
-9.19813e-11
1.02125e-08
-8.37604e-11
1.02501e-08
-7.62106e-11
1.02844e-08
-6.9277e-11
1.03154e-08
-6.29092e-11
1.03437e-08
-5.70598e-11
1.03692e-08
-5.16851e-11
1.03923e-08
-4.67446e-11
1.04132e-08
-4.22012e-11
1.0432e-08
-3.80207e-11
1.04489e-08
-3.41714e-11
1.0464e-08
-3.06247e-11
1.04775e-08
-2.7354e-11
1.04896e-08
-2.43353e-11
1.05002e-08
-2.15462e-11
1.05096e-08
-1.89669e-11
1.05178e-08
-1.65787e-11
1.05249e-08
-1.43647e-11
1.05309e-08
-1.23101e-11
1.05361e-08
-1.04006e-11
1.05403e-08
-8.62358e-12
1.05437e-08
-6.9676e-12
1.05464e-08
-5.42215e-12
1.05483e-08
-3.97795e-12
1.05496e-08
-2.62611e-12
1.05502e-08
-1.35913e-12
1.05503e-08
-1.69528e-13
1.05498e-08
9.48706e-13
1.05487e-08
2.00169e-12
1.05472e-08
2.9945e-12
1.05452e-08
3.93203e-12
1.05428e-08
4.81881e-12
1.05399e-08
5.65841e-12
1.05367e-08
6.45471e-12
1.05331e-08
7.21087e-12
1.05291e-08
7.93005e-12
1.05248e-08
8.61457e-12
1.05201e-08
9.26739e-12
1.05152e-08
9.89038e-12
1.05099e-08
1.04859e-11
1.05044e-08
1.10555e-11
1.04986e-08
1.16014e-11
1.04925e-08
1.21248e-11
1.04862e-08
1.26274e-11
1.04796e-08
1.31103e-11
1.04728e-08
1.35752e-11
1.04658e-08
1.40227e-11
1.04586e-08
1.44544e-11
1.04511e-08
1.48711e-11
1.04435e-08
1.52737e-11
1.04356e-08
1.5663e-11
1.04276e-08
1.60399e-11
1.04194e-08
1.64052e-11
1.0411e-08
1.67596e-11
1.04025e-08
1.71038e-11
1.03937e-08
1.74382e-11
1.03849e-08
1.77639e-11
1.03758e-08
1.80808e-11
1.03666e-08
1.839e-11
1.03573e-08
1.86916e-11
1.03478e-08
1.89863e-11
1.03381e-08
1.92746e-11
1.03284e-08
1.95566e-11
1.03184e-08
1.9833e-11
1.03084e-08
2.01041e-11
1.02982e-08
2.03703e-11
1.02879e-08
2.06317e-11
1.02774e-08
2.08891e-11
1.02669e-08
2.11424e-11
1.02562e-08
2.1392e-11
1.02453e-08
2.16382e-11
1.02344e-08
2.18815e-11
1.02233e-08
2.21216e-11
1.02122e-08
2.23594e-11
1.02009e-08
2.25947e-11
1.01894e-08
2.28278e-11
1.01779e-08
2.30591e-11
1.01663e-08
2.32886e-11
1.01545e-08
2.35166e-11
1.01426e-08
2.37432e-11
1.01307e-08
2.39686e-11
1.01186e-08
2.4193e-11
1.01064e-08
2.44166e-11
1.0094e-08
2.46396e-11
1.00816e-08
2.48619e-11
1.00691e-08
2.50839e-11
1.00564e-08
2.53057e-11
1.00436e-08
2.55273e-11
1.00308e-08
2.57489e-11
1.00178e-08
2.59707e-11
1.00047e-08
2.61927e-11
9.99148e-09
2.64152e-11
9.97816e-09
2.66383e-11
9.96473e-09
2.68618e-11
9.95118e-09
2.70864e-11
9.93753e-09
2.73118e-11
9.92376e-09
2.75383e-11
9.90987e-09
2.7766e-11
9.89588e-09
2.79953e-11
9.88176e-09
2.82261e-11
9.86753e-09
2.84589e-11
9.85319e-09
2.86937e-11
9.83872e-09
2.89312e-11
9.82414e-09
2.91715e-11
9.80943e-09
2.94152e-11
9.7946e-09
2.96628e-11
9.77964e-09
2.99151e-11
9.76455e-09
3.01731e-11
9.74934e-09
3.04377e-11
9.73398e-09
3.07106e-11
9.71849e-09
3.09932e-11
9.70284e-09
3.12881e-11
9.68705e-09
3.1598e-11
9.67108e-09
3.19266e-11
9.65495e-09
3.22783e-11
9.63862e-09
3.26593e-11
9.62208e-09
3.30771e-11
9.60532e-09
3.35415e-11
9.58829e-09
3.40654e-11
9.57096e-09
3.4665e-11
9.55329e-09
3.5362e-11
9.53521e-09
3.61848e-11
9.51663e-09
3.71706e-11
9.49747e-09
3.83693e-11
9.47756e-09
3.98476e-11
9.45674e-09
4.16966e-11
9.43476e-09
4.40411e-11
9.41129e-09
4.70571e-11
9.38586e-09
5.09962e-11
9.35785e-09
5.62285e-11
9.32634e-09
6.33198e-11
9.28998e-09
7.31712e-11
9.24671e-09
8.73063e-11
9.19315e-09
1.08504e-10
9.12343e-09
1.42373e-10
9.02642e-09
2.0186e-10
8.88044e-09
3.22252e-10
6.16391e-10
8.66504e-09
3.98498e-10
-1.17212e-09
7.98266e-10
-1.17663e-09
1.19786e-09
-1.1776e-09
1.59585e-09
-1.17511e-09
1.99097e-09
-1.16947e-09
2.38248e-09
-1.16144e-09
2.77016e-09
-1.15175e-09
3.15402e-09
-1.14077e-09
3.53394e-09
-1.12836e-09
3.90935e-09
-1.11396e-09
4.27926e-09
-1.09696e-09
4.64245e-09
-1.07706e-09
4.9978e-09
-1.05428e-09
5.34434e-09
-1.02881e-09
5.68121e-09
-1.00083e-09
6.0076e-09
-9.70424e-10
6.32263e-09
-9.37606e-10
6.62543e-09
-9.02468e-10
6.91521e-09
-8.65214e-10
7.19129e-09
-8.2615e-10
7.45315e-09
-7.85656e-10
7.70045e-09
-7.44146e-10
7.93302e-09
-7.02057e-10
8.15086e-09
-6.5983e-10
8.35413e-09
-6.17899e-10
8.54315e-09
-5.76672e-10
8.7184e-09
-5.36519e-10
8.88042e-09
-4.97754e-10
9.02988e-09
-4.6063e-10
9.16749e-09
-4.25334e-10
9.29399e-09
-3.91989e-10
9.41013e-09
-3.60662e-10
9.51663e-09
-3.31369e-10
9.61423e-09
-3.04086e-10
9.70359e-09
-2.78758e-10
9.78537e-09
-2.55307e-10
9.86016e-09
-2.33642e-10
9.92853e-09
-2.13659e-10
9.991e-09
-1.95254e-10
1.00481e-08
-1.78317e-10
1.01001e-08
-1.62744e-10
1.01476e-08
-1.48433e-10
1.01909e-08
-1.35286e-10
1.02304e-08
-1.2321e-10
1.02663e-08
-1.1212e-10
1.0299e-08
-1.01934e-10
1.03286e-08
-9.25772e-11
1.03555e-08
-8.39799e-11
1.03799e-08
-7.6078e-11
1.0402e-08
-6.88123e-11
1.04219e-08
-6.2128e-11
1.04399e-08
-5.59751e-11
1.0456e-08
-5.03076e-11
1.04705e-08
-4.50832e-11
1.04834e-08
-4.02634e-11
1.04949e-08
-3.58125e-11
1.0505e-08
-3.16986e-11
1.05139e-08
-2.78919e-11
1.05217e-08
-2.43655e-11
1.05285e-08
-2.1095e-11
1.05342e-08
-1.80579e-11
1.0539e-08
-1.5234e-11
1.0543e-08
-1.26045e-11
1.05462e-08
-1.01529e-11
1.05486e-08
-7.86389e-12
1.05504e-08
-5.7234e-12
1.05515e-08
-3.71889e-12
1.0552e-08
-1.83914e-12
1.05519e-08
-7.36153e-14
1.05512e-08
1.58719e-12
1.05501e-08
3.15149e-12
1.05484e-08
4.62722e-12
1.05464e-08
6.02159e-12
1.05438e-08
7.34058e-12
1.05409e-08
8.59036e-12
1.05376e-08
9.77592e-12
1.05339e-08
1.09022e-11
1.05298e-08
1.19736e-11
1.05255e-08
1.29941e-11
1.05208e-08
1.39673e-11
1.05158e-08
1.48965e-11
1.05105e-08
1.57848e-11
1.05049e-08
1.6635e-11
1.0499e-08
1.74497e-11
1.04929e-08
1.82311e-11
1.04866e-08
1.89816e-11
1.048e-08
1.9703e-11
1.04732e-08
2.03974e-11
1.04661e-08
2.10664e-11
1.04589e-08
2.17113e-11
1.04514e-08
2.23342e-11
1.04437e-08
2.2936e-11
1.04359e-08
2.35181e-11
1.04278e-08
2.40819e-11
1.04196e-08
2.46283e-11
1.04112e-08
2.51584e-11
1.04026e-08
2.56732e-11
1.03939e-08
2.61738e-11
1.0385e-08
2.66608e-11
1.0376e-08
2.71354e-11
1.03667e-08
2.7598e-11
1.03574e-08
2.80496e-11
1.03479e-08
2.84908e-11
1.03382e-08
2.89223e-11
1.03285e-08
2.93446e-11
1.03185e-08
2.97585e-11
1.03085e-08
3.01645e-11
1.02983e-08
3.05632e-11
1.02879e-08
3.09549e-11
1.02775e-08
3.13402e-11
1.02669e-08
3.17197e-11
1.02562e-08
3.20938e-11
1.02454e-08
3.24627e-11
1.02344e-08
3.2827e-11
1.02234e-08
3.31871e-11
1.02122e-08
3.35433e-11
1.02009e-08
3.38959e-11
1.01895e-08
3.42455e-11
1.01779e-08
3.4592e-11
1.01663e-08
3.4936e-11
1.01545e-08
3.52776e-11
1.01427e-08
3.56174e-11
1.01307e-08
3.59553e-11
1.01186e-08
3.62919e-11
1.01064e-08
3.6627e-11
1.0094e-08
3.69612e-11
1.00816e-08
3.72946e-11
1.00691e-08
3.76274e-11
1.00564e-08
3.79599e-11
1.00437e-08
3.82922e-11
1.00308e-08
3.86245e-11
1.00178e-08
3.89571e-11
1.00047e-08
3.92901e-11
9.99148e-09
3.96238e-11
9.97816e-09
3.99581e-11
9.96473e-09
4.02935e-11
9.95119e-09
4.06301e-11
9.93753e-09
4.09682e-11
9.92376e-09
4.13078e-11
9.90988e-09
4.16493e-11
9.89588e-09
4.1993e-11
9.88177e-09
4.23392e-11
9.86754e-09
4.26882e-11
9.85319e-09
4.30404e-11
9.83873e-09
4.33964e-11
9.82414e-09
4.37566e-11
9.80944e-09
4.41218e-11
9.79461e-09
4.44931e-11
9.77965e-09
4.48712e-11
9.76457e-09
4.52578e-11
9.74935e-09
4.56543e-11
9.734e-09
4.60627e-11
9.7185e-09
4.64861e-11
9.70286e-09
4.69274e-11
9.68707e-09
4.7391e-11
9.67112e-09
4.78822e-11
9.65499e-09
4.8408e-11
9.63867e-09
4.8977e-11
9.62214e-09
4.96006e-11
9.60539e-09
5.02934e-11
9.58838e-09
5.1074e-11
9.57108e-09
5.1967e-11
9.55344e-09
5.30043e-11
9.5354e-09
5.42277e-11
9.51688e-09
5.56922e-11
9.49777e-09
5.74714e-11
9.47796e-09
5.96638e-11
9.45725e-09
6.24031e-11
9.43542e-09
6.58726e-11
9.41215e-09
7.03297e-11
9.387e-09
7.61405e-11
9.35939e-09
8.38419e-11
9.32846e-09
9.42453e-11
9.293e-09
1.08631e-10
9.25119e-09
1.29121e-10
9.20021e-09
1.59479e-10
9.13565e-09
2.06933e-10
9.05077e-09
2.86744e-10
8.93888e-09
4.34144e-10
7.31728e-10
8.82354e-09
4.1453e-10
-1.58665e-09
8.29846e-10
-1.59194e-09
1.244e-09
-1.59176e-09
1.6547e-09
-1.58581e-09
2.05878e-09
-1.57355e-09
2.45585e-09
-1.55851e-09
2.84728e-09
-1.54317e-09
3.23529e-09
-1.52879e-09
3.62137e-09
-1.51444e-09
4.00501e-09
-1.4976e-09
4.38401e-09
-1.47596e-09
4.75582e-09
-1.44887e-09
5.11867e-09
-1.41712e-09
5.47171e-09
-1.38186e-09
5.81453e-09
-1.34366e-09
6.14648e-09
-1.30237e-09
6.4665e-09
-1.25762e-09
6.77335e-09
-1.20932e-09
7.06592e-09
-1.15779e-09
7.34338e-09
-1.10361e-09
7.60515e-09
-1.04743e-09
7.85092e-09
-9.89909e-10
8.08056e-09
-9.31698e-10
8.29418e-09
-8.73452e-10
8.4921e-09
-8.15816e-10
8.67482e-09
-7.59393e-10
8.84301e-09
-7.04717e-10
8.99749e-09
-6.52227e-10
9.13911e-09
-6.02252e-10
9.26879e-09
-5.55017e-10
9.38745e-09
-5.10645e-10
9.49596e-09
-4.69175e-10
9.59517e-09
-4.30579e-10
9.68586e-09
-3.94779e-10
9.76877e-09
-3.61659e-10
9.84454e-09
-3.31083e-10
9.9138e-09
-3.02898e-10
9.97709e-09
-2.76949e-10
1.00349e-08
-2.5308e-10
1.00877e-08
-2.31137e-10
1.0136e-08
-2.10974e-10
1.018e-08
-1.92451e-10
1.02201e-08
-1.75438e-10
1.02567e-08
-1.59811e-10
1.02901e-08
-1.45457e-10
1.03204e-08
-1.32271e-10
1.0348e-08
-1.20154e-10
1.0373e-08
-1.09016e-10
1.03957e-08
-9.87746e-11
1.04163e-08
-8.9353e-11
1.04348e-08
-8.06809e-11
1.04515e-08
-7.26936e-11
1.04666e-08
-6.53321e-11
1.048e-08
-5.85418e-11
1.0492e-08
-5.22733e-11
1.05027e-08
-4.64809e-11
1.05121e-08
-4.11232e-11
1.05204e-08
-3.6162e-11
1.05276e-08
-3.15631e-11
1.05338e-08
-2.72945e-11
1.05391e-08
-2.33275e-11
1.05435e-08
-1.96363e-11
1.0547e-08
-1.61968e-11
1.05499e-08
-1.29874e-11
1.0552e-08
-9.98853e-12
1.05535e-08
-7.18213e-12
1.05543e-08
-4.55237e-12
1.05545e-08
-2.08416e-12
1.05542e-08
2.35516e-13
1.05534e-08
2.41897e-12
1.05521e-08
4.47717e-12
1.05503e-08
6.42019e-12
1.0548e-08
8.25678e-12
1.05454e-08
9.99546e-12
1.05423e-08
1.16437e-11
1.05389e-08
1.32083e-11
1.05351e-08
1.46952e-11
1.0531e-08
1.61106e-11
1.05265e-08
1.74591e-11
1.05217e-08
1.87459e-11
1.05167e-08
1.99748e-11
1.05113e-08
2.11503e-11
1.05056e-08
2.22758e-11
1.04997e-08
2.33544e-11
1.04936e-08
2.43897e-11
1.04872e-08
2.5384e-11
1.04805e-08
2.63404e-11
1.04737e-08
2.72608e-11
1.04666e-08
2.8148e-11
1.04593e-08
2.90037e-11
1.04518e-08
2.983e-11
1.04441e-08
3.06287e-11
1.04362e-08
3.14015e-11
1.04282e-08
3.215e-11
1.04199e-08
3.28755e-11
1.04115e-08
3.35796e-11
1.04029e-08
3.42637e-11
1.03942e-08
3.49288e-11
1.03852e-08
3.5576e-11
1.03762e-08
3.62067e-11
1.03669e-08
3.68217e-11
1.03576e-08
3.7422e-11
1.03481e-08
3.80088e-11
1.03384e-08
3.85825e-11
1.03286e-08
3.91443e-11
1.03187e-08
3.96949e-11
1.03086e-08
4.0235e-11
1.02984e-08
4.07653e-11
1.02881e-08
4.12866e-11
1.02776e-08
4.17995e-11
1.0267e-08
4.23044e-11
1.02563e-08
4.28024e-11
1.02455e-08
4.32936e-11
1.02345e-08
4.37785e-11
1.02234e-08
4.4258e-11
1.02123e-08
4.47324e-11
1.0201e-08
4.52019e-11
1.01895e-08
4.56672e-11
1.0178e-08
4.61289e-11
1.01663e-08
4.65871e-11
1.01546e-08
4.70421e-11
1.01427e-08
4.74948e-11
1.01307e-08
4.79449e-11
1.01186e-08
4.83932e-11
1.01064e-08
4.88398e-11
1.00941e-08
4.9285e-11
1.00816e-08
4.97294e-11
1.00691e-08
5.01728e-11
1.00564e-08
5.06159e-11
1.00437e-08
5.10587e-11
1.00308e-08
5.15016e-11
1.00178e-08
5.19448e-11
1.00047e-08
5.23886e-11
9.9915e-09
5.28333e-11
9.97818e-09
5.32789e-11
9.96474e-09
5.3726e-11