/*--------------------------------*- C++ -*----------------------------------*\
  =========                 |
  \\      /  F ield         | OpenFOAM: The Open Source CFD Toolbox
   \\    /   O peration     | Website:  https://openfoam.org
    \\  /    A nd           | Version:  10
     \\/     M anipulation  |
\*---------------------------------------------------------------------------*/
FoamFile
{
    format      ascii;
    class       volVectorField;
    location    "1.23";
    object      Ub;
}
// * * * * * * * * * * * * * * * * * * * * * * * * * * * * * * * * * * * * * //

dimensions      [0 1 -1 0 0 0 0];

internalField   nonuniform List<vector> 
12225
(
(0.00219662 -0.000445049 0)
(0.00627265 -0.000396928 0)
(0.00963946 -0.000327685 0)
(0.0122514 -0.000258636 0)
(0.0142116 -0.000200831 0)
(0.0156739 -0.000157471 0)
(0.0167868 -0.00012783 0)
(0.0176732 -0.000109956 0)
(0.0184288 -0.000102045 0)
(0.0191292 -0.000103047 0)
(0.0198378 -0.000113012 0)
(0.0206159 -0.000133542 0)
(0.0215352 -0.000168822 0)
(0.0226988 -0.000228283 0)
(0.0242872 -0.000334382 0)
(0.026691 -0.000550238 0)
(0.031029 -0.00111066 0)
(0.0420841 -0.00330279 0)
(0.00235083 -0.00140012 0)
(0.00670422 -0.0012467 0)
(0.0102818 -0.00102684 0)
(0.0130392 -0.000808328 0)
(0.0150938 -0.000625935 0)
(0.0166155 -0.000489469 0)
(0.0177656 -0.000396386 0)
(0.0186764 -0.000340359 0)
(0.01945 -0.000315583 0)
(0.0201661 -0.000318661 0)
(0.0208909 -0.000349628 0)
(0.0216875 -0.000413299 0)
(0.0226282 -0.000522317 0)
(0.023814 -0.0007049 0)
(0.0254125 -0.00102664 0)
(0.0277459 -0.00166215 0)
(0.031469 -0.0031855 0)
(0.0371386 -0.00805522 0)
(0.00246684 -0.00248352 0)
(0.00702244 -0.00220559 0)
(0.0107403 -0.00180995 0)
(0.0135814 -0.00141899 0)
(0.0156795 -0.00109429 0)
(0.0172199 -0.000852375 0)
(0.0183751 -0.000687944 0)
(0.019284 -0.000589229 0)
(0.0200528 -0.00054559 0)
(0.0207626 -0.000550714 0)
(0.02148 -0.000604276 0)
(0.0222667 -0.000714067 0)
(0.0231905 -0.000900739 0)
(0.0243401 -0.0012095 0)
(0.0258467 -0.0017407 0)
(0.0279069 -0.00273778 0)
(0.0306993 -0.00486126 0)
(0.0333665 -0.0100043 0)
(0.00258332 -0.00370017 0)
(0.00733573 -0.00327459 0)
(0.0111772 -0.00267427 0)
(0.0140787 -0.00208583 0)
(0.0161963 -0.00160053 0)
(0.0177341 -0.00124105 0)
(0.0188765 -0.000997822 0)
(0.0197687 -0.000852254 0)
(0.0205192 -0.000787835 0)
(0.0212098 -0.000794604 0)
(0.0219054 -0.000871275 0)
(0.0226639 -0.00102784 0)
(0.0235448 -0.00129128 0)
(0.0246171 -0.001719 0)
(0.0259636 -0.00243052 0)
(0.0276531 -0.00368308 0)
(0.0295593 -0.00603779 0)
(0.0306169 -0.0105507 0)
(0.00271497 -0.0050678 0)
(0.00768326 -0.00446419 0)
(0.0116466 -0.00362294 0)
(0.0145932 -0.00280738 0)
(0.0167101 -0.00214111 0)
(0.0182257 -0.00165135 0)
(0.0193381 -0.00132194 0)
(0.0201988 -0.00112555 0)
(0.0209181 -0.00103845 0)
(0.0215769 -0.00104607 0)
(0.0222369 -0.00114524 0)
(0.0229501 -0.00134685 0)
(0.0237644 -0.00168145 0)
(0.0247258 -0.00221183 0)
(0.0258678 -0.00305874 0)
(0.0271609 -0.00444823 0)
(0.0283451 -0.00676652 0)
(0.0285542 -0.0104413 0)
(0.00287353 -0.00661353 0)
(0.00809446 -0.0057902 0)
(0.0121855 -0.00466076 0)
(0.0151627 -0.00358179 0)
(0.017257 -0.00271125 0)
(0.0187284 -0.00207774 0)
(0.0197916 -0.0016549 0)
(0.0206046 -0.00140403 0)
(0.0212785 -0.00129245 0)
(0.0218919 -0.00129973 0)
(0.0225021 -0.00141963 0)
(0.0231532 -0.00166209 0)
(0.02388 -0.00205778 0)
(0.024705 -0.0026674 0)
(0.0256211 -0.0035975 0)
(0.0265404 -0.00501788 0)
(0.0271835 -0.00714393 0)
(0.0269542 -0.0100435 0)
(0.0030723 -0.00837582 0)
(0.00860086 -0.00727371 0)
(0.0128297 -0.00579283 0)
(0.0158198 -0.00440512 0)
(0.0178645 -0.00330351 0)
(0.0192653 -0.00251215 0)
(0.0202567 -0.00198912 0)
(0.0210032 -0.00168076 0)
(0.0216158 -0.00154323 0)
(0.0221693 -0.00154871 0)
(0.0227149 -0.00168641 0)
(0.023288 -0.00196325 0)
(0.02391 -0.00240632 0)
(0.0245828 -0.00306767 0)
(0.0252713 -0.00402964 0)
(0.0258651 -0.00540013 0)
(0.026124 -0.00726495 0)
(0.0256765 -0.00952936 0)
(0.00332908 -0.0104091 0)
(0.00924272 -0.0089418 0)
(0.013621 -0.00702304 0)
(0.0165988 -0.00526947 0)
(0.0185585 -0.00390614 0)
(0.0198555 -0.0029428 0)
(0.0207478 -0.00231401 0)
(0.0214061 -0.00194637 0)
(0.0219394 -0.00178214 0)
(0.0224173 -0.00178436 0)
(0.0228838 -0.00193609 0)
(0.0233647 -0.00223908 0)
(0.0238689 -0.00271359 0)
(0.024383 -0.00339843 0)
(0.0248572 -0.00434796 0)
(0.0251831 -0.00561585 0)
(0.0251791 -0.00720621 0)
(0.0246312 -0.00897563 0)
(0.0036699 -0.0127915 0)
(0.0100762 -0.0108286 0)
(0.0146136 -0.00835158 0)
(0.01754 -0.00616004 0)
(0.0193659 -0.00450091 0)
(0.0205166 -0.00335271 0)
(0.0212766 -0.00261505 0)
(0.0218213 -0.00218849 0)
(0.0222555 -0.00199821 0)
(0.0226416 -0.0019962 0)
(0.0230148 -0.00215782 0)
(0.0233915 -0.00247785 0)
(0.0237701 -0.00296734 0)
(0.0241273 -0.00364979 0)
(0.0244093 -0.00455306 0)
(0.0245238 -0.00569042 0)
(0.0243451 -0.00702356 0)
(0.0237591 -0.00841434 0)
(0.00413515 -0.0156391 0)
(0.0111846 -0.0129756 0)
(0.0158806 -0.00977013 0)
(0.0186922 -0.00705049 0)
(0.0203156 -0.00505984 0)
(0.021265 -0.00371777 0)
(0.0218525 -0.00287263 0)
(0.0222544 -0.00239112 0)
(0.022568 -0.00217777 0)
(0.0228456 -0.00217181 0)
(0.0231126 -0.00233964 0)
(0.023376 -0.00266782 0)
(0.0236261 -0.00315715 0)
(0.0238344 -0.00381606 0)
(0.0239507 -0.00465072 0)
(0.0239031 -0.00564849 0)
(0.0236111 -0.00675518 0)
(0.0230192 -0.00785726 0)
(0.00479098 -0.0191298 0)
(0.0126964 -0.0154301 0)
(0.0175239 -0.0112523 0)
(0.0201156 -0.0078952 0)
(0.0214387 -0.00554061 0)
(0.0221152 -0.00400425 0)
(0.0224816 -0.00306085 0)
(0.022708 -0.00253406 0)
(0.0228782 -0.00230437 0)
(0.0230311 -0.00229702 0)
(0.0231808 -0.00246885 0)
(0.0233251 -0.00279783 0)
(0.023448 -0.00327473 0)
(0.0235198 -0.00389505 0)
(0.0234973 -0.00464936 0)
(0.0233281 -0.00551133 0)
(0.0229641 -0.00642599 0)
(0.0223823 -0.00730714 0)
(0.00568224 -0.0231266 0)
(0.014669 -0.0179915 0)
(0.0195395 -0.0126237 0)
(0.0217681 -0.00857367 0)
(0.0226851 -0.00586701 0)
(0.0230248 -0.0041644 0)
(0.0231338 -0.00314846 0)
(0.0231645 -0.00259504 0)
(0.0231804 -0.00236045 0)
(0.0232038 -0.00235684 0)
(0.0232365 -0.00253258 0)
(0.0232678 -0.00285827 0)
(0.0232773 -0.00331661 0)
(0.0232359 -0.00389383 0)
(0.0231073 -0.00457126 0)
(0.0228542 -0.00531743 0)
(0.0224476 -0.00608306 0)
(0.0218799 -0.0068041 0)
(0.00693049 -0.0282573 0)
(0.0173004 -0.0208299 0)
(0.02203 -0.0138653 0)
(0.0236747 -0.00902924 0)
(0.0240408 -0.0059889 0)
(0.0239628 -0.00416138 0)
(0.0237709 -0.00310964 0)
(0.0235828 -0.00255621 0)
(0.0234322 -0.00233377 0)
(0.0233204 -0.00234322 0)
(0.0232351 -0.00252614 0)
(0.0231572 -0.00284753 0)
(0.0230625 -0.0032843 0)
(0.022923 -0.00381677 0)
(0.0227093 -0.00442186 0)
(0.022395 -0.00506811 0)
(0.0219636 -0.00571419 0)
(0.0214155 -0.00631313 0)
(0.00918172 -0.0362763 0)
(0.0217439 -0.0243185 0)
(0.0258132 -0.0148945 0)
(0.0263325 -0.00911113 0)
(0.0258101 -0.00577968 0)
(0.0251248 -0.00390205 0)
(0.0245254 -0.00287779 0)
(0.0240553 -0.00236981 0)
(0.0236984 -0.00218971 0)
(0.023425 -0.00223053 0)
(0.0232043 -0.00242992 0)
(0.0230066 -0.00274956 0)
(0.0228037 -0.00316288 0)
(0.0225689 -0.00364719 0)
(0.0222783 -0.00417842 0)
(0.0219141 -0.00472839 0)
(0.0214676 -0.00526502 0)
(0.0209423 -0.00575589 0)
(0.0137809 -0.0502858 0)
(0.0299867 -0.0278834 0)
(0.0317431 -0.0148295 0)
(0.0300024 -0.00822119 0)
(0.0280389 -0.00487652 0)
(0.0264902 -0.00316357 0)
(0.0253602 -0.00230871 0)
(0.0245446 -0.00193627 0)
(0.0239462 -0.00185464 0)
(0.023491 -0.00196078 0)
(0.023124 -0.00219588 0)
(0.022803 -0.00252349 0)
(0.022495 -0.0029178 0)
(0.0221733 -0.00335702 0)
(0.0218179 -0.0038197 0)
(0.0214161 -0.00428342 0)
(0.0209631 -0.00472546 0)
(0.0204625 -0.00512507 0)
(0.0249506 -0.0793298 0)
(0.0473449 -0.0274188 0)
(0.0410244 -0.0110919 0)
(0.0347071 -0.00512505 0)
(0.030537 -0.00267456 0)
(0.0278765 -0.00162204 0)
(0.0261341 -0.00121052 0)
(0.0249469 -0.00113046 0)
(0.0241009 -0.00123976 0)
(0.0234661 -0.00146627 0)
(0.0229592 -0.00176975 0)
(0.0225247 -0.00212477 0)
(0.0221237 -0.00251274 0)
(0.0217294 -0.00291766 0)
(0.0213235 -0.00332424 0)
(0.0208959 -0.00371755 0)
(0.0204429 -0.00408367 0)
(0.019967 -0.0044109 0)
(0.0593348 0.000619008 0)
(0.0908141 0.00303203 0)
(0.0531729 0.00253355 0)
(0.0390579 0.00195055 0)
(0.0324502 0.00145445 0)
(0.0288207 0.00100557 0)
(0.0265969 0.00057658 0)
(0.0251221 0.000155222 0)
(0.0240789 -0.000263667 0)
(0.0232946 -0.000680387 0)
(0.0226667 -0.00109418 0)
(0.0221318 -0.0015047 0)
(0.0216499 -0.00190778 0)
(0.021195 -0.00229789 0)
(0.0207504 -0.0026687 0)
(0.0203066 -0.00301363 0)
(0.0198597 -0.00332665 0)
(0.0194096 -0.00360305 0)
(0.0205057 0.0761442 0)
(0.0405497 0.0319203 0)
(0.0374382 0.0163073 0)
(0.0326732 0.00955743 0)
(0.0291016 0.00609652 0)
(0.0266519 0.00405483 0)
(0.0249627 0.00270325 0)
(0.0237595 0.00172054 0)
(0.0228647 0.000950925 0)
(0.0221668 0.000314657 0)
(0.0215956 -0.000232464 0)
(0.0211034 -0.000714147 0)
(0.0206571 -0.00114567 0)
(0.0202365 -0.00153614 0)
(0.0198301 -0.00188868 0)
(0.0194314 -0.00220452 0)
(0.0190375 -0.0024841 0)
(0.0186479 -0.00272787 0)
(0.00783282 0.0403614 0)
(0.018753 0.0278104 0)
(0.0226446 0.0184446 0)
(0.0234131 0.0124408 0)
(0.0230921 0.0086027 0)
(0.0224823 0.00605871 0)
(0.0218587 0.00429122 0)
(0.0212984 0.00300305 0)
(0.0208095 0.00202166 0)
(0.0203797 0.00124456 0)
(0.0199928 0.000609115 0)
(0.0196363 7.95299e-05 0)
(0.0193009 -0.00037087 0)
(0.0189781 -0.000756779 0)
(0.0186613 -0.0010924 0)
(0.0183483 -0.00138444 0)
(0.0180382 -0.00163774 0)
(0.0177314 -0.00185608 0)
(0.0042615 0.0244548 0)
(0.0111927 0.0201733 0)
(0.0152886 0.0155161 0)
(0.0174102 0.0116439 0)
(0.0184142 0.00868275 0)
(0.018834 0.00646824 0)
(0.0189571 0.00480593 0)
(0.0189293 0.00353876 0)
(0.0188225 0.00255312 0)
(0.0186718 0.00177006 0)
(0.0184944 0.0011354 0)
(0.0182989 0.000612077 0)
(0.0180899 0.000174292 0)
(0.0178719 -0.000192493 0)
(0.0176473 -0.000502655 0)
(0.0174163 -0.000768241 0)
(0.017181 -0.000995829 0)
(0.0169435 -0.00119057 0)
(0.00292909 0.0172055 0)
(0.00803774 0.0151049 0)
(0.011661 0.012408 0)
(0.0140084 0.00984732 0)
(0.0154623 0.0076804 0)
(0.0163402 0.00593297 0)
(0.0168568 0.00454783 0)
(0.017146 0.00345136 0)
(0.0172889 0.00257742 0)
(0.0173343 0.00187327 0)
(0.0173123 0.00129903 0)
(0.0172421 0.000825163 0)
(0.0171361 0.000430036 0)
(0.0170035 9.78164e-05 0)
(0.016852 -0.000180432 0)
(0.0166865 -0.000415816 0)
(0.0165101 -0.000616678 0)
(0.0163262 -0.000788116 0)
(0.00226659 0.0126585 0)
(0.00636561 0.0114547 0)
(0.00955025 0.00976356 0)
(0.0118526 0.00802274 0)
(0.0134539 0.00644841 0)
(0.0145448 0.00511052 0)
(0.0152774 0.00400662 0)
(0.0157606 0.00310648 0)
(0.0160686 0.00237376 0)
(0.0162518 0.00177502 0)
(0.0163442 0.0012825 0)
(0.0163695 0.000874228 0)
(0.0163442 0.000533238 0)
(0.0162806 0.000246553 0)
(0.0161881 4.75415e-06 0)
(0.0160745 -0.000198127 0)
(0.015945 -0.000370497 0)
(0.0158037 -0.000517529 0)
(0.00189057 0.00949596 0)
(0.00537996 0.0087377 0)
(0.00823365 0.00761459 0)
(0.0104304 0.0063981 0)
(0.0120614 0.00524835 0)
(0.0132466 0.00423517 0)
(0.0140952 0.00337475 0)
(0.0146941 0.00265741 0)
(0.0151082 0.00206375 0)
(0.0153846 0.00157286 0)
(0.0155578 0.00116578 0)
(0.0156526 0.000826572 0)
(0.0156875 0.000542407 0)
(0.0156764 0.000303124 0)
(0.01563 0.000100753 0)
(0.015557 -6.98882e-05 0)
(0.0154639 -0.000213754 0)
(0.0153556 -0.000336527 0)
(0.00165663 0.00714833 0)
(0.00475194 0.00664409 0)
(0.00736319 0.00587174 0)
(0.00945272 0.00500703 0)
(0.0110682 0.00416515 0)
(0.0122896 0.00340437 0)
(0.0131984 0.00274491 0)
(0.013865 0.00218611 0)
(0.0143457 0.00171784 0)
(0.0146839 0.001327 0)
(0.0149125 0.00100069 0)
(0.0150567 0.000727488 0)
(0.0151354 0.000497886 0)
(0.0151633 0.000304138 0)
(0.0151516 0.000140035 0)
(0.0151094 8.17812e-07 0)
(0.0150442 -0.000116137 0)
(0.0149616 -0.000215856 0)
(0.0015006 0.00532966 0)
(0.00432615 0.00498569 0)
(0.00675723 0.00444682 0)
(0.00875167 0.00383007 0)
(0.0103348 0.00321735 0)
(0.011563 0.00265392 0)
(0.0125 0.00215838 0)
(0.0132044 0.00173352 0)
(0.0137257 0.00137418 0)
(0.0141037 0.0010721 0)
(0.0143697 0.000818524 0)
(0.0145482 0.000605377 0)
(0.0146581 0.000425719 0)
(0.0147144 0.00027379 0)
(0.0147286 0.000144902 0)
(0.0147099 3.52627e-05 0)
(0.0146661 -5.72137e-05 0)
(0.0146032 -0.000135711 0)
(0.00138992 0.00388003 0)
(0.00402028 0.0036452 0)
(0.00631271 0.00327144 0)
(0.00822454 0.00283722 0)
(0.00976891 0.00239986 0)
(0.0109881 0.00199279 0)
(0.011934 0.00163109 0)
(0.0126569 0.00131836 0)
(0.0132013 0.00105204 0)
(0.0136037 0.000826955 0)
(0.013894 0.000637207 0)
(0.0140958 0.000477188 0)
(0.0142276 0.000341968 0)
(0.0143043 0.000227388 0)
(0.0143375 0.000130024 0)
(0.0143365 4.70719e-05 0)
(0.0143091 -2.32994e-05 0)
(0.0142613 -8.26883e-05 0)
(0.00130596 0.00270268 0)
(0.00378571 0.00254656 0)
(0.00596539 0.00229521 0)
(0.0078032 0.00200021 0)
(0.00930545 0.00170027 0)
(0.0105055 0.00141876 0)
(0.0114475 0.00116684 0)
(0.0121758 0.000947697 0)
(0.0127309 0.000760154 0)
(0.0131468 0.000600998 0)
(0.0134518 0.000466386 0)
(0.0136686 0.000352559 0)
(0.0138154 0.00025616 0)
(0.0139065 0.000174326 0)
(0.0139536 0.000104677 0)
(0.0139659 4.52559e-05 0)
(0.013951 -5.41493e-06 0)
(0.013915 -4.7949e-05 0)
(0.00123624 0.00173565 0)
(0.00358887 0.00163873 0)
(0.00566865 0.00148137 0)
(0.00743515 0.00129539 0)
(0.00889079 0.00110508 0)
(0.0100632 0.000925454 0)
(0.0109911 0.000763895 0)
(0.0117145 0.000622756 0)
(0.0122707 0.000501526 0)
(0.0126916 0.000398326 0)
(0.0130039 0.00031081 0)
(0.0132294 0.000236642 0)
(0.0133856 0.000173709 0)
(0.0134866 0.000120194 0)
(0.0135437 7.45766e-05 0)
(0.0135659 3.56043e-05 0)
(0.0135607 2.25284e-06 0)
(0.013534 -2.56522e-05 0)
(0.00116905 0.000938399 0)
(0.0033972 0.000887253 0)
(0.00537452 0.000803691 0)
(0.00706236 0.000704465 0)
(0.00846089 0.000602498 0)
(0.00959388 0.00050588 0)
(0.0104958 0.000418681 0)
(0.0112034 0.000342271 0)
(0.011751 0.000276462 0)
(0.0121684 0.000220306 0)
(0.012481 0.000172584 0)
(0.0127092 0.000132063 0)
(0.0128699 9.76205e-05 0)
(0.0129765 6.82858e-05 0)
(0.01304 4.32432e-05 0)
(0.0130691 2.18169e-05 0)
(0.0130709 3.44524e-06 0)
(0.0130513 -1.1812e-05 0)
(0.0010748 0.000289099 0)
(0.00312523 0.000273566 0)
(0.00494904 0.000248089 0)
(0.0065103 0.000217755 0)
(0.00780796 0.000186507 0)
(0.00886249 0.000156834 0)
(0.00970443 0.000129999 0)
(0.0103668 0.000106441 0)
(0.0108805 8.6117e-05 0)
(0.011273 6.87475e-05 0)
(0.0115674 5.39656e-05 0)
(0.0117826 4.13977e-05 0)
(0.0119341 3.07018e-05 0)
(0.0120346 2.15813e-05 0)
(0.0120942 1.37865e-05 0)
(0.012121 7.10971e-06 0)
(0.0121218 1.37682e-06 0)
(0.0121025 -3.31479e-06 0)
(9.67649e-34 -2.22995e-33 -2.881e-59)
(2.9093e-33 -2.22383e-33 2.87079e-59)
(4.85862e-33 -2.21252e-33 0)
(6.81077e-33 -2.19626e-33 0)
(8.76107e-33 -2.1754e-33 0)
(1.07051e-32 -2.15041e-33 -2.7667e-59)
(1.26389e-32 -2.12173e-33 0)
(1.45585e-32 -2.08966e-33 0)
(1.64604e-32 -2.05433e-33 0)
(1.83409e-32 -2.01571e-33 0)
(2.0196e-32 -1.97367e-33 2.52707e-59)
(2.20217e-32 -1.92813e-33 0)
(2.38138e-32 -1.8791e-33 0)
(2.55681e-32 -1.82666e-33 0)
(2.72803e-32 -1.77098e-33 0)
(2.89463e-32 -1.71227e-33 2.17889e-59)
(3.05622e-32 -1.65079e-33 0)
(3.21242e-32 -1.58685e-33 0)
(3.36289e-32 -1.52082e-33 0)
(3.50732e-32 -1.45315e-33 0)
(3.64544e-32 -1.38438e-33 0)
(3.77706e-32 -1.31505e-33 0)
(3.90203e-32 -1.24575e-33 0)
(4.02026e-32 -1.17706e-33 1.47386e-59)
(4.13174e-32 -1.10955e-33 -1.38529e-59)
(4.23651e-32 -1.04375e-33 1.299e-59)
(4.33468e-32 -9.80107e-34 1.21559e-59)
(4.4264e-32 -9.1903e-34 0)
(4.51189e-32 -8.60832e-34 0)
(4.59138e-32 -8.05745e-34 -9.872e-60)
(4.66515e-32 -7.53918e-34 -9.19345e-60)
(4.73351e-32 -7.05425e-34 0)
(4.79675e-32 -6.60271e-34 0)
(4.85519e-32 -6.18406e-34 -7.41957e-60)
(4.90916e-32 -5.7973e-34 0)
(4.95895e-32 -5.44113e-34 0)
(5.00487e-32 -5.11398e-34 6.01885e-60)
(5.04721e-32 -4.81413e-34 0)
(5.08625e-32 -4.53979e-34 5.26713e-60)
(5.12223e-32 -4.28915e-34 9.87786e-60)
(5.15541e-32 -4.0604e-34 0)
(5.18601e-32 -3.85181e-34 0)
(5.21423e-32 -3.66173e-34 0)
(5.24027e-32 -3.4886e-34 0)
(5.26432e-32 -3.33094e-34 0)
(5.28653e-32 -3.1874e-34 6.99112e-60)
(5.30706e-32 -3.05672e-34 6.64848e-60)
(5.32605e-32 -2.93774e-34 6.33644e-60)
(5.34362e-32 -2.82939e-34 0)
(5.35988e-32 -2.73071e-34 -5.7933e-60)
(5.37496e-32 -2.6408e-34 0)
(5.38894e-32 -2.55885e-34 5.34219e-60)
(5.40192e-32 -2.48412e-34 5.14594e-60)
(5.41397e-32 -2.41595e-34 0)
(5.42518e-32 -2.35371e-34 0)
(5.4356e-32 -2.29685e-34 0)
(5.44531e-32 -2.24488e-34 4.51728e-60)
(5.45435e-32 -2.19733e-34 0)
(5.46278e-32 -2.1538e-34 0)
(5.47065e-32 -2.1139e-34 0)
(5.478e-32 -2.07731e-34 0)
(5.48487e-32 -2.04372e-34 0)
(5.49129e-32 -2.01285e-34 0)
(5.49731e-32 -1.98446e-34 0)
(5.50294e-32 -1.95831e-34 0)
(5.50822e-32 -1.93421e-34 -3.69938e-60)
(5.51316e-32 -1.91198e-34 0)
(5.51781e-32 -1.89145e-34 0)
(5.52216e-32 -1.87246e-34 3.53647e-60)
(5.52626e-32 -1.8549e-34 3.49007e-60)
(5.5301e-32 -1.83862e-34 0)
(5.53372e-32 -1.82354e-34 -3.40727e-60)
(5.53711e-32 -1.80954e-34 3.37027e-60)
(5.54031e-32 -1.79653e-34 0)
(5.54332e-32 -1.78445e-34 -3.30394e-60)
(5.54615e-32 -1.7732e-34 0)
(5.54881e-32 -1.76274e-34 0)
(5.55132e-32 -1.75299e-34 3.22075e-60)
(5.55367e-32 -1.7439e-34 0)
(5.5559e-32 -1.73542e-34 -3.17426e-60)
(5.55799e-32 -1.72751e-34 0)
(5.55996e-32 -1.72013e-34 3.13375e-60)
(5.56181e-32 -1.71323e-34 3.11549e-60)
(5.56356e-32 -1.70678e-34 3.09841e-60)
(5.5652e-32 -1.70076e-34 6.16492e-60)
(5.56675e-32 -1.69513e-34 -6.13505e-60)
(5.5682e-32 -1.68986e-34 0)
(5.56958e-32 -1.68493e-34 0)
(5.57086e-32 -1.68032e-34 0)
(5.57208e-32 -1.67601e-34 -6.03373e-60)
(5.57322e-32 -1.67198e-34 -6.01232e-60)
(5.57429e-32 -1.6682e-34 5.9923e-60)
(5.5753e-32 -1.66467e-34 0)
(5.57625e-32 -1.66136e-34 -5.95604e-60)
(5.57714e-32 -1.65827e-34 -5.93961e-60)
(5.57797e-32 -1.65538e-34 -5.92426e-60)
(5.57876e-32 -1.65267e-34 0)
(5.57949e-32 -1.65014e-34 0)
(5.58019e-32 -1.64778e-34 0)
(5.58083e-32 -1.64557e-34 -5.87219e-60)
(5.58144e-32 -1.6435e-34 0)
(5.58201e-32 -1.64157e-34 0)
(5.58254e-32 -1.63977e-34 5.84142e-60)
(5.58304e-32 -1.63809e-34 0)
(5.58351e-32 -1.63651e-34 0)
(5.58395e-32 -1.63505e-34 5.81634e-60)
(5.58436e-32 -1.63368e-34 0)
(5.58474e-32 -1.63241e-34 0)
(5.58509e-32 -1.63122e-34 -5.796e-60)
(5.58543e-32 -1.63011e-34 -5.79012e-60)
(5.58574e-32 -1.62908e-34 0)
(5.58603e-32 -1.62812e-34 5.77953e-60)
(5.5863e-32 -1.62723e-34 0)
(5.58655e-32 -1.6264e-34 -5.77039e-60)
(5.58678e-32 -1.62563e-34 0)
(5.587e-32 -1.62491e-34 -5.76247e-60)
(5.5872e-32 -1.62424e-34 -5.75897e-60)
(5.58739e-32 -1.62363e-34 0)
(5.58757e-32 -1.62305e-34 0)
(5.58773e-32 -1.62252e-34 0)
(5.58788e-32 -1.62203e-34 0)
(5.58802e-32 -1.62158e-34 0)
(5.58815e-32 -1.62115e-34 0)
(5.58827e-32 -1.62076e-34 0)
(5.58838e-32 -1.6204e-34 -5.73852e-60)
(5.58848e-32 -1.62007e-34 5.73677e-60)
(5.58858e-32 -1.61976e-34 0)
(5.58866e-32 -1.61948e-34 0)
(5.58875e-32 -1.61921e-34 0)
(5.58882e-32 -1.61897e-34 0)
(5.58889e-32 -1.61874e-34 1.14594e-59)
(5.58895e-32 -1.61854e-34 0)
(5.58901e-32 -1.61834e-34 -1.14552e-59)
(5.58906e-32 -1.61816e-34 1.14533e-59)
(5.58911e-32 -1.618e-34 0)
(5.58915e-32 -1.61784e-34 0)
(5.58919e-32 -1.6177e-34 0)
(5.58923e-32 -1.61756e-34 -1.14469e-59)
(5.58926e-32 -1.61743e-34 -1.14455e-59)
(5.58929e-32 -1.61731e-34 0)
(5.58931e-32 -1.61719e-34 -1.14429e-59)
(5.58934e-32 -1.61707e-34 -1.14417e-59)
(5.58935e-32 -1.61695e-34 1.14404e-59)
(5.58937e-32 -1.61683e-34 0)
(5.58938e-32 -1.6167e-34 0)
(5.58939e-32 -1.61657e-34 1.14365e-59)
(5.58939e-32 -1.61642e-34 0)
(5.58939e-32 -1.61626e-34 0)
(5.58938e-32 -1.61607e-34 0)
(5.58936e-32 -1.61585e-34 0)
(5.58934e-32 -1.6156e-34 -1.14265e-59)
(5.5893e-32 -1.61529e-34 -1.14233e-59)
(5.58926e-32 -1.61492e-34 0)
(5.5892e-32 -1.61447e-34 -1.1415e-59)
(5.58912e-32 -1.61392e-34 0)
(5.58902e-32 -1.61324e-34 0)
(5.58889e-32 -1.6124e-34 -1.13938e-59)
(5.58872e-32 -1.61135e-34 0)
(5.58851e-32 -1.61003e-34 -1.13697e-59)
(5.58824e-32 -1.60838e-34 0)
(5.58791e-32 -1.6063e-34 0)
(5.58748e-32 -1.60368e-34 -1.1305e-59)
(5.58693e-32 -1.60035e-34 0)
(5.58623e-32 -1.59612e-34 -1.1228e-59)
(5.58534e-32 -1.59072e-34 0)
(5.5842e-32 -1.5838e-34 0)
(5.58274e-32 -1.57488e-34 0)
(5.58086e-32 -1.56335e-34 1.08942e-59)
(5.57842e-32 -1.54831e-34 0)
(5.57526e-32 -1.52856e-34 -1.05398e-59)
(5.57112e-32 -1.50234e-34 0)
(5.56568e-32 -1.46709e-34 0)
(5.55844e-32 -1.41888e-34 0)
(5.54869e-32 -1.35141e-34 0)
(5.53533e-32 -1.25395e-34 0)
(5.51658e-32 -1.10657e-34 0)
(5.48926e-32 -8.67615e-35 0)
(5.44693e-32 -4.33809e-35 -1.31689e-60)
(5.37331e-32 5.25988e-35 0)
(5.21017e-32 3.53553e-34 0)
(9.78766e-34 -6.39034e-33 8.25583e-59)
(2.94237e-33 -6.37117e-33 -8.22411e-59)
(4.91272e-33 -6.33577e-33 0)
(6.88435e-33 -6.28489e-33 1.62135e-58)
(8.8521e-33 -6.21991e-33 0)
(1.08115e-32 -6.1427e-33 -7.92648e-59)
(1.27588e-32 -6.05501e-33 -1.55916e-58)
(1.46909e-32 -5.958e-33 -1.53317e-58)
(1.66048e-32 -5.85189e-33 0)
(1.84975e-32 -5.73619e-33 -1.47403e-58)
(2.03649e-32 -5.61012e-33 7.22687e-59)
(2.2203e-32 -5.47322e-33 0)
(2.40071e-32 -5.32547e-33 0)
(2.57726e-32 -5.16727e-33 0)
(2.74951e-32 -4.99923e-33 0)
(2.91704e-32 -4.82199e-33 6.19784e-59)
(3.07944e-32 -4.63626e-33 0)
(3.2363e-32 -4.44294e-33 1.13319e-58)
(3.38727e-32 -4.24317e-33 0)
(3.53201e-32 -4.03836e-33 0)
(3.67025e-32 -3.83014e-33 -9.72735e-59)
(3.80177e-32 -3.62025e-33 0)
(3.92643e-32 -3.41053e-33 8.6306e-59)
(4.04416e-32 -3.20279e-33 4.09176e-59)
(4.15495e-32 -2.99877e-33 -3.82677e-59)
(4.25887e-32 -2.80009e-33 3.56875e-59)
(4.35605e-32 -2.60817e-33 3.31956e-59)
(4.44667e-32 -2.42422e-33 0)
(4.53099e-32 -2.24917e-33 0)
(4.60926e-32 -2.08371e-33 -2.63872e-59)
(4.68179e-32 -1.92825e-33 -7.20029e-59)
(4.74891e-32 -1.78299e-33 0)
(4.81094e-32 -1.64789e-33 0)
(4.86822e-32 -1.52277e-33 -1.91067e-59)
(4.92108e-32 -1.40729e-33 0)
(4.96982e-32 -1.30104e-33 0)
(5.01477e-32 -1.2035e-33 1.49629e-59)
(5.0562e-32 -1.11416e-33 0)
(5.0944e-32 -1.03245e-33 3.70255e-59)
(5.12961e-32 -9.57827e-34 2.35482e-59)
(5.16208e-32 -8.89738e-34 0)
(5.19204e-32 -8.27661e-34 0)
(5.21968e-32 -7.71097e-34 -3.49354e-59)
(5.2452e-32 -7.19578e-34 -3.22478e-59)
(5.26876e-32 -6.72664e-34 -2.98002e-59)
(5.29054e-32 -6.2995e-34 4.26061e-59)
(5.31068e-32 -5.9106e-34 1.40247e-59)
(5.32932e-32 -5.55648e-34 -1.05885e-59)
(5.34657e-32 -5.23399e-34 2.20099e-59)
(5.36255e-32 -4.94023e-34 -1.15041e-59)
(5.37737e-32 -4.67254e-34 0)
(5.39112e-32 -4.42853e-34 1.01747e-59)
(5.40389e-32 -4.20598e-34 2.62374e-59)
(5.41576e-32 -4.00291e-34 0)
(5.42679e-32 -3.81749e-34 0)
(5.43706e-32 -3.64809e-34 0)
(5.44663e-32 -3.4932e-34 7.74382e-60)
(5.45555e-32 -3.35148e-34 0)
(5.46387e-32 -3.22171e-34 1.14959e-59)
(5.47164e-32 -3.10276e-34 0)
(5.4789e-32 -2.99364e-34 1.03026e-59)
(5.48569e-32 -2.89344e-34 0)
(5.49204e-32 -2.80135e-34 -9.2961e-60)
(5.49799e-32 -2.71662e-34 0)
(5.50356e-32 -2.6386e-34 8.44377e-60)
(5.50879e-32 -2.56666e-34 -1.34011e-59)
(5.51369e-32 -2.50028e-34 0)
(5.51829e-32 -2.43897e-34 -7.39786e-60)
(5.5226e-32 -2.38227e-34 4.85418e-60)
(5.52666e-32 -2.32979e-34 4.71755e-60)
(5.53047e-32 -2.28118e-34 0)
(5.53406e-32 -2.2361e-34 -1.08078e-59)
(5.53743e-32 -2.19426e-34 4.36467e-60)
(5.5406e-32 -2.15539e-34 0)
(5.54358e-32 -2.11926e-34 -4.16935e-60)
(5.54639e-32 -2.08565e-34 -5.54467e-60)
(5.54904e-32 -2.05435e-34 0)
(5.55152e-32 -2.02519e-34 3.92432e-60)
(5.55387e-32 -1.99801e-34 0)
(5.55608e-32 -1.97265e-34 1.1639e-60)
(5.55815e-32 -1.94898e-34 0)
(5.56011e-32 -1.92689e-34 -1.04277e-60)
(5.56195e-32 -1.90625e-34 3.6144e-60)
(5.56369e-32 -1.88696e-34 8.06529e-60)
(5.56532e-32 -1.86893e-34 1.58471e-59)
(5.56686e-32 -1.85208e-34 -1.5582e-59)
(5.56831e-32 -1.83631e-34 0)
(5.56967e-32 -1.82156e-34 0)
(5.57095e-32 -1.80776e-34 0)
(5.57216e-32 -1.79486e-34 1.38587e-60)
(5.5733e-32 -1.78278e-34 -6.58511e-60)
(5.57436e-32 -1.77147e-34 6.52618e-60)
(5.57537e-32 -1.7609e-34 0)
(5.57631e-32 -1.751e-34 -1.39922e-59)
(5.57719e-32 -1.74175e-34 -6.37113e-60)
(5.57803e-32 -1.73308e-34 -6.32596e-60)
(5.57881e-32 -1.72498e-34 0)
(5.57954e-32 -1.71741e-34 0)
(5.58023e-32 -1.71033e-34 0)
(5.58087e-32 -1.7037e-34 -6.17272e-60)
(5.58148e-32 -1.69752e-34 0)
(5.58204e-32 -1.69173e-34 -6.94909e-60)
(5.58257e-32 -1.68633e-34 -8.10093e-61)
(5.58307e-32 -1.68129e-34 6.83913e-60)
(5.58354e-32 -1.67659e-34 0)
(5.58397e-32 -1.67219e-34 1.27518e-59)
(5.58438e-32 -1.6681e-34 0)
(5.58476e-32 -1.66428e-34 6.66005e-60)
(5.58511e-32 -1.66072e-34 -1.25711e-59)
(5.58544e-32 -1.65741e-34 -1.25189e-59)
(5.58575e-32 -1.65432e-34 0)
(5.58604e-32 -1.65144e-34 -6.24817e-61)
(5.58631e-32 -1.64877e-34 6.4968e-60)
(5.58656e-32 -1.64628e-34 -5.8732e-60)
(5.58679e-32 -1.64397e-34 0)
(5.58701e-32 -1.64183e-34 -5.84993e-60)
(5.58721e-32 -1.63983e-34 5.63092e-61)
(5.5874e-32 -1.63799e-34 0)
(5.58758e-32 -1.63627e-34 6.36514e-60)
(5.58774e-32 -1.63468e-34 6.34837e-60)
(5.58789e-32 -1.63321e-34 6.33284e-60)
(5.58803e-32 -1.63184e-34 0)
(5.58815e-32 -1.63058e-34 0)
(5.58827e-32 -1.62941e-34 0)
(5.58838e-32 -1.62833e-34 -1.20609e-59)
(5.58849e-32 -1.62733e-34 5.77429e-60)
(5.58858e-32 -1.6264e-34 0)
(5.58867e-32 -1.62555e-34 -6.25221e-60)
(5.58875e-32 -1.62476e-34 -6.24388e-60)
(5.58882e-32 -1.62403e-34 0)
(5.58889e-32 -1.62336e-34 1.15071e-59)
(5.58895e-32 -1.62273e-34 -1.24451e-59)
(5.58901e-32 -1.62215e-34 -1.14946e-59)
(5.58906e-32 -1.62162e-34 2.39107e-59)
(5.58911e-32 -1.62112e-34 0)
(5.58916e-32 -1.62066e-34 0)
(5.58919e-32 -1.62022e-34 0)
(5.58923e-32 -1.61981e-34 -1.14701e-59)
(5.58926e-32 -1.61943e-34 -2.38417e-59)
(5.58929e-32 -1.61905e-34 -1.23678e-59)
(5.58932e-32 -1.61869e-34 -1.14585e-59)
(5.58934e-32 -1.61834e-34 -2.38077e-59)
(5.58936e-32 -1.61798e-34 1.14511e-59)
(5.58937e-32 -1.61762e-34 0)
(5.58938e-32 -1.61724e-34 0)
(5.58939e-32 -1.61684e-34 2.37609e-59)
(5.58939e-32 -1.6164e-34 0)
(5.58939e-32 -1.61591e-34 0)
(5.58938e-32 -1.61535e-34 -1.22908e-59)
(5.58936e-32 -1.6147e-34 0)
(5.58934e-32 -1.61394e-34 -2.36711e-59)
(5.58931e-32 -1.61303e-34 -1.13999e-59)
(5.58926e-32 -1.61193e-34 0)
(5.5892e-32 -1.61058e-34 -2.35677e-59)
(5.58912e-32 -1.60894e-34 0)
(5.58902e-32 -1.60691e-34 0)
(5.5889e-32 -1.60439e-34 -1.1311e-59)
(5.58873e-32 -1.60125e-34 -1.20017e-59)
(5.58853e-32 -1.59733e-34 -1.12383e-59)
(5.58827e-32 -1.5924e-34 0)
(5.58793e-32 -1.58619e-34 0)
(5.58751e-32 -1.57836e-34 -2.2576e-59)
(5.58697e-32 -1.56842e-34 0)
(5.58628e-32 -1.5558e-34 -2.1882e-59)
(5.58541e-32 -1.53968e-34 0)
(5.58428e-32 -1.51903e-34 0)
(5.58285e-32 -1.49245e-34 0)
(5.58099e-32 -1.45804e-34 9.80524e-60)
(5.5786e-32 -1.41321e-34 0)
(5.57549e-32 -1.35435e-34 -8.7383e-60)
(5.57143e-32 -1.27627e-34 0)
(5.56608e-32 -1.17138e-34 0)
(5.55899e-32 -1.0281e-34 -2.61593e-61)
(5.54947e-32 -8.27989e-35 -3.84062e-60)
(5.53648e-32 -5.39811e-35 0)
(5.51838e-32 -1.06322e-35 0)
(5.49236e-32 5.89293e-35 0)
(5.45326e-32 1.82349e-34 6.86081e-59)
(5.39114e-32 4.39802e-34 0)
(5.29314e-32 1.13335e-33 -5.08733e-58)
(1.00261e-33 -1.06255e-32 5.49204e-58)
(3.01322e-33 -1.05906e-32 -7.1709e-62)
(5.02835e-33 -1.0526e-32 0)
(7.04076e-33 -1.0433e-32 1.66788e-61)
(9.04369e-33 -1.03147e-32 0)
(1.10321e-32 -1.01766e-32 0)
(1.30035e-32 -1.00242e-32 -5.16705e-58)
(1.49574e-32 -9.86047e-33 -2.54181e-58)
(1.68935e-32 -9.68482e-33 2.49149e-58)
(1.88101e-32 -9.49416e-33 -2.4453e-58)
(2.07033e-32 -9.28509e-33 0)
(2.25673e-32 -9.05592e-33 0)
(2.43964e-32 -8.80708e-33 -2.25929e-58)
(2.61851e-32 -8.54013e-33 -4.37803e-58)
(2.79288e-32 -8.25662e-33 4.229e-58)
(2.96231e-32 -7.9576e-33 0)
(3.12639e-32 -7.64389e-33 3.9075e-58)
(3.28466e-32 -7.31671e-33 1.87581e-58)
(3.43668e-32 -6.97801e-33 0)
(3.58208e-32 -6.63036e-33 3.37706e-58)
(3.72055e-32 -6.27674e-33 -1.60493e-58)
(3.85186e-32 -5.92039e-33 -3.0062e-58)
(3.97587e-32 -5.56459e-33 1.41964e-58)
(4.09252e-32 -5.21257e-33 0)
(4.20185e-32 -4.86744e-33 2.45688e-58)
(4.30398e-32 -4.53202e-33 2.28202e-58)
(4.39908e-32 -4.20881e-33 0)
(4.48742e-32 -3.89984e-33 1.95259e-58)
(4.5693e-32 -3.60665e-33 0)
(4.64505e-32 -3.33032e-33 1.65593e-58)
(4.71504e-32 -3.07143e-33 -7.7168e-59)
(4.77963e-32 -2.83015e-33 0)
(4.83921e-32 -2.60632e-33 0)
(4.89413e-32 -2.39946e-33 0)
(4.94474e-32 -2.20891e-33 0)
(4.99138e-32 -2.03386e-33 0)
(5.03437e-32 -1.8734e-33 0)
(5.07399e-32 -1.72657e-33 8.20737e-59)
(5.11051e-32 -1.5924e-33 -3.63362e-59)
(5.1442e-32 -1.46994e-33 0)
(5.17528e-32 -1.35825e-33 0)
(5.20396e-32 -1.25645e-33 0)
(5.23045e-32 -1.16371e-33 -1.07975e-58)
(5.25492e-32 -1.07924e-33 -5.08326e-59)
(5.27755e-32 -1.00232e-33 -2.4921e-60)
(5.29847e-32 -9.32283e-34 2.50195e-60)
(5.31784e-32 -8.68507e-34 -3.73676e-59)
(5.33578e-32 -8.10425e-34 -3.6859e-59)
(5.35241e-32 -7.57519e-34 6.56888e-59)
(5.36783e-32 -7.09313e-34 2.90667e-59)
(5.38214e-32 -6.65375e-34 0)
(5.39543e-32 -6.25311e-34 2.46848e-59)
(5.40779e-32 -5.88761e-34 4.81089e-59)
(5.41928e-32 -5.55399e-34 0)
(5.42999e-32 -5.24927e-34 0)
(5.43996e-32 -4.97078e-34 -1.79922e-59)
(5.44926e-32 -4.71607e-34 0)
(5.45793e-32 -4.48292e-34 0)
(5.46604e-32 -4.26934e-34 4.55678e-59)
(5.47361e-32 -4.07351e-34 2.66117e-59)
(5.48069e-32 -3.8938e-34 1.49546e-59)
(5.48732e-32 -3.72872e-34 0)
(5.49353e-32 -3.57693e-34 -1.33043e-59)
(5.49935e-32 -3.43723e-34 0)
(5.5048e-32 -3.30853e-34 3.05196e-59)
(5.50992e-32 -3.18983e-34 -1.12876e-59)
(5.51472e-32 -3.08026e-34 -1.62252e-59)
(5.51924e-32 -2.97901e-34 -2.53545e-59)
(5.52348e-32 -2.88536e-34 0)
(5.52746e-32 -2.79865e-34 1.32773e-59)
(5.53121e-32 -2.71829e-34 0)
(5.53473e-32 -2.64375e-34 3.21416e-60)
(5.53805e-32 -2.57454e-34 1.09301e-59)
(5.54117e-32 -2.51024e-34 1.02565e-59)
(5.54411e-32 -2.45044e-34 -9.62981e-60)
(5.54688e-32 -2.3948e-34 1.90415e-60)
(5.54949e-32 -2.34297e-34 0)
(5.55194e-32 -2.29468e-34 0)
(5.55425e-32 -2.24964e-34 -7.52493e-60)
(5.55643e-32 -2.20763e-34 -9.18483e-61)
(5.55848e-32 -2.16841e-34 0)
(5.56042e-32 -2.13178e-34 -5.76992e-60)
(5.56224e-32 -2.09756e-34 0)
(5.56395e-32 -2.06558e-34 -1.69889e-61)
(5.56557e-32 -2.03568e-34 1.5817e-59)
(5.56709e-32 -2.00771e-34 -1.52315e-59)
(5.56852e-32 -1.98156e-34 4.71257e-60)
(5.56987e-32 -1.95709e-34 0)
(5.57113e-32 -1.9342e-34 -4.21538e-60)
(5.57233e-32 -1.91277e-34 1.32434e-59)
(5.57345e-32 -1.89272e-34 0)
(5.57451e-32 -1.87396e-34 0)