/*--------------------------------*- C++ -*----------------------------------*\
  =========                 |
  \\      /  F ield         | OpenFOAM: The Open Source CFD Toolbox
   \\    /   O peration     | Website:  https://openfoam.org
    \\  /    A nd           | Version:  10
     \\/     M anipulation  |
\*---------------------------------------------------------------------------*/
FoamFile
{
    format      ascii;
    class       volScalarField;
    location    "2.3";
    object      p;
}
// * * * * * * * * * * * * * * * * * * * * * * * * * * * * * * * * * * * * * //

dimensions      [1 -1 -2 0 0 0 0];

internalField   nonuniform List<scalar> 
12225
(
1.06255e+07
1.06256e+07
1.06256e+07
1.06258e+07
1.0626e+07
1.06263e+07
1.06267e+07
1.06274e+07
1.06284e+07
1.06297e+07
1.06315e+07
1.0634e+07
1.06372e+07
1.06414e+07
1.06466e+07
1.06532e+07
1.06616e+07
1.06726e+07
1.06255e+07
1.06256e+07
1.06256e+07
1.06258e+07
1.0626e+07
1.06263e+07
1.06267e+07
1.06274e+07
1.06283e+07
1.06297e+07
1.06315e+07
1.06339e+07
1.06371e+07
1.06412e+07
1.06464e+07
1.06529e+07
1.06611e+07
1.06715e+07
1.06255e+07
1.06256e+07
1.06256e+07
1.06257e+07
1.06259e+07
1.06262e+07
1.06267e+07
1.06273e+07
1.06282e+07
1.06295e+07
1.06313e+07
1.06337e+07
1.06368e+07
1.06408e+07
1.06459e+07
1.06523e+07
1.06602e+07
1.06696e+07
1.06255e+07
1.06255e+07
1.06256e+07
1.06257e+07
1.06259e+07
1.06262e+07
1.06266e+07
1.06272e+07
1.06281e+07
1.06294e+07
1.06311e+07
1.06334e+07
1.06364e+07
1.06403e+07
1.06452e+07
1.06513e+07
1.06587e+07
1.06673e+07
1.06255e+07
1.06255e+07
1.06256e+07
1.06257e+07
1.06259e+07
1.06261e+07
1.06265e+07
1.06271e+07
1.06279e+07
1.06291e+07
1.06307e+07
1.06329e+07
1.06357e+07
1.06394e+07
1.06441e+07
1.06499e+07
1.06568e+07
1.06646e+07
1.06255e+07
1.06255e+07
1.06256e+07
1.06257e+07
1.06258e+07
1.0626e+07
1.06264e+07
1.06269e+07
1.06277e+07
1.06287e+07
1.06302e+07
1.06322e+07
1.06348e+07
1.06383e+07
1.06426e+07
1.0648e+07
1.06544e+07
1.06616e+07
1.06255e+07
1.06255e+07
1.06255e+07
1.06256e+07
1.06257e+07
1.06259e+07
1.06262e+07
1.06267e+07
1.06274e+07
1.06283e+07
1.06296e+07
1.06313e+07
1.06337e+07
1.06368e+07
1.06407e+07
1.06456e+07
1.06515e+07
1.06581e+07
1.06254e+07
1.06255e+07
1.06255e+07
1.06256e+07
1.06257e+07
1.06258e+07
1.06261e+07
1.06264e+07
1.06269e+07
1.06277e+07
1.06288e+07
1.06302e+07
1.06322e+07
1.06349e+07
1.06384e+07
1.06427e+07
1.0648e+07
1.06541e+07
1.06254e+07
1.06254e+07
1.06255e+07
1.06255e+07
1.06256e+07
1.06257e+07
1.06258e+07
1.06261e+07
1.06265e+07
1.0627e+07
1.06278e+07
1.06289e+07
1.06304e+07
1.06326e+07
1.06354e+07
1.06392e+07
1.06439e+07
1.06494e+07
1.06254e+07
1.06254e+07
1.06254e+07
1.06254e+07
1.06254e+07
1.06255e+07
1.06256e+07
1.06257e+07
1.06259e+07
1.06262e+07
1.06266e+07
1.06273e+07
1.06283e+07
1.06298e+07
1.06319e+07
1.06349e+07
1.06389e+07
1.0644e+07
1.06254e+07
1.06254e+07
1.06254e+07
1.06253e+07
1.06253e+07
1.06253e+07
1.06253e+07
1.06252e+07
1.06252e+07
1.06252e+07
1.06253e+07
1.06255e+07
1.06258e+07
1.06265e+07
1.06277e+07
1.06297e+07
1.06329e+07
1.06374e+07
1.06253e+07
1.06253e+07
1.06253e+07
1.06253e+07
1.06252e+07
1.06251e+07
1.0625e+07
1.06248e+07
1.06246e+07
1.06243e+07
1.0624e+07
1.06236e+07
1.06232e+07
1.0623e+07
1.06232e+07
1.0624e+07
1.06261e+07
1.06299e+07
1.06253e+07
1.06253e+07
1.06252e+07
1.06252e+07
1.06251e+07
1.06249e+07
1.06247e+07
1.06244e+07
1.06239e+07
1.06233e+07
1.06226e+07
1.06216e+07
1.06205e+07
1.06192e+07
1.0618e+07
1.06174e+07
1.0618e+07
1.06208e+07
1.06253e+07
1.06253e+07
1.06252e+07
1.06251e+07
1.06249e+07
1.06247e+07
1.06244e+07
1.06239e+07
1.06232e+07
1.06223e+07
1.0621e+07
1.06193e+07
1.06172e+07
1.06145e+07
1.06115e+07
1.06084e+07
1.06063e+07
1.06069e+07
1.06253e+07
1.06252e+07
1.06251e+07
1.0625e+07
1.06248e+07
1.06245e+07
1.06241e+07
1.06234e+07
1.06225e+07
1.06212e+07
1.06194e+07
1.0617e+07
1.06136e+07
1.06092e+07
1.06036e+07
1.05966e+07
1.0589e+07
1.05834e+07
1.06252e+07
1.06252e+07
1.06251e+07
1.0625e+07
1.06247e+07
1.06244e+07
1.06239e+07
1.06231e+07
1.0622e+07
1.06205e+07
1.06183e+07
1.06153e+07
1.0611e+07
1.06049e+07
1.05962e+07
1.05836e+07
1.05646e+07
1.05344e+07
2.16273e+07
2.1538e+07
2.14702e+07
2.14111e+07
2.1356e+07
2.13027e+07
2.12502e+07
2.11981e+07
2.11459e+07
2.10935e+07
2.10404e+07
2.09864e+07
2.09311e+07
2.0874e+07
2.08145e+07
2.07519e+07
2.06849e+07
2.0612e+07
2.15638e+07
2.15169e+07
2.14626e+07
2.14087e+07
2.13562e+07
2.13053e+07
2.12554e+07
2.1206e+07
2.11568e+07
2.11079e+07
2.10591e+07
2.10104e+07
2.0962e+07
2.0914e+07
2.08671e+07
2.08221e+07
2.07808e+07
2.07461e+07
2.14905e+07
2.14663e+07
2.14303e+07
2.13889e+07
2.13453e+07
2.13009e+07
2.12563e+07
2.12118e+07
2.11677e+07
2.11242e+07
2.10815e+07
2.10398e+07
2.09996e+07
2.09611e+07
2.09251e+07
2.08921e+07
2.08628e+07
2.0838e+07
2.14418e+07
2.14259e+07
2.13996e+07
2.13669e+07
2.13307e+07
2.12925e+07
2.12534e+07
2.1214e+07
2.11749e+07
2.11364e+07
2.10988e+07
2.10626e+07
2.10281e+07
2.09955e+07
2.09653e+07
2.09378e+07
2.09131e+07
2.08916e+07
2.14118e+07
2.13995e+07
2.13781e+07
2.13506e+07
2.13191e+07
2.12851e+07
2.12499e+07
2.12142e+07
2.11786e+07
2.11436e+07
2.11096e+07
2.10768e+07
2.10457e+07
2.10165e+07
2.09894e+07
2.09646e+07
2.09421e+07
2.09221e+07
2.1391e+07
2.13807e+07
2.13623e+07
2.1338e+07
2.13098e+07
2.12789e+07
2.12466e+07
2.12137e+07
2.11808e+07
2.11483e+07
2.11167e+07
2.10864e+07
2.10576e+07
2.10306e+07
2.10054e+07
2.09822e+07
2.09611e+07
2.0942e+07
2.13765e+07
2.13673e+07
2.13508e+07
2.13287e+07
2.13027e+07
2.1274e+07
2.12438e+07
2.12129e+07
2.11819e+07
2.11512e+07
2.11215e+07
2.10928e+07
2.10656e+07
2.104e+07
2.10161e+07
2.0994e+07
2.09737e+07
2.09552e+07
2.13663e+07
2.13578e+07
2.13425e+07
2.13219e+07
2.12974e+07
2.12703e+07
2.12416e+07
2.12121e+07
2.11824e+07
2.11531e+07
2.11245e+07
2.10971e+07
2.10709e+07
2.10463e+07
2.10232e+07
2.10018e+07
2.09821e+07
2.09641e+07
2.13592e+07
2.13513e+07
2.13367e+07
2.13171e+07
2.12936e+07
2.12676e+07
2.12399e+07
2.12114e+07
2.11826e+07
2.11542e+07
2.11265e+07
2.10999e+07
2.10744e+07
2.10504e+07
2.1028e+07
2.10071e+07
2.09878e+07
2.097e+07
2.13544e+07
2.13468e+07
2.13328e+07
2.13138e+07
2.1291e+07
2.12657e+07
2.12387e+07
2.12108e+07
2.11827e+07
2.11549e+07
2.11278e+07
2.11016e+07
2.10767e+07
2.10532e+07
2.10311e+07
2.10105e+07
2.09914e+07
2.09739e+07
2.13513e+07
2.13439e+07
2.13302e+07
2.13116e+07
2.12893e+07
2.12644e+07
2.12378e+07
2.12104e+07
2.11827e+07
2.11553e+07
2.11286e+07
2.11028e+07
2.10782e+07
2.10549e+07
2.1033e+07
2.10127e+07
2.09938e+07
2.09763e+07
2.13494e+07
2.13421e+07
2.13286e+07
2.13102e+07
2.12882e+07
2.12636e+07
2.12373e+07
2.12101e+07
2.11827e+07
2.11555e+07
2.1129e+07
2.11034e+07
2.1079e+07
2.10559e+07
2.10342e+07
2.1014e+07
2.09952e+07
2.09778e+07
2.13484e+07
2.13411e+07
2.13277e+07
2.13095e+07
2.12876e+07
2.12631e+07
2.1237e+07
2.121e+07
2.11827e+07
2.11556e+07
2.11292e+07
2.11038e+07
2.10795e+07
2.10565e+07
2.10348e+07
2.10147e+07
2.09959e+07
2.09786e+07
2.1348e+07
2.13407e+07
2.13274e+07
2.13092e+07
2.12874e+07
2.12629e+07
2.12369e+07
2.12099e+07
2.11827e+07
2.11557e+07
2.11293e+07
2.11039e+07
2.10797e+07
2.10567e+07
2.10351e+07
2.1015e+07
2.09962e+07
2.09789e+07
1.0793e+07
1.0793e+07
1.07931e+07
1.07933e+07
1.07935e+07
1.07938e+07
1.07941e+07
1.07945e+07
1.07949e+07
1.07954e+07
1.07959e+07
1.07965e+07
1.07972e+07
1.07979e+07
1.07987e+07
1.07996e+07
1.08004e+07
1.08014e+07
1.08024e+07
1.08035e+07
1.08046e+07
1.08058e+07
1.0807e+07
1.08083e+07
1.08096e+07
1.0811e+07
1.08124e+07
1.08139e+07
1.08155e+07
1.0817e+07
1.08186e+07
1.08203e+07
1.0822e+07
1.08238e+07
1.08255e+07
1.08273e+07
1.08292e+07
1.08311e+07
1.0833e+07
1.08349e+07
1.08369e+07
1.08389e+07
1.08409e+07
1.0843e+07
1.08451e+07
1.08472e+07
1.08493e+07
1.08514e+07
1.08535e+07
1.08557e+07
1.08579e+07
1.086e+07
1.08622e+07
1.08644e+07
1.08666e+07
1.08689e+07
1.08711e+07
1.08733e+07
1.08755e+07
1.08777e+07
1.088e+07
1.08822e+07
1.08844e+07
1.08866e+07
1.08889e+07
1.08911e+07
1.08933e+07
1.08955e+07
1.08977e+07
1.08999e+07
1.09021e+07
1.09042e+07
1.09064e+07
1.09085e+07
1.09107e+07
1.09128e+07
1.09149e+07
1.0917e+07
1.09191e+07
1.09212e+07
1.09233e+07
1.09253e+07
1.09274e+07
1.09294e+07
1.09314e+07
1.09334e+07
1.09354e+07
1.09373e+07
1.09393e+07
1.09412e+07
1.09431e+07
1.0945e+07
1.09469e+07
1.09487e+07
1.09506e+07
1.09524e+07
1.09542e+07
1.0956e+07
1.09578e+07
1.09595e+07
1.09612e+07
1.09629e+07
1.09646e+07
1.09663e+07
1.0968e+07
1.09696e+07
1.09712e+07
1.09728e+07
1.09744e+07
1.09759e+07
1.09774e+07
1.0979e+07
1.09805e+07
1.09819e+07
1.09834e+07
1.09848e+07
1.09862e+07
1.09876e+07
1.0989e+07
1.09904e+07
1.09917e+07
1.09931e+07
1.09944e+07
1.09957e+07
1.0997e+07
1.09983e+07
1.09995e+07
1.10008e+07
1.1002e+07
1.10032e+07
1.10044e+07
1.10056e+07
1.10068e+07
1.1008e+07
1.10092e+07
1.10104e+07
1.10116e+07
1.10127e+07
1.10139e+07
1.10151e+07
1.10162e+07
1.10174e+07
1.10185e+07
1.10197e+07
1.10208e+07
1.1022e+07
1.10231e+07
1.10243e+07
1.10254e+07
1.10265e+07
1.10276e+07
1.10287e+07
1.10297e+07
1.10307e+07
1.10317e+07
1.10326e+07
1.10334e+07
1.10341e+07
1.10348e+07
1.10353e+07
1.10357e+07
1.10359e+07
1.10359e+07
1.10357e+07
1.10352e+07
1.10344e+07
1.10332e+07
1.10315e+07
1.10294e+07
1.10267e+07
1.10234e+07
1.10195e+07
1.10147e+07
1.10091e+07
1.10025e+07
1.0995e+07
1.09864e+07
1.09768e+07
1.09661e+07
1.09544e+07
1.07928e+07
1.07928e+07
1.07929e+07
1.07931e+07
1.07933e+07
1.07935e+07
1.07939e+07
1.07942e+07
1.07947e+07
1.07952e+07
1.07957e+07
1.07963e+07
1.0797e+07
1.07977e+07
1.07985e+07
1.07994e+07
1.08003e+07
1.08012e+07
1.08022e+07
1.08033e+07
1.08044e+07
1.08056e+07
1.08069e+07
1.08081e+07
1.08095e+07
1.08109e+07
1.08123e+07
1.08138e+07
1.08153e+07
1.08169e+07
1.08186e+07
1.08202e+07
1.08219e+07
1.08237e+07
1.08255e+07
1.08273e+07
1.08291e+07
1.0831e+07
1.0833e+07
1.08349e+07
1.08369e+07
1.08389e+07
1.08409e+07
1.0843e+07
1.0845e+07
1.08471e+07
1.08493e+07
1.08514e+07
1.08535e+07
1.08557e+07
1.08579e+07
1.086e+07
1.08622e+07
1.08644e+07
1.08666e+07
1.08689e+07
1.08711e+07
1.08733e+07
1.08755e+07
1.08778e+07
1.088e+07
1.08822e+07
1.08844e+07
1.08867e+07
1.08889e+07
1.08911e+07
1.08933e+07
1.08955e+07
1.08977e+07
1.08999e+07
1.09021e+07
1.09043e+07
1.09064e+07
1.09086e+07
1.09107e+07
1.09128e+07
1.0915e+07
1.09171e+07
1.09192e+07
1.09212e+07
1.09233e+07
1.09254e+07
1.09274e+07
1.09294e+07
1.09314e+07
1.09334e+07
1.09354e+07
1.09374e+07
1.09393e+07
1.09412e+07
1.09431e+07
1.0945e+07
1.09469e+07
1.09488e+07
1.09506e+07
1.09524e+07
1.09542e+07
1.0956e+07
1.09578e+07
1.09595e+07
1.09613e+07
1.0963e+07
1.09646e+07
1.09663e+07
1.0968e+07
1.09696e+07
1.09712e+07
1.09728e+07
1.09744e+07
1.09759e+07
1.09775e+07
1.0979e+07
1.09805e+07
1.09819e+07
1.09834e+07
1.09848e+07
1.09863e+07
1.09877e+07
1.0989e+07
1.09904e+07
1.09918e+07
1.09931e+07
1.09944e+07
1.09957e+07
1.0997e+07
1.09983e+07
1.09995e+07
1.10008e+07
1.1002e+07
1.10032e+07
1.10044e+07
1.10056e+07
1.10068e+07
1.1008e+07
1.10092e+07
1.10104e+07
1.10116e+07
1.10127e+07
1.10139e+07
1.10151e+07
1.10162e+07
1.10174e+07
1.10185e+07
1.10197e+07
1.10208e+07
1.1022e+07
1.10231e+07
1.10243e+07
1.10254e+07
1.10265e+07
1.10276e+07
1.10287e+07
1.10297e+07
1.10307e+07
1.10317e+07
1.10326e+07
1.10334e+07
1.10342e+07
1.10348e+07
1.10354e+07
1.10357e+07
1.1036e+07
1.1036e+07
1.10358e+07
1.10353e+07
1.10344e+07
1.10333e+07
1.10316e+07
1.10295e+07
1.10269e+07
1.10236e+07
1.10196e+07
1.10149e+07
1.10093e+07
1.10027e+07
1.09952e+07
1.09866e+07
1.0977e+07
1.09663e+07
1.09545e+07
1.07923e+07
1.07923e+07
1.07924e+07
1.07926e+07
1.07928e+07
1.07931e+07
1.07934e+07
1.07938e+07
1.07942e+07
1.07947e+07
1.07953e+07
1.07959e+07
1.07966e+07
1.07973e+07
1.07981e+07
1.0799e+07
1.07999e+07
1.08009e+07
1.08019e+07
1.0803e+07
1.08041e+07
1.08053e+07
1.08066e+07
1.08079e+07
1.08092e+07
1.08106e+07
1.08121e+07
1.08136e+07
1.08151e+07
1.08167e+07
1.08184e+07
1.08201e+07
1.08218e+07
1.08235e+07
1.08253e+07
1.08272e+07
1.0829e+07
1.08309e+07
1.08329e+07
1.08348e+07
1.08368e+07
1.08388e+07
1.08409e+07
1.08429e+07
1.0845e+07
1.08471e+07
1.08492e+07
1.08514e+07
1.08535e+07
1.08557e+07
1.08579e+07
1.08601e+07
1.08623e+07
1.08645e+07
1.08667e+07
1.08689e+07
1.08711e+07
1.08733e+07
1.08756e+07
1.08778e+07
1.088e+07
1.08823e+07
1.08845e+07
1.08867e+07
1.08889e+07
1.08912e+07
1.08934e+07
1.08956e+07
1.08978e+07
1.09e+07
1.09021e+07
1.09043e+07
1.09065e+07
1.09086e+07
1.09108e+07
1.09129e+07
1.0915e+07
1.09171e+07
1.09192e+07
1.09213e+07
1.09234e+07
1.09254e+07
1.09275e+07
1.09295e+07
1.09315e+07
1.09335e+07
1.09355e+07
1.09374e+07
1.09394e+07
1.09413e+07
1.09432e+07
1.09451e+07
1.0947e+07
1.09488e+07
1.09507e+07
1.09525e+07
1.09543e+07
1.09561e+07
1.09578e+07
1.09596e+07
1.09613e+07
1.0963e+07
1.09647e+07
1.09664e+07
1.0968e+07
1.09696e+07
1.09712e+07
1.09728e+07
1.09744e+07
1.0976e+07
1.09775e+07
1.0979e+07
1.09805e+07
1.0982e+07
1.09834e+07
1.09849e+07
1.09863e+07
1.09877e+07
1.09891e+07
1.09904e+07
1.09918e+07
1.09931e+07
1.09944e+07
1.09957e+07
1.0997e+07
1.09983e+07
1.09995e+07
1.10008e+07
1.1002e+07
1.10032e+07
1.10044e+07
1.10057e+07
1.10068e+07
1.1008e+07
1.10092e+07
1.10104e+07
1.10116e+07
1.10127e+07
1.10139e+07
1.10151e+07
1.10162e+07
1.10174e+07
1.10185e+07
1.10197e+07
1.10208e+07
1.1022e+07
1.10231e+07
1.10243e+07
1.10254e+07
1.10265e+07
1.10276e+07
1.10287e+07
1.10297e+07
1.10307e+07
1.10317e+07
1.10326e+07
1.10335e+07
1.10342e+07
1.10349e+07
1.10354e+07
1.10358e+07
1.10361e+07
1.10361e+07
1.10359e+07
1.10354e+07
1.10346e+07
1.10335e+07
1.10319e+07
1.10298e+07
1.10272e+07
1.10239e+07
1.10199e+07
1.10152e+07
1.10096e+07
1.10031e+07
1.09956e+07
1.09871e+07
1.09774e+07
1.09666e+07
1.09547e+07
1.07916e+07
1.07916e+07
1.07917e+07
1.07919e+07
1.07921e+07
1.07924e+07
1.07927e+07
1.07931e+07
1.07936e+07
1.07941e+07
1.07947e+07
1.07953e+07
1.0796e+07
1.07967e+07
1.07976e+07
1.07984e+07
1.07994e+07
1.08003e+07
1.08014e+07
1.08025e+07
1.08037e+07
1.08049e+07
1.08061e+07
1.08075e+07
1.08088e+07
1.08103e+07
1.08117e+07
1.08133e+07
1.08148e+07
1.08165e+07
1.08181e+07
1.08198e+07
1.08216e+07
1.08233e+07
1.08252e+07
1.0827e+07
1.08289e+07
1.08308e+07
1.08328e+07
1.08347e+07
1.08367e+07
1.08388e+07
1.08408e+07
1.08429e+07
1.0845e+07
1.08471e+07
1.08492e+07
1.08514e+07
1.08535e+07
1.08557e+07
1.08579e+07
1.08601e+07
1.08623e+07
1.08645e+07
1.08667e+07
1.0869e+07
1.08712e+07
1.08734e+07
1.08756e+07
1.08779e+07
1.08801e+07
1.08823e+07
1.08846e+07
1.08868e+07
1.0889e+07
1.08912e+07
1.08935e+07
1.08957e+07
1.08979e+07
1.09001e+07
1.09022e+07
1.09044e+07
1.09066e+07
1.09087e+07
1.09109e+07
1.0913e+07
1.09151e+07
1.09172e+07
1.09193e+07
1.09214e+07
1.09235e+07
1.09255e+07
1.09276e+07
1.09296e+07
1.09316e+07
1.09336e+07
1.09356e+07
1.09375e+07
1.09395e+07
1.09414e+07
1.09433e+07
1.09452e+07
1.0947e+07
1.09489e+07
1.09507e+07
1.09526e+07
1.09544e+07
1.09561e+07
1.09579e+07
1.09596e+07
1.09614e+07
1.09631e+07
1.09648e+07
1.09664e+07
1.09681e+07
1.09697e+07
1.09713e+07
1.09729e+07
1.09745e+07
1.0976e+07
1.09775e+07
1.09791e+07
1.09805e+07
1.0982e+07
1.09835e+07
1.09849e+07
1.09863e+07
1.09877e+07
1.09891e+07
1.09905e+07
1.09918e+07
1.09931e+07
1.09945e+07
1.09958e+07
1.0997e+07
1.09983e+07
1.09996e+07
1.10008e+07
1.1002e+07
1.10033e+07
1.10045e+07
1.10057e+07
1.10069e+07
1.1008e+07
1.10092e+07
1.10104e+07
1.10116e+07
1.10127e+07
1.10139e+07
1.10151e+07
1.10162e+07
1.10174e+07
1.10185e+07
1.10197e+07
1.10208e+07
1.1022e+07
1.10231e+07
1.10243e+07
1.10254e+07
1.10265e+07
1.10276e+07
1.10287e+07
1.10298e+07
1.10308e+07
1.10317e+07
1.10327e+07
1.10335e+07
1.10343e+07
1.1035e+07
1.10355e+07
1.1036e+07
1.10362e+07
1.10363e+07
1.10361e+07
1.10357e+07
1.10349e+07
1.10338e+07
1.10322e+07
1.10302e+07
1.10276e+07
1.10244e+07
1.10205e+07
1.10158e+07
1.10102e+07
1.10037e+07
1.09962e+07
1.09877e+07
1.0978e+07
1.09672e+07
1.09552e+07
1.07906e+07
1.07907e+07
1.07908e+07
1.0791e+07
1.07912e+07
1.07915e+07
1.07918e+07
1.07922e+07
1.07927e+07
1.07932e+07
1.07938e+07
1.07945e+07
1.07952e+07
1.07959e+07
1.07968e+07
1.07977e+07
1.07986e+07
1.07997e+07
1.08007e+07
1.08019e+07
1.0803e+07
1.08043e+07
1.08056e+07
1.08069e+07
1.08083e+07
1.08098e+07
1.08113e+07
1.08129e+07
1.08144e+07
1.08161e+07
1.08178e+07
1.08195e+07
1.08213e+07
1.08231e+07
1.08249e+07
1.08268e+07
1.08287e+07
1.08306e+07
1.08326e+07
1.08346e+07
1.08366e+07
1.08387e+07
1.08407e+07
1.08428e+07
1.08449e+07
1.08471e+07
1.08492e+07
1.08514e+07
1.08535e+07
1.08557e+07
1.08579e+07
1.08601e+07
1.08624e+07
1.08646e+07
1.08668e+07
1.0869e+07
1.08713e+07
1.08735e+07
1.08757e+07
1.0878e+07
1.08802e+07
1.08825e+07
1.08847e+07
1.08869e+07
1.08892e+07
1.08914e+07
1.08936e+07
1.08958e+07
1.0898e+07
1.09002e+07
1.09024e+07
1.09046e+07
1.09067e+07
1.09089e+07
1.0911e+07
1.09131e+07
1.09153e+07
1.09174e+07
1.09195e+07
1.09215e+07
1.09236e+07
1.09257e+07
1.09277e+07
1.09297e+07
1.09317e+07
1.09337e+07
1.09357e+07
1.09376e+07
1.09396e+07
1.09415e+07
1.09434e+07
1.09453e+07
1.09472e+07
1.0949e+07
1.09508e+07
1.09527e+07
1.09545e+07
1.09562e+07
1.0958e+07
1.09597e+07
1.09615e+07
1.09632e+07
1.09649e+07
1.09665e+07
1.09682e+07
1.09698e+07
1.09714e+07
1.0973e+07
1.09745e+07
1.09761e+07
1.09776e+07
1.09791e+07
1.09806e+07
1.09821e+07
1.09835e+07
1.0985e+07
1.09864e+07
1.09878e+07
1.09892e+07
1.09905e+07
1.09919e+07
1.09932e+07
1.09945e+07
1.09958e+07
1.09971e+07
1.09983e+07
1.09996e+07
1.10008e+07
1.10021e+07
1.10033e+07
1.10045e+07
1.10057e+07
1.10069e+07
1.10081e+07
1.10092e+07
1.10104e+07
1.10116e+07
1.10127e+07
1.10139e+07
1.10151e+07
1.10162e+07
1.10174e+07
1.10185e+07
1.10197e+07
1.10208e+07
1.1022e+07
1.10231e+07
1.10243e+07
1.10254e+07
1.10265e+07
1.10277e+07
1.10287e+07
1.10298e+07
1.10308e+07
1.10318e+07
1.10328e+07
1.10336e+07
1.10344e+07
1.10351e+07
1.10357e+07
1.10362e+07
1.10364e+07
1.10365e+07
1.10364e+07
1.1036e+07
1.10353e+07
1.10342e+07
1.10327e+07
1.10307e+07
1.10282e+07
1.1025e+07
1.10211e+07
1.10165e+07
1.1011e+07
1.10045e+07
1.09971e+07
1.09885e+07
1.09788e+07
1.0968e+07
1.09559e+07
1.07894e+07
1.07895e+07
1.07896e+07
1.07898e+07
1.079e+07
1.07903e+07
1.07907e+07
1.07911e+07
1.07916e+07
1.07921e+07
1.07927e+07
1.07934e+07
1.07942e+07
1.0795e+07
1.07958e+07
1.07967e+07
1.07977e+07
1.07988e+07
1.07999e+07
1.08011e+07
1.08023e+07
1.08036e+07
1.08049e+07
1.08063e+07
1.08077e+07
1.08092e+07
1.08107e+07
1.08123e+07
1.0814e+07
1.08156e+07
1.08174e+07
1.08191e+07
1.08209e+07
1.08227e+07
1.08246e+07
1.08265e+07
1.08285e+07
1.08304e+07
1.08324e+07
1.08344e+07
1.08365e+07
1.08386e+07
1.08407e+07
1.08428e+07
1.08449e+07
1.0847e+07
1.08492e+07
1.08514e+07
1.08536e+07
1.08558e+07
1.0858e+07
1.08602e+07
1.08624e+07
1.08647e+07
1.08669e+07
1.08691e+07
1.08714e+07
1.08736e+07
1.08759e+07
1.08781e+07
1.08804e+07
1.08826e+07
1.08849e+07
1.08871e+07
1.08893e+07
1.08915e+07
1.08938e+07
1.0896e+07
1.08982e+07
1.09004e+07
1.09026e+07
1.09047e+07
1.09069e+07
1.0909e+07
1.09112e+07
1.09133e+07
1.09154e+07
1.09175e+07
1.09196e+07
1.09217e+07
1.09238e+07
1.09258e+07
1.09279e+07
1.09299e+07
1.09319e+07
1.09339e+07
1.09358e+07
1.09378e+07
1.09397e+07
1.09417e+07
1.09436e+07
1.09454e+07
1.09473e+07
1.09492e+07
1.0951e+07
1.09528e+07
1.09546e+07
1.09564e+07
1.09581e+07
1.09599e+07
1.09616e+07
1.09633e+07
1.0965e+07
1.09666e+07
1.09683e+07
1.09699e+07
1.09715e+07
1.09731e+07
1.09747e+07
1.09762e+07
1.09777e+07
1.09792e+07
1.09807e+07
1.09822e+07
1.09836e+07
1.09851e+07
1.09865e+07
1.09879e+07
1.09892e+07
1.09906e+07
1.09919e+07
1.09933e+07
1.09946e+07
1.09959e+07
1.09971e+07
1.09984e+07
1.09996e+07
1.10009e+07
1.10021e+07
1.10033e+07
1.10045e+07
1.10057e+07
1.10069e+07
1.10081e+07
1.10093e+07
1.10104e+07
1.10116e+07
1.10128e+07
1.10139e+07
1.10151e+07
1.10162e+07
1.10174e+07
1.10186e+07
1.10197e+07
1.10209e+07
1.1022e+07
1.10232e+07
1.10243e+07
1.10254e+07
1.10266e+07
1.10277e+07
1.10288e+07
1.10299e+07
1.10309e+07
1.10319e+07
1.10329e+07
1.10338e+07
1.10346e+07
1.10353e+07
1.10359e+07
1.10364e+07
1.10367e+07
1.10368e+07
1.10367e+07
1.10364e+07
1.10357e+07
1.10347e+07
1.10333e+07
1.10313e+07
1.10289e+07
1.10258e+07
1.1022e+07
1.10174e+07
1.1012e+07
1.10056e+07
1.09981e+07
1.09896e+07
1.09799e+07
1.0969e+07
1.09568e+07
1.0788e+07
1.0788e+07
1.07881e+07
1.07883e+07
1.07886e+07
1.07889e+07
1.07893e+07
1.07897e+07
1.07902e+07
1.07908e+07
1.07914e+07
1.07921e+07
1.07929e+07
1.07938e+07
1.07947e+07
1.07956e+07
1.07966e+07
1.07977e+07
1.07989e+07
1.08001e+07
1.08014e+07
1.08027e+07
1.08041e+07
1.08055e+07
1.0807e+07
1.08085e+07
1.08101e+07
1.08117e+07
1.08134e+07
1.08151e+07
1.08169e+07
1.08187e+07
1.08205e+07
1.08224e+07
1.08243e+07
1.08262e+07
1.08282e+07
1.08302e+07
1.08322e+07
1.08343e+07
1.08363e+07
1.08384e+07
1.08406e+07
1.08427e+07
1.08448e+07
1.0847e+07
1.08492e+07
1.08514e+07
1.08536e+07
1.08558e+07
1.08581e+07
1.08603e+07
1.08625e+07
1.08648e+07
1.0867e+07
1.08693e+07
1.08715e+07
1.08738e+07
1.0876e+07
1.08783e+07
1.08805e+07
1.08828e+07
1.0885e+07
1.08873e+07
1.08895e+07
1.08917e+07
1.0894e+07
1.08962e+07
1.08984e+07
1.09006e+07
1.09028e+07
1.09049e+07
1.09071e+07
1.09093e+07
1.09114e+07
1.09135e+07
1.09156e+07
1.09178e+07
1.09198e+07
1.09219e+07
1.0924e+07
1.0926e+07
1.09281e+07
1.09301e+07
1.09321e+07
1.09341e+07
1.0936e+07
1.0938e+07
1.09399e+07
1.09418e+07
1.09437e+07
1.09456e+07
1.09475e+07
1.09493e+07
1.09512e+07
1.0953e+07
1.09548e+07
1.09565e+07
1.09583e+07
1.096e+07
1.09617e+07
1.09634e+07
1.09651e+07
1.09668e+07
1.09684e+07
1.097e+07
1.09716e+07
1.09732e+07
1.09748e+07
1.09763e+07
1.09778e+07
1.09794e+07
1.09808e+07
1.09823e+07
1.09837e+07
1.09852e+07
1.09866e+07
1.0988e+07
1.09893e+07
1.09907e+07
1.0992e+07
1.09933e+07
1.09946e+07
1.09959e+07
1.09972e+07
1.09985e+07
1.09997e+07
1.10009e+07
1.10022e+07
1.10034e+07
1.10046e+07
1.10058e+07
1.10069e+07
1.10081e+07
1.10093e+07
1.10105e+07
1.10116e+07
1.10128e+07
1.10139e+07
1.10151e+07
1.10163e+07
1.10174e+07
1.10186e+07
1.10197e+07
1.10209e+07
1.1022e+07
1.10232e+07
1.10243e+07
1.10255e+07
1.10266e+07
1.10277e+07
1.10289e+07
1.10299e+07
1.1031e+07
1.1032e+07
1.1033e+07
1.10339e+07
1.10347e+07
1.10355e+07
1.10362e+07
1.10367e+07
1.1037e+07
1.10372e+07
1.10372e+07
1.10369e+07
1.10363e+07
1.10353e+07
1.1034e+07
1.10321e+07
1.10297e+07
1.10267e+07
1.1023e+07
1.10185e+07
1.10131e+07
1.10068e+07
1.09994e+07
1.09909e+07
1.09812e+07
1.09702e+07
1.0958e+07
1.07862e+07
1.07863e+07
1.07864e+07
1.07866e+07
1.07869e+07
1.07872e+07
1.07876e+07
1.07881e+07
1.07886e+07
1.07892e+07
1.07899e+07
1.07907e+07
1.07915e+07
1.07923e+07
1.07933e+07
1.07943e+07
1.07954e+07
1.07965e+07
1.07977e+07
1.0799e+07
1.08003e+07
1.08017e+07
1.08031e+07
1.08046e+07
1.08061e+07
1.08077e+07
1.08093e+07
1.0811e+07
1.08127e+07
1.08145e+07
1.08163e+07
1.08181e+07
1.082e+07
1.08219e+07
1.08239e+07
1.08259e+07
1.08279e+07
1.08299e+07
1.0832e+07
1.08341e+07
1.08362e+07
1.08383e+07
1.08405e+07
1.08426e+07
1.08448e+07
1.0847e+07
1.08492e+07
1.08514e+07
1.08537e+07
1.08559e+07
1.08581e+07
1.08604e+07
1.08626e+07
1.08649e+07
1.08672e+07
1.08694e+07
1.08717e+07
1.0874e+07
1.08762e+07
1.08785e+07
1.08808e+07
1.0883e+07
1.08853e+07
1.08875e+07
1.08897e+07
1.0892e+07
1.08942e+07
1.08964e+07
1.08986e+07
1.09008e+07
1.0903e+07
1.09052e+07
1.09074e+07
1.09095e+07
1.09117e+07
1.09138e+07
1.09159e+07
1.0918e+07
1.09201e+07
1.09222e+07
1.09242e+07
1.09263e+07
1.09283e+07
1.09303e+07
1.09323e+07
1.09343e+07
1.09363e+07
1.09382e+07
1.09401e+07
1.09421e+07
1.0944e+07
1.09458e+07
1.09477e+07
1.09495e+07
1.09514e+07
1.09532e+07
1.0955e+07
1.09567e+07
1.09585e+07
1.09602e+07
1.09619e+07
1.09636e+07
1.09653e+07
1.0967e+07
1.09686e+07
1.09702e+07
1.09718e+07
1.09734e+07
1.09749e+07
1.09765e+07
1.0978e+07
1.09795e+07
1.0981e+07
1.09824e+07
1.09839e+07
1.09853e+07
1.09867e+07
1.09881e+07
1.09894e+07
1.09908e+07
1.09921e+07
1.09934e+07
1.09947e+07
1.0996e+07
1.09973e+07
1.09985e+07
1.09998e+07
1.1001e+07
1.10022e+07
1.10034e+07
1.10046e+07
1.10058e+07
1.1007e+07
1.10082e+07
1.10093e+07
1.10105e+07
1.10117e+07
1.10128e+07
1.1014e+07
1.10151e+07
1.10163e+07
1.10174e+07
1.10186e+07
1.10197e+07
1.10209e+07
1.10221e+07
1.10232e+07
1.10244e+07
1.10255e+07
1.10267e+07
1.10278e+07
1.10289e+07
1.103e+07
1.10311e+07
1.10321e+07
1.10331e+07
1.10341e+07
1.1035e+07
1.10357e+07
1.10364e+07
1.1037e+07
1.10374e+07
1.10376e+07
1.10377e+07
1.10374e+07
1.10369e+07
1.1036e+07
1.10348e+07
1.1033e+07
1.10307e+07
1.10278e+07
1.10242e+07
1.10198e+07
1.10145e+07
1.10083e+07
1.10009e+07
1.09925e+07
1.09828e+07
1.09717e+07
1.09594e+07
1.07842e+07
1.07843e+07
1.07844e+07
1.07846e+07
1.07849e+07
1.07853e+07
1.07857e+07
1.07862e+07
1.07868e+07
1.07874e+07
1.07881e+07
1.07889e+07
1.07898e+07
1.07907e+07
1.07917e+07
1.07928e+07
1.07939e+07
1.07951e+07
1.07964e+07
1.07977e+07
1.0799e+07
1.08005e+07
1.0802e+07
1.08035e+07
1.08051e+07
1.08068e+07
1.08085e+07
1.08102e+07
1.0812e+07
1.08138e+07
1.08157e+07
1.08176e+07
1.08195e+07
1.08215e+07
1.08235e+07
1.08255e+07
1.08275e+07
1.08296e+07
1.08317e+07
1.08339e+07
1.0836e+07
1.08382e+07
1.08403e+07
1.08425e+07
1.08448e+07
1.0847e+07
1.08492e+07
1.08515e+07
1.08537e+07
1.0856e+07
1.08582e+07
1.08605e+07
1.08628e+07
1.08651e+07
1.08674e+07
1.08696e+07
1.08719e+07
1.08742e+07
1.08765e+07
1.08787e+07
1.0881e+07
1.08833e+07
1.08855e+07
1.08878e+07
1.089e+07
1.08923e+07
1.08945e+07
1.08967e+07
1.08989e+07
1.09011e+07
1.09033e+07
1.09055e+07
1.09076e+07
1.09098e+07
1.09119e+07
1.09141e+07
1.09162e+07
1.09183e+07
1.09204e+07
1.09224e+07
1.09245e+07
1.09265e+07
1.09286e+07
1.09306e+07
1.09326e+07
1.09346e+07
1.09365e+07
1.09385e+07
1.09404e+07
1.09423e+07
1.09442e+07
1.09461e+07
1.09479e+07
1.09498e+07
1.09516e+07
1.09534e+07
1.09552e+07
1.0957e+07
1.09587e+07
1.09604e+07
1.09621e+07
1.09638e+07
1.09655e+07
1.09672e+07
1.09688e+07
1.09704e+07
1.0972e+07
1.09736e+07
1.09751e+07
1.09766e+07
1.09782e+07
1.09797e+07
1.09811e+07
1.09826e+07
1.0984e+07
1.09854e+07
1.09868e+07
1.09882e+07
1.09896e+07
1.09909e+07
1.09922e+07
1.09936e+07
1.09948e+07
1.09961e+07
1.09974e+07
1.09986e+07
1.09999e+07
1.10011e+07
1.10023e+07
1.10035e+07
1.10047e+07
1.10059e+07
1.1007e+07
1.10082e+07
1.10094e+07
1.10105e+07
1.10117e+07
1.10128e+07
1.1014e+07
1.10151e+07
1.10163e+07
1.10175e+07
1.10186e+07
1.10198e+07
1.10209e+07
1.10221e+07
1.10233e+07
1.10244e+07
1.10256e+07
1.10267e+07
1.10279e+07
1.1029e+07
1.10301e+07
1.10312e+07
1.10323e+07
1.10333e+07
1.10343e+07
1.10352e+07
1.1036e+07
1.10368e+07
1.10374e+07
1.10378e+07
1.10381e+07
1.10382e+07
1.10381e+07
1.10376e+07
1.10369e+07
1.10357e+07
1.1034e+07
1.10319e+07
1.10291e+07
1.10256e+07
1.10213e+07
1.10161e+07
1.101e+07
1.10027e+07
1.09943e+07
1.09846e+07
1.09735e+07
1.0961e+07
1.07819e+07
1.0782e+07
1.07821e+07
1.07823e+07
1.07827e+07
1.0783e+07
1.07835e+07
1.0784e+07
1.07846e+07
1.07853e+07
1.07861e+07
1.07869e+07
1.07879e+07
1.07889e+07
1.07899e+07
1.0791e+07
1.07922e+07
1.07935e+07
1.07948e+07
1.07962e+07
1.07977e+07
1.07992e+07
1.08007e+07
1.08023e+07
1.0804e+07
1.08057e+07
1.08075e+07
1.08093e+07
1.08111e+07
1.0813e+07
1.0815e+07
1.08169e+07
1.08189e+07
1.08209e+07
1.0823e+07
1.08251e+07
1.08272e+07
1.08293e+07
1.08315e+07
1.08336e+07
1.08358e+07
1.0838e+07
1.08402e+07
1.08425e+07
1.08447e+07
1.0847e+07
1.08493e+07
1.08515e+07
1.08538e+07
1.08561e+07
1.08584e+07
1.08607e+07
1.0863e+07
1.08653e+07
1.08676e+07
1.08699e+07
1.08722e+07
1.08744e+07
1.08767e+07
1.0879e+07
1.08813e+07
1.08836e+07
1.08858e+07
1.08881e+07
1.08903e+07
1.08926e+07
1.08948e+07
1.0897e+07
1.08992e+07
1.09014e+07
1.09036e+07
1.09058e+07
1.0908e+07
1.09101e+07
1.09123e+07
1.09144e+07
1.09165e+07
1.09186e+07
1.09207e+07
1.09228e+07
1.09248e+07
1.09269e+07
1.09289e+07
1.09309e+07
1.09329e+07
1.09349e+07
1.09368e+07
1.09388e+07
1.09407e+07
1.09426e+07
1.09445e+07
1.09464e+07
1.09482e+07
1.095e+07
1.09519e+07
1.09537e+07
1.09554e+07
1.09572e+07
1.0959e+07
1.09607e+07
1.09624e+07
1.09641e+07
1.09657e+07
1.09674e+07
1.0969e+07
1.09706e+07
1.09722e+07
1.09738e+07
1.09753e+07
1.09768e+07
1.09784e+07
1.09798e+07
1.09813e+07
1.09828e+07
1.09842e+07
1.09856e+07
1.0987e+07
1.09884e+07
1.09897e+07
1.09911e+07
1.09924e+07
1.09937e+07
1.0995e+07
1.09962e+07
1.09975e+07
1.09987e+07
1.1e+07
1.10012e+07
1.10024e+07
1.10036e+07
1.10048e+07
1.10059e+07
1.10071e+07
1.10083e+07
1.10094e+07
1.10106e+07
1.10117e+07
1.10129e+07
1.1014e+07
1.10152e+07
1.10163e+07
1.10175e+07
1.10186e+07
1.10198e+07
1.1021e+07
1.10221e+07
1.10233e+07
1.10245e+07
1.10256e+07
1.10268e+07
1.10279e+07
1.10291e+07
1.10302e+07
1.10313e+07
1.10324e+07
1.10335e+07
1.10345e+07
1.10354e+07
1.10363e+07
1.10371e+07
1.10378e+07
1.10383e+07
1.10387e+07
1.10389e+07
1.10388e+07
1.10385e+07
1.10378e+07
1.10367e+07
1.10352e+07
1.10332e+07
1.10305e+07
1.10271e+07
1.1023e+07
1.10179e+07
1.10119e+07
1.10047e+07
1.09963e+07
1.09866e+07
1.09755e+07
1.0963e+07
1.07792e+07
1.07793e+07
1.07795e+07
1.07797e+07
1.07801e+07
1.07805e+07
1.0781e+07
1.07816e+07
1.07822e+07
1.0783e+07
1.07838e+07
1.07847e+07
1.07857e+07
1.07868e+07
1.07879e+07
1.07891e+07
1.07904e+07
1.07917e+07
1.07931e+07
1.07946e+07
1.07961e+07
1.07977e+07
1.07994e+07
1.08011e+07
1.08028e+07
1.08046e+07
1.08064e+07
1.08083e+07
1.08102e+07
1.08122e+07
1.08142e+07
1.08162e+07
1.08183e+07
1.08204e+07
1.08225e+07
1.08246e+07
1.08268e+07
1.0829e+07
1.08312e+07
1.08334e+07
1.08356e+07
1.08379e+07
1.08402e+07
1.08424e+07
1.08447e+07
1.0847e+07
1.08493e+07
1.08516e+07
1.08539e+07
1.08562e+07
1.08585e+07
1.08609e+07
1.08632e+07
1.08655e+07
1.08678e+07
1.08701e+07
1.08724e+07
1.08747e+07
1.0877e+07
1.08793e+07
1.08816e+07
1.08839e+07
1.08862e+07
1.08884e+07
1.08907e+07
1.08929e+07
1.08952e+07
1.08974e+07
1.08996e+07
1.09018e+07
1.0904e+07
1.09062e+07
1.09083e+07
1.09105e+07
1.09126e+07
1.09148e+07
1.09169e+07
1.0919e+07
1.09211e+07
1.09231e+07
1.09252e+07
1.09272e+07
1.09292e+07
1.09312e+07
1.09332e+07
1.09352e+07
1.09372e+07
1.09391e+07
1.0941e+07
1.09429e+07
1.09448e+07
1.09467e+07
1.09485e+07
1.09503e+07
1.09522e+07
1.0954e+07
1.09557e+07
1.09575e+07
1.09592e+07
1.09609e+07
1.09626e+07
1.09643e+07
1.0966e+07
1.09676e+07
1.09692e+07
1.09708e+07
1.09724e+07
1.0974e+07
1.09755e+07
1.09771e+07
1.09786e+07
1.098e+07
1.09815e+07
1.0983e+07
1.09844e+07
1.09858e+07
1.09872e+07
1.09885e+07
1.09899e+07
1.09912e+07
1.09925e+07
1.09938e+07
1.09951e+07
1.09964e+07
1.09976e+07
1.09989e+07
1.10001e+07