/*--------------------------------*- C++ -*----------------------------------*\
  =========                 |
  \\      /  F ield         | OpenFOAM: The Open Source CFD Toolbox
   \\    /   O peration     | Website:  https://openfoam.org
    \\  /    A nd           | Version:  10
     \\/     M anipulation  |
\*---------------------------------------------------------------------------*/
FoamFile
{
    format      ascii;
    class       volScalarField;
    location    "2900";
    object      p;
}
// * * * * * * * * * * * * * * * * * * * * * * * * * * * * * * * * * * * * * //

dimensions      [1 -1 -2 0 0 0 0];

internalField   nonuniform List<scalar> 
6400
(
107.152
107.154
107.158
107.165
107.173
107.184
107.196
107.211
107.227
107.245
107.265
107.286
107.308
107.332
107.357
107.382
107.409
107.435
107.463
107.49
107.517
107.544
107.57
107.596
107.62
107.644
107.666
107.686
107.704
107.721
107.735
107.747
107.754
107.757
107.76
107.763
107.765
107.767
107.768
107.768
107.768
107.768
107.767
107.765
107.763
107.76
107.757
107.754
107.747
107.735
107.721
107.704
107.686
107.666
107.644
107.62
107.596
107.57
107.544
107.517
107.49
107.463
107.435
107.409
107.382
107.357
107.332
107.308
107.286
107.265
107.245
107.227
107.211
107.196
107.184
107.173
107.165
107.158
107.154
107.152
106.858
106.86
106.864
106.871
106.879
106.89
106.902
106.917
106.933
106.951
106.971
106.992
107.014
107.038
107.063
107.088
107.115
107.141
107.169
107.196
107.223
107.25
107.276
107.302
107.327
107.35
107.372
107.392
107.411
107.427
107.441
107.453
107.46
107.463
107.467
107.469
107.471
107.473
107.474
107.475
107.475
107.474
107.473
107.471
107.469
107.467
107.463
107.46
107.453
107.441
107.427
107.411
107.392
107.372
107.35
107.327
107.302
107.276
107.25
107.223
107.196
107.169
107.141
107.115
107.088
107.063
107.038
107.014
106.992
106.971
106.951
106.933
106.917
106.902
106.89
106.879
106.871
106.864
106.86
106.858
106.535
106.537
106.542
106.548
106.557
106.567
106.58
106.594
106.61
106.628
106.648
106.669
106.692
106.715
106.74
106.766
106.792
106.819
106.846
106.873
106.901
106.928
106.954
106.98
107.004
107.028
107.05
107.07
107.088
107.105
107.119
107.131
107.138
107.141
107.144
107.147
107.149
107.151
107.152
107.152
107.152
107.152
107.151
107.149
107.147
107.144
107.141
107.138
107.131
107.119
107.105
107.088
107.07
107.05
107.028
107.004
106.98
106.954
106.928
106.901
106.873
106.846
106.819
106.792
106.766
106.74
106.715
106.692
106.669
106.648
106.628
106.61
106.594
106.58
106.567
106.557
106.548
106.542
106.537
106.535
106.181
106.183
106.188
106.194
106.203
106.213
106.226
106.24
106.256
106.274
106.294
106.315
106.338
106.361
106.386
106.412
106.438
106.465
106.492
106.52
106.547
106.574
106.6
106.626
106.651
106.674
106.696
106.716
106.735
106.751
106.766
106.778
106.784
106.788
106.791
106.794
106.796
106.798
106.799
106.799
106.799
106.799
106.798
106.796
106.794
106.791
106.788
106.784
106.778
106.766
106.751
106.735
106.716
106.696
106.674
106.651
106.626
106.6
106.574
106.547
106.52
106.492
106.465
106.438
106.412
106.386
106.361
106.338
106.315
106.294
106.274
106.256
106.24
106.226
106.213
106.203
106.194
106.188
106.183
106.181
105.793
105.795
105.799
105.806
105.814
105.825
105.837
105.852
105.868
105.886
105.906
105.927
105.949
105.973
105.998
106.024
106.05
106.077
106.104
106.132
106.159
106.186
106.213
106.238
106.263
106.287
106.309
106.329
106.348
106.364
106.378
106.39
106.397
106.401
106.404
106.407
106.409
106.41
106.411
106.412
106.412
106.411
106.41
106.409
106.407
106.404
106.401
106.397
106.39
106.378
106.364
106.348
106.329
106.309
106.287
106.263
106.238
106.213
106.186
106.159
106.132
106.104
106.077
106.05
106.024
105.998
105.973
105.949
105.927
105.906
105.886
105.868
105.852
105.837
105.825
105.814
105.806
105.799
105.795
105.793
105.366
105.369
105.373
105.379
105.388
105.398
105.411
105.426
105.442
105.46
105.48
105.501
105.523
105.547
105.572
105.598
105.625
105.652
105.679
105.706
105.734
105.761
105.788
105.813
105.838
105.862
105.884
105.904
105.923
105.939
105.954
105.966
105.973
105.976
105.979
105.982
105.984
105.986
105.987
105.987
105.987
105.987
105.986
105.984
105.982
105.979
105.976
105.973
105.966
105.954
105.939
105.923
105.904
105.884
105.862
105.838
105.813
105.788
105.761
105.734
105.706
105.679
105.652
105.625
105.598
105.572
105.547
105.523
105.501
105.48
105.46
105.442
105.426
105.411
105.398
105.388
105.379
105.373
105.369
105.366
104.899
104.901
104.905
104.912
104.92
104.931
104.943
104.958
104.974
104.992
105.012
105.033
105.056
105.08
105.105
105.131
105.158
105.185
105.212
105.24
105.267
105.295
105.321
105.347
105.372
105.396
105.418
105.439
105.457
105.474
105.488
105.5
105.507
105.511
105.514
105.517
105.519
105.521
105.522
105.522
105.522
105.522
105.521
105.519
105.517
105.514
105.511
105.507
105.5
105.488
105.474
105.457
105.439
105.418
105.396
105.372
105.347
105.321
105.295
105.267
105.24
105.212
105.185
105.158
105.131
105.105
105.08
105.056
105.033
105.012
104.992
104.974
104.958
104.943
104.931
104.92
104.912
104.905
104.901
104.899
104.385
104.387
104.392
104.398
104.407
104.417
104.43
104.445
104.461
104.479
104.499
104.521
104.543
104.567
104.593
104.619
104.645
104.673
104.7
104.728
104.756
104.783
104.81
104.836
104.861
104.885
104.907
104.928
104.947
104.964
104.978
104.99
104.997
105.001
105.004
105.007
105.009
105.011
105.012
105.012
105.012
105.012
105.011
105.009
105.007
105.004
105.001
104.997
104.99
104.978
104.964
104.947
104.928
104.907
104.885
104.861
104.836
104.81
104.783
104.756
104.728
104.7
104.673
104.645
104.619
104.593
104.567
104.543
104.521
104.499
104.479
104.461
104.445
104.43
104.417
104.407
104.398
104.392
104.387
104.385
103.822
103.824
103.828
103.835
103.843
103.854
103.867
103.882
103.898
103.916
103.936
103.958
103.981
104.005
104.03
104.056
104.083
104.111
104.139
104.167
104.195
104.222
104.249
104.276
104.301
104.325
104.347
104.368
104.387
104.404
104.419
104.431
104.438
104.442
104.445
104.448
104.45
104.452
104.453
104.453
104.453
104.453
104.452
104.45
104.448
104.445
104.442
104.438
104.431
104.419
104.404
104.387
104.368
104.347
104.325
104.301
104.276
104.249
104.222
104.195
104.167
104.139
104.111
104.083
104.056
104.03
104.005
103.981
103.958
103.936
103.916
103.898
103.882
103.867
103.854
103.843
103.835
103.828
103.824
103.822
103.203
103.205
103.21
103.216
103.225
103.236
103.249
103.264
103.28
103.299
103.319
103.34
103.364
103.388
103.413
103.44
103.467
103.495
103.523
103.551
103.579
103.607
103.634
103.661
103.687
103.711
103.734
103.755
103.774
103.791
103.806
103.818
103.825
103.829
103.833
103.835
103.838
103.839
103.84
103.841
103.841
103.84
103.839
103.838
103.835
103.833
103.829
103.825
103.818
103.806
103.791
103.774
103.755
103.734
103.711
103.687
103.661
103.634
103.607
103.579
103.551
103.523
103.495
103.467
103.44
103.413
103.388
103.364
103.34
103.319
103.299
103.28
103.264
103.249
103.236
103.225
103.216
103.21
103.205
103.203
102.524
102.527
102.531
102.538
102.547
102.557
102.57
102.585
102.602
102.621
102.641
102.663
102.686
102.711
102.737
102.763
102.791
102.819
102.847
102.876
102.904
102.932
102.96
102.987
103.013
103.038
103.061
103.082
103.102
103.119
103.134
103.147
103.154
103.158
103.161
103.164
103.166
103.168
103.169
103.17
103.17
103.169
103.168
103.166
103.164
103.161
103.158
103.154
103.147
103.134
103.119
103.102
103.082
103.061
103.038
103.013
102.987
102.96
102.932
102.904
102.876
102.847
102.819
102.791
102.763
102.737
102.711
102.686
102.663
102.641
102.621
102.602
102.585
102.57
102.557
102.547
102.538
102.531
102.527
102.524
101.779
101.782
101.786
101.793
101.802
101.813
101.826
101.841
101.858
101.877
101.897
101.919
101.943
101.968
101.994
102.021
102.049
102.077
102.106
102.135
102.164
102.193
102.221
102.248
102.275
102.3
102.323
102.345
102.365
102.383
102.398
102.411
102.418
102.422
102.426
102.429
102.431
102.433
102.434
102.434
102.434
102.434
102.433
102.431
102.429
102.426
102.422
102.418
102.411
102.398
102.383
102.365
102.345
102.323
102.3
102.275
102.248
102.221
102.193
102.164
102.135
102.106
102.077
102.049
102.021
101.994
101.968
101.943
101.919
101.897
101.877
101.858
101.841
101.826
101.813
101.802
101.793
101.786
101.782
101.779
100.961
100.964
100.968
100.975
100.984
100.995
101.008
101.024
101.041
101.06
101.081
101.103
101.127
101.153
101.179
101.207
101.235
101.264
101.293
101.323
101.352
101.382
101.41
101.438
101.465
101.491
101.515
101.537
101.558
101.576
101.592
101.605
101.612
101.617
101.62
101.623
101.625
101.627
101.628
101.629
101.629
101.628
101.627
101.625
101.623
101.62
101.617
101.612
101.605
101.592
101.576
101.558
101.537
101.515
101.491
101.465
101.438
101.41
101.382
101.352
101.323
101.293
101.264
101.235
101.207
101.179
101.153
101.127
101.103
101.081
101.06
101.041
101.024
101.008
100.995
100.984
100.975
100.968
100.964
100.961
100.063
100.065
100.07
100.077
100.086
100.097
100.111
100.126
100.144
100.163
100.185
100.208
100.232
100.258
100.285
100.313
100.342
100.371
100.402
100.432
100.462
100.492
100.522
100.55
100.578
100.604
100.629
100.652
100.673
100.692
100.708
100.722
100.73
100.734
100.737
100.74
100.743
100.745
100.746
100.747
100.747
100.746
100.745
100.743
100.74
100.737
100.734
100.73
100.722
100.708
100.692
100.673
100.652
100.629
100.604
100.578
100.55
100.522
100.492
100.462
100.432
100.402
100.371
100.342
100.313
100.285
100.258
100.232
100.208
100.185
100.163
100.144
100.126
100.111
100.097
100.086
100.077
100.07
100.065
100.063
99.0769
99.0792
99.0839
99.091
99.1003
99.1119
99.1256
99.1415
99.1594
99.1793
99.201
99.2244
99.2494
99.2759
99.3036
99.3324
99.3621
99.3925
99.4234
99.4545
99.4857
99.5166
99.5471
99.5767
99.6053
99.6326
99.6584
99.6823
99.704
99.7235
99.7404
99.7545
99.7626
99.767
99.7708
99.774
99.7765
99.7784
99.7797
99.7803
99.7803
99.7797
99.7784
99.7765
99.774
99.7708
99.767
99.7626
99.7545
99.7404
99.7235
99.704
99.6823
99.6584
99.6326
99.6053
99.5767
99.5471
99.5166
99.4857
99.4545
99.4234
99.3925
99.3621
99.3324
99.3036
99.2759
99.2494
99.2244
99.201
99.1793
99.1594
99.1415
99.1256
99.1119
99.1003
99.091
99.0839
99.0792
99.0769
97.9938
97.9962
98.001
98.0082
98.0178
98.0296
98.0438
98.06
98.0784
98.0988
98.1211
98.1452
98.1709
98.1981
98.2267
98.2564
98.287
98.3185
98.3504
98.3827
98.415
98.4471
98.4787
98.5095
98.5393
98.5678
98.5947
98.6196
98.6424
98.6628
98.6804
98.6953
98.7038
98.7084
98.7123
98.7157
98.7183
98.7203
98.7217
98.7223
98.7223
98.7217
98.7203
98.7183
98.7157
98.7123
98.7084
98.7038
98.6953
98.6804
98.6628
98.6424
98.6196
98.5947
98.5678
98.5393
98.5095
98.4787
98.4471
98.415
98.3827
98.3504
98.3185
98.287
98.2564
98.2267
98.1981
98.1709
98.1452
98.1211
98.0988
98.0784
98.06
98.0438
98.0296
98.0178
98.0082
98.001
97.9962
97.9938
96.7286
96.7311
96.7361
96.7435
96.7534
96.7656
96.7802
96.797
96.816
96.8371
96.8602
96.8851
96.9118
96.94
96.9697
97.0006
97.0325
97.0653
97.0986
97.1324
97.1662
97.1998
97.233
97.2655
97.2969
97.3269
97.3553
97.3817
97.4058
97.4274
97.4462
97.462
97.471
97.4759
97.4801
97.4837
97.4865
97.4886
97.4901
97.4908
97.4908
97.4901
97.4886
97.4865
97.4837
97.4801
97.4759
97.471
97.462
97.4462
97.4274
97.4058
97.3817
97.3553
97.3269
97.2969
97.2655
97.233
97.1998
97.1662
97.1324
97.0986
97.0653
97.0325
97.0006
96.9697
96.94
96.9118
96.8851
96.8602
96.8371
96.816
96.797
96.7802
96.7656
96.7534
96.7435
96.7361
96.7311
96.7286
95.3306
95.3332
95.3383
95.346
95.3563
95.369
95.3841
95.4016
95.4214
95.4434
95.4674
95.4934
95.5213
95.5508
95.5819
95.6143
95.6478
95.6823
95.7175
95.7531
95.7888
95.8245
95.8597
95.8942
95.9277
95.9598
95.9901
96.0184
96.0443
96.0675
96.0878
96.1048
96.1145
96.1198
96.1244
96.1282
96.1312
96.1336
96.1351
96.1359
96.1359
96.1351
96.1336
96.1312
96.1282
96.1244
96.1198
96.1145
96.1048
96.0878
96.0675
96.0443
96.0184
95.9901
95.9598
95.9277
95.8942
95.8597
95.8245
95.7888
95.7531
95.7175
95.6823
95.6478
95.6143
95.5819
95.5508
95.5213
95.4934
95.4674
95.4434
95.4214
95.4016
95.3841
95.369
95.3563
95.346
95.3383
95.3332
95.3306
93.93
93.9326
93.938
93.946
93.9567
93.9699
93.9857
94.004
94.0246
94.0475
94.0727
94.0999
94.1291
94.1601
94.1927
94.2269
94.2622
94.2986
94.3358
94.3736
94.4116
94.4495
94.4871
94.5241
94.5599
94.5944
94.627
94.6575
94.6855
94.7107
94.7326
94.751
94.7616
94.7674
94.7723
94.7765
94.7798
94.7823
94.784
94.7849
94.7849
94.784
94.7823
94.7798
94.7765
94.7723
94.7674
94.7616
94.751
94.7326
94.7107
94.6855
94.6575
94.627
94.5944
94.5599
94.5241
94.4871
94.4495
94.4116
94.3736
94.3358
94.2986
94.2622
94.2269
94.1927
94.1601
94.1291
94.0999
94.0727
94.0475
94.0246
94.004
93.9857
93.9699
93.9567
93.946
93.938
93.9326
93.93
92.5266
92.5294
92.535
92.5434
92.5545
92.5683
92.5848
92.6039
92.6255
92.6495
92.6759
92.7044
92.7351
92.7677
92.8021
92.8382
92.8756
92.9141
92.9537
92.9938
93.0344
93.075
93.1153
93.1549
93.1935
93.2307
93.2661
93.2992
93.3296
93.357
93.3809
93.401
93.4127
93.4189
93.4244
93.4289
93.4326
93.4354
93.4372
93.4381
93.4381
93.4372
93.4354
93.4326
93.4289
93.4244
93.4189
93.4127
93.401
93.3809
93.357
93.3296
93.2992
93.2661
93.2307
93.1935
93.1549
93.1153
93.075
93.0344
92.9938
92.9537
92.9141
92.8756
92.8382
92.8021
92.7677
92.7351
92.7044
92.6759
92.6495
92.6255
92.6039
92.5848
92.5683
92.5545
92.5434
92.535
92.5294
92.5266
91.1205
91.1234
91.1293
91.138
91.1496
91.1641
91.1813
91.2013
91.2239
91.2491
91.2768
91.3069
91.3392
91.3736
91.4099
91.4481
91.4877
91.5287
91.5708
91.6137
91.6571
91.7007
91.744
91.7868
91.8286
91.8689
91.9074
91.9434
91.9767
92.0067
92.033
92.0552
92.0679
92.0749
92.0809
92.0859
92.09
92.093
92.095
92.0961
92.0961
92.095
92.093
92.09
92.0859
92.0809
92.0749
92.0679
92.0552
92.033
92.0067
91.9767
91.9434
91.9074
91.8689
91.8286
91.7868
91.744
91.7007
91.6571
91.6137
91.5708
91.5287
91.4877
91.4481
91.4099
91.3736
91.3392
91.3069
91.2768
91.2491
91.2239
91.2013
91.1813
91.1641
91.1496
91.138
91.1293
91.1234
91.1205
89.7114
89.7145
89.7206
89.7298
89.7419
89.757
89.7751
89.796
89.8198
89.8462
89.8754
89.907
89.9411
89.9775
90.016
90.0564
90.0986
90.1423
90.1872
90.2331
90.2797
90.3266
90.3734
90.4197
90.4651
90.509
90.551
90.5905
90.6271
90.6602
90.6892
90.7137
90.7279
90.7356
90.7423
90.7479
90.7524
90.7557
90.758
90.7591
90.7591
90.758
90.7557
90.7524
90.7479
90.7423
90.7356
90.7279
90.7137
90.6892
90.6602
90.6271
90.5905
90.551
90.509
90.4651
90.4197
90.3734
90.3266
90.2797
90.2331
90.1872
90.1423
90.0986
90.0564
90.016
89.9775
89.9411
89.907
89.8754
89.8462
89.8198
89.796
89.7751
89.757
89.7419
89.7298
89.7206
89.7145
89.7114
88.2993
88.3025
88.3089
88.3185
88.3312
88.3471
88.366
88.388
88.4129
88.4407
88.4714
88.5048
88.5408
88.5792
88.62
88.663
88.7079
88.7545
88.8026
88.8519
88.902
88.9526
89.0032
89.0535
89.103
89.151
89.1971
89.2406
89.281
89.3176
89.3499
89.3772
89.3931
89.4017
89.4091
89.4154
89.4204
89.4242
89.4267
89.428
89.428
89.4267
89.4242
89.4204
89.4154
89.4091
89.4017
89.3931
89.3772
89.3499
89.3176
89.281
89.2406
89.1971
89.151
89.103
89.0535
89.0032
88.9526
88.902
88.8519
88.8026
88.7545
88.7079
88.663
88.62
88.5792
88.5408
88.5048
88.4714
88.4407
88.4129
88.388
88.366
88.3471
88.3312
88.3185
88.3089
88.3025
88.2993
86.884
86.8874
86.8941
86.9041
86.9174
86.934
86.9539
86.9769
87.0031
87.0324
87.0647
87.0999
87.138
87.1787
87.222
87.2676
87.3155
87.3653
87.4168
87.4698
87.5238
87.5785
87.6335
87.6882
87.7423
87.795
87.8457
87.8939
87.9387
87.9795
88.0155
88.0461
88.0639
88.0736
88.082
88.089
88.0947
88.099
88.1018
88.1032
88.1032
88.1018
88.099
88.0947
88.089
88.082
88.0736
88.0639
88.0461
88.0155
87.9795
87.9387
87.8939
87.8457
87.795
87.7423
87.6882
87.6335
87.5785
87.5238
87.4698
87.4168
87.3653
87.3155
87.2676
87.222
87.1787
87.138
87.0999
87.0647
87.0324
87.0031
86.9769
86.9539
86.934
86.9174
86.9041
86.8941
86.8874
86.884
85.4654
85.4689
85.4759
85.4863
85.5003
85.5177
85.5385
85.5627
85.5903
85.6211
85.6551
85.6923
85.7325
85.7756
85.8215
85.8701
85.9211
85.9744
86.0296
86.0866
86.1449
86.2041
86.2639
86.3237
86.3829
86.4409
86.497
86.5505
86.6004
86.646
86.6865
86.7211
86.7412
86.7521
86.7616
86.7696
86.776
86.7809
86.7841
86.7858
86.7858
86.7841
86.7809
86.776
86.7696
86.7616
86.7521
86.7412
86.7211
86.6865
86.646
86.6004
86.5505
86.497
86.4409
86.3829
86.3237
86.2639
86.2041
86.1449
86.0866
86.0296
85.9744
85.9211
85.8701
85.8215
85.7756
85.7325
85.6923
85.6551
85.6211
85.5903
85.5627
85.5385
85.5177
85.5003
85.4863
85.4759
85.4689
85.4654
84.0432
84.0469
84.0542
84.0651
84.0798
84.098
84.1198
84.1452
84.1741
84.2065
84.2424
84.2816
84.324
84.3697
84.4184
84.4701
84.5245
84.5815
84.6407
84.702
84.765
84.8293
84.8943
84.9597
85.0247
85.0888
85.151
85.2105
85.2664
85.3178
85.3635
85.4027
85.4256
85.4381
85.4489
85.458
85.4654
85.4709
85.4747
85.4765
85.4765
85.4747
85.4709
85.4654
85.458
85.4489
85.4381
85.4256
85.4027
85.3635
85.3178
85.2664
85.2105
85.151
85.0888
85.0247
84.9597
84.8943
84.8293
84.765
84.702
84.6407
84.5815
84.5245
84.4701
84.4184
84.3697
84.324
84.2816
84.2424
84.2065
84.1741
84.1452
84.1198
84.098
84.0798
84.0651
84.0542
84.0469
84.0432
82.6174
82.6212
82.6288
82.6403
82.6556
82.6747
82.6975
82.7241
82.7545
82.7885
82.8262
82.8676
82.9124
82.9607
83.0124
83.0673
83.1254
83.1863
83.2498
83.3158
83.3838
83.4536
83.5245
83.596
83.6676
83.7384
83.8076
83.8741
83.937
83.9951
84.0471
84.0918
84.1181
84.1324
84.1449
84.1554
84.1639
84.1703
84.1746
84.1767
84.1767
84.1746
84.1703
84.1639
84.1554
84.1449
84.1324
84.1181
84.0918
84.0471
83.9951
83.937
83.8741
83.8076
83.7384
83.6676
83.596
83.5245
83.4536
83.3838
83.3158
83.2498
83.1863
83.1254
83.0673
83.0124
82.9607
82.9124
82.8676
82.8262
82.7885
82.7545
82.7241
82.6975
82.6747
82.6556
82.6403
82.6288
82.6212
82.6174
81.1877
81.1917
81.1997
81.2117
81.2276
81.2476
81.2715
81.2993
81.3311
81.3669
81.4065
81.45
81.4974
81.5484
81.6032
81.6615
81.7233
81.7884
81.8565
81.9275
82.001
82.0767
82.154
82.2324
82.3112
82.3897
82.4668
82.5415
82.6125
82.6784
82.7379
82.7894
82.8197
82.8363
82.8508
82.863
82.8728
82.8803
82.8853
82.8878
82.8878
82.8853
82.8803
82.8728
82.863
82.8508
82.8363
82.8197
82.7894
82.7379
82.6784
82.6125
82.5415
82.4668
82.3897
82.3112
82.2324
82.154
82.0767
82.001
81.9275
81.8565
81.7884
81.7233
81.6615
81.6032
81.5484
81.4974
81.45
81.4065
81.3669
81.3311
81.2993
81.2715
81.2476
81.2276
81.2117
81.1997
81.1917
81.1877
79.7541
79.7582
79.7666
79.779
79.7957
79.8165
79.8415
79.8706
79.9039
79.9413
79.9829
80.0287
80.0785
80.1324
80.1904
80.2522
80.318
80.3874
80.4604
80.5367
80.616
80.6981
80.7824
80.8683
80.9552
81.0423
81.1284
81.2125
81.293
81.3683
81.4367
81.4963
81.5317
81.5511
81.5681
81.5824
81.594
81.6028
81.6087
81.6116
81.6116
81.6087
81.6028
81.594
81.5824
81.5681
81.5511
81.5317
81.4963
81.4367
81.3683
81.293
81.2125
81.1284
81.0423
80.9552
80.8683
80.7824
80.6981
80.616
80.5367
80.4604
80.3874
80.318
80.2522
80.1904
80.1324
80.0785
80.0287
79.9829
79.9413
79.9039
79.8706
79.8415
79.8165
79.7957
79.779
79.7666
79.7582
79.7541
78.3163
78.3206
78.3293
78.3423
78.3596
78.3812
78.4073
78.4377
78.4725
78.5116
78.5552
78.6032
78.6556
78.7124
78.7736
78.8391
78.9089
78.9829
79.0609
79.1428
79.2284
79.3173
79.4091
79.5033
79.5991
79.6958
79.7922
79.887
79.9786
80.0651
80.1443
80.214
80.2556
80.2785
80.2986
80.3156
80.3294
80.3399
80.3469
80.3504
80.3504
80.3469
80.3399
80.3294
80.3156
80.2986
80.2785
80.2556
80.214
80.1443
80.0651
79.9786
79.887
79.7922
79.6958
79.5991
79.5033
79.4091
79.3173
79.2284
79.1428
79.0609
78.9829
78.9089
78.8391
78.7736
78.7124
78.6556
78.6032
78.5552
78.5116
78.4725
78.4377
78.4073
78.3812
78.3596
78.3423
78.3293
78.3206
78.3163
76.8742
76.8787
76.8876
76.9011
76.9191
76.9416
76.9687
77.0004
77.0367
77.0776
77.1231
77.1734
77.2283
77.288
77.3525
77.4217
77.4956
77.5743
77.6575
77.7453
77.8374
77.9336
78.0334
78.1365
78.2422
78.3496
78.4576
78.5648
78.6693
78.7691
78.8615
78.9436
78.9931
79.0205
79.0446
79.065
79.0817
79.0943
79.1028
79.1071
79.1071
79.1028
79.0943
79.0817
79.065
79.0446
79.0205
78.9931
78.9436
78.8615
78.7691
78.6693
78.5648
78.4576
78.3496
78.2422
78.1365
78.0334
77.9336
77.8374
77.7453
77.6575
77.5743
77.4956
77.4217
77.3525
77.288
77.2283
77.1734
77.1231
77.0776
77.0367
77.0004
76.9687
76.9416
76.9191
76.9011
76.8876
76.8787
76.8742
75.4276
75.4322
75.4415
75.4555
75.4741
75.4975
75.5256
75.5585
75.5962
75.6388
75.6863
75.7388
75.7963
75.8589
75.9266
75.9996
76.0777
76.1611
76.2497
76.3435
76.4423
76.5461
76.6546
76.7672
76.8836
77.0028
77.1238
77.2452
77.3649
77.4805
77.589
77.6866
77.7463
77.7795
77.8088
77.8338
77.8542
77.8697
77.8802
77.8855
77.8855
77.8802
77.8697
77.8542
77.8338
77.8088
77.7795
77.7463
77.6866
77.589
77.4805
77.3649
77.2452
77.1238
77.0028
76.8836
76.7672
76.6546
76.5461
76.4423
76.3435
76.2497
76.1611
76.0777
75.9996
75.9266
75.8589
75.7963
75.7388
75.6863
75.6388
75.5962
75.5585
75.5256
75.4975
75.4741
75.4555
75.4415
75.4322
75.4276
73.9763
73.9811
73.9907
74.0051
74.0244
74.0486
74.0777
74.1118
74.1509
74.1951
74.2445
74.2992
74.3592
74.4246
74.4956
74.5722
74.6545
74.7427
74.8367
74.9366
75.0424
75.1541
75.2714
75.3942
75.5221
75.6542
75.7897
75.9271
76.0645
76.1991
76.3273
76.4446
76.5176
76.5584
76.5946
76.6257
76.6512
76.6707
76.684
76.6906
76.6906
76.684
76.6707
76.6512
76.6257
76.5946
76.5584
76.5176
76.4446
76.3273
76.1991
76.0645
75.9271
75.7897
75.6542
75.5221
75.3942
75.2714
75.1541
75.0424
74.9366
74.8367
74.7427
74.6545
74.5722
74.4956
74.4246
74.3592
74.2992
74.2445
74.1951
74.1509
74.1118
74.0777
74.0486
74.0244
74.0051
73.9907
73.9811
73.9763
72.5202
72.5252
72.5351
72.55
72.5699
72.5948
72.6248
72.66
72.7005
72.7463
72.7975
72.8542
72.9166
72.9848
73.0589
73.1391
73.2255
73.3184
73.4177
73.5237
73.6366
73.7563
73.8829
74.0162
74.1562
74.3023
74.4537
74.6092
74.7669
74.924
75.0765
75.219
75.3095
75.3605
75.4063
75.4458
75.4785
75.5037
75.5209
75.5295
75.5295
75.5209
75.5037
75.4785
75.4458
75.4063
75.3605
75.3095
75.219
75.0765
74.924
74.7669
74.6092
74.4537
74.3023
74.1562
74.0162
73.8829
73.7563
73.6366
73.5237
73.4177
73.3184
73.2255
73.1391
73.0589
72.9848
72.9166
72.8542
72.7975
72.7463
72.7005
72.66
72.6248
72.5948
72.5699
72.55
72.5351
72.5252
72.5202
71.0592
71.0643
71.0745
71.0898
71.1102
71.1359
71.1668
71.203
71.2447
71.292
71.3449
71.4036
71.4683
71.539
71.6162
71.6998
71.7902
71.8875
71.9921
72.1041
72.2239
72.3516
72.4875
72.6317
72.7842
72.945
73.1135
73.289
73.4699
73.6535
73.8358
74.0105
74.1246
74.1899
74.249
74.3007
74.344
74.3776
74.4006
74.4123
74.4123
74.4006
74.3776
74.344
74.3007
74.249
74.1899
74.1246
74.0105
73.8358
73.6535
73.4699
73.289
73.1135
72.945
72.7842
72.6317
72.4875
72.3516
72.2239
72.1041
71.9921
71.8875
71.7902
71.6998
71.6162
71.539
71.4683
71.4036
71.3449
71.292
71.2447
71.203
71.1668
71.1359
71.1102
71.0898
71.0745
71.0643
71.0592
69.5932
69.5984
69.6088
69.6244
69.6454
69.6717
69.7034
69.7406
69.7834
69.832
69.8865
69.947
70.0138
70.087
70.1669
70.2537
70.3478
70.4495
70.559
70.6768
70.8032
70.9388
71.0838
71.2388
71.4041
71.5799
71.7665
71.9635
72.1701
72.3844
72.6027
72.8187
72.9652
73.0503
73.1288
73.1988
73.2582
73.3051
73.3375
73.3542
73.3542
73.3375
73.3051
73.2582
73.1988
73.1288
73.0503
72.9652
72.8187
72.6027
72.3844
72.1701
71.9635
71.7665
71.5799
71.4041
71.2388
71.0838
70.9388
70.8032
70.6768
70.559
70.4495
70.3478
70.2537
70.1669
70.087
70.0138
69.947
69.8865
69.832
69.7834
69.7406
69.7034
69.6717
69.6454
69.6244
69.6088
69.5984
69.5932
68.1219
68.1272
68.1378
68.1538
68.1752
68.2021
68.2345
68.2725
68.3164
68.3662
68.422
68.4842
68.5528
68.6282
68.7107
68.8005
68.8979
69.0035
69.1176
69.2408
69.3735
69.5164
69.6702
69.8356
70.0133
70.2042
70.409
70.6284
70.8626
71.1112
71.372
71.6401
71.8308
71.9444
72.0519
72.1502
72.2361
72.3055
72.3547
72.3802
72.3802
72.3547
72.3055
72.2361
72.1502
72.0519
71.9444
71.8308
71.6401
71.372
71.1112
70.8626
70.6284
70.409
70.2042
70.0133
69.8356
69.6702
69.5164
69.3735
69.2408
69.1176
69.0035
68.8979
68.8005
68.7107
68.6282
68.5528
68.4842
68.422
68.3662
68.3164
68.2725
68.2345
68.2021
68.1752
68.1538
68.1378
68.1272
68.1219
66.6453
66.6507
66.6615
66.6778
66.6995
66.7269
66.7599
66.7987
66.8434
66.8942
66.9513
67.0149
67.0852
67.1625
67.2471
67.3395
67.4399
67.549
67.6672
67.7952
67.9336
68.0832
68.245
68.42
68.6094
68.8145
69.0369
69.2784
69.5407
69.8256
70.1342
70.4653
70.7155
70.8696
71.0209
71.1652
71.297
71.4086
71.4912
71.5357
71.5357
71.4912
71.4086
71.297
71.1652
71.0209
70.8696
70.7155
70.4653
70.1342
69.8256
69.5407
69.2784
69.0369
68.8145
68.6094
68.42
68.245
68.0832
67.9336
67.7952
67.6672
67.549
67.4399
67.3395
67.2471
67.1625
67.0852
67.0149
66.9513
66.8942
66.8434
66.7987
66.7599
66.7269
66.6995
66.6778
66.6615
66.6507
66.6453
65.1633
65.1688
65.1797
65.1962
65.2183
65.2461
65.2796
65.319
65.3644
65.416
65.4741
65.5388
65.6105
65.6894
65.7758
65.8704
65.9733
66.0854
66.2071
66.3391
66.4824
66.6379
66.8066
66.99
67.1897
67.4075
67.6458
67.9075
68.1962
68.5165
68.874
69.2751
69.6
69.8088
70.0248
70.2442
70.4597
70.6588
70.8208
70.9162
70.9162
70.8208
70.6588
70.4597
70.2442
70.0248
69.8088
69.6
69.2751
68.874
68.5165
68.1962
67.9075
67.6458
67.4075
67.1897
66.99
66.8066
66.6379
66.4824
66.3391
66.2071
66.0854
65.9733
65.8704
65.7758
65.6894
65.6105
65.5388
65.4741
65.416
65.3644
65.319
65.2796
65.2461
65.2183
65.1962
65.1797
65.1688
65.1633
63.6759
63.6814
63.6925
63.7091
63.7314
63.7594
63.7933
63.8332
63.8791
63.9314
63.9902
64.0558
64.1285
64.2086
64.2966
64.3928
64.4977
64.6121
64.7365
64.8719
65.0191
65.1792
65.3536
65.5439
65.7519
65.9801
66.2314
66.5097
66.8202
67.1701
67.57
68.0363
68.4396
68.7116
69.0114
69.3424
69.706
70.0963
70.4876
70.8151
70.8151
70.4876
70.0963
69.706
69.3424
69.0114
68.7116
68.4396
68.0363
67.57
67.1701
66.8202
66.5097
66.2314
65.9801
65.7519
65.5439
65.3536
65.1792
65.0191
64.8719
64.7365
64.6121
64.4977
64.3928
64.2966
64.2086
64.1285
64.0558
63.9902
63.9314
63.8791
63.8332
63.7933
63.7594
63.7314
63.7091
63.6925
63.6814
63.6759
62.1829
62.1884
62.1996
62.2163
62.2388
62.267
62.3011
62.3412
62.3876
62.4403
62.4996
62.5658
62.6392
62.7201
62.809
62.9064
63.0127
63.1287
63.2551
63.3928
63.5428
63.7062
63.8847
64.0799
64.2939
64.5295
64.7899
65.0796
65.4047
65.7736
66.1998
66.7054
67.1583
67.474
67.8395
68.2754
68.8171
69.5272
70.5226
75.9831
75.9831
70.5226
69.5272
68.8171
68.2754
67.8395
67.474
67.1583
66.7054
66.1998
65.7736
65.4047
65.0796
64.7899
64.5295
64.2939
64.0799
63.8847
63.7062
63.5428
63.3928
63.2551
63.1287
63.0127
62.9064
62.809
62.7201
62.6392
62.5658
62.4996
62.4403
62.3876
62.3412
62.3011
62.267
62.2388
62.2163
62.1996
62.1884
62.1829
60.6844
60.69
60.7012
60.718
60.7405
60.7688
60.803
60.8433
60.8897
60.9426
61.0022
61.0686
61.1424
61.2237
61.3131
61.4111
61.5182
61.6351
61.7625
61.9015
62.053
62.2184
62.3992
62.5971
62.8145
63.0541
63.3192
63.6143
63.9453
64.32
64.7501
65.253
65.6894
65.9844
66.3108
66.6732
67.0754
67.5149
68.0022
85.0848
85.0848
68.0022
67.5149
67.0754
66.6732
66.3108
65.9844
65.6894
65.253
64.7501
64.32
63.9453
63.6143
63.3192
63.0541
62.8145
62.5971
62.3992
62.2184
62.053
61.9015
61.7625
61.6351
61.5182
61.4111
61.3131
61.2237
61.1424
61.0686
61.0022
60.9426
60.8897
60.8433
60.803
60.7688
60.7405
60.718
60.7012
60.69
60.6844
59.1804
59.186
59.1972
59.2139
59.2364
59.2647
59.2988
59.339
59.3855
59.4383
59.4978
59.5642
59.6379
59.7193
59.8087
59.9067
60.0138
60.1308
60.2584
60.3976
60.5495
60.7152
60.8965
61.095
61.313
61.5531
61.8185
62.1132
62.4421
62.8111
63.2274
63.6995
64.0862
64.3367
64.5989
64.8701
65.145
65.4136
65.7126
77.0083
77.0083
65.7126
65.4136
65.145
64.8701
64.5989
64.3367
64.0862
63.6995
63.2274
62.8111
62.4421
62.1132
61.8185
61.5531
61.313
61.095
60.8965
60.7152
60.5495
60.3976
60.2584
60.1308
60.0138
59.9067
59.8087
59.7193
59.6379
59.5642
59.4978
59.4383
59.3855
59.339
59.2988
59.2647
59.2364
59.2139
59.1972
59.186
59.1804
57.6709
57.6764
57.6875
57.7042
57.7265
57.7547
57.7886
57.8286
57.8748
57.9273
57.9865
58.0526
58.1259
58.2068
58.2957
58.3931
58.4996
58.6159
58.7428
58.8811
59.032
59.1966
59.3765
59.5733
59.7893
60.0267
60.2885
60.578
60.8988
61.2548
61.6491
62.0825
62.4193
62.63
62.8413
63.0486
63.2461
63.4258
63.6302
70.7275
70.7275
63.6302
63.4258
63.2461
63.0486
62.8413
62.63
62.4193
62.0825
61.6491
61.2548
60.8988
60.578
60.2885
60.0267
59.7893
59.5733
59.3765
59.1966
59.032
58.8811
58.7428
58.6159
58.4996
58.3931
58.2957
58.2068
58.1259
58.0526
57.9865
57.9273
57.8748
57.8286
57.7886
57.7547
57.7265
57.7042
57.6875
57.6764
57.6709
56.1558
56.1613
56.1722
56.1888
56.2109
56.2388
56.2724
56.312
56.3577
56.4098
56.4683
56.5337
56.6062
56.6862
56.7741
56.8704
56.9757
57.0905
57.2157
57.3521
57.5007
57.6627
57.8395
58.0327
58.2441
58.476
58.7308
59.0113
59.3203
59.6601
60.0318
60.4325
60.735
60.9209
61.1031
61.2772
61.4373
61.5768
61.738
66.8297
66.8297
61.738
61.5768
61.4373
61.2772
61.1031
60.9209
60.735
60.4325
60.0318
59.6601
59.3203
59.0113
58.7308
58.476
58.2441
58.0327
57.8395
57.6627
57.5007
57.3521
57.2157
57.0905
56.9757
56.8704
56.7741
56.6862
56.6062
56.5337
56.4683
56.4098
56.3577
56.312
56.2724
56.2388
56.2109
56.1888
56.1722
56.1613
56.1558
54.6352
54.6406
54.6514
54.6678
54.6896
54.7171
54.7503
54.7893
54.8344
54.8856
54.9433
55.0077
55.0791
55.1578
55.2442
55.3388
55.4421
55.5547
55.6773
55.8108
55.956
56.114
56.2861
56.4737
56.6785
56.9024
57.1475
57.4162
57.7109
58.0336
58.3854
58.7644
59.0523
59.2303
59.4062
59.5759
59.7334
59.8702
60.0327
64.1666
64.1666
60.0327
59.8702
59.7334
59.5759
59.4062
59.2303
59.0523
58.7644
58.3854
58.0336
57.7109
57.4162
57.1475
56.9024
56.6785
56.4737
56.2861
56.114
55.956
55.8108
55.6773
55.5547
55.4421
55.3388
55.2442
55.1578
55.0791
55.0077
54.9433
54.8856
54.8344
54.7893
54.7503
54.7171
54.6896
54.6678
54.6514
54.6406
54.6352
53.1092
53.1145
53.1252
53.1412
53.1627
53.1896
53.2222
53.2606
53.3048
53.3551
53.4116
53.4747
53.5446
53.6216
53.7061
53.7985
53.8992
54.0089
54.1282
54.2578
54.3985
54.5512
54.7172
54.8975
55.0938
55.3075
55.5406
55.7952
56.0735
56.3781
56.7116
57.0768
57.3655
57.5499
57.7408
57.9366
58.1338