/*--------------------------------*- C++ -*----------------------------------*\
  =========                 |
  \\      /  F ield         | OpenFOAM: The Open Source CFD Toolbox
   \\    /   O peration     | Website:  https://openfoam.org
    \\  /    A nd           | Version:  10
     \\/     M anipulation  |
\*---------------------------------------------------------------------------*/
FoamFile
{
    format      ascii;
    class       volVectorField;
    location    "0.1";
    object      Ua;
}
// * * * * * * * * * * * * * * * * * * * * * * * * * * * * * * * * * * * * * //

dimensions      [0 1 -1 0 0 0 0];

internalField   nonuniform List<vector> 
12225
(
(5.8744e-05 -1.18332e-05 0)
(0.000176489 -1.23796e-05 0)
(0.00029688 -1.34166e-05 0)
(0.000423854 -1.49302e-05 0)
(0.000560978 -1.69634e-05 0)
(0.000711965 -1.96226e-05 0)
(0.000881144 -2.30848e-05 0)
(0.00107392 -2.76137e-05 0)
(0.00129732 -3.35922e-05 0)
(0.00156068 -4.15806e-05 0)
(0.0018768 -5.24242e-05 0)
(0.00226378 -6.74617e-05 0)
(0.00274841 -8.89671e-05 0)
(0.00337332 -0.000121204 0)
(0.00421378 -0.000173364 0)
(0.00542654 -0.00026975 0)
(0.00743777 -0.00049692 0)
(0.0119827 -0.00131342 0)
(5.86276e-05 -3.63237e-05 0)
(0.000176143 -3.80018e-05 0)
(0.0002963 -4.11849e-05 0)
(0.000423015 -4.58281e-05 0)
(0.000559822 -5.20627e-05 0)
(0.000710395 -6.02134e-05 0)
(0.000879008 -7.08208e-05 0)
(0.001071 -8.46903e-05 0)
(0.00129327 -0.000102989 0)
(0.00155499 -0.000127422 0)
(0.00186866 -0.000160555 0)
(0.00225179 -0.00020643 0)
(0.00273004 -0.000271869 0)
(0.00334326 -0.000369495 0)
(0.00415859 -0.000525868 0)
(0.00530106 -0.000807581 0)
(0.00701481 -0.00142501 0)
(0.00950678 -0.00325373 0)
(5.83694e-05 -6.24871e-05 0)
(0.000175375 -6.53767e-05 0)
(0.000295015 -7.08516e-05 0)
(0.000421156 -7.88289e-05 0)
(0.000557264 -8.95294e-05 0)
(0.00070692 -0.000103506 0)
(0.000874287 -0.000121679 0)
(0.00106453 -0.000145417 0)
(0.00128433 -0.0001767 0)
(0.00154245 -0.000218406 0)
(0.00185074 -0.000274838 0)
(0.00222551 -0.000352721 0)
(0.00269 -0.000463221 0)
(0.00327851 -0.000626477 0)
(0.00404334 -0.000882902 0)
(0.00506205 -0.00132488 0)
(0.00640712 -0.00219419 0)
(0.00779259 -0.0041697 0)
(5.79394e-05 -9.0362e-05 0)
(0.000174097 -9.45477e-05 0)
(0.000292881 -0.000102463 0)
(0.000418074 -0.000113975 0)
(0.000553024 -0.00012939 0)
(0.00070117 -0.000149494 0)
(0.000866482 -0.000175597 0)
(0.00105387 -0.000209638 0)
(0.00126959 -0.000254412 0)
(0.00152184 -0.000313955 0)
(0.00182139 -0.000394242 0)
(0.00218272 -0.000504472 0)
(0.00262546 -0.000659564 0)
(0.00317622 -0.000885387 0)
(0.003869 -0.00123046 0)
(0.00473498 -0.00179327 0)
(0.00573877 -0.0027819 0)
(0.00652004 -0.00458621 0)
(5.7303e-05 -0.000119962 0)
(0.000172208 -0.000125534 0)
(0.000289733 -0.00013604 0)
(0.000413537 -0.000151276 0)
(0.000546798 -0.000171627 0)
(0.00069274 -0.00019811 0)
(0.000855061 -0.00023242 0)
(0.00103829 -0.000277059 0)
(0.00124814 -0.000335609 0)
(0.00149192 -0.000413191 0)
(0.00177903 -0.000517287 0)
(0.00212148 -0.000659172 0)
(0.00253441 -0.000856555 0)
(0.00303561 -0.0011386 0)
(0.00364108 -0.00155557 0)
(0.00434672 -0.00219626 0)
(0.00506923 -0.00320885 0)
(0.00551328 -0.00476504 0)
(5.64197e-05 -0.000151265 0)
(0.000169592 -0.000158321 0)
(0.000285388 -0.00017157 0)
(0.000407294 -0.000190702 0)
(0.000538251 -0.00021617 0)
(0.000681198 -0.000249208 0)
(0.000839466 -0.000291881 0)
(0.00101708 -0.000347224 0)
(0.00121905 -0.000419538 0)
(0.00145157 -0.000514898 0)
(0.00172229 -0.000642017 0)
(0.00204034 -0.000813677 0)
(0.00241591 -0.00104916 0)
(0.00285802 -0.0013783 0)
(0.00336777 -0.00184769 0)
(0.00391988 -0.00252765 0)
(0.00442292 -0.00350756 0)
(0.00467176 -0.00483174 0)
(5.52417e-05 -0.000184204 0)
(0.000166115 -0.000192854 0)
(0.000279639 -0.000208996 0)
(0.000399069 -0.000232174 0)
(0.000527034 -0.000262879 0)
(0.000666103 -0.000302547 0)
(0.000819142 -0.000353581 0)
(0.000989561 -0.000419488 0)
(0.00118147 -0.000505184 0)
(0.00139979 -0.000617499 0)
(0.00165014 -0.000766008 0)
(0.00193855 -0.000964308 0)
(0.00227022 -0.00123195 0)
(0.00264656 -0.00159711 0)
(0.00305821 -0.00209919 0)
(0.0034711 -0.002788 0)
(0.00380611 -0.00370793 0)
(0.00393464 -0.00484329 0)
(5.37126e-05 -0.000218647 0)
(0.000161624 -0.00022902 0)
(0.000272259 -0.00024821 0)
(0.00038857 -0.00027555 0)
(0.000512788 -0.000311539 0)
(0.000647018 -0.000357782 0)
(0.000793565 -0.000416971 0)
(0.000955104 -0.000493001 0)
(0.00113473 -0.000591253 0)
(0.00133588 -0.000719061 0)
(0.00156208 -0.000886419 0)
(0.00181618 -0.00110699 0)
(0.00209888 -0.00139941 0)
(0.00240568 -0.00178848 0)
(0.00272128 -0.00230505 0)
(0.00301142 -0.00298098 0)
(0.00321639 -0.00383211 0)
(0.00326259 -0.00482266 0)
(5.17635e-05 -0.000254378 0)
(0.000155936 -0.00026664 0)
(0.000262995 -0.000289043 0)
(0.000375495 -0.000320622 0)
(0.000495161 -0.000361845 0)
(0.000623542 -0.000414447 0)
(0.000762288 -0.000481342 0)
(0.000913238 -0.0005667 0)
(0.00107836 -0.000676184 0)
(0.00125957 -0.000817329 0)
(0.00145821 -0.00100008 0)
(0.00167425 -0.00123746 0)
(0.00190463 -0.0015462 0)
(0.00214077 -0.00194686 0)
(0.00236506 -0.00246206 0)
(0.00254766 -0.0031105 0)
(0.00264789 -0.00389348 0)
(0.00262856 -0.00477541 0)
(4.9307e-05 -0.000291067 0)
(0.000148836 -0.000305449 0)
(0.000251571 -0.000331255 0)
(0.000359537 -0.000367107 0)
(0.000473828 -0.000413402 0)
(0.000595341 -0.000471957 0)
(0.00072499 -0.000545828 0)
(0.000863701 -0.000639323 0)
(0.00101228 -0.000758175 0)
(0.00117107 -0.000909806 0)
(0.00133945 -0.00110365 0)
(0.00151483 -0.00135147 0)
(0.00169132 -0.00166746 0)
(0.00185792 -0.00206767 0)
(0.00199693 -0.00256791 0)
(0.00208423 -0.00317879 0)
(0.00209437 -0.00389717 0)
(0.00201305 -0.00469688 0)
(4.62253e-05 -0.000328224 0)
(0.000140052 -0.000345088 0)
(0.00023768 -0.000374539 0)
(0.000340398 -0.000414652 0)
(0.000448518 -0.000465725 0)
(0.000562192 -0.000529614 0)
(0.000681535 -0.000609419 0)
(0.000806529 -0.000709439 0)
(0.000936805 -0.000835255 0)
(0.00107127 -0.000993863 0)
(0.00120754 -0.00119378 0)
(0.00134105 -0.00144505 0)
(0.00146396 -0.00175896 0)
(0.001564 -0.00214724 0)
(0.00162426 -0.00262047 0)
(0.00162524 -0.00318526 0)
(0.00155138 -0.0038406 0)
(0.00140197 -0.00457428 0)
(4.26678e-05 -0.000362322 0)
(0.000130118 -0.000381982 0)
(0.000222356 -0.00041508 0)
(0.00031967 -0.000459078 0)
(0.000421481 -0.000514193 0)
(0.000527185 -0.000582289 0)
(0.000636139 -0.000666427 0)
(0.000747465 -0.000770762 0)
(0.00085978 -0.000900552 0)
(0.000970832 -0.00106217 0)
(0.00107696 -0.00126303 0)
(0.00117234 -0.00151133 0)
(0.0012481 -0.00181551 0)
(0.00129153 -0.00218357 0)
(0.00128617 -0.00262214 0)
(0.0012142 -0.00313613 0)
(0.0010631 -0.00372942 0)
(0.000837456 -0.00440602 0)
(3.83353e-05 -0.000394746 0)
(0.000118332 -0.000418086 0)
(0.000204709 -0.000455203 0)
(0.000296284 -0.000502928 0)
(0.000391415 -0.000561495 0)
(0.000488712 -0.000632771 0)
(0.000586786 -0.000719693 0)
(0.000683946 -0.000826139 0)
(0.000777899 -0.000956878 0)
(0.000865423 -0.00111749 0)
(0.000941921 -0.00131413 0)
(0.00100083 -0.00155307 0)
(0.00103292 -0.00183999 0)
(0.0010255 -0.00217926 0)
(0.000962131 -0.00257362 0)
(0.000823741 -0.00302577 0)
(0.000593901 -0.00354402 0)
(0.000273555 -0.0041522 0)
(3.1934e-05 -0.000428907 0)
(0.000101665 -0.000458492 0)
(0.000180951 -0.000500912 0)
(0.000265743 -0.000552719 0)
(0.00035294 -0.000614464 0)
(0.000440268 -0.000688053 0)
(0.000525553 -0.000776196 0)
(0.000606272 -0.000882305 0)
(0.000679258 -0.00101044 0)
(0.000740456 -0.00116516 0)
(0.000784666 -0.00135115 0)
(0.000805194 -0.00157262 0)
(0.000793323 -0.00183233 0)
(0.000737422 -0.00213048 0)
(0.000621238 -0.00246403 0)
(0.000421004 -0.0028282 0)
(0.000103165 -0.00322578 0)
(-0.000363453 -0.00369743 0)
(2.16852e-05 -0.000460365 0)
(7.69699e-05 -0.000502704 0)
(0.000148655 -0.000552321 0)
(0.000226099 -0.000608318 0)
(0.000304409 -0.000672434 0)
(0.000380522 -0.000746694 0)
(0.000451564 -0.00083343 0)
(0.000514258 -0.000935359 0)
(0.000564683 -0.00105559 0)
(0.000598179 -0.0011975 0)
(0.0006094 -0.00136437 0)
(0.000592372 -0.00155866 0)
(0.000540491 -0.00178084 0)
(0.000446061 -0.00202752 0)
(0.000297767 -0.00228804 0)
(7.15076e-05 -0.00253856 0)
(-0.000298389 -0.00273194 0)
(-0.00100349 -0.00278235 0)
(2.6863e-06 -0.000476764 0)
(3.71412e-05 -0.0005522 0)
(0.000104393 -0.000610302 0)
(0.000175341 -0.00066964 0)
(0.000244654 -0.000734469 0)
(0.00030923 -0.000806805 0)
(0.000365826 -0.000888317 0)
(0.000410625 -0.000980713 0)
(0.000439127 -0.00108589 0)
(0.000446209 -0.00120589 0)
(0.000426644 -0.00134316 0)
(0.000375757 -0.00149942 0)
(0.000290618 -0.00167572 0)
(0.000172722 -0.00187118 0)
(3.309e-05 -0.00208055 0)
(-9.73703e-05 -0.00228805 0)
(-0.000146035 -0.00245141 0)
(5.25402e-05 -0.00246613 0)
(9.81499e-06 -0.000234393 0)
(2.08655e-05 -0.000287358 0)
(2.34021e-05 -0.000319751 0)
(2.64128e-05 -0.000350454 0)
(3.02071e-05 -0.000382896 0)
(3.47606e-05 -0.000418199 0)
(4.01284e-05 -0.000457037 0)
(4.6427e-05 -0.000499979 0)
(5.38223e-05 -0.000547635 0)
(6.25301e-05 -0.000600671 0)
(7.2847e-05 -0.000660173 0)
(8.51468e-05 -0.000726999 0)
(9.9893e-05 -0.000802316 0)
(0.000117615 -0.000887446 0)
(0.000138988 -0.000984446 0)
(0.000165369 -0.00109661 0)
(0.000199067 -0.00122681 0)
(0.000243683 -0.00137978 0)
(0.000124186 0.000153728 0)
(0.000358751 0.000166251 0)
(0.000575896 0.00016301 0)
(0.000786088 0.000155549 0)
(0.000987112 0.000149767 0)
(0.00117451 0.000148552 0)
(0.00134589 0.000153265 0)
(0.00150188 0.000164715 0)
(0.00164588 0.000183496 0)
(0.00178323 0.000210754 0)
(0.00192005 0.00024913 0)
(0.00206385 0.000299815 0)
(0.00222803 0.000358537 0)
(0.00242015 0.00048547 0)
(0.00263452 0.000724119 0)
(0.00290067 0.00093083 0)
(0.00326948 0.0010966 0)
(0.00375892 0.00126188 0)
(0.000156752 0.000444833 0)
(0.000463062 0.000487988 0)
(0.000754419 0.000496421 0)
(0.0010321 0.000494441 0)
(0.00130027 0.000496764 0)
(0.00156376 0.000512589 0)
(0.00182864 0.000548499 0)
(0.00210305 0.000613424 0)
(0.00240063 0.000718107 0)
(0.0027481 0.000885038 0)
(0.0031852 0.00119482 0)
(0.00377946 0.00182419 0)
(0.00501313 0.0022357 0)
(0.00791239 0.00273941 0)
(0.0120724 0.00301926 0)
(0.0155917 0.00287172 0)
(0.0181057 0.0027172 0)
(0.0202106 0.0026407 0)
(0.000165575 0.000699245 0)
(0.000497574 0.000756779 0)
(0.000827731 0.000785996 0)
(0.00115351 0.00080869 0)
(0.00148044 0.000841883 0)
(0.00181997 0.00090338 0)
(0.00219588 0.00100913 0)
(0.00265014 0.00121625 0)
(0.00328677 0.00162843 0)
(0.00457352 0.00261784 0)
(0.00887828 0.00366126 0)
(0.0148831 0.00359386 0)
(0.0188346 0.00348121 0)
(0.0209786 0.00376067 0)
(0.0222565 0.00378018 0)
(0.023031 0.00333045 0)
(0.0235121 0.00286829 0)
(0.0238391 0.00247538 0)
(0.000183148 0.00090178 0)
(0.000553794 0.00096588 0)
(0.000931402 0.00101522 0)
(0.00131708 0.00107343 0)
(0.00172915 0.00115923 0)
(0.00220261 0.00133297 0)
(0.00286884 0.0016381 0)
(0.00415169 0.00268976 0)
(0.00886144 0.0041024 0)
(0.0155061 0.00379561 0)
(0.0194783 0.00424574 0)
(0.0210422 0.00355959 0)
(0.021598 0.00296934 0)
(0.0219061 0.0027684 0)
(0.0222451 0.00265656 0)
(0.0226136 0.00245904 0)
(0.022955 0.00220102 0)
(0.0232535 0.00192529 0)
(0.000210385 0.00109809 0)
(0.00063905 0.00118088 0)
(0.00109136 0.00126857 0)
(0.0015828 0.00141819 0)
(0.00220776 0.00165473 0)
(0.00316303 0.00246694 0)
(0.00657178 0.00395021 0)
(0.0130455 0.00423837 0)
(0.018229 0.00465026 0)
(0.0200688 0.00334718 0)
(0.0205355 0.00287158 0)
(0.0208965 0.0027271 0)
(0.0212788 0.00249949 0)
(0.0216248 0.00230077 0)
(0.021954 0.00212 0)
(0.0222678 0.00192413 0)
(0.0225554 0.00170777 0)
(0.0228106 0.00147613 0)
(0.0002585 0.00134355 0)
(0.000789638 0.00149797 0)
(0.00141127 0.00170493 0)
(0.00222375 0.00230489 0)
(0.00435961 0.00358867 0)
(0.00978028 0.00472629 0)
(0.0156509 0.00480452 0)
(0.0184471 0.00400419 0)
(0.0193431 0.00306652 0)
(0.0198007 0.0027504 0)
(0.0202437 0.00246196 0)
(0.0206512 0.00225158 0)
(0.0210343 0.00205509 0)
(0.0213847 0.00187328 0)
(0.0217052 0.00169896 0)
(0.0219962 0.00152112 0)
(0.0222553 0.00133463 0)
(0.0224803 0.00113854 0)
(0.000377513 0.00184526 0)
(0.00118948 0.00240261 0)
(0.00276094 0.0034721 0)
(0.00674892 0.00482852 0)
(0.0120416 0.00496332 0)
(0.0158381 0.00510994 0)
(0.017535 0.00349124 0)
(0.0182652 0.00306206 0)
(0.0189523 0.00259817 0)
(0.019514 0.00228095 0)
(0.0200078 0.00203134 0)
(0.0204475 0.00183299 0)
(0.0208431 0.00165966 0)
(0.0211973 0.00150077 0)
(0.0215132 0.00134856 0)
(0.0217923 0.00119639 0)
(0.0220349 0.00104029 0)
(0.0222409 0.000878418 0)
(0.00113031 0.00395416 0)
(0.00415428 0.0048796 0)
(0.00810166 0.00523146 0)
(0.0118733 0.00571102 0)
(0.0143566 0.0042511 0)
(0.0158425 0.00364414 0)
(0.0170425 0.00289959 0)
(0.0179321 0.0024574 0)
(0.0186775 0.0020987 0)
(0.0192979 0.00183111 0)
(0.0198299 0.00162238 0)
(0.0202932 0.00145366 0)
(0.0207007 0.0013083 0)
(0.0210591 0.00117621 0)
(0.021373 0.00105052 0)
(0.0216455 0.000926257 0)
(0.0218783 0.000800279 0)
(0.0220724 0.000670908 0)
(0.00196461 0.00539026 0)
(0.00589052 0.00574644 0)
(0.00926018 0.004812 0)
(0.0118621 0.00412298 0)
(0.0139104 0.00330753 0)
(0.0154777 0.00277115 0)
(0.0167243 0.00225897 0)
(0.017694 0.00189996 0)
(0.018487 0.00162288 0)
(0.0191454 0.00141182 0)
(0.0197036 0.00124657 0)
(0.0201836 0.00111224 0)
(0.0206001 0.000996994 0)
(0.020962 0.000892821 0)
(0.0212754 0.000794228 0)
(0.0215442 0.000697423 0)
(0.021771 0.000599986 0)
(0.0219579 0.000500567 0)
(0.00195166 0.00428895 0)
(0.005713 0.00408045 0)
(0.00895053 0.0034822 0)
(0.0115532 0.00296512 0)
(0.0136233 0.00241818 0)
(0.0152397 0.00201156 0)
(0.016522 0.00165498 0)
(0.0175363 0.0013897 0)
(0.0183612 0.00118645 0)
(0.019044 0.00103045 0)
(0.0196192 0.000907876 0)
(0.0201103 0.000807969 0)
(0.020533 0.000722394 0)
(0.0208976 0.000645274 0)
(0.0212109 0.000572547 0)
(0.0214776 0.000501444 0)
(0.0217009 0.000430195 0)
(0.0218834 0.000357795 0)
(0.00191677 0.00283197 0)
(0.00558548 0.0026825 0)
(0.00876874 0.00231468 0)
(0.0113692 0.0019679 0)
(0.013452 0.00161723 0)
(0.0150951 0.00134243 0)
(0.0164001 0.00110892 0)
(0.0174396 0.000930938 0)
(0.0182838 0.0007945 0)
(0.0189813 0.000689384 0)
(0.019567 0.000606608 0)
(0.020065 0.000539041 0)
(0.0204916 0.000481205 0)
(0.0208579 0.000429172 0)
(0.0211713 0.000380211 0)
(0.0214368 0.000332464 0)
(0.0216581 0.000284746 0)
(0.021838 0.000236379 0)
(0.00189717 0.0015818 0)
(0.00551842 0.00149544 0)
(0.0086731 0.00129722 0)
(0.0112711 0.00110261 0)
(0.0133605 0.000909384 0)
(0.0150171 0.0007544 0)
(0.0163345 0.000624309 0)
(0.0173871 0.000524126 0)
(0.0182418 0.000447221 0)
(0.0189472 0.00038786 0)
(0.0195385 0.000341055 0)
(0.0200402 0.000302822 0)
(0.020469 0.000270105 0)
(0.0208363 0.000240697 0)
(0.0211497 0.000213058 0)
(0.0214147 0.000186141 0)
(0.0216349 0.000159279 0)
(0.0218135 0.000132088 0)
(0.0018891 0.000501584 0)
(0.00549156 0.000473859 0)
(0.0086348 0.000411908 0)
(0.0112315 0.000350122 0)
(0.0133235 0.000289172 0)
(0.0149855 0.000239851 0)
(0.0163079 0.00019863 0)
(0.0173658 0.000166763 0)
(0.0182247 0.000142282 0)
(0.0189333 0.000123371 0)
(0.0195269 0.000108452 0)
(0.0200301 9.62618e-05 0)
(0.0204598 8.58313e-05 0)
(0.0208275 7.64591e-05 0)
(0.021141 6.7655e-05 0)
(0.0214057 5.90862e-05 0)
(0.0216255 5.05398e-05 0)
(0.0218035 4.1894e-05 0)
(8.23497e-05 -0.000176019 -2.27402e-30)
(0.000247752 -0.000175841 2.26977e-30)
(0.000414294 -0.00017556 0)
(0.000581884 -0.000175174 0)
(0.000750429 -0.000174681 0)
(0.000919827 -0.00017408 -2.23908e-30)
(0.00108998 -0.000173371 0)
(0.00126077 -0.000172553 0)
(0.0014321 -0.000171626 0)
(0.00160386 -0.000170589 0)
(0.00177593 -0.000169443 2.16903e-30)
(0.00194819 -0.000168189 0)
(0.00212053 -0.000166828 0)
(0.00229282 -0.000165361 0)
(0.00246494 -0.000163789 0)
(0.00263677 -0.000162115 2.06416e-30)
(0.00280819 -0.00016034 0)
(0.00297908 -0.000158468 0)
(0.00314929 -0.0001565 0)
(0.00331873 -0.000154439 0)
(0.00348725 -0.000152289 0)
(0.00365473 -0.000150054 0)
(0.00382107 -0.000147735 0)
(0.00398612 -0.000145338 1.8314e-30)
(0.00414978 -0.000142867 -1.79752e-30)
(0.00431193 -0.000140325 1.76275e-30)
(0.00447244 -0.000137717 1.72715e-30)
(0.00463123 -0.000135047 0)
(0.00478816 -0.000132322 0)
(0.00494314 -0.000129544 -1.61596e-30)
(0.00509607 -0.00012672 -1.57765e-30)
(0.00524685 -0.000123854 0)
(0.00539538 -0.000120952 0)
(0.00554158 -0.000118018 -1.45994e-30)
(0.00568537 -0.00011506 0)
(0.00582666 -0.000112081 0)
(0.00596538 -0.000109087 1.3395e-30)
(0.00610148 -0.000106084 0)
(0.00623487 -0.000103077 1.25863e-30)
(0.00636552 -0.000100071 2.43648e-30)
(0.00649336 -9.70709e-05 0)
(0.00661836 -9.40825e-05 0)
(0.00674047 -9.11103e-05 0)
(0.00685967 -8.81591e-05 0)
(0.00697593 -8.52333e-05 0)
(0.00708923 -8.23372e-05 1.96099e-30)
(0.00719955 -7.9475e-05 1.88441e-30)
(0.00730689 -7.66505e-05 1.80886e-30)
(0.00741125 -7.38673e-05 0)
(0.00751262 -7.11288e-05 -1.66127e-30)
(0.00761102 -6.8438e-05 0)
(0.00770646 -6.57978e-05 1.51889e-30)
(0.00779895 -6.32107e-05 1.44983e-30)
(0.00788853 -6.0679e-05 0)
(0.00797521 -5.82047e-05 0)
(0.00805902 -5.57896e-05 0)
(0.00814001 -5.34352e-05 1.18909e-30)
(0.00821821 -5.11426e-05 0)
(0.00829366 -4.8913e-05 0)
(0.00836641 -4.67471e-05 0)
(0.0084365 -4.46454e-05 0)
(0.00850399 -4.26084e-05 0)
(0.00856892 -4.0636e-05 0)
(0.00863135 -3.87283e-05 0)
(0.00869133 -3.68851e-05 0)
(0.00874893 -3.51059e-05 -7.00911e-31)
(0.0088042 -3.33903e-05 0)
(0.0088572 -3.17375e-05 0)
(0.00890798 -3.01468e-05 5.68967e-31)
(0.00895662 -2.86172e-05 5.28275e-31)
(0.00900317 -2.71477e-05 0)
(0.0090477 -2.57372e-05 -4.51684e-31)
(0.00909025 -2.43846e-05 4.15711e-31)
(0.00913091 -2.30885e-05 0)
(0.00916972 -2.18476e-05 -3.48254e-31)
(0.00920675 -2.06605e-05 0)
(0.00924205 -1.95259e-05 0)
(0.0092757 -1.84422e-05 2.57729e-31)
(0.00930774 -1.74081e-05 0)
(0.00933823 -1.64219e-05 -2.04029e-31)
(0.00936724 -1.54823e-05 0)
(0.00939481 -1.45876e-05 1.55273e-31)
(0.00942101 -1.37363e-05 1.32652e-31)
(0.00944589 -1.2927e-05 1.11144e-31)
(0.00946949 -1.21581e-05 1.81425e-31)
(0.00949188 -1.14281e-05 -1.42624e-31)
(0.00951309 -1.07355e-05 0)
(0.00953319 -1.0079e-05 0)
(0.00955222 -9.45693e-06 0)
(0.00957022 -8.86802e-06 -6.57567e-33)
(0.00958724 -8.31086e-06 2.3035e-32)
(0.00960333 -7.78409e-06 -5.10265e-32)
(0.00961853 -7.28638e-06 0)
(0.00963287 -6.81646e-06 1.02445e-31)
(0.0096464 -6.37305e-06 1.26012e-31)
(0.00965916 -5.95495e-06 1.4823e-31)
(0.00967118 -5.56096e-06 0)
(0.0096825 -5.18995e-06 0)
(0.00969315 -4.84079e-06 0)
(0.00970317 -4.51242e-06 2.24885e-31)
(0.0097126 -4.2038e-06 0)
(0.00972145 -3.91392e-06 0)
(0.00972976 -3.64184e-06 -2.71144e-31)
(0.00973756 -3.38661e-06 0)
(0.00974487 -3.14735e-06 0)
(0.00975173 -2.92321e-06 -3.09336e-31)
(0.00975815 -2.71337e-06 0)
(0.00976416 -2.51704e-06 0)
(0.00976978 -2.33347e-06 3.40677e-31)
(0.00977504 -2.16194e-06 3.49793e-31)
(0.00977995 -2.00178e-06 0)
(0.00978454 -1.85231e-06 -3.66252e-31)
(0.00978882 -1.71292e-06 0)
(0.00979282 -1.58302e-06 3.80562e-31)
(0.00979654 -1.46203e-06 0)
(0.00980001 -1.34943e-06 3.92981e-31)
(0.00980324 -1.24469e-06 3.98543e-31)
(0.00980624 -1.14733e-06 0)
(0.00980903 -1.0569e-06 0)
(0.00981162 -9.72956e-07 0)
(0.00981403 -8.95082e-07 0)
(0.00981627 -8.22891e-07 0)
(0.00981834 -7.56011e-07 0)
(0.00982026 -6.94093e-07 0)
(0.00982204 -6.36808e-07 4.30863e-31)
(0.00982369 -5.83843e-07 -4.33674e-31)
(0.00982521 -5.34905e-07 0)
(0.00982662 -4.89717e-07 0)
(0.00982791 -4.48019e-07 0)
(0.00982911 -4.09565e-07 0)
(0.00983022 -3.74124e-07 -8.89651e-31)
(0.00983124 -3.41478e-07 0)
(0.00983218 -3.11423e-07 8.96321e-31)
(0.00983304 -2.83766e-07 -8.99263e-31)
(0.00983383 -2.58325e-07 0)
(0.00983456 -2.34929e-07 0)
(0.00983523 -2.13417e-07 0)
(0.00983584 -1.93634e-07 9.08851e-31)
(0.0098364 -1.75436e-07 9.10785e-31)
(0.00983691 -1.58683e-07 0)
(0.00983738 -1.43242e-07 9.14202e-31)
(0.0098378 -1.28983e-07 9.15713e-31)
(0.00983819 -1.1578e-07 -9.1712e-31)
(0.00983853 -1.03506e-07 0)
(0.00983885 -9.20351e-08 0)
(0.00983913 -8.1238e-08 -9.2078e-31)
(0.00983938 -7.09785e-08 0)
(0.00983959 -6.11115e-08 0)
(0.00983978 -5.1478e-08 0)
(0.00983994 -4.19e-08 0)
(0.00984006 -3.21739e-08 9.2594e-31)
(0.00984016 -2.20622e-08 9.26995e-31)
(0.00984021 -1.12827e-08 0)
(0.00984023 5.04661e-10 9.29336e-31)
(0.00984021 1.37151e-08 0)
(0.00984013 2.88612e-08 0)
(0.00984 4.65815e-08 9.34078e-31)
(0.00983979 6.76777e-08 0)
(0.0098395 9.31629e-08 9.38849e-31)
(0.00983909 1.24325e-07 0)
(0.00983856 1.62813e-07 0)
(0.00983786 2.10745e-07 9.50849e-31)
(0.00983694 2.70865e-07 0)
(0.00983576 3.46744e-07 9.64712e-31)
(0.00983423 4.43067e-07 0)
(0.00983226 5.66034e-07 0)
(0.00982972 7.23927e-07 0)
(0.00982644 9.27947e-07 -1.02393e-30)
(0.00982217 1.19347e-06 0)
(0.00981663 1.54199e-06 1.08649e-30)
(0.00980937 2.00424e-06 0)
(0.00979979 2.6255e-06 0)
(0.00978706 3.47493e-06 0)
(0.0097699 4.66334e-06 0)
(0.0097464 6.37981e-06 0)
(0.0097134 8.97533e-06 0)
(0.0096653 1.31831e-05 0)
(0.00959077 2.08218e-05 -6.1173e-30)
(0.00946116 3.77222e-05 0)
(0.0091739 9.07146e-05 0)
(8.25645e-05 -0.000528516 6.82797e-30)
(0.000248397 -0.000527981 -6.81517e-30)
(0.00041537 -0.000527134 0)
(0.000583391 -0.000525971 1.35685e-29)
(0.000752365 -0.000524487 0)
(0.000922189 -0.000522679 -6.74458e-30)
(0.00109276 -0.000520544 -1.34041e-29)
(0.00126397 -0.00051808 -1.33323e-29)
(0.00143572 -0.000515287 0)
(0.00160788 -0.000512166 -1.31632e-29)
(0.00178034 -0.000508716 6.55399e-30)
(0.00195298 -0.000504942 0)
(0.00212569 -0.000500845 0)
(0.00229835 -0.000496429 0)
(0.00247082 -0.000491699 0)
(0.00264299 -0.000486662 6.25875e-30)
(0.00281473 -0.000481322 0)
(0.00298592 -0.000475688 1.21552e-29)
(0.00315643 -0.000469768 0)
(0.00332614 -0.000463569 0)
(0.00349492 -0.000457102 -1.16508e-29)
(0.00366265 -0.000450377 0)
(0.0038292 -0.000443405 1.12809e-29)
(0.00399446 -0.000436197 5.59056e-30)
(0.00415831 -0.000428765 -5.49256e-30)
(0.00432062 -0.000421121 5.39186e-30)
(0.00448129 -0.00041328 5.28862e-30)
(0.00464021 -0.000405255 0)
(0.00479725 -0.000397061 0)
(0.00495233 -0.000388711 -4.96551e-30)
(0.00510533 -0.000380222 -1.44414e-29)
(0.00525617 -0.000371608 0)
(0.00540474 -0.000362886 0)
(0.00555096 -0.000354071 -4.51073e-30)
(0.00569474 -0.00034518 0)
(0.00583602 -0.00033623 0)
(0.00597471 -0.000327235 4.15888e-30)
(0.00611075 -0.000318213 0)
(0.00624407 -0.000309179 1.16196e-29)
(0.00637463 -0.000300149 7.60818e-30)
(0.00650238 -0.00029114 0)
(0.00662726 -0.000282165 0)
(0.00674925 -0.000273239 -1.34887e-29)
(0.00686831 -0.000264377 -1.30193e-29)
(0.00698442 -0.000255592 -1.25542e-29)
(0.00709756 -0.000246898 1.83086e-29)
(0.00720771 -0.000238305 5.98987e-30)
(0.00731487 -0.000229827 -5.42276e-30)
(0.00741904 -0.000221473 1.07492e-29)
(0.00752022 -0.000213254 -5.33494e-30)
(0.00761842 -0.000205179 0)
(0.00771366 -0.000197256 4.91684e-30)
(0.00780595 -0.000189493 1.37734e-29)
(0.00789531 -0.000181898 0)
(0.00798178 -0.000174474 0)
(0.00806538 -0.000167229 0)
(0.00814616 -0.000160167 3.94789e-30)
(0.00822414 -0.000153291 0)
(0.00829938 -0.000146604 6.79545e-30)
(0.00837192 -0.000140108 0)
(0.0084418 -0.000133805 6.12034e-30)
(0.00850907 -0.000127697 0)
(0.0085738 -0.000121783 -5.48632e-30)
(0.00863603 -0.000116063 0)
(0.00869581 -0.000110536 4.89338e-30)
(0.00875322 -0.000105202 -7.12496e-30)
(0.0088083 -0.000100059 0)
(0.00886111 -9.51044e-05 -4.07996e-30)
(0.00891172 -9.0336e-05 2.12473e-30)
(0.00896018 -8.5751e-05 2.00507e-30)
(0.00900656 -8.13464e-05 0)
(0.00905092 -7.71188e-05 -4.91199e-30)
(0.00909332 -7.30646e-05 1.67399e-30)
(0.00913382 -6.91801e-05 0)
(0.00917248 -6.54611e-05 -1.47557e-30)
(0.00920937 -6.19036e-05 -2.33063e-30)
(0.00924453 -5.85034e-05 0)
(0.00927805 -5.5256e-05 1.20929e-30)
(0.00930996 -5.2157e-05 0)
(0.00934033 -4.92019e-05 6.10279e-31)
(0.00936922 -4.63862e-05 0)
(0.00939668 -4.37053e-05 -4.64205e-31)
(0.00942278 -4.11545e-05 8.41354e-31)
(0.00944755 -3.87295e-05 1.88815e-30)
(0.00947105 -3.64256e-05 3.41343e-30)
(0.00949335 -3.42383e-05 -3.06892e-30)
(0.00951448 -3.21633e-05 0)
(0.00953449 -3.01961e-05 0)
(0.00955344 -2.83324e-05 0)
(0.00957137 -2.65679e-05 1.76866e-32)
(0.00958832 -2.48986e-05 -8.34482e-31)
(0.00960434 -2.33204e-05 7.52134e-31)
(0.00961947 -2.18293e-05 0)
(0.00963375 -2.04214e-05 -8.92821e-31)
(0.00964722 -1.90929e-05 -5.31551e-31)
(0.00965993 -1.78403e-05 -4.66192e-31)
(0.0096719 -1.666e-05 0)
(0.00968317 -1.55484e-05 0)
(0.00969378 -1.45024e-05 0)
(0.00970376 -1.35186e-05 -2.40696e-31)
(0.00971314 -1.2594e-05 0)
(0.00972195 -1.17256e-05 6.23824e-31)
(0.00973023 -1.09104e-05 8.14286e-31)
(0.00973799 -1.01458e-05 -7.90206e-31)
(0.00974528 -9.42905e-06 0)
(0.0097521 -8.75756e-06 -9.44135e-31)
(0.0097585 -8.12891e-06 0)
(0.00976448 -7.54073e-06 -1.06457e-30)
(0.00977008 -6.99079e-06 1.2224e-30)
(0.00977532 -6.47693e-06 1.30334e-30)
(0.00978021 -5.99709e-06 0)
(0.00978478 -5.54932e-06 1.09917e-30)
(0.00978904 -5.13173e-06 -1.31828e-30)
(0.00979302 -4.74256e-06 2.17227e-31)
(0.00979673 -4.38011e-06 0)
(0.00980018 -4.04276e-06 2.53747e-31)
(0.00980339 -3.72898e-06 -1.19593e-30)
(0.00980639 -3.43732e-06 0)
(0.00980917 -3.1664e-06 -1.5253e-30)
(0.00981175 -2.91492e-06 -1.55179e-30)
(0.00981415 -2.68162e-06 -1.57637e-30)
(0.00981637 -2.46534e-06 0)
(0.00981844 -2.26498e-06 0)
(0.00982035 -2.07948e-06 0)
(0.00982212 -1.90786e-06 2.02303e-30)
(0.00982376 -1.74919e-06 -3.73431e-31)
(0.00982528 -1.60257e-06 0)
(0.00982668 -1.4672e-06 1.7043e-30)
(0.00982797 -1.34227e-06 1.71746e-30)
(0.00982917 -1.22707e-06 0)
(0.00983027 -1.12089e-06 -8.12442e-31)
(0.00983128 -1.02309e-06 3.50218e-30)
(0.00983222 -9.33046e-07 8.3205e-31)
(0.00983307 -8.50188e-07 -4.37931e-30)
(0.00983386 -7.7397e-07 0)
(0.00983459 -7.03879e-07 0)
(0.00983525 -6.39431e-07 0)
(0.00983586 -5.80166e-07 8.68887e-31)
(0.00983642 -5.25649e-07 4.48156e-30)
(0.00983693 -4.75462e-07 3.61756e-30)
(0.0098374 -4.29205e-07 8.84636e-31)
(0.00983782 -3.86492e-07 4.52538e-30)
(0.0098382 -3.46942e-07 -8.9322e-31)
(0.00983855 -3.10179e-07 0)
(0.00983886 -2.75825e-07 0)
(0.00983914 -2.43491e-07 -4.57037e-30)
(0.00983939 -2.12772e-07 0)
(0.00983961 -1.83232e-07 0)
(0.00983979 -1.54398e-07 3.68503e-30)
(0.00983995 -1.25736e-07 0)
(0.00984007 -9.66388e-08 4.61636e-30)
(0.00984017 -6.63962e-08 9.22412e-31)
(0.00984023 -3.41657e-08 0)
(0.00984025 1.06826e-09 4.64675e-30)
(0.00984022 4.05459e-08 0)
(0.00984015 8.57976e-08 0)
(0.00984002 1.3873e-07 9.43608e-31)
(0.00983982 2.01736e-07 3.75869e-30)
(0.00983953 2.77839e-07 9.57947e-31)
(0.00983913 3.70885e-07 0)
(0.00983861 4.85791e-07 0)
(0.00983792 6.2888e-07 4.84039e-30)
(0.00983702 8.08334e-07 0)
(0.00983585 1.0348e-06 4.96533e-30)
(0.00983435 1.32226e-06 0)
(0.00983241 1.68917e-06 0)
(0.00982991 2.1602e-06 0)
(0.00982667 2.76868e-06 -1.21428e-30)
(0.00982248 3.56032e-06 0)
(0.00981703 4.59894e-06 1.40261e-30)
(0.0098099 5.97564e-06 0)
(0.00980051 7.82427e-06 0)
(0.00978804 1.03486e-05 5.83745e-30)
(0.00977128 1.38735e-05 -6.56005e-30)
(0.00974843 1.89489e-05 0)
(0.00971656 2.65828e-05 0)
(0.00967075 3.88322e-05 0)
(0.00960193 6.05647e-05 1.79651e-29)
(0.00949255 0.000105898 0)
(0.00931999 0.000228019 -1.01348e-28)
(8.29968e-05 -0.000882397 4.56089e-29)
(0.000249695 -0.000881497 -5.94248e-33)
(0.000417535 -0.000880076 0)
(0.000586423 -0.000878123 1.38922e-32)
(0.000756259 -0.000875631 0)
(0.000926941 -0.000872594 0)
(0.00109836 -0.000869008 -4.47969e-29)
(0.00127041 -0.000864872 -2.22964e-29)
(0.00144298 -0.000860183 2.21329e-29)
(0.00161595 -0.000854944 -2.20234e-29)
(0.0017892 -0.000849155 0)
(0.00196262 -0.000842821 0)
(0.00213608 -0.000835946 -2.14573e-29)
(0.00230946 -0.000828539 -4.25072e-29)
(0.00248263 -0.000820607 4.20725e-29)
(0.00265547 -0.000812159 0)
(0.00282786 -0.000803207 4.11241e-29)
(0.00299966 -0.000793763 2.03766e-29)
(0.00317076 -0.000783839 0)
(0.00334102 -0.000773453 3.95131e-29)
(0.00351031 -0.000762618 -1.95474e-29)
(0.00367853 -0.000751352 -3.83227e-29)
(0.00384553 -0.000739673 1.89385e-29)
(0.0040112 -0.000727601 0)
(0.00417543 -0.000715156 3.63811e-29)
(0.00433808 -0.00070236 3.56965e-29)
(0.00449905 -0.000689234 0)
(0.00465823 -0.000675801 3.42781e-29)
(0.0048155 -0.000662087 0)
(0.00497076 -0.000648115 3.28025e-29)
(0.00512391 -0.000633911 -1.61442e-29)
(0.00527486 -0.000619501 0)
(0.0054235 -0.000604912 0)
(0.00556975 -0.000590171 0)
(0.00571354 -0.000575304 0)
(0.00585477 -0.000560338 0)
(0.00599339 -0.000545302 0)
(0.00612932 -0.000530223 2.65435e-29)
(0.00626251 -0.000515126 -1.27242e-29)
(0.0063929 -0.000500039 0)
(0.00652045 -0.000484987 0)
(0.0066451 -0.000469996 0)
(0.00676684 -0.00045509 -4.54575e-29)
(0.00688562 -0.000440293 -2.21123e-29)
(0.00700142 -0.000425627 -3.30644e-31)
(0.00711424 -0.000411114 3.35967e-31)
(0.00722405 -0.000396774 -1.94893e-29)
(0.00733085 -0.000382627 -1.9089e-29)
(0.00743465 -0.00036869 3.63663e-29)
(0.00753544 -0.00035498 1.72845e-29)
(0.00763324 -0.000341512 0)
(0.00772807 -0.000328301 1.5878e-29)
(0.00781994 -0.000315359 3.0761e-29)
(0.00790888 -0.000302697 0)
(0.00799492 -0.000290324 0)
(0.0080781 -0.00027825 -1.32409e-29)
(0.00815844 -0.000266482 0)
(0.008236 -0.000255026 0)
(0.00831081 -0.000243887 3.46865e-29)
(0.00838292 -0.000233068 2.17236e-29)
(0.00845238 -0.000222571 1.07084e-29)
(0.00851924 -0.0002124 0)
(0.00858355 -0.000202553 -9.6611e-30)
(0.00864538 -0.00019303 0)
(0.00870477 -0.000183831 2.52232e-29)
(0.00876178 -0.000174952 -8.21737e-30)
(0.00881648 -0.000166392 -1.47067e-29)
(0.00886892 -0.000158147 -2.11777e-29)
(0.00891917 -0.000150212 0)
(0.00896728 -0.000142583 1.22022e-29)
(0.00901333 -0.000135255 0)
(0.00905735 -0.000128222 4.91818e-30)
(0.00909943 -0.000121478 9.98246e-30)
(0.00913963 -0.000115016 9.30297e-30)
(0.00917799 -0.00010883 -8.6525e-30)
(0.00921459 -0.000102913 3.58007e-30)
(0.00924948 -9.72583e-05 0)
(0.00928273 -9.18577e-05 0)
(0.00931439 -8.67043e-05 -6.32612e-30)
(0.00934452 -8.17903e-05 -2.4635e-30)
(0.00937318 -7.71083e-05 0)
(0.00940042 -7.26506e-05 -2.86819e-30)
(0.0094263 -6.84096e-05 0)
(0.00945086 -6.43777e-05 -1.54321e-30)
(0.00947418 -6.05473e-05 8.0473e-30)
(0.00949629 -5.69109e-05 -7.28487e-30)
(0.00951724 -5.34612e-05 2.83141e-30)