/*--------------------------------*- C++ -*----------------------------------*\
  =========                 |
  \\      /  F ield         | OpenFOAM: The Open Source CFD Toolbox
   \\    /   O peration     | Website:  https://openfoam.org
    \\  /    A nd           | Version:  10
     \\/     M anipulation  |
\*---------------------------------------------------------------------------*/
FoamFile
{
    format      ascii;
    class       volVectorField;
    location    "0.13";
    object      Ua;
}
// * * * * * * * * * * * * * * * * * * * * * * * * * * * * * * * * * * * * * //

dimensions      [0 1 -1 0 0 0 0];

internalField   nonuniform List<vector> 
12225
(
(0.0275472 -0.00552966 0)
(0.0612647 -0.00129463 0)
(0.0643059 0.000683842 0)
(0.0568934 0.000975116 0)
(0.0490644 0.000840734 0)
(0.0427221 0.000690739 0)
(0.0378498 0.000534002 0)
(0.0342815 0.000399975 0)
(0.0317464 0.000290992 0)
(0.0300105 0.000201595 0)
(0.0289032 0.000125353 0)
(0.0283137 5.53742e-05 0)
(0.028189 -1.67102e-05 0)
(0.0285423 -0.000103496 0)
(0.029489 -0.000229671 0)
(0.0313708 -0.000459526 0)
(0.0352614 -0.00102617 0)
(0.0458386 -0.00319236 0)
(0.00799378 -0.0067066 0)
(0.0419677 -0.00820971 0)
(0.0646296 0.00214492 0)
(0.0569284 0.00301964 0)
(0.0489944 0.00258388 0)
(0.0426436 0.00212267 0)
(0.0377724 0.0016391 0)
(0.0342142 0.00122703 0)
(0.0316892 0.000892518 0)
(0.0299607 0.000618336 0)
(0.0288574 0.000384721 0)
(0.0282673 0.00017065 0)
(0.0281349 -4.91797e-05 0)
(0.0284665 -0.00031223 0)
(0.0293567 -0.000689846 0)
(0.0310618 -0.00135752 0)
(0.0341535 -0.00287725 0)
(0.0390353 -0.00763342 0)
(0.000316268 -0.00176041 0)
(0.00487869 -0.00788345 0)
(0.0353189 -0.00361207 0)
(0.0569514 0.00528187 0)
(0.0488331 0.00445508 0)
(0.0424686 0.00366049 0)
(0.0375999 0.00281921 0)
(0.0340647 0.00210797 0)
(0.0315623 0.00153266 0)
(0.0298504 0.00106187 0)
(0.0287561 0.000661537 0)
(0.0281651 0.00029597 0)
(0.0280165 -7.69935e-05 0)
(0.0283034 -0.000517726 0)
(0.0290824 -0.00113491 0)
(0.030484 -0.00217033 0)
(0.0326177 -0.00426021 0)
(0.0345733 -0.00920587 0)
(0.000151302 -0.0010334 0)
(0.000539536 -0.00153869 0)
(0.0124386 -0.00661876 0)
(0.0380968 0.00255606 0)
(0.0485454 0.00645945 0)
(0.0421751 0.0053155 0)
(0.0373103 0.00407493 0)
(0.0338156 0.00304118 0)
(0.0313515 0.00220972 0)
(0.0296677 0.00153103 0)
(0.0285889 0.000955771 0)
(0.0279974 0.000433376 0)
(0.0278247 -9.41813e-05 0)
(0.0280459 -0.000705856 0)
(0.0286718 -0.00153262 0)
(0.0297128 -0.00282984 0)
(0.0309989 -0.00513363 0)
(0.0314709 -0.0094352 0)
(0.000112494 -0.000831178 0)
(0.000342746 -0.00101772 0)
(0.000828213 -0.00216595 0)
(0.0256363 -0.00789399 0)
(0.0473335 0.00835333 0)
(0.0417379 0.00710353 0)
(0.0368759 0.0054038 0)
(0.0334465 0.00402258 0)
(0.0310409 0.00292025 0)
(0.0293994 0.00202339 0)
(0.0283446 0.00126666 0)
(0.0277547 0.000584814 0)
(0.0275521 -9.42597e-05 0)
(0.0276921 -0.000862226 0)
(0.0281419 -0.00185596 0)
(0.0288244 -0.00330335 0)
(0.0294556 -0.00557496 0)
(0.0291941 -0.00907059 0)
(9.36671e-05 -0.000714547 0)
(0.000282837 -0.000826591 0)
(0.000607463 -0.00108668 0)
(0.00589023 -0.00840898 0)
(0.0275476 0.00367778 0)
(0.0411829 0.00906997 0)
(0.0362604 0.00679696 0)
(0.0329345 0.00504446 0)
(0.0306127 0.00365835 0)
(0.029031 0.00253466 0)
(0.0280116 0.0015922 0)
(0.027428 0.000751583 0)
(0.0271936 -7.12071e-05 0)
(0.027245 -0.000974388 0)
(0.0275158 -0.00208719 0)
(0.0278805 -0.0035884 0)
(0.0280475 -0.00569155 0)
(0.0274431 -0.00846579 0)
(8.2038e-05 -0.000627574 0)
(0.000248282 -0.000709809 0)
(0.000463622 -0.00085373 0)
(0.000877571 -0.0017724 0)
(0.0207969 -0.00775602 0)
(0.0388442 0.0107018 0)
(0.0354069 0.00822864 0)
(0.0322541 0.00609419 0)
(0.0300476 0.00441498 0)
(0.0285474 0.003058 0)
(0.0275783 0.00192849 0)
(0.0270096 0.000933551 0)
(0.0267463 -2.06656e-05 0)
(0.0267113 -0.00103381 0)
(0.0268175 -0.00221919 0)
(0.0269247 -0.00370277 0)
(0.0267853 -0.00558203 0)
(0.0260415 -0.00778135 0)
(7.39315e-05 -0.000554035 0)
(0.000224605 -0.000621602 0)
(0.000403628 -0.000720947 0)
(0.000753588 -0.0010136 0)
(0.00701671 -0.00832703 0)
(0.024664 0.00665403 0)
(0.0344481 0.00972157 0)
(0.0313826 0.00715416 0)
(0.0293255 0.00517721 0)
(0.0279328 0.00358296 0)
(0.0270338 0.00226873 0)
(0.0264931 0.00112817 0)
(0.0262101 5.88035e-05 0)
(0.0261001 -0.00103728 0)
(0.0260686 -0.00225477 0)
(0.0259838 -0.00367487 0)
(0.0256573 -0.0053242 0)
(0.0248803 -0.00708722 0)
(6.78304e-05 -0.000487449 0)
(0.00020662 -0.000546933 0)
(0.00036355 -0.000623597 0)
(0.000586843 -0.000792898 0)
(0.001176 -0.00209167 0)
(0.0177765 -0.0036353 0)
(0.0326422 0.0110686 0)
(0.0302728 0.00819109 0)
(0.0284256 0.00592761 0)
(0.0271713 0.0040941 0)
(0.0263682 0.002602 0)
(0.0258743 0.00132935 0)
(0.0255871 0.000164598 0)
(0.0254213 -0.000987487 0)
(0.0252865 -0.00220477 0)
(0.0250714 -0.00353668 0)
(0.0246438 -0.00497502 0)
(0.0238886 -0.00641273 0)
(6.29706e-05 -0.000424673 0)
(0.000192152 -0.000479236 0)
(0.000334618 -0.000541666 0)
(0.000518526 -0.00065295 0)
(0.000962592 -0.00100983 0)
(0.0111926 -0.00838533 0)
(0.0255227 0.00951709 0)
(0.0289809 0.0091871 0)
(0.027332 0.00664671 0)
(0.0262472 0.00456858 0)
(0.0255739 0.00291168 0)
(0.025152 0.00152636 0)
(0.024882 0.000289267 0)
(0.0246854 -0.000892992 0)
(0.0244843 -0.00208572 0)
(0.0241926 -0.00331949 0)
(0.0237238 -0.00457493 0)
(0.023019 -0.00576998 0)
(5.88831e-05 -0.000364005 0)
(0.000179903 -0.000415112 0)
(0.000311719 -0.000467461 0)
(0.000472697 -0.000547671 0)
(0.000752207 -0.000739974 0)
(0.00272983 -0.00448492 0)
(0.0172295 0.00168131 0)
(0.0282628 0.010575 0)
(0.0260172 0.00731352 0)
(0.0251433 0.00497073 0)
(0.0246475 0.00317353 0)
(0.024329 0.00170294 0)
(0.0241018 0.000420177 0)
(0.0239028 -0.000767553 0)
(0.0236714 -0.00191761 0)
(0.0233474 -0.00305187 0)
(0.0228786 -0.00415266 0)
(0.0222386 -0.00516436 0)
(5.4473e-05 -0.000309025 0)
(0.00016691 -0.000357413 0)
(0.000289437 -0.000402421 0)
(0.000435548 -0.000464513 0)
(0.000652735 -0.000589344 0)
(0.00126814 -0.0011732 0)
(0.0137 -0.00728476 0)
(0.0251203 0.0117307 0)
(0.0243467 0.00775257 0)
(0.0239473 0.00523065 0)
(0.0236815 0.003348 0)
(0.02349 0.00183099 0)
(0.0233275 0.00053219 0)
(0.0231523 -0.000640005 0)
(0.0229233 -0.00173852 0)
(0.0226016 -0.00278277 0)
(0.0221581 -0.00376143 0)
(0.0215838 -0.00463963 0)
(5.19716e-05 -0.000255789 0)
(0.000159218 -0.000301248 0)
(0.000275876 -0.000339813 0)
(0.000414078 -0.000389279 0)
(0.000615883 -0.000479791 0)
(0.00118963 -0.000752255 0)
(0.00983273 -0.0100277 0)
(0.0201789 0.0107312 0)
(0.0224891 0.00777705 0)
(0.0226539 0.00530904 0)
(0.0226448 0.00341734 0)
(0.0226004 0.00189835 0)
(0.0225213 0.000615189 0)
(0.0223898 -0.000519701 0)
(0.0221846 -0.00155628 0)
(0.0218861 -0.0025143 0)
(0.0214824 -0.00338951 0)
(0.0209756 -0.00416228 0)
(4.90194e-05 -0.00019657 0)
(0.00014997 -0.000237449 0)
(0.000259744 -0.000268502 0)
(0.000389708 -0.000305931 0)
(0.00057401 -0.000371572 0)
(0.000988126 -0.000552343 0)
(0.00472558 -0.00579294 0)
(0.0143937 0.00570697 0)
(0.0208133 0.00754027 0)
(0.0211522 0.00518691 0)
(0.0213988 0.00335072 0)
(0.0215359 0.00188281 0)
(0.0215716 0.000656986 0)
(0.0215111 -0.000409017 0)
(0.0213549 -0.00136196 0)
(0.0211022 -0.00222238 0)
(0.0207559 -0.00299252 0)
(0.0203262 -0.00366447 0)
(4.48887e-05 -0.000132716 0)
(0.00013714 -0.000165691 0)
(0.000238205 -0.000187589 0)
(0.000359197 -0.000212763 0)
(0.000524712 -0.000255805 0)
(0.000818335 -0.000365282 0)
(0.00218351 -0.00132547 0)
(0.010767 -0.000820788 0)
(0.0186046 0.00701517 0)
(0.0193759 0.00473951 0)
(0.0199541 0.00304574 0)
(0.0203157 0.00171277 0)
(0.0204971 0.00060832 0)
(0.0205334 -0.000343433 0)
(0.0204493 -0.00118349 0)
(0.0202624 -0.00193094 0)
(0.019988 -0.00259157 0)
(0.0196422 -0.00316453 0)
(3.73115e-05 -6.65392e-05 0)
(0.000115043 -8.58186e-05 0)
(0.000204304 -9.65574e-05 0)
(0.000316492 -0.000108646 0)
(0.000471195 -0.000128628 0)
(0.000734468 -0.000171509 0)
(0.00170754 -0.000352197 0)
(0.00862897 -0.00324111 0)
(0.0157429 0.00553447 0)
(0.017375 0.00367217 0)
(0.0184063 0.00234461 0)
(0.0190262 0.00129367 0)
(0.0193658 0.000406716 0)
(0.0195089 -0.000368681 0)
(0.0195077 -0.00105766 0)
(0.0193964 -0.00167138 0)
(0.0192 -0.00221373 0)
(0.0189389 -0.00268548 0)
(1.90872e-05 -6.07947e-07 0)
(6.58295e-05 1.06889e-06 0)
(0.000135796 2.60616e-06 0)
(0.000238434 4.60352e-06 0)
(0.000386655 8.88832e-06 0)
(0.000632767 1.85878e-05 0)
(0.00137832 4.69234e-05 0)
(0.00663515 0.000550321 0)
(0.0130661 0.00210843 0)
(0.0157252 0.00166928 0)
(0.0171231 0.00113733 0)
(0.0179061 0.000576671 0)
(0.0183387 2.10254e-05 0)
(0.0185496 -0.000511499 0)
(0.0186094 -0.00101041 0)
(0.0185608 -0.00146897 0)
(0.0184328 -0.0018826 0)
(0.0182466 -0.00224853 0)
(4.60975e-05 7.7433e-05 0)
(0.000139933 0.000106301 0)
(0.000242029 0.000125788 0)
(0.000364236 0.000147418 0)
(0.000528562 0.000185029 0)
(0.000807828 0.000276308 0)
(0.00193529 0.000818932 0)
(0.00883751 0.00344071 0)
(0.0153008 -0.00105101 0)
(0.0162136 -0.000294935 0)
(0.0169071 -0.000109238 0)
(0.0173781 -0.000199805 0)
(0.017669 -0.000423701 0)
(0.0178221 -0.000707619 0)
(0.0178706 -0.00101156 0)
(0.0178396 -0.00131265 0)
(0.0177486 -0.00159748 0)
(0.0176127 -0.00185831 0)
(6.53374e-05 0.000205697 0)
(0.000199193 0.000260799 0)
(0.00034421 0.000306726 0)
(0.000518351 0.000363093 0)
(0.000780153 0.000470114 0)
(0.00151563 0.000842174 0)
(0.00884855 0.00454381 0)
(0.0167585 0.000804534 0)
(0.0176842 -0.00143232 0)
(0.0174036 -0.000872706 0)
(0.0173481 -0.000627042 0)
(0.0173659 -0.000578755 0)
(0.0173889 -0.000648167 0)
(0.0173891 -0.000783825 0)
(0.0173574 -0.000952943 0)
(0.0172934 -0.00113468 0)
(0.0172005 -0.00131587 0)
(0.0170834 -0.00148833 0)
(7.52268e-05 0.000385037 0)
(0.000232976 0.000458323 0)
(0.000418178 0.00053395 0)
(0.000681536 0.000664528 0)
(0.00132121 0.00111445 0)
(0.00779363 0.00534789 0)
(0.0165703 0.00409796 0)
(0.0188921 -0.00061838 0)
(0.0181538 -0.000577603 0)
(0.017721 -0.000512027 0)
(0.0174761 -0.000490523 0)
(0.0173312 -0.000520459 0)
(0.0172324 -0.000592123 0)
(0.017149 -0.000692281 0)
(0.017065 -0.000808955 0)
(0.0169726 -0.000932695 0)
(0.0168693 -0.00105657 0)
(0.016755 -0.00117579 0)
(9.67239e-05 0.000632602 0)
(0.000302962 0.000737937 0)
(0.000601615 0.000884466 0)
(0.00147635 0.00155849 0)
(0.00785274 0.00595825 0)
(0.0165932 0.00611784 0)
(0.019214 0.00103371 0)
(0.0184703 0.000420747 0)
(0.0179442 0.000100502 0)
(0.0175937 -8.71496e-05 0)
(0.0173607 -0.000218257 0)
(0.0171993 -0.000329287 0)
(0.0170768 -0.000435339 0)
(0.0169723 -0.000541054 0)
(0.0168733 -0.000646469 0)
(0.0167729 -0.000749934 0)
(0.0166676 -0.000849479 0)
(0.0165567 -0.000943389 0)
(0.000161458 0.00116951 0)
(0.000529933 0.00158964 0)
(0.00265649 0.00331321 0)
(0.00884165 0.005651 0)
(0.0159106 0.00771381 0)
(0.0185261 0.00297215 0)
(0.0181489 0.00173496 0)
(0.0178013 0.000977164 0)
(0.0175213 0.000507166 0)
(0.0173081 0.000204738 0)
(0.0171469 -3.44714e-06 0)
(0.0170203 -0.000159683 0)
(0.0169136 -0.000287137 0)
(0.016816 -0.000397852 0)
(0.0167206 -0.000497707 0)
(0.0166233 -0.000589331 0)
(0.0165222 -0.000673749 0)
(0.0164166 -0.000751269 0)
(0.00278435 0.00587642 0)
(0.00781693 0.00783355 0)
(0.0116455 0.00712205 0)
(0.0147591 0.00780885 0)
(0.0166359 0.00480642 0)
(0.0170806 0.00307054 0)
(0.0171865 0.0019254 0)
(0.01716 0.00117567 0)
(0.0170873 0.000683243 0)
(0.017004 0.000353257 0)
(0.0169218 0.00012349 0)
(0.0168424 -4.51408e-05 0)
(0.0167637 -0.000176305 0)
(0.0166831 -0.000283897 0)
(0.0165987 -0.000375859 0)
(0.0165094 -0.000456628 0)
(0.016415 -0.000528647 0)
(0.0163156 -0.000593269 0)
(0.00209241 0.0097776 0)
(0.00728718 0.0114513 0)
(0.0116315 0.00791245 0)
(0.0137997 0.00595952 0)
(0.0152466 0.00414916 0)
(0.0160391 0.00278042 0)
(0.0164451 0.00181648 0)
(0.0166399 0.00115572 0)
(0.0167213 0.000705797 0)
(0.0167412 0.000396485 0)
(0.0167265 0.000178536 0)
(0.0166904 1.91748e-05 0)
(0.0166394 -0.000102613 0)
(0.0165769 -0.000199922 0)
(0.0165047 -0.000280736 0)
(0.0164242 -0.000349855 0)
(0.0163366 -0.000410148 0)
(0.016243 -0.00046334 0)
(0.00211545 0.00823436 0)
(0.00658153 0.0082004 0)
(0.010344 0.00627718 0)
(0.0127324 0.00473504 0)
(0.0143277 0.00338835 0)
(0.0153197 0.00233429 0)
(0.0159112 0.00156374 0)
(0.0162529 0.00101941 0)
(0.016442 0.000639899 0)
(0.0165373 0.000374501 0)
(0.0165739 0.000185735 0)
(0.0165722 4.75971e-05 0)
(0.0165441 -5.72141e-05 0)
(0.016497 -0.000139869 0)
(0.0164354 -0.000207429 0)
(0.0163625 -0.000264298 0)
(0.0162806 -0.000313206 0)
(0.0161918 -0.000355859 0)
(0.00206204 0.00615773 0)
(0.00614898 0.00592515 0)
(0.00960344 0.00474672 0)
(0.0120423 0.00362172 0)
(0.0137276 0.00263365 0)
(0.0148383 0.00184486 0)
(0.0155448 0.00125525 0)
(0.0159817 0.000830665 0)
(0.0162429 0.00053005 0)
(0.0163904 0.000317437 0)
(0.0164634 0.000165198 0)
(0.0164867 5.35992e-05 0)
(0.0164756 -3.08125e-05 0)
(0.0164401 -9.69226e-05 0)
(0.0163866 -0.000150471 0)
(0.0163195 -0.000195113 0)
(0.0162421 -0.000233164 0)
(0.0161569 -0.000266097 0)
(0.00200593 0.0043972 0)
(0.00588139 0.0041664 0)
(0.00916811 0.00341091 0)
(0.0116119 0.00262751 0)
(0.0133477 0.0019298 0)
(0.0145288 0.00136559 0)
(0.0153056 0.000938087 0)
(0.0158022 0.000626525 0)
(0.0161098 0.000403774 0)
(0.0162914 0.000245087 0)
(0.0163887 0.000130949 0)
(0.0164288 4.71552e-05 0)
(0.0164294 -1.6138e-05 0)
(0.0164019 -6.55228e-05 0)
(0.0163541 -0.000105315 0)
(0.0162911 -0.000138297 0)
(0.0162168 -0.000166256 0)
(0.016134 -0.000190339 0)
(0.00196613 0.00290108 0)
(0.00572346 0.00272904 0)
(0.0089184 0.00225853 0)
(0.0113573 0.00175074 0)
(0.0131205 0.00129355 0)
(0.0143419 0.000920836 0)
(0.0151597 0.000636149 0)
(0.0156918 0.000427186 0)
(0.0160274 0.000276911 0)
(0.0162299 0.000169385 0)
(0.0163421 9.18301e-05 0)
(0.0163927 3.4833e-05 0)
(0.0164006 -8.19231e-06 0)
(0.0163782 -4.16947e-05 0)
(0.016334 -6.86096e-05 0)
(0.0162736 -9.08447e-05 0)
(0.0162013 -0.000109632 0)
(0.0161201 -0.000125767 0)
(0.00194325 0.00161956 0)
(0.00563956 0.00151845 0)
(0.00878772 0.00126329 0)
(0.011222 0.000982702 0)
(0.0129989 0.000728433 0)
(0.0142412 0.000520207 0)
(0.0150808 0.00036047 0)
(0.0156318 0.000242769 0)
(0.0159825 0.000157857 0)
(0.0161962 9.69548e-05 0)
(0.0163166 5.29607e-05 0)
(0.016373 2.06083e-05 0)
(0.0163849 -3.80675e-06 0)
(0.0163653 -2.27983e-05 0)
(0.016323 -3.8032e-05 0)
(0.0162641 -5.05948e-05 0)
(0.0161929 -6.1191e-05 0)
(0.0161125 -7.0278e-05 0)
(0.00193374 0.000513438 0)
(0.00560581 0.000480761 0)
(0.00873551 0.000400818 0)
(0.0111675 0.000312261 0)
(0.0129498 0.000231783 0)
(0.0142005 0.000165749 0)
(0.0150487 0.000115 0)
(0.0156074 7.75456e-05 0)
(0.0159642 5.04888e-05 0)
(0.0161825 3.10627e-05 0)
(0.0163061 1.70207e-05 0)
(0.0163649 6.69175e-06 0)
(0.0163784 -1.10228e-06 0)
(0.01636 -7.16241e-06 0)
(0.0163185 -1.20203e-05 0)
(0.0162602 -1.60235e-05 0)
(0.0161894 -1.93976e-05 0)
(0.0161094 -2.22893e-05 0)
(0.00010824 -0.000231357 -2.98894e-30)
(0.000325572 -0.000230976 2.98144e-30)
(0.000544191 -0.000230307 0)
(0.000763827 -0.000229349 0)
(0.000984205 -0.000228101 0)
(0.00120504 -0.000226563 -2.91403e-30)
(0.00142604 -0.000224739 0)
(0.00164693 -0.000222632 0)
(0.00186739 -0.00022025 0)
(0.00208715 -0.000217601 0)
(0.0023059 -0.000214695 2.74764e-30)
(0.00252336 -0.000211543 0)
(0.00273926 -0.00020816 0)
(0.00295331 -0.000204558 0)
(0.00316526 -0.000200754 0)
(0.00337485 -0.000196765 2.50329e-30)
(0.00358184 -0.000192607 0)
(0.003786 -0.000188298 0)
(0.00398712 -0.000183857 0)
(0.00418501 -0.000179301 0)
(0.00437947 -0.00017465 0)
(0.00457034 -0.00016992 0)
(0.00475748 -0.00016513 0)
(0.00494075 -0.000160296 2.01346e-30)
(0.00512004 -0.000155436 -1.94852e-30)
(0.00529524 -0.000150565 1.8835e-30)
(0.00546628 -0.000145699 1.81858e-30)
(0.00563308 -0.00014085 0)
(0.00579559 -0.000136033 0)
(0.00595378 -0.000131259 -1.62619e-30)
(0.00610762 -0.000126539 -1.56338e-30)
(0.0062571 -0.000121884 0)
(0.00640222 -0.000117302 0)
(0.00654299 -0.000112802 -1.38069e-30)
(0.00667944 -0.00010839 0)
(0.0068116 -0.000104073 0)
(0.00693951 -9.98557e-05 1.20868e-30)
(0.00706322 -9.57426e-05 0)
(0.00718279 -9.17374e-05 1.10089e-30)
(0.00729827 -8.78427e-05 2.09837e-30)
(0.00740974 -8.40607e-05 0)
(0.00751728 -8.03927e-05 0)
(0.00762096 -7.68398e-05 0)
(0.00772085 -7.34022e-05 0)
(0.00781705 -7.00799e-05 0)
(0.00790965 -6.68722e-05 1.54186e-30)
(0.00799872 -6.37782e-05 1.45978e-30)
(0.00808437 -6.07966e-05 1.38069e-30)
(0.00816668 -5.79259e-05 0)
(0.00824575 -5.51642e-05 -1.23128e-30)
(0.00832166 -5.25095e-05 0)
(0.00839451 -4.99595e-05 1.09324e-30)
(0.00846439 -4.75119e-05 1.02831e-30)
(0.0085314 -4.51642e-05 0)
(0.00859561 -4.29137e-05 0)
(0.00865714 -4.07579e-05 0)
(0.00871605 -3.86938e-05 7.94434e-31)
(0.00877244 -3.67189e-05 0)
(0.00882639 -3.48302e-05 0)
(0.00887799 -3.3025e-05 0)
(0.00892733 -3.13005e-05 0)
(0.00897447 -2.9654e-05 0)
(0.0090195 -2.80826e-05 0)
(0.00906251 -2.65836e-05 0)
(0.00910355 -2.51545e-05 0)
(0.00914271 -2.37925e-05 -3.99168e-31)
(0.00918006 -2.24951e-05 0)
(0.00921566 -2.12597e-05 0)
(0.00924959 -2.0084e-05 3.00785e-31)
(0.00928191 -1.89656e-05 2.71106e-31)
(0.00931269 -1.7902e-05 0)
(0.00934198 -1.6891e-05 -2.16067e-31)
(0.00936985 -1.59306e-05 1.90579e-31)
(0.00939635 -1.50184e-05 0)
(0.00942155 -1.41525e-05 -1.43395e-31)
(0.00944549 -1.33308e-05 0)
(0.00946823 -1.25514e-05 0)
(0.00948981 -1.18125e-05 8.12996e-32)
(0.0095103 -1.11122e-05 0)
(0.00952974 -1.04489e-05 -4.51076e-32)
(0.00954817 -9.82077e-06 0)
(0.00956563 -9.22628e-06 1.26541e-32)
(0.00958218 -8.66386e-06 -2.27341e-33)
(0.00959785 -8.132e-06 -1.63913e-32)
(0.00961268 -7.62928e-06 -5.94701e-32)
(0.00962671 -7.15431e-06 8.46925e-32)
(0.00963998 -6.70575e-06 0)
(0.00965252 -6.28234e-06 0)
(0.00966437 -5.88284e-06 0)
(0.00967556 -5.50608e-06 1.72206e-31)
(0.00968612 -5.15093e-06 1.91068e-31)
(0.00969608 -4.81631e-06 -2.08836e-31)
(0.00970547 -4.50119e-06 0)
(0.00971433 -4.20457e-06 2.41323e-31)
(0.00972267 -3.92551e-06 2.56148e-31)
(0.00973052 -3.66308e-06 2.70086e-31)
(0.00973791 -3.41643e-06 0)
(0.00974486 -3.18473e-06 0)
(0.0097514 -2.96717e-06 0)
(0.00975754 -2.763e-06 3.17895e-31)
(0.0097633 -2.5715e-06 0)
(0.00976871 -2.39197e-06 0)
(0.00977379 -2.22376e-06 -3.46536e-31)
(0.00977855 -2.06623e-06 0)
(0.00978301 -1.91879e-06 0)
(0.00978719 -1.78087e-06 -3.70068e-31)
(0.0097911 -1.65193e-06 0)
(0.00979476 -1.53144e-06 0)
(0.00979818 -1.41892e-06 3.89299e-31)
(0.00980138 -1.3139e-06 3.94879e-31)
(0.00980436 -1.21593e-06 0)
(0.00980715 -1.1246e-06 -4.04941e-31)
(0.00980975 -1.03951e-06 0)
(0.00981217 -9.60276e-07 4.13671e-31)
(0.00981443 -8.86539e-07 0)
(0.00981653 -8.17959e-07 4.21237e-31)
(0.00981849 -7.54215e-07 4.2462e-31)
(0.00982031 -6.95002e-07 0)
(0.009822 -6.40032e-07 0)
(0.00982357 -5.89032e-07 0)
(0.00982503 -5.41745e-07 0)
(0.00982638 -4.97927e-07 0)
(0.00982763 -4.57351e-07 0)
(0.00982879 -4.19799e-07 0)
(0.00982987 -3.85067e-07 4.44247e-31)
(0.00983086 -3.52964e-07 -4.45949e-31)
(0.00983179 -3.23309e-07 0)
(0.00983264 -2.95931e-07 0)
(0.00983342 -2.7067e-07 0)
(0.00983414 -2.47376e-07 0)
(0.00983481 -2.25905e-07 -9.0541e-31)
(0.00983543 -2.06124e-07 0)
(0.00983599 -1.87907e-07 9.09452e-31)
(0.00983651 -1.71136e-07 -9.11236e-31)
(0.00983699 -1.55697e-07 0)
(0.00983743 -1.41484e-07 0)
(0.00983783 -1.28397e-07 0)
(0.0098382 -1.16338e-07 9.17066e-31)
(0.00983854 -1.05214e-07 9.18247e-31)
(0.00983884 -9.49377e-08 0)
(0.00983912 -8.54196e-08 9.20346e-31)
(0.00983937 -7.65739e-08 9.2128e-31)
(0.0098396 -6.83138e-08 -9.22161e-31)
(0.00983981 -6.0551e-08 0)
(0.00983999 -5.31934e-08 0)
(0.00984015 -4.61435e-08 -9.24505e-31)
(0.00984029 -3.92953e-08 0)
(0.00984041 -3.25313e-08 0)
(0.0098405 -2.57181e-08 0)
(0.00984058 -1.87013e-08 0)
(0.00984063 -1.12995e-08 9.28152e-31)
(0.00984065 -3.29514e-09 9.28982e-31)
(0.00984065 5.57514e-09 0)
(0.00984061 1.5634e-08 9.30936e-31)
(0.00984054 2.7281e-08 0)
(0.00984042 4.10141e-08 0)
(0.00984024 5.74582e-08 9.35225e-31)
(0.00984 7.74027e-08 0)
(0.00983967 1.01849e-07 9.39763e-31)
(0.00983924 1.32076e-07 0)
(0.00983867 1.69721e-07 0)
(0.00983795 2.16894e-07 9.51494e-31)
(0.00983701 2.76332e-07 0)
(0.00983581 3.51597e-07 9.65218e-31)
(0.00983426 4.47368e-07 0)
(0.00983228 5.69839e-07 0)
(0.00982972 7.27286e-07 0)
(0.00982642 9.30905e-07 -1.02423e-30)
(0.00982215 1.19606e-06 0)
(0.00981659 1.54425e-06 1.08672e-30)
(0.00980932 2.00621e-06 0)
(0.00979974 2.62721e-06 0)
(0.009787 3.47638e-06 0)
(0.00976984 4.66457e-06 0)
(0.00974633 6.38081e-06 0)
(0.00971333 8.97611e-06 0)
(0.00966523 1.31836e-05 0)
(0.00959069 2.08221e-05 -6.11733e-30)
(0.00946108 3.77219e-05 0)
(0.00917383 9.07127e-05 0)
(0.000108838 -0.000695352 8.98334e-30)
(0.000327369 -0.000694197 -8.96067e-30)
(0.000547182 -0.000692175 0)
(0.000768001 -0.000689277 1.77811e-29)
(0.000989542 -0.000685499 0)
(0.00121152 -0.000680846 -8.78543e-30)
(0.00143362 -0.000675326 -1.73891e-29)
(0.00165557 -0.000668954 -1.72139e-29)
(0.00187705 -0.00066175 0)
(0.00209777 -0.00065374 -1.67997e-29)
(0.00231742 -0.000644954 8.30848e-30)
(0.00253573 -0.00063543 0)
(0.0027524 -0.000625206 0)
(0.00296716 -0.000614327 0)
(0.00317974 -0.000602841 0)
(0.00338988 -0.000590798 7.59586e-30)
(0.00359735 -0.000578249 0)
(0.00380192 -0.00056525 1.44318e-29)
(0.00400337 -0.000551856 0)
(0.00420151 -0.000538121 0)
(0.00439615 -0.000524101 -1.33401e-29)
(0.00458715 -0.000509851 0)
(0.00477434 -0.000495423 1.25809e-29)
(0.0049576 -0.00048087 6.15658e-30)
(0.00513682 -0.000466242 -5.96539e-30)
(0.0053119 -0.000451585 5.77389e-30)
(0.00548277 -0.000436945 5.58266e-30)
(0.00564936 -0.000422364 0)
(0.00581162 -0.000407881 0)
(0.00596952 -0.000393532 -5.01581e-30)
(0.00612304 -0.00037935 -1.43475e-29)
(0.00627217 -0.000365365 0)
(0.00641691 -0.000351605 0)
(0.0065573 -0.000338092 -4.29233e-30)
(0.00669334 -0.000324848 0)
(0.00682508 -0.00031189 0)
(0.00695256 -0.000299235 3.78545e-30)
(0.00707583 -0.000286894 0)
(0.00719496 -0.000274879 1.02335e-29)
(0.00731 -0.000263197 6.63091e-30)
(0.00742103 -0.000251855 0)
(0.00752813 -0.000240857 0)
(0.00763137 -0.000230204 -1.11806e-29)
(0.00773084 -0.000219899 -1.06384e-29)
(0.00782663 -0.00020994 -1.01145e-29)
(0.00791881 -0.000200325 1.46001e-29)
(0.00800748 -0.000191052 4.74954e-30)
(0.00809274 -0.000182117 -4.13441e-30)
(0.00817467 -0.000173515 8.19851e-30)
(0.00825336 -0.00016524 -4.07649e-30)
(0.00832891 -0.000157286 0)
(0.00840142 -0.000149646 3.66991e-30)
(0.00847097 -0.000142313 1.00362e-29)
(0.00853765 -0.00013528 0)
(0.00860155 -0.000128538 0)
(0.00866278 -0.00012208 0)
(0.0087214 -0.000115898 2.78998e-30)
(0.00877752 -0.000109982 0)
(0.00883121 -0.000104325 4.55945e-30)
(0.00888256 -9.89175e-05 0)
(0.00893165 -9.37522e-05 4.00339e-30)
(0.00897856 -8.88204e-05 0)
(0.00902337 -8.41138e-05 -3.49643e-30)
(0.00906616 -7.96242e-05 0)
(0.00910701 -7.53437e-05 3.03513e-30)
(0.00914598 -7.12644e-05 -4.44677e-30)
(0.00918314 -6.73785e-05 0)
(0.00921857 -6.36786e-05 -2.42153e-30)
(0.00925234 -6.01573e-05 1.33659e-30)
(0.0092845 -5.68073e-05 1.24923e-30)
(0.00931513 -5.36218e-05 0)
(0.00934428 -5.0594e-05 -2.82041e-30)
(0.00937202 -4.77173e-05 1.01219e-30)
(0.00939839 -4.49852e-05 0)
(0.00942347 -4.23916e-05 -8.73314e-31)
(0.00944729 -3.99306e-05 -1.17218e-30)
(0.00946992 -3.75963e-05 0)
(0.00949141 -3.53831e-05 6.90548e-31)
(0.0095118 -3.32857e-05 0)
(0.00953115 -3.12988e-05 1.33981e-31)
(0.00954949 -2.94175e-05 0)
(0.00956687 -2.76369e-05 -3.67943e-32)
(0.00958334 -2.59523e-05 4.44595e-31)
(0.00959894 -2.43593e-05 7.55894e-31)
(0.0096137 -2.28535e-05 1.27476e-30)
(0.00962767 -2.14308e-05 -1.0508e-30)
(0.00964087 -2.00872e-05 0)
(0.00965336 -1.8819e-05 0)
(0.00966515 -1.76223e-05 0)
(0.00967629 -1.64938e-05 -5.17996e-31)
(0.0096868 -1.543e-05 -3.40315e-31)
(0.00969672 -1.44277e-05 2.8803e-31)
(0.00970607 -1.34838e-05 0)
(0.00971488 -1.25953e-05 3.4013e-31)
(0.00972319 -1.17593e-05 -1.48827e-31)
(0.009731 -1.09733e-05 -1.07818e-31)
(0.00973836 -1.02344e-05 0)
(0.00974528 -9.54036e-06 0)
(0.00975179 -8.88867e-06 0)
(0.0097579 -8.27708e-06 3.28411e-32)
(0.00976364 -7.70343e-06 0)
(0.00976903 -7.16564e-06 1.1042e-30)
(0.00977408 -6.66175e-06 1.04015e-30)
(0.00977882 -6.18987e-06 -1.20695e-30)
(0.00978326 -5.74821e-06 0)
(0.00978742 -5.33505e-06 -1.48329e-30)
(0.00979131 -4.94878e-06 0)
(0.00979496 -4.58784e-06 -1.37564e-30)
(0.00979836 -4.25077e-06 1.65404e-30)
(0.00980155 -3.93617e-06 1.70359e-30)
(0.00980452 -3.6427e-06 0)
(0.00980729 -3.36911e-06 1.21508e-30)
(0.00980988 -3.1142e-06 -1.53083e-30)
(0.00981229 -2.87683e-06 3.14593e-31)
(0.00981454 -2.65594e-06 0)
(0.00981663 -2.45049e-06 3.36842e-31)
(0.00981858 -2.25953e-06 -1.27405e-30)
(0.00982039 -2.08214e-06 0)
(0.00982208 -1.91747e-06 -1.65687e-30)
(0.00982364 -1.76468e-06 -1.67297e-30)
(0.00982509 -1.62302e-06 -1.68789e-30)
(0.00982644 -1.49175e-06 0)
(0.00982769 -1.37019e-06 0)
(0.00982885 -1.25769e-06 0)
(0.00982992 -1.15365e-06 2.14185e-30)
(0.00983091 -1.05747e-06 -4.09529e-31)
(0.00983183 -9.68628e-07 0)
(0.00983267 -8.86609e-07 1.76546e-30)
(0.00983345 -8.10931e-07 1.77344e-30)
(0.00983418 -7.41143e-07 0)
(0.00983484 -6.76819e-07 -8.5879e-31)
(0.00983545 -6.17559e-07 3.58762e-30)
(0.00983602 -5.62985e-07 8.70673e-31)
(0.00983654 -5.1274e-07 -4.48561e-30)
(0.00983701 -4.66488e-07 0)
(0.00983745 -4.23909e-07 0)
(0.00983785 -3.84702e-07 0)
(0.00983821 -3.48577e-07 8.93054e-31)
(0.00983855 -3.15256e-07 4.54783e-30)
(0.00983885 -2.84471e-07 3.65778e-30)
(0.00983913 -2.55961e-07 9.02713e-31)
(0.00983938 -2.29466e-07 4.57482e-30)
(0.00983961 -2.04727e-07 -9.08057e-31)
(0.00983982 -1.81479e-07 0)
(0.00984 -1.59448e-07 0)
(0.00984016 -1.38341e-07 -4.60347e-30)
(0.0098403 -1.17843e-07 0)
(0.00984041 -9.76001e-08 0)
(0.00984051 -7.72155e-08 3.70127e-30)
(0.00984059 -5.62276e-08 0)
(0.00984064 -3.4094e-08 4.63602e-30)
(0.00984066 -1.01655e-08 9.28273e-31)
(0.00984066 1.63446e-08 0)
(0.00984063 4.64e-08 4.66099e-30)
(0.00984055 8.11934e-08 0)
(0.00984043 1.22211e-07 0)
(0.00984026 1.7132e-07 9.47e-31)
(0.00984002 2.30875e-07 3.76479e-30)
(0.0098397 3.03867e-07 9.60654e-31)
(0.00983927 3.94108e-07 0)
(0.00983872 5.06489e-07 0)
(0.009838 6.47305e-07 4.84615e-30)
(0.00983708 8.24714e-07 0)
(0.0098359 1.04935e-06 4.96987e-30)
(0.00983438 1.33515e-06 0)
(0.00983242 1.70057e-06 0)
(0.00982991 2.17026e-06 0)
(0.00982666 2.77754e-06 -1.21519e-30)
(0.00982246 3.5681e-06 0)
(0.00981699 4.60574e-06 1.40331e-30)
(0.00980985 5.98156e-06 0)
(0.00980046 7.82938e-06 0)
(0.00978798 1.0353e-05 5.83833e-30)
(0.00977122 1.38772e-05 -6.56078e-30)
(0.00974836 1.89519e-05 0)
(0.00971649 2.65852e-05 0)
(0.00967068 3.88338e-05 0)
(0.00960185 6.05654e-05 1.79652e-29)
(0.00949248 0.000105897 0)
(0.00931992 0.000228015 -1.01346e-28)
(0.000110052 -0.00116322 6.01241e-29)
(0.000331012 -0.00116127 -7.87735e-33)
(0.000553245 -0.00115784 0)
(0.000776461 -0.00115292 1.83936e-32)
(0.00100036 -0.00114652 0)
(0.00122464 -0.00113863 0)
(0.00144898 -0.00112927 -5.82107e-29)
(0.00167307 -0.00111847 -2.88328e-29)
(0.0018966 -0.00110627 2.84619e-29)
(0.00211926 -0.0010927 -2.81456e-29)
(0.00234074 -0.00107784 0)
(0.00256074 -0.00106172 0)
(0.00277896 -0.00104444 -2.68012e-29)
(0.00299512 -0.00102606 -5.26214e-29)
(0.00320896 -0.00100666 5.15883e-29)
(0.00342021 -0.000986333 0)
(0.00362864 -0.00096517 4.93839e-29)
(0.003834 -0.00094326 2.42016e-29)
(0.0040361 -0.000920699 0)
(0.00423474 -0.00089758 4.58037e-29)
(0.00442975 -0.000873997 -2.23831e-29)
(0.00462096 -0.000850042 -4.32914e-29)
(0.00480825 -0.000825806 2.11195e-29)
(0.00499148 -0.000801374 0)
(0.00517055 -0.000776832 3.94287e-29)
(0.00534537 -0.000752257 3.81334e-29)
(0.00551589 -0.000727725 0)
(0.00568203 -0.000703307 3.55551e-29)
(0.00584377 -0.000679066 0)
(0.00600107 -0.000655063 3.30157e-29)
(0.00615393 -0.000631351 -1.60294e-29)
(0.00630235 -0.000607981 0)
(0.00644635 -0.000584996 0)
(0.00658593 -0.000562435 0)
(0.00672115 -0.000540332 0)
(0.00685204 -0.000518716 0)
(0.00697865 -0.000497612 0)
(0.00710105 -0.000477041 2.36564e-29)
(0.00721929 -0.000457018 -1.11318e-29)
(0.00733345 -0.000437556 0)
(0.0074436 -0.000418666 0)
(0.00754982 -0.000400353 0)
(0.00765219 -0.00038262 -3.77553e-29)
(0.0077508 -0.000365469 -1.81623e-29)
(0.00784574 -0.000348898 -3.70503e-31)
(0.0079371 -0.000332904 3.74813e-31)
(0.00802497 -0.00031748 -1.52765e-29)
(0.00810944 -0.00030262 -1.48792e-29)
(0.00819061 -0.000288316 2.78774e-29)
(0.00826856 -0.000274558 1.3023e-29)
(0.0083434 -0.000261335 0)
(0.00841521 -0.000248635 1.1662e-29)
(0.00848409 -0.000236448 2.2445e-29)
(0.00855012 -0.000224759 0)
(0.00861341 -0.000213555 0)
(0.00867403 -0.000202823 -9.25696e-30)
(0.00873209 -0.00019255 0)
(0.00878765 -0.000182721 0)
(0.00884081 -0.000173321 2.35418e-29)
(0.00889166 -0.000164338 1.4473e-29)
(0.00894027 -0.000155756 7.20811e-30)
(0.00898672 -0.000147563 0)
(0.00903109 -0.000139744 -6.3717e-30)
(0.00907346 -0.000132285 0)
(0.00911391 -0.000125174 1.59713e-29)
(0.00915249 -0.000118398 -5.25668e-30)
(0.0091893 -0.000111942 -8.97111e-30)
(0.00922438 -0.000105796 -1.29241e-29)
(0.00925782 -9.99465e-05 0)
(0.00928967 -9.43816e-05 7.12692e-30)
(0.00932 -8.90898e-05 0)
(0.00934887 -8.406e-05 2.58003e-30)
(0.00937634 -7.9281e-05 5.54101e-30)
(0.00940246 -7.47424e-05 5.06434e-30)
(0.0094273 -7.04339e-05 -4.61181e-30)
(0.0094509 -6.63454e-05 1.64494e-30)
(0.00947331 -6.24675e-05 0)
(0.00949459 -5.87908e-05 0)
(0.00951479 -5.53064e-05 -3.02289e-30)
(0.00953395 -5.20056e-05 -8.87902e-31)
(0.00955212 -4.88801e-05 0)
(0.00956935 -4.59218e-05 -1.4704e-30)
(0.00958566 -4.31231e-05 0)
(0.00960111 -4.04764e-05 -2.79174e-31)
(0.00961574 -3.79747e-05 3.31256e-30)
(0.00962957 -3.5611e-05 -2.81722e-30)
(0.00964266 -3.33787e-05 7.19401e-31)
(0.00965503 -3.12716e-05 0)
(0.00966671 -2.92834e-05 -2.89128e-31)
(0.00967775 -2.74083e-05 1.09821e-30)
(0.00968816 -2.56408e-05 0)
(0.00969799 -2.39754e-05 0)
(0.00970726 -2.2407e-05 0)
(0.00971599 -2.09307e-05 -3.29083e-31)
(0.00972422 -1.95417e-05 0)
(0.00973197 -1.82356e-05 0)
(0.00973926 -1.70079e-05 0)
(0.00974612 -1.58546e-05 0)
(0.00975256 -1.47717e-05 0)
(0.00975862 -1.37554e-05 -1.34245e-30)
(0.00976431 -1.28022e-05 0)