/*--------------------------------*- C++ -*----------------------------------*\
  =========                 |
  \\      /  F ield         | OpenFOAM: The Open Source CFD Toolbox
   \\    /   O peration     | Website:  https://openfoam.org
    \\  /    A nd           | Version:  10
     \\/     M anipulation  |
\*---------------------------------------------------------------------------*/
FoamFile
{
    format      ascii;
    class       volScalarField;
    location    "0.091";
    object      pMean;
}
// * * * * * * * * * * * * * * * * * * * * * * * * * * * * * * * * * * * * * //

dimensions      [0 2 -2 0 0 0 0];

internalField   nonuniform List<scalar> 
12225
(
8.5093
7.77922
7.36627
7.16655
7.03222
6.90619
6.78158
6.66489
6.56115
6.47164
6.39552
6.33134
6.27713
6.22777
6.17465
6.08058
5.90466
5.3942
8.27713
7.7493
7.36403
7.15698
7.02133
6.89693
6.77313
6.6564
6.55184
6.46153
6.38339
6.31778
6.25836
6.20743
6.1403
6.05756
5.86057
5.53626
8.22731
7.74456
7.37148
7.15432
7.01368
6.88964
6.76659
6.64923
6.54356
6.45097
6.37061
6.29947
6.23536
6.17067
6.09669
5.98626
5.80471
5.49572
8.07985
7.69573
7.36116
7.14297
6.99833
6.87549
6.7543
6.63737
6.53031
6.43584
6.35181
6.27655
6.20441
6.13109
6.04238
5.92236
5.74171
5.47898
7.98714
7.66055
7.3577
7.14012
6.9889
6.86413
6.74398
6.62724
6.51897
6.4216
6.33396
6.25304
6.17418
6.09122
5.99332
5.86717
5.6965
5.4767
7.89557
7.60991
7.33854
7.12824
6.97324
6.84659
6.72731
6.61127
6.50204
6.40227
6.31096
6.22498
6.13964
6.04888
5.94448
5.81686
5.65814
5.46675
7.80065
7.55514
7.31756
7.11849
6.9611
6.8312
6.71179
6.59624
6.48593
6.38327
6.28777
6.19652
6.10508
6.00807
5.89924
5.77235
5.62319
5.45174
7.74252
7.50688
7.28931
7.10252
6.94561
6.81269
6.69212
6.57676
6.46578
6.36067
6.26127
6.16515
6.06841
5.96652
5.85489
5.72942
5.58778
5.43082
7.65026
7.44543
7.25581
7.08289
6.92843
6.7935
6.67145
6.55558
6.44376
6.33642
6.23345
6.13289
6.03155
5.92579
5.81216
5.68801
5.55212
5.40555
7.59395
7.39635
7.22033
7.06014
6.90988
6.7733
6.64911
6.5323
6.41946
6.30991
6.20337
6.09859
5.99312
5.88412
5.76892
5.64579
5.51414
5.37502
7.53296
7.33973
7.17763
7.02911
6.88474
6.74952
6.6244
6.5061
6.39171
6.28009
6.1708
6.06267
5.95383
5.84213
5.72574
5.6035
5.47504
5.34103
7.45798
7.2934
7.14686
7.00486
6.86333
6.72822
6.60158
6.4816
6.36565
6.25212
6.14011
6.02889
5.91714
5.80322
5.68572
5.5637
5.43706
5.30627
7.39977
7.24241
7.10359
6.96984
6.83439
6.70183
6.57509
6.45377
6.33622
6.22097
6.10699
5.99337
5.87915
5.76326
5.64472
5.52292
5.39763
5.2691
7.38717
7.20404
7.06114
6.93536
6.80663
6.67538
6.54662
6.42283
6.30313
6.18567
6.06914
5.95278
5.83593
5.71793
5.59811
5.47595
5.35132
5.22431
7.32096
7.13961
7.00439
6.88836
6.76634
6.63783
6.50907
6.38378
6.26209
6.1425
6.02364
5.90476
5.78546
5.66541
5.54421
5.42156
5.29727
5.17137
7.2497
7.08259
6.95754
6.84548
6.7248
6.59669
6.46745
6.34073
6.2169
6.09488
5.97348
5.85207
5.73043
5.6084
5.48574
5.36225
5.23775
5.1123
7.15223
7.01074
6.89986
6.79327
6.67506
6.54865
6.42003
6.29248
6.16669
6.04203
5.91783
5.79379
5.66976
5.54566
5.42135
5.29679
5.17178
5.04636
7.09978
6.95615
6.84675
6.74354
6.62774
6.50117
6.37071
6.24107
6.1133
5.98669
5.86047
5.73437
5.60838
5.48257
5.35696
5.23153
5.10626
4.98117
7.1558
6.96701
6.82555
6.70776
6.58747
6.4596
6.32742
6.19458
6.06282
5.93238
5.80296
5.67419
5.54597
5.41838
5.29152
5.1654
5.04002
4.91533
7.09053
6.92501
6.79897
6.68562
6.56293
6.43064
6.2946
6.15945
6.02648
5.89506
5.76439
5.63433
5.50503
5.37674
5.24958
5.12359
4.99873
4.87506
7.09505
6.94056
6.81324
6.68963
6.55636
6.41794
6.2794
6.14258
6.00749
5.87367
5.74089
5.60929
5.47905
5.3503
5.22309
5.09744
4.97333
4.85076
7.11627
6.96202
6.83016
6.69993
6.56061
6.41725
6.27532
6.13646
5.99984
5.86453
5.7304
5.59774
5.46685
5.33783
5.2106
5.08513
4.96145
4.83964
7.22502
7.01037
6.84307
6.70118
6.55935
6.41479
6.27101
6.12981
5.99105
5.85418
5.71903
5.5858
5.4547
5.32571
5.19879
5.0739
4.95104
4.83018
7.3012
7.07768
6.88903
6.72678
6.57375
6.42539
6.28029
6.13747
5.99643
5.85734
5.72065
5.58656
5.45495
5.32566
5.19859
5.07374
4.95115
4.83097
7.25549
7.07783
6.89929
6.72731
6.56741
6.41878
6.27509
6.13227
5.99018
5.85022
5.71326
5.57928
5.44796
5.31905
5.19246
5.0682
4.94634
4.82686
7.43043
7.16617
6.93585
6.74632
6.58341
6.43447
6.289
6.14332
5.99866
5.85698
5.71898
5.5844
5.45266
5.32342
5.1966
5.07228
4.9505
4.83132
7.47861
7.18133
6.92973
6.73706
6.57919
6.43355
6.28787
6.14073
5.99519
5.85349
5.71583
5.58154
5.45
5.32099
5.1945
5.07063
4.94942
4.83097
7.56062
7.24289
6.95719
6.74997
6.5917
6.44616
6.29809
6.14845
6.00152
5.85918
5.72111
5.58647
5.45467
5.32555
5.19909
5.07534
4.95427
4.83566
7.59053
7.24182
6.94633
6.74613
6.59285
6.44729
6.29805
6.14791
6.00099
5.85874
5.72071
5.58608
5.45429
5.32522
5.19884
5.0754
4.95476
4.83715
7.82484
7.27847
6.94282
6.75179
6.60194
6.45423
6.30308
6.1522
6.005
5.86256
5.72434
5.58957
5.45768
5.32861
5.20224
5.079
4.95868
4.84214
1.63896
1.48111
1.31666
1.24899
1.32071
1.49361
1.6652
1.72357
1.60293
1.3017
0.854705
0.320806
-0.244262
-0.776566
-1.24096
-1.61887
-1.90116
-2.08226
-2.16382
-2.1582
-2.08944
-1.97285
-1.83045
-1.68317
-1.56499
-1.49916
-1.52782
-1.64332
-1.80591
-1.98707
-2.19358
-2.45909
-2.80345
-3.19939
-3.60322
-3.99393
-4.36594
-4.79733
-5.3637
-6.01998
-6.63869
-7.1627
-7.60683
-8.02458
-8.48686
-8.94201
-9.32876
-9.64371
-9.82567
-9.89856
-10.0017
-10.0978
-10.1549
-10.178
-10.1539
-10.0514
-9.8459
-9.63669
-9.48082
-9.36755
-9.25672
-9.13586
-8.9294
-8.67296
-8.4387
-8.24971
-8.0782
-7.90872
-7.72232
-7.51358
-7.28511
-7.05567
-6.85254
-6.71154
-6.64409
-6.61327
-6.5572
-6.41727
-6.14132
-5.73902
-5.27228
-4.81906
-4.36746
-3.8744
-3.32367
-2.77248
-2.1744
-1.54405
-0.955747
-0.614348
-0.530676
-0.541253
-0.527571
-0.433294
-0.233274
0.0769792
0.495785
1.02044
1.65662
2.42126
3.34381
4.44038
5.70208
7.06258
8.4344
9.73779
11.0773
12.2871
13.1099
13.5639
13.7949
13.9404
14.0994
14.3255
14.6529
15.0999
15.676
16.3829
17.2167
18.1648
19.2045
20.3041
21.4245
22.5228
23.5568
24.4913
25.3011
25.9726
26.4999
26.8824
27.1225
27.2257
27.2005
27.0605
26.824
26.5137
26.1521
25.7576
25.3463
24.9302
24.5181
24.1163
23.7296
23.3617
23.0156
22.6939
22.3985
22.1313
21.8935
21.6862
21.5101
21.3656
21.252
21.1677
21.1096
21.0719
21.0473
21.0269
21.0019
20.9678
20.9269
20.8891
20.8592
20.8229
20.7762
20.7339
20.7032
20.6827
20.6676
20.6553
20.643
20.6313
20.6245
20.6276
20.6397
20.6612
20.6952
20.7527
20.8486
20.9866
0.924174
0.771499
0.620243
0.521746
0.572226
0.6941
0.788937
0.761205
0.567484
0.219679
-0.237327
-0.744754
-1.25274
-1.71724
-2.11403
-2.43212
-2.66303
-2.80468
-2.86033
-2.84662
-2.76671
-2.64369
-2.51078
-2.38192
-2.26962
-2.22202
-2.23326
-2.33548
-2.49254
-2.70926
-3.04569
-3.47334
-3.95311
-4.45081
-4.93281
-5.39008
-5.82126
-6.2701
-6.78706
-7.37844
-7.9542
-8.44332
-8.84091
-9.18358
-9.57015
-9.94722
-10.3379
-10.7774
-11.0216
-11.1342
-11.2507
-11.3322
-11.3537
-11.3107
-11.1952
-11.0506
-10.8407
-10.6053
-10.4057
-10.227
-10.0392
-9.86923
-9.68327
-9.46241
-9.2737
-9.11397
-8.9661
-8.81126
-8.63271
-8.42281
-8.18363
-7.94218
-7.72979
-7.57358
-7.48126
-7.42265
-7.34993
-7.19728
-6.90185
-6.46158
-5.92502
-5.38782
-4.87702
-4.34606
-3.76304
-3.18439
-2.64926
-2.1543
-1.71152
-1.43693
-1.33116
-1.26832
-1.17334
-0.999197
-0.730819
-0.366267
0.0919583
0.642809
1.29261
2.05973
2.97898
4.07417
5.35169
6.74381
8.19081
9.48358
10.6899
11.7449
12.4743
12.9349
13.2187
13.4406
13.6715
13.9583
14.333
14.8171
15.4235
16.1557
17.0087
17.9712
19.0238
20.1367
21.2714
22.3845
23.4326
24.379
25.198
25.8762
26.4089
26.7965
27.0423
27.1516
27.1326
26.9981
26.7653
26.4586
26.0997
25.7078
25.2988
24.8848
24.4743
24.0739
23.6883
23.3211
22.9753
22.6536
22.3577
22.0896
21.8505
21.6415
21.4632
21.3157
21.1981
21.1085
21.0433
20.9968
20.9622
20.9325
20.9023
20.8704
20.8419
20.8234
20.8081
20.7725
20.7217
20.6814
20.6548
20.637
20.6244
20.6148
20.605
20.5949
20.5883
20.5889
20.599
20.6181
20.6558
20.7054
20.7884
20.8492
1.11376
1.03972
0.850763
0.587911
0.319323
0.0596959
-0.221476
-0.561986
-0.98001
-1.45921
-1.9573
-2.43156
-2.8667
-3.2546
-3.56582
-3.79362
-3.94046
-4.00791
-4.00825
-3.95927
-3.8687
-3.74555
-3.60885
-3.48143
-3.37198
-3.32204
-3.32654
-3.39623
-3.55843
-3.81873
-4.1846
-4.64166
-5.16613
-5.72169
-6.27788
-6.80531
-7.33459
-7.90064
-8.49434
-9.09495
-9.62673
-10.0497
-10.3521
-10.6582
-11.0479
-11.4616
-11.8468
-12.2421
-12.5766
-12.8059
-12.9504
-13
-12.951
-12.8224
-12.6462
-12.4299
-12.1866
-11.9273
-11.66
-11.3942
-11.1498
-10.9403
-10.7769
-10.6423
-10.5346
-10.4399
-10.3411
-10.2179
-10.052
-9.83486
-9.57463
-9.30807
-9.07081
-8.8819
-8.73905
-8.61479
-8.46851
-8.24119
-7.87789
-7.3871
-6.7919
-6.15957
-5.57163
-4.99405
-4.41367
-3.8827
-3.46529
-3.13033
-2.85923
-2.64796
-2.4761
-2.2997
-2.08832
-1.81524
-1.46897
-1.04474
-0.543444
0.0352107
0.697844
1.4653
2.37932
3.46893
4.74256
6.1469
7.57142
8.84103
9.91996
10.799
11.4727
11.9823
12.3696
12.7001
13.0218
13.3803
13.8098
14.3365
14.9758
15.7326
16.6067
17.5901
18.6649
19.8021
20.9636
22.1047
23.1795
24.1492
24.9865
25.6783
26.2216
26.6194
26.876
26.9969
26.9894
26.8649
26.6409
26.3421
25.9903
25.6051
25.2023
24.7937
24.3878
23.9909
23.6078
23.2424
22.8978
22.5765
22.2806
22.0121
21.7723
21.5623
21.3824
21.2325
21.1119
21.0187
20.9494
20.899
20.8614
20.8306
20.8016
20.7733
20.7472
20.7252
20.7049
20.6811
20.6533
20.6244
20.5962
20.5722
20.5561
20.5467
20.5396
20.5337
20.5317
20.5351
20.5469
20.5628
20.5939
20.6263
20.6861
20.7066
1.10051
1.02008
0.738146
0.296688
-0.248296
-0.836952
-1.42856
-2.01441
-2.58754
-3.13294
-3.63171
-4.06873
-4.43687
-4.72751
-4.93494
-5.07649
-5.16132
-5.18846
-5.17361
-5.12368
-5.0473
-4.95352
-4.8523
-4.76269
-4.70723
-4.68952
-4.72402
-4.81085
-4.9589
-5.1764
-5.47263
-5.85165
-6.30803
-6.82002
-7.3625
-7.93011
-8.54921
-9.23923
-9.968
-10.6598
-11.2521
-11.7335
-12.0961
-12.4304
-12.8136
-13.2413
-13.6738
-14.0693
-14.3905
-14.6158
-14.7332
-14.7454
-14.6622
-14.5076
-14.3105
-14.0718
-13.7933
-13.4798
-13.1467
-12.8201
-12.5402
-12.339
-12.2095
-12.127
-12.0756
-12.0361
-11.9861
-11.9002
-11.7541
-11.5349
-11.2539
-10.9515
-10.6683
-10.4193
-10.2018
-10.0037
-9.77504
-9.4512
-8.99549
-8.43036
-7.7604
-7.05242
-6.41184
-5.84298
-5.31707
-4.88367
-4.56761
-4.3397
-4.13941
-3.94172
-3.73057
-3.487
-3.19783
-2.84902
-2.43454
-1.95248
-1.40568
-0.796007
-0.118319
0.650515
1.5632
2.65751
3.93221
5.32032
6.67837
7.87071
8.84685
9.65147
10.3161
10.8687
11.3348
11.7524
12.1574
12.5896
13.0814
13.6595
14.34
15.1308
16.0337
17.0441
18.1472
19.3166
20.5143
21.6938
22.8061
23.8089
24.6727
25.3844
25.9433
26.3552
26.6266
26.763
26.771
26.6605
26.4499
26.163
25.8222
25.4473
25.0539
24.6534
24.2543
23.8629
23.484
23.1218
22.7794
22.4597
22.165
21.8972
21.6575
21.4467
21.2657
21.1144
20.992
20.8965
20.8249
20.7725
20.7342
20.7047
20.6798
20.6575
20.6376
20.6196
20.6026
20.5821
20.5551
20.5256
20.5006
20.4773
20.4566
20.4428
20.4351
20.4309
20.4319
20.4371
20.451
20.4685
20.4999
20.5254
20.5646
20.5544
0.917126
0.695829
0.205341
-0.463885
-1.20976
-1.96489
-2.69453
-3.38129
-4.0147
-4.58831
-5.09662
-5.52755
-5.87111
-6.12368
-6.29336
-6.39898
-6.45466
-6.47018
-6.45803
-6.42805
-6.38312
-6.32953
-6.28306
-6.2587
-6.26954
-6.32389
-6.42229
-6.55962
-6.72935
-6.92778
-7.15879
-7.43423
-7.76903
-8.17237
-8.6482
-9.20387
-9.85446
-10.598
-11.3826
-12.1379
-12.8063
-13.384
-13.8822
-14.3383
-14.7869
-15.2415
-15.6859
-16.0848
-16.4111
-16.6448
-16.7673
-16.7741
-16.6733
-16.492
-16.2578
-15.9746
-15.6447
-15.2782
-14.8976
-14.5365
-14.2458
-14.0443
-13.9098
-13.8223
-13.7692
-13.732
-13.6859
-13.602
-13.4545
-13.2274
-12.9275
-12.5882
-12.2401
-11.8989
-11.5726
-11.259
-10.9247
-10.5139
-9.99382
-9.37541
-8.66641
-7.93776
-7.29323
-6.76879
-6.34631
-6.02942
-5.80564
-5.63216
-5.46281
-5.27638
-5.05441
-4.78144
-4.44755
-4.04543
-3.57467
-3.03942
-2.44815
-1.80881
-1.12009
-0.352204
0.565893
1.67916
2.95946
4.3041
5.57838
6.67821
7.58813
8.36729
9.03949
9.62347
10.1446
10.6313
11.1131
11.6205
12.1811
12.8182
13.5473
14.3779
15.3143
16.3553
17.49
18.6956
19.9352
21.1599
22.3173
23.3609
24.2585
24.9964
25.5761
26.0061
26.2954
26.4504
26.4762
26.3829
26.1886
25.917
25.5908
25.2297
24.849
24.4594
24.0694
23.6852
23.312
22.9542
22.6154
22.2986
22.0064
21.7403
21.5021
21.2928
21.1127
20.9617
20.8389
20.7426
20.6699
20.6172
20.5796
20.5528
20.5327
20.5166
20.5033
20.4919
20.4815
20.4688
20.449
20.4245
20.4012
20.3768
20.3504
20.3266
20.3107
20.304
20.3057
20.313
20.329
20.3478
20.3766
20.3973
20.4219
20.3969
0.384749
-0.0122668
-0.704392
-1.47954
-2.29283
-3.09586
-3.85569
-4.57623
-5.25256
-5.87816
-6.44236
-6.92747
-7.31833
-7.60686
-7.80053
-7.92435
-7.99754
-8.03256
-8.04295
-8.04342
-8.03922
-8.03948
-8.0559
-8.09883
-8.17844
-8.29943
-8.45889
-8.64758
-8.85307
-9.06532
-9.28199
-9.51297
-9.78117
-10.116
-10.5401
-11.0759
-11.7262
-12.4784
-13.2833
-14.0856
-14.8374
-15.5181
-16.1302
-16.6851
-17.1971
-17.6794
-18.1272
-18.5199
-18.8351
-19.0517
-19.1547
-19.1419
-19.014
-18.7869
-18.4881
-18.1347
-17.7392
-17.3159
-16.8888
-16.5018
-16.1987
-15.9701
-15.7909
-15.6468
-15.5293
-15.4238
-15.3126
-15.1734
-14.9838
-14.7262
-14.3962
-14.0081
-13.5741
-13.1092
-12.6422
-12.1886
-11.7273
-11.2228
-10.6512
-10.0115
-9.31988
-8.64628
-8.07388
-7.64504
-7.34746
-7.14853
-7.00948
-6.88895
-6.76121
-6.60607
-6.4002
-6.12728
-5.77616
-5.34228
-4.82994
-4.25038
-3.61965
-2.95392
-2.25709
-1.49004
-0.55961
0.574378
1.8468
3.13043
4.32029
5.34545
6.2196
6.99253
7.67463
8.28394
8.84703
9.39234
9.94625
10.5302
11.1651
11.8678
12.6508
13.5241
14.4957
15.567
16.7323
17.9735
19.2553
20.527
21.7321
22.8203
23.7564
24.5257
25.1304
25.582
25.8917
26.0669
26.1118
26.0368
25.8606
25.6067
25.2979
24.9533
24.5873
24.2105
23.8309
23.4551
23.0887
22.7365
22.4026
22.0903
21.802
21.54
21.3057
21.1
20.9229
20.7743
20.6531
20.5576
20.4854
20.4331
20.3969
20.3729
20.3575
20.3478
20.342
20.3386
20.3366
20.3333
20.325
20.3117
20.2955
20.2745
20.2477
20.2183
20.1924
20.1754
20.1715
20.1758
20.1885
20.2047
20.2294
20.246
20.26
20.2263
-0.730859
-1.15947
-1.81687
-2.53172
-3.27933
-4.04302
-4.79921
-5.53781
-6.2503
-6.93267
-7.56568
-8.12655
-8.59621
-8.96373
-9.23221
-9.42628
-9.57006
-9.67836
-9.76573
-9.84513
-9.92243
-10.0056
-10.1039
-10.2269
-10.3813
-10.5689
-10.7862
-11.025
-11.275
-11.5258
-11.7714
-12.0168
-12.2824
-12.6066
-13.0246
-13.571
-14.2414
-15.0138
-15.8522
-16.7117
-17.5444
-18.3191
-19.0214
-19.6482
-20.2045
-20.6955
-21.1199
-21.4681
-21.7237
-21.8747
-21.9155
-21.8451
-21.6514
-21.338
-20.9374
-20.4835
-20.0001
-19.5055
-19.0285
-18.6143
-18.283
-18.002
-17.7469
-17.5119
-17.2932
-17.0799
-16.8587
-16.6141
-16.3297
-15.9912
-15.5901
-15.1218
-14.585
-13.9907
-13.3732
-12.7647
-12.1714
-11.5786
-10.971
-10.3437
-9.71628
-9.14987
-8.70598
-8.40983
-8.24419
-8.1586
-8.10177
-8.04502
-7.97397
-7.86757
-7.70029
-7.45302
-7.1104
-6.66724
-6.13048
-5.51762
-4.85398
-4.16492
-3.45941
-2.68853
-1.74501
-0.606782
0.630593
1.84363
2.95936
3.93716
4.7985
5.57585
6.26967
6.90009
7.49541
8.09107
8.71294
9.37421
10.0858
10.8572
11.6972
12.6164
13.623
14.7223
15.9141
17.1859
18.5059
19.8217
21.0727
22.2049
23.1807
23.9835
24.6154
25.0903
25.4221
25.6172
25.6809
25.6245
25.4673
25.2326
24.943
24.6165
24.2665
23.9031
23.5345
23.1677
22.8089
22.4637
22.1362
21.8302
21.5484
21.2928
21.0647
20.8648
20.6932
20.5493
20.4317
20.3389
20.2685
20.218
20.1842
20.164
20.1542
20.152
20.1548
20.161
20.1689
20.1766
20.1816
20.1824
20.1789
20.1689
20.1492
20.1204
20.0877
20.059
20.0417
20.0362
20.0408
20.0503
20.0672
20.077
20.0816
20.0416
-1.81305
-2.1644
-2.66288
-3.27362
-3.95989
-4.67997
-5.41599
-6.15962
-6.90772
-7.6477
-8.35493
-9.00438
-9.57604
-10.0588
-10.4515
-10.7725
-11.0449
-11.2807
-11.4914
-11.687
-11.8744
-12.0618
-12.2589
-12.4735
-12.71
-12.9691
-13.2483
-13.5434
-13.8479
-14.1536
-14.4542
-14.7532
-15.0704
-15.4463
-15.924
-16.5312
-17.2631
-18.0988
-19.0085
-19.9487
-20.8691
-21.7327
-22.5137
-23.1947
-23.7679
-24.2332
-24.5954
-24.8551
-25.0038
-25.0426
-24.9746
-24.7943
-24.4829
-24.0431
-23.5145
-22.9458
-22.3669
-21.7969
-21.2636
-20.8087
-20.4258
-20.0668
-19.7151
-19.3744
-19.0405
-18.7056
-18.361
-17.9943
-17.5905
-17.1346
-16.6159
-16.0249
-15.3576
-14.625
-13.8635
-13.1146
-12.4041
-11.7349
-11.1027
-10.5085
-9.97309
-9.5362
-9.23768
-9.07992
-9.03452
-9.04243
-9.05607
-9.06063
-9.04811
-8.99681
-8.88223
-8.6807
-8.36848
-7.93609
-7.39077
-6.75613
-6.06663
-5.35592
-4.63805
-3.859
-2.91287
-1.79681
-0.619764
0.51689
1.57245
2.52465
3.38705
4.17275
4.87722
5.52069
6.1394
6.7801
7.46714
8.20348
8.99031
9.831
10.7312
11.697
12.737
13.8607
15.0734
16.3693
17.7208
19.0751
20.3672
21.5396
22.5522
23.3865
24.0445
24.5431
24.8958
25.1097
25.1911
25.1525
25.0141
24.7994
24.5298
24.2219
23.8881
23.5381
23.1803
22.8227
22.4721
22.1347
21.8151
21.5173
21.2439
20.9969
20.7773
20.5855
20.4214
20.284
20.172
20.0837
20.0173
19.9707
19.9415
19.9271
19.925
19.932
19.9453
19.9626
19.9819
20.0016
20.0196
20.0344
20.0452
20.0495
20.0434
20.0243
19.9939
19.9582
19.9271
19.9055
19.8957
19.8926
19.8971
19.8968
19.8916
19.8455
-2.4086
-2.67594
-3.08387
-3.61859
-4.24887
-4.93805
-5.66432
-6.41911
-7.20222
-7.99927
-8.78305
-9.53026
-10.2211
-10.8421
-11.3871
-11.868
-12.3029
-12.7
-13.0658
-13.4063
-13.7298
-14.0456
-14.3635
-14.6891
-15.0249
-15.3717
-15.7292
-16.0965
-16.4709
-16.8477
-17.2248
-17.6099
-18.0236
-18.5054
-19.0971
-19.8157
-20.6552
-21.5955
-22.6073
-23.6442
-24.6558
-25.5999
-26.4387
-27.144
-27.7002
-28.1071
-28.3791
-28.5244
-28.5414
-28.4409
-28.2295
-27.8994
-27.4358
-26.8501
-26.188
-25.5012
-24.8203
-24.164
-23.5572
-23.0343
-22.5672
-22.105
-21.6451
-21.1975
-20.7532
-20.3037
-19.8385
-19.343
-18.8017
-18.2008
-17.5325
-16.7919
-15.9806
-15.1143
-14.228
-13.3677
-12.5703
-11.8527
-11.2178
-10.6684
-10.2227
-9.9061
-9.73684
-9.69968
-9.74848
-9.82156
-9.88269
-9.93274
-9.96928
-9.97045
-9.91454
-9.77027
-9.50133
-9.09172
-8.54818
-7.9012
-7.19335
-6.46336
-5.73028
-4.94438
-4.01084
-2.93988
-1.83591
-0.772095
0.237633
1.17778
2.04587
2.83539
3.54163
4.18883
4.82441
5.50682
6.25444
7.06014
7.91799
8.82677
9.78685
10.7979
11.8686
13.013
14.2419
15.5561
16.9326
18.3188
19.6446
20.8494
21.8913
22.7511
23.4319
23.9508
24.3214
24.5512
24.6478
24.6254
24.5052
24.3101
24.06
23.77
23.4514
23.1139
22.7665
22.4179
22.0758
21.7469
21.4363
21.1479
20.8846
20.6479
20.4387
20.257
20.1021
19.9732
19.8689
19.7879
19.7287
19.6897
19.6689
19.6643
19.6731
19.6919
19.7179
19.7482
19.7804
19.8128
19.8438
19.8719
19.896
19.9145
19.9233
19.9186
19.8989
19.8659
19.8272
19.7914
19.7637
19.7434
19.7306
19.7147
19.6956
19.6418
-2.55975
-2.77228
-3.12593
-3.61657
-4.21481
-4.88886
-5.61532
-6.38723
-7.20518
-8.05703
-8.9187
-9.76855
-10.5861
-11.3554
-12.0662
-12.7239
-13.3383
-13.9126
-14.4489
-14.9526
-15.4335
-15.9014
-16.3642
-16.8253
-17.2858
-17.7466
-18.2089
-18.6746
-19.1439
-19.6169
-20.0977
-20.5999
-21.1501
-21.782
-22.5248
-23.3864
-24.3599
-25.4232
-26.5453
-27.6767
-28.7673
-29.7692
-30.6399
-31.3477
-31.8749
-32.2217
-32.4076
-32.4372
-32.3126
-32.0534
-31.6735
-31.1655
-30.5223
-29.7672
-28.9548
-28.1362
-27.3368
-26.5743
-25.872
-25.2536
-24.6779
-24.0994
-23.5259
-22.9687
-22.4151
-21.8528
-21.2689
-20.6452
-19.9636
-19.2109
-18.3845
-17.4897
-16.5391
-15.5547
-14.5718
-13.6346
-12.7846
-12.0474
-11.4303
-10.9334
-10.5654
-10.3408
-10.2658
-10.3148
-10.4272
-10.5363
-10.6202
-10.6969
-10.7672
-10.8092
-10.806
-10.717
-10.4918
-10.1078
-9.57122
-8.91729
-8.19545
-7.44814
-6.69966
-5.91051
-5.00308
-3.99052
-2.9615
-1.95926
-0.97998
-0.0438119
0.826306
1.60956
2.30575
2.94864
3.59678
4.31384
5.11316
5.97986
6.90076
7.87104
8.88615
9.93962
11.0391
12.2027
13.4458
14.775
16.1718
17.5821
18.9311
20.156
21.2159
22.0924
22.7893
23.3229
23.7064
23.9475
24.0554
24.0466
23.9427
23.7658
23.5336
23.2595
22.9543
22.6281
22.2906
21.951
21.6179
21.2982
20.9974
20.7196
20.4674
20.2421
20.0441
19.8732
19.7288
19.6102
19.5164
19.4467
19.3996
19.3739
19.3675
19.3777
19.4014
19.4353
19.4764
19.5215
19.5682
19.6144
19.6584
19.6988
19.7346
19.7646
19.7859
19.7951
19.7893
19.7671
19.7314
19.6887
19.6468
19.6078
19.575
19.54
19.503
19.437
-2.3972
-2.58269
-2.91787
-3.39629
-3.99296
-4.68009
-5.43614
-6.25127
-7.12292
-8.04098
-8.98702
-9.94105
-10.8832
-11.7959
-12.6678
-13.4986
-14.2895
-15.0389
-15.7463
-16.4176
-17.0636
-17.6938
-18.3141
-18.9258
-19.5271
-20.1175
-20.6994
-21.2781
-21.8577
-22.4437
-23.047
-23.6853
-24.3842
-25.1711
-26.0649
-27.0673
-28.1676
-29.343
-30.561
-31.7738
-32.9314
-33.9835
-34.8854
-35.6024
-36.1139
-36.4178
-36.5323
-36.4554
-36.195
-35.7781
-35.2211
-34.5225
-33.6881
-32.7519
-31.7749
-30.8091
-29.8758
-28.9888
-28.1705
-27.437
-26.7402
-26.0405
-25.3484
-24.6749
-24.0052
-23.3229
-22.6157
-21.8641
-21.0488
-20.1577
-19.1903
-18.1584
-17.0871
-16.0085
-14.9608
-13.9842
-13.1158
-12.3823
-11.7923
-11.3432
-11.0373
-10.8801
-10.8701
-10.9728
-11.1181
-11.2345
-11.3148
-11.3963
-11.4823
-11.5475
-11.5798
-11.5301
-11.3358
-10.9709
-10.4393
-9.78156
-9.05022
-8.29021
-7.5289
-6.73916
-5.86283
-4.90738
-3.94248
-2.98499
-2.0259
-1.09508
-0.23198
0.53279
1.20865
1.84042
2.4945
3.23651
4.07427
4.98815
5.95875
6.97918
8.04199
9.13518
10.2635
11.4473
12.7061
14.0502
15.4626
16.8862
18.2445
19.4753
20.54
21.422
22.1258
22.6664
23.0557
23.3016
23.4158
23.4167
23.3263
23.1646
22.9473
22.6861
22.3921
22.0758
21.7479
21.418
21.095
20.786
20.4965
20.2304
19.9897
19.7757
19.5887
19.4288
19.2958
19.1896
19.1099
19.0565
19.0279
19.022
19.0359
19.0663
19.1097
19.1626
19.2221
19.2849
19.3483
19.4096
19.4668
19.5184
19.564
19.6027
19.6331
19.6526
19.6593
19.6504
19.6252
19.5856
19.5379
19.4859
19.4341
19.3786
19.3213
19.2395
-2.13255
-2.31099
-2.65105
-3.14717
-3.77979
-4.5224
-5.35059
-6.24722
-7.20406
-8.21008
-9.25031
-10.3071
-11.363
-12.4019
-13.4126
-14.3902
-15.3301
-16.2286
-17.0867
-17.9118
-18.7128
-19.4952
-20.2615
-21.0096
-21.736
-22.4399
-23.1255
-23.8011
-24.4755
-25.1617
-25.877
-26.642
-27.4785
-28.402
-29.4201
-30.5304
-31.72
-32.971
-34.2517
-35.5171
-36.716
-37.796
-38.711
-39.4268
-39.9218
-40.187
-40.23
-40.0524
-39.6737
-39.1326
-38.4481
-37.6186
-36.6553
-35.5943
-34.4906
-33.3963
-32.3375
-31.3273
-30.3864
-29.5298
-28.708
-27.8849
-27.0701
-26.2711
-25.476
-24.6666
-23.8286
-22.9491
-22.0114
-21.0026
-19.924
-18.7912
-17.6349
-16.4957
-15.4153
-14.4296
-13.5684
-12.8532
-12.2938
-11.8869
-11.629
-11.5188
-11.5491
-11.677
-11.8299
-11.9359
-11.9975
-12.0649
-12.1447
-12.2133
-12.2534
-12.2141
-12.0298
-11.6714
-11.1427
-10.4862
-9.75397
-8.98698
-8.21135
-7.41405
-6.55595
-5.64027
-4.7223
-3.79772
-2.85895
-1.94284
-1.09937
-0.364782
0.283079
0.898483
1.55127
2.30466
3.16244
4.1047
5.11018
6.16955
7.27204
8.40152
9.55962
10.766
12.0428
13.401
14.8212
16.2455
17.5978
18.8188
19.8735
20.7481
21.4479
21.9855
22.3714
22.6144
22.729
22.7352
22.6545
22.504
22.2973
22.0458
21.7608
21.4539
21.1357
20.8164
20.5049
20.2082
19.9313
19.6771
19.448
19.2451
19.0692
18.9212
18.8018
18.7115
18.6508
18.6187
18.6137
18.6325
18.6716
18.7269
18.7947
18.8713
18.9533
19.0374
19.12
19.1979
19.2687
19.3309
19.3847
19.43
19.4664
19.4926
19.5077
19.5099
19.4973
19.468
19.424
19.3674
19.3036
19.2304
19.1528
19.0536
-1.90345
-2.08921
-2.45877
-3.0079
-3.71886
-4.56207
-5.50638
-6.52591
-7.60311
-8.72406
-9.87366
-11.0353
-12.1925
-13.331
-14.4417
-15.5196
-16.5593
-17.5577
-18.5173
-19.4448
-20.3474
-21.2277
-22.0856
-22.9178
-23.7213
-24.4976
-25.2543
-26.0034
-26.7578
-27.5334
-28.3473
-29.2155
-30.1493
-31.1563
-32.2393
-33.3957
-34.6174
-35.8899
-37.1821
-38.4489
-39.6387
-40.7025
-41.5992
-42.2976
-42.7785
-43.0221
-43.019
-42.7801
-42.3364
-41.7281
-40.9836
-40.1054
-39.103
-38.0022
-36.8468
-35.6831
-34.5451
-33.4481
-32.4069
-31.4346
-30.4909
-29.5477
-28.6124
-27.6857
-26.7598
-25.8221
-24.8585
-23.8604
-22.8139
-21.7092
-20.5521
-19.3582
-18.1599
-17.0006
-15.922
-14.9547
-14.1195
-13.4374
-12.9144
-12.5454
-12.3272
-12.2509
-12.3014
-12.4291
-12.5659
-12.6454
-12.6733
-12.7018
-12.7496
-12.7963
-12.8169
-12.7633
-12.5735
-12.2156
-11.6927
-11.0448
-10.3169
-9.5416
-8.74103
-7.91814
-7.05431
-6.15591
-5.26686
-4.36976
-3.45967
-2.57286
-1.76108
-1.06232
-0.445433
0.151185
0.796259
1.54635
2.40652
3.36059
4.38884
5.47578
6.60612
7.76424
8.94944
10.1791
11.4735
12.8412
14.2591
15.6692
16.9986
18.193
19.2221
20.0757
20.7589
21.2821
21.6542
21.8862
21.9952
22.0024
21.9266
21.7824
21.582
21.3372
21.0599
20.7617
20.4538
20.1464
19.8477
19.5638
19.2988
19.0558
18.8374
18.6457
18.4821
18.349
18.2477
18.179
18.1422
18.1361
18.158
18.2044
18.2717
18.3557
18.4524
18.5573
18.6662
18.775
18.8792
18.9751
19.0601
19.1331
19.1944
19.2451
19.2855
19.3157
19.3355
19.345
19.3429
19.3258
19.292
19.24
19.1729
19.0897
18.9962
18.8804
-1.74354
-1.95193
-2.37589
-3.00904
-3.8323
-4.80806
-5.89498
-7.05839
-8.27172
-9.51508
-10.7704
-12.0219
-13.2544
-14.4565
-15.6223
-16.7495
-17.8339
-18.8716
-19.8632
-20.816
-21.74
-22.6421
-23.526
-24.3905
-25.2334
-26.0559
-26.8637
-27.6662
-28.4734
-29.2976
-30.1519
-31.0484
-31.996
-33.0016
-34.0701
-35.201
-36.39
-37.6243
-38.875
-40.0997
-41.2519
-42.2877
-43.1708
-43.8686
-44.3609
-44.6242
-44.6361
-44.4014
-43.9627
-43.3579
-42.6236
-41.7696
-40.8035
-39.745
-38.6223
-37.468
-36.3174
-35.1874
-34.0894
-33.0296
-31.98
-30.9277
-29.8807
-28.8362
-27.7902
-26.7376
-25.6662
-24.567
-23.4292
-22.2486
-21.04
-19.824
-18.6279
-17.4882
-16.4425
-15.5183
-14.7299
-14.0917
-13.6102
-13.2842
-13.1033
-13.0479
-13.0938
-13.1936
-13.2937
-13.3362
-13.3178
-13.2868
-13.2778
-13.2777
-13.2564
-13.1703
-12.9665
-12.6124
-12.105
-11.4725
-10.7477
-9.95566
-9.11564
-8.2478
-7.35162
-6.45112
-5.57642
-4.70748
-3.83645
-2.99031
-2.21777
-1.55189
-0.960727
-0.379102
0.256019
0.993895
1.84418
2.7965
3.83197
4.93079
6.07563
7.2515
8.45669
9.70494
11.0117
12.3797
13.782
15.1607
16.4493
17.6003
18.5885
19.407
20.0604
20.5566
20.9045
21.1178
21.2161
21.2192
21.1431
21.0003
20.8027
20.5623
20.292
20.0032
19.7067
19.4117
19.1254
18.8529
18.598
18.3645
18.1556
17.9744
17.825
17.7107
17.633
17.5912
17.5836
17.6072
17.6588
17.7354
17.8337
17.9499
18.0795
18.2171
18.357
18.4933
18.6209
18.7358
18.8356
18.9197
18.9886
19.0444
19.0883
19.121
19.1437
19.1573
19.162
19.1552
19.1335
19.092
19.0305
18.9462
18.8448
18.7173
-1.56033
-1.79833
-2.28758
-3.01441
-3.95806
-5.07226
-6.30758
-7.61871
-8.97196
-10.3409
-11.7058
-13.0509
-14.359
-15.6132
-16.8044
-17.9328
-19.0032
-20.0165
-20.9737
-21.8838
-22.7611
-23.6194
-24.4673
-25.3043
-26.1254
-26.9263
-27.7077
-28.4762
-29.2429
-30.021
-30.8254
-31.6702
-32.5646
-33.5152
-34.5261
-35.5981
-36.7249
-37.8945
-39.082
-40.2506
-41.3591
-42.3678
-43.2451
-43.9595
-44.4856
-44.8043
-44.8877
-44.7313
-44.3716
-43.8519
-43.21
-42.4588
-41.6032
-40.6556
-39.6337
-38.5597
-37.4602
-36.3571
-35.2603
-34.1642
-33.0488
-31.9194
-30.7917
-29.6605
-28.5235
-27.3828
-26.2311
-25.0598
-23.8611
-22.6356
-21.4088
-20.2015
-19.0364
-17.9443
-16.9577
-16.097
-15.3704
-14.7918
-14.364
-14.0767
-13.9184
-13.8648
-13.877
-13.9167
-13.9564
-13.9481
-13.8746
-13.776
-13.6953
-13.6302
-13.5526
-13.4244
-13.204
-12.8612
-12.3811
-11.7702
-11.0438
-10.2222
-9.33136
-8.40805
-7.46772
-6.55452
-5.68231
-4.84009
-4.01264
-3.21359
-2.47929
-1.83627
-1.25722
-0.68045
-0.0518101
0.670844
1.50445
2.44286
3.4699
4.56473
5.70809
6.88645
8.09957
9.35666
10.6654
12.0202
13.3897
14.7184
15.9481
17.0393
17.972
18.7414
19.3512
19.808
20.1222
20.3109
20.394
20.3885
20.3077
20.163
19.9662
19.7302
19.4677
19.1895
18.9048
18.6214
18.3455
18.0817
17.8337
17.606
17.4041
17.2335
17.1003
17.0083
16.9577
16.9459
16.9703
17.0266
17.1114
17.2218
17.3552
17.5078
17.6744
17.8486
18.0225
18.1884
18.3404
18.4748
18.5901
18.6857
18.7628
18.824
18.8716
18.9069
18.9318
18.9479
18.9567
18.957
18.9457
18.9167
18.8667
18.79
18.6894
18.5577
-1.15455
-1.43008
-1.98532
-2.80478
-3.87117
-5.13195
-6.53504
-8.02684
-9.56374
-11.1078
-12.6271
-14.0939
-15.4814
-16.7628
-17.9264
-18.9798
-19.9438
-20.8347
-21.6606
-22.4308
-23.1601
-23.8656
-24.5599
-25.2476
-25.9253
-26.5916
-27.2521
-27.9136
-28.5893
-29.2915
-30.0315
-30.8178
-31.6555
-32.5479
-33.4985
-34.5057
-35.5625
-36.66
-37.7791
-38.8904
-39.9588
-40.9489
-41.8309
-42.5771
-43.1615
-43.5677
-43.7698
-43.7584
-43.5512
-43.1914
-42.7119
-42.1336
-41.452
-40.6691
-39.796
-38.8514
-37.8573
-36.8344
-35.7925
-34.7217
-33.6045
-32.4553
-31.2962
-30.1262
-28.9441
-27.7558
-26.5601
-25.3536
-24.1317
-22.8983
-21.6792
-20.5004
-19.3826
-18.3527
-17.4426
-16.6654
-16.0172
-15.5052
-15.1307
-14.8848
-14.742
-14.6712
-14.6305
-14.5837
-14.5276
-14.4405
-14.2981
-14.1291
-13.971
-13.8303
-13.6889
-13.5169
-13.2823
-12.9566
-12.5111
-11.925
-11.1946
-10.3364
-9.39041
-8.41038
-7.4301
-6.49987
-5.62318
-4.80207
-4.01542
-3.26309
-2.56073
-1.92658
-1.34323
-0.759966
-0.131905
0.578367
1.39167
2.30713
3.31094
4.38369
5.50765
6.67383
7.88216
9.13516
10.4305
11.7535
13.0695
14.3281
15.4809
16.4964
17.3589
18.0648
18.6174
19.024
19.2981
19.4585
19.5235
19.5066
19.4189
19.2714
19.0767
18.8477
18.5956
18.3291
18.0554
17.7816
17.513
17.2526
17.0057
16.7792
16.5817
16.4219
16.3061
16.2373
16.214
16.233
16.2908
16.3824
16.5043
16.654
16.8283
17.0227
17.2312
17.4451
17.6549
17.8517
18.0292
18.1843
18.3162
18.4247
18.5114
18.5794
18.6317
18.6707
18.6979
18.7161
18.7277
18.7328
18.7296
18.7123
18.676
18.6126
18.521
18.3932
-0.35277
-0.687062
-1.32428
-2.24941
-3.45265
-4.88597
-6.49387
-8.20366
-9.94874
-11.6664
-13.3044
-14.8207
-16.1855
-17.3723
-18.374
-19.2116
-19.9261
-20.5582
-21.1264
-21.6433
-22.1255
-22.5956
-23.0753
-23.5741
-24.0904
-24.6219
-25.1724
-25.7487
-26.3611
-27.0196
-27.7306
-28.4953
-29.3121
-30.1829
-31.1107
-32.0902
-33.1109
-34.1662
-35.2418
-36.3154
-37.36
-38.3462
-39.2475
-40.0378
-40.6947
-41.201
-41.5382
-41.6935
-41.6711
-41.5002
-41.2107
-40.8242
-40.3438
-39.7618
-39.076
-38.298
-37.4485
-36.5494
-35.6124
-34.6256
-33.5732
-32.4726
-31.3494
-30.2025
-29.0334
-27.8496
-26.6526
-25.4454
-24.2309
-23.018
-21.8306
-20.6961