/*--------------------------------*- C++ -*----------------------------------*\
  =========                 |
  \\      /  F ield         | OpenFOAM: The Open Source CFD Toolbox
   \\    /   O peration     | Website:  https://openfoam.org
    \\  /    A nd           | Version:  10
     \\/     M anipulation  |
\*---------------------------------------------------------------------------*/
FoamFile
{
    format      ascii;
    class       surfaceScalarField;
    location    "4.5";
    object      phi;
}
// * * * * * * * * * * * * * * * * * * * * * * * * * * * * * * * * * * * * * //

dimensions      [0 3 -1 0 0 0 0];

internalField   nonuniform List<scalar> 
24170
(
-1.70961e-12
1.70961e-12
-3.80982e-12
2.1002e-12
-6.76111e-12
2.95129e-12
-1.1107e-11
4.34585e-12
-1.75395e-11
6.43257e-12
-2.69559e-11
9.41641e-12
-4.05055e-11
1.35496e-11
-5.9623e-11
1.91175e-11
-8.60386e-11
2.64156e-11
-1.21759e-10
3.57205e-11
-1.69024e-10
4.72652e-11
-2.3028e-10
6.12557e-11
-3.08289e-10
7.80093e-11
-4.06709e-10
9.84193e-11
-5.32049e-10
1.2534e-10
-7.00314e-10
1.68265e-10
-9.64698e-10
2.64384e-10
6.14274e-10
-1.57897e-09
-1.81035e-12
3.51996e-12
-4.03469e-12
4.32454e-12
-7.16113e-12
6.07773e-12
-1.17659e-11
8.95064e-12
-1.85834e-11
1.325e-11
-2.8566e-11
1.93991e-11
-4.29356e-11
2.79192e-11
-6.32192e-11
3.94011e-11
-9.12615e-11
5.44578e-11
-1.29204e-10
7.36633e-11
-1.79437e-10
9.74983e-11
-2.44554e-10
1.26372e-10
-3.27419e-10
1.60875e-10
-4.31635e-10
2.02635e-10
-5.63047e-10
2.56752e-10
-7.33846e-10
3.39064e-10
-9.70309e-10
5.00847e-10
9.17223e-10
-1.27326e-09
-1.88829e-12
5.40825e-12
-4.20934e-12
6.64559e-12
-7.47338e-12
9.34177e-12
-1.22833e-11
1.37605e-11
-1.94082e-11
2.03749e-11
-2.98477e-11
2.98386e-11
-4.48871e-11
4.29586e-11
-6.61379e-11
6.06519e-11
-9.55536e-11
8.38735e-11
-1.3541e-10
1.13519e-10
-1.88243e-10
1.50331e-10
-2.56771e-10
1.94901e-10
-3.43868e-10
2.47971e-10
-4.52738e-10
3.11505e-10
-5.87513e-10
3.91528e-10
-7.53748e-10
5.05298e-10
-9.51463e-10
6.98562e-10
1.07357e-09
-1.10781e-09
-1.932e-12
7.34025e-12
-4.30845e-12
9.02204e-12
-7.65339e-12
1.26867e-11
-1.25868e-11
1.86939e-11
-1.99014e-11
2.76895e-11
-3.06306e-11
4.05678e-11
-4.61086e-11
5.84366e-11
-6.80175e-11
8.25608e-11
-9.8409e-11
1.14265e-10
-1.39686e-10
1.54797e-10
-1.94531e-10
2.05176e-10
-2.65772e-10
2.66141e-10
-3.56203e-10
3.38403e-10
-4.68368e-10
4.23671e-10
-6.04074e-10
5.27233e-10
-7.62022e-10
6.63246e-10
-9.25902e-10
8.62442e-10
1.16702e-09
-1.01934e-09
-1.92733e-12
9.26758e-12
-4.30074e-12
1.13955e-11
-7.6462e-12
1.60322e-11
-1.25872e-11
2.36349e-11
-1.99235e-11
3.50258e-11
-3.07026e-11
5.13469e-11
-4.62858e-11
7.40199e-11
-6.84037e-11
1.04679e-10
-9.9188e-11
1.45049e-10
-1.4116e-10
1.96769e-10
-1.97149e-10
2.61165e-10
-2.70094e-10
3.39087e-10
-3.62694e-10
4.31002e-10
-4.76742e-10
5.37719e-10
-6.11727e-10
6.62217e-10
-7.61057e-10
8.12576e-10
-9.01645e-10
1.00303e-09
1.23946e-09
-9.74089e-10
-1.8574e-12
1.1125e-11
-4.14886e-12
1.36869e-11
-7.38605e-12
1.92694e-11
-1.21773e-11
2.84261e-11
-1.93064e-11
4.2155e-11
-2.98074e-11
6.18479e-11
-4.50368e-11
8.92493e-11
-6.67402e-11
1.26382e-10
-9.71007e-11
1.7541e-10
-1.38743e-10
2.38411e-10
-1.9465e-10
3.17072e-10
-2.6792e-10
4.12357e-10
-3.61236e-10
5.24318e-10
-4.75829e-10
6.52313e-10
-6.09467e-10
7.95855e-10
-7.52532e-10
9.55642e-10
-8.81376e-10
1.13187e-09
1.31249e-09
-9.54401e-10
-1.70281e-12
1.28278e-11
-3.80981e-12
1.57939e-11
-6.79719e-12
2.22567e-11
-1.12333e-11
3.28622e-11
-1.78555e-11
4.87772e-11
-2.76461e-11
7.16385e-11
-4.1912e-11
1.03515e-10
-6.23659e-11
1.46836e-10
-9.11973e-11
2.04241e-10
-1.31108e-10
2.78322e-10
-1.85255e-10
3.71218e-10
-2.56988e-10
4.8409e-10
-3.49215e-10
6.16545e-10
-4.63097e-10
7.66195e-10
-5.9575e-10
9.28508e-10
-7.36773e-10
1.09666e-09
-8.64905e-10
1.26e-09
1.39875e-09
-9.5117e-10
-1.44237e-12
1.42702e-11
-3.23663e-12
1.75882e-11
-5.79663e-12
2.48167e-11
-9.61921e-12
3.66848e-11
-1.53553e-11
5.45133e-11
-2.38854e-11
8.01685e-11
-3.64052e-11
1.16035e-10
-5.45248e-11
1.64956e-10
-8.03725e-11
2.30089e-10
-1.16682e-10
3.14632e-10
-1.66801e-10
4.21337e-10
-2.34486e-10
5.51775e-10
-3.23271e-10
7.0533e-10
-4.35074e-10
8.77999e-10
-5.67796e-10
1.06123e-09
-7.12222e-10
1.24109e-09
-8.50298e-10
1.39808e-09
1.50822e-09
-9.59768e-10
-1.0546e-12
1.53248e-11
-2.3816e-12
1.89152e-11
-4.29991e-12
2.67351e-11
-7.19592e-12
3.95808e-11
-1.15841e-11
5.89015e-11
-1.81777e-11
8.67621e-11
-2.79797e-11
1.25837e-10
-4.23993e-11
1.79375e-10
-6.33991e-11
2.51089e-10
-9.36597e-11
3.44892e-10
-1.36712e-10
4.64389e-10
-1.96904e-10
6.11967e-10
-2.7895e-10
7.87376e-10
-3.86672e-10
9.8572e-10
-5.20589e-10
1.19515e-09
-6.74643e-10
1.39514e-09
-8.33996e-10
1.55743e-09
1.65218e-09
-9.77954e-10
-5.20282e-13
1.5845e-11
-1.20205e-12
1.95969e-11
-2.2312e-12
2.77642e-11
-3.83764e-12
4.11873e-11
-6.33869e-12
6.14025e-11
-1.01992e-11
9.06227e-11
-1.61221e-11
1.3176e-10
-2.51803e-11
1.88433e-10
-3.90109e-11
2.64919e-10
-6.00826e-11
3.65964e-10
-9.20214e-11
4.96327e-10
-1.39898e-10
6.59844e-10
-2.10225e-10
8.57703e-10
-3.10175e-10
1.08567e-09
-4.45329e-10
1.3303e-09
-6.15528e-10
1.56534e-09
-8.09856e-10
1.75176e-09
1.84718e-09
-1.00485e-09
1.73481e-13
1.56716e-11
3.30747e-13
1.94397e-11
4.60864e-13
2.76341e-11
5.42008e-13
4.11061e-11
5.24007e-13
6.14205e-11
2.87892e-13
9.08588e-11
-4.34557e-13
1.32482e-10
-2.1976e-12
1.90196e-10
-6.07409e-12
2.68796e-10
-1.4036e-11
3.73926e-10
-2.95321e-11
5.11823e-10
-5.82616e-11
6.88573e-10
-1.08984e-10
9.08426e-10
-1.9382e-10
1.17051e-09
-3.268e-10
1.46328e-09
-5.18658e-10
1.7572e-09
-7.66308e-10
1.99941e-09
2.12135e-09
-1.04048e-09
8.04583e-13
1.4867e-11
1.73399e-12
1.85103e-11
2.94673e-12
2.64214e-11
4.62581e-12
3.9427e-11
6.99266e-12
5.90537e-11
1.02982e-11
8.75533e-11
1.47739e-11
1.28007e-10
2.05312e-11
1.84439e-10
2.73604e-11
2.61967e-10
3.43455e-11
3.66941e-10
3.91821e-11
5.06987e-10
3.70578e-11
6.90698e-10
1.90253e-11
9.26459e-10
-2.98619e-11
1.21939e-09
-1.31354e-10
1.56477e-09
-3.10284e-10
1.93613e-09
-5.80089e-10
2.26922e-09
2.45504e-09
-9.13785e-10
1.78206e-12
1.30849e-11
3.88856e-12
1.64038e-11
6.72209e-12
2.35878e-11
1.07594e-11
3.53897e-11
1.66101e-11
5.3203e-11
2.50487e-11
7.91146e-11
3.69934e-11
1.16062e-10
5.34387e-11
1.67994e-10
7.52675e-11
2.40138e-10
1.02812e-10
3.39396e-10
1.3494e-10
4.74859e-10
1.67298e-10
6.5834e-10
1.89196e-10
9.0456e-10
1.78723e-10
1.22987e-09
9.684e-11
1.64666e-09
-1.14509e-10
2.14748e-09
-5.14378e-10
2.66908e-09
3.03355e-09
-1.09289e-09
3.25184e-12
9.83308e-12
7.13026e-12
1.25253e-11
1.24098e-11
1.83082e-11
2.00161e-11
2.77835e-11
3.11649e-11
4.20543e-11
4.74786e-11
6.28009e-11
7.10237e-11
9.25169e-11
1.04357e-10
1.34661e-10
1.50483e-10
1.94012e-10
2.12565e-10
2.77314e-10
2.93076e-10
3.94348e-10
3.9173e-10
5.59686e-10
5.00861e-10
7.95429e-10
5.95804e-10
1.13492e-09
6.16713e-10
1.62575e-09
4.40388e-10
2.32381e-09
-1.38979e-10
3.24845e-09
4.19961e-09
-1.30504e-09
5.25227e-12
4.58081e-12
1.15385e-11
6.23911e-12
2.01447e-11
9.70204e-12
3.26024e-11
1.53257e-11
5.09667e-11
2.369e-11
7.81069e-11
3.56607e-11
1.17801e-10
5.2823e-11
1.75047e-10
7.74142e-11
2.56444e-10
1.12615e-10
3.70563e-10
1.63195e-10
5.28178e-10
2.36734e-10
7.41817e-10
3.46047e-10
1.02303e-09
5.14214e-10
1.37257e-09
7.8538e-10
1.74964e-09
1.24868e-09
1.98055e-09
2.0929e-09
1.49465e-09
3.73435e-09
7.12259e-09
-1.42833e-09
7.54511e-12
-2.9643e-12
1.65647e-11
-2.78047e-12
2.89474e-11
-2.68068e-12
4.68565e-11
-2.58336e-12
7.32353e-11
-2.68883e-12
1.12552e-10
-3.65645e-12
1.70626e-10
-5.25054e-12
2.55435e-10
-7.39489e-12
3.78231e-10
-1.01816e-11
5.55209e-10
-1.37831e-11
8.10428e-10
-1.84842e-11
1.18121e-09
-2.47361e-11
1.72868e-09
-3.32539e-11
2.55925e-09
-4.51914e-11
3.87039e-09
-6.24577e-11
6.05158e-09
-8.82962e-11
9.91432e-09
-1.2839e-10
-1.93197e-10
1.72301e-08
2.91726e-07
2.07371e-07
2.22489e-07
6.92338e-08
1.96469e-07
2.60178e-08
1.86644e-07
9.82242e-09
1.84303e-07
2.33768e-09
1.85228e-07
-9.2861e-10
1.87729e-07
-2.50572e-09
1.91663e-07
-3.94198e-09
1.96959e-07
-5.30632e-09
2.03635e-07
-6.68885e-09
2.11802e-07
-8.18555e-09
2.21679e-07
-9.90219e-09
2.33614e-07
-1.19677e-08
2.48122e-07
-1.45539e-08
2.65963e-07
-1.79032e-08
2.8824e-07
-2.23653e-08
3.16551e-07
-2.84391e-08
-3.67918e-08
3.53149e-07
1.03119e-07
1.04252e-07
1.10114e-07
6.22387e-08
1.01329e-07
3.48026e-08
9.2131e-08
1.90207e-08
8.46417e-08
9.82694e-09
7.94639e-08
4.24922e-09
7.63886e-08
5.69596e-10
7.43716e-08
-1.92505e-09
7.30212e-08
-3.95588e-09
7.21272e-08
-5.79487e-09
7.15076e-08
-7.56589e-09
7.09522e-08
-9.34678e-09
7.01644e-08
-1.11799e-08
6.86793e-08
-1.30688e-08
6.57379e-08
-1.49617e-08
6.00939e-08
-1.67213e-08
4.97295e-08
-1.80747e-08
-1.85432e-08
3.1481e-08
4.89524e-08
5.53001e-08
7.02118e-08
4.09792e-08
7.71849e-08
2.78295e-08
7.82472e-08
1.79583e-08
7.71296e-08
1.09446e-08
7.54129e-08
5.9659e-09
7.36558e-08
2.32678e-09
7.21463e-08
-4.15578e-10
7.06523e-08
-2.46193e-09
6.90463e-08
-4.18887e-09
6.71686e-08
-5.68819e-09
6.4829e-08
-7.00714e-09
6.18079e-08
-8.15883e-09
5.78674e-08
-9.12824e-09
5.27824e-08
-9.87679e-09
4.64097e-08
-1.03485e-08
3.88164e-08
-1.04815e-08
-1.02286e-08
3.05018e-08
1.95416e-08
3.57585e-08
3.18628e-08
2.8658e-08
3.85678e-08
2.11246e-08
4.18477e-08
1.46784e-08
4.32009e-08
9.59139e-09
4.34896e-08
5.67724e-09
4.31606e-08
2.65572e-09
4.24629e-08
2.82101e-10
4.1486e-08
-1.48501e-09
4.02181e-08
-2.92092e-09
3.86448e-08
-4.1149e-09
3.67395e-08
-5.10186e-09
3.44763e-08
-5.89562e-09
3.18439e-08
-6.49583e-09
2.88616e-08
-6.89448e-09
2.5596e-08
-7.083e-09
2.21744e-08
-7.05985e-09
-6.83814e-09
1.87839e-08
1.13097e-08
2.44488e-08
1.95758e-08
2.03919e-08
2.49537e-08
1.57466e-08
2.81862e-08
1.1446e-08
2.99623e-08
7.81532e-09
3.07702e-08
4.86926e-09
3.09174e-08
2.50859e-09
3.05839e-08
6.15524e-10
2.99352e-08
-8.36309e-10
2.89929e-08
-1.97863e-09
2.77854e-08
-2.90735e-09
2.63331e-08
-3.64954e-09
2.46579e-08
-4.22044e-09
2.27904e-08
-4.62832e-09
2.0775e-08
-4.87907e-09
1.86722e-08
-4.98023e-09
1.65566e-08
-4.9442e-09
-4.7901e-09
1.45085e-08
7.2425e-09
1.72063e-08
1.29492e-08
1.46852e-08
1.70264e-08
1.16693e-08
1.97368e-08
8.73567e-09
2.14055e-08
6.14655e-09
2.23062e-08
3.96853e-09
2.26381e-08
2.17674e-09
2.25371e-08
7.16505e-10
2.2132e-08
-4.31159e-10
2.14709e-08
-1.31753e-09
2.05944e-08
-2.03092e-09
1.95369e-08
-2.59198e-09
1.83312e-08
-3.01477e-09
1.70127e-08
-3.30981e-09
1.56204e-08
-3.48679e-09
1.41968e-08
-3.55661e-09
1.27853e-08
-3.53269e-09
-3.43115e-09
1.14263e-08
4.95562e-09
1.22507e-08
9.03233e-09
1.06085e-08
1.21114e-08
8.59019e-09
1.42845e-08
6.56262e-09
1.57124e-08
4.71864e-09
1.65529e-08
3.12802e-09
1.69354e-08
1.79427e-09
1.69586e-08
6.93336e-10
1.67172e-08
-1.89823e-10
1.6264e-08
-8.64303e-10
1.56385e-08
-1.40545e-09
1.48751e-08
-1.82852e-09
1.40054e-08
-2.14507e-09
1.30604e-08
-2.3648e-09
1.20706e-08
-2.49705e-09
1.10659e-08
-2.55189e-09
1.00738e-08
-2.54057e-09
-2.47542e-09
9.11804e-09
3.54786e-09
8.70282e-09
6.54606e-09
7.61031e-09
8.89263e-09
6.24362e-09
1.06147e-08
4.84054e-09
1.17957e-08
3.53767e-09
1.25302e-08
2.39348e-09
1.29042e-08
1.42031e-09
1.29888e-08
6.08671e-10
1.28529e-08
-5.3871e-11
1.25446e-08
-5.56004e-10
1.20983e-08
-9.59192e-10
1.15441e-08
-1.27428e-09
1.09091e-08
-1.51007e-09
1.02186e-08
-1.67435e-09
9.49636e-09
-1.77478e-09
8.76388e-09
-1.81941e-09
8.04017e-09
-1.81686e-09
-1.77618e-09
7.34093e-09
2.62028e-09
6.08254e-09
4.87452e-09
5.35606e-09
6.68187e-09
4.43628e-09
8.04471e-09
3.4777e-09
9.00804e-09
2.57433e-09
9.63103e-09
1.77049e-09
9.97208e-09
1.07927e-09
1.0083e-08
4.97731e-10
1.00127e-08
1.64464e-11
9.80397e-09
-3.47273e-10
9.48407e-09
-6.39294e-10
9.07801e-09
-8.68219e-10
8.60821e-09
-1.04026e-09
8.09499e-09
-1.16113e-09
7.55671e-09
-1.2365e-09
7.00961e-09
-1.27231e-09
6.46757e-09
-1.27481e-09
-1.25042e-09
5.94181e-09
1.97497e-09
4.10758e-09
3.69532e-09
3.63571e-09
5.09836e-09
3.03324e-09
6.17742e-09
2.39865e-09
6.95761e-09
1.79413e-09
7.47724e-09
1.25086e-09
7.77689e-09
7.79622e-10
7.89439e-09
3.80226e-10
7.86318e-09
4.76566e-11
7.72256e-09
-2.06651e-10
7.49255e-09
-4.09285e-10
7.19319e-09
-5.68853e-10
6.84241e-09
-6.89485e-10
6.45635e-09
-7.75073e-10
6.04939e-09
-8.2954e-10
5.63407e-09
-8.56985e-10
5.22094e-09
-8.61686e-10
-8.4799e-10
4.81851e-09
1.50473e-09
2.60285e-09
2.82735e-09
2.31309e-09
3.91968e-09
1.94091e-09
4.77245e-09
1.54587e-09
5.40007e-09
1.16651e-09
5.828e-09
8.2293e-10
6.08485e-09
5.22767e-10
6.19837e-09
2.66711e-10
6.19376e-09
5.22673e-11
6.10016e-09
-1.13048e-10
5.93454e-09
-2.43674e-10
5.71285e-09
-3.47153e-10
5.44933e-09
-4.2597e-10
5.15679e-09
-4.82528e-10
4.84653e-09
-5.19288e-10
4.52838e-09
-5.38837e-10
4.21057e-09
-5.43877e-10
-5.37143e-10
3.89973e-09
1.14657e-09
1.45628e-09
2.16127e-09
1.29839e-09
3.00746e-09
1.09472e-09
3.67602e-09
8.77311e-10
4.17531e-09
6.67215e-10
4.52252e-09
4.75722e-10
4.7379e-09
3.07387e-10
4.84168e-09
1.62931e-10
4.85267e-09
4.12747e-11
4.7923e-09
-5.26737e-11
4.67442e-09
-1.25798e-10
4.51143e-09
-1.84162e-10
4.31451e-09
-2.29049e-10
4.09372e-09
-2.61736e-10
3.85797e-09
-2.83544e-10
3.615e-09
-2.95865e-10
3.37128e-09
-3.0015e-10
-2.97871e-10
3.132e-09
8.58429e-10
5.97852e-10
1.62227e-09
5.34542e-10
2.26436e-09
4.52637e-10
2.77686e-09
3.6481e-10
3.16458e-09
2.79496e-10
3.439e-09
2.01299e-10
3.61423e-09
1.3216e-10
3.70468e-09
7.24801e-11
3.72401e-09
2.19441e-11
3.68762e-09
-1.62788e-11
3.60656e-09
-4.47405e-11
3.49028e-09
-6.78863e-11
3.34739e-09
-8.61566e-11
3.18561e-09
-9.99581e-11
3.01177e-09
-1.09701e-10
2.83173e-09
-1.15823e-10
2.65037e-09
-1.18796e-10
-1.19119e-10
2.47162e-09
5.97852e-10
1.13239e-09
1.58503e-09
1.94984e-09
2.22934e-09
2.43064e-09
2.5628e-09
2.63528e-09
2.65722e-09
2.64094e-09
2.5962e-09
2.52831e-09
2.44216e-09
2.3422e-09
2.2325e-09
2.11668e-09
1.99788e-09
1.87876e-09
-2.64096e-11
2.64096e-11
-5.29622e-11
2.65526e-11
-7.96178e-11
2.66557e-11
-1.06335e-10
2.67175e-11
-1.33072e-10
2.6737e-11
-1.59786e-10
2.67132e-11
-1.86431e-10
2.66455e-11
-2.12965e-10
2.65335e-11
-2.39342e-10
2.63771e-11
-2.65518e-10
2.61764e-11
-2.9145e-10
2.59319e-11
-3.17094e-10
2.56442e-11
-3.42408e-10
2.53144e-11
-3.67352e-10
2.49436e-11
-3.91885e-10
2.45334e-11
-4.15971e-10
2.40853e-11
-4.39572e-10
2.36013e-11
-4.62656e-10
2.30835e-11
-4.8519e-10
2.25341e-11
-5.07145e-10
2.19554e-11
-5.28495e-10
2.13501e-11
-5.49216e-10
2.07205e-11
-5.69285e-10
2.00694e-11
-5.88684e-10
1.93994e-11
-6.07398e-10
1.87132e-11
-6.25411e-10
1.80134e-11
-6.42714e-10
1.73028e-11
-6.59298e-10
1.65839e-11
-6.75157e-10
1.58593e-11
-6.90288e-10
1.51312e-11
-7.04691e-10
1.44023e-11
-7.18365e-10
1.36745e-11
-7.31315e-10
1.29501e-11
-7.43546e-10
1.2231e-11
-7.55065e-10
1.15192e-11
-7.65882e-10
1.08163e-11
-7.76006e-10
1.01239e-11
-7.85449e-10
9.44345e-12
-7.94225e-10
8.77626e-12
-8.02349e-10
8.12351e-12
-8.09835e-10
7.48623e-12
-8.167e-10
6.86531e-12
-8.22962e-10
6.26153e-12
-8.28637e-10
5.67555e-12
-8.33745e-10
5.10789e-12
-8.38304e-10
4.559e-12
-8.42334e-10
4.02919e-12
-8.45852e-10
3.51868e-12
-8.4888e-10
3.02759e-12
-8.51436e-10
2.55602e-12
-8.5354e-10
2.10388e-12
-8.55211e-10
1.67112e-12
-8.56468e-10
1.25754e-12
-8.57331e-10
8.62949e-13
-8.57818e-10
4.87047e-13
-8.57948e-10
1.2952e-13
-8.57738e-10
-2.09969e-13
-8.57206e-10
-5.31855e-13
-8.5637e-10
-8.36532e-13
-8.55245e-10
-1.12447e-12
-8.53849e-10
-1.39613e-12
-8.52197e-10
-1.65201e-12
-8.50304e-10
-1.8926e-12
-8.48186e-10
-2.11842e-12
-8.45856e-10
-2.32999e-12
-8.43328e-10
-2.52783e-12
-8.40616e-10
-2.71246e-12
-8.37731e-10
-2.88439e-12
-8.34687e-10
-3.04414e-12
-8.31495e-10
-3.19223e-12
-8.28166e-10
-3.32913e-12
-8.2471e-10
-3.45536e-12
-8.21139e-10
-3.5714e-12
-8.17461e-10
-3.6777e-12
-8.13687e-10
-3.77472e-12
-8.09824e-10
-3.8629e-12
-8.05881e-10
-3.94266e-12
-8.01867e-10
-4.01442e-12
-7.97788e-10
-4.07857e-12
-7.93652e-10
-4.13549e-12
-7.89467e-10
-4.18554e-12
-7.85238e-10
-4.22906e-12
-7.80972e-10
-4.26637e-12
-7.76674e-10
-4.29779e-12
-7.7235e-10
-4.32361e-12
-7.68006e-10
-4.34412e-12
-7.63646e-10
-4.35955e-12
-7.59276e-10
-4.37017e-12
-7.549e-10
-4.37618e-12
-7.50522e-10
-4.37779e-12
-7.46147e-10
-4.37521e-12
-7.41778e-10
-4.3686e-12
-7.3742e-10
-4.35812e-12
-7.33076e-10
-4.34391e-12
-7.2875e-10
-4.32611e-12
-7.24446e-10
-4.30483e-12
-7.20165e-10
-4.28015e-12
-7.15913e-10
-4.25219e-12
-7.11692e-10
-4.22099e-12
-7.07506e-10
-4.18664e-12
-7.03356e-10
-4.14918e-12
-6.99248e-10
-4.10867e-12
-6.95183e-10
-4.06512e-12
-6.91164e-10
-4.0186e-12
-6.87195e-10
-3.9691e-12
-6.83278e-10
-3.91668e-12
-6.79417e-10
-3.86136e-12
-6.75614e-10
-3.80318e-12
-6.71871e-10
-3.74218e-12
-6.68193e-10
-3.67842e-12
-6.64581e-10
-3.61197e-12
-6.61038e-10
-3.54291e-12
-6.57567e-10
-3.47134e-12
-6.54169e-10
-3.3974e-12
-6.50848e-10
-3.32125e-12
-6.47605e-10
-3.24306e-12
-6.44442e-10
-3.16305e-12
-6.41361e-10
-3.08148e-12
-6.38362e-10
-2.9986e-12
-6.35447e-10
-2.91477e-12
-6.32617e-10
-2.83032e-12
-6.29871e-10
-2.74567e-12
-6.2721e-10
-2.66123e-12
-6.24632e-10
-2.57752e-12
-6.22137e-10
-2.49504e-12
-6.19723e-10
-2.41437e-12
-6.17387e-10
-2.33616e-12
-6.15126e-10
-2.26107e-12
-6.12936e-10
-2.18988e-12
-6.10813e-10
-2.1234e-12
-6.0875e-10
-2.06254e-12
-6.06742e-10
-2.00831e-12
-6.0478e-10
-1.96181e-12
-6.02856e-10
-1.92427e-12
-6.00959e-10
-1.89707e-12
-5.99077e-10
-1.88175e-12
-5.97197e-10
-1.88004e-12
-5.95303e-10
-1.89389e-12
-5.93377e-10
-1.9255e-12
-5.914e-10
-1.97736e-12
-5.89348e-10
-2.0523e-12
-5.87194e-10
-2.15352e-12
-5.8491e-10
-2.28467e-12
-5.8246e-10
-2.44988e-12
-5.79806e-10
-2.65386e-12
-5.76904e-10
-2.90193e-12
-5.73704e-10
-3.20017e-12
-5.70148e-10
-3.55545e-12
-5.66173e-10
-3.97557e-12
-5.61703e-10
-4.46931e-12
-5.56657e-10
-5.0466e-12
-5.50938e-10
-5.71859e-12
-5.4444e-10
-6.49777e-12
-5.37042e-10
-7.39805e-12
-5.28607e-10
-8.43484e-12
-5.18982e-10
-9.62512e-12
-5.07995e-10
-1.09874e-11
-4.95453e-10
-1.25416e-11
-4.81145e-10
-1.43089e-11
-4.64833e-10
-1.63115e-11
-4.46261e-10
-1.8572e-11
-4.25149e-10
-2.11125e-11
-4.01195e-10
-2.3954e-11
-3.7408e-10
-2.71144e-11
-3.43473e-10
-3.06068e-11
-3.09036e-10
-3.44373e-11
-2.70434e-10
-3.86017e-11
-2.27352e-10
-4.30822e-11
-1.79509e-10
-4.7843e-11
-1.26684e-10
-5.28256e-11
-6.87397e-11
-5.79438e-11
-5.66114e-12
-6.30786e-11
6.24103e-11
-6.80715e-11
1.35128e-10
-7.27175e-11
2.1188e-10
-7.67525e-11
2.91706e-10
-7.98261e-11
3.73132e-10
-8.14254e-11
4.53757e-10
-8.06255e-11
5.28803e-10
-7.50452e-11
-5.48692e-11
5.83672e-10
-2.65874e-11
5.2997e-11
-5.33175e-11
5.32827e-11
-8.01496e-11
5.34877e-11
-1.07041e-10
5.36092e-11
-1.33949e-10
5.36449e-11
-1.60829e-10
5.35931e-11
-1.87636e-10
5.34524e-11
-2.14325e-10
5.32221e-11
-2.4085e-10
5.29021e-11
-2.67166e-10
5.24927e-11
-2.93229e-10
5.19949e-11
-3.18995e-10
5.14101e-11
-3.44421e-10
5.07404e-11
-3.69466e-10
4.99884e-11
-3.94089e-10
4.91571e-11
-4.18254e-10
4.82498e-11
-4.41923e-10
4.72707e-11
-4.65064e-10
4.62238e-11
-4.87643e-10
4.51138e-11
-5.09633e-10
4.39455e-11
-5.31007e-10
4.2724e-11
-5.51741e-10
4.14545e-11
-5.71814e-10
4.01423e-11
-5.91208e-10
3.87928e-11
-6.09906e-10
3.74115e-11
-6.27896e-10
3.60037e-11
-6.45168e-10
3.45748e-11
-6.61714e-10
3.31299e-11
-6.77529e-10
3.16741e-11
-6.9261e-10
3.02123e-11
-7.06957e-10
2.87491e-11
-7.20572e-10
2.72891e-11
-7.33458e-10
2.58364e-11
-7.45622e-10
2.43951e-11
-7.57071e-10
2.29687e-11
-7.67816e-10
2.15608e-11
-7.77866e-10
2.01744e-11
-7.87235e-10
1.88124e-11
-7.95936e-10
1.74774e-11
-8.03985e-10
1.61717e-11
-8.11396e-10
1.48973e-11
-8.18186e-10
1.3656e-11
-8.24374e-10
1.24492e-11
-8.29977e-10
1.12784e-11
-8.35013e-10
1.01445e-11
-8.39503e-10
9.04824e-12
-8.43464e-10
7.99038e-12
-8.46916e-10
6.97127e-12
-8.4988e-10
5.99118e-12
-8.52374e-10
5.05015e-12
-8.54418e-10
4.14813e-12
-8.56032e-10
3.2849e-12
-8.57235e-10
2.46008e-12
-8.58045e-10
1.67324e-12
-8.58482e-10
9.238e-13
-8.58563e-10
2.11124e-13
-8.58308e-10
-4.6555e-13
-8.57733e-10
-1.10699e-12
-8.56855e-10
-1.71409e-12
-8.55692e-10
-2.28776e-12
-8.54259e-10
-2.82891e-12
-8.52573e-10
-3.33857e-12
-8.50647e-10
-3.81773e-12
-8.48498e-10
-4.26742e-12
-8.4614e-10
-4.68868e-12
-8.43585e-10
-5.08254e-12
-8.40847e-10
-5.45006e-12
-8.3794e-10
-5.79226e-12
-8.34873e-10
-6.1102e-12
-8.31661e-10
-6.40485e-12
-8.28313e-10
-6.67725e-12
-8.2484e-10
-6.92836e-12
-8.21252e-10
-7.15914e-12
-8.17559e-10
-7.37054e-12
-8.1377e-10
-7.56344e-12
-8.09895e-10
-7.73873e-12
-8.0594e-10
-7.89725e-12
-8.01915e-10
-8.03985e-12
-7.97826e-10
-8.16726e-12
-7.93681e-10
-8.28028e-12
-7.89487e-10
-8.3796e-12
-7.8525e-10
-8.46593e-12
-7.80977e-10
-8.53989e-12
-7.76672e-10
-8.60214e-12
-7.72343e-10
-8.65322e-12
-7.67993e-10
-8.69371e-12
-7.63629e-10
-8.72409e-12
-7.59254e-10
-8.74488e-12
-7.54874e-10
-8.75649e-12
-7.50492e-10
-8.75936e-12
-7.46113e-10
-8.75385e-12
-7.41742e-10
-8.74032e-12
-7.37381e-10
-8.71908e-12
-7.33034e-10
-8.69042e-12
-7.28706e-10
-8.65458e-12
-7.24399e-10
-8.61181e-12
-7.20117e-10
-8.56229e-12
-7.15863e-10
-8.50618e-12
-7.1164e-10
-8.44365e-12
-7.07452e-10
-8.37481e-12
-7.03301e-10
-8.29978e-12
-6.99191e-10
-8.21862e-12
-6.95125e-10
-8.13144e-12
-6.91105e-10
-8.03829e-12
-6.87135e-10
-7.93921e-12
-6.83217e-10
-7.83428e-12
-6.79355e-10
-7.72355e-12
-6.75551e-10
-7.6071e-12
-6.71809e-10
-7.485e-12
-6.6813e-10
-7.35738e-12
-6.64517e-10
-7.22436e-12
-6.60974e-10
-7.08612e-12
-6.57502e-10
-6.94286e-12
-6.54105e-10
-6.79485e-12
-6.50784e-10
-6.64239e-12
-6.47541e-10
-6.48585e-12
-6.44378e-10
-6.32567e-12
-6.41298e-10
-6.16232e-12
-6.383e-10
-5.99639e-12
-6.35386e-10
-5.82851e-12
-6.32557e-10
-5.6594e-12
-6.29813e-10
-5.48986e-12
-6.27153e-10
-5.32076e-12
-6.24578e-10
-5.15307e-12
-6.22085e-10
-4.98785e-12
-6.19673e-10
-4.82625e-12
-6.1734e-10
-4.66953e-12
-6.15082e-10
-4.51906e-12
-6.12895e-10
-4.37637e-12
-6.10776e-10
-4.24307e-12
-6.08717e-10
-4.121e-12
-6.06713e-10
-4.01215e-12
-6.04756e-10
-3.91873e-12
-6.02837e-10
-3.8432e-12
-6.00946e-10
-3.78831e-12
-5.99071e-10
-3.75712e-12
-5.97198e-10
-3.7531e-12
-5.95311e-10
-3.78012e-12
-5.93394e-10
-3.8426e-12
-5.91426e-10
-3.94549e-12
-5.89384e-10
-4.09445e-12
-5.87242e-10
-4.29585e-12
-5.84969e-10
-4.55699e-12
-5.82533e-10
-4.8861e-12
-5.79895e-10
-5.2926e-12
-5.77009e-10
-5.78714e-12
-5.73828e-10
-6.38182e-12
-5.70293e-10
-7.09039e-12
-5.6634e-10
-7.9284e-12
-5.61896e-10
-8.91343e-12
-5.56877e-10
-1.00653e-11
-5.51189e-10
-1.14064e-11
-5.44726e-10
-1.29615e-11
-5.37365e-10
-1.47586e-11
-5.28971e-10
-1.68285e-11
-5.19391e-10
-1.92051e-11
-5.08453e-10
-2.19256e-11
-4.95965e-10
-2.50298e-11
-4.81713e-10
-2.85604e-11
-4.65463e-10
-3.25617e-11
-4.46956e-10
-3.70791e-11
-4.25911e-10
-4.21574e-11
-4.02027e-10
-4.78386e-11
-3.74982e-10
-5.4159e-11
-3.44443e-10
-6.11455e-11
-3.1007e-10
-6.88107e-11
-2.71524e-10
-7.71472e-11
-2.28487e-10
-8.61199e-11
-1.80672e-10
-9.56579e-11
-1.27852e-10
-1.05645e-10
-6.98857e-11
-1.1591e-10
-6.74873e-12
-1.26216e-10
6.14252e-11
-1.36245e-10
1.343e-10
-1.45592e-10
2.11279e-10
-1.53732e-10
2.91431e-10
-1.59978e-10
3.73361e-10
-1.63356e-10
4.54955e-10
-1.6222e-10
5.32889e-10
-1.52979e-10
-1.25388e-10
6.03408e-10
-2.69474e-11
7.99444e-11
-5.40373e-11
8.03726e-11
-8.12267e-11
8.06771e-11
-1.08471e-10
8.08537e-11
-1.35725e-10
8.08989e-11
-1.62942e-10
8.08101e-11
-1.90075e-10
8.05855e-11
-2.17077e-10
8.0224e-11
-2.43901e-10
7.97256e-11
-2.70499e-10
7.9091e-11
-2.96826e-10
7.83219e-11
-3.22837e-10
7.74206e-11
-3.48487e-10
7.63906e-11
-3.73734e-10
7.52359e-11
-3.98538e-10
7.39613e-11
-4.22861e-10
7.25724e-11
-4.46666e-10
7.10753e-11
-4.69918e-10
6.94765e-11
-4.92588e-10
6.77833e-11
-5.14646e-10
6.60032e-11
-5.36065e-10
6.41439e-11
-5.56824e-10
6.22135e-11
-5.76902e-10
6.02202e-11
-5.96282e-10
5.81723e-11
-6.14948e-10
5.60779e-11
-6.3289e-10
5.39454e-11
-6.50098e-10
5.17826e-11
-6.66565e-10
4.95975e-11
-6.82289e-10
4.73977e-11
-6.97267e-10
4.51906e-11
-7.11501e-10
4.29831e-11
-7.24994e-10
4.0782e-11
-7.37751e-10
3.85934e-11
-7.4978e-10
3.64234e-11
-7.61088e-10
3.42773e-11
-7.71688e-10
3.21602e-11
-7.8159e-10
3.00768e-11
-7.90809e-10
2.80312e-11
-7.99359e-10
2.60272e-11
-8.07255e-10
2.40682e-11
-8.14515e-10
2.21572e-11
-8.21156e-10
2.02966e-11
-8.27195e-10
1.84887e-11
-8.32652e-10
1.67354e-11
-8.37546e-10
1.50379e-11
-8.41895e-10
1.33977e-11
-8.4572e-10
1.18153e-11
-8.4904e-10
1.02916e-11
-8.51876e-10
8.8266e-12
-8.54246e-10
7.42051e-12
-8.56171e-10
6.07311e-12
-8.5767e-10
4.78401e-12
-8.58763e-10
3.55267e-12
-8.59468e-10
2.37833e-12
-8.59804e-10
1.26011e-12
-8.5979e-10
1.96987e-13
-8.59443e-10
-8.12156e-13
-8.58782e-10
-1.76856e-12
-8.57822e-10
-2.67355e-12
-8.56582e-10
-3.52849e-12
-8.55076e-10
-4.33484e-12
-8.5332e-10
-5.09408e-12
-8.5133e-10
-5.80775e-12
-8.4912e-10
-6.47739e-12
-8.46704e-10
-7.10455e-12
-8.44096e-10
-7.69083e-12
-8.41308e-10
-8.23778e-12
-8.38354e-10
-8.74695e-12
-8.35244e-10
-9.21989e-12
-8.31991e-10
-9.65814e-12
-8.28605e-10
-1.00632e-11
-8.25097e-10
-1.04365e-11
-8.21476e-10
-1.07795e-11
-8.17753e-10
-1.10935e-11
-8.13937e-10
-1.13801e-11
-8.10035e-10
-1.16403e-11
-8.06057e-10
-1.18756e-11
-8.02009e-10
-1.20871e-11
-7.97901e-10
-1.22761e-11
-7.93737e-10
-1.24436e-11
-7.89526e-10
-1.25906e-11
-7.85274e-10
-1.27184e-11
-7.80986e-10
-1.28277e-11
-7.76669e-10
-1.29195e-11
-7.72327e-10
-1.29947e-11
-7.67967e-10
-1.30541e-11
-7.63592e-10
-1.30985e-11
-7.59209e-10
-1.31286e-11
-7.5482e-10
-1.3145e-11
-7.50431e-10
-1.31484e-11
-7.46046e-10
-1.31393e-11
-7.41668e-10
-1.31183e-11
-7.37301e-10
-1.30857e-11
-7.32949e-10
-1.30421e-11
-7.28616e-10
-1.29878e-11
-7.24305e-10
-1.29231e-11
-7.20019e-10
-1.28483e-11
-7.15761e-10
-1.27638e-11
-7.11535e-10
-1.26696e-11
-7.07344e-10
-1.2566e-11
-7.03191e-10
-1.24532e-11
-6.99078e-10
-1.23312e-11
-6.95009e-10
-1.22001e-11
-6.90987e-10
-1.20602e-11
-6.87015e-10
-1.19113e-11
-6.83096e-10
-1.17537e-11
-6.79232e-10
-1.15874e-11
-6.75427e-10
-1.14125e-11
-6.71683e-10
-1.12291e-11
-6.68003e-10
-1.10374e-11
-6.64389e-10
-1.08376e-11
-6.60846e-10
-1.063e-11
-6.57374e-10
-1.04148e-11
-6.53976e-10
-1.01924e-11
-6.50655e-10
-9.96333e-12
-6.47413e-10
-9.72812e-12
-6.44251e-10
-9.4874e-12
-6.41172e-10
-9.24193e-12
-6.38175e-10
-8.99254e-12
-6.35264e-10
-8.7402e-12
-6.32437e-10
-8.48599e-12
-6.29696e-10
-8.23111e-12
-6.2704e-10
-7.97685e-12
-6.24468e-10
-7.7247e-12
-6.2198e-10
-7.47621e-12
-6.19573e-10
-7.23313e-12
-6.17245e-10
-6.99735e-12
-6.14993e-10
-6.7709e-12
-6.12814e-10
-6.55607e-12
-6.10701e-10
-6.3553e-12
-6.08651e-10
-6.1713e-12
-6.06656e-10
-6.00706e-12
-6.04709e-10
-5.8659e-12
-6.02801e-10
-5.75147e-12
-6.00921e-10
-5.66789e-12
-5.99058e-10
-5.61975e-12
-5.97199e-10
-5.6122e-12
-5.95328e-10
-5.65108e-12
-5.93428e-10
-5.74292e-12
-5.91478e-10
-5.89519e-12
-5.89457e-10
-6.11629e-12
-5.87337e-10
-6.41582e-12
-5.85089e-10
-6.80463e-12
-5.8268e-10
-7.29507e-12
-5.80071e-10
-7.9012e-12
-5.7722e-10
-8.63896e-12
-5.74075e-10
-9.52648e-12
-5.70581e-10
-1.05843e-11
-5.66673e-10
-1.18358e-11
-5.6228e-10
-1.33073e-11
-5.57317e-10
-1.50284e-11
-5.5169e-10
-1.70325e-11
-5.45295e-10
-1.93572e-11
-5.38009e-10
-2.20442e-11
-5.29698e-10
-2.51398e-11
-5.20208e-10
-2.8695e-11
-5.09368e-10
-3.27655e-11
-4.96986e-10
-3.74114e-11
-4.8285e-10
-4.26969e-11
-4.66722e-10
-4.86891e-11
-4.48345e-10
-5.54565e-11
-4.27436e-10
-6.30668e-11
-4.0369e-10
-7.15839e-11
-3.76786e-10
-8.10635e-11
-3.46384e-10
-9.15473e-11
-3.12139e-10
-1.03056e-10
-2.73707e-10
-1.15579e-10
-2.3076e-10
-1.29067e-10
-1.83002e-10
-1.43415e-10
-1.30196e-10
-1.58451e-10
-7.21861e-11
-1.7392e-10
-8.93408e-12
-1.89468e-10
5.94427e-11
-2.04622e-10
1.32627e-10
-2.18777e-10
2.10053e-10
-2.31157e-10
2.90841e-10
-2.40766e-10
3.73721e-10
-2.46236e-10
4.56958e-10
-2.45456e-10
5.38508e-10
-2.3453e-10
-2.05324e-10
6.18445e-10
-2.74992e-11
1.07444e-10
-5.51402e-11
1.08014e-10
-8.28769e-11
1.08414e-10
-1.10661e-10
1.08638e-10
-1.38445e-10
1.08682e-10
-1.66177e-10
1.08542e-10
-1.93808e-10
1.08217e-10
-2.21288e-10
1.07704e-10
-2.48566e-10
1.07004e-10
-2.75593e-10
1.06118e-10
-3.0232e-10
1.05049e-10
-3.28701e-10
1.03801e-10
-3.54689e-10
1.02379e-10
-3.80242e-10
1.00788e-10
-4.05317e-10
9.90364e-11
-4.29875e-10
9.71309e-11
-4.53881e-10
9.50806e-11
-4.77299e-10
9.28949e-11
-5.001e-10
9.05839e-11
-5.22254e-10
8.81579e-11
-5.43738e-10
8.56278e-11
-5.6453e-10
8.30048e-11
-5.84609e-10
8.03001e-11
-6.03962e-10
7.75249e-11
-6.22574e-10
7.46905e-11
-6.40437e-10
7.1808e-11
-6.57543e-10
6.88883e-11
-6.73887e-10
6.59419e-11
-6.89468e-10
6.2979e-11
-7.04287e-10
6.00095e-11
-7.18347e-10
5.70427e-11
-7.31652e-10
5.40874e-11
-7.44211e-10
5.11518e-11
-7.56031e-10
4.82438e-11
-7.67124e-10
4.53705e-11
-7.77503e-10
4.25385e-11
-7.8718e-10
3.97538e-11
-7.9617e-10
3.70219e-11
-8.04491e-10
3.43475e-11
-8.12158e-10
3.17351e-11
-8.19189e-10
2.91884e-11
-8.25603e-10
2.67106e-11
-8.31419e-10
2.43045e-11
-8.36656e-10
2.19723e-11
-8.41333e-10
1.97159e-11
-8.45472e-10
1.75366e-11
-8.49092e-10
1.54354e-11
-8.52214e-10
1.3413e-11
-8.54857e-10
1.14695e-11
-8.57041e-10
9.60503e-12
-8.58787e-10
7.81914e-12
-8.60115e-10
6.11124e-12
-8.61042e-10
4.4805e-12
-8.6159e-10
2.92584e-12
-8.61776e-10
1.44602e-12
-8.61618e-10
3.96126e-14
-8.61136e-10
-1.29495e-12
-8.60345e-10
-2.55935e-12
-8.59263e-10
-3.75538e-12
-8.57907e-10
-4.88495e-12
-8.56291e-10
-5.95e-12
-8.54433e-10
-6.95254e-12
-8.52346e-10
-7.89462e-12
-8.50045e-10
-8.77834e-12
-8.47544e-10
-9.60577e-12
-8.44856e-10
-1.0379e-11
-8.41993e-10
-1.11002e-11
-8.38969e-10
-1.17714e-11
-8.35794e-10
-1.23947e-11
-8.3248e-10
-1.2972e-11
-8.29038e-10
-1.35054e-11
-8.25477e-10
-1.39969e-11
-8.21809e-10
-1.44483e-11
-8.18041e-10
-1.48614e-11
-8.14183e-10
-1.52382e-11
-8.10243e-10
-1.55803e-11
-8.06229e-10
-1.58893e-11
-8.02149e-10
-1.6167e-11
-7.9801e-10
-1.64149e-11
-7.93819e-10
-1.66344e-11
-7.89583e-10
-1.6827e-11
-7.85307e-10
-1.6994e-11
-7.80998e-10
-1.71367e-11
-7.76662e-10
-1.72563e-11
-7.72303e-10
-1.73539e-11
-7.67926e-10
-1.74307e-11
-7.63537e-10
-1.74877e-11
-7.5914e-10
-1.75258e-11
-7.54739e-10
-1.75458e-11
-7.50339e-10
-1.75486e-11
-7.45943e-10
-1.75349e-11
-7.41556e-10
-1.75054e-11
-7.37181e-10
-1.74607e-11
-7.32822e-10
-1.74014e-11
-7.28481e-10
-1.73279e-11
-7.24164e-10
-1.72408e-11
-7.19872e-10
-1.71403e-11
-7.15609e-10
-1.70267e-11
-7.11378e-10
-1.69005e-11
-7.07182e-10
-1.67618e-11
-7.03025e-10
-1.66107e-11
-6.98908e-10
-1.64476e-11
-6.94836e-10
-1.62724e-11
-6.90811e-10