/*--------------------------------*- C++ -*----------------------------------*\
  =========                 |
  \\      /  F ield         | OpenFOAM: The Open Source CFD Toolbox
   \\    /   O peration     | Website:  https://openfoam.org
    \\  /    A nd           | Version:  10
     \\/     M anipulation  |
\*---------------------------------------------------------------------------*/
FoamFile
{
    format      ascii;
    class       volScalarField;
    location    "2.06";
    object      Sb;
}
// * * * * * * * * * * * * * * * * * * * * * * * * * * * * * * * * * * * * * //

dimensions      [0 0 0 0 0 0 0];

internalField   nonuniform List<scalar> 
12225
(
0.871307
0.870297
0.869041
0.867667
0.866265
0.864894
0.863589
0.862373
0.861259
0.860257
0.859378
0.858633
0.858039
0.857628
0.85746
0.857668
0.858606
0.861355
0.883382
0.882105
0.880532
0.87883
0.87711
0.875443
0.873869
0.872412
0.871086
0.869899
0.868861
0.867981
0.867277
0.86678
0.866549
0.866699
0.867472
0.869277
0.890955
0.889454
0.887621
0.885654
0.883682
0.881783
0.880001
0.878359
0.87687
0.875541
0.874379
0.873392
0.872596
0.872017
0.871704
0.87174
0.872257
0.873369
0.896971
0.895252
0.893171
0.890956
0.88875
0.886639
0.884668
0.882859
0.881224
0.879766
0.878491
0.877404
0.876516
0.875848
0.875432
0.87532
0.875563
0.876155
0.902237
0.900294
0.897961
0.895497
0.89306
0.890741
0.888586
0.886616
0.884839
0.883257
0.88187
0.880681
0.879697
0.878928
0.878393
0.878112
0.878091
0.878277
0.907106
0.904921
0.902323
0.8996
0.896926
0.894396
0.892055
0.889922
0.888003
0.886294
0.884793
0.883498
0.882408
0.881527
0.880859
0.880402
0.880134
0.879992
0.911768
0.909317
0.906432
0.903434
0.900511
0.89776
0.895227
0.892927
0.890861
0.889021
0.887401
0.885992
0.884789
0.883786
0.882974
0.882338
0.881844
0.881431
0.916348
0.913597
0.910396
0.9071
0.903911
0.900928
0.898193
0.895718
0.893497
0.89152
0.889773
0.888243
0.886918
0.885783
0.884822
0.884011
0.88331
0.882667
0.920937
0.917841
0.914287
0.910665
0.907188
0.903955
0.901006
0.898346
0.895963
0.89384
0.891958
0.890299
0.888843
0.887571
0.886459
0.885477
0.884588
0.883746
0.925612
0.922113
0.918158
0.914174
0.910381
0.90688
0.903702
0.900845
0.898289
0.896012
0.893987
0.892191
0.890598
0.889183
0.887919
0.886774
0.885713
0.884698
0.930443
0.926464
0.922048
0.917657
0.913518
0.909726
0.906301
0.903233
0.900495
0.898054
0.895879
0.893939
0.892203
0.890643
0.889229
0.887928
0.886708
0.885539
0.935504
0.930942
0.925989
0.921136
0.916613
0.912502
0.908813
0.905522
0.90259
0.899977
0.897643
0.895553
0.893671
0.891965
0.890402
0.888952
0.887586
0.886277
0.94007
0.934889
0.929391
0.924086
0.919196
0.914787
0.910854
0.907359
0.904252
0.901484
0.899009
0.896785
0.894775
0.892944
0.891258
0.889689
0.888209
0.886795
0.945607
0.939561
0.933336
0.927448
0.922095
0.91732
0.913092
0.909353
0.906039
0.90309
0.900451
0.898076
0.895923
0.893955
0.892138
0.890443
0.888843
0.887317
0.952417
0.945119
0.937899
0.931242
0.925303
0.920076
0.915493
0.911467
0.907914
0.904759
0.901938
0.899397
0.897089
0.894973
0.893014
0.891182
0.889451
0.887801
0.961028
0.951835
0.943188
0.935487
0.92879
0.923007
0.918005
0.913654
0.90984
0.906466
0.903452
0.90073
0.898247
0.895956
0.893824
0.89182
0.889924
0.888118
0.97312
0.961035
0.950202
0.94101
0.933316
0.926828
0.921285
0.916489
0.912288
0.908543
0.905155
0.90207
0.899241
0.89663
0.894206
0.891943
0.88982
0.887821
0.957319
0.948991
0.941181
0.934111
0.927821
0.922258
0.917334
0.912955
0.909036
0.905524
0.90237
0.899465
0.896764
0.894246
0.891893
0.88969
0.887621
0.885674
0.941833
0.936184
0.930452
0.924993
0.919934
0.915308
0.911096
0.907262
0.903766
0.900564
0.89762
0.894936
0.892479
0.890186
0.88804
0.886026
0.884132
0.882346
0.930718
0.926593
0.922124
0.917678
0.913424
0.909434
0.905727
0.902298
0.899129
0.896195
0.893474
0.890944
0.888593
0.886428
0.884393
0.882478
0.880672
0.878967
0.921199
0.918042
0.914457
0.910765
0.907141
0.903672
0.900396
0.897324
0.894453
0.891772
0.889267
0.886923
0.884727
0.882676
0.880768
0.878969
0.877269
0.875663
0.912802
0.910294
0.907349
0.904234
0.901112
0.898073
0.895163
0.892404
0.889801
0.887352
0.885049
0.882882
0.880844
0.878923
0.87713
0.875441
0.873845
0.872334
0.905193
0.903144
0.900677
0.898015
0.8953
0.89262
0.890024
0.88754
0.885177
0.882939
0.880823
0.878823
0.876933
0.875147
0.873459
0.871877
0.870379
0.86896
0.898114
0.896406
0.89431
0.89201
0.889632
0.887258
0.884935
0.882694
0.880547
0.878502
0.876558
0.874713
0.872964
0.871304
0.869731
0.868249
0.866844
0.865512
0.891345
0.889901
0.888102
0.886102
0.884009
0.881898
0.879816
0.877793
0.875843
0.873975
0.872191
0.870491
0.868874
0.867335
0.865871
0.864484
0.863171
0.861923
0.884663
0.883432
0.88188
0.880133
0.878288
0.876411
0.874545
0.87272
0.870951
0.869248
0.867615
0.866053
0.864561
0.863138
0.86178
0.860486
0.85926
0.858093
0.877795
0.876745
0.875404
0.87388
0.872255
0.87059
0.868924
0.867284
0.865687
0.864141
0.862653
0.861223
0.859854
0.858543
0.857289
0.85609
0.854951
0.853864
0.87031
0.869418
0.868267
0.866946
0.865527
0.864062
0.862587
0.861127
0.859697
0.858306
0.856962
0.855666
0.854419
0.853222
0.852074
0.850973
0.849922
0.848918
0.86127
0.860528
0.859558
0.858436
0.857221
0.855957
0.854676
0.853401
0.852144
0.850917
0.849724
0.848569
0.847454
0.846379
0.845344
0.844349
0.843395
0.84248
0.847038
0.846449
0.84567
0.844758
0.843761
0.842714
0.841643
0.840567
0.839499
0.838447
0.837418
0.836413
0.835437
0.83449
0.833572
0.832683
0.831824
0.83101
0.727593
0.727735
0.727941
0.728206
0.72853
0.72892
0.729384
0.729933
0.730578
0.731332
0.732209
0.733226
0.734399
0.735748
0.737294
0.73906
0.741067
0.743335
0.745877
0.748693
0.751769
0.755062
0.7585
0.76198
0.765378
0.76857
0.771448
0.773939
0.775999
0.777601
0.778719
0.779294
0.779194
0.778095
0.775138
0.767265
0.732684
0.288883
0.000210321
1.1e-06
1.1e-06
1.1e-06
1.1e-06
1.1e-06
1.1e-06
1.1e-06
1.1e-06
1.1e-06
1.1e-06
1.1e-06
1.1e-06
1.1e-06
1.1e-06
1.1e-06
1.1e-06
1.1e-06
1.1e-06
1.1e-06
1.1e-06
1.1e-06
1.1e-06
1.1e-06
1.1e-06
1.1e-06
1.1e-06
1.1e-06
1.1e-06
1.1e-06
1.1e-06
1.1e-06
1.1e-06
1.1e-06
1.1e-06
1.1e-06
1.1e-06
1.1e-06
1.1e-06
1.1e-06
1.1e-06
1.1e-06
1.1e-06
1.1e-06
1.1e-06
1.1e-06
1.1e-06
1.1e-06
1.1e-06
1.1e-06
1.1e-06
1.1e-06
1.1e-06
1.1e-06
1.1e-06
1.1e-06
1.1e-06
1.1e-06
1.1e-06
1.1e-06
1.1e-06
1.1e-06
1.1e-06
1.1e-06
1.1e-06
1.1e-06
1.1e-06
1.1e-06
1.1e-06
1.1e-06
1.1e-06
1.1e-06
1.1e-06
1.1e-06
1.1e-06
1.1e-06
1.1e-06
1.1e-06
1.1e-06
1.1e-06
1.1e-06
1.1e-06
1.1e-06
1.1e-06
1.1e-06
1.1e-06
1.1e-06
1.1e-06
1.1e-06
1.1e-06
1.1e-06
1.1e-06
1.1e-06
1.1e-06
1.1e-06
1.1e-06
1.1e-06
1.1e-06
1.1e-06
1.1e-06
1.1e-06
1.1e-06
1.1e-06
1.1e-06
1.1e-06
1.1e-06
1.1e-06
1.1e-06
1.1e-06
1.1e-06
1.1e-06
1.1e-06
1.1e-06
1.1e-06
1.1e-06
1.1e-06
1.1e-06
1.1e-06
1.1e-06
1.1e-06
1.1e-06
1.1e-06
1.1e-06
1.1e-06
1.1e-06
1.1e-06
1.1e-06
1.1e-06
1.1e-06
1.1e-06
1.1e-06
1.1e-06
1.1e-06
1.1e-06
1.1e-06
1.1e-06
1.1e-06
1.1e-06
1.1e-06
1.1e-06
1.1e-06
1.1e-06
0.797161
0.797236
0.797353
0.7975
0.797681
0.797917
0.798242
0.798686
0.799267
0.799994
0.800864
0.801865
0.802974
0.804157
0.805373
0.806574
0.807714
0.808752
0.80966
0.810419
0.811012
0.811423
0.811638
0.811653
0.811471
0.8111
0.810549
0.80982
0.808906
0.807787
0.806425
0.804762
0.802699
0.800054
0.796451
0.79094
0.780304
0.745156
0.339387
0.00332926
2.1587e-06
1.1e-06
1.1e-06
1.1e-06
1.1e-06
1.1e-06
1.1e-06
1.1e-06
1.1e-06
1.1e-06
1.1e-06
1.1e-06
1.1e-06
1.1e-06
1.1e-06
1.1e-06
1.1e-06
1.1e-06
1.1e-06
1.1e-06
1.1e-06
1.1e-06
1.1e-06
1.1e-06
1.1e-06
1.1e-06
1.1e-06
1.1e-06
1.1e-06
1.1e-06
1.1e-06
1.1e-06
1.1e-06
1.1e-06
1.1e-06
1.1e-06
1.1e-06
1.1e-06
1.1e-06
1.1e-06
1.1e-06
1.1e-06
1.1e-06
1.1e-06
1.1e-06
1.1e-06
1.1e-06
1.1e-06
1.1e-06
1.1e-06
1.1e-06
1.1e-06
1.1e-06
1.1e-06
1.1e-06
1.1e-06
1.1e-06
1.1e-06
1.1e-06
1.1e-06
1.1e-06
1.1e-06
1.1e-06
1.1e-06
1.1e-06
1.1e-06
1.1e-06
1.1e-06
1.1e-06
1.1e-06
1.1e-06
1.1e-06
1.1e-06
1.1e-06
1.1e-06
1.1e-06
1.1e-06
1.1e-06
1.1e-06
1.1e-06
1.1e-06
1.1e-06
1.1e-06
1.1e-06
1.1e-06
1.1e-06
1.1e-06
1.1e-06
1.1e-06
1.1e-06
1.1e-06
1.1e-06
1.1e-06
1.1e-06
1.1e-06
1.1e-06
1.1e-06
1.1e-06
1.1e-06
1.1e-06
1.1e-06
1.1e-06
1.1e-06
1.1e-06
1.1e-06
1.1e-06
1.1e-06
1.1e-06
1.1e-06
1.1e-06
1.1e-06
1.1e-06
1.1e-06
1.1e-06
1.1e-06
1.1e-06
1.1e-06
1.1e-06
1.1e-06
1.1e-06
1.1e-06
1.1e-06
1.1e-06
1.1e-06
1.1e-06
1.1e-06
1.1e-06
1.1e-06
1.1e-06
1.1e-06
1.1e-06
1.1e-06
1.1e-06
1.1e-06
1.1e-06
1.1e-06
1.1e-06
1.1e-06
1.1e-06
1.1e-06
0.811568
0.811635
0.811714
0.811803
0.811895
0.812016
0.812205
0.812498
0.81292
0.813486
0.814203
0.815069
0.816072
0.817187
0.818374
0.819581
0.82075
0.82182
0.822737
0.823461
0.82396
0.824219
0.82423
0.823994
0.823516
0.822804
0.821874
0.820739
0.819407
0.817879
0.816145
0.814182
0.811946
0.809361
0.806267
0.802341
0.79682
0.78746
0.764587
0.581902
0.0505165
5.34891e-05
1.1e-06
1.1e-06
1.1e-06
1.1e-06
1.1e-06
1.1e-06
1.1e-06
1.1e-06
1.1e-06
1.1e-06
1.1e-06
1.1e-06
1.1e-06
1.1e-06
1.1e-06
1.1e-06
1.1e-06
1.1e-06
1.1e-06
1.1e-06
1.1e-06
1.1e-06
1.1e-06
1.1e-06
1.1e-06
1.1e-06
1.1e-06
1.1e-06
1.1e-06
1.1e-06
1.1e-06
1.1e-06
1.1e-06
1.1e-06
1.1e-06
1.1e-06
1.1e-06
1.1e-06
1.1e-06
1.1e-06
1.1e-06
1.1e-06
1.1e-06
1.1e-06
1.1e-06
1.1e-06
1.1e-06
1.1e-06
1.1e-06
1.1e-06
1.1e-06
1.1e-06
1.1e-06
1.1e-06
1.1e-06
1.1e-06
1.1e-06
1.1e-06
1.1e-06
1.1e-06
1.1e-06
1.1e-06
1.1e-06
1.1e-06
1.1e-06
1.1e-06
1.1e-06
1.1e-06
1.1e-06
1.1e-06
1.1e-06
1.1e-06
1.1e-06
1.1e-06
1.1e-06
1.1e-06
1.1e-06
1.1e-06
1.1e-06
1.1e-06
1.1e-06
1.1e-06
1.1e-06
1.1e-06
1.1e-06
1.1e-06
1.1e-06
1.1e-06
1.1e-06
1.1e-06
1.1e-06
1.1e-06
1.1e-06
1.1e-06
1.1e-06
1.1e-06
1.1e-06
1.1e-06
1.1e-06
1.1e-06
1.1e-06
1.1e-06
1.1e-06
1.1e-06
1.1e-06
1.1e-06
1.1e-06
1.1e-06
1.1e-06
1.1e-06
1.1e-06
1.1e-06
1.1e-06
1.1e-06
1.1e-06
1.1e-06
1.1e-06
1.1e-06
1.1e-06
1.1e-06
1.1e-06
1.1e-06
1.1e-06
1.1e-06
1.1e-06
1.1e-06
1.1e-06
1.1e-06
1.1e-06
1.1e-06
1.1e-06
1.1e-06
1.1e-06
1.1e-06
1.1e-06
1.1e-06
1.1e-06
1.1e-06
0.819211
0.819295
0.819375
0.819457
0.81953
0.8196
0.819686
0.819804
0.819969
0.820187
0.820463
0.820796
0.821181
0.821607
0.822061
0.82252
0.822958
0.823346
0.823657
0.823871
0.82397
0.823941
0.823773
0.823456
0.822986
0.822363
0.821586
0.82066
0.819587
0.818368
0.817002
0.815481
0.813786
0.811877
0.809683
0.807071
0.803781
0.79925
0.792094
0.777517
0.718284
0.23333
0.00157969
1.45958e-06
1.1e-06
1.1e-06
1.1e-06
1.1e-06
1.1e-06
1.1e-06
1.1e-06
1.1e-06
1.1e-06
1.1e-06
1.1e-06
1.1e-06
1.1e-06
1.1e-06
1.1e-06
1.1e-06
1.1e-06
1.1e-06
1.1e-06
1.1e-06
1.1e-06
1.1e-06
1.1e-06
1.1e-06
1.1e-06
1.1e-06
1.1e-06
1.1e-06
1.1e-06
1.1e-06
1.1e-06
1.1e-06
1.1e-06
1.1e-06
1.1e-06
1.1e-06
1.1e-06
1.1e-06
1.1e-06
1.1e-06
1.1e-06
1.1e-06
1.1e-06
1.1e-06
1.1e-06
1.1e-06
1.1e-06
1.1e-06
1.1e-06
1.1e-06
1.1e-06
1.1e-06
1.1e-06
1.1e-06
1.1e-06
1.1e-06
1.1e-06
1.1e-06
1.1e-06
1.1e-06
1.1e-06
1.1e-06
1.1e-06
1.1e-06
1.1e-06
1.1e-06
1.1e-06
1.1e-06
1.1e-06
1.1e-06
1.1e-06
1.1e-06
1.1e-06
1.1e-06
1.1e-06
1.1e-06
1.1e-06
1.1e-06
1.1e-06
1.1e-06
1.1e-06
1.1e-06
1.1e-06
1.1e-06
1.1e-06
1.1e-06
1.1e-06
1.1e-06
1.1e-06
1.1e-06
1.1e-06
1.1e-06
1.1e-06
1.1e-06
1.1e-06
1.1e-06
1.1e-06
1.1e-06
1.1e-06
1.1e-06
1.1e-06
1.1e-06
1.1e-06
1.1e-06
1.1e-06
1.1e-06
1.1e-06
1.1e-06
1.1e-06
1.1e-06
1.1e-06
1.1e-06
1.1e-06
1.1e-06
1.1e-06
1.1e-06
1.1e-06
1.1e-06
1.1e-06
1.1e-06
1.1e-06
1.1e-06
1.1e-06
1.1e-06
1.1e-06
1.1e-06
1.1e-06
1.1e-06
1.1e-06
1.1e-06
1.1e-06
1.1e-06
1.1e-06
1.1e-06
1.1e-06
1.1e-06
0.824552
0.824665
0.824764
0.824856
0.82493
0.824985
0.825031
0.825074
0.825122
0.825181
0.825252
0.825335
0.825429
0.825528
0.825627
0.825716
0.825782
0.825813
0.825798
0.825724
0.825581
0.82536
0.825053
0.824651
0.82415
0.823546
0.822837
0.822022
0.821102
0.820075
0.818939
0.817687
0.816309
0.814782
0.813069
0.811109
0.808794
0.805925
0.802105
0.796437
0.78632
0.759628
0.529077
0.0332654
2.31451e-05
1.1e-06
1.1e-06
1.1e-06
1.1e-06
1.1e-06
1.1e-06
1.1e-06
1.1e-06
1.1e-06
1.1e-06
1.1e-06
1.1e-06
1.1e-06
1.1e-06
1.1e-06
1.1e-06
1.1e-06
1.1e-06
1.1e-06
1.1e-06
1.1e-06
1.1e-06
1.1e-06
1.1e-06
1.1e-06
1.1e-06
1.1e-06
1.1e-06
1.1e-06
1.1e-06
1.1e-06
1.1e-06
1.1e-06
1.1e-06
1.1e-06
1.1e-06
1.1e-06
1.1e-06
1.1e-06
1.1e-06
1.1e-06
1.1e-06
1.1e-06
1.1e-06
1.1e-06
1.1e-06
1.1e-06
1.1e-06
1.1e-06
1.1e-06
1.1e-06
1.1e-06
1.1e-06
1.1e-06
1.1e-06
1.1e-06
1.1e-06
1.1e-06
1.1e-06
1.1e-06
1.1e-06
1.1e-06
1.1e-06
1.1e-06
1.1e-06
1.1e-06
1.1e-06
1.1e-06
1.1e-06
1.1e-06
1.1e-06
1.1e-06
1.1e-06
1.1e-06
1.1e-06
1.1e-06
1.1e-06
1.1e-06
1.1e-06
1.1e-06
1.1e-06
1.1e-06
1.1e-06
1.1e-06
1.1e-06
1.1e-06
1.1e-06
1.1e-06
1.1e-06
1.1e-06
1.1e-06
1.1e-06
1.1e-06
1.1e-06
1.1e-06
1.1e-06
1.1e-06
1.1e-06
1.1e-06
1.1e-06
1.1e-06
1.1e-06
1.1e-06
1.1e-06
1.1e-06
1.1e-06
1.1e-06
1.1e-06
1.1e-06
1.1e-06
1.1e-06
1.1e-06
1.1e-06
1.1e-06
1.1e-06
1.1e-06
1.1e-06
1.1e-06
1.1e-06
1.1e-06
1.1e-06
1.1e-06
1.1e-06
1.1e-06
1.1e-06
1.1e-06
1.1e-06
1.1e-06
1.1e-06
1.1e-06
1.1e-06
1.1e-06
1.1e-06
1.1e-06
1.1e-06
0.828775
0.828926
0.829054
0.829163
0.829247
0.829305
0.829339
0.829352
0.829349
0.829332
0.829301
0.829257
0.8292
0.829128
0.829037
0.828925
0.828786
0.828614
0.828404
0.828151
0.827849
0.827492
0.827075
0.826594
0.826043
0.825422
0.824726
0.823955
0.823106
0.822177
0.821167
0.820069
0.818876
0.817575
0.816144
0.814548
0.812736
0.810616
0.808033
0.804697
0.799992
0.79234
0.776006
0.699095
0.162586
0.000251419
1.1e-06
1.1e-06
1.1e-06
1.1e-06
1.1e-06
1.1e-06
1.1e-06
1.1e-06
1.1e-06
1.1e-06
1.1e-06
1.1e-06
1.1e-06
1.1e-06
1.1e-06
1.1e-06
1.1e-06
1.1e-06
1.1e-06
1.1e-06
1.1e-06
1.1e-06
1.1e-06
1.1e-06
1.1e-06
1.1e-06
1.1e-06
1.1e-06
1.1e-06
1.1e-06
1.1e-06
1.1e-06
1.1e-06
1.1e-06
1.1e-06
1.1e-06
1.1e-06
1.1e-06
1.1e-06
1.1e-06
1.1e-06
1.1e-06
1.1e-06
1.1e-06
1.1e-06
1.1e-06
1.1e-06
1.1e-06
1.1e-06
1.1e-06
1.1e-06
1.1e-06
1.1e-06
1.1e-06
1.1e-06
1.1e-06
1.1e-06
1.1e-06
1.1e-06
1.1e-06
1.1e-06
1.1e-06
1.1e-06
1.1e-06
1.1e-06
1.1e-06
1.1e-06
1.1e-06
1.1e-06
1.1e-06
1.1e-06
1.1e-06
1.1e-06
1.1e-06
1.1e-06
1.1e-06
1.1e-06
1.1e-06
1.1e-06
1.1e-06
1.1e-06
1.1e-06
1.1e-06
1.1e-06
1.1e-06
1.1e-06
1.1e-06
1.1e-06
1.1e-06
1.1e-06
1.1e-06
1.1e-06
1.1e-06
1.1e-06
1.1e-06
1.1e-06
1.1e-06
1.1e-06
1.1e-06
1.1e-06
1.1e-06
1.1e-06
1.1e-06
1.1e-06
1.1e-06
1.1e-06
1.1e-06
1.1e-06
1.1e-06
1.1e-06
1.1e-06
1.1e-06
1.1e-06
1.1e-06
1.1e-06
1.1e-06
1.1e-06
1.1e-06
1.1e-06
1.1e-06
1.1e-06
1.1e-06
1.1e-06
1.1e-06
1.1e-06
1.1e-06
1.1e-06
1.1e-06
1.1e-06
1.1e-06
1.1e-06
1.1e-06
1.1e-06
1.1e-06
0.832351
0.832543
0.832706
0.83284
0.832943
0.833012
0.833049
0.833054
0.833029
0.832974
0.832891
0.832779
0.83264
0.832471
0.832274
0.832045
0.831785
0.83149
0.83116
0.83079
0.830379
0.829925
0.829423
0.828873
0.828272
0.827616
0.826906
0.826139
0.825312
0.824425
0.823475
0.822457
0.821365
0.820191
0.818921
0.817535
0.816003
0.814277
0.812283
0.809893
0.806881
0.80279
0.796534
0.784697
0.74771
0.374892
0.00352446
1.22575e-06
1.1e-06
1.1e-06
1.1e-06
1.1e-06
1.1e-06
1.1e-06
1.1e-06
1.1e-06
1.1e-06
1.1e-06
1.1e-06
1.1e-06
1.1e-06
1.1e-06
1.1e-06
1.1e-06
1.1e-06
1.1e-06
1.1e-06
1.1e-06
1.1e-06
1.1e-06
1.1e-06
1.1e-06
1.1e-06
1.1e-06
1.1e-06
1.1e-06
1.1e-06
1.1e-06
1.1e-06
1.1e-06
1.1e-06
1.1e-06
1.1e-06
1.1e-06
1.1e-06
1.1e-06
1.1e-06
1.1e-06
1.1e-06
1.1e-06
1.1e-06
1.1e-06
1.1e-06
1.1e-06
1.1e-06
1.1e-06
1.1e-06
1.1e-06
1.1e-06
1.1e-06
1.1e-06
1.1e-06
1.1e-06
1.1e-06
1.1e-06
1.1e-06
1.1e-06
1.1e-06
1.1e-06
1.1e-06
1.1e-06
1.1e-06
1.1e-06
1.1e-06
1.1e-06
1.1e-06
1.1e-06
1.1e-06
1.1e-06
1.1e-06
1.1e-06
1.1e-06
1.1e-06
1.1e-06
1.1e-06
1.1e-06
1.1e-06
1.1e-06
1.1e-06
1.1e-06
1.1e-06
1.1e-06
1.1e-06
1.1e-06
1.1e-06
1.1e-06
1.1e-06
1.1e-06
1.1e-06
1.1e-06
1.1e-06
1.1e-06
1.1e-06
1.1e-06
1.1e-06
1.1e-06
1.1e-06
1.1e-06
1.1e-06
1.1e-06
1.1e-06
1.1e-06
1.1e-06
1.1e-06
1.1e-06
1.1e-06
1.1e-06
1.1e-06
1.1e-06
1.1e-06
1.1e-06
1.1e-06
1.1e-06
1.1e-06
1.1e-06
1.1e-06
1.1e-06
1.1e-06
1.1e-06
1.1e-06
1.1e-06
1.1e-06
1.1e-06
1.1e-06
1.1e-06
1.1e-06
1.1e-06
1.1e-06
1.1e-06
1.1e-06
0.835515
0.835751
0.835952
0.836117
0.836244
0.836331
0.836378
0.836385
0.836351
0.836279
0.836167
0.836016
0.835827
0.835601
0.835337
0.835036
0.834698
0.834322
0.833909
0.833459
0.832969
0.83244
0.831871
0.83126
0.830608
0.829912
0.829173
0.828387
0.827556
0.826676
0.825746
0.824762
0.82372
0.822614
0.821435
0.820169
0.818799
0.817295
0.815617
0.813699
0.811435
0.808637
0.804945
0.799551
0.790176
0.766808
0.571451
0.0257662
1.31733e-06
1.1e-06
1.1e-06
1.1e-06
1.1e-06
1.1e-06
1.1e-06
1.1e-06
1.1e-06
1.1e-06
1.1e-06
1.1e-06
1.1e-06
1.1e-06
1.1e-06
1.1e-06
1.1e-06
1.1e-06
1.1e-06
1.1e-06
1.1e-06
1.1e-06
1.1e-06
1.1e-06
1.1e-06
1.1e-06
1.1e-06
1.1e-06
1.1e-06
1.1e-06
1.1e-06
1.1e-06
1.1e-06
1.1e-06
1.1e-06
1.1e-06
1.1e-06
1.1e-06
1.1e-06
1.1e-06
1.1e-06
1.1e-06
1.1e-06
1.1e-06
1.1e-06
1.1e-06
1.1e-06
1.1e-06
1.1e-06
1.1e-06
1.1e-06
1.1e-06
1.1e-06
1.1e-06
1.1e-06
1.1e-06
1.1e-06
1.1e-06
1.1e-06
1.1e-06
1.1e-06
1.1e-06
1.1e-06
1.1e-06
1.1e-06
1.1e-06
1.1e-06
1.1e-06
1.1e-06
1.1e-06
1.1e-06
1.1e-06
1.1e-06
1.1e-06
1.1e-06
1.1e-06
1.1e-06
1.1e-06
1.1e-06
1.1e-06
1.1e-06
1.1e-06
1.1e-06
1.1e-06
1.1e-06
1.1e-06
1.1e-06
1.1e-06
1.1e-06
1.1e-06
1.1e-06
1.1e-06
1.1e-06
1.1e-06
1.1e-06
1.1e-06
1.1e-06
1.1e-06
1.1e-06
1.1e-06
1.1e-06
1.1e-06
1.1e-06
1.1e-06
1.1e-06
1.1e-06
1.1e-06
1.1e-06
1.1e-06
1.1e-06
1.1e-06
1.1e-06
1.1e-06
1.1e-06
1.1e-06
1.1e-06
1.1e-06
1.1e-06
1.1e-06
1.1e-06
1.1e-06
1.1e-06
1.1e-06
1.1e-06
1.1e-06
1.1e-06
1.1e-06
1.1e-06
1.1e-06
1.1e-06
1.1e-06
1.1e-06
0.838405
0.838686
0.838927
0.839126
0.83928
0.839389
0.83945
0.839463
0.839428
0.839346
0.839217
0.839041
0.838819
0.838553
0.838243
0.83789
0.837496
0.837061
0.836586
0.836072
0.83552
0.83493
0.834303
0.833639
0.832937
0.832198
0.831422
0.830608
0.829756
0.828864
0.827931
0.826954
0.825931
0.824857
0.823726
0.822528
0.821252
0.819879
0.818384
0.816728
0.814855
0.812669
0.810011
0.806579
0.801722
0.793714
0.77586
0.672021
0.0819675
6.51438e-06
1.1e-06
1.1e-06
1.1e-06
1.1e-06
1.1e-06
1.1e-06
1.1e-06
1.1e-06
1.1e-06
1.1e-06
1.1e-06
1.1e-06
1.1e-06
1.1e-06
1.1e-06
1.1e-06
1.1e-06
1.1e-06
1.1e-06
1.1e-06
1.1e-06
1.1e-06
1.1e-06
1.1e-06
1.1e-06
1.1e-06
1.1e-06
1.1e-06
1.1e-06
1.1e-06
1.1e-06
1.1e-06
1.1e-06
1.1e-06
1.1e-06
1.1e-06
1.1e-06
1.1e-06
1.1e-06
1.1e-06
1.1e-06
1.1e-06
1.1e-06
1.1e-06
1.1e-06
1.1e-06
1.1e-06
1.1e-06
1.1e-06
1.1e-06
1.1e-06
1.1e-06
1.1e-06
1.1e-06
1.1e-06
1.1e-06
1.1e-06
1.1e-06
1.1e-06
1.1e-06
1.1e-06
1.1e-06
1.1e-06
1.1e-06
1.1e-06
1.1e-06
1.1e-06
1.1e-06
1.1e-06
1.1e-06
1.1e-06
1.1e-06
1.1e-06
1.1e-06
1.1e-06
1.1e-06
1.1e-06
1.1e-06
1.1e-06
1.1e-06
1.1e-06
1.1e-06
1.1e-06
1.1e-06
1.1e-06
1.1e-06
1.1e-06
1.1e-06
1.1e-06
1.1e-06
1.1e-06
1.1e-06
1.1e-06
1.1e-06
1.1e-06
1.1e-06
1.1e-06
1.1e-06
1.1e-06
1.1e-06
1.1e-06
1.1e-06
1.1e-06
1.1e-06
1.1e-06
1.1e-06
1.1e-06
1.1e-06
1.1e-06
1.1e-06
1.1e-06
1.1e-06
1.1e-06
1.1e-06
1.1e-06
1.1e-06
1.1e-06
1.1e-06
1.1e-06
1.1e-06
1.1e-06
1.1e-06
1.1e-06
1.1e-06
1.1e-06
1.1e-06
1.1e-06
1.1e-06
1.1e-06
1.1e-06
0.841102
0.84143
0.841714
0.841949
0.842133
0.842264
0.842342
0.842364
0.842332
0.842244
0.842102
0.841906
0.841658
0.84136
0.841012
0.840617
0.840176
0.839691
0.839165
0.838597
0.837991
0.837348
0.836668
0.835953
0.835203
0.83442
0.833604
0.832755
0.831874
0.830958
0.830009
0.829024
0.828001
0.826936
0.825826
0.824664
0.823442
0.822146
0.820761
0.819262
0.817613
0.815762
0.813623
0.81105
0.807777
0.803236
0.795973
0.780729
0.711071
0.146713
2.60821e-05
1.1e-06
1.1e-06
1.1e-06
1.1e-06
1.1e-06
1.1e-06
1.1e-06
1.1e-06
1.1e-06
1.1e-06
1.1e-06
1.1e-06
1.1e-06
1.1e-06
1.1e-06
1.1e-06
1.1e-06
1.1e-06
1.1e-06
1.1e-06
1.1e-06
1.1e-06
1.1e-06
1.1e-06
1.1e-06
1.1e-06
1.1e-06
1.1e-06
1.1e-06
1.1e-06
1.1e-06
1.1e-06
1.1e-06
1.1e-06
1.1e-06
1.1e-06
1.1e-06
1.1e-06
1.1e-06
1.1e-06
1.1e-06
1.1e-06
1.1e-06
1.1e-06
1.1e-06
1.1e-06
1.1e-06
1.1e-06
1.1e-06
1.1e-06
1.1e-06
1.1e-06
1.1e-06
1.1e-06
1.1e-06
1.1e-06
1.1e-06
1.1e-06
1.1e-06
1.1e-06
1.1e-06
1.1e-06
1.1e-06
1.1e-06
1.1e-06
1.1e-06
1.1e-06
1.1e-06
1.1e-06
1.1e-06
1.1e-06
1.1e-06
1.1e-06
1.1e-06
1.1e-06
1.1e-06
1.1e-06
1.1e-06
1.1e-06
1.1e-06
1.1e-06
1.1e-06
1.1e-06
1.1e-06
1.1e-06
1.1e-06
1.1e-06
1.1e-06
1.1e-06
1.1e-06
1.1e-06
1.1e-06
1.1e-06
1.1e-06
1.1e-06
1.1e-06
1.1e-06
1.1e-06
1.1e-06
1.1e-06
1.1e-06
1.1e-06
1.1e-06
1.1e-06
1.1e-06
1.1e-06
1.1e-06
1.1e-06
1.1e-06
1.1e-06
1.1e-06
1.1e-06
1.1e-06
1.1e-06
1.1e-06
1.1e-06
1.1e-06
1.1e-06
1.1e-06
1.1e-06
1.1e-06
1.1e-06
1.1e-06
1.1e-06
1.1e-06
1.1e-06
1.1e-06
1.1e-06
1.1e-06
0.843655
0.844034
0.844362
0.844636
0.844853
0.845009
0.845105
0.845138
0.845108
0.845016
0.844862
0.844648
0.844376
0.844048
0.843665
0.84323
0.842746
0.842216
0.841641
0.841023
0.840367
0.839672
0.838942
0.838178
0.837381
0.836553
0.835695
0.834808
0.833892
0.832947
0.831973
0.830969
0.829934
0.828865
0.82776
0.826613
0.825419
0.824168
0.82285
0.821448
0.819938
0.818286
0.816441
0.814323
0.811795
0.808607
0.804233
0.797359
0.783401
0.726805
0.188913
6.21919e-05
1.1e-06
1.1e-06
1.1e-06
1.1e-06
1.1e-06
1.1e-06
1.1e-06
1.1e-06
1.1e-06
1.1e-06
1.1e-06
1.1e-06
1.1e-06
1.1e-06
1.1e-06
1.1e-06
1.1e-06
1.1e-06
1.1e-06
1.1e-06
1.1e-06
1.1e-06
1.1e-06
1.1e-06
1.1e-06
1.1e-06
1.1e-06
1.1e-06
1.1e-06
1.1e-06
1.1e-06
1.1e-06
1.1e-06
1.1e-06
1.1e-06
1.1e-06
1.1e-06
1.1e-06
1.1e-06
1.1e-06
1.1e-06
1.1e-06
1.1e-06
1.1e-06
1.1e-06
1.1e-06
1.1e-06
1.1e-06
1.1e-06
1.1e-06
1.1e-06
1.1e-06
1.1e-06
1.1e-06
1.1e-06
1.1e-06
1.1e-06
1.1e-06
1.1e-06
1.1e-06
1.1e-06
1.1e-06
1.1e-06
1.1e-06
1.1e-06
1.1e-06
1.1e-06
1.1e-06
1.1e-06
1.1e-06
1.1e-06
1.1e-06
1.1e-06
1.1e-06
1.1e-06
1.1e-06
1.1e-06
1.1e-06
1.1e-06
1.1e-06
1.1e-06
1.1e-06
1.1e-06
1.1e-06
1.1e-06
1.1e-06
1.1e-06
1.1e-06
1.1e-06
1.1e-06
1.1e-06
1.1e-06
1.1e-06
1.1e-06
1.1e-06
1.1e-06
1.1e-06
1.1e-06
1.1e-06
1.1e-06
1.1e-06
1.1e-06
1.1e-06
1.1e-06
1.1e-06
1.1e-06
1.1e-06
1.1e-06
1.1e-06
1.1e-06
1.1e-06
1.1e-06
1.1e-06
1.1e-06
1.1e-06
1.1e-06
1.1e-06
1.1e-06
1.1e-06
1.1e-06
1.1e-06
1.1e-06
1.1e-06
1.1e-06
1.1e-06
1.1e-06
1.1e-06
1.1e-06
0.846094
0.846527
0.846903
0.847219
0.84747
0.847654
0.847769
0.847813
0.847786
0.84769
0.847524
0.847292
0.846995
0.846635
0.846217
0.845743
0.845216
0.844639
0.844016
0.84335
0.842643
0.841898
0.841118
0.840305
0.839461
0.838587
0.837686
0.836758
0.835804
0.834826
0.833822
0.832793
0.831738
0.830656
0.829544
0.828399
0.827217
0.825991
0.824713
0.823371
0.821949
0.820424
0.818761
0.816912
0.814796
0.812281
0.80912
0.804805
0.798064
0.784514
0.731052
0.195239
6.04078e-05
1.1e-06
1.1e-06
1.1e-06
1.1e-06
1.1e-06
1.1e-06
1.1e-06
1.1e-06
1.1e-06
1.1e-06
1.1e-06
1.1e-06
1.1e-06
1.1e-06
1.1e-06
1.1e-06
1.1e-06
1.1e-06
1.1e-06
1.1e-06
1.1e-06
1.1e-06
1.1e-06
1.1e-06
1.1e-06
1.1e-06
1.1e-06
1.1e-06
1.1e-06
1.1e-06
1.1e-06
1.1e-06
1.1e-06
1.1e-06
1.1e-06
1.1e-06
1.1e-06
1.1e-06
1.1e-06
1.1e-06
1.1e-06
1.1e-06
1.1e-06
1.1e-06
1.1e-06
1.1e-06
1.1e-06
1.1e-06
1.1e-06
1.1e-06
1.1e-06
1.1e-06
1.1e-06
1.1e-06
1.1e-06
1.1e-06
1.1e-06
1.1e-06
1.1e-06
1.1e-06
1.1e-06
1.1e-06
1.1e-06
1.1e-06
1.1e-06
1.1e-06
1.1e-06
1.1e-06
1.1e-06
1.1e-06
1.1e-06
1.1e-06
1.1e-06
1.1e-06
1.1e-06
1.1e-06
1.1e-06
1.1e-06
1.1e-06
1.1e-06
1.1e-06
1.1e-06
1.1e-06
1.1e-06
1.1e-06
1.1e-06
1.1e-06
1.1e-06
1.1e-06
1.1e-06
1.1e-06
1.1e-06
1.1e-06
1.1e-06
1.1e-06
1.1e-06
1.1e-06
1.1e-06
1.1e-06
1.1e-06
1.1e-06
1.1e-06
1.1e-06
1.1e-06
1.1e-06
1.1e-06
1.1e-06
1.1e-06
1.1e-06
1.1e-06
1.1e-06
1.1e-06
1.1e-06
1.1e-06
1.1e-06
1.1e-06
1.1e-06
1.1e-06
1.1e-06
1.1e-06
1.1e-06
1.1e-06
1.1e-06
1.1e-06
1.1e-06
1.1e-06
1.1e-06
0.848434
0.848925
0.849354
0.849715
0.850004
0.850218
0.850353
0.850409
0.850386
0.850284
0.850105
0.849852
0.849527
0.849135
0.848679
0.848163
0.847591
0.846967
0.846295
0.845578
0.84482
0.844025
0.843194
0.842332
0.841439
0.840519
0.839574
0.838604
0.837611
0.836596
0.83556
0.834502
0.833423
0.832321
0.831195
0.830044
0.828862
0.827647
0.826392
0.825087
0.823722
0.822279
0.820735
0.819057
0.817194
0.815064
0.812533
0.809351
0.804999
0.798168
0.784262
0.726397
0.164411
3.59966e-05
1.1e-06
1.1e-06
1.1e-06
1.1e-06
1.1e-06
1.1e-06
1.1e-06
1.1e-06
1.1e-06
1.1e-06
1.1e-06
1.1e-06
1.1e-06
1.1e-06
1.1e-06
1.1e-06
1.1e-06
1.1e-06
1.1e-06
1.1e-06
1.1e-06
1.1e-06
1.1e-06
1.1e-06
1.1e-06
1.1e-06
1.1e-06
1.1e-06
1.1e-06
1.1e-06
1.1e-06
1.1e-06
1.1e-06
1.1e-06
1.1e-06
1.1e-06
1.1e-06
1.1e-06
1.1e-06
1.1e-06
1.1e-06
1.1e-06
1.1e-06
1.1e-06
1.1e-06
1.1e-06
1.1e-06
1.1e-06
1.1e-06
1.1e-06
1.1e-06
1.1e-06
1.1e-06
1.1e-06
1.1e-06
1.1e-06
1.1e-06
1.1e-06
1.1e-06
1.1e-06
1.1e-06
1.1e-06
1.1e-06
1.1e-06
1.1e-06
1.1e-06
1.1e-06
1.1e-06
1.1e-06
1.1e-06
1.1e-06
1.1e-06
1.1e-06
1.1e-06
1.1e-06
1.1e-06
1.1e-06
1.1e-06
1.1e-06
1.1e-06
1.1e-06
1.1e-06
1.1e-06
1.1e-06
1.1e-06
1.1e-06
1.1e-06
1.1e-06
1.1e-06
1.1e-06
1.1e-06
1.1e-06
1.1e-06
1.1e-06
1.1e-06
1.1e-06
1.1e-06
1.1e-06
1.1e-06
1.1e-06
1.1e-06
1.1e-06
1.1e-06
1.1e-06
1.1e-06
1.1e-06
1.1e-06
1.1e-06
1.1e-06
1.1e-06
1.1e-06
1.1e-06
1.1e-06
1.1e-06
1.1e-06
1.1e-06
1.1e-06
1.1e-06
1.1e-06
1.1e-06
1.1e-06
1.1e-06
1.1e-06
1.1e-06
1.1e-06
1.1e-06
0.850682
0.851237
0.851723
0.852135
0.852466
0.852711
0.852869
0.852937
0.852916
0.852807
0.852613
0.852336
0.851982
0.851553
0.851056
0.850495
0.849875
0.849201
0.848477
0.847708
0.846898
0.84605
0.845168
0.844256
0.843315
0.842349
0.841358
0.840346
0.839313
0.838261
0.837191
0.836102
0.834995
0.833871
0.832727
0.831562
0.830374
0.82916
0.827915
0.826632
0.825302
0.823914
0.822451
0.820887
0.819188
0.817302
0.815143
0.81257
0.809319
0.804834
0.797682
0.782604
0.710114
0.105602
1.17589e-05
1.1e-06
1.1e-06
1.1e-06
1.1e-06
1.1e-06
1.1e-06
1.1e-06
1.1e-06
1.1e-06
1.1e-06
1.1e-06
1.1e-06
1.1e-06
1.1e-06
1.1e-06
1.1e-06
1.1e-06
1.1e-06
1.1e-06
1.1e-06
1.1e-06
1.1e-06
1.1e-06
1.1e-06
1.1e-06
1.1e-06
1.1e-06
1.1e-06
1.1e-06
1.1e-06
1.1e-06
1.1e-06
1.1e-06
1.1e-06
1.1e-06
1.1e-06
1.1e-06
1.1e-06
1.1e-06
1.1e-06
1.1e-06
1.1e-06
1.1e-06
1.1e-06
1.1e-06
1.1e-06
1.1e-06
1.1e-06
1.1e-06
1.1e-06
1.1e-06
1.1e-06
1.1e-06
1.1e-06
1.1e-06
1.1e-06
1.1e-06
1.1e-06
1.1e-06
1.1e-06
1.1e-06
1.1e-06
1.1e-06
1.1e-06
1.1e-06
1.1e-06
1.1e-06
1.1e-06
1.1e-06
1.1e-06
1.1e-06
1.1e-06
1.1e-06
1.1e-06
1.1e-06
1.1e-06
1.1e-06
1.1e-06
1.1e-06
1.1e-06
1.1e-06
1.1e-06
1.1e-06
1.1e-06
1.1e-06
1.1e-06
1.1e-06
1.1e-06
1.1e-06
1.1e-06
1.1e-06
1.1e-06
1.1e-06
1.1e-06
1.1e-06
1.1e-06
1.1e-06
1.1e-06
1.1e-06
1.1e-06
1.1e-06
1.1e-06
1.1e-06
1.1e-06
1.1e-06
1.1e-06
1.1e-06
1.1e-06
1.1e-06
1.1e-06
1.1e-06
1.1e-06
1.1e-06
1.1e-06
1.1e-06
1.1e-06
1.1e-06
1.1e-06
1.1e-06
1.1e-06
1.1e-06
1.1e-06
1.1e-06
1.1e-06
1.1e-06
0.852838
0.853464
0.854015
0.854483
0.85486
0.855141
0.855323
0.855403
0.855384
0.855266
0.855052
0.854748
0.854359
0.85389
0.853347
0.852737
0.852065
0.851338
0.85056
0.849737
0.848872
0.847972
0.847038
0.846076
0.845086
0.844073
0.843039
0.841984
0.840912
0.839823
0.838718
0.837598
0.836463
0.835314
0.834149
0.832968
0.831768
0.830549
0.829305
0.828033
0.826725
0.825372
0.823962
0.822477
0.820892
0.819168
0.817251
0.815048
0.812406
0.809035
0.804309
0.796562
0.779222
0.670252
0.0434963
2.15852e-06
1.1e-06
1.1e-06
1.1e-06
1.1e-06
1.1e-06
1.1e-06
1.1e-06
1.1e-06
1.1e-06
1.1e-06
1.1e-06
1.1e-06
1.1e-06
1.1e-06
1.1e-06
1.1e-06
1.1e-06
1.1e-06
1.1e-06
1.1e-06
1.1e-06
1.1e-06
1.1e-06
1.1e-06
1.1e-06
1.1e-06
1.1e-06
1.1e-06
1.1e-06
1.1e-06
1.1e-06
1.1e-06
1.1e-06
1.1e-06
1.1e-06
1.1e-06
1.1e-06
1.1e-06
1.1e-06
1.1e-06
1.1e-06
1.1e-06
1.1e-06
1.1e-06
1.1e-06
1.1e-06
1.1e-06
1.1e-06
1.1e-06
1.1e-06
1.1e-06
1.1e-06
1.1e-06
1.1e-06
1.1e-06
1.1e-06
1.1e-06
1.1e-06
1.1e-06
1.1e-06
1.1e-06
1.1e-06
1.1e-06
1.1e-06
1.1e-06
1.1e-06
1.1e-06
1.1e-06
1.1e-06
1.1e-06
1.1e-06
1.1e-06
1.1e-06
1.1e-06
1.1e-06
1.1e-06
1.1e-06
1.1e-06
1.1e-06
1.1e-06
1.1e-06
1.1e-06
1.1e-06
1.1e-06
1.1e-06
1.1e-06
1.1e-06
1.1e-06
1.1e-06
1.1e-06
1.1e-06
1.1e-06
1.1e-06
1.1e-06
1.1e-06
1.1e-06
1.1e-06
1.1e-06
1.1e-06
1.1e-06
1.1e-06
1.1e-06
1.1e-06
1.1e-06
1.1e-06
1.1e-06
1.1e-06
1.1e-06
1.1e-06
1.1e-06
1.1e-06
1.1e-06
1.1e-06
1.1e-06
1.1e-06
1.1e-06
1.1e-06
1.1e-06
1.1e-06
1.1e-06
1.1e-06
1.1e-06
1.1e-06
1.1e-06
0.854899
0.855606
0.856231
0.856762
0.857191
0.857511
0.857718
0.857812
0.857791
0.857661
0.857424
0.857088
0.856658
0.856143
0.85555
0.854886
0.854158
0.853374
0.852539
0.851659
0.85074
0.849785
0.8488
0.847787
0.84675
0.845691
0.844613
0.843518
0.842408
0.841283
0.840145
0.838994
0.837831
0.836657
0.83547
0.834271
0.833057
0.831828
0.830581
0.829311
0.828015
0.826684
0.82531
0.823878
0.822371
0.820761
0.819008
0.81705
0.814788
0.812047
0.808493
0.803386
0.794649
0.773159
0.574236
0.00840039
1.10081e-06
1.1e-06
1.1e-06
1.1e-06
1.1e-06
1.1e-06
1.1e-06
1.1e-06
1.1e-06
1.1e-06
1.1e-06
1.1e-06
1.1e-06
1.1e-06
1.1e-06
1.1e-06
1.1e-06
1.1e-06
1.1e-06
1.1e-06
1.1e-06
1.1e-06
1.1e-06
1.1e-06
1.1e-06
1.1e-06
1.1e-06
1.1e-06
1.1e-06
1.1e-06
1.1e-06
1.1e-06
1.1e-06
1.1e-06
1.1e-06
1.1e-06
1.1e-06
1.1e-06
1.1e-06
1.1e-06
1.1e-06
1.1e-06
1.1e-06
1.1e-06
1.1e-06
1.1e-06
1.1e-06
1.1e-06
1.1e-06
1.1e-06
1.1e-06
1.1e-06
1.1e-06
1.1e-06
1.1e-06
1.1e-06
1.1e-06
1.1e-06
1.1e-06
1.1e-06
1.1e-06
1.1e-06
1.1e-06
1.1e-06
1.1e-06
1.1e-06
1.1e-06
1.1e-06
1.1e-06
1.1e-06
1.1e-06
1.1e-06
1.1e-06
1.1e-06
1.1e-06
1.1e-06
1.1e-06
1.1e-06
1.1e-06
1.1e-06
1.1e-06
1.1e-06
1.1e-06
1.1e-06
1.1e-06
1.1e-06
1.1e-06
1.1e-06
1.1e-06
1.1e-06
1.1e-06
1.1e-06
1.1e-06
1.1e-06
1.1e-06
1.1e-06
1.1e-06
1.1e-06
1.1e-06
1.1e-06
1.1e-06
1.1e-06
1.1e-06
1.1e-06
1.1e-06
1.1e-06
1.1e-06
1.1e-06
1.1e-06
1.1e-06
1.1e-06
1.1e-06
1.1e-06
1.1e-06
1.1e-06
1.1e-06
1.1e-06
1.1e-06
1.1e-06
1.1e-06
1.1e-06
1.1e-06
1.1e-06
1.1e-06
0.856973
0.857778
0.858492
0.8591
0.859592
0.859959
0.860196
0.860302
0.860278
0.860129
0.859862
0.859483
0.859004
0.858433
0.857779
0.857053
0.856261
0.855413
0.854515
0.853574
0.852595
0.851583
0.850543
0.849479
0.848393
0.847288
0.846166
0.84503
0.843881
0.842721
0.841549
0.840368
0.839178
0.837978
0.836769
0.83555
0.83432
0.833079
0.831824
0.830552
0.82926
0.827942
0.826591
0.825198
0.823748
0.822222
0.820591
0.818813
0.816821
0.814506
0.811672
0.807935
0.802401
0.792355
0.763324
0.390766
0.000635168
1.1e-06
1.1e-06
1.1e-06
1.1e-06
1.1e-06
1.1e-06
1.1e-06
1.1e-06
1.1e-06
1.1e-06
1.1e-06
1.1e-06
1.1e-06
1.1e-06
1.1e-06
1.1e-06
1.1e-06
1.1e-06
1.1e-06
1.1e-06
1.1e-06
1.1e-06
1.1e-06
1.1e-06
1.1e-06
1.1e-06
1.1e-06