/*--------------------------------*- C++ -*----------------------------------*\
  =========                 |
  \\      /  F ield         | OpenFOAM: The Open Source CFD Toolbox
   \\    /   O peration     | Website:  https://openfoam.org
    \\  /    A nd           | Version:  10
     \\/     M anipulation  |
\*---------------------------------------------------------------------------*/
FoamFile
{
    format      ascii;
    class       volScalarField;
    location    "10700";
    object      p;
}
// * * * * * * * * * * * * * * * * * * * * * * * * * * * * * * * * * * * * * //

dimensions      [1 -1 -2 0 0 0 0];

internalField   nonuniform List<scalar> 
6400
(
111.371
111.384
111.409
111.446
111.497
111.561
111.638
111.73
111.836
111.958
112.096
112.251
112.425
112.62
112.836
113.077
113.346
113.646
113.984
114.365
114.801
115.306
115.904
116.611
121.247
466.911
816.968
1135.03
1461.05
1779.81
2087.67
2378.76
2583.5
2705.88
2822.43
2929.96
3024.55
3101.62
3156.4
3184.92
3184.92
3156.4
3101.62
3024.55
2929.96
2822.43
2705.88
2583.5
2378.76
2087.67
1779.81
1461.05
1135.03
816.968
466.911
121.247
116.611
115.904
115.306
114.801
114.365
113.984
113.646
113.346
113.077
112.836
112.62
112.425
112.251
112.096
111.958
111.836
111.73
111.638
111.561
111.497
111.446
111.409
111.384
111.371
111.077
111.089
111.114
111.152
111.203
111.266
111.344
111.435
111.542
111.663
111.801
111.956
112.13
112.325
112.541
112.782
113.051
113.351
113.688
114.069
114.504
115.008
115.605
116.336
117.638
172.152
524.211
840.541
1167.28
1486.23
1794.38
2085.08
2290.3
2413.2
2530.48
2638.9
2734.53
2812.69
2868.38
2897.41
2897.41
2868.38
2812.69
2734.53
2638.9
2530.48
2413.2
2290.3
2085.08
1794.38
1486.23
1167.28
840.541
524.211
172.152
117.638
116.336
115.605
115.008
114.504
114.069
113.688
113.351
113.051
112.782
112.541
112.325
112.13
111.956
111.801
111.663
111.542
111.435
111.344
111.266
111.203
111.152
111.114
111.089
111.077
110.753
110.765
110.79
110.828
110.879
110.943
111.02
111.111
111.218
111.339
111.477
111.632
111.806
112
112.216
112.457
112.725
113.025
113.361
113.741
114.175
114.676
115.27
116.005
117.145
118.075
207.007
516.705
845.33
1164.72
1473.58
1763.28
1969.62
2093.7
2212.69
2323.19
2421.29
2502.03
2559.88
2590.13
2590.13
2559.88
2502.03
2421.29
2323.19
2212.69
2093.7
1969.62
1763.28
1473.58
1164.72
845.33
516.705
207.007
118.075
117.145
116.005
115.27
114.676
114.175
113.741
113.361
113.025
112.725
112.457
112.216
112
111.806
111.632
111.477
111.339
111.218
111.111
111.02
110.943
110.879
110.828
110.79
110.765
110.753
110.397
110.41
110.435
110.472
110.523
110.587
110.664
110.755
110.861
110.983
111.12
111.275
111.449
111.642
111.858
112.098
112.366
112.665
113
113.378
113.809
114.307
114.894
115.617
116.622
117.463
117.92
159.633
492.572
812.621
1122.9
1410.53
1618.82
1744.96
1867
1981.12
2083.6
2169.04
2230.87
2263.34
2263.34
2230.87
2169.04
2083.6
1981.12
1867
1744.96
1618.82
1410.53
1122.9
812.621
492.572
159.633
117.92
117.463
116.622
115.617
114.894
114.307
113.809
113.378
113
112.665
112.366
112.098
111.858
111.642
111.449
111.275
111.12
110.983
110.861
110.755
110.664
110.587
110.523
110.472
110.435
110.41
110.397
110.006
110.018
110.043
110.081
110.131
110.195
110.272
110.363
110.469
110.59
110.728
110.882
111.055
111.249
111.464
111.703
111.97
112.267
112.6
112.976
113.403
113.895
114.471
115.171
116.061
116.831
117.335
118.001
121.727
427.095
739.988
1023.49
1234.86
1364.13
1491.09
1610.76
1720.27
1813.57
1882.11
1918.3
1918.3
1882.11
1813.57
1720.27
1610.76
1491.09
1364.13
1234.86
1023.49
739.988
427.095
121.727
118.001
117.335
116.831
116.061
115.171
114.471
113.895
113.403
112.976
112.6
112.267
111.97
111.703
111.464
111.249
111.055
110.882
110.728
110.59
110.469
110.363
110.272
110.195
110.131
110.081
110.043
110.018
110.006
109.576
109.588
109.613
109.651
109.701
109.764
109.841
109.932
110.038
110.159
110.296
110.45
110.622
110.815
111.029
111.267
111.532
111.828
112.159
112.53
112.952
113.435
113.997
114.663
115.456
116.162
116.679
117.233
117.435
117.666
324.16
597.991
814.085
947.642
1082.5
1209.76
1330.02
1436.15
1515.8
1557.98
1557.98
1515.8
1436.15
1330.02
1209.76
1082.5
947.642
814.085
597.991
324.16
117.666
117.435
117.233
116.679
116.162
115.456
114.663
113.997
113.435
112.952
112.53
112.159
111.828
111.532
111.267
111.029
110.815
110.622
110.45
110.296
110.159
110.038
109.932
109.841
109.764
109.701
109.651
109.613
109.588
109.576
109.102
109.115
109.14
109.177
109.227
109.291
109.367
109.458
109.563
109.684
109.82
109.973
110.145
110.336
110.549
110.786
111.049
111.342
111.669
112.036
112.451
112.922
113.465
114.093
114.803
115.448
115.956
116.43
116.64
116.606
116.454
127.888
352.529
490.671
639.631
774.854
911.11
1038.56
1136.92
1188.52
1188.52
1136.92
1038.56
911.11
774.854
639.631
490.671
352.529
127.888
116.454
116.606
116.64
116.43
115.956
115.448
114.803
114.093
113.465
112.922
112.451
112.036
111.669
111.342
111.049
110.786
110.549
110.336
110.145
109.973
109.82
109.684
109.563
109.458
109.367
109.291
109.227
109.177
109.14
109.115
109.102
108.582
108.594
108.619
108.656
108.706
108.769
108.846
108.936
109.04
109.16
109.296
109.448
109.619
109.809
110.02
110.255
110.515
110.805
111.127
111.488
111.893
112.351
112.87
113.457
114.094
114.683
115.168
115.584
115.799
115.831
115.813
116.25
116.028
116.323
185.529
304.105
463.136
625.953
756.729
822.251
822.251
756.729
625.953
463.136
304.105
185.529
116.323
116.028
116.25
115.813
115.831
115.799
115.584
115.168
114.683
114.094
113.457
112.87
112.351
111.893
111.488
111.127
110.805
110.515
110.255
110.02
109.809
109.619
109.448
109.296
109.16
109.04
108.936
108.846
108.769
108.706
108.656
108.619
108.594
108.582
108.009
108.021
108.046
108.083
108.132
108.195
108.271
108.361
108.465
108.584
108.718
108.87
109.039
109.227
109.436
109.668
109.925
110.21
110.527
110.88
111.273
111.714
112.206
112.751
113.325
113.861
114.314
114.687
114.906
114.987
115.039
115.286
115.189
115.14
114.987
114.958
124.737
232.279
405.957
485.851
485.851
405.957
232.279
124.737
114.958
114.987
115.14
115.189
115.286
115.039
114.987
114.906
114.687
114.314
113.861
113.325
112.751
112.206
111.714
111.273
110.88
110.527
110.21
109.925
109.668
109.436
109.227
109.039
108.87
108.718
108.584
108.465
108.361
108.271
108.195
108.132
108.083
108.046
108.021
108.009
107.378
107.39
107.414
107.451
107.501
107.563
107.638
107.727
107.83
107.948
108.082
108.232
108.399
108.585
108.792
109.02
109.273
109.552
109.862
110.204
110.584
111.005
111.469
111.971
112.489
112.975
113.393
113.732
113.953
114.068
114.153
114.301
114.258
114.218
114.154
114.118
114.098
115.757
186.663
242.577
242.577
186.663
115.757
114.098
114.118
114.154
114.218
114.258
114.301
114.153
114.068
113.953
113.732
113.393
112.975
112.489
111.971
111.469
111.005
110.584
110.204
109.862
109.552
109.273
109.02
108.792
108.585
108.399
108.232
108.082
107.948
107.83
107.727
107.638
107.563
107.501
107.451
107.414
107.39
107.378
106.683
106.695
106.719
106.756
106.805
106.866
106.941
107.029
107.131
107.248
107.38
107.528
107.693
107.876
108.079
108.303
108.551
108.824
109.124
109.455
109.82
110.219
110.652
111.112
111.578
112.018
112.401
112.713
112.931
113.067
113.167
113.267
113.254
113.234
113.206
113.187
113.182
113.36
127.039
147.607
147.607
127.039
113.36
113.182
113.187
113.206
113.234
113.254
113.267
113.167
113.067
112.931
112.713
112.401
112.018
111.578
111.112
110.652
110.219
109.82
109.455
109.124
108.824
108.551
108.303
108.079
107.876
107.693
107.528
107.38
107.248
107.131
107.029
106.941
106.866
106.805
106.756
106.719
106.695
106.683
105.918
105.93
105.954
105.99
106.038
106.099
106.173
106.26
106.361
106.475
106.605
106.751
106.913
107.093
107.292
107.511
107.752
108.017
108.307
108.625
108.971
109.346
109.748
110.167
110.588
110.984
111.333
111.62
111.833
111.98
112.085
112.165
112.171
112.166
112.155
112.147
112.144
112.166
116.424
125.16
125.16
116.424
112.166
112.144
112.147
112.155
112.166
112.171
112.165
112.085
111.98
111.833
111.62
111.333
110.984
110.588
110.167
109.748
109.346
108.971
108.625
108.307
108.017
107.752
107.511
107.292
107.093
106.913
106.751
106.605
106.475
106.361
106.26
106.173
106.099
106.038
105.99
105.954
105.93
105.918
105.074
105.086
105.11
105.145
105.193
105.253
105.326
105.411
105.51
105.623
105.751
105.894
106.052
106.228
106.422
106.635
106.868
107.124
107.402
107.704
108.031
108.381
108.751
109.131
109.509
109.865
110.182
110.446
110.651
110.8
110.908
110.981
110.998
111.001
111
110.997
110.993
110.988
112.058
116.935
116.935
112.058
110.988
110.993
110.997
111
111.001
110.998
110.981
110.908
110.8
110.651
110.446
110.182
109.865
109.509
109.131
108.751
108.381
108.031
107.704
107.402
107.124
106.868
106.635
106.422
106.228
106.052
105.894
105.751
105.623
105.51
105.411
105.326
105.253
105.193
105.145
105.11
105.086
105.074
104.145
104.156
104.18
104.214
104.261
104.32
104.391
104.475
104.572
104.683
104.807
104.947
105.101
105.272
105.46
105.666
105.89
106.135
106.399
106.685
106.99
107.314
107.652
107.996
108.335
108.654
108.94
109.182
109.376
109.523
109.63
109.701
109.725
109.733
109.737
109.737
109.734
109.728
109.723
113.032
113.032
109.723
109.728
109.734
109.737
109.737
109.733
109.725
109.701
109.63
109.523
109.376
109.182
108.94
108.654
108.335
107.996
107.652
107.314
106.99
106.685
106.399
106.135
105.89
105.666
105.46
105.272
105.101
104.947
104.807
104.683
104.572
104.475
104.391
104.32
104.261
104.214
104.18
104.156
104.145
103.119
103.131
103.153
103.188
103.233
103.291
103.361
103.442
103.537
103.645
103.766
103.901
104.051
104.216
104.396
104.594
104.808
105.04
105.29
105.557
105.84
106.138
106.445
106.754
107.056
107.341
107.598
107.819
108
108.141
108.245
108.316
108.343
108.354
108.361
108.363
108.361
108.355
108.343
110.962
110.962
108.343
108.355
108.361
108.363
108.361
108.354
108.343
108.316
108.245
108.141
108
107.819
107.598
107.341
107.056
106.754
106.445
106.138
105.84
105.557
105.29
105.04
104.808
104.594
104.396
104.216
104.051
103.901
103.766
103.645
103.537
103.442
103.361
103.291
103.233
103.188
103.153
103.131
103.119
101.988
101.999
102.021
102.055
102.099
102.155
102.223
102.302
102.394
102.498
102.615
102.745
102.889
103.047
103.22
103.408
103.611
103.829
104.063
104.311
104.571
104.842
105.118
105.395
105.664
105.917
106.147
106.347
106.514
106.646
106.746
106.815
106.844
106.856
106.864
106.867
106.865
106.86
106.848
109.328
109.328
106.848
106.86
106.865
106.867
106.864
106.856
106.844
106.815
106.746
106.646
106.514
106.347
106.147
105.917
105.664
105.395
105.118
104.842
104.571
104.311
104.063
103.829
103.611
103.408
103.22
103.047
102.889
102.745
102.615
102.498
102.394
102.302
102.223
102.155
102.099
102.055
102.021
101.999
101.988
100.661
100.672
100.693
100.725
100.768
100.822
100.887
100.963
101.051
101.151
101.263
101.387
101.524
101.674
101.837
102.013
102.203
102.406
102.621
102.847
103.083
103.326
103.572
103.816
104.052
104.274
104.477
104.655
104.805
104.927
105.021
105.086
105.115
105.127
105.135
105.138
105.137
105.132
105.12
107.605
107.605
105.12
105.132
105.137
105.138
105.135
105.127
105.115
105.086
105.021
104.927
104.805
104.655
104.477
104.274
104.052
103.816
103.572
103.326
103.083
102.847
102.621
102.406
102.203
102.013
101.837
101.674
101.524
101.387
101.263
101.151
101.051
100.963
100.887
100.822
100.768
100.725
100.693
100.672
100.661
99.1859
99.1961
99.2166
99.2473
99.2884
99.3399
99.402
99.4749
99.5586
99.6533
99.7593
99.8767
100.006
100.146
100.298
100.462
100.637
100.823
101.019
101.224
101.435
101.651
101.867
102.081
102.287
102.481
102.659
102.816
102.95
103.06
103.145
103.205
103.232
103.244
103.251
103.254
103.253
103.247
103.235
105.773
105.773
103.235
103.247
103.253
103.254
103.251
103.244
103.232
103.205
103.145
103.06
102.95
102.816
102.659
102.481
102.287
102.081
101.867
101.651
101.435
101.224
101.019
100.823
100.637
100.462
100.298
100.146
100.006
99.8767
99.7593
99.6533
99.5586
99.4749
99.402
99.3399
99.2884
99.2473
99.2166
99.1961
99.1859
97.7007
97.7104
97.7299
97.7592
97.7983
97.8474
97.9064
97.9755
98.0548
98.1443
98.2442
98.3545
98.4753
98.6064
98.7479
98.8993
99.0604
99.2304
99.4084
99.593
99.7824
99.9744
100.166
100.354
100.535
100.705
100.861
100.999
101.118
101.217
101.293
101.348
101.373
101.383
101.39
101.392
101.391
101.385
101.373
103.975
103.975
101.373
101.385
101.391
101.392
101.39
101.383
101.373
101.348
101.293
101.217
101.118
100.999
100.861
100.705
100.535
100.354
100.166
99.9744
99.7824
99.593
99.4084
99.2304
99.0604
98.8993
98.7479
98.6064
98.4753
98.3545
98.2442
98.1443
98.0548
97.9755
97.9064
97.8474
97.7983
97.7592
97.7299
97.7104
97.7007
96.2058
96.215
96.2335
96.2613
96.2984
96.3448
96.4007
96.4659
96.5407
96.6249
96.7187
96.8219
96.9346
97.0565
97.1874
97.327
97.4747
97.6298
97.7912
97.9576
98.1274
98.2984
98.4683
98.6343
98.7936
98.9431
99.0801
99.2023
99.3078
99.3951
99.4636
99.5128
99.5343
99.5437
99.5493
99.5511
99.5491
99.5434
99.5315
102.205
102.205
99.5315
99.5434
99.5491
99.5511
99.5493
99.5437
99.5343
99.5128
99.4636
99.3951
99.3078
99.2023
99.0801
98.9431
98.7936
98.6343
98.4683
98.2984
98.1274
97.9576
97.7912
97.6298
97.4747
97.327
97.1874
97.0565
96.9346
96.8219
96.7187
96.6249
96.5407
96.4659
96.4007
96.3448
96.2984
96.2613
96.2335
96.215
96.2058
94.7016
94.7104
94.7278
94.7541
94.7891
94.8329
94.8855
94.9469
95.0171
95.096
95.1836
95.2799
95.3846
95.4975
95.6183
95.7466
95.8817
96.0228
96.169
96.3189
96.4711
96.6236
96.7745
96.9213
97.0618
97.1936
97.3143
97.4221
97.5152
97.5925
97.6532
97.6965
97.7153
97.7233
97.7279
97.729
97.7267
97.7208
97.7089
100.461
100.461
97.7089
97.7208
97.7267
97.729
97.7279
97.7233
97.7153
97.6965
97.6532
97.5925
97.5152
97.4221
97.3143
97.1936
97.0618
96.9213
96.7745
96.6236
96.4711
96.3189
96.169
96.0228
95.8817
95.7466
95.6183
95.4975
95.3846
95.2799
95.1836
95.096
95.0171
94.9469
94.8855
94.8329
94.7891
94.7541
94.7278
94.7104
94.7016
93.1887
93.1969
93.2134
93.2381
93.271
93.3122
93.3615
93.4191
93.4847
93.5584
93.64
93.7294
93.8264
93.9306
94.0418
94.1593
94.2826
94.4108
94.543
94.678
94.8144
94.9505
95.0846
95.2147
95.3388
95.4551
95.5615
95.6565
95.7386
95.8067
95.8599
95.8978
95.9138
95.9205
95.9241
95.9245
95.9217
95.9158
95.904
98.7443
98.7443
95.904
95.9158
95.9217
95.9245
95.9241
95.9205
95.9138
95.8978
95.8599
95.8067
95.7386
95.6565
95.5615
95.4551
95.3388
95.2147
95.0846
94.9505
94.8144
94.678
94.543
94.4108
94.2826
94.1593
94.0418
93.9306
93.8264
93.7294
93.64
93.5584
93.4847
93.4191
93.3615
93.3122
93.271
93.2381
93.2134
93.1969
93.1887
91.6675
91.6753
91.6907
91.7139
91.7447
91.7833
91.8294
91.8831
91.9443
92.0128
92.0886
92.1714
92.2609
92.3568
92.4588
92.5662
92.6785
92.7948
92.9143
93.0357
93.1579
93.2794
93.3986
93.514
93.6238
93.7264
93.8202
93.9038
93.9759
94.0356
94.0821
94.1148
94.1282
94.1336
94.1362
94.1359
94.1328
94.1268
94.115
97.0527
97.0527
94.115
94.1268
94.1328
94.1359
94.1362
94.1336
94.1282
94.1148
94.0821
94.0356
93.9759
93.9038
93.8202
93.7264
93.6238
93.514
93.3986
93.2794
93.1579
93.0357
92.9143
92.7948
92.6785
92.5662
92.4588
92.3568
92.2609
92.1714
92.0886
92.0128
91.9443
91.8831
91.8294
91.7833
91.7447
91.7139
91.6907
91.6753
91.6675
90.1387
90.1459
90.1603
90.182
90.2108
90.2467
90.2897
90.3397
90.3965
90.4601
90.5302
90.6066
90.689
90.7771
90.8704
90.9684
91.0704
91.1758
91.2835
91.3927
91.5021
91.6105
91.7166
91.8189
91.916
92.0065
92.0891
92.1625
92.2257
92.2778
92.318
92.346
92.3569
92.3611
92.3628
92.3619
92.3583
92.3523
92.3405
95.3863
95.3863
92.3405
92.3523
92.3583
92.3619
92.3628
92.3611
92.3569
92.346
92.318
92.2778
92.2257
92.1625
92.0891
92.0065
91.916
91.8189
91.7166
91.6105
91.5021
91.3927
91.2835
91.1758
91.0704
90.9684
90.8704
90.7771
90.689
90.6066
90.5302
90.4601
90.3965
90.3397
90.2897
90.2467
90.2108
90.182
90.1603
90.1459
90.1387
88.6026
88.6093
88.6228
88.6429
88.6697
88.7031
88.7431
88.7894
88.842
88.9008
88.9654
89.0357
89.1114
89.1921
89.2773
89.3664
89.459
89.5543
89.6514
89.7494
89.8473
89.944
90.0383
90.1289
90.2148
90.2945
90.3671
90.4314
90.4865
90.5317
90.5663
90.5898
90.5985
90.6016
90.6024
90.6008
90.597
90.5908
90.579
93.7454
93.7454
90.579
90.5908
90.597
90.6008
90.6024
90.6016
90.5985
90.5898
90.5663
90.5317
90.4865
90.4314
90.3671
90.2945
90.2148
90.1289
90.0383
89.944
89.8473
89.7494
89.6514
89.5543
89.459
89.3664
89.2773
89.1921
89.1114
89.0357
88.9654
88.9008
88.842
88.7894
88.7431
88.7031
88.6697
88.6429
88.6228
88.6093
88.6026
87.0597
87.066
87.0785
87.0972
87.1221
87.153
87.19
87.2328
87.2814
87.3355
87.395
87.4596
87.5289
87.6025
87.6801
87.7611
87.845
87.931
88.0183
88.1062
88.1937
88.2799
88.3636
88.4439
88.5196
88.5898
88.6534
88.7095
88.7574
88.7963
88.8257
88.8451
88.8517
88.8538
88.8537
88.8516
88.8473
88.841
88.8293
92.1306
92.1306
88.8293
88.841
88.8473
88.8516
88.8537
88.8538
88.8517
88.8451
88.8257
88.7963
88.7574
88.7095
88.6534
88.5898
88.5196
88.4439
88.3636
88.2799
88.1937
88.1062
88.0183
87.931
87.845
87.7611
87.6801
87.6025
87.5289
87.4596
87.395
87.3355
87.2814
87.2328
87.19
87.153
87.1221
87.0972
87.0785
87.066
87.0597
85.5106
85.5164
85.528
85.5453
85.5683
85.5969
85.631
85.6705
85.7152
85.765
85.8196
85.8786
85.9419
86.0091
86.0796
86.153
86.2288
86.3062
86.3847
86.4634
86.5415
86.6181
86.6924
86.7633
86.83
86.8915
86.9471
86.9959
87.0372
87.0704
87.095
87.1107
87.1154
87.1164
87.1156
87.1129
87.1083
87.1018
87.0901
90.543
90.543
87.0901
87.1018
87.1083
87.1129
87.1156
87.1164
87.1154
87.1107
87.095
87.0704
87.0372
86.9959
86.9471
86.8915
86.83
86.7633
86.6924
86.6181
86.5415
86.4634
86.3847
86.3062
86.2288
86.153
86.0796
86.0091
85.9419
85.8786
85.8196
85.765
85.7152
85.6705
85.631
85.5969
85.5683
85.5453
85.528
85.5164
85.5106
83.9557
83.9611
83.9717
83.9877
84.0089
84.0353
84.0667
84.103
84.144
84.1896
84.2396
84.2935
84.3512
84.4122
84.4761
84.5425
84.6109
84.6805
84.7509
84.8212
84.8908
84.9588
85.0245
85.087
85.1456
85.1993
85.2476
85.2897
85.325
85.353
85.3733
85.3855
85.3884
85.3885
85.3869
85.3836
85.3787
85.3721
85.3604
88.9849
88.9849
85.3604
85.3721
85.3787
85.3836
85.3869
85.3885
85.3884
85.3855
85.3733
85.353
85.325
85.2897
85.2476
85.1993
85.1456
85.087
85.0245
84.9588
84.8908
84.8212
84.7509
84.6805
84.6109
84.5425
84.4761
84.4122
84.3512
84.2935
84.2396
84.1896
84.144
84.103
84.0667
84.0353
84.0089
83.9877
83.9717
83.9611
83.9557
82.3955
82.4004
82.4102
82.4249
82.4444
82.4686
82.4974
82.5307
82.5683
82.61
82.6555
82.7046
82.7571
82.8124
82.8702
82.9302
82.9916
83.0541
83.1171
83.1798
83.2416
83.3018
83.3598
83.4147
83.4659
83.5126
83.5543
83.5903
83.6202
83.6434
83.6597
83.6686
83.6698
83.669
83.6667
83.6629
83.6576
83.6508
83.6391
87.4591
87.4591
83.6391
83.6508
83.6576
83.6629
83.6667
83.669
83.6698
83.6686
83.6597
83.6434
83.6202
83.5903
83.5543
83.5126
83.4659
83.4147
83.3598
83.3018
83.2416
83.1798
83.1171
83.0541
82.9916
82.9302
82.8702
82.8124
82.7571
82.7046
82.6555
82.61
82.5683
82.5307
82.4974
82.4686
82.4444
82.4249
82.4102
82.4004
82.3955
80.8303
80.8348
80.8438
80.8573
80.8752
80.8974
80.9237
80.9542
80.9885
81.0264
81.0679
81.1125
81.16
81.2101
81.2623
81.3162
81.3714
81.4273
81.4835
81.5392
81.594
81.6472
81.6981
81.7461
81.7906
81.831
81.8667
81.8971
81.922
81.9408
81.9533
81.9592
81.9587
81.957
81.954
81.9497
81.944
81.937
81.9254
85.9703
85.9703
81.9254
81.937
81.944
81.9497
81.954
81.957
81.9587
81.9592
81.9533
81.9408
81.922
81.8971
81.8667
81.831
81.7906
81.7461
81.6981
81.6472
81.594
81.5392
81.4835
81.4273
81.3714
81.3162
81.2623
81.2101
81.16
81.1125
81.0679
81.0264
80.9885
80.9542
80.9237
80.8974
80.8752
80.8573
80.8438
80.8348
80.8303
79.2606
79.2647
79.273
79.2853
79.3017
79.3219
79.346
79.3737
79.4049
79.4395
79.4771
79.5175
79.5604
79.6056
79.6526
79.701
79.7504
79.8003
79.8502
79.8997
79.948
79.9948
80.0393
80.081
80.1194
80.154
80.1842
80.2096
80.2298
80.2445
80.2534
80.2564
80.2543
80.2518
80.2481
80.2432
80.2371
80.2299
80.2183
84.5246
84.5246
80.2183
80.2299
80.2371
80.2432
80.2481
80.2518
80.2543
80.2564
80.2534
80.2445
80.2298
80.2096
80.1842
80.154
80.1194
80.081
80.0393
79.9948
79.948
79.8997
79.8502
79.8003
79.7504
79.701
79.6526
79.6056
79.5604
79.5175
79.4771
79.4395
79.4049
79.3737
79.346
79.3219
79.3017
79.2853
79.273
79.2647
79.2606
77.6867
77.6905
77.6981
77.7093
77.7242
77.7427
77.7645
77.7898
77.8181
77.8494
77.8834
77.92
77.9587
77.9993
78.0414
78.0848
78.1288
78.1732
78.2175
78.2612
78.3037
78.3445
78.3833
78.4193
78.4522
78.4814
78.5066
78.5272
78.5431
78.5539
78.5595
78.5597
78.5559
78.5526
78.5481
78.5427
78.5362
78.5287
78.517
83.1305
83.1305
78.517
78.5287
78.5362
78.5427
78.5481
78.5526
78.5559
78.5597
78.5595
78.5539
78.5431
78.5272
78.5066
78.4814
78.4522
78.4193
78.3833
78.3445
78.3037
78.2612
78.2175
78.1732
78.1288
78.0848
78.0414
77.9993
77.9587
77.92
77.8834
77.8494
77.8181
77.7898
77.7645
77.7427
77.7242
77.7093
77.6981
77.6905
77.6867
76.1091
76.1126
76.1194
76.1297
76.1432
76.1599
76.1798
76.2027
76.2283
76.2566
76.2873
76.3202
76.355
76.3914
76.4291
76.4678
76.507
76.5463
76.5854
76.6238
76.661
76.6965
76.7299
76.7607
76.7885
76.8129
76.8334
76.8497
76.8615
76.8687
76.8709
76.8683
76.8629
76.8587
76.8535
76.8474
76.8404
76.8325
76.8207
81.8024
81.8024
76.8207
76.8325
76.8404
76.8474
76.8535
76.8587
76.8629
76.8683
76.8709
76.8687
76.8615
76.8497
76.8334
76.8129
76.7885
76.7607
76.7299
76.6965
76.661
76.6238
76.5854
76.5463
76.507
76.4678
76.4291
76.3914
76.355
76.3202
76.2873
76.2566
76.2283
76.2027
76.1798
76.1599
76.1432
76.1297
76.1194
76.1126
76.1091
74.5281
74.5312
74.5374
74.5467
74.559
74.5741
74.5921
74.6127
74.6359
74.6614
74.689
74.7186
74.7497
74.7823
74.8159
74.8503
74.885
74.9197
74.9541
74.9876
75.0199
75.0506
75.0791
75.1052
75.1283
75.1482
75.1644
75.1766
75.1846
75.1882
75.1873
75.1819
75.1747
75.1695
75.1635
75.1566
75.149
75.1406
75.1288
80.5608
80.5608
75.1288
75.1406
75.149
75.1566
75.1635
75.1695
75.1747
75.1819
75.1873
75.1882
75.1846
75.1766
75.1644
75.1482
75.1283
75.1052
75.0791
75.0506
75.0199
74.9876
74.9541
74.9197
74.885
74.8503
74.8159
74.7823
74.7497
74.7186
74.689
74.6614
74.6359
74.6127
74.5921
74.5741
74.559
74.5467
74.5374
74.5312
74.5281
72.9439
72.9467
72.9523
72.9607
72.9718
72.9855
73.0017
73.0203
73.0412
73.0641
73.0888
73.1153
73.1431
73.1721
73.2019
73.2324
73.263
73.2935
73.3235
73.3526
73.3805
73.4067
73.4309
73.4526
73.4715
73.4872
73.4994
73.5078
73.5121
73.5123
73.5082
73.4998
73.4908
73.4845
73.4775
73.4698
73.4614
73.4524
73.4405
79.4374
79.4374
73.4405
73.4524
73.4614
73.4698
73.4775
73.4845
73.4908
73.4998
73.5082
73.5123
73.5121
73.5078
73.4994
73.4872
73.4715
73.4526
73.4309
73.4067
73.3805
73.3526
73.3235
73.2935
73.263
73.2324
73.2019
73.1721
73.1431
73.1153
73.0888
73.0641
73.0412
73.0203
73.0017
72.9855
72.9718
72.9607
72.9523
72.9467
72.9439
71.3569
71.3595
71.3645
71.3721
71.3821
71.3944
71.409
71.4257
71.4443
71.4648
71.487
71.5105
71.5353
71.561
71.5874
71.6142
71.6411
71.6677
71.6938
71.7189
71.7427
71.7649
71.785
71.8028
71.8178
71.8296
71.8381
71.8429
71.8438
71.8406
71.8333
71.8218
71.8107
71.8032
71.795
71.7862
71.7769
71.767
71.755
78.4859
78.4859
71.755
71.767
71.7769
71.7862
71.795
71.8032
71.8107
71.8218
71.8333
71.8406
71.8438
71.8429
71.8381
71.8296
71.8178
71.8028
71.785
71.7649
71.7427
71.7189
71.6938
71.6677
71.6411
71.6142
71.5874
71.561
71.5353
71.5105
71.487
71.4648
71.4443
71.4257
71.409
71.3944
71.3821
71.3721
71.3645
71.3595
71.3569
69.7674
69.7697
69.7742
69.781
69.79
69.801
69.8141
69.829
69.8457
69.864
69.8837
69.9046
69.9266
69.9493
69.9725
69.996
70.0195
70.0426
70.065
70.0865
70.1067
70.1251
70.1416
70.1557
70.1671
70.1755
70.1806
70.182
70.1796
70.1731
70.1625
70.1477
70.1342
70.1252
70.1156
70.1054
70.0948
70.0838
70.0714
77.8
77.8
70.0714
70.0838
70.0948
70.1054
70.1156
70.1252
70.1342
70.1477
70.1625
70.1731
70.1796
70.182
70.1806
70.1755
70.1671
70.1557
70.1416
70.1251
70.1067
70.0865
70.065
70.0426
70.0195
69.996
69.9725
69.9493
69.9266
69.9046
69.8837
69.864
69.8457
69.829
69.8141
69.801
69.79
69.781
69.7742
69.7697
69.7674
68.1755
68.1776
68.1817
68.1877
68.1958
68.2056
68.2173
68.2306
68.2455
68.2617
68.2792
68.2977
68.317
68.337
68.3574
68.3778
68.3982
68.4181
68.4373
68.4554
68.4722
68.4874
68.5005
68.5114
68.5195
68.5248
68.5267
68.525
68.5195
68.5098
68.4958
68.4775
68.4612
68.4505
68.439
68.427
68.4146
68.4019
68.389
77.548
77.548
68.389
68.4019
68.4146
68.427
68.439
68.4505
68.4612
68.4775
68.4958
68.5098
68.5195
68.525
68.5267
68.5248
68.5195
68.5114
68.5005
68.4874
68.4722
68.4554
68.4373
68.4181
68.3982
68.3778
68.3574
68.337
68.317
68.2977
68.2792
68.2617
68.2455
68.2306
68.2173
68.2056
68.1958
68.1877
68.1817
68.1776
68.1755
66.5817
66.5835
66.5871
66.5926
66.5997
66.6085
66.6188
66.6307
66.6438
66.6582
66.6736
66.6899
66.7069
66.7244
66.7421
66.7598
66.7773
66.7943
66.8105
66.8257
66.8395
66.8516
66.8618
66.8697
66.8749
66.8773
66.8763
66.8718
66.8634
66.8508
66.8336
66.8115
66.792
66.7791
66.7653
66.7508
66.7357
66.7203
66.7063
77.9513
77.9513
66.7063
66.7203
66.7357
66.7508
66.7653
66.7791
66.792
66.8115
66.8336
66.8508
66.8634
66.8718
66.8763
66.8773
66.8749
66.8697
66.8618
66.8516
66.8395
66.8257
66.8105
66.7943
66.7773
66.7598
66.7421
66.7244
66.7069
66.6899
66.6736
66.6582
66.6438
66.6307
66.6188
66.6085
66.5997
66.5926
66.5871
66.5835
66.5817
64.986
64.9876
64.9908
64.9956
65.002
65.0098
65.0189
65.0294
65.041
65.0537
65.0672
65.0815
65.0963
65.1115
65.1268
65.142
65.1569
65.1713
65.1848
65.1973
65.2084
65.2178
65.2253
65.2306
65.2332
65.233
65.2296
65.2226
65.2116
65.1963
65.1761
65.1505
65.1276
65.1122
65.0954
65.0773
65.058
65.0379
65.0211
78.0308
78.0308
65.0211
65.0379
65.058
65.0773
65.0954
65.1122
65.1276
65.1505
65.1761
65.1963
65.2116
65.2226
65.2296
65.233
65.2332
65.2306
65.2253
65.2178
65.2084
65.1973
65.1848
65.1713
65.1569
65.142
65.1268
65.1115
65.0963
65.0815
65.0672
65.0537
65.041
65.0294
65.0189
65.0098
65.002
64.9956
64.9908
64.9876
64.986
63.3886
63.3901
63.3929
63.3972
63.4028
63.4097
63.4177
63.4269
63.4371
63.4482
63.4601
63.4725
63.4853
63.4984
63.5115
63.5245
63.5371
63.5491
63.5602
63.5703
63.579
63.586
63.5911
63.594
63.5944
63.592
63.5864
63.5773
63.5642
63.5467
63.5241
63.4956
63.4698
63.4521
63.4324
63.4101
63.3843
63.3533
63.322
64.4404
64.4404
63.322
63.3533
63.3843
63.4101
63.4324
63.4521
63.4698
63.4956
63.5241
63.5467
63.5642
63.5773
63.5864
63.592
63.5944
63.594
63.5911
63.586
63.579
63.5703
63.5602
63.5491
63.5371
63.5245
63.5115
63.4984
63.4853
63.4725
63.4601
63.4482
63.4371
63.4269
63.4177
63.4097
63.4028
63.3972
63.3929
63.3901
63.3886
61.7901
61.7914
61.7939
61.7976
61.8025
61.8086
61.8157
61.8237
61.8326
61.8423
61.8525
61.8633
61.8743
61.8855
61.8967
61.9076
61.9182
61.928
61.937
61.9449
61.9514
61.9563
61.9594
61.9603
61.9587
61.9544
61.9471
61.9362
61.9215
61.9024
61.8782
61.8481
61.8211
61.8029
61.7828
61.7607
61.7366
61.7107
61.6836
62.4875
62.4875
61.6836
61.7107
61.7366
61.7607
61.7828
61.8029
61.8211
61.8481
61.8782
61.9024
61.9215
61.9362
61.9471
61.9544
61.9587
61.9603
61.9594
61.9563
61.9514
61.9449
61.937
61.928
61.9182
61.9076
61.8967
61.8855
61.8743
61.8633
61.8525
61.8423
61.8326
61.8237
61.8157
61.8086
61.8025
61.7976
61.7939
61.7914
61.7901
60.1903
60.1914
60.1936
60.1969
60.2012
60.2065
60.2126
60.2196
60.2274
60.2357
60.2446
60.2538
60.2632
60.2727
60.2821
60.2912
60.2998
60.3078
60.3149
60.3208
60.3255
60.3285
60.3298
60.3289
60.3257
60.3199
60.3111
60.299
60.2832
60.2632
60.2383
60.2078
60.181
60.1629
60.1432
60.1216
60.0979
60.0719
60.0425
60.3323
60.3323
60.0425
60.0719
60.0979
60.1216
60.1432
60.1629
60.181
60.2078
60.2383
60.2632
60.2832
60.299
60.3111
60.3199
60.3257
60.3289
60.3298
60.3285
60.3255
60.3208
60.3149
60.3078
60.2998
60.2912
60.2821
60.2727
60.2632
60.2538
60.2446
60.2357
60.2274
60.2196
60.2126
60.2065
60.2012
60.1969
60.1936
60.1914
60.1903
58.5894
58.5903
58.5923
58.5951
58.5988
58.6034
58.6088
58.6148
58.6215
58.6286
58.6362
58.6441
58.652
58.66
58.6678
58.6752
58.6822
58.6885
58.6938
58.6981
58.7011
58.7025
58.7022
58.7
58.6954
58.6884
58.6785
58.6656
58.6491
58.6288
58.604
58.5743
58.5486
58.5315
58.513
58.493
58.4714
58.4479
58.4219
58.4176
58.4176
58.4219
58.4479
58.4714
58.493
58.513
58.5315
58.5486
58.5743
58.604
58.6288
58.6491
58.6656
58.6785
58.6884
58.6954
58.7
58.7022
58.7025
58.7011
58.6981
58.6938
58.6885
58.6822
58.6752
58.6678
58.66
58.652
58.6441
58.6362
58.6286
58.6215
58.6148
58.6088
58.6034
58.5988
58.5951
58.5923
58.5903
58.5894
56.9875
56.9883
56.99
56.9924
56.9957
56.9996
57.0042
57.0094
57.0151
57.0212
57.0276
57.0342
57.0408
57.0474
57.0538
57.0598
57.0653
57.07
57.0739
57.0767
57.0782
57.0783
57.0767
57.0732
57.0676
57.0596
57.0491
57.0356
57.019
56.9988
56.9748
56.9465
56.9227
56.907
56.8904
56.8728
56.8542
56.8347
56.8142
56.8108
56.8108
56.8142
56.8347
56.8542
56.8728
56.8904
56.907
56.9227
56.9465
56.9748
56.9988
57.019
57.0356
57.0491
57.0596
57.0676
57.0732
57.0767
57.0783
57.0782
57.0767
57.0739
57.07
57.0653
57.0598
57.0538
57.0474
57.0408
57.0342
57.0276
57.0212
57.0151
57.0094
57.0042
56.9996
56.9957
56.9924
56.99
56.9883
56.9875
55.3847
55.3855
55.3869
55.389
55.3918
55.3951
55.3991
55.4035
55.4083
55.4134
55.4188
55.4243
55.4297
55.4351
55.4402
55.4449
55.449
55.4525
55.455
55.4565
55.4568
55.4557
55.4531
55.4486
55.4421
55.4335
55.4225
55.4088
55.3923
55.3727
55.3498
55.3234
55.3017
55.2876
55.2729
55.2575
55.2416
55.2253
55.2083
55.2051
55.2051
55.2083
55.2253
55.2416
55.2575
55.2729
55.2876
55.3017
55.3234
55.3498
55.3727
55.3923
55.4088
55.4225
55.4335
55.4421
55.4486
55.4531
55.4557
55.4568
55.4565
55.455
55.4525
55.449
55.4449
55.4402
55.4351
55.4297
55.4243
55.4188
55.4134
55.4083
55.4035
55.3991
55.3951
55.3918
55.389
55.3869
55.3855
55.3847
53.7813
53.7819
53.7831
53.7849
53.7873
53.7901
53.7934
53.7971
53.8012
53.8054
53.8099
53.8143
53.8188
53.823
53.827
53.8305
53.8335
53.8358
53.8372
53.8376
53.8368
53.8348
53.8312
53.826
53.8189
53.8098
53.7985
53.7849
53.7687
53.7499
53.7283
53.7039
53.6842
53.6716
53.6586
53.6451
53.6313
53.6172
53.6028
53.5998
53.5998
53.6028
53.6172