/*--------------------------------*- C++ -*----------------------------------*\
  =========                 |
  \\      /  F ield         | OpenFOAM: The Open Source CFD Toolbox
   \\    /   O peration     | Website:  https://openfoam.org
    \\  /    A nd           | Version:  10
     \\/     M anipulation  |
\*---------------------------------------------------------------------------*/
FoamFile
{
    format      ascii;
    class       volVectorField;
    location    "10700";
    object      Ub;
}
// * * * * * * * * * * * * * * * * * * * * * * * * * * * * * * * * * * * * * //

dimensions      [0 1 -1 0 0 0 0];

internalField   nonuniform List<vector> 
6400
(
(-4.47415e-21 -9.87899e-16 0)
(-1.34477e-20 -9.87899e-16 0)
(-2.24978e-20 -9.87899e-16 0)
(-3.16772e-20 -9.87899e-16 0)
(-4.10422e-20 -9.87899e-16 0)
(-5.06536e-20 -9.87899e-16 0)
(-6.05785e-20 -9.87899e-16 0)
(-7.08929e-20 -9.87899e-16 0)
(-8.16841e-20 -9.87899e-16 0)
(-9.30543e-20 -9.87899e-16 0)
(-1.05126e-19 -9.87899e-16 0)
(-1.18047e-19 -9.87899e-16 0)
(-1.32002e-19 -9.87898e-16 0)
(-1.47225e-19 -9.87898e-16 0)
(-1.64017e-19 -9.87898e-16 0)
(-1.82779e-19 -9.87898e-16 0)
(-2.04061e-19 -9.87898e-16 0)
(-2.28638e-19 -9.87897e-16 0)
(-2.57655e-19 -9.87897e-16 0)
(-2.9288e-19 -9.87896e-16 0)
(-3.37183e-19 -9.87895e-16 0)
(-3.95162e-19 -9.87893e-16 0)
(-5.56546e-19 -9.87892e-16 0)
(-1.13033e-07 -1.16086e-15 0)
(-9.32676e-05 -3.29068e-05 0)
(-0.000193934 4.12845e-07 0)
(-0.000194927 -1.74067e-06 0)
(-0.000192236 5.75288e-07 0)
(-0.000195075 -3.80534e-07 0)
(-0.00019144 -6.34107e-07 0)
(-0.000184332 -1.02573e-06 0)
(-0.000177821 -4.74167e-07 0)
(-0.00017352 -1.1521e-06 0)
(-0.000167205 -1.8736e-06 0)
(-0.000157035 -2.90821e-06 0)
(-0.000141816 -4.17752e-06 0)
(-0.000120561 -5.66414e-06 0)
(-9.26689e-05 -7.20952e-06 0)
(-5.85708e-05 -8.50008e-06 0)
(-2.0055e-05 -9.2284e-06 0)
(2.0055e-05 -9.2284e-06 0)
(5.85708e-05 -8.50008e-06 0)
(9.26689e-05 -7.20952e-06 0)
(0.000120561 -5.66414e-06 0)
(0.000141816 -4.17752e-06 0)
(0.000157035 -2.90821e-06 0)
(0.000167205 -1.8736e-06 0)
(0.00017352 -1.1521e-06 0)
(0.000177821 -4.74167e-07 0)
(0.000184332 -1.02573e-06 0)
(0.00019144 -6.34107e-07 0)
(0.000195075 -3.80534e-07 0)
(0.000192236 5.75288e-07 0)
(0.000194927 -1.74067e-06 0)
(0.000193934 4.12845e-07 0)
(9.32676e-05 -3.29068e-05 0)
(1.13033e-07 -1.16086e-15 0)
(5.56546e-19 -9.87892e-16 0)
(3.95162e-19 -9.87893e-16 0)
(3.37183e-19 -9.87895e-16 0)
(2.9288e-19 -9.87896e-16 0)
(2.57655e-19 -9.87897e-16 0)
(2.28638e-19 -9.87897e-16 0)
(2.04061e-19 -9.87898e-16 0)
(1.82779e-19 -9.87898e-16 0)
(1.64017e-19 -9.87898e-16 0)
(1.47225e-19 -9.87898e-16 0)
(1.32002e-19 -9.87898e-16 0)
(1.18047e-19 -9.87899e-16 0)
(1.05126e-19 -9.87899e-16 0)
(9.30543e-20 -9.87899e-16 0)
(8.16841e-20 -9.87899e-16 0)
(7.08929e-20 -9.87899e-16 0)
(6.05785e-20 -9.87899e-16 0)
(5.06536e-20 -9.87899e-16 0)
(4.10422e-20 -9.87899e-16 0)
(3.16772e-20 -9.87899e-16 0)
(2.24978e-20 -9.87899e-16 0)
(1.34477e-20 -9.87899e-16 0)
(4.47415e-21 -9.87899e-16 0)
(-4.47304e-21 -9.87896e-16 0)
(-1.34444e-20 -9.87896e-16 0)
(-2.24921e-20 -9.87896e-16 0)
(-3.16691e-20 -9.87896e-16 0)
(-4.10314e-20 -9.87896e-16 0)
(-5.06398e-20 -9.87895e-16 0)
(-6.05615e-20 -9.87895e-16 0)
(-7.08721e-20 -9.87895e-16 0)
(-8.16588e-20 -9.87895e-16 0)
(-9.30237e-20 -9.87895e-16 0)
(-1.05089e-19 -9.87895e-16 0)
(-1.18002e-19 -9.87894e-16 0)
(-1.31947e-19 -9.87894e-16 0)
(-1.47156e-19 -9.87894e-16 0)
(-1.63931e-19 -9.87893e-16 0)
(-1.8267e-19 -9.87892e-16 0)
(-2.03918e-19 -9.87891e-16 0)
(-2.28445e-19 -9.8789e-16 0)
(-2.57385e-19 -9.87889e-16 0)
(-2.92486e-19 -9.87886e-16 0)
(-3.3659e-19 -9.87883e-16 0)
(-3.94531e-19 -9.87878e-16 0)
(-4.75976e-19 -9.87872e-16 0)
(-9.86065e-17 -9.87918e-16 0)
(-5.92084e-06 -1.03451e-13 0)
(-9.98746e-05 9.70963e-07 0)
(-0.000182952 -4.65418e-06 0)
(-0.000183183 2.34649e-06 0)
(-0.000187536 -9.05884e-07 0)
(-0.000184522 -1.71936e-06 0)
(-0.000177882 -3.01618e-06 0)
(-0.000171968 -1.24742e-06 0)
(-0.000168407 -3.33886e-06 0)
(-0.000162652 -5.55594e-06 0)
(-0.000153111 -8.75249e-06 0)
(-0.000138613 -1.26521e-05 0)
(-0.000118169 -1.72482e-05 0)
(-9.10685e-05 -2.20573e-05 0)
(-5.76647e-05 -2.60829e-05 0)
(-1.97618e-05 -2.83528e-05 0)
(1.97618e-05 -2.83528e-05 0)
(5.76647e-05 -2.60829e-05 0)
(9.10685e-05 -2.20573e-05 0)
(0.000118169 -1.72482e-05 0)
(0.000138613 -1.26521e-05 0)
(0.000153111 -8.75249e-06 0)
(0.000162652 -5.55594e-06 0)
(0.000168407 -3.33886e-06 0)
(0.000171968 -1.24742e-06 0)
(0.000177882 -3.01618e-06 0)
(0.000184522 -1.71936e-06 0)
(0.000187536 -9.05884e-07 0)
(0.000183183 2.34649e-06 0)
(0.000182952 -4.65418e-06 0)
(9.98746e-05 9.70963e-07 0)
(5.92084e-06 -1.03451e-13 0)
(9.86065e-17 -9.87918e-16 0)
(4.75976e-19 -9.87872e-16 0)
(3.94531e-19 -9.87878e-16 0)
(3.3659e-19 -9.87883e-16 0)
(2.92486e-19 -9.87886e-16 0)
(2.57385e-19 -9.87889e-16 0)
(2.28445e-19 -9.8789e-16 0)
(2.03918e-19 -9.87891e-16 0)
(1.8267e-19 -9.87892e-16 0)
(1.63931e-19 -9.87893e-16 0)
(1.47156e-19 -9.87894e-16 0)
(1.31947e-19 -9.87894e-16 0)
(1.18002e-19 -9.87894e-16 0)
(1.05089e-19 -9.87895e-16 0)
(9.30237e-20 -9.87895e-16 0)
(8.16588e-20 -9.87895e-16 0)
(7.08721e-20 -9.87895e-16 0)
(6.05615e-20 -9.87895e-16 0)
(5.06398e-20 -9.87895e-16 0)
(4.10314e-20 -9.87896e-16 0)
(3.16691e-20 -9.87896e-16 0)
(2.24921e-20 -9.87896e-16 0)
(1.34444e-20 -9.87896e-16 0)
(4.47304e-21 -9.87896e-16 0)
(-4.47052e-21 -9.87894e-16 0)
(-1.34368e-20 -9.87894e-16 0)
(-2.24792e-20 -9.87894e-16 0)
(-3.16506e-20 -9.87893e-16 0)
(-4.10069e-20 -9.87893e-16 0)
(-5.06086e-20 -9.87893e-16 0)
(-6.05227e-20 -9.87893e-16 0)
(-7.08246e-20 -9.87893e-16 0)
(-8.16011e-20 -9.87892e-16 0)
(-9.29539e-20 -9.87892e-16 0)
(-1.05004e-19 -9.87892e-16 0)
(-1.17899e-19 -9.87891e-16 0)
(-1.31821e-19 -9.87891e-16 0)
(-1.47e-19 -9.8789e-16 0)
(-1.63735e-19 -9.87889e-16 0)
(-1.82419e-19 -9.87888e-16 0)
(-2.0359e-19 -9.87886e-16 0)
(-2.28004e-19 -9.87884e-16 0)
(-2.56769e-19 -9.87881e-16 0)
(-2.91585e-19 -9.87877e-16 0)
(-3.35219e-19 -9.87871e-16 0)
(-3.92615e-19 -9.87862e-16 0)
(-4.76347e-19 -9.87849e-16 0)
(-6.7206e-19 -9.87838e-16 0)
(-2.75099e-15 -9.87401e-16 0)
(-1.22974e-05 -3.39634e-12 0)
(-9.40073e-05 -3.10782e-06 0)
(-0.000172866 5.15064e-06 0)
(-0.000181742 -1.5274e-06 0)
(-0.000179418 -2.83291e-06 0)
(-0.000172982 -5.30747e-06 0)
(-0.000167713 -1.84088e-06 0)
(-0.000165428 -5.43857e-06 0)
(-0.000160539 -9.24508e-06 0)
(-0.000151849 -1.48324e-05 0)
(-0.000138203 -2.15458e-05 0)
(-0.000118582 -2.95917e-05 0)
(-9.19423e-05 -3.81484e-05 0)
(-5.84599e-05 -4.53508e-05 0)
(-2.00717e-05 -4.93986e-05 0)
(2.00717e-05 -4.93986e-05 0)
(5.84599e-05 -4.53508e-05 0)
(9.19423e-05 -3.81484e-05 0)
(0.000118582 -2.95917e-05 0)
(0.000138203 -2.15458e-05 0)
(0.000151849 -1.48324e-05 0)
(0.000160539 -9.24508e-06 0)
(0.000165428 -5.43857e-06 0)
(0.000167713 -1.84088e-06 0)
(0.000172982 -5.30747e-06 0)
(0.000179418 -2.83291e-06 0)
(0.000181742 -1.5274e-06 0)
(0.000172866 5.15064e-06 0)
(9.40073e-05 -3.10782e-06 0)
(1.22974e-05 -3.39634e-12 0)
(2.75099e-15 -9.87401e-16 0)
(6.7206e-19 -9.87838e-16 0)
(4.76347e-19 -9.87849e-16 0)
(3.92615e-19 -9.87862e-16 0)
(3.35219e-19 -9.87871e-16 0)
(2.91585e-19 -9.87877e-16 0)
(2.56769e-19 -9.87881e-16 0)
(2.28004e-19 -9.87884e-16 0)
(2.0359e-19 -9.87886e-16 0)
(1.82419e-19 -9.87888e-16 0)
(1.63735e-19 -9.87889e-16 0)
(1.47e-19 -9.8789e-16 0)
(1.31821e-19 -9.87891e-16 0)
(1.17899e-19 -9.87891e-16 0)
(1.05004e-19 -9.87892e-16 0)
(9.29539e-20 -9.87892e-16 0)
(8.16011e-20 -9.87892e-16 0)
(7.08246e-20 -9.87893e-16 0)
(6.05227e-20 -9.87893e-16 0)
(5.06086e-20 -9.87893e-16 0)
(4.10069e-20 -9.87893e-16 0)
(3.16506e-20 -9.87893e-16 0)
(2.24792e-20 -9.87894e-16 0)
(1.34368e-20 -9.87894e-16 0)
(4.47052e-21 -9.87894e-16 0)
(-4.46618e-21 -9.87891e-16 0)
(-1.34236e-20 -9.87891e-16 0)
(-2.2457e-20 -9.87891e-16 0)
(-3.16187e-20 -9.87891e-16 0)
(-4.09646e-20 -9.87891e-16 0)
(-5.05548e-20 -9.87891e-16 0)
(-6.04559e-20 -9.8789e-16 0)
(-7.07428e-20 -9.8789e-16 0)
(-8.15018e-20 -9.8789e-16 0)
(-9.28336e-20 -9.87889e-16 0)
(-1.04858e-19 -9.87888e-16 0)
(-1.17722e-19 -9.87888e-16 0)
(-1.31604e-19 -9.87887e-16 0)
(-1.46731e-19 -9.87886e-16 0)
(-1.63398e-19 -9.87884e-16 0)
(-1.81988e-19 -9.87883e-16 0)
(-2.03028e-19 -9.8788e-16 0)
(-2.27248e-19 -9.87877e-16 0)
(-2.55714e-19 -9.87873e-16 0)
(-2.90045e-19 -9.87868e-16 0)
(-3.32853e-19 -9.87859e-16 0)
(-3.88863e-19 -9.87846e-16 0)
(-4.69734e-19 -9.87823e-16 0)
(-6.19393e-19 -9.87775e-16 0)
(-6.61596e-19 -9.87441e-16 0)
(-9.64865e-18 -9.87226e-16 0)
(-3.53159e-06 -2.1605e-14 0)
(-8.91847e-05 3.49146e-06 0)
(-0.000173279 -1.96356e-06 0)
(-0.000174514 -3.77356e-06 0)
(-0.000168489 -8.07499e-06 0)
(-0.000164094 -1.90526e-06 0)
(-0.000163917 -7.15564e-06 0)
(-0.000160379 -1.26182e-05 0)
(-0.000152909 -2.09997e-05 0)
(-0.000140411 -3.06678e-05 0)
(-0.000121884 -4.2678e-05 0)
(-9.55336e-05 -5.58498e-05 0)
(-6.11718e-05 -6.70355e-05 0)
(-2.10633e-05 -7.32663e-05 0)
(2.10633e-05 -7.32663e-05 0)
(6.11718e-05 -6.70355e-05 0)
(9.55336e-05 -5.58498e-05 0)
(0.000121884 -4.2678e-05 0)
(0.000140411 -3.06678e-05 0)
(0.000152909 -2.09997e-05 0)
(0.000160379 -1.26182e-05 0)
(0.000163917 -7.15564e-06 0)
(0.000164094 -1.90526e-06 0)
(0.000168489 -8.07499e-06 0)
(0.000174514 -3.77356e-06 0)
(0.000173279 -1.96356e-06 0)
(8.91847e-05 3.49146e-06 0)
(3.53159e-06 -2.1605e-14 0)
(9.64865e-18 -9.87226e-16 0)
(6.61596e-19 -9.87441e-16 0)
(6.19393e-19 -9.87775e-16 0)
(4.69734e-19 -9.87823e-16 0)
(3.88863e-19 -9.87846e-16 0)
(3.32853e-19 -9.87859e-16 0)
(2.90045e-19 -9.87868e-16 0)
(2.55714e-19 -9.87873e-16 0)
(2.27248e-19 -9.87877e-16 0)
(2.03028e-19 -9.8788e-16 0)
(1.81988e-19 -9.87883e-16 0)
(1.63398e-19 -9.87884e-16 0)
(1.46731e-19 -9.87886e-16 0)
(1.31604e-19 -9.87887e-16 0)
(1.17722e-19 -9.87888e-16 0)
(1.04858e-19 -9.87888e-16 0)
(9.28336e-20 -9.87889e-16 0)
(8.15018e-20 -9.8789e-16 0)
(7.07428e-20 -9.8789e-16 0)
(6.04559e-20 -9.8789e-16 0)
(5.05548e-20 -9.87891e-16 0)
(4.09646e-20 -9.87891e-16 0)
(3.16187e-20 -9.87891e-16 0)
(2.2457e-20 -9.87891e-16 0)
(1.34236e-20 -9.87891e-16 0)
(4.46618e-21 -9.87891e-16 0)
(-4.45953e-21 -9.87889e-16 0)
(-1.34035e-20 -9.87889e-16 0)
(-2.24229e-20 -9.87889e-16 0)
(-3.15699e-20 -9.87888e-16 0)
(-4.08998e-20 -9.87888e-16 0)
(-5.04723e-20 -9.87888e-16 0)
(-6.03534e-20 -9.87888e-16 0)
(-7.06175e-20 -9.87887e-16 0)
(-8.13496e-20 -9.87887e-16 0)
(-9.26494e-20 -9.87886e-16 0)
(-1.04635e-19 -9.87885e-16 0)
(-1.1745e-19 -9.87884e-16 0)
(-1.31271e-19 -9.87883e-16 0)
(-1.46321e-19 -9.87881e-16 0)
(-1.62883e-19 -9.87879e-16 0)
(-1.81332e-19 -9.87877e-16 0)
(-2.02171e-19 -9.87874e-16 0)
(-2.26098e-19 -9.8787e-16 0)
(-2.54115e-19 -9.87865e-16 0)
(-2.87716e-19 -9.87857e-16 0)
(-3.29262e-19 -9.87846e-16 0)
(-3.82873e-19 -9.87828e-16 0)
(-4.57293e-19 -9.87797e-16 0)
(-5.69732e-19 -9.87728e-16 0)
(-5.95112e-19 -9.87469e-16 0)
(-4.56526e-19 -9.87304e-16 0)
(-4.65224e-19 -9.87379e-16 0)
(-6.37633e-08 -1.01977e-15 0)
(-7.47455e-05 -1.03936e-06 0)
(-0.000158983 -2.26343e-06 0)
(-0.000162729 -1.15922e-05 0)
(-0.000160339 -8.63202e-07 0)
(-0.000163649 -8.09202e-06 0)
(-0.000162234 -1.50893e-05 0)
(-0.000156488 -2.71502e-05 0)
(-0.00014557 -3.95797e-05 0)
(-0.000128837 -5.63066e-05 0)
(-0.000102776 -7.56545e-05 0)
(-6.64853e-05 -9.22698e-05 0)
(-2.29693e-05 -0.000101322 0)
(2.29693e-05 -0.000101322 0)
(6.64853e-05 -9.22698e-05 0)
(0.000102776 -7.56545e-05 0)
(0.000128837 -5.63066e-05 0)
(0.00014557 -3.95797e-05 0)
(0.000156488 -2.71502e-05 0)
(0.000162234 -1.50893e-05 0)
(0.000163649 -8.09202e-06 0)
(0.000160339 -8.63202e-07 0)
(0.000162729 -1.15922e-05 0)
(0.000158983 -2.26343e-06 0)
(7.47455e-05 -1.03936e-06 0)
(6.37633e-08 -1.01977e-15 0)
(4.65224e-19 -9.87379e-16 0)
(4.56526e-19 -9.87304e-16 0)
(5.95112e-19 -9.87469e-16 0)
(5.69732e-19 -9.87728e-16 0)
(4.57293e-19 -9.87797e-16 0)
(3.82873e-19 -9.87828e-16 0)
(3.29262e-19 -9.87846e-16 0)
(2.87716e-19 -9.87857e-16 0)
(2.54115e-19 -9.87865e-16 0)
(2.26098e-19 -9.8787e-16 0)
(2.02171e-19 -9.87874e-16 0)
(1.81332e-19 -9.87877e-16 0)
(1.62883e-19 -9.87879e-16 0)
(1.46321e-19 -9.87881e-16 0)
(1.31271e-19 -9.87883e-16 0)
(1.1745e-19 -9.87884e-16 0)
(1.04635e-19 -9.87885e-16 0)
(9.26494e-20 -9.87886e-16 0)
(8.13496e-20 -9.87887e-16 0)
(7.06175e-20 -9.87887e-16 0)
(6.03534e-20 -9.87888e-16 0)
(5.04723e-20 -9.87888e-16 0)
(4.08998e-20 -9.87888e-16 0)
(3.15699e-20 -9.87888e-16 0)
(2.24229e-20 -9.87889e-16 0)
(1.34035e-20 -9.87889e-16 0)
(4.45953e-21 -9.87889e-16 0)
(-4.44997e-21 -9.87886e-16 0)
(-1.33746e-20 -9.87886e-16 0)
(-2.2374e-20 -9.87886e-16 0)
(-3.14998e-20 -9.87886e-16 0)
(-4.08067e-20 -9.87885e-16 0)
(-5.03538e-20 -9.87885e-16 0)
(-6.02064e-20 -9.87884e-16 0)
(-7.04375e-20 -9.87884e-16 0)
(-8.11312e-20 -9.87883e-16 0)
(-9.23851e-20 -9.87882e-16 0)
(-1.04315e-19 -9.87881e-16 0)
(-1.17062e-19 -9.8788e-16 0)
(-1.30796e-19 -9.87878e-16 0)
(-1.45733e-19 -9.87876e-16 0)
(-1.62147e-19 -9.87874e-16 0)
(-1.80394e-19 -9.87871e-16 0)
(-2.00951e-19 -9.87867e-16 0)
(-2.24466e-19 -9.87862e-16 0)
(-2.51854e-19 -9.87855e-16 0)
(-2.8444e-19 -9.87846e-16 0)
(-3.24228e-19 -9.87832e-16 0)
(-3.74414e-19 -9.8781e-16 0)
(-4.40197e-19 -9.87772e-16 0)
(-5.2316e-19 -9.87693e-16 0)
(-5.37067e-19 -9.87492e-16 0)
(-4.38315e-19 -9.87353e-16 0)
(-3.84125e-19 -9.8736e-16 0)
(-2.70961e-19 -9.87144e-16 0)
(-1.09054e-10 -9.83157e-16 0)
(-4.47554e-05 -1.78253e-07 0)
(-0.000116488 -6.78648e-06 0)
(-0.000153045 2.66374e-06 0)
(-0.00016374 -7.6835e-06 0)
(-0.000166111 -1.5228e-05 0)
(-0.000162858 -3.36003e-05 0)
(-0.000154034 -4.71384e-05 0)
(-0.000140865 -6.97376e-05 0)
(-0.000115492 -9.82417e-05 0)
(-7.56726e-05 -0.000122962 0)
(-2.61858e-05 -0.000135713 0)
(2.61858e-05 -0.000135713 0)
(7.56726e-05 -0.000122962 0)
(0.000115492 -9.82417e-05 0)
(0.000140865 -6.97376e-05 0)
(0.000154034 -4.71384e-05 0)
(0.000162858 -3.36003e-05 0)
(0.000166111 -1.5228e-05 0)
(0.00016374 -7.6835e-06 0)
(0.000153045 2.66374e-06 0)
(0.000116488 -6.78648e-06 0)
(4.47554e-05 -1.78253e-07 0)
(1.09054e-10 -9.83157e-16 0)
(2.70961e-19 -9.87144e-16 0)
(3.84125e-19 -9.8736e-16 0)
(4.38315e-19 -9.87353e-16 0)
(5.37067e-19 -9.87492e-16 0)
(5.2316e-19 -9.87693e-16 0)
(4.40197e-19 -9.87772e-16 0)
(3.74414e-19 -9.8781e-16 0)
(3.24228e-19 -9.87832e-16 0)
(2.8444e-19 -9.87846e-16 0)
(2.51854e-19 -9.87855e-16 0)
(2.24466e-19 -9.87862e-16 0)
(2.00951e-19 -9.87867e-16 0)
(1.80394e-19 -9.87871e-16 0)
(1.62147e-19 -9.87874e-16 0)
(1.45733e-19 -9.87876e-16 0)
(1.30796e-19 -9.87878e-16 0)
(1.17062e-19 -9.8788e-16 0)
(1.04315e-19 -9.87881e-16 0)
(9.23851e-20 -9.87882e-16 0)
(8.11312e-20 -9.87883e-16 0)
(7.04375e-20 -9.87884e-16 0)
(6.02064e-20 -9.87884e-16 0)
(5.03538e-20 -9.87885e-16 0)
(4.08067e-20 -9.87885e-16 0)
(3.14998e-20 -9.87886e-16 0)
(2.2374e-20 -9.87886e-16 0)
(1.33746e-20 -9.87886e-16 0)
(4.44997e-21 -9.87886e-16 0)
(-4.43679e-21 -9.87883e-16 0)
(-1.33348e-20 -9.87883e-16 0)
(-2.23065e-20 -9.87883e-16 0)
(-3.14031e-20 -9.87883e-16 0)
(-4.06783e-20 -9.87882e-16 0)
(-5.01905e-20 -9.87882e-16 0)
(-6.00037e-20 -9.87881e-16 0)
(-7.01897e-20 -9.8788e-16 0)
(-8.08305e-20 -9.87879e-16 0)
(-9.20215e-20 -9.87878e-16 0)
(-1.03875e-19 -9.87877e-16 0)
(-1.16527e-19 -9.87875e-16 0)
(-1.30143e-19 -9.87874e-16 0)
(-1.44927e-19 -9.87871e-16 0)
(-1.61139e-19 -9.87868e-16 0)
(-1.79114e-19 -9.87865e-16 0)
(-1.99289e-19 -9.8786e-16 0)
(-2.22253e-19 -9.87854e-16 0)
(-2.48806e-19 -9.87846e-16 0)
(-2.80061e-19 -9.87834e-16 0)
(-3.17572e-19 -9.87817e-16 0)
(-3.63434e-19 -9.87792e-16 0)
(-4.19571e-19 -9.87749e-16 0)
(-4.79618e-19 -9.87669e-16 0)
(-4.857e-19 -9.87511e-16 0)
(-4.13477e-19 -9.87393e-16 0)
(-3.5198e-19 -9.8736e-16 0)
(-2.44904e-19 -9.87219e-16 0)
(-6.31094e-20 -9.87232e-16 0)
(6.67476e-20 -9.87016e-16 0)
(-3.61265e-07 -1.15626e-15 0)
(-7.28276e-05 2.64914e-06 0)
(-0.000150724 -3.53047e-06 0)
(-0.00016632 -7.2562e-06 0)
(-0.000169648 -4.25058e-05 0)
(-0.000164368 -4.96226e-05 0)
(-0.000160231 -8.06493e-05 0)
(-0.000137129 -0.000124608 0)
(-9.09484e-05 -0.000162725 0)
(-3.1269e-05 -0.000179848 0)
(3.1269e-05 -0.000179848 0)
(9.09484e-05 -0.000162725 0)
(0.000137129 -0.000124608 0)
(0.000160231 -8.06493e-05 0)
(0.000164368 -4.96226e-05 0)
(0.000169648 -4.25058e-05 0)
(0.00016632 -7.2562e-06 0)
(0.000150724 -3.53047e-06 0)
(7.28276e-05 2.64914e-06 0)
(3.61265e-07 -1.15626e-15 0)
(-6.67476e-20 -9.87016e-16 0)
(6.31094e-20 -9.87232e-16 0)
(2.44904e-19 -9.87219e-16 0)
(3.5198e-19 -9.8736e-16 0)
(4.13477e-19 -9.87393e-16 0)
(4.857e-19 -9.87511e-16 0)
(4.79618e-19 -9.87669e-16 0)
(4.19571e-19 -9.87749e-16 0)
(3.63434e-19 -9.87792e-16 0)
(3.17572e-19 -9.87817e-16 0)
(2.80061e-19 -9.87834e-16 0)
(2.48806e-19 -9.87846e-16 0)
(2.22253e-19 -9.87854e-16 0)
(1.99289e-19 -9.8786e-16 0)
(1.79114e-19 -9.87865e-16 0)
(1.61139e-19 -9.87868e-16 0)
(1.44927e-19 -9.87871e-16 0)
(1.30143e-19 -9.87874e-16 0)
(1.16527e-19 -9.87875e-16 0)
(1.03875e-19 -9.87877e-16 0)
(9.20215e-20 -9.87878e-16 0)
(8.08305e-20 -9.87879e-16 0)
(7.01897e-20 -9.8788e-16 0)
(6.00037e-20 -9.87881e-16 0)
(5.01905e-20 -9.87882e-16 0)
(4.06783e-20 -9.87882e-16 0)
(3.14031e-20 -9.87883e-16 0)
(2.23065e-20 -9.87883e-16 0)
(1.33348e-20 -9.87883e-16 0)
(4.43679e-21 -9.87883e-16 0)
(-4.41912e-21 -9.8788e-16 0)
(-1.32814e-20 -9.8788e-16 0)
(-2.22161e-20 -9.87879e-16 0)
(-3.12735e-20 -9.87879e-16 0)
(-4.05065e-20 -9.87879e-16 0)
(-4.99719e-20 -9.87878e-16 0)
(-5.97325e-20 -9.87877e-16 0)
(-6.98581e-20 -9.87877e-16 0)
(-8.04284e-20 -9.87875e-16 0)
(-9.15356e-20 -9.87874e-16 0)
(-1.03288e-19 -9.87873e-16 0)
(-1.15815e-19 -9.87871e-16 0)
(-1.29273e-19 -9.87868e-16 0)
(-1.43855e-19 -9.87866e-16 0)
(-1.59803e-19 -9.87862e-16 0)
(-1.7742e-19 -9.87858e-16 0)
(-1.97101e-19 -9.87852e-16 0)
(-2.19355e-19 -9.87845e-16 0)
(-2.44847e-19 -9.87835e-16 0)
(-2.74437e-19 -9.87822e-16 0)
(-3.09175e-19 -9.87803e-16 0)
(-3.50042e-19 -9.87774e-16 0)
(-3.96434e-19 -9.87729e-16 0)
(-4.38946e-19 -9.87651e-16 0)
(-4.39642e-19 -9.87526e-16 0)
(-3.84826e-19 -9.87424e-16 0)
(-3.22708e-19 -9.87374e-16 0)
(-2.26153e-19 -9.8728e-16 0)
(-8.84732e-20 -9.87289e-16 0)
(-5.04758e-21 -9.87396e-16 0)
(-1.50395e-19 -9.87587e-16 0)
(-4.61833e-20 -9.76797e-16 0)
(-5.14915e-11 -7.59738e-16 0)
(-2.40165e-05 -2.86947e-08 0)
(-8.2846e-05 -2.40123e-05 0)
(-0.000147179 -2.44367e-05 0)
(-0.000183443 -7.97887e-05 0)
(-0.000171987 -0.000155039 0)
(-0.000115378 -0.00021921 0)
(-3.84846e-05 -0.000238673 0)
(3.84846e-05 -0.000238673 0)
(0.000115378 -0.00021921 0)
(0.000171987 -0.000155039 0)
(0.000183443 -7.97887e-05 0)
(0.000147179 -2.44367e-05 0)
(8.2846e-05 -2.40123e-05 0)
(2.40165e-05 -2.86947e-08 0)
(5.14915e-11 -7.59738e-16 0)
(4.61833e-20 -9.76797e-16 0)
(1.50395e-19 -9.87587e-16 0)
(5.04758e-21 -9.87396e-16 0)
(8.84732e-20 -9.87289e-16 0)
(2.26153e-19 -9.8728e-16 0)
(3.22708e-19 -9.87374e-16 0)
(3.84826e-19 -9.87424e-16 0)
(4.39642e-19 -9.87526e-16 0)
(4.38946e-19 -9.87651e-16 0)
(3.96434e-19 -9.87729e-16 0)
(3.50042e-19 -9.87774e-16 0)
(3.09175e-19 -9.87803e-16 0)
(2.74437e-19 -9.87822e-16 0)
(2.44847e-19 -9.87835e-16 0)
(2.19355e-19 -9.87845e-16 0)
(1.97101e-19 -9.87852e-16 0)
(1.7742e-19 -9.87858e-16 0)
(1.59803e-19 -9.87862e-16 0)
(1.43855e-19 -9.87866e-16 0)
(1.29273e-19 -9.87868e-16 0)
(1.15815e-19 -9.87871e-16 0)
(1.03288e-19 -9.87873e-16 0)
(9.15356e-20 -9.87874e-16 0)
(8.04284e-20 -9.87875e-16 0)
(6.98581e-20 -9.87877e-16 0)
(5.97325e-20 -9.87877e-16 0)
(4.99719e-20 -9.87878e-16 0)
(4.05065e-20 -9.87879e-16 0)
(3.12735e-20 -9.87879e-16 0)
(2.22161e-20 -9.87879e-16 0)
(1.32814e-20 -9.8788e-16 0)
(4.41912e-21 -9.8788e-16 0)
(-4.39595e-21 -9.87876e-16 0)
(-1.32113e-20 -9.87876e-16 0)
(-2.20976e-20 -9.87876e-16 0)
(-3.11037e-20 -9.87875e-16 0)
(-4.02812e-20 -9.87875e-16 0)
(-4.96855e-20 -9.87874e-16 0)
(-5.93773e-20 -9.87873e-16 0)
(-6.94241e-20 -9.87872e-16 0)
(-7.99026e-20 -9.87871e-16 0)
(-9.09007e-20 -9.8787e-16 0)
(-1.02521e-19 -9.87868e-16 0)
(-1.14886e-19 -9.87865e-16 0)
(-1.28141e-19 -9.87863e-16 0)
(-1.42464e-19 -9.87859e-16 0)
(-1.58073e-19 -9.87855e-16 0)
(-1.75237e-19 -9.8785e-16 0)
(-1.94295e-19 -9.87844e-16 0)
(-2.15664e-19 -9.87835e-16 0)
(-2.39856e-19 -9.87824e-16 0)
(-2.67455e-19 -9.87809e-16 0)
(-2.98996e-19 -9.87788e-16 0)
(-3.34481e-19 -9.87758e-16 0)
(-3.7167e-19 -9.87711e-16 0)
(-4.00942e-19 -9.87639e-16 0)
(-3.97895e-19 -9.87538e-16 0)
(-3.54553e-19 -9.87451e-16 0)
(-2.96042e-19 -9.87396e-16 0)
(-2.12082e-19 -9.87331e-16 0)
(-1.07722e-19 -9.87335e-16 0)
(-4.7703e-20 -9.87407e-16 0)
(-1.0694e-19 -9.87494e-16 0)
(-4.03401e-20 -9.87247e-16 0)
(8.71886e-20 -9.87402e-16 0)
(1.62905e-19 -9.87105e-16 0)
(1.46856e-19 -9.26093e-16 0)
(-1.49632e-06 -2.17754e-12 0)
(-5.17422e-05 -3.72705e-05 0)
(-0.000145725 -0.000129223 0)
(-0.00013977 -0.000302375 0)
(-4.42906e-05 -0.000315244 0)
(4.42906e-05 -0.000315244 0)
(0.00013977 -0.000302375 0)
(0.000145725 -0.000129223 0)
(5.17422e-05 -3.72705e-05 0)
(1.49632e-06 -2.17754e-12 0)
(-1.46856e-19 -9.26093e-16 0)
(-1.62905e-19 -9.87105e-16 0)
(-8.71886e-20 -9.87402e-16 0)
(4.03401e-20 -9.87247e-16 0)
(1.0694e-19 -9.87494e-16 0)
(4.7703e-20 -9.87407e-16 0)
(1.07722e-19 -9.87335e-16 0)
(2.12082e-19 -9.87331e-16 0)
(2.96042e-19 -9.87396e-16 0)
(3.54553e-19 -9.87451e-16 0)
(3.97895e-19 -9.87538e-16 0)
(4.00942e-19 -9.87639e-16 0)
(3.7167e-19 -9.87711e-16 0)
(3.34481e-19 -9.87758e-16 0)
(2.98996e-19 -9.87788e-16 0)
(2.67455e-19 -9.87809e-16 0)
(2.39856e-19 -9.87824e-16 0)
(2.15664e-19 -9.87835e-16 0)
(1.94295e-19 -9.87844e-16 0)
(1.75237e-19 -9.8785e-16 0)
(1.58073e-19 -9.87855e-16 0)
(1.42464e-19 -9.87859e-16 0)
(1.28141e-19 -9.87863e-16 0)
(1.14886e-19 -9.87865e-16 0)
(1.02521e-19 -9.87868e-16 0)
(9.09007e-20 -9.8787e-16 0)
(7.99026e-20 -9.87871e-16 0)
(6.94241e-20 -9.87872e-16 0)
(5.93773e-20 -9.87873e-16 0)
(4.96855e-20 -9.87874e-16 0)
(4.02812e-20 -9.87875e-16 0)
(3.11037e-20 -9.87875e-16 0)
(2.20976e-20 -9.87876e-16 0)
(1.32113e-20 -9.87876e-16 0)
(4.39595e-21 -9.87876e-16 0)
(-4.36608e-21 -9.87872e-16 0)
(-1.3121e-20 -9.87872e-16 0)
(-2.19448e-20 -9.87872e-16 0)
(-3.08848e-20 -9.87871e-16 0)
(-3.9991e-20 -9.87871e-16 0)
(-4.93168e-20 -9.8787e-16 0)
(-5.89203e-20 -9.87869e-16 0)
(-6.88662e-20 -9.87868e-16 0)
(-7.92271e-20 -9.87866e-16 0)
(-9.0086e-20 -9.87865e-16 0)
(-1.01539e-19 -9.87862e-16 0)
(-1.13698e-19 -9.8786e-16 0)
(-1.26697e-19 -9.87857e-16 0)
(-1.40694e-19 -9.87853e-16 0)
(-1.5588e-19 -9.87848e-16 0)
(-1.72483e-19 -9.87842e-16 0)
(-1.90777e-19 -9.87835e-16 0)
(-2.11079e-19 -9.87826e-16 0)
(-2.33734e-19 -9.87813e-16 0)
(-2.59048e-19 -9.87797e-16 0)
(-2.87082e-19 -9.87774e-16 0)
(-3.17088e-19 -9.87743e-16 0)
(-3.46012e-19 -9.87697e-16 0)
(-3.65401e-19 -9.87632e-16 0)
(-3.59763e-19 -9.87549e-16 0)
(-3.24232e-19 -9.87475e-16 0)
(-2.71632e-19 -9.87422e-16 0)
(-2.00526e-19 -9.87375e-16 0)
(-1.20407e-19 -9.87374e-16 0)
(-7.18237e-20 -9.87417e-16 0)
(-8.31931e-20 -9.87454e-16 0)
(-3.19327e-20 -9.8734e-16 0)
(5.33963e-20 -9.87405e-16 0)
(8.43668e-20 -9.87427e-16 0)
(8.03627e-20 -9.87525e-16 0)
(4.46628e-20 -9.87531e-16 0)
(-1.45536e-07 -1.63787e-12 0)
(-3.17394e-05 -5.66106e-05 0)
(-5.85794e-05 -0.000357479 0)
(-2.69855e-05 -0.000387026 0)
(2.69855e-05 -0.000387026 0)
(5.85794e-05 -0.000357479 0)
(3.17394e-05 -5.66106e-05 0)
(1.45536e-07 -1.63787e-12 0)
(-4.46628e-20 -9.87531e-16 0)
(-8.03627e-20 -9.87525e-16 0)
(-8.43668e-20 -9.87427e-16 0)
(-5.33963e-20 -9.87405e-16 0)
(3.19327e-20 -9.8734e-16 0)
(8.31931e-20 -9.87454e-16 0)
(7.18237e-20 -9.87417e-16 0)
(1.20407e-19 -9.87374e-16 0)
(2.00526e-19 -9.87375e-16 0)
(2.71632e-19 -9.87422e-16 0)
(3.24232e-19 -9.87475e-16 0)
(3.59763e-19 -9.87549e-16 0)
(3.65401e-19 -9.87632e-16 0)
(3.46012e-19 -9.87697e-16 0)
(3.17088e-19 -9.87743e-16 0)
(2.87082e-19 -9.87774e-16 0)
(2.59048e-19 -9.87797e-16 0)
(2.33734e-19 -9.87813e-16 0)
(2.11079e-19 -9.87826e-16 0)
(1.90777e-19 -9.87835e-16 0)
(1.72483e-19 -9.87842e-16 0)
(1.5588e-19 -9.87848e-16 0)
(1.40694e-19 -9.87853e-16 0)
(1.26697e-19 -9.87857e-16 0)
(1.13698e-19 -9.8786e-16 0)
(1.01539e-19 -9.87862e-16 0)
(9.0086e-20 -9.87865e-16 0)
(7.92271e-20 -9.87866e-16 0)
(6.88662e-20 -9.87868e-16 0)
(5.89203e-20 -9.87869e-16 0)
(4.93168e-20 -9.8787e-16 0)
(3.9991e-20 -9.87871e-16 0)
(3.08848e-20 -9.87871e-16 0)
(2.19448e-20 -9.87872e-16 0)
(1.3121e-20 -9.87872e-16 0)
(4.36608e-21 -9.87872e-16 0)
(-4.32811e-21 -9.87868e-16 0)
(-1.30063e-20 -9.87868e-16 0)
(-2.17507e-20 -9.87868e-16 0)
(-3.06068e-20 -9.87867e-16 0)
(-3.96226e-20 -9.87866e-16 0)
(-4.88488e-20 -9.87865e-16 0)
(-5.83407e-20 -9.87864e-16 0)
(-6.81593e-20 -9.87863e-16 0)
(-7.83723e-20 -9.87861e-16 0)
(-8.90566e-20 -9.87859e-16 0)
(-1.003e-19 -9.87857e-16 0)
(-1.12204e-19 -9.87854e-16 0)
(-1.24885e-19 -9.8785e-16 0)
(-1.38481e-19 -9.87846e-16 0)
(-1.5315e-19 -9.87841e-16 0)
(-1.69076e-19 -9.87834e-16 0)
(-1.8646e-19 -9.87826e-16 0)
(-2.05513e-19 -9.87816e-16 0)
(-2.26412e-19 -9.87802e-16 0)
(-2.49204e-19 -9.87785e-16 0)
(-2.73564e-19 -9.87761e-16 0)
(-2.98259e-19 -9.87729e-16 0)
(-3.20051e-19 -9.87686e-16 0)
(-3.3214e-19 -9.87628e-16 0)
(-3.24774e-19 -9.8756e-16 0)
(-2.94878e-19 -9.87497e-16 0)
(-2.49088e-19 -9.87448e-16 0)
(-1.89912e-19 -9.87412e-16 0)
(-1.27111e-19 -9.87407e-16 0)
(-8.45725e-20 -9.87429e-16 0)
(-7.14662e-20 -9.87444e-16 0)
(-2.96416e-20 -9.87395e-16 0)
(2.2448e-20 -9.87429e-16 0)
(3.87066e-20 -9.87454e-16 0)
(3.78122e-20 -9.87492e-16 0)
(1.97611e-20 -9.87511e-16 0)
(-3.79343e-09 -7.76207e-15 0)
(-4.44692e-06 -2.07002e-05 0)
(-1.2563e-05 -0.000359143 0)
(-8.11989e-06 -0.000425921 0)
(8.11989e-06 -0.000425921 0)
(1.2563e-05 -0.000359143 0)
(4.44692e-06 -2.07002e-05 0)
(3.79343e-09 -7.76207e-15 0)
(-1.97611e-20 -9.87511e-16 0)
(-3.78122e-20 -9.87492e-16 0)
(-3.87066e-20 -9.87454e-16 0)
(-2.2448e-20 -9.87429e-16 0)
(2.96416e-20 -9.87395e-16 0)
(7.14662e-20 -9.87444e-16 0)
(8.45725e-20 -9.87429e-16 0)
(1.27111e-19 -9.87407e-16 0)
(1.89912e-19 -9.87412e-16 0)
(2.49088e-19 -9.87448e-16 0)
(2.94878e-19 -9.87497e-16 0)
(3.24774e-19 -9.8756e-16 0)
(3.3214e-19 -9.87628e-16 0)
(3.20051e-19 -9.87686e-16 0)
(2.98259e-19 -9.87729e-16 0)
(2.73564e-19 -9.87761e-16 0)
(2.49204e-19 -9.87785e-16 0)
(2.26412e-19 -9.87802e-16 0)
(2.05513e-19 -9.87816e-16 0)
(1.8646e-19 -9.87826e-16 0)
(1.69076e-19 -9.87834e-16 0)
(1.5315e-19 -9.87841e-16 0)
(1.38481e-19 -9.87846e-16 0)
(1.24885e-19 -9.8785e-16 0)
(1.12204e-19 -9.87854e-16 0)
(1.003e-19 -9.87857e-16 0)
(8.90566e-20 -9.87859e-16 0)
(7.83723e-20 -9.87861e-16 0)
(6.81593e-20 -9.87863e-16 0)
(5.83407e-20 -9.87864e-16 0)
(4.88488e-20 -9.87865e-16 0)
(3.96226e-20 -9.87866e-16 0)
(3.06068e-20 -9.87867e-16 0)
(2.17507e-20 -9.87868e-16 0)
(1.30063e-20 -9.87868e-16 0)
(4.32811e-21 -9.87868e-16 0)
(-4.28044e-21 -9.87863e-16 0)
(-1.28622e-20 -9.87863e-16 0)
(-2.1507e-20 -9.87863e-16 0)
(-3.0258e-20 -9.87862e-16 0)
(-3.91605e-20 -9.87861e-16 0)
(-4.82624e-20 -9.8786e-16 0)
(-5.76152e-20 -9.87859e-16 0)
(-6.72754e-20 -9.87858e-16 0)
(-7.73051e-20 -9.87856e-16 0)
(-8.77738e-20 -9.87853e-16 0)
(-9.87595e-20 -9.87851e-16 0)
(-1.1035e-19 -9.87847e-16 0)
(-1.22646e-19 -9.87843e-16 0)
(-1.35758e-19 -9.87838e-16 0)
(-1.49811e-19 -9.87833e-16 0)
(-1.64937e-19 -9.87825e-16 0)
(-1.81265e-19 -9.87816e-16 0)
(-1.98899e-19 -9.87805e-16 0)
(-2.17861e-19 -9.87791e-16 0)
(-2.37976e-19 -9.87773e-16 0)
(-2.58645e-19 -9.87749e-16 0)
(-2.78406e-19 -9.87718e-16 0)
(-2.94244e-19 -9.87677e-16 0)
(-3.0101e-19 -9.87627e-16 0)
(-2.92595e-19 -9.8757e-16 0)
(-2.67054e-19 -9.87517e-16 0)
(-2.28044e-19 -9.87474e-16 0)
(-1.79267e-19 -9.87444e-16 0)
(-1.2889e-19 -9.87435e-16 0)
(-9.04601e-20 -9.87444e-16 0)
(-6.6503e-20 -9.87449e-16 0)
(-3.14632e-20 -9.87431e-16 0)
(1.5004e-21 -9.8745e-16 0)
(1.25105e-20 -9.87466e-16 0)
(1.50319e-20 -9.87483e-16 0)
(9.61181e-21 -9.87493e-16 0)
(-2.78886e-10 -2.09644e-15 0)
(-1.25145e-06 -1.34985e-05 0)
(-4.4529e-06 -0.00035244 0)
(-3.20173e-06 -0.00044004 0)
(3.20173e-06 -0.00044004 0)
(4.4529e-06 -0.00035244 0)
(1.25145e-06 -1.34985e-05 0)
(2.78886e-10 -2.09644e-15 0)
(-9.61181e-21 -9.87493e-16 0)
(-1.50319e-20 -9.87483e-16 0)
(-1.25105e-20 -9.87466e-16 0)
(-1.5004e-21 -9.8745e-16 0)
(3.14632e-20 -9.87431e-16 0)
(6.6503e-20 -9.87449e-16 0)
(9.04601e-20 -9.87444e-16 0)
(1.2889e-19 -9.87435e-16 0)
(1.79267e-19 -9.87444e-16 0)
(2.28044e-19 -9.87474e-16 0)
(2.67054e-19 -9.87517e-16 0)
(2.92595e-19 -9.8757e-16 0)
(3.0101e-19 -9.87627e-16 0)
(2.94244e-19 -9.87677e-16 0)
(2.78406e-19 -9.87718e-16 0)
(2.58645e-19 -9.87749e-16 0)
(2.37976e-19 -9.87773e-16 0)
(2.17861e-19 -9.87791e-16 0)
(1.98899e-19 -9.87805e-16 0)
(1.81265e-19 -9.87816e-16 0)
(1.64937e-19 -9.87825e-16 0)
(1.49811e-19 -9.87833e-16 0)
(1.35758e-19 -9.87838e-16 0)
(1.22646e-19 -9.87843e-16 0)
(1.1035e-19 -9.87847e-16 0)
(9.87595e-20 -9.87851e-16 0)
(8.77738e-20 -9.87853e-16 0)
(7.73051e-20 -9.87856e-16 0)
(6.72754e-20 -9.87858e-16 0)
(5.76152e-20 -9.87859e-16 0)
(4.82624e-20 -9.8786e-16 0)
(3.91605e-20 -9.87861e-16 0)
(3.0258e-20 -9.87862e-16 0)
(2.1507e-20 -9.87863e-16 0)
(1.28622e-20 -9.87863e-16 0)
(4.28044e-21 -9.87863e-16 0)
(-4.22123e-21 -9.87858e-16 0)
(-1.26833e-20 -9.87858e-16 0)
(-2.12045e-20 -9.87858e-16 0)
(-2.98253e-20 -9.87857e-16 0)
(-3.85878e-20 -9.87856e-16 0)
(-4.75362e-20 -9.87855e-16 0)
(-5.67178e-20 -9.87854e-16 0)
(-6.61837e-20 -9.87852e-16 0)
(-7.59894e-20 -9.8785e-16 0)
(-8.61957e-20 -9.87847e-16 0)
(-9.68696e-20 -9.87844e-16 0)
(-1.08084e-19 -9.8784e-16 0)
(-1.1992e-19 -9.87836e-16 0)
(-1.32461e-19 -9.87831e-16 0)
(-1.45794e-19 -9.87824e-16 0)
(-1.6e-19 -9.87816e-16 0)
(-1.75136e-19 -9.87807e-16 0)
(-1.91206e-19 -9.87795e-16 0)
(-2.081e-19 -9.8778e-16 0)
(-2.25478e-19 -9.87762e-16 0)
(-2.42582e-19 -9.87738e-16 0)
(-2.57928e-19 -9.87708e-16 0)
(-2.68941e-19 -9.87671e-16 0)
(-2.71888e-19 -9.87627e-16 0)
(-2.62967e-19 -9.8758e-16 0)
(-2.40992e-19 -9.87535e-16 0)
(-2.08194e-19 -9.87498e-16 0)
(-1.6812e-19 -9.87472e-16 0)
(-1.26889e-19 -9.87461e-16 0)
(-9.21286e-20 -9.87461e-16 0)
(-6.47266e-20 -9.87462e-16 0)
(-3.45843e-20 -9.87457e-16 0)
(-1.13045e-20 -9.87467e-16 0)
(-2.00204e-21 -9.87475e-16 0)
(3.34951e-21 -9.87484e-16 0)
(5.5205e-21 -9.87489e-16 0)
(9.60301e-21 -1.58155e-15 0)
(-3.06692e-07 -1.0818e-05 0)
(-2.09158e-06 -0.000347392 0)
(-1.78489e-06 -0.000446896 0)