/*--------------------------------*- C++ -*----------------------------------*\
  =========                 |
  \\      /  F ield         | OpenFOAM: The Open Source CFD Toolbox
   \\    /   O peration     | Website:  https://openfoam.org
    \\  /    A nd           | Version:  10
     \\/     M anipulation  |
\*---------------------------------------------------------------------------*/
FoamFile
{
    format      ascii;
    class       surfaceScalarField;
    location    "16500";
    object      phi;
}
// * * * * * * * * * * * * * * * * * * * * * * * * * * * * * * * * * * * * * //

dimensions      [0 3 -1 0 0 0 0];

internalField   nonuniform List<scalar> 
12640
(
-2.37651e-08
2.37651e-08
-4.80656e-08
2.43005e-08
-7.3497e-08
2.54314e-08
-1.00792e-07
2.72954e-08
-1.30941e-07
3.01488e-08
-1.65401e-07
3.44598e-08
-2.06516e-07
4.1115e-08
-2.58419e-07
5.19033e-08
-3.28872e-07
7.04528e-08
-4.25289e-07
9.64163e-08
-3.07469e-07
-1.17819e-07
-4.15241e-06
3.84494e-06
-4.14975e-06
-2.65902e-09
-4.02719e-06
-1.22565e-07
-3.61081e-06
-4.16375e-07
-3.561e-06
-4.98133e-08
-3.52956e-06
-3.14349e-08
-3.68546e-06
1.55895e-07
-3.6743e-06
-1.11615e-08
-3.64515e-06
-2.91434e-08
-3.58689e-06
-5.8268e-08
-3.53298e-06
-5.39086e-08
-3.43667e-06
-9.63106e-08
-3.37815e-06
-5.85119e-08
-3.33821e-06
-3.99398e-08
-3.28678e-06
-5.14399e-08
-3.2454e-06
-4.13708e-08
-3.20356e-06
-4.18395e-08
-3.14232e-06
-6.12423e-08
-3.0799e-06
-6.24234e-08
-2.99435e-06
-8.55506e-08
-2.82741e-06
-1.66935e-07
-2.69682e-06
-1.30597e-07
-2.51923e-06
-1.77586e-07
-2.28077e-06
-2.38455e-07
-1.96861e-06
-3.12166e-07
-1.57533e-06
-3.93281e-07
-1.10373e-06
-4.71601e-07
-5.69402e-07
-5.34325e-07
9.62158e-18
-5.69402e-07
5.69402e-07
-5.69402e-07
1.10373e-06
-5.34325e-07
1.57533e-06
-4.71601e-07
1.96861e-06
-3.93281e-07
2.28077e-06
-3.12166e-07
2.51923e-06
-2.38455e-07
2.69682e-06
-1.77586e-07
2.82741e-06
-1.30597e-07
2.99435e-06
-1.66935e-07
3.0799e-06
-8.55506e-08
3.14232e-06
-6.24234e-08
3.20356e-06
-6.12423e-08
3.2454e-06
-4.18395e-08
3.28678e-06
-4.13708e-08
3.33821e-06
-5.14399e-08
3.37815e-06
-3.99398e-08
3.43667e-06
-5.85119e-08
3.53298e-06
-9.63106e-08
3.58689e-06
-5.39086e-08
3.64515e-06
-5.8268e-08
3.6743e-06
-2.91434e-08
3.68546e-06
-1.11615e-08
3.52956e-06
1.55895e-07
3.561e-06
-3.14349e-08
3.61081e-06
-4.98133e-08
4.02719e-06
-4.16375e-07
4.14975e-06
-1.22565e-07
4.15241e-06
-2.65902e-09
3.07469e-07
3.84494e-06
4.25289e-07
-1.17819e-07
3.28872e-07
9.64163e-08
2.58419e-07
7.04528e-08
2.06516e-07
5.19033e-08
1.65401e-07
4.1115e-08
1.30941e-07
3.44598e-08
1.00792e-07
3.01488e-08
7.3497e-08
2.72954e-08
4.80656e-08
2.54314e-08
2.37651e-08
2.43005e-08
2.37651e-08
-2.60408e-08
4.98059e-08
-5.26658e-08
5.09255e-08
-8.05248e-08
5.32904e-08
-1.10416e-07
5.71867e-08
-1.43415e-07
6.31476e-08
-1.811e-07
7.21448e-08
-2.25999e-07
8.60146e-08
-2.8256e-07
1.08463e-07
-3.59482e-07
1.47375e-07
-4.79775e-07
2.16709e-07
-9.18559e-07
3.20965e-07
-2.22122e-07
3.1485e-06
-3.83435e-06
3.60957e-06
-4.16674e-06
2.09826e-07
-3.77137e-06
-8.11749e-07
-3.76302e-06
-5.81593e-08
-3.73665e-06
-5.78106e-08
-3.92833e-06
3.47577e-07
-3.91649e-06
-2.30051e-08
-3.89118e-06
-5.44498e-08
-3.83148e-06
-1.1797e-07
-3.7794e-06
-1.0599e-07
-3.67525e-06
-2.00457e-07
-3.61575e-06
-1.18011e-07
-3.57627e-06
-7.94172e-08
-3.52173e-06
-1.05986e-07
-3.47926e-06
-8.38422e-08
-3.43647e-06
-8.46205e-08
-3.37094e-06
-1.26773e-07
-3.3059e-06
-1.2747e-07
-3.21758e-06
-1.73865e-07
-3.04341e-06
-3.41109e-07
-2.90634e-06
-2.6767e-07
-2.71914e-06
-3.64787e-07
-2.46628e-06
-4.91314e-07
-2.13293e-06
-6.45516e-07
-1.71002e-06
-8.16189e-07
-1.19996e-06
-9.81656e-07
-6.19694e-07
-1.11459e-06
-5.06865e-18
-1.1891e-06
6.19694e-07
-1.1891e-06
1.19996e-06
-1.11459e-06
1.71002e-06
-9.81656e-07
2.13293e-06
-8.16189e-07
2.46628e-06
-6.45516e-07
2.71914e-06
-4.91314e-07
2.90634e-06
-3.64787e-07
3.04341e-06
-2.6767e-07
3.21758e-06
-3.41109e-07
3.3059e-06
-1.73865e-07
3.37094e-06
-1.2747e-07
3.43647e-06
-1.26773e-07
3.47926e-06
-8.46205e-08
3.52173e-06
-8.38422e-08
3.57627e-06
-1.05986e-07
3.61575e-06
-7.94172e-08
3.67525e-06
-1.18011e-07
3.7794e-06
-2.00457e-07
3.83148e-06
-1.0599e-07
3.89118e-06
-1.1797e-07
3.91649e-06
-5.44498e-08
3.92833e-06
-2.30051e-08
3.73665e-06
3.47577e-07
3.76302e-06
-5.78106e-08
3.77137e-06
-5.81593e-08
4.16674e-06
-8.11749e-07
3.83435e-06
2.09826e-07
2.22122e-07
3.60957e-06
9.18559e-07
3.1485e-06
4.79775e-07
3.20965e-07
3.59482e-07
2.16709e-07
2.8256e-07
1.47375e-07
2.25999e-07
1.08463e-07
1.811e-07
8.60146e-08
1.43415e-07
7.21448e-08
1.10416e-07
6.31476e-08
8.05248e-08
5.71867e-08
5.26658e-08
5.32904e-08
2.60408e-08
5.09255e-08
4.98059e-08
-2.84982e-08
7.83041e-08
-5.763e-08
8.00574e-08
-8.80989e-08
8.37594e-08
-1.20766e-07
8.98541e-08
-1.56787e-07
9.91679e-08
-1.97842e-07
1.132e-07
-2.46599e-07
1.34771e-07
-3.07694e-07
1.69559e-07
-3.90325e-07
2.30006e-07
-5.2027e-07
3.46654e-07
-8.45913e-07
6.46608e-07
-4.57165e-07
2.75976e-06
-8.67081e-08
3.23911e-06
-2.29727e-06
2.42039e-06
-3.76504e-06
6.56015e-07
-3.95914e-06
1.35949e-07
-3.95051e-06
-6.64451e-08
-4.21764e-06
6.14705e-07
-4.19706e-06
-4.35813e-08
-4.17897e-06
-7.25399e-08
-4.11559e-06
-1.81353e-07
-4.06943e-06
-1.52152e-07
-3.9501e-06
-3.19789e-07
-3.89078e-06
-1.77322e-07
-3.85378e-06
-1.16418e-07
-3.79371e-06
-1.66063e-07
-3.75048e-06
-1.27068e-07
-3.70776e-06
-1.27338e-07
-3.6356e-06
-1.98936e-07
-3.56879e-06
-1.94282e-07
-3.48099e-06
-2.61664e-07
-3.30453e-06
-5.17566e-07
-3.16414e-06
-4.08059e-07
-2.97066e-06
-5.58264e-07
-2.70578e-06
-7.562e-07
-2.35076e-06
-1.00053e-06
-1.89286e-06
-1.27409e-06
-1.33309e-06
-1.54143e-06
-6.90105e-07
-1.75758e-06
7.25774e-18
-1.8792e-06
6.90105e-07
-1.8792e-06
1.33309e-06
-1.75758e-06
1.89286e-06
-1.54143e-06
2.35076e-06
-1.27409e-06
2.70578e-06
-1.00053e-06
2.97066e-06
-7.562e-07
3.16414e-06
-5.58264e-07
3.30453e-06
-4.08059e-07
3.48099e-06
-5.17566e-07
3.56879e-06
-2.61664e-07
3.6356e-06
-1.94282e-07
3.70776e-06
-1.98936e-07
3.75048e-06
-1.27338e-07
3.79371e-06
-1.27068e-07
3.85378e-06
-1.66063e-07
3.89078e-06
-1.16418e-07
3.9501e-06
-1.77322e-07
4.06943e-06
-3.19789e-07
4.11559e-06
-1.52152e-07
4.17897e-06
-1.81353e-07
4.19706e-06
-7.25399e-08
4.21764e-06
-4.35813e-08
3.95051e-06
6.14705e-07
3.95914e-06
-6.64451e-08
3.76504e-06
1.35949e-07
2.29727e-06
6.56015e-07
8.67081e-08
2.42039e-06
4.57165e-07
3.23911e-06
8.45913e-07
2.75976e-06
5.2027e-07
6.46608e-07
3.90325e-07
3.46654e-07
3.07694e-07
2.30006e-07
2.46599e-07
1.69559e-07
1.97842e-07
1.34771e-07
1.56787e-07
1.132e-07
1.20766e-07
9.91679e-08
8.80989e-08
8.98541e-08
5.763e-08
8.37594e-08
2.84982e-08
8.00574e-08
7.83041e-08
-3.11369e-08
1.09441e-07
-6.29555e-08
1.11876e-07
-9.621e-08
1.17014e-07
-1.31819e-07
1.25463e-07
-1.71003e-07
1.38351e-07
-2.15515e-07
1.57712e-07
-2.68083e-07
1.8734e-07
-3.3333e-07
2.34805e-07
-4.20097e-07
3.16774e-07
-5.50019e-07
4.76575e-07
-7.8251e-07
8.791e-07
-4.68468e-07
2.44571e-06
-1.15253e-07
2.8859e-06
2.85869e-08
2.27655e-06
-3.49707e-07
1.03431e-06
-3.63373e-06
3.41997e-06
-4.01926e-06
3.19084e-07
-4.51181e-06
1.10725e-06
-4.48829e-06
-6.70985e-08
-4.49303e-06
-6.78047e-08
-4.42557e-06
-2.48812e-07
-4.39573e-06
-1.81996e-07
-4.24991e-06
-4.65605e-07
-4.19456e-06
-2.32676e-07
-4.16446e-06
-1.46508e-07
-4.09522e-06
-2.35306e-07
-4.05261e-06
-1.6968e-07
-4.01246e-06
-1.67485e-07
-3.9301e-06
-2.81299e-07
-3.86354e-06
-2.60844e-07
-3.78207e-06
-3.43129e-07
-3.61204e-06
-6.87597e-07
-3.47439e-06
-5.45716e-07
-3.28168e-06
-7.50967e-07
-3.01122e-06
-1.02666e-06
-2.6373e-06
-1.37445e-06
-2.13983e-06
-1.77156e-06
-1.51664e-06
-2.16462e-06
-7.88458e-07
-2.48576e-06
2.02135e-17
-2.66766e-06
7.88458e-07
-2.66766e-06
1.51664e-06
-2.48576e-06
2.13983e-06
-2.16462e-06
2.6373e-06
-1.77156e-06
3.01122e-06
-1.37445e-06
3.28168e-06
-1.02666e-06
3.47439e-06
-7.50967e-07
3.61204e-06
-5.45716e-07
3.78207e-06
-6.87597e-07
3.86354e-06
-3.43129e-07
3.9301e-06
-2.60844e-07
4.01246e-06
-2.81299e-07
4.05261e-06
-1.67485e-07
4.09522e-06
-1.6968e-07
4.16446e-06
-2.35306e-07
4.19456e-06
-1.46508e-07
4.24991e-06
-2.32676e-07
4.39573e-06
-4.65605e-07
4.42557e-06
-1.81996e-07
4.49303e-06
-2.48812e-07
4.48829e-06
-6.78047e-08
4.51181e-06
-6.70985e-08
4.01926e-06
1.10725e-06
3.63373e-06
3.19084e-07
3.49707e-07
3.41997e-06
-2.85869e-08
1.03431e-06
1.15253e-07
2.27655e-06
4.68468e-07
2.8859e-06
7.8251e-07
2.44571e-06
5.50019e-07
8.791e-07
4.20097e-07
4.76575e-07
3.3333e-07
3.16774e-07
2.68083e-07
2.34805e-07
2.15515e-07
1.8734e-07
1.71003e-07
1.57712e-07
1.31819e-07
1.38351e-07
9.621e-08
1.25463e-07
6.29555e-08
1.17014e-07
3.11369e-08
1.11876e-07
1.09441e-07
-3.39503e-08
1.43391e-07
-6.86261e-08
1.46552e-07
-1.04827e-07
1.53214e-07
-1.43516e-07
1.64153e-07
-1.85958e-07
1.80793e-07
-2.33931e-07
2.05685e-07
-2.90114e-07
2.43523e-07
-3.58824e-07
3.03515e-07
-4.47554e-07
4.05503e-07
-5.69976e-07
5.98997e-07
-7.28679e-07
1.0378e-06
-4.77413e-07
2.19445e-06
-1.76821e-07
2.58531e-06
-7.14087e-08
2.17114e-06
-4.80413e-07
1.44331e-06
1.43287e-07
2.79627e-06
-5.02579e-07
9.6495e-07
-4.26244e-06
4.86712e-06
-4.61132e-06
2.81786e-07
-4.78009e-06
1.00963e-07
-4.73445e-06
-2.94452e-07
-4.75239e-06
-1.6406e-07
-4.56321e-06
-6.5478e-07
-4.52205e-06
-2.73842e-07
-4.50806e-06
-1.60499e-07
-4.42314e-06
-3.20224e-07
-4.38427e-06
-2.08545e-07
-4.35188e-06
-1.99877e-07
-4.2527e-06
-3.80485e-07
-4.18996e-06
-3.23581e-07
-4.12397e-06
-4.09114e-07
-3.97343e-06
-8.38141e-07
-3.84842e-06
-6.70731e-07
-3.66909e-06
-9.30293e-07
-3.40619e-06
-1.28956e-06
-3.02171e-06
-1.75893e-06
-2.4812e-06
-2.31207e-06
-1.77631e-06
-2.86952e-06
-9.29641e-07
-3.33242e-06
1.06966e-18
-3.5973e-06
9.29641e-07
-3.5973e-06
1.77631e-06
-3.33242e-06
2.4812e-06
-2.86952e-06
3.02171e-06
-2.31207e-06
3.40619e-06
-1.75893e-06
3.66909e-06
-1.28956e-06
3.84842e-06
-9.30293e-07
3.97343e-06
-6.70731e-07
4.12397e-06
-8.38141e-07
4.18996e-06
-4.09114e-07
4.2527e-06
-3.23581e-07
4.35188e-06
-3.80485e-07
4.38427e-06
-1.99877e-07
4.42314e-06
-2.08545e-07
4.50806e-06
-3.20224e-07
4.52205e-06
-1.60499e-07
4.56321e-06
-2.73842e-07
4.75239e-06
-6.5478e-07
4.73445e-06
-1.6406e-07
4.78009e-06
-2.94452e-07
4.61132e-06
1.00963e-07
4.26244e-06
2.81786e-07
5.02579e-07
4.86712e-06
-1.43287e-07
9.6495e-07
4.80413e-07
2.79627e-06
7.14087e-08
1.44331e-06
1.76821e-07
2.17114e-06
4.77413e-07
2.58531e-06
7.28679e-07
2.19445e-06
5.69976e-07
1.0378e-06
4.47554e-07
5.98997e-07
3.58824e-07
4.05503e-07
2.90114e-07
3.03515e-07
2.33931e-07
2.43523e-07
1.85958e-07
2.05685e-07
1.43516e-07
1.80793e-07
1.04827e-07
1.64153e-07
6.86261e-08
1.53214e-07
3.39503e-08
1.46552e-07
1.43391e-07
-3.69231e-08
1.80314e-07
-7.46077e-08
1.84236e-07
-1.13888e-07
1.92494e-07
-1.55756e-07
2.06022e-07
-2.01487e-07
2.26524e-07
-2.52816e-07
2.57014e-07
-3.12234e-07
3.02941e-07
-3.83417e-07
3.74699e-07
-4.71632e-07
4.93718e-07
-5.81493e-07
7.08859e-07
-6.84123e-07
1.14043e-06
-4.8474e-07
1.99507e-06
-2.35159e-07
2.33573e-06
-1.50756e-07
2.08674e-06
-3.92282e-07
1.68484e-06
-2.50847e-08
2.42908e-06
-6.3347e-07
1.57334e-06
5.14691e-07
3.71895e-06
-4.35643e-07
1.23212e-06
-4.06699e-06
3.73231e-06
-4.75733e-06
3.95895e-07
-5.06133e-06
1.39935e-07
-4.84409e-06
-8.72019e-07
-4.85642e-06
-2.61514e-07
-4.88257e-06
-1.34351e-07
-4.77123e-06
-4.31557e-07
-4.7439e-06
-2.35878e-07
-4.73043e-06
-2.13345e-07
-4.60112e-06
-5.09796e-07
-4.54855e-06
-3.76154e-07
-4.51194e-06
-4.45718e-07
-4.39874e-06
-9.51344e-07
-4.30152e-06
-7.67952e-07
-4.15718e-06
-1.07463e-06
-3.92743e-06
-1.51932e-06
-3.55266e-06
-2.13369e-06
-2.96897e-06
-2.89576e-06
-2.15756e-06
-3.68093e-06
-1.14048e-06
-4.3495e-06
-4.01463e-17
-4.73777e-06
1.14048e-06
-4.73777e-06
2.15756e-06
-4.3495e-06
2.96897e-06
-3.68093e-06
3.55266e-06
-2.89576e-06
3.92743e-06
-2.13369e-06
4.15718e-06
-1.51932e-06
4.30152e-06
-1.07463e-06
4.39874e-06
-7.67952e-07
4.51194e-06
-9.51344e-07
4.54855e-06
-4.45718e-07
4.60112e-06
-3.76154e-07
4.73043e-06
-5.09796e-07
4.7439e-06
-2.13345e-07
4.77123e-06
-2.35878e-07
4.88257e-06
-4.31557e-07
4.85642e-06
-1.34351e-07
4.84409e-06
-2.61514e-07
5.06133e-06
-8.72019e-07
4.75733e-06
1.39935e-07
4.06699e-06
3.95895e-07
4.35643e-07
3.73231e-06
-5.14691e-07
1.23212e-06
6.3347e-07
3.71895e-06
2.50847e-08
1.57334e-06
3.92282e-07
2.42908e-06
1.50756e-07
1.68484e-06
2.35159e-07
2.08674e-06
4.8474e-07
2.33573e-06
6.84123e-07
1.99507e-06
5.81493e-07
1.14043e-06
4.71632e-07
7.08859e-07
3.83417e-07
4.93718e-07
3.12234e-07
3.74699e-07
2.52816e-07
3.02941e-07
2.01487e-07
2.57014e-07
1.55756e-07
2.26524e-07
1.13888e-07
2.06022e-07
7.46077e-08
1.92494e-07
3.69231e-08
1.84236e-07
1.80314e-07
-4.00286e-08
2.20343e-07
-8.08429e-08
2.25051e-07
-1.23295e-07
2.34947e-07
-1.68383e-07
2.51109e-07
-2.17345e-07
2.75486e-07
-2.71796e-07
3.11465e-07
-3.33875e-07
3.6502e-07
-4.06292e-07
4.47116e-07
-4.9154e-07
5.78966e-07
-5.86126e-07
8.03445e-07
-6.48043e-07
1.20235e-06
-4.90889e-07
1.83791e-06
-2.87739e-07
2.13258e-06
-2.1347e-07
2.01247e-06
-3.41161e-07
1.81253e-06
-1.29967e-07
2.21788e-06
-4.37921e-07
1.88129e-06
2.6679e-07
3.01424e-06
-2.58423e-07
1.75733e-06
5.49e-07
2.92488e-06
-2.11356e-07
1.15625e-06
-2.40549e-06
2.33407e-06
-4.54209e-06
1.26458e-06
-5.00307e-06
1.99469e-07
-5.23135e-06
9.39224e-08
-5.10409e-06
-5.58813e-07
-5.1183e-06
-2.21666e-07
-5.15315e-06
-1.785e-07
-4.96736e-06
-6.95579e-07
-4.93794e-06
-4.05581e-07
-4.95213e-06
-4.31525e-07
-4.89805e-06
-1.00542e-06
-4.84983e-06
-8.16176e-07
-4.77673e-06
-1.14773e-06
-4.63007e-06
-1.66599e-06
-4.31289e-06
-2.45087e-06
-3.69394e-06
-3.51471e-06
-2.74374e-06
-4.63113e-06
-1.47141e-06
-5.62184e-06
-4.31727e-17
-6.20918e-06
1.47141e-06
-6.20918e-06
2.74374e-06
-5.62184e-06
3.69394e-06
-4.63113e-06
4.31289e-06
-3.51471e-06
4.63007e-06
-2.45087e-06
4.77673e-06
-1.66599e-06
4.84983e-06
-1.14773e-06
4.89805e-06
-8.16176e-07
4.95213e-06
-1.00542e-06
4.93794e-06
-4.31525e-07
4.96736e-06
-4.05581e-07
5.15315e-06
-6.95579e-07
5.1183e-06
-1.785e-07
5.10409e-06
-2.21666e-07
5.23135e-06
-5.58813e-07
5.00307e-06
9.39224e-08
4.54209e-06
1.99469e-07
2.40549e-06
1.26458e-06
2.11356e-07
2.33407e-06
-5.49e-07
1.15625e-06
2.58423e-07
2.92488e-06
-2.6679e-07
1.75733e-06
4.37921e-07
3.01424e-06
1.29967e-07
1.88129e-06
3.41161e-07
2.21788e-06
2.1347e-07
1.81253e-06
2.87739e-07
2.01247e-06
4.90889e-07
2.13258e-06
6.48043e-07
1.83791e-06
5.86126e-07
1.20235e-06
4.9154e-07
8.03445e-07
4.06292e-07
5.78966e-07
3.33875e-07
4.47116e-07
2.71796e-07
3.6502e-07
2.17345e-07
3.11465e-07
1.68383e-07
2.75486e-07
1.23295e-07
2.51109e-07
8.08429e-08
2.34947e-07
4.00286e-08
2.25051e-07
2.20343e-07
-4.32263e-08
2.63569e-07
-8.72451e-08
2.69069e-07
-1.32906e-07
2.80608e-07
-1.81175e-07
2.99379e-07
-2.33207e-07
3.27518e-07
-2.90399e-07
3.68657e-07
-3.54378e-07
4.28999e-07
-4.26641e-07
5.19378e-07
-5.06801e-07
6.59126e-07
-5.85423e-07
8.82067e-07
-6.19248e-07
1.23617e-06
-4.95978e-07
1.71464e-06
-3.32899e-07
1.9695e-06
-2.62936e-07
1.9425e-06
-3.15811e-07
1.86541e-06
-1.91031e-07
2.0931e-06
-3.17141e-07
2.0074e-06
1.11586e-07
2.58552e-06
-1.1528e-07
1.9842e-06
3.47416e-07
2.46219e-06
-3.37571e-08
1.53742e-06
2.899e-07
2.01041e-06
1.67144e-07
1.38734e-06
-5.74977e-07
9.41591e-07
-3.81802e-06
3.33697e-06
-4.92079e-06
5.43955e-07
-5.30238e-06
1.59923e-07
-5.56813e-06
8.72553e-08
-5.30565e-06
-9.5806e-07
-5.34279e-06
-3.68445e-07
-5.44724e-06
-3.27078e-07
-5.47527e-06
-9.77381e-07
-5.5001e-06
-7.91346e-07
-5.55733e-06
-1.0905e-06
-5.59256e-06
-1.63076e-06
-5.45172e-06
-2.59171e-06
-4.81892e-06
-4.14751e-06
-3.69728e-06
-5.75277e-06
-2.02377e-06
-7.29535e-06
-8.42314e-18
-8.23295e-06
2.02377e-06
-8.23295e-06
3.69728e-06
-7.29535e-06
4.81892e-06
-5.75277e-06
5.45172e-06
-4.14751e-06
5.59256e-06
-2.59171e-06
5.55733e-06
-1.63076e-06
5.5001e-06
-1.0905e-06
5.47527e-06
-7.91346e-07
5.44724e-06
-9.77381e-07
5.34279e-06
-3.27078e-07
5.30565e-06
-3.68445e-07
5.56813e-06
-9.5806e-07
5.30238e-06
8.72553e-08
4.92079e-06
1.59923e-07
3.81802e-06
5.43955e-07
5.74977e-07
3.33697e-06
-1.67144e-07
9.41591e-07
-2.899e-07
1.38734e-06
3.37571e-08
2.01041e-06
-3.47416e-07
1.53742e-06
1.1528e-07
2.46219e-06
-1.11586e-07
1.9842e-06
3.17141e-07
2.58552e-06
1.91031e-07
2.0074e-06
3.15811e-07
2.0931e-06
2.62936e-07
1.86541e-06
3.32899e-07
1.9425e-06
4.95978e-07
1.9695e-06
6.19248e-07
1.71464e-06
5.85423e-07
1.23617e-06
5.06801e-07
8.82067e-07
4.26641e-07
6.59126e-07
3.54378e-07
5.19378e-07
2.90399e-07
4.28999e-07
2.33207e-07
3.68657e-07
1.81175e-07
3.27518e-07
1.32906e-07
2.99379e-07
8.72451e-08
2.80608e-07
4.32263e-08
2.69069e-07
2.63569e-07
-4.64587e-08
3.10028e-07
-9.36933e-08
3.16304e-07
-1.42522e-07
3.29436e-07
-1.93842e-07
3.50699e-07
-2.48659e-07
3.82335e-07
-3.08061e-07
4.28059e-07
-3.7303e-07
4.93968e-07
-4.43735e-07
5.90084e-07
-5.17242e-07
7.32632e-07
-5.80749e-07
9.45574e-07
-5.963e-07
1.25172e-06
-4.99842e-07
1.61818e-06
-3.6981e-07
1.83947e-06
-3.01754e-07
1.87445e-06
-3.06935e-07
1.87059e-06
-2.24378e-07
2.01055e-06
-2.47675e-07
2.0307e-06
1.81972e-08
2.31964e-06
-4.36183e-08
2.04601e-06
2.20817e-07
2.19775e-06
4.49308e-08
1.71331e-06
2.10007e-07
1.84533e-06
1.06091e-07
1.49125e-06
-2.90175e-07
1.33786e-06
6.1397e-07
2.43282e-06
1.37552e-07
1.02037e-06
-5.67161e-07
8.64636e-07
-3.33517e-06
2.85527e-06
-4.9322e-06
6.38971e-07
-5.4672e-06
1.66547e-07
-5.89094e-06
9.66705e-08
-6.07225e-06
-7.96072e-07
-6.19266e-06
-6.70934e-07
-6.48093e-06
-8.02232e-07
-6.89657e-06
-1.21512e-06
-7.26991e-06
-2.21837e-06
-6.63012e-06
-4.7873e-06
-5.36129e-06
-7.02159e-06
-3.01756e-06
-9.63908e-06
3.53721e-18
-1.12505e-05
3.01756e-06
-1.12505e-05
5.36129e-06
-9.63908e-06
6.63012e-06
-7.02159e-06
7.26991e-06
-4.7873e-06
6.89657e-06
-2.21837e-06
6.48093e-06
-1.21512e-06
6.19266e-06
-8.02232e-07
6.07225e-06
-6.70934e-07
5.89094e-06
-7.96072e-07
5.4672e-06
9.66705e-08
4.9322e-06
1.66547e-07
3.33517e-06
6.38971e-07
5.67161e-07
2.85527e-06
-1.37552e-07
8.64636e-07
-6.1397e-07
1.02037e-06
2.90175e-07
2.43282e-06
-1.06091e-07
1.33786e-06
-2.10007e-07
1.49125e-06
-4.49308e-08
1.84533e-06
-2.20817e-07
1.71331e-06
4.36183e-08
2.19775e-06
-1.81972e-08
2.04601e-06
2.47675e-07
2.31964e-06
2.24378e-07
2.0307e-06
3.06935e-07
2.01055e-06
3.01754e-07
1.87059e-06
3.6981e-07
1.87445e-06
4.99842e-07
1.83947e-06
5.963e-07
1.61818e-06
5.80749e-07
1.25172e-06
5.17242e-07
9.45574e-07
4.43735e-07
7.32632e-07
3.7303e-07
5.90084e-07
3.08061e-07
4.93968e-07
2.48659e-07
4.28059e-07
1.93842e-07
3.82335e-07
1.42522e-07
3.50699e-07
9.36933e-08
3.29436e-07
4.64587e-08
3.16304e-07
3.10028e-07
-4.96487e-08
3.59677e-07
-1.00028e-07
3.66683e-07
-1.51889e-07
3.81297e-07
-2.06016e-07
4.04826e-07
-2.63204e-07
4.39523e-07
-3.2415e-07
4.89004e-07
-3.89113e-07
5.5893e-07
-4.56985e-07
6.57957e-07
-5.22935e-07
7.98582e-07
-5.73162e-07
9.95801e-07
-5.77647e-07
1.25621e-06
-5.02112e-07
1.54265e-06
-3.98324e-07
1.73568e-06
-3.31776e-07
1.8079e-06
-3.07479e-07
1.84629e-06
-2.41903e-07
1.94497e-06
-2.11425e-07
2.00022e-06
-3.708e-08
2.1453e-06
-1.6211e-08
2.02514e-06
1.41213e-07
2.04033e-06
7.68021e-08
1.77772e-06
1.56531e-07
1.7656e-06
8.43876e-08
1.5634e-06
-9.00225e-08
1.51227e-06
3.78987e-07
1.96381e-06
1.18407e-07
1.28095e-06
-2.32313e-07
1.21536e-06
5.57279e-07
2.06568e-06
2.16592e-07
9.79658e-07
-2.55067e-07
6.38205e-07
-1.20367e-06
1.04527e-06
-5.21947e-06
3.21973e-06
-5.97709e-06
8.66896e-08
-6.84058e-06
6.12527e-08
-8.10307e-06
4.73706e-08
-1.03339e-05
1.24678e-08
-9.4069e-06
-5.71431e-06
-8.5236e-06
-7.9049e-06
-4.961e-06
-1.32017e-05
4.0495e-17
-1.62115e-05
4.961e-06
-1.62115e-05
8.5236e-06
-1.32017e-05
9.4069e-06
-7.9049e-06
1.03339e-05
-5.71431e-06
8.10307e-06
1.24678e-08
6.84058e-06
4.73706e-08
5.97709e-06
6.12527e-08
5.21947e-06
8.66896e-08
1.20367e-06
3.21973e-06
2.55067e-07
1.04527e-06
-2.16592e-07
6.38205e-07
-5.57279e-07
9.79658e-07
2.32313e-07
2.06568e-06
-1.18407e-07
1.21536e-06
-3.78987e-07
1.28095e-06
9.00225e-08
1.96381e-06
-8.43876e-08
1.51227e-06
-1.56531e-07
1.5634e-06
-7.68021e-08
1.7656e-06
-1.41213e-07
1.77772e-06
1.6211e-08
2.04033e-06
3.708e-08
2.02514e-06
2.11425e-07
2.1453e-06
2.41903e-07
2.00022e-06
3.07479e-07
1.94497e-06
3.31776e-07
1.84629e-06
3.98324e-07
1.8079e-06
5.02112e-07
1.73568e-06
5.77647e-07
1.54265e-06
5.73162e-07
1.25621e-06
5.22935e-07
9.95801e-07
4.56985e-07
7.98582e-07
3.89113e-07
6.57957e-07
3.2415e-07
5.5893e-07
2.63204e-07
4.89004e-07
2.06016e-07
4.39523e-07
1.51889e-07
4.04826e-07
1.00028e-07
3.81297e-07
4.96487e-08
3.66683e-07
3.59677e-07
-5.26989e-08
4.12376e-07
-1.06048e-07
4.20032e-07
-1.60695e-07
4.35944e-07
-2.17263e-07
4.61394e-07
-2.7628e-07
4.98541e-07
-3.38e-07
5.50724e-07
-4.01955e-07
6.22885e-07
-4.65968e-07
7.21969e-07
-5.2411e-07
8.56724e-07
-5.63354e-07
1.03505e-06
-5.61745e-07
1.2546e-06
-5.02323e-07
1.48323e-06
-4.18781e-07
1.65214e-06
-3.54272e-07
1.74339e-06
-3.12505e-07
1.80452e-06
-2.51469e-07
1.88393e-06
-1.95513e-07
1.94426e-06
-7.08019e-08
2.02059e-06
-1.39728e-08
1.96832e-06
8.90307e-08
1.93733e-06
8.12e-08
1.78555e-06
1.20978e-07
1.72583e-06
7.97366e-08
1.60464e-06
1.44971e-08
1.57751e-06
2.44439e-07
1.73387e-06
1.13422e-07
1.41197e-06
-4.15678e-08
1.37035e-06
3.38892e-07
1.68522e-06
1.51935e-07
1.16661e-06
-1.78133e-07
9.68273e-07
-4.16171e-07
1.28331e-06
6.24757e-07
2.17881e-06
2.00385e-07
5.11061e-07
-1.98412e-07
4.6005e-07
-7.61126e-07
6.10085e-07
-1.56742e-06
8.18757e-07
-7.44724e-06
1.65514e-07
-1.42406e-05
-1.11156e-06
-8.71251e-06
-1.87297e-05
5.04776e-17
-2.4924e-05
8.71251e-06
-2.4924e-05
1.42406e-05
-1.87297e-05
7.44724e-06
-1.11156e-06
1.56742e-06
1.65514e-07
7.61126e-07
8.18757e-07
1.98412e-07
6.10085e-07
-2.00385e-07
4.6005e-07
-6.24757e-07
5.11061e-07
4.16171e-07
2.17881e-06
1.78133e-07
1.28331e-06
-1.51935e-07
9.68273e-07
-3.38892e-07
1.16661e-06
4.15678e-08
1.68522e-06
-1.13422e-07
1.37035e-06
-2.44439e-07
1.41197e-06
-1.44971e-08
1.73387e-06
-7.97366e-08
1.57751e-06
-1.20978e-07
1.60464e-06
-8.12e-08
1.72583e-06
-8.90307e-08
1.78555e-06
1.39728e-08
1.93733e-06
7.08019e-08
1.96832e-06
1.95513e-07
2.02059e-06
2.51469e-07
1.94426e-06
3.12505e-07
1.88393e-06
3.54272e-07
1.80452e-06
4.18781e-07
1.74339e-06
5.02323e-07
1.65214e-06
5.61745e-07
1.48323e-06
5.63354e-07
1.2546e-06
5.2411e-07
1.03505e-06
4.65968e-07
8.56724e-07
4.01955e-07
7.21969e-07
3.38e-07
6.22885e-07
2.7628e-07
5.50724e-07
2.17263e-07
4.98541e-07
1.60695e-07
4.61394e-07
1.06048e-07
4.35944e-07
5.26989e-08
4.20032e-07
4.12376e-07
-5.54916e-08
4.67867e-07
-1.11516e-07
4.76057e-07
-1.68576e-07
4.93004e-07
-2.27092e-07
5.1991e-07
-2.87288e-07
5.58737e-07
-3.48957e-07
6.12393e-07
-4.10982e-07
6.8491e-07
-4.70431e-07
7.81418e-07
-5.2106e-07
9.07354e-07
-5.51664e-07
1.06565e-06
-5.47162e-07
1.2501e-06
-5.00003e-07
1.43607e-06
-4.31799e-07
1.58393e-06
-3.70132e-07
1.68172e-06
-3.18806e-07
1.7532e-06
-2.57617e-07
1.82274e-06
-1.91418e-07
1.87806e-06
-9.34271e-08
1.9226e-06
-2.46751e-08
1.89956e-06
5.18626e-08
1.86079e-06
7.10438e-08
1.76637e-06
9.61311e-08
1.70074e-06
7.92719e-08
1.6215e-06
6.30737e-08
1.59371e-06
1.70993e-07
1.62595e-06
1.11847e-07
1.47112e-06
4.94002e-08
1.43279e-06
2.15249e-07
1.51937e-06
1.06809e-07
1.27505e-06
-1.00338e-07
1.17542e-06
-1.86305e-07
1.36927e-06
2.55446e-07
1.73705e-06
1.41878e-07
6.2463e-07
1.15273e-08
5.904e-07
8.37861e-09
6.13233e-07
1.96133e-07
6.31003e-07
-1.7706e-07
5.38707e-07
-1.06553e-06
-2.23099e-07
-5.73356e-06
-1.40617e-05
-3.74424e-17
-3.06576e-05
5.73356e-06
-3.06576e-05
1.06553e-06
-1.40617e-05
1.7706e-07
-2.23099e-07
-1.96133e-07
5.38707e-07
-8.37861e-09
6.31003e-07
-1.15273e-08
6.13233e-07
-1.41878e-07
5.904e-07
-2.55446e-07
6.2463e-07
1.86305e-07
1.73705e-06
1.00338e-07
1.36927e-06
-1.06809e-07
1.17542e-06
-2.15249e-07
1.27505e-06
-4.94002e-08
1.51937e-06
-1.11847e-07
1.43279e-06
-1.70993e-07
1.47112e-06
-6.30737e-08
1.62595e-06
-7.92719e-08
1.59371e-06
-9.61311e-08
1.6215e-06
-7.10438e-08
1.70074e-06
-5.18626e-08
1.76637e-06
2.46751e-08
1.86079e-06
9.34271e-08
1.89956e-06
1.91418e-07
1.9226e-06
2.57617e-07
1.87806e-06
3.18806e-07
1.82274e-06
3.70132e-07
1.7532e-06
4.31799e-07
1.68172e-06
5.00003e-07
1.58393e-06
5.47162e-07
1.43607e-06
5.51664e-07
1.2501e-06
5.2106e-07
1.06565e-06
4.70431e-07
9.07354e-07
4.10982e-07
7.81418e-07
3.48957e-07
6.8491e-07
2.87288e-07
6.12393e-07
2.27092e-07
5.58737e-07
1.68576e-07
5.1991e-07
1.11516e-07
4.93004e-07
5.54916e-08
4.76057e-07
4.67867e-07
-5.78922e-08
5.25759e-07
-1.16163e-07
5.34327e-07
-1.75133e-07
5.51975e-07
-2.34988e-07
5.79765e-07
-2.95631e-07
6.1938e-07
-3.56426e-07
6.73188e-07
-4.15749e-07
7.44233e-07
-4.70273e-07
8.35942e-07
-5.1406e-07
9.51141e-07
-5.38134e-07
1.08972e-06
-5.32645e-07
1.24461e-06
-4.9475e-07
1.39817e-06
-4.38116e-07
1.5273e-06
-3.80029e-07
1.62363e-06
-3.24433e-07
1.6976e-06
-2.62483e-07
1.76079e-06
-1.93789e-07
1.80937e-06
-1.10833e-07
1.83964e-06
-4.11376e-08
1.82987e-06
2.26165e-08
1.79703e-06
5.41025e-08
1.73488e-06
7.6679e-08
1.67816e-06
7.68606e-08
1.62132e-06
8.0884e-08
1.58968e-06
1.31354e-07
1.57548e-06
1.08768e-07
1.4937e-06
8.56048e-08
1.45596e-06
1.47419e-07
1.45755e-06
8.09903e-08
1.34148e-06
-3.96972e-08
1.29611e-06
-7.08618e-08
1.40044e-06
1.13522e-07
1.55267e-06
9.27226e-08
6.45429e-07
5.45967e-08
6.28526e-07
4.18395e-08
6.25991e-07
4.7547e-08
6.25296e-07
-3.02232e-08
6.16477e-07
-7.14756e-08
-1.81846e-07
-8.43769e-07
-1.32894e-05
3.64452e-17
-3.15013e-05
8.43769e-07
-3.15013e-05
7.14756e-08
-1.32894e-05
3.02232e-08
-1.81846e-07
-4.7547e-08
6.16477e-07
-4.18395e-08
6.25296e-07
-5.45967e-08
6.25991e-07
-9.27226e-08
6.28526e-07
-1.13522e-07
6.45429e-07
7.08618e-08
1.55267e-06
3.96972e-08
1.40044e-06
-8.09903e-08
1.29611e-06
-1.47419e-07
1.34148e-06
-8.56048e-08
1.45755e-06
-1.08768e-07
1.45596e-06
-1.31354e-07
1.4937e-06
-8.0884e-08
1.57548e-06
-7.68606e-08
1.58968e-06
-7.6679e-08
1.62132e-06
-5.41025e-08
1.67816e-06
-2.26165e-08
1.73488e-06
4.11376e-08
1.79703e-06
1.10833e-07
1.82987e-06
1.93789e-07
1.83964e-06
2.62483e-07
1.80937e-06
3.24433e-07
1.76079e-06
3.80029e-07
1.6976e-06
4.38116e-07
1.62363e-06
4.9475e-07
1.5273e-06
5.32645e-07
1.39817e-06
5.38134e-07
1.24461e-06
5.1406e-07
1.08972e-06
4.70273e-07
9.51141e-07
4.15749e-07
8.35942e-07
3.56426e-07
7.44233e-07
2.95631e-07
6.73188e-07
2.34988e-07
6.1938e-07
1.75133e-07
5.79765e-07
1.16163e-07
5.51975e-07
5.78922e-08
5.34327e-07
5.25759e-07
-5.97568e-08
5.85516e-07
-1.19705e-07
5.94275e-07
-1.79957e-07
6.12227e-07
-2.40445e-07
6.40253e-07
-3.00762e-07
6.79697e-07
-3.59917e-07
7.32343e-07
-4.15961e-07
8.00278e-07
-4.65509e-07
8.8549e-07
-5.03326e-07
9.88958e-07
-5.22611e-07
1.10901e-06
-5.17169e-07
1.23917e-06
-4.86276e-07
1.36728e-06
-4.38474e-07
1.4795e-06
-3.8453e-07
1.56969e-06
-3.28254e-07
1.64132e-06
-2.66688e-07
1.69923e-06
-1.99336e-07
1.74202e-06
-1.25831e-07
1.76614e-06
-5.94571e-08
1.76349e-06
-2.32965e-09
1.73991e-06
3.45749e-08
1.69798e-06
5.92826e-08
1.65345e-06
7.04904e-08
1.61011e-06
8.25153e-08
1.57766e-06
1.08365e-07
1.54963e-06
1.02818e-07
1.49925e-06
9.45911e-08
1.46418e-06
1.11014e-07
1.44113e-06
6.90205e-08
1.38348e-06
2.01184e-09
1.36312e-06
-1.12545e-08
1.4137e-06
6.37835e-08
1.47763e-06
6.43371e-08
6.44876e-07
5.42789e-08
6.38584e-07
4.43542e-08
6.35915e-07
3.35188e-08
6.36131e-07
1.06982e-08
6.39298e-07
-5.26178e-09
-1.65886e-07
-3.22908e-07
-1.29718e-05
-1.67978e-17
-3.18243e-05
3.22908e-07
-3.18243e-05
5.26178e-09
-1.29718e-05
-1.06982e-08
-1.65886e-07
-3.35188e-08
6.39298e-07
-4.43542e-08
6.36131e-07
-5.42789e-08
6.35915e-07
-6.43371e-08
6.38584e-07
-6.37835e-08
6.44876e-07
1.12545e-08
1.47763e-06
-2.01184e-09
1.4137e-06
-6.90205e-08
1.36312e-06
-1.11014e-07
1.38348e-06
-9.45911e-08
1.44113e-06
-1.02818e-07
1.46418e-06
-1.08365e-07
1.49925e-06
-8.25153e-08
1.54963e-06
-7.04904e-08
1.57766e-06
-5.92826e-08
1.61011e-06
-3.45749e-08
1.65345e-06
2.32965e-09
1.69798e-06
5.94571e-08
1.73991e-06
1.25831e-07
1.76349e-06
1.99336e-07
1.76614e-06
2.66688e-07
1.74202e-06
3.28254e-07
1.69923e-06
3.8453e-07
1.64132e-06
4.38474e-07
1.56969e-06
4.86276e-07
1.4795e-06
5.17169e-07
1.36728e-06
5.22611e-07
1.23917e-06
5.03326e-07
1.10901e-06
4.65509e-07
9.88958e-07
4.15961e-07
8.8549e-07
3.59917e-07
8.00278e-07
3.00762e-07
7.32343e-07
2.40445e-07
6.79697e-07
1.79957e-07
6.40253e-07
1.19705e-07
6.12227e-07
5.97568e-08
5.94275e-07
5.85516e-07
-6.0942e-08
6.46458e-07
-1.21866e-07
6.55199e-07
-1.8266e-07
6.73021e-07
-2.43007e-07
7.006e-07
-3.0223e-07
7.3892e-07
-3.59081e-07
7.89195e-07
-4.11478e-07
8.52674e-07
-4.56233e-07
9.30245e-07
-4.89002e-07
1.02173e-06
-5.04843e-07
1.12485e-06
-4.99951e-07
1.23428e-06
-4.74416e-07
1.34175e-06
-4.33553e-07
1.43863e-06
-3.84134e-07
1.52027e-06
-3.29621e-07
1.58681e-06
-2.70035e-07
1.63964e-06
-2.05969e-07
1.67795e-06
-1.39402e-07
1.69957e-06
-7.76043e-08
1.7017e-06
-2.45779e-08
1.68688e-06
1.45351e-08
1.65887e-06
4.22538e-08
1.62574e-06
6.027e-08
1.59209e-06
7.5784e-08
1.56214e-06
9.23927e-08
1.53302e-06
9.4354e-08
1.49729e-06
9.16413e-08
1.46689e-06
9.14801e-08
1.44129e-06
6.50089e-08
1.40995e-06
2.87785e-08
1.39935e-06
2.12354e-08
1.42125e-06
5.05683e-08
1.4483e-06
5.38361e-08
6.41608e-07
5.24376e-08
6.39983e-07
4.92223e-08
6.39131e-07
4.59388e-08
6.39415e-07
4.46033e-08
6.40633e-07
2.70799e-08
-1.48363e-07
-2.17804e-07
-1.27269e-05
8.66536e-18
-3.20421e-05
2.17804e-07
-3.20421e-05
-2.70799e-08
-1.27269e-05
-4.46033e-08
-1.48363e-07
-4.59388e-08
6.40633e-07
-4.92223e-08
6.39415e-07
-5.24376e-08
6.39131e-07
-5.38361e-08
6.39983e-07
-5.05683e-08
6.41608e-07
-2.12354e-08
1.4483e-06
-2.87785e-08
1.42125e-06
-6.50089e-08
1.39935e-06
-9.14801e-08
1.40995e-06
-9.16413e-08
1.44129e-06
-9.4354e-08
1.46689e-06
-9.23927e-08
1.49729e-06
-7.5784e-08
1.53302e-06
-6.027e-08
1.56214e-06
-4.22538e-08
1.59209e-06
-1.45351e-08
1.62574e-06
2.45779e-08
1.65887e-06
7.76043e-08
1.68688e-06
1.39402e-07
1.7017e-06
2.05969e-07
1.69957e-06
2.70035e-07
1.67795e-06
3.29621e-07
1.63964e-06
3.84134e-07
1.58681e-06
4.33553e-07
1.52027e-06
4.74416e-07
1.43863e-06
4.99951e-07
1.34175e-06
5.04843e-07
1.23428e-06
4.89002e-07
1.12485e-06
4.56233e-07
1.02173e-06
4.11478e-07
9.30245e-07
3.59081e-07
8.52674e-07
3.0223e-07
7.89195e-07
2.43007e-07
7.3892e-07
1.8266e-07
7.006e-07
1.21866e-07
6.73021e-07
6.0942e-08
6.55199e-07
6.46458e-07
-6.13194e-08