/*--------------------------------*- C++ -*----------------------------------*\
  =========                 |
  \\      /  F ield         | OpenFOAM: The Open Source CFD Toolbox
   \\    /   O peration     | Website:  https://openfoam.org
    \\  /    A nd           | Version:  10
     \\/     M anipulation  |
\*---------------------------------------------------------------------------*/
FoamFile
{
    format      ascii;
    class       volVectorField;
    location    "16500";
    object      Ub;
}
// * * * * * * * * * * * * * * * * * * * * * * * * * * * * * * * * * * * * * //

dimensions      [0 1 -1 0 0 0 0];

internalField   nonuniform List<vector> 
6400
(
(-7.40475e-21 -9.87899e-16 0)
(-2.23811e-20 -9.87899e-16 0)
(-3.78765e-20 -9.87899e-16 0)
(-5.43052e-20 -9.87899e-16 0)
(-7.22037e-20 -9.87899e-16 0)
(-9.23345e-20 -9.87899e-16 0)
(-1.15882e-19 -9.87898e-16 0)
(-1.44865e-19 -9.87897e-16 0)
(-1.82989e-19 -9.87896e-16 0)
(-6.82926e-18 -9.87895e-16 0)
(-2.37566e-06 -2.54017e-14 0)
(-7.49373e-05 -7.40904e-05 0)
(-0.000145128 -7.52543e-07 0)
(-0.000142998 -6.70202e-07 0)
(-0.000133586 -1.60937e-06 0)
(-0.000125437 -2.63688e-07 0)
(-0.000124019 -1.75925e-07 0)
(-0.000126198 5.03682e-07 0)
(-0.00012873 -8.12349e-08 0)
(-0.000128026 -1.38814e-07 0)
(-0.000126498 -2.37696e-07 0)
(-0.000124536 -2.18633e-07 0)
(-0.000121909 -3.66594e-07 0)
(-0.000119201 -2.29981e-07 0)
(-0.000117479 -1.62124e-07 0)
(-0.000115881 -2.01499e-07 0)
(-0.000114258 -1.64444e-07 0)
(-0.000112803 -1.65051e-07 0)
(-0.000111 -2.33146e-07 0)
(-0.000108837 -2.36571e-07 0)
(-0.000106248 -3.18127e-07 0)
(-0.000101832 -6.06911e-07 0)
(-9.66277e-05 -1.05766e-06 0)
(-9.12371e-05 -1.43339e-06 0)
(-8.39599e-05 -1.92016e-06 0)
(-7.43286e-05 -2.5097e-06 0)
(-6.19892e-05 -3.15849e-06 0)
(-4.6861e-05 -3.78495e-06 0)
(-2.92657e-05 -4.28668e-06 0)
(-9.95976e-06 -4.56724e-06 0)
(9.95976e-06 -4.56724e-06 0)
(2.92657e-05 -4.28668e-06 0)
(4.6861e-05 -3.78495e-06 0)
(6.19892e-05 -3.15849e-06 0)
(7.43286e-05 -2.5097e-06 0)
(8.39599e-05 -1.92016e-06 0)
(9.12371e-05 -1.43339e-06 0)
(9.66277e-05 -1.05766e-06 0)
(0.000101832 -6.06911e-07 0)
(0.000106248 -3.18127e-07 0)
(0.000108837 -2.36571e-07 0)
(0.000111 -2.33146e-07 0)
(0.000112803 -1.65051e-07 0)
(0.000114258 -1.64444e-07 0)
(0.000115881 -2.01499e-07 0)
(0.000117479 -1.62124e-07 0)
(0.000119201 -2.29981e-07 0)
(0.000121909 -3.66594e-07 0)
(0.000124536 -2.18633e-07 0)
(0.000126498 -2.37696e-07 0)
(0.000128026 -1.38814e-07 0)
(0.00012873 -8.12349e-08 0)
(0.000126198 5.03682e-07 0)
(0.000124019 -1.75925e-07 0)
(0.000125437 -2.63688e-07 0)
(0.000133586 -1.60937e-06 0)
(0.000142998 -6.70202e-07 0)
(0.000145128 -7.52543e-07 0)
(7.49373e-05 -7.40904e-05 0)
(2.37566e-06 -2.54017e-14 0)
(6.82926e-18 -9.87895e-16 0)
(1.82989e-19 -9.87896e-16 0)
(1.44865e-19 -9.87897e-16 0)
(1.15882e-19 -9.87898e-16 0)
(9.23345e-20 -9.87899e-16 0)
(7.22037e-20 -9.87899e-16 0)
(5.43052e-20 -9.87899e-16 0)
(3.78765e-20 -9.87899e-16 0)
(2.23811e-20 -9.87899e-16 0)
(7.40475e-21 -9.87899e-16 0)
(-7.39749e-21 -9.87894e-16 0)
(-2.23585e-20 -9.87894e-16 0)
(-3.78359e-20 -9.87894e-16 0)
(-5.42413e-20 -9.87893e-16 0)
(-7.21067e-20 -9.87893e-16 0)
(-9.21861e-20 -9.87892e-16 0)
(-1.15646e-19 -9.8789e-16 0)
(-1.44468e-19 -9.87888e-16 0)
(-1.82387e-19 -9.87885e-16 0)
(-2.38411e-19 -9.87879e-16 0)
(-4.08324e-19 -9.87886e-16 0)
(-1.19222e-08 -9.6671e-16 0)
(-6.09847e-05 -3.75437e-07 0)
(-0.000127384 -5.64845e-07 0)
(-0.000126537 -4.66107e-06 0)
(-0.000120126 -5.50949e-07 0)
(-0.000119581 -4.3343e-07 0)
(-0.000122222 1.70106e-06 0)
(-0.000125093 -1.93284e-07 0)
(-0.000124503 -3.57444e-07 0)
(-0.000123149 -6.78512e-07 0)
(-0.000121368 -6.14169e-07 0)
(-0.000118877 -1.09593e-06 0)
(-0.000116268 -6.6459e-07 0)
(-0.00011469 -4.58227e-07 0)
(-0.000113191 -5.91005e-07 0)
(-0.000111645 -4.74346e-07 0)
(-0.000110285 -4.76988e-07 0)
(-0.000108558 -6.94335e-07 0)
(-0.000106476 -6.99711e-07 0)
(-0.000104031 -9.45767e-07 0)
(-9.98451e-05 -1.82879e-06 0)
(-9.48817e-05 -3.20774e-06 0)
(-8.97104e-05 -4.36025e-06 0)
(-8.26928e-05 -5.85911e-06 0)
(-7.33444e-05 -7.68216e-06 0)
(-6.12842e-05 -9.69623e-06 0)
(-4.64061e-05 -1.16464e-05 0)
(-2.90184e-05 -1.32115e-05 0)
(-9.88239e-06 -1.40881e-05 0)
(9.88239e-06 -1.40881e-05 0)
(2.90184e-05 -1.32115e-05 0)
(4.64061e-05 -1.16464e-05 0)
(6.12842e-05 -9.69623e-06 0)
(7.33444e-05 -7.68216e-06 0)
(8.26928e-05 -5.85911e-06 0)
(8.97104e-05 -4.36025e-06 0)
(9.48817e-05 -3.20774e-06 0)
(9.98451e-05 -1.82879e-06 0)
(0.000104031 -9.45767e-07 0)
(0.000106476 -6.99711e-07 0)
(0.000108558 -6.94335e-07 0)
(0.000110285 -4.76988e-07 0)
(0.000111645 -4.74346e-07 0)
(0.000113191 -5.91005e-07 0)
(0.00011469 -4.58227e-07 0)
(0.000116268 -6.6459e-07 0)
(0.000118877 -1.09593e-06 0)
(0.000121368 -6.14169e-07 0)
(0.000123149 -6.78512e-07 0)
(0.000124503 -3.57444e-07 0)
(0.000125093 -1.93284e-07 0)
(0.000122222 1.70106e-06 0)
(0.000119581 -4.3343e-07 0)
(0.000120126 -5.50949e-07 0)
(0.000126537 -4.66107e-06 0)
(0.000127384 -5.64845e-07 0)
(6.09847e-05 -3.75437e-07 0)
(1.19222e-08 -9.6671e-16 0)
(4.08324e-19 -9.87886e-16 0)
(2.38411e-19 -9.87879e-16 0)
(1.82387e-19 -9.87885e-16 0)
(1.44468e-19 -9.87888e-16 0)
(1.15646e-19 -9.8789e-16 0)
(9.21861e-20 -9.87892e-16 0)
(7.21067e-20 -9.87893e-16 0)
(5.42413e-20 -9.87893e-16 0)
(3.78359e-20 -9.87894e-16 0)
(2.23585e-20 -9.87894e-16 0)
(7.39749e-21 -9.87894e-16 0)
(-7.38092e-21 -9.8789e-16 0)
(-2.23069e-20 -9.8789e-16 0)
(-3.77433e-20 -9.8789e-16 0)
(-5.40954e-20 -9.87889e-16 0)
(-7.18852e-20 -9.87888e-16 0)
(-9.18475e-20 -9.87887e-16 0)
(-1.15109e-19 -9.87885e-16 0)
(-1.4356e-19 -9.87881e-16 0)
(-1.80784e-19 -9.87875e-16 0)
(-2.35841e-19 -9.87863e-16 0)
(-3.53836e-19 -9.87837e-16 0)
(-3.37493e-19 -9.87524e-16 0)
(-3.1367e-12 -9.85959e-16 0)
(-3.28048e-05 -1.1926e-08 0)
(-8.74767e-05 -3.11628e-06 0)
(-0.000112209 -3.3637e-07 0)
(-0.000114959 -7.23256e-07 0)
(-0.000118732 3.22892e-06 0)
(-0.000122323 -3.84049e-07 0)
(-0.000121766 -5.71864e-07 0)
(-0.000120585 -1.16632e-06 0)
(-0.000118994 -1.00675e-06 0)
(-0.00011659 -1.92861e-06 0)
(-0.000113994 -1.12128e-06 0)
(-0.000112595 -7.61352e-07 0)
(-0.000111184 -1.02726e-06 0)
(-0.000109683 -8.05731e-07 0)
(-0.000108434 -8.05976e-07 0)
(-0.000106764 -1.20748e-06 0)
(-0.000104744 -1.19091e-06 0)
(-0.000102496 -1.59327e-06 0)
(-9.86547e-05 -3.09589e-06 0)
(-9.40482e-05 -5.4471e-06 0)
(-8.91942e-05 -7.42504e-06 0)
(-8.25301e-05 -1.00202e-05 0)
(-7.35173e-05 -1.32079e-05 0)
(-6.16983e-05 -1.67614e-05 0)
(-4.69023e-05 -2.02235e-05 0)
(-2.94153e-05 -2.3016e-05 0)
(-1.00335e-05 -2.45848e-05 0)
(1.00335e-05 -2.45848e-05 0)
(2.94153e-05 -2.3016e-05 0)
(4.69023e-05 -2.02235e-05 0)
(6.16983e-05 -1.67614e-05 0)
(7.35173e-05 -1.32079e-05 0)
(8.25301e-05 -1.00202e-05 0)
(8.91942e-05 -7.42504e-06 0)
(9.40482e-05 -5.4471e-06 0)
(9.86547e-05 -3.09589e-06 0)
(0.000102496 -1.59327e-06 0)
(0.000104744 -1.19091e-06 0)
(0.000106764 -1.20748e-06 0)
(0.000108434 -8.05976e-07 0)
(0.000109683 -8.05731e-07 0)
(0.000111184 -1.02726e-06 0)
(0.000112595 -7.61352e-07 0)
(0.000113994 -1.12128e-06 0)
(0.00011659 -1.92861e-06 0)
(0.000118994 -1.00675e-06 0)
(0.000120585 -1.16632e-06 0)
(0.000121766 -5.71864e-07 0)
(0.000122323 -3.84049e-07 0)
(0.000118732 3.22892e-06 0)
(0.000114959 -7.23256e-07 0)
(0.000112209 -3.3637e-07 0)
(8.74767e-05 -3.11628e-06 0)
(3.28048e-05 -1.1926e-08 0)
(3.1367e-12 -9.85959e-16 0)
(3.37493e-19 -9.87524e-16 0)
(3.53836e-19 -9.87837e-16 0)
(2.35841e-19 -9.87863e-16 0)
(1.80784e-19 -9.87875e-16 0)
(1.4356e-19 -9.87881e-16 0)
(1.15109e-19 -9.87885e-16 0)
(9.18475e-20 -9.87887e-16 0)
(7.18852e-20 -9.87888e-16 0)
(5.40954e-20 -9.87889e-16 0)
(3.77433e-20 -9.8789e-16 0)
(2.23069e-20 -9.8789e-16 0)
(7.38092e-21 -9.8789e-16 0)
(-7.35245e-21 -9.87887e-16 0)
(-2.22183e-20 -9.87886e-16 0)
(-3.75842e-20 -9.87886e-16 0)
(-5.38452e-20 -9.87885e-16 0)
(-7.15062e-20 -9.87883e-16 0)
(-9.12694e-20 -9.87881e-16 0)
(-1.14193e-19 -9.87878e-16 0)
(-1.42013e-19 -9.87873e-16 0)
(-1.77909e-19 -9.87864e-16 0)
(-2.29076e-19 -9.87846e-16 0)
(-3.14654e-19 -9.87802e-16 0)
(-2.95397e-19 -9.87569e-16 0)
(-1.37836e-19 -9.87511e-16 0)
(-2.04647e-20 -9.87523e-16 0)
(-2.29161e-09 -7.76636e-16 0)
(-4.78545e-05 -5.8124e-09 0)
(-0.000101077 -4.33668e-07 0)
(-0.000113006 5.59126e-06 0)
(-0.000119259 -6.84898e-07 0)
(-0.000119024 -7.13085e-07 0)
(-0.0001182 -1.70245e-06 0)
(-0.000116914 -1.33504e-06 0)
(-0.000114589 -2.92082e-06 0)
(-0.000111925 -1.57268e-06 0)
(-0.000110794 -1.03923e-06 0)
(-0.000109479 -1.52292e-06 0)
(-0.000107997 -1.1441e-06 0)
(-0.000106901 -1.13156e-06 0)
(-0.000105278 -1.786e-06 0)
(-0.000103305 -1.69271e-06 0)
(-0.000101343 -2.22138e-06 0)
(-9.80097e-05 -4.35299e-06 0)
(-9.39315e-05 -7.69569e-06 0)
(-8.95526e-05 -1.05383e-05 0)
(-8.34134e-05 -1.43264e-05 0)
(-7.4872e-05 -1.90626e-05 0)
(-6.33216e-05 -2.44273e-05 0)
(-4.8467e-05 -2.971e-05 0)
(-3.05544e-05 -3.40079e-05 0)
(-1.04511e-05 -3.64359e-05 0)
(1.04511e-05 -3.64359e-05 0)
(3.05544e-05 -3.40079e-05 0)
(4.8467e-05 -2.971e-05 0)
(6.33216e-05 -2.44273e-05 0)
(7.4872e-05 -1.90626e-05 0)
(8.34134e-05 -1.43264e-05 0)
(8.95526e-05 -1.05383e-05 0)
(9.39315e-05 -7.69569e-06 0)
(9.80097e-05 -4.35299e-06 0)
(0.000101343 -2.22138e-06 0)
(0.000103305 -1.69271e-06 0)
(0.000105278 -1.786e-06 0)
(0.000106901 -1.13156e-06 0)
(0.000107997 -1.1441e-06 0)
(0.000109479 -1.52292e-06 0)
(0.000110794 -1.03923e-06 0)
(0.000111925 -1.57268e-06 0)
(0.000114589 -2.92082e-06 0)
(0.000116914 -1.33504e-06 0)
(0.0001182 -1.70245e-06 0)
(0.000119024 -7.13085e-07 0)
(0.000119259 -6.84898e-07 0)
(0.000113006 5.59126e-06 0)
(0.000101077 -4.33668e-07 0)
(4.78545e-05 -5.8124e-09 0)
(2.29161e-09 -7.76636e-16 0)
(2.04647e-20 -9.87523e-16 0)
(1.37836e-19 -9.87511e-16 0)
(2.95397e-19 -9.87569e-16 0)
(3.14654e-19 -9.87802e-16 0)
(2.29076e-19 -9.87846e-16 0)
(1.77909e-19 -9.87864e-16 0)
(1.42013e-19 -9.87873e-16 0)
(1.14193e-19 -9.87878e-16 0)
(9.12694e-20 -9.87881e-16 0)
(7.15062e-20 -9.87883e-16 0)
(5.38452e-20 -9.87885e-16 0)
(3.75842e-20 -9.87886e-16 0)
(2.22183e-20 -9.87886e-16 0)
(7.35245e-21 -9.87887e-16 0)
(-7.30908e-21 -9.87882e-16 0)
(-2.20834e-20 -9.87882e-16 0)
(-3.73422e-20 -9.87881e-16 0)
(-5.34651e-20 -9.8788e-16 0)
(-7.09318e-20 -9.87878e-16 0)
(-9.0397e-20 -9.87875e-16 0)
(-1.1282e-19 -9.87871e-16 0)
(-1.39708e-19 -9.87864e-16 0)
(-1.73603e-19 -9.87853e-16 0)
(-2.19061e-19 -9.8783e-16 0)
(-2.79584e-19 -9.87777e-16 0)
(-2.59656e-19 -9.87605e-16 0)
(-1.40848e-19 -9.87552e-16 0)
(-5.34407e-20 -9.87617e-16 0)
(-1.188e-19 -9.87742e-16 0)
(-7.2579e-20 -9.8687e-16 0)
(-2.5622e-08 -7.52786e-16 0)
(-5.12366e-05 3.53443e-06 0)
(-0.000106881 -4.33674e-07 0)
(-0.000113412 -4.35825e-07 0)
(-0.000114942 -2.24773e-06 0)
(-0.000114621 -1.46959e-06 0)
(-0.000112559 -4.18142e-06 0)
(-0.00010978 -1.97359e-06 0)
(-0.000109116 -1.24604e-06 0)
(-0.000107923 -2.11567e-06 0)
(-0.000106429 -1.47452e-06 0)
(-0.000105569 -1.42716e-06 0)
(-0.00010398 -2.4667e-06 0)
(-0.000102024 -2.18572e-06 0)
(-0.000100469 -2.77729e-06 0)
(-9.7853e-05 -5.52305e-06 0)
(-9.45232e-05 -9.82621e-06 0)
(-9.08455e-05 -1.35433e-05 0)
(-8.55015e-05 -1.86216e-05 0)
(-7.76782e-05 -2.51578e-05 0)
(-6.65001e-05 -3.27588e-05 0)
(-5.145e-05 -4.03621e-05 0)
(-3.27001e-05 -4.66339e-05 0)
(-1.12343e-05 -5.02077e-05 0)
(1.12343e-05 -5.02077e-05 0)
(3.27001e-05 -4.66339e-05 0)
(5.145e-05 -4.03621e-05 0)
(6.65001e-05 -3.27588e-05 0)
(7.76782e-05 -2.51578e-05 0)
(8.55015e-05 -1.86216e-05 0)
(9.08455e-05 -1.35433e-05 0)
(9.45232e-05 -9.82621e-06 0)
(9.7853e-05 -5.52305e-06 0)
(0.000100469 -2.77729e-06 0)
(0.000102024 -2.18572e-06 0)
(0.00010398 -2.4667e-06 0)
(0.000105569 -1.42716e-06 0)
(0.000106429 -1.47452e-06 0)
(0.000107923 -2.11567e-06 0)
(0.000109116 -1.24604e-06 0)
(0.00010978 -1.97359e-06 0)
(0.000112559 -4.18142e-06 0)
(0.000114621 -1.46959e-06 0)
(0.000114942 -2.24773e-06 0)
(0.000113412 -4.35825e-07 0)
(0.000106881 -4.33674e-07 0)
(5.12366e-05 3.53443e-06 0)
(2.5622e-08 -7.52786e-16 0)
(7.2579e-20 -9.8687e-16 0)
(1.188e-19 -9.87742e-16 0)
(5.34407e-20 -9.87617e-16 0)
(1.40848e-19 -9.87552e-16 0)
(2.59656e-19 -9.87605e-16 0)
(2.79584e-19 -9.87777e-16 0)
(2.19061e-19 -9.8783e-16 0)
(1.73603e-19 -9.87853e-16 0)
(1.39708e-19 -9.87864e-16 0)
(1.1282e-19 -9.87871e-16 0)
(9.0397e-20 -9.87875e-16 0)
(7.09318e-20 -9.87878e-16 0)
(5.34651e-20 -9.8788e-16 0)
(3.73422e-20 -9.87881e-16 0)
(2.20834e-20 -9.87882e-16 0)
(7.30908e-21 -9.87882e-16 0)
(-7.24735e-21 -9.87878e-16 0)
(-2.18915e-20 -9.87878e-16 0)
(-3.69984e-20 -9.87877e-16 0)
(-5.29264e-20 -9.87875e-16 0)
(-7.01205e-20 -9.87873e-16 0)
(-8.91716e-20 -9.87869e-16 0)
(-1.10909e-19 -9.87864e-16 0)
(-1.36544e-19 -9.87856e-16 0)
(-1.67831e-19 -9.87842e-16 0)
(-2.0671e-19 -9.87816e-16 0)
(-2.48418e-19 -9.87761e-16 0)
(-2.29427e-19 -9.87633e-16 0)
(-1.41304e-19 -9.87587e-16 0)
(-7.57484e-20 -9.87629e-16 0)
(-1.06589e-19 -9.877e-16 0)
(-8.19218e-20 -9.87568e-16 0)
(-1.29263e-19 -9.87738e-16 0)
(-2.33143e-20 -9.85096e-16 0)
(-1.74109e-09 -7.40334e-16 0)
(-4.43431e-05 -5.83755e-08 0)
(-9.6679e-05 -1.25553e-06 0)
(-0.000108073 -7.33277e-07 0)
(-0.000109091 -5.79754e-06 0)
(-0.000106851 -2.17657e-06 0)
(-0.000107282 -1.27594e-06 0)
(-0.000106348 -2.87274e-06 0)
(-0.000104823 -1.7614e-06 0)
(-0.000104376 -1.63654e-06 0)
(-0.000102804 -3.32161e-06 0)
(-0.000100802 -2.63554e-06 0)
(-9.98202e-05 -3.17976e-06 0)
(-9.81704e-05 -6.49675e-06 0)
(-9.58525e-05 -1.16387e-05 0)
(-9.31914e-05 -1.61667e-05 0)
(-8.907e-05 -2.25966e-05 0)
(-8.24098e-05 -3.12649e-05 0)
(-7.18502e-05 -4.17851e-05 0)
(-5.648e-05 -5.2525e-05 0)
(-3.6335e-05 -6.15759e-05 0)
(-1.25648e-05 -6.68005e-05 0)
(1.25648e-05 -6.68005e-05 0)
(3.6335e-05 -6.15759e-05 0)
(5.648e-05 -5.2525e-05 0)
(7.18502e-05 -4.17851e-05 0)
(8.24098e-05 -3.12649e-05 0)
(8.907e-05 -2.25966e-05 0)
(9.31914e-05 -1.61667e-05 0)
(9.58525e-05 -1.16387e-05 0)
(9.81704e-05 -6.49675e-06 0)
(9.98202e-05 -3.17976e-06 0)
(0.000100802 -2.63554e-06 0)
(0.000102804 -3.32161e-06 0)
(0.000104376 -1.63654e-06 0)
(0.000104823 -1.7614e-06 0)
(0.000106348 -2.87274e-06 0)
(0.000107282 -1.27594e-06 0)
(0.000106851 -2.17657e-06 0)
(0.000109091 -5.79754e-06 0)
(0.000108073 -7.33277e-07 0)
(9.6679e-05 -1.25553e-06 0)
(4.43431e-05 -5.83755e-08 0)
(1.74109e-09 -7.40334e-16 0)
(2.33143e-20 -9.85096e-16 0)
(1.29263e-19 -9.87738e-16 0)
(8.19218e-20 -9.87568e-16 0)
(1.06589e-19 -9.877e-16 0)
(7.57484e-20 -9.87629e-16 0)
(1.41304e-19 -9.87587e-16 0)
(2.29427e-19 -9.87633e-16 0)
(2.48418e-19 -9.87761e-16 0)
(2.0671e-19 -9.87816e-16 0)
(1.67831e-19 -9.87842e-16 0)
(1.36544e-19 -9.87856e-16 0)
(1.10909e-19 -9.87864e-16 0)
(8.91716e-20 -9.87869e-16 0)
(7.01205e-20 -9.87873e-16 0)
(5.29264e-20 -9.87875e-16 0)
(3.69984e-20 -9.87877e-16 0)
(2.18915e-20 -9.87878e-16 0)
(7.24735e-21 -9.87878e-16 0)
(-7.16332e-21 -9.87873e-16 0)
(-2.16306e-20 -9.87873e-16 0)
(-3.65316e-20 -9.87871e-16 0)
(-5.21973e-20 -9.8787e-16 0)
(-6.9028e-20 -9.87867e-16 0)
(-8.75343e-20 -9.87863e-16 0)
(-1.08388e-19 -9.87856e-16 0)
(-1.32457e-19 -9.87846e-16 0)
(-1.60672e-19 -9.87831e-16 0)
(-1.92854e-19 -9.87803e-16 0)
(-2.20861e-19 -9.8775e-16 0)
(-2.03818e-19 -9.87656e-16 0)
(-1.3934e-19 -9.87616e-16 0)
(-8.9694e-20 -9.87639e-16 0)
(-9.92541e-20 -9.87677e-16 0)
(-8.43109e-20 -9.87604e-16 0)
(-1.01627e-19 -9.8768e-16 0)
(-3.06249e-20 -9.87472e-16 0)
(1.49727e-21 -9.87709e-16 0)
(5.20002e-20 -9.86862e-16 0)
(-5.93468e-13 -7.8093e-16 0)
(-2.25025e-05 -9.92604e-10 0)
(-6.79805e-05 -3.34974e-06 0)
(-9.56899e-05 -1.09995e-06 0)
(-0.00010274 -6.5005e-07 0)
(-0.000103786 -3.84869e-06 0)
(-0.000102661 -1.89138e-06 0)
(-0.000103159 -1.62496e-06 0)
(-0.000101646 -4.49617e-06 0)
(-9.94865e-05 -2.97593e-06 0)
(-9.93349e-05 -3.3047e-06 0)
(-9.89353e-05 -7.13415e-06 0)
(-9.79083e-05 -1.28432e-05 0)
(-9.66899e-05 -1.79465e-05 0)
(-9.44826e-05 -2.56478e-05 0)
(-8.98236e-05 -3.68398e-05 0)
(-8.04209e-05 -5.14449e-05 0)
(-6.46602e-05 -6.66558e-05 0)
(-4.23369e-05 -7.99286e-05 0)
(-1.47788e-05 -8.77324e-05 0)
(1.47788e-05 -8.77324e-05 0)
(4.23369e-05 -7.99286e-05 0)
(6.46602e-05 -6.66558e-05 0)
(8.04209e-05 -5.14449e-05 0)
(8.98236e-05 -3.68398e-05 0)
(9.44826e-05 -2.56478e-05 0)
(9.66899e-05 -1.79465e-05 0)
(9.79083e-05 -1.28432e-05 0)
(9.89353e-05 -7.13415e-06 0)
(9.93349e-05 -3.3047e-06 0)
(9.94865e-05 -2.97593e-06 0)
(0.000101646 -4.49617e-06 0)
(0.000103159 -1.62496e-06 0)
(0.000102661 -1.89138e-06 0)
(0.000103786 -3.84869e-06 0)
(0.00010274 -6.5005e-07 0)
(9.56899e-05 -1.09995e-06 0)
(6.79805e-05 -3.34974e-06 0)
(2.25025e-05 -9.92604e-10 0)
(5.93468e-13 -7.8093e-16 0)
(-5.20002e-20 -9.86862e-16 0)
(-1.49727e-21 -9.87709e-16 0)
(3.06249e-20 -9.87472e-16 0)
(1.01627e-19 -9.8768e-16 0)
(8.43109e-20 -9.87604e-16 0)
(9.92541e-20 -9.87677e-16 0)
(8.9694e-20 -9.87639e-16 0)
(1.3934e-19 -9.87616e-16 0)
(2.03818e-19 -9.87656e-16 0)
(2.20861e-19 -9.8775e-16 0)
(1.92854e-19 -9.87803e-16 0)
(1.60672e-19 -9.87831e-16 0)
(1.32457e-19 -9.87846e-16 0)
(1.08388e-19 -9.87856e-16 0)
(8.75343e-20 -9.87863e-16 0)
(6.9028e-20 -9.87867e-16 0)
(5.21973e-20 -9.8787e-16 0)
(3.65316e-20 -9.87871e-16 0)
(2.16306e-20 -9.87873e-16 0)
(7.16332e-21 -9.87873e-16 0)
(-7.05269e-21 -9.87868e-16 0)
(-2.12874e-20 -9.87867e-16 0)
(-3.59192e-20 -9.87866e-16 0)
(-5.12447e-20 -9.87864e-16 0)
(-6.76096e-20 -9.8786e-16 0)
(-8.54303e-20 -9.87855e-16 0)
(-1.052e-19 -9.87848e-16 0)
(-1.27429e-19 -9.87837e-16 0)
(-1.52298e-19 -9.8782e-16 0)
(-1.78204e-19 -9.87792e-16 0)
(-1.96551e-19 -9.87744e-16 0)
(-1.81957e-19 -9.87674e-16 0)
(-1.35238e-19 -9.87639e-16 0)
(-9.7215e-20 -9.87648e-16 0)
(-9.44269e-20 -9.87666e-16 0)
(-8.2695e-20 -9.87625e-16 0)
(-8.29121e-20 -9.87652e-16 0)
(-3.35379e-20 -9.87544e-16 0)
(-6.0267e-22 -9.87662e-16 0)
(3.78748e-20 -9.87557e-16 0)
(5.11758e-20 -9.87728e-16 0)
(4.17916e-20 -9.87583e-16 0)
(7.45701e-20 -8.64926e-16 0)
(-3.56601e-10 -6.921e-16 0)
(-3.41887e-05 -3.61176e-08 0)
(-7.91417e-05 -2.19715e-06 0)
(-9.34745e-05 -9.47552e-07 0)
(-9.94956e-05 -7.93287e-07 0)
(-9.95522e-05 -6.20816e-06 0)
(-9.7498e-05 -3.02648e-06 0)
(-9.87985e-05 -2.94416e-06 0)
(-0.000100014 -7.27992e-06 0)
(-0.000100499 -1.30799e-05 0)
(-0.00010125 -1.81221e-05 0)
(-0.000102097 -2.65872e-05 0)
(-0.00010113 -4.0551e-05 0)
(-9.40451e-05 -6.15044e-05 0)
(-7.79798e-05 -8.32747e-05 0)
(-5.23854e-05 -0.000103538 0)
(-1.85308e-05 -0.000115735 0)
(1.85308e-05 -0.000115735 0)
(5.23854e-05 -0.000103538 0)
(7.79798e-05 -8.32747e-05 0)
(9.40451e-05 -6.15044e-05 0)
(0.00010113 -4.0551e-05 0)
(0.000102097 -2.65872e-05 0)
(0.00010125 -1.81221e-05 0)
(0.000100499 -1.30799e-05 0)
(0.000100014 -7.27992e-06 0)
(9.87985e-05 -2.94416e-06 0)
(9.7498e-05 -3.02648e-06 0)
(9.95522e-05 -6.20816e-06 0)
(9.94956e-05 -7.93287e-07 0)
(9.34745e-05 -9.47552e-07 0)
(7.91417e-05 -2.19715e-06 0)
(3.41887e-05 -3.61176e-08 0)
(3.56601e-10 -6.921e-16 0)
(-7.45701e-20 -8.64926e-16 0)
(-4.17916e-20 -9.87583e-16 0)
(-5.11758e-20 -9.87728e-16 0)
(-3.78748e-20 -9.87557e-16 0)
(6.0267e-22 -9.87662e-16 0)
(3.35379e-20 -9.87544e-16 0)
(8.29121e-20 -9.87652e-16 0)
(8.2695e-20 -9.87625e-16 0)
(9.44269e-20 -9.87666e-16 0)
(9.7215e-20 -9.87648e-16 0)
(1.35238e-19 -9.87639e-16 0)
(1.81957e-19 -9.87674e-16 0)
(1.96551e-19 -9.87744e-16 0)
(1.78204e-19 -9.87792e-16 0)
(1.52298e-19 -9.8782e-16 0)
(1.27429e-19 -9.87837e-16 0)
(1.052e-19 -9.87848e-16 0)
(8.54303e-20 -9.87855e-16 0)
(6.76096e-20 -9.8786e-16 0)
(5.12447e-20 -9.87864e-16 0)
(3.59192e-20 -9.87866e-16 0)
(2.12874e-20 -9.87867e-16 0)
(7.05269e-21 -9.87868e-16 0)
(-6.91093e-21 -9.87862e-16 0)
(-2.08482e-20 -9.87861e-16 0)
(-3.5138e-20 -9.8786e-16 0)
(-5.00355e-20 -9.87857e-16 0)
(-6.5824e-20 -9.87854e-16 0)
(-8.28146e-20 -9.87848e-16 0)
(-1.01315e-19 -9.8784e-16 0)
(-1.21497e-19 -9.87828e-16 0)
(-1.42949e-19 -9.8781e-16 0)
(-1.63331e-19 -9.87783e-16 0)
(-1.75091e-19 -9.87741e-16 0)
(-1.63056e-19 -9.87687e-16 0)
(-1.29364e-19 -9.87657e-16 0)
(-9.9898e-20 -9.87657e-16 0)
(-9.05451e-20 -9.87662e-16 0)
(-7.90351e-20 -9.87639e-16 0)
(-7.022e-20 -9.87643e-16 0)
(-3.41359e-20 -9.87588e-16 0)
(-3.7815e-21 -9.87643e-16 0)
(2.6359e-20 -9.87603e-16 0)
(3.95311e-20 -9.87693e-16 0)
(3.7923e-20 -9.87654e-16 0)
(4.70209e-20 -9.87716e-16 0)
(-2.73833e-20 -9.87754e-16 0)
(4.81658e-20 -9.87232e-16 0)
(1.11792e-19 -8.43219e-16 0)
(-8.95451e-11 -6.9029e-16 0)
(-2.68427e-05 -2.33778e-08 0)
(-6.78884e-05 -3.61431e-06 0)
(-8.66474e-05 -1.47263e-06 0)
(-9.4766e-05 -1.30466e-06 0)
(-9.98496e-05 -6.67475e-06 0)
(-0.000102378 -1.2007e-05 0)
(-0.000105792 -1.54331e-05 0)
(-0.00011167 -2.30471e-05 0)
(-0.000118256 -3.87529e-05 0)
(-0.000116031 -7.1741e-05 0)
(-0.000100098 -0.000102451 0)
(-6.99417e-05 -0.000135723 0)
(-2.51887e-05 -0.000156111 0)
(2.51887e-05 -0.000156111 0)
(6.99417e-05 -0.000135723 0)
(0.000100098 -0.000102451 0)
(0.000116031 -7.1741e-05 0)
(0.000118256 -3.87529e-05 0)
(0.00011167 -2.30471e-05 0)
(0.000105792 -1.54331e-05 0)
(0.000102378 -1.2007e-05 0)
(9.98496e-05 -6.67475e-06 0)
(9.4766e-05 -1.30466e-06 0)
(8.66474e-05 -1.47263e-06 0)
(6.78884e-05 -3.61431e-06 0)
(2.68427e-05 -2.33778e-08 0)
(8.95451e-11 -6.9029e-16 0)
(-1.11792e-19 -8.43219e-16 0)
(-4.81658e-20 -9.87232e-16 0)
(2.73833e-20 -9.87754e-16 0)
(-4.70209e-20 -9.87716e-16 0)
(-3.7923e-20 -9.87654e-16 0)
(-3.95311e-20 -9.87693e-16 0)
(-2.6359e-20 -9.87603e-16 0)
(3.7815e-21 -9.87643e-16 0)
(3.41359e-20 -9.87588e-16 0)
(7.022e-20 -9.87643e-16 0)
(7.90351e-20 -9.87639e-16 0)
(9.05451e-20 -9.87662e-16 0)
(9.9898e-20 -9.87657e-16 0)
(1.29364e-19 -9.87657e-16 0)
(1.63056e-19 -9.87687e-16 0)
(1.75091e-19 -9.87741e-16 0)
(1.63331e-19 -9.87783e-16 0)
(1.42949e-19 -9.8781e-16 0)
(1.21497e-19 -9.87828e-16 0)
(1.01315e-19 -9.8784e-16 0)
(8.28146e-20 -9.87848e-16 0)
(6.5824e-20 -9.87854e-16 0)
(5.00355e-20 -9.87857e-16 0)
(3.5138e-20 -9.8786e-16 0)
(2.08482e-20 -9.87861e-16 0)
(6.91093e-21 -9.87862e-16 0)
(-6.73349e-21 -9.87856e-16 0)
(-2.02995e-20 -9.87855e-16 0)
(-3.41656e-20 -9.87853e-16 0)
(-4.854e-20 -9.87851e-16 0)
(-6.36369e-20 -9.87846e-16 0)
(-7.96586e-20 -9.8784e-16 0)
(-9.67346e-20 -9.87832e-16 0)
(-1.1475e-19 -9.87819e-16 0)
(-1.32899e-19 -9.87802e-16 0)
(-1.48656e-19 -9.87776e-16 0)
(-1.56076e-19 -9.8774e-16 0)
(-1.4644e-19 -9.87698e-16 0)
(-1.2212e-19 -9.87672e-16 0)
(-9.90182e-20 -9.87665e-16 0)
(-8.66975e-20 -9.87663e-16 0)
(-7.45086e-20 -9.87648e-16 0)
(-6.14814e-20 -9.87643e-16 0)
(-3.37029e-20 -9.87616e-16 0)
(-7.22747e-21 -9.87641e-16 0)
(1.69531e-20 -9.8763e-16 0)
(2.95678e-20 -9.87677e-16 0)
(3.16453e-20 -9.8767e-16 0)
(3.2674e-20 -9.87705e-16 0)
(-7.64209e-22 -9.87718e-16 0)
(3.91902e-20 -9.8762e-16 0)
(6.7458e-20 -9.87753e-16 0)
(-1.54482e-20 -9.87767e-16 0)
(4.40728e-20 -9.87417e-16 0)
(1.04954e-19 -8.77411e-16 0)
(-9.91242e-17 -7.47252e-16 0)
(-3.5523e-06 -3.34549e-13 0)
(-4.29365e-05 -3.06962e-06 0)
(-8.47134e-05 -5.55263e-06 0)
(-9.73008e-05 -6.58762e-06 0)
(-0.000113587 -9.88133e-06 0)
(-0.000140232 -1.81107e-05 0)
(-0.000150194 -8.44035e-05 0)
(-0.000136436 -0.000119751 0)
(-0.000102608 -0.000183029 0)
(-3.77494e-05 -0.000219983 0)
(3.77494e-05 -0.000219983 0)
(0.000102608 -0.000183029 0)
(0.000136436 -0.000119751 0)
(0.000150194 -8.44035e-05 0)
(0.000140232 -1.81107e-05 0)
(0.000113587 -9.88133e-06 0)
(9.73008e-05 -6.58762e-06 0)
(8.47134e-05 -5.55263e-06 0)
(4.29365e-05 -3.06962e-06 0)
(3.5523e-06 -3.34549e-13 0)
(9.91242e-17 -7.47252e-16 0)
(-1.04954e-19 -8.77411e-16 0)
(-4.40728e-20 -9.87417e-16 0)
(1.54482e-20 -9.87767e-16 0)
(-6.7458e-20 -9.87753e-16 0)
(-3.91902e-20 -9.8762e-16 0)
(7.64209e-22 -9.87718e-16 0)
(-3.2674e-20 -9.87705e-16 0)
(-3.16453e-20 -9.8767e-16 0)
(-2.95678e-20 -9.87677e-16 0)
(-1.69531e-20 -9.8763e-16 0)
(7.22747e-21 -9.87641e-16 0)
(3.37029e-20 -9.87616e-16 0)
(6.14814e-20 -9.87643e-16 0)
(7.45086e-20 -9.87648e-16 0)
(8.66975e-20 -9.87663e-16 0)
(9.90182e-20 -9.87665e-16 0)
(1.2212e-19 -9.87672e-16 0)
(1.4644e-19 -9.87698e-16 0)
(1.56076e-19 -9.8774e-16 0)
(1.48656e-19 -9.87776e-16 0)
(1.32899e-19 -9.87802e-16 0)
(1.1475e-19 -9.87819e-16 0)
(9.67346e-20 -9.87832e-16 0)
(7.96586e-20 -9.8784e-16 0)
(6.36369e-20 -9.87846e-16 0)
(4.854e-20 -9.87851e-16 0)
(3.41656e-20 -9.87853e-16 0)
(2.02995e-20 -9.87855e-16 0)
(6.73349e-21 -9.87856e-16 0)
(-6.51624e-21 -9.8785e-16 0)
(-1.96291e-20 -9.87849e-16 0)
(-3.29829e-20 -9.87847e-16 0)
(-4.67345e-20 -9.87844e-16 0)
(-6.10267e-20 -9.87839e-16 0)
(-7.5956e-20 -9.87833e-16 0)
(-9.14957e-20 -9.87824e-16 0)
(-1.07319e-19 -9.87811e-16 0)
(-1.22423e-19 -9.87794e-16 0)
(-1.34465e-19 -9.8777e-16 0)
(-1.39119e-19 -9.87739e-16 0)
(-1.31572e-19 -9.87707e-16 0)
(-1.13895e-19 -9.87684e-16 0)
(-9.55882e-20 -9.87674e-16 0)
(-8.24471e-20 -9.87667e-16 0)
(-6.97355e-20 -9.87656e-16 0)
(-5.52695e-20 -9.87649e-16 0)
(-3.293e-20 -9.87635e-16 0)
(-1.04824e-20 -9.87646e-16 0)
(9.28092e-21 -9.87647e-16 0)
(2.10491e-20 -9.87673e-16 0)
(2.49994e-20 -9.87677e-16 0)
(2.48185e-20 -9.87698e-16 0)
(1.1652e-20 -9.87703e-16 0)
(3.20175e-20 -9.87664e-16 0)
(4.42496e-20 -9.87728e-16 0)
(8.8848e-21 -9.87735e-16 0)
(3.67642e-20 -9.87661e-16 0)
(6.06909e-20 -9.87763e-16 0)
(-3.23932e-21 -9.87797e-16 0)
(-7.34858e-20 -9.87749e-16 0)
(2.57917e-20 -9.59024e-16 0)
(1.02029e-19 -8.69338e-16 0)
(1.65394e-22 -8.10488e-16 0)
(-2.49312e-10 -7.46996e-16 0)
(-9.30555e-06 -2.09525e-07 0)
(-6.06385e-05 -4.59583e-05 0)
(-0.000150037 -7.27144e-05 0)
(-0.000159119 -0.000255822 0)
(-6.04144e-05 -0.000329404 0)
(6.04144e-05 -0.000329404 0)
(0.000159119 -0.000255822 0)
(0.000150037 -7.27144e-05 0)
(6.06385e-05 -4.59583e-05 0)
(9.30555e-06 -2.09525e-07 0)
(2.49312e-10 -7.46996e-16 0)
(-1.65394e-22 -8.10488e-16 0)
(-1.02029e-19 -8.69338e-16 0)
(-2.57917e-20 -9.59024e-16 0)
(7.34858e-20 -9.87749e-16 0)
(3.23932e-21 -9.87797e-16 0)
(-6.06909e-20 -9.87763e-16 0)
(-3.67642e-20 -9.87661e-16 0)
(-8.8848e-21 -9.87735e-16 0)
(-4.42496e-20 -9.87728e-16 0)
(-3.20175e-20 -9.87664e-16 0)
(-1.1652e-20 -9.87703e-16 0)
(-2.48185e-20 -9.87698e-16 0)
(-2.49994e-20 -9.87677e-16 0)
(-2.10491e-20 -9.87673e-16 0)
(-9.28092e-21 -9.87647e-16 0)
(1.04824e-20 -9.87646e-16 0)
(3.293e-20 -9.87635e-16 0)
(5.52695e-20 -9.87649e-16 0)
(6.97355e-20 -9.87656e-16 0)
(8.24471e-20 -9.87667e-16 0)
(9.55882e-20 -9.87674e-16 0)
(1.13895e-19 -9.87684e-16 0)
(1.31572e-19 -9.87707e-16 0)
(1.39119e-19 -9.87739e-16 0)
(1.34465e-19 -9.8777e-16 0)
(1.22423e-19 -9.87794e-16 0)
(1.07319e-19 -9.87811e-16 0)
(9.14957e-20 -9.87824e-16 0)
(7.5956e-20 -9.87833e-16 0)
(6.10267e-20 -9.87839e-16 0)
(4.67345e-20 -9.87844e-16 0)
(3.29829e-20 -9.87847e-16 0)
(1.96291e-20 -9.87849e-16 0)
(6.51624e-21 -9.8785e-16 0)
(-6.25583e-21 -9.87843e-16 0)
(-1.88275e-20 -9.87842e-16 0)
(-3.15761e-20 -9.8784e-16 0)
(-4.46056e-20 -9.87836e-16 0)
(-5.79885e-20 -9.87832e-16 0)
(-7.17269e-20 -9.87825e-16 0)
(-8.56715e-20 -9.87816e-16 0)
(-9.93658e-20 -9.87803e-16 0)
(-1.11775e-19 -9.87787e-16 0)
(-1.20933e-19 -9.87765e-16 0)
(-1.23876e-19 -9.8774e-16 0)
(-1.18052e-19 -9.87714e-16 0)
(-1.05046e-19 -9.87694e-16 0)
(-9.04054e-20 -9.87682e-16 0)
(-7.76672e-20 -9.87673e-16 0)
(-6.49828e-20 -9.87664e-16 0)
(-5.06218e-20 -9.87656e-16 0)
(-3.21119e-20 -9.87649e-16 0)
(-1.33142e-20 -9.87654e-16 0)
(3.06497e-21 -9.87658e-16 0)
(1.38558e-20 -9.87674e-16 0)
(1.88464e-20 -9.87681e-16 0)
(1.9774e-20 -9.87694e-16 0)
(1.60473e-20 -9.87698e-16 0)
(2.63874e-20 -9.87686e-16 0)
(3.18859e-20 -9.87716e-16 0)
(1.81781e-20 -9.87721e-16 0)
(2.98351e-20 -9.87696e-16 0)
(3.63071e-20 -9.87744e-16 0)
(7.29477e-22 -9.87763e-16 0)
(-3.23146e-20 -9.87731e-16 0)
(7.79467e-21 -9.87651e-16 0)
(4.47922e-20 -9.87737e-16 0)
(1.72941e-20 -9.87749e-16 0)
(2.24409e-21 -9.87724e-16 0)
(2.30555e-20 -9.87545e-16 0)
(-3.18808e-09 -3.32393e-15 0)
(-6.18266e-06 -1.24435e-05 0)
(-4.22758e-05 -0.00026295 0)
(-3.60963e-05 -0.000444973 0)
(3.60963e-05 -0.000444973 0)
(4.22758e-05 -0.00026295 0)
(6.18266e-06 -1.24435e-05 0)
(3.18808e-09 -3.32393e-15 0)
(-2.30555e-20 -9.87545e-16 0)
(-2.24409e-21 -9.87724e-16 0)
(-1.72941e-20 -9.87749e-16 0)
(-4.47922e-20 -9.87737e-16 0)
(-7.79467e-21 -9.87651e-16 0)
(3.23146e-20 -9.87731e-16 0)
(-7.29477e-22 -9.87763e-16 0)
(-3.63071e-20 -9.87744e-16 0)
(-2.98351e-20 -9.87696e-16 0)
(-1.81781e-20 -9.87721e-16 0)
(-3.18859e-20 -9.87716e-16 0)
(-2.63874e-20 -9.87686e-16 0)
(-1.60473e-20 -9.87698e-16 0)
(-1.9774e-20 -9.87694e-16 0)
(-1.88464e-20 -9.87681e-16 0)
(-1.38558e-20 -9.87674e-16 0)
(-3.06497e-21 -9.87658e-16 0)
(1.33142e-20 -9.87654e-16 0)
(3.21119e-20 -9.87649e-16 0)
(5.06218e-20 -9.87656e-16 0)
(6.49828e-20 -9.87664e-16 0)
(7.76672e-20 -9.87673e-16 0)
(9.04054e-20 -9.87682e-16 0)
(1.05046e-19 -9.87694e-16 0)
(1.18052e-19 -9.87714e-16 0)
(1.23876e-19 -9.8774e-16 0)
(1.20933e-19 -9.87765e-16 0)
(1.11775e-19 -9.87787e-16 0)
(9.93658e-20 -9.87803e-16 0)
(8.56715e-20 -9.87816e-16 0)
(7.17269e-20 -9.87825e-16 0)
(5.79885e-20 -9.87832e-16 0)
(4.46056e-20 -9.87836e-16 0)
(3.15761e-20 -9.8784e-16 0)
(1.88275e-20 -9.87842e-16 0)
(6.25583e-21 -9.87843e-16 0)
(-5.95033e-21 -9.87836e-16 0)
(-1.78898e-20 -9.87835e-16 0)
(-2.99402e-20 -9.87832e-16 0)
(-4.21535e-20 -9.87829e-16 0)
(-5.45386e-20 -9.87824e-16 0)
(-6.70202e-20 -9.87817e-16 0)
(-7.93663e-20 -9.87808e-16 0)
(-9.10678e-20 -9.87796e-16 0)
(-1.01173e-19 -9.87781e-16 0)
(-1.08147e-19 -9.87762e-16 0)
(-1.10058e-19 -9.87741e-16 0)
(-1.05599e-19 -9.87719e-16 0)
(-9.58826e-20 -9.87701e-16 0)
(-8.40912e-20 -9.87689e-16 0)
(-7.24065e-20 -9.8768e-16 0)
(-6.03248e-20 -9.87672e-16 0)
(-4.68969e-20 -9.87665e-16 0)
(-3.13099e-20 -9.8766e-16 0)
(-1.56199e-20 -9.87662e-16 0)
(-1.90365e-21 -9.87667e-16 0)
(7.88539e-21 -9.87677e-16 0)
(1.34421e-20 -9.87685e-16 0)
(1.57812e-20 -9.87693e-16 0)
(1.62134e-20 -9.87697e-16 0)
(2.18144e-20 -9.87696e-16 0)
(2.46803e-20 -9.87711e-16 0)
(1.99781e-20 -9.87716e-16 0)
(2.39509e-20 -9.8771e-16 0)
(2.34766e-20 -9.87733e-16 0)
(4.24421e-21 -9.87742e-16 0)
(-1.13636e-20 -9.87723e-16 0)
(4.38475e-21 -9.8769e-16 0)
(2.11984e-20 -9.87718e-16 0)
(1.51419e-20 -9.87725e-16 0)
(9.91198e-21 -9.87722e-16 0)
(9.18739e-21 -9.87719e-16 0)
(-7.52388e-11 -1.63677e-15 0)
(-1.34855e-07 -6.05602e-06 0)
(-4.82014e-06 -0.000219449 0)
(-4.68536e-06 -0.000497516 0)
(4.68536e-06 -0.000497516 0)
(4.82014e-06 -0.000219449 0)