/*--------------------------------*- C++ -*----------------------------------*\
  =========                 |
  \\      /  F ield         | OpenFOAM: The Open Source CFD Toolbox
   \\    /   O peration     | Website:  https://openfoam.org
    \\  /    A nd           | Version:  10
     \\/     M anipulation  |
\*---------------------------------------------------------------------------*/
FoamFile
{
    format      ascii;
    class       volScalarField;
    location    "3.3";
    object      p;
}
// * * * * * * * * * * * * * * * * * * * * * * * * * * * * * * * * * * * * * //

dimensions      [1 -1 -2 0 0 0 0];

internalField   nonuniform List<scalar> 
12225
(
1.01526e+07
1.01527e+07
1.01528e+07
1.01529e+07
1.01531e+07
1.01534e+07
1.01539e+07
1.01546e+07
1.01555e+07
1.01569e+07
1.01587e+07
1.01611e+07
1.01643e+07
1.01685e+07
1.01737e+07
1.01802e+07
1.01885e+07
1.01994e+07
1.01526e+07
1.01527e+07
1.01527e+07
1.01529e+07
1.01531e+07
1.01534e+07
1.01539e+07
1.01545e+07
1.01555e+07
1.01568e+07
1.01586e+07
1.01611e+07
1.01642e+07
1.01683e+07
1.01735e+07
1.01799e+07
1.0188e+07
1.01983e+07
1.01526e+07
1.01527e+07
1.01527e+07
1.01529e+07
1.01531e+07
1.01534e+07
1.01538e+07
1.01545e+07
1.01554e+07
1.01567e+07
1.01585e+07
1.01609e+07
1.0164e+07
1.01679e+07
1.0173e+07
1.01793e+07
1.0187e+07
1.01964e+07
1.01526e+07
1.01527e+07
1.01527e+07
1.01528e+07
1.0153e+07
1.01533e+07
1.01538e+07
1.01544e+07
1.01553e+07
1.01565e+07
1.01582e+07
1.01605e+07
1.01635e+07
1.01674e+07
1.01723e+07
1.01783e+07
1.01856e+07
1.01941e+07
1.01526e+07
1.01526e+07
1.01527e+07
1.01528e+07
1.0153e+07
1.01533e+07
1.01537e+07
1.01543e+07
1.01551e+07
1.01563e+07
1.01579e+07
1.016e+07
1.01629e+07
1.01665e+07
1.01712e+07
1.01769e+07
1.01837e+07
1.01915e+07
1.01526e+07
1.01526e+07
1.01527e+07
1.01528e+07
1.01529e+07
1.01532e+07
1.01536e+07
1.01541e+07
1.01549e+07
1.01559e+07
1.01574e+07
1.01594e+07
1.0162e+07
1.01654e+07
1.01697e+07
1.0175e+07
1.01813e+07
1.01884e+07
1.01526e+07
1.01526e+07
1.01526e+07
1.01527e+07
1.01529e+07
1.01531e+07
1.01534e+07
1.01539e+07
1.01545e+07
1.01555e+07
1.01568e+07
1.01585e+07
1.01609e+07
1.01639e+07
1.01679e+07
1.01727e+07
1.01784e+07
1.01849e+07
1.01526e+07
1.01526e+07
1.01526e+07
1.01527e+07
1.01528e+07
1.0153e+07
1.01532e+07
1.01536e+07
1.01541e+07
1.01549e+07
1.0156e+07
1.01574e+07
1.01594e+07
1.01621e+07
1.01655e+07
1.01698e+07
1.0175e+07
1.0181e+07
1.01525e+07
1.01525e+07
1.01526e+07
1.01526e+07
1.01527e+07
1.01528e+07
1.0153e+07
1.01532e+07
1.01536e+07
1.01542e+07
1.0155e+07
1.01561e+07
1.01577e+07
1.01598e+07
1.01627e+07
1.01663e+07
1.01709e+07
1.01764e+07
1.01525e+07
1.01525e+07
1.01525e+07
1.01525e+07
1.01526e+07
1.01526e+07
1.01527e+07
1.01529e+07
1.01531e+07
1.01534e+07
1.01539e+07
1.01546e+07
1.01556e+07
1.01571e+07
1.01592e+07
1.01621e+07
1.0166e+07
1.0171e+07
1.01525e+07
1.01525e+07
1.01525e+07
1.01524e+07
1.01524e+07
1.01524e+07
1.01524e+07
1.01524e+07
1.01524e+07
1.01525e+07
1.01525e+07
1.01527e+07
1.01531e+07
1.01538e+07
1.01551e+07
1.01571e+07
1.01601e+07
1.01645e+07
1.01524e+07
1.01524e+07
1.01524e+07
1.01524e+07
1.01523e+07
1.01522e+07
1.01521e+07
1.0152e+07
1.01518e+07
1.01515e+07
1.01512e+07
1.01509e+07
1.01506e+07
1.01504e+07
1.01506e+07
1.01515e+07
1.01535e+07
1.01572e+07
1.01524e+07
1.01524e+07
1.01523e+07
1.01523e+07
1.01522e+07
1.0152e+07
1.01518e+07
1.01515e+07
1.01511e+07
1.01506e+07
1.01498e+07
1.01489e+07
1.01478e+07
1.01467e+07
1.01456e+07
1.0145e+07
1.01456e+07
1.01483e+07
1.01524e+07
1.01523e+07
1.01523e+07
1.01522e+07
1.0152e+07
1.01518e+07
1.01515e+07
1.0151e+07
1.01504e+07
1.01495e+07
1.01483e+07
1.01467e+07
1.01446e+07
1.0142e+07
1.01391e+07
1.01362e+07
1.01342e+07
1.01348e+07
1.01523e+07
1.01523e+07
1.01522e+07
1.01521e+07
1.01519e+07
1.01516e+07
1.01512e+07
1.01506e+07
1.01497e+07
1.01484e+07
1.01467e+07
1.01443e+07
1.01411e+07
1.01369e+07
1.01314e+07
1.01247e+07
1.01174e+07
1.01121e+07
1.01523e+07
1.01523e+07
1.01522e+07
1.0152e+07
1.01518e+07
1.01515e+07
1.0151e+07
1.01502e+07
1.01492e+07
1.01477e+07
1.01455e+07
1.01426e+07
1.01384e+07
1.01325e+07
1.01242e+07
1.0112e+07
1.00937e+07
1.00649e+07
2.06114e+07
2.05253e+07
2.04613e+07
2.04062e+07
2.03556e+07
2.0307e+07
2.02593e+07
2.0212e+07
2.01647e+07
2.01173e+07
2.00692e+07
2.00203e+07
1.99702e+07
1.99183e+07
1.9864e+07
1.98066e+07
1.97449e+07
1.96773e+07
2.05475e+07
2.05035e+07
2.0453e+07
2.04032e+07
2.03551e+07
2.03086e+07
2.02631e+07
2.02182e+07
2.01737e+07
2.01293e+07
2.00851e+07
2.0041e+07
1.99971e+07
1.99536e+07
1.99109e+07
1.98699e+07
1.98322e+07
1.98007e+07
2.04774e+07
2.04551e+07
2.04219e+07
2.03839e+07
2.0344e+07
2.03035e+07
2.0263e+07
2.02226e+07
2.01827e+07
2.01433e+07
2.01046e+07
2.00669e+07
2.00304e+07
1.99956e+07
1.9963e+07
1.99331e+07
1.99067e+07
1.98843e+07
2.04314e+07
2.04168e+07
2.03927e+07
2.03629e+07
2.03299e+07
2.02952e+07
2.02597e+07
2.0224e+07
2.01886e+07
2.01537e+07
2.01198e+07
2.00871e+07
2.00559e+07
2.00265e+07
1.99993e+07
1.99745e+07
1.99523e+07
1.9933e+07
2.04033e+07
2.03921e+07
2.03726e+07
2.03475e+07
2.03189e+07
2.02881e+07
2.02562e+07
2.02239e+07
2.01917e+07
2.01601e+07
2.01293e+07
2.00998e+07
2.00717e+07
2.00454e+07
2.0021e+07
1.99987e+07
1.99786e+07
1.99607e+07
2.03839e+07
2.03745e+07
2.03577e+07
2.03357e+07
2.03101e+07
2.02822e+07
2.02529e+07
2.02232e+07
2.01934e+07
2.01641e+07
2.01357e+07
2.01083e+07
2.00824e+07
2.00581e+07
2.00355e+07
2.00147e+07
1.99958e+07
1.99787e+07
2.03703e+07
2.0362e+07
2.0347e+07
2.0327e+07
2.03034e+07
2.02775e+07
2.02502e+07
2.02223e+07
2.01943e+07
2.01667e+07
2.01398e+07
2.0114e+07
2.00896e+07
2.00665e+07
2.00451e+07
2.00253e+07
2.00072e+07
1.99907e+07
2.03609e+07
2.03532e+07
2.03393e+07
2.03207e+07
2.02985e+07
2.0274e+07
2.02481e+07
2.02214e+07
2.01947e+07
2.01682e+07
2.01425e+07
2.01178e+07
2.00943e+07
2.00722e+07
2.00515e+07
2.00324e+07
2.00148e+07
1.99987e+07
2.03543e+07
2.03471e+07
2.0334e+07
2.03162e+07
2.0295e+07
2.02715e+07
2.02465e+07
2.02207e+07
2.01948e+07
2.01692e+07
2.01443e+07
2.01203e+07
2.00975e+07
2.00759e+07
2.00558e+07
2.00371e+07
2.00199e+07
2.00041e+07
2.03499e+07
2.0343e+07
2.03303e+07
2.03131e+07
2.02926e+07
2.02697e+07
2.02453e+07
2.02201e+07
2.01948e+07
2.01698e+07
2.01454e+07
2.01219e+07
2.00995e+07
2.00784e+07
2.00586e+07
2.00402e+07
2.00232e+07
2.00075e+07
2.0347e+07
2.03403e+07
2.03279e+07
2.03111e+07
2.02909e+07
2.02684e+07
2.02445e+07
2.02197e+07
2.01948e+07
2.01701e+07
2.0146e+07
2.01228e+07
2.01007e+07
2.00799e+07
2.00603e+07
2.00421e+07
2.00253e+07
2.00098e+07
2.03452e+07
2.03386e+07
2.03264e+07
2.03098e+07
2.02899e+07
2.02677e+07
2.0244e+07
2.02195e+07
2.01947e+07
2.01703e+07
2.01464e+07
2.01234e+07
2.01015e+07
2.00808e+07
2.00614e+07
2.00433e+07
2.00265e+07
2.00111e+07
2.03443e+07
2.03377e+07
2.03256e+07
2.03091e+07
2.02893e+07
2.02673e+07
2.02437e+07
2.02193e+07
2.01947e+07
2.01704e+07
2.01466e+07
2.01237e+07
2.01019e+07
2.00813e+07
2.00619e+07
2.00439e+07
2.00272e+07
2.00118e+07
2.03439e+07
2.03373e+07
2.03253e+07
2.03088e+07
2.02891e+07
2.02671e+07
2.02435e+07
2.02192e+07
2.01947e+07
2.01704e+07
2.01467e+07
2.01238e+07
2.0102e+07
2.00814e+07
2.00621e+07
2.00441e+07
2.00274e+07
2.0012e+07
1.03218e+07
1.03219e+07
1.0322e+07
1.03221e+07
1.03224e+07
1.03226e+07
1.0323e+07
1.03234e+07
1.03238e+07
1.03244e+07
1.03249e+07
1.03256e+07
1.03263e+07
1.03271e+07
1.03279e+07
1.03288e+07
1.03297e+07
1.03307e+07
1.03318e+07
1.0333e+07
1.03342e+07
1.03354e+07
1.03367e+07
1.03381e+07
1.03395e+07
1.0341e+07
1.03426e+07
1.03442e+07
1.03458e+07
1.03476e+07
1.03493e+07
1.03511e+07
1.0353e+07
1.03549e+07
1.03568e+07
1.03588e+07
1.03609e+07
1.03629e+07
1.03651e+07
1.03672e+07
1.03694e+07
1.03717e+07
1.03739e+07
1.03762e+07
1.03786e+07
1.03809e+07
1.03833e+07
1.03857e+07
1.03882e+07
1.03906e+07
1.03931e+07
1.03957e+07
1.03982e+07
1.04008e+07
1.04033e+07
1.04059e+07
1.04085e+07
1.04112e+07
1.04138e+07
1.04165e+07
1.04192e+07
1.04218e+07
1.04245e+07
1.04273e+07
1.043e+07
1.04327e+07
1.04354e+07
1.04382e+07
1.04409e+07
1.04437e+07
1.04465e+07
1.04492e+07
1.0452e+07
1.04548e+07
1.04576e+07
1.04604e+07
1.04631e+07
1.04659e+07
1.04687e+07
1.04715e+07
1.04743e+07
1.04771e+07
1.04799e+07
1.04827e+07
1.04856e+07
1.04884e+07
1.04912e+07
1.0494e+07
1.04968e+07
1.04996e+07
1.05024e+07
1.05052e+07
1.0508e+07
1.05108e+07
1.05136e+07
1.05164e+07
1.05192e+07
1.0522e+07
1.05248e+07
1.05276e+07
1.05304e+07
1.05332e+07
1.0536e+07
1.05388e+07
1.05416e+07
1.05443e+07
1.05471e+07
1.05499e+07
1.05527e+07
1.05555e+07
1.05583e+07
1.05611e+07
1.05639e+07
1.05667e+07
1.05695e+07
1.05723e+07
1.05751e+07
1.05779e+07
1.05807e+07
1.05835e+07
1.05863e+07
1.05892e+07
1.0592e+07
1.05948e+07
1.05977e+07
1.06005e+07
1.06034e+07
1.06062e+07
1.06091e+07
1.0612e+07
1.06149e+07
1.06178e+07
1.06208e+07
1.06237e+07
1.06266e+07
1.06296e+07
1.06326e+07
1.06356e+07
1.06386e+07
1.06416e+07
1.06447e+07
1.06478e+07
1.06508e+07
1.06539e+07
1.0657e+07
1.06602e+07
1.06633e+07
1.06664e+07
1.06696e+07
1.06727e+07
1.06759e+07
1.0679e+07
1.06821e+07
1.06853e+07
1.06883e+07
1.06914e+07
1.06944e+07
1.06973e+07
1.07002e+07
1.0703e+07
1.07056e+07
1.07082e+07
1.07105e+07
1.07127e+07
1.07147e+07
1.07163e+07
1.07177e+07
1.07187e+07
1.07193e+07
1.07195e+07
1.07191e+07
1.07181e+07
1.07165e+07
1.07142e+07
1.07111e+07
1.07072e+07
1.07023e+07
1.06966e+07
1.069e+07
1.06825e+07
1.03216e+07
1.03216e+07
1.03217e+07
1.03219e+07
1.03221e+07
1.03224e+07
1.03227e+07
1.03231e+07
1.03236e+07
1.03241e+07
1.03247e+07
1.03254e+07
1.03261e+07
1.03268e+07
1.03277e+07
1.03286e+07
1.03295e+07
1.03305e+07
1.03316e+07
1.03328e+07
1.0334e+07
1.03352e+07
1.03366e+07
1.0338e+07
1.03394e+07
1.03409e+07
1.03424e+07
1.03441e+07
1.03457e+07
1.03474e+07
1.03492e+07
1.0351e+07
1.03529e+07
1.03548e+07
1.03567e+07
1.03587e+07
1.03608e+07
1.03629e+07
1.0365e+07
1.03672e+07
1.03694e+07
1.03716e+07
1.03739e+07
1.03762e+07
1.03785e+07
1.03809e+07
1.03833e+07
1.03857e+07
1.03881e+07
1.03906e+07
1.03931e+07
1.03956e+07
1.03982e+07
1.04007e+07
1.04033e+07
1.04059e+07
1.04085e+07
1.04112e+07
1.04138e+07
1.04165e+07
1.04192e+07
1.04218e+07
1.04245e+07
1.04273e+07
1.043e+07
1.04327e+07
1.04354e+07
1.04382e+07
1.04409e+07
1.04437e+07
1.04465e+07
1.04492e+07
1.0452e+07
1.04548e+07
1.04576e+07
1.04604e+07
1.04632e+07
1.0466e+07
1.04688e+07
1.04716e+07
1.04744e+07
1.04772e+07
1.048e+07
1.04828e+07
1.04856e+07
1.04884e+07
1.04912e+07
1.0494e+07
1.04968e+07
1.04996e+07
1.05024e+07
1.05052e+07
1.0508e+07
1.05108e+07
1.05136e+07
1.05164e+07
1.05192e+07
1.0522e+07
1.05248e+07
1.05276e+07
1.05304e+07
1.05332e+07
1.0536e+07
1.05388e+07
1.05416e+07
1.05444e+07
1.05471e+07
1.05499e+07
1.05527e+07
1.05555e+07
1.05583e+07
1.05611e+07
1.05639e+07
1.05667e+07
1.05695e+07
1.05723e+07
1.05751e+07
1.05779e+07
1.05807e+07
1.05835e+07
1.05863e+07
1.05892e+07
1.0592e+07
1.05948e+07
1.05977e+07
1.06005e+07
1.06034e+07
1.06062e+07
1.06091e+07
1.0612e+07
1.06149e+07
1.06178e+07
1.06207e+07
1.06237e+07
1.06266e+07
1.06296e+07
1.06326e+07
1.06356e+07
1.06386e+07
1.06416e+07
1.06447e+07
1.06477e+07
1.06508e+07
1.06539e+07
1.0657e+07
1.06601e+07
1.06633e+07
1.06664e+07
1.06696e+07
1.06727e+07
1.06759e+07
1.0679e+07
1.06821e+07
1.06853e+07
1.06884e+07
1.06914e+07
1.06944e+07
1.06974e+07
1.07002e+07
1.0703e+07
1.07057e+07
1.07082e+07
1.07106e+07
1.07128e+07
1.07147e+07
1.07164e+07
1.07178e+07
1.07188e+07
1.07194e+07
1.07196e+07
1.07192e+07
1.07183e+07
1.07167e+07
1.07144e+07
1.07113e+07
1.07073e+07
1.07025e+07
1.06968e+07
1.06901e+07
1.06826e+07
1.03211e+07
1.03211e+07
1.03212e+07
1.03214e+07
1.03216e+07
1.03219e+07
1.03223e+07
1.03227e+07
1.03231e+07
1.03237e+07
1.03243e+07
1.03249e+07
1.03256e+07
1.03264e+07
1.03273e+07
1.03282e+07
1.03291e+07
1.03302e+07
1.03313e+07
1.03324e+07
1.03336e+07
1.03349e+07
1.03363e+07
1.03377e+07
1.03391e+07
1.03406e+07
1.03422e+07
1.03438e+07
1.03455e+07
1.03472e+07
1.0349e+07
1.03508e+07
1.03527e+07
1.03546e+07
1.03566e+07
1.03586e+07
1.03606e+07
1.03627e+07
1.03649e+07
1.03671e+07
1.03693e+07
1.03715e+07
1.03738e+07
1.03761e+07
1.03784e+07
1.03808e+07
1.03832e+07
1.03857e+07
1.03881e+07
1.03906e+07
1.03931e+07
1.03956e+07
1.03982e+07
1.04007e+07
1.04033e+07
1.04059e+07
1.04085e+07
1.04112e+07
1.04138e+07
1.04165e+07
1.04192e+07
1.04219e+07
1.04246e+07
1.04273e+07
1.043e+07
1.04327e+07
1.04355e+07
1.04382e+07
1.0441e+07
1.04437e+07
1.04465e+07
1.04493e+07
1.04521e+07
1.04548e+07
1.04576e+07
1.04604e+07
1.04632e+07
1.0466e+07
1.04688e+07
1.04716e+07
1.04744e+07
1.04772e+07
1.048e+07
1.04828e+07
1.04856e+07
1.04884e+07
1.04912e+07
1.0494e+07
1.04968e+07
1.04996e+07
1.05024e+07
1.05052e+07
1.0508e+07
1.05108e+07
1.05136e+07
1.05164e+07
1.05192e+07
1.0522e+07
1.05248e+07
1.05276e+07
1.05304e+07
1.05332e+07
1.0536e+07
1.05388e+07
1.05416e+07
1.05444e+07
1.05472e+07
1.055e+07
1.05528e+07
1.05555e+07
1.05583e+07
1.05611e+07
1.05639e+07
1.05667e+07
1.05695e+07
1.05723e+07
1.05751e+07
1.05779e+07
1.05807e+07
1.05835e+07
1.05863e+07
1.05892e+07
1.0592e+07
1.05948e+07
1.05977e+07
1.06005e+07
1.06034e+07
1.06062e+07
1.06091e+07
1.0612e+07
1.06149e+07
1.06178e+07
1.06207e+07
1.06237e+07
1.06266e+07
1.06296e+07
1.06326e+07
1.06356e+07
1.06386e+07
1.06416e+07
1.06447e+07
1.06477e+07
1.06508e+07
1.06539e+07
1.0657e+07
1.06601e+07
1.06633e+07
1.06664e+07
1.06696e+07
1.06727e+07
1.06759e+07
1.0679e+07
1.06822e+07
1.06853e+07
1.06884e+07
1.06914e+07
1.06945e+07
1.06974e+07
1.07003e+07
1.07031e+07
1.07058e+07
1.07083e+07
1.07107e+07
1.07129e+07
1.07149e+07
1.07166e+07
1.0718e+07
1.0719e+07
1.07196e+07
1.07198e+07
1.07195e+07
1.07186e+07
1.0717e+07
1.07147e+07
1.07116e+07
1.07077e+07
1.07029e+07
1.06971e+07
1.06904e+07
1.06828e+07
1.03203e+07
1.03204e+07
1.03205e+07
1.03207e+07
1.03209e+07
1.03212e+07
1.03215e+07
1.0322e+07
1.03224e+07
1.0323e+07
1.03236e+07
1.03242e+07
1.0325e+07
1.03258e+07
1.03266e+07
1.03276e+07
1.03285e+07
1.03296e+07
1.03307e+07
1.03319e+07
1.03331e+07
1.03344e+07
1.03358e+07
1.03372e+07
1.03387e+07
1.03402e+07
1.03418e+07
1.03434e+07
1.03451e+07
1.03469e+07
1.03487e+07
1.03505e+07
1.03524e+07
1.03544e+07
1.03563e+07
1.03584e+07
1.03604e+07
1.03626e+07
1.03647e+07
1.03669e+07
1.03691e+07
1.03714e+07
1.03737e+07
1.0376e+07
1.03784e+07
1.03807e+07
1.03832e+07
1.03856e+07
1.03881e+07
1.03906e+07
1.03931e+07
1.03956e+07
1.03982e+07
1.04007e+07
1.04033e+07
1.04059e+07
1.04086e+07
1.04112e+07
1.04139e+07
1.04165e+07
1.04192e+07
1.04219e+07
1.04246e+07
1.04273e+07
1.043e+07
1.04328e+07
1.04355e+07
1.04383e+07
1.0441e+07
1.04438e+07
1.04466e+07
1.04493e+07
1.04521e+07
1.04549e+07
1.04577e+07
1.04605e+07
1.04633e+07
1.04661e+07
1.04689e+07
1.04717e+07
1.04745e+07
1.04773e+07
1.04801e+07
1.04829e+07
1.04857e+07
1.04885e+07
1.04913e+07
1.04941e+07
1.04969e+07
1.04997e+07
1.05025e+07
1.05053e+07
1.05081e+07
1.05109e+07
1.05137e+07
1.05165e+07
1.05193e+07
1.05221e+07
1.05249e+07
1.05277e+07
1.05305e+07
1.05333e+07
1.0536e+07
1.05388e+07
1.05416e+07
1.05444e+07
1.05472e+07
1.055e+07
1.05528e+07
1.05556e+07
1.05584e+07
1.05612e+07
1.05639e+07
1.05667e+07
1.05695e+07
1.05723e+07
1.05751e+07
1.05779e+07
1.05807e+07
1.05836e+07
1.05864e+07
1.05892e+07
1.0592e+07
1.05948e+07
1.05977e+07
1.06005e+07
1.06034e+07
1.06063e+07
1.06091e+07
1.0612e+07
1.06149e+07
1.06178e+07
1.06207e+07
1.06237e+07
1.06266e+07
1.06296e+07
1.06326e+07
1.06356e+07
1.06386e+07
1.06416e+07
1.06447e+07
1.06477e+07
1.06508e+07
1.06539e+07
1.0657e+07
1.06602e+07
1.06633e+07
1.06664e+07
1.06696e+07
1.06727e+07
1.06759e+07
1.06791e+07
1.06822e+07
1.06853e+07
1.06884e+07
1.06915e+07
1.06945e+07
1.06975e+07
1.07004e+07
1.07032e+07
1.07059e+07
1.07085e+07
1.07109e+07
1.07131e+07
1.07151e+07
1.07168e+07
1.07182e+07
1.07193e+07
1.072e+07
1.07202e+07
1.07199e+07
1.0719e+07
1.07174e+07
1.07152e+07
1.07121e+07
1.07082e+07
1.07034e+07
1.06977e+07
1.0691e+07
1.06832e+07
1.03193e+07
1.03194e+07
1.03195e+07
1.03197e+07
1.03199e+07
1.03202e+07
1.03206e+07
1.0321e+07
1.03215e+07
1.0322e+07
1.03227e+07
1.03234e+07
1.03241e+07
1.03249e+07
1.03258e+07
1.03268e+07
1.03278e+07
1.03288e+07
1.033e+07
1.03312e+07
1.03325e+07
1.03338e+07
1.03352e+07
1.03366e+07
1.03381e+07
1.03397e+07
1.03413e+07
1.03429e+07
1.03447e+07
1.03464e+07
1.03483e+07
1.03501e+07
1.03521e+07
1.0354e+07
1.0356e+07
1.03581e+07
1.03602e+07
1.03623e+07
1.03645e+07
1.03667e+07
1.03689e+07
1.03712e+07
1.03735e+07
1.03759e+07
1.03782e+07
1.03806e+07
1.03831e+07
1.03855e+07
1.0388e+07
1.03905e+07
1.0393e+07
1.03956e+07
1.03981e+07
1.04007e+07
1.04033e+07
1.04059e+07
1.04086e+07
1.04112e+07
1.04139e+07
1.04166e+07
1.04193e+07
1.0422e+07
1.04247e+07
1.04274e+07
1.04301e+07
1.04329e+07
1.04356e+07
1.04383e+07
1.04411e+07
1.04439e+07
1.04466e+07
1.04494e+07
1.04522e+07
1.0455e+07
1.04578e+07
1.04606e+07
1.04633e+07
1.04661e+07
1.04689e+07
1.04717e+07
1.04745e+07
1.04773e+07
1.04801e+07
1.04829e+07
1.04857e+07
1.04886e+07
1.04914e+07
1.04942e+07
1.0497e+07
1.04998e+07
1.05026e+07
1.05054e+07
1.05082e+07
1.0511e+07
1.05138e+07
1.05166e+07
1.05194e+07
1.05222e+07
1.05249e+07
1.05277e+07
1.05305e+07
1.05333e+07
1.05361e+07
1.05389e+07
1.05417e+07
1.05445e+07
1.05473e+07
1.05501e+07
1.05528e+07
1.05556e+07
1.05584e+07
1.05612e+07
1.0564e+07
1.05668e+07
1.05696e+07
1.05724e+07
1.05752e+07
1.0578e+07
1.05808e+07
1.05836e+07
1.05864e+07
1.05892e+07
1.0592e+07
1.05949e+07
1.05977e+07
1.06006e+07
1.06034e+07
1.06063e+07
1.06091e+07
1.0612e+07
1.06149e+07
1.06178e+07
1.06208e+07
1.06237e+07
1.06266e+07
1.06296e+07
1.06326e+07
1.06356e+07
1.06386e+07
1.06416e+07
1.06447e+07
1.06477e+07
1.06508e+07
1.06539e+07
1.0657e+07
1.06602e+07
1.06633e+07
1.06664e+07
1.06696e+07
1.06728e+07
1.06759e+07
1.06791e+07
1.06822e+07
1.06854e+07
1.06885e+07
1.06916e+07
1.06946e+07
1.06976e+07
1.07005e+07
1.07033e+07
1.07061e+07
1.07086e+07
1.07111e+07
1.07133e+07
1.07154e+07
1.07171e+07
1.07186e+07
1.07197e+07
1.07204e+07
1.07207e+07
1.07204e+07
1.07196e+07
1.07181e+07
1.07158e+07
1.07128e+07
1.0709e+07
1.07042e+07
1.06984e+07
1.06916e+07
1.06839e+07
1.0318e+07
1.03181e+07
1.03182e+07
1.03184e+07
1.03187e+07
1.0319e+07
1.03194e+07
1.03198e+07
1.03203e+07
1.03209e+07
1.03215e+07
1.03222e+07
1.0323e+07
1.03239e+07
1.03248e+07
1.03258e+07
1.03268e+07
1.03279e+07
1.03291e+07
1.03303e+07
1.03316e+07
1.0333e+07
1.03344e+07
1.03359e+07
1.03374e+07
1.0339e+07
1.03406e+07
1.03423e+07
1.03441e+07
1.03459e+07
1.03478e+07
1.03497e+07
1.03516e+07
1.03536e+07
1.03557e+07
1.03577e+07
1.03599e+07
1.0362e+07
1.03642e+07
1.03664e+07
1.03687e+07
1.0371e+07
1.03734e+07
1.03757e+07
1.03781e+07
1.03805e+07
1.0383e+07
1.03854e+07
1.03879e+07
1.03905e+07
1.0393e+07
1.03956e+07
1.03981e+07
1.04007e+07
1.04033e+07
1.0406e+07
1.04086e+07
1.04113e+07
1.04139e+07
1.04166e+07
1.04193e+07
1.0422e+07
1.04247e+07
1.04275e+07
1.04302e+07
1.04329e+07
1.04357e+07
1.04384e+07
1.04412e+07
1.0444e+07
1.04467e+07
1.04495e+07
1.04523e+07
1.04551e+07
1.04579e+07
1.04607e+07
1.04635e+07
1.04663e+07
1.04691e+07
1.04719e+07
1.04747e+07
1.04775e+07
1.04803e+07
1.04831e+07
1.04859e+07
1.04887e+07
1.04915e+07
1.04943e+07
1.04971e+07
1.04999e+07
1.05027e+07
1.05055e+07
1.05083e+07
1.05111e+07
1.05139e+07
1.05167e+07
1.05194e+07
1.05222e+07
1.0525e+07
1.05278e+07
1.05306e+07
1.05334e+07
1.05362e+07
1.0539e+07
1.05418e+07
1.05446e+07
1.05473e+07
1.05501e+07
1.05529e+07
1.05557e+07
1.05585e+07
1.05613e+07
1.05641e+07
1.05668e+07
1.05696e+07
1.05724e+07
1.05752e+07
1.0578e+07
1.05808e+07
1.05836e+07
1.05864e+07
1.05892e+07
1.05921e+07
1.05949e+07
1.05977e+07
1.06006e+07
1.06034e+07
1.06063e+07
1.06092e+07
1.0612e+07
1.06149e+07
1.06178e+07
1.06208e+07
1.06237e+07
1.06267e+07
1.06296e+07
1.06326e+07
1.06356e+07
1.06386e+07
1.06416e+07
1.06447e+07
1.06478e+07
1.06508e+07
1.06539e+07
1.0657e+07
1.06602e+07
1.06633e+07
1.06665e+07
1.06696e+07
1.06728e+07
1.0676e+07
1.06791e+07
1.06823e+07
1.06854e+07
1.06886e+07
1.06917e+07
1.06947e+07
1.06977e+07
1.07007e+07
1.07035e+07
1.07063e+07
1.07089e+07
1.07114e+07
1.07136e+07
1.07157e+07
1.07175e+07
1.0719e+07
1.07202e+07
1.0721e+07
1.07213e+07
1.07211e+07
1.07203e+07
1.07189e+07
1.07167e+07
1.07137e+07
1.07099e+07
1.07051e+07
1.06993e+07
1.06925e+07
1.06847e+07
1.03165e+07
1.03166e+07
1.03167e+07
1.03169e+07
1.03172e+07
1.03175e+07
1.03179e+07
1.03183e+07
1.03189e+07
1.03195e+07
1.03202e+07
1.03209e+07
1.03217e+07
1.03226e+07
1.03235e+07
1.03245e+07
1.03256e+07
1.03268e+07
1.0328e+07
1.03293e+07
1.03306e+07
1.0332e+07
1.03335e+07
1.0335e+07
1.03366e+07
1.03382e+07
1.03399e+07
1.03416e+07
1.03434e+07
1.03453e+07
1.03472e+07
1.03491e+07
1.03511e+07
1.03531e+07
1.03552e+07
1.03573e+07
1.03595e+07
1.03617e+07
1.03639e+07
1.03662e+07
1.03685e+07
1.03708e+07
1.03731e+07
1.03755e+07
1.0378e+07
1.03804e+07
1.03829e+07
1.03854e+07
1.03879e+07
1.03904e+07
1.0393e+07
1.03955e+07
1.03981e+07
1.04007e+07
1.04034e+07
1.0406e+07
1.04087e+07
1.04113e+07
1.0414e+07
1.04167e+07
1.04194e+07
1.04221e+07
1.04248e+07
1.04276e+07
1.04303e+07
1.04331e+07
1.04358e+07
1.04386e+07
1.04413e+07
1.04441e+07
1.04469e+07
1.04497e+07
1.04524e+07
1.04552e+07
1.0458e+07
1.04608e+07
1.04636e+07
1.04664e+07
1.04692e+07
1.0472e+07
1.04748e+07
1.04776e+07
1.04804e+07
1.04832e+07
1.0486e+07
1.04888e+07
1.04916e+07
1.04944e+07
1.04972e+07
1.05e+07
1.05028e+07
1.05056e+07
1.05084e+07
1.05112e+07
1.0514e+07
1.05168e+07
1.05196e+07
1.05224e+07
1.05251e+07
1.05279e+07
1.05307e+07
1.05335e+07
1.05363e+07
1.05391e+07
1.05419e+07
1.05446e+07
1.05474e+07
1.05502e+07
1.0553e+07
1.05558e+07
1.05586e+07
1.05613e+07
1.05641e+07
1.05669e+07
1.05697e+07
1.05725e+07
1.05753e+07
1.05781e+07
1.05809e+07
1.05837e+07
1.05865e+07
1.05893e+07
1.05921e+07
1.05949e+07
1.05978e+07
1.06006e+07
1.06035e+07
1.06063e+07
1.06092e+07
1.06121e+07
1.0615e+07
1.06179e+07
1.06208e+07
1.06237e+07
1.06267e+07
1.06296e+07
1.06326e+07
1.06356e+07
1.06386e+07
1.06416e+07
1.06447e+07
1.06478e+07
1.06508e+07
1.06539e+07
1.06571e+07
1.06602e+07
1.06633e+07
1.06665e+07
1.06697e+07
1.06728e+07
1.0676e+07
1.06792e+07
1.06824e+07
1.06855e+07
1.06887e+07
1.06918e+07
1.06949e+07
1.06979e+07
1.07009e+07
1.07037e+07
1.07065e+07
1.07092e+07
1.07117e+07
1.0714e+07
1.07161e+07
1.0718e+07
1.07196e+07
1.07208e+07
1.07217e+07
1.0722e+07
1.07219e+07
1.07212e+07
1.07198e+07
1.07177e+07
1.07148e+07
1.0711e+07
1.07062e+07
1.07005e+07
1.06936e+07
1.06857e+07
1.03147e+07
1.03148e+07
1.03149e+07
1.03151e+07
1.03154e+07
1.03157e+07
1.03161e+07
1.03166e+07
1.03172e+07
1.03178e+07
1.03185e+07
1.03193e+07
1.03201e+07
1.03211e+07
1.03221e+07
1.03231e+07
1.03242e+07
1.03254e+07
1.03267e+07
1.0328e+07
1.03294e+07
1.03309e+07
1.03324e+07
1.03339e+07
1.03356e+07
1.03373e+07
1.0339e+07
1.03408e+07
1.03426e+07
1.03445e+07
1.03465e+07
1.03485e+07
1.03505e+07
1.03526e+07
1.03547e+07
1.03568e+07
1.0359e+07
1.03613e+07
1.03635e+07
1.03658e+07
1.03682e+07
1.03705e+07
1.03729e+07
1.03753e+07
1.03778e+07
1.03802e+07
1.03827e+07
1.03853e+07
1.03878e+07
1.03903e+07
1.03929e+07
1.03955e+07
1.03981e+07
1.04007e+07
1.04034e+07
1.0406e+07
1.04087e+07
1.04114e+07
1.04141e+07
1.04168e+07
1.04195e+07
1.04222e+07
1.04249e+07
1.04277e+07
1.04304e+07
1.04332e+07
1.04359e+07
1.04387e+07
1.04415e+07
1.04442e+07
1.0447e+07
1.04498e+07
1.04526e+07
1.04554e+07
1.04582e+07
1.0461e+07
1.04638e+07
1.04666e+07
1.04694e+07
1.04722e+07
1.04749e+07
1.04777e+07
1.04805e+07
1.04833e+07
1.04861e+07
1.04889e+07
1.04917e+07
1.04945e+07
1.04973e+07
1.05001e+07
1.05029e+07
1.05057e+07
1.05085e+07
1.05113e+07
1.05141e+07
1.05169e+07
1.05197e+07
1.05225e+07
1.05253e+07
1.05281e+07
1.05308e+07
1.05336e+07
1.05364e+07
1.05392e+07
1.0542e+07
1.05448e+07
1.05475e+07
1.05503e+07
1.05531e+07
1.05559e+07
1.05587e+07
1.05614e+07
1.05642e+07
1.0567e+07
1.05698e+07
1.05726e+07
1.05754e+07
1.05781e+07
1.05809e+07
1.05837e+07
1.05865e+07
1.05894e+07
1.05922e+07
1.0595e+07
1.05978e+07
1.06007e+07
1.06035e+07
1.06064e+07
1.06092e+07
1.06121e+07
1.0615e+07
1.06179e+07
1.06208e+07
1.06237e+07
1.06267e+07
1.06296e+07
1.06326e+07
1.06356e+07
1.06386e+07
1.06417e+07
1.06447e+07
1.06478e+07
1.06509e+07
1.0654e+07
1.06571e+07
1.06602e+07
1.06634e+07
1.06665e+07
1.06697e+07
1.06729e+07
1.06761e+07
1.06793e+07
1.06825e+07
1.06856e+07
1.06888e+07
1.06919e+07
1.0695e+07
1.06981e+07
1.07011e+07
1.0704e+07
1.07068e+07
1.07095e+07
1.07121e+07
1.07145e+07
1.07166e+07
1.07186e+07
1.07202e+07
1.07215e+07
1.07224e+07
1.07229e+07
1.07229e+07
1.07222e+07
1.07209e+07
1.07189e+07
1.0716e+07
1.07123e+07
1.07076e+07
1.07018e+07
1.06949e+07
1.06869e+07
1.03126e+07
1.03126e+07
1.03128e+07
1.0313e+07
1.03133e+07
1.03137e+07
1.03141e+07
1.03146e+07
1.03152e+07
1.03159e+07
1.03166e+07
1.03175e+07
1.03184e+07
1.03193e+07
1.03204e+07
1.03215e+07
1.03227e+07
1.03239e+07
1.03252e+07
1.03266e+07
1.03281e+07
1.03296e+07
1.03311e+07
1.03328e+07
1.03345e+07
1.03362e+07
1.0338e+07
1.03398e+07
1.03418e+07
1.03437e+07
1.03457e+07
1.03477e+07
1.03498e+07
1.03519e+07
1.03541e+07
1.03563e+07
1.03586e+07
1.03608e+07
1.03631e+07
1.03655e+07
1.03678e+07
1.03702e+07
1.03727e+07
1.03751e+07
1.03776e+07
1.03801e+07
1.03826e+07
1.03851e+07
1.03877e+07
1.03903e+07
1.03929e+07
1.03955e+07
1.03981e+07
1.04008e+07
1.04034e+07
1.04061e+07
1.04088e+07
1.04115e+07
1.04142e+07
1.04169e+07
1.04196e+07
1.04223e+07
1.04251e+07
1.04278e+07
1.04306e+07
1.04333e+07
1.04361e+07
1.04389e+07
1.04416e+07
1.04444e+07
1.04472e+07
1.045e+07
1.04528e+07
1.04556e+07
1.04584e+07
1.04612e+07
1.04639e+07
1.04667e+07
1.04695e+07
1.04723e+07
1.04751e+07
1.04779e+07
1.04807e+07
1.04835e+07
1.04863e+07
1.04891e+07
1.04919e+07
1.04947e+07
1.04975e+07
1.05003e+07
1.05031e+07
1.05059e+07
1.05087e+07
1.05115e+07
1.05143e+07
1.05171e+07
1.05199e+07
1.05226e+07
1.05254e+07
1.05282e+07
1.0531e+07
1.05338e+07
1.05365e+07
1.05393e+07
1.05421e+07
1.05449e+07
1.05477e+07
1.05504e+07
1.05532e+07
1.0556e+07
1.05588e+07
1.05615e+07
1.05643e+07
1.05671e+07
1.05699e+07
1.05727e+07
1.05754e+07
1.05782e+07
1.0581e+07
1.05838e+07
1.05866e+07
1.05894e+07
1.05922e+07
1.0595e+07
1.05979e+07
1.06007e+07
1.06035e+07
1.06064e+07
1.06093e+07
1.06121e+07
1.0615e+07
1.06179e+07
1.06208e+07
1.06238e+07
1.06267e+07
1.06297e+07
1.06326e+07
1.06356e+07
1.06386e+07
1.06417e+07
1.06447e+07
1.06478e+07
1.06509e+07
1.0654e+07
1.06571e+07
1.06602e+07
1.06634e+07
1.06666e+07
1.06697e+07
1.06729e+07
1.06761e+07
1.06793e+07
1.06826e+07
1.06857e+07
1.06889e+07
1.06921e+07
1.06952e+07
1.06983e+07
1.07013e+07
1.07043e+07
1.07071e+07
1.07099e+07
1.07125e+07
1.0715e+07
1.07172e+07
1.07192e+07
1.07209e+07
1.07223e+07
1.07233e+07
1.07239e+07
1.0724e+07
1.07234e+07
1.07222e+07
1.07203e+07
1.07175e+07
1.07138e+07
1.07091e+07
1.07033e+07
1.06965e+07
1.06884e+07
1.03101e+07
1.03102e+07
1.03104e+07
1.03106e+07
1.03109e+07
1.03113e+07
1.03118e+07
1.03123e+07
1.0313e+07
1.03137e+07
1.03145e+07
1.03154e+07
1.03163e+07
1.03173e+07
1.03184e+07
1.03196e+07
1.03209e+07
1.03222e+07
1.03236e+07
1.0325e+07
1.03265e+07
1.03281e+07
1.03297e+07
1.03314e+07
1.03332e+07
1.0335e+07
1.03369e+07
1.03388e+07
1.03408e+07
1.03428e+07
1.03448e+07
1.03469e+07
1.03491e+07
1.03513e+07
1.03535e+07
1.03557e+07
1.0358e+07
1.03603e+07
1.03627e+07
1.03651e+07
1.03675e+07
1.03699e+07
1.03724e+07
1.03749e+07
1.03774e+07
1.03799e+07
1.03825e+07
1.0385e+07
1.03876e+07
1.03902e+07
1.03929e+07
1.03955e+07
1.03981e+07
1.04008e+07
1.04035e+07
1.04062e+07
1.04089e+07
1.04116e+07
1.04143e+07
1.0417e+07
1.04198e+07
1.04225e+07
1.04252e+07
1.0428e+07
1.04308e+07
1.04335e+07
1.04363e+07
1.04391e+07
1.04418e+07
1.04446e+07
1.04474e+07
1.04502e+07
1.0453e+07
1.04558e+07
1.04586e+07
1.04614e+07
1.04642e+07
1.0467e+07
1.04698e+07
1.04726e+07
1.04753e+07
1.04781e+07
1.04809e+07
1.04837e+07
1.04865e+07
1.04893e+07
1.04921e+07
1.04949e+07
1.04977e+07
1.05005e+07
1.05033e+07
1.05061e+07
1.05089e+07
1.05117e+07
1.05145e+07
1.05172e+07
1.052e+07
1.05228e+07
1.05256e+07
1.05284e+07
1.05312e+07
1.05339e+07
1.05367e+07
1.05395e+07
1.05423e+07
1.0545e+07
1.05478e+07
1.05506e+07
1.05533e+07
1.05561e+07
1.05589e+07
1.05617e+07
1.05644e+07
1.05672e+07
1.057e+07
1.05728e+07
1.05755e+07
1.05783e+07
1.05811e+07
1.05839e+07
1.05867e+07
1.05895e+07
1.05923e+07
1.05951e+07
1.05979e+07
1.06008e+07
1.06036e+07
1.06064e+07
1.06093e+07
1.06122e+07
1.06151e+07
1.06179e+07
1.06209e+07
1.06238e+07
1.06267e+07
1.06297e+07
1.06327e+07
1.06356e+07
1.06387e+07
1.06417e+07
1.06447e+07
1.06478e+07
1.06509e+07
1.0654e+07
1.06571e+07
1.06603e+07
1.06634e+07
1.06666e+07
1.06698e+07
1.0673e+07
1.06762e+07
1.06794e+07
1.06827e+07
1.06859e+07
1.06891e+07
1.06923e+07
1.06954e+07
1.06985e+07
1.07016e+07
1.07046e+07
1.07075e+07
1.07103e+07
1.0713e+07
1.07155e+07
1.07178e+07
1.07199e+07
1.07217e+07
1.07232e+07
1.07243e+07
1.0725e+07
1.07252e+07
1.07248e+07
1.07237e+07
1.07218e+07
1.07191e+07
1.07155e+07
1.07109e+07
1.07051e+07
1.06982e+07
1.06901e+07
1.03073e+07
1.03074e+07
1.03076e+07
1.03079e+07
1.03082e+07
1.03086e+07
1.03092e+07
1.03098e+07
1.03104e+07
1.03112e+07
1.03121e+07
1.0313e+07
1.0314e+07
1.03151e+07
1.03163e+07
1.03175e+07
1.03188e+07
1.03202e+07
1.03217e+07
1.03232e+07
1.03248e+07
1.03265e+07
1.03282e+07
1.033e+07
1.03318e+07
1.03337e+07
1.03357e+07
1.03377e+07
1.03397e+07
1.03418e+07
1.03439e+07
1.03461e+07
1.03483e+07
1.03505e+07
1.03528e+07
1.03551e+07
1.03575e+07
1.03598e+07
1.03622e+07
1.03647e+07
1.03671e+07
1.03696e+07
1.03721e+07
1.03746e+07
1.03772e+07
1.03798e+07
1.03823e+07
1.03849e+07
1.03876e+07
1.03902e+07
1.03928e+07
1.03955e+07
1.03982e+07
1.04009e+07
1.04036e+07
1.04063e+07
1.0409e+07
1.04117e+07
1.04144e+07
1.04172e+07
1.04199e+07
1.04227e+07
1.04254e+07
1.04282e+07
1.0431e+07
1.04337e+07
1.04365e+07
1.04393e+07
1.04421e+07
1.04449e+07
1.04476e+07
1.04504e+07
1.04532e+07
1.0456e+07
1.04588e+07
1.04616e+07
1.04644e+07
1.04672e+07
1.047e+07
1.04728e+07
1.04756e+07
1.04784e+07
1.04812e+07
1.0484e+07
1.04868e+07
1.04896e+07
1.04924e+07
1.04952e+07
1.04979e+07
1.05007e+07
1.05035e+07
1.05063e+07
1.05091e+07
1.05119e+07
1.05147e+07
1.05174e+07
1.05202e+07
1.0523e+07
1.05258e+07
1.05286e+07
1.05313e+07
1.05341e+07
1.05369e+07
1.05396e+07
1.05424e+07
1.05452e+07
1.0548e+07
1.05507e+07
1.05535e+07
1.05563e+07
1.0559e+07
1.05618e+07
1.05646e+07
1.05673e+07
1.05701e+07
1.05729e+07
1.05756e+07
1.05784e+07
1.05812e+07
1.0584e+07
1.05868e+07
1.05896e+07
1.05924e+07
1.05952e+07