/*--------------------------------*- C++ -*----------------------------------*\
  =========                 |
  \\      /  F ield         | OpenFOAM: The Open Source CFD Toolbox
   \\    /   O peration     | Website:  https://openfoam.org
    \\  /    A nd           | Version:  10
     \\/     M anipulation  |
\*---------------------------------------------------------------------------*/
FoamFile
{
    format      ascii;
    class       volVectorField;
    location    "0.86";
    object      Ub;
}
// * * * * * * * * * * * * * * * * * * * * * * * * * * * * * * * * * * * * * //

dimensions      [0 1 -1 0 0 0 0];

internalField   nonuniform List<vector> 
12225
(
(0.00212673 -0.000432347 0)
(0.00607109 -0.000385362 0)
(0.0093247 -0.000317875 0)
(0.0118431 -0.000250521 0)
(0.013726 -0.000193968 0)
(0.0151218 -0.000151283 0)
(0.0161736 -0.000121742 0)
(0.0169996 -0.000103422 0)
(0.0176919 -9.45314e-05 0)
(0.0183221 -9.39805e-05 0)
(0.0189503 -0.0001017 0)
(0.0196334 -0.000119041 0)
(0.0204371 -0.000149704 0)
(0.0214548 -0.000202134 0)
(0.0228495 -0.000296553 0)
(0.0249741 -0.000490001 0)
(0.0288411 -0.000995259 0)
(0.0387896 -0.00298122 0)
(0.00229442 -0.00136374 0)
(0.00654124 -0.00121351 0)
(0.0100269 -0.000998677 0)
(0.0127085 -0.000785033 0)
(0.0147005 -0.000606209 0)
(0.0161679 -0.000471608 0)
(0.0172676 -0.000378672 0)
(0.0181274 -0.000321156 0)
(0.0188462 -0.00029328 0)
(0.0194999 -0.000291516 0)
(0.0201515 -0.000315528 0)
(0.0208598 -0.000369368 0)
(0.0216913 -0.000464211 0)
(0.0227378 -0.000625335 0)
(0.0241511 -0.000911824 0)
(0.0262224 -0.00148149 0)
(0.029544 -0.00285436 0)
(0.0346132 -0.00726093 0)
(0.00241543 -0.00242553 0)
(0.00687333 -0.00215245 0)
(0.0105058 -0.00176473 0)
(0.0132754 -0.00138147 0)
(0.0153133 -0.00106235 0)
(0.0168007 -0.000823233 0)
(0.0179058 -0.000658742 0)
(0.0187636 -0.000557233 0)
(0.0194767 -0.000508081 0)
(0.0201234 -0.000504737 0)
(0.0207667 -0.000546235 0)
(0.0214643 -0.000639082 0)
(0.0222787 -0.000801504 0)
(0.0232904 -0.00107396 0)
(0.0246181 -0.00154683 0)
(0.0264388 -0.00243993 0)
(0.0289111 -0.00435069 0)
(0.0312475 -0.00899209 0)
(0.00253586 -0.0036211 0)
(0.00719747 -0.00320173 0)
(0.0109585 -0.00261192 0)
(0.0137915 -0.00203376 0)
(0.0158505 -0.00155584 0)
(0.0173357 -0.00119987 0)
(0.0184276 -0.000956166 0)
(0.0192677 -0.000806276 0)
(0.0199615 -0.000733686 0)
(0.0205878 -0.000728082 0)
(0.0212084 -0.000787272 0)
(0.0218776 -0.000919478 0)
(0.02265 -0.00114843 0)
(0.0235888 -0.0015254 0)
(0.0247683 -0.0021578 0)
(0.0262494 -0.00327744 0)
(0.0279144 -0.00539028 0)
(0.0287912 -0.00944652 0)
(0.002671 -0.00496799 0)
(0.00755463 -0.00437163 0)
(0.011442 -0.00354324 0)
(0.014323 -0.00274033 0)
(0.0163828 -0.00208301 0)
(0.0178462 -0.00159725 0)
(0.0189077 -0.00126674 0)
(0.0197157 -0.00106428 0)
(0.0203775 -0.000966136 0)
(0.0209712 -0.000957262 0)
(0.0215561 -0.00103337 0)
(0.0221809 -0.00120315 0)
(0.0228899 -0.00149332 0)
(0.023725 -0.00195975 0)
(0.0247163 -0.00271063 0)
(0.0258356 -0.00394894 0)
(0.0268449 -0.0060211 0)
(0.0269569 -0.00930669 0)
(0.00283278 -0.00649327 0)
(0.00797472 -0.00567794 0)
(0.011994 -0.00456352 0)
(0.0149085 -0.00349933 0)
(0.0169474 -0.00263909 0)
(0.0183674 -0.00200985 0)
(0.0193798 -0.00158505 0)
(0.0201398 -0.00132617 0)
(0.0207559 -0.0012005 0)
(0.0213043 -0.00118704 0)
(0.0218401 -0.00127826 0)
(0.022405 -0.00148166 0)
(0.0230316 -0.00182374 0)
(0.0237404 -0.00235823 0)
(0.0245245 -0.00318012 0)
(0.0253036 -0.004441 0)
(0.0258234 -0.0063321 0)
(0.0255441 -0.00890783 0)
(0.00303458 -0.00823543 0)
(0.00848955 -0.00714175 0)
(0.0126508 -0.0056779 0)
(0.0155814 -0.00430694 0)
(0.0175728 -0.00321673 0)
(0.0189233 -0.00242966 0)
(0.0198644 -0.00190359 0)
(0.0205581 -0.00158509 0)
(0.0211131 -0.0014303 0)
(0.0216024 -0.00141078 0)
(0.0220755 -0.00151435 0)
(0.0225661 -0.0017454 0)
(0.0230945 -0.0021269 0)
(0.0236628 -0.00270446 0)
(0.0242391 -0.00355091 0)
(0.0247229 -0.00476155 0)
(0.0248967 -0.00641041 0)
(0.0244261 -0.00840639 0)
(0.00329425 -0.0102489 0)
(0.0091395 -0.00879022 0)
(0.0134546 -0.0068904 0)
(0.0163763 -0.00515539 0)
(0.0182851 -0.00380433 0)
(0.0195334 -0.00284503 0)
(0.0203765 -0.0022119 0)
(0.0209827 -0.00183184 0)
(0.0214594 -0.00164712 0)
(0.0218747 -0.00162017 0)
(0.0222715 -0.00173266 0)
(0.0226748 -0.00198392 0)
(0.0230935 -0.00239041 0)
(0.0235158 -0.00298556 0)
(0.0238968 -0.0038167 0)
(0.0241384 -0.00493004 0)
(0.024077 -0.00632621 0)
(0.0235213 -0.00787178 0)
(0.00363786 -0.0126119 0)
(0.00998092 -0.0106575 0)
(0.0144595 -0.0082014 0)
(0.0173337 -0.00603012 0)
(0.0191117 -0.00438387 0)
(0.0202159 -0.00323917 0)
(0.0209282 -0.00249563 0)
(0.0214222 -0.00205424 0)
(0.0218015 -0.00184024 0)
(0.0221273 -0.00180512 0)
(0.0224346 -0.00192292 0)
(0.0227395 -0.00218627 0)
(0.0230415 -0.00260303 0)
(0.0233199 -0.0031926 0)
(0.0235262 -0.00397829 0)
(0.0235773 -0.00496992 0)
(0.0233609 -0.00613046 0)
(0.022776 -0.00733269 0)
(0.00410581 -0.0154406 0)
(0.011097 -0.0127853 0)
(0.015739 -0.00960287 0)
(0.018503 -0.00690508 0)
(0.0200822 -0.00492762 0)
(0.0209877 -0.00358819 0)
(0.0215295 -0.0027354 0)
(0.0218827 -0.00223655 0)
(0.0221436 -0.00199636 0)
(0.0223641 -0.00195368 0)
(0.0225697 -0.00207381 0)
(0.0227679 -0.00234152 0)
(0.0229507 -0.00275519 0)
(0.0230926 -0.00332049 0)
(0.0231487 -0.00404112 0)
(0.0230545 -0.00490386 0)
(0.0227386 -0.00585793 0)
(0.0221532 -0.00679944 0)
(0.00476426 -0.0189129 0)
(0.0126167 -0.0152211 0)
(0.0173954 -0.0110689 0)
(0.0199447 -0.0077351 0)
(0.0212278 -0.00539364 0)
(0.0218638 -0.00385865 0)
(0.0221871 -0.00290557 0)
(0.0223672 -0.00235887 0)
(0.0224876 -0.00209941 0)
(0.0225871 -0.00205219 0)
(0.0226805 -0.00217323 0)
(0.0227667 -0.00243919 0)
(0.0228316 -0.00283922 0)
(0.0228486 -0.00336725 0)
(0.022779 -0.00401306 0)
(0.0225765 -0.00475133 0)
(0.0221986 -0.0055312 0)
(0.0216263 -0.00627419 0)
(0.00565888 -0.0228937 0)
(0.014599 -0.0177661 0)
(0.019427 -0.0124265 0)
(0.0216188 -0.00840109 0)
(0.0225002 -0.00570702 0)
(0.0228024 -0.00400423 0)
(0.0228707 -0.00297648 0)
(0.0228575 -0.00240077 0)
(0.0228263 -0.00213391 0)
(0.0228 -0.00208802 0)
(0.0227813 -0.00221089 0)
(0.0227609 -0.00247227 0)
(0.0227204 -0.00285395 0)
(0.0226337 -0.00334151 0)
(0.0224684 -0.00391656 0)
(0.0221913 -0.00454945 0)
(0.0217772 -0.00519488 0)
(0.0212207 -0.00579482 0)
(0.00690889 -0.0280095 0)
(0.0172367 -0.0205896 0)
(0.02193 -0.0136567 0)
(0.0235442 -0.00884606 0)
(0.0238797 -0.00581716 0)
(0.023768 -0.00398738 0)
(0.0235387 -0.00292152 0)
(0.0233098 -0.00234348 0)
(0.0231156 -0.00208664 0)
(0.0229584 -0.00205198 0)
(0.0228272 -0.00218082 0)
(0.0227041 -0.00243772 0)
(0.0225673 -0.00279923 0)
(0.0223912 -0.00324572 0)
(0.0221495 -0.00375501 0)
(0.0218186 -0.00429775 0)
(0.0213847 -0.00483613 0)
(0.0208487 -0.00532779 0)
(0.00916144 -0.0360117 0)
(0.021687 -0.0240635 0)
(0.0257291 -0.0146762 0)
(0.0262265 -0.00891856 0)
(0.0256798 -0.00559627 0)
(0.0249654 -0.00371335 0)
(0.0243323 -0.00267201 0)
(0.0238251 -0.00213688 0)
(0.023429 -0.00192035 0)
(0.0231154 -0.0019157 0)
(0.0228549 -0.00206057 0)
(0.0226196 -0.00231659 0)
(0.0223829 -0.00265733 0)
(0.0221201 -0.00306067 0)
(0.0218098 -0.00350378 0)
(0.0214357 -0.00396059 0)
(0.0209906 -0.00440192 0)
(0.0204783 -0.00479874 0)
(0.0137612 -0.0500013 0)
(0.0299389 -0.027618 0)
(0.0316827 -0.0146069 0)
(0.0299312 -0.0080223 0)
(0.0279501 -0.00468241 0)
(0.0263771 -0.00295982 0)
(0.0252177 -0.00208429 0)
(0.0243694 -0.00168207 0)
(0.0237369 -0.00156239 0)
(0.0232477 -0.00162248 0)
(0.022848 -0.00180368 0)
(0.0224972 -0.0020698 0)
(0.0221635 -0.00239553 0)
(0.021822 -0.00275998 0)
(0.0214541 -0.00314309 0)
(0.0210481 -0.00352433 0)
(0.0205999 -0.00388322 0)
(0.0201129 -0.00420136 0)
(0.0249354 -0.0790244 0)
(0.0473221 -0.0271589 0)
(0.0410124 -0.0108748 0)
(0.034693 -0.00492274 0)
(0.0305079 -0.00247001 0)
(0.0278261 -0.0014035 0)
(0.0260597 -0.000968271 0)
(0.0248469 -0.000856053 0)
(0.023974 -0.000925752 0)
(0.0233117 -0.001106 0)
(0.0227785 -0.00135694 0)
(0.0223203 -0.00165379 0)
(0.0219 -0.00197861 0)
(0.021492 -0.00231635 0)
(0.0210795 -0.00265299 0)
(0.0206526 -0.00297503 0)
(0.0202079 -0.00327012 0)
(0.0197472 -0.00352808 0)
(0.0594031 0.000889394 0)
(0.090968 0.00326274 0)
(0.0533345 0.00275221 0)
(0.0391923 0.00216944 0)
(0.0325484 0.00168184 0)
(0.028881 0.00124927 0)
(0.0266201 0.000844422 0)
(0.0251108 0.000454643 0)
(0.0240367 7.39296e-05 0)
(0.0232267 -0.000300309 0)
(0.0225795 -0.00066691 0)
(0.0220313 -0.00102509 0)
(0.0215416 -0.00137245 0)
(0.0210844 -0.00170446 0)
(0.0206431 -0.00201569 0)
(0.0202083 -0.00230058 0)
(0.0197755 -0.00255412 0)
(0.0193442 -0.00277248 0)
(0.0205066 0.0763651 0)
(0.0405644 0.0321109 0)
(0.0374784 0.0165125 0)
(0.0327321 0.00977855 0)
(0.0291671 0.00633521 0)
(0.0267151 0.00431474 0)
(0.0250186 0.00298888 0)
(0.0238059 0.00203656 0)
(0.0229018 0.00130191 0)
(0.0221954 0.000703405 0)
(0.0216168 0.000197572 0)
(0.0211211 -0.000241845 0)
(0.0206772 -0.000627768 0)
(0.0202637 -0.000969428 0)
(0.0198684 -0.00127235 0)
(0.0194844 -0.00153844 0)
(0.0191087 -0.00176875 0)
(0.0187401 -0.00196424 0)
(0.00784236 0.040559 0)
(0.0187757 0.02797 0)
(0.0226769 0.0186136 0)
(0.0234578 0.0126317 0)
(0.023149 0.00881867 0)
(0.0225494 0.00630145 0)
(0.0219342 0.00456255 0)
(0.0213813 0.00330505 0)
(0.0208997 0.00235654 0)
(0.020478 0.00161443 0)
(0.0201009 0.00101602 0)
(0.019755 0.000521932 0)
(0.0194306 0.000109413 0)
(0.0191217 -0.000239401 0)
(0.0188229 -0.000535435 0)
(0.0185305 -0.000787052 0)
(0.0182432 -0.0010003 0)
(0.017961 -0.00117924 0)
(0.0042763 0.0246135 0)
(0.0112298 0.0203091 0)
(0.0153396 0.0156574 0)
(0.0174748 0.0118042 0)
(0.018493 0.00886791 0)
(0.0189272 0.00668057 0)
(0.0190649 0.00504669 0)
(0.0190522 0.00380891 0)
(0.0189613 0.00285355 0)
(0.0188278 0.00210163 0)
(0.018669 0.00149889 0)
(0.0184939 0.00100807 0)
(0.0183072 0.000603435 0)
(0.018112 0.000266763 0)
(0.017911 -1.34115e-05 0)
(0.0177067 -0.000247174 0)
(0.0175004 -0.000441976 0)
(0.017293 -0.000604353 0)
(0.0029437 0.0173268 0)
(0.00807629 0.015215 0)
(0.0117168 0.0125247 0)
(0.0140804 0.00998141 0)
(0.0155512 0.00783731 0)
(0.0164469 0.00611513 0)
(0.0169826 0.00475631 0)
(0.0172921 0.0036867 0)
(0.0174566 0.00283995 0)
(0.0175253 0.00216329 0)
(0.0175281 0.00161676 0)
(0.0174844 0.00117082 0)
(0.0174068 0.000803761 0)
(0.0173041 0.000499607 0)
(0.0171829 0.000246539 0)
(0.0170482 3.60134e-05 0)
(0.0169046 -0.000138326 0)
(0.0167551 -0.000282432 0)
(0.00228021 0.0127478 0)
(0.00640283 0.0115395 0)
(0.00960637 0.00985633 0)
(0.0119268 0.00813162 0)
(0.013547 0.00657789 0)
(0.0146585 0.0052627 0)
(0.0154134 0.00418237 0)
(0.0159206 0.00330605 0)
(0.0162546 0.0025972 0)
(0.0164656 0.00202231 0)
(0.0165876 0.0015536 0)
(0.0166442 0.0011691 0)
(0.0166519 0.000851838 0)
(0.0166229 0.000588816 0)
(0.0165661 0.000370085 0)
(0.0164885 0.000187969 0)
(0.0163956 3.66018e-05 0)
(0.0162921 -8.81053e-05 0)
(0.00190282 0.00955884 0)
(0.00541428 0.0088 0)
(0.00828698 0.00768538 0)
(0.0105026 0.00648364 0)
(0.0121539 0.00535217 0)
(0.0133615 0.00435893 0)
(0.0142348 0.00351907 0)
(0.0148607 0.00282237 0)
(0.015304 0.00224923 0)
(0.0156118 0.00177867 0)
(0.0158183 0.00139174 0)
(0.0159482 0.00107253 0)
(0.01602 0.000808225 0)
(0.0160473 0.000588678 0)
(0.0160406 0.00040592 0)
(0.0160078 0.000253685 0)
(0.0159554 0.00012701 0)
(0.0158885 2.20237e-05 0)
(0.00166728 0.00719002 0)
(0.00478231 0.00668722 0)
(0.0074116 0.00592325 0)
(0.00951989 0.0050717 0)
(0.0111562 0.00424567 0)
(0.0124011 0.003502 0)
(0.0133363 0.00286005 0)
(0.0140321 0.0023187 0)
(0.0145446 0.00186768 0)
(0.0149169 0.00149382 0)
(0.015182 0.00118424 0)
(0.0153645 0.000927586 0)
(0.0154833 0.000714358 0)
(0.0155528 0.000536849 0)
(0.0155841 0.00038888 0)
(0.015586 0.000265515 0)
(0.0155652 0.000162799 0)
(0.0155273 7.75459e-05 0)
(0.00150942 0.00535476 0)
(0.00435172 0.00501317 0)
(0.00679907 0.00448202 0)
(0.0088114 0.00387661 0)
(0.0104152 0.00327727 0)
(0.0116675 0.00272809 0)
(0.012632 0.00224703 0)
(0.0133671 0.00183652 0)
(0.0139221 0.00149128 0)
(0.0143365 0.00120302 0)
(0.0146413 0.000963014 0)
(0.0148608 0.000763235 0)
(0.0150136 0.000596785 0)
(0.0151144 0.000457944 0)
(0.0151744 0.000342053 0)
(0.0152028 0.000245349 0)
(0.0152066 0.00016479 0)
(0.0151916 9.79092e-05 0)
(0.0013967 0.00389253 0)
(0.00404031 0.00366035 0)
(0.00634658 0.00329328 0)
(0.00827477 0.00286845 0)
(0.00983912 0.00244193 0)
(0.0110823 0.0020463 0)
(0.012056 0.00169614 0)
(0.0128107 0.00139478 0)
(0.0133901 0.00113958 0)
(0.0138306 0.000925348 0)
(0.0141617 0.000746235 0)
(0.0144065 0.000596672 0)
(0.0145835 0.000471772 0)
(0.0147071 0.00036742 0)
(0.0147887 0.000280222 0)
(0.0148374 0.000207413 0)
(0.0148604 0.000146746 0)
(0.0148635 9.63867e-05 0)
(0.00131043 0.00270604 0)
(0.00379931 0.00255239 0)
(0.00598973 0.00230647 0)
(0.0078417 0.0020188 0)
(0.0093625 0.0017272 0)
(0.0105858 0.00145441 0)
(0.0115555 0.0012112 0)
(0.0123157 0.00100061 0)
(0.0129065 0.000821393 0)
(0.0133615 0.000670345 0)
(0.0137086 0.000543657 0)
(0.01397 0.000437613 0)
(0.0141636 0.000348896 0)
(0.0143035 0.000274679 0)
(0.014401 0.000212614 0)
(0.0144652 0.000160771 0)
(0.0145032 0.000117576 0)
(0.0145208 8.17418e-05 0)
(0.00123789 0.00173292 0)
(0.00359455 0.00163801 0)
(0.00568093 0.00148465 0)
(0.00745839 0.00130394 0)
(0.00893013 0.00111953 0)
(0.010124 0.000946003 0)
(0.0110784 0.000790511 0)
(0.011833 0.000655289 0)
(0.0124245 0.000539797 0)
(0.0128844 0.000442169 0)
(0.013239 0.000360091 0)
(0.0135097 0.000291258 0)
(0.0137135 0.000233592 0)
(0.0138643 0.000185304 0)
(0.0139731 0.000144899 0)
(0.0140487 0.000111146 0)
(0.0140981 8.30336e-05 0)
(0.0141271 5.97351e-05 0)
(0.00116635 0.000932532 0)
(0.00339038 0.000882736 0)
(0.00536726 0.000801679 0)
(0.00705999 0.000705668 0)
(0.00846943 0.000607258 0)
(0.00961937 0.000514286 0)
(0.010544 0.000430686 0)
(0.0112793 0.000357764 0)
(0.0118593 0.000295321 0)
(0.0123133 0.00024242 0)
(0.012666 0.000197863 0)
(0.0129376 0.000160442 0)
(0.0131444 0.000129055 0)
(0.0132998 0.000102751 0)
(0.0134143 8.07312e-05 0)
(0.0134965 6.2335e-05 0)
(0.0135531 4.702e-05 0)
(0.0135899 3.43443e-05 0)
(0.00105281 0.000285753 0)
(0.00306191 0.00027071 0)
(0.00485076 0.000246104 0)
(0.00638508 0.000216871 0)
(0.00766431 0.000186831 0)
(0.0087087 0.000158387 0)
(0.00954817 0.000132758 0)
(0.0102149 0.000110363 0)
(0.0107392 9.11557e-05 0)
(0.0111478 7.48612e-05 0)
(0.0114629 6.11207e-05 0)
(0.0117033 4.95689e-05 0)
(0.0118838 3.98719e-05 0)
(0.0120168 3.174e-05 0)
(0.0121121 2.49296e-05 0)
(0.0121776 1.92389e-05 0)
(0.0122197 1.45021e-05 0)
(0.0122437 1.05855e-05 0)
(5.88181e-34 -1.41885e-33 -1.83313e-59)
(1.76932e-33 -1.41708e-33 1.82944e-59)
(2.95787e-33 -1.41403e-33 0)
(4.15266e-33 -1.40971e-33 0)
(5.35246e-33 -1.40407e-33 0)
(6.556e-33 -1.39711e-33 -1.79799e-59)
(7.76198e-33 -1.38882e-33 0)
(8.96902e-33 -1.37918e-33 0)
(1.01757e-32 -1.3682e-33 0)
(1.13807e-32 -1.35588e-33 0)
(1.25824e-32 -1.34224e-33 1.71995e-59)
(1.37795e-32 -1.32729e-33 0)
(1.49703e-32 -1.31108e-33 0)
(1.61536e-32 -1.29364e-33 0)
(1.73278e-32 -1.27502e-33 0)
(1.84914e-32 -1.2553e-33 1.6006e-59)
(1.96432e-32 -1.23453e-33 0)
(2.07816e-32 -1.21279e-33 0)
(2.19055e-32 -1.19017e-33 0)
(2.30137e-32 -1.16677e-33 0)
(2.41049e-32 -1.14266e-33 0)
(2.51781e-32 -1.11796e-33 0)
(2.62323e-32 -1.09276e-33 0)
(2.72666e-32 -1.06715e-33 1.34707e-59)
(2.82803e-32 -1.04124e-33 -1.31239e-59)
(2.92725e-32 -1.01512e-33 1.27746e-59)
(3.02428e-32 -9.88887e-34 1.24241e-59)
(3.11906e-32 -9.62626e-34 0)
(3.21155e-32 -9.36422e-34 0)
(3.30172e-32 -9.10353e-34 -1.13763e-59)
(3.38953e-32 -8.84491e-34 -1.10317e-59)
(3.47498e-32 -8.58904e-34 0)
(3.55806e-32 -8.33652e-34 0)
(3.63876e-32 -8.08787e-34 -1.00238e-59)
(3.7171e-32 -7.84358e-34 0)
(3.79308e-32 -7.60406e-34 0)
(3.86672e-32 -7.36966e-34 9.06861e-60)
(3.93805e-32 -7.14067e-34 0)
(4.00708e-32 -6.91734e-34 8.46743e-60)
(4.07386e-32 -6.69986e-34 1.63569e-59)
(4.13842e-32 -6.48838e-34 0)
(4.20079e-32 -6.28299e-34 0)
(4.26102e-32 -6.08377e-34 0)
(4.31914e-32 -5.89076e-34 0)
(4.37521e-32 -5.70395e-34 0)
(4.42926e-32 -5.52332e-34 1.32317e-59)
(4.48134e-32 -5.34884e-34 1.27684e-59)
(4.53151e-32 -5.18043e-34 1.23212e-59)
(4.5798e-32 -5.01801e-34 0)
(4.62627e-32 -4.8615e-34 -1.14744e-59)
(4.67096e-32 -4.71077e-34 0)
(4.71393e-32 -4.56573e-34 1.06892e-59)
(4.75522e-32 -4.42623e-34 1.03188e-59)
(4.79488e-32 -4.29216e-34 0)
(4.83296e-32 -4.16337e-34 0)
(4.8695e-32 -4.03972e-34 0)
(4.90456e-32 -3.92109e-34 8.97785e-60)
(4.93818e-32 -3.80731e-34 0)
(4.9704e-32 -3.69826e-34 0)
(5.00127e-32 -3.59378e-34 0)
(5.03083e-32 -3.49374e-34 0)
(5.05913e-32 -3.39798e-34 0)
(5.0862e-32 -3.30638e-34 0)
(5.1121e-32 -3.21879e-34 0)
(5.13686e-32 -3.13507e-34 0)
(5.16052e-32 -3.0551e-34 -6.67888e-60)
(5.18312e-32 -2.97874e-34 0)
(5.2047e-32 -2.90585e-34 0)
(5.22529e-32 -2.83632e-34 6.09808e-60)
(5.24494e-32 -2.77003e-34 5.92204e-60)
(5.26367e-32 -2.70684e-34 0)
(5.28152e-32 -2.64664e-34 -5.59449e-60)
(5.29853e-32 -2.58932e-34 5.44229e-60)
(5.31473e-32 -2.53477e-34 0)
(5.33014e-32 -2.48287e-34 -5.15966e-60)
(5.34481e-32 -2.43353e-34 0)
(5.35875e-32 -2.38663e-34 0)
(5.37201e-32 -2.34208e-34 4.78584e-60)
(5.3846e-32 -2.29977e-34 0)
(5.39656e-32 -2.25963e-34 -4.56692e-60)
(5.40791e-32 -2.22155e-34 0)
(5.41867e-32 -2.18545e-34 4.36993e-60)
(5.42888e-32 -2.15124e-34 4.27909e-60)
(5.43856e-32 -2.11883e-34 4.19305e-60)
(5.44772e-32 -2.08816e-34 8.22319e-60)
(5.4564e-32 -2.05913e-34 -8.06902e-60)
(5.46462e-32 -2.03168e-34 0)
(5.47238e-32 -2.00574e-34 0)
(5.47973e-32 -1.98123e-34 0)
(5.48667e-32 -1.95808e-34 -7.53234e-60)
(5.49322e-32 -1.93624e-34 -7.41631e-60)
(5.49941e-32 -1.91564e-34 7.30688e-60)
(5.50525e-32 -1.89622e-34 0)
(5.51075e-32 -1.87791e-34 -7.1065e-60)
(5.51594e-32 -1.86068e-34 -7.01492e-60)
(5.52083e-32 -1.84446e-34 -6.92875e-60)
(5.52543e-32 -1.8292e-34 0)
(5.52976e-32 -1.81485e-34 0)
(5.53383e-32 -1.80137e-34 0)
(5.53766e-32 -1.78871e-34 -6.63258e-60)
(5.54125e-32 -1.77682e-34 0)
(5.54463e-32 -1.76567e-34 0)
(5.5478e-32 -1.75522e-34 6.45471e-60)
(5.55077e-32 -1.74543e-34 0)
(5.55356e-32 -1.73626e-34 0)
(5.55616e-32 -1.72767e-34 6.30831e-60)
(5.55861e-32 -1.71964e-34 0)
(5.56089e-32 -1.71214e-34 0)
(5.56303e-32 -1.70512e-34 -6.1885e-60)
(5.56503e-32 -1.69858e-34 -6.1537e-60)
(5.5669e-32 -1.69247e-34 0)
(5.56864e-32 -1.68677e-34 6.09093e-60)
(5.57026e-32 -1.68146e-34 0)
(5.57178e-32 -1.67651e-34 -6.03643e-60)
(5.57319e-32 -1.6719e-34 0)
(5.57451e-32 -1.66762e-34 -5.98917e-60)
(5.57573e-32 -1.66364e-34 -5.96803e-60)
(5.57687e-32 -1.65994e-34 0)
(5.57793e-32 -1.6565e-34 0)
(5.57891e-32 -1.65331e-34 0)
(5.57983e-32 -1.65035e-34 0)
(5.58067e-32 -1.64761e-34 0)
(5.58146e-32 -1.64507e-34 0)
(5.58219e-32 -1.64272e-34 0)
(5.58286e-32 -1.64055e-34 -5.84529e-60)
(5.58348e-32 -1.63854e-34 5.83463e-60)
(5.58406e-32 -1.63669e-34 0)
(5.58459e-32 -1.63497e-34 0)
(5.58508e-32 -1.63339e-34 0)
(5.58554e-32 -1.63193e-34 0)
(5.58596e-32 -1.63059e-34 1.15847e-59)
(5.58634e-32 -1.62935e-34 0)
(5.5867e-32 -1.62821e-34 -1.15594e-59)
(5.58702e-32 -1.62716e-34 1.15482e-59)
(5.58732e-32 -1.62619e-34 0)
(5.5876e-32 -1.6253e-34 0)
(5.58785e-32 -1.62449e-34 0)
(5.58808e-32 -1.62373e-34 -1.15118e-59)
(5.58829e-32 -1.62304e-34 -1.15044e-59)
(5.58848e-32 -1.6224e-34 0)
(5.58866e-32 -1.6218e-34 -1.14913e-59)
(5.58882e-32 -1.62125e-34 -1.14854e-59)
(5.58896e-32 -1.62074e-34 1.148e-59)
(5.58909e-32 -1.62026e-34 0)
(5.5892e-32 -1.6198e-34 0)
(5.58931e-32 -1.61937e-34 1.14655e-59)
(5.5894e-32 -1.61895e-34 0)
(5.58947e-32 -1.61854e-34 0)
(5.58953e-32 -1.61812e-34 0)
(5.58958e-32 -1.6177e-34 0)
(5.58962e-32 -1.61726e-34 -1.14434e-59)
(5.58964e-32 -1.61679e-34 -1.14385e-59)
(5.58964e-32 -1.61627e-34 0)
(5.58963e-32 -1.61568e-34 -1.14271e-59)
(5.58959e-32 -1.61501e-34 0)
(5.58952e-32 -1.61421e-34 0)
(5.58943e-32 -1.61327e-34 -1.14023e-59)
(5.58929e-32 -1.61212e-34 0)
(5.58911e-32 -1.61073e-34 -1.13763e-59)
(5.58887e-32 -1.609e-34 0)
(5.58855e-32 -1.60686e-34 0)
(5.58814e-32 -1.60417e-34 -1.13094e-59)
(5.58761e-32 -1.60079e-34 0)
(5.58693e-32 -1.59651e-34 -1.12314e-59)
(5.58605e-32 -1.59106e-34 0)
(5.58493e-32 -1.5841e-34 0)
(5.58348e-32 -1.57515e-34 0)
(5.5816e-32 -1.56358e-34 1.0896e-59)
(5.57918e-32 -1.54852e-34 0)
(5.57602e-32 -1.52874e-34 -1.05409e-59)
(5.57189e-32 -1.5025e-34 0)
(5.56645e-32 -1.46722e-34 0)
(5.55922e-32 -1.41898e-34 0)
(5.54947e-32 -1.35149e-34 0)
(5.53611e-32 -1.254e-34 0)
(5.51737e-32 -1.10658e-34 0)
(5.49005e-32 -8.67585e-35 0)
(5.44771e-32 -4.33705e-35 -1.32051e-60)
(5.37409e-32 5.2624e-35 0)
(5.21092e-32 3.53623e-34 0)
(5.90807e-34 -3.93889e-33 5.08879e-59)
(1.77721e-33 -3.93354e-33 -5.07767e-59)
(2.97104e-33 -3.92438e-33 0)
(4.17112e-33 -3.91136e-33 1.00909e-58)
(5.3762e-33 -3.8944e-33 0)
(6.58499e-33 -3.87345e-33 -4.99854e-59)
(7.79618e-33 -3.84847e-33 -9.91124e-59)
(9.00836e-33 -3.81944e-33 -9.83048e-59)
(1.02201e-32 -3.78636e-33 0)
(1.143e-32 -3.74922e-33 -9.63753e-59)
(1.26365e-32 -3.70809e-33 4.77767e-59)
(1.38381e-32 -3.66302e-33 0)
(1.50334e-32 -3.61412e-33 0)
(1.62208e-32 -3.56151e-33 0)
(1.73987e-32 -3.50535e-33 0)
(1.85659e-32 -3.44584e-33 4.43172e-59)
(1.97208e-32 -3.38318e-33 0)
(2.08621e-32 -3.31761e-33 8.47729e-59)
(2.19885e-32 -3.24939e-33 0)
(2.30986e-32 -3.17881e-33 0)
(2.41915e-32 -3.10613e-33 -7.91492e-59)
(2.5266e-32 -3.03167e-33 0)
(2.63212e-32 -2.95572e-33 7.51605e-59)
(2.7356e-32 -2.87857e-33 3.68817e-59)
(2.83699e-32 -2.80054e-33 -3.58612e-59)
(2.9362e-32 -2.7219e-33 3.48331e-59)
(3.03319e-32 -2.64293e-33 3.3801e-59)
(3.12789e-32 -2.56391e-33 0)
(3.22028e-32 -2.48509e-33 0)
(3.31032e-32 -2.40669e-33 -3.0715e-59)
(3.39799e-32 -2.32895e-33 -8.8297e-59)
(3.48327e-32 -2.25205e-33 0)
(3.56616e-32 -2.17617e-33 0)
(3.64667e-32 -2.10149e-33 -2.67306e-59)
(3.7248e-32 -2.02813e-33 0)
(3.80056e-32 -1.95622e-33 0)
(3.87397e-32 -1.88586e-33 2.39169e-59)
(3.94507e-32 -1.81714e-33 0)
(4.01387e-32 -1.75014e-33 6.54907e-59)
(4.08041e-32 -1.6849e-33 4.25902e-59)
(4.14473e-32 -1.62146e-33 0)
(4.20687e-32 -1.55987e-33 0)
(4.26686e-32 -1.50014e-33 -7.35256e-59)
(4.32475e-32 -1.44227e-33 -7.04793e-59)
(4.38059e-32 -1.38627e-33 -6.75314e-59)
(4.43442e-32 -1.33213e-33 9.80692e-59)
(4.48628e-32 -1.27983e-33 3.20236e-59)
(4.53623e-32 -1.22936e-33 -2.85651e-59)
(4.58432e-32 -1.18069e-33 5.67107e-59)
(4.63059e-32 -1.13379e-33 -2.82144e-59)
(4.67508e-32 -1.08862e-33 0)
(4.71786e-32 -1.04516e-33 2.59029e-59)
(4.75897e-32 -1.00337e-33 7.21913e-59)
(4.79845e-32 -9.63197e-34 0)
(4.83636e-32 -9.24612e-34 0)
(4.87274e-32 -8.8757e-34 0)
(4.90764e-32 -8.52028e-34 2.08658e-59)
(4.9411e-32 -8.17944e-34 0)
(4.97318e-32 -7.85274e-34 3.59012e-59)
(5.00391e-32 -7.53976e-34 0)
(5.03334e-32 -7.24006e-34 3.26768e-59)
(5.06151e-32 -6.95321e-34 0)
(5.08846e-32 -6.67881e-34 -2.97232e-59)
(5.11424e-32 -6.41642e-34 0)
(5.13889e-32 -6.16564e-34 2.70225e-59)
(5.16244e-32 -5.92608e-34 -3.98615e-59)
(5.18494e-32 -5.69733e-34 0)
(5.20642e-32 -5.479e-34 -2.3409e-59)
(5.22692e-32 -5.27073e-34 1.23905e-59)
(5.24647e-32 -5.07213e-34 1.18725e-59)
(5.26512e-32 -4.88285e-34 0)
(5.28289e-32 -4.70253e-34 -3.02309e-59)
(5.29983e-32 -4.53082e-34 1.04606e-59)
(5.31595e-32 -4.36741e-34 0)
(5.33129e-32 -4.21195e-34 -9.62894e-60)
(5.34589e-32 -4.06413e-34 -1.59625e-59)
(5.35977e-32 -3.92364e-34 0)
(5.37297e-32 -3.79018e-34 8.52888e-60)
(5.38551e-32 -3.66347e-34 0)
(5.39741e-32 -3.54321e-34 5.33608e-60)
(5.40871e-32 -3.42914e-34 0)
(5.41943e-32 -3.321e-34 -4.74609e-60)
(5.42959e-32 -3.21851e-34 7.03777e-60)
(5.43922e-32 -3.12145e-34 1.77854e-59)
(5.44835e-32 -3.02956e-34 3.41241e-59)
(5.45699e-32 -2.94261e-34 -3.27552e-59)
(5.46516e-32 -2.86039e-34 0)
(5.4729e-32 -2.78267e-34 0)
(5.48021e-32 -2.70924e-34 0)
(5.48712e-32 -2.63991e-34 5.87515e-60)
(5.49364e-32 -2.57448e-34 -1.07157e-59)
(5.4998e-32 -2.51276e-34 1.03937e-59)
(5.50562e-32 -2.45458e-34 0)
(5.5111e-32 -2.39975e-34 -2.4208e-59)
(5.51626e-32 -2.34812e-34 -9.5348e-60)
(5.52113e-32 -2.29953e-34 -9.28127e-60)
(5.52571e-32 -2.25382e-34 0)
(5.53002e-32 -2.21084e-34 0)
(5.53407e-32 -2.17045e-34 0)
(5.53788e-32 -2.13252e-34 -8.40995e-60)
(5.54146e-32 -2.09692e-34 0)
(5.54483e-32 -2.06352e-34 -1.08636e-59)
(5.54798e-32 -2.03221e-34 -2.64724e-60)
(5.55094e-32 -2.00287e-34 1.02249e-59)
(5.55371e-32 -1.9754e-34 0)
(5.55631e-32 -1.94968e-34 1.71208e-59)
(5.55874e-32 -1.92563e-34 0)
(5.56102e-32 -1.90314e-34 9.17467e-60)
(5.56315e-32 -1.88213e-34 -1.6057e-59)
(5.56514e-32 -1.86252e-34 -1.5748e-59)
(5.56699e-32 -1.84421e-34 0)
(5.56873e-32 -1.82714e-34 -1.55767e-60)
(5.57035e-32 -1.81123e-34 8.20675e-60)
(5.57186e-32 -1.79641e-34 -6.65627e-60)
(5.57326e-32 -1.78262e-34 0)
(5.57457e-32 -1.76978e-34 -6.5173e-60)
(5.57579e-32 -1.75785e-34 1.18938e-60)
(5.57693e-32 -1.74676e-34 0)
(5.57798e-32 -1.73647e-34 7.41927e-60)
(5.57896e-32 -1.72691e-34 7.31862e-60)
(5.57987e-32 -1.71805e-34 7.2253e-60)
(5.58071e-32 -1.70984e-34 0)
(5.58149e-32 -1.70224e-34 0)
(5.58222e-32 -1.6952e-34 0)
(5.58289e-32 -1.68869e-34 -1.30101e-59)
(5.58351e-32 -1.68267e-34 6.06276e-60)
(5.58409e-32 -1.67711e-34 0)
(5.58462e-32 -1.67198e-34 -6.73992e-60)
(5.58511e-32 -1.66724e-34 -6.69e-60)
(5.58556e-32 -1.66287e-34 0)
(5.58597e-32 -1.65884e-34 1.18768e-59)
(5.58636e-32 -1.65513e-34 -1.31249e-59)
(5.58671e-32 -1.65172e-34 -1.18024e-59)
(5.58704e-32 -1.64857e-34 2.47563e-59)
(5.58733e-32 -1.64568e-34 0)
(5.58761e-32 -1.64301e-34 0)
(5.58786e-32 -1.64056e-34 0)
(5.58809e-32 -1.6383e-34 -1.16624e-59)
(5.5883e-32 -1.63622e-34 -2.43672e-59)
(5.58849e-32 -1.6343e-34 -1.26861e-59)
(5.58866e-32 -1.63252e-34 -1.16021e-59)
(5.58882e-32 -1.63087e-34 -2.41988e-59)
(5.58897e-32 -1.62933e-34 1.15688e-59)
(5.58909e-32 -1.62789e-34 0)
(5.58921e-32 -1.62653e-34 0)
(5.58931e-32 -1.62523e-34 2.40215e-59)
(5.5894e-32 -1.62398e-34 0)
(5.58948e-32 -1.62274e-34 0)
(5.58954e-32 -1.62151e-34 -1.24176e-59)
(5.58959e-32 -1.62025e-34 0)
(5.58963e-32 -1.61893e-34 -2.38246e-59)
(5.58965e-32 -1.61751e-34 -1.1446e-59)
(5.58965e-32 -1.61596e-34 0)
(5.58963e-32 -1.6142e-34 -2.36779e-59)
(5.5896e-32 -1.61219e-34 0)
(5.58953e-32 -1.60982e-34 0)
(5.58944e-32 -1.60699e-34 -1.13374e-59)
(5.58931e-32 -1.60358e-34 -1.20477e-59)
(5.58913e-32 -1.59941e-34 -1.12592e-59)
(5.58889e-32 -1.59426e-34 0)
(5.58858e-32 -1.58785e-34 0)
(5.58817e-32 -1.57983e-34 -2.26186e-59)
(5.58765e-32 -1.56974e-34 0)
(5.58698e-32 -1.55696e-34 -2.19148e-59)
(5.58612e-32 -1.54071e-34 0)
(5.58501e-32 -1.51994e-34 0)
(5.58358e-32 -1.49325e-34 0)
(5.58174e-32 -1.45874e-34 9.81183e-60)
(5.57935e-32 -1.41383e-34 0)
(5.57625e-32 -1.35488e-34 -8.7431e-60)
(5.57219e-32 -1.27673e-34 0)
(5.56686e-32 -1.17176e-34 0)
(5.55977e-32 -1.02841e-34 -2.65015e-61)
(5.55025e-32 -8.28221e-35 -3.83878e-60)
(5.53727e-32 -5.39959e-35 0)
(5.51916e-32 -1.0637e-35 0)
(5.49314e-32 5.89379e-35 0)
(5.45405e-32 1.82378e-34 6.86187e-59)
(5.39192e-32 4.39872e-34 0)
(5.2939e-32 1.13353e-33 -5.0881e-58)
(5.96083e-34 -6.47583e-33 3.34721e-58)
(1.79307e-33 -6.46684e-33 -4.26805e-62)
(2.99751e-33 -6.45149e-33 0)
(4.20821e-33 -6.42965e-33 9.96985e-62)
(5.42391e-33 -6.4012e-33 0)
(6.64329e-33 -6.36605e-33 0)
(7.86498e-33 -6.32412e-33 -3.2602e-58)
(9.08754e-33 -6.27535e-33 -1.61785e-58)
(1.03095e-32 -6.21973e-33 1.60045e-58)
(1.15293e-32 -6.15727e-33 -1.58617e-58)
(1.27455e-32 -6.08803e-33 0)
(1.39564e-32 -6.01214e-33 0)
(1.51605e-32 -5.92975e-33 -1.52206e-58)
(1.63562e-32 -5.84109e-33 -2.99659e-58)
(1.75419e-32 -5.74644e-33 2.94598e-58)
(1.87161e-32 -5.64612e-33 0)
(1.98774e-32 -5.5405e-33 2.8362e-58)
(2.10244e-32 -5.43001e-33 1.39369e-58)
(2.21556e-32 -5.31508e-33 0)
(2.32699e-32 -5.1962e-33 2.6534e-58)
(2.43662e-32 -5.07385e-33 -1.30005e-58)
(2.54432e-32 -4.94856e-33 -2.52229e-58)
(2.65001e-32 -4.82082e-33 1.23364e-58)
(2.7536e-32 -4.69116e-33 0)
(2.85502e-32 -4.56008e-33 2.31705e-58)
(2.9542e-32 -4.42806e-33 2.2474e-58)
(3.05108e-32 -4.29558e-33 0)
(3.14563e-32 -4.16308e-33 2.1077e-58)
(3.2378e-32 -4.031e-33 0)
(3.32758e-32 -3.89972e-33 1.96896e-58)
(3.41494e-32 -3.76961e-33 -9.58294e-59)
(3.49989e-32 -3.64099e-33 0)
(3.5824e-32 -3.51415e-33 0)
(3.66251e-32 -3.38937e-33 0)
(3.74021e-32 -3.26687e-33 0)
(3.81553e-32 -3.14684e-33 0)
(3.88849e-32 -3.02946e-33 0)
(3.95912e-32 -2.91487e-33 1.45086e-58)
(4.02745e-32 -2.80317e-33 -6.86564e-59)
(4.09351e-32 -2.69445e-33 0)
(4.15736e-32 -2.58879e-33 0)
(4.21902e-32 -2.48621e-33 0)
(4.27854e-32 -2.38676e-33 -2.36683e-58)
(4.33597e-32 -2.29044e-33 -1.14318e-58)
(4.39135e-32 -2.19725e-33 -2.07377e-60)
(4.44472e-32 -2.10717e-33 2.09895e-60)
(4.49615e-32 -2.02017e-33 -9.80709e-59)
(4.54567e-32 -1.93622e-33 -9.58073e-59)
(4.59334e-32 -1.85528e-33 1.80986e-58)
(4.63921e-32 -1.77729e-33 8.53117e-59)
(4.68331e-32 -1.7022e-33 0)
(4.72571e-32 -1.62994e-33 7.75716e-59)
(4.76645e-32 -1.56046e-33 1.50095e-58)
(4.80558e-32 -1.49369e-33 0)
(4.84315e-32 -1.42956e-33 0)
(4.8792e-32 -1.36799e-33 -6.38114e-59)
(4.91379e-32 -1.30892e-33 0)
(4.94695e-32 -1.25227e-33 0)
(4.97873e-32 -1.19798e-33 1.66994e-58)
(5.00918e-32 -1.14596e-33 1.04298e-58)
(5.03834e-32 -1.09616e-33 5.19118e-59)
(5.06626e-32 -1.04849e-33 0)
(5.09297e-32 -1.00289e-33 -4.70383e-59)
(5.11851e-32 -9.59284e-34 0)
(5.14293e-32 -9.17612e-34 1.22891e-58)
(5.16627e-32 -8.77802e-34 -4.05024e-59)
(5.18856e-32 -8.3979e-34 -7.21321e-59)
(5.20985e-32 -8.0351e-34 -1.04941e-58)
(5.23016e-32 -7.68901e-34 0)
(5.24954e-32 -7.35899e-34 6.12174e-59)
(5.26802e-32 -7.04446e-34 0)
(5.28563e-32 -6.74482e-34 2.48866e-59)
(5.30241e-32 -6.4595e-34 5.17671e-59)
(5.31838e-32 -6.18795e-34 4.89141e-59)
(5.33359e-32 -5.92962e-34 -4.62e-59)
(5.34806e-32 -5.68399e-34 1.92843e-59)
(5.36181e-32 -5.45054e-34 0)
(5.37489e-32 -5.22877e-34 0)
(5.38731e-32 -5.0182e-34 -3.6624e-59)
(5.39911e-32 -4.81837e-34 -1.47128e-59)
(5.41031e-32 -4.62882e-34 0)
(5.42093e-32 -4.44911e-34 -1.78819e-59)
(5.431e-32 -4.27881e-34 0)
(5.44055e-32 -4.11751e-34 -1.10112e-59)
(5.44959e-32 -3.96481e-34 5.62581e-59)
(5.45815e-32 -3.82033e-34 -5.32298e-59)
(5.46626e-32 -3.6837e-34 2.26019e-59)
(5.47392e-32 -3.55454e-34 0)
(5.48117e-32 -3.43253e-34 -1.99626e-59)
(5.48802e-32 -3.31732e-34 4.26867e-59)
(5.49448e-32 -3.20858e-34 0)
(5.50059e-32 -3.10602e-34 0)