/*--------------------------------*- C++ -*----------------------------------*\
  =========                 |
  \\      /  F ield         | OpenFOAM: The Open Source CFD Toolbox
   \\    /   O peration     | Website:  https://openfoam.org
    \\  /    A nd           | Version:  10
     \\/     M anipulation  |
\*---------------------------------------------------------------------------*/
FoamFile
{
    format      ascii;
    class       volScalarField;
    location    "2.26";
    object      p;
}
// * * * * * * * * * * * * * * * * * * * * * * * * * * * * * * * * * * * * * //

dimensions      [1 -1 -2 0 0 0 0];

internalField   nonuniform List<scalar> 
12225
(
1.74467e+07
1.73935e+07
1.72983e+07
1.71731e+07
1.70277e+07
1.687e+07
1.67051e+07
1.65367e+07
1.63668e+07
1.61968e+07
1.60271e+07
1.58578e+07
1.56884e+07
1.5518e+07
1.53448e+07
1.51658e+07
1.4975e+07
1.47568e+07
1.74488e+07
1.73954e+07
1.72999e+07
1.71743e+07
1.70287e+07
1.68707e+07
1.67057e+07
1.65372e+07
1.63673e+07
1.61973e+07
1.60276e+07
1.58584e+07
1.56892e+07
1.55191e+07
1.53464e+07
1.51685e+07
1.49804e+07
1.47729e+07
1.74536e+07
1.73997e+07
1.73035e+07
1.71771e+07
1.70309e+07
1.68724e+07
1.67071e+07
1.65383e+07
1.63684e+07
1.61983e+07
1.60288e+07
1.58598e+07
1.5691e+07
1.55215e+07
1.53499e+07
1.51742e+07
1.4991e+07
1.47971e+07
1.74616e+07
1.74068e+07
1.73094e+07
1.71817e+07
1.70344e+07
1.68752e+07
1.67093e+07
1.65402e+07
1.63701e+07
1.62001e+07
1.60307e+07
1.58621e+07
1.56939e+07
1.55254e+07
1.53555e+07
1.51829e+07
1.50059e+07
1.48253e+07
1.74735e+07
1.74174e+07
1.7318e+07
1.71885e+07
1.70396e+07
1.68792e+07
1.67125e+07
1.6543e+07
1.63726e+07
1.62026e+07
1.60335e+07
1.58654e+07
1.5698e+07
1.55309e+07
1.53633e+07
1.51945e+07
1.50244e+07
1.48554e+07
1.749e+07
1.74321e+07
1.733e+07
1.71979e+07
1.70468e+07
1.68847e+07
1.67169e+07
1.65467e+07
1.6376e+07
1.6206e+07
1.60373e+07
1.58698e+07
1.57036e+07
1.55382e+07
1.53733e+07
1.52089e+07
1.50456e+07
1.48864e+07
1.75123e+07
1.74517e+07
1.73459e+07
1.72101e+07
1.70561e+07
1.68918e+07
1.67226e+07
1.65515e+07
1.63804e+07
1.62104e+07
1.60421e+07
1.58754e+07
1.57106e+07
1.55472e+07
1.53855e+07
1.52256e+07
1.50687e+07
1.49179e+07
1.75415e+07
1.74773e+07
1.73665e+07
1.72258e+07
1.70679e+07
1.69008e+07
1.67296e+07
1.65574e+07
1.63858e+07
1.62159e+07
1.6048e+07
1.58824e+07
1.57191e+07
1.55581e+07
1.53996e+07
1.52443e+07
1.50934e+07
1.49494e+07
1.75794e+07
1.75101e+07
1.73924e+07
1.72454e+07
1.70824e+07
1.69118e+07
1.67382e+07
1.65646e+07
1.63924e+07
1.62224e+07
1.60551e+07
1.58907e+07
1.57291e+07
1.55707e+07
1.54156e+07
1.52647e+07
1.51193e+07
1.4981e+07
1.76281e+07
1.75516e+07
1.74246e+07
1.72693e+07
1.70999e+07
1.69248e+07
1.67484e+07
1.65731e+07
1.64001e+07
1.62301e+07
1.60635e+07
1.59003e+07
1.57406e+07
1.55848e+07
1.54332e+07
1.52865e+07
1.51458e+07
1.50125e+07
1.76904e+07
1.76037e+07
1.7464e+07
1.72978e+07
1.71205e+07
1.69399e+07
1.676e+07
1.65827e+07
1.64089e+07
1.62389e+07
1.60729e+07
1.59111e+07
1.57535e+07
1.56004e+07
1.54521e+07
1.53093e+07
1.51729e+07
1.50438e+07
1.77637e+07
1.76632e+07
1.75075e+07
1.73284e+07
1.7142e+07
1.69554e+07
1.67719e+07
1.65925e+07
1.64178e+07
1.62478e+07
1.60825e+07
1.5922e+07
1.57663e+07
1.56157e+07
1.54704e+07
1.53309e+07
1.5198e+07
1.50722e+07
1.7854e+07
1.77337e+07
1.75572e+07
1.73623e+07
1.71652e+07
1.69719e+07
1.67843e+07
1.66028e+07
1.64271e+07
1.62571e+07
1.60927e+07
1.59336e+07
1.57798e+07
1.56316e+07
1.54891e+07
1.53527e+07
1.52229e+07
1.51001e+07
1.79877e+07
1.7832e+07
1.76223e+07
1.74045e+07
1.71932e+07
1.69913e+07
1.67988e+07
1.66146e+07
1.6438e+07
1.62682e+07
1.61047e+07
1.59473e+07
1.57958e+07
1.56502e+07
1.55108e+07
1.53776e+07
1.52511e+07
1.51313e+07
1.8196e+07
1.79686e+07
1.77044e+07
1.74541e+07
1.72243e+07
1.70122e+07
1.68141e+07
1.66273e+07
1.64499e+07
1.62805e+07
1.61184e+07
1.5963e+07
1.58141e+07
1.56715e+07
1.55353e+07
1.54055e+07
1.52822e+07
1.51655e+07
1.85484e+07
1.81511e+07
1.77961e+07
1.75029e+07
1.72523e+07
1.703e+07
1.6827e+07
1.66384e+07
1.64609e+07
1.62927e+07
1.61326e+07
1.59798e+07
1.58339e+07
1.56947e+07
1.5562e+07
1.54357e+07
1.53157e+07
1.5202e+07
1.92327e+07
1.83341e+07
1.78552e+07
1.75247e+07
1.72612e+07
1.70344e+07
1.68306e+07
1.66429e+07
1.64675e+07
1.6302e+07
1.6145e+07
1.59958e+07
1.58536e+07
1.57182e+07
1.55893e+07
1.54667e+07
1.53502e+07
1.52396e+07
1.83895e+07
1.8058e+07
1.77365e+07
1.74604e+07
1.72209e+07
1.70074e+07
1.68128e+07
1.66323e+07
1.64631e+07
1.63032e+07
1.61516e+07
1.60074e+07
1.58701e+07
1.57393e+07
1.56147e+07
1.54961e+07
1.53833e+07
1.52761e+07
1.78257e+07
1.76909e+07
1.75061e+07
1.73111e+07
1.71202e+07
1.69376e+07
1.67639e+07
1.65987e+07
1.64413e+07
1.6291e+07
1.61476e+07
1.60105e+07
1.58795e+07
1.57544e+07
1.56349e+07
1.55209e+07
1.54122e+07
1.53086e+07
1.7505e+07
1.74282e+07
1.73062e+07
1.71622e+07
1.70095e+07
1.68552e+07
1.67026e+07
1.65535e+07
1.64087e+07
1.62687e+07
1.61337e+07
1.60037e+07
1.58788e+07
1.5759e+07
1.56441e+07
1.55341e+07
1.5429e+07
1.53285e+07
1.73221e+07
1.72671e+07
1.71738e+07
1.7057e+07
1.69272e+07
1.67914e+07
1.66535e+07
1.6516e+07
1.63807e+07
1.62484e+07
1.61197e+07
1.59951e+07
1.58747e+07
1.57587e+07
1.56472e+07
1.55401e+07
1.54375e+07
1.53391e+07
1.72012e+07
1.71571e+07
1.70795e+07
1.69791e+07
1.68644e+07
1.67413e+07
1.66139e+07
1.64852e+07
1.63571e+07
1.62307e+07
1.61069e+07
1.59864e+07
1.58696e+07
1.57566e+07
1.56476e+07
1.55428e+07
1.54421e+07
1.53454e+07
1.71196e+07
1.70814e+07
1.70132e+07
1.6923e+07
1.6818e+07
1.67036e+07
1.65838e+07
1.64613e+07
1.63384e+07
1.62164e+07
1.60963e+07
1.59789e+07
1.58647e+07
1.5754e+07
1.5647e+07
1.55438e+07
1.54445e+07
1.53491e+07
1.7064e+07
1.70294e+07
1.69669e+07
1.68833e+07
1.67848e+07
1.66763e+07
1.65616e+07
1.64436e+07
1.63244e+07
1.62055e+07
1.60881e+07
1.5973e+07
1.58606e+07
1.57516e+07
1.56459e+07
1.5544e+07
1.54457e+07
1.53512e+07
1.70265e+07
1.69941e+07
1.69352e+07
1.68558e+07
1.67615e+07
1.6657e+07
1.65458e+07
1.64308e+07
1.63142e+07
1.61975e+07
1.6082e+07
1.59684e+07
1.58575e+07
1.57496e+07
1.56449e+07
1.55438e+07
1.54463e+07
1.53524e+07
1.70015e+07
1.69705e+07
1.69139e+07
1.68373e+07
1.67457e+07
1.66438e+07
1.65349e+07
1.6422e+07
1.63071e+07
1.61919e+07
1.60777e+07
1.59652e+07
1.58552e+07
1.5748e+07
1.56441e+07
1.55436e+07
1.54466e+07
1.53531e+07
1.69855e+07
1.69554e+07
1.69002e+07
1.68252e+07
1.67354e+07
1.66351e+07
1.65278e+07
1.64161e+07
1.63024e+07
1.61882e+07
1.60748e+07
1.5963e+07
1.58536e+07
1.5747e+07
1.56435e+07
1.55433e+07
1.54466e+07
1.53535e+07
1.69758e+07
1.69462e+07
1.68918e+07
1.68179e+07
1.67291e+07
1.66298e+07
1.65234e+07
1.64125e+07
1.62995e+07
1.61859e+07
1.6073e+07
1.59616e+07
1.58526e+07
1.57463e+07
1.5643e+07
1.55431e+07
1.54466e+07
1.53537e+07
1.69706e+07
1.69412e+07
1.68873e+07
1.68139e+07
1.67257e+07
1.66269e+07
1.6521e+07
1.64106e+07
1.62979e+07
1.61846e+07
1.6072e+07
1.59609e+07
1.5852e+07
1.57459e+07
1.56428e+07
1.5543e+07
1.54466e+07
1.53537e+07
1.69684e+07
1.69392e+07
1.68855e+07
1.68123e+07
1.67243e+07
1.66257e+07
1.652e+07
1.64098e+07
1.62972e+07
1.61841e+07
1.60715e+07
1.59605e+07
1.58517e+07
1.57457e+07
1.56427e+07
1.55429e+07
1.54466e+07
1.53538e+07
1.27158e+07
1.27146e+07
1.27123e+07
1.27088e+07
1.27041e+07
1.26981e+07
1.26908e+07
1.26822e+07
1.26724e+07
1.26612e+07
1.26486e+07
1.26346e+07
1.26193e+07
1.26025e+07
1.25844e+07
1.25647e+07
1.25437e+07
1.25211e+07
1.24971e+07
1.24715e+07
1.24444e+07
1.24158e+07
1.23857e+07
1.23539e+07
1.23206e+07
1.22856e+07
1.22489e+07
1.22106e+07
1.21705e+07
1.21286e+07
1.20849e+07
1.20394e+07
1.19919e+07
1.19425e+07
1.1891e+07
1.18374e+07
1.17815e+07
1.17233e+07
1.16626e+07
1.15991e+07
1.15327e+07
1.14631e+07
1.139e+07
1.13129e+07
1.12313e+07
1.11442e+07
1.10506e+07
1.09486e+07
1.08344e+07
1.07116e+07
1.07068e+07
1.07033e+07
1.07e+07
1.06968e+07
1.06936e+07
1.06905e+07
1.06875e+07
1.06845e+07
1.06815e+07
1.06786e+07
1.06757e+07
1.06728e+07
1.067e+07
1.06671e+07
1.06643e+07
1.06616e+07
1.06588e+07
1.0656e+07
1.06533e+07
1.06506e+07
1.06479e+07
1.06451e+07
1.06424e+07
1.06397e+07
1.0637e+07
1.06343e+07
1.06317e+07
1.0629e+07
1.06263e+07
1.06236e+07
1.06209e+07
1.06182e+07
1.06155e+07
1.06128e+07
1.06101e+07
1.06073e+07
1.06046e+07
1.06019e+07
1.05991e+07
1.05964e+07
1.05936e+07
1.05908e+07
1.05881e+07
1.05853e+07
1.05824e+07
1.05796e+07
1.05768e+07
1.05739e+07
1.05711e+07
1.05682e+07
1.05653e+07
1.05624e+07
1.05594e+07
1.05565e+07
1.05535e+07
1.05506e+07
1.05475e+07
1.05445e+07
1.05415e+07
1.05384e+07
1.05353e+07
1.05322e+07
1.05291e+07
1.0526e+07
1.05228e+07
1.05196e+07
1.05164e+07
1.05132e+07
1.05099e+07
1.05067e+07
1.05034e+07
1.05e+07
1.04967e+07
1.04933e+07
1.04899e+07
1.04865e+07
1.04831e+07
1.04796e+07
1.04761e+07
1.04726e+07
1.0469e+07
1.04654e+07
1.04618e+07
1.04582e+07
1.04545e+07
1.04508e+07
1.04471e+07
1.04434e+07
1.04396e+07
1.04358e+07
1.0432e+07
1.04281e+07
1.04242e+07
1.04203e+07
1.04163e+07
1.04124e+07
1.04084e+07
1.04043e+07
1.04002e+07
1.03961e+07
1.0392e+07
1.03878e+07
1.03836e+07
1.03794e+07
1.03751e+07
1.03708e+07
1.03665e+07
1.03621e+07
1.03577e+07
1.03533e+07
1.03488e+07
1.03443e+07
1.03398e+07
1.03352e+07
1.03306e+07
1.0326e+07
1.03213e+07
1.03166e+07
1.03119e+07
1.03071e+07
1.03023e+07
1.02974e+07
1.02925e+07
1.02876e+07
1.02827e+07
1.02777e+07
1.02727e+07
1.02678e+07
1.02628e+07
1.02578e+07
1.27203e+07
1.27192e+07
1.27168e+07
1.27133e+07
1.27085e+07
1.27025e+07
1.26952e+07
1.26867e+07
1.26767e+07
1.26655e+07
1.26529e+07
1.26389e+07
1.26235e+07
1.26067e+07
1.25884e+07
1.25688e+07
1.25476e+07
1.2525e+07
1.25009e+07
1.24753e+07
1.24482e+07
1.24196e+07
1.23894e+07
1.23577e+07
1.23244e+07
1.22894e+07
1.22528e+07
1.22145e+07
1.21745e+07
1.21327e+07
1.20891e+07
1.20437e+07
1.19964e+07
1.19471e+07
1.18957e+07
1.18423e+07
1.17866e+07
1.17286e+07
1.16681e+07
1.16049e+07
1.15389e+07
1.14699e+07
1.13974e+07
1.13212e+07
1.12408e+07
1.11554e+07
1.1064e+07
1.09649e+07
1.0854e+07
1.07193e+07
1.07063e+07
1.0703e+07
1.06998e+07
1.06966e+07
1.06935e+07
1.06904e+07
1.06873e+07
1.06843e+07
1.06814e+07
1.06785e+07
1.06756e+07
1.06727e+07
1.06699e+07
1.06671e+07
1.06643e+07
1.06615e+07
1.06587e+07
1.0656e+07
1.06533e+07
1.06505e+07
1.06478e+07
1.06451e+07
1.06424e+07
1.06397e+07
1.0637e+07
1.06343e+07
1.06316e+07
1.06289e+07
1.06262e+07
1.06236e+07
1.06209e+07
1.06182e+07
1.06155e+07
1.06128e+07
1.061e+07
1.06073e+07
1.06046e+07
1.06019e+07
1.05991e+07
1.05964e+07
1.05936e+07
1.05908e+07
1.0588e+07
1.05852e+07
1.05824e+07
1.05796e+07
1.05768e+07
1.05739e+07
1.05711e+07
1.05682e+07
1.05653e+07
1.05624e+07
1.05594e+07
1.05565e+07
1.05535e+07
1.05505e+07
1.05475e+07
1.05445e+07
1.05415e+07
1.05384e+07
1.05353e+07
1.05322e+07
1.05291e+07
1.0526e+07
1.05228e+07
1.05196e+07
1.05164e+07
1.05132e+07
1.05099e+07
1.05067e+07
1.05034e+07
1.05e+07
1.04967e+07
1.04933e+07
1.04899e+07
1.04865e+07
1.0483e+07
1.04796e+07
1.04761e+07
1.04726e+07
1.0469e+07
1.04654e+07
1.04618e+07
1.04582e+07
1.04545e+07
1.04508e+07
1.04471e+07
1.04434e+07
1.04396e+07
1.04358e+07
1.0432e+07
1.04281e+07
1.04242e+07
1.04203e+07
1.04163e+07
1.04124e+07
1.04084e+07
1.04043e+07
1.04002e+07
1.03961e+07
1.0392e+07
1.03878e+07
1.03836e+07
1.03794e+07
1.03751e+07
1.03708e+07
1.03665e+07
1.03621e+07
1.03577e+07
1.03533e+07
1.03488e+07
1.03443e+07
1.03398e+07
1.03352e+07
1.03306e+07
1.0326e+07
1.03213e+07
1.03166e+07
1.03119e+07
1.03071e+07
1.03023e+07
1.02974e+07
1.02925e+07
1.02876e+07
1.02827e+07
1.02777e+07
1.02727e+07
1.02677e+07
1.02628e+07
1.02578e+07
1.27296e+07
1.27285e+07
1.27261e+07
1.27226e+07
1.27178e+07
1.27117e+07
1.27044e+07
1.26957e+07
1.26858e+07
1.26745e+07
1.26618e+07
1.26477e+07
1.26322e+07
1.26153e+07
1.2597e+07
1.25772e+07
1.2556e+07
1.25333e+07
1.25091e+07
1.24835e+07
1.24563e+07
1.24276e+07
1.23974e+07
1.23656e+07
1.23322e+07
1.22973e+07
1.22606e+07
1.22224e+07
1.21824e+07
1.21407e+07
1.20972e+07
1.20519e+07
1.20047e+07
1.19555e+07
1.19044e+07
1.18512e+07
1.17958e+07
1.17381e+07
1.16781e+07
1.16156e+07
1.15503e+07
1.14822e+07
1.1411e+07
1.13364e+07
1.12582e+07
1.11759e+07
1.10891e+07
1.09974e+07
1.09007e+07
1.07998e+07
1.07064e+07
1.07025e+07
1.06994e+07
1.06963e+07
1.06932e+07
1.06901e+07
1.06871e+07
1.06841e+07
1.06812e+07
1.06783e+07
1.06754e+07
1.06726e+07
1.06697e+07
1.06669e+07
1.06642e+07
1.06614e+07
1.06586e+07
1.06559e+07
1.06532e+07
1.06504e+07
1.06477e+07
1.0645e+07
1.06423e+07
1.06396e+07
1.06369e+07
1.06343e+07
1.06316e+07
1.06289e+07
1.06262e+07
1.06235e+07
1.06208e+07
1.06181e+07
1.06154e+07
1.06127e+07
1.061e+07
1.06073e+07
1.06046e+07
1.06018e+07
1.05991e+07
1.05963e+07
1.05936e+07
1.05908e+07
1.0588e+07
1.05852e+07
1.05824e+07
1.05796e+07
1.05768e+07
1.05739e+07
1.0571e+07
1.05682e+07
1.05653e+07
1.05624e+07
1.05594e+07
1.05565e+07
1.05535e+07
1.05505e+07
1.05475e+07
1.05445e+07
1.05415e+07
1.05384e+07
1.05353e+07
1.05322e+07
1.05291e+07
1.0526e+07
1.05228e+07
1.05196e+07
1.05164e+07
1.05132e+07
1.05099e+07
1.05067e+07
1.05034e+07
1.05e+07
1.04967e+07
1.04933e+07
1.04899e+07
1.04865e+07
1.0483e+07
1.04796e+07
1.04761e+07
1.04725e+07
1.0469e+07
1.04654e+07
1.04618e+07
1.04582e+07
1.04545e+07
1.04508e+07
1.04471e+07
1.04434e+07
1.04396e+07
1.04358e+07
1.0432e+07
1.04281e+07
1.04242e+07
1.04203e+07
1.04163e+07
1.04124e+07
1.04084e+07
1.04043e+07
1.04002e+07
1.03961e+07
1.0392e+07
1.03878e+07
1.03836e+07
1.03794e+07
1.03751e+07
1.03708e+07
1.03665e+07
1.03621e+07
1.03577e+07
1.03533e+07
1.03488e+07
1.03443e+07
1.03398e+07
1.03352e+07
1.03306e+07
1.0326e+07
1.03213e+07
1.03166e+07
1.03118e+07
1.03071e+07
1.03023e+07
1.02974e+07
1.02925e+07
1.02876e+07
1.02827e+07
1.02777e+07
1.02727e+07
1.02677e+07
1.02627e+07
1.02577e+07
1.27438e+07
1.27426e+07
1.27403e+07
1.27367e+07
1.27318e+07
1.27257e+07
1.27183e+07
1.27096e+07
1.26995e+07
1.26881e+07
1.26754e+07
1.26612e+07
1.26456e+07
1.26286e+07
1.26102e+07
1.25903e+07
1.25689e+07
1.25461e+07
1.25218e+07
1.2496e+07
1.24687e+07
1.24399e+07
1.24096e+07
1.23777e+07
1.23442e+07
1.23092e+07
1.22725e+07
1.22342e+07
1.21942e+07
1.21525e+07
1.2109e+07
1.20638e+07
1.20167e+07
1.19677e+07
1.19168e+07
1.18639e+07
1.18089e+07
1.17518e+07
1.16923e+07
1.16306e+07
1.15663e+07
1.14995e+07
1.14298e+07
1.13573e+07
1.12817e+07
1.12027e+07
1.11204e+07
1.10344e+07
1.09445e+07
1.08499e+07
1.07457e+07
1.07022e+07
1.06989e+07
1.06958e+07
1.06927e+07
1.06897e+07
1.06867e+07
1.06838e+07
1.06809e+07
1.0678e+07
1.06752e+07
1.06723e+07
1.06695e+07
1.06667e+07
1.0664e+07
1.06612e+07
1.06585e+07
1.06557e+07
1.0653e+07
1.06503e+07
1.06476e+07
1.06449e+07
1.06422e+07
1.06395e+07
1.06368e+07
1.06342e+07
1.06315e+07
1.06288e+07
1.06261e+07
1.06234e+07
1.06207e+07
1.06181e+07
1.06154e+07
1.06127e+07
1.061e+07
1.06072e+07
1.06045e+07
1.06018e+07
1.05991e+07
1.05963e+07
1.05935e+07
1.05908e+07
1.0588e+07
1.05852e+07
1.05824e+07
1.05796e+07
1.05767e+07
1.05739e+07
1.0571e+07
1.05681e+07
1.05653e+07
1.05623e+07
1.05594e+07
1.05565e+07
1.05535e+07
1.05505e+07
1.05475e+07
1.05445e+07
1.05415e+07
1.05384e+07
1.05353e+07
1.05322e+07
1.05291e+07
1.0526e+07
1.05228e+07
1.05196e+07
1.05164e+07
1.05132e+07
1.05099e+07
1.05066e+07
1.05033e+07
1.05e+07
1.04967e+07
1.04933e+07
1.04899e+07
1.04865e+07
1.0483e+07
1.04796e+07
1.04761e+07
1.04725e+07
1.0469e+07
1.04654e+07
1.04618e+07
1.04582e+07
1.04545e+07
1.04508e+07
1.04471e+07
1.04434e+07
1.04396e+07
1.04358e+07
1.0432e+07
1.04281e+07
1.04242e+07
1.04203e+07
1.04163e+07
1.04124e+07
1.04083e+07
1.04043e+07
1.04002e+07
1.03961e+07
1.0392e+07
1.03878e+07
1.03836e+07
1.03794e+07
1.03751e+07
1.03708e+07
1.03665e+07
1.03621e+07
1.03577e+07
1.03533e+07
1.03488e+07
1.03443e+07
1.03398e+07
1.03352e+07
1.03306e+07
1.0326e+07
1.03213e+07
1.03166e+07
1.03118e+07
1.03071e+07
1.03022e+07
1.02974e+07
1.02925e+07
1.02876e+07
1.02827e+07
1.02777e+07
1.02727e+07
1.02677e+07
1.02627e+07
1.02577e+07
1.27629e+07
1.27617e+07
1.27593e+07
1.27556e+07
1.27507e+07
1.27445e+07
1.2737e+07
1.27282e+07
1.2718e+07
1.27065e+07
1.26936e+07
1.26793e+07
1.26635e+07
1.26464e+07
1.26278e+07
1.26077e+07
1.25862e+07
1.25632e+07
1.25387e+07
1.25128e+07
1.24853e+07
1.24563e+07
1.24258e+07
1.23938e+07
1.23601e+07
1.23249e+07
1.22882e+07
1.22497e+07
1.22097e+07
1.21679e+07
1.21245e+07
1.20793e+07
1.20323e+07
1.19836e+07
1.19329e+07
1.18803e+07
1.18258e+07
1.17692e+07
1.17105e+07
1.16496e+07
1.15864e+07
1.1521e+07
1.14531e+07
1.13826e+07
1.13096e+07
1.1234e+07
1.11556e+07
1.10746e+07
1.09907e+07
1.09036e+07
1.08122e+07
1.07125e+07
1.06983e+07
1.06952e+07
1.06922e+07
1.06892e+07
1.06863e+07
1.06834e+07
1.06805e+07
1.06777e+07
1.06748e+07
1.0672e+07
1.06692e+07
1.06665e+07
1.06637e+07
1.0661e+07
1.06583e+07
1.06555e+07
1.06528e+07
1.06501e+07
1.06474e+07
1.06448e+07
1.06421e+07
1.06394e+07
1.06367e+07
1.0634e+07
1.06314e+07
1.06287e+07
1.0626e+07
1.06233e+07
1.06207e+07
1.0618e+07
1.06153e+07
1.06126e+07
1.06099e+07
1.06072e+07
1.06045e+07
1.06017e+07
1.0599e+07
1.05963e+07
1.05935e+07
1.05907e+07
1.0588e+07
1.05852e+07
1.05824e+07
1.05795e+07
1.05767e+07
1.05739e+07
1.0571e+07
1.05681e+07
1.05652e+07
1.05623e+07
1.05594e+07
1.05564e+07
1.05535e+07
1.05505e+07
1.05475e+07
1.05445e+07
1.05414e+07
1.05384e+07
1.05353e+07
1.05322e+07
1.05291e+07
1.0526e+07
1.05228e+07
1.05196e+07
1.05164e+07
1.05132e+07
1.05099e+07
1.05066e+07
1.05033e+07
1.05e+07
1.04967e+07
1.04933e+07
1.04899e+07
1.04865e+07
1.0483e+07
1.04796e+07
1.04761e+07
1.04725e+07
1.0469e+07
1.04654e+07
1.04618e+07
1.04582e+07
1.04545e+07
1.04508e+07
1.04471e+07
1.04434e+07
1.04396e+07
1.04358e+07
1.0432e+07
1.04281e+07
1.04242e+07
1.04203e+07
1.04163e+07
1.04124e+07
1.04083e+07
1.04043e+07
1.04002e+07
1.03961e+07
1.0392e+07
1.03878e+07
1.03836e+07
1.03794e+07
1.03751e+07
1.03708e+07
1.03665e+07
1.03621e+07
1.03577e+07
1.03533e+07
1.03488e+07
1.03443e+07
1.03398e+07
1.03352e+07
1.03306e+07
1.0326e+07
1.03213e+07
1.03166e+07
1.03118e+07
1.03071e+07
1.03022e+07
1.02974e+07
1.02925e+07
1.02876e+07
1.02826e+07
1.02777e+07
1.02727e+07
1.02677e+07
1.02626e+07
1.02576e+07
1.2787e+07
1.27858e+07
1.27833e+07
1.27795e+07
1.27745e+07
1.27682e+07
1.27606e+07
1.27516e+07
1.27413e+07
1.27296e+07
1.27165e+07
1.27019e+07
1.2686e+07
1.26686e+07
1.26498e+07
1.26295e+07
1.26077e+07
1.25845e+07
1.25598e+07
1.25336e+07
1.25059e+07
1.24766e+07
1.24459e+07
1.24136e+07
1.23798e+07
1.23444e+07
1.23074e+07
1.22689e+07
1.22287e+07
1.21869e+07
1.21434e+07
1.20983e+07
1.20514e+07
1.20028e+07
1.19524e+07
1.19001e+07
1.1846e+07
1.179e+07
1.1732e+07
1.16721e+07
1.16101e+07
1.1546e+07
1.14798e+07
1.14114e+07
1.13409e+07
1.12683e+07
1.11935e+07
1.11167e+07
1.1038e+07
1.09575e+07
1.08752e+07
1.07908e+07
1.07016e+07
1.06944e+07
1.06915e+07
1.06886e+07
1.06857e+07
1.06829e+07
1.068e+07
1.06772e+07
1.06744e+07
1.06717e+07
1.06689e+07
1.06662e+07
1.06634e+07
1.06607e+07
1.0658e+07
1.06553e+07
1.06526e+07
1.06499e+07
1.06472e+07
1.06446e+07
1.06419e+07
1.06392e+07
1.06366e+07
1.06339e+07
1.06312e+07
1.06286e+07
1.06259e+07
1.06232e+07
1.06206e+07
1.06179e+07
1.06152e+07
1.06125e+07
1.06098e+07
1.06071e+07
1.06044e+07
1.06017e+07
1.05989e+07
1.05962e+07
1.05934e+07
1.05907e+07
1.05879e+07
1.05851e+07
1.05823e+07
1.05795e+07
1.05767e+07
1.05738e+07
1.0571e+07
1.05681e+07
1.05652e+07
1.05623e+07
1.05594e+07
1.05564e+07
1.05535e+07
1.05505e+07
1.05475e+07
1.05445e+07
1.05414e+07
1.05384e+07
1.05353e+07
1.05322e+07
1.05291e+07
1.05259e+07
1.05228e+07
1.05196e+07
1.05164e+07
1.05132e+07
1.05099e+07
1.05066e+07
1.05033e+07
1.05e+07
1.04967e+07
1.04933e+07
1.04899e+07
1.04865e+07
1.0483e+07
1.04796e+07
1.04761e+07
1.04725e+07
1.0469e+07
1.04654e+07
1.04618e+07
1.04582e+07
1.04545e+07
1.04508e+07
1.04471e+07
1.04434e+07
1.04396e+07
1.04358e+07
1.0432e+07
1.04281e+07
1.04242e+07
1.04203e+07
1.04163e+07
1.04124e+07
1.04083e+07
1.04043e+07
1.04002e+07
1.03961e+07
1.0392e+07
1.03878e+07
1.03836e+07
1.03794e+07
1.03751e+07
1.03708e+07
1.03665e+07
1.03621e+07
1.03577e+07
1.03533e+07
1.03488e+07
1.03443e+07
1.03398e+07
1.03352e+07
1.03306e+07
1.0326e+07
1.03213e+07
1.03166e+07
1.03118e+07
1.03071e+07
1.03022e+07
1.02974e+07
1.02925e+07
1.02876e+07
1.02826e+07
1.02777e+07
1.02726e+07
1.02676e+07
1.02626e+07
1.02575e+07
1.28161e+07
1.28148e+07
1.28122e+07
1.28084e+07
1.28033e+07
1.27968e+07
1.2789e+07
1.27798e+07
1.27693e+07
1.27573e+07
1.2744e+07
1.27292e+07
1.2713e+07
1.26953e+07
1.26761e+07
1.26555e+07
1.26335e+07
1.26099e+07
1.25849e+07
1.25583e+07
1.25303e+07
1.25007e+07
1.24697e+07
1.24371e+07
1.2403e+07
1.23674e+07
1.23302e+07
1.22914e+07
1.22511e+07
1.22092e+07
1.21657e+07
1.21205e+07
1.20737e+07
1.20252e+07
1.1975e+07
1.19231e+07
1.18694e+07
1.18139e+07
1.17567e+07
1.16976e+07
1.16367e+07
1.15739e+07
1.15093e+07
1.14428e+07
1.13746e+07
1.13045e+07
1.12328e+07
1.11596e+07
1.1085e+07
1.10094e+07
1.09329e+07
1.08559e+07
1.07778e+07
1.06954e+07
1.06906e+07
1.06878e+07
1.06851e+07
1.06823e+07
1.06795e+07
1.06767e+07
1.0674e+07
1.06712e+07
1.06685e+07
1.06658e+07
1.06631e+07
1.06604e+07
1.06577e+07
1.0655e+07
1.06523e+07
1.06497e+07
1.0647e+07
1.06443e+07
1.06417e+07
1.0639e+07
1.06364e+07
1.06337e+07
1.06311e+07
1.06284e+07
1.06258e+07
1.06231e+07
1.06204e+07
1.06178e+07
1.06151e+07
1.06124e+07
1.06097e+07
1.0607e+07
1.06043e+07
1.06016e+07
1.05989e+07
1.05961e+07
1.05934e+07
1.05906e+07
1.05878e+07
1.05851e+07
1.05823e+07
1.05795e+07
1.05766e+07
1.05738e+07
1.05709e+07
1.05681e+07
1.05652e+07
1.05623e+07
1.05593e+07
1.05564e+07
1.05534e+07
1.05505e+07
1.05475e+07
1.05444e+07
1.05414e+07
1.05384e+07
1.05353e+07
1.05322e+07
1.05291e+07
1.05259e+07
1.05228e+07
1.05196e+07
1.05164e+07
1.05131e+07
1.05099e+07
1.05066e+07
1.05033e+07
1.05e+07
1.04967e+07
1.04933e+07
1.04899e+07
1.04865e+07
1.0483e+07
1.04796e+07
1.04761e+07
1.04725e+07
1.0469e+07
1.04654e+07
1.04618e+07
1.04582e+07
1.04545e+07
1.04508e+07
1.04471e+07
1.04434e+07
1.04396e+07
1.04358e+07
1.0432e+07
1.04281e+07
1.04242e+07
1.04203e+07
1.04163e+07
1.04124e+07
1.04083e+07
1.04043e+07
1.04002e+07
1.03961e+07
1.0392e+07
1.03878e+07
1.03836e+07
1.03794e+07
1.03751e+07
1.03708e+07
1.03665e+07
1.03621e+07
1.03577e+07
1.03533e+07
1.03488e+07
1.03443e+07
1.03398e+07
1.03352e+07
1.03306e+07
1.0326e+07
1.03213e+07
1.03166e+07
1.03118e+07
1.0307e+07
1.03022e+07
1.02974e+07
1.02925e+07
1.02876e+07
1.02826e+07
1.02776e+07
1.02726e+07
1.02676e+07
1.02625e+07
1.02574e+07
1.28503e+07
1.2849e+07
1.28463e+07
1.28423e+07
1.2837e+07
1.28304e+07
1.28224e+07
1.28129e+07
1.28021e+07
1.27898e+07
1.27762e+07
1.2761e+07
1.27444e+07
1.27263e+07
1.27068e+07
1.26858e+07
1.26633e+07
1.26393e+07
1.26139e+07
1.25869e+07
1.25585e+07
1.25285e+07
1.24971e+07
1.24642e+07
1.24297e+07
1.23937e+07
1.23563e+07
1.23172e+07
1.22767e+07
1.22346e+07
1.21909e+07
1.21457e+07
1.20989e+07
1.20505e+07
1.20005e+07
1.19488e+07
1.18955e+07
1.18406e+07
1.1784e+07
1.17257e+07
1.16658e+07
1.16042e+07
1.1541e+07
1.14762e+07
1.14098e+07
1.1342e+07
1.12728e+07
1.12024e+07
1.1131e+07
1.10588e+07
1.09861e+07
1.09132e+07
1.08402e+07
1.0766e+07
1.06907e+07
1.06871e+07
1.06844e+07
1.06816e+07
1.06789e+07
1.06762e+07
1.06734e+07
1.06707e+07
1.0668e+07
1.06653e+07
1.06627e+07
1.066e+07
1.06573e+07
1.06547e+07
1.0652e+07
1.06494e+07
1.06467e+07
1.06441e+07
1.06414e+07
1.06388e+07
1.06362e+07
1.06335e+07
1.06309e+07
1.06282e+07
1.06256e+07
1.06229e+07
1.06203e+07
1.06176e+07
1.0615e+07
1.06123e+07
1.06096e+07
1.06069e+07
1.06042e+07
1.06015e+07
1.05988e+07
1.0596e+07
1.05933e+07
1.05905e+07
1.05878e+07
1.0585e+07
1.05822e+07
1.05794e+07
1.05766e+07
1.05737e+07
1.05709e+07
1.0568e+07
1.05651e+07
1.05622e+07
1.05593e+07
1.05564e+07
1.05534e+07
1.05504e+07
1.05474e+07
1.05444e+07
1.05414e+07
1.05383e+07
1.05353e+07
1.05322e+07
1.0529e+07
1.05259e+07
1.05228e+07
1.05196e+07
1.05164e+07
1.05131e+07
1.05099e+07
1.05066e+07
1.05033e+07
1.05e+07
1.04966e+07
1.04933e+07
1.04899e+07
1.04865e+07
1.0483e+07
1.04795e+07
1.0476e+07
1.04725e+07
1.0469e+07
1.04654e+07
1.04618e+07
1.04582e+07
1.04545e+07
1.04508e+07
1.04471e+07
1.04434e+07
1.04396e+07
1.04358e+07
1.04319e+07
1.04281e+07
1.04242e+07
1.04203e+07
1.04163e+07
1.04123e+07
1.04083e+07
1.04043e+07
1.04002e+07
1.03961e+07
1.0392e+07
1.03878e+07
1.03836e+07
1.03794e+07
1.03751e+07
1.03708e+07
1.03665e+07
1.03621e+07
1.03577e+07
1.03533e+07
1.03488e+07
1.03443e+07
1.03398e+07
1.03352e+07
1.03306e+07
1.0326e+07
1.03213e+07
1.03166e+07
1.03118e+07
1.0307e+07
1.03022e+07
1.02974e+07
1.02925e+07
1.02876e+07
1.02826e+07
1.02776e+07
1.02726e+07
1.02675e+07
1.02624e+07
1.02573e+07
1.28898e+07
1.28883e+07
1.28856e+07
1.28814e+07
1.28759e+07
1.2869e+07
1.28607e+07
1.2851e+07
1.28398e+07
1.28271e+07
1.2813e+07
1.27974e+07
1.27804e+07
1.27618e+07
1.27418e+07
1.27203e+07
1.26973e+07
1.26728e+07
1.26468e+07
1.26193e+07
1.25904e+07
1.25599e+07
1.2528e+07
1.24946e+07
1.24597e+07
1.24233e+07
1.23855e+07
1.23461e+07
1.23053e+07
1.22629e+07
1.22191e+07
1.21737e+07
1.21268e+07
1.20785e+07
1.20285e+07
1.19771e+07
1.19241e+07
1.18696e+07
1.18136e+07
1.1756e+07
1.16969e+07
1.16363e+07
1.15743e+07
1.15109e+07
1.14461e+07
1.138e+07
1.13128e+07
1.12446e+07
1.11756e+07
1.11059e+07
1.10357e+07
1.09652e+07
1.08944e+07
1.08231e+07
1.07495e+07
1.06867e+07
1.06837e+07
1.0681e+07
1.06783e+07
1.06756e+07
1.06729e+07
1.06702e+07
1.06675e+07
1.06649e+07
1.06622e+07
1.06596e+07
1.06569e+07
1.06543e+07
1.06517e+07
1.0649e+07
1.06464e+07
1.06438e+07
1.06412e+07
1.06385e+07
1.06359e+07
1.06333e+07
1.06307e+07
1.0628e+07
1.06254e+07
1.06228e+07
1.06201e+07
1.06175e+07
1.06148e+07
1.06121e+07
1.06095e+07
1.06068e+07
1.06041e+07
1.06014e+07
1.05987e+07
1.0596e+07
1.05932e+07
1.05905e+07
1.05877e+07
1.05849e+07
1.05821e+07
1.05793e+07
1.05765e+07
1.05737e+07
1.05708e+07
1.0568e+07
1.05651e+07
1.05622e+07
1.05593e+07
1.05563e+07
1.05534e+07
1.05504e+07
1.05474e+07
1.05444e+07
1.05414e+07
1.05383e+07
1.05352e+07
1.05321e+07
1.0529e+07
1.05259e+07
1.05227e+07
1.05196e+07
1.05164e+07
1.05131e+07
1.05099e+07
1.05066e+07
1.05033e+07
1.05e+07
1.04966e+07
1.04933e+07
1.04899e+07
1.04865e+07
1.0483e+07
1.04795e+07
1.0476e+07
1.04725e+07
1.0469e+07
1.04654e+07
1.04618e+07
1.04582e+07
1.04545e+07
1.04508e+07
1.04471e+07
1.04433e+07
1.04396e+07
1.04358e+07
1.04319e+07
1.04281e+07
1.04242e+07
1.04203e+07
1.04163e+07
1.04123e+07
1.04083e+07
1.04043e+07
1.04002e+07
1.03961e+07
1.0392e+07
1.03878e+07
1.03836e+07
1.03794e+07
1.03751e+07
1.03708e+07
1.03665e+07
1.03621e+07
1.03577e+07
1.03533e+07
1.03488e+07
1.03443e+07
1.03398e+07
1.03352e+07
1.03306e+07
1.0326e+07
1.03213e+07
1.03166e+07
1.03118e+07
1.0307e+07
1.03022e+07
1.02974e+07
1.02925e+07
1.02875e+07
1.02826e+07
1.02776e+07
1.02725e+07
1.02675e+07
1.02624e+07
1.02572e+07
1.29346e+07
1.29331e+07
1.29302e+07
1.29258e+07
1.29201e+07
1.29129e+07
1.29042e+07
1.28941e+07
1.28824e+07
1.28693e+07
1.28547e+07
1.28385e+07
1.28209e+07
1.28017e+07
1.27811e+07
1.27589e+07
1.27353e+07
1.27101e+07
1.26835e+07
1.26554e+07
1.26258e+07
1.25948e+07
1.25623e+07
1.25283e+07
1.24928e+07
1.2456e+07
1.24176e+07
1.23779e+07
1.23366e+07
1.2294e+07
1.22498e+07
1.22043e+07
1.21573e+07
1.21088e+07
1.20589e+07
1.20076e+07
1.19549e+07
1.19007e+07
1.1845e+07
1.1788e+07
1.17296e+07
1.16699e+07
1.16089e+07
1.15466e+07
1.14831e+07
1.14184e+07
1.13528e+07
1.12863e+07
1.1219e+07
1.1151e+07
1.10825e+07
1.10135e+07
1.0944e+07
1.08734e+07
1.08006e+07
1.07216e+07
1.06832e+07
1.06803e+07
1.06776e+07
1.06749e+07
1.06722e+07
1.06696e+07
1.0667e+07
1.06643e+07
1.06617e+07
1.06591e+07
1.06565e+07
1.06539e+07
1.06513e+07
1.06487e+07
1.06461e+07
1.06435e+07
1.06409e+07
1.06383e+07
1.06357e+07
1.06331e+07
1.06304e+07
1.06278e+07
1.06252e+07
1.06226e+07
1.06199e+07
1.06173e+07
1.06147e+07
1.0612e+07
1.06093e+07
1.06067e+07
1.0604e+07
1.06013e+07
1.05986e+07
1.05959e+07
1.05931e+07
1.05904e+07
1.05876e+07
1.05849e+07
1.05821e+07
1.05793e+07
1.05765e+07
1.05736e+07
1.05708e+07
1.05679e+07
1.0565e+07
1.05621e+07
1.05592e+07
1.05563e+07
1.05533e+07
1.05504e+07
1.05474e+07
1.05444e+07
1.05413e+07
1.05383e+07
1.05352e+07
1.05321e+07
1.0529e+07
1.05259e+07
1.05227e+07
1.05195e+07
1.05163e+07
1.05131e+07
1.05099e+07
1.05066e+07
1.05033e+07
1.05e+07
1.04966e+07
1.04933e+07
1.04899e+07
1.04864e+07
1.0483e+07
1.04795e+07
1.0476e+07
1.04725e+07
1.0469e+07
1.04654e+07
1.04618e+07
1.04581e+07
1.04545e+07
1.04508e+07
1.04471e+07
1.04433e+07
1.04396e+07
1.04358e+07
1.04319e+07
1.04281e+07
1.04242e+07
1.04203e+07
1.04163e+07
1.04123e+07
1.04083e+07
1.04043e+07
1.04002e+07
1.03961e+07
1.0392e+07
1.03878e+07
1.03836e+07
1.03794e+07
1.03751e+07
1.03708e+07
1.03665e+07
1.03621e+07
1.03577e+07
1.03533e+07
1.03488e+07
1.03443e+07
1.03398e+07
1.03352e+07
1.03306e+07
1.03259e+07
1.03213e+07
1.03166e+07
1.03118e+07
1.0307e+07
1.03022e+07
1.02973e+07
1.02924e+07
1.02875e+07
1.02826e+07
1.02775e+07
1.02725e+07
1.02674e+07
1.02623e+07
1.02572e+07
1.29851e+07
1.29834e+07
1.29803e+07
1.29757e+07
1.29697e+07
1.29621e+07
1.2953e+07
1.29423e+07
1.29301e+07
1.29164e+07
1.29011e+07
1.28843e+07
1.28659e+07
1.28461e+07
1.28246e+07
1.28017e+07
1.27773e+07
1.27514e+07
1.2724e+07
1.26951e+07
1.26648e+07
1.2633e+07
1.25998e+07
1.25651e+07
1.2529e+07
1.24915e+07
1.24526e+07
1.24123e+07
1.23706e+07
1.23275e+07
1.2283e+07
1.22372e+07
1.219e+07
1.21414e+07
1.20914e+07
1.20401e+07
1.19874e+07
1.19335e+07
1.18782e+07
1.18216e+07
1.17637e+07
1.17046e+07
1.16444e+07
1.1583e+07
1.15205e+07
1.1457e+07
1.13926e+07
1.13273e+07
1.12613e+07
1.11947e+07
1.11275e+07
1.10597e+07
1.09913e+07
1.09219e+07
1.08509e+07
1.07766e+07
1.06945e+07
1.06795e+07
1.06768e+07
1.06742e+07
1.06715e+07
1.06689e+07
1.06664e+07
1.06638e+07
1.06612e+07
1.06586e+07
1.0656e+07
1.06534e+07
1.06509e+07
1.06483e+07
1.06457e+07
1.06431e+07
1.06405e+07
1.0638e+07
1.06354e+07
1.06328e+07
1.06302e+07
1.06276e+07
1.0625e+07
1.06224e+07
1.06197e+07
1.06171e+07
1.06145e+07
1.06118e+07
1.06092e+07
1.06065e+07
1.06038e+07
1.06012e+07
1.05985e+07
1.05957e+07
1.0593e+07
1.05903e+07
1.05875e+07
1.05848e+07
1.0582e+07
1.05792e+07
1.05764e+07
1.05736e+07
1.05707e+07
1.05679e+07
1.0565e+07
1.05621e+07
1.05592e+07
1.05562e+07
1.05533e+07
1.05503e+07
1.05473e+07
1.05443e+07
1.05413e+07
1.05383e+07
1.05352e+07
1.05321e+07
1.0529e+07
1.05259e+07
1.05227e+07
1.05195e+07
1.05163e+07
1.05131e+07
1.05098e+07
1.05066e+07
1.05033e+07
1.05e+07
1.04966e+07
1.04932e+07
1.04899e+07
1.04864e+07
1.0483e+07