/*--------------------------------*- C++ -*----------------------------------*\
  =========                 |
  \\      /  F ield         | OpenFOAM: The Open Source CFD Toolbox
   \\    /   O peration     | Website:  https://openfoam.org
    \\  /    A nd           | Version:  10
     \\/     M anipulation  |
\*---------------------------------------------------------------------------*/
FoamFile
{
    format      ascii;
    class       surfaceScalarField;
    location    "2.26";
    object      phi;
}
// * * * * * * * * * * * * * * * * * * * * * * * * * * * * * * * * * * * * * //

dimensions      [0 3 -1 0 0 0 0];

internalField   nonuniform List<scalar> 
24170
(
1.46431e-09
-1.46431e-09
2.71704e-09
-1.25273e-09
3.70711e-09
-9.90073e-10
4.45354e-09
-7.46429e-10
5.00575e-09
-5.52213e-10
5.41716e-09
-4.11404e-10
5.73373e-09
-3.16573e-10
5.99159e-09
-2.57862e-10
6.21848e-09
-2.26883e-10
6.43643e-09
-2.17952e-10
6.66481e-09
-2.28384e-10
6.92367e-09
-2.58853e-10
7.23836e-09
-3.14691e-10
7.64813e-09
-4.0977e-10
8.22642e-09
-5.78294e-10
9.14333e-09
-9.16907e-10
1.09262e-08
-1.78287e-09
-5.10258e-09
1.60288e-08
1.65849e-09
-3.1228e-09
3.07151e-09
-2.66575e-09
4.18164e-09
-2.1002e-09
5.01283e-09
-1.57763e-09
5.62328e-09
-1.16266e-09
6.07475e-09
-8.62879e-10
6.41985e-09
-6.61665e-10
6.69949e-09
-5.37506e-10
6.94485e-09
-4.72243e-10
7.18048e-09
-4.53582e-10
7.42771e-09
-4.7561e-10
7.70827e-09
-5.39416e-10
8.04911e-09
-6.55535e-10
8.49055e-09
-8.51209e-10
9.10349e-09
-1.19123e-09
1.00302e-08
-1.84359e-09
1.15609e-08
-3.3136e-09
-7.30463e-09
1.3763e-08
1.85276e-09
-4.97556e-09
3.42238e-09
-4.23536e-09
4.64581e-09
-3.32363e-09
5.55405e-09
-2.48587e-09
6.21554e-09
-1.82415e-09
6.70102e-09
-1.34836e-09
7.06968e-09
-1.03032e-09
7.36695e-09
-8.34779e-10
7.62701e-09
-7.32299e-10
7.87639e-09
-7.02965e-10
8.1377e-09
-7.36924e-10
8.43331e-09
-8.35023e-10
8.78965e-09
-1.01188e-09
9.2434e-09
-1.30496e-09
9.8507e-09
-1.79854e-09
1.06939e-08
-2.68684e-09
1.18144e-08
-4.4341e-09
-8.04154e-09
1.25514e-08
2.06917e-09
-7.04474e-09
3.808e-09
-5.97419e-09
5.1483e-09
-4.66393e-09
6.13179e-09
-3.46936e-09
6.84033e-09
-2.53269e-09
7.3554e-09
-1.86343e-09
7.74349e-09
-1.41841e-09
8.05466e-09
-1.14595e-09
8.32587e-09
-1.00351e-09
8.58524e-09
-9.62342e-10
8.85602e-09
-1.0077e-09
9.16009e-09
-1.13909e-09
9.5213e-09
-1.37309e-09
9.96853e-09
-1.75218e-09
1.05354e-08
-2.36536e-09
1.12394e-08
-3.39088e-09
1.19644e-08
-5.15914e-09
-8.08769e-09
1.20106e-08
2.32128e-09
-9.36601e-09
4.24996e-09
-7.90287e-09
5.71375e-09
-6.12772e-09
6.77092e-09
-4.52653e-09
7.52153e-09
-3.2833e-09
8.06044e-09
-2.40234e-09
8.46252e-09
-1.82048e-09
8.78265e-09
-1.46607e-09
9.06036e-09
-1.28123e-09
9.3249e-09
-1.22687e-09
9.59937e-09
-1.28218e-09
9.90402e-09
-1.44373e-09
1.02582e-08
-1.72729e-09
1.06801e-08
-2.1741e-09
1.11787e-08
-2.8639e-09
1.17202e-08
-3.93236e-09
1.21248e-08
-5.56378e-09
-7.82748e-09
1.18646e-08
2.62417e-09
-1.19902e-08
4.77071e-09
-1.00494e-08
6.36568e-09
-7.7227e-09
7.493e-09
-5.65385e-09
8.27791e-09
-4.06821e-09
8.83225e-09
-2.95668e-09
9.24059e-09
-2.22883e-09
9.56284e-09
-1.78833e-09
9.84077e-09
-1.55916e-09
1.01041e-08
-1.49021e-09
1.0375e-08
-1.5531e-09
1.0671e-08
-1.7397e-09
1.10055e-08
-2.06177e-09
1.13848e-08
-2.55347e-09
1.17964e-08
-3.27543e-09
1.21759e-08
-4.31188e-09
1.23433e-08
-5.73117e-09
-7.44231e-09
1.19581e-08
2.99825e-09
-1.49884e-08
5.3989e-09
-1.24501e-08
7.13215e-09
-9.45595e-09
8.32198e-09
-6.84367e-09
9.12882e-09
-4.87505e-09
9.68617e-09
-3.51404e-09
1.00899e-08
-2.63253e-09
1.04049e-08
-2.10333e-09
1.06747e-08
-1.82894e-09
1.09287e-08
-1.74422e-09
1.11873e-08
-1.81169e-09
1.14642e-08
-2.0166e-09
1.17662e-08
-2.36379e-09
1.20887e-08
-2.87603e-09
1.24038e-08
-3.59045e-09
1.26362e-08
-4.54429e-09
1.26367e-08
-5.73172e-09
-7.01377e-09
1.22082e-08
3.47327e-09
-1.84617e-08
6.17414e-09
-1.51509e-08
8.04965e-09
-1.13315e-08
9.2871e-09
-8.08113e-09
1.00964e-08
-5.68438e-09
1.06388e-08
-4.05637e-09
1.10227e-08
-3.01643e-09
1.13179e-08
-2.39853e-09
1.15687e-08
-2.07974e-09
1.18033e-08
-1.97882e-09
1.20393e-08
-2.04768e-09
1.22859e-08
-2.26328e-09
1.25436e-08
-2.62145e-09
1.27989e-08
-3.13136e-09
1.30157e-08
-3.80718e-09
1.31221e-08
-4.6507e-09
1.30084e-08
-5.61808e-09
-6.57644e-09
1.25711e-08
4.09495e-09
-2.25567e-08
7.15344e-09
-1.82094e-08
9.1673e-09
-1.33453e-08
1.04253e-08
-9.33914e-09
1.12072e-08
-6.46624e-09
1.17086e-08
-4.55783e-09
1.2052e-08
-3.35985e-09
1.2311e-08
-2.65745e-09
1.25291e-08
-2.29788e-09
1.27322e-08
-2.18187e-09
1.2934e-08
-2.24953e-09
1.31392e-08
-2.46843e-09
1.33421e-08
-2.82436e-09
1.35236e-08
-3.31294e-09
1.36458e-08
-3.92935e-09
1.3648e-08
-4.65293e-09
1.34567e-08
-5.42678e-09
-6.14347e-09
1.30238e-08
4.93665e-09
-2.74933e-08
8.42145e-09
-2.16942e-08
1.05525e-08
-1.54764e-08
1.17836e-08
-1.05702e-08
1.24924e-08
-7.17498e-09
1.29165e-08
-4.98196e-09
1.31918e-08
-3.63517e-09
1.33934e-08
-2.859e-09
1.35621e-08
-2.46661e-09
1.37195e-08
-2.33925e-09
1.38747e-08
-2.40471e-09
1.40272e-08
-2.62096e-09
1.41668e-08
-2.96397e-09
1.42716e-08
-3.4177e-09
1.43061e-08
-3.96384e-09
1.42236e-08
-4.57044e-09
1.39787e-08
-5.1819e-09
-5.71856e-09
1.35538e-08
6.12178e-09
-3.36151e-08
1.01071e-08
-2.56795e-08
1.22985e-08
-1.76678e-08
1.34215e-08
-1.16932e-08
1.39886e-08
-7.74206e-09
1.42849e-08
-5.27822e-09
1.44559e-08
-3.80623e-09
1.45738e-08
-2.97689e-09
1.46732e-08
-2.56597e-09
1.4769e-08
-2.43502e-09
1.48644e-08
-2.50013e-09
1.49539e-08
-2.71049e-09
1.50237e-08
-3.03377e-09
1.50512e-08
-3.44524e-09
1.50061e-08
-3.91873e-09
1.48548e-08
-4.41912e-09
1.45716e-08
-4.89867e-09
-5.30135e-09
1.41544e-08
6.5285e-09
-4.01436e-08
1.03296e-08
-2.94806e-08
1.2129e-08
-1.94673e-08
1.28888e-08
-1.2453e-08
1.31798e-08
-8.03304e-09
1.32778e-08
-5.37622e-09
1.33057e-08
-3.83411e-09
1.33155e-08
-2.98678e-09
1.33276e-08
-2.57807e-09
1.33471e-08
-2.45447e-09
1.33708e-08
-2.52388e-09
1.33901e-08
-2.72976e-09
1.3391e-08
-3.0347e-09
1.33552e-08
-3.40939e-09
1.32612e-08
-3.82471e-09
1.30888e-08
-4.2468e-09
1.28263e-08
-4.63615e-09
-4.95234e-09
1.24773e-08
9.70225e-09
-4.98458e-08
1.45201e-08
-3.42984e-08
1.63225e-08
-2.12697e-08
1.68136e-08
-1.29441e-08
1.68268e-08
-8.04632e-09
1.6701e-08
-5.25038e-09
1.65601e-08
-3.69323e-09
1.64435e-08
-2.87015e-09
1.6358e-08
-2.49256e-09
1.62979e-08
-2.39434e-09
1.62516e-08
-2.47766e-09
1.62043e-08
-2.68239e-09
1.61378e-08
-2.96821e-09
1.60322e-08
-3.30376e-09
1.58675e-08
-3.66004e-09
1.5628e-08
-4.00728e-09
1.53071e-08
-4.31525e-09
-4.55689e-09
1.49116e-08
1.5666e-08
-6.55118e-08
2.14303e-08
-4.00627e-08
2.25925e-08
-2.24319e-08
2.22919e-08
-1.26435e-08
2.16845e-08
-7.43893e-09
2.11174e-08
-4.68328e-09
2.06666e-08
-3.24238e-09
2.03272e-08
-2.5308e-09
2.00747e-08
-2.23998e-09
1.98816e-08
-2.20129e-09
1.97222e-08
-2.31828e-09
1.95721e-08
-2.5323e-09
1.94081e-08
-2.80422e-09
1.92087e-08
-3.10431e-09
1.89557e-08
-3.40701e-09
1.86372e-08
-3.68883e-09
1.82508e-08
-3.92879e-09
-4.11048e-09
1.78043e-08
2.8663e-08
-9.41748e-08
3.36834e-08
-4.50831e-08
3.22621e-08
-2.10106e-08
3.00128e-08
-1.03942e-08
2.81525e-08
-5.5786e-09
2.67887e-08
-3.31954e-09
2.58151e-08
-2.26872e-09
2.51158e-08
-1.83153e-09
2.46011e-08
-1.72524e-09
2.42049e-08
-1.80512e-09
2.38781e-08
-1.99143e-09
2.35823e-08
-2.23655e-09
2.32872e-08
-2.50907e-09
2.29686e-08
-2.78576e-09
2.26094e-08
-3.04783e-09
2.22002e-08
-3.27963e-09
2.17403e-08
-3.46881e-09
-3.60713e-09
2.12369e-08
6.32456e-08
-1.5742e-07
5.66871e-08
-3.85247e-08
4.70898e-08
-1.14133e-08
4.05973e-08
-3.90174e-09
3.65008e-08
-1.48211e-09
3.38697e-08
-6.88457e-10
3.21183e-08
-5.17335e-10
3.09046e-08
-6.17848e-10
3.00249e-08
-8.45502e-10
2.93521e-08
-1.13232e-09
2.88025e-08
-1.44186e-09
2.83186e-08
-1.75263e-09
2.78598e-08
-2.05024e-09
2.73979e-08
-2.32386e-09
2.6915e-08
-2.56494e-09
2.64022e-08
-2.7669e-09
2.58588e-08
-2.92538e-09
-3.03853e-09
2.52902e-08
1.82991e-07
1.59136e-07
9.67974e-08
4.76694e-08
6.65688e-08
1.88154e-08
5.3236e-08
9.43102e-09
4.62501e-08
5.50384e-09
4.21302e-08
3.43144e-09
3.94904e-08
2.12247e-09
3.7686e-08
1.18653e-09
3.63792e-08
4.61333e-10
3.53744e-08
-1.27541e-10
3.45497e-08
-6.17164e-10
3.38314e-08
-1.03437e-09
3.31709e-08
-1.38972e-09
3.25364e-08
-1.68931e-09
3.19084e-08
-1.93697e-09
3.12771e-08
-2.13559e-09
3.06396e-08
-2.28794e-09
-2.39725e-09
2.99984e-08
7.72307e-08
8.19056e-08
7.54085e-08
4.94916e-08
6.53454e-08
2.88785e-08
5.73352e-08
1.74411e-08
5.1842e-08
1.09971e-08
4.81173e-08
7.15608e-09
4.55286e-08
4.7112e-09
4.36601e-08
3.05499e-09
4.22501e-08
1.87134e-09
4.11342e-08
9.88374e-10
4.02086e-08
3.0841e-10
3.93966e-08
-2.22322e-10
3.86481e-08
-6.41203e-10
3.79355e-08
-9.76758e-10
3.72424e-08
-1.2438e-09
3.65598e-08
-1.45304e-09
3.58847e-08
-1.61281e-09
-1.73001e-09
3.52174e-08
3.59385e-08
4.59671e-08
5.01226e-08
3.53075e-08
5.38055e-08
2.51956e-08
5.36308e-08
1.76158e-08
5.23201e-08
1.23079e-08
5.08436e-08
8.63249e-09
4.94969e-08
6.05797e-09
4.83346e-08
4.21723e-09
4.73351e-08
2.87085e-09
4.64589e-08
1.86465e-09
4.56685e-08
1.09872e-09
4.49388e-08
5.07417e-10
4.42509e-08
4.66616e-11
4.35832e-08
-3.09058e-10
4.29266e-08
-5.87119e-10
4.22769e-08
-8.03403e-10
4.16335e-08
-9.69364e-10
-1.09399e-09
4.09974e-08
1.43032e-08
3.16638e-08
2.32895e-08
2.63212e-08
2.80985e-08
2.03865e-08
3.04511e-08
1.52633e-08
3.15043e-08
1.12546e-08
3.18989e-08
8.23794e-09
3.1963e-08
5.9938e-09
3.18592e-08
4.3211e-09
3.1666e-08
3.06405e-09
3.14213e-08
2.10935e-09
3.11433e-08
1.37669e-09
3.08413e-08
8.09403e-10
3.05206e-08
3.67382e-10
3.01896e-08
2.19396e-11
2.98467e-08
-2.44204e-10
2.94946e-08
-4.51363e-10
2.91366e-08
-6.1138e-10
-7.33175e-10
2.87758e-08
8.56875e-09
2.30951e-08
1.49645e-08
1.99255e-08
1.92117e-08
1.61393e-08
2.18793e-08
1.25957e-08
2.35116e-08
9.62224e-09
2.44944e-08
7.25523e-09
2.50718e-08
5.41633e-09
2.53923e-08
4.00067e-09
2.55446e-08
2.91172e-09
2.55827e-08
2.07126e-09
2.55401e-08
1.41933e-09
2.54384e-08
9.11097e-10
2.52924e-08
5.1335e-10
2.51129e-08
2.01445e-10
2.4911e-08
-4.22869e-11
2.46901e-08
-2.30453e-10
2.44554e-08
-3.76685e-10
-4.89094e-10
2.42113e-08
5.78566e-09
1.73094e-08
1.04767e-08
1.52344e-08
1.39479e-08
1.26682e-08
1.63947e-08
1.0149e-08
1.80786e-08
7.93825e-09
1.92236e-08
6.11032e-09
1.99938e-08
4.64606e-09
2.05029e-08
3.49156e-09
2.08274e-08
2.58727e-09
2.10187e-08
1.87992e-09
2.11122e-08
1.32588e-09
2.11323e-08
8.90925e-10
2.10969e-08
5.48758e-10
2.10191e-08
2.79309e-10
2.09095e-08
6.72665e-11
2.07766e-08
-9.75667e-11
2.06255e-08
-2.25524e-10
-3.24622e-10
2.0461e-08
4.21411e-09
1.30953e-08
7.78728e-09
1.16612e-08
1.05991e-08
9.85633e-09
1.2716e-08
8.03215e-09
1.42703e-08
6.38396e-09
1.5395e-08
4.98559e-09
1.62e-08
3.8411e-09
1.67686e-08
2.92297e-09
1.71618e-08
2.19401e-09
1.74239e-08
1.6178e-09
1.75869e-08
1.16288e-09
1.76743e-08
8.0356e-10
1.77035e-08
5.19535e-10
1.76878e-08
2.94976e-10
1.76375e-08
1.17608e-10
1.75617e-08
-2.17404e-11
1.74658e-08
-1.29673e-10
-2.13759e-10
1.7355e-08
3.22643e-09
9.86889e-09
6.03488e-09
8.85276e-09
8.32937e-09
7.56184e-09
1.01285e-08
6.23302e-09
1.15034e-08
5.00905e-09
1.25368e-08
3.95219e-09
1.33038e-08
3.07411e-09
1.38659e-08
2.36091e-09
1.42709e-08
1.78897e-09
1.45554e-08
1.3333e-09
1.4747e-08
9.7127e-10
1.48667e-08
6.83898e-10
1.49304e-08
4.55815e-10
1.49505e-08
2.74844e-10
1.49367e-08
1.31417e-10
1.4897e-08
1.80254e-11
1.48374e-08
-7.00947e-11
-1.38842e-10
1.47625e-08
2.5548e-09
7.31409e-09
4.81507e-09
6.5925e-09
6.70612e-09
5.67078e-09
8.22835e-09
4.71079e-09
9.42227e-09
3.81513e-09
1.0342e-08
3.03241e-09
1.10409e-08
2.37525e-09
1.15651e-08
1.83676e-09
1.19523e-08
1.40177e-09
1.22324e-08
1.05314e-09
1.24289e-08
7.7482e-10
1.25598e-08
5.53011e-10
1.26392e-08
3.76365e-10
1.26783e-08
2.3578e-10
1.26857e-08
1.24034e-10
1.26683e-08
3.54216e-11
1.26321e-08
-3.39856e-11
-8.80602e-11
1.25814e-08
2.06965e-09
5.24443e-09
3.91987e-09
4.74228e-09
5.49194e-09
4.09872e-09
6.77945e-09
3.42328e-09
7.80689e-09
2.78768e-09
8.61163e-09
2.22768e-09
9.23281e-09
1.75407e-09
9.70601e-09
1.36355e-09
1.00614e-08
1.04642e-09
1.03234e-08
7.9112e-10
1.05117e-08
5.86548e-10
1.06417e-08
4.2299e-10
1.07257e-08
2.92367e-10
1.07733e-08
1.88138e-10
1.07923e-08
1.05079e-10
1.07887e-08
3.90429e-11
1.07677e-08
-1.30173e-11
-5.35101e-11
1.07331e-08
1.70192e-09
3.54251e-09
3.23377e-09
3.21043e-09
4.54858e-09
2.7839e-09
5.63785e-09
2.33401e-09
6.51728e-09
1.90824e-09
7.21393e-09
1.53103e-09
7.75759e-09
1.21041e-09
8.17629e-09
9.44852e-10
8.49434e-09
7.28367e-10
8.73196e-09
5.53508e-10
8.90552e-09
4.12983e-10
9.02817e-09
3.00337e-10
9.11039e-09
2.10157e-10
9.16049e-09
1.38033e-10
9.18514e-09
8.0426e-11
9.18967e-09
3.45157e-11
9.17855e-09
-1.89509e-12
-3.01235e-11
9.15516e-09
1.4115e-09
2.13101e-09
2.68766e-09
1.93428e-09
3.79034e-09
1.68122e-09
4.7109e-09
1.41345e-09
5.46008e-09
1.15907e-09
6.05825e-09
9.32866e-10
6.52873e-09
7.39919e-10
6.89398e-09
5.79602e-10
7.17382e-09
4.48533e-10
7.38494e-09
3.42388e-10
7.54104e-09
2.5688e-10
7.65319e-09
1.88183e-10
7.73028e-09
1.33068e-10
7.77942e-09
8.88941e-11
7.80631e-09
5.35335e-11
7.81554e-09
2.52855e-11
7.81086e-09
2.78776e-12
-1.46395e-11
7.79538e-09
1.17228e-09
9.58735e-10
2.23531e-09
8.71243e-10
3.15794e-09
7.58593e-10
3.93225e-09
6.39136e-10
4.56595e-09
5.25377e-10
5.07486e-09
4.23956e-10
5.47755e-09
3.37229e-10
5.79215e-09
2.64995e-10
6.03488e-09
2.05803e-10
6.21951e-09
1.57762e-10
6.35741e-09
1.18978e-10
6.45784e-09
8.77537e-11
6.52826e-09
6.26502e-11
6.57467e-09
4.24867e-11
6.60189e-09
2.63098e-11
6.61382e-09
1.33553e-11
6.6136e-09
3.0106e-12
-4.96964e-12
6.60393e-09
9.58735e-10
1.82998e-09
2.58857e-09
3.22771e-09
3.75308e-09
4.17704e-09
4.51427e-09
4.77926e-09
4.98507e-09
5.14283e-09
5.26181e-09
5.34956e-09
5.41221e-09
5.4547e-09
5.48101e-09
5.49436e-09
5.49737e-09
5.4924e-09
2.1363e-10
-2.1363e-10
4.28603e-10
-2.14973e-10
6.44776e-10
-2.16173e-10
8.61998e-10
-2.17222e-10
1.0801e-09
-2.18106e-10
1.29892e-09
-2.18815e-10
1.51826e-09
-2.19338e-10
1.73792e-09
-2.19663e-10
1.95771e-09
-2.19787e-10
2.17741e-09
-2.19708e-10
2.39685e-09
-2.19433e-10
2.61582e-09
-2.18977e-10
2.83419e-09
-2.18366e-10
3.05183e-09
-2.17637e-10
3.26867e-09
-2.16842e-10
3.48472e-09
-2.16049e-10
3.70006e-09
-2.1534e-10
3.91487e-09
-2.1481e-10
4.12943e-09
-2.14561e-10
4.34413e-09
-2.14696e-10
4.55944e-09
-2.15314e-10
4.77594e-09
-2.16505e-10
4.99429e-09
-2.18349e-10
5.21521e-09
-2.20919e-10
5.43949e-09
-2.24275e-10
5.66795e-09
-2.28465e-10
5.90147e-09
-2.33517e-10
6.14091e-09
-2.39435e-10
6.3871e-09
-2.46194e-10
6.64083e-09
-2.53732e-10
6.90279e-09
-2.6196e-10
7.17356e-09
-2.70772e-10
7.45365e-09
-2.80085e-10
7.74353e-09
-2.89883e-10
8.0438e-09
-3.00272e-10
8.35533e-09
-3.11527e-10
8.67945e-09
-3.24124e-10
9.01821e-09
-3.38755e-10
9.37455e-09
-3.56347e-10
9.75266e-09
-3.78107e-10
1.01583e-08
-4.05616e-10
1.05993e-08
-4.40985e-10
1.10864e-08
-4.87115e-10
1.16344e-08
-5.48047e-10
1.22637e-08
-6.2932e-10
1.30016e-08
-7.37876e-10
1.38813e-08
-8.7965e-10
1.49296e-08
-1.0483e-09
1.61155e-08
-1.1859e-09
2.10405e-08
-4.92507e-09
1.9556e-08
1.48456e-09
1.85867e-08
9.69248e-10
1.78884e-08
6.98335e-10
1.73339e-08
5.54505e-10
1.68619e-08
4.71971e-10
1.64437e-08
4.1824e-10
1.60652e-08
3.78444e-10
1.57191e-08
3.4613e-10
1.54006e-08
3.18556e-10
1.51061e-08
2.94494e-10
1.48328e-08
2.73284e-10
1.45783e-08
2.54471e-10
1.43406e-08
2.37686e-10
1.4118e-08
2.22614e-10
1.3909e-08
2.08984e-10
1.37124e-08
1.96573e-10
1.35272e-08
1.85202e-10
1.33525e-08
1.74725e-10
1.31875e-08
1.65025e-10
1.30315e-08
1.5601e-10
1.28839e-08
1.47605e-10
1.27441e-08
1.39747e-10
1.26117e-08
1.32387e-10
1.24863e-08
1.25479e-10
1.23673e-08
1.18987e-10
1.22544e-08
1.12876e-10
1.21473e-08
1.0712e-10
1.20456e-08
1.01692e-10
1.1949e-08
9.65686e-11
1.18573e-08
9.17302e-11
1.17701e-08
8.71583e-11
1.16873e-08
8.2836e-11
1.16086e-08
7.87481e-11
1.15337e-08
7.48808e-11
1.14625e-08
7.12214e-11
1.13947e-08
6.77584e-11
1.13302e-08
6.4481e-11
1.12688e-08
6.13794e-11
1.12104e-08
5.84442e-11
1.11547e-08
5.5667e-11
1.11017e-08
5.304e-11
1.10511e-08
5.05555e-11
1.10029e-08
4.82066e-11
1.09569e-08
4.59864e-11
1.0913e-08
4.38892e-11
1.08711e-08
4.19087e-11
1.08311e-08
4.00393e-11
1.07928e-08
3.82759e-11
1.07562e-08
3.66133e-11
1.07212e-08
3.50467e-11
1.06876e-08
3.35715e-11
1.06554e-08
3.21834e-11
1.06245e-08
3.08779e-11
1.05949e-08
2.96516e-11
1.05664e-08
2.84999e-11
1.0539e-08
2.74198e-11
1.05125e-08
2.64074e-11
1.04871e-08
2.54595e-11
1.04625e-08
2.45729e-11
1.04388e-08
2.37444e-11
1.04158e-08
2.29712e-11
1.03936e-08
2.22504e-11
1.0372e-08
2.15792e-11
1.0351e-08
2.09553e-11
1.03306e-08
2.0376e-11
1.03108e-08
1.98391e-11
1.02915e-08
1.93421e-11
1.02726e-08
1.88834e-11
1.02541e-08
1.84602e-11
1.0236e-08
1.80712e-11
1.02183e-08
1.77141e-11
1.02009e-08
1.73875e-11
1.01839e-08
1.70893e-11
1.0167e-08
1.68183e-11
1.01505e-08
1.65727e-11
1.01341e-08
1.6351e-11
1.0118e-08
1.61521e-11
1.0102e-08
1.59744e-11
1.00862e-08
1.58168e-11
1.00705e-08
1.56782e-11
1.00549e-08
1.55572e-11
1.00395e-08
1.54532e-11
1.00241e-08
1.53647e-11
1.00088e-08
1.52911e-11
9.99359e-09
1.52314e-11
9.97841e-09
1.51849e-11
9.96326e-09
1.51504e-11
9.94813e-09
1.51279e-11
9.93301e-09
1.5116e-11
9.9179e-09
1.51145e-11
9.90278e-09
1.51227e-11
9.88764e-09
1.514e-11
9.87247e-09
1.51662e-11
9.85727e-09
1.52007e-11
9.84203e-09
1.52431e-11
9.82673e-09
1.52931e-11
9.81138e-09
1.53505e-11
9.79597e-09
1.54153e-11
9.78048e-09
1.54875e-11
9.76491e-09
1.55671e-11
9.74926e-09
1.56541e-11
9.73351e-09
1.57492e-11
9.71766e-09
1.58529e-11
9.70169e-09
1.59659e-11
9.6856e-09
1.60896e-11
9.66938e-09
1.62253e-11
9.653e-09
1.63755e-11
9.63646e-09
1.65427e-11
9.61973e-09
1.67306e-11
9.60278e-09
1.69439e-11
9.58559e-09
1.7189e-11
9.56812e-09
1.74738e-11
9.55031e-09
1.78094e-11
9.5321e-09
1.82095e-11
9.51341e-09
1.86932e-11
9.49412e-09
1.92853e-11
9.4741e-09
2.00195e-11
9.45316e-09
2.09417e-11
9.43105e-09
2.21153e-11
9.40742e-09
2.36292e-11
9.38181e-09
2.56113e-11
9.35355e-09
2.8251e-11
9.32172e-09
3.18379e-11
9.28488e-09
3.68385e-11
9.24083e-09
4.40493e-11
9.18588e-09
5.49523e-11
9.11323e-09
7.26471e-11
9.0084e-09
1.04832e-10
8.83218e-09
1.76222e-10
4.00845e-10
8.43133e-09
2.45942e-10
-4.59573e-10
4.9349e-10
-4.6252e-10
7.425e-10
-4.65183e-10
9.92826e-10
-4.67548e-10
1.24432e-09
-4.69599e-10
1.49684e-09
-4.71336e-10
1.75027e-09
-4.72766e-10
2.00451e-09
-4.73906e-10
2.2595e-09
-4.74775e-10
2.51519e-09
-4.75394e-10
2.77154e-09
-4.75786e-10
3.02854e-09
-4.75979e-10
3.28617e-09
-4.76e-10
3.54442e-09
-4.75882e-10
3.80324e-09
-4.75662e-10
4.06257e-09
-4.7538e-10
4.32232e-09
-4.75085e-10
4.58233e-09
-4.74829e-10
4.84245e-09
-4.74673e-10
5.10244e-09
-4.74686e-10
5.36207e-09
-4.74944e-10
5.62109e-09
-4.75529e-10
5.87927e-09
-4.76528e-10
6.13638e-09
-4.78032e-10
6.39225e-09
-4.80139e-10
6.64673e-09
-4.82951e-10
6.89979e-09
-4.86576e-10
7.15148e-09
-4.91123e-10
7.40199e-09
-4.96704e-10
7.65169e-09
-5.03433e-10
7.90116e-09
-5.11432e-10
8.15124e-09
-5.20847e-10
8.40303e-09
-5.31876e-10
8.65795e-09
-5.44807e-10
8.91774e-09
-5.6006e-10
9.18445e-09
-5.78233e-10
9.46047e-09
-6.00152e-10
9.74865e-09
-6.26927e-10
1.00523e-08
-6.60027e-10
1.03756e-08
-7.01387e-10
1.07236e-08
-7.53592e-10
1.11028e-08
-8.20168e-10
1.15217e-08
-9.06089e-10
1.19924e-08
-1.01869e-09
1.25325e-08
-1.16949e-09
1.31728e-08
-1.37815e-09
1.39755e-08
-1.68228e-09
1.50903e-08
-2.16318e-09
1.69161e-08
-3.01168e-09
1.69465e-08
-4.95548e-09
1.85194e-08
-8.82776e-11
1.80485e-08
1.44007e-09
1.76052e-08
1.14166e-09
1.71723e-08
9.87428e-10
1.67572e-08
8.8707e-10
1.63666e-08
8.08801e-10
1.60033e-08
7.41786e-10
1.56669e-08
6.8254e-10
1.53555e-08
6.29875e-10
1.50669e-08
5.83135e-10
1.47985e-08
5.41684e-10
1.45481e-08
5.04842e-10
1.43139e-08
4.71932e-10
1.40942e-08
4.42337e-10
1.38876e-08
4.15528e-10
1.36931e-08
3.91073e-10
1.35097e-08
3.68622e-10
1.33365e-08
3.47901e-10
1.31729e-08
3.28691e-10
1.3018e-08
3.10817e-10
1.28715e-08
2.94135e-10
1.27327e-08
2.7853e-10
1.26012e-08
2.63901e-10
1.24765e-08
2.50166e-10
1.23583e-08
2.37251e-10
1.22461e-08
2.25093e-10
1.21395e-08
2.13635e-10
1.20384e-08
2.02828e-10
1.19423e-08
1.92625e-10
1.18511e-08
1.82989e-10
1.17644e-08
1.73881e-10
1.16819e-08
1.65269e-10
1.16036e-08
1.57122e-10
1.1529e-08
1.49415e-10
1.14581e-08
1.42121e-10
1.13907e-08
1.35217e-10
1.13265e-08
1.28683e-10
1.12653e-08
1.22499e-10
1.12071e-08
1.16647e-10
1.11517e-08
1.11109e-10
1.10989e-08
1.0587e-10
1.10485e-08
1.00915e-10
1.10005e-08
9.62299e-11
1.09547e-08
9.1802e-11
1.09109e-08
8.76187e-11
1.08692e-08
8.36683e-11
1.08293e-08
7.99396e-11
1.07911e-08
7.64219e-11
1.07546e-08
7.31055e-11
1.07197e-08
6.99803e-11
1.06862e-08
6.70376e-11
1.06542e-08
6.42682e-11
1.06234e-08
6.16643e-11
1.05938e-08
5.92175e-11
1.05654e-08
5.69203e-11
1.0538e-08
5.47654e-11
1.05117e-08
5.27458e-11
1.04863e-08
5.08548e-11
1.04618e-08
4.9086e-11
1.04381e-08
4.74333e-11
1.04152e-08
4.58907e-11
1.0393e-08
4.44527e-11
1.03714e-08
4.31139e-11
1.03505e-08
4.18693e-11
1.03302e-08
4.07136e-11
1.03104e-08
3.96426e-11
1.02911e-08
3.86516e-11
1.02722e-08
3.77361e-11
1.02538e-08
3.68923e-11
1.02358e-08
3.61163e-11
1.02181e-08
3.54043e-11
1.02007e-08
3.47527e-11
1.01836e-08
3.41582e-11
1.01668e-08
3.36176e-11
1.01503e-08
3.31278e-11
1.01339e-08
3.2686e-11
1.01178e-08
3.22893e-11
1.01018e-08
3.19352e-11
1.0086e-08
3.16211e-11
1.00704e-08
3.13448e-11
1.00548e-08
3.1104e-11
1.00394e-08
3.08966e-11
1.0024e-08
3.07205e-11
1.00087e-08
3.0574e-11
9.99352e-09
3.04554e-11
9.97834e-09
3.03627e-11
9.9632e-09
3.02948e-11
9.94808e-09
3.02499e-11
9.93296e-09
3.02267e-11
9.91785e-09
3.02241e-11
9.90274e-09
3.0241e-11
9.8876e-09
3.02761e-11
9.87244e-09
3.03287e-11
9.85724e-09
3.03977e-11
9.842e-09
3.04828e-11
9.82671e-09
3.05831e-11
9.81136e-09
3.06983e-11
9.79595e-09
3.0828e-11
9.78047e-09
3.09724e-11
9.7649e-09
3.11314e-11
9.74925e-09
3.13055e-11
9.7335e-09
3.14957e-11
9.71765e-09
3.17027e-11
9.70169e-09
3.19286e-11
9.68561e-09
3.21755e-11
9.66938e-09
3.24468e-11
9.65301e-09
3.27463e-11
9.63648e-09
3.30798e-11
9.61975e-09
3.34543e-11
9.60282e-09
3.38795e-11
9.58564e-09
3.43677e-11
9.56818e-09
3.49349e-11
9.55038e-09
3.56026e-11
9.53219e-09
3.63987e-11
9.51353e-09
3.73603e-11
9.49428e-09
3.8537e-11
9.4743e-09
3.99954e-11
9.45342e-09
4.18261e-11
9.43138e-09
4.4154e-11
9.40785e-09
4.71546e-11
9.38238e-09
5.10793e-11
9.35434e-09
5.62981e-11
9.3228e-09
6.33763e-11
9.28642e-09
7.32145e-11
9.24314e-09
8.73357e-11
9.18957e-09
1.08517e-10
9.11985e-09
1.42366e-10
9.02286e-09
2.01823e-10
8.87692e-09
3.22162e-10
6.16178e-10
8.66159e-09
2.58722e-10
-7.18295e-10
5.19159e-10
-7.22957e-10
7.81113e-10
-7.27138e-10
1.04439e-09
-7.30827e-10
1.3088e-09
-7.34011e-10
1.57417e-09
-7.36697e-10
1.84031e-09
-7.3891e-10
2.1071e-09
-7.40692e-10
2.3744e-09
-7.42084e-10
2.64214e-09
-7.43131e-10
2.91023e-09
-7.43876e-10
3.17861e-09
-7.44359e-10
3.44723e-09
-7.44615e-10
3.71602e-09
-7.44674e-10
3.98491e-09
-7.44558e-10
4.25381e-09
-7.44274e-10
4.52255e-09
-7.43824e-10
4.79092e-09
-7.43199e-10
5.05864e-09
-7.42394e-10
5.32537e-09
-7.41415e-10
5.59072e-09
-7.40292e-10
5.85428e-09
-7.39091e-10
6.11567e-09
-7.37917e-10
6.37455e-09
-7.36916e-10
6.63068e-09
-7.36272e-10
6.88393e-09
-7.36197e-10
7.13428e-09
-7.3693e-10
7.38189e-09
-7.38725e-10
7.62704e-09
-7.41856e-10
7.87021e-09
-7.4661e-10
8.11208e-09
-7.533e-10
8.35352e-09
-7.62281e-10
8.59561e-09
-7.73968e-10
8.83968e-09
-7.88876e-10
9.08727e-09
-8.07657e-10
9.34019e-09
-8.31146e-10
9.60045e-09
-8.60413e-10
9.87035e-09
-8.96834e-10
1.01525e-08
-9.42169e-10
1.04498e-08
-9.98689e-10
1.07655e-08
-1.06934e-09
1.11034e-08
-1.15799e-09
1.14671e-08
-1.26979e-09
1.18601e-08
-1.4117e-09
1.22837e-08
-1.59306e-09
1.27317e-08
-1.82617e-09
1.31747e-08
-2.1253e-09
1.35106e-08
-2.4991e-09
1.34155e-08
-2.91657e-09
1.16403e-08
-3.18023e-09
1.70391e-08
-5.48712e-09
1.74514e-08
1.02782e-09
1.72961e-08
1.29692e-09
1.69718e-08
1.31175e-09
1.66022e-08
1.25669e-09
1.62356e-08
1.17538e-09
1.58891e-08
1.08829e-09
1.55668e-08
1.00482e-09
1.5268e-08
9.2871e-10
1.49903e-08
8.60823e-10
1.47313e-08
8.00667e-10
1.44889e-08
7.47246e-10
1.42613e-08
6.99494e-10
1.40472e-08
6.56455e-10
1.38454e-08
6.17345e-10
1.36549e-08
5.81546e-10
1.3475e-08
5.48575e-10
1.33048e-08
5.18058e-10
1.31438e-08
4.89698e-10
1.29914e-08
4.6326e-10
1.28469e-08
4.3855e-10
1.27101e-08
4.15406e-10
1.25803e-08
3.9369e-10
1.24572e-08
3.73284e-10
1.23403e-08
3.54085e-10
1.22294e-08
3.36e-10
1.21241e-08
3.18949e-10
1.20241e-08
3.0286e-10
1.1929e-08
2.87666e-10
1.18387e-08
2.73309e-10
1.17529e-08
2.59736e-10
1.16712e-08
2.46899e-10
1.15936e-08
2.34753e-10
1.15198e-08
2.23259e-10
1.14495e-08
2.12379e-10
1.13826e-08
2.0208e-10
1.1319e-08
1.92331e-10
1.12584e-08
1.83102e-10
1.12007e-08
1.74367e-10
1.11457e-08
1.66101e-10
1.10933e-08
1.5828e-10
1.10433e-08
1.50883e-10
1.09956e-08
1.43888e-10
1.09502e-08
1.37277e-10
1.09067e-08
1.3103e-10
1.08653e-08
1.25131e-10
1.08257e-08
1.19562e-10
1.07878e-08
1.14309e-10
1.07515e-08
1.09356e-10
1.07168e-08
1.04688e-10
1.06836e-08
1.00293e-10
1.06517e-08
9.6157e-11
1.06211e-08
9.22676e-11
1.05917e-08
8.8613e-11
1.05634e-08
8.51817e-11
1.05362e-08
8.19631e-11
1.051e-08
7.89464e-11
1.04847e-08
7.61219e-11
1.04604e-08
7.34799e-11
1.04368e-08
7.10112e-11
1.0414e-08
6.87072e-11
1.03919e-08
6.65595e-11
1.03704e-08
6.45598e-11
1.03496e-08
6.27008e-11
1.03293e-08
6.0975e-11
1.03096e-08
5.93754e-11
1.02903e-08
5.78952e-11
1.02715e-08
5.65283e-11
1.02532e-08
5.52683e-11
1.02352e-08
5.41095e-11
1.02175e-08
5.30463e-11
1.02002e-08
5.20737e-11
1.01832e-08
5.11861e-11
1.01664e-08
5.03793e-11
1.01499e-08
4.96482e-11
1.01336e-08
4.89889e-11
1.01175e-08
4.83971e-11
1.01016e-08
4.78688e-11
1.00858e-08
4.74004e-11
1.00701e-08
4.69885e-11
1.00546e-08
4.66295e-11
1.00392e-08
4.63206e-11
1.00238e-08
4.60586e-11
1.00086e-08
4.58407e-11
9.99337e-09
4.56643e-11
9.97821e-09
4.5527e-11
9.96308e-09
4.54264e-11
9.94797e-09
4.53605e-11
9.93287e-09
4.5327e-11
9.91777e-09
4.53241e-11
9.90266e-09
4.53503e-11
9.88753e-09
4.54039e-11
9.87237e-09
4.54836e-11
9.85718e-09
4.55879e-11
9.84195e-09
4.57161e-11
9.82667e-09
4.5867e-11
9.81132e-09
4.60401e-11
9.79592e-09
4.62352e-11
9.78044e-09
4.64519e-11
9.76488e-09
4.66906e-11
9.74923e-09
4.69517e-11
9.73349e-09
4.72365e-11
9.71765e-09
4.75468e-11
9.70169e-09
4.7885e-11
9.68561e-09
4.82545e-11
9.6694e-09
4.866e-11
9.65304e-09
4.91077e-11
9.63651e-09
4.96057e-11
9.6198e-09
5.01647e-11
9.60288e-09
5.07987e-11
9.58572e-09
5.1526e-11
9.56829e-09
5.23706e-11
9.55053e-09
5.3364e-11
9.53238e-09
5.45475e-11
9.51376e-09
5.59759e-11
9.49458e-09
5.77222e-11
9.47469e-09
5.98847e-11
9.45392e-09
6.25967e-11
9.43203e-09
6.60414e-11
9.40871e-09
7.04755e-11
9.38352e-09
7.62649e-11
9.35588e-09
8.39461e-11
9.32492e-09
9.433e-11
9.28944e-09
1.08696e-10
9.24761e-09
1.29165e-10
9.19663e-09
1.595e-10
9.13207e-09
2.06925e-10
9.0472e-09
2.86696e-10
8.93533e-09
4.34028e-10
7.31485e-10
8.82002e-09
2.6789e-10
-9.86185e-10
5.37593e-10
-9.9266e-10
8.08853e-10
-9.98398e-10
1.08141e-09
-1.00338e-09
1.35499e-09
-1.0076e-09
1.62934e-09
-1.01104e-09
1.90416e-09
-1.01373e-09
2.17919e-09
-1.01572e-09
2.45416e-09
-1.01705e-09
2.72879e-09
-1.01777e-09
3.00284e-09
-1.01792e-09
3.27604e-09
-1.01756e-09
3.54817e-09
-1.01674e-09
3.81898e-09
-1.01549e-09
4.08828e-09
-1.01385e-09
4.35585e-09
-1.01185e-09
4.62153e-09
-1.0095e-09
4.88516e-09
-1.00683e-09
5.14663e-09
-1.00386e-09
5.40584e-09
-1.00063e-09
5.66274e-09
-9.97195e-10
5.91731e-09
-9.9366e-10
6.16955e-09
-9.90156e-10
6.41949e-09
-9.86854e-10
6.66718e-09
-9.83966e-10
6.91272e-09
-9.81738e-10
7.15625e-09
-9.80453e-10
7.39795e-09
-9.8043e-10
7.63812e-09
-9.82018e-10
7.87711e-09
-9.85605e-10
8.11543e-09
-9.91622e-10
8.35371e-09
-1.00055e-09
8.5927e-09
-1.01296e-09
8.83334e-09
-1.02951e-09
9.07667e-09
-1.05099e-09
9.32388e-09
-1.07836e-09
9.57627e-09
-1.11281e-09
9.83523e-09
-1.15579e-09
1.01022e-08
-1.2091e-09
1.03785e-08
-1.27501e-09
1.06655e-08
-1.35632e-09
1.0964e-08
-1.45654e-09
1.12743e-08
-1.58006e-09
1.15949e-08
-1.73231e-09
1.19216e-08
-1.91979e-09
1.22452e-08
-2.14979e-09
1.25492e-08
-2.42927e-09
1.28125e-08
-2.76233e-09
1.30431e-08
-3.14722e-09
1.34474e-08
-3.58452e-09
1.21231e-08
-4.16286e-09
1.77972e-08
-4.64626e-09
1.73086e-08
1.7855e-09
1.68527e-08
1.76771e-09
1.64372e-08
1.67212e-09
1.60638e-08
1.54878e-09
1.57276e-08
1.42449e-09
1.54219e-08
1.31054e-09
1.51405e-08
1.21008e-09
1.48788e-08
1.12251e-09
1.46336e-08
1.04589e-09
1.44027e-08
9.7814e-10
1.41847e-08
9.17501e-10
1.39786e-08
8.62608e-10
1.37835e-08
8.12449e-10
1.35987e-08
7.66285e-10
1.34237e-08
7.23562e-10
1.32579e-08
6.8386e-10
1.31008e-08
6.46849e-10
1.29518e-08
6.1226e-10
1.28105e-08
5.79868e-10
1.26764e-08
5.49482e-10
1.25491e-08
5.20937e-10
1.24283e-08
4.94087e-10
1.23136e-08
4.68803e-10
1.22047e-08
4.4497e-10
1.21011e-08
4.22485e-10
1.20027e-08
4.01255e-10
1.19092e-08
3.81198e-10
1.18203e-08
3.62237e-10
1.17357e-08
3.44303e-10
1.16553e-08
3.27336e-10
1.15787e-08
3.11277e-10
1.15059e-08
2.96075e-10
1.14366e-08
2.81682e-10
1.13706e-08
2.68054e-10
1.13078e-08
2.55151e-10
1.1248e-08
2.42934e-10
1.1191e-08
2.31369e-10
1.11367e-08
2.20423e-10
1.10849e-08
2.10065e-10
1.10355e-08
2.00267e-10
1.09884e-08
1.91001e-10
1.09434e-08
1.82243e-10
1.09005e-08
1.73966e-10
1.08595e-08
1.6615e-10
1.08203e-08
1.58771e-10
1.07828e-08
1.5181e-10
1.07469e-08
1.45245e-10
1.07125e-08
1.3906e-10
1.06796e-08
1.33234e-10
1.0648e-08
1.27753e-10
1.06176e-08
1.22598e-10
1.05885e-08
1.17754e-10
1.05605e-08
1.13206e-10
1.05335e-08
1.0894e-10
1.05075e-08
1.04941e-10
1.04824e-08
1.01197e-10
1.04582e-08
9.76956e-11
1.04348e-08
9.44236e-11
1.04121e-08
9.13697e-11
1.03902e-08
8.85231e-11
1.03688e-08
8.5873e-11
1.03481e-08
8.34091e-11
1.0328e-08
8.1122e-11
1.03084e-08
7.90023e-11
1.02892e-08
7.70409e-11
1.02705e-08
7.52296e-11
1.02522e-08
7.35603e-11
1.02343e-08
7.20251e-11
1.02167e-08
7.06166e-11
1.01995e-08
6.93283e-11
1.01825e-08
6.81529e-11
1.01658e-08
6.70844e-11
1.01493e-08
6.61166e-11
1.01331e-08
6.52438e-11
1.0117e-08
6.44607e-11
1.01011e-08
6.37618e-11
1.00854e-08
6.31425e-11
1.00698e-08
6.25978e-11
1.00543e-08
6.21237e-11
1.00389e-08
6.17157e-11
1.00236e-08
6.13701e-11
1.00083e-08
6.1083e-11
9.99315e-09
6.08509e-11
9.97801e-09
6.06709e-11
9.9629e-09
6.05394e-11
9.9478e-09
6.04538e-11
9.93272e-09
6.04114e-11