/*--------------------------------*- C++ -*----------------------------------*\
  =========                 |
  \\      /  F ield         | OpenFOAM: The Open Source CFD Toolbox
   \\    /   O peration     | Website:  https://openfoam.org
    \\  /    A nd           | Version:  10
     \\/     M anipulation  |
\*---------------------------------------------------------------------------*/
FoamFile
{
    format      ascii;
    class       volVectorField;
    location    "0.043";
    object      U;
}
// * * * * * * * * * * * * * * * * * * * * * * * * * * * * * * * * * * * * * //

dimensions      [0 1 -1 0 0 0 0];

internalField   nonuniform List<vector> 
4000
(
(5.00002 -7.34004e-05 0)
(5.00016 -0.000223139 0)
(5.00048 -0.000372634 0)
(5.00094 -0.000521311 0)
(5.00156 -0.000670469 0)
(5.00233 -0.000819455 0)
(5.00324 -0.000969383 0)
(5.0043 -0.00111933 0)
(5.00551 -0.00127064 0)
(5.00687 -0.00142221 0)
(5.00838 -0.00157561 0)
(5.01004 -0.00172962 0)
(5.01186 -0.001886 0)
(5.01383 -0.00204349 0)
(5.01596 -0.002204 0)
(5.01825 -0.0023662 0)
(5.0207 -0.00253211 0)
(5.02332 -0.00270039 0)
(5.02611 -0.00287314 0)
(5.02908 -0.00304901 0)
(5.03222 -0.00323017 0)
(5.03554 -0.00341528 0)
(5.03905 -0.00360658 0)
(5.04276 -0.00380274 0)
(5.04666 -0.00400605 0)
(5.05077 -0.0042152 0)
(5.05509 -0.00443254 0)
(5.05963 -0.00465677 0)
(5.0644 -0.00489029 0)
(5.06941 -0.00513181 0)
(5.07466 -0.00538376 0)
(5.08017 -0.00564489 0)
(5.08595 -0.00591766 0)
(5.092 -0.00620082 0)
(5.09834 -0.00649688 0)
(5.10498 -0.00680459 0)
(5.11194 -0.00712648 0)
(5.11923 -0.00746133 0)
(5.12685 -0.00781167 0)
(5.13484 -0.00817628 0)
(5.14319 -0.00855774 0)
(5.15194 -0.00895478 0)
(5.16109 -0.00937001 0)
(5.17066 -0.00980213 0)
(5.18068 -0.0102538 0)
(5.19116 -0.0107236 0)
(5.20211 -0.0112141 0)
(5.21357 -0.0117241 0)
(5.22555 -0.012256 0)
(5.23807 -0.0128083 0)
(5.25115 -0.0133837 0)
(5.26482 -0.0139804 0)
(5.27909 -0.0146009 0)
(5.294 -0.0152433 0)
(5.30957 -0.01591 0)
(5.32581 -0.0165988 0)
(5.34275 -0.0173119 0)
(5.36042 -0.0180468 0)
(5.37883 -0.0188053 0)
(5.39802 -0.0195844 0)
(5.41799 -0.0203857 0)
(5.43878 -0.0212056 0)
(5.4604 -0.0220449 0)
(5.48287 -0.0228994 0)
(5.50621 -0.0237695 0)
(5.53042 -0.0246499 0)
(5.55552 -0.0255402 0)
(5.58152 -0.0264342 0)
(5.60842 -0.0273307 0)
(5.63622 -0.0282224 0)
(5.66491 -0.0291071 0)
(5.69448 -0.0299767 0)
(5.72493 -0.0308279 0)
(5.75621 -0.031652 0)
(5.78832 -0.0324448 0)
(5.8212 -0.0331971 0)
(5.85483 -0.0339046 0)
(5.88914 -0.0345577 0)
(5.92408 -0.0351523 0)
(5.95959 -0.0356795 0)
(5.9956 -0.0361357 0)
(6.03204 -0.0365132 0)
(6.06881 -0.0368098 0)
(6.10584 -0.0370195 0)
(6.14305 -0.0371417 0)
(6.18033 -0.0371729 0)
(6.2176 -0.0371144 0)
(6.25476 -0.0369651 0)
(6.29172 -0.0367283 0)
(6.32841 -0.0364051 0)
(6.36472 -0.0360007 0)
(6.40059 -0.0355181 0)
(6.43592 -0.0349639 0)
(6.47067 -0.0343424 0)
(6.50475 -0.0336612 0)
(6.53812 -0.0329254 0)
(6.57072 -0.0321429 0)
(6.6025 -0.0313192 0)
(6.63344 -0.0304623 0)
(6.6635 -0.0295774 0)
(6.69265 -0.0286723 0)
(6.72089 -0.0277516 0)
(6.74819 -0.0268228 0)
(6.77456 -0.0258894 0)
(6.79998 -0.0249587 0)
(6.82448 -0.0240331 0)
(6.84805 -0.0231192 0)
(6.8707 -0.0222183 0)
(6.89246 -0.0213367 0)
(6.91334 -0.0204742 0)
(6.93337 -0.0196368 0)
(6.95257 -0.0188231 0)
(6.97096 -0.0180387 0)
(6.98857 -0.0172809 0)
(7.00544 -0.0165554 0)
(7.02159 -0.0158579 0)
(7.03705 -0.0151945 0)
(7.05186 -0.0145596 0)
(7.06605 -0.0139595 0)
(7.07965 -0.0133872 0)
(7.09268 -0.0128501 0)
(7.10519 -0.0123395 0)
(7.1172 -0.0118638 0)
(7.12875 -0.0114129 0)
(7.13985 -0.0109966 0)
(7.15056 -0.0106032 0)
(7.16087 -0.010244 0)
(7.17085 -0.00990581 0)
(7.18049 -0.00960195 0)
(7.18985 -0.00931742 0)
(7.19892 -0.00906787 0)
(7.20776 -0.00883649 0)
(7.21638 -0.00864155 0)
(7.22481 -0.00846425 0)
(7.23307 -0.00832573 0)
(7.2412 -0.00820503 0)
(7.24921 -0.00812619 0)
(7.25715 -0.00806584 0)
(7.26503 -0.00805072 0)
(7.27291 -0.00805473 0)
(7.28078 -0.00810676 0)
(7.28872 -0.00817756 0)
(7.29672 -0.00829725 0)
(7.30484 -0.00843311 0)
(7.3131 -0.00861508 0)
(7.32153 -0.00880678 0)
(7.33016 -0.00903627 0)
(7.33899 -0.00926372 0)
(7.34806 -0.00951333 0)
(7.35733 -0.00974262 0)
(7.36684 -0.00997007 0)
(7.37653 -0.0101522 0)
(7.38639 -0.0103001 0)
(7.39633 -0.0103719 0)
(7.40634 -0.0103706 0)
(7.41626 -0.0102591 0)
(7.42605 -0.0100325 0)
(7.43551 -0.00966256 0)
(7.44458 -0.00913684 0)
(7.453 -0.00844058 0)
(7.46069 -0.00755474 0)
(7.46738 -0.00648118 0)
(7.47296 -0.00519564 0)
(7.47713 -0.00371948 0)
(7.47979 -0.00202406 0)
(7.48064 -0.000148489 0)
(7.47959 0.0019407 0)
(7.47635 0.00418521 0)
(7.47085 0.0066219 0)
(7.46284 0.00917678 0)
(7.45226 0.0118909 0)
(7.43894 0.0146783 0)
(7.42281 0.0175841 0)
(7.40378 0.020514 0)
(7.38182 0.0235173 0)
(7.35688 0.0264951 0)
(7.32898 0.0294998 0)
(7.29812 0.0324318 0)
(7.26436 0.0353458 0)
(7.22776 0.0381443 0)
(7.18839 0.0408838 0)
(7.14638 0.0434712 0)
(7.10182 0.045964 0)
(7.05488 0.0482753 0)
(7.00567 0.050463 0)
(6.95438 0.0524477 0)
(6.90116 0.0542869 0)
(6.84622 0.0559092 0)
(6.78971 0.0573718 0)
(6.73186 0.0586108 0)
(6.67283 0.059683 0)
(6.61283 0.0605314 0)
(6.55205 0.0612126 0)
(6.49065 0.061675 0)
(6.42894 0.0619765 0)
(6.36667 0.0620664 0)
(6.30555 0.0620119 0)
(6.24063 0.0617391 0)
(6.19079 0.0614373 0)
(6.09732 0.0604421 0)
(5.00002 -0.000219623 0)
(5.00016 -0.000666868 0)
(5.00048 -0.00111343 0)
(5.00094 -0.00155798 0)
(5.00155 -0.00200332 0)
(5.00231 -0.00244897 0)
(5.00322 -0.00289662 0)
(5.00427 -0.00334532 0)
(5.00547 -0.00379709 0)
(5.00682 -0.00425083 0)
(5.00833 -0.0047089 0)
(5.00998 -0.00517016 0)
(5.01179 -0.00563728 0)
(5.01375 -0.00610912 0)
(5.01587 -0.00658859 0)
(5.01814 -0.00707457 0)
(5.02058 -0.00757017 0)
(5.02319 -0.0080743 0)
(5.02596 -0.00859027 0)
(5.0289 -0.00911703 0)
(5.03203 -0.00965806 0)
(5.03533 -0.0102124 0)
(5.03881 -0.0107837 0)
(5.04249 -0.011371 0)
(5.04637 -0.0119781 0)
(5.05045 -0.0126043 0)
(5.05473 -0.0132534 0)
(5.05924 -0.0139247 0)
(5.06398 -0.0146221 0)
(5.06894 -0.0153451 0)
(5.07416 -0.0160978 0)
(5.07962 -0.0168796 0)
(5.08535 -0.0176946 0)
(5.09135 -0.0185423 0)
(5.09764 -0.0194271 0)
(5.10423 -0.0203484 0)
(5.11114 -0.0213106 0)
(5.11836 -0.0223133 0)
(5.12593 -0.0233608 0)
(5.13385 -0.0244527 0)
(5.14214 -0.0255935 0)
(5.15082 -0.0267827 0)
(5.1599 -0.0280248 0)
(5.1694 -0.0293193 0)
(5.17934 -0.0306707 0)
(5.18973 -0.0320783 0)
(5.20061 -0.0335467 0)
(5.21198 -0.035075 0)
(5.22387 -0.0366676 0)
(5.23631 -0.0383235 0)
(5.2493 -0.0400468 0)
(5.26288 -0.0418362 0)
(5.27706 -0.0436955 0)
(5.29188 -0.0456229 0)
(5.30735 -0.0476218 0)
(5.3235 -0.0496894 0)
(5.34035 -0.0518287 0)
(5.35793 -0.054036 0)
(5.37626 -0.0563131 0)
(5.39536 -0.0586552 0)
(5.41525 -0.0610628 0)
(5.43597 -0.0635293 0)
(5.45752 -0.0660537 0)
(5.47993 -0.0686274 0)
(5.50321 -0.071247 0)
(5.52739 -0.0739018 0)
(5.55246 -0.0765858 0)
(5.57845 -0.0792853 0)
(5.60536 -0.0819917 0)
(5.63318 -0.0846881 0)
(5.66192 -0.087363 0)
(5.69156 -0.0899966 0)
(5.7221 -0.0925744 0)
(5.75351 -0.0950741 0)
(5.78576 -0.0974789 0)
(5.81882 -0.0997648 0)
(5.85265 -0.101914 0)
(5.88719 -0.103901 0)
(5.92239 -0.10571 0)
(5.95818 -0.107317 0)
(5.9945 -0.108706 0)
(6.03125 -0.109858 0)
(6.06837 -0.110762 0)
(6.10576 -0.111404 0)
(6.14333 -0.111777 0)
(6.18097 -0.111874 0)
(6.21861 -0.111696 0)
(6.25613 -0.111243 0)
(6.29345 -0.110522 0)
(6.33048 -0.109539 0)
(6.36712 -0.108309 0)
(6.40329 -0.106842 0)
(6.43891 -0.105157 0)
(6.47392 -0.10327 0)
(6.50824 -0.101202 0)
(6.54181 -0.0989701 0)
(6.57459 -0.0965976 0)
(6.60653 -0.0941028 0)
(6.6376 -0.0915082 0)
(6.66776 -0.0888314 0)
(6.69699 -0.0860939 0)
(6.72528 -0.0833119 0)
(6.75261 -0.0805051 0)
(6.77898 -0.0776872 0)
(6.8044 -0.074876 0)
(6.82886 -0.0720826 0)
(6.85238 -0.0693228 0)
(6.87498 -0.0666045 0)
(6.89666 -0.0639417 0)
(6.91746 -0.0613393 0)
(6.93739 -0.0588094 0)
(6.95648 -0.0563541 0)
(6.97476 -0.0539839 0)
(6.99225 -0.051698 0)
(7.009 -0.0495058 0)
(7.02502 -0.0474035 0)
(7.04036 -0.0454 0)
(7.05504 -0.0434886 0)
(7.06909 -0.041678 0)
(7.08256 -0.039959 0)
(7.09547 -0.0383405 0)
(7.10785 -0.036811 0)
(7.11973 -0.0353801 0)
(7.13115 -0.0340337 0)
(7.14212 -0.0327832 0)
(7.1527 -0.0316123 0)
(7.16289 -0.0305343 0)
(7.17274 -0.0295308 0)
(7.18226 -0.0286179 0)
(7.19148 -0.0277754 0)
(7.20043 -0.0270229 0)
(7.20914 -0.0263384 0)
(7.21762 -0.0257455 0)
(7.22591 -0.0252208 0)
(7.23402 -0.024792 0)
(7.24199 -0.0244345 0)
(7.24984 -0.0241799 0)
(7.25762 -0.024002 0)
(7.26533 -0.0239355 0)
(7.27302 -0.0239516 0)
(7.28071 -0.0240868 0)
(7.28845 -0.0243084 0)
(7.29627 -0.0246516 0)
(7.30421 -0.0250783 0)
(7.31229 -0.0256193 0)
(7.32057 -0.0262288 0)
(7.32906 -0.0269291 0)
(7.33779 -0.0276656 0)
(7.34679 -0.0284482 0)
(7.35605 -0.0292122 0)
(7.3656 -0.0299526 0)
(7.37539 -0.030596 0)
(7.38543 -0.0311211 0)
(7.39563 -0.0314491 0)
(7.40598 -0.031544 0)
(7.41632 -0.0313282 0)
(7.42662 -0.0307552 0)
(7.43667 -0.0297573 0)
(7.4464 -0.0282838 0)
(7.45556 -0.026287 0)
(7.46404 -0.0237184 0)
(7.47157 -0.0205592 0)
(7.478 -0.0167694 0)
(7.48305 -0.0123679 0)
(7.48658 -0.00732431 0)
(7.4883 -0.00168673 0)
(7.48807 0.00456494 0)
(7.48562 0.0113432 0)
(7.48083 0.0186594 0)
(7.47349 0.0263972 0)
(7.46349 0.0345637 0)
(7.45067 0.0430207 0)
(7.43496 0.0517754 0)
(7.41626 0.0606752 0)
(7.39453 0.0697305 0)
(7.36975 0.0787821 0)
(7.34191 0.0878456 0)
(7.31103 0.0967616 0)
(7.27717 0.105553 0)
(7.24039 0.114065 0)
(7.20077 0.122329 0)
(7.15845 0.130199 0)
(7.11352 0.137715 0)
(7.06615 0.144745 0)
(7.01648 0.151335 0)
(6.9647 0.157369 0)
(6.91095 0.162901 0)
(6.85547 0.16783 0)
(6.7984 0.172218 0)
(6.73999 0.175978 0)
(6.68039 0.17918 0)
(6.61984 0.18175 0)
(6.55853 0.183764 0)
(6.4966 0.185161 0)
(6.43441 0.186022 0)
(6.37166 0.186289 0)
(6.31012 0.186068 0)
(6.24476 0.185231 0)
(6.19467 0.184253 0)
(6.10067 0.181276 0)
(5.00002 -0.000365153 0)
(5.00016 -0.00110702 0)
(5.00047 -0.00184775 0)
(5.00093 -0.00258587 0)
(5.00154 -0.00332465 0)
(5.0023 -0.00406491 0)
(5.0032 -0.00480754 0)
(5.00425 -0.005553 0)
(5.00544 -0.00630235 0)
(5.00679 -0.0070562 0)
(5.00828 -0.00781585 0)
(5.00992 -0.0085821 0)
(5.01171 -0.0093565 0)
(5.01366 -0.0101401 0)
(5.01576 -0.0109346 0)
(5.01802 -0.0117412 0)
(5.02043 -0.012562 0)
(5.02301 -0.0133984 0)
(5.02575 -0.0142525 0)
(5.02866 -0.015126 0)
(5.03175 -0.0160213 0)
(5.03501 -0.0169402 0)
(5.03845 -0.0178854 0)
(5.04208 -0.0188588 0)
(5.04591 -0.0198633 0)
(5.04993 -0.020901 0)
(5.05416 -0.0219749 0)
(5.05861 -0.0230873 0)
(5.06327 -0.0242415 0)
(5.06817 -0.0254398 0)
(5.0733 -0.0266856 0)
(5.07868 -0.0279815 0)
(5.08433 -0.0293309 0)
(5.09024 -0.0307365 0)
(5.09643 -0.0322019 0)
(5.10292 -0.0337299 0)
(5.10972 -0.0353242 0)
(5.11683 -0.0369875 0)
(5.12428 -0.0387238 0)
(5.13208 -0.0405359 0)
(5.14024 -0.0424276 0)
(5.14878 -0.0444019 0)
(5.15773 -0.0464625 0)
(5.16708 -0.0486125 0)
(5.17688 -0.0508555 0)
(5.18712 -0.0531944 0)
(5.19784 -0.055633 0)
(5.20905 -0.0581737 0)
(5.22077 -0.0608202 0)
(5.23303 -0.0635747 0)
(5.24585 -0.0664405 0)
(5.25925 -0.0694193 0)
(5.27326 -0.0725137 0)
(5.28789 -0.075725 0)
(5.30318 -0.0790549 0)
(5.31914 -0.0825036 0)
(5.33581 -0.0860716 0)
(5.35321 -0.0897577 0)
(5.37136 -0.0935608 0)
(5.39029 -0.0974778 0)
(5.41002 -0.101505 0)
(5.43058 -0.105638 0)
(5.452 -0.109869 0)
(5.47428 -0.11419 0)
(5.49746 -0.11859 0)
(5.52156 -0.123057 0)
(5.54658 -0.127577 0)
(5.57254 -0.132132 0)
(5.59946 -0.136702 0)
(5.62733 -0.141264 0)
(5.65616 -0.145795 0)
(5.68594 -0.150264 0)
(5.71666 -0.154644 0)
(5.74831 -0.1589 0)
(5.78085 -0.162998 0)
(5.81426 -0.166902 0)
(5.84849 -0.170575 0)
(5.8835 -0.17398 0)
(5.91922 -0.177079 0)
(5.95558 -0.179838 0)
(5.99252 -0.182225 0)
(6.02994 -0.184208 0)
(6.06775 -0.185763 0)
(6.10586 -0.186869 0)
(6.14417 -0.187512 0)
(6.18257 -0.187681 0)
(6.22095 -0.187376 0)
(6.25921 -0.186599 0)
(6.29725 -0.185359 0)
(6.33497 -0.183673 0)
(6.37227 -0.18156 0)
(6.40905 -0.179045 0)
(6.44525 -0.176157 0)
(6.48077 -0.172928 0)
(6.51556 -0.169391 0)
(6.54954 -0.165581 0)
(6.58268 -0.161535 0)
(6.61492 -0.157288 0)
(6.64623 -0.152877 0)
(6.67659 -0.148334 0)
(6.70596 -0.143693 0)
(6.73434 -0.138986 0)
(6.76172 -0.134242 0)
(6.7881 -0.129487 0)
(6.81349 -0.124748 0)
(6.83788 -0.120045 0)
(6.8613 -0.115402 0)
(6.88377 -0.110834 0)
(6.9053 -0.10636 0)
(6.92592 -0.101993 0)
(6.94565 -0.0977464 0)
(6.96453 -0.0936291 0)
(6.98258 -0.089652 0)
(6.99984 -0.0858207 0)
(7.01633 -0.0821428 0)
(7.03211 -0.0786208 0)
(7.04718 -0.0752599 0)
(7.0616 -0.07206 0)
(7.0754 -0.0690241 0)
(7.08861 -0.0661497 0)
(7.10125 -0.0634385 0)
(7.11338 -0.0608856 0)
(7.12501 -0.0584918 0)
(7.13619 -0.0562505 0)
(7.14693 -0.0541619 0)
(7.15728 -0.0522185 0)
(7.16725 -0.0504207 0)
(7.17687 -0.0487603 0)
(7.18618 -0.0472389 0)
(7.19519 -0.0458483 0)
(7.20393 -0.0445922 0)
(7.21243 -0.0434635 0)
(7.22069 -0.0424684 0)
(7.22877 -0.0416022 0)
(7.23666 -0.0408739 0)
(7.24441 -0.0402818 0)
(7.25203 -0.0398373 0)
(7.25955 -0.0395418 0)
(7.267 -0.0394075 0)
(7.27443 -0.0394384 0)
(7.28185 -0.0396443 0)
(7.28932 -0.0400293 0)
(7.29686 -0.0405968 0)
(7.30454 -0.0413475 0)
(7.31238 -0.0422728 0)
(7.32044 -0.043365 0)
(7.32876 -0.044598 0)
(7.33737 -0.04595 0)
(7.34633 -0.0473725 0)
(7.35565 -0.0488248 0)
(7.36536 -0.0502333 0)
(7.37543 -0.0515357 0)
(7.3859 -0.0526346 0)
(7.39667 -0.0534474 0)
(7.40775 -0.0538596 0)
(7.41899 -0.0537747 0)
(7.43034 -0.0530737 0)
(7.44161 -0.0516584 0)
(7.45269 -0.0494213 0)
(7.46332 -0.0462773 0)
(7.47338 -0.0421467 0)
(7.48255 -0.0369719 0)
(7.49067 -0.0307159 0)
(7.49741 -0.023363 0)
(7.50261 -0.0149198 0)
(7.50595 -0.00539972 0)
(7.50724 0.00515033 0)
(7.50621 0.0166672 0)
(7.50269 0.0290632 0)
(7.49647 0.0422485 0)
(7.48741 0.0561101 0)
(7.47534 0.0705374 0)
(7.46019 0.0854039 0)
(7.44185 0.100587 0)
(7.42028 0.115957 0)
(7.39546 0.131389 0)
(7.36738 0.146758 0)
(7.33608 0.161941 0)
(7.30162 0.176826 0)
(7.26407 0.1913 0)
(7.22353 0.205266 0)
(7.18015 0.218623 0)
(7.13403 0.231296 0)
(7.08537 0.243199 0)
(7.03431 0.254278 0)
(6.98106 0.264465 0)
(6.92579 0.273729 0)
(6.86873 0.28202 0)
(6.81007 0.289328 0)
(6.75004 0.29562 0)
(6.68883 0.300907 0)
(6.62668 0.305171 0)
(6.56379 0.308442 0)
(6.50033 0.310713 0)
(6.43665 0.31203 0)
(6.37245 0.312393 0)
(6.30957 0.311883 0)
(6.24284 0.310382 0)
(6.19169 0.308609 0)
(6.09597 0.303522 0)
(5.00002 -0.000509854 0)
(5.00016 -0.00154516 0)
(5.00047 -0.00257869 0)
(5.00093 -0.00360865 0)
(5.00154 -0.00463937 0)
(5.00229 -0.00567212 0)
(5.00318 -0.0067078 0)
(5.00422 -0.00774729 0)
(5.00541 -0.00879168 0)
(5.00674 -0.00984212 0)
(5.00821 -0.0109 0)
(5.00984 -0.0119668 0)
(5.01161 -0.0130442 0)
(5.01353 -0.014134 0)
(5.0156 -0.0152383 0)
(5.01783 -0.0163591 0)
(5.02021 -0.0174988 0)
(5.02275 -0.0186599 0)
(5.02545 -0.019845 0)
(5.02831 -0.0210568 0)
(5.03134 -0.0222984 0)
(5.03455 -0.0235726 0)
(5.03793 -0.0248828 0)
(5.04149 -0.0262323 0)
(5.04524 -0.0276245 0)
(5.04918 -0.029063 0)
(5.05332 -0.0305516 0)
(5.05767 -0.0320939 0)
(5.06223 -0.0336939 0)
(5.06702 -0.0353557 0)
(5.07204 -0.0370834 0)
(5.0773 -0.038881 0)
(5.08281 -0.0407531 0)
(5.08859 -0.0427038 0)
(5.09464 -0.0447377 0)
(5.10097 -0.0468593 0)
(5.10761 -0.0490733 0)
(5.11456 -0.0513841 0)
(5.12183 -0.0537966 0)
(5.12944 -0.0563154 0)
(5.13741 -0.0589454 0)
(5.14576 -0.0616913 0)
(5.15449 -0.064558 0)
(5.16363 -0.0675501 0)
(5.1732 -0.0706727 0)
(5.18322 -0.0739302 0)
(5.19369 -0.0773275 0)
(5.20466 -0.0808689 0)
(5.21613 -0.0845591 0)
(5.22813 -0.088402 0)
(5.24068 -0.0924018 0)
(5.25381 -0.0965621 0)
(5.26754 -0.100886 0)
(5.2819 -0.105377 0)
(5.2969 -0.110036 0)
(5.31259 -0.114866 0)
(5.32897 -0.119867 0)
(5.34609 -0.125039 0)
(5.36397 -0.130381 0)
(5.38263 -0.135889 0)
(5.40211 -0.141559 0)
(5.42243 -0.147385 0)
(5.44362 -0.153358 0)
(5.46571 -0.159468 0)
(5.48871 -0.165701 0)
(5.51267 -0.172041 0)
(5.53758 -0.178467 0)
(5.56349 -0.184957 0)
(5.5904 -0.191482 0)
(5.61832 -0.198011 0)
(5.64726 -0.204508 0)
(5.67723 -0.210935 0)
(5.70821 -0.217246 0)
(5.74021 -0.223395 0)
(5.77318 -0.22933 0)
(5.80711 -0.234997 0)
(5.84196 -0.24034 0)
(5.87767 -0.245304 0)
(5.91419 -0.249832 0)
(5.95143 -0.25387 0)
(5.98932 -0.257367 0)
(6.02777 -0.260278 0)
(6.06666 -0.262563 0)
(6.1059 -0.26419 0)
(6.14536 -0.265137 0)
(6.18493 -0.26539 0)
(6.22448 -0.264945 0)
(6.26389 -0.263808 0)
(6.30305 -0.261994 0)
(6.34185 -0.259527 0)
(6.38016 -0.256438 0)
(6.4179 -0.252765 0)
(6.45497 -0.248552 0)
(6.49129 -0.243847 0)
(6.52679 -0.238701 0)
(6.5614 -0.233166 0)
(6.59506 -0.227297 0)
(6.62775 -0.221147 0)
(6.65942 -0.21477 0)
(6.69005 -0.208215 0)
(6.71962 -0.201533 0)
(6.74812 -0.194769 0)
(6.77556 -0.187966 0)
(6.80193 -0.181163 0)
(6.82724 -0.174397 0)
(6.85152 -0.1677 0)
(6.87477 -0.1611 0)
(6.89703 -0.154623 0)
(6.91832 -0.148291 0)
(6.93866 -0.142123 0)
(6.95809 -0.136135 0)
(6.97664 -0.13034 0)
(6.99435 -0.12475 0)
(7.01125 -0.119372 0)
(7.02737 -0.114214 0)
(7.04276 -0.10928 0)
(7.05745 -0.104575 0)
(7.07149 -0.100097 0)
(7.08489 -0.0958501 0)
(7.09771 -0.0918308 0)
(7.10997 -0.088039 0)
(7.12171 -0.0844697 0)
(7.13297 -0.0811213 0)
(7.14378 -0.0779869 0)
(7.15416 -0.075064 0)
(7.16416 -0.0723442 0)
(7.17378 -0.0698252 0)
(7.18308 -0.0674979 0)
(7.19206 -0.0653608 0)
(7.20076 -0.0634053 0)
(7.20919 -0.0616324 0)
(7.21737 -0.0600352 0)
(7.22533 -0.0586182 0)
(7.23309 -0.0573787 0)
(7.24066 -0.0563252 0)
(7.24808 -0.055461 0)
(7.25534 -0.0547985 0)
(7.2625 -0.0543475 0)
(7.26957 -0.0541225 0)
(7.27659 -0.0541395 0)
(7.28358 -0.0544104 0)
(7.29061 -0.0549544 0)
(7.29771 -0.0557745 0)
(7.30495 -0.0568877 0)
(7.31237 -0.0582795 0)
(7.32005 -0.0599569 0)
(7.32804 -0.0618783 0)
(7.33641 -0.0640308 0)
(7.34523 -0.0663376 0)
(7.35454 -0.0687561 0)
(7.36441 -0.0711689 0)
(7.37485 -0.0734965 0)
(7.38589 -0.0755825 0)
(7.39749 -0.0773098 0)
(7.40966 -0.078493 0)
(7.42225 -0.0789864 0)
(7.43523 -0.0785961 0)
(7.44838 -0.0771671 0)
(7.46159 -0.0745252 0)
(7.47456 -0.0705315 0)
(7.48712 -0.0650595 0)
(7.49891 -0.0580118 0)
(7.50972 -0.0493354 0)
(7.51917 -0.0389967 0)
(7.52703 -0.0270231 0)
(7.53294 -0.0134271 0)
(7.53665 0.00171838 0)
(7.53786 0.0183164 0)
(7.53637 0.0362131 0)
(7.5319 0.0552879 0)
(7.52432 0.0753473 0)
(7.51344 0.0962436 0)
(7.49915 0.117764 0)
(7.48136 0.139747 0)
(7.46003 0.161977 0)
(7.43512 0.184292 0)
(7.40665 0.206485 0)
(7.37466 0.2284 0)
(7.33922 0.249851 0)
(7.30045 0.270693 0)
(7.25842 0.290768 0)
(7.21334 0.309949 0)
(7.16531 0.328108 0)
(7.11457 0.345141 0)
(7.06126 0.360954 0)
(7.00566 0.375468 0)
(6.94792 0.388624 0)
(6.88833 0.400367 0)
(6.82708 0.410672 0)
(6.76443 0.419507 0)
(6.70061 0.426881 0)
(6.63585 0.432782 0)
(6.57039 0.437243 0)
(6.50441 0.440274 0)
(6.43828 0.44193 0)
(6.37171 0.442229 0)
(6.30658 0.441279 0)
(6.23758 0.438919 0)
(6.1847 0.436201 0)
(6.08607 0.428658 0)
(5.00002 -0.000653578 0)
(5.00016 -0.00198053 0)
(5.00047 -0.0033049 0)
(5.00092 -0.00462448 0)
(5.00152 -0.00594462 0)
(5.00227 -0.00726684 0)
(5.00316 -0.00859214 0)
(5.00419 -0.00992157 0)
(5.00536 -0.0112564 0)
(5.00668 -0.012598 0)
(5.00814 -0.0139482 0)
(5.00974 -0.0153088 0)
(5.01148 -0.0166819 0)
(5.01338 -0.0180698 0)
(5.01541 -0.0194752 0)
(5.0176 -0.0209007 0)
(5.01994 -0.0223495 0)
(5.02243 -0.0238246 0)
(5.02507 -0.0253295 0)
(5.02787 -0.0268679 0)
(5.03083 -0.0284434 0)
(5.03396 -0.0300601 0)
(5.03725 -0.0317221 0)
(5.04072 -0.0334337 0)
(5.04437 -0.0351995 0)
(5.0482 -0.037024 0)
(5.05223 -0.038912 0)
(5.05645 -0.0408684 0)
(5.06088 -0.0428984 0)
(5.06553 -0.0450071 0)
(5.07039 -0.0471998 0)
(5.07549 -0.049482 0)
(5.08083 -0.0518592 0)
(5.08643 -0.0543371 0)
(5.09228 -0.0569215 0)
(5.09842 -0.0596183 0)
(5.10484 -0.0624333 0)
(5.11156 -0.0653727 0)
(5.1186 -0.0684425 0)
(5.12597 -0.071649 0)
(5.13369 -0.0749983 0)
(5.14176 -0.0784968 0)
(5.15022 -0.0821508 0)
(5.15907 -0.0859664 0)
(5.16834 -0.0899502 0)
(5.17805 -0.0941083 0)
(5.18821 -0.098447 0)
(5.19884 -0.102972 0)
(5.20997 -0.10769 0)
(5.22162 -0.112607 0)
(5.23382 -0.117728 0)
(5.24658 -0.123057 0)
(5.25994 -0.128601 0)
(5.27391 -0.134364 0)
(5.28853 -0.140349 0)
(5.30383 -0.146559 0)
(5.31983 -0.152996 0)
(5.33656 -0.159662 0)
(5.35405 -0.166555 0)
(5.37234 -0.173674 0)
(5.39146 -0.181014 0)
(5.41143 -0.18857 0)
(5.43229 -0.196332 0)
(5.45408 -0.204288 0)
(5.47682 -0.212423 0)
(5.50055 -0.220717 0)
(5.52529 -0.229146 0)
(5.55108 -0.237682 0)
(5.57794 -0.246289 0)
(5.60589 -0.254928 0)
(5.63495 -0.263553 0)
(5.66513 -0.272112 0)
(5.69644 -0.280545 0)
(5.72886 -0.288789 0)
(5.7624 -0.296772 0)
(5.79702 -0.304421 0)
(5.83269 -0.311656 0)
(5.86936 -0.318398 0)
(5.90696 -0.324564 0)
(5.94542 -0.330076 0)
(5.98464 -0.33486 0)
(6.02452 -0.338848 0)
(6.06493 -0.341981 0)
(6.10575 -0.344214 0)
(6.14684 -0.345513 0)
(6.18805 -0.345858 0)
(6.22925 -0.345247 0)
(6.27028 -0.343688 0)
(6.31101 -0.341207 0)
(6.35131 -0.337839 0)
(6.39104 -0.333631 0)
(6.4301 -0.32864 0)
(6.46839 -0.322929 0)
(6.5058 -0.316565 0)
(6.54227 -0.309621 0)
(6.57772 -0.302168 0)
(6.6121 -0.294283 0)
(6.64538 -0.286036 0)
(6.67752 -0.277501 0)
(6.7085 -0.268745 0)
(6.7383 -0.259835 0)
(6.76694 -0.250832 0)
(6.79441 -0.241795 0)
(6.82073 -0.232775 0)
(6.84591 -0.223823 0)
(6.86999 -0.214979 0)
(6.89298 -0.206284 0)
(6.91492 -0.197771 0)
(6.93584 -0.189469 0)
(6.95578 -0.181402 0)
(6.97477 -0.173591 0)
(6.99286 -0.166052 0)
(7.01009 -0.158799 0)
(7.02649 -0.15184 0)
(7.04211 -0.145183 0)
(7.05698 -0.138832 0)
(7.07115 -0.13279 0)
(7.08466 -0.127055 0)
(7.09755 -0.121627 0)
(7.10985 -0.1165 0)
(7.12161 -0.111673 0)
(7.13285 -0.107136 0)
(7.14362 -0.102886 0)
(7.15396 -0.0989113 0)
(7.16388 -0.095207 0)
(7.17342 -0.0917607 0)
(7.18261 -0.0885669 0)
(7.19149 -0.0856122 0)
(7.20006 -0.0828923 0)
(7.20835 -0.0803939 0)
(7.21638 -0.078116 0)
(7.22418 -0.0760479 0)
(7.23174 -0.0741938 0)
(7.2391 -0.0725486 0)
(7.24626 -0.0711242 0)
(7.25324 -0.0699246 0)
(7.26004 -0.0689697 0)
(7.26671 -0.0682753 0)
(7.27325 -0.0678671 0)
(7.2797 -0.0677726 0)
(7.28609 -0.0680183 0)
(7.29248 -0.0686401 0)
(7.29891 -0.0696554 0)
(7.30547 -0.0711013 0)
(7.31221 -0.0729737 0)
(7.31924 -0.0752986 0)
(7.32664 -0.0780354 0)
(7.33452 -0.0811836 0)
(7.34299 -0.0846506 0)
(7.35213 -0.0883921 0)
(7.36206 -0.0922522 0)
(7.37283 -0.096128 0)
(7.38454 -0.0997982 0)
(7.39717 -0.103096 0)
(7.41076 -0.105748 0)
(7.42519 -0.107535 0)
(7.44044 -0.108162 0)
(7.45625 -0.107388 0)
(7.4725 -0.104941 0)
(7.48884 -0.100605 0)
(7.50503 -0.0941807 0)
(7.52064 -0.0855164 0)
(7.53537 -0.074528 0)
(7.54875 -0.0611665 0)
(7.56048 -0.0454824 0)
(7.5701 -0.0275048 0)
(7.57731 -0.00734155 0)
(7.58173 0.0148688 0)
(7.58311 0.0388885 0)
(7.58113 0.0645387 0)
(7.57562 0.091537 0)
(7.56637 0.119671 0)
(7.55327 0.148638 0)
(7.53621 0.178212 0)
(7.51515 0.208091 0)
(7.49008 0.238053 0)
(7.46101 0.267813 0)
(7.42802 0.297161 0)
(7.39118 0.32584 0)
(7.35063 0.353662 0)
(7.3065 0.380407 0)
(7.259 0.405912 0)
(7.20828 0.430003 0)
(7.15461 0.452545 0)
(7.09817 0.473414 0)
(7.03925 0.492507 0)
(6.97808 0.50975 0)
(6.91495 0.525074 0)
(6.85009 0.538451 0)
(6.78381 0.549847 0)
(6.71635 0.559274 0)
(6.64799 0.566729 0)
(6.57898 0.57226 0)
(6.50953 0.575886 0)
(6.44002 0.577689 0)
(6.37018 0.577697 0)
(6.30198 0.576062 0)
(6.22986 0.57257 0)
(6.17458 0.56866 0)
(6.07197 0.558205 0)
(5.00002 -0.000796367 0)
(5.00016 -0.00241292 0)
(5.00047 -0.00402608 0)
(5.00092 -0.00563283 0)
(5.00151 -0.00723945 0)
(5.00225 -0.00884761 0)
(5.00313 -0.0104583 0)
(5.00415 -0.0120727 0)
(5.00531 -0.0136922 0)
(5.00661 -0.0153185 0)
(5.00805 -0.0169535 0)
(5.00963 -0.0185994 0)
(5.01135 -0.020259 0)
(5.01321 -0.0219349 0)
(5.01521 -0.0236304 0)
(5.01735 -0.0253489 0)
(5.01963 -0.0270941 0)
(5.02206 -0.0288699 0)
(5.02463 -0.0306806 0)
(5.02736 -0.0325306 0)
(5.03023 -0.0344246 0)
(5.03327 -0.0363676 0)
(5.03646 -0.0383646 0)
(5.03982 -0.0404211 0)
(5.04334 -0.0425425 0)
(5.04704 -0.0447345 0)
(5.05092 -0.047003 0)
(5.05499 -0.0493541 0)
(5.05926 -0.0517941 0)
(5.06372 -0.0543291 0)
(5.0684 -0.0569659 0)
(5.0733 -0.0597111 0)
(5.07843 -0.0625715 0)
(5.08379 -0.065554 0)
(5.08941 -0.0686658 0)
(5.09529 -0.071914 0)
(5.10145 -0.075306 0)
(5.10789 -0.0788492 0)
(5.11464 -0.0825514 0)
(5.1217 -0.0864198 0)
(5.1291 -0.0904626 0)
(5.13684 -0.0946873 0)
(5.14495 -0.099102 0)
(5.15344 -0.103714 0)
(5.16234 -0.108533 0)
(5.17165 -0.113565 0)
(5.18141 -0.118818 0)
(5.19162 -0.124302 0)
(5.20232 -0.130023 0)
(5.21353 -0.135989 0)
(5.22527 -0.142207 0)
(5.23757 -0.148686 0)
(5.25045 -0.155431 0)
(5.26394 -0.16245 0)
(5.27806 -0.169747 0)
(5.29286 -0.177329 0)
(5.30835 -0.1852 0)
(5.32458 -0.193361 0)
(5.34157 -0.201816 0)
(5.35936 -0.210564 0)
(5.37798 -0.219602 0)
(5.39748 -0.228926 0)
(5.4179 -0.238528 0)
(5.43926 -0.248396 0)
(5.46162 -0.258514 0)
(5.485 -0.268863 0)
(5.50947 -0.279415 0)
(5.53504 -0.290138 0)
(5.56177 -0.300992 0)
(5.58969 -0.31193 0)
(5.61883 -0.322895 0)
(5.64921 -0.333823 0)
(5.68086 -0.344638 0)
(5.71379 -0.355257 0)
(5.74799 -0.365587 0)
(5.78346 -0.375529 0)
(5.82016 -0.384974 0)
(5.85805 -0.39381 0)
(5.89706 -0.401924 0)
(5.93711 -0.409203 0)
(5.97809 -0.415538 0)
(6.01987 -0.420832 0)
(6.06232 -0.424998 0)
(6.10527 -0.427966 0)
(6.14854 -0.429689 0)
(6.19197 -0.430138 0)
(6.23537 -0.42931 0)
(6.27857 -0.427222 0)
(6.32138 -0.423913 0)
(6.36366 -0.419438 0)
(6.40526 -0.41387 0)
(6.44604 -0.407291 0)
(6.4859 -0.399796 0)
(6.52472 -0.391481 0)
(6.56242 -0.382447 0)
(6.59895 -0.372794 0)
(6.63424 -0.362623 0)
(6.66826 -0.352029 0)
(6.70098 -0.341106 0)
(6.7324 -0.329938 0)
(6.7625 -0.318609 0)
(6.79129 -0.307194 0)
(6.8188 -0.295763 0)
(6.84504 -0.28438 0)
(6.87004 -0.273105 0)
(6.89384 -0.261988 0)
(6.91647 -0.251077 0)
(6.93797 -0.240412 0)
(6.9584 -0.230029 0)
(6.9778 -0.219957 0)
(6.9962 -0.210223 0)
(7.01367 -0.200844 0)
(7.03025 -0.191839 0)
(7.04598 -0.183217 0)
(7.06092 -0.174988 0)
(7.07511 -0.167155 0)
(7.08859 -0.159722 0)
(7.10141 -0.152685 0)
(7.11362 -0.146043 0)
(7.12525 -0.139789 0)
(7.13635 -0.133917 0)
(7.14696 -0.128417 0)
(7.15711 -0.12328 0)
(7.16684 -0.118491 0)
(7.17618 -0.114042 0)
(7.18517 -0.109915 0)
(7.19382 -0.106099 0)
(7.20218 -0.102575 0)
(7.21026 -0.0993338 0)
(7.21808 -0.0963538 0)
(7.22566 -0.0936296 0)
(7.23301 -0.0911425 0)
(7.24012 -0.088894 0)
(7.24703 -0.0868731 0)
(7.25372 -0.0850927 0)
(7.2602 -0.0835553 0)
(7.26647 -0.0822885 0)
(7.27254 -0.0813129 0)
(7.27841 -0.0806699 0)
(7.28414 -0.0804008 0)
(7.28971 -0.0805542 0)
(7.29522 -0.0811895 0)
(7.30068 -0.0823503 0)
(7.30622 -0.0841049 0)
(7.31189 -0.0864745 0)
(7.31785 -0.08952 0)
(7.32421 -0.093217 0)
(7.33114 -0.0975947 0)
(7.33879 -0.102558 0)
(7.34733 -0.108074 0)
(7.35695 -0.113952 0)
(7.36778 -0.12007 0)
(7.37999 -0.12613 0)
(7.39363 -0.131903 0)
(7.40882 -0.136998 0)
(7.42546 -0.141092 0)
(7.44355 -0.143746 0)
(7.46282 -0.144589 0)
(7.48312 -0.143206 0)
(7.50399 -0.139257 0)
(7.52515 -0.132438 0)
(7.546 -0.122515 0)
(7.56616 -0.109362 0)
(7.58497 -0.0929106 0)
(7.60204 -0.0732427 0)
(7.61676 -0.0504331 0)
(7.6288 -0.0246723 0)
(7.63759 0.00390676 0)
(7.64287 0.0349129 0)
(7.64425 0.0680895 0)
(7.64152 0.10304 0)
(7.63444 0.139466 0)
(7.62289 0.176953 0)
(7.60677 0.215195 0)
(7.58604 0.253789 0)
(7.56071 0.292441 0)
(7.53081 0.330775 0)
(7.49645 0.368519 0)
(7.45773 0.405337 0)
(7.41482 0.440985 0)
(7.36789 0.475181 0)
(7.31719 0.507713 0)
(7.26293 0.538359 0)
(7.2054 0.566948 0)
(7.14484 0.593325 0)
(7.0816 0.617362 0)
(7.01593 0.638969 0)
(6.9482 0.658067 0)
(6.87866 0.674627 0)
(6.80768 0.688614 0)
(6.73552 0.700056 0)
(6.66252 0.708956 0)
(6.58895 0.71539 0)
(6.51505 0.719392 0)
(6.44125 0.721076 0)
(6.36725 0.720489 0)
(6.29515 0.717837 0)
(6.21911 0.712845 0)
(6.16081 0.707407 0)
(6.05322 0.693442 0)
(5.00002 -0.000938515 0)
(5.00016 -0.00284308 0)
(5.00046 -0.00474337 0)
(5.00091 -0.00663518 0)
(5.00151 -0.00852555 0)
(5.00225 -0.0104161 0)
(5.00312 -0.0123078 0)
(5.00413 -0.0142018 0)
(5.00528 -0.0160995 0)
(5.00656 -0.0180027 0)
(5.00798 -0.0199138 0)
(5.00954 -0.0218353 0)
(5.01122 -0.0237703 0)
(5.01305 -0.025722 0)
(5.015 -0.0276944 0)
(5.01709 -0.0296914 0)
(5.01931 -0.0317175 0)
(5.02167 -0.0337773 0)
(5.02417 -0.0358761 0)
(5.0268 -0.0380191 0)
(5.02958 -0.040212 0)
(5.03251 -0.0424607 0)
(5.03558 -0.0447714 0)
(5.0388 -0.0471503 0)
(5.04218 -0.0496044 0)
(5.04573 -0.0521403 0)
(5.04944 -0.0547652 0)
(5.05333 -0.0574863 0)
(5.05739 -0.0603112 0)
(5.06165 -0.0632474 0)
(5.0661 -0.0663029 0)
(5.07076 -0.0694856 0)
(5.07563 -0.0728037 0)
(5.08073 -0.0762655 0)
(5.08606 -0.0798795 0)
(5.09165 -0.0836541 0)
(5.09749 -0.0875984 0)
(5.1036 -0.0917208 0)
(5.10999 -0.0960307 0)
(5.11669 -0.100537 0)
(5.12371 -0.105249 0)
(5.13105 -0.110176 0)
(5.13874 -0.115327 0)
(5.1468 -0.120712 0)
(5.15524 -0.126341 0)
(5.16409 -0.132223 0)
(5.17336 -0.138367 0)
(5.18307 -0.144785 0)
(5.19325 -0.151484 0)
(5.20392 -0.158476 0)
(5.21511 -0.16577 0)
(5.22684 -0.173375 0)
(5.23913 -0.1813 0)
(5.25202 -0.189555 0)
(5.26553 -0.198149 0)
(5.2797 -0.207089 0)
(5.29456 -0.216382 0)
(5.31015 -0.226036 0)
(5.32649 -0.236054 0)
(5.34364 -0.246441 0)
(5.36163 -0.257197 0)
(5.3805 -0.268321 0)
(5.4003 -0.279809 0)
(5.42109 -0.291653 0)
(5.4429 -0.303838 0)
(5.46579 -0.316346 0)
(5.48982 -0.329152 0)
(5.51504 -0.342222 0)
(5.5415 -0.355514 0)
(5.56926 -0.368974 0)
(5.59838 -0.382538 0)
(5.6289 -0.396129 0)
(5.66087 -0.409657 0)
(5.69431 -0.423015 0)
(5.72924 -0.436086 0)
(5.76568 -0.448737 0)
(5.80361 -0.460822 0)
(5.84298 -0.472189 0)
(5.88375 -0.482678 0)
(5.92581 -0.49213 0)
(5.96905 -0.500389 0)
(6.01332 -0.507314 0)
(6.05843 -0.51278 0)
(6.10419 -0.516686 0)
(6.15036 -0.518959 0)
(6.19673 -0.519559 0)
(6.24306 -0.518481 0)
(6.28911 -0.515748 0)
(6.33467 -0.511418 0)
(6.37955 -0.505573 0)
(6.42356 -0.498318 0)
(6.46655 -0.489774 0)
(6.50839 -0.480075 0)
(6.54897 -0.469362 0)
(6.5882 -0.457778 0)
(6.62602 -0.445464 0)
(6.66238 -0.432558 0)
(6.69725 -0.419189 0)
(6.73063 -0.405478 0)
(6.7625 -0.391537 0)
(6.79288 -0.377469 0)
(6.82178 -0.363365 0)
(6.84925 -0.349307 0)
(6.87531 -0.335369 0)
(6.89999 -0.321617 0)
(6.92337 -0.308107 0)
(6.94547 -0.29489 0)
(6.96636 -0.282008 0)
(6.98608 -0.2695 0)
(7.00471 -0.257395 0)
(7.02229 -0.245721 0)