/*--------------------------------*- C++ -*----------------------------------*\
  =========                 |
  \\      /  F ield         | OpenFOAM: The Open Source CFD Toolbox
   \\    /   O peration     | Website:  https://openfoam.org
    \\  /    A nd           | Version:  10
     \\/     M anipulation  |
\*---------------------------------------------------------------------------*/
FoamFile
{
    format      ascii;
    class       volScalarField;
    location    "2";
    object      Sb;
}
// * * * * * * * * * * * * * * * * * * * * * * * * * * * * * * * * * * * * * //

dimensions      [0 0 0 0 0 0 0];

internalField   nonuniform List<scalar> 
12225
(
0.527084
0.524997
0.52244
0.519686
0.516919
0.514258
0.51178
0.509531
0.507544
0.505845
0.504464
0.503442
0.502842
0.502774
0.503453
0.505346
0.509704
0.520267
0.560981
0.558471
0.555457
0.55226
0.549093
0.546085
0.543313
0.54082
0.538632
0.53677
0.535257
0.534129
0.533443
0.533301
0.533897
0.535617
0.53927
0.546242
0.581658
0.578662
0.575121
0.571411
0.567772
0.564344
0.561205
0.558396
0.555938
0.553849
0.552147
0.550861
0.550044
0.549786
0.550249
0.551717
0.554645
0.559477
0.598268
0.594744
0.590642
0.586394
0.582264
0.578403
0.574886
0.571751
0.569015
0.566685
0.564776
0.56331
0.562327
0.561901
0.562151
0.563255
0.565423
0.568709
0.613014
0.608897
0.604179
0.59935
0.594699
0.59038
0.586468
0.582991
0.579959
0.577374
0.575238
0.573565
0.572382
0.571739
0.571709
0.572382
0.573817
0.575918
0.626847
0.622051
0.616642
0.611172
0.605953
0.601142
0.596805
0.592963
0.589615
0.586751
0.584364
0.582457
0.581038
0.580133
0.579773
0.579983
0.580736
0.581892
0.640304
0.634717
0.628518
0.62233
0.616483
0.611133
0.606336
0.602099
0.598406
0.595238
0.592574
0.590401
0.588712
0.587507
0.586782
0.586518
0.586646
0.587028
0.653751
0.647226
0.640115
0.633112
0.626564
0.620618
0.615316
0.610647
0.60658
0.603077
0.600106
0.597637
0.595645
0.594108
0.592996
0.592261
0.591821
0.59155
0.667481
0.659831
0.651651
0.643713
0.636375
0.629767
0.623908
0.618765
0.614286
0.610417
0.607107
0.604311
0.601987
0.600093
0.598581
0.597388
0.59643
0.595601
0.681765
0.672742
0.663297
0.654278
0.646042
0.638693
0.632217
0.626552
0.621623
0.617353
0.613673
0.61052
0.607838
0.605569
0.603652
0.602018
0.600587
0.59927
0.696886
0.68616
0.675198
0.664918
0.655656
0.647474
0.640314
0.634075
0.628652
0.623945
0.619863
0.616327
0.613265
0.610608
0.608288
0.606232
0.604366
0.602617
0.713172
0.700289
0.687485
0.67572
0.665281
0.656161
0.64824
0.641371
0.635409
0.630226
0.625712
0.621768
0.61831
0.615259
0.61254
0.610083
0.607816
0.605679
0.728393
0.713101
0.698334
0.685048
0.673439
0.663409
0.654765
0.647306
0.640847
0.635231
0.630326
0.62602
0.622216
0.618828
0.615779
0.612996
0.610413
0.607973
0.74744
0.728646
0.711173
0.695869
0.682754
0.671582
0.662047
0.653871
0.646817
0.640689
0.63533
0.63061
0.626416
0.622655
0.619243
0.616106
0.613179
0.610408
0.771924
0.747783
0.726455
0.708418
0.693347
0.680738
0.670114
0.661081
0.653328
0.646611
0.640736
0.635546
0.630912
0.626725
0.622894
0.619341
0.616005
0.612836
0.80497
0.772079
0.744974
0.723118
0.705471
0.691061
0.679126
0.669098
0.660549
0.653153
0.646662
0.640882
0.635664
0.630888
0.626464
0.622321
0.618409
0.614689
0.856512
0.807914
0.771343
0.743717
0.722355
0.70535
0.69145
0.679833
0.669821
0.660981
0.653089
0.645974
0.639502
0.63357
0.628099
0.623024
0.618298
0.61388
0.792051
0.762514
0.737941
0.717667
0.700845
0.686722
0.674691
0.664291
0.655271
0.647414
0.640423
0.634034
0.628167
0.622752
0.617737
0.613074
0.608727
0.604665
0.738406
0.720201
0.703493
0.688738
0.675845
0.66457
0.654658
0.645877
0.638037
0.630981
0.62463
0.618958
0.613813
0.609072
0.604684
0.600607
0.596808
0.593257
0.703034
0.690614
0.67837
0.666977
0.656617
0.647275
0.638862
0.631267
0.624385
0.618118
0.612385
0.607117
0.6023
0.59792
0.593849
0.590054
0.586508
0.583188
0.674406
0.665463
0.656175
0.647173
0.638721
0.630905
0.623721
0.61713
0.611078
0.605508
0.600369
0.595613
0.591199
0.587102
0.58336
0.579864
0.576591
0.573523
0.650173
0.643465
0.636219
0.628966
0.621975
0.615373
0.609199
0.603456
0.598122
0.593167
0.588559
0.584269
0.580266
0.576525
0.573025
0.569805
0.566787
0.563953
0.628894
0.623706
0.617925
0.611983
0.606131
0.600504
0.595166
0.590139
0.585423
0.581006
0.576871
0.572997
0.569366
0.565959
0.562758
0.559753
0.556967
0.554346
0.60958
0.605477
0.600781
0.595847
0.590897
0.586065
0.581422
0.577003
0.572821
0.568875
0.565157
0.561657
0.55836
0.555254
0.552327
0.549567
0.546976
0.544551
0.591468
0.588168
0.584301
0.580158
0.575936
0.571759
0.567701
0.563803
0.560084
0.556552
0.553204
0.550035
0.547039
0.544206
0.541526
0.538992
0.536595
0.534349
0.573855
0.571168
0.567951
0.564444
0.56082
0.557191
0.553631
0.550181
0.546867
0.543698
0.540679
0.537808
0.535081
0.532493
0.530038
0.527709
0.5255
0.523406
0.555928
0.553724
0.551028
0.548042
0.544916
0.541752
0.538619
0.535559
0.532599
0.529751
0.527024
0.524418
0.521932
0.519563
0.517309
0.515163
0.513121
0.511179
0.536417
0.534601
0.53233
0.529775
0.527068
0.524299
0.521532
0.518808
0.516154
0.513584
0.511109
0.508731
0.506452
0.50427
0.502185
0.500192
0.49829
0.496473
0.512333
0.510821
0.508885
0.506672
0.504294
0.501833
0.499349
0.496879
0.494451
0.492081
0.489779
0.487551
0.4854
0.483328
0.481334
0.479417
0.477573
0.475761
0.468807
0.467392
0.465528
0.463349
0.460961
0.458442
0.455851
0.45323
0.450607
0.448002
0.445429
0.442898
0.440415
0.437985
0.435609
0.43329
0.431031
0.42888
0.00343387
0.013154
0.0226577
0.0291551
0.033734
0.037067
0.0395501
0.0414194
0.0428201
0.0438453
0.0445572
0.0449991
0.0452025
0.0451913
0.0449841
0.0445963
0.0440409
0.0433293
0.0424718
0.0414781
0.0403576
0.0391196
0.0377734
0.0363285
0.0347948
0.0331829
0.0315035
0.0297683
0.0279896
0.0261804
0.0243542
0.0225251
0.0207078
0.0189172
0.0171679
0.0154745
0.0138509
0.0123097
0.0108621
0.0095174
0.00828272
0.00716258
0.0061589
0.005271
0.00449573
0.00382778
0.00326011
0.0027844
0.00239152
0.00207202
0.00181645
0.00161569
0.0014612
0.00134509
0.0012602
0.00120018
0.00115941
0.00113305
0.00111701
0.00110797
0.00110332
0.0011012
0.00110036
0.00110009
0.00110002
0.0011
0.0011
0.0011
0.0011
0.0011
0.0011
0.0011
0.0011
0.0011
0.0011
0.0011
0.0011
0.0011
0.0011
0.0011
0.0011
0.0011
0.0011
0.0011
0.0011
0.0011
0.0011
0.0011
0.0011
0.0011
0.0011
0.0011
0.0011
0.0011
0.0011
0.0011
0.0011
0.0011
0.0011
0.0011
0.0011
0.0011
0.0011
0.0011
0.0011
0.0011
0.0011
0.0011
0.0011
0.0011
0.0011
0.0011
0.0011
0.0011
0.0011
0.0011
0.0011
0.0011
0.0011
0.0011
0.0011
0.0011
0.0011
0.0011
0.0011
0.0011
0.0011
0.0011
0.0011
0.0011
0.0011
0.0011
0.0011
0.0011
0.0011
0.0011
0.0011
0.0011
0.0011
0.0011
0.0011
0.0011
0.0011
0.0011
0.0011
0.0011
0.0011
0.0011
0.0011
0.0011
0.0011
0.0011
0.0011
0.0011
0.0011
0.0011
0.0011
0.0011
0.0011
0.0011
0.0011
0.0011
0.0011
0.0011
0.0011
0.0011
0.0011
0.0011
0.0011
0.0011
0.0011
0.0011
0.0011
0.0011
0.0011
0.0011
0.0011
0.0011
0.0011
0.0011
0.19438
0.26145
0.285278
0.296743
0.303567
0.308116
0.311356
0.313757
0.315573
0.316955
0.317997
0.318761
0.319288
0.319607
0.319741
0.319702
0.319501
0.319144
0.318636
0.317979
0.317171
0.316211
0.315096
0.313821
0.31238
0.310767
0.308972
0.306988
0.304803
0.302408
0.299789
0.296935
0.293833
0.290471
0.286835
0.282914
0.278697
0.274174
0.269336
0.264179
0.258698
0.252893
0.246763
0.240312
0.233544
0.226462
0.219069
0.211366
0.20335
0.195014
0.186346
0.177329
0.16794
0.15815
0.147929
0.137242
0.126059
0.114356
0.10213
0.0894078
0.0762711
0.0628866
0.0495441
0.0366984
0.0249927
0.0152118
0.00807564
0.00382771
0.00190554
0.00127163
0.00112359
0.00110164
0.00110005
0.0011
0.0011
0.0011
0.0011
0.0011
0.0011
0.0011
0.0011
0.0011
0.0011
0.0011
0.0011
0.0011
0.0011
0.0011
0.0011
0.0011
0.0011
0.0011
0.0011
0.0011
0.0011
0.0011
0.0011
0.0011
0.0011
0.0011
0.0011
0.0011
0.0011
0.0011
0.0011
0.0011
0.0011
0.0011
0.0011
0.0011
0.0011
0.0011
0.0011
0.0011
0.0011
0.0011
0.0011
0.0011
0.0011
0.0011
0.0011
0.0011
0.0011
0.0011
0.0011
0.0011
0.0011
0.0011
0.0011
0.0011
0.0011
0.0011
0.0011
0.0011
0.0011
0.0011
0.0011
0.0011
0.0011
0.0011
0.0011
0.0011
0.0011
0.0011
0.0011
0.0011
0.0011
0.0011
0.0011
0.0011
0.0011
0.0011
0.0011
0.0011
0.0011
0.0011
0.0011
0.0011
0.0011
0.0011
0.0011
0.0011
0.0011
0.0011
0.0011
0.0011
0.0011
0.0011
0.0011
0.0011
0.0011
0.0011
0.0011
0.0011
0.0011
0.0011
0.0011
0.0011
0.0011
0.0011
0.383323
0.390723
0.395665
0.398973
0.401249
0.402872
0.404072
0.404986
0.405698
0.406261
0.406709
0.407066
0.407346
0.407563
0.407722
0.407831
0.407893
0.407914
0.407895
0.407838
0.407747
0.407623
0.407467
0.40728
0.407065
0.406822
0.406552
0.406256
0.405935
0.40559
0.405222
0.404831
0.404418
0.403983
0.403527
0.403049
0.402549
0.402027
0.401481
0.400909
0.40031
0.39968
0.399016
0.398312
0.397562
0.39676
0.395896
0.39496
0.39394
0.392819
0.391578
0.390195
0.38864
0.386877
0.384861
0.382534
0.379819
0.376618
0.3728
0.368191
0.36255
0.35555
0.346733
0.335453
0.320802
0.301553
0.276308
0.244302
0.20681
0.166745
0.126123
0.0859652
0.0484692
0.0187816
0.00374298
0.00116372
0.0011
0.0011
0.0011
0.0011
0.0011
0.0011
0.0011
0.0011
0.0011
0.0011
0.0011
0.0011
0.0011
0.0011
0.0011
0.0011
0.0011
0.0011
0.0011
0.0011
0.0011
0.0011
0.0011
0.0011
0.0011
0.0011
0.0011
0.0011
0.0011
0.0011
0.0011
0.0011
0.0011
0.0011
0.0011
0.0011
0.0011
0.0011
0.0011
0.0011
0.0011
0.0011
0.0011
0.0011
0.0011
0.0011
0.0011
0.0011
0.0011
0.0011
0.0011
0.0011
0.0011
0.0011
0.0011
0.0011
0.0011
0.0011
0.0011
0.0011
0.0011
0.0011
0.0011
0.0011
0.0011
0.0011
0.0011
0.0011
0.0011
0.0011
0.0011
0.0011
0.0011
0.0011
0.0011
0.0011
0.0011
0.0011
0.0011
0.0011
0.0011
0.0011
0.0011
0.0011
0.0011
0.0011
0.0011
0.0011
0.0011
0.0011
0.0011
0.0011
0.0011
0.0011
0.0011
0.0011
0.0011
0.0011
0.0011
0.0011
0.0011
0.0011
0.0011
0.0011
0.424417
0.426034
0.42745
0.428664
0.429694
0.430567
0.431308
0.431941
0.432483
0.432948
0.433348
0.433691
0.433982
0.434227
0.434429
0.434591
0.434716
0.434806
0.434863
0.434888
0.434882
0.434848
0.434786
0.434697
0.434583
0.434444
0.434282
0.434098
0.433892
0.433666
0.433421
0.433157
0.432875
0.432577
0.432262
0.431932
0.431587
0.431228
0.430855
0.430468
0.430067
0.429653
0.429224
0.428781
0.428323
0.427848
0.427356
0.426845
0.426313
0.425759
0.425179
0.424572
0.423933
0.423259
0.422545
0.421787
0.420977
0.420109
0.419176
0.418168
0.417075
0.415884
0.414577
0.41313
0.411501
0.409618
0.407354
0.404482
0.400634
0.395228
0.387336
0.375329
0.355955
0.321664
0.255391
0.157312
0.0772418
0.023795
0.00230654
0.0011
0.0011
0.0011
0.0011
0.0011
0.0011
0.0011
0.0011
0.0011
0.0011
0.0011
0.0011
0.0011
0.0011
0.0011
0.0011
0.0011
0.0011
0.0011
0.0011
0.0011
0.0011
0.0011
0.0011
0.0011
0.0011
0.0011
0.0011
0.0011
0.0011
0.0011
0.0011
0.0011
0.0011
0.0011
0.0011
0.0011
0.0011
0.0011
0.0011
0.0011
0.0011
0.0011
0.0011
0.0011
0.0011
0.0011
0.0011
0.0011
0.0011
0.0011
0.0011
0.0011
0.0011
0.0011
0.0011
0.0011
0.0011
0.0011
0.0011
0.0011
0.0011
0.0011
0.0011
0.0011
0.0011
0.0011
0.0011
0.0011
0.0011
0.0011
0.0011
0.0011
0.0011
0.0011
0.0011
0.0011
0.0011
0.0011
0.0011
0.0011
0.0011
0.0011
0.0011
0.0011
0.0011
0.0011
0.0011
0.0011
0.0011
0.0011
0.0011
0.0011
0.0011
0.0011
0.0011
0.0011
0.0011
0.0011
0.0011
0.0011
0.441462
0.442305
0.443106
0.443859
0.444562
0.445213
0.445813
0.446363
0.446864
0.447319
0.44773
0.448097
0.448422
0.448708
0.448954
0.449163
0.449335
0.449472
0.449575
0.449644
0.449681
0.449687
0.449663
0.449609
0.449527
0.449417
0.449282
0.449121
0.448936
0.448727
0.448496
0.448243
0.447969
0.447676
0.447363
0.447032
0.446684
0.446318
0.445936
0.445538
0.445124
0.444695
0.444251
0.443792
0.443319
0.44283
0.442327
0.441808
0.441274
0.440724
0.440157
0.439572
0.438969
0.438346
0.437702
0.437035
0.436344
0.435627
0.434882
0.434105
0.433294
0.432444
0.431549
0.430601
0.429587
0.428485
0.427265
0.425883
0.424281
0.42239
0.420127
0.417388
0.414009
0.409662
0.403531
0.39349
0.374683
0.334727
0.232756
0.0869587
0.0154469
0.00115996
0.0011
0.0011
0.0011
0.0011
0.0011
0.0011
0.0011
0.0011
0.0011
0.0011
0.0011
0.0011
0.0011
0.0011
0.0011
0.0011
0.0011
0.0011
0.0011
0.0011
0.0011
0.0011
0.0011
0.0011
0.0011
0.0011
0.0011
0.0011
0.0011
0.0011
0.0011
0.0011
0.0011
0.0011
0.0011
0.0011
0.0011
0.0011
0.0011
0.0011
0.0011
0.0011
0.0011
0.0011
0.0011
0.0011
0.0011
0.0011
0.0011
0.0011
0.0011
0.0011
0.0011
0.0011
0.0011
0.0011
0.0011
0.0011
0.0011
0.0011
0.0011
0.0011
0.0011
0.0011
0.0011
0.0011
0.0011
0.0011
0.0011
0.0011
0.0011
0.0011
0.0011
0.0011
0.0011
0.0011
0.0011
0.0011
0.0011
0.0011
0.0011
0.0011
0.0011
0.0011
0.0011
0.0011
0.0011
0.0011
0.0011
0.0011
0.0011
0.0011
0.0011
0.0011
0.0011
0.0011
0.0011
0.0011
0.45224
0.453012
0.453755
0.454464
0.455139
0.455776
0.456374
0.456931
0.457448
0.457923
0.458357
0.458748
0.459099
0.459408
0.459677
0.459907
0.460097
0.460248
0.460362
0.46044
0.460482
0.460489
0.460463
0.460404
0.460314
0.460193
0.460043
0.459864
0.459658
0.459425
0.459168
0.458885
0.458579
0.458251
0.457901
0.45753
0.457138
0.456728
0.456298
0.455851
0.455385
0.454903
0.454404
0.453889
0.453357
0.45281
0.452248
0.451669
0.451076
0.450467
0.449842
0.449201
0.448544
0.44787
0.447179
0.44647
0.445743
0.444996
0.444228
0.443437
0.442623
0.441781
0.44091
0.440004
0.439055
0.438056
0.436992
0.435847
0.434603
0.433236
0.431722
0.430027
0.428101
0.425857
0.42313
0.419638
0.414952
0.408338
0.397806
0.376377
0.31918
0.155361
0.0221165
0.0011533
0.0011
0.0011
0.0011
0.0011
0.0011
0.0011
0.0011
0.0011
0.0011
0.0011
0.0011
0.0011
0.0011
0.0011
0.0011
0.0011
0.0011
0.0011
0.0011
0.0011
0.0011
0.0011
0.0011
0.0011
0.0011
0.0011
0.0011
0.0011
0.0011
0.0011
0.0011
0.0011
0.0011
0.0011
0.0011
0.0011
0.0011
0.0011
0.0011
0.0011
0.0011
0.0011
0.0011
0.0011
0.0011
0.0011
0.0011
0.0011
0.0011
0.0011
0.0011
0.0011
0.0011
0.0011
0.0011
0.0011
0.0011
0.0011
0.0011
0.0011
0.0011
0.0011
0.0011
0.0011
0.0011
0.0011
0.0011
0.0011
0.0011
0.0011
0.0011
0.0011
0.0011
0.0011
0.0011
0.0011
0.0011
0.0011
0.0011
0.0011
0.0011
0.0011
0.0011
0.0011
0.0011
0.0011
0.0011
0.0011
0.0011
0.0011
0.0011
0.0011
0.0011
0.0011
0.0011
0.0011
0.460848
0.461694
0.462504
0.463276
0.464009
0.464699
0.465346
0.465949
0.466505
0.467016
0.467479
0.467896
0.468266
0.46859
0.468868
0.4691
0.469289
0.469433
0.469536
0.469597
0.469618
0.469599
0.469544
0.469451
0.469324
0.469162
0.468968
0.468742
0.468486
0.468202
0.467889
0.46755
0.467185
0.466795
0.466382
0.465946
0.465488
0.46501
0.464511
0.463993
0.463457
0.462902
0.46233
0.461741
0.461135
0.460513
0.459875
0.459221
0.458553
0.457868
0.457169
0.456454
0.455724
0.454979
0.454218
0.45344
0.452646
0.451835
0.451006
0.450158
0.44929
0.4484
0.447485
0.446543
0.445569
0.444558
0.443503
0.442396
0.441228
0.439987
0.438661
0.437232
0.435675
0.433952
0.432004
0.429744
0.427046
0.423715
0.41936
0.413161
0.403403
0.384724
0.331155
0.150095
0.0098809
0.0011
0.0011
0.0011
0.0011
0.0011
0.0011
0.0011
0.0011
0.0011
0.0011
0.0011
0.0011
0.0011
0.0011
0.0011
0.0011
0.0011
0.0011
0.0011
0.0011
0.0011
0.0011
0.0011
0.0011
0.0011
0.0011
0.0011
0.0011
0.0011
0.0011
0.0011
0.0011
0.0011
0.0011
0.0011
0.0011
0.0011
0.0011
0.0011
0.0011
0.0011
0.0011
0.0011
0.0011
0.0011
0.0011
0.0011
0.0011
0.0011
0.0011
0.0011
0.0011
0.0011
0.0011
0.0011
0.0011
0.0011
0.0011
0.0011
0.0011
0.0011
0.0011
0.0011
0.0011
0.0011
0.0011
0.0011
0.0011
0.0011
0.0011
0.0011
0.0011
0.0011
0.0011
0.0011
0.0011
0.0011
0.0011
0.0011
0.0011
0.0011
0.0011
0.0011
0.0011
0.0011
0.0011
0.0011
0.0011
0.0011
0.0011
0.0011
0.0011
0.0011
0.0011
0.0011
0.468452
0.469408
0.470321
0.471187
0.472005
0.472772
0.473486
0.474148
0.474755
0.475307
0.475804
0.476246
0.476633
0.476966
0.477245
0.477472
0.477647
0.477773
0.477849
0.477879
0.477863
0.477802
0.477699
0.477555
0.477372
0.477152
0.476895
0.476603
0.476279
0.475923
0.475537
0.475122
0.47468
0.474212
0.473719
0.473202
0.472662
0.472101
0.471519
0.470917
0.470296
0.469656
0.468999
0.468325
0.467635
0.466929
0.466207
0.46547
0.464718
0.463952
0.463171
0.462376
0.461567
0.460743
0.459905
0.459053
0.458185
0.457302
0.456403
0.455487
0.454553
0.453601
0.452627
0.451631
0.450609
0.449557
0.448472
0.447349
0.446182
0.444964
0.443687
0.442339
0.440907
0.439369
0.437696
0.435847
0.433767
0.431369
0.428512
0.424952
0.420254
0.413481
0.402264
0.378857
0.29594
0.0670449
0.00123329
0.0011
0.0011
0.0011
0.0011
0.0011
0.0011
0.0011
0.0011
0.0011
0.0011
0.0011
0.0011
0.0011
0.0011
0.0011
0.0011
0.0011
0.0011
0.0011
0.0011
0.0011
0.0011
0.0011
0.0011
0.0011
0.0011
0.0011
0.0011
0.0011
0.0011
0.0011
0.0011
0.0011
0.0011
0.0011
0.0011
0.0011
0.0011
0.0011
0.0011
0.0011
0.0011
0.0011
0.0011
0.0011
0.0011
0.0011
0.0011
0.0011
0.0011
0.0011
0.0011
0.0011
0.0011
0.0011
0.0011
0.0011
0.0011
0.0011
0.0011
0.0011
0.0011
0.0011
0.0011
0.0011
0.0011
0.0011
0.0011
0.0011
0.0011
0.0011
0.0011
0.0011
0.0011
0.0011
0.0011
0.0011
0.0011
0.0011
0.0011
0.0011
0.0011
0.0011
0.0011
0.0011
0.0011
0.0011
0.0011
0.0011
0.0011
0.0011
0.0011
0.0011
0.475422
0.476507
0.477538
0.478513
0.47943
0.480285
0.481077
0.481804
0.482467
0.483064
0.483595
0.484062
0.484463
0.484801
0.485077
0.485292
0.485447
0.485544
0.485586
0.485574
0.48551
0.485396
0.485235
0.485028
0.484778
0.484486
0.484154
0.483785
0.48338
0.482941
0.48247
0.481968
0.481438
0.48088
0.480296
0.479688
0.479057
0.478403
0.477728
0.477034
0.476321
0.475589
0.474841
0.474076
0.473295
0.472499
0.471689
0.470864
0.470026
0.469174
0.468309
0.467431
0.46654
0.465636
0.46472
0.46379
0.462847
0.461891
0.46092
0.459935
0.458934
0.457916
0.456881
0.455827
0.45475
0.45365
0.452524
0.451367
0.450175
0.448945
0.44767
0.446342
0.444952
0.443487
0.441929
0.440255
0.438432
0.436414
0.434132
0.431476
0.428267
0.424184
0.418586
0.410019
0.394167
0.351451
0.163088
0.00340654
0.0011
0.0011
0.0011
0.0011
0.0011
0.0011
0.0011
0.0011
0.0011
0.0011
0.0011
0.0011
0.0011
0.0011
0.0011
0.0011
0.0011
0.0011
0.0011
0.0011
0.0011
0.0011
0.0011
0.0011
0.0011
0.0011
0.0011
0.0011
0.0011
0.0011
0.0011
0.0011
0.0011
0.0011
0.0011
0.0011
0.0011
0.0011
0.0011
0.0011
0.0011
0.0011
0.0011
0.0011
0.0011
0.0011
0.0011
0.0011
0.0011
0.0011
0.0011
0.0011
0.0011
0.0011
0.0011
0.0011
0.0011
0.0011
0.0011
0.0011
0.0011
0.0011
0.0011
0.0011
0.0011
0.0011
0.0011
0.0011
0.0011
0.0011
0.0011
0.0011
0.0011
0.0011
0.0011
0.0011
0.0011
0.0011
0.0011
0.0011
0.0011
0.0011
0.0011
0.0011
0.0011
0.0011
0.0011
0.0011
0.0011
0.0011
0.0011
0.0011
0.481907
0.483134
0.484299
0.485396
0.486421
0.487374
0.48825
0.48905
0.489771
0.490415
0.490982
0.491471
0.491884
0.492224
0.49249
0.492687
0.492815
0.492877
0.492876
0.492814
0.492694
0.492518
0.492289
0.49201
0.491683
0.491311
0.490896
0.490441
0.489947
0.489417
0.488854
0.488258
0.487632
0.486978
0.486298
0.485592
0.484863
0.484112
0.48334
0.482549
0.48174
0.480913
0.480069
0.47921
0.478337
0.477449
0.476548
0.475635
0.474708
0.47377
0.47282
0.471859
0.470887
0.469903
0.468908
0.467902
0.466885
0.465856
0.464815
0.463761
0.462694
0.461614
0.460518
0.459405
0.458275
0.457125
0.455952
0.454756
0.453531
0.452276
0.450984
0.449652
0.448271
0.446832
0.445325
0.443732
0.442034
0.440201
0.438192
0.435947
0.43337
0.43031
0.426498
0.421421
0.413944
0.400997
0.370419
0.230138
0.0101772
0.0011
0.0011
0.0011
0.0011
0.0011
0.0011
0.0011
0.0011
0.0011
0.0011
0.0011
0.0011
0.0011
0.0011
0.0011
0.0011
0.0011
0.0011
0.0011
0.0011
0.0011
0.0011
0.0011
0.0011
0.0011
0.0011
0.0011
0.0011
0.0011
0.0011
0.0011
0.0011
0.0011
0.0011
0.0011
0.0011
0.0011
0.0011
0.0011
0.0011
0.0011
0.0011
0.0011
0.0011
0.0011
0.0011
0.0011
0.0011
0.0011
0.0011
0.0011
0.0011
0.0011
0.0011
0.0011
0.0011
0.0011
0.0011
0.0011
0.0011
0.0011
0.0011
0.0011
0.0011
0.0011
0.0011
0.0011
0.0011
0.0011
0.0011
0.0011
0.0011
0.0011
0.0011
0.0011
0.0011
0.0011
0.0011
0.0011
0.0011
0.0011
0.0011
0.0011
0.0011
0.0011
0.0011
0.0011
0.0011
0.0011
0.0011
0.0011
0.487981
0.48937
0.490682
0.491914
0.493061
0.49412
0.495088
0.495965
0.496749
0.497441
0.498042
0.498552
0.498974
0.49931
0.499562
0.499733
0.499827
0.499846
0.499794
0.499674
0.499489
0.499243
0.498938
0.498579
0.498168
0.497708
0.497203
0.496654
0.496065
0.495439
0.494777
0.494082
0.493356
0.492602
0.491821
0.491015
0.490186
0.489335
0.488465
0.487575
0.486668
0.485744
0.484806
0.483853
0.482886
0.481907
0.480916
0.479914
0.478901
0.477878
0.476844
0.475801
0.474749
0.473687
0.472616
0.471536
0.470446
0.469347
0.468238
0.467118
0.465988
0.464846
0.463691
0.462523
0.46134
0.460141
0.458923
0.457685
0.456425
0.455139
0.453824
0.452476
0.451088
0.449655
0.448168
0.446615
0.444981
0.443247
0.441386
0.439357
0.437105
0.434541
0.431522
0.427804
0.42292
0.415861
0.40396
0.377047
0.257912
0.0154077
0.00110001
0.0011
0.0011
0.0011
0.0011
0.0011
0.0011
0.0011
0.0011
0.0011
0.0011
0.0011
0.0011
0.0011
0.0011
0.0011
0.0011
0.0011
0.0011
0.0011
0.0011
0.0011
0.0011
0.0011
0.0011
0.0011
0.0011
0.0011
0.0011
0.0011
0.0011
0.0011
0.0011
0.0011
0.0011
0.0011
0.0011
0.0011
0.0011
0.0011
0.0011
0.0011
0.0011
0.0011
0.0011
0.0011
0.0011
0.0011
0.0011
0.0011
0.0011
0.0011
0.0011
0.0011
0.0011
0.0011
0.0011
0.0011
0.0011
0.0011
0.0011
0.0011
0.0011
0.0011
0.0011
0.0011
0.0011
0.0011
0.0011
0.0011
0.0011
0.0011
0.0011
0.0011
0.0011
0.0011
0.0011
0.0011
0.0011
0.0011
0.0011
0.0011
0.0011
0.0011
0.0011
0.0011
0.0011
0.0011
0.0011
0.0011
0.493695
0.495263
0.496741
0.498124
0.499405
0.500581
0.501649
0.502608
0.503458
0.504199
0.504833
0.505361
0.505788
0.506115
0.506346
0.506485
0.506536
0.506504
0.506392
0.506204
0.505946
0.50562
0.505232
0.504784
0.504281
0.503726
0.503123
0.502475
0.501786
0.501058
0.500293
0.499496
0.498667
0.49781
0.496926
0.496019
0.495089
0.494138
0.493168
0.49218
0.491176
0.490157
0.489125
0.488079
0.487022
0.485953
0.484875
0.483787
0.482689
0.481583
0.480469
0.479347
0.478218
0.477081
0.475937
0.474785
0.473627
0.47246
0.471286
0.470104
0.468913
0.467712
0.466502
0.46528
0.464047
0.4628
0.461539
0.460261
0.458964
0.457647
0.456305
0.454936
0.453535
0.452097
0.450614
0.449079
0.447479
0.445802
0.444025
0.442123
0.440056
0.437768
0.435172
0.432125
0.428385
0.423488
0.41643
0.404536
0.377558
0.255344
0.012749
0.00110001
0.0011
0.0011
0.0011
0.0011
0.0011
0.0011
0.0011
0.0011
0.0011
0.0011
0.0011
0.0011
0.0011
0.0011
0.0011
0.0011
0.0011
0.0011
0.0011
0.0011
0.0011
0.0011
0.0011
0.0011
0.0011
0.0011
0.0011
0.0011
0.0011
0.0011
0.0011
0.0011
0.0011
0.0011
0.0011
0.0011
0.0011
0.0011
0.0011
0.0011
0.0011
0.0011
0.0011
0.0011
0.0011
0.0011
0.0011
0.0011
0.0011
0.0011
0.0011
0.0011
0.0011
0.0011
0.0011
0.0011
0.0011
0.0011
0.0011
0.0011
0.0011
0.0011
0.0011
0.0011
0.0011
0.0011
0.0011
0.0011
0.0011
0.0011
0.0011
0.0011
0.0011
0.0011
0.0011
0.0011
0.0011
0.0011
0.0011
0.0011
0.0011
0.0011
0.0011
0.0011
0.0011
0.0011
0.0011
0.0011
0.49908
0.50085
0.502515
0.504066
0.505496
0.506801
0.507978
0.509026
0.509944
0.510735
0.511401
0.511944
0.512369
0.51268
0.512882
0.512981
0.51298
0.512886
0.512704
0.51244
0.512098
0.511684
0.511202
0.510658
0.510055
0.509399
0.508692
0.507939
0.507144
0.50631
0.505439
0.504536
0.503602
0.502641
0.501654
0.500644
0.499613
0.498563
0.497495
0.496411
0.495313
0.494201
0.493077
0.491942
0.490797
0.489642
0.488479
0.487309
0.486131
0.484946
0.483756
0.482559
0.481356
0.480148
0.478935
0.477716
0.476492
0.475262
0.474026
0.472784
0.471536
0.470281
0.469018
0.467746
0.466465
0.465173
0.46387
0.462553
0.461221
0.459871
0.458502
0.45711
0.455692
0.454243
0.452757
0.451228
0.449646
0.448
0.446276
0.444452
0.4425
0.44038
0.438033
0.435368
0.432237
0.42838
0.423303
0.41591
0.403203
0.372971
0.224296
0.00598443
0.0011
0.0011
0.0011
0.0011
0.0011
0.0011
0.0011
0.0011
0.0011
0.0011
0.0011
0.0011
0.0011
0.0011
0.0011
0.0011
0.0011
0.0011
0.0011
0.0011
0.0011
0.0011
0.0011
0.0011
0.0011
0.0011
0.0011
0.0011
0.0011
0.0011
0.0011
0.0011
0.0011
0.0011
0.0011
0.0011
0.0011
0.0011
0.0011
0.0011
0.0011
0.0011
0.0011
0.0011
0.0011
0.0011
0.0011
0.0011
0.0011
0.0011
0.0011
0.0011
0.0011
0.0011
0.0011
0.0011
0.0011
0.0011
0.0011
0.0011
0.0011
0.0011
0.0011
0.0011
0.0011
0.0011
0.0011
0.0011
0.0011
0.0011
0.0011
0.0011
0.0011
0.0011
0.0011
0.0011
0.0011
0.0011
0.0011
0.0011
0.0011
0.0011
0.0011
0.0011
0.0011
0.0011
0.0011
0.0011
0.504158
0.506158
0.508033
0.509773
0.511369
0.512817
0.514113
0.515256
0.516247
0.517088
0.517783
0.518336
0.518753
0.51904
0.519204
0.51925
0.519187
0.519021
0.518758
0.518406
0.51797
0.517457
0.516873
0.516223
0.515513
0.514747
0.513931
0.513068
0.512163
0.511219
0.51024
0.509229
0.508189
0.507123
0.506033
0.504922
0.503791
0.502643
0.50148
0.500302
0.499112
0.49791
0.496699
0.495478
0.49425
0.493014
0.491771
0.490523
0.489269
0.48801
0.486747
0.48548
0.484209
0.482935
0.481656
0.480374
0.479089
0.4778
0.476507
0.47521
0.473908
0.472601
0.471288
0.469969
0.468643
0.467309
0.465966
0.464612
0.463245
0.461865
0.460469
0.459053
0.457616
0.456152
0.454659
0.453129
0.451555
0.449928
0.448235
0.446462
0.444585
0.442575
0.440388
0.43796
0.435192
0.43192
0.427854
0.422427
0.414339
0.399826
0.361513
0.161686
0.00188146
0.0011
0.0011
0.0011
0.0011
0.0011
0.0011
0.0011
0.0011
0.0011
0.0011
0.0011
0.0011
0.0011
0.0011
0.0011
0.0011
0.0011
0.0011
0.0011
0.0011
0.0011
0.0011
0.0011
0.0011
0.0011
0.0011
0.0011
0.0011
0.0011
0.0011
0.0011
0.0011
0.0011
0.0011
0.0011
0.0011
0.0011
0.0011
0.0011
0.0011
0.0011
0.0011
0.0011
0.0011
0.0011
0.0011
0.0011
0.0011
0.0011
0.0011
0.0011
0.0011
0.0011
0.0011
0.0011
0.0011
0.0011
0.0011
0.0011
0.0011
0.0011
0.0011
0.0011
0.0011
0.0011
0.0011
0.0011
0.0011
0.0011
0.0011
0.0011
0.0011
0.0011
0.0011
0.0011
0.0011
0.0011
0.0011
0.0011
0.0011
0.0011
0.0011
0.0011
0.0011
0.0011
0.0011
0.0011
0.508942
0.511203
0.513317
0.515271
0.517055
0.518662
0.520089
0.521335
0.522401
0.523292
0.524012
0.524568
0.524969
0.525221
0.525334
0.525317
0.525178
0.524926
0.524569
0.524117
0.523576
0.522953
0.522257
0.521493
0.520667
0.519786
0.518854
0.517876
0.516857
0.515801
0.514711
0.513592
0.512446
0.511275
0.510083
0.508873
0.507645
0.506402
0.505146
0.503879
0.502601
0.501314
0.50002
0.498718
0.497411
0.496098
0.494781
0.49346
0.492135
0.490808
0.489478
0.488146
0.486811
0.485475
0.484137
0.482797
0.481455
0.480111
0.478765
0.477416
0.476065
0.47471
0.473351
0.471988
0.47062
0.469246
0.467865
0.466476
0.465077
0.463666
0.462243
0.460804
0.459346
0.457867
0.456363
0.454827
0.453255
0.451638
0.449966
0.448227
0.446401
0.444466
0.442387
0.440118
0.437585
0.434675
0.4312
0.426815
0.420823
0.411547
0.393624
0.336321
0.0797232
0.00112315
0.0011
0.0011
0.0011
0.0011
0.0011
0.0011
0.0011
0.0011
0.0011
0.0011
0.0011
0.0011
0.0011
0.0011
0.0011
0.0011
0.0011
0.0011
0.0011
0.0011
0.0011
0.0011
0.0011
0.0011
0.0011
0.0011
0.0011
0.0011
0.0011
0.0011
0.0011
0.0011
0.0011
0.0011
0.0011
0.0011
0.0011
0.0011
0.0011
0.0011
0.0011
0.0011
0.0011
0.0011
0.0011
0.0011
0.0011
0.0011
0.0011
0.0011
0.0011
0.0011
0.0011
0.0011
0.0011
0.0011
0.0011
0.0011
0.0011
0.0011
0.0011
0.0011
0.0011
0.0011
0.0011
0.0011
0.0011
0.0011
0.0011
0.0011
0.0011
0.0011
0.0011
0.0011
0.0011
0.0011
0.0011
0.0011
0.0011
0.0011
0.0011
0.0011
0.0011
0.0011
0.0011
0.0011
0.513437
0.515997
0.518385
0.520584
0.522582
0.524368
0.52594
0.527296
0.528441
0.529379
0.530118
0.530668
0.53104
0.531244
0.531291
0.531194
0.530964
0.530611
0.530146
0.529579
0.52892
0.528176
0.527357
0.52647
0.525522
0.524519
0.523467
0.52237
0.521235
0.520065
0.518865
0.517637
0.516385
0.515113
0.513821
0.512514
0.511193
0.509859
0.508515
0.507162
0.505801
0.504434
0.503062
0.501685
0.500304
0.49892
0.497534
0.496146
0.494756
0.493365
0.491974
0.490582
0.48919
0.487797
0.486404
0.485011
0.483617
0.482223
0.480828
0.479432
0.478035
0.476636
0.475235
0.473832
0.472425
0.471013
0.469596
0.468174
0.466743
0.465304
0.463854
0.462391
0.460914
0.459418
0.4579
0.456357
0.454782
0.45317
0.45151
0.449793
0.448003
0.446122
0.444121
0.441964
0.439595
0.436929
0.433832
0.430073
0.425219
0.418348
0.407069
0.382586
0.277987
0.0195651
0.00110004
0.0011
0.0011
0.0011
0.0011
0.0011
0.0011
0.0011
0.0011
0.0011
0.0011
0.0011
0.0011
0.0011
0.0011
0.0011
0.0011
0.0011
0.0011
0.0011
0.0011
0.0011
0.0011
0.0011
0.0011
0.0011
0.0011
0.0011
0.0011
0.0011
0.0011
0.0011
0.0011
0.0011
0.0011
0.0011
0.0011
0.0011
0.0011
0.0011
0.0011
0.0011
0.0011
0.0011
0.0011
0.0011
0.0011
0.0011
0.0011
0.0011
0.0011
0.0011
0.0011
0.0011
0.0011
0.0011
0.0011
0.0011
0.0011
0.0011
0.0011
0.0011
0.0011
0.0011
0.0011
0.0011
0.0011
0.0011
0.0011
0.0011
0.0011
0.0011
0.0011
0.0011
0.0011
0.0011
0.0011
0.0011
0.0011
0.0011
0.0011
0.0011
0.0011
0.0011
0.0011
0.0011
0.517878
0.520806
0.523533
0.526034
0.528291
0.530293
0.532036
0.53352
0.534749
0.535732
0.536482
0.537011
0.537335
0.537467
0.537425
0.537223
0.536875
0.536396
0.535798
0.535094
0.534295
0.533411
0.532451
0.531425
0.53034
0.529202
0.528018
0.526794
0.525535
0.524244
0.522927
0.521586
0.520226
0.518848
0.517455
0.51605
0.514634
0.513209
0.511777
0.510339
0.508897
0.50745
0.506001
0.50455
0.503098
0.501645
0.500192
0.498739
0.497286
0.495835
0.494384
0.492935
0.491486
0.49004
0.488594
0.48715
0.485707
0.484264
0.482823
0.481382
0.479941
0.4785
0.477058
0.475614
0.474169
0.472721
0.47127
0.469814
0.468352
0.466883
0.465406
0.463919
0.462419
0.460904
0.459372
0.457817
0.456236
0.454622
0.452969
0.451267
0.449504
0.447663
0.445723
0.443654
0.441412
0.438934
0.43612
0.432808
0.428713
0.423276
0.415227
0.400904
0.363532
0.165847
0.0020204
0.0011
0.0011
0.0011
0.0011
0.0011
0.0011
0.0011
0.0011
0.0011
0.0011
0.0011
0.0011
0.0011
0.0011
0.0011
0.0011
0.0011
0.0011
0.0011
0.0011
0.0011
0.0011
0.0011
0.0011
0.0011
0.0011
0.0011
0.0011
0.0011
0.0011
0.0011
0.0011
0.0011
0.0011
0.0011
0.0011
0.0011
0.0011
0.0011
0.0011
0.0011
0.0011
0.0011
0.0011
0.0011
0.0011
0.0011
0.0011
0.0011
0.0011
0.0011
0.0011
0.0011
0.0011
0.0011
0.0011
0.0011
0.0011
0.0011
0.0011
0.0011
0.0011
0.0011
0.0011
0.0011
0.0011
0.0011
0.0011
0.0011
0.0011
0.0011
0.0011
0.0011
0.0011
0.0011
0.0011
0.0011
0.0011
0.0011
0.0011
0.0011
0.0011
0.0011
0.0011
0.0011
0.521594
0.524919
0.52801
0.530835
0.533368
0.535595
0.53751
0.539115
0.540417
0.54143
0.542171
0.542659
0.542914
0.542956
0.542806
0.542483
0.542006
0.541391
0.540655
0.539811
0.538872