/*--------------------------------*- C++ -*----------------------------------*\
  =========                 |
  \\      /  F ield         | OpenFOAM: The Open Source CFD Toolbox
   \\    /   O peration     | Website:  https://openfoam.org
    \\  /    A nd           | Version:  10
     \\/     M anipulation  |
\*---------------------------------------------------------------------------*/
FoamFile
{
    format      ascii;
    class       volVectorField;
    location    "0.34";
    object      Ua;
}
// * * * * * * * * * * * * * * * * * * * * * * * * * * * * * * * * * * * * * //

dimensions      [0 1 -1 0 0 0 0];

internalField   nonuniform List<vector> 
12225
(
(0.000153491 -1.57026e-05 0)
(0.00044925 -1.45566e-05 0)
(0.000719186 -1.25099e-05 0)
(0.00095949 -1.02241e-05 0)
(0.00117089 -8.14536e-06 0)
(0.00135623 -6.50136e-06 0)
(0.00151881 -5.38413e-06 0)
(0.00166201 -4.83548e-06 0)
(0.0017901 -4.92672e-06 0)
(0.00191126 -5.8836e-06 0)
(0.00204735 -8.4883e-06 0)
(0.0022771 -1.61833e-05 0)
(0.00308705 -5.45561e-05 0)
(0.0196377 -0.00215753 0)
(0.0315529 0.00170591 0)
(0.0274416 4.89723e-05 0)
(0.0294952 -0.000845277 0)
(0.0387179 -0.00283513 0)
(8.65773e-05 -4.15926e-05 0)
(0.000254072 -3.88125e-05 0)
(0.000407835 -3.35971e-05 0)
(0.000545013 -2.76578e-05 0)
(0.000666094 -2.21796e-05 0)
(0.000773742 -1.77862e-05 0)
(0.000871935 -1.47401e-05 0)
(0.000965747 -1.31642e-05 0)
(0.00106197 -1.32542e-05 0)
(0.00117122 -1.5615e-05 0)
(0.00131468 -2.2316e-05 0)
(0.00155289 -4.21458e-05 0)
(0.00217091 -0.000134057 0)
(0.00845972 -0.00367813 0)
(0.0197387 0.00214698 0)
(0.0259002 -0.000183656 0)
(0.0283307 -0.00240477 0)
(0.0327153 -0.00681953 0)
(6.84736e-05 -5.92109e-05 0)
(0.000202153 -5.57874e-05 0)
(0.000327374 -4.87742e-05 0)
(0.000441678 -4.05279e-05 0)
(0.000545124 -3.27525e-05 0)
(0.000639702 -2.63888e-05 0)
(0.00072877 -2.18615e-05 0)
(0.000816892 -1.93828e-05 0)
(0.000910325 -1.92555e-05 0)
(0.00101877 -2.23494e-05 0)
(0.00116088 -3.15078e-05 0)
(0.00138627 -5.79052e-05 0)
(0.00190035 -0.000165155 0)
(0.00626275 -0.00243175 0)
(0.0168649 -0.000520463 0)
(0.0244837 -0.000895054 0)
(0.02671 -0.00366039 0)
(0.0287022 -0.00832678 0)
(5.74325e-05 -7.21553e-05 0)
(0.000170579 -6.86637e-05 0)
(0.000278721 -6.06283e-05 0)
(0.000379691 -5.08302e-05 0)
(0.000473214 -4.13731e-05 0)
(0.000560696 -3.34783e-05 0)
(0.000644899 -2.77385e-05 0)
(0.000729852 -2.44707e-05 0)
(0.000821251 -2.40807e-05 0)
(0.000927931 -2.76104e-05 0)
(0.00106631 -3.82012e-05 0)
(0.0012772 -6.68883e-05 0)
(0.00171673 -0.000166288 0)
(0.00495938 -0.00142783 0)
(0.0149936 -0.00318042 0)
(0.023144 -0.00180489 0)
(0.0250088 -0.00458965 0)
(0.0258501 -0.00869804 0)
(4.93496e-05 -8.13796e-05 0)
(0.000147438 -7.82385e-05 0)
(0.000243028 -6.97567e-05 0)
(0.000334232 -5.8984e-05 0)
(0.000420575 -4.83306e-05 0)
(0.000503016 -3.92624e-05 0)
(0.000583809 -3.25383e-05 0)
(0.000666479 -2.8586e-05 0)
(0.000756179 -2.79005e-05 0)
(0.000860935 -3.1595e-05 0)
(0.000995264 -4.26802e-05 0)
(0.00119353 -7.03704e-05 0)
(0.00158385 -0.000151239 0)
(0.00410034 -0.000810965 0)
(0.0136759 -0.00544384 0)
(0.0219485 -0.00274741 0)
(0.0234185 -0.00524568 0)
(0.0237197 -0.00859209 0)
(4.29742e-05 -8.73871e-05 0)
(0.000129133 -8.4913e-05 0)
(0.000214678 -7.64309e-05 0)
(0.000297994 -6.51473e-05 0)
(0.000378518 -5.37019e-05 0)
(0.000456886 -4.37681e-05 0)
(0.000534929 -3.62609e-05 0)
(0.000615716 -3.17173e-05 0)
(0.000703895 -3.07023e-05 0)
(0.000806769 -3.43144e-05 0)
(0.000937366 -4.51477e-05 0)
(0.00112584 -6.99499e-05 0)
(0.00148483 -0.000130963 0)
(0.0034956 -0.000471526 0)
(0.01272 -0.00718184 0)
(0.0209389 -0.00360853 0)
(0.0220236 -0.00569118 0)
(0.0220709 -0.00831509 0)
(3.7742e-05 -9.04895e-05 0)
(0.000114052 -8.89215e-05 0)
(0.000191183 -8.07852e-05 0)
(0.000267785 -6.93673e-05 0)
(0.000343287 -5.74729e-05 0)
(0.000418107 -4.69439e-05 0)
(0.000493735 -3.88345e-05 0)
(0.000572833 -3.3783e-05 0)
(0.000659578 -3.24067e-05 0)
(0.000760649 -3.57355e-05 0)
(0.000887999 -4.58478e-05 0)
(0.00106925 -6.72208e-05 0)
(0.00140743 -0.000112183 0)
(0.00304889 -0.000296389 0)
(0.0120226 -0.0083866 0)
(0.0201247 -0.00430994 0)
(0.020845 -0.00597374 0)
(0.0207634 -0.00799792 0)
(3.33422e-05 -9.09071e-05 0)
(0.000101314 -9.04171e-05 0)
(0.000171198 -8.28856e-05 0)
(0.000241896 -7.16345e-05 0)
(0.000312896 -5.95812e-05 0)
(0.000384485 -4.86953e-05 0)
(0.000457877 -4.01467e-05 0)
(0.000535377 -3.46629e-05 0)
(0.000620732 -3.29016e-05 0)
(0.000720081 -3.58119e-05 0)
(0.000844618 -4.50254e-05 0)
(0.00102043 -6.3439e-05 0)
(0.00134284 -9.80156e-05 0)
(0.00270811 -0.000212905 0)
(0.0115056 -0.00909631 0)
(0.0194732 -0.00480114 0)
(0.0198629 -0.00612379 0)
(0.0197059 -0.00768911 0)
(2.9581e-05 -8.88186e-05 0)
(9.03692e-05 -8.95144e-05 0)
(0.00015389 -8.27639e-05 0)
(0.000219285 -7.19101e-05 0)
(0.000286152 -5.99384e-05 0)
(0.000354715 -4.89028e-05 0)
(0.000425975 -4.00602e-05 0)
(0.000501924 -3.42116e-05 0)
(0.000585918 -3.20507e-05 0)
(0.000683619 -3.44711e-05 0)
(0.000805632 -4.2836e-05 0)
(0.000976891 -5.93104e-05 0)
(0.00128522 -8.91152e-05 0)
(0.00243895 -0.000180019 0)
(0.0110808 -0.00934017 0)
(0.0189056 -0.00506514 0)
(0.01903 -0.0061643 0)
(0.0188297 -0.00740368 0)
(2.63247e-05 -8.43916e-05 0)
(8.08389e-05 -8.63122e-05 0)
(0.000138686 -8.04371e-05 0)
(0.000199244 -7.01429e-05 0)
(0.000262263 -5.84446e-05 0)
(0.000327952 -4.74348e-05 0)
(0.000397152 -3.84232e-05 0)
(0.000471579 -3.2266e-05 0)
(0.000554228 -2.96928e-05 0)
(0.000650316 -3.15888e-05 0)
(0.000769886 -3.92584e-05 0)
(0.000936662 -5.48892e-05 0)
(0.00123084 -8.4444e-05 0)
(0.00221764 -0.000175032 0)
(0.0106495 -0.00909809 0)
(0.0183106 -0.00512992 0)
(0.0182835 -0.00612508 0)
(0.0180782 -0.00714964 0)
(2.34709e-05 -7.78028e-05 0)
(7.243e-05 -8.0907e-05 0)
(0.000125145 -7.59179e-05 0)
(0.000181242 -6.62798e-05 0)
(0.00024065 -5.49996e-05 0)
(0.000303602 -4.4158e-05 0)
(0.000370811 -3.50788e-05 0)
(0.00044375 -2.86513e-05 0)
(0.000525077 -2.56399e-05 0)
(0.000619562 -2.69646e-05 0)
(0.000736578 -3.40368e-05 0)
(0.000898253 -4.95559e-05 0)
(0.00117674 -8.15344e-05 0)
(0.00202469 -0.000182863 0)
(0.0100927 -0.00829251 0)
(0.0175476 -0.00507886 0)
(0.0175583 -0.00605813 0)
(0.0174064 -0.00694261 0)
(2.06749e-05 -6.99211e-05 0)
(6.42268e-05 -7.40285e-05 0)
(0.000112031 -6.98261e-05 0)
(0.000163943 -6.08482e-05 0)
(0.000220027 -5.00565e-05 0)
(0.000280506 -3.94741e-05 0)
(0.000345961 -3.04025e-05 0)
(0.000417629 -2.37406e-05 0)
(0.000497846 -2.02795e-05 0)
(0.000590923 -2.09875e-05 0)
(0.000705417 -2.74368e-05 0)
(0.000861354 -4.29241e-05 0)
(0.00112198 -7.74755e-05 0)
(0.00184753 -0.000189627 0)
(0.00915689 -0.00688758 0)
(0.0163734 -0.00516022 0)
(0.0168669 -0.00604659 0)
(0.0168414 -0.00681376 0)
(1.88151e-05 -6.05908e-05 0)
(5.86376e-05 -6.54764e-05 0)
(0.000102826 -6.19266e-05 0)
(0.000151493 -5.35863e-05 0)
(0.000204892 -4.33271e-05 0)
(0.000263308 -3.30632e-05 0)
(0.000327259 -2.40337e-05 0)
(0.000397828 -1.71187e-05 0)
(0.000477098 -1.31161e-05 0)
(0.000568976 -1.30177e-05 0)
(0.000681243 -1.84921e-05 0)
(0.00083186 -3.31732e-05 0)
(0.00107589 -6.79645e-05 0)
(0.00170634 -0.00018106 0)
(0.00833807 -0.00498808 0)
(0.0153255 -0.00546026 0)
(0.0162474 -0.00614489 0)
(0.0163395 -0.00677431 0)
(1.6875e-05 -4.88078e-05 0)
(5.27134e-05 -5.41098e-05 0)
(9.295e-05 -5.10201e-05 0)
(0.00013809 -4.32896e-05 0)
(0.000188591 -3.3611e-05 0)
(0.000244782 -2.37148e-05 0)
(0.000307097 -1.47079e-05 0)
(0.000376436 -7.4249e-06 0)
(0.000454577 -2.51268e-06 0)
(0.000544948 -1.0994e-06 0)
(0.000654405 -4.77163e-06 0)
(0.000798379 -1.67727e-05 0)
(0.00102274 -4.66249e-05 0)
(0.00155884 -0.000141022 0)
(0.00732714 -0.00295518 0)
(0.014099 -0.00585593 0)
(0.0156531 -0.00638358 0)
(0.0158655 -0.00683608 0)
(1.47087e-05 -3.45943e-05 0)
(4.60433e-05 -3.94162e-05 0)
(8.1861e-05 -3.64008e-05 0)
(0.000123232 -2.91852e-05 0)
(0.000170738 -2.00529e-05 0)
(0.000224684 -1.05446e-05 0)
(0.000285203 -1.16954e-06 0)
(0.000352907 6.96102e-06 0)
(0.000429583 1.31802e-05 0)
(0.000518333 1.66006e-05 0)
(0.000624981 1.61285e-05 0)
(0.000762596 9.80983e-06 0)
(0.000969729 -7.59722e-06 0)
(0.00143667 -5.96201e-05 0)
(0.00641157 -0.00121361 0)
(0.0130199 -0.00627024 0)
(0.0151935 -0.00679856 0)
(0.0154988 -0.00703392 0)
(1.17432e-05 -1.82448e-05 0)
(3.71828e-05 -2.08344e-05 0)
(6.78436e-05 -1.74311e-05 0)
(0.000105452 -1.07886e-05 0)
(0.00014976 -1.35166e-06 0)
(0.000200657 8.34543e-06 0)
(0.000259116 1.82002e-05 0)
(0.000325879 2.73722e-05 0)
(0.000402005 3.52833e-05 0)
(0.000489936 4.15791e-05 0)
(0.000594929 4.60056e-05 0)
(0.000729015 4.86594e-05 0)
(0.000927661 5.0928e-05 0)
(0.00136447 6.11075e-05 0)
(0.00587651 0.000406858 0)
(0.0124116 -0.00689247 0)
(0.014988 -0.00741982 0)
(0.0153589 -0.00738181 0)
(5.92877e-06 3.90208e-07 0)
(2.06592e-05 2.83447e-06 0)
(4.30397e-05 7.20156e-06 0)
(7.50857e-05 1.34809e-05 0)
(0.000116982 2.26087e-05 0)
(0.000168018 3.25336e-05 0)
(0.000227194 4.29446e-05 0)
(0.000294539 5.35321e-05 0)
(0.000371111 6.40174e-05 0)
(0.000459544 7.43223e-05 0)
(0.000565617 8.4936e-05 0)
(0.00070306 9.80034e-05 0)
(0.000913409 0.000121624 0)
(0.00140798 0.000199318 0)
(0.00680761 0.00269899 0)
(0.013507 -0.00815468 0)
(0.015367 -0.00815643 0)
(0.0156672 -0.00779449 0)
(1.38329e-05 2.39925e-05 0)
(4.22494e-05 3.38088e-05 0)
(7.35018e-05 4.11888e-05 0)
(0.000109844 4.86168e-05 0)
(0.000152698 5.73849e-05 0)
(0.000202744 6.76479e-05 0)
(0.000260326 7.93403e-05 0)
(0.000326041 9.23065e-05 0)
(0.000401341 0.000106428 0)
(0.000489513 0.000121793 0)
(0.000598142 0.000139098 0)
(0.000746837 0.000160922 0)
(0.00100278 0.000198086 0)
(0.00182323 0.000328437 0)
(0.00965647 0.00415363 0)
(0.0168242 -0.00884466 0)
(0.0167501 -0.00838666 0)
(0.0166514 -0.00790574 0)
(1.90033e-05 5.86592e-05 0)
(5.83449e-05 7.43524e-05 0)
(0.000100678 8.60749e-05 0)
(0.000146797 9.64527e-05 0)
(0.000197582 0.000107438 0)
(0.000253762 0.000120171 0)
(0.000316046 0.000135255 0)
(0.000385526 0.000153039 0)
(0.00046431 0.000173952 0)
(0.000556777 0.00019902 0)
(0.000673216 0.000230965 0)
(0.000844296 0.000278333 0)
(0.00121598 0.000385559 0)
(0.0048303 0.00190308 0)
(0.0131453 -0.00167131 0)
(0.0180366 -0.00849394 0)
(0.0178833 -0.00803221 0)
(0.0177276 -0.00758832 0)
(2.13128e-05 9.75115e-05 0)
(6.61209e-05 0.000114797 0)
(0.000115261 0.000128988 0)
(0.000168808 0.000142192 0)
(0.000226999 0.000156566 0)
(0.000290146 0.000173763 0)
(0.000358882 0.000194869 0)
(0.000434765 0.000220708 0)
(0.000521343 0.000252695 0)
(0.000626509 0.00029484 0)
(0.000771023 0.000359226 0)
(0.00104008 0.000493568 0)
(0.0025189 0.00130598 0)
(0.0110144 0.000161065 0)
(0.0186595 -0.00835296 0)
(0.0190919 -0.00826531 0)
(0.019004 -0.00766363 0)
(0.018825 -0.00714034 0)
(2.52461e-05 0.000130218 0)
(7.80847e-05 0.000146483 0)
(0.000135629 0.000161238 0)
(0.00019787 0.000176506 0)
(0.000264741 0.000194761 0)
(0.000336265 0.000218136 0)
(0.000413106 0.000248056 0)
(0.000497955 0.000285491 0)
(0.000598379 0.000332822 0)
(0.000734124 0.000400038 0)
(0.000970866 0.000530489 0)
(0.00183147 0.00107251 0)
(0.00961606 0.00284066 0)
(0.0189187 -0.0065669 0)
(0.0209719 -0.0089099 0)
(0.020623 -0.00793384 0)
(0.0202606 -0.00718604 0)
(0.0198978 -0.00658679 0)
(3.03801e-05 0.000155727 0)
(9.348e-05 0.000170379 0)
(0.000161425 0.000185187 0)
(0.000234355 0.000202636 0)
(0.000312069 0.000226013 0)
(0.000394212 0.000258475 0)
(0.000481214 0.000302195 0)
(0.000577302 0.000358165 0)
(0.000698544 0.000429469 0)
(0.000902071 0.00053813 0)
(0.0015179 0.00086147 0)
(0.00841062 0.00510299 0)
(0.019701 -0.00264816 0)
(0.0239189 -0.00913316 0)
(0.0228153 -0.00800443 0)
(0.0220311 -0.00711886 0)
(0.0213982 -0.00641335 0)
(0.0208515 -0.00584075 0)
(3.68184e-05 0.000172057 0)
(0.00011274 0.000184981 0)
(0.000193619 0.000199645 0)
(0.000279991 0.000219468 0)
(0.000371811 0.000249303 0)
(0.000468316 0.000294651 0)
(0.000569061 0.000360266 0)
(0.000679522 0.000449157 0)
(0.000831609 0.000570853 0)
(0.00121241 0.000804154 0)
(0.00567081 0.00485779 0)
(0.0182631 0.000768164 0)
(0.0260916 -0.0082211 0)
(0.0249338 -0.00755538 0)
(0.0238915 -0.00678331 0)
(0.0230081 -0.00608627 0)
(0.0222513 -0.00549266 0)
(0.0215917 -0.00499523 0)
(4.46153e-05 0.000178502 0)
(0.000136065 0.000189672 0)
(0.000232678 0.000203938 0)
(0.000335804 0.000225956 0)
(0.000446273 0.000263031 0)
(0.000563512 0.000325312 0)
(0.000686099 0.000424884 0)
(0.000822716 0.000576121 0)
(0.00104745 0.000843677 0)
(0.00264269 0.00266976 0)
(0.0152881 0.00255924 0)
(0.0268219 -0.00747008 0)
(0.0266869 -0.00707739 0)
(0.0256869 -0.0063319 0)
(0.0246567 -0.005653 0)
(0.0237142 -0.00506285 0)
(0.0228791 -0.00456237 0)
(0.022143 -0.00414189 0)
(5.38589e-05 0.000175243 0)
(0.000163699 0.000184601 0)
(0.000278986 0.000198009 0)
(0.000402518 0.000221382 0)
(0.000537433 0.000265181 0)
(0.000685492 0.000347366 0)
(0.000847029 0.000497089 0)
(0.00105387 0.0007684 0)
(0.00172461 0.00164869 0)
(0.0120164 0.00491182 0)
(0.0255228 -0.00650643 0)
(0.0287565 -0.00734829 0)
(0.0276176 -0.0060831 0)
(0.0264107 -0.00524222 0)
(0.02527 -0.00460389 0)
(0.0242446 -0.00409205 0)
(0.0233397 -0.00367277 0)
(0.0225441 -0.00332567 0)
(6.48238e-05 0.000162985 0)
(0.000196391 0.000170453 0)
(0.000333612 0.000182383 0)
(0.000481479 0.000205616 0)
(0.000647724 0.000253834 0)
(0.000841439 0.000356141 0)
(0.00107394 0.00057756 0)
(0.00149817 0.00110802 0)
(0.00721984 0.00869346 0)
(0.0235731 -0.00159631 0)
(0.0328846 -0.00838221 0)
(0.030285 -0.00619704 0)
(0.0285066 -0.00495474 0)
(0.0270253 -0.00416512 0)
(0.0257448 -0.00360617 0)
(0.0246336 -0.0031806 0)
(0.0236681 -0.00284249 0)
(0.0228262 -0.00256717 0)
(7.8315e-05 0.000142648 0)
(0.000236441 0.000148191 0)
(0.000400034 0.000158019 0)
(0.000576996 0.000179221 0)
(0.000782786 0.000227743 0)
(0.00104412 0.000345812 0)
(0.00140851 0.000670699 0)
(0.00218031 0.00262653 0)
(0.0200564 0.00838632 0)
(0.03647 -0.00813965 0)
(0.0340038 -0.00631472 0)
(0.0312636 -0.00474171 0)
(0.0291592 -0.00374818 0)
(0.0274774 -0.0031085 0)
(0.0260827 -0.00266573 0)
(0.0249022 -0.00233749 0)
(0.0238904 -0.00208186 0)
(0.0230148 -0.00187628 0)
(9.68282e-05 0.000115112 0)
(0.000291107 0.000118785 0)
(0.000489663 0.000126013 0)
(0.000703796 0.000143258 0)
(0.000960793 0.000186665 0)
(0.0013254 0.000308977 0)
(0.0020667 0.000745016 0)
(0.0103635 0.0116063 0)
(0.0297847 -0.00393804 0)
(0.0391183 -0.00644416 0)
(0.0350217 -0.00443067 0)
(0.0319175 -0.00327417 0)
(0.0295894 -0.0025649 0)
(0.0277735 -0.00211018 0)
(0.0263005 -0.00179894 0)
(0.0250724 -0.00157144 0)
(0.0240295 -0.00139634 0)
(0.0231319 -0.00125665 0)
(0.000131925 8.10647e-05 0)
(0.000393717 8.29045e-05 0)
(0.000654183 8.70375e-05 0)
(0.000928417 9.85007e-05 0)
(0.00126258 0.000130848 0)
(0.00178764 0.000240808 0)
(0.00289351 0.00097895 0)
(0.0263765 0.0137781 0)
(0.0462697 -0.00833817 0)
(0.0405597 -0.00400241 0)
(0.0356887 -0.00258277 0)
(0.032301 -0.00187787 0)
(0.0298343 -0.00146167 0)
(0.0279406 -0.00119711 0)
(0.0264223 -0.00101721 0)
(0.0251668 -0.00088666 0)
(0.024106 -0.000786808 0)
(0.023196 -0.000707509 0)
(0.0004533 3.13073e-05 0)
(0.00132462 3.17643e-05 0)
(0.00211464 3.29841e-05 0)
(0.00282144 3.7044e-05 0)
(0.00353683 4.96989e-05 0)
(0.00491255 9.94336e-05 0)
(0.02144 0.000594685 0)
(0.0508149 0.00413305 0)
(0.0549455 -0.00357322 0)
(0.0416723 -0.00136475 0)
(0.0360129 -0.000837551 0)
(0.0324653 -0.000602648 0)
(0.0299364 -0.00046754 0)
(0.0280097 -0.000382154 0)
(0.0264725 -0.000324266 0)
(0.0252055 -0.000282387 0)
(0.0241373 -0.00025044 0)
(0.0232221 -0.000225117 0)
(0.00010383 -0.000221932 -2.86718e-30)
(0.000312318 -0.000221586 2.86024e-30)
(0.000522068 -0.000220984 0)
(0.000732841 -0.000220124 0)
(0.000944393 -0.000219005 0)
(0.00115647 -0.000217628 -2.79912e-30)
(0.00136882 -0.000215994 0)
(0.00158117 -0.000214108 0)
(0.00179327 -0.000211975 0)
(0.00200486 -0.000209601 0)
(0.00221567 -0.000206995 2.6492e-30)
(0.00242544 -0.000204168 0)
(0.00263393 -0.000201129 0)
(0.00284088 -0.000197891 0)
(0.00304606 -0.000194467 0)
(0.00324922 -0.000190871 2.42859e-30)
(0.00345016 -0.000187118 0)
(0.00364866 -0.000183222 0)
(0.00384452 -0.0001792 0)
(0.00403756 -0.000175067 0)
(0.0042276 -0.000170838 0)
(0.00441449 -0.00016653 0)
(0.00459807 -0.000162157 0)
(0.00477823 -0.000157734 1.98226e-30)
(0.00495483 -0.000153277 -1.92256e-30)
(0.00512779 -0.000148798 1.86264e-30)
(0.005297 -0.000144312 1.80265e-30)
(0.0054624 -0.00013983 0)
(0.00562393 -0.000135364 0)
(0.00578152 -0.000130926 -1.62393e-30)
(0.00593516 -0.000126525 -1.56523e-30)
(0.0060848 -0.000122171 0)
(0.00623044 -0.000117872 0)
(0.00637207 -0.000113635 -1.39348e-30)
(0.0065097 -0.000109468 0)
(0.00664335 -0.000105377 0)
(0.00677302 -0.000101367 1.23018e-30)
(0.00689876 -9.74415e-05 0)
(0.0070206 -9.36056e-05 1.12695e-30)
(0.00713859 -8.98622e-05 2.15435e-30)
(0.00725277 -8.62138e-05 0)
(0.0073632 -8.26625e-05 0)
(0.00746993 -7.92098e-05 0)
(0.00757303 -7.58568e-05 0)
(0.00767258 -7.26041e-05 0)
(0.00776862 -6.9452e-05 1.61188e-30)
(0.00786124 -6.64002e-05 1.53081e-30)
(0.00795052 -6.34484e-05 1.4524e-30)
(0.00803652 -6.05959e-05 0)
(0.00811932 -5.78415e-05 -1.30348e-30)
(0.00819901 -5.51842e-05 0)
(0.00827565 -5.26225e-05 1.16488e-30)
(0.00834934 -5.01548e-05 1.09935e-30)
(0.00842015 -4.77793e-05 0)
(0.00848815 -4.54944e-05 0)
(0.00855344 -4.32979e-05 0)
(0.00861608 -4.11878e-05 8.61262e-31)
(0.00867617 -3.91621e-05 0)
(0.00873376 -3.72185e-05 0)
(0.00878895 -3.53549e-05 0)
(0.00884181 -3.3569e-05 0)
(0.00889242 -3.18586e-05 0)
(0.00894084 -3.02214e-05 0)
(0.00898715 -2.86551e-05 0)
(0.00903143 -2.71575e-05 0)
(0.00907374 -2.57263e-05 -4.50784e-31)
(0.00911415 -2.43593e-05 0)
(0.00915273 -2.30544e-05 0)
(0.00918955 -2.18093e-05 3.46801e-31)
(0.00922467 -2.0622e-05 3.15275e-31)
(0.00925816 -1.94902e-05 0)
(0.00929007 -1.8412e-05 -2.5661e-31)
(0.00932046 -1.73854e-05 2.29352e-31)
(0.0093494 -1.64084e-05 0)
(0.00937694 -1.54789e-05 -1.78737e-31)
(0.00940314 -1.45953e-05 0)
(0.00942805 -1.37556e-05 0)
(0.00945172 -1.2958e-05 1.1181e-31)
(0.0094742 -1.22008e-05 0)
(0.00949555 -1.14824e-05 -7.26299e-32)
(0.00951581 -1.0801e-05 0)
(0.00953503 -1.01551e-05 3.73869e-32)
(0.00955325 -9.54321e-06 2.11403e-32)
(0.00957051 -8.96374e-06 5.75396e-33)
(0.00958686 -8.41528e-06 -1.76159e-32)
(0.00960235 -7.89644e-06 4.51745e-32)
(0.00961699 -7.40587e-06 0)
(0.00963085 -6.94227e-06 0)
(0.00964394 -6.50438e-06 0)
(0.00965632 -6.09099e-06 1.41059e-31)
(0.009668 -5.70092e-06 1.61779e-31)
(0.00967903 -5.33307e-06 -1.81316e-31)
(0.00968944 -4.98634e-06 0)
(0.00969925 -4.6597e-06 2.17081e-31)
(0.00970849 -4.35214e-06 2.33423e-31)
(0.0097172 -4.06271e-06 2.48797e-31)
(0.0097254 -3.79048e-06 0)
(0.00973311 -3.53458e-06 0)
(0.00974036 -3.29415e-06 0)
(0.00974718 -3.06838e-06 3.01618e-31)
(0.00975359 -2.85651e-06 0)
(0.0097596 -2.65777e-06 0)
(0.00976524 -2.47147e-06 -3.33326e-31)
(0.00977053 -2.29693e-06 0)
(0.00977549 -2.13349e-06 0)
(0.00978014 -1.98053e-06 -3.59413e-31)
(0.00978449 -1.83748e-06 0)
(0.00978856 -1.70376e-06 0)
(0.00979236 -1.57884e-06 3.80756e-31)
(0.00979592 -1.46221e-06 3.86954e-31)
(0.00979924 -1.35339e-06 0)
(0.00980234 -1.2519e-06 -3.98133e-31)
(0.00980524 -1.15733e-06 0)
(0.00980793 -1.06924e-06 4.07838e-31)
(0.00981045 -9.87244e-07 0)
(0.00981279 -9.10969e-07 4.16252e-31)
(0.00981497 -8.40058e-07 4.20016e-31)
(0.00981699 -7.74176e-07 0)
(0.00981888 -7.13004e-07 0)
(0.00982063 -6.56242e-07 0)
(0.00982225 -6.03604e-07 0)
(0.00982376 -5.54823e-07 0)
(0.00982516 -5.09644e-07 0)
(0.00982645 -4.67828e-07 0)
(0.00982765 -4.2915e-07 4.41863e-31)
(0.00982876 -3.93395e-07 -4.43759e-31)
(0.00982979 -3.60365e-07 0)
(0.00983073 -3.2987e-07 0)
(0.00983161 -3.01731e-07 0)
(0.00983242 -2.75782e-07 0)
(0.00983316 -2.51865e-07 -9.0257e-31)
(0.00983385 -2.29832e-07 0)
(0.00983448 -2.09542e-07 9.07072e-31)
(0.00983506 -1.90865e-07 -9.09059e-31)
(0.00983559 -1.73674e-07 0)
(0.00983608 -1.57853e-07 0)
(0.00983653 -1.4329e-07 0)
(0.00983694 -1.29879e-07 9.15547e-31)
(0.00983731 -1.17517e-07 9.1686e-31)
(0.00983766 -1.06106e-07 0)
(0.00983797 -9.55502e-08 9.19189e-31)
(0.00983825 -8.57564e-08 9.20225e-31)
(0.00983851 -7.66305e-08 -9.21198e-31)
(0.00983874 -6.80776e-08 0)
(0.00983894 -5.99998e-08 0)
(0.00983912 -5.22937e-08 -9.23772e-31)
(0.00983928 -4.48482e-08 0)
(0.00983942 -3.7541e-08 0)
(0.00983953 -3.02341e-08 0)
(0.00983962 -2.27691e-08 0)
(0.00983968 -1.49606e-08 9.27684e-31)
(0.00983972 -6.58776e-09 9.28553e-31)
(0.00983973 2.61625e-09 0)
(0.0098397 1.2977e-08 9.30575e-31)
(0.00983963 2.48968e-08 0)
(0.00983952 3.8876e-08 0)
(0.00983935 5.55421e-08 9.34943e-31)
(0.00983911 7.56863e-08 0)
(0.00983879 1.00312e-07 9.39521e-31)
(0.00983836 1.307e-07 0)
(0.00983781 1.68488e-07 0)
(0.00983709 2.1579e-07 9.51298e-31)
(0.00983615 2.75341e-07 0)
(0.00983495 3.50706e-07 9.65046e-31)
(0.00983341 4.46566e-07 0)
(0.00983143 5.69112e-07 0)
(0.00982888 7.26622e-07 0)
(0.00982558 9.30291e-07 -1.02409e-30)
(0.00982131 1.19549e-06 0)
(0.00981576 1.54371e-06 1.08659e-30)
(0.00980849 2.00567e-06 0)
(0.00979891 2.62666e-06 0)
(0.00978617 3.4758e-06 0)
(0.00976901 4.66392e-06 0)
(0.00974551 6.38005e-06 0)
(0.0097125 8.97516e-06 0)
(0.00966441 1.31823e-05 0)
(0.00958988 2.08202e-05 -6.11679e-30)
(0.00946028 3.77186e-05 0)
(0.00917305 9.07049e-05 0)
(0.000104363 -0.000666937 8.61623e-30)
(0.000313918 -0.000665888 -8.59526e-30)
(0.000524731 -0.000664067 0)
(0.000736558 -0.000661467 1.70637e-29)
(0.000949148 -0.000658082 0)
(0.00116224 -0.000653917 -8.43795e-30)
(0.00137558 -0.000648977 -1.67107e-29)
(0.00158888 -0.000643273 -1.65532e-29)
(0.0018019 -0.000636824 0)
(0.00201435 -0.000629649 -1.61809e-29)
(0.00222598 -0.000621775 8.00997e-30)
(0.00243652 -0.000613231 0)
(0.00264571 -0.000604052 0)
(0.00285331 -0.000594274 0)
(0.00305907 -0.000583937 0)
(0.00326275 -0.000573085 7.36843e-30)
(0.00346415 -0.000561761 0)
(0.00366303 -0.000550011 1.40445e-29)
(0.00385922 -0.000537883 0)
(0.00405252 -0.000525424 0)
(0.00424276 -0.000512681 -1.30521e-29)
(0.00442979 -0.000499702 0)
(0.00461346 -0.000486533 1.23587e-29)
(0.00479364 -0.000473219 6.05962e-30)
(0.00497022 -0.000459803 -5.88414e-30)
(0.00514311 -0.000446328 5.70793e-30)
(0.00531221 -0.000432832 5.53151e-30)
(0.00547746 -0.000419354 0)
(0.00563879 -0.000405928 0)
(0.00579616 -0.000392588 -5.00566e-30)
(0.00594954 -0.000379364 -1.43583e-29)
(0.0060989 -0.000366282 0)
(0.00624424 -0.000353369 0)
(0.00638555 -0.000340647 -4.32738e-30)
(0.00652284 -0.000328137 0)
(0.00665612 -0.000315855 0)
(0.00678544 -0.000303819 3.84666e-30)
(0.0069108 -0.00029204 0)
(0.00703227 -0.000280531 1.04622e-29)
(0.00714987 -0.0002693 6.79245e-30)
(0.00726367 -0.000258357 0)
(0.00737371 -0.000247705 0)
(0.00748006 -0.000237351 -1.15644e-29)
(0.00758279 -0.000227297 -1.10349e-29)
(0.00768196 -0.000217545 -1.05213e-29)
(0.00777763 -0.000208094 1.52192e-29)
(0.00786989 -0.000198946 4.95683e-30)
(0.00795881 -0.000190098 -4.35019e-30)
(0.00804446 -0.000181547 8.62608e-30)
(0.00812692 -0.000173292 -4.28763e-30)
(0.00820628 -0.000165328 0)
(0.0082826 -0.000157651 3.87964e-30)
(0.00835598 -0.000150256 1.06657e-29)
(0.00842648 -0.000143138 0)
(0.00849419 -0.000136291 0)
(0.00855919 -0.00012971 0)
(0.00862156 -0.000123387 2.98594e-30)
(0.00868138 -0.000117318 0)
(0.00873872 -0.000111495 4.93889e-30)
(0.00879367 -0.000105912 0)
(0.00884629 -0.000100561 4.36346e-30)
(0.00889667 -9.54368e-05 0)
(0.00894487 -9.05319e-05 -3.83566e-30)
(0.00899098 -8.58396e-05 0)
(0.00903506 -8.13531e-05 3.3526e-30)
(0.00907717 -7.70657e-05 -4.90478e-30)
(0.0091174 -7.29708e-05 0)
(0.00915581 -6.90616e-05 -2.70575e-30)
(0.00919246 -6.53318e-05 1.47176e-30)
(0.00922743 -6.17749e-05 1.37899e-30)
(0.00926076 -5.83847e-05 0)
(0.00929252 -5.51549e-05 -3.18021e-30)
(0.00932278 -5.20795e-05 1.12612e-30)
(0.00935159 -4.91527e-05 0)
(0.009379 -4.63686e-05 -9.77166e-31)
(0.00940508 -4.37215e-05 -1.37216e-30)
(0.00942988 -4.12061e-05 0)
(0.00945344 -3.88169e-05 7.80207e-31)
(0.00947582 -3.65488e-05 0)
(0.00949708 -3.43967e-05 2.16471e-31)
(0.00951724 -3.23556e-05 0)
(0.00953637 -3.04209e-05 -1.10918e-31)
(0.00955451 -2.85878e-05 5.13402e-31)
(0.0095717 -2.6852e-05 9.52416e-31)
(0.00958798 -2.52091e-05 1.64618e-30)
(0.00960339 -2.36549e-05 -1.40148e-30)
(0.00961797 -2.21853e-05 0)
(0.00963177 -2.07966e-05 0)
(0.0096448 -1.94849e-05 0)
(0.00965712 -1.82465e-05 -4.24666e-31)
(0.00966875 -1.70781e-05 -4.26371e-31)
(0.00967973 -1.59761e-05 3.68885e-31)
(0.00969009 -1.49375e-05 0)
(0.00969986 -1.3959e-05 1.25073e-31)
(0.00970906 -1.30377e-05 -2.15582e-31)
(0.00971773 -1.21707e-05 -1.7035e-31)
(0.00972589 -1.13552e-05 0)
(0.00973357 -1.05886e-05 0)
(0.00974079 -9.86837e-06 0)
(0.00974758 -9.19207e-06 -1.49499e-32)
(0.00975396 -8.55736e-06 0)
(0.00975994 -7.96203e-06 1.02014e-30)
(0.00976556 -7.40394e-06 1.00057e-30)
(0.00977083 -6.88106e-06 -1.13398e-30)
(0.00977577 -6.39145e-06 0)
(0.00978039 -5.93326e-06 -1.38885e-30)
(0.00978472 -5.50471e-06 0)
(0.00978878 -5.10413e-06 -1.32109e-30)
(0.00979257 -4.72991e-06 1.57836e-30)
(0.00979611 -4.38052e-06 1.63339e-30)
(0.00979942 -4.05452e-06 0)
(0.0098025 -3.7505e-06 1.19468e-30)
(0.00980539 -3.46718e-06 -1.49348e-30)
(0.00980807 -3.20329e-06 2.97517e-31)
(0.00981057 -2.95765e-06 0)
(0.00981291 -2.72915e-06 3.2226e-31)
(0.00981508 -2.51672e-06 -1.26026e-30)
(0.00981709 -2.31935e-06 0)
(0.00981897 -2.13609e-06 -1.63368e-30)
(0.00982071 -1.96604e-06 -1.6516e-30)
(0.00982233 -1.80835e-06 -1.66821e-30)
(0.00982383 -1.66221e-06 0)
(0.00982522 -1.52686e-06 0)
(0.00982651 -1.40159e-06 0)
(0.00982771 -1.28572e-06 2.12084e-30)
(0.00982881 -1.1786e-06 -4.03168e-31)
(0.00982983 -1.07965e-06 0)
(0.00983078 -9.88289e-07 1.75459e-30)
(0.00983165 -9.0399e-07 1.76347e-30)
(0.00983245 -8.2625e-07 0)
(0.00983319 -7.54599e-07 -8.50592e-31)
(0.00983387 -6.8859e-07 3.57234e-30)
(0.0098345 -6.27805e-07 8.63827e-31)
(0.00983508 -5.71849e-07 -4.46659e-30)
(0.00983561 -5.20349e-07 0)
(0.0098361 -4.72953e-07 0)
(0.00983655 -4.29325e-07 0)
(0.00983696 -3.89148e-07 8.8874e-31)
(0.00983733 -3.52115e-07 4.53582e-30)
(0.00983767 -3.17932e-07 3.65041e-30)
(0.00983798 -2.86314e-07 8.99466e-31)
(0.00983826 -2.56978e-07 4.56576e-30)
(0.00983852 -2.29645e-07 -9.05378e-31)
(0.00983875 -2.0403e-07 0)
(0.00983895 -1.79841e-07 0)
(0.00983913 -1.56769e-07 -4.59727e-30)
(0.00983929 -1.3448e-07 0)
(0.00983943 -1.1261e-07 0)
(0.00983954 -9.07464e-08 3.6981e-30)
(0.00983963 -6.84156e-08 0)
(0.00983969 -4.50636e-08 4.63217e-30)
(0.00983973 -2.00309e-08 9.27164e-31)
(0.00983974 7.47898e-09 0)
(0.00983971 3.84389e-08 4.65809e-30)
(0.00983965 7.40495e-08 0)
(0.00983954 1.15805e-07 0)
(0.00983937 1.65579e-07 9.46323e-31)
(0.00983914 2.25732e-07 3.7634e-30)
(0.00983882 2.99261e-07 9.60095e-31)
(0.0098384 3.89985e-07 0)
(0.00983785 5.02796e-07 0)
(0.00983714 6.43997e-07 4.84471e-30)
(0.00983622 8.21747e-07 0)
(0.00983504 1.04668e-06 4.96864e-30)
(0.00983353 1.33274e-06 0)
(0.00983157 1.69839e-06 0)
(0.00982906 2.16827e-06 0)
(0.00982582 2.77571e-06 -1.21492e-30)
(0.00982162 3.56638e-06 0)
(0.00981616 4.6041e-06 1.40306e-30)
(0.00980902 5.97994e-06 0)
(0.00979962 7.82774e-06 0)
(0.00978715 1.03512e-05 5.83766e-30)
(0.00977039 1.38752e-05 -6.56007e-30)
(0.00974753 1.89497e-05 0)
(0.00971567 2.65824e-05 0)
(0.00966986 3.883e-05 0)
(0.00960104 6.05599e-05 1.79636e-29)
(0.00949167 0.000105888 0)
(0.00931913 0.000227995 -1.01337e-28)
(0.000105443 -0.00111539 5.76517e-29)
(0.000317159 -0.00111361 -7.54772e-33)
(0.000530126 -0.00111053 0)
(0.000744088 -0.00110612 1.76268e-32)
(0.000958779 -0.00110039 0)
(0.00117393 -0.00109333 0)
(0.00138926 -0.00108496 -5.59271e-29)
(0.00160449 -0.00107531 -2.77202e-29)
(0.00181935 -0.00106439 2.73848e-29)
(0.00203356 -0.00105225 -2.71039e-29)
(0.00224683 -0.00103893 0)
(0.00245891 -0.00102449 0)
(0.00266952 -0.00100898 -2.58923e-29)
(0.00287841 -0.000992465 -5.09013e-29)
(0.00308533 -0.000975019 4.99701e-29)
(0.00329005 -0.000956713 0)
(0.00349235 -0.000937623 4.79791e-29)
(0.00369201 -0.000917828 2.35509e-29)
(0.00388884 -0.000897408 0)
(0.00408265 -0.000876444 4.47326e-29)
(0.00427328 -0.000855017 -2.18998e-29)
(0.00446058 -0.000833205 -4.24437e-29)
(0.0046444 -0.000811088 2.07468e-29)
(0.00482463 -0.000788741 0)
(0.00500115 -0.000766236 3.89049e-29)
(0.00517388 -0.000743644 3.77125e-29)
(0.00534274 -0.000721032 0)
(0.00550766 -0.000698461 3.53292e-29)
(0.0056686 -0.00067599 0)
(0.00582551 -0.000653672 3.29687e-29)
(0.00597836 -0.000631559 -1.60431e-29)
(0.00612716 -0.000609696 0)
(0.00627187 -0.000588123 0)
(0.00641253 -0.000566878 0)
(0.00654913 -0.000545994 0)
(0.0066817 -0.0005255 0)
(0.00681028 -0.000505422 0)
(0.0069349 -0.00048578 2.41318e-29)
(0.0070556 -0.000466593 -1.13948e-29)
(0.00717244 -0.000447877 0)
(0.00728546 -0.000429642 0)
(0.00739474 -0.0004119 0)
(0.00750032 -0.000394656 -3.90356e-29)
(0.00760229 -0.000377915 -1.88198e-29)
(0.0077007 -0.00036168 -3.63656e-31)
(0.00779564 -0.00034595 3.68134e-31)
(0.00788717 -0.000330726 -1.59808e-29)
(0.00797537 -0.000316003 -1.55838e-29)
(0.00806033 -0.000301778 2.93001e-29)
(0.00814211 -0.000288046 1.37382e-29)
(0.0082208 -0.000274799 0)
(0.00829648 -0.000262031 1.23714e-29)
(0.00836923 -0.000249733 2.38458e-29)
(0.00843912 -0.000237897 0)
(0.00850625 -0.000226513 0)
(0.00857068 -0.00021557 -9.9306e-30)
(0.0086325 -0.00020506 0)
(0.00869179 -0.00019497 0)
(0.00874863 -0.00018529 2.54329e-29)
(0.00880308 -0.000176009 1.57048e-29)
(0.00885523 -0.000167116 7.8034e-30)
(0.00890516 -0.000158599 0)
(0.00895293 -0.000150446 -6.9324e-30)
(0.00899862 -0.000142648 0)
(0.0090423 -0.000135192 1.7552e-29)
(0.00908403 -0.000128066 -5.76299e-30)
(0.0091239 -0.000121261 -9.95313e-30)
(0.00916196 -0.000114764 -1.43386e-29)
(0.00919828 -0.000108566 0)
(0.00923292 -0.000102655 7.99847e-30)
(0.00926595 -9.70214e-05 0)
(0.00929742 -9.16542e-05 2.98236e-30)
(0.00932741 -8.65438e-05 6.30582e-30)
(0.00935595 -8.16801e-05 5.79486e-30)
(0.00938312 -7.70536e-05 -5.30879e-30)
(0.00940896 -7.2655e-05 1.97905e-30)
(0.00943353 -6.84751e-05 0)
(0.00945688 -6.4505e-05 0)
(0.00947906 -6.0736e-05 -3.59442e-30)
(0.00950012 -5.71598e-05 -1.16076e-30)
(0.00952011 -5.37682e-05 0)