/*--------------------------------*- C++ -*----------------------------------*\
  =========                 |
  \\      /  F ield         | OpenFOAM: The Open Source CFD Toolbox
   \\    /   O peration     | Website:  https://openfoam.org
    \\  /    A nd           | Version:  10
     \\/     M anipulation  |
\*---------------------------------------------------------------------------*/
FoamFile
{
    format      ascii;
    class       volVectorField;
    location    "0.34";
    object      Ub;
}
// * * * * * * * * * * * * * * * * * * * * * * * * * * * * * * * * * * * * * //

dimensions      [0 1 -1 0 0 0 0];

internalField   nonuniform List<vector> 
12225
(
(0.00176401 -0.000370551 0)
(0.00501466 -0.00032722 0)
(0.00764427 -0.000265188 0)
(0.00961366 -0.00020355 0)
(0.0110176 -0.000152224 0)
(0.0119972 -0.000114179 0)
(0.0126899 -8.89401e-05 0)
(0.0132114 -7.504e-05 0)
(0.013655 -7.14374e-05 0)
(0.0140985 -7.87391e-05 0)
(0.0146188 -0.000102174 0)
(0.015326 -0.000164096 0)
(0.0163766 -0.000368983 0)
(0.00931077 -0.000647423 0)
(0.00080596 5.61123e-14 0)
(4.83057e-11 5.21284e-35 0)
(1.67642e-31 -4.96439e-33 0)
(2.1999e-31 -1.62705e-32 0)
(0.00203762 -0.00118952 0)
(0.00579152 -0.00104889 0)
(0.00883025 -0.000848629 0)
(0.0111138 -0.000650074 0)
(0.0127504 -0.000484676 0)
(0.0138961 -0.000361492 0)
(0.0146986 -0.000278594 0)
(0.0152779 -0.000230872 0)
(0.0157258 -0.000214436 0)
(0.016113 -0.000230244 0)
(0.0165029 -0.000292352 0)
(0.0169705 -0.000459777 0)
(0.0175112 -0.000973832 0)
(0.0110375 -0.00159228 0)
(0.00214343 1.6396e-12 0)
(1.49435e-08 -6.98312e-32 0)
(1.87525e-31 -1.38252e-32 0)
(1.85884e-31 -3.89093e-32 0)
(0.00216715 -0.0021478 0)
(0.00614675 -0.00188862 0)
(0.00934244 -0.00152261 0)
(0.0117199 -0.00116156 0)
(0.0134037 -0.00086145 0)
(0.0145646 -0.000637409 0)
(0.0153603 -0.000484918 0)
(0.0159161 -0.000393886 0)
(0.0163259 -0.000356243 0)
(0.0166587 -0.000371608 0)
(0.0169665 -0.000458563 0)
(0.0172711 -0.000691968 0)
(0.0173543 -0.00131795 0)
(0.011829 -0.00192283 0)
(0.00318608 -3.0886e-10 0)
(9.704e-08 -3.26806e-29 0)
(2.51587e-30 -2.09595e-32 0)
(1.63082e-31 -4.74733e-32 0)
(0.00228794 -0.0032338 0)
(0.0064704 -0.00283208 0)
(0.00979093 -0.00227088 0)
(0.0122259 -0.00172181 0)
(0.0139227 -0.00126798 0)
(0.0150708 -0.000929838 0)
(0.0158396 -0.000698696 0)
(0.0163601 -0.00055798 0)
(0.0167272 -0.000494092 0)
(0.0170066 -0.000503294 0)
(0.0172356 -0.000602678 0)
(0.0173875 -0.000858863 0)
(0.0171391 -0.00143636 0)
(0.0126571 -0.00182287 0)
(0.00423569 -5.18414e-09 0)
(2.57498e-07 -5.12802e-27 0)
(4.65994e-28 -2.62394e-32 0)
(1.46877e-31 -4.95828e-32 0)
(0.00242185 -0.00446305 0)
(0.00682254 -0.00388764 0)
(0.0102633 -0.00309466 0)
(0.0127382 -0.00232763 0)
(0.014426 -0.00169922 0)
(0.0155408 -0.00123354 0)
(0.0162659 -0.00091528 0)
(0.0167385 -0.000719339 0)
(0.0170543 -0.000624822 0)
(0.0172747 -0.0006221 0)
(0.0174238 -0.000720481 0)
(0.0174465 -0.000960917 0)
(0.0170179 -0.0014022 0)
(0.0135016 -0.00151727 0)
(0.00519046 -4.49018e-08 0)
(6.28044e-07 -4.38893e-25 0)
(4.94542e-26 -2.99669e-32 0)
(1.34772e-31 -4.89808e-32 0)
(0.0025819 -0.00586164 0)
(0.00723637 -0.00507012 0)
(0.0108027 -0.00399788 0)
(0.0133031 -0.00297632 0)
(0.0149604 -0.00214958 0)
(0.0160205 -0.0015422 0)
(0.0166838 -0.00112865 0)
(0.0170941 -0.000872536 0)
(0.0173479 -0.000743497 0)
(0.0175024 -0.000723441 0)
(0.0175734 -0.000809208 0)
(0.0174995 -0.00100945 0)
(0.0170126 -0.00129632 0)
(0.0143142 -0.00120379 0)
(0.00600901 -2.76032e-07 0)
(1.37615e-06 -2.24124e-23 0)
(3.42191e-24 -3.24982e-32 0)
(1.25404e-31 -4.74069e-32 0)
(0.00278171 -0.00746713 0)
(0.00774441 -0.00639979 0)
(0.0114466 -0.00498501 0)
(0.0139559 -0.0036634 0)
(0.0155568 -0.00261102 0)
(0.0165371 -0.00184712 0)
(0.0171174 -0.00133065 0)
(0.017449 -0.0010103 0)
(0.0176285 -0.00084374 0)
(0.0177103 -0.000802266 0)
(0.0177071 -0.000868258 0)
(0.0175678 -0.0010211 0)
(0.0170991 -0.00118141 0)
(0.0150604 -0.000979265 0)
(0.00669031 -1.35589e-06 0)
(2.84512e-06 -8.09543e-22 0)
(1.77281e-22 -3.41036e-32 0)
(1.17975e-31 -4.56047e-32 0)
(0.00303916 -0.00933298 0)
(0.0083872 -0.00790296 0)
(0.0122378 -0.00605948 0)
(0.0147321 -0.0043806 0)
(0.016243 -0.00307136 0)
(0.0171119 -0.00213602 0)
(0.0175838 -0.00151026 0)
(0.0178172 -0.00112311 0)
(0.0179086 -0.000917597 0)
(0.0179101 -0.00085299 0)
(0.017836 -0.000897952 0)
(0.0176536 -0.00101148 0)
(0.017239 -0.00109539 0)
(0.0157154 -0.000872939 0)
(0.00724621 -5.67652e-06 0)
(5.96821e-06 -2.60552e-20 0)
(8.32565e-21 -3.49562e-32 0)
(1.11966e-31 -4.38501e-32 0)
(0.00338025 -0.0115364 0)
(0.00922106 -0.00961294 0)
(0.0132306 -0.00722119 0)
(0.015673 -0.00511296 0)
(0.0170471 -0.00351212 0)
(0.0177642 -0.00239156 0)
(0.0180965 -0.00165259 0)
(0.0182089 -0.0011986 0)
(0.0181962 -0.000955117 0)
(0.0181084 -0.000868811 0)
(0.0179628 -0.000897382 0)
(0.0177462 -0.000990235 0)
(0.0173895 -0.00105382 0)
(0.0162588 -0.000884082 0)
(0.00769149 -2.09079e-05 0)
(1.38313e-05 -9.64215e-19 0)
(4.44038e-19 -3.51864e-32 0)
(1.06988e-31 -4.22284e-32 0)
(0.00384532 -0.014192 0)
(0.0103292 -0.0115706 0)
(0.014499 -0.00846179 0)
(0.0168287 -0.00583425 0)
(0.018 -0.00390524 0)
(0.0185124 -0.00258937 0)
(0.0186668 -0.00173781 0)
(0.0186313 -0.00122085 0)
(0.0184964 -0.000943748 0)
(0.0183075 -0.000840656 0)
(0.0180838 -0.00086199 0)
(0.017827 -0.000957377 0)
(0.0175049 -0.00105251 0)
(0.0166578 -0.000998258 0)
(0.00803452 -6.8219e-05 0)
(3.68538e-05 -4.75018e-17 0)
(3.42237e-17 -3.49636e-32 0)
(1.02718e-31 -4.07849e-32 0)
(0.00450043 -0.0174765 0)
(0.0118406 -0.0138225 0)
(0.016146 -0.00975539 0)
(0.0182613 -0.00649937 0)
(0.0191349 -0.00420858 0)
(0.0193733 -0.00269556 0)
(0.0193031 -0.00173975 0)
(0.0190888 -0.00116967 0)
(0.0188105 -0.000867687 0)
(0.0185057 -0.000756075 0)
(0.0181908 -0.000781447 0)
(0.0178732 -0.000900612 0)
(0.0175389 -0.00106635 0)
(0.0168535 -0.00117954 0)
(0.00827816 -0.000187782 0)
(0.000106435 -2.20717e-15 0)
(4.24502e-15 -3.45833e-32 0)
(9.89011e-32 -3.96086e-32 0)
(0.00539341 -0.0212706 0)
(0.01382 -0.0161863 0)
(0.0181767 -0.0109447 0)
(0.0199369 -0.00700373 0)
(0.0204076 -0.00436123 0)
(0.0203078 -0.00267775 0)
(0.0199761 -0.001643 0)
(0.019562 -0.00103925 0)
(0.0191281 -0.000726329 0)
(0.0186985 -0.000616374 0)
(0.0182809 -0.000654663 0)
(0.0178775 -0.000807204 0)
(0.0174727 -0.0010527 0)
(0.0168054 -0.0013384 0)
(0.00845452 -0.000389943 0)
(0.000282112 -6.40105e-14 0)
(5.09865e-13 -3.45292e-32 0)
(9.56912e-32 -3.88765e-32 0)
(0.00663942 -0.0261874 0)
(0.0164511 -0.01882 0)
(0.0206792 -0.0120008 0)
(0.021869 -0.00728069 0)
(0.021797 -0.0043023 0)
(0.0212819 -0.00248748 0)
(0.0206486 -0.00140942 0)
(0.0200139 -0.000798743 0)
(0.0194128 -0.000493488 0)
(0.0188497 -0.000397432 0)
(0.0183175 -0.000455594 0)
(0.0178036 -0.000641526 0)
(0.0172714 -0.00095186 0)
(0.0164662 -0.00136651 0)
(0.00858067 -0.000619564 0)
(0.000611293 -1.58266e-12 0)
(3.12583e-11 -3.57693e-32 0)
(9.28691e-32 -3.86524e-32 0)
(0.00888582 -0.0339411 0)
(0.0208954 -0.0220662 0)
(0.0244875 -0.0128156 0)
(0.0245748 -0.00715308 0)
(0.0236269 -0.00387667 0)
(0.0225086 -0.00200085 0)
(0.021467 -0.000939767 0)
(0.0205476 -0.000366072 0)
(0.0197379 -9.88273e-05 0)
(0.0190106 -3.5322e-05 0)
(0.0183348 -0.00012089 0)
(0.0176735 -0.000332687 0)
(0.0169572 -0.000671688 0)
(0.0159135 -0.00112449 0)
(0.00880687 -0.000688723 0)
(0.00117995 -1.87699e-11 0)
(1.51766e-09 -5.85139e-32 0)
(9.18643e-32 -3.90034e-32 0)
(0.0134772 -0.0476177 0)
(0.0291491 -0.0253585 0)
(0.0304784 -0.0125133 0)
(0.0283404 -0.00602111 0)
(0.0259663 -0.00271532 0)
(0.0239876 -0.000985449 0)
(0.022414 -8.09628e-05 0)
(0.021148 0.000367684 0)
(0.0200927 0.000543441 0)
(0.0191745 0.000543679 0)
(0.0183342 0.000420285 0)
(0.0175097 0.000198568 0)
(0.0166054 -0.000112184 0)
(0.0153565 -0.000491722 0)
(0.00910699 -0.000415622 0)
(0.00180944 -6.01455e-11 0)
(2.23175e-08 -1.81971e-31 0)
(1.38054e-31 -4.01274e-32 0)
(0.0246567 -0.0762549 0)
(0.0465908 -0.0246306 0)
(0.0399345 -0.00852568 0)
(0.0332492 -0.00263933 0)
(0.0286799 -0.000210323 0)
(0.0256014 0.000890462 0)
(0.0234098 0.00137759 0)
(0.0217517 0.00155065 0)
(0.0204267 0.0015447 0)
(0.0193105 0.00142805 0)
(0.0183145 0.0012407 0)
(0.0173592 0.00101072 0)
(0.0163395 0.000762533 0)
(0.0150002 0.000516307 0)
(0.00915113 0.000165275 0)
(0.00204974 -4.61399e-11 0)
(4.42494e-08 -1.65948e-31 0)
(3.49282e-31 -4.21041e-32 0)
(0.0593872 0.00390729 0)
(0.0908009 0.00604348 0)
(0.052816 0.00544337 0)
(0.0382202 0.00484584 0)
(0.0310833 0.0043636 0)
(0.0269099 0.00398487 0)
(0.024154 0.00364894 0)
(0.0221619 0.00332813 0)
(0.0206164 0.00301041 0)
(0.0193464 0.0026924 0)
(0.018249 0.00237853 0)
(0.0172497 0.00208325 0)
(0.0162628 0.00183239 0)
(0.0150349 0.00163454 0)
(0.00835299 0.000675028 0)
(0.00119787 -3.24357e-12 0)
(2.77953e-09 -4.83496e-32 0)
(9.29053e-32 -4.44489e-32 0)
(0.0203493 0.0795867 0)
(0.0401276 0.0351401 0)
(0.0367889 0.019552 0)
(0.0317505 0.0128758 0)
(0.0278316 0.00951213 0)
(0.0249716 0.00758592 0)
(0.0228299 0.00635542 0)
(0.0211507 0.00548662 0)
(0.0197732 0.00481399 0)
(0.0186011 0.00424906 0)
(0.0175801 0.00374085 0)
(0.0166834 0.00325658 0)
(0.0158801 0.00276751 0)
(0.0148015 0.00219012 0)
(0.0071074 0.00042968 0)
(5.39276e-05 -4.63244e-18 0)
(4.13215e-16 -4.781e-32 0)
(9.46111e-32 -4.5081e-32 0)
(0.00778553 0.043995 0)
(0.018567 0.0312311 0)
(0.0222612 0.0219258 0)
(0.0227924 0.0160897 0)
(0.0221749 0.0124625 0)
(0.0212015 0.01014 0)
(0.0201525 0.00858063 0)
(0.0191168 0.00746903 0)
(0.0181152 0.00662082 0)
(0.0171421 0.00592546 0)
(0.0161761 0.00530764 0)
(0.0151735 0.00469469 0)
(0.0139805 0.00396617 0)
(0.0093375 0.00222911 0)
(0.00268498 1.23608e-05 0)
(1.1702e-07 7.57258e-18 0)
(3.58667e-29 -4.57996e-32 0)
(1.00726e-31 -4.32774e-32 0)
(0.00432263 0.02802 0)
(0.0113159 0.0236522 0)
(0.0153712 0.0191241 0)
(0.017364 0.0155149 0)
(0.0181414 0.0128877 0)
(0.0182293 0.0110273 0)
(0.0179201 0.00969545 0)
(0.0173781 0.00870131 0)
(0.0166982 0.0079163 0)
(0.0159236 0.0072685 0)
(0.0150375 0.00671761 0)
(0.0139181 0.00618059 0)
(0.0114135 0.00499462 0)
(0.00477717 0.00112172 0)
(1.72904e-06 7.65138e-10 0)
(3.1959e-23 -4.67468e-32 0)
(1.07978e-31 -4.37053e-32 0)
(1.06961e-31 -4.07321e-32 0)
(0.00306871 0.0205132 0)
(0.00840185 0.0184327 0)
(0.0121425 0.0159559 0)
(0.0144944 0.0137684 0)
(0.0158183 0.0120747 0)
(0.016411 0.0108404 0)
(0.0164853 0.00993843 0)
(0.016205 0.00922685 0)
(0.0157095 0.00860069 0)
(0.0150983 0.00802767 0)
(0.0143477 0.00754437 0)
(0.0128352 0.00692008 0)
(0.00588599 0.00260399 0)
(1.21522e-05 5.36692e-08 0)
(3.3121e-19 -3.70359e-32 0)
(1.17177e-31 -4.52407e-32 0)
(1.15118e-31 -4.09918e-32 0)
(1.13057e-31 -3.75869e-32 0)
(0.00247961 0.0156068 0)
(0.00695832 0.014498 0)
(0.010425 0.0131086 0)
(0.0128904 0.0118517 0)
(0.0144928 0.0109072 0)
(0.0153702 0.0102837 0)
(0.0156409 0.00987606 0)
(0.0154397 0.00951562 0)
(0.0149537 0.00904058 0)
(0.0144006 0.00837135 0)
(0.0137036 0.00752403 0)
(0.00675382 0.00358175 0)
(0.000117373 1.97253e-06 0)
(4.61103e-15 1.31553e-19 0)
(1.29633e-31 -4.56417e-32 0)
(1.25178e-31 -4.06101e-32 0)
(1.21582e-31 -3.66015e-32 0)
(1.18475e-31 -3.3348e-32 0)
(0.00216923 0.0120244 0)
(0.00618063 0.0114068 0)
(0.00948081 0.0106416 0)
(0.0120222 0.00999978 0)
(0.0138309 0.00963585 0)
(0.014923 0.00957925 0)
(0.0152982 0.00972046 0)
(0.0150083 0.00980601 0)
(0.014236 0.00951091 0)
(0.0132878 0.00844822 0)
(0.00754946 0.00461698 0)
(0.00114276 6.66191e-05 0)
(5.07855e-10 3.53908e-15 0)
(1.42347e-31 -4.30903e-32 0)
(1.35748e-31 -3.87035e-32 0)
(1.30729e-31 -3.4743e-32 0)
(1.26429e-31 -3.13702e-32 0)
(1.22681e-31 -2.85439e-32 0)
(0.00198917 0.0092316 0)
(0.00572767 0.00888783 0)
(0.00894039 0.0084957 0)
(0.0115724 0.0082577 0)
(0.0135957 0.00833022 0)
(0.0149278 0.00878903 0)
(0.0154138 0.00954696 0)
(0.0149371 0.0102357 0)
(0.0134991 0.0102859 0)
(0.00976847 0.00794522 0)
(0.00349558 0.00100049 0)
(3.10666e-07 2.34146e-11 0)
(1.9674e-27 -4.03738e-32 0)
(1.4595e-31 -3.61386e-32 0)
(1.40096e-31 -3.22812e-32 0)
(1.34741e-31 -2.89281e-32 0)
(1.29996e-31 -2.60844e-32 0)
(1.25814e-31 -2.36953e-32 0)
(0.0018723 0.00697141 0)
(0.005434 0.00678624 0)
(0.0086009 0.00661475 0)
(0.0113378 0.00662553 0)
(0.0136078 0.00699751 0)
(0.0152625 0.00789507 0)
(0.0159575 0.00932788 0)
(0.0153363 0.0107651 0)
(0.0129624 0.0110078 0)
(0.00563582 0.00371998 0)
(5.52475e-06 6.81595e-09 0)
(1.21943e-21 -3.98777e-32 0)
(1.5692e-31 -3.4725e-32 0)
(1.50062e-31 -2.99472e-32 0)
(1.43581e-31 -2.63203e-32 0)
(1.37754e-31 -2.34121e-32 0)
(1.32613e-31 -2.10298e-32 0)
(1.28093e-31 -1.90576e-32 0)
(0.00178476 0.00510577 0)
(0.00521162 0.00501211 0)
(0.00834304 0.0049626 0)
(0.0111795 0.00510274 0)
(0.0137174 0.00563657 0)
(0.015799 0.00685223 0)
(0.0168484 0.00898673 0)
(0.0161293 0.0111711 0)
(0.00795736 0.00600933 0)
(0.000331576 5.56212e-07 0)
(3.57644e-14 3.21026e-22 0)
(1.72075e-31 -3.53724e-32 0)
(1.61971e-31 -2.83138e-32 0)
(1.53554e-31 -2.38273e-32 0)
(1.46278e-31 -2.06514e-32 0)
(1.39965e-31 -1.82334e-32 0)
(1.34479e-31 -1.63123e-32 0)
(1.29695e-31 -1.47479e-32 0)
(0.00170728 0.00355246 0)
(0.00500863 0.00350984 0)
(0.00809078 0.00351829 0)
(0.0109956 0.00369817 0)
(0.0137893 0.00426061 0)
(0.0163947 0.00561871 0)
(0.0179496 0.00844586 0)
(0.013685 0.0121702 0)
(0.0045473 0.000390661 0)
(3.24447e-07 2.45053e-15 0)
(1.78489e-27 -3.60411e-32 0)
(1.77636e-31 -2.71034e-32 0)
(1.65679e-31 -2.14583e-32 0)
(1.56123e-31 -1.78237e-32 0)
(1.48198e-31 -1.53079e-32 0)
(1.41491e-31 -1.3443e-32 0)
(1.35742e-31 -1.19905e-32 0)
(1.30767e-31 -1.08224e-32 0)
(0.00162428 0.0022584 0)
(0.00478182 0.00224247 0)
(0.00777833 0.00226932 0)
(0.0106931 0.00242791 0)
(0.0136791 0.00290387 0)
(0.0168702 0.00416951 0)
(0.0199371 0.00722894 0)
(0.0108003 0.00664199 0)
(0.000126639 1.23402e-09 0)
(4.65076e-17 -3.39656e-32 0)
(1.98989e-31 -2.53361e-32 0)
(1.81351e-31 -1.87651e-32 0)
(1.68123e-31 -1.47351e-32 0)
(1.57805e-31 -1.21514e-32 0)
(1.49436e-31 -1.0383e-32 0)
(1.42458e-31 -9.09036e-33 0)
(1.36532e-31 -8.09546e-33 0)
(1.31432e-31 -7.30178e-33 0)
(0.00150252 0.00119095 0)
(0.00443741 0.00118695 0)
(0.00726388 0.00120912 0)
(0.0100866 0.00131127 0)
(0.0131253 0.00162105 0)
(0.0167067 0.00256889 0)
(0.0181594 0.00603259 0)
(0.00882172 0.00012485 0)
(1.31488e-06 -7.24639e-26 0)
(5.25456e-25 -2.29028e-32 0)
(2.02778e-31 -1.48366e-32 0)
(1.8353e-31 -1.08315e-32 0)
(1.69514e-31 -8.46668e-33 0)
(1.58755e-31 -6.96348e-33 0)
(1.50128e-31 -5.94129e-33 0)
(1.42994e-31 -5.19953e-33 0)
(1.36967e-31 -4.63218e-33 0)
(1.31796e-31 -4.18161e-33 0)
(0.00100333 0.00035545 0)
(0.00298713 0.000355009 0)
(0.00496958 0.000362827 0)
(0.00708287 0.000396879 0)
(0.00958199 0.000503016 0)
(0.0129655 0.000874256 0)
(0.00962201 0.00286186 0)
(0.00214141 3.19786e-08 0)
(1.25595e-10 -5.49311e-33 0)
(2.36807e-31 -7.91598e-33 0)
(2.04621e-31 -4.92049e-33 0)
(1.84464e-31 -3.58581e-33 0)
(1.70095e-31 -2.81814e-33 0)
(1.59148e-31 -2.33299e-33 0)
(1.50413e-31 -2.00408e-33 0)
(1.43214e-31 -1.76613e-33 0)
(1.37145e-31 -1.58461e-33 0)
(1.31945e-31 -1.44073e-33 0)
(5.89949e-34 -1.42263e-33 -1.83801e-59)
(1.77455e-33 -1.42066e-33 1.83407e-59)
(2.96632e-33 -1.41724e-33 0)
(4.1639e-33 -1.41236e-33 0)
(5.36591e-33 -1.406e-33 0)
(6.57091e-33 -1.39817e-33 -1.79934e-59)
(7.77743e-33 -1.38889e-33 0)
(8.98401e-33 -1.37818e-33 0)
(1.01891e-32 -1.36605e-33 0)
(1.13913e-32 -1.35257e-33 0)
(1.25891e-32 -1.33776e-33 1.71416e-59)
(1.37811e-32 -1.3217e-33 0)
(1.49656e-32 -1.30443e-33 0)
(1.61415e-32 -1.28603e-33 0)
(1.73073e-32 -1.26658e-33 0)
(1.84616e-32 -1.24615e-33 1.58881e-59)
(1.96034e-32 -1.22482e-33 0)
(2.07312e-32 -1.20269e-33 0)
(2.18441e-32 -1.17983e-33 0)
(2.29409e-32 -1.15635e-33 0)
(2.40207e-32 -1.13232e-33 0)
(2.50825e-32 -1.10784e-33 0)
(2.61256e-32 -1.083e-33 0)
(2.71492e-32 -1.05787e-33 1.33521e-59)
(2.81527e-32 -1.03254e-33 -1.30129e-59)
(2.91354e-32 -1.00709e-33 1.26725e-59)
(3.00969e-32 -9.81603e-34 1.23316e-59)
(3.10366e-32 -9.56137e-34 0)
(3.19544e-32 -9.30764e-34 0)
(3.28498e-32 -9.05546e-34 -1.13161e-59)
(3.37228e-32 -8.80541e-34 -1.09826e-59)
(3.4573e-32 -8.55801e-34 0)
(3.54005e-32 -8.31374e-34 0)
(3.62053e-32 -8.07303e-34 -1.00068e-59)
(3.69873e-32 -7.83628e-34 0)
(3.77466e-32 -7.60382e-34 0)
(3.84834e-32 -7.37595e-34 9.0789e-60)
(3.91978e-32 -7.15293e-34 0)
(3.98901e-32 -6.93498e-34 8.49235e-60)
(4.05605e-32 -6.72228e-34 1.64191e-59)
(4.12093e-32 -6.51499e-34 0)
(4.18367e-32 -6.3132e-34 0)
(4.24431e-32 -6.11703e-34 0)
(4.3029e-32 -5.92652e-34 0)
(4.35945e-32 -5.7417e-34 0)
(4.41403e-32 -5.5626e-34 1.33369e-59)
(4.46665e-32 -5.38921e-34 1.28762e-59)
(4.51738e-32 -5.22149e-34 1.24307e-59)
(4.56624e-32 -5.05941e-34 0)
(4.61329e-32 -4.90291e-34 -1.15846e-59)
(4.65857e-32 -4.75193e-34 0)
(4.70211e-32 -4.60637e-34 1.07971e-59)
(4.74398e-32 -4.46616e-34 1.04247e-59)
(4.78421e-32 -4.33119e-34 0)
(4.82285e-32 -4.20136e-34 0)
(4.85995e-32 -4.07656e-34 0)
(4.89554e-32 -3.95667e-34 9.07195e-60)
(4.92968e-32 -3.84157e-34 0)
(4.96241e-32 -3.73114e-34 0)
(4.99377e-32 -3.62525e-34 0)
(5.0238e-32 -3.52378e-34 0)
(5.05255e-32 -3.4266e-34 0)
(5.08006e-32 -3.33357e-34 0)
(5.10638e-32 -3.24458e-34 0)
(5.13154e-32 -3.15948e-34 0)
(5.15558e-32 -3.07817e-34 -6.73968e-60)
(5.17854e-32 -3.0005e-34 0)
(5.20046e-32 -2.92635e-34 0)
(5.22138e-32 -2.85561e-34 6.14886e-60)
(5.24134e-32 -2.78815e-34 5.96973e-60)
(5.26036e-32 -2.72384e-34 0)
(5.27849e-32 -2.66258e-34 -5.6364e-60)
(5.29576e-32 -2.60425e-34 5.48153e-60)
(5.3122e-32 -2.54873e-34 0)
(5.32785e-32 -2.49593e-34 -5.19394e-60)
(5.34274e-32 -2.44572e-34 0)
(5.35689e-32 -2.39801e-34 0)
(5.37034e-32 -2.35269e-34 4.81367e-60)
(5.38311e-32 -2.30967e-34 0)
(5.39524e-32 -2.26885e-34 -4.59105e-60)
(5.40676e-32 -2.23013e-34 0)
(5.41767e-32 -2.19343e-34 4.39081e-60)
(5.42803e-32 -2.15867e-34 4.2985e-60)
(5.43784e-32 -2.12574e-34 4.21107e-60)
(5.44713e-32 -2.09458e-34 8.25667e-60)
(5.45592e-32 -2.0651e-34 -8.10009e-60)
(5.46425e-32 -2.03723e-34 0)
(5.47212e-32 -2.01088e-34 0)
(5.47956e-32 -1.986e-34 0)
(5.48659e-32 -1.96252e-34 -7.55528e-60)
(5.49323e-32 -1.94035e-34 -7.43756e-60)
(5.4995e-32 -1.91945e-34 7.32655e-60)
(5.50541e-32 -1.89975e-34 0)
(5.51098e-32 -1.88119e-34 -7.12333e-60)
(5.51623e-32 -1.86372e-34 -7.03048e-60)
(5.52118e-32 -1.84727e-34 -6.94313e-60)
(5.52584e-32 -1.8318e-34 0)
(5.53022e-32 -1.81726e-34 0)
(5.53434e-32 -1.8036e-34 0)
(5.53822e-32 -1.79077e-34 -6.64301e-60)
(5.54186e-32 -1.77874e-34 0)
(5.54527e-32 -1.76744e-34 0)
(5.54848e-32 -1.75686e-34 6.46285e-60)
(5.55148e-32 -1.74694e-34 0)
(5.5543e-32 -1.73766e-34 0)
(5.55694e-32 -1.72896e-34 6.31463e-60)
(5.55941e-32 -1.72084e-34 0)
(5.56173e-32 -1.71324e-34 0)
(5.56389e-32 -1.70614e-34 -6.19335e-60)
(5.56591e-32 -1.69951e-34 -6.15814e-60)
(5.5678e-32 -1.69333e-34 0)
(5.56956e-32 -1.68756e-34 6.09462e-60)
(5.5712e-32 -1.68219e-34 0)
(5.57274e-32 -1.67719e-34 -6.03948e-60)
(5.57416e-32 -1.67253e-34 0)
(5.5755e-32 -1.66819e-34 -5.99167e-60)
(5.57673e-32 -1.66416e-34 -5.97029e-60)
(5.57788e-32 -1.66042e-34 0)
(5.57896e-32 -1.65695e-34 0)
(5.57995e-32 -1.65372e-34 0)
(5.58087e-32 -1.65073e-34 0)
(5.58173e-32 -1.64796e-34 0)
(5.58252e-32 -1.64539e-34 0)
(5.58326e-32 -1.64301e-34 0)
(5.58394e-32 -1.64082e-34 -5.84615e-60)
(5.58457e-32 -1.63879e-34 5.83538e-60)
(5.58515e-32 -1.63691e-34 0)
(5.58569e-32 -1.63518e-34 0)
(5.58619e-32 -1.63358e-34 0)
(5.58665e-32 -1.6321e-34 0)
(5.58707e-32 -1.63074e-34 1.15852e-59)
(5.58746e-32 -1.62949e-34 0)
(5.58782e-32 -1.62834e-34 -1.15597e-59)
(5.58815e-32 -1.62728e-34 1.15484e-59)
(5.58845e-32 -1.6263e-34 0)
(5.58873e-32 -1.6254e-34 0)
(5.58898e-32 -1.62457e-34 0)
(5.58922e-32 -1.62381e-34 -1.15115e-59)
(5.58943e-32 -1.62311e-34 -1.1504e-59)
(5.58962e-32 -1.62246e-34 0)
(5.5898e-32 -1.62186e-34 -1.14908e-59)
(5.58996e-32 -1.62131e-34 -1.14849e-59)
(5.59011e-32 -1.62079e-34 1.14794e-59)
(5.59024e-32 -1.6203e-34 0)
(5.59035e-32 -1.61984e-34 0)
(5.59046e-32 -1.6194e-34 1.14648e-59)
(5.59055e-32 -1.61898e-34 0)
(5.59062e-32 -1.61857e-34 0)
(5.59069e-32 -1.61815e-34 0)
(5.59074e-32 -1.61773e-34 0)
(5.59078e-32 -1.61728e-34 -1.14425e-59)
(5.5908e-32 -1.61681e-34 -1.14376e-59)
(5.5908e-32 -1.61628e-34 0)
(5.59078e-32 -1.6157e-34 -1.14261e-59)
(5.59075e-32 -1.61502e-34 0)
(5.59068e-32 -1.61422e-34 0)
(5.59059e-32 -1.61328e-34 -1.14013e-59)
(5.59045e-32 -1.61213e-34 0)
(5.59027e-32 -1.61073e-34 -1.13753e-59)
(5.59003e-32 -1.60901e-34 0)
(5.58971e-32 -1.60686e-34 0)
(5.5893e-32 -1.60417e-34 -1.13084e-59)
(5.58877e-32 -1.60079e-34 0)
(5.58809e-32 -1.59651e-34 -1.12303e-59)
(5.58721e-32 -1.59106e-34 0)
(5.58609e-32 -1.5841e-34 0)
(5.58464e-32 -1.57515e-34 0)
(5.58276e-32 -1.56358e-34 1.08948e-59)
(5.58034e-32 -1.54851e-34 0)
(5.57718e-32 -1.52872e-34 -1.05397e-59)
(5.57305e-32 -1.50247e-34 0)
(5.56761e-32 -1.46719e-34 0)
(5.56037e-32 -1.41894e-34 0)
(5.55062e-32 -1.35144e-34 0)
(5.53727e-32 -1.25393e-34 0)
(5.51851e-32 -1.10648e-34 0)
(5.49119e-32 -8.6743e-35 0)
(5.44884e-32 -4.3346e-35 -1.32772e-60)
(5.37521e-32 5.26685e-35 0)
(5.21201e-32 3.5373e-34 0)
(5.92977e-34 -3.95109e-33 5.10455e-59)
(1.78364e-33 -3.94513e-33 -5.09263e-59)
(2.98145e-33 -3.93479e-33 0)
(4.18502e-33 -3.92001e-33 1.01132e-58)
(5.39293e-33 -3.90078e-33 0)
(6.6037e-33 -3.87711e-33 -5.00325e-59)
(7.81584e-33 -3.84904e-33 -9.91262e-59)
(9.02783e-33 -3.81664e-33 -9.82313e-59)
(1.02382e-32 -3.77999e-33 0)
(1.14453e-32 -3.73922e-33 -9.61161e-59)
(1.26477e-32 -3.69449e-33 4.76008e-59)
(1.3844e-32 -3.64594e-33 0)
(1.50326e-32 -3.59379e-33 0)
(1.62121e-32 -3.53823e-33 0)
(1.73812e-32 -3.4795e-33 0)
(1.85385e-32 -3.41783e-33 4.39556e-59)
(1.96828e-32 -3.35349e-33 0)
(2.08129e-32 -3.28673e-33 8.39772e-59)
(2.19276e-32 -3.21782e-33 0)
(2.30259e-32 -3.14703e-33 0)
(2.41068e-32 -3.07463e-33 -7.83389e-59)
(2.51695e-32 -3.00089e-33 0)
(2.6213e-32 -2.92606e-33 7.4399e-59)
(2.72368e-32 -2.85041e-33 3.65192e-59)
(2.82401e-32 -2.77418e-33 -3.55221e-59)
(2.92225e-32 -2.69762e-33 3.45209e-59)
(3.01833e-32 -2.62094e-33 3.35185e-59)
(3.11222e-32 -2.54436e-33 0)
(3.20388e-32 -2.46807e-33 0)
(3.2933e-32 -2.39228e-33 -3.05307e-59)
(3.38045e-32 -2.31714e-33 -8.78495e-59)
(3.46531e-32 -2.24281e-33 0)
(3.54789e-32 -2.16944e-33 0)
(3.62818e-32 -2.09716e-33 -2.66768e-59)
(3.70619e-32 -2.02607e-33 0)
(3.78192e-32 -1.95629e-33 0)
(3.85539e-32 -1.8879e-33 2.39454e-59)
(3.92663e-32 -1.82097e-33 0)
(3.99564e-32 -1.75558e-33 6.57126e-59)
(4.06246e-32 -1.69177e-33 4.27721e-59)
(4.12712e-32 -1.62959e-33 0)
(4.18964e-32 -1.56907e-33 0)
(4.25007e-32 -1.51024e-33 -7.40639e-59)
(4.30844e-32 -1.45311e-33 -7.10554e-59)
(4.36478e-32 -1.3977e-33 -6.81374e-59)
(4.41915e-32 -1.34401e-33 9.90085e-59)
(4.47157e-32 -1.29203e-33 3.23424e-59)
(4.52209e-32 -1.24175e-33 -2.88955e-59)
(4.57075e-32 -1.19317e-33 5.7369e-59)
(4.61761e-32 -1.14627e-33 -2.85401e-59)
(4.6627e-32 -1.10102e-33 0)
(4.70606e-32 -1.0574e-33 2.6222e-59)
(4.74775e-32 -1.01538e-33 7.31361e-59)
(4.78781e-32 -9.74934e-34 0)
(4.82629e-32 -9.36032e-34 0)
(4.86322e-32 -8.98637e-34 0)
(4.89866e-32 -8.62714e-34 2.11441e-59)
(4.93264e-32 -8.28229e-34 0)
(4.96523e-32 -7.95143e-34 3.64188e-59)
(4.99644e-32 -7.63418e-34 0)
(5.02634e-32 -7.33018e-34 3.31493e-59)
(5.05497e-32 -7.03903e-34 0)
(5.08236e-32 -6.76034e-34 -3.01504e-59)
(5.10855e-32 -6.49373e-34 0)
(5.1336e-32 -6.23881e-34 2.74058e-59)
(5.15753e-32 -5.99521e-34 -4.04034e-59)
(5.18039e-32 -5.76253e-34 0)
(5.20221e-32 -5.54042e-34 -2.37305e-59)
(5.22304e-32 -5.3285e-34 1.25407e-59)
(5.2429e-32 -5.1264e-34 1.20136e-59)
(5.26184e-32 -4.93377e-34 0)
(5.27989e-32 -4.75026e-34 -3.06047e-59)
(5.29708e-32 -4.57552e-34 1.05768e-59)
(5.31345e-32 -4.40922e-34 0)
(5.32902e-32 -4.25103e-34 -9.7305e-60)
(5.34384e-32 -4.10063e-34 -1.61532e-59)
(5.35793e-32 -3.95771e-34 0)
(5.37132e-32 -3.82196e-34 8.61141e-60)
(5.38404e-32 -3.69309e-34 0)
(5.39611e-32 -3.57081e-34 5.40833e-60)
(5.40757e-32 -3.45484e-34 0)
(5.41844e-32 -3.34491e-34 -4.80859e-60)
(5.42875e-32 -3.24075e-34 7.09546e-60)
(5.43851e-32 -3.14213e-34 1.79466e-59)
(5.44776e-32 -3.04878e-34 3.44236e-59)
(5.45652e-32 -2.96047e-34 -3.30333e-59)
(5.4648e-32 -2.87698e-34 0)
(5.47264e-32 -2.79807e-34 0)
(5.48005e-32 -2.72354e-34 0)
(5.48705e-32 -2.65318e-34 5.94384e-60)
(5.49366e-32 -2.58679e-34 -1.07793e-59)
(5.4999e-32 -2.52418e-34 1.04527e-59)
(5.50578e-32 -2.46516e-34 0)
(5.51133e-32 -2.40957e-34 -2.43596e-59)
(5.51656e-32 -2.35722e-34 -9.58167e-60)
(5.52149e-32 -2.30795e-34 -9.32466e-60)
(5.52612e-32 -2.26162e-34 0)
(5.53049e-32 -2.21806e-34 0)
(5.53459e-32 -2.17714e-34 0)
(5.53845e-32 -2.13871e-34 -8.4417e-60)
(5.54207e-32 -2.10265e-34 0)
(5.54547e-32 -2.06882e-34 -1.09172e-59)
(5.54866e-32 -2.03712e-34 -2.67162e-60)
(5.55165e-32 -2.00741e-34 1.02704e-59)
(5.55446e-32 -1.97959e-34 0)
(5.55709e-32 -1.95355e-34 1.7179e-59)
(5.55955e-32 -1.9292e-34 0)
(5.56185e-32 -1.90644e-34 9.20722e-60)
(5.564e-32 -1.88518e-34 -1.61022e-59)
(5.56602e-32 -1.86533e-34 -1.57896e-59)
(5.5679e-32 -1.84681e-34 0)
(5.56965e-32 -1.82953e-34 -1.56872e-60)
(5.57129e-32 -1.81343e-34 8.22775e-60)
(5.57281e-32 -1.79844e-34 -6.66631e-60)
(5.57424e-32 -1.78448e-34 0)
(5.57556e-32 -1.7715e-34 -6.52572e-60)
(5.57679e-32 -1.75943e-34 1.19614e-60)
(5.57794e-32 -1.74822e-34 0)
(5.57901e-32 -1.7378e-34 7.43115e-60)
(5.58e-32 -1.72814e-34 7.32936e-60)
(5.58092e-32 -1.71918e-34 7.23498e-60)
(5.58177e-32 -1.71088e-34 0)
(5.58256e-32 -1.70319e-34 0)
(5.58329e-32 -1.69607e-34 0)
(5.58397e-32 -1.68949e-34 -1.30199e-59)
(5.5846e-32 -1.6834e-34 6.06602e-60)
(5.58518e-32 -1.67778e-34 0)
(5.58571e-32 -1.67259e-34 -6.74415e-60)
(5.58621e-32 -1.6678e-34 -6.69368e-60)
(5.58667e-32 -1.66338e-34 0)
(5.58709e-32 -1.65931e-34 1.18806e-59)
(5.58748e-32 -1.65556e-34 -1.31295e-59)
(5.58783e-32 -1.6521e-34 -1.18054e-59)
(5.58816e-32 -1.64893e-34 2.47619e-59)
(5.58846e-32 -1.646e-34 0)
(5.58874e-32 -1.64331e-34 0)
(5.58899e-32 -1.64083e-34 0)
(5.58923e-32 -1.63854e-34 -1.16638e-59)
(5.58944e-32 -1.63644e-34 -2.43686e-59)
(5.58963e-32 -1.6345e-34 -1.26859e-59)
(5.58981e-32 -1.6327e-34 -1.16029e-59)
(5.58997e-32 -1.63103e-34 -2.41985e-59)
(5.59011e-32 -1.62948e-34 1.15693e-59)
(5.59024e-32 -1.62803e-34 0)
(5.59036e-32 -1.62665e-34 0)
(5.59046e-32 -1.62534e-34 2.40195e-59)
(5.59055e-32 -1.62407e-34 0)
(5.59063e-32 -1.62283e-34 0)
(5.59069e-32 -1.62159e-34 -1.24149e-59)
(5.59074e-32 -1.62032e-34 0)
(5.59078e-32 -1.61899e-34 -2.38211e-59)
(5.5908e-32 -1.61757e-34 -1.14455e-59)
(5.59081e-32 -1.61601e-34 0)
(5.59079e-32 -1.61425e-34 -2.36739e-59)
(5.59076e-32 -1.61223e-34 0)
(5.59069e-32 -1.60985e-34 0)
(5.5906e-32 -1.60703e-34 -1.13366e-59)
(5.59047e-32 -1.60361e-34 -1.20439e-59)
(5.59029e-32 -1.59943e-34 -1.12584e-59)
(5.59005e-32 -1.59427e-34 0)
(5.58974e-32 -1.58787e-34 0)
(5.58933e-32 -1.57984e-34 -2.26135e-59)
(5.58881e-32 -1.56974e-34 0)
(5.58814e-32 -1.55696e-34 -2.19094e-59)
(5.58728e-32 -1.54071e-34 0)
(5.58617e-32 -1.51993e-34 0)
(5.58474e-32 -1.49324e-34 0)
(5.5829e-32 -1.45872e-34 9.8105e-60)
(5.58051e-32 -1.4138e-34 0)
(5.57741e-32 -1.35483e-34 -8.74151e-60)
(5.57335e-32 -1.27666e-34 0)
(5.56801e-32 -1.17167e-34 0)
(5.56093e-32 -1.02829e-34 -2.58224e-61)
(5.55141e-32 -8.28062e-35 -3.84644e-60)
(5.53842e-32 -5.39739e-35 0)
(5.52031e-32 -1.06059e-35 0)
(5.49429e-32 5.89835e-35 0)
(5.45518e-32 1.8245e-34 6.86398e-59)
(5.39304e-32 4.39996e-34 0)
(5.29501e-32 1.1338e-33 -5.0893e-58)
(5.99114e-34 -6.49914e-33 3.35926e-58)
(1.80205e-33 -6.48904e-33 -4.28939e-62)
(3.0121e-33 -6.47152e-33 0)
(4.22781e-33 -6.44648e-33 1.00162e-61)
(5.44765e-33 -6.4139e-33 0)
(6.6701e-33 -6.3738e-33 0)
(7.89358e-33 -6.32626e-33 -3.26127e-58)
(9.11652e-33 -6.27139e-33 -1.61681e-58)
(1.03373e-32 -6.20936e-33 1.59775e-58)
(1.15544e-32 -6.14038e-33 -1.58179e-58)
(1.27662e-32 -6.06471e-33 0)
(1.39712e-32 -5.98264e-33 0)
(1.51678e-32 -5.89452e-33 -1.51295e-58)
(1.63547e-32 -5.8007e-33 -2.97571e-58)
(1.75304e-32 -5.70157e-33 2.9228e-58)
(1.86936e-32 -5.59756e-33 0)
(1.98431e-32 -5.48909e-33 2.80967e-58)
(2.09775e-32 -5.37662e-33 1.37992e-58)
(2.20959e-32 -5.2606e-33 0)
(2.31971e-32 -5.14148e-33 2.62521e-58)
(2.42802e-32 -5.01973e-33 -1.2861e-58)
(2.53444e-32 -4.8958e-33 -2.49516e-58)
(2.63889e-32 -4.77014e-33 1.22059e-58)
(2.74129e-32 -4.64316e-33 0)
(2.84159e-32 -4.51529e-33 2.29409e-58)
(2.93973e-32 -4.38693e-33 2.22634e-58)
(3.03567e-32 -4.25845e-33 0)
(3.12938e-32 -4.1302e-33 2.09093e-58)
(3.22082e-32 -4.00253e-33 0)
(3.30998e-32 -3.87572e-33 1.95681e-58)
(3.39683e-32 -3.75008e-33 -9.53332e-59)
(3.48137e-32 -3.62585e-33 0)
(3.56359e-32 -3.50328e-33 0)
(3.64351e-32 -3.38257e-33 0)
(3.72113e-32 -3.26391e-33 0)
(3.79645e-32 -3.14747e-33 0)
(3.86951e-32 -3.03338e-33 0)
(3.94032e-32 -2.92178e-33 1.4547e-58)
(4.0089e-32 -2.81276e-33 -6.89219e-59)
(4.07528e-32 -2.70642e-33 0)
(4.1395e-32 -2.60281e-33 0)
(4.20159e-32 -2.502e-33 0)
(4.26158e-32 -2.40403e-33 -2.38508e-58)
(4.31952e-32 -2.30891e-33 -1.15288e-58)
(4.37544e-32 -2.21666e-33 -2.06626e-60)
(4.42938e-32 -2.12729e-33 2.09171e-60)
(4.48138e-32 -2.04078e-33 -9.91575e-59)
(4.5315e-32 -1.95713e-33 -9.69017e-59)
(4.57977e-32 -1.87631e-33 1.83192e-58)
(4.62624e-32 -1.79828e-33 8.64152e-59)
(4.67095e-32 -1.72301e-33 0)
(4.71395e-32 -1.65047e-33 7.86493e-59)
(4.75528e-32 -1.58059e-33 1.52202e-58)
(4.795e-32 -1.51334e-33 0)
(4.83314e-32 -1.44866e-33 0)
(4.86975e-32 -1.38648e-33 -6.4781e-59)
(4.90487e-32 -1.32676e-33 0)
(4.93856e-32 -1.26944e-33 0)
(4.97085e-32 -1.21444e-33 1.69577e-58)
(5.00179e-32 -1.1617e-33 1.05946e-58)
(5.03142e-32 -1.11117e-33 5.26947e-59)
(5.05979e-32 -1.06278e-33 0)
(5.08693e-32 -1.01646e-33 -4.77457e-59)
(5.11289e-32 -9.7215e-34 0)
(5.13771e-32 -9.29784e-34 1.24798e-58)
(5.16143e-32 -8.89299e-34 -4.11013e-59)
(5.18408e-32 -8.50631e-34 -7.32658e-59)
(5.2057e-32 -8.1372e-34 -1.0654e-58)
(5.22634e-32 -7.78502e-34 0)
(5.24602e-32 -7.44917e-34 6.21597e-59)
(5.26479e-32 -7.12906e-34 0)
(5.28267e-32 -6.8241e-34 2.53021e-59)
(5.29971e-32 -6.53373e-34 5.25423e-59)
(5.31593e-32 -6.25739e-34 4.96391e-59)
(5.33136e-32 -5.99452e-34 -4.68773e-59)
(5.34605e-32 -5.74459e-34 1.96014e-59)
(5.36001e-32 -5.5071e-34 0)
(5.37327e-32 -5.28152e-34 0)
(5.38588e-32 -5.06737e-34 -3.71365e-59)
(5.39784e-32 -4.86418e-34 -1.4952e-59)