/*--------------------------------*- C++ -*----------------------------------*\
  =========                 |
  \\      /  F ield         | OpenFOAM: The Open Source CFD Toolbox
   \\    /   O peration     | Website:  https://openfoam.org
    \\  /    A nd           | Version:  10
     \\/     M anipulation  |
\*---------------------------------------------------------------------------*/
FoamFile
{
    format      ascii;
    class       volScalarField;
    location    "0.029";
    object      T;
}
// * * * * * * * * * * * * * * * * * * * * * * * * * * * * * * * * * * * * * //

dimensions      [0 0 0 1 0 0 0];

internalField   nonuniform List<scalar> 
12225
(
1.00078
0.99983
1.00012
1.00011
1.00018
1.00045
1.00048
1.00029
1.00023
1.00035
1.00041
1.00029
1.00001
0.999497
0.998575
0.996516
0.991365
0.980112
1.00003
0.999827
1.00006
1.00005
1.00011
1.00041
1.0005
1.00033
1.00022
1.0003
1.00037
1.00027
1
0.9995
0.998573
0.996611
0.992032
0.982342
0.999764
1.00012
1.00024
1.00008
1.0001
1.00037
1.00045
1.00029
1.0002
1.00026
1.0003
1.0002
0.999987
0.999571
0.998745
0.996987
0.993011
0.985206
1.00007
1.00003
1.00016
1.0001
1.00011
1.00032
1.0004
1.00028
1.00022
1.00029
1.00035
1.00027
1.00006
0.999651
0.998841
0.997243
0.993949
0.987952
1.00009
1.00028
1.00054
1.00023
1.00008
1.00033
1.00048
1.00036
1.00024
1.00024
1.00026
1.00017
0.99998
0.999637
0.998974
0.997686
0.995109
0.990579
0.999792
1.00009
1.00049
1.00028
1.00011
1.00027
1.00034
1.00022
1.00017
1.00023
1.00029
1.00023
1.00007
0.999763
0.999187
0.998104
0.996079
0.99268
0.999775
1.00037
1.00097
1.00049
1.00007
1.00026
1.00043
1.00036
1.00027
1.00024
1.00022
1.00014
0.999981
0.999731
0.999272
0.998421
0.996889
0.99437
1.00009
1.00051
1.00094
1.00043
1.00008
1.00025
1.00031
1.00018
1.00011
1.00016
1.00022
1.00019
1.00008
0.999872
0.999501
0.998828
0.997672
0.995821
0.998855
1.00088
1.00126
1.00046
0.999973
1.00016
1.00035
1.00032
1.00025
1.00023
1.00019
1.0001
0.999981
0.999818
0.999539
0.999038
0.998193
0.996851
0.999599
1.00093
1.00109
1.00044
1.00005
1.00017
1.00024
1.0001
1.00002
1.00007
1.00012
1.00012
1.00007
0.999968
0.99977
0.999402
0.998784
0.997834
0.998572
1.0006
1.00111
1.00033
0.999871
1.00008
1.00029
1.00025
1.00019
1.00019
1.00017
1.00008
0.999979
0.999866
0.999702
0.999431
0.998986
0.998327
1.00011
1.00078
1.00092
1.00036
0.999945
1.00006
1.00014
1.00001
0.999936
0.99998
1.00005
1.00008
1.00006
1.00001
0.999916
0.999729
0.999424
0.99895
0.998767
1.00066
1.00065
1.00025
0.999877
1.00001
1.00019
1.00015
1.0001
1.0001
1.00009
1.00003
0.999964
0.999901
0.999824
0.999687
0.99947
0.999139
1.00051
1.00017
0.999747
0.999892
0.999828
0.999884
0.999944
0.999883
0.999843
0.999891
0.999963
1.00001
1.00002
1.00001
0.999966
0.999899
0.999752
0.999572
0.999766
0.999123
0.99988
1.00044
1.00028
1.00009
1.00006
1.00008
1.00009
1.00008
1.00006
1.00003
0.999989
0.999941
0.999886
0.999829
0.999727
0.999607
1.00358
1.00016
0.999478
0.999135
0.999199
0.999422
0.999583
0.999723
0.999825
0.999862
0.999894
0.999955
1.00002
1.00006
1.00008
1.00007
1.00005
0.999994
0.998925
0.998094
0.998226
0.999189
0.999912
1.00019
1.00014
1.00005
1.00001
0.999986
0.999977
0.999982
0.999971
0.999952
0.999936
0.999929
0.999915
0.999899
1.00101
1.00005
0.999707
0.999502
0.99937
0.999427
0.999517
0.999607
0.999723
0.999867
0.999985
1.00004
1.00005
1.00008
1.00012
1.00016
1.00018
1.0002
0.998494
0.999983
1.00047
1.00037
1.00058
1.00076
1.00072
1.00065
1.0006
1.00057
1.00057
1.00057
1.00056
1.00054
1.00052
1.00048
1.00044
1.0004
1.00062
1.00247
1.00239
1.0013
1.00084
1.00062
1.00051
1.00048
1.00044
1.00037
1.00033
1.00029
1.00027
1.00028
1.0003
1.00033
1.00036
1.00039
0.998269
1.00068
1.00172
1.00135
1.00105
1.0009
1.00092
1.00096
1.0009
1.00081
1.00078
1.00078
1.00077
1.00074
1.0007
1.00066
1.00062
1.00058
0.998786
1.00001
1.00127
1.00127
1.00067
1.00056
1.00073
1.00068
1.00053
1.00052
1.00055
1.00053
1.0005
1.00048
1.00048
1.0005
1.00051
1.00052
1.00022
0.999391
1.00003
1.00066
1.00056
1.00055
1.0007
1.00072
1.0007
1.00075
1.0008
1.00075
1.00068
1.00066
1.00066
1.00065
1.00061
1.00058
0.999903
0.9998
1.00049
1.0009
1.00068
1.00055
1.00061
1.00063
1.00057
1.00052
1.0005
1.00048
1.00049
1.00052
1.00054
1.00056
1.00057
1.00058
0.999794
1.00045
1.0005
1.00049
1.00033
1.00028
1.00045
1.00062
1.00068
1.00069
1.00069
1.00067
1.00066
1.00067
1.00065
1.00062
1.00059
1.00057
0.998757
1.00083
1.00083
1.0007
1.00059
1.00055
1.00064
1.00065
1.00058
1.00054
1.00056
1.00058
1.00056
1.00056
1.00057
1.0006
1.00063
1.00065
0.99936
1.00107
1.00082
1.00038
1.0003
1.00037
1.00054
1.00062
1.00059
1.00058
1.00065
1.00072
1.00072
1.00068
1.00063
1.00059
1.00056
1.00055
0.999242
1.00085
1.00085
1.00061
1.0006
1.0006
1.00064
1.00063
1.00055
1.00049
1.00051
1.00055
1.00057
1.00057
1.00058
1.00059
1.0006
1.00061
0.998611
1.00033
1.00053
1.00047
1.00051
1.00054
1.00059
1.0006
1.00056
1.00055
1.00062
1.00068
1.0007
1.00066
1.00061
1.00055
1.00052
1.00052
0.999703
1.00021
1.00065
1.00068
1.00061
1.00057
1.0006
1.0006
1.00054
1.00053
1.0006
1.00068
1.00071
1.00067
1.00061
1.00057
1.00054
1.00058
0.578535
0.578561
0.57836
0.577949
0.57787
0.578112
0.578253
0.578388
0.578328
0.577824
0.57698
0.575971
0.574874
0.573704
0.572455
0.571119
0.569692
0.568173
0.566564
0.564865
0.563085
0.561213
0.559253
0.557193
0.555043
0.552848
0.550597
0.548241
0.545759
0.543131
0.540325
0.537249
0.533577
0.528538
0.521871
0.514205
0.506071
0.498312
0.490632
0.483426
0.476564
0.469353
0.463548
0.458117
0.452879
0.448507
0.445167
0.442921
0.440629
0.438649
0.438119
0.439281
0.443227
0.447639
0.451054
0.45392
0.456737
0.459701
0.462718
0.465714
0.468642
0.471485
0.474247
0.476946
0.479597
0.482218
0.484825
0.487428
0.490034
0.492652
0.495285
0.497937
0.500607
0.503299
0.506016
0.508773
0.511556
0.514354
0.517174
0.520015
0.522874
0.525752
0.528644
0.531549
0.534463
0.537384
0.540309
0.543238
0.546168
0.549103
0.552042
0.554985
0.557929
0.560876
0.563825
0.566761
0.569649
0.572458
0.575189
0.577857
0.580423
0.582791
0.584928
0.586936
0.588792
0.590207
0.591274
0.592214
0.593001
0.593716
0.59464
0.596336
0.598667
0.598039
0.59168
0.585315
0.581308
0.573399
0.561815
0.547474
0.528235
0.504103
0.475126
0.441552
0.405307
0.369479
0.337282
0.31129
0.293091
0.283006
0.280081
0.282501
0.288194
0.295378
0.302878
0.310134
0.31703
0.323659
0.330141
0.336538
0.342934
0.349337
0.355612
0.361539
0.366883
0.371609
0.375828
0.379701
0.383457
0.387376
0.391322
0.394468
0.396687
0.39818
0.399005
0.399206
0.398801
0.397768
0.396072
0.393687
0.390546
0.386621
0.381964
0.37646
0.370077
0.36311
0.355426
0.347047
0.338902
0.330973
0.323004
0.316206
0.310704
0.304442
0.297652
0.2931
0.289394
0.280695
0.268186
0.256438
0.579471
0.579475
0.57943
0.579028
0.57885
0.579017
0.579297
0.57927
0.578809
0.577983
0.576951
0.575832
0.574665
0.573442
0.572146
0.570761
0.569281
0.567705
0.566038
0.564292
0.562471
0.560585
0.558624
0.556579
0.55442
0.552085
0.549593
0.546981
0.544265
0.541445
0.538515
0.535416
0.531992
0.527627
0.522028
0.515787
0.508578
0.500511
0.492611
0.485437
0.477875
0.470524
0.464147
0.458446
0.452825
0.447602
0.444151
0.43972
0.438128
0.438503
0.437741
0.437731
0.441873
0.446712
0.44999
0.452662
0.45538
0.45824
0.461176
0.464118
0.467023
0.469863
0.472635
0.475343
0.477999
0.48062
0.48322
0.485814
0.488412
0.491023
0.493654
0.496312
0.499002
0.501729
0.504485
0.507253
0.510041
0.512861
0.51571
0.51859
0.521499
0.524435
0.527393
0.530367
0.533353
0.536343
0.539332
0.542316
0.545296
0.548274
0.551254
0.554244
0.55725
0.560277
0.563329
0.566393
0.569436
0.572423
0.575343
0.578201
0.580966
0.583547
0.585886
0.588068
0.590147
0.591874
0.593104
0.593969
0.594476
0.594745
0.595477
0.597033
0.598946
0.59819
0.591931
0.584882
0.580375
0.573733
0.562774
0.547611
0.527544
0.502909
0.473476
0.439496
0.403114
0.367449
0.335604
0.310095
0.292384
0.28267
0.279949
0.282407
0.288008
0.295021
0.302321
0.309387
0.316131
0.322675
0.329173
0.3357
0.342238
0.348816
0.355382
0.361686
0.367415
0.372492
0.377053
0.38129
0.385429
0.389711
0.393931
0.397199
0.399469
0.400955
0.40173
0.401855
0.401361
0.400233
0.39845
0.39598
0.392755
0.388772
0.384079
0.378513
0.372068
0.365085
0.357341
0.348855
0.340723
0.332873
0.324918
0.318285
0.313098
0.307078
0.300429
0.29566
0.291419
0.282705
0.271348
0.259903
0.584231
0.584339
0.584276
0.584259
0.583961
0.58348
0.582783
0.581834
0.580747
0.579636
0.578538
0.577416
0.576218
0.574909
0.573479
0.571927
0.570255
0.568465
0.566559
0.564542
0.562427
0.560234
0.557986
0.555712
0.553406
0.551025
0.548495
0.545756
0.542795
0.539657
0.536371
0.532925
0.529316
0.525357
0.520885
0.515861
0.509907
0.503139
0.49586
0.488259
0.480546
0.472783
0.465828
0.460132
0.453905
0.449174
0.445063
0.441626
0.43789
0.438236
0.43895
0.439882
0.442121
0.444746
0.447295
0.450041
0.45307
0.456266
0.459495
0.462629
0.465617
0.468444
0.471136
0.473725
0.476242
0.478718
0.481171
0.483622
0.486081
0.48856
0.491065
0.493604
0.496186
0.498819
0.501505
0.504241
0.507031
0.509874
0.512767
0.51571
0.518699
0.521729
0.524796
0.527891
0.531009
0.534142
0.537287
0.540438
0.543596
0.546762
0.549937
0.553127
0.556338
0.559578
0.562851
0.566151
0.569451
0.572718
0.575926
0.579061
0.582097
0.584996
0.587724
0.590266
0.59258
0.594595
0.596234
0.597345
0.597757
0.597687
0.598106
0.599533
0.601129
0.599782
0.593399
0.586035
0.581136
0.575269
0.564173
0.547642
0.526313
0.500384
0.469824
0.435438
0.39936
0.364418
0.333455
0.308724
0.291546
0.282101
0.279449
0.281864
0.28738
0.294303
0.301508
0.308461
0.315067
0.321452
0.327791
0.334216
0.340817
0.347686
0.354764
0.361752
0.368188
0.373923
0.379133
0.384078
0.388992
0.394026
0.398773
0.402386
0.404841
0.406366
0.40707
0.407054
0.406385
0.405078
0.403107
0.400458
0.397087
0.392943
0.388082
0.382427
0.375862
0.368663
0.360827
0.352288
0.343921
0.336166
0.328687
0.322231
0.317307
0.31202
0.306021
0.301082
0.296462
0.288395
0.277447
0.265413
0.588953
0.589189
0.58953
0.589121
0.588289
0.587494
0.58685
0.586228
0.585475
0.584545
0.583452
0.582205
0.580791
0.579196
0.577424
0.575493
0.573422
0.571232
0.56894
0.566562
0.564107
0.561583
0.558993
0.556339
0.553644
0.550959
0.548259
0.545453
0.542466
0.539232
0.535746
0.532011
0.528039
0.523867
0.519481
0.51478
0.509583
0.503912
0.497524
0.490407
0.483109
0.475234
0.468243
0.461445
0.455026
0.450581
0.445678
0.442497
0.440367
0.43925
0.439007
0.439892
0.441841
0.444334
0.446988
0.449753
0.452608
0.455493
0.458332
0.461069
0.463683
0.466178
0.468572
0.470895
0.473175
0.475439
0.477705
0.479988
0.482298
0.484642
0.487025
0.489455
0.491943
0.494503
0.497145
0.49986
0.502649
0.505519
0.508472
0.511506
0.514616
0.517795
0.521031
0.524311
0.527624
0.530955
0.534297
0.537644
0.540996
0.544358
0.547735
0.551137
0.554576
0.558066
0.561621
0.565236
0.56889
0.572539
0.576136
0.579644
0.583036
0.586314
0.58949
0.592542
0.595325
0.597734
0.599897
0.601797
0.602765
0.602679
0.602544
0.603394
0.604548
0.602612
0.595551
0.587613
0.582067
0.575636
0.564176
0.547018
0.524622
0.497696
0.466683
0.432478
0.397016
0.362903
0.332715
0.308494
0.291509
0.282009
0.279177
0.281396
0.286738
0.293498
0.300511
0.307216
0.31351
0.31953
0.325513
0.331733
0.338356
0.34546
0.353123
0.361055
0.368568
0.375336
0.381542
0.387564
0.39367
0.399839
0.405361
0.409552
0.412358
0.414023
0.414718
0.41458
0.413709
0.412156
0.409921
0.407
0.403366
0.398976
0.393874
0.387995
0.381216
0.373759
0.365692
0.356998
0.348518
0.340903
0.333931
0.328034
0.323734
0.319201
0.313701
0.308765
0.303751
0.295553
0.284408
0.272208
0.596376
0.59673
0.596114
0.595257
0.594716
0.594192
0.593461
0.592613
0.591644
0.590451
0.588963
0.587175
0.585116
0.582829
0.580351
0.577716
0.574945
0.572059
0.569084
0.566054
0.563011
0.560001
0.557066
0.554257
0.551598
0.549033
0.546515
0.543993
0.541333
0.538352
0.53494
0.531113
0.526908
0.522426
0.517804
0.513107
0.508227
0.503042
0.497242
0.490908
0.484175
0.476815
0.470011
0.462806
0.456791
0.451641
0.447908
0.443183
0.440283
0.438745
0.438572
0.43967
0.441697
0.444176
0.446713
0.449188
0.451566
0.45388
0.456143
0.458372
0.460558
0.462707
0.464819
0.466909
0.468988
0.471071
0.473167
0.475287
0.477437
0.479626
0.481865
0.484168
0.486549
0.489021
0.491591
0.494263
0.497047
0.499954
0.502989
0.506151
0.509432
0.512819
0.516295
0.519838
0.523427
0.52704
0.53066
0.534278
0.537891
0.541504
0.545131
0.54879
0.552505
0.556305
0.560216
0.56425
0.568391
0.572582
0.576733
0.58077
0.584642
0.588357
0.591937
0.595396
0.598587
0.60136
0.603612
0.605752
0.607352
0.60763
0.607357
0.60796
0.608879
0.606742
0.599386
0.590726
0.584005
0.576538
0.564469
0.546404
0.523071
0.495772
0.464896
0.431153
0.39639
0.363047
0.333428
0.309417
0.292283
0.282413
0.279168
0.281028
0.286064
0.29251
0.299137
0.305335
0.310981
0.316281
0.321618
0.327401
0.333826
0.341009
0.349325
0.358576
0.367687
0.375955
0.383513
0.390953
0.398639
0.406349
0.413065
0.418118
0.421414
0.423269
0.423969
0.423724
0.422677
0.4209
0.418397
0.415176
0.411241
0.406558
0.401144
0.394975
0.387936
0.380142
0.371752
0.362877
0.354323
0.346948
0.340703
0.335701
0.332233
0.328549
0.323672
0.318811
0.313183
0.304437
0.292972
0.28006
0.604978
0.604515
0.603162
0.602454
0.601825
0.601066
0.600054
0.598692
0.596994
0.595031
0.592836
0.590408
0.58774
0.58484
0.581731
0.578444
0.575011
0.571474
0.56788
0.564279
0.560727
0.557281
0.55401
0.550966
0.548205
0.545666
0.54317
0.540586
0.537889
0.535045
0.531891
0.528296
0.524287
0.519939
0.515306
0.510531
0.505706
0.500721
0.495376
0.489594
0.483072
0.476212
0.469313
0.462235
0.455986
0.450855
0.446116
0.441725
0.439164
0.437891
0.437974
0.439111
0.440882
0.44294
0.445031
0.447069
0.449045
0.451002
0.452962
0.454939
0.456912
0.458866
0.460782
0.462661
0.464505
0.46633
0.468153
0.469996
0.471879
0.47383
0.475868
0.478012
0.480262
0.48261
0.485077
0.487707
0.490517
0.493509
0.496679
0.50002
0.50352
0.507162
0.510923
0.51477
0.518673
0.522602
0.526532
0.530446
0.534339
0.538217
0.542105
0.546042
0.550068
0.554223
0.558538
0.56303
0.567695
0.572476
0.577261
0.581945
0.586445
0.590763
0.594898
0.598893
0.602665
0.606058
0.608625
0.610594
0.612503
0.613304
0.613009
0.613313
0.613919
0.611488
0.603835
0.594353
0.586466
0.577826
0.564825
0.545906
0.522181
0.495051
0.464601
0.431455
0.397493
0.364894
0.335623
0.311485
0.293824
0.283243
0.279303
0.280572
0.285095
0.291007
0.29697
0.302313
0.306988
0.311422
0.316186
0.3216
0.327752
0.335055
0.344234
0.355184
0.366286
0.376398
0.385517
0.394474
0.40378
0.41316
0.421486
0.427791
0.431861
0.434065
0.43482
0.434444
0.433163
0.431101
0.428283
0.424718
0.420428
0.415401
0.409636
0.403115
0.395735
0.387528
0.378728
0.369621
0.361059
0.354167
0.348987
0.345101
0.342629
0.339966
0.335641
0.330546
0.324466
0.315205
0.303241
0.289263
0.610646
0.609995
0.609401
0.609128
0.608477
0.607147
0.605412
0.603453
0.601266
0.598825
0.596053
0.592854
0.589195
0.585129
0.580777
0.576274
0.571739
0.567263
0.56293
0.558815
0.554969
0.551453
0.548295
0.545418
0.542842
0.540536
0.538266
0.535837
0.533233
0.530511
0.52754
0.524055
0.520019
0.515689
0.511218
0.506662
0.502076
0.497326
0.492215
0.486583
0.480368
0.474013
0.467124
0.460515
0.454451
0.449442
0.444176
0.440199
0.43796
0.436851
0.436902
0.43776
0.439086
0.440698
0.442433
0.444246
0.446104
0.447988
0.449859
0.451685
0.453431
0.455083
0.456637
0.458114
0.45954
0.460957
0.462403
0.463918
0.465534
0.467279
0.46917
0.471209
0.473373
0.475668
0.478156
0.480859
0.483773
0.486889
0.490199
0.493694
0.497365
0.501194
0.505161
0.50924
0.513398
0.517605
0.521835
0.526075
0.530324
0.53459
0.538885
0.543235
0.547666
0.552207
0.556895
0.561771
0.566876
0.57218
0.577545
0.582829
0.587915
0.592809
0.597496
0.602085
0.606631
0.610842
0.614358
0.616566
0.618486
0.619843
0.619593
0.619374
0.619457
0.616506
0.60845
0.598159
0.589083
0.579331
0.565394
0.545881
0.522203
0.495593
0.465762
0.433377
0.400356
0.368429
0.339194
0.314512
0.295947
0.284337
0.279452
0.279934
0.283747
0.288866
0.293839
0.298044
0.301651
0.305331
0.309769
0.315159
0.321398
0.329173
0.339502
0.352287
0.365472
0.377602
0.388386
0.398866
0.409739
0.42068
0.430553
0.438143
0.443113
0.445865
0.446879
0.446518
0.445069
0.442713
0.439526
0.435545
0.430821
0.425371
0.419184
0.412224
0.404395
0.395705
0.386436
0.37712
0.368788
0.362622
0.358719
0.356197
0.354727
0.352845
0.349047
0.343563
0.336914
0.327089
0.314546
0.299669
0.618623
0.61824
0.617615
0.616681
0.615165
0.613229
0.6111
0.608701
0.605881
0.602521
0.598487
0.59377
0.588522
0.582966
0.577302
0.571675
0.566171
0.560867
0.555856
0.551241
0.547117
0.543583
0.540663
0.538145
0.535787
0.533542
0.531323
0.528992
0.526545
0.524055
0.521365
0.518214
0.514583
0.510618
0.506425
0.50213
0.497786
0.493212
0.48828
0.482928
0.477149
0.470972
0.464294
0.458042
0.452482
0.447623
0.442456
0.438865
0.436699
0.435513
0.435352
0.435887
0.436909
0.438303
0.439907
0.441644
0.443407
0.445117
0.446711
0.448164
0.449475
0.450669
0.451783
0.452861
0.453944
0.45508
0.456306
0.457659
0.459163
0.46083
0.462653
0.464632
0.4668
0.469179
0.471754
0.474526
0.477502
0.480683
0.48407
0.487655
0.491427
0.495372
0.499481
0.50374
0.508126
0.5126
0.517133
0.521713
0.526347
0.531027
0.535728
0.540438
0.545174
0.549986
0.554972
0.560227
0.565846
0.571831
0.577993
0.584082
0.589875
0.595337
0.600556
0.605754
0.611197
0.616148
0.620336
0.623171
0.625014
0.626746
0.626886
0.62624
0.625799
0.622343
0.613475
0.601906
0.591234
0.580385
0.565871
0.546354
0.523246
0.497474
0.468447
0.436965
0.404879
0.373422
0.343941
0.318343
0.298571
0.285707
0.279685
0.279167
0.281994
0.285997
0.289735
0.292798
0.295565
0.298754
0.303078
0.308811
0.315642
0.323989
0.335361
0.349867
0.365371
0.379778
0.392284
0.404277
0.416864
0.429677
0.441093
0.449606
0.455094
0.458218
0.459502
0.459261
0.457784
0.455264
0.451782
0.447399
0.442213
0.436291
0.429629
0.422184
0.413876
0.40469
0.39494
0.385447
0.377517
0.372308
0.369802
0.368689
0.36808
0.366609
0.363084
0.357123
0.349671
0.339356
0.32632
0.31079
0.627418
0.626718
0.625748
0.624449
0.622628
0.620378
0.617686
0.614434
0.610585
0.606052
0.600795
0.594984
0.588843
0.582568
0.576294
0.570087
0.563984
0.558056
0.552423
0.547201
0.542476
0.538405
0.535073
0.532207
0.529446
0.526843
0.524479
0.522186
0.519889
0.517568
0.514957
0.511838
0.508302
0.50453
0.500602
0.496588
0.492475
0.488124
0.483491
0.478508
0.473043
0.467052
0.461105
0.455438
0.45041
0.445458
0.440736
0.437436
0.435249
0.433935
0.433586
0.43389
0.434734
0.435965
0.43739
0.438892
0.440344
0.44169
0.442906
0.444004
0.445009
0.445954
0.446869
0.44778
0.448713
0.449696
0.450759
0.451934
0.453248
0.454721
0.456365
0.458209
0.460289
0.462608
0.46515
0.467917
0.47093
0.4742
0.477732
0.481517
0.485534
0.48976
0.494174
0.498753
0.503458
0.508238
0.513045
0.517848
0.522638
0.527419
0.5322
0.537037
0.542009
0.547195
0.552709
0.558643
0.565043
0.571889
0.57898
0.585958
0.592532
0.59863
0.60446
0.610301
0.616608
0.62255
0.627161
0.630483
0.632375
0.634077
0.634701
0.633788
0.632923
0.629478
0.620148
0.607121
0.594283
0.581987
0.567053
0.547888
0.525717
0.500942
0.472792
0.442228
0.410913
0.379684
0.349739
0.323052
0.301845
0.287522
0.280124
0.278306
0.279825
0.282475
0.284978
0.287164
0.289458
0.292438
0.29676
0.302912
0.310271
0.31893
0.331163
0.34748
0.365728
0.38263
0.397017
0.410613
0.424986
0.43987
0.45325
0.462676
0.468259
0.471316
0.472645
0.47244
0.470902
0.468226
0.464482
0.459742
0.454137
0.447784
0.440705
0.432841
0.424083
0.414366
0.404077
0.394441
0.387123
0.383128
0.382034
0.382125
0.382101
0.380648
0.376879
0.370283
0.361731
0.350911
0.337644
0.321848
0.636996
0.636391
0.635337
0.633668
0.631305
0.628433
0.625024
0.621066
0.616481
0.611119
0.6051
0.598694
0.592032
0.585251
0.57846
0.571678
0.564933
0.558327
0.552008
0.546114
0.540752
0.536045
0.532048
0.528658
0.525612
0.522701
0.519911
0.517133
0.514363
0.511638
0.508711
0.505407
0.501801
0.49803
0.494211
0.490404
0.486563
0.482569
0.478339
0.47376
0.468743
0.463413
0.458228
0.453103
0.448175
0.443187
0.43893
0.435776
0.433557
0.432162
0.431663
0.431765
0.432408
0.433387
0.434534
0.435741
0.436916
0.43804
0.439096
0.440086
0.441003
0.441845
0.44261
0.443304
0.443944
0.444566
0.445229
0.446005
0.446957
0.448134
0.449564
0.451245
0.453177
0.455413
0.457967
0.460829
0.463995
0.467468
0.471254
0.47535
0.479738
0.484382
0.489238
0.494247
0.499351
0.504485
0.509586
0.514603
0.519525
0.524417
0.529403
0.534616
0.540174
0.546143
0.552553
0.55946
0.566774
0.574351
0.582044
0.589556
0.59671
0.603394
0.609575
0.615669
0.622096
0.628642
0.634012
0.637829
0.640085
0.641752
0.642685
0.641723
0.640422
0.637256
0.628343
0.614815
0.600513
0.586577
0.570696
0.551608
0.530283
0.506339
0.478922
0.449146
0.4184
0.387207
0.356669
0.328821
0.306009
0.289985
0.280907
0.277465
0.277426
0.278658
0.280118
0.281777
0.28391
0.286689
0.290767
0.29724
0.30528
0.314516
0.327801
0.346173
0.367096
0.386239
0.402586
0.417855
0.43386
0.450795
0.466607
0.477191
0.482558
0.485181
0.486269
0.485993
0.48437
0.481512
0.477469
0.472346
0.466341
0.459625
0.45222
0.444002
0.434782
0.424456
0.41359
0.403995
0.397603
0.394972
0.395129
0.396082
0.396251
0.39442
0.389881
0.382395
0.3726
0.361001
0.347515
0.331812
0.647686
0.646877
0.645537
0.643486
0.640752
0.637591
0.633829
0.629366
0.624107
0.617995
0.611282
0.604221
0.596945
0.589581
0.58219
0.574776
0.567384
0.560134
0.553199
0.546728
0.540795
0.535487
0.530882
0.526972
0.523541
0.520317
0.517192
0.514062
0.510867
0.507597
0.504225
0.500757
0.497235
0.493708
0.490202
0.486701
0.483123
0.479331
0.475233
0.470747
0.465828
0.460745
0.455579
0.450484
0.445598
0.440894
0.436898
0.433842
0.43161
0.43018
0.429541
0.429458
0.429897
0.430646
0.431591
0.432641
0.433721
0.434788
0.435791
0.436685
0.437432
0.43801
0.438415
0.438671
0.438837
0.439008
0.439295
0.439797
0.440573
0.441659
0.44307
0.444781
0.446773
0.449112
0.451799
0.4548
0.458102
0.461715
0.465656
0.469937
0.474551
0.479466
0.484634
0.489989
0.495464
0.50099
0.506498
0.511949
0.517354
0.522813
0.528485
0.534481
0.540852
0.547625
0.554723
0.562119
0.569755
0.577548
0.585498
0.593625
0.601706
0.609084
0.615286
0.621163
0.627426
0.634051
0.640314
0.644988
0.647739
0.649477
0.650624
0.649858
0.648081
0.645037
0.637022
0.623979
0.609227
0.593988
0.577002
0.557897
0.537203
0.513824
0.486916
0.457733
0.427396
0.396132
0.36493
0.335859
0.311352
0.293355
0.282272
0.276922
0.275168
0.275029
0.275662
0.277051
0.279111
0.281594
0.285427
0.292343
0.301588
0.311868
0.326293
0.34677
0.370079
0.391147
0.409293
0.426288
0.443516
0.461951
0.480287
0.492948
0.497966
0.499737
0.500226
0.499628
0.49787
0.494893
0.490621
0.485162
0.478802
0.471778
0.464099
0.455538
0.445793
0.434773
0.423449
0.414196
0.408924
0.407606
0.408727
0.410115
0.409973
0.407202
0.40131
0.392505
0.3814
0.368884
0.355193
0.339838
0.659235
0.658358
0.656898
0.654608
0.651505
0.647821
0.643454
0.638335
0.632382
0.625644
0.61835
0.610682
0.602798
0.594858
0.586961
0.579142
0.571422
0.563877
0.556625
0.549762
0.543353
0.537492
0.532265
0.527655
0.52356
0.519861
0.516396
0.513037
0.509694
0.506304
0.502848
0.499341
0.495801
0.492265
0.488713
0.485035
0.481142
0.476945
0.472396
0.467492
0.462329
0.457078
0.451798
0.446881
0.442437
0.438233
0.434495
0.431618
0.429442
0.428022
0.427276
0.427067
0.427359
0.427963
0.428802
0.429775
0.430789
0.431752
0.432575
0.433206
0.433623
0.433836
0.433876
0.433809
0.433735
0.433766
0.433979
0.434416
0.435116
0.436117
0.437461
0.439203
0.441379
0.443884
0.44667
0.449738
0.453101
0.456788
0.460839
0.465275
0.470093
0.475258
0.480712
0.48639
0.492224
0.498146
0.504098
0.510073
0.516113
0.522242
0.528564
0.53515
0.541966
0.548998
0.556213
0.563582
0.571197
0.579245
0.587923
0.597322
0.606766
0.614835
0.621015
0.626717
0.633229
0.640175
0.647093
0.652643
0.655891
0.657426
0.658396
0.657864
0.655694
0.652448
0.645418
0.633571
0.618996
0.602775
0.585095
0.566291
0.546202
0.523281
0.496764
0.468028
0.438
0.406629
0.374746
0.344425
0.31816
0.29797
0.284582
0.277094
0.273525
0.272087
0.272051
0.27326
0.275202
0.277507
0.28135
0.289014
0.299708
0.311066
0.326682
0.349221
0.374708
0.397615
0.417376
0.436031
0.454346
0.473592
0.493736
0.509002
0.514293
0.514963
0.51461
0.513398
0.511281
0.508133
0.503677
0.497953
0.491315
0.484071
0.476175
0.467257
0.456955
0.445283
0.433716
0.425018
0.420893
0.420726
0.422458
0.423712
0.422604
0.418211
0.410348
0.399675
0.387057
0.37359
0.359829
0.345175
0.67184
0.670872
0.669156
0.66653
0.663048
0.65894
0.654109
0.64845
0.641891
0.634483
0.626422
0.617938
0.609258
0.600592
0.592084
0.583792
0.575733
0.567939
0.560471
0.553411
0.54683
0.540755
0.535178
0.530082
0.525435
0.521171
0.517167
0.513258
0.509289
0.505219
0.501072
0.496891
0.492683
0.488462
0.484213
0.479899
0.475465
0.47084
0.466036
0.461113
0.456087
0.451105
0.446573
0.442642
0.438938
0.435219
0.431884
0.429258
0.427209
0.42583
0.425017
0.424725
0.424897
0.425381
0.426114
0.426974
0.427841
0.428589
0.429141
0.429489
0.429673
0.42974
0.42973
0.429681
0.429633
0.429619
0.429674
0.42985
0.430231
0.430931
0.432096
0.4338
0.435989
0.438545
0.441424
0.444623
0.448146
0.452023
0.456309
0.461049
0.466246
0.47186
0.477807
0.483998
0.490343
0.496766
0.503219
0.509694
0.516221
0.522789
0.529445
0.536278
0.543336
0.55064
0.558188
0.565995
0.574202
0.583024
0.592603
0.602887
0.613093
0.621637
0.628004
0.633778
0.640536
0.647717
0.65464
0.660599
0.66436
0.665855
0.666356
0.665827
0.663414
0.659764
0.653591
0.643018
0.628859
0.612361
0.594684
0.576422
0.55696
0.534526
0.508408
0.480051
0.450291
0.418842
0.386342
0.354817
0.326771
0.304275
0.288341
0.27851
0.273022
0.270315
0.269663
0.270606
0.272444
0.274781
0.278806
0.287573
0.299737
0.312233
0.329228
0.353709
0.380993
0.405501
0.426605
0.446613
0.466306
0.486397
0.50749
0.524533
0.530947
0.530604
0.529389
0.527447
0.524722
0.52123
0.516513
0.510521
0.503685
0.496316
0.488233
0.478957
0.468122
0.455944
0.444352
0.436356
0.43334
0.434045
0.435904
0.436363
0.433551
0.426799
0.416331
0.403251
0.388854
0.374435
0.36072
0.347121
0.685676
0.684631
0.682735
0.679908
0.676148
0.671617
0.6663
0.660119
0.653015
0.645055
0.636406
0.627254
0.617794
0.608235
0.598778
0.589594
0.58079
0.572431
0.564558
0.557199
0.550386
0.544143
0.53844
0.533203
0.528339
0.523708
0.519141
0.514494
0.509681
0.504671
0.499468
0.494141
0.488769
0.483434
0.478198
0.473108
0.468139
0.463285
0.458588
0.454079
0.449812
0.445959
0.442553
0.439319
0.435949
0.432558
0.429593
0.427154
0.42521
0.42383
0.422934
0.422532
0.422547
0.422876
0.423459
0.424158
0.424833
0.425356
0.4257
0.425925
0.426104
0.426254
0.426318
0.426222
0.425929
0.425472
0.424969
0.424596
0.424539
0.424951
0.425967
0.427617
0.429795
0.432494
0.435702
0.439348
0.443359
0.447705
0.452433
0.45762
0.463292
0.469417
0.47592
0.482709
0.489685
0.496788
0.50397
0.511168
0.518312
0.52543
0.532592
0.539907
0.547499
0.555427
0.563692
0.572296
0.581332
0.590886
0.600935
0.611282
0.621221
0.629691
0.636425
0.642634
0.64944
0.656401
0.66271
0.668273
0.672297
0.674272
0.674627
0.673988
0.67168
0.667762
0.66209
0.652645
0.639122
0.622974
0.605758
0.588098
0.56925
0.54739
0.521754
0.493771
0.464291
0.432868
0.399905
0.367316
0.337574
0.312787
0.294195
0.281784
0.274238
0.270177
0.268832
0.269423
0.271285
0.273805
0.278244
0.288231
0.301839
0.315717
0.334259
0.360368
0.388957
0.414655
0.436797
0.457739
0.478887
0.500349
0.522012
0.539553
0.547048
0.546321
0.544399
0.541752
0.538213
0.534174
0.529117
0.522876
0.515907
0.508452
0.50018
0.490565
0.479245
0.466723
0.455318
0.448131
0.446081
0.44725
0.448644
0.447578
0.442283
0.432394
0.418647
0.402661
0.386221
0.370874
0.357384
0.345177
0.700927
0.699843
0.697797
0.694744
0.69069
0.685824
0.680158
0.673636
0.666226
0.657979
0.649009
0.639472
0.629545
0.619429
0.609345
0.599512
0.590116
0.581271
0.573028
0.565413
0.55846
0.552193
0.546561
0.541412
0.536527
0.531688
0.526738
0.521581
0.516152
0.510432
0.504427
0.498162
0.491719
0.485244
0.478891
0.472781
0.46699
0.461604
0.456689
0.452255
0.44828
0.444683
0.441265
0.437823
0.434347
0.431077
0.428231
0.425805
0.423837
0.422349
0.4213
0.42071
0.420501
0.420612
0.420985
0.421482
0.42195
0.422275
0.422479
0.422649
0.422837
0.422954
0.422822
0.422317
0.421447
0.420355
0.419299
0.418558
0.41836
0.418816
0.419912
0.42159
0.423866
0.426839
0.430537
0.434846
0.439601
0.444677
0.450071
0.455857
0.462095
0.468764
0.475785
0.483051
0.490473
0.498047
0.505788
0.513647
0.521524
0.529378
0.537248
0.54525
0.553513
0.562086
0.570946
0.580065
0.589488
0.59925
0.609292
0.619477
0.629326
0.637964
0.645057
0.651684
0.658652
0.665412
0.671289
0.676368
0.680313
0.682608
0.683194
0.682511
0.680461
0.676664
0.67125
0.662792
0.65026
0.634869
0.618245
0.60111
0.582846
0.561678
0.536664
0.509108
0.479969
0.448747
0.415576
0.382177
0.350942
0.323981
0.302738
0.287615
0.277819
0.272193
0.269993
0.270205
0.272242
0.275097
0.280199
0.291357
0.306289
0.321631
0.341816
0.369249
0.398616
0.425036
0.44807
0.469761
0.491985
0.514763
0.536989
0.5545
0.562284
0.561705
0.55932
0.556178
0.551771
0.546942
0.541461
0.535012
0.527961
0.520427
0.511983
0.502066
0.490339
0.477605
0.46655
0.460199
0.458865
0.460009
0.460284
0.456915
0.44831
0.434511
0.416842
0.397517
0.378819
0.362571
0.34951
0.339031
0.718517
0.717366
0.715141
0.711913
0.707668
0.702524
0.696559
0.68977
0.68214
0.673712
0.664603
0.654949
0.644876
0.634561
0.624244
0.614189
0.604637
0.595748
0.587573
0.580106
0.573344
0.567268
0.561799
0.556776
0.552024
0.547365
0.542611
0.537626
0.532267
0.526374
0.519854
0.512737
0.50519
0.497433
0.489698
0.482188
0.475064
0.468456
0.462425
0.456952
0.451966
0.447351
0.442994
0.438859
0.435007
0.431542
0.428496
0.425864
0.423675
0.421918
0.420583
0.419673
0.419122
0.418886
0.418923
0.419126
0.419321
0.419405
0.419411
0.419426
0.419467
0.419352
0.41886
0.41791
0.416586
0.415123
0.413867
0.413141
0.413114
0.413815
0.415157
0.41704
0.419573
0.422866
0.426996
0.431951
0.43747
0.44329
0.449374
0.455817
0.462713
0.470064
0.477763
0.485647
0.493593
0.501542
0.509496
0.517478
0.525505
0.533573
0.541711
0.550021
0.558632
0.567601
0.576884
0.586432
0.596269
0.606429
0.616791