/*--------------------------------*- C++ -*----------------------------------*\
  =========                 |
  \\      /  F ield         | OpenFOAM: The Open Source CFD Toolbox
   \\    /   O peration     | Website:  https://openfoam.org
    \\  /    A nd           | Version:  10
     \\/     M anipulation  |
\*---------------------------------------------------------------------------*/
FoamFile
{
    format      ascii;
    class       volScalarField;
    location    "0.4";
    object      p;
}
// * * * * * * * * * * * * * * * * * * * * * * * * * * * * * * * * * * * * * //

dimensions      [1 -1 -2 0 0 0 0];

internalField   nonuniform List<scalar> 
12225
(
1.97009e+07
1.97008e+07
1.97006e+07
1.97004e+07
1.97001e+07
1.96998e+07
1.96995e+07
1.96993e+07
1.96991e+07
1.9699e+07
1.96992e+07
1.96996e+07
1.97003e+07
1.97015e+07
1.97032e+07
1.97054e+07
1.97084e+07
1.97126e+07
1.97009e+07
1.97008e+07
1.97006e+07
1.97004e+07
1.97001e+07
1.96998e+07
1.96995e+07
1.96993e+07
1.96991e+07
1.9699e+07
1.96992e+07
1.96996e+07
1.97003e+07
1.97014e+07
1.97031e+07
1.97053e+07
1.97082e+07
1.97121e+07
1.97009e+07
1.97008e+07
1.97006e+07
1.97004e+07
1.97001e+07
1.96998e+07
1.96995e+07
1.96992e+07
1.9699e+07
1.9699e+07
1.96991e+07
1.96995e+07
1.97002e+07
1.97013e+07
1.97029e+07
1.9705e+07
1.97078e+07
1.97114e+07
1.97009e+07
1.97008e+07
1.97006e+07
1.97004e+07
1.97001e+07
1.96998e+07
1.96995e+07
1.96992e+07
1.9699e+07
1.96989e+07
1.9699e+07
1.96993e+07
1.97e+07
1.9701e+07
1.97025e+07
1.97046e+07
1.97072e+07
1.97105e+07
1.97009e+07
1.97008e+07
1.97006e+07
1.97004e+07
1.97001e+07
1.96998e+07
1.96995e+07
1.96992e+07
1.96989e+07
1.96988e+07
1.96989e+07
1.96991e+07
1.96997e+07
1.97007e+07
1.97021e+07
1.9704e+07
1.97064e+07
1.97094e+07
1.97009e+07
1.97008e+07
1.97007e+07
1.97004e+07
1.97001e+07
1.96998e+07
1.96995e+07
1.96991e+07
1.96989e+07
1.96987e+07
1.96987e+07
1.96989e+07
1.96993e+07
1.97002e+07
1.97014e+07
1.97032e+07
1.97054e+07
1.97081e+07
1.9701e+07
1.97009e+07
1.97007e+07
1.97004e+07
1.97001e+07
1.96998e+07
1.96995e+07
1.96991e+07
1.96988e+07
1.96985e+07
1.96984e+07
1.96985e+07
1.96988e+07
1.96995e+07
1.97006e+07
1.97021e+07
1.97042e+07
1.97066e+07
1.9701e+07
1.97009e+07
1.97007e+07
1.97005e+07
1.97002e+07
1.96998e+07
1.96994e+07
1.9699e+07
1.96987e+07
1.96983e+07
1.96981e+07
1.96981e+07
1.96982e+07
1.96987e+07
1.96995e+07
1.97009e+07
1.97027e+07
1.97049e+07
1.97011e+07
1.9701e+07
1.97008e+07
1.97005e+07
1.97002e+07
1.96998e+07
1.96994e+07
1.9699e+07
1.96985e+07
1.96981e+07
1.96978e+07
1.96975e+07
1.96975e+07
1.96977e+07
1.96982e+07
1.96993e+07
1.97008e+07
1.97029e+07
1.97011e+07
1.9701e+07
1.97009e+07
1.97006e+07
1.97003e+07
1.96999e+07
1.96994e+07
1.96989e+07
1.96984e+07
1.96979e+07
1.96973e+07
1.96969e+07
1.96966e+07
1.96964e+07
1.96967e+07
1.96973e+07
1.96985e+07
1.97004e+07
1.97012e+07
1.97011e+07
1.9701e+07
1.97007e+07
1.97003e+07
1.96999e+07
1.96994e+07
1.96989e+07
1.96983e+07
1.96976e+07
1.96969e+07
1.96962e+07
1.96955e+07
1.9695e+07
1.96947e+07
1.96949e+07
1.96957e+07
1.96973e+07
1.97013e+07
1.97012e+07
1.97011e+07
1.97008e+07
1.97004e+07
1.97e+07
1.96995e+07
1.96988e+07
1.96981e+07
1.96973e+07
1.96964e+07
1.96955e+07
1.96944e+07
1.96935e+07
1.96927e+07
1.96922e+07
1.96925e+07
1.96938e+07
1.97015e+07
1.97014e+07
1.97012e+07
1.97009e+07
1.97005e+07
1.97001e+07
1.96995e+07
1.96989e+07
1.9698e+07
1.96971e+07
1.9696e+07
1.96947e+07
1.96933e+07
1.96918e+07
1.96903e+07
1.96891e+07
1.96886e+07
1.96893e+07
1.97017e+07
1.97016e+07
1.97014e+07
1.97011e+07
1.97007e+07
1.97002e+07
1.96997e+07
1.96989e+07
1.9698e+07
1.96969e+07
1.96956e+07
1.9694e+07
1.9692e+07
1.96898e+07
1.96873e+07
1.96847e+07
1.96827e+07
1.96823e+07
1.97019e+07
1.97018e+07
1.97016e+07
1.97014e+07
1.9701e+07
1.97005e+07
1.96999e+07
1.96991e+07
1.96981e+07
1.96969e+07
1.96953e+07
1.96933e+07
1.96908e+07
1.96876e+07
1.96837e+07
1.9679e+07
1.96738e+07
1.96699e+07
1.97023e+07
1.97022e+07
1.9702e+07
1.97017e+07
1.97014e+07
1.97009e+07
1.97003e+07
1.96996e+07
1.96985e+07
1.96972e+07
1.96955e+07
1.96933e+07
1.96903e+07
1.96863e+07
1.96808e+07
1.96729e+07
1.96612e+07
1.96428e+07
2.72061e+07
2.70876e+07
2.69903e+07
2.6901e+07
2.6815e+07
2.6731e+07
2.66484e+07
2.6567e+07
2.64867e+07
2.64073e+07
2.63288e+07
2.62511e+07
2.61738e+07
2.60969e+07
2.60197e+07
2.59419e+07
2.58624e+07
2.578e+07
2.71362e+07
2.70672e+07
2.69847e+07
2.69008e+07
2.68187e+07
2.6738e+07
2.66583e+07
2.65796e+07
2.6502e+07
2.64254e+07
2.63499e+07
2.62757e+07
2.62028e+07
2.61315e+07
2.60619e+07
2.59948e+07
2.5931e+07
2.58724e+07
2.70351e+07
2.69971e+07
2.69397e+07
2.68731e+07
2.68023e+07
2.67297e+07
2.66564e+07
2.65831e+07
2.65104e+07
2.64386e+07
2.6368e+07
2.6299e+07
2.62318e+07
2.61669e+07
2.61045e+07
2.60452e+07
2.59895e+07
2.59377e+07
2.69608e+07
2.69347e+07
2.68911e+07
2.68367e+07
2.67758e+07
2.67111e+07
2.66444e+07
2.65767e+07
2.65089e+07
2.64417e+07
2.63755e+07
2.63108e+07
2.62479e+07
2.61872e+07
2.6129e+07
2.60736e+07
2.60211e+07
2.59717e+07
2.69124e+07
2.68915e+07
2.6855e+07
2.68077e+07
2.67531e+07
2.66938e+07
2.66317e+07
2.6568e+07
2.65038e+07
2.64398e+07
2.63766e+07
2.63147e+07
2.62545e+07
2.61962e+07
2.61402e+07
2.60867e+07
2.60358e+07
2.59875e+07
2.68774e+07
2.68593e+07
2.6827e+07
2.67842e+07
2.67339e+07
2.66784e+07
2.66197e+07
2.6559e+07
2.64974e+07
2.64357e+07
2.63746e+07
2.63146e+07
2.62561e+07
2.61994e+07
2.61447e+07
2.60923e+07
2.60421e+07
2.59943e+07
2.68521e+07
2.68357e+07
2.6806e+07
2.6766e+07
2.67186e+07
2.66658e+07
2.66094e+07
2.65507e+07
2.64909e+07
2.64308e+07
2.63711e+07
2.63124e+07
2.62549e+07
2.61991e+07
2.61451e+07
2.60932e+07
2.60434e+07
2.59958e+07
2.6834e+07
2.68186e+07
2.67905e+07
2.67524e+07
2.67068e+07
2.66558e+07
2.66009e+07
2.65437e+07
2.64851e+07
2.6426e+07
2.63672e+07
2.63091e+07
2.62522e+07
2.61968e+07
2.61432e+07
2.60915e+07
2.60416e+07
2.59938e+07
2.68212e+07
2.68064e+07
2.67793e+07
2.67425e+07
2.66981e+07
2.66482e+07
2.65943e+07
2.65379e+07
2.648e+07
2.64215e+07
2.63632e+07
2.63055e+07
2.62488e+07
2.61935e+07
2.61399e+07
2.60881e+07
2.60379e+07
2.59897e+07
2.68124e+07
2.6798e+07
2.67715e+07
2.67354e+07
2.66918e+07
2.66425e+07
2.65893e+07
2.65333e+07
2.64757e+07
2.64175e+07
2.63593e+07
2.63018e+07
2.62451e+07
2.61894e+07
2.61355e+07
2.60836e+07
2.60322e+07
2.59834e+07
2.68066e+07
2.67924e+07
2.67663e+07
2.67305e+07
2.66873e+07
2.66385e+07
2.65855e+07
2.65297e+07
2.64722e+07
2.64139e+07
2.63557e+07
2.62982e+07
2.62412e+07
2.61846e+07
2.613e+07
2.6078e+07
2.60225e+07
2.59695e+07
2.68029e+07
2.67888e+07
2.67628e+07
2.67272e+07
2.66842e+07
2.66355e+07
2.65827e+07
2.65269e+07
2.64691e+07
2.64105e+07
2.63521e+07
2.62944e+07
2.62371e+07
2.6178e+07
2.61204e+07
2.6068e+07
2.60192e+07
2.59716e+07
2.68007e+07
2.67865e+07
2.67605e+07
2.67249e+07
2.66819e+07
2.66332e+07
2.65803e+07
2.65243e+07
2.6466e+07
2.64065e+07
2.6347e+07
2.62883e+07
2.62312e+07
2.61755e+07
2.61207e+07
2.60686e+07
2.60195e+07
2.59725e+07
2.67991e+07
2.67848e+07
2.67586e+07
2.67227e+07
2.66795e+07
2.66307e+07
2.6578e+07
2.65224e+07
2.64647e+07
2.64057e+07
2.63466e+07
2.62881e+07
2.6231e+07
2.61753e+07
2.61207e+07
2.60688e+07
2.60196e+07
2.59728e+07
1.97538e+07
1.97538e+07
1.97538e+07
1.97538e+07
1.97539e+07
1.9754e+07
1.9754e+07
1.97541e+07
1.97543e+07
1.97544e+07
1.97545e+07
1.97547e+07
1.97548e+07
1.9755e+07
1.97552e+07
1.97554e+07
1.97556e+07
1.97558e+07
1.9756e+07
1.97563e+07
1.97565e+07
1.97568e+07
1.97571e+07
1.97573e+07
1.97576e+07
1.97579e+07
1.97582e+07
1.97584e+07
1.97587e+07
1.9759e+07
1.97593e+07
1.97595e+07
1.97598e+07
1.97601e+07
1.97603e+07
1.97605e+07
1.97607e+07
1.97609e+07
1.97611e+07
1.97613e+07
1.97614e+07
1.97615e+07
1.97616e+07
1.97616e+07
1.97617e+07
1.97616e+07
1.97616e+07
1.97614e+07
1.97613e+07
1.97611e+07
1.97608e+07
1.97605e+07
1.97601e+07
1.97596e+07
1.9759e+07
1.97584e+07
1.97577e+07
1.97569e+07
1.97559e+07
1.97549e+07
1.97538e+07
1.97525e+07
1.97511e+07
1.97496e+07
1.97479e+07
1.97461e+07
1.9744e+07
1.97418e+07
1.97394e+07
1.97368e+07
1.9734e+07
1.97309e+07
1.97275e+07
1.97239e+07
1.972e+07
1.97158e+07
1.97112e+07
1.97063e+07
1.9701e+07
1.96953e+07
1.96891e+07
1.96825e+07
1.96755e+07
1.96679e+07
1.96597e+07
1.9651e+07
1.96416e+07
1.96316e+07
1.96209e+07
1.96094e+07
1.95972e+07
1.95842e+07
1.95703e+07
1.95556e+07
1.95399e+07
1.95233e+07
1.95056e+07
1.94869e+07
1.94672e+07
1.94463e+07
1.94243e+07
1.94011e+07
1.93767e+07
1.93512e+07
1.93243e+07
1.92962e+07
1.92669e+07
1.92362e+07
1.92043e+07
1.91711e+07
1.91366e+07
1.91008e+07
1.90637e+07
1.90254e+07
1.89858e+07
1.89449e+07
1.89028e+07
1.88595e+07
1.8815e+07
1.87694e+07
1.87226e+07
1.86747e+07
1.86257e+07
1.85756e+07
1.85245e+07
1.84723e+07
1.84192e+07
1.8365e+07
1.831e+07
1.8254e+07
1.8197e+07
1.81392e+07
1.80806e+07
1.80211e+07
1.79607e+07
1.78996e+07
1.78376e+07
1.77749e+07
1.77114e+07
1.76472e+07
1.75822e+07
1.75165e+07
1.74501e+07
1.7383e+07
1.73152e+07
1.72467e+07
1.71775e+07
1.71077e+07
1.70372e+07
1.6966e+07
1.68941e+07
1.68216e+07
1.67485e+07
1.66747e+07
1.66003e+07
1.65252e+07
1.64494e+07
1.6373e+07
1.6296e+07
1.62184e+07
1.61401e+07
1.60611e+07
1.59815e+07
1.59013e+07
1.58204e+07
1.57389e+07
1.56567e+07
1.5574e+07
1.54905e+07
1.54065e+07
1.53218e+07
1.52366e+07
1.51507e+07
1.50643e+07
1.49775e+07
1.48901e+07
1.48025e+07
1.47146e+07
1.46269e+07
1.45401e+07
1.97537e+07
1.97537e+07
1.97537e+07
1.97538e+07
1.97538e+07
1.97539e+07
1.9754e+07
1.97541e+07
1.97542e+07
1.97543e+07
1.97545e+07
1.97546e+07
1.97548e+07
1.97549e+07
1.97551e+07
1.97553e+07
1.97555e+07
1.97558e+07
1.9756e+07
1.97563e+07
1.97565e+07
1.97568e+07
1.9757e+07
1.97573e+07
1.97576e+07
1.97579e+07
1.97582e+07
1.97584e+07
1.97587e+07
1.9759e+07
1.97593e+07
1.97596e+07
1.97598e+07
1.97601e+07
1.97603e+07
1.97606e+07
1.97608e+07
1.9761e+07
1.97612e+07
1.97613e+07
1.97615e+07
1.97616e+07
1.97617e+07
1.97617e+07
1.97617e+07
1.97617e+07
1.97616e+07
1.97615e+07
1.97614e+07
1.97612e+07
1.97609e+07
1.97606e+07
1.97602e+07
1.97597e+07
1.97592e+07
1.97585e+07
1.97578e+07
1.9757e+07
1.97561e+07
1.97551e+07
1.9754e+07
1.97527e+07
1.97513e+07
1.97498e+07
1.97481e+07
1.97463e+07
1.97443e+07
1.97421e+07
1.97397e+07
1.97371e+07
1.97343e+07
1.97312e+07
1.97279e+07
1.97243e+07
1.97204e+07
1.97162e+07
1.97116e+07
1.97067e+07
1.97014e+07
1.96957e+07
1.96896e+07
1.96831e+07
1.9676e+07
1.96684e+07
1.96603e+07
1.96515e+07
1.96422e+07
1.96322e+07
1.96215e+07
1.96101e+07
1.95979e+07
1.95849e+07
1.95711e+07
1.95563e+07
1.95407e+07
1.9524e+07
1.95064e+07
1.94877e+07
1.9468e+07
1.94471e+07
1.94251e+07
1.9402e+07
1.93776e+07
1.9352e+07
1.93251e+07
1.9297e+07
1.92677e+07
1.9237e+07
1.92051e+07
1.91718e+07
1.91373e+07
1.91015e+07
1.90644e+07
1.9026e+07
1.89864e+07
1.89455e+07
1.89034e+07
1.886e+07
1.88155e+07
1.87699e+07
1.8723e+07
1.86751e+07
1.86261e+07
1.8576e+07
1.85248e+07
1.84726e+07
1.84195e+07
1.83653e+07
1.83102e+07
1.82542e+07
1.81972e+07
1.81394e+07
1.80807e+07
1.80212e+07
1.79609e+07
1.78997e+07
1.78378e+07
1.7775e+07
1.77115e+07
1.76473e+07
1.75823e+07
1.75166e+07
1.74502e+07
1.73831e+07
1.73153e+07
1.72468e+07
1.71776e+07
1.71077e+07
1.70372e+07
1.6966e+07
1.68942e+07
1.68217e+07
1.67485e+07
1.66747e+07
1.66003e+07
1.65252e+07
1.64494e+07
1.63731e+07
1.6296e+07
1.62184e+07
1.61401e+07
1.60611e+07
1.59815e+07
1.59013e+07
1.58204e+07
1.57389e+07
1.56567e+07
1.55739e+07
1.54905e+07
1.54065e+07
1.53218e+07
1.52365e+07
1.51507e+07
1.50643e+07
1.49774e+07
1.489e+07
1.48023e+07
1.47144e+07
1.46266e+07
1.45394e+07
1.97536e+07
1.97536e+07
1.97536e+07
1.97537e+07
1.97537e+07
1.97538e+07
1.97539e+07
1.9754e+07
1.97541e+07
1.97542e+07
1.97543e+07
1.97545e+07
1.97547e+07
1.97549e+07
1.9755e+07
1.97553e+07
1.97555e+07
1.97557e+07
1.97559e+07
1.97562e+07
1.97565e+07
1.97567e+07
1.9757e+07
1.97573e+07
1.97576e+07
1.97579e+07
1.97581e+07
1.97584e+07
1.97587e+07
1.9759e+07
1.97593e+07
1.97596e+07
1.97599e+07
1.97601e+07
1.97604e+07
1.97606e+07
1.97609e+07
1.97611e+07
1.97613e+07
1.97614e+07
1.97616e+07
1.97617e+07
1.97618e+07
1.97619e+07
1.97619e+07
1.97619e+07
1.97618e+07
1.97617e+07
1.97616e+07
1.97614e+07
1.97611e+07
1.97608e+07
1.97604e+07
1.976e+07
1.97594e+07
1.97588e+07
1.97581e+07
1.97573e+07
1.97565e+07
1.97555e+07
1.97543e+07
1.97531e+07
1.97517e+07
1.97502e+07
1.97486e+07
1.97468e+07
1.97448e+07
1.97426e+07
1.97402e+07
1.97377e+07
1.97349e+07
1.97318e+07
1.97285e+07
1.9725e+07
1.97211e+07
1.97169e+07
1.97124e+07
1.97076e+07
1.97023e+07
1.96967e+07
1.96906e+07
1.96841e+07
1.96771e+07
1.96695e+07
1.96614e+07
1.96527e+07
1.96434e+07
1.96335e+07
1.96229e+07
1.96115e+07
1.95993e+07
1.95864e+07
1.95726e+07
1.95579e+07
1.95422e+07
1.95256e+07
1.9508e+07
1.94894e+07
1.94697e+07
1.94488e+07
1.94268e+07
1.94036e+07
1.93793e+07
1.93536e+07
1.93268e+07
1.92987e+07
1.92693e+07
1.92386e+07
1.92066e+07
1.91733e+07
1.91387e+07
1.91029e+07
1.90657e+07
1.90273e+07
1.89876e+07
1.89467e+07
1.89045e+07
1.88611e+07
1.88165e+07
1.87708e+07
1.87239e+07
1.86759e+07
1.86269e+07
1.85767e+07
1.85255e+07
1.84733e+07
1.842e+07
1.83659e+07
1.83107e+07
1.82546e+07
1.81977e+07
1.81398e+07
1.80811e+07
1.80216e+07
1.79612e+07
1.79e+07
1.7838e+07
1.77753e+07
1.77117e+07
1.76475e+07
1.75825e+07
1.75168e+07
1.74503e+07
1.73832e+07
1.73154e+07
1.72469e+07
1.71777e+07
1.71078e+07
1.70373e+07
1.69661e+07
1.68942e+07
1.68217e+07
1.67486e+07
1.66748e+07
1.66003e+07
1.65252e+07
1.64495e+07
1.63731e+07
1.6296e+07
1.62184e+07
1.61401e+07
1.60611e+07
1.59815e+07
1.59013e+07
1.58204e+07
1.57389e+07
1.56567e+07
1.55739e+07
1.54905e+07
1.54064e+07
1.53218e+07
1.52365e+07
1.51506e+07
1.50642e+07
1.49773e+07
1.48899e+07
1.48021e+07
1.47141e+07
1.4626e+07
1.45382e+07
1.97534e+07
1.97534e+07
1.97534e+07
1.97535e+07
1.97535e+07
1.97536e+07
1.97537e+07
1.97538e+07
1.97539e+07
1.9754e+07
1.97542e+07
1.97543e+07
1.97545e+07
1.97547e+07
1.97549e+07
1.97551e+07
1.97554e+07
1.97556e+07
1.97559e+07
1.97561e+07
1.97564e+07
1.97567e+07
1.9757e+07
1.97572e+07
1.97575e+07
1.97578e+07
1.97581e+07
1.97585e+07
1.97588e+07
1.97591e+07
1.97594e+07
1.97597e+07
1.97599e+07
1.97602e+07
1.97605e+07
1.97607e+07
1.9761e+07
1.97612e+07
1.97614e+07
1.97616e+07
1.97618e+07
1.97619e+07
1.9762e+07
1.97621e+07
1.97621e+07
1.97621e+07
1.97621e+07
1.9762e+07
1.97619e+07
1.97617e+07
1.97615e+07
1.97612e+07
1.97608e+07
1.97604e+07
1.97599e+07
1.97593e+07
1.97586e+07
1.97578e+07
1.9757e+07
1.9756e+07
1.97549e+07
1.97537e+07
1.97524e+07
1.97509e+07
1.97493e+07
1.97475e+07
1.97455e+07
1.97434e+07
1.97411e+07
1.97385e+07
1.97358e+07
1.97328e+07
1.97295e+07
1.9726e+07
1.97222e+07
1.97181e+07
1.97136e+07
1.97088e+07
1.97037e+07
1.96981e+07
1.96921e+07
1.96856e+07
1.96786e+07
1.96712e+07
1.96632e+07
1.96545e+07
1.96453e+07
1.96354e+07
1.96249e+07
1.96136e+07
1.96015e+07
1.95886e+07
1.95748e+07
1.95602e+07
1.95446e+07
1.95281e+07
1.95105e+07
1.94919e+07
1.94722e+07
1.94513e+07
1.94293e+07
1.94062e+07
1.93818e+07
1.93561e+07
1.93293e+07
1.93011e+07
1.92717e+07
1.92409e+07
1.92089e+07
1.91755e+07
1.91409e+07
1.9105e+07
1.90677e+07
1.90292e+07
1.89894e+07
1.89484e+07
1.89062e+07
1.88627e+07
1.8818e+07
1.87722e+07
1.87253e+07
1.86772e+07
1.8628e+07
1.85778e+07
1.85265e+07
1.84742e+07
1.84209e+07
1.83667e+07
1.83115e+07
1.82553e+07
1.81983e+07
1.81404e+07
1.80817e+07
1.80221e+07
1.79616e+07
1.79004e+07
1.78384e+07
1.77756e+07
1.77121e+07
1.76478e+07
1.75827e+07
1.7517e+07
1.74506e+07
1.73834e+07
1.73156e+07
1.7247e+07
1.71778e+07
1.71079e+07
1.70374e+07
1.69662e+07
1.68943e+07
1.68218e+07
1.67486e+07
1.66748e+07
1.66004e+07
1.65252e+07
1.64495e+07
1.63731e+07
1.62961e+07
1.62184e+07
1.61401e+07
1.60611e+07
1.59815e+07
1.59013e+07
1.58204e+07
1.57389e+07
1.56567e+07
1.55739e+07
1.54905e+07
1.54064e+07
1.53217e+07
1.52364e+07
1.51506e+07
1.50641e+07
1.49771e+07
1.48897e+07
1.48018e+07
1.47136e+07
1.46253e+07
1.45369e+07
1.97531e+07
1.97531e+07
1.97532e+07
1.97532e+07
1.97533e+07
1.97534e+07
1.97534e+07
1.97536e+07
1.97537e+07
1.97538e+07
1.9754e+07
1.97542e+07
1.97543e+07
1.97545e+07
1.97548e+07
1.9755e+07
1.97552e+07
1.97555e+07
1.97557e+07
1.9756e+07
1.97563e+07
1.97566e+07
1.97569e+07
1.97572e+07
1.97575e+07
1.97578e+07
1.97582e+07
1.97585e+07
1.97588e+07
1.97591e+07
1.97594e+07
1.97597e+07
1.976e+07
1.97603e+07
1.97606e+07
1.97609e+07
1.97612e+07
1.97614e+07
1.97616e+07
1.97618e+07
1.9762e+07
1.97622e+07
1.97623e+07
1.97624e+07
1.97625e+07
1.97625e+07
1.97625e+07
1.97624e+07
1.97623e+07
1.97621e+07
1.97619e+07
1.97617e+07
1.97613e+07
1.97609e+07
1.97604e+07
1.97599e+07
1.97592e+07
1.97585e+07
1.97577e+07
1.97567e+07
1.97557e+07
1.97545e+07
1.97532e+07
1.97518e+07
1.97502e+07
1.97484e+07
1.97465e+07
1.97445e+07
1.97422e+07
1.97397e+07
1.9737e+07
1.97341e+07
1.97309e+07
1.97274e+07
1.97237e+07
1.97196e+07
1.97153e+07
1.97105e+07
1.97054e+07
1.96999e+07
1.9694e+07
1.96876e+07
1.96808e+07
1.96734e+07
1.96655e+07
1.9657e+07
1.96478e+07
1.9638e+07
1.96276e+07
1.96163e+07
1.96043e+07
1.95915e+07
1.95779e+07
1.95633e+07
1.95478e+07
1.95313e+07
1.95138e+07
1.94952e+07
1.94755e+07
1.94547e+07
1.94327e+07
1.94095e+07
1.93851e+07
1.93595e+07
1.93326e+07
1.93044e+07
1.92749e+07
1.92441e+07
1.9212e+07
1.91785e+07
1.91438e+07
1.91077e+07
1.90704e+07
1.90318e+07
1.89919e+07
1.89508e+07
1.89084e+07
1.88648e+07
1.88201e+07
1.87741e+07
1.87271e+07
1.86789e+07
1.86296e+07
1.85793e+07
1.85279e+07
1.84755e+07
1.84221e+07
1.83678e+07
1.83125e+07
1.82563e+07
1.81992e+07
1.81412e+07
1.80824e+07
1.80227e+07
1.79622e+07
1.7901e+07
1.78389e+07
1.77761e+07
1.77125e+07
1.76482e+07
1.75831e+07
1.75173e+07
1.74508e+07
1.73837e+07
1.73158e+07
1.72472e+07
1.7178e+07
1.71081e+07
1.70375e+07
1.69663e+07
1.68944e+07
1.68219e+07
1.67487e+07
1.66749e+07
1.66004e+07
1.65253e+07
1.64496e+07
1.63732e+07
1.62961e+07
1.62184e+07
1.61401e+07
1.60611e+07
1.59815e+07
1.59013e+07
1.58204e+07
1.57389e+07
1.56567e+07
1.55739e+07
1.54904e+07
1.54064e+07
1.53217e+07
1.52364e+07
1.51504e+07
1.5064e+07
1.49769e+07
1.48894e+07
1.48014e+07
1.47131e+07
1.46244e+07
1.45355e+07
1.97528e+07
1.97528e+07
1.97528e+07
1.97529e+07
1.9753e+07
1.9753e+07
1.97531e+07
1.97533e+07
1.97534e+07
1.97536e+07
1.97537e+07
1.97539e+07
1.97541e+07
1.97543e+07
1.97545e+07
1.97548e+07
1.9755e+07
1.97553e+07
1.97556e+07
1.97559e+07
1.97562e+07
1.97565e+07
1.97568e+07
1.97572e+07
1.97575e+07
1.97578e+07
1.97582e+07
1.97585e+07
1.97588e+07
1.97592e+07
1.97595e+07
1.97599e+07
1.97602e+07
1.97605e+07
1.97608e+07
1.97611e+07
1.97614e+07
1.97617e+07
1.97619e+07
1.97621e+07
1.97623e+07
1.97625e+07
1.97627e+07
1.97628e+07
1.97629e+07
1.97629e+07
1.97629e+07
1.97629e+07
1.97628e+07
1.97627e+07
1.97625e+07
1.97623e+07
1.97619e+07
1.97616e+07
1.97611e+07
1.97606e+07
1.976e+07
1.97593e+07
1.97585e+07
1.97576e+07
1.97566e+07
1.97555e+07
1.97542e+07
1.97529e+07
1.97513e+07
1.97496e+07
1.97478e+07
1.97458e+07
1.97436e+07
1.97412e+07
1.97385e+07
1.97357e+07
1.97326e+07
1.97292e+07
1.97255e+07
1.97216e+07
1.97173e+07
1.97127e+07
1.97077e+07
1.97023e+07
1.96965e+07
1.96902e+07
1.96834e+07
1.96762e+07
1.96684e+07
1.966e+07
1.9651e+07
1.96413e+07
1.96309e+07
1.96198e+07
1.96079e+07
1.95952e+07
1.95817e+07
1.95672e+07
1.95518e+07
1.95353e+07
1.95179e+07
1.94994e+07
1.94797e+07
1.94589e+07
1.9437e+07
1.94138e+07
1.93894e+07
1.93637e+07
1.93367e+07
1.93085e+07
1.92789e+07
1.9248e+07
1.92158e+07
1.91823e+07
1.91474e+07
1.91112e+07
1.90738e+07
1.9035e+07
1.8995e+07
1.89537e+07
1.89112e+07
1.88675e+07
1.88226e+07
1.87765e+07
1.87293e+07
1.8681e+07
1.86316e+07
1.85811e+07
1.85296e+07
1.84771e+07
1.84236e+07
1.83691e+07
1.83138e+07
1.82575e+07
1.82003e+07
1.81422e+07
1.80833e+07
1.80236e+07
1.7963e+07
1.79017e+07
1.78395e+07
1.77767e+07
1.7713e+07
1.76486e+07
1.75835e+07
1.75177e+07
1.74512e+07
1.7384e+07
1.73161e+07
1.72475e+07
1.71782e+07
1.71083e+07
1.70377e+07
1.69665e+07
1.68946e+07
1.6822e+07
1.67488e+07
1.6675e+07
1.66005e+07
1.65254e+07
1.64496e+07
1.63732e+07
1.62962e+07
1.62185e+07
1.61401e+07
1.60612e+07
1.59816e+07
1.59013e+07
1.58204e+07
1.57389e+07
1.56567e+07
1.55739e+07
1.54904e+07
1.54063e+07
1.53216e+07
1.52363e+07
1.51503e+07
1.50638e+07
1.49767e+07
1.48891e+07
1.4801e+07
1.47124e+07
1.46234e+07
1.4534e+07
1.97524e+07
1.97524e+07
1.97525e+07
1.97525e+07
1.97526e+07
1.97527e+07
1.97528e+07
1.97529e+07
1.97531e+07
1.97532e+07
1.97534e+07
1.97536e+07
1.97538e+07
1.9754e+07
1.97543e+07
1.97546e+07
1.97548e+07
1.97551e+07
1.97554e+07
1.97557e+07
1.97561e+07
1.97564e+07
1.97567e+07
1.97571e+07
1.97574e+07
1.97578e+07
1.97582e+07
1.97585e+07
1.97589e+07
1.97593e+07
1.97596e+07
1.976e+07
1.97603e+07
1.97607e+07
1.9761e+07
1.97613e+07
1.97617e+07
1.97619e+07
1.97622e+07
1.97625e+07
1.97627e+07
1.97629e+07
1.97631e+07
1.97632e+07
1.97634e+07
1.97634e+07
1.97635e+07
1.97635e+07
1.97634e+07
1.97633e+07
1.97632e+07
1.9763e+07
1.97627e+07
1.97624e+07
1.9762e+07
1.97615e+07
1.97609e+07
1.97603e+07
1.97595e+07
1.97587e+07
1.97577e+07
1.97567e+07
1.97555e+07
1.97542e+07
1.97527e+07
1.97511e+07
1.97493e+07
1.97474e+07
1.97452e+07
1.97429e+07
1.97404e+07
1.97376e+07
1.97346e+07
1.97313e+07
1.97278e+07
1.97239e+07
1.97197e+07
1.97152e+07
1.97104e+07
1.97051e+07
1.96994e+07
1.96933e+07
1.96866e+07
1.96795e+07
1.96718e+07
1.96636e+07
1.96547e+07
1.96452e+07
1.9635e+07
1.9624e+07
1.96123e+07
1.95997e+07
1.95862e+07
1.95719e+07
1.95566e+07
1.95402e+07
1.95229e+07
1.95044e+07
1.94848e+07
1.94641e+07
1.94421e+07
1.94189e+07
1.93945e+07
1.93688e+07
1.93418e+07
1.93134e+07
1.92838e+07
1.92528e+07
1.92204e+07
1.91868e+07
1.91518e+07
1.91155e+07
1.90778e+07
1.90389e+07
1.89987e+07
1.89573e+07
1.89146e+07
1.88707e+07
1.88256e+07
1.87793e+07
1.8732e+07
1.86835e+07
1.86339e+07
1.85833e+07
1.85316e+07
1.8479e+07
1.84254e+07
1.83708e+07
1.83153e+07
1.82589e+07
1.82016e+07
1.81434e+07
1.80844e+07
1.80246e+07
1.79639e+07
1.79025e+07
1.78403e+07
1.77774e+07
1.77137e+07
1.76492e+07
1.75841e+07
1.75182e+07
1.74516e+07
1.73844e+07
1.73164e+07
1.72478e+07
1.71785e+07
1.71086e+07
1.7038e+07
1.69667e+07
1.68948e+07
1.68222e+07
1.6749e+07
1.66751e+07
1.66006e+07
1.65255e+07
1.64497e+07
1.63733e+07
1.62962e+07
1.62185e+07
1.61402e+07
1.60612e+07
1.59816e+07
1.59013e+07
1.58204e+07
1.57389e+07
1.56567e+07
1.55738e+07
1.54904e+07
1.54063e+07
1.53215e+07
1.52361e+07
1.51502e+07
1.50636e+07
1.49764e+07
1.48887e+07
1.48005e+07
1.47117e+07
1.46224e+07
1.45326e+07
1.97519e+07
1.97519e+07
1.9752e+07
1.9752e+07
1.97521e+07
1.97522e+07
1.97523e+07
1.97525e+07
1.97526e+07
1.97528e+07
1.9753e+07
1.97532e+07
1.97535e+07
1.97537e+07
1.9754e+07
1.97543e+07
1.97546e+07
1.97549e+07
1.97552e+07
1.97556e+07
1.97559e+07
1.97563e+07
1.97566e+07
1.9757e+07
1.97574e+07
1.97578e+07
1.97582e+07
1.97586e+07
1.9759e+07
1.97594e+07
1.97598e+07
1.97601e+07
1.97605e+07
1.97609e+07
1.97613e+07
1.97616e+07
1.9762e+07
1.97623e+07
1.97626e+07
1.97629e+07
1.97631e+07
1.97634e+07
1.97636e+07
1.97638e+07
1.97639e+07
1.9764e+07
1.97641e+07
1.97642e+07
1.97642e+07
1.97641e+07
1.9764e+07
1.97638e+07
1.97636e+07
1.97633e+07
1.97629e+07
1.97625e+07
1.9762e+07
1.97614e+07
1.97607e+07
1.97599e+07
1.9759e+07
1.9758e+07
1.97569e+07
1.97557e+07
1.97543e+07
1.97527e+07
1.9751e+07
1.97492e+07
1.97471e+07
1.97449e+07
1.97425e+07
1.97398e+07
1.97369e+07
1.97338e+07
1.97303e+07
1.97266e+07
1.97226e+07
1.97182e+07
1.97135e+07
1.97083e+07
1.97028e+07
1.96968e+07
1.96904e+07
1.96834e+07
1.96759e+07
1.96678e+07
1.96591e+07
1.96498e+07
1.96397e+07
1.96289e+07
1.96173e+07
1.96049e+07
1.95916e+07
1.95774e+07
1.95622e+07
1.9546e+07
1.95287e+07
1.95103e+07
1.94908e+07
1.94701e+07
1.94481e+07
1.9425e+07
1.94005e+07
1.93747e+07
1.93477e+07
1.93192e+07
1.92895e+07
1.92583e+07
1.92259e+07
1.91921e+07
1.91569e+07
1.91204e+07
1.90826e+07
1.90434e+07
1.9003e+07
1.89614e+07
1.89185e+07
1.88744e+07
1.88291e+07
1.87827e+07
1.87351e+07
1.86864e+07
1.86366e+07
1.85858e+07
1.8534e+07
1.84812e+07
1.84274e+07
1.83727e+07
1.8317e+07
1.82605e+07
1.82031e+07
1.81448e+07
1.80857e+07
1.80257e+07
1.7965e+07
1.79035e+07
1.78412e+07
1.77782e+07
1.77144e+07
1.76499e+07
1.75847e+07
1.75188e+07
1.74521e+07
1.73848e+07
1.73168e+07
1.72482e+07
1.71789e+07
1.71089e+07
1.70382e+07
1.69669e+07
1.6895e+07
1.68224e+07
1.67492e+07
1.66753e+07
1.66008e+07
1.65256e+07
1.64498e+07
1.63734e+07
1.62963e+07
1.62186e+07
1.61403e+07
1.60613e+07
1.59816e+07
1.59014e+07
1.58204e+07
1.57389e+07
1.56567e+07
1.55738e+07
1.54903e+07
1.54062e+07
1.53214e+07
1.5236e+07
1.515e+07
1.50634e+07
1.49761e+07
1.48883e+07
1.47999e+07
1.4711e+07
1.46214e+07
1.45312e+07
1.97514e+07
1.97514e+07
1.97514e+07
1.97515e+07
1.97516e+07
1.97517e+07
1.97518e+07
1.9752e+07
1.97522e+07
1.97524e+07
1.97526e+07
1.97528e+07
1.97531e+07
1.97533e+07
1.97536e+07
1.97539e+07
1.97543e+07
1.97546e+07
1.9755e+07
1.97553e+07
1.97557e+07
1.97561e+07
1.97565e+07
1.97569e+07
1.97573e+07
1.97578e+07
1.97582e+07
1.97586e+07
1.97591e+07
1.97595e+07
1.97599e+07
1.97603e+07
1.97607e+07
1.97612e+07
1.97616e+07
1.97619e+07
1.97623e+07
1.97627e+07
1.9763e+07
1.97633e+07
1.97636e+07
1.97639e+07
1.97642e+07
1.97644e+07
1.97646e+07
1.97647e+07
1.97649e+07
1.97649e+07
1.9765e+07
1.9765e+07
1.97649e+07
1.97648e+07
1.97646e+07
1.97644e+07
1.97641e+07
1.97637e+07
1.97632e+07
1.97627e+07
1.97621e+07
1.97613e+07
1.97605e+07
1.97596e+07
1.97585e+07
1.97574e+07
1.97561e+07
1.97546e+07
1.9753e+07
1.97513e+07
1.97493e+07
1.97472e+07
1.97449e+07
1.97423e+07
1.97396e+07
1.97365e+07
1.97332e+07
1.97297e+07
1.97258e+07
1.97216e+07
1.9717e+07
1.9712e+07
1.97067e+07
1.97009e+07
1.96946e+07
1.96879e+07
1.96805e+07
1.96727e+07
1.96642e+07
1.9655e+07
1.96451e+07
1.96345e+07
1.96231e+07
1.96109e+07
1.95978e+07
1.95837e+07
1.95686e+07
1.95526e+07
1.95354e+07
1.95171e+07
1.94977e+07
1.9477e+07
1.94551e+07
1.94319e+07
1.94074e+07
1.93816e+07
1.93544e+07
1.93259e+07
1.9296e+07
1.92648e+07
1.92321e+07
1.91981e+07
1.91627e+07
1.9126e+07
1.9088e+07
1.90486e+07
1.9008e+07
1.89661e+07
1.8923e+07
1.88786e+07
1.88331e+07
1.87864e+07
1.87386e+07
1.86897e+07
1.86398e+07
1.85887e+07
1.85367e+07
1.84837e+07
1.84297e+07
1.83748e+07
1.8319e+07
1.82623e+07
1.82048e+07
1.81463e+07
1.80871e+07
1.8027e+07
1.79662e+07
1.79046e+07
1.78422e+07
1.77791e+07
1.77152e+07
1.76507e+07
1.75854e+07
1.75194e+07
1.74527e+07
1.73853e+07
1.73173e+07
1.72486e+07
1.71792e+07
1.71092e+07
1.70385e+07
1.69672e+07
1.68952e+07
1.68226e+07
1.67494e+07
1.66755e+07
1.66009e+07
1.65258e+07
1.64499e+07
1.63735e+07
1.62964e+07
1.62187e+07
1.61403e+07
1.60613e+07
1.59817e+07
1.59014e+07
1.58205e+07
1.57389e+07
1.56567e+07
1.55738e+07
1.54903e+07
1.54061e+07
1.53213e+07
1.52359e+07
1.51498e+07
1.50631e+07
1.49758e+07
1.48879e+07
1.47993e+07
1.47102e+07
1.46204e+07
1.45298e+07
1.97507e+07
1.97507e+07
1.97508e+07
1.97509e+07
1.9751e+07
1.97511e+07
1.97512e+07
1.97514e+07
1.97516e+07
1.97518e+07
1.9752e+07
1.97523e+07
1.97526e+07
1.97529e+07
1.97532e+07
1.97536e+07
1.97539e+07
1.97543e+07
1.97547e+07
1.97551e+07
1.97555e+07
1.97559e+07
1.97564e+07
1.97568e+07
1.97573e+07
1.97577e+07
1.97582e+07
1.97587e+07
1.97591e+07
1.97596e+07
1.97601e+07
1.97605e+07
1.9761e+07
1.97614e+07
1.97619e+07
1.97623e+07
1.97627e+07
1.97631e+07
1.97635e+07
1.97639e+07
1.97642e+07
1.97645e+07
1.97648e+07
1.97651e+07
1.97653e+07
1.97655e+07
1.97657e+07
1.97658e+07
1.97659e+07
1.97659e+07
1.97659e+07
1.97658e+07
1.97657e+07
1.97655e+07
1.97653e+07
1.9765e+07
1.97646e+07
1.97641e+07
1.97636e+07
1.97629e+07
1.97622e+07
1.97613e+07
1.97604e+07
1.97593e+07
1.97581e+07
1.97567e+07
1.97552e+07
1.97536e+07
1.97518e+07
1.97497e+07
1.97476e+07
1.97451e+07
1.97425e+07
1.97396e+07
1.97365e+07
1.97331e+07
1.97294e+07
1.97253e+07
1.9721e+07
1.97162e+07
1.9711e+07
1.97054e+07
1.96994e+07
1.96928e+07
1.96858e+07
1.96781e+07
1.96698e+07
1.96609e+07
1.96512e+07
1.96409e+07
1.96297e+07
1.96177e+07
1.96047e+07
1.95908e+07
1.9576e+07
1.956e+07
1.9543e+07
1.95248e+07
1.95055e+07
1.94848e+07
1.9463e+07
1.94398e+07
1.94153e+07
1.93894e+07
1.93621e+07
1.93335e+07
1.93035e+07
1.9272e+07
1.92392e+07
1.9205e+07
1.91694e+07
1.91324e+07
1.90941e+07
1.90545e+07
1.90136e+07
1.89714e+07
1.8928e+07
1.88834e+07
1.88376e+07
1.87907e+07
1.87426e+07
1.86935e+07
1.86432e+07
1.8592e+07
1.85397e+07
1.84865e+07
1.84324e+07
1.83773e+07
1.83213e+07
1.82644e+07
1.82067e+07
1.81481e+07
1.80887e+07
1.80285e+07
1.79675e+07
1.79058e+07
1.78433e+07
1.77801e+07
1.77162e+07
1.76515e+07
1.75861e+07
1.75201e+07
1.74533e+07
1.73859e+07
1.73178e+07
1.72491e+07
1.71797e+07
1.71096e+07
1.70389e+07
1.69675e+07
1.68955e+07
1.68229e+07
1.67496e+07
1.66757e+07
1.66011e+07
1.65259e+07
1.64501e+07
1.63736e+07
1.62965e+07
1.62188e+07
1.61404e+07
1.60614e+07
1.59817e+07
1.59014e+07
1.58205e+07
1.57389e+07
1.56566e+07
1.55738e+07
1.54902e+07
1.54061e+07
1.53212e+07
1.52358e+07
1.51496e+07
1.50629e+07
1.49755e+07
1.48874e+07
1.47988e+07
1.47094e+07
1.46194e+07
1.45285e+07
1.975e+07
1.975e+07
1.975e+07
1.97501e+07
1.97502e+07
1.97504e+07
1.97505e+07
1.97507e+07
1.97509e+07
1.97512e+07
1.97514e+07
1.97517e+07
1.97521e+07
1.97524e+07
1.97528e+07
1.97531e+07
1.97535e+07
1.97539e+07
1.97544e+07
1.97548e+07
1.97553e+07
1.97557e+07
1.97562e+07
1.97567e+07
1.97572e+07
1.97577e+07
1.97582e+07
1.97587e+07
1.97592e+07
1.97598e+07
1.97603e+07
1.97608e+07
1.97613e+07
1.97618e+07
1.97622e+07
1.97627e+07
1.97632e+07
1.97636e+07
1.9764e+07
1.97644e+07
1.97648e+07
1.97652e+07
1.97655e+07
1.97658e+07
1.97661e+07
1.97664e+07
1.97666e+07
1.97668e+07
1.97669e+07
1.9767e+07
1.9767e+07
1.9767e+07
1.97669e+07
1.97668e+07
1.97666e+07
1.97664e+07
1.97661e+07
1.97657e+07
1.97652e+07
1.97646e+07
1.9764e+07
1.97632e+07
1.97623e+07
1.97614e+07
1.97603e+07
1.9759e+07
1.97576e+07
1.97561e+07
1.97544e+07
1.97526e+07
1.97505e+07
1.97482e+07
1.97458e+07
1.97431e+07
1.97401e+07
1.97369e+07
1.97333e+07
1.97295e+07
1.97253e+07
1.97208e+07
1.97159e+07
1.97105e+07
1.97047e+07
1.96984e+07
1.96915e+07
1.96841e+07
1.96761e+07
1.96674e+07
1.96581e+07
1.96479e+07
1.9637e+07
1.96252e+07
1.96125e+07
1.95988e+07
1.95842e+07
1.95684e+07
1.95515e+07
1.95335e+07
1.95142e+07
1.94937e+07
1.94718e+07
1.94486e+07
1.94241e+07
1.93981e+07
1.93708e+07
1.9342e+07
1.93118e+07
1.92801e+07
1.92471e+07
1.92126e+07
1.91768e+07
1.91395e+07
1.91009e+07
1.9061e+07
1.90198e+07
1.89774e+07
1.89336e+07
1.88887e+07
1.88426e+07
1.87954e+07
1.8747e+07
1.86976e+07
1.86471e+07
1.85956e+07
1.85431e+07