/*--------------------------------*- C++ -*----------------------------------*\
  =========                 |
  \\      /  F ield         | OpenFOAM: The Open Source CFD Toolbox
   \\    /   O peration     | Website:  https://openfoam.org
    \\  /    A nd           | Version:  10
     \\/     M anipulation  |
\*---------------------------------------------------------------------------*/
FoamFile
{
    format      ascii;
    class       volScalarField;
    location    "0.016";
    object      p;
}
// * * * * * * * * * * * * * * * * * * * * * * * * * * * * * * * * * * * * * //

dimensions      [0 2 -2 0 0 0 0];

internalField   nonuniform List<scalar> 
4000
(
6.53385
6.53347
6.53255
6.5308
6.52837
6.5252
6.52146
6.51697
6.51192
6.50608
6.49968
6.49245
6.48464
6.47598
6.46675
6.45661
6.44592
6.43428
6.42207
6.40887
6.3951
6.38026
6.36483
6.34827
6.33108
6.31266
6.29357
6.27315
6.25199
6.22938
6.20596
6.18094
6.15504
6.12737
6.0987
6.06809
6.03636
6.00249
5.96735
5.92985
5.89091
5.84937
5.8062
5.76015
5.71227
5.66121
5.60808
5.55144
5.49247
5.42965
5.36421
5.29453
5.22193
5.14469
5.06418
4.97861
4.88942
4.79473
4.69605
4.59142
4.48243
4.36704
4.24692
4.11996
3.98793
3.84865
3.70401
3.55176
3.39393
3.22822
3.05681
2.87737
2.69224
2.49909
2.30043
2.09393
1.88231
1.66327
1.43974
1.20943
0.975479
0.73566
0.493279
0.246175
-0.00221749
-0.253987
-0.505621
-0.759138
-1.01102
-1.2632
-1.51224
-1.76
-2.00316
-2.24352
-2.47796
-2.70819
-2.93136
-3.14908
-3.3588
-3.56202
-3.75652
-3.94368
-4.12165
-4.29163
-4.45216
-4.60427
-4.74688
-4.88082
-5.0054
-5.12123
-5.228
-5.32605
-5.41542
-5.49621
-5.56879
-5.63303
-5.68962
-5.73816
-5.77965
-5.8134
-5.8407
-5.86057
-5.87455
-5.88135
-5.88278
-5.87722
-5.86675
-5.84938
-5.82752
-5.79881
-5.76595
-5.72622
-5.68269
-5.63223
-5.57829
-5.51736
-5.4533
-5.38223
-5.30839
-5.22756
-5.14441
-5.05435
-4.96248
-4.86388
-4.76406
-4.6578
-4.55097
-4.43808
-4.32534
-4.20703
-4.08963
-3.96723
-3.8465
-3.7214
-3.59874
-3.47237
-3.34917
-3.22292
-3.10052
-2.97573
-2.85536
-2.73322
-2.61599
-2.49756
-2.38442
-2.27057
-2.16229
-2.05371
-1.95089
-1.84808
-1.75111
-1.65441
-1.56353
-1.47308
-1.38837
-1.30419
-1.22559
-1.14755
-1.07487
-1.00273
-0.935695
-0.869121
-0.807371
-0.745965
-0.689073
-0.632372
-0.579861
-0.527354
-0.478705
-0.429842
-0.384509
-0.338728
-0.29616
-0.252906
-0.212564
-0.171347
-0.13265
-0.0938684
-0.0541911
-0.0203279
6.53646
6.53608
6.53516
6.53343
6.531
6.52784
6.52409
6.51963
6.51457
6.50877
6.50237
6.49518
6.48739
6.47878
6.46957
6.4595
6.44884
6.43728
6.42512
6.41202
6.39831
6.3836
6.36825
6.35183
6.33474
6.31649
6.29752
6.2773
6.25629
6.23391
6.21067
6.18592
6.16021
6.13285
6.10441
6.07415
6.04268
6.0092
5.97436
5.93728
5.89868
5.85761
5.81481
5.76928
5.7218
5.6713
5.6186
5.56257
5.50407
5.44188
5.37693
5.30792
5.23582
5.15927
5.07928
4.9944
4.90572
4.81172
4.71352
4.60954
4.50097
4.38617
4.26638
4.13991
4.00809
3.86915
3.72453
3.57244
3.4144
3.24859
3.07669
2.89684
2.71087
2.51695
2.31706
2.1094
1.89615
1.67554
1.44995
1.21769
0.981301
0.739191
0.494063
0.244414
-0.00693023
-0.261383
-0.516047
-0.772257
-1.02711
-1.28187
-1.5337
-1.7838
-2.02946
-2.27184
-2.50842
-2.74029
-2.96518
-3.18414
-3.39515
-3.5992
-3.79457
-3.98218
-4.16061
-4.33069
-4.49133
-4.64322
-4.78563
-4.91909
-5.04321
-5.15838
-5.2645
-5.36177
-5.45037
-5.53031
-5.60203
-5.66539
-5.72109
-5.76877
-5.80938
-5.84236
-5.86884
-5.88805
-5.90131
-5.9076
-5.90844
-5.90252
-5.89157
-5.87401
-5.85177
-5.82299
-5.78982
-5.75012
-5.7063
-5.65591
-5.60165
-5.5408
-5.47635
-5.40528
-5.33093
-5.25
-5.16616
-5.07586
-4.98311
-4.88411
-4.78319
-4.67636
-4.56822
-4.45461
-4.34037
-4.2212
-4.10215
-3.97878
-3.8563
-3.73018
-3.60572
-3.47832
-3.35332
-3.22609
-3.10195
-2.97624
-2.85424
-2.7313
-2.61259
-2.4935
-2.37905
-2.26469
-2.15528
-2.04637
-1.9426
-1.83962
-1.74189
-1.64518
-1.55372
-1.46341
-1.37828
-1.29438
-1.2155
-1.13784
-1.06502
-0.993363
-0.9263
-0.860285
-0.798596
-0.737809
-0.681055
-0.625021
-0.572708
-0.520905
-0.472499
-0.424365
-0.379309
-0.334274
-0.292005
-0.249506
-0.209472
-0.16901
-0.130621
-0.0925231
-0.0533919
-0.0200257
6.54169
6.54132
6.5404
6.53867
6.53625
6.53311
6.52937
6.52493
6.5199
6.51412
6.50776
6.50062
6.49289
6.48434
6.47521
6.46524
6.45468
6.44325
6.43122
6.41828
6.40473
6.39021
6.37507
6.35889
6.34204
6.32409
6.30542
6.28554
6.26488
6.2429
6.22007
6.19579
6.17055
6.14372
6.11583
6.08617
6.05532
6.02252
5.98837
5.95205
5.91422
5.87398
5.83204
5.78742
5.74087
5.69137
5.63968
5.58471
5.52729
5.46624
5.40242
5.33461
5.26369
5.18837
5.10958
5.02596
4.93848
4.8457
4.74865
4.64583
4.53832
4.42455
4.30566
4.18001
4.04883
3.91043
3.76611
3.61415
3.45596
3.28977
3.11714
2.93628
2.7489
2.55323
2.35114
2.14092
1.92462
1.7006
1.47111
1.23461
0.993543
0.746473
0.496036
0.240894
-0.0161767
-0.276413
-0.536957
-0.798964
-1.05957
-1.31987
-1.57706
-1.8322
-2.08262
-2.32936
-2.56994
-2.80538
-3.03344
-3.2551
-3.46842
-3.67432
-3.87117
-4.05982
-4.23896
-4.40935
-4.57
-4.72157
-4.86339
-4.99601
-5.11907
-5.23299
-5.33773
-5.43349
-5.52046
-5.59869
-5.66864
-5.73021
-5.78408
-5.82999
-5.86885
-5.90018
-5.92508
-5.94286
-5.95479
-5.95993
-5.95972
-5.95295
-5.94124
-5.92312
-5.90037
-5.87125
-5.83776
-5.79788
-5.75383
-5.70332
-5.64884
-5.5878
-5.52301
-5.4516
-5.37669
-5.29516
-5.21046
-5.11923
-5.02524
-4.92492
-4.82237
-4.71382
-4.60366
-4.48795
-4.37133
-4.24974
-4.12803
-4.002
-3.87666
-3.74775
-3.62034
-3.49011
-3.36219
-3.2322
-3.10525
-2.97696
-2.85236
-2.72709
-2.60605
-2.48493
-2.36848
-2.25244
-2.14139
-2.03114
-1.92609
-1.82215
-1.7235
-1.62617
-1.53412
-1.44352
-1.35811
-1.27419
-1.19532
-1.11791
-1.04533
-0.974129
-0.90751
-0.842132
-0.781053
-0.721048
-0.665034
-0.609897
-0.558429
-0.507609
-0.460126
-0.413039
-0.36896
-0.325017
-0.283763
-0.242385
-0.203389
-0.164062
-0.126725
-0.0897468
-0.0517445
-0.0194252
6.54955
6.54917
6.54826
6.54654
6.54413
6.54099
6.53728
6.53285
6.52786
6.52212
6.51581
6.50874
6.50108
6.49264
6.48362
6.47378
6.46337
6.45211
6.44028
6.42756
6.41426
6.40002
6.38519
6.36935
6.35289
6.33535
6.31713
6.29775
6.27763
6.25624
6.23403
6.21043
6.18592
6.15987
6.13281
6.10403
6.07413
6.04232
6.00922
5.97402
5.93737
5.89836
5.85771
5.81445
5.76932
5.72129
5.67114
5.61776
5.56198
5.50263
5.44056
5.37453
5.30544
5.23197
5.15505
5.0733
4.9877
4.89677
4.80155
4.7005
4.59469
4.4825
4.36507
4.24073
4.11066
3.97313
3.82942
3.67774
3.51947
3.3528
3.17921
2.9969
2.8075
2.60924
2.40391
2.1898
1.96893
1.73966
1.50424
1.26116
1.01292
0.758118
0.499476
0.23574
-0.0302056
-0.299495
-0.569148
-0.840212
-1.1097
-1.37861
-1.64404
-1.90697
-2.16466
-2.41807
-2.66471
-2.90554
-3.13834
-3.36404
-3.58075
-3.78936
-3.9883
-4.17842
-4.35845
-4.52918
-4.68968
-4.84062
-4.9814
-5.11257
-5.23387
-5.34575
-5.44822
-5.54151
-5.62586
-5.70134
-5.76845
-5.82714
-5.87814
-5.92123
-5.95736
-5.98609
-6.00856
-6.02412
-6.03403
-6.03741
-6.03565
-6.02761
-6.01483
-5.99589
-5.97249
-5.94293
-5.90911
-5.86904
-5.82484
-5.77422
-5.71959
-5.65837
-5.59327
-5.52142
-5.44586
-5.36348
-5.27765
-5.18502
-5.08933
-4.987
-4.8821
-4.77089
-4.65775
-4.53877
-4.41862
-4.29323
-4.16752
-4.03732
-3.90768
-3.77436
-3.64252
-3.50784
-3.37552
-3.2412
-3.11005
-2.97769
-2.84922
-2.72028
-2.59581
-2.47149
-2.35212
-2.23342
-2.12
-2.00767
-1.9008
-1.79533
-1.69541
-1.59709
-1.50429
-1.41318
-1.32749
-1.24351
-1.16477
-1.08768
-1.01559
-0.945036
-0.879195
-0.814739
-0.754678
-0.695811
-0.641007
-0.587175
-0.537063
-0.487676
-0.441658
-0.396098
-0.353562
-0.311209
-0.27155
-0.231802
-0.194431
-0.156755
-0.121059
-0.0857198
-0.0494019
-0.0185528
6.56001
6.55964
6.55872
6.55701
6.5546
6.55148
6.54777
6.54338
6.53841
6.53273
6.52648
6.51948
6.51192
6.50359
6.49471
6.48503
6.47481
6.46377
6.45219
6.43976
6.42678
6.41291
6.39848
6.38309
6.36713
6.35013
6.33251
6.31378
6.29437
6.27375
6.25237
6.22966
6.20612
6.18109
6.15513
6.12752
6.09886
6.06837
6.03668
6.00296
5.96787
5.93051
5.89159
5.85013
5.8069
5.76084
5.71275
5.66151
5.60795
5.55088
5.49117
5.42756
5.36094
5.28999
5.21563
5.13646
5.05345
4.9651
4.87242
4.77385
4.67043
4.56053
4.44522
4.32281
4.19441
4.05827
3.91558
3.76452
3.60638
3.43928
3.26464
3.08059
2.88868
2.68707
2.4775
2.2582
2.03117
1.79474
1.55119
1.299
1.04076
0.775141
0.504985
0.229152
-0.0492911
-0.331341
-0.61381
-0.897605
-1.17954
-1.46048
-1.73736
-2.01106
-2.27873
-2.54127
-2.79611
-3.0442
-3.28328
-3.51432
-3.7354
-3.94748
-4.14899
-4.34083
-4.5218
-4.69273
-4.85273
-5.00255
-5.14163
-5.2706
-5.38926
-5.49814
-5.5973
-5.68702
-5.76758
-5.8391
-5.90216
-5.95675
-6.00368
-6.0428
-6.07508
-6.1002
-6.11929
-6.13179
-6.13894
-6.13993
-6.13612
-6.12641
-6.11228
-6.09235
-6.06823
-6.03824
-6.00418
-5.96405
-5.91987
-5.86935
-5.81478
-5.75355
-5.68828
-5.61607
-5.53987
-5.45653
-5.36937
-5.275
-5.17713
-5.07214
-4.96414
-4.84931
-4.73214
-4.60865
-4.48363
-4.35298
-4.22175
-4.08572
-3.95012
-3.81065
-3.67265
-3.53177
-3.39335
-3.253
-3.11605
-2.97807
-2.84428
-2.71028
-2.58112
-2.45244
-2.3291
-2.2068
-2.09019
-1.97505
-1.86578
-1.75828
-1.65671
-1.55709
-1.46335
-1.37163
-1.28563
-1.20164
-1.12314
-1.04656
-0.97518
-0.905565
-0.840834
-0.777667
-0.719032
-0.661735
-0.608602
-0.556556
-0.508302
-0.460862
-0.416837
-0.373338
-0.332892
-0.292678
-0.25517
-0.217609
-0.182422
-0.146954
-0.113462
-0.0803178
-0.0462558
-0.0173777
6.57308
6.5727
6.57178
6.57006
6.56765
6.56453
6.56083
6.55646
6.55152
6.54588
6.5397
6.53278
6.52532
6.51712
6.50839
6.4989
6.4889
6.47811
6.46683
6.45474
6.44215
6.42871
6.41477
6.39993
6.38457
6.36824
6.35135
6.33342
6.31488
6.29519
6.27484
6.25323
6.23087
6.20711
6.18251
6.15636
6.12924
6.1004
6.07045
6.03857
6.00542
5.97011
5.93335
5.89416
5.8533
5.80973
5.76422
5.71568
5.66492
5.61075
5.55403
5.4935
5.43005
5.36233
5.29127
5.21543
5.13578
5.0508
4.96147
4.86621
4.76601
4.65921
4.54683
4.42713
4.30116
4.16711
4.02608
3.87618
3.71859
3.55137
3.3758
3.18992
2.99517
2.78961
2.57488
2.34914
2.11431
1.86869
1.61456
1.35043
1.07896
0.79892
0.513349
0.221274
-0.0739787
-0.373187
-0.672869
-0.973708
-1.27224
-1.56914
-1.86112
-2.14893
-2.42955
-2.70384
-2.96912
-3.22634
-3.47322
-3.71076
-3.93707
-4.15315
-4.35751
-4.55111
-4.73281
-4.90351
-5.06242
-5.21034
-5.34681
-5.47252
-5.58741
-5.69205
-5.78659
-5.87133
-5.94666
-6.01273
-6.07024
-6.11924
-6.16064
-6.19436
-6.22148
-6.24174
-6.25633
-6.26478
-6.26833
-6.26624
-6.25984
-6.24809
-6.23238
-6.21138
-6.18657
-6.15632
-6.12226
-6.08243
-6.03868
-5.98871
-5.93465
-5.87387
-5.80883
-5.7366
-5.66
-5.57582
-5.48732
-5.39101
-5.29059
-5.18238
-5.07051
-4.95113
-4.82878
-4.69946
-4.56809
-4.43053
-4.29202
-4.1483
-4.00482
-3.85723
-3.7111
-3.56202
-3.41557
-3.26731
-3.12274
-2.9774
-2.83668
-2.69611
-2.56088
-2.42658
-2.29817
-2.17128
-2.05064
-1.93196
-1.8197
-1.7097
-1.60613
-1.50497
-1.41015
-1.31776
-1.2315
-1.1476
-1.06954
-0.993702
-0.923352
-0.855027
-0.791803
-0.73036
-0.673613
-0.618378
-0.567428
-0.5177
-0.471846
-0.426909
-0.385441
-0.344576
-0.30679
-0.269294
-0.234512
-0.199718
-0.167291
-0.134608
-0.103891
-0.0735102
-0.0422816
-0.0158969
6.58874
6.58836
6.58742
6.58569
6.58326
6.58013
6.57643
6.57205
6.56713
6.56152
6.55538
6.54854
6.54118
6.5331
6.52453
6.51524
6.50547
6.49497
6.48402
6.47231
6.46016
6.44722
6.43384
6.41963
6.40496
6.38941
6.37337
6.35637
6.33886
6.32028
6.30113
6.28081
6.25985
6.2376
6.21461
6.19017
6.16489
6.13799
6.11012
6.08043
6.04962
6.01676
5.98258
5.94611
5.90811
5.86752
5.82515
5.77986
5.7325
5.68185
5.62879
5.57202
5.51247
5.44873
5.38176
5.31008
5.23465
5.15392
5.06887
4.97785
4.88184
4.77912
4.67067
4.55467
4.43213
4.30112
4.16267
4.01478
3.8585
3.69177
3.51572
3.32826
3.13064
2.92078
2.70017
2.46683
2.22256
1.96559
1.69815
1.41879
1.13026
0.831478
0.525733
0.212317
-0.105064
-0.42685
-0.749133
-1.07226
-1.39238
-1.7099
-2.02121
-2.32691
-2.62377
-2.9126
-3.19061
-3.45879
-3.71483
-3.95983
-4.19193
-4.41226
-4.61939
-4.8144
-4.99625
-5.16594
-5.3228
-5.46769
-5.60029
-5.72137
-5.83103
-5.92987
-6.01815
-6.0962
-6.16451
-6.22332
-6.27343
-6.31502
-6.3491
-6.37573
-6.39607
-6.41001
-6.41877
-6.42201
-6.42099
-6.41508
-6.40551
-6.39138
-6.37393
-6.35191
-6.32662
-6.29649
-6.26294
-6.22405
-6.18144
-6.13281
-6.08007
-6.02056
-5.95652
-5.88497
-5.80856
-5.72397
-5.63436
-5.53613
-5.43296
-5.32105
-5.2046
-5.07963
-4.95087
-4.8142
-4.67478
-4.52839
-4.38055
-4.22694
-4.07331
-3.91526
-3.75866
-3.59906
-3.44232
-3.28392
-3.12966
-2.97498
-2.82549
-2.67667
-2.53385
-2.39256
-2.25788
-2.12536
-1.99981
-1.87688
-1.76106
-1.64812
-1.54225
-1.43938
-1.3434
-1.25038
-1.16397
-1.08038
-1.00303
-0.928284
-0.859352
-0.792761
-0.731522
-0.672318
-0.617998
-0.565387
-0.517194
-0.470375
-0.427515
-0.385688
-0.347378
-0.309755
-0.275234
-0.241061
-0.209605
-0.178175
-0.149099
-0.11979
-0.0924313
-0.0653857
-0.0375607
-0.014158
6.60701
6.60662
6.60566
6.60389
6.60142
6.59825
6.59451
6.59011
6.58518
6.57957
6.57345
6.56665
6.55937
6.55141
6.54299
6.53389
6.52436
6.51416
6.50355
6.49225
6.48058
6.46819
6.45543
6.44191
6.42803
6.41334
6.39827
6.38232
6.36596
6.34864
6.33086
6.31202
6.29266
6.27212
6.25098
6.22852
6.20535
6.1807
6.15523
6.12808
6.09996
6.06995
6.03878
6.00548
5.97081
5.93372
5.89502
5.85356
5.81021
5.76372
5.71501
5.66273
5.60782
5.54887
5.48684
5.4202
5.34994
5.27444
5.19469
5.10899
5.0183
4.92083
4.81752
4.70648
4.58862
4.46195
4.32736
4.18273
4.02895
3.86381
3.68822
3.4999
3.29985
3.08578
2.8589
2.61703
2.36175
2.09114
1.80734
1.50887
1.19862
0.875687
0.543731
0.202461
-0.143861
-0.495143
-0.846857
-1.19886
-1.54674
-1.89054
-2.22626
-2.55428
-2.87111
-3.17751
-3.47062
-3.75149
-4.01783
-4.27089
-4.50892
-4.73321
-4.94247
-5.13795
-5.31877
-5.48605
-5.63928
-5.77944
-5.90634
-6.02091
-6.12338
-6.21441
-6.29433
-6.3635
-6.42255
-6.47183
-6.51229
-6.54421
-6.56879
-6.58622
-6.59781
-6.60361
-6.60494
-6.60162
-6.59489
-6.5843
-6.571
-6.55417
-6.53491
-6.51207
-6.48672
-6.45736
-6.42514
-6.3882
-6.34785
-6.30182
-6.25169
-6.19479
-6.13305
-6.0634
-5.98822
-5.90411
-5.814
-5.71419
-5.60826
-5.4923
-5.37053
-5.23891
-5.10229
-4.9565
-4.80697
-4.64944
-4.48975
-4.32356
-4.15701
-3.98566
-3.81576
-3.64283
-3.47307
-3.30195
-3.13553
-2.96921
-2.80886
-2.64986
-2.49776
-2.34798
-2.20573
-2.0665
-1.93515
-1.80725
-1.68733
-1.57108
-1.4627
-1.35802
-1.26093
-1.16743
-1.08111
-0.998157
-0.921914
-0.848729
-0.781726
-0.717426
-0.658759
-0.602411
-0.551149
-0.501813
-0.457031
-0.413783
-0.37458
-0.336522
-0.302028
-0.268299
-0.237687
-0.207477
-0.179975
-0.152536
-0.127427
-0.102105
-0.0787113
-0.0556116
-0.0318319
-0.0120245
6.62793
6.62752
6.62652
6.62468
6.62214
6.61889
6.61507
6.61059
6.6056
6.59995
6.59381
6.58702
6.57977
6.57189
6.56359
6.55466
6.54537
6.53545
6.52519
6.51432
6.50314
6.49132
6.47923
6.46646
6.45343
6.43969
6.42566
6.41088
6.39579
6.37986
6.3636
6.34641
6.32883
6.31021
6.29113
6.27088
6.25009
6.22797
6.2052
6.18092
6.15585
6.12906
6.10132
6.07162
6.04076
6.00767
5.97318
5.93612
5.8974
5.85572
5.81205
5.76499
5.71554
5.66221
5.606
5.54535
5.48127
5.41208
5.33878
5.25961
5.17553
5.08467
4.98796
4.8834
4.77184
4.65118
4.52219
4.3826
4.2331
4.07129
3.89779
3.71007
3.50876
3.29125
3.05833
2.80749
2.53989
2.25335
1.94975
1.62756
1.28973
0.935675
0.569582
0.191848
-0.192381
-0.582163
-0.972063
-1.36121
-1.74449
-2.12145
-2.48759
-2.84304
-3.18408
-3.51141
-3.82214
-4.11742
-4.39508
-4.65657
-4.9003
-5.12782
-5.33803
-5.53242
-5.7103
-5.87302
-6.02025
-6.15312
-6.2717
-6.37705
-6.46958
-6.54993
-6.61856
-6.67587
-6.72266
-6.75938
-6.78719
-6.80651
-6.81872
-6.82424
-6.82454
-6.81992
-6.81181
-6.80026
-6.78652
-6.77033
-6.7527
-6.73298
-6.71204
-6.68884
-6.66416
-6.63661
-6.60701
-6.57355
-6.5372
-6.49569
-6.45021
-6.39802
-6.34066
-6.27492
-6.20282
-6.12074
-6.03138
-5.93082
-5.82251
-5.70235
-5.57464
-5.43518
-5.28906
-5.13204
-4.9699
-4.79835
-4.6237
-4.44161
-4.25869
-4.07053
-3.88386
-3.69416
-3.50813
-3.32113
-3.13966
-2.95902
-2.78538
-2.61403
-2.45075
-2.29084
-2.13966
-1.99258
-1.85455
-1.72103
-1.59655
-1.47673
-1.36573
-1.2593
-1.16127
-1.06759
-0.981771
-0.899943
-0.825363
-0.75435
-0.689933
-0.628617
-0.573237
-0.520479
-0.473016
-0.427701
-0.387071
-0.348133
-0.313312
-0.279744
-0.249767
-0.220625
-0.194596
-0.169012
-0.146111
-0.123298
-0.102775
-0.0820489
-0.0632147
-0.0446342
-0.0254478
-0.00968143
6.65156
6.65112
6.65005
6.64812
6.64544
6.64204
6.63807
6.63345
6.62832
6.62256
6.61633
6.60948
6.60222
6.59436
6.58614
6.57734
6.56824
6.55858
6.54866
6.5382
6.52752
6.51629
6.50488
6.49291
6.48077
6.46803
6.45513
6.44159
6.42788
6.41346
6.39884
6.38344
6.36781
6.35129
6.33447
6.31666
6.29848
6.27915
6.25937
6.23826
6.21658
6.19339
6.16946
6.14379
6.1172
6.08859
6.05885
6.02677
5.99328
5.95708
5.91914
5.87807
5.83487
5.78802
5.73858
5.68491
5.62807
5.56633
5.50072
5.42941
5.35339
5.27069
5.18226
5.086
4.98272
4.87019
4.74905
4.61692
4.47423
4.31836
4.14958
3.96502
3.76478
3.54579
3.30816
3.04881
2.76818
2.46355
2.13631
1.78468
1.41167
1.01709
0.605985
0.17998
-0.254266
-0.694322
-1.13336
-1.56947
-1.99664
-2.41386
-2.81618
-3.20358
-3.57224
-3.92302
-4.2531
-4.56392
-4.85347
-5.12349
-5.37261
-5.60266
-5.81275
-6.00465
-6.17787
-6.334
-6.47291
-6.59596
-6.7035
-6.79675
-6.87622
-6.94254
-6.99633
-7.03808
-7.0688
-7.08905
-7.10023
-7.10296
-7.09891
-7.08875
-7.07426
-7.05604
-7.03575
-7.01373
-6.99131
-6.96839
-6.94587
-6.92319
-6.90093
-6.87815
-6.85532
-6.83114
-6.80605
-6.77834
-6.74854
-6.71441
-6.67664
-6.63238
-6.58263
-6.52393
-6.4578
-6.38032
-6.29375
-6.19389
-6.08397
-5.95967
-5.82531
-5.67656
-5.51881
-5.34776
-5.16969
-4.98033
-4.78661
-4.58424
-4.38049
-4.17098
-3.9631
-3.75234
-3.54593
-3.33924
-3.1392
-2.94105
-2.75129
-2.56512
-2.38854
-2.21673
-2.05519
-1.89915
-1.7536
-1.61389
-1.48454
-1.36104
-1.24751
-1.13959
-1.04104
-0.947698
-0.863001
-0.783007
-0.710862
-0.642844
-0.581866
-0.524414
-0.473209
-0.424935
-0.382155
-0.341739
-0.306122
-0.272338
-0.242718
-0.214438
-0.189751
-0.165946
-0.145225
-0.124972
-0.107355
-0.0898319
-0.0745423
-0.0590481
-0.0454012
-0.0319661
-0.0180336
-0.0069348
6.67803
6.67754
6.67638
6.67427
6.67138
6.66775
6.66353
6.65866
6.6533
6.64732
6.64091
6.63391
6.62654
6.61863
6.61041
6.60168
6.59271
6.58326
6.57364
6.56356
6.55337
6.54272
6.532
6.52084
6.50962
6.49793
6.48621
6.47398
6.46172
6.44891
6.43605
6.42256
6.40901
6.39475
6.38038
6.36519
6.34984
6.33354
6.317
6.29937
6.28139
6.26212
6.24239
6.22114
6.19927
6.17563
6.15114
6.12459
6.09694
6.06685
6.03536
6.00101
5.96487
5.92538
5.88364
5.83796
5.78947
5.73636
5.67974
5.61768
5.55126
5.47842
5.40015
5.31425
5.22154
5.11968
5.00925
4.88768
4.75522
4.60903
4.44893
4.27169
4.07666
3.86016
3.62121
3.35574
3.06283
2.73859
2.38321
1.99423
1.5745
1.12457
0.651053
0.157969
-0.345052
-0.852851
-1.35629
-1.85189
-2.33243
-2.79636
-3.23853
-3.65928
-4.05524
-4.428
-4.77533
-5.09933
-5.39841
-5.6748
-5.92736
-6.15822
-6.36667
-6.55468
-6.7219
-6.87008
-6.99926
-7.11102
-7.20591
-7.28509
-7.3491
-7.39853
-7.43416
-7.45653
-7.46693
-7.46605
-7.4556
-7.43648
-7.41074
-7.37947
-7.34487
-7.30813
-7.27127
-7.23517
-7.20126
-7.16967
-7.14102
-7.11482
-7.09124
-7.06948
-7.04958
-7.03047
-7.01217
-6.99317
-6.97348
-6.95092
-6.92554
-6.8943
-6.85743
-6.81109
-6.75599
-6.6877
-6.60784
-6.51171
-6.40223
-6.2747
-6.13349
-5.97412
-5.80236
-5.61394
-5.41583
-5.20387
-4.98583
-4.75758
-4.52728
-4.29067
-4.05597
-3.81873
-3.58689
-3.3558
-3.13294
-2.91348
-2.70431
-2.50047
-2.30824
-2.1226
-1.94921
-1.78308
-1.62927
-1.48293
-1.34856
-1.22148
-1.10573
-0.996813
-0.898374
-0.806155
-0.723446
-0.646232
-0.577516
-0.513529
-0.45704
-0.404514
-0.358534
-0.315784
-0.278703
-0.244174
-0.214523
-0.186813
-0.163277
-0.141132
-0.122542
-0.104848
-0.0901751
-0.0759611
-0.0643051
-0.0527254
-0.043297
-0.0336414
-0.0257704
-0.0180462
-0.00991157
-0.00394535
6.70755
6.70699
6.70566
6.70329
6.70007
6.69606
6.69145
6.68619
6.68045
6.67412
6.66739
6.66012
6.65253
6.64446
6.63614
6.62738
6.61847
6.60916
6.59977
6.59002
6.58026
6.57017
6.56012
6.54975
6.53945
6.52883
6.51831
6.50744
6.49669
6.48554
6.47452
6.46305
6.45169
6.43981
6.42802
6.41563
6.40329
6.39022
6.37716
6.36324
6.34925
6.33423
6.31902
6.30259
6.28583
6.2676
6.24887
6.22837
6.20714
6.18379
6.15942
6.13252
6.10424
6.07295
6.03983
6.00313
5.96407
5.92076
5.87441
5.82302
5.76777
5.70652
5.64036
5.56703
5.48742
5.3991
5.30267
5.19546
5.0776
4.94603
4.80021
4.63651
4.45351
4.24674
4.01378
3.74912
3.44948
3.1085
2.7232
2.28837
1.80516
1.275
0.707952
0.113333
-0.493161
-1.10158
-1.69905
-2.27937
-2.83307
-3.35758
-3.84768
-4.30476
-4.72694
-5.11762
-5.47616
-5.80621
-6.10722
-6.38235
-6.63095
-6.85564
-7.05587
-7.23387
-7.38938
-7.52431
-7.63882
-7.73469
-7.81243
-7.87305
-7.91699
-7.94476
-7.95723
-7.95499
-7.93963
-7.91187
-7.87383
-7.82654
-7.77255
-7.71338
-7.65203
-7.5905
-7.53181
-7.47765
-7.4297
-7.38801
-7.35254
-7.32258
-7.29776
-7.27736
-7.26108
-7.24819
-7.23841
-7.23061
-7.22435
-7.21758
-7.20959
-7.19709
-7.17923
-7.15153
-7.1135
-7.05989
-6.9913
-6.90231
-6.79525
-6.66498
-6.51589
-6.34335
-6.1537
-5.9428
-5.71856
-5.47715
-5.22746
-4.96569
-4.70117
-4.42991
-4.16114
-3.8906
-3.62705
-3.36587
-3.11516
-2.87
-2.6377
-2.41313
-2.20278
-2.00143
-1.8148
-1.63771
-1.47516
-1.32208
-1.1829
-1.05273
-0.935465
-0.826462
-0.729189
-0.63926
-0.55979
-0.486669
-0.422727
-0.364128
-0.31348
-0.26721
-0.227755
-0.191786
-0.161612
-0.134128
-0.111544
-0.0909509
-0.0744849
-0.0594034
-0.0477884
-0.0370314
-0.0291848
-0.0217436
-0.0167465
-0.0117704
-0.00883758
-0.00562975
-0.00413001
-0.00270014
-0.000957619
-0.000652661
6.74045
6.73978
6.73819
6.73542
6.73168
6.72708
6.72186
6.71601
6.70969
6.70283
6.69563
6.68794
6.67999
6.67162
6.66308
6.65418
6.64522
6.63596
6.62671
6.61723
6.60784
6.59825
6.58882
6.57921
6.56981
6.56023
6.5509
6.54138
6.53214
6.52267
6.5135
6.50407
6.49495
6.48551
6.47639
6.46687
6.45765
6.44796
6.43854
6.42852
6.41873
6.4082
6.39781
6.3865
6.37523
6.36282
6.35028
6.33634
6.32206
6.30605
6.28945
6.27071
6.25105
6.22878
6.20519
6.17843
6.14984
6.11745
6.08261
6.04323
6.00065
5.95266
5.90054
5.84194
5.77799
5.7062
5.62736
5.53875
5.44059
5.32971
5.20536
5.06359
4.90221
4.71599
4.5009
4.24996
3.95723
3.61354
3.2112
2.73864
2.18934
1.5597
0.862873
0.118896
-0.645191
-1.41179
-2.16172
-2.88236
-3.55843
-4.18403
-4.75299
-5.26783
-5.72882
-6.14216
-6.51002
-6.83879
-7.13033
-7.38984
-7.61838
-7.8199
-7.99486
-8.14601
-8.27336
-8.37921
-8.46404
-8.52953
-8.57601
-8.60428
-8.61466
-8.6075
-8.58371
-8.54387
-8.48976
-8.42213
-8.34337
-8.25457
-8.15861
-8.05742
-7.95522
-7.85573
-7.76409
-7.6842
-7.61811
-7.56476
-7.52241
-7.48966
-7.46543
-7.4492
-7.44039
-7.43885
-7.44411
-7.45561
-7.47243
-7.49269
-7.51462
-7.5344
-7.54951
-7.55429
-7.54631
-7.51891
-7.47109
-7.39627
-7.29598
-7.16448
-7.00629
-6.81679
-6.60324
-6.36194
-6.10225
-5.82098
-5.52869
-5.2222
-4.91241
-4.59582
-4.28299
-3.96989
-3.66631
-3.36767
-3.08276
-2.80653
-2.54669
-2.29787
-2.06672
-1.84772
-1.6466
-1.45784
-1.28636
-1.1268
-0.983407
-0.851045
-0.733412
-0.62565
-0.531012
-0.444947
-0.370351
-0.302991
-0.245491
-0.193933
-0.150735
-0.112281
-0.0808419
-0.0530753
-0.031148
-0.0119672
0.00237488
0.0147552
0.0231348
0.0302111
0.0339799
0.036996
0.0372697
0.0372468
0.0349406
0.0327115
0.0285816
0.024806
0.0194166
0.0140485
0.00887713
0.0029939
6.77725
6.77641
6.77444
6.77102
6.76645
6.76094
6.75479
6.74802
6.74086
6.73321
6.7253
6.71698
6.70849
6.69967
6.69078
6.68164
6.67255
6.66328
6.65417
6.64495
6.63598
6.62694
6.61822
6.60946
6.60108
6.59266
6.58466
6.57663
6.56904
6.5614
6.55424
6.547
6.54027
6.53342
6.5271
6.52062
6.51469
6.50853
6.50291
6.49698
6.49158
6.48575
6.48041
6.47449
6.46898
6.4627
6.4567
6.4497
6.4428
6.43459
6.42626
6.41624
6.40581
6.39322
6.37985
6.36379
6.34649
6.3259
6.30352
6.27717
6.2484
6.21492
6.17827
6.13609
6.08985
6.03709
5.97904
5.91313
5.83995
5.75654
5.66228
5.55309
5.42607
5.27472
5.09255
4.86921
4.59428
4.25435
3.83862
3.33322
2.72674
1.99463
1.14349
0.215085
-0.748128
-1.7244
-2.68573
-3.60476
-4.45294
-5.21675
-5.88749
-6.46902
-6.96517
-7.38706
-7.7421
-8.04179
-8.29269
-8.50404
-8.68047
-8.82864
-8.95145
-9.05339
-9.1358
-9.20129
-9.25044
-9.28459
-9.30369
-9.30767
-9.29596
-9.26757
-9.22185
-9.15822
-9.07665
-8.97894
-8.86612
-8.7403
-8.60207
-8.45491
-8.30338
-8.1576
-8.0275
-7.92263
-7.84064
-7.77491
-7.72035
-7.67594
-7.64131
-7.61775
-7.60584
-7.60731
-7.6225
-7.65224
-7.69555
-7.75097
-7.81535
-7.88383
-7.95102
-8.0089
-8.05155
-8.06959
-8.05912
-8.01156
-7.92699
-7.79887
-7.63185
-7.42161
-7.17679
-6.89478
-6.58706
-6.25182
-5.90196
-5.53556
-5.16561
-4.78951
-4.41945
-4.05188
-3.69771
-3.3525
-3.02572
-2.71217
-2.41987
-2.14311
-1.88856
-1.6503
-1.43388
-1.23338
-1.05347
-0.888415
-0.742185
-0.609329
-0.493256
-0.388852
-0.299077
-0.219178
-0.151777
-0.0924927
-0.0436968
-0.00137303
0.0322756
0.0609214
0.0824734
0.100291
0.112351
0.121737
0.126468
0.129388
0.128546
0.12659
0.121581
0.116018
0.107958
0.0997869
0.0895532
0.079554
0.0678394
0.0566022
0.0438803
0.0313139
0.0189143
0.00661352
6.81876
6.81767
6.8151
6.81068
6.80485
6.79799
6.79049
6.78243
6.77404
6.76523
6.75618
6.74679
6.73726
6.72745
6.71765
6.70768
6.69785
6.68798
6.6784
6.66886
6.65975
6.65075
6.64226
6.63392
6.62616
6.61857
6.61161
6.60483
6.59871
6.59277
6.58753
6.58246
6.57813
6.57394
6.57055
6.56727
6.56482
6.56244
6.56091
6.55941
6.55876
6.55806
6.5582
6.55817
6.55894
6.55937
6.56052
6.56111
6.56228
6.56261
6.56333
6.56285
6.56248
6.56046
6.55822
6.55379
6.54872
6.54086
6.53188
6.51947
6.50544
6.48734
6.46713
6.44232
6.41497
6.38267
6.34748
6.30718
6.2635
6.21432
6.16027
6.0985
6.02663
5.93836
5.82389
5.6667
5.44013
5.10782
4.61729
3.93014
3.0041
1.92057
0.755806
-0.401089
-1.53295
-2.65367
-3.73533
-4.73383
-5.61545
-6.369
-6.99699
-7.51147
-7.92828
-8.26303
-8.5316
-8.74533
-8.91653
-9.05103
-9.1581
-9.23994
-9.30474
-9.35162
-9.38766
-9.4094
-9.42411
-9.42623
-9.42259
-9.4051
-9.38074
-9.33978
-9.28992
-9.22009
-9.13919
-9.03771
-8.9265
-8.79275
-8.64355
-8.46549
-8.27362
-8.07899
-7.92727
-7.85931
-7.83628
-7.82104
-7.80326
-7.78263
-7.76162
-7.74487
-7.73674
-7.74312
-7.76802
-7.81609
-7.88861
-7.98646
-8.10629
-8.24225
-8.38513
-8.52284
-8.64373
-8.73361
-8.78373
-8.78204
-8.72628
-8.60864
-8.43394
-8.19834
-7.91265
-7.57601
-7.20326
-6.79488
-6.36729
-5.92063
-5.47084
-5.01665
-4.57238
-4.13509
-3.71708
-3.31398
-2.93605
-2.57777
-2.24741
-1.93868
-1.65814
-1.39916
-1.16701
-0.955109
-0.767788
-0.598767
-0.451668
-0.320604
-0.208639
-0.110302
-0.0282195
0.0426442
0.0999779
0.148378
0.185738
0.216225
0.237853
0.254384
0.263898
0.269794
0.270174
0.268125
0.261754
0.253884
0.242618
0.230567
0.215827
0.200846
0.183701
0.166724
0.147969
0.129677
0.109897
0.0907668
0.0702898
0.0501111
0.0299683
0.0107069
6.86645
6.86469
6.86078
6.85446
6.84653
6.83777
6.82878
6.81965
6.81055
6.80132
6.79206
6.78259
6.77307
6.76333
6.75362
6.74375
6.73405
6.72431
6.71488
6.70552
6.69661
6.68786
6.67967
6.6717
6.66439
6.65734
6.65104
6.64503
6.63985
6.635
6.63105
6.62746
6.62486
6.62264
6.62148
6.62073
6.62112
6.62192
6.62392
6.62631
6.62997
6.63398
6.63927
6.64484
6.65169
6.65869
6.66693
6.67513
6.68446
6.6935
6.70351
6.71287
6.72294
6.73192
6.74128
6.74899
6.75665
6.76203
6.76691
6.76882
6.76977
6.76716
6.76325
6.75546
6.74643
6.73379
6.72071
6.70545
6.69183
6.6792
6.67203
6.67112
6.68073
6.70209
6.73493
6.77327
6.79083
6.74413
6.47418
5.82419
4.11234
1.80901
-0.209678
-1.74211
-2.99724
-4.10446
-5.07347
-5.90708
-6.60428
-7.18376
-7.65559
-8.04298
-8.355
-8.6111
-8.81607
-8.98482
-9.11891
-9.22998
-9.3175
-9.38956
-9.44361
-9.48555
-9.51316
-9.53148
-9.53869
-9.5381
-9.5275
-9.50796
-9.47754
-9.43558
-9.38052
-9.31004
-9.2222
-9.11567
-8.99131
-8.84636
-8.68089
-8.47982
-8.24049
-7.96692
-7.71698
-7.64897
-7.65083
-7.66264
-7.67491
-7.68469
-7.69163
-7.69791
-7.70918
-7.7319
-7.77436
-7.84415
-7.94717
-8.0885
-8.26872
-8.48166
-8.71608
-8.95467
-9.17923
-9.36887
-9.50781
-9.57882
-9.57542
-9.48783
-9.31958
-9.06697
-8.74233
-8.3474
-7.90087
-7.40698
-6.8867
-6.34361
-5.79743
-5.24917
-4.71561
-4.19495
-3.70098
-3.22985
-2.79255
-2.38347
-2.01087
-1.66782
-1.36036
-1.081
-0.834331
-0.613005
-0.420748
-0.250693
-0.105961
0.0197948
0.123979
0.212451
0.283027
0.341064
0.384647
0.418614
0.441185
0.456688
0.463389
0.465137
0.460193
0.451984
0.438737
0.423523
0.404528
0.384532
0.361683
0.338533
0.313196
0.288058
0.261198
0.234879
0.207148
0.180181
0.15201
0.124713
0.0962683
0.0683265
0.0405169
0.0144072
6.9239
6.92166
6.91486
6.90335
6.8893
6.87446
6.8598
6.84554
6.8319
6.81873
6.80614
6.79392
6.78225
6.77092
6.76016
6.74975
6.73998
6.73058
6.72187
6.71353
6.70591
6.69867
6.69216
6.686
6.68062
6.67559
6.67139
6.66755
6.66462
6.66209
6.66057
6.65952
6.65958
6.66018
6.66204
6.66449
6.66833
6.67284
6.67885
6.68558
6.69393
6.703
6.71379
6.72529
6.73856
6.75247
6.76817
6.78438
6.80232
6.82056
6.8404
6.86021
6.88141
6.90213
6.9239
6.94461
6.96592
6.98548
7.00509
7.0222
7.03881
7.05222
7.06473
7.0737
7.0819
7.08708
7.09293
7.09816
7.10803
7.12341
7.15239
7.20047
7.28118
7.40965
7.60946
7.91269
8.35092
8.9917
9.79505
10.9932
11.0838
6.64935
2.86308
0.315728
-1.73138
-3.3561
-4.57961
-5.51303
-6.23993
-6.81881
-7.29128
-7.6856
-8.01808
-8.30041
-8.53851
-8.73893
-8.90439
-9.04068
-9.14919
-9.23586
-9.3009
-9.35054
-9.38358
-9.40609
-9.41484
-9.41529
-9.40217
-9.38082
-9.34439
-9.29853
-9.23481
-9.15952
-9.06115
-8.95226
-8.81902
-8.67957
-8.50984
-8.31254
-8.07803
-7.72325
-7.78174
-7.78283
-7.76106
-7.7414
-7.73158
-7.72832
-7.728
-7.73158
-7.74421
-7.7716
-7.82168
-7.90206
-8.02155
-8.18675
-8.4016
-8.65956
-8.95062
-9.25409
-9.55026
-9.81203
-10.0208
-10.1538
-10.2016
-10.1524
-10.0069
-9.75816
-9.4162
-8.98339
-8.48029
-7.91495
-7.31284
-6.68151
-6.04493
-5.40608
-4.78496
-4.18082
-3.6095
-3.06832
-2.56993
-2.10909
-1.69429
-1.31794
-0.98535
-0.688046
-0.429649
-0.201943
-0.00793684
0.15975
0.298502
0.415098
0.507469
0.581912
0.636785
0.677844
0.703655
0.719358
0.723557
0.720768
0.709534
0.693795
0.671992
0.647568
0.618859
0.5889
0.555934
0.522674
0.48729
0.452252
0.415678
0.379862
0.342872
0.306881
0.269915
0.234062
0.197326