/*--------------------------------*- C++ -*----------------------------------*\
  =========                 |
  \\      /  F ield         | OpenFOAM: The Open Source CFD Toolbox
   \\    /   O peration     | Website:  https://openfoam.org
    \\  /    A nd           | Version:  10
     \\/     M anipulation  |
\*---------------------------------------------------------------------------*/
FoamFile
{
    format      ascii;
    class       volSymmTensorField;
    location    "0.036";
    object      UPrime2Mean;
}
// * * * * * * * * * * * * * * * * * * * * * * * * * * * * * * * * * * * * * //

dimensions      [0 2 -2 0 0 0 0];

internalField   nonuniform List<symmTensor> 
12225
(
(0.0482749 0.00108156 0 0.0022078 0 0)
(0.0153837 -0.000107154 0 0.00105226 0 0)
(0.0199386 -0.000654275 0 0.000744287 0 0)
(0.0227674 -0.000915249 0 0.000603414 0 0)
(0.0323055 -0.00137116 0 0.000529873 0 0)
(0.0516537 -0.00208444 0 0.000498209 0 0)
(0.0818995 -0.00317365 0 0.000493705 0 0)
(0.123548 -0.00418877 0 0.000445963 0 0)
(0.180929 -0.00647041 0 0.000542 0 0)
(0.254633 -0.0067599 0 0.000438108 0 0)
(0.359333 -0.0132496 0 0.000765839 0 0)
(0.485656 -0.0091315 0 0.000481413 0 0)
(0.683503 -0.0311051 0 0.0017984 0 0)
(0.905341 -0.00675195 0 0.000994922 0 0)
(1.31278 -0.0886218 0 0.00782097 0 0)
(1.77919 0.0225962 0 0.0062452 0 0)
(2.79856 -0.351884 0 0.0650507 0 0)
(4.4001 0.0613664 0 0.0263503 0 0)
(0.0458441 0.000946933 0 0.0026773 0 0)
(0.0146066 0.00049683 0 0.00135901 0 0)
(0.0148785 0.000112292 0 0.000910766 0 0)
(0.0133436 8.8176e-05 0 0.00078296 0 0)
(0.0131796 -4.5058e-05 0 0.000755923 0 0)
(0.0146377 -0.000546242 0 0.000813801 0 0)
(0.0175836 -0.00127246 0 0.000882518 0 0)
(0.023279 -0.00263745 0 0.0011084 0 0)
(0.0319328 -0.00402597 0 0.00120532 0 0)
(0.0477882 -0.00716326 0 0.00181399 0 0)
(0.0686276 -0.00931758 0 0.00188558 0 0)
(0.108541 -0.0173121 0 0.00349482 0 0)
(0.154881 -0.0203638 0 0.00343743 0 0)
(0.254746 -0.0429812 0 0.00825913 0 0)
(0.357391 -0.0478158 0 0.00795999 0 0)
(0.631192 -0.124014 0 0.0268804 0 0)
(0.888397 -0.171311 0 0.0351731 0 0)
(1.63695 -0.540086 0 0.202472 0 0)
(0.0547602 0.00155391 0 0.00324375 0 0)
(0.0180107 0.000721952 0 0.00168317 0 0)
(0.0160744 -6.13413e-05 0 0.00114281 0 0)
(0.0136777 -0.00040667 0 0.000998384 0 0)
(0.0132827 -0.000689551 0 0.00101801 0 0)
(0.0143648 -0.00112601 0 0.00110474 0 0)
(0.0168684 -0.00196025 0 0.00131298 0 0)
(0.0210132 -0.00311429 0 0.00152217 0 0)
(0.0276301 -0.00511477 0 0.0021032 0 0)
(0.0371739 -0.00726015 0 0.00249548 0 0)
(0.052252 -0.0120184 0 0.00398757 0 0)
(0.073438 -0.016143 0 0.00469989 0 0)
(0.108005 -0.0285105 0 0.00883877 0 0)
(0.156278 -0.0373298 0 0.01036 0 0)
(0.238804 -0.07341 0 0.0243544 0 0)
(0.35606 -0.105439 0 0.0332291 0 0)
(0.545528 -0.228822 0 0.102837 0 0)
(0.782434 -0.430184 0 0.257768 0 0)
(0.0500661 0.000188057 0 0.00334451 0 0)
(0.017116 -0.000192712 0 0.00203229 0 0)
(0.0170913 -0.000659812 0 0.00150162 0 0)
(0.0150112 -0.000857469 0 0.00136971 0 0)
(0.0142299 -0.00117876 0 0.00143797 0 0)
(0.0148457 -0.00184681 0 0.00164943 0 0)
(0.0170042 -0.00287141 0 0.00195842 0 0)
(0.0210697 -0.00443978 0 0.0024982 0 0)
(0.0274117 -0.00653756 0 0.00314953 0 0)
(0.0370749 -0.00992905 0 0.00435109 0 0)
(0.0510306 -0.014472 0 0.00580123 0 0)
(0.0720102 -0.0222457 0 0.00864197 0 0)
(0.102317 -0.0329388 0 0.0123943 0 0)
(0.14787 -0.0520294 0 0.0201803 0 0)
(0.214637 -0.081717 0 0.0332299 0 0)
(0.310311 -0.135672 0 0.062405 0 0)
(0.440478 -0.236377 0 0.133731 0 0)
(0.576384 -0.38701 0 0.280225 0 0)
(0.0506093 0.00148507 0 0.00418421 0 0)
(0.0163887 0.000333369 0 0.00247865 0 0)
(0.0159714 -0.00029003 0 0.00178136 0 0)
(0.0136591 -0.000533077 0 0.00162084 0 0)
(0.0129391 -0.000859686 0 0.00172683 0 0)
(0.0137289 -0.00160472 0 0.00203247 0 0)
(0.0159019 -0.00292396 0 0.00255892 0 0)
(0.0197478 -0.0048368 0 0.00327804 0 0)
(0.0259087 -0.00763253 0 0.00443174 0 0)
(0.0352556 -0.0114866 0 0.00598722 0 0)
(0.0490786 -0.0174469 0 0.00857453 0 0)
(0.0690413 -0.0259645 0 0.0122621 0 0)
(0.097808 -0.0396375 0 0.0187221 0 0)
(0.13836 -0.0602657 0 0.0291335 0 0)
(0.195631 -0.0941296 0 0.0487613 0 0)
(0.270476 -0.149691 0 0.0876955 0 0)
(0.362818 -0.235918 0 0.162709 0 0)
(0.444712 -0.362703 0 0.327866 0 0)
(0.0499458 -0.000657528 0 0.00472248 0 0)
(0.0161364 -0.000468997 0 0.00291824 0 0)
(0.0160045 -0.00131111 0 0.00212206 0 0)
(0.0136185 -0.00153734 0 0.00200312 0 0)
(0.0127778 -0.00183415 0 0.00217883 0 0)
(0.0135494 -0.00267505 0 0.00263896 0 0)
(0.0156653 -0.00418089 0 0.00339222 0 0)
(0.0192762 -0.00641568 0 0.00450008 0 0)
(0.0249683 -0.00959476 0 0.00609297 0 0)
(0.0335555 -0.0141473 0 0.00842827 0 0)
(0.0462275 -0.0208391 0 0.0119502 0 0)
(0.0642895 -0.0307188 0 0.0173652 0 0)
(0.0899428 -0.0457475 0 0.026107 0 0)
(0.124774 -0.0683517 0 0.0405134 0 0)
(0.171694 -0.103483 0 0.0659318 0 0)
(0.228309 -0.155846 0 0.111434 0 0)
(0.291644 -0.2318 0 0.194801 0 0)
(0.341929 -0.327508 0 0.343292 0 0)
(0.0496004 0.0009206 0 0.00464998 0 0)
(0.017356 0.000157394 0 0.00356429 0 0)
(0.01826 -0.000371245 0 0.0027685 0 0)
(0.016486 -0.00073766 0 0.00264384 0 0)
(0.0162407 -0.00139141 0 0.00293473 0 0)
(0.017726 -0.0026079 0 0.00356733 0 0)
(0.0206637 -0.00454679 0 0.00457021 0 0)
(0.0250134 -0.00732993 0 0.00603835 0 0)
(0.031132 -0.0112004 0 0.00817793 0 0)
(0.0396482 -0.016595 0 0.0113374 0 0)
(0.0516021 -0.024277 0 0.0160538 0 0)
(0.0680542 -0.0353756 0 0.0233154 0 0)
(0.0905875 -0.0515409 0 0.0346051 0 0)
(0.119831 -0.0751574 0 0.0530133 0 0)
(0.156899 -0.109238 0 0.083069 0 0)
(0.198319 -0.157064 0 0.134323 0 0)
(0.240797 -0.219687 0 0.217672 0 0)
(0.27077 -0.290775 0 0.350979 0 0)
(0.0484845 0.00109868 0 0.00574432 0 0)
(0.0124199 0.00037133 0 0.00379659 0 0)
(0.0131757 -0.00042367 0 0.00297095 0 0)
(0.0120344 -0.00087851 0 0.0030861 0 0)
(0.0120355 -0.00153967 0 0.00359126 0 0)
(0.0134084 -0.00278119 0 0.00448513 0 0)
(0.015982 -0.00475884 0 0.00584291 0 0)
(0.0196951 -0.0075574 0 0.00778048 0 0)
(0.0248471 -0.0114292 0 0.0105483 0 0)
(0.0320075 -0.0168674 0 0.014586 0 0)
(0.0420071 -0.0246577 0 0.0205714 0 0)
(0.0555906 -0.0358175 0 0.0296436 0 0)
(0.0736777 -0.0517547 0 0.0435056 0 0)
(0.0963134 -0.0741765 0 0.0652647 0 0)
(0.123526 -0.104992 0 0.0992298 0 0)
(0.152235 -0.145397 0 0.153115 0 0)
(0.179481 -0.194307 0 0.234277 0 0)
(0.19723 -0.245444 0 0.354043 0 0)
(0.0560367 0.000870404 0 0.00548729 0 0)
(0.0202444 -0.000349199 0 0.00390725 0 0)
(0.0203154 -0.00149071 0 0.00328388 0 0)
(0.0180295 -0.00197218 0 0.00344945 0 0)
(0.0170498 -0.00259602 0 0.00408706 0 0)
(0.0177076 -0.00389078 0 0.00517369 0 0)
(0.0197517 -0.00602283 0 0.00683031 0 0)
(0.0229588 -0.00907256 0 0.00926162 0 0)
(0.0275027 -0.0133011 0 0.0127806 0 0)
(0.0338511 -0.019171 0 0.0178938 0 0)
(0.0426312 -0.0273504 0 0.025334 0 0)
(0.0542327 -0.0387022 0 0.036354 0 0)
(0.0690316 -0.0543187 0 0.0526994 0 0)
(0.0865197 -0.0753231 0 0.0773612 0 0)
(0.106151 -0.102682 0 0.114047 0 0)
(0.125204 -0.136174 0 0.168739 0 0)
(0.141766 -0.173958 0 0.246101 0 0)
(0.150969 -0.210191 0 0.35258 0 0)
(0.0523103 0.00246029 0 0.00606762 0 0)
(0.0161826 -0.00033695 0 0.0043519 0 0)
(0.0155829 -0.00131601 0 0.00392349 0 0)
(0.0135964 -0.00138588 0 0.00435946 0 0)
(0.0130233 -0.00178602 0 0.00520858 0 0)
(0.0138596 -0.00304707 0 0.00656285 0 0)
(0.0158759 -0.00523369 0 0.008603 0 0)
(0.0188106 -0.00835528 0 0.0115659 0 0)
(0.0226846 -0.012592 0 0.0158038 0 0)
(0.0278169 -0.0183306 0 0.021884 0 0)
(0.0346818 -0.0261761 0 0.0306107 0 0)
(0.0435364 -0.0368443 0 0.0432878 0 0)
(0.0544793 -0.051103 0 0.0616119 0 0)
(0.0668685 -0.0695028 0 0.0882642 0 0)
(0.0799307 -0.0922926 0 0.126189 0 0)
(0.0915877 -0.118504 0 0.179839 0 0)
(0.100587 -0.146124 0 0.251758 0 0)
(0.104414 -0.170344 0 0.345833 0 0)
(0.0441792 0.0016918 0 0.00641823 0 0)
(0.0121996 -0.00110848 0 0.00525968 0 0)
(0.0126415 -0.00276751 0 0.00443578 0 0)
(0.0108736 -0.00313038 0 0.00468014 0 0)
(0.01016 -0.00364782 0 0.00572949 0 0)
(0.0106338 -0.00500311 0 0.00752775 0 0)
(0.0122372 -0.00726681 0 0.0101374 0 0)
(0.0147576 -0.0104167 0 0.0137821 0 0)
(0.0180857 -0.0146185 0 0.0188622 0 0)
(0.0223124 -0.0202251 0 0.0260161 0 0)
(0.0276777 -0.0277159 0 0.0360942 0 0)
(0.0342661 -0.0375637 0 0.0503601 0 0)
(0.0420413 -0.0501923 0 0.0703539 0 0)
(0.0503902 -0.0657131 0 0.0983539 0 0)
(0.0586512 -0.0838956 0 0.136574 0 0)
(0.0653742 -0.103493 0 0.188195 0 0)
(0.0698905 -0.122679 0 0.25434 0 0)
(0.0710056 -0.137751 0 0.337395 0 0)
(0.0520366 0.00240797 0 0.00645991 0 0)
(0.0165825 -0.00113282 0 0.00575263 0 0)
(0.0160121 -0.00234318 0 0.00501449 0 0)
(0.013666 -0.00222603 0 0.00528929 0 0)
(0.012601 -0.00248795 0 0.00645028 0 0)
(0.0129118 -0.0036929 0 0.00847052 0 0)
(0.0141584 -0.00574978 0 0.0114111 0 0)
(0.015885 -0.0085452 0 0.0155127 0 0)
(0.0179778 -0.0121961 0 0.0211943 0 0)
(0.020561 -0.0170014 0 0.0291083 0 0)
(0.023822 -0.0233573 0 0.0400979 0 0)
(0.0277834 -0.0315692 0 0.0553486 0 0)
(0.0323302 -0.0418074 0 0.0762151 0 0)
(0.0369387 -0.0538711 0 0.104586 0 0)
(0.0411538 -0.0672708 0 0.142053 0 0)
(0.044109 -0.0806803 0 0.19089 0 0)
(0.0455913 -0.0925431 0 0.251343 0 0)
(0.0451768 -0.100028 0 0.325035 0 0)
(0.0458102 0.0019366 0 0.00744628 0 0)
(0.0147598 -0.00154941 0 0.00633353 0 0)
(0.0149323 -0.0029384 0 0.00531989 0 0)
(0.0128158 -0.0029667 0 0.00589053 0 0)
(0.0118926 -0.00324674 0 0.00749798 0 0)
(0.0119268 -0.00436051 0 0.00992791 0 0)
(0.0124918 -0.00621278 0 0.0132912 0 0)
(0.0133818 -0.00867381 0 0.0179088 0 0)
(0.0146485 -0.0118598 0 0.0242505 0 0)
(0.0163991 -0.016041 0 0.0329686 0 0)
(0.0187063 -0.0215167 0 0.0448459 0 0)
(0.0214679 -0.0284201 0 0.06094 0 0)
(0.0245174 -0.0367523 0 0.0823701 0 0)
(0.027411 -0.0461071 0 0.110646 0 0)
(0.0297961 -0.0559058 0 0.14684 0 0)
(0.031115 -0.0648571 0 0.192596 0 0)
(0.0313969 -0.0717797 0 0.247615 0 0)
(0.0305314 -0.0743362 0 0.313139 0 0)
(0.0489216 0.00152826 0 0.00876589 0 0)
(0.0158343 -0.000697789 0 0.00748517 0 0)
(0.0156843 -0.00142616 0 0.00697048 0 0)
(0.0138702 -0.000967939 0 0.00769523 0 0)
(0.0127351 -0.000862824 0 0.00928052 0 0)
(0.012169 -0.00161489 0 0.0118521 0 0)
(0.0121124 -0.00316815 0 0.0155473 0 0)
(0.0124993 -0.00530161 0 0.0206228 0 0)
(0.0132885 -0.00796681 0 0.0275066 0 0)
(0.0144131 -0.0112786 0 0.0368135 0 0)
(0.0157864 -0.0154067 0 0.0492599 0 0)
(0.0172526 -0.020338 0 0.0657598 0 0)
(0.0186688 -0.0259371 0 0.0871732 0 0)
(0.019742 -0.0316848 0 0.114639 0 0)
(0.0203516 -0.0370068 0 0.148732 0 0)
(0.0202953 -0.0407855 0 0.190581 0 0)
(0.0198479 -0.042225 0 0.239485 0 0)
(0.0192514 -0.0395685 0 0.296434 0 0)
(0.0483564 0.00308264 0 0.00898453 0 0)
(0.013912 -0.000677096 0 0.00799219 0 0)
(0.0139302 -0.00249881 0 0.00725555 0 0)
(0.0127333 -0.00233174 0 0.00824443 0 0)
(0.0122956 -0.00230321 0 0.0103414 0 0)
(0.0121077 -0.00308747 0 0.0134285 0 0)
(0.0120731 -0.00456641 0 0.0176242 0 0)
(0.0121703 -0.00644484 0 0.0231908 0 0)
(0.012427 -0.00862196 0 0.0305457 0 0)
(0.0128445 -0.01114 0 0.0402728 0 0)
(0.0133843 -0.0140626 0 0.0529864 0 0)
(0.0139114 -0.0172673 0 0.0694129 0 0)
(0.0143284 -0.0205164 0 0.0901391 0 0)
(0.0144876 -0.0232552 0 0.115962 0 0)
(0.0143816 -0.0250042 0 0.147084 0 0)
(0.014118 -0.0248269 0 0.184244 0 0)
(0.0139795 -0.022338 0 0.226526 0 0)
(0.0144388 -0.0161336 0 0.274831 0 0)
(0.0505039 0.00267796 0 0.0105106 0 0)
(0.014291 -0.000514051 0 0.010573 0 0)
(0.0130165 -0.00218139 0 0.00982783 0 0)
(0.0108989 -0.00179727 0 0.0104728 0 0)
(0.00998217 -0.00133217 0 0.0124438 0 0)
(0.00943624 -0.00158348 0 0.0155056 0 0)
(0.00904765 -0.00247007 0 0.0196839 0 0)
(0.00883191 -0.00364745 0 0.025273 0 0)
(0.00878058 -0.00490904 0 0.0326809 0 0)
(0.00882731 -0.00618429 0 0.042379 0 0)
(0.0088944 -0.00742076 0 0.054795 0 0)
(0.00890545 -0.00840547 0 0.0704187 0 0)
(0.00884507 -0.00887209 0 0.0895797 0 0)
(0.00874712 -0.00832935 0 0.112777 0 0)
(0.0087253 -0.00645039 0 0.139938 0 0)
(0.0090128 -0.00255114 0 0.17158 0 0)
(0.00987799 0.00349831 0 0.206735 0 0)
(0.0118194 0.0127038 0 0.246187 0 0)
(0.0492018 0.00290729 0 0.0118661 0 0)
(0.0167234 -0.000535631 0 0.0113739 0 0)
(0.0155826 -0.00213277 0 0.0092921 0 0)
(0.013147 -0.00193428 0 0.00976268 0 0)
(0.0122482 -0.00158278 0 0.0120942 0 0)
(0.011839 -0.00175797 0 0.0156721 0 0)
(0.0114526 -0.00234274 0 0.0202826 0 0)
(0.01108 -0.00294967 0 0.0260745 0 0)
(0.010793 -0.0033213 0 0.0333894 0 0)
(0.0105898 -0.00335199 0 0.0426519 0 0)
(0.0104471 -0.00298768 0 0.0541953 0 0)
(0.0103924 -0.00204176 0 0.0683485 0 0)
(0.0104893 -0.000294671 0 0.0852229 0 0)
(0.0108795 0.00266687 0 0.105101 0 0)
(0.0116601 0.00704162 0 0.127737 0 0)
(0.0131443 0.0133616 0 0.153505 0 0)
(0.0154426 0.0215446 0 0.181471 0 0)
(0.0190833 0.0323906 0 0.212441 0 0)
(0.0485065 0.00338215 0 0.0132816 0 0)
(0.0147513 -0.00145518 0 0.0132218 0 0)
(0.0146788 -0.00433646 0 0.0114133 0 0)
(0.0130122 -0.00434641 0 0.0118093 0 0)
(0.0120184 -0.00371173 0 0.0137989 0 0)
(0.0110404 -0.00331853 0 0.0167902 0 0)
(0.0101083 -0.00320044 0 0.0206053 0 0)
(0.00947462 -0.0030995 0 0.0254211 0 0)
(0.00920534 -0.00276578 0 0.0315864 0 0)
(0.00916823 -0.001998 0 0.0394311 0 0)
(0.00923452 -0.000613267 0 0.0490965 0 0)
(0.00944189 0.00161871 0 0.0606841 0 0)
(0.00993224 0.00490663 0 0.0741487 0 0)
(0.0109571 0.00952574 0 0.089615 0 0)
(0.0126501 0.0155917 0 0.106805 0 0)
(0.0153454 0.0233687 0 0.126015 0 0)
(0.0190899 0.0327604 0 0.146512 0 0)
(0.024369 0.0441539 0 0.168913 0 0)
(0.0493347 0.0024689 0 0.0118561 0 0)
(0.0169904 -0.000238277 0 0.0119732 0 0)
(0.0168791 -0.00181266 0 0.0103323 0 0)
(0.0136268 -0.00151867 0 0.0104979 0 0)
(0.0118052 -0.000529454 0 0.0119651 0 0)
(0.0107826 0.000515494 0 0.0143367 0 0)
(0.0102571 0.00153588 0 0.0176249 0 0)
(0.0102608 0.0027859 0 0.0218816 0 0)
(0.010792 0.00456394 0 0.0271154 0 0)
(0.0117249 0.00706683 0 0.0334022 0 0)
(0.0129708 0.0103834 0 0.0408152 0 0)
(0.0146472 0.0146148 0 0.0494293 0 0)
(0.0169535 0.0198371 0 0.059184 0 0)
(0.02016 0.0261947 0 0.070145 0 0)
(0.0243966 0.0336948 0 0.082106 0 0)
(0.0299381 0.0424843 0 0.0952873 0 0)
(0.0367758 0.0524149 0 0.109151 0 0)
(0.0452533 0.0637595 0 0.124181 0 0)
(0.0497753 0.00315582 0 0.011443 0 0)
(0.0154651 -0.00143178 0 0.0120925 0 0)
(0.0128833 -0.0029795 0 0.00966315 0 0)
(0.0102192 -0.00177642 0 0.00877535 0 0)
(0.00934212 -0.000250908 0 0.00939871 0 0)
(0.00885968 0.000885619 0 0.0110091 0 0)
(0.00852225 0.00182945 0 0.0133464 0 0)
(0.00856897 0.00306481 0 0.0163121 0 0)
(0.00915985 0.00492379 0 0.0198878 0 0)
(0.010324 0.00749994 0 0.0241291 0 0)
(0.0120873 0.0107846 0 0.0290852 0 0)
(0.0145674 0.0148071 0 0.0348057 0 0)
(0.0179126 0.0196056 0 0.0412453 0 0)
(0.0222853 0.0252798 0 0.048421 0 0)
(0.027774 0.0318461 0 0.056165 0 0)
(0.0345503 0.0394268 0 0.0646094 0 0)
(0.04262 0.0479077 0 0.0734015 0 0)
(0.0521847 0.0574817 0 0.0828309 0 0)
(0.0478796 0.00304045 0 0.0106692 0 0)
(0.0148675 0.00128846 0 0.0100297 0 0)
(0.0131247 0.000659155 0 0.00799538 0 0)
(0.0104 0.00171749 0 0.00755171 0 0)
(0.00980657 0.00299874 0 0.0080826 0 0)
(0.0102074 0.00420136 0 0.00927048 0 0)
(0.0110742 0.00550324 0 0.0109564 0 0)
(0.0124003 0.00718767 0 0.0130981 0 0)
(0.0142716 0.00943943 0 0.0157051 0 0)
(0.0167179 0.0123017 0 0.0187819 0 0)
(0.0197949 0.0157652 0 0.0223187 0 0)
(0.0236464 0.0198694 0 0.026352 0 0)
(0.0284572 0.024672 0 0.0308761 0 0)
(0.0344074 0.0302554 0 0.0359034 0 0)
(0.0415727 0.0366012 0 0.0412884 0 0)
(0.0501108 0.0437602 0 0.0470858 0 0)
(0.0600112 0.0516146 0 0.053045 0 0)
(0.071387 0.0602567 0 0.0593664 0 0)
(0.0486296 0.000880192 0 0.0115294 0 0)
(0.0159971 0.000223886 0 0.00962363 0 0)
(0.0150735 0.000230195 0 0.00689824 0 0)
(0.0131 0.000987152 0 0.00617064 0 0)
(0.0125631 0.00176904 0 0.00645671 0 0)
(0.012734 0.00260286 0 0.00720571 0 0)
(0.0134311 0.0037095 0 0.00821906 0 0)
(0.0146779 0.00524838 0 0.00949674 0 0)
(0.0165481 0.00728546 0 0.0110995 0 0)
(0.0191152 0.00984294 0 0.0130567 0 0)
(0.0224635 0.0129184 0 0.0153604 0 0)
(0.0267463 0.0165258 0 0.0180061 0 0)
(0.0321203 0.0206757 0 0.0209663 0 0)
(0.0387546 0.0254309 0 0.024248 0 0)
(0.0467245 0.0307707 0 0.0277595 0 0)
(0.0561959 0.0367516 0 0.0315624 0 0)
(0.0671267 0.0432592 0 0.0354891 0 0)
(0.0796401 0.0503979 0 0.0396344 0 0)
(0.0552802 0.00149934 0 0.00974263 0 0)
(0.0181472 -0.000154424 0 0.00741455 0 0)
(0.0154021 -0.000886739 0 0.00529108 0 0)
(0.0136254 -0.000290045 0 0.00465518 0 0)
(0.0135872 0.000590174 0 0.00485642 0 0)
(0.0139562 0.00143332 0 0.00550387 0 0)
(0.0145381 0.00240803 0 0.0063289 0 0)
(0.0156194 0.00373853 0 0.00726535 0 0)
(0.0174594 0.0055008 0 0.00835021 0 0)
(0.0201334 0.00767742 0 0.00963567 0 0)
(0.0236248 0.0102348 0 0.011151 0 0)
(0.0279819 0.0131703 0 0.0129109 0 0)
(0.0333184 0.016496 0 0.014893 0 0)
(0.0398248 0.0202629 0 0.0170919 0 0)
(0.0476117 0.0244752 0 0.0194359 0 0)
(0.0568573 0.0291784 0 0.0219627 0 0)
(0.0675417 0.034324 0 0.0245605 0 0)
(0.0797254 0.039972 0 0.0272846 0 0)
(0.0555687 0.000971242 0 0.00855809 0 0)
(0.0186459 -0.000193522 0 0.00628607 0 0)
(0.0162681 2.31562e-05 0 0.00441071 0 0)
(0.0146802 0.000942592 0 0.00386505 0 0)
(0.0144611 0.00173672 0 0.0039753 0 0)
(0.0145648 0.00244153 0 0.00432602 0 0)
(0.0151447 0.00329238 0 0.00475916 0 0)
(0.016589 0.00449259 0 0.00525277 0 0)
(0.0191546 0.00610297 0 0.00583865 0 0)
(0.0228927 0.00809423 0 0.00657022 0 0)
(0.0277336 0.0104067 0 0.00746523 0 0)
(0.0336422 0.0130028 0 0.00851551 0 0)
(0.0406347 0.0158723 0 0.0097005 0 0)
(0.0487922 0.0190529 0 0.0110204 0 0)
(0.0581302 0.0225575 0 0.0124392 0 0)
(0.0687664 0.0264396 0 0.0139853 0 0)
(0.0806857 0.0306558 0 0.0155872 0 0)
(0.0939195 0.035273 0 0.0172588 0 0)
(0.0485403 0.00115331 0 0.00749763 0 0)
(0.016828 -0.000592173 0 0.0054787 0 0)
(0.01613 -0.00117607 0 0.00388499 0 0)
(0.0145144 -0.000720895 0 0.00337934 0 0)
(0.0138911 -5.9753e-05 0 0.0033248 0 0)
(0.0135352 0.000502736 0 0.00347473 0 0)
(0.0137717 0.00102172 0 0.00372222 0 0)
(0.0149743 0.00172295 0 0.00404367 0 0)
(0.0172659 0.00271953 0 0.00443271 0 0)
(0.0206019 0.00401161 0 0.00489056 0 0)
(0.0249031 0.00557762 0 0.00543186 0 0)
(0.0301658 0.00741852 0 0.00606941 0 0)
(0.0364333 0.00953472 0 0.00679784 0 0)
(0.0438074 0.0119414 0 0.00761447 0 0)
(0.0523337 0.0146297 0 0.00848666 0 0)
(0.0621629 0.0176242 0 0.00943953 0 0)
(0.073294 0.0208824 0 0.0104277 0 0)
(0.0858201 0.0244348 0 0.0114589 0 0)
(0.0476378 -0.000254349 0 0.00650116 0 0)
(0.0164643 -0.000165598 0 0.00470956 0 0)
(0.0158317 -5.98942e-05 0 0.00314143 0 0)
(0.0144116 0.000101673 0 0.00252003 0 0)
(0.0143803 0.000227205 0 0.00234739 0 0)
(0.0148452 0.000379293 0 0.00236551 0 0)
(0.0158735 0.000658859 0 0.00246217 0 0)
(0.0176453 0.001183 0 0.00259816 0 0)
(0.0202489 0.00200642 0 0.00276372 0 0)
(0.0237244 0.00311592 0 0.00295912 0 0)
(0.0280876 0.00447703 0 0.00319506 0 0)
(0.0334154 0.0060559 0 0.00348251 0 0)
(0.0398413 0.00781297 0 0.00382564 0 0)
(0.0475382 0.00973364 0 0.00422807 0 0)
(0.0565863 0.0118046 0 0.00467034 0 0)
(0.0670972 0.0140512 0 0.00516829 0 0)
(0.0790434 0.0164632 0 0.00569615 0 0)
(0.0923977 0.0190823 0 0.00624558 0 0)
(0.0463584 -0.00068791 0 0.00566998 0 0)
(0.0117554 -0.00099229 0 0.00361263 0 0)
(0.011177 -0.000605835 0 0.00247466 0 0)
(0.0111097 -0.000208083 0 0.00202032 0 0)
(0.0121876 5.39216e-05 0 0.00186031 0 0)
(0.01279 0.000254514 0 0.00180812 0 0)
(0.0131329 0.000499271 0 0.00177965 0 0)
(0.0139163 0.00088111 0 0.00178428 0 0)
(0.0156866 0.00147541 0 0.00183389 0 0)
(0.0187283 0.00228282 0 0.00191457 0 0)
(0.0230942 0.00324878 0 0.0020231 0 0)
(0.0287395 0.00433031 0 0.0021695 0 0)
(0.0356295 0.00550808 0 0.00235568 0 0)
(0.0437904 0.00679125 0 0.00257498 0 0)
(0.0532006 0.00818417 0 0.00281507 0 0)
(0.063914 0.00971445 0 0.0030895 0 0)
(0.0758962 0.0113753 0 0.00338453 0 0)
(0.0891123 0.0132083 0 0.00369356 0 0)
(0.0508077 -0.00089967 0 0.00438394 0 0)
(0.018417 -0.000313757 0 0.00219521 0 0)
(0.0169349 -0.000433906 0 0.00143532 0 0)
(0.0153881 -0.000460069 0 0.00115619 0 0)
(0.0156461 -0.000345657 0 0.0010307 0 0)
(0.0164411 -0.000177365 0 0.000975841 0 0)
(0.0177069 -6.70609e-06 0 0.000942975 0 0)
(0.0195582 0.000187919 0 0.000917587 0 0)
(0.0221011 0.000451844 0 0.000903021 0 0)
(0.0255032 0.00082172 0 0.000902367 0 0)
(0.0299575 0.00132608 0 0.000915831 0 0)
(0.0356131 0.00197535 0 0.000943913 0 0)
(0.0425563 0.00275503 0 0.000988323 0 0)
(0.0508356 0.00364528 0 0.00105135 0 0)
(0.0604062 0.00462404 0 0.00113119 0 0)
(0.0712983 0.00568797 0 0.0012331 0 0)
(0.0834968 0.00683329 0 0.0013514 0 0)
(0.0969289 0.00806758 0 0.00148113 0 0)
(0.0457685 -0.000632815 0 0.00362332 0 0)
(0.012714 4.5211e-05 0 0.00153014 0 0)
(0.0127489 0.000194027 0 0.0010414 0 0)
(0.0124399 6.2443e-06 0 0.000898646 0 0)
(0.012637 -0.000228142 0 0.000839868 0 0)
(0.0125882 -0.000334554 0 0.000802316 0 0)
(0.0130244 -0.000266837 0 0.000779567 0 0)
(0.0145282 -8.30891e-05 0 0.000773901 0 0)
(0.0172465 0.000138977 0 0.000776769 0 0)
(0.0211098 0.000367049 0 0.00078303 0 0)
(0.0259953 0.000611956 0 0.000796696 0 0)
(0.0318691 0.000893947 0 0.00082051 0 0)
(0.0387532 0.00122587 0 0.000853681 0 0)
(0.0467734 0.00161055 0 0.000894126 0 0)
(0.0559498 0.00204868 0 0.000935821 0 0)
(0.0664609 0.00254992 0 0.000986404 0 0)
(0.0782175 0.00311153 0 0.00104298 0 0)
(0.0914214 0.00374725 0 0.00109107 0 0)
(0.0484281 -0.000539254 0 0.00242045 0 0)
(0.0169967 2.48071e-05 0 0.00135539 0 0)
(0.0175037 0.000167752 0 0.00103011 0 0)
(0.0156815 0.000200334 0 0.000898976 0 0)
(0.0152638 0.000352123 0 0.000813144 0 0)
(0.0159899 0.000519283 0 0.000747824 0 0)
(0.0172923 0.000592055 0 0.000694263 0 0)
(0.0188485 0.000571955 0 0.000644502 0 0)
(0.020814 0.000526563 0 0.000592647 0 0)
(0.0235039 0.000512628 0 0.000538717 0 0)
(0.0270998 0.0005545 0 0.000487285 0 0)
(0.0316691 0.00065234 0 0.000442723 0 0)
(0.0372642 0.000787722 0 0.000406072 0 0)
(0.0439182 0.000933523 0 0.000375382 0 0)
(0.0516678 0.00107569 0 0.000349841 0 0)
(0.0605639 0.00121318 0 0.000331941 0 0)
(0.0706686 0.0013493 0 0.000317116 0 0)
(0.0819392 0.00150514 0 0.00030234 0 0)
(0.0217554 -0.0469155 9.36299e-22 0.102633 -1.82604e-21 3.10362e-37)
(0.153374 -0.100267 -2.19206e-21 0.0685574 1.00325e-21 3.06022e-37)
(0.346299 -0.10255 0 0.039931 0 0)
(0.527725 -0.07548 0 0.0305792 0 0)
(0.626508 -0.0354236 0 0.0399193 0 0)
(0.695719 -0.0273443 2.06264e-21 0.0635921 1.02202e-21 2.88254e-37)
(0.785807 -0.0632406 0 0.0888532 0 0)
(0.981858 -0.136012 0 0.0998027 0 0)
(1.32922 -0.216144 0 0.0995294 0 0)
(1.82623 -0.281445 0 0.0887573 0 0)
(2.43947 -0.319629 2.32296e-21 0.0723355 -6.46192e-22 2.66998e-37)
(3.11667 -0.325988 0 0.0550151 0 0)
(3.79856 -0.30205 0 0.0398435 0 0)
(4.42819 -0.254121 0 0.0283839 0 0)
(4.9606 -0.189604 0 0.0210669 0 0)
(5.3671 -0.115394 2.10149e-21 0.0176565 8.06341e-22 2.46795e-37)
(5.62993 -0.0375274 0 0.0177648 0 0)
(5.74355 0.0390112 0 0.0207637 0 0)
(5.71165 0.108575 0 0.0261833 0 0)
(5.54748 0.166836 0 0.0331837 0 0)
(5.27706 0.207067 0 0.0413012 0 0)
(4.93057 0.227863 0 0.050902 0 0)
(4.54508 0.221074 0 0.0618823 0 0)
(4.16386 0.179636 -1.19149e-20 0.0871696 1.76831e-21 2.1662e-37)
(3.83123 0.102601 1.40131e-20 0.106908 -1.6331e-21 2.13032e-37)
(3.66528 -0.068753 -1.57432e-20 0.154539 1.11358e-21 2.09484e-37)
(3.742 -0.319568 -1.72488e-20 0.241555 4.68613e-22 2.05975e-37)
(4.09281 -0.550724 0 0.31156 0 0)
(4.61484 -0.664667 0 0.356633 0 0)
(5.24762 -0.75424 2.1428e-20 0.421625 -3.80835e-22 1.95686e-37)
(5.98946 -0.816148 2.31064e-20 0.472509 -7.19242e-22 1.92337e-37)
(6.8619 -0.861518 0 0.474623 0 0)
(7.93667 -0.912718 0 0.450209 0 0)
(9.27192 -0.981349 2.916e-20 0.422724 -1.56578e-21 1.82532e-37)
(10.8845 -1.05644 0 0.391503 0 0)
(12.7317 -1.08439 0 0.344328 0 0)
(14.6976 -1.04306 -3.55983e-20 0.293886 1.6426e-21 1.73093e-37)
(16.6261 -0.948146 0 0.238481 0 0)
(18.3659 -0.818846 -3.99611e-20 0.203387 1.68325e-21 1.67003e-37)
(19.7924 -0.674731 -8.42556e-20 0.189491 3.28926e-21 6.56077e-37)
(20.8307 -0.542615 0 0.186742 0 0)
(21.716 -0.62188 0 0.189085 0 0)
(22.5947 -0.776241 0 0.198772 0 0)
(23.253 -0.711875 0 0.230294 0 0)
(23.6404 -0.421968 0 0.175945 0 0)
(23.7661 -0.128293 -1.02648e-19 0.12422 1.87232e-21 5.87782e-37)
(23.7979 -0.0516972 -1.0437e-19 0.134387 1.76708e-21 5.76944e-37)
(24.0271 -0.126241 -1.05621e-19 0.125874 1.53829e-21 5.66259e-37)
(24.4557 -0.200801 0 0.107933 0 0)
(25.0302 -0.253002 1.06957e-19 0.0908262 -1.10254e-21 5.45347e-37)
(25.6982 -0.284515 0 0.0757002 0 0)
(26.4204 -0.299171 -1.07216e-19 0.0631861 7.50952e-22 5.2504e-37)
(27.1651 -0.301814 -1.07038e-19 0.0531156 6.03073e-22 5.15111e-37)
(27.9099 -0.296225 0 0.0450813 0 0)
(28.6411 -0.285449 0 0.0386516 0 0)
(29.3477 -0.271408 0 0.0334367 0 0)
(30.0232 -0.255297 -1.04742e-19 0.0291312 1.67932e-22 4.76856e-37)
(30.6621 -0.237772 0 0.0255076 0 0)
(31.2602 -0.219179 0 0.022402 0 0)
(31.8135 -0.199465 0 0.0196916 0 0)
(32.3175 -0.178671 0 0.0173015 0 0)
(32.767 -0.156593 0 0.0151763 0 0)
(33.1567 -0.133202 0 0.0132903 0 0)
(33.4805 -0.108439 0 0.0116279 0 0)
(33.732 -0.0824532 0 0.0101871 0 0)
(33.9058 -0.0553828 9.22313e-20 0.00896166 3.63777e-22 3.98986e-37)
(33.9965 -0.0277671 0 0.00795448 0 0)
(34 0.00011595 0 0.00714374 0 0)
(33.9152 0.0276205 -8.56166e-20 0.00651803 -4.997e-22 3.75419e-37)
(33.7449 0.0543464 -8.31292e-20 0.00604508 -5.38945e-22 3.67817e-37)
(33.4867 0.0799634 0 0.00569778 0 0)
(33.1447 0.104151 7.77793e-20 0.0054463 6.04336e-22 3.52984e-37)
(32.7224 0.126633 -7.49475e-20 0.0052719 -6.29345e-22 3.4575e-37)
(32.2244 0.147303 0 0.00515221 0 0)
(31.6559 0.16603 6.90615e-20 0.00507396 6.62675e-22 3.31641e-37)
(31.0227 0.1829 0 0.00501705 0 0)
(30.3299 0.198108 0 0.00496922 0 0)
(29.5821 0.212046 -5.99774e-20 0.00491893 -6.74116e-22 3.11351e-37)
(28.7816 0.225257 0 0.00486399 0 0)
(27.9292 0.23828 5.39466e-20 0.00481847 6.65662e-22 2.9839e-37)
(27.0232 0.251686 0 0.00479644 0 0)
(26.0602 0.265894 -4.80227e-20 0.0048243 -6.54124e-22 2.85869e-37)
(25.0354 0.281098 -4.5109e-20 0.00493395 -6.49035e-22 2.7977e-37)
(23.9437 0.297221 -4.22299e-20 0.00515302 -6.44614e-22 2.73776e-37)
(22.7808 0.313851 -7.87769e-20 0.00549826 -1.28085e-21 1.07154e-36)
(21.5451 0.330236 7.31816e-20 0.00598659 1.27172e-21 1.04839e-36)
(20.2381 0.345343 0 0.00660548 0 0)
(18.8661 0.358014 0 0.00733212 0 0)
(17.4401 0.36712 0 0.00812961 0 0)
(15.9754 0.371658 5.21969e-20 0.00894396 1.18768e-21 9.59789e-37)
(14.491 0.370981 4.74786e-20 0.00972261 1.14817e-21 9.38609e-37)
(13.0085 0.364704 -4.30453e-20 0.010406 -1.1007e-21 9.17806e-37)
(11.5501 0.352811 0 0.0109378 0 0)
(10.138 0.335718 3.51336e-20 0.0112758 9.8561e-22 8.77309e-37)
(8.79275 0.314028 3.16821e-20 0.0113823 9.20909e-22 8.57605e-37)
(7.53226 0.288603 2.85677e-20 0.0112376 8.53561e-22 8.38256e-37)
(6.37024 0.260422 0 0.010838 0 0)
(5.31678 0.230607 0 0.0102039 0 0)
(4.379 0.20027 0 0.0093701 0 0)
(3.55965 0.170551 1.91547e-20 0.00839401 5.83754e-22 7.64303e-37)
(2.85855 0.143468 0 0.00744415 0 0)
(2.27074 0.117902 0 0.00638517 0 0)
(1.78523 0.0950858 -1.46215e-20 0.00534894 -4.08879e-22 7.12304e-37)
(1.39129 0.0751751 0 0.00436665 0 0)
(1.07695 0.0583632 0 0.00348395 0 0)
(0.830233 0.0445326 -1.15131e-20 0.00271954 -2.60421e-22 6.63134e-37)
(0.639351 0.0334276 0 0.00208031 0 0)
(0.493503 0.0247046 0 0.00156263 0 0)
(0.383209 0.0179824 9.38426e-21 0.00115534 1.45888e-22 6.16665e-37)
(0.300484 0.0128828 8.83939e-21 0.000842677 1.15655e-22 6.01755e-37)
(0.238847 0.00906149 0 0.0006073 0 0)
(0.193175 0.00622698 -7.94331e-21 0.000433176 -6.59551e-23 5.72774e-37)
(0.159511 0.00414536 0 0.000307232 0 0)
(0.134828 0.00262982 7.25831e-21 0.000218889 2.84141e-23 5.44884e-37)
(0.116851 0.0015297 0 0.000158671 0 0)
(0.103898 0.000726972 6.7379e-21 0.000118097 6.95556e-25 5.18051e-37)
(0.0947501 0.000136133 6.5276e-21 9.06376e-05 -1.03534e-23 5.05021e-37)
(0.0885196 -0.00030105 0 7.20965e-05 0 0)
(0.0845412 -0.000622456 0 5.9868e-05 0 0)
(0.0822785 -0.000853347 0 5.26804e-05 0 0)
(0.0813004 -0.00101665 0 4.99955e-05 0 0)
(0.0812817 -0.00113348 0 5.10725e-05 0 0)
(0.0820016 -0.00122268 0 5.50794e-05 0 0)
(0.0833496 -0.00130156 0 6.06355e-05 0 0)
(0.0852792 -0.00137823 5.6752e-21 6.61692e-05 -5.93611e-23 4.09511e-37)
(0.0877562 -0.00145187 -5.6361e-21 7.1198e-05 6.09099e-23 3.98607e-37)
(0.0907396 -0.00151916 0 7.61693e-05 0 0)
(0.0941823 -0.00157901 0 8.17025e-05 0 0)
(0.0980413 -0.00163324 0 8.80085e-05 0 0)
(0.102283 -0.0016844 0 9.49107e-05 0 0)
(0.106883 -0.00173415 -1.10627e-20 0.000102127 1.29147e-22 1.38912e-36)
(0.111826 -0.00178342 0 0.000109455 0 0)
(0.117102 -0.00183276 1.10475e-20 0.000116828 -1.30891e-22 1.3127e-36)
(0.122703 -0.00188251 -1.10529e-20 0.000124239 1.31242e-22 1.27567e-36)
(0.128624 -0.0019343 0 0.000131733 0 0)
(0.13487 -0.00199154 0 0.000139213 0 0)
(0.14146 -0.00205764 0 0.000146328 0 0)
(0.148428 -0.0021345 1.11406e-20 0.00015267 -1.27193e-22 1.13504e-36)
(0.15582 -0.00222253 1.11722e-20 0.000157801 -1.24483e-22 1.1017e-36)
(0.163691 -0.00232087 0 0.000161 0 0)
(0.172092 -0.00242645 1.1235e-20 0.000161009 -1.16353e-22 1.03713e-36)
(0.181069 -0.00253191 1.12622e-20 0.000156236 -1.10624e-22 1.00587e-36)
(0.190636 -0.00262472 -1.12835e-20 0.000145659 1.03792e-22 9.75276e-37)
(0.200765 -0.00269041 0 0.000129989 0 0)
(0.211379 -0.00271886 0 0.000111838 0 0)
(0.222361 -0.00270908 -1.12926e-20 9.43903e-05 8.03388e-23 8.87417e-37)
(0.233583 -0.00266849 0 7.97653e-05 0 0)
(0.244928 -0.00260743 0 6.84084e-05 0 0)
(0.256294 -0.00253332 0 5.96122e-05 0 0)
(0.267596 -0.00244788 0 5.23396e-05 0 0)
(0.278753 -0.00234804 1.10907e-20 4.57344e-05 -5.08565e-23 7.53408e-37)
(0.289677 -0.00222917 1.10206e-20 3.9274e-05 -4.62493e-23 7.28381e-37)
(0.300271 -0.00208838 0 3.27744e-05 0 0)
(0.310428 -0.00192701 1.08535e-20 2.63616e-05 -3.74094e-23 6.80024e-37)
(0.320051 -0.00175098 0 2.03692e-05 0 0)
(0.329058 -0.00156945 0 1.51529e-05 0 0)
(0.337409 -0.00139227 1.05391e-20 1.09332e-05 -2.60729e-23 6.116e-37)
(0.345092 -0.00122773 0 7.73487e-06 0 0)
(0.35215 -0.00108118 1.02937e-20 5.43162e-06 -2.06756e-23 5.68625e-37)
(0.358622 -0.000954804 0 3.82852e-06 0 0)
(0.364613 -0.000848916 0 2.73789e-06 0 0)