/*--------------------------------*- C++ -*----------------------------------*\
  =========                 |
  \\      /  F ield         | OpenFOAM: The Open Source CFD Toolbox
   \\    /   O peration     | Website:  https://openfoam.org
    \\  /    A nd           | Version:  10
     \\/     M anipulation  |
\*---------------------------------------------------------------------------*/
FoamFile
{
    format      ascii;
    class       volScalarField;
    location    "37";
    object      p;
}
// * * * * * * * * * * * * * * * * * * * * * * * * * * * * * * * * * * * * * //

dimensions      [1 -1 -2 0 0 0 0];

internalField   nonuniform List<scalar> 
100
(
1.02932e+07
1.02928e+07
1.02922e+07
1.02915e+07
1.02907e+07
1.02898e+07
1.02888e+07
1.02878e+07
1.02867e+07
1.02855e+07
1.02843e+07
1.0283e+07
1.02816e+07
1.02802e+07
1.02788e+07
1.02772e+07
1.02756e+07
1.0274e+07
1.02723e+07
1.02706e+07
1.02688e+07
1.0267e+07
1.02651e+07
1.02632e+07
1.02612e+07
1.02592e+07
1.02571e+07
1.0255e+07
1.02528e+07
1.02507e+07
1.02484e+07
1.02461e+07
1.02438e+07
1.02414e+07
1.0239e+07
1.02366e+07
1.02341e+07
1.02315e+07
1.0229e+07
1.02263e+07
1.02237e+07
1.0221e+07
1.02182e+07
1.02155e+07
1.02127e+07
1.02098e+07
1.02069e+07
1.0204e+07
1.0201e+07
1.0198e+07
1.01949e+07
1.01918e+07
1.01887e+07
1.01855e+07
1.01823e+07
1.0179e+07
1.01757e+07
1.01724e+07
1.0169e+07
1.01656e+07
1.01621e+07
1.01586e+07
1.0155e+07
1.01514e+07
1.01477e+07
1.01439e+07
1.01401e+07
1.01362e+07
1.01322e+07
1.0128e+07
1.01236e+07
1.01188e+07
1.01126e+07
1.01066e+07
1.01025e+07
1.00985e+07
1.00945e+07
1.00905e+07
1.00865e+07
1.00824e+07
1.00784e+07
1.00744e+07
1.00704e+07
1.00664e+07
1.00623e+07
1.00583e+07
1.00543e+07
1.00503e+07
1.00462e+07
1.00422e+07
1.00382e+07
1.00342e+07
1.00302e+07
1.00261e+07
1.00221e+07
1.00181e+07
1.00141e+07
1.00101e+07
1.0006e+07
1.0002e+07
)
;

boundaryField
{
    inlet
    {
        type            zeroGradient;
    }
    outlet
    {
        type            fixedValue;
        value           uniform 1e+07;
    }
    yzfaces
    {
        type            empty;
    }
}


// ************************************************************************* //
