/*--------------------------------*- C++ -*----------------------------------*\
  =========                 |
  \\      /  F ield         | OpenFOAM: The Open Source CFD Toolbox
   \\    /   O peration     | Website:  https://openfoam.org
    \\  /    A nd           | Version:  10
     \\/     M anipulation  |
\*---------------------------------------------------------------------------*/
FoamFile
{
    format      ascii;
    class       volVectorField;
    location    "37";
    object      Ua;
}
// * * * * * * * * * * * * * * * * * * * * * * * * * * * * * * * * * * * * * //

dimensions      [0 1 -1 0 0 0 0];

internalField   nonuniform List<vector> 
100
(
(0.000200653 0 0)
(0.000400884 0 0)
(0.000400036 0 0)
(0.00039918 0 0)
(0.000398318 0 0)
(0.000397454 0 0)
(0.000396588 0 0)
(0.00039572 0 0)
(0.000394851 0 0)
(0.00039398 0 0)
(0.000393109 0 0)
(0.000392236 0 0)
(0.000391362 0 0)
(0.000390487 0 0)
(0.00038961 0 0)
(0.000388732 0 0)
(0.000387853 0 0)
(0.000386972 0 0)
(0.000386089 0 0)
(0.000385204 0 0)
(0.000384318 0 0)
(0.000383429 0 0)
(0.000382538 0 0)
(0.000381645 0 0)
(0.00038075 0 0)
(0.000379852 0 0)
(0.000378952 0 0)
(0.000378049 0 0)
(0.000377143 0 0)
(0.000376234 0 0)
(0.000375321 0 0)
(0.000374406 0 0)
(0.000373487 0 0)
(0.000372564 0 0)
(0.000371637 0 0)
(0.000370707 0 0)
(0.000369772 0 0)
(0.000368832 0 0)
(0.000367888 0 0)
(0.000366938 0 0)
(0.000365983 0 0)
(0.000365023 0 0)
(0.000364056 0 0)
(0.000363082 0 0)
(0.000362101 0 0)
(0.000361113 0 0)
(0.000360116 0 0)
(0.00035911 0 0)
(0.000358093 0 0)
(0.000357066 0 0)
(0.000356026 0 0)
(0.000354972 0 0)
(0.000353903 0 0)
(0.000352816 0 0)
(0.000351709 0 0)
(0.000350579 0 0)
(0.000349421 0 0)
(0.000348231 0 0)
(0.000347002 0 0)
(0.000345727 0 0)
(0.000344393 0 0)
(0.000342986 0 0)
(0.000341484 0 0)
(0.000339856 0 0)
(0.000338055 0 0)
(0.000336008 0 0)
(0.000333593 0 0)
(0.000330593 0 0)
(0.000326568 0 0)
(0.000320461 0 0)
(0.000308897 0 0)
(0.000271745 0 0)
(0.000122784 0 0)
(1.58765e-06 0 0)
(3.79471e-19 0 0)
(0 0 0)
(0 0 0)
(0 0 0)
(0 0 0)
(0 0 0)
(0 0 0)
(0 0 0)
(0 0 0)
(0 0 0)
(0 0 0)
(0 0 0)
(0 0 0)
(0 0 0)
(0 0 0)
(0 0 0)
(0 0 0)
(0 0 0)
(0 0 0)
(0 0 0)
(0 0 0)
(0 0 0)
(0 0 0)
(0 0 0)
(0 0 0)
(0 0 0)
)
;

boundaryField
{
    inlet
    {
        type            fixedValue;
        value           uniform (0 0 0);
    }
    outlet
    {
        type            zeroGradient;
    }
    yzfaces
    {
        type            empty;
    }
}


// ************************************************************************* //
