/*--------------------------------*- C++ -*----------------------------------*\
  =========                 |
  \\      /  F ield         | OpenFOAM: The Open Source CFD Toolbox
   \\    /   O peration     | Website:  https://openfoam.org
    \\  /    A nd           | Version:  10
     \\/     M anipulation  |
\*---------------------------------------------------------------------------*/
FoamFile
{
    format      ascii;
    class       volScalarField;
    location    "0.092";
    object      pMean;
}
// * * * * * * * * * * * * * * * * * * * * * * * * * * * * * * * * * * * * * //

dimensions      [0 2 -2 0 0 0 0];

internalField   nonuniform List<scalar> 
12225
(
8.73
8.00261
7.59105
7.39287
7.26012
7.13555
7.01229
6.89692
6.79463
6.70688
6.63291
6.57136
6.52021
6.4745
6.4256
6.337
6.16792
5.66878
8.49759
7.97261
7.58881
7.38322
7.24909
7.12615
7.00374
6.88838
6.78534
6.69682
6.62087
6.55783
6.50145
6.45405
6.39116
6.31342
6.12311
5.8066
8.44985
7.96794
7.59621
7.3805
7.24132
7.11872
6.99707
6.88113
6.77703
6.68628
6.60807
6.53947
6.47831
6.41709
6.34712
6.24146
6.06562
5.76315
8.30261
7.91911
7.58588
7.36917
7.2259
7.10447
6.9847
6.86923
6.76377
6.67113
6.58925
6.51647
6.44721
6.3772
6.29231
6.17662
6.0009
5.74337
8.20929
7.88363
7.58227
7.36617
7.21627
7.09291
6.9742
6.85896
6.75232
6.65679
6.57127
6.49277
6.41667
6.33685
6.24248
6.12022
5.95374
5.73806
8.11818
7.83325
7.56317
7.3543
7.20055
7.07525
6.95741
6.84286
6.73527
6.63734
6.54809
6.46445
6.38175
6.29394
6.19278
6.0686
5.91341
5.72537
8.0237
7.77806
7.54198
7.34426
7.18813
7.05962
6.94166
6.82761
6.71896
6.61812
6.52463
6.43563
6.34668
6.25241
6.1465
6.02264
5.87647
5.70778
7.96151
7.72962
7.51398
7.32819
7.17244
7.04091
6.92175
6.80789
6.69855
6.59521
6.49775
6.40378
6.30938
6.21002
6.101
5.97818
5.83908
5.68443
7.86869
7.66828
7.4803
7.30826
7.15501
7.0215
6.90086
6.78647
6.67628
6.57067
6.46954
6.37097
6.27179
6.16832
6.05701
5.93515
5.80142
5.65677
7.81248
7.61843
7.44459
7.28529
7.1362
7.001
6.87817
6.76282
6.65157
6.54368
6.43889
6.33599
6.23252
6.12558
6.01243
5.89129
5.76149
5.62401
7.75699
7.56297
7.40131
7.25396
7.11092
6.97699
6.85316
6.7363
6.62346
6.51342
6.40576
6.29936
6.19233
6.08248
5.9679
5.84739
5.72051
5.58789
7.67944
7.51532
7.36974
7.22926
7.08922
6.95534
6.82992
6.71135
6.59691
6.48486
6.37436
6.26472
6.15462
6.04235
5.92645
5.80593
5.68066
5.55107
7.62198
7.46525
7.32646
7.19386
7.05998
6.92865
6.80307
6.68308
6.56697
6.45314
6.34058
6.2284
6.11565
6.00122
5.88408
5.76357
5.63945
5.51195
7.60694
7.42491
7.28304
7.15889
7.03181
6.90179
6.77414
6.6516
6.53324
6.41708
6.30182
6.18671
6.07115
5.9544
5.83577
5.7147
5.59103
5.46488
7.54477
7.36197
7.22633
7.11128
6.99071
6.86344
6.73577
6.61166
6.49126
6.37291
6.25522
6.13749
6.01933
5.90036
5.78016
5.6584
5.5349
5.40968
7.46037
7.29911
7.1777
7.06762
6.94846
6.8216
6.69343
6.56781
6.44511
6.32414
6.2037
6.0832
5.96243
5.84124
5.71934
5.59652
5.4726
5.34762
7.36781
7.22973
7.12096
7.01554
6.89794
6.77228
6.64469
6.51824
6.39342
6.26965
6.14629
6.02306
5.89975
5.7763
5.65255
5.52848
5.40386
5.27875
7.30986
7.17126
7.06584
6.96411
6.84907
6.72365
6.59447
6.46581
6.33875
6.21277
6.08717
5.96164
5.83612
5.7107
5.5854
5.46021
5.33508
5.21006
7.37533
7.1857
7.04486
6.928
6.80834
6.68101
6.54948
6.41736
6.28624
6.15635
6.02738
5.89899
5.77107
5.64372
5.517
5.39096
5.26555
5.14076
7.30507
7.1419
7.01776
6.90527
6.783
6.65112
6.5158
6.38132
6.24876
6.11758
5.98714
5.85727
5.72809
5.59983
5.47263
5.34652
5.22147
5.09756
7.30276
7.1537
7.03
6.90739
6.7746
6.63702
6.49936
6.36318
6.22848
6.09495
5.96241
5.83098
5.70079
5.57198
5.44463
5.31877
5.19439
5.07148
7.32937
7.17804
7.04769
6.91806
6.77932
6.63651
6.49502
6.35655
6.2202
6.08504
5.951
5.81839
5.68748
5.55833
5.4309
5.30517
5.18116
5.05895
7.43597
7.22478
7.05876
6.91787
6.77725
6.63354
6.49026
6.34941
6.21092
6.07424
5.9392
5.80597
5.67477
5.54558
5.41838
5.29314
5.16988
5.04856
7.51553
7.29427
7.1059
6.94389
6.79171
6.64402
6.49927
6.35666
6.21579
6.07682
5.94016
5.80603
5.67429
5.5448
5.41744
5.29223
5.16923
5.04857
7.47267
7.29431
7.11585
6.94442
6.78524
6.63718
6.4939
6.35138
6.20951
6.06966
5.93272
5.79865
5.66715
5.53796
5.41101
5.28633
5.164
5.044
7.64804
7.3836
7.15292
6.96365
6.80128
6.65271
6.50752
6.3621
6.21761
6.076
5.938
5.80332
5.67141
5.54189
5.41473
5.29001
5.16778
5.04808
7.69506
7.39828
7.14694
6.9544
6.79694
6.6517
6.50635
6.35954
6.21422
6.07259
5.93491
5.8005
5.66874
5.53941
5.41252
5.28819
5.16648
5.04748
7.77527
7.45995
7.17472
6.96746
6.80945
6.66417
6.51635
6.367
6.22029
6.07803
5.93994
5.80521
5.67322
5.54378
5.41692
5.29273
5.17116
5.05202
7.80603
7.45875
7.16346
6.96357
6.81068
6.66534
6.51632
6.36648
6.21981
6.07766
5.9396
5.80485
5.67282
5.5434
5.41657
5.29265
5.17151
5.05338
8.04269
7.49552
7.15992
6.96933
6.81978
6.67217
6.52119
6.37063
6.22372
6.08141
5.94321
5.80834
5.67622
5.54678
5.41996
5.29622
5.17539
5.05832
1.88485
1.72813
1.56457
1.49681
1.56737
1.73855
1.90897
1.9676
1.84895
1.55116
1.10845
0.578971
0.0177921
-0.511582
-0.97404
-1.351
-1.63344
-1.81569
-1.89935
-1.89698
-1.83285
-1.72259
-1.58804
-1.44954
-1.33998
-1.28155
-1.31507
-1.4324
-1.5941
-1.77208
-1.97325
-2.23175
-2.56873
-2.95816
-3.35688
-3.74399
-4.1139
-4.542
-5.10055
-5.74603
-6.35541
-6.87825
-7.33267
-7.77214
-8.2643
-8.75476
-9.18006
-9.53458
-9.7561
-9.86711
-10.0045
-10.1308
-10.2136
-10.2576
-10.2492
-10.1574
-9.95756
-9.74777
-9.58449
-9.45736
-9.32706
-9.18181
-8.9475
-8.66017
-8.39218
-8.16759
-7.96046
-7.75749
-7.54225
-7.31163
-7.06953
-6.83382
-6.6283
-6.48338
-6.4048
-6.35252
-6.26578
-6.09092
-5.78295
-5.35639
-4.87138
-4.40114
-3.93147
-3.4213
-2.85656
-2.29446
-1.68828
-1.05225
-0.459498
-0.1117
-0.0191755
-0.0200198
0.00316737
0.106237
0.314258
0.631655
1.05685
1.58664
2.22697
2.99508
3.91979
5.01529
6.27174
7.62455
8.98776
10.2786
11.6068
12.804
13.6173
14.077
14.2649
14.2936
14.3036
14.3809
14.5768
14.9179
15.4175
16.0786
16.8963
17.8559
18.9309
20.0839
21.2693
22.4371
23.5393
24.5364
25.4013
26.12
26.6869
27.1027
27.371
27.4984
27.4942
27.3718
27.1496
26.8499
26.4953
26.1048
25.696
25.2814
24.8704
24.4698
24.0843
23.7173
23.3717
23.0497
22.753
22.4828
22.2401
22.0258
21.8406
21.6847
21.5581
21.4597
21.387
21.3353
21.2982
21.2681
21.2373
21.2017
21.1635
21.1317
21.109
21.0817
21.0429
20.9947
20.9413
20.9025
20.8885
20.8911
20.896
20.899
20.9027
20.9128
20.93
20.9558
20.994
21.0554
21.1545
21.295
1.17621
1.02441
0.87361
0.77501
0.824329
0.945021
1.03964
1.01332
0.822696
0.479172
0.0268541
-0.476172
-0.980644
-1.44273
-1.83801
-2.15544
-2.387
-2.53069
-2.58949
-2.5799
-2.50546
-2.38945
-2.26486
-2.14512
-2.04198
-2.00224
-2.01916
-2.12388
-2.28056
-2.49399
-2.82333
-3.24017
-3.70735
-4.19258
-4.66305
-5.11451
-5.54719
-5.99785
-6.51387
-7.10366
-7.67951
-8.17377
-8.58558
-8.95193
-9.36843
-9.77968
-10.2063
-10.6812
-10.9617
-11.1097
-11.2585
-11.369
-11.4156
-11.3933
-11.2938
-11.1596
-10.9546
-10.7183
-10.5113
-10.3192
-10.1127
-9.91887
-9.70501
-9.45321
-9.23076
-9.03574
-8.85268
-8.66482
-8.45776
-8.2262
-7.97352
-7.72584
-7.51084
-7.35001
-7.24545
-7.16383
-7.05841
-6.86944
-6.54144
-6.07701
-5.52275
-4.96877
-4.44002
-3.89185
-3.29394
-2.70332
-2.15853
-1.65594
-1.20679
-0.924884
-0.810606
-0.739117
-0.63586
-0.454064
-0.178648
0.192327
0.656476
1.21213
1.86566
2.63601
3.55783
4.65282
5.9254
7.30923
8.74662
10.0286
11.223
12.2688
12.9819
13.4207
13.6367
13.7335
13.8211
13.9682
14.2204
14.6058
15.1411
15.8314
16.6714
17.6476
18.7374
19.9058
21.1075
22.2923
23.4103
24.4206
25.2956
26.0214
26.5938
27.0146
27.2884
27.4218
27.4236
27.3071
27.0889
26.7932
26.4418
26.0544
25.6481
25.2357
24.8265
24.4274
24.043
23.6768
23.3315
23.0094
22.7121
22.4409
22.197
21.9809
21.7932
21.6343
21.5037
21.3999
21.3202
21.2596
21.2126
21.173
21.1364
21.1022
21.0752
21.0619
21.0535
21.0263
20.9829
20.9362
20.8871
20.8541
20.8459
20.852
20.859
20.8632
20.8672
20.8752
20.8902
20.9132
20.9549
21.0084
21.0949
21.1588
1.36372
1.28996
1.10227
0.841446
0.575073
0.317944
0.039922
-0.296543
-0.709768
-1.18384
-1.67704
-2.14709
-2.57901
-2.96501
-3.2756
-3.50361
-3.65138
-3.72053
-3.72351
-3.67871
-3.59441
-3.47954
-3.35264
-3.23587
-3.13726
-3.09721
-3.1096
-3.18384
-3.34629
-3.60203
-3.95806
-4.40074
-4.91144
-5.45789
-6.00762
-6.53066
-7.05878
-7.62648
-8.22365
-8.82998
-9.37105
-9.80806
-10.1302
-10.4605
-10.8773
-11.3206
-11.7374
-12.1647
-12.5316
-12.7928
-12.9677
-13.0455
-13.0217
-12.9142
-12.7543
-12.5488
-12.3104
-12.05
-11.7757
-11.497
-11.2341
-11.0009
-10.8095
-10.6433
-10.5015
-10.3716
-10.2378
-10.0815
-9.88643
-9.64596
-9.36946
-9.09293
-8.84897
-8.65181
-8.49386
-8.345
-8.16629
-7.90481
-7.51206
-6.99959
-6.38809
-5.74022
-5.13504
-4.5395
-3.94173
-3.39599
-2.96596
-2.62051
-2.34081
-2.12167
-1.94255
-1.75941
-1.54166
-1.26258
-0.910555
-0.480854
0.0257631
0.608819
1.27466
2.04501
2.96228
4.05326
5.32349
6.7208
8.13615
9.39659
10.4646
11.3276
11.9649
12.4102
12.7002
12.9087
13.1011
13.3337
13.6508
14.0857
14.6587
15.377
16.2407
17.2405
18.3552
19.5511
20.7834
21.9999
23.1481
24.1842
25.079
25.8192
26.4025
26.8333
27.1176
27.2621
27.2754
27.1689
26.9602
26.6733
26.3298
25.9499
25.5503
25.1438
24.7396
24.3443
23.9626
23.5982
23.254
22.9323
22.6349
22.3632
22.1182
21.9009
21.7115
21.5499
21.416
21.3084
21.2245
21.1599
21.1097
21.0687
21.033
21.0018
20.9766
20.9587
20.9443
20.927
20.9043
20.872
20.8305
20.7972
20.7843
20.7878
20.7959
20.8033
20.8113
20.8213
20.838
20.8584
20.8938
20.9302
20.9935
21.0172
1.35362
1.27425
0.995666
0.558337
0.0180138
-0.565869
-1.15283
-1.73405
-2.30253
-2.84347
-3.33833
-3.77211
-4.13764
-4.42642
-4.63272
-4.77368
-4.85852
-4.88616
-4.87277
-4.82635
-4.75596
-4.67044
-4.57941
-4.50131
-4.45766
-4.45078
-4.49354
-4.58536
-4.7349
-4.95008
-5.23988
-5.60912
-6.05516
-6.55909
-7.09692
-7.66312
-8.28351
-8.97714
-9.7121
-10.4134
-11.019
-11.5178
-11.9019
-12.2607
-12.6704
-13.1259
-13.5876
-14.0132
-14.3652
-14.6213
-14.7687
-14.809
-14.751
-14.6176
-14.4368
-14.2088
-13.9352
-13.6206
-13.2802
-12.9403
-12.6411
-12.4152
-12.2563
-12.1411
-12.0548
-11.9793
-11.8936
-11.7735
-11.5961
-11.3499
-11.047
-10.7274
-10.4295
-10.1652
-9.92791
-9.70361
-9.4448
-9.09226
-8.61402
-8.03311
-7.35038
-6.62841
-5.97132
-5.38482
-4.84052
-4.38975
-4.05835
-3.81745
-3.60713
-3.40134
-3.18375
-2.93479
-2.64082
-2.28746
-1.86847
-1.38197
-0.830566
-0.216988
0.463344
1.23478
2.15128
3.24858
4.52185
5.90476
7.25586
8.43863
9.40133
10.1733
10.7706
11.2275
11.5822
11.8806
12.164
12.4791
12.866
13.3581
13.9768
14.7326
15.628
16.6577
17.8041
19.0364
20.3099
21.5702
22.7609
23.8338
24.7577
25.5191
26.1187
26.5638
26.8626
27.0222
27.0506
26.9583
26.7634
26.4892
26.1577
25.7891
25.3998
25.0023
24.6056
24.2162
23.839
23.4779
23.136
22.8158
22.5192
22.2479
22.0027
21.7841
21.5931
21.4297
21.2937
21.1835
21.0968
21.03
20.9789
20.9391
20.9071
20.8814
20.8616
20.847
20.8349
20.8198
20.7974
20.7677
20.7358
20.7071
20.6904
20.6888
20.6947
20.7021
20.7123
20.7243
20.7433
20.7652
20.8006
20.8301
20.873
20.8661
1.17297
0.954169
0.468941
-0.193711
-0.933358
-1.68311
-2.40792
-3.09011
-3.71909
-4.28846
-4.79285
-5.22034
-5.56103
-5.81126
-5.97883
-6.08254
-6.13663
-6.15097
-6.13912
-6.11175
-6.07183
-6.02543
-5.98771
-5.97305
-5.99394
-6.05784
-6.16399
-6.30632
-6.47818
-6.67622
-6.90491
-7.17695
-7.50837
-7.90952
-8.38528
-8.94337
-9.59871
-10.3492
-11.1433
-11.9111
-12.5953
-13.1922
-13.7125
-14.1932
-14.6681
-15.1506
-15.6239
-16.0528
-16.4098
-16.6742
-16.8268
-16.8619
-16.7868
-16.6273
-16.4099
-16.1378
-15.8129
-15.4444
-15.0553
-14.6792
-14.3671
-14.1387
-13.9729
-13.8508
-13.7611
-13.6863
-13.6029
-13.4828
-13.3013
-13.0429
-12.7148
-12.3501
-11.9784
-11.6135
-11.2614
-10.9194
-10.5569
-10.1231
-9.58746
-8.95951
-8.24201
-7.5018
-6.84262
-6.30208
-5.862
-5.52701
-5.28659
-5.09862
-4.91788
-4.72268
-4.49426
-4.21657
-3.87899
-3.47362
-2.99975
-2.46129
-1.86644
-1.22386
-0.533035
0.237184
1.15927
2.27649
3.5576
4.89998
6.16971
7.2613
8.14899
8.86824
9.44303
9.91363
10.317
10.684
11.0464
11.4409
11.9012
12.4567
13.1276
13.9264
14.8583
15.9215
17.1032
18.3766
19.6981
21.0105
22.2527
23.3716
24.3327
25.1226
25.7441
26.208
26.5249
26.7029
26.7491
26.674
26.4958
26.2375
25.9215
25.5679
25.1923
24.8068
24.42
24.0386
23.6675
23.3109
22.9725
22.655
22.3605
22.0904
21.8461
21.6283
21.4376
21.2739
21.1368
21.0253
20.9372
20.8696
20.8189
20.7813
20.7536
20.7337
20.7202
20.7116
20.7059
20.6983
20.6835
20.6612
20.6354
20.6095
20.5891
20.5773
20.5738
20.5775
20.5876
20.6013
20.6223
20.6455
20.6786
20.7033
20.7315
20.7098
0.645681
0.252702
-0.432648
-1.20128
-2.00869
-2.80641
-3.56132
-4.27697
-4.94839
-5.56906
-6.1284
-6.60887
-6.99551
-7.28029
-7.47054
-7.5911
-7.66123
-7.69398
-7.70376
-7.70545
-7.70427
-7.70921
-7.73176
-7.78174
-7.86864
-7.99647
-8.16179
-8.35506
-8.56386
-8.77848
-8.99713
-9.23029
-9.50136
-9.84006
-10.2694
-10.8123
-11.4716
-12.2348
-13.053
-13.871
-14.6412
-15.3427
-15.9778
-16.5577
-17.0966
-17.6073
-18.0848
-18.5084
-18.8552
-19.1036
-19.2381
-19.2553
-19.1548
-18.9511
-18.6703
-18.3287
-17.9378
-17.512
-17.075
-16.671
-16.3439
-16.0855
-15.8722
-15.6908
-15.5342
-15.3888
-15.2379
-15.0602
-14.8337
-14.5412
-14.1781
-13.7586
-13.2944
-12.8
-12.3032
-11.8198
-11.331
-10.8052
-10.2204
-9.57399
-8.87726
-8.1955
-7.61091
-7.16756
-6.8537
-6.63738
-6.48157
-6.34575
-6.2052
-6.04004
-5.82699
-5.54929
-5.19514
-4.7592
-4.24525
-3.66405
-3.03116
-2.36316
-1.66496
-0.896211
0.0375072
1.17524
2.45002
3.73417
4.9214
5.93681
6.77458
7.4602
8.02364
8.50949
8.94994
9.37233
9.80609
10.2787
10.8163
11.4409
12.1687
13.0129
13.9822
15.0781
16.2935
17.6069
18.9771
20.3444
21.6423
22.8124
23.8166
24.6407
25.2891
25.7756
26.1136
26.3123
26.3778
26.3213
26.1615
25.9214
25.6237
25.2876
24.9281
24.5564
24.1811
23.8087
23.4448
23.0939
22.7602
22.4466
22.1556
21.8888
21.6475
21.4325
21.244
21.082
20.9459
20.8346
20.7463
20.6786
20.6286
20.5934
20.57
20.5561
20.5497
20.5491
20.5518
20.5541
20.5515
20.5422
20.5273
20.5087
20.4898
20.4725
20.4583
20.4511
20.4548
20.4653
20.4832
20.504
20.5328
20.5533
20.571
20.5406
-0.453529
-0.87967
-1.53331
-2.24411
-2.98752
-3.74691
-4.4986
-5.23241
-5.93975
-6.61656
-7.24373
-7.79864
-8.26237
-8.62411
-8.88713
-9.07602
-9.21523
-9.32032
-9.40589
-9.48484
-9.56303
-9.6483
-9.74983
-9.8769
-10.036
-10.2281
-10.4499
-10.6929
-10.947
-11.202
-11.4523
-11.7033
-11.9759
-12.3083
-12.7362
-13.2939
-13.9775
-14.765
-15.6203
-16.4986
-17.3518
-18.1488
-18.8751
-19.5277
-20.1117
-20.6323
-21.0883
-21.4698
-21.7601
-21.9466
-22.0227
-21.9864
-21.8242
-21.5379
-21.1585
-20.7181
-20.24
-19.7425
-19.254
-18.8197
-18.4607
-18.1457
-17.8522
-17.5759
-17.3141
-17.0573
-16.7931
-16.5069
-16.1826
-15.806
-15.3688
-14.866
-14.296
-13.6698
-13.0214
-12.3834
-11.764
-11.1508
-10.5297
-9.89472
-9.26202
-8.68852
-8.23379
-7.92369
-7.74222
-7.63958
-7.56598
-7.49342
-7.40838
-7.29047
-7.11474
-6.86201
-6.5165
-6.07219
-5.53534
-4.92274
-4.25888
-3.56907
-2.86343
-2.09228
-1.14743
-0.0072325
1.23268
2.44796
3.56129
4.52459
5.33365
6.0016
6.5643
7.06482
7.53246
8.00102
8.50123
9.05195
9.66872
10.3649
11.1523
12.0442
13.0501
14.1755
15.4192
16.7664
18.1802
19.5995
20.9521
22.1741
23.2238
24.0851
24.7629
25.2742
25.6354
25.855
25.94
25.9027
25.7623
25.5421
25.2644
24.9474
24.6052
24.2482
23.8848
23.522
23.1659
22.8218
22.494
22.1862
21.9007
21.6394
21.4034
21.1933
21.0095
20.8513
20.7182
20.6088
20.5217
20.4551
20.4069
20.3747
20.3564
20.3494
20.3516
20.3605
20.3736
20.3878
20.3994
20.4062
20.4073
20.4029
20.3929
20.3765
20.3557
20.3365
20.3265
20.3272
20.3371
20.3513
20.3724
20.3861
20.3943
20.3577
-1.52591
-1.87594
-2.37343
-2.98175
-3.66472
-4.38109
-5.11302
-5.85199
-6.5946
-7.32824
-8.02846
-8.67044
-9.23432
-9.70922
-10.0943
-10.408
-10.6742
-10.9053
-11.1126
-11.3058
-11.4919
-11.6791
-11.8769
-12.0932
-12.332
-12.5939
-12.8764
-13.1752
-13.4838
-13.7944
-14.1011
-14.4075
-14.7339
-15.1208
-15.6112
-16.2329
-16.9812
-17.8352
-18.7646
-19.726
-20.6686
-21.5557
-22.3616
-23.0696
-23.6724
-24.1701
-24.5678
-24.8657
-25.055
-25.136
-25.1105
-24.9715
-24.6983
-24.2917
-23.7889
-23.2367
-22.6643
-22.0902
-21.5424
-21.0629
-20.6468
-20.2482
-19.8523
-19.4646
-19.0822
-18.699
-18.3069
-17.8946
-17.4474
-16.9506
-16.3935
-15.7666
-15.0659
-14.3018
-13.5108
-12.7345
-11.9997
-11.3109
-10.6644
-10.0601
-9.51661
-9.07082
-8.76054
-8.58822
-8.52649
-8.5171
-8.51354
-8.50165
-8.47414
-8.41008
-8.28573
-8.07777
-7.76237
-7.32938
-6.78529
-6.15287
-5.46549
-4.75634
-4.04036
-3.2634
-2.31935
-1.20493
-0.0271982
1.11169
2.16309
3.09392
3.8903
4.55213
5.11897
5.62833
6.11462
6.62463
7.18899
7.8158
8.5103
9.2788
10.129
11.0691
12.1094
13.2598
14.5248
15.8972
17.3458
18.8099
20.2122
21.4829
22.576
23.4732
24.1798
24.7167
25.1003
25.34
25.4438
25.425
25.3042
25.1047
24.8477
24.5504
24.2255
23.883
23.5313
23.1781
22.8301
22.4934
22.1729
21.8724
21.5944
21.3407
21.1122
20.9094
20.7322
20.5799
20.4515
20.3459
20.262
20.1984
20.1538
20.1267
20.1151
20.1169
20.1293
20.1495
20.1746
20.2019
20.2281
20.251
20.2692
20.2818
20.2869
20.2811
20.263
20.2371
20.2134
20.198
20.1935
20.1953
20.2042
20.2079
20.2062
20.1635
-2.12309
-2.38961
-2.79578
-3.3279
-3.95502
-4.64059
-5.36259
-6.1121
-6.88873
-7.67812
-8.45338
-9.19144
-9.87259
-10.4839
-11.0195
-11.4917
-11.919
-12.3099
-12.6703
-13.0066
-13.3268
-13.6404
-13.957
-14.2822
-14.6184
-14.9663
-15.3257
-15.6958
-16.0738
-16.4555
-16.839
-17.2323
-17.656
-18.15
-18.7559
-19.4908
-20.3486
-21.3092
-22.3426
-23.4023
-24.4374
-25.406
-26.2712
-27.0055
-27.5945
-28.0384
-28.3518
-28.5426
-28.6084
-28.559
-28.3995
-28.1196
-27.7024
-27.1566
-26.5253
-25.8578
-25.1839
-24.5219
-23.897
-23.3443
-22.8377
-22.3292
-21.8183
-21.3169
-20.818
-20.3145
-19.7971
-19.2519
-18.6638
-18.0196
-17.3113
-16.534
-15.6896
-14.7932
-13.8797
-12.9946
-12.1749
-11.4381
-10.7876
-10.2258
-9.76898
-9.44065
-9.2576
-9.20462
-9.23619
-9.29147
-9.33497
-9.36803
-9.38879
-9.3762
-9.30934
-9.15753
-8.88478
-8.47467
-7.93328
-7.29022
-6.58687
-5.86129
-5.13293
-4.35246
-3.426
-2.36232
-1.26173
-0.1977
0.804644
1.71642
2.50921
3.16785
3.73349
4.24422
4.74371
5.2933
5.91826
6.61613
7.38457
8.22428
9.13696
10.124
11.1958
12.3669
13.6476
15.0376
16.5118
18.0115
19.4548
20.766
21.8953
22.8225
23.5549
24.1142
24.5175
24.7747
24.895
24.8934
24.7915
24.6124
24.3759
24.0974
23.7886
23.4593
23.1185
22.7743
22.4346
22.1059
21.7936
21.5016
21.2327
20.9884
20.7695
20.5761
20.4073
20.2627
20.1411
20.0418
19.9641
19.9069
19.8698
19.8514
19.8499
19.863
19.8876
19.9208
19.9596
20.001
20.0421
20.0804
20.1146
20.1436
20.1653
20.175
20.1684
20.1456
20.1147
20.0852
20.0631
20.0479
20.0397
20.0279
20.0125
19.962
-2.27816
-2.48958
-2.84145
-3.32965
-3.92483
-4.59496
-5.31651
-6.08228
-6.8927
-7.73565
-8.58733
-9.42643
-10.2327
-10.9905
-11.6903
-12.3379
-12.9432
-13.5095
-14.0388
-14.5365
-15.0122
-15.4759
-15.9354
-16.3942
-16.8533
-17.3135
-17.7762
-18.2435
-18.7155
-19.1928
-19.6795
-20.1897
-20.7498
-21.394
-22.1513
-23.0298
-24.0225
-25.1071
-26.2521
-27.4073
-28.5225
-29.5503
-30.4493
-31.189
-31.753
-32.1423
-32.3764
-32.4596
-32.3931
-32.195
-31.8769
-31.4289
-30.841
-30.1332
-29.3569
-28.5606
-27.7691
-26.9995
-26.2756
-25.6221
-25.0004
-24.3682
-23.7361
-23.1176
-22.5025
-21.8801
-21.2389
-20.5616
-19.8305
-19.0328
-18.1656
-17.2341
-16.251
-15.238
-14.2298
-13.27
-12.3993
-11.6432
-11.009
-10.4969
-10.1149
-9.8759
-9.78528
-9.81724
-9.91163
-10.0026
-10.0688
-10.1281
-10.1822
-10.2098
-10.1946
-10.097
-9.86727
-9.4826
-8.94856
-8.29976
-7.58441
-6.84439
-6.10387
-5.32425
-4.43014
-3.4321
-2.41245
-1.41371
-0.445572
0.456286
1.2461
1.89764
2.45279
2.95826
3.46805
4.05183
4.72955
5.49064
6.325
7.22891
8.1986
9.2292
10.3303
11.5208
12.8156
14.2193
15.7128
17.2379
18.7094
20.0478
21.2014
22.1497
22.901
23.4773
23.8955
24.1655
24.2984
24.3115
24.2269
24.0667
23.8489
23.587
23.2921
22.9744
22.6434
22.3081
21.9769
21.6569
21.3537
21.0715
20.813
20.5794
20.3711
20.1876
20.0285
19.8931
19.781
19.6916
19.6245
19.5793
19.5552
19.5505
19.5631
19.5907
19.6302
19.6785
19.7325
19.7892
19.8454
19.8985
19.9468
19.9896
20.0253
20.05
20.0585
20.0473
20.0198
19.9837
19.9477
19.9141
19.8861
19.8554
19.8222
19.7595
-2.12001
-2.30464
-2.63799
-3.11369
-3.70674
-4.38924
-5.13954
-5.94759
-6.81068
-7.71868
-8.6534
-9.59513
-10.5244
-11.4242
-12.2837
-13.103
-13.8833
-14.6231
-15.3218
-15.9853
-16.6244
-17.2485
-17.8637
-18.4711
-19.0692
-19.6574
-20.2382
-20.8171
-21.3983
-21.9877
-22.5961
-23.2415
-23.9497
-24.7482
-25.6562
-26.6754
-27.7951
-28.9923
-30.2338
-31.4713
-32.6547
-33.7341
-34.6662
-35.4179
-35.9703
-36.3221
-36.4915
-36.476
-36.2827
-35.9366
-35.4513
-34.8223
-34.052
-33.1706
-32.2355
-31.2961
-30.3724
-29.4779
-28.6354
-27.8624
-27.1137
-26.3533
-25.5949
-24.8526
-24.1143
-23.3658
-22.5961
-21.787
-20.9195
-19.9818
-18.9733
-17.9053
-16.8023
-15.6964
-14.6251
-13.6276
-12.7401
-11.988
-11.38
-10.9134
-10.5906
-10.4163
-10.3887
-10.473
-10.5996
-10.6977
-10.7603
-10.8245
-10.8941
-10.9445
-10.9643
-10.9053
-10.7058
-10.3398
-9.81091
-9.15901
-8.43553
-7.68512
-6.9347
-6.15855
-5.30192
-4.36868
-3.42021
-2.47129
-1.5274
-0.635148
0.145488
0.781223
1.31781
1.81191
2.32717
2.93675
3.65457
4.46507
5.35143
6.30723
7.32552
8.39625
9.52651
10.7378
12.0489
13.4672
14.9746
16.513
17.9968
19.3465
20.5097
21.4673
22.2284
22.8138
23.2395
23.5159
23.6563
23.6802
23.6099
23.4657
23.2633
23.0146
22.7308
22.4228
22.101
21.775
21.4534
21.1436
20.8513
20.5804
20.333
20.1101
19.9121
19.7388
19.59
19.4658
19.3661
19.2913
19.2408
19.2137
19.2083
19.2225
19.2539
19.3
19.3579
19.4244
19.4961
19.5695
19.6411
19.7082
19.769
19.8228
19.8691
19.9053
19.9274
19.9307
19.9144
19.8818
19.8402
19.7938
19.7471
19.6961
19.6427
19.5644
-1.85843
-2.03591
-2.37375
-2.86664
-3.49493
-4.23201
-5.05336
-5.94169
-6.88862
-7.8832
-8.91071
-9.95389
-10.9956
-12.0205
-13.0177
-13.9827
-14.9108
-15.7983
-16.6462
-17.4619
-18.2543
-19.0291
-19.7886
-20.531
-21.2527
-21.953
-22.6363
-23.311
-23.9861
-24.6746
-25.3941
-26.1653
-27.0101
-27.9444
-28.976
-30.1026
-31.3115
-32.5845
-33.8893
-35.1803
-36.4062
-37.5149
-38.4622
-39.2152
-39.7545
-40.072
-40.1754
-40.066
-39.7619
-39.2992
-38.6943
-37.9421
-37.05
-36.0501
-34.9936
-33.9296
-32.883
-31.8665
-30.9008
-30.0022
-29.1244
-28.235
-27.3477
-26.4737
-25.6044
-24.7236
-23.819
-22.8783
-21.8859
-20.829
-19.7085
-18.5397
-17.3526
-16.1869
-15.084
-14.0788
-13.1998
-12.467
-11.8895
-11.4638
-11.1868
-11.0573
-11.0678
-11.1756
-11.3087
-11.396
-11.4398
-11.49
-11.5535
-11.6073
-11.6347
-11.586
-11.3962
-11.0365
-10.5105
-9.86015
-9.13651
-8.3806
-7.61803
-6.83749
-6.00403
-5.11734
-4.22281
-3.31266
-2.3933
-1.51869
-0.757852
-0.148643
0.362215
0.840601
1.35568
1.97818
2.71766
3.55816
4.4806
5.47583
6.53376
7.64063
8.80098
10.0361
11.367
12.8002
14.3143
15.8524
17.3316
18.6747
19.8313
20.7845
21.5438
22.1281
22.5519
22.8268
22.9686
22.9987
22.9388
22.8063
22.6146
22.3754
22.1003
21.8011
21.4886
21.1727
20.8624
20.5647
20.2847
20.0255
19.7893
19.5771
19.3896
19.2272
19.0907
18.9807
18.898
18.8424
18.8133
18.8087
18.8264
18.8639
18.9185
18.9877
19.0685
19.1572
19.2496
19.3414
19.4291
19.5097
19.5817
19.6445
19.6984
19.7424
19.7742
19.7901
19.7874
19.7656
19.7279
19.6771
19.6186
19.55
19.4765
19.3809
-1.62917
-1.8137
-2.18058
-2.7258
-3.43141
-4.2678
-5.20374
-6.21335
-7.27903
-8.38701
-9.52247
-10.6693
-11.8114
-12.9352
-14.0317
-15.0964
-16.1234
-17.11
-18.0585
-18.9758
-19.8688
-20.7404
-21.5906
-22.4161
-23.2141
-23.986
-24.7395
-25.4869
-26.241
-27.018
-27.8352
-28.7086
-29.6499
-30.667
-31.7629
-32.9354
-34.1763
-35.4709
-36.7877
-38.0811
-39.2993
-40.3936
-41.3242
-42.0619
-42.5893
-42.8879
-42.9487
-42.782
-42.4173
-41.8923
-41.2322
-40.4361
-39.5093
-38.4738
-37.3697
-36.2401
-35.1175
-34.0163
-32.9514
-31.9368
-30.9351
-29.9226
-28.9109
-27.9053
-26.9017
-25.8899
-24.8573
-23.7962
-22.6934
-21.5394
-20.3395
-19.1091
-17.8797
-16.6941
-15.5932
-14.607
-13.755
-13.0565
-12.5161
-12.1282
-11.89
-11.7926
-11.8215
-11.9274
-12.0431
-12.1029
-12.1126
-12.1238
-12.1555
-12.1874
-12.1955
-12.1325
-11.9373
-11.5781
-11.058
-10.4163
-9.69714
-8.93366
-8.14751
-7.34349
-6.50696
-5.64193
-4.78205
-3.90499
-3.01849
-2.17536
-1.4455
-0.868637
-0.386544
0.0741641
0.582979
1.20354
1.94664
2.79972
3.74486
4.76726
5.85279
6.9885
8.17669
9.4367
10.7877
12.232
13.7435
15.2659
16.722
18.0395
19.1722
20.1062
20.8505
21.4217
21.833
22.0979
22.2352
22.2668
22.2122
22.0861
21.9006
21.6677
21.3998
21.1088
20.8063
20.502
20.2043
19.9195
19.6515
19.4033
19.1776
18.976
18.7999
18.6512
18.5313
18.4409
18.3799
18.3477
18.3427
18.3631
18.4065
18.4706
18.5527
18.6497
18.7577
18.8723
18.9882
19.1005
19.2051
19.2995
19.3824
19.4534
19.5132
19.5624
19.6003
19.6249
19.634
19.6251
19.5978
19.5516
19.49
19.4115
19.3222
19.2101
-1.4655
-1.67233
-2.09297
-2.72115
-3.53772
-4.50505
-5.58189
-6.73365
-7.93381
-9.16276
-10.4028
-11.6387
-12.8557
-14.0428
-15.1944
-16.3081
-17.3798
-18.4055
-19.3859
-20.3284
-21.2428
-22.1361
-23.0121
-23.8695
-24.7064
-25.524
-26.328
-27.128
-27.9343
-28.7592
-29.6162
-30.5175
-31.4724
-32.4881
-33.5695
-34.7166
-35.9249
-37.1815
-38.4574
-39.7095
-40.8912
-41.9589
-42.8771
-43.615
-44.1541
-44.4727
-44.5489
-44.3873
-44.0285
-43.5079
-42.8593
-42.0885
-41.1996
-40.208
-39.1386
-38.0209
-36.8885
-35.7569
-34.6372
-33.5369
-32.431
-31.3099
-30.1863
-29.0624
-27.9383
-26.8112
-25.6706
-24.5085
-23.3146
-22.0847
-20.8331
-19.5797
-18.3516
-17.1847
-16.1158
-15.172
-14.3668
-13.7128
-13.2146
-12.8706
-12.6697
-12.5929
-12.6163
-12.6934
-12.7713
-12.793
-12.7555
-12.7069
-12.6814
-12.6666
-12.6328
-12.5375
-12.3283
-11.9729
-11.468
-10.8416
-10.1255
-9.34556
-8.52058
-7.6724
-6.80393
-5.93865
-5.09636
-4.25171
-3.40798
-2.60737
-1.91591
-1.36905
-0.910864
-0.464188
0.0357429
0.644976
1.37869
2.22993
3.18164
4.21536
5.31566
6.47021
7.67989
8.96024
10.3256
11.7719
13.2676
14.7569
16.1704
17.4434
18.5352
19.4345
20.1496
20.6948
21.0828
21.3299
21.4571
21.485
21.4301
21.3052
21.1221
20.8933
20.632
20.3503
20.0589
19.767
19.4819
19.2086
18.9507
18.7121
18.4955
18.3039
18.1409
18.0096
17.9114
17.8456
17.811
17.8055
17.8271
17.8743
17.9457
18.0394
18.1527
18.2816
18.421
18.5648
18.7067
18.8409
18.9637
19.0727
19.1668
19.246
19.3114
19.3645
19.4065
19.4368
19.4542
19.4565
19.4416
19.4061
19.3499
19.2705
19.1732
19.0495
-1.27647
-1.51251
-1.99763
-2.71833
-3.65383
-4.75795
-5.98145
-7.27922
-8.61775
-9.97105
-11.3198
-12.6486
-13.9409
-15.1802
-16.3574
-17.4727
-18.5309
-19.5328
-20.4796
-21.38
-22.2485
-23.0985
-23.939
-24.7692
-25.5845
-26.3807
-27.1585
-27.9246
-28.6905
-29.4695
-30.2768
-31.1267
-32.0288
-32.9897
-34.0139
-35.1021
-36.2483
-37.4402
-38.653
-39.8494
-40.988
-42.0292
-42.9419
-43.6961
-44.2679
-44.6399
-44.785
-44.6987
-44.416
-43.9778
-43.4187
-42.7483
-41.968
-41.0864
-40.1176
-39.081
-38.0014
-36.8995
-35.7843
-34.6515
-33.4836
-32.2893
-31.0885
-29.8809
-28.6686
-27.456
-26.2372
-25.005
-23.7521
-22.4787
-21.2094
-19.9644
-18.766
-17.645
-16.6336
-15.7519
-15.0071
-14.412
-13.9677
-13.663
-13.4858
-13.4117
-13.4021
-13.4192
-13.4365
-13.4067
-13.3133
-13.1964
-13.0987
-13.0185
-12.9284
-12.7907
-12.5646
-12.2202
-11.7422
-11.1368
-10.419
-9.60923
-8.73344
-7.82928
-6.91512
-6.0363
-5.1969
-4.38156
-3.58428
-2.83234
-2.17835
-1.65198
-1.20461
-0.762216
-0.268124
0.326372
1.04343
1.8803
2.82288
3.85236
4.95206
6.11094
7.33042
8.62106
9.98967
11.4236
12.886
14.3231
15.6747
16.8851
17.9192
18.7683
19.4397
19.9459
20.3009
20.5239
20.6362
20.6556
20.5957
20.4686
20.2861
20.0615
19.808
19.5369
19.2575
18.9775
18.7029
18.4385
18.1876
17.9545
17.7446
17.5629
17.415
17.3043
17.2309
17.1925
17.1867
17.2104
17.2614
17.3385
17.4412
17.568
17.716
17.8805
18.0544
18.2299
18.3994
18.5572
18.6995
18.824
18.9301
19.0183
19.0899
19.1473
19.1928
19.2271
19.2503
19.2607
19.2567
19.2338
19.189
19.1169
19.0204
18.8923
-0.865401
-1.13848
-1.68874
-2.50085
-3.55752
-4.80638
-6.19561
-7.67195
-9.19219
-10.719
-12.221
-13.671
-15.0425
-16.3092
-17.4596
-18.5012
-19.4546
-20.336
-21.1533
-21.9157
-22.638
-23.3373
-24.026
-24.7086
-25.3819
-26.0448
-26.7026
-27.3626
-28.038
-28.7414
-29.4844
-30.2759
-31.1214
-32.0242
-32.9881
-34.0118
-35.088
-36.2078
-37.3519
-38.4907
-39.5891
-40.6114
-41.5282
-42.3128
-42.9403
-43.3955
-43.6538
-43.7061
-43.5691
-43.284
-42.8808
-42.3774
-41.766
-41.0454
-40.2233
-39.3157
-38.3429
-37.3239
-36.2677
-35.1652
-34.0012
-32.7935
-31.5678
-30.3276
-29.0759
-27.8209
-26.5627
-25.2993
-24.0268
-22.7482
-21.4883
-20.2722
-19.1205
-18.06
-17.1227
-16.3218
-15.6531
-15.1229
-14.7312
-14.4681
-14.3073
-14.2176
-14.1566
-14.0887
-14.0107
-13.9022
-13.7398
-13.5522
-13.3768
-13.2205
-13.0661
-12.8841
-12.6432
-12.315
-11.8708
-11.2893
-10.567
-9.72005
-8.78868
-7.82629
-6.86935
-5.96962
-5.12366
-4.33074
-3.57627
-2.87201
-2.24886
-1.72897
-1.27615
-0.826776
-0.332653
0.249822
0.946556
1.76009
2.67906
3.68664
4.76816
5.9168
7.13329
8.42091
9.77648
11.1783
12.586
13.9502
15.2205
16.3503
17.3101
18.0932
18.7066
19.1626
19.4778
19.6728
19.7669
19.7747
19.7077
19.5774
19.397
19.1795
18.9367
18.6775
18.4095
18.1393
17.8724
17.6116
17.3618
17.1298
16.9237
16.752
16.6201
16.5306
16.4821
16.4714
16.4955
16.5505
16.634
16.7454
16.884
17.0485
17.2354
17.4384
17.649
17.8579
18.0571
18.2406
18.4047
18.5469
18.6669
18.7657
18.8452
18.908
18.9573
18.9952
19.0227
19.0394
19.044
19.0329
19.0017
18.9427
18.8549
18.7305
-0.0622193
-0.393348
-1.02455
-1.94098
-3.13276
-4.55208
-6.14372
-7.83558
-9.56187
-11.2608
-12.8808
-14.3805
-15.7302
-16.9038
-17.8945
-18.7231
-19.4302
-20.056
-20.6189
-21.1314
-21.6098
-22.0764
-22.5531
-23.049
-23.5625
-24.0918
-24.6404
-25.2156
-25.8277
-26.487
-27.2005
-27.9698
-28.7938
-29.6747
-30.6155
-31.6112
-32.6511
-33.7283
-34.8285
-35.9289
-37.0024
-38.0196
-38.9541
-39.7803
-40.4766
-41.0267
-41.4131
-41.6235
-41.662
-41.5561
-41.3338
-41.0137
-40.5963
-40.0707
-39.432
-38.6893
-37.861
-36.9679
-36.0206
-35.0075
-33.9152
-32.7637
-31.5823
-30.3735
-29.1426
-27.8992
-26.6461
-25.3878
-24.1278
-22.8738
-21.648
-20.4773
-19.3827
-18.388
-17.5235
-16.798
-16.1989