/*--------------------------------*- C++ -*----------------------------------*\
  =========                 |
  \\      /  F ield         | OpenFOAM: The Open Source CFD Toolbox
   \\    /   O peration     | Website:  https://openfoam.org
    \\  /    A nd           | Version:  10
     \\/     M anipulation  |
\*---------------------------------------------------------------------------*/
FoamFile
{
    format      ascii;
    class       volVectorField;
    location    "0.092";
    object      UMean;
}
// * * * * * * * * * * * * * * * * * * * * * * * * * * * * * * * * * * * * * //

dimensions      [0 1 -1 0 0 0 0];

internalField   nonuniform List<vector> 
12225
(
(9.84243 0.0450758 0)
(9.55369 0.0605694 0)
(9.25731 0.0583995 0)
(8.95534 0.056894 0)
(8.65912 0.0560937 0)
(8.37419 0.0552008 0)
(8.10078 0.0537961 0)
(7.83841 0.0527969 0)
(7.58488 0.0512044 0)
(7.34111 0.0510154 0)
(7.10238 0.0492462 0)
(6.87352 0.051073 0)
(6.64086 0.0484572 0)
(6.42227 0.0550555 0)
(6.17814 0.0496439 0)
(5.96597 0.0678356 0)
(5.67834 0.0535478 0)
(5.47282 0.0963821 0)
(10.0178 0.0520224 0)
(10.083 0.074546 0)
(10.1235 0.0736191 0)
(10.137 0.0744918 0)
(10.1337 0.0775602 0)
(10.1211 0.0802794 0)
(10.1006 0.082541 0)
(10.0738 0.0842777 0)
(10.0391 0.086415 0)
(9.99965 0.088089 0)
(9.95188 0.0911304 0)
(9.90195 0.0932578 0)
(9.84103 0.0988696 0)
(9.78111 0.102205 0)
(9.70343 0.113678 0)
(9.63143 0.119284 0)
(9.53047 0.140508 0)
(9.43889 0.145647 0)
(10.0039 0.0310168 0)
(10.0412 0.0532077 0)
(10.0719 0.0553592 0)
(10.0893 0.057311 0)
(10.1 0.0615287 0)
(10.1092 0.0658942 0)
(10.1182 0.069243 0)
(10.1263 0.0726419 0)
(10.133 0.0755196 0)
(10.1377 0.0795748 0)
(10.1408 0.0828499 0)
(10.1414 0.0887706 0)
(10.1412 0.0933884 0)
(10.138 0.103302 0)
(10.1357 0.111549 0)
(10.1304 0.128101 0)
(10.1305 0.143177 0)
(10.1287 0.159779 0)
(9.99311 0.0286937 0)
(10.0206 0.0574133 0)
(10.0452 0.0626585 0)
(10.0598 0.064082 0)
(10.0679 0.0676159 0)
(10.0741 0.0717166 0)
(10.0804 0.0752608 0)
(10.0866 0.0781856 0)
(10.0921 0.0812353 0)
(10.0966 0.0844285 0)
(10.1004 0.0885282 0)
(10.1034 0.093172 0)
(10.1061 0.0995947 0)
(10.1088 0.107281 0)
(10.1125 0.117835 0)
(10.1186 0.130628 0)
(10.1289 0.144742 0)
(10.1454 0.157883 0)
(9.99625 0.0222957 0)
(10.0181 0.0463676 0)
(10.0393 0.0533467 0)
(10.053 0.0553774 0)
(10.061 0.0586894 0)
(10.0667 0.0630862 0)
(10.0723 0.0671243 0)
(10.0778 0.0707815 0)
(10.0826 0.0742219 0)
(10.0865 0.0781194 0)
(10.0893 0.0824337 0)
(10.0917 0.0877823 0)
(10.0936 0.0941385 0)
(10.0961 0.102117 0)
(10.0994 0.111844 0)
(10.1052 0.122893 0)
(10.1138 0.134443 0)
(10.1264 0.142507 0)
(9.98061 0.0188894 0)
(9.99927 0.0439881 0)
(10.018 0.0539382 0)
(10.0317 0.0572853 0)
(10.0404 0.0605951 0)
(10.0466 0.0648989 0)
(10.0523 0.0691818 0)
(10.0578 0.0730164 0)
(10.0629 0.076683 0)
(10.0672 0.0806194 0)
(10.0708 0.0850893 0)
(10.0739 0.0903815 0)
(10.0769 0.0966276 0)
(10.0803 0.104141 0)
(10.0846 0.112763 0)
(10.0907 0.12222 0)
(10.0988 0.131035 0)
(10.1092 0.13755 0)
(9.99777 0.0154643 0)
(10.0125 0.0369012 0)
(10.0281 0.0474937 0)
(10.0405 0.0518307 0)
(10.0489 0.055169 0)
(10.0549 0.0593272 0)
(10.06 0.0637681 0)
(10.0648 0.0679262 0)
(10.0693 0.0718856 0)
(10.0732 0.0760522 0)
(10.0766 0.0807362 0)
(10.0797 0.0861539 0)
(10.0829 0.0924266 0)
(10.0866 0.0996195 0)
(10.0912 0.107544 0)
(10.0972 0.115779 0)
(10.1045 0.123296 0)
(10.1131 0.129322 0)
(9.99804 0.0142966 0)
(10.0114 0.0340883 0)
(10.0246 0.0454847 0)
(10.0356 0.051155 0)
(10.044 0.0551004 0)
(10.0504 0.0593769 0)
(10.0558 0.0639858 0)
(10.0608 0.0684641 0)
(10.0656 0.0727177 0)
(10.0701 0.0770417 0)
(10.0741 0.0817247 0)
(10.078 0.0869949 0)
(10.0818 0.0929215 0)
(10.0861 0.0995301 0)
(10.0909 0.106578 0)
(10.0967 0.113751 0)
(10.1032 0.120328 0)
(10.1105 0.125887 0)
(10.0001 0.0102937 0)
(10.0106 0.0286675 0)
(10.0212 0.0401408 0)
(10.0307 0.0463652 0)
(10.0385 0.0504715 0)
(10.0448 0.054636 0)
(10.0501 0.0591996 0)
(10.0551 0.0637728 0)
(10.06 0.0681782 0)
(10.0647 0.0726102 0)
(10.0692 0.0773558 0)
(10.0735 0.0826314 0)
(10.0779 0.0884612 0)
(10.0827 0.0948109 0)
(10.0879 0.101409 0)
(10.0939 0.108043 0)
(10.1002 0.114136 0)
(10.1073 0.11955 0)
(9.98655 0.0118738 0)
(9.99649 0.0264673 0)
(10.0063 0.0378218 0)
(10.0152 0.0450952 0)
(10.023 0.0500353 0)
(10.0297 0.0544146 0)
(10.0356 0.0588844 0)
(10.041 0.0633906 0)
(10.0463 0.0678278 0)
(10.0513 0.0723032 0)
(10.0561 0.0769812 0)
(10.0609 0.0820288 0)
(10.0656 0.0874502 0)
(10.0708 0.0932482 0)
(10.0763 0.0991783 0)
(10.0827 0.105148 0)
(10.0891 0.110679 0)
(10.0963 0.115867 0)
(9.98253 0.00801376 0)
(9.99236 0.0225524 0)
(10.0006 0.0327032 0)
(10.0078 0.0396851 0)
(10.0149 0.0448477 0)
(10.0214 0.0493292 0)
(10.0274 0.0537852 0)
(10.0329 0.0583617 0)
(10.0381 0.0629672 0)
(10.0431 0.0676122 0)
(10.048 0.0723713 0)
(10.0528 0.0773866 0)
(10.0577 0.0826337 0)
(10.0627 0.0881435 0)
(10.0681 0.0936826 0)
(10.0738 0.0992509 0)
(10.0796 0.104448 0)
(10.0858 0.109478 0)
(10.0001 0.00753488 0)
(10.0073 0.0213527 0)
(10.014 0.0312813 0)
(10.0202 0.0385748 0)
(10.0264 0.0440038 0)
(10.0323 0.0485676 0)
(10.0378 0.05299 0)
(10.043 0.0575105 0)
(10.048 0.0620727 0)
(10.0531 0.0666396 0)
(10.0581 0.0712429 0)
(10.0632 0.076014 0)
(10.0684 0.0809477 0)
(10.0736 0.086093 0)
(10.0791 0.0912509 0)
(10.0846 0.0964679 0)
(10.0904 0.101382 0)
(10.0961 0.106273 0)
(9.9905 0.00772694 0)
(9.99659 0.0170322 0)
(10.0029 0.0265427 0)
(10.0091 0.0341301 0)
(10.0155 0.0396636 0)
(10.0219 0.0441482 0)
(10.028 0.0484325 0)
(10.0338 0.0528327 0)
(10.0395 0.0573128 0)
(10.0451 0.0618374 0)
(10.0508 0.0663939 0)
(10.0565 0.0710741 0)
(10.0622 0.0758681 0)
(10.068 0.0808235 0)
(10.0739 0.0857658 0)
(10.08 0.0907559 0)
(10.0861 0.0954773 0)
(10.0924 0.100229 0)
(10.0013 0.00896431 0)
(10.0097 0.0168932 0)
(10.0159 0.0255927 0)
(10.0209 0.0327382 0)
(10.0262 0.0381265 0)
(10.032 0.0425624 0)
(10.0377 0.0467644 0)
(10.0432 0.0510233 0)
(10.0487 0.0553251 0)
(10.0541 0.059649 0)
(10.0597 0.0639853 0)
(10.0654 0.0684091 0)
(10.071 0.0728805 0)
(10.0768 0.0774774 0)
(10.0826 0.0820247 0)
(10.0885 0.0866729 0)
(10.0946 0.091072 0)
(10.1007 0.0956303 0)
(9.99739 0.00273045 0)
(10.0057 0.0125206 0)
(10.0112 0.0203508 0)
(10.0154 0.0266025 0)
(10.0203 0.0318215 0)
(10.0261 0.0363999 0)
(10.0322 0.0406033 0)
(10.0383 0.0446475 0)
(10.0442 0.0486607 0)
(10.0501 0.0527329 0)
(10.056 0.0568748 0)
(10.062 0.0611274 0)
(10.0681 0.065412 0)
(10.0742 0.0697635 0)
(10.0803 0.0740089 0)
(10.0866 0.0782943 0)
(10.0929 0.0823172 0)
(10.0994 0.0864842 0)
(10.01 0.0043608 0)
(10.0167 0.0130149 0)
(10.0214 0.0192113 0)
(10.0253 0.0243179 0)
(10.0301 0.028951 0)
(10.0357 0.0332364 0)
(10.0417 0.0372187 0)
(10.0477 0.0410197 0)
(10.0535 0.0447585 0)
(10.0594 0.0485358 0)
(10.0654 0.0523482 0)
(10.0716 0.0562257 0)
(10.0779 0.0600818 0)
(10.0843 0.0639807 0)
(10.0907 0.0677617 0)
(10.0973 0.0716088 0)
(10.1038 0.0752113 0)
(10.1104 0.0790142 0)
(9.99113 0.000540676 0)
(9.9957 0.00719377 0)
(9.99885 0.0125104 0)
(10.0021 0.0171653 0)
(10.0066 0.0213804 0)
(10.0122 0.0251849 0)
(10.0182 0.028655 0)
(10.0244 0.0319379 0)
(10.0306 0.0351392 0)
(10.0369 0.0383465 0)
(10.0433 0.0415544 0)
(10.0498 0.0448132 0)
(10.0565 0.0480659 0)
(10.0633 0.0514056 0)
(10.07 0.054689 0)
(10.077 0.0580918 0)
(10.0837 0.0612994 0)
(10.0908 0.064707 0)
(9.99264 0.00776972 0)
(9.99742 0.00917424 0)
(10.0005 0.0115593 0)
(10.0035 0.0144013 0)
(10.0079 0.0172747 0)
(10.0135 0.0200537 0)
(10.0196 0.0227636 0)
(10.0258 0.0254642 0)
(10.032 0.0281785 0)
(10.0382 0.0309349 0)
(10.0444 0.0336946 0)
(10.0508 0.0364885 0)
(10.0573 0.0392478 0)
(10.0638 0.0420507 0)
(10.0704 0.0447546 0)
(10.077 0.0475341 0)
(10.0836 0.0501005 0)
(10.0904 0.0528359 0)
(9.99123 0.000900229 0)
(10.0002 0.00120491 0)
(10.0064 0.00234074 0)
(10.0107 0.00399941 0)
(10.0153 0.00586419 0)
(10.0208 0.00781597 0)
(10.027 0.00979951 0)
(10.0334 0.0117837 0)
(10.04 0.0137392 0)
(10.0466 0.0156885 0)
(10.0532 0.0176309 0)
(10.0599 0.0196101 0)
(10.0667 0.0215735 0)
(10.0734 0.0235683 0)
(10.0803 0.0254684 0)
(10.0871 0.0274056 0)
(10.0939 0.0291545 0)
(10.1006 0.0310332 0)
(9.99758 -0.00260523 0)
(10.0041 -0.00100446 0)
(10.0086 -0.000726401 0)
(10.0124 -0.000463493 0)
(10.0172 0.000238775 0)
(10.0233 0.00124237 0)
(10.0299 0.0023923 0)
(10.0366 0.00366443 0)
(10.0432 0.00504831 0)
(10.0497 0.00652529 0)
(10.0562 0.00803592 0)
(10.0627 0.00956903 0)
(10.0692 0.0110668 0)
(10.0758 0.0125747 0)
(10.0824 0.0140104 0)
(10.0891 0.0154845 0)
(10.0957 0.0168181 0)
(10.1024 0.0182471 0)
(9.99153 -0.00213862 0)
(9.99733 -0.00450972 0)
(10.0021 -0.00674911 0)
(10.0071 -0.0081778 0)
(10.0132 -0.0087327 0)
(10.0198 -0.0086453 0)
(10.0266 -0.00813278 0)
(10.0333 -0.00733048 0)
(10.04 -0.00634337 0)
(10.0467 -0.00524809 0)
(10.0535 -0.00414868 0)
(10.0603 -0.00309543 0)
(10.0671 -0.00215343 0)
(10.0738 -0.00128136 0)
(10.0805 -0.000520602 0)
(10.0871 0.000244447 0)
(10.0937 0.000898607 0)
(10.1002 0.0016411 0)
(9.9981 -0.00245827 0)
(10.0038 -0.00898771 0)
(10.0089 -0.0117567 0)
(10.0141 -0.0128126 0)
(10.0203 -0.0132708 0)
(10.0271 -0.0133754 0)
(10.0339 -0.0131601 0)
(10.0407 -0.0127064 0)
(10.0474 -0.0121247 0)
(10.0543 -0.0114717 0)
(10.0614 -0.0107778 0)
(10.0685 -0.0100348 0)
(10.0755 -0.00928242 0)
(10.0825 -0.00850708 0)
(10.0894 -0.00778442 0)
(10.0962 -0.00706538 0)
(10.1029 -0.00647278 0)
(10.1094 -0.00586888 0)
(9.98552 -0.000132338 0)
(9.99679 -0.0110056 0)
(10.0055 -0.016826 0)
(10.0121 -0.0195064 0)
(10.0186 -0.0207568 0)
(10.0255 -0.0214722 0)
(10.0326 -0.0219266 0)
(10.0397 -0.0221316 0)
(10.0467 -0.022101 0)
(10.0538 -0.0219032 0)
(10.061 -0.0216303 0)
(10.0681 -0.0213274 0)
(10.0751 -0.0210317 0)
(10.0821 -0.0207169 0)
(10.089 -0.0204195 0)
(10.0958 -0.0200949 0)
(10.1025 -0.0198376 0)
(10.1091 -0.0195541 0)
(10 -0.0105674 0)
(10.012 -0.015298 0)
(10.0226 -0.0206677 0)
(10.0309 -0.0235794 0)
(10.0385 -0.024438 0)
(10.0457 -0.024642 0)
(10.0528 -0.0248871 0)
(10.0599 -0.0251692 0)
(10.0671 -0.0253253 0)
(10.0742 -0.0252969 0)
(10.0814 -0.0251437 0)
(10.0884 -0.0249217 0)
(10.0954 -0.0246819 0)
(10.1022 -0.0244262 0)
(10.1089 -0.0241985 0)
(10.1155 -0.0239679 0)
(10.122 -0.0238123 0)
(10.1283 -0.0236505 0)
(9.99028 -0.0113934 0)
(9.99885 -0.022737 0)
(10.0086 -0.0290488 0)
(10.0179 -0.0318055 0)
(10.0263 -0.0329277 0)
(10.034 -0.0337072 0)
(10.0416 -0.0344629 0)
(10.0493 -0.0350632 0)
(10.057 -0.0354249 0)
(10.0646 -0.0356039 0)
(10.072 -0.035698 0)
(10.0792 -0.0357512 0)
(10.0864 -0.0357839 0)
(10.0934 -0.035778 0)
(10.1004 -0.0357586 0)
(10.1073 -0.035719 0)
(10.1141 -0.0357227 0)
(10.1208 -0.0357321 0)
(10.0102 -0.0086182 0)
(10.0261 -0.0242972 0)
(10.0404 -0.0295534 0)
(10.0512 -0.0307633 0)
(10.0596 -0.0316276 0)
(10.067 -0.0328842 0)
(10.0742 -0.0340818 0)
(10.0817 -0.0348747 0)
(10.0892 -0.0352864 0)
(10.0967 -0.0355008 0)
(10.1039 -0.0356657 0)
(10.111 -0.0358394 0)
(10.1178 -0.0360335 0)
(10.1245 -0.0362209 0)
(10.1311 -0.0364048 0)
(10.1375 -0.036562 0)
(10.1438 -0.0367343 0)
(10.15 -0.0368856 0)
(9.99043 -0.0233345 0)
(10.01 -0.0365991 0)
(10.0271 -0.0416696 0)
(10.0389 -0.0425621 0)
(10.0473 -0.0432504 0)
(10.0547 -0.0444013 0)
(10.0622 -0.0453881 0)
(10.0699 -0.0459446 0)
(10.0777 -0.0462223 0)
(10.0854 -0.0464064 0)
(10.0928 -0.0465737 0)
(10.1 -0.0467292 0)
(10.107 -0.0468656 0)
(10.1139 -0.046987 0)
(10.1206 -0.0471186 0)
(10.1272 -0.0472689 0)
(10.1337 -0.0474699 0)
(10.14 -0.0476961 0)
(9.99641 -0.0199468 0)
(10.0181 -0.0319524 0)
(10.0387 -0.0354463 0)
(10.0525 -0.0364429 0)
(10.0619 -0.0379646 0)
(10.0702 -0.0397288 0)
(10.079 -0.0410942 0)
(10.088 -0.0420136 0)
(10.097 -0.042676 0)
(10.1057 -0.0432279 0)
(10.1141 -0.0437064 0)
(10.1222 -0.0441532 0)
(10.1302 -0.0445633 0)
(10.1379 -0.0449835 0)
(10.1455 -0.0453831 0)
(10.1527 -0.0458171 0)
(10.1599 -0.0462444 0)
(10.1666 -0.0467287 0)
(10.0022 -0.0367203 0)
(10.043 -0.054051 0)
(10.0753 -0.0525775 0)
(10.0951 -0.0518884 0)
(10.1073 -0.053111 0)
(10.116 -0.0542687 0)
(10.1223 -0.0548979 0)
(10.1265 -0.0552565 0)
(10.1284 -0.0555247 0)
(10.1285 -0.0557752 0)
(10.1269 -0.0559985 0)
(10.124 -0.0562279 0)
(10.12 -0.0564211 0)
(10.1151 -0.0566282 0)
(10.1091 -0.0567786 0)
(10.1027 -0.0569712 0)
(10.095 -0.0571329 0)
(10.0876 -0.0574284 0)
(9.90427 -0.0334907 0)
(9.74592 -0.0478795 0)
(9.58156 -0.0465382 0)
(9.41233 -0.0454888 0)
(9.24619 -0.0454699 0)
(9.08716 -0.0452305 0)
(8.93591 -0.0446182 0)
(8.79193 -0.0438576 0)
(8.65456 -0.0430817 0)
(8.52346 -0.0423395 0)
(8.39817 -0.0416291 0)
(8.27869 -0.0409586 0)
(8.16436 -0.0402976 0)
(8.05557 -0.0396677 0)
(7.95114 -0.0390308 0)
(7.85229 -0.0384496 0)
(7.75654 -0.0378794 0)
(7.667 -0.0374454 0)
(-0.167235 0.352771 1.36423e-21)
(-0.40527 0.180426 -1.33396e-21)
(-0.517607 0.0265017 0)
(-0.508538 -0.12031 0)
(-0.360001 -0.253476 0)
(-0.114766 -0.349033 1.29294e-21)
(0.197773 -0.401813 0)
(0.541753 -0.411577 0)
(0.884258 -0.389035 0)
(1.2012 -0.339835 0)
(1.47903 -0.279929 -1.1473e-21)
(1.7194 -0.226593 0)
(1.9152 -0.157974 0)
(2.04835 -0.0960359 0)
(2.13259 -0.0483928 0)
(2.17614 -0.005129 -8.09016e-22)
(2.17874 0.0181419 0)
(2.15698 0.0225241 0)
(2.10948 0.0381816 0)
(2.03733 0.0643457 0)
(1.93218 0.0991062 0)
(1.79226 0.129891 0)
(1.61245 0.152855 0)
(1.41478 0.17515 -7.49534e-22)
(1.18042 0.212685 7.55329e-22)
(0.938282 0.196763 -7.54242e-22)
(0.695748 0.155159 -7.44413e-22)
(0.44171 0.0984912 0)
(0.207537 0.0609203 0)
(-0.0367916 0.112443 6.71601e-22)
(-0.303687 0.167479 6.35832e-22)
(-0.590487 0.200461 0)
(-0.88551 0.20687 0)
(-1.1644 0.185048 4.88725e-22)
(-1.4108 0.146416 0)
(-1.6212 0.115515 0)
(-1.79578 0.0987924 -3.39393e-22)
(-1.94474 0.0879182 0)
(-2.08171 0.0857083 -2.28463e-22)
(-2.234 0.103236 -3.20477e-22)
(-2.4201 0.134155 0)
(-2.63771 0.159601 0)
(-2.88312 0.16716 0)
(-3.11755 0.131999 0)
(-3.3078 0.0974741 0)
(-3.46539 0.057871 2.8535e-22)
(-3.58659 -0.0282024 3.7281e-22)
(-3.70549 -0.0465686 4.56984e-22)
(-3.81144 0.0553034 0)
(-3.97262 0.104303 -5.30976e-22)
(-4.08947 0.0845395 0)
(-4.17812 0.07196 5.80204e-22)
(-4.24317 0.0585161 5.91371e-22)
(-4.28548 0.0410515 0)
(-4.30099 0.0173344 0)
(-4.30002 -0.0271857 0)
(-4.28155 -0.0223586 5.1766e-22)
(-4.2861 -0.00347665 0)
(-4.26845 -0.0175168 0)
(-4.22964 -0.0300739 0)
(-4.15879 -0.0471718 0)
(-4.07439 -0.0865881 0)
(-3.97496 -0.0859361 0)
(-3.9082 -0.053142 0)
(-3.84632 -0.0530799 0)
(-3.77587 -0.0529072 -1.86795e-22)
(-3.707 -0.0557579 0)
(-3.63207 -0.0570437 0)
(-3.55865 -0.0569286 8.81959e-23)
(-3.48425 -0.0555941 5.10063e-23)
(-3.41082 -0.0545145 0)
(-3.33907 -0.0519402 2.64275e-23)
(-3.27056 -0.0455286 -5.81654e-23)
(-3.21006 -0.0369955 0)
(-3.16302 -0.0285692 8.98996e-23)
(-3.13135 -0.016605 0)
(-3.12449 -0.00438177 0)
(-3.14089 0.0106229 -1.3051e-22)
(-3.19291 0.0266752 0)
(-3.27784 0.0417478 2.4329e-22)
(-3.39575 0.0430386 0)
(-3.50769 0.0174123 -3.95677e-22)
(-3.55564 0.00501146 -4.6737e-22)
(-3.58768 -0.0114723 -5.42823e-22)
(-3.56125 -0.0482257 -1.251e-21)
(-3.53033 -0.0614376 1.41251e-21)
(-3.49997 -0.0560298 0)
(-3.52952 -0.0101434 0)
(-3.62237 0.0673416 0)
(-3.74835 0.0741365 1.93657e-21)
(-3.81139 0.0423003 1.9452e-21)
(-3.82691 0.0144189 -1.93395e-21)
(-3.79799 -0.010422 0)
(-3.72977 -0.0300736 1.95243e-21)
(-3.62644 -0.0469158 2.00206e-21)
(-3.49269 -0.0608759 2.0805e-21)
(-3.33265 -0.072417 0)
(-3.1532 -0.0805879 0)
(-2.95963 -0.0846306 0)
(-2.76183 -0.0848253 2.66982e-21)
(-2.56484 -0.0801664 0)
(-2.38073 -0.0724895 0)
(-2.21561 -0.0604132 -3.49693e-21)
(-2.07449 -0.055577 0)
(-1.93657 -0.0559664 0)
(-1.7806 -0.0976275 -4.49946e-21)
(-1.5997 -0.078138 0)
(-1.55182 -0.0220086 0)
(-1.51348 -0.00893665 5.21799e-21)
(-1.47681 0.000127876 5.29271e-21)
(-1.42536 -0.010233 0)
(-1.33223 -0.0264995 -5.27517e-21)
(-1.21175 -0.0399639 0)
(-1.06449 -0.0506452 5.2336e-21)
(-0.898558 -0.0591233 0)
(-0.715097 -0.0658504 5.30019e-21)
(-0.51751 -0.0712554 5.38826e-21)
(-0.306528 -0.0756858 0)
(-0.0847719 -0.0792279 0)
(0.146639 -0.0820939 0)
(0.386515 -0.0843096 0)
(0.633465 -0.0857911 0)
(0.88529 -0.0864468 0)
(1.13932 -0.086167 0)
(1.39298 -0.0848554 7.00572e-21)
(1.64345 -0.082432 -7.18956e-21)
(1.88855 -0.0792399 0)
(2.12661 -0.0755389 0)
(2.35639 -0.0715513 0)
(2.57701 -0.067351 0)
(2.78769 -0.0629282 -1.51515e-20)
(2.98759 -0.0581653 0)
(3.17554 -0.0529605 1.49843e-20)
(3.35011 -0.0472437 -1.48178e-20)
(3.50964 -0.041122 0)
(3.65291 -0.0361137 0)
(3.78011 -0.0304488 0)
(3.89233 -0.0252032 1.38076e-20)
(3.99025 -0.0204575 1.352e-20)
(4.07508 -0.0162033 0)
(4.148 -0.0123926 1.29513e-20)
(4.21001 -0.00892977 1.2677e-20)
(4.26193 -0.00570965 -1.24122e-20)
(4.30429 -0.00264554 0)
(4.33734 0.000329307 0)
(4.36113 0.00326077 -1.16867e-20)
(4.37557 0.00619035 0)
(4.38037 0.009137 0)
(4.37533 0.0120773 0)
(4.36019 0.0149756 0)
(4.33473 0.0178216 1.07387e-20)
(4.29869 0.0205901 1.05897e-20)
(4.25181 0.0232601 0)
(4.19377 0.0258686 1.03304e-20)
(4.1242 0.028361 0)
(4.04281 0.0305078 0)
(3.94964 0.0319433 1.00177e-20)
(3.84541 0.0322861 0)
(3.73206 0.0309772 9.83241e-21)
(3.61396 0.0279873 0)
(3.49728 0.0244778 0)
(3.38726 0.0225545 9.56548e-21)
(3.28725 0.0222684 0)
(3.19421 0.0252791 9.39795e-21)
(3.10012 0.0265488 0)
(3.008 0.0219383 0)
(2.92594 0.0142556 0)
(2.85785 0.00687785 -9.03727e-21)
(2.80411 0.00258489 0)
(2.76283 0.00100214 8.89052e-21)
(2.72756 0.00142884 0)
(2.69578 0.00356317 0)
(2.6607 0.00778648 0)
(2.61719 0.0110543 0)
(2.56468 0.0144467 0)
(2.49798 0.0132262 0)
(2.43869 0.020536 0)
(2.327 0.0169946 -1.67829e-20)
(2.28392 0.0451363 0)
(2.01143 0.0251491 0)
(-0.00813479 0.748818 -4.02091e-21)
(0.00189391 0.499586 3.9416e-21)
(0.0536389 0.154777 0)
(0.212251 -0.205419 -2.47538e-21)
(0.445063 -0.571982 0)
(0.736691 -0.847366 -1.2963e-21)
(1.04344 -0.995396 2.35679e-21)
(1.33447 -1.03118 2.29229e-21)
(1.5957 -0.982319 0)
(1.81491 -0.881038 2.07162e-21)
(1.99461 -0.769111 1.15021e-21)
(2.12744 -0.644241 0)
(2.21732 -0.485932 0)
(2.28322 -0.326257 0)
(2.32067 -0.2021 0)
(2.32513 -0.090808 8.11686e-22)
(2.29864 0.0123571 0)
(2.24284 0.101396 -1.2526e-21)
(2.15864 0.174855 0)
(2.05368 0.24142 0)
(1.9213 0.331358 1.2394e-21)
(1.76466 0.43023 0)
(1.5853 0.50616 -1.27637e-21)
(1.39191 0.570274 7.54041e-22)
(1.19549 0.602208 -7.60231e-22)
(0.974653 0.613793 7.5944e-22)
(0.711169 0.670674 7.49834e-22)
(0.399294 0.720835 0)
(0.0493723 0.735521 0)
(-0.328847 0.731251 -6.76273e-22)
(-0.689646 0.722777 4.12899e-22)
(-1.0145 0.71183 0)
(-1.32054 0.688581 0)
(-1.59244 0.63434 -4.92634e-22)
(-1.84106 0.55354 0)
(-2.0608 0.460186 0)
(-2.2469 0.360528 3.43926e-22)
(-2.41499 0.29791 0)
(-2.58565 0.313493 1.04464e-22)
(-2.76764 0.387499 3.29245e-22)
(-2.95495 0.460231 0)
(-3.14148 0.511679 0)
(-3.32242 0.51197 -5.96211e-22)
(-3.51408 0.445426 -7.40909e-22)
(-3.7172 0.388663 -9.12805e-22)
(-3.88827 0.333858 8.06313e-22)
(-4.08207 0.347037 -3.66229e-22)
(-4.28646 0.344904 -1.88058e-21)
(-4.40271 0.30187 1.55472e-21)
(-4.50354 0.245126 5.23417e-22)
(-4.55791 0.173268 0)
(-4.59458 0.117 -5.73113e-22)
(-4.59669 0.05975 1.13276e-21)
(-4.58653 0.00937613 0)
(-4.56167 -0.0210287 0)
(-4.55702 -0.0186144 0)
(-4.53615 -0.0215921 -5.13456e-22)
(-4.50484 -0.0453451 0)
(-4.44837 -0.0856872 1.28344e-21)
(-4.38259 -0.134443 0)
(-4.29888 -0.176472 1.10653e-21)
(-4.25219 -0.159574 0)
(-4.20576 -0.139535 -9.56017e-22)
(-4.15261 -0.132575 0)
(-4.09359 -0.137415 8.18791e-22)
(-4.02878 -0.137142 -5.77724e-22)
(-3.9632 -0.13822 0)
(-3.89332 -0.137214 -6.50722e-22)
(-3.8234 -0.136736 -8.71101e-23)
(-3.75176 -0.136194 -4.98718e-23)
(-3.68063 -0.136283 0)
(-3.6112 -0.134925 -3.58423e-22)
(-3.53629 -0.130697 5.95575e-23)
(-3.46368 -0.115407 0)
(-3.39742 -0.0860072 -9.1225e-23)
(-3.34059 -0.049131 -1.37556e-22)
(-3.30709 -0.00547861 0)
(-3.30194 0.051813 1.31914e-22)
(-3.32963 0.109655 0)
(-3.38614 0.156899 -4.66889e-22)
(-3.46743 0.17934 0)
(-3.58436 0.139488 9.76093e-22)
(-3.6747 0.0703418 4.68449e-22)
(-3.73377 0.0115683 -3.6796e-22)
(-3.76769 -0.0255012 -9.13715e-22)
(-3.83077 -0.0124146 1.0722e-21)
(-3.89557 0.045488 0)
(-4.00415 0.125013 0)
(-4.04955 0.129099 0)
(-4.0607 0.082557 -5.2073e-21)
(-4.02445 0.0202142 -1.94712e-21)
(-3.96172 -0.0393287 1.93614e-21)
(-3.86532 -0.0961172 0)
(-3.74319 -0.147002 1.55224e-21)
(-3.59502 -0.192253 -2.00307e-21)
(-3.42694 -0.230166 -2.08085e-21)
(-3.23976 -0.259893 0)
(-3.04251 -0.278834 0)
(-2.8343 -0.287768 0)
(-2.62713 -0.284877 -2.66809e-21)
(-2.4203 -0.271631 0)
(-2.23166 -0.246335 6.08214e-21)
(-2.05062 -0.221641 1.02207e-20)
(-1.90103 -0.200397 -7.42704e-21)
(-1.75252 -0.211067 0)
(-1.65134 -0.191854 -4.25757e-21)
(-1.58882 -0.118529 0)
(-1.53875 -0.0754699 -9.71625e-21)
(-1.45577 -0.0737166 4.77573e-21)
(-1.35048 -0.0897691 4.85003e-21)
(-1.21 -0.126075 0)
(-1.04612 -0.159827 1.54635e-20)
(-0.866324 -0.188144 -1.01801e-20)
(-0.674434 -0.210165 -5.23298e-21)
(-0.473002 -0.22814 0)
(-0.262874 -0.242844 -5.2983e-21)
(-0.044703 -0.255384 -1.59663e-20)
(0.181602 -0.266215 0)
(0.416719 -0.275748 -1.11844e-20)
(0.660994 -0.283902 -1.15829e-20)
(0.913596 -0.29041 -1.20313e-20)
(1.17337 -0.294805 0)
(1.43815 -0.296894 0)
(1.70518 -0.295839 0)
(1.97188 -0.291592 6.90776e-21)
(2.23532 -0.284359 7.18568e-21)
(2.4932 -0.27482 0)
(2.74397 -0.263806 1.48273e-20)
(2.98662 -0.252 1.49846e-20)
(3.22048 -0.239664 0)
(3.44497 -0.226697 1.51437e-20)
(3.65935 -0.212697 3.00713e-20)
(3.86258 -0.197289 -1.49768e-20)
(4.05335 -0.180379 -1.47179e-20)
(4.22965 -0.163353 0)
(4.39011 -0.146229 0)
(4.53566 -0.129217 0)
(4.66681 -0.113371 -1.37991e-20)
(4.78449 -0.0989965 1.34476e-20)
(4.88995 -0.0861175 2.63904e-20)
(4.98445 -0.074595 -1.29436e-20)
(5.06908 -0.0641371 1.26152e-20)
(5.14469 -0.0544359 1.24048e-20)
(5.21183 -0.0452414 0)
(5.27078 -0.0363589 0)
(5.32165 -0.0276388 -1.16301e-20)
(5.36453 -0.0189532 0)
(5.39946 -0.0102246 0)
(5.42633 -0.00141826 2.20896e-20)
(5.44499 0.00746583 0)
(5.45525 0.0164242 1.06785e-20)
(5.45691 0.025497 -1.0582e-20)
(5.44978 0.0346991 0)
(5.43366 0.0440676 1.02619e-20)
(5.40828 0.0536159 0)
(5.37333 0.0632516 0)
(5.32845 0.0726358 -1.00095e-20)
(5.27299 0.0812329 1.97544e-20)
(5.20643 0.0879963 -9.82403e-21)
(5.12839 0.0915656 0)
(5.03844 0.0903241 0)
(4.93677 0.0845539 9.49075e-21)
(4.82584 0.0760193 0)
(4.71719 0.0682289 9.33057e-21)
(4.62326 0.0646528 0)
(4.54569 0.0623229 0)
(4.48095 0.0580073 0)
(4.41966 0.0506914 9.02844e-21)
(4.35887 0.041693 0)
(4.30131 0.0335927 -8.88212e-21)
(4.24946 0.0288604 0)
(4.20141 0.0260636 0)
(4.16073 0.0281474 1.73174e-20)
(4.12135 0.0308903 -1.71849e-20)
(4.08884 0.0392401 0)
(4.04233 0.040518 0)
(4.00758 0.0555726 0)
(3.9261 0.0510603 5.02155e-20)
(3.89535 0.0925935 0)
(3.73391 0.085131 -3.30818e-20)
(0.0663113 0.470981 -2.65847e-23)
(0.241653 0.16408 -5.25704e-21)
(0.505718 -0.327976 0)
(0.836753 -0.839728 4.93472e-21)
(1.17186 -1.25394 0)
(1.46326 -1.50691 0)
(1.69151 -1.58811 -2.9812e-22)
(1.86076 -1.52991 -2.29692e-21)
(1.97913 -1.37098 -1.78079e-21)
(2.05774 -1.14962 -2.07442e-21)
(2.09749 -0.909616 0)
(2.09999 -0.674987 0)
(2.06213 -0.467601 1.24471e-21)
(2.01285 -0.301793 2.2948e-21)
(1.95242 -0.135668 -2.14318e-21)
(1.87906 0.032768 0)
(1.79245 0.173053 -1.95463e-21)
(1.6892 0.291358 1.25221e-21)
(1.57265 0.389355 0)
(1.43198 0.508479 -1.9069e-21)
(1.27865 0.630059 -1.24129e-21)
(1.12131 0.731689 1.96313e-21)
(0.957521 0.819219 1.27989e-21)
(0.790934 0.879092 0)
(0.609728 0.937478 -2.04653e-21)
(0.381756 1.04485 -2.04038e-21)
(0.13491 1.14852 0)
(-0.137037 1.24859 -1.95427e-21)
(-0.429793 1.32106 0)
(-0.737284 1.35007 -1.73971e-21)
(-1.05633 1.32987 -1.06347e-21)
(-1.35973 1.27158 0)
(-1.6433 1.18157 0)
(-1.89327 1.06133 0)
(-2.12507 0.933472 0)
(-2.33133 0.799085 0)
(-2.53763 0.693732 0)
(-2.74164 0.637119 1.32663e-22)
(-2.94881 0.643297 -2.89054e-22)
(-3.15984 0.693252 0)
(-3.35283 0.737996 0)
(-3.54587 0.748123 0)
(-3.7009 0.761428 -6.93724e-22)
(-3.87611 0.731687 7.31849e-22)
(-4.03203 0.671501 2.48559e-21)
(-4.1771 0.612473 -2.83568e-21)
(-4.30621 0.552762 -1.9313e-21)
(-4.40759 0.479893 1.42385e-21)
(-4.46295 0.402567 6.81359e-22)
(-4.5028 0.319166 2.32462e-21)
(-4.51623 0.230751 0)
(-4.52295 0.144313 2.39262e-21)
(-4.5146 0.0679417 6.4952e-22)
(-4.51603 0.0187675 0)
(-4.51013 -0.0127489 0)
(-4.49383 -0.0385262 -2.14506e-21)
(-4.45239 -0.074459 0)
(-4.4034 -0.11616 0)
(-4.34484 -0.16564 2.31974e-21)
(-4.2924 -0.205711 3.36506e-21)
(-4.26586 -0.206391 -1.10922e-21)
(-4.25337 -0.193232 0)
(-4.22511 -0.189961 9.58048e-22)
(-4.18749 -0.195785 0)
(-4.14207 -0.206078 1.83196e-21)
(-4.08718 -0.213655 7.63915e-22)
(-4.02404 -0.222091 -2.49571e-21)
(-3.95345 -0.226862 -1.74406e-21)
(-3.87849 -0.227085 0)
(-3.80204 -0.224976 2.09746e-21)
(-3.7266 -0.2243 0)
(-3.65199 -0.225076 2.03575e-21)
(-3.57501 -0.220977 1.52053e-21)
(-3.4992 -0.202459 1.37189e-21)
(-3.42311 -0.171185 -1.24798e-21)
(-3.35629 -0.11894 1.2774e-21)
(-3.30831 -0.0408394 0)
(-3.27995 0.0518341 0)
(-3.27183 0.137788 -5.40091e-22)
(-3.29456 0.207658 1.54366e-23)
(-3.3277 0.262665 0)
(-3.41039 0.246512 -5.73713e-22)
(-3.50397 0.174192 0)
(-3.5974 0.0985569 2.25209e-21)
(-3.69206 0.0627374 4.8375e-22)
(-3.78242 0.0747187 -5.23709e-22)
(-3.86659 0.137357 -2.15811e-21)
(-3.89791 0.160315 0)
(-3.8623 0.113387 2.42063e-21)
(-3.80221 0.0369753 7.46788e-22)
(-3.71718 -0.0495897 0)
(-3.62067 -0.135327 0)
(-3.50583 -0.215426 0)
(-3.37792 -0.28578 -3.49843e-21)
(-3.23297 -0.3471 0)
(-3.07467 -0.398474 0)
(-2.90191 -0.437726 0)
(-2.72033 -0.462811 0)
(-2.52864 -0.473148 0)
(-2.33669 -0.466187 -4.66218e-21)
(-2.14656 -0.440833 0)
(-1.97752 -0.400908 -6.07387e-21)
(-1.81747 -0.36085 -6.71879e-21)
(-1.68787 -0.322516 7.42127e-21)
(-1.56814 -0.30009 0)
(-1.50507 -0.245817 8.75092e-21)
(-1.43705 -0.177577 0)
(-1.33157 -0.159318 9.71114e-21)
(-1.19813 -0.176102 -9.98675e-21)
(-1.04661 -0.213908 -2.92545e-20)
(-0.874148 -0.263862 0)
(-0.699209 -0.305779 -2.95943e-20)
(-0.516039 -0.340676 -9.31905e-21)
(-0.327947 -0.367994 0)
(-0.131266 -0.390824 -1.98196e-20)
(0.0730851 -0.410126 -2.01275e-20)
(0.286814 -0.427549 3.11391e-20)
(0.509215 -0.443538 0)
(0.740986 -0.458429 1.11806e-20)
(0.981708 -0.471682 1.15797e-20)
(1.23107 -0.482527 3.56241e-20)
(1.48768 -0.490156 0)
(1.74957 -0.493516 0)
(2.01399 -0.491592 0)
(2.27775 -0.484212 1.35919e-20)
(2.5375 -0.47183 0)
(2.7906 -0.455609 0)
(3.03538 -0.437059 -1.48225e-20)
(3.27111 -0.417456 -1.498e-20)
(3.49749 -0.397311 0)
(3.71435 -0.376364 0)
(3.92122 -0.353833 -3.00631e-20)
(4.11728 -0.32897 0)
(4.30103 -0.301811 2.95186e-20)
(4.47082 -0.274105 2.89514e-20)
(4.62559 -0.245586 0)
(4.76581 -0.217762 0)
(4.89198 -0.191838 -2.74023e-20)
(5.00512 -0.168422 -1.09389e-22)
(5.1065 -0.147618 -1.02151e-22)
(5.19746 -0.129171 0)
(5.27918 -0.11258 -5.04654e-20)
(5.35263 -0.0973126 0)
(5.41844 -0.0829315 0)
(5.47698 -0.0691118 0)
(5.52846 -0.0556283 2.33048e-20)
(5.57292 -0.0423326 0)
(5.61033 -0.0291525 -4.47704e-20)
(5.64061 -0.0160285 -2.20853e-20)
(5.66369 -0.00288442 0)
(5.67954 0.0102863 -2.14054e-20)
(5.68818 0.023501 0)
(5.68963 0.0367878 0)
(5.68401 0.0501927 -6.15665e-20)
(5.67152 0.0637468 4.0524e-20)
(5.65238 0.0773594 0)
(5.62675 0.0907288 3.96972e-20)
(5.59461 0.103426 -1.97498e-20)
(5.55558 0.114764 0)
(5.50919 0.124053 0)
(5.45409 0.130435 0)
(5.38911 0.133607 -5.69634e-20)
(5.31273 0.133683 0)
(5.22371 0.127899 -1.87138e-20)
(5.12556 0.114631 0)
(5.02565 0.0979846 0)
(4.93607 0.0826609 0)
(4.86344 0.0712238 0)
(4.80072 0.0624458 0)
(4.73919 0.0544981 0)
(4.67992 0.049533 -3.50487e-20)
(4.62255 0.046125 0)
(4.57196 0.0460248 -1.73116e-20)
(4.52437 0.0452437 5.143e-20)
(4.48956 0.0507956 0)
(4.45156 0.0520954 0)
(4.42857 0.0691528 -3.35356e-20)
(4.38109 0.0743215 -3.34373e-20)
(4.36002 0.116247 3.3118e-20)
(4.27803 0.126337 3.30703e-20)
(0.0459895 0.0501215 8.00419e-21)
(0.365153 -0.494199 7.85948e-21)
(0.779136 -1.14644 4.96553e-21)
(1.14741 -1.61531 2.17145e-21)
(1.43104 -1.88981 0)
(1.60958 -1.94898 -3.85148e-21)
(1.6979 -1.8369 1.40143e-21)
(1.72829 -1.62907 0)
(1.72017 -1.37071 1.78012e-21)
(1.69735 -1.08867 0)
(1.66156 -0.809453 -2.15182e-21)
(1.61617 -0.539796 0)
(1.55128 -0.288579 -1.24139e-21)
(1.4679 -0.0745702 -2.28814e-21)
(1.35486 0.0944261 2.13702e-21)
(1.23585 0.245426 0)
(1.11745 0.399947 1.95024e-21)
(0.988142 0.532671 0)
(0.844811 0.66125 0)
(0.685563 0.795767 1.90672e-21)
(0.527576 0.916337 0)
(0.364788 1.02546 -6.2157e-22)
(0.202405 1.11238 0)
(0.0237044 1.20521 0)
(-0.184736 1.33064 6.81673e-22)
(-0.405292 1.45862 2.04876e-21)
(-0.633083 1.58265 1.3024e-21)
(-0.862577 1.68966 1.96541e-21)
(-1.09115 1.76461 0)
(-1.31898 1.79951 2.79875e-21)
(-1.55362 1.78242 0)
(-1.7883 1.7097 7.61434e-22)
(-2.02107 1.59381 0)
(-2.24285 1.45108 0)
(-2.45963 1.30164 -1.33454e-22)
(-2.67123 1.15793 0)
(-2.89255 1.05219 -3.99558e-22)
(-3.1112 0.996027 5.8741e-22)
(-3.33321 1.00434 1.45828e-21)
(-3.55172 1.04657 -2.70552e-21)
(-3.75346 1.07948 0)
(-3.92947 1.05859 0)
(-4.07012 1.01144 -2.7656e-21)
(-4.1895 0.930173 0)
(-4.28431 0.844089 -1.57446e-21)
(-4.36298 0.764742 1.75358e-21)
(-4.41306 0.669191 1.92688e-21)
(-4.43925 0.560448 0)
(-4.44511 0.448373 -2.22952e-21)
(-4.44225 0.334098 -2.32447e-21)
(-4.4302 0.22527 6.28238e-21)
(-4.42299 0.132786 -2.39388e-21)
(-4.4198 0.0642376 -2.36876e-21)
(-4.42435 0.010557 0)
(-4.41627 -0.0420236 0)
(-4.39551 -0.0921412 2.14792e-21)
(-4.36195 -0.140402 0)
(-4.33065 -0.183777 0)
(-4.29815 -0.225656 -3.61076e-21)
(-4.28462 -0.238024 -3.36907e-21)
(-4.29132 -0.225573 0)
(-4.29399 -0.220798 0)
(-4.27587 -0.227505 0)
(-4.25163 -0.239971 0)
(-4.21716 -0.261165 -2.65228e-21)
(-4.16737 -0.283215 3.75524e-21)
(-4.10358 -0.303338 2.49804e-21)
(-4.02942 -0.315208 5.99299e-21)
(-3.94932 -0.317855 0)
(-3.86362 -0.316302 1.17653e-21)
(-3.77577 -0.318651 0)
(-3.68642 -0.324098 -1.70789e-21)
(-3.59735 -0.321616 1.06293e-21)
(-3.51024 -0.302485 -1.38559e-21)
(-3.42566 -0.255877 1.26354e-21)
(-3.34638 -0.185159 8.57336e-22)
(-3.268 -0.0997108 0)
(-3.19851 0.0056783 1.55624e-21)
(-3.14861 0.116617 5.56151e-22)
(-3.13424 0.214479 1.06726e-21)
(-3.13278 0.300939 0)
(-3.17504 0.318771 4.19143e-23)
(-3.2412 0.270201 0)
(-3.33036 0.207498 -2.11457e-21)
(-3.4177 0.161434 1.66593e-21)