/*--------------------------------*- C++ -*----------------------------------*\
  =========                 |
  \\      /  F ield         | OpenFOAM: The Open Source CFD Toolbox
   \\    /   O peration     | Website:  https://openfoam.org
    \\  /    A nd           | Version:  10
     \\/     M anipulation  |
\*---------------------------------------------------------------------------*/
FoamFile
{
    format      ascii;
    class       surfaceScalarField;
    location    "0.1";
    object      phi;
}
// * * * * * * * * * * * * * * * * * * * * * * * * * * * * * * * * * * * * * //

dimensions      [0 3 -1 0 0 0 0];

internalField   nonuniform List<scalar> 
24170
(
5.28363e-09
-5.28363e-09
8.96497e-09
-3.68134e-09
1.04534e-08
-1.4884e-09
1.07356e-08
-2.82187e-10
1.04666e-08
2.68994e-10
1.00076e-08
4.59007e-10
9.54362e-09
4.63936e-10
9.15472e-09
3.88893e-10
8.86633e-09
2.88392e-10
8.68085e-09
1.85485e-10
8.59482e-09
8.60311e-11
8.60798e-09
-1.316e-11
8.72948e-09
-1.21503e-10
8.98637e-09
-2.56893e-10
9.44346e-09
-4.57089e-10
1.02655e-08
-8.22081e-10
1.19785e-08
-1.71299e-09
-5.05522e-09
1.70338e-08
5.72947e-09
-1.10131e-08
9.71469e-09
-7.66657e-09
1.12683e-08
-3.04198e-09
1.15391e-08
-5.53011e-10
1.12311e-08
5.76991e-10
1.07275e-08
9.62604e-10
1.02242e-08
9.67258e-10
9.80459e-09
8.08485e-10
9.4943e-09
5.98685e-10
9.29472e-09
3.85063e-10
9.20133e-09
1.79419e-10
9.21302e-09
-2.48442e-11
9.33816e-09
-2.46643e-10
9.60227e-09
-5.21001e-10
1.00638e-08
-9.18601e-10
1.0852e-08
-1.61034e-09
1.22362e-08
-3.09716e-09
-7.04771e-09
1.42287e-08
6.30055e-09
-1.73136e-08
1.06696e-08
-1.20357e-08
1.22303e-08
-4.60265e-09
1.24451e-08
-7.6782e-10
1.20683e-08
9.53772e-10
1.1501e-08
1.52993e-09
1.09472e-08
1.52105e-09
1.0491e-08
1.26469e-09
1.01557e-08
9.34005e-10
9.94003e-09
6.00731e-10
9.83724e-09
2.82211e-10
9.84422e-09
-3.18194e-11
9.9668e-09
-3.69224e-10
1.0225e-08
-7.79224e-10
1.06606e-08
-1.35419e-09
1.1341e-08
-2.29076e-09
1.22883e-08
-4.04442e-09
-7.58268e-09
1.28232e-08
7.04008e-09
-2.43537e-08
1.1912e-08
-1.69076e-08
1.33797e-08
-6.07032e-09
1.34748e-08
-8.62963e-10
1.29883e-08
1.44026e-09
1.23315e-08
2.18678e-09
1.17128e-08
2.1397e-09
1.12127e-08
1.76481e-09
1.08487e-08
1.29797e-09
1.06147e-08
8.3474e-10
1.05001e-08
3.9685e-10
1.04983e-08
-3.00566e-11
1.06108e-08
-4.81676e-10
1.08484e-08
-1.01684e-09
1.12297e-08
-1.73555e-09
1.17589e-08
-2.8199e-09
1.23085e-08
-4.59402e-09
-7.45861e-09
1.21844e-08
3.75084e-09
-2.81046e-08
1.35339e-08
-2.66906e-08
1.47641e-08
-7.30051e-09
1.46522e-08
-7.51076e-10
1.40014e-08
2.09109e-09
1.32209e-08
2.96724e-09
1.25192e-08
2.84142e-09
1.19665e-08
2.31747e-09
1.157e-08
1.69448e-09
1.13154e-08
1.08938e-09
1.11863e-08
5.25982e-10
1.11712e-08
-1.50047e-11
1.12653e-08
-5.75736e-10
1.14679e-08
-1.21948e-09
1.17735e-08
-2.04114e-09
1.21375e-08
-3.18395e-09
1.23763e-08
-4.83279e-09
-7.05723e-09
1.19749e-08
2.12338e-09
-3.0228e-08
4.03164e-09
-2.85989e-08
1.64261e-08
-1.9695e-08
1.60033e-08
-3.28194e-10
1.51172e-08
2.97719e-09
1.41689e-08
3.91549e-09
1.33619e-08
3.64839e-09
1.27472e-08
2.93224e-09
1.23144e-08
2.12722e-09
1.20373e-08
1.36657e-09
1.18912e-08
6.72072e-10
1.18583e-08
1.7907e-11
1.19259e-08
-6.43415e-10
1.20816e-08
-1.37511e-09
1.22988e-08
-2.25843e-09
1.25056e-08
-3.39068e-09
1.25216e-08
-4.8488e-09
-6.55369e-09
1.20181e-08
2.36082e-09
-3.25888e-08
3.52462e-09
-2.97627e-08
8.81277e-09
-2.49832e-08
1.75529e-08
-9.06833e-09
1.63425e-08
4.18763e-09
1.51699e-08
5.08802e-09
1.42319e-08
4.58645e-09
1.35455e-08
3.61861e-09
1.30741e-08
2.59867e-09
1.27736e-08
1.66707e-09
1.26089e-08
8.36769e-10
1.25542e-08
7.25354e-11
1.25889e-08
-6.78109e-10
1.26893e-08
-1.4755e-09
1.28149e-08
-2.38404e-09
1.28846e-08
-3.46035e-09
1.275e-08
-4.71421e-09
-6.02482e-09
1.22211e-08
2.69308e-09
-3.52819e-08
4.11645e-09
-3.11861e-08
3.61403e-09
-2.44807e-08
1.87686e-08
-2.42229e-08
1.76782e-08
5.27803e-09
1.62094e-08
6.55678e-09
1.51126e-08
5.68329e-09
1.43473e-08
4.38388e-09
1.38376e-08
3.10839e-09
1.35153e-08
1.9893e-09
1.33321e-08
1.01998e-09
1.32536e-08
1.51093e-10
1.32512e-08
-6.75695e-10
1.32929e-08
-1.5172e-09
1.33311e-08
-2.42226e-09
1.3289e-08
-3.41828e-09
1.30572e-08
-4.48242e-09
-5.50258e-09
1.2535e-08
3.19843e-09
-3.84803e-08
5.11504e-09
-3.31027e-08
7.0042e-09
-2.63699e-08
6.23026e-09
-2.34489e-08
1.91844e-08
-7.67614e-09
1.72566e-08
8.48456e-09
1.59762e-08
6.9637e-09
1.5131e-08
5.22912e-09
1.45894e-08
3.65002e-09
1.42512e-08
2.32752e-09
1.40525e-08
1.21862e-09
1.39505e-08
2.53097e-10
1.39103e-08
-6.35448e-10
1.38947e-08
-1.50163e-09
1.38554e-08
-2.38299e-09
1.37273e-08
-3.29011e-09
1.34357e-08
-4.19087e-09
-4.99934e-09
1.29325e-08
3.9368e-09
-4.24171e-08
6.29722e-09
-3.54631e-08
7.65416e-09
-2.77268e-08
5.51293e-09
-2.13077e-08
1.91427e-08
-2.1306e-08
1.82372e-08
9.39008e-09
1.67781e-08
8.4228e-09
1.5865e-08
6.14218e-09
1.53086e-08
4.20649e-09
1.49668e-08
2.66926e-09
1.47603e-08
1.42511e-09
1.46391e-08
3.74309e-10
1.45643e-08
-5.60674e-10
1.44975e-08
-1.43482e-09
1.43942e-08
-2.27968e-09
1.42034e-08
-3.09928e-09
1.38778e-08
-3.86526e-09
-4.51943e-09
1.33979e-08
5.02086e-09
-4.7438e-08
7.85504e-09
-3.82973e-08
9.17772e-09
-2.90495e-08
1.00561e-08
-2.21861e-08
8.8254e-09
-2.00752e-08
1.938e-08
-1.16456e-09
1.74536e-08
1.03492e-08
1.6505e-08
7.09081e-09
1.5969e-08
4.74248e-09
1.56459e-08
2.99231e-09
1.54452e-08
1.62586e-09
1.53137e-08
5.05853e-10
1.5212e-08
-4.58987e-10
1.51039e-08
-1.32672e-09
1.49518e-08
-2.12762e-09
1.47187e-08
-2.86619e-09
1.43768e-08
-3.52336e-09
-4.06423e-09
1.39216e-08
5.51921e-09
-5.29572e-08
8.29763e-09
-4.10757e-08
9.23786e-09
-2.99897e-08
9.07125e-09
-2.20195e-08
5.10759e-09
-1.61116e-08
1.70021e-08
-1.30591e-08
1.50281e-08
1.23232e-08
1.43196e-08
7.79931e-09
1.39342e-08
5.12794e-09
1.37022e-08
3.22425e-09
1.35529e-08
1.77517e-09
1.34446e-08
6.14219e-10
1.3347e-08
-3.61391e-10
1.32338e-08
-1.21354e-09
1.308e-08
-1.97385e-09
1.28638e-08
-2.65002e-09
1.25722e-08
-3.23167e-09
-3.69903e-09
1.22069e-08
8.43193e-09
-6.13891e-08
1.19995e-08
-4.46432e-08
1.27058e-08
-3.0696e-08
1.20637e-08
-2.13774e-08
1.05205e-08
-1.45684e-08
1.6406e-08
-1.89446e-08
1.70741e-08
1.16551e-08
1.66661e-08
8.20728e-09
1.63691e-08
5.42493e-09
1.61831e-08
3.41028e-09
1.60553e-08
1.90297e-09
1.59481e-08
7.21466e-10
1.58341e-08
-2.47454e-10
1.56907e-08
-1.07007e-09
1.54975e-08
-1.78073e-09
1.52394e-08
-2.39188e-09
1.49098e-08
-2.90204e-09
-3.30389e-09
1.45147e-08
1.40435e-08
-7.54326e-08
1.82861e-08
-4.88859e-08
1.81276e-08
-3.05375e-08
1.67078e-08
-1.99577e-08
1.62539e-08
-1.41144e-08
1.088e-08
-1.35707e-08
1.93289e-08
3.20619e-09
1.90957e-08
8.44055e-09
1.89842e-08
5.53643e-09
1.89248e-08
3.46961e-09
1.88695e-08
1.95826e-09
1.87931e-08
7.97896e-10
1.86796e-08
-1.33965e-10
1.8516e-08
-9.06439e-10
1.82913e-08
-1.55599e-09
1.79987e-08
-2.09932e-09
1.76388e-08
-2.54216e-09
-2.88606e-09
1.7221e-08
2.65425e-08
-1.01975e-07
2.97682e-08
-5.21116e-08
2.67673e-08
-2.75366e-08
2.29651e-08
-1.61555e-08
1.92849e-08
-1.04342e-08
1.25333e-08
-6.81917e-09
2.1339e-08
-5.59949e-09
2.13809e-08
8.39869e-09
2.16622e-08
5.25511e-09
2.18755e-08
3.25628e-09
2.19809e-08
1.85286e-09
2.19875e-08
7.91328e-10
2.19066e-08
-5.30342e-11
2.17447e-08
-7.44521e-10
2.15054e-08
-1.31676e-09
2.11933e-08
-1.78718e-09
2.08162e-08
-2.16504e-09
-2.45652e-09
2.03866e-08
6.05159e-08
-1.62491e-07
5.20731e-08
-4.36688e-08
4.06497e-08
-1.61131e-08
3.22293e-08
-7.73509e-09
2.61104e-08
-4.31532e-09
2.15939e-08
-2.30271e-09
2.08679e-08
-4.87349e-09
2.29751e-08
6.29148e-09
2.42752e-08
3.95502e-09
2.50206e-08
2.51087e-09
2.54101e-08
1.46337e-09
2.55664e-08
6.35078e-10
2.55593e-08
-4.59937e-11
2.54288e-08
-6.13955e-10
2.5199e-08
-1.08698e-09
2.48876e-08
-1.47583e-09
2.45105e-08
-1.7879e-09
-2.02949e-09
2.40835e-08
1.81992e-07
1.55497e-07
9.35603e-08
4.4763e-08
6.04898e-08
1.69574e-08
4.43858e-08
8.36891e-09
3.50186e-08
5.05181e-09
2.96166e-08
3.09935e-09
1.86076e-08
6.13549e-09
2.45682e-08
3.3091e-10
2.73148e-08
1.20833e-09
2.86811e-08
1.14461e-09
2.93709e-08
7.73553e-10
2.96831e-08
3.22858e-10
2.97593e-08
-1.22175e-10
2.96737e-08
-5.28302e-10
2.94696e-08
-8.82884e-10
2.91759e-08
-1.18215e-09
2.88146e-08
-1.42657e-09
-1.61894e-09
2.8404e-08
7.34526e-08
8.20445e-08
6.90056e-08
4.921e-08
5.67099e-08
2.9253e-08
4.63369e-08
1.8742e-08
3.78987e-08
1.349e-08
2.97419e-08
1.12561e-08
3.102e-08
4.85733e-09
3.21533e-08
-8.02315e-10
3.32565e-08
1.05068e-10
3.4034e-08
3.67105e-10
3.45035e-08
3.04083e-10
3.47322e-08
9.41949e-11
3.47787e-08
-1.68691e-10
3.46867e-08
-4.3628e-10
3.44882e-08
-6.84422e-10
3.42079e-08
-9.01849e-10
3.38656e-08
-1.08429e-09
-1.23138e-09
3.34781e-08
3.25537e-08
4.94907e-08
4.36494e-08
3.81143e-08
4.51003e-08
2.78022e-08
4.33693e-08
2.0473e-08
4.09661e-08
1.58932e-08
4.09439e-08
1.12783e-08
4.4262e-08
1.53919e-09
4.23533e-08
1.10636e-09
4.1581e-08
8.77411e-10
4.12829e-08
6.6524e-10
4.11503e-08
4.36682e-10
4.10452e-08
1.99253e-10
4.09096e-08
-3.30987e-11
4.07226e-08
-2.49297e-10
4.04807e-08
-4.4252e-10
4.01884e-08
-6.09471e-10
3.98534e-08
-7.49345e-10
-8.6297e-10
3.9485e-08
1.2201e-08
3.72897e-08
1.91011e-08
3.12143e-08
2.27602e-08
2.4143e-08
2.48029e-08
1.84303e-08
2.69726e-08
1.37234e-08
3.32154e-08
5.03554e-09
3.15623e-08
3.19232e-09
3.05418e-08
2.12689e-09
2.99578e-08
1.46143e-09
2.96251e-08
9.97939e-10
2.94196e-08
6.42164e-10
2.92674e-08
3.51408e-10
2.91278e-08
1.06548e-10
2.89799e-08
-1.01371e-10
2.88145e-08
-2.77164e-10
2.86291e-08
-4.24096e-10
2.84247e-08
-5.44921e-10
-6.42254e-10
2.8204e-08
6.61542e-09
3.06743e-08
1.05144e-08
2.73153e-08
1.69519e-08
1.77054e-08
2.18258e-08
1.35565e-08
2.70732e-08
8.47596e-09
2.65183e-08
5.59049e-09
2.59833e-08
3.72734e-09
2.55854e-08
2.52477e-09
2.53205e-08
1.72634e-09
2.51477e-08
1.1707e-09
2.50264e-08
7.63537e-10
2.49263e-08
4.51507e-10
2.48283e-08
2.04527e-10
2.47217e-08
5.23193e-12
2.46014e-08
-1.56916e-10
2.44661e-08
-2.88798e-10
2.43165e-08
-3.95307e-10
-4.80217e-10
2.41545e-08
1.03338e-08
2.03405e-08
1.51573e-08
2.24919e-08
1.76122e-08
1.52505e-08
2.01652e-08
1.10035e-08
2.09624e-08
7.67868e-09
2.12618e-08
5.29111e-09
2.13484e-08
3.64077e-09
2.13601e-08
2.513e-09
2.13515e-08
1.73498e-09
2.1337e-08
1.18522e-09
2.1316e-08
7.84525e-10
2.12842e-08
4.83249e-10
2.12381e-08
2.50677e-10
2.11757e-08
6.76747e-11
2.10967e-08
-7.79678e-11
2.10023e-08
-1.94356e-10
2.08941e-08
-2.87148e-10
-3.60509e-10
2.07744e-08
4.06189e-09
1.62786e-08
1.05576e-08
1.59962e-08
1.35641e-08
1.22439e-08
1.54894e-08
9.07828e-09
1.66324e-08
6.5357e-09
1.72967e-08
4.62684e-09
1.76865e-08
3.25087e-09
1.79228e-08
2.27677e-09
1.80704e-08
1.58738e-09
1.81622e-08
1.09336e-09
1.82146e-08
7.32165e-10
1.82358e-08
4.62038e-10
1.82308e-08
2.55683e-10
1.82032e-08
9.53288e-11
1.81559e-08
-3.07337e-11
1.8092e-08
-1.30407e-10
1.8014e-08
-2.09209e-10
-2.71153e-10
1.79247e-08
3.62345e-09
1.26552e-08
7.75689e-09
1.18627e-08
1.04696e-08
9.53118e-09
1.23014e-08
7.2465e-09
1.35092e-08
5.32789e-09
1.42968e-08
3.8393e-09
1.4812e-08
2.73568e-09
1.51527e-08
1.93602e-09
1.53799e-08
1.36021e-09
1.55301e-08
9.4313e-10
1.56254e-08
6.36867e-10
1.56794e-08
4.08025e-10
1.57011e-08
2.33995e-10
1.56968e-08
9.96222e-11
1.56714e-08
-5.28879e-12
1.56287e-08
-8.771e-11
1.5572e-08
-1.52531e-10
-2.03291e-10
1.55041e-08
3.06205e-09
9.59312e-09
6.1038e-09
8.821e-09
8.3927e-09
7.24227e-09
1.0039e-08
5.60015e-09
1.11912e-08
4.1757e-09
1.19861e-08
3.04449e-09
1.2532e-08
2.18977e-09
1.29071e-08
1.56084e-09
1.31647e-08
1.10266e-09
1.33396e-08
7.68247e-10
1.34547e-08
5.21771e-10
1.35252e-08
3.37521e-10
1.35615e-08
1.97677e-10
1.35711e-08
9.00658e-11
1.35594e-08
6.37975e-12
1.35308e-08
-5.91146e-11
1.34887e-08
-1.10455e-10
-1.50561e-10
1.3436e-08
2.57078e-09
7.02235e-09
4.98898e-09
6.40279e-09
6.91767e-09
5.31359e-09
8.36528e-09
4.15254e-09
9.41645e-09
3.12453e-09
1.01655e-08
2.29542e-09
1.06942e-08
1.6611e-09
1.10654e-08
1.18964e-09
1.13245e-08
8.43549e-10
1.15031e-08
5.89653e-10
1.16229e-08
4.02003e-10
1.16987e-08
2.61633e-10
1.17412e-08
1.55184e-10
1.17579e-08
7.3422e-11
1.17543e-08
9.98291e-12
1.17347e-08
-3.95517e-11
1.17026e-08
-7.83031e-11
-1.08529e-10
1.16605e-08
2.1753e-09
4.84705e-09
4.17594e-09
4.40215e-09
5.81564e-09
3.67389e-09
7.07877e-09
2.8894e-09
8.01701e-09
2.18629e-09
8.69873e-09
1.6137e-09
9.18763e-09
1.17221e-09
9.53526e-09
8.42007e-10
9.78035e-09
5.98459e-10
9.9508e-09
4.19206e-10
1.00663e-08
2.86482e-10
1.01408e-08
1.87142e-10
1.01842e-08
1.11837e-10
1.02035e-08
5.40538e-11
1.02042e-08
9.27842e-12
1.01903e-08
-2.5636e-11
1.01649e-08
-5.29171e-11
-7.41771e-11
1.01306e-08
1.85849e-09
2.98856e-09
3.55137e-09
2.70927e-09
4.95759e-09
2.26766e-09
6.05723e-09
1.78977e-09
6.88497e-09
1.35855e-09
7.49324e-09
1.00543e-09
7.93351e-09
7.31941e-10
8.24886e-09
5.26659e-10
8.47248e-09
3.74834e-10
8.62881e-09
2.6288e-10
8.73539e-09
1.79897e-10
8.80477e-09
1.17763e-10
8.84594e-09
7.06696e-11
8.86544e-09
3.45531e-11
8.86813e-09
6.58671e-12
8.8577e-09
-1.52044e-11
8.837e-09
-3.222e-11
-4.54734e-11
8.8083e-09
1.60093e-09
1.38763e-09
3.05323e-09
1.25697e-09
4.26741e-09
1.05348e-09
5.22433e-09
8.32851e-10
5.94973e-09
6.33143e-10
6.48599e-09
4.69173e-10
6.87602e-09
3.41907e-10
7.15646e-09
2.46216e-10
7.35595e-09
1.75352e-10
7.49578e-09
1.2305e-10
7.59141e-09
8.42623e-11
7.65396e-09
5.52141e-11
7.69143e-09
3.31992e-11
7.70966e-09
1.63196e-11
7.713e-09
3.2534e-12
7.70472e-09
-6.92409e-12
7.68736e-09
-1.48687e-11
-2.10554e-11
7.66295e-09
1.38763e-09
2.6446e-09
3.69808e-09
4.53093e-09
5.16407e-09
5.63325e-09
5.97515e-09
6.22137e-09
6.39672e-09
6.51977e-09
6.60403e-09
6.65925e-09
6.69245e-09
6.70877e-09
6.71202e-09
6.7051e-09
6.69023e-09
6.66917e-09
2.44333e-10
-2.44333e-10
4.90054e-10
-2.45721e-10
7.36863e-10
-2.46808e-10
9.84447e-10
-2.47584e-10
1.23249e-09
-2.48041e-10
1.48066e-09
-2.48172e-10
1.72863e-09
-2.47973e-10
1.97608e-09
-2.47442e-10
2.22266e-09
-2.46579e-10
2.46804e-09
-2.45386e-10
2.71191e-09
-2.43866e-10
2.95393e-09
-2.42027e-10
3.19381e-09
-2.39876e-10
3.43123e-09
-2.37424e-10
3.66592e-09
-2.34682e-10
3.89758e-09
-2.31665e-10
4.12597e-09
-2.28386e-10
4.35083e-09
-2.24862e-10
4.57194e-09
-2.2111e-10
4.78909e-09
-2.17147e-10
5.00208e-09
-2.12993e-10
5.21074e-09
-2.08666e-10
5.41493e-09
-2.04185e-10
5.6145e-09
-1.99569e-10
5.80934e-09
-1.94837e-10
5.99934e-09
-1.90008e-10
6.18444e-09
-1.85099e-10
6.36457e-09
-1.80128e-10
6.53968e-09
-1.75112e-10
6.70975e-09
-1.70066e-10
6.87476e-09
-1.65006e-10
7.0347e-09
-1.59946e-10
7.1896e-09
-1.54899e-10
7.33948e-09
-1.49878e-10
7.48437e-09
-1.44893e-10
7.62433e-09
-1.39955e-10
7.7594e-09
-1.35073e-10
7.88966e-09
-1.30256e-10
8.01517e-09
-1.25511e-10
8.13601e-09
-1.20845e-10
8.25228e-09
-1.16263e-10
8.36405e-09
-1.11771e-10
8.47142e-09
-1.07372e-10
8.57449e-09
-1.03071e-10
8.67336e-09
-9.887e-11
8.76813e-09
-9.47714e-11
8.85891e-09
-9.07769e-11
8.9458e-09
-8.68878e-11
9.0289e-09
-8.31047e-11
9.10833e-09
-7.94284e-11
9.18419e-09
-7.58584e-11
9.25658e-09
-7.23947e-11
9.32562e-09
-6.90363e-11
9.3914e-09
-6.57827e-11
9.45403e-09
-6.26324e-11
9.51362e-09
-5.95841e-11
9.57025e-09
-5.66365e-11
9.62404e-09
-5.37876e-11
9.67508e-09
-5.10358e-11
9.72346e-09
-4.83791e-11
9.76927e-09
-4.58154e-11
9.81262e-09
-4.33428e-11
9.85357e-09
-4.09592e-11
9.89224e-09
-3.86621e-11
9.92869e-09
-3.64495e-11
9.96301e-09
-3.43192e-11
9.99527e-09
-3.22688e-11
1.00256e-08
-3.02961e-11
1.0054e-08
-2.83991e-11
1.00805e-08
-2.65751e-11
1.01054e-08
-2.48223e-11
1.01285e-08
-2.31383e-11
1.015e-08
-2.15209e-11
1.017e-08
-1.99681e-11
1.01885e-08
-1.84777e-11
1.02055e-08
-1.70476e-11
1.02212e-08
-1.56758e-11
1.02356e-08
-1.43604e-11
1.02487e-08
-1.30992e-11
1.02605e-08
-1.18906e-11
1.02713e-08
-1.07324e-11
1.02809e-08
-9.62288e-12
1.02895e-08
-8.56042e-12
1.0297e-08
-7.5431e-12
1.03036e-08
-6.56929e-12
1.03092e-08
-5.63717e-12
1.0314e-08
-4.7454e-12
1.03178e-08
-3.89214e-12
1.03209e-08
-3.07603e-12
1.03232e-08
-2.29561e-12
1.03248e-08
-1.54924e-12
1.03256e-08
-8.35714e-13
1.03258e-08
-1.53479e-13
1.03253e-08
4.98491e-13
1.03241e-08
1.12186e-12
1.03224e-08
1.71758e-12
1.03201e-08
2.28683e-12
1.03173e-08
2.83109e-12
1.0314e-08
3.35117e-12
1.03101e-08
3.84836e-12
1.03058e-08
4.32352e-12
1.0301e-08
4.77794e-12
1.02958e-08
5.21222e-12
1.02902e-08
5.6278e-12
1.02841e-08
6.02509e-12
1.02777e-08
6.40537e-12
1.0271e-08
6.76929e-12
1.02638e-08
7.11776e-12
1.02564e-08
7.45147e-12
1.02486e-08
7.77127e-12
1.02405e-08
8.07789e-12
1.02322e-08
8.37203e-12
1.02235e-08
8.65426e-12
1.02146e-08
8.92533e-12
1.02054e-08
9.18584e-12
1.0196e-08
9.43649e-12
1.01863e-08
9.67755e-12
1.01764e-08
9.91005e-12
1.01662e-08
1.01339e-11
1.01559e-08
1.03503e-11
1.01453e-08
1.05591e-11
1.01346e-08
1.07611e-11
1.01236e-08
1.09567e-11
1.01125e-08
1.11463e-11
1.01011e-08
1.13303e-11
1.00896e-08
1.15089e-11
1.0078e-08
1.16828e-11
1.00661e-08
1.18521e-11
1.00541e-08
1.20172e-11
1.00419e-08
1.21786e-11
1.00296e-08
1.23362e-11
1.00171e-08
1.24907e-11
1.00044e-08
1.2642e-11
9.99164e-09
1.27907e-11
9.97871e-09
1.29369e-11
9.96563e-09
1.30809e-11
9.9524e-09
1.32227e-11
9.93904e-09
1.3363e-11
9.92554e-09
1.35016e-11
9.9119e-09
1.36388e-11
9.89813e-09
1.3775e-11
9.88422e-09
1.39103e-11
9.87017e-09
1.40451e-11
9.85599e-09
1.41794e-11
9.84168e-09
1.43137e-11
9.82723e-09
1.44481e-11
9.81265e-09
1.4583e-11
9.79793e-09
1.47188e-11
9.78307e-09
1.48561e-11
9.76808e-09
1.49953e-11
9.75294e-09
1.51369e-11
9.73766e-09
1.52819e-11
9.72223e-09
1.54312e-11
9.70664e-09
1.55858e-11
9.69089e-09
1.57474e-11
9.67498e-09
1.59178e-11
9.65888e-09
1.60995e-11
9.64258e-09
1.62954e-11
9.62607e-09
1.65094e-11
9.60932e-09
1.67465e-11
9.59231e-09
1.70131e-11
9.57499e-09
1.73176e-11
9.55732e-09
1.7671e-11
9.53924e-09
1.80873e-11
9.52065e-09
1.85857e-11
9.50146e-09
1.91914e-11
9.48152e-09
1.99379e-11
9.46065e-09
2.08714e-11
9.43859e-09
2.20555e-11
9.41501e-09
2.35792e-11
9.38944e-09
2.55707e-11
9.36122e-09
2.82195e-11
9.32941e-09
3.18157e-11
9.29258e-09
3.6826e-11
9.24853e-09
4.4048e-11
9.19357e-09
5.49647e-11
9.12089e-09
7.26786e-11
9.016e-09
1.04895e-10
8.83965e-09
1.76349e-10
4.01165e-10
8.43848e-09
2.45683e-10
-4.90016e-10
4.92753e-10
-4.92791e-10
7.40899e-10
-4.94955e-10
9.89804e-10
-4.96489e-10
1.23914e-09
-4.97376e-10
1.48857e-09
-4.97603e-10
1.73776e-09
-4.97163e-10
1.98637e-09
-4.9605e-10
2.23405e-09
-4.94266e-10
2.48048e-09
-4.91815e-10
2.72532e-09
-4.88707e-10
2.96825e-09
-4.84954e-10
3.20895e-09
-4.80574e-10
3.44711e-09
-4.75588e-10
3.68245e-09
-4.70021e-10
3.91469e-09
-4.63901e-10
4.14356e-09
-4.57258e-10
4.36883e-09
-4.50126e-10
4.59026e-09
-4.42539e-10
4.80764e-09
-4.34533e-10
5.02079e-09
-4.26147e-10
5.22955e-09
-4.17418e-10
5.43375e-09
-4.08385e-10
5.63326e-09
-3.99087e-10
5.82799e-09
-3.89561e-10
6.01783e-09
-3.79845e-10
6.2027e-09
-3.69975e-10
6.38256e-09
-3.59986e-10
6.55736e-09
-3.49911e-10
6.72708e-09
-3.39783e-10
6.8917e-09
-3.2963e-10
7.05124e-09
-3.19483e-10
7.2057e-09
-3.09365e-10
7.35513e-09
-2.99303e-10
7.49955e-09
-2.89318e-10
7.63903e-09
-2.7943e-10
7.77361e-09
-2.69658e-10
7.90338e-09
-2.60019e-10
8.02839e-09
-2.50527e-10
8.14874e-09
-2.41195e-10
8.26451e-09
-2.32034e-10
8.3758e-09
-2.23054e-10
8.48269e-09
-2.14263e-10
8.58528e-09
-2.05669e-10
8.68369e-09
-1.97275e-10
8.77801e-09
-1.89088e-10
8.86834e-09
-1.8111e-10
8.9548e-09
-1.73344e-10
9.03748e-09
-1.65791e-10
9.1165e-09
-1.58451e-10
9.19197e-09
-1.51324e-10
9.26398e-09
-1.4441e-10
9.33266e-09
-1.37707e-10
9.39809e-09
-1.31213e-10
9.46038e-09
-1.24926e-10
9.51964e-09
-1.18843e-10
9.57596e-09
-1.12961e-10
9.62945e-09
-1.07276e-10
9.6802e-09
-1.01786e-10
9.72831e-09
-9.64845e-11
9.77386e-09
-9.13696e-11
9.81695e-09
-8.64363e-11
9.85768e-09
-8.16803e-11
9.89611e-09
-7.70974e-11
9.93234e-09
-7.2683e-11
9.96646e-09
-6.84328e-11
9.99853e-09
-6.43421e-11
1.00286e-08
-6.04066e-11
1.00569e-08
-5.66216e-11
1.00833e-08
-5.29828e-11
1.01079e-08
-4.94856e-11
1.01309e-08
-4.61258e-11
1.01523e-08
-4.2899e-11
1.01721e-08
-3.98007e-11
1.01905e-08
-3.68272e-11
1.02074e-08
-3.39739e-11
1.0223e-08
-3.12369e-11
1.02372e-08
-2.86121e-11
1.02502e-08
-2.60959e-11
1.0262e-08
-2.36841e-11
1.02727e-08
-2.13732e-11
1.02822e-08
-1.91594e-11
1.02907e-08
-1.70394e-11
1.02981e-08
-1.50093e-11
1.03046e-08
-1.3066e-11
1.03102e-08
-1.1206e-11
1.03149e-08
-9.42648e-12
1.03187e-08
-7.72371e-12
1.03217e-08
-6.09518e-12
1.0324e-08
-4.53753e-12
1.03255e-08
-3.0481e-12
1.03263e-08
-1.62399e-12
1.03264e-08
-2.62588e-13
1.03258e-08
1.03882e-12
1.03247e-08
2.28279e-12
1.03229e-08
3.47179e-12
1.03206e-08
4.6083e-12
1.03177e-08
5.69434e-12
1.03143e-08
6.73265e-12
1.03105e-08
7.7249e-12
1.03061e-08
8.67358e-12
1.03013e-08
9.58042e-12
1.02961e-08
1.04477e-11
1.02904e-08
1.12771e-11
1.02844e-08
1.20704e-11
1.0278e-08
1.28295e-11
1.02712e-08
1.35561e-11
1.0264e-08
1.42519e-11
1.02566e-08
1.49182e-11
1.02488e-08
1.55568e-11
1.02407e-08
1.6169e-11
1.02323e-08
1.67562e-11
1.02237e-08
1.73198e-11
1.02147e-08
1.78613e-11
1.02055e-08
1.83815e-11
1.01961e-08
1.8882e-11
1.01864e-08
1.93637e-11
1.01765e-08
1.98277e-11
1.01663e-08
2.02752e-11
1.0156e-08
2.07071e-11
1.01454e-08
2.11244e-11
1.01346e-08
2.1528e-11
1.01237e-08
2.19187e-11
1.01125e-08
2.22974e-11
1.01012e-08
2.2665e-11
1.00897e-08
2.30221e-11
1.0078e-08
2.33694e-11
1.00661e-08
2.37077e-11
1.00541e-08
2.40378e-11
1.00419e-08
2.436e-11
1.00296e-08
2.46752e-11
1.00171e-08
2.49838e-11
1.00045e-08
2.52863e-11
9.99167e-09
2.55835e-11
9.97873e-09
2.58757e-11
9.96564e-09
2.61633e-11
9.95242e-09
2.64471e-11
9.93906e-09
2.67272e-11
9.92555e-09
2.70043e-11
9.91191e-09
2.72787e-11
9.89814e-09
2.75511e-11
9.88423e-09
2.78215e-11
9.87018e-09
2.80908e-11
9.856e-09
2.83593e-11
9.84169e-09
2.86277e-11
9.82724e-09
2.88964e-11
9.81265e-09
2.91662e-11
9.79794e-09
2.94378e-11
9.78308e-09
2.97121e-11
9.76808e-09
2.99902e-11
9.75295e-09
3.02732e-11
9.73767e-09
3.0563e-11
9.72224e-09
3.08609e-11
9.70665e-09
3.117e-11
9.69091e-09
3.14927e-11
9.67499e-09
3.1833e-11
9.6589e-09
3.21954e-11
9.64261e-09
3.25862e-11
9.6261e-09
3.30129e-11
9.60936e-09
3.34854e-11
9.59236e-09
3.40167e-11
9.57506e-09
3.46231e-11
9.5574e-09
3.53263e-11
9.53933e-09
3.61548e-11
9.52077e-09
3.71459e-11
9.50161e-09
3.83495e-11
9.48172e-09
3.98324e-11
9.46091e-09
4.16857e-11
9.43893e-09
4.40345e-11
9.41545e-09
4.70548e-11
9.39002e-09
5.09981e-11
9.36201e-09
5.62351e-11
9.33049e-09
6.33317e-11
9.29413e-09
7.31894e-11
9.25084e-09
8.73325e-11
9.19727e-09
1.08541e-10
9.12752e-09
1.42426e-10
9.03047e-09
2.01941e-10
8.88443e-09
3.2239e-10
6.16662e-10
8.66894e-09
2.4842e-10
-7.38436e-10
4.98222e-10
-7.42593e-10
7.49082e-10
-7.45814e-10
1.00066e-09
-7.48068e-10
1.25262e-09
-7.4933e-10
1.50459e-09
-7.49582e-10
1.75624e-09
-7.48811e-10
2.0072e-09
-7.47012e-10
2.25713e-09
-7.44189e-10
2.50566e-09
-7.40349e-10
2.75246e-09
-7.35509e-10
2.9972e-09
-7.29689e-10
3.23954e-09
-7.2292e-10
3.47919e-09
-7.15234e-10
3.71584e-09
-7.06671e-10
3.94921e-09
-6.97276e-10
4.17905e-09
-6.87097e-10
4.40511e-09
-6.76184e-10
4.62717e-09
-6.64594e-10
4.84501e-09
-6.52381e-10
5.05847e-09
-6.39605e-10
5.26738e-09
-6.26324e-10
5.47159e-09
-6.12597e-10
5.67099e-09
-5.98483e-10
5.86547e-09
-5.8404e-10
6.05494e-09
-5.69323e-10
6.23936e-09
-5.54388e-10
6.41866e-09
-5.39287e-10
6.59282e-09
-5.2407e-10
6.76182e-09
-5.08785e-10
6.92566e-09
-4.93476e-10
7.08437e-09
-4.78185e-10
7.23795e-09
-4.62952e-10
7.38646e-09
-4.47812e-10
7.52994e-09
-4.32797e-10
7.66845e-09
-4.17937e-10
7.80205e-09
-4.0326e-10
7.93082e-09
-3.8879e-10
8.05484e-09
-3.74546e-10
8.17419e-09
-3.6055e-10
8.28897e-09
-3.46815e-10
8.39928e-09
-3.33357e-10
8.5052e-09
-3.20188e-10
8.60685e-09
-3.07316e-10
8.70432e-09
-2.94749e-10
8.79773e-09
-2.82494e-10
8.88717e-09
-2.70556e-10
8.97277e-09
-2.58936e-10
9.05461e-09
-2.47638e-10
9.13282e-09
-2.3666e-10
9.2075e-09
-2.26004e-10
9.27876e-09
-2.15667e-10
9.3467e-09
-2.05646e-10
9.41143e-09
-1.9594e-10
9.47304e-09
-1.86543e-10
9.53165e-09
-1.77452e-10
9.58735e-09
-1.68663e-10
9.64025e-09
-1.60168e-10
9.69042e-09
-1.51964e-10
9.73798e-09
-1.44044e-10
9.78302e-09
-1.36402e-10
9.82561e-09
-1.29032e-10
9.86586e-09
-1.21927e-10
9.90384e-09
-1.1508e-10
9.93964e-09
-1.08486e-10
9.97335e-09
-1.02136e-10
1.0005e-08
-9.60254e-11
1.00348e-08
-9.01463e-11
1.00626e-08
-8.44921e-11
1.00887e-08
-7.9056e-11
1.01131e-08
-7.38317e-11
1.01357e-08
-6.88125e-11
1.01568e-08
-6.39917e-11
1.01764e-08
-5.93634e-11
1.01945e-08
-5.49208e-11
1.02112e-08
-5.0658e-11
1.02265e-08
-4.65688e-11
1.02405e-08
-4.26473e-11
1.02533e-08
-3.88878e-11
1.02649e-08
-3.52842e-11
1.02754e-08
-3.18314e-11
1.02848e-08
-2.85235e-11
1.02931e-08
-2.53555e-11
1.03004e-08
-2.2322e-11
1.03067e-08
-1.94182e-11
1.03122e-08
-1.66387e-11
1.03167e-08
-1.39791e-11
1.03204e-08
-1.14345e-11
1.03233e-08
-9.00043e-12
1.03255e-08
-6.67261e-12
1.03269e-08
-4.44642e-12
1.03276e-08
-2.31789e-12
1.03276e-08
-2.82974e-13
1.0327e-08
1.66244e-12
1.03257e-08
3.52197e-12
1.03239e-08
5.29939e-12
1.03215e-08
6.99827e-12
1.03186e-08
8.62216e-12
1.03151e-08
1.01742e-11
1.03112e-08
1.1658e-11
1.03068e-08
1.30763e-11
1.0302e-08
1.44324e-11
1.02967e-08
1.57292e-11
1.0291e-08
1.69695e-11
1.02849e-08
1.81559e-11
1.02784e-08
1.92912e-11
1.02716e-08
2.03779e-11
1.02644e-08
2.14185e-11
1.02569e-08
2.24153e-11
1.02491e-08
2.33704e-11
1.0241e-08
2.42863e-11
1.02326e-08
2.51649e-11
1.02239e-08
2.60082e-11
1.0215e-08
2.68182e-11
1.02057e-08
2.75968e-11
1.01963e-08
2.83457e-11
1.01866e-08
2.90665e-11
1.01766e-08
2.97612e-11
1.01665e-08
3.04309e-11
1.01561e-08
3.10774e-11
1.01455e-08
3.1702e-11
1.01348e-08
3.23063e-11
1.01238e-08
3.28911e-11
1.01126e-08
3.34584e-11
1.01013e-08
3.40086e-11
1.00898e-08
3.45434e-11
1.00781e-08
3.50636e-11
1.00662e-08
3.55703e-11
1.00542e-08
3.60646e-11
1.0042e-08
3.65474e-11
1.00297e-08
3.70195e-11
1.00172e-08
3.74818e-11
1.00045e-08
3.79352e-11
9.99171e-09
3.83805e-11
9.97877e-09
3.88181e-11
9.96568e-09
3.92493e-11
9.95245e-09
3.96744e-11
9.93909e-09
4.00944e-11
9.92558e-09
4.05096e-11
9.91194e-09
4.09208e-11
9.89816e-09
4.13289e-11
9.88425e-09
4.17344e-11
9.8702e-09
4.21381e-11
9.85602e-09
4.25405e-11
9.8417e-09
4.29428e-11
9.82725e-09
4.33455e-11
9.81267e-09
4.37497e-11
9.79795e-09
4.41568e-11
9.7831e-09
4.45677e-11
9.7681e-09
4.49844e-11
9.75297e-09
4.54084e-11
9.73769e-09
4.58421e-11
9.72226e-09
4.62884e-11
9.70668e-09
4.67508e-11
9.69094e-09
4.72336e-11
9.67503e-09
4.77424e-11
9.65894e-09
4.82841e-11
9.64266e-09
4.88678e-11
9.62617e-09
4.95047e-11
9.60944e-09
5.02096e-11
9.59246e-09
5.10014e-11
9.57518e-09
5.19045e-11
9.55755e-09
5.29511e-11
9.53952e-09
5.41829e-11
9.52101e-09
5.56553e-11
9.50192e-09
5.74418e-11
9.48211e-09
5.96411e-11
9.46141e-09
6.23868e-11
9.43958e-09
6.58628e-11
9.41631e-09
7.03261e-11
9.39117e-09
7.61434e-11
9.36355e-09
8.38517e-11
9.33262e-09
9.42629e-11
9.29715e-09
1.08657e-10
9.25533e-09
1.2916e-10
9.20433e-09
1.59533e-10
9.13975e-09
2.07011e-10
9.05483e-09
2.8686e-10
8.94289e-09
4.34328e-10
7.32047e-10
8.82751e-09
2.5262e-10
-9.91057e-10
5.06616e-10
-9.96588e-10
7.61635e-10
-1.00083e-09
1.01731e-09
-1.00375e-09
1.27328e-09
-1.0053e-09
1.52915e-09
-1.00546e-09
1.78456e-09
-1.00421e-09
2.03911e-09
-1.00157e-09
2.29244e-09
-9.97516e-10
2.54417e-09
-9.9208e-10
2.79394e-09
-9.85283e-10
3.04141e-09
-9.77158e-10
3.28624e-09
-9.67748e-10
3.52811e-09
-9.57103e-10
3.76672e-09
-9.45281e-10
4.00179e-09
-9.32343e-10
4.23305e-09
-9.1836e-10
4.46027e-09
-9.03405e-10
4.68323e-09
-8.87553e-10
4.90173e-09
-8.70884e-10
5.11561e-09
-8.53479e-10
5.3247e-09
-8.35417e-10
5.52888e-09
-8.16781e-10
5.72805e-09
-7.9765e-10
5.92211e-09
-7.78103e-10
6.111e-09
-7.58215e-10
6.29468e-09
-7.3806e-10
6.4731e-09
-7.17707e-10
6.64625e-09
-6.97225e-10
6.81414e-09
-6.76675e-10
6.97678e-09
-6.56116e-10
7.1342e-09
-6.35604e-10
7.28644e-09
-6.15189e-10
7.43354e-09
-5.94917e-10
7.57558e-09
-5.74831e-10
7.71261e-09
-5.5497e-10
7.84472e-09
-5.35367e-10
7.97198e-09
-5.16053e-10
8.09449e-09
-4.97056e-10
8.21234e-09
-4.78399e-10
8.32562e-09
-4.60102e-10
8.43445e-09
-4.42182e-10
8.53892e-09
-4.24655e-10
8.63913e-09
-4.07532e-10
8.7352e-09
-3.90821e-10
8.82724e-09
-3.74532e-10
8.91535e-09
-3.58667e-10
8.99965e-09
-3.43232e-10
9.08024e-09
-3.28227e-10
9.15723e-09
-3.13652e-10
9.23073e-09
-2.99506e-10
9.30085e-09
-2.85787e-10
9.36769e-09
-2.7249e-10
9.43137e-09
-2.59612e-10
9.49197e-09
-2.47147e-10
9.54961e-09
-2.35089e-10
9.60438e-09
-2.23432e-10
9.65638e-09
-2.12167e-10
9.7057e-09
-2.01289e-10
9.75244e-09
-1.90787e-10
9.7967e-09
-1.80655e-10
9.83855e-09
-1.70883e-10
9.87809e-09
-1.61463e-10
9.91539e-09
-1.52387e-10
9.95055e-09
-1.43645e-10
9.98364e-09
-1.35227e-10
1.00147e-08
-1.27126e-10
1.00439e-08
-1.19332e-10
1.00713e-08
-1.11836e-10
1.00968e-08
-1.0463e-10
1.01207e-08
-9.7704e-11
1.0143e-08
-9.10497e-11
1.01636e-08
-8.46587e-11
1.01828e-08
-7.85223e-11
1.02005e-08
-7.26323e-11
1.02168e-08
-6.69803e-11
1.02318e-08
-6.15586e-11
1.02455e-08
-5.63589e-11
1.0258e-08
-5.13737e-11
1.02693e-08
-4.65953e-11
1.02795e-08
-4.20166e-11
1.02886e-08
-3.763e-11
1.02967e-08
-3.34286e-11
1.03038e-08
-2.94057e-11
1.03099e-08
-2.5554e-11
1.03151e-08
-2.18678e-11
1.03195e-08
-1.834e-11
1.0323e-08
-1.49649e-11
1.03258e-08
-1.1736e-11
1.03277e-08
-8.64782e-12
1.0329e-08
-5.69454e-12
1.03295e-08
-2.87065e-12
1.03294e-08
-1.70698e-13
1.03287e-08
2.41052e-12
1.03273e-08
4.87783e-12
1.03254e-08
7.23641e-12
1.03229e-08
9.491e-12
1.03199e-08
1.16461e-11
1.03163e-08
1.3706e-11
1.03123e-08
1.56753e-11
1.03078e-08
1.7558e-11
1.03029e-08
1.93581e-11
1.02976e-08
2.10797e-11
1.02918e-08
2.27262e-11
1.02857e-08
2.43015e-11
1.02791e-08
2.5809e-11
1.02723e-08
2.72521e-11
1.0265e-08
2.86339e-11
1.02575e-08
2.99577e-11
1.02496e-08
3.12264e-11
1.02415e-08
3.24429e-11
1.0233e-08
3.36101e-11
1.02243e-08
3.47306e-11
1.02153e-08
3.58067e-11
1.02061e-08
3.68413e-11
1.01966e-08
3.78366e-11
1.01869e-08
3.87946e-11
1.01769e-08
3.97178e-11
1.01667e-08
4.06082e-11
1.01563e-08
4.14677e-11
1.01457e-08
4.22981e-11
1.0135e-08
4.31016e-11
1.0124e-08
4.38794e-11
1.01128e-08
4.46337e-11
1.01014e-08
4.53657e-11
1.00899e-08
4.60769e-11
1.00782e-08
4.67692e-11
1.00663e-08
4.74434e-11
1.00543e-08
4.81012e-11
1.00421e-08
4.87436e-11
1.00297e-08
4.93719e-11
1.00172e-08
4.99872e-11
1.00046e-08
5.05908e-11
9.99177e-09
5.11835e-11
9.97882e-09
5.17663e-11
9.96573e-09
5.23404e-11
9.9525e-09