/*--------------------------------*- C++ -*----------------------------------*\
  =========                 |
  \\      /  F ield         | OpenFOAM: The Open Source CFD Toolbox
   \\    /   O peration     | Website:  https://openfoam.org
    \\  /    A nd           | Version:  10
     \\/     M anipulation  |
\*---------------------------------------------------------------------------*/
FoamFile
{
    format      ascii;
    class       volVectorField;
    location    "0.1";
    object      Ua;
}
// * * * * * * * * * * * * * * * * * * * * * * * * * * * * * * * * * * * * * //

dimensions      [0 1 -1 0 0 0 0];

internalField   nonuniform List<vector> 
12225
(
(0.00828569 -0.00166904 0)
(0.0223444 -0.00121129 0)
(0.0304515 -0.000510116 0)
(0.0332281 -0.000100738 0)
(0.0332488 0.000100025 0)
(0.0321071 0.000177783 0)
(0.0306598 0.000187171 0)
(0.0293224 0.000163425 0)
(0.0282603 0.000126235 0)
(0.0275172 8.45692e-05 0)
(0.0270914 4.0857e-05 0)
(0.0269771 -6.5099e-06 0)
(0.0271883 -6.26054e-05 0)
(0.0277817 -0.000137875 0)
(0.0289013 -0.00025553 0)
(0.0309073 -0.0004787 0)
(0.0348828 -0.00103899 0)
(0.0454965 -0.00319377 0)
(0.00838316 -0.00514795 0)
(0.0225974 -0.00373385 0)
(0.0307016 -0.00155269 0)
(0.033371 -0.000298158 0)
(0.0333166 0.000314577 0)
(0.0321291 0.000550621 0)
(0.0306558 0.000577402 0)
(0.0293054 0.000503175 0)
(0.0282375 0.00038829 0)
(0.0274914 0.000260133 0)
(0.0270628 0.000126064 0)
(0.0269432 -1.87997e-05 0)
(0.0271434 -0.000189691 0)
(0.027713 -0.000417497 0)
(0.0287747 -0.000769062 0)
(0.0306033 -0.00141641 0)
(0.0337819 -0.00291753 0)
(0.0387225 -0.00764636 0)
(0.00860139 -0.00894809 0)
(0.0231674 -0.00648271 0)
(0.0312626 -0.00262003 0)
(0.0336865 -0.000471524 0)
(0.0334653 0.00056921 0)
(0.0321765 0.000965411 0)
(0.0306459 0.00100388 0)
(0.0292671 0.000871212 0)
(0.0281865 0.000670887 0)
(0.0274343 0.000449458 0)
(0.0269996 0.000219232 0)
(0.0268688 -2.803e-05 0)
(0.0270456 -0.000317331 0)
(0.0275655 -0.000697833 0)
(0.0285127 -0.00127057 0)
(0.0300362 -0.00227162 0)
(0.0322583 -0.00433163 0)
(0.0342818 -0.00924315 0)
(0.00896737 -0.0131495 0)
(0.0241404 -0.00952332 0)
(0.0322155 -0.00365792 0)
(0.0342061 -0.000582174 0)
(0.0337076 0.000890214 0)
(0.0322513 0.00143956 0)
(0.0306266 0.0014769 0)
(0.0292015 0.00127309 0)
(0.0281009 0.000976977 0)
(0.0273392 0.000654481 0)
(0.0268951 0.000322492 0)
(0.0267469 -3.06084e-05 0)
(0.0268879 -0.000438434 0)
(0.0273338 -0.000963952 0)
(0.0281222 -0.00172728 0)
(0.0292819 -0.00297594 0)
(0.030656 -0.00523952 0)
(0.031198 -0.00950274 0)
(0.00445472 -0.00925474 0)
(0.0205392 -0.0142206 0)
(0.033631 -0.00458255 0)
(0.0349601 -0.000576197 0)
(0.0340536 0.00131312 0)
(0.0323526 0.00199626 0)
(0.0305911 0.00200959 0)
(0.0291003 0.0017155 0)
(0.0279723 0.00130985 0)
(0.0271984 0.000877274 0)
(0.0267423 0.000438261 0)
(0.0265709 -2.22906e-05 0)
(0.0266648 -0.000544841 0)
(0.0270175 -0.00120024 0)
(0.0276215 -0.00211131 0)
(0.0284173 -0.00349605 0)
(0.0291337 -0.00571769 0)
(0.0289405 -0.00917077 0)
(0.000417563 -0.00226907 0)
(0.00481634 -0.00987784 0)
(0.0226133 -0.00924822 0)
(0.0359601 -0.000385289 0)
(0.0345086 0.00188463 0)
(0.0324745 0.00266583 0)
(0.0305282 0.00261825 0)
(0.0289517 0.00220609 0)
(0.0277901 0.00167283 0)
(0.0270029 0.00111975 0)
(0.0265335 0.000568966 0)
(0.0263351 1.43565e-06 0)
(0.0263736 -0.000628178 0)
(0.0266212 -0.00139252 0)
(0.0270347 -0.00240362 0)
(0.0275049 -0.00382842 0)
(0.0277519 -0.00587223 0)
(0.0272113 -0.00859907 0)
(0.000177707 -0.0012068 0)
(0.000650662 -0.00188089 0)
(0.00958106 -0.00864753 0)
(0.0272686 -0.00335447 0)
(0.0350686 0.00266422 0)
(0.0326032 0.00348726 0)
(0.0304195 0.00332227 0)
(0.0287389 0.00275287 0)
(0.027541 0.00206861 0)
(0.0267423 0.00138314 0)
(0.026261 0.000716562 0)
(0.0260341 4.47394e-05 0)
(0.0260135 -0.000680927 0)
(0.0261532 -0.00152993 0)
(0.0263871 -0.00259532 0)
(0.0265891 -0.00398937 0)
(0.0265219 -0.00580031 0)
(0.0258355 -0.00794682 0)
(0.000129329 -0.000928625 0)
(0.00039734 -0.00115605 0)
(0.0010426 -0.00258749 0)
(0.0188924 -0.0117256 0)
(0.035183 0.00351978 0)
(0.0327127 0.00451029 0)
(0.030236 0.00414323 0)
(0.0284385 0.00336289 0)
(0.0272077 0.00249809 0)
(0.0264046 0.00166706 0)
(0.0259167 0.000881787 0)
(0.025664 0.000110623 0)
(0.0255858 -0.00069756 0)
(0.0256237 -0.00160619 0)
(0.0257009 -0.0026869 0)
(0.0256971 -0.00400544 0)
(0.0254328 -0.00557808 0)
(0.0247049 -0.00728275 0)
(0.000107666 -0.000765642 0)
(0.000330172 -0.000899831 0)
(0.000738385 -0.00118793 0)
(0.00601408 -0.00983826 0)
(0.0227773 -0.000891729 0)
(0.0328219 0.00582584 0)
(0.0299323 0.00510231 0)
(0.0280178 0.00403968 0)
(0.0267687 0.00295828 0)
(0.0259762 0.00196819 0)
(0.0254927 0.00106313 0)
(0.0252219 0.000199942 0)
(0.0250938 -0.000675578 0)
(0.0250435 -0.00162021 0)
(0.0249941 -0.00268632 0)
(0.0248433 -0.00390631 0)
(0.0244652 -0.00526065 0)
(0.0237494 -0.00663488 0)
(9.50232e-05 -0.000643249 0)
(0.000291443 -0.00074301 0)
(0.000553613 -0.000903653 0)
(0.00110427 -0.00195572 0)
(0.0168337 -0.01071 0)
(0.0314126 0.00692324 0)
(0.0294257 0.00620754 0)
(0.0274323 0.00477857 0)
(0.0261973 0.00343894 0)
(0.0254425 0.00227821 0)
(0.0249817 0.00125553 0)
(0.0247064 0.00031036 0)
(0.0245417 -0.000616312 0)
(0.0244227 -0.001576 0)
(0.0242797 -0.00260661 0)
(0.0240325 -0.00372056 0)
(0.0235985 -0.00488632 0)
(0.0229216 -0.00601374 0)
(8.64213e-05 -0.000539508 0)
(0.000265232 -0.000623327 0)
(0.000483094 -0.000733816 0)
(0.000932263 -0.00105132 0)
(0.00748109 -0.00957502 0)
(0.0220488 0.00318593 0)
(0.0288809 0.0075734 0)
(0.0266266 0.0055609 0)
(0.0254625 0.00391713 0)
(0.024789 0.00258131 0)
(0.0243783 0.00144893 0)
(0.0241177 0.000435392 0)
(0.0239349 -0.00052539 0)
(0.0237704 -0.00148212 0)
(0.0235664 -0.00246385 0)
(0.0232644 -0.00347371 0)
(0.0228135 -0.00448146 0)
(0.0221885 -0.00542296 0)
(7.87158e-05 -0.000452264 0)
(0.000241927 -0.000527644 0)
(0.000431532 -0.000614743 0)
(0.000712764 -0.000806683 0)
(0.00146897 -0.00241461 0)
(0.0158324 -0.00550852 0)
(0.0278967 0.00914699 0)
(0.0255606 0.00625728 0)
(0.0246078 0.00432047 0)
(0.02407 0.00283435 0)
(0.023738 0.00161518 0)
(0.0235136 0.000554069 0)
(0.0233342 -0.000422707 0)
(0.0231506 -0.00136336 0)
(0.0229181 -0.00229288 0)
(0.0225959 -0.0032121 0)
(0.0221536 -0.00409717 0)
(0.0215814 -0.00490465 0)
(7.45068e-05 -0.000371326 0)
(0.0002287 -0.00044025 0)
(0.000403911 -0.000511721 0)
(0.000645739 -0.000643697 0)
(0.00126836 -0.00112226 0)
(0.0125904 -0.0119996 0)
(0.023917 0.00967384 0)
(0.0241065 0.00672645 0)
(0.0236028 0.00461919 0)
(0.0232577 0.00302492 0)
(0.0230335 0.00174678 0)
(0.0228656 0.000660727 0)
(0.0227076 -0.000313713 0)
(0.0225237 -0.00122561 0)
(0.0222832 -0.00209895 0)
(0.0219608 -0.00293591 0)
(0.0215408 -0.00372031 0)
(0.021023 -0.00442428 0)
(6.97983e-05 -0.000283057 0)
(0.000213671 -0.000343781 0)
(0.000375147 -0.00039937 0)
(0.00059384 -0.000490134 0)
(0.00111351 -0.000735618 0)
(0.00678088 -0.00857563 0)
(0.0173588 0.00599566 0)
(0.022521 0.00699592 0)
(0.0223189 0.00479799 0)
(0.0222188 0.00313678 0)
(0.0221516 0.00183373 0)
(0.0220744 0.000751587 0)
(0.0219631 -0.00019653 0)
(0.0218007 -0.00106079 0)
(0.021573 -0.00186535 0)
(0.0212698 -0.00261524 0)
(0.0208874 -0.0033021 0)
(0.0204316 -0.00391067 0)
(6.35294e-05 -0.000189342 0)
(0.000193979 -0.000237655 0)
(0.000339966 -0.000276238 0)
(0.000531258 -0.000335126 0)
(0.000867013 -0.000485062 0)
(0.00241806 -0.00204111 0)
(0.0121324 -0.000964724 0)
(0.0205396 0.00707636 0)
(0.0206953 0.00472366 0)
(0.0209332 0.00306656 0)
(0.0210864 0.00180993 0)
(0.0211403 0.000786146 0)
(0.0211045 -9.63531e-05 0)
(0.0209877 -0.000886073 0)
(0.0207949 -0.00160598 0)
(0.0205298 -0.00226312 0)
(0.0201984 -0.00285508 0)
(0.0198105 -0.00337532 0)
(5.24061e-05 -9.34711e-05 0)
(0.000161479 -0.000121659 0)
(0.000288927 -0.000141196 0)
(0.000460969 -0.000169689 0)
(0.000749489 -0.00023147 0)
(0.00178284 -0.000499561 0)
(0.00953895 -0.00420827 0)
(0.0172864 0.00617325 0)
(0.0186366 0.00403145 0)
(0.0194434 0.00262944 0)
(0.019891 0.00157491 0)
(0.0201062 0.000705604 0)
(0.0201651 -5.1025e-05 0)
(0.0201108 -0.000729097 0)
(0.0199687 -0.00134378 0)
(0.0197553 -0.00190006 0)
(0.0194837 -0.00239759 0)
(0.0191665 -0.00283416 0)
(2.6095e-05 -9.78501e-07 0)
(9.05742e-05 7.69138e-07 0)
(0.000189718 1.85763e-06 0)
(0.000344523 3.46796e-06 0)
(0.000607932 9.41935e-06 0)
(0.00137718 3.18913e-05 0)
(0.0069554 0.000505003 0)
(0.0139161 0.00278293 0)
(0.0167872 0.00226009 0)
(0.0181179 0.00166666 0)
(0.0187832 0.00106234 0)
(0.0191074 0.000473865 0)
(0.0192331 -8.66506e-05 0)
(0.01923 -0.000613051 0)
(0.0191363 -0.00110123 0)
(0.0189752 -0.00154775 0)
(0.0187633 -0.00194969 0)
(0.0185135 -0.002305 0)
(6.41094e-05 0.000106992 0)
(0.000195543 0.000147567 0)
(0.000342993 0.000178111 0)
(0.000534597 0.000221368 0)
(0.000854116 0.000329295 0)
(0.00213756 0.00101113 0)
(0.00983703 0.00441436 0)
(0.0167649 -0.000198099 0)
(0.0173615 0.000574899 0)
(0.0178607 0.000689245 0)
(0.0181917 0.000511779 0)
(0.018377 0.000206305 0)
(0.01845 -0.000149872 0)
(0.0184379 -0.000517693 0)
(0.0183608 -0.000876183 0)
(0.0182337 -0.00121352 0)
(0.0180685 -0.00152293 0)
(0.0178748 -0.00180077 0)
(9.48647e-05 0.000294461 0)
(0.000291824 0.000376095 0)
(0.000520129 0.000454508 0)
(0.000859632 0.000590965 0)
(0.00189375 0.00116415 0)
(0.0102481 0.00524214 0)
(0.0185283 0.0025803 0)
(0.0188595 0.00012777 0)
(0.0182757 0.000430049 0)
(0.0180426 0.000470682 0)
(0.0179489 0.000351796 0)
(0.0178971 0.00014516 0)
(0.0178447 -0.000103974 0)
(0.0177745 -0.00036795 0)
(0.0176811 -0.000630003 0)
(0.0175648 -0.000880045 0)
(0.0174282 -0.00111217 0)
(0.017275 -0.00132316 0)
(0.000117611 0.00059101 0)
(0.000372084 0.000719955 0)
(0.000737064 0.000903487 0)
(0.00195141 0.00172526 0)
(0.00947946 0.00599125 0)
(0.0178899 0.00630525 0)
(0.0192668 0.00190888 0)
(0.0184716 0.00135871 0)
(0.0179944 0.00102375 0)
(0.0177217 0.000758301 0)
(0.0175616 0.000512353 0)
(0.0174553 0.000272397 0)
(0.0173685 3.78453e-05 0)
(0.0172829 -0.000188204 0)
(0.0171897 -0.00040233 0)
(0.0170854 -0.000601848 0)
(0.0169695 -0.000785018 0)
(0.016843 -0.000950966 0)
(0.000194334 0.00121493 0)
(0.000682335 0.00168103 0)
(0.00373338 0.00399003 0)
(0.0107018 0.00614771 0)
(0.0167062 0.0082437 0)
(0.0183099 0.00411569 0)
(0.0179375 0.00279167 0)
(0.0176188 0.00195477 0)
(0.0173923 0.00139534 0)
(0.0172428 0.000988757 0)
(0.0171423 0.00066758 0)
(0.0170667 0.00039718 0)
(0.016999 0.000160284 0)
(0.0169291 -5.15978e-05 0)
(0.0168516 -0.000242667 0)
(0.0167643 -0.00041512 0)
(0.0166669 -0.000570282 0)
(0.0165604 -0.000709151 0)
(0.00358742 0.00651568 0)
(0.00952829 0.00860782 0)
(0.012853 0.00862682 0)
(0.0148261 0.00876584 0)
(0.016141 0.00600706 0)
(0.0165714 0.00421468 0)
(0.0167228 0.00297259 0)
(0.0167614 0.00211703 0)
(0.0167626 0.00151508 0)
(0.0167535 0.00107415 0)
(0.0167396 0.000735189 0)
(0.0167189 0.000462398 0)
(0.0166883 0.000234548 0)
(0.0166457 3.91291e-05 0)
(0.0165902 -0.000131309 0)
(0.0165222 -0.000281342 0)
(0.0164427 -0.000413933 0)
(0.0163532 -0.000531152 0)
(0.00183118 0.0108248 0)
(0.00659074 0.0126501 0)
(0.0108745 0.00942302 0)
(0.0130979 0.00716902 0)
(0.0144811 0.00528558 0)
(0.0152958 0.00384144 0)
(0.0157711 0.00278037 0)
(0.0160534 0.00201281 0)
(0.0162264 0.00145426 0)
(0.0163343 0.00103888 0)
(0.0163994 0.00072029 0)
(0.0164325 0.000467608 0)
(0.0164398 0.000260907 0)
(0.0164251 8.74843e-05 0)
(0.0163914 -6.07682e-05 0)
(0.0163412 -0.00018911 0)
(0.0162773 -0.000301058 0)
(0.0162018 -0.00039907 0)
(0.00187642 0.00913985 0)
(0.00589337 0.00916655 0)
(0.0094387 0.00746293 0)
(0.0117921 0.00582779 0)
(0.0133662 0.00441144 0)
(0.0143995 0.00327912 0)
(0.0150741 0.00241522 0)
(0.0155173 0.00177034 0)
(0.0158115 0.00129022 0)
(0.0160069 0.000928505 0)
(0.016134 0.000650166 0)
(0.0162114 0.000430397 0)
(0.0162506 0.000252311 0)
(0.0162596 0.000104631 0)
(0.0162442 -2.01379e-05 0)
(0.0162089 -0.00012701 0)
(0.0161574 -0.000219408 0)
(0.0160929 -0.000299743 0)
(0.00182149 0.00702798 0)
(0.00545238 0.00680567 0)
(0.00862337 0.00574873 0)
(0.0109643 0.00458613 0)
(0.012629 0.00353388 0)
(0.0137872 0.00266624 0)
(0.0145848 0.00198713 0)
(0.0151327 0.00146949 0)
(0.0155091 0.00107804 0)
(0.0157663 0.000780276 0)
(0.0159388 0.000550247 0)
(0.0160492 0.000368801 0)
(0.0161128 0.000222423 0)
(0.01614 0.000101806 0)
(0.0161388 6.09886e-07 0)
(0.0161148 -8.54963e-05 0)
(0.0160728 -0.00015951 0)
(0.0160164 -0.000223556 0)
(0.00175665 0.00524864 0)
(0.00516569 0.00500915 0)
(0.00813598 0.00430324 0)
(0.010443 0.00348162 0)
(0.0121505 0.00271457 0)
(0.0133806 0.00206826 0)
(0.0142537 0.0015536 0)
(0.0148686 0.00115583 0)
(0.0152993 0.00085189 0)
(0.0155984 0.000619114 0)
(0.0158023 0.000438709 0)
(0.015936 0.000296385 0)
(0.0160169 0.000181815 0)
(0.0160573 8.77442e-05 0)
(0.0160662 9.14733e-06 0)
(0.0160503 -5.74536e-05 0)
(0.016015 -0.000114488 0)
(0.0159643 -0.000163687 0)
(0.00170744 0.00374941 0)
(0.00498522 0.0035552 0)
(0.0078426 0.00308026 0)
(0.0101211 0.00251391 0)
(0.011849 0.00197481 0)
(0.0131205 0.00151409 0)
(0.0140394 0.00114307 0)
(0.014696 0.00085376 0)
(0.0151612 0.000631194 0)
(0.0154874 0.000459974 0)
(0.0157119 0.000326968 0)
(0.015861 0.000221997 0)
(0.0159535 0.000137585 0)
(0.0160027 6.84165e-05 0)
(0.0160185 1.07678e-05 0)
(0.0160081 -3.79589e-05 0)
(0.0159773 -7.95897e-05 0)
(0.0159304 -0.00011543 0)
(0.00167569 0.00247518 0)
(0.00487773 0.0023399 0)
(0.007672 0.00203633 0)
(0.00993138 0.00167042 0)
(0.0116692 0.00131814 0)
(0.0129639 0.00101444 0)
(0.0139093 0.000768211 0)
(0.0145906 0.000575155 0)
(0.0150766 0.000426028 0)
(0.0154192 0.000310987 0)
(0.0156562 0.000221488 0)
(0.0158149 0.000150828 0)
(0.0159145 9.40382e-05 0)
(0.0159692 4.75555e-05 0)
(0.0159893 8.8692e-06 0)
(0.0159823 -2.37814e-05 0)
(0.0159542 -5.16386e-05 0)
(0.0159097 -7.55924e-05 0)
(0.0016581 0.00138239 0)
(0.00482035 0.00130503 0)
(0.00758206 0.00113825 0)
(0.00983069 0.00093625 0)
(0.0115731 0.000740604 0)
(0.0128798 0.000571145 0)
(0.0138392 0.000433234 0)
(0.0145336 0.000324786 0)
(0.0150306 0.000240827 0)
(0.0153821 0.000175959 0)
(0.0156259 0.000125452 0)
(0.0157898 8.55669e-05 0)
(0.0158934 5.35193e-05 0)
(0.0159511 2.73035e-05 0)
(0.0159734 5.50099e-06 0)
(0.0159683 -1.28855e-05 0)
(0.0159417 -2.8561e-05 0)
(0.0158985 -4.20314e-05 0)
(0.00165089 0.000438337 0)
(0.00479722 0.000413586 0)
(0.007546 0.000361056 0)
(0.0097902 0.00029732 0)
(0.0115343 0.000235433 0)
(0.0128458 0.000181721 0)
(0.0138107 0.000137939 0)
(0.0145104 0.000103468 0)
(0.015012 7.67549e-05 0)
(0.015367 5.61028e-05 0)
(0.0156136 4.00169e-05 0)
(0.0157796 2.73129e-05 0)
(0.0158848 1.71062e-05 0)
(0.0159437 8.75875e-06 0)
(0.015967 1.81877e-06 0)
(0.0159626 -4.03191e-06 0)
(0.0159367 -9.0184e-06 0)
(0.0158939 -1.33023e-05 0)
(0.000108192 -0.000231256 -2.98763e-30)
(0.00032543 -0.000230875 2.98014e-30)
(0.000543953 -0.000230207 0)
(0.000763495 -0.000229251 0)
(0.000983779 -0.000228005 0)
(0.00120452 -0.000226469 -2.91283e-30)
(0.00142544 -0.000224648 0)
(0.00164623 -0.000222545 0)
(0.00186661 -0.000220166 0)
(0.00208628 -0.000217521 0)
(0.00230496 -0.00021462 2.74669e-30)
(0.00252235 -0.000211473 0)
(0.00273818 -0.000208095 0)
(0.00295216 -0.000204498 0)
(0.00316405 -0.0002007 0)
(0.00337359 -0.000196716 2.50267e-30)
(0.00358053 -0.000192564 0)
(0.00378465 -0.000188261 0)
(0.00398573 -0.000183825 0)
(0.00418358 -0.000179275 0)
(0.00437802 -0.000174628 0)
(0.00456887 -0.000169904 0)
(0.00475599 -0.000165119 0)
(0.00493926 -0.00016029 2.01339e-30)
(0.00511854 -0.000155434 -1.94852e-30)
(0.00529374 -0.000150568 1.88355e-30)
(0.00546478 -0.000145705 1.81868e-30)
(0.00563159 -0.00014086 0)
(0.00579412 -0.000136046 0)
(0.00595233 -0.000131275 -1.62642e-30)
(0.00610619 -0.000126558 -1.56364e-30)
(0.00625569 -0.000121905 0)
(0.00640084 -0.000117326 0)
(0.00654164 -0.000112827 -1.38104e-30)
(0.00667813 -0.000108417 0)
(0.00681032 -0.000104101 0)
(0.00693826 -9.98853e-05 1.20908e-30)
(0.00706201 -9.57731e-05 0)
(0.00718162 -9.17684e-05 1.1013e-30)
(0.00729714 -8.78741e-05 2.09921e-30)
(0.00740866 -8.40922e-05 0)
(0.00751623 -8.04243e-05 0)
(0.00761995 -7.68712e-05 0)
(0.00771989 -7.34333e-05 0)
(0.00781613 -7.01105e-05 0)
(0.00790877 -6.69023e-05 1.54266e-30)
(0.00799788 -6.38076e-05 1.46057e-30)
(0.00808357 -6.08254e-05 1.38145e-30)
(0.00816592 -5.79539e-05 0)
(0.00824502 -5.51913e-05 -1.232e-30)
(0.00832097 -5.25358e-05 0)
(0.00839386 -4.99849e-05 1.09391e-30)
(0.00846378 -4.75364e-05 1.02896e-30)
(0.00853082 -4.51877e-05 0)
(0.00859507 -4.29363e-05 0)
(0.00865662 -4.07795e-05 0)
(0.00871557 -3.87145e-05 7.94981e-31)
(0.00877199 -3.67387e-05 0)
(0.00882597 -3.48491e-05 0)
(0.0088776 -3.3043e-05 0)
(0.00892696 -3.13176e-05 0)
(0.00897413 -2.96702e-05 0)
(0.00901919 -2.80979e-05 0)
(0.00906221 -2.65982e-05 0)
(0.00910328 -2.51682e-05 0)
(0.00914246 -2.38055e-05 -3.9951e-31)
(0.00917983 -2.25074e-05 0)
(0.00921545 -2.12713e-05 0)
(0.0092494 -2.0095e-05 3.01073e-31)
(0.00928174 -1.89759e-05 2.71377e-31)
(0.00931253 -1.79117e-05 0)
(0.00934184 -1.69002e-05 -2.16307e-31)
(0.00936972 -1.59392e-05 1.90805e-31)
(0.00939624 -1.50265e-05 0)
(0.00942145 -1.416e-05 -1.43594e-31)
(0.0094454 -1.33379e-05 0)
(0.00946815 -1.25581e-05 0)
(0.00948975 -1.18188e-05 8.14633e-32)
(0.00951025 -1.11181e-05 0)
(0.0095297 -1.04544e-05 -4.52511e-32)
(0.00954814 -9.82594e-06 0)
(0.00956561 -9.23111e-06 1.27795e-32)
(0.00958217 -8.66838e-06 -2.15617e-33)
(0.00959784 -8.13623e-06 -1.62818e-32)
(0.00961268 -7.63324e-06 -5.92657e-32)
(0.00962672 -7.158e-06 8.45018e-32)
(0.00964 -6.7092e-06 0)
(0.00965254 -6.28556e-06 0)
(0.0096644 -5.88585e-06 0)
(0.00967559 -5.50889e-06 1.72063e-31)
(0.00968616 -5.15355e-06 1.90934e-31)
(0.00969612 -4.81876e-06 -2.08712e-31)
(0.00970552 -4.50347e-06 0)
(0.00971438 -4.2067e-06 2.41216e-31)
(0.00972273 -3.92748e-06 2.56049e-31)
(0.00973058 -3.66492e-06 2.69994e-31)
(0.00973798 -3.41814e-06 0)
(0.00974493 -3.18632e-06 0)
(0.00975147 -2.96865e-06 0)
(0.00975761 -2.76438e-06 3.17827e-31)
(0.00976338 -2.57278e-06 0)
(0.0097688 -2.39316e-06 0)
(0.00977388 -2.22486e-06 -3.46483e-31)
(0.00977864 -2.06725e-06 0)
(0.0097831 -1.91974e-06 0)
(0.00978728 -1.78175e-06 -3.70027e-31)
(0.00979119 -1.65274e-06 0)
(0.00979485 -1.53219e-06 0)
(0.00979828 -1.41961e-06 3.89268e-31)
(0.00980147 -1.31454e-06 3.94851e-31)
(0.00980446 -1.21653e-06 0)
(0.00980725 -1.12515e-06 -4.04917e-31)
(0.00980985 -1.04002e-06 0)
(0.00981227 -9.60745e-07 4.13652e-31)
(0.00981453 -8.86971e-07 0)
(0.00981664 -8.18358e-07 4.21221e-31)
(0.00981859 -7.54582e-07 4.24606e-31)
(0.00982041 -6.9534e-07 0)
(0.0098221 -6.40343e-07 0)
(0.00982368 -5.89318e-07 0)
(0.00982514 -5.42008e-07 0)
(0.00982649 -4.98169e-07 0)
(0.00982774 -4.57573e-07 0)
(0.00982891 -4.20002e-07 0)
(0.00982998 -3.85254e-07 4.44243e-31)
(0.00983098 -3.53136e-07 -4.45946e-31)
(0.0098319 -3.23466e-07 0)
(0.00983275 -2.96075e-07 0)
(0.00983353 -2.70802e-07 0)
(0.00983426 -2.47495e-07 0)
(0.00983493 -2.26014e-07 -9.0541e-31)
(0.00983554 -2.06224e-07 0)
(0.00983611 -1.87998e-07 9.09454e-31)
(0.00983663 -1.71219e-07 -9.11239e-31)
(0.00983711 -1.55772e-07 0)
(0.00983755 -1.41553e-07 0)
(0.00983795 -1.28459e-07 0)
(0.00983832 -1.16394e-07 9.17071e-31)
(0.00983865 -1.05266e-07 9.18253e-31)
(0.00983896 -9.49846e-08 0)
(0.00983924 -8.54621e-08 9.20352e-31)
(0.00983949 -7.66124e-08 9.21287e-31)
(0.00983972 -6.83488e-08 -9.22169e-31)
(0.00983992 -6.05825e-08 0)
(0.00984011 -5.32219e-08 0)
(0.00984027 -4.61692e-08 -9.24513e-31)
(0.00984041 -3.93185e-08 0)
(0.00984052 -3.25523e-08 0)
(0.00984062 -2.57369e-08 0)
(0.0098407 -1.87182e-08 0)
(0.00984075 -1.13146e-08 9.28161e-31)
(0.00984077 -3.30864e-09 9.28992e-31)
(0.00984077 5.56311e-09 0)
(0.00984073 1.56234e-08 9.30946e-31)
(0.00984065 2.72716e-08 0)
(0.00984053 4.10058e-08 0)
(0.00984036 5.74511e-08 9.35236e-31)
(0.00984011 7.73967e-08 0)
(0.00983979 1.01844e-07 9.39774e-31)
(0.00983935 1.32072e-07 0)
(0.00983879 1.69718e-07 0)
(0.00983807 2.16893e-07 9.51505e-31)
(0.00983713 2.76331e-07 0)
(0.00983593 3.51597e-07 9.6523e-31)
(0.00983438 4.47371e-07 0)
(0.0098324 5.69843e-07 0)
(0.00982984 7.27292e-07 0)
(0.00982654 9.30914e-07 -1.02424e-30)
(0.00982227 1.19608e-06 0)
(0.00981671 1.54427e-06 1.08674e-30)
(0.00980944 2.00624e-06 0)
(0.00979986 2.62724e-06 0)
(0.00978712 3.47643e-06 0)
(0.00976996 4.66462e-06 0)
(0.00974645 6.38089e-06 0)
(0.00971344 8.97622e-06 0)
(0.00966535 1.31838e-05 0)
(0.00959081 2.08223e-05 -6.11741e-30)
(0.0094612 3.77223e-05 0)
(0.00917394 9.07138e-05 0)
(0.00010879 -0.000695046 8.97938e-30)
(0.000327223 -0.000693892 -8.95673e-30)
(0.000546939 -0.000691873 0)
(0.000767661 -0.00068898 1.77734e-29)
(0.000989107 -0.000685208 0)
(0.00121099 -0.000680563 -8.78177e-30)
(0.001433 -0.000675052 -1.7382e-29)
(0.00165486 -0.00066869 -1.72071e-29)
(0.00187625 -0.000661498 0)
(0.00209689 -0.0006535 -1.67935e-29)
(0.00231646 -0.000644729 8.30557e-30)
(0.0025347 -0.000635219 0)
(0.00275129 -0.00062501 0)
(0.00296599 -0.000614147 0)
(0.0031785 -0.000602678 0)
(0.00338859 -0.000590651 7.59398e-30)
(0.00359601 -0.00057812 0)
(0.00380054 -0.000565138 1.4429e-29)
(0.00400195 -0.00055176 0)
(0.00420006 -0.000538042 0)
(0.00439468 -0.000524038 -1.33385e-29)
(0.00458566 -0.000509803 0)
(0.00477283 -0.000495391 1.25802e-29)
(0.00495609 -0.000480852 6.15636e-30)
(0.0051353 -0.000466237 -5.96535e-30)
(0.00531039 -0.000451593 5.77402e-30)
(0.00548126 -0.000436965 5.58294e-30)
(0.00564786 -0.000422395 0)
(0.00581013 -0.000407922 0)
(0.00596805 -0.000393583 -5.01648e-30)
(0.00612159 -0.000379409 -1.43499e-29)
(0.00627075 -0.000365432 0)
(0.00641553 -0.000351677 0)
(0.00655594 -0.00033817 -4.29335e-30)
(0.00669201 -0.00032493 0)
(0.00682379 -0.000311977 0)
(0.00695131 -0.000299324 3.78662e-30)
(0.00707462 -0.000286986 0)
(0.00719378 -0.000274973 1.02372e-29)
(0.00730887 -0.000263292 6.63338e-30)
(0.00741994 -0.00025195 0)
(0.00752708 -0.000240952 0)
(0.00763037 -0.000230299 -1.11855e-29)
(0.00772988 -0.000219992 -1.06433e-29)
(0.0078257 -0.000210032 -1.01193e-29)
(0.00791793 -0.000200416 1.46072e-29)
(0.00800664 -0.000191141 4.75185e-30)
(0.00809194 -0.000182204 -4.13671e-30)
(0.00817391 -0.000173599 8.20293e-30)
(0.00825264 -0.000165322 -4.07862e-30)
(0.00832823 -0.000157365 0)
(0.00840077 -0.000149722 3.67189e-30)
(0.00847035 -0.000142387 1.00419e-29)
(0.00853707 -0.000135351 0)
(0.00860101 -0.000128606 0)
(0.00866227 -0.000122145 0)
(0.00872092 -0.00011596 2.79159e-30)
(0.00877707 -0.000110041 0)
(0.00883079 -0.000104381 4.56241e-30)
(0.00888216 -9.89713e-05 0)
(0.00893128 -9.38033e-05 4.00607e-30)
(0.00897822 -8.88689e-05 0)
(0.00902306 -8.41598e-05 -3.49884e-30)
(0.00906587 -7.96678e-05 0)
(0.00910674 -7.5385e-05 3.03729e-30)
(0.00914573 -7.13034e-05 -4.44982e-30)
(0.00918292 -6.74154e-05 0)
(0.00921837 -6.37134e-05 -2.42335e-30)
(0.00925215 -6.01901e-05 1.33744e-30)
(0.00928433 -5.68383e-05 1.25003e-30)
(0.00931498 -5.3651e-05 0)
(0.00934414 -5.06214e-05 -2.82255e-30)
(0.00937189 -4.7743e-05 1.01286e-30)
(0.00939828 -4.50094e-05 0)
(0.00942337 -4.24144e-05 -8.73905e-31)
(0.00944721 -3.99519e-05 -1.1733e-30)
(0.00946985 -3.76163e-05 0)
(0.00949135 -3.54019e-05 6.91035e-31)
(0.00951175 -3.33033e-05 0)
(0.00953111 -3.13154e-05 1.34411e-31)
(0.00954946 -2.9433e-05 0)
(0.00956685 -2.76514e-05 -3.717e-32)
(0.00958333 -2.59658e-05 4.44945e-31)
(0.00959893 -2.43719e-05 7.56877e-31)
(0.0096137 -2.28653e-05 1.2766e-30)
(0.00962768 -2.14419e-05 -1.05252e-30)
(0.00964089 -2.00976e-05 0)
(0.00965338 -1.88286e-05 0)
(0.00966518 -1.76313e-05 0)
(0.00967632 -1.65022e-05 -5.17566e-31)
(0.00968684 -1.54378e-05 -3.40719e-31)
(0.00969676 -1.4435e-05 2.88406e-31)
(0.00970612 -1.34906e-05 0)
(0.00971494 -1.26016e-05 3.39158e-31)
(0.00972325 -1.17653e-05 -1.4913e-31)
(0.00973107 -1.09788e-05 -1.081e-31)
(0.00973843 -1.02396e-05 0)
(0.00974535 -9.54513e-06 0)
(0.00975186 -8.8931e-06 0)
(0.00975797 -8.2812e-06 3.26318e-32)
(0.00976372 -7.70725e-06 0)
(0.00976911 -7.16919e-06 1.10385e-30)
(0.00977417 -6.66505e-06 1.03999e-30)
(0.00977891 -6.19293e-06 -1.20665e-30)
(0.00978335 -5.75104e-06 0)
(0.00978751 -5.33768e-06 -1.48291e-30)
(0.00979141 -4.95121e-06 0)
(0.00979505 -4.5901e-06 -1.37543e-30)
(0.00979846 -4.25286e-06 1.65374e-30)
(0.00980164 -3.93809e-06 1.70332e-30)
(0.00980462 -3.64448e-06 0)
(0.00980739 -3.37075e-06 1.21501e-30)
(0.00980998 -3.11572e-06 -1.53069e-30)
(0.0098124 -2.87823e-06 3.14526e-31)
(0.00981465 -2.65723e-06 0)
(0.00981674 -2.45168e-06 3.36785e-31)
(0.00981869 -2.26063e-06 -1.27401e-30)
(0.0098205 -2.08316e-06 0)
(0.00982219 -1.9184e-06 -1.6568e-30)
(0.00982375 -1.76554e-06 -1.6729e-30)
(0.0098252 -1.62381e-06 -1.68783e-30)
(0.00982655 -1.49248e-06 0)
(0.0098278 -1.37086e-06 0)
(0.00982896 -1.2583e-06 0)
(0.00983003 -1.1542e-06 2.14179e-30)
(0.00983102 -1.05798e-06 -4.09508e-31)
(0.00983194 -9.69098e-07 0)
(0.00983279 -8.87038e-07 1.76544e-30)
(0.00983357 -8.11324e-07 1.77342e-30)
(0.00983429 -7.41502e-07 0)
(0.00983496 -6.77147e-07 -8.58766e-31)
(0.00983557 -6.17858e-07 3.5876e-30)
(0.00983613 -5.63258e-07 8.70655e-31)
(0.00983665 -5.12989e-07 -4.48559e-30)
(0.00983713 -4.66714e-07 0)
(0.00983756 -4.24116e-07 0)
(0.00983796 -3.8489e-07 0)
(0.00983833 -3.48747e-07 8.93048e-31)
(0.00983867 -3.15411e-07 4.54784e-30)
(0.00983897 -2.84612e-07 3.65779e-30)
(0.00983925 -2.56088e-07 9.02711e-31)
(0.0098395 -2.29581e-07 4.57484e-30)
(0.00983973 -2.04831e-07 -9.08058e-31)
(0.00983993 -1.81574e-07 0)
(0.00984011 -1.59533e-07 0)
(0.00984027 -1.38418e-07 -4.6035e-30)
(0.00984041 -1.17912e-07 0)
(0.00984053 -9.76626e-08 0)
(0.00984063 -7.72717e-08 3.7013e-30)
(0.0098407 -5.62782e-08 0)
(0.00984076 -3.41393e-08 4.63606e-30)
(0.00984078 -1.02059e-08 9.28279e-31)
(0.00984078 1.63085e-08 0)
(0.00984074 4.63681e-08 4.66104e-30)
(0.00984067 8.11651e-08 0)
(0.00984055 1.22187e-07 0)
(0.00984038 1.71299e-07 9.47009e-31)
(0.00984014 2.30857e-07 3.76484e-30)
(0.00983982 3.03851e-07 9.60664e-31)
(0.00983939 3.94096e-07 0)
(0.00983884 5.0648e-07 0)
(0.00983812 6.47299e-07 4.8462e-30)
(0.0098372 8.24712e-07 0)
(0.00983602 1.04935e-06 4.96992e-30)
(0.0098345 1.33515e-06 0)
(0.00983254 1.70058e-06 0)
(0.00983002 2.17028e-06 0)
(0.00982678 2.77757e-06 -1.21521e-30)
(0.00982258 3.56814e-06 0)
(0.00981711 4.60579e-06 1.40333e-30)
(0.00980997 5.98163e-06 0)
(0.00980057 7.82947e-06 0)
(0.0097881 1.03531e-05 5.8384e-30)
(0.00977134 1.38773e-05 -6.56086e-30)
(0.00974848 1.89522e-05 0)
(0.00971661 2.65855e-05 0)
(0.0096708 3.88343e-05 0)
(0.00960197 6.05661e-05 1.79654e-29)
(0.00949259 0.000105898 0)
(0.00932003 0.000228018 -1.01347e-28)
(0.000110002 -0.00116271 6.00973e-29)
(0.00033086 -0.00116075 -7.87373e-33)
(0.000552992 -0.00115733 0)
(0.000776106 -0.00115242 1.83853e-32)
(0.000999906 -0.00114602 0)
(0.00122408 -0.00113815 0)
(0.00144833 -0.00112881 -5.81868e-29)
(0.00167233 -0.00111803 -2.88213e-29)
(0.00189577 -0.00110584 2.8451e-29)
(0.00211835 -0.0010923 -2.81353e-29)
(0.00233974 -0.00107746 0)
(0.00255966 -0.00106137 0)
(0.00277781 -0.00104411 -2.67928e-29)
(0.00299391 -0.00102575 -5.2606e-29)
(0.00320769 -0.00100639 5.15743e-29)
(0.00341889 -0.000986089 0)
(0.00362726 -0.000964954 4.93729e-29)
(0.00383258 -0.000943073 2.41969e-29)
(0.00403465 -0.000920541 0)
(0.00423326 -0.000897449 4.57972e-29)
(0.00442824 -0.000873894 -2.23805e-29)
(0.00461944 -0.000849965 -4.32876e-29)
(0.00480671 -0.000825754 2.11182e-29)
(0.00498993 -0.000801347 0)
(0.005169 -0.000776827 3.94287e-29)
(0.00534383 -0.000752274 3.81345e-29)
(0.00551435 -0.000727763 0)
(0.00568051 -0.000703362 3.55582e-29)
(0.00584226 -0.000679138 0)
(0.00599959 -0.00065515 3.30205e-29)
(0.00615247 -0.000631452 -1.60321e-29)
(0.00630092 -0.000608094 0)
(0.00644495 -0.00058512 0)
(0.00658457 -0.000562568 0)
(0.00671982 -0.000540473 0)
(0.00685075 -0.000518863 0)
(0.0069774 -0.000497764 0)
(0.00709983 -0.000477196 2.36646e-29)
(0.00721812 -0.000457175 -1.1136e-29)
(0.00733232 -0.000437716 0)
(0.00744251 -0.000418826 0)
(0.00754877 -0.000400512 0)
(0.00765119 -0.000382779 -3.77719e-29)
(0.00774984 -0.000365626 -1.81705e-29)
(0.00784483 -0.000349053 -3.7046e-31)
(0.00793623 -0.000333055 3.74771e-31)
(0.00802414 -0.000317628 -1.52843e-29)
(0.00810865 -0.000302765 -1.48868e-29)
(0.00818985 -0.000288457 2.78921e-29)
(0.00826785 -0.000274694 1.30301e-29)
(0.00834272 -0.000261466 0)
(0.00841457 -0.000248763 1.16687e-29)
(0.00848348 -0.00023657 2.24578e-29)
(0.00854955 -0.000224876 0)
(0.00861287 -0.000213668 0)
(0.00867353 -0.000202932 -9.26263e-30)
(0.00873161 -0.000192653 0)
(0.00878721 -0.000182819 0)
(0.0088404 -0.000173415 2.35565e-29)
(0.00889127 -0.000164427 1.44823e-29)
(0.00893991 -0.000155841 7.21253e-30)
(0.00898638 -0.000147644 0)
(0.00903078 -0.00013982 -6.37569e-30)
(0.00907318 -0.000132358 0)
(0.00911364 -0.000125243 1.5982e-29)
(0.00915225 -0.000118463 -5.26005e-30)
(0.00918907 -0.000112004 -8.9775e-30)
(0.00922418 -0.000105854 -1.29331e-29)
(0.00925763 -0.000100001 0)
(0.0092895 -9.4433e-05 7.13228e-30)
(0.00931985 -8.91382e-05 0)
(0.00934874 -8.41055e-05 2.5824e-30)
(0.00937622 -7.93238e-05 5.54547e-30)
(0.00940235 -7.47827e-05 5.06853e-30)
(0.0094272 -7.04717e-05 -4.61574e-30)
(0.00945081 -6.63809e-05 1.64679e-30)
(0.00947324 -6.25008e-05 0)
(0.00949454 -5.88221e-05 0)
(0.00951475 -5.53357e-05 -3.02593e-30)
(0.00953392 -5.20331e-05 -8.89327e-31)
(0.0095521 -4.89058e-05 0)
(0.00956933 -4.59459e-05 -1.47164e-30)
(0.00958565 -4.31456e-05 0)
(0.00960111 -4.04975e-05 -2.80263e-31)
(0.00961574 -3.79944e-05 3.31663e-30)
(0.00962959 -3.56294e-05 -2.82102e-30)
(0.00964268 -3.33959e-05 7.21173e-31)
(0.00965505 -3.12876e-05 0)
(0.00966674 -2.92983e-05 -2.90668e-31)
(0.00967778 -2.74223e-05 1.10108e-30)
(0.00968821 -2.56538e-05 0)
(0.00969804 -2.39876e-05 0)
(0.00970731 -2.24183e-05 0)
(0.00971605 -2.09413e-05 -3.30164e-31)
(0.00972428 -1.95516e-05 0)
(0.00973203 -1.82447e-05 0)
(0.00973933 -1.70164e-05 0)
(0.00974619 -1.58625e-05 0)
(0.00975264 -1.47791e-05 0)
(0.0097587 -1.37623e-05 -1.34176e-30)
(0.00976439 -1.28086e-05 0)
(0.00976973 -1.19145e-05 6.13321e-31)
(0.00977475 -1.10767e-05 7.00892e-31)