/*--------------------------------*- C++ -*----------------------------------*\
  =========                 |
  \\      /  F ield         | OpenFOAM: The Open Source CFD Toolbox
   \\    /   O peration     | Website:  https://openfoam.org
    \\  /    A nd           | Version:  10
     \\/     M anipulation  |
\*---------------------------------------------------------------------------*/
FoamFile
{
    format      ascii;
    class       volScalarField;
    location    "2.53";
    object      p;
}
// * * * * * * * * * * * * * * * * * * * * * * * * * * * * * * * * * * * * * //

dimensions      [1 -1 -2 0 0 0 0];

internalField   nonuniform List<scalar> 
12225
(
1.79223e+07
1.78697e+07
1.77758e+07
1.76521e+07
1.75087e+07
1.73531e+07
1.71907e+07
1.70248e+07
1.68576e+07
1.66904e+07
1.65236e+07
1.63573e+07
1.61911e+07
1.60241e+07
1.58544e+07
1.56794e+07
1.54929e+07
1.52802e+07
1.79244e+07
1.78716e+07
1.77774e+07
1.76533e+07
1.75097e+07
1.73539e+07
1.71913e+07
1.70253e+07
1.68581e+07
1.66908e+07
1.65241e+07
1.63579e+07
1.61919e+07
1.60251e+07
1.5856e+07
1.5682e+07
1.54982e+07
1.52958e+07
1.79291e+07
1.78759e+07
1.77809e+07
1.76561e+07
1.75118e+07
1.73555e+07
1.71926e+07
1.70264e+07
1.68591e+07
1.66919e+07
1.65252e+07
1.63593e+07
1.61936e+07
1.60274e+07
1.58594e+07
1.56874e+07
1.55084e+07
1.53192e+07
1.7937e+07
1.78829e+07
1.77867e+07
1.76607e+07
1.75153e+07
1.73583e+07
1.71948e+07
1.70282e+07
1.68608e+07
1.66935e+07
1.65271e+07
1.63615e+07
1.61964e+07
1.60312e+07
1.58648e+07
1.56958e+07
1.55229e+07
1.53464e+07
1.79488e+07
1.78934e+07
1.77952e+07
1.76674e+07
1.75204e+07
1.73622e+07
1.71979e+07
1.70309e+07
1.68632e+07
1.6696e+07
1.65298e+07
1.63646e+07
1.62004e+07
1.60365e+07
1.58723e+07
1.57071e+07
1.55407e+07
1.53756e+07
1.79651e+07
1.79079e+07
1.78071e+07
1.76766e+07
1.75275e+07
1.73676e+07
1.72022e+07
1.70345e+07
1.68665e+07
1.66993e+07
1.65334e+07
1.63689e+07
1.62057e+07
1.60435e+07
1.58819e+07
1.57209e+07
1.55611e+07
1.54055e+07
1.79872e+07
1.79273e+07
1.78228e+07
1.76887e+07
1.75366e+07
1.73746e+07
1.72077e+07
1.70391e+07
1.68707e+07
1.67035e+07
1.6538e+07
1.63743e+07
1.62124e+07
1.60522e+07
1.58936e+07
1.5737e+07
1.55834e+07
1.54358e+07
1.80162e+07
1.79527e+07
1.78431e+07
1.77042e+07
1.75483e+07
1.73834e+07
1.72146e+07
1.70449e+07
1.6876e+07
1.67088e+07
1.65437e+07
1.63809e+07
1.62206e+07
1.60626e+07
1.59072e+07
1.5755e+07
1.56072e+07
1.54662e+07
1.80537e+07
1.79852e+07
1.78688e+07
1.77235e+07
1.75626e+07
1.73942e+07
1.72231e+07
1.70519e+07
1.68824e+07
1.67151e+07
1.65505e+07
1.63889e+07
1.62302e+07
1.60747e+07
1.59226e+07
1.57747e+07
1.56321e+07
1.54966e+07
1.81019e+07
1.80263e+07
1.79006e+07
1.77471e+07
1.75798e+07
1.7407e+07
1.7233e+07
1.70602e+07
1.68898e+07
1.67225e+07
1.65586e+07
1.63981e+07
1.62413e+07
1.60883e+07
1.59395e+07
1.57956e+07
1.56576e+07
1.55269e+07
1.81637e+07
1.80779e+07
1.79396e+07
1.77753e+07
1.76001e+07
1.74218e+07
1.72443e+07
1.70696e+07
1.68983e+07
1.67309e+07
1.65676e+07
1.64085e+07
1.62536e+07
1.61032e+07
1.59576e+07
1.58175e+07
1.56836e+07
1.55569e+07
1.82364e+07
1.81368e+07
1.79827e+07
1.78056e+07
1.76213e+07
1.74371e+07
1.72559e+07
1.70791e+07
1.69069e+07
1.67395e+07
1.65769e+07
1.6419e+07
1.62659e+07
1.61179e+07
1.59751e+07
1.58382e+07
1.57077e+07
1.55842e+07
1.8326e+07
1.82068e+07
1.80319e+07
1.7839e+07
1.76441e+07
1.74532e+07
1.72681e+07
1.7089e+07
1.69159e+07
1.67485e+07
1.65866e+07
1.643e+07
1.62788e+07
1.61331e+07
1.5993e+07
1.58591e+07
1.57315e+07
1.56109e+07
1.84587e+07
1.83042e+07
1.80964e+07
1.78808e+07
1.76717e+07
1.74723e+07
1.72822e+07
1.71005e+07
1.69264e+07
1.67591e+07
1.65981e+07
1.64431e+07
1.62941e+07
1.61509e+07
1.60138e+07
1.58829e+07
1.57585e+07
1.56407e+07
1.86657e+07
1.84399e+07
1.81778e+07
1.79298e+07
1.77024e+07
1.74927e+07
1.72971e+07
1.71128e+07
1.69378e+07
1.67709e+07
1.66111e+07
1.64581e+07
1.63115e+07
1.61713e+07
1.60372e+07
1.59096e+07
1.57883e+07
1.56734e+07
1.90163e+07
1.86211e+07
1.82687e+07
1.7978e+07
1.77299e+07
1.75101e+07
1.73096e+07
1.71234e+07
1.69483e+07
1.67824e+07
1.66246e+07
1.64741e+07
1.63304e+07
1.61933e+07
1.60627e+07
1.59383e+07
1.58202e+07
1.57083e+07
1.9698e+07
1.88031e+07
1.83271e+07
1.79994e+07
1.77385e+07
1.75141e+07
1.73127e+07
1.71274e+07
1.69542e+07
1.6791e+07
1.66362e+07
1.64891e+07
1.6349e+07
1.62156e+07
1.60886e+07
1.59678e+07
1.5853e+07
1.5744e+07
1.88577e+07
1.85282e+07
1.82091e+07
1.79353e+07
1.76982e+07
1.74871e+07
1.72947e+07
1.71164e+07
1.69493e+07
1.67916e+07
1.6642e+07
1.64998e+07
1.63643e+07
1.62353e+07
1.61125e+07
1.59956e+07
1.58843e+07
1.57785e+07
1.8297e+07
1.81633e+07
1.79801e+07
1.7787e+07
1.75981e+07
1.74175e+07
1.72459e+07
1.70826e+07
1.69271e+07
1.67788e+07
1.66372e+07
1.65019e+07
1.63726e+07
1.62492e+07
1.61313e+07
1.60187e+07
1.59114e+07
1.58091e+07
1.79785e+07
1.79025e+07
1.77817e+07
1.76391e+07
1.74881e+07
1.73355e+07
1.71847e+07
1.70374e+07
1.68945e+07
1.67562e+07
1.66229e+07
1.64945e+07
1.63712e+07
1.62529e+07
1.61394e+07
1.60308e+07
1.59269e+07
1.58276e+07
1.7797e+07
1.77426e+07
1.76503e+07
1.75347e+07
1.74065e+07
1.72722e+07
1.71359e+07
1.70002e+07
1.68664e+07
1.67357e+07
1.66086e+07
1.64855e+07
1.63666e+07
1.62521e+07
1.61419e+07
1.60361e+07
1.59346e+07
1.58374e+07
1.76772e+07
1.76335e+07
1.75568e+07
1.74576e+07
1.73441e+07
1.72224e+07
1.70966e+07
1.69695e+07
1.68429e+07
1.6718e+07
1.65957e+07
1.64767e+07
1.63612e+07
1.62496e+07
1.61419e+07
1.60383e+07
1.59387e+07
1.58431e+07
1.75962e+07
1.75585e+07
1.7491e+07
1.7402e+07
1.72982e+07
1.71851e+07
1.70667e+07
1.69457e+07
1.68243e+07
1.67037e+07
1.65851e+07
1.64691e+07
1.63562e+07
1.62468e+07
1.6141e+07
1.60389e+07
1.59407e+07
1.58464e+07
1.75412e+07
1.7507e+07
1.74452e+07
1.73626e+07
1.72652e+07
1.7158e+07
1.70447e+07
1.69281e+07
1.68103e+07
1.66928e+07
1.65768e+07
1.6463e+07
1.6352e+07
1.62442e+07
1.61398e+07
1.60389e+07
1.59417e+07
1.58482e+07
1.7504e+07
1.7472e+07
1.74138e+07
1.73354e+07
1.72422e+07
1.71389e+07
1.7029e+07
1.69154e+07
1.68002e+07
1.66849e+07
1.65707e+07
1.64585e+07
1.63488e+07
1.62421e+07
1.61386e+07
1.60386e+07
1.59421e+07
1.58493e+07
1.74793e+07
1.74487e+07
1.73927e+07
1.7317e+07
1.72265e+07
1.71258e+07
1.70182e+07
1.69066e+07
1.67931e+07
1.66793e+07
1.65664e+07
1.64552e+07
1.63464e+07
1.62405e+07
1.61377e+07
1.60383e+07
1.59423e+07
1.58498e+07
1.74635e+07
1.74337e+07
1.73791e+07
1.73051e+07
1.72164e+07
1.71172e+07
1.70111e+07
1.69008e+07
1.67884e+07
1.66756e+07
1.65635e+07
1.6453e+07
1.63448e+07
1.62394e+07
1.6137e+07
1.6038e+07
1.59423e+07
1.58501e+07
1.74539e+07
1.74246e+07
1.73709e+07
1.72978e+07
1.72101e+07
1.7112e+07
1.70068e+07
1.68973e+07
1.67856e+07
1.66733e+07
1.65617e+07
1.64516e+07
1.63438e+07
1.62387e+07
1.61366e+07
1.60377e+07
1.59423e+07
1.58502e+07
1.74487e+07
1.74197e+07
1.73664e+07
1.72939e+07
1.72067e+07
1.71091e+07
1.70044e+07
1.68953e+07
1.6784e+07
1.6672e+07
1.65607e+07
1.64508e+07
1.63432e+07
1.62382e+07
1.61363e+07
1.60376e+07
1.59422e+07
1.58503e+07
1.74466e+07
1.74177e+07
1.73646e+07
1.72922e+07
1.72053e+07
1.71079e+07
1.70034e+07
1.68945e+07
1.67833e+07
1.66715e+07
1.65602e+07
1.64505e+07
1.63429e+07
1.62381e+07
1.61362e+07
1.60375e+07
1.59422e+07
1.58503e+07
1.333e+07
1.3329e+07
1.33269e+07
1.33236e+07
1.33193e+07
1.33138e+07
1.33071e+07
1.32993e+07
1.32903e+07
1.328e+07
1.32685e+07
1.32557e+07
1.32417e+07
1.32264e+07
1.32098e+07
1.31919e+07
1.31727e+07
1.31521e+07
1.31302e+07
1.3107e+07
1.30824e+07
1.30565e+07
1.30292e+07
1.30005e+07
1.29705e+07
1.29391e+07
1.29063e+07
1.28722e+07
1.28366e+07
1.27996e+07
1.27612e+07
1.27213e+07
1.268e+07
1.26372e+07
1.2593e+07
1.25472e+07
1.24999e+07
1.24511e+07
1.24008e+07
1.23488e+07
1.22952e+07
1.224e+07
1.21831e+07
1.21246e+07
1.20642e+07
1.20021e+07
1.19381e+07
1.18721e+07
1.18041e+07
1.17339e+07
1.16614e+07
1.15865e+07
1.15089e+07
1.14285e+07
1.13447e+07
1.12574e+07
1.11657e+07
1.10687e+07
1.09648e+07
1.08503e+07
1.07157e+07
1.06771e+07
1.06736e+07
1.06704e+07
1.06673e+07
1.06642e+07
1.06613e+07
1.06583e+07
1.06554e+07
1.06526e+07
1.06497e+07
1.06469e+07
1.0644e+07
1.06412e+07
1.06385e+07
1.06357e+07
1.06329e+07
1.06301e+07
1.06274e+07
1.06246e+07
1.06218e+07
1.06191e+07
1.06163e+07
1.06136e+07
1.06108e+07
1.0608e+07
1.06053e+07
1.06025e+07
1.05997e+07
1.05969e+07
1.05941e+07
1.05913e+07
1.05885e+07
1.05856e+07
1.05828e+07
1.058e+07
1.05771e+07
1.05742e+07
1.05713e+07
1.05684e+07
1.05655e+07
1.05626e+07
1.05596e+07
1.05567e+07
1.05537e+07
1.05507e+07
1.05477e+07
1.05446e+07
1.05416e+07
1.05385e+07
1.05354e+07
1.05323e+07
1.05292e+07
1.0526e+07
1.05229e+07
1.05197e+07
1.05165e+07
1.05132e+07
1.051e+07
1.05067e+07
1.05034e+07
1.05e+07
1.04967e+07
1.04933e+07
1.04899e+07
1.04865e+07
1.0483e+07
1.04796e+07
1.04761e+07
1.04725e+07
1.0469e+07
1.04654e+07
1.04618e+07
1.04582e+07
1.04545e+07
1.04508e+07
1.04471e+07
1.04433e+07
1.04396e+07
1.04358e+07
1.04319e+07
1.04281e+07
1.04242e+07
1.04203e+07
1.04163e+07
1.04123e+07
1.04083e+07
1.04043e+07
1.04002e+07
1.03961e+07
1.0392e+07
1.03878e+07
1.03836e+07
1.03794e+07
1.03751e+07
1.03708e+07
1.03665e+07
1.03621e+07
1.03577e+07
1.03533e+07
1.03488e+07
1.03443e+07
1.03398e+07
1.03352e+07
1.03306e+07
1.0326e+07
1.03213e+07
1.03166e+07
1.03118e+07
1.0307e+07
1.03022e+07
1.02974e+07
1.02925e+07
1.02876e+07
1.02827e+07
1.02777e+07
1.02727e+07
1.02677e+07
1.02627e+07
1.02578e+07
1.33343e+07
1.33332e+07
1.33311e+07
1.33278e+07
1.33235e+07
1.33179e+07
1.33113e+07
1.33034e+07
1.32943e+07
1.3284e+07
1.32725e+07
1.32596e+07
1.32456e+07
1.32302e+07
1.32135e+07
1.31956e+07
1.31763e+07
1.31556e+07
1.31337e+07
1.31104e+07
1.30857e+07
1.30597e+07
1.30324e+07
1.30037e+07
1.29736e+07
1.29421e+07
1.29093e+07
1.28751e+07
1.28394e+07
1.28024e+07
1.2764e+07
1.27241e+07
1.26828e+07
1.264e+07
1.25958e+07
1.255e+07
1.25028e+07
1.2454e+07
1.24036e+07
1.23517e+07
1.22982e+07
1.2243e+07
1.21862e+07
1.21277e+07
1.20674e+07
1.20053e+07
1.19414e+07
1.18755e+07
1.18076e+07
1.17376e+07
1.16653e+07
1.15906e+07
1.15133e+07
1.14332e+07
1.135e+07
1.12635e+07
1.1173e+07
1.1078e+07
1.09778e+07
1.08713e+07
1.07566e+07
1.06766e+07
1.06732e+07
1.06702e+07
1.06671e+07
1.06641e+07
1.06612e+07
1.06582e+07
1.06553e+07
1.06525e+07
1.06496e+07
1.06468e+07
1.0644e+07
1.06412e+07
1.06384e+07
1.06356e+07
1.06329e+07
1.06301e+07
1.06273e+07
1.06246e+07
1.06218e+07
1.06191e+07
1.06163e+07
1.06135e+07
1.06108e+07
1.0608e+07
1.06052e+07
1.06025e+07
1.05997e+07
1.05969e+07
1.05941e+07
1.05913e+07
1.05885e+07
1.05856e+07
1.05828e+07
1.05799e+07
1.05771e+07
1.05742e+07
1.05713e+07
1.05684e+07
1.05655e+07
1.05626e+07
1.05596e+07
1.05567e+07
1.05537e+07
1.05507e+07
1.05477e+07
1.05446e+07
1.05416e+07
1.05385e+07
1.05354e+07
1.05323e+07
1.05292e+07
1.0526e+07
1.05229e+07
1.05197e+07
1.05164e+07
1.05132e+07
1.051e+07
1.05067e+07
1.05034e+07
1.05e+07
1.04967e+07
1.04933e+07
1.04899e+07
1.04865e+07
1.0483e+07
1.04796e+07
1.04761e+07
1.04725e+07
1.0469e+07
1.04654e+07
1.04618e+07
1.04582e+07
1.04545e+07
1.04508e+07
1.04471e+07
1.04433e+07
1.04396e+07
1.04358e+07
1.04319e+07
1.04281e+07
1.04242e+07
1.04203e+07
1.04163e+07
1.04123e+07
1.04083e+07
1.04043e+07
1.04002e+07
1.03961e+07
1.0392e+07
1.03878e+07
1.03836e+07
1.03794e+07
1.03751e+07
1.03708e+07
1.03665e+07
1.03621e+07
1.03577e+07
1.03533e+07
1.03488e+07
1.03443e+07
1.03398e+07
1.03352e+07
1.03306e+07
1.03259e+07
1.03213e+07
1.03166e+07
1.03118e+07
1.0307e+07
1.03022e+07
1.02974e+07
1.02925e+07
1.02876e+07
1.02827e+07
1.02777e+07
1.02727e+07
1.02677e+07
1.02627e+07
1.02578e+07
1.33429e+07
1.33418e+07
1.33397e+07
1.33364e+07
1.3332e+07
1.33264e+07
1.33197e+07
1.33118e+07
1.33026e+07
1.32922e+07
1.32806e+07
1.32677e+07
1.32535e+07
1.32381e+07
1.32213e+07
1.32032e+07
1.31838e+07
1.3163e+07
1.31409e+07
1.31175e+07
1.30927e+07
1.30666e+07
1.30391e+07
1.30103e+07
1.29801e+07
1.29485e+07
1.29155e+07
1.28812e+07
1.28455e+07
1.28084e+07
1.27698e+07
1.27299e+07
1.26885e+07
1.26456e+07
1.26013e+07
1.25555e+07
1.25082e+07
1.24594e+07
1.24091e+07
1.23572e+07
1.23037e+07
1.22485e+07
1.21918e+07
1.21333e+07
1.20731e+07
1.20111e+07
1.19473e+07
1.18816e+07
1.18139e+07
1.17442e+07
1.16722e+07
1.1598e+07
1.15212e+07
1.14419e+07
1.13597e+07
1.12743e+07
1.11856e+07
1.10931e+07
1.09965e+07
1.08954e+07
1.07894e+07
1.06778e+07
1.06728e+07
1.06698e+07
1.06668e+07
1.06639e+07
1.0661e+07
1.06581e+07
1.06552e+07
1.06524e+07
1.06495e+07
1.06467e+07
1.06439e+07
1.06411e+07
1.06383e+07
1.06356e+07
1.06328e+07
1.063e+07
1.06273e+07
1.06245e+07
1.06218e+07
1.0619e+07
1.06162e+07
1.06135e+07
1.06107e+07
1.0608e+07
1.06052e+07
1.06024e+07
1.05996e+07
1.05969e+07
1.05941e+07
1.05912e+07
1.05884e+07
1.05856e+07
1.05828e+07
1.05799e+07
1.05771e+07
1.05742e+07
1.05713e+07
1.05684e+07
1.05655e+07
1.05626e+07
1.05596e+07
1.05566e+07
1.05537e+07
1.05507e+07
1.05477e+07
1.05446e+07
1.05416e+07
1.05385e+07
1.05354e+07
1.05323e+07
1.05292e+07
1.0526e+07
1.05228e+07
1.05197e+07
1.05164e+07
1.05132e+07
1.05099e+07
1.05067e+07
1.05034e+07
1.05e+07
1.04967e+07
1.04933e+07
1.04899e+07
1.04865e+07
1.0483e+07
1.04796e+07
1.04761e+07
1.04725e+07
1.0469e+07
1.04654e+07
1.04618e+07
1.04581e+07
1.04545e+07
1.04508e+07
1.04471e+07
1.04433e+07
1.04396e+07
1.04358e+07
1.04319e+07
1.04281e+07
1.04242e+07
1.04203e+07
1.04163e+07
1.04123e+07
1.04083e+07
1.04043e+07
1.04002e+07
1.03961e+07
1.0392e+07
1.03878e+07
1.03836e+07
1.03794e+07
1.03751e+07
1.03708e+07
1.03665e+07
1.03621e+07
1.03577e+07
1.03533e+07
1.03488e+07
1.03443e+07
1.03398e+07
1.03352e+07
1.03306e+07
1.03259e+07
1.03213e+07
1.03166e+07
1.03118e+07
1.0307e+07
1.03022e+07
1.02974e+07
1.02925e+07
1.02876e+07
1.02826e+07
1.02777e+07
1.02727e+07
1.02677e+07
1.02627e+07
1.02577e+07
1.33561e+07
1.3355e+07
1.33528e+07
1.33494e+07
1.3345e+07
1.33393e+07
1.33325e+07
1.33245e+07
1.33152e+07
1.33047e+07
1.3293e+07
1.32799e+07
1.32656e+07
1.325e+07
1.32331e+07
1.32148e+07
1.31952e+07
1.31743e+07
1.3152e+07
1.31284e+07
1.31035e+07
1.30772e+07
1.30495e+07
1.30205e+07
1.29901e+07
1.29583e+07
1.29251e+07
1.28906e+07
1.28547e+07
1.28174e+07
1.27787e+07
1.27386e+07
1.2697e+07
1.2654e+07
1.26096e+07
1.25637e+07
1.25163e+07
1.24674e+07
1.2417e+07
1.23651e+07
1.23116e+07
1.22564e+07
1.21997e+07
1.21413e+07
1.20812e+07
1.20194e+07
1.19558e+07
1.18903e+07
1.18229e+07
1.17535e+07
1.1682e+07
1.16084e+07
1.15324e+07
1.1454e+07
1.13729e+07
1.12891e+07
1.12023e+07
1.11121e+07
1.10182e+07
1.09194e+07
1.08129e+07
1.06867e+07
1.06723e+07
1.06694e+07
1.06665e+07
1.06636e+07
1.06607e+07
1.06578e+07
1.0655e+07
1.06522e+07
1.06493e+07
1.06465e+07
1.06438e+07
1.0641e+07
1.06382e+07
1.06354e+07
1.06327e+07
1.06299e+07
1.06272e+07
1.06244e+07
1.06217e+07
1.06189e+07
1.06162e+07
1.06134e+07
1.06107e+07
1.06079e+07
1.06051e+07
1.06024e+07
1.05996e+07
1.05968e+07
1.0594e+07
1.05912e+07
1.05884e+07
1.05856e+07
1.05827e+07
1.05799e+07
1.0577e+07
1.05742e+07
1.05713e+07
1.05684e+07
1.05655e+07
1.05625e+07
1.05596e+07
1.05566e+07
1.05536e+07
1.05507e+07
1.05476e+07
1.05446e+07
1.05416e+07
1.05385e+07
1.05354e+07
1.05323e+07
1.05292e+07
1.0526e+07
1.05228e+07
1.05196e+07
1.05164e+07
1.05132e+07
1.05099e+07
1.05067e+07
1.05034e+07
1.05e+07
1.04967e+07
1.04933e+07
1.04899e+07
1.04865e+07
1.0483e+07
1.04795e+07
1.0476e+07
1.04725e+07
1.0469e+07
1.04654e+07
1.04618e+07
1.04581e+07
1.04545e+07
1.04508e+07
1.04471e+07
1.04433e+07
1.04396e+07
1.04358e+07
1.04319e+07
1.04281e+07
1.04242e+07
1.04203e+07
1.04163e+07
1.04123e+07
1.04083e+07
1.04043e+07
1.04002e+07
1.03961e+07
1.0392e+07
1.03878e+07
1.03836e+07
1.03794e+07
1.03751e+07
1.03708e+07
1.03665e+07
1.03621e+07
1.03577e+07
1.03533e+07
1.03488e+07
1.03443e+07
1.03398e+07
1.03352e+07
1.03306e+07
1.03259e+07
1.03213e+07
1.03166e+07
1.03118e+07
1.0307e+07
1.03022e+07
1.02974e+07
1.02925e+07
1.02876e+07
1.02826e+07
1.02777e+07
1.02727e+07
1.02677e+07
1.02626e+07
1.02576e+07
1.33737e+07
1.33726e+07
1.33704e+07
1.3367e+07
1.33624e+07
1.33567e+07
1.33497e+07
1.33416e+07
1.33322e+07
1.33215e+07
1.33096e+07
1.32964e+07
1.32818e+07
1.3266e+07
1.32488e+07
1.32304e+07
1.32105e+07
1.31894e+07
1.31669e+07
1.3143e+07
1.31178e+07
1.30912e+07
1.30633e+07
1.3034e+07
1.30033e+07
1.29713e+07
1.29379e+07
1.29031e+07
1.28669e+07
1.28294e+07
1.27904e+07
1.27501e+07
1.27083e+07
1.26651e+07
1.26205e+07
1.25744e+07
1.25269e+07
1.24779e+07
1.24274e+07
1.23754e+07
1.23218e+07
1.22667e+07
1.221e+07
1.21517e+07
1.20917e+07
1.203e+07
1.19666e+07
1.19014e+07
1.18344e+07
1.17654e+07
1.16945e+07
1.16216e+07
1.15464e+07
1.14691e+07
1.13894e+07
1.13071e+07
1.12223e+07
1.11346e+07
1.10439e+07
1.09498e+07
1.08519e+07
1.07498e+07
1.06722e+07
1.0669e+07
1.06661e+07
1.06632e+07
1.06604e+07
1.06575e+07
1.06547e+07
1.06519e+07
1.06491e+07
1.06463e+07
1.06436e+07
1.06408e+07
1.0638e+07
1.06353e+07
1.06325e+07
1.06298e+07
1.06271e+07
1.06243e+07
1.06216e+07
1.06188e+07
1.06161e+07
1.06133e+07
1.06106e+07
1.06078e+07
1.06051e+07
1.06023e+07
1.05995e+07
1.05967e+07
1.0594e+07
1.05912e+07
1.05883e+07
1.05855e+07
1.05827e+07
1.05799e+07
1.0577e+07
1.05741e+07
1.05712e+07
1.05683e+07
1.05654e+07
1.05625e+07
1.05596e+07
1.05566e+07
1.05536e+07
1.05506e+07
1.05476e+07
1.05446e+07
1.05415e+07
1.05385e+07
1.05354e+07
1.05323e+07
1.05291e+07
1.0526e+07
1.05228e+07
1.05196e+07
1.05164e+07
1.05132e+07
1.05099e+07
1.05067e+07
1.05033e+07
1.05e+07
1.04967e+07
1.04933e+07
1.04899e+07
1.04865e+07
1.0483e+07
1.04795e+07
1.0476e+07
1.04725e+07
1.0469e+07
1.04654e+07
1.04618e+07
1.04581e+07
1.04545e+07
1.04508e+07
1.04471e+07
1.04433e+07
1.04396e+07
1.04358e+07
1.04319e+07
1.04281e+07
1.04242e+07
1.04202e+07
1.04163e+07
1.04123e+07
1.04083e+07
1.04043e+07
1.04002e+07
1.03961e+07
1.0392e+07
1.03878e+07
1.03836e+07
1.03794e+07
1.03751e+07
1.03708e+07
1.03665e+07
1.03621e+07
1.03577e+07
1.03533e+07
1.03488e+07
1.03443e+07
1.03398e+07
1.03352e+07
1.03306e+07
1.03259e+07
1.03213e+07
1.03166e+07
1.03118e+07
1.0307e+07
1.03022e+07
1.02974e+07
1.02925e+07
1.02876e+07
1.02826e+07
1.02776e+07
1.02726e+07
1.02676e+07
1.02626e+07
1.02575e+07
1.3396e+07
1.33949e+07
1.33926e+07
1.33891e+07
1.33844e+07
1.33785e+07
1.33714e+07
1.33631e+07
1.33535e+07
1.33426e+07
1.33304e+07
1.3317e+07
1.33022e+07
1.32861e+07
1.32686e+07
1.32498e+07
1.32297e+07
1.32082e+07
1.31854e+07
1.31612e+07
1.31356e+07
1.31087e+07
1.30804e+07
1.30508e+07
1.30198e+07
1.29874e+07
1.29537e+07
1.29185e+07
1.28821e+07
1.28442e+07
1.28049e+07
1.27643e+07
1.27223e+07
1.26788e+07
1.26339e+07
1.25877e+07
1.25399e+07
1.24908e+07
1.24401e+07
1.2388e+07
1.23343e+07
1.22792e+07
1.22225e+07
1.21642e+07
1.21044e+07
1.20429e+07
1.19797e+07
1.19148e+07
1.18482e+07
1.17797e+07
1.17094e+07
1.16372e+07
1.1563e+07
1.14867e+07
1.14083e+07
1.13277e+07
1.12448e+07
1.11595e+07
1.10717e+07
1.09811e+07
1.08873e+07
1.07884e+07
1.06761e+07
1.06684e+07
1.06656e+07
1.06628e+07
1.066e+07
1.06572e+07
1.06544e+07
1.06516e+07
1.06489e+07
1.06461e+07
1.06433e+07
1.06406e+07
1.06378e+07
1.06351e+07
1.06324e+07
1.06296e+07
1.06269e+07
1.06242e+07
1.06214e+07
1.06187e+07
1.0616e+07
1.06132e+07
1.06105e+07
1.06077e+07
1.0605e+07
1.06022e+07
1.05995e+07
1.05967e+07
1.05939e+07
1.05911e+07
1.05883e+07
1.05855e+07
1.05826e+07
1.05798e+07
1.0577e+07
1.05741e+07
1.05712e+07
1.05683e+07
1.05654e+07
1.05625e+07
1.05595e+07
1.05566e+07
1.05536e+07
1.05506e+07
1.05476e+07
1.05446e+07
1.05415e+07
1.05385e+07
1.05354e+07
1.05323e+07
1.05291e+07
1.0526e+07
1.05228e+07
1.05196e+07
1.05164e+07
1.05132e+07
1.05099e+07
1.05066e+07
1.05033e+07
1.05e+07
1.04967e+07
1.04933e+07
1.04899e+07
1.04865e+07
1.0483e+07
1.04795e+07
1.0476e+07
1.04725e+07
1.0469e+07
1.04654e+07
1.04618e+07
1.04581e+07
1.04545e+07
1.04508e+07
1.04471e+07
1.04433e+07
1.04396e+07
1.04357e+07
1.04319e+07
1.04281e+07
1.04242e+07
1.04202e+07
1.04163e+07
1.04123e+07
1.04083e+07
1.04043e+07
1.04002e+07
1.03961e+07
1.03919e+07
1.03878e+07
1.03836e+07
1.03793e+07
1.03751e+07
1.03708e+07
1.03665e+07
1.03621e+07
1.03577e+07
1.03533e+07
1.03488e+07
1.03443e+07
1.03398e+07
1.03352e+07
1.03306e+07
1.03259e+07
1.03213e+07
1.03165e+07
1.03118e+07
1.0307e+07
1.03022e+07
1.02974e+07
1.02925e+07
1.02875e+07
1.02826e+07
1.02776e+07
1.02726e+07
1.02676e+07
1.02625e+07
1.02575e+07
1.3423e+07
1.34218e+07
1.34194e+07
1.34158e+07
1.3411e+07
1.3405e+07
1.33977e+07
1.33891e+07
1.33792e+07
1.33681e+07
1.33556e+07
1.33418e+07
1.33267e+07
1.33102e+07
1.32924e+07
1.32732e+07
1.32527e+07
1.32308e+07
1.32075e+07
1.31829e+07
1.31569e+07
1.31296e+07
1.31008e+07
1.30708e+07
1.30393e+07
1.30065e+07
1.29724e+07
1.29369e+07
1.29e+07
1.28617e+07
1.28221e+07
1.27811e+07
1.27387e+07
1.26949e+07
1.26498e+07
1.26032e+07
1.25553e+07
1.25059e+07
1.24551e+07
1.24028e+07
1.23491e+07
1.22938e+07
1.22371e+07
1.21789e+07
1.21191e+07
1.20578e+07
1.19948e+07
1.19303e+07
1.1864e+07
1.17961e+07
1.17264e+07
1.1655e+07
1.15817e+07
1.15065e+07
1.14294e+07
1.13504e+07
1.12693e+07
1.11862e+07
1.11009e+07
1.10134e+07
1.09234e+07
1.08302e+07
1.07314e+07
1.06682e+07
1.06651e+07
1.06623e+07
1.06596e+07
1.06568e+07
1.0654e+07
1.06513e+07
1.06485e+07
1.06458e+07
1.06431e+07
1.06403e+07
1.06376e+07
1.06349e+07
1.06322e+07
1.06294e+07
1.06267e+07
1.0624e+07
1.06213e+07
1.06186e+07
1.06158e+07
1.06131e+07
1.06104e+07
1.06076e+07
1.06049e+07
1.06021e+07
1.05994e+07
1.05966e+07
1.05938e+07
1.0591e+07
1.05882e+07
1.05854e+07
1.05826e+07
1.05797e+07
1.05769e+07
1.0574e+07
1.05712e+07
1.05683e+07
1.05654e+07
1.05624e+07
1.05595e+07
1.05565e+07
1.05536e+07
1.05506e+07
1.05476e+07
1.05445e+07
1.05415e+07
1.05384e+07
1.05353e+07
1.05322e+07
1.05291e+07
1.0526e+07
1.05228e+07
1.05196e+07
1.05164e+07
1.05132e+07
1.05099e+07
1.05066e+07
1.05033e+07
1.05e+07
1.04967e+07
1.04933e+07
1.04899e+07
1.04865e+07
1.0483e+07
1.04795e+07
1.0476e+07
1.04725e+07
1.04689e+07
1.04654e+07
1.04618e+07
1.04581e+07
1.04545e+07
1.04508e+07
1.04471e+07
1.04433e+07
1.04395e+07
1.04357e+07
1.04319e+07
1.04281e+07
1.04242e+07
1.04202e+07
1.04163e+07
1.04123e+07
1.04083e+07
1.04043e+07
1.04002e+07
1.03961e+07
1.03919e+07
1.03878e+07
1.03836e+07
1.03793e+07
1.03751e+07
1.03708e+07
1.03664e+07
1.03621e+07
1.03577e+07
1.03533e+07
1.03488e+07
1.03443e+07
1.03397e+07
1.03352e+07
1.03306e+07
1.03259e+07
1.03213e+07
1.03165e+07
1.03118e+07
1.0307e+07
1.03022e+07
1.02973e+07
1.02925e+07
1.02875e+07
1.02826e+07
1.02776e+07
1.02726e+07
1.02675e+07
1.02625e+07
1.02574e+07
1.34548e+07
1.34535e+07
1.3451e+07
1.34473e+07
1.34423e+07
1.3436e+07
1.34285e+07
1.34196e+07
1.34094e+07
1.33979e+07
1.33851e+07
1.33709e+07
1.33553e+07
1.33384e+07
1.33201e+07
1.33005e+07
1.32794e+07
1.3257e+07
1.32332e+07
1.32081e+07
1.31816e+07
1.31537e+07
1.31245e+07
1.30939e+07
1.30619e+07
1.30286e+07
1.29939e+07
1.29579e+07
1.29206e+07
1.28819e+07
1.28418e+07
1.28004e+07
1.27576e+07
1.27134e+07
1.26679e+07
1.26211e+07
1.25728e+07
1.25232e+07
1.24721e+07
1.24197e+07
1.23658e+07
1.23105e+07
1.22538e+07
1.21955e+07
1.21358e+07
1.20746e+07
1.20119e+07
1.19476e+07
1.18818e+07
1.18143e+07
1.17453e+07
1.16745e+07
1.16021e+07
1.1528e+07
1.14521e+07
1.13745e+07
1.12952e+07
1.1214e+07
1.1131e+07
1.10461e+07
1.09592e+07
1.08698e+07
1.07762e+07
1.06715e+07
1.06645e+07
1.06618e+07
1.06591e+07
1.06564e+07
1.06536e+07
1.06509e+07
1.06482e+07
1.06455e+07
1.06428e+07
1.06401e+07
1.06373e+07
1.06346e+07
1.06319e+07
1.06292e+07
1.06265e+07
1.06238e+07
1.06211e+07
1.06184e+07
1.06157e+07
1.0613e+07
1.06102e+07
1.06075e+07
1.06048e+07
1.0602e+07
1.05993e+07
1.05965e+07
1.05937e+07
1.05909e+07
1.05881e+07
1.05853e+07
1.05825e+07
1.05797e+07
1.05768e+07
1.0574e+07
1.05711e+07
1.05682e+07
1.05653e+07
1.05624e+07
1.05595e+07
1.05565e+07
1.05535e+07
1.05505e+07
1.05475e+07
1.05445e+07
1.05415e+07
1.05384e+07
1.05353e+07
1.05322e+07
1.05291e+07
1.05259e+07
1.05228e+07
1.05196e+07
1.05164e+07
1.05132e+07
1.05099e+07
1.05066e+07
1.05033e+07
1.05e+07
1.04966e+07
1.04933e+07
1.04899e+07
1.04864e+07
1.0483e+07
1.04795e+07
1.0476e+07
1.04725e+07
1.04689e+07
1.04654e+07
1.04618e+07
1.04581e+07
1.04545e+07
1.04508e+07
1.04471e+07
1.04433e+07
1.04395e+07
1.04357e+07
1.04319e+07
1.0428e+07
1.04242e+07
1.04202e+07
1.04163e+07
1.04123e+07
1.04083e+07
1.04043e+07
1.04002e+07
1.03961e+07
1.03919e+07
1.03878e+07
1.03836e+07
1.03793e+07
1.03751e+07
1.03708e+07
1.03664e+07
1.03621e+07
1.03577e+07
1.03532e+07
1.03488e+07
1.03443e+07
1.03397e+07
1.03352e+07
1.03306e+07
1.03259e+07
1.03212e+07
1.03165e+07
1.03118e+07
1.0307e+07
1.03022e+07
1.02973e+07
1.02924e+07
1.02875e+07
1.02826e+07
1.02776e+07
1.02726e+07
1.02675e+07
1.02624e+07
1.02573e+07
1.34915e+07
1.34901e+07
1.34875e+07
1.34836e+07
1.34784e+07
1.34718e+07
1.3464e+07
1.34548e+07
1.34442e+07
1.34323e+07
1.3419e+07
1.34043e+07
1.33882e+07
1.33707e+07
1.33519e+07
1.33316e+07
1.331e+07
1.32869e+07
1.32625e+07
1.32368e+07
1.32096e+07
1.31811e+07
1.31513e+07
1.312e+07
1.30875e+07
1.30535e+07
1.30183e+07
1.29817e+07
1.29438e+07
1.29045e+07
1.28639e+07
1.2822e+07
1.27788e+07
1.27342e+07
1.26883e+07
1.2641e+07
1.25924e+07
1.25425e+07
1.24912e+07
1.24385e+07
1.23845e+07
1.2329e+07
1.22722e+07
1.2214e+07
1.21543e+07
1.20932e+07
1.20307e+07
1.19667e+07
1.19012e+07
1.18342e+07
1.17657e+07
1.16956e+07
1.16241e+07
1.15509e+07
1.14762e+07
1.13999e+07
1.1322e+07
1.12426e+07
1.11616e+07
1.1079e+07
1.09948e+07
1.09087e+07
1.08203e+07
1.0728e+07
1.06643e+07
1.06613e+07
1.06586e+07
1.06559e+07
1.06532e+07
1.06505e+07
1.06478e+07
1.06451e+07
1.06424e+07
1.06397e+07
1.0637e+07
1.06344e+07
1.06317e+07
1.0629e+07
1.06263e+07
1.06236e+07
1.06209e+07
1.06182e+07
1.06155e+07
1.06128e+07
1.06101e+07
1.06074e+07
1.06046e+07
1.06019e+07
1.05991e+07
1.05964e+07
1.05936e+07
1.05908e+07
1.05881e+07
1.05852e+07
1.05824e+07
1.05796e+07
1.05768e+07
1.05739e+07
1.0571e+07
1.05682e+07
1.05653e+07
1.05623e+07
1.05594e+07
1.05565e+07
1.05535e+07
1.05505e+07
1.05475e+07
1.05445e+07
1.05414e+07
1.05384e+07
1.05353e+07
1.05322e+07
1.05291e+07
1.05259e+07
1.05228e+07
1.05196e+07
1.05164e+07
1.05131e+07
1.05099e+07
1.05066e+07
1.05033e+07
1.05e+07
1.04966e+07
1.04933e+07
1.04899e+07
1.04864e+07
1.0483e+07
1.04795e+07
1.0476e+07
1.04725e+07
1.04689e+07
1.04654e+07
1.04618e+07
1.04581e+07
1.04545e+07
1.04508e+07
1.04471e+07
1.04433e+07
1.04395e+07
1.04357e+07
1.04319e+07
1.0428e+07
1.04242e+07
1.04202e+07
1.04163e+07
1.04123e+07
1.04083e+07
1.04043e+07
1.04002e+07
1.03961e+07
1.03919e+07
1.03878e+07
1.03836e+07
1.03793e+07
1.03751e+07
1.03708e+07
1.03664e+07
1.03621e+07
1.03577e+07
1.03532e+07
1.03488e+07
1.03443e+07
1.03397e+07
1.03352e+07
1.03306e+07
1.03259e+07
1.03212e+07
1.03165e+07
1.03118e+07
1.0307e+07
1.03022e+07
1.02973e+07
1.02924e+07
1.02875e+07
1.02825e+07
1.02775e+07
1.02725e+07
1.02675e+07
1.02624e+07
1.02572e+07
1.35332e+07
1.35318e+07
1.3529e+07
1.35249e+07
1.35194e+07
1.35126e+07
1.35043e+07
1.34947e+07
1.34836e+07
1.34712e+07
1.34573e+07
1.3442e+07
1.34253e+07
1.34072e+07
1.33876e+07
1.33666e+07
1.33443e+07
1.33205e+07
1.32954e+07
1.32689e+07
1.3241e+07
1.32117e+07
1.31811e+07
1.31492e+07
1.31159e+07
1.30813e+07
1.30453e+07
1.3008e+07
1.29695e+07
1.29296e+07
1.28884e+07
1.28459e+07
1.28021e+07
1.27571e+07
1.27107e+07
1.2663e+07
1.2614e+07
1.25637e+07
1.25121e+07
1.24591e+07
1.24049e+07
1.23493e+07
1.22923e+07
1.2234e+07
1.21744e+07
1.21134e+07
1.2051e+07
1.19872e+07
1.19221e+07
1.18555e+07
1.17875e+07
1.1718e+07
1.16472e+07
1.15749e+07
1.15012e+07
1.14261e+07
1.13496e+07
1.12717e+07
1.11924e+07
1.11117e+07
1.10296e+07
1.0946e+07
1.08602e+07
1.07704e+07
1.06684e+07
1.06607e+07
1.0658e+07
1.06554e+07
1.06527e+07
1.065e+07
1.06474e+07
1.06447e+07
1.06421e+07
1.06394e+07
1.06367e+07
1.06341e+07
1.06314e+07
1.06287e+07
1.06261e+07
1.06234e+07
1.06207e+07
1.0618e+07
1.06153e+07
1.06126e+07
1.06099e+07
1.06072e+07
1.06045e+07
1.06018e+07
1.0599e+07
1.05963e+07
1.05935e+07
1.05907e+07
1.0588e+07
1.05852e+07
1.05823e+07
1.05795e+07
1.05767e+07
1.05738e+07
1.0571e+07
1.05681e+07
1.05652e+07
1.05623e+07
1.05594e+07
1.05564e+07
1.05534e+07
1.05505e+07
1.05475e+07
1.05444e+07
1.05414e+07
1.05383e+07
1.05353e+07
1.05322e+07
1.0529e+07
1.05259e+07
1.05227e+07
1.05196e+07
1.05163e+07
1.05131e+07
1.05099e+07
1.05066e+07
1.05033e+07
1.05e+07
1.04966e+07
1.04932e+07
1.04898e+07
1.04864e+07
1.0483e+07
1.04795e+07
1.0476e+07
1.04725e+07
1.04689e+07
1.04654e+07
1.04617e+07
1.04581e+07
1.04545e+07
1.04508e+07
1.0447e+07
1.04433e+07
1.04395e+07
1.04357e+07
1.04319e+07
1.0428e+07
1.04242e+07
1.04202e+07
1.04163e+07
1.04123e+07
1.04083e+07
1.04042e+07
1.04002e+07
1.03961e+07
1.03919e+07
1.03878e+07
1.03836e+07
1.03793e+07
1.03751e+07
1.03708e+07
1.03664e+07
1.03621e+07
1.03577e+07
1.03532e+07
1.03488e+07
1.03443e+07
1.03397e+07
1.03352e+07
1.03306e+07
1.03259e+07
1.03212e+07
1.03165e+07
1.03118e+07
1.0307e+07
1.03022e+07
1.02973e+07
1.02924e+07
1.02875e+07
1.02825e+07
1.02775e+07
1.02725e+07
1.02674e+07
1.02623e+07
1.02571e+07
1.35803e+07
1.35787e+07
1.35758e+07
1.35714e+07
1.35656e+07
1.35584e+07
1.35497e+07
1.35395e+07
1.35279e+07
1.35148e+07
1.35002e+07
1.34842e+07
1.34667e+07
1.34478e+07
1.34274e+07
1.34056e+07
1.33824e+07
1.33577e+07
1.33317e+07
1.33043e+07
1.32756e+07
1.32454e+07
1.3214e+07
1.31812e+07
1.31471e+07
1.31116e+07
1.30749e+07
1.30369e+07
1.29976e+07
1.2957e+07
1.29151e+07
1.2872e+07
1.28276e+07
1.27819e+07
1.2735e+07
1.26868e+07
1.26373e+07
1.25866e+07
1.25346e+07
1.24814e+07
1.24269e+07
1.23711e+07
1.2314e+07
1.22556e+07
1.21959e+07
1.21349e+07
1.20727e+07
1.20091e+07
1.19442e+07
1.18779e+07
1.18104e+07
1.17415e+07
1.16713e+07
1.15998e+07
1.1527e+07
1.14529e+07
1.13776e+07
1.1301e+07
1.12232e+07
1.11441e+07
1.10639e+07
1.09824e+07
1.08995e+07
1.08149e+07
1.0728e+07
1.06605e+07
1.06575e+07
1.06548e+07
1.06522e+07
1.06496e+07
1.06469e+07
1.06443e+07
1.06417e+07
1.0639e+07
1.06364e+07
1.06337e+07
1.06311e+07
1.06284e+07
1.06258e+07
1.06231e+07
1.06205e+07
1.06178e+07
1.06151e+07
1.06124e+07
1.06097e+07
1.0607e+07
1.06043e+07
1.06016e+07
1.05989e+07
1.05961e+07
1.05934e+07
1.05906e+07
1.05878e+07
1.05851e+07
1.05823e+07
1.05794e+07
1.05766e+07
1.05738e+07
1.05709e+07
1.0568e+07
1.05651e+07
1.05622e+07
1.05593e+07
1.05564e+07
1.05534e+07
1.05504e+07
1.05474e+07
1.05444e+07
1.05414e+07
1.05383e+07
1.05352e+07
1.05321e+07
1.0529e+07
1.05259e+07
1.05227e+07
1.05195e+07
1.05163e+07
1.05131e+07
1.05098e+07
1.05066e+07
1.05033e+07
1.04999e+07
1.04966e+07
1.04932e+07
1.04898e+07
1.04864e+07