/*--------------------------------*- C++ -*----------------------------------*\
  =========                 |
  \\      /  F ield         | OpenFOAM: The Open Source CFD Toolbox
   \\    /   O peration     | Website:  https://openfoam.org
    \\  /    A nd           | Version:  10
     \\/     M anipulation  |
\*---------------------------------------------------------------------------*/
FoamFile
{
    format      ascii;
    class       surfaceScalarField;
    location    "2.53";
    object      phi;
}
// * * * * * * * * * * * * * * * * * * * * * * * * * * * * * * * * * * * * * //

dimensions      [0 3 -1 0 0 0 0];

internalField   nonuniform List<scalar> 
24170
(
1.47089e-09
-1.47089e-09
2.72883e-09
-1.25794e-09
3.72221e-09
-9.93375e-10
4.47007e-09
-7.47863e-10
5.02216e-09
-5.52093e-10
5.43225e-09
-4.10082e-10
5.74658e-09
-3.14331e-10
6.00146e-09
-2.54885e-10
6.22472e-09
-2.23261e-10
6.43841e-09
-2.13692e-10
6.66182e-09
-2.23407e-10
6.91481e-09
-2.52986e-10
7.22242e-09
-3.07616e-10
7.62334e-09
-4.00917e-10
8.18988e-09
-5.66541e-10
9.08955e-09
-8.99665e-10
1.08418e-08
-1.75226e-09
-5.02249e-09
1.58643e-08
1.6638e-09
-3.13469e-09
3.08098e-09
-2.67512e-09
4.19357e-09
-2.10597e-09
5.02554e-09
-1.57983e-09
5.63532e-09
-1.16187e-09
6.08498e-09
-8.59745e-10
6.42736e-09
-6.56713e-10
6.70355e-09
-5.31076e-10
6.94478e-09
-4.64489e-10
7.17558e-09
-4.4449e-10
7.41717e-09
-4.64998e-10
7.69109e-09
-5.26903e-10
8.02391e-09
-6.40445e-10
8.45534e-09
-8.32344e-10
9.05512e-09
-1.16632e-09
9.96313e-09
-1.80768e-09
1.14648e-08
-3.25393e-09
-7.1822e-09
1.36245e-08
1.85719e-09
-4.99188e-09
3.43024e-09
-4.24818e-09
4.65558e-09
-3.3313e-09
5.56414e-09
-2.48839e-09
6.22458e-09
-1.82231e-09
6.70791e-09
-1.34308e-09
7.07354e-09
-1.02234e-09
7.36703e-09
-8.24565e-10
7.62259e-09
-7.20054e-10
7.86674e-09
-6.88638e-10
8.12196e-09
-7.20216e-10
8.41039e-09
-8.15334e-10
8.75811e-09
-9.8817e-10
9.20122e-09
-1.27545e-09
9.79489e-09
-1.75998e-09
1.062e-08
-2.63281e-09
1.17168e-08
-4.35068e-09
-7.89857e-09
1.24331e-08
2.0728e-09
-7.06468e-09
3.81443e-09
-5.9898e-09
5.15612e-09
-4.67299e-09
6.13951e-09
-3.47179e-09
6.84666e-09
-2.52945e-09
7.35927e-09
-1.8557e-09
7.74404e-09
-1.4071e-09
8.05113e-09
-1.13166e-09
8.31754e-09
-9.86463e-10
8.57135e-09
-9.42444e-10
8.83567e-09
-9.84535e-10
9.13217e-09
-1.11183e-09
9.48439e-09
-1.3404e-09
9.92074e-09
-1.7118e-09
1.04742e-08
-2.31342e-09
1.11619e-08
-3.32049e-09
1.1869e-08
-5.05784e-09
-7.93566e-09
1.19061e-08
2.32414e-09
-9.38882e-09
4.25501e-09
-7.92068e-09
5.71968e-09
-6.13766e-09
6.77634e-09
-4.52844e-09
7.5252e-09
-3.27832e-09
8.06136e-09
-2.39186e-09
8.45985e-09
-1.80559e-09
8.77563e-09
-1.44744e-09
9.04828e-09
-1.25911e-09
9.30697e-09
-1.20113e-09
9.57472e-09
-1.25228e-09
9.87157e-09
-1.40868e-09
1.02167e-08
-1.68548e-09
1.06278e-08
-2.12299e-09
1.11138e-08
-2.79942e-09
1.16414e-08
-3.84803e-09
1.20334e-08
-5.4498e-09
-7.67231e-09
1.177e-08
2.62626e-09
-1.20151e-08
4.77437e-09
-1.00688e-08
6.3697e-09
-7.733e-09
7.49607e-09
-5.65481e-09
8.27888e-09
-4.06113e-09
8.83017e-09
-2.94314e-09
9.23466e-09
-2.21008e-09
9.55235e-09
-1.76513e-09
9.825e-09
-1.53177e-09
1.00823e-08
-1.45844e-09
1.03463e-08
-1.51633e-09
1.06345e-08
-1.69679e-09
1.09599e-08
-2.01097e-09
1.13291e-08
-2.49215e-09
1.17294e-08
-3.19971e-09
1.20976e-08
-4.21625e-09
1.22565e-08
-5.6087e-09
-7.28708e-09
1.18713e-08
2.99954e-09
-1.50146e-08
5.40114e-09
-1.24704e-08
7.13421e-09
-9.46607e-09
8.32262e-09
-6.84323e-09
9.12699e-09
-4.8655e-09
9.681e-09
-3.49716e-09
1.00806e-08
-2.6097e-09
1.03909e-08
-2.07538e-09
1.06552e-08
-1.79613e-09
1.09031e-08
-1.70633e-09
1.11548e-08
-1.76802e-09
1.1424e-08
-1.96595e-09
1.17174e-08
-2.30439e-09
1.20306e-08
-2.80535e-09
1.2336e-08
-3.50507e-09
1.25597e-08
-4.43995e-09
1.25549e-08
-5.60398e-09
-6.86018e-09
1.2128e-08
3.47374e-09
-1.84883e-08
6.1749e-09
-1.51715e-08
8.04965e-09
-1.13408e-08
9.2852e-09
-8.07878e-09
1.00917e-08
-5.67198e-09
1.06304e-08
-4.03586e-09
1.101e-08
-2.98932e-09
1.13003e-08
-2.3657e-09
1.15457e-08
-2.04145e-09
1.17742e-08
-1.93483e-09
1.20034e-08
-1.99727e-09
1.22427e-08
-2.20525e-09
1.24924e-08
-2.5541e-09
1.27395e-08
-3.05242e-09
1.29483e-08
-3.71388e-09
1.30484e-08
-4.54002e-09
1.29319e-08
-5.48752e-09
-6.42551e-09
1.24972e-08
4.09456e-09
-2.25829e-08
7.15267e-09
-1.82297e-08
9.16514e-09
-1.33533e-08
1.04207e-08
-9.33436e-09
1.11993e-08
-6.45058e-09
1.16969e-08
-4.53343e-09
1.20359e-08
-3.32832e-09
1.22899e-08
-2.61969e-09
1.25026e-08
-2.25418e-09
1.26997e-08
-2.13196e-09
1.28952e-08
-2.1927e-09
1.30935e-08
-2.40355e-09
1.32893e-08
-2.7499e-09
1.34639e-08
-3.22704e-09
1.35799e-08
-3.82992e-09
1.35779e-08
-4.53803e-09
1.33857e-08
-5.29528e-09
-5.99591e-09
1.29561e-08
4.93537e-09
-2.75183e-08
8.41909e-09
-2.17134e-08
1.05481e-08
-1.54823e-08
1.17762e-08
-1.05624e-08
1.24813e-08
-7.15565e-09
1.29013e-08
-4.95344e-09
1.31721e-08
-3.59913e-09
1.33688e-08
-2.81637e-09
1.35322e-08
-2.41767e-09
1.3684e-08
-2.28374e-09
1.38333e-08
-2.34197e-09
1.39797e-08
-2.54999e-09
1.41133e-08
-2.88349e-09
1.42125e-08
-3.32626e-09
1.42426e-08
-3.86002e-09
1.41578e-08
-4.45318e-09
1.39134e-08
-5.05094e-09
-5.57495e-09
1.34925e-08
6.11958e-09
-3.36378e-08
1.01031e-08
-2.56969e-08
1.22917e-08
-1.76709e-08
1.3411e-08
-1.16818e-08
1.3974e-08
-7.71867e-09
1.4266e-08
-5.2454e-09
1.44326e-08
-3.7657e-09
1.45458e-08
-2.92957e-09
1.46402e-08
-2.51211e-09
1.47309e-08
-2.37441e-09
1.48211e-08
-2.43218e-09
1.49055e-08
-2.63436e-09
1.49704e-08
-2.94846e-09
1.49939e-08
-3.34974e-09
1.49461e-08
-3.81218e-09
1.4794e-08
-4.3011e-09
1.45125e-08
-4.76947e-09
-5.16218e-09
1.40998e-08
6.52562e-09
-4.01635e-08
1.03244e-08
-2.94957e-08
1.21207e-08
-1.94672e-08
1.28769e-08
-1.2438e-08
1.31642e-08
-8.00596e-09
1.32585e-08
-5.33973e-09
1.32827e-08
-3.78993e-09
1.32889e-08
-2.93578e-09
1.32973e-08
-2.52048e-09
1.3313e-08
-2.3901e-09
1.3333e-08
-2.45223e-09
1.33488e-08
-2.65014e-09
1.33467e-08
-2.94636e-09
1.33086e-08
-3.31164e-09
1.32135e-08
-3.71709e-09
1.30417e-08
-4.12928e-09
1.27815e-08
-4.50928e-09
-4.81735e-09
1.24367e-08
9.69831e-09
-4.98618e-08
1.45128e-08
-3.43101e-08
1.63107e-08
-2.12651e-08
1.6797e-08
-1.29243e-08
1.68058e-08
-8.01475e-09
1.66758e-08
-5.20973e-09
1.6531e-08
-3.64511e-09
1.64106e-08
-2.81534e-09
1.63214e-08
-2.43128e-09
1.62577e-08
-2.32639e-09
1.62081e-08
-2.40266e-09
1.61578e-08
-2.59983e-09
1.6089e-08
-2.87761e-09
1.59821e-08
-3.20473e-09
1.58175e-08
-3.55248e-09
1.55797e-08
-3.89144e-09
1.52623e-08
-4.19185e-09
-4.42709e-09
1.4872e-08
1.5661e-08
-6.55227e-08
2.14201e-08
-4.00693e-08
2.25758e-08
-2.24208e-08
2.2269e-08
-1.26175e-08
2.16563e-08
-7.40206e-09
2.10847e-08
-4.63812e-09
2.06299e-08
-3.19033e-09
2.0287e-08
-2.47244e-09
2.00312e-08
-2.17544e-09
1.98352e-08
-2.13041e-09
1.96734e-08
-2.24079e-09
1.95214e-08
-2.44788e-09
1.93564e-08
-2.71262e-09
1.91571e-08
-3.00545e-09
1.89057e-08
-3.30105e-09
1.85905e-08
-3.57622e-09
1.82089e-08
-3.81029e-09
-3.98714e-09
1.7769e-08
2.8657e-08
-9.41797e-08
3.36685e-08
-4.50809e-08
3.22374e-08
-2.09897e-08
2.99803e-08
-1.03604e-08
2.81143e-08
-5.536e-09
2.67463e-08
-3.27015e-09
2.57694e-08
-2.2134e-09
2.50675e-08
-1.77056e-09
2.45506e-08
-1.65859e-09
2.41529e-08
-1.73265e-09
2.38251e-08
-1.91298e-09
2.35292e-08
-2.152e-09
2.3235e-08
-2.4184e-09
2.29186e-08
-2.68911e-09
2.25631e-08
-2.94554e-09
2.21592e-08
-3.17225e-09
2.17059e-08
-3.35707e-09
-3.49192e-09
2.12107e-08
6.32357e-08
-1.57415e-07
5.66595e-08
-3.85047e-08
4.70486e-08
-1.13788e-08
4.05482e-08
-3.86005e-09
3.64475e-08
-1.43524e-09
3.38141e-08
-6.3676e-10
3.20615e-08
-4.60783e-10
3.08473e-08
-5.56335e-10
2.99676e-08
-7.78904e-10
2.92955e-08
-1.06056e-09
2.87474e-08
-1.36497e-09
2.82661e-08
-1.67067e-09
2.78111e-08
-1.96336e-09
2.73543e-08
-2.23235e-09
2.6878e-08
-2.4692e-09
2.63732e-08
-2.66746e-09
2.5839e-08
-2.82286e-09
-2.93363e-09
2.52807e-08
1.82915e-07
1.59164e-07
9.67037e-08
4.77068e-08
6.64746e-08
1.88503e-08
5.3146e-08
9.46861e-09
4.61647e-08
5.546e-09
4.20495e-08
3.47848e-09
3.94143e-08
2.17435e-09
3.76148e-08
1.24318e-09
3.63132e-08
5.22711e-10
3.5315e-08
-6.23619e-11
3.44974e-08
-5.47368e-10
3.37868e-08
-9.6004e-10
3.31347e-08
-1.31122e-09
3.25094e-08
-1.60708e-09
3.18917e-08
-1.85147e-09
3.12715e-08
-2.04731e-09
3.06461e-08
-2.19742e-09
-2.30503e-09
3.00175e-08
7.72213e-08
8.19422e-08
7.53826e-08
4.95456e-08
6.53034e-08
2.89295e-08
5.72834e-08
1.74886e-08
5.17859e-08
1.10435e-08
4.8061e-08
7.20338e-09
4.54747e-08
4.76064e-09
4.36106e-08
3.10726e-09
4.22065e-08
1.92681e-09
4.1097e-08
1.04717e-09
4.01791e-08
3.70551e-10
3.93773e-08
-1.5829e-10
3.86403e-08
-5.74179e-10
3.79401e-08
-9.06902e-10
3.72601e-08
-1.17145e-09
3.65914e-08
-1.3786e-09
3.59306e-08
-1.53669e-09
-1.65265e-09
3.52783e-08
3.59304e-08
4.60118e-08
5.01134e-08
3.53625e-08
5.37929e-08
2.525e-08
5.36147e-08
1.76668e-08
5.23023e-08
1.23559e-08
5.08268e-08
8.6789e-09
4.94834e-08
6.10403e-09
4.83268e-08
4.26388e-09
4.73348e-08
2.91875e-09
4.64678e-08
1.91419e-09
4.56883e-08
1.15011e-09
4.49693e-08
5.60685e-10
4.42934e-08
1.01724e-10
4.36397e-08
-2.53272e-10
4.29981e-08
-5.29813e-10
4.23643e-08
-7.44773e-10
4.17373e-08
-9.09661e-10
-1.03348e-09
4.11181e-08
1.42992e-08
3.17126e-08
2.32872e-08
2.63746e-08
2.80985e-08
2.04387e-08
3.04534e-08
1.5312e-08
3.15094e-08
1.12999e-08
3.19075e-08
8.28075e-09
3.19763e-08
6.03521e-09
3.18782e-08
4.36206e-09
3.16917e-08
3.10525e-09
3.14546e-08
2.15128e-09
3.11851e-08
1.41962e-09
3.08923e-08
8.53497e-10
3.05813e-08
4.12666e-10
3.02598e-08
6.82942e-11
2.99276e-08
-1.97644e-10
2.95867e-08
-4.03929e-10
2.92403e-08
-5.63187e-10
-6.84394e-10
2.88912e-08
8.56887e-09
2.31437e-08
1.49681e-08
1.99754e-08
1.92195e-08
1.61872e-08
2.18913e-08
1.26401e-08
2.35281e-08
9.66307e-09
2.45156e-08
7.29326e-09
2.50983e-08
5.45248e-09
2.54246e-08
4.03577e-09
2.55834e-08
2.94647e-09
2.56285e-08
2.10615e-09
2.55935e-08
1.4547e-09
2.54998e-08
9.47142e-10
2.53623e-08
5.50167e-10
2.51916e-08
2.39052e-10
2.49985e-08
-4.57744e-12
2.47867e-08
-1.9217e-10
2.45615e-08
-3.37919e-10
-4.49944e-10
2.4327e-08
5.78849e-09
1.73552e-08
1.04842e-08
1.52797e-08
1.39604e-08
1.2711e-08
1.64123e-08
1.01882e-08
1.81014e-08
7.97397e-09
1.92515e-08
6.14316e-09
2.00272e-08
4.67683e-09
2.05419e-08
3.52101e-09
2.08724e-08
2.61603e-09
2.107e-08
1.90848e-09
2.11702e-08
1.35458e-09
2.11973e-08
9.19981e-10
2.11692e-08
5.78291e-10
2.10989e-08
3.09366e-10
2.09965e-08
9.78266e-11
2.08714e-08
-6.70604e-11
2.07281e-08
-1.94687e-10
-2.93514e-10
2.05717e-08
4.21856e-09
1.31366e-08
7.79706e-09
1.17012e-08
1.06145e-08
9.89356e-09
1.27368e-08
8.06593e-09
1.42963e-08
6.4144e-09
1.54262e-08
5.01325e-09
1.62364e-08
3.86668e-09
1.68102e-08
2.94715e-09
1.72089e-08
2.21734e-09
1.74766e-08
1.64076e-09
1.76454e-08
1.18577e-09
1.77388e-08
8.26607e-10
1.77742e-08
5.42869e-10
1.7765e-08
3.18657e-10
1.77211e-08
1.41644e-10
1.76518e-08
2.27337e-12
1.75625e-08
-1.05411e-10
-1.89273e-10
1.74583e-08
3.23181e-09
9.90483e-09
6.04599e-09
8.88707e-09
8.34619e-09
7.59336e-09
1.01508e-08
6.26134e-09
1.15309e-08
5.03432e-09
1.25692e-08
3.97489e-09
1.3341e-08
3.09485e-09
1.39079e-08
2.38029e-09
1.43178e-08
1.80749e-09
1.46072e-08
1.35135e-09
1.48038e-08
9.89155e-10
1.49286e-08
7.01818e-10
1.49975e-08
4.73898e-10
1.5023e-08
2.93157e-10
1.50147e-08
1.49985e-10
1.49801e-08
3.68381e-11
1.49261e-08
-5.13907e-11
-1.19986e-10
1.48568e-08
2.56066e-09
7.34417e-09
4.82683e-09
6.6209e-09
6.72356e-09
5.69663e-09
8.25111e-09
4.7338e-09
9.44997e-09
3.83545e-09
1.03744e-08
3.05048e-09
1.10776e-08
2.39158e-09
1.16061e-08
1.85185e-09
1.19975e-08
1.41605e-09
1.22819e-08
1.06695e-09
1.24827e-08
7.88419e-10
1.26179e-08
5.66577e-10
1.27018e-08
3.90016e-10
1.27454e-08
2.49581e-10
1.27573e-08
1.38017e-10
1.27446e-08
4.95946e-11
1.27131e-08
-1.98812e-11
-7.38273e-11
1.26669e-08
2.07571e-09
5.26847e-09
3.93183e-09
4.76478e-09
5.50944e-09
4.11902e-09
6.80204e-09
3.4412e-09
7.83412e-09
2.80337e-09
8.64312e-09
2.24149e-09
9.26828e-09
1.76642e-09
9.74529e-09
1.37484e-09
1.01043e-08
1.05701e-09
1.037e-08
8.01283e-10
1.05619e-08
5.96497e-10
1.06956e-08
4.32874e-10
1.07834e-08
3.02286e-10
1.08348e-08
1.9815e-10
1.08576e-08
1.15216e-10
1.08579e-08
4.93131e-11
1.08408e-08
-2.80631e-12
-4.31937e-11
1.08102e-08
1.70799e-09
3.56047e-09
3.24564e-09
3.22713e-09
4.5658e-09
2.79887e-09
5.65988e-09
2.34712e-09
6.54363e-09
1.91962e-09
7.24417e-09
1.54095e-09
7.7914e-09
1.21918e-09
8.21344e-09
9.52802e-10
8.53469e-09
7.35756e-10
8.77542e-09
5.60548e-10
8.95209e-09
4.19834e-10
9.07784e-09
3.07116e-10
9.16319e-09
2.16941e-10
9.21647e-09
1.4487e-10
9.24434e-09
8.73416e-11
9.25214e-09
4.15171e-11
9.2442e-09
5.13397e-12
-2.31286e-11
9.22413e-09
1.4175e-09
2.14297e-09
2.69929e-09
1.94534e-09
3.80708e-09
1.69108e-09
4.73218e-09
1.42201e-09
5.48534e-09
1.16645e-09
6.08705e-09
9.39245e-10
6.56072e-09
7.45514e-10
6.9289e-09
5.84624e-10
7.21149e-09
4.53159e-10
7.42528e-09
3.46763e-10
7.584e-09
2.61112e-10
7.69877e-09
1.92351e-10
7.77848e-09
1.37226e-10
7.83028e-09
9.30756e-11
7.85986e-09
5.7758e-11
7.87182e-09
2.9561e-11
7.86983e-09
7.11795e-12
-1.03832e-11
7.85709e-09
1.17816e-09
9.64812e-10
2.24666e-09
8.76839e-10
3.17418e-09
7.63555e-10
3.95276e-09
6.4343e-10
4.59016e-09
5.29054e-10
5.10229e-09
4.27113e-10
5.50783e-09
3.39977e-10
5.82501e-09
2.67441e-10
6.07013e-09
2.08038e-10
6.25704e-09
1.59858e-10
6.39716e-09
1.20992e-10
6.49978e-09
8.9725e-11
6.5724e-09
6.46073e-11
6.62103e-09
4.44477e-11
6.6505e-09
2.82856e-11
6.66471e-09
1.53512e-11
6.6668e-09
5.02929e-12
-3.03145e-12
6.65945e-09
9.64812e-10
1.84165e-09
2.60521e-09
3.24864e-09
3.77769e-09
4.2048e-09
4.54478e-09
4.81222e-09
5.02026e-09
5.18012e-09
5.30111e-09
5.39084e-09
5.45544e-09
5.49989e-09
5.52818e-09
5.54353e-09
5.54856e-09
5.54552e-09
2.02824e-10
-2.02824e-10
4.0687e-10
-2.04047e-10
6.11953e-10
-2.05083e-10
8.17876e-10
-2.05923e-10
1.02444e-09
-2.0656e-10
1.23142e-09
-2.06987e-10
1.43862e-09
-2.07198e-10
1.64581e-09
-2.07186e-10
1.85276e-09
-2.06949e-10
2.05924e-09
-2.06484e-10
2.26503e-09
-2.0579e-10
2.4699e-09
-2.04869e-10
2.67362e-09
-2.03727e-10
2.87599e-09
-2.0237e-10
3.0768e-09
-2.0081e-10
3.27587e-09
-1.99062e-10
3.47301e-09
-1.97147e-10
3.6681e-09
-1.95089e-10
3.86102e-09
-1.9292e-10
4.0517e-09
-1.9068e-10
4.24012e-09
-1.88414e-10
4.42629e-09
-1.8617e-10
4.61029e-09
-1.84002e-10
4.79225e-09
-1.81963e-10
4.97236e-09
-1.80104e-10
5.15083e-09
-1.78471e-10
5.32793e-09
-1.77102e-10
5.50396e-09
-1.7603e-10
5.67924e-09
-1.75281e-10
5.85411e-09
-1.74876e-10
6.02895e-09
-1.74834e-10
6.20412e-09
-1.75172e-10
6.38003e-09
-1.75911e-10
6.5571e-09
-1.77072e-10
6.73578e-09
-1.78677e-10
6.91653e-09
-1.8075e-10
7.09984e-09
-1.83306e-10
7.28619e-09
-1.8635e-10
7.47606e-09
-1.8987e-10
7.66989e-09
-1.93834e-10
7.86808e-09
-1.98187e-10
8.07094e-09
-2.02862e-10
8.27873e-09
-2.07795e-10
8.49168e-09
-2.12952e-10
8.71004e-09
-2.18357e-10
8.93416e-09
-2.24122e-10
9.16463e-09
-2.30469e-10
9.40238e-09
-2.37744e-10
9.6488e-09
-2.46421e-10
9.90592e-09
-2.57119e-10
1.01765e-08
-2.70633e-10
1.04646e-08
-2.8801e-10
1.07753e-08
-3.10708e-10
1.11162e-08
-3.40907e-10
1.14983e-08
-3.82165e-10
1.19392e-08
-4.40837e-10
1.24686e-08
-5.29415e-10
1.31433e-08
-6.74677e-10
1.40813e-08
-9.38005e-10
1.55406e-08
-1.45937e-09
1.92227e-08
-3.68203e-09
1.7581e-08
1.64167e-09
1.64092e-08
1.17179e-09
1.56816e-08
7.27562e-10
1.51655e-08
5.16155e-10
1.47636e-08
4.01928e-10
1.44309e-08
3.3262e-10
1.41446e-08
2.86302e-10
1.38917e-08
2.52909e-10
1.36643e-08
2.27392e-10
1.34573e-08
2.07005e-10
1.32672e-08
1.90153e-10
1.30913e-08
1.75849e-10
1.29279e-08
1.63456e-10
1.27753e-08
1.52544e-10
1.26325e-08
1.42811e-10
1.24985e-08
1.34042e-10
1.23724e-08
1.26074e-10
1.22536e-08
1.18787e-10
1.21415e-08
1.12083e-10
1.20357e-08
1.05888e-10
1.19355e-08
1.0014e-10
1.18407e-08
9.47902e-11
1.17509e-08
8.97967e-11
1.16658e-08
8.51248e-11
1.15851e-08
8.07455e-11
1.15084e-08
7.66334e-11
1.14357e-08
7.27673e-11
1.13665e-08
6.91282e-11
1.13008e-08
6.56998e-11
1.12384e-08
6.24679e-11
1.11789e-08
5.94195e-11
1.11224e-08
5.65433e-11
1.10686e-08
5.38287e-11
1.10173e-08
5.12669e-11
1.09685e-08
4.88491e-11
1.09219e-08
4.65673e-11
1.08775e-08
4.44147e-11
1.08351e-08
4.23844e-11
1.07946e-08
4.04702e-11
1.07559e-08
3.86662e-11
1.0719e-08
3.69671e-11
1.06836e-08
3.53674e-11
1.06498e-08
3.38627e-11
1.06173e-08
3.24479e-11
1.05862e-08
3.11188e-11
1.05563e-08
2.98711e-11
1.05276e-08
2.87009e-11
1.05e-08
2.76043e-11
1.04734e-08
2.65776e-11
1.04478e-08
2.56175e-11
1.04231e-08
2.47205e-11
1.03992e-08
2.38833e-11
1.03761e-08
2.3103e-11
1.03537e-08
2.23767e-11
1.0332e-08
2.17015e-11
1.0311e-08
2.10746e-11
1.02905e-08
2.04939e-11
1.02705e-08
1.99563e-11
1.0251e-08
1.94601e-11
1.0232e-08
1.90025e-11
1.02135e-08
1.85818e-11
1.01953e-08
1.81956e-11
1.01774e-08
1.78424e-11
1.01599e-08
1.752e-11
1.01427e-08
1.72265e-11
1.01257e-08
1.69608e-11
1.0109e-08
1.67208e-11
1.00925e-08
1.65052e-11
1.00762e-08
1.63127e-11
1.006e-08
1.61415e-11
1.0044e-08
1.59909e-11
1.00282e-08
1.58591e-11
1.00124e-08
1.57454e-11
9.99679e-09
1.56485e-11
9.98122e-09
1.55675e-11
9.96572e-09
1.55012e-11
9.95027e-09
1.54491e-11
9.93486e-09
1.54101e-11
9.91948e-09
1.53834e-11
9.90411e-09
1.53683e-11
9.88875e-09
1.53643e-11
9.87337e-09
1.53708e-11
9.85799e-09
1.53871e-11
9.84257e-09
1.54128e-11
9.82713e-09
1.54475e-11
9.81164e-09
1.54909e-11
9.79609e-09
1.55428e-11
9.78049e-09
1.56032e-11
9.76482e-09
1.56719e-11
9.74907e-09
1.5749e-11
9.73323e-09
1.5835e-11
9.7173e-09
1.59304e-11
9.70127e-09
1.60359e-11
9.68512e-09
1.61526e-11
9.66883e-09
1.62821e-11
9.65241e-09
1.64266e-11
9.63582e-09
1.65885e-11
9.61905e-09
1.67717e-11
9.60207e-09
1.69807e-11
9.58484e-09
1.72218e-11
9.56734e-09
1.75031e-11
9.54951e-09
1.78354e-11
9.53127e-09
1.82326e-11
9.51256e-09
1.87136e-11
9.49326e-09
1.93034e-11
9.47322e-09
2.00354e-11
9.45226e-09
2.09556e-11
9.43014e-09
2.21273e-11
9.4065e-09
2.36395e-11
9.38088e-09
2.562e-11
9.35262e-09
2.82581e-11
9.32078e-09
3.18436e-11
9.28393e-09
3.68425e-11
9.23988e-09
4.40517e-11
9.18493e-09
5.49527e-11
9.11228e-09
7.26449e-11
9.00746e-09
1.04826e-10
8.83125e-09
1.76208e-10
4.00806e-10
8.43045e-09
2.30394e-10
-4.33218e-10
4.62225e-10
-4.35878e-10
6.95284e-10
-4.38141e-10
9.29356e-10
-4.39995e-10
1.16422e-09
-4.41424e-10
1.39965e-09
-4.42422e-10
1.63544e-09
-4.42985e-10
1.87137e-09
-4.43116e-10
2.10725e-09
-4.42823e-10
2.34288e-09
-4.42117e-10
2.5781e-09
-4.41011e-10
2.81276e-09
-4.39526e-10
3.04671e-09
-4.37679e-10
3.27984e-09
-4.35496e-10
3.51202e-09
-4.33e-10
3.74318e-09
-4.30219e-10
3.97322e-09
-4.27181e-10
4.20204e-09
-4.23915e-10
4.42957e-09
-4.2045e-10
4.65571e-09
-4.16816e-10
4.88034e-09
-4.13042e-10
5.10332e-09
-4.09156e-10
5.3245e-09
-4.05184e-10
5.5437e-09
-4.01156e-10
5.76069e-09
-3.97101e-10
5.97527e-09
-3.93049e-10
6.18721e-09
-3.89038e-10
6.39629e-09
-3.85108e-10
6.60231e-09
-3.81306e-10
6.80512e-09
-3.77686e-10
7.0046e-09
-3.7431e-10
7.20067e-09
-3.71246e-10
7.39333e-09
-3.68566e-10
7.5826e-09
-3.66348e-10
7.76859e-09
-3.64667e-10
7.95144e-09
-3.63601e-10
8.13136e-09
-3.63221e-10
8.30861e-09
-3.63595e-10
8.48352e-09
-3.64784e-10
8.65653e-09
-3.66845e-10
8.82818e-09
-3.69836e-10
8.99914e-09
-3.73824e-10
9.17025e-09
-3.78901e-10
9.3425e-09
-3.852e-10
9.51706e-09
-3.92921e-10
9.69529e-09
-4.0235e-10
9.8787e-09
-4.13883e-10
1.0069e-08
-4.28055e-10
1.02682e-08
-4.45565e-10
1.04784e-08
-4.67319e-10
1.07022e-08
-4.94502e-10
1.09429e-08
-5.28686e-10
1.12042e-08
-5.72023e-10
1.14909e-08
-6.27559e-10
1.18085e-08
-6.99765e-10
1.21631e-08
-7.95416e-10
1.25586e-08
-9.25004e-10
1.29887e-08
-1.10471e-09
1.34084e-08
-1.35769e-09
1.36546e-08
-1.70559e-09
1.21204e-08
-2.14783e-09
1.58302e-08
-2.06818e-09
1.5681e-08
1.321e-09
1.53392e-08
1.06939e-09
1.49824e-08
8.72947e-10
1.46535e-08
7.30825e-10
1.4358e-08
6.28086e-10
1.40925e-08
5.51799e-10
1.38523e-08
4.93166e-10
1.36331e-08
4.46542e-10
1.34318e-08
4.0833e-10
1.32458e-08
3.76201e-10
1.3073e-08
3.48614e-10
1.29119e-08
3.24517e-10
1.27613e-08
3.03175e-10
1.262e-08
2.84061e-10
1.24873e-08
2.66783e-10
1.23623e-08
2.51048e-10
1.22445e-08
2.36629e-10
1.21332e-08
2.23346e-10
1.20281e-08
2.11057e-10
1.19285e-08
1.99645e-10
1.18343e-08
1.89015e-10
1.1745e-08
1.79087e-10
1.16604e-08
1.69793e-10
1.158e-08
1.61077e-10
1.15038e-08
1.52891e-10
1.14314e-08
1.45191e-10
1.13625e-08
1.37942e-10
1.12971e-08
1.3111e-10
1.12349e-08
1.24669e-10
1.11758e-08
1.18593e-10
1.11194e-08
1.12859e-10
1.10658e-08
1.07446e-10
1.10148e-08
1.02338e-10
1.09661e-08
9.7516e-11
1.09197e-08
9.29655e-11
1.08754e-08
8.86718e-11
1.08332e-08
8.46221e-11
1.07929e-08
8.08036e-11
1.07543e-08
7.72051e-11
1.07175e-08
7.38154e-11
1.06822e-08
7.06244e-11
1.06485e-08
6.76223e-11
1.06161e-08
6.47998e-11
1.05851e-08
6.21481e-11
1.05553e-08
5.96589e-11
1.05267e-08
5.73242e-11
1.04991e-08
5.51364e-11
1.04726e-08
5.30882e-11
1.04471e-08
5.11725e-11
1.04224e-08
4.93828e-11
1.03986e-08
4.77126e-11
1.03755e-08
4.61561e-11
1.03532e-08
4.47068e-11
1.03315e-08
4.33599e-11
1.03105e-08
4.21095e-11
1.029e-08
4.09506e-11
1.02701e-08
3.98785e-11
1.02507e-08
3.88884e-11
1.02317e-08
3.79758e-11
1.02132e-08
3.71365e-11
1.0195e-08
3.63663e-11
1.01772e-08
3.56615e-11
1.01597e-08
3.50185e-11
1.01425e-08
3.44337e-11
1.01255e-08
3.39035e-11
1.01088e-08
3.3425e-11
1.00923e-08
3.29952e-11
1.0076e-08
3.26112e-11
1.00599e-08
3.22702e-11
1.00439e-08
3.19698e-11
1.00281e-08
3.17073e-11
1.00123e-08
3.14807e-11
9.9967e-09
3.12879e-11
9.98114e-09
3.11264e-11
9.96565e-09
3.09949e-11
9.9502e-09
3.08911e-11
9.9348e-09
3.08136e-11
9.91942e-09
3.07608e-11
9.90406e-09
3.07314e-11
9.8887e-09
3.07237e-11
9.87333e-09
3.0737e-11
9.85795e-09
3.07698e-11
9.84254e-09
3.08216e-11
9.8271e-09
3.08914e-11
9.81161e-09
3.09785e-11
9.79607e-09
3.10824e-11
9.78047e-09
3.12032e-11
9.7648e-09
3.13406e-11
9.74906e-09
3.14949e-11
9.73323e-09
3.1667e-11
9.7173e-09
3.18574e-11
9.70127e-09
3.20683e-11
9.68512e-09
3.23014e-11
9.66884e-09
3.25601e-11
9.65242e-09
3.28482e-11
9.63584e-09
3.31712e-11
9.61907e-09
3.35363e-11
9.6021e-09
3.39529e-11
9.58489e-09
3.44333e-11
9.5674e-09
3.49934e-11
9.54958e-09
3.56546e-11
9.53136e-09
3.64449e-11
9.51268e-09
3.74012e-11
9.49341e-09
3.85731e-11
9.47342e-09
4.0027e-11
9.45252e-09
4.18537e-11
9.43047e-09
4.41779e-11
9.40693e-09
4.71751e-11
9.38146e-09
5.10966e-11
9.3534e-09
5.63124e-11
9.32186e-09
6.33876e-11
9.28548e-09
7.32227e-11
9.24219e-09
8.73405e-11
9.18862e-09
1.08518e-10
9.11891e-09
1.42362e-10
9.02192e-09
2.01811e-10
8.87599e-09
3.22136e-10
6.1612e-10
8.66068e-09
2.41865e-10
-6.75083e-10
4.85272e-10
-6.79284e-10
7.29971e-10
-6.82841e-10
9.75708e-10
-6.85732e-10
1.22222e-09
-6.87939e-10
1.46925e-09
-6.89454e-10
1.71655e-09
-6.90276e-10
1.96385e-09
-6.90415e-10
2.21091e-09
-6.89889e-10
2.45751e-09
-6.8872e-10
2.70344e-09
-6.86938e-10
2.94849e-09
-6.84574e-10
3.19248e-09
-6.81666e-10
3.43523e-09
-6.78249e-10
3.67659e-09
-6.74363e-10
3.91642e-09
-6.70044e-10
4.15456e-09
-6.65328e-10
4.39089e-09
-6.60245e-10
4.62527e-09
-6.54821e-10
4.85752e-09
-6.49074e-10
5.0875e-09
-6.43016e-10
5.315e-09
-6.36656e-10
5.53981e-09
-6.3e-10
5.76172e-09
-6.23061e-10
5.98047e-09
-6.15857e-10
6.19585e-09
-6.08424e-10
6.40762e-09
-6.00812e-10
6.61561e-09
-5.93092e-10
6.81965e-09
-5.85351e-10
7.01966e-09
-5.77694e-10
7.21559e-09
-5.70241e-10
7.40747e-09
-5.63119e-10
7.59536e-09
-5.5646e-10
7.77941e-09
-5.50401e-10
7.95982e-09
-5.45075e-10
8.13683e-09
-5.40614e-10
8.31076e-09
-5.37148e-10
8.48197e-09
-5.34803e-10
8.65089e-09
-5.33707e-10
8.81804e-09
-5.33992e-10
8.984e-09
-5.35799e-10
9.14947e-09
-5.39294e-10
9.31524e-09
-5.44671e-10
9.48222e-09
-5.52177e-10
9.65142e-09
-5.62125e-10
9.82399e-09
-5.74916e-10
1.00012e-08
-5.91065e-10
1.01843e-08
-6.11231e-10
1.0375e-08
-6.36248e-10
1.05749e-08
-6.67183e-10
1.07858e-08
-7.05399e-10
1.10098e-08
-7.52657e-10
1.1249e-08
-8.11255e-10
1.15056e-08
-8.84194e-10
1.17812e-08
-9.75357e-10
1.20753e-08
-1.08949e-09
1.23818e-08
-1.23147e-09
1.268e-08
-1.4029e-09
1.29125e-08
-1.59027e-09
1.29336e-08
-1.7266e-09
1.23637e-08
-1.57793e-09
1.5509e-08
-5.2135e-09
1.52647e-08
1.56526e-09
1.50165e-08
1.31766e-09
1.4752e-08
1.1374e-09
1.44889e-08
9.93972e-10
1.42371e-08
8.79876e-10
1.40005e-08
7.8836e-10
1.37798e-08
7.13824e-10
1.35744e-08
6.51995e-10
1.3383e-08
5.99754e-10
1.32043e-08
5.54857e-10
1.30372e-08
5.1569e-10
1.28807e-08
4.81083e-10
1.27337e-08
4.50172e-10
1.25954e-08
4.22311e-10
1.24652e-08
3.97008e-10
1.23424e-08
3.7388e-10
1.22264e-08
3.52625e-10
1.21167e-08
3.33001e-10
1.2013e-08
3.14813e-10
1.19147e-08
2.97898e-10
1.18216e-08
2.82123e-10
1.17333e-08
2.67375e-10
1.16495e-08
2.53557e-10
1.157e-08
2.4059e-10
1.14945e-08
2.28402e-10
1.14228e-08
2.16933e-10
1.13546e-08
2.0613e-10
1.12898e-08
1.95946e-10
1.12281e-08
1.8634e-10
1.11694e-08
1.77276e-10
1.11135e-08
1.68721e-10
1.10603e-08
1.60644e-10
1.10097e-08
1.53019e-10
1.09614e-08
1.4582e-10
1.09153e-08
1.39026e-10
1.08714e-08
1.32615e-10
1.08294e-08
1.26567e-10
1.07894e-08
1.20865e-10
1.07511e-08
1.1549e-10
1.07145e-08
1.10427e-10
1.06794e-08
1.05661e-10
1.06459e-08
1.01176e-10
1.06137e-08
9.696e-11
1.05829e-08
9.29989e-11
1.05532e-08
8.92804e-11
1.05248e-08
8.57928e-11
1.04974e-08
8.25244e-11
1.0471e-08
7.94645e-11
1.04456e-08
7.66029e-11
1.0421e-08
7.39294e-11
1.03973e-08
7.14343e-11
1.03743e-08
6.91089e-11
1.03521e-08
6.69444e-11
1.03305e-08
6.49322e-11
1.03096e-08
6.30645e-11
1.02892e-08
6.13337e-11
1.02693e-08
5.97322e-11
1.025e-08
5.82534e-11
1.02311e-08
5.68904e-11
1.02126e-08
5.56371e-11
1.01944e-08
5.4487e-11
1.01767e-08
5.34348e-11
1.01592e-08
5.24746e-11
1.0142e-08
5.16014e-11
1.01251e-08
5.08101e-11
1.01085e-08
5.0096e-11
1.0092e-08
4.94546e-11
1.00757e-08
4.88817e-11
1.00596e-08
4.8373e-11
1.00437e-08
4.7925e-11
1.00279e-08
4.75339e-11
1.00121e-08
4.71963e-11
9.99652e-09
4.69088e-11
9.98098e-09
4.66687e-11
9.9655e-09
4.6473e-11
9.95007e-09
4.63191e-11
9.93468e-09
4.62043e-11
9.91931e-09
4.61264e-11
9.90396e-09
4.60834e-11
9.88861e-09
4.60732e-11
9.87326e-09
4.6094e-11
9.85788e-09
4.61443e-11
9.84248e-09
4.62227e-11
9.82704e-09
4.63279e-11
9.81156e-09
4.6459e-11
9.79603e-09
4.66156e-11
9.78044e-09
4.6797e-11
9.76477e-09
4.70033e-11
9.74903e-09
4.72349e-11
9.73321e-09
4.74926e-11
9.71729e-09
4.77782e-11
9.70126e-09
4.80938e-11
9.68512e-09
4.84427e-11
9.66885e-09
4.88294e-11
9.65244e-09
4.926e-11
9.63587e-09
4.97425e-11
9.61912e-09
5.02873e-11
9.60216e-09
5.09085e-11
9.58497e-09
5.16241e-11
9.56751e-09
5.24581e-11
9.54972e-09
5.34418e-11
9.53155e-09
5.46165e-11
9.51291e-09
5.6037e-11
9.49371e-09
5.77761e-11
9.4738e-09
5.99321e-11
9.45302e-09
6.26381e-11
9.43112e-09
6.60772e-11
9.40779e-09
7.05061e-11
9.38259e-09
7.62908e-11
9.35494e-09
8.39674e-11
9.32398e-09
9.43469e-11
9.2885e-09
1.08708e-10
9.24666e-09
1.29173e-10
9.19568e-09
1.59502e-10
9.13112e-09
2.0692e-10
9.04625e-09
2.8668e-10
8.93439e-09
4.33995e-10
7.31419e-10
8.8191e-09
2.5089e-10
-9.25973e-10
5.03417e-10
-9.31811e-10
7.57287e-10
-9.36711e-10
1.01219e-09
-9.40639e-10
1.26783e-09
-9.43572e-10
1.52387e-09
-9.45496e-10
1.78e-09
-9.46408e-10
2.03591e-09
-9.46319e-10
2.29127e-09
-9.45249e-10
2.54577e-09
-9.43225e-10
2.79912e-09
-9.40286e-10
3.05102e-09
-9.36472e-10
3.30118e-09
-9.31831e-10
3.54935e-09
-9.26412e-10
3.79525e-09
-9.20267e-10
4.03865e-09
-9.13448e-10
4.27933e-09
-9.06005e-10
4.51707e-09
-8.97986e-10
4.75168e-09
-8.89433e-10
4.983e-09
-8.80386e-10
5.21086e-09
-8.70882e-10
5.43516e-09
-8.60953e-10
5.6558e-09
-8.50637e-10
5.87271e-09
-8.39971e-10
6.08585e-09
-8.29006e-10
6.29523e-09
-8.17799e-10
6.50084e-09
-8.06425e-10
6.70272e-09
-7.94973e-10
6.90092e-09
-7.83549e-10
7.0955e-09
-7.72274e-10
7.28654e-09
-7.61282e-10
7.47414e-09
-7.50718e-10
7.65842e-09
-7.40738e-10
7.83952e-09
-7.31501e-10
8.01761e-09
-7.23172e-10
8.19292e-09
-7.15917e-10
8.36568e-09
-7.09906e-10
8.53619e-09
-7.05313e-10
8.7048e-09
-7.02317e-10
8.87191e-09
-7.0111e-10
9.03801e-09
-7.01897e-10
9.20363e-09
-7.04912e-10
9.36938e-09
-7.10426e-10
9.53597e-09
-7.18758e-10
9.70414e-09
-7.30298e-10
9.87474e-09
-7.4552e-10
1.00487e-08
-7.6501e-10
1.02269e-08
-7.89492e-10
1.04106e-08
-8.19863e-10
1.06006e-08
-8.57241e-10
1.07982e-08
-9.0302e-10
1.10045e-08
-9.58944e-10
1.12205e-08
-1.0272e-09
1.14468e-08
-1.11052e-09
1.16837e-08
-1.2123e-09
1.19309e-08
-1.33665e-09
1.21881e-08
-1.48863e-09
1.24601e-08
-1.67497e-09
1.27781e-08
-1.90823e-09
1.32766e-08
-2.22513e-09
1.44524e-08
-2.75368e-09
1.41043e-08
-4.86538e-09
1.48767e-08
7.92798e-10
1.47163e-08
1.4781e-09
1.45166e-08
1.33712e-09
1.4304e-08
1.20654e-09
1.40906e-08
1.09328e-09
1.38826e-08
9.9635e-10
1.36832e-08
9.13244e-10
1.34937e-08
8.41495e-10
1.33144e-08
7.7899e-10
1.31453e-08
7.24017e-10
1.29857e-08
6.7522e-10
1.28353e-08
6.31536e-10
1.26933e-08
5.9213e-10
1.25593e-08
5.56343e-10
1.24327e-08
5.23652e-10
1.23129e-08
4.93635e-10
1.21996e-08
4.65951e-10
1.20923e-08
4.40319e-10
1.19906e-08
4.16505e-10
1.18941e-08
3.94317e-10
1.18027e-08
3.7359e-10
1.17159e-08
3.54186e-10
1.16334e-08
3.35987e-10
1.15551e-08
3.1889e-10
1.14807e-08
3.02807e-10
1.141e-08
2.87663e-10
1.13427e-08
2.73389e-10
1.12788e-08
2.59927e-10
1.12179e-08
2.47223e-10
1.11599e-08
2.35231e-10
1.11047e-08
2.23907e-10
1.10522e-08
2.13215e-10
1.10021e-08
2.03117e-10
1.09543e-08
1.93583e-10
1.09087e-08
1.84583e-10
1.08653e-08
1.76089e-10
1.08238e-08
1.68076e-10
1.07841e-08
1.60519e-10
1.07462e-08
1.53396e-10
1.07099e-08
1.46685e-10
1.06752e-08
1.40367e-10
1.0642e-08
1.34423e-10
1.06101e-08
1.28834e-10
1.05795e-08
1.23583e-10
1.05502e-08
1.18654e-10
1.05219e-08
1.1403e-10
1.04948e-08
1.09697e-10
1.04686e-08
1.05641e-10
1.04433e-08
1.01847e-10
1.0419e-08
9.83027e-11
1.03954e-08
9.49953e-11
1.03726e-08
9.19126e-11
1.03505e-08
8.90432e-11
1.03291e-08
8.6376e-11
1.03082e-08
8.39003e-11
1.02879e-08
8.16061e-11
1.02682e-08
7.94837e-11
1.02489e-08
7.75239e-11
1.02301e-08
7.57176e-11
1.02117e-08
7.40568e-11
1.01936e-08
7.25331e-11
1.01759e-08
7.1139e-11
1.01585e-08
6.98672e-11
1.01414e-08
6.87105e-11
1.01246e-08
6.76628e-11
1.0108e-08
6.67173e-11
1.00915e-08
6.58683e-11
1.00753e-08
6.51101e-11
1.00592e-08
6.44373e-11
1.00433e-08
6.38447e-11
1.00275e-08
6.33278e-11
1.00118e-08
6.28819e-11
9.99625e-09
6.25025e-11
9.98073e-09
6.2186e-11
9.96528e-09
6.19283e-11
9.94987e-09
6.1726e-11
9.9345e-09
6.15757e-11