/*--------------------------------*- C++ -*----------------------------------*\
  =========                 |
  \\      /  F ield         | OpenFOAM: The Open Source CFD Toolbox
   \\    /   O peration     | Website:  https://openfoam.org
    \\  /    A nd           | Version:  10
     \\/     M anipulation  |
\*---------------------------------------------------------------------------*/
FoamFile
{
    format      ascii;
    class       volScalarField;
    location    "2.53";
    object      Sb;
}
// * * * * * * * * * * * * * * * * * * * * * * * * * * * * * * * * * * * * * //

dimensions      [0 0 0 0 0 0 0];

internalField   nonuniform List<scalar> 
12225
(
0.878479
0.877515
0.876312
0.874995
0.87365
0.872332
0.871075
0.869902
0.868824
0.867852
0.866995
0.866262
0.865671
0.865251
0.865056
0.865212
0.866053
0.868609
0.88997
0.888751
0.887246
0.885616
0.883966
0.882364
0.880849
0.879443
0.878161
0.87701
0.875998
0.875136
0.874439
0.873936
0.873682
0.873788
0.874485
0.876171
0.897177
0.895747
0.893997
0.892116
0.890228
0.888407
0.886695
0.885115
0.883679
0.882394
0.881266
0.880303
0.87952
0.878942
0.878613
0.878615
0.879076
0.880112
0.902895
0.90126
0.899277
0.897161
0.895053
0.893032
0.891142
0.889405
0.887832
0.886427
0.885193
0.884137
0.883269
0.882608
0.882187
0.882053
0.88226
0.882808
0.907896
0.906049
0.903829
0.901479
0.899153
0.896936
0.894873
0.892985
0.89128
0.889758
0.888421
0.887271
0.886314
0.88556
0.885029
0.884741
0.884703
0.884869
0.912514
0.910441
0.90797
0.905377
0.902827
0.900412
0.898175
0.896135
0.894296
0.892657
0.891214
0.889965
0.888911
0.888055
0.887401
0.88695
0.886683
0.886543
0.916934
0.91461
0.911869
0.909017
0.906233
0.903611
0.901194
0.898997
0.89702
0.895259
0.893705
0.892352
0.891193
0.890224
0.889439
0.888822
0.888345
0.887951
0.921272
0.918666
0.915627
0.912495
0.909461
0.90662
0.904014
0.901653
0.899532
0.897643
0.895971
0.894506
0.893234
0.892145
0.891222
0.890443
0.889774
0.889165
0.925616
0.922685
0.919314
0.915875
0.912569
0.909495
0.906687
0.904153
0.901881
0.899856
0.898059
0.896474
0.895082
0.893865
0.892802
0.891866
0.891021
0.890227
0.930039
0.926728
0.92298
0.919199
0.915597
0.91227
0.909248
0.906529
0.904096
0.901927
0.899998
0.898285
0.896766
0.895418
0.894214
0.893126
0.892121
0.891165
0.934606
0.930844
0.926661
0.922498
0.91857
0.914968
0.911715
0.908799
0.906195
0.903873
0.901804
0.899958
0.898307
0.896824
0.895481
0.894248
0.893096
0.891994
0.939386
0.935075
0.930388
0.92579
0.921501
0.9176
0.914098
0.910972
0.908187
0.905705
0.903489
0.901503
0.899716
0.898097
0.896616
0.895245
0.893955
0.892723
0.943696
0.938803
0.933603
0.92858
0.923945
0.919765
0.916034
0.912717
0.909768
0.90714
0.904792
0.902682
0.900776
0.89904
0.897445
0.895962
0.894565
0.893233
0.948919
0.943213
0.93733
0.931758
0.926689
0.922163
0.918155
0.914609
0.911466
0.908669
0.906167
0.903916
0.901876
0.900013
0.898294
0.896692
0.895183
0.893747
0.955335
0.948454
0.941636
0.935342
0.929721
0.924772
0.92043
0.916614
0.913246
0.910256
0.907583
0.905176
0.902991
0.900989
0.899138
0.897408
0.895776
0.894223
0.963435
0.95478
0.946622
0.939346
0.933012
0.92754
0.922804
0.918683
0.915069
0.911873
0.909019
0.906443
0.904095
0.901931
0.899919
0.898029
0.896242
0.894542
0.97476
0.963427
0.953215
0.944533
0.937259
0.931124
0.925883
0.921349
0.917379
0.913853
0.910658
0.907745
0.905073
0.902606
0.900314
0.898175
0.896168
0.894279
0.959923
0.952072
0.944695
0.938007
0.932052
0.926782
0.922117
0.917969
0.914257
0.91092
0.907926
0.905192
0.902647
0.900272
0.89805
0.895968
0.894011
0.892169
0.945297
0.939962
0.934538
0.929366
0.92457
0.920182
0.916185
0.912548
0.909229
0.906192
0.903399
0.900838
0.898503
0.896335
0.894305
0.8924
0.890608
0.888919
0.934772
0.930871
0.926638
0.922421
0.918383
0.914594
0.911074
0.907816
0.904804
0.902017
0.899432
0.897027
0.894786
0.892721
0.890792
0.888976
0.887265
0.885648
0.925736
0.922749
0.91935
0.915846
0.912402
0.909104
0.905988
0.903066
0.900334
0.897783
0.895399
0.893168
0.891078
0.889115
0.887297
0.885584
0.883969
0.882443
0.917752
0.915377
0.912582
0.909622
0.906653
0.90376
0.900989
0.898361
0.895881
0.893546
0.891351
0.889286
0.887342
0.885511
0.883787
0.882177
0.880656
0.879216
0.910504
0.908563
0.90622
0.903687
0.901102
0.898548
0.896073
0.893703
0.891449
0.889313
0.887293
0.885383
0.883579
0.881873
0.880259
0.878745
0.877312
0.875954
0.903753
0.902133
0.90014
0.89795
0.895683
0.893417
0.891199
0.889059
0.887008
0.885053
0.883195
0.881431
0.879758
0.878171
0.876666
0.875238
0.873895
0.87262
0.897288
0.895917
0.894205
0.892297
0.890299
0.888283
0.886293
0.884357
0.882492
0.880704
0.878997
0.87737
0.875821
0.874348
0.872946
0.871613
0.870353
0.869155
0.890899
0.889729
0.888249
0.886582
0.884818
0.883022
0.881237
0.879489
0.877795
0.876164
0.874599
0.873103
0.871673
0.870309
0.869008
0.867767
0.866589
0.865468
0.884326
0.883325
0.882045
0.880588
0.879033
0.877438
0.875842
0.874271
0.872739
0.871258
0.869831
0.868461
0.867148
0.865891
0.864689
0.86354
0.862444
0.861401
0.877155
0.876303
0.875202
0.873938
0.872579
0.871174
0.86976
0.86836
0.866988
0.865655
0.864366
0.863124
0.861929
0.860782
0.859682
0.858628
0.857618
0.856655
0.868491
0.867781
0.866852
0.865777
0.864613
0.863402
0.862174
0.860952
0.859749
0.858573
0.857432
0.856327
0.855261
0.854233
0.853245
0.852295
0.851381
0.850509
0.854978
0.854418
0.853678
0.852811
0.851865
0.850872
0.849857
0.848839
0.84783
0.846838
0.845868
0.844924
0.844007
0.843119
0.84226
0.841431
0.84063
0.839862
0.767852
0.767861
0.767866
0.767866
0.767861
0.76785
0.767834
0.767814
0.767789
0.767762
0.767734
0.767705
0.767677
0.767651
0.767629
0.767613
0.767604
0.767605
0.767616
0.767641
0.767681
0.76774
0.767821
0.767927
0.768062
0.76823
0.768436
0.768685
0.768982
0.769334
0.769748
0.770231
0.77079
0.771436
0.772176
0.773018
0.773969
0.775033
0.77621
0.777493
0.778868
0.780312
0.781794
0.783277
0.784721
0.786089
0.787348
0.788473
0.789448
0.790262
0.79091
0.791385
0.791672
0.79174
0.791526
0.790894
0.789548
0.786746
0.780121
0.757018
0.446363
0.00176198
1.1e-06
1.1e-06
1.1e-06
1.1e-06
1.1e-06
1.1e-06
1.1e-06
1.1e-06
1.1e-06
1.1e-06
1.1e-06
1.1e-06
1.1e-06
1.1e-06
1.1e-06
1.1e-06
1.1e-06
1.1e-06
1.1e-06
1.1e-06
1.1e-06
1.1e-06
1.1e-06
1.1e-06
1.1e-06
1.1e-06
1.1e-06
1.1e-06
1.1e-06
1.1e-06
1.1e-06
1.1e-06
1.1e-06
1.1e-06
1.1e-06
1.1e-06
1.1e-06
1.1e-06
1.1e-06
1.1e-06
1.1e-06
1.1e-06
1.1e-06
1.1e-06
1.1e-06
1.1e-06
1.1e-06
1.1e-06
1.1e-06
1.1e-06
1.1e-06
1.1e-06
1.1e-06
1.1e-06
1.1e-06
1.1e-06
1.1e-06
1.1e-06
1.1e-06
1.1e-06
1.1e-06
1.1e-06
1.1e-06
1.1e-06
1.1e-06
1.1e-06
1.1e-06
1.1e-06
1.1e-06
1.1e-06
1.1e-06
1.1e-06
1.1e-06
1.1e-06
1.1e-06
1.1e-06
1.1e-06
1.1e-06
1.1e-06
1.1e-06
1.1e-06
1.1e-06
1.1e-06
1.1e-06
1.1e-06
1.1e-06
1.1e-06
1.1e-06
1.1e-06
1.1e-06
1.1e-06
1.1e-06
1.1e-06
1.1e-06
1.1e-06
1.1e-06
1.1e-06
1.1e-06
1.1e-06
1.1e-06
1.1e-06
1.1e-06
1.1e-06
1.1e-06
1.1e-06
1.1e-06
1.1e-06
1.1e-06
1.1e-06
1.1e-06
1.1e-06
1.1e-06
1.1e-06
1.1e-06
1.1e-06
1.1e-06
1.1e-06
1.1e-06
0.808704
0.808736
0.80877
0.808805
0.808839
0.808875
0.808915
0.808963
0.809023
0.809103
0.809208
0.809343
0.809514
0.809725
0.80998
0.810283
0.810635
0.811038
0.811489
0.811983
0.812514
0.813072
0.813644
0.814215
0.81477
0.815292
0.815766
0.816179
0.81652
0.81678
0.816953
0.817039
0.817035
0.816945
0.816772
0.816522
0.816198
0.815808
0.815356
0.814849
0.814291
0.813688
0.813045
0.812366
0.811656
0.810918
0.810154
0.809365
0.808549
0.807703
0.806817
0.805874
0.804847
0.803691
0.802328
0.80062
0.798295
0.794735
0.788189
0.771077
0.61977
0.0182405
1.12381e-06
1.1e-06
1.1e-06
1.1e-06
1.1e-06
1.1e-06
1.1e-06
1.1e-06
1.1e-06
1.1e-06
1.1e-06
1.1e-06
1.1e-06
1.1e-06
1.1e-06
1.1e-06
1.1e-06
1.1e-06
1.1e-06
1.1e-06
1.1e-06
1.1e-06
1.1e-06
1.1e-06
1.1e-06
1.1e-06
1.1e-06
1.1e-06
1.1e-06
1.1e-06
1.1e-06
1.1e-06
1.1e-06
1.1e-06
1.1e-06
1.1e-06
1.1e-06
1.1e-06
1.1e-06
1.1e-06
1.1e-06
1.1e-06
1.1e-06
1.1e-06
1.1e-06
1.1e-06
1.1e-06
1.1e-06
1.1e-06
1.1e-06
1.1e-06
1.1e-06
1.1e-06
1.1e-06
1.1e-06
1.1e-06
1.1e-06
1.1e-06
1.1e-06
1.1e-06
1.1e-06
1.1e-06
1.1e-06
1.1e-06
1.1e-06
1.1e-06
1.1e-06
1.1e-06
1.1e-06
1.1e-06
1.1e-06
1.1e-06
1.1e-06
1.1e-06
1.1e-06
1.1e-06
1.1e-06
1.1e-06
1.1e-06
1.1e-06
1.1e-06
1.1e-06
1.1e-06
1.1e-06
1.1e-06
1.1e-06
1.1e-06
1.1e-06
1.1e-06
1.1e-06
1.1e-06
1.1e-06
1.1e-06
1.1e-06
1.1e-06
1.1e-06
1.1e-06
1.1e-06
1.1e-06
1.1e-06
1.1e-06
1.1e-06
1.1e-06
1.1e-06
1.1e-06
1.1e-06
1.1e-06
1.1e-06
1.1e-06
1.1e-06
1.1e-06
1.1e-06
1.1e-06
1.1e-06
1.1e-06
1.1e-06
1.1e-06
1.1e-06
0.819849
0.819899
0.819943
0.819983
0.820018
0.820046
0.820072
0.820098
0.820129
0.82017
0.820225
0.820301
0.8204
0.820528
0.820686
0.820879
0.821106
0.821368
0.821662
0.821984
0.822327
0.82268
0.823032
0.823369
0.823675
0.823936
0.82414
0.824274
0.824331
0.824304
0.824192
0.823994
0.823713
0.823353
0.822919
0.822417
0.821855
0.821239
0.820575
0.819871
0.819133
0.818366
0.817575
0.816765
0.81594
0.815101
0.814249
0.813383
0.8125
0.811592
0.810647
0.809646
0.808561
0.807348
0.805934
0.804197
0.801907
0.798577
0.792941
0.780336
0.717937
0.114911
1.25199e-05
1.1e-06
1.1e-06
1.1e-06
1.1e-06
1.1e-06
1.1e-06
1.1e-06
1.1e-06
1.1e-06
1.1e-06
1.1e-06
1.1e-06
1.1e-06
1.1e-06
1.1e-06
1.1e-06
1.1e-06
1.1e-06
1.1e-06
1.1e-06
1.1e-06
1.1e-06
1.1e-06
1.1e-06
1.1e-06
1.1e-06
1.1e-06
1.1e-06
1.1e-06
1.1e-06
1.1e-06
1.1e-06
1.1e-06
1.1e-06
1.1e-06
1.1e-06
1.1e-06
1.1e-06
1.1e-06
1.1e-06
1.1e-06
1.1e-06
1.1e-06
1.1e-06
1.1e-06
1.1e-06
1.1e-06
1.1e-06
1.1e-06
1.1e-06
1.1e-06
1.1e-06
1.1e-06
1.1e-06
1.1e-06
1.1e-06
1.1e-06
1.1e-06
1.1e-06
1.1e-06
1.1e-06
1.1e-06
1.1e-06
1.1e-06
1.1e-06
1.1e-06
1.1e-06
1.1e-06
1.1e-06
1.1e-06
1.1e-06
1.1e-06
1.1e-06
1.1e-06
1.1e-06
1.1e-06
1.1e-06
1.1e-06
1.1e-06
1.1e-06
1.1e-06
1.1e-06
1.1e-06
1.1e-06
1.1e-06
1.1e-06
1.1e-06
1.1e-06
1.1e-06
1.1e-06
1.1e-06
1.1e-06
1.1e-06
1.1e-06
1.1e-06
1.1e-06
1.1e-06
1.1e-06
1.1e-06
1.1e-06
1.1e-06
1.1e-06
1.1e-06
1.1e-06
1.1e-06
1.1e-06
1.1e-06
1.1e-06
1.1e-06
1.1e-06
1.1e-06
1.1e-06
1.1e-06
1.1e-06
1.1e-06
1.1e-06
1.1e-06
0.826419
0.826495
0.82656
0.826616
0.82666
0.826693
0.826715
0.826727
0.826732
0.82673
0.826726
0.82672
0.826715
0.826712
0.826712
0.826716
0.826724
0.826735
0.826749
0.826762
0.826772
0.826775
0.826766
0.826741
0.826695
0.826622
0.826517
0.826378
0.826198
0.825977
0.825712
0.825401
0.825046
0.824646
0.824203
0.823719
0.823198
0.822641
0.822053
0.821437
0.820796
0.820132
0.819449
0.818747
0.818028
0.817291
0.816535
0.815756
0.814949
0.814105
0.813212
0.81225
0.811194
0.810004
0.808617
0.806931
0.804763
0.801742
0.796983
0.787693
0.757651
0.339116
0.000306353
1.1e-06
1.1e-06
1.1e-06
1.1e-06
1.1e-06
1.1e-06
1.1e-06
1.1e-06
1.1e-06
1.1e-06
1.1e-06
1.1e-06
1.1e-06
1.1e-06
1.1e-06
1.1e-06
1.1e-06
1.1e-06
1.1e-06
1.1e-06
1.1e-06
1.1e-06
1.1e-06
1.1e-06
1.1e-06
1.1e-06
1.1e-06
1.1e-06
1.1e-06
1.1e-06
1.1e-06
1.1e-06
1.1e-06
1.1e-06
1.1e-06
1.1e-06
1.1e-06
1.1e-06
1.1e-06
1.1e-06
1.1e-06
1.1e-06
1.1e-06
1.1e-06
1.1e-06
1.1e-06
1.1e-06
1.1e-06
1.1e-06
1.1e-06
1.1e-06
1.1e-06
1.1e-06
1.1e-06
1.1e-06
1.1e-06
1.1e-06
1.1e-06
1.1e-06
1.1e-06
1.1e-06
1.1e-06
1.1e-06
1.1e-06
1.1e-06
1.1e-06
1.1e-06
1.1e-06
1.1e-06
1.1e-06
1.1e-06
1.1e-06
1.1e-06
1.1e-06
1.1e-06
1.1e-06
1.1e-06
1.1e-06
1.1e-06
1.1e-06
1.1e-06
1.1e-06
1.1e-06
1.1e-06
1.1e-06
1.1e-06
1.1e-06
1.1e-06
1.1e-06
1.1e-06
1.1e-06
1.1e-06
1.1e-06
1.1e-06
1.1e-06
1.1e-06
1.1e-06
1.1e-06
1.1e-06
1.1e-06
1.1e-06
1.1e-06
1.1e-06
1.1e-06
1.1e-06
1.1e-06
1.1e-06
1.1e-06
1.1e-06
1.1e-06
1.1e-06
1.1e-06
1.1e-06
1.1e-06
1.1e-06
1.1e-06
1.1e-06
0.831292
0.8314
0.831492
0.831569
0.83163
0.831674
0.831701
0.831711
0.831705
0.831684
0.831648
0.8316
0.831539
0.831466
0.831383
0.831288
0.831184
0.831069
0.830943
0.830805
0.830654
0.830489
0.830309
0.830111
0.829893
0.829655
0.829394
0.829109
0.828797
0.828459
0.828092
0.827697
0.827273
0.826821
0.826342
0.825835
0.825304
0.824748
0.824169
0.823569
0.822949
0.82231
0.821653
0.820978
0.820284
0.819569
0.81883
0.818064
0.817264
0.816421
0.815523
0.814555
0.813491
0.812299
0.810926
0.809288
0.807241
0.80451
0.800489
0.793518
0.776781
0.651815
0.0272197
1.2921e-06
1.1e-06
1.1e-06
1.1e-06
1.1e-06
1.1e-06
1.1e-06
1.1e-06
1.1e-06
1.1e-06
1.1e-06
1.1e-06
1.1e-06
1.1e-06
1.1e-06
1.1e-06
1.1e-06
1.1e-06
1.1e-06
1.1e-06
1.1e-06
1.1e-06
1.1e-06
1.1e-06
1.1e-06
1.1e-06
1.1e-06
1.1e-06
1.1e-06
1.1e-06
1.1e-06
1.1e-06
1.1e-06
1.1e-06
1.1e-06
1.1e-06
1.1e-06
1.1e-06
1.1e-06
1.1e-06
1.1e-06
1.1e-06
1.1e-06
1.1e-06
1.1e-06
1.1e-06
1.1e-06
1.1e-06
1.1e-06
1.1e-06
1.1e-06
1.1e-06
1.1e-06
1.1e-06
1.1e-06
1.1e-06
1.1e-06
1.1e-06
1.1e-06
1.1e-06
1.1e-06
1.1e-06
1.1e-06
1.1e-06
1.1e-06
1.1e-06
1.1e-06
1.1e-06
1.1e-06
1.1e-06
1.1e-06
1.1e-06
1.1e-06
1.1e-06
1.1e-06
1.1e-06
1.1e-06
1.1e-06
1.1e-06
1.1e-06
1.1e-06
1.1e-06
1.1e-06
1.1e-06
1.1e-06
1.1e-06
1.1e-06
1.1e-06
1.1e-06
1.1e-06
1.1e-06
1.1e-06
1.1e-06
1.1e-06
1.1e-06
1.1e-06
1.1e-06
1.1e-06
1.1e-06
1.1e-06
1.1e-06
1.1e-06
1.1e-06
1.1e-06
1.1e-06
1.1e-06
1.1e-06
1.1e-06
1.1e-06
1.1e-06
1.1e-06
1.1e-06
1.1e-06
1.1e-06
1.1e-06
1.1e-06
1.1e-06
0.835305
0.835447
0.835569
0.835671
0.835752
0.835811
0.835848
0.835862
0.835854
0.835824
0.835773
0.8357
0.835606
0.835493
0.835359
0.835207
0.835035
0.834845
0.834637
0.834411
0.834166
0.833903
0.833621
0.83332
0.833
0.83266
0.8323
0.83192
0.83152
0.831098
0.830655
0.830192
0.829707
0.829202
0.828677
0.828132
0.827568
0.826986
0.826386
0.825768
0.825134
0.824482
0.823813
0.823126
0.822419
0.82169
0.820936
0.820153
0.819333
0.81847
0.817552
0.816564
0.815487
0.81429
0.812932
0.811345
0.809416
0.806942
0.803502
0.798071
0.787246
0.747986
0.228498
7.90173e-05
1.1e-06
1.1e-06
1.1e-06
1.1e-06
1.1e-06
1.1e-06
1.1e-06
1.1e-06
1.1e-06
1.1e-06
1.1e-06
1.1e-06
1.1e-06
1.1e-06
1.1e-06
1.1e-06
1.1e-06
1.1e-06
1.1e-06
1.1e-06
1.1e-06
1.1e-06
1.1e-06
1.1e-06
1.1e-06
1.1e-06
1.1e-06
1.1e-06
1.1e-06
1.1e-06
1.1e-06
1.1e-06
1.1e-06
1.1e-06
1.1e-06
1.1e-06
1.1e-06
1.1e-06
1.1e-06
1.1e-06
1.1e-06
1.1e-06
1.1e-06
1.1e-06
1.1e-06
1.1e-06
1.1e-06
1.1e-06
1.1e-06
1.1e-06
1.1e-06
1.1e-06
1.1e-06
1.1e-06
1.1e-06
1.1e-06
1.1e-06
1.1e-06
1.1e-06
1.1e-06
1.1e-06
1.1e-06
1.1e-06
1.1e-06
1.1e-06
1.1e-06
1.1e-06
1.1e-06
1.1e-06
1.1e-06
1.1e-06
1.1e-06
1.1e-06
1.1e-06
1.1e-06
1.1e-06
1.1e-06
1.1e-06
1.1e-06
1.1e-06
1.1e-06
1.1e-06
1.1e-06
1.1e-06
1.1e-06
1.1e-06
1.1e-06
1.1e-06
1.1e-06
1.1e-06
1.1e-06
1.1e-06
1.1e-06
1.1e-06
1.1e-06
1.1e-06
1.1e-06
1.1e-06
1.1e-06
1.1e-06
1.1e-06
1.1e-06
1.1e-06
1.1e-06
1.1e-06
1.1e-06
1.1e-06
1.1e-06
1.1e-06
1.1e-06
1.1e-06
1.1e-06
1.1e-06
1.1e-06
1.1e-06
1.1e-06
0.838809
0.838986
0.83914
0.839269
0.839373
0.83945
0.839499
0.839521
0.839516
0.839482
0.839421
0.839332
0.839216
0.839074
0.838906
0.838713
0.838495
0.838253
0.837988
0.8377
0.83739
0.837058
0.836705
0.836332
0.835939
0.835525
0.835093
0.834642
0.834171
0.833683
0.833177
0.832653
0.832112
0.831554
0.83098
0.830389
0.829784
0.829162
0.828526
0.827875
0.827208
0.826526
0.825827
0.825111
0.824375
0.823617
0.822834
0.822021
0.821173
0.820283
0.81934
0.818332
0.817242
0.816045
0.814705
0.813169
0.811348
0.809092
0.806106
0.80174
0.794188
0.775741
0.616657
0.0146292
1.10871e-06
1.1e-06
1.1e-06
1.1e-06
1.1e-06
1.1e-06
1.1e-06
1.1e-06
1.1e-06
1.1e-06
1.1e-06
1.1e-06
1.1e-06
1.1e-06
1.1e-06
1.1e-06
1.1e-06
1.1e-06
1.1e-06
1.1e-06
1.1e-06
1.1e-06
1.1e-06
1.1e-06
1.1e-06
1.1e-06
1.1e-06
1.1e-06
1.1e-06
1.1e-06
1.1e-06
1.1e-06
1.1e-06
1.1e-06
1.1e-06
1.1e-06
1.1e-06
1.1e-06
1.1e-06
1.1e-06
1.1e-06
1.1e-06
1.1e-06
1.1e-06
1.1e-06
1.1e-06
1.1e-06
1.1e-06
1.1e-06
1.1e-06
1.1e-06
1.1e-06
1.1e-06
1.1e-06
1.1e-06
1.1e-06
1.1e-06
1.1e-06
1.1e-06
1.1e-06
1.1e-06
1.1e-06
1.1e-06
1.1e-06
1.1e-06
1.1e-06
1.1e-06
1.1e-06
1.1e-06
1.1e-06
1.1e-06
1.1e-06
1.1e-06
1.1e-06
1.1e-06
1.1e-06
1.1e-06
1.1e-06
1.1e-06
1.1e-06
1.1e-06
1.1e-06
1.1e-06
1.1e-06
1.1e-06
1.1e-06
1.1e-06
1.1e-06
1.1e-06
1.1e-06
1.1e-06
1.1e-06
1.1e-06
1.1e-06
1.1e-06
1.1e-06
1.1e-06
1.1e-06
1.1e-06
1.1e-06
1.1e-06
1.1e-06
1.1e-06
1.1e-06
1.1e-06
1.1e-06
1.1e-06
1.1e-06
1.1e-06
1.1e-06
1.1e-06
1.1e-06
1.1e-06
1.1e-06
1.1e-06
1.1e-06
0.841985
0.842199
0.842386
0.842543
0.842671
0.842767
0.84283
0.842861
0.842859
0.842824
0.842756
0.842654
0.842521
0.842355
0.842159
0.841932
0.841676
0.841392
0.84108
0.840743
0.84038
0.839993
0.839582
0.83915
0.838696
0.838222
0.837729
0.837217
0.836686
0.836139
0.835575
0.834995
0.8344
0.83379
0.833166
0.832527
0.831875
0.83121
0.830531
0.829839
0.829132
0.828412
0.827675
0.826922
0.826151
0.825358
0.824541
0.823696
0.822818
0.8219
0.820934
0.819908
0.818808
0.817612
0.816292
0.814804
0.813079
0.811003
0.808367
0.804743
0.799082
0.7879
0.74736
0.218283
7.00741e-05
1.1e-06
1.1e-06
1.1e-06
1.1e-06
1.1e-06
1.1e-06
1.1e-06
1.1e-06
1.1e-06
1.1e-06
1.1e-06
1.1e-06
1.1e-06
1.1e-06
1.1e-06
1.1e-06
1.1e-06
1.1e-06
1.1e-06
1.1e-06
1.1e-06
1.1e-06
1.1e-06
1.1e-06
1.1e-06
1.1e-06
1.1e-06
1.1e-06
1.1e-06
1.1e-06
1.1e-06
1.1e-06
1.1e-06
1.1e-06
1.1e-06
1.1e-06
1.1e-06
1.1e-06
1.1e-06
1.1e-06
1.1e-06
1.1e-06
1.1e-06
1.1e-06
1.1e-06
1.1e-06
1.1e-06
1.1e-06
1.1e-06
1.1e-06
1.1e-06
1.1e-06
1.1e-06
1.1e-06
1.1e-06
1.1e-06
1.1e-06
1.1e-06
1.1e-06
1.1e-06
1.1e-06
1.1e-06
1.1e-06
1.1e-06
1.1e-06
1.1e-06
1.1e-06
1.1e-06
1.1e-06
1.1e-06
1.1e-06
1.1e-06
1.1e-06
1.1e-06
1.1e-06
1.1e-06
1.1e-06
1.1e-06
1.1e-06
1.1e-06
1.1e-06
1.1e-06
1.1e-06
1.1e-06
1.1e-06
1.1e-06
1.1e-06
1.1e-06
1.1e-06
1.1e-06
1.1e-06
1.1e-06
1.1e-06
1.1e-06
1.1e-06
1.1e-06
1.1e-06
1.1e-06
1.1e-06
1.1e-06
1.1e-06
1.1e-06
1.1e-06
1.1e-06
1.1e-06
1.1e-06
1.1e-06
1.1e-06
1.1e-06
1.1e-06
1.1e-06
1.1e-06
1.1e-06
1.1e-06
1.1e-06
0.844931
0.845184
0.845405
0.845592
0.845745
0.845861
0.84594
0.845981
0.845983
0.845946
0.845871
0.845758
0.845607
0.84542
0.845197
0.844939
0.844648
0.844324
0.843971
0.843588
0.843177
0.842739
0.842277
0.841791
0.841283
0.840753
0.840204
0.839636
0.83905
0.838448
0.837829
0.837196
0.836548
0.835887
0.835212
0.834525
0.833826
0.833114
0.83239
0.831654
0.830906
0.830144
0.829367
0.828575
0.827766
0.826938
0.826086
0.825209
0.824302
0.823358
0.82237
0.821328
0.82022
0.819029
0.817728
0.816284
0.814642
0.812714
0.810349
0.807255
0.802791
0.795184
0.777016
0.630343
0.0184567
1.13419e-06
1.1e-06
1.1e-06
1.1e-06
1.1e-06
1.1e-06
1.1e-06
1.1e-06
1.1e-06
1.1e-06
1.1e-06
1.1e-06
1.1e-06
1.1e-06
1.1e-06
1.1e-06
1.1e-06
1.1e-06
1.1e-06
1.1e-06
1.1e-06
1.1e-06
1.1e-06
1.1e-06
1.1e-06
1.1e-06
1.1e-06
1.1e-06
1.1e-06
1.1e-06
1.1e-06
1.1e-06
1.1e-06
1.1e-06
1.1e-06
1.1e-06
1.1e-06
1.1e-06
1.1e-06
1.1e-06
1.1e-06
1.1e-06
1.1e-06
1.1e-06
1.1e-06
1.1e-06
1.1e-06
1.1e-06
1.1e-06
1.1e-06
1.1e-06
1.1e-06
1.1e-06
1.1e-06
1.1e-06
1.1e-06
1.1e-06
1.1e-06
1.1e-06
1.1e-06
1.1e-06
1.1e-06
1.1e-06
1.1e-06
1.1e-06
1.1e-06
1.1e-06
1.1e-06
1.1e-06
1.1e-06
1.1e-06
1.1e-06
1.1e-06
1.1e-06
1.1e-06
1.1e-06
1.1e-06
1.1e-06
1.1e-06
1.1e-06
1.1e-06
1.1e-06
1.1e-06
1.1e-06
1.1e-06
1.1e-06
1.1e-06
1.1e-06
1.1e-06
1.1e-06
1.1e-06
1.1e-06
1.1e-06
1.1e-06
1.1e-06
1.1e-06
1.1e-06
1.1e-06
1.1e-06
1.1e-06
1.1e-06
1.1e-06
1.1e-06
1.1e-06
1.1e-06
1.1e-06
1.1e-06
1.1e-06
1.1e-06
1.1e-06
1.1e-06
1.1e-06
1.1e-06
1.1e-06
1.1e-06
0.847707
0.847999
0.848256
0.848475
0.848654
0.848792
0.848886
0.848937
0.848944
0.848906
0.848824
0.848698
0.84853
0.84832
0.848069
0.84778
0.847454
0.847092
0.846696
0.846268
0.845811
0.845325
0.844812
0.844274
0.843713
0.843131
0.842528
0.841906
0.841267
0.840611
0.83994
0.839254
0.838555
0.837844
0.83712
0.836384
0.835637
0.834879
0.834111
0.833331
0.832539
0.831736
0.830919
0.830089
0.829242
0.828378
0.827494
0.826586
0.825651
0.824683
0.823676
0.822621
0.821507
0.820319
0.819037
0.817632
0.81606
0.814253
0.812099
0.809393
0.805717
0.800064
0.789147
0.751814
0.250795
0.000106755
1.1e-06
1.1e-06
1.1e-06
1.1e-06
1.1e-06
1.1e-06
1.1e-06
1.1e-06
1.1e-06
1.1e-06
1.1e-06
1.1e-06
1.1e-06
1.1e-06
1.1e-06
1.1e-06
1.1e-06
1.1e-06
1.1e-06
1.1e-06
1.1e-06
1.1e-06
1.1e-06
1.1e-06
1.1e-06
1.1e-06
1.1e-06
1.1e-06
1.1e-06
1.1e-06
1.1e-06
1.1e-06
1.1e-06
1.1e-06
1.1e-06
1.1e-06
1.1e-06
1.1e-06
1.1e-06
1.1e-06
1.1e-06
1.1e-06
1.1e-06
1.1e-06
1.1e-06
1.1e-06
1.1e-06
1.1e-06
1.1e-06
1.1e-06
1.1e-06
1.1e-06
1.1e-06
1.1e-06
1.1e-06
1.1e-06
1.1e-06
1.1e-06
1.1e-06
1.1e-06
1.1e-06
1.1e-06
1.1e-06
1.1e-06
1.1e-06
1.1e-06
1.1e-06
1.1e-06
1.1e-06
1.1e-06
1.1e-06
1.1e-06
1.1e-06
1.1e-06
1.1e-06
1.1e-06
1.1e-06
1.1e-06
1.1e-06
1.1e-06
1.1e-06
1.1e-06
1.1e-06
1.1e-06
1.1e-06
1.1e-06
1.1e-06
1.1e-06
1.1e-06
1.1e-06
1.1e-06
1.1e-06
1.1e-06
1.1e-06
1.1e-06
1.1e-06
1.1e-06
1.1e-06
1.1e-06
1.1e-06
1.1e-06
1.1e-06
1.1e-06
1.1e-06
1.1e-06
1.1e-06
1.1e-06
1.1e-06
1.1e-06
1.1e-06
1.1e-06
1.1e-06
1.1e-06
1.1e-06
0.850344
0.850679
0.850974
0.851227
0.851434
0.851594
0.851705
0.851766
0.851777
0.851738
0.851648
0.851509
0.851321
0.851087
0.850808
0.850486
0.850123
0.84972
0.849282
0.848809
0.848303
0.847768
0.847205
0.846616
0.846003
0.845368
0.844712
0.844038
0.843346
0.842638
0.841916
0.841179
0.84043
0.839669
0.838897
0.838114
0.83732
0.836517
0.835704
0.834881
0.834047
0.833203
0.832348
0.83148
0.830598
0.8297
0.828784
0.827848
0.826887
0.825897
0.824872
0.823805
0.822686
0.821503
0.820238
0.818866
0.817354
0.815647
0.813659
0.811242
0.808113
0.803654
0.796194
0.778952
0.657075
0.0296033
1.39914e-06
1.1e-06
1.1e-06
1.1e-06
1.1e-06
1.1e-06
1.1e-06
1.1e-06
1.1e-06
1.1e-06
1.1e-06
1.1e-06
1.1e-06
1.1e-06
1.1e-06
1.1e-06
1.1e-06
1.1e-06
1.1e-06
1.1e-06
1.1e-06
1.1e-06
1.1e-06
1.1e-06
1.1e-06
1.1e-06
1.1e-06
1.1e-06
1.1e-06
1.1e-06
1.1e-06
1.1e-06
1.1e-06
1.1e-06
1.1e-06
1.1e-06
1.1e-06
1.1e-06
1.1e-06
1.1e-06
1.1e-06
1.1e-06
1.1e-06
1.1e-06
1.1e-06
1.1e-06
1.1e-06
1.1e-06
1.1e-06
1.1e-06
1.1e-06
1.1e-06
1.1e-06
1.1e-06
1.1e-06
1.1e-06
1.1e-06
1.1e-06
1.1e-06
1.1e-06
1.1e-06
1.1e-06
1.1e-06
1.1e-06
1.1e-06
1.1e-06
1.1e-06
1.1e-06
1.1e-06
1.1e-06
1.1e-06
1.1e-06
1.1e-06
1.1e-06
1.1e-06
1.1e-06
1.1e-06
1.1e-06
1.1e-06
1.1e-06
1.1e-06
1.1e-06
1.1e-06
1.1e-06
1.1e-06
1.1e-06
1.1e-06
1.1e-06
1.1e-06
1.1e-06
1.1e-06
1.1e-06
1.1e-06
1.1e-06
1.1e-06
1.1e-06
1.1e-06
1.1e-06
1.1e-06
1.1e-06
1.1e-06
1.1e-06
1.1e-06
1.1e-06
1.1e-06
1.1e-06
1.1e-06
1.1e-06
1.1e-06
1.1e-06
1.1e-06
1.1e-06
1.1e-06
1.1e-06
0.852862
0.853243
0.85358
0.853868
0.854106
0.85429
0.854419
0.854491
0.854506
0.854463
0.854364
0.85421
0.854002
0.853741
0.853431
0.853074
0.852671
0.852227
0.851743
0.851223
0.850669
0.850084
0.849469
0.848828
0.848163
0.847475
0.846767
0.846041
0.845297
0.844538
0.843765
0.842979
0.842181
0.841372
0.840553
0.839724
0.838885
0.838038
0.837182
0.836318
0.835444
0.834561
0.833668
0.832764
0.831848
0.830919
0.829973
0.82901
0.828025
0.827014
0.825974
0.824896
0.823773
0.822593
0.821343
0.820001
0.818539
0.816914
0.815058
0.812862
0.810124
0.806443
0.800855
0.790298
0.75629
0.292191
0.000177803
1.1e-06
1.1e-06
1.1e-06
1.1e-06
1.1e-06
1.1e-06
1.1e-06
1.1e-06
1.1e-06
1.1e-06
1.1e-06
1.1e-06
1.1e-06
1.1e-06
1.1e-06
1.1e-06
1.1e-06
1.1e-06
1.1e-06
1.1e-06
1.1e-06
1.1e-06
1.1e-06
1.1e-06
1.1e-06
1.1e-06
1.1e-06
1.1e-06
1.1e-06
1.1e-06
1.1e-06
1.1e-06
1.1e-06
1.1e-06
1.1e-06
1.1e-06
1.1e-06
1.1e-06
1.1e-06
1.1e-06
1.1e-06
1.1e-06
1.1e-06
1.1e-06
1.1e-06
1.1e-06
1.1e-06
1.1e-06
1.1e-06
1.1e-06
1.1e-06
1.1e-06
1.1e-06
1.1e-06
1.1e-06
1.1e-06
1.1e-06
1.1e-06
1.1e-06
1.1e-06
1.1e-06
1.1e-06
1.1e-06
1.1e-06
1.1e-06
1.1e-06
1.1e-06
1.1e-06
1.1e-06
1.1e-06
1.1e-06
1.1e-06
1.1e-06
1.1e-06
1.1e-06
1.1e-06
1.1e-06
1.1e-06
1.1e-06
1.1e-06
1.1e-06
1.1e-06
1.1e-06
1.1e-06
1.1e-06
1.1e-06
1.1e-06
1.1e-06
1.1e-06
1.1e-06
1.1e-06
1.1e-06
1.1e-06
1.1e-06
1.1e-06
1.1e-06
1.1e-06
1.1e-06
1.1e-06
1.1e-06
1.1e-06
1.1e-06
1.1e-06
1.1e-06
1.1e-06
1.1e-06
1.1e-06
1.1e-06
1.1e-06
1.1e-06
1.1e-06
1.1e-06
1.1e-06
0.855272
0.855703
0.856085
0.856412
0.856683
0.856893
0.85704
0.857124
0.857142
0.857096
0.856987
0.856815
0.856583
0.856294
0.85595
0.855554
0.85511
0.854621
0.85409
0.85352
0.852916
0.852278
0.851612
0.850918
0.8502
0.84946
0.8487
0.847922
0.847128
0.846319
0.845496
0.844662
0.843817
0.842961
0.842097
0.841223
0.840342
0.839453
0.838556
0.837652
0.83674
0.83582
0.834892
0.833954
0.833006
0.832047
0.831074
0.830085
0.829077
0.828048
0.826992
0.825905
0.824778
0.823602
0.822364
0.821048
0.819628
0.818071
0.816323
0.814298
0.81185
0.808704
0.804259
0.796916
0.780358
0.674615
0.0411062
1.93422e-06
1.1e-06
1.1e-06
1.1e-06
1.1e-06
1.1e-06
1.1e-06
1.1e-06
1.1e-06
1.1e-06
1.1e-06
1.1e-06
1.1e-06
1.1e-06
1.1e-06
1.1e-06
1.1e-06
1.1e-06
1.1e-06
1.1e-06
1.1e-06
1.1e-06
1.1e-06
1.1e-06
1.1e-06
1.1e-06
1.1e-06
1.1e-06
1.1e-06
1.1e-06
1.1e-06
1.1e-06
1.1e-06
1.1e-06
1.1e-06
1.1e-06
1.1e-06
1.1e-06
1.1e-06
1.1e-06
1.1e-06
1.1e-06
1.1e-06
1.1e-06
1.1e-06
1.1e-06
1.1e-06
1.1e-06
1.1e-06
1.1e-06
1.1e-06
1.1e-06
1.1e-06
1.1e-06
1.1e-06
1.1e-06
1.1e-06
1.1e-06
1.1e-06
1.1e-06
1.1e-06
1.1e-06
1.1e-06
1.1e-06
1.1e-06
1.1e-06
1.1e-06
1.1e-06
1.1e-06
1.1e-06
1.1e-06
1.1e-06
1.1e-06
1.1e-06
1.1e-06
1.1e-06
1.1e-06
1.1e-06
1.1e-06
1.1e-06
1.1e-06
1.1e-06
1.1e-06
1.1e-06
1.1e-06
1.1e-06
1.1e-06
1.1e-06
1.1e-06
1.1e-06
1.1e-06
1.1e-06
1.1e-06
1.1e-06
1.1e-06
1.1e-06
1.1e-06
1.1e-06
1.1e-06
1.1e-06
1.1e-06
1.1e-06
1.1e-06
1.1e-06
1.1e-06
1.1e-06
1.1e-06
1.1e-06
1.1e-06
1.1e-06
1.1e-06
1.1e-06
1.1e-06
0.857579
0.858065
0.858496
0.858866
0.859173
0.859411
0.859579
0.859674
0.859696
0.859645
0.859523
0.859331
0.859073
0.858751
0.85837
0.857933
0.857443
0.856906
0.856325
0.855704
0.855047
0.854356
0.853636
0.852889
0.852118
0.851326
0.850514
0.849685
0.848841
0.847984
0.847114
0.846233
0.845342
0.844443
0.843535
0.84262
0.841698
0.840769
0.839835
0.838893
0.837946
0.836991
0.83603
0.83506
0.834082
0.833095
0.832095
0.831083
0.830055
0.829008
0.827938
0.826841
0.825709
0.824536
0.823309
0.822014
0.820632
0.819132
0.817471
0.815583
0.813356
0.810593
0.806895
0.80132
0.79091
0.758382
0.314781
0.000237013
1.1e-06
1.1e-06
1.1e-06
1.1e-06
1.1e-06
1.1e-06
1.1e-06
1.1e-06
1.1e-06
1.1e-06
1.1e-06
1.1e-06
1.1e-06
1.1e-06
1.1e-06
1.1e-06
1.1e-06
1.1e-06
1.1e-06
1.1e-06
1.1e-06
1.1e-06
1.1e-06
1.1e-06
1.1e-06
1.1e-06
1.1e-06
1.1e-06
1.1e-06
1.1e-06
1.1e-06
1.1e-06
1.1e-06
1.1e-06
1.1e-06
1.1e-06
1.1e-06
1.1e-06
1.1e-06
1.1e-06
1.1e-06
1.1e-06
1.1e-06
1.1e-06
1.1e-06
1.1e-06
1.1e-06
1.1e-06
1.1e-06
1.1e-06
1.1e-06
1.1e-06
1.1e-06
1.1e-06
1.1e-06
1.1e-06
1.1e-06
1.1e-06
1.1e-06
1.1e-06
1.1e-06
1.1e-06
1.1e-06
1.1e-06
1.1e-06
1.1e-06
1.1e-06
1.1e-06
1.1e-06
1.1e-06
1.1e-06
1.1e-06
1.1e-06
1.1e-06
1.1e-06
1.1e-06
1.1e-06
1.1e-06
1.1e-06
1.1e-06
1.1e-06
1.1e-06
1.1e-06
1.1e-06
1.1e-06
1.1e-06
1.1e-06
1.1e-06
1.1e-06
1.1e-06
1.1e-06
1.1e-06
1.1e-06
1.1e-06
1.1e-06
1.1e-06
1.1e-06
1.1e-06
1.1e-06
1.1e-06
1.1e-06
1.1e-06
1.1e-06
1.1e-06
1.1e-06
1.1e-06
1.1e-06
1.1e-06
1.1e-06
1.1e-06
1.1e-06
1.1e-06
0.859782
0.860329
0.860815
0.861234
0.86158
0.86185
0.862039
0.862147
0.862171
0.862114
0.861977
0.861762
0.861474
0.861116
0.860693
0.86021
0.859672
0.859084
0.85845
0.857775
0.857062
0.856317
0.855543
0.854742
0.853918
0.853074
0.852212
0.851333
0.850441
0.849537
0.848621
0.847696
0.846762
0.845821
0.844873
0.843919
0.842959
0.841994
0.841023
0.840047
0.839066
0.83808
0.837088
0.83609
0.835084
0.83407
0.833047
0.832013
0.830965
0.829901
0.828818
0.827711
0.826575
0.825403
0.824185
0.822909
0.821557
0.820105
0.818517
0.81674
0.814687
0.812211
0.809031
0.804549
0.797167
0.780627
0.677237
0.0435457
2.10093e-06
1.1e-06
1.1e-06
1.1e-06
1.1e-06
1.1e-06
1.1e-06
1.1e-06
1.1e-06
1.1e-06
1.1e-06
1.1e-06
1.1e-06
1.1e-06
1.1e-06
1.1e-06
1.1e-06
1.1e-06
1.1e-06
1.1e-06
1.1e-06
1.1e-06
1.1e-06
1.1e-06
1.1e-06
1.1e-06
1.1e-06
1.1e-06
1.1e-06
1.1e-06
1.1e-06
1.1e-06
1.1e-06
1.1e-06
1.1e-06
1.1e-06
1.1e-06
1.1e-06
1.1e-06
1.1e-06
1.1e-06
1.1e-06
1.1e-06
1.1e-06
1.1e-06
1.1e-06
1.1e-06
1.1e-06
1.1e-06
1.1e-06
1.1e-06
1.1e-06
1.1e-06
1.1e-06
1.1e-06
1.1e-06
1.1e-06
1.1e-06
1.1e-06
1.1e-06
1.1e-06
1.1e-06
1.1e-06
1.1e-06
1.1e-06
1.1e-06
1.1e-06
1.1e-06
1.1e-06
1.1e-06
1.1e-06
1.1e-06
1.1e-06
1.1e-06
1.1e-06
1.1e-06
1.1e-06
1.1e-06
1.1e-06
1.1e-06
1.1e-06
1.1e-06
1.1e-06
1.1e-06
1.1e-06
1.1e-06
1.1e-06
1.1e-06
1.1e-06
1.1e-06
1.1e-06
1.1e-06
1.1e-06
1.1e-06
1.1e-06
1.1e-06
1.1e-06
1.1e-06
1.1e-06
1.1e-06
1.1e-06
1.1e-06
1.1e-06
1.1e-06
1.1e-06
1.1e-06
1.1e-06
1.1e-06
1.1e-06
1.1e-06
1.1e-06
1.1e-06
0.861877
0.862494
0.863042
0.863516
0.863907
0.864212
0.864425
0.864546
0.864573
0.864507
0.864352
0.86411
0.863787
0.863388
0.862918
0.862385
0.861794
0.86115
0.86046
0.859728
0.85896
0.858159
0.857329
0.856475
0.855599
0.854703
0.853792
0.852866
0.851927
0.850978
0.85002
0.849053
0.848079
0.847099
0.846114
0.845123
0.844128
0.843129
0.842126
0.841119
0.840108
0.839093
0.838073
0.837048
0.836017
0.834979
0.833934
0.832879
0.831813
0.830734
0.829638
0.828522
0.827381
0.826209
0.824998
0.823736
0.82241
0.820999
0.819472
0.817787
0.815875
0.81362
0.810819
0.807062
0.801378
0.790715
0.757032
0.305613
0.000218966
1.1e-06
1.1e-06
1.1e-06
1.1e-06
1.1e-06
1.1e-06
1.1e-06
1.1e-06
1.1e-06
1.1e-06
1.1e-06
1.1e-06
1.1e-06
1.1e-06
1.1e-06
1.1e-06
1.1e-06
1.1e-06
1.1e-06
1.1e-06
1.1e-06
1.1e-06
1.1e-06
1.1e-06
1.1e-06
1.1e-06
1.1e-06
1.1e-06
1.1e-06
1.1e-06
1.1e-06
1.1e-06
1.1e-06
1.1e-06
1.1e-06
1.1e-06
1.1e-06
1.1e-06
1.1e-06
1.1e-06
1.1e-06
1.1e-06
1.1e-06
1.1e-06
1.1e-06
1.1e-06
1.1e-06
1.1e-06
1.1e-06
1.1e-06
1.1e-06
1.1e-06
1.1e-06
1.1e-06
1.1e-06
1.1e-06
1.1e-06
1.1e-06
1.1e-06
1.1e-06
1.1e-06
1.1e-06
1.1e-06
1.1e-06
1.1e-06
1.1e-06
1.1e-06
1.1e-06
1.1e-06
1.1e-06
1.1e-06
1.1e-06
1.1e-06
1.1e-06
1.1e-06
1.1e-06
1.1e-06
1.1e-06
1.1e-06
1.1e-06
1.1e-06
1.1e-06
1.1e-06
1.1e-06
1.1e-06
1.1e-06
1.1e-06
1.1e-06
1.1e-06
1.1e-06
1.1e-06
1.1e-06
1.1e-06
1.1e-06
1.1e-06
1.1e-06
1.1e-06
1.1e-06
1.1e-06
1.1e-06
1.1e-06
1.1e-06
1.1e-06
1.1e-06
1.1e-06
1.1e-06
1.1e-06
1.1e-06
1.1e-06
1.1e-06
1.1e-06
0.86397
0.864673
0.8653
0.86584
0.866287
0.866634
0.866877
0.867012
0.86704
0.866962
0.866782
0.866506
0.866139
0.86569
0.865165
0.864573
0.86392
0.863213
0.86246
0.861666
0.860836
0.859975
0.859087
0.858176
0.857245
0.856298
0.855336
0.854362
0.853377
0.852383
0.851382
0.850375
0.849362
0.848344
0.847322
0.846297
0.845268
0.844237
0.843203
0.842166
0.841126
0.840083
0.839037
0.837987
0.836932
0.835872
0.834806
0.833732
0.832649
0.831555
0.830446
0.829321
0.828174
0.827001
0.825795
0.824546