/*--------------------------------*- C++ -*----------------------------------*\
  =========                 |
  \\      /  F ield         | OpenFOAM: The Open Source CFD Toolbox
   \\    /   O peration     | Website:  https://openfoam.org
    \\  /    A nd           | Version:  10
     \\/     M anipulation  |
\*---------------------------------------------------------------------------*/
FoamFile
{
    format      ascii;
    class       surfaceScalarField;
    location    "1.9";
    object      phi;
}
// * * * * * * * * * * * * * * * * * * * * * * * * * * * * * * * * * * * * * //

dimensions      [0 3 -1 0 0 0 0];

internalField   nonuniform List<scalar> 
24170
(
7.12552e-10
-7.12552e-10
1.32941e-09
-6.16858e-10
1.83318e-09
-5.03773e-10
2.23351e-09
-4.00328e-10
2.5512e-09
-3.17687e-10
2.80837e-09
-2.57176e-10
3.02442e-09
-2.1605e-10
3.21521e-09
-1.90784e-10
3.39373e-09
-1.78523e-10
3.57135e-09
-1.77619e-10
3.75925e-09
-1.87897e-10
3.97037e-09
-2.11127e-10
4.22259e-09
-2.52217e-10
4.54501e-09
-3.22424e-10
4.99389e-09
-4.48874e-10
5.70277e-09
-7.08881e-10
7.09827e-09
-1.39551e-09
-4.15624e-09
1.12545e-08
9.7198e-10
-1.68453e-09
1.8082e-09
-1.45308e-09
2.48589e-09
-1.18146e-09
3.02026e-09
-9.34695e-10
3.44141e-09
-7.38842e-10
3.78055e-09
-5.96315e-10
4.06451e-09
-5.00009e-10
4.31492e-09
-4.41195e-10
4.54928e-09
-4.12885e-10
4.78267e-09
-4.11007e-10
5.02974e-09
-4.34961e-10
5.3072e-09
-4.88592e-10
5.6377e-09
-5.8272e-10
6.05709e-09
-7.41807e-10
6.63079e-09
-1.02258e-09
7.49497e-09
-1.57306e-09
8.94797e-09
-2.84851e-09
-6.43834e-09
1.12301e-08
1.20607e-09
-2.8906e-09
2.23463e-09
-2.48165e-09
3.05904e-09
-2.00587e-09
3.70167e-09
-1.57733e-09
4.20276e-09
-1.23993e-09
4.60261e-09
-9.96168e-10
4.93514e-09
-8.32535e-10
5.22715e-09
-7.33211e-10
5.49996e-09
-6.85696e-10
5.77157e-09
-6.82614e-10
6.05906e-09
-7.22452e-10
6.38136e-09
-8.10888e-10
6.76302e-09
-9.64377e-10
7.24042e-09
-1.21921e-09
7.87243e-09
-1.65459e-09
8.75325e-09
-2.45388e-09
9.96905e-09
-4.06431e-09
-7.4867e-09
1.10174e-08
1.45794e-09
-4.34854e-09
2.6876e-09
-3.71131e-09
3.65971e-09
-2.97797e-09
4.40695e-09
-2.32457e-09
4.98221e-09
-1.81518e-09
5.43637e-09
-1.45033e-09
5.81104e-09
-1.2072e-09
6.13835e-09
-1.06052e-09
6.44325e-09
-9.90591e-10
6.74625e-09
-9.85614e-10
7.06615e-09
-1.04236e-09
7.42279e-09
-1.16753e-09
7.84009e-09
-1.38168e-09
8.34963e-09
-1.72875e-09
8.99246e-09
-2.29742e-09
9.80412e-09
-3.26555e-09
1.07095e-08
-4.96972e-09
-7.86014e-09
1.1083e-08
1.74606e-09
-6.09459e-09
3.1981e-09
-5.16336e-09
4.32622e-09
-4.10609e-09
5.17852e-09
-3.17687e-09
5.82457e-09
-2.46123e-09
6.32817e-09
-1.95394e-09
6.73971e-09
-1.61874e-09
7.09696e-09
-1.41777e-09
7.42841e-09
-1.32203e-09
7.75665e-09
-1.31386e-09
8.10144e-09
-1.38714e-09
8.48208e-09
-1.54818e-09
8.91941e-09
-1.819e-09
9.43585e-09
-2.24519e-09
1.0049e-08
-2.91053e-09
1.07406e-08
-3.95722e-09
1.13545e-08
-5.58363e-09
-7.88485e-09
1.13793e-08
2.088e-09
-8.18259e-09
3.79328e-09
-6.86864e-09
5.08914e-09
-5.40196e-09
6.04711e-09
-4.13483e-09
6.7595e-09
-3.17362e-09
7.3063e-09
-2.50074e-09
7.74809e-09
-2.06054e-09
8.12869e-09
-1.79837e-09
8.47994e-09
-1.67329e-09
8.82603e-09
-1.65995e-09
9.18672e-09
-1.74783e-09
9.57941e-09
-1.94087e-09
1.00197e-08
-2.25926e-09
1.05183e-08
-2.74382e-09
1.10696e-08
-3.46184e-09
1.16186e-08
-4.50622e-09
1.1992e-08
-5.95698e-09
-7.73274e-09
1.18399e-08
2.50589e-09
-1.06885e-08
4.50516e-09
-8.86791e-09
5.98183e-09
-6.87863e-09
7.0437e-09
-5.1967e-09
7.81458e-09
-3.9445e-09
8.39507e-09
-3.08123e-09
8.85765e-09
-2.52312e-09
9.25253e-09
-2.19325e-09
9.61463e-09
-2.03538e-09
9.96901e-09
-2.01434e-09
1.03345e-08
-2.11332e-09
1.07253e-08
-2.33167e-09
1.11503e-08
-2.68431e-09
1.16084e-08
-3.2019e-09
1.20754e-08
-3.92883e-09
1.24788e-08
-4.90956e-09
1.26655e-08
-6.1437e-09
-7.48953e-09
1.24223e-08
3.03094e-09
-1.37194e-08
5.37631e-09
-1.12133e-08
7.04582e-09
-8.54814e-09
8.20428e-09
-6.35516e-09
9.01979e-09
-4.76001e-09
9.61921e-09
-3.68066e-09
1.00888e-08
-2.99273e-09
1.04854e-08
-2.5898e-09
1.08463e-08
-2.3963e-09
1.11967e-08
-2.36476e-09
1.15535e-08
-2.4701e-09
1.19267e-08
-2.70485e-09
1.23181e-08
-3.07573e-09
1.27162e-08
-3.59999e-09
1.30854e-08
-4.29804e-09
1.33516e-08
-5.17578e-09
1.3397e-08
-6.18905e-09
-7.19626e-09
1.31037e-08
3.71019e-09
-1.74296e-08
6.46689e-09
-1.397e-08
8.33596e-09
-1.04172e-08
9.57345e-09
-7.59265e-09
1.041e-08
-5.59655e-09
1.10058e-08
-4.27648e-09
1.14627e-08
-3.4496e-09
1.18436e-08
-2.97071e-09
1.21876e-08
-2.74026e-09
1.25187e-08
-2.69585e-09
1.28508e-08
-2.80224e-09
1.31893e-08
-3.04333e-09
1.35294e-08
-3.41582e-09
1.3852e-08
-3.92267e-09
1.41174e-08
-4.56343e-09
1.42601e-08
-5.31844e-09
1.4198e-08
-6.12696e-09
-6.87172e-09
1.38735e-08
4.61817e-09
-2.20478e-08
7.86531e-09
-1.72171e-08
9.92713e-09
-1.2479e-08
1.12079e-08
-8.87346e-09
1.20269e-08
-6.41549e-09
1.25854e-08
-4.83505e-09
1.30018e-08
-3.86595e-09
1.33439e-08
-3.31279e-09
1.36506e-08
-3.04699e-09
1.39436e-08
-2.98885e-09
1.42329e-08
-3.09156e-09
1.45189e-08
-3.3293e-09
1.47914e-08
-3.68829e-09
1.50272e-08
-4.15848e-09
1.51878e-08
-4.72403e-09
1.52212e-08
-5.35181e-09
1.50753e-08
-5.98106e-09
-6.52373e-09
1.47273e-08
5.87917e-09
-2.7927e-08
9.7059e-09
-2.10438e-08
1.19233e-08
-1.46964e-08
1.31805e-08
-1.01307e-08
1.39201e-08
-7.15518e-09
1.43923e-08
-5.30722e-09
1.473e-08
-4.2036e-09
1.50028e-08
-3.58567e-09
1.5247e-08
-3.29119e-09
1.54798e-08
-3.22159e-09
1.57062e-08
-3.31793e-09
1.59216e-08
-3.54473e-09
1.61119e-08
-3.87864e-09
1.62529e-08
-4.29945e-09
1.63108e-08
-4.7819e-09
1.62475e-08
-5.28858e-09
1.60334e-08
-5.76688e-09
-6.15467e-09
1.56643e-08
6.42273e-09
-3.43497e-08
1.01833e-08
-2.48044e-08
1.21034e-08
-1.66165e-08
1.30537e-08
-1.1081e-08
1.35405e-08
-7.64198e-09
1.38153e-08
-5.58197e-09
1.39971e-08
-4.38543e-09
1.41415e-08
-3.73006e-09
1.42733e-08
-3.42294e-09
1.44013e-08
-3.34962e-09
1.4525e-08
-3.44165e-09
1.46367e-08
-3.6564e-09
1.47222e-08
-3.96411e-09
1.47615e-08
-4.33875e-09
1.47308e-08
-4.75124e-09
1.46074e-08
-5.16522e-09
1.43777e-08
-5.53713e-09
-5.82249e-09
1.40455e-08
9.65164e-09
-4.40013e-08
1.45296e-08
-2.96824e-08
1.65978e-08
-1.86847e-08
1.74039e-08
-1.18871e-08
1.76999e-08
-7.93791e-09
1.78059e-08
-5.68798e-09
1.7852e-08
-4.43155e-09
1.78886e-08
-3.76666e-09
1.79322e-08
-3.46649e-09
1.79836e-08
-3.4011e-09
1.80355e-08
-3.49357e-09
1.80746e-08
-3.69547e-09
1.80829e-08
-3.97238e-09
1.80391e-08
-4.29497e-09
1.79215e-08
-4.63363e-09
1.77126e-08
-4.95631e-09
1.74053e-08
-5.22988e-09
-5.42504e-09
1.70079e-08
1.56842e-08
-5.96855e-08
2.17249e-08
-3.5723e-08
2.34123e-08
-2.03721e-08
2.36134e-08
-1.20882e-08
2.33981e-08
-7.72265e-09
2.31193e-08
-5.40919e-09
2.288e-08
-4.19218e-09
2.26997e-08
-3.58635e-09
2.25709e-08
-3.33776e-09
2.24773e-08
-3.30748e-09
2.2399e-08
-3.41526e-09
2.23144e-08
-3.61084e-09
2.22008e-08
-3.85878e-09
2.20359e-08
-4.13012e-09
2.18006e-08
-4.39828e-09
2.14822e-08
-4.63796e-09
2.10789e-08
-4.82653e-09
-4.94686e-09
2.06007e-08
2.87462e-08
-8.84318e-08
3.4567e-08
-4.15438e-08
3.41288e-08
-1.99339e-08
3.26274e-08
-1.05868e-08
3.12608e-08
-6.35607e-09
3.02108e-08
-4.35921e-09
2.94372e-08
-3.41859e-09
2.88684e-08
-3.01754e-09
2.8441e-08
-2.91033e-09
2.81037e-08
-2.97017e-09
2.78146e-08
-3.12624e-09
2.75388e-08
-3.33497e-09
2.72461e-08
-3.56608e-09
2.69119e-08
-3.796e-09
2.65186e-08
-4.00492e-09
2.60569e-08
-4.17628e-09
2.55278e-08
-4.29745e-09
-4.36087e-09
2.49418e-08
6.36818e-08
-1.52114e-07
5.92921e-08
-3.71542e-08
5.13061e-08
-1.19478e-08
4.56918e-08
-4.97255e-09
4.20312e-08
-2.69547e-09
3.96042e-08
-1.93218e-09
3.79377e-08
-1.75213e-09
3.67465e-08
-1.82632e-09
3.58539e-08
-2.01769e-09
3.51435e-08
-2.25978e-09
3.45354e-08
-2.51812e-09
3.39725e-08
-2.77211e-09
3.34139e-08
-3.00749e-09
3.28314e-08
-3.21349e-09
3.22083e-08
-3.38176e-09
3.15384e-08
-3.50637e-09
3.0825e-08
-3.58406e-09
-3.61458e-09
3.00787e-08
1.91059e-07
1.56447e-07
1.08097e-07
4.58082e-08
7.81704e-08
1.79787e-08
6.44324e-08
8.76545e-09
5.69482e-08
4.78869e-09
5.23624e-08
2.65362e-09
4.93025e-08
1.30776e-09
4.71165e-08
3.59676e-10
4.5428e-08
-3.29153e-10
4.40255e-08
-8.57317e-10
4.28005e-08
-1.29312e-09
4.16827e-08
-1.65428e-09
4.06261e-08
-1.9509e-09
3.9602e-08
-2.18939e-09
3.85945e-08
-2.37419e-09
3.75971e-08
-2.50903e-09
3.66108e-08
-2.59775e-09
-2.64468e-09
3.56409e-08
7.76874e-08
7.87599e-08
7.80781e-08
4.54175e-08
7.01209e-08
2.59359e-08
6.3441e-08
1.54453e-08
5.86514e-08
9.57831e-09
5.5231e-08
6.07402e-09
5.27042e-08
3.8345e-09
5.07493e-08
2.31459e-09
4.91885e-08
1.23168e-09
4.79014e-08
4.29724e-10
4.67727e-08
-1.64391e-10
4.57141e-08
-5.95719e-10
4.46981e-08
-9.34906e-10
4.37087e-08
-1.2e-09
4.27381e-08
-1.40357e-09
4.17842e-08
-1.55509e-09
4.08487e-08
-1.66225e-09
-1.73167e-09
3.99357e-08
3.65901e-08
4.21698e-08
5.10411e-08
3.09665e-08
5.54555e-08
2.15215e-08
5.60985e-08
1.48024e-08
5.54574e-08
1.02193e-08
5.44446e-08
7.08686e-09
5.33736e-08
4.90549e-09
5.23383e-08
3.34984e-09
5.1356e-08
2.21403e-09
5.04182e-08
1.36754e-09
4.95271e-08
7.267e-10
4.86953e-08
2.36118e-10
4.78925e-08
-1.32112e-10
4.70965e-08
-4.04087e-10
4.63065e-08
-6.13484e-10
4.55236e-08
-7.72273e-10
4.47512e-08
-8.89767e-10
-9.73456e-10
4.39929e-08
1.4717e-08
2.74528e-08
2.36691e-08
2.20144e-08
2.85314e-08
1.66591e-08
3.10387e-08
1.22951e-08
3.22719e-08
8.98621e-09
3.28199e-08
6.53886e-09
3.29909e-08
4.73449e-09
3.29455e-08
3.39517e-09
3.27692e-08
2.39039e-09
3.25086e-08
1.6281e-09
3.21912e-08
1.04413e-09
3.18338e-08
5.93521e-10
3.14571e-08
2.44549e-10
3.10772e-08
-2.41748e-11
3.06831e-08
-2.19377e-10
3.02805e-08
-3.69684e-10
2.98745e-08
-4.83714e-10
-5.68302e-10
2.94693e-08
8.60729e-09
1.88455e-08
1.4807e-08
1.58147e-08
1.88944e-08
1.25717e-08
2.1488e-08
9.70155e-09
2.31054e-08
7.36872e-09
2.40992e-08
5.54515e-09
2.46916e-08
4.14206e-09
2.50202e-08
3.06651e-09
2.51705e-08
2.24009e-09
2.51967e-08
1.60197e-09
2.51342e-08
1.10662e-09
2.50073e-08
7.20433e-10
2.48332e-08
4.18595e-10
2.46264e-08
1.82691e-10
2.44081e-08
-1.1104e-12
2.41729e-08
-1.34518e-10
2.39267e-08
-2.37508e-10
-3.15858e-10
2.36743e-08
5.57346e-09
1.32721e-08
9.95097e-09
1.14372e-08
1.3147e-08
9.3756e-09
1.53964e-08
7.4522e-09
1.69515e-08
5.81362e-09
1.8015e-08
4.48161e-09
1.87332e-08
3.42391e-09
1.9207e-08
2.5927e-09
1.95056e-08
1.94151e-09
1.96766e-08
1.431e-09
1.97533e-08
1.0299e-09
1.97597e-08
7.14063e-10
1.97132e-08
4.65015e-10
1.96273e-08
2.68662e-10
1.9512e-08
1.14184e-10
1.93838e-08
-6.36701e-12
1.92408e-08
-9.45267e-11
-1.62726e-10
1.90877e-08
3.84755e-09
9.42454e-09
7.02497e-09
8.25979e-09
9.4908e-09
6.90978e-09
1.13379e-08
5.60513e-09
1.26946e-08
4.45686e-09
1.36794e-08
3.49685e-09
1.43867e-08
2.71656e-09
1.48879e-08
2.09159e-09
1.5235e-08
1.59439e-09
1.54663e-08
1.19971e-09
1.56098e-08
8.86412e-10
1.56863e-08
6.37532e-10
1.57116e-08
4.39721e-10
1.56977e-08
2.82564e-10
1.56539e-08
1.57926e-10
1.55881e-08
5.94341e-11
1.55104e-08
-1.67954e-11
-7.3347e-11
1.5421e-08
2.7689e-09
6.65564e-09
5.12891e-09
5.89978e-09
7.03373e-09
5.00496e-09
8.51993e-09
4.11893e-09
9.65587e-09
3.32091e-09
1.05127e-08
2.64e-09
1.11524e-08
2.07688e-09
1.16248e-08
1.61925e-09
1.19684e-08
1.25075e-09
1.22128e-08
9.55273e-10
1.23805e-08
7.18708e-10
1.24887e-08
5.29368e-10
1.25506e-08
3.77844e-10
1.25765e-08
2.56657e-10
1.25745e-08
1.59887e-10
1.25511e-08
8.28386e-11
1.25125e-08
2.17741e-11
-2.45389e-11
1.24637e-08
2.04695e-09
4.6087e-09
3.82875e-09
4.11797e-09
5.30555e-09
3.52816e-09
6.49047e-09
2.93401e-09
7.42146e-09
2.38992e-09
8.14276e-09
1.9187e-09
8.69575e-09
1.52389e-09
9.11555e-09
1.19945e-09
9.43059e-09
9.35713e-10
9.66335e-09
7.22511e-10
9.83145e-09
5.50606e-10
9.94867e-09
4.12146e-10
1.00258e-08
3.0069e-10
1.00714e-08
2.11041e-10
1.00923e-08
1.39036e-10
1.00938e-08
8.13402e-11
1.00803e-08
3.52779e-11
-1.20861e-12
1.0057e-08
1.53754e-09
3.07116e-09
2.89565e-09
2.75986e-09
4.04234e-09
2.38147e-09
4.98083e-09
1.99552e-09
5.73296e-09
1.6378e-09
6.32711e-09
1.32454e-09
6.79151e-09
1.05949e-09
7.15114e-09
8.39816e-10
7.42696e-09
6.59896e-10
7.63597e-09
5.13494e-10
7.79182e-09
3.9476e-10
7.90534e-09
2.98621e-10
7.98518e-09
2.20849e-10
8.03823e-09
1.57994e-10
8.07e-09
1.07262e-10
8.08495e-09
6.63928e-11
8.08668e-09
3.35515e-11
7.26277e-12
8.07821e-09
1.16194e-09
1.90922e-09
2.19907e-09
1.72273e-09
3.08646e-09
1.49407e-09
3.82328e-09
1.25871e-09
4.42246e-09
1.03861e-09
4.90271e-09
8.44284e-10
5.28357e-09
6.78635e-10
5.58297e-09
5.40425e-10
5.8163e-09
4.26557e-10
5.99638e-09
3.33414e-10
6.13363e-09
2.57515e-10
6.23646e-09
1.95793e-10
6.31165e-09
1.45661e-10
6.36465e-09
1.04989e-10
6.39988e-09
7.2034e-11
6.4209e-09
4.53727e-11
6.43063e-09
2.38204e-11
6.43287e-12
6.43146e-09
8.72798e-10
1.03642e-09
1.65779e-09
9.37741e-10
2.33598e-09
8.15888e-10
2.90507e-09
6.8961e-10
3.37294e-09
5.70748e-10
3.75207e-09
4.65155e-10
4.05606e-09
3.74641e-10
4.29775e-09
2.98738e-10
4.48839e-09
2.3592e-10
4.63747e-09
1.84328e-10
4.75285e-09
1.42137e-10
4.84093e-09
1.07716e-10
4.90691e-09
7.96799e-11
4.95502e-09
5.68756e-11
4.9887e-09
3.83563e-11
5.01073e-09
2.33418e-11
5.02342e-09
1.11288e-11
1.19728e-12
5.02866e-09
6.35948e-10
4.0047e-10
1.21101e-09
3.62676e-10
1.71119e-09
3.15712e-10
2.13401e-09
2.66793e-10
2.48422e-09
2.20532e-10
2.77011e-09
1.79265e-10
3.00099e-09
1.43762e-10
3.18583e-09
1.13897e-10
3.33263e-09
8.91189e-11
3.44823e-09
6.87286e-11
3.53834e-09
5.2031e-11
3.60765e-09
3.8399e-11
3.66004e-09
2.72947e-11
3.69865e-09
1.82684e-11
3.72605e-09
1.09507e-11
3.74434e-09
5.05133e-12
3.75504e-09
4.31016e-13
-2.3205e-12
3.75856e-09
4.0047e-10
7.63147e-10
1.07886e-09
1.34565e-09
1.56618e-09
1.74545e-09
1.88921e-09
2.00311e-09
2.09223e-09
2.16096e-09
2.21299e-09
2.25139e-09
2.27868e-09
2.29695e-09
2.3079e-09
2.31295e-09
2.31338e-09
2.31106e-09
2.43343e-10
-2.43343e-10
4.41469e-10
-1.98126e-10
6.36353e-10
-1.94884e-10
8.34072e-10
-1.9772e-10
1.03434e-09
-2.00267e-10
1.23641e-09
-2.02067e-10
1.43973e-09
-2.03319e-10
1.64396e-09
-2.04234e-10
1.84892e-09
-2.04961e-10
2.05451e-09
-2.05594e-10
2.26071e-09
-2.06193e-10
2.4675e-09
-2.06791e-10
2.67491e-09
-2.07409e-10
2.88296e-09
-2.08052e-10
3.09168e-09
-2.08724e-10
3.3011e-09
-2.09418e-10
3.51122e-09
-2.10124e-10
3.72206e-09
-2.1083e-10
3.93358e-09
-2.1152e-10
4.14575e-09
-2.12174e-10
4.35852e-09
-2.12772e-10
4.57181e-09
-2.13291e-10
4.78552e-09
-2.13706e-10
4.99951e-09
-2.13993e-10
5.21364e-09
-2.14127e-10
5.42772e-09
-2.14082e-10
5.64155e-09
-2.13835e-10
5.85492e-09
-2.13364e-10
6.06757e-09
-2.12652e-10
6.27925e-09
-2.11682e-10
6.4897e-09
-2.10446e-10
6.69864e-09
-2.08938e-10
6.9058e-09
-2.07161e-10
7.11092e-09
-2.05123e-10
7.31376e-09
-2.02839e-10
7.51409e-09
-2.0033e-10
7.71171e-09
-1.97622e-10
7.90646e-09
-1.94747e-10
8.09819e-09
-1.91735e-10
8.28682e-09
-1.88621e-10
8.47225e-09
-1.85435e-10
8.65445e-09
-1.82202e-10
8.83339e-09
-1.78939e-10
9.00905e-09
-1.75655e-10
9.18139e-09
-1.72346e-10
9.35039e-09
-1.68997e-10
9.51597e-09
-1.65579e-10
9.67802e-09
-1.62056e-10
9.83641e-09
-1.58387e-10
9.99095e-09
-1.54536e-10
1.01414e-08
-1.50492e-10
1.02877e-08
-1.46293e-10
1.04298e-08
-1.42062e-10
1.05679e-08
-1.38066e-10
1.07026e-08
-1.34762e-10
1.08355e-08
-1.32852e-10
1.09687e-08
-1.33253e-10
1.11056e-08
-1.36911e-10
1.12499e-08
-1.44306e-10
1.14045e-08
-1.54554e-10
1.15689e-08
-1.64448e-10
1.17375e-08
-1.68569e-10
1.18994e-08
-1.61893e-10
1.20429e-08
-1.43461e-10
1.21598e-08
-1.16948e-10
1.22484e-08
-8.85679e-11
1.23142e-08
-6.57711e-11
1.23701e-08
-5.59439e-11
1.24314e-08
-6.13318e-11
1.25013e-08
-6.98437e-11
1.25598e-08
-5.85338e-11
1.25908e-08
-3.09534e-11
1.25983e-08
-7.57157e-12
1.25945e-08
3.7941e-12
1.25811e-08
1.34686e-11
1.25532e-08
2.78219e-11
1.25132e-08
4.00749e-11
1.24631e-08
5.00842e-11
1.2404e-08
5.90978e-11
1.23375e-08
6.64955e-11
1.22648e-08
7.26495e-11
1.21873e-08
7.75473e-11
1.2106e-08
8.12599e-11
1.20221e-08
8.38934e-11
1.19367e-08
8.54953e-11
1.18505e-08
8.61087e-11
1.17647e-08
8.58232e-11
1.16799e-08
8.47728e-11
1.15968e-08
8.31064e-11
1.15159e-08
8.09641e-11
1.14374e-08
7.84662e-11
1.13617e-08
7.57107e-11
1.12889e-08
7.27772e-11
1.12192e-08
6.97302e-11
1.11526e-08
6.66229e-11
1.10891e-08
6.3499e-11
1.10287e-08
6.0395e-11
1.09713e-08
5.73412e-11
1.0917e-08
5.4362e-11
1.08655e-08
5.14774e-11
1.08168e-08
4.87029e-11
1.07707e-08
4.60507e-11
1.07272e-08
4.35287e-11
1.06861e-08
4.11429e-11
1.06472e-08
3.8896e-11
1.06104e-08
3.67889e-11
1.05756e-08
3.48204e-11
1.05426e-08
3.2988e-11
1.05113e-08
3.12877e-11
1.04816e-08
2.97149e-11
1.04533e-08
2.82642e-11
1.04264e-08
2.69294e-11
1.04007e-08
2.57044e-11
1.03761e-08
2.45826e-11
1.03525e-08
2.35577e-11
1.03299e-08
2.26233e-11
1.03081e-08
2.17729e-11
1.02871e-08
2.10009e-11
1.02668e-08
2.0301e-11
1.02472e-08
1.96682e-11
1.02281e-08
1.90969e-11
1.02095e-08
1.85825e-11
1.01914e-08
1.81202e-11
1.01737e-08
1.77061e-11
1.01563e-08
1.73361e-11
1.01393e-08
1.70063e-11
1.01226e-08
1.67138e-11
1.01062e-08
1.64552e-11
1.00899e-08
1.62278e-11
1.00739e-08
1.60291e-11
1.0058e-08
1.58565e-11
1.00423e-08
1.57082e-11
1.00267e-08
1.55817e-11
1.00113e-08
1.54757e-11
9.99589e-09
1.53883e-11
9.98057e-09
1.53181e-11
9.9653e-09
1.52636e-11
9.95008e-09
1.52239e-11
9.93488e-09
1.51976e-11
9.9197e-09
1.51838e-11
9.90452e-09
1.51815e-11
9.88933e-09
1.51901e-11
9.87412e-09
1.52088e-11
9.85888e-09
1.5237e-11
9.84361e-09
1.52741e-11
9.82829e-09
1.53196e-11
9.81291e-09
1.53733e-11
9.79748e-09
1.54349e-11
9.78197e-09
1.55045e-11
9.76639e-09
1.55818e-11
9.75073e-09
1.56669e-11
9.73497e-09
1.57604e-11
9.7191e-09
1.58628e-11
9.70313e-09
1.59747e-11
9.68703e-09
1.60974e-11
9.6708e-09
1.62324e-11
9.65442e-09
1.63819e-11
9.63787e-09
1.65486e-11
9.62113e-09
1.6736e-11
9.60418e-09
1.69489e-11
9.58699e-09
1.71937e-11
9.56951e-09
1.74783e-11
9.5517e-09
1.78137e-11
9.53348e-09
1.82137e-11
9.51479e-09
1.86973e-11
9.4955e-09
1.92894e-11
9.47547e-09
2.00236e-11
9.45453e-09
2.09459e-11
9.43241e-09
2.21195e-11
9.40877e-09
2.36336e-11
9.38316e-09
2.5616e-11
9.3549e-09
2.8256e-11
9.32306e-09
3.18435e-11
9.28621e-09
3.68448e-11
9.24216e-09
4.40568e-11
9.1872e-09
5.49615e-11
9.11454e-09
7.26591e-11
9.00969e-09
1.04849e-10
8.83344e-09
1.76251e-10
4.00909e-10
8.43253e-09
4.37609e-11
-2.87104e-10
1.36492e-10
-2.90857e-10
2.31032e-10
-2.89424e-10
3.22204e-10
-2.88892e-10
4.11106e-10
-2.89169e-10
4.98889e-10
-2.8985e-10
5.86219e-10
-2.90649e-10
6.73399e-10
-2.91413e-10
7.60516e-10
-2.92077e-10
8.47543e-10
-2.92621e-10
9.34396e-10
-2.93047e-10
1.02097e-09
-2.93364e-10
1.10715e-09
-2.93586e-10
1.19282e-09
-2.93725e-10
1.27789e-09
-2.93793e-10
1.36227e-09
-2.93803e-10
1.44591e-09
-2.93764e-10
1.52877e-09
-2.93689e-10
1.61084e-09
-2.93588e-10
1.69214e-09
-2.93475e-10
1.77273e-09
-2.93365e-10
1.85272e-09
-2.93274e-10
1.93224e-09
-2.93224e-10
2.01148e-09
-2.93239e-10
2.0907e-09
-2.93349e-10
2.17021e-09
-2.9359e-10
2.25038e-09
-2.94001e-10
2.33164e-09
-2.9463e-10
2.41452e-09
-2.95533e-10
2.49961e-09
-2.96769e-10
2.58757e-09
-2.98405e-10
2.67915e-09
-3.00515e-10
2.77516e-09
-3.03175e-10
2.8765e-09
-3.06466e-10
2.98413e-09
-3.10469e-10
3.09907e-09
-3.15267e-10
3.22239e-09
-3.20943e-10
3.35522e-09
-3.27579e-10
3.49874e-09
-3.35257e-10
3.65418e-09
-3.4406e-10
3.82282e-09
-3.54073e-10
4.006e-09
-3.65384e-10
4.20515e-09
-3.78082e-10
4.42175e-09
-3.92259e-10
4.65741e-09
-4.08008e-10
4.91383e-09
-4.25413e-10
5.19279e-09
-4.44538e-10
5.49615e-09
-4.65417e-10
5.82578e-09
-4.88018e-10
6.18346e-09
-5.12217e-10
6.57071e-09
-5.3774e-10
6.98851e-09
-5.64098e-10
7.43694e-09
-5.90492e-10
7.91459e-09
-6.1571e-10
8.41783e-09
-6.38002e-10
8.93997e-09
-6.54989e-10
9.47036e-09
-6.63646e-10
9.99395e-09
-6.60502e-10
1.04919e-08
-6.42207e-10
1.09438e-08
-6.06548e-10
1.13329e-08
-5.535e-10
1.16498e-08
-4.85455e-10
1.18949e-08
-4.07028e-10
1.20761e-08
-3.24639e-10
1.2203e-08
-2.43816e-10
1.22838e-08
-1.69415e-10
1.23295e-08
-1.11499e-10
1.23626e-08
-8.90368e-11
1.24196e-08
-1.1826e-10
1.2518e-08
-1.68305e-10
1.25991e-08
-1.39593e-10
1.26234e-08
-5.52246e-11
1.26138e-08
1.94318e-12
1.26074e-08
1.02194e-11
1.25998e-08
2.10858e-11
1.25688e-08
5.87819e-11
1.25256e-08
8.33581e-11
1.24739e-08
1.01698e-10
1.24126e-08
1.20429e-10
1.23444e-08
1.34692e-10
1.22701e-08
1.4695e-10
1.21911e-08
1.56599e-10
1.21085e-08
1.63845e-10
1.20234e-08
1.69007e-10
1.19367e-08
1.72115e-10
1.18497e-08
1.73199e-10
1.1763e-08
1.72446e-10
1.16776e-08
1.70156e-10
1.15941e-08
1.66653e-10
1.15128e-08
1.62229e-10
1.14342e-08
1.57121e-10
1.13584e-08
1.51524e-10
1.12856e-08
1.45589e-10
1.12158e-08
1.39442e-10
1.11493e-08
1.33186e-10
1.10859e-08
1.26906e-10
1.10256e-08
1.20673e-10
1.09684e-08
1.14547e-10
1.09142e-08
1.08575e-10
1.08629e-08
1.02797e-10
1.08143e-08
9.7244e-11
1.07684e-08
9.19376e-11
1.07251e-08
8.6895e-11
1.06841e-08
8.21266e-11
1.06453e-08
7.76377e-11
1.06087e-08
7.34297e-11
1.0574e-08
6.94999e-11
1.05412e-08
6.58429e-11
1.051e-08
6.24506e-11
1.04804e-08
5.93136e-11
1.04522e-08
5.64203e-11
1.04254e-08
5.3759e-11
1.03998e-08
5.13168e-11
1.03753e-08
4.90811e-11
1.03518e-08
4.70384e-11
1.03293e-08
4.51763e-11
1.03076e-08
4.34822e-11
1.02866e-08
4.19437e-11
1.02664e-08
4.05497e-11
1.02467e-08
3.92889e-11
1.02277e-08
3.81511e-11
1.02091e-08
3.71264e-11
1.01911e-08
3.62058e-11
1.01734e-08
3.53809e-11
1.01561e-08
3.46439e-11
1.01391e-08
3.39875e-11
1.01224e-08
3.34048e-11
1.0106e-08
3.289e-11
1.00898e-08
3.24374e-11
1.00738e-08
3.20417e-11
1.00579e-08
3.16983e-11
1.00422e-08
3.14029e-11
1.00266e-08
3.11515e-11
1.00112e-08
3.09406e-11
9.9958e-09
3.0767e-11
9.98049e-09
3.06274e-11
9.96524e-09
3.05196e-11
9.95002e-09
3.04407e-11
9.93483e-09
3.03888e-11
9.91965e-09
3.03618e-11
9.90447e-09
3.0358e-11
9.88929e-09
3.03755e-11
9.87408e-09
3.04133e-11
9.85885e-09
3.04699e-11
9.84358e-09
3.05444e-11
9.82826e-09
3.06359e-11
9.81289e-09
3.07436e-11
9.79746e-09
3.0867e-11
9.78196e-09
3.10061e-11
9.76638e-09
3.11606e-11
9.75072e-09
3.1331e-11
9.73496e-09
3.15181e-11
9.7191e-09
3.17224e-11
9.70313e-09
3.19461e-11
9.68703e-09
3.21912e-11
9.67081e-09
3.24609e-11
9.65443e-09
3.27591e-11
9.63789e-09
3.30915e-11
9.62116e-09
3.34651e-11
9.60422e-09
3.38896e-11
9.58703e-09
3.43772e-11
9.56957e-09
3.49439e-11
9.55177e-09
3.56112e-11
9.53358e-09
3.64071e-11
9.5149e-09
3.73685e-11
9.49565e-09
3.85451e-11
9.47567e-09
4.00035e-11
9.45478e-09
4.18343e-11
9.43274e-09
4.41624e-11
9.40921e-09
4.71634e-11
9.38374e-09
5.10887e-11
9.35568e-09
5.63082e-11
9.32414e-09
6.33875e-11
9.28776e-09
7.32272e-11
9.24446e-09
8.73505e-11
9.19089e-09
1.08535e-10
9.12116e-09
1.42389e-10
9.02415e-09
2.01856e-10
8.87819e-09
3.22214e-10
6.16276e-10
8.66282e-09
1.12802e-10
-3.99906e-10
2.30796e-10
-4.08851e-10
3.56437e-10
-4.15065e-10
4.86777e-10
-4.19232e-10
6.1972e-10
-4.22112e-10
7.54066e-10
-4.24196e-10
8.89154e-10
-4.25737e-10
1.0246e-09
-4.26859e-10
1.16014e-09
-4.27616e-10
1.29555e-09
-4.28037e-10
1.43065e-09
-4.2814e-10
1.56522e-09
-4.2794e-10
1.69909e-09
-4.27454e-10
1.83206e-09
-4.26699e-10
1.96397e-09
-4.25694e-10
2.09462e-09
-4.2446e-10
2.22388e-09
-4.23019e-10
2.35158e-09
-4.21393e-10
2.4776e-09
-4.19607e-10
2.60181e-09
-4.17688e-10
2.72411e-09
-4.15665e-10
2.84441e-09
-4.13566e-10
2.96261e-09
-4.11426e-10
3.07865e-09
-4.09281e-10
3.19247e-09
-4.07169e-10
3.30401e-09
-4.05132e-10
3.41323e-09
-4.03218e-10
3.52007e-09
-4.01474e-10
3.62449e-09
-3.99954e-10
3.72644e-09
-3.98715e-10
3.82585e-09
-3.97815e-10
3.92265e-09
-3.97315e-10
4.01675e-09
-3.97277e-10
4.10805e-09
-3.97761e-10
4.19641e-09
-3.98828e-10
4.28167e-09
-4.00535e-10
4.36367e-09
-4.02937e-10
4.44217e-09
-4.06082e-10
4.51693e-09
-4.10014e-10
4.58764e-09
-4.14774e-10
4.65396e-09
-4.20393e-10
4.71548e-09
-4.26898e-10
4.7717e-09
-4.34304e-10
4.82206e-09
-4.42616e-10
4.86587e-09
-4.51824e-10
4.90235e-09
-4.61892e-10
4.93057e-09
-4.72754e-10
4.94945e-09
-4.84298e-10
4.95779e-09
-4.96354e-10
4.95424e-09
-5.08677e-10
4.93743e-09
-5.20929e-10
4.90601e-09
-5.32677e-10
4.85892e-09
-5.43403e-10
4.79578e-09
-5.52568e-10
4.71755e-09
-5.59767e-10
4.62761e-09
-5.65058e-10
4.53355e-09
-5.69584e-10
4.44966e-09
-5.7661e-10
4.40037e-09
-5.92921e-10
4.42353e-09
-6.29701e-10
4.57017e-09
-7.00145e-10
4.89509e-09
-8.1037e-10
5.43725e-09
-9.49189e-10
6.20664e-09
-1.09403e-09
7.1891e-09
-1.22628e-09
8.3491e-09
-1.32942e-09
9.61365e-09
-1.37605e-09
1.08465e-08
-1.32188e-09
1.1854e-08
-1.12581e-09
1.24933e-08
-8.07551e-10
1.27163e-08
-3.62609e-10
1.2703e-08
-4.18936e-11
1.26251e-08
7.98026e-11
1.26218e-08
1.35812e-11
1.26491e-08
-6.2455e-12
1.26001e-08
1.07767e-10
1.25482e-08
1.35301e-10
1.24965e-08
1.53346e-10
1.24292e-08
1.87763e-10
1.23582e-08
2.05694e-10
1.22805e-08
2.24663e-10
1.21984e-08
2.38695e-10
1.21132e-08
2.48991e-10
1.20257e-08
2.56547e-10
1.19368e-08
2.61032e-10
1.18477e-08
2.62294e-10
1.17594e-08
2.60672e-10
1.16729e-08
2.56737e-10
1.15885e-08
2.51048e-10
1.15066e-08
2.44061e-10
1.14276e-08
2.36128e-10
1.13516e-08
2.27521e-10
1.12788e-08
2.18454e-10
1.12091e-08
2.09105e-10
1.11427e-08
1.99619e-10
1.10795e-08
1.9012e-10
1.10194e-08
1.8071e-10
1.09625e-08
1.71476e-10
1.09086e-08
1.62487e-10
1.08576e-08
1.538e-10
1.08094e-08
1.45458e-10
1.07638e-08
1.37495e-10
1.07208e-08
1.29935e-10
1.06801e-08
1.22791e-10
1.06417e-08
1.1607e-10
1.06053e-08
1.09774e-10
1.05709e-08
1.03897e-10
1.05383e-08
9.84317e-11
1.05074e-08
9.33641e-11
1.04781e-08
8.86793e-11
1.04501e-08
8.43606e-11
1.04235e-08
8.03893e-11
1.03981e-08
7.6746e-11
1.03737e-08
7.34114e-11
1.03504e-08
7.03657e-11
1.0328e-08
6.75896e-11
1.03064e-08
6.50641e-11
1.02856e-08
6.27715e-11
1.02654e-08
6.06939e-11
1.02459e-08
5.88153e-11
1.02269e-08
5.712e-11
1.02085e-08
5.55936e-11
1.01904e-08
5.42222e-11
1.01728e-08
5.29936e-11
1.01556e-08
5.18958e-11
1.01387e-08
5.09181e-11
1.0122e-08
5.00507e-11
1.01056e-08
4.92842e-11
1.00894e-08
4.86104e-11
1.00735e-08
4.80216e-11
1.00576e-08
4.75106e-11
1.0042e-08
4.70712e-11
1.00264e-08
4.66976e-11
1.0011e-08
4.63842e-11
9.99563e-09
4.61262e-11
9.98034e-09
4.59195e-11
9.9651e-09
4.57597e-11
9.9499e-09
4.56435e-11
9.93472e-09
4.55673e-11
9.91955e-09
4.55283e-11
9.90439e-09
4.55238e-11
9.88921e-09
4.55515e-11
9.87401e-09
4.56092e-11
9.85879e-09
4.56951e-11
9.84353e-09
4.58077e-11
9.82822e-09
4.59454e-11
9.81285e-09
4.61074e-11
9.79743e-09
4.62932e-11
9.78193e-09
4.6502e-11
9.76636e-09
4.67341e-11
9.7507e-09
4.69897e-11
9.73495e-09
4.72698e-11
9.71909e-09
4.75762e-11
9.70313e-09
4.79111e-11
9.68704e-09
4.82778e-11
9.67082e-09
4.8681e-11
9.65445e-09
4.91268e-11
9.63792e-09
4.96232e-11
9.62121e-09
5.01809e-11
9.60428e-09
5.08138e-11
9.58712e-09
5.15402e-11
9.56968e-09
5.23841e-11
9.55191e-09
5.33769e-11
9.53376e-09
5.456e-11
9.51514e-09
5.59881e-11
9.49595e-09
5.77343e-11
9.47606e-09
5.98969e-11
9.45528e-09
6.2609e-11
9.43339e-09
6.6054e-11
9.41007e-09
7.04886e-11
9.38488e-09
7.62788e-11
9.35722e-09
8.39611e-11
9.32626e-09
9.43466e-11
9.29078e-09
1.08715e-10
9.24894e-09
1.29187e-10
9.19795e-09
1.59527e-10
9.13338e-09
2.06959e-10
9.04849e-09
2.86742e-10
8.93661e-09
4.34098e-10
7.316e-10
8.82128e-09
1.54727e-10
-5.54633e-10
3.08733e-10
-5.62857e-10
4.64008e-10
-5.7034e-10
6.21427e-10
-5.76651e-10
7.81061e-10
-5.81747e-10
9.42602e-10
-5.85736e-10
1.10562e-09
-5.88755e-10
1.26968e-09
-5.90923e-10
1.4344e-09
-5.92331e-10
1.59941e-09
-5.93048e-10
1.7644e-09
-5.93125e-10
1.92906e-09
-5.92605e-10
2.09313e-09
-5.91526e-10
2.25636e-09
-5.89924e-10
2.4185e-09
-5.87836e-10
2.57934e-09
-5.85299e-10
2.73867e-09
-5.82352e-10
2.89631e-09
-5.79033e-10
3.05209e-09
-5.75387e-10
3.20586e-09
-5.71455e-10
3.35748e-09
-5.67285e-10
3.50684e-09
-5.62924e-10
3.65383e-09
-5.5842e-10
3.79838e-09
-5.53825e-10
3.9404e-09
-5.49192e-10
4.07984e-09
-5.44575e-10
4.21665e-09
-5.40031e-10
4.3508e-09
-5.35617e-10
4.48224e-09
-5.31392e-10
4.61094e-09
-5.27418e-10
4.73688e-09
-5.23753e-10
4.86002e-09
-5.20459e-10
4.98034e-09
-5.17596e-10
5.0978e-09
-5.15219e-10
5.21235e-09
-5.13386e-10
5.32397e-09
-5.12146e-10
5.43258e-09
-5.11548e-10
5.53813e-09
-5.11632e-10
5.64055e-09
-5.12434e-10
5.73976e-09
-5.13985e-10
5.83567e-09
-5.16305e-10
5.92818e-09
-5.19406e-10
6.01716e-09
-5.23292e-10
6.1025e-09
-5.2795e-10
6.18403e-09
-5.33353e-10
6.26159e-09
-5.39452e-10
6.33501e-09
-5.46173e-10
6.40411e-09
-5.53407e-10
6.46877e-09
-5.61008e-10
6.52888e-09
-5.68788e-10
6.58447e-09
-5.76517e-10
6.63573e-09
-5.83941e-10
6.68314e-09
-5.90816e-10
6.72756e-09
-5.96982e-10
6.7703e-09
-6.02504e-10
6.81313e-09
-6.07889e-10
6.85796e-09
-6.14419e-10
6.90589e-09
-6.24536e-10
6.95506e-09
-6.42091e-10
6.99732e-09
-6.71962e-10
7.0154e-09
-7.18227e-10
6.98571e-09
-7.80676e-10
6.88853e-09
-8.5201e-10
6.71424e-09
-9.19739e-10
6.45905e-09
-9.7109e-10
6.1251e-09
-9.95467e-10
5.73683e-09
-9.87779e-10
5.38009e-09
-9.65139e-10
5.2718e-09
-1.01752e-09
5.82362e-09
-1.35937e-09
7.34396e-09
-1.88295e-09
9.31841e-09
-2.01634e-09
1.11795e-08
-1.78133e-09
1.2439e-08
-1.24592e-09
1.27979e-08
-3.65144e-10
1.2635e-08
2.70713e-10
1.257e-08
2.00343e-10
1.25383e-08
1.85042e-10
1.24498e-08
2.76262e-10
1.23795e-08
2.75951e-10
1.22954e-08
3.0872e-10
1.22086e-08
3.25502e-10
1.21201e-08
3.37523e-10
1.20289e-08
3.47709e-10
1.19364e-08
3.53601e-10
1.18441e-08
3.54525e-10
1.17535e-08
3.513e-10
1.16652e-08
3.45034e-10
1.15796e-08
3.36616e-10
1.1497e-08
3.2666e-10
1.14176e-08
3.15596e-10
1.13414e-08
3.03744e-10
1.12685e-08
2.91362e-10
1.11989e-08
2.78665e-10
1.11327e-08
2.65835e-10
1.10698e-08
2.53027e-10
1.10101e-08
2.40372e-10
1.09536e-08
2.27979e-10
1.09002e-08
2.15937e-10
1.08496e-08
2.04317e-10
1.08019e-08
1.93176e-10
1.07569e-08
1.82554e-10
1.07143e-08
1.7248e-10
1.06741e-08
1.62972e-10
1.06362e-08
1.54036e-10
1.06003e-08
1.45672e-10
1.05663e-08
1.37871e-10
1.05341e-08
1.30621e-10
1.05036e-08
1.23903e-10
1.04746e-08
1.17697e-10
1.04469e-08
1.11978e-10
1.04206e-08
1.06721e-10
1.03954e-08
1.01901e-10
1.03714e-08
9.74906e-11
1.03483e-08
9.34635e-11
1.03261e-08
8.97939e-11
1.03047e-08
8.64564e-11
1.0284e-08
8.34269e-11
1.0264e-08
8.06824e-11
1.02446e-08
7.8201e-11
1.02258e-08
7.59619e-11
1.02074e-08
7.39462e-11
1.01895e-08
7.21355e-11
1.0172e-08
7.05133e-11
1.01548e-08
6.90642e-11
1.0138e-08
6.77737e-11
1.01214e-08
6.66291e-11
1.01051e-08
6.56177e-11
1.0089e-08
6.47289e-11
1.0073e-08
6.39524e-11
1.00573e-08
6.32789e-11
1.00416e-08
6.27e-11
1.00261e-08
6.2208e-11
1.00107e-08
6.17958e-11
9.99538e-09
6.14569e-11
9.98011e-09