/*--------------------------------*- C++ -*----------------------------------*\
  =========                 |
  \\      /  F ield         | OpenFOAM: The Open Source CFD Toolbox
   \\    /   O peration     | Website:  https://openfoam.org
    \\  /    A nd           | Version:  10
     \\/     M anipulation  |
\*---------------------------------------------------------------------------*/
FoamFile
{
    format      ascii;
    class       volVectorField;
    location    "14600";
    object      Ua;
}
// * * * * * * * * * * * * * * * * * * * * * * * * * * * * * * * * * * * * * //

dimensions      [0 1 -1 0 0 0 0];

internalField   nonuniform List<vector> 
6400
(
(-3.26983e-07 6.64656e-08 0)
(-9.85143e-07 6.73179e-08 0)
(-1.65614e-06 6.90755e-08 0)
(-2.34945e-06 7.18527e-08 0)
(-3.07606e-06 7.58435e-08 0)
(-3.84941e-06 8.13561e-08 0)
(-4.68688e-06 8.88762e-08 0)
(-5.61207e-06 9.91859e-08 0)
(-6.65889e-06 1.136e-07 0)
(-7.87932e-06 1.34475e-07 0)
(-9.35977e-06 1.66456e-07 0)
(-1.12607e-05 2.19939e-07 0)
(-1.39224e-05 3.21116e-07 0)
(-1.78205e-05 4.71236e-07 0)
(-1.09794e-05 5.14755e-06 0)
(-9.48542e-07 1.15453e-05 0)
(-5.85988e-08 5.36295e-07 0)
(-3.17807e-08 2.1553e-07 0)
(-1.97228e-08 1.28175e-07 0)
(-1.35469e-08 8.9232e-08 0)
(-9.93019e-09 6.79428e-08 0)
(-7.90649e-09 5.45737e-08 0)
(-6.5502e-09 4.5521e-08 0)
(-5.59427e-09 3.90894e-08 0)
(-4.86379e-09 3.42582e-08 0)
(-4.27754e-09 3.05253e-08 0)
(-3.81675e-09 2.7617e-08 0)
(-3.48861e-09 2.52806e-08 0)
(-3.22695e-09 2.3385e-08 0)
(-2.97948e-09 2.17973e-08 0)
(-2.72977e-09 2.04554e-08 0)
(-2.47132e-09 1.93284e-08 0)
(-2.26694e-09 1.84328e-08 0)
(-2.1049e-09 1.8075e-08 0)
(-1.90951e-09 1.77542e-08 0)
(-1.67094e-09 1.74752e-08 0)
(-1.38193e-09 1.72404e-08 0)
(-1.0396e-09 1.7063e-08 0)
(-6.4739e-10 1.69485e-08 0)
(-2.19864e-10 1.68535e-08 0)
(2.19864e-10 1.68535e-08 0)
(6.4739e-10 1.69485e-08 0)
(1.0396e-09 1.7063e-08 0)
(1.38193e-09 1.72404e-08 0)
(1.67094e-09 1.74752e-08 0)
(1.90951e-09 1.77542e-08 0)
(2.1049e-09 1.8075e-08 0)
(2.26694e-09 1.84328e-08 0)
(2.47132e-09 1.93284e-08 0)
(2.72977e-09 2.04554e-08 0)
(2.97948e-09 2.17973e-08 0)
(3.22695e-09 2.3385e-08 0)
(3.48861e-09 2.52806e-08 0)
(3.81675e-09 2.7617e-08 0)
(4.27754e-09 3.05253e-08 0)
(4.86379e-09 3.42582e-08 0)
(5.59427e-09 3.90894e-08 0)
(6.5502e-09 4.5521e-08 0)
(7.90649e-09 5.45737e-08 0)
(9.93019e-09 6.79428e-08 0)
(1.35469e-08 8.9232e-08 0)
(1.97228e-08 1.28175e-07 0)
(3.17807e-08 2.1553e-07 0)
(5.85988e-08 5.36295e-07 0)
(9.48542e-07 1.15453e-05 0)
(1.09794e-05 5.14755e-06 0)
(1.78205e-05 4.71236e-07 0)
(1.39224e-05 3.21116e-07 0)
(1.12607e-05 2.19939e-07 0)
(9.35977e-06 1.66456e-07 0)
(7.87932e-06 1.34475e-07 0)
(6.65889e-06 1.136e-07 0)
(5.61207e-06 9.91859e-08 0)
(4.68688e-06 8.88762e-08 0)
(3.84941e-06 8.13561e-08 0)
(3.07606e-06 7.58435e-08 0)
(2.34945e-06 7.18527e-08 0)
(1.65614e-06 6.90755e-08 0)
(9.85143e-07 6.73179e-08 0)
(3.26983e-07 6.64656e-08 0)
(-3.26802e-07 2.05792e-07 0)
(-9.84587e-07 2.08429e-07 0)
(-1.65518e-06 2.13866e-07 0)
(-2.34801e-06 2.22458e-07 0)
(-3.07403e-06 2.34802e-07 0)
(-3.84663e-06 2.5185e-07 0)
(-4.68309e-06 2.75102e-07 0)
(-5.6068e-06 3.06966e-07 0)
(-6.65137e-06 3.51491e-07 0)
(-7.86805e-06 4.15919e-07 0)
(-9.34156e-06 5.14463e-07 0)
(-1.12277e-05 6.78848e-07 0)
(-1.38689e-05 9.92114e-07 0)
(-1.86791e-05 1.66502e-06 0)
(-2.05903e-05 9.99365e-06 0)
(-1.35919e-05 9.1993e-06 0)
(-4.06251e-06 1.70637e-05 0)
(-1.36754e-07 6.52348e-07 0)
(-5.71142e-08 2.5912e-07 0)
(-3.53265e-08 1.62878e-07 0)
(-2.47114e-08 1.19581e-07 0)
(-1.92609e-08 9.41618e-08 0)
(-1.57497e-08 7.77092e-08 0)
(-1.33507e-08 6.62701e-08 0)
(-1.15569e-08 5.78557e-08 0)
(-1.01322e-08 5.14085e-08 0)
(-9.01809e-09 4.64588e-08 0)
(-8.23545e-09 4.2502e-08 0)
(-7.61543e-09 3.92725e-08 0)
(-7.03054e-09 3.65777e-08 0)
(-6.44332e-09 3.42984e-08 0)
(-5.84214e-09 3.2397e-08 0)
(-5.37252e-09 3.08755e-08 0)
(-5.00162e-09 3.0259e-08 0)
(-4.55263e-09 2.97022e-08 0)
(-4.00003e-09 2.92156e-08 0)
(-3.32303e-09 2.88056e-08 0)
(-2.51036e-09 2.84935e-08 0)
(-1.56818e-09 2.82877e-08 0)
(-5.33455e-10 2.8123e-08 0)
(5.33455e-10 2.8123e-08 0)
(1.56818e-09 2.82877e-08 0)
(2.51036e-09 2.84935e-08 0)
(3.32303e-09 2.88056e-08 0)
(4.00003e-09 2.92156e-08 0)
(4.55263e-09 2.97022e-08 0)
(5.00162e-09 3.0259e-08 0)
(5.37252e-09 3.08755e-08 0)
(5.84214e-09 3.2397e-08 0)
(6.44332e-09 3.42984e-08 0)
(7.03054e-09 3.65777e-08 0)
(7.61543e-09 3.92725e-08 0)
(8.23545e-09 4.2502e-08 0)
(9.01809e-09 4.64588e-08 0)
(1.01322e-08 5.14085e-08 0)
(1.15569e-08 5.78557e-08 0)
(1.33507e-08 6.62701e-08 0)
(1.57497e-08 7.77092e-08 0)
(1.92609e-08 9.41618e-08 0)
(2.47114e-08 1.19581e-07 0)
(3.53265e-08 1.62878e-07 0)
(5.71142e-08 2.5912e-07 0)
(1.36754e-07 6.52348e-07 0)
(4.06251e-06 1.70637e-05 0)
(1.35919e-05 9.1993e-06 0)
(2.05903e-05 9.99365e-06 0)
(1.86791e-05 1.66502e-06 0)
(1.38689e-05 9.92114e-07 0)
(1.12277e-05 6.78848e-07 0)
(9.34156e-06 5.14463e-07 0)
(7.86805e-06 4.15919e-07 0)
(6.65137e-06 3.51491e-07 0)
(5.6068e-06 3.06966e-07 0)
(4.68309e-06 2.75102e-07 0)
(3.84663e-06 2.5185e-07 0)
(3.07403e-06 2.34802e-07 0)
(2.34801e-06 2.22458e-07 0)
(1.65518e-06 2.13866e-07 0)
(9.84587e-07 2.08429e-07 0)
(3.26802e-07 2.05792e-07 0)
(-3.26385e-07 3.58466e-07 0)
(-9.8331e-07 3.63051e-07 0)
(-1.65296e-06 3.72506e-07 0)
(-2.3447e-06 3.87442e-07 0)
(-3.06938e-06 4.08897e-07 0)
(-3.84026e-06 4.38517e-07 0)
(-4.67437e-06 4.78893e-07 0)
(-5.59473e-06 5.34181e-07 0)
(-6.63415e-06 6.11341e-07 0)
(-7.84231e-06 7.2277e-07 0)
(-9.30008e-06 8.9261e-07 0)
(-1.11522e-05 1.17414e-06 0)
(-1.36971e-05 1.708e-06 0)
(-1.77026e-05 3.00106e-06 0)
(-1.98715e-05 9.61409e-06 0)
(-2.37211e-05 1.09045e-05 0)
(-1.8219e-05 3.12221e-05 0)
(-4.50729e-06 1.61243e-05 0)
(-2.99654e-07 1.15052e-06 0)
(-8.49628e-08 4.25679e-07 0)
(-4.90903e-08 2.62835e-07 0)
(-3.58376e-08 1.93558e-07 0)
(-2.83417e-08 1.54869e-07 0)
(-2.36095e-08 1.29795e-07 0)
(-2.02344e-08 1.12226e-07 0)
(-1.76194e-08 9.90999e-08 0)
(-1.55997e-08 8.92718e-08 0)
(-1.42259e-08 8.15118e-08 0)
(-1.31513e-08 7.51786e-08 0)
(-1.21386e-08 6.99401e-08 0)
(-1.11288e-08 6.55207e-08 0)
(-1.01159e-08 6.18802e-08 0)
(-9.34552e-09 5.89643e-08 0)
(-8.74139e-09 5.77812e-08 0)
(-8.00342e-09 5.67176e-08 0)
(-7.08078e-09 5.57974e-08 0)
(-5.92737e-09 5.5034e-08 0)
(-4.51015e-09 5.44582e-08 0)
(-2.83278e-09 5.40752e-08 0)
(-9.66422e-10 5.37715e-08 0)
(9.66422e-10 5.37715e-08 0)
(2.83278e-09 5.40752e-08 0)
(4.51015e-09 5.44582e-08 0)
(5.92737e-09 5.5034e-08 0)
(7.08078e-09 5.57974e-08 0)
(8.00342e-09 5.67176e-08 0)
(8.74139e-09 5.77812e-08 0)
(9.34552e-09 5.89643e-08 0)
(1.01159e-08 6.18802e-08 0)
(1.11288e-08 6.55207e-08 0)
(1.21386e-08 6.99401e-08 0)
(1.31513e-08 7.51786e-08 0)
(1.42259e-08 8.15118e-08 0)
(1.55997e-08 8.92718e-08 0)
(1.76194e-08 9.90999e-08 0)
(2.02344e-08 1.12226e-07 0)
(2.36095e-08 1.29795e-07 0)
(2.83417e-08 1.54869e-07 0)
(3.58376e-08 1.93558e-07 0)
(4.90903e-08 2.62835e-07 0)
(8.49628e-08 4.25679e-07 0)
(2.99654e-07 1.15052e-06 0)
(4.50729e-06 1.61243e-05 0)
(1.8219e-05 3.12221e-05 0)
(2.37211e-05 1.09045e-05 0)
(1.98715e-05 9.61409e-06 0)
(1.77026e-05 3.00106e-06 0)
(1.36971e-05 1.708e-06 0)
(1.11522e-05 1.17414e-06 0)
(9.30008e-06 8.9261e-07 0)
(7.84231e-06 7.2277e-07 0)
(6.63415e-06 6.11341e-07 0)
(5.59473e-06 5.34181e-07 0)
(4.67437e-06 4.78893e-07 0)
(3.84026e-06 4.38517e-07 0)
(3.06938e-06 4.08897e-07 0)
(2.3447e-06 3.87442e-07 0)
(1.65296e-06 3.72506e-07 0)
(9.8331e-07 3.63051e-07 0)
(3.26385e-07 3.58466e-07 0)
(-3.25667e-07 5.25628e-07 0)
(-9.81111e-07 5.32332e-07 0)
(-1.64914e-06 5.46154e-07 0)
(-2.339e-06 5.67982e-07 0)
(-3.06139e-06 5.99324e-07 0)
(-3.82931e-06 6.42567e-07 0)
(-4.6594e-06 7.01458e-07 0)
(-5.57402e-06 7.81992e-07 0)
(-6.60469e-06 8.94151e-07 0)
(-7.79843e-06 1.05558e-06 0)
(-9.22986e-06 1.30021e-06 0)
(-1.1026e-05 1.70121e-06 0)
(-1.34171e-05 2.44459e-06 0)
(-1.67467e-05 4.13699e-06 0)
(-1.88057e-05 9.56079e-06 0)
(-2.12443e-05 1.25533e-05 0)
(-1.75885e-05 2.72512e-05 0)
(-5.91234e-06 2.96325e-05 0)
(-1.03629e-06 1.07873e-05 0)
(-1.02996e-06 3.60749e-06 0)
(-1.4513e-07 8.10169e-07 0)
(-6.88378e-08 3.86686e-07 0)
(-4.79931e-08 2.74406e-07 0)
(-3.79627e-08 2.18572e-07 0)
(-3.16909e-08 1.84295e-07 0)
(-2.71549e-08 1.60343e-07 0)
(-2.37685e-08 1.43341e-07 0)
(-2.16042e-08 1.30301e-07 0)
(-1.99533e-08 1.19749e-07 0)
(-1.84017e-08 1.11175e-07 0)
(-1.68727e-08 1.03988e-07 0)
(-1.5391e-08 9.8192e-08 0)
(-1.4322e-08 9.35463e-08 0)
(-1.34956e-08 9.16599e-08 0)
(-1.24685e-08 8.99716e-08 0)
(-1.11487e-08 8.85289e-08 0)
(-9.44345e-09 8.73458e-08 0)
(-7.26698e-09 8.64496e-08 0)
(-4.60347e-09 8.58387e-08 0)
(-1.57758e-09 8.53646e-08 0)
(1.57758e-09 8.53646e-08 0)
(4.60347e-09 8.58387e-08 0)
(7.26698e-09 8.64496e-08 0)
(9.44345e-09 8.73458e-08 0)
(1.11487e-08 8.85289e-08 0)
(1.24685e-08 8.99716e-08 0)
(1.34956e-08 9.16599e-08 0)
(1.4322e-08 9.35463e-08 0)
(1.5391e-08 9.8192e-08 0)
(1.68727e-08 1.03988e-07 0)
(1.84017e-08 1.11175e-07 0)
(1.99533e-08 1.19749e-07 0)
(2.16042e-08 1.30301e-07 0)
(2.37685e-08 1.43341e-07 0)
(2.71549e-08 1.60343e-07 0)
(3.16909e-08 1.84295e-07 0)
(3.79627e-08 2.18572e-07 0)
(4.79931e-08 2.74406e-07 0)
(6.88378e-08 3.86686e-07 0)
(1.4513e-07 8.10169e-07 0)
(1.02996e-06 3.60749e-06 0)
(1.03629e-06 1.07873e-05 0)
(5.91234e-06 2.96325e-05 0)
(1.75885e-05 2.72512e-05 0)
(2.12443e-05 1.25533e-05 0)
(1.88057e-05 9.56079e-06 0)
(1.67467e-05 4.13699e-06 0)
(1.34171e-05 2.44459e-06 0)
(1.1026e-05 1.70121e-06 0)
(9.22986e-06 1.30021e-06 0)
(7.79843e-06 1.05558e-06 0)
(6.60469e-06 8.94151e-07 0)
(5.57402e-06 7.81992e-07 0)
(4.6594e-06 7.01458e-07 0)
(3.82931e-06 6.42567e-07 0)
(3.06139e-06 5.99324e-07 0)
(2.339e-06 5.67982e-07 0)
(1.64914e-06 5.46154e-07 0)
(9.81111e-07 5.32332e-07 0)
(3.25667e-07 5.25628e-07 0)
(-3.24569e-07 7.0846e-07 0)
(-9.77751e-07 7.17456e-07 0)
(-1.6433e-06 7.35999e-07 0)
(-2.3303e-06 7.65272e-07 0)
(-3.04918e-06 8.07275e-07 0)
(-3.8126e-06 8.65171e-07 0)
(-4.63661e-06 9.4391e-07 0)
(-5.54255e-06 1.05137e-06 0)
(-6.56007e-06 1.20056e-06 0)
(-7.73238e-06 1.41423e-06 0)
(-9.12533e-06 1.73527e-06 0)
(-1.08426e-05 2.25311e-06 0)
(-1.30393e-05 3.18027e-06 0)
(-1.57941e-05 5.10477e-06 0)
(-1.7608e-05 9.6789e-06 0)
(-1.89868e-05 1.34949e-05 0)
(-1.54896e-05 2.43002e-05 0)
(-5.65855e-06 2.65596e-05 0)
(9.22795e-07 1.92736e-05 0)
(-4.07952e-06 8.46231e-06 0)
(-5.69889e-06 1.41476e-05 0)
(-5.77527e-07 1.87041e-06 0)
(-1.21898e-07 7.08809e-07 0)
(-6.66671e-08 3.89541e-07 0)
(-4.94994e-08 2.93993e-07 0)
(-4.02615e-08 2.43652e-07 0)
(-3.41951e-08 2.13011e-07 0)
(-3.07683e-08 1.91337e-07 0)
(-2.83012e-08 1.7444e-07 0)
(-2.60225e-08 1.61249e-07 0)
(-2.38328e-08 1.50361e-07 0)
(-2.18285e-08 1.41916e-07 0)
(-2.05257e-08 1.3516e-07 0)
(-1.95533e-08 1.32417e-07 0)
(-1.83021e-08 1.29968e-07 0)
(-1.66169e-08 1.27912e-07 0)
(-1.43236e-08 1.26228e-07 0)
(-1.12107e-08 1.24903e-07 0)
(-7.19271e-09 1.2395e-07 0)
(-2.48119e-09 1.2324e-07 0)
(2.48119e-09 1.2324e-07 0)
(7.19271e-09 1.2395e-07 0)
(1.12107e-08 1.24903e-07 0)
(1.43236e-08 1.26228e-07 0)
(1.66169e-08 1.27912e-07 0)
(1.83021e-08 1.29968e-07 0)
(1.95533e-08 1.32417e-07 0)
(2.05257e-08 1.3516e-07 0)
(2.18285e-08 1.41916e-07 0)
(2.38328e-08 1.50361e-07 0)
(2.60225e-08 1.61249e-07 0)
(2.83012e-08 1.7444e-07 0)
(3.07683e-08 1.91337e-07 0)
(3.41951e-08 2.13011e-07 0)
(4.02615e-08 2.43652e-07 0)
(4.94994e-08 2.93993e-07 0)
(6.66671e-08 3.89541e-07 0)
(1.21898e-07 7.08809e-07 0)
(5.77527e-07 1.87041e-06 0)
(5.69889e-06 1.41476e-05 0)
(4.07952e-06 8.46231e-06 0)
(-9.22795e-07 1.92736e-05 0)
(5.65855e-06 2.65596e-05 0)
(1.54896e-05 2.43002e-05 0)
(1.89868e-05 1.34949e-05 0)
(1.7608e-05 9.6789e-06 0)
(1.57941e-05 5.10477e-06 0)
(1.30393e-05 3.18027e-06 0)
(1.08426e-05 2.25311e-06 0)
(9.12533e-06 1.73527e-06 0)
(7.73238e-06 1.41423e-06 0)
(6.56007e-06 1.20056e-06 0)
(5.54255e-06 1.05137e-06 0)
(4.63661e-06 9.4391e-07 0)
(3.8126e-06 8.65171e-07 0)
(3.04918e-06 8.07275e-07 0)
(2.3303e-06 7.65272e-07 0)
(1.6433e-06 7.35999e-07 0)
(9.77751e-07 7.17456e-07 0)
(3.24569e-07 7.0846e-07 0)
(-3.22998e-07 9.08165e-07 0)
(-9.72943e-07 9.19625e-07 0)
(-1.63495e-06 9.43237e-07 0)
(-2.31786e-06 9.8049e-07 0)
(-3.03176e-06 1.03389e-06 0)
(-3.78878e-06 1.10741e-06 0)
(-4.60418e-06 1.20719e-06 0)
(-5.49791e-06 1.34298e-06 0)
(-6.49709e-06 1.53069e-06 0)
(-7.63991e-06 1.79772e-06 0)
(-8.98125e-06 2.19437e-06 0)
(-1.05981e-05 2.82091e-06 0)
(-1.25742e-05 3.89632e-06 0)
(-1.48346e-05 5.92849e-06 0)
(-1.63339e-05 9.8726e-06 0)
(-1.69532e-05 1.39066e-05 0)
(-1.37622e-05 2.183e-05 0)
(-6.28629e-06 2.37255e-05 0)
(-1.34249e-06 1.85764e-05 0)
(-4.92621e-06 1.17878e-05 0)
(-1.65126e-06 2.45092e-05 0)
(-2.61044e-06 6.05154e-06 0)
(-6.17356e-06 1.51958e-05 0)
(-5.7281e-07 1.69195e-06 0)
(-1.30575e-07 7.16071e-07 0)
(-6.92744e-08 4.16761e-07 0)
(-5.07316e-08 3.21671e-07 0)
(-4.33773e-08 2.74624e-07 0)
(-3.90598e-08 2.43982e-07 0)
(-3.54825e-08 2.22712e-07 0)
(-3.23021e-08 2.06072e-07 0)
(-2.9663e-08 1.94141e-07 0)
(-2.82896e-08 1.84747e-07 0)
(-2.73683e-08 1.8094e-07 0)
(-2.60771e-08 1.77533e-07 0)
(-2.41779e-08 1.74776e-07 0)
(-2.13796e-08 1.72474e-07 0)
(-1.7159e-08 1.70461e-07 0)
(-1.12132e-08 1.6887e-07 0)
(-3.90359e-09 1.67755e-07 0)
(3.90359e-09 1.67755e-07 0)
(1.12132e-08 1.6887e-07 0)
(1.7159e-08 1.70461e-07 0)
(2.13796e-08 1.72474e-07 0)
(2.41779e-08 1.74776e-07 0)
(2.60771e-08 1.77533e-07 0)
(2.73683e-08 1.8094e-07 0)
(2.82896e-08 1.84747e-07 0)
(2.9663e-08 1.94141e-07 0)
(3.23021e-08 2.06072e-07 0)
(3.54825e-08 2.22712e-07 0)
(3.90598e-08 2.43982e-07 0)
(4.33773e-08 2.74624e-07 0)
(5.07316e-08 3.21671e-07 0)
(6.92744e-08 4.16761e-07 0)
(1.30575e-07 7.16071e-07 0)
(5.7281e-07 1.69195e-06 0)
(6.17356e-06 1.51958e-05 0)
(2.61044e-06 6.05154e-06 0)
(1.65126e-06 2.45092e-05 0)
(4.92621e-06 1.17878e-05 0)
(1.34249e-06 1.85764e-05 0)
(6.28629e-06 2.37255e-05 0)
(1.37622e-05 2.183e-05 0)
(1.69532e-05 1.39066e-05 0)
(1.63339e-05 9.8726e-06 0)
(1.48346e-05 5.92849e-06 0)
(1.25742e-05 3.89632e-06 0)
(1.05981e-05 2.82091e-06 0)
(8.98125e-06 2.19437e-06 0)
(7.63991e-06 1.79772e-06 0)
(6.49709e-06 1.53069e-06 0)
(5.49791e-06 1.34298e-06 0)
(4.60418e-06 1.20719e-06 0)
(3.78878e-06 1.10741e-06 0)
(3.03176e-06 1.03389e-06 0)
(2.31786e-06 9.8049e-07 0)
(1.63495e-06 9.43237e-07 0)
(9.72943e-07 9.19625e-07 0)
(3.22998e-07 9.08165e-07 0)
(-3.20845e-07 1.12594e-06 0)
(-9.66352e-07 1.14002e-06 0)
(-1.62352e-06 1.16903e-06 0)
(-2.30083e-06 1.21476e-06 0)
(-3.00793e-06 1.28023e-06 0)
(-3.75628e-06 1.37019e-06 0)
(-4.56006e-06 1.49198e-06 0)
(-5.43743e-06 1.65708e-06 0)
(-6.41233e-06 1.88403e-06 0)
(-7.51682e-06 2.20403e-06 0)
(-8.79314e-06 2.67258e-06 0)
(-1.02906e-05 3.39436e-06 0)
(-1.20331e-05 4.57719e-06 0)
(-1.38653e-05 6.6254e-06 0)
(-1.50325e-05 1.00726e-05 0)
(-1.51387e-05 1.39441e-05 0)
(-1.23352e-05 1.97706e-05 0)
(-6.69842e-06 2.13776e-05 0)
(-2.89628e-06 1.79834e-05 0)
(-4.29704e-06 1.40329e-05 0)
(-2.39022e-06 2.05325e-05 0)
(-3.67534e-06 1.07936e-05 0)
(3.96702e-08 2.60969e-05 0)
(4.78186e-08 6.0991e-06 0)
(-5.34543e-06 1.21978e-05 0)
(-9.38167e-07 2.4771e-06 0)
(-1.69822e-07 8.16057e-07 0)
(-7.99439e-08 5.02661e-07 0)
(-5.88056e-08 3.64392e-07 0)
(-4.92774e-08 3.09155e-07 0)
(-4.33433e-08 2.76731e-07 0)
(-3.9403e-08 2.5783e-07 0)
(-3.81766e-08 2.44304e-07 0)
(-3.77067e-08 2.38922e-07 0)
(-3.67391e-08 2.34022e-07 0)
(-3.4989e-08 2.30499e-07 0)
(-3.21172e-08 2.27409e-07 0)
(-2.67624e-08 2.24007e-07 0)
(-1.79437e-08 2.20965e-07 0)
(-6.32042e-09 2.19001e-07 0)
(6.32042e-09 2.19001e-07 0)
(1.79437e-08 2.20965e-07 0)
(2.67624e-08 2.24007e-07 0)
(3.21172e-08 2.27409e-07 0)
(3.4989e-08 2.30499e-07 0)
(3.67391e-08 2.34022e-07 0)
(3.77067e-08 2.38922e-07 0)
(3.81766e-08 2.44304e-07 0)
(3.9403e-08 2.5783e-07 0)
(4.33433e-08 2.76731e-07 0)
(4.92774e-08 3.09155e-07 0)
(5.88056e-08 3.64392e-07 0)
(7.99439e-08 5.02661e-07 0)
(1.69822e-07 8.16057e-07 0)
(9.38167e-07 2.4771e-06 0)
(5.34543e-06 1.21978e-05 0)
(-4.78186e-08 6.0991e-06 0)
(-3.96702e-08 2.60969e-05 0)
(3.67534e-06 1.07936e-05 0)
(2.39022e-06 2.05325e-05 0)
(4.29704e-06 1.40329e-05 0)
(2.89628e-06 1.79834e-05 0)
(6.69842e-06 2.13776e-05 0)
(1.23352e-05 1.97706e-05 0)
(1.51387e-05 1.39441e-05 0)
(1.50325e-05 1.00726e-05 0)
(1.38653e-05 6.6254e-06 0)
(1.20331e-05 4.57719e-06 0)
(1.02906e-05 3.39436e-06 0)
(8.79314e-06 2.67258e-06 0)
(7.51682e-06 2.20403e-06 0)
(6.41233e-06 1.88403e-06 0)
(5.43743e-06 1.65708e-06 0)
(4.56006e-06 1.49198e-06 0)
(3.75628e-06 1.37019e-06 0)
(3.00793e-06 1.28023e-06 0)
(2.30083e-06 1.21476e-06 0)
(1.62352e-06 1.16903e-06 0)
(9.66352e-07 1.14002e-06 0)
(3.20845e-07 1.12594e-06 0)
(-3.17981e-07 1.36292e-06 0)
(-9.57592e-07 1.37977e-06 0)
(-1.60833e-06 1.41446e-06 0)
(-2.27825e-06 1.46908e-06 0)
(-2.97639e-06 1.54716e-06 0)
(-3.71336e-06 1.65419e-06 0)
(-4.50201e-06 1.79858e-06 0)
(-5.35829e-06 1.99338e-06 0)
(-6.30235e-06 2.25922e-06 0)
(-7.35924e-06 2.62999e-06 0)
(-8.55779e-06 3.16358e-06 0)
(-9.92113e-06 3.96254e-06 0)
(-1.14277e-05 5.21053e-06 0)
(-1.28894e-05 7.20789e-06 0)
(-1.37443e-05 1.0235e-05 0)
(-1.35305e-05 1.37362e-05 0)
(-1.11422e-05 1.80592e-05 0)
(-6.90953e-06 1.94511e-05 0)
(-3.91729e-06 1.74028e-05 0)
(-4.0413e-06 1.51574e-05 0)
(-2.7816e-06 1.82442e-05 0)
(-2.97133e-06 1.36104e-05 0)
(-5.87871e-07 2.10401e-05 0)
(-8.69823e-08 1.09586e-05 0)
(1.84831e-06 2.09383e-05 0)
(2.86571e-06 6.40575e-06 0)
(-8.468e-06 4.89991e-06 0)
(-7.64046e-06 1.82829e-05 0)
(-3.89419e-07 1.12097e-06 0)
(-1.25567e-07 6.38081e-07 0)
(-7.1267e-08 4.37348e-07 0)
(-5.53673e-08 3.5806e-07 0)
(-5.26376e-08 3.25018e-07 0)
(-5.28365e-08 3.13729e-07 0)
(-5.23574e-08 3.03578e-07 0)
(-5.11369e-08 2.98634e-07 0)
(-4.95865e-08 2.94207e-07 0)
(-4.37179e-08 2.87104e-07 0)
(-3.03139e-08 2.80217e-07 0)
(-1.08151e-08 2.76236e-07 0)
(1.08151e-08 2.76236e-07 0)
(3.03139e-08 2.80217e-07 0)
(4.37179e-08 2.87104e-07 0)
(4.95865e-08 2.94207e-07 0)
(5.11369e-08 2.98634e-07 0)
(5.23574e-08 3.03578e-07 0)
(5.28365e-08 3.13729e-07 0)
(5.26376e-08 3.25018e-07 0)
(5.53673e-08 3.5806e-07 0)
(7.1267e-08 4.37348e-07 0)
(1.25567e-07 6.38081e-07 0)
(3.89419e-07 1.12097e-06 0)
(7.64046e-06 1.82829e-05 0)
(8.468e-06 4.89991e-06 0)
(-2.86571e-06 6.40575e-06 0)
(-1.84831e-06 2.09383e-05 0)
(8.69823e-08 1.09586e-05 0)
(5.87871e-07 2.10401e-05 0)
(2.97133e-06 1.36104e-05 0)
(2.7816e-06 1.82442e-05 0)
(4.0413e-06 1.51574e-05 0)
(3.91729e-06 1.74028e-05 0)
(6.90953e-06 1.94511e-05 0)
(1.11422e-05 1.80592e-05 0)
(1.35305e-05 1.37362e-05 0)
(1.37443e-05 1.0235e-05 0)
(1.28894e-05 7.20789e-06 0)
(1.14277e-05 5.21053e-06 0)
(9.92113e-06 3.96254e-06 0)
(8.55779e-06 3.16358e-06 0)
(7.35924e-06 2.62999e-06 0)
(6.30235e-06 2.25922e-06 0)
(5.35829e-06 1.99338e-06 0)
(4.50201e-06 1.79858e-06 0)
(3.71336e-06 1.65419e-06 0)
(2.97639e-06 1.54716e-06 0)
(2.27825e-06 1.46908e-06 0)
(1.60833e-06 1.41446e-06 0)
(9.57592e-07 1.37977e-06 0)
(3.17981e-07 1.36292e-06 0)
(-3.14264e-07 1.62016e-06 0)
(-9.46225e-07 1.63989e-06 0)
(-1.58864e-06 1.68047e-06 0)
(-2.24901e-06 1.74428e-06 0)
(-2.93566e-06 1.83531e-06 0)
(-3.65812e-06 1.95971e-06 0)
(-4.42764e-06 2.12683e-06 0)
(-5.25763e-06 2.3509e-06 0)
(-6.1639e-06 2.65401e-06 0)
(-7.16403e-06 3.07128e-06 0)
(-8.27362e-06 3.65997e-06 0)
(-9.49329e-06 4.51466e-06 0)
(-1.07709e-05 5.78721e-06 0)
(-1.19149e-05 7.68569e-06 0)
(-1.25003e-05 1.03384e-05 0)
(-1.21101e-05 1.33838e-05 0)
(-1.01249e-05 1.66394e-05 0)
(-6.94513e-06 1.78741e-05 0)
(-4.54486e-06 1.67963e-05 0)
(-3.97938e-06 1.55712e-05 0)
(-2.98189e-06 1.69166e-05 0)
(-2.60565e-06 1.48514e-05 0)
(-9.7877e-07 1.81812e-05 0)
(-2.20996e-07 1.33004e-05 0)
(9.94369e-07 1.73278e-05 0)
(8.40128e-07 9.68702e-06 0)
(-6.38894e-06 1.03476e-05 0)
(2.01661e-06 3.05164e-05 0)
(5.9515e-06 5.48916e-06 0)
(-3.54146e-06 8.2879e-06 0)
(-2.39031e-06 5.18062e-06 0)
(-2.97839e-07 9.54666e-07 0)
(-1.53832e-07 6.12772e-07 0)
(-1.19766e-07 5.38275e-07 0)
(-9.64497e-08 4.63526e-07 0)
(-8.28854e-08 4.16908e-07 0)
(-8.32313e-08 3.91563e-07 0)
(-7.85891e-08 3.65958e-07 0)
(-5.6204e-08 3.46126e-07 0)
(-2.01813e-08 3.36988e-07 0)
(2.01813e-08 3.36988e-07 0)
(5.6204e-08 3.46126e-07 0)
(7.85891e-08 3.65958e-07 0)
(8.32313e-08 3.91563e-07 0)
(8.28854e-08 4.16908e-07 0)
(9.64497e-08 4.63526e-07 0)
(1.19766e-07 5.38275e-07 0)
(1.53832e-07 6.12772e-07 0)
(2.97839e-07 9.54666e-07 0)
(2.39031e-06 5.18062e-06 0)
(3.54146e-06 8.2879e-06 0)
(-5.9515e-06 5.48916e-06 0)
(-2.01661e-06 3.05164e-05 0)
(6.38894e-06 1.03476e-05 0)
(-8.40128e-07 9.68702e-06 0)
(-9.94369e-07 1.73278e-05 0)
(2.20996e-07 1.33004e-05 0)
(9.7877e-07 1.81812e-05 0)
(2.60565e-06 1.48514e-05 0)
(2.98189e-06 1.69166e-05 0)
(3.97938e-06 1.55712e-05 0)
(4.54486e-06 1.67963e-05 0)
(6.94513e-06 1.78741e-05 0)
(1.01249e-05 1.66394e-05 0)
(1.21101e-05 1.33838e-05 0)
(1.25003e-05 1.03384e-05 0)
(1.19149e-05 7.68569e-06 0)
(1.07709e-05 5.78721e-06 0)
(9.49329e-06 4.51466e-06 0)
(8.27362e-06 3.65997e-06 0)
(7.16403e-06 3.07128e-06 0)
(6.1639e-06 2.65401e-06 0)
(5.25763e-06 2.3509e-06 0)
(4.42764e-06 2.12683e-06 0)
(3.65812e-06 1.95971e-06 0)
(2.93566e-06 1.83531e-06 0)
(2.24901e-06 1.74428e-06 0)
(1.58864e-06 1.68047e-06 0)
(9.46225e-07 1.63989e-06 0)
(3.14264e-07 1.62016e-06 0)
(-3.09534e-07 1.89851e-06 0)
(-9.31771e-07 1.92118e-06 0)
(-1.56364e-06 1.96777e-06 0)
(-2.21196e-06 2.04091e-06 0)
(-2.88417e-06 2.14496e-06 0)
(-3.58858e-06 2.28662e-06 0)
(-4.33459e-06 2.47593e-06 0)
(-5.13272e-06 2.7279e-06 0)
(-5.9942e-06 3.06518e-06 0)
(-6.92911e-06 3.52253e-06 0)
(-7.94102e-06 4.1537e-06 0)
(-9.01301e-06 5.04083e-06 0)
(-1.00759e-05 6.30133e-06 0)
(-1.09522e-05 8.0679e-06 0)
(-1.13213e-05 1.03777e-05 0)
(-1.08554e-05 1.29607e-05 0)
(-9.23626e-06 1.54611e-05 0)
(-6.83603e-06 1.65776e-05 0)
(-4.88448e-06 1.61595e-05 0)
(-3.99358e-06 1.55513e-05 0)
(-3.08351e-06 1.60869e-05 0)
(-2.44226e-06 1.52215e-05 0)
(-1.24234e-06 1.65581e-05 0)
(-4.5495e-07 1.42332e-05 0)
(3.18041e-07 1.55166e-05 0)
(-4.5468e-08 1.17336e-05 0)
(-3.22574e-06 1.2864e-05 0)
(1.35708e-06 2.22811e-05 0)
(4.32726e-06 1.06621e-05 0)
(3.15171e-06 1.47298e-05 0)
(4.47616e-06 1.01164e-05 0)
(-2.37707e-06 4.37384e-06 0)
(-1.56172e-05 8.27448e-06 0)
(-1.30946e-05 1.24595e-05 0)
(-2.24058e-06 1.92621e-06 0)
(-7.11504e-07 9.74192e-07 0)
(-3.67786e-07 6.91736e-07 0)
(-2.23241e-07 5.27611e-07 0)
(-1.28027e-07 4.23052e-07 0)
(-4.40781e-08 3.97665e-07 0)
(4.40781e-08 3.97665e-07 0)
(1.28027e-07 4.23052e-07 0)
(2.23241e-07 5.27611e-07 0)
(3.67786e-07 6.91736e-07 0)
(7.11504e-07 9.74192e-07 0)
(2.24058e-06 1.92621e-06 0)
(1.30946e-05 1.24595e-05 0)
(1.56172e-05 8.27448e-06 0)
(2.37707e-06 4.37384e-06 0)
(-4.47616e-06 1.01164e-05 0)
(-3.15171e-06 1.47298e-05 0)
(-4.32726e-06 1.06621e-05 0)
(-1.35708e-06 2.22811e-05 0)
(3.22574e-06 1.2864e-05 0)
(4.5468e-08 1.17336e-05 0)
(-3.18041e-07 1.55166e-05 0)
(4.5495e-07 1.42332e-05 0)
(1.24234e-06 1.65581e-05 0)
(2.44226e-06 1.52215e-05 0)
(3.08351e-06 1.60869e-05 0)
(3.99358e-06 1.55513e-05 0)
(4.88448e-06 1.61595e-05 0)
(6.83603e-06 1.65776e-05 0)
(9.23626e-06 1.54611e-05 0)
(1.08554e-05 1.29607e-05 0)
(1.13213e-05 1.03777e-05 0)
(1.09522e-05 8.0679e-06 0)
(1.00759e-05 6.30133e-06 0)
(9.01301e-06 5.04083e-06 0)
(7.94102e-06 4.1537e-06 0)
(6.92911e-06 3.52253e-06 0)
(5.9942e-06 3.06518e-06 0)
(5.13272e-06 2.7279e-06 0)
(4.33459e-06 2.47593e-06 0)
(3.58858e-06 2.28662e-06 0)
(2.88417e-06 2.14496e-06 0)
(2.21196e-06 2.04091e-06 0)
(1.56364e-06 1.96777e-06 0)
(9.31771e-07 1.92118e-06 0)
(3.09534e-07 1.89851e-06 0)
(-3.03621e-07 2.19858e-06 0)
(-9.13715e-07 2.22419e-06 0)
(-1.53245e-06 2.27676e-06 0)
(-2.16585e-06 2.35911e-06 0)
(-2.82034e-06 2.4759e-06 0)
(-3.5028e-06 2.6342e-06 0)
(-4.22061e-06 2.8444e-06 0)
(-4.98123e-06 3.12174e-06 0)
(-5.79127e-06 3.48854e-06 0)
(-6.65383e-06 3.97757e-06 0)
(-7.56247e-06 4.63662e-06 0)
(-8.48832e-06 5.53275e-06 0)
(-9.35615e-06 6.75027e-06 0)
(-1.00123e-05 8.36431e-06 0)
(-1.0219e-05 1.03596e-05 0)
(-9.74285e-06 1.25174e-05 0)
(-8.44012e-06 1.4481e-05 0)
(-6.61378e-06 1.55014e-05 0)
(-5.01448e-06 1.55052e-05 0)
(-4.01354e-06 1.52768e-05 0)
(-3.13351e-06 1.54856e-05 0)
(-2.39078e-06 1.51429e-05 0)
(-1.43712e-06 1.55878e-05 0)
(-7.08266e-07 1.44624e-05 0)
(-1.63927e-07 1.46475e-05 0)
(-3.72795e-07 1.28794e-05 0)
(-1.53121e-06 1.37968e-05 0)
(1.00241e-06 1.79105e-05 0)
(2.95266e-06 1.26467e-05 0)
(2.73232e-06 1.3407e-05 0)
(2.87589e-06 1.07471e-05 0)
(-2.93381e-07 8.56676e-06 0)
(-1.76952e-06 1.44606e-05 0)
(3.5943e-06 1.92538e-05 0)
(5.07798e-06 6.50357e-06 0)
(-9.79811e-07 5.19667e-06 0)
(-3.72516e-06 5.18217e-06 0)
(-1.94589e-06 1.66683e-06 0)
(-4.7319e-07 5.33377e-07 0)
(-1.37508e-07 4.41069e-07 0)
(1.37508e-07 4.41069e-07 0)
(4.7319e-07 5.33377e-07 0)
(1.94589e-06 1.66683e-06 0)
(3.72516e-06 5.18217e-06 0)
(9.79811e-07 5.19667e-06 0)
(-5.07798e-06 6.50357e-06 0)
(-3.5943e-06 1.92538e-05 0)
(1.76952e-06 1.44606e-05 0)
(2.93381e-07 8.56676e-06 0)
(-2.87589e-06 1.07471e-05 0)
(-2.73232e-06 1.3407e-05 0)
(-2.95266e-06 1.26467e-05 0)
(-1.00241e-06 1.79105e-05 0)
(1.53121e-06 1.37968e-05 0)
(3.72795e-07 1.28794e-05 0)
(1.63927e-07 1.46475e-05 0)
(7.08266e-07 1.44624e-05 0)
(1.43712e-06 1.55878e-05 0)
(2.39078e-06 1.51429e-05 0)
(3.13351e-06 1.54856e-05 0)
(4.01354e-06 1.52768e-05 0)
(5.01448e-06 1.55052e-05 0)
(6.61378e-06 1.55014e-05 0)
(8.44012e-06 1.4481e-05 0)
(9.74285e-06 1.25174e-05 0)
(1.0219e-05 1.03596e-05 0)
(1.00123e-05 8.36431e-06 0)
(9.35615e-06 6.75027e-06 0)
(8.48832e-06 5.53275e-06 0)
(7.56247e-06 4.63662e-06 0)
(6.65383e-06 3.97757e-06 0)
(5.79127e-06 3.48854e-06 0)
(4.98123e-06 3.12174e-06 0)
(4.22061e-06 2.8444e-06 0)
(3.5028e-06 2.6342e-06 0)
(2.82034e-06 2.4759e-06 0)
(2.16585e-06 2.35911e-06 0)
(1.53245e-06 2.27676e-06 0)
(9.13715e-07 2.22419e-06 0)
(3.03621e-07 2.19858e-06 0)
(-2.96351e-07 2.52058e-06 0)
(-8.91535e-07 2.54905e-06 0)
(-1.49421e-06 2.6074e-06 0)
(-2.10948e-06 2.69857e-06 0)
(-2.74263e-06 2.82738e-06 0)
(-3.399e-06 3.00103e-06 0)
(-4.08381e-06 3.22995e-06 0)
(-4.80148e-06 3.52898e-06 0)
(-5.55426e-06 3.91912e-06 0)
(-6.33924e-06 4.4298e-06 0)
(-7.14254e-06 5.1011e-06 0)
(-7.92877e-06 5.9842e-06 0)
(-8.62499e-06 7.13446e-06 0)
(-9.10504e-06 8.5859e-06 0)
(-9.19781e-06 1.02959e-05 0)
(-8.74992e-06 1.20855e-05 0)
(-7.71091e-06 1.36619e-05 0)
(-6.30755e-06 1.45966e-05 0)
(-4.9925e-06 1.4852e-05 0)
(-4.00217e-06 1.4861e-05 0)
(-3.15057e-06 1.49723e-05 0)
(-2.39233e-06 1.48498e-05 0)
(-1.58891e-06 1.49411e-05 0)
(-9.35357e-07 1.43687e-05 0)
(-4.85388e-07 1.42097e-05 0)
(-4.70636e-07 1.3416e-05 0)
(-6.8812e-07 1.39758e-05 0)
(7.73849e-07 1.56124e-05 0)
(2.04198e-06 1.32334e-05 0)
(2.17223e-06 1.286e-05 0)
(2.03188e-06 1.12995e-05 0)
(6.32665e-07 1.04238e-05 0)
(1.31401e-07 1.2617e-05 0)
(1.48876e-06 1.32e-05 0)
(1.83633e-06 1.04081e-05 0)
(6.30548e-07 9.79768e-06 0)
(-6.07833e-07 1.01435e-05 0)
(-1.14288e-06 2.88103e-06 0)
(-8.45581e-07 6.89551e-07 0)
(-2.87451e-07 4.25115e-07 0)
(2.87451e-07 4.25115e-07 0)
(8.45581e-07 6.89551e-07 0)
(1.14288e-06 2.88103e-06 0)
(6.07833e-07 1.01435e-05 0)
(-6.30548e-07 9.79768e-06 0)
(-1.83633e-06 1.04081e-05 0)
(-1.48876e-06 1.32e-05 0)
(-1.31401e-07 1.2617e-05 0)
(-6.32665e-07 1.04238e-05 0)
(-2.03188e-06 1.12995e-05 0)
(-2.17223e-06 1.286e-05 0)
(-2.04198e-06 1.32334e-05 0)
(-7.73849e-07 1.56124e-05 0)
(6.8812e-07 1.39758e-05 0)
(4.70636e-07 1.3416e-05 0)
(4.85388e-07 1.42097e-05 0)
(9.35357e-07 1.43687e-05 0)
(1.58891e-06 1.49411e-05 0)
(2.39233e-06 1.48498e-05 0)
(3.15057e-06 1.49723e-05 0)
(4.00217e-06 1.4861e-05 0)
(4.9925e-06 1.4852e-05 0)
(6.30755e-06 1.45966e-05 0)
(7.71091e-06 1.36619e-05 0)
(8.74992e-06 1.20855e-05 0)
(9.19781e-06 1.02959e-05 0)
(9.10504e-06 8.5859e-06 0)
(8.62499e-06 7.13446e-06 0)
(7.92877e-06 5.9842e-06 0)
(7.14254e-06 5.1011e-06 0)
(6.33924e-06 4.4298e-06 0)
(5.55426e-06 3.91912e-06 0)
(4.80148e-06 3.52898e-06 0)
(4.08381e-06 3.22995e-06 0)
(3.399e-06 3.00103e-06 0)
(2.74263e-06 2.82738e-06 0)
(2.10948e-06 2.69857e-06 0)
(1.49421e-06 2.6074e-06 0)
(8.91535e-07 2.54905e-06 0)
(2.96351e-07 2.52058e-06 0)
(-2.87556e-07 2.86426e-06 0)
(-8.64729e-07 2.8954e-06 0)
(-1.44809e-06 2.95909e-06 0)
(-2.04174e-06 3.05834e-06 0)
(-2.64971e-06 3.19794e-06 0)
(-3.27574e-06 3.38498e-06 0)
(-3.92289e-06 3.6295e-06 0)
(-4.59271e-06 3.94536e-06 0)
(-5.28364e-06 4.3514e-06 0)
(-5.98812e-06 4.87262e-06 0)
(-6.68759e-06 5.54059e-06 0)
(-7.34484e-06 6.39141e-06 0)
(-7.89455e-06 7.45711e-06 0)
(-8.23806e-06 8.74462e-06 0)
(-8.25663e-06 1.02008e-05 0)
(-7.85645e-06 1.16825e-05 0)
(-7.03167e-06 1.2973e-05 0)
(-5.94246e-06 1.3826e-05 0)
(-4.86092e-06 1.42174e-05 0)
(-3.9438e-06 1.4374e-05 0)
(-3.1384e-06 1.44845e-05 0)
(-2.40898e-06 1.44622e-05 0)
(-1.70582e-06 1.44441e-05 0)
(-1.11707e-06 1.41357e-05 0)
(-6.93961e-07 1.39292e-05 0)
(-5.01103e-07 1.35694e-05 0)
(-3.19128e-07 1.38324e-05 0)
(5.873e-07 1.43759e-05 0)
(1.41966e-06 1.32446e-05 0)
(1.64744e-06 1.26353e-05 0)
(1.52271e-06 1.16799e-05 0)
(8.89789e-07 1.12195e-05 0)
(6.0764e-07 1.18515e-05 0)
(8.70905e-07 1.18847e-05 0)
(8.82963e-07 1.12674e-05 0)
(4.93723e-07 1.10022e-05 0)
(2.18519e-08 1.11592e-05 0)
(-2.73894e-07 3.06271e-06 0)
(-3.62703e-07 5.51177e-07 0)
(-1.87892e-07 2.80213e-07 0)
(1.87892e-07 2.80213e-07 0)
(3.62703e-07 5.51177e-07 0)
(2.73894e-07 3.06271e-06 0)
(-2.18519e-08 1.11592e-05 0)
(-4.93723e-07 1.10022e-05 0)
(-8.82963e-07 1.12674e-05 0)
(-8.70905e-07 1.18847e-05 0)
(-6.0764e-07 1.18515e-05 0)
(-8.89789e-07 1.12195e-05 0)
(-1.52271e-06 1.16799e-05 0)
(-1.64744e-06 1.26353e-05 0)
(-1.41966e-06 1.32446e-05 0)
(-5.873e-07 1.43759e-05 0)
(3.19128e-07 1.38324e-05 0)
(5.01103e-07 1.35694e-05 0)
(6.93961e-07 1.39292e-05 0)
(1.11707e-06 1.41357e-05 0)
(1.70582e-06 1.44441e-05 0)
(2.40898e-06 1.44622e-05 0)
(3.1384e-06 1.44845e-05 0)
(3.9438e-06 1.4374e-05 0)
(4.86092e-06 1.42174e-05 0)
(5.94246e-06 1.3826e-05 0)
(7.03167e-06 1.2973e-05 0)
(7.85645e-06 1.16825e-05 0)
(8.25663e-06 1.02008e-05 0)
(8.23806e-06 8.74462e-06 0)
(7.89455e-06 7.45711e-06 0)
(7.34484e-06 6.39141e-06 0)
(6.68759e-06 5.54059e-06 0)
(5.98812e-06 4.87262e-06 0)
(5.28364e-06 4.3514e-06 0)
(4.59271e-06 3.94536e-06 0)
(3.92289e-06 3.6295e-06 0)
(3.27574e-06 3.38498e-06 0)
(2.64971e-06 3.19794e-06 0)
(2.04174e-06 3.05834e-06 0)