/*--------------------------------*- C++ -*----------------------------------*\
  =========                 |
  \\      /  F ield         | OpenFOAM: The Open Source CFD Toolbox
   \\    /   O peration     | Website:  https://openfoam.org
    \\  /    A nd           | Version:  10
     \\/     M anipulation  |
\*---------------------------------------------------------------------------*/
FoamFile
{
    format      ascii;
    class       volScalarField;
    location    "10400";
    object      p;
}
// * * * * * * * * * * * * * * * * * * * * * * * * * * * * * * * * * * * * * //

dimensions      [1 -1 -2 0 0 0 0];

internalField   nonuniform List<scalar> 
6400
(
111.395
111.407
111.432
111.469
111.519
111.583
111.659
111.75
111.855
111.974
112.11
112.263
112.434
112.625
112.837
113.073
113.335
113.627
113.953
114.32
114.735
115.213
115.771
116.441
117.257
133.99
615.311
982.405
1310.54
1617.37
1919.6
2226.95
2442.64
2570.36
2691.33
2803.09
2901.85
2982.77
3040.57
3070.74
3070.74
3040.57
2982.77
2901.85
2803.09
2691.33
2570.36
2442.64
2226.95
1919.6
1617.37
1310.54
982.405
615.311
133.99
117.257
116.441
115.771
115.213
114.735
114.32
113.953
113.627
113.335
113.073
112.837
112.625
112.434
112.263
112.11
111.974
111.855
111.75
111.659
111.583
111.519
111.469
111.432
111.407
111.395
111.1
111.113
111.138
111.175
111.225
111.288
111.365
111.455
111.56
111.68
111.816
111.969
112.14
112.33
112.542
112.778
113.04
113.331
113.657
114.024
114.439
114.915
115.472
116.14
116.983
118.761
327.523
689.975
1017.38
1323.49
1625.32
1933.31
2149.75
2277.88
2399.42
2512.05
2611.91
2694.04
2752.86
2783.61
2783.61
2752.86
2694.04
2611.91
2512.05
2399.42
2277.88
2149.75
1933.31
1625.32
1323.49
1017.38
689.975
327.523
118.761
116.983
116.14
115.472
114.915
114.439
114.024
113.657
113.331
113.04
112.778
112.542
112.33
112.14
111.969
111.816
111.68
111.56
111.455
111.365
111.288
111.225
111.175
111.138
111.113
111.1
110.777
110.789
110.814
110.851
110.901
110.964
111.041
111.131
111.236
111.356
111.492
111.644
111.815
112.006
112.217
112.453
112.714
113.005
113.331
113.696
114.11
114.585
115.138
115.802
116.647
118.065
118.616
371.549
696.835
1001.25
1302.12
1611.64
1829.85
1958.88
2081.7
2196.37
2298.83
2383.85
2445.13
2477.26
2477.26
2445.13
2383.85
2298.83
2196.37
2081.7
1958.88
1829.85
1611.64
1302.12
1001.25
696.835
371.549
118.616
118.065
116.647
115.802
115.138
114.585
114.11
113.696
113.331
113.005
112.714
112.453
112.217
112.006
111.815
111.644
111.492
111.356
111.236
111.131
111.041
110.964
110.901
110.851
110.814
110.789
110.777
110.421
110.433
110.458
110.495
110.545
110.608
110.685
110.775
110.88
110.999
111.135
111.288
111.458
111.648
111.86
112.094
112.355
112.646
112.97
113.334
113.746
114.217
114.765
115.42
116.242
117.422
117.944
118.357
347.245
647.814
946.903
1259.22
1480.7
1611.06
1735.97
1854.26
1961.39
2051.7
2117.52
2152.17
2152.17
2117.52
2051.7
1961.39
1854.26
1735.97
1611.06
1480.7
1259.22
946.903
647.814
347.245
118.357
117.944
117.422
116.242
115.42
114.765
114.217
113.746
113.334
112.97
112.646
112.355
112.094
111.86
111.648
111.458
111.288
111.135
110.999
110.88
110.775
110.685
110.608
110.545
110.495
110.458
110.433
110.421
110.03
110.042
110.067
110.104
110.154
110.217
110.293
110.383
110.488
110.607
110.743
110.895
111.065
111.255
111.465
111.7
111.96
112.249
112.571
112.933
113.342
113.808
114.348
114.987
115.771
116.766
117.314
117.689
117.973
259.763
555.977
873.038
1100.07
1231.78
1359.52
1483.71
1598.28
1697.56
1771.09
1809.95
1809.95
1771.09
1697.56
1598.28
1483.71
1359.52
1231.78
1100.07
873.038
555.977
259.763
117.973
117.689
117.314
116.766
115.771
114.987
114.348
113.808
113.342
112.933
112.571
112.249
111.96
111.7
111.465
111.255
111.065
110.895
110.743
110.607
110.488
110.383
110.293
110.217
110.154
110.104
110.067
110.042
110.03
109.6
109.612
109.636
109.674
109.723
109.786
109.862
109.952
110.056
110.176
110.311
110.462
110.632
110.821
111.031
111.264
111.523
111.81
112.131
112.49
112.894
113.353
113.882
114.5
115.235
116.087
116.638
117.031
117.349
117.822
124.18
449.672
686.596
817.86
948.607
1082.29
1207.94
1322.19
1408.6
1454.19
1454.19
1408.6
1322.19
1207.94
1082.29
948.607
817.86
686.596
449.672
124.18
117.822
117.349
117.031
116.638
116.087
115.235
114.5
113.882
113.353
112.894
112.49
112.131
111.81
111.523
111.264
111.031
110.821
110.632
110.462
110.311
110.176
110.056
109.952
109.862
109.786
109.723
109.674
109.636
109.612
109.6
109.126
109.139
109.163
109.2
109.25
109.313
109.388
109.478
109.582
109.701
109.835
109.986
110.155
110.343
110.552
110.784
111.041
111.326
111.643
111.998
112.396
112.847
113.361
113.953
114.635
115.375
115.914
116.318
116.661
117.086
117.566
117.379
250.19
365.957
497.448
647.986
787.649
927.939
1036.17
1092.07
1092.07
1036.17
927.939
787.649
647.986
497.448
365.957
250.19
117.379
117.566
117.086
116.661
116.318
115.914
115.375
114.635
113.953
113.361
112.847
112.396
111.998
111.643
111.326
111.041
110.784
110.552
110.343
110.155
109.986
109.835
109.701
109.582
109.478
109.388
109.313
109.25
109.2
109.163
109.139
109.126
108.606
108.618
108.642
108.679
108.729
108.791
108.867
108.956
109.059
109.178
109.311
109.462
109.63
109.816
110.024
110.253
110.508
110.79
111.104
111.453
111.843
112.283
112.779
113.341
113.969
114.621
115.137
115.543
115.894
116.272
116.618
116.494
116.368
116.429
117.374
198.705
334.598
522.934
668.049
737.989
737.989
668.049
522.934
334.598
198.705
117.374
116.429
116.368
116.494
116.618
116.272
115.894
115.543
115.137
114.621
113.969
113.341
112.779
112.283
111.843
111.453
111.104
110.79
110.508
110.253
110.024
109.816
109.63
109.462
109.311
109.178
109.059
108.956
108.867
108.791
108.729
108.679
108.642
108.618
108.606
108.033
108.045
108.069
108.106
108.155
108.217
108.292
108.381
108.484
108.601
108.734
108.883
109.05
109.235
109.441
109.668
109.92
110.198
110.506
110.848
111.23
111.655
112.13
112.659
113.234
113.815
114.303
114.702
115.049
115.385
115.652
115.632
115.599
115.632
115.698
115.681
116.949
178.478
344.742
423.301
423.301
344.742
178.478
116.949
115.681
115.698
115.632
115.599
115.632
115.652
115.385
115.049
114.702
114.303
113.815
113.234
112.659
112.13
111.655
111.23
110.848
110.506
110.198
109.92
109.668
109.441
109.235
109.05
108.883
108.734
108.601
108.484
108.381
108.292
108.217
108.155
108.106
108.069
108.045
108.033
107.402
107.414
107.438
107.475
107.524
107.585
107.66
107.748
107.85
107.966
108.098
108.246
108.411
108.594
108.797
109.021
109.269
109.542
109.844
110.178
110.548
110.957
111.409
111.903
112.428
112.949
113.405
113.79
114.124
114.424
114.648
114.692
114.702
114.725
114.756
114.77
114.793
115.918
169.671
216.081
216.081
169.671
115.918
114.793
114.77
114.756
114.725
114.702
114.692
114.648
114.424
114.124
113.79
113.405
112.949
112.428
111.903
111.409
110.957
110.548
110.178
109.844
109.542
109.269
109.021
108.797
108.594
108.411
108.246
108.098
107.966
107.85
107.748
107.66
107.585
107.524
107.475
107.438
107.414
107.402
106.708
106.72
106.744
106.78
106.828
106.889
106.963
107.05
107.151
107.266
107.397
107.543
107.706
107.886
108.086
108.307
108.549
108.817
109.111
109.435
109.791
110.182
110.608
111.066
111.544
112.014
112.436
112.801
113.117
113.388
113.586
113.668
113.7
113.722
113.744
113.761
113.778
113.952
126.984
144.491
144.491
126.984
113.952
113.778
113.761
113.744
113.722
113.7
113.668
113.586
113.388
113.117
112.801
112.436
112.014
111.544
111.066
110.608
110.182
109.791
109.435
109.111
108.817
108.549
108.307
108.086
107.886
107.706
107.543
107.397
107.266
107.151
107.05
106.963
106.889
106.828
106.78
106.744
106.72
106.708
105.943
105.954
105.978
106.014
106.062
106.122
106.195
106.281
106.381
106.495
106.623
106.767
106.927
107.105
107.301
107.516
107.754
108.014
108.299
108.611
108.951
109.321
109.72
110.143
110.577
111.001
111.389
111.73
112.025
112.272
112.454
112.555
112.598
112.621
112.64
112.654
112.664
112.687
117.159
125.437
125.437
117.159
112.687
112.664
112.654
112.64
112.621
112.598
112.555
112.454
112.272
112.025
111.73
111.389
111.001
110.577
110.143
109.72
109.321
108.951
108.611
108.299
108.014
107.754
107.516
107.301
107.105
106.927
106.767
106.623
106.495
106.381
106.281
106.195
106.122
106.062
106.014
105.978
105.954
105.943
105.099
105.111
105.135
105.17
105.217
105.277
105.349
105.433
105.531
105.643
105.769
105.911
106.068
106.241
106.433
106.643
106.873
107.125
107.399
107.697
108.021
108.368
108.739
109.126
109.519
109.902
110.256
110.571
110.844
111.07
111.24
111.348
111.396
111.419
111.436
111.448
111.452
111.448
112.64
117.461
117.461
112.64
111.448
111.452
111.448
111.436
111.419
111.396
111.348
111.24
111.07
110.844
110.571
110.256
109.902
109.519
109.126
108.739
108.368
108.021
107.697
107.399
107.125
106.873
106.643
106.433
106.241
106.068
105.911
105.769
105.643
105.531
105.433
105.349
105.277
105.217
105.17
105.135
105.111
105.099
104.17
104.182
104.205
104.239
104.286
104.344
104.415
104.498
104.594
104.704
104.827
104.965
105.118
105.287
105.473
105.677
105.899
106.14
106.402
106.686
106.99
107.314
107.656
108.009
108.364
108.708
109.029
109.317
109.566
109.773
109.932
110.04
110.09
110.113
110.129
110.139
110.141
110.136
110.134
113.505
113.505
110.134
110.136
110.141
110.139
110.129
110.113
110.09
110.04
109.932
109.773
109.566
109.317
109.029
108.708
108.364
108.009
107.656
107.314
106.99
106.686
106.402
106.14
105.899
105.677
105.473
105.287
105.118
104.965
104.827
104.704
104.594
104.498
104.415
104.344
104.286
104.239
104.205
104.182
104.17
103.145
103.156
103.179
103.213
103.258
103.316
103.385
103.466
103.56
103.667
103.787
103.921
104.069
104.233
104.412
104.608
104.821
105.051
105.299
105.566
105.85
106.15
106.462
106.782
107.101
107.41
107.698
107.959
108.186
108.374
108.521
108.626
108.674
108.696
108.712
108.721
108.722
108.717
108.707
111.386
111.386
108.707
108.717
108.722
108.721
108.712
108.696
108.674
108.626
108.521
108.374
108.186
107.959
107.698
107.41
107.101
106.782
106.462
106.15
105.85
105.566
105.299
105.051
104.821
104.608
104.412
104.233
104.069
103.921
103.787
103.667
103.56
103.466
103.385
103.316
103.258
103.213
103.179
103.156
103.145
102.015
102.026
102.048
102.081
102.125
102.181
102.248
102.327
102.418
102.521
102.638
102.767
102.91
103.067
103.239
103.426
103.628
103.846
104.079
104.328
104.591
104.865
105.149
105.437
105.723
105.998
106.256
106.489
106.693
106.864
106.999
107.097
107.142
107.163
107.178
107.185
107.187
107.182
107.17
109.707
109.707
107.17
107.182
107.187
107.185
107.178
107.163
107.142
107.097
106.999
106.864
106.693
106.489
106.256
105.998
105.723
105.437
105.149
104.865
104.591
104.328
104.079
103.846
103.628
103.426
103.239
103.067
102.91
102.767
102.638
102.521
102.418
102.327
102.248
102.181
102.125
102.081
102.048
102.026
102.015
100.688
100.698
100.72
100.752
100.794
100.848
100.913
100.989
101.077
101.176
101.287
101.411
101.548
101.697
101.86
102.036
102.225
102.428
102.644
102.873
103.112
103.361
103.615
103.87
104.122
104.364
104.59
104.796
104.977
105.128
105.249
105.339
105.38
105.399
105.412
105.419
105.42
105.415
105.404
107.943
107.943
105.404
105.415
105.42
105.419
105.412
105.399
105.38
105.339
105.249
105.128
104.977
104.796
104.59
104.364
104.122
103.87
103.615
103.361
103.112
102.873
102.644
102.428
102.225
102.036
101.86
101.697
101.548
101.411
101.287
101.176
101.077
100.989
100.913
100.848
100.794
100.752
100.72
100.698
100.688
99.2137
99.2239
99.2442
99.2749
99.3158
99.3672
99.4292
99.5018
99.5853
99.6799
99.7857
99.9029
100.032
100.172
100.324
100.489
100.664
100.852
101.05
101.257
101.473
101.695
101.92
102.145
102.366
102.577
102.774
102.954
103.112
103.245
103.352
103.431
103.468
103.485
103.496
103.502
103.502
103.497
103.485
106.075
106.075
103.485
103.497
103.502
103.502
103.496
103.485
103.468
103.431
103.352
103.245
103.112
102.954
102.774
102.577
102.366
102.145
101.92
101.695
101.473
101.257
101.05
100.852
100.664
100.489
100.324
100.172
100.032
99.9029
99.7857
99.6799
99.5853
99.5018
99.4292
99.3672
99.3158
99.2749
99.2442
99.2239
99.2137
97.7293
97.739
97.7585
97.7877
97.8268
97.8758
97.9347
98.0038
98.083
98.1726
98.2725
98.383
98.504
98.6355
98.7776
98.93
99.0924
99.2643
99.445
99.6333
99.8277
100.026
100.226
100.425
100.619
100.804
100.976
101.133
101.271
101.388
101.482
101.552
101.584
101.599
101.608
101.613
101.613
101.607
101.596
104.248
104.248
101.596
101.607
101.613
101.613
101.608
101.599
101.584
101.552
101.482
101.388
101.271
101.133
100.976
100.804
100.619
100.425
100.226
100.026
99.8277
99.6333
99.445
99.2643
99.0924
98.93
98.7776
98.6355
98.504
98.383
98.2725
98.1726
98.083
98.0038
97.9347
97.8758
97.8268
97.7877
97.7585
97.739
97.7293
96.2352
96.2444
96.263
96.2907
96.3279
96.3743
96.4302
96.4956
96.5704
96.6549
96.7489
96.8525
96.9657
97.0884
97.2203
97.3613
97.5108
97.6683
97.8328
98.0033
98.1783
98.3558
98.5337
98.7094
98.8801
99.0426
99.194
99.3315
99.4525
99.5549
99.637
99.6976
99.7253
99.7379
99.746
99.7495
99.7485
99.743
99.7317
102.454
102.454
99.7317
99.743
99.7485
99.7495
99.746
99.7379
99.7253
99.6976
99.637
99.5549
99.4525
99.3315
99.194
99.0426
98.8801
98.7094
98.5337
98.3558
98.1783
98.0033
97.8328
97.6683
97.5108
97.3613
97.2203
97.0884
96.9657
96.8525
96.7489
96.6549
96.5704
96.4956
96.4302
96.3743
96.3279
96.2907
96.263
96.2444
96.2352
94.7319
94.7406
94.7581
94.7844
94.8195
94.8635
94.9162
94.9778
95.0483
95.1276
95.2157
95.3125
95.418
95.532
95.6541
95.784
95.9213
96.0651
96.2147
96.3688
96.5262
96.685
96.8434
96.9991
97.1497
97.2927
97.4257
97.5461
97.652
97.7415
97.8131
97.8657
97.8894
97.9
97.9065
97.909
97.9075
97.9019
97.8907
100.691
100.691
97.8907
97.9019
97.9075
97.909
97.9065
97.9
97.8894
97.8657
97.8131
97.7415
97.652
97.5461
97.4257
97.2927
97.1497
96.9991
96.8434
96.685
96.5262
96.3688
96.2147
96.0651
95.9213
95.784
95.6541
95.532
95.418
95.3125
95.2157
95.1276
95.0483
94.9778
94.9162
94.8635
94.8195
94.7844
94.7581
94.7406
94.7319
93.2197
93.228
93.2445
93.2694
93.3024
93.3438
93.3934
93.4512
93.5172
93.5914
93.6737
93.7639
93.8619
93.9673
94.08
94.1995
94.3251
94.4562
94.5919
94.7312
94.8726
95.0147
95.1558
95.2939
95.427
95.553
95.6697
95.7754
95.868
95.9461
96.0083
96.0536
96.0736
96.0824
96.0876
96.0891
96.0871
96.0814
96.0702
98.9582
98.9582
96.0702
96.0814
96.0871
96.0891
96.0876
96.0824
96.0736
96.0536
96.0083
95.9461
95.868
95.7754
95.6697
95.553
95.427
95.2939
95.1558
95.0147
94.8726
94.7312
94.5919
94.4562
94.3251
94.1995
94.08
93.9673
93.8619
93.7639
93.6737
93.5914
93.5172
93.4512
93.3934
93.3438
93.3024
93.2694
93.2445
93.228
93.2197
91.6994
91.7071
91.7227
91.746
91.777
91.8158
91.8623
91.9164
91.9781
92.0473
92.1238
92.2075
92.2982
92.3955
92.4992
92.6087
92.7234
92.8427
92.9657
93.0913
93.2183
93.3454
93.4711
93.5936
93.7113
93.8224
93.925
94.0176
94.0985
94.1665
94.2203
94.2592
94.2759
94.283
94.2869
94.2876
94.285
94.2792
94.2681
97.2534
97.2534
94.2681
94.2792
94.285
94.2876
94.2869
94.283
94.2759
94.2592
94.2203
94.1665
94.0985
94.0176
93.925
93.8224
93.7113
93.5936
93.4711
93.3454
93.2183
93.0913
92.9657
92.8427
92.7234
92.6087
92.4992
92.3955
92.2982
92.2075
92.1238
92.0473
91.9781
91.9164
91.8623
91.8158
91.777
91.746
91.7227
91.7071
91.6994
90.1712
90.1785
90.1931
90.2149
90.2439
90.2802
90.3236
90.374
90.4314
90.4957
90.5667
90.6441
90.7278
90.8174
90.9125
91.0127
91.1173
91.2256
91.3368
91.45
91.564
91.6776
91.7895
91.8983
92.0023
92.1002
92.1904
92.2714
92.342
92.401
92.4474
92.4804
92.4941
92.4998
92.5025
92.5024
92.4994
92.4936
92.4824
95.5761
95.5761
92.4824
92.4936
92.4994
92.5024
92.5025
92.4998
92.4941
92.4804
92.4474
92.401
92.342
92.2714
92.1904
92.1002
92.0023
91.8983
91.7895
91.6776
91.564
91.45
91.3368
91.2256
91.1173
91.0127
90.9125
90.8174
90.7278
90.6441
90.5667
90.4957
90.4314
90.374
90.3236
90.2802
90.2439
90.2149
90.1931
90.1785
90.1712
88.6358
88.6426
88.6562
88.6765
88.7036
88.7374
88.7778
88.8246
88.8779
88.9375
89.0031
89.0745
89.1516
89.2338
89.3208
89.4122
89.5073
89.6055
89.706
89.8078
89.91
90.0115
90.1111
90.2076
90.2995
90.3857
90.4649
90.5357
90.5971
90.6481
90.6879
90.7157
90.7267
90.731
90.7327
90.7319
90.7285
90.7225
90.7114
93.9261
93.9261
90.7114
90.7225
90.7285
90.7319
90.7327
90.731
90.7267
90.7157
90.6879
90.6481
90.5971
90.5357
90.4649
90.3857
90.2995
90.2076
90.1111
90.0115
89.91
89.8078
89.706
89.6055
89.5073
89.4122
89.3208
89.2338
89.1516
89.0745
89.0031
88.9375
88.8779
88.8246
88.7778
88.7374
88.7036
88.6765
88.6562
88.6426
88.6358
87.0936
87.0999
87.1125
87.1315
87.1566
87.188
87.2254
87.2689
87.3182
87.3732
87.4337
87.4994
87.5701
87.6454
87.7248
87.808
87.8943
87.9832
88.0737
88.1653
88.2568
88.3474
88.4359
88.5213
88.6025
88.6783
88.7476
88.8094
88.8626
88.9065
88.9403
88.9634
88.972
88.9751
88.9759
88.9744
88.9706
88.9645
88.9535
92.3038
92.3038
88.9535
88.9645
88.9706
88.9744
88.9759
88.9751
88.972
88.9634
88.9403
88.9065
88.8626
88.8094
88.7476
88.6783
88.6025
88.5213
88.4359
88.3474
88.2568
88.1653
88.0737
87.9832
87.8943
87.808
87.7248
87.6454
87.5701
87.4994
87.4337
87.3732
87.3182
87.2689
87.2254
87.188
87.1566
87.1315
87.1125
87.0999
87.0936
85.545
85.5509
85.5626
85.5801
85.6035
85.6325
85.6671
85.7073
85.7527
85.8034
85.859
85.9193
85.984
86.0527
86.1251
86.2007
86.2789
86.3591
86.4406
86.5227
86.6045
86.6852
86.7638
86.8394
86.9109
86.9774
87.0379
87.0916
87.1375
87.175
87.2035
87.2223
87.2287
87.2307
87.2306
87.2285
87.2243
87.2181
87.2071
90.7101
90.7101
87.2071
87.2181
87.2243
87.2285
87.2306
87.2307
87.2287
87.2223
87.2035
87.175
87.1375
87.0916
87.0379
86.9774
86.9109
86.8394
86.7638
86.6852
86.6045
86.5227
86.4406
86.3591
86.2789
86.2007
86.1251
86.0527
85.984
85.9193
85.859
85.8034
85.7527
85.7073
85.6671
85.6325
85.6035
85.5801
85.5626
85.5509
85.545
83.9906
83.996
84.0068
84.0231
84.0446
84.0714
84.1033
84.1403
84.1821
84.2286
84.2796
84.3348
84.3938
84.4565
84.5223
84.5907
84.6614
84.7336
84.8069
84.8804
84.9534
85.0251
85.0948
85.1614
85.2243
85.2824
85.3351
85.3815
85.4209
85.4526
85.4762
85.4912
85.4956
85.4965
85.4956
85.4929
85.4884
85.482
85.4711
89.147
89.147
85.4711
85.482
85.4884
85.4929
85.4956
85.4965
85.4956
85.4912
85.4762
85.4526
85.4209
85.3815
85.3351
85.2824
85.2243
85.1614
85.0948
85.0251
84.9534
84.8804
84.8069
84.7336
84.6614
84.5907
84.5223
84.4565
84.3938
84.3348
84.2796
84.2286
84.1821
84.1403
84.1033
84.0714
84.0446
84.0231
84.0068
83.996
83.9906
82.4307
82.4357
82.4457
82.4607
82.4805
82.5052
82.5345
82.5685
82.6068
82.6494
82.696
82.7464
82.8002
82.8571
82.9167
82.9786
83.0423
83.1072
83.1729
83.2385
83.3035
83.3671
83.4287
83.4873
83.5423
83.593
83.6386
83.6784
83.7118
83.7383
83.7575
83.769
83.7715
83.7715
83.7698
83.7665
83.7617
83.7552
83.7443
87.6174
87.6174
83.7443
83.7552
83.7617
83.7665
83.7698
83.7715
83.7715
83.769
83.7575
83.7383
83.7118
83.6784
83.6386
83.593
83.5423
83.4873
83.4287
83.3671
83.3035
83.2385
83.1729
83.1072
83.0423
82.9786
82.9167
82.8571
82.8002
82.7464
82.696
82.6494
82.6068
82.5685
82.5345
82.5052
82.4805
82.4607
82.4457
82.4357
82.4307
80.8658
80.8704
80.8796
80.8934
80.9116
80.9342
80.9611
80.9922
81.0273
81.0662
81.1087
81.1545
81.2034
81.2549
81.3088
81.3647
81.4219
81.4802
81.5388
81.5973
81.655
81.7113
81.7654
81.8168
81.8648
81.9086
81.9478
81.9816
82.0097
82.0314
82.0465
82.0547
82.0555
82.0546
82.0522
82.0484
82.0431
82.0365
82.0256
86.1257
86.1257
82.0256
82.0365
82.0431
82.0484
82.0522
82.0546
82.0555
82.0547
82.0465
82.0314
82.0097
81.9816
81.9478
81.9086
81.8648
81.8168
81.7654
81.7113
81.655
81.5973
81.5388
81.4802
81.4219
81.3647
81.3088
81.2549
81.2034
81.1545
81.1087
81.0662
81.0273
80.9922
80.9611
80.9342
80.9116
80.8934
80.8796
80.8704
80.8658
79.2963
79.3005
79.309
79.3216
79.3383
79.359
79.3836
79.412
79.444
79.4794
79.518
79.5596
79.6038
79.6505
79.6991
79.7493
79.8006
79.8527
79.905
79.9569
80.008
80.0575
80.105
80.1498
80.1913
80.229
80.2623
80.2907
80.3138
80.3312
80.3425
80.3476
80.3467
80.3449
80.3418
80.3374
80.3318
80.3249
80.3141
84.678
84.678
80.3141
80.3249
80.3318
80.3374
80.3418
80.3449
80.3467
80.3476
80.3425
80.3312
80.3138
80.2907
80.2623
80.229
80.1913
80.1498
80.105
80.0575
80.008
79.9569
79.905
79.8527
79.8006
79.7493
79.6991
79.6505
79.6038
79.5596
79.518
79.4794
79.444
79.412
79.3836
79.359
79.3383
79.3216
79.309
79.3005
79.2963
77.7226
77.7265
77.7342
77.7457
77.7609
77.7798
77.8022
77.8281
77.8572
77.8894
77.9244
77.962
78.002
78.044
78.0877
78.1327
78.1786
78.225
78.2715
78.3174
78.3624
78.4058
78.4472
78.486
78.5217
78.5538
78.5817
78.6051
78.6236
78.6369
78.6447
78.6469
78.6443
78.6416
78.6378
78.6329
78.6269
78.6197
78.609
83.2829
83.2829
78.609
78.6197
78.6269
78.6329
78.6378
78.6416
78.6443
78.6469
78.6447
78.6369
78.6236
78.6051
78.5817
78.5538
78.5217
78.486
78.4472
78.4058
78.3624
78.3174
78.2715
78.225
78.1786
78.1327
78.0877
78.044
78.002
77.962
77.9244
77.8894
77.8572
77.8281
77.8022
77.7798
77.7609
77.7457
77.7342
77.7265
77.7226
76.145
76.1486
76.1556
76.1661
76.1799
76.1971
76.2175
76.241
76.2674
76.2965
76.3281
76.3621
76.3981
76.4358
76.475
76.5152
76.5561
76.5974
76.6384
76.6789
76.7183
76.7562
76.792
76.8254
76.8557
76.8826
76.9057
76.9245
76.9387
76.9481
76.9525
76.9518
76.9476
76.9441
76.9395
76.934
76.9275
76.92
76.9092
81.9546
81.9546
76.9092
76.92
76.9275
76.934
76.9395
76.9441
76.9476
76.9518
76.9525
76.9481
76.9387
76.9245
76.9057
76.8826
76.8557
76.8254
76.792
76.7562
76.7183
76.6789
76.6384
76.5974
76.5561
76.5152
76.475
76.4358
76.3981
76.3621
76.3281
76.2965
76.2674
76.241
76.2175
76.1971
76.1799
76.1661
76.1556
76.1486
76.145
74.5639
74.5671
74.5735
74.583
74.5956
74.6112
74.6297
74.6509
74.6748
74.7011
74.7296
74.7602
74.7925
74.8263
74.8612
74.897
74.9334
74.9698
75.006
75.0414
75.0758
75.1086
75.1394
75.1677
75.1931
75.2153
75.2338
75.2483
75.2586
75.2643
75.2655
75.2619
75.256
75.2515
75.2461
75.2399
75.2328
75.225
75.2142
80.7137
80.7137
75.2142
75.225
75.2328
75.2399
75.2461
75.2515
75.256
75.2619
75.2655
75.2643
75.2586
75.2483
75.2338
75.2153
75.1931
75.1677
75.1394
75.1086
75.0758
75.0414
75.006
74.9698
74.9334
74.897
74.8612
74.8263
74.7925
74.7602
74.7296
74.7011
74.6748
74.6509
74.6297
74.6112
74.5956
74.583
74.5735
74.5671
74.5639
72.9796
72.9825
72.9883
72.9969
73.0083
73.0224
73.0391
73.0583
73.0798
73.1034
73.1291
73.1564
73.1853
73.2155
73.2466
73.2784
73.3105
73.3425
73.3742
73.4051
73.4348
73.463
73.4891
73.5129
73.5339
73.5517
73.566
73.5765
73.583
73.5852
73.5831
73.5766
73.5689
73.5634
73.557
73.55
73.5423
73.5339
73.5231
79.5919
79.5919
73.5231
73.5339
73.5423
73.55
73.557
73.5634
73.5689
73.5766
73.5831
73.5852
73.583
73.5765
73.566
73.5517
73.5339
73.5129
73.4891
73.463
73.4348
73.4051
73.3742
73.3425
73.3105
73.2784
73.2466
73.2155
73.1853
73.1564
73.1291
73.1034
73.0798
73.0583
73.0391
73.0224
73.0083
72.9969
72.9883
72.9825
72.9796
71.3924
71.3951
71.4003
71.4081
71.4183
71.431
71.4461
71.4633
71.4826
71.5038
71.5268
71.5512
71.577
71.6038
71.6313
71.6594
71.6876
71.7157
71.7432
71.77
71.7955
71.8194
71.8413
71.8609
71.8777
71.8916
71.902
71.9087
71.9116
71.9104
71.905
71.8955
71.8858
71.8791
71.8717
71.8637
71.855
71.8459
71.835
78.6428
78.6428
71.835
71.8459
71.855
71.8637
71.8717
71.8791
71.8858
71.8955
71.905
71.9104
71.9116
71.9087
71.902
71.8916
71.8777
71.8609
71.8413
71.8194
71.7955
71.77
71.7432
71.7157
71.6876
71.6594
71.6313
71.6038
71.577
71.5512
71.5268
71.5038
71.4826
71.4633
71.4461
71.431
71.4183
71.4081
71.4003
71.3951
71.3924
69.8026
69.805
69.8097
69.8167
69.8259
69.8373
69.8508
69.8663
69.8835
69.9025
69.9229
69.9447
69.9675
69.9913
70.0156
70.0402
70.0649
70.0893
70.1131
70.136
70.1577
70.1777
70.1958
70.2116
70.2247
70.2348
70.2416
70.2449
70.2443
70.2397
70.2311
70.2183
70.2063
70.1983
70.1896
70.1803
70.1705
70.1604
70.1494
77.9604
77.9604
70.1494
70.1604
70.1705
70.1803
70.1896
70.1983
70.2063
70.2183
70.2311
70.2397
70.2443
70.2449
70.2416
70.2348
70.2247
70.2116
70.1958
70.1777
70.1577
70.136
70.1131
70.0893
70.0649
70.0402
70.0156
69.9913
69.9675
69.9447
69.9229
69.9025
69.8835
69.8663
69.8508
69.8373
69.8259
69.8167
69.8097
69.805
69.8026
68.2105
68.2126
68.2168
68.2231
68.2313
68.2415
68.2536
68.2674
68.2828
68.2997
68.3178
68.3371
68.3573
68.3781
68.3995
68.421
68.4424
68.4635
68.4839
68.5034
68.5215
68.5381
68.5526
68.5649
68.5746
68.5814
68.5849
68.5848
68.581
68.5732
68.5612
68.545
68.5304
68.5207
68.5104
68.4995
68.4881
68.4765
68.4651
77.7134
77.7134
68.4651
68.4765
68.4881
68.4995
68.5104
68.5207
68.5304
68.545
68.5612
68.5732
68.581
68.5848
68.5849
68.5814
68.5746
68.5649
68.5526
68.5381
68.5215
68.5034
68.4839
68.4635
68.4424
68.421
68.3995
68.3781
68.3573
68.3371
68.3178
68.2997
68.2828
68.2674
68.2536
68.2415
68.2313
68.2231
68.2168
68.2126
68.2105
66.6162
66.6181
66.6218
66.6274
66.6348
66.6439
66.6547
66.6669
66.6806
66.6955
66.7116
66.7286
66.7463
66.7646
66.7832
66.8018
66.8203
66.8384
66.8557
66.872
66.887
66.9003
66.9117
66.9209
66.9275
66.9312
66.9316
66.9286
66.9217
66.9108
66.8955
66.8757
66.8581
66.8465
66.834
66.8208
66.8072
66.7933
66.7812
78.1258
78.1258
66.7812
66.7933
66.8072
66.8208
66.834
66.8465
66.8581
66.8757
66.8955
66.9108
66.9217
66.9286
66.9316
66.9312
66.9275
66.9209
66.9117
66.9003
66.887
66.872
66.8557
66.8384
66.8203
66.8018
66.7832
66.7646
66.7463
66.7286
66.7116
66.6955
66.6806
66.6669
66.6547
66.6439
66.6348
66.6274
66.6218
66.6181
66.6162
65.02
65.0217
65.025
65.03
65.0366
65.0447
65.0542
65.065
65.0771
65.0903
65.1044
65.1193
65.1348
65.1507
65.1668
65.1829
65.1987
65.214
65.2285
65.2419
65.2541
65.2646
65.2731
65.2794
65.2832
65.2842
65.2819
65.2761
65.2665
65.2527
65.2343
65.211
65.1901
65.1762
65.1611
65.1448
65.1275
65.1096
65.0953
78.2289
78.2289
65.0953
65.1096
65.1275
65.1448
65.1611
65.1762
65.1901
65.211
65.2343
65.2527
65.2665
65.2761
65.2819
65.2842
65.2832
65.2794
65.2731
65.2646
65.2541
65.2419
65.2285
65.214
65.1987
65.1829
65.1668
65.1507
65.1348
65.1193
65.1044
65.0903
65.0771
65.065
65.0542
65.0447
65.0366
65.03
65.025
65.0217
65.02
63.4221
63.4236
63.4266
63.431
63.4368
63.444
63.4524
63.4619
63.4725
63.4841
63.4964
63.5094
63.5229
63.5366
63.5505
63.5642
63.5776
63.5904
63.6023
63.6132
63.6228
63.6307
63.6367
63.6405
63.6418
63.6403
63.6357
63.6275
63.6155
63.5992
63.5781
63.5516
63.5279
63.5119
63.494
63.474
63.4511
63.4237
63.397
64.618
64.618
63.397
63.4237
63.4511
63.474
63.494
63.5119
63.5279
63.5516
63.5781
63.5992
63.6155
63.6275
63.6357
63.6403
63.6418
63.6405
63.6367
63.6307
63.6228
63.6132
63.6023
63.5904
63.5776
63.5642
63.5505
63.5366
63.5229
63.5094
63.4964
63.4841
63.4725
63.4619
63.4524
63.444
63.4368
63.431
63.4266
63.4236
63.4221
61.823
61.8243
61.8269
61.8308
61.8359
61.8422
61.8496
61.858
61.8673
61.8773
61.8881
61.8993
61.9109
61.9227
61.9345
61.9461
61.9573
61.9678
61.9775
61.9861
61.9934
61.999
62.0028
62.0044
62.0035
61.9999
61.9932
61.9831
61.9691
61.9508
61.9276
61.899
61.8736
61.8567
61.8382
61.8183
61.7971
61.7751
61.7531
62.8132
62.8132
61.7531
61.7751
61.7971
61.8183
61.8382
61.8567
61.8736
61.899
61.9276
61.9508
61.9691
61.9831
61.9932
61.9999
62.0035
62.0044
62.0028
61.999
61.9934
61.9861
61.9775
61.9678
61.9573
61.9461
61.9345
61.9227
61.9109
61.8993
61.8881
61.8773
61.8673
61.858
61.8496
61.8422
61.8359
61.8308
61.8269
61.8243
61.823
60.2226
60.2237
60.226
60.2294
60.2339
60.2394
60.2458
60.2531
60.2612
60.2699
60.2792
60.2889
60.2988
60.3088
60.3187
60.3284
60.3376
60.3461
60.3538
60.3603
60.3656
60.3692
60.371
60.3707
60.368
60.3626
60.3542
60.3425
60.327
60.3072
60.2827
60.2526
60.2264
60.2088
60.1898
60.1693
60.1474
60.1239
60.0988
61.0168
61.0168
60.0988
60.1239
60.1474
60.1693
60.1898
60.2088
60.2264
60.2526
60.2827
60.3072
60.327
60.3425
60.3542
60.3626
60.368
60.3707
60.371
60.3692
60.3656
60.3603
60.3538
60.3461
60.3376
60.3284
60.3187
60.3088
60.2988
60.2889
60.2792
60.2699
60.2612
60.2531
60.2458
60.2394
60.2339
60.2294
60.226
60.2237
60.2226
58.621
58.622
58.624
58.627
58.6308
58.6356
58.6412
58.6475
58.6545
58.662
58.6699
58.6781
58.6865
58.6949
58.7032
58.7111
58.7186
58.7253
58.7312
58.7359
58.7393
58.7412
58.7413
58.7394
58.7351
58.7283
58.7186
58.7056
58.6891
58.6684
58.6432
58.6126
58.5861
58.5683
58.549
58.5279
58.5049
58.4796
58.451
58.9937
58.9937
58.451
58.4796
58.5049
58.5279
58.549
58.5683
58.5861
58.6126
58.6432
58.6684
58.6891
58.7056
58.7186
58.7283
58.7351
58.7394
58.7413
58.7412
58.7393
58.7359
58.7312
58.7253
58.7186
58.7111
58.7032
58.6949
58.6865
58.6781
58.6699
58.662
58.6545
58.6475
58.6412
58.6356
58.6308
58.627
58.624
58.622
58.621
57.0184
57.0192
57.021
57.0235
57.0269
57.031
57.0358
57.0413
57.0472
57.0536
57.0603
57.0673
57.0743
57.0812
57.088
57.0944
57.1002
57.1054
57.1096
57.1128
57.1147
57.115
57.1137
57.1104
57.1048
57.0969
57.0862
57.0724
57.0552
57.0343
57.009
56.9789
56.953
56.9357
56.917
56.8966
56.8743
56.8495
56.8214
56.8178
56.8178
56.8214
56.8495
56.8743
56.8966
56.917
56.9357
56.953
56.9789
57.009
57.0343
57.0552
57.0724
57.0862
57.0969
57.1048
57.1104
57.1137
57.115
57.1147
57.1128
57.1096
57.1054
57.1002
57.0944
57.088
57.0812
57.0743
57.0673
57.0603
57.0536
57.0472
57.0413
57.0358
57.031
57.0269
57.0235
57.021
57.0192
57.0184
55.4149
55.4157
55.4171
55.4193
55.4222
55.4258
55.4299
55.4345
55.4395
55.4449
55.4505
55.4563
55.4621
55.4677
55.4732
55.4782
55.4826
55.4864
55.4892
55.491
55.4915
55.4906
55.488
55.4836
55.477
55.4682
55.4568
55.4426
55.4252
55.4044
55.3798
55.3508
55.3265
55.3105
55.2933
55.2751
55.2556
55.235
55.213
55.2094
55.2094
55.213
55.235
55.2556
55.2751
55.2933
55.3105
55.3265
55.3508
55.3798
55.4044
55.4252
55.4426
55.4568
55.4682
55.477
55.4836
55.488
55.4906
55.4915
55.491
55.4892
55.4864
55.4826
55.4782
55.4732
55.4677
55.4621
55.4563
55.4505
55.4449
55.4395
55.4345
55.4299
55.4258
55.4222
55.4193
55.4171
55.4157
55.4149
53.8107
53.8113
53.8126
53.8145
53.8169
53.8199
53.8234
53.8272
53.8315
53.8359
53.8406
53.8453
53.85
53.8545
53.8587
53.8625
53.8657
53.8682
53.8698
53.8704
53.8698
53.8678
53.8642
53.8588
53.8515
53.8421
53.8303
53.8159
53.7986
53.7783
53.7548
53.7276
53.7053
53.6908
53.6755
53.6596
53.643
53.6258
53.608
53.6048
53.6048
53.608
53.6258