/*--------------------------------*- C++ -*----------------------------------*\
  =========                 |
  \\      /  F ield         | OpenFOAM: The Open Source CFD Toolbox
   \\    /   O peration     | Website:  https://openfoam.org
    \\  /    A nd           | Version:  10
     \\/     M anipulation  |
\*---------------------------------------------------------------------------*/
FoamFile
{
    format      ascii;
    class       volVectorField;
    location    "0.108";
    object      U;
}
// * * * * * * * * * * * * * * * * * * * * * * * * * * * * * * * * * * * * * //

dimensions      [0 1 -1 0 0 0 0];

internalField   nonuniform List<vector> 
4000
(
(5.00002 -7.36573e-05 0)
(5.00015 -0.000220889 0)
(5.00044 -0.000368293 0)
(5.00088 -0.000515894 0)
(5.00147 -0.000663832 0)
(5.00221 -0.000812198 0)
(5.00309 -0.000961154 0)
(5.00412 -0.00111082 0)
(5.00531 -0.00126137 0)
(5.00664 -0.00141295 0)
(5.00813 -0.00156579 0)
(5.00976 -0.0017201 0)
(5.01156 -0.00187612 0)
(5.01351 -0.0020341 0)
(5.01562 -0.00219434 0)
(5.01789 -0.00235713 0)
(5.02032 -0.0025228 0)
(5.02292 -0.00269169 0)
(5.02569 -0.00286416 0)
(5.02864 -0.00304061 0)
(5.03176 -0.00322144 0)
(5.03507 -0.0034071 0)
(5.03856 -0.003598 0)
(5.04224 -0.00379466 0)
(5.04613 -0.00399753 0)
(5.05022 -0.00420715 0)
(5.05452 -0.004424 0)
(5.05905 -0.00464867 0)
(5.0638 -0.00488164 0)
(5.06879 -0.00512356 0)
(5.07402 -0.00537493 0)
(5.07951 -0.00563641 0)
(5.08527 -0.00590852 0)
(5.0913 -0.00619197 0)
(5.09762 -0.00648728 0)
(5.10424 -0.00679519 0)
(5.11117 -0.00711623 0)
(5.11844 -0.00745117 0)
(5.12604 -0.00780052 0)
(5.134 -0.00816509 0)
(5.14233 -0.00854539 0)
(5.15104 -0.00894223 0)
(5.16017 -0.00935611 0)
(5.16971 -0.00978785 0)
(5.17969 -0.0102379 0)
(5.19013 -0.0107071 0)
(5.20105 -0.0111959 0)
(5.21247 -0.011705 0)
(5.2244 -0.0122349 0)
(5.23688 -0.0127861 0)
(5.24992 -0.0133591 0)
(5.26353 -0.0139544 0)
(5.27776 -0.0145721 0)
(5.29261 -0.0152128 0)
(5.30812 -0.0158763 0)
(5.3243 -0.016563 0)
(5.34118 -0.0172725 0)
(5.35877 -0.0180048 0)
(5.37712 -0.0187592 0)
(5.39622 -0.0195352 0)
(5.41612 -0.0203318 0)
(5.43682 -0.021148 0)
(5.45835 -0.021982 0)
(5.48072 -0.0228323 0)
(5.50395 -0.0236963 0)
(5.52806 -0.0245718 0)
(5.55305 -0.0254553 0)
(5.57893 -0.0263437 0)
(5.6057 -0.0272326 0)
(5.63336 -0.0281178 0)
(5.66191 -0.0289941 0)
(5.69134 -0.0298564 0)
(5.72163 -0.0306983 0)
(5.75275 -0.0315142 0)
(5.78468 -0.0322969 0)
(5.81739 -0.0330401 0)
(5.85082 -0.0337364 0)
(5.88493 -0.0343795 0)
(5.91966 -0.0349622 0)
(5.95495 -0.0354784 0)
(5.99072 -0.0359217 0)
(6.02691 -0.0362873 0)
(6.06343 -0.0365702 0)
(6.10019 -0.0367671 0)
(6.13712 -0.0368749 0)
(6.1741 -0.0368925 0)
(6.21106 -0.0368188 0)
(6.2479 -0.036655 0)
(6.28453 -0.0364022 0)
(6.32086 -0.0360637 0)
(6.35681 -0.0356425 0)
(6.39229 -0.0351437 0)
(6.42723 -0.0345718 0)
(6.46156 -0.033933 0)
(6.49522 -0.0332331 0)
(6.52814 -0.032479 0)
(6.56027 -0.0316769 0)
(6.59157 -0.0308339 0)
(6.622 -0.0299562 0)
(6.65154 -0.0290509 0)
(6.68015 -0.0281235 0)
(6.70781 -0.0271807 0)
(6.73453 -0.0262274 0)
(6.76027 -0.0252694 0)
(6.78506 -0.0243109 0)
(6.80888 -0.0233569 0)
(6.83175 -0.0224107 0)
(6.85367 -0.0214767 0)
(6.87466 -0.0205573 0)
(6.89474 -0.019656 0)
(6.91393 -0.0187745 0)
(6.93224 -0.0179157 0)
(6.9497 -0.0170805 0)
(6.96634 -0.016271 0)
(6.98219 -0.0154876 0)
(6.99726 -0.0147315 0)
(7.01159 -0.0140028 0)
(7.0252 -0.0133021 0)
(7.03813 -0.0126289 0)
(7.0504 -0.0119837 0)
(7.06204 -0.0113655 0)
(7.07307 -0.0107744 0)
(7.08352 -0.0102094 0)
(7.09343 -0.00967037 0)
(7.10281 -0.00915602 0)
(7.11168 -0.00866633 0)
(7.12008 -0.00819977 0)
(7.12803 -0.00775629 0)
(7.13555 -0.00733428 0)
(7.14265 -0.00693368 0)
(7.14937 -0.00655284 0)
(7.15572 -0.00619168 0)
(7.16171 -0.00584857 0)
(7.16738 -0.00552347 0)
(7.17272 -0.00521473 0)
(7.17777 -0.00492242 0)
(7.18253 -0.00464491 0)
(7.18703 -0.00438232 0)
(7.19127 -0.00413304 0)
(7.19527 -0.00389728 0)
(7.19904 -0.00367343 0)
(7.20259 -0.00346179 0)
(7.20594 -0.00326075 0)
(7.20909 -0.00307071 0)
(7.21206 -0.00289008 0)
(7.21485 -0.00271941 0)
(7.21748 -0.00255712 0)
(7.21995 -0.00240389 0)
(7.22227 -0.00225821 0)
(7.22445 -0.00212086 0)
(7.2265 -0.00199031 0)
(7.22843 -0.00186744 0)
(7.23024 -0.00175069 0)
(7.23193 -0.00164096 0)
(7.23352 -0.00153665 0)
(7.23501 -0.0014387 0)
(7.2364 -0.00134543 0)
(7.2377 -0.00125786 0)
(7.23892 -0.00117427 0)
(7.24006 -0.00109577 0)
(7.24112 -0.00102061 0)
(7.24212 -0.000950074 0)
(7.24304 -0.000882373 0)
(7.2439 -0.000818945 0)
(7.24471 -0.000757979 0)
(7.24545 -0.000701066 0)
(7.24614 -0.000646339 0)
(7.24679 -0.000595531 0)
(7.24738 -0.000546687 0)
(7.24793 -0.000501675 0)
(7.24844 -0.000458417 0)
(7.2489 -0.000418915 0)
(7.24933 -0.000380947 0)
(7.24973 -0.00034665 0)
(7.25009 -0.000313637 0)
(7.25042 -0.000284193 0)
(7.25072 -0.000255745 0)
(7.25099 -0.000230738 0)
(7.25124 -0.000206398 0)
(7.25147 -0.000185342 0)
(7.25167 -0.000164582 0)
(7.25186 -0.000146928 0)
(7.25203 -0.00012917 0)
(7.25218 -0.000114331 0)
(7.25231 -9.89878e-05 0)
(7.25243 -8.63924e-05 0)
(7.25253 -7.29199e-05 0)
(7.25262 -6.20634e-05 0)
(7.2527 -5.00117e-05 0)
(7.25277 -4.04918e-05 0)
(7.25283 -2.95124e-05 0)
(7.25287 -2.10163e-05 0)
(7.25291 -1.08299e-05 0)
(7.25294 -3.11377e-06 0)
(7.25295 6.43997e-06 0)
(7.25296 1.33986e-05 0)
(7.25296 2.18957e-05 0)
(7.25294 2.81778e-05 0)
(7.25296 3.42116e-05 0)
(7.25289 4.13467e-05 0)
(5.00002 -0.000220588 0)
(5.00015 -0.000661692 0)
(5.00043 -0.00110328 0)
(5.00088 -0.00154551 0)
(5.00147 -0.00198873 0)
(5.0022 -0.00243325 0)
(5.00308 -0.00287947 0)
(5.00411 -0.00332778 0)
(5.00529 -0.00377867 0)
(5.00662 -0.00423264 0)
(5.0081 -0.00469029 0)
(5.00973 -0.00515227 0)
(5.01152 -0.00561929 0)
(5.01346 -0.00609213 0)
(5.01556 -0.00657163 0)
(5.01782 -0.0070587 0)
(5.02024 -0.00755431 0)
(5.02283 -0.0080595 0)
(5.02559 -0.00857537 0)
(5.02851 -0.0091031 0)
(5.03162 -0.00964389 0)
(5.0349 -0.0101991 0)
(5.03837 -0.01077 0)
(5.04204 -0.011358 0)
(5.0459 -0.0119646 0)
(5.04996 -0.0125914 0)
(5.05423 -0.0132397 0)
(5.05872 -0.0139114 0)
(5.06344 -0.0146079 0)
(5.06839 -0.015331 0)
(5.07359 -0.0160824 0)
(5.07904 -0.016864 0)
(5.08475 -0.0176775 0)
(5.09074 -0.0185247 0)
(5.09701 -0.0194076 0)
(5.10358 -0.020328 0)
(5.11046 -0.0212878 0)
(5.11766 -0.0222891 0)
(5.12521 -0.0233337 0)
(5.13311 -0.0244238 0)
(5.14137 -0.0255611 0)
(5.15002 -0.0267479 0)
(5.15908 -0.0279859 0)
(5.16855 -0.0292774 0)
(5.17846 -0.030624 0)
(5.18882 -0.0320279 0)
(5.19966 -0.0334907 0)
(5.211 -0.0350145 0)
(5.22285 -0.0366007 0)
(5.23524 -0.0382513 0)
(5.24819 -0.0399673 0)
(5.26172 -0.0417504 0)
(5.27586 -0.0436015 0)
(5.29062 -0.0455216 0)
(5.30603 -0.0475111 0)
(5.32212 -0.0495704 0)
(5.33891 -0.051699 0)
(5.35642 -0.0538967 0)
(5.37468 -0.0561619 0)
(5.3937 -0.0584929 0)
(5.41352 -0.060887 0)
(5.43415 -0.0633409 0)
(5.45561 -0.0658501 0)
(5.47793 -0.0684095 0)
(5.50111 -0.0710121 0)
(5.52518 -0.0736506 0)
(5.55015 -0.0763155 0)
(5.57602 -0.0789967 0)
(5.6028 -0.0816817 0)
(5.63049 -0.0843575 0)
(5.65909 -0.0870086 0)
(5.68859 -0.0896191 0)
(5.71897 -0.0921705 0)
(5.75022 -0.0946444 0)
(5.7823 -0.0970202 0)
(5.81518 -0.0992776 0)
(5.84881 -0.101395 0)
(5.88315 -0.103351 0)
(5.91814 -0.105125 0)
(5.95372 -0.106698 0)
(5.9898 -0.10805 0)
(6.02631 -0.109165 0)
(6.06317 -0.11003 0)
(6.10029 -0.110632 0)
(6.13757 -0.110963 0)
(6.17493 -0.111018 0)
(6.21225 -0.110796 0)
(6.24945 -0.110299 0)
(6.28644 -0.109531 0)
(6.32311 -0.108502 0)
(6.35938 -0.107222 0)
(6.39517 -0.105707 0)
(6.4304 -0.10397 0)
(6.46499 -0.102031 0)
(6.49887 -0.0999074 0)
(6.532 -0.09762 0)
(6.56432 -0.0951885 0)
(6.59577 -0.0926339 0)
(6.62633 -0.0899758 0)
(6.65597 -0.0872347 0)
(6.68466 -0.0844289 0)
(6.71238 -0.0815773 0)
(6.73913 -0.0786962 0)
(6.76489 -0.0758021 0)
(6.78967 -0.072909 0)
(6.81347 -0.070031 0)
(6.8363 -0.0671791 0)
(6.85817 -0.064365 0)
(6.8791 -0.0615973 0)
(6.8991 -0.058885 0)
(6.9182 -0.0562344 0)
(6.93643 -0.0536523 0)
(6.95379 -0.0511427 0)
(6.97033 -0.0487105 0)
(6.98607 -0.0463577 0)
(7.00104 -0.0440874 0)
(7.01526 -0.0419 0)
(7.02876 -0.0397972 0)
(7.04158 -0.0377779 0)
(7.05374 -0.0358427 0)
(7.06527 -0.0339896 0)
(7.0762 -0.0322181 0)
(7.08655 -0.0305258 0)
(7.09635 -0.0289114 0)
(7.10563 -0.0273721 0)
(7.11441 -0.0259063 0)
(7.12272 -0.0245107 0)
(7.13058 -0.0231838 0)
(7.13801 -0.021922 0)
(7.14504 -0.0207237 0)
(7.15168 -0.0195852 0)
(7.15795 -0.0185051 0)
(7.16387 -0.0174796 0)
(7.16947 -0.0165073 0)
(7.17475 -0.0155846 0)
(7.17974 -0.0147103 0)
(7.18444 -0.0138808 0)
(7.18888 -0.0130952 0)
(7.19307 -0.0123501 0)
(7.19702 -0.0116446 0)
(7.20074 -0.0109757 0)
(7.20424 -0.0103427 0)
(7.20755 -0.00974249 0)
(7.21066 -0.00917467 0)
(7.21359 -0.00863631 0)
(7.21635 -0.00812715 0)
(7.21894 -0.00764438 0)
(7.22138 -0.00718801 0)
(7.22367 -0.0067553 0)
(7.22582 -0.00634656 0)
(7.22784 -0.00595916 0)
(7.22974 -0.0055936 0)
(7.23152 -0.00524734 0)
(7.23319 -0.00492104 0)
(7.23476 -0.00461214 0)
(7.23622 -0.0043214 0)
(7.23759 -0.00404622 0)
(7.23888 -0.00378742 0)
(7.24008 -0.00354234 0)
(7.2412 -0.00331194 0)
(7.24225 -0.00309347 0)
(7.24323 -0.00288809 0)
(7.24414 -0.00269304 0)
(7.24499 -0.00250971 0)
(7.24578 -0.00233533 0)
(7.24651 -0.00217156 0)
(7.24719 -0.00201564 0)
(7.24782 -0.0018695 0)
(7.2484 -0.00173034 0)
(7.24894 -0.00160035 0)
(7.24944 -0.00147665 0)
(7.24989 -0.00136164 0)
(7.25031 -0.00125234 0)
(7.25069 -0.00115135 0)
(7.25105 -0.00105549 0)
(7.25137 -0.000967578 0)
(7.25166 -0.00088419 0)
(7.25192 -0.000808331 0)
(7.25217 -0.000736299 0)
(7.25238 -0.000671301 0)
(7.25258 -0.000609333 0)
(7.25276 -0.000553824 0)
(7.25292 -0.000500469 0)
(7.25307 -0.000452952 0)
(7.2532 -0.000406712 0)
(7.25331 -0.000365718 0)
(7.25341 -0.000325199 0)
(7.2535 -0.000289433 0)
(7.25358 -0.000253497 0)
(7.25365 -0.000221969 0)
(7.2537 -0.000189796 0)
(7.25375 -0.00016183 0)
(7.25378 -0.000132897 0)
(7.25381 -0.000108113 0)
(7.25383 -8.22248e-05 0)
(7.25383 -6.06351e-05 0)
(7.25383 -3.83877e-05 0)
(7.2538 -1.93645e-05 0)
(7.25384 -4.21813e-06 0)
(7.25375 2.16117e-05 0)
(5.00002 -0.000366895 0)
(5.00015 -0.00110081 0)
(5.00043 -0.00183541 0)
(5.00087 -0.00257107 0)
(5.00146 -0.00330826 0)
(5.00219 -0.00404748 0)
(5.00307 -0.00478934 0)
(5.00409 -0.0055345 0)
(5.00526 -0.0062837 0)
(5.00658 -0.0070378 0)
(5.00805 -0.00779778 0)
(5.00967 -0.00856467 0)
(5.01145 -0.00933967 0)
(5.01337 -0.0101241 0)
(5.01545 -0.0109193 0)
(5.01769 -0.0117267 0)
(5.02009 -0.0125482 0)
(5.02265 -0.0133853 0)
(5.02538 -0.0142399 0)
(5.02827 -0.0151141 0)
(5.03134 -0.0160098 0)
(5.03459 -0.0169292 0)
(5.03802 -0.0178746 0)
(5.04163 -0.0188484 0)
(5.04544 -0.0198529 0)
(5.04945 -0.0208908 0)
(5.05366 -0.0219646 0)
(5.05809 -0.023077 0)
(5.06274 -0.0242308 0)
(5.06762 -0.0254287 0)
(5.07274 -0.0266738 0)
(5.07811 -0.0279689 0)
(5.08373 -0.0293172 0)
(5.08963 -0.0307216 0)
(5.09581 -0.0321853 0)
(5.10228 -0.0337115 0)
(5.10905 -0.0353035 0)
(5.11614 -0.0369645 0)
(5.12357 -0.0386979 0)
(5.13135 -0.0405068 0)
(5.13949 -0.0423948 0)
(5.14801 -0.0443651 0)
(5.15692 -0.0464211 0)
(5.16625 -0.048566 0)
(5.17601 -0.0508033 0)
(5.18622 -0.0531362 0)
(5.19691 -0.0555677 0)
(5.20808 -0.0581011 0)
(5.21977 -0.0607392 0)
(5.23199 -0.0634849 0)
(5.24476 -0.0663407 0)
(5.25811 -0.0693091 0)
(5.27207 -0.0723918 0)
(5.28665 -0.0755908 0)
(5.30188 -0.0789071 0)
(5.31779 -0.0823413 0)
(5.3344 -0.0858935 0)
(5.35173 -0.089563 0)
(5.36981 -0.0933479 0)
(5.38867 -0.0972457 0)
(5.40832 -0.101252 0)
(5.4288 -0.105363 0)
(5.45013 -0.10957 0)
(5.47232 -0.113865 0)
(5.4954 -0.118239 0)
(5.51939 -0.122677 0)
(5.5443 -0.127166 0)
(5.57015 -0.131689 0)
(5.59694 -0.136224 0)
(5.62468 -0.14075 0)
(5.65338 -0.145242 0)
(5.68301 -0.149671 0)
(5.71358 -0.154007 0)
(5.74507 -0.158217 0)
(5.77745 -0.162268 0)
(5.81068 -0.166122 0)
(5.84472 -0.169742 0)
(5.87953 -0.173092 0)
(5.91504 -0.176134 0)
(5.95119 -0.178833 0)
(5.98789 -0.181157 0)
(6.02507 -0.183076 0)
(6.06263 -0.184565 0)
(6.10047 -0.185603 0)
(6.1385 -0.186175 0)
(6.1766 -0.186273 0)
(6.21468 -0.185893 0)
(6.25262 -0.185041 0)
(6.29033 -0.183725 0)
(6.3277 -0.18196 0)
(6.36463 -0.179768 0)
(6.40104 -0.177172 0)
(6.43684 -0.174201 0)
(6.47196 -0.170887 0)
(6.50632 -0.167262 0)
(6.53987 -0.163361 0)
(6.57254 -0.15922 0)
(6.60431 -0.154874 0)
(6.63513 -0.150358 0)
(6.66497 -0.145705 0)
(6.69381 -0.140949 0)
(6.72164 -0.136119 0)
(6.74844 -0.131246 0)
(6.77422 -0.126357 0)
(6.79898 -0.121474 0)
(6.82273 -0.116623 0)
(6.84548 -0.111821 0)
(6.86724 -0.107088 0)
(6.88804 -0.102438 0)
(6.90789 -0.097886 0)
(6.92682 -0.0934421 0)
(6.94486 -0.0891164 0)
(6.96203 -0.0849165 0)
(6.97836 -0.0808486 0)
(6.99388 -0.0769171 0)
(7.00863 -0.0731256 0)
(7.02263 -0.0694758 0)
(7.03591 -0.0659687 0)
(7.04851 -0.062604 0)
(7.06045 -0.0593808 0)
(7.07176 -0.0562972 0)
(7.08248 -0.0533508 0)
(7.09262 -0.0505383 0)
(7.10222 -0.0478565 0)
(7.1113 -0.0453013 0)
(7.1199 -0.0428688 0)
(7.12802 -0.0405544 0)
(7.1357 -0.0383539 0)
(7.14297 -0.0362627 0)
(7.14983 -0.0342765 0)
(7.15631 -0.0323907 0)
(7.16243 -0.0306011 0)
(7.16821 -0.0289031 0)
(7.17367 -0.0272926 0)
(7.17883 -0.0257654 0)
(7.18369 -0.0243176 0)
(7.18828 -0.022945 0)
(7.19261 -0.0216441 0)
(7.19669 -0.0204111 0)
(7.20053 -0.0192426 0)
(7.20416 -0.0181353 0)
(7.20758 -0.0170862 0)
(7.21079 -0.0160922 0)
(7.21382 -0.0151508 0)
(7.21667 -0.014259 0)
(7.21936 -0.0134147 0)
(7.22188 -0.0126151 0)
(7.22425 -0.0118582 0)
(7.22648 -0.0111416 0)
(7.22857 -0.0104634 0)
(7.23054 -0.00982131 0)
(7.23238 -0.00921389 0)
(7.23411 -0.00863909 0)
(7.23573 -0.00809567 0)
(7.23725 -0.00758181 0)
(7.23867 -0.00709649 0)
(7.24 -0.00663802 0)
(7.24124 -0.00620546 0)
(7.2424 -0.00579718 0)
(7.24349 -0.00541224 0)
(7.2445 -0.005049 0)
(7.24545 -0.00470654 0)
(7.24633 -0.0043832 0)
(7.24715 -0.00407821 0)
(7.24791 -0.00378995 0)
(7.24862 -0.00351787 0)
(7.24928 -0.00326051 0)
(7.24989 -0.00301759 0)
(7.25045 -0.00278787 0)
(7.25097 -0.00257133 0)
(7.25144 -0.00236694 0)
(7.25188 -0.00217486 0)
(7.25228 -0.0019942 0)
(7.25265 -0.00182522 0)
(7.25299 -0.00166703 0)
(7.25329 -0.00151989 0)
(7.25357 -0.00138281 0)
(7.25382 -0.00125598 0)
(7.25405 -0.00113824 0)
(7.25425 -0.00102968 0)
(7.25444 -0.000928971 0)
(7.25461 -0.000836112 0)
(7.25476 -0.000749667 0)
(7.25489 -0.000669611 0)
(7.25501 -0.000594517 0)
(7.25512 -0.000524418 0)
(7.25522 -0.000458025 0)
(7.2553 -0.000395504 0)
(7.25537 -0.000335828 0)
(7.25543 -0.00027933 0)
(7.25548 -0.000225301 0)
(7.25552 -0.000174224 0)
(7.25555 -0.00012571 0)
(7.25557 -8.0328e-05 0)
(7.25559 -3.79507e-05 0)
(7.25558 8.59712e-07 0)
(7.25558 3.60032e-05 0)
(7.25555 6.86891e-05 0)
(7.25558 9.20118e-05 0)
(7.25548 0.000139795 0)
(5.00002 -0.000512498 0)
(5.00015 -0.00153774 0)
(5.00043 -0.00256376 0)
(5.00087 -0.00359105 0)
(5.00145 -0.00462019 0)
(5.00217 -0.00565183 0)
(5.00304 -0.00668672 0)
(5.00406 -0.00772575 0)
(5.00522 -0.00876993 0)
(5.00653 -0.00982042 0)
(5.00799 -0.0108785 0)
(5.00959 -0.0119457 0)
(5.01134 -0.0130236 0)
(5.01325 -0.0141141 0)
(5.0153 -0.015219 0)
(5.01751 -0.0163405 0)
(5.01987 -0.0174809 0)
(5.02239 -0.0186426 0)
(5.02508 -0.0198283 0)
(5.02793 -0.0210406 0)
(5.03094 -0.0222826 0)
(5.03413 -0.0235572 0)
(5.03749 -0.0248676 0)
(5.04104 -0.0262172 0)
(5.04477 -0.0276093 0)
(5.0487 -0.0290475 0)
(5.05283 -0.0305355 0)
(5.05716 -0.0320771 0)
(5.06171 -0.0336761 0)
(5.06648 -0.0353366 0)
(5.07149 -0.0370625 0)
(5.07673 -0.0388581 0)
(5.08223 -0.0407277 0)
(5.08799 -0.0426756 0)
(5.09402 -0.0447062 0)
(5.10034 -0.046824 0)
(5.10695 -0.0490336 0)
(5.11388 -0.0513396 0)
(5.12113 -0.0537466 0)
(5.12872 -0.0562594 0)
(5.13667 -0.0588828 0)
(5.14499 -0.0616215 0)
(5.1537 -0.0644803 0)
(5.16282 -0.0674639 0)
(5.17235 -0.0705771 0)
(5.18234 -0.0738246 0)
(5.19278 -0.077211 0)
(5.20371 -0.0807407 0)
(5.21515 -0.0844182 0)
(5.22711 -0.0882477 0)
(5.23962 -0.0922329 0)
(5.25271 -0.0963777 0)
(5.26639 -0.100685 0)
(5.28069 -0.105158 0)
(5.29565 -0.109798 0)
(5.31127 -0.114608 0)
(5.3276 -0.119587 0)
(5.34466 -0.124736 0)
(5.36247 -0.130052 0)
(5.38106 -0.135533 0)
(5.40046 -0.141175 0)
(5.4207 -0.146971 0)
(5.44181 -0.152912 0)
(5.4638 -0.158987 0)
(5.48672 -0.165184 0)
(5.51057 -0.171484 0)
(5.53538 -0.177868 0)
(5.56117 -0.184313 0)
(5.58796 -0.190791 0)
(5.61576 -0.19727 0)
(5.64457 -0.203714 0)
(5.6744 -0.210084 0)
(5.70524 -0.216336 0)
(5.73707 -0.222422 0)
(5.76989 -0.22829 0)
(5.80364 -0.233888 0)
(5.83831 -0.239158 0)
(5.87383 -0.244046 0)
(5.91014 -0.248494 0)
(5.94717 -0.252449 0)
(5.98483 -0.25586 0)
(6.02304 -0.258681 0)
(6.06168 -0.260873 0)
(6.10065 -0.262405 0)
(6.13984 -0.263253 0)
(6.17912 -0.263403 0)
(6.21837 -0.262853 0)
(6.25746 -0.261609 0)
(6.29629 -0.259686 0)
(6.33474 -0.257108 0)
(6.3727 -0.253907 0)
(6.41006 -0.250121 0)
(6.44675 -0.245795 0)
(6.48266 -0.240975 0)
(6.51774 -0.235712 0)
(6.55192 -0.23006 0)
(6.58515 -0.22407 0)
(6.61737 -0.217796 0)
(6.64856 -0.211288 0)
(6.6787 -0.204597 0)
(6.70776 -0.197769 0)
(6.73573 -0.190849 0)
(6.76261 -0.183879 0)
(6.7884 -0.176896 0)
(6.81312 -0.169937 0)
(6.83677 -0.163031 0)
(6.85938 -0.156208 0)
(6.88096 -0.149492 0)
(6.90154 -0.142905 0)
(6.92114 -0.136465 0)
(6.9398 -0.130188 0)
(6.95754 -0.124086 0)
(6.9744 -0.11817 0)
(6.99042 -0.112447 0)
(7.00561 -0.106923 0)
(7.02002 -0.101602 0)
(7.03368 -0.0964863 0)
(7.04662 -0.0915756 0)
(7.05888 -0.0868693 0)
(7.07048 -0.0823653 0)
(7.08146 -0.0780604 0)
(7.09185 -0.0739506 0)
(7.10168 -0.0700311 0)
(7.11098 -0.0662966 0)
(7.11976 -0.0627411 0)
(7.12807 -0.0593585 0)
(7.13592 -0.0561424 0)
(7.14334 -0.0530863 0)
(7.15034 -0.0501835 0)
(7.15696 -0.0474275 0)
(7.16321 -0.0448119 0)
(7.16911 -0.0423303 0)
(7.17468 -0.0399767 0)
(7.17994 -0.037745 0)
(7.1849 -0.0356295 0)
(7.18957 -0.0336247 0)
(7.19399 -0.031725 0)
(7.19815 -0.0299252 0)
(7.20208 -0.0282202 0)
(7.20577 -0.026605 0)
(7.20926 -0.0250749 0)
(7.21254 -0.0236254 0)
(7.21563 -0.0222522 0)
(7.21854 -0.0209513 0)
(7.22128 -0.0197191 0)
(7.22385 -0.0185521 0)
(7.22627 -0.017447 0)
(7.22855 -0.016401 0)
(7.23068 -0.015411 0)
(7.23269 -0.0144745 0)
(7.23457 -0.0135887 0)
(7.23633 -0.0127511 0)
(7.23799 -0.0119592 0)
(7.23954 -0.0112108 0)
(7.24099 -0.0105036 0)
(7.24234 -0.00983546 0)
(7.24361 -0.00920441 0)
(7.24479 -0.00860863 0)
(7.2459 -0.00804616 0)
(7.24693 -0.00751536 0)
(7.2479 -0.00701432 0)
(7.2488 -0.00654147 0)
(7.24963 -0.00609496 0)
(7.25041 -0.00567328 0)
(7.25114 -0.00527469 0)
(7.25181 -0.00489792 0)
(7.25243 -0.00454139 0)
(7.253 -0.00420424 0)
(7.25353 -0.00388522 0)
(7.25402 -0.0035839 0)
(7.25447 -0.00329937 0)
(7.25488 -0.00303166 0)
(7.25525 -0.00278007 0)
(7.25559 -0.00254487 0)
(7.2559 -0.00232543 0)
(7.25618 -0.00212199 0)
(7.25643 -0.00193376 0)
(7.25666 -0.00176071 0)
(7.25686 -0.00160178 0)
(7.25705 -0.0014565 0)
(7.25722 -0.00132353 0)
(7.25737 -0.00120198 0)
(7.2575 -0.00109034 0)
(7.25762 -0.000987405 0)
(7.25773 -0.000891764 0)
(7.25783 -0.000802095 0)
(7.25792 -0.000717314 0)
(7.25799 -0.000636195 0)
(7.25806 -0.000558203 0)
(7.25812 -0.000482359 0)
(7.25816 -0.000408787 0)
(7.2582 -0.000336796 0)
(7.25822 -0.000267141 0)
(7.25823 -0.000199368 0)
(7.25824 -0.000134736 0)
(7.25823 -7.29736e-05 0)
(7.25821 -1.59372e-05 0)
(7.25817 3.83836e-05 0)
(7.2582 7.79534e-05 0)
(7.2581 0.000147304 0)
(5.00002 -0.000657136 0)
(5.00015 -0.00197171 0)
(5.00043 -0.00328703 0)
(5.00086 -0.00460359 0)
(5.00144 -0.00592201 0)
(5.00216 -0.00724299 0)
(5.00302 -0.00856741 0)
(5.00403 -0.0098963 0)
(5.00518 -0.0112309 0)
(5.00647 -0.0125725 0)
(5.00791 -0.013923 0)
(5.00949 -0.015284 0)
(5.01122 -0.0166577 0)
(5.01309 -0.0180463 0)
(5.01511 -0.0194525 0)
(5.01728 -0.020879 0)
(5.0196 -0.0223288 0)
(5.02207 -0.023805 0)
(5.0247 -0.025311 0)
(5.02749 -0.0268504 0)
(5.03043 -0.0284271 0)
(5.03355 -0.0300448 0)
(5.03683 -0.0317079 0)
(5.04028 -0.0334205 0)
(5.04392 -0.0351871 0)
(5.04774 -0.0370124 0)
(5.05175 -0.038901 0)
(5.05596 -0.040858 0)
(5.06037 -0.0428882 0)
(5.065 -0.0449969 0)
(5.06986 -0.0471894 0)
(5.07494 -0.049471 0)
(5.08027 -0.0518472 0)
(5.08585 -0.0543238 0)
(5.09169 -0.0569064 0)
(5.0978 -0.0596007 0)
(5.10421 -0.0624128 0)
(5.11091 -0.0653485 0)
(5.11793 -0.068414 0)
(5.12528 -0.0716153 0)
(5.13298 -0.0749586 0)
(5.14103 -0.0784502 0)
(5.14946 -0.0820962 0)
(5.15829 -0.0859029 0)
(5.16753 -0.0898765 0)
(5.17721 -0.0940234 0)
(5.18733 -0.0983495 0)
(5.19794 -0.102861 0)
(5.20903 -0.107564 0)
(5.22065 -0.112464 0)
(5.2328 -0.117566 0)
(5.24552 -0.122877 0)
(5.25883 -0.1284 0)
(5.27276 -0.134139 0)
(5.28733 -0.140099 0)
(5.30257 -0.146283 0)
(5.31852 -0.152692 0)
(5.33519 -0.159327 0)
(5.35262 -0.166188 0)
(5.37084 -0.173271 0)
(5.38988 -0.180574 0)
(5.40978 -0.18809 0)
(5.43056 -0.19581 0)
(5.45226 -0.20372 0)
(5.47491 -0.211807 0)
(5.49855 -0.220049 0)
(5.52319 -0.228424 0)
(5.54887 -0.236901 0)
(5.57562 -0.245446 0)
(5.60345 -0.25402 0)
(5.63238 -0.262575 0)
(5.66243 -0.27106 0)
(5.69359 -0.279416 0)
(5.72587 -0.287577 0)
(5.75925 -0.295474 0)
(5.79371 -0.303032 0)
(5.8292 -0.310172 0)
(5.86568 -0.316814 0)
(5.90309 -0.322876 0)
(5.94134 -0.32828 0)
(5.98034 -0.332953 0)
(6.01998 -0.336826 0)
(6.06015 -0.339841 0)
(6.10071 -0.341952 0)
(6.14153 -0.343125 0)
(6.18246 -0.343342 0)
(6.22336 -0.342597 0)
(6.26408 -0.340901 0)
(6.30449 -0.338277 0)
(6.34444 -0.334762 0)
(6.38382 -0.330404 0)
(6.42251 -0.325259 0)
(6.4604 -0.319391 0)
(6.49742 -0.312868 0)
(6.53347 -0.305763 0)
(6.5685 -0.298149 0)
(6.60244 -0.290102 0)
(6.63527 -0.281694 0)
(6.66694 -0.272996 0)
(6.69745 -0.264076 0)
(6.72677 -0.254998 0)
(6.7549 -0.245821 0)
(6.78185 -0.236599 0)
(6.80763 -0.227384 0)
(6.83226 -0.21822 0)
(6.85576 -0.209148 0)
(6.87814 -0.200203 0)
(6.89945 -0.191418 0)
(6.91972 -0.182818 0)
(6.93897 -0.174427 0)
(6.95724 -0.166263 0)
(6.97457 -0.158342 0)
(6.991 -0.150677 0)
(7.00657 -0.143275 0)
(7.0213 -0.136142 0)
(7.03525 -0.129283 0)
(7.04845 -0.122699 0)
(7.06093 -0.116388 0)
(7.07272 -0.110348 0)
(7.08387 -0.104576 0)
(7.09441 -0.0990649 0)
(7.10437 -0.09381 0)
(7.11377 -0.0888035 0)
(7.12266 -0.0840379 0)
(7.13105 -0.0795047 0)
(7.13898 -0.0751954 0)
(7.14646 -0.0711013 0)
(7.15353 -0.0672136 0)
(7.1602 -0.0635233 0)
(7.16649 -0.0600217 0)
(7.17243 -0.0567 0)
(7.17804 -0.05355 0)
(7.18333 -0.0505632 0)
(7.18832 -0.0477318 0)
(7.19303 -0.045048 0)
(7.19747 -0.0425048 0)
(7.20165 -0.0400949 0)
(7.2056 -0.0378118 0)
(7.20931 -0.035649 0)
(7.21282 -0.0336004 0)
(7.21612 -0.0316601 0)
(7.21922 -0.0298223 0)
(7.22215 -0.0280814 0)
(7.2249 -0.0264322 0)
(7.22749 -0.0248697 0)
(7.22992 -0.0233893 0)
(7.23221 -0.0219867 0)
(7.23435 -0.0206582 0)
(7.23636 -0.0194001 0)
(7.23825 -0.0182094 0)
(7.24002 -0.0170831 0)
(7.24168 -0.0160184 0)
(7.24323 -0.0150125 0)
(7.24469 -0.0140627 0)
(7.24604 -0.0131663 0)
(7.24731 -0.0123206 0)
(7.2485 -0.0115229 0)
(7.24961 -0.0107706 0)
(7.25064 -0.0100609 0)
(7.25161 -0.00939149 0)
(7.25251 -0.00875978 0)
(7.25335 -0.00816357 0)
(7.25413 -0.00760038 0)
(7.25485 -0.00706822 0)
(7.25553 -0.00656487 0)
(7.25615 -0.00608856 0)
(7.25673 -0.00563742 0)
(7.25727 -0.00521012 0)
(7.25776 -0.00480515 0)
(7.25821 -0.00442183 0)
(7.25862 -0.00405906 0)
(7.25899 -0.00371686 0)
(7.25933 -0.00339446 0)
(7.25963 -0.00309242 0)
(7.2599 -0.0028101 0)
(7.26015 -0.00254824 0)
(7.26036 -0.002306 0)
(7.26056 -0.00208386 0)
(7.26073 -0.00188054 0)
(7.26088 -0.00169585 0)
(7.26102 -0.00152802 0)
(7.26115 -0.00137609 0)
(7.26126 -0.00123796 0)
(7.26136 -0.00111207 0)
(7.26146 -0.000996404 0)
(7.26155 -0.000889091 0)
(7.26162 -0.000788634 0)
(7.26169 -0.000693241 0)
(7.26175 -0.000602262 0)
(7.26181 -0.000514218 0)
(7.26185 -0.000429451 0)
(7.26188 -0.00034685 0)
(7.2619 -0.000267683 0)
(7.26191 -0.000191089 0)
(7.26191 -0.000119007 0)
(7.2619 -5.07541e-05 0)
(7.26187 1.12474e-05 0)
(7.26182 6.99411e-05 0)
(7.26183 0.000111294 0)
(7.26168 0.000189821 0)
(5.00002 -0.000800845 0)
(5.00015 -0.00240283 0)
(5.00042 -0.00400537 0)
(5.00085 -0.0056088 0)
(5.00143 -0.00721365 0)
(5.00214 -0.00882057 0)
(5.003 -0.0104305 0)
(5.00399 -0.0120444 0)
(5.00513 -0.0136638 0)
(5.00641 -0.0152903 0)
(5.00783 -0.0169257 0)
(5.00939 -0.0185724 0)
(5.01109 -0.0202329 0)
(5.01293 -0.0219098 0)
(5.01491 -0.0236064 0)
(5.01703 -0.0253261 0)
(5.0193 -0.0270724 0)
(5.02171 -0.0288492 0)
(5.02427 -0.0306609 0)
(5.02698 -0.0325117 0)
(5.02984 -0.0344063 0)
(5.03286 -0.0363496 0)
(5.03604 -0.0383466 0)
(5.03938 -0.0404028 0)
(5.04289 -0.0425234 0)
(5.04658 -0.0447143 0)
(5.05045 -0.0469813 0)
(5.0545 -0.0493304 0)
(5.05875 -0.0517678 0)
(5.06321 -0.0542999 0)
(5.06787 -0.0569333 0)
(5.07275 -0.0596745 0)
(5.07787 -0.0625305 0)
(5.08322 -0.0655081 0)
(5.08882 -0.0686146 0)
(5.09469 -0.0718569 0)
(5.10083 -0.0752426 0)
(5.10725 -0.078779 0)
(5.11398 -0.0824737 0)
(5.12103 -0.0863342 0)
(5.1284 -0.0903682 0)
(5.13613 -0.0945836 0)
(5.14421 -0.0989881 0)
(5.15268 -0.10359 0)
(5.16155 -0.108396 0)
(5.17084 -0.113415 0)
(5.18057 -0.118655 0)
(5.19075 -0.124123 0)
(5.20142 -0.129827 0)
(5.2126 -0.135775 0)
(5.2243 -0.141974 0)
(5.23656 -0.148432 0)
(5.2494 -0.155154 0)
(5.26285 -0.162148 0)
(5.27693 -0.169419 0)
(5.29167 -0.176972 0)
(5.30711 -0.184811 0)
(5.32328 -0.192939 0)
(5.34022 -0.201357 0)
(5.35794 -0.210065 0)
(5.3765 -0.219061 0)
(5.39593 -0.228339 0)
(5.41627 -0.237892 0)
(5.43755 -0.247708 0)
(5.45983 -0.25777 0)
(5.48313 -0.268058 0)
(5.5075 -0.278546 0)
(5.53297 -0.2892 0)
(5.5596 -0.29998 0)
(5.5874 -0.31084 0)
(5.61642 -0.321721 0)
(5.64668 -0.33256 0)
(5.6782 -0.343281 0)
(5.71099 -0.3538 0)
(5.74504 -0.364025 0)
(5.78035 -0.373855 0)
(5.81688 -0.383182 0)
(5.85459 -0.391894 0)
(5.89341 -0.399878 0)
(5.93326 -0.407021 0)
(5.97402 -0.413215 0)
(6.01558 -0.418363 0)
(6.05779 -0.42238 0)
(6.10049 -0.425197 0)
(6.1435 -0.426768 0)
(6.18665 -0.427066 0)
(6.22976 -0.426085 0)
(6.27266 -0.423845 0)
(6.31516 -0.42038 0)
(6.35711 -0.415747 0)
(6.39837 -0.410014 0)
(6.43879 -0.403265 0)
(6.47827 -0.39559 0)
(6.5167 -0.387085 0)
(6.55399 -0.377852 0)
(6.5901 -0.367992 0)
(6.62495 -0.357605 0)
(6.65852 -0.346788 0)
(6.69078 -0.335636 0)
(6.72172 -0.324236 0)
(6.75134 -0.312672 0)
(6.77964 -0.301019 0)
(6.80665 -0.289347 0)
(6.83238 -0.277718 0)
(6.85685 -0.266188 0)
(6.88012 -0.254806 0)
(6.9022 -0.243615 0)
(6.92313 -0.232652 0)
(6.94297 -0.221948 0)
(6.96175 -0.21153 0)
(6.97951 -0.201418 0)
(6.9963 -0.191629 0)
(7.01216 -0.182176 0)
(7.02714 -0.173068 0)
(7.04129 -0.16431 0)
(7.05464 -0.155904 0)
(7.06723 -0.147851 0)
(7.07911 -0.140147 0)
(7.09032 -0.132787 0)
(7.10089 -0.125765 0)
(7.11086 -0.119072 0)
(7.12027 -0.1127 0)
(7.12914 -0.106638 0)
(7.1375 -0.100874 0)
(7.14539 -0.0953976 0)
(7.15284 -0.0901972 0)
(7.15986 -0.0852611 0)
(7.16648 -0.0805776 0)
(7.17272 -0.0761354 0)
(7.17862 -0.0719235 0)
(7.18417 -0.067931 0)
(7.18941 -0.0641474 0)
(7.19435 -0.0605625 0)
(7.199 -0.0571663 0)
(7.20339 -0.0539491 0)
(7.20753 -0.0509018 0)
(7.21143 -0.0480153 0)
(7.2151 -0.0452812 0)
(7.21855 -0.0426914 0)
(7.22181 -0.0402384 0)
(7.22487 -0.037915 0)
(7.22776 -0.0357145 0)
(7.23047 -0.0336304 0)
(7.23302 -0.0316566 0)
(7.23542 -0.0297871 0)
(7.23767 -0.0280162 0)
(7.23979 -0.0263387 0)
(7.24177 -0.0247493 0)
(7.24363 -0.0232437 0)
(7.24537 -0.0218176 0)
(7.247 -0.0204676 0)
(7.24852 -0.0191905 0)
(7.24994 -0.0179834 0)
(7.25126 -0.0168435 0)
(7.2525 -0.0157682 0)
(7.25365 -0.0147548 0)
(7.25473 -0.0138002 0)
(7.25574 -0.0129015 0)
(7.25667 -0.0120553 0)
(7.25754 -0.0112584 0)
(7.25836 -0.0105071 0)
(7.25911 -0.00979866 0)
(7.25982 -0.00912933 0)
(7.26047 -0.00849661 0)
(7.26108 -0.00789734 0)
(7.26164 -0.0073295 0)
(7.26216 -0.00679066 0)
(7.26264 -0.00627943 0)
(7.26308 -0.00579416 0)
(7.26348 -0.0053342 0)
(7.26384 -0.00489861 0)
(7.26416 -0.00448745 0)
(7.26445 -0.00410025 0)
(7.2647 -0.00373765 0)
(7.26492 -0.00339922 0)
(7.26511 -0.00308587 0)
(7.26528 -0.00279677 0)
(7.26543 -0.0025325 0)
(7.26555 -0.00229149 0)
(7.26566 -0.00207347 0)
(7.26576 -0.00187594 0)
(7.26584 -0.00169752 0)
(7.26592 -0.00153506 0)
(7.26599 -0.00138619 0)
(7.26606 -0.00124778 0)
(7.26612 -0.001117 0)
(7.26618 -0.000991573 0)
(7.26623 -0.000868888 0)
(7.26628 -0.000748111 0)
(7.26631 -0.000627335 0)
(7.26634 -0.000507388 0)
(7.26636 -0.000387206 0)
(7.26637 -0.000269024 0)
(7.26636 -0.000152473 0)
(7.26634 -4.07283e-05 0)
(7.2663 6.61433e-05 0)
(7.26626 0.000163984 0)
(7.26619 0.000256371 0)
(7.26619 0.000321581 0)
(7.26604 0.000442858 0)
(5.00002 -0.000943918 0)
(5.00015 -0.00283197 0)
(5.00042 -0.0047201 0)
(5.00085 -0.00660832 0)
(5.00142 -0.00849687 0)
(5.00213 -0.0103862 0)
(5.00298 -0.0122772 0)
(5.00397 -0.0141707 0)
(5.0051 -0.0160684 0)
(5.00636 -0.017972 0)
(5.00776 -0.0198838 0)
(5.0093 -0.0218063 0)
(5.01096 -0.0237425 0)
(5.01277 -0.0256957 0)
(5.01471 -0.0276699 0)
(5.01678 -0.0296689 0)
(5.01899 -0.0316973 0)
(5.02133 -0.0337598 0)
(5.02382 -0.0358614 0)
(5.02644 -0.0380075 0)
(5.0292 -0.0402036 0)
(5.03211 -0.0424557 0)
(5.03517 -0.0447698 0)
(5.03839 -0.0471524 0)
(5.04176 -0.0496098 0)
(5.04529 -0.052149 0)
(5.04899 -0.0547769 0)
(5.05286 -0.0575007 0)
(5.05692 -0.0603277 0)
(5.06116 -0.0632654 0)
(5.06561 -0.0663216 0)
(5.07025 -0.0695042 0)
(5.07511 -0.0728212 0)
(5.0802 -0.0762809 0)
(5.08552 -0.0798915 0)
(5.09108 -0.0836618 0)
(5.09691 -0.0876002 0)
(5.103 -0.0917157 0)
(5.10938 -0.0960172 0)
(5.11606 -0.100514 0)
(5.12306 -0.105215 0)
(5.13038 -0.110129 0)
(5.13805 -0.115266 0)
(5.14609 -0.120636 0)
(5.15451 -0.126248 0)
(5.16333 -0.132112 0)
(5.17257 -0.138237 0)
(5.18226 -0.144633 0)
(5.19241 -0.15131 0)
(5.20305 -0.158277 0)
(5.2142 -0.165544 0)
(5.22589 -0.173121 0)
(5.23815 -0.181017 0)
(5.251 -0.18924 0)
(5.26447 -0.1978 0)
(5.27859 -0.206703 0)
(5.29341 -0.215958 0)
(5.30894 -0.225571 0)
(5.32523 -0.235545 0)
(5.34232 -0.245885 0)
(5.36025 -0.256591 0)
(5.37906 -0.267661 0)
(5.3988 -0.279092 0)
(5.41951 -0.290874 0)
(5.44124 -0.302994 0)
(5.46405 -0.315432 0)
(5.488 -0.328162 0)
(5.51313 -0.341152 0)
(5.5395 -0.354358 0)
(5.56716 -0.367726 0)
(5.59617 -0.381193 0)
(5.62658 -0.39468 0)
(5.65842 -0.408097 0)
(5.69173 -0.421338 0)
(5.72653 -0.434285 0)
(5.76282 -0.446805 0)
(5.80059 -0.458752 0)
(5.8398 -0.469973 0)
(5.88039 -0.480308 0)