/*--------------------------------*- C++ -*----------------------------------*\
  =========                 |
  \\      /  F ield         | OpenFOAM: The Open Source CFD Toolbox
   \\    /   O peration     | Website:  https://openfoam.org
    \\  /    A nd           | Version:  10
     \\/     M anipulation  |
\*---------------------------------------------------------------------------*/
FoamFile
{
    format      ascii;
    class       volScalarField;
    location    "0.011";
    object      T;
}
// * * * * * * * * * * * * * * * * * * * * * * * * * * * * * * * * * * * * * //

dimensions      [0 0 0 1 0 0 0];

internalField   nonuniform List<scalar> 
12225
(
1.00078
0.99983
1.00012
1.00011
1.00018
1.00045
1.00048
1.00029
1.00023
1.00034
1.00039
1.00023
0.999838
0.999051
0.997471
0.993842
0.98494
0.964389
1.00003
0.999827
1.00006
1.00005
1.00011
1.00041
1.0005
1.00033
1.00022
1.0003
1.00035
1.00021
0.999834
0.999075
0.997528
0.994102
0.986107
0.968537
0.999764
1.00012
1.00024
1.00008
1.0001
1.00037
1.00045
1.00029
1.00019
1.00025
1.00028
1.00014
0.999828
0.999173
0.997778
0.994701
0.987761
0.973658
1.00007
1.00003
1.00016
1.0001
1.00011
1.00032
1.0004
1.00028
1.00022
1.00028
1.00033
1.00022
0.999915
0.999285
0.997963
0.99521
0.989435
0.978542
1.00009
1.00028
1.00054
1.00023
1.00008
1.00033
1.00048
1.00036
1.00023
1.00023
1.00024
1.00012
0.999845
0.999306
0.998194
0.995923
0.991328
0.983059
0.999792
1.00009
1.00049
1.00028
1.00011
1.00027
1.00034
1.00022
1.00016
1.00023
1.00027
1.00019
0.999946
0.99947
0.998512
0.996617
0.992996
0.986783
0.999775
1.00037
1.00097
1.00049
1.00007
1.00026
1.00043
1.00036
1.00026
1.00024
1.00021
1.00009
0.999875
0.999479
0.998702
0.997199
0.994433
0.989824
1.00009
1.00051
1.00094
1.00043
1.00008
1.00025
1.00031
1.00017
1.00011
1.00016
1.0002
1.00015
0.999984
0.99966
0.999032
0.997849
0.995758
0.992374
0.998855
1.00088
1.00126
1.00046
0.999973
1.00016
1.00035
1.00031
1.00025
1.00022
1.00018
1.00007
0.999905
0.999644
0.999164
0.998273
0.996736
0.994286
0.999599
1.00093
1.00109
1.00044
1.00005
1.00017
1.00024
1.0001
1.00002
1.00006
1.00011
1.0001
1.00001
0.99983
0.999477
0.998819
0.9977
0.995961
0.998572
1.0006
1.00111
1.00033
0.999871
1.00008
1.00029
1.00025
1.00019
1.00019
1.00016
1.00006
0.99993
0.999759
0.999479
0.998997
0.998197
0.996985
1.00011
1.00078
1.00092
1.00036
0.999945
1.00006
1.00013
1.00001
0.999935
0.999977
1.00004
1.00006
1.00002
0.999929
0.999747
0.999405
0.998844
0.997976
0.998767
1.00066
1.00065
1.00025
0.999877
1.00001
1.00019
1.00015
1.0001
1.0001
1.00008
1.00002
0.999934
0.999837
0.999697
0.99945
0.999053
0.998447
1.00051
1.00017
0.999747
0.999892
0.999828
0.999884
0.999944
0.999883
0.999842
0.999889
0.999958
1
0.999998
0.999964
0.999879
0.999738
0.999473
0.999114
0.999766
0.999123
0.99988
1.00044
1.00028
1.00009
1.00006
1.00008
1.00009
1.00007
1.00006
1.00003
0.999974
0.999912
0.99983
0.999729
0.999555
0.999327
1.00358
1.00016
0.999478
0.999135
0.999199
0.999422
0.999583
0.999723
0.999824
0.999861
0.999892
0.999951
1.00001
1.00004
1.00004
1.00002
0.99995
0.999841
0.998925
0.998094
0.998226
0.999189
0.999912
1.00019
1.00014
1.00005
1.00001
0.999985
0.999976
0.99998
0.999966
0.999943
0.99992
0.999901
0.999868
0.999825
1.00101
1.00005
0.999707
0.999502
0.99937
0.999427
0.999517
0.999607
0.999723
0.999867
0.999984
1.00004
1.00005
1.00007
1.00011
1.00014
1.00016
1.00016
0.998494
0.999983
1.00047
1.00037
1.00058
1.00076
1.00072
1.00065
1.0006
1.00057
1.00057
1.00057
1.00056
1.00054
1.00052
1.00048
1.00044
1.00039
1.00062
1.00247
1.00239
1.0013
1.00084
1.00062
1.00051
1.00048
1.00044
1.00037
1.00033
1.00029
1.00027
1.00027
1.0003
1.00032
1.00036
1.00039
0.998269
1.00068
1.00172
1.00135
1.00105
1.0009
1.00092
1.00096
1.0009
1.00081
1.00078
1.00078
1.00077
1.00074
1.0007
1.00066
1.00061
1.00058
0.998786
1.00001
1.00127
1.00127
1.00067
1.00056
1.00073
1.00068
1.00053
1.00052
1.00055
1.00053
1.0005
1.00048
1.00048
1.0005
1.00051
1.00052
1.00022
0.999391
1.00003
1.00066
1.00056
1.00055
1.0007
1.00072
1.0007
1.00075
1.0008
1.00075
1.00068
1.00066
1.00066
1.00065
1.00061
1.00058
0.999903
0.9998
1.00049
1.0009
1.00068
1.00055
1.00061
1.00063
1.00057
1.00052
1.0005
1.00048
1.00049
1.00052
1.00054
1.00056
1.00057
1.00058
0.999794
1.00045
1.0005
1.00049
1.00033
1.00028
1.00045
1.00062
1.00068
1.00069
1.00069
1.00067
1.00066
1.00067
1.00065
1.00062
1.00059
1.00057
0.998757
1.00083
1.00083
1.0007
1.00059
1.00055
1.00064
1.00065
1.00058
1.00054
1.00056
1.00058
1.00056
1.00056
1.00057
1.0006
1.00063
1.00065
0.99936
1.00107
1.00082
1.00038
1.0003
1.00037
1.00054
1.00062
1.00059
1.00058
1.00065
1.00072
1.00072
1.00068
1.00063
1.00059
1.00056
1.00055
0.999242
1.00085
1.00085
1.00061
1.0006
1.0006
1.00064
1.00063
1.00055
1.00049
1.00051
1.00055
1.00057
1.00057
1.00058
1.00059
1.0006
1.00061
0.998611
1.00033
1.00053
1.00047
1.00051
1.00054
1.00059
1.0006
1.00056
1.00055
1.00062
1.00068
1.0007
1.00066
1.00061
1.00055
1.00052
1.00052
0.999703
1.00021
1.00065
1.00068
1.00061
1.00057
1.0006
1.0006
1.00054
1.00053
1.0006
1.00068
1.00071
1.00067
1.00061
1.00057
1.00054
1.00058
0.194975
0.195039
0.195071
0.195051
0.195124
0.195243
0.195229
0.19509
0.194745
0.194107
0.193206
0.192101
0.190819
0.189362
0.187728
0.185911
0.183905
0.181708
0.179315
0.176721
0.173924
0.170915
0.167687
0.164228
0.16053
0.156591
0.152388
0.147879
0.143025
0.137776
0.132077
0.125859
0.119023
0.111428
0.103136
0.0944497
0.0856606
0.0770891
0.0688217
0.0610131
0.0537044
0.0468615
0.0406881
0.0350676
0.0299745
0.0254452
0.0214587
0.017965
0.0148644
0.0121516
0.009864
0.00801603
0.00663098
0.00567792
0.00513344
0.00495789
0.00508002
0.00541915
0.0059024
0.00647426
0.00709595
0.007742
0.00839608
0.00904775
0.00968997
0.0103178
0.0109273
0.0115154
0.0120796
0.0126178
0.0131283
0.01361
0.0140626
0.0144862
0.014882
0.0152524
0.0155997
0.0159276
0.0162412
0.0165464
0.0168498
0.0171587
0.0174808
0.0178232
0.0181925
0.0185937
0.0190293
0.0194994
0.0200002
0.0205246
0.0210618
0.021597
0.0221129
0.0225896
0.0230057
0.0233389
0.0235667
0.0236691
0.0236308
0.0234413
0.0230922
0.0225772
0.0218954
0.0210544
0.0200606
0.018917
0.0176481
0.0162941
0.0148987
0.0135131
0.0121851
0.0109456
0.00978393
0.008615
0.00737321
0.00611971
0.00490337
0.00375016
0.00275571
0.00196106
0.00134617
0.000886558
0.000556998
0.000332304
0.00018798
0.000100881
5.13758e-05
2.48201e-05
1.13348e-05
4.8719e-06
1.9619e-06
7.36851e-07
2.57789e-07
8.52948e-08
2.91599e-08
1.38127e-08
1.187e-08
1.42644e-08
1.8138e-08
2.24509e-08
2.65741e-08
2.99146e-08
3.18941e-08
3.20829e-08
3.03857e-08
2.7146e-08
2.3009e-08
1.86481e-08
1.45615e-08
1.10156e-08
8.08482e-09
5.74505e-09
3.94326e-09
2.60842e-09
1.65935e-09
1.01362e-09
5.94036e-10
3.33877e-10
1.79969e-10
9.3055e-11
4.61614e-11
2.19741e-11
1.0041e-11
4.40306e-12
1.8526e-12
7.48241e-13
2.89732e-13
1.07445e-13
3.82067e-14
1.30066e-14
4.23065e-15
1.3182e-15
3.91645e-16
1.09084e-16
2.78273e-17
5.99897e-18
7.20799e-19
-2.13641e-19
-2.07761e-19
-1.05133e-19
0.199825
0.199927
0.200109
0.200217
0.20038
0.200564
0.200637
0.200425
0.199877
0.19902
0.197916
0.196611
0.195123
0.19345
0.191587
0.189527
0.187264
0.184797
0.182124
0.179247
0.176165
0.17288
0.169386
0.165676
0.161736
0.157542
0.15309
0.148376
0.143384
0.138085
0.132446
0.126412
0.119919
0.112822
0.105097
0.0969482
0.0884459
0.0797862
0.0713071
0.0632306
0.0555184
0.0483345
0.0417951
0.0358654
0.0304844
0.025659
0.0214263
0.0175969
0.0143161
0.0115467
0.00922503
0.00742833
0.00619672
0.00542538
0.00503401
0.00497043
0.00516781
0.00555588
0.00607417
0.00667644
0.00733003
0.00801261
0.00870935
0.00941009
0.0101077
0.0107967
0.0114727
0.0121321
0.0127714
0.0133877
0.0139786
0.0145419
0.0150763
0.0155809
0.0160551
0.0164991
0.0169149
0.0173058
0.0176759
0.018031
0.0183781
0.0187252
0.0190814
0.0194558
0.0198575
0.0202942
0.0207716
0.0212925
0.0218556
0.0224558
0.0230829
0.0237226
0.024356
0.0249605
0.0255106
0.0259782
0.0263343
0.0265511
0.0266057
0.0264814
0.0261659
0.0256496
0.0249291
0.0240105
0.0229031
0.0216113
0.0201551
0.0185807
0.0169461
0.0153189
0.0137696
0.0123279
0.0109677
0.00958843
0.00810987
0.00661799
0.00522349
0.00396769
0.0028998
0.00204207
0.00138137
0.000895297
0.000554161
0.000326634
0.00018322
9.7851e-05
4.97195e-05
2.39979e-05
1.09687e-05
4.72602e-06
1.90966e-06
7.20249e-07
2.53391e-07
8.47385e-08
2.98829e-08
1.52575e-08
1.41232e-08
1.76284e-08
2.29968e-08
2.91877e-08
3.54561e-08
4.09575e-08
4.47196e-08
4.58475e-08
4.39321e-08
3.93903e-08
3.32839e-08
2.67754e-08
2.07067e-08
1.54987e-08
1.12466e-08
7.89396e-09
5.34624e-09
3.48635e-09
2.18517e-09
1.31502e-09
7.59485e-10
4.20968e-10
2.23987e-10
1.14437e-10
5.61499e-11
2.64621e-11
1.19794e-11
5.20693e-12
2.1722e-12
8.69656e-13
3.33608e-13
1.22464e-13
4.3043e-14
1.44742e-14
4.65456e-15
1.4341e-15
4.22823e-16
1.17913e-16
3.02071e-17
6.58115e-18
8.4094e-19
-2.32876e-19
-2.52201e-19
-1.33584e-19
0.210409
0.210657
0.211003
0.211392
0.21158
0.211517
0.211151
0.210457
0.209485
0.208289
0.206893
0.205293
0.203474
0.201422
0.199134
0.196607
0.193841
0.190839
0.187603
0.184139
0.180457
0.176568
0.172485
0.168219
0.16377
0.159128
0.154269
0.149176
0.143843
0.138275
0.132469
0.126403
0.120052
0.113348
0.10624
0.0987271
0.0907891
0.082551
0.0742051
0.0659397
0.0579338
0.0503203
0.0432656
0.0368452
0.0309398
0.0256988
0.0210183
0.0169043
0.0133781
0.010613
0.00846203
0.00688023
0.00582798
0.00521891
0.00497376
0.00502523
0.00530872
0.00576546
0.00634665
0.00701406
0.00773987
0.00850439
0.009294
0.010099
0.0109122
0.0117274
0.0125395
0.0133436
0.014135
0.0149091
0.0156615
0.0163882
0.0170855
0.0177505
0.0183804
0.0189736
0.0195296
0.0200495
0.020536
0.0209941
0.021431
0.0218564
0.0222817
0.0227202
0.0231857
0.0236919
0.0242506
0.0248705
0.0255559
0.0263051
0.0271103
0.0279569
0.0288234
0.0296822
0.0304996
0.0312363
0.0318496
0.0322961
0.0325371
0.0325423
0.0322908
0.0317702
0.0309754
0.0299065
0.0285684
0.0269742
0.0251514
0.0231472
0.0210349
0.0189138
0.0168937
0.0150218
0.0132489
0.0114343
0.0094954
0.00756178
0.00581796
0.0043387
0.00312428
0.00216177
0.00143248
0.000909088
0.000552937
0.000322247
0.000179887
9.60943e-05
4.90379e-05
2.38433e-05
1.09998e-05
4.78854e-06
1.95516e-06
7.44773e-07
2.64682e-07
8.99256e-08
3.31632e-08
1.87649e-08
1.90632e-08
2.49417e-08
3.36016e-08
4.39697e-08
5.51013e-08
6.56476e-08
7.37358e-08
7.73186e-08
7.51e-08
6.75849e-08
5.68589e-08
4.53186e-08
3.46492e-08
2.5622e-08
1.83531e-08
1.27007e-08
8.46614e-09
5.42439e-09
3.3358e-09
1.96797e-09
1.11405e-09
6.0551e-10
3.16186e-10
1.58714e-10
7.66009e-11
3.55452e-11
1.58571e-11
6.79624e-12
2.79562e-12
1.10279e-12
4.16361e-13
1.50176e-13
5.17458e-14
1.70435e-14
5.37783e-15
1.63231e-15
4.77099e-16
1.33439e-16
3.48244e-17
7.82546e-18
1.0788e-18
-2.59619e-19
-3.22365e-19
-1.83273e-19
0.224862
0.22532
0.225918
0.226111
0.225921
0.225491
0.224863
0.224
0.222853
0.221412
0.219684
0.217669
0.215358
0.212742
0.209819
0.206598
0.20309
0.199312
0.195283
0.191022
0.186548
0.181877
0.177025
0.172003
0.166827
0.161518
0.156071
0.150466
0.144687
0.138726
0.13259
0.126288
0.119815
0.113162
0.106292
0.0991523
0.0916954
0.0839494
0.0759473
0.067811
0.0597642
0.0518977
0.0444929
0.0375639
0.0312008
0.0255329
0.0204381
0.0161331
0.0126342
0.00991303
0.00789393
0.00648971
0.005604
0.00514142
0.00501993
0.0051721
0.00553997
0.00607431
0.00673481
0.00749011
0.00831692
0.00919831
0.0101219
0.0110784
0.0120602
0.0130606
0.0140733
0.0150919
0.0161096
0.0171198
0.0181154
0.0190893
0.0200347
0.0209453
0.0218152
0.0226385
0.0234112
0.0241315
0.0247999
0.0254199
0.0259988
0.0265475
0.0270808
0.0276172
0.0281772
0.0287825
0.0294543
0.0302103
0.0310634
0.0320189
0.0330733
0.0342133
0.035415
0.0366444
0.0378566
0.0389962
0.0399989
0.0407962
0.0413233
0.0415279
0.0413758
0.0408509
0.0399487
0.0386669
0.0370009
0.0349597
0.0325895
0.0299631
0.0271491
0.0242669
0.0214854
0.0189073
0.0164776
0.0140042
0.0113954
0.00885394
0.00663737
0.00483737
0.00341621
0.00231826
0.0015059
0.000939489
0.000564848
0.000327405
0.000182859
9.82346e-05
5.06382e-05
2.49432e-05
1.16719e-05
5.15205e-06
2.12945e-06
8.19304e-07
2.93795e-07
1.0143e-07
3.94334e-08
2.49361e-08
2.75624e-08
3.74697e-08
5.17937e-08
6.94707e-08
8.93142e-08
1.09202e-07
1.25738e-07
1.34595e-07
1.32389e-07
1.19507e-07
1.00069e-07
7.90456e-08
5.9819e-08
4.37852e-08
3.10327e-08
2.1227e-08
1.39617e-08
8.80931e-09
5.32608e-09
3.08555e-09
1.71422e-09
9.1435e-10
4.6874e-10
2.31129e-10
1.09648e-10
5.00371e-11
2.19566e-11
9.25556e-12
3.74246e-12
1.44937e-12
5.3636e-13
1.89226e-13
6.36572e-14
2.04822e-14
6.33693e-15
1.9005e-15
5.55823e-16
1.57739e-16
4.24669e-17
1.00596e-17
1.54818e-18
-2.78438e-19
-4.20519e-19
-2.56535e-19
0.243236
0.243768
0.243811
0.243505
0.243068
0.242397
0.24141
0.240139
0.238573
0.236656
0.234347
0.231633
0.228516
0.22501
0.221135
0.216912
0.212371
0.207545
0.202471
0.19719
0.191747
0.186178
0.180515
0.174787
0.169007
0.163159
0.157232
0.151213
0.145071
0.138772
0.132307
0.125706
0.118999
0.112209
0.105342
0.0983664
0.0912118
0.0838276
0.0761762
0.0683372
0.0604335
0.0525686
0.0450164
0.0378082
0.0311961
0.025227
0.0200295
0.0156064
0.0121125
0.00946736
0.00756494
0.00628708
0.00552012
0.00516517
0.00514051
0.00538067
0.00583205
0.00645182
0.00720629
0.00807011
0.00902418
0.0100544
0.0111499
0.0123018
0.0135022
0.0147434
0.0160176
0.0173165
0.0186311
0.0199519
0.0212687
0.022571
0.023848
0.0250889
0.0262827
0.0274189
0.0284891
0.0294874
0.0304108
0.0312603
0.0320422
0.0327684
0.033457
0.0341317
0.0348212
0.0355572
0.0363722
0.0372968
0.0383557
0.0395648
0.0409284
0.0424367
0.0440653
0.0457737
0.047504
0.0491805
0.0507105
0.051989
0.0529114
0.053392
0.0533767
0.052846
0.0517982
0.0502347
0.0481431
0.0455185
0.0423941
0.0389058
0.035161
0.0312612
0.0274308
0.0238627
0.0205181
0.0171709
0.0137227
0.010444
0.00766055
0.00546744
0.00378575
0.00252056
0.00161159
0.000995332
0.000595702
0.00034541
0.000193958
0.000105297
5.50583e-05
2.75575e-05
1.30976e-05
5.85961e-06
2.44707e-06
9.48386e-07
3.42391e-07
1.20285e-07
4.96932e-08
3.49359e-08
4.11134e-08
5.72353e-08
8.03883e-08
1.09624e-07
1.43556e-07
1.79132e-07
2.10765e-07
2.30097e-07
2.29193e-07
2.07534e-07
1.72957e-07
1.3546e-07
1.01582e-07
7.37365e-08
5.18342e-08
3.5125e-08
2.28381e-08
1.42122e-08
8.45928e-09
4.81909e-09
2.6314e-09
1.37947e-09
6.952e-10
3.37063e-10
1.57247e-10
7.05578e-11
3.04297e-11
1.25998e-11
5.00075e-12
1.89867e-12
6.87843e-13
2.37247e-13
7.79817e-14
2.4578e-14
7.5055e-15
2.24801e-15
6.66673e-16
1.95051e-16
5.49267e-17
1.38671e-17
2.41856e-18
-2.61833e-19
-5.5625e-19
-3.61899e-19
0.263624
0.263603
0.262955
0.262326
0.261508
0.260409
0.258949
0.257061
0.254729
0.251962
0.248754
0.245087
0.240951
0.236351
0.231317
0.225894
0.220137
0.214113
0.207891
0.201534
0.195103
0.188646
0.182203
0.1758
0.169451
0.163133
0.156787
0.150376
0.143897
0.137349
0.130702
0.123951
0.117128
0.110272
0.10339
0.0964793
0.0895019
0.0823833
0.0750615
0.0675412
0.0598523
0.0521694
0.0446618
0.0374599
0.0307931
0.0247983
0.0195652
0.0152075
0.0117937
0.00923227
0.00741553
0.00622011
0.00553167
0.00525325
0.00530489
0.00562299
0.00615762
0.00687093
0.00773471
0.00872838
0.00983647
0.0110472
0.0123506
0.013738
0.0152009
0.0167308
0.0183183
0.0199536
0.0216257
0.0233227
0.0250315
0.0267377
0.0284251
0.0300762
0.0316748
0.0332072
0.0346595
0.0360197
0.0372796
0.0384362
0.0394934
0.0404632
0.0413662
0.0422312
0.043095
0.044
0.0449919
0.0461157
0.0474114
0.0489092
0.0506256
0.052559
0.0546871
0.0569638
0.0593172
0.061647
0.0638258
0.0657027
0.0671198
0.0679456
0.0680986
0.067559
0.0663341
0.0644363
0.0618464
0.0585384
0.0545
0.0498916
0.0449579
0.039796
0.0346323
0.0297776
0.0252511
0.0208163
0.0163829
0.0122717
0.00885655
0.00621483
0.00422904
0.00277323
0.00175684
0.00108203
0.000648764
0.000378373
0.000214667
0.000118254
6.28677e-05
3.19835e-05
1.54175e-05
6.9737e-06
2.93503e-06
1.14396e-06
4.16217e-07
1.49737e-07
6.62754e-08
5.09367e-08
6.21841e-08
8.74036e-08
1.23704e-07
1.7037e-07
2.2585e-07
2.86248e-07
3.43209e-07
3.81694e-07
3.84705e-07
3.49208e-07
2.8955e-07
2.2493e-07
1.67327e-07
1.2068e-07
8.43631e-08
5.67748e-08
3.65592e-08
2.24636e-08
1.31693e-08
7.37742e-09
3.95842e-09
2.03902e-09
1.00998e-09
4.81397e-10
2.20782e-10
9.73663e-11
4.12546e-11
1.67775e-11
6.53949e-12
2.43774e-12
8.66437e-13
2.92929e-13
9.44347e-14
2.93404e-14
8.93041e-15
2.70636e-15
8.24959e-16
2.51773e-16
7.46961e-17
2.00759e-17
3.92136e-18
-1.69661e-19
-7.39923e-19
-5.12444e-19
0.282944
0.282583
0.281945
0.281204
0.280045
0.278292
0.276037
0.273341
0.270172
0.266488
0.26222
0.257306
0.251733
0.245553
0.238871
0.231813
0.224505
0.217061
0.209586
0.202166
0.194863
0.187725
0.180769
0.173962
0.167294
0.160736
0.154203
0.14763
0.141013
0.134371
0.127677
0.120886
0.114018
0.107157
0.100341
0.0935589
0.0867726
0.0798998
0.0728667
0.0656475
0.0582848
0.050921
0.0436293
0.0366449
0.0301419
0.0242879
0.0191538
0.0149234
0.0116112
0.00912844
0.00737603
0.00623788
0.00560561
0.00538611
0.00550188
0.00589247
0.00651213
0.00732748
0.00831441
0.00945556
0.0107379
0.0121512
0.0136865
0.0153359
0.0170912
0.0189439
0.0208847
0.0229028
0.0249857
0.0271191
0.0292861
0.0314672
0.0336394
0.0357797
0.0378687
0.0398851
0.0418072
0.0436157
0.0452962
0.0468408
0.04825
0.049535
0.0507183
0.0518341
0.0529276
0.0540521
0.0552669
0.0566331
0.0582079
0.0600384
0.0621546
0.0645642
0.0672467
0.0701501
0.0731891
0.0762408
0.0791457
0.0817032
0.083687
0.0849003
0.0852239
0.0846442
0.0831932
0.0809138
0.0777877
0.0737224
0.0686813
0.0627582
0.0563563
0.0496987
0.0429529
0.0365342
0.0305749
0.0248547
0.0193112
0.0142941
0.0101948
0.00706172
0.0047418
0.00308069
0.00194773
0.00120448
0.00072773
0.000429145
0.000247111
0.000138458
7.48631e-05
3.86545e-05
1.88585e-05
8.60978e-06
3.65046e-06
1.43353e-06
5.28602e-07
1.96934e-07
9.39576e-08
7.71119e-08
9.52894e-08
1.33544e-07
1.89081e-07
2.61536e-07
3.49069e-07
4.47041e-07
5.43901e-07
6.13946e-07
6.2403e-07
5.66396e-07
4.66558e-07
3.59445e-07
2.65672e-07
1.90851e-07
1.33045e-07
8.91414e-08
5.69561e-08
3.4604e-08
2.00032e-08
1.10282e-08
5.81723e-09
2.94464e-09
1.43322e-09
6.71246e-10
3.02451e-10
1.31025e-10
5.45417e-11
2.18071e-11
8.3659e-12
3.07099e-12
1.07373e-12
3.56567e-13
1.13133e-13
3.48954e-14
1.06974e-14
3.31853e-15
1.04957e-15
3.35254e-16
1.04553e-16
2.96473e-17
6.32574e-18
4.70304e-20
-9.80488e-19
-7.23591e-19
0.302915
0.302495
0.301596
0.300247
0.298291
0.295767
0.292761
0.289205
0.28498
0.27998
0.274107
0.267355
0.259831
0.251708
0.24317
0.234388
0.225506
0.216655
0.207959
0.199523
0.191425
0.18372
0.176407
0.169395
0.162574
0.155897
0.149309
0.142747
0.136196
0.129667
0.123116
0.116491
0.109812
0.103133
0.0964889
0.089895
0.0833267
0.0767066
0.0699754
0.0631099
0.0561303
0.0491037
0.0421433
0.0354916
0.0292984
0.0236866
0.018754
0.0146935
0.0114977
0.00909613
0.00740336
0.00631393
0.00572796
0.00555755
0.00572951
0.00618799
0.00689141
0.00781029
0.00892379
0.0102174
0.0116809
0.0133067
0.0150883
0.0170199
0.0190949
0.0213053
0.0236416
0.0260916
0.0286403
0.0312689
0.0339548
0.0366729
0.0393983
0.0421038
0.0447579
0.0473312
0.0497967
0.0521298
0.0543111
0.0563275
0.0581747
0.0598607
0.0614088
0.0628576
0.0642593
0.065677
0.0671824
0.0688515
0.0707583
0.0729643
0.0755097
0.0784085
0.0816441
0.0851661
0.0888878
0.0926766
0.0963519
0.0996675
0.102312
0.103986
0.104497
0.103833
0.102091
0.0993741
0.0956968
0.090819
0.0846433
0.0772657
0.0691386
0.0607463
0.0522347
0.0440359
0.0364397
0.029271
0.0224918
0.0164837
0.0116406
0.00798353
0.00531863
0.00344987
0.00219389
0.00137099
0.000838983
0.000502389
0.000294452
0.000167949
9.2246e-05
4.82627e-05
2.38077e-05
1.0976e-05
4.69911e-06
1.86843e-06
7.04811e-07
2.75828e-07
1.42252e-07
1.21712e-07
1.4912e-07
2.05961e-07
2.8948e-07
3.99707e-07
5.33757e-07
6.85465e-07
8.40494e-07
9.57385e-07
9.77185e-07
8.8399e-07
7.21918e-07
5.50677e-07
4.04545e-07
2.90443e-07
2.0272e-07
1.35609e-07
8.61138e-08
5.17797e-08
2.95336e-08
1.60375e-08
8.32617e-09
4.14736e-09
1.98611e-09
9.14895e-10
4.0526e-10
1.72561e-10
7.06492e-11
2.78274e-11
1.05341e-11
3.81421e-12
1.31176e-12
4.27959e-13
1.34171e-13
4.1438e-14
1.29231e-14
4.13383e-15
1.35963e-15
4.52715e-16
1.47029e-16
4.34101e-17
9.85584e-18
4.24398e-19
-1.28874e-18
-1.01134e-18
0.322838
0.322107
0.32081
0.318963
0.316425
0.313211
0.30929
0.304556
0.298929
0.292314
0.284676
0.276131
0.26687
0.257097
0.247002
0.236747
0.226472
0.216323
0.206444
0.196958
0.187948
0.17949
0.171604
0.164169
0.15703
0.150153
0.14351
0.137008
0.130594
0.12424
0.117869
0.11143
0.104959
0.098507
0.0921005
0.0857479
0.0794254
0.073076
0.0666587
0.0601444
0.053532
0.0468902
0.0403934
0.0341695
0.0283417
0.0230055
0.0183333
0.0144718
0.0114127
0.00910506
0.00747734
0.00643529
0.00588929
0.00575856
0.0059766
0.00649332
0.00727204
0.00828783
0.0095242
0.010971
0.0126219
0.0144731
0.0165209
0.0187607
0.021186
0.0237876
0.0265534
0.0294678
0.0325117
0.035662
0.0388923
0.0421744
0.0454799
0.0487757
0.0520263
0.0551988
0.0582642
0.0611958
0.0639702
0.0665691
0.0689811
0.0712065
0.0732617
0.0751812
0.0770167
0.0788351
0.0807152
0.0827427
0.0850037
0.0875745
0.0905127
0.0938534
0.0975987
0.101708
0.1061
0.11064
0.115123
0.119257
0.122646
0.124856
0.125593
0.124826
0.122742
0.119513
0.115212
0.109514
0.102101
0.0931352
0.0831054
0.0727445
0.0623238
0.0521972
0.042819
0.0341014
0.0259931
0.0188968
0.0132273
0.00900667
0.00598935
0.00390883
0.00251733
0.00159718
0.000993321
0.000605398
0.00036144
0.000209736
0.000116903
6.19207e-05
3.0904e-05
1.44197e-05
6.25982e-06
2.5382e-06
9.9129e-07
4.13483e-07
2.30172e-07
2.0116e-07
2.40356e-07
3.234e-07
4.47235e-07
6.11878e-07
8.10675e-07
1.03433e-06
1.26825e-06
1.4492e-06
1.47948e-06
1.331e-06
1.07622e-06
8.11772e-07
5.9188e-07
4.24674e-07
2.97521e-07
1.99294e-07
1.26072e-07
7.51445e-08
4.23283e-08
2.26496e-08
1.15781e-08
5.6792e-09
2.67872e-09
1.21515e-09
5.29857e-10
2.2212e-10
8.96485e-11
3.48804e-11
1.30515e-11
4.65943e-12
1.57462e-12
5.0585e-13
1.57864e-13
4.92577e-14
1.5726e-14
5.19512e-15
1.77031e-15
6.09386e-16
2.03647e-16
6.17117e-17
1.45495e-17
9.47503e-19
-1.68142e-18
-1.38942e-18
0.342895
0.342078
0.340511
0.338133
0.334856
0.330755
0.325786
0.319883
0.312941
0.304848
0.295687
0.28567
0.274976
0.263809
0.252358
0.240772
0.229196
0.2178
0.206756
0.196206
0.18625
0.17696
0.168349
0.160351
0.152837
0.145681
0.138818
0.132161
0.125663
0.119293
0.112963
0.106619
0.100275
0.0939652
0.0877202
0.0815509
0.0754366
0.0693358
0.0632128
0.0570431
0.0508403
0.0446776
0.0386625
0.0328445
0.0273358
0.0222863
0.0178947
0.0142488
0.0113456
0.00914669
0.00759055
0.00659476
0.00608156
0.00597961
0.00623156
0.00679468
0.00763885
0.00874509
0.0101023
0.0117052
0.0135509
0.0156376
0.0179619
0.0205181
0.0232972
0.0262867
0.0294717
0.0328345
0.0363545
0.0400077
0.0437666
0.0475988
0.0514712
0.0553552
0.0592194
0.0630301
0.0667553
0.0703657
0.0738358
0.0771428
0.0802686
0.0832022
0.0859452
0.0885163
0.0909553
0.0933232
0.0956979
0.0981689
0.100833
0.103791
0.107136
0.110933
0.115206
0.119926
0.125007
0.130315
0.135614
0.140552
0.144669
0.147425
0.148433
0.147595
0.145082
0.141173
0.135958
0.129233
0.120546
0.109922
0.0979288
0.0854769
0.0730554
0.0609482
0.0497077
0.0393897
0.0299188
0.0216781
0.015111
0.010263
0.00684925
0.00452065
0.00295815
0.00190855
0.00120717
0.000748856
0.000455014
0.000268279
0.000151647
8.13647e-05
4.11498e-05
1.94974e-05
8.62886e-06
3.59898e-06
1.47375e-06
6.62188e-07
3.95295e-07
3.47533e-07
4.0018e-07
5.18736e-07
6.99028e-07
9.40641e-07
1.22791e-06
1.54503e-06
1.88071e-06
2.14213e-06
2.17609e-06
1.94156e-06
1.55509e-06
1.16205e-06
8.40793e-07
6.01094e-07
4.21448e-07
2.82241e-07
1.77925e-07
1.05356e-07
5.87501e-08
3.10327e-08
1.56364e-08
7.55689e-09
3.51139e-09
1.56883e-09
6.73789e-10
2.78522e-10
1.11106e-10
4.28062e-11
1.5843e-11
5.57393e-12
1.85402e-12
5.90169e-13
1.84843e-13
5.86121e-14
1.91912e-14
6.5321e-15
2.2911e-15
8.07386e-16
2.74336e-16
8.41732e-17
2.01661e-17
1.51328e-18
-2.18871e-18
-1.86553e-18
0.363614
0.362555
0.360604
0.357678
0.353748
0.34894
0.343124
0.336187
0.328031
0.318624
0.308159
0.296865
0.284936
0.272569
0.259937
0.247187
0.234481
0.222007
0.209954
0.198474
0.187657
0.177564
0.168221
0.159595
0.151568
0.143994
0.136775
0.129818
0.12305
0.116421
0.109888
0.103427
0.0970373
0.0907303
0.0845196
0.0784089
0.0723837
0.0664143
0.0604784
0.0545626
0.0486725
0.0428514
0.0371233
0.0315631
0.0263223
0.0215733
0.0174635
0.014046
0.0113134
0.00923386
0.0077523
0.00679953
0.00631061
0.00622585
0.00649879
0.0070955
0.00799363
0.0091806
0.0106505
0.0124012
0.0144317
0.0167397
0.0193203
0.0221658
0.0252657
0.0286074
0.0321767
0.0359561
0.039924
0.0440553
0.0483224
0.0526923
0.0571316
0.0616162
0.0661157
0.0705948
0.0750211
0.0793658
0.0836031
0.0877081
0.0916565
0.0954269
0.0990057
0.102393
0.105612
0.108706
0.111745
0.114818
0.118033
0.121514
0.125381
0.129718
0.134554
0.139868
0.145564
0.151498
0.157439
0.163031
0.167803
0.171213
0.172732
0.171988
0.168987
0.164185
0.157789
0.149678
0.139571
0.127279
0.113294
0.0987048
0.0842632
0.0702239
0.0571215
0.0451955
0.034375
0.0249829
0.0174715
0.0119172
0.0080224
0.00536874
0.00356973
0.00233947
0.00150291
0.00094743
0.000584852
0.000349939
0.000200577
0.000109165
5.608e-05
2.70894e-05
1.22969e-05
5.32315e-06
2.30924e-06
1.12156e-06
7.10314e-07
6.21804e-07
6.85411e-07
8.49151e-07
1.10681e-06
1.4565e-06
1.86422e-06
2.29966e-06
2.75785e-06
3.10791e-06
3.1254e-06
2.75831e-06
2.1896e-06
1.62635e-06
1.17007e-06
8.31192e-07
5.79779e-07
3.86238e-07
2.41632e-07
1.42081e-07
7.86212e-08
4.11106e-08
2.04643e-08
9.76005e-09
4.47194e-09
1.969e-09
8.33728e-10
3.40485e-10
1.3456e-10
5.13995e-11
1.8814e-11
6.52828e-12
2.14685e-12
6.81888e-13
2.1555e-13
6.96403e-14
2.33677e-14
8.15749e-15
2.92086e-15
1.04262e-15
3.55997e-16
1.0916e-16
2.60515e-17
1.91527e-18
-2.85563e-18
-2.44008e-18
0.38527
0.384049
0.381812
0.378428
0.373868
0.368262
0.361526
0.353579
0.34435
0.333893
0.322407
0.310093
0.297161
0.283831
0.270297
0.256722
0.24326
0.230074
0.21733
0.205156
0.193639
0.182846
0.172804
0.163479
0.154788
0.146629
0.138884
0.131447
0.124233
0.117177
0.110239
0.103402
0.0966664
0.0900476
0.0835586
0.0771973
0.0709621
0.064843
0.0588277
0.0529026
0.0470609
0.0413071
0.0356742
0.0302995
0.0253443
0.0209203
0.0171039
0.0139263
0.0113721
0.00941371
0.00800277
0.00708431
0.00660652
0.00652262
0.00679789
0.00740798
0.00833868
0.00958349
0.0111405
0.0130099
0.0151912
0.0176826
0.0204796
0.0235755
0.0269615
0.0306251
0.0345482
0.0387069
0.043075
0.047627
0.0523397
0.0571948
0.062174
0.0672397
0.0723588
0.0775034
0.0826464
0.0877635
0.0928311
0.0978225
0.102706
0.107445
0.112008
0.116374
0.120541
0.124533
0.128403
0.13224
0.136161
0.140281
0.144733
0.149613
0.154952
0.160738
0.166896
0.173287
0.179718
0.185905
0.191425
0.195724
0.198014
0.197488
0.193993
0.188181
0.180516
0.170845
0.159088
0.145084
0.129131
0.112347
0.09584
0.0799478
0.0650614
0.0515622
0.0394444
0.0289402
0.020457
0.0141059
0.00961915
0.00653398
0.00440899
0.0029298
0.00190811
0.00121994
0.000763774
0.000463403
0.000269469
0.00014905
7.80352e-05
3.8577e-05
1.80715e-05
8.18167e-06
3.78167e-06
1.97781e-06
1.31247e-06
1.13723e-06
1.19851e-06
1.41484e-06
1.77526e-06
2.27322e-06
2.83917e-06
3.41522e-06
4.00657e-06
4.43842e-06
4.39999e-06
3.83663e-06
3.02027e-06
2.23373e-06
1.59968e-06
1.12627e-06
7.76616e-07
5.11718e-07
3.16132e-07
1.83998e-07
1.01115e-07
5.24901e-08
2.5883e-08
1.22064e-08
5.52394e-09
2.4013e-09
1.00489e-09
4.06563e-10
1.59462e-10
6.03988e-11
2.18668e-11
7.50192e-12
2.45177e-12
7.81175e-13
2.50054e-13
8.23715e-14
2.82484e-14
1.00477e-14
3.63787e-15
1.30109e-15
4.41417e-16
1.33535e-16
3.10792e-17
1.84943e-18
-3.72652e-18
-3.10069e-18
0.408403
0.407013
0.404423
0.400549
0.395394
0.389103
0.381609
0.372827
0.362714
0.351339
0.338897
0.325628
0.31178
0.297603
0.283318
0.269101
0.255101
0.241457
0.228302
0.215746
0.203867
0.192691
0.182209
0.172377
0.16313
0.154375
0.146001
0.13789
0.129941
0.122106
0.114367
0.106728
0.099204
0.091824
0.0846187
0.0776135
0.0708219
0.0642405
0.0578622
0.0516734
0.0456569
0.0398377
0.0343164
0.0292094
0.0245904
0.0205028
0.0169817
0.0140362
0.0116488
0.00979546
0.00843611
0.00752989
0.00703764
0.0069259
0.00717174
0.00776071
0.00868674
0.00994901
0.0115495
0.0134911
0.0157761
0.0184053
0.0213771
0.0246845
0.0283136
0.0322417
0.0364387
0.040873
0.0455182
0.0503592
0.0553948
0.0606251
0.0660362
0.071603
0.0773025
0.0831117
0.0890035
0.0949528
0.100937
0.106931
0.112894
0.118776
0.124516
0.130065
0.135386
0.140476
0.145363
0.150121
0.154858
0.15969
0.164752
0.170174
0.176039
0.182363
0.189087
0.196082
0.203162
0.210041
0.216283
0.221276
0.224103
0.22368
0.219659
0.212748
0.203659
0.192297
0.178671
0.162915
0.145183
0.126375
0.107811
0.0901137
0.0735503
0.0585372
0.0451827
0.033606
0.0241367
0.0169169
0.0117231
0.0080844
0.00553005
0.00372161
0.00245424
0.00158913
0.00100797
0.000620094
0.000366226
0.000206327
0.000110471
5.61456e-05
2.72668e-05
1.29763e-05
6.39434e-06
3.5702e-06
2.45333e-06
2.09859e-06
2.12122e-06
2.38787e-06
2.87437e-06
3.56524e-06
4.32646e-06
5.05679e-06
5.77715e-06
6.25564e-06
6.08819e-06
5.24024e-06
4.09231e-06
3.01214e-06
2.14434e-06
1.49168e-06
1.01126e-06
6.55267e-07
3.98531e-07
2.28798e-07
1.24765e-07
6.44412e-08
3.15738e-08
1.47605e-08
6.6111e-09
2.84416e-09
1.1797e-09
4.73956e-10
1.84646e-10
6.93569e-11
2.48713e-11
8.46889e-12
2.76447e-12
8.87135e-13
2.88103e-13
9.66619e-14
3.37223e-14
1.21251e-14
4.39595e-15
1.55893e-15
5.19879e-16
1.53145e-16
3.38959e-17
9.89739e-19
-4.82323e-18
-3.81466e-18
0.43355
0.432005
0.429123
0.424869
0.419216
0.412288
0.404086
0.394559
0.383684
0.371548
0.358338
0.344269
0.329575
0.314518
0.299366
0.284373
0.269748
0.255648
0.242186
0.229434
0.217427
0.206168
0.195607
0.185651
0.176186
0.167071
0.158165
0.14935
0.140544
0.131709
0.122845
0.113991
0.105212
0.0965874
0.0881955
0.0801027
0.0723471
0.0649502
0.0579232
0.0512661
0.0449892
0.0391374
0.0337653
0.0289053
0.0245657
0.020749
0.0174578
0.0146816
0.0124041
0.0106019
0.00924353
0.00829971
0.00774249
0.00755096
0.0077134
0.0082252
0.00908836
0.010308
0.0118907
0.0138432