/*--------------------------------*- C++ -*----------------------------------*\
  =========                 |
  \\      /  F ield         | OpenFOAM: The Open Source CFD Toolbox
   \\    /   O peration     | Website:  https://openfoam.org
    \\  /    A nd           | Version:  10
     \\/     M anipulation  |
\*---------------------------------------------------------------------------*/
FoamFile
{
    format      ascii;
    class       surfaceScalarField;
    location    "1.07";
    object      phi;
}
// * * * * * * * * * * * * * * * * * * * * * * * * * * * * * * * * * * * * * //

dimensions      [0 3 -1 0 0 0 0];

internalField   nonuniform List<scalar> 
24170
(
1.41141e-09
-1.41141e-09
2.62055e-09
-1.20914e-09
3.57962e-09
-9.59069e-10
4.30698e-09
-7.27356e-10
4.84958e-09
-5.42606e-10
5.25813e-09
-4.0855e-10
5.57635e-09
-3.18217e-10
5.83872e-09
-2.62376e-10
6.07192e-09
-2.33198e-10
6.29736e-09
-2.25439e-10
6.53411e-09
-2.36746e-10
6.80217e-09
-2.68065e-10
7.12717e-09
-3.24994e-10
7.54893e-09
-4.21769e-10
8.14221e-09
-5.93273e-10
9.08009e-09
-9.3788e-10
1.08991e-08
-1.819e-09
-5.19586e-09
1.6095e-08
1.6123e-09
-3.02371e-09
2.98718e-09
-2.58402e-09
4.07063e-09
-2.04252e-09
4.88624e-09
-1.54296e-09
5.48999e-09
-1.14635e-09
5.94115e-09
-8.59717e-10
6.29022e-09
-6.67286e-10
6.5766e-09
-5.48758e-10
6.83047e-09
-4.87063e-10
7.0758e-09
-4.70774e-10
7.3337e-09
-4.9464e-10
7.62594e-09
-5.60305e-10
7.97981e-09
-6.78866e-10
8.43637e-09
-8.78332e-10
9.06802e-09
-1.22491e-09
1.002e-08
-1.88989e-09
1.15891e-08
-3.38812e-09
-7.45432e-09
1.38476e-08
1.80996e-09
-4.83368e-09
3.34385e-09
-4.1179e-09
4.54221e-09
-3.24088e-09
5.43589e-09
-2.43664e-09
6.09132e-09
-1.80179e-09
6.57691e-09
-1.3453e-09
6.94983e-09
-1.04021e-09
7.25407e-09
-8.53004e-10
7.52287e-09
-7.55855e-10
7.78221e-09
-7.30119e-10
8.0545e-09
-7.66932e-10
8.36216e-09
-8.67966e-10
8.73198e-09
-1.04868e-09
9.20131e-09
-1.34766e-09
9.82754e-09
-1.85114e-09
1.0695e-08
-2.75735e-09
1.18466e-08
-4.53968e-09
-8.21853e-09
1.26108e-08
2.02945e-09
-6.86313e-09
3.73467e-09
-5.82312e-09
5.05132e-09
-4.55753e-09
6.02115e-09
-3.40646e-09
6.72414e-09
-2.50478e-09
7.23955e-09
-1.86071e-09
7.63197e-09
-1.43263e-09
7.95009e-09
-1.17112e-09
8.22997e-09
-1.03573e-09
8.49923e-09
-9.9938e-10
8.78091e-09
-1.04861e-09
9.09694e-09
-1.184e-09
9.47148e-09
-1.42321e-09
9.93391e-09
-1.8101e-09
1.05186e-08
-2.43579e-09
1.12436e-08
-3.48237e-09
1.19908e-08
-5.2869e-09
-8.27502e-09
1.20473e-08
2.28464e-09
-9.14777e-09
4.18185e-09
-7.72033e-09
5.62349e-09
-5.99917e-09
6.66798e-09
-4.45095e-09
7.4136e-09
-3.25041e-09
7.95309e-09
-2.4002e-09
8.3595e-09
-1.83904e-09
8.68643e-09
-1.49805e-09
8.97257e-09
-1.32188e-09
9.24669e-09
-1.27349e-09
9.5317e-09
-1.33363e-09
9.84787e-09
-1.50016e-09
1.02147e-08
-1.79009e-09
1.06508e-08
-2.24612e-09
1.1165e-08
-2.95002e-09
1.17231e-08
-4.04046e-09
1.21416e-08
-5.70543e-09
-8.01538e-09
1.1882e-08
2.59074e-09
-1.17385e-08
4.70804e-09
-9.83762e-09
6.28253e-09
-7.57367e-09
7.39835e-09
-5.56677e-09
8.17898e-09
-4.03103e-09
8.73418e-09
-2.9554e-09
9.14684e-09
-2.25169e-09
9.47563e-09
-1.82685e-09
9.76158e-09
-1.60783e-09
1.0034e-08
-1.54588e-09
1.03148e-08
-1.61444e-09
1.06214e-08
-1.80681e-09
1.09674e-08
-2.13608e-09
1.13591e-08
-2.63781e-09
1.17834e-08
-3.37432e-09
1.21747e-08
-4.43172e-09
1.23489e-08
-5.87964e-09
-7.62492e-09
1.19584e-08
2.96824e-09
-1.47067e-08
5.34203e-09
-1.22114e-08
7.05675e-09
-9.28839e-09
8.23654e-09
-6.74657e-09
9.04e-09
-4.83449e-09
9.59859e-09
-3.514e-09
1.00065e-08
-2.65965e-09
1.03277e-08
-2.14804e-09
1.06049e-08
-1.88504e-09
1.08672e-08
-1.80816e-09
1.11347e-08
-1.88194e-09
1.1421e-08
-2.09313e-09
1.17329e-08
-2.44794e-09
1.20654e-08
-2.97033e-09
1.23897e-08
-3.69863e-09
1.2629e-08
-4.67098e-09
1.26306e-08
-5.88125e-09
-7.18734e-09
1.2193e-08
3.44693e-09
-1.81537e-08
6.12352e-09
-1.4888e-08
7.9828e-09
-1.11477e-08
9.21205e-09
-7.97582e-09
1.00192e-08
-5.6416e-09
1.05632e-08
-4.05804e-09
1.09513e-08
-3.04772e-09
1.12522e-08
-2.44892e-09
1.15096e-08
-2.14244e-09
1.17513e-08
-2.04995e-09
1.19949e-08
-2.12548e-09
1.22493e-08
-2.34756e-09
1.25146e-08
-2.71326e-09
1.27771e-08
-3.23275e-09
1.29993e-08
-3.92089e-09
1.3108e-08
-4.77962e-09
1.29907e-08
-5.76404e-09
-6.73832e-09
1.25417e-08
4.07256e-09
-2.22262e-08
7.1096e-09
-1.7925e-08
9.11001e-09
-1.31481e-08
1.03621e-08
-9.22792e-09
1.11432e-08
-6.42267e-09
1.16469e-08
-4.5618e-09
1.19944e-08
-3.39519e-09
1.22583e-08
-2.71284e-09
1.2482e-08
-2.36612e-09
1.26908e-08
-2.25878e-09
1.28985e-08
-2.33313e-09
1.31092e-08
-2.55831e-09
1.33172e-08
-2.92121e-09
1.35026e-08
-3.41818e-09
1.36264e-08
-4.04472e-09
1.36267e-08
-4.77985e-09
1.3428e-08
-5.5654e-09
-6.29167e-09
1.29814e-08
4.91849e-09
-2.71447e-08
8.385e-09
-2.13915e-08
1.05061e-08
-1.52692e-08
1.17342e-08
-1.0456e-08
1.24439e-08
-7.13244e-09
1.2871e-08
-4.9889e-09
1.31502e-08
-3.67431e-09
1.33558e-08
-2.91849e-09
1.35287e-08
-2.53897e-09
1.369e-08
-2.42012e-09
1.38488e-08
-2.49195e-09
1.40044e-08
-2.71388e-09
1.41461e-08
-3.06286e-09
1.42512e-08
-3.52334e-09
1.42835e-08
-4.07706e-09
1.41953e-08
-4.69157e-09
1.394e-08
-5.31011e-09
-5.85145e-09
1.34998e-08
6.10805e-09
-3.32528e-08
1.00788e-08
-2.53623e-08
1.22646e-08
-1.7455e-08
1.33883e-08
-1.15797e-08
1.39585e-08
-7.70271e-09
1.42585e-08
-5.28885e-09
1.4433e-08
-3.84877e-09
1.45537e-08
-3.03927e-09
1.46554e-08
-2.64066e-09
1.4753e-08
-2.51765e-09
1.48494e-08
-2.58841e-09
1.4939e-08
-2.80351e-09
1.50076e-08
-3.1314e-09
1.5032e-08
-3.54771e-09
1.4981e-08
-4.02615e-09
1.48206e-08
-4.53109e-09
1.45243e-08
-5.01389e-09
-5.41753e-09
1.40904e-08
6.52269e-09
-3.97755e-08
1.0316e-08
-2.91555e-08
1.21154e-08
-1.92545e-08
1.28791e-08
-1.23433e-08
1.31744e-08
-7.99798e-09
1.32756e-08
-5.39011e-09
1.33055e-08
-3.87866e-09
1.33163e-08
-3.05008e-09
1.33284e-08
-2.65277e-09
1.33471e-08
-2.5363e-09
1.33692e-08
-2.61054e-09
1.33859e-08
-2.82016e-09
1.33829e-08
-3.12843e-09
1.33414e-08
-3.50626e-09
1.32397e-08
-3.92442e-09
1.30572e-08
-4.34858e-09
1.27819e-08
-4.73857e-09
-5.05335e-09
1.24177e-08
9.69843e-09
-4.94739e-08
1.45118e-08
-3.39689e-08
1.63204e-08
-2.10631e-08
1.68206e-08
-1.28435e-08
1.68411e-08
-8.0185e-09
1.67195e-08
-5.26849e-09
1.65801e-08
-3.73927e-09
1.64629e-08
-2.93286e-09
1.63752e-08
-2.56512e-09
1.63117e-08
-2.47274e-09
1.62608e-08
-2.55968e-09
1.62075e-08
-2.76683e-09
1.61335e-08
-3.05443e-09
1.60185e-08
-3.39126e-09
1.58423e-08
-3.74819e-09
1.55888e-08
-4.09512e-09
1.52516e-08
-4.4014e-09
-4.63967e-09
1.4838e-08
1.56633e-08
-6.51372e-08
2.14318e-08
-3.97374e-08
2.26123e-08
-2.22436e-08
2.23291e-08
-1.25604e-08
2.17328e-08
-7.42217e-09
2.11704e-08
-4.7061e-09
2.07195e-08
-3.28833e-09
2.03767e-08
-2.59006e-09
2.01183e-08
-2.30674e-09
1.99177e-08
-2.27211e-09
1.97492e-08
-2.39117e-09
1.95884e-08
-2.60607e-09
1.9412e-08
-2.87806e-09
1.91983e-08
-3.17753e-09
1.89289e-08
-3.47883e-09
1.85921e-08
-3.75828e-09
1.81854e-08
-3.99471e-09
-4.17161e-09
1.77173e-08
2.86584e-08
-9.37957e-08
3.37072e-08
-4.47862e-08
3.23269e-08
-2.08632e-08
3.0106e-08
-1.03395e-08
2.82594e-08
-5.57554e-09
2.68986e-08
-3.34529e-09
2.59208e-08
-2.31057e-09
2.5213e-08
-1.88222e-09
2.46867e-08
-1.78051e-09
2.42769e-08
-1.86232e-09
2.39347e-08
-2.04894e-09
2.36219e-08
-2.29328e-09
2.33081e-08
-2.56419e-09
2.29691e-08
-2.83854e-09
2.25878e-08
-3.09755e-09
2.2155e-08
-3.32553e-09
2.16704e-08
-3.5101e-09
-3.64304e-09
2.11419e-08
6.32562e-08
-1.57052e-07
5.67944e-08
-3.83244e-08
4.72677e-08
-1.13365e-08
4.08049e-08
-3.87666e-09
3.6713e-08
-1.48371e-09
3.40744e-08
-7.06666e-10
3.23096e-08
-5.458e-10
3.10792e-08
-6.51771e-10
3.018e-08
-8.81366e-10
2.94853e-08
-1.16758e-09
2.89116e-08
-1.47521e-09
2.84016e-08
-1.78334e-09
2.79153e-08
-2.07789e-09
2.74249e-08
-2.34816e-09
2.6913e-08
-2.58559e-09
2.6371e-08
-2.78355e-09
2.57985e-08
-2.93763e-09
-3.04597e-09
2.52015e-08
1.83471e-07
1.59263e-07
9.74091e-08
4.77378e-08
6.71667e-08
1.89059e-08
5.37816e-08
9.50841e-09
4.67374e-08
5.56047e-09
4.256e-08
3.47079e-09
3.98646e-08
2.14956e-09
3.80073e-08
1.20553e-09
3.66507e-08
4.75214e-10
3.56003e-08
-1.17177e-10
3.47335e-08
-6.08414e-10
3.39758e-08
-1.02566e-09
3.32781e-08
-1.38017e-09
3.26082e-08
-1.67822e-09
3.19464e-08
-1.92378e-09
3.12826e-08
-2.11978e-09
3.0614e-08
-2.26905e-09
-2.37486e-09
2.99429e-08
7.72711e-08
8.19919e-08
7.55646e-08
4.94443e-08
6.56156e-08
2.88549e-08
5.76735e-08
1.74505e-08
5.22079e-08
1.10261e-08
4.84841e-08
7.19452e-09
4.58801e-08
4.75366e-09
4.39866e-08
3.09893e-09
4.25461e-08
1.91576e-09
4.13959e-08
1.03299e-09
4.04345e-08
3.53026e-10
3.95876e-08
-1.78717e-10
3.88045e-08
-5.97088e-10
3.8058e-08
-9.31715e-10
3.73317e-08
-1.19749e-09
3.6617e-08
-1.40513e-09
3.59109e-08
-1.56295e-09
-1.67792e-09
3.5214e-08
3.60095e-08
4.59824e-08
5.02163e-08
3.52375e-08
5.39425e-08
2.51288e-08
5.38143e-08
1.75787e-08
5.25393e-08
1.2301e-08
5.10841e-08
8.64969e-09
4.97453e-08
6.09252e-09
4.85803e-08
4.26386e-09
4.75703e-08
2.9258e-09
4.6678e-08
1.92533e-09
4.58675e-08
1.16344e-09
4.51137e-08
5.75128e-10
4.44001e-08
1.16459e-10
4.37073e-08
-2.38904e-10
4.30254e-08
-5.15602e-10
4.2351e-08
-7.3066e-10
4.16835e-08
-8.9545e-10
-1.01891e-09
4.10245e-08
1.43609e-08
3.16215e-08
2.33626e-08
2.62358e-08
2.81833e-08
2.0308e-08
3.05493e-08
1.52127e-08
3.16152e-08
1.12352e-08
3.20191e-08
8.24577e-09
3.20886e-08
6.02299e-09
3.19863e-08
4.3662e-09
3.17914e-08
3.12063e-09
3.15427e-08
2.17409e-09
3.1259e-08
1.44716e-09
3.09502e-08
8.83921e-10
3.06219e-08
4.44748e-10
3.02817e-08
1.0131e-10
2.99309e-08
-1.64835e-10
2.95713e-08
-3.71019e-10
2.92061e-08
-5.30277e-10
-6.51439e-10
2.88386e-08
8.60361e-09
2.30179e-08
1.50091e-08
1.98303e-08
1.92604e-08
1.60567e-08
2.19327e-08
1.25404e-08
2.35707e-08
9.59716e-09
2.45591e-08
7.25736e-09
2.51415e-08
5.44062e-09
2.54657e-08
4.04197e-09
2.56207e-08
2.96561e-09
2.56606e-08
2.13425e-09
2.5619e-08
1.48876e-09
2.55179e-08
9.85034e-10
2.53722e-08
5.90401e-10
2.51929e-08
2.80647e-10
2.49904e-08
3.76698e-11
2.47696e-08
-1.50249e-10
2.45353e-08
-2.95995e-10
-4.08098e-10
2.4292e-08
5.80321e-09
1.72147e-08
1.04978e-08
1.51357e-08
1.39687e-08
1.25859e-08
1.64159e-08
1.00932e-08
1.81022e-08
7.91091e-09
1.92508e-08
6.10874e-09
2.00256e-08
4.66576e-09
2.05398e-08
3.52784e-09
2.08694e-08
2.636e-09
2.10659e-08
1.93771e-09
2.11646e-08
1.39013e-09
2.11899e-08
9.59681e-10
2.11597e-08
6.20596e-10
2.10871e-08
3.53219e-10
2.09823e-08
1.42541e-10
2.08547e-08
-2.26437e-11
2.07088e-08
-1.50165e-10
-2.4913e-10
2.05499e-08
4.21953e-09
1.29951e-08
7.79064e-09
1.15646e-08
1.05988e-08
9.77768e-09
1.27135e-08
7.97851e-09
1.42681e-08
6.35633e-09
1.53954e-08
4.98142e-09
1.62048e-08
3.85638e-09
1.67791e-08
2.95353e-09
1.7179e-08
2.23609e-09
1.74484e-08
1.66833e-09
1.76191e-08
1.21943e-09
1.77145e-08
8.64318e-10
1.77519e-08
5.83157e-10
1.77446e-08
3.60494e-10
1.77028e-08
1.84335e-10
1.76348e-08
4.53546e-11
1.75476e-08
-6.29377e-11
-1.46906e-10
1.74454e-08
3.22349e-09
9.77163e-09
6.02537e-09
8.76273e-09
8.3135e-09
7.48955e-09
1.01086e-08
6.18341e-09
1.14825e-08
4.98243e-09
1.25178e-08
3.94616e-09
1.3289e-08
3.08515e-09
1.38571e-08
2.38539e-09
1.42696e-08
1.82361e-09
1.45626e-08
1.37539e-09
1.47633e-08
1.0187e-09
1.48926e-08
7.35051e-10
1.49662e-08
5.09502e-10
1.49965e-08
3.30204e-10
1.4993e-08
1.87839e-10
1.49633e-08
7.50891e-11
1.49139e-08
-1.36157e-11
-8.22548e-11
1.48493e-08
2.54611e-09
7.22552e-09
4.79644e-09
6.5124e-09
6.67907e-09
5.60692e-09
8.1959e-09
4.66658e-09
9.38788e-09
3.79045e-09
1.03089e-08
3.0251e-09
1.10118e-08
2.3823e-09
1.15421e-08
1.8551e-09
1.1937e-08
1.42865e-09
1.22261e-08
1.0863e-09
1.24323e-08
8.12476e-10
1.25736e-08
5.9381e-10
1.26638e-08
4.19307e-10
1.27138e-08
2.8014e-10
1.27324e-08
1.693e-10
1.27262e-08
8.12418e-11
1.2701e-08
1.15811e-11
-4.2593e-11
1.26614e-08
2.05707e-09
5.16845e-09
3.89497e-09
4.6745e-09
5.45712e-09
4.04478e-09
6.73823e-09
3.38547e-09
7.76301e-09
2.76566e-09
8.56853e-09
2.21959e-09
9.19336e-09
1.75746e-09
9.67251e-09
1.37595e-09
1.00355e-08
1.06563e-09
1.03065e-08
8.15344e-10
1.05046e-08
6.14365e-10
1.06451e-08
4.53325e-10
1.074e-08
3.24426e-10
1.07988e-08
2.21347e-10
1.0829e-08
1.39031e-10
1.08368e-08
7.34521e-11
1.0827e-08
2.1403e-11
-1.93526e-11
1.08038e-08
1.68677e-09
3.48168e-09
3.20469e-09
3.15657e-09
4.50857e-09
2.7409e-09
5.59072e-09
2.30332e-09
6.46694e-09
1.88944e-09
7.16387e-09
1.52266e-09
7.71075e-09
1.21058e-09
8.13497e-09
9.51732e-10
8.46029e-09
7.40317e-10
8.70644e-09
5.69189e-10
8.88946e-09
4.31346e-10
9.02219e-09
3.2059e-10
9.1149e-09
2.31716e-10
9.17577e-09
1.60476e-10
9.21135e-09
1.03454e-10
9.22688e-09
5.79167e-11
9.22661e-09
2.16788e-11
-6.86871e-12
9.21413e-09
1.39467e-09
2.08701e-09
2.65585e-09
1.89539e-09
3.74689e-09
1.64986e-09
4.6598e-09
1.39042e-09
5.40523e-09
1.14401e-09
6.00313e-09
9.24754e-10
6.47622e-09
7.37494e-10
6.84632e-09
5.81632e-10
7.1327e-09
4.53938e-10
7.3516e-09
3.50289e-10
7.51635e-09
2.66588e-10
7.63777e-09
1.99179e-10
7.72451e-09
1.44971e-10
7.78356e-09
1.01427e-10
7.82051e-09
6.6502e-11
7.83988e-09
3.85524e-11
7.84529e-09
1.62613e-11
-1.38304e-12
7.83981e-09
1.15402e-09
9.3299e-10
2.20106e-09
8.4835e-10
3.11123e-09
7.3969e-10
3.87708e-09
6.24572e-10
4.50616e-09
5.14927e-10
5.01383e-09
4.17084e-10
5.41803e-09
3.33293e-10
5.73629e-09
2.63373e-10
5.98428e-09
2.05954e-10
6.17532e-09
1.59244e-10
6.32046e-09
1.21447e-10
6.42869e-09
9.09481e-11
6.50729e-09
6.63766e-11
6.56211e-09
4.66045e-11
6.59789e-09
3.07181e-11
6.61846e-09
1.79825e-11
6.62692e-09
7.80652e-12
-2.6381e-13
6.6258e-09
9.3299e-10
1.78134e-09
2.52103e-09
3.1456e-09
3.66053e-09
4.07761e-09
4.41091e-09
4.67428e-09
4.88023e-09
5.03948e-09
5.16092e-09
5.25187e-09
5.31825e-09
5.36485e-09
5.39557e-09
5.41355e-09
5.42136e-09
5.4211e-09
3.01801e-10
-3.01801e-10
6.05203e-10
-3.03402e-10
9.09716e-10
-3.04513e-10
1.21483e-09
-3.05111e-10
1.52e-09
-3.05177e-10
1.8247e-09
-3.04692e-10
2.12834e-09
-3.03642e-10
2.43035e-09
-3.02015e-10
2.73016e-09
-2.99807e-10
3.02718e-09
-2.97016e-10
3.32083e-09
-2.93649e-10
3.61054e-09
-2.89715e-10
3.89577e-09
-2.85232e-10
4.17599e-09
-2.8022e-10
4.4507e-09
-2.74707e-10
4.71942e-09
-2.68723e-10
4.98173e-09
-2.62305e-10
5.23722e-09
-2.55495e-10
5.48556e-09
-2.48337e-10
5.72644e-09
-2.40879e-10
5.95961e-09
-2.33172e-10
6.18488e-09
-2.25269e-10
6.4021e-09
-2.17222e-10
6.61118e-09
-2.09083e-10
6.81209e-09
-2.00905e-10
7.00482e-09
-1.92735e-10
7.18944e-09
-1.84619e-10
7.36604e-09
-1.76598e-10
7.53475e-09
-1.6871e-10
7.69574e-09
-1.60987e-10
7.84919e-09
-1.53456e-10
7.99533e-09
-1.46139e-10
8.13439e-09
-1.39054e-10
8.2666e-09
-1.32213e-10
8.39223e-09
-1.25626e-10
8.51152e-09
-1.19298e-10
8.62475e-09
-1.1323e-10
8.73218e-09
-1.07422e-10
8.83405e-09
-1.0187e-10
8.93062e-09
-9.65708e-11
9.02213e-09
-9.15169e-11
9.10883e-09
-8.6701e-11
9.19095e-09
-8.21148e-11
9.2687e-09
-7.77496e-11
9.34229e-09
-7.35957e-11
9.41194e-09
-6.96441e-11
9.47782e-09
-6.58852e-11
9.54013e-09
-6.23096e-11
9.59904e-09
-5.89079e-11
9.65471e-09
-5.56716e-11
9.70731e-09
-5.25917e-11
9.75697e-09
-4.96601e-11
9.80383e-09
-4.68686e-11
9.84804e-09
-4.421e-11
9.88972e-09
-4.16769e-11
9.92898e-09
-3.92624e-11
9.96594e-09
-3.69605e-11
1.00007e-08
-3.47646e-11
1.00334e-08
-3.26696e-11
1.0064e-08
-3.06698e-11
1.00928e-08
-2.87602e-11
1.01197e-08
-2.69364e-11
1.01449e-08
-2.51939e-11
1.01685e-08
-2.35283e-11
1.01904e-08
-2.1936e-11
1.02108e-08
-2.04134e-11
1.02298e-08
-1.89569e-11
1.02473e-08
-1.75635e-11
1.02636e-08
-1.62304e-11
1.02785e-08
-1.49541e-11
1.02923e-08
-1.37328e-11
1.03048e-08
-1.25634e-11
1.03163e-08
-1.14438e-11
1.03266e-08
-1.03717e-11
1.0336e-08
-9.34496e-12
1.03443e-08
-8.36176e-12
1.03518e-08
-7.42003e-12
1.03583e-08
-6.51817e-12
1.03639e-08
-5.65418e-12
1.03688e-08
-4.82674e-12
1.03728e-08
-4.0341e-12
1.03761e-08
-3.2748e-12
1.03786e-08
-2.5476e-12
1.03805e-08
-1.85098e-12
1.03816e-08
-1.18374e-12
1.03822e-08
-5.4444e-13
1.03821e-08
6.78137e-14
1.03815e-08
6.54454e-13
1.03803e-08
1.21639e-12
1.03785e-08
1.75466e-12
1.03762e-08
2.27049e-12
1.03735e-08
2.76466e-12
1.03702e-08
3.23831e-12
1.03665e-08
3.69204e-12
1.03624e-08
4.12713e-12
1.03579e-08
4.54412e-12
1.03529e-08
4.94383e-12
1.03476e-08
5.32733e-12
1.03419e-08
5.69508e-12
1.03358e-08
6.048e-12
1.03295e-08
6.38661e-12
1.03228e-08
6.71187e-12
1.03157e-08
7.02404e-12
1.03084e-08
7.32424e-12
1.03008e-08
7.61257e-12
1.02929e-08
7.89002e-12
1.02847e-08
8.15695e-12
1.02763e-08
8.41398e-12
1.02677e-08
8.66156e-12
1.02588e-08
8.90025e-12
1.02496e-08
9.13056e-12
1.02403e-08
9.35293e-12
1.02307e-08
9.5677e-12
1.02209e-08
9.7754e-12
1.0211e-08
9.97643e-12
1.02008e-08
1.01713e-11
1.01904e-08
1.036e-11
1.01799e-08
1.05435e-11
1.01692e-08
1.07215e-11
1.01583e-08
1.08949e-11
1.01472e-08
1.10635e-11
1.0136e-08
1.1228e-11
1.01246e-08
1.13885e-11
1.0113e-08
1.15454e-11
1.01013e-08
1.16989e-11
1.00895e-08
1.1849e-11
1.00775e-08
1.19964e-11
1.00654e-08
1.2141e-11
1.00531e-08
1.22832e-11
1.00407e-08
1.24232e-11
1.00281e-08
1.2561e-11
1.00154e-08
1.26971e-11
1.00026e-08
1.28313e-11
9.9896e-09
1.29642e-11
9.97651e-09
1.30957e-11
9.96328e-09
1.32261e-11
9.94993e-09
1.33553e-11
9.93644e-09
1.3484e-11
9.92283e-09
1.36119e-11
9.90909e-09
1.37392e-11
9.89522e-09
1.38663e-11
9.88123e-09
1.39931e-11
9.86711e-09
1.41201e-11
9.85286e-09
1.42473e-11
9.83849e-09
1.4375e-11
9.82398e-09
1.45034e-11
9.80935e-09
1.46328e-11
9.79459e-09
1.47635e-11
9.77969e-09
1.48962e-11
9.76466e-09
1.50311e-11
9.74949e-09
1.51687e-11
9.73418e-09
1.53101e-11
9.71873e-09
1.54561e-11
9.70312e-09
1.56077e-11
9.68735e-09
1.57666e-11
9.67142e-09
1.59345e-11
9.6553e-09
1.61139e-11
9.639e-09
1.63077e-11
9.62248e-09
1.65198e-11
9.60572e-09
1.6755e-11
9.5887e-09
1.70201e-11
9.57138e-09
1.73231e-11
9.5537e-09
1.7675e-11
9.53561e-09
1.80901e-11
9.51703e-09
1.85873e-11
9.49783e-09
1.91918e-11
9.4779e-09
1.99372e-11
9.45703e-09
2.08696e-11
9.43497e-09
2.20525e-11
9.4114e-09
2.3575e-11
9.38583e-09
2.55652e-11
9.35762e-09
2.82125e-11
9.32582e-09
3.18069e-11
9.289e-09
3.68149e-11
9.24497e-09
4.40337e-11
9.19002e-09
5.49459e-11
9.11737e-09
7.26527e-11
9.01251e-09
1.04856e-10
8.83623e-09
1.76282e-10
4.01012e-10
8.43522e-09
3.03975e-10
-6.05775e-10
6.09559e-10
-6.08987e-10
9.16261e-10
-6.11214e-10
1.22356e-09
-6.1241e-10
1.53091e-09
-6.12531e-10
1.83776e-09
-6.11535e-10
2.1435e-09
-6.09389e-10
2.44756e-09
-6.06071e-10
2.74932e-09
-6.01568e-10
3.04818e-09
-5.95882e-10
3.34356e-09
-5.89025e-10
3.63487e-09
-5.81021e-10
3.92154e-09
-5.71904e-10
4.20304e-09
-5.61717e-10
4.47885e-09
-5.50516e-10
4.74849e-09
-5.38365e-10
5.01152e-09
-5.2534e-10
5.26755e-09
-5.11526e-10
5.51623e-09
-4.97014e-10
5.75726e-09
-4.81905e-10
5.99039e-09
-4.66303e-10
6.21544e-09
-4.50316e-10
6.43227e-09
-4.34053e-10
6.6408e-09
-4.17621e-10
6.84102e-09
-4.01125e-10
7.03295e-09
-3.84663e-10
7.21666e-09
-3.68329e-10
7.39227e-09
-3.52205e-10
7.55993e-09
-3.36366e-10
7.71981e-09
-3.20874e-10
7.87214e-09
-3.05784e-10
8.01714e-09
-2.91137e-10
8.15505e-09
-2.76968e-10
8.28614e-09
-2.63299e-10
8.41066e-09
-2.50148e-10
8.52888e-09
-2.37521e-10
8.64108e-09
-2.25422e-10
8.7475e-09
-2.13847e-10
8.84842e-09
-2.02789e-10
8.94409e-09
-1.92236e-10
9.03475e-09
-1.82176e-10
9.12064e-09
-1.72592e-10
9.20199e-09
-1.63466e-10
9.27902e-09
-1.54781e-10
9.35194e-09
-1.46518e-10
9.42096e-09
-1.38658e-10
9.48625e-09
-1.31181e-10
9.54801e-09
-1.24068e-10
9.6064e-09
-1.17302e-10
9.6616e-09
-1.10863e-10
9.71374e-09
-1.04736e-10
9.76298e-09
-9.8903e-11
9.80946e-09
-9.33484e-11
9.85331e-09
-8.80574e-11
9.89465e-09
-8.30156e-11
9.9336e-09
-7.82098e-11
9.97026e-09
-7.36268e-11
1.00048e-08
-6.92551e-11
1.00372e-08
-6.50832e-11
1.00676e-08
-6.11005e-11
1.00961e-08
-5.72973e-11
1.01229e-08
-5.36643e-11
1.01479e-08
-5.01925e-11
1.01712e-08
-4.68741e-11
1.0193e-08
-4.37011e-11
1.02132e-08
-4.06668e-11
1.0232e-08
-3.7764e-11
1.02495e-08
-3.49868e-11
1.02656e-08
-3.23288e-11
1.02804e-08
-2.97849e-11
1.0294e-08
-2.73495e-11
1.03065e-08
-2.50179e-11
1.03178e-08
-2.27854e-11
1.03281e-08
-2.06472e-11
1.03373e-08
-1.85998e-11
1.03456e-08
-1.66387e-11
1.03529e-08
-1.47605e-11
1.03594e-08
-1.29612e-11
1.0365e-08
-1.1238e-11
1.03697e-08
-9.58718e-12
1.03737e-08
-8.00597e-12
1.03769e-08
-6.49118e-12
1.03794e-08
-5.0403e-12
1.03812e-08
-3.65027e-12
1.03823e-08
-2.31879e-12
1.03828e-08
-1.04322e-12
1.03827e-08
1.78527e-13
1.0382e-08
1.34921e-12
1.03808e-08
2.47052e-12
1.0379e-08
3.54495e-12
1.03767e-08
4.57434e-12
1.03739e-08
5.56072e-12
1.03706e-08
6.50587e-12
1.03669e-08
7.41171e-12
1.03628e-08
8.27997e-12
1.03582e-08
9.11232e-12
1.03532e-08
9.9105e-12
1.03479e-08
1.06758e-11
1.03422e-08
1.14101e-11
1.03361e-08
1.21145e-11
1.03297e-08
1.27907e-11
1.0323e-08
1.34398e-11
1.03159e-08
1.40633e-11
1.03086e-08
1.46625e-11
1.0301e-08
1.52384e-11
1.02931e-08
1.57924e-11
1.02849e-08
1.63254e-11
1.02765e-08
1.68387e-11
1.02678e-08
1.73331e-11
1.02589e-08
1.78099e-11
1.02497e-08
1.82697e-11
1.02404e-08
1.87138e-11
1.02308e-08
1.91428e-11
1.0221e-08
1.95578e-11
1.0211e-08
1.99593e-11
1.02009e-08
2.03484e-11
1.01905e-08
2.07258e-11
1.01799e-08
2.10919e-11
1.01692e-08
2.14478e-11
1.01583e-08
2.1794e-11
1.01473e-08
2.21311e-11
1.0136e-08
2.24598e-11
1.01246e-08
2.27805e-11
1.01131e-08
2.30939e-11
1.01014e-08
2.34005e-11
1.00895e-08
2.37009e-11
1.00775e-08
2.39953e-11
1.00654e-08
2.42844e-11
1.00531e-08
2.45686e-11
1.00407e-08
2.48482e-11
1.00281e-08
2.51238e-11
1.00154e-08
2.53957e-11
1.00026e-08
2.56641e-11
9.98962e-09
2.59297e-11
9.97652e-09
2.61927e-11
9.96329e-09
2.64531e-11
9.94994e-09
2.67119e-11
9.93645e-09
2.69688e-11
9.92284e-09
2.72244e-11
9.9091e-09
2.74791e-11
9.89523e-09
2.77332e-11
9.88124e-09
2.79868e-11
9.86712e-09
2.82407e-11
9.85287e-09
2.84949e-11
9.83849e-09
2.87502e-11
9.82399e-09
2.90069e-11
9.80936e-09
2.92656e-11
9.79459e-09
2.9527e-11
9.7797e-09
2.9792e-11
9.76467e-09
3.00615e-11
9.7495e-09
3.03367e-11
9.73419e-09
3.06193e-11
9.71874e-09
3.09107e-11
9.70313e-09
3.12137e-11
9.68737e-09
3.15309e-11
9.67143e-09
3.18662e-11
9.65532e-09
3.22241e-11
9.63902e-09
3.26106e-11
9.62251e-09
3.30335e-11
9.60576e-09
3.35025e-11
9.58875e-09
3.40306e-11
9.57144e-09
3.46339e-11
9.55378e-09
3.53344e-11
9.53571e-09
3.61604e-11
9.51715e-09
3.7149e-11
9.49799e-09
3.83503e-11
9.4781e-09
3.9831e-11
9.45728e-09
4.16821e-11
9.43531e-09
4.40286e-11
9.41184e-09
4.70465e-11
9.38641e-09
5.09873e-11
9.3584e-09
5.62213e-11
9.3269e-09
6.33142e-11
9.29055e-09
7.31673e-11
9.24727e-09
8.73042e-11
9.19372e-09
1.08504e-10
9.12399e-09
1.42376e-10
9.02698e-09
2.01867e-10
8.881e-09
3.22268e-10
6.16426e-10
8.66558e-09
3.08329e-10
-9.14104e-10
6.18293e-10
-9.18951e-10
9.294e-10
-9.22321e-10
1.24112e-09
-9.24131e-10
1.55289e-09
-9.24299e-10
1.8641e-09
-9.2275e-10
2.17414e-09
-9.19424e-10
2.48235e-09
-9.14281e-10
2.78809e-09
-9.07305e-10
3.09071e-09
-8.98505e-10
3.38959e-09
-8.87906e-10
3.68412e-09
-8.75549e-10
3.9737e-09
-8.61489e-10
4.25778e-09
-8.45794e-10
4.53581e-09
-8.28549e-10
4.8073e-09
-8.09856e-10
5.0718e-09
-7.89834e-10
5.32889e-09
-7.68618e-10
5.57823e-09
-7.46352e-10
5.81952e-09
-7.23196e-10
6.05253e-09
-6.99313e-10
6.27708e-09
-6.74874e-10
6.49308e-09
-6.50049e-10
6.70047e-09
-6.25008e-10
6.89926e-09
-5.99912e-10
7.08951e-09
-5.74916e-10
7.27134e-09
-5.5016e-10
7.4449e-09
-5.25769e-10
7.61039e-09
-5.01855e-10
7.76803e-09
-4.7851e-10
7.91805e-09
-4.5581e-10
8.06073e-09
-4.33815e-10
8.19633e-09
-4.1257e-10
8.32514e-09
-3.92106e-10
8.44743e-09
-3.72441e-10
8.5635e-09
-3.53583e-10
8.6736e-09
-3.35531e-10
8.77803e-09
-3.18275e-10
8.87705e-09
-3.01802e-10
8.9709e-09
-2.86092e-10
9.05985e-09
-2.71122e-10
9.14412e-09
-2.56866e-10
9.22395e-09
-2.43296e-10
9.29955e-09
-2.30384e-10
9.37114e-09
-2.18101e-10
9.4389e-09
-2.06417e-10
9.50302e-09
-1.95303e-10
9.56368e-09
-1.84731e-10
9.62105e-09
-1.74672e-10
9.67529e-09
-1.65101e-10
9.72654e-09
-1.55991e-10
9.77496e-09
-1.47316e-10
9.82066e-09
-1.39055e-10
9.86379e-09
-1.31184e-10
9.90446e-09
-1.23683e-10
9.94278e-09
-1.16531e-10
9.97886e-09
-1.09709e-10
1.00128e-08
-1.032e-10
1.00447e-08
-9.69878e-11
1.00747e-08
-9.10561e-11
1.01028e-08
-8.53904e-11
1.01291e-08
-7.9977e-11
1.01537e-08
-7.48031e-11
1.01767e-08
-6.98567e-11
1.01981e-08
-6.51265e-11
1.0218e-08
-6.06018e-11
1.02365e-08
-5.62727e-11
1.02537e-08
-5.21302e-11
1.02695e-08
-4.81651e-11
1.02841e-08
-4.43694e-11
1.02975e-08
-4.07354e-11
1.03097e-08
-3.72556e-11
1.03209e-08
-3.39231e-11
1.03309e-08
-3.07316e-11
1.034e-08
-2.76747e-11
1.03481e-08
-2.47467e-11
1.03553e-08
-2.1942e-11
1.03616e-08
-1.92552e-11
1.0367e-08
-1.66814e-11
1.03717e-08
-1.42157e-11
1.03755e-08
-1.18537e-11
1.03786e-08
-9.5909e-12
1.0381e-08
-7.42313e-12
1.03827e-08
-5.34645e-12
1.03837e-08
-3.35704e-12
1.03841e-08
-1.45103e-12
1.0384e-08
3.74905e-13
1.03832e-08
2.12424e-12
1.03818e-08
3.80034e-12
1.038e-08
5.40603e-12
1.03776e-08
6.94472e-12
1.03748e-08
8.41911e-12
1.03714e-08
9.83201e-12
1.03677e-08
1.11863e-11
1.03635e-08
1.24844e-11
1.03588e-08
1.37289e-11
1.03538e-08
1.49222e-11
1.03484e-08
1.60667e-11
1.03427e-08
1.71645e-11
1.03366e-08
1.82181e-11
1.03301e-08
1.92293e-11
1.03234e-08
2.02002e-11
1.03163e-08
2.11329e-11
1.03089e-08
2.2029e-11
1.03013e-08
2.28906e-11
1.02934e-08
2.37193e-11
1.02852e-08
2.45167e-11
1.02767e-08
2.52847e-11
1.0268e-08
2.60246e-11
1.02591e-08
2.67378e-11
1.02499e-08
2.74261e-11
1.02406e-08
2.80907e-11
1.0231e-08
2.87328e-11
1.02212e-08
2.93538e-11
1.02112e-08
2.9955e-11
1.0201e-08
3.05375e-11
1.01906e-08
3.11023e-11
1.01801e-08
3.16508e-11
1.01693e-08
3.21836e-11
1.01584e-08
3.27019e-11
1.01473e-08
3.32068e-11
1.01361e-08
3.3699e-11
1.01247e-08
3.41793e-11
1.01132e-08
3.46489e-11
1.01014e-08
3.51081e-11
1.00896e-08
3.5558e-11
1.00776e-08
3.59992e-11
1.00654e-08
3.64322e-11
1.00531e-08
3.68581e-11
1.00407e-08
3.72772e-11
1.00281e-08
3.76901e-11
1.00154e-08
3.80975e-11
1.00026e-08
3.85e-11
9.98964e-09
3.8898e-11
9.97654e-09
3.92919e-11
9.96332e-09
3.96825e-11
9.94996e-09
4.00702e-11
9.93647e-09
4.04555e-11
9.92286e-09
4.08387e-11
9.90911e-09
4.12204e-11
9.89525e-09
4.16012e-11
9.88125e-09
4.19815e-11
9.86713e-09
4.2362e-11
9.85288e-09
4.27432e-11
9.83851e-09
4.31258e-11
9.824e-09
4.35105e-11
9.80937e-09
4.38982e-11
9.79461e-09
4.42901e-11
9.77971e-09
4.46871e-11
9.76468e-09
4.50909e-11
9.74952e-09
4.55032e-11
9.73421e-09
4.59262e-11
9.71876e-09
4.63627e-11
9.70316e-09
4.68161e-11
9.6874e-09
4.72907e-11
9.67147e-09
4.7792e-11
9.65537e-09
4.83269e-11
9.63907e-09
4.89043e-11
9.62257e-09
4.95355e-11
9.60584e-09
5.02351e-11
9.58885e-09
5.1022e-11
9.57156e-09
5.19207e-11
9.55393e-09
5.29631e-11
9.5359e-09
5.41911e-11
9.51739e-09
5.56599e-11
9.4983e-09
5.7443e-11
9.47849e-09
5.96389e-11
9.45779e-09
6.23814e-11
9.43596e-09
6.58539e-11
9.4127e-09
7.03137e-11
9.38756e-09
7.61272e-11
9.35995e-09
8.3831e-11
9.32903e-09
9.42369e-11
9.29357e-09
1.08625e-10
9.25175e-09
1.29118e-10
9.20078e-09
1.59479e-10
9.13622e-09
2.06937e-10
9.05133e-09
2.86755e-10
8.93943e-09
4.34164e-10
7.31768e-10
8.82409e-09
3.14845e-10
-1.22895e-09
6.31389e-10
-1.2355e-09
9.49164e-10
-1.2401e-09
1.26764e-09
-1.2426e-09
1.5862e-09
-1.24286e-09
1.90419e-09
-1.24074e-09
2.22088e-09
-1.23611e-09
2.53553e-09
-1.22893e-09
2.84741e-09
-1.21918e-09
3.15581e-09
-1.2069e-09
3.46006e-09
-1.19216e-09
3.75951e-09
-1.17501e-09
4.05355e-09
-1.15553e-09
4.34157e-09
-1.13381e-09
4.62299e-09
-1.10997e-09
4.89728e-09
-1.08415e-09
5.16396e-09
-1.05652e-09
5.42262e-09
-1.02728e-09
5.6729e-09
-9.96629e-10
5.9145e-09
-9.64804e-10
6.14723e-09
-9.32037e-10
6.37093e-09
-8.98571e-10
6.58553e-09
-8.64649e-10
6.79103e-09
-8.30511e-10
6.9875e-09
-7.96387e-10
7.17508e-09
-7.62488e-10
7.35392e-09
-7.29007e-10
7.52427e-09
-6.96113e-10
7.68636e-09
-6.63951e-10
7.84049e-09
-6.3264e-10
7.98695e-09
-6.02272e-10
8.12606e-09
-5.72919e-10
8.25812e-09
-5.44629e-10
8.38345e-09
-5.17434e-10
8.50235e-09
-4.91348e-10
8.61514e-09
-4.66371e-10
8.7221e-09
-4.42493e-10
8.82352e-09
-4.19697e-10
8.91968e-09
-3.97954e-10
9.01082e-09
-3.77236e-10
9.0972e-09
-3.57505e-10
9.17906e-09
-3.38725e-10
9.25662e-09
-3.20855e-10
9.33009e-09
-3.03857e-10
9.39968e-09
-2.87688e-10
9.46557e-09
-2.7231e-10
9.52795e-09
-2.57682e-10
9.58699e-09
-2.43766e-10
9.64284e-09
-2.30525e-10
9.69566e-09
-2.17922e-10
9.74559e-09
-2.05925e-10
9.79278e-09
-1.94499e-10
9.83734e-09
-1.83614e-10
9.87939e-09
-1.73241e-10
9.91906e-09
-1.63352e-10
9.95645e-09
-1.53921e-10
9.99167e-09
-1.44924e-10
1.00248e-08
-1.36336e-10
1.0056e-08
-1.28137e-10
1.00852e-08
-1.20306e-10
1.01126e-08
-1.12824e-10
1.01383e-08
-1.05673e-10
1.01624e-08
-9.88366e-11
1.01848e-08
-9.22992e-11
1.02057e-08
-8.6046e-11
1.02252e-08
-8.00629e-11
1.02433e-08
-7.43375e-11
1.026e-08
-6.88571e-11
1.02754e-08
-6.36108e-11
1.02896e-08
-5.85874e-11
1.03027e-08
-5.3777e-11
1.03146e-08
-4.91699e-11
1.03254e-08
-4.47574e-11
1.03352e-08
-4.05307e-11
1.0344e-08
-3.64816e-11
1.03519e-08
-3.26026e-11
1.03588e-08
-2.88867e-11
1.03649e-08
-2.53263e-11
1.03701e-08
-2.19154e-11
1.03746e-08
-1.86472e-11
1.03782e-08
-1.55163e-11
1.03812e-08
-1.25165e-11
1.03834e-08
-9.64233e-12
1.03849e-08
-6.88882e-12
1.03858e-08
-4.25041e-12
1.03861e-08
-1.72286e-12
1.03858e-08
6.99052e-13
1.03849e-08
3.01931e-12
1.03834e-08
5.2427e-12
1.03815e-08
7.37306e-12
1.0379e-08
9.41447e-12
1.0376e-08
1.13708e-11
1.03726e-08
1.32457e-11
1.03688e-08
1.50429e-11
1.03645e-08
1.67656e-11
1.03598e-08
1.84174e-11
1.03547e-08
2.00014e-11
1.03493e-08
2.15208e-11
1.03435e-08
2.29782e-11
1.03373e-08
2.4377e-11
1.03308e-08
2.57197e-11
1.0324e-08
2.7009e-11
1.03169e-08
2.82476e-11
1.03095e-08
2.94378e-11
1.03018e-08
3.05822e-11
1.02938e-08
3.16829e-11
1.02856e-08
3.27424e-11
1.02771e-08
3.37625e-11
1.02684e-08
3.47457e-11
1.02594e-08
3.56936e-11
1.02503e-08
3.66082e-11
1.02409e-08
3.74915e-11
1.02312e-08
3.83451e-11
1.02214e-08
3.91706e-11
1.02114e-08
3.99699e-11
1.02012e-08
4.07444e-11
1.01908e-08
4.14954e-11
1.01802e-08
4.22246e-11
1.01695e-08
4.29335e-11
1.01586e-08
4.3623e-11
1.01475e-08
4.42944e-11
1.01362e-08
4.49494e-11
1.01248e-08
4.55885e-11
1.01133e-08
4.62132e-11
1.01015e-08
4.68245e-11
1.00897e-08
4.74231e-11
1.00777e-08
4.80105e-11
1.00655e-08
4.85869e-11
1.00532e-08
4.91539e-11
1.00408e-08
4.97118e-11
1.00282e-08
5.02617e-11
1.00155e-08
5.08041e-11
1.00027e-08
5.13401e-11
9.98969e-09
5.18702e-11
9.97658e-09
5.23949e-11
9.96335e-09