/*--------------------------------*- C++ -*----------------------------------*\
  =========                 |
  \\      /  F ield         | OpenFOAM: The Open Source CFD Toolbox
   \\    /   O peration     | Website:  https://openfoam.org
    \\  /    A nd           | Version:  10
     \\/     M anipulation  |
\*---------------------------------------------------------------------------*/
FoamFile
{
    format      ascii;
    class       surfaceScalarField;
    location    "11500";
    object      phi;
}
// * * * * * * * * * * * * * * * * * * * * * * * * * * * * * * * * * * * * * //

dimensions      [0 3 -1 0 0 0 0];

internalField   nonuniform List<scalar> 
12640
(
-1.49212e-08
1.49212e-08
-2.99394e-08
1.50182e-08
-4.51543e-08
1.5215e-08
-6.06714e-08
1.55171e-08
-7.66051e-08
1.59336e-08
-9.30824e-08
1.64774e-08
-1.10249e-07
1.71661e-08
-1.28273e-07
1.8024e-08
-1.47356e-07
1.90836e-08
-1.67745e-07
2.03892e-08
-1.89747e-07
2.20017e-08
-2.13753e-07
2.40061e-08
-2.40278e-07
2.65246e-08
-2.70014e-07
2.97366e-08
-3.03931e-07
3.39166e-08
-3.43433e-07
3.95023e-08
-3.90664e-07
4.72303e-08
-4.49084e-07
5.84202e-08
-5.24664e-07
7.55808e-08
-6.27821e-07
1.03156e-07
-7.6043e-07
1.32609e-07
-4.49328e-07
-3.11102e-07
-5.77648e-06
5.32715e-06
-4.93874e-06
-8.37735e-07
-4.97287e-06
3.41273e-08
-5.35955e-06
3.86682e-07
-5.31556e-06
-4.39897e-08
-5.08474e-06
-2.30826e-07
-4.88637e-06
-1.98366e-07
-4.76552e-06
-1.20854e-07
-4.58917e-06
-1.76348e-07
-4.393e-06
-1.96167e-07
-4.22914e-06
-1.63865e-07
-3.99839e-06
-2.30743e-07
-3.67199e-06
-3.26402e-07
-3.21719e-06
-4.54808e-07
-2.61138e-06
-6.05805e-07
-1.85108e-06
-7.60298e-07
-9.62093e-07
-8.88989e-07
1.62352e-17
-9.62093e-07
9.62093e-07
-9.62093e-07
1.85108e-06
-8.88989e-07
2.61138e-06
-7.60298e-07
3.21719e-06
-6.05805e-07
3.67199e-06
-4.54808e-07
3.99839e-06
-3.26402e-07
4.22914e-06
-2.30743e-07
4.393e-06
-1.63865e-07
4.58917e-06
-1.96167e-07
4.76552e-06
-1.76348e-07
4.88637e-06
-1.20854e-07
5.08474e-06
-1.98366e-07
5.31556e-06
-2.30826e-07
5.35955e-06
-4.39897e-08
4.97287e-06
3.86682e-07
4.93874e-06
3.41273e-08
5.77648e-06
-8.37735e-07
4.49328e-07
5.32715e-06
7.6043e-07
-3.11102e-07
6.27821e-07
1.32609e-07
5.24664e-07
1.03156e-07
4.49084e-07
7.55808e-08
3.90664e-07
5.84202e-08
3.43433e-07
4.72303e-08
3.03931e-07
3.95023e-08
2.70014e-07
3.39166e-08
2.40278e-07
2.97366e-08
2.13753e-07
2.65246e-08
1.89747e-07
2.40061e-08
1.67745e-07
2.20017e-08
1.47356e-07
2.03892e-08
1.28273e-07
1.90836e-08
1.10249e-07
1.8024e-08
9.30824e-08
1.71661e-08
7.66051e-08
1.64774e-08
6.06714e-08
1.59336e-08
4.51543e-08
1.55171e-08
2.99394e-08
1.5215e-08
1.49212e-08
1.50182e-08
1.49212e-08
-1.63613e-08
3.12825e-08
-3.28289e-08
3.14858e-08
-4.9512e-08
3.18981e-08
-6.65261e-08
3.25312e-08
-8.39965e-08
3.3404e-08
-1.02062e-07
3.45433e-08
-1.20883e-07
3.59863e-08
-1.40642e-07
3.77836e-08
-1.61562e-07
4.00033e-08
-1.83911e-07
4.2738e-08
-2.08024e-07
4.6115e-08
-2.3433e-07
5.03123e-08
-2.6339e-07
5.55844e-08
-2.9596e-07
6.23065e-08
-3.33094e-07
7.10504e-08
-3.76319e-07
8.27277e-08
-4.27958e-07
9.88692e-08
-4.91751e-07
1.22213e-07
-5.74155e-07
1.57985e-07
-6.8721e-07
2.16211e-07
-8.61287e-07
3.06687e-07
-1.51922e-06
3.46833e-07
-1.27629e-06
5.08422e-06
-4.96383e-06
2.8498e-06
-5.17628e-06
2.46578e-07
-5.66037e-06
8.7077e-07
-5.62556e-06
-7.87944e-08
-5.38484e-06
-4.71543e-07
-5.18165e-06
-4.01557e-07
-5.06643e-06
-2.36078e-07
-4.88232e-06
-3.60457e-07
-4.6874e-06
-3.91089e-07
-4.51889e-06
-3.32372e-07
-4.28094e-06
-4.68698e-07
-3.94166e-06
-6.65683e-07
-3.4628e-06
-9.33663e-07
-2.81833e-06
-1.25028e-06
-2.0023e-06
-1.57633e-06
-1.04214e-06
-1.84915e-06
2.04643e-17
-2.00423e-06
1.04214e-06
-2.00423e-06
2.0023e-06
-1.84915e-06
2.81833e-06
-1.57633e-06
3.4628e-06
-1.25028e-06
3.94166e-06
-9.33663e-07
4.28094e-06
-6.65683e-07
4.51889e-06
-4.68698e-07
4.6874e-06
-3.32372e-07
4.88232e-06
-3.91089e-07
5.06643e-06
-3.60457e-07
5.18165e-06
-2.36078e-07
5.38484e-06
-4.01557e-07
5.62556e-06
-4.71543e-07
5.66037e-06
-7.87944e-08
5.17628e-06
8.7077e-07
4.96383e-06
2.46578e-07
1.27629e-06
2.8498e-06
1.51922e-06
5.08422e-06
8.61287e-07
3.46833e-07
6.8721e-07
3.06687e-07
5.74155e-07
2.16211e-07
4.91751e-07
1.57985e-07
4.27958e-07
1.22213e-07
3.76319e-07
9.88692e-08
3.33094e-07
8.27277e-08
2.9596e-07
7.10504e-08
2.6339e-07
6.23065e-08
2.3433e-07
5.55844e-08
2.08024e-07
5.03123e-08
1.83911e-07
4.6115e-08
1.61562e-07
4.2738e-08
1.40642e-07
4.00033e-08
1.20883e-07
3.77836e-08
1.02062e-07
3.59863e-08
8.39965e-08
3.45433e-08
6.65261e-08
3.3404e-08
4.9512e-08
3.25312e-08
3.28289e-08
3.18981e-08
1.63613e-08
3.14858e-08
3.12825e-08
-1.79339e-08
4.92163e-08
-3.5984e-08
4.95359e-08
-5.42698e-08
5.01839e-08
-7.29176e-08
5.11791e-08
-9.20643e-08
5.25507e-08
-1.11862e-07
5.43411e-08
-1.32484e-07
5.66085e-08
-1.54133e-07
5.94323e-08
-1.77049e-07
6.29191e-08
-2.01525e-07
6.7214e-08
-2.27926e-07
7.25162e-08
-2.56718e-07
7.9104e-08
-2.88508e-07
8.73751e-08
-3.24116e-07
9.79143e-08
-3.64678e-07
1.11612e-07
-4.11833e-07
1.29883e-07
-4.68061e-07
1.55096e-07
-5.3732e-07
1.91473e-07
-6.26419e-07
2.47084e-07
-7.48577e-07
3.38369e-07
-9.42387e-07
5.00496e-07
-1.4775e-06
8.8195e-07
-6.58282e-07
4.265e-06
-1.00104e-06
3.19256e-06
-5.25419e-06
4.49973e-06
-6.02208e-06
1.63866e-06
-6.00374e-06
-9.71353e-08
-5.74166e-06
-7.33624e-07
-5.53041e-06
-6.12806e-07
-5.43081e-06
-3.35679e-07
-5.23295e-06
-5.5832e-07
-5.05339e-06
-5.70648e-07
-4.88486e-06
-5.00902e-07
-4.6477e-06
-7.0586e-07
-4.30441e-06
-1.00897e-06
-3.80465e-06
-1.43343e-06
-3.11591e-06
-1.93901e-06
-2.22537e-06
-2.46688e-06
-1.16186e-06
-2.91266e-06
1.64739e-17
-3.16609e-06
1.16186e-06
-3.16609e-06
2.22537e-06
-2.91266e-06
3.11591e-06
-2.46688e-06
3.80465e-06
-1.93901e-06
4.30441e-06
-1.43343e-06
4.6477e-06
-1.00897e-06
4.88486e-06
-7.0586e-07
5.05339e-06
-5.00902e-07
5.23295e-06
-5.70648e-07
5.43081e-06
-5.5832e-07
5.53041e-06
-3.35679e-07
5.74166e-06
-6.12806e-07
6.00374e-06
-7.33624e-07
6.02208e-06
-9.71353e-08
5.25419e-06
1.63866e-06
1.00104e-06
4.49973e-06
6.58282e-07
3.19256e-06
1.4775e-06
4.265e-06
9.42387e-07
8.8195e-07
7.48577e-07
5.00496e-07
6.26419e-07
3.38369e-07
5.3732e-07
2.47084e-07
4.68061e-07
1.91473e-07
4.11833e-07
1.55096e-07
3.64678e-07
1.29883e-07
3.24116e-07
1.11612e-07
2.88508e-07
9.79143e-08
2.56718e-07
8.73751e-08
2.27926e-07
7.9104e-08
2.01525e-07
7.25162e-08
1.77049e-07
6.7214e-08
1.54133e-07
6.29191e-08
1.32484e-07
5.94323e-08
1.11862e-07
5.66085e-08
9.20643e-08
5.43411e-08
7.29176e-08
5.25507e-08
5.42698e-08
5.11791e-08
3.5984e-08
5.01839e-08
1.79339e-08
4.95359e-08
4.92163e-08
-1.96483e-08
6.88647e-08
-3.94236e-08
6.93111e-08
-5.94561e-08
7.02164e-08
-7.98836e-08
7.16066e-08
-1.00855e-07
7.35225e-08
-1.22537e-07
7.60229e-08
-1.45118e-07
7.91893e-08
-1.68817e-07
8.31315e-08
-1.93896e-07
8.79981e-08
-2.20673e-07
9.39906e-08
-2.49542e-07
1.01385e-07
-2.81006e-07
1.10568e-07
-3.15719e-07
1.22088e-07
-3.54557e-07
1.36753e-07
-3.98732e-07
1.55787e-07
-4.49975e-07
1.81127e-07
-5.10879e-07
2.16e-07
-5.85522e-07
2.66115e-07
-6.80795e-07
3.42357e-07
-8.0991e-07
4.67484e-07
-1.0074e-06
6.97989e-07
-1.38793e-06
1.26248e-06
-8.08813e-07
3.68588e-06
-9.42501e-07
3.32624e-06
-5.90406e-07
4.14764e-06
-6.11322e-06
7.16148e-06
-6.37268e-06
1.62321e-07
-6.11627e-06
-9.9003e-07
-5.90603e-06
-8.23045e-07
-5.84582e-06
-3.95898e-07
-5.62501e-06
-7.79128e-07
-5.48733e-06
-7.08329e-07
-5.32541e-06
-6.62814e-07
-5.10475e-06
-9.26522e-07
-4.77743e-06
-1.33628e-06
-4.26742e-06
-1.94344e-06
-3.53383e-06
-2.6726e-06
-2.54737e-06
-3.45334e-06
-1.33689e-06
-4.12314e-06
1.10797e-17
-4.50298e-06
1.33689e-06
-4.50298e-06
2.54737e-06
-4.12314e-06
3.53383e-06
-3.45334e-06
4.26742e-06
-2.6726e-06
4.77743e-06
-1.94344e-06
5.10475e-06
-1.33628e-06
5.32541e-06
-9.26522e-07
5.48733e-06
-6.62814e-07
5.62501e-06
-7.08329e-07
5.84582e-06
-7.79128e-07
5.90603e-06
-3.95898e-07
6.11627e-06
-8.23045e-07
6.37268e-06
-9.9003e-07
6.11322e-06
1.62321e-07
5.90406e-07
7.16148e-06
9.42501e-07
4.14764e-06
8.08813e-07
3.32624e-06
1.38793e-06
3.68588e-06
1.0074e-06
1.26248e-06
8.0991e-07
6.97989e-07
6.80795e-07
4.67484e-07
5.85522e-07
3.42357e-07
5.10879e-07
2.66115e-07
4.49975e-07
2.16e-07
3.98732e-07
1.81127e-07
3.54557e-07
1.55787e-07
3.15719e-07
1.36753e-07
2.81006e-07
1.22088e-07
2.49542e-07
1.10568e-07
2.20673e-07
1.01385e-07
1.93896e-07
9.39906e-08
1.68817e-07
8.79981e-08
1.45118e-07
8.31315e-08
1.22537e-07
7.91893e-08
1.00855e-07
7.60229e-08
7.98836e-08
7.35225e-08
5.94561e-08
7.16066e-08
3.94236e-08
7.02164e-08
1.96483e-08
6.93111e-08
6.88647e-08
-2.15139e-08
9.03785e-08
-4.31658e-08
9.09631e-08
-6.50979e-08
9.21485e-08
-8.74598e-08
9.39685e-08
-1.10414e-07
9.64765e-08
-1.3414e-07
9.97491e-08
-1.58843e-07
1.03892e-07
-1.8476e-07
1.09049e-07
-2.12174e-07
1.15412e-07
-2.41428e-07
1.23244e-07
-2.72944e-07
1.32902e-07
-3.07261e-07
1.44885e-07
-3.45075e-07
1.59902e-07
-3.87312e-07
1.7899e-07
-4.35242e-07
2.03716e-07
-4.90659e-07
2.36544e-07
-5.56199e-07
2.8154e-07
-6.35908e-07
3.45824e-07
-7.36362e-07
4.42811e-07
-8.69261e-07
6.00383e-07
-1.05825e-06
8.86975e-07
-1.32184e-06
1.52607e-06
-9.16877e-07
3.28092e-06
-9.66359e-07
3.37573e-06
-1.02123e-06
4.20251e-06
-2.73444e-07
6.41369e-06
-4.87092e-06
4.75979e-06
-6.35715e-06
4.96206e-07
-6.25975e-06
-9.20452e-07
-6.30499e-06
-3.50656e-07
-6.04558e-06
-1.03854e-06
-5.99903e-06
-7.54878e-07
-5.84709e-06
-8.14752e-07
-5.67102e-06
-1.1026e-06
-5.4006e-06
-1.6067e-06
-4.90128e-06
-2.44276e-06
-4.13187e-06
-3.442e-06
-3.02276e-06
-4.56245e-06
-1.59785e-06
-5.54805e-06
1.4705e-17
-6.10083e-06
1.59785e-06
-6.10083e-06
3.02276e-06
-5.54805e-06
4.13187e-06
-4.56245e-06
4.90128e-06
-3.442e-06
5.4006e-06
-2.44276e-06
5.67102e-06
-1.6067e-06
5.84709e-06
-1.1026e-06
5.99903e-06
-8.14752e-07
6.04558e-06
-7.54878e-07
6.30499e-06
-1.03854e-06
6.25975e-06
-3.50656e-07
6.35715e-06
-9.20452e-07
4.87092e-06
4.96206e-07
2.73444e-07
4.75979e-06
1.02123e-06
6.41369e-06
9.66359e-07
4.20251e-06
9.16877e-07
3.37573e-06
1.32184e-06
3.28092e-06
1.05825e-06
1.52607e-06
8.69261e-07
8.86975e-07
7.36362e-07
6.00383e-07
6.35908e-07
4.42811e-07
5.56199e-07
3.45824e-07
4.90659e-07
2.8154e-07
4.35242e-07
2.36544e-07
3.87312e-07
2.03716e-07
3.45075e-07
1.7899e-07
3.07261e-07
1.59902e-07
2.72944e-07
1.44885e-07
2.41428e-07
1.32902e-07
2.12174e-07
1.23244e-07
1.8476e-07
1.15412e-07
1.58843e-07
1.09049e-07
1.3414e-07
1.03892e-07
1.10414e-07
9.97491e-08
8.74598e-08
9.64765e-08
6.50979e-08
9.39685e-08
4.31658e-08
9.21485e-08
2.15139e-08
9.09631e-08
9.03785e-08
-2.35388e-08
1.13917e-07
-4.72274e-08
1.14652e-07
-7.12199e-08
1.16141e-07
-9.56785e-08
1.18427e-07
-1.20779e-07
1.21577e-07
-1.46716e-07
1.25686e-07
-1.7371e-07
1.30886e-07
-2.02016e-07
1.37356e-07
-2.31939e-07
1.45335e-07
-2.63843e-07
1.55148e-07
-2.9818e-07
1.67239e-07
-3.35517e-07
1.82222e-07
-3.76587e-07
2.00972e-07
-4.22353e-07
2.24756e-07
-4.74118e-07
2.55481e-07
-5.3369e-07
2.96116e-07
-6.03656e-07
3.51506e-07
-6.87828e-07
4.29996e-07
-7.91979e-07
5.46963e-07
-9.24906e-07
7.3331e-07
-1.09711e-06
1.05918e-06
-1.27519e-06
1.70415e-06
-9.96219e-07
3.00195e-06
-9.77645e-07
3.35715e-06
-9.00054e-07
4.12491e-06
-9.70137e-09
5.52334e-06
2.94376e-07
4.45572e-06
-1.96611e-06
2.75669e-06
-6.09708e-06
3.21051e-06
-6.7386e-06
2.90871e-07
-6.45281e-06
-1.32433e-06
-6.60436e-06
-6.03323e-07
-6.44348e-06
-9.75638e-07
-6.36586e-06
-1.18022e-06
-6.24227e-06
-1.73029e-06
-5.78547e-06
-2.89956e-06
-5.01644e-06
-4.21104e-06
-3.75302e-06
-5.82586e-06
-1.99946e-06
-7.30162e-06
4.2829e-18
-8.10029e-06
1.99946e-06
-8.10029e-06
3.75302e-06
-7.30162e-06
5.01644e-06
-5.82586e-06
5.78547e-06
-4.21104e-06
6.24227e-06
-2.89956e-06
6.36586e-06
-1.73029e-06
6.44348e-06
-1.18022e-06
6.60436e-06
-9.75638e-07
6.45281e-06
-6.03323e-07
6.7386e-06
-1.32433e-06
6.09708e-06
2.90871e-07
1.96611e-06
3.21051e-06
-2.94376e-07
2.75669e-06
9.70137e-09
4.45572e-06
9.00054e-07
5.52334e-06
9.77645e-07
4.12491e-06
9.96219e-07
3.35715e-06
1.27519e-06
3.00195e-06
1.09711e-06
1.70415e-06
9.24906e-07
1.05918e-06
7.91979e-07
7.3331e-07
6.87828e-07
5.46963e-07
6.03656e-07
4.29996e-07
5.3369e-07
3.51506e-07
4.74118e-07
2.96116e-07
4.22353e-07
2.55481e-07
3.76587e-07
2.24756e-07
3.35517e-07
2.00972e-07
2.9818e-07
1.82222e-07
2.63843e-07
1.67239e-07
2.31939e-07
1.55148e-07
2.02016e-07
1.45335e-07
1.7371e-07
1.37356e-07
1.46716e-07
1.30886e-07
1.20779e-07
1.25686e-07
9.56785e-08
1.21577e-07
7.12199e-08
1.18427e-07
4.72274e-08
1.16141e-07
2.35388e-08
1.14652e-07
1.13917e-07
-2.573e-08
1.39647e-07
-5.16219e-08
1.40544e-07
-7.7842e-08
1.42361e-07
-1.04565e-07
1.45151e-07
-1.31981e-07
1.48993e-07
-1.60299e-07
1.54003e-07
-1.89755e-07
1.60342e-07
-2.20621e-07
1.68222e-07
-2.53221e-07
1.77935e-07
-2.87942e-07
1.89868e-07
-3.25257e-07
2.04553e-07
-3.65759e-07
2.22724e-07
-4.10203e-07
2.45416e-07
-4.59569e-07
2.74123e-07
-5.15159e-07
3.11071e-07
-5.78733e-07
3.59689e-07
-6.52707e-07
4.2548e-07
-7.40423e-07
5.17712e-07
-8.46352e-07
6.52892e-07
-9.75445e-07
8.62403e-07
-1.12612e-06
1.20985e-06
-1.24328e-06
1.82131e-06
-1.05015e-06
2.80882e-06
-9.80385e-07
3.28739e-06
-8.19775e-07
3.9643e-06
-1.38462e-07
4.84203e-06
1.45624e-07
4.17163e-06
-1.81471e-07
3.08379e-06
-3.54546e-07
3.38359e-06
-4.19289e-06
4.12922e-06
-6.41138e-06
8.94154e-07
-7.24818e-06
2.33482e-07
-7.00237e-06
-1.22145e-06
-7.16488e-06
-1.01771e-06
-7.42409e-06
-1.47107e-06
-7.02456e-06
-3.29909e-06
-6.38219e-06
-4.85341e-06
-4.93784e-06
-7.27021e-06
-2.63826e-06
-9.60119e-06
7.90122e-18
-1.07385e-05
2.63826e-06
-1.07385e-05
4.93784e-06
-9.60119e-06
6.38219e-06
-7.27021e-06
7.02456e-06
-4.85341e-06
7.42409e-06
-3.29909e-06
7.16488e-06
-1.47107e-06
7.00237e-06
-1.01771e-06
7.24818e-06
-1.22145e-06
6.41138e-06
2.33482e-07
4.19289e-06
8.94154e-07
3.54546e-07
4.12922e-06
1.81471e-07
3.38359e-06
-1.45624e-07
3.08379e-06
1.38462e-07
4.17163e-06
8.19775e-07
4.84203e-06
9.80385e-07
3.9643e-06
1.05015e-06
3.28739e-06
1.24328e-06
2.80882e-06
1.12612e-06
1.82131e-06
9.75445e-07
1.20985e-06
8.46352e-07
8.62403e-07
7.40423e-07
6.52892e-07
6.52707e-07
5.17712e-07
5.78733e-07
4.2548e-07
5.15159e-07
3.59689e-07
4.59569e-07
3.11071e-07
4.10203e-07
2.74123e-07
3.65759e-07
2.45416e-07
3.25257e-07
2.22724e-07
2.87942e-07
2.04553e-07
2.53221e-07
1.89868e-07
2.20621e-07
1.77935e-07
1.89755e-07
1.68222e-07
1.60299e-07
1.60342e-07
1.31981e-07
1.54003e-07
1.04565e-07
1.48993e-07
7.7842e-08
1.45151e-07
5.16219e-08
1.42361e-07
2.573e-08
1.40544e-07
1.39647e-07
-2.80922e-08
1.67739e-07
-5.63584e-08
1.6881e-07
-8.49773e-08
1.7098e-07
-1.14137e-07
1.7431e-07
-1.44039e-07
1.78895e-07
-1.74907e-07
1.84872e-07
-2.06992e-07
1.92427e-07
-2.40584e-07
2.01814e-07
-2.76021e-07
2.13372e-07
-3.13707e-07
2.27554e-07
-3.54133e-07
2.44979e-07
-3.97905e-07
2.66497e-07
-4.45786e-07
2.93296e-07
-4.98745e-07
3.27082e-07
-5.58037e-07
3.70363e-07
-6.25292e-07
4.26945e-07
-7.02621e-07
5.02809e-07
-7.92644e-07
6.07734e-07
-8.98123e-07
7.58371e-07
-1.01985e-06
9.84129e-07
-1.14708e-06
1.33708e-06
-1.22142e-06
1.89565e-06
-1.0829e-06
2.6703e-06
-9.77813e-07
3.1823e-06
-7.72729e-07
3.75922e-06
-2.48428e-07
4.31773e-06
3.03937e-09
3.92016e-06
-1.5586e-07
3.24269e-06
-1.111e-07
3.33883e-06
4.454e-07
3.57272e-06
-6.6014e-07
1.99969e-06
-4.72678e-06
4.30012e-06
-6.25926e-06
3.11031e-07
-7.43369e-06
1.5672e-07
-9.01284e-06
1.08078e-07
-8.55654e-06
-3.75539e-06
-8.58351e-06
-4.82644e-06
-7.00003e-06
-8.85369e-06
-3.66739e-06
-1.29338e-05
2.37838e-17
-1.44059e-05
3.66739e-06
-1.44059e-05
7.00003e-06
-1.29338e-05
8.58351e-06
-8.85369e-06
8.55654e-06
-4.82644e-06
9.01284e-06
-3.75539e-06
7.43369e-06
1.08078e-07
6.25926e-06
1.5672e-07
4.72678e-06
3.11031e-07
6.6014e-07
4.30012e-06
-4.454e-07
1.99969e-06
1.111e-07
3.57272e-06
1.5586e-07
3.33883e-06
-3.03937e-09
3.24269e-06
2.48428e-07
3.92016e-06
7.72729e-07
4.31773e-06
9.77813e-07
3.75922e-06
1.0829e-06
3.1823e-06
1.22142e-06
2.6703e-06
1.14708e-06
1.89565e-06
1.01985e-06
1.33708e-06
8.98123e-07
9.84129e-07
7.92644e-07
7.58371e-07
7.02621e-07
6.07734e-07
6.25292e-07
5.02809e-07
5.58037e-07
4.26945e-07
4.98745e-07
3.70363e-07
4.45786e-07
3.27082e-07
3.97905e-07
2.93296e-07
3.54133e-07
2.66497e-07
3.13707e-07
2.44979e-07
2.76021e-07
2.27554e-07
2.40584e-07
2.13372e-07
2.06992e-07
2.01814e-07
1.74907e-07
1.92427e-07
1.44039e-07
1.84872e-07
1.14137e-07
1.78895e-07
8.49773e-08
1.7431e-07
5.63584e-08
1.7098e-07
2.80922e-08
1.6881e-07
1.67739e-07
-3.06267e-08
1.98366e-07
-6.14393e-08
1.99622e-07
-9.26282e-08
2.02169e-07
-1.24393e-07
2.06075e-07
-1.5695e-07
2.11451e-07
-1.90533e-07
2.18455e-07
-2.25408e-07
2.27302e-07
-2.61876e-07
2.38282e-07
-3.00289e-07
2.51784e-07
-3.41062e-07
2.68327e-07
-3.84693e-07
2.88611e-07
-4.31789e-07
3.13592e-07
-4.83095e-07
3.44602e-07
-5.39536e-07
3.83524e-07
-6.02265e-07
4.33091e-07
-6.72691e-07
4.97371e-07
-7.52472e-07
5.8259e-07
-8.4329e-07
6.98552e-07
-9.45966e-07
8.61047e-07
-1.05744e-06
1.0956e-06
-1.16136e-06
1.44101e-06
-1.20546e-06
1.93975e-06
-1.09904e-06
2.56388e-06
-9.72524e-07
3.05578e-06
-7.50773e-07
3.53747e-06
-3.41369e-07
3.90832e-06
-1.14056e-07
3.69285e-06
-1.54292e-07
3.28292e-06
-8.13306e-08
3.26587e-06
2.15961e-07
3.27543e-06
-3.02012e-07
2.51767e-06
5.70812e-07
3.4273e-06
-4.41099e-08
9.25953e-07
-8.86668e-07
9.99278e-07
-2.33215e-06
1.55356e-06
-6.64e-06
5.52463e-07
-1.16232e-05
1.568e-07
-1.06623e-05
-9.81466e-06
-5.16367e-06
-1.84325e-05
2.71728e-17
-1.95696e-05
5.16367e-06
-1.95696e-05
1.06623e-05
-1.84325e-05
1.16232e-05
-9.81466e-06
6.64e-06
1.568e-07
2.33215e-06
5.52463e-07
8.86668e-07
1.55356e-06
4.41099e-08
9.99278e-07
-5.70812e-07
9.25953e-07
3.02012e-07
3.4273e-06
-2.15961e-07
2.51767e-06
8.13306e-08
3.27543e-06
1.54292e-07
3.26587e-06
1.14056e-07
3.28292e-06
3.41369e-07
3.69285e-06
7.50773e-07
3.90832e-06
9.72524e-07
3.53747e-06
1.09904e-06
3.05578e-06
1.20546e-06
2.56388e-06
1.16136e-06
1.93975e-06
1.05744e-06
1.44101e-06
9.45966e-07
1.0956e-06
8.4329e-07
8.61047e-07
7.52472e-07
6.98552e-07
6.72691e-07
5.8259e-07
6.02265e-07
4.97371e-07
5.39536e-07
4.33091e-07
4.83095e-07
3.83524e-07
4.31789e-07
3.44602e-07
3.84693e-07
3.13592e-07
3.41062e-07
2.88611e-07
3.00289e-07
2.68327e-07
2.61876e-07
2.51784e-07
2.25408e-07
2.38282e-07
1.90533e-07
2.27302e-07
1.5695e-07
2.18455e-07
1.24393e-07
2.11451e-07
9.26282e-08
2.06075e-07
6.14393e-08
2.02169e-07
3.06267e-08
1.99622e-07
1.98366e-07
-3.33303e-08
2.31696e-07
-6.68573e-08
2.3315e-07
-1.00783e-07
2.36094e-07
-1.35317e-07
2.4061e-07
-1.70687e-07
2.46821e-07
-2.07137e-07
2.54906e-07
-2.44944e-07
2.65109e-07
-2.84418e-07
2.77756e-07
-3.25916e-07
2.93283e-07
-3.69857e-07
3.12268e-07
-4.16733e-07
3.35487e-07
-4.67132e-07
3.63991e-07
-5.21757e-07
3.99226e-07
-5.81445e-07
4.43212e-07
-6.47179e-07
4.98826e-07
-7.2006e-07
5.70251e-07
-8.01157e-07
6.63688e-07
-8.91069e-07
7.88464e-07
-9.88666e-07
9.58644e-07
-1.08782e-06
1.19476e-06
-1.16985e-06
1.52303e-06
-1.19208e-06
1.96199e-06
-1.10292e-06
2.47472e-06
-9.66278e-07
2.91914e-06
-7.46161e-07
3.31735e-06
-4.19338e-07
3.5815e-06
-2.1055e-07
3.48406e-06
-1.72787e-07
3.24516e-06
-8.72133e-08
3.1803e-06
7.89134e-08
3.1093e-06
-1.41639e-07
2.73822e-06
2.38194e-07
3.04746e-06
2.89984e-08
1.13515e-06
-1.05574e-07
1.13385e-06
2.33554e-07
1.21443e-06
-2.4332e-07
1.02934e-06
-1.01979e-06
9.33274e-07
-9.30801e-06
-1.52643e-06
-5.65552e-06
-2.20849e-05
3.70255e-17
-2.52251e-05
5.65552e-06
-2.52251e-05
9.30801e-06
-2.20849e-05
1.01979e-06
-1.52643e-06
2.4332e-07
9.33274e-07
-2.33554e-07
1.02934e-06
1.05574e-07
1.21443e-06
-2.89984e-08
1.13385e-06
-2.38194e-07
1.13515e-06
1.41639e-07
3.04746e-06
-7.89134e-08
2.73822e-06
8.72133e-08
3.1093e-06
1.72787e-07
3.1803e-06
2.1055e-07
3.24516e-06
4.19338e-07
3.48406e-06
7.46161e-07
3.5815e-06
9.66278e-07
3.31735e-06
1.10292e-06
2.91914e-06
1.19208e-06
2.47472e-06
1.16985e-06
1.96199e-06
1.08782e-06
1.52303e-06
9.88666e-07
1.19476e-06
8.91069e-07
9.58644e-07
8.01157e-07
7.88464e-07
7.2006e-07
6.63688e-07
6.47179e-07
5.70251e-07
5.81445e-07
4.98826e-07
5.21757e-07
4.43212e-07
4.67132e-07
3.99226e-07
4.16733e-07
3.63991e-07
3.69857e-07
3.35487e-07
3.25916e-07
3.12268e-07
2.84418e-07
2.93283e-07
2.44944e-07
2.77756e-07
2.07137e-07
2.65109e-07
1.70687e-07
2.54906e-07
1.35317e-07
2.46821e-07
1.00783e-07
2.4061e-07
6.68573e-08
2.36094e-07
3.33303e-08
2.3315e-07
2.31696e-07
-3.61931e-08
2.67889e-07
-7.25924e-08
2.69549e-07
-1.09409e-07
2.7291e-07
-1.46862e-07
2.78063e-07
-1.85186e-07
2.85145e-07
-2.24635e-07
2.94355e-07
-2.65489e-07
3.05963e-07
-3.08063e-07
3.2033e-07
-3.52712e-07
3.37932e-07
-3.99846e-07
3.59402e-07
-4.49935e-07
3.85577e-07
-5.03526e-07
4.17582e-07
-5.61245e-07
4.56945e-07
-6.23796e-07
5.05763e-07
-6.91931e-07
5.6696e-07
-7.66348e-07
6.44668e-07
-8.47438e-07
7.44778e-07
-9.34669e-07
8.75695e-07
-1.02518e-06
1.04916e-06
-1.11083e-06
1.28041e-06
-1.17304e-06
1.58524e-06
-1.17892e-06
1.96788e-06
-1.09826e-06
2.39405e-06
-9.59977e-07
2.78086e-06
-7.52166e-07
3.10954e-06
-4.84376e-07
3.31371e-06
-2.90847e-07
3.29053e-06
-2.05783e-07
3.1601e-06
-1.13462e-07
3.08797e-06
-6.5033e-09
3.00234e-06
-7.78028e-08
2.80952e-06
8.99426e-08
2.87972e-06
3.01577e-08
1.19493e-06
-1.34898e-08
1.1775e-06
2.11782e-08
1.17977e-06
-9.79853e-08
1.1485e-06
-3.30804e-07
1.16609e-06
-1.30377e-06
-5.53473e-07
-2.35094e-06
-2.10378e-05
-4.97272e-18
-2.75761e-05
2.35094e-06
-2.75761e-05
1.30377e-06
-2.10378e-05
3.30804e-07
-5.53473e-07
9.79853e-08
1.16609e-06
-2.11782e-08
1.1485e-06
1.34898e-08
1.17977e-06
-3.01577e-08
1.1775e-06
-8.99426e-08
1.19493e-06
7.78028e-08
2.87972e-06
6.5033e-09
2.80952e-06
1.13462e-07
3.00234e-06
2.05783e-07
3.08797e-06
2.90847e-07
3.1601e-06
4.84376e-07
3.29053e-06
7.52166e-07
3.31371e-06
9.59977e-07
3.10954e-06
1.09826e-06
2.78086e-06
1.17892e-06
2.39405e-06
1.17304e-06
1.96788e-06
1.11083e-06
1.58524e-06
1.02518e-06
1.28041e-06
9.34669e-07
1.04916e-06
8.47438e-07
8.75695e-07
7.66348e-07
7.44778e-07
6.91931e-07
6.44668e-07
6.23796e-07
5.6696e-07
5.61245e-07
5.05763e-07
5.03526e-07
4.56945e-07
4.49935e-07
4.17582e-07
3.99846e-07
3.85577e-07
3.52712e-07
3.59402e-07
3.08063e-07
3.37932e-07
2.65489e-07
3.2033e-07
2.24635e-07
3.05963e-07
1.85186e-07
2.94355e-07
1.46862e-07
2.85145e-07
1.09409e-07
2.78063e-07
7.25924e-08
2.7291e-07
3.61931e-08
2.69549e-07
2.67889e-07
-3.91969e-08
3.07086e-07
-7.86069e-08
3.08959e-07
-1.18448e-07
3.12751e-07
-1.58945e-07
3.1856e-07
-2.00338e-07
3.26538e-07
-2.42883e-07
3.369e-07
-2.86861e-07
3.49941e-07
-3.3258e-07
3.66049e-07
-3.80386e-07
3.85738e-07
-4.30664e-07
4.09679e-07
-4.83845e-07
4.38757e-07
-5.40405e-07
4.74143e-07
-6.0086e-07
5.174e-07
-6.65733e-07
5.70636e-07
-7.35484e-07
6.36711e-07
-8.10348e-07
7.19532e-07
-8.89996e-07
8.24426e-07
-9.72837e-07
9.58537e-07
-1.05468e-06
1.131e-06
-1.12642e-06
1.35215e-06
-1.17118e-06
1.62999e-06
-1.1645e-06
1.9612e-06
-1.0879e-06
2.31745e-06
-9.53767e-07
2.64673e-06
-7.63398e-07
2.91917e-06
-5.38268e-07
3.08858e-06
-3.5836e-07
3.11062e-06
-2.47466e-07
3.0492e-06
-1.50283e-07
2.99079e-06
-6.53051e-08
2.91736e-06
-6.41577e-08
2.80837e-06
1.88172e-08
2.79674e-06
6.44816e-09
1.2073e-06
-1.13304e-08
1.19528e-06
-2.45231e-08
1.19296e-06
-7.22779e-08
1.19626e-06
-1.28529e-07
1.22234e-06
-3.21821e-07
-3.60181e-07
-7.60688e-07
-2.05989e-05
5.05085e-18
-2.83368e-05
7.60688e-07
-2.83368e-05
3.21821e-07
-2.05989e-05
1.28529e-07
-3.60181e-07
7.22779e-08
1.22234e-06
2.45231e-08
1.19626e-06
1.13304e-08
1.19296e-06
-6.44816e-09
1.19528e-06
-1.88172e-08
1.2073e-06
6.41577e-08
2.79674e-06
6.53051e-08
2.80837e-06
1.50283e-07
2.91736e-06
2.47466e-07
2.99079e-06
3.5836e-07
3.0492e-06
5.38268e-07
3.11062e-06
7.63398e-07
3.08858e-06
9.53767e-07
2.91917e-06
1.0879e-06
2.64673e-06
1.1645e-06
2.31745e-06
1.17118e-06
1.9612e-06
1.12642e-06
1.62999e-06
1.05468e-06
1.35215e-06
9.72837e-07
1.131e-06
8.89996e-07
9.58537e-07
8.10348e-07
8.24426e-07
7.35484e-07
7.19532e-07
6.65733e-07
6.36711e-07
6.0086e-07
5.70636e-07
5.40405e-07
5.174e-07
4.83845e-07
4.74143e-07
4.30664e-07
4.38757e-07
3.80386e-07
4.09679e-07
3.3258e-07
3.85738e-07
2.86861e-07
3.66049e-07
2.42883e-07
3.49941e-07
2.00338e-07
3.369e-07
1.58945e-07
3.26538e-07
1.18448e-07
3.1856e-07
7.86069e-08
3.12751e-07
3.91969e-08
3.08959e-07
3.07086e-07
-4.23125e-08
3.49399e-07
-8.48417e-08
3.51488e-07
-1.27808e-07
3.55718e-07
-1.71439e-07
3.62191e-07
-2.15975e-07
3.71073e-07
-2.61667e-07
3.82592e-07
-3.0879e-07
3.97063e-07
-3.57637e-07
4.14897e-07
-4.08528e-07
4.3663e-07
-4.6181e-07
4.62961e-07
-5.1785e-07
4.94797e-07
-5.7703e-07
5.33323e-07
-6.39717e-07
5.80087e-07
-7.06211e-07
6.3713e-07
-7.76638e-07
7.07137e-07
-8.50739e-07
7.93634e-07
-9.27496e-07
9.01183e-07
-1.00444e-06
1.03548e-06
-1.07654e-06
1.2031e-06
-1.13465e-06
1.41026e-06
-1.16437e-06
1.65971e-06
-1.14796e-06
1.9448e-06
-1.07372e-06
2.24321e-06
-9.47237e-07
2.52024e-06
-7.75829e-07
2.74776e-06
-5.82386e-07
2.89514e-06
-4.15351e-07
2.94359e-06
-2.92627e-07
2.92648e-06
-1.91484e-07
2.88965e-06
-1.11185e-07
2.83706e-06
-7.45903e-08
2.77178e-06
-1.972e-08
2.74187e-06
-1.50243e-08
1.20261e-06
-1.66841e-08
1.19694e-06
-2.08408e-08
1.19712e-06
-2.87438e-08
1.20416e-06
-2.69374e-08
1.22054e-06
-9.28975e-08
-2.94221e-07
-3.96503e-07
-2.02953e-05
-4.14973e-18
-2.87333e-05
3.96503e-07
-2.87333e-05
9.28975e-08
-2.02953e-05
2.69374e-08
-2.94221e-07
2.87438e-08
1.22054e-06
2.08408e-08
1.20416e-06
1.66841e-08
1.19712e-06
1.50243e-08
1.19694e-06
1.972e-08
1.20261e-06
7.45903e-08
2.74187e-06
1.11185e-07
2.77178e-06
1.91484e-07
2.83706e-06
2.92627e-07
2.88965e-06
4.15351e-07
2.92648e-06
5.82386e-07
2.94359e-06
7.75829e-07
2.89514e-06
9.47237e-07
2.74776e-06
1.07372e-06
2.52024e-06
1.14796e-06
2.24321e-06
1.16437e-06
1.9448e-06
1.13465e-06
1.65971e-06
1.07654e-06
1.41026e-06
1.00444e-06
1.2031e-06
9.27496e-07
1.03548e-06
8.50739e-07
9.01183e-07
7.76638e-07
7.93634e-07
7.06211e-07
7.07137e-07
6.39717e-07
6.3713e-07
5.7703e-07
5.80087e-07
5.1785e-07
5.33323e-07
4.6181e-07
4.94797e-07
4.08528e-07
4.62961e-07
3.57637e-07
4.3663e-07
3.0879e-07
4.14897e-07
2.61667e-07
3.97063e-07
2.15975e-07
3.82592e-07
1.71439e-07
3.71073e-07
1.27808e-07
3.62191e-07
8.48417e-08
3.55718e-07
4.23125e-08
3.51488e-07
3.49399e-07
-4.54971e-08
3.94896e-07
-9.12098e-08
3.97201e-07
-1.37357e-07
4.01864e-07
-1.84161e-07
4.08996e-07
-2.31856e-07
4.18768e-07
-2.80685e-07
4.31421e-07
-3.30902e-07
4.4728e-07
-3.82776e-07
4.6677e-07
-4.36587e-07
4.90441e-07
-4.92624e-07
5.18998e-07
-5.5117e-07
5.53343e-07
-6.12482e-07
5.94635e-07
-6.76751e-07
6.44357e-07
-7.44024e-07
7.04402e-07
-8.14069e-07
7.77182e-07
-8.86154e-07
8.65719e-07
-9.58663e-07
9.73692e-07
-1.02851e-06
1.10533e-06
-1.09032e-06
1.26491e-06
-1.13559e-06
1.45554e-06
-1.15263e-06
1.67674e-06
-1.12882e-06
1.92099e-06
-1.05673e-06
2.17112e-06
-9.39611e-07
2.40313e-06
-7.866e-07
2.59475e-06
-6.17621e-07
2.72616e-06
-4.63038e-07
2.78901e-06
-3.3704e-07
2.80048e-06
-2.32985e-07
2.78559e-06
-1.50457e-07
2.75453e-06
-9.48691e-08
2.71619e-06
-4.33976e-08
2.6904e-06
-2.9014e-08
1.18822e-06
-1.79012e-08
1.18582e-06
-7.29148e-09
1.18651e-06
6.20434e-09
1.19066e-06
2.91205e-08
1.19762e-06
4.46223e-09
-2.69562e-07
-2.72082e-07
-2.00187e-05
-1.30152e-17
-2.90053e-05
2.72082e-07
-2.90053e-05
-4.46223e-09
-2.00187e-05
-2.91205e-08
-2.69562e-07
-6.20434e-09
1.19762e-06
7.29148e-09
1.19066e-06
1.79012e-08
1.18651e-06
2.9014e-08
1.18582e-06
4.33976e-08
1.18822e-06
9.48691e-08
2.6904e-06
1.50457e-07
2.71619e-06
2.32985e-07
2.75453e-06
3.3704e-07
2.78559e-06
4.63038e-07
2.80048e-06
6.17621e-07
2.78901e-06
7.866e-07
2.72616e-06
9.39611e-07
2.59475e-06
1.05673e-06
2.40313e-06
1.12882e-06
2.17112e-06
1.15263e-06
1.92099e-06
1.13559e-06
1.67674e-06
1.09032e-06
1.45554e-06
1.02851e-06
1.26491e-06
9.58663e-07
1.10533e-06
8.86154e-07
9.73692e-07
8.14069e-07
8.65719e-07
7.44024e-07
7.77182e-07
6.76751e-07
7.04402e-07
6.12482e-07
6.44357e-07
5.5117e-07
5.94635e-07
4.92624e-07
5.53343e-07
4.36587e-07
5.18998e-07
3.82776e-07
4.90441e-07
3.30902e-07
4.6677e-07
2.80685e-07
4.4728e-07
2.31856e-07
4.31421e-07
1.84161e-07
4.18768e-07
1.37357e-07
4.08996e-07
9.12098e-08
4.01864e-07
4.54971e-08
3.97201e-07
3.94896e-07
-4.86917e-08
4.43588e-07
-9.75916e-08
4.46101e-07
-1.4691e-07
4.51183e-07
-1.9686e-07
4.58946e-07
-2.4766e-07
4.69567e-07
-2.99532e-07
4.83293e-07
-3.52703e-07
5.00452e-07
-4.07404e-07
5.21471e-07
-4.6386e-07
5.46897e-07
-5.22281e-07
5.77419e-07
-5.82847e-07
6.13909e-07
-6.45669e-07
6.57457e-07
-7.10738e-07
7.09425e-07
-7.77834e-07
7.71499e-07
-8.46386e-07
8.45734e-07
-9.15241e-07
9.34574e-07
-9.82341e-07
1.04079e-06
-1.04427e-06
1.16726e-06
-1.09576e-06
1.31639e-06
-1.12936e-06
1.48914e-06
-1.13593e-06
1.68332e-06
-1.10673e-06
1.89179e-06
-1.03718e-06
2.10157e-06
-9.29933e-07
2.29588e-06
-7.93738e-07
2.45856e-06
-6.44411e-07
2.57683e-06
-5.01846e-07
2.64644e-06
-3.77493e-07
2.67613e-06
-2.71858e-07
2.67996e-06
-1.85168e-07
2.66784e-06
-1.176e-07
2.64862e-06
-5.98899e-08
2.63269e-06
-3.82052e-08
1.16654e-06
-1.78176e-08
1.16544e-06
3.05568e-09
1.16563e-06
2.67072e-08
1.16701e-06
5.58407e-08
1.16849e-06
3.02003e-08
-2.43922e-07
-2.22743e-07
-1.97658e-05
-1.19311e-17
-2.92281e-05
2.22743e-07
-2.92281e-05
-3.02003e-08
-1.97658e-05
-5.58407e-08
-2.43922e-07
-2.67072e-08
1.16849e-06
-3.05568e-09
1.16701e-06
1.78176e-08
1.16563e-06
3.82052e-08
1.16544e-06
5.98899e-08
1.16654e-06
1.176e-07
2.63269e-06
1.85168e-07
2.64862e-06
2.71858e-07
2.66784e-06
3.77493e-07
2.67996e-06
5.01846e-07
2.67613e-06
6.44411e-07
2.64644e-06
7.93738e-07
2.57683e-06
9.29933e-07
2.45856e-06
1.03718e-06
2.29588e-06
1.10673e-06
2.10157e-06
1.13593e-06
1.89179e-06
1.12936e-06
1.68332e-06
1.09576e-06
1.48914e-06
1.04427e-06
1.31639e-06
9.82341e-07
1.16726e-06
9.15241e-07
1.04079e-06
8.46386e-07
9.34574e-07
7.77834e-07
8.45734e-07
7.10738e-07
7.71499e-07
6.45669e-07
7.09425e-07
5.82847e-07
6.57457e-07
5.22281e-07
6.13909e-07
4.6386e-07
5.77419e-07
4.07404e-07
5.46897e-07
3.52703e-07
5.21471e-07
2.99532e-07
5.00452e-07
2.4766e-07
4.83293e-07
1.9686e-07
4.69567e-07
1.4691e-07
4.58946e-07
9.75916e-08
4.51183e-07
4.86917e-08
4.46101e-07
4.43588e-07
-5.18181e-08
4.95406e-07
-1.0383e-07
4.98112e-07
-1.56229e-07
5.03582e-07
-2.09209e-07
5.11927e-07
-2.62966e-07
5.23324e-07
-3.17691e-07
5.38018e-07