/*--------------------------------*- C++ -*----------------------------------*\
  =========                 |
  \\      /  F ield         | OpenFOAM: The Open Source CFD Toolbox
   \\    /   O peration     | Website:  https://openfoam.org
    \\  /    A nd           | Version:  10
     \\/     M anipulation  |
\*---------------------------------------------------------------------------*/
FoamFile
{
    format      ascii;
    class       volVectorField;
    location    "11500";
    object      Ub;
}
// * * * * * * * * * * * * * * * * * * * * * * * * * * * * * * * * * * * * * //

dimensions      [0 1 -1 0 0 0 0];

internalField   nonuniform List<vector> 
6400
(
(-4.64914e-21 -9.87899e-16 0)
(-1.39776e-20 -9.87899e-16 0)
(-2.33977e-20 -9.87899e-16 0)
(-3.29732e-20 -9.87899e-16 0)
(-4.27726e-20 -9.87899e-16 0)
(-5.28712e-20 -9.87899e-16 0)
(-6.33539e-20 -9.87899e-16 0)
(-7.43184e-20 -9.87899e-16 0)
(-8.58804e-20 -9.87899e-16 0)
(-9.81793e-20 -9.87899e-16 0)
(-1.11387e-19 -9.87899e-16 0)
(-1.25723e-19 -9.87899e-16 0)
(-1.41467e-19 -9.87898e-16 0)
(-1.58997e-19 -9.87898e-16 0)
(-1.7883e-19 -9.87898e-16 0)
(-2.01706e-19 -9.87898e-16 0)
(-2.2873e-19 -9.87897e-16 0)
(-2.61649e-19 -9.87896e-16 0)
(-3.03401e-19 -9.87895e-16 0)
(-3.59091e-19 -9.87894e-16 0)
(-1.547e-17 -9.87892e-16 0)
(-3.67792e-06 -3.21043e-14 0)
(-0.000104617 -7.27012e-05 0)
(-0.000187294 -3.74776e-06 0)
(-0.000173321 -1.8483e-07 0)
(-0.0001807 1.19232e-06 0)
(-0.000186703 -2.84504e-07 0)
(-0.000181902 -9.18949e-07 0)
(-0.000174398 -7.85185e-07 0)
(-0.000168817 -4.97058e-07 0)
(-0.000163621 -6.85322e-07 0)
(-0.000157106 -7.49099e-07 0)
(-0.000150809 -1.35775e-06 0)
(-0.000143908 -1.89097e-06 0)
(-0.000134163 -2.65467e-06 0)
(-0.000120499 -3.68059e-06 0)
(-0.000101948 -4.88747e-06 0)
(-7.80532e-05 -6.12261e-06 0)
(-4.92054e-05 -7.15161e-06 0)
(-1.6828e-05 -7.73603e-06 0)
(1.6828e-05 -7.73603e-06 0)
(4.92054e-05 -7.15161e-06 0)
(7.80532e-05 -6.12261e-06 0)
(0.000101948 -4.88747e-06 0)
(0.000120499 -3.68059e-06 0)
(0.000134163 -2.65467e-06 0)
(0.000143908 -1.89097e-06 0)
(0.000150809 -1.35775e-06 0)
(0.000157106 -7.49099e-07 0)
(0.000163621 -6.85322e-07 0)
(0.000168817 -4.97058e-07 0)
(0.000174398 -7.85185e-07 0)
(0.000181902 -9.18949e-07 0)
(0.000186703 -2.84504e-07 0)
(0.0001807 1.19232e-06 0)
(0.000173321 -1.8483e-07 0)
(0.000187294 -3.74776e-06 0)
(0.000104617 -7.27012e-05 0)
(3.67792e-06 -3.21043e-14 0)
(1.547e-17 -9.87892e-16 0)
(3.59091e-19 -9.87894e-16 0)
(3.03401e-19 -9.87895e-16 0)
(2.61649e-19 -9.87896e-16 0)
(2.2873e-19 -9.87897e-16 0)
(2.01706e-19 -9.87898e-16 0)
(1.7883e-19 -9.87898e-16 0)
(1.58997e-19 -9.87898e-16 0)
(1.41467e-19 -9.87898e-16 0)
(1.25723e-19 -9.87899e-16 0)
(1.11387e-19 -9.87899e-16 0)
(9.81793e-20 -9.87899e-16 0)
(8.58804e-20 -9.87899e-16 0)
(7.43184e-20 -9.87899e-16 0)
(6.33539e-20 -9.87899e-16 0)
(5.28712e-20 -9.87899e-16 0)
(4.27726e-20 -9.87899e-16 0)
(3.29732e-20 -9.87899e-16 0)
(2.33977e-20 -9.87899e-16 0)
(1.39776e-20 -9.87899e-16 0)
(4.64914e-21 -9.87899e-16 0)
(-4.64781e-21 -9.87896e-16 0)
(-1.39736e-20 -9.87896e-16 0)
(-2.33909e-20 -9.87896e-16 0)
(-3.29634e-20 -9.87895e-16 0)
(-4.27595e-20 -9.87895e-16 0)
(-5.28544e-20 -9.87895e-16 0)
(-6.33328e-20 -9.87895e-16 0)
(-7.42923e-20 -9.87895e-16 0)
(-8.58482e-20 -9.87895e-16 0)
(-9.81396e-20 -9.87895e-16 0)
(-1.11338e-19 -9.87894e-16 0)
(-1.25661e-19 -9.87894e-16 0)
(-1.41389e-19 -9.87893e-16 0)
(-1.58897e-19 -9.87893e-16 0)
(-1.78698e-19 -9.87892e-16 0)
(-2.01525e-19 -9.87891e-16 0)
(-2.28474e-19 -9.87889e-16 0)
(-2.61265e-19 -9.87887e-16 0)
(-3.02796e-19 -9.87884e-16 0)
(-3.58321e-19 -9.87878e-16 0)
(-4.39887e-19 -9.87871e-16 0)
(-2.52003e-14 -9.87896e-16 0)
(-1.79799e-05 -2.39024e-11 0)
(-9.70319e-05 -3.36044e-06 0)
(-0.000161551 3.25651e-07 0)
(-0.000172733 4.13551e-06 0)
(-0.000179923 -6.59299e-07 0)
(-0.000175545 -2.66448e-06 0)
(-0.000168476 -2.26778e-06 0)
(-0.000163404 -1.38233e-06 0)
(-0.000158635 -2.00641e-06 0)
(-0.000152594 -2.1745e-06 0)
(-0.0001468 -4.04826e-06 0)
(-0.00014032 -5.6708e-06 0)
(-0.000131116 -8.00926e-06 0)
(-0.00011807 -1.1178e-05 0)
(-0.000100158 -1.4917e-05 0)
(-7.68693e-05 -1.876e-05 0)
(-4.85463e-05 -2.19712e-05 0)
(-1.66178e-05 -2.37959e-05 0)
(1.66178e-05 -2.37959e-05 0)
(4.85463e-05 -2.19712e-05 0)
(7.68693e-05 -1.876e-05 0)
(0.000100158 -1.4917e-05 0)
(0.00011807 -1.1178e-05 0)
(0.000131116 -8.00926e-06 0)
(0.00014032 -5.6708e-06 0)
(0.0001468 -4.04826e-06 0)
(0.000152594 -2.1745e-06 0)
(0.000158635 -2.00641e-06 0)
(0.000163404 -1.38233e-06 0)
(0.000168476 -2.26778e-06 0)
(0.000175545 -2.66448e-06 0)
(0.000179923 -6.59299e-07 0)
(0.000172733 4.13551e-06 0)
(0.000161551 3.25651e-07 0)
(9.70319e-05 -3.36044e-06 0)
(1.79799e-05 -2.39024e-11 0)
(2.52003e-14 -9.87896e-16 0)
(4.39887e-19 -9.87871e-16 0)
(3.58321e-19 -9.87878e-16 0)
(3.02796e-19 -9.87884e-16 0)
(2.61265e-19 -9.87887e-16 0)
(2.28474e-19 -9.87889e-16 0)
(2.01525e-19 -9.87891e-16 0)
(1.78698e-19 -9.87892e-16 0)
(1.58897e-19 -9.87893e-16 0)
(1.41389e-19 -9.87893e-16 0)
(1.25661e-19 -9.87894e-16 0)
(1.11338e-19 -9.87894e-16 0)
(9.81396e-20 -9.87895e-16 0)
(8.58482e-20 -9.87895e-16 0)
(7.42923e-20 -9.87895e-16 0)
(6.33328e-20 -9.87895e-16 0)
(5.28544e-20 -9.87895e-16 0)
(4.27595e-20 -9.87895e-16 0)
(3.29634e-20 -9.87895e-16 0)
(2.33909e-20 -9.87896e-16 0)
(1.39736e-20 -9.87896e-16 0)
(4.64781e-21 -9.87896e-16 0)
(-4.64481e-21 -9.87893e-16 0)
(-1.39645e-20 -9.87893e-16 0)
(-2.33754e-20 -9.87893e-16 0)
(-3.29411e-20 -9.87893e-16 0)
(-4.27297e-20 -9.87893e-16 0)
(-5.28162e-20 -9.87893e-16 0)
(-6.32848e-20 -9.87893e-16 0)
(-7.42328e-20 -9.87892e-16 0)
(-8.57749e-20 -9.87892e-16 0)
(-9.80492e-20 -9.87892e-16 0)
(-1.11226e-19 -9.87891e-16 0)
(-1.25521e-19 -9.8789e-16 0)
(-1.41212e-19 -9.87889e-16 0)
(-1.58668e-19 -9.87888e-16 0)
(-1.78395e-19 -9.87887e-16 0)
(-2.01114e-19 -9.87885e-16 0)
(-2.27889e-19 -9.87882e-16 0)
(-2.6039e-19 -9.87879e-16 0)
(-3.01404e-19 -9.87873e-16 0)
(-3.56119e-19 -9.87863e-16 0)
(-4.37953e-19 -9.87847e-16 0)
(-6.26743e-19 -9.87821e-16 0)
(-5.16172e-16 -9.87287e-16 0)
(-1.04291e-05 -9.5242e-13 0)
(-8.66756e-05 3.57419e-07 0)
(-0.000163734 7.95583e-06 0)
(-0.000174734 -1.10412e-06 0)
(-0.000170694 -4.61885e-06 0)
(-0.000163832 -3.8687e-06 0)
(-0.000159324 -2.25097e-06 0)
(-0.000155007 -3.45395e-06 0)
(-0.000149526 -3.58477e-06 0)
(-0.000144468 -6.81576e-06 0)
(-0.000138572 -9.54005e-06 0)
(-0.000130135 -1.35356e-05 0)
(-0.00011788 -1.90708e-05 0)
(-0.000100603 -2.56448e-05 0)
(-7.76457e-05 -3.24736e-05 0)
(-4.92399e-05 -3.82207e-05 0)
(-1.68899e-05 -4.14875e-05 0)
(1.68899e-05 -4.14875e-05 0)
(4.92399e-05 -3.82207e-05 0)
(7.76457e-05 -3.24736e-05 0)
(0.000100603 -2.56448e-05 0)
(0.00011788 -1.90708e-05 0)
(0.000130135 -1.35356e-05 0)
(0.000138572 -9.54005e-06 0)
(0.000144468 -6.81576e-06 0)
(0.000149526 -3.58477e-06 0)
(0.000155007 -3.45395e-06 0)
(0.000159324 -2.25097e-06 0)
(0.000163832 -3.8687e-06 0)
(0.000170694 -4.61885e-06 0)
(0.000174734 -1.10412e-06 0)
(0.000163734 7.95583e-06 0)
(8.66756e-05 3.57419e-07 0)
(1.04291e-05 -9.5242e-13 0)
(5.16172e-16 -9.87287e-16 0)
(6.26743e-19 -9.87821e-16 0)
(4.37953e-19 -9.87847e-16 0)
(3.56119e-19 -9.87863e-16 0)
(3.01404e-19 -9.87873e-16 0)
(2.6039e-19 -9.87879e-16 0)
(2.27889e-19 -9.87882e-16 0)
(2.01114e-19 -9.87885e-16 0)
(1.78395e-19 -9.87887e-16 0)
(1.58668e-19 -9.87888e-16 0)
(1.41212e-19 -9.87889e-16 0)
(1.25521e-19 -9.8789e-16 0)
(1.11226e-19 -9.87891e-16 0)
(9.80492e-20 -9.87892e-16 0)
(8.57749e-20 -9.87892e-16 0)
(7.42328e-20 -9.87892e-16 0)
(6.32848e-20 -9.87893e-16 0)
(5.28162e-20 -9.87893e-16 0)
(4.27297e-20 -9.87893e-16 0)
(3.29411e-20 -9.87893e-16 0)
(2.33754e-20 -9.87893e-16 0)
(1.39645e-20 -9.87893e-16 0)
(4.64481e-21 -9.87893e-16 0)
(-4.63962e-21 -9.87891e-16 0)
(-1.39488e-20 -9.87891e-16 0)
(-2.33487e-20 -9.87891e-16 0)
(-3.29027e-20 -9.87891e-16 0)
(-4.26784e-20 -9.87891e-16 0)
(-5.27503e-20 -9.8789e-16 0)
(-6.32022e-20 -9.8789e-16 0)
(-7.41304e-20 -9.87889e-16 0)
(-8.56485e-20 -9.87889e-16 0)
(-9.78933e-20 -9.87888e-16 0)
(-1.11033e-19 -9.87887e-16 0)
(-1.2528e-19 -9.87886e-16 0)
(-1.40906e-19 -9.87885e-16 0)
(-1.58274e-19 -9.87884e-16 0)
(-1.77876e-19 -9.87882e-16 0)
(-2.00408e-19 -9.87879e-16 0)
(-2.26889e-19 -9.87875e-16 0)
(-2.58896e-19 -9.8787e-16 0)
(-2.99019e-19 -9.87861e-16 0)
(-3.52004e-19 -9.87847e-16 0)
(-4.29127e-19 -9.87823e-16 0)
(-5.65617e-19 -9.87763e-16 0)
(-5.18723e-19 -9.87395e-16 0)
(-6.5013e-19 -9.8748e-16 0)
(-3.70647e-07 -1.28002e-15 0)
(-8.11329e-05 5.10377e-06 0)
(-0.000165148 -1.10113e-06 0)
(-0.000165407 -6.75641e-06 0)
(-0.000159271 -5.547e-06 0)
(-0.000155708 -2.95584e-06 0)
(-0.000151996 -5.05497e-06 0)
(-0.000147253 -4.81063e-06 0)
(-0.000143287 -9.54717e-06 0)
(-0.000138219 -1.32868e-05 0)
(-0.000130958 -1.89815e-05 0)
(-0.000119863 -2.72276e-05 0)
(-0.000103383 -3.71e-05 0)
(-8.05885e-05 -4.75649e-05 0)
(-5.14745e-05 -5.64868e-05 0)
(-1.77166e-05 -6.1551e-05 0)
(1.77166e-05 -6.1551e-05 0)
(5.14745e-05 -5.64868e-05 0)
(8.05885e-05 -4.75649e-05 0)
(0.000103383 -3.71e-05 0)
(0.000119863 -2.72276e-05 0)
(0.000130958 -1.89815e-05 0)
(0.000138219 -1.32868e-05 0)
(0.000143287 -9.54717e-06 0)
(0.000147253 -4.81063e-06 0)
(0.000151996 -5.05497e-06 0)
(0.000155708 -2.95584e-06 0)
(0.000159271 -5.547e-06 0)
(0.000165407 -6.75641e-06 0)
(0.000165148 -1.10113e-06 0)
(8.11329e-05 5.10377e-06 0)
(3.70647e-07 -1.28002e-15 0)
(6.5013e-19 -9.8748e-16 0)
(5.18723e-19 -9.87395e-16 0)
(5.65617e-19 -9.87763e-16 0)
(4.29127e-19 -9.87823e-16 0)
(3.52004e-19 -9.87847e-16 0)
(2.99019e-19 -9.87861e-16 0)
(2.58896e-19 -9.8787e-16 0)
(2.26889e-19 -9.87875e-16 0)
(2.00408e-19 -9.87879e-16 0)
(1.77876e-19 -9.87882e-16 0)
(1.58274e-19 -9.87884e-16 0)
(1.40906e-19 -9.87885e-16 0)
(1.2528e-19 -9.87886e-16 0)
(1.11033e-19 -9.87887e-16 0)
(9.78933e-20 -9.87888e-16 0)
(8.56485e-20 -9.87889e-16 0)
(7.41304e-20 -9.87889e-16 0)
(6.32022e-20 -9.8789e-16 0)
(5.27503e-20 -9.8789e-16 0)
(4.26784e-20 -9.87891e-16 0)
(3.29027e-20 -9.87891e-16 0)
(2.33487e-20 -9.87891e-16 0)
(1.39488e-20 -9.87891e-16 0)
(4.63962e-21 -9.87891e-16 0)
(-4.63167e-21 -9.87888e-16 0)
(-1.39247e-20 -9.87888e-16 0)
(-2.33078e-20 -9.87888e-16 0)
(-3.28438e-20 -9.87888e-16 0)
(-4.25997e-20 -9.87888e-16 0)
(-5.26494e-20 -9.87887e-16 0)
(-6.30756e-20 -9.87887e-16 0)
(-7.39735e-20 -9.87886e-16 0)
(-8.54551e-20 -9.87886e-16 0)
(-9.76549e-20 -9.87885e-16 0)
(-1.10738e-19 -9.87884e-16 0)
(-1.24911e-19 -9.87882e-16 0)
(-1.4044e-19 -9.87881e-16 0)
(-1.57674e-19 -9.87879e-16 0)
(-1.77086e-19 -9.87876e-16 0)
(-1.99335e-19 -9.87872e-16 0)
(-2.25376e-19 -9.87867e-16 0)
(-2.56646e-19 -9.8786e-16 0)
(-2.95433e-19 -9.87849e-16 0)
(-3.45671e-19 -9.87831e-16 0)
(-4.14969e-19 -9.87798e-16 0)
(-5.12404e-19 -9.87722e-16 0)
(-4.81968e-19 -9.87457e-16 0)
(-4.05437e-19 -9.87474e-16 0)
(-4.28644e-19 -9.87369e-16 0)
(-1.21574e-09 -9.7655e-16 0)
(-5.83299e-05 -4.35863e-07 0)
(-0.00013504 -3.93229e-06 0)
(-0.000152298 -7.05113e-06 0)
(-0.000151737 -3.21867e-06 0)
(-0.000149175 -6.91031e-06 0)
(-0.000145493 -5.58784e-06 0)
(-0.000143101 -1.21651e-05 0)
(-0.000139141 -1.65629e-05 0)
(-0.000133749 -2.38616e-05 0)
(-0.000124451 -3.53971e-05 0)
(-0.000109124 -4.92164e-05 0)
(-8.64305e-05 -6.442e-05 0)
(-5.58184e-05 -7.76589e-05 0)
(-1.93025e-05 -8.51169e-05 0)
(1.93025e-05 -8.51169e-05 0)
(5.58184e-05 -7.76589e-05 0)
(8.64305e-05 -6.442e-05 0)
(0.000109124 -4.92164e-05 0)
(0.000124451 -3.53971e-05 0)
(0.000133749 -2.38616e-05 0)
(0.000139141 -1.65629e-05 0)
(0.000143101 -1.21651e-05 0)
(0.000145493 -5.58784e-06 0)
(0.000149175 -6.91031e-06 0)
(0.000151737 -3.21867e-06 0)
(0.000152298 -7.05113e-06 0)
(0.00013504 -3.93229e-06 0)
(5.83299e-05 -4.35863e-07 0)
(1.21574e-09 -9.7655e-16 0)
(4.28644e-19 -9.87369e-16 0)
(4.05437e-19 -9.87474e-16 0)
(4.81968e-19 -9.87457e-16 0)
(5.12404e-19 -9.87722e-16 0)
(4.14969e-19 -9.87798e-16 0)
(3.45671e-19 -9.87831e-16 0)
(2.95433e-19 -9.87849e-16 0)
(2.56646e-19 -9.8786e-16 0)
(2.25376e-19 -9.87867e-16 0)
(1.99335e-19 -9.87872e-16 0)
(1.77086e-19 -9.87876e-16 0)
(1.57674e-19 -9.87879e-16 0)
(1.4044e-19 -9.87881e-16 0)
(1.24911e-19 -9.87882e-16 0)
(1.10738e-19 -9.87884e-16 0)
(9.76549e-20 -9.87885e-16 0)
(8.54551e-20 -9.87886e-16 0)
(7.39735e-20 -9.87886e-16 0)
(6.30756e-20 -9.87887e-16 0)
(5.26494e-20 -9.87887e-16 0)
(4.25997e-20 -9.87888e-16 0)
(3.28438e-20 -9.87888e-16 0)
(2.33078e-20 -9.87888e-16 0)
(1.39247e-20 -9.87888e-16 0)
(4.63167e-21 -9.87888e-16 0)
(-4.62025e-21 -9.87886e-16 0)
(-1.38902e-20 -9.87885e-16 0)
(-2.32491e-20 -9.87885e-16 0)
(-3.27592e-20 -9.87885e-16 0)
(-4.24868e-20 -9.87885e-16 0)
(-5.25045e-20 -9.87884e-16 0)
(-6.28939e-20 -9.87884e-16 0)
(-7.37485e-20 -9.87883e-16 0)
(-8.51778e-20 -9.87882e-16 0)
(-9.73133e-20 -9.87881e-16 0)
(-1.10315e-19 -9.8788e-16 0)
(-1.24384e-19 -9.87878e-16 0)
(-1.39774e-19 -9.87876e-16 0)
(-1.56818e-19 -9.87873e-16 0)
(-1.75962e-19 -9.87869e-16 0)
(-1.97815e-19 -9.87865e-16 0)
(-2.23241e-19 -9.87858e-16 0)
(-2.53496e-19 -9.87849e-16 0)
(-2.9046e-19 -9.87836e-16 0)
(-3.36994e-19 -9.87814e-16 0)
(-3.96886e-19 -9.87775e-16 0)
(-4.6564e-19 -9.87694e-16 0)
(-4.45837e-19 -9.87501e-16 0)
(-3.87435e-19 -9.87472e-16 0)
(-3.68559e-19 -9.87371e-16 0)
(-1.78569e-19 -9.87142e-16 0)
(5.58767e-20 -9.86527e-16 0)
(-1.78061e-05 -3.095e-11 0)
(-8.47432e-05 -3.85026e-06 0)
(-0.000141098 -1.62755e-06 0)
(-0.000145204 -9.13149e-06 0)
(-0.000143764 -5.38755e-06 0)
(-0.000143674 -1.48043e-05 0)
(-0.000141052 -1.87197e-05 0)
(-0.000138839 -2.71343e-05 0)
(-0.000132448 -4.31608e-05 0)
(-0.000118949 -6.16354e-05 0)
(-9.65669e-05 -8.35082e-05 0)
(-6.33443e-05 -0.000103192 0)
(-2.20172e-05 -0.000113999 0)
(2.20172e-05 -0.000113999 0)
(6.33443e-05 -0.000103192 0)
(9.65669e-05 -8.35082e-05 0)
(0.000118949 -6.16354e-05 0)
(0.000132448 -4.31608e-05 0)
(0.000138839 -2.71343e-05 0)
(0.000141052 -1.87197e-05 0)
(0.000143674 -1.48043e-05 0)
(0.000143764 -5.38755e-06 0)
(0.000145204 -9.13149e-06 0)
(0.000141098 -1.62755e-06 0)
(8.47432e-05 -3.85026e-06 0)
(1.78061e-05 -3.095e-11 0)
(-5.58767e-20 -9.86527e-16 0)
(1.78569e-19 -9.87142e-16 0)
(3.68559e-19 -9.87371e-16 0)
(3.87435e-19 -9.87472e-16 0)
(4.45837e-19 -9.87501e-16 0)
(4.6564e-19 -9.87694e-16 0)
(3.96886e-19 -9.87775e-16 0)
(3.36994e-19 -9.87814e-16 0)
(2.9046e-19 -9.87836e-16 0)
(2.53496e-19 -9.87849e-16 0)
(2.23241e-19 -9.87858e-16 0)
(1.97815e-19 -9.87865e-16 0)
(1.75962e-19 -9.87869e-16 0)
(1.56818e-19 -9.87873e-16 0)
(1.39774e-19 -9.87876e-16 0)
(1.24384e-19 -9.87878e-16 0)
(1.10315e-19 -9.8788e-16 0)
(9.73133e-20 -9.87881e-16 0)
(8.51778e-20 -9.87882e-16 0)
(7.37485e-20 -9.87883e-16 0)
(6.28939e-20 -9.87884e-16 0)
(5.25045e-20 -9.87884e-16 0)
(4.24868e-20 -9.87885e-16 0)
(3.27592e-20 -9.87885e-16 0)
(2.32491e-20 -9.87885e-16 0)
(1.38902e-20 -9.87885e-16 0)
(4.62025e-21 -9.87886e-16 0)
(-4.60451e-21 -9.87882e-16 0)
(-1.38425e-20 -9.87882e-16 0)
(-2.31682e-20 -9.87882e-16 0)
(-3.26428e-20 -9.87882e-16 0)
(-4.23313e-20 -9.87881e-16 0)
(-5.23051e-20 -9.87881e-16 0)
(-6.26439e-20 -9.8788e-16 0)
(-7.34389e-20 -9.87879e-16 0)
(-8.47966e-20 -9.87878e-16 0)
(-9.6844e-20 -9.87877e-16 0)
(-1.09735e-19 -9.87875e-16 0)
(-1.23661e-19 -9.87873e-16 0)
(-1.38862e-19 -9.8787e-16 0)
(-1.5565e-19 -9.87867e-16 0)
(-1.74433e-19 -9.87863e-16 0)
(-1.95758e-19 -9.87857e-16 0)
(-2.20373e-19 -9.87849e-16 0)
(-2.49308e-19 -9.87838e-16 0)
(-2.83961e-19 -9.87823e-16 0)
(-3.2602e-19 -9.87797e-16 0)
(-3.76085e-19 -9.87755e-16 0)
(-4.24015e-19 -9.87675e-16 0)
(-4.10421e-19 -9.8753e-16 0)
(-3.63375e-19 -9.87478e-16 0)
(-3.22148e-19 -9.87386e-16 0)
(-1.71481e-19 -9.87242e-16 0)
(1.28164e-21 -9.87352e-16 0)
(-6.41661e-21 -9.87515e-16 0)
(-4.52075e-11 -8.58688e-16 0)
(-4.09481e-05 -3.27089e-08 0)
(-0.000105179 -5.17246e-06 0)
(-0.000136953 -2.52676e-06 0)
(-0.000142994 -1.8335e-05 0)
(-0.000142184 -1.82489e-05 0)
(-0.000146429 -2.62215e-05 0)
(-0.000145024 -5.01595e-05 0)
(-0.000134566 -7.30663e-05 0)
(-0.000113619 -0.000105301 0)
(-7.60396e-05 -0.000135739 0)
(-2.64794e-05 -0.000151219 0)
(2.64794e-05 -0.000151219 0)
(7.60396e-05 -0.000135739 0)
(0.000113619 -0.000105301 0)
(0.000134566 -7.30663e-05 0)
(0.000145024 -5.01595e-05 0)
(0.000146429 -2.62215e-05 0)
(0.000142184 -1.82489e-05 0)
(0.000142994 -1.8335e-05 0)
(0.000136953 -2.52676e-06 0)
(0.000105179 -5.17246e-06 0)
(4.09481e-05 -3.27089e-08 0)
(4.52075e-11 -8.58688e-16 0)
(6.41661e-21 -9.87515e-16 0)
(-1.28164e-21 -9.87352e-16 0)
(1.71481e-19 -9.87242e-16 0)
(3.22148e-19 -9.87386e-16 0)
(3.63375e-19 -9.87478e-16 0)
(4.10421e-19 -9.8753e-16 0)
(4.24015e-19 -9.87675e-16 0)
(3.76085e-19 -9.87755e-16 0)
(3.2602e-19 -9.87797e-16 0)
(2.83961e-19 -9.87823e-16 0)
(2.49308e-19 -9.87838e-16 0)
(2.20373e-19 -9.87849e-16 0)
(1.95758e-19 -9.87857e-16 0)
(1.74433e-19 -9.87863e-16 0)
(1.5565e-19 -9.87867e-16 0)
(1.38862e-19 -9.8787e-16 0)
(1.23661e-19 -9.87873e-16 0)
(1.09735e-19 -9.87875e-16 0)
(9.6844e-20 -9.87877e-16 0)
(8.47966e-20 -9.87878e-16 0)
(7.34389e-20 -9.87879e-16 0)
(6.26439e-20 -9.8788e-16 0)
(5.23051e-20 -9.87881e-16 0)
(4.23313e-20 -9.87881e-16 0)
(3.26428e-20 -9.87882e-16 0)
(2.31682e-20 -9.87882e-16 0)
(1.38425e-20 -9.87882e-16 0)
(4.60451e-21 -9.87882e-16 0)
(-4.58345e-21 -9.87879e-16 0)
(-1.37787e-20 -9.87879e-16 0)
(-2.306e-20 -9.87879e-16 0)
(-3.24869e-20 -9.87878e-16 0)
(-4.21233e-20 -9.87878e-16 0)
(-5.20384e-20 -9.87877e-16 0)
(-6.23097e-20 -9.87876e-16 0)
(-7.30254e-20 -9.87875e-16 0)
(-8.4288e-20 -9.87874e-16 0)
(-9.62184e-20 -9.87872e-16 0)
(-1.08963e-19 -9.8787e-16 0)
(-1.22701e-19 -9.87868e-16 0)
(-1.37654e-19 -9.87864e-16 0)
(-1.54107e-19 -9.8786e-16 0)
(-1.72422e-19 -9.87855e-16 0)
(-1.93069e-19 -9.87849e-16 0)
(-2.16659e-19 -9.8784e-16 0)
(-2.43964e-19 -9.87827e-16 0)
(-2.75861e-19 -9.87809e-16 0)
(-3.12931e-19 -9.87782e-16 0)
(-3.53551e-19 -9.87737e-16 0)
(-3.8644e-19 -9.87663e-16 0)
(-3.75968e-19 -9.87551e-16 0)
(-3.36221e-19 -9.87489e-16 0)
(-2.85614e-19 -9.87409e-16 0)
(-1.66609e-19 -9.87318e-16 0)
(-4.00369e-20 -9.87386e-16 0)
(-2.49338e-20 -9.87498e-16 0)
(-4.35565e-20 -9.87473e-16 0)
(5.45435e-20 -9.87194e-16 0)
(-1.94126e-10 -7.92713e-16 0)
(-4.19009e-05 -4.99661e-08 0)
(-9.8757e-05 -1.02505e-05 0)
(-0.000124694 -8.54293e-06 0)
(-0.000150221 -1.2135e-05 0)
(-0.000160642 -5.7394e-05 0)
(-0.000156772 -7.82322e-05 0)
(-0.000142543 -0.000129699 0)
(-9.75735e-05 -0.000180937 0)
(-3.35446e-05 -0.000201798 0)
(3.35446e-05 -0.000201798 0)
(9.75735e-05 -0.000180937 0)
(0.000142543 -0.000129699 0)
(0.000156772 -7.82322e-05 0)
(0.000160642 -5.7394e-05 0)
(0.000150221 -1.2135e-05 0)
(0.000124694 -8.54293e-06 0)
(9.8757e-05 -1.02505e-05 0)
(4.19009e-05 -4.99661e-08 0)
(1.94126e-10 -7.92713e-16 0)
(-5.45435e-20 -9.87194e-16 0)
(4.35565e-20 -9.87473e-16 0)
(2.49338e-20 -9.87498e-16 0)
(4.00369e-20 -9.87386e-16 0)
(1.66609e-19 -9.87318e-16 0)
(2.85614e-19 -9.87409e-16 0)
(3.36221e-19 -9.87489e-16 0)
(3.75968e-19 -9.87551e-16 0)
(3.8644e-19 -9.87663e-16 0)
(3.53551e-19 -9.87737e-16 0)
(3.12931e-19 -9.87782e-16 0)
(2.75861e-19 -9.87809e-16 0)
(2.43964e-19 -9.87827e-16 0)
(2.16659e-19 -9.8784e-16 0)
(1.93069e-19 -9.87849e-16 0)
(1.72422e-19 -9.87855e-16 0)
(1.54107e-19 -9.8786e-16 0)
(1.37654e-19 -9.87864e-16 0)
(1.22701e-19 -9.87868e-16 0)
(1.08963e-19 -9.8787e-16 0)
(9.62184e-20 -9.87872e-16 0)
(8.4288e-20 -9.87874e-16 0)
(7.30254e-20 -9.87875e-16 0)
(6.23097e-20 -9.87876e-16 0)
(5.20384e-20 -9.87877e-16 0)
(4.21233e-20 -9.87878e-16 0)
(3.24869e-20 -9.87878e-16 0)
(2.306e-20 -9.87879e-16 0)
(1.37787e-20 -9.87879e-16 0)
(4.58345e-21 -9.87879e-16 0)
(-4.55586e-21 -9.87875e-16 0)
(-1.36952e-20 -9.87875e-16 0)
(-2.29182e-20 -9.87875e-16 0)
(-3.22829e-20 -9.87874e-16 0)
(-4.1851e-20 -9.87874e-16 0)
(-5.16896e-20 -9.87873e-16 0)
(-6.1873e-20 -9.87872e-16 0)
(-7.24856e-20 -9.87871e-16 0)
(-8.36245e-20 -9.87869e-16 0)
(-9.54037e-20 -9.87867e-16 0)
(-1.07959e-19 -9.87865e-16 0)
(-1.21455e-19 -9.87862e-16 0)
(-1.36093e-19 -9.87858e-16 0)
(-1.52121e-19 -9.87854e-16 0)
(-1.69848e-19 -9.87848e-16 0)
(-1.89655e-19 -9.8784e-16 0)
(-2.11999e-19 -9.8783e-16 0)
(-2.37376e-19 -9.87816e-16 0)
(-2.6616e-19 -9.87796e-16 0)
(-2.98015e-19 -9.87767e-16 0)
(-3.30056e-19 -9.87723e-16 0)
(-3.52075e-19 -9.87656e-16 0)
(-3.42805e-19 -9.87567e-16 0)
(-3.08154e-19 -9.87503e-16 0)
(-2.56348e-19 -9.87436e-16 0)
(-1.62461e-19 -9.87378e-16 0)
(-6.77464e-20 -9.87416e-16 0)
(-3.99179e-20 -9.87485e-16 0)
(-3.50499e-20 -9.8748e-16 0)
(2.00268e-20 -9.87465e-16 0)
(-1.28006e-20 -9.87612e-16 0)
(3.99852e-20 -9.87106e-16 0)
(7.8349e-20 -8.53383e-16 0)
(-9.85873e-12 -7.58318e-16 0)
(-1.50759e-05 -8.37018e-09 0)
(-6.96471e-05 -3.06736e-05 0)
(-0.000151255 -3.90977e-05 0)
(-0.000185513 -0.000150446 0)
(-0.00013185 -0.000251755 0)
(-4.30211e-05 -0.000272603 0)
(4.30211e-05 -0.000272603 0)
(0.00013185 -0.000251755 0)
(0.000185513 -0.000150446 0)
(0.000151255 -3.90977e-05 0)
(6.96471e-05 -3.06736e-05 0)
(1.50759e-05 -8.37018e-09 0)
(9.85873e-12 -7.58318e-16 0)
(-7.8349e-20 -8.53383e-16 0)
(-3.99852e-20 -9.87106e-16 0)
(1.28006e-20 -9.87612e-16 0)
(-2.00268e-20 -9.87465e-16 0)
(3.50499e-20 -9.8748e-16 0)
(3.99179e-20 -9.87485e-16 0)
(6.77464e-20 -9.87416e-16 0)
(1.62461e-19 -9.87378e-16 0)
(2.56348e-19 -9.87436e-16 0)
(3.08154e-19 -9.87503e-16 0)
(3.42805e-19 -9.87567e-16 0)
(3.52075e-19 -9.87656e-16 0)
(3.30056e-19 -9.87723e-16 0)
(2.98015e-19 -9.87767e-16 0)
(2.6616e-19 -9.87796e-16 0)
(2.37376e-19 -9.87816e-16 0)
(2.11999e-19 -9.8783e-16 0)
(1.89655e-19 -9.8784e-16 0)
(1.69848e-19 -9.87848e-16 0)
(1.52121e-19 -9.87854e-16 0)
(1.36093e-19 -9.87858e-16 0)
(1.21455e-19 -9.87862e-16 0)
(1.07959e-19 -9.87865e-16 0)
(9.54037e-20 -9.87867e-16 0)
(8.36245e-20 -9.87869e-16 0)
(7.24856e-20 -9.87871e-16 0)
(6.1873e-20 -9.87872e-16 0)
(5.16896e-20 -9.87873e-16 0)
(4.1851e-20 -9.87874e-16 0)
(3.22829e-20 -9.87874e-16 0)
(2.29182e-20 -9.87875e-16 0)
(1.36952e-20 -9.87875e-16 0)
(4.55586e-21 -9.87875e-16 0)
(-4.52034e-21 -9.87871e-16 0)
(-1.35877e-20 -9.87871e-16 0)
(-2.27358e-20 -9.87871e-16 0)
(-3.20205e-20 -9.8787e-16 0)
(-4.1501e-20 -9.87869e-16 0)
(-5.12415e-20 -9.87869e-16 0)
(-6.13125e-20 -9.87867e-16 0)
(-7.17935e-20 -9.87866e-16 0)
(-8.27751e-20 -9.87864e-16 0)
(-9.43626e-20 -9.87862e-16 0)
(-1.0668e-19 -9.87859e-16 0)
(-1.19872e-19 -9.87856e-16 0)
(-1.34116e-19 -9.87851e-16 0)
(-1.49619e-19 -9.87846e-16 0)
(-1.66629e-19 -9.87839e-16 0)
(-1.85429e-19 -9.87831e-16 0)
(-2.06311e-19 -9.8782e-16 0)
(-2.29504e-19 -9.87804e-16 0)
(-2.54935e-19 -9.87783e-16 0)
(-2.81619e-19 -9.87753e-16 0)
(-3.06191e-19 -9.87711e-16 0)
(-3.20331e-19 -9.87651e-16 0)
(-3.11254e-19 -9.87579e-16 0)
(-2.8063e-19 -9.8752e-16 0)
(-2.32246e-19 -9.87464e-16 0)
(-1.58068e-19 -9.87424e-16 0)
(-8.54271e-20 -9.87444e-16 0)
(-5.19891e-20 -9.87485e-16 0)
(-3.52619e-20 -9.8749e-16 0)
(-1.12566e-21 -9.87494e-16 0)
(-8.50703e-21 -9.87566e-16 0)
(1.3095e-20 -9.87488e-16 0)
(3.62373e-20 -9.87605e-16 0)
(-1.03853e-20 -9.87595e-16 0)
(1.7357e-20 -9.8741e-16 0)
(-8.8602e-13 -9.48328e-16 0)
(-4.86201e-06 -7.45184e-09 0)
(-7.50625e-05 -9.40281e-05 0)
(-0.000112987 -0.000325187 0)
(-4.27861e-05 -0.00035935 0)
(4.27861e-05 -0.00035935 0)
(0.000112987 -0.000325187 0)
(7.50625e-05 -9.40281e-05 0)
(4.86201e-06 -7.45184e-09 0)
(8.8602e-13 -9.48328e-16 0)
(-1.7357e-20 -9.8741e-16 0)
(1.03853e-20 -9.87595e-16 0)
(-3.62373e-20 -9.87605e-16 0)
(-1.3095e-20 -9.87488e-16 0)
(8.50703e-21 -9.87566e-16 0)
(1.12566e-21 -9.87494e-16 0)
(3.52619e-20 -9.8749e-16 0)
(5.19891e-20 -9.87485e-16 0)
(8.54271e-20 -9.87444e-16 0)
(1.58068e-19 -9.87424e-16 0)
(2.32246e-19 -9.87464e-16 0)
(2.8063e-19 -9.8752e-16 0)
(3.11254e-19 -9.87579e-16 0)
(3.20331e-19 -9.87651e-16 0)
(3.06191e-19 -9.87711e-16 0)
(2.81619e-19 -9.87753e-16 0)
(2.54935e-19 -9.87783e-16 0)
(2.29504e-19 -9.87804e-16 0)
(2.06311e-19 -9.8782e-16 0)
(1.85429e-19 -9.87831e-16 0)
(1.66629e-19 -9.87839e-16 0)
(1.49619e-19 -9.87846e-16 0)
(1.34116e-19 -9.87851e-16 0)
(1.19872e-19 -9.87856e-16 0)
(1.0668e-19 -9.87859e-16 0)
(9.43626e-20 -9.87862e-16 0)
(8.27751e-20 -9.87864e-16 0)
(7.17935e-20 -9.87866e-16 0)
(6.13125e-20 -9.87867e-16 0)
(5.12415e-20 -9.87869e-16 0)
(4.1501e-20 -9.87869e-16 0)
(3.20205e-20 -9.8787e-16 0)
(2.27358e-20 -9.87871e-16 0)
(1.35877e-20 -9.87871e-16 0)
(4.52034e-21 -9.87871e-16 0)
(-4.47528e-21 -9.87867e-16 0)
(-1.34513e-20 -9.87867e-16 0)
(-2.25045e-20 -9.87866e-16 0)
(-3.16879e-20 -9.87866e-16 0)
(-4.10577e-20 -9.87865e-16 0)
(-5.06744e-20 -9.87864e-16 0)
(-6.06039e-20 -9.87862e-16 0)
(-7.09198e-20 -9.87861e-16 0)
(-8.1705e-20 -9.87859e-16 0)
(-9.30539e-20 -9.87856e-16 0)
(-1.05076e-19 -9.87853e-16 0)
(-1.17896e-19 -9.87849e-16 0)
(-1.31659e-19 -9.87844e-16 0)
(-1.46531e-19 -9.87838e-16 0)
(-1.6269e-19 -9.87831e-16 0)
(-1.80317e-19 -9.87822e-16 0)
(-1.99545e-19 -9.87809e-16 0)
(-2.20358e-19 -9.87793e-16 0)
(-2.42336e-19 -9.87771e-16 0)
(-2.64118e-19 -9.87742e-16 0)
(-2.824e-19 -9.87702e-16 0)
(-2.9082e-19 -9.8765e-16 0)
(-2.81574e-19 -9.8759e-16 0)
(-2.54501e-19 -9.87538e-16 0)
(-2.11707e-19 -9.87491e-16 0)
(-1.52899e-19 -9.87462e-16 0)
(-9.58565e-20 -9.87469e-16 0)
(-6.14084e-20 -9.87493e-16 0)
(-3.94747e-20 -9.87502e-16 0)
(-1.48337e-20 -9.87511e-16 0)
(-1.04245e-20 -9.87547e-16 0)
(1.50109e-21 -9.87523e-16 0)
(1.48504e-20 -9.87566e-16 0)
(2.06099e-21 -9.87569e-16 0)
(9.50667e-22 -9.87557e-16 0)
(-2.95022e-19 -9.87588e-16 0)
(-1.10364e-08 -1.34675e-14 0)
(-7.97072e-06 -2.17875e-05 0)
(-2.37307e-05 -0.000346295 0)
(-1.57711e-05 -0.000423493 0)
(1.57711e-05 -0.000423493 0)
(2.37307e-05 -0.000346295 0)
(7.97072e-06 -2.17875e-05 0)
(1.10364e-08 -1.34675e-14 0)
(2.95022e-19 -9.87588e-16 0)
(-9.50667e-22 -9.87557e-16 0)
(-2.06099e-21 -9.87569e-16 0)
(-1.48504e-20 -9.87566e-16 0)
(-1.50109e-21 -9.87523e-16 0)
(1.04245e-20 -9.87547e-16 0)
(1.48337e-20 -9.87511e-16 0)
(3.94747e-20 -9.87502e-16 0)
(6.14084e-20 -9.87493e-16 0)
(9.58565e-20 -9.87469e-16 0)
(1.52899e-19 -9.87462e-16 0)
(2.11707e-19 -9.87491e-16 0)
(2.54501e-19 -9.87538e-16 0)
(2.81574e-19 -9.8759e-16 0)
(2.9082e-19 -9.8765e-16 0)
(2.824e-19 -9.87702e-16 0)
(2.64118e-19 -9.87742e-16 0)
(2.42336e-19 -9.87771e-16 0)
(2.20358e-19 -9.87793e-16 0)
(1.99545e-19 -9.87809e-16 0)
(1.80317e-19 -9.87822e-16 0)
(1.6269e-19 -9.87831e-16 0)
(1.46531e-19 -9.87838e-16 0)
(1.31659e-19 -9.87844e-16 0)
(1.17896e-19 -9.87849e-16 0)
(1.05076e-19 -9.87853e-16 0)
(9.30539e-20 -9.87856e-16 0)
(8.1705e-20 -9.87859e-16 0)
(7.09198e-20 -9.87861e-16 0)
(6.06039e-20 -9.87862e-16 0)
(5.06744e-20 -9.87864e-16 0)
(4.10577e-20 -9.87865e-16 0)
(3.16879e-20 -9.87866e-16 0)
(2.25045e-20 -9.87866e-16 0)
(1.34513e-20 -9.87867e-16 0)
(4.47528e-21 -9.87867e-16 0)
(-4.41885e-21 -9.87862e-16 0)
(-1.32806e-20 -9.87862e-16 0)
(-2.22149e-20 -9.87861e-16 0)
(-3.12718e-20 -9.87861e-16 0)
(-4.05036e-20 -9.8786e-16 0)
(-4.99664e-20 -9.87859e-16 0)
(-5.97205e-20 -9.87857e-16 0)
(-6.98325e-20 -9.87855e-16 0)
(-8.03761e-20 -9.87853e-16 0)
(-9.14335e-20 -9.8785e-16 0)
(-1.03097e-19 -9.87846e-16 0)
(-1.15468e-19 -9.87842e-16 0)
(-1.2866e-19 -9.87837e-16 0)
(-1.42789e-19 -9.8783e-16 0)
(-1.57966e-19 -9.87822e-16 0)
(-1.74269e-19 -9.87812e-16 0)
(-1.91688e-19 -9.87799e-16 0)
(-2.10006e-19 -9.87782e-16 0)
(-2.28572e-19 -9.8776e-16 0)
(-2.45886e-19 -9.87732e-16 0)
(-2.59019e-19 -9.87695e-16 0)
(-2.63312e-19 -9.8765e-16 0)
(-2.53924e-19 -9.876e-16 0)
(-2.30167e-19 -9.87555e-16 0)
(-1.93584e-19 -9.87517e-16 0)
(-1.46743e-19 -9.87493e-16 0)
(-1.01081e-19 -9.87493e-16 0)
(-6.82976e-20 -9.87505e-16 0)
(-4.48401e-20 -9.87514e-16 0)
(-2.43042e-20 -9.87524e-16 0)
(-1.4595e-20 -9.87543e-16 0)
(-5.11145e-21 -9.87539e-16 0)
(2.84829e-21 -9.87556e-16 0)
(-5.50397e-22 -9.8756e-16 0)
(-4.04194e-21 -9.8756e-16 0)
(-2.58428e-20 -9.87564e-16 0)
(-1.1087e-09 -2.23903e-15 0)
(-1.41372e-06 -1.21683e-05 0)
(-5.80681e-06 -0.0003342 0)
(-4.3942e-06 -0.000448114 0)
(4.3942e-06 -0.000448114 0)
(5.80681e-06 -0.0003342 0)
(1.41372e-06 -1.21683e-05 0)
(1.1087e-09 -2.23903e-15 0)
(2.58428e-20 -9.87564e-16 0)
(4.04194e-21 -9.8756e-16 0)
(5.50397e-22 -9.8756e-16 0)
(-2.84829e-21 -9.87556e-16 0)
(5.11145e-21 -9.87539e-16 0)
(1.4595e-20 -9.87543e-16 0)
(2.43042e-20 -9.87524e-16 0)
(4.48401e-20 -9.87514e-16 0)
(6.82976e-20 -9.87505e-16 0)
(1.01081e-19 -9.87493e-16 0)
(1.46743e-19 -9.87493e-16 0)
(1.93584e-19 -9.87517e-16 0)
(2.30167e-19 -9.87555e-16 0)
(2.53924e-19 -9.876e-16 0)
(2.63312e-19 -9.8765e-16 0)
(2.59019e-19 -9.87695e-16 0)
(2.45886e-19 -9.87732e-16 0)
(2.28572e-19 -9.8776e-16 0)
(2.10006e-19 -9.87782e-16 0)
(1.91688e-19 -9.87799e-16 0)
(1.74269e-19 -9.87812e-16 0)
(1.57966e-19 -9.87822e-16 0)
(1.42789e-19 -9.8783e-16 0)
(1.2866e-19 -9.87837e-16 0)
(1.15468e-19 -9.87842e-16 0)
(1.03097e-19 -9.87846e-16 0)
(9.14335e-20 -9.8785e-16 0)
(8.03761e-20 -9.87853e-16 0)
(6.98325e-20 -9.87855e-16 0)
(5.97205e-20 -9.87857e-16 0)
(4.99664e-20 -9.87859e-16 0)
(4.05036e-20 -9.8786e-16 0)
(3.12718e-20 -9.87861e-16 0)
(2.22149e-20 -9.87861e-16 0)
(1.32806e-20 -9.87862e-16 0)
(4.41885e-21 -9.87862e-16 0)
(-4.34899e-21 -9.87857e-16 0)
(-1.30693e-20 -9.87857e-16 0)
(-2.18567e-20 -9.87856e-16 0)
(-3.07575e-20 -9.87855e-16 0)
(-3.98195e-20 -9.87854e-16 0)
(-4.90933e-20 -9.87853e-16 0)
(-5.86331e-20 -9.87851e-16 0)
(-6.84971e-20 -9.87849e-16 0)
(-7.87485e-20 -9.87846e-16 0)
(-8.94557e-20 -9.87843e-16 0)
(-1.00692e-19 -9.87839e-16 0)
(-1.12535e-19 -9.87835e-16 0)
(-1.25061e-19 -9.87829e-16 0)
(-1.38338e-19 -9.87822e-16 0)
(-1.52411e-19 -9.87813e-16 0)
(-1.67266e-19 -9.87803e-16 0)
(-1.82772e-19 -9.87789e-16 0)
(-1.9857e-19 -9.87772e-16 0)
(-2.13888e-19 -9.87751e-16 0)
(-2.27272e-19 -9.87724e-16 0)
(-2.36299e-19 -9.8769e-16 0)
(-2.37667e-19 -9.87651e-16 0)
(-2.28351e-19 -9.8761e-16 0)
(-2.0772e-19 -9.87571e-16 0)
(-1.77101e-19 -9.8754e-16 0)
(-1.39601e-19 -9.8752e-16 0)
(-1.0255e-19 -9.87515e-16 0)
(-7.27679e-20 -9.8752e-16 0)
(-4.97583e-20 -9.87526e-16 0)
(-3.11092e-20 -9.87534e-16 0)
(-1.90945e-20 -9.87545e-16 0)
(-9.69347e-21 -9.87548e-16 0)
(-3.57112e-21 -9.87555e-16 0)
(-3.25908e-21 -9.87558e-16 0)
(-3.85692e-21 -9.87558e-16 0)
(-7.18382e-21 -9.87556e-16 0)
(-1.36431e-10 -1.5903e-15 0)
(-3.50529e-07 -9.76643e-06 0)
(-2.41687e-06 -0.000327698 0)
(-2.06648e-06 -0.00045694 0)
(2.06648e-06 -0.00045694 0)