/*--------------------------------*- C++ -*----------------------------------*\
  =========                 |
  \\      /  F ield         | OpenFOAM: The Open Source CFD Toolbox
   \\    /   O peration     | Website:  https://openfoam.org
    \\  /    A nd           | Version:  10
     \\/     M anipulation  |
\*---------------------------------------------------------------------------*/
FoamFile
{
    format      ascii;
    class       volVectorField;
    location    "9500";
    object      Ua;
}
// * * * * * * * * * * * * * * * * * * * * * * * * * * * * * * * * * * * * * //

dimensions      [0 1 -1 0 0 0 0];

internalField   nonuniform List<vector> 
3200
(
(-2.84847e-07 4.11366e-07 0)
(-8.51261e-07 4.1392e-07 0)
(-1.4128e-06 4.18959e-07 0)
(-1.97275e-06 4.26478e-07 0)
(-2.53426e-06 4.36534e-07 0)
(-3.10041e-06 4.49239e-07 0)
(-3.67431e-06 4.64768e-07 0)
(-4.25913e-06 4.83364e-07 0)
(-4.85822e-06 5.05343e-07 0)
(-5.47516e-06 5.31112e-07 0)
(-6.11387e-06 5.61181e-07 0)
(-6.7787e-06 5.96192e-07 0)
(-7.47456e-06 6.36951e-07 0)
(-8.20708e-06 6.84469e-07 0)
(-8.98281e-06 7.40027e-07 0)
(-9.80946e-06 8.05259e-07 0)
(-1.06963e-05 8.8227e-07 0)
(-1.16545e-05 9.73804e-07 0)
(-1.26978e-05 1.08349e-06 0)
(-1.38434e-05 1.21618e-06 0)
(-1.51132e-05 1.37853e-06 0)
(-1.65353e-05 1.57976e-06 0)
(-1.8147e-05 1.83294e-06 0)
(-1.99978e-05 2.15698e-06 0)
(-2.21563e-05 2.57984e-06 0)
(-2.47183e-05 3.1437e-06 0)
(-2.78214e-05 3.9136e-06 0)
(-3.16677e-05 4.99179e-06 0)
(-3.65608e-05 6.54201e-06 0)
(-4.29669e-05 8.8308e-06 0)
(-5.16155e-05 1.22982e-05 0)
(-6.36679e-05 1.7679e-05 0)
(-8.10015e-05 2.62123e-05 0)
(-0.00010202 3.98351e-05 0)
(-6.02097e-05 7.9275e-05 0)
(-5.54185e-06 1.585e-05 0)
(-2.68835e-06 8.49281e-06 0)
(-1.55142e-06 5.48837e-06 0)
(-8.64479e-07 3.6005e-06 0)
(-3.10932e-07 1.99117e-06 0)
(-2.81126e-07 1.22873e-06 0)
(-8.40066e-07 1.23624e-06 0)
(-1.39397e-06 1.25107e-06 0)
(-1.94595e-06 1.27319e-06 0)
(-2.49893e-06 1.30275e-06 0)
(-3.05581e-06 1.34005e-06 0)
(-3.61944e-06 1.38561e-06 0)
(-4.19272e-06 1.44008e-06 0)
(-4.77867e-06 1.50435e-06 0)
(-5.38047e-06 1.57956e-06 0)
(-6.00153e-06 1.66711e-06 0)
(-6.64556e-06 1.76878e-06 0)
(-7.31666e-06 1.88675e-06 0)
(-8.0194e-06 2.02376e-06 0)
(-8.75892e-06 2.18321e-06 0)
(-9.54108e-06 2.36942e-06 0)
(-1.03726e-05 2.5878e-06 0)
(-1.12611e-05 2.84532e-06 0)
(-1.22154e-05 3.15093e-06 0)
(-1.32456e-05 3.51629e-06 0)
(-1.43633e-05 3.9568e-06 0)
(-1.55812e-05 4.49294e-06 0)
(-1.69132e-05 5.15236e-06 0)
(-1.83726e-05 5.9728e-06 0)
(-1.99705e-05 7.00641e-06 0)
(-2.17105e-05 8.32599e-06 0)
(-2.35784e-05 1.00343e-05 0)
(-2.55243e-05 1.22777e-05 0)
(-2.74259e-05 1.52661e-05 0)
(-2.90231e-05 1.93025e-05 0)
(-2.97948e-05 2.48255e-05 0)
(-2.87356e-05 3.24708e-05 0)
(-2.39499e-05 4.31578e-05 0)
(-1.19859e-05 5.80423e-05 0)
(-1.49962e-06 3.94899e-05 0)
(-4.28813e-06 1.70626e-05 0)
(-1.43043e-05 1.69643e-05 0)
(-2.52289e-05 1.88735e-05 0)
(-1.78558e-05 1.13929e-05 0)
(-2.42069e-06 1.32494e-06 0)
(-2.73895e-07 2.03027e-06 0)
(-8.18315e-07 2.04233e-06 0)
(-1.35742e-06 2.06613e-06 0)
(-1.89394e-06 2.10158e-06 0)
(-2.43048e-06 2.14889e-06 0)
(-2.96951e-06 2.2085e-06 0)
(-3.51348e-06 2.28113e-06 0)
(-4.06478e-06 2.36774e-06 0)
(-4.62584e-06 2.46963e-06 0)
(-5.19915e-06 2.58839e-06 0)
(-5.78724e-06 2.72605e-06 0)
(-6.39277e-06 2.88507e-06 0)
(-7.0185e-06 3.06848e-06 0)
(-7.66729e-06 3.27999e-06 0)
(-8.34215e-06 3.52411e-06 0)
(-9.04612e-06 3.80639e-06 0)
(-9.78227e-06 4.13363e-06 0)
(-1.05535e-05 4.51421e-06 0)
(-1.13624e-05 4.95846e-06 0)
(-1.22107e-05 5.47917e-06 0)
(-1.3099e-05 6.09215e-06 0)
(-1.40253e-05 6.81697e-06 0)
(-1.49842e-05 7.67773e-06 0)
(-1.5964e-05 8.70387e-06 0)
(-1.69445e-05 9.93085e-06 0)
(-1.78915e-05 1.14002e-05 0)
(-1.87514e-05 1.31585e-05 0)
(-1.94435e-05 1.52533e-05 0)
(-1.98519e-05 1.77245e-05 0)
(-1.98202e-05 2.05853e-05 0)
(-1.91567e-05 2.3786e-05 0)
(-1.76682e-05 2.71455e-05 0)
(-1.52592e-05 3.02288e-05 0)
(-1.21722e-05 3.21283e-05 0)
(-9.50551e-06 3.11089e-05 0)
(-8.19547e-06 2.95712e-05 0)
(-7.63582e-06 3.01269e-05 0)
(-6.49236e-06 3.27505e-05 0)
(-3.49518e-06 2.0287e-05 0)
(-4.65578e-07 9.06716e-07 0)
(-2.63544e-07 2.80642e-06 0)
(-7.87199e-07 2.8224e-06 0)
(-1.30517e-06 2.85389e-06 0)
(-1.81972e-06 2.90075e-06 0)
(-2.33297e-06 2.96316e-06 0)
(-2.8469e-06 3.0416e-06 0)
(-3.36338e-06 3.13688e-06 0)
(-3.88421e-06 3.25009e-06 0)
(-4.41108e-06 3.38267e-06 0)
(-4.94563e-06 3.53643e-06 0)
(-5.48941e-06 3.71357e-06 0)
(-6.04387e-06 3.91677e-06 0)
(-6.61031e-06 4.14925e-06 0)
(-7.18985e-06 4.41483e-06 0)
(-7.78332e-06 4.71806e-06 0)
(-8.39115e-06 5.06429e-06 0)
(-9.01322e-06 5.45984e-06 0)
(-9.64856e-06 5.91212e-06 0)
(-1.02951e-05 6.42974e-06 0)
(-1.09491e-05 7.02264e-06 0)
(-1.16046e-05 7.70215e-06 0)
(-1.22529e-05 8.48091e-06 0)
(-1.28812e-05 9.37267e-06 0)
(-1.34717e-05 1.03917e-05 0)
(-1.40003e-05 1.15516e-05 0)
(-1.44358e-05 1.28637e-05 0)
(-1.47385e-05 1.43339e-05 0)
(-1.48613e-05 1.59584e-05 0)
(-1.47519e-05 1.77172e-05 0)
(-1.43591e-05 1.95666e-05 0)
(-1.36443e-05 2.14306e-05 0)
(-1.25992e-05 2.3195e-05 0)
(-1.12685e-05 2.47123e-05 0)
(-9.76817e-06 2.58343e-05 0)
(-8.26945e-06 2.65076e-05 0)
(-6.88e-06 2.69931e-05 0)
(-5.5466e-06 2.75673e-05 0)
(-4.1379e-06 2.8242e-05 0)
(-1.96808e-06 1.8191e-05 0)
(-1.05506e-07 2.31697e-07 0)
(-2.50605e-07 3.54893e-06 0)
(-7.48324e-07 3.56805e-06 0)
(-1.23997e-06 3.60568e-06 0)
(-1.72729e-06 3.66158e-06 0)
(-2.21185e-06 3.73585e-06 0)
(-2.69507e-06 3.82894e-06 0)
(-3.17825e-06 3.94156e-06 0)
(-3.66251e-06 4.07479e-06 0)
(-4.14884e-06 4.22998e-06 0)
(-4.63804e-06 4.40885e-06 0)
(-5.13072e-06 4.61347e-06 0)
(-5.62726e-06 4.84627e-06 0)
(-6.1277e-06 5.11012e-06 0)
(-6.63172e-06 5.40832e-06 0)
(-7.13855e-06 5.74467e-06 0)
(-7.64675e-06 6.12342e-06 0)
(-8.15415e-06 6.54937e-06 0)
(-8.65758e-06 7.02776e-06 0)
(-9.15265e-06 7.56428e-06 0)
(-9.63346e-06 8.1649e-06 0)
(-1.00923e-05 8.83569e-06 0)
(-1.05192e-05 9.58243e-06 0)
(-1.0902e-05 1.04101e-05 0)
(-1.12256e-05 1.13223e-05 0)
(-1.14723e-05 1.23198e-05 0)
(-1.16222e-05 1.33999e-05 0)
(-1.16538e-05 1.45544e-05 0)
(-1.15457e-05 1.57682e-05 0)
(-1.1279e-05 1.70175e-05 0)
(-1.08408e-05 1.82696e-05 0)
(-1.02281e-05 1.94833e-05 0)
(-9.45138e-06 2.06125e-05 0)
(-8.53649e-06 2.16138e-05 0)
(-7.52161e-06 2.24584e-05 0)
(-6.44761e-06 2.31451e-05 0)
(-5.34248e-06 2.37052e-05 0)
(-4.21349e-06 2.41713e-05 0)
(-3.05689e-06 2.45483e-05 0)
(-1.39856e-06 1.52893e-05 0)
(-2.46381e-08 9.46291e-08 0)
(-2.35685e-07 4.25122e-06 0)
(-7.03533e-07 4.27262e-06 0)
(-1.16497e-06 4.3147e-06 0)
(-1.62118e-06 4.37709e-06 0)
(-2.07321e-06 4.45976e-06 0)
(-2.52194e-06 4.56302e-06 0)
(-2.96808e-06 4.68743e-06 0)
(-3.41218e-06 4.83386e-06 0)
(-3.85457e-06 5.00344e-06 0)
(-4.29537e-06 5.19757e-06 0)
(-4.73442e-06 5.41791e-06 0)
(-5.17127e-06 5.66641e-06 0)
(-5.6051e-06 5.94525e-06 0)
(-6.03464e-06 6.25689e-06 0)
(-6.45814e-06 6.60399e-06 0)
(-6.8732e-06 6.9894e-06 0)
(-7.27674e-06 7.41611e-06 0)
(-7.66482e-06 7.88713e-06 0)
(-8.03258e-06 8.40534e-06 0)
(-8.37409e-06 8.97336e-06 0)
(-8.68228e-06 9.59325e-06 0)
(-8.94896e-06 1.02662e-05 0)
(-9.16477e-06 1.09921e-05 0)
(-9.31944e-06 1.17693e-05 0)
(-9.40209e-06 1.25935e-05 0)
(-9.40175e-06 1.34581e-05 0)
(-9.30817e-06 1.4353e-05 0)
(-9.11277e-06 1.52648e-05 0)
(-8.80983e-06 1.61767e-05 0)
(-8.39766e-06 1.70693e-05 0)
(-7.87951e-06 1.79216e-05 0)
(-7.26391e-06 1.87137e-05 0)
(-6.56413e-06 1.94285e-05 0)
(-5.79644e-06 2.0055e-05 0)
(-4.97746e-06 2.05889e-05 0)
(-4.12161e-06 2.10319e-05 0)
(-3.24003e-06 2.13868e-05 0)
(-2.34169e-06 2.16546e-05 0)
(-1.05997e-06 1.29544e-05 0)
(1.15669e-08 6.21055e-08 0)
(-2.19415e-07 4.90845e-06 0)
(-6.5473e-07 4.9313e-06 0)
(-1.08338e-06 4.97616e-06 0)
(-1.50604e-06 5.04252e-06 0)
(-1.92326e-06 5.13022e-06 0)
(-2.33543e-06 5.23935e-06 0)
(-2.74277e-06 5.37025e-06 0)
(-3.14534e-06 5.52351e-06 0)
(-3.54297e-06 5.6999e-06 0)
(-3.93525e-06 5.90041e-06 0)
(-4.32152e-06 6.12618e-06 0)
(-4.70078e-06 6.37852e-06 0)
(-5.0717e-06 6.65885e-06 0)
(-5.43256e-06 6.96867e-06 0)
(-5.78118e-06 7.30953e-06 0)
(-6.1149e-06 7.68294e-06 0)
(-6.4305e-06 8.0903e-06 0)
(-6.72421e-06 8.5328e-06 0)
(-6.99165e-06 9.01126e-06 0)
(-7.22785e-06 9.52602e-06 0)
(-7.4273e-06 1.00767e-05 0)
(-7.58403e-06 1.06621e-05 0)
(-7.69176e-06 1.12799e-05 0)
(-7.74414e-06 1.19264e-05 0)
(-7.73507e-06 1.25964e-05 0)
(-7.65904e-06 1.32832e-05 0)
(-7.51163e-06 1.39786e-05 0)
(-7.28995e-06 1.46727e-05 0)
(-6.9931e-06 1.53547e-05 0)
(-6.62246e-06 1.60132e-05 0)
(-6.18189e-06 1.66369e-05 0)
(-5.67756e-06 1.72155e-05 0)
(-5.11753e-06 1.77405e-05 0)
(-4.51112e-06 1.82058e-05 0)
(-3.86811e-06 1.86076e-05 0)
(-3.19812e-06 1.8944e-05 0)
(-2.51026e-06 1.92145e-05 0)
(-1.81313e-06 1.94187e-05 0)
(-8.16598e-07 1.12023e-05 0)
(3.69804e-08 4.92331e-08 0)
(-2.02396e-07 5.51762e-06 0)
(-6.03722e-07 5.54113e-06 0)
(-9.98254e-07 5.58722e-06 0)
(-1.38621e-06 5.65528e-06 0)
(-1.76772e-06 5.74495e-06 0)
(-2.14277e-06 5.85612e-06 0)
(-2.51121e-06 5.98886e-06 0)
(-2.87271e-06 6.14344e-06 0)
(-3.22675e-06 6.32025e-06 0)
(-3.57258e-06 6.51981e-06 0)
(-3.90924e-06 6.74275e-06 0)
(-4.23548e-06 6.98973e-06 0)
(-4.54975e-06 7.26145e-06 0)
(-4.8502e-06 7.55855e-06 0)
(-5.13466e-06 7.88163e-06 0)
(-5.40059e-06 8.23113e-06 0)
(-5.64511e-06 8.60726e-06 0)
(-5.86502e-06 9.00995e-06 0)
(-6.05677e-06 9.43872e-06 0)
(-6.21661e-06 9.8926e-06 0)
(-6.34058e-06 1.037e-05 0)
(-6.42465e-06 1.08687e-05 0)
(-6.46492e-06 1.13856e-05 0)
(-6.45769e-06 1.19169e-05 0)
(-6.3998e-06 1.24578e-05 0)
(-6.28871e-06 1.30029e-05 0)
(-6.12286e-06 1.35458e-05 0)
(-5.90175e-06 1.408e-05 0)
(-5.62615e-06 1.45983e-05 0)
(-5.29816e-06 1.50939e-05 0)
(-4.9212e-06 1.55604e-05 0)
(-4.49983e-06 1.59919e-05 0)
(-4.0396e-06 1.63839e-05 0)
(-3.5468e-06 1.6733e-05 0)
(-3.02816e-06 1.70369e-05 0)
(-2.49072e-06 1.72948e-05 0)
(-1.94179e-06 1.75065e-05 0)
(-1.38899e-06 1.76731e-05 0)
(-6.16381e-07 9.8878e-06 0)
(6.31228e-08 4.39341e-08 0)
(-1.8516e-07 6.07731e-06 0)
(-5.52112e-07 6.10082e-06 0)
(-9.1227e-07 6.14684e-06 0)
(-1.26549e-06 6.21464e-06 0)
(-1.61155e-06 6.30372e-06 0)
(-1.95015e-06 6.41373e-06 0)
(-2.28083e-06 6.54452e-06 0)
(-2.60304e-06 6.69601e-06 0)
(-2.91603e-06 6.86824e-06 0)
(-3.21889e-06 7.06132e-06 0)
(-3.51051e-06 7.27535e-06 0)
(-3.78957e-06 7.51048e-06 0)
(-4.05455e-06 7.76676e-06 0)
(-4.30369e-06 8.04419e-06 0)
(-4.53502e-06 8.34262e-06 0)
(-4.74637e-06 8.66172e-06 0)
(-4.93535e-06 9.00092e-06 0)
(-5.09942e-06 9.35938e-06 0)
(-5.23595e-06 9.73587e-06 0)
(-5.34223e-06 1.01288e-05 0)
(-5.41557e-06 1.05361e-05 0)
(-5.4534e-06 1.09553e-05 0)
(-5.45341e-06 1.13834e-05 0)
(-5.41357e-06 1.18169e-05 0)
(-5.33236e-06 1.22519e-05 0)
(-5.20882e-06 1.26841e-05 0)
(-5.04265e-06 1.31091e-05 0)
(-4.8343e-06 1.35223e-05 0)
(-4.58502e-06 1.39191e-05 0)
(-4.29678e-06 1.42952e-05 0)
(-3.97231e-06 1.46468e-05 0)
(-3.61492e-06 1.49706e-05 0)
(-3.2284e-06 1.5264e-05 0)
(-2.81686e-06 1.55252e-05 0)
(-2.3846e-06 1.57534e-05 0)
(-1.93595e-06 1.59486e-05 0)
(-1.47521e-06 1.6112e-05 0)
(-1.00662e-06 1.62456e-05 0)
(-4.20054e-07 8.85121e-06 0)
(9.84063e-08 3.95281e-08 0)
(-1.68151e-07 6.58755e-06 0)
(-5.01225e-07 6.61051e-06 0)
(-8.27635e-07 6.6554e-06 0)
(-1.14696e-06 6.72141e-06 0)
(-1.45872e-06 6.80788e-06 0)
(-1.76241e-06 6.91429e-06 0)
(-2.05739e-06 7.04024e-06 0)
(-2.34296e-06 7.1854e-06 0)
(-2.61827e-06 7.34948e-06 0)
(-2.88235e-06 7.53222e-06 0)
(-3.13409e-06 7.73334e-06 0)
(-3.37224e-06 7.95251e-06 0)
(-3.59542e-06 8.18935e-06 0)
(-3.80207e-06 8.44335e-06 0)
(-3.99056e-06 8.71386e-06 0)
(-4.1591e-06 9.00004e-06 0)
(-4.30585e-06 9.30086e-06 0)
(-4.42891e-06 9.61502e-06 0)
(-4.52638e-06 9.94098e-06 0)
(-4.5964e-06 1.02769e-05 0)
(-4.63723e-06 1.06206e-05 0)
(-4.64729e-06 1.09698e-05 0)
(-4.62525e-06 1.13216e-05 0)
(-4.57009e-06 1.16733e-05 0)
(-4.48116e-06 1.20216e-05 0)
(-4.35825e-06 1.23635e-05 0)
(-4.2016e-06 1.26955e-05 0)
(-4.01196e-06 1.30146e-05 0)
(-3.79054e-06 1.33178e-05 0)
(-3.53902e-06 1.36022e-05 0)
(-3.25946e-06 1.38655e-05 0)
(-2.95422e-06 1.41057e-05 0)
(-2.62585e-06 1.43211e-05 0)
(-2.27695e-06 1.45107e-05 0)
(-1.90996e-06 1.46738e-05 0)
(-1.52691e-06 1.48102e-05 0)
(-1.12911e-06 1.49198e-05 0)
(-7.16621e-07 1.50032e-05 0)
(-2.67617e-07 7.96571e-06 0)
(1.28498e-07 2.82025e-08 0)
(-1.51712e-07 7.04949e-06 0)
(-4.52084e-07 7.07149e-06 0)
(-7.46038e-07 7.11447e-06 0)
(-1.03295e-06 7.17755e-06 0)
(-1.31219e-06 7.25996e-06 0)
(-1.58311e-06 7.36103e-06 0)
(-1.84497e-06 7.48017e-06 0)
(-2.09701e-06 7.61683e-06 0)
(-2.33837e-06 7.77047e-06 0)
(-2.56811e-06 7.94054e-06 0)
(-2.7852e-06 8.12646e-06 0)
(-2.98853e-06 8.32759e-06 0)
(-3.17691e-06 8.54319e-06 0)
(-3.34907e-06 8.77244e-06 0)
(-3.50369e-06 9.01436e-06 0)
(-3.63941e-06 9.26781e-06 0)
(-3.75486e-06 9.5315e-06 0)
(-3.84868e-06 9.80394e-06 0)
(-3.91955e-06 1.00835e-05 0)
(-3.96626e-06 1.03682e-05 0)
(-3.98771e-06 1.0656e-05 0)
(-3.98296e-06 1.09449e-05 0)
(-3.9513e-06 1.12323e-05 0)
(-3.89223e-06 1.1516e-05 0)
(-3.80557e-06 1.17933e-05 0)
(-3.6914e-06 1.2062e-05 0)
(-3.55014e-06 1.23195e-05 0)
(-3.38253e-06 1.25637e-05 0)
(-3.18962e-06 1.27926e-05 0)
(-2.97275e-06 1.30043e-05 0)
(-2.73357e-06 1.31974e-05 0)
(-2.47394e-06 1.33706e-05 0)
(-2.19593e-06 1.35229e-05 0)
(-1.9018e-06 1.36538e-05 0)
(-1.59392e-06 1.37626e-05 0)
(-1.27481e-06 1.38489e-05 0)
(-9.47186e-07 1.39119e-05 0)
(-6.14061e-07 1.39508e-05 0)
(-2.36417e-07 7.21177e-06 0)
(1.18803e-07 1.82505e-08 0)
(-1.36089e-07 7.46512e-06 0)
(-4.05416e-07 7.4859e-06 0)
(-6.68663e-07 7.52644e-06 0)
(-9.25088e-07 7.58583e-06 0)
(-1.17396e-06 7.66324e-06 0)
(-1.41457e-06 7.75788e-06 0)
(-1.64615e-06 7.86902e-06 0)
(-1.86794e-06 7.99595e-06 0)
(-2.07911e-06 8.13794e-06 0)
(-2.27883e-06 8.29425e-06 0)
(-2.46618e-06 8.46409e-06 0)
(-2.64023e-06 8.64659e-06 0)
(-2.80003e-06 8.84082e-06 0)
(-2.94457e-06 9.04573e-06 0)
(-3.07287e-06 9.26017e-06 0)
(-3.18392e-06 9.48285e-06 0)
(-3.27677e-06 9.71236e-06 0)
(-3.35049e-06 9.94714e-06 0)
(-3.40424e-06 1.01855e-05 0)
(-3.43724e-06 1.04256e-05 0)
(-3.44885e-06 1.06657e-05 0)
(-3.43855e-06 1.09035e-05 0)
(-3.40598e-06 1.11372e-05 0)
(-3.35092e-06 1.13647e-05 0)
(-3.27337e-06 1.1584e-05 0)
(-3.17348e-06 1.1793e-05 0)
(-3.05161e-06 1.19901e-05 0)
(-2.90832e-06 1.21735e-05 0)
(-2.74434e-06 1.2342e-05 0)
(-2.56064e-06 1.24944e-05 0)
(-2.35837e-06 1.26298e-05 0)
(-2.13892e-06 1.27479e-05 0)
(-1.90391e-06 1.28484e-05 0)
(-1.65523e-06 1.29312e-05 0)
(-1.39504e-06 1.29969e-05 0)
(-1.1258e-06 1.30456e-05 0)
(-8.50297e-07 1.3078e-05 0)
(-5.71573e-07 1.30943e-05 0)
(-2.29468e-07 6.59581e-06 0)
(1.09615e-07 1.54028e-08 0)
(-1.21435e-07 7.83703e-06 0)
(-3.61675e-07 7.85642e-06 0)
(-5.96243e-07 7.89422e-06 0)
(-8.24336e-07 7.94951e-06 0)
(-1.04519e-06 8.0214e-06 0)
(-1.25807e-06 8.10906e-06 0)
(-1.46224e-06 8.21166e-06 0)
(-1.65698e-06 8.32838e-06 0)
(-1.84154e-06 8.45839e-06 0)
(-2.0152e-06 8.6008e-06 0)
(-2.1772e-06 8.7547e-06 0)
(-2.32681e-06 8.91911e-06 0)
(-2.46328e-06 9.09298e-06 0)
(-2.58589e-06 9.27515e-06 0)
(-2.69394e-06 9.46438e-06 0)
(-2.78675e-06 9.65935e-06 0)
(-2.86372e-06 9.85861e-06 0)
(-2.92428e-06 1.00606e-05 0)
(-2.96794e-06 1.02637e-05 0)
(-2.9943e-06 1.04662e-05 0)
(-3.00302e-06 1.06663e-05 0)
(-2.99387e-06 1.08621e-05 0)
(-2.96672e-06 1.10519e-05 0)
(-2.9215e-06 1.12337e-05 0)
(-2.85824e-06 1.14058e-05 0)
(-2.77705e-06 1.15665e-05 0)
(-2.67809e-06 1.17143e-05 0)
(-2.56157e-06 1.18479e-05 0)
(-2.42779e-06 1.19662e-05 0)
(-2.27709e-06 1.20684e-05 0)
(-2.10991e-06 1.21542e-05 0)
(-1.92686e-06 1.22236e-05 0)
(-1.72873e-06 1.22773e-05 0)
(-1.51662e-06 1.23162e-05 0)
(-1.29204e-06 1.23418e-05 0)
(-1.05704e-06 1.2356e-05 0)
(-8.14225e-07 1.23607e-05 0)
(-5.66853e-07 1.2358e-05 0)
(-2.35526e-07 6.05882e-06 0)
(1.01115e-07 1.34147e-08 0)
(-1.07831e-07 8.16812e-06 0)
(-3.21094e-07 8.18606e-06 0)
(-5.29135e-07 8.221e-06 0)
(-7.31139e-07 8.27202e-06 0)
(-9.2635e-07 8.33824e-06 0)
(-1.11405e-06 8.4188e-06 0)
(-1.29356e-06 8.51282e-06 0)
(-1.46422e-06 8.61943e-06 0)
(-1.62541e-06 8.73773e-06 0)
(-1.7765e-06 8.86679e-06 0)
(-1.91691e-06 9.00563e-06 0)
(-2.04608e-06 9.15323e-06 0)
(-2.1635e-06 9.30848e-06 0)
(-2.26867e-06 9.47023e-06 0)
(-2.36116e-06 9.63723e-06 0)
(-2.44059e-06 9.80816e-06 0)
(-2.50664e-06 9.98161e-06 0)
(-2.55907e-06 1.01561e-05 0)
(-2.59767e-06 1.03301e-05 0)
(-2.62236e-06 1.05019e-05 0)
(-2.63309e-06 1.067e-05 0)
(-2.62987e-06 1.08324e-05 0)
(-2.61276e-06 1.09876e-05 0)
(-2.58185e-06 1.11337e-05 0)
(-2.53722e-06 1.12689e-05 0)
(-2.47891e-06 1.13917e-05 0)
(-2.40688e-06 1.15003e-05 0)
(-2.321e-06 1.15934e-05 0)
(-2.22098e-06 1.16698e-05 0)
(-2.10636e-06 1.17285e-05 0)
(-1.97653e-06 1.17691e-05 0)
(-1.83071e-06 1.17916e-05 0)
(-1.66812e-06 1.1797e-05 0)
(-1.48808e-06 1.1787e-05 0)
(-1.29032e-06 1.17644e-05 0)
(-1.07531e-06 1.17331e-05 0)
(-8.44734e-07 1.16984e-05 0)
(-6.01961e-07 1.1666e-05 0)
(-2.54072e-07 5.55036e-06 0)
(9.34261e-08 1.17739e-08 0)
(-9.52979e-08 8.46148e-06 0)
(-2.83726e-07 8.47796e-06 0)
(-4.67402e-07 8.51004e-06 0)
(-6.45536e-07 8.55684e-06 0)
(-8.17402e-07 8.61749e-06 0)
(-9.82332e-07 8.69113e-06 0)
(-1.13971e-06 8.77688e-06 0)
(-1.28897e-06 8.87386e-06 0)
(-1.42957e-06 8.98116e-06 0)
(-1.56104e-06 9.09784e-06 0)
(-1.68294e-06 9.22294e-06 0)
(-1.79489e-06 9.35543e-06 0)
(-1.89654e-06 9.49424e-06 0)
(-1.98764e-06 9.63826e-06 0)
(-2.06798e-06 9.78629e-06 0)
(-2.13742e-06 9.9371e-06 0)
(-2.19592e-06 1.00894e-05 0)
(-2.24349e-06 1.02418e-05 0)
(-2.28025e-06 1.03928e-05 0)
(-2.30637e-06 1.0541e-05 0)
(-2.32211e-06 1.06848e-05 0)
(-2.32778e-06 1.08225e-05 0)
(-2.3237e-06 1.09525e-05 0)
(-2.31023e-06 1.10729e-05 0)
(-2.28766e-06 1.11821e-05 0)
(-2.2562e-06 1.12779e-05 0)
(-2.21588e-06 1.13586e-05 0)
(-2.16647e-06 1.1422e-05 0)
(-2.10735e-06 1.14663e-05 0)
(-2.0374e-06 1.14894e-05 0)
(-1.95486e-06 1.14897e-05 0)
(-1.85716e-06 1.14659e-05 0)
(-1.74088e-06 1.14174e-05 0)
(-1.6017e-06 1.13448e-05 0)
(-1.43466e-06 1.12505e-05 0)
(-1.23473e-06 1.11399e-05 0)
(-9.97941e-07 1.10224e-05 0)
(-7.23544e-07 1.09125e-05 0)
(-3.0418e-07 4.97974e-06 0)
(8.67076e-08 1.02626e-08 0)
(-8.3813e-08 8.72014e-06 0)
(-2.49497e-07 8.73522e-06 0)
(-4.10901e-07 8.76455e-06 0)
(-5.67277e-07 8.80731e-06 0)
(-7.17949e-07 8.86265e-06 0)
(-8.6231e-07 8.92975e-06 0)
(-9.99815e-07 9.00776e-06 0)
(-1.12998e-06 9.09582e-06 0)
(-1.25237e-06 9.19306e-06 0)
(-1.36663e-06 9.29857e-06 0)
(-1.47244e-06 9.41144e-06 0)
(-1.56958e-06 9.53069e-06 0)
(-1.65786e-06 9.65535e-06 0)
(-1.73721e-06 9.78439e-06 0)
(-1.80761e-06 9.91673e-06 0)
(-1.86913e-06 1.00513e-05 0)
(-1.92196e-06 1.01868e-05 0)
(-1.96635e-06 1.03222e-05 0)
(-2.00268e-06 1.04562e-05 0)
(-2.03141e-06 1.05875e-05 0)
(-2.05312e-06 1.07146e-05 0)
(-2.06847e-06 1.08362e-05 0)
(-2.07819e-06 1.09506e-05 0)
(-2.08309e-06 1.10562e-05 0)
(-2.08399e-06 1.11512e-05 0)
(-2.0817e-06 1.12334e-05 0)
(-2.07691e-06 1.13005e-05 0)
(-2.0701e-06 1.13499e-05 0)
(-2.06136e-06 1.13785e-05 0)
(-2.05014e-06 1.13825e-05 0)
(-2.03488e-06 1.13578e-05 0)
(-2.0125e-06 1.12993e-05 0)
(-1.97766e-06 1.12015e-05 0)
(-1.92181e-06 1.10582e-05 0)
(-1.83195e-06 1.08633e-05 0)
(-1.68915e-06 1.06121e-05 0)
(-1.46714e-06 1.03034e-05 0)
(-1.13151e-06 9.9441e-06 0)
(-4.81012e-07 4.01952e-06 0)
(8.13329e-08 8.50623e-09 0)
(-7.33262e-08 8.94708e-06 0)
(-2.18251e-07 8.96083e-06 0)
(-3.59353e-07 8.98758e-06 0)
(-4.95937e-07 9.02654e-06 0)
(-6.27382e-07 9.07693e-06 0)
(-7.53144e-07 9.13798e-06 0)
(-8.72746e-07 9.20888e-06 0)
(-9.85781e-07 9.28884e-06 0)
(-1.09191e-06 9.37702e-06 0)
(-1.19085e-06 9.47261e-06 0)
(-1.28242e-06 9.57477e-06 0)
(-1.36648e-06 9.68262e-06 0)
(-1.443e-06 9.79529e-06 0)
(-1.51201e-06 9.91189e-06 0)
(-1.57366e-06 1.00315e-05 0)
(-1.62816e-06 1.01532e-05 0)
(-1.67587e-06 1.0276e-05 0)
(-1.71724e-06 1.0399e-05 0)
(-1.75284e-06 1.05211e-05 0)
(-1.78339e-06 1.06414e-05 0)
(-1.80973e-06 1.07587e-05 0)
(-1.83289e-06 1.0872e-05 0)
(-1.85404e-06 1.098e-05 0)
(-1.87455e-06 1.10815e-05 0)
(-1.89599e-06 1.11749e-05 0)
(-1.92015e-06 1.12585e-05 0)
(-1.94907e-06 1.13302e-05 0)
(-1.985e-06 1.13876e-05 0)
(-2.03043e-06 1.14273e-05 0)
(-2.088e-06 1.14449e-05 0)
(-2.16032e-06 1.14347e-05 0)
(-2.2496e-06 1.13887e-05 0)
(-2.35696e-06 1.12955e-05 0)
(-2.48093e-06 1.11394e-05 0)
(-2.61493e-06 1.08973e-05 0)
(-2.74238e-06 1.05362e-05 0)
(-2.82807e-06 1.00074e-05 0)
(-2.80254e-06 9.23906e-06 0)
(-1.38982e-06 2.09315e-06 0)
(7.90095e-08 6.10029e-09 0)
(-6.37722e-08 9.14507e-06 0)
(-1.8979e-07 9.15759e-06 0)
(-3.12415e-07 9.18193e-06 0)
(-4.31006e-07 9.21739e-06 0)
(-5.44999e-07 9.26323e-06 0)
(-6.53906e-07 9.31874e-06 0)
(-7.5731e-07 9.38318e-06 0)
(-8.54867e-07 9.45583e-06 0)
(-9.46303e-07 9.53594e-06 0)
(-1.03142e-06 9.62277e-06 0)
(-1.11009e-06 9.71558e-06 0)
(-1.18226e-06 9.81363e-06 0)
(-1.24798e-06 9.91617e-06 0)
(-1.30737e-06 1.00225e-05 0)
(-1.36065e-06 1.01318e-05 0)
(-1.40812e-06 1.02434e-05 0)
(-1.45023e-06 1.03566e-05 0)
(-1.48751e-06 1.04706e-05 0)
(-1.52065e-06 1.05849e-05 0)
(-1.55047e-06 1.06987e-05 0)
(-1.57798e-06 1.08114e-05 0)
(-1.60437e-06 1.09223e-05 0)
(-1.63106e-06 1.1031e-05 0)
(-1.65978e-06 1.11366e-05 0)
(-1.69259e-06 1.12388e-05 0)
(-1.73202e-06 1.13367e-05 0)
(-1.7812e-06 1.14297e-05 0)
(-1.84407e-06 1.15169e-05 0)
(-1.92569e-06 1.15974e-05 0)
(-2.03271e-06 1.16697e-05 0)
(-2.17411e-06 1.17319e-05 0)
(-2.3623e-06 1.17813e-05 0)
(-2.6149e-06 1.18138e-05 0)
(-2.95761e-06 1.18233e-05 0)
(-3.42883e-06 1.18005e-05 0)
(-4.08725e-06 1.17309e-05 0)
(-5.02435e-06 1.1592e-05 0)
(-6.38343e-06 1.13476e-05 0)
(-3.60488e-06 1.56316e-06 0)
(8.30626e-08 5.83161e-09 0)
(-5.50812e-08 9.31671e-06 0)
(-1.63902e-07 9.3281e-06 0)
(-2.69725e-07 9.35023e-06 0)
(-3.71961e-07 9.38245e-06 0)
(-4.70095e-07 9.42412e-06 0)
(-5.63688e-07 9.47458e-06 0)
(-6.52369e-07 9.53317e-06 0)
(-7.35842e-07 9.59923e-06 0)
(-8.13878e-07 9.67211e-06 0)
(-8.86323e-07 9.75117e-06 0)
(-9.53092e-07 9.83577e-06 0)
(-1.01418e-06 9.9253e-06 0)
(-1.06965e-06 1.00191e-05 0)
(-1.11966e-06 1.01167e-05 0)
(-1.16444e-06 1.02175e-05 0)
(-1.20433e-06 1.03209e-05 0)
(-1.23973e-06 1.04265e-05 0)
(-1.27118e-06 1.05338e-05 0)
(-1.29932e-06 1.06425e-05 0)
(-1.32493e-06 1.07523e-05 0)
(-1.34891e-06 1.08629e-05 0)
(-1.37236e-06 1.09744e-05 0)
(-1.39655e-06 1.10866e-05 0)
(-1.42299e-06 1.11999e-05 0)
(-1.45351e-06 1.13145e-05 0)
(-1.49028e-06 1.14312e-05 0)
(-1.53594e-06 1.15509e-05 0)
(-1.59374e-06 1.16751e-05 0)
(-1.66771e-06 1.1806e-05 0)
(-1.76293e-06 1.19464e-05 0)
(-1.88585e-06 1.21008e-05 0)
(-2.04475e-06 1.22754e-05 0)
(-2.25032e-06 1.24794e-05 0)
(-2.51631e-06 1.27262e-05 0)
(-2.8604e-06 1.30361e-05 0)
(-3.30487e-06 1.344e-05 0)
(-3.877e-06 1.39851e-05 0)
(-4.59636e-06 1.47373e-05 0)
(-2.5064e-06 2.76016e-06 0)
(7.84499e-08 9.72417e-09 0)
(-4.71858e-08 9.4644e-06 0)
(-1.40383e-07 9.47474e-06 0)
(-2.3094e-07 9.49482e-06 0)
(-3.18313e-07 9.52408e-06 0)
(-4.02027e-07 9.56192e-06 0)
(-4.8168e-07 9.60776e-06 0)
(-5.56936e-07 9.661e-06 0)
(-6.27528e-07 9.72107e-06 0)
(-6.93254e-07 9.78742e-06 0)
(-7.53978e-07 9.85947e-06 0)
(-8.09632e-07 9.93672e-06 0)
(-8.60211e-07 1.00186e-05 0)
(-9.05779e-07 1.01047e-05 0)
(-9.46465e-07 1.01946e-05 0)
(-9.8247e-07 1.02878e-05 0)
(-1.01406e-06 1.0384e-05 0)
(-1.04158e-06 1.04829e-05 0)
(-1.06544e-06 1.05843e-05 0)
(-1.08612e-06 1.06881e-05 0)
(-1.10419e-06 1.07942e-05 0)
(-1.1203e-06 1.09028e-05 0)
(-1.13516e-06 1.10141e-05 0)
(-1.1496e-06 1.11286e-05 0)
(-1.16449e-06 1.1247e-05 0)
(-1.18081e-06 1.13702e-05 0)
(-1.19958e-06 1.14996e-05 0)
(-1.22187e-06 1.1637e-05 0)
(-1.24871e-06 1.1785e-05 0)
(-1.28102e-06 1.19466e-05 0)
(-1.3194e-06 1.21263e-05 0)
(-1.36384e-06 1.23297e-05 0)
(-1.41321e-06 1.25643e-05 0)
(-1.46436e-06 1.28401e-05 0)
(-1.51075e-06 1.317e-05 0)
(-1.54016e-06 1.35714e-05 0)
(-1.53111e-06 1.40665e-05 0)
(-1.44711e-06 1.4684e-05 0)
(-1.22041e-06 1.54397e-05 0)
(-5.49277e-07 2.46467e-06 0)
(5.54876e-08 1.11341e-08 0)
(-4.00254e-08 9.59035e-06 0)
(-1.19052e-07 9.59971e-06 0)
(-1.95759e-07 9.61791e-06 0)
(-2.69637e-07 9.64442e-06 0)
(-3.40244e-07 9.67872e-06 0)
(-4.07205e-07 9.72028e-06 0)
(-4.70207e-07 9.76859e-06 0)
(-5.28997e-07 9.82315e-06 0)
(-5.83383e-07 9.88347e-06 0)
(-6.33232e-07 9.94908e-06 0)
(-6.78466e-07 1.00195e-05 0)
(-7.19063e-07 1.00944e-05 0)
(-7.55051e-07 1.01734e-05 0)
(-7.86511e-07 1.0256e-05 0)
(-8.13571e-07 1.03421e-05 0)
(-8.36404e-07 1.04314e-05 0)
(-8.55224e-07 1.05237e-05 0)
(-8.7028e-07 1.06189e-05 0)
(-8.81852e-07 1.07171e-05 0)
(-8.90239e-07 1.08183e-05 0)
(-8.95751e-07 1.09229e-05 0)
(-8.98691e-07 1.10311e-05 0)
(-8.99336e-07 1.11436e-05 0)
(-8.97906e-07 1.1261e-05 0)
(-8.9452e-07 1.13845e-05 0)
(-8.89146e-07 1.15152e-05 0)
(-8.81512e-07 1.16547e-05 0)
(-8.70997e-07 1.1805e-05 0)
(-8.56478e-07 1.19684e-05 0)
(-8.36115e-07 1.21477e-05 0)
(-8.07066e-07 1.23459e-05 0)
(-7.65125e-07 1.25665e-05 0)
(-7.04252e-07 1.28131e-05 0)
(-6.16038e-07 1.30889e-05 0)
(-4.89125e-07 1.33963e-05 0)
(-3.08746e-07 1.37351e-05 0)
(-5.66365e-08 1.4101e-05 0)
(2.88593e-07 1.44516e-05 0)
(2.20132e-07 1.48821e-06 0)
(4.15152e-08 8.81769e-09 0)
(-3.35484e-08 9.6966e-06 0)
(-9.97552e-08 9.70505e-06 0)
(-1.63926e-07 9.72149e-06 0)
(-2.2558e-07 9.74543e-06 0)
(-2.843e-07 9.77642e-06 0)
(-3.39728e-07 9.814e-06 0)
(-3.91563e-07 9.8577e-06 0)
(-4.3956e-07 9.9071e-06 0)
(-4.83527e-07 9.96176e-06 0)
(-5.23318e-07 1.00213e-05 0)
(-5.58837e-07 1.00853e-05 0)
(-5.90028e-07 1.01535e-05 0)
(-6.16877e-07 1.02255e-05 0)
(-6.39402e-07 1.03011e-05 0)
(-6.57651e-07 1.03801e-05 0)
(-6.71694e-07 1.04622e-05 0)
(-6.81618e-07 1.05474e-05 0)
(-6.87515e-07 1.06356e-05 0)
(-6.89472e-07 1.07269e-05 0)
(-6.87555e-07 1.08214e-05 0)
(-6.81796e-07 1.09192e-05 0)
(-6.7217e-07 1.10208e-05 0)
(-6.58565e-07 1.11264e-05 0)
(-6.40755e-07 1.12367e-05 0)
(-6.18357e-07 1.13522e-05 0)
(-5.90783e-07 1.14738e-05 0)
(-5.57183e-07 1.16023e-05 0)
(-5.1638e-07 1.17386e-05 0)
(-4.66794e-07 1.18837e-05 0)
(-4.0637e-07 1.20385e-05 0)
(-3.32513e-07 1.22037e-05 0)
(-2.42046e-07 1.23795e-05 0)
(-1.31235e-07 1.25656e-05 0)
(4.09855e-09 1.27605e-05 0)
(1.68281e-07 1.29613e-05 0)
(3.65253e-07 1.31628e-05 0)
(5.97672e-07 1.33568e-05 0)
(8.6546e-07 1.35004e-05 0)
(4.80024e-07 1.25643e-06 0)
(3.38471e-08 8.03721e-09 0)
(-2.77124e-08 9.78507e-06 0)
(-8.2366e-08 9.79267e-06 0)
(-1.35234e-07 9.80744e-06 0)
(-1.85859e-07 9.82897e-06 0)
(-2.3384e-07 9.85684e-06 0)
(-2.78833e-07 9.89064e-06 0)
(-3.20544e-07 9.92998e-06 0)
(-3.58728e-07 9.97447e-06 0)
(-3.93185e-07 1.00237e-05 0)
(-4.23758e-07 1.00775e-05 0)
(-4.50325e-07 1.01353e-05 0)
(-4.72799e-07 1.01969e-05 0)
(-4.91121e-07 1.02621e-05 0)
(-5.05253e-07 1.03306e-05 0)
(-5.15174e-07 1.04023e-05 0)
(-5.20871e-07 1.04769e-05 0)
(-5.2233e-07 1.05543e-05 0)
(-5.19525e-07 1.06346e-05 0)
(-5.12409e-07 1.07177e-05 0)
(-5.00898e-07 1.08036e-05 0)
(-4.84854e-07 1.08924e-05 0)
(-4.64072e-07 1.09843e-05 0)
(-4.38255e-07 1.10794e-05 0)
(-4.06993e-07 1.11779e-05 0)
(-3.6974e-07 1.12801e-05 0)
(-3.25792e-07 1.13862e-05 0)
(-2.74263e-07 1.14964e-05 0)
(-2.14067e-07 1.16108e-05 0)
(-1.43915e-07 1.17295e-05 0)
(-6.2323e-08 1.18522e-05 0)
(3.2349e-08 1.19785e-05 0)
(1.41819e-07 1.21077e-05 0)
(2.67747e-07 1.22384e-05 0)
(4.11525e-07 1.23689e-05 0)
(5.73973e-07 1.24967e-05 0)
(7.54916e-07 1.2619e-05 0)
(9.52646e-07 1.27324e-05 0)
(1.16325e-06 1.28025e-05 0)
(6.13404e-07 1.302e-06 0)
(2.76685e-08 9.17905e-09 0)
(-2.24822e-08 9.85756e-06 0)
(-6.67811e-08 9.86435e-06 0)
(-1.09516e-07 9.87754e-06 0)
(-1.50247e-07 9.89677e-06 0)
(-1.88589e-07 9.92167e-06 0)
(-2.24205e-07 9.95188e-06 0)
(-2.56805e-07 9.98704e-06 0)
(-2.86145e-07 1.00268e-05 0)
(-3.12016e-07 1.00709e-05 0)
(-3.34248e-07 1.01189e-05 0)
(-3.52701e-07 1.01707e-05 0)
(-3.6726e-07 1.02259e-05 0)
(-3.77833e-07 1.02843e-05 0)
(-3.84342e-07 1.03456e-05 0)
(-3.86718e-07 1.04098e-05 0)
(-3.84894e-07 1.04765e-05 0)
(-3.78795e-07 1.05458e-05 0)
(-3.68333e-07 1.06174e-05 0)
(-3.53393e-07 1.06914e-05 0)
(-3.33826e-07 1.07675e-05 0)
(-3.09437e-07 1.08458e-05 0)
(-2.79972e-07 1.09263e-05 0)
(-2.45107e-07 1.10088e-05 0)
(-2.04439e-07 1.10934e-05 0)
(-1.57472e-07 1.11798e-05 0)
(-1.03616e-07 1.1268e-05 0)
(-4.21766e-08 1.13577e-05 0)
(2.76361e-08 1.14486e-05 0)
(1.06703e-07 1.15401e-05 0)
(1.95976e-07 1.16318e-05 0)
(2.96447e-07 1.17226e-05 0)
(4.09111e-07 1.18117e-05 0)
(5.34915e-07 1.18977e-05 0)
(6.74708e-07 1.19795e-05 0)
(8.29187e-07 1.20556e-05 0)
(9.98869e-07 1.21249e-05 0)
(1.18409e-06 1.21867e-05 0)
(1.38496e-06 1.2211e-05 0)
(7.27948e-07 1.39753e-06 0)
(2.26337e-08 1.131e-08 0)
(-1.78288e-08 9.91578e-06 0)
(-5.29148e-08 9.92179e-06 0)
(-8.66327e-08 9.93347e-06 0)
(-1.18559e-07 9.95051e-06 0)
(-1.48319e-07 9.97257e-06 0)
(-1.75585e-07 9.99932e-06 0)
(-2.00072e-07 1.00305e-05 0)
(-2.21532e-07 1.00657e-05 0)
(-2.39755e-07 1.01047e-05 0)
(-2.54561e-07 1.01473e-05 0)
(-2.65796e-07 1.01931e-05 0)
(-2.7333e-07 1.02419e-05 0)
(-2.77051e-07 1.02935e-05 0)
(-2.76859e-07 1.03477e-05 0)
(-2.72661e-07 1.04043e-05 0)
(-2.64367e-07 1.0463e-05 0)
(-2.51882e-07 1.05239e-05 0)
(-2.351e-07 1.05865e-05 0)
(-2.13899e-07 1.06509e-05 0)
(-1.88132e-07 1.07169e-05 0)
(-1.57625e-07 1.07843e-05 0)
(-1.22166e-07 1.08528e-05 0)
(-8.15045e-08 1.09224e-05 0)
(-3.53464e-08 1.09927e-05 0)
(1.66475e-08 1.10634e-05 0)
(7.48608e-08 1.11341e-05 0)
(1.39718e-07 1.12044e-05 0)
(2.11677e-07 1.12737e-05 0)
(2.91226e-07 1.13413e-05 0)
(3.78868e-07 1.14063e-05 0)
(4.75124e-07 1.14678e-05 0)
(5.80529e-07 1.15246e-05 0)
(6.95663e-07 1.15754e-05 0)
(8.21205e-07 1.16187e-05 0)
(9.58044e-07 1.16529e-05 0)
(1.10748e-06 1.16763e-05 0)
(1.27155e-06 1.16869e-05 0)
(1.45336e-06 1.16531e-05 0)
(7.67126e-07 1.53369e-06 0)
(1.87374e-08 1.16395e-08 0)
(-1.37272e-08 9.96135e-06 0)
(-4.06928e-08 9.96662e-06 0)
(-6.64645e-08 9.97686e-06 0)
(-9.06331e-08 9.99179e-06 0)
(-1.12836e-07 1.00111e-05 0)
(-1.32753e-07 1.00346e-05 0)
(-1.50103e-07 1.00618e-05 0)
(-1.64643e-07 1.00927e-05 0)
(-1.7616e-07 1.01268e-05 0)
(-1.8447e-07 1.0164e-05 0)
(-1.89415e-07 1.0204e-05 0)
(-1.90858e-07 1.02466e-05 0)
(-1.88679e-07 1.02915e-05 0)
(-1.82773e-07 1.03386e-05 0)
(-1.73044e-07 1.03877e-05 0)
(-1.59403e-07 1.04385e-05 0)
(-1.41761e-07 1.0491e-05 0)
(-1.20032e-07 1.05448e-05 0)
(-9.41201e-08 1.05998e-05 0)
(-6.39268e-08 1.06557e-05 0)
(-2.93414e-08 1.07124e-05 0)