/*--------------------------------*- C++ -*----------------------------------*\
  =========                 |
  \\      /  F ield         | OpenFOAM: The Open Source CFD Toolbox
   \\    /   O peration     | Website:  https://openfoam.org
    \\  /    A nd           | Version:  10
     \\/     M anipulation  |
\*---------------------------------------------------------------------------*/
FoamFile
{
    format      ascii;
    class       volVectorField;
    location    "9500";
    object      Ub;
}
// * * * * * * * * * * * * * * * * * * * * * * * * * * * * * * * * * * * * * //

dimensions      [0 1 -1 0 0 0 0];

internalField   nonuniform List<vector> 
3200
(
(-5.07392e-21 -9.87891e-16 0)
(-1.51633e-20 -9.87891e-16 0)
(-2.51659e-20 -9.87891e-16 0)
(-3.51402e-20 -9.87891e-16 0)
(-4.51423e-20 -9.87891e-16 0)
(-5.5227e-20 -9.87891e-16 0)
(-6.54497e-20 -9.8789e-16 0)
(-7.5867e-20 -9.8789e-16 0)
(-8.65384e-20 -9.8789e-16 0)
(-9.7528e-20 -9.87889e-16 0)
(-1.08905e-19 -9.87889e-16 0)
(-1.20748e-19 -9.87888e-16 0)
(-1.33143e-19 -9.87887e-16 0)
(-1.46191e-19 -9.87886e-16 0)
(-1.60009e-19 -9.87885e-16 0)
(-1.74734e-19 -9.87884e-16 0)
(-1.90531e-19 -9.87883e-16 0)
(-2.07599e-19 -9.87881e-16 0)
(-2.26183e-19 -9.87879e-16 0)
(-2.4659e-19 -9.87877e-16 0)
(-2.69208e-19 -9.87874e-16 0)
(-2.94541e-19 -9.87871e-16 0)
(-3.23248e-19 -9.87866e-16 0)
(-3.56217e-19 -9.8786e-16 0)
(-3.94666e-19 -9.87853e-16 0)
(-4.40302e-19 -9.87843e-16 0)
(-4.95577e-19 -9.87829e-16 0)
(-5.6409e-19 -9.8781e-16 0)
(-6.5125e-19 -9.87782e-16 0)
(-7.65361e-19 -9.87741e-16 0)
(-9.19416e-19 -9.8768e-16 0)
(-1.1341e-18 -9.87584e-16 0)
(-5.61784e-17 -9.87432e-16 0)
(-4.60307e-06 -3.39914e-14 0)
(-7.0306e-05 -5.66817e-05 0)
(-0.000134222 -1.39688e-05 0)
(-0.000138337 -6.95517e-06 0)
(-0.000140492 -4.214e-06 0)
(-0.000141509 -3.96284e-06 0)
(-9.79182e-05 -0.000129125 0)
(-5.00765e-21 -9.87877e-16 0)
(-1.49639e-20 -9.87876e-16 0)
(-2.48306e-20 -9.87876e-16 0)
(-3.46627e-20 -9.87876e-16 0)
(-4.4513e-20 -9.87875e-16 0)
(-5.44325e-20 -9.87875e-16 0)
(-6.44723e-20 -9.87874e-16 0)
(-7.4684e-20 -9.87873e-16 0)
(-8.51215e-20 -9.87872e-16 0)
(-9.58412e-20 -9.8787e-16 0)
(-1.06904e-19 -9.87869e-16 0)
(-1.18376e-19 -9.87867e-16 0)
(-1.3033e-19 -9.87865e-16 0)
(-1.42848e-19 -9.87862e-16 0)
(-1.56021e-19 -9.8786e-16 0)
(-1.69953e-19 -9.87856e-16 0)
(-1.84764e-19 -9.87852e-16 0)
(-2.00591e-19 -9.87848e-16 0)
(-2.1759e-19 -9.87842e-16 0)
(-2.35941e-19 -9.87836e-16 0)
(-2.55851e-19 -9.87828e-16 0)
(-2.77546e-19 -9.87818e-16 0)
(-3.0127e-19 -9.87807e-16 0)
(-3.27267e-19 -9.87792e-16 0)
(-3.55731e-19 -9.87774e-16 0)
(-3.86724e-19 -9.8775e-16 0)
(-4.19998e-19 -9.8772e-16 0)
(-4.54658e-19 -9.8768e-16 0)
(-4.88533e-19 -9.87627e-16 0)
(-5.16983e-19 -9.87555e-16 0)
(-5.30729e-19 -9.87456e-16 0)
(-5.11862e-19 -9.8732e-16 0)
(-4.26614e-19 -9.8713e-16 0)
(-2.13502e-19 -9.86859e-16 0)
(-2.67124e-20 -9.72736e-16 0)
(-7.63836e-20 -9.24772e-16 0)
(-2.5987e-19 -8.81084e-16 0)
(-3.97541e-09 -8.50695e-16 0)
(-1.70017e-05 -1.42557e-06 0)
(-1.90724e-05 -0.000305077 0)
(-4.87883e-21 -9.87862e-16 0)
(-1.45765e-20 -9.87862e-16 0)
(-2.41794e-20 -9.87862e-16 0)
(-3.37363e-20 -9.87861e-16 0)
(-4.32936e-20 -9.8786e-16 0)
(-5.28953e-20 -9.87859e-16 0)
(-6.25848e-20 -9.87858e-16 0)
(-7.2405e-20 -9.87856e-16 0)
(-8.23992e-20 -9.87855e-16 0)
(-9.26114e-20 -9.87852e-16 0)
(-1.03087e-19 -9.8785e-16 0)
(-1.13873e-19 -9.87847e-16 0)
(-1.25019e-19 -9.87844e-16 0)
(-1.36576e-19 -9.8784e-16 0)
(-1.48597e-19 -9.87836e-16 0)
(-1.61137e-19 -9.87831e-16 0)
(-1.74249e-19 -9.87825e-16 0)
(-1.87987e-19 -9.87818e-16 0)
(-2.02396e-19 -9.8781e-16 0)
(-2.17507e-19 -9.87801e-16 0)
(-2.3333e-19 -9.8779e-16 0)
(-2.4983e-19 -9.87777e-16 0)
(-2.6691e-19 -9.87762e-16 0)
(-2.84364e-19 -9.87743e-16 0)
(-3.01829e-19 -9.87722e-16 0)
(-3.18697e-19 -9.87695e-16 0)
(-3.34014e-19 -9.87664e-16 0)
(-3.46342e-19 -9.87627e-16 0)
(-3.53617e-19 -9.87583e-16 0)
(-3.53053e-19 -9.87532e-16 0)
(-3.41235e-19 -9.87475e-16 0)
(-3.1472e-19 -9.87415e-16 0)
(-2.71808e-19 -9.8736e-16 0)
(-2.16821e-19 -9.87326e-16 0)
(-1.6932e-19 -9.87344e-16 0)
(-1.45984e-19 -9.87372e-16 0)
(-1.36049e-19 -9.87362e-16 0)
(-1.21234e-11 -9.87907e-16 0)
(-1.93398e-06 -1.52956e-07 0)
(-1.30861e-06 -0.000364166 0)
(-4.69446e-21 -9.87849e-16 0)
(-1.40222e-20 -9.87848e-16 0)
(-2.32487e-20 -9.87848e-16 0)
(-3.24143e-20 -9.87847e-16 0)
(-4.15567e-20 -9.87846e-16 0)
(-5.07113e-20 -9.87844e-16 0)
(-5.99113e-20 -9.87843e-16 0)
(-6.91886e-20 -9.87841e-16 0)
(-7.85736e-20 -9.87838e-16 0)
(-8.80955e-20 -9.87836e-16 0)
(-9.77818e-20 -9.87832e-16 0)
(-1.07658e-19 -9.87829e-16 0)
(-1.17748e-19 -9.87825e-16 0)
(-1.28071e-19 -9.8782e-16 0)
(-1.38643e-19 -9.87814e-16 0)
(-1.4947e-19 -9.87808e-16 0)
(-1.60551e-19 -9.87801e-16 0)
(-1.71868e-19 -9.87793e-16 0)
(-1.83384e-19 -9.87784e-16 0)
(-1.95033e-19 -9.87773e-16 0)
(-2.06711e-19 -9.87761e-16 0)
(-2.18258e-19 -9.87747e-16 0)
(-2.2945e-19 -9.87732e-16 0)
(-2.39968e-19 -9.87713e-16 0)
(-2.49385e-19 -9.87693e-16 0)
(-2.57141e-19 -9.87669e-16 0)
(-2.62533e-19 -9.87643e-16 0)
(-2.64721e-19 -9.87614e-16 0)
(-2.62772e-19 -9.87583e-16 0)
(-2.55777e-19 -9.8755e-16 0)
(-2.43044e-19 -9.87517e-16 0)
(-2.24427e-19 -9.87485e-16 0)
(-2.00724e-19 -9.87458e-16 0)
(-1.73998e-19 -9.87438e-16 0)
(-1.47302e-19 -9.87426e-16 0)
(-1.22552e-19 -9.87418e-16 0)
(-9.88302e-20 -9.87407e-16 0)
(-7.67506e-12 -9.88241e-16 0)
(-8.67178e-07 -1.80511e-07 0)
(-3.40387e-07 -0.000378787 0)
(-4.46397e-21 -9.87835e-16 0)
(-1.33297e-20 -9.87835e-16 0)
(-2.20874e-20 -9.87834e-16 0)
(-3.07678e-20 -9.87833e-16 0)
(-3.93992e-20 -9.87832e-16 0)
(-4.80067e-20 -9.8783e-16 0)
(-5.66134e-20 -9.87828e-16 0)
(-6.52395e-20 -9.87826e-16 0)
(-7.39023e-20 -9.87823e-16 0)
(-8.26164e-20 -9.8782e-16 0)
(-9.13925e-20 -9.87816e-16 0)
(-1.00237e-19 -9.87812e-16 0)
(-1.09151e-19 -9.87807e-16 0)
(-1.1813e-19 -9.87802e-16 0)
(-1.27157e-19 -9.87796e-16 0)
(-1.3621e-19 -9.87789e-16 0)
(-1.45248e-19 -9.87782e-16 0)
(-1.54216e-19 -9.87773e-16 0)
(-1.63034e-19 -9.87764e-16 0)
(-1.71599e-19 -9.87753e-16 0)
(-1.79772e-19 -9.87741e-16 0)
(-1.87377e-19 -9.87728e-16 0)
(-1.94195e-19 -9.87713e-16 0)
(-1.99959e-19 -9.87697e-16 0)
(-2.04354e-19 -9.87679e-16 0)
(-2.07024e-19 -9.8766e-16 0)
(-2.07587e-19 -9.87639e-16 0)
(-2.05661e-19 -9.87618e-16 0)
(-2.0091e-19 -9.87595e-16 0)
(-1.93105e-19 -9.87573e-16 0)
(-1.82191e-19 -9.87551e-16 0)
(-1.68356e-19 -9.87531e-16 0)
(-1.52059e-19 -9.87514e-16 0)
(-1.33981e-19 -9.87498e-16 0)
(-1.1485e-19 -9.87486e-16 0)
(-9.51646e-20 -9.87476e-16 0)
(-7.50874e-20 -9.87468e-16 0)
(-7.59718e-12 -9.88683e-16 0)
(-5.93706e-07 -2.35947e-07 0)
(-8.97326e-08 -0.000387965 0)
(-4.19821e-21 -9.87823e-16 0)
(-1.25319e-20 -9.87822e-16 0)
(-2.07514e-20 -9.87822e-16 0)
(-2.88778e-20 -9.87821e-16 0)
(-3.69297e-20 -9.87819e-16 0)
(-4.49228e-20 -9.87817e-16 0)
(-5.28699e-20 -9.87815e-16 0)
(-6.07805e-20 -9.87812e-16 0)
(-6.86607e-20 -9.87809e-16 0)
(-7.65125e-20 -9.87806e-16 0)
(-8.43332e-20 -9.87802e-16 0)
(-9.21148e-20 -9.87798e-16 0)
(-9.98424e-20 -9.87793e-16 0)
(-1.07494e-19 -9.87787e-16 0)
(-1.15038e-19 -9.87781e-16 0)
(-1.22431e-19 -9.87774e-16 0)
(-1.29619e-19 -9.87766e-16 0)
(-1.36532e-19 -9.87758e-16 0)
(-1.43083e-19 -9.87749e-16 0)
(-1.49166e-19 -9.87739e-16 0)
(-1.54656e-19 -9.87728e-16 0)
(-1.59406e-19 -9.87716e-16 0)
(-1.6325e-19 -9.87703e-16 0)
(-1.66005e-19 -9.87689e-16 0)
(-1.67477e-19 -9.87674e-16 0)
(-1.67471e-19 -9.87659e-16 0)
(-1.65804e-19 -9.87643e-16 0)
(-1.62324e-19 -9.87627e-16 0)
(-1.56928e-19 -9.8761e-16 0)
(-1.49586e-19 -9.87594e-16 0)
(-1.40356e-19 -9.87579e-16 0)
(-1.2939e-19 -9.87565e-16 0)
(-1.16925e-19 -9.87552e-16 0)
(-1.03251e-19 -9.87541e-16 0)
(-8.86625e-20 -9.87532e-16 0)
(-7.34174e-20 -9.87524e-16 0)
(-5.775e-20 -9.87518e-16 0)
(-7.85266e-12 -9.89148e-16 0)
(-4.63369e-07 -2.98425e-07 0)
(4.64904e-08 -0.000395484 0)
(-3.90839e-21 -9.87811e-16 0)
(-1.16626e-20 -9.87811e-16 0)
(-1.92981e-20 -9.8781e-16 0)
(-2.68269e-20 -9.87809e-16 0)
(-3.42586e-20 -9.87807e-16 0)
(-4.16005e-20 -9.87805e-16 0)
(-4.88564e-20 -9.87803e-16 0)
(-5.60273e-20 -9.878e-16 0)
(-6.31102e-20 -9.87797e-16 0)
(-7.00979e-20 -9.87793e-16 0)
(-7.69783e-20 -9.87789e-16 0)
(-8.3734e-20 -9.87785e-16 0)
(-9.03412e-20 -9.8778e-16 0)
(-9.67691e-20 -9.87774e-16 0)
(-1.02979e-19 -9.87768e-16 0)
(-1.08923e-19 -9.87762e-16 0)
(-1.14545e-19 -9.87754e-16 0)
(-1.19777e-19 -9.87747e-16 0)
(-1.24541e-19 -9.87738e-16 0)
(-1.28748e-19 -9.87729e-16 0)
(-1.32301e-19 -9.87719e-16 0)
(-1.35093e-19 -9.87709e-16 0)
(-1.37012e-19 -9.87698e-16 0)
(-1.37945e-19 -9.87686e-16 0)
(-1.37783e-19 -9.87674e-16 0)
(-1.36429e-19 -9.87662e-16 0)
(-1.33803e-19 -9.8765e-16 0)
(-1.29854e-19 -9.87637e-16 0)
(-1.24567e-19 -9.87625e-16 0)
(-1.17965e-19 -9.87613e-16 0)
(-1.10117e-19 -9.87602e-16 0)
(-1.01133e-19 -9.87592e-16 0)
(-9.11574e-20 -9.87583e-16 0)
(-8.03556e-20 -9.87574e-16 0)
(-6.89018e-20 -9.87567e-16 0)
(-5.69674e-20 -9.87561e-16 0)
(-4.47508e-20 -9.87556e-16 0)
(-7.76312e-12 -9.89626e-16 0)
(-3.72378e-07 -3.63324e-07 0)
(1.62089e-07 -0.000402198 0)
(-3.60523e-21 -9.878e-16 0)
(-1.0754e-20 -9.878e-16 0)
(-1.77817e-20 -9.87799e-16 0)
(-2.46923e-20 -9.87798e-16 0)
(-3.14881e-20 -9.87796e-16 0)
(-3.81688e-20 -9.87794e-16 0)
(-4.47317e-20 -9.87792e-16 0)
(-5.1171e-20 -9.87789e-16 0)
(-5.74774e-20 -9.87786e-16 0)
(-6.36377e-20 -9.87782e-16 0)
(-6.96345e-20 -9.87778e-16 0)
(-7.54457e-20 -9.87774e-16 0)
(-8.10437e-20 -9.87769e-16 0)
(-8.63957e-20 -9.87764e-16 0)
(-9.14627e-20 -9.87758e-16 0)
(-9.61996e-20 -9.87752e-16 0)
(-1.00555e-19 -9.87745e-16 0)
(-1.04472e-19 -9.87738e-16 0)
(-1.07888e-19 -9.8773e-16 0)
(-1.10735e-19 -9.87722e-16 0)
(-1.12943e-19 -9.87714e-16 0)
(-1.14441e-19 -9.87705e-16 0)
(-1.15158e-19 -9.87696e-16 0)
(-1.1503e-19 -9.87686e-16 0)
(-1.13998e-19 -9.87677e-16 0)
(-1.1202e-19 -9.87667e-16 0)
(-1.09065e-19 -9.87657e-16 0)
(-1.05127e-19 -9.87648e-16 0)
(-1.00217e-19 -9.87638e-16 0)
(-9.43751e-20 -9.8763e-16 0)
(-8.76603e-20 -9.87621e-16 0)
(-8.01545e-20 -9.87614e-16 0)
(-7.19566e-20 -9.87607e-16 0)
(-6.31784e-20 -9.876e-16 0)
(-5.39399e-20 -9.87595e-16 0)
(-4.43667e-20 -9.8759e-16 0)
(-3.46234e-20 -9.87587e-16 0)
(-7.31095e-12 -9.90088e-16 0)
(-2.85239e-07 -4.25894e-07 0)
(2.99669e-07 -0.000408452 0)
(-3.29821e-21 -9.8779e-16 0)
(-9.83465e-21 -9.8779e-16 0)
(-1.62501e-20 -9.87789e-16 0)
(-2.25419e-20 -9.87788e-16 0)
(-2.87062e-20 -9.87786e-16 0)
(-3.47375e-20 -9.87784e-16 0)
(-4.0628e-20 -9.87782e-16 0)
(-4.63675e-20 -9.87779e-16 0)
(-5.19427e-20 -9.87776e-16 0)
(-5.73374e-20 -9.87773e-16 0)
(-6.2532e-20 -9.87769e-16 0)
(-6.75028e-20 -9.87765e-16 0)
(-7.22228e-20 -9.8776e-16 0)
(-7.66607e-20 -9.87755e-16 0)
(-8.07814e-20 -9.8775e-16 0)
(-8.4546e-20 -9.87744e-16 0)
(-8.79123e-20 -9.87738e-16 0)
(-9.0835e-20 -9.87732e-16 0)
(-9.32669e-20 -9.87725e-16 0)
(-9.516e-20 -9.87718e-16 0)
(-9.64663e-20 -9.87711e-16 0)
(-9.71404e-20 -9.87703e-16 0)
(-9.71404e-20 -9.87696e-16 0)
(-9.64308e-20 -9.87688e-16 0)
(-9.49843e-20 -9.8768e-16 0)
(-9.27836e-20 -9.87673e-16 0)
(-8.98236e-20 -9.87665e-16 0)
(-8.61124e-20 -9.87658e-16 0)
(-8.16719e-20 -9.87651e-16 0)
(-7.65377e-20 -9.87644e-16 0)
(-7.0758e-20 -9.87638e-16 0)
(-6.43918e-20 -9.87632e-16 0)
(-5.75068e-20 -9.87627e-16 0)
(-5.01762e-20 -9.87622e-16 0)
(-4.24764e-20 -9.87618e-16 0)
(-3.44847e-20 -9.87614e-16 0)
(-2.63079e-20 -9.87612e-16 0)
(-5.94652e-12 -9.90504e-16 0)
(-1.77258e-07 -4.80535e-07 0)
(5.03977e-07 -0.000414454 0)
(-2.99524e-21 -9.87781e-16 0)
(-8.92822e-21 -9.87781e-16 0)
(-1.47425e-20 -9.8778e-16 0)
(-2.04305e-20 -9.87779e-16 0)
(-2.59839e-20 -9.87777e-16 0)
(-3.13934e-20 -9.87775e-16 0)
(-3.66479e-20 -9.87773e-16 0)
(-4.17347e-20 -9.87771e-16 0)
(-4.66387e-20 -9.87768e-16 0)
(-5.13427e-20 -9.87764e-16 0)
(-5.58269e-20 -9.87761e-16 0)
(-6.00691e-20 -9.87757e-16 0)
(-6.40444e-20 -9.87753e-16 0)
(-6.77255e-20 -9.87748e-16 0)
(-7.10829e-20 -9.87743e-16 0)
(-7.40851e-20 -9.87738e-16 0)
(-7.66992e-20 -9.87733e-16 0)
(-7.88912e-20 -9.87727e-16 0)
(-8.06274e-20 -9.87721e-16 0)
(-8.18747e-20 -9.87715e-16 0)
(-8.2602e-20 -9.87709e-16 0)
(-8.27812e-20 -9.87703e-16 0)
(-8.23886e-20 -9.87697e-16 0)
(-8.1406e-20 -9.87691e-16 0)
(-7.9822e-20 -9.87684e-16 0)
(-7.76326e-20 -9.87678e-16 0)
(-7.48423e-20 -9.87672e-16 0)
(-7.14642e-20 -9.87667e-16 0)
(-6.75202e-20 -9.87661e-16 0)
(-6.30399e-20 -9.87656e-16 0)
(-5.80601e-20 -9.87652e-16 0)
(-5.26229e-20 -9.87647e-16 0)
(-4.67738e-20 -9.87643e-16 0)
(-4.05589e-20 -9.8764e-16 0)
(-3.40217e-20 -9.87637e-16 0)
(-2.71985e-20 -9.87635e-16 0)
(-2.01384e-20 -9.87633e-16 0)
(-4.42649e-12 -9.91003e-16 0)
(-7.88818e-08 -5.41938e-07 0)
(7.08355e-07 -0.000420362 0)
(-2.70242e-21 -9.87773e-16 0)
(-8.05289e-21 -9.87773e-16 0)
(-1.3289e-20 -9.87772e-16 0)
(-1.83998e-20 -9.87771e-16 0)
(-2.33739e-20 -9.87769e-16 0)
(-2.81995e-20 -9.87767e-16 0)
(-3.28641e-20 -9.87765e-16 0)
(-3.73536e-20 -9.87763e-16 0)
(-4.16529e-20 -9.8776e-16 0)
(-4.57452e-20 -9.87757e-16 0)
(-4.96122e-20 -9.87754e-16 0)
(-5.32341e-20 -9.8775e-16 0)
(-5.65896e-20 -9.87746e-16 0)
(-5.96563e-20 -9.87742e-16 0)
(-6.24105e-20 -9.87738e-16 0)
(-6.48281e-20 -9.87733e-16 0)
(-6.68846e-20 -9.87729e-16 0)
(-6.85557e-20 -9.87724e-16 0)
(-6.98182e-20 -9.87719e-16 0)
(-7.06502e-20 -9.87714e-16 0)
(-7.10323e-20 -9.87709e-16 0)
(-7.09477e-20 -9.87704e-16 0)
(-7.03836e-20 -9.87698e-16 0)
(-6.93316e-20 -9.87693e-16 0)
(-6.77878e-20 -9.87688e-16 0)
(-6.57542e-20 -9.87684e-16 0)
(-6.3238e-20 -9.87679e-16 0)
(-6.02523e-20 -9.87675e-16 0)
(-5.6816e-20 -9.87671e-16 0)
(-5.29531e-20 -9.87667e-16 0)
(-4.86926e-20 -9.87663e-16 0)
(-4.40678e-20 -9.8766e-16 0)
(-3.91157e-20 -9.87658e-16 0)
(-3.38763e-20 -9.87655e-16 0)
(-2.83921e-20 -9.87653e-16 0)
(-2.27079e-20 -9.87652e-16 0)
(-1.68978e-20 -9.87651e-16 0)
(-4.56399e-12 -9.91615e-16 0)
(-7.79724e-08 -6.17305e-07 0)
(7.04193e-07 -0.000426211 0)
(-2.42412e-21 -9.87766e-16 0)
(-7.22159e-21 -9.87765e-16 0)
(-1.19108e-20 -9.87764e-16 0)
(-1.64784e-20 -9.87763e-16 0)
(-2.09116e-20 -9.87762e-16 0)
(-2.51974e-20 -9.8776e-16 0)
(-2.93225e-20 -9.87758e-16 0)
(-3.32732e-20 -9.87756e-16 0)
(-3.70348e-20 -9.87754e-16 0)
(-4.05923e-20 -9.87751e-16 0)
(-4.39295e-20 -9.87748e-16 0)
(-4.703e-20 -9.87744e-16 0)
(-4.98763e-20 -9.87741e-16 0)
(-5.24511e-20 -9.87737e-16 0)
(-5.47363e-20 -9.87734e-16 0)
(-5.67145e-20 -9.8773e-16 0)
(-5.83684e-20 -9.87726e-16 0)
(-5.96816e-20 -9.87721e-16 0)
(-6.0639e-20 -9.87717e-16 0)
(-6.12268e-20 -9.87713e-16 0)
(-6.14337e-20 -9.87709e-16 0)
(-6.12502e-20 -9.87704e-16 0)
(-6.067e-20 -9.877e-16 0)
(-5.96893e-20 -9.87696e-16 0)
(-5.83079e-20 -9.87692e-16 0)
(-5.65286e-20 -9.87688e-16 0)
(-5.43577e-20 -9.87685e-16 0)
(-5.18052e-20 -9.87682e-16 0)
(-4.88843e-20 -9.87679e-16 0)
(-4.56121e-20 -9.87676e-16 0)
(-4.20091e-20 -9.87674e-16 0)
(-3.81002e-20 -9.87671e-16 0)
(-3.3914e-20 -9.8767e-16 0)
(-2.94843e-20 -9.87668e-16 0)
(-2.48496e-20 -9.87667e-16 0)
(-2.00537e-20 -9.87666e-16 0)
(-1.51736e-20 -9.87666e-16 0)
(-5.13783e-12 -9.9236e-16 0)
(-8.64456e-08 -7.05165e-07 0)
(6.98447e-07 -0.000432023 0)
(-2.16309e-21 -9.87759e-16 0)
(-6.44245e-21 -9.87759e-16 0)
(-1.06208e-20 -9.87758e-16 0)
(-1.46837e-20 -9.87757e-16 0)
(-1.86178e-20 -9.87756e-16 0)
(-2.24097e-20 -9.87754e-16 0)
(-2.60466e-20 -9.87752e-16 0)
(-2.95154e-20 -9.8775e-16 0)
(-3.2803e-20 -9.87748e-16 0)
(-3.58963e-20 -9.87745e-16 0)
(-3.8782e-20 -9.87743e-16 0)
(-4.1447e-20 -9.8774e-16 0)
(-4.38779e-20 -9.87737e-16 0)
(-4.60619e-20 -9.87733e-16 0)
(-4.79865e-20 -9.8773e-16 0)
(-4.96399e-20 -9.87726e-16 0)
(-5.10109e-20 -9.87723e-16 0)
(-5.20896e-20 -9.87719e-16 0)
(-5.28674e-20 -9.87716e-16 0)
(-5.33368e-20 -9.87712e-16 0)
(-5.34921e-20 -9.87709e-16 0)
(-5.33292e-20 -9.87705e-16 0)
(-5.28455e-20 -9.87702e-16 0)
(-5.20401e-20 -9.87698e-16 0)
(-5.09133e-20 -9.87695e-16 0)
(-4.94671e-20 -9.87692e-16 0)
(-4.77042e-20 -9.8769e-16 0)
(-4.56288e-20 -9.87687e-16 0)
(-4.32457e-20 -9.87685e-16 0)
(-4.05613e-20 -9.87684e-16 0)
(-3.75835e-20 -9.87682e-16 0)
(-3.43228e-20 -9.87681e-16 0)
(-3.07935e-20 -9.8768e-16 0)
(-2.70152e-20 -9.87679e-16 0)
(-2.30149e-20 -9.87679e-16 0)
(-1.88288e-20 -9.87678e-16 0)
(-1.45355e-20 -9.87678e-16 0)
(-6.20609e-12 -9.9327e-16 0)
(-9.79321e-08 -8.06383e-07 0)
(6.92864e-07 -0.000437874 0)
(-1.92077e-21 -9.87753e-16 0)
(-5.71958e-21 -9.87753e-16 0)
(-9.42537e-21 -9.87752e-16 0)
(-1.30236e-20 -9.87751e-16 0)
(-1.65009e-20 -9.8775e-16 0)
(-1.98444e-20 -9.87749e-16 0)
(-2.30419e-20 -9.87747e-16 0)
(-2.60819e-20 -9.87745e-16 0)
(-2.8953e-20 -9.87743e-16 0)
(-3.16443e-20 -9.87741e-16 0)
(-3.41455e-20 -9.87738e-16 0)
(-3.64465e-20 -9.87735e-16 0)
(-3.8538e-20 -9.87733e-16 0)
(-4.04114e-20 -9.8773e-16 0)
(-4.20589e-20 -9.87727e-16 0)
(-4.34738e-20 -9.87724e-16 0)
(-4.46503e-20 -9.87721e-16 0)
(-4.55841e-20 -9.87718e-16 0)
(-4.62718e-20 -9.87715e-16 0)
(-4.67116e-20 -9.87711e-16 0)
(-4.69027e-20 -9.87708e-16 0)
(-4.68453e-20 -9.87706e-16 0)
(-4.65406e-20 -9.87703e-16 0)
(-4.599e-20 -9.877e-16 0)
(-4.5195e-20 -9.87698e-16 0)
(-4.41562e-20 -9.87696e-16 0)
(-4.28732e-20 -9.87694e-16 0)
(-4.13435e-20 -9.87692e-16 0)
(-3.95619e-20 -9.87691e-16 0)
(-3.75202e-20 -9.8769e-16 0)
(-3.52075e-20 -9.87689e-16 0)
(-3.26101e-20 -9.87688e-16 0)
(-2.97139e-20 -9.87688e-16 0)
(-2.65069e-20 -9.87689e-16 0)
(-2.29842e-20 -9.87689e-16 0)
(-1.91542e-20 -9.8769e-16 0)
(-1.50868e-20 -9.8769e-16 0)
(-7.85154e-12 -9.9444e-16 0)
(-1.10936e-07 -9.28106e-07 0)
(6.89046e-07 -0.000443802 0)
(-1.69752e-21 -9.87748e-16 0)
(-5.05395e-21 -9.87747e-16 0)
(-8.32574e-21 -9.87747e-16 0)
(-1.14988e-20 -9.87746e-16 0)
(-1.45602e-20 -9.87745e-16 0)
(-1.74981e-20 -9.87744e-16 0)
(-2.03014e-20 -9.87742e-16 0)
(-2.29601e-20 -9.8774e-16 0)
(-2.54647e-20 -9.87739e-16 0)
(-2.78065e-20 -9.87736e-16 0)
(-2.99779e-20 -9.87734e-16 0)
(-3.19719e-20 -9.87732e-16 0)
(-3.37827e-20 -9.87729e-16 0)
(-3.54054e-20 -9.87727e-16 0)
(-3.68365e-20 -9.87724e-16 0)
(-3.80734e-20 -9.87722e-16 0)
(-3.91154e-20 -9.87719e-16 0)
(-3.99629e-20 -9.87716e-16 0)
(-4.06176e-20 -9.87713e-16 0)
(-4.1083e-20 -9.87711e-16 0)
(-4.13634e-20 -9.87708e-16 0)
(-4.14642e-20 -9.87706e-16 0)
(-4.13916e-20 -9.87703e-16 0)
(-4.11517e-20 -9.87701e-16 0)
(-4.07497e-20 -9.87699e-16 0)
(-4.01893e-20 -9.87698e-16 0)
(-3.94711e-20 -9.87696e-16 0)
(-3.85908e-20 -9.87695e-16 0)
(-3.75377e-20 -9.87694e-16 0)
(-3.62918e-20 -9.87694e-16 0)
(-3.48215e-20 -9.87694e-16 0)
(-3.30813e-20 -9.87694e-16 0)
(-3.10099e-20 -9.87695e-16 0)
(-2.85308e-20 -9.87696e-16 0)
(-2.55554e-20 -9.87698e-16 0)
(-2.19939e-20 -9.877e-16 0)
(-1.78345e-20 -9.87702e-16 0)
(-1.1353e-11 -9.964e-16 0)
(-1.2414e-07 -1.10062e-06 0)
(6.89206e-07 -0.000449837 0)
(-1.49294e-21 -9.87743e-16 0)
(-4.44423e-21 -9.87743e-16 0)
(-7.31929e-21 -9.87742e-16 0)
(-1.01048e-20 -9.87742e-16 0)
(-1.27887e-20 -9.87741e-16 0)
(-1.53601e-20 -9.87739e-16 0)
(-1.78095e-20 -9.87738e-16 0)
(-2.0128e-20 -9.87736e-16 0)
(-2.23082e-20 -9.87735e-16 0)
(-2.43434e-20 -9.87733e-16 0)
(-2.62283e-20 -9.87731e-16 0)
(-2.79586e-20 -9.87729e-16 0)
(-2.95312e-20 -9.87727e-16 0)
(-3.09446e-20 -9.87724e-16 0)
(-3.21985e-20 -9.87722e-16 0)
(-3.32945e-20 -9.87719e-16 0)
(-3.42354e-20 -9.87717e-16 0)
(-3.50262e-20 -9.87715e-16 0)
(-3.56733e-20 -9.87712e-16 0)
(-3.61851e-20 -9.8771e-16 0)
(-3.65718e-20 -9.87708e-16 0)
(-3.68452e-20 -9.87705e-16 0)
(-3.70183e-20 -9.87703e-16 0)
(-3.71056e-20 -9.87702e-16 0)
(-3.71217e-20 -9.877e-16 0)
(-3.70808e-20 -9.87698e-16 0)
(-3.69955e-20 -9.87697e-16 0)
(-3.68742e-20 -9.87696e-16 0)
(-3.67186e-20 -9.87696e-16 0)
(-3.65187e-20 -9.87696e-16 0)
(-3.62469e-20 -9.87696e-16 0)
(-3.58482e-20 -9.87697e-16 0)
(-3.52276e-20 -9.87699e-16 0)
(-3.42328e-20 -9.87702e-16 0)
(-3.26322e-20 -9.87705e-16 0)
(-3.00885e-20 -9.87709e-16 0)
(-2.62536e-20 -9.87715e-16 0)
(-2.30605e-11 -1.00114e-15 0)
(-1.35374e-07 -1.45405e-06 0)
(6.97903e-07 -0.000456007 0)
(-1.30614e-21 -9.87739e-16 0)
(-3.88766e-21 -9.87739e-16 0)
(-6.40109e-21 -9.87738e-16 0)
(-8.83402e-21 -9.87738e-16 0)
(-1.11754e-20 -9.87737e-16 0)
(-1.34156e-20 -9.87736e-16 0)
(-1.55461e-20 -9.87734e-16 0)
(-1.75595e-20 -9.87733e-16 0)
(-1.94499e-20 -9.87731e-16 0)
(-2.12124e-20 -9.8773e-16 0)
(-2.28435e-20 -9.87728e-16 0)
(-2.43409e-20 -9.87726e-16 0)
(-2.57039e-20 -9.87724e-16 0)
(-2.69332e-20 -9.87722e-16 0)
(-2.80312e-20 -9.8772e-16 0)
(-2.90021e-20 -9.87718e-16 0)
(-2.9852e-20 -9.87715e-16 0)
(-3.05888e-20 -9.87713e-16 0)
(-3.1223e-20 -9.87711e-16 0)
(-3.17671e-20 -9.87709e-16 0)
(-3.22364e-20 -9.87707e-16 0)
(-3.26489e-20 -9.87705e-16 0)
(-3.30256e-20 -9.87703e-16 0)
(-3.3391e-20 -9.87701e-16 0)
(-3.37729e-20 -9.87699e-16 0)
(-3.42033e-20 -9.87698e-16 0)
(-3.47183e-20 -9.87697e-16 0)
(-3.53583e-20 -9.87696e-16 0)
(-3.61676e-20 -9.87695e-16 0)
(-3.71931e-20 -9.87695e-16 0)
(-3.84813e-20 -9.87695e-16 0)
(-4.00717e-20 -9.87696e-16 0)
(-4.1984e-20 -9.87697e-16 0)
(-4.41923e-20 -9.877e-16 0)
(-4.65792e-20 -9.87704e-16 0)
(-4.88495e-20 -9.87711e-16 0)
(-5.0811e-20 -9.8772e-16 0)
(-1.04946e-10 -1.03588e-15 0)
(-1.35298e-07 -3.89661e-06 0)
(7.33354e-07 -0.00046234 0)
(-1.13596e-21 -9.87736e-16 0)
(-3.38069e-21 -9.87735e-16 0)
(-5.56499e-21 -9.87735e-16 0)
(-7.67742e-21 -9.87734e-16 0)
(-9.70795e-21 -9.87734e-16 0)
(-1.16479e-20 -9.87733e-16 0)
(-1.34898e-20 -9.87731e-16 0)
(-1.52276e-20 -9.8773e-16 0)
(-1.68563e-20 -9.87729e-16 0)
(-1.83724e-20 -9.87727e-16 0)
(-1.97738e-20 -9.87725e-16 0)
(-2.10594e-20 -9.87724e-16 0)
(-2.22301e-20 -9.87722e-16 0)
(-2.3288e-20 -9.8772e-16 0)
(-2.42369e-20 -9.87718e-16 0)
(-2.50826e-20 -9.87716e-16 0)
(-2.58326e-20 -9.87714e-16 0)
(-2.64967e-20 -9.87712e-16 0)
(-2.7087e-20 -9.8771e-16 0)
(-2.76183e-20 -9.87708e-16 0)
(-2.81083e-20 -9.87706e-16 0)
(-2.85783e-20 -9.87704e-16 0)
(-2.90538e-20 -9.87702e-16 0)
(-2.95654e-20 -9.877e-16 0)
(-3.01498e-20 -9.87698e-16 0)
(-3.08522e-20 -9.87697e-16 0)
(-3.17282e-20 -9.87695e-16 0)
(-3.28481e-20 -9.87693e-16 0)
(-3.43019e-20 -9.87692e-16 0)
(-3.62083e-20 -9.87691e-16 0)
(-3.8727e-20 -9.8769e-16 0)
(-4.20792e-20 -9.87689e-16 0)
(-4.65787e-20 -9.87688e-16 0)
(-5.26833e-20 -9.87688e-16 0)
(-6.10771e-20 -9.87688e-16 0)
(-7.28053e-20 -9.8769e-16 0)
(-9.34946e-20 -9.87692e-16 0)
(-1.46922e-09 -1.5379e-15 0)
(-9.93587e-08 -1.67441e-05 0)
(8.35882e-07 -0.000468827 0)
(-9.8115e-22 -9.87733e-16 0)
(-2.91955e-21 -9.87732e-16 0)
(-4.80456e-21 -9.87732e-16 0)
(-6.62566e-21 -9.87731e-16 0)
(-8.37371e-21 -9.87731e-16 0)
(-1.00409e-20 -9.8773e-16 0)
(-1.16205e-20 -9.87729e-16 0)
(-1.31074e-20 -9.87728e-16 0)
(-1.44974e-20 -9.87726e-16 0)
(-1.57879e-20 -9.87725e-16 0)
(-1.69772e-20 -9.87723e-16 0)
(-1.80654e-20 -9.87722e-16 0)
(-1.90535e-20 -9.8772e-16 0)
(-1.99443e-20 -9.87718e-16 0)
(-2.0742e-20 -9.87717e-16 0)
(-2.14524e-20 -9.87715e-16 0)
(-2.2083e-20 -9.87713e-16 0)
(-2.26433e-20 -9.87711e-16 0)
(-2.31446e-20 -9.87709e-16 0)
(-2.36007e-20 -9.87707e-16 0)
(-2.40279e-20 -9.87705e-16 0)
(-2.44455e-20 -9.87703e-16 0)
(-2.48764e-20 -9.87701e-16 0)
(-2.53475e-20 -9.87699e-16 0)
(-2.58911e-20 -9.87697e-16 0)
(-2.65461e-20 -9.87695e-16 0)
(-2.73594e-20 -9.87693e-16 0)
(-2.83889e-20 -9.87691e-16 0)
(-2.97065e-20 -9.87688e-16 0)
(-3.14026e-20 -9.87686e-16 0)
(-3.35922e-20 -9.87683e-16 0)
(-3.64228e-20 -9.8768e-16 0)
(-4.00844e-20 -9.87676e-16 0)
(-4.48225e-20 -9.87672e-16 0)
(-5.09517e-20 -9.87666e-16 0)
(-5.8869e-20 -9.87659e-16 0)
(-1.07778e-19 -9.87649e-16 0)
(-1.00675e-08 -3.46326e-15 0)
(-1.12758e-07 -3.46366e-05 0)
(8.58116e-07 -0.000475459 0)
(-8.4051e-22 -9.8773e-16 0)
(-2.50061e-21 -9.8773e-16 0)
(-4.11369e-21 -9.87729e-16 0)
(-5.67004e-21 -9.87729e-16 0)
(-7.16123e-21 -9.87728e-16 0)
(-8.58007e-21 -9.87727e-16 0)
(-9.92059e-21 -9.87726e-16 0)
(-1.1178e-20 -9.87725e-16 0)
(-1.23488e-20 -9.87724e-16 0)
(-1.34305e-20 -9.87723e-16 0)
(-1.44218e-20 -9.87722e-16 0)
(-1.53228e-20 -9.8772e-16 0)
(-1.61344e-20 -9.87719e-16 0)
(-1.68592e-20 -9.87717e-16 0)
(-1.75005e-20 -9.87715e-16 0)
(-1.80633e-20 -9.87714e-16 0)
(-1.85534e-20 -9.87712e-16 0)
(-1.89784e-20 -9.8771e-16 0)
(-1.93468e-20 -9.87708e-16 0)
(-1.96687e-20 -9.87706e-16 0)
(-1.99556e-20 -9.87704e-16 0)
(-2.02204e-20 -9.87702e-16 0)
(-2.04776e-20 -9.877e-16 0)
(-2.07429e-20 -9.87698e-16 0)
(-2.10335e-20 -9.87696e-16 0)
(-2.13679e-20 -9.87694e-16 0)
(-2.17649e-20 -9.87691e-16 0)
(-2.2243e-20 -9.87689e-16 0)
(-2.28185e-20 -9.87686e-16 0)
(-2.35022e-20 -9.87683e-16 0)
(-2.42939e-20 -9.87679e-16 0)
(-2.51733e-20 -9.87675e-16 0)
(-2.60844e-20 -9.8767e-16 0)
(-2.69107e-20 -9.87664e-16 0)
(-2.74346e-20 -9.87657e-16 0)
(-2.72733e-20 -9.87648e-16 0)
(-7.48338e-20 -9.87637e-16 0)
(-4.51073e-09 -5.40457e-15 0)
(-2.33392e-07 -4.19498e-05 0)
(6.61578e-07 -0.000482317 0)
(-7.12964e-22 -9.87728e-16 0)
(-2.12065e-21 -9.87728e-16 0)
(-3.48701e-21 -9.87727e-16 0)
(-4.80298e-21 -9.87727e-16 0)
(-6.0607e-21 -9.87726e-16 0)
(-7.25347e-21 -9.87725e-16 0)
(-8.37569e-21 -9.87725e-16 0)
(-9.42291e-21 -9.87724e-16 0)
(-1.03917e-20 -9.87722e-16 0)
(-1.12796e-20 -9.87721e-16 0)
(-1.20854e-20 -9.8772e-16 0)
(-1.28085e-20 -9.87719e-16 0)
(-1.34496e-20 -9.87717e-16 0)
(-1.401e-20 -9.87716e-16 0)
(-1.4492e-20 -9.87714e-16 0)
(-1.48987e-20 -9.87713e-16 0)
(-1.52339e-20 -9.87711e-16 0)
(-1.55021e-20 -9.87709e-16 0)
(-1.57082e-20 -9.87708e-16 0)
(-1.58576e-20 -9.87706e-16 0)
(-1.59558e-20 -9.87704e-16 0)
(-1.60082e-20 -9.87702e-16 0)
(-1.60197e-20 -9.877e-16 0)
(-1.59942e-20 -9.87698e-16 0)
(-1.59339e-20 -9.87696e-16 0)
(-1.58382e-20 -9.87693e-16 0)
(-1.57022e-20 -9.87691e-16 0)
(-1.55149e-20 -9.87688e-16 0)
(-1.52563e-20 -9.87685e-16 0)
(-1.48935e-20 -9.87682e-16 0)
(-1.43761e-20 -9.87679e-16 0)
(-1.3629e-20 -9.87675e-16 0)
(-1.25447e-20 -9.8767e-16 0)
(-1.09734e-20 -9.87665e-16 0)
(-8.71269e-21 -9.8766e-16 0)
(-5.49963e-21 -9.87654e-16 0)
(-1.00885e-21 -9.87647e-16 0)
(2.67498e-20 -6.06717e-15 0)
(-3.06822e-07 -4.01575e-05 0)
(5.41155e-07 -0.00048941 0)
(-5.97592e-22 -9.87726e-16 0)
(-1.77692e-21 -9.87726e-16 0)
(-2.91997e-21 -9.87725e-16 0)
(-4.01821e-21 -9.87725e-16 0)
(-5.06417e-21 -9.87724e-16 0)
(-6.0515e-21 -9.87724e-16 0)
(-6.97483e-21 -9.87723e-16 0)
(-7.8298e-21 -9.87722e-16 0)
(-8.61296e-21 -9.87721e-16 0)
(-9.32176e-21 -9.8772e-16 0)
(-9.95444e-21 -9.87719e-16 0)
(-1.05101e-20 -9.87718e-16 0)
(-1.09883e-20 -9.87716e-16 0)
(-1.13895e-20 -9.87715e-16 0)
(-1.17146e-20 -9.87714e-16 0)
(-1.19648e-20 -9.87712e-16 0)
(-1.21415e-20 -9.87711e-16 0)
(-1.22466e-20 -9.87709e-16 0)
(-1.22814e-20 -9.87707e-16 0)
(-1.22473e-20 -9.87706e-16 0)
(-1.21447e-20 -9.87704e-16 0)
(-1.19732e-20 -9.87702e-16 0)
(-1.17309e-20 -9.877e-16 0)
(-1.14136e-20 -9.87698e-16 0)
(-1.10147e-20 -9.87696e-16 0)
(-1.05235e-20 -9.87694e-16 0)
(-9.92499e-21 -9.87692e-16 0)
(-9.19817e-21 -9.87689e-16 0)
(-8.3149e-21 -9.87687e-16 0)
(-7.23859e-21 -9.87684e-16 0)
(-5.92298e-21 -9.87681e-16 0)
(-4.31152e-21 -9.87678e-16 0)
(-2.33765e-21 -9.87675e-16 0)
(7.30066e-23 -9.87671e-16 0)
(2.99755e-21 -9.87668e-16 0)
(6.50617e-21 -9.87664e-16 0)
(1.06462e-20 -9.87661e-16 0)
(6.3319e-20 -6.4562e-15 0)
(-3.42314e-07 -3.58277e-05 0)
(4.83663e-07 -0.000496611 0)
(-4.93634e-22 -9.87724e-16 0)
(-1.46717e-21 -9.87724e-16 0)
(-2.4089e-21 -9.87724e-16 0)
(-3.31066e-21 -9.87723e-16 0)
(-4.16535e-21 -9.87723e-16 0)
(-4.9668e-21 -9.87722e-16 0)
(-5.70979e-21 -9.87722e-16 0)
(-6.38995e-21 -9.87721e-16 0)
(-7.00373e-21 -9.8772e-16 0)
(-7.54831e-21 -9.87719e-16 0)
(-8.02154e-21 -9.87718e-16 0)
(-8.42187e-21 -9.87717e-16 0)
(-8.74823e-21 -9.87716e-16 0)
(-8.99997e-21 -9.87714e-16 0)
(-9.17669e-21 -9.87713e-16 0)
(-9.27817e-21 -9.87712e-16 0)
(-9.30415e-21 -9.87711e-16 0)
(-9.25419e-21 -9.87709e-16 0)
(-9.12744e-21 -9.87708e-16 0)
(-8.92239e-21 -9.87706e-16 0)
(-8.63661e-21 -9.87704e-16 0)
(-8.26642e-21 -9.87703e-16 0)
(-7.80654e-21 -9.87701e-16 0)
(-7.24967e-21 -9.87699e-16 0)
(-6.5861e-21 -9.87698e-16 0)
(-5.80327e-21 -9.87696e-16 0)
(-4.88539e-21 -9.87694e-16 0)
(-3.81313e-21 -9.87692e-16 0)
(-2.56353e-21 -9.8769e-16 0)
(-1.11015e-21 -9.87687e-16 0)
(5.76225e-22 -9.87685e-16 0)
(2.52619e-21 -9.87683e-16 0)
(4.76931e-21 -9.87681e-16 0)
(7.33041e-21 -9.87678e-16 0)
(1.02241e-20 -9.87676e-16 0)
(1.34472e-20 -9.87674e-16 0)
(1.69693e-20 -9.87672e-16 0)
(8.60348e-20 -6.80226e-15 0)
(-3.47504e-07 -3.05517e-05 0)
(4.34016e-07 -0.000503692 0)
(-4.0047e-22 -9.87723e-16 0)
(-1.18956e-21 -9.87723e-16 0)
(-1.95078e-21 -9.87723e-16 0)
(-2.67632e-21 -9.87722e-16 0)
(-3.35929e-21 -9.87722e-16 0)
(-3.99371e-21 -9.87721e-16 0)
(-4.57442e-21 -9.87721e-16 0)
(-5.09704e-21 -9.8772e-16 0)
(-5.55788e-21 -9.87719e-16 0)
(-5.95389e-21 -9.87718e-16 0)
(-6.28259e-21 -9.87717e-16 0)
(-6.54193e-21 -9.87716e-16 0)
(-6.73026e-21 -9.87715e-16 0)
(-6.8462e-21 -9.87714e-16 0)
(-6.88853e-21 -9.87713e-16 0)
(-6.85603e-21 -9.87712e-16 0)
(-6.74739e-21 -9.87711e-16 0)
(-6.56103e-21 -9.87709e-16 0)
(-6.29491e-21 -9.87708e-16 0)
(-5.94638e-21 -9.87707e-16 0)
(-5.51195e-21 -9.87705e-16 0)
(-4.98709e-21 -9.87704e-16 0)
(-4.36604e-21 -9.87702e-16 0)
(-3.64162e-21 -9.87701e-16 0)
(-2.80501e-21 -9.87699e-16 0)
(-1.84568e-21 -9.87698e-16 0)
(-7.51284e-22 -9.87696e-16 0)
(4.92277e-22 -9.87695e-16 0)
(1.90068e-21 -9.87693e-16 0)
(3.49088e-21 -9.87691e-16 0)
(5.28055e-21 -9.8769e-16 0)
(7.2874e-21 -9.87688e-16 0)
(9.52833e-21 -9.87687e-16 0)
(1.20184e-20 -9.87685e-16 0)
(1.47701e-20 -9.87684e-16 0)
(1.77927e-20 -9.87683e-16 0)
(2.1092e-20 -9.87681e-16 0)
(1.04778e-19 -7.0146e-15 0)
(-2.8672e-07 -2.48212e-05 0)
(3.88642e-07 -0.000510104 0)
(-3.17581e-22 -9.87722e-16 0)
(-9.4256e-22 -9.87722e-16 0)
(-1.54317e-21 -9.87722e-16 0)
(-2.11187e-21 -9.87721e-16 0)
(-2.64198e-21 -9.87721e-16 0)
(-3.12766e-21 -9.8772e-16 0)
(-3.56384e-21 -9.8772e-16 0)
(-3.94611e-21 -9.87719e-16 0)
(-4.27071e-21 -9.87719e-16 0)
(-4.53444e-21 -9.87718e-16 0)
(-4.73457e-21 -9.87717e-16 0)
(-4.86878e-21 -9.87716e-16 0)
(-4.93506e-21 -9.87715e-16 0)
(-4.93163e-21 -9.87714e-16 0)
(-4.85686e-21 -9.87713e-16 0)
(-4.70912e-21 -9.87712e-16 0)
(-4.48672e-21 -9.87711e-16 0)
(-4.18778e-21 -9.8771e-16 0)
(-3.81013e-21 -9.87709e-16 0)
(-3.35116e-21 -9.87708e-16 0)
(-2.80774e-21 -9.87706e-16 0)
(-2.17611e-21 -9.87705e-16 0)
(-1.45182e-21 -9.87704e-16 0)
(-6.29618e-22 -9.87703e-16 0)
(2.96539e-22 -9.87701e-16 0)
(1.33348e-21 -9.877e-16 0)