/*--------------------------------*- C++ -*----------------------------------*\
  =========                 |
  \\      /  F ield         | OpenFOAM: The Open Source CFD Toolbox
   \\    /   O peration     | Website:  https://openfoam.org
    \\  /    A nd           | Version:  11
     \\/     M anipulation  |
\*---------------------------------------------------------------------------*/
FoamFile
{
    format      ascii;
    class       volScalarField;
    location    "23";
    object      p;
}
// * * * * * * * * * * * * * * * * * * * * * * * * * * * * * * * * * * * * * //

dimensions      [0 2 -2 0 0 0 0];

internalField   nonuniform List<scalar> 
2048
(
1.07916
1.07683
1.07215
1.06488
1.0549
1.04203
1.02609
1.00686
0.984157
0.957817
0.92779
0.894159
0.857177
0.8173
0.775189
0.731686
0.687747
0.644355
0.602398
0.562576
0.525356
0.49099
0.459557
0.43102
0.405257
0.382088
0.361295
0.342642
0.325889
0.3108
0.29715
0.284724
0.273327
0.26278
0.252921
0.243602
0.234694
0.226079
0.217656
0.209337
0.201045
0.192717
0.184303
0.175766
0.16708
0.15823
0.149217
0.140049
0.130748
0.121346
0.111881
0.102402
0.0929595
0.0836117
0.0744094
0.0654138
0.0566569
0.0482005
0.040025
0.0322114
0.0246232
0.0174428
0.0102724
0.00368618
1.08156
1.07926
1.07462
1.06743
1.05753
1.04472
1.02882
1.00957
0.986742
0.960165
0.929759
0.895588
0.857908
0.817201
0.774185
0.729782
0.685043
0.64103
0.59867
0.558657
0.521417
0.487158
0.455923
0.427646
0.402178
0.379317
0.358832
0.340477
0.324006
0.309179
0.295768
0.283561
0.27236
0.261989
0.252285
0.243105
0.234317
0.225808
0.217475
0.209231
0.201001
0.192721
0.184343
0.175828
0.167151
0.158299
0.149272
0.140081
0.130747
0.121304
0.111792
0.102262
0.0927667
0.0833677
0.0741186
0.0650836
0.0562983
0.0478273
0.0396548
0.0318632
0.0243187
0.0172024
0.0101155
0.0036281
1.08634
1.0841
1.07957
1.07254
1.0628
1.05016
1.03435
1.01506
0.992017
0.964972
0.933796
0.898523
0.859405
0.816976
0.772067
0.725778
0.679373
0.634092
0.590941
0.550578
0.513341
0.479338
0.44854
0.420815
0.395964
0.373743
0.35389
0.336142
0.320243
0.305945
0.293018
0.281248
0.270441
0.260421
0.25103
0.242126
0.23358
0.225281
0.217128
0.209036
0.200929
0.192746
0.184437
0.175966
0.167308
0.158451
0.149395
0.140154
0.130752
0.121224
0.111615
0.10198
0.0923764
0.0828712
0.0735246
0.0644067
0.0555611
0.0470575
0.0388895
0.0311402
0.0236861
0.0166978
0.00978917
0.00349939
1.09342
1.09128
1.08694
1.08018
1.07075
1.0584
1.04279
1.02352
1.0002
0.972477
0.940121
0.903114
0.86171
0.816526
0.768576
0.719255
0.670206
0.622981
0.578687
0.53789
0.500757
0.467244
0.437199
0.410388
0.386527
0.365311
0.346441
0.329631
0.314609
0.301118
0.288924
0.277814
0.267599
0.258107
0.249186
0.240695
0.232513
0.224529
0.216647
0.208781
0.200859
0.19282
0.184616
0.17621
0.167578
0.15871
0.149609
0.140289
0.130778
0.121117
0.111356
0.101555
0.0917801
0.082106
0.0726034
0.0633509
0.0544055
0.045844
0.0376771
0.0299871
0.0226731
0.0158822
0.00926232
0.00327841
1.10271
1.10072
1.09668
1.09033
1.0814
1.06955
1.05433
1.03522
1.01166
0.983107
0.949152
0.909654
0.864875
0.815598
0.763133
0.709373
0.656594
0.606786
0.561111
0.519923
0.48313
0.450474
0.421623
0.396187
0.37376
0.353965
0.336466
0.320951
0.30713
0.294735
0.28353
0.273307
0.263885
0.255098
0.246802
0.238863
0.231164
0.2236
0.216077
0.208514
0.200838
0.192992
0.184925
0.176604
0.168004
0.159118
0.149949
0.140516
0.130852
0.121002
0.111024
0.100988
0.0909688
0.0810524
0.0713236
0.0618727
0.052776
0.0441195
0.035941
0.0283196
0.0211976
0.0146779
0.0084854
0.00292928
1.11404
1.11227
1.10866
1.10294
1.09477
1.08371
1.06918
1.05051
1.02689
0.997501
0.961619
0.918772
0.869159
0.813833
0.754661
0.694541
0.636824
0.583971
0.536945
0.495668
0.459688
0.428481
0.401461
0.378004
0.357554
0.339665
0.323972
0.310141
0.297862
0.286861
0.276906
0.2678
0.259371
0.251467
0.24395
0.236699
0.229602
0.222562
0.215488
0.208302
0.200934
0.193326
0.18543
0.177212
0.168648
0.159732
0.15047
0.140885
0.131015
0.120914
0.110647
0.100296
0.0899487
0.0797051
0.0696674
0.0599415
0.0506276
0.0418244
0.0336067
0.0260494
0.0191625
0.0129848
0.00738225
0.00240328
1.12715
1.1257
1.1227
1.11789
1.11083
1.101
1.08762
1.0698
1.04646
1.01641
0.978508
0.931581
0.875467
0.811262
0.741862
0.672477
0.608379
0.552276
0.504335
0.463678
0.429377
0.40056
0.376273
0.355585
0.337787
0.322393
0.309016
0.297299
0.286921
0.277617
0.269173
0.261409
0.254171
0.247319
0.240732
0.234298
0.227919
0.221502
0.214963
0.208227
0.201226
0.193902
0.186208
0.17811
0.169585
0.160626
0.151246
0.141469
0.131341
0.120925
0.110297
0.0995519
0.0887935
0.0781377
0.0677069
0.0576261
0.048022
0.0390111
0.0307092
0.0231941
0.0165549
0.0107702
0.00588924
0.00166658
1.14172
1.1407
1.13853
1.13497
1.12952
1.12154
1.10999
1.09372
1.07112
1.04065
1.00063
0.949037
0.885126
0.808497
0.723689
0.64091
0.568616
0.509178
0.461109
0.422302
0.391148
0.366178
0.345841
0.328885
0.314556
0.302373
0.291914
0.282788
0.274682
0.267367
0.260668
0.25444
0.248552
0.242886
0.237341
0.231821
0.226242
0.220521
0.21458
0.208346
0.201753
0.194746
0.187278
0.179312
0.170828
0.161823
0.152308
0.142317
0.131903
0.121137
0.110109
0.0989268
0.0877116
0.0765975
0.0657254
0.0552429
0.0452986
0.0360347
0.0275982
0.0200912
0.0136611
0.00827881
0.00413162
0.00082083
1.15729
1.15682
1.15573
1.15383
1.15055
1.1453
1.13659
1.1232
1.10222
1.07179
1.02862
0.970661
0.897154
0.803054
0.696138
0.595652
0.513749
0.451338
0.404666
0.370048
0.344742
0.326
0.311272
0.299176
0.289209
0.280984
0.274023
0.2679
0.262345
0.2572
0.252357
0.247721
0.243203
0.238722
0.234201
0.229571
0.224763
0.219707
0.214335
0.208578
0.202375
0.195669
0.188414
0.180576
0.172133
0.163086
0.153449
0.143263
0.132587
0.121503
0.110112
0.0985354
0.0869075
0.0753789
0.0641051
0.0532539
0.0429882
0.0334773
0.0248835
0.0173522
0.0110531
0.00602276
0.00248786
0.000112407
1.1733
1.17349
1.1737
1.17388
1.17337
1.17186
1.16739
1.15912
1.14199
1.11403
1.06595
0.997024
0.903864
0.778876
0.642438
0.52505
0.437378
0.376164
0.335511
0.310102
0.295495
0.2865
0.279268
0.272927
0.26771
0.263493
0.259859
0.256463
0.25314
0.249824
0.246482
0.243081
0.239584
0.235955
0.232152
0.22813
0.223838
0.21922
0.214216
0.208764
0.202806
0.196286
0.189161
0.181395
0.172969
0.163883
0.154156
0.14383
0.13297
0.121664
0.110022
0.0981712
0.0862564
0.0744385
0.0628824
0.0517689
0.0412687
0.0315702
0.0228414
0.0152665
0.00902379
0.00423494
0.00115277
-0.000455197
1.18907
1.19002
1.1917
1.19427
1.19707
1.20019
1.20147
1.20106
1.19196
1.17368
1.12469
1.04391
0.90093
0.713553
0.545208
0.42607
0.34813
0.299735
0.27346
0.263116
0.26282
0.264033
0.263322
0.261432
0.259231
0.25695
0.254583
0.252106
0.249513
0.246802
0.243967
0.240994
0.237863
0.234548
0.231015
0.227227
0.223136
0.218691
0.213835
0.208507
0.20265
0.196211
0.189144
0.181415
0.173003
0.163908
0.154148
0.143767
0.13283
0.121428
0.109671
0.0976922
0.0856377
0.0736734
0.0619698
0.0507133
0.0400795
0.0302649
0.0214406
0.0138134
0.00756322
0.0028812
6.0308e-05
-0.00101361
1.20388
1.20559
1.20885
1.21392
1.22038
1.22858
1.2368
1.24605
1.24986
1.25068
1.21995
1.15807
0.947385
0.647075
0.450383
0.348472
0.293371
0.262592
0.248252
0.246837
0.253752
0.257514
0.258305
0.258117
0.257211
0.255664
0.253665
0.251379
0.24888
0.246208
0.243382
0.240406
0.237269
0.233951
0.23042
0.226635
0.222548
0.218108
0.213254
0.207931
0.202081
0.195652
0.188597
0.180881
0.172484
0.163401
0.153652
0.143277
0.132341
0.120935
0.109168
0.0971713
0.0850942
0.0731019
0.061368
0.0500779
0.0394101
0.0295583
0.0206975
0.0130414
0.00676506
0.00210105
-0.000683268
-0.00139961
1.21694
1.21937
1.22416
1.23167
1.24176
1.25496
1.27045
1.28942
1.30837
1.33086
1.34087
1.35428
1.22019
0.723142
0.466494
0.345546
0.289312
0.264422
0.253241
0.249455
0.256063
0.259268
0.259308
0.258604
0.257214
0.255382
0.253253
0.250899
0.248366
0.245682
0.242854
0.23988
0.236743
0.233419
0.229874
0.226069
0.221957
0.217486
0.212601
0.207248
0.201374
0.194927
0.187866
0.180156
0.171777
0.162725
0.153018
0.142695
0.131821
0.120483
0.108791
0.0968727
0.0848758
0.0729627
0.061306
0.0500852
0.0394769
0.029665
0.0208323
0.0131891
0.0069314
0.00228968
-0.00057362
-0.00125594
1.2275
1.23057
1.23669
1.24631
1.25957
1.27722
1.2991
1.32678
1.35877
1.39845
1.43734
1.48069
1.43424
0.982834
0.695554
0.516711
0.402904
0.333198
0.29106
0.262252
0.257659
0.260722
0.259789
0.259005
0.25753
0.255641
0.253465
0.251072
0.248505
0.245788
0.242926
0.239914
0.236736
0.233365
0.229768
0.225904
0.221728
0.217189
0.212236
0.206819
0.200887
0.194395
0.187304
0.179583
0.171213
0.162191
0.152534
0.142283
0.131501
0.120273
0.108708
0.0969299
0.0850817
0.0733195
0.0618096
0.0507239
0.0402349
0.0305196
0.0217619
0.0141662
0.00794472
0.00331611
0.00043227
-0.000564096
1.23493
1.23848
1.24556
1.25677
1.27236
1.29338
1.31986
1.35406
1.3943
1.44535
1.49615
1.55687
1.53111
1.07487
0.771489
0.574605
0.443876
0.360195
0.306806
0.266643
0.258855
0.262374
0.261134
0.260144
0.25856
0.256569
0.254294
0.25181
0.249163
0.246372
0.243444
0.24037
0.237131
0.233699
0.230038
0.226105
0.221859
0.217247
0.212219
0.206727
0.200725
0.194172
0.187032
0.179278
0.170895
0.161883
0.152262
0.14207
0.131371
0.12025
0.108812
0.0971813
0.0854984
0.073916
0.0625937
0.051694
0.0413824
0.0318259
0.0231983
0.015694
0.00952566
0.00488263
0.00182306
0.000214014
1.23877
1.24257
1.25017
1.26222
1.27906
1.30184
1.33081
1.3682
1.41272
1.4684
1.52507
1.59056
1.57462
1.13264
0.826787
0.618247
0.474365
0.379492
0.317572
0.269697
0.25969
0.263582
0.262207
0.261099
0.259435
0.257371
0.255025
0.252477
0.249773
0.246935
0.243966
0.240858
0.237588
0.234125
0.230431
0.226458
0.222174
0.217515
0.212432
0.20688
0.200814
0.194196
0.186995
0.179189
0.170766
0.16173
0.152104
0.141927
0.131263
0.120196
0.108828
0.0972817
0.0856966
0.0742246
0.0630262
0.0522635
0.0421053
0.03271
0.0242357
0.0168584
0.0107706
0.00611423
0.00285454
0.000710945
1.23877
1.24257
1.25017
1.26221
1.27906
1.30184
1.33081
1.3682
1.41271
1.4684
1.52506
1.59055
1.57462
1.13263
0.826777
0.618234
0.47435
0.379474
0.317553
0.269678
0.259668
0.263559
0.262183
0.261074
0.259413
0.257355
0.255021
0.252489
0.249807
0.246997
0.24406
0.240988
0.237754
0.234328
0.230669
0.226733
0.222453
0.217794
0.2127
0.207122
0.201016
0.194344
0.187078
0.179198
0.170698
0.161587
0.151888
0.141647
0.130927
0.119814
0.108412
0.0968461
0.0852567
0.0737983
0.0626338
0.0519313
0.0418473
0.0325336
0.0241397
0.0168318
0.0107931
0.00615979
0.0028978
0.000730931
1.23493
1.23847
1.24556
1.25677
1.27236
1.29338
1.31986
1.35406
1.39429
1.44534
1.49614
1.55685
1.53109
1.07485
0.771458
0.574566
0.44383
0.360142
0.306748
0.266586
0.258788
0.262304
0.261061
0.26007
0.258493
0.256521
0.254278
0.251844
0.249262
0.246554
0.24372
0.24075
0.237618
0.234289
0.23072
0.226862
0.222657
0.218051
0.212991
0.207425
0.201306
0.194596
0.187267
0.179301
0.170696
0.161464
0.151634
0.141256
0.130398
0.119148
0.107617
0.0959325
0.0842421
0.0727043
0.0614835
0.0507426
0.040634
0.0313046
0.0229028
0.015595
0.00956898
0.0049984
0.00194111
0.000272632
1.22749
1.23056
1.23668
1.2463
1.25957
1.27721
1.29909
1.32677
1.35875
1.39844
1.43732
1.48067
1.43422
0.982797
0.695503
0.516648
0.402828
0.33311
0.290963
0.262152
0.257544
0.260602
0.259664
0.258878
0.257416
0.255558
0.253436
0.251123
0.248664
0.246078
0.243367
0.24052
0.237509
0.234298
0.230841
0.227085
0.222972
0.218441
0.213435
0.207898
0.201781
0.195044
0.187658
0.179607
0.170891
0.161526
0.151547
0.141007
0.12998
0.118559
0.106857
0.0950076
0.0831587
0.0714734
0.0601209
0.0492687
0.0390736
0.0296865
0.021257
0.013952
0.00795066
0.00344971
0.000597287
-0.000465029
1.21693
1.21936
1.22415
1.23165
1.24175
1.25494
1.27044
1.2894
1.30835
1.33084
1.34085
1.35425
1.22016
0.723093
0.466424
0.345453
0.289198
0.264292
0.253098
0.249297
0.2559
0.259095
0.259125
0.258421
0.257048
0.25526
0.253206
0.250963
0.248576
0.246067
0.24344
0.24068
0.23776
0.23464
0.231271
0.227599
0.223559
0.21909
0.214128
0.208614
0.202496
0.195732
0.188292
0.180162
0.171342
0.161853
0.151735
0.141046
0.129865
0.118289
0.106436
0.0944411
0.0824575
0.0706513
0.0591944
0.0482581
0.0380004
0.0285763
0.0201322
0.0128387
0.00685731
0.00239044
-0.00040709
-0.00114037
1.20387
1.20557
1.20883
1.21391
1.22036
1.22856
1.23678
1.24603
1.24984
1.25065
1.21992
1.15803
0.947342
0.647016
0.450302
0.348368
0.293245
0.262447
0.248088
0.246655
0.253551
0.257292
0.258066
0.257876
0.256995
0.255505
0.253603
0.251455
0.249135
0.246677
0.244091
0.241369
0.238486
0.235403
0.232071
0.228431
0.224418
0.219967
0.215011
0.209489
0.203347
0.196544
0.189048
0.180847
0.171944
0.162361
0.152142
0.14135
0.130067
0.118397
0.106458
0.0943884
0.0823406
0.0704803
0.0589764
0.0480022
0.0377155
0.0282801
0.0198363
0.012559
0.00659098
0.00213722
-0.000551253
-0.00129142
1.18906
1.19
1.19168
1.19425
1.19705
1.20017
1.20145
1.20104
1.19193
1.17365
1.12466
1.04387
0.900883
0.713496
0.545136
0.425979
0.348019
0.299604
0.273306
0.262938
0.262613
0.263796
0.263064
0.261176
0.259004
0.256792
0.254536
0.252217
0.249826
0.247354
0.244784
0.242089
0.239231
0.236166
0.23284
0.229195
0.225169
0.220696
0.215711
0.210152
0.203967
0.197114
0.189566
0.181311
0.172357
0.162727
0.152469
0.141648
0.130348
0.118675
0.106747
0.0947044
0.0826942
0.0708799
0.0594239
0.0484976
0.0382556
0.0288646
0.020464
0.0132242
0.00729546
0.00284316
0.000138583
-0.000924234
1.17328
1.17348
1.17368
1.17386
1.17335
1.17184
1.16737
1.15909
1.14196
1.114
1.06591
0.996982
0.903817
0.778821
0.642374
0.524973
0.437287
0.376057
0.335384
0.309955
0.295325
0.28631
0.279072
0.272742
0.267563
0.263419
0.259899
0.256664
0.253543
0.250466
0.247387
0.244258
0.241026
0.237635
0.234024
0.23013
0.225884
0.221219
0.216067
0.210366
0.204061
0.197113
0.189494
0.181194
0.172218
0.162594
0.152367
0.141602
0.130383
0.118814
0.107011
0.0951087
0.0832511
0.0715939
0.0602923
0.0495105
0.0393983
0.0301157
0.021802
0.0146087
0.00868677
0.00413498
0.00118336
-0.000388241
1.15727
1.1568
1.1557
1.15381
1.15053
1.14527
1.13657
1.12317
1.10219
1.07175
1.02859
0.970618
0.897107
0.803001
0.696079
0.595585
0.513672
0.451252
0.404569
0.369941
0.344627
0.325882
0.311163
0.299093
0.289174
0.281028
0.274181
0.26821
0.262841
0.25791
0.253299
0.2489
0.244609
0.240326
0.235959
0.231423
0.226634
0.221512
0.215983
0.209979
0.203442
0.196328
0.188607
0.180267
0.17131
0.161759
0.151655
0.141058
0.130048
0.118718
0.107181
0.0955609
0.0839922
0.0726198
0.0615892
0.0510519
0.0411513
0.0320307
0.0238272
0.016657
0.010666
0.00587053
0.00247737
0.000158809
1.1417
1.14067
1.13851
1.13495
1.12949
1.12152
1.10996
1.09369
1.07109
1.04061
1.00059
0.948996
0.885081
0.808448
0.723636
0.640852
0.568554
0.509112
0.46104
0.422233
0.391082
0.366122
0.345805
0.328884
0.31461
0.302507
0.292155
0.283164
0.275217
0.268082
0.261575
0.255538
0.249829
0.244317
0.238885
0.233426
0.227844
0.222047
0.215953
0.209489
0.202596
0.195225
0.187345
0.178936
0.169999
0.16055
0.150622
0.140268
0.129556
0.118571
0.107411
0.0961889
0.0850246
0.0740476
0.0633897
0.053184
0.043562
0.0346437
0.026555
0.0193733
0.0132264
0.00806798
0.00407057
0.000838687
1.12713
1.12568
1.12268
1.11786
1.11081
1.10098
1.0876
1.06977
1.04643
1.01638
0.97847
0.93154
0.875424
0.811216
0.741814
0.672429
0.608329
0.552228
0.50429
0.46364
0.42935
0.400552
0.376293
0.355646
0.337905
0.322587
0.309307
0.297707
0.287464
0.278308
0.270017
0.262404
0.255304
0.248567
0.242059
0.23566
0.229262
0.222767
0.216086
0.209145
0.201881
0.194243
0.186196
0.177719
0.168806
0.159469
0.149733
0.139642
0.129256
0.118646
0.107898
0.0971103
0.0863869
0.0758397
0.0655835
0.0557318
0.046397
0.0376781
0.0296736
0.0224418
0.0160567
0.0104822
0.00576111
0.00164282
1.11401
1.11224
1.10863
1.10291
1.09474
1.08368
1.06915
1.05047
1.02686
0.997465
0.961581
0.918733
0.869119
0.813792
0.754619
0.694501
0.636786
0.583938
0.53692
0.495654
0.459691
0.428508
0.401521
0.378109
0.357716
0.339899
0.324294
0.310566
0.298401
0.287522
0.277691
0.268705
0.260382
0.252562
0.2451
0.237864
0.230738
0.223618
0.216414
0.209046
0.201448
0.193569
0.18537
0.176828
0.167933
0.158692
0.149125
0.139269
0.129173
0.118899
0.108522
0.0981235
0.0877954
0.0776329
0.0677327
0.0581915
0.0490984
0.0405383
0.0325727
0.025261
0.0186034
0.0126247
0.00719386
0.00234289
1.10269
1.10069
1.09665
1.0903
1.08137
1.06952
1.0543
1.03519
1.01163
0.983072
0.949116
0.909616
0.864837
0.81556
0.763097
0.70934
0.656565
0.606765
0.561101
0.519929
0.483157
0.450529
0.421714
0.396324
0.373954
0.354227
0.336808
0.321384
0.307661
0.295369
0.284266
0.274139
0.264799
0.256076
0.247814
0.239877
0.232142
0.224499
0.216855
0.209127
0.201248
0.193163
0.184832
0.176229
0.167341
0.158172
0.148737
0.139066
0.129202
0.119197
0.109115
0.0990294
0.0890169
0.0791602
0.0695399
0.0602392
0.0513256
0.0428743
0.0349132
0.0275088
0.0205978
0.0142692
0.00825787
0.00284666
1.0934
1.09125
1.08692
1.08015
1.07072
1.05837
1.04276
1.02349
1.00017
0.972442
0.940086
0.903078
0.861674
0.816491
0.768543
0.719227
0.670185
0.62297
0.57869
0.537911
0.500801
0.467319
0.437312
0.410548
0.386742
0.365591
0.346796
0.330068
0.315132
0.30173
0.289622
0.278591
0.268442
0.258996
0.250097
0.241598
0.233375
0.225313
0.217316
0.209298
0.201191
0.192939
0.184498
0.175841
0.166953
0.157834
0.148496
0.138962
0.12927
0.119467
0.109608
0.0997562
0.0899793
0.0803497
0.0709349
0.0618076
0.0530184
0.044635
0.0366609
0.0291675
0.0220518
0.0154464
0.00901268
0.00318384
1.08631
1.08407
1.07954
1.07251
1.06277
1.05013
1.03431
1.01503
0.991984
0.964938
0.933762
0.898488
0.859371
0.816944
0.772038
0.725755
0.679358
0.634088
0.590952
0.55061
0.513398
0.479428
0.448668
0.420991
0.396195
0.374036
0.354253
0.33658
0.32076
0.306541
0.293689
0.281985
0.271232
0.261247
0.251869
0.24295
0.23436
0.225984
0.217721
0.209486
0.201207
0.192827
0.184302
0.175602
0.16671
0.157623
0.148351
0.138914
0.129344
0.119683
0.109981
0.100294
0.0906826
0.0812116
0.0719388
0.0629293
0.0542217
0.0458779
0.0378862
0.0303199
0.0230551
0.0162482
0.00952766
0.00339878
1.08153
1.07923
1.0746
1.06741
1.0575
1.04469
1.02879
1.00954
0.986709
0.960132
0.929725
0.895554
0.857876
0.817171
0.774158
0.729761
0.685032
0.641031
0.598688
0.558695
0.521483
0.487256
0.456061
0.427831
0.402417
0.379618
0.3592
0.340916
0.324518
0.309764
0.296421
0.284272
0.273118
0.262775
0.253079
0.24388
0.235045
0.226459
0.218019
0.209639
0.201245
0.192779
0.184196
0.175466
0.16657
0.157502
0.148271
0.138895
0.129402
0.119832
0.110229
0.100648
0.0911413
0.0817702
0.0725862
0.0636494
0.0549908
0.0466684
0.0386621
0.0310451
0.0236842
0.0167464
0.00984804
0.00352475
1.07913
1.07681
1.07212
1.06486
1.05487
1.042
1.02606
1.00683
0.984125
0.957784
0.927756
0.894125
0.857145
0.817271
0.775164
0.731667
0.687738
0.644358
0.602418
0.562618
0.525426
0.491093
0.4597
0.43121
0.405501
0.382392
0.361664
0.343081
0.326399
0.31138
0.297793
0.285423
0.274069
0.263547
0.253692
0.244353
0.235397
0.226706
0.218177
0.209724
0.201272
0.192763
0.184151
0.175405
0.166506
0.157448
0.148237
0.13889
0.129435
0.119908
0.110354
0.100823
0.0913674
0.0820446
0.0729033
0.064001
0.0553654
0.0470523
0.039038
0.031395
0.0239877
0.0169846
0.0100026
0.00358187
)
;

boundaryField
{
    inlet
    {
        type            zeroGradient;
    }
    outlet
    {
        type            fixedValue;
        value           uniform 0;
    }
    top
    {
        type            symmetryPlane;
    }
    bottom
    {
        type            symmetryPlane;
    }
    frontAndBack
    {
        type            empty;
    }
}


// ************************************************************************* //
