/*--------------------------------*- C++ -*----------------------------------*\
  =========                 |
  \\      /  F ield         | OpenFOAM: The Open Source CFD Toolbox
   \\    /   O peration     | Website:  https://openfoam.org
    \\  /    A nd           | Version:  10
     \\/     M anipulation  |
\*---------------------------------------------------------------------------*/
FoamFile
{
    format      ascii;
    class       volVectorField;
    location    "5800";
    object      Ua;
}
// * * * * * * * * * * * * * * * * * * * * * * * * * * * * * * * * * * * * * //

dimensions      [0 1 -1 0 0 0 0];

internalField   nonuniform List<vector> 
6400
(
(-1.64039e-07 3.3344e-08 0)
(-4.92186e-07 3.33583e-08 0)
(-8.20539e-07 3.33857e-08 0)
(-1.14921e-06 3.34235e-08 0)
(-1.47829e-06 3.34678e-08 0)
(-1.80781e-06 3.3513e-08 0)
(-2.13774e-06 3.35517e-08 0)
(-2.46797e-06 3.35741e-08 0)
(-2.79828e-06 3.35682e-08 0)
(-3.12832e-06 3.35186e-08 0)
(-3.45757e-06 3.34064e-08 0)
(-3.78528e-06 3.32081e-08 0)
(-4.11048e-06 3.28948e-08 0)
(-4.43186e-06 3.24315e-08 0)
(-4.74773e-06 3.17752e-08 0)
(-5.05594e-06 3.08744e-08 0)
(-5.35378e-06 2.96671e-08 0)
(-5.63787e-06 2.80796e-08 0)
(-5.90404e-06 2.60255e-08 0)
(-6.14722e-06 2.34048e-08 0)
(-6.36127e-06 2.01044e-08 0)
(-6.53888e-06 1.59992e-08 0)
(-6.6715e-06 1.0957e-08 0)
(-6.74924e-06 4.84546e-09 0)
(-6.761e-06 -2.45535e-09 0)
(-6.69463e-06 -1.10343e-08 0)
(-6.53741e-06 -2.0924e-08 0)
(-6.27671e-06 -3.20681e-08 0)
(-5.90109e-06 -4.42843e-08 0)
(-5.40169e-06 -5.72287e-08 0)
(-4.77395e-06 -7.03704e-08 0)
(-4.01947e-06 -8.29924e-08 0)
(-3.41197e-06 -9.11107e-08 0)
(-3.0035e-06 -9.57033e-08 0)
(-2.57601e-06 -9.98143e-08 0)
(-2.13175e-06 -1.0337e-07 0)
(-1.67331e-06 -1.06303e-07 0)
(-1.20352e-06 -1.08556e-07 0)
(-7.25468e-07 -1.10084e-07 0)
(-2.42386e-07 -1.10856e-07 0)
(2.42386e-07 -1.10856e-07 0)
(7.25468e-07 -1.10084e-07 0)
(1.20352e-06 -1.08556e-07 0)
(1.67331e-06 -1.06303e-07 0)
(2.13175e-06 -1.0337e-07 0)
(2.57601e-06 -9.98143e-08 0)
(3.0035e-06 -9.57033e-08 0)
(3.41197e-06 -9.11107e-08 0)
(4.01947e-06 -8.29924e-08 0)
(4.77395e-06 -7.03704e-08 0)
(5.40169e-06 -5.72287e-08 0)
(5.90109e-06 -4.42843e-08 0)
(6.27671e-06 -3.20681e-08 0)
(6.53741e-06 -2.0924e-08 0)
(6.69463e-06 -1.10343e-08 0)
(6.761e-06 -2.45535e-09 0)
(6.74924e-06 4.84546e-09 0)
(6.6715e-06 1.0957e-08 0)
(6.53888e-06 1.59992e-08 0)
(6.36127e-06 2.01044e-08 0)
(6.14722e-06 2.34048e-08 0)
(5.90404e-06 2.60255e-08 0)
(5.63787e-06 2.80796e-08 0)
(5.35378e-06 2.96671e-08 0)
(5.05594e-06 3.08744e-08 0)
(4.74773e-06 3.17752e-08 0)
(4.43186e-06 3.24315e-08 0)
(4.11048e-06 3.28948e-08 0)
(3.78528e-06 3.32081e-08 0)
(3.45757e-06 3.34064e-08 0)
(3.12832e-06 3.35186e-08 0)
(2.79828e-06 3.35682e-08 0)
(2.46797e-06 3.35741e-08 0)
(2.13774e-06 3.35517e-08 0)
(1.80781e-06 3.3513e-08 0)
(1.47829e-06 3.34678e-08 0)
(1.14921e-06 3.34235e-08 0)
(8.20539e-07 3.33857e-08 0)
(4.92186e-07 3.33583e-08 0)
(1.64039e-07 3.3344e-08 0)
(-1.64036e-07 1.0326e-07 0)
(-4.92177e-07 1.03304e-07 0)
(-8.20525e-07 1.03389e-07 0)
(-1.14919e-06 1.03506e-07 0)
(-1.47827e-06 1.03644e-07 0)
(-1.80779e-06 1.03784e-07 0)
(-2.13773e-06 1.03904e-07 0)
(-2.46797e-06 1.03975e-07 0)
(-2.7983e-06 1.03957e-07 0)
(-3.12836e-06 1.03804e-07 0)
(-3.45763e-06 1.03458e-07 0)
(-3.78539e-06 1.02845e-07 0)
(-4.11065e-06 1.01877e-07 0)
(-4.4321e-06 1.00444e-07 0)
(-4.74806e-06 9.8414e-08 0)
(-5.05639e-06 9.56272e-08 0)
(-5.35438e-06 9.18918e-08 0)
(-5.63865e-06 8.69797e-08 0)
(-5.90504e-06 8.06233e-08 0)
(-6.14848e-06 7.2513e-08 0)
(-6.36285e-06 6.2298e-08 0)
(-6.54083e-06 4.95914e-08 0)
(-6.67387e-06 3.39828e-08 0)
(-6.7521e-06 1.5062e-08 0)
(-6.76438e-06 -7.54306e-09 0)
(-6.69857e-06 -3.41091e-08 0)
(-6.54189e-06 -6.47384e-08 0)
(-6.28169e-06 -9.92583e-08 0)
(-5.90645e-06 -1.37106e-07 0)
(-5.40725e-06 -1.77218e-07 0)
(-4.77944e-06 -2.17949e-07 0)
(-4.02456e-06 -2.57079e-07 0)
(-3.41657e-06 -2.82251e-07 0)
(-3.00768e-06 -2.96492e-07 0)
(-2.57968e-06 -3.09241e-07 0)
(-2.13486e-06 -3.20268e-07 0)
(-1.67579e-06 -3.29364e-07 0)
(-1.20533e-06 -3.36353e-07 0)
(-7.26571e-07 -3.41093e-07 0)
(-2.42756e-07 -3.43488e-07 0)
(2.42756e-07 -3.43488e-07 0)
(7.26571e-07 -3.41093e-07 0)
(1.20533e-06 -3.36353e-07 0)
(1.67579e-06 -3.29364e-07 0)
(2.13486e-06 -3.20268e-07 0)
(2.57968e-06 -3.09241e-07 0)
(3.00768e-06 -2.96492e-07 0)
(3.41657e-06 -2.82251e-07 0)
(4.02456e-06 -2.57079e-07 0)
(4.77944e-06 -2.17949e-07 0)
(5.40725e-06 -1.77218e-07 0)
(5.90645e-06 -1.37106e-07 0)
(6.28169e-06 -9.92583e-08 0)
(6.54189e-06 -6.47384e-08 0)
(6.69857e-06 -3.41091e-08 0)
(6.76438e-06 -7.54306e-09 0)
(6.7521e-06 1.5062e-08 0)
(6.67387e-06 3.39828e-08 0)
(6.54083e-06 4.95914e-08 0)
(6.36285e-06 6.2298e-08 0)
(6.14848e-06 7.2513e-08 0)
(5.90504e-06 8.06233e-08 0)
(5.63865e-06 8.69797e-08 0)
(5.35438e-06 9.18918e-08 0)
(5.05639e-06 9.56272e-08 0)
(4.74806e-06 9.8414e-08 0)
(4.4321e-06 1.00444e-07 0)
(4.11065e-06 1.01877e-07 0)
(3.78539e-06 1.02845e-07 0)
(3.45763e-06 1.03458e-07 0)
(3.12836e-06 1.03804e-07 0)
(2.7983e-06 1.03957e-07 0)
(2.46797e-06 1.03975e-07 0)
(2.13773e-06 1.03904e-07 0)
(1.80779e-06 1.03784e-07 0)
(1.47827e-06 1.03644e-07 0)
(1.14919e-06 1.03506e-07 0)
(8.20525e-07 1.03389e-07 0)
(4.92177e-07 1.03304e-07 0)
(1.64036e-07 1.0326e-07 0)
(-1.64029e-07 1.79943e-07 0)
(-4.92157e-07 1.8002e-07 0)
(-8.20493e-07 1.80169e-07 0)
(-1.14915e-06 1.80374e-07 0)
(-1.47823e-06 1.80615e-07 0)
(-1.80775e-06 1.80861e-07 0)
(-2.1377e-06 1.81072e-07 0)
(-2.46796e-06 1.81196e-07 0)
(-2.79832e-06 1.81168e-07 0)
(-3.12844e-06 1.80906e-07 0)
(-3.45778e-06 1.80306e-07 0)
(-3.78564e-06 1.79244e-07 0)
(-4.11103e-06 1.77563e-07 0)
(-4.43265e-06 1.75074e-07 0)
(-4.74882e-06 1.71546e-07 0)
(-5.05742e-06 1.66701e-07 0)
(-5.35574e-06 1.60205e-07 0)
(-5.64043e-06 1.51661e-07 0)
(-5.90733e-06 1.40602e-07 0)
(-6.15138e-06 1.2649e-07 0)
(-6.36647e-06 1.08712e-07 0)
(-6.54531e-06 8.65929e-08 0)
(-6.67934e-06 5.94171e-08 0)
(-6.75867e-06 2.64669e-08 0)
(-6.77216e-06 -1.29093e-08 0)
(-6.70762e-06 -5.91985e-08 0)
(-6.55221e-06 -1.12585e-07 0)
(-6.29315e-06 -1.72774e-07 0)
(-5.91879e-06 -2.38793e-07 0)
(-5.42005e-06 -3.08792e-07 0)
(-4.79209e-06 -3.79904e-07 0)
(-4.03627e-06 -4.48252e-07 0)
(-3.42716e-06 -4.9224e-07 0)
(-3.0173e-06 -5.17131e-07 0)
(-2.58816e-06 -5.39417e-07 0)
(-2.14203e-06 -5.58695e-07 0)
(-1.68152e-06 -5.746e-07 0)
(-1.20951e-06 -5.86821e-07 0)
(-7.29114e-07 -5.95111e-07 0)
(-2.43609e-07 -5.993e-07 0)
(2.43609e-07 -5.993e-07 0)
(7.29114e-07 -5.95111e-07 0)
(1.20951e-06 -5.86821e-07 0)
(1.68152e-06 -5.746e-07 0)
(2.14203e-06 -5.58695e-07 0)
(2.58816e-06 -5.39417e-07 0)
(3.0173e-06 -5.17131e-07 0)
(3.42716e-06 -4.9224e-07 0)
(4.03627e-06 -4.48252e-07 0)
(4.79209e-06 -3.79904e-07 0)
(5.42005e-06 -3.08792e-07 0)
(5.91879e-06 -2.38793e-07 0)
(6.29315e-06 -1.72774e-07 0)
(6.55221e-06 -1.12585e-07 0)
(6.70762e-06 -5.91985e-08 0)
(6.77216e-06 -1.29093e-08 0)
(6.75867e-06 2.64669e-08 0)
(6.67934e-06 5.94171e-08 0)
(6.54531e-06 8.65929e-08 0)
(6.36647e-06 1.08712e-07 0)
(6.15138e-06 1.2649e-07 0)
(5.90733e-06 1.40602e-07 0)
(5.64043e-06 1.51661e-07 0)
(5.35574e-06 1.60205e-07 0)
(5.05742e-06 1.66701e-07 0)
(4.74882e-06 1.71546e-07 0)
(4.43265e-06 1.75074e-07 0)
(4.11103e-06 1.77563e-07 0)
(3.78564e-06 1.79244e-07 0)
(3.45778e-06 1.80306e-07 0)
(3.12844e-06 1.80906e-07 0)
(2.79832e-06 1.81168e-07 0)
(2.46796e-06 1.81196e-07 0)
(2.1377e-06 1.81072e-07 0)
(1.80775e-06 1.80861e-07 0)
(1.47823e-06 1.80615e-07 0)
(1.14915e-06 1.80374e-07 0)
(8.20493e-07 1.80169e-07 0)
(4.92157e-07 1.8002e-07 0)
(1.64029e-07 1.79943e-07 0)
(-1.64016e-07 2.64046e-07 0)
(-4.92121e-07 2.6416e-07 0)
(-8.20438e-07 2.64379e-07 0)
(-1.14908e-06 2.64682e-07 0)
(-1.47815e-06 2.65038e-07 0)
(-1.80768e-06 2.65402e-07 0)
(-2.13764e-06 2.65717e-07 0)
(-2.46794e-06 2.65905e-07 0)
(-2.79837e-06 2.65871e-07 0)
(-3.12857e-06 2.65494e-07 0)
(-3.45804e-06 2.64626e-07 0)
(-3.78607e-06 2.6308e-07 0)
(-4.11168e-06 2.60629e-07 0)
(-4.43359e-06 2.56996e-07 0)
(-4.75014e-06 2.51843e-07 0)
(-5.0592e-06 2.44763e-07 0)
(-5.3581e-06 2.35264e-07 0)
(-5.6435e-06 2.22766e-07 0)
(-5.91127e-06 2.06585e-07 0)
(-6.15638e-06 1.85928e-07 0)
(-6.37272e-06 1.59898e-07 0)
(-6.55304e-06 1.27502e-07 0)
(-6.68876e-06 8.76851e-08 0)
(-6.77e-06 3.93891e-08 0)
(-6.78559e-06 -1.83509e-08 0)
(-6.72325e-06 -8.62611e-08 0)
(-6.57001e-06 -1.64627e-07 0)
(-6.31294e-06 -2.53034e-07 0)
(-5.94013e-06 -3.5007e-07 0)
(-5.44219e-06 -4.53033e-07 0)
(-4.81397e-06 -5.57718e-07 0)
(-4.05656e-06 -6.58413e-07 0)
(-3.44552e-06 -7.2327e-07 0)
(-3.03396e-06 -7.59981e-07 0)
(-2.60284e-06 -7.92858e-07 0)
(-2.15446e-06 -8.21305e-07 0)
(-1.69146e-06 -8.4478e-07 0)
(-1.21676e-06 -8.6282e-07 0)
(-7.33524e-07 -8.75059e-07 0)
(-2.45089e-07 -8.81244e-07 0)
(2.45089e-07 -8.81244e-07 0)
(7.33524e-07 -8.75059e-07 0)
(1.21676e-06 -8.6282e-07 0)
(1.69146e-06 -8.4478e-07 0)
(2.15446e-06 -8.21305e-07 0)
(2.60284e-06 -7.92858e-07 0)
(3.03396e-06 -7.59981e-07 0)
(3.44552e-06 -7.2327e-07 0)
(4.05656e-06 -6.58413e-07 0)
(4.81397e-06 -5.57718e-07 0)
(5.44219e-06 -4.53033e-07 0)
(5.94013e-06 -3.5007e-07 0)
(6.31294e-06 -2.53034e-07 0)
(6.57001e-06 -1.64627e-07 0)
(6.72325e-06 -8.62611e-08 0)
(6.78559e-06 -1.83509e-08 0)
(6.77e-06 3.93891e-08 0)
(6.68876e-06 8.76851e-08 0)
(6.55304e-06 1.27502e-07 0)
(6.37272e-06 1.59898e-07 0)
(6.15638e-06 1.85928e-07 0)
(5.91127e-06 2.06585e-07 0)
(5.6435e-06 2.22766e-07 0)
(5.3581e-06 2.35264e-07 0)
(5.0592e-06 2.44763e-07 0)
(4.75014e-06 2.51843e-07 0)
(4.43359e-06 2.56996e-07 0)
(4.11168e-06 2.60629e-07 0)
(3.78607e-06 2.6308e-07 0)
(3.45804e-06 2.64626e-07 0)
(3.12857e-06 2.65494e-07 0)
(2.79837e-06 2.65871e-07 0)
(2.46794e-06 2.65905e-07 0)
(2.13764e-06 2.65717e-07 0)
(1.80768e-06 2.65402e-07 0)
(1.47815e-06 2.65038e-07 0)
(1.14908e-06 2.64682e-07 0)
(8.20438e-07 2.64379e-07 0)
(4.92121e-07 2.6416e-07 0)
(1.64016e-07 2.64046e-07 0)
(-1.63998e-07 3.56283e-07 0)
(-4.92067e-07 3.56438e-07 0)
(-8.20352e-07 3.56736e-07 0)
(-1.14898e-06 3.57149e-07 0)
(-1.47803e-06 3.57635e-07 0)
(-1.80757e-06 3.58133e-07 0)
(-2.13756e-06 3.58567e-07 0)
(-2.46792e-06 3.58832e-07 0)
(-2.79843e-06 3.58801e-07 0)
(-3.12877e-06 3.58311e-07 0)
(-3.45844e-06 3.57161e-07 0)
(-3.78672e-06 3.55102e-07 0)
(-4.11267e-06 3.51829e-07 0)
(-4.43503e-06 3.46968e-07 0)
(-4.75214e-06 3.40064e-07 0)
(-5.06191e-06 3.30568e-07 0)
(-5.3617e-06 3.17822e-07 0)
(-5.6482e-06 3.0104e-07 0)
(-5.91731e-06 2.79301e-07 0)
(-6.16403e-06 2.51535e-07 0)
(-6.3823e-06 2.16531e-07 0)
(-6.56487e-06 1.72943e-07 0)
(-6.7032e-06 1.19342e-07 0)
(-6.78739e-06 5.42887e-08 0)
(-6.8062e-06 -2.35371e-08 0)
(-6.74724e-06 -1.1514e-07 0)
(-6.59738e-06 -2.20935e-07 0)
(-6.34338e-06 -3.40401e-07 0)
(-5.97297e-06 -4.71666e-07 0)
(-5.47629e-06 -6.11108e-07 0)
(-4.84772e-06 -7.53056e-07 0)
(-4.08788e-06 -8.89761e-07 0)
(-3.47386e-06 -9.77916e-07 0)
(-3.05971e-06 -1.02784e-06 0)
(-2.62553e-06 -1.07256e-06 0)
(-2.17368e-06 -1.11128e-06 0)
(-1.70683e-06 -1.14324e-06 0)
(-1.22797e-06 -1.1678e-06 0)
(-7.40344e-07 -1.18447e-06 0)
(-2.47379e-07 -1.1929e-06 0)
(2.47379e-07 -1.1929e-06 0)
(7.40344e-07 -1.18447e-06 0)
(1.22797e-06 -1.1678e-06 0)
(1.70683e-06 -1.14324e-06 0)
(2.17368e-06 -1.11128e-06 0)
(2.62553e-06 -1.07256e-06 0)
(3.05971e-06 -1.02784e-06 0)
(3.47386e-06 -9.77916e-07 0)
(4.08788e-06 -8.89761e-07 0)
(4.84772e-06 -7.53056e-07 0)
(5.47629e-06 -6.11108e-07 0)
(5.97297e-06 -4.71666e-07 0)
(6.34338e-06 -3.40401e-07 0)
(6.59738e-06 -2.20935e-07 0)
(6.74724e-06 -1.1514e-07 0)
(6.8062e-06 -2.35371e-08 0)
(6.78739e-06 5.42887e-08 0)
(6.7032e-06 1.19342e-07 0)
(6.56487e-06 1.72943e-07 0)
(6.3823e-06 2.16531e-07 0)
(6.16403e-06 2.51535e-07 0)
(5.91731e-06 2.79301e-07 0)
(5.6482e-06 3.0104e-07 0)
(5.3617e-06 3.17822e-07 0)
(5.06191e-06 3.30568e-07 0)
(4.75214e-06 3.40064e-07 0)
(4.43503e-06 3.46968e-07 0)
(4.11267e-06 3.51829e-07 0)
(3.78672e-06 3.55102e-07 0)
(3.45844e-06 3.57161e-07 0)
(3.12877e-06 3.58311e-07 0)
(2.79843e-06 3.58801e-07 0)
(2.46792e-06 3.58832e-07 0)
(2.13756e-06 3.58567e-07 0)
(1.80757e-06 3.58133e-07 0)
(1.47803e-06 3.57635e-07 0)
(1.14898e-06 3.57149e-07 0)
(8.20352e-07 3.56736e-07 0)
(4.92067e-07 3.56438e-07 0)
(1.63998e-07 3.56283e-07 0)
(-1.6397e-07 4.57437e-07 0)
(-4.91987e-07 4.57639e-07 0)
(-8.20227e-07 4.58026e-07 0)
(-1.14882e-06 4.58563e-07 0)
(-1.47786e-06 4.59196e-07 0)
(-1.8074e-06 4.59849e-07 0)
(-2.13744e-06 4.60422e-07 0)
(-2.46787e-06 4.60785e-07 0)
(-2.79852e-06 4.60772e-07 0)
(-3.12906e-06 4.60176e-07 0)
(-3.459e-06 4.5874e-07 0)
(-3.78765e-06 4.56147e-07 0)
(-4.11409e-06 4.52006e-07 0)
(-4.43708e-06 4.45839e-07 0)
(-4.755e-06 4.37066e-07 0)
(-5.0658e-06 4.24982e-07 0)
(-5.36686e-06 4.08745e-07 0)
(-5.65493e-06 3.87349e-07 0)
(-5.92596e-06 3.59613e-07 0)
(-6.175e-06 3.24163e-07 0)
(-6.39604e-06 2.79438e-07 0)
(-6.58187e-06 2.23707e-07 0)
(-6.72396e-06 1.55121e-07 0)
(-6.81239e-06 7.18096e-08 0)
(-6.83585e-06 -2.79542e-08 0)
(-6.78181e-06 -1.45505e-07 0)
(-6.63684e-06 -2.81434e-07 0)
(-6.38732e-06 -4.35137e-07 0)
(-6.02044e-06 -6.04279e-07 0)
(-5.52567e-06 -7.84256e-07 0)
(-4.89665e-06 -9.67789e-07 0)
(-4.13334e-06 -1.14486e-06 0)
(-3.51506e-06 -1.25924e-06 0)
(-3.09715e-06 -1.32405e-06 0)
(-2.65855e-06 -1.38216e-06 0)
(-2.20165e-06 -1.43248e-06 0)
(-1.7292e-06 -1.47404e-06 0)
(-1.24429e-06 -1.506e-06 0)
(-7.50277e-07 -1.5277e-06 0)
(-2.50714e-07 -1.53866e-06 0)
(2.50714e-07 -1.53866e-06 0)
(7.50277e-07 -1.5277e-06 0)
(1.24429e-06 -1.506e-06 0)
(1.7292e-06 -1.47404e-06 0)
(2.20165e-06 -1.43248e-06 0)
(2.65855e-06 -1.38216e-06 0)
(3.09715e-06 -1.32405e-06 0)
(3.51506e-06 -1.25924e-06 0)
(4.13334e-06 -1.14486e-06 0)
(4.89665e-06 -9.67789e-07 0)
(5.52567e-06 -7.84256e-07 0)
(6.02044e-06 -6.04279e-07 0)
(6.38732e-06 -4.35137e-07 0)
(6.63684e-06 -2.81434e-07 0)
(6.78181e-06 -1.45505e-07 0)
(6.83585e-06 -2.79542e-08 0)
(6.81239e-06 7.18096e-08 0)
(6.72396e-06 1.55121e-07 0)
(6.58187e-06 2.23707e-07 0)
(6.39604e-06 2.79438e-07 0)
(6.175e-06 3.24163e-07 0)
(5.92596e-06 3.59613e-07 0)
(5.65493e-06 3.87349e-07 0)
(5.36686e-06 4.08745e-07 0)
(5.0658e-06 4.24982e-07 0)
(4.755e-06 4.37066e-07 0)
(4.43708e-06 4.45839e-07 0)
(4.11409e-06 4.52006e-07 0)
(3.78765e-06 4.56147e-07 0)
(3.459e-06 4.5874e-07 0)
(3.12906e-06 4.60176e-07 0)
(2.79852e-06 4.60772e-07 0)
(2.46787e-06 4.60785e-07 0)
(2.13744e-06 4.60422e-07 0)
(1.8074e-06 4.59849e-07 0)
(1.47786e-06 4.59196e-07 0)
(1.14882e-06 4.58563e-07 0)
(8.20227e-07 4.58026e-07 0)
(4.91987e-07 4.57639e-07 0)
(1.6397e-07 4.57437e-07 0)
(-1.63932e-07 5.68362e-07 0)
(-4.91875e-07 5.68617e-07 0)
(-8.20051e-07 5.69106e-07 0)
(-1.1486e-06 5.69785e-07 0)
(-1.47761e-06 5.70588e-07 0)
(-1.80717e-06 5.71423e-07 0)
(-2.13726e-06 5.72164e-07 0)
(-2.4678e-06 5.7265e-07 0)
(-2.79863e-06 5.7268e-07 0)
(-3.12943e-06 5.71996e-07 0)
(-3.45975e-06 5.70283e-07 0)
(-3.78891e-06 5.67147e-07 0)
(-4.11602e-06 5.62107e-07 0)
(-4.43988e-06 5.54573e-07 0)
(-4.75892e-06 5.43826e-07 0)
(-5.07112e-06 5.28998e-07 0)
(-5.37393e-06 5.09043e-07 0)
(-5.66417e-06 4.82718e-07 0)
(-5.93784e-06 4.48556e-07 0)
(-6.19009e-06 4.0485e-07 0)
(-6.41495e-06 3.49656e-07 0)
(-6.60528e-06 2.80812e-07 0)
(-6.75258e-06 1.95996e-07 0)
(-6.8469e-06 9.285e-08 0)
(-6.87684e-06 -3.08278e-08 0)
(-6.82965e-06 -1.76773e-07 0)
(-6.69154e-06 -3.4582e-07 0)
(-6.44834e-06 -5.37334e-07 0)
(-6.08647e-06 -7.48531e-07 0)
(-5.59448e-06 -9.73774e-07 0)
(-4.96497e-06 -1.20403e-06 0)
(-4.19695e-06 -1.42673e-06 0)
(-3.57279e-06 -1.57093e-06 0)
(-3.14965e-06 -1.65272e-06 0)
(-2.70487e-06 -1.7261e-06 0)
(-2.24091e-06 -1.78971e-06 0)
(-1.76062e-06 -1.84227e-06 0)
(-1.26723e-06 -1.88271e-06 0)
(-7.64239e-07 -1.91017e-06 0)
(-2.55402e-07 -1.92406e-06 0)
(2.55402e-07 -1.92406e-06 0)
(7.64239e-07 -1.91017e-06 0)
(1.26723e-06 -1.88271e-06 0)
(1.76062e-06 -1.84227e-06 0)
(2.24091e-06 -1.78971e-06 0)
(2.70487e-06 -1.7261e-06 0)
(3.14965e-06 -1.65272e-06 0)
(3.57279e-06 -1.57093e-06 0)
(4.19695e-06 -1.42673e-06 0)
(4.96497e-06 -1.20403e-06 0)
(5.59448e-06 -9.73774e-07 0)
(6.08647e-06 -7.48531e-07 0)
(6.44834e-06 -5.37334e-07 0)
(6.69154e-06 -3.4582e-07 0)
(6.82965e-06 -1.76773e-07 0)
(6.87684e-06 -3.08278e-08 0)
(6.8469e-06 9.285e-08 0)
(6.75258e-06 1.95996e-07 0)
(6.60528e-06 2.80812e-07 0)
(6.41495e-06 3.49656e-07 0)
(6.19009e-06 4.0485e-07 0)
(5.93784e-06 4.48556e-07 0)
(5.66417e-06 4.82718e-07 0)
(5.37393e-06 5.09043e-07 0)
(5.07112e-06 5.28998e-07 0)
(4.75892e-06 5.43826e-07 0)
(4.43988e-06 5.54573e-07 0)
(4.11602e-06 5.62107e-07 0)
(3.78891e-06 5.67147e-07 0)
(3.45975e-06 5.70283e-07 0)
(3.12943e-06 5.71996e-07 0)
(2.79863e-06 5.7268e-07 0)
(2.4678e-06 5.7265e-07 0)
(2.13726e-06 5.72164e-07 0)
(1.80717e-06 5.71423e-07 0)
(1.47761e-06 5.70588e-07 0)
(1.1486e-06 5.69785e-07 0)
(8.20051e-07 5.69106e-07 0)
(4.91875e-07 5.68617e-07 0)
(1.63932e-07 5.68362e-07 0)
(-1.63879e-07 6.89994e-07 0)
(-4.91722e-07 6.9031e-07 0)
(-8.1981e-07 6.90915e-07 0)
(-1.14829e-06 6.9176e-07 0)
(-1.47727e-06 6.92762e-07 0)
(-1.80684e-06 6.93812e-07 0)
(-2.137e-06 6.94758e-07 0)
(-2.46769e-06 6.95408e-07 0)
(-2.79875e-06 6.95518e-07 0)
(-3.12991e-06 6.94781e-07 0)
(-3.46072e-06 6.92815e-07 0)
(-3.79056e-06 6.89148e-07 0)
(-4.11857e-06 6.83201e-07 0)
(-4.44359e-06 6.74262e-07 0)
(-4.76411e-06 6.61467e-07 0)
(-5.07819e-06 6.43767e-07 0)
(-5.38335e-06 6.19901e-07 0)
(-5.67647e-06 5.88365e-07 0)
(-5.9537e-06 5.4738e-07 0)
(-6.21023e-06 4.94878e-07 0)
(-6.44023e-06 4.2849e-07 0)
(-6.63661e-06 3.45571e-07 0)
(-6.79093e-06 2.43269e-07 0)
(-6.89321e-06 1.18661e-07 0)
(-6.93193e-06 -3.10143e-08 0)
(-6.89405e-06 -2.07991e-07 0)
(-6.76533e-06 -4.13447e-07 0)
(-6.53084e-06 -6.46804e-07 0)
(-6.17599e-06 -9.04876e-07 0)
(-5.68802e-06 -1.18097e-06 0)
(-5.0581e-06 -1.46415e-06 0)
(-4.28389e-06 -1.73896e-06 0)
(-3.65184e-06 -1.91748e-06 0)
(-3.22162e-06 -2.01887e-06 0)
(-2.76843e-06 -2.10995e-06 0)
(-2.29483e-06 -2.18897e-06 0)
(-1.8038e-06 -2.25433e-06 0)
(-1.29876e-06 -2.30465e-06 0)
(-7.83441e-07 -2.33884e-06 0)
(-2.6185e-07 -2.35613e-06 0)
(2.6185e-07 -2.35613e-06 0)
(7.83441e-07 -2.33884e-06 0)
(1.29876e-06 -2.30465e-06 0)
(1.8038e-06 -2.25433e-06 0)
(2.29483e-06 -2.18897e-06 0)
(2.76843e-06 -2.10995e-06 0)
(3.22162e-06 -2.01887e-06 0)
(3.65184e-06 -1.91748e-06 0)
(4.28389e-06 -1.73896e-06 0)
(5.0581e-06 -1.46415e-06 0)
(5.68802e-06 -1.18097e-06 0)
(6.17599e-06 -9.04876e-07 0)
(6.53084e-06 -6.46804e-07 0)
(6.76533e-06 -4.13447e-07 0)
(6.89405e-06 -2.07991e-07 0)
(6.93193e-06 -3.10143e-08 0)
(6.89321e-06 1.18661e-07 0)
(6.79093e-06 2.43269e-07 0)
(6.63661e-06 3.45571e-07 0)
(6.44023e-06 4.2849e-07 0)
(6.21023e-06 4.94878e-07 0)
(5.9537e-06 5.4738e-07 0)
(5.67647e-06 5.88365e-07 0)
(5.38335e-06 6.19901e-07 0)
(5.07819e-06 6.43767e-07 0)
(4.76411e-06 6.61467e-07 0)
(4.44359e-06 6.74262e-07 0)
(4.11857e-06 6.83201e-07 0)
(3.79056e-06 6.89148e-07 0)
(3.46072e-06 6.92815e-07 0)
(3.12991e-06 6.94781e-07 0)
(2.79875e-06 6.95518e-07 0)
(2.46769e-06 6.95408e-07 0)
(2.137e-06 6.94758e-07 0)
(1.80684e-06 6.93812e-07 0)
(1.47727e-06 6.92762e-07 0)
(1.14829e-06 6.9176e-07 0)
(8.1981e-07 6.90915e-07 0)
(4.91722e-07 6.9031e-07 0)
(1.63879e-07 6.89994e-07 0)
(-1.63809e-07 8.23353e-07 0)
(-4.91515e-07 8.23739e-07 0)
(-8.19484e-07 8.24481e-07 0)
(-1.14787e-06 8.25519e-07 0)
(-1.47681e-06 8.26758e-07 0)
(-1.80639e-06 8.28067e-07 0)
(-2.13663e-06 8.2927e-07 0)
(-2.4675e-06 8.30139e-07 0)
(-2.79887e-06 8.30386e-07 0)
(-3.13049e-06 8.29651e-07 0)
(-3.46195e-06 8.27483e-07 0)
(-3.79267e-06 8.23327e-07 0)
(-4.12184e-06 8.16497e-07 0)
(-4.44837e-06 8.06157e-07 0)
(-4.77082e-06 7.91282e-07 0)
(-5.08735e-06 7.70634e-07 0)
(-5.39557e-06 7.42719e-07 0)
(-5.69249e-06 7.05751e-07 0)
(-5.97436e-06 6.57616e-07 0)
(-6.23652e-06 5.95845e-07 0)
(-6.47327e-06 5.17601e-07 0)
(-6.67763e-06 4.19701e-07 0)
(-6.84121e-06 2.98689e-07 0)
(-6.95404e-06 1.50984e-07 0)
(-7.00445e-06 -2.68485e-08 0)
(-6.97905e-06 -2.37672e-07 0)
(-6.86298e-06 -4.83152e-07 0)
(-6.64035e-06 -7.62911e-07 0)
(-6.2952e-06 -1.07347e-06 0)
(-5.81303e-06 -1.40709e-06 0)
(-5.18304e-06 -1.75078e-06 0)
(-4.40097e-06 -2.08584e-06 0)
(-3.75857e-06 -2.30445e-06 0)
(-3.31892e-06 -2.42882e-06 0)
(-2.85447e-06 -2.54073e-06 0)
(-2.3679e-06 -2.63796e-06 0)
(-1.86237e-06 -2.71848e-06 0)
(-1.34156e-06 -2.78053e-06 0)
(-8.0952e-07 -2.82273e-06 0)
(-2.7061e-07 -2.84407e-06 0)
(2.7061e-07 -2.84407e-06 0)
(8.0952e-07 -2.82273e-06 0)
(1.34156e-06 -2.78053e-06 0)
(1.86237e-06 -2.71848e-06 0)
(2.3679e-06 -2.63796e-06 0)
(2.85447e-06 -2.54073e-06 0)
(3.31892e-06 -2.42882e-06 0)
(3.75857e-06 -2.30445e-06 0)
(4.40097e-06 -2.08584e-06 0)
(5.18304e-06 -1.75078e-06 0)
(5.81303e-06 -1.40709e-06 0)
(6.2952e-06 -1.07347e-06 0)
(6.64035e-06 -7.62911e-07 0)
(6.86298e-06 -4.83152e-07 0)
(6.97905e-06 -2.37672e-07 0)
(7.00445e-06 -2.68485e-08 0)
(6.95404e-06 1.50984e-07 0)
(6.84121e-06 2.98689e-07 0)
(6.67763e-06 4.19701e-07 0)
(6.47327e-06 5.17601e-07 0)
(6.23652e-06 5.95845e-07 0)
(5.97436e-06 6.57616e-07 0)
(5.69249e-06 7.05751e-07 0)
(5.39557e-06 7.42719e-07 0)
(5.08735e-06 7.70634e-07 0)
(4.77082e-06 7.91282e-07 0)
(4.44837e-06 8.06157e-07 0)
(4.12184e-06 8.16497e-07 0)
(3.79267e-06 8.23327e-07 0)
(3.46195e-06 8.27483e-07 0)
(3.13049e-06 8.29651e-07 0)
(2.79887e-06 8.30386e-07 0)
(2.4675e-06 8.30139e-07 0)
(2.13663e-06 8.2927e-07 0)
(1.80639e-06 8.28067e-07 0)
(1.47681e-06 8.26758e-07 0)
(1.14787e-06 8.25519e-07 0)
(8.19484e-07 8.24481e-07 0)
(4.91515e-07 8.23739e-07 0)
(1.63809e-07 8.23353e-07 0)
(-1.63714e-07 9.6955e-07 0)
(-4.91238e-07 9.70019e-07 0)
(-8.19047e-07 9.70923e-07 0)
(-1.14731e-06 9.72191e-07 0)
(-1.47618e-06 9.73715e-07 0)
(-1.80576e-06 9.75342e-07 0)
(-2.13611e-06 9.76869e-07 0)
(-2.46721e-06 9.78033e-07 0)
(-2.79896e-06 9.78501e-07 0)
(-3.13115e-06 9.77854e-07 0)
(-3.46343e-06 9.75572e-07 0)
(-3.79526e-06 9.71011e-07 0)
(-4.12592e-06 9.63375e-07 0)
(-4.45438e-06 9.51693e-07 0)
(-4.77932e-06 9.34777e-07 0)
(-5.09898e-06 9.11183e-07 0)
(-5.41112e-06 8.7917e-07 0)
(-5.71291e-06 8.3665e-07 0)
(-6.00076e-06 7.81147e-07 0)
(-6.27019e-06 7.09755e-07 0)
(-6.51566e-06 6.1912e-07 0)
(-6.73036e-06 5.05455e-07 0)
(-6.90601e-06 3.6461e-07 0)
(-7.03263e-06 1.92233e-07 0)
(-7.09839e-06 -1.59294e-08 0)
(-7.08951e-06 -2.63553e-07 0)
(-6.99033e-06 -5.53004e-07 0)
(-6.78374e-06 -8.84323e-07 0)
(-6.45199e-06 -1.25393e-06 0)
(-5.97825e-06 -1.65314e-06 0)
(-5.34898e-06 -2.06681e-06 0)
(-4.55724e-06 -2.47252e-06 0)
(-3.90153e-06 -2.73879e-06 0)
(-3.4495e-06 -2.89062e-06 0)
(-2.97014e-06 -3.02753e-06 0)
(-2.46627e-06 -3.14671e-06 0)
(-1.94133e-06 -3.24557e-06 0)
(-1.39932e-06 -3.32187e-06 0)
(-8.4473e-07 -3.37379e-06 0)
(-2.82441e-07 -3.40008e-06 0)
(2.82441e-07 -3.40008e-06 0)
(8.4473e-07 -3.37379e-06 0)
(1.39932e-06 -3.32187e-06 0)
(1.94133e-06 -3.24557e-06 0)
(2.46627e-06 -3.14671e-06 0)
(2.97014e-06 -3.02753e-06 0)
(3.4495e-06 -2.89062e-06 0)
(3.90153e-06 -2.73879e-06 0)
(4.55724e-06 -2.47252e-06 0)
(5.34898e-06 -2.06681e-06 0)
(5.97825e-06 -1.65314e-06 0)
(6.45199e-06 -1.25393e-06 0)
(6.78374e-06 -8.84323e-07 0)
(6.99033e-06 -5.53004e-07 0)
(7.08951e-06 -2.63553e-07 0)
(7.09839e-06 -1.59294e-08 0)
(7.03263e-06 1.92233e-07 0)
(6.90601e-06 3.6461e-07 0)
(6.73036e-06 5.05455e-07 0)
(6.51566e-06 6.1912e-07 0)
(6.27019e-06 7.09755e-07 0)
(6.00076e-06 7.81147e-07 0)
(5.71291e-06 8.3665e-07 0)
(5.41112e-06 8.7917e-07 0)
(5.09898e-06 9.11183e-07 0)
(4.77932e-06 9.34777e-07 0)
(4.45438e-06 9.51693e-07 0)
(4.12592e-06 9.63375e-07 0)
(3.79526e-06 9.71011e-07 0)
(3.46343e-06 9.75572e-07 0)
(3.13115e-06 9.77854e-07 0)
(2.79896e-06 9.78501e-07 0)
(2.46721e-06 9.78033e-07 0)
(2.13611e-06 9.76869e-07 0)
(1.80576e-06 9.75342e-07 0)
(1.47618e-06 9.73715e-07 0)
(1.14731e-06 9.72191e-07 0)
(8.19047e-07 9.70923e-07 0)
(4.91238e-07 9.70019e-07 0)
(1.63714e-07 9.6955e-07 0)
(-1.63588e-07 1.12979e-06 0)
(-4.9087e-07 1.13036e-06 0)
(-8.18463e-07 1.13146e-06 0)
(-1.14656e-06 1.13301e-06 0)
(-1.47533e-06 1.13488e-06 0)
(-1.8049e-06 1.1369e-06 0)
(-2.13536e-06 1.13884e-06 0)
(-2.46673e-06 1.14041e-06 0)
(-2.79895e-06 1.14121e-06 0)
(-3.13186e-06 1.14079e-06 0)
(-3.46515e-06 1.13853e-06 0)
(-3.79838e-06 1.1337e-06 0)
(-4.1309e-06 1.12541e-06 0)
(-4.46179e-06 1.11253e-06 0)
(-4.78984e-06 1.09371e-06 0)
(-5.11345e-06 1.06729e-06 0)
(-5.43055e-06 1.03126e-06 0)
(-5.7385e-06 9.83225e-07 0)
(-6.03393e-06 9.20313e-07 0)
(-6.31259e-06 8.39144e-07 0)
(-6.56919e-06 7.35795e-07 0)
(-6.79713e-06 6.05798e-07 0)
(-6.98829e-06 4.44207e-07 0)
(-7.13275e-06 2.45757e-07 0)
(-7.2185e-06 5.18075e-09 0)
(-7.2313e-06 -2.82255e-07 0)
(-7.15457e-06 -6.19918e-07 0)
(-6.96963e-06 -1.00861e-06 0)
(-6.65643e-06 -1.44499e-06 0)
(-6.19502e-06 -1.91965e-06 0)
(-5.56814e-06 -2.41526e-06 0)
(-4.76498e-06 -2.90519e-06 0)
(-4.09249e-06 -3.22926e-06 0)
(-3.62435e-06 -3.41463e-06 0)
(-3.12538e-06 -3.58225e-06 0)
(-2.59857e-06 -3.72855e-06 0)
(-2.04768e-06 -3.85018e-06 0)
(-1.47721e-06 -3.94422e-06 0)
(-8.92264e-07 -4.0083e-06 0)
(-2.98421e-07 -4.04077e-06 0)
(2.98421e-07 -4.04077e-06 0)
(8.92264e-07 -4.0083e-06 0)
(1.47721e-06 -3.94422e-06 0)
(2.04768e-06 -3.85018e-06 0)
(2.59857e-06 -3.72855e-06 0)
(3.12538e-06 -3.58225e-06 0)
(3.62435e-06 -3.41463e-06 0)
(4.09249e-06 -3.22926e-06 0)
(4.76498e-06 -2.90519e-06 0)
(5.56814e-06 -2.41526e-06 0)
(6.19502e-06 -1.91965e-06 0)
(6.65643e-06 -1.44499e-06 0)
(6.96963e-06 -1.00861e-06 0)
(7.15457e-06 -6.19918e-07 0)
(7.2313e-06 -2.82255e-07 0)
(7.2185e-06 5.18075e-09 0)
(7.13275e-06 2.45757e-07 0)
(6.98829e-06 4.44207e-07 0)
(6.79713e-06 6.05798e-07 0)
(6.56919e-06 7.35795e-07 0)
(6.31259e-06 8.39144e-07 0)
(6.03393e-06 9.20313e-07 0)
(5.7385e-06 9.83225e-07 0)
(5.43055e-06 1.03126e-06 0)
(5.11345e-06 1.06729e-06 0)
(4.78984e-06 1.09371e-06 0)
(4.46179e-06 1.11253e-06 0)
(4.1309e-06 1.12541e-06 0)
(3.79838e-06 1.1337e-06 0)
(3.46515e-06 1.13853e-06 0)
(3.13186e-06 1.14079e-06 0)
(2.79895e-06 1.14121e-06 0)
(2.46673e-06 1.14041e-06 0)
(2.13536e-06 1.13884e-06 0)
(1.8049e-06 1.1369e-06 0)
(1.47533e-06 1.13488e-06 0)
(1.14656e-06 1.13301e-06 0)
(8.18463e-07 1.13146e-06 0)
(4.9087e-07 1.13036e-06 0)
(1.63588e-07 1.12979e-06 0)
(-1.63421e-07 1.30539e-06 0)
(-4.9038e-07 1.30608e-06 0)
(-8.17684e-07 1.30741e-06 0)
(-1.14555e-06 1.3093e-06 0)
(-1.47417e-06 1.3116e-06 0)
(-1.80372e-06 1.31412e-06 0)
(-2.1343e-06 1.31661e-06 0)
(-2.46598e-06 1.31872e-06 0)
(-2.79876e-06 1.32003e-06 0)
(-3.13252e-06 1.32e-06 0)
(-3.46706e-06 1.31797e-06 0)
(-3.80201e-06 1.31311e-06 0)
(-4.13681e-06 1.30441e-06 0)
(-4.47069e-06 1.29059e-06 0)
(-4.80259e-06 1.27014e-06 0)
(-5.13111e-06 1.24117e-06 0)
(-5.45438e-06 1.20141e-06 0)
(-5.77001e-06 1.14813e-06 0)
(-6.07492e-06 1.07803e-06 0)
(-6.36517e-06 9.87226e-07 0)
(-6.63578e-06 8.71174e-07 0)
(-6.88048e-06 7.24643e-07 0)
(-7.09139e-06 5.41764e-07 0)
(-7.2587e-06 3.16185e-07 0)
(-7.37031e-06 4.13795e-08 0)
(-7.41146e-06 -2.88777e-07 0)
(-7.36448e-06 -6.79086e-07 0)
(-7.20881e-06 -1.13163e-06 0)
(-6.92143e-06 -1.64384e-06 0)
(-6.4783e-06 -2.20608e-06 0)
(-5.857e-06 -2.79896e-06 0)
(-5.04118e-06 -3.3912e-06 0)
(-4.34797e-06 -3.78702e-06 0)
(-3.85907e-06 -4.01437e-06 0)
(-3.33441e-06 -4.22076e-06 0)
(-2.77719e-06 -4.40153e-06 0)
(-2.19161e-06 -4.55227e-06 0)
(-1.58282e-06 -4.66911e-06 0)
(-9.56785e-07 -4.74888e-06 0)
(-3.20125e-07 -4.78934e-06 0)
(3.20125e-07 -4.78934e-06 0)
(9.56785e-07 -4.74888e-06 0)
(1.58282e-06 -4.66911e-06 0)
(2.19161e-06 -4.55227e-06 0)
(2.77719e-06 -4.40153e-06 0)
(3.33441e-06 -4.22076e-06 0)
(3.85907e-06 -4.01437e-06 0)
(4.34797e-06 -3.78702e-06 0)
(5.04118e-06 -3.3912e-06 0)
(5.857e-06 -2.79896e-06 0)
(6.4783e-06 -2.20608e-06 0)
(6.92143e-06 -1.64384e-06 0)
(7.20881e-06 -1.13163e-06 0)
(7.36448e-06 -6.79086e-07 0)
(7.41146e-06 -2.88777e-07 0)
(7.37031e-06 4.13795e-08 0)
(7.2587e-06 3.16185e-07 0)
(7.09139e-06 5.41764e-07 0)
(6.88048e-06 7.24643e-07 0)
(6.63578e-06 8.71174e-07 0)
(6.36517e-06 9.87226e-07 0)
(6.07492e-06 1.07803e-06 0)
(5.77001e-06 1.14813e-06 0)
(5.45438e-06 1.20141e-06 0)
(5.13111e-06 1.24117e-06 0)
(4.80259e-06 1.27014e-06 0)
(4.47069e-06 1.29059e-06 0)
(4.13681e-06 1.30441e-06 0)
(3.80201e-06 1.31311e-06 0)
(3.46706e-06 1.31797e-06 0)
(3.13252e-06 1.32e-06 0)
(2.79876e-06 1.32003e-06 0)
(2.46598e-06 1.31872e-06 0)
(2.1343e-06 1.31661e-06 0)
(1.80372e-06 1.31412e-06 0)
(1.47417e-06 1.3116e-06 0)
(1.14555e-06 1.3093e-06 0)
(8.17684e-07 1.30741e-06 0)
(4.9038e-07 1.30608e-06 0)
(1.63421e-07 1.30539e-06 0)
(-1.63199e-07 1.49777e-06 0)
(-4.89728e-07 1.4986e-06 0)
(-8.16644e-07 1.50022e-06 0)
(-1.14419e-06 1.50252e-06 0)
(-1.4726e-06 1.50536e-06 0)
(-1.80207e-06 1.50852e-06 0)
(-2.13276e-06 1.51171e-06 0)
(-2.46479e-06 1.51455e-06 0)
(-2.79822e-06 1.5166e-06 0)
(-3.133e-06 1.51723e-06 0)
(-3.46902e-06 1.51574e-06 0)
(-3.80602e-06 1.51118e-06 0)
(-4.14359e-06 1.50244e-06 0)
(-4.48111e-06 1.48811e-06 0)
(-4.81771e-06 1.4665e-06 0)
(-5.15222e-06 1.43549e-06 0)
(-5.48305e-06 1.39256e-06 0)
(-5.80813e-06 1.33461e-06 0)
(-6.12473e-06 1.25793e-06 0)
(-6.42934e-06 1.15808e-06 0)
(-6.7174e-06 1.02985e-06 0)
(-6.98308e-06 8.67148e-07 0)
(-7.21889e-06 6.63051e-07 0)
(-7.41528e-06 4.09905e-07 0)
(-7.56012e-06 9.96163e-08 0)
(-7.63821e-06 -2.75777e-07 0)
(-7.63069e-06 -7.23112e-07 0)
(-7.51472e-06 -1.24652e-06 0)
(-7.26362e-06 -1.84512e-06 0)
(-6.84796e-06 -2.50989e-06 0)
(-6.2382e-06 -3.21993e-06 0)
(-5.40986e-06 -3.93898e-06 0)
(-4.69185e-06 -4.42625e-06 0)
(-4.17644e-06 -4.70771e-06 0)
(-3.61822e-06 -4.96457e-06 0)
(-3.02061e-06 -5.19063e-06 0)
(-2.38836e-06 -5.37994e-06 0)
(-1.72754e-06 -5.52718e-06 0)
(-1.04535e-06 -5.62796e-06 0)
(-3.49942e-07 -5.67917e-06 0)
(3.49942e-07 -5.67917e-06 0)
(1.04535e-06 -5.62796e-06 0)
(1.72754e-06 -5.52718e-06 0)
(2.38836e-06 -5.37994e-06 0)
(3.02061e-06 -5.19063e-06 0)
(3.61822e-06 -4.96457e-06 0)
(4.17644e-06 -4.70771e-06 0)
(4.69185e-06 -4.42625e-06 0)
(5.40986e-06 -3.93898e-06 0)
(6.2382e-06 -3.21993e-06 0)
(6.84796e-06 -2.50989e-06 0)
(7.26362e-06 -1.84512e-06 0)
(7.51472e-06 -1.24652e-06 0)
(7.63069e-06 -7.23112e-07 0)
(7.63821e-06 -2.75777e-07 0)
(7.56012e-06 9.96163e-08 0)
(7.41528e-06 4.09905e-07 0)
(7.21889e-06 6.63051e-07 0)
(6.98308e-06 8.67148e-07 0)
(6.7174e-06 1.02985e-06 0)
(6.42934e-06 1.15808e-06 0)
(6.12473e-06 1.25793e-06 0)
(5.80813e-06 1.33461e-06 0)