/*--------------------------------*- C++ -*----------------------------------*\
  =========                 |
  \\      /  F ield         | OpenFOAM: The Open Source CFD Toolbox
   \\    /   O peration     | Website:  https://openfoam.org
    \\  /    A nd           | Version:  10
     \\/     M anipulation  |
\*---------------------------------------------------------------------------*/
FoamFile
{
    format      ascii;
    class       volScalarField;
    location    "8700";
    object      p;
}
// * * * * * * * * * * * * * * * * * * * * * * * * * * * * * * * * * * * * * //

dimensions      [1 -1 -2 0 0 0 0];

internalField   nonuniform List<scalar> 
6400
(
111.555
111.567
111.59
111.626
111.674
111.734
111.807
111.892
111.991
112.104
112.232
112.375
112.534
112.709
112.903
113.117
113.351
113.609
113.891
114.202
114.544
114.921
115.339
115.804
116.324
116.913
117.585
118.364
119.285
120.401
121.75
159.199
690.372
940.471
1166.73
1378.97
1575.62
1744.24
1867.44
1931.95
1931.95
1867.44
1744.24
1575.62
1378.97
1166.73
940.471
690.372
159.199
121.75
120.401
119.285
118.364
117.585
116.913
116.324
115.804
115.339
114.921
114.544
114.202
113.891
113.609
113.351
113.117
112.903
112.709
112.534
112.375
112.232
112.104
111.991
111.892
111.807
111.734
111.674
111.626
111.59
111.567
111.555
111.26
111.272
111.296
111.331
111.379
111.439
111.512
111.598
111.697
111.81
111.937
112.08
112.239
112.415
112.608
112.822
113.056
113.314
113.596
113.906
114.248
114.625
115.043
115.507
116.027
116.615
117.286
118.064
118.982
120.097
121.49
125.236
414.422
651.387
875.575
1088.36
1288.04
1460.83
1587.16
1653.05
1653.05
1587.16
1460.83
1288.04
1088.36
875.575
651.387
414.422
125.236
121.49
120.097
118.982
118.064
117.286
116.615
116.027
115.507
115.043
114.625
114.248
113.906
113.596
113.314
113.056
112.822
112.608
112.415
112.239
112.08
111.937
111.81
111.697
111.598
111.512
111.439
111.379
111.331
111.296
111.272
111.26
110.937
110.948
110.972
111.008
111.055
111.116
111.188
111.274
111.373
111.486
111.613
111.756
111.915
112.09
112.284
112.497
112.731
112.989
113.271
113.581
113.922
114.299
114.715
115.179
115.698
116.284
116.953
117.727
118.641
119.749
121.176
123.82
125.864
338.111
558.965
773.102
980.334
1163.48
1297.34
1366.4
1366.4
1297.34
1163.48
980.334
773.102
558.965
338.111
125.864
123.82
121.176
119.749
118.641
117.727
116.953
116.284
115.698
115.179
114.715
114.299
113.922
113.581
113.271
112.989
112.731
112.497
112.284
112.09
111.915
111.756
111.613
111.486
111.373
111.274
111.188
111.116
111.055
111.008
110.972
110.948
110.937
110.581
110.593
110.616
110.652
110.7
110.76
110.832
110.918
111.017
111.13
111.257
111.4
111.558
111.734
111.927
112.14
112.374
112.631
112.912
113.222
113.562
113.938
114.354
114.816
115.333
115.916
116.581
117.349
118.253
119.348
120.755
122.951
123.81
124.031
220.565
430.09
651.907
855.37
1003.06
1077.26
1077.26
1003.06
855.37
651.907
430.09
220.565
124.031
123.81
122.951
120.755
119.348
118.253
117.349
116.581
115.916
115.333
114.816
114.354
113.938
113.562
113.222
112.912
112.631
112.374
112.14
111.927
111.734
111.558
111.4
111.257
111.13
111.017
110.918
110.832
110.76
110.7
110.652
110.616
110.593
110.581
110.19
110.202
110.225
110.261
110.308
110.368
110.441
110.526
110.625
110.738
110.865
111.007
111.166
111.341
111.534
111.747
111.98
112.236
112.517
112.826
113.165
113.539
113.953
114.413
114.927
115.507
116.165
116.924
117.814
118.884
120.233
122.074
122.895
123.257
123.759
127.266
306.284
544.672
714.478
794.932
794.932
714.478
544.672
306.284
127.266
123.759
123.257
122.895
122.074
120.233
118.884
117.814
116.924
116.165
115.507
114.927
114.413
113.953
113.539
113.165
112.826
112.517
112.236
111.98
111.747
111.534
111.341
111.166
111.007
110.865
110.738
110.625
110.526
110.441
110.368
110.308
110.261
110.225
110.202
110.19
109.76
109.772
109.795
109.831
109.878
109.938
110.011
110.096
110.195
110.307
110.434
110.576
110.734
110.908
111.101
111.313
111.546
111.801
112.081
112.388
112.726
113.099
113.51
113.967
114.477
115.05
115.7
116.446
117.316
118.35
119.617
121.175
121.958
122.363
122.792
123.198
125.48
267.347
454.806
537.285
537.285
454.806
267.347
125.48
123.198
122.792
122.363
121.958
121.175
119.617
118.35
117.316
116.446
115.7
115.05
114.477
113.967
113.51
113.099
112.726
112.388
112.081
111.801
111.546
111.313
111.101
110.908
110.734
110.576
110.434
110.307
110.195
110.096
110.011
109.938
109.878
109.831
109.795
109.772
109.76
109.287
109.299
109.322
109.358
109.405
109.465
109.537
109.622
109.721
109.833
109.959
110.101
110.258
110.432
110.624
110.835
111.067
111.321
111.6
111.905
112.241
112.611
113.019
113.471
113.975
114.541
115.179
115.909
116.752
117.74
118.91
120.241
120.973
121.37
121.744
122.07
122.288
137.479
273.121
338.645
338.645
273.121
137.479
122.288
122.07
121.744
121.37
120.973
120.241
118.91
117.74
116.752
115.909
115.179
114.541
113.975
113.471
113.019
112.611
112.241
111.905
111.6
111.321
111.067
110.835
110.624
110.432
110.258
110.101
109.959
109.833
109.721
109.622
109.537
109.465
109.405
109.358
109.322
109.299
109.287
108.767
108.778
108.802
108.837
108.885
108.944
109.016
109.101
109.199
109.311
109.437
109.578
109.734
109.908
110.099
110.309
110.539
110.792
111.068
111.372
111.705
112.071
112.474
112.921
113.418
113.972
114.597
115.304
116.114
117.045
118.112
119.259
119.928
120.296
120.628
120.912
121.135
125.118
191.45
229.384
229.384
191.45
125.118
121.135
120.912
120.628
120.296
119.928
119.259
118.112
117.045
116.114
115.304
114.597
113.972
113.418
112.921
112.474
112.071
111.705
111.372
111.068
110.792
110.539
110.309
110.099
109.908
109.734
109.578
109.437
109.311
109.199
109.101
109.016
108.944
108.885
108.837
108.802
108.778
108.767
108.194
108.206
108.229
108.264
108.312
108.371
108.443
108.527
108.625
108.736
108.861
109.001
109.157
109.329
109.519
109.728
109.956
110.207
110.481
110.782
111.111
111.473
111.87
112.31
112.796
113.338
113.944
114.625
115.395
116.263
117.225
118.216
118.815
119.147
119.441
119.692
119.9
121.713
158.847
181.007
181.007
158.847
121.713
119.9
119.692
119.441
119.147
118.815
118.216
117.225
116.263
115.395
114.625
113.944
113.338
112.796
112.31
111.87
111.473
111.111
110.782
110.481
110.207
109.956
109.728
109.519
109.329
109.157
109.001
108.861
108.736
108.625
108.527
108.443
108.371
108.312
108.264
108.229
108.206
108.194
107.564
107.576
107.599
107.634
107.681
107.74
107.811
107.895
107.992
108.102
108.227
108.366
108.521
108.692
108.88
109.087
109.313
109.561
109.832
110.129
110.454
110.81
111.2
111.63
112.105
112.63
113.214
113.864
114.587
115.387
116.246
117.104
117.631
117.923
118.18
118.398
118.575
119.529
141.648
155.464
155.464
141.648
119.529
118.575
118.398
118.18
117.923
117.631
117.104
116.246
115.387
114.587
113.864
113.214
112.63
112.105
111.63
111.2
110.81
110.454
110.129
109.832
109.561
109.313
109.087
108.88
108.692
108.521
108.366
108.227
108.102
107.992
107.895
107.811
107.74
107.681
107.634
107.599
107.576
107.564
106.871
106.882
106.905
106.94
106.986
107.045
107.116
107.199
107.295
107.405
107.528
107.666
107.819
107.989
108.175
108.379
108.603
108.848
109.115
109.407
109.726
110.074
110.456
110.875
111.334
111.84
112.398
113.012
113.685
114.412
115.172
115.912
116.369
116.622
116.842
117.026
117.171
117.743
131.118
139.945
139.945
131.118
117.743
117.171
117.026
116.842
116.622
116.369
115.912
115.172
114.412
113.685
113.012
112.398
111.84
111.334
110.875
110.456
110.074
109.726
109.407
109.115
108.848
108.603
108.379
108.175
107.989
107.819
107.666
107.528
107.405
107.295
107.199
107.116
107.045
106.986
106.94
106.905
106.882
106.871
106.106
106.118
106.141
106.175
106.221
106.279
106.349
106.432
106.527
106.635
106.758
106.894
107.045
107.213
107.396
107.598
107.818
108.059
108.321
108.607
108.919
109.259
109.63
110.034
110.477
110.96
111.487
112.061
112.679
113.334
114.001
114.635
115.025
115.239
115.424
115.576
115.692
116.079
124.367
130.314
130.314
124.367
116.079
115.692
115.576
115.424
115.239
115.025
114.635
114.001
113.334
112.679
112.061
111.487
110.96
110.477
110.034
109.63
109.259
108.919
108.607
108.321
108.059
107.818
107.598
107.396
107.213
107.045
106.894
106.758
106.635
106.527
106.432
106.349
106.279
106.221
106.175
106.141
106.118
106.106
105.265
105.276
105.299
105.333
105.378
105.435
105.505
105.586
105.68
105.787
105.908
106.042
106.191
106.356
106.537
106.735
106.951
107.186
107.443
107.722
108.025
108.354
108.712
109.101
109.523
109.98
110.474
111.003
111.565
112.147
112.726
113.266
113.593
113.772
113.924
114.047
114.137
114.417
119.712
124.124
124.124
119.712
114.417
114.137
114.047
113.924
113.772
113.593
113.266
112.726
112.147
111.565
111.003
110.474
109.98
109.523
109.101
108.712
108.354
108.025
107.722
107.443
107.186
106.951
106.735
106.537
106.356
106.191
106.042
105.908
105.787
105.68
105.586
105.505
105.435
105.378
105.333
105.299
105.276
105.265
104.337
104.348
104.37
104.404
104.449
104.505
104.573
104.654
104.746
104.852
104.97
105.102
105.249
105.41
105.587
105.78
105.991
106.221
106.47
106.741
107.033
107.35
107.693
108.063
108.462
108.89
109.347
109.831
110.335
110.846
111.344
111.799
112.069
112.215
112.338
112.435
112.503
112.696
116.084
119.748
119.748
116.084
112.696
112.503
112.435
112.338
112.215
112.069
111.799
111.344
110.846
110.335
109.831
109.347
108.89
108.462
108.063
107.693
107.35
107.033
106.741
106.47
106.221
105.991
105.78
105.587
105.41
105.249
105.102
104.97
104.852
104.746
104.654
104.573
104.505
104.449
104.404
104.37
104.348
104.337
103.314
103.325
103.347
103.38
103.424
103.479
103.546
103.625
103.716
103.819
103.935
104.064
104.207
104.365
104.537
104.726
104.93
105.153
105.393
105.654
105.935
106.237
106.563
106.912
107.284
107.681
108.099
108.535
108.981
109.426
109.849
110.228
110.448
110.565
110.661
110.734
110.783
110.895
112.855
116.209
116.209
112.855
110.895
110.783
110.734
110.661
110.565
110.448
110.228
109.849
109.426
108.981
108.535
108.099
107.681
107.284
106.912
106.563
106.237
105.935
105.654
105.393
105.153
104.93
104.726
104.537
104.365
104.207
104.064
103.935
103.819
103.716
103.625
103.546
103.479
103.424
103.38
103.347
103.325
103.314
102.186
102.196
102.218
102.25
102.293
102.347
102.413
102.49
102.578
102.679
102.792
102.918
103.057
103.21
103.377
103.559
103.757
103.97
104.201
104.45
104.717
105.003
105.309
105.635
105.979
106.342
106.72
107.108
107.498
107.879
108.236
108.547
108.723
108.815
108.889
108.942
108.974
109.015
109.755
113.059
113.059
109.755
109.015
108.974
108.942
108.889
108.815
108.723
108.547
108.236
107.879
107.498
107.108
106.72
106.342
105.979
105.635
105.309
105.003
104.717
104.45
104.201
103.97
103.757
103.559
103.377
103.21
103.057
102.918
102.792
102.679
102.578
102.49
102.413
102.347
102.293
102.25
102.218
102.196
102.186
100.862
100.872
100.893
100.924
100.966
101.019
101.082
101.157
101.243
101.34
101.45
101.571
101.705
101.852
102.013
102.187
102.375
102.579
102.798
103.032
103.283
103.549
103.832
104.131
104.444
104.769
105.103
105.441
105.775
106.094
106.387
106.636
106.772
106.842
106.896
106.933
106.952
106.95
106.942
110.199
110.199
106.942
106.95
106.952
106.933
106.896
106.842
106.772
106.636
106.387
106.094
105.775
105.441
105.103
104.769
104.444
104.131
103.832
103.549
103.283
103.032
102.798
102.579
102.375
102.187
102.013
101.852
101.705
101.571
101.45
101.34
101.243
101.157
101.082
101.019
100.966
100.924
100.893
100.872
100.862
99.3906
99.4007
99.4208
99.451
99.4915
99.5423
99.6035
99.6753
99.758
99.8516
99.9564
100.073
100.201
100.341
100.494
100.659
100.837
101.028
101.233
101.452
101.684
101.93
102.188
102.458
102.738
103.025
103.317
103.607
103.888
104.153
104.39
104.588
104.693
104.745
104.785
104.811
104.822
104.818
104.809
107.94
107.94
104.809
104.818
104.822
104.811
104.785
104.745
104.693
104.588
104.39
104.153
103.888
103.607
103.317
103.025
102.738
102.458
102.188
101.93
101.684
101.452
101.233
101.028
100.837
100.659
100.494
100.341
100.201
100.073
99.9564
99.8516
99.758
99.6753
99.6035
99.5423
99.4915
99.451
99.4208
99.4007
99.3906
97.9096
97.9193
97.9387
97.9678
98.0066
98.0554
98.1142
98.183
98.2621
98.3517
98.4518
98.5626
98.6845
98.8175
98.9618
99.1177
99.2853
99.4646
99.6556
99.8583
100.072
100.297
100.532
100.775
101.024
101.278
101.531
101.78
102.019
102.239
102.433
102.591
102.674
102.714
102.744
102.763
102.771
102.766
102.757
105.889
105.889
102.757
102.766
102.771
102.763
102.744
102.714
102.674
102.591
102.433
102.239
102.019
101.78
101.531
101.278
101.024
100.775
100.532
100.297
100.072
99.8583
99.6556
99.4646
99.2853
99.1177
98.9618
98.8175
98.6845
98.5626
98.4518
98.3517
98.2621
98.183
98.1142
98.0554
98.0066
97.9678
97.9387
97.9193
97.9096
96.419
96.4282
96.4468
96.4747
96.5119
96.5585
96.6147
96.6805
96.7559
96.8412
96.9363
97.0416
97.157
97.2826
97.4186
97.565
97.7218
97.889
98.0662
98.2533
98.4497
98.6546
98.8669
99.085
99.307
99.5302
99.7509
99.965
100.167
100.352
100.511
100.64
100.705
100.737
100.76
100.774
100.779
100.774
100.765
103.932
103.932
100.765
100.774
100.779
100.774
100.76
100.737
100.705
100.64
100.511
100.352
100.167
99.965
99.7509
99.5302
99.307
99.085
98.8669
98.6546
98.4497
98.2533
98.0662
97.889
97.7218
97.565
97.4186
97.2826
97.157
97.0416
96.9363
96.8412
96.7559
96.6805
96.6147
96.5585
96.5119
96.4747
96.4468
96.4282
96.419
94.9191
94.9279
94.9456
94.9722
95.0077
95.0522
95.1056
95.1682
95.2399
95.3207
95.4109
95.5103
95.6192
95.7374
95.865
96.0019
96.1481
96.3032
96.467
96.639
96.8185
97.0047
97.1962
97.3915
97.5886
97.7848
97.977
98.1613
98.3335
98.4885
98.6211
98.7261
98.7785
98.8037
98.8216
98.8321
98.8348
98.8298
98.8207
102.042
102.042
98.8207
98.8298
98.8348
98.8321
98.8216
98.8037
98.7785
98.7261
98.6211
98.4885
98.3335
98.1613
97.977
97.7848
97.5886
97.3915
97.1962
97.0047
96.8185
96.639
96.467
96.3032
96.1481
96.0019
95.865
95.7374
95.6192
95.5103
95.4109
95.3207
95.2399
95.1682
95.1056
95.0522
95.0077
94.9722
94.9456
94.9279
94.9191
93.4103
93.4187
93.4356
93.4608
93.4946
93.5368
93.5875
93.6468
93.7146
93.7911
93.8761
93.9698
94.072
94.1828
94.3021
94.4296
94.5653
94.7088
94.8596
95.0172
95.1808
95.3494
95.5218
95.6963
95.871
96.0435
96.2109
96.3699
96.5169
96.6479
96.7586
96.845
96.8873
96.9074
96.9214
96.929
96.9303
96.9251
96.916
100.206
100.206
96.916
96.9251
96.9303
96.929
96.9214
96.9074
96.8873
96.845
96.7586
96.6479
96.5169
96.3699
96.2109
96.0435
95.871
95.6963
95.5218
95.3494
95.1808
95.0172
94.8596
94.7088
94.5653
94.4296
94.3021
94.1828
94.072
93.9698
93.8761
93.7911
93.7146
93.6468
93.5875
93.5368
93.4946
93.4608
93.4356
93.4187
93.4103
91.8931
91.9011
91.9171
91.941
91.973
92.0129
92.0609
92.1168
92.1808
92.2528
92.3327
92.4206
92.5163
92.6198
92.7308
92.8493
92.9748
93.107
93.2454
93.3893
93.538
93.6904
93.8452
94.0009
94.1556
94.3072
94.4531
94.5906
94.7164
94.8274
94.9203
94.9918
95.0261
95.0421
95.053
95.0585
95.0586
95.0532
95.0441
98.4192
98.4192
95.0441
95.0532
95.0586
95.0585
95.053
95.0421
95.0261
94.9918
94.9203
94.8274
94.7164
94.5906
94.4531
94.3072
94.1556
94.0009
93.8452
93.6904
93.538
93.3893
93.2454
93.107
92.9748
92.8493
92.7308
92.6198
92.5163
92.4206
92.3327
92.2528
92.1808
92.1168
92.0609
92.0129
91.973
91.941
91.9171
91.9011
91.8931
90.368
90.3755
90.3906
90.4132
90.4433
90.481
90.5262
90.5788
90.639
90.7065
90.7814
90.8635
90.9528
91.0491
91.1522
91.2618
91.3775
91.499
91.6256
91.7568
91.8915
92.0289
92.1677
92.3064
92.4434
92.5766
92.7039
92.8228
92.9308
93.0252
93.1033
93.1626
93.1905
93.2033
93.2116
93.2154
93.2145
93.209
93.1999
96.6753
96.6753
93.1999
93.209
93.2145
93.2154
93.2116
93.2033
93.1905
93.1626
93.1033
93.0252
92.9308
92.8228
92.7039
92.5766
92.4434
92.3064
92.1677
92.0289
91.8915
91.7568
91.6256
91.499
91.3775
91.2618
91.1522
91.0491
90.9528
90.8635
90.7814
90.7065
90.639
90.5788
90.5262
90.481
90.4433
90.4132
90.3906
90.3755
90.368
88.8353
88.8424
88.8566
88.8779
88.9062
88.9416
88.984
89.0334
89.0897
89.1529
89.2228
89.2994
89.3824
89.4717
89.5671
89.6682
89.7746
89.8859
90.0014
90.1206
90.2425
90.3661
90.4903
90.6138
90.7349
90.8519
90.963
91.066
91.1588
91.2391
91.305
91.3543
91.3769
91.387
91.3933
91.3956
91.394
91.3884
91.3793
94.9715
94.9715
91.3793
91.3884
91.394
91.3956
91.3933
91.387
91.3769
91.3543
91.305
91.2391
91.1588
91.066
90.963
90.8519
90.7349
90.6138
90.4903
90.3661
90.2425
90.1206
90.0014
89.8859
89.7746
89.6682
89.5671
89.4717
89.3824
89.2994
89.2228
89.1529
89.0897
89.0334
88.984
88.9416
88.9062
88.8779
88.8566
88.8424
88.8353
87.2955
87.3022
87.3155
87.3354
87.362
87.3952
87.4349
87.481
87.5336
87.5925
87.6576
87.7287
87.8057
87.8883
87.9762
88.0692
88.1668
88.2684
88.3736
88.4816
88.5916
88.7027
88.8137
88.9234
89.0304
89.1332
89.2301
89.3194
89.3992
89.4677
89.5232
89.5642
89.5823
89.5902
89.5948
89.5959
89.5937
89.588
89.579
93.306
93.306
89.579
89.588
89.5937
89.5959
89.5948
89.5902
89.5823
89.5642
89.5232
89.4677
89.3992
89.3194
89.2301
89.1332
89.0304
88.9234
88.8137
88.7027
88.5916
88.4816
88.3736
88.2684
88.1668
88.0692
87.9762
87.8883
87.8057
87.7287
87.6576
87.5925
87.5336
87.481
87.4349
87.3952
87.362
87.3354
87.3155
87.3022
87.2955
85.7491
85.7553
85.7678
85.7864
85.8112
85.8422
85.8792
85.9223
85.9712
86.0259
86.0863
86.1522
86.2233
86.2995
86.3804
86.4656
86.5548
86.6475
86.743
86.8407
86.9397
87.0393
87.1383
87.2357
87.3302
87.4204
87.5049
87.5823
87.6508
87.7092
87.7559
87.7898
87.8043
87.8103
87.8134
87.8136
87.8108
87.805
87.7961
91.6782
91.6782
87.7961
87.805
87.8108
87.8136
87.8134
87.8103
87.8043
87.7898
87.7559
87.7092
87.6508
87.5823
87.5049
87.4204
87.3302
87.2357
87.1383
87.0393
86.9397
86.8407
86.743
86.6475
86.5548
86.4656
86.3804
86.2995
86.2233
86.1522
86.0863
86.0259
85.9712
85.9223
85.8792
85.8422
85.8112
85.7864
85.7678
85.7553
85.7491
84.1964
84.2022
84.2138
84.2312
84.2543
84.2832
84.3176
84.3576
84.403
84.4537
84.5096
84.5704
84.6359
84.706
84.7801
84.8581
84.9395
85.0237
85.1102
85.1983
85.2874
85.3764
85.4647
85.551
85.6343
85.7133
85.787
85.8538
85.9127
85.9623
86.0016
86.0294
86.0407
86.0451
86.047
86.0463
86.0431
86.0372
86.0283
90.0889
90.0889
86.0283
86.0372
86.0431
86.0463
86.047
86.0451
86.0407
86.0294
86.0016
85.9623
85.9127
85.8538
85.787
85.7133
85.6343
85.551
85.4647
85.3764
85.2874
85.1983
85.1102
85.0237
84.9395
84.8581
84.7801
84.706
84.6359
84.5704
84.5096
84.4537
84.403
84.3576
84.3176
84.2832
84.2543
84.2312
84.2138
84.2022
84.1964
82.6379
82.6433
82.6541
82.6703
82.6917
82.7185
82.7504
82.7875
82.8295
82.8763
82.9278
82.9838
83.0441
83.1083
83.1761
83.2472
83.3212
83.3976
83.4757
83.5551
83.6349
83.7145
83.7929
83.8692
83.9425
84.0117
84.0757
84.1335
84.1839
84.2259
84.2586
84.2812
84.2897
84.2928
84.2936
84.2922
84.2885
84.2825
84.2737
88.5401
88.5401
84.2737
84.2825
84.2885
84.2922
84.2936
84.2928
84.2897
84.2812
84.2586
84.2259
84.1839
84.1335
84.0757
84.0117
83.9425
83.8692
83.7929
83.7145
83.6349
83.5551
83.4757
83.3976
83.3212
83.2472
83.1761
83.1083
83.0441
82.9838
82.9278
82.8763
82.8295
82.7875
82.7504
82.7185
82.6917
82.6703
82.6541
82.6433
82.6379
81.074
81.079
81.089
81.104
81.1239
81.1486
81.1782
81.2124
81.2511
81.2943
81.3417
81.3931
81.4482
81.5069
81.5688
81.6335
81.7006
81.7697
81.8401
81.9114
81.9828
82.0536
82.1232
82.1905
82.2549
82.3153
82.3707
82.4204
82.4634
82.4987
82.5257
82.5437
82.5499
82.5517
82.5516
82.5495
82.5454
82.5394
82.5306
87.0358
87.0358
82.5306
82.5394
82.5454
82.5495
82.5516
82.5517
82.5499
82.5437
82.5257
82.4987
82.4634
82.4204
82.3707
82.3153
82.2549
82.1905
82.1232
82.0536
81.9828
81.9114
81.8401
81.7697
81.7006
81.6335
81.5688
81.5069
81.4482
81.3931
81.3417
81.2943
81.2511
81.2124
81.1782
81.1486
81.1239
81.104
81.089
81.079
81.074
79.5051
79.5097
79.519
79.5328
79.5512
79.574
79.6012
79.6327
79.6684
79.708
79.7514
79.7985
79.8489
79.9024
79.9587
80.0174
80.0781
80.1403
80.2037
80.2675
80.3312
80.3941
80.4556
80.5149
80.5712
80.6237
80.6716
80.7141
80.7504
80.7799
80.8019
80.8158
80.8198
80.8205
80.8196
80.8169
80.8124
80.8062
80.7976
85.5817
85.5817
80.7976
80.8062
80.8124
80.8169
80.8196
80.8205
80.8198
80.8158
80.8019
80.7799
80.7504
80.7141
80.6716
80.6237
80.5712
80.5149
80.4556
80.3941
80.3312
80.2675
80.2037
80.1403
80.0781
80.0174
79.9587
79.9024
79.8489
79.7985
79.7514
79.708
79.6684
79.6327
79.6012
79.574
79.5512
79.5328
79.519
79.5097
79.5051
77.9316
77.9358
77.9444
77.9571
77.974
77.995
78.02
78.0489
78.0816
78.1179
78.1576
78.2006
78.2465
78.2951
78.3462
78.3993
78.454
78.51
78.5667
78.6237
78.6803
78.7361
78.7903
78.8422
78.8913
78.9367
78.9778
79.0139
79.0444
79.0686
79.0861
79.0963
79.0984
79.0981
79.0963
79.093
79.0882
79.0819
79.0733
84.1863
84.1863
79.0733
79.0819
79.0882
79.093
79.0963
79.0981
79.0984
79.0963
79.0861
79.0686
79.0444
79.0139
78.9778
78.9367
78.8913
78.8422
78.7903
78.7361
78.6803
78.6237
78.5667
78.51
78.454
78.3993
78.3462
78.2951
78.2465
78.2006
78.1576
78.1179
78.0816
78.0489
78.02
77.995
77.974
77.9571
77.9444
77.9358
77.9316
76.3538
76.3577
76.3655
76.3772
76.3927
76.412
76.4349
76.4614
76.4913
76.5244
76.5606
76.5997
76.6414
76.6855
76.7316
76.7795
76.8287
76.8788
76.9295
76.9802
77.0304
77.0796
77.1272
77.1725
77.215
77.2541
77.2891
77.3194
77.3446
77.3641
77.3774
77.3843
77.3845
77.3833
77.3808
77.3769
77.3717
77.3651
77.3567
82.8642
82.8642
77.3567
77.3651
77.3717
77.3769
77.3808
77.3833
77.3845
77.3843
77.3774
77.3641
77.3446
77.3194
77.2891
77.2541
77.215
77.1725
77.1272
77.0796
77.0304
76.9802
76.9295
76.8788
76.8287
76.7795
76.7316
76.6855
76.6414
76.5997
76.5606
76.5244
76.4913
76.4614
76.4349
76.412
76.3927
76.3772
76.3655
76.3577
76.3538
74.772
74.7756
74.7828
74.7935
74.8077
74.8253
74.8463
74.8704
74.8976
74.9278
74.9607
74.9961
75.0339
75.0737
75.1153
75.1583
75.2024
75.2472
75.2923
75.3372
75.3816
75.4247
75.4663
75.5056
75.5422
75.5755
75.605
75.6301
75.6505
75.6656
75.6752
75.679
75.6774
75.6753
75.672
75.6675
75.6618
75.655
75.6467
81.6356
81.6356
75.6467
75.655
75.6618
75.6675
75.672
75.6753
75.6774
75.679
75.6752
75.6656
75.6505
75.6301
75.605
75.5755
75.5422
75.5056
75.4663
75.4247
75.3816
75.3372
75.2923
75.2472
75.2024
75.1583
75.1153
75.0737
75.0339
74.9961
74.9607
74.9278
74.8976
74.8704
74.8463
74.8253
74.8077
74.7935
74.7828
74.7756
74.772
73.1867
73.19
73.1965
73.2063
73.2193
73.2353
73.2544
73.2764
73.3011
73.3284
73.3583
73.3903
73.4244
73.4602
73.4975
73.536
73.5754
73.6153
73.6552
73.6949
73.7338
73.7715
73.8076
73.8414
73.8726
73.9007
73.9252
73.9456
73.9616
73.9727
73.9788
73.9796
73.9763
73.9732
73.9691
73.9639
73.9578
73.9506
73.9424
80.5326
80.5326
73.9424
73.9506
73.9578
73.9639
73.9691
73.9732
73.9763
73.9796
73.9788
73.9727
73.9616
73.9456
73.9252
73.9007
73.8726
73.8414
73.8076
73.7715
73.7338
73.6949
73.6552
73.6153
73.5754
73.536
73.4975
73.4602
73.4244
73.3903
73.3583
73.3284
73.3011
73.2764
73.2544
73.2353
73.2193
73.2063
73.1965
73.19
73.1867
71.5981
71.6011
71.6071
71.616
71.6277
71.6423
71.6596
71.6795
71.7019
71.7267
71.7536
71.7824
71.8131
71.8452
71.8786
71.9129
71.9479
71.9832
72.0185
72.0533
72.0873
72.12
72.151
72.1799
72.2062
72.2295
72.2495
72.2656
72.2775
72.2849
72.2877
72.2856
72.2805
72.2764
72.2714
72.2655
72.2587
72.2511
72.243
79.6082
79.6082
72.243
72.2511
72.2587
72.2655
72.2714
72.2764
72.2805
72.2856
72.2877
72.2849
72.2775
72.2656
72.2495
72.2295
72.2062
72.1799
72.151
72.12
72.0873
72.0533
72.0185
71.9832
71.9479
71.9129
71.8786
71.8452
71.8131
71.7824
71.7536
71.7267
71.7019
71.6795
71.6596
71.6423
71.6277
71.616
71.6071
71.6011
71.5981
70.0065
70.0092
70.0146
70.0227
70.0334
70.0466
70.0622
70.0802
70.1004
70.1227
70.1469
70.1728
70.2002
70.229
70.2587
70.2892
70.3202
70.3513
70.3822
70.4125
70.442
70.4701
70.4966
70.5209
70.5428
70.5618
70.5775
70.5897
70.5979
70.6019
70.6014
70.5965
70.5895
70.5844
70.5784
70.5716
70.564
70.5556
70.5476
78.9553
78.9553
70.5476
70.5556
70.564
70.5716
70.5784
70.5844
70.5895
70.5965
70.6014
70.6019
70.5979
70.5897
70.5775
70.5618
70.5428
70.5209
70.4966
70.4701
70.442
70.4125
70.3822
70.3513
70.3202
70.2892
70.2587
70.229
70.2002
70.1728
70.1469
70.1227
70.1004
70.0802
70.0622
70.0466
70.0334
70.0227
70.0146
70.0092
70.0065
68.4122
68.4147
68.4196
68.4269
68.4365
68.4484
68.4625
68.4787
68.4969
68.5169
68.5385
68.5617
68.5861
68.6117
68.638
68.665
68.6922
68.7195
68.7464
68.7727
68.798
68.822
68.8443
68.8645
68.8823
68.8973
68.9092
68.9177
68.9224
68.9232
68.9197
68.9119
68.903
68.8967
68.8896
68.8817
68.873
68.8637
68.8558
78.7397
78.7397
68.8558
68.8637
68.873
68.8817
68.8896
68.8967
68.903
68.9119
68.9197
68.9232
68.9224
68.9177
68.9092
68.8973
68.8823
68.8645
68.8443
68.822
68.798
68.7727
68.7464
68.7195
68.6922
68.665
68.638
68.6117
68.5861
68.5617
68.5385
68.5169
68.4969
68.4787
68.4625
68.4484
68.4365
68.4269
68.4196
68.4147
68.4122
66.8155
66.8177
66.8221
66.8286
66.8373
66.848
66.8607
66.8752
66.8915
66.9093
66.9286
66.9493
66.971
66.9936
67.0168
67.0405
67.0643
67.088
67.1113
67.1338
67.1554
67.1755
67.194
67.2104
67.2245
67.2359
67.2443
67.2495
67.251
67.2487
67.2424
67.2318
67.2209
67.2133
67.2048
67.1955
67.1854
67.1747
67.1666
79.1757
79.1757
67.1666
67.1747
67.1854
67.1955
67.2048
67.2133
67.2209
67.2318
67.2424
67.2487
67.251
67.2495
67.2443
67.2359
67.2245
67.2104
67.194
67.1755
67.1554
67.1338
67.1113
67.088
67.0643
67.0405
67.0168
66.9936
66.971
66.9493
66.9286
66.9093
66.8915
66.8752
66.8607
66.848
66.8373
66.8286
66.8221
66.8177
66.8155
65.2166
65.2185
65.2225
65.2283
65.2361
65.2457
65.257
65.2699
65.2844
65.3003
65.3175
65.3357
65.3549
65.3748
65.3952
65.4158
65.4365
65.4569
65.4769
65.496
65.5141
65.5308
65.5458
65.5588
65.5695
65.5775
65.5828
65.5848
65.5834
65.5784
65.5694
65.5561
65.5432
65.5342
65.5242
65.5131
65.501
65.4879
65.4789
79.2317
79.2317
65.4789
65.4879
65.501
65.5131
65.5242
65.5342
65.5432
65.5561
65.5694
65.5784
65.5834
65.5848
65.5828
65.5775
65.5695
65.5588
65.5458
65.5308
65.5141
65.496
65.4769
65.4569
65.4365
65.4158
65.3952
65.3748
65.3549
65.3357
65.3175
65.3003
65.2844
65.2699
65.257
65.2457
65.2361
65.2283
65.2225
65.2185
65.2166
63.6156
63.6174
63.6209
63.6261
63.6331
63.6416
63.6517
63.6632
63.676
63.6901
63.7052
63.7213
63.7381
63.7555
63.7732
63.7911
63.8089
63.8264
63.8433
63.8593
63.8742
63.8877
63.8995
63.9094
63.917
63.9221
63.9243
63.9236
63.9195
63.9119
63.9006
63.8851
63.8706
63.8605
63.8492
63.8362
63.821
63.8022
63.7856
65.1561
65.1561
63.7856
63.8022
63.821
63.8362
63.8492
63.8605
63.8706
63.8851
63.9006
63.9119
63.9195
63.9236
63.9243
63.9221
63.917
63.9094
63.8995
63.8877
63.8742
63.8593
63.8433
63.8264
63.8089
63.7911
63.7732
63.7555
63.7381
63.7213
63.7052
63.6901
63.676
63.6632
63.6517
63.6416
63.6331
63.6261
63.6209
63.6174
63.6156
62.0132
62.0147
62.0178
62.0225
62.0286
62.0362
62.0451
62.0553
62.0666
62.079
62.0923
62.1064
62.121
62.1361
62.1514
62.1668
62.1819
62.1967
62.2107
62.2239
62.236
62.2466
62.2555
62.2625
62.2673
62.2696
62.2692
62.2659
62.2594
62.2496
62.2362
62.219
62.2038
62.1936
62.1827
62.1711
62.1589
62.1467
62.1354
63.3875
63.3875
62.1354
62.1467
62.1589
62.1711
62.1827
62.1936
62.2038
62.219
62.2362
62.2496
62.2594
62.2659
62.2692
62.2696
62.2673
62.2625
62.2555
62.2466
62.236
62.2239
62.2107
62.1967
62.1819
62.1668
62.1514
62.1361
62.121
62.1064
62.0923
62.079
62.0666
62.0553
62.0451
62.0362
62.0286
62.0225
62.0178
62.0147
62.0132
60.4091
60.4105
60.4133
60.4174
60.4228
60.4295
60.4373
60.4462
60.4562
60.467
60.4786
60.4908
60.5035
60.5165
60.5295
60.5426
60.5553
60.5676
60.5791
60.5897
60.5992
60.6072
60.6135
60.6179
60.6201
60.6199
60.6171
60.6114
60.6027
60.5907
60.5755
60.5569
60.541
60.5307
60.5198
60.5086
60.497
60.4854
60.4737
61.7337
61.7337
60.4737
60.4854
60.497
60.5086
60.5198
60.5307
60.541
60.5569
60.5755
60.5907
60.6027
60.6114
60.6171
60.6199
60.6201
60.6179
60.6135
60.6072
60.5992
60.5897
60.5791
60.5676
60.5553
60.5426
60.5295
60.5165
60.5035
60.4908
60.4786
60.467
60.4562
60.4462
60.4373
60.4295
60.4228
60.4174
60.4133
60.4105
60.4091
58.8037
58.8049
58.8073
58.8109
58.8157
58.8215
58.8284
58.8362
58.8449
58.8543
58.8643
58.8748
58.8856
58.8967
58.9078
58.9187
58.9292
58.9392
58.9485
58.9567
58.9638
58.9694
58.9733
58.9754
58.9753
58.9728
58.9678
58.9599
58.9491
58.9353
58.9182
58.898
58.8812
58.8704
58.8591
58.8475
58.8355
58.8233
58.8108
60.0929
60.0929
58.8108
58.8233
58.8355
58.8475
58.8591
58.8704
58.8812
58.898
58.9182
58.9353
58.9491
58.9599
58.9678
58.9728
58.9753
58.9754
58.9733
58.9694
58.9638
58.9567
58.9485
58.9392
58.9292
58.9187
58.9078
58.8967
58.8856
58.8748
58.8643
58.8543
58.8449
58.8362
58.8284
58.8215
58.8157
58.8109
58.8073
58.8049
58.8037
57.197
57.1981
57.2002
57.2034
57.2075
57.2126
57.2185
57.2253
57.2328
57.2409
57.2495
57.2584
57.2676
57.2769
57.2861
57.2951
57.3037
57.3116
57.3188
57.3249
57.3298
57.3333
57.3351
57.335
57.3328
57.3283
57.3212
57.3114
57.2987
57.2829
57.264
57.2421
57.2241
57.2125
57.2004
57.1879
57.1751
57.1619
57.1484
58.454
58.454
57.1484
57.1619
57.1751
57.1879
57.2004
57.2125
57.2241
57.2421
57.264
57.2829
57.2987
57.3114
57.3212
57.3283
57.3328
57.335
57.3351
57.3333
57.3298
57.3249
57.3188
57.3116
57.3037
57.2951
57.2861
57.2769
57.2676
57.2584
57.2495
57.2409
57.2328
57.2253
57.2185
57.2126
57.2075
57.2034
57.2002
57.1981
57.197
55.5893
55.5902
55.5921
55.5948
55.5984
55.6028
55.6079
55.6137
55.6201
55.627
55.6343
55.6418
55.6495
55.6572
55.6648
55.672
55.6788
55.6849
55.6901
55.6944
55.6973
55.6989
55.6988
55.6968
55.6927
55.6863
55.6775
55.6659
55.6513
55.6338
55.613
55.589
55.5695
55.5569
55.5438
55.5302
55.5161
55.5017
55.4868
56.8141
56.8141
55.4868
55.5017
55.5161
55.5302
55.5438
55.5569
55.5695
55.589
55.613
55.6338
55.6513
55.6659
55.6775
55.6863
55.6927
55.6968
55.6988
55.6989
55.6973
55.6944
55.6901
55.6849
55.6788
55.672
55.6648
55.6572
55.6495
55.6418
55.6343
55.627
55.6201
55.6137
55.6079
55.6028
55.5984
55.5948
55.5921
55.5902
55.5893
53.9807
53.9815
53.983
53.9854
53.9884
53.9922
53.9966
54.0015
54.0069
54.0127
54.0188
54.0251
54.0314
54.0376
54.0437
54.0493
54.0545
54.0589
54.0625
54.065
54.0663
54.0661
54.0643
54.0606
54.0549
54.0469
54.0364
54.0232
54.007
53.9878
53.9652
53.9391
53.9178
53.9041