/*--------------------------------*- C++ -*----------------------------------*\
  =========                 |
  \\      /  F ield         | OpenFOAM: The Open Source CFD Toolbox
   \\    /   O peration     | Website:  https://openfoam.org
    \\  /    A nd           | Version:  11
     \\/     M anipulation  |
\*---------------------------------------------------------------------------*/
FoamFile
{
    format      ascii;
    class       volVectorField;
    location    "37";
    object      U;
}
// * * * * * * * * * * * * * * * * * * * * * * * * * * * * * * * * * * * * * //

dimensions      [0 1 -1 0 0 0 0];

internalField   nonuniform List<vector> 
2048
(
(1.00014 -0.000597074 0)
(1.00256 -0.00180134 0)
(1.00733 -0.00303044 0)
(1.01461 -0.0042985 0)
(1.02451 -0.00561596 0)
(1.03708 -0.00698606 0)
(1.05243 -0.00840199 0)
(1.07063 -0.00984509 0)
(1.09171 -0.0112839 0)
(1.11565 -0.0126739 0)
(1.1423 -0.0139591 0)
(1.17141 -0.015074 0)
(1.20258 -0.0159502 0)
(1.23529 -0.0165246 0)
(1.26889 -0.0167522 0)
(1.30266 -0.0166166 0)
(1.33588 -0.016137 0)
(1.36786 -0.0153675 0)
(1.39803 -0.0143855 0)
(1.42602 -0.0132719 0)
(1.45162 -0.0120963 0)
(1.47476 -0.0109114 0)
(1.49548 -0.00975505 0)
(1.5139 -0.00865334 0)
(1.53014 -0.00762264 0)
(1.54437 -0.00667094 0)
(1.55677 -0.00579994 0)
(1.5675 -0.00500745 0)
(1.57671 -0.00428907 0)
(1.58456 -0.00363923 0)
(1.59118 -0.00305193 0)
(1.59668 -0.00252145 0)
(1.60118 -0.00204283 0)
(1.60478 -0.00161227 0)
(1.60757 -0.00122715 0)
(1.60963 -0.000886017 0)
(1.61106 -0.000588462 0)
(1.61194 -0.000334847 0)
(1.61235 -0.000126058 0)
(1.61239 3.68683e-05 0)
(1.61215 0.000153274 0)
(1.61172 0.000223322 0)
(1.6112 0.000248254 0)
(1.61067 0.000230727 0)
(1.61022 0.000174182 0)
(1.60992 8.50181e-05 0)
(1.60983 -2.93458e-05 0)
(1.60999 -0.000160421 0)
(1.61044 -0.000298747 0)
(1.61116 -0.000433964 0)
(1.61216 -0.000555656 0)
(1.61337 -0.00065341 0)
(1.61479 -0.000718523 0)
(1.61626 -0.000742675 0)
(1.61781 -0.000722352 0)
(1.61917 -0.000652255 0)
(1.62051 -0.000538876 0)
(1.62133 -0.000376335 0)
(1.62218 -0.000190214 0)
(1.62201 4.08224e-05 0)
(1.62229 0.0002495 0)
(1.62071 0.000518613 0)
(1.62075 0.000666141 0)
(1.61729 0.000975075 0)
(1.00013 -0.00178591 0)
(1.00253 -0.00538796 0)
(1.00725 -0.00906643 0)
(1.01446 -0.0128667 0)
(1.02427 -0.0168227 0)
(1.03678 -0.0209461 0)
(1.05209 -0.0252184 0)
(1.07031 -0.0295845 0)
(1.09149 -0.0339493 0)
(1.11564 -0.0381767 0)
(1.14263 -0.0420931 0)
(1.17221 -0.0454976 0)
(1.204 -0.0481777 0)
(1.23743 -0.0499362 0)
(1.27182 -0.0506288 0)
(1.30638 -0.0501993 0)
(1.3403 -0.0487067 0)
(1.37285 -0.0463259 0)
(1.40344 -0.0433042 0)
(1.43168 -0.0398959 0)
(1.45741 -0.0363136 0)
(1.48057 -0.032716 0)
(1.50126 -0.0292164 0)
(1.51958 -0.0258919 0)
(1.53571 -0.0227894 0)
(1.54981 -0.0199302 0)
(1.56207 -0.0173175 0)
(1.57267 -0.0149433 0)
(1.58176 -0.0127932 0)
(1.58949 -0.0108494 0)
(1.596 -0.0090931 0)
(1.6014 -0.00750648 0)
(1.60581 -0.00607449 0)
(1.60932 -0.00478556 0)
(1.61202 -0.00363193 0)
(1.61399 -0.00260938 0)
(1.61533 -0.00171685 0)
(1.61612 -0.000955722 0)
(1.61644 -0.00032912 0)
(1.61638 0.00015947 0)
(1.61605 0.000507461 0)
(1.61553 0.000715345 0)
(1.61492 0.000786596 0)
(1.61431 0.000728925 0)
(1.61378 0.000555177 0)
(1.61343 0.000280406 0)
(1.61329 -7.24626e-05 0)
(1.61343 -0.000476404 0)
(1.61387 -0.000902284 0)
(1.61461 -0.00131844 0)
(1.61565 -0.00169286 0)
(1.61693 -0.001994 0)
(1.61841 -0.00219513 0)
(1.61998 -0.00227111 0)
(1.62162 -0.00221074 0)
(1.62307 -0.00199844 0)
(1.6245 -0.00165273 0)
(1.62539 -0.00115726 0)
(1.62629 -0.00058675 0)
(1.62614 0.000119424 0)
(1.62643 0.000760197 0)
(1.6248 0.00157976 0)
(1.62483 0.0020331 0)
(1.62121 0.00296775 0)
(1.00013 -0.00295215 0)
(1.00246 -0.00890894 0)
(1.00707 -0.0150017 0)
(1.01412 -0.0213146 0)
(1.02376 -0.0279125 0)
(1.03611 -0.0348222 0)
(1.05132 -0.0420211 0)
(1.06955 -0.0494219 0)
(1.09091 -0.0568666 0)
(1.11546 -0.0641191 0)
(1.14311 -0.0708712 0)
(1.17366 -0.0767645 0)
(1.20669 -0.0814163 0)
(1.24161 -0.0844709 0)
(1.27762 -0.0856607 0)
(1.31381 -0.0848701 0)
(1.34919 -0.0822055 0)
(1.3829 -0.078002 0)
(1.4143 -0.0727229 0)
(1.44303 -0.0668234 0)
(1.46897 -0.0606704 0)
(1.49217 -0.0545319 0)
(1.51274 -0.0485965 0)
(1.53087 -0.0429892 0)
(1.54674 -0.0377801 0)
(1.56056 -0.0329967 0)
(1.57254 -0.0286382 0)
(1.58286 -0.0246868 0)
(1.59169 -0.021115 0)
(1.59918 -0.0178896 0)
(1.60547 -0.0149765 0)
(1.61067 -0.0123441 0)
(1.61489 -0.00996643 0)
(1.61822 -0.00782377 0)
(1.62075 -0.00590323 0)
(1.62255 -0.00419833 0)
(1.62371 -0.00270809 0)
(1.62431 -0.00143557 0)
(1.62445 -0.000387511 0)
(1.6242 0.00042877 0)
(1.62367 0.00100768 0)
(1.62296 0.00134894 0)
(1.62216 0.00145732 0)
(1.62138 0.00134495 0)
(1.62071 0.00103375 0)
(1.62023 0.000550983 0)
(1.62 -6.63099e-05 0)
(1.62009 -0.000772462 0)
(1.62052 -0.00151789 0)
(1.62129 -0.00224796 0)
(1.62241 -0.00290641 0)
(1.6238 -0.00343803 0)
(1.62543 -0.00379579 0)
(1.62716 -0.00393654 0)
(1.62899 -0.00383924 0)
(1.63063 -0.00347888 0)
(1.63223 -0.00288342 0)
(1.63325 -0.00203031 0)
(1.63427 -0.00104123 0)
(1.63413 0.000182181 0)
(1.63446 0.00129921 0)
(1.63268 0.00271244 0)
(1.63269 0.00350358 0)
(1.62874 0.00509437 0)
(1.00013 -0.0040731 0)
(1.00236 -0.0123005 0)
(1.00677 -0.020739 0)
(1.01355 -0.0295224 0)
(1.02288 -0.0387579 0)
(1.03492 -0.0484995 0)
(1.04991 -0.0587341 0)
(1.06808 -0.0693525 0)
(1.08964 -0.0801432 0)
(1.11474 -0.0907613 0)
(1.14338 -0.100736 0)
(1.17539 -0.109501 0)
(1.21035 -0.116433 0)
(1.2476 -0.120966 0)
(1.28619 -0.122668 0)
(1.32496 -0.121342 0)
(1.36263 -0.117185 0)
(1.39811 -0.11078 0)
(1.43069 -0.10288 0)
(1.46007 -0.0941712 0)
(1.48627 -0.0851857 0)
(1.50943 -0.0763053 0)
(1.52977 -0.0677954 0)
(1.54753 -0.0598203 0)
(1.56297 -0.0524598 0)
(1.57634 -0.0457342 0)
(1.58786 -0.0396302 0)
(1.59775 -0.0341145 0)
(1.60618 -0.0291411 0)
(1.61331 -0.0246569 0)
(1.61926 -0.0206085 0)
(1.62416 -0.0169486 0)
(1.62809 -0.0136383 0)
(1.63115 -0.0106494 0)
(1.6334 -0.00796389 0)
(1.63494 -0.00557356 0)
(1.63583 -0.00347893 0)
(1.63615 -0.00168677 0)
(1.63599 -0.000209158 0)
(1.63544 0.000939385 0)
(1.6346 0.00175018 0)
(1.63357 0.0022194 0)
(1.63248 0.00235283 0)
(1.63141 0.00216573 0)
(1.63049 0.00168596 0)
(1.62979 0.000956168 0)
(1.62941 2.827e-05 0)
(1.62938 -0.00103033 0)
(1.62977 -0.00214668 0)
(1.63056 -0.00324242 0)
(1.63176 -0.00423584 0)
(1.63329 -0.00504459 0)
(1.63512 -0.00559624 0)
(1.63708 -0.00582559 0)
(1.63916 -0.00569941 0)
(1.64104 -0.00518059 0)
(1.64288 -0.00430693 0)
(1.64406 -0.00304963 0)
(1.64523 -0.00157908 0)
(1.6451 0.000235662 0)
(1.64544 0.00190282 0)
(1.64341 0.00398376 0)
(1.64337 0.00516573 0)
(1.63884 0.00746385 0)
(1.00012 -0.00512324 0)
(1.00219 -0.0154891 0)
(1.00631 -0.0261618 0)
(1.01266 -0.0373415 0)
(1.02148 -0.0491926 0)
(1.033 -0.0618143 0)
(1.04755 -0.0752228 0)
(1.06549 -0.0893007 0)
(1.08715 -0.103812 0)
(1.11286 -0.118299 0)
(1.14275 -0.132125 0)
(1.17676 -0.144432 0)
(1.21446 -0.154215 0)
(1.25507 -0.160568 0)
(1.2974 -0.162772 0)
(1.33988 -0.160525 0)
(1.38075 -0.154262 0)
(1.41858 -0.145012 0)
(1.45262 -0.13392 0)
(1.48275 -0.121932 0)
(1.50916 -0.10974 0)
(1.53214 -0.0978458 0)
(1.55204 -0.0865873 0)
(1.56921 -0.0761499 0)
(1.584 -0.0665976 0)
(1.5967 -0.0579252 0)
(1.60757 -0.0500946 0)
(1.61684 -0.0430478 0)
(1.62468 -0.036712 0)
(1.63127 -0.0310077 0)
(1.63674 -0.025859 0)
(1.64118 -0.0211996 0)
(1.64469 -0.0169772 0)
(1.64733 -0.0131539 0)
(1.64919 -0.00970643 0)
(1.65031 -0.00662574 0)
(1.65078 -0.00391386 0)
(1.65066 -0.00158549 0)
(1.65004 0.000336005 0)
(1.649 0.00182677 0)
(1.64767 0.00287199 0)
(1.64615 0.00346353 0)
(1.64456 0.00360558 0)
(1.64302 0.0033178 0)
(1.64165 0.00263384 0)
(1.64056 0.00160628 0)
(1.63983 0.00030643 0)
(1.63955 -0.001181 0)
(1.63975 -0.0027502 0)
(1.64043 -0.00428789 0)
(1.64161 -0.00568336 0)
(1.64319 -0.00682882 0)
(1.64514 -0.00762304 0)
(1.64727 -0.00797459 0)
(1.64955 -0.00783188 0)
(1.65163 -0.0071454 0)
(1.65366 -0.00595876 0)
(1.65496 -0.00423869 0)
(1.65622 -0.00219849 0)
(1.65599 0.000315589 0)
(1.65627 0.00264981 0)
(1.65381 0.00550461 0)
(1.65365 0.00716238 0)
(1.64826 0.0102318 0)
(1.0001 -0.00606818 0)
(1.00195 -0.0183758 0)
(1.00562 -0.0311069 0)
(1.01134 -0.0445575 0)
(1.01937 -0.0589609 0)
(1.03006 -0.0745 0)
(1.04384 -0.091239 0)
(1.0612 -0.109069 0)
(1.0827 -0.127771 0)
(1.10889 -0.146757 0)
(1.14014 -0.165305 0)
(1.17665 -0.182183 0)
(1.21807 -0.195854 0)
(1.2634 -0.204811 0)
(1.31107 -0.207627 0)
(1.35873 -0.203823 0)
(1.40381 -0.194443 0)
(1.44453 -0.18133 0)
(1.48026 -0.166181 0)
(1.51115 -0.150215 0)
(1.53761 -0.134288 0)
(1.56013 -0.119016 0)
(1.57921 -0.10479 0)
(1.59538 -0.0917732 0)
(1.60908 -0.0799796 0)
(1.62067 -0.069358 0)
(1.63044 -0.0598315 0)
(1.63863 -0.051302 0)
(1.64545 -0.0436566 0)
(1.65108 -0.036781 0)
(1.65565 -0.0305719 0)
(1.65924 -0.0249429 0)
(1.66193 -0.0198273 0)
(1.66379 -0.0151778 0)
(1.66487 -0.0109651 0)
(1.66523 -0.00718273 0)
(1.66492 -0.00382948 0)
(1.664 -0.000928961 0)
(1.66254 0.00146788 0)
(1.66065 0.00332699 0)
(1.65843 0.00462419 0)
(1.65602 0.00534451 0)
(1.65354 0.00548733 0)
(1.65112 0.0050728 0)
(1.64888 0.00414385 0)
(1.64696 0.00276516 0)
(1.64546 0.00103246 0)
(1.64446 -0.00095073 0)
(1.64404 -0.0030642 0)
(1.6442 -0.00515727 0)
(1.64492 -0.00706325 0)
(1.64614 -0.00863499 0)
(1.64781 -0.00973846 0)
(1.64972 -0.010259 0)
(1.65184 -0.0101184 0)
(1.65378 -0.00926093 0)
(1.65571 -0.00772361 0)
(1.65686 -0.0054842 0)
(1.658 -0.00279788 0)
(1.65748 0.00050819 0)
(1.65752 0.00364977 0)
(1.65446 0.00740511 0)
(1.65406 0.00966824 0)
(1.6476 0.0135818 0)
(1.00008 -0.00686311 0)
(1.0016 -0.0208345 0)
(1.00464 -0.0353538 0)
(1.00944 -0.0508756 0)
(1.01632 -0.0676801 0)
(1.02571 -0.0861448 0)
(1.03822 -0.106363 0)
(1.05449 -0.128322 0)
(1.07536 -0.151827 0)
(1.10162 -0.176057 0)
(1.13403 -0.20039 0)
(1.17339 -0.223026 0)
(1.21949 -0.242082 0)
(1.27132 -0.255008 0)
(1.32676 -0.258706 0)
(1.38192 -0.252491 0)
(1.43272 -0.238676 0)
(1.477 -0.220383 0)
(1.51444 -0.200008 0)
(1.54559 -0.179093 0)
(1.57117 -0.158701 0)
(1.59192 -0.139574 0)
(1.60868 -0.122088 0)
(1.62224 -0.106306 0)
(1.6332 -0.0921583 0)
(1.64203 -0.0795422 0)
(1.64908 -0.0683303 0)
(1.65466 -0.0583634 0)
(1.659 -0.0494683 0)
(1.66231 -0.0414826 0)
(1.6647 -0.0342674 0)
(1.66626 -0.0277116 0)
(1.66707 -0.0217307 0)
(1.66716 -0.0162708 0)
(1.66657 -0.0112948 0)
(1.66533 -0.00680341 0)
(1.66349 -0.00278013 0)
(1.66105 0.000716637 0)
(1.65807 0.00362442 0)
(1.65466 0.00589659 0)
(1.65091 0.00749129 0)
(1.64694 0.00837811 0)
(1.64288 0.00854689 0)
(1.63885 0.00801291 0)
(1.63501 0.00682343 0)
(1.63148 0.00506067 0)
(1.62837 0.00283108 0)
(1.62577 0.000284439 0)
(1.62376 -0.00240975 0)
(1.62241 -0.00511533 0)
(1.62173 -0.00763825 0)
(1.62163 -0.00977513 0)
(1.62208 -0.0113164 0)
(1.62288 -0.0121191 0)
(1.62401 -0.0120711 0)
(1.6251 -0.0111116 0)
(1.62629 -0.00925261 0)
(1.62683 -0.0065023 0)
(1.62748 -0.00310464 0)
(1.6266 0.000996159 0)
(1.62629 0.0050058 0)
(1.62287 0.00971781 0)
(1.62219 0.0127126 0)
(1.61517 0.0175363 0)
(1.00005 -0.00745326 0)
(1.00114 -0.0227164 0)
(1.0033 -0.0386203 0)
(1.00685 -0.0559181 0)
(1.01204 -0.0747887 0)
(1.01952 -0.096133 0)
(1.02999 -0.119827 0)
(1.04432 -0.146458 0)
(1.06392 -0.175616 0)
(1.08949 -0.206226 0)
(1.12279 -0.23796 0)
(1.1651 -0.267457 0)
(1.21623 -0.29323 0)
(1.27707 -0.311278 0)
(1.34484 -0.315668 0)
(1.41143 -0.30598 0)
(1.4695 -0.286469 0)
(1.51633 -0.26158 0)
(1.55246 -0.234459 0)
(1.57938 -0.207174 0)
(1.59866 -0.181231 0)
(1.61189 -0.157572 0)
(1.62062 -0.136416 0)
(1.62612 -0.117599 0)
(1.62925 -0.10094 0)
(1.63062 -0.0862874 0)
(1.6307 -0.0734467 0)
(1.62987 -0.0621688 0)
(1.62841 -0.0521955 0)
(1.62649 -0.0432952 0)
(1.62422 -0.0352767 0)
(1.62165 -0.0279833 0)
(1.61878 -0.0213087 0)
(1.61563 -0.0151605 0)
(1.61218 -0.00954011 0)
(1.6084 -0.00437291 0)
(1.60428 0.000266669 0)
(1.59973 0.00430064 0)
(1.59476 0.00769681 0)
(1.5894 0.0103994 0)
(1.58372 0.0123385 0)
(1.57779 0.0134592 0)
(1.57168 0.0137312 0)
(1.56553 0.0131569 0)
(1.55945 0.0117772 0)
(1.55357 0.00967648 0)
(1.54802 0.00697876 0)
(1.54294 0.00385009 0)
(1.53835 0.000493359 0)
(1.53432 -0.00285553 0)
(1.53099 -0.00599121 0)
(1.52836 -0.0087804 0)
(1.52646 -0.0109182 0)
(1.52514 -0.01221 0)
(1.52442 -0.0124968 0)
(1.52401 -0.0117089 0)
(1.52404 -0.00980016 0)
(1.52393 -0.00680653 0)
(1.52414 -0.00291943 0)
(1.52345 0.00175559 0)
(1.52326 0.00650128 0)
(1.52085 0.0120405 0)
(1.52037 0.015762 0)
(1.51497 0.0214947 0)
(0.999992 -0.00777947 0)
(1.00059 -0.0238596 0)
(1.00152 -0.040578 0)
(1.00356 -0.0592453 0)
(1.00621 -0.0795293 0)
(1.01127 -0.103634 0)
(1.0181 -0.130235 0)
(1.02965 -0.162372 0)
(1.04626 -0.197785 0)
(1.07009 -0.237185 0)
(1.10476 -0.279976 0)
(1.14917 -0.317857 0)
(1.20634 -0.352718 0)
(1.28277 -0.377559 0)
(1.36925 -0.381658 0)
(1.44683 -0.366351 0)
(1.50411 -0.338416 0)
(1.54037 -0.303479 0)
(1.55944 -0.265994 0)
(1.56575 -0.229194 0)
(1.5631 -0.195607 0)
(1.5547 -0.166358 0)
(1.54323 -0.141125 0)
(1.5304 -0.11927 0)
(1.51712 -0.100392 0)
(1.50394 -0.084194 0)
(1.49132 -0.0703295 0)
(1.4796 -0.0584126 0)
(1.46891 -0.0480752 0)
(1.4593 -0.0389983 0)
(1.4507 -0.0309129 0)
(1.44302 -0.0236012 0)
(1.43615 -0.0168902 0)
(1.42992 -0.0106654 0)
(1.42416 -0.00486007 0)
(1.41877 0.000511142 0)
(1.41344 0.0053454 0)
(1.40806 0.00964542 0)
(1.40254 0.0133806 0)
(1.39676 0.0164553 0)
(1.39066 0.0187615 0)
(1.38419 0.0202092 0)
(1.37737 0.0207354 0)
(1.37026 0.0203149 0)
(1.36294 0.0189679 0)
(1.35553 0.0167617 0)
(1.34818 0.0138203 0)
(1.34102 0.0103038 0)
(1.33428 0.00642456 0)
(1.32806 0.002432 0)
(1.32236 -0.00142695 0)
(1.31743 -0.00486632 0)
(1.31353 -0.00770367 0)
(1.31061 -0.00972674 0)
(1.30873 -0.010707 0)
(1.30782 -0.0105465 0)
(1.30789 -0.0091312 0)
(1.30864 -0.00650976 0)
(1.31 -0.00276525 0)
(1.31165 0.00197923 0)
(1.31335 0.00704245 0)
(1.31482 0.0130521 0)
(1.31582 0.0172611 0)
(1.31602 0.0238261 0)
(0.999888 -0.00779356 0)
(0.999995 -0.0240924 0)
(0.999244 -0.0409146 0)
(0.99975 -0.0603706 0)
(0.998571 -0.0810745 0)
(1.00131 -0.107628 0)
(1.00116 -0.135505 0)
(1.01064 -0.174331 0)
(1.01743 -0.214068 0)
(1.04169 -0.268009 0)
(1.07305 -0.326054 0)
(1.1195 -0.378214 0)
(1.19389 -0.441219 0)
(1.29334 -0.478906 0)
(1.38568 -0.473553 0)
(1.44289 -0.438435 0)
(1.46047 -0.387996 0)
(1.44887 -0.33122 0)
(1.41818 -0.275062 0)
(1.37756 -0.223794 0)
(1.33253 -0.18089 0)
(1.28732 -0.14636 0)
(1.24562 -0.118433 0)
(1.20874 -0.0957511 0)
(1.17648 -0.0773786 0)
(1.14862 -0.0624814 0)
(1.12504 -0.0503096 0)
(1.10556 -0.0402521 0)
(1.08982 -0.0318268 0)
(1.07739 -0.0246407 0)
(1.06782 -0.0183602 0)
(1.06069 -0.0127203 0)
(1.05554 -0.00749298 0)
(1.05209 -0.00254975 0)
(1.04964 0.00224876 0)
(1.04799 0.00683925 0)
(1.04681 0.0111616 0)
(1.04587 0.0152329 0)
(1.0448 0.0189519 0)
(1.04333 0.0221689 0)
(1.04126 0.0247391 0)
(1.03849 0.0265298 0)
(1.03496 0.0274309 0)
(1.03067 0.0273681 0)
(1.02572 0.026318 0)
(1.02024 0.0243097 0)
(1.01444 0.021427 0)
(1.00855 0.0178004 0)
(1.00285 0.0136048 0)
(0.997631 0.00904627 0)
(0.9932 0.00443202 0)
(0.989753 0.000113093 0)
(0.987523 -0.00376077 0)
(0.986687 -0.00696399 0)
(0.987324 -0.00920356 0)
(0.989398 -0.0103049 0)
(0.992761 -0.010075 0)
(0.997362 -0.00848045 0)
(1.00254 -0.00550563 0)
(1.00886 -0.00120715 0)
(1.01434 0.00372731 0)
(1.02157 0.00995658 0)
(1.02507 0.014421 0)
(1.03274 0.0220544 0)
(0.999761 -0.00747433 0)
(0.999353 -0.0232362 0)
(0.996613 -0.0394311 0)
(0.995526 -0.0587488 0)
(0.989416 -0.0788645 0)
(0.990109 -0.106766 0)
(0.978982 -0.133856 0)
(0.988643 -0.179396 0)
(0.971566 -0.217545 0)
(1.00681 -0.29552 0)
(1.00152 -0.358045 0)
(1.07561 -0.4576 0)
(1.16752 -0.596447 0)
(1.25257 -0.623036 0)
(1.28137 -0.562008 0)
(1.24269 -0.468217 0)
(1.16195 -0.370185 0)
(1.0671 -0.280131 0)
(0.968989 -0.204413 0)
(0.878952 -0.143082 0)
(0.795855 -0.0994463 0)
(0.72604 -0.0693394 0)
(0.673777 -0.048401 0)
(0.636214 -0.0347655 0)
(0.609762 -0.0264966 0)
(0.59198 -0.0215646 0)
(0.581061 -0.0184554 0)
(0.575476 -0.0162599 0)
(0.57393 -0.0144559 0)
(0.575384 -0.0127157 0)
(0.57903 -0.0108222 0)
(0.584243 -0.00862994 0)
(0.590498 -0.00607407 0)
(0.597403 -0.00310849 0)
(0.604675 0.000272965 0)
(0.611847 0.00402781 0)
(0.61862 0.00818243 0)
(0.625055 0.0124645 0)
(0.630772 0.0166301 0)
(0.635529 0.0205011 0)
(0.639214 0.0238821 0)
(0.641785 0.0265727 0)
(0.643253 0.0283946 0)
(0.643704 0.0292053 0)
(0.643295 0.0289071 0)
(0.64224 0.0274547 0)
(0.640813 0.0248723 0)
(0.639316 0.0212498 0)
(0.638075 0.0167504 0)
(0.637403 0.0115906 0)
(0.637602 0.00606355 0)
(0.638824 0.000440061 0)
(0.641214 -0.00489272 0)
(0.644821 -0.00959569 0)
(0.649662 -0.0133021 0)
(0.655628 -0.01573 0)
(0.662517 -0.0166299 0)
(0.670285 -0.015906 0)
(0.678241 -0.0135355 0)
(0.68717 -0.00952135 0)
(0.694652 -0.00449072 0)
(0.704472 0.00217165 0)
(0.708872 0.00724599 0)
(0.719743 0.0165136 0)
(0.999686 -0.00681616 0)
(0.998574 -0.021161 0)
(0.994028 -0.0360602 0)
(0.990745 -0.0539021 0)
(0.980126 -0.0727859 0)
(0.977167 -0.0994607 0)
(0.955393 -0.125205 0)
(0.962048 -0.172339 0)
(0.915089 -0.206181 0)
(0.962287 -0.305155 0)
(0.864377 -0.345139 0)
(1.02892 -0.563961 0)
(0.976398 -0.718268 0)
(0.954398 -0.632895 0)
(0.843783 -0.476501 0)
(0.678979 -0.32427 0)
(0.521807 -0.199411 0)
(0.397141 -0.111021 0)
(0.301132 -0.057038 0)
(0.232752 -0.0201638 0)
(0.178789 -0.0150982 0)
(0.161619 -0.0221506 0)
(0.167636 -0.0274833 0)
(0.178031 -0.031293 0)
(0.189061 -0.0332871 0)
(0.19998 -0.033794 0)
(0.2104 -0.0332965 0)
(0.220229 -0.0321375 0)
(0.229555 -0.0304838 0)
(0.238505 -0.0283938 0)
(0.247169 -0.0258743 0)
(0.255585 -0.0229101 0)
(0.263745 -0.0194859 0)
(0.271603 -0.0155965 0)
(0.27917 -0.0112693 0)
(0.286359 -0.00643911 0)
(0.293063 -0.0011182 0)
(0.299158 0.00428803 0)
(0.30466 0.00956711 0)
(0.309524 0.0145773 0)
(0.313695 0.0190917 0)
(0.317181 0.0228574 0)
(0.320015 0.0256385 0)
(0.322281 0.0272364 0)
(0.324117 0.0275045 0)
(0.325678 0.0263703 0)
(0.327167 0.0238317 0)
(0.328763 0.0199719 0)
(0.330665 0.0149808 0)
(0.333044 0.00911406 0)
(0.336047 0.00270401 0)
(0.33969 -0.00389459 0)
(0.344064 -0.0102175 0)
(0.349169 -0.0158403 0)
(0.354977 -0.0203637 0)
(0.361383 -0.0234551 0)
(0.368253 -0.0248548 0)
(0.375508 -0.024417 0)
(0.382772 -0.0221308 0)
(0.390481 -0.0180315 0)
(0.396987 -0.0125538 0)
(0.405289 -0.00553727 0)
(0.408422 0.000794003 0)
(0.418179 0.0112463 0)
(0.999688 -0.00580085 0)
(0.997666 -0.017895 0)
(0.99181 -0.0307564 0)
(0.98558 -0.04581 0)
(0.972056 -0.0627212 0)
(0.962556 -0.0851834 0)
(0.93551 -0.10981 0)
(0.928536 -0.14937 0)
(0.869171 -0.184716 0)
(0.891865 -0.272235 0)
(0.724685 -0.301722 0)
(0.910723 -0.590772 0)
(0.33294 -0.394151 0)
(0.237228 -0.2382 0)
(0.117966 -0.178171 0)
(0.0548898 -0.13465 0)
(0.0292463 -0.0930811 0)
(0.0173955 -0.0607755 0)
(0.0110738 -0.0365135 0)
(0.00500348 -0.016107 0)
(0.00841088 -0.046614 0)
(0.0144941 -0.0597313 0)
(0.0266587 -0.058424 0)
(0.0322272 -0.0550014 0)
(0.0371882 -0.0505581 0)
(0.0415688 -0.0464138 0)
(0.0454847 -0.0428942 0)
(0.049044 -0.0398409 0)
(0.0523187 -0.0370065 0)
(0.055379 -0.0341876 0)
(0.0582815 -0.0312192 0)
(0.0610656 -0.0279613 0)
(0.0637515 -0.0243056 0)
(0.0663439 -0.0201839 0)
(0.068842 -0.0155613 0)
(0.0712078 -0.0104809 0)
(0.0734369 -0.00516711 0)
(0.075428 0.000375568 0)
(0.0773321 0.00598847 0)
(0.0791014 0.0113734 0)
(0.0806797 0.0162524 0)
(0.0820926 0.0203472 0)
(0.0833569 0.0233993 0)
(0.0845092 0.0251884 0)
(0.0856147 0.025546 0)
(0.0867306 0.0243803 0)
(0.0879359 0.0216886 0)
(0.0893088 0.0175815 0)
(0.0909673 0.0122358 0)
(0.0929402 0.00594849 0)
(0.0953147 -0.000964119 0)
(0.0981047 -0.00806141 0)
(0.101373 -0.0148826 0)
(0.105098 -0.0209701 0)
(0.109254 -0.0258859 0)
(0.113752 -0.0292609 0)
(0.118476 -0.0308213 0)
(0.123379 -0.0304251 0)
(0.12831 -0.0280709 0)
(0.133376 -0.023791 0)
(0.138034 -0.0179216 0)
(0.143324 -0.0104172 0)
(0.145881 -0.00253029 0)
(0.154384 0.00702593 0)
(0.99969 -0.0044273 0)
(0.996874 -0.0136222 0)
(0.989898 -0.0235435 0)
(0.981058 -0.0349966 0)
(0.965127 -0.0484206 0)
(0.949468 -0.0653376 0)
(0.918937 -0.0861839 0)
(0.896699 -0.11437 0)
(0.83617 -0.149538 0)
(0.815037 -0.201746 0)
(0.672816 -0.257539 0)
(0.734357 -0.384754 0)
(0.311753 -0.266848 0)
(0.300109 -0.253753 0)
(0.20775 -0.229934 0)
(0.1289 -0.179014 0)
(0.078411 -0.122562 0)
(0.0467611 -0.0762644 0)
(0.0290007 -0.042777 0)
(0.0141701 -0.0164873 0)
(0.0207875 -0.0401984 0)
(-0.00403874 -0.0536902 0)
(-0.00633632 -0.0526164 0)
(-0.0161625 -0.0497941 0)
(-0.0233796 -0.0464968 0)
(-0.0300657 -0.0434046 0)
(-0.0361995 -0.0406068 0)
(-0.041805 -0.0380297 0)
(-0.0469322 -0.0355414 0)
(-0.0516308 -0.0329951 0)
(-0.0559404 -0.0302474 0)
(-0.0598951 -0.0271699 0)
(-0.0635265 -0.0236645 0)
(-0.0668663 -0.0196745 0)
(-0.0699453 -0.0151921 0)
(-0.0727716 -0.0102579 0)
(-0.0753632 -0.00496423 0)
(-0.0777615 0.000627931 0)
(-0.0799312 0.00623613 0)
(-0.0819465 0.0115936 0)
(-0.0837929 0.0164381 0)
(-0.0854745 0.0204895 0)
(-0.0869983 0.0234814 0)
(-0.088367 0.025185 0)
(-0.0895697 0.0254215 0)
(-0.0905688 0.0240922 0)
(-0.091361 0.0212109 0)
(-0.0919161 0.0168663 0)
(-0.0921438 0.0112132 0)
(-0.0920471 0.0045725 0)
(-0.0915649 -0.0027069 0)
(-0.0906621 -0.0101964 0)
(-0.089332 -0.0174146 0)
(-0.0875959 -0.023856 0)
(-0.0855072 -0.029038 0)
(-0.083163 -0.0325645 0)
(-0.0806303 -0.0341864 0)
(-0.0778958 -0.0338142 0)
(-0.0749348 -0.0314949 0)
(-0.0715847 -0.02733 0)
(-0.0679037 -0.0215036 0)
(-0.0638574 -0.014199 0)
(-0.0598384 -0.00653421 0)
(-0.0541309 0.00018131 0)
(0.999657 -0.00276859 0)
(0.996365 -0.00855474 0)
(0.988348 -0.0147618 0)
(0.977984 -0.0220648 0)
(0.959477 -0.0304413 0)
(0.940779 -0.0415145 0)
(0.90468 -0.0542769 0)
(0.877388 -0.07349 0)
(0.805046 -0.0933657 0)
(0.778956 -0.130227 0)
(0.615611 -0.153008 0)
(0.684256 -0.238666 0)
(0.291071 -0.144229 0)
(0.300292 -0.112594 0)
(0.215843 -0.0966831 0)
(0.140297 -0.0780097 0)
(0.090054 -0.0570781 0)
(0.0568309 -0.0378869 0)
(0.0381038 -0.0220802 0)
(0.0202932 -0.00795778 0)
(0.0337395 -0.0258745 0)
(-0.00447641 -0.0373503 0)
(-0.0163223 -0.0381554 0)
(-0.036953 -0.0363459 0)
(-0.0536816 -0.0341549 0)
(-0.0689548 -0.032135 0)
(-0.0828751 -0.0303198 0)
(-0.0955779 -0.0286247 0)
(-0.107199 -0.0269234 0)
(-0.117872 -0.0250781 0)
(-0.127707 -0.0229574 0)
(-0.136797 -0.0204449 0)
(-0.145222 -0.0174514 0)
(-0.153046 -0.0139253 0)
(-0.160312 -0.00985257 0)
(-0.167056 -0.0052675 0)
(-0.173273 -0.000263437 0)
(-0.179029 0.00497743 0)
(-0.184407 0.0102199 0)
(-0.189395 0.0152503 0)
(-0.194002 0.0197918 0)
(-0.198248 0.0235585 0)
(-0.20215 0.026274 0)
(-0.205724 0.0276999 0)
(-0.208984 0.0276626 0)
(-0.211902 0.0260609 0)
(-0.214489 0.0228814 0)
(-0.216734 0.0181925 0)
(-0.218586 0.012189 0)
(-0.220001 0.00513023 0)
(-0.220992 -0.00259242 0)
(-0.221552 -0.0105268 0)
(-0.221669 -0.0181589 0)
(-0.221385 -0.0249402 0)
(-0.220763 -0.0303682 0)
(-0.21986 -0.0340752 0)
(-0.218672 -0.0358958 0)
(-0.217112 -0.0358689 0)
(-0.215046 -0.0341384 0)
(-0.212363 -0.0307623 0)
(-0.209173 -0.0255946 0)
(-0.205815 -0.0184093 0)
(-0.202886 -0.00966748 0)
(-0.20128 -0.00149553 0)
(0.999649 -0.000947963 0)
(0.996074 -0.00291874 0)
(0.987566 -0.00506398 0)
(0.97627 -0.00754283 0)
(0.956627 -0.010488 0)
(0.935861 -0.0141972 0)
(0.897723 -0.0188135 0)
(0.866225 -0.0250399 0)
(0.791225 -0.0325193 0)
(0.757666 -0.0436721 0)
(0.59429 -0.0529173 0)
(0.65301 -0.0780675 0)
(0.274209 -0.0454457 0)
(0.293916 -0.0416242 0)
(0.219629 -0.0402936 0)
(0.149345 -0.0333617 0)
(0.0994884 -0.0240086 0)
(0.0646287 -0.0154866 0)
(0.044586 -0.00881183 0)
(0.0244391 -0.00319123 0)
(0.0421969 -0.0102559 0)
(-0.00324308 -0.0148647 0)
(-0.020062 -0.0155454 0)
(-0.0463838 -0.0152651 0)
(-0.0681976 -0.0149115 0)
(-0.0880428 -0.0146353 0)
(-0.106099 -0.0143878 0)
(-0.122571 -0.0140742 0)
(-0.13764 -0.013583 0)
(-0.151482 -0.0127989 0)
(-0.164241 -0.0116116 0)
(-0.176035 -0.00992913 0)
(-0.186963 -0.00767959 0)
(-0.197102 -0.0048224 0)
(-0.206505 -0.00136415 0)
(-0.215206 0.00263948 0)
(-0.223274 0.00708929 0)
(-0.230771 0.0117588 0)
(-0.237712 0.0164905 0)
(-0.244125 0.0210406 0)
(-0.250034 0.0251309 0)
(-0.255465 0.0284711 0)
(-0.260439 0.0307793 0)
(-0.264969 0.0318129 0)
(-0.269078 0.0313926 0)
(-0.272773 0.0294073 0)
(-0.276069 0.0258261 0)
(-0.278944 0.0207257 0)
(-0.2814 0.0142983 0)
(-0.28342 0.00679403 0)
(-0.284999 -0.00140837 0)
(-0.286166 -0.00979829 0)
(-0.286933 -0.0178453 0)
(-0.287307 -0.0249841 0)
(-0.287318 -0.0307242 0)
(-0.286991 -0.034746 0)
(-0.286328 -0.0369559 0)
(-0.285306 -0.0374396 0)
(-0.283897 -0.0362801 0)
(-0.282123 -0.0333175 0)
(-0.280128 -0.028077 0)
(-0.278206 -0.0201758 0)
(-0.276792 -0.0103848 0)
(-0.276284 -0.00166368 0)
(0.999649 0.000941469 0)
(0.996074 0.00288812 0)
(0.987566 0.00499935 0)
(0.97627 0.00743624 0)
(0.956626 0.0103327 0)
(0.935859 0.0139885 0)
(0.897721 0.0185482 0)
(0.866222 0.0247157 0)
(0.79122 0.0321397 0)
(0.757662 0.0432304 0)
(0.594284 0.0524514 0)
(0.653009 0.077489 0)
(0.274207 0.0451712 0)
(0.293919 0.0414632 0)
(0.219634 0.0401569 0)
(0.149349 0.0332269 0)
(0.0994897 0.0238643 0)
(0.0646253 0.0153187 0)
(0.0445641 0.00859974 0)
(0.0244278 0.00273249 0)
(0.0419975 0.00668229 0)
(-0.00364857 0.0100735 0)
(-0.0205814 0.00981897 0)
(-0.0469996 0.0084014 0)
(-0.0689122 0.00668348 0)
(-0.0888303 0.00500391 0)
(-0.106936 0.00349434 0)
(-0.123435 0.0022565 0)
(-0.13851 0.00138531 0)
(-0.152333 0.000971895 0)
(-0.165051 0.00110076 0)
(-0.176781 0.00183918 0)
(-0.187611 0.003235 0)
(-0.197619 0.00530683 0)
(-0.20686 0.00803026 0)
(-0.215378 0.0113347 0)
(-0.223221 0.015086 0)
(-0.230432 0.0191398 0)
(-0.237039 0.0232902 0)
(-0.243067 0.0272876 0)
(-0.248543 0.0308522 0)
(-0.2535 0.0336929 0)
(-0.257964 0.0355293 0)
(-0.261955 0.036112 0)
(-0.265506 0.0352505 0)
(-0.268633 0.0328318 0)
(-0.271346 0.0288289 0)
(-0.273658 0.0233243 0)
(-0.275588 0.0164853 0)
(-0.277164 0.00858475 0)
(-0.278388 -6.32828e-06 0)
(-0.279277 -0.00880758 0)
(-0.279853 -0.0172556 0)
(-0.280083 -0.0247814 0)
(-0.279954 -0.0308865 0)
(-0.279478 -0.0352373 0)
(-0.278703 -0.0377285 0)
(-0.277722 -0.038444 0)
(-0.276632 -0.0374704 0)
(-0.275464 -0.034642 0)
(-0.274138 -0.029451 0)
(-0.27257 -0.0214621 0)
(-0.270904 -0.0113496 0)
(-0.269697 -0.00199963 0)
(0.999657 0.00276208 0)
(0.996365 0.00852417 0)
(0.988348 0.0146975 0)
(0.977983 0.0219587 0)
(0.959475 0.0302871 0)
(0.940775 0.0413067 0)
(0.904674 0.0540139 0)
(0.877378 0.0731661 0)
(0.805037 0.0929913 0)
(0.778938 0.129782 0)
(0.615601 0.152553 0)
(0.684241 0.238076 0)
(0.291058 0.143944 0)
(0.300297 0.112437 0)
(0.215859 0.0965546 0)
(0.140312 0.0778842 0)
(0.090061 0.0569461 0)
(0.0568255 0.0377405 0)
(0.0380528 0.0219094 0)
(0.020271 0.0076016 0)
(0.0331788 0.0226607 0)
(-0.00566195 0.0328722 0)
(-0.017858 0.0326766 0)
(-0.0387948 0.0296869 0)
(-0.055832 0.0260915 0)
(-0.0713344 0.0226272 0)
(-0.0854129 0.0195057 0)
(-0.0982059 0.0168399 0)
(-0.109851 0.0147123 0)
(-0.120481 0.0131887 0)
(-0.130202 0.0123252 0)
(-0.139101 0.0121683 0)
(-0.147243 0.0127447 0)
(-0.154681 0.0140514 0)
(-0.161452 0.0160543 0)
(-0.167589 0.0186749 0)
(-0.173121 0.021788 0)
(-0.178076 0.0252332 0)
(-0.182474 0.028803 0)
(-0.186339 0.0322488 0)
(-0.189694 0.035291 0)
(-0.192569 0.0376382 0)
(-0.194994 0.0390115 0)
(-0.196992 0.0391614 0)
(-0.198602 0.0378936 0)
(-0.199855 0.0351 0)
(-0.200746 0.0307495 0)
(-0.201327 0.0249007 0)
(-0.201638 0.0177304 0)
(-0.201721 0.00953845 0)
(-0.20161 0.000678383 0)
(-0.201305 -0.00841223 0)
(-0.200837 -0.0171657 0)
(-0.200187 -0.0250335 0)
(-0.199312 -0.0315039 0)
(-0.198175 -0.0361866 0)
(-0.196784 -0.038889 0)
(-0.195239 -0.0396381 0)
(-0.193698 -0.0385641 0)
(-0.19225 -0.0356942 0)
(-0.19077 -0.0307532 0)
(-0.188866 -0.0233148 0)
(-0.186225 -0.0134848 0)
(-0.183377 -0.0031437 0)
(0.99969 0.00442075 0)
(0.996874 0.0135918 0)
(0.989897 0.0234799 0)
(0.981056 0.0348916 0)
(0.965123 0.0482683 0)
(0.949461 0.0651322 0)
(0.918926 0.0859237 0)
(0.896685 0.11405 0)
(0.836146 0.149165 0)
(0.81502 0.201309 0)
(0.672774 0.257073 0)
(0.734369 0.384192 0)
(0.311746 0.266531 0)
(0.300115 0.253541 0)
(0.207768 0.229774 0)
(0.128923 0.178885 0)
(0.0784272 0.122438 0)
(0.0467657 0.0761309 0)
(0.0289527 0.0426441 0)
(0.0141613 0.0163423 0)
(0.0200038 0.0376562 0)
(-0.00582457 0.0498435 0)
(-0.00872719 0.0476978 0)
(-0.0190985 0.0435746 0)
(-0.0268775 0.0387953 0)
(-0.0340047 0.0341729 0)
(-0.0404771 0.0299759 0)
(-0.0463168 0.0263392 0)
(-0.0515745 0.0233426 0)
(-0.0562972 0.0210362 0)
(-0.060516 0.0194575 0)
(-0.064251 0.0186355 0)
(-0.0675143 0.0185836 0)
(-0.070314 0.0192919 0)
(-0.0726563 0.0207192 0)
(-0.074547 0.0227847 0)
(-0.0759927 0.0253649 0)
(-0.0770009 0.0282949 0)
(-0.0775795 0.0313672 0)
(-0.0777421 0.0343367 0)
(-0.0775053 0.0369308 0)
(-0.0768887 0.0388633 0)
(-0.0759201 0.0398549 0)
(-0.0746249 0.0396585 0)
(-0.0730381 0.0380767 0)
(-0.0712099 0.0349944 0)
(-0.0691513 0.030397 0)
(-0.0669452 0.0243398 0)
(-0.0645847 0.0169908 0)
(-0.0621718 0.00863302 0)
(-0.0597747 -0.00035522 0)
(-0.0573841 -0.00950901 0)
(-0.0550534 -0.0183255 0)
(-0.0528209 -0.0262976 0)
(-0.0506648 -0.0329442 0)
(-0.048532 -0.0378715 0)
(-0.046374 -0.0408121 0)
(-0.0441567 -0.0416823 0)
(-0.0419537 -0.0405273 0)
(-0.0397668 -0.037478 0)
(-0.0376461 -0.0325789 0)
(-0.0351437 -0.0257844 0)
(-0.0317978 -0.0169902 0)
(-0.0269128 -0.00616852 0)
(0.999688 0.00579422 0)
(0.997666 0.0178649 0)
(0.991809 0.0306936 0)
(0.985578 0.0457072 0)
(0.972049 0.0625713 0)
(0.962548 0.0849826 0)
(0.935491 0.109553 0)
(0.92852 0.149057 0)
(0.869134 0.184344 0)
(0.891847 0.271802 0)
(0.724634 0.301264 0)
(0.910702 0.590171 0)
(0.332962 0.393902 0)
(0.237303 0.238067 0)
(0.118055 0.17804 0)
(0.0549593 0.134518 0)
(0.0292989 0.092949 0)
(0.0174471 0.0606619 0)
(0.011147 0.0364566 0)
(0.00511869 0.0161471 0)
(0.0083846 0.0448544 0)
(0.0132352 0.0567146 0)
(0.0243997 0.0542309 0)
(0.0290631 0.0493886 0)
(0.0331392 0.0433677 0)
(0.0366736 0.0376164 0)
(0.0398061 0.0326406 0)
(0.0426499 0.0284663 0)
(0.0452811 0.0250421 0)
(0.0477909 0.0223658 0)
(0.0502677 0.0204498 0)