/*--------------------------------*- C++ -*----------------------------------*\
  =========                 |
  \\      /  F ield         | OpenFOAM: The Open Source CFD Toolbox
   \\    /   O peration     | Website:  https://openfoam.org
    \\  /    A nd           | Version:  10
     \\/     M anipulation  |
\*---------------------------------------------------------------------------*/
FoamFile
{
    format      ascii;
    class       surfaceScalarField;
    location    "2.9";
    object      phi;
}
// * * * * * * * * * * * * * * * * * * * * * * * * * * * * * * * * * * * * * //

dimensions      [0 3 -1 0 0 0 0];

internalField   nonuniform List<scalar> 
24170
(
-1.63985e-12
1.63985e-12
-3.67938e-12
2.03952e-12
-6.58635e-12
2.90698e-12
-1.09149e-11
4.32858e-12
-1.73736e-11
6.45871e-12
-2.6884e-11
9.51038e-12
-4.063e-11
1.3746e-11
-6.0092e-11
1.9462e-11
-8.7057e-11
2.6965e-11
-1.23597e-10
3.65399e-11
-1.72019e-10
4.84224e-11
-2.34832e-10
6.28129e-11
-3.14847e-10
8.00149e-11
-4.15752e-10
1.00905e-10
-5.44096e-10
1.28344e-10
-7.16024e-10
1.71929e-10
-9.85411e-10
2.69386e-10
6.24411e-10
-1.60982e-09
-1.73528e-12
3.37513e-12
-3.89416e-12
4.1984e-12
-6.97241e-12
5.98522e-12
-1.15575e-11
8.91367e-12
-1.8401e-11
1.33022e-11
-2.84813e-11
1.95907e-11
-4.30568e-11
2.83214e-11
-6.37033e-11
4.01085e-11
-9.23261e-11
5.55878e-11
-1.31137e-10
7.53508e-11
-1.82599e-10
9.98844e-11
-2.49372e-10
1.29586e-10
-3.34376e-10
1.65019e-10
-4.41243e-10
2.07772e-10
-5.75842e-10
2.62943e-10
-7.50442e-10
3.46528e-10
-9.91566e-10
5.10511e-10
9.32644e-10
-1.2998e-09
-1.80713e-12
5.18226e-12
-4.05702e-12
6.4483e-12
-7.26776e-12
9.19596e-12
-1.20537e-11
1.36996e-11
-1.9202e-11
2.04505e-11
-2.97389e-11
3.01276e-11
-4.49882e-11
4.35707e-11
-6.66128e-11
6.17331e-11
-9.6631e-11
8.5606e-11
-1.37393e-10
1.16113e-10
-1.91516e-10
1.54007e-10
-2.61794e-10
1.99864e-10
-3.51154e-10
2.54379e-10
-4.62835e-10
3.19452e-10
-6.00965e-10
4.01074e-10
-7.71069e-10
5.16632e-10
-9.73001e-10
7.12443e-10
1.0922e-09
-1.13256e-09
-1.84377e-12
7.02603e-12
-4.14221e-12
8.74674e-12
-7.42712e-12
1.24809e-11
-1.233e-11
1.86025e-11
-1.96614e-11
2.77819e-11
-3.04822e-11
4.09484e-11
-4.6166e-11
5.92546e-11
-6.84489e-11
8.4016e-11
-9.94508e-11
1.16608e-10
-1.41656e-10
1.58319e-10
-1.97835e-10
2.10186e-10
-2.709e-10
2.72928e-10
-3.63711e-10
3.47191e-10
-4.7884e-10
4.34581e-10
-6.18062e-10
5.40295e-10
-7.79942e-10
6.78512e-10
-9.4775e-10
8.80251e-10
1.1882e-09
-1.04374e-09
-1.83085e-12
8.85688e-12
-4.11796e-12
1.10339e-11
-7.39463e-12
1.57575e-11
-1.22952e-11
2.35031e-11
-1.96369e-11
3.51235e-11
-3.04941e-11
5.18056e-11
-4.62681e-11
7.50286e-11
-6.87446e-11
1.06492e-10
-1.00127e-10
1.47991e-10
-1.43025e-10
2.01217e-10
-2.00365e-10
2.67526e-10
-2.75186e-10
3.47749e-10
-3.70263e-10
4.42268e-10
-4.87424e-10
5.51742e-10
-6.26099e-10
6.7897e-10
-7.79485e-10
8.31898e-10
-9.23969e-10
1.02474e-09
1.26328e-09
-9.99053e-10
-1.75127e-12
1.06081e-11
-3.9464e-12
1.3229e-11
-7.10348e-12
1.89146e-11
-1.18405e-11
2.82401e-11
-1.89571e-11
4.22402e-11
-2.95128e-11
6.23612e-11
-4.49028e-11
9.04186e-11
-6.69285e-11
1.28518e-10
-9.78475e-11
1.7891e-10
-1.40379e-10
2.43748e-10
-1.97616e-10
3.24764e-10
-2.72774e-10
4.22907e-10
-3.68637e-10
5.38131e-10
-4.86486e-10
6.6959e-10
-6.24025e-10
8.16509e-10
-7.71389e-10
9.79262e-10
-9.04387e-10
1.15773e-09
1.33947e-09
-9.80578e-10
-1.5854e-12
1.21936e-11
-3.58401e-12
1.52276e-11
-6.47692e-12
2.18075e-11
-1.08401e-11
3.26033e-11
-1.74239e-11
4.8824e-11
-2.72329e-11
7.21703e-11
-4.16102e-11
1.04796e-10
-6.2322e-11
1.4923e-10
-9.16341e-11
2.08222e-10
-1.32349e-10
2.84463e-10
-1.87749e-10
3.80163e-10
-2.61326e-10
4.96485e-10
-3.56124e-10
6.32929e-10
-4.73394e-10
7.8686e-10
-6.10217e-10
9.53332e-10
-7.55948e-10
1.12499e-09
-8.88805e-10
1.29059e-09
1.42977e-09
-9.79106e-10
-1.31186e-12
1.35054e-11
-2.98333e-12
1.68991e-11
-5.43106e-12
2.42553e-11
-9.15627e-12
3.63285e-11
-1.48185e-11
5.44862e-11
-2.33152e-11
8.06669e-11
-3.58727e-11
1.17353e-10
-5.41504e-11
1.67508e-10
-8.03508e-11
2.34422e-10
-1.17314e-10
3.21426e-10
-1.68527e-10
4.31376e-10
-2.37925e-10
5.65883e-10
-3.29232e-10
7.24237e-10
-4.44527e-10
9.02154e-10
-5.81751e-10
1.09056e-09
-7.31506e-10
1.27475e-09
-8.75241e-10
1.43433e-09
1.54453e-09
-9.89995e-10
-9.0902e-13
1.44144e-11
-2.0964e-12
1.80864e-11
-3.88092e-12
2.60398e-11
-6.64893e-12
3.90965e-11
-1.09169e-11
5.87542e-11
-1.74071e-11
8.71571e-11
-2.71438e-11
1.2709e-10
-4.15769e-11
1.81941e-10
-6.27368e-11
2.55582e-10
-9.34104e-11
3.52099e-10
-1.37285e-10
4.75251e-10
-1.98928e-10
6.27525e-10
-2.8332e-10
8.08629e-10
-3.94564e-10
1.0134e-09
-5.3337e-10
1.22936e-09
-6.93622e-10
1.435e-09
-8.60028e-10
1.60073e-09
1.69555e-09
-1.01105e-09
-3.57692e-13
1.47721e-11
-8.80576e-13
1.86093e-11
-1.75084e-12
2.691e-11
-3.19249e-12
4.05382e-11
-5.51577e-12
6.10775e-11
-9.18258e-12
9.08239e-11
-1.49036e-11
1.32811e-10
-2.37775e-11
1.90815e-10
-3.74948e-11
2.69299e-10
-5.86228e-11
3.73227e-10
-9.09538e-11
5.07582e-10
-1.39819e-10
6.76389e-10
-2.121e-10
8.80911e-10
-3.15431e-10
1.11673e-09
-4.55842e-10
1.36977e-09
-6.33385e-10
1.61254e-09
-8.36794e-10
1.80414e-09
1.90024e-09
-1.04149e-09
3.54816e-13
1.44173e-11
6.92295e-13
1.82718e-11
1.00925e-12
2.65931e-11
1.29695e-12
4.02505e-11
1.52455e-12
6.08499e-11
1.59263e-12
9.07558e-11
1.24452e-12
1.33159e-10
-7.62356e-14
1.92135e-10
-3.47015e-12
2.72693e-10
-1.09842e-11
3.80741e-10
-2.62247e-11
5.22823e-10
-5.51823e-11
7.05347e-10
-1.071e-10
9.32828e-10
-1.94807e-10
1.20444e-09
-3.33209e-10
1.50818e-09
-5.33792e-10
1.81313e-09
-7.93475e-10
2.06382e-09
2.18825e-09
-1.08148e-09
9.73191e-13
1.34441e-11
2.07231e-12
1.71727e-11
3.4654e-12
2.52e-11
5.35274e-12
3.83631e-11
7.98436e-12
5.82183e-11
1.16449e-11
8.70952e-11
1.65957e-11
1.28208e-10
2.29726e-11
1.85759e-10
3.05754e-11
2.6509e-10
3.84629e-11
3.72854e-10
4.42319e-11
5.17054e-10
4.2833e-11
7.06746e-10
2.48455e-11
9.50816e-10
-2.55024e-11
1.25478e-09
-1.31199e-10
1.61387e-09
-3.18532e-10
2.00046e-09
-6.01795e-10
2.34709e-09
2.53905e-09
-9.52597e-10
1.99298e-12
1.14511e-11
4.31386e-12
1.48518e-11
7.37854e-12
2.21353e-11
1.16904e-11
3.40512e-11
1.79091e-11
5.19996e-11
2.68727e-11
7.81316e-11
3.95615e-11
1.1552e-10
5.70363e-11
1.68284e-10
8.02447e-11
2.41882e-10
1.09561e-10
3.43538e-10
1.43824e-10
4.82791e-10
1.78488e-10
6.72082e-10
2.02332e-10
9.26972e-10
1.92292e-10
1.26482e-09
1.07209e-10
1.69895e-09
-1.14207e-10
2.22188e-09
-5.34392e-10
2.76727e-09
3.14772e-09
-1.14306e-09
3.51361e-12
7.93753e-12
7.66011e-12
1.07053e-11
1.32286e-11
1.65668e-11
2.11804e-11
2.60994e-11
3.28155e-11
4.03645e-11
4.98717e-11
6.10754e-11
7.45258e-11
9.08656e-11
1.09471e-10
1.33338e-10
1.57881e-10
1.93472e-10
2.23107e-10
2.78311e-10
3.07797e-10
3.98101e-10
4.11724e-10
5.68155e-10
5.26923e-10
8.11774e-10
6.27544e-10
1.1642e-09
6.50636e-10
1.67586e-09
4.66315e-10
2.4062e-09
-1.42756e-10
3.37634e-09
4.37586e-09
-1.3709e-09
5.5713e-12
2.36623e-12
1.2187e-11
4.08958e-12
2.11367e-11
7.61714e-12
3.39828e-11
1.32534e-11
5.29191e-11
2.14282e-11
8.10275e-11
3.2967e-11
1.22249e-10
4.96443e-11
1.81822e-10
7.37653e-11
2.66677e-10
1.08616e-10
3.85846e-10
1.59143e-10
5.50716e-10
2.33231e-10
7.74601e-10
3.4427e-10
1.0699e-09
5.16475e-10
1.43779e-09
7.9631e-10
1.83582e-09
1.27784e-09
2.08139e-09
2.16062e-09
1.57236e-09
3.88537e-09
7.458e-09
-1.50978e-09
7.91948e-12
-5.55325e-12
1.7341e-11
-5.33192e-12
3.01051e-11
-5.14695e-12
4.83234e-11
-4.96489e-12
7.51663e-11
-5.41477e-12
1.1556e-10
-7.42646e-12
1.75444e-10
-1.02396e-11
2.6315e-10
-1.39408e-11
3.90451e-10
-1.86851e-11
5.74339e-10
-2.47449e-11
8.40128e-10
-3.25583e-11
1.22721e-09
-4.28113e-11
1.80027e-09
-5.65821e-11
2.67217e-09
-7.55945e-11
4.05268e-09
-1.0267e-10
6.35585e-09
-1.42547e-10
1.04447e-08
-2.03431e-10
-3.00196e-10
1.82029e-08
2.97766e-07
2.01648e-07
2.32368e-07
6.53931e-08
2.08979e-07
2.33843e-08
2.01165e-07
7.80889e-09
2.00579e-07
5.80339e-10
2.02193e-07
-1.62198e-09
2.05348e-07
-3.16477e-09
2.09857e-07
-4.52268e-09
2.15628e-07
-5.78981e-09
2.22665e-07
-7.06206e-09
2.31063e-07
-8.43038e-09
2.4101e-07
-9.98938e-09
2.52804e-07
-1.1851e-08
2.6689e-07
-1.41619e-08
2.83914e-07
-1.71268e-08
3.04811e-07
-2.10387e-08
3.30918e-07
-2.63111e-08
-3.34895e-08
3.64107e-07
1.01444e-07
1.00204e-07
1.07939e-07
5.8898e-08
9.90039e-08
3.23194e-08
8.96292e-08
1.71836e-08
8.17552e-08
8.4543e-09
7.68391e-08
3.29417e-09
7.37875e-08
-1.13193e-10
7.16201e-08
-2.35534e-09
7.00584e-08
-4.22804e-09
6.89097e-08
-5.91335e-09
6.80018e-08
-7.52257e-09
6.71372e-08
-9.12472e-09
6.60422e-08
-1.0756e-08
6.42973e-08
-1.2417e-08
6.123e-08
-1.40595e-08
5.57517e-08
-1.55604e-08
4.61209e-08
-1.66804e-08
-1.70058e-08
2.96372e-08
4.77025e-08
5.25017e-08
6.80961e-08
3.85044e-08
7.4574e-08
2.58415e-08
7.53289e-08
1.64287e-08
7.39849e-08
9.79831e-09
7.21442e-08
5.13491e-09
7.02868e-08
1.74419e-09
6.86848e-08
-7.53315e-10
6.70803e-08
-2.62352e-09
6.53573e-08
-4.19036e-09
6.33736e-08
-5.53886e-09
6.09616e-08
-6.71274e-09
5.79304e-08
-7.72473e-09
5.4076e-08
-8.56264e-09
4.92105e-08
-9.19397e-09
4.32219e-08
-9.57181e-09
3.61865e-08
-9.64498e-09
-9.37638e-09
2.85571e-08
1.88959e-08
3.36058e-08
3.06716e-08
2.67287e-08
3.69846e-08
1.95286e-08
3.99907e-08
1.34225e-08
4.11494e-08
8.63964e-09
4.12994e-08
4.98492e-09
4.08626e-08
2.18101e-09
4.01148e-08
-5.55463e-12
3.90829e-08
-1.59162e-09
3.77835e-08
-2.89098e-09
3.62072e-08
-3.96255e-09
3.43335e-08
-4.83902e-09
3.21431e-08
-5.53434e-09
2.96305e-08
-6.05003e-09
2.68175e-08
-6.38103e-09
2.37677e-08
-6.52199e-09
2.05966e-08
-6.47384e-09
-6.25025e-09
1.74704e-08
1.0839e-08
2.27669e-08
1.86891e-08
1.88785e-08
2.37417e-08
1.44761e-08
2.67321e-08
1.0432e-08
2.83318e-08
7.03994e-09
2.90133e-08
4.30351e-09
2.90715e-08
2.12281e-09
2.86822e-08
3.83715e-10
2.80105e-08
-9.19938e-10
2.70683e-08
-1.94883e-09
2.58849e-08
-2.77913e-09
2.44823e-08
-3.43642e-09
2.28836e-08
-3.93564e-09
2.11191e-08
-4.28554e-09
1.92309e-08
-4.49279e-09
1.72744e-08
-4.56549e-09
1.53165e-08
-4.51592e-09
-4.36204e-09
1.34283e-08
6.87947e-09
1.58874e-08
1.22611e-08
1.34969e-08
1.60735e-08
1.06636e-08
1.85795e-08
7.92601e-09
2.00962e-08
5.52329e-09
2.08874e-08
3.51225e-09
2.11443e-08
1.8659e-09
2.09969e-08
5.3111e-10
2.0576e-08
-4.98966e-10
1.99219e-08
-1.29474e-09
1.90737e-08
-1.93096e-09
1.80644e-08
-2.42709e-09
1.69254e-08
-2.79664e-09
1.56898e-08
-3.04995e-09
1.43936e-08
-3.19658e-09
1.30752e-08
-3.24712e-09
1.17735e-08
-3.2142e-09
-3.1127e-09
1.05242e-08
4.66631e-09
1.12211e-08
8.48289e-09
9.68034e-09
1.13456e-08
7.8009e-09
1.33482e-08
5.92345e-09
1.46474e-08
4.22408e-09
1.53951e-08
2.76456e-09
1.5715e-08
1.54599e-09
1.57014e-08
5.44729e-10
1.54488e-08
-2.46409e-10
1.50039e-08
-8.49808e-10
1.4404e-08
-1.33109e-09
1.36814e-08
-1.7045e-09
1.28658e-08
-1.98101e-09
1.19857e-08
-2.16985e-09
1.10691e-08
-2.27995e-09
1.01427e-08
-2.32077e-09
9.23125e-09
-2.30274e-09
-2.23713e-09
8.35568e-09
3.31227e-09
7.90882e-09
6.09836e-09
6.89425e-09
8.26651e-09
5.63276e-09
9.84624e-09
4.34372e-09
1.09188e-08
3.15153e-09
1.15749e-08
2.10843e-09
1.18964e-08
1.22453e-09
1.19508e-08
4.90281e-10
1.18058e-08
-1.0142e-10
1.15049e-08
-5.4884e-10
1.108e-08
-9.0624e-10
1.05592e-08
-1.18366e-09
9.96748e-09
-1.38931e-09
9.32812e-09
-1.53049e-09
8.66255e-09
-1.61437e-09
7.99019e-09
-1.64841e-09
7.32797e-09
-1.64052e-09
-1.59892e-09
6.68976e-09
2.42556e-09
5.48326e-09
4.50441e-09
4.8154e-09
6.16329e-09
3.97388e-09
7.40676e-09
3.10025e-09
8.27861e-09
2.27968e-09
8.83524e-09
1.55181e-09
9.13187e-09
9.27901e-10
9.21729e-09
4.04859e-10
9.1397e-09
-2.38291e-11
8.93644e-09
-3.45583e-10
8.63375e-09
-6.03549e-10
8.25455e-09
-8.04464e-10
7.81933e-09
-9.54089e-10
7.34656e-09
-1.05773e-09
6.85284e-09
-1.12064e-09
6.35272e-09
-1.1483e-09
5.85859e-09
-1.14639e-09
-1.12071e-09
5.38038e-09
1.81238e-09
3.67088e-09
3.38629e-09
3.24149e-09
4.66487e-09
2.69529e-09
5.64335e-09
2.12177e-09
6.34608e-09
1.57694e-09
6.8093e-09
1.08859e-09
7.07107e-09
6.66127e-10
7.1668e-09
3.0913e-10
7.13018e-09
1.27945e-11
6.99363e-09
-2.09038e-10
6.77698e-09
-3.86894e-10
6.49864e-09
-5.26129e-10
6.17503e-09
-6.30478e-10
5.82078e-09
-7.03478e-10
5.44885e-09
-7.48705e-10
5.07044e-09
-7.69892e-10
4.69498e-09
-7.70925e-10
-7.55737e-10
4.33e-09
1.36812e-09
2.30277e-09
2.56768e-09
2.04194e-09
3.55513e-09
1.70783e-09
4.32281e-09
1.35409e-09
4.88459e-09
1.01516e-09
5.26432e-09
7.08862e-10
5.48857e-09
4.41877e-10
5.583e-09
2.14697e-10
5.57087e-09
2.49246e-11
5.47978e-09
-1.17949e-10
5.32456e-09
-2.31668e-10
5.11957e-09
-3.21145e-10
4.87769e-09
-3.88593e-10
4.6104e-09
-4.36189e-10
4.32787e-09
-4.66179e-10
4.03891e-09
-4.8093e-10
3.7509e-09
-4.82913e-10
-4.74614e-10
3.46978e-09
1.03139e-09
1.27137e-09
1.9423e-09
1.13103e-09
2.69981e-09
9.50324e-10
3.29611e-09
7.57796e-10
3.73918e-09
5.72092e-10
4.0449e-09
4.03142e-10
4.23186e-09
2.54922e-10
4.31853e-09
1.28017e-10
4.32206e-09
2.14037e-11
4.26233e-09
-5.82284e-11
4.15151e-09
-1.20841e-10
4.00069e-09
-1.70329e-10
3.81994e-09
-2.07846e-10
3.61832e-09
-2.34568e-10
3.40388e-09
-2.51731e-10
3.18358e-09
-2.60632e-10
2.96328e-09
-2.62612e-10
-2.59011e-10
2.74767e-09
7.60949e-10
5.10425e-10
1.43682e-09
4.55151e-10
2.00345e-09
3.837e-10
2.45405e-09
3.07198e-10
2.79313e-09
2.33006e-10
3.03115e-09
1.65127e-10
3.18083e-09
1.05238e-10
3.25517e-09
5.36782e-11
3.2664e-09
1.01678e-11
3.22814e-09
-1.99689e-11
3.15027e-09
-4.29616e-11
3.04141e-09
-6.14706e-11
2.90945e-09
-7.58936e-11
2.76149e-09
-8.65989e-11
2.60371e-09
-9.39537e-11
2.44142e-09
-9.83426e-11
2.27898e-09
-1.00173e-10
-9.9868e-11
2.11984e-09
5.10425e-10
9.65576e-10
1.34928e-09
1.65647e-09
1.88948e-09
2.05461e-09
2.15985e-09
2.21352e-09
2.22369e-09
2.20372e-09
2.16076e-09
2.09929e-09
2.0234e-09
1.9368e-09
1.84284e-09
1.7445e-09
1.64433e-09
1.54446e-09
-2.56019e-11
2.56019e-11
-5.13394e-11
2.57375e-11
-7.71708e-11
2.58314e-11
-1.03053e-10
2.58822e-11
-1.28942e-10
2.58886e-11
-1.54791e-10
2.58498e-11
-1.80556e-10
2.57651e-11
-2.0619e-10
2.5634e-11
-2.31647e-10
2.54565e-11
-2.5688e-10
2.52326e-11
-2.81842e-10
2.49629e-11
-3.06491e-10
2.46481e-11
-3.3078e-10
2.42892e-11
-3.54667e-10
2.38875e-11
-3.78112e-10
2.34445e-11
-4.01074e-10
2.2962e-11
-4.23516e-10
2.24419e-11
-4.45402e-10
2.18865e-11
-4.667e-10
2.12981e-11
-4.8738e-10
2.06793e-11
-5.07412e-10
2.00325e-11
-5.26773e-10
1.93606e-11
-5.45439e-10
1.86663e-11
-5.63391e-10
1.79524e-11
-5.80613e-10
1.72218e-11
-5.9709e-10
1.64773e-11
-6.12812e-10
1.57217e-11
-6.2777e-10
1.49577e-11
-6.41958e-10
1.41881e-11
-6.55373e-10
1.34153e-11
-6.68015e-10
1.2642e-11
-6.79886e-10
1.18705e-11
-6.90989e-10
1.11031e-11
-7.01331e-10
1.03418e-11
-7.10919e-10
9.58867e-12
-7.19765e-10
8.84556e-12
-7.27879e-10
8.11417e-12
-7.35275e-10
7.39604e-12
-7.41968e-10
6.69257e-12
-7.47973e-10
6.00503e-12
-7.53307e-10
5.33453e-12
-7.57989e-10
4.68202e-12
-7.62038e-10
4.04836e-12
-7.65472e-10
3.43427e-12
-7.68312e-10
2.84028e-12
-7.70579e-10
2.2669e-12
-7.72294e-10
1.71446e-12
-7.73477e-10
1.18319e-12
-7.7415e-10
6.73231e-13
-7.74335e-10
1.8466e-13
-7.74052e-10
-2.82587e-13
-7.73323e-10
-7.28602e-13
-7.7217e-10
-1.15359e-12
-7.70612e-10
-1.55777e-12
-7.68671e-10
-1.94147e-12
-7.66366e-10
-2.30505e-12
-7.63717e-10
-2.64888e-12
-7.60743e-10
-2.97344e-12
-7.57464e-10
-3.27918e-12
-7.53897e-10
-3.56661e-12
-7.50061e-10
-3.83625e-12
-7.45973e-10
-4.08866e-12
-7.41648e-10
-4.32438e-12
-7.37104e-10
-4.54401e-12
-7.32356e-10
-4.7481e-12
-7.27419e-10
-4.93724e-12
-7.22307e-10
-5.11202e-12
-7.17034e-10
-5.27302e-12
-7.11613e-10
-5.4208e-12
-7.06057e-10
-5.55597e-12
-7.00378e-10
-5.67904e-12
-6.94587e-10
-5.79059e-12
-6.88696e-10
-5.89117e-12
-6.82715e-10
-5.98128e-12
-6.76654e-10
-6.06144e-12
-6.70521e-10
-6.13215e-12
-6.64327e-10
-6.19388e-12
-6.5808e-10
-6.2471e-12
-6.51788e-10
-6.29226e-12
-6.45458e-10
-6.32978e-12
-6.39098e-10
-6.36006e-12
-6.32715e-10
-6.3835e-12
-6.26314e-10
-6.40046e-12
-6.19903e-10
-6.4113e-12
-6.13487e-10
-6.41633e-12
-6.07071e-10
-6.41589e-12
-6.00661e-10
-6.41024e-12
-5.94261e-10
-6.39966e-12
-5.87876e-10
-6.38441e-12
-5.81512e-10
-6.3647e-12
-5.75171e-10
-6.34076e-12
-5.68858e-10
-6.31276e-12
-5.62577e-10
-6.28088e-12
-5.56332e-10
-6.24525e-12
-5.50126e-10
-6.20602e-12
-5.43963e-10
-6.16328e-12
-5.37846e-10
-6.11712e-12
-5.31778e-10
-6.06761e-12
-5.25763e-10
-6.01479e-12
-5.19805e-10
-5.95869e-12
-5.13905e-10
-5.8993e-12
-5.08069e-10
-5.83663e-12
-5.02298e-10
-5.77063e-12
-4.96597e-10
-5.70127e-12
-4.90968e-10
-5.62845e-12
-4.85416e-10
-5.55213e-12
-4.79944e-10
-5.4722e-12
-4.74555e-10
-5.38857e-12
-4.69254e-10
-5.30111e-12
-4.64045e-10
-5.20974e-12
-4.5893e-10
-5.11433e-12
-4.53915e-10
-5.01479e-12
-4.49004e-10
-4.91104e-12
-4.44201e-10
-4.80299e-12
-4.39511e-10
-4.69061e-12
-4.34937e-10
-4.57389e-12
-4.30484e-10
-4.45284e-12
-4.26157e-10
-4.32758e-12
-4.21958e-10
-4.19819e-12
-4.17893e-10
-4.06491e-12
-4.13965e-10
-3.92798e-12
-4.10178e-10
-3.78776e-12
-4.06533e-10
-3.64467e-12
-4.03034e-10
-3.49925e-12
-3.99682e-10
-3.3521e-12
-3.96478e-10
-3.20393e-12
-3.93422e-10
-3.05557e-12
-3.90514e-10
-2.90793e-12
-3.87752e-10
-2.76205e-12
-3.85133e-10
-2.6191e-12
-3.82653e-10
-2.48033e-12
-3.80306e-10
-2.34716e-12
-3.78084e-10
-2.22114e-12
-3.75981e-10
-2.10396e-12
-3.73983e-10
-1.9975e-12
-3.72079e-10
-1.90385e-12
-3.70254e-10
-1.82526e-12
-3.6849e-10
-1.76431e-12
-3.66766e-10
-1.72382e-12
-3.65059e-10
-1.70696e-12
-3.63342e-10
-1.71728e-12
-3.61583e-10
-1.75879e-12
-3.59747e-10
-1.83598e-12
-3.57793e-10
-1.95397e-12
-3.55674e-10
-2.1185e-12
-3.53338e-10
-2.33611e-12
-3.50724e-10
-2.61418e-12
-3.47763e-10
-2.9611e-12
-3.44377e-10
-3.38631e-12
-3.40476e-10
-3.90051e-12
-3.3596e-10
-4.51573e-12
-3.30715e-10
-5.24551e-12
-3.2461e-10
-6.10498e-12
-3.17499e-10
-7.11103e-12
-3.09217e-10
-8.28234e-12
-2.99577e-10
-9.63947e-12
-2.88372e-10
-1.12049e-11
-2.7537e-10
-1.30027e-11
-2.60311e-10
-1.50586e-11
-2.42911e-10
-1.73995e-11
-2.22859e-10
-2.00527e-11
-1.99814e-10
-2.3045e-11
-1.73412e-10
-2.64017e-11
-1.43268e-10
-3.01444e-11
-1.08979e-10
-3.42889e-11
-7.01365e-11
-3.88423e-11
-2.63372e-11
-4.37993e-11
2.28003e-11
-4.91375e-11
7.76131e-11
-5.48128e-11
1.38366e-10
-6.07528e-11
2.05217e-10
-6.6851e-11
2.78176e-10
-7.29591e-11
3.57055e-10
-7.8879e-11
4.41406e-10
-8.43512e-11
5.30442e-10
-8.90358e-11
6.22911e-10
-9.24694e-11
7.16858e-10
-9.39469e-11
8.08995e-10
-9.21365e-11
8.92463e-10
-8.34682e-11
-5.28727e-11
9.45336e-10
-2.57875e-11
5.13893e-11
-5.17104e-11
5.16604e-11
-7.7726e-11
5.1847e-11
-1.0379e-10
5.19463e-11
-1.29857e-10
5.19558e-11
-1.55881e-10
5.18737e-11
-1.81815e-10
5.16987e-11
-2.07611e-10
5.143e-11
-2.33222e-10
5.10674e-11
-2.586e-10
5.06113e-11
-2.837e-10
5.00627e-11
-3.08475e-10
4.94232e-11
-3.32881e-10
4.86949e-11
-3.56874e-10
4.78805e-11
-3.80413e-10
4.69831e-11
-4.03457e-10
4.60065e-11
-4.2597e-10
4.49546e-11
-4.47915e-10
4.3832e-11
-4.69261e-10
4.26436e-11
-4.89976e-10
4.13943e-11
-5.10033e-10
4.00895e-11
-5.29407e-10
3.87347e-11
-5.48076e-10
3.73356e-11
-5.66022e-10
3.58979e-11
-5.83227e-10
3.44273e-11
-5.9968e-10
3.29295e-11
-6.15368e-10
3.14101e-11
-6.30285e-10
2.98747e-11
-6.44425e-10
2.83286e-11
-6.57787e-10
2.6777e-11
-6.7037e-10
2.52249e-11
-6.82176e-10
2.36771e-11
-6.93211e-10
2.21381e-11
-7.03482e-10
2.0612e-11
-7.12996e-10
1.9103e-11
-7.21765e-10
1.76145e-11
-7.29801e-10
1.615e-11
-7.37117e-10
1.47126e-11
-7.4373e-10
1.3305e-11
-7.49654e-10
1.19297e-11
-7.54909e-10
1.05888e-11
-7.59511e-10
9.28439e-12
-7.63481e-10
8.01798e-12
-7.66837e-10
6.79097e-12
-7.69602e-10
5.6045e-12
-7.71794e-10
4.45943e-12
-7.73436e-10
3.35644e-12
-7.74549e-10
2.29597e-12
-7.75154e-10
1.27829e-12
-7.75273e-10
3.03457e-13
-7.74927e-10
-6.28612e-13
-7.74137e-10
-1.51816e-12
-7.72925e-10
-2.3656e-12
-7.71311e-10
-3.17141e-12
-7.69317e-10
-3.93626e-12
-7.66961e-10
-4.66083e-12
-7.64264e-10
-5.34599e-12
-7.61245e-10
-5.99259e-12
-7.57922e-10
-6.60161e-12
-7.54315e-10
-7.17407e-12
-7.5044e-10
-7.71101e-12
-7.46315e-10
-8.21355e-12
-7.41957e-10
-8.6828e-12
-7.37381e-10
-9.11991e-12
-7.32603e-10
-9.52605e-12
-7.27638e-10
-9.90236e-12
-7.225e-10
-1.025e-11
-7.17202e-10
-1.05702e-11
-7.11759e-10
-1.08641e-11
-7.06182e-10
-1.11328e-11
-7.00484e-10
-1.13774e-11
-6.94676e-10
-1.1599e-11
-6.88768e-10
-1.17988e-11
-6.82772e-10
-1.19777e-11
-6.76696e-10
-1.21368e-11
-6.70551e-10
-1.22771e-11
-6.64346e-10
-1.23995e-11
-6.58088e-10
-1.25049e-11
-6.51786e-10
-1.25943e-11
-6.45447e-10
-1.26684e-11
-6.39079e-10
-1.27282e-11
-6.32688e-10
-1.27743e-11
-6.26281e-10
-1.28075e-11
-6.19864e-10
-1.28285e-11
-6.13442e-10
-1.2838e-11
-6.07022e-10
-1.28366e-11
-6.00607e-10
-1.28248e-11
-5.94204e-10
-1.28032e-11
-5.87816e-10
-1.27722e-11
-5.81448e-10
-1.27325e-11
-5.75105e-10
-1.26842e-11
-5.68789e-10
-1.26279e-11
-5.62506e-10
-1.25639e-11
-5.56259e-10
-1.24924e-11
-5.50052e-10
-1.24137e-11
-5.43887e-10
-1.23281e-11
-5.37768e-10
-1.22356e-11
-5.31699e-10
-1.21365e-11
-5.25683e-10
-1.20307e-11
-5.19724e-10
-1.19184e-11
-5.13823e-10
-1.17996e-11
-5.07986e-10
-1.16742e-11
-5.02214e-10
-1.15422e-11
-4.96512e-10
-1.14034e-11
-4.90883e-10
-1.12578e-11
-4.8533e-10
-1.11051e-11
-4.79857e-10
-1.09453e-11
-4.74467e-10
-1.0778e-11
-4.69165e-10
-1.06031e-11
-4.63955e-10
-1.04204e-11
-4.58839e-10
-1.02296e-11
-4.53824e-10
-1.00305e-11
-4.48912e-10
-9.82292e-12
-4.44108e-10
-9.60679e-12
-4.39417e-10
-9.38196e-12
-4.34842e-10
-9.14843e-12
-4.30389e-10
-8.90624e-12
-4.26061e-10
-8.65554e-12
-4.21862e-10
-8.3966e-12
-4.17797e-10
-8.12982e-12
-4.1387e-10
-7.85572e-12
-4.10083e-10
-7.575e-12
-4.06439e-10
-7.28852e-12
-4.02941e-10
-6.99732e-12
-3.9959e-10
-6.70263e-12
-3.96388e-10
-6.40588e-12
-3.93335e-10
-6.1087e-12
-3.9043e-10
-5.81295e-12
-3.87671e-10
-5.5207e-12
-3.85056e-10
-5.23425e-12
-3.8258e-10
-4.95616e-12
-3.80238e-10
-4.68922e-12
-3.78023e-10
-4.43654e-12
-3.75925e-10
-4.20152e-12
-3.73935e-10
-3.9879e-12
-3.72039e-10
-3.79981e-12
-3.70222e-10
-3.64184e-12
-3.68468e-10
-3.51904e-12
-3.66754e-10
-3.43709e-12
-3.65059e-10
-3.40231e-12
-3.63355e-10
-3.42179e-12
-3.6161e-10
-3.50351e-12
-3.59789e-10
-3.65647e-12
-3.57852e-10
-3.89084e-12
-3.55753e-10
-4.21814e-12
-3.53437e-10
-4.6514e-12
-3.50846e-10
-5.20537e-12
-3.47911e-10
-5.89677e-12
-3.44552e-10
-6.74451e-12
-3.40683e-10
-7.76994e-12
-3.36202e-10
-8.99713e-12
-3.30994e-10
-1.04531e-11
-3.24931e-10
-1.21682e-11
-3.17866e-10
-1.41761e-11
-3.09634e-10
-1.65142e-11
-3.00049e-10
-1.92238e-11
-2.88905e-10
-2.23497e-11
-2.75967e-10
-2.59403e-11
-2.60978e-10
-3.00472e-11
-2.43654e-10
-3.47242e-11
-2.2368e-10
-4.00264e-11
-2.00717e-10
-4.60077e-11
-1.744e-10
-5.27189e-11
-1.44341e-10
-6.02039e-11
-1.10135e-10
-6.8495e-11
-7.13697e-11
-7.76072e-11
-2.76386e-11
-8.75304e-11
2.14451e-11
-9.82212e-11
7.62243e-11
-1.09592e-10
1.36971e-10
-1.21499e-10
2.03851e-10
-1.33731e-10
2.76884e-10
-1.45992e-10
3.55893e-10
-1.57888e-10
4.40444e-10
-1.68902e-10
5.29772e-10
-1.78364e-10
6.22671e-10
-1.85368e-10
7.17306e-10
-1.88583e-10
8.1083e-10
-1.8566e-10
8.98638e-10
-1.71276e-10
-1.29882e-10
9.75647e-10
-2.61634e-11
7.75528e-11
-5.2462e-11
7.79589e-11
-7.88507e-11
7.82358e-11
-1.05283e-10
7.83788e-11
-1.31712e-10
7.83843e-11
-1.58088e-10
7.82497e-11
-1.84362e-10
7.79729e-11
-2.10485e-10
7.75531e-11
-2.36408e-10
7.699e-11
-2.62081e-10
7.62844e-11
-2.87456e-10
7.54381e-11
-3.12487e-10
7.44537e-11
-3.37126e-10
7.33345e-11
-3.61331e-10
7.2085e-11
-3.85058e-10
7.07101e-11
-4.08267e-10
6.92157e-11
-4.3092e-10
6.76081e-11
-4.52983e-10
6.58944e-11
-4.74421e-10
6.40821e-11
-4.95206e-10
6.2179e-11
-5.1531e-10
6.01935e-11
-5.34709e-10
5.81339e-11
-5.53382e-10
5.6009e-11
-5.71312e-10
5.38273e-11
-5.88482e-10
5.15978e-11
-6.04882e-10
4.9329e-11
-6.20501e-10
4.70295e-11
-6.35334e-10
4.47076e-11
-6.49377e-10
4.23715e-11
-6.62629e-10
4.00288e-11
-6.75091e-10
3.76872e-11
-6.86768e-10
3.53537e-11
-6.97665e-10
3.3035e-11
-7.0779e-10
3.07374e-11
-7.17154e-10
2.84668e-11
-7.25768e-10
2.62287e-11
-7.33646e-10
2.40278e-11
-7.40803e-10
2.18689e-11
-7.47254e-10
1.97559e-11
-7.53016e-10
1.76925e-11
-7.58109e-10
1.56818e-11
-7.62552e-10
1.37267e-11
-7.66363e-10
1.18295e-11
-7.69564e-10
9.99206e-12
-7.72176e-10
8.21611e-12
-7.74219e-10
6.50285e-12
-7.75716e-10
4.85321e-12
-7.76688e-10
3.26776e-12
-7.77156e-10
1.74684e-12
-7.77143e-10
2.90481e-13
-7.76671e-10
-1.10152e-12
-7.75759e-10
-2.42961e-12
-7.7443e-10
-3.69439e-12
-7.72705e-10
-4.8967e-12
-7.70604e-10
-6.03752e-12
-7.68147e-10
-7.11799e-12
-7.65353e-10
-8.13936e-12
-7.62243e-10
-9.103e-12
-7.58834e-10
-1.00104e-11
-7.55145e-10
-1.0863e-11
-7.51193e-10
-1.16626e-11
-7.46996e-10
-1.24107e-11
-7.4257e-10
-1.31091e-11
-7.37931e-10
-1.37594e-11
-7.33093e-10
-1.43635e-11
-7.28072e-10
-1.49231e-11
-7.22883e-10
-1.54399e-11
-7.17537e-10
-1.59157e-11
-7.12049e-10
-1.63522e-11
-7.06431e-10
-1.67511e-11
-7.00694e-10
-1.71142e-11
-6.9485e-10
-1.7443e-11
-6.8891e-10
-1.77392e-11
-6.82883e-10
-1.80043e-11
-6.7678e-10
-1.82399e-11
-6.70609e-10
-1.84474e-11
-6.64381e-10
-1.86283e-11
-6.58102e-10
-1.87839e-11
-6.5178e-10
-1.89156e-11
-6.45424e-10
-1.90247e-11
-6.3904e-10
-1.91123e-11
-6.32635e-10
-1.91796e-11
-6.26214e-10
-1.92276e-11
-6.19785e-10
-1.92576e-11
-6.13353e-10
-1.92703e-11
-6.06923e-10
-1.92668e-11
-6.005e-10
-1.92478e-11
-5.94089e-10
-1.92143e-11
-5.87694e-10
-1.91669e-11
-5.8132e-10
-1.91063e-11
-5.74971e-10
-1.90331e-11
-5.68651e-10
-1.89479e-11
-5.62364e-10
-1.88512e-11
-5.56113e-10
-1.87434e-11
-5.49902e-10
-1.86248e-11
-5.43734e-10
-1.84959e-11
-5.37613e-10
-1.83568e-11
-5.31542e-10
-1.82078e-11
-5.25524e-10
-1.80489e-11
-5.19562e-10
-1.78803e-11
-5.13659e-10
-1.77019e-11
-5.0782e-10
-1.75136e-11
-5.02047e-10
-1.73155e-11
-4.96343e-10
-1.71073e-11
-4.90712e-10
-1.68889e-11
-4.85157e-10
-1.66599e-11
-4.79682e-10
-1.64201e-11
-4.74291e-10
-1.61692e-11
-4.68987e-10
-1.59069e-11
-4.63775e-10
-1.56328e-11
-4.58658e-10
-1.53466e-11
-4.5364e-10
-1.50479e-11
-4.48727e-10
-1.47365e-11
-4.43921e-10
-1.44122e-11
-4.39228e-10
-1.40748e-11
-4.34652e-10
-1.37243e-11
-4.30198e-10
-1.33607e-11
-4.25869e-10
-1.29843e-11
-4.2167e-10
-1.25955e-11
-4.17605e-10
-1.21948e-11
-4.13678e-10
-1.1783e-11
-4.09892e-10
-1.13612e-11
-4.0625e-10
-1.09307e-11
-4.02754e-10
-1.0493e-11
-3.99407e-10
-1.005e-11
-3.96209e-10
-9.60388e-12
-3.9316e-10
-9.157e-12
-3.90261e-10
-8.71218e-12
-3.87509e-10
-8.27254e-12
-3.84902e-10
-7.84153e-12
-3.82435e-10
-7.42298e-12
-3.80103e-10
-7.02109e-12
-3.77899e-10
-6.6405e-12
-3.75814e-10
-6.2863e-12
-3.73838e-10
-5.96409e-12
-3.71958e-10
-5.68006e-12
-3.70159e-10
-5.44105e-12
-3.68423e-10
-5.25464e-12
-3.66731e-10
-5.1293e-12
-3.65059e-10
-5.07448e-12
-3.6338e-10
-5.10078e-12
-3.61663e-10
-5.22014e-12
-3.59874e-10
-5.44601e-12
-3.57971e-10
-5.7936e-12
-3.55909e-10
-6.28015e-12
-3.53635e-10
-6.92512e-12
-3.5109e-10
-7.75062e-12
-3.48205e-10
-8.78168e-12
-3.44903e-10
-1.00466e-11
-3.41096e-10
-1.15773e-11
-3.36683e-10
-1.341e-11
-3.31551e-10
-1.5585e-11
-3.25571e-10
-1.81479e-11
-3.18598e-10
-2.11493e-11
-3.10467e-10
-2.46454e-11
-3.00993e-10
-2.86979e-11
-2.89968e-10
-3.33743e-11
-2.77161e-10
-3.87477e-11
-2.62312e-10
-4.48956e-11
-2.45137e-10
-5.18993e-11
-2.25322e-10
-5.98419e-11
-2.02524e-10
-6.88052e-11
-1.76376e-10
-7.88666e-11
-1.46487e-10
-9.00931e-11
-1.12447e-10
-1.02535e-10
-7.38384e-11
-1.16216e-10
-3.02448e-11
-1.31124e-10
1.87297e-11
-1.47196e-10
7.34402e-11
-1.64302e-10
1.34173e-10
-1.82232e-10
2.01109e-10
-2.00668e-10
2.74288e-10
-2.19171e-10
3.53553e-10
-2.37153e-10
4.38499e-10
-2.53848e-10
5.28402e-10
-2.68266e-10
6.22134e-10
-2.79101e-10
7.18057e-10
-2.84505e-10
8.13898e-10
-2.81501e-10
9.07024e-10
-2.64402e-10
-2.21072e-10
9.98214e-10
-2.67396e-11
1.04292e-10
-5.36137e-11
1.04833e-10
-8.05739e-11
1.05196e-10
-1.0757e-10
1.05375e-10
-1.34552e-10
1.05366e-10
-1.61466e-10
1.05164e-10
-1.8826e-10
1.04767e-10
-2.14882e-10
1.04175e-10
-2.41279e-10
1.03387e-10
-2.674e-10
1.02405e-10
-2.93193e-10
1.01232e-10
-3.1861e-10
9.98706e-11
-3.43603e-10
9.83272e-11
-3.68126e-10
9.66077e-11
-3.92135e-10
9.47195e-11
-4.1559e-10
9.26707e-11
-4.38453e-10
9.04706e-11
-4.60687e-10
8.8129e-11
-4.82262e-10
8.56564e-11
-5.03146e-10
8.30639e-11
-5.23316e-10
8.03629e-11
-5.42747e-10
7.75651e-11
-5.6142e-10
7.46823e-11
-5.7932e-10
7.17265e-11
-5.96431e-10
6.87096e-11
-6.12746e-10
6.56434e-11
-6.28255e-10
6.25393e-11
-6.42956e-10
5.94086e-11
-6.56847e-10
5.62621e-11
-6.69928e-10
5.31104e-11
-6.82205e-10
4.99632e-11
-6.93681e-10
4.68302e-11
-7.04366e-10
4.372e-11
-7.1427e-10
4.0641e-11
-7.23404e-10
3.7601e-11
-7.31782e-10
3.46069e-11
-7.39419e-10
3.16652e-11
-7.46332e-10
2.87818e-11
-7.52538e-10
2.59619e-11
-7.58056e-10
2.32103e-11
-7.62905e-10
2.05308e-11
-7.67105e-10
1.79272e-11
-7.70678e-10
1.54022e-11
-7.73644e-10
1.29584e-11
-7.76026e-10
1.05978e-11
-7.77845e-10
8.32182e-12
-7.79123e-10
6.13154e-12
-7.79883e-10
4.02763e-12
-7.80147e-10
2.01036e-12
-7.79936e-10
7.96756e-14
-7.79273e-10
-1.76481e-12
-7.78179e-10
-3.52379e-12
-7.76675e-10
-5.19819e-12
-7.74782e-10
-6.78921e-12
-7.72522e-10
-8.29823e-12
-7.69913e-10
-9.72682e-12
-7.66975e-10
-1.10767e-11
-7.63728e-10
-1.23499e-11
-7.60191e-10
-1.35482e-11
-7.5638e-10
-1.46738e-11
-7.52314e-10
-1.57289e-11
-7.48009e-10
-1.67157e-11
-7.43481e-10
-1.76366e-11
-7.38747e-10
-1.84938e-11
-7.3382e-10
-1.92897e-11
-7.28717e-10
-2.00266e-11
-7.2345e-10
-2.07069e-11
-7.18032e-10
-2.1333e-11
-7.12478e-10
-2.1907e-11
-7.06797e-10
-2.24314e-11
-7.01003e-10
-2.29083e-11
-6.95106e-10
-2.33399e-11
-6.89117e-10
-2.37284e-11
-6.83046e-10
-2.40758e-11
-6.76901e-10
-2.43842e-11
-6.70693e-10
-2.46556e-11
-6.6443e-10
-2.48918e-11
-6.58119e-10
-2.50946e-11
-6.51769e-10
-2.52658e-11
-6.45387e-10
-2.54071e-11
-6.38979e-10
-2.55201e-11
-6.32552e-10
-2.56064e-11
-6.26112e-10
-2.56672e-11
-6.19666e-10
-2.57041e-11
-6.13218e-10
-2.57184e-11
-6.06773e-10
-2.57111e-11
-6.00338e-10
-2.56836e-11
-5.93915e-10
-2.56367e-11
-5.8751e-10
-2.55716e-11
-5.81128e-10
-2.54891e-11
-5.74771e-10
-2.53899e-11
-5.68444e-10
-2.52749e-11
-5.6215e-10
-2.51447e-11
-5.55894e-10
-2.49999e-11
-5.49678e-10
-2.48409e-11
-5.43505e-10
-2.46682e-11
-5.3738e-10
-2.44821e-11
-5.31305e-10
-2.42828e-11
-5.25284e-10
-2.40704e-11
-5.19319e-10
-2.38452e-11
-5.13414e-10
-2.3607e-11
-5.07571e-10
-2.33558e-11
-5.01795e-10
-2.30915e-11
-4.96089e-10
-2.28139e-11