/*--------------------------------*- C++ -*----------------------------------*\
  =========                 |
  \\      /  F ield         | OpenFOAM: The Open Source CFD Toolbox
   \\    /   O peration     | Website:  https://openfoam.org
    \\  /    A nd           | Version:  10
     \\/     M anipulation  |
\*---------------------------------------------------------------------------*/
FoamFile
{
    format      ascii;
    class       volScalarField;
    location    "12250";
    object      p;
}
// * * * * * * * * * * * * * * * * * * * * * * * * * * * * * * * * * * * * * //

dimensions      [1 -1 -2 0 0 0 0];

internalField   nonuniform List<scalar> 
3200
(
110.286
110.305
110.341
110.394
110.463
110.549
110.65
110.768
110.902
111.053
111.22
111.406
111.611
111.836
112.084
112.358
112.66
112.997
113.374
113.802
114.295
114.875
115.575
116.449
117.584
119.409
349.427
575.544
783.819
980.366
1167.91
1347.99
1521.67
1689.68
1852.54
2010.63
2164.14
2304.28
2410.26
2477.72
107.795
107.813
107.848
107.9
107.968
108.052
108.151
108.266
108.397
108.543
108.705
108.884
109.08
109.295
109.529
109.784
110.062
110.364
110.692
111.049
111.433
111.843
112.266
112.677
113.017
113.159
112.907
112.679
112.549
112.499
112.518
112.602
112.755
112.987
113.317
113.782
134.451
221.943
335.181
470.896
105.266
105.283
105.317
105.367
105.432
105.513
105.608
105.717
105.841
105.979
106.131
106.298
106.48
106.676
106.887
107.113
107.354
107.609
107.877
108.154
108.436
108.716
108.981
109.214
109.393
109.498
109.525
109.522
109.52
109.534
109.569
109.625
109.698
109.779
109.853
109.888
109.832
109.787
109.913
118.908
102.7
102.717
102.749
102.796
102.857
102.933
103.022
103.124
103.239
103.366
103.506
103.657
103.821
103.995
104.18
104.375
104.579
104.789
105.003
105.218
105.43
105.633
105.82
105.985
106.121
106.225
106.301
106.357
106.403
106.446
106.489
106.533
106.577
106.617
106.649
106.668
106.672
106.668
106.662
107.577
100.1
100.115
100.145
100.189
100.246
100.315
100.397
100.491
100.596
100.711
100.837
100.972
101.117
101.269
101.429
101.594
101.765
101.937
102.11
102.281
102.447
102.604
102.749
102.879
102.993
103.09
103.172
103.241
103.299
103.351
103.397
103.439
103.476
103.508
103.533
103.553
103.566
103.575
103.585
104.197
97.4677
97.4817
97.5091
97.5491
97.6011
97.6646
97.7389
97.8234
97.9176
98.0209
98.1325
98.2518
98.3779
98.5099
98.6467
98.7871
98.9297
99.0728
99.2148
99.3537
99.4876
99.6147
99.7331
99.8417
99.9397
100.027
100.104
100.171
100.231
100.283
100.329
100.37
100.405
100.435
100.46
100.48
100.495
100.506
100.522
101.138
94.8057
94.8185
94.8433
94.8795
94.9264
94.9836
95.0502
95.1258
95.2096
95.301
95.3993
95.5036
95.6131
95.7269
95.8439
95.9631
96.0833
96.2032
96.3214
96.4367
96.5478
96.6536
96.7531
96.8455
96.9305
97.0078
97.0777
97.1405
97.1967
97.2466
97.2908
97.3297
97.3634
97.3923
97.4167
97.4367
97.4525
97.4646
97.4815
98.1192
92.117
92.1284
92.1507
92.1831
92.2251
92.2761
92.3354
92.4024
92.4764
92.5567
92.6426
92.7334
92.8283
92.9263
93.0266
93.1282
93.2302
93.3316
93.4314
93.5286
93.6226
93.7123
93.7974
93.8772
93.9514
94.02
94.0829
94.1402
94.1921
94.2388
94.2805
94.3174
94.3498
94.3778
94.4015
94.4212
94.437
94.4492
94.4668
95.1268
89.4042
89.4144
89.4342
89.463
89.5003
89.5454
89.5978
89.6568
89.7217
89.792
89.8669
89.9458
90.0278
90.1123
90.1984
90.2855
90.3726
90.4592
90.5443
90.6274
90.7079
90.7852
90.8588
90.9285
90.9939
91.0551
91.1118
91.164
91.2119
91.2555
91.2949
91.3301
91.3613
91.3885
91.4118
91.4314
91.4473
91.4597
91.4781
92.1592
86.67
86.679
86.6965
86.722
86.7548
86.7946
86.8405
86.8922
86.949
87.0103
87.0755
87.1438
87.2148
87.2877
87.3619
87.4368
87.5118
87.5862
87.6595
87.7312
87.8008
87.8681
87.9325
87.994
88.0523
88.1072
88.1588
88.2069
88.2515
88.2926
88.3303
88.3645
88.3951
88.4223
88.4459
88.4659
88.4824
88.4953
88.5153
89.2155
83.9169
83.9248
83.9402
83.9625
83.9913
84.0261
84.0664
84.1115
84.161
84.2143
84.2708
84.3301
84.3915
84.4545
84.5186
84.5833
84.648
84.7123
84.7758
84.8381
84.8989
84.9579
85.0148
85.0696
85.122
85.1719
85.2193
85.2641
85.3064
85.346
85.383
85.4172
85.4485
85.4769
85.5022
85.524
85.5422
85.5565
85.579
86.2953
81.1471
81.154
81.1675
81.187
81.2122
81.2425
81.2776
81.3168
81.3598
81.4061
81.4551
81.5064
81.5596
81.6141
81.6695
81.7254
81.7814
81.8372
81.8925
81.9469
82.0002
82.0522
82.1027
82.1518
82.1992
82.2449
82.2889
82.3313
82.372
82.411
82.4484
82.4841
82.5179
82.5497
82.5792
82.6057
82.6288
82.6474
82.6766
83.4017
78.3627
78.3688
78.3805
78.3975
78.4193
78.4457
78.4761
78.5102
78.5475
78.5875
78.6299
78.6743
78.7202
78.7673
78.8152
78.8636
78.9121
78.9606
79.0086
79.0561
79.1029
79.1488
79.1937
79.2376
79.2805
79.3224
79.3634
79.4035
79.443
79.4819
79.5203
79.5585
79.5966
79.6347
79.6726
79.71
79.7462
79.7795
79.8448
80.5527
75.5657
75.5709
75.581
75.5958
75.6147
75.6375
75.6639
75.6933
75.7255
75.7601
75.7966
75.8349
75.8745
75.9151
75.9564
75.9981
76.0401
76.082
76.1237
76.165
76.2058
76.246
76.2856
76.3246
76.363
76.4009
76.4385
76.4758
76.5132
76.551
76.5896
76.6295
76.6713
76.716
76.7647
76.8188
76.8803
76.9519
77.205
77.7961
72.7576
72.7621
72.7709
72.7836
72.7999
72.8196
72.8422
72.8676
72.8953
72.925
72.9564
72.9893
73.0232
73.0581
73.0935
73.1294
73.1654
73.2014
73.2373
73.2728
73.3081
73.3429
73.3772
73.4111
73.4447
73.4779
73.511
73.5441
73.5775
73.6116
73.6467
73.6835
73.7226
73.7652
73.8125
73.8664
73.9296
74.006
74.5812
75.0357
69.94
69.9439
69.9514
69.9623
69.9763
69.9932
70.0126
70.0343
70.058
70.0834
70.1103
70.1383
70.1673
70.197
70.2272
70.2577
70.2883
70.319
70.3494
70.3796
70.4095
70.439
70.468
70.4966
70.5248
70.5527
70.5802
70.6076
70.6349
70.6623
70.69
70.7182
70.7471
70.7769
70.8076
70.8393
70.8715
70.9033
71.1893
71.9328
67.1143
67.1176
67.124
67.1333
67.1453
67.1597
67.1762
67.1947
67.2148
67.2364
67.2591
67.2829
67.3074
67.3325
67.358
67.3836
67.4094
67.435
67.4605
67.4856
67.5104
67.5347
67.5585
67.5817
67.6044
67.6264
67.6479
67.6687
67.6889
67.7085
67.7274
67.7454
67.7625
67.7783
67.7924
67.8042
67.8127
67.8167
67.8143
68.8136
64.2816
64.2844
64.2899
64.2978
64.3079
64.32
64.334
64.3496
64.3666
64.3847
64.4039
64.4238
64.4443
64.4652
64.4865
64.5078
64.529
64.5501
64.571
64.5914
64.6114
64.6308
64.6495
64.6676
64.6849
64.7013
64.7168
64.7313
64.7447
64.7568
64.7676
64.7768
64.7841
64.7892
64.7918
64.7913
64.7872
64.7787
64.7654
65.7999
61.443
61.4454
61.45
61.4566
61.4651
61.4753
61.487
61.5
61.5142
61.5293
61.5452
61.5617
61.5787
61.5959
61.6133
61.6307
61.6479
61.6649
61.6815
61.6977
61.7133
61.7282
61.7423
61.7557
61.768
61.7794
61.7896
61.7985
61.8061
61.8121
61.8165
61.8189
61.8192
61.8172
61.8125
61.8051
61.7945
61.7808
61.7637
62.7208
58.5995
58.6015
58.6053
58.6108
58.6178
58.6263
58.636
58.6467
58.6584
58.6708
58.6839
58.6974
58.7111
58.7251
58.7391
58.7529
58.7666
58.7799
58.7928
58.8051
58.8168
58.8278
58.8379
58.8471
58.8552
58.8623
58.8681
58.8725
58.8755
58.8768
58.8764
58.8741
58.8697
58.863
58.8539
58.8422
58.8277
58.8103
58.7899
59.4132
55.7518
55.7534
55.7566
55.7611
55.7669
55.7738
55.7817
55.7905
55.8
55.81
55.8205
55.8313
55.8423
55.8534
55.8643
55.8751
55.8856
55.8957
55.9053
55.9143
55.9227
55.9302
55.9369
55.9426
55.9473
55.9509
55.9532
55.9542
55.9538
55.9518
55.9482
55.9428
55.9355
55.9262
55.9147
55.9009
55.8846
55.8654
55.843
55.8338
52.9007
52.9021
52.9046
52.9082
52.9129
52.9185
52.9249
52.9319
52.9394
52.9474
52.9557
52.9642
52.9727
52.9812
52.9896
52.9977
53.0054
53.0127
53.0195
53.0257
53.0312
53.0359
53.0397
53.0427
53.0446
53.0454
53.0451
53.0436
53.0408
53.0367
53.0311
53.024
53.0154
53.0053
52.9935
52.9801
52.9651
52.9486
52.9307
52.921
50.0469
50.048
50.05
50.0529
50.0566
50.061
50.066
50.0715
50.0774
50.0835
50.0899
50.0963
50.1027
50.109
50.1151
50.1209
50.1263
50.1313
50.1357
50.1395
50.1426
50.145
50.1466
50.1472
50.147
50.1458
50.1436
50.1403
50.1359
50.1304
50.1237
50.1158
50.1067
50.0965
50.0851
50.0726
50.0591
50.0447
50.0294
50.0205
47.1909
47.1917
47.1933
47.1955
47.1984
47.2018
47.2056
47.2098
47.2142
47.2188
47.2235
47.2282
47.2328
47.2372
47.2414
47.2452
47.2486
47.2516
47.254
47.2558
47.257
47.2575
47.2572
47.2562
47.2543
47.2515
47.2479
47.2434
47.2379
47.2315
47.2241
47.2159
47.2067
47.1967
47.1858
47.1742
47.1619
47.1489
47.1354
47.1272
44.3332
44.3338
44.335
44.3366
44.3388
44.3413
44.3441
44.3472
44.3504
44.3536
44.3569
44.3601
44.3631
44.366
44.3685
44.3707
44.3724
44.3737
44.3745
44.3747
44.3743
44.3733
44.3716
44.3691
44.366
44.362
44.3574
44.3519
44.3457
44.3388
44.3311
44.3226
44.3135
44.3038
44.2934
44.2824
44.271
44.2591
44.2468
44.2392
41.4742
41.4746
41.4754
41.4767
41.4782
41.4799
41.4819
41.484
41.4861
41.4883
41.4903
41.4923
41.494
41.4955
41.4967
41.4975
41.4979
41.4978
41.4972
41.4961
41.4944
41.4922
41.4893
41.4858
41.4816
41.4768
41.4713
41.4652
41.4585
41.4511
41.4432
41.4347
41.4257
41.4162
41.4062
41.3958
41.385
41.3739
41.3625
41.3556
38.6142
38.6145
38.6151
38.6159
38.6169
38.618
38.6193
38.6206
38.6218
38.623
38.6241
38.625
38.6256
38.626
38.6261
38.6257
38.625
38.6238
38.6221
38.62
38.6172
38.614
38.6102
38.6058
38.6008
38.5953
38.5892
38.5826
38.5754
38.5678
38.5597
38.5511
38.5421
38.5328
38.5231
38.5132
38.503
38.4925
38.4819
38.4757
35.7536
35.7538
35.7542
35.7546
35.7552
35.7558
35.7565
35.7571
35.7576
35.7581
35.7583
35.7583
35.7581
35.7576
35.7567
35.7555
35.7538
35.7517
35.7492
35.7461
35.7426
35.7385
35.734
35.7289
35.7232
35.7171
35.7105
35.7034
35.6959
35.688
35.6797
35.671
35.662
35.6528
35.6434
35.6337
35.624
35.6141
35.6041
35.5985
32.8927
32.8928
32.8929
32.8931
32.8934
32.8936
32.8937
32.8938
32.8938
32.8936
32.8932
32.8925
32.8916
32.8904
32.8888
32.8868
32.8844
32.8816
32.8784
32.8746
32.8704
32.8657
32.8605
32.8548
32.8487
32.842
32.8349
32.8274
32.8195
32.8112
32.8027
32.7938
32.7847
32.7754
32.7661
32.7566
32.7471
32.7377
32.7282
32.7233
30.0316
30.0316
30.0316
30.0316
30.0315
30.0314
30.0312
30.0309
30.0304
30.0297
30.0288
30.0276
30.0261
30.0243
30.0222
30.0197
30.0168
30.0134
30.0096
30.0054
30.0006
29.9954
29.9898
29.9836
29.9769
29.9698
29.9623
29.9543
29.946
29.9373
29.9282
29.919
29.9096
29.9
29.8904
29.8809
29.8715
29.8622
29.8532
29.8488
27.1704
27.1704
27.1703
27.1701
27.1699
27.1695
27.169
27.1684
27.1675
27.1665
27.1652
27.1636
27.1618
27.1596
27.1571
27.1542
27.1509
27.1472
27.143
27.1384
27.1333
27.1277
27.1217
27.1151
27.1081
27.1006
27.0926
27.0841
27.0752
27.0659
27.0563
27.0464
27.0362
27.026
27.0157
27.0056
26.9958
26.9864
26.9776
26.9736
24.3094
24.3093
24.3091
24.3088
24.3084
24.3079
24.3072
24.3064
24.3053
24.304
24.3025
24.3007
24.2986
24.2962
24.2934
24.2903
24.2868
24.2828
24.2785
24.2737
24.2684
24.2626
24.2563
24.2496
24.2423
24.2344
24.226
24.2171
24.2076
24.1976
24.1871
24.1762
24.1648
24.1531
24.1413
24.1296
24.1183
24.1078
24.0985
24.095
21.4486
21.4485
21.4482
21.4479
21.4474
21.4467
21.4459
21.4449
21.4438
21.4424
21.4407
21.4388
21.4366
21.4341
21.4312
21.428
21.4244
21.4205
21.4161
21.4112
21.4059
21.4001
21.3939
21.3871
21.3797
21.3717
21.3632
21.354
21.3441
21.3334
21.322
21.3097
21.2966
21.2825
21.2676
21.252
21.2362
21.2213
21.2093
21.2084
18.588
18.5879
18.5876
18.5872
18.5867
18.586
18.5851
18.5841
18.5829
18.5815
18.5798
18.5779
18.5757
18.5732
18.5704
18.5673
18.5638
18.56
18.5557
18.551
18.5459
18.5404
18.5343
18.5278
18.5206
18.5129
18.5046
18.4955
18.4857
18.475
18.4632
18.4503
18.4358
18.4194
18.4004
18.3778
18.3497
18.3135
18.2644
18.2247
15.7277
15.7276
15.7273
15.7269
15.7264
15.7257
15.7249
15.7239
15.7227
15.7213
15.7197
15.7179
15.7159
15.7135
15.7109
15.708
15.7048
15.7012
15.6973
15.693
15.6883
15.6832
15.6777
15.6716
15.6651
15.6581
15.6504
15.6422
15.6333
15.6236
15.6132
15.6018
15.5894
15.576
15.5614
15.5457
15.529
15.5121
15.4963
15.4848
12.8676
12.8675
12.8673
12.8669
12.8664
12.8658
12.8651
12.8642
12.8631
12.8619
12.8604
12.8588
12.857
12.8549
12.8526
12.8501
12.8472
12.8441
12.8407
12.8369
12.8329
12.8284
12.8236
12.8184
12.8128
12.8068
12.8003
12.7934
12.786
12.7781
12.7697
12.7609
12.7516
12.742
12.7322
12.7223
12.7127
12.7039
12.6963
12.6905
10.0079
10.0078
10.0076
10.0073
10.0068
10.0063
10.0057
10.0049
10.004
10.003
10.0018
10.0005
9.99896
9.99726
9.99536
9.99325
9.99093
9.98838
9.98558
9.98253
9.97921
9.97562
9.97174
9.96757
9.9631
9.95832
9.95324
9.94785
9.94218
9.93624
9.93006
9.9237
9.91721
9.91069
9.90427
9.89807
9.89228
9.88706
9.88261
9.87905
7.14831
7.14823
7.14808
7.14784
7.14753
7.14714
7.14666
7.14608
7.14541
7.14464
7.14375
7.14274
7.14161
7.14034
7.13893
7.13736
7.13564
7.13375
7.13168
7.12943
7.12699
7.12436
7.12153
7.1185
7.11527
7.11184
7.10822
7.10443
7.10048
7.09639
7.09221
7.08797
7.08374
7.07957
7.07553
7.07171
7.06819
7.06504
7.06233
7.06009
4.28892
4.28887
4.28877
4.28862
4.28843
4.28818
4.28789
4.28753
4.28711
4.28663
4.28608
4.28546
4.28476
4.28398
4.28311
4.28215
4.28109
4.27993
4.27866
4.27728
4.2758
4.27419
4.27247
4.27064
4.26869
4.26664
4.26449
4.26224
4.25992
4.25754
4.25514
4.25272
4.25033
4.248
4.24577
4.24368
4.24176
4.24004
4.23855
4.2373
1.42963
1.42961
1.42958
1.42953
1.42946
1.42938
1.42928
1.42916
1.42902
1.42885
1.42867
1.42846
1.42822
1.42796
1.42766
1.42734
1.42698
1.42659
1.42616
1.4257
1.4252
1.42466
1.42409
1.42347
1.42282
1.42214
1.42142
1.42068
1.41992
1.41914
1.41835
1.41757
1.4168
1.41605
1.41534
1.41467
1.41405
1.41351
1.41303
1.41262
2494.59
2460.54
2385.68
2274.9
2131.72
1985.21
1835.57
1682.7
1526.47
1366.69
1203.13
1035.48
863.297
685.956
502.377
310.356
120.2
117.646
116.278
115.255
114.455
113.808
113.268
112.809
112.41
112.061
111.752
111.476
111.23
111.01
110.814
110.64
110.487
110.353
110.238
110.141
110.064
110.005
109.964
109.944
483.29
356.534
244.221
162.102
112.987
112.132
111.762
111.508
111.341
111.246
111.215
111.245
111.34
111.508
111.768
112.146
112.608
112.552
112.218
111.782
111.326
110.887
110.478
110.102
109.761
109.451
109.169
108.915
108.684
108.476
108.29
108.123
107.975
107.845
107.734
107.641
107.565
107.507
107.468
107.448
114.524
108.235
108.241
108.312
108.442
108.49
108.47
108.427
108.384
108.356
108.35
108.371
108.419
108.494
108.59
108.689
108.754
108.715
108.574
108.358
108.098
107.817
107.53
107.249
106.979
106.723
106.484
106.262
106.057
105.869
105.698
105.545
105.407
105.286
105.181
105.093
105.022
104.967
104.93
104.911
105.203
105.208
105.235
105.266
105.299
105.323
105.333
105.335
105.332
105.331
105.334
105.343
105.36
105.38
105.4
105.408
105.393
105.339
105.242
105.105
104.937
104.747
104.545
104.336
104.128
103.924
103.728
103.541
103.366
103.202
103.051
102.913
102.789
102.679
102.583
102.502
102.436
102.386
102.351
102.334
102.155
102.168
102.19
102.212
102.231
102.248
102.26
102.268
102.273
102.277
102.279
102.28
102.279
102.276
102.266
102.245
102.209
102.153
102.074
101.973
101.853
101.716
101.567
101.41
101.249
101.088
100.929
100.775
100.628
100.489
100.358
100.238
100.129
100.031
99.945
99.872
99.8123
99.7665
99.7352
99.7192
99.1229
99.1347
99.155
99.1735
99.1897
99.2035
99.2145
99.2226
99.2277
99.23
99.2292
99.2251
99.2169
99.2036
99.1836
99.1548
99.1154
99.0634
98.9978
98.9183
98.8256
98.7214
98.6076
98.4868
98.3614
98.2336
98.1059
97.98
97.8578
97.7407
97.63
97.5269
97.4322
97.3468
97.2715
97.207
97.1541
97.1133
97.0854
97.0711
96.1067
96.118
96.1367
96.1534
96.168
96.1802
96.1898
96.1968
96.2007
96.2016
96.1989
96.1924
96.1814
96.1654
96.1433
96.1143
96.0774
96.0317
95.9767
95.9123
95.8388
95.7569
95.6678
95.5729
95.4736
95.3716
95.2686
95.166
95.0653
94.9678
94.8748
94.7874
94.7065
94.6331
94.5679
94.5118
94.4656
94.4299
94.4053
94.3927
93.1079
93.1187
93.1361
93.1516
93.1649
93.176
93.1847
93.1907
93.1939
93.194
93.1907
93.1837
93.1726
93.1569
93.1361
93.1097
93.0772
93.0382
92.9925
92.9399
92.8806
92.8152
92.7442
92.6684
92.589
92.5071
92.4237
92.34
92.2573
92.1766
92.0991
92.0256
91.9572
91.8947
91.839
91.7909
91.751
91.7201
91.6989
91.6879
90.1262
90.1366
90.1529
90.1673
90.1797
90.1901
90.1981
90.2037
90.2067
90.2068
90.2038
90.1974
90.1874
90.1734
90.1552
90.1324
90.1048
90.0722
90.0344
89.9914
89.9433
89.8905
89.8334
89.7725
89.7086
89.6423
89.5746
89.5064
89.4386
89.372
89.3076
89.2463
89.1889
89.1363
89.0891
89.0481
89.0141
88.9877
88.9695
88.9601
87.1605
87.1706
87.1859
87.1995
87.2113
87.2211
87.2289
87.2344
87.2376
87.2381
87.2359
87.2308
87.2225
87.2108
87.1956
87.1766
87.1538
87.1269
87.0959
87.0609
87.0219
86.9792
86.933
86.8839
86.8321
86.7785
86.7234
86.6678
86.6122
86.5574
86.5042
86.4533
86.4054
86.3613
86.3216
86.2871
86.2584
86.236
86.2205
86.2126
84.2097
84.2195
84.234
84.2469
84.2583
84.2678
84.2755
84.2812
84.2848
84.2861
84.285
84.2813
84.2749
84.2657
84.2535
84.2381
84.2196
84.1978
84.1727
84.1443
84.1128
84.0783
84.041
84.0012
83.9594
83.9158
83.8711
83.8257
83.7802
83.7353
83.6914
83.6493
83.6096
83.5729
83.5398
83.5109
83.4868
83.4679
83.4549
83.4482
81.2723
81.2819
81.2957
81.3082
81.3192
81.3287
81.3365
81.3425
81.3466
81.3488
81.3488
81.3467
81.3422
81.3353
81.3258
81.3138
81.2991
81.2817
81.2616
81.2389
81.2136
81.1858
81.1558
81.1237
81.0899
81.0546
81.0183
80.9814
80.9443
80.9075
80.8715
80.8368
80.804
80.7736
80.7461
80.7221
80.702
80.6863
80.6754
80.6698
78.3472
78.3566
78.3699
78.3819
78.3927
78.4021
78.4101
78.4165
78.4213
78.4243
78.4255
78.4248
78.4221
78.4173
78.4104
78.4013
78.39
78.3764
78.3606
78.3426
78.3225
78.3003
78.2763
78.2505
78.2233
78.1948
78.1655
78.1355
78.1053
78.0753
78.0459
78.0175
77.9905
77.9655
77.9428
77.9229
77.9062
77.8932
77.8842
77.8795
75.433
75.4422
75.4551
75.4668
75.4775
75.4869
75.4951
75.5019
75.5072
75.5111
75.5134
75.514
75.5129
75.5101
75.5054
75.4989
75.4905
75.4802
75.468
75.454
75.4382
75.4207
75.4016
75.381
75.3593
75.3364
75.3128
75.2886
75.2642
75.2398
75.2159
75.1927
75.1707
75.1502
75.1315
75.1152
75.1014
75.0907
75.0832
75.0794
72.5282
72.5375
72.55
72.5616
72.5722
72.5817
72.5901
72.5972
72.6032
72.6078
72.6111
72.6129
72.6132
72.612
72.6093
72.605
72.5991
72.5915
72.5824
72.5718
72.5596
72.546
72.531
72.5148
72.4976
72.4794
72.4605
72.4411
72.4214
72.4018
72.3824
72.3637
72.3458
72.3291
72.3139
72.3005
72.2893
72.2804
72.2743
72.2712
69.6319
69.6415
69.6539
69.6653
69.6758
69.6854
69.694
69.7015
69.708
69.7132
69.7173
69.7202
69.7217
69.722
69.7209
69.7185
69.7147
69.7095
69.703
69.6951
69.686
69.6756
69.6641
69.6515
69.638
69.6237
69.6087
69.5933
69.5776
69.5619
69.5464
69.5313
69.5168
69.5033
69.491
69.4802
69.471
69.4639
69.4589
69.4563
66.7447
66.754
66.766
66.7773
66.7877
66.7973
66.806
66.8138
66.8206
66.8264
66.8312
66.8349
66.8375
66.839
66.8393
66.8384
66.8364
66.8331
66.8288
66.8233
66.8166
66.809
66.8003
66.7907
66.7803
66.7693
66.7576
66.7455
66.7331
66.7207
66.7083
66.6963
66.6847
66.6739
66.664
66.6553
66.6479
66.6421
66.6381
66.636
63.8649
63.874
63.8857
63.8967
63.907
63.9165
63.9253
63.9332
63.9403
63.9465
63.9518
63.9562
63.9596
63.9621
63.9635
63.9639
63.9634
63.9618
63.9592
63.9556
63.9511
63.9457
63.9394
63.9323
63.9245
63.9161
63.9072
63.8978
63.8882
63.8785
63.8688
63.8593
63.8502
63.8416
63.8337
63.8267
63.8209
63.8162
63.813
63.8113
60.9922
61.0009
61.0122
61.0229
61.033
61.0423
61.051
61.059
61.0662
61.0727
61.0784
61.0833
61.0873
61.0906
61.0929
61.0944
61.0951
61.0948
61.0937
61.0918
61.089
61.0854
61.0811
61.0761
61.0704
61.0642
61.0576
61.0505
61.0432
61.0357
61.0282
61.0208
61.0137
61.007
61.0008
60.9953
60.9907
60.987
60.9845
60.9832
58.126
58.1343
58.1451
58.1554
58.165
58.1741
58.1826
58.1904
58.1977
58.2043
58.2102
58.2155
58.22
58.2238
58.2269
58.2293
58.2309
58.2317
58.2318
58.2312
58.2299
58.2278
58.2251
58.2218
58.218
58.2136
58.2088
58.2036
58.1982
58.1926
58.1869
58.1813
58.1759
58.1707
58.1659
58.1617
58.1581
58.1552
58.1532
58.1522
55.2687
55.2745
55.2842
55.2935
55.3025
55.311
55.3191
55.3268
55.3339
55.3406
55.3466
55.3521
55.357
55.3613
55.3649
55.368
55.3703
55.3721
55.3732
55.3736
55.3734
55.3727
55.3713
55.3694
55.367
55.3641
55.3609
55.3573
55.3534
55.3494
55.3452
55.3411
55.337
55.3331
55.3295
55.3263
55.3236
55.3214
55.3199
55.3191
52.4134
52.418
52.4269
52.4356
52.444
52.4521
52.4599
52.4673
52.4743
52.4809
52.487
52.4926
52.4978
52.5024
52.5065
52.51
52.513
52.5155
52.5174
52.5187
52.5195
52.5197
52.5194
52.5187
52.5175
52.5159
52.5139
52.5116
52.509
52.5063
52.5034
52.5004
52.4975
52.4947
52.492
52.4897
52.4876
52.486
52.4849
52.4843
49.5598
49.564
49.5724
49.5807
49.5887
49.5965
49.604
49.6112
49.6181
49.6246
49.6308
49.6365
49.6418
49.6467
49.6511
49.6551
49.6586
49.6616
49.6641
49.6661
49.6677
49.6688
49.6694
49.6696
49.6694
49.6688
49.6678
49.6666
49.6651
49.6634
49.6615
49.6595
49.6576
49.6556
49.6538
49.6521
49.6506
49.6495
49.6487
49.6483
46.7086
46.7125
46.7206
46.7285
46.7362
46.7438
46.7511
46.7581
46.7649
46.7714
46.7775
46.7833
46.7888
46.7939
46.7985
46.8028
46.8067
46.8102
46.8132
46.8158
46.8179
46.8197
46.821
46.822
46.8226
46.8228
46.8227
46.8223
46.8217
46.8208
46.8198
46.8186
46.8174
46.8162
46.815
46.8139
46.8129
46.8122
46.8116
46.8113
43.8597
43.8633
43.8711
43.8787
43.8862
43.8936
43.9007
43.9076
43.9143
43.9207
43.9269
43.9327
43.9383
43.9435
43.9484
43.9529
43.9571
43.9609
43.9643
43.9674
43.97
43.9723
43.9743
43.9758
43.977
43.9779
43.9785
43.9788
43.9789
43.9787
43.9784
43.9779
43.9773
43.9767
43.976
43.9754
43.9748
43.9743
43.974
43.9738
41.0127
41.0162
41.0237
41.0312
41.0385
41.0456
41.0526
41.0594
41.066
41.0724
41.0785
41.0844
41.0901
41.0954
41.1005
41.1052
41.1096
41.1137
41.1174
41.1208
41.1239
41.1266
41.129
41.131
41.1327
41.1341
41.1353
41.1361
41.1367
41.1371
41.1373
41.1374
41.1373
41.1371
41.1369
41.1366
41.1364
41.1361
41.136
41.1359
38.1676
38.171
38.1783
38.1855
38.1927
38.1997
38.2065
38.2133
38.2198
38.2262
38.2323
38.2383
38.244
38.2494
38.2546
38.2595
38.264
38.2683
38.2723
38.276
38.2793
38.2824
38.2851
38.2875
38.2896
38.2914
38.293
38.2943
38.2953
38.2961
38.2968
38.2972
38.2975
38.2977
38.2978
38.2979
38.2978
38.2978
38.2978
38.2978
35.3242
35.3275
35.3346
35.3417
35.3487
35.3556
35.3623
35.369
35.3755
35.3819
35.3881
35.394
35.3998
35.4053
35.4105
35.4156
35.4203
35.4247
35.4289
35.4327
35.4363
35.4396
35.4426
35.4452
35.4476
35.4498
35.4516
35.4532
35.4546
35.4558
35.4567
35.4575
35.4581
35.4586
35.4589
35.4592
35.4594
35.4595
35.4596
35.4596
32.4821
32.4854
32.4923
32.4993
32.5062
32.513
32.5198
32.5265
32.533
32.5394
32.5456
32.5516
32.5574
32.563
32.5683
32.5734
32.5782
32.5828
32.5871
32.591
32.5948
32.5982
32.6013
32.6042
32.6068
32.6091
32.6112
32.613
32.6147
32.616
32.6172
32.6182
32.6191
32.6198
32.6203
32.6207
32.6211
32.6213
32.6215
32.6215
29.6413
29.6444
29.6513
29.6582
29.6651
29.6719
29.6788
29.6855
29.6921
29.6986
29.7049
29.711
29.7168
29.7225
29.7279
29.733
29.7379
29.7425
29.7468
29.7508
29.7546
29.7581
29.7614
29.7643
29.767
29.7695
29.7717
29.7737
29.7755
29.777
29.7783
29.7795
29.7805
29.7813
29.782
29.7826
29.783
29.7833
29.7835
29.7836
26.8011
26.8042
26.811
26.8179
26.825
26.8321
26.8391
26.8461
26.8529
26.8595
26.866
26.8721
26.8781
26.8838
26.8892
26.8943
26.8992
26.9037
26.9081
26.9121
26.9159
26.9194
26.9226
26.9256
26.9283
26.9308
26.9331
26.9352
26.937
26.9386
26.9401
26.9413
26.9424
26.9433
26.9441
26.9447
26.9452
26.9455
26.9458
26.9459
23.9606
23.9635
23.9705
23.9779
23.9856
23.9933
24.0009
24.0084
24.0156
24.0225
24.0291
24.0354
24.0413
24.047
24.0523
24.0574
24.0622
24.0666
24.0708
24.0748
24.0784
24.0819
24.085
24.088
24.0907
24.0931
24.0954
24.0974
24.0993
24.1009
24.1023
24.1036
24.1047
24.1057
24.1065
24.1072
24.1077
24.1081
24.1083
24.1085
21.118
21.1193
21.1276
21.1371
21.1467
21.1561
21.1649
21.1732
21.1809
21.188
21.1947
21.201
21.2068
21.2123
21.2175
21.2223
21.2269
21.2311
21.2351
21.2389
21.2423
21.2456
21.2486
21.2514
21.254
21.2563
21.2585
21.2604
21.2622
21.2638
21.2652
21.2665
21.2676
21.2685
21.2693
21.27
21.2705
21.2709
21.2712
21.2713
18.2199
18.2493
18.2765
18.2963
18.3115
18.3236
18.3338
18.3425
18.3503
18.3572
18.3636
18.3694
18.3749
18.38
18.3847
18.3891
18.3933
18.3972
18.4009
18.4043
18.4075
18.4104
18.4132
18.4158
18.4182
18.4203
18.4223
18.4242
18.4258
18.4273
18.4286
18.4298
18.4309
18.4318
18.4325
18.4332
18.4337
18.434
18.4343
18.4344
15.4798
15.4813
15.4863
15.4928
15.4997
15.5066
15.5132
15.5194
15.5253
15.5308
15.536
15.5409
15.5454
15.5498
15.5538
15.5577
15.5613
15.5647
15.5679
15.5709
15.5737
15.5763
15.5788
15.5811
15.5832
15.5851
15.5869
15.5885
15.59
15.5914
15.5926
15.5936
15.5946
15.5954
15.5961
15.5967
15.5971
15.5975
15.5977
15.5978
12.6868
12.6852
12.6853
12.6868
12.6892
12.6923
12.6958
12.6995
12.7032
12.707
12.7107
12.7144
12.7179
12.7213
12.7245
12.7276
12.7306
12.7334
12.736
12.7385
12.7409
12.7431
12.7452
12.7471
12.7489
12.7505
12.7521
12.7535
12.7547
12.7559
12.7569
12.7578
12.7586
12.7594
12.76
12.7605
12.7609
12.7612
12.7614
12.7615
9.87643
9.87472
9.87388
9.87385
9.8745
9.87572
9.87737
9.87935
9.88156
9.88392
9.88638
9.88887
9.89136
9.89381
9.89622
9.89856
9.90081
9.90297
9.90503
9.90699
9.90884
9.91059
9.91223
9.91376
9.91519
9.91651
9.91773
9.91885
9.91988
9.92081
9.92164
9.92239
9.92305
9.92362
9.92411
9.92452
9.92485
9.9251
9.92527
9.92535
7.05833
7.05703
7.0562
7.05581
7.05585
7.05625
7.05698
7.05798
7.05919
7.06056
7.06205
7.06362
7.06524
7.06687
7.0685
7.0701
7.07166
7.07318
7.07464
7.07604
7.07737
7.07862
7.07981
7.08092
7.08196
7.08292
7.08381
7.08463
7.08538
7.08606
7.08667
7.08722
7.0877
7.08812
7.08849
7.08879
7.08903
7.08921
7.08934
7.0894
4.23628
4.2355
4.23494
4.23461
4.23451
4.23461
4.23489
4.23535
4.23594
4.23664
4.23743
4.23828
4.23918
4.2401
4.24103
4.24196
4.24288
4.24378
4.24464
4.24548
4.24627
4.24703
4.24774
4.24842
4.24904
4.24963
4.25017
4.25067
4.25112
4.25154
4.25191
4.25225
4.25254
4.2528
4.25302
4.25321
4.25336
4.25347
4.25355
4.25359
1.41229
1.41203
1.41184
1.41171
1.41166
1.41168
1.41175
1.41188
1.41205
1.41227
1.41251
1.41278
1.41307
1.41337
1.41367
1.41397
1.41428
1.41457
1.41486
1.41514
1.4154
1.41565
1.41589
1.41612
1.41633
1.41652
1.4167
1.41687
1.41702
1.41716
1.41729
1.4174
1.4175
1.41759
1.41766
1.41773
1.41778
1.41781
1.41784
1.41785
)
;

boundaryField
{
    top
    {
        type            fixedValue;
        value           uniform 0;
    }
    inlet
    {
        type            darcyGradPressure;
        gradient        nonuniform List<scalar> 
80
(
9.81
9.81
9.81
9.81
9.81
9.81
9.81
9.81
9.81
9.81
9.81
9.81
9.81
9.81
9.81
9.81
9.81
9.81
9.81
9.81
9.81
9.81
9.81
9.81
9.81
9.81063
6089.56
9417.42
9625.87
9699.64
9736.32
9757.56
9770.94
9779.93
9786.27
9790.97
9794.73
9798.08
9800.62
9802.68
9807.85
9807.07
9806.21
9805.04
9803.66
9802.12
9800.16
9797.54
9793.88
9788.54
9780.34
9766.92
9742.96
9692.83
9545.91
7563.14
9.98892
9.81
9.81
9.81
9.81
9.81
9.81
9.81
9.81
9.81
9.81
9.81
9.81
9.81
9.81
9.81
9.81
9.81
9.81
9.81
9.81
9.81
9.81
9.81
)
;
        value           nonuniform List<scalar> 
80
(
111.513
111.531
111.567
111.62
111.689
111.775
111.877
111.994
112.128
112.279
112.447
112.632
112.837
113.063
113.311
113.584
113.887
114.223
114.6
115.028
115.521
116.101
116.801
117.675
118.81
120.635
1110.62
1752.72
1987.05
2192.82
2384.95
2567.69
2743.04
2912.17
3075.82
3234.5
3388.49
3529.04
3635.33
3703.06
3720.57
3686.43
3611.45
3500.53
3357.18
3210.47
3060.59
2907.39
2750.7
2590.26
2425.67
2256.34
2081.17
1897.56
1695.62
1255.75
121.448
118.872
117.505
116.481
115.681
115.034
114.495
114.035
113.637
113.287
112.978
112.702
112.456
112.237
112.041
111.866
111.713
111.579
111.464
111.368
111.29
111.231
111.191
111.17
)
;
    }
    axis
    {
        type            darcyGradPressure;
        gradient        uniform -0;
        value           nonuniform List<scalar> 
80
(
110.286
107.795
105.266
102.7
100.1
97.4677
94.8057
92.117
89.4042
86.67
83.9169
81.1471
78.3627
75.5657
72.7576
69.94
67.1143
64.2816
61.443
58.5995
55.7518
52.9007
50.0469
47.1909
44.3332
41.4742
38.6142
35.7536
32.8927
30.0316
27.1704
24.3094
21.4486
18.588
15.7277
12.8676
10.0079
7.14831
4.28892
1.42963
109.944
107.448
104.911
102.334
99.7192
97.0711
94.3927
91.6879
88.9601
86.2126
83.4482
80.6698
77.8795
75.0794
72.2712
69.4563
66.636
63.8113
60.9832
58.1522
55.3191
52.4843
49.6483
46.8113
43.9738
41.1359
38.2978
35.4596
32.6215
29.7836
26.9459
24.1085
21.2713
18.4344
15.5978
12.7615
9.92535
7.0894
4.25359
1.41785
)
;
    }
    frontAndBack
    {
        type            empty;
    }
}


// ************************************************************************* //
