/*--------------------------------*- C++ -*----------------------------------*\
  =========                 |
  \\      /  F ield         | OpenFOAM: The Open Source CFD Toolbox
   \\    /   O peration     | Website:  https://openfoam.org
    \\  /    A nd           | Version:  10
     \\/     M anipulation  |
\*---------------------------------------------------------------------------*/
FoamFile
{
    format      ascii;
    class       volVectorField;
    location    "12250";
    object      Ua;
}
// * * * * * * * * * * * * * * * * * * * * * * * * * * * * * * * * * * * * * //

dimensions      [0 1 -1 0 0 0 0];

internalField   nonuniform List<vector> 
3200
(
(-3.03271e-07 4.37973e-07 0)
(-9.07191e-07 4.41974e-07 0)
(-1.50851e-06 4.49929e-07 0)
(-2.11245e-06 4.61953e-07 0)
(-2.72419e-06 4.7832e-07 0)
(-3.34913e-06 4.99482e-07 0)
(-3.99302e-06 5.26096e-07 0)
(-4.66231e-06 5.59083e-07 0)
(-5.36437e-06 5.99698e-07 0)
(-6.10794e-06 6.49655e-07 0)
(-6.90363e-06 7.11302e-07 0)
(-7.76465e-06 7.8789e-07 0)
(-8.70789e-06 8.83994e-07 0)
(-9.75541e-06 1.00617e-06 0)
(-1.09369e-05 1.16401e-06 0)
(-1.2293e-05 1.3719e-06 0)
(-1.38814e-05 1.65198e-06 0)
(-1.5786e-05 2.0392e-06 0)
(-1.81324e-05 2.59026e-06 0)
(-2.11143e-05 3.39957e-06 0)
(-2.50398e-05 4.62829e-06 0)
(-3.04123e-05 6.55771e-06 0)
(-3.80763e-05 9.68859e-06 0)
(-4.9482e-05 1.49273e-05 0)
(-6.71691e-05 2.39362e-05 0)
(-5.9926e-05 3.63583e-05 0)
(-2.33045e-05 7.02505e-05 0)
(-3.50219e-06 1.27587e-05 0)
(-1.81398e-06 7.07891e-06 0)
(-1.14519e-06 4.77701e-06 0)
(-7.91098e-07 3.50983e-06 0)
(-5.7771e-07 2.71034e-06 0)
(-4.38884e-07 2.16801e-06 0)
(-3.43177e-07 1.77893e-06 0)
(-2.73833e-07 1.48708e-06 0)
(-2.2046e-07 1.25716e-06 0)
(-1.70805e-07 1.05601e-06 0)
(-1.17007e-07 8.47198e-07 0)
(-6.74135e-08 6.75764e-07 0)
(-2.49014e-08 5.26992e-07 0)
(-2.97442e-07 1.3055e-06 0)
(-8.89564e-07 1.31714e-06 0)
(-1.47856e-06 1.34028e-06 0)
(-2.06914e-06 1.3752e-06 0)
(-2.66594e-06 1.42263e-06 0)
(-3.27364e-06 1.4838e-06 0)
(-3.89717e-06 1.56047e-06 0)
(-4.54183e-06 1.65509e-06 0)
(-5.21345e-06 1.77097e-06 0)
(-5.91864e-06 1.91254e-06 0)
(-6.66494e-06 2.08579e-06 0)
(-7.4611e-06 2.29876e-06 0)
(-8.3173e-06 2.56249e-06 0)
(-9.24534e-06 2.89218e-06 0)
(-1.02586e-05 3.30916e-06 0)
(-1.13717e-05 3.8437e-06 0)
(-1.25989e-05 4.5395e-06 0)
(-1.39501e-05 5.4605e-06 0)
(-1.54225e-05 6.70167e-06 0)
(-1.69812e-05 8.40589e-06 0)
(-1.85193e-05 1.07905e-05 0)
(-1.97757e-05 1.41892e-05 0)
(-2.0166e-05 1.91175e-05 0)
(-1.84428e-05 2.63737e-05 0)
(-1.20142e-05 3.71931e-05 0)
(2.88245e-06 5.0036e-05 0)
(1.24519e-05 1.98962e-05 0)
(9.43039e-06 1.00612e-05 0)
(4.81199e-06 8.063e-06 0)
(8.37767e-07 7.05369e-06 0)
(-2.88961e-06 6.67529e-06 0)
(-6.74619e-06 6.84807e-06 0)
(-1.11249e-05 7.63598e-06 0)
(-1.65202e-05 9.24243e-06 0)
(-2.36409e-05 1.20647e-05 0)
(-3.21777e-05 1.66551e-05 0)
(-2.01409e-05 7.71319e-06 0)
(-2.54816e-06 1.2209e-06 0)
(-9.7749e-07 8.10626e-07 0)
(-2.72067e-07 4.72737e-07 0)
(-2.86307e-07 2.14853e-06 0)
(-8.55916e-07 2.16681e-06 0)
(-1.42148e-06 2.20309e-06 0)
(-1.98683e-06 2.25769e-06 0)
(-2.5556e-06 2.33161e-06 0)
(-3.13135e-06 2.42645e-06 0)
(-3.71756e-06 2.54459e-06 0)
(-4.31774e-06 2.68924e-06 0)
(-4.93538e-06 2.86468e-06 0)
(-5.57396e-06 3.07646e-06 0)
(-6.23677e-06 3.33181e-06 0)
(-6.92677e-06 3.64008e-06 0)
(-7.64611e-06 4.01336e-06 0)
(-8.39541e-06 4.46727e-06 0)
(-9.17255e-06 5.02199e-06 0)
(-9.97062e-06 5.70345e-06 0)
(-1.07746e-05 6.5446e-06 0)
(-1.15564e-05 7.58651e-06 0)
(-1.22669e-05 8.8784e-06 0)
(-1.2825e-05 1.04752e-05 0)
(-1.31041e-05 1.24286e-05 0)
(-1.29176e-05 1.47658e-05 0)
(-1.20165e-05 1.74401e-05 0)
(-1.01271e-05 2.02295e-05 0)
(-7.10179e-06 2.25315e-05 0)
(-3.34951e-06 2.29614e-05 0)
(-6.18174e-07 1.92571e-05 0)
(1.20734e-07 1.60384e-05 0)
(-3.41933e-07 1.40483e-05 0)
(-1.34495e-06 1.29961e-05 0)
(-2.53106e-06 1.27203e-05 0)
(-3.65497e-06 1.31734e-05 0)
(-4.45598e-06 1.44079e-05 0)
(-4.54075e-06 1.65764e-05 0)
(-3.22804e-06 1.9948e-05 0)
(6.45005e-07 2.47924e-05 0)
(3.11871e-06 1.52488e-05 0)
(4.28328e-07 8.37068e-06 0)
(-1.23551e-06 2.72937e-06 0)
(-1.25433e-07 3.20608e-07 0)
(-2.70802e-07 2.95309e-06 0)
(-8.09127e-07 2.97656e-06 0)
(-1.34232e-06 3.02303e-06 0)
(-1.87311e-06 3.09275e-06 0)
(-2.40398e-06 3.18665e-06 0)
(-2.93715e-06 3.30635e-06 0)
(-3.47457e-06 3.45423e-06 0)
(-4.01788e-06 3.63345e-06 0)
(-4.56827e-06 3.8481e-06 0)
(-5.12634e-06 4.10332e-06 0)
(-5.69184e-06 4.40547e-06 0)
(-6.2633e-06 4.76229e-06 0)
(-6.83745e-06 5.18311e-06 0)
(-7.40848e-06 5.67892e-06 0)
(-7.96694e-06 6.26236e-06 0)
(-8.49837e-06 6.94744e-06 0)
(-8.98154e-06 7.74865e-06 0)
(-9.38649e-06 8.67926e-06 0)
(-9.67266e-06 9.74798e-06 0)
(-9.78808e-06 1.09535e-05 0)
(-9.67113e-06 1.22757e-05 0)
(-9.25773e-06 1.3663e-05 0)
(-8.49793e-06 1.50163e-05 0)
(-7.38638e-06 1.61744e-05 0)
(-6.00689e-06 1.69141e-05 0)
(-4.57453e-06 1.70033e-05 0)
(-3.40907e-06 1.63888e-05 0)
(-2.6992e-06 1.55773e-05 0)
(-2.39496e-06 1.4894e-05 0)
(-2.35678e-06 1.44683e-05 0)
(-2.43724e-06 1.43392e-05 0)
(-2.5005e-06 1.44999e-05 0)
(-2.42469e-06 1.49072e-05 0)
(-2.10924e-06 1.54691e-05 0)
(-1.50404e-06 1.60066e-05 0)
(-6.85445e-07 1.61834e-05 0)
(-1.61231e-08 1.54054e-05 0)
(3.1288e-07 1.4795e-05 0)
(1.68576e-07 5.73331e-06 0)
(6.2449e-08 9.87738e-08 0)
(-2.52105e-07 3.70825e-06 0)
(-7.52792e-07 3.73527e-06 0)
(-1.24731e-06 3.78861e-06 0)
(-1.73728e-06 3.86832e-06 0)
(-2.22404e-06 3.97507e-06 0)
(-2.7086e-06 4.11015e-06 0)
(-3.19157e-06 4.27546e-06 0)
(-3.67305e-06 4.47352e-06 0)
(-4.15253e-06 4.7075e-06 0)
(-4.6287e-06 4.98118e-06 0)
(-5.09917e-06 5.29898e-06 0)
(-5.56024e-06 5.66587e-06 0)
(-6.00647e-06 6.08724e-06 0)
(-6.43026e-06 6.56867e-06 0)
(-6.82137e-06 7.11541e-06 0)
(-7.16645e-06 7.73166e-06 0)
(-7.44876e-06 8.41946e-06 0)
(-7.64814e-06 9.17703e-06 0)
(-7.74179e-06 9.9966e-06 0)
(-7.70603e-06 1.08617e-05 0)
(-7.51973e-06 1.17443e-05 0)
(-7.16971e-06 1.26027e-05 0)
(-6.65815e-06 1.33812e-05 0)
(-6.01049e-06 1.40153e-05 0)
(-5.28059e-06 1.4445e-05 0)
(-4.54674e-06 1.46382e-05 0)
(-3.8912e-06 1.46217e-05 0)
(-3.36484e-06 1.44913e-05 0)
(-2.97101e-06 1.43412e-05 0)
(-2.67988e-06 1.42346e-05 0)
(-2.44695e-06 1.42018e-05 0)
(-2.22635e-06 1.42456e-05 0)
(-1.98038e-06 1.43454e-05 0)
(-1.68729e-06 1.44612e-05 0)
(-1.34885e-06 1.45388e-05 0)
(-9.95071e-07 1.45237e-05 0)
(-6.77771e-07 1.43932e-05 0)
(-4.32795e-07 1.42255e-05 0)
(-1.89802e-07 7.06429e-06 0)
(5.86564e-08 2.22599e-08 0)
(-2.31443e-07 4.40657e-06 0)
(-6.90644e-07 4.43551e-06 0)
(-1.14286e-06 4.49252e-06 0)
(-1.58873e-06 4.57733e-06 0)
(-2.02863e-06 4.69022e-06 0)
(-2.46261e-06 4.83197e-06 0)
(-2.89028e-06 5.00379e-06 0)
(-3.31075e-06 5.20727e-06 0)
(-3.72252e-06 5.44436e-06 0)
(-4.12331e-06 5.71726e-06 0)
(-4.50997e-06 6.0283e-06 0)
(-4.87826e-06 6.37982e-06 0)
(-5.22275e-06 6.77388e-06 0)
(-5.53664e-06 7.21196e-06 0)
(-5.81175e-06 7.69452e-06 0)
(-6.03854e-06 8.22036e-06 0)
(-6.20642e-06 8.78598e-06 0)
(-6.30432e-06 9.38471e-06 0)
(-6.32167e-06 1.00059e-05 0)
(-6.24986e-06 1.06345e-05 0)
(-6.08416e-06 1.12503e-05 0)
(-5.8259e-06 1.18297e-05 0)
(-5.48444e-06 1.23467e-05 0)
(-5.07816e-06 1.27777e-05 0)
(-4.63345e-06 1.31061e-05 0)
(-4.18082e-06 1.3329e-05 0)
(-3.74822e-06 1.34598e-05 0)
(-3.35401e-06 1.35257e-05 0)
(-3.00377e-06 1.35566e-05 0)
(-2.6924e-06 1.35765e-05 0)
(-2.40859e-06 1.35998e-05 0)
(-2.13944e-06 1.36313e-05 0)
(-1.87441e-06 1.36674e-05 0)
(-1.60802e-06 1.36989e-05 0)
(-1.34108e-06 1.37149e-05 0)
(-1.07997e-06 1.37082e-05 0)
(-8.33495e-07 1.36795e-05 0)
(-6.07853e-07 1.36401e-05 0)
(-2.74207e-07 6.9445e-06 0)
(5.4908e-08 1.62507e-08 0)
(-2.0994e-07 5.044e-06 0)
(-6.26083e-07 5.07346e-06 0)
(-1.03473e-06 5.13134e-06 0)
(-1.43575e-06 5.21708e-06 0)
(-1.8288e-06 5.33055e-06 0)
(-2.21326e-06 5.47195e-06 0)
(-2.58813e-06 5.64176e-06 0)
(-2.952e-06 5.84065e-06 0)
(-3.30297e-06 6.06943e-06 0)
(-3.63853e-06 6.32888e-06 0)
(-3.95559e-06 6.61967e-06 0)
(-4.25035e-06 6.94217e-06 0)
(-4.51833e-06 7.29623e-06 0)
(-4.75441e-06 7.68095e-06 0)
(-4.95294e-06 8.09438e-06 0)
(-5.10797e-06 8.5332e-06 0)
(-5.21359e-06 8.99243e-06 0)
(-5.26445e-06 9.46518e-06 0)
(-5.2564e-06 9.94253e-06 0)
(-5.18726e-06 1.04137e-05 0)
(-5.05755e-06 1.08664e-05 0)
(-4.87119e-06 1.12879e-05 0)
(-4.63569e-06 1.16663e-05 0)
(-4.36187e-06 1.19921e-05 0)
(-4.06282e-06 1.22603e-05 0)
(-3.75207e-06 1.24709e-05 0)
(-3.44153e-06 1.26297e-05 0)
(-3.13966e-06 1.27464e-05 0)
(-2.85076e-06 1.28318e-05 0)
(-2.57543e-06 1.28957e-05 0)
(-2.31177e-06 1.29453e-05 0)
(-2.05691e-06 1.29847e-05 0)
(-1.80821e-06 1.30154e-05 0)
(-1.5642e-06 1.30374e-05 0)
(-1.32479e-06 1.30501e-05 0)
(-1.09099e-06 1.30536e-05 0)
(-8.64138e-07 1.30497e-05 0)
(-6.44987e-07 1.30414e-05 0)
(-2.92301e-07 6.56603e-06 0)
(5.15804e-08 1.46486e-08 0)
(-1.88523e-07 5.61945e-06 0)
(-5.61886e-07 5.64832e-06 0)
(-9.27573e-07 5.7049e-06 0)
(-1.2849e-06 5.78839e-06 0)
(-1.63305e-06 5.89828e-06 0)
(-1.971e-06 6.03426e-06 0)
(-2.29747e-06 6.19618e-06 0)
(-2.61086e-06 6.38395e-06 0)
(-2.90926e-06 6.59745e-06 0)
(-3.19036e-06 6.83645e-06 0)
(-3.45153e-06 7.10046e-06 0)
(-3.68974e-06 7.38864e-06 0)
(-3.9017e-06 7.69963e-06 0)
(-4.08391e-06 8.0314e-06 0)
(-4.23282e-06 8.38115e-06 0)
(-4.34503e-06 8.74512e-06 0)
(-4.41755e-06 9.1186e-06 0)
(-4.44814e-06 9.49586e-06 0)
(-4.43558e-06 9.87032e-06 0)
(-4.38005e-06 1.02348e-05 0)
(-4.28332e-06 1.05819e-05 0)
(-4.14888e-06 1.09046e-05 0)
(-3.98178e-06 1.11968e-05 0)
(-3.78831e-06 1.14544e-05 0)
(-3.57539e-06 1.1675e-05 0)
(-3.34981e-06 1.18588e-05 0)
(-3.11754e-06 1.20084e-05 0)
(-2.88314e-06 1.21274e-05 0)
(-2.64956e-06 1.22207e-05 0)
(-2.4183e-06 1.22928e-05 0)
(-2.18979e-06 1.23476e-05 0)
(-1.96382e-06 1.23883e-05 0)
(-1.74006e-06 1.24175e-05 0)
(-1.51829e-06 1.24368e-05 0)
(-1.29857e-06 1.24481e-05 0)
(-1.08123e-06 1.24528e-05 0)
(-8.66687e-07 1.24526e-05 0)
(-6.55263e-07 1.24491e-05 0)
(-2.98526e-07 6.16102e-06 0)
(4.87057e-08 1.33498e-08 0)
(-1.67878e-07 6.13415e-06 0)
(-5.00103e-07 6.16165e-06 0)
(-8.24761e-07 6.21542e-06 0)
(-1.14083e-06 6.29448e-06 0)
(-1.44721e-06 6.39802e-06 0)
(-1.74269e-06 6.52536e-06 0)
(-2.02592e-06 6.67586e-06 0)
(-2.29535e-06 6.84888e-06 0)
(-2.54926e-06 7.04367e-06 0)
(-2.78572e-06 7.25934e-06 0)
(-3.00266e-06 7.49474e-06 0)
(-3.19786e-06 7.74838e-06 0)
(-3.36908e-06 8.01836e-06 0)
(-3.51407e-06 8.30232e-06 0)
(-3.63078e-06 8.59735e-06 0)
(-3.71744e-06 8.89998e-06 0)
(-3.77273e-06 9.20625e-06 0)
(-3.79593e-06 9.51172e-06 0)
(-3.78711e-06 9.81165e-06 0)
(-3.74716e-06 1.01012e-05 0)
(-3.67786e-06 1.03758e-05 0)
(-3.58186e-06 1.0631e-05 0)
(-3.46246e-06 1.08636e-05 0)
(-3.32343e-06 1.10709e-05 0)
(-3.16868e-06 1.12518e-05 0)
(-3.00193e-06 1.1406e-05 0)
(-2.8264e-06 1.15344e-05 0)
(-2.64466e-06 1.16387e-05 0)
(-2.45851e-06 1.17211e-05 0)
(-2.26905e-06 1.1784e-05 0)
(-2.07683e-06 1.18299e-05 0)
(-1.88204e-06 1.18611e-05 0)
(-1.68471e-06 1.18802e-05 0)
(-1.48492e-06 1.18893e-05 0)
(-1.28287e-06 1.18908e-05 0)
(-1.07903e-06 1.1887e-05 0)
(-8.74122e-07 1.18799e-05 0)
(-6.69058e-07 1.18711e-05 0)
(-3.06297e-07 5.76661e-06 0)
(4.62514e-08 1.21567e-08 0)
(-1.48463e-07 6.591e-06 0)
(-4.4208e-07 6.61663e-06 0)
(-7.28467e-07 6.66666e-06 0)
(-1.00642e-06 6.73998e-06 0)
(-1.27472e-06 6.83562e-06 0)
(-1.53214e-06 6.9526e-06 0)
(-1.77736e-06 7.09e-06 0)
(-2.009e-06 7.24681e-06 0)
(-2.2256e-06 7.42192e-06 0)
(-2.42566e-06 7.61407e-06 0)
(-2.60764e-06 7.82179e-06 0)
(-2.77001e-06 8.04335e-06 0)
(-2.91132e-06 8.27672e-06 0)
(-3.03025e-06 8.51956e-06 0)
(-3.12573e-06 8.76921e-06 0)
(-3.19696e-06 9.0227e-06 0)
(-3.24353e-06 9.27682e-06 0)
(-3.26552e-06 9.52817e-06 0)
(-3.26346e-06 9.77327e-06 0)
(-3.23843e-06 1.00087e-05 0)
(-3.19198e-06 1.02314e-05 0)
(-3.12607e-06 1.04384e-05 0)
(-3.04295e-06 1.06273e-05 0)
(-2.94501e-06 1.07964e-05 0)
(-2.8346e-06 1.09446e-05 0)
(-2.71384e-06 1.10712e-05 0)
(-2.58452e-06 1.11764e-05 0)
(-2.44795e-06 1.12604e-05 0)
(-2.30493e-06 1.13243e-05 0)
(-2.15575e-06 1.13691e-05 0)
(-2.00028e-06 1.13964e-05 0)
(-1.83804e-06 1.14078e-05 0)
(-1.66841e-06 1.14057e-05 0)
(-1.49078e-06 1.13924e-05 0)
(-1.30483e-06 1.13712e-05 0)
(-1.11083e-06 1.13456e-05 0)
(-9.09903e-07 1.13196e-05 0)
(-7.04313e-07 1.12969e-05 0)
(-3.22893e-07 5.3711e-06 0)
(4.41974e-08 1.10506e-08 0)
(-1.30537e-07 6.99392e-06 0)
(-3.88568e-07 7.01744e-06 0)
(-6.39862e-07 7.06326e-06 0)
(-8.83154e-07 7.13025e-06 0)
(-1.11723e-06 7.21732e-06 0)
(-1.34089e-06 7.32337e-06 0)
(-1.55295e-06 7.44729e-06 0)
(-1.75224e-06 7.58789e-06 0)
(-1.93758e-06 7.74389e-06 0)
(-2.10783e-06 7.91389e-06 0)
(-2.26192e-06 8.09632e-06 0)
(-2.39883e-06 8.28944e-06 0)
(-2.51771e-06 8.4913e-06 0)
(-2.61786e-06 8.69978e-06 0)
(-2.69882e-06 8.91256e-06 0)
(-2.7604e-06 9.12718e-06 0)
(-2.8027e-06 9.34106e-06 0)
(-2.82618e-06 9.55158e-06 0)
(-2.83159e-06 9.75612e-06 0)
(-2.82004e-06 9.95216e-06 0)
(-2.7929e-06 1.01373e-05 0)
(-2.75174e-06 1.03095e-05 0)
(-2.69827e-06 1.04668e-05 0)
(-2.6342e-06 1.06077e-05 0)
(-2.56112e-06 1.07308e-05 0)
(-2.48042e-06 1.08352e-05 0)
(-2.39314e-06 1.09201e-05 0)
(-2.29989e-06 1.0985e-05 0)
(-2.20073e-06 1.10294e-05 0)
(-2.09511e-06 1.10532e-05 0)
(-1.98184e-06 1.10565e-05 0)
(-1.85905e-06 1.10397e-05 0)
(-1.72425e-06 1.1004e-05 0)
(-1.57448e-06 1.09513e-05 0)
(-1.40664e-06 1.08853e-05 0)
(-1.21806e-06 1.08111e-05 0)
(-1.00746e-06 1.07367e-05 0)
(-7.76287e-07 1.06727e-05 0)
(-3.49935e-07 4.91676e-06 0)
(4.25466e-08 9.9815e-09 0)
(-1.14206e-07 7.34737e-06 0)
(-3.39862e-07 7.3687e-06 0)
(-5.59364e-07 7.41021e-06 0)
(-7.71468e-07 7.47077e-06 0)
(-9.75017e-07 7.54926e-06 0)
(-1.16892e-06 7.64455e-06 0)
(-1.35213e-06 7.75544e-06 0)
(-1.52368e-06 7.88071e-06 0)
(-1.68265e-06 8.01904e-06 0)
(-1.82822e-06 8.16902e-06 0)
(-1.95963e-06 8.32912e-06 0)
(-2.07629e-06 8.49773e-06 0)
(-2.17774e-06 8.67309e-06 0)
(-2.26369e-06 8.85335e-06 0)
(-2.33409e-06 9.03657e-06 0)
(-2.38909e-06 9.22073e-06 0)
(-2.42909e-06 9.40379e-06 0)
(-2.45476e-06 9.58372e-06 0)
(-2.467e-06 9.7585e-06 0)
(-2.46692e-06 9.92621e-06 0)
(-2.45586e-06 1.0085e-05 0)
(-2.43526e-06 1.02332e-05 0)
(-2.40666e-06 1.03692e-05 0)
(-2.3716e-06 1.04915e-05 0)
(-2.33158e-06 1.05988e-05 0)
(-2.2879e-06 1.06895e-05 0)
(-2.24161e-06 1.07622e-05 0)
(-2.19336e-06 1.08155e-05 0)
(-2.14327e-06 1.08474e-05 0)
(-2.09068e-06 1.08559e-05 0)
(-2.03393e-06 1.08388e-05 0)
(-1.97001e-06 1.07935e-05 0)
(-1.89413e-06 1.07173e-05 0)
(-1.79924e-06 1.0608e-05 0)
(-1.67558e-06 1.04644e-05 0)
(-1.51042e-06 1.02879e-05 0)
(-1.28845e-06 1.00848e-05 0)
(-9.93505e-07 9.86996e-06 0)
(-4.34046e-07 4.23606e-06 0)
(4.14995e-08 8.76179e-09 0)
(-9.94659e-08 7.65595e-06 0)
(-2.95936e-07 7.67514e-06 0)
(-4.86868e-07 7.71245e-06 0)
(-6.71093e-07 7.76681e-06 0)
(-8.47544e-07 7.83713e-06 0)
(-1.01524e-06 7.92226e-06 0)
(-1.17331e-06 8.02107e-06 0)
(-1.32094e-06 8.13233e-06 0)
(-1.45743e-06 8.2548e-06 0)
(-1.58219e-06 8.38713e-06 0)
(-1.69473e-06 8.52794e-06 0)
(-1.79472e-06 8.67578e-06 0)
(-1.88196e-06 8.82914e-06 0)
(-1.95646e-06 8.98645e-06 0)
(-2.01837e-06 9.14613e-06 0)
(-2.06806e-06 9.30658e-06 0)
(-2.10611e-06 9.46621e-06 0)
(-2.13331e-06 9.62346e-06 0)
(-2.15062e-06 9.77682e-06 0)
(-2.15923e-06 9.92484e-06 0)
(-2.16047e-06 1.00662e-05 0)
(-2.15584e-06 1.01995e-05 0)
(-2.14698e-06 1.03236e-05 0)
(-2.13561e-06 1.04371e-05 0)
(-2.12354e-06 1.05389e-05 0)
(-2.11262e-06 1.06275e-05 0)
(-2.10473e-06 1.07012e-05 0)
(-2.10167e-06 1.07579e-05 0)
(-2.1051e-06 1.07951e-05 0)
(-2.11636e-06 1.08092e-05 0)
(-2.1362e-06 1.07955e-05 0)
(-2.16422e-06 1.07476e-05 0)
(-2.19804e-06 1.06567e-05 0)
(-2.23172e-06 1.05108e-05 0)
(-2.25323e-06 1.02934e-05 0)
(-2.24008e-06 9.98233e-06 0)
(-2.15208e-06 9.54703e-06 0)
(-1.91926e-06 8.94641e-06 0)
(-8.97386e-07 2.79871e-06 0)
(4.20219e-08 6.9809e-09 0)
(-8.62467e-08 7.92415e-06 0)
(-2.56562e-07 7.94133e-06 0)
(-4.21953e-07 7.9747e-06 0)
(-5.81346e-07 8.02328e-06 0)
(-7.33778e-07 8.08602e-06 0)
(-8.78393e-07 8.16186e-06 0)
(-1.01444e-06 8.24971e-06 0)
(-1.14126e-06 8.34845e-06 0)
(-1.25832e-06 8.45692e-06 0)
(-1.3652e-06 8.57392e-06 0)
(-1.46158e-06 8.69822e-06 0)
(-1.54731e-06 8.82857e-06 0)
(-1.62236e-06 8.96372e-06 0)
(-1.68688e-06 9.10238e-06 0)
(-1.74114e-06 9.2433e-06 0)
(-1.78563e-06 9.38524e-06 0)
(-1.82099e-06 9.52702e-06 0)
(-1.84803e-06 9.6675e-06 0)
(-1.86774e-06 9.80562e-06 0)
(-1.8813e-06 9.9404e-06 0)
(-1.89006e-06 1.00709e-05 0)
(-1.89554e-06 1.01964e-05 0)
(-1.89948e-06 1.03162e-05 0)
(-1.90381e-06 1.04294e-05 0)
(-1.91075e-06 1.05354e-05 0)
(-1.9228e-06 1.06336e-05 0)
(-1.9429e-06 1.07229e-05 0)
(-1.97453e-06 1.08024e-05 0)
(-2.0219e-06 1.08705e-05 0)
(-2.09027e-06 1.0925e-05 0)
(-2.18633e-06 1.09629e-05 0)
(-2.31883e-06 1.09794e-05 0)
(-2.4994e-06 1.09675e-05 0)
(-2.74392e-06 1.09166e-05 0)
(-3.07429e-06 1.08103e-05 0)
(-3.52133e-06 1.06234e-05 0)
(-4.12886e-06 1.03171e-05 0)
(-4.9593e-06 9.82983e-06 0)
(-2.73523e-06 1.54956e-06 0)
(4.71021e-08 5.76674e-09 0)
(-7.44392e-08 8.15621e-06 0)
(-2.21405e-07 8.17153e-06 0)
(-3.6403e-07 8.2013e-06 0)
(-5.01343e-07 8.24458e-06 0)
(-6.32483e-07 8.30045e-06 0)
(-7.56703e-07 8.36791e-06 0)
(-8.73358e-07 8.44598e-06 0)
(-9.81916e-07 8.53363e-06 0)
(-1.08195e-06 8.62985e-06 0)
(-1.17316e-06 8.73356e-06 0)
(-1.25534e-06 8.84374e-06 0)
(-1.32842e-06 8.95933e-06 0)
(-1.39248e-06 9.07929e-06 0)
(-1.44771e-06 9.20261e-06 0)
(-1.49444e-06 9.32833e-06 0)
(-1.53314e-06 9.45554e-06 0)
(-1.56444e-06 9.58338e-06 0)
(-1.58908e-06 9.7111e-06 0)
(-1.60799e-06 9.83803e-06 0)
(-1.62221e-06 9.96363e-06 0)
(-1.63295e-06 1.00875e-05 0)
(-1.6416e-06 1.02093e-05 0)
(-1.64974e-06 1.03289e-05 0)
(-1.65916e-06 1.04463e-05 0)
(-1.67195e-06 1.05618e-05 0)
(-1.69055e-06 1.06758e-05 0)
(-1.71789e-06 1.07888e-05 0)
(-1.75757e-06 1.09018e-05 0)
(-1.81409e-06 1.10161e-05 0)
(-1.89327e-06 1.11336e-05 0)
(-2.00284e-06 1.12567e-05 0)
(-2.15326e-06 1.13892e-05 0)
(-2.35913e-06 1.15361e-05 0)
(-2.64124e-06 1.17051e-05 0)
(-3.02982e-06 1.19076e-05 0)
(-3.56964e-06 1.21612e-05 0)
(-4.32819e-06 1.24926e-05 0)
(-5.40209e-06 1.29407e-05 0)
(-3.02725e-06 2.40581e-06 0)
(5.16283e-08 8.47685e-09 0)
(-6.39195e-08 8.35602e-06 0)
(-1.90089e-07 8.36966e-06 0)
(-3.12456e-07 8.39615e-06 0)
(-4.30145e-07 8.43467e-06 0)
(-5.42393e-07 8.48435e-06 0)
(-6.4854e-07 8.54432e-06 0)
(-7.48034e-07 8.61369e-06 0)
(-8.40424e-07 8.69156e-06 0)
(-9.25365e-07 8.77704e-06 0)
(-1.00262e-06 8.86921e-06 0)
(-1.07205e-06 8.9672e-06 0)
(-1.13363e-06 9.07013e-06 0)
(-1.18744e-06 9.17719e-06 0)
(-1.23369e-06 9.28758e-06 0)
(-1.27266e-06 9.40057e-06 0)
(-1.30476e-06 9.51551e-06 0)
(-1.33053e-06 9.63183e-06 0)
(-1.35055e-06 9.74906e-06 0)
(-1.36557e-06 9.86685e-06 0)
(-1.37639e-06 9.98499e-06 0)
(-1.38394e-06 1.01034e-05 0)
(-1.38922e-06 1.02223e-05 0)
(-1.39335e-06 1.03418e-05 0)
(-1.39757e-06 1.04628e-05 0)
(-1.4032e-06 1.05859e-05 0)
(-1.41173e-06 1.07124e-05 0)
(-1.42473e-06 1.0844e-05 0)
(-1.44395e-06 1.0983e-05 0)
(-1.47121e-06 1.11324e-05 0)
(-1.50834e-06 1.12964e-05 0)
(-1.55708e-06 1.14806e-05 0)
(-1.61865e-06 1.16924e-05 0)
(-1.69317e-06 1.19425e-05 0)
(-1.77844e-06 1.22451e-05 0)
(-1.86772e-06 1.26207e-05 0)
(-1.94589e-06 1.30978e-05 0)
(-1.98259e-06 1.37168e-05 0)
(-1.91196e-06 1.45232e-05 0)
(-9.36671e-07 2.80542e-06 0)
(3.71174e-08 1.11301e-08 0)
(-5.45631e-08 8.52713e-06 0)
(-1.62239e-07 8.53925e-06 0)
(-2.66597e-07 8.5628e-06 0)
(-3.66851e-07 8.59702e-06 0)
(-4.62319e-07 8.64116e-06 0)
(-5.52417e-07 8.69444e-06 0)
(-6.36659e-07 8.75608e-06 0)
(-7.14654e-07 8.82529e-06 0)
(-7.86105e-07 8.90128e-06 0)
(-8.50809e-07 8.9833e-06 0)
(-9.08653e-07 9.07061e-06 0)
(-9.59614e-07 9.16249e-06 0)
(-1.00375e-06 9.25827e-06 0)
(-1.04122e-06 9.35735e-06 0)
(-1.07224e-06 9.45918e-06 0)
(-1.09711e-06 9.56328e-06 0)
(-1.11621e-06 9.66928e-06 0)
(-1.12994e-06 9.7769e-06 0)
(-1.13881e-06 9.88599e-06 0)
(-1.14332e-06 9.99653e-06 0)
(-1.14402e-06 1.01086e-05 0)
(-1.14146e-06 1.02227e-05 0)
(-1.13621e-06 1.03391e-05 0)
(-1.12878e-06 1.04586e-05 0)
(-1.11963e-06 1.05823e-05 0)
(-1.1091e-06 1.07115e-05 0)
(-1.09735e-06 1.08478e-05 0)
(-1.08424e-06 1.09934e-05 0)
(-1.0692e-06 1.11509e-05 0)
(-1.05103e-06 1.13235e-05 0)
(-1.02754e-06 1.15152e-05 0)
(-9.95159e-07 1.17304e-05 0)
(-9.48317e-07 1.19744e-05 0)
(-8.78663e-07 1.22531e-05 0)
(-7.74076e-07 1.25722e-05 0)
(-6.17559e-07 1.29365e-05 0)
(-3.86223e-07 1.33481e-05 0)
(-5.00356e-08 1.37809e-05 0)
(5.20684e-08 1.69935e-06 0)
(2.41691e-08 9.83203e-09 0)
(-4.6254e-08 8.67272e-06 0)
(-1.37507e-07 8.68348e-06 0)
(-2.25872e-07 8.70437e-06 0)
(-3.10644e-07 8.73474e-06 0)
(-3.91206e-07 8.77391e-06 0)
(-4.67037e-07 8.8212e-06 0)
(-5.377e-07 8.87592e-06 0)
(-6.02845e-07 8.93739e-06 0)
(-6.62202e-07 9.00494e-06 0)
(-7.15583e-07 9.07791e-06 0)
(-7.62873e-07 9.15567e-06 0)
(-8.04029e-07 9.23765e-06 0)
(-8.39072e-07 9.3233e-06 0)
(-8.68086e-07 9.41213e-06 0)
(-8.91206e-07 9.5037e-06 0)
(-9.08612e-07 9.59767e-06 0)
(-9.20518e-07 9.69377e-06 0)
(-9.27162e-07 9.7918e-06 0)
(-9.28793e-07 9.8917e-06 0)
(-9.2565e-07 9.99349e-06 0)
(-9.17952e-07 1.00973e-05 0)
(-9.05868e-07 1.02035e-05 0)
(-8.89493e-07 1.03124e-05 0)
(-8.68815e-07 1.04247e-05 0)
(-8.43671e-07 1.0541e-05 0)
(-8.13697e-07 1.06623e-05 0)
(-7.78261e-07 1.07896e-05 0)
(-7.36389e-07 1.09243e-05 0)
(-6.86667e-07 1.10674e-05 0)
(-6.27128e-07 1.12206e-05 0)
(-5.55138e-07 1.13849e-05 0)
(-4.6727e-07 1.15616e-05 0)
(-3.59206e-07 1.17511e-05 0)
(-2.25703e-07 1.1953e-05 0)
(-6.067e-08 1.21651e-05 0)
(1.4254e-07 1.23831e-05 0)
(3.90511e-07 1.25989e-05 0)
(6.88644e-07 1.27754e-05 0)
(4.03725e-07 1.27816e-06 0)
(1.92321e-08 8.94008e-09 0)
(-3.88877e-08 8.79568e-06 0)
(-1.1558e-07 8.80521e-06 0)
(-1.89767e-07 8.82371e-06 0)
(-2.60806e-07 8.8506e-06 0)
(-3.28142e-07 8.8853e-06 0)
(-3.913e-07 8.92719e-06 0)
(-4.49882e-07 8.97569e-06 0)
(-5.03565e-07 9.03018e-06 0)
(-5.52096e-07 9.0901e-06 0)
(-5.95288e-07 9.15488e-06 0)
(-6.33015e-07 9.22398e-06 0)
(-6.65206e-07 9.29692e-06 0)
(-6.91839e-07 9.37322e-06 0)
(-7.12932e-07 9.45248e-06 0)
(-7.28538e-07 9.53435e-06 0)
(-7.38733e-07 9.61851e-06 0)
(-7.43602e-07 9.70475e-06 0)
(-7.43234e-07 9.79288e-06 0)
(-7.377e-07 9.88283e-06 0)
(-7.27043e-07 9.97458e-06 0)
(-7.11257e-07 1.00682e-05 0)
(-6.90267e-07 1.01638e-05 0)
(-6.63904e-07 1.02616e-05 0)
(-6.31885e-07 1.03619e-05 0)
(-5.93779e-07 1.0465e-05 0)
(-5.4898e-07 1.05713e-05 0)
(-4.96676e-07 1.06812e-05 0)
(-4.35824e-07 1.0795e-05 0)
(-3.65129e-07 1.0913e-05 0)
(-2.8304e-07 1.10353e-05 0)
(-1.87776e-07 1.11618e-05 0)
(-7.73936e-08 1.1292e-05 0)
(5.00771e-08 1.14249e-05 0)
(1.96397e-07 1.15586e-05 0)
(3.62747e-07 1.16908e-05 0)
(5.49177e-07 1.18178e-05 0)
(7.53839e-07 1.19349e-05 0)
(9.71978e-07 1.20122e-05 0)
(5.22867e-07 1.29448e-06 0)
(1.55712e-08 1.04964e-08 0)
(-3.23728e-08 8.89859e-06 0)
(-9.61879e-08 8.90701e-06 0)
(-1.57831e-07 8.92335e-06 0)
(-2.16721e-07 8.9471e-06 0)
(-2.72349e-07 8.97774e-06 0)
(-3.24279e-07 9.01475e-06 0)
(-3.72146e-07 9.05759e-06 0)
(-4.15646e-07 9.10575e-06 0)
(-4.54537e-07 9.15872e-06 0)
(-4.88631e-07 9.216e-06 0)
(-5.17788e-07 9.27714e-06 0)
(-5.41915e-07 9.3417e-06 0)
(-5.60952e-07 9.40927e-06 0)
(-5.74868e-07 9.47949e-06 0)
(-5.83654e-07 9.55203e-06 0)
(-5.87309e-07 9.62662e-06 0)
(-5.85835e-07 9.70301e-06 0)
(-5.79223e-07 9.78102e-06 0)
(-5.67442e-07 9.86048e-06 0)
(-5.50426e-07 9.94131e-06 0)
(-5.28061e-07 1.00234e-05 0)
(-5.00167e-07 1.01068e-05 0)
(-4.66491e-07 1.01914e-05 0)
(-4.26685e-07 1.02772e-05 0)
(-3.80296e-07 1.03642e-05 0)
(-3.26756e-07 1.04524e-05 0)
(-2.65369e-07 1.05416e-05 0)
(-1.95313e-07 1.06316e-05 0)
(-1.15646e-07 1.07221e-05 0)
(-2.53205e-08 1.08127e-05 0)
(7.67818e-08 1.09027e-05 0)
(1.91795e-07 1.09911e-05 0)
(3.20793e-07 1.10771e-05 0)
(4.64674e-07 1.11593e-05 0)
(6.24019e-07 1.12366e-05 0)
(7.98876e-07 1.13082e-05 0)
(9.88488e-07 1.13739e-05 0)
(1.19083e-06 1.14111e-05 0)
(6.35722e-07 1.36577e-06 0)
(1.26737e-08 1.32963e-08 0)
(-2.66295e-08 8.9838e-06 0)
(-7.90918e-08 8.99121e-06 0)
(-1.29677e-07 9.00558e-06 0)
(-1.77854e-07 9.02648e-06 0)
(-2.23157e-07 9.05344e-06 0)
(-2.65184e-07 9.086e-06 0)
(-3.03596e-07 9.12369e-06 0)
(-3.38107e-07 9.16606e-06 0)
(-3.68484e-07 9.21265e-06 0)
(-3.94541e-07 9.26304e-06 0)
(-4.16131e-07 9.31681e-06 0)
(-4.33144e-07 9.37356e-06 0)
(-4.45497e-07 9.43294e-06 0)
(-4.53129e-07 9.4946e-06 0)
(-4.55994e-07 9.55823e-06 0)
(-4.54053e-07 9.62354e-06 0)
(-4.47262e-07 9.69028e-06 0)
(-4.35571e-07 9.75822e-06 0)
(-4.18909e-07 9.82713e-06 0)
(-3.97178e-07 9.89683e-06 0)
(-3.70246e-07 9.96712e-06 0)
(-3.37937e-07 1.00378e-05 0)
(-3.00025e-07 1.01087e-05 0)
(-2.56229e-07 1.01796e-05 0)
(-2.06206e-07 1.02502e-05 0)
(-1.49555e-07 1.03202e-05 0)
(-8.58121e-08 1.03892e-05 0)
(-1.44549e-08 1.04567e-05 0)
(6.50935e-08 1.0522e-05 0)
(1.53463e-07 1.05844e-05 0)
(2.51343e-07 1.06429e-05 0)
(3.59499e-07 1.06964e-05 0)
(4.78837e-07 1.07437e-05 0)
(6.10515e-07 1.07832e-05 0)
(7.56181e-07 1.08133e-05 0)
(9.18405e-07 1.08323e-05 0)
(1.10145e-06 1.08379e-05 0)
(1.31255e-06 1.08043e-05 0)
(7.55755e-07 1.44865e-06 0)
(5.29225e-08 1.02891e-08 0)
(-2.15876e-08 9.05344e-06 0)
(-6.40842e-08 9.05992e-06 0)
(-1.04964e-07 9.07251e-06 0)
(-1.43739e-07 9.0908e-06 0)
(-1.79983e-07 9.1144e-06 0)
(-2.13326e-07 9.1429e-06 0)
(-2.4345e-07 9.17588e-06 0)
(-2.7009e-07 9.21294e-06 0)
(-2.93024e-07 9.25368e-06 0)
(-3.12069e-07 9.29771e-06 0)
(-3.2708e-07 9.34465e-06 0)
(-3.37942e-07 9.39416e-06 0)
(-3.44562e-07 9.44589e-06 0)
(-3.46869e-07 9.49951e-06 0)
(-3.44804e-07 9.55472e-06 0)
(-3.38315e-07 9.61122e-06 0)
(-3.27352e-07 9.66875e-06 0)
(-3.11861e-07 9.72703e-06 0)
(-2.91779e-07 9.7858e-06 0)
(-2.67028e-07 9.8448e-06 0)
(-2.37514e-07 9.90377e-06 0)
(-2.03123e-07 9.96241e-06 0)
(-1.63719e-07 1.00204e-05 0)
(-1.19146e-07 1.00775e-05 0)
(-6.92305e-08 1.01331e-05 0)
(-1.37854e-08 1.0187e-05 0)
(4.73803e-08 1.02385e-05 0)
(1.14451e-07 1.02871e-05 0)
(1.87588e-07 1.03319e-05 0)
(2.66913e-07 1.03723e-05 0)
(3.52481e-07 1.04072e-05 0)
(4.44244e-07 1.04354e-05 0)
(5.41999e-07 1.04557e-05 0)
(6.45309e-07 1.04663e-05 0)
(7.53357e-07 1.04654e-05 0)
(8.64691e-07 1.04505e-05 0)
(9.76765e-07 1.04184e-05 0)
(1.08514e-06 1.03408e-05 0)
(6.18859e-07 1.55859e-06 0)
(5.91941e-08 5.70923e-09 0)
(-1.71851e-08 9.10943e-06 0)
(-5.09803e-08 9.11507e-06 0)
(-8.3388e-08 9.12603e-06 0)
(-1.13961e-07 9.14195e-06 0)
(-1.42308e-07 9.16249e-06 0)
(-1.68087e-07 9.18727e-06 0)
(-1.91007e-07 9.21594e-06 0)
(-2.10818e-07 9.24813e-06 0)
(-2.27313e-07 9.28349e-06 0)
(-2.4032e-07 9.32167e-06 0)
(-2.49701e-07 9.36233e-06 0)
(-2.55344e-07 9.40515e-06 0)
(-2.57162e-07 9.44979e-06 0)
(-2.55084e-07 9.49596e-06 0)
(-2.49058e-07 9.54335e-06 0)
(-2.3904e-07 9.59168e-06 0)
(-2.24995e-07 9.64065e-06 0)
(-2.0689e-07 9.69e-06 0)
(-1.84695e-07 9.73943e-06 0)
(-1.5838e-07 9.78864e-06 0)
(-1.27913e-07 9.83734e-06 0)
(-9.32613e-08 9.88521e-06 0)
(-5.4394e-08 9.93189e-06 0)
(-1.12855e-08 9.97701e-06 0)
(3.60793e-08 1.00202e-05 0)
(8.76966e-08 1.00609e-05 0)
(1.43533e-07 1.00987e-05 0)
(2.03514e-07 1.01329e-05 0)
(2.67503e-07 1.01631e-05 0)
(3.35285e-07 1.01885e-05 0)
(4.06536e-07 1.02083e-05 0)
(4.80797e-07 1.02219e-05 0)
(5.57427e-07 1.02283e-05 0)
(6.35564e-07 1.02267e-05 0)
(7.14066e-07 1.02163e-05 0)
(7.9146e-07 1.01964e-05 0)
(8.65904e-07 1.01663e-05 0)
(9.35333e-07 1.01018e-05 0)
(5.35004e-07 1.69574e-06 0)
(5.90156e-08 5.54877e-09 0)
(-1.33658e-08 9.15355e-06 0)
(-3.96134e-08 9.15843e-06 0)
(-6.46759e-08 9.1679e-06 0)
(-8.81438e-08 9.18165e-06 0)
(-1.09657e-07 9.19939e-06 0)
(-1.28904e-07 9.22078e-06 0)
(-1.45614e-07 9.2455e-06 0)
(-1.59559e-07 9.27325e-06 0)
(-1.70548e-07 9.30369e-06 0)
(-1.78422e-07 9.33651e-06 0)
(-1.83055e-07 9.37141e-06 0)
(-1.84346e-07 9.40808e-06 0)
(-1.82218e-07 9.44624e-06 0)
(-1.76615e-07 9.48559e-06 0)
(-1.67499e-07 9.52585e-06 0)
(-1.54846e-07 9.56674e-06 0)
(-1.38646e-07 9.60799e-06 0)
(-1.189e-07 9.64931e-06 0)
(-9.56181e-08 9.69041e-06 0)
(-6.88223e-08 9.73102e-06 0)
(-3.85443e-08 9.77083e-06 0)
(-4.82819e-09 9.80951e-06 0)
(3.22672e-08 9.84675e-06 0)
(7.26643e-08 9.88219e-06 0)
(1.16262e-07 9.91544e-06 0)
(1.62929e-07 9.94613e-06 0)
(2.12497e-07 9.97382e-06 0)
(2.64751e-07 9.9981e-06 0)
(3.19417e-07 1.00185e-05 0)
(3.76157e-07 1.00346e-05 0)
(4.34551e-07 1.00459e-05 0)
(4.94089e-07 1.0052e-05 0)
(5.54161e-07 1.00526e-05 0)
(6.14053e-07 1.00472e-05 0)
(6.72947e-07 1.00359e-05 0)
(7.29941e-07 1.00185e-05 0)
(7.8408e-07 9.99527e-06 0)
(8.34474e-07 9.94191e-06 0)
(4.80618e-07 1.83231e-06 0)
(5.87755e-08 5.43524e-09 0)
(-1.00785e-08 9.18741e-06 0)
(-2.98315e-08 9.19159e-06 0)
(-4.85774e-08 9.1997e-06 0)
(-6.59416e-08 9.21148e-06 0)
(-8.15949e-08 9.22666e-06 0)
(-9.52508e-08 9.24495e-06 0)
(-1.06663e-07 9.26608e-06 0)
(-1.15623e-07 9.28976e-06 0)
(-1.21956e-07 9.31571e-06 0)
(-1.2552e-07 9.34365e-06 0)
(-1.26202e-07 9.37331e-06 0)
(-1.23916e-07 9.40441e-06 0)
(-1.18601e-07 9.43668e-06 0)
(-1.10216e-07 9.46987e-06 0)
(-9.87416e-08 9.50372e-06 0)
(-8.41778e-08 9.53796e-06 0)
(-6.65413e-08 9.57235e-06 0)
(-4.58658e-08 9.60662e-06 0)
(-2.22014e-08 9.64051e-06 0)
(4.38481e-09 9.67376e-06 0)
(3.38084e-08 9.70609e-06 0)
(6.59664e-08 9.73723e-06 0)
(1.00735e-07 9.76689e-06 0)
(1.37968e-07 9.79476e-06 0)
(1.77495e-07 9.82053e-06 0)
(2.19116e-07 9.84391e-06 0)
(2.62599e-07 9.86456e-06 0)
(3.07681e-07 9.88218e-06 0)
(3.54061e-07 9.89646e-06 0)
(4.01398e-07 9.90713e-06 0)
(4.49313e-07 9.91394e-06 0)
(4.9739e-07 9.91668e-06 0)
(5.45178e-07 9.91521e-06 0)
(5.92201e-07 9.90948e-06 0)
(6.3797e-07 9.89954e-06 0)
(6.82001e-07 9.88555e-06 0)
(7.23839e-07 9.86779e-06 0)
(7.63102e-07 9.82175e-06 0)
(4.42352e-07 1.9748e-06 0)
(5.80713e-08 5.34476e-09 0)
(-7.2765e-09 9.21247e-06 0)
(-2.14949e-08 9.21602e-06 0)
(-3.48622e-08 9.22289e-06 0)
(-4.7036e-08 9.23287e-06 0)
(-5.77155e-08 9.24571e-06 0)
(-6.66389e-08 9.26119e-06 0)
(-7.35818e-08 9.27904e-06 0)
(-7.83544e-08 9.29903e-06 0)
(-8.07996e-08 9.32089e-06 0)
(-8.07905e-08 9.3444e-06 0)
(-7.82287e-08 9.3693e-06 0)
(-7.30424e-08 9.39536e-06 0)
(-6.51843e-08 9.42234e-06 0)
(-5.46307e-08 9.45001e-06 0)
(-4.13799e-08 9.47814e-06 0)
(-2.54516e-08 9.50651e-06 0)
(-6.88617e-09 9.53489e-06 0)
(1.42558e-08 9.56305e-06 0)
(3.78933e-08 9.59079e-06 0)
(6.39248e-08 9.61786e-06 0)
(9.22279e-08 9.64405e-06 0)
(1.22659e-07 9.66911e-06 0)
(1.55053e-07 9.69283e-06 0)