/*--------------------------------*- C++ -*----------------------------------*\
  =========                 |
  \\      /  F ield         | OpenFOAM: The Open Source CFD Toolbox
   \\    /   O peration     | Website:  https://openfoam.org
    \\  /    A nd           | Version:  10
     \\/     M anipulation  |
\*---------------------------------------------------------------------------*/
FoamFile
{
    format      ascii;
    class       volVectorField;
    location    "12250";
    object      Ub;
}
// * * * * * * * * * * * * * * * * * * * * * * * * * * * * * * * * * * * * * //

dimensions      [0 1 -1 0 0 0 0];

internalField   nonuniform List<vector> 
3200
(
(-5.4021e-21 -9.87891e-16 0)
(-1.61596e-20 -9.87891e-16 0)
(-2.68708e-20 -9.87891e-16 0)
(-3.76286e-20 -9.8789e-16 0)
(-4.85255e-20 -9.8789e-16 0)
(-5.96573e-20 -9.8789e-16 0)
(-7.11269e-20 -9.87889e-16 0)
(-8.30488e-20 -9.87889e-16 0)
(-9.55545e-20 -9.87888e-16 0)
(-1.088e-19 -9.87887e-16 0)
(-1.22973e-19 -9.87886e-16 0)
(-1.3831e-19 -9.87885e-16 0)
(-1.55112e-19 -9.87883e-16 0)
(-1.73771e-19 -9.87881e-16 0)
(-1.94816e-19 -9.87878e-16 0)
(-2.18972e-19 -9.87874e-16 0)
(-2.47267e-19 -9.87869e-16 0)
(-2.81193e-19 -9.87862e-16 0)
(-3.22988e-19 -9.87853e-16 0)
(-3.76104e-19 -9.87838e-16 0)
(-4.46028e-19 -9.87816e-16 0)
(-5.41727e-19 -9.87782e-16 0)
(-6.78246e-19 -9.87726e-16 0)
(-8.81413e-19 -9.87633e-16 0)
(-2.51574e-12 -9.87472e-16 0)
(-3.42058e-05 -1.51343e-09 0)
(-9.10604e-05 -6.08757e-05 0)
(-0.000115847 -1.06699e-05 0)
(-0.000119079 -5.53815e-06 0)
(-0.000120916 -3.51963e-06 0)
(-0.000122221 -2.44926e-06 0)
(-0.000123229 -1.79977e-06 0)
(-0.000124042 -1.37533e-06 0)
(-0.000124717 -1.08174e-06 0)
(-0.000125289 -8.69339e-07 0)
(-0.00012578 -7.08376e-07 0)
(-0.000122509 -1.07082e-05 0)
(-0.000105999 -3.71919e-05 0)
(-7.70631e-05 -4.59249e-05 0)
(-3.98681e-05 -6.20206e-05 0)
(-5.29827e-21 -9.87875e-16 0)
(-1.58456e-20 -9.87875e-16 0)
(-2.63373e-20 -9.87875e-16 0)
(-3.68572e-20 -9.87874e-16 0)
(-4.74878e-20 -9.87873e-16 0)
(-5.83127e-20 -9.87872e-16 0)
(-6.94195e-20 -9.87871e-16 0)
(-8.09026e-20 -9.87869e-16 0)
(-9.28661e-20 -9.87867e-16 0)
(-1.05427e-19 -9.87864e-16 0)
(-1.18721e-19 -9.87861e-16 0)
(-1.32903e-19 -9.87858e-16 0)
(-1.48154e-19 -9.87853e-16 0)
(-1.64685e-19 -9.87847e-16 0)
(-1.82735e-19 -9.8784e-16 0)
(-2.02562e-19 -9.8783e-16 0)
(-2.24422e-19 -9.87818e-16 0)
(-2.48491e-19 -9.87801e-16 0)
(-2.74718e-19 -9.87779e-16 0)
(-3.02482e-19 -9.87749e-16 0)
(-3.29881e-19 -9.87706e-16 0)
(-3.5226e-19 -9.87646e-16 0)
(-3.59213e-19 -9.87558e-16 0)
(-3.28518e-19 -9.87429e-16 0)
(-2.14007e-19 -9.87236e-16 0)
(5.13444e-20 -9.86889e-16 0)
(2.21803e-19 -9.40521e-16 0)
(1.67982e-19 -8.94934e-16 0)
(8.5715e-20 -8.52943e-16 0)
(1.4923e-20 -8.13321e-16 0)
(-5.14719e-20 -7.75518e-16 0)
(-1.20169e-19 -7.39222e-16 0)
(-1.98166e-19 -7.04222e-16 0)
(-2.94271e-19 -6.70367e-16 0)
(-8.67114e-17 -6.37548e-16 0)
(-1.34406e-06 -3.92148e-14 0)
(-2.53309e-05 -1.01307e-05 0)
(-6.24274e-05 -3.6734e-05 0)
(-9.22527e-05 -4.89809e-05 0)
(-6.03594e-05 -0.000260703 0)
(-5.09992e-21 -9.8786e-16 0)
(-1.52463e-20 -9.8786e-16 0)
(-2.53206e-20 -9.87859e-16 0)
(-3.5391e-20 -9.87858e-16 0)
(-4.55225e-20 -9.87857e-16 0)
(-5.5778e-20 -9.87855e-16 0)
(-6.62201e-20 -9.87853e-16 0)
(-7.6911e-20 -9.87851e-16 0)
(-8.7913e-20 -9.87847e-16 0)
(-9.92877e-20 -9.87844e-16 0)
(-1.11094e-19 -9.87839e-16 0)
(-1.23385e-19 -9.87834e-16 0)
(-1.36199e-19 -9.87827e-16 0)
(-1.49546e-19 -9.87819e-16 0)
(-1.63389e-19 -9.87809e-16 0)
(-1.77605e-19 -9.87797e-16 0)
(-1.91926e-19 -9.87782e-16 0)
(-2.05852e-19 -9.87763e-16 0)
(-2.18507e-19 -9.8774e-16 0)
(-2.2845e-19 -9.87712e-16 0)
(-2.33421e-19 -9.87677e-16 0)
(-2.30098e-19 -9.87635e-16 0)
(-2.14047e-19 -9.87588e-16 0)
(-1.80392e-19 -9.87538e-16 0)
(-1.26503e-19 -9.87497e-16 0)
(-5.96642e-20 -9.8749e-16 0)
(-1.10114e-20 -9.87555e-16 0)
(2.15061e-21 -9.87613e-16 0)
(-6.09079e-21 -9.87648e-16 0)
(-2.39572e-20 -9.87667e-16 0)
(-4.50852e-20 -9.87672e-16 0)
(-6.51052e-20 -9.87664e-16 0)
(-7.93735e-20 -9.87642e-16 0)
(-8.08835e-20 -9.87603e-16 0)
(-5.75005e-20 -9.87543e-16 0)
(1.14893e-20 -9.87453e-16 0)
(5.55529e-20 -9.83287e-16 0)
(-5.44352e-10 -9.96046e-16 0)
(-2.43982e-06 -3.75682e-06 0)
(-1.23965e-06 -0.000409368 0)
(-4.82374e-21 -9.87846e-16 0)
(-1.44128e-20 -9.87845e-16 0)
(-2.39105e-20 -9.87845e-16 0)
(-3.33654e-20 -9.87843e-16 0)
(-4.28216e-20 -9.87842e-16 0)
(-5.23188e-20 -9.8784e-16 0)
(-6.18918e-20 -9.87837e-16 0)
(-7.15696e-20 -9.87834e-16 0)
(-8.13736e-20 -9.8783e-16 0)
(-9.13144e-20 -9.87825e-16 0)
(-1.01388e-19 -9.8782e-16 0)
(-1.11567e-19 -9.87814e-16 0)
(-1.21794e-19 -9.87806e-16 0)
(-1.31966e-19 -9.87797e-16 0)
(-1.41913e-19 -9.87787e-16 0)
(-1.5138e-19 -9.87775e-16 0)
(-1.59986e-19 -9.8776e-16 0)
(-1.672e-19 -9.87744e-16 0)
(-1.72297e-19 -9.87725e-16 0)
(-1.74353e-19 -9.87703e-16 0)
(-1.7227e-19 -9.8768e-16 0)
(-1.64906e-19 -9.87655e-16 0)
(-1.51372e-19 -9.87631e-16 0)
(-1.31572e-19 -9.8761e-16 0)
(-1.06999e-19 -9.87597e-16 0)
(-8.14851e-20 -9.87596e-16 0)
(-6.0725e-20 -9.87607e-16 0)
(-4.80804e-20 -9.87621e-16 0)
(-4.26609e-20 -9.87633e-16 0)
(-4.19808e-20 -9.87641e-16 0)
(-4.34141e-20 -9.87643e-16 0)
(-4.45409e-20 -9.8764e-16 0)
(-4.31906e-20 -9.87633e-16 0)
(-3.75715e-20 -9.87623e-16 0)
(-2.67911e-20 -9.87613e-16 0)
(-1.22097e-20 -9.8761e-16 0)
(-2.87198e-22 -9.87624e-16 0)
(5.58136e-21 -9.90361e-16 0)
(-2.25834e-07 -6.07692e-07 0)
(3.65117e-07 -0.000423482 0)
(-4.4907e-21 -9.87832e-16 0)
(-1.34093e-20 -9.87832e-16 0)
(-2.22181e-20 -9.87831e-16 0)
(-3.09458e-20 -9.8783e-16 0)
(-3.96164e-20 -9.87828e-16 0)
(-4.82478e-20 -9.87825e-16 0)
(-5.68508e-20 -9.87822e-16 0)
(-6.54273e-20 -9.87819e-16 0)
(-7.39682e-20 -9.87815e-16 0)
(-8.245e-20 -9.8781e-16 0)
(-9.08304e-20 -9.87804e-16 0)
(-9.90434e-20 -9.87798e-16 0)
(-1.06992e-19 -9.8779e-16 0)
(-1.14541e-19 -9.87782e-16 0)
(-1.21508e-19 -9.87772e-16 0)
(-1.27655e-19 -9.87761e-16 0)
(-1.32683e-19 -9.87749e-16 0)
(-1.36235e-19 -9.87735e-16 0)
(-1.37903e-19 -9.8772e-16 0)
(-1.37266e-19 -9.87705e-16 0)
(-1.33947e-19 -9.87689e-16 0)
(-1.27713e-19 -9.87674e-16 0)
(-1.186e-19 -9.8766e-16 0)
(-1.07064e-19 -9.87649e-16 0)
(-9.4062e-20 -9.87641e-16 0)
(-8.09901e-20 -9.87638e-16 0)
(-6.93131e-20 -9.87638e-16 0)
(-5.99372e-20 -9.8764e-16 0)
(-5.2922e-20 -9.87643e-16 0)
(-4.77362e-20 -9.87645e-16 0)
(-4.35869e-20 -9.87646e-16 0)
(-3.96576e-20 -9.87645e-16 0)
(-3.5276e-20 -9.87643e-16 0)
(-3.00554e-20 -9.87641e-16 0)
(-2.40269e-20 -9.8764e-16 0)
(-1.7725e-20 -9.8764e-16 0)
(-1.20889e-20 -9.87642e-16 0)
(-3.15029e-12 -9.91338e-16 0)
(-1.52517e-07 -5.65369e-07 0)
(3.60559e-07 -0.000428404 0)
(-4.12264e-21 -9.8782e-16 0)
(-1.23023e-20 -9.8782e-16 0)
(-2.03575e-20 -9.87818e-16 0)
(-2.82997e-20 -9.87817e-16 0)
(-3.61356e-20 -9.87815e-16 0)
(-4.38659e-20 -9.87812e-16 0)
(-5.14839e-20 -9.87809e-16 0)
(-5.89737e-20 -9.87806e-16 0)
(-6.63084e-20 -9.87802e-16 0)
(-7.34477e-20 -9.87797e-16 0)
(-8.03351e-20 -9.87791e-16 0)
(-8.68955e-20 -9.87785e-16 0)
(-9.30318e-20 -9.87778e-16 0)
(-9.86231e-20 -9.8777e-16 0)
(-1.03523e-19 -9.87761e-16 0)
(-1.07563e-19 -9.87752e-16 0)
(-1.10554e-19 -9.87742e-16 0)
(-1.12298e-19 -9.87731e-16 0)
(-1.12607e-19 -9.8772e-16 0)
(-1.11327e-19 -9.87709e-16 0)
(-1.08376e-19 -9.87698e-16 0)
(-1.03776e-19 -9.87688e-16 0)
(-9.76932e-20 -9.87679e-16 0)
(-9.04562e-20 -9.87671e-16 0)
(-8.25348e-20 -9.87665e-16 0)
(-7.44721e-20 -9.87661e-16 0)
(-6.67663e-20 -9.87659e-16 0)
(-5.97442e-20 -9.87658e-16 0)
(-5.35055e-20 -9.87657e-16 0)
(-4.79592e-20 -9.87657e-16 0)
(-4.29037e-20 -9.87656e-16 0)
(-3.81094e-20 -9.87656e-16 0)
(-3.33886e-20 -9.87655e-16 0)
(-2.86434e-20 -9.87654e-16 0)
(-2.38884e-20 -9.87654e-16 0)
(-1.92373e-20 -9.87654e-16 0)
(-1.48733e-20 -9.87655e-16 0)
(-5.19483e-12 -9.92017e-16 0)
(-1.55024e-07 -6.13343e-07 0)
(3.56611e-07 -0.000432855 0)
(-3.73962e-21 -9.87809e-16 0)
(-1.11523e-20 -9.87808e-16 0)
(-1.84314e-20 -9.87807e-16 0)
(-2.55747e-20 -9.87806e-16 0)
(-3.25761e-20 -9.87804e-16 0)
(-3.94243e-20 -9.87801e-16 0)
(-4.61018e-20 -9.87798e-16 0)
(-5.25834e-20 -9.87794e-16 0)
(-5.88351e-20 -9.8779e-16 0)
(-6.48125e-20 -9.87786e-16 0)
(-7.04602e-20 -9.87781e-16 0)
(-7.57106e-20 -9.87775e-16 0)
(-8.04841e-20 -9.87769e-16 0)
(-8.46893e-20 -9.87762e-16 0)
(-8.82257e-20 -9.87754e-16 0)
(-9.09872e-20 -9.87747e-16 0)
(-9.28686e-20 -9.87738e-16 0)
(-9.37745e-20 -9.8773e-16 0)
(-9.36312e-20 -9.87721e-16 0)
(-9.23995e-20 -9.87713e-16 0)
(-9.00892e-20 -9.87705e-16 0)
(-8.67695e-20 -9.87697e-16 0)
(-8.25745e-20 -9.87691e-16 0)
(-7.76971e-20 -9.87685e-16 0)
(-7.23701e-20 -9.8768e-16 0)
(-6.68349e-20 -9.87676e-16 0)
(-6.13032e-20 -9.87674e-16 0)
(-5.59261e-20 -9.87671e-16 0)
(-5.07801e-20 -9.8767e-16 0)
(-4.58756e-20 -9.87669e-16 0)
(-4.11791e-20 -9.87668e-16 0)
(-3.66392e-20 -9.87667e-16 0)
(-3.22093e-20 -9.87667e-16 0)
(-2.78628e-20 -9.87666e-16 0)
(-2.35982e-20 -9.87666e-16 0)
(-1.94335e-20 -9.87666e-16 0)
(-1.54241e-20 -9.87666e-16 0)
(-6.21688e-12 -9.92558e-16 0)
(-1.62151e-07 -6.72916e-07 0)
(3.54105e-07 -0.00043732 0)
(-3.35812e-21 -9.87798e-16 0)
(-1.00088e-20 -9.87798e-16 0)
(-1.65227e-20 -9.87797e-16 0)
(-2.28877e-20 -9.87795e-16 0)
(-2.90892e-20 -9.87793e-16 0)
(-3.51091e-20 -9.87791e-16 0)
(-4.09243e-20 -9.87788e-16 0)
(-4.65067e-20 -9.87785e-16 0)
(-5.1822e-20 -9.87781e-16 0)
(-5.68293e-20 -9.87777e-16 0)
(-6.14814e-20 -9.87772e-16 0)
(-6.57246e-20 -9.87767e-16 0)
(-6.95003e-20 -9.87761e-16 0)
(-7.27459e-20 -9.87755e-16 0)
(-7.53984e-20 -9.87749e-16 0)
(-7.73971e-20 -9.87743e-16 0)
(-7.8689e-20 -9.87736e-16 0)
(-7.92337e-20 -9.87729e-16 0)
(-7.90101e-20 -9.87723e-16 0)
(-7.80209e-20 -9.87716e-16 0)
(-7.6298e-20 -9.8771e-16 0)
(-7.39031e-20 -9.87704e-16 0)
(-7.09266e-20 -9.87699e-16 0)
(-6.74803e-20 -9.87694e-16 0)
(-6.36876e-20 -9.87691e-16 0)
(-5.96695e-20 -9.87687e-16 0)
(-5.55321e-20 -9.87685e-16 0)
(-5.13567e-20 -9.87682e-16 0)
(-4.7196e-20 -9.87681e-16 0)
(-4.30767e-20 -9.8768e-16 0)
(-3.90062e-20 -9.87679e-16 0)
(-3.49812e-20 -9.87678e-16 0)
(-3.09953e-20 -9.87677e-16 0)
(-2.70449e-20 -9.87677e-16 0)
(-2.31312e-20 -9.87677e-16 0)
(-1.92598e-20 -9.87677e-16 0)
(-1.54735e-20 -9.87677e-16 0)
(-7.11967e-12 -9.93071e-16 0)
(-1.69526e-07 -7.3679e-07 0)
(3.53677e-07 -0.00044184 0)
(-2.99038e-21 -9.87789e-16 0)
(-8.90823e-21 -9.87789e-16 0)
(-1.46913e-20 -9.87788e-16 0)
(-2.03213e-20 -9.87786e-16 0)
(-2.57788e-20 -9.87785e-16 0)
(-3.10422e-20 -9.87782e-16 0)
(-3.60873e-20 -9.8778e-16 0)
(-4.08867e-20 -9.87777e-16 0)
(-4.54095e-20 -9.87773e-16 0)
(-4.96215e-20 -9.87769e-16 0)
(-5.34857e-20 -9.87765e-16 0)
(-5.69629e-20 -9.8776e-16 0)
(-6.00126e-20 -9.87756e-16 0)
(-6.25954e-20 -9.87751e-16 0)
(-6.46744e-20 -9.87745e-16 0)
(-6.6218e-20 -9.8774e-16 0)
(-6.72028e-20 -9.87735e-16 0)
(-6.76162e-20 -9.87729e-16 0)
(-6.7459e-20 -9.87724e-16 0)
(-6.67473e-20 -9.87719e-16 0)
(-6.5513e-20 -9.87714e-16 0)
(-6.38029e-20 -9.87709e-16 0)
(-6.1676e-20 -9.87705e-16 0)
(-5.91996e-20 -9.87701e-16 0)
(-5.64431e-20 -9.87698e-16 0)
(-5.34727e-20 -9.87695e-16 0)
(-5.03461e-20 -9.87693e-16 0)
(-4.71088e-20 -9.87691e-16 0)
(-4.37929e-20 -9.8769e-16 0)
(-4.04181e-20 -9.87689e-16 0)
(-3.69941e-20 -9.87688e-16 0)
(-3.35243e-20 -9.87687e-16 0)
(-3.00095e-20 -9.87687e-16 0)
(-2.64505e-20 -9.87687e-16 0)
(-2.28515e-20 -9.87687e-16 0)
(-1.92206e-20 -9.87687e-16 0)
(-1.56098e-20 -9.87687e-16 0)
(-8.14493e-12 -9.93672e-16 0)
(-1.76757e-07 -8.13107e-07 0)
(3.55556e-07 -0.000446429 0)
(-2.64455e-21 -9.87781e-16 0)
(-7.87468e-21 -9.87781e-16 0)
(-1.2976e-20 -9.8778e-16 0)
(-1.79271e-20 -9.87778e-16 0)
(-2.27064e-20 -9.87777e-16 0)
(-2.72917e-20 -9.87775e-16 0)
(-3.16597e-20 -9.87772e-16 0)
(-3.57858e-20 -9.87769e-16 0)
(-3.96441e-20 -9.87766e-16 0)
(-4.32078e-20 -9.87763e-16 0)
(-4.64493e-20 -9.87759e-16 0)
(-4.93416e-20 -9.87755e-16 0)
(-5.18587e-20 -9.87751e-16 0)
(-5.39773e-20 -9.87747e-16 0)
(-5.5678e-20 -9.87742e-16 0)
(-5.69467e-20 -9.87738e-16 0)
(-5.77764e-20 -9.87733e-16 0)
(-5.8168e-20 -9.87729e-16 0)
(-5.81313e-20 -9.87724e-16 0)
(-5.76855e-20 -9.8772e-16 0)
(-5.6858e-20 -9.87716e-16 0)
(-5.5684e-20 -9.87713e-16 0)
(-5.42034e-20 -9.87709e-16 0)
(-5.24589e-20 -9.87706e-16 0)
(-5.04921e-20 -9.87704e-16 0)
(-4.83411e-20 -9.87701e-16 0)
(-4.60376e-20 -9.87699e-16 0)
(-4.36048e-20 -9.87698e-16 0)
(-4.10572e-20 -9.87697e-16 0)
(-3.83999e-20 -9.87696e-16 0)
(-3.56305e-20 -9.87696e-16 0)
(-3.27406e-20 -9.87695e-16 0)
(-2.9719e-20 -9.87695e-16 0)
(-2.65549e-20 -9.87696e-16 0)
(-2.32427e-20 -9.87696e-16 0)
(-1.9787e-20 -9.87696e-16 0)
(-1.62541e-20 -9.87697e-16 0)
(-9.83616e-12 -9.94679e-16 0)
(-1.8361e-07 -9.22111e-07 0)
(3.60071e-07 -0.000451101 0)
(-2.32524e-21 -9.87774e-16 0)
(-6.92149e-21 -9.87774e-16 0)
(-1.13977e-20 -9.87773e-16 0)
(-1.57314e-20 -9.87772e-16 0)
(-1.99009e-20 -9.8777e-16 0)
(-2.3885e-20 -9.87768e-16 0)
(-2.76624e-20 -9.87766e-16 0)
(-3.12123e-20 -9.87763e-16 0)
(-3.45137e-20 -9.87761e-16 0)
(-3.75464e-20 -9.87758e-16 0)
(-4.02911e-20 -9.87754e-16 0)
(-4.27298e-20 -9.87751e-16 0)
(-4.48474e-20 -9.87747e-16 0)
(-4.66314e-20 -9.87744e-16 0)
(-4.80735e-20 -9.8774e-16 0)
(-4.91704e-20 -9.87736e-16 0)
(-4.9924e-20 -9.87732e-16 0)
(-5.03421e-20 -9.87728e-16 0)
(-5.04385e-20 -9.87725e-16 0)
(-5.02328e-20 -9.87721e-16 0)
(-4.97493e-20 -9.87718e-16 0)
(-4.90163e-20 -9.87715e-16 0)
(-4.80638e-20 -9.87712e-16 0)
(-4.69224e-20 -9.8771e-16 0)
(-4.56207e-20 -9.87707e-16 0)
(-4.41832e-20 -9.87706e-16 0)
(-4.26286e-20 -9.87704e-16 0)
(-4.09675e-20 -9.87703e-16 0)
(-3.92011e-20 -9.87702e-16 0)
(-3.73198e-20 -9.87702e-16 0)
(-3.53021e-20 -9.87702e-16 0)
(-3.31149e-20 -9.87702e-16 0)
(-3.07137e-20 -9.87702e-16 0)
(-2.80459e-20 -9.87703e-16 0)
(-2.50562e-20 -9.87705e-16 0)
(-2.16971e-20 -9.87706e-16 0)
(-1.80074e-20 -9.87707e-16 0)
(-1.27487e-11 -9.96176e-16 0)
(-1.898e-07 -1.06499e-06 0)
(3.67781e-07 -0.000455867 0)
(-2.03432e-21 -9.87768e-16 0)
(-6.05389e-21 -9.87767e-16 0)
(-9.96383e-21 -9.87767e-16 0)
(-1.3742e-20 -9.87765e-16 0)
(-1.73678e-20 -9.87764e-16 0)
(-2.08217e-20 -9.87762e-16 0)
(-2.40852e-20 -9.8776e-16 0)
(-2.7141e-20 -9.87758e-16 0)
(-2.99728e-20 -9.87756e-16 0)
(-3.25657e-20 -9.87753e-16 0)
(-3.49065e-20 -9.8775e-16 0)
(-3.69846e-20 -9.87747e-16 0)
(-3.87916e-20 -9.87744e-16 0)
(-4.03227e-20 -9.87741e-16 0)
(-4.15766e-20 -9.87738e-16 0)
(-4.25563e-20 -9.87734e-16 0)
(-4.32689e-20 -9.87731e-16 0)
(-4.37261e-20 -9.87728e-16 0)
(-4.39441e-20 -9.87725e-16 0)
(-4.39428e-20 -9.87722e-16 0)
(-4.37457e-20 -9.87719e-16 0)
(-4.33788e-20 -9.87716e-16 0)
(-4.28693e-20 -9.87714e-16 0)
(-4.22449e-20 -9.87712e-16 0)
(-4.15319e-20 -9.8771e-16 0)
(-4.07538e-20 -9.87708e-16 0)
(-3.99293e-20 -9.87707e-16 0)
(-3.90699e-20 -9.87706e-16 0)
(-3.81776e-20 -9.87705e-16 0)
(-3.72408e-20 -9.87705e-16 0)
(-3.623e-20 -9.87705e-16 0)
(-3.50914e-20 -9.87706e-16 0)
(-3.37397e-20 -9.87708e-16 0)
(-3.20495e-20 -9.8771e-16 0)
(-2.98467e-20 -9.87712e-16 0)
(-2.69049e-20 -9.87715e-16 0)
(-2.30484e-20 -9.87719e-16 0)
(-1.91919e-11 -9.98929e-16 0)
(-1.9419e-07 -1.27486e-06 0)
(3.81144e-07 -0.000460738 0)
(-1.77177e-21 -9.87762e-16 0)
(-5.27144e-21 -9.87762e-16 0)
(-8.67248e-21 -9.87761e-16 0)
(-1.1954e-20 -9.8776e-16 0)
(-1.50971e-20 -9.87759e-16 0)
(-1.80843e-20 -9.87757e-16 0)
(-2.08999e-20 -9.87756e-16 0)
(-2.35296e-20 -9.87754e-16 0)
(-2.59609e-20 -9.87751e-16 0)
(-2.81832e-20 -9.87749e-16 0)
(-3.01879e-20 -9.87747e-16 0)
(-3.19689e-20 -9.87744e-16 0)
(-3.35231e-20 -9.87741e-16 0)
(-3.485e-20 -9.87738e-16 0)
(-3.59527e-20 -9.87736e-16 0)
(-3.68379e-20 -9.87733e-16 0)
(-3.75158e-20 -9.8773e-16 0)
(-3.80002e-20 -9.87727e-16 0)
(-3.83086e-20 -9.87724e-16 0)
(-3.84618e-20 -9.87722e-16 0)
(-3.84839e-20 -9.87719e-16 0)
(-3.84015e-20 -9.87717e-16 0)
(-3.82436e-20 -9.87715e-16 0)
(-3.80411e-20 -9.87713e-16 0)
(-3.78261e-20 -9.87711e-16 0)
(-3.76318e-20 -9.87709e-16 0)
(-3.74912e-20 -9.87708e-16 0)
(-3.74366e-20 -9.87707e-16 0)
(-3.74977e-20 -9.87706e-16 0)
(-3.76983e-20 -9.87706e-16 0)
(-3.80517e-20 -9.87706e-16 0)
(-3.85509e-20 -9.87707e-16 0)
(-3.91532e-20 -9.87709e-16 0)
(-3.97532e-20 -9.87711e-16 0)
(-4.01363e-20 -9.87715e-16 0)
(-3.9902e-20 -9.87721e-16 0)
(-3.85809e-20 -9.87728e-16 0)
(-5.27332e-11 -1.01175e-15 0)
(-1.91642e-07 -2.28978e-06 0)
(4.10671e-07 -0.000465729 0)
(-1.53629e-21 -9.87757e-16 0)
(-4.57008e-21 -9.87757e-16 0)
(-7.51616e-21 -9.87756e-16 0)
(-1.03554e-20 -9.87756e-16 0)
(-1.30706e-20 -9.87754e-16 0)
(-1.56466e-20 -9.87753e-16 0)
(-1.807e-20 -9.87752e-16 0)
(-2.0329e-20 -9.8775e-16 0)
(-2.24142e-20 -9.87748e-16 0)
(-2.43179e-20 -9.87746e-16 0)
(-2.60348e-20 -9.87744e-16 0)
(-2.75619e-20 -9.87741e-16 0)
(-2.88988e-20 -9.87739e-16 0)
(-3.0048e-20 -9.87736e-16 0)
(-3.10146e-20 -9.87734e-16 0)
(-3.18071e-20 -9.87731e-16 0)
(-3.24369e-20 -9.87729e-16 0)
(-3.29185e-20 -9.87726e-16 0)
(-3.32697e-20 -9.87724e-16 0)
(-3.35112e-20 -9.87721e-16 0)
(-3.36672e-20 -9.87719e-16 0)
(-3.37648e-20 -9.87717e-16 0)
(-3.3835e-20 -9.87715e-16 0)
(-3.39122e-20 -9.87713e-16 0)
(-3.40357e-20 -9.87711e-16 0)
(-3.42504e-20 -9.87709e-16 0)
(-3.46085e-20 -9.87708e-16 0)
(-3.51719e-20 -9.87706e-16 0)
(-3.60157e-20 -9.87705e-16 0)
(-3.72335e-20 -9.87704e-16 0)
(-3.89447e-20 -9.87703e-16 0)
(-4.13048e-20 -9.87703e-16 0)
(-4.45214e-20 -9.87703e-16 0)
(-4.88768e-20 -9.87704e-16 0)
(-5.47617e-20 -9.87706e-16 0)
(-6.27247e-20 -9.87709e-16 0)
(-7.49582e-20 -9.87715e-16 0)
(-4.60955e-10 -1.19758e-15 0)
(-1.62163e-07 -1.01477e-05 0)
(4.90602e-07 -0.000470832 0)
(-1.32597e-21 -9.87753e-16 0)
(-3.94384e-21 -9.87753e-16 0)
(-6.4844e-21 -9.87752e-16 0)
(-8.93031e-21 -9.87752e-16 0)
(-1.12663e-20 -9.87751e-16 0)
(-1.3479e-20 -9.87749e-16 0)
(-1.5557e-20 -9.87748e-16 0)
(-1.74907e-20 -9.87747e-16 0)
(-1.92726e-20 -9.87745e-16 0)
(-2.08972e-20 -9.87743e-16 0)
(-2.2361e-20 -9.87741e-16 0)
(-2.3663e-20 -9.87739e-16 0)
(-2.4804e-20 -9.87737e-16 0)
(-2.57878e-20 -9.87735e-16 0)
(-2.66202e-20 -9.87732e-16 0)
(-2.73096e-20 -9.8773e-16 0)
(-2.7867e-20 -9.87728e-16 0)
(-2.8306e-20 -9.87726e-16 0)
(-2.86428e-20 -9.87723e-16 0)
(-2.8896e-20 -9.87721e-16 0)
(-2.90874e-20 -9.87719e-16 0)
(-2.92415e-20 -9.87717e-16 0)
(-2.93864e-20 -9.87715e-16 0)
(-2.95542e-20 -9.87712e-16 0)
(-2.9782e-20 -9.8771e-16 0)
(-3.01134e-20 -9.87708e-16 0)
(-3.06004e-20 -9.87706e-16 0)
(-3.13072e-20 -9.87704e-16 0)
(-3.2314e-20 -9.87702e-16 0)
(-3.37245e-20 -9.877e-16 0)
(-3.56761e-20 -9.87698e-16 0)
(-3.83556e-20 -9.87696e-16 0)
(-4.20228e-20 -9.87693e-16 0)
(-4.70479e-20 -9.8769e-16 0)
(-5.39695e-20 -9.87686e-16 0)
(-6.35853e-20 -9.87682e-16 0)
(-9.3676e-20 -9.87676e-16 0)
(-5.65339e-09 -2.32775e-15 0)
(-1.3137e-07 -2.64042e-05 0)
(5.7408e-07 -0.00047601 0)
(-1.13858e-21 -9.8775e-16 0)
(-3.38602e-21 -9.87749e-16 0)
(-5.56571e-21 -9.87749e-16 0)
(-7.66209e-21 -9.87748e-16 0)
(-9.66153e-21 -9.87747e-16 0)
(-1.15523e-20 -9.87746e-16 0)
(-1.33246e-20 -9.87745e-16 0)
(-1.49703e-20 -9.87744e-16 0)
(-1.64833e-20 -9.87742e-16 0)
(-1.78594e-20 -9.87741e-16 0)
(-1.90961e-20 -9.87739e-16 0)
(-2.01931e-20 -9.87737e-16 0)
(-2.11517e-20 -9.87735e-16 0)
(-2.19754e-20 -9.87733e-16 0)
(-2.26696e-20 -9.87731e-16 0)
(-2.32415e-20 -9.87729e-16 0)
(-2.37004e-20 -9.87727e-16 0)
(-2.40571e-20 -9.87725e-16 0)
(-2.43246e-20 -9.87723e-16 0)
(-2.45174e-20 -9.87721e-16 0)
(-2.46518e-20 -9.87719e-16 0)
(-2.47459e-20 -9.87716e-16 0)
(-2.48195e-20 -9.87714e-16 0)
(-2.48946e-20 -9.87712e-16 0)
(-2.49949e-20 -9.8771e-16 0)
(-2.51468e-20 -9.87708e-16 0)
(-2.53785e-20 -9.87705e-16 0)
(-2.57208e-20 -9.87703e-16 0)
(-2.62063e-20 -9.877e-16 0)
(-2.68678e-20 -9.87697e-16 0)
(-2.77359e-20 -9.87694e-16 0)
(-2.88327e-20 -9.8769e-16 0)
(-3.01602e-20 -9.87686e-16 0)
(-3.16789e-20 -9.8768e-16 0)
(-3.32692e-20 -9.87674e-16 0)
(-3.46618e-20 -9.87665e-16 0)
(-7.6498e-20 -9.87654e-16 0)
(-5.86032e-09 -3.89322e-15 0)
(-2.1379e-07 -3.69738e-05 0)
(4.41345e-07 -0.000481296 0)
(-9.71922e-22 -9.87747e-16 0)
(-2.88994e-21 -9.87746e-16 0)
(-4.74884e-21 -9.87746e-16 0)
(-6.53464e-21 -9.87745e-16 0)
(-8.23519e-21 -9.87745e-16 0)
(-9.84009e-21 -9.87744e-16 0)
(-1.13407e-20 -9.87743e-16 0)
(-1.273e-20 -9.87741e-16 0)
(-1.40027e-20 -9.8774e-16 0)
(-1.51553e-20 -9.87738e-16 0)
(-1.61857e-20 -9.87737e-16 0)
(-1.70934e-20 -9.87735e-16 0)
(-1.78797e-20 -9.87734e-16 0)
(-1.85471e-20 -9.87732e-16 0)
(-1.90996e-20 -9.8773e-16 0)
(-1.95426e-20 -9.87728e-16 0)
(-1.98827e-20 -9.87726e-16 0)
(-2.01275e-20 -9.87724e-16 0)
(-2.02854e-20 -9.87722e-16 0)
(-2.03657e-20 -9.8772e-16 0)
(-2.03781e-20 -9.87718e-16 0)
(-2.03326e-20 -9.87716e-16 0)
(-2.02391e-20 -9.87714e-16 0)
(-2.01068e-20 -9.87712e-16 0)
(-1.99438e-20 -9.8771e-16 0)
(-1.97562e-20 -9.87708e-16 0)
(-1.95468e-20 -9.87705e-16 0)
(-1.93133e-20 -9.87703e-16 0)
(-1.90455e-20 -9.877e-16 0)
(-1.87218e-20 -9.87697e-16 0)
(-1.83034e-20 -9.87693e-16 0)
(-1.77266e-20 -9.8769e-16 0)
(-1.68922e-20 -9.87685e-16 0)
(-1.56514e-20 -9.8768e-16 0)
(-1.37885e-20 -9.87675e-16 0)
(-1.10004e-20 -9.87668e-16 0)
(-1.47801e-20 -9.87661e-16 0)
(-4.07156e-21 -4.65308e-15 0)
(-2.82607e-07 -3.67773e-05 0)
(3.07772e-07 -0.000486698 0)
(-8.23912e-22 -9.87744e-16 0)
(-2.44938e-21 -9.87744e-16 0)
(-4.02342e-21 -9.87743e-16 0)
(-5.53343e-21 -9.87743e-16 0)
(-6.96848e-21 -9.87742e-16 0)
(-8.31923e-21 -9.87741e-16 0)
(-9.57794e-21 -9.8774e-16 0)
(-1.07383e-20 -9.87739e-16 0)
(-1.17957e-20 -9.87738e-16 0)
(-1.27465e-20 -9.87737e-16 0)
(-1.35889e-20 -9.87735e-16 0)
(-1.4322e-20 -9.87734e-16 0)
(-1.49462e-20 -9.87732e-16 0)
(-1.5463e-20 -9.87731e-16 0)
(-1.58749e-20 -9.87729e-16 0)
(-1.61849e-20 -9.87728e-16 0)
(-1.6397e-20 -9.87726e-16 0)
(-1.65154e-20 -9.87724e-16 0)
(-1.65444e-20 -9.87722e-16 0)
(-1.64884e-20 -9.8772e-16 0)
(-1.63513e-20 -9.87719e-16 0)
(-1.6136e-20 -9.87717e-16 0)
(-1.58444e-20 -9.87715e-16 0)
(-1.5476e-20 -9.87713e-16 0)
(-1.50281e-20 -9.87711e-16 0)
(-1.44942e-20 -9.87709e-16 0)
(-1.3863e-20 -9.87706e-16 0)
(-1.31172e-20 -9.87704e-16 0)
(-1.22315e-20 -9.87701e-16 0)
(-1.11709e-20 -9.87699e-16 0)
(-9.88856e-21 -9.87696e-16 0)
(-8.32338e-21 -9.87693e-16 0)
(-6.39847e-21 -9.87689e-16 0)
(-4.02041e-21 -9.87686e-16 0)
(-1.0807e-21 -9.87682e-16 0)
(2.53903e-21 -9.87678e-16 0)
(6.9561e-21 -9.87674e-16 0)
(4.16086e-20 -4.98994e-15 0)
(-2.95862e-07 -3.31725e-05 0)
(2.62488e-07 -0.000492065 0)
(-6.92698e-22 -9.87742e-16 0)
(-2.05881e-21 -9.87742e-16 0)
(-3.38028e-21 -9.87741e-16 0)
(-4.64569e-21 -9.87741e-16 0)
(-5.84513e-21 -9.8774e-16 0)
(-6.97015e-21 -9.87739e-16 0)
(-8.01366e-21 -9.87739e-16 0)
(-8.9699e-21 -9.87738e-16 0)
(-9.83438e-21 -9.87737e-16 0)
(-1.06037e-20 -9.87735e-16 0)
(-1.12758e-20 -9.87734e-16 0)
(-1.18492e-20 -9.87733e-16 0)
(-1.23236e-20 -9.87732e-16 0)
(-1.26993e-20 -9.8773e-16 0)
(-1.29773e-20 -9.87729e-16 0)
(-1.31589e-20 -9.87727e-16 0)
(-1.32456e-20 -9.87726e-16 0)
(-1.32391e-20 -9.87724e-16 0)
(-1.31405e-20 -9.87722e-16 0)
(-1.29507e-20 -9.87721e-16 0)
(-1.26695e-20 -9.87719e-16 0)
(-1.22956e-20 -9.87717e-16 0)
(-1.1826e-20 -9.87716e-16 0)
(-1.12556e-20 -9.87714e-16 0)
(-1.05769e-20 -9.87712e-16 0)
(-9.77886e-21 -9.8771e-16 0)
(-8.84719e-21 -9.87708e-16 0)
(-7.76324e-21 -9.87706e-16 0)
(-6.50396e-21 -9.87704e-16 0)
(-5.04173e-21 -9.87702e-16 0)
(-3.34481e-21 -9.877e-16 0)
(-1.3786e-21 -9.87697e-16 0)
(8.92014e-22 -9.87695e-16 0)
(3.49838e-21 -9.87693e-16 0)
(6.46153e-21 -9.8769e-16 0)
(9.78238e-21 -9.87688e-16 0)
(1.3428e-20 -9.87686e-16 0)
(5.8355e-20 -5.33337e-15 0)
(-2.7669e-07 -2.87046e-05 0)
(2.27528e-07 -0.000497124 0)
(-5.7665e-22 -9.8774e-16 0)
(-1.71337e-21 -9.8774e-16 0)
(-2.81142e-21 -9.8774e-16 0)
(-3.8604e-21 -9.87739e-16 0)
(-4.85129e-21 -9.87739e-16 0)
(-5.77632e-21 -9.87738e-16 0)
(-6.62896e-21 -9.87737e-16 0)
(-7.40382e-21 -9.87736e-16 0)
(-8.09657e-21 -9.87735e-16 0)
(-8.70388e-21 -9.87734e-16 0)
(-9.22326e-21 -9.87733e-16 0)
(-9.65303e-21 -9.87732e-16 0)
(-9.99213e-21 -9.87731e-16 0)
(-1.024e-20 -9.8773e-16 0)
(-1.03965e-20 -9.87728e-16 0)
(-1.04616e-20 -9.87727e-16 0)
(-1.04353e-20 -9.87726e-16 0)
(-1.03176e-20 -9.87724e-16 0)
(-1.01077e-20 -9.87723e-16 0)
(-9.80463e-21 -9.87721e-16 0)
(-9.40623e-21 -9.8772e-16 0)
(-8.90937e-21 -9.87718e-16 0)
(-8.30951e-21 -9.87717e-16 0)
(-7.60045e-21 -9.87715e-16 0)
(-6.77414e-21 -9.87714e-16 0)
(-5.82043e-21 -9.87712e-16 0)
(-4.72696e-21 -9.87711e-16 0)
(-3.47907e-21 -9.87709e-16 0)
(-2.05998e-21 -9.87708e-16 0)
(-4.51029e-22 -9.87706e-16 0)
(1.3677e-21 -9.87704e-16 0)
(3.41641e-21 -9.87703e-16 0)
(5.71421e-21 -9.87701e-16 0)
(8.27715e-21 -9.877e-16 0)
(1.11155e-20 -9.87698e-16 0)
(1.42302e-20 -9.87697e-16 0)
(1.76077e-20 -9.87696e-16 0)
(7.39143e-20 -5.69065e-15 0)
(-1.81947e-07 -2.40133e-05 0)
(1.97188e-07 -0.000501261 0)
(-4.74345e-22 -9.87738e-16 0)
(-1.40885e-21 -9.87738e-16 0)
(-2.30992e-21 -9.87738e-16 0)
(-3.16808e-21 -9.87738e-16 0)
(-3.97504e-21 -9.87737e-16 0)
(-4.72367e-21 -9.87737e-16 0)
(-5.40789e-21 -9.87736e-16 0)
(-6.02263e-21 -9.87735e-16 0)
(-6.56373e-21 -9.87734e-16 0)
(-7.02787e-21 -9.87734e-16 0)
(-7.41245e-21 -9.87733e-16 0)
(-7.7155e-21 -9.87732e-16 0)
(-7.93554e-21 -9.8773e-16 0)
(-8.07149e-21 -9.87729e-16 0)
(-8.12253e-21 -9.87728e-16 0)
(-8.08795e-21 -9.87727e-16 0)
(-7.96699e-21 -9.87726e-16 0)
(-7.75873e-21 -9.87725e-16 0)
(-7.46193e-21 -9.87723e-16 0)
(-7.07485e-21 -9.87722e-16 0)
(-6.59512e-21 -9.87721e-16 0)
(-6.01961e-21 -9.8772e-16 0)
(-5.34429e-21 -9.87718e-16 0)
(-4.56415e-21 -9.87717e-16 0)
(-3.67311e-21 -9.87716e-16 0)
(-2.66399e-21 -9.87715e-16 0)
(-1.52855e-21 -9.87713e-16 0)
(-2.57482e-22 -9.87712e-16 0)
(1.1595e-21 -9.87711e-16 0)
(2.73361e-21 -9.8771e-16 0)
(4.47711e-21 -9.87709e-16 0)
(6.40369e-21 -9.87708e-16 0)
(8.52943e-21 -9.87707e-16 0)
(1.0875e-20 -9.87706e-16 0)
(1.34697e-20 -9.87706e-16 0)
(1.63594e-20 -9.87706e-16 0)
(1.96198e-20 -9.87705e-16 0)
(8.66217e-20 -6.06757e-15 0)
(1.16466e-10 -1.98075e-05 0)
(1.67729e-07 -0.000503374 0)
(-3.84536e-22 -9.87737e-16 0)
(-1.14152e-21 -9.87737e-16 0)
(-1.8697e-21 -9.87737e-16 0)
(-2.5604e-21 -9.87737e-16 0)
(-3.206e-21 -9.87736e-16 0)
(-3.79993e-21 -9.87736e-16 0)
(-4.33653e-21 -9.87735e-16 0)
(-4.81106e-21 -9.87734e-16 0)
(-5.21957e-21 -9.87734e-16 0)
(-5.55882e-21 -9.87733e-16 0)
(-5.82621e-21 -9.87732e-16 0)
(-6.01969e-21 -9.87731e-16 0)
(-6.13761e-21 -9.8773e-16 0)
(-6.17871e-21 -9.87729e-16 0)
(-6.14193e-21 -9.87728e-16 0)
(-6.02634e-21 -9.87727e-16 0)
(-5.83106e-21 -9.87726e-16 0)
(-5.55512e-21 -9.87725e-16 0)
(-5.19739e-21 -9.87724e-16 0)
(-4.75651e-21 -9.87723e-16 0)
(-4.23079e-21 -9.87722e-16 0)
(-3.61819e-21 -9.87721e-16 0)
(-2.91629e-21 -9.8772e-16 0)
(-2.12233e-21 -9.87719e-16 0)
(-1.23319e-21 -9.87718e-16 0)
(-2.45556e-22 -9.87717e-16 0)
(8.43975e-22 -9.87716e-16 0)
(2.03868e-21 -9.87715e-16 0)
(3.34147e-21 -9.87714e-16 0)
(4.75447e-21 -9.87714e-16 0)
(6.27867e-21 -9.87713e-16 0)
(7.91322e-21 -9.87713e-16 0)
(9.65452e-21 -9.87712e-16 0)
(1.14948e-20 -9.87712e-16 0)
(1.34194e-20 -9.87712e-16 0)
(1.54026e-20 -9.87712e-16 0)
(1.73989e-20 -9.87713e-16 0)
(7.33977e-20 -6.45657e-15 0)
(1.00963e-10 -1.65434e-05 0)
(1.50855e-07 -0.000504077 0)
(-3.06115e-22 -9.87736e-16 0)
(-9.08102e-22 -9.87736e-16 0)
(-1.48537e-21 -9.87736e-16 0)
(-2.02997e-21 -9.87736e-16 0)
(-2.5349e-21 -9.87735e-16 0)
(-2.9941e-21 -9.87735e-16 0)
(-3.40236e-21 -9.87734e-16 0)
(-3.75525e-21 -9.87734e-16 0)
(-4.04907e-21 -9.87733e-16 0)
(-4.28078e-21 -9.87732e-16 0)
(-4.44788e-21 -9.87732e-16 0)
(-4.5484e-21 -9.87731e-16 0)
(-4.58076e-21 -9.8773e-16 0)
(-4.54376e-21 -9.87729e-16 0)
(-4.43641e-21 -9.87729e-16 0)
(-4.25797e-21 -9.87728e-16 0)
(-4.00778e-21 -9.87727e-16 0)
(-3.68528e-21 -9.87726e-16 0)
(-3.28994e-21 -9.87725e-16 0)
(-2.8212e-21 -9.87724e-16 0)
(-2.27849e-21 -9.87723e-16 0)
(-1.66124e-21 -9.87722e-16 0)
(-9.6891e-22 -9.87722e-16 0)
(-2.01026e-22 -9.87721e-16 0)
(6.42673e-22 -9.8772e-16 0)
(1.56212e-21 -9.87719e-16 0)
(2.55673e-21 -9.87719e-16 0)
(3.62516e-21 -9.87718e-16 0)
(4.76498e-21 -9.87717e-16 0)
(5.97236e-21 -9.87717e-16 0)
(7.24155e-21 -9.87717e-16 0)
(8.56433e-21 -9.87716e-16 0)
(9.92933e-21 -9.87716e-16 0)
(1.13212e-20 -9.87716e-16 0)
(1.27195e-20 -9.87717e-16 0)
(1.40981e-20 -9.87717e-16 0)
(1.54242e-20 -9.87717e-16 0)
(6.64272e-20 -6.80259e-15 0)
(7.85414e-11 -1.39788e-05 0)
(1.37076e-07 -0.000504666 0)
(-2.38082e-22 -9.87735e-16 0)
(-7.05626e-22 -9.87735e-16 0)
(-1.15206e-21 -9.87735e-16 0)
(-1.57009e-21 -9.87735e-16 0)
(-1.95331e-21 -9.87735e-16 0)
(-2.29614e-21 -9.87734e-16 0)
(-2.59379e-21 -9.87734e-16 0)
(-2.84219e-21 -9.87733e-16 0)
(-3.03793e-21 -9.87733e-16 0)
(-3.17819e-21 -9.87732e-16 0)
(-3.26072e-21 -9.87732e-16 0)
(-3.28371e-21 -9.87731e-16 0)
(-3.24581e-21 -9.8773e-16 0)
(-3.14601e-21 -9.8773e-16 0)
(-2.98363e-21 -9.87729e-16 0)
(-2.75825e-21 -9.87728e-16 0)
(-2.46968e-21 -9.87727e-16 0)
(-2.11794e-21 -9.87727e-16 0)
(-1.70323e-21 -9.87726e-16 0)
(-1.22592e-21 -9.87725e-16 0)
(-6.86582e-22 -9.87724e-16 0)
(-8.60035e-23 -9.87724e-16 0)
(5.74769e-22 -9.87723e-16 0)
(1.29435e-21 -9.87722e-16 0)
(2.07095e-21 -9.87722e-16 0)
(2.90223e-21 -9.87721e-16 0)
(3.78517e-21 -9.87721e-16 0)
(4.71595e-21 -9.8772e-16 0)
(5.68972e-21 -9.8772e-16 0)
(6.70041e-21 -9.8772e-16 0)
(7.74057e-21 -9.8772e-16 0)
(8.80111e-21 -9.87719e-16 0)
(9.87116e-21 -9.87719e-16 0)
(1.0938e-20 -9.8772e-16 0)
(1.19871e-20 -9.8772e-16 0)
(1.30023e-20 -9.8772e-16 0)
(1.39666e-20 -9.8772e-16 0)
(6.10497e-20 -7.01489e-15 0)
(6.15577e-11 -1.1813e-05 0)
(1.24653e-07 -0.000505172 0)
(-1.79527e-22 -9.87735e-16 0)
(-5.31383e-22 -9.87735e-16 0)
(-8.65299e-22 -9.87735e-16 0)
(-1.1746e-21 -9.87734e-16 0)
(-1.45343e-21 -9.87734e-16 0)
(-1.69668e-21 -9.87734e-16 0)
(-1.89997e-21 -9.87733e-16 0)
(-2.05956e-21 -9.87733e-16 0)
(-2.17237e-21 -9.87733e-16 0)
(-2.23586e-21 -9.87732e-16 0)
(-2.24801e-21 -9.87732e-16 0)
(-2.2073e-21 -9.87731e-16 0)
(-2.11261e-21 -9.8773e-16 0)
(-1.96325e-21 -9.8773e-16 0)
(-1.75886e-21 -9.87729e-16 0)
(-1.49944e-21 -9.87729e-16 0)
(-1.18529e-21 -9.87728e-16 0)
(-8.16997e-22 -9.87727e-16 0)
(-3.95469e-22 -9.87727e-16 0)
(7.81057e-23 -9.87726e-16 0)
(6.02223e-22 -9.87726e-16 0)
(1.17505e-21 -9.87725e-16 0)
(1.79437e-21 -9.87725e-16 0)
(2.4576e-21 -9.87724e-16 0)
(3.16168e-21 -9.87724e-16 0)
(3.90306e-21 -9.87723e-16 0)
(4.67763e-21 -9.87723e-16 0)
(5.48067e-21 -9.87722e-16 0)