/*--------------------------------*- C++ -*----------------------------------*\
  =========                 |
  \\      /  F ield         | OpenFOAM: The Open Source CFD Toolbox
   \\    /   O peration     | Website:  https://openfoam.org
    \\  /    A nd           | Version:  10
     \\/     M anipulation  |
\*---------------------------------------------------------------------------*/
FoamFile
{
    format      ascii;
    class       volVectorField;
    location    "1100";
    object      Ua;
}
// * * * * * * * * * * * * * * * * * * * * * * * * * * * * * * * * * * * * * //

dimensions      [0 1 -1 0 0 0 0];

internalField   nonuniform List<vector> 
6400
(
(-1.20996e-08 2.45948e-09 0)
(-3.62126e-08 2.44194e-09 0)
(-6.00671e-08 2.40694e-09 0)
(-8.34922e-08 2.35466e-09 0)
(-1.06319e-07 2.28538e-09 0)
(-1.28383e-07 2.19945e-09 0)
(-1.49521e-07 2.09734e-09 0)
(-1.69578e-07 1.97959e-09 0)
(-1.88403e-07 1.84686e-09 0)
(-2.05851e-07 1.6999e-09 0)
(-2.21788e-07 1.53956e-09 0)
(-2.36086e-07 1.36682e-09 0)
(-2.48629e-07 1.18272e-09 0)
(-2.5931e-07 9.88459e-10 0)
(-2.68036e-07 7.85297e-10 0)
(-2.74726e-07 5.74619e-10 0)
(-2.79314e-07 3.57903e-10 0)
(-2.81747e-07 1.36722e-10 0)
(-2.81991e-07 -8.72674e-11 0)
(-2.80025e-07 -3.12334e-10 0)
(-2.75848e-07 -5.3668e-10 0)
(-2.69476e-07 -7.58462e-10 0)
(-2.60945e-07 -9.75799e-10 0)
(-2.50306e-07 -1.1868e-09 0)
(-2.37631e-07 -1.38958e-09 0)
(-2.2301e-07 -1.58227e-09 0)
(-2.06553e-07 -1.76307e-09 0)
(-1.88383e-07 -1.93025e-09 0)
(-1.68644e-07 -2.08216e-09 0)
(-1.47492e-07 -2.21729e-09 0)
(-1.251e-07 -2.33428e-09 0)
(-1.01653e-07 -2.43193e-09 0)
(-8.4249e-08 -2.48776e-09 0)
(-7.3304e-08 -2.51798e-09 0)
(-6.22361e-08 -2.54399e-09 0)
(-5.10637e-08 -2.56576e-09 0)
(-3.98055e-08 -2.58323e-09 0)
(-2.84804e-08 -2.59636e-09 0)
(-1.71074e-08 -2.60513e-09 0)
(-5.70568e-09 -2.60952e-09 0)
(5.70568e-09 -2.60952e-09 0)
(1.71074e-08 -2.60513e-09 0)
(2.84804e-08 -2.59636e-09 0)
(3.98055e-08 -2.58323e-09 0)
(5.10637e-08 -2.56576e-09 0)
(6.22361e-08 -2.54399e-09 0)
(7.3304e-08 -2.51798e-09 0)
(8.4249e-08 -2.48776e-09 0)
(1.01653e-07 -2.43193e-09 0)
(1.251e-07 -2.33428e-09 0)
(1.47492e-07 -2.21729e-09 0)
(1.68644e-07 -2.08216e-09 0)
(1.88383e-07 -1.93025e-09 0)
(2.06553e-07 -1.76307e-09 0)
(2.2301e-07 -1.58227e-09 0)
(2.37631e-07 -1.38958e-09 0)
(2.50306e-07 -1.1868e-09 0)
(2.60945e-07 -9.75799e-10 0)
(2.69476e-07 -7.58462e-10 0)
(2.75848e-07 -5.3668e-10 0)
(2.80025e-07 -3.12334e-10 0)
(2.81991e-07 -8.72674e-11 0)
(2.81747e-07 1.36722e-10 0)
(2.79314e-07 3.57903e-10 0)
(2.74726e-07 5.74619e-10 0)
(2.68036e-07 7.85297e-10 0)
(2.5931e-07 9.88459e-10 0)
(2.48629e-07 1.18272e-09 0)
(2.36086e-07 1.36682e-09 0)
(2.21788e-07 1.53956e-09 0)
(2.05851e-07 1.6999e-09 0)
(1.88403e-07 1.84686e-09 0)
(1.69578e-07 1.97959e-09 0)
(1.49521e-07 2.09734e-09 0)
(1.28383e-07 2.19945e-09 0)
(1.06319e-07 2.28538e-09 0)
(8.34922e-08 2.35466e-09 0)
(6.00671e-08 2.40694e-09 0)
(3.62126e-08 2.44194e-09 0)
(1.20996e-08 2.45948e-09 0)
(-1.21034e-08 7.61742e-09 0)
(-3.62238e-08 7.56308e-09 0)
(-6.00857e-08 7.45469e-09 0)
(-8.35181e-08 7.29278e-09 0)
(-1.06352e-07 7.07821e-09 0)
(-1.28423e-07 6.81209e-09 0)
(-1.49568e-07 6.49583e-09 0)
(-1.69631e-07 6.13115e-09 0)
(-1.88462e-07 5.72007e-09 0)
(-2.05917e-07 5.26492e-09 0)
(-2.21859e-07 4.76835e-09 0)
(-2.36162e-07 4.23333e-09 0)
(-2.48709e-07 3.66317e-09 0)
(-2.59395e-07 3.0615e-09 0)
(-2.68124e-07 2.43228e-09 0)
(-2.74818e-07 1.77978e-09 0)
(-2.79407e-07 1.10857e-09 0)
(-2.81842e-07 4.23537e-10 0)
(-2.82086e-07 -2.70203e-10 0)
(-2.80121e-07 -9.67279e-10 0)
(-2.75943e-07 -1.66213e-09 0)
(-2.6957e-07 -2.34904e-09 0)
(-2.61036e-07 -3.02218e-09 0)
(-2.50394e-07 -3.67571e-09 0)
(-2.37715e-07 -4.30376e-09 0)
(-2.2309e-07 -4.90058e-09 0)
(-2.06627e-07 -5.46058e-09 0)
(-1.88451e-07 -5.97836e-09 0)
(-1.68705e-07 -6.44887e-09 0)
(-1.47546e-07 -6.86743e-09 0)
(-1.25146e-07 -7.22979e-09 0)
(-1.0169e-07 -7.53224e-09 0)
(-8.42799e-08 -7.70515e-09 0)
(-7.3331e-08 -7.79874e-09 0)
(-6.2259e-08 -7.87933e-09 0)
(-5.10825e-08 -7.94675e-09 0)
(-3.98202e-08 -8.00085e-09 0)
(-2.84909e-08 -8.04153e-09 0)
(-1.71137e-08 -8.06869e-09 0)
(-5.70778e-09 -8.08229e-09 0)
(5.70778e-09 -8.08229e-09 0)
(1.71137e-08 -8.06869e-09 0)
(2.84909e-08 -8.04153e-09 0)
(3.98202e-08 -8.00085e-09 0)
(5.10825e-08 -7.94675e-09 0)
(6.2259e-08 -7.87933e-09 0)
(7.3331e-08 -7.79874e-09 0)
(8.42799e-08 -7.70515e-09 0)
(1.0169e-07 -7.53224e-09 0)
(1.25146e-07 -7.22979e-09 0)
(1.47546e-07 -6.86743e-09 0)
(1.68705e-07 -6.44887e-09 0)
(1.88451e-07 -5.97836e-09 0)
(2.06627e-07 -5.46058e-09 0)
(2.2309e-07 -4.90058e-09 0)
(2.37715e-07 -4.30376e-09 0)
(2.50394e-07 -3.67571e-09 0)
(2.61036e-07 -3.02218e-09 0)
(2.6957e-07 -2.34904e-09 0)
(2.75943e-07 -1.66213e-09 0)
(2.80121e-07 -9.67279e-10 0)
(2.82086e-07 -2.70203e-10 0)
(2.81842e-07 4.23537e-10 0)
(2.79407e-07 1.10857e-09 0)
(2.74818e-07 1.77978e-09 0)
(2.68124e-07 2.43228e-09 0)
(2.59395e-07 3.0615e-09 0)
(2.48709e-07 3.66317e-09 0)
(2.36162e-07 4.23333e-09 0)
(2.21859e-07 4.76835e-09 0)
(2.05917e-07 5.26492e-09 0)
(1.88462e-07 5.72007e-09 0)
(1.69631e-07 6.13115e-09 0)
(1.49568e-07 6.49583e-09 0)
(1.28423e-07 6.81209e-09 0)
(1.06352e-07 7.07821e-09 0)
(8.35181e-08 7.29278e-09 0)
(6.00857e-08 7.45469e-09 0)
(3.62238e-08 7.56308e-09 0)
(1.21034e-08 7.61742e-09 0)
(-1.2112e-08 1.32777e-08 0)
(-3.62496e-08 1.3183e-08 0)
(-6.01285e-08 1.29941e-08 0)
(-8.35777e-08 1.27119e-08 0)
(-1.06428e-07 1.23379e-08 0)
(-1.28515e-07 1.1874e-08 0)
(-1.49676e-07 1.13228e-08 0)
(-1.69754e-07 1.06872e-08 0)
(-1.88599e-07 9.97069e-09 0)
(-2.06067e-07 9.17736e-09 0)
(-2.22022e-07 8.31184e-09 0)
(-2.36337e-07 7.37929e-09 0)
(-2.48895e-07 6.38549e-09 0)
(-2.5959e-07 5.33676e-09 0)
(-2.68327e-07 4.23999e-09 0)
(-2.75027e-07 3.10264e-09 0)
(-2.79622e-07 1.93268e-09 0)
(-2.82061e-07 7.38592e-10 0)
(-2.82307e-07 -4.7067e-10 0)
(-2.80341e-07 -1.68576e-09 0)
(-2.76162e-07 -2.89698e-09 0)
(-2.69785e-07 -4.09436e-09 0)
(-2.61246e-07 -5.26777e-09 0)
(-2.50597e-07 -6.40698e-09 0)
(-2.37909e-07 -7.5018e-09 0)
(-2.23273e-07 -8.54218e-09 0)
(-2.06798e-07 -9.51837e-09 0)
(-1.88608e-07 -1.0421e-08 0)
(-1.68846e-07 -1.12412e-08 0)
(-1.4767e-07 -1.19708e-08 0)
(-1.25251e-07 -1.26025e-08 0)
(-1.01776e-07 -1.31298e-08 0)
(-8.43512e-08 -1.34312e-08 0)
(-7.3393e-08 -1.35944e-08 0)
(-6.23117e-08 -1.37349e-08 0)
(-5.11258e-08 -1.38524e-08 0)
(-3.98539e-08 -1.39467e-08 0)
(-2.85151e-08 -1.40176e-08 0)
(-1.71283e-08 -1.4065e-08 0)
(-5.71262e-09 -1.40887e-08 0)
(5.71262e-09 -1.40887e-08 0)
(1.71283e-08 -1.4065e-08 0)
(2.85151e-08 -1.40176e-08 0)
(3.98539e-08 -1.39467e-08 0)
(5.11258e-08 -1.38524e-08 0)
(6.23117e-08 -1.37349e-08 0)
(7.3393e-08 -1.35944e-08 0)
(8.43512e-08 -1.34312e-08 0)
(1.01776e-07 -1.31298e-08 0)
(1.25251e-07 -1.26025e-08 0)
(1.4767e-07 -1.19708e-08 0)
(1.68846e-07 -1.12412e-08 0)
(1.88608e-07 -1.0421e-08 0)
(2.06798e-07 -9.51837e-09 0)
(2.23273e-07 -8.54218e-09 0)
(2.37909e-07 -7.5018e-09 0)
(2.50597e-07 -6.40698e-09 0)
(2.61246e-07 -5.26777e-09 0)
(2.69785e-07 -4.09436e-09 0)
(2.76162e-07 -2.89698e-09 0)
(2.80341e-07 -1.68576e-09 0)
(2.82307e-07 -4.70671e-10 0)
(2.82061e-07 7.38592e-10 0)
(2.79622e-07 1.93268e-09 0)
(2.75027e-07 3.10264e-09 0)
(2.68327e-07 4.23999e-09 0)
(2.5959e-07 5.33676e-09 0)
(2.48895e-07 6.38549e-09 0)
(2.36337e-07 7.37929e-09 0)
(2.22022e-07 8.31184e-09 0)
(2.06067e-07 9.17736e-09 0)
(1.88599e-07 9.97069e-09 0)
(1.69754e-07 1.06872e-08 0)
(1.49676e-07 1.13228e-08 0)
(1.28515e-07 1.1874e-08 0)
(1.06428e-07 1.23379e-08 0)
(8.35777e-08 1.27119e-08 0)
(6.01285e-08 1.29941e-08 0)
(3.62496e-08 1.3183e-08 0)
(1.2112e-08 1.32777e-08 0)
(-1.21268e-08 1.94921e-08 0)
(-3.6294e-08 1.93531e-08 0)
(-6.02023e-08 1.90758e-08 0)
(-8.36805e-08 1.86616e-08 0)
(-1.0656e-07 1.81126e-08 0)
(-1.28674e-07 1.74318e-08 0)
(-1.49862e-07 1.66226e-08 0)
(-1.69966e-07 1.56896e-08 0)
(-1.88836e-07 1.46378e-08 0)
(-2.06327e-07 1.34733e-08 0)
(-2.22304e-07 1.22027e-08 0)
(-2.36639e-07 1.08338e-08 0)
(-2.49215e-07 9.37493e-09 0)
(-2.59926e-07 7.83541e-09 0)
(-2.68678e-07 6.22534e-09 0)
(-2.75389e-07 4.55568e-09 0)
(-2.79993e-07 2.83812e-09 0)
(-2.82437e-07 1.08513e-09 0)
(-2.82687e-07 -6.90174e-10 0)
(-2.80721e-07 -2.47405e-09 0)
(-2.76539e-07 -4.25228e-09 0)
(-2.70157e-07 -6.01022e-09 0)
(-2.61608e-07 -7.73298e-09 0)
(-2.50947e-07 -9.40556e-09 0)
(-2.38244e-07 -1.1013e-08 0)
(-2.23589e-07 -1.25405e-08 0)
(-2.07092e-07 -1.39738e-08 0)
(-1.88878e-07 -1.52991e-08 0)
(-1.69089e-07 -1.65034e-08 0)
(-1.47883e-07 -1.75747e-08 0)
(-1.25433e-07 -1.85022e-08 0)
(-1.01924e-07 -1.92764e-08 0)
(-8.44742e-08 -1.9719e-08 0)
(-7.35001e-08 -1.99585e-08 0)
(-6.24027e-08 -2.01648e-08 0)
(-5.12005e-08 -2.03374e-08 0)
(-3.99122e-08 -2.04759e-08 0)
(-2.85568e-08 -2.058e-08 0)
(-1.71533e-08 -2.06495e-08 0)
(-5.72099e-09 -2.06843e-08 0)
(5.72099e-09 -2.06843e-08 0)
(1.71533e-08 -2.06495e-08 0)
(2.85568e-08 -2.058e-08 0)
(3.99122e-08 -2.04759e-08 0)
(5.12005e-08 -2.03374e-08 0)
(6.24027e-08 -2.01648e-08 0)
(7.35001e-08 -1.99585e-08 0)
(8.44742e-08 -1.9719e-08 0)
(1.01924e-07 -1.92764e-08 0)
(1.25433e-07 -1.85022e-08 0)
(1.47883e-07 -1.75747e-08 0)
(1.69089e-07 -1.65034e-08 0)
(1.88878e-07 -1.52991e-08 0)
(2.07092e-07 -1.39738e-08 0)
(2.23589e-07 -1.25405e-08 0)
(2.38244e-07 -1.1013e-08 0)
(2.50947e-07 -9.40556e-09 0)
(2.61608e-07 -7.73298e-09 0)
(2.70157e-07 -6.01022e-09 0)
(2.76539e-07 -4.25228e-09 0)
(2.80721e-07 -2.47405e-09 0)
(2.82687e-07 -6.90174e-10 0)
(2.82437e-07 1.08513e-09 0)
(2.79993e-07 2.83812e-09 0)
(2.75389e-07 4.55568e-09 0)
(2.68678e-07 6.22534e-09 0)
(2.59926e-07 7.83541e-09 0)
(2.49215e-07 9.37493e-09 0)
(2.36639e-07 1.08338e-08 0)
(2.22304e-07 1.22027e-08 0)
(2.06327e-07 1.34733e-08 0)
(1.88836e-07 1.46378e-08 0)
(1.69966e-07 1.56896e-08 0)
(1.49862e-07 1.66226e-08 0)
(1.28674e-07 1.74318e-08 0)
(1.0656e-07 1.81126e-08 0)
(8.36805e-08 1.86616e-08 0)
(6.02023e-08 1.90758e-08 0)
(3.6294e-08 1.93531e-08 0)
(1.21268e-08 1.94921e-08 0)
(-1.21496e-08 2.6319e-08 0)
(-3.63623e-08 2.61313e-08 0)
(-6.03158e-08 2.57569e-08 0)
(-8.38386e-08 2.51977e-08 0)
(-1.06762e-07 2.44566e-08 0)
(-1.28919e-07 2.35374e-08 0)
(-1.50148e-07 2.24451e-08 0)
(-1.70292e-07 2.11855e-08 0)
(-1.892e-07 1.97655e-08 0)
(-2.06727e-07 1.81933e-08 0)
(-2.22737e-07 1.64779e-08 0)
(-2.37103e-07 1.46297e-08 0)
(-2.49707e-07 1.266e-08 0)
(-2.60443e-07 1.05814e-08 0)
(-2.69216e-07 8.40751e-09 0)
(-2.75945e-07 6.15309e-09 0)
(-2.80562e-07 3.83396e-09 0)
(-2.83016e-07 1.46693e-09 0)
(-2.83271e-07 -9.30271e-10 0)
(-2.81306e-07 -3.33911e-09 0)
(-2.7712e-07 -5.74037e-09 0)
(-2.70728e-07 -8.11428e-09 0)
(-2.62166e-07 -1.04407e-08 0)
(-2.51485e-07 -1.26995e-08 0)
(-2.38758e-07 -1.48703e-08 0)
(-2.24075e-07 -1.69332e-08 0)
(-2.07545e-07 -1.88689e-08 0)
(-1.89293e-07 -2.06588e-08 0)
(-1.69462e-07 -2.22853e-08 0)
(-1.48211e-07 -2.37322e-08 0)
(-1.25712e-07 -2.49849e-08 0)
(-1.02151e-07 -2.60305e-08 0)
(-8.46631e-08 -2.66283e-08 0)
(-7.36647e-08 -2.69519e-08 0)
(-6.25426e-08 -2.72305e-08 0)
(-5.13153e-08 -2.74636e-08 0)
(-4.00018e-08 -2.76506e-08 0)
(-2.86209e-08 -2.77913e-08 0)
(-1.71918e-08 -2.78852e-08 0)
(-5.73384e-09 -2.79322e-08 0)
(5.73383e-09 -2.79322e-08 0)
(1.71918e-08 -2.78852e-08 0)
(2.86209e-08 -2.77913e-08 0)
(4.00018e-08 -2.76506e-08 0)
(5.13153e-08 -2.74636e-08 0)
(6.25426e-08 -2.72305e-08 0)
(7.36647e-08 -2.69519e-08 0)
(8.46631e-08 -2.66283e-08 0)
(1.02151e-07 -2.60305e-08 0)
(1.25712e-07 -2.49849e-08 0)
(1.48211e-07 -2.37322e-08 0)
(1.69462e-07 -2.22853e-08 0)
(1.89293e-07 -2.06588e-08 0)
(2.07545e-07 -1.88689e-08 0)
(2.24075e-07 -1.69332e-08 0)
(2.38758e-07 -1.48703e-08 0)
(2.51485e-07 -1.26995e-08 0)
(2.62166e-07 -1.04407e-08 0)
(2.70728e-07 -8.11428e-09 0)
(2.7712e-07 -5.74037e-09 0)
(2.81306e-07 -3.33911e-09 0)
(2.83271e-07 -9.30271e-10 0)
(2.83016e-07 1.46693e-09 0)
(2.80562e-07 3.83396e-09 0)
(2.75945e-07 6.15309e-09 0)
(2.69216e-07 8.40751e-09 0)
(2.60443e-07 1.05814e-08 0)
(2.49707e-07 1.266e-08 0)
(2.37103e-07 1.46297e-08 0)
(2.22737e-07 1.64779e-08 0)
(2.06727e-07 1.81933e-08 0)
(1.892e-07 1.97655e-08 0)
(1.70292e-07 2.11855e-08 0)
(1.50148e-07 2.24451e-08 0)
(1.28919e-07 2.35374e-08 0)
(1.06762e-07 2.44566e-08 0)
(8.38386e-08 2.51977e-08 0)
(6.03158e-08 2.57569e-08 0)
(3.63623e-08 2.61313e-08 0)
(1.21496e-08 2.6319e-08 0)
(-1.21825e-08 3.38241e-08 0)
(-3.64608e-08 3.3583e-08 0)
(-6.04793e-08 3.3102e-08 0)
(-8.40663e-08 3.23835e-08 0)
(-1.07052e-07 3.14313e-08 0)
(-1.29271e-07 3.02503e-08 0)
(-1.5056e-07 2.88468e-08 0)
(-1.70761e-07 2.72282e-08 0)
(-1.89724e-07 2.54037e-08 0)
(-2.07303e-07 2.33835e-08 0)
(-2.23361e-07 2.11793e-08 0)
(-2.37772e-07 1.88044e-08 0)
(-2.50416e-07 1.62732e-08 0)
(-2.61188e-07 1.36021e-08 0)
(-2.69991e-07 1.08084e-08 0)
(-2.76746e-07 7.91115e-09 0)
(-2.81383e-07 4.93065e-09 0)
(-2.83851e-07 1.88849e-09 0)
(-2.84112e-07 -1.19254e-09 0)
(-2.82148e-07 -4.28863e-09 0)
(-2.77956e-07 -7.37506e-09 0)
(-2.71551e-07 -1.04265e-08 0)
(-2.62969e-07 -1.34169e-08 0)
(-2.52261e-07 -1.63205e-08 0)
(-2.395e-07 -1.9111e-08 0)
(-2.24776e-07 -2.1763e-08 0)
(-2.08197e-07 -2.42515e-08 0)
(-1.89891e-07 -2.65525e-08 0)
(-1.7e-07 -2.86436e-08 0)
(-1.48684e-07 -3.05038e-08 0)
(-1.26115e-07 -3.21144e-08 0)
(-1.02479e-07 -3.34588e-08 0)
(-8.49357e-08 -3.42273e-08 0)
(-7.39021e-08 -3.46434e-08 0)
(-6.27443e-08 -3.50016e-08 0)
(-5.14809e-08 -3.53013e-08 0)
(-4.01309e-08 -3.55417e-08 0)
(-2.87134e-08 -3.57226e-08 0)
(-1.72474e-08 -3.58433e-08 0)
(-5.75236e-09 -3.59038e-08 0)
(5.75236e-09 -3.59038e-08 0)
(1.72474e-08 -3.58433e-08 0)
(2.87134e-08 -3.57226e-08 0)
(4.01309e-08 -3.55417e-08 0)
(5.14809e-08 -3.53013e-08 0)
(6.27443e-08 -3.50016e-08 0)
(7.39021e-08 -3.46434e-08 0)
(8.49357e-08 -3.42273e-08 0)
(1.02479e-07 -3.34588e-08 0)
(1.26115e-07 -3.21144e-08 0)
(1.48684e-07 -3.05038e-08 0)
(1.7e-07 -2.86436e-08 0)
(1.89891e-07 -2.65525e-08 0)
(2.08197e-07 -2.42515e-08 0)
(2.24776e-07 -2.1763e-08 0)
(2.395e-07 -1.9111e-08 0)
(2.52261e-07 -1.63205e-08 0)
(2.62969e-07 -1.34169e-08 0)
(2.71551e-07 -1.04265e-08 0)
(2.77956e-07 -7.37506e-09 0)
(2.82148e-07 -4.28863e-09 0)
(2.84112e-07 -1.19254e-09 0)
(2.83851e-07 1.88849e-09 0)
(2.81383e-07 4.93065e-09 0)
(2.76746e-07 7.91115e-09 0)
(2.69991e-07 1.08084e-08 0)
(2.61188e-07 1.36021e-08 0)
(2.50416e-07 1.62732e-08 0)
(2.37772e-07 1.88044e-08 0)
(2.23361e-07 2.11793e-08 0)
(2.07303e-07 2.33835e-08 0)
(1.89724e-07 2.54037e-08 0)
(1.70761e-07 2.72282e-08 0)
(1.5056e-07 2.88468e-08 0)
(1.29271e-07 3.02503e-08 0)
(1.07052e-07 3.14313e-08 0)
(8.40663e-08 3.23835e-08 0)
(6.04793e-08 3.3102e-08 0)
(3.64608e-08 3.3583e-08 0)
(1.21825e-08 3.38241e-08 0)
(-1.2228e-08 4.20827e-08 0)
(-3.65971e-08 4.17828e-08 0)
(-6.07057e-08 4.11846e-08 0)
(-8.43817e-08 4.0291e-08 0)
(-1.07455e-07 3.91067e-08 0)
(-1.29759e-07 3.76378e-08 0)
(-1.5113e-07 3.58921e-08 0)
(-1.71411e-07 3.3879e-08 0)
(-1.90449e-07 3.16096e-08 0)
(-2.081e-07 2.90967e-08 0)
(-2.24226e-07 2.63549e-08 0)
(-2.38698e-07 2.34005e-08 0)
(-2.51398e-07 2.02518e-08 0)
(-2.62219e-07 1.69288e-08 0)
(-2.71066e-07 1.34532e-08 0)
(-2.77855e-07 9.84865e-09 0)
(-2.8252e-07 6.14035e-09 0)
(-2.85007e-07 2.35517e-09 0)
(-2.85279e-07 -1.47854e-09 0)
(-2.83316e-07 -5.33115e-09 0)
(-2.79115e-07 -9.17192e-09 0)
(-2.72692e-07 -1.29692e-08 0)
(-2.64082e-07 -1.66909e-08 0)
(-2.53336e-07 -2.03045e-08 0)
(-2.40527e-07 -2.37777e-08 0)
(-2.25746e-07 -2.70785e-08 0)
(-2.09102e-07 -3.01759e-08 0)
(-1.90721e-07 -3.30402e-08 0)
(-1.70747e-07 -3.56431e-08 0)
(-1.49339e-07 -3.79588e-08 0)
(-1.26673e-07 -3.99637e-08 0)
(-1.02934e-07 -4.16373e-08 0)
(-8.53134e-08 -4.25941e-08 0)
(-7.42311e-08 -4.3112e-08 0)
(-6.30238e-08 -4.35579e-08 0)
(-5.17105e-08 -4.3931e-08 0)
(-4.031e-08 -4.42304e-08 0)
(-2.88415e-08 -4.44555e-08 0)
(-1.73244e-08 -4.46058e-08 0)
(-5.77805e-09 -4.46811e-08 0)
(5.77805e-09 -4.46811e-08 0)
(1.73244e-08 -4.46058e-08 0)
(2.88415e-08 -4.44555e-08 0)
(4.031e-08 -4.42304e-08 0)
(5.17105e-08 -4.3931e-08 0)
(6.30238e-08 -4.35579e-08 0)
(7.42311e-08 -4.3112e-08 0)
(8.53134e-08 -4.25941e-08 0)
(1.02934e-07 -4.16373e-08 0)
(1.26673e-07 -3.99637e-08 0)
(1.49339e-07 -3.79588e-08 0)
(1.70747e-07 -3.56431e-08 0)
(1.90721e-07 -3.30402e-08 0)
(2.09102e-07 -3.01759e-08 0)
(2.25746e-07 -2.70785e-08 0)
(2.40527e-07 -2.37777e-08 0)
(2.53336e-07 -2.03045e-08 0)
(2.64082e-07 -1.66909e-08 0)
(2.72692e-07 -1.29692e-08 0)
(2.79115e-07 -9.17192e-09 0)
(2.83316e-07 -5.33115e-09 0)
(2.85279e-07 -1.47854e-09 0)
(2.85007e-07 2.35517e-09 0)
(2.8252e-07 6.14035e-09 0)
(2.77855e-07 9.84865e-09 0)
(2.71066e-07 1.34532e-08 0)
(2.62219e-07 1.69288e-08 0)
(2.51398e-07 2.02518e-08 0)
(2.38698e-07 2.34005e-08 0)
(2.24226e-07 2.63549e-08 0)
(2.081e-07 2.90967e-08 0)
(1.90449e-07 3.16096e-08 0)
(1.71411e-07 3.3879e-08 0)
(1.5113e-07 3.58921e-08 0)
(1.29759e-07 3.76378e-08 0)
(1.07455e-07 3.91067e-08 0)
(8.43817e-08 4.0291e-08 0)
(6.07057e-08 4.11846e-08 0)
(3.65971e-08 4.17828e-08 0)
(1.2228e-08 4.20827e-08 0)
(-1.22894e-08 5.11808e-08 0)
(-3.67808e-08 5.08163e-08 0)
(-6.10109e-08 5.0089e-08 0)
(-8.48068e-08 4.90028e-08 0)
(-1.07998e-07 4.75631e-08 0)
(-1.30416e-07 4.57774e-08 0)
(-1.51899e-07 4.36552e-08 0)
(-1.72287e-07 4.12078e-08 0)
(-1.91428e-07 3.84487e-08 0)
(-2.09175e-07 3.53935e-08 0)
(-2.25391e-07 3.20598e-08 0)
(-2.39947e-07 2.84676e-08 0)
(-2.52722e-07 2.46389e-08 0)
(-2.6361e-07 2.0598e-08 0)
(-2.72514e-07 1.63713e-08 0)
(-2.79352e-07 1.19876e-08 0)
(-2.84053e-07 7.47741e-09 0)
(-2.86566e-07 2.87351e-09 0)
(-2.86851e-07 -1.78971e-09 0)
(-2.8489e-07 -6.47619e-09 0)
(-2.80678e-07 -1.11485e-08 0)
(-2.74231e-07 -1.57683e-08 0)
(-2.65583e-07 -2.02963e-08 0)
(-2.54786e-07 -2.46931e-08 0)
(-2.41914e-07 -2.89192e-08 0)
(-2.27056e-07 -3.29358e-08 0)
(-2.10322e-07 -3.67051e-08 0)
(-1.91839e-07 -4.01908e-08 0)
(-1.71753e-07 -4.33586e-08 0)
(-1.50224e-07 -4.61769e-08 0)
(-1.27426e-07 -4.86172e-08 0)
(-1.03548e-07 -5.06541e-08 0)
(-8.5823e-08 -5.18187e-08 0)
(-7.46749e-08 -5.24491e-08 0)
(-6.3401e-08 -5.29919e-08 0)
(-5.20201e-08 -5.3446e-08 0)
(-4.05515e-08 -5.38104e-08 0)
(-2.90144e-08 -5.40844e-08 0)
(-1.74283e-08 -5.42674e-08 0)
(-5.81269e-09 -5.4359e-08 0)
(5.8127e-09 -5.4359e-08 0)
(1.74283e-08 -5.42674e-08 0)
(2.90144e-08 -5.40844e-08 0)
(4.05515e-08 -5.38104e-08 0)
(5.20201e-08 -5.3446e-08 0)
(6.3401e-08 -5.29919e-08 0)
(7.46749e-08 -5.24491e-08 0)
(8.5823e-08 -5.18187e-08 0)
(1.03548e-07 -5.06541e-08 0)
(1.27426e-07 -4.86172e-08 0)
(1.50224e-07 -4.61769e-08 0)
(1.71753e-07 -4.33586e-08 0)
(1.91839e-07 -4.01908e-08 0)
(2.10322e-07 -3.67051e-08 0)
(2.27056e-07 -3.29358e-08 0)
(2.41914e-07 -2.89192e-08 0)
(2.54786e-07 -2.46931e-08 0)
(2.65583e-07 -2.02963e-08 0)
(2.74231e-07 -1.57683e-08 0)
(2.80678e-07 -1.11485e-08 0)
(2.8489e-07 -6.47619e-09 0)
(2.86851e-07 -1.78971e-09 0)
(2.86566e-07 2.87351e-09 0)
(2.84053e-07 7.47741e-09 0)
(2.79352e-07 1.19876e-08 0)
(2.72514e-07 1.63713e-08 0)
(2.6361e-07 2.0598e-08 0)
(2.52722e-07 2.46389e-08 0)
(2.39947e-07 2.84676e-08 0)
(2.25391e-07 3.20598e-08 0)
(2.09175e-07 3.53935e-08 0)
(1.91428e-07 3.84487e-08 0)
(1.72287e-07 4.12078e-08 0)
(1.51899e-07 4.36552e-08 0)
(1.30416e-07 4.57774e-08 0)
(1.07998e-07 4.75631e-08 0)
(8.48068e-08 4.90028e-08 0)
(6.10109e-08 5.0089e-08 0)
(3.67808e-08 5.08163e-08 0)
(1.22894e-08 5.11808e-08 0)
(-1.23704e-08 6.12182e-08 0)
(-3.70236e-08 6.07825e-08 0)
(-6.14142e-08 5.99131e-08 0)
(-8.53685e-08 5.86147e-08 0)
(-1.08715e-07 5.68937e-08 0)
(-1.31286e-07 5.4759e-08 0)
(-1.52915e-07 5.22219e-08 0)
(-1.73445e-07 4.9296e-08 0)
(-1.92721e-07 4.59974e-08 0)
(-2.10596e-07 4.23445e-08 0)
(-2.26932e-07 3.83585e-08 0)
(-2.41597e-07 3.40631e-08 0)
(-2.54473e-07 2.94846e-08 0)
(-2.65449e-07 2.46521e-08 0)
(-2.7443e-07 1.95971e-08 0)
(-2.8133e-07 1.43538e-08 0)
(-2.86081e-07 8.95895e-09 0)
(-2.88627e-07 3.45152e-09 0)
(-2.88932e-07 -2.12728e-09 0)
(-2.86972e-07 -7.73436e-09 0)
(-2.82745e-07 -1.3325e-08 0)
(-2.76266e-07 -1.88531e-08 0)
(-2.67568e-07 -2.42718e-08 0)
(-2.56705e-07 -2.95339e-08 0)
(-2.43748e-07 -3.4592e-08 0)
(-2.28788e-07 -3.93998e-08 0)
(-2.11936e-07 -4.39118e-08 0)
(-1.9332e-07 -4.80846e-08 0)
(-1.73085e-07 -5.18771e-08 0)
(-1.51394e-07 -5.52513e-08 0)
(-1.28422e-07 -5.8173e-08 0)
(-1.0436e-07 -6.06119e-08 0)
(-8.64975e-08 -6.20064e-08 0)
(-7.52624e-08 -6.27612e-08 0)
(-6.39001e-08 -6.34112e-08 0)
(-5.243e-08 -6.39549e-08 0)
(-4.08712e-08 -6.43913e-08 0)
(-2.92432e-08 -6.47194e-08 0)
(-1.75657e-08 -6.49385e-08 0)
(-5.85856e-09 -6.50481e-08 0)
(5.85856e-09 -6.50481e-08 0)
(1.75657e-08 -6.49385e-08 0)
(2.92432e-08 -6.47194e-08 0)
(4.08712e-08 -6.43913e-08 0)
(5.243e-08 -6.39549e-08 0)
(6.39001e-08 -6.34112e-08 0)
(7.52624e-08 -6.27612e-08 0)
(8.64975e-08 -6.20064e-08 0)
(1.0436e-07 -6.06119e-08 0)
(1.28422e-07 -5.8173e-08 0)
(1.51394e-07 -5.52513e-08 0)
(1.73085e-07 -5.18771e-08 0)
(1.9332e-07 -4.80846e-08 0)
(2.11936e-07 -4.39118e-08 0)
(2.28788e-07 -3.93998e-08 0)
(2.43748e-07 -3.4592e-08 0)
(2.56705e-07 -2.95339e-08 0)
(2.67568e-07 -2.42718e-08 0)
(2.76266e-07 -1.88531e-08 0)
(2.82745e-07 -1.3325e-08 0)
(2.86972e-07 -7.73436e-09 0)
(2.88932e-07 -2.12729e-09 0)
(2.88627e-07 3.45152e-09 0)
(2.86081e-07 8.95895e-09 0)
(2.8133e-07 1.43538e-08 0)
(2.7443e-07 1.95971e-08 0)
(2.65449e-07 2.46521e-08 0)
(2.54473e-07 2.94846e-08 0)
(2.41597e-07 3.40631e-08 0)
(2.26932e-07 3.83585e-08 0)
(2.10596e-07 4.23445e-08 0)
(1.92721e-07 4.59974e-08 0)
(1.73445e-07 4.9296e-08 0)
(1.52915e-07 5.22219e-08 0)
(1.31286e-07 5.4759e-08 0)
(1.08715e-07 5.68937e-08 0)
(8.53685e-08 5.86147e-08 0)
(6.14142e-08 5.99131e-08 0)
(3.70236e-08 6.07825e-08 0)
(1.23704e-08 6.12182e-08 0)
(-1.2476e-08 7.23113e-08 0)
(-3.73399e-08 7.1797e-08 0)
(-6.19395e-08 7.0771e-08 0)
(-8.61002e-08 6.92385e-08 0)
(-1.09649e-07 6.72072e-08 0)
(-1.32418e-07 6.46877e-08 0)
(-1.54239e-07 6.1693e-08 0)
(-1.74954e-07 5.82392e-08 0)
(-1.94406e-07 5.43451e-08 0)
(-2.12447e-07 5.00327e-08 0)
(-2.28939e-07 4.53266e-08 0)
(-2.43748e-07 4.02549e-08 0)
(-2.56754e-07 3.48485e-08 0)
(-2.67846e-07 2.91416e-08 0)
(-2.76926e-07 2.31714e-08 0)
(-2.83909e-07 1.69783e-08 0)
(-2.88723e-07 1.06056e-08 0)
(-2.91315e-07 4.09923e-09 0)
(-2.91643e-07 -2.4921e-09 0)
(-2.89687e-07 -9.11751e-09 0)
(-2.85441e-07 -1.57241e-08 0)
(-2.7892e-07 -2.22576e-08 0)
(-2.70158e-07 -2.86624e-08 0)
(-2.59207e-07 -3.48826e-08 0)
(-2.4614e-07 -4.08623e-08 0)
(-2.31048e-07 -4.65466e-08 0)
(-2.14042e-07 -5.18816e-08 0)
(-1.95252e-07 -5.68159e-08 0)
(-1.74823e-07 -6.13008e-08 0)
(-1.52921e-07 -6.52914e-08 0)
(-1.29722e-07 -6.8747e-08 0)
(-1.0542e-07 -7.16317e-08 0)
(-8.73777e-08 -7.32811e-08 0)
(-7.60289e-08 -7.41739e-08 0)
(-6.45515e-08 -7.49427e-08 0)
(-5.29648e-08 -7.55859e-08 0)
(-4.12883e-08 -7.61021e-08 0)
(-2.95418e-08 -7.64902e-08 0)
(-1.77452e-08 -7.67494e-08 0)
(-5.9184e-09 -7.68791e-08 0)
(5.9184e-09 -7.68791e-08 0)
(1.77452e-08 -7.67494e-08 0)
(2.95418e-08 -7.64902e-08 0)
(4.12883e-08 -7.61021e-08 0)
(5.29648e-08 -7.55859e-08 0)
(6.45515e-08 -7.49427e-08 0)
(7.60289e-08 -7.41739e-08 0)
(8.73777e-08 -7.32811e-08 0)
(1.0542e-07 -7.16317e-08 0)
(1.29722e-07 -6.8747e-08 0)
(1.52921e-07 -6.52914e-08 0)
(1.74823e-07 -6.13008e-08 0)
(1.95252e-07 -5.68159e-08 0)
(2.14042e-07 -5.18816e-08 0)
(2.31048e-07 -4.65466e-08 0)
(2.4614e-07 -4.08623e-08 0)
(2.59207e-07 -3.48826e-08 0)
(2.70158e-07 -2.86624e-08 0)
(2.7892e-07 -2.22576e-08 0)
(2.85441e-07 -1.57241e-08 0)
(2.89687e-07 -9.11751e-09 0)
(2.91643e-07 -2.4921e-09 0)
(2.91315e-07 4.09923e-09 0)
(2.88723e-07 1.06056e-08 0)
(2.83909e-07 1.69783e-08 0)
(2.76926e-07 2.31714e-08 0)
(2.67846e-07 2.91416e-08 0)
(2.56754e-07 3.48485e-08 0)
(2.43748e-07 4.02549e-08 0)
(2.28939e-07 4.53266e-08 0)
(2.12447e-07 5.00327e-08 0)
(1.94406e-07 5.43451e-08 0)
(1.74954e-07 5.82392e-08 0)
(1.54239e-07 6.1693e-08 0)
(1.32418e-07 6.46877e-08 0)
(1.09649e-07 6.72072e-08 0)
(8.61002e-08 6.92385e-08 0)
(6.19395e-08 7.0771e-08 0)
(3.73399e-08 7.1797e-08 0)
(1.2476e-08 7.23113e-08 0)
(-1.2612e-08 8.45974e-08 0)
(-3.77471e-08 8.39964e-08 0)
(-6.2616e-08 8.27974e-08 0)
(-8.70425e-08 8.10064e-08 0)
(-1.10853e-07 7.86324e-08 0)
(-1.33876e-07 7.56876e-08 0)
(-1.55944e-07 7.21873e-08 0)
(-1.76897e-07 6.81501e-08 0)
(-1.96576e-07 6.3598e-08 0)
(-2.14832e-07 5.85563e-08 0)
(-2.31524e-07 5.3054e-08 0)
(-2.46519e-07 4.71236e-08 0)
(-2.59693e-07 4.08012e-08 0)
(-2.70934e-07 3.41266e-08 0)
(-2.80143e-07 2.71434e-08 0)
(-2.87233e-07 1.98985e-08 0)
(-2.9213e-07 1.24426e-08 0)
(-2.9478e-07 4.82933e-09 0)
(-2.9514e-07 -2.88436e-09 0)
(-2.93188e-07 -1.06389e-08 0)
(-2.88918e-07 -1.83725e-08 0)
(-2.82344e-07 -2.60214e-08 0)
(-2.73499e-07 -3.35207e-08 0)
(-2.62436e-07 -4.08048e-08 0)
(-2.49227e-07 -4.78081e-08 0)
(-2.33964e-07 -5.44661e-08 0)
(-2.1676e-07 -6.07157e-08 0)
(-1.97745e-07 -6.64965e-08 0)
(-1.77067e-07 -7.17514e-08 0)
(-1.54892e-07 -7.64274e-08 0)
(-1.314e-07 -8.04768e-08 0)
(-1.06788e-07 -8.38575e-08 0)
(-8.8514e-08 -8.57905e-08 0)
(-7.70186e-08 -8.68369e-08 0)
(-6.53925e-08 -8.7738e-08 0)
(-5.36553e-08 -8.84918e-08 0)
(-4.18269e-08 -8.90968e-08 0)
(-2.99273e-08 -8.95517e-08 0)
(-1.79768e-08 -8.98554e-08 0)
(-5.99567e-09 -9.00075e-08 0)
(5.99567e-09 -9.00075e-08 0)
(1.79768e-08 -8.98554e-08 0)
(2.99273e-08 -8.95517e-08 0)
(4.18269e-08 -8.90968e-08 0)
(5.36553e-08 -8.84918e-08 0)
(6.53925e-08 -8.7738e-08 0)
(7.70186e-08 -8.68369e-08 0)
(8.8514e-08 -8.57905e-08 0)
(1.06788e-07 -8.38575e-08 0)
(1.314e-07 -8.04768e-08 0)
(1.54892e-07 -7.64274e-08 0)
(1.77067e-07 -7.17514e-08 0)
(1.97745e-07 -6.64965e-08 0)
(2.1676e-07 -6.07157e-08 0)
(2.33964e-07 -5.44661e-08 0)
(2.49227e-07 -4.78081e-08 0)
(2.62436e-07 -4.08048e-08 0)
(2.73499e-07 -3.35207e-08 0)
(2.82344e-07 -2.60214e-08 0)
(2.88918e-07 -1.83725e-08 0)
(2.93188e-07 -1.06389e-08 0)
(2.9514e-07 -2.88436e-09 0)
(2.9478e-07 4.82933e-09 0)
(2.9213e-07 1.24426e-08 0)
(2.87233e-07 1.98985e-08 0)
(2.80143e-07 2.71434e-08 0)
(2.70934e-07 3.41266e-08 0)
(2.59693e-07 4.08012e-08 0)
(2.46519e-07 4.71236e-08 0)
(2.31524e-07 5.3054e-08 0)
(2.14832e-07 5.85563e-08 0)
(1.96576e-07 6.3598e-08 0)
(1.76897e-07 6.81501e-08 0)
(1.55944e-07 7.21873e-08 0)
(1.33876e-07 7.56876e-08 0)
(1.10853e-07 7.86324e-08 0)
(8.70425e-08 8.10064e-08 0)
(6.2616e-08 8.27974e-08 0)
(3.77471e-08 8.39964e-08 0)
(1.2612e-08 8.45974e-08 0)
(-1.27856e-08 9.82403e-08 0)
(-3.8267e-08 9.75433e-08 0)
(-6.34796e-08 9.61529e-08 0)
(-8.82456e-08 9.40758e-08 0)
(-1.12389e-07 9.13225e-08 0)
(-1.35737e-07 8.7907e-08 0)
(-1.58122e-07 8.3847e-08 0)
(-1.79378e-07 7.91638e-08 0)
(-1.99347e-07 7.38829e-08 0)
(-2.17879e-07 6.80334e-08 0)
(-2.34828e-07 6.16487e-08 0)
(-2.50059e-07 5.47664e-08 0)
(-2.63449e-07 4.74282e-08 0)
(-2.74881e-07 3.96802e-08 0)
(-2.84255e-07 3.15727e-08 0)
(-2.91481e-07 2.31602e-08 0)
(-2.96486e-07 1.45012e-08 0)
(-2.9921e-07 5.65808e-09 0)
(-2.99611e-07 -3.3032e-09 0)
(-2.97665e-07 -1.23135e-08 0)
(-2.93365e-07 -2.13009e-08 0)
(-2.86723e-07 -3.01914e-08 0)
(-2.77773e-07 -3.89093e-08 0)
(-2.66567e-07 -4.73785e-08 0)
(-2.53177e-07 -5.55225e-08 0)
(-2.37697e-07 -6.3266e-08 0)
(-2.20239e-07 -7.05356e-08 0)
(-2.00936e-07 -7.72608e-08 0)
(-1.79939e-07 -8.33748e-08 0)
(-1.57415e-07 -8.8816e-08 0)
(-1.3355e-07 -9.35283e-08 0)
(-1.0854e-07 -9.74629e-08 0)
(-8.99693e-08 -9.97128e-08 0)
(-7.82862e-08 -1.00931e-07 0)
(-6.64696e-08 -1.0198e-07 0)
(-5.45397e-08 -1.02857e-07 0)
(-4.25167e-08 -1.03561e-07 0)
(-3.04211e-08 -1.04091e-07 0)
(-1.82735e-08 -1.04444e-07 0)
(-6.09464e-09 -1.04621e-07 0)
(6.09464e-09 -1.04621e-07 0)
(1.82735e-08 -1.04444e-07 0)
(3.04211e-08 -1.04091e-07 0)
(4.25167e-08 -1.03561e-07 0)
(5.45397e-08 -1.02857e-07 0)
(6.64696e-08 -1.0198e-07 0)
(7.82862e-08 -1.00931e-07 0)
(8.99693e-08 -9.97128e-08 0)
(1.0854e-07 -9.74629e-08 0)
(1.3355e-07 -9.35283e-08 0)
(1.57415e-07 -8.8816e-08 0)
(1.79939e-07 -8.33748e-08 0)
(2.00936e-07 -7.72608e-08 0)
(2.20239e-07 -7.05356e-08 0)
(2.37697e-07 -6.3266e-08 0)
(2.53177e-07 -5.55225e-08 0)
(2.66567e-07 -4.73785e-08 0)
(2.77773e-07 -3.89093e-08 0)
(2.86723e-07 -3.01914e-08 0)
(2.93365e-07 -2.13009e-08 0)
(2.97665e-07 -1.23135e-08 0)
(2.99611e-07 -3.3032e-09 0)
(2.9921e-07 5.65808e-09 0)
(2.96486e-07 1.45012e-08 0)
(2.91481e-07 2.31602e-08 0)
(2.84255e-07 3.15727e-08 0)
(2.74881e-07 3.96802e-08 0)
(2.63449e-07 4.74282e-08 0)
(2.50059e-07 5.47664e-08 0)
(2.34828e-07 6.16487e-08 0)
(2.17879e-07 6.80334e-08 0)
(1.99347e-07 7.38829e-08 0)
(1.79378e-07 7.91638e-08 0)
(1.58122e-07 8.3847e-08 0)
(1.35737e-07 8.7907e-08 0)
(1.12389e-07 9.13225e-08 0)
(8.82456e-08 9.40758e-08 0)
(6.34796e-08 9.61529e-08 0)
(3.8267e-08 9.75433e-08 0)
(1.27856e-08 9.82403e-08 0)
(-1.30057e-08 1.13437e-07 0)
(-3.89263e-08 1.12634e-07 0)
(-6.45747e-08 1.11031e-07 0)
(-8.97711e-08 1.08637e-07 0)
(-1.14337e-07 1.05463e-07 0)
(-1.38099e-07 1.01525e-07 0)
(-1.60883e-07 9.68441e-08 0)
(-1.82525e-07 9.1444e-08 0)
(-2.02863e-07 8.53538e-08 0)
(-2.21743e-07 7.86071e-08 0)
(-2.39019e-07 7.1242e-08 0)
(-2.54552e-07 6.33017e-08 0)
(-2.68215e-07 5.4834e-08 0)
(-2.79891e-07 4.58919e-08 0)
(-2.89475e-07 3.6533e-08 0)
(-2.96876e-07 2.68202e-08 0)
(-3.02017e-07 1.68208e-08 0)
(-3.04838e-07 6.60662e-09 0)
(-3.05292e-07 -3.74618e-09 0)
(-3.03355e-07 -1.41578e-08 0)
(-2.99017e-07 -2.45452e-08 0)
(-2.92291e-07 -3.48227e-08 0)
(-2.83208e-07 -4.49029e-08 0)
(-2.71821e-07 -5.46974e-08 0)
(-2.58202e-07 -6.41178e-08 0)
(-2.42446e-07 -7.30765e-08 0)
(-2.24666e-07 -8.14885e-08 0)
(-2.04998e-07 -8.92718e-08 0)
(-1.83595e-07 -9.63488e-08 0)
(-1.60628e-07 -1.02648e-07 0)
(-1.36285e-07 -1.08104e-07 0)
(-1.10771e-07 -1.1266e-07 0)
(-9.1822e-08 -1.15265e-07 0)
(-7.98999e-08 -1.16676e-07 0)
(-6.7841e-08 -1.1789e-07 0)
(-5.56657e-08 -1.18906e-07 0)
(-4.3395e-08 -1.19722e-07 0)
(-3.10498e-08 -1.20335e-07 0)
(-1.86513e-08 -1.20745e-07 0)
(-6.22065e-09 -1.2095e-07 0)
(6.22065e-09 -1.2095e-07 0)
(1.86513e-08 -1.20745e-07 0)
(3.10498e-08 -1.20335e-07 0)
(4.3395e-08 -1.19722e-07 0)
(5.56657e-08 -1.18906e-07 0)
(6.7841e-08 -1.1789e-07 0)
(7.98999e-08 -1.16676e-07 0)
(9.1822e-08 -1.15265e-07 0)
(1.10771e-07 -1.1266e-07 0)
(1.36285e-07 -1.08104e-07 0)
(1.60628e-07 -1.02648e-07 0)
(1.83595e-07 -9.63488e-08 0)
(2.04998e-07 -8.92718e-08 0)
(2.24666e-07 -8.14885e-08 0)
(2.42446e-07 -7.30765e-08 0)
(2.58202e-07 -6.41178e-08 0)
(2.71821e-07 -5.46974e-08 0)