/*--------------------------------*- C++ -*----------------------------------*\
  =========                 |
  \\      /  F ield         | OpenFOAM: The Open Source CFD Toolbox
   \\    /   O peration     | Website:  https://openfoam.org
    \\  /    A nd           | Version:  10
     \\/     M anipulation  |
\*---------------------------------------------------------------------------*/
FoamFile
{
    format      ascii;
    class       volVectorField;
    location    "1100";
    object      Ub;
}
// * * * * * * * * * * * * * * * * * * * * * * * * * * * * * * * * * * * * * //

dimensions      [0 1 -1 0 0 0 0];

internalField   nonuniform List<vector> 
6400
(
(-2.15528e-22 -9.87899e-16 0)
(-6.45048e-22 -9.87899e-16 0)
(-1.06996e-21 -9.87899e-16 0)
(-1.48723e-21 -9.87899e-16 0)
(-1.89384e-21 -9.87899e-16 0)
(-2.28686e-21 -9.87899e-16 0)
(-2.66339e-21 -9.87899e-16 0)
(-3.02066e-21 -9.87899e-16 0)
(-3.35598e-21 -9.87899e-16 0)
(-3.66678e-21 -9.87899e-16 0)
(-3.95066e-21 -9.87899e-16 0)
(-4.20535e-21 -9.87899e-16 0)
(-4.42878e-21 -9.87899e-16 0)
(-4.61904e-21 -9.87899e-16 0)
(-4.77448e-21 -9.87899e-16 0)
(-4.89365e-21 -9.87899e-16 0)
(-4.97537e-21 -9.87899e-16 0)
(-5.01871e-21 -9.87899e-16 0)
(-5.02304e-21 -9.87899e-16 0)
(-4.98803e-21 -9.87899e-16 0)
(-4.91363e-21 -9.87899e-16 0)
(-4.80013e-21 -9.87899e-16 0)
(-4.64815e-21 -9.87899e-16 0)
(-4.45864e-21 -9.87899e-16 0)
(-4.23287e-21 -9.87899e-16 0)
(-3.97244e-21 -9.87899e-16 0)
(-3.67928e-21 -9.87899e-16 0)
(-3.35563e-21 -9.87899e-16 0)
(-3.00402e-21 -9.87899e-16 0)
(-2.62725e-21 -9.87899e-16 0)
(-2.22839e-21 -9.87899e-16 0)
(-1.81072e-21 -9.87899e-16 0)
(-1.50071e-21 -9.87899e-16 0)
(-1.30575e-21 -9.87899e-16 0)
(-1.1086e-21 -9.87899e-16 0)
(-9.09587e-22 -9.87899e-16 0)
(-7.09047e-22 -9.87899e-16 0)
(-5.07316e-22 -9.87899e-16 0)
(-3.04731e-22 -9.87899e-16 0)
(-1.01634e-22 -9.87899e-16 0)
(1.01634e-22 -9.87899e-16 0)
(3.04731e-22 -9.87899e-16 0)
(5.07316e-22 -9.87899e-16 0)
(7.09047e-22 -9.87899e-16 0)
(9.09587e-22 -9.87899e-16 0)
(1.1086e-21 -9.87899e-16 0)
(1.30575e-21 -9.87899e-16 0)
(1.50071e-21 -9.87899e-16 0)
(1.81072e-21 -9.87899e-16 0)
(2.22839e-21 -9.87899e-16 0)
(2.62725e-21 -9.87899e-16 0)
(3.00402e-21 -9.87899e-16 0)
(3.35563e-21 -9.87899e-16 0)
(3.67928e-21 -9.87899e-16 0)
(3.97244e-21 -9.87899e-16 0)
(4.23287e-21 -9.87899e-16 0)
(4.45864e-21 -9.87899e-16 0)
(4.64815e-21 -9.87899e-16 0)
(4.80013e-21 -9.87899e-16 0)
(4.91363e-21 -9.87899e-16 0)
(4.98803e-21 -9.87899e-16 0)
(5.02304e-21 -9.87899e-16 0)
(5.01871e-21 -9.87899e-16 0)
(4.97537e-21 -9.87899e-16 0)
(4.89365e-21 -9.87899e-16 0)
(4.77448e-21 -9.87899e-16 0)
(4.61904e-21 -9.87899e-16 0)
(4.42878e-21 -9.87899e-16 0)
(4.20535e-21 -9.87899e-16 0)
(3.95066e-21 -9.87899e-16 0)
(3.66678e-21 -9.87899e-16 0)
(3.35598e-21 -9.87899e-16 0)
(3.02066e-21 -9.87899e-16 0)
(2.66339e-21 -9.87899e-16 0)
(2.28686e-21 -9.87899e-16 0)
(1.89384e-21 -9.87899e-16 0)
(1.48723e-21 -9.87899e-16 0)
(1.06996e-21 -9.87899e-16 0)
(6.45048e-22 -9.87899e-16 0)
(2.15528e-22 -9.87899e-16 0)
(-2.15595e-22 -9.87898e-16 0)
(-6.45247e-22 -9.87898e-16 0)
(-1.07029e-21 -9.87898e-16 0)
(-1.48769e-21 -9.87898e-16 0)
(-1.89443e-21 -9.87898e-16 0)
(-2.28757e-21 -9.87898e-16 0)
(-2.66423e-21 -9.87898e-16 0)
(-3.02161e-21 -9.87898e-16 0)
(-3.35704e-21 -9.87898e-16 0)
(-3.66795e-21 -9.87898e-16 0)
(-3.95193e-21 -9.87898e-16 0)
(-4.20671e-21 -9.87898e-16 0)
(-4.43021e-21 -9.87898e-16 0)
(-4.62055e-21 -9.87898e-16 0)
(-4.77605e-21 -9.87898e-16 0)
(-4.89527e-21 -9.87898e-16 0)
(-4.97703e-21 -9.87898e-16 0)
(-5.0204e-21 -9.87899e-16 0)
(-5.02475e-21 -9.87899e-16 0)
(-4.98973e-21 -9.87899e-16 0)
(-4.91532e-21 -9.87899e-16 0)
(-4.8018e-21 -9.87899e-16 0)
(-4.64978e-21 -9.87899e-16 0)
(-4.46021e-21 -9.87899e-16 0)
(-4.23437e-21 -9.87899e-16 0)
(-3.97386e-21 -9.87899e-16 0)
(-3.6806e-21 -9.87899e-16 0)
(-3.35684e-21 -9.87899e-16 0)
(-3.00511e-21 -9.87899e-16 0)
(-2.62821e-21 -9.87899e-16 0)
(-2.2292e-21 -9.87899e-16 0)
(-1.81138e-21 -9.87899e-16 0)
(-1.50126e-21 -9.87899e-16 0)
(-1.30623e-21 -9.87899e-16 0)
(-1.10901e-21 -9.87899e-16 0)
(-9.09922e-22 -9.87899e-16 0)
(-7.09309e-22 -9.87899e-16 0)
(-5.07503e-22 -9.87899e-16 0)
(-3.04844e-22 -9.87899e-16 0)
(-1.01672e-22 -9.87899e-16 0)
(1.01672e-22 -9.87899e-16 0)
(3.04844e-22 -9.87899e-16 0)
(5.07503e-22 -9.87899e-16 0)
(7.09309e-22 -9.87899e-16 0)
(9.09922e-22 -9.87899e-16 0)
(1.10901e-21 -9.87899e-16 0)
(1.30623e-21 -9.87899e-16 0)
(1.50126e-21 -9.87899e-16 0)
(1.81138e-21 -9.87899e-16 0)
(2.2292e-21 -9.87899e-16 0)
(2.62821e-21 -9.87899e-16 0)
(3.00511e-21 -9.87899e-16 0)
(3.35684e-21 -9.87899e-16 0)
(3.6806e-21 -9.87899e-16 0)
(3.97386e-21 -9.87899e-16 0)
(4.23437e-21 -9.87899e-16 0)
(4.46021e-21 -9.87899e-16 0)
(4.64978e-21 -9.87899e-16 0)
(4.8018e-21 -9.87899e-16 0)
(4.91532e-21 -9.87899e-16 0)
(4.98973e-21 -9.87899e-16 0)
(5.02475e-21 -9.87899e-16 0)
(5.0204e-21 -9.87899e-16 0)
(4.97703e-21 -9.87898e-16 0)
(4.89527e-21 -9.87898e-16 0)
(4.77605e-21 -9.87898e-16 0)
(4.62055e-21 -9.87898e-16 0)
(4.43021e-21 -9.87898e-16 0)
(4.20671e-21 -9.87898e-16 0)
(3.95193e-21 -9.87898e-16 0)
(3.66795e-21 -9.87898e-16 0)
(3.35704e-21 -9.87898e-16 0)
(3.02161e-21 -9.87898e-16 0)
(2.66423e-21 -9.87898e-16 0)
(2.28757e-21 -9.87898e-16 0)
(1.89443e-21 -9.87898e-16 0)
(1.48769e-21 -9.87898e-16 0)
(1.07029e-21 -9.87898e-16 0)
(6.45247e-22 -9.87898e-16 0)
(2.15595e-22 -9.87898e-16 0)
(-2.15748e-22 -9.87898e-16 0)
(-6.45706e-22 -9.87898e-16 0)
(-1.07106e-21 -9.87898e-16 0)
(-1.48875e-21 -9.87898e-16 0)
(-1.89579e-21 -9.87898e-16 0)
(-2.28921e-21 -9.87898e-16 0)
(-2.66615e-21 -9.87898e-16 0)
(-3.0238e-21 -9.87898e-16 0)
(-3.35948e-21 -9.87898e-16 0)
(-3.67063e-21 -9.87898e-16 0)
(-3.95484e-21 -9.87898e-16 0)
(-4.20982e-21 -9.87898e-16 0)
(-4.43351e-21 -9.87898e-16 0)
(-4.62402e-21 -9.87898e-16 0)
(-4.77966e-21 -9.87898e-16 0)
(-4.899e-21 -9.87898e-16 0)
(-4.98085e-21 -9.87898e-16 0)
(-5.02429e-21 -9.87898e-16 0)
(-5.02867e-21 -9.87899e-16 0)
(-4.99366e-21 -9.87899e-16 0)
(-4.91921e-21 -9.87899e-16 0)
(-4.80563e-21 -9.87899e-16 0)
(-4.65352e-21 -9.87899e-16 0)
(-4.46382e-21 -9.87899e-16 0)
(-4.23782e-21 -9.87899e-16 0)
(-3.97712e-21 -9.87899e-16 0)
(-3.68364e-21 -9.87899e-16 0)
(-3.35963e-21 -9.87899e-16 0)
(-3.00761e-21 -9.87899e-16 0)
(-2.63041e-21 -9.87899e-16 0)
(-2.23108e-21 -9.87899e-16 0)
(-1.81291e-21 -9.87899e-16 0)
(-1.50253e-21 -9.87899e-16 0)
(-1.30733e-21 -9.87899e-16 0)
(-1.10995e-21 -9.87899e-16 0)
(-9.10693e-22 -9.87899e-16 0)
(-7.0991e-22 -9.87899e-16 0)
(-5.07933e-22 -9.87899e-16 0)
(-3.05102e-22 -9.87899e-16 0)
(-1.01758e-22 -9.87899e-16 0)
(1.01758e-22 -9.87899e-16 0)
(3.05102e-22 -9.87899e-16 0)
(5.07933e-22 -9.87899e-16 0)
(7.0991e-22 -9.87899e-16 0)
(9.10693e-22 -9.87899e-16 0)
(1.10995e-21 -9.87899e-16 0)
(1.30733e-21 -9.87899e-16 0)
(1.50253e-21 -9.87899e-16 0)
(1.81291e-21 -9.87899e-16 0)
(2.23108e-21 -9.87899e-16 0)
(2.63041e-21 -9.87899e-16 0)
(3.00761e-21 -9.87899e-16 0)
(3.35963e-21 -9.87899e-16 0)
(3.68364e-21 -9.87899e-16 0)
(3.97712e-21 -9.87899e-16 0)
(4.23782e-21 -9.87899e-16 0)
(4.46382e-21 -9.87899e-16 0)
(4.65352e-21 -9.87899e-16 0)
(4.80563e-21 -9.87899e-16 0)
(4.91921e-21 -9.87899e-16 0)
(4.99366e-21 -9.87899e-16 0)
(5.02867e-21 -9.87899e-16 0)
(5.02429e-21 -9.87898e-16 0)
(4.98085e-21 -9.87898e-16 0)
(4.899e-21 -9.87898e-16 0)
(4.77966e-21 -9.87898e-16 0)
(4.62402e-21 -9.87898e-16 0)
(4.43351e-21 -9.87898e-16 0)
(4.20982e-21 -9.87898e-16 0)
(3.95484e-21 -9.87898e-16 0)
(3.67063e-21 -9.87898e-16 0)
(3.35948e-21 -9.87898e-16 0)
(3.0238e-21 -9.87898e-16 0)
(2.66615e-21 -9.87898e-16 0)
(2.28921e-21 -9.87898e-16 0)
(1.89579e-21 -9.87898e-16 0)
(1.48875e-21 -9.87898e-16 0)
(1.07106e-21 -9.87898e-16 0)
(6.45706e-22 -9.87898e-16 0)
(2.15748e-22 -9.87898e-16 0)
(-2.16013e-22 -9.87898e-16 0)
(-6.46498e-22 -9.87898e-16 0)
(-1.07237e-21 -9.87898e-16 0)
(-1.49058e-21 -9.87898e-16 0)
(-1.89813e-21 -9.87898e-16 0)
(-2.29205e-21 -9.87898e-16 0)
(-2.66946e-21 -9.87898e-16 0)
(-3.02757e-21 -9.87898e-16 0)
(-3.3637e-21 -9.87898e-16 0)
(-3.67527e-21 -9.87898e-16 0)
(-3.95986e-21 -9.87898e-16 0)
(-4.2152e-21 -9.87898e-16 0)
(-4.43922e-21 -9.87898e-16 0)
(-4.63001e-21 -9.87898e-16 0)
(-4.7859e-21 -9.87898e-16 0)
(-4.90544e-21 -9.87898e-16 0)
(-4.98745e-21 -9.87898e-16 0)
(-5.031e-21 -9.87898e-16 0)
(-5.03544e-21 -9.87899e-16 0)
(-5.00043e-21 -9.87899e-16 0)
(-4.92594e-21 -9.87899e-16 0)
(-4.81225e-21 -9.87899e-16 0)
(-4.65998e-21 -9.87899e-16 0)
(-4.47006e-21 -9.87899e-16 0)
(-4.24379e-21 -9.87899e-16 0)
(-3.98275e-21 -9.87899e-16 0)
(-3.68889e-21 -9.87899e-16 0)
(-3.36444e-21 -9.87899e-16 0)
(-3.01194e-21 -9.87899e-16 0)
(-2.63421e-21 -9.87899e-16 0)
(-2.23431e-21 -9.87899e-16 0)
(-1.81555e-21 -9.87899e-16 0)
(-1.50472e-21 -9.87899e-16 0)
(-1.30924e-21 -9.87899e-16 0)
(-1.11157e-21 -9.87899e-16 0)
(-9.12024e-22 -9.87899e-16 0)
(-7.10948e-22 -9.87899e-16 0)
(-5.08676e-22 -9.87899e-16 0)
(-3.05549e-22 -9.87899e-16 0)
(-1.01907e-22 -9.87899e-16 0)
(1.01907e-22 -9.87899e-16 0)
(3.05549e-22 -9.87899e-16 0)
(5.08676e-22 -9.87899e-16 0)
(7.10948e-22 -9.87899e-16 0)
(9.12024e-22 -9.87899e-16 0)
(1.11157e-21 -9.87899e-16 0)
(1.30924e-21 -9.87899e-16 0)
(1.50472e-21 -9.87899e-16 0)
(1.81555e-21 -9.87899e-16 0)
(2.23431e-21 -9.87899e-16 0)
(2.63421e-21 -9.87899e-16 0)
(3.01194e-21 -9.87899e-16 0)
(3.36444e-21 -9.87899e-16 0)
(3.68889e-21 -9.87899e-16 0)
(3.98275e-21 -9.87899e-16 0)
(4.24379e-21 -9.87899e-16 0)
(4.47006e-21 -9.87899e-16 0)
(4.65998e-21 -9.87899e-16 0)
(4.81225e-21 -9.87899e-16 0)
(4.92594e-21 -9.87899e-16 0)
(5.00043e-21 -9.87899e-16 0)
(5.03544e-21 -9.87899e-16 0)
(5.031e-21 -9.87898e-16 0)
(4.98745e-21 -9.87898e-16 0)
(4.90544e-21 -9.87898e-16 0)
(4.7859e-21 -9.87898e-16 0)
(4.63001e-21 -9.87898e-16 0)
(4.43922e-21 -9.87898e-16 0)
(4.2152e-21 -9.87898e-16 0)
(3.95986e-21 -9.87898e-16 0)
(3.67527e-21 -9.87898e-16 0)
(3.3637e-21 -9.87898e-16 0)
(3.02757e-21 -9.87898e-16 0)
(2.66946e-21 -9.87898e-16 0)
(2.29205e-21 -9.87898e-16 0)
(1.89813e-21 -9.87898e-16 0)
(1.49058e-21 -9.87898e-16 0)
(1.07237e-21 -9.87898e-16 0)
(6.46498e-22 -9.87898e-16 0)
(2.16013e-22 -9.87898e-16 0)
(-2.16419e-22 -9.87898e-16 0)
(-6.47715e-22 -9.87898e-16 0)
(-1.07439e-21 -9.87898e-16 0)
(-1.4934e-21 -9.87898e-16 0)
(-1.90172e-21 -9.87898e-16 0)
(-2.2964e-21 -9.87898e-16 0)
(-2.67455e-21 -9.87898e-16 0)
(-3.03337e-21 -9.87898e-16 0)
(-3.37017e-21 -9.87898e-16 0)
(-3.68238e-21 -9.87898e-16 0)
(-3.96757e-21 -9.87898e-16 0)
(-4.22347e-21 -9.87898e-16 0)
(-4.44798e-21 -9.87898e-16 0)
(-4.63921e-21 -9.87898e-16 0)
(-4.79548e-21 -9.87898e-16 0)
(-4.91534e-21 -9.87898e-16 0)
(-4.9976e-21 -9.87898e-16 0)
(-5.04131e-21 -9.87898e-16 0)
(-5.04584e-21 -9.87899e-16 0)
(-5.01084e-21 -9.87899e-16 0)
(-4.93627e-21 -9.87899e-16 0)
(-4.82242e-21 -9.87899e-16 0)
(-4.6699e-21 -9.87899e-16 0)
(-4.47965e-21 -9.87899e-16 0)
(-4.25295e-21 -9.87899e-16 0)
(-3.9914e-21 -9.87899e-16 0)
(-3.69695e-21 -9.87899e-16 0)
(-3.37183e-21 -9.87899e-16 0)
(-3.01859e-21 -9.87899e-16 0)
(-2.64005e-21 -9.87899e-16 0)
(-2.23929e-21 -9.87899e-16 0)
(-1.8196e-21 -9.87899e-16 0)
(-1.50809e-21 -9.87899e-16 0)
(-1.31217e-21 -9.87899e-16 0)
(-1.11406e-21 -9.87899e-16 0)
(-9.1407e-22 -9.87899e-16 0)
(-7.12544e-22 -9.87899e-16 0)
(-5.09818e-22 -9.87899e-16 0)
(-3.06235e-22 -9.87899e-16 0)
(-1.02136e-22 -9.87899e-16 0)
(1.02136e-22 -9.87899e-16 0)
(3.06235e-22 -9.87899e-16 0)
(5.09818e-22 -9.87899e-16 0)
(7.12544e-22 -9.87899e-16 0)
(9.1407e-22 -9.87899e-16 0)
(1.11406e-21 -9.87899e-16 0)
(1.31217e-21 -9.87899e-16 0)
(1.50809e-21 -9.87899e-16 0)
(1.8196e-21 -9.87899e-16 0)
(2.23929e-21 -9.87899e-16 0)
(2.64005e-21 -9.87899e-16 0)
(3.01859e-21 -9.87899e-16 0)
(3.37183e-21 -9.87899e-16 0)
(3.69695e-21 -9.87899e-16 0)
(3.9914e-21 -9.87899e-16 0)
(4.25295e-21 -9.87899e-16 0)
(4.47965e-21 -9.87899e-16 0)
(4.6699e-21 -9.87899e-16 0)
(4.82242e-21 -9.87899e-16 0)
(4.93627e-21 -9.87899e-16 0)
(5.01084e-21 -9.87899e-16 0)
(5.04584e-21 -9.87899e-16 0)
(5.04131e-21 -9.87898e-16 0)
(4.99759e-21 -9.87898e-16 0)
(4.91534e-21 -9.87898e-16 0)
(4.79548e-21 -9.87898e-16 0)
(4.63921e-21 -9.87898e-16 0)
(4.44798e-21 -9.87898e-16 0)
(4.22347e-21 -9.87898e-16 0)
(3.96757e-21 -9.87898e-16 0)
(3.68238e-21 -9.87898e-16 0)
(3.37017e-21 -9.87898e-16 0)
(3.03337e-21 -9.87898e-16 0)
(2.67455e-21 -9.87898e-16 0)
(2.2964e-21 -9.87898e-16 0)
(1.90172e-21 -9.87898e-16 0)
(1.4934e-21 -9.87898e-16 0)
(1.07439e-21 -9.87898e-16 0)
(6.47715e-22 -9.87898e-16 0)
(2.16419e-22 -9.87898e-16 0)
(-2.17004e-22 -9.87898e-16 0)
(-6.49468e-22 -9.87898e-16 0)
(-1.0773e-21 -9.87898e-16 0)
(-1.49746e-21 -9.87898e-16 0)
(-1.9069e-21 -9.87898e-16 0)
(-2.30268e-21 -9.87898e-16 0)
(-2.68189e-21 -9.87898e-16 0)
(-3.04173e-21 -9.87898e-16 0)
(-3.37951e-21 -9.87898e-16 0)
(-3.69264e-21 -9.87898e-16 0)
(-3.97869e-21 -9.87898e-16 0)
(-4.23538e-21 -9.87898e-16 0)
(-4.46061e-21 -9.87898e-16 0)
(-4.65248e-21 -9.87898e-16 0)
(-4.8093e-21 -9.87898e-16 0)
(-4.92961e-21 -9.87898e-16 0)
(-5.01222e-21 -9.87898e-16 0)
(-5.05617e-21 -9.87898e-16 0)
(-5.06084e-21 -9.87899e-16 0)
(-5.02585e-21 -9.87899e-16 0)
(-4.95117e-21 -9.87899e-16 0)
(-4.83709e-21 -9.87899e-16 0)
(-4.68421e-21 -9.87899e-16 0)
(-4.49347e-21 -9.87899e-16 0)
(-4.26616e-21 -9.87899e-16 0)
(-4.00388e-21 -9.87899e-16 0)
(-3.70858e-21 -9.87899e-16 0)
(-3.38249e-21 -9.87899e-16 0)
(-3.02818e-21 -9.87899e-16 0)
(-2.64848e-21 -9.87899e-16 0)
(-2.24646e-21 -9.87899e-16 0)
(-1.82544e-21 -9.87899e-16 0)
(-1.51294e-21 -9.87899e-16 0)
(-1.3164e-21 -9.87899e-16 0)
(-1.11765e-21 -9.87899e-16 0)
(-9.17019e-22 -9.87899e-16 0)
(-7.14844e-22 -9.87899e-16 0)
(-5.11465e-22 -9.87899e-16 0)
(-3.07224e-22 -9.87899e-16 0)
(-1.02466e-22 -9.87899e-16 0)
(1.02466e-22 -9.87899e-16 0)
(3.07224e-22 -9.87899e-16 0)
(5.11465e-22 -9.87899e-16 0)
(7.14844e-22 -9.87899e-16 0)
(9.17019e-22 -9.87899e-16 0)
(1.11765e-21 -9.87899e-16 0)
(1.3164e-21 -9.87899e-16 0)
(1.51294e-21 -9.87899e-16 0)
(1.82544e-21 -9.87899e-16 0)
(2.24646e-21 -9.87899e-16 0)
(2.64848e-21 -9.87899e-16 0)
(3.02818e-21 -9.87899e-16 0)
(3.38249e-21 -9.87899e-16 0)
(3.70858e-21 -9.87899e-16 0)
(4.00388e-21 -9.87899e-16 0)
(4.26616e-21 -9.87899e-16 0)
(4.49347e-21 -9.87899e-16 0)
(4.68421e-21 -9.87899e-16 0)
(4.83709e-21 -9.87899e-16 0)
(4.95117e-21 -9.87899e-16 0)
(5.02585e-21 -9.87899e-16 0)
(5.06084e-21 -9.87899e-16 0)
(5.05617e-21 -9.87898e-16 0)
(5.01222e-21 -9.87898e-16 0)
(4.92961e-21 -9.87898e-16 0)
(4.8093e-21 -9.87898e-16 0)
(4.65248e-21 -9.87898e-16 0)
(4.46061e-21 -9.87898e-16 0)
(4.23538e-21 -9.87898e-16 0)
(3.97869e-21 -9.87898e-16 0)
(3.69264e-21 -9.87898e-16 0)
(3.37951e-21 -9.87898e-16 0)
(3.04173e-21 -9.87898e-16 0)
(2.68189e-21 -9.87898e-16 0)
(2.30268e-21 -9.87898e-16 0)
(1.9069e-21 -9.87898e-16 0)
(1.49746e-21 -9.87898e-16 0)
(1.0773e-21 -9.87898e-16 0)
(6.49468e-22 -9.87898e-16 0)
(2.17004e-22 -9.87898e-16 0)
(-2.17815e-22 -9.87898e-16 0)
(-6.51896e-22 -9.87898e-16 0)
(-1.08134e-21 -9.87898e-16 0)
(-1.50307e-21 -9.87898e-16 0)
(-1.91407e-21 -9.87898e-16 0)
(-2.31137e-21 -9.87898e-16 0)
(-2.69205e-21 -9.87898e-16 0)
(-3.05331e-21 -9.87898e-16 0)
(-3.39244e-21 -9.87898e-16 0)
(-3.70684e-21 -9.87898e-16 0)
(-3.99409e-21 -9.87898e-16 0)
(-4.25188e-21 -9.87898e-16 0)
(-4.47811e-21 -9.87898e-16 0)
(-4.67086e-21 -9.87898e-16 0)
(-4.82844e-21 -9.87898e-16 0)
(-4.94938e-21 -9.87898e-16 0)
(-5.03247e-21 -9.87898e-16 0)
(-5.07677e-21 -9.87898e-16 0)
(-5.08161e-21 -9.87899e-16 0)
(-5.04664e-21 -9.87899e-16 0)
(-4.97182e-21 -9.87899e-16 0)
(-4.85741e-21 -9.87899e-16 0)
(-4.70403e-21 -9.87899e-16 0)
(-4.51262e-21 -9.87899e-16 0)
(-4.28446e-21 -9.87899e-16 0)
(-4.02117e-21 -9.87899e-16 0)
(-3.72469e-21 -9.87899e-16 0)
(-3.39727e-21 -9.87899e-16 0)
(-3.04147e-21 -9.87899e-16 0)
(-2.66015e-21 -9.87899e-16 0)
(-2.2564e-21 -9.87899e-16 0)
(-1.83355e-21 -9.87899e-16 0)
(-1.51967e-21 -9.87899e-16 0)
(-1.32226e-21 -9.87899e-16 0)
(-1.12263e-21 -9.87899e-16 0)
(-9.21108e-22 -9.87899e-16 0)
(-7.18033e-22 -9.87899e-16 0)
(-5.13748e-22 -9.87899e-16 0)
(-3.08596e-22 -9.87899e-16 0)
(-1.02923e-22 -9.87899e-16 0)
(1.02923e-22 -9.87899e-16 0)
(3.08596e-22 -9.87899e-16 0)
(5.13748e-22 -9.87899e-16 0)
(7.18033e-22 -9.87899e-16 0)
(9.21108e-22 -9.87899e-16 0)
(1.12263e-21 -9.87899e-16 0)
(1.32226e-21 -9.87899e-16 0)
(1.51967e-21 -9.87899e-16 0)
(1.83355e-21 -9.87899e-16 0)
(2.2564e-21 -9.87899e-16 0)
(2.66015e-21 -9.87899e-16 0)
(3.04147e-21 -9.87899e-16 0)
(3.39727e-21 -9.87899e-16 0)
(3.72469e-21 -9.87899e-16 0)
(4.02117e-21 -9.87899e-16 0)
(4.28446e-21 -9.87899e-16 0)
(4.51262e-21 -9.87899e-16 0)
(4.70403e-21 -9.87899e-16 0)
(4.85741e-21 -9.87899e-16 0)
(4.97182e-21 -9.87899e-16 0)
(5.04664e-21 -9.87899e-16 0)
(5.08161e-21 -9.87899e-16 0)
(5.07677e-21 -9.87898e-16 0)
(5.03247e-21 -9.87898e-16 0)
(4.94938e-21 -9.87898e-16 0)
(4.82844e-21 -9.87898e-16 0)
(4.67086e-21 -9.87898e-16 0)
(4.47811e-21 -9.87898e-16 0)
(4.25188e-21 -9.87898e-16 0)
(3.99409e-21 -9.87898e-16 0)
(3.70684e-21 -9.87898e-16 0)
(3.39244e-21 -9.87898e-16 0)
(3.05331e-21 -9.87898e-16 0)
(2.69205e-21 -9.87898e-16 0)
(2.31137e-21 -9.87898e-16 0)
(1.91407e-21 -9.87898e-16 0)
(1.50307e-21 -9.87898e-16 0)
(1.08134e-21 -9.87898e-16 0)
(6.51896e-22 -9.87898e-16 0)
(2.17815e-22 -9.87898e-16 0)
(-2.18908e-22 -9.87898e-16 0)
(-6.55169e-22 -9.87898e-16 0)
(-1.08677e-21 -9.87898e-16 0)
(-1.51065e-21 -9.87898e-16 0)
(-1.92374e-21 -9.87898e-16 0)
(-2.32308e-21 -9.87898e-16 0)
(-2.70575e-21 -9.87898e-16 0)
(-3.06892e-21 -9.87898e-16 0)
(-3.40986e-21 -9.87898e-16 0)
(-3.72599e-21 -9.87898e-16 0)
(-4.01485e-21 -9.87898e-16 0)
(-4.27412e-21 -9.87898e-16 0)
(-4.50169e-21 -9.87898e-16 0)
(-4.69564e-21 -9.87898e-16 0)
(-4.85424e-21 -9.87898e-16 0)
(-4.97603e-21 -9.87898e-16 0)
(-5.05978e-21 -9.87898e-16 0)
(-5.10454e-21 -9.87898e-16 0)
(-5.10963e-21 -9.87899e-16 0)
(-5.07468e-21 -9.87899e-16 0)
(-4.99966e-21 -9.87899e-16 0)
(-4.88482e-21 -9.87899e-16 0)
(-4.73077e-21 -9.87899e-16 0)
(-4.53846e-21 -9.87899e-16 0)
(-4.30916e-21 -9.87899e-16 0)
(-4.0445e-21 -9.87899e-16 0)
(-3.74642e-21 -9.87899e-16 0)
(-3.4172e-21 -9.87899e-16 0)
(-3.05941e-21 -9.87899e-16 0)
(-2.6759e-21 -9.87899e-16 0)
(-2.26981e-21 -9.87899e-16 0)
(-1.84448e-21 -9.87899e-16 0)
(-1.52875e-21 -9.87899e-16 0)
(-1.33017e-21 -9.87899e-16 0)
(-1.12935e-21 -9.87899e-16 0)
(-9.26624e-22 -9.87899e-16 0)
(-7.22335e-22 -9.87899e-16 0)
(-5.16827e-22 -9.87899e-16 0)
(-3.10446e-22 -9.87899e-16 0)
(-1.0354e-22 -9.87899e-16 0)
(1.0354e-22 -9.87899e-16 0)
(3.10446e-22 -9.87899e-16 0)
(5.16827e-22 -9.87899e-16 0)
(7.22335e-22 -9.87899e-16 0)
(9.26624e-22 -9.87899e-16 0)
(1.12935e-21 -9.87899e-16 0)
(1.33017e-21 -9.87899e-16 0)
(1.52875e-21 -9.87899e-16 0)
(1.84448e-21 -9.87899e-16 0)
(2.26981e-21 -9.87899e-16 0)
(2.6759e-21 -9.87899e-16 0)
(3.05941e-21 -9.87899e-16 0)
(3.4172e-21 -9.87899e-16 0)
(3.74642e-21 -9.87899e-16 0)
(4.0445e-21 -9.87899e-16 0)
(4.30916e-21 -9.87899e-16 0)
(4.53846e-21 -9.87899e-16 0)
(4.73077e-21 -9.87899e-16 0)
(4.88482e-21 -9.87899e-16 0)
(4.99966e-21 -9.87899e-16 0)
(5.07468e-21 -9.87899e-16 0)
(5.10963e-21 -9.87899e-16 0)
(5.10454e-21 -9.87898e-16 0)
(5.05978e-21 -9.87898e-16 0)
(4.97603e-21 -9.87898e-16 0)
(4.85424e-21 -9.87898e-16 0)
(4.69564e-21 -9.87898e-16 0)
(4.50169e-21 -9.87898e-16 0)
(4.27412e-21 -9.87898e-16 0)
(4.01485e-21 -9.87898e-16 0)
(3.72599e-21 -9.87898e-16 0)
(3.40986e-21 -9.87898e-16 0)
(3.06892e-21 -9.87898e-16 0)
(2.70575e-21 -9.87898e-16 0)
(2.32308e-21 -9.87898e-16 0)
(1.92374e-21 -9.87898e-16 0)
(1.51065e-21 -9.87898e-16 0)
(1.08677e-21 -9.87898e-16 0)
(6.55169e-22 -9.87898e-16 0)
(2.18908e-22 -9.87898e-16 0)
(-2.20352e-22 -9.87897e-16 0)
(-6.59494e-22 -9.87897e-16 0)
(-1.09396e-21 -9.87897e-16 0)
(-1.52065e-21 -9.87897e-16 0)
(-1.93652e-21 -9.87897e-16 0)
(-2.33856e-21 -9.87898e-16 0)
(-2.72385e-21 -9.87898e-16 0)
(-3.08954e-21 -9.87898e-16 0)
(-3.4329e-21 -9.87898e-16 0)
(-3.75131e-21 -9.87898e-16 0)
(-4.04229e-21 -9.87898e-16 0)
(-4.30352e-21 -9.87898e-16 0)
(-4.53287e-21 -9.87898e-16 0)
(-4.72839e-21 -9.87898e-16 0)
(-4.88836e-21 -9.87898e-16 0)
(-5.01127e-21 -9.87898e-16 0)
(-5.0959e-21 -9.87898e-16 0)
(-5.14126e-21 -9.87898e-16 0)
(-5.14668e-21 -9.87899e-16 0)
(-5.11177e-21 -9.87899e-16 0)
(-5.03648e-21 -9.87899e-16 0)
(-4.92107e-21 -9.87899e-16 0)
(-4.76614e-21 -9.87899e-16 0)
(-4.57263e-21 -9.87899e-16 0)
(-4.34183e-21 -9.87899e-16 0)
(-4.07536e-21 -9.87899e-16 0)
(-3.77518e-21 -9.87899e-16 0)
(-3.44357e-21 -9.87899e-16 0)
(-3.08313e-21 -9.87899e-16 0)
(-2.69675e-21 -9.87899e-16 0)
(-2.28756e-21 -9.879e-16 0)
(-1.85894e-21 -9.879e-16 0)
(-1.54076e-21 -9.879e-16 0)
(-1.34063e-21 -9.879e-16 0)
(-1.13824e-21 -9.879e-16 0)
(-9.33924e-22 -9.879e-16 0)
(-7.2803e-22 -9.879e-16 0)
(-5.20903e-22 -9.879e-16 0)
(-3.12895e-22 -9.879e-16 0)
(-1.04357e-22 -9.879e-16 0)
(1.04357e-22 -9.879e-16 0)
(3.12895e-22 -9.879e-16 0)
(5.20903e-22 -9.879e-16 0)
(7.2803e-22 -9.879e-16 0)
(9.33924e-22 -9.879e-16 0)
(1.13824e-21 -9.879e-16 0)
(1.34063e-21 -9.879e-16 0)
(1.54076e-21 -9.879e-16 0)
(1.85894e-21 -9.879e-16 0)
(2.28756e-21 -9.879e-16 0)
(2.69675e-21 -9.87899e-16 0)
(3.08313e-21 -9.87899e-16 0)
(3.44357e-21 -9.87899e-16 0)
(3.77518e-21 -9.87899e-16 0)
(4.07536e-21 -9.87899e-16 0)
(4.34183e-21 -9.87899e-16 0)
(4.57263e-21 -9.87899e-16 0)
(4.76614e-21 -9.87899e-16 0)
(4.92107e-21 -9.87899e-16 0)
(5.03648e-21 -9.87899e-16 0)
(5.11177e-21 -9.87899e-16 0)
(5.14668e-21 -9.87899e-16 0)
(5.14126e-21 -9.87898e-16 0)
(5.0959e-21 -9.87898e-16 0)
(5.01127e-21 -9.87898e-16 0)
(4.88836e-21 -9.87898e-16 0)
(4.72839e-21 -9.87898e-16 0)
(4.53287e-21 -9.87898e-16 0)
(4.30352e-21 -9.87898e-16 0)
(4.04229e-21 -9.87898e-16 0)
(3.75131e-21 -9.87898e-16 0)
(3.4329e-21 -9.87898e-16 0)
(3.08954e-21 -9.87898e-16 0)
(2.72385e-21 -9.87898e-16 0)
(2.33856e-21 -9.87898e-16 0)
(1.93652e-21 -9.87897e-16 0)
(1.52065e-21 -9.87897e-16 0)
(1.09396e-21 -9.87897e-16 0)
(6.59494e-22 -9.87897e-16 0)
(2.20352e-22 -9.87897e-16 0)
(-2.22233e-22 -9.87897e-16 0)
(-6.65127e-22 -9.87897e-16 0)
(-1.10332e-21 -9.87897e-16 0)
(-1.53369e-21 -9.87897e-16 0)
(-1.95316e-21 -9.87897e-16 0)
(-2.35873e-21 -9.87897e-16 0)
(-2.74743e-21 -9.87897e-16 0)
(-3.11641e-21 -9.87897e-16 0)
(-3.46291e-21 -9.87898e-16 0)
(-3.78428e-21 -9.87898e-16 0)
(-4.07804e-21 -9.87898e-16 0)
(-4.34183e-21 -9.87898e-16 0)
(-4.5735e-21 -9.87898e-16 0)
(-4.77108e-21 -9.87898e-16 0)
(-4.93282e-21 -9.87898e-16 0)
(-5.05721e-21 -9.87898e-16 0)
(-5.14297e-21 -9.87898e-16 0)
(-5.18913e-21 -9.87898e-16 0)
(-5.19498e-21 -9.87899e-16 0)
(-5.16013e-21 -9.87899e-16 0)
(-5.0845e-21 -9.87899e-16 0)
(-4.96835e-21 -9.87899e-16 0)
(-4.81227e-21 -9.87899e-16 0)
(-4.61721e-21 -9.87899e-16 0)
(-4.38444e-21 -9.87899e-16 0)
(-4.11561e-21 -9.87899e-16 0)
(-3.81269e-21 -9.87899e-16 0)
(-3.47798e-21 -9.879e-16 0)
(-3.11409e-21 -9.879e-16 0)
(-2.72394e-21 -9.879e-16 0)
(-2.31071e-21 -9.879e-16 0)
(-1.87782e-21 -9.879e-16 0)
(-1.55644e-21 -9.879e-16 0)
(-1.35429e-21 -9.879e-16 0)
(-1.14984e-21 -9.879e-16 0)
(-9.43451e-22 -9.879e-16 0)
(-7.3546e-22 -9.879e-16 0)
(-5.26222e-22 -9.879e-16 0)
(-3.16091e-22 -9.879e-16 0)
(-1.05423e-22 -9.879e-16 0)
(1.05423e-22 -9.879e-16 0)
(3.16091e-22 -9.879e-16 0)
(5.26222e-22 -9.879e-16 0)
(7.3546e-22 -9.879e-16 0)
(9.43451e-22 -9.879e-16 0)
(1.14984e-21 -9.879e-16 0)
(1.35429e-21 -9.879e-16 0)
(1.55644e-21 -9.879e-16 0)
(1.87782e-21 -9.879e-16 0)
(2.31071e-21 -9.879e-16 0)
(2.72394e-21 -9.879e-16 0)
(3.11409e-21 -9.879e-16 0)
(3.47798e-21 -9.879e-16 0)
(3.81269e-21 -9.87899e-16 0)
(4.11561e-21 -9.87899e-16 0)
(4.38444e-21 -9.87899e-16 0)
(4.61721e-21 -9.87899e-16 0)
(4.81227e-21 -9.87899e-16 0)
(4.96835e-21 -9.87899e-16 0)
(5.0845e-21 -9.87899e-16 0)
(5.16013e-21 -9.87899e-16 0)
(5.19498e-21 -9.87899e-16 0)
(5.18913e-21 -9.87898e-16 0)
(5.14297e-21 -9.87898e-16 0)
(5.05721e-21 -9.87898e-16 0)
(4.93282e-21 -9.87898e-16 0)
(4.77108e-21 -9.87898e-16 0)
(4.5735e-21 -9.87898e-16 0)
(4.34183e-21 -9.87898e-16 0)
(4.07804e-21 -9.87898e-16 0)
(3.78428e-21 -9.87898e-16 0)
(3.46291e-21 -9.87898e-16 0)
(3.11641e-21 -9.87897e-16 0)
(2.74743e-21 -9.87897e-16 0)
(2.35873e-21 -9.87897e-16 0)
(1.95316e-21 -9.87897e-16 0)
(1.53369e-21 -9.87897e-16 0)
(1.10332e-21 -9.87897e-16 0)
(6.65127e-22 -9.87897e-16 0)
(2.22233e-22 -9.87897e-16 0)
(-2.24655e-22 -9.87897e-16 0)
(-6.72382e-22 -9.87897e-16 0)
(-1.11537e-21 -9.87897e-16 0)
(-1.55047e-21 -9.87897e-16 0)
(-1.9746e-21 -9.87897e-16 0)
(-2.3847e-21 -9.87897e-16 0)
(-2.77781e-21 -9.87897e-16 0)
(-3.15102e-21 -9.87897e-16 0)
(-3.50156e-21 -9.87897e-16 0)
(-3.82676e-21 -9.87897e-16 0)
(-4.1241e-21 -9.87898e-16 0)
(-4.39119e-21 -9.87898e-16 0)
(-4.62586e-21 -9.87898e-16 0)
(-4.8261e-21 -9.87898e-16 0)
(-4.99013e-21 -9.87898e-16 0)
(-5.11641e-21 -9.87898e-16 0)
(-5.20366e-21 -9.87898e-16 0)
(-5.25085e-21 -9.87898e-16 0)
(-5.25727e-21 -9.87899e-16 0)
(-5.22249e-21 -9.87899e-16 0)
(-5.14643e-21 -9.87899e-16 0)
(-5.02933e-21 -9.87899e-16 0)
(-4.87178e-21 -9.87899e-16 0)
(-4.67471e-21 -9.87899e-16 0)
(-4.43943e-21 -9.87899e-16 0)
(-4.16756e-21 -9.87899e-16 0)
(-3.8611e-21 -9.879e-16 0)
(-3.52239e-21 -9.879e-16 0)
(-3.15405e-21 -9.879e-16 0)
(-2.75905e-21 -9.879e-16 0)
(-2.34061e-21 -9.879e-16 0)
(-1.90219e-21 -9.879e-16 0)
(-1.57668e-21 -9.879e-16 0)
(-1.37192e-21 -9.879e-16 0)
(-1.16482e-21 -9.879e-16 0)
(-9.55751e-22 -9.879e-16 0)
(-7.45054e-22 -9.879e-16 0)
(-5.33089e-22 -9.879e-16 0)
(-3.20217e-22 -9.879e-16 0)
(-1.068e-22 -9.879e-16 0)
(1.068e-22 -9.879e-16 0)
(3.20217e-22 -9.879e-16 0)
(5.33089e-22 -9.879e-16 0)
(7.45054e-22 -9.879e-16 0)
(9.55751e-22 -9.879e-16 0)
(1.16482e-21 -9.879e-16 0)
(1.37192e-21 -9.879e-16 0)
(1.57668e-21 -9.879e-16 0)
(1.90219e-21 -9.879e-16 0)
(2.34061e-21 -9.879e-16 0)
(2.75905e-21 -9.879e-16 0)
(3.15405e-21 -9.879e-16 0)
(3.52239e-21 -9.879e-16 0)
(3.8611e-21 -9.879e-16 0)
(4.16756e-21 -9.87899e-16 0)
(4.43943e-21 -9.87899e-16 0)
(4.67471e-21 -9.87899e-16 0)
(4.87178e-21 -9.87899e-16 0)
(5.02933e-21 -9.87899e-16 0)
(5.14643e-21 -9.87899e-16 0)
(5.22249e-21 -9.87899e-16 0)
(5.25727e-21 -9.87899e-16 0)
(5.25085e-21 -9.87898e-16 0)
(5.20366e-21 -9.87898e-16 0)
(5.11641e-21 -9.87898e-16 0)
(4.99013e-21 -9.87898e-16 0)
(4.8261e-21 -9.87898e-16 0)
(4.62586e-21 -9.87898e-16 0)
(4.39119e-21 -9.87898e-16 0)
(4.1241e-21 -9.87898e-16 0)
(3.82676e-21 -9.87897e-16 0)
(3.50156e-21 -9.87897e-16 0)
(3.15102e-21 -9.87897e-16 0)
(2.77781e-21 -9.87897e-16 0)
(2.3847e-21 -9.87897e-16 0)
(1.9746e-21 -9.87897e-16 0)
(1.55047e-21 -9.87897e-16 0)
(1.11537e-21 -9.87897e-16 0)
(6.72382e-22 -9.87897e-16 0)
(2.24655e-22 -9.87897e-16 0)
(-2.27747e-22 -9.87897e-16 0)
(-6.81643e-22 -9.87897e-16 0)
(-1.13075e-21 -9.87897e-16 0)
(-1.5719e-21 -9.87897e-16 0)
(-2.00196e-21 -9.87897e-16 0)
(-2.41786e-21 -9.87897e-16 0)
(-2.81659e-21 -9.87897e-16 0)
(-3.19522e-21 -9.87897e-16 0)
(-3.55093e-21 -9.87897e-16 0)
(-3.88103e-21 -9.87897e-16 0)
(-4.18294e-21 -9.87897e-16 0)
(-4.45426e-21 -9.87898e-16 0)
(-4.69275e-21 -9.87898e-16 0)
(-4.8964e-21 -9.87898e-16 0)
(-5.06337e-21 -9.87898e-16 0)
(-5.19209e-21 -9.87898e-16 0)
(-5.28124e-21 -9.87898e-16 0)
(-5.32976e-21 -9.87898e-16 0)
(-5.33691e-21 -9.87899e-16 0)
(-5.30224e-21 -9.87899e-16 0)
(-5.22565e-21 -9.87899e-16 0)
(-5.10734e-21 -9.87899e-16 0)
(-4.94792e-21 -9.87899e-16 0)
(-4.7483e-21 -9.87899e-16 0)
(-4.50979e-21 -9.87899e-16 0)
(-4.23405e-21 -9.879e-16 0)
(-3.92308e-21 -9.879e-16 0)
(-3.57924e-21 -9.879e-16 0)
(-3.20522e-21 -9.879e-16 0)
(-2.80401e-21 -9.879e-16 0)
(-2.37889e-21 -9.879e-16 0)
(-1.9334e-21 -9.879e-16 0)
(-1.6026e-21 -9.879e-16 0)
(-1.3945e-21 -9.879e-16 0)
(-1.18401e-21 -9.879e-16 0)
(-9.71505e-22 -9.879e-16 0)
(-7.57342e-22 -9.879e-16 0)
(-5.41885e-22 -9.879e-16 0)
(-3.25502e-22 -9.879e-16 0)
(-1.08563e-22 -9.879e-16 0)
(1.08563e-22 -9.879e-16 0)
(3.25502e-22 -9.879e-16 0)
(5.41885e-22 -9.879e-16 0)
(7.57342e-22 -9.879e-16 0)
(9.71505e-22 -9.879e-16 0)
(1.18401e-21 -9.879e-16 0)
(1.3945e-21 -9.879e-16 0)
(1.6026e-21 -9.879e-16 0)
(1.9334e-21 -9.879e-16 0)
(2.37889e-21 -9.879e-16 0)
(2.80401e-21 -9.879e-16 0)
(3.20522e-21 -9.879e-16 0)
(3.57924e-21 -9.879e-16 0)
(3.92308e-21 -9.879e-16 0)
(4.23405e-21 -9.879e-16 0)
(4.50979e-21 -9.87899e-16 0)
(4.7483e-21 -9.87899e-16 0)
(4.94792e-21 -9.87899e-16 0)
(5.10734e-21 -9.87899e-16 0)
(5.22565e-21 -9.87899e-16 0)
(5.30224e-21 -9.87899e-16 0)
(5.33691e-21 -9.87899e-16 0)
(5.32976e-21 -9.87898e-16 0)
(5.28124e-21 -9.87898e-16 0)
(5.19209e-21 -9.87898e-16 0)
(5.06337e-21 -9.87898e-16 0)
(4.8964e-21 -9.87898e-16 0)
(4.69275e-21 -9.87898e-16 0)
(4.45426e-21 -9.87898e-16 0)
(4.18294e-21 -9.87897e-16 0)
(3.88103e-21 -9.87897e-16 0)
(3.55093e-21 -9.87897e-16 0)
(3.19522e-21 -9.87897e-16 0)
(2.81659e-21 -9.87897e-16 0)
(2.41786e-21 -9.87897e-16 0)
(2.00196e-21 -9.87897e-16 0)
(1.5719e-21 -9.87897e-16 0)
(1.13075e-21 -9.87897e-16 0)
(6.81643e-22 -9.87897e-16 0)
(2.27747e-22 -9.87897e-16 0)
(-2.31668e-22 -9.87896e-16 0)
(-6.93385e-22 -9.87897e-16 0)
(-1.15026e-21 -9.87897e-16 0)
(-1.59907e-21 -9.87897e-16 0)
(-2.03667e-21 -9.87897e-16 0)
(-2.45992e-21 -9.87897e-16 0)
(-2.86578e-21 -9.87897e-16 0)
(-3.25128e-21 -9.87897e-16 0)
(-3.61356e-21 -9.87897e-16 0)
(-3.94987e-21 -9.87897e-16 0)
(-4.25759e-21 -9.87897e-16 0)
(-4.53428e-21 -9.87897e-16 0)
(-4.77766e-21 -9.87898e-16 0)
(-4.98564e-21 -9.87898e-16 0)
(-5.15636e-21 -9.87898e-16 0)
(-5.2882e-21 -9.87898e-16 0)
(-5.37978e-21 -9.87898e-16 0)
(-5.43001e-21 -9.87898e-16 0)
(-5.43811e-21 -9.87899e-16 0)
(-5.40359e-21 -9.87899e-16 0)
(-5.32633e-21 -9.87899e-16 0)
(-5.20652e-21 -9.87899e-16 0)
(-5.04473e-21 -9.87899e-16 0)
(-4.84189e-21 -9.87899e-16 0)
(-4.5993e-21 -9.879e-16 0)
(-4.31863e-21 -9.879e-16 0)
(-4.00193e-21 -9.879e-16 0)
(-3.65159e-21 -9.879e-16 0)
(-3.27033e-21 -9.879e-16 0)
(-2.86123e-21 -9.879e-16 0)
(-2.42762e-21 -9.879e-16 0)
(-1.97313e-21 -9.87901e-16 0)
(-1.63561e-21 -9.87901e-16 0)
(-1.42324e-21 -9.87901e-16 0)
(-1.20844e-21 -9.87901e-16 0)
(-9.91562e-22 -9.87901e-16 0)
(-7.72987e-22 -9.87901e-16 0)
(-5.53084e-22 -9.87901e-16 0)
(-3.32231e-22 -9.87901e-16 0)
(-1.10807e-22 -9.87901e-16 0)
(1.10807e-22 -9.87901e-16 0)
(3.32231e-22 -9.87901e-16 0)
(5.53084e-22 -9.87901e-16 0)
(7.72987e-22 -9.87901e-16 0)