/*--------------------------------*- C++ -*----------------------------------*\
  =========                 |
  \\      /  F ield         | OpenFOAM: The Open Source CFD Toolbox
   \\    /   O peration     | Website:  https://openfoam.org
    \\  /    A nd           | Version:  10
     \\/     M anipulation  |
\*---------------------------------------------------------------------------*/
FoamFile
{
    format      ascii;
    class       surfaceScalarField;
    location    "2.27";
    object      phi;
}
// * * * * * * * * * * * * * * * * * * * * * * * * * * * * * * * * * * * * * //

dimensions      [0 3 -1 0 0 0 0];

internalField   nonuniform List<scalar> 
24170
(
1.46458e-09
-1.46458e-09
2.71753e-09
-1.25294e-09
3.70774e-09
-9.90215e-10
4.45424e-09
-7.46498e-10
5.00646e-09
-5.52222e-10
5.41783e-09
-4.11368e-10
5.73433e-09
-3.16502e-10
5.99209e-09
-2.57765e-10
6.21886e-09
-2.26763e-10
6.43667e-09
-2.1781e-10
6.66489e-09
-2.28218e-10
6.92354e-09
-2.58658e-10
7.238e-09
-3.14456e-10
7.64748e-09
-4.09475e-10
8.22538e-09
-5.77902e-10
9.14171e-09
-9.16331e-10
1.09236e-08
-1.78185e-09
-5.09989e-09
1.60234e-08
1.65871e-09
-3.12329e-09
3.07191e-09
-2.66614e-09
4.18215e-09
-2.10046e-09
5.01339e-09
-1.57774e-09
5.62382e-09
-1.16266e-09
6.07525e-09
-8.62788e-10
6.42025e-09
-6.61506e-10
6.69978e-09
-5.37294e-10
6.945e-09
-4.71985e-10
7.18047e-09
-4.53279e-10
7.42751e-09
-4.75256e-10
7.70785e-09
-5.38999e-10
8.04843e-09
-6.55033e-10
8.48953e-09
-8.5058e-10
9.10203e-09
-1.1904e-09
1.00281e-08
-1.84239e-09
1.15578e-08
-3.3116e-09
-7.3005e-09
1.37585e-08
1.85295e-09
-4.97625e-09
3.42272e-09
-4.23591e-09
4.64624e-09
-3.32398e-09
5.55452e-09
-2.48601e-09
6.21598e-09
-1.82412e-09
6.7014e-09
-1.3482e-09
7.06995e-09
-1.03006e-09
7.3671e-09
-8.34442e-10
7.62701e-09
-7.31892e-10
7.87621e-09
-7.02487e-10
8.13732e-09
-7.36367e-10
8.43269e-09
-8.34366e-10
8.78875e-09
-1.01109e-09
9.24214e-09
-1.30397e-09
9.84898e-09
-1.79725e-09
1.06916e-08
-2.68503e-09
1.18113e-08
-4.4313e-09
-8.03672e-09
1.25475e-08
2.06933e-09
-7.04558e-09
3.80829e-09
-5.97486e-09
5.14866e-09
-4.66435e-09
6.13216e-09
-3.46952e-09
6.84067e-09
-2.53263e-09
7.35566e-09
-1.8632e-09
7.74365e-09
-1.41804e-09
8.05468e-09
-1.14548e-09
8.32573e-09
-1.00294e-09
8.58492e-09
-9.61679e-10
8.85549e-09
-1.00693e-09
9.1593e-09
-1.13818e-09
9.52021e-09
-1.372e-09
9.96708e-09
-1.75084e-09
1.05335e-08
-2.36362e-09
1.12369e-08
-3.38852e-09
1.19614e-08
-5.15573e-09
-8.08257e-09
1.20072e-08
2.32141e-09
-9.36699e-09
4.2502e-09
-7.90365e-09
5.71404e-09
-6.12819e-09
6.77121e-09
-4.52669e-09
7.52178e-09
-3.28319e-09
8.0606e-09
-2.40202e-09
8.46256e-09
-1.82e-09
8.78255e-09
-1.46546e-09
9.0601e-09
-1.28049e-09
9.32443e-09
-1.22602e-09
9.59869e-09
-1.28118e-09
9.90308e-09
-1.44257e-09
1.0257e-08
-1.7259e-09
1.06785e-08
-2.1724e-09
1.11767e-08
-2.86175e-09
1.17177e-08
-3.92954e-09
1.21219e-08
-5.55996e-09
-7.82227e-09
1.18616e-08
2.62428e-09
-1.19913e-08
4.7709e-09
-1.00503e-08
6.3659e-09
-7.7232e-09
7.4932e-09
-5.65399e-09
8.27806e-09
-4.06804e-09
8.8323e-09
-2.95627e-09
9.24052e-09
-2.22822e-09
9.56262e-09
-1.78756e-09
9.84038e-09
-1.55825e-09
1.01035e-08
-1.48915e-09
1.03742e-08
-1.55188e-09
1.06699e-08
-1.73828e-09
1.10041e-08
-2.06008e-09
1.13831e-08
-2.55143e-09
1.17943e-08
-3.27291e-09
1.21734e-08
-4.30869e-09
1.23406e-08
-5.72708e-09
-7.43711e-09
1.19554e-08
2.99832e-09
-1.49896e-08
5.39904e-09
-1.2451e-08
7.1323e-09
-9.45647e-09
8.3221e-09
-6.84378e-09
9.12886e-09
-4.8748e-09
9.68611e-09
-3.51352e-09
1.00897e-08
-2.63179e-09
1.04045e-08
-2.10241e-09
1.06741e-08
-1.82785e-09
1.09279e-08
-1.74296e-09
1.11863e-08
-1.81024e-09
1.14629e-08
-2.01492e-09
1.17647e-08
-2.36182e-09
1.20869e-08
-2.87369e-09
1.24016e-08
-3.58761e-09
1.26338e-08
-4.54082e-09
1.26342e-08
-5.72747e-09
-7.00865e-09
1.22057e-08
3.47331e-09
-1.84629e-08
6.17422e-09
-1.51519e-08
8.04972e-09
-1.1332e-08
9.28713e-09
-8.08119e-09
1.00964e-08
-5.68405e-09
1.06386e-08
-4.05574e-09
1.10224e-08
-3.01555e-09
1.13174e-08
-2.39745e-09
1.1568e-08
-2.07847e-09
1.18024e-08
-1.97736e-09
1.20382e-08
-2.04601e-09
1.22846e-08
-2.26137e-09
1.2542e-08
-2.61923e-09
1.27971e-08
-3.12875e-09
1.30136e-08
-3.80409e-09
1.31198e-08
-4.64703e-09
1.30061e-08
-5.61376e-09
-6.57143e-09
1.25689e-08
4.09496e-09
-2.25579e-08
7.15346e-09
-1.82104e-08
9.16729e-09
-1.33458e-08
1.04252e-08
-9.33912e-09
1.1207e-08
-6.46581e-09
1.17083e-08
-4.55707e-09
1.20516e-08
-3.35884e-09
1.23104e-08
-2.65621e-09
1.25283e-08
-2.29644e-09
1.27312e-08
-2.18023e-09
1.29328e-08
-2.24765e-09
1.31378e-08
-2.46629e-09
1.33404e-08
-2.8219e-09
1.35218e-08
-3.31011e-09
1.36438e-08
-3.92607e-09
1.36459e-08
-4.64914e-09
1.34546e-08
-5.42245e-09
-6.13861e-09
1.30218e-08
4.93663e-09
-2.74945e-08
8.42141e-09
-2.16952e-08
1.05524e-08
-1.54768e-08
1.17834e-08
-1.05701e-08
1.24921e-08
-7.17443e-09
1.29161e-08
-4.98107e-09
1.31912e-08
-3.634e-09
1.33926e-08
-2.8576e-09
1.35612e-08
-2.46501e-09
1.37184e-08
-2.33743e-09
1.38734e-08
-2.40265e-09
1.40257e-08
-2.61863e-09
1.41651e-08
-2.96133e-09
1.42697e-08
-3.4147e-09
1.43041e-08
-3.96044e-09
1.42216e-08
-4.5666e-09
1.39767e-08
-5.17762e-09
-5.71387e-09
1.3552e-08
6.12172e-09
-3.36162e-08
1.0107e-08
-2.56805e-08
1.22983e-08
-1.76682e-08
1.34212e-08
-1.1693e-08
1.39882e-08
-7.74139e-09
1.42843e-08
-5.2772e-09
1.44552e-08
-3.80492e-09
1.4573e-08
-2.97535e-09
1.46722e-08
-2.56421e-09
1.47678e-08
-2.43304e-09
1.4863e-08
-2.49791e-09
1.49524e-08
-2.708e-09
1.50221e-08
-3.03098e-09
1.50495e-08
-3.44213e-09
1.50043e-08
-3.91526e-09
1.4853e-08
-4.41528e-09
1.45698e-08
-4.89447e-09
-5.29683e-09
1.41528e-08
6.52842e-09
-4.01446e-08
1.03294e-08
-2.94814e-08
1.21288e-08
-1.94675e-08
1.28884e-08
-1.24527e-08
1.31793e-08
-8.03224e-09
1.32772e-08
-5.37507e-09
1.33049e-08
-3.83268e-09
1.33147e-08
-2.98512e-09
1.33267e-08
-2.57619e-09
1.3346e-08
-2.45237e-09
1.33697e-08
-2.52155e-09
1.33888e-08
-2.72717e-09
1.33897e-08
-3.03183e-09
1.33538e-08
-3.40622e-09
1.32597e-08
-3.82122e-09
1.30874e-08
-4.243e-09
1.2825e-08
-4.63206e-09
-4.948e-09
1.24762e-08
9.70212e-09
-4.98468e-08
1.45199e-08
-3.42992e-08
1.63221e-08
-2.12698e-08
1.6813e-08
-1.29436e-08
1.68262e-08
-8.04537e-09
1.67002e-08
-5.2491e-09
1.65592e-08
-3.69168e-09
1.64424e-08
-2.86837e-09
1.63568e-08
-2.49057e-09
1.62966e-08
-2.39214e-09
1.62503e-08
-2.47523e-09
1.62028e-08
-2.67972e-09
1.61363e-08
-2.96529e-09
1.60306e-08
-3.30057e-09
1.5866e-08
-3.65659e-09
1.56266e-08
-4.00357e-09
1.53058e-08
-4.31131e-09
-4.55276e-09
1.49106e-08
1.56658e-08
-6.55126e-08
2.143e-08
-4.00633e-08
2.2592e-08
-2.24318e-08
2.22912e-08
-1.26428e-08
2.16836e-08
-7.4378e-09
2.11163e-08
-4.68185e-09
2.06654e-08
-3.24071e-09
2.03259e-08
-2.52892e-09
2.00732e-08
-2.2379e-09
1.98801e-08
-2.199e-09
1.97207e-08
-2.31579e-09
1.95705e-08
-2.5296e-09
1.94065e-08
-2.80129e-09
1.92071e-08
-3.10116e-09
1.89542e-08
-3.40364e-09
1.86359e-08
-3.68526e-09
1.82496e-08
-3.92505e-09
-4.1066e-09
1.78035e-08
2.86628e-08
-9.41754e-08
3.36829e-08
-4.50834e-08
3.22612e-08
-2.10101e-08
3.00117e-08
-1.03932e-08
2.81511e-08
-5.57728e-09
2.67873e-08
-3.31797e-09
2.58135e-08
-2.26695e-09
2.51142e-08
-1.82958e-09
2.45994e-08
-1.72311e-09
2.42032e-08
-1.80281e-09
2.38763e-08
-1.98893e-09
2.35806e-08
-2.23387e-09
2.32855e-08
-2.50621e-09
2.29671e-08
-2.78272e-09
2.26081e-08
-3.04463e-09
2.21991e-08
-3.27628e-09
2.17394e-08
-3.46533e-09
-3.60357e-09
2.12363e-08
6.32452e-08
-1.57421e-07
5.66861e-08
-3.85243e-08
4.70882e-08
-1.14123e-08
4.05955e-08
-3.90046e-09
3.64988e-08
-1.48065e-09
3.38677e-08
-6.86829e-10
3.21163e-08
-5.15549e-10
3.09026e-08
-6.15905e-10
3.00229e-08
-8.43401e-10
2.93502e-08
-1.13007e-09
2.88007e-08
-1.43945e-09
2.83169e-08
-1.75007e-09
2.78582e-08
-2.04754e-09
2.73965e-08
-2.32103e-09
2.69139e-08
-2.56199e-09
2.64015e-08
-2.76385e-09
2.58584e-08
-2.92226e-09
-3.03536e-09
2.52902e-08
1.82989e-07
1.59137e-07
9.67938e-08
4.76705e-08
6.65651e-08
1.88164e-08
5.32326e-08
9.43212e-09
4.62468e-08
5.5051e-09
4.21271e-08
3.43286e-09
3.94875e-08
2.12405e-09
3.76834e-08
1.18826e-09
3.63768e-08
4.63207e-10
3.53722e-08
-1.25556e-10
3.45478e-08
-6.1504e-10
3.38299e-08
-1.03211e-09
3.31697e-08
-1.38734e-09
3.25355e-08
-1.68683e-09
3.19079e-08
-1.93441e-09
3.1277e-08
-2.13296e-09
3.064e-08
-2.28526e-09
-2.39454e-09
2.99992e-08
7.72303e-08
8.19066e-08
7.54075e-08
4.94933e-08
6.53437e-08
2.88801e-08
5.73332e-08
1.74426e-08
5.18398e-08
1.09985e-08
4.81151e-08
7.15751e-09
4.55265e-08
4.71269e-09
4.36582e-08
3.05656e-09
4.22484e-08
1.873e-09
4.11327e-08
9.90119e-10
4.02075e-08
3.10244e-10
3.93958e-08
-2.20447e-10
3.86477e-08
-6.39247e-10
3.79356e-08
-9.74728e-10
3.72429e-08
-1.24171e-09
3.65608e-08
-1.45091e-09
3.58862e-08
-1.61064e-09
-1.72782e-09
3.52195e-08
3.59382e-08
4.59685e-08
5.01222e-08
3.53093e-08
5.38049e-08
2.51974e-08
5.36301e-08
1.76175e-08
5.23192e-08
1.23094e-08
5.08428e-08
8.63392e-09
4.94961e-08
6.05936e-09
4.83341e-08
4.21861e-09
4.73348e-08
2.87225e-09
4.64589e-08
1.86608e-09
4.56689e-08
1.1002e-09
4.49395e-08
5.08932e-10
4.42521e-08
4.82119e-11
4.35849e-08
-3.07501e-10
4.29287e-08
-5.8553e-10
4.22796e-08
-8.01791e-10
4.16367e-08
-9.67736e-10
-1.09235e-09
4.10012e-08
1.4303e-08
3.16655e-08
2.32893e-08
2.6323e-08
2.80984e-08
2.03883e-08
3.0451e-08
1.52649e-08
3.15043e-08
1.1256e-08
3.1899e-08
8.23927e-09
3.19633e-08
5.99505e-09
3.18596e-08
4.32231e-09
3.16666e-08
3.06524e-09
3.14221e-08
2.11055e-09
3.11444e-08
1.37789e-09
3.08427e-08
8.10628e-10
3.05223e-08
3.68627e-10
3.01916e-08
2.31976e-11
2.9849e-08
-2.42955e-10
2.94974e-08
-4.50101e-10
2.91397e-08
-6.10109e-10
-7.31902e-10
2.87793e-08
8.56872e-09
2.30967e-08
1.49646e-08
1.99272e-08
1.92119e-08
1.6141e-08
2.18796e-08
1.25972e-08
2.35121e-08
9.62355e-09
2.44949e-08
7.25641e-09
2.50726e-08
5.41743e-09
2.53932e-08
4.0017e-09
2.55457e-08
2.91271e-09
2.5584e-08
2.07224e-09
2.55416e-08
1.4203e-09
2.54401e-08
9.1208e-10
2.52944e-08
5.14341e-10
2.51152e-08
2.02446e-10
2.49135e-08
-4.12995e-11
2.46929e-08
-2.29462e-10
2.44585e-08
-3.75694e-10
-4.88104e-10
2.42147e-08
5.78573e-09
1.7311e-08
1.0477e-08
1.52359e-08
1.39483e-08
1.26696e-08
1.63952e-08
1.01503e-08
1.80793e-08
7.93941e-09
1.92244e-08
6.11135e-09
1.99948e-08
4.647e-09
2.05041e-08
3.49243e-09
2.08287e-08
2.58809e-09
2.10202e-08
1.88071e-09
2.11139e-08
1.32666e-09
2.11343e-08
8.91705e-10
2.10991e-08
5.49538e-10
2.10214e-08
2.80093e-10
2.09121e-08
6.8053e-11
2.07794e-08
-9.67955e-11
2.06285e-08
-2.24755e-10
-3.23857e-10
2.04642e-08
4.21424e-09
1.30968e-08
7.78759e-09
1.16626e-08
1.05996e-08
9.8576e-09
1.27166e-08
8.03328e-09
1.42711e-08
6.38495e-09
1.5396e-08
4.98646e-09
1.62011e-08
3.84188e-09
1.67698e-08
2.92369e-09
1.71633e-08
2.19467e-09
1.74255e-08
1.61844e-09
1.75887e-08
1.1635e-09
1.76762e-08
8.04171e-10
1.77056e-08
5.20142e-10
1.76901e-08
2.95583e-10
1.764e-08
1.18215e-10
1.75643e-08
-2.11449e-11
1.74686e-08
-1.29079e-10
-2.13168e-10
1.7358e-08
3.22661e-09
9.87015e-09
6.03524e-09
8.85396e-09
8.32992e-09
7.56292e-09
1.01292e-08
6.23398e-09
1.15043e-08
5.00988e-09
1.25379e-08
3.95291e-09
1.3305e-08
3.07474e-09
1.38672e-08
2.36149e-09
1.42724e-08
1.7895e-09
1.4557e-08
1.33379e-09
1.47488e-08
9.71751e-10
1.48686e-08
6.84368e-10
1.49324e-08
4.5628e-10
1.49527e-08
2.75306e-10
1.4939e-08
1.31879e-10
1.48994e-08
1.84866e-11
1.484e-08
-6.96455e-11
-1.38396e-10
1.47652e-08
2.555e-09
7.31515e-09
4.81546e-09
6.5935e-09
6.70671e-09
5.67168e-09
8.22911e-09
4.71157e-09
9.42319e-09
3.8158e-09
1.03431e-08
3.03299e-09
1.10421e-08
2.37576e-09
1.15664e-08
1.83721e-09
1.19537e-08
1.40218e-09
1.2234e-08
1.05352e-09
1.24305e-08
7.75184e-10
1.25615e-08
5.53364e-10
1.26411e-08
3.76713e-10
1.26803e-08
2.36125e-10
1.26878e-08
1.24378e-10
1.26705e-08
3.57655e-11
1.26345e-08
-3.36493e-11
-8.77267e-11
1.25839e-08
2.06986e-09
5.24529e-09
3.92028e-09
4.74308e-09
5.49253e-09
4.09942e-09
6.78021e-09
3.42389e-09
7.80781e-09
2.7882e-09
8.61268e-09
2.22813e-09
9.23398e-09
1.75446e-09
9.70729e-09
1.36389e-09
1.00627e-08
1.04672e-09
1.03249e-08
7.914e-10
1.05132e-08
5.86813e-10
1.06434e-08
4.23247e-10
1.07275e-08
2.92619e-10
1.07752e-08
1.88387e-10
1.07942e-08
1.05327e-10
1.07907e-08
3.92899e-11
1.07698e-08
-1.27759e-11
-5.32702e-11
1.07354e-08
1.70213e-09
3.54316e-09
3.23418e-09
3.21103e-09
4.54918e-09
2.78443e-09
5.6386e-09
2.33447e-09
6.51818e-09
1.90863e-09
7.21495e-09
1.53136e-09
7.75872e-09
1.21068e-09
8.17752e-09
9.4509e-10
8.49566e-09
7.2858e-10
8.73336e-09
5.53703e-10
8.90701e-09
4.13166e-10
9.02974e-09
3.00513e-10
9.11203e-09
2.10329e-10
9.16221e-09
1.38203e-10
9.18695e-09
8.05946e-11
9.19155e-09
3.46835e-11
9.18051e-09
-1.73236e-12
-2.99611e-11
9.1572e-09
1.41171e-09
2.13144e-09
2.68807e-09
1.93467e-09
3.79092e-09
1.68157e-09
4.71164e-09
1.41374e-09
5.46095e-09
1.15932e-09
6.05923e-09
9.33076e-10
6.52982e-09
7.40096e-10
6.89515e-09
5.79755e-10
7.17506e-09
4.48667e-10
7.38626e-09
3.42511e-10
7.54243e-09
2.56995e-10
7.65465e-09
1.88292e-10
7.7318e-09
1.33174e-10
7.78101e-09
8.89986e-11
7.80796e-09
5.36372e-11
7.81726e-09
2.53886e-11
7.81263e-09
2.89089e-12
-1.45418e-11
7.79722e-09
1.17249e-09
9.58956e-10
2.23571e-09
8.71446e-10
3.15852e-09
7.58771e-10
3.93297e-09
6.39288e-10
4.56679e-09
5.25504e-10
5.07581e-09
4.24062e-10
5.47858e-09
3.37318e-10
5.79327e-09
2.65071e-10
6.03606e-09
2.0587e-10
6.22075e-09
1.57822e-10
6.35871e-09
1.19034e-10
6.4592e-09
8.78069e-11
6.52967e-09
6.27017e-11
6.57613e-09
4.25371e-11
6.60341e-09
2.63596e-11
6.61539e-09
1.34048e-11
6.61523e-09
3.05994e-12
-4.92468e-12
6.60561e-09
9.58956e-10
1.8304e-09
2.58917e-09
3.22846e-09
3.75396e-09
4.17803e-09
4.51534e-09
4.78041e-09
4.98628e-09
5.14411e-09
5.26314e-09
5.35095e-09
5.41365e-09
5.45619e-09
5.48255e-09
5.49595e-09
5.49901e-09
5.49409e-09
2.13159e-10
-2.13159e-10
4.27655e-10
-2.14496e-10
6.43344e-10
-2.15689e-10
8.60071e-10
-2.16728e-10
1.07767e-09
-2.17601e-10
1.29597e-09
-2.18298e-10
1.51478e-09
-2.18807e-10
1.73389e-09
-2.19118e-10
1.95312e-09
-2.19225e-10
2.17225e-09
-2.19129e-10
2.39108e-09
-2.18834e-10
2.60944e-09
-2.18355e-10
2.82715e-09
-2.17715e-10
3.0441e-09
-2.16949e-10
3.26021e-09
-2.16105e-10
3.47546e-09
-2.15248e-10
3.68991e-09
-2.14456e-10
3.90373e-09
-2.13819e-10
4.11717e-09
-2.13437e-10
4.33058e-09
-2.13409e-10
4.54441e-09
-2.13833e-10
4.75921e-09
-2.14798e-10
4.97559e-09
-2.16384e-10
5.19426e-09
-2.18664e-10
5.41595e-09
-2.21698e-10
5.64149e-09
-2.25537e-10
5.87171e-09
-2.30216e-10
6.10746e-09
-2.35749e-10
6.34958e-09
-2.42125e-10
6.59888e-09
-2.49302e-10
6.85609e-09
-2.57207e-10
7.12184e-09
-2.65747e-10
7.39668e-09
-2.74839e-10
7.68112e-09
-2.84449e-10
7.97577e-09
-2.94647e-10
8.28144e-09
-3.05666e-10
8.59937e-09
-3.17935e-10
8.93149e-09
-3.3212e-10
9.28064e-09
-3.49152e-10
9.65094e-09
-3.70292e-10
1.00482e-08
-3.97265e-10
1.04807e-08
-4.32524e-10
1.09605e-08
-4.79756e-10
1.15054e-08
-5.44905e-10
1.21437e-08
-6.38316e-10
1.29233e-08
-7.79617e-10
1.39328e-08
-1.00951e-09
1.53522e-08
-1.41941e-09
1.7573e-08
-2.22075e-09
2.21394e-08
-4.56642e-09
2.07939e-08
1.34552e-09
1.93195e-08
1.47442e-09
1.83359e-08
9.83624e-10
1.76134e-08
7.22484e-10
1.70453e-08
5.68077e-10
1.65747e-08
4.70625e-10
1.61688e-08
4.05898e-10
1.58082e-08
3.60533e-10
1.54815e-08
3.26784e-10
1.51813e-08
3.00139e-10
1.49033e-08
2.78003e-10
1.46444e-08
2.589e-10
1.44024e-08
2.41984e-10
1.41757e-08
2.26759e-10
1.39628e-08
2.12912e-10
1.37625e-08
2.00233e-10
1.3574e-08
1.88567e-10
1.33962e-08
1.77794e-10
1.32284e-08
1.67814e-10
1.30698e-08
1.58544e-10
1.29199e-08
1.49911e-10
1.2778e-08
1.41855e-10
1.26437e-08
1.34321e-10
1.25165e-08
1.27263e-10
1.23958e-08
1.20641e-10
1.22814e-08
1.14417e-10
1.21728e-08
1.08562e-10
1.20698e-08
1.03046e-10
1.1972e-08
9.78446e-11
1.1879e-08
9.29361e-11
1.17907e-08
8.83006e-11
1.17068e-08
8.39203e-11
1.1627e-08
7.97789e-11
1.15512e-08
7.5862e-11
1.1479e-08
7.21563e-11
1.14103e-08
6.86499e-11
1.1345e-08
6.53314e-11
1.12828e-08
6.21909e-11
1.12236e-08
5.92188e-11
1.11672e-08
5.64063e-11
1.11135e-08
5.37455e-11
1.10622e-08
5.12286e-11
1.10134e-08
4.88486e-11
1.09668e-08
4.65985e-11
1.09223e-08
4.44725e-11
1.08798e-08
4.24641e-11
1.08393e-08
4.05679e-11
1.08005e-08
3.87786e-11
1.07634e-08
3.7091e-11
1.07279e-08
3.55003e-11
1.06939e-08
3.40018e-11
1.06613e-08
3.25913e-11
1.063e-08
3.12642e-11
1.06e-08
3.00171e-11
1.05712e-08
2.88454e-11
1.05434e-08
2.7746e-11
1.05167e-08
2.67152e-11
1.0491e-08
2.57496e-11
1.04661e-08
2.4846e-11
1.04421e-08
2.40013e-11
1.04189e-08
2.32126e-11
1.03964e-08
2.2477e-11
1.03746e-08
2.17918e-11
1.03535e-08
2.11544e-11
1.03329e-08
2.05624e-11
1.03129e-08
2.00134e-11
1.02934e-08
1.9505e-11
1.02744e-08
1.90354e-11
1.02558e-08
1.86019e-11
1.02376e-08
1.82033e-11
1.02197e-08
1.7837e-11
1.02022e-08
1.75018e-11
1.0185e-08
1.71955e-11
1.01681e-08
1.69168e-11
1.01515e-08
1.66641e-11
1.0135e-08
1.64356e-11
1.01188e-08
1.62305e-11
1.01027e-08
1.60469e-11
1.00869e-08
1.58838e-11
1.00711e-08
1.57401e-11
1.00555e-08
1.56143e-11
1.004e-08
1.55058e-11
1.00246e-08
1.54131e-11
1.00092e-08
1.53356e-11
9.99397e-09
1.52724e-11
9.97875e-09
1.52225e-11
9.96357e-09
1.5185e-11
9.94841e-09
1.51595e-11
9.93326e-09
1.51451e-11
9.91812e-09
1.51411e-11
9.90297e-09
1.5147e-11
9.88781e-09
1.51622e-11
9.87263e-09
1.51865e-11
9.85741e-09
1.52191e-11
9.84215e-09
1.52599e-11
9.82684e-09
1.53084e-11
9.81147e-09
1.53645e-11
9.79605e-09
1.5428e-11
9.78055e-09
1.54991e-11
9.76497e-09
1.55775e-11
9.74931e-09
1.56636e-11
9.73355e-09
1.57578e-11
9.71769e-09
1.58607e-11
9.70171e-09
1.59729e-11
9.68562e-09
1.60959e-11
9.66939e-09
1.62311e-11
9.65301e-09
1.63807e-11
9.63646e-09
1.65473e-11
9.61972e-09
1.67348e-11
9.60278e-09
1.69476e-11
9.58558e-09
1.71923e-11
9.56811e-09
1.74768e-11
9.5503e-09
1.78121e-11
9.53208e-09
1.82119e-11
9.51339e-09
1.86953e-11
9.4941e-09
1.92873e-11
9.47408e-09
2.00212e-11
9.45314e-09
2.09433e-11
9.43102e-09
2.21167e-11
9.40739e-09
2.36304e-11
9.38178e-09
2.56124e-11
9.35352e-09
2.82519e-11
9.32169e-09
3.18387e-11
9.28485e-09
3.68391e-11
9.2408e-09
4.40498e-11
9.18584e-09
5.49527e-11
9.1132e-09
7.26474e-11
9.00837e-09
1.04832e-10
8.83214e-09
1.76222e-10
4.00843e-10
8.4313e-09
2.45298e-10
-4.58456e-10
4.92193e-10
-4.61391e-10
7.40539e-10
-4.64035e-10
9.90186e-10
-4.66375e-10
1.24098e-09
-4.68397e-10
1.49278e-09
-4.70097e-10
1.74546e-09
-4.71485e-10
1.99892e-09
-4.72575e-10
2.25308e-09
-4.73386e-10
2.50789e-09
-4.73938e-10
2.76331e-09
-4.74255e-10
3.01931e-09
-4.74362e-10
3.27589e-09
-4.74288e-10
3.533e-09
-4.74064e-10
3.79062e-09
-4.73727e-10
4.04869e-09
-4.73315e-10
4.30711e-09
-4.72874e-10
4.56575e-09
-4.72456e-10
4.82443e-09
-4.72118e-10
5.08294e-09
-4.71925e-10
5.34106e-09
-4.7195e-10
5.59853e-09
-4.72272e-10
5.85512e-09
-4.72975e-10
6.11061e-09
-4.74149e-10
6.3648e-09
-4.75888e-10
6.61756e-09
-4.78296e-10
6.86882e-09
-4.81478e-10
7.11862e-09
-4.85549e-10
7.36712e-09
-4.90622e-10
7.61463e-09
-4.96815e-10
7.86168e-09
-5.04252e-10
8.10901e-09
-5.13077e-10
8.35764e-09
-5.23477e-10
8.60892e-09
-5.3572e-10
8.86446e-09
-5.50195e-10
9.12626e-09
-5.67463e-10
9.39664e-09
-5.88314e-10
9.67835e-09
-6.13827e-10
9.97465e-09
-6.45452e-10
1.02895e-08
-6.85137e-10
1.06277e-08
-7.35518e-10
1.09954e-08
-8.00223e-10
1.14e-08
-8.84363e-10
1.18504e-08
-9.95264e-10
1.23556e-08
-1.14349e-09
1.29198e-08
-1.34385e-09
1.35249e-08
-1.61463e-09
1.40734e-08
-1.9679e-09
1.42163e-08
-2.36363e-09
1.21891e-08
-2.53925e-09
1.8639e-08
-5.10441e-09
1.83486e-08
1.76484e-09
1.78253e-08
1.50696e-09
1.73148e-08
1.23292e-09
1.68587e-08
1.02421e-09
1.64517e-08
8.77601e-10
1.60832e-08
7.7444e-10
1.5745e-08
6.98739e-10
1.54319e-08
6.39876e-10
1.51405e-08
5.91505e-10
1.48685e-08
5.50026e-10
1.4614e-08
5.13426e-10
1.43754e-08
4.80558e-10
1.41514e-08
4.50723e-10
1.39409e-08
4.23457e-10
1.37427e-08
3.98419e-10
1.35559e-08
3.75343e-10
1.33797e-08
3.54007e-10
1.32133e-08
3.34225e-10
1.3056e-08
3.15835e-10
1.29072e-08
2.98701e-10
1.27664e-08
2.82701e-10
1.2633e-08
2.67732e-10
1.25065e-08
2.53703e-10
1.23866e-08
2.40533e-10
1.22729e-08
2.28153e-10
1.2165e-08
2.165e-10
1.20625e-08
2.05521e-10
1.19652e-08
1.95165e-10
1.18727e-08
1.8539e-10
1.17849e-08
1.76157e-10
1.17014e-08
1.6743e-10
1.1622e-08
1.59178e-10
1.15464e-08
1.51372e-10
1.14746e-08
1.43986e-10
1.14063e-08
1.36996e-10
1.13412e-08
1.30381e-10
1.12793e-08
1.24119e-10
1.12203e-08
1.18193e-10
1.11641e-08
1.12585e-10
1.11106e-08
1.07279e-10
1.10596e-08
1.02259e-10
1.10109e-08
9.75121e-11
1.09645e-08
9.30245e-11
1.09202e-08
8.87836e-11
1.08779e-08
8.47776e-11
1.08374e-08
8.09954e-11
1.07988e-08
7.7426e-11
1.07618e-08
7.40596e-11
1.07264e-08
7.08863e-11
1.06925e-08
6.78971e-11
1.066e-08
6.50829e-11
1.06289e-08
6.24358e-11
1.05989e-08
5.99475e-11
1.05702e-08
5.76103e-11
1.05425e-08
5.5417e-11
1.05159e-08
5.33604e-11
1.04902e-08
5.14341e-11
1.04654e-08
4.96314e-11
1.04414e-08
4.79463e-11
1.04183e-08
4.63728e-11
1.03959e-08
4.49053e-11
1.03741e-08
4.35383e-11
1.0353e-08
4.2267e-11
1.03325e-08
4.10858e-11
1.03125e-08
3.99907e-11
1.0293e-08
3.89767e-11
1.0274e-08
3.80396e-11
1.02554e-08
3.71753e-11
1.02373e-08
3.638e-11
1.02195e-08
3.56496e-11
1.0202e-08
3.49809e-11
1.01848e-08
3.43702e-11
1.01679e-08
3.38143e-11
1.01513e-08
3.33103e-11
1.01348e-08
3.28551e-11
1.01186e-08
3.24458e-11
1.01026e-08
3.20799e-11
1.00867e-08
3.17549e-11
1.0071e-08
3.14683e-11
1.00554e-08
3.12179e-11
1.00399e-08
3.10015e-11
1.00245e-08
3.08172e-11
1.00092e-08
3.0663e-11
9.9939e-09
3.05372e-11
9.97868e-09
3.04378e-11
9.96351e-09
3.03637e-11
9.94835e-09
3.03131e-11
9.93321e-09
3.02846e-11
9.91808e-09
3.02772e-11
9.90293e-09
3.02895e-11
9.88778e-09
3.03204e-11
9.87259e-09
3.03691e-11
9.85738e-09
3.04346e-11
9.84212e-09
3.05164e-11
9.82682e-09
3.06137e-11
9.81145e-09
3.07262e-11
9.79603e-09
3.08534e-11
9.78053e-09
3.09954e-11
9.76496e-09
3.11523e-11
9.7493e-09
3.13245e-11
9.73354e-09
3.15129e-11
9.71768e-09
3.17182e-11
9.70171e-09
3.19427e-11
9.68562e-09
3.21882e-11
9.66939e-09
3.24582e-11
9.65302e-09
3.27566e-11
9.63648e-09
3.30891e-11
9.61975e-09
3.34627e-11
9.60281e-09
3.3887e-11
9.58563e-09
3.43744e-11
9.56816e-09
3.49409e-11
9.55037e-09
3.5608e-11
9.53218e-09
3.64035e-11
9.51351e-09
3.73646e-11
9.49425e-09
3.85409e-11
9.47428e-09
3.99988e-11
9.45339e-09
4.18291e-11
9.43135e-09
4.41566e-11
9.40782e-09
4.7157e-11
9.38235e-09
5.10814e-11
9.35431e-09
5.62999e-11
9.32277e-09
6.33779e-11
9.28639e-09
7.32158e-11
9.2431e-09
8.73367e-11
9.18954e-09
1.08518e-10
9.11982e-09
1.42366e-10
9.02283e-09
2.01823e-10
8.87689e-09
3.22162e-10
6.16176e-10
8.66156e-09
2.58019e-10
-7.16476e-10
5.17746e-10
-7.21118e-10
7.78979e-10
-7.25268e-10
1.04152e-09
-7.2892e-10
1.30518e-09
-7.32056e-10
1.56977e-09
-7.34683e-10
1.83511e-09
-7.36827e-10
2.10106e-09
-7.38524e-10
2.36749e-09
-7.39817e-10
2.6343e-09
-7.40748e-10
2.90141e-09
-7.41362e-10
3.16874e-09
-7.41696e-10
3.43624e-09
-7.41788e-10
3.70384e-09
-7.41668e-10
3.97148e-09
-7.41358e-10
4.23903e-09
-7.4087e-10
4.50636e-09
-7.40206e-10
4.77327e-09
-7.3936e-10
5.03948e-09
-7.38325e-10
5.30466e-09
-7.37107e-10
5.56844e-09
-7.35731e-10
5.83042e-09
-7.34257e-10
6.09023e-09
-7.32782e-10
6.34752e-09
-7.31443e-10
6.60205e-09
-7.30417e-10
6.85367e-09
-7.29908e-10
7.10234e-09
-7.30149e-10
7.34818e-09
-7.3139e-10
7.59145e-09
-7.33897e-10
7.83259e-09
-7.37953e-10
8.0722e-09
-7.43864e-10
8.31109e-09
-7.51969e-10
8.55028e-09
-7.62668e-10
8.79101e-09
-7.76448e-10
9.03475e-09
-7.93926e-10
9.28318e-09
-8.15895e-10
9.53824e-09
-8.43375e-10
9.8021e-09
-8.77688e-10
1.00772e-08
-9.20539e-10
1.03662e-08
-9.74138e-10
1.0672e-08
-1.04137e-09
1.09978e-08
-1.12601e-09
1.13466e-08
-1.23311e-09
1.17206e-08
-1.36935e-09
1.21208e-08
-1.54366e-09
1.25449e-08
-1.76788e-09
1.29878e-08
-2.05755e-09
1.3454e-08
-2.43412e-09
1.4025e-08
-2.93465e-09
1.51404e-08
-3.65459e-09
1.50117e-08
-4.97577e-09
1.78321e-08
-1.05552e-09
1.7283e-08
2.05607e-09
1.69077e-08
1.6082e-09
1.65757e-08
1.35624e-09
1.62541e-08
1.19914e-09
1.59392e-08
1.0894e-09
1.56338e-08
1.00408e-09
1.53414e-08
9.32321e-10
1.50638e-08
8.6912e-10
1.48016e-08
8.12168e-10
1.45547e-08
7.60321e-10
1.43224e-08
7.12903e-10
1.41037e-08
6.69419e-10
1.38977e-08
6.29451e-10
1.37035e-08
5.92626e-10
1.35202e-08
5.58613e-10
1.33471e-08
5.27114e-10
1.31835e-08
4.97871e-10
1.30286e-08
4.70658e-10
1.28821e-08
4.45276e-10
1.27432e-08
4.21554e-10
1.26116e-08
3.99343e-10
1.24868e-08
3.78511e-10
1.23684e-08
3.58942e-10
1.2256e-08
3.40537e-10
1.21493e-08
3.23204e-10
1.2048e-08
3.06864e-10
1.19517e-08
2.91446e-10
1.18602e-08
2.76887e-10
1.17732e-08
2.6313e-10
1.16905e-08
2.50124e-10
1.16119e-08
2.37822e-10
1.15371e-08
2.26182e-10
1.14659e-08
2.15166e-10
1.13981e-08
2.04739e-10
1.13336e-08
1.94868e-10
1.12722e-08
1.85524e-10
1.12138e-08
1.7668e-10
1.1158e-08
1.68309e-10
1.11049e-08
1.60388e-10
1.10543e-08
1.52894e-10
1.1006e-08
1.45807e-10
1.09599e-08
1.39106e-10
1.09159e-08
1.32773e-10
1.08739e-08
1.26791e-10
1.08338e-08
1.21142e-10
1.07954e-08
1.15812e-10
1.07587e-08
1.10784e-10
1.07235e-08
1.06044e-10
1.06898e-08
1.01579e-10
1.06575e-08
9.73762e-11
1.06265e-08
9.34221e-11
1.05968e-08
8.97053e-11
1.05682e-08
8.62141e-11
1.05406e-08
8.29379e-11
1.05141e-08
7.9866e-11
1.04886e-08
7.69886e-11
1.04639e-08
7.42959e-11
1.04401e-08
7.17787e-11
1.0417e-08
6.94284e-11
1.03947e-08
6.72364e-11
1.0373e-08
6.51946e-11
1.0352e-08
6.32956e-11
1.03316e-08
6.15317e-11
1.03117e-08
5.9896e-11
1.02923e-08
5.83815e-11
1.02733e-08
5.69822e-11
1.02548e-08
5.56915e-11
1.02367e-08
5.45037e-11
1.02189e-08
5.34133e-11
1.02015e-08
5.24148e-11
1.01844e-08
5.1503e-11
1.01675e-08
5.06735e-11
1.01509e-08
4.9921e-11
1.01345e-08
4.92416e-11
1.01183e-08
4.8631e-11
1.01023e-08
4.80851e-11
1.00865e-08
4.76004e-11
1.00708e-08
4.71731e-11
1.00552e-08
4.67998e-11
1.00397e-08
4.64776e-11
1.00243e-08
4.62031e-11
1.0009e-08
4.59737e-11
9.99375e-09
4.57866e-11
9.97855e-09
4.56393e-11
9.96338e-09
4.55295e-11
9.94824e-09
4.5455e-11
9.93311e-09
4.54136e-11
9.91799e-09
4.54034e-11
9.90285e-09
4.54228e-11
9.8877e-09
4.54702e-11
9.87253e-09
4.55441e-11
9.85732e-09
4.56431e-11
9.84207e-09
4.57664e-11
9.82677e-09
4.59129e-11
9.81141e-09
4.60818e-11
9.79599e-09
4.62731e-11
9.7805e-09
4.64863e-11
9.76493e-09
4.67218e-11
9.74928e-09
4.69801e-11
9.73353e-09
4.72622e-11
9.71768e-09
4.757e-11
9.70171e-09
4.7906e-11
9.68563e-09
4.82734e-11
9.66941e-09
4.86771e-11
9.65304e-09
4.91231e-11
9.63651e-09
4.96196e-11
9.6198e-09
5.01772e-11
9.60288e-09
5.08099e-11
9.58571e-09
5.15361e-11
9.56828e-09
5.23796e-11
9.55051e-09
5.33721e-11
9.53236e-09
5.45547e-11
9.51374e-09
5.59823e-11
9.49456e-09
5.77279e-11
9.47466e-09
5.98898e-11
9.45389e-09
6.26013e-11
9.432e-09
6.60454e-11
9.40868e-09
7.0479e-11
9.38349e-09
7.6268e-11
9.35585e-09
8.39488e-11
9.32489e-09
9.43323e-11
9.28941e-09
1.08698e-10
9.24758e-09
1.29167e-10
9.1966e-09
1.59501e-10
9.13204e-09
2.06926e-10
9.04716e-09
2.86696e-10
8.9353e-09
4.34028e-10
7.31483e-10
8.81999e-09
2.67185e-10
-9.83661e-10
5.36176e-10
-9.90108e-10
8.06714e-10
-9.95807e-10
1.07854e-09
-1.00074e-09
1.35137e-09
-1.00489e-09
1.62495e-09
-1.00826e-09
1.89899e-09
-1.01087e-09
2.17321e-09
-1.01275e-09
2.44735e-09
-1.01395e-09
2.72112e-09
-1.01453e-09
2.99429e-09
-1.01452e-09
3.26658e-09
-1.01399e-09
3.53776e-09
-1.01297e-09
3.80759e-09
-1.01151e-09
4.07587e-09
-1.00964e-09
4.34239e-09
-1.00739e-09
4.60697e-09
-1.00478e-09
4.86945e-09
-1.00184e-09
5.12972e-09
-9.98594e-10
5.38768e-09
-9.95067e-10
5.64327e-09
-9.91325e-10
5.89647e-09
-9.87456e-10
6.14728e-09
-9.83587e-10
6.39571e-09
-9.7988e-10
6.64183e-09
-9.76538e-10
6.88572e-09
-9.73797e-10
7.12751e-09
-9.71932e-10
7.36736e-09
-9.71247e-10
7.60555e-09
-9.72083e-10
7.84241e-09
-9.74812e-10
8.07839e-09
-9.79848e-10
8.31408e-09
-9.87657e-10
8.55019e-09
-9.98773e-10
8.78756e-09
-1.01382e-09
9.02719e-09
-1.03356e-09
9.27019e-09
-1.05889e-09
9.51774e-09
-1.09093e-09
9.77112e-09
-1.13106e-09
1.00316e-08
-1.181e-09
1.03003e-08
-1.24287e-09
1.05783e-08
-1.31932e-09
1.08659e-08
-1.41367e-09
1.11629e-08
-1.53004e-09
1.1467e-08
-1.6735e-09
1.17736e-08
-1.85022e-09
1.20732e-08
-2.06749e-09
1.23491e-08
-2.33351e-09
1.25718e-08
-2.65681e-09
1.26816e-08
-3.04445e-09
1.25204e-08
-3.49341e-09
1.14881e-08
-3.94348e-09
1.52285e-08
-4.79583e-09
1.6405e-08
8.79565e-10
1.64135e-08
1.59971e-09
1.62686e-08
1.50112e-09
1.60404e-08
1.42728e-09
1.57742e-08
1.35568e-09
1.54965e-08
1.28175e-09
1.5222e-08
1.20683e-09
1.49577e-08
1.13341e-09
1.47065e-08
1.06339e-09
1.4469e-08
9.97796e-10
1.42449e-08
9.36964e-10
1.40336e-08
8.8079e-10
1.38341e-08
8.2896e-10
1.36456e-08
7.8109e-10
1.34674e-08
7.36786e-10
1.32988e-08
6.95689e-10
1.31392e-08
6.57474e-10
1.2988e-08
6.2186e-10
1.28447e-08
5.88598e-10
1.27088e-08
5.57475e-10
1.25798e-08
5.28302e-10
1.24574e-08
5.00912e-10
1.23412e-08
4.75162e-10
1.22308e-08
4.50922e-10
1.2126e-08
4.28078e-10
1.20263e-08
4.06529e-10
1.19316e-08
3.86184e-10
1.18415e-08
3.66963e-10
1.17558e-08
3.48791e-10
1.16743e-08
3.31604e-10
1.15968e-08
3.15342e-10
1.15231e-08
2.9995e-10
1.14528e-08
2.85378e-10
1.1386e-08
2.71582e-10
1.13223e-08
2.58519e-10
1.12617e-08
2.4615e-10
1.1204e-08
2.3444e-10
1.11489e-08
2.23356e-10
1.10964e-08
2.12865e-10
1.10464e-08
2.02939e-10
1.09986e-08
1.93551e-10
1.09531e-08
1.84673e-10
1.09096e-08
1.76283e-10
1.0868e-08
1.68356e-10
1.08283e-08
1.60871e-10
1.07903e-08
1.53807e-10
1.07539e-08
1.47143e-10
1.07191e-08
1.40862e-10
1.06857e-08
1.34944e-10
1.06537e-08
1.29373e-10
1.0623e-08
1.24132e-10
1.05935e-08
1.19205e-10
1.05652e-08
1.14578e-10
1.05379e-08
1.10235e-10
1.05116e-08
1.06163e-10
1.04862e-08
1.02349e-10
1.04617e-08
9.87796e-11
1.04381e-08
9.54431e-11
1.04152e-08
9.23276e-11
1.0393e-08
8.94223e-11
1.03715e-08
8.67163e-11
1.03506e-08
8.41991e-11
1.03302e-08
8.18613e-11
1.03104e-08
7.96936e-11
1.02911e-08
7.76867e-11
1.02723e-08
7.58322e-11
1.02538e-08
7.41222e-11
1.02358e-08
7.25485e-11
1.02181e-08
7.11038e-11
1.02007e-08
6.97812e-11
1.01837e-08
6.85736e-11
1.01669e-08
6.74749e-11
1.01503e-08
6.64788e-11
1.0134e-08
6.55793e-11
1.01178e-08
6.47713e-11
1.01019e-08
6.4049e-11
1.00861e-08
6.34079e-11
1.00704e-08
6.28429e-11
1.00548e-08
6.23497e-11
1.00394e-08
6.1924e-11
1.0024e-08
6.15619e-11
1.00088e-08
6.12596e-11
9.99353e-09
6.10132e-11
9.97835e-09
6.082e-11
9.9632e-09
6.06762e-11
9.94807e-09
6.05793e-11
9.93296e-09
6.05263e-11
9.91785e-09