/*--------------------------------*- C++ -*----------------------------------*\
  =========                 |
  \\      /  F ield         | OpenFOAM: The Open Source CFD Toolbox
   \\    /   O peration     | Website:  https://openfoam.org
    \\  /    A nd           | Version:  10
     \\/     M anipulation  |
\*---------------------------------------------------------------------------*/
FoamFile
{
    format      ascii;
    class       volScalarField;
    location    "2.56";
    object      p;
}
// * * * * * * * * * * * * * * * * * * * * * * * * * * * * * * * * * * * * * //

dimensions      [1 -1 -2 0 0 0 0];

internalField   nonuniform List<scalar> 
12225
(
1.79765e+07
1.7924e+07
1.78302e+07
1.77066e+07
1.75634e+07
1.74081e+07
1.72458e+07
1.70802e+07
1.69133e+07
1.67463e+07
1.65799e+07
1.64139e+07
1.6248e+07
1.60812e+07
1.5912e+07
1.57372e+07
1.55512e+07
1.5339e+07
1.79786e+07
1.79259e+07
1.78317e+07
1.77079e+07
1.75644e+07
1.74088e+07
1.72464e+07
1.70807e+07
1.69138e+07
1.67468e+07
1.65804e+07
1.64145e+07
1.62488e+07
1.60823e+07
1.59135e+07
1.57398e+07
1.55565e+07
1.53545e+07
1.79833e+07
1.79301e+07
1.78352e+07
1.77106e+07
1.75665e+07
1.74105e+07
1.72478e+07
1.70818e+07
1.69148e+07
1.67478e+07
1.65815e+07
1.64158e+07
1.62505e+07
1.60846e+07
1.59169e+07
1.57453e+07
1.55666e+07
1.53778e+07
1.79912e+07
1.79372e+07
1.7841e+07
1.77152e+07
1.757e+07
1.74132e+07
1.72499e+07
1.70837e+07
1.69165e+07
1.67495e+07
1.65833e+07
1.6418e+07
1.62532e+07
1.60883e+07
1.59223e+07
1.57537e+07
1.55811e+07
1.5405e+07
1.80029e+07
1.79476e+07
1.78496e+07
1.77219e+07
1.75752e+07
1.74171e+07
1.72531e+07
1.70863e+07
1.69189e+07
1.67519e+07
1.6586e+07
1.64212e+07
1.62572e+07
1.60936e+07
1.59297e+07
1.57648e+07
1.55988e+07
1.54341e+07
1.80193e+07
1.79621e+07
1.78614e+07
1.77311e+07
1.75822e+07
1.74225e+07
1.72574e+07
1.70899e+07
1.69222e+07
1.67552e+07
1.65896e+07
1.64254e+07
1.62625e+07
1.61006e+07
1.59393e+07
1.57786e+07
1.56192e+07
1.54639e+07
1.80413e+07
1.79815e+07
1.78771e+07
1.77432e+07
1.75913e+07
1.74295e+07
1.72629e+07
1.70946e+07
1.69264e+07
1.67594e+07
1.65942e+07
1.64308e+07
1.62692e+07
1.61093e+07
1.5951e+07
1.57947e+07
1.56415e+07
1.54941e+07
1.80703e+07
1.80068e+07
1.78974e+07
1.77587e+07
1.76029e+07
1.74383e+07
1.72698e+07
1.71003e+07
1.69317e+07
1.67647e+07
1.65999e+07
1.64374e+07
1.62773e+07
1.61197e+07
1.59646e+07
1.58126e+07
1.56652e+07
1.55244e+07
1.81078e+07
1.80393e+07
1.7923e+07
1.7778e+07
1.76172e+07
1.74491e+07
1.72782e+07
1.71073e+07
1.6938e+07
1.6771e+07
1.66067e+07
1.64453e+07
1.62869e+07
1.61317e+07
1.59799e+07
1.58322e+07
1.56899e+07
1.55547e+07
1.81559e+07
1.80804e+07
1.79549e+07
1.78015e+07
1.76345e+07
1.74618e+07
1.72881e+07
1.71155e+07
1.69454e+07
1.67784e+07
1.66147e+07
1.64545e+07
1.6298e+07
1.61452e+07
1.59967e+07
1.58531e+07
1.57154e+07
1.55849e+07
1.82176e+07
1.81319e+07
1.79938e+07
1.78297e+07
1.76547e+07
1.74766e+07
1.72994e+07
1.71249e+07
1.69539e+07
1.67868e+07
1.66238e+07
1.64649e+07
1.63102e+07
1.61601e+07
1.60148e+07
1.58749e+07
1.57413e+07
1.56148e+07
1.82903e+07
1.81908e+07
1.80369e+07
1.78599e+07
1.76758e+07
1.74919e+07
1.7311e+07
1.71344e+07
1.69625e+07
1.67953e+07
1.66329e+07
1.64753e+07
1.63225e+07
1.61747e+07
1.60322e+07
1.58956e+07
1.57653e+07
1.5642e+07
1.83799e+07
1.82607e+07
1.8086e+07
1.78933e+07
1.76987e+07
1.7508e+07
1.73231e+07
1.71443e+07
1.69714e+07
1.68043e+07
1.66426e+07
1.64863e+07
1.63354e+07
1.61899e+07
1.60501e+07
1.59163e+07
1.5789e+07
1.56686e+07
1.85125e+07
1.83581e+07
1.81504e+07
1.79351e+07
1.77262e+07
1.7527e+07
1.73372e+07
1.71558e+07
1.69819e+07
1.68148e+07
1.66541e+07
1.64994e+07
1.63506e+07
1.62076e+07
1.60708e+07
1.59401e+07
1.58159e+07
1.56983e+07
1.87193e+07
1.84937e+07
1.82317e+07
1.7984e+07
1.77569e+07
1.75474e+07
1.73521e+07
1.7168e+07
1.69932e+07
1.68265e+07
1.66671e+07
1.65143e+07
1.63679e+07
1.62279e+07
1.60941e+07
1.59666e+07
1.58456e+07
1.57309e+07
1.90697e+07
1.86747e+07
1.83226e+07
1.80322e+07
1.77844e+07
1.75647e+07
1.73645e+07
1.71785e+07
1.70037e+07
1.68381e+07
1.66805e+07
1.65302e+07
1.63868e+07
1.62499e+07
1.61194e+07
1.59953e+07
1.58774e+07
1.57656e+07
1.97511e+07
1.88566e+07
1.8381e+07
1.80535e+07
1.77929e+07
1.75687e+07
1.73676e+07
1.71825e+07
1.70096e+07
1.68466e+07
1.66921e+07
1.65451e+07
1.64053e+07
1.6272e+07
1.61452e+07
1.60246e+07
1.591e+07
1.58012e+07
1.89112e+07
1.85819e+07
1.8263e+07
1.79895e+07
1.77526e+07
1.75417e+07
1.73496e+07
1.71715e+07
1.70046e+07
1.68471e+07
1.66977e+07
1.65557e+07
1.64205e+07
1.62917e+07
1.6169e+07
1.60522e+07
1.59412e+07
1.58355e+07
1.83508e+07
1.82172e+07
1.80342e+07
1.78413e+07
1.76526e+07
1.74722e+07
1.73007e+07
1.71377e+07
1.69824e+07
1.68343e+07
1.66929e+07
1.65578e+07
1.64287e+07
1.63054e+07
1.61876e+07
1.60753e+07
1.59681e+07
1.5866e+07
1.80325e+07
1.79566e+07
1.78359e+07
1.76935e+07
1.75427e+07
1.73903e+07
1.72397e+07
1.70925e+07
1.69497e+07
1.68117e+07
1.66785e+07
1.65504e+07
1.64272e+07
1.6309e+07
1.61957e+07
1.60873e+07
1.59835e+07
1.58843e+07
1.78512e+07
1.77969e+07
1.77046e+07
1.75892e+07
1.74611e+07
1.7327e+07
1.71909e+07
1.70553e+07
1.69217e+07
1.67912e+07
1.66643e+07
1.65413e+07
1.64226e+07
1.63082e+07
1.61981e+07
1.60925e+07
1.59911e+07
1.58941e+07
1.77315e+07
1.76879e+07
1.76112e+07
1.75121e+07
1.73988e+07
1.72773e+07
1.71516e+07
1.70246e+07
1.68982e+07
1.67735e+07
1.66514e+07
1.65325e+07
1.64172e+07
1.63057e+07
1.61981e+07
1.60946e+07
1.59952e+07
1.58997e+07
1.76506e+07
1.76129e+07
1.75455e+07
1.74565e+07
1.73529e+07
1.724e+07
1.71217e+07
1.70009e+07
1.68796e+07
1.67592e+07
1.66407e+07
1.65249e+07
1.64121e+07
1.63028e+07
1.61972e+07
1.60953e+07
1.59972e+07
1.59029e+07
1.75956e+07
1.75615e+07
1.74998e+07
1.74173e+07
1.732e+07
1.72129e+07
1.70997e+07
1.69832e+07
1.68656e+07
1.67483e+07
1.66324e+07
1.65188e+07
1.64079e+07
1.63002e+07
1.6196e+07
1.60952e+07
1.59982e+07
1.59048e+07
1.75585e+07
1.75265e+07
1.74684e+07
1.739e+07
1.7297e+07
1.71938e+07
1.7084e+07
1.69706e+07
1.68555e+07
1.67404e+07
1.66263e+07
1.65142e+07
1.64047e+07
1.62981e+07
1.61948e+07
1.60949e+07
1.59986e+07
1.59058e+07
1.75338e+07
1.75032e+07
1.74473e+07
1.73717e+07
1.72813e+07
1.71807e+07
1.70733e+07
1.69618e+07
1.68485e+07
1.67348e+07
1.6622e+07
1.6511e+07
1.64024e+07
1.62966e+07
1.61939e+07
1.60946e+07
1.59987e+07
1.59064e+07
1.75179e+07
1.74882e+07
1.74337e+07
1.73598e+07
1.72712e+07
1.71721e+07
1.70662e+07
1.6956e+07
1.68438e+07
1.67311e+07
1.66191e+07
1.65088e+07
1.64007e+07
1.62954e+07
1.61932e+07
1.60943e+07
1.59987e+07
1.59066e+07
1.75084e+07
1.74791e+07
1.74255e+07
1.73525e+07
1.72649e+07
1.71669e+07
1.70618e+07
1.69525e+07
1.68409e+07
1.67288e+07
1.66173e+07
1.65074e+07
1.63997e+07
1.62947e+07
1.61927e+07
1.6094e+07
1.59987e+07
1.59068e+07
1.75032e+07
1.74742e+07
1.7421e+07
1.73486e+07
1.72615e+07
1.7164e+07
1.70595e+07
1.69505e+07
1.68393e+07
1.67275e+07
1.66163e+07
1.65066e+07
1.63991e+07
1.62943e+07
1.61925e+07
1.60939e+07
1.59986e+07
1.59068e+07
1.75011e+07
1.74722e+07
1.74192e+07
1.73469e+07
1.72601e+07
1.71629e+07
1.70585e+07
1.69497e+07
1.68387e+07
1.6727e+07
1.66159e+07
1.65063e+07
1.63989e+07
1.62941e+07
1.61924e+07
1.60938e+07
1.59986e+07
1.59068e+07
1.33962e+07
1.33951e+07
1.3393e+07
1.33898e+07
1.33855e+07
1.33801e+07
1.33734e+07
1.33657e+07
1.33567e+07
1.33465e+07
1.33351e+07
1.33224e+07
1.33085e+07
1.32933e+07
1.32768e+07
1.3259e+07
1.32399e+07
1.32195e+07
1.31977e+07
1.31747e+07
1.31503e+07
1.31245e+07
1.30974e+07
1.3069e+07
1.30392e+07
1.3008e+07
1.29755e+07
1.29416e+07
1.29063e+07
1.28696e+07
1.28316e+07
1.27921e+07
1.27511e+07
1.27088e+07
1.2665e+07
1.26197e+07
1.25729e+07
1.25247e+07
1.24749e+07
1.24236e+07
1.23707e+07
1.23162e+07
1.22601e+07
1.22024e+07
1.2143e+07
1.20819e+07
1.2019e+07
1.19543e+07
1.18876e+07
1.1819e+07
1.17483e+07
1.16754e+07
1.16001e+07
1.15222e+07
1.14416e+07
1.1358e+07
1.12709e+07
1.118e+07
1.10843e+07
1.09826e+07
1.08721e+07
1.07454e+07
1.06743e+07
1.06709e+07
1.06677e+07
1.06646e+07
1.06616e+07
1.06586e+07
1.06557e+07
1.06528e+07
1.065e+07
1.06471e+07
1.06443e+07
1.06415e+07
1.06387e+07
1.06359e+07
1.06331e+07
1.06303e+07
1.06275e+07
1.06248e+07
1.0622e+07
1.06192e+07
1.06164e+07
1.06137e+07
1.06109e+07
1.06081e+07
1.06054e+07
1.06026e+07
1.05998e+07
1.0597e+07
1.05942e+07
1.05914e+07
1.05885e+07
1.05857e+07
1.05829e+07
1.058e+07
1.05771e+07
1.05743e+07
1.05714e+07
1.05685e+07
1.05655e+07
1.05626e+07
1.05597e+07
1.05567e+07
1.05537e+07
1.05507e+07
1.05477e+07
1.05447e+07
1.05416e+07
1.05385e+07
1.05354e+07
1.05323e+07
1.05292e+07
1.0526e+07
1.05229e+07
1.05197e+07
1.05165e+07
1.05132e+07
1.051e+07
1.05067e+07
1.05034e+07
1.05e+07
1.04967e+07
1.04933e+07
1.04899e+07
1.04865e+07
1.0483e+07
1.04796e+07
1.04761e+07
1.04725e+07
1.0469e+07
1.04654e+07
1.04618e+07
1.04582e+07
1.04545e+07
1.04508e+07
1.04471e+07
1.04433e+07
1.04396e+07
1.04358e+07
1.04319e+07
1.04281e+07
1.04242e+07
1.04203e+07
1.04163e+07
1.04123e+07
1.04083e+07
1.04043e+07
1.04002e+07
1.03961e+07
1.0392e+07
1.03878e+07
1.03836e+07
1.03794e+07
1.03751e+07
1.03708e+07
1.03665e+07
1.03621e+07
1.03577e+07
1.03533e+07
1.03488e+07
1.03443e+07
1.03398e+07
1.03352e+07
1.03306e+07
1.03259e+07
1.03213e+07
1.03166e+07
1.03118e+07
1.0307e+07
1.03022e+07
1.02974e+07
1.02925e+07
1.02876e+07
1.02827e+07
1.02777e+07
1.02727e+07
1.02677e+07
1.02627e+07
1.02578e+07
1.34004e+07
1.33993e+07
1.33972e+07
1.3394e+07
1.33896e+07
1.33842e+07
1.33775e+07
1.33697e+07
1.33607e+07
1.33505e+07
1.3339e+07
1.33263e+07
1.33123e+07
1.3297e+07
1.32805e+07
1.32626e+07
1.32435e+07
1.3223e+07
1.32012e+07
1.3178e+07
1.31536e+07
1.31277e+07
1.31006e+07
1.30721e+07
1.30422e+07
1.3011e+07
1.29784e+07
1.29444e+07
1.29091e+07
1.28724e+07
1.28343e+07
1.27948e+07
1.27538e+07
1.27115e+07
1.26677e+07
1.26224e+07
1.25756e+07
1.25274e+07
1.24776e+07
1.24263e+07
1.23735e+07
1.23191e+07
1.2263e+07
1.22054e+07
1.2146e+07
1.20849e+07
1.20221e+07
1.19574e+07
1.18909e+07
1.18224e+07
1.17518e+07
1.1679e+07
1.16038e+07
1.15262e+07
1.1446e+07
1.13628e+07
1.12763e+07
1.11862e+07
1.1092e+07
1.0993e+07
1.08885e+07
1.07776e+07
1.06743e+07
1.06706e+07
1.06675e+07
1.06645e+07
1.06615e+07
1.06586e+07
1.06556e+07
1.06528e+07
1.06499e+07
1.0647e+07
1.06442e+07
1.06414e+07
1.06386e+07
1.06358e+07
1.0633e+07
1.06303e+07
1.06275e+07
1.06247e+07
1.0622e+07
1.06192e+07
1.06164e+07
1.06137e+07
1.06109e+07
1.06081e+07
1.06053e+07
1.06025e+07
1.05998e+07
1.0597e+07
1.05942e+07
1.05913e+07
1.05885e+07
1.05857e+07
1.05829e+07
1.058e+07
1.05771e+07
1.05743e+07
1.05714e+07
1.05685e+07
1.05655e+07
1.05626e+07
1.05597e+07
1.05567e+07
1.05537e+07
1.05507e+07
1.05477e+07
1.05447e+07
1.05416e+07
1.05385e+07
1.05354e+07
1.05323e+07
1.05292e+07
1.0526e+07
1.05229e+07
1.05197e+07
1.05165e+07
1.05132e+07
1.051e+07
1.05067e+07
1.05034e+07
1.05e+07
1.04967e+07
1.04933e+07
1.04899e+07
1.04865e+07
1.0483e+07
1.04796e+07
1.04761e+07
1.04725e+07
1.0469e+07
1.04654e+07
1.04618e+07
1.04581e+07
1.04545e+07
1.04508e+07
1.04471e+07
1.04433e+07
1.04396e+07
1.04358e+07
1.04319e+07
1.04281e+07
1.04242e+07
1.04203e+07
1.04163e+07
1.04123e+07
1.04083e+07
1.04043e+07
1.04002e+07
1.03961e+07
1.0392e+07
1.03878e+07
1.03836e+07
1.03794e+07
1.03751e+07
1.03708e+07
1.03665e+07
1.03621e+07
1.03577e+07
1.03533e+07
1.03488e+07
1.03443e+07
1.03398e+07
1.03352e+07
1.03306e+07
1.03259e+07
1.03213e+07
1.03166e+07
1.03118e+07
1.0307e+07
1.03022e+07
1.02974e+07
1.02925e+07
1.02876e+07
1.02826e+07
1.02777e+07
1.02727e+07
1.02677e+07
1.02627e+07
1.02578e+07
1.3409e+07
1.34079e+07
1.34058e+07
1.34025e+07
1.33981e+07
1.33926e+07
1.33859e+07
1.3378e+07
1.33689e+07
1.33586e+07
1.33471e+07
1.33343e+07
1.33202e+07
1.33048e+07
1.32882e+07
1.32702e+07
1.32509e+07
1.32303e+07
1.32084e+07
1.31851e+07
1.31605e+07
1.31346e+07
1.31073e+07
1.30786e+07
1.30486e+07
1.30173e+07
1.29846e+07
1.29505e+07
1.29151e+07
1.28782e+07
1.284e+07
1.28004e+07
1.27594e+07
1.2717e+07
1.26731e+07
1.26277e+07
1.25809e+07
1.25327e+07
1.24829e+07
1.24316e+07
1.23787e+07
1.23243e+07
1.22683e+07
1.22107e+07
1.21514e+07
1.20904e+07
1.20276e+07
1.19631e+07
1.18967e+07
1.18283e+07
1.1758e+07
1.16855e+07
1.16107e+07
1.15336e+07
1.14539e+07
1.13715e+07
1.1286e+07
1.11972e+07
1.11047e+07
1.10079e+07
1.09061e+07
1.07977e+07
1.06767e+07
1.06702e+07
1.06672e+07
1.06642e+07
1.06613e+07
1.06584e+07
1.06555e+07
1.06526e+07
1.06498e+07
1.06469e+07
1.06441e+07
1.06413e+07
1.06385e+07
1.06357e+07
1.0633e+07
1.06302e+07
1.06274e+07
1.06247e+07
1.06219e+07
1.06191e+07
1.06164e+07
1.06136e+07
1.06108e+07
1.06081e+07
1.06053e+07
1.06025e+07
1.05997e+07
1.05969e+07
1.05941e+07
1.05913e+07
1.05885e+07
1.05857e+07
1.05828e+07
1.058e+07
1.05771e+07
1.05742e+07
1.05713e+07
1.05684e+07
1.05655e+07
1.05626e+07
1.05596e+07
1.05567e+07
1.05537e+07
1.05507e+07
1.05477e+07
1.05446e+07
1.05416e+07
1.05385e+07
1.05354e+07
1.05323e+07
1.05292e+07
1.0526e+07
1.05229e+07
1.05197e+07
1.05165e+07
1.05132e+07
1.051e+07
1.05067e+07
1.05034e+07
1.05e+07
1.04967e+07
1.04933e+07
1.04899e+07
1.04865e+07
1.0483e+07
1.04796e+07
1.04761e+07
1.04725e+07
1.0469e+07
1.04654e+07
1.04618e+07
1.04581e+07
1.04545e+07
1.04508e+07
1.04471e+07
1.04433e+07
1.04396e+07
1.04358e+07
1.04319e+07
1.04281e+07
1.04242e+07
1.04203e+07
1.04163e+07
1.04123e+07
1.04083e+07
1.04043e+07
1.04002e+07
1.03961e+07
1.0392e+07
1.03878e+07
1.03836e+07
1.03794e+07
1.03751e+07
1.03708e+07
1.03665e+07
1.03621e+07
1.03577e+07
1.03533e+07
1.03488e+07
1.03443e+07
1.03398e+07
1.03352e+07
1.03306e+07
1.03259e+07
1.03213e+07
1.03166e+07
1.03118e+07
1.0307e+07
1.03022e+07
1.02974e+07
1.02925e+07
1.02876e+07
1.02826e+07
1.02777e+07
1.02727e+07
1.02677e+07
1.02627e+07
1.02577e+07
1.34221e+07
1.3421e+07
1.34188e+07
1.34155e+07
1.3411e+07
1.34054e+07
1.33987e+07
1.33907e+07
1.33815e+07
1.33711e+07
1.33594e+07
1.33464e+07
1.33322e+07
1.33167e+07
1.32998e+07
1.32817e+07
1.32623e+07
1.32415e+07
1.32194e+07
1.31959e+07
1.31711e+07
1.3145e+07
1.31175e+07
1.30887e+07
1.30585e+07
1.30269e+07
1.2994e+07
1.29598e+07
1.29241e+07
1.28871e+07
1.28487e+07
1.2809e+07
1.27678e+07
1.27252e+07
1.26812e+07
1.26357e+07
1.25888e+07
1.25404e+07
1.24905e+07
1.24392e+07
1.23863e+07
1.23318e+07
1.22758e+07
1.22182e+07
1.2159e+07
1.20981e+07
1.20355e+07
1.19711e+07
1.19049e+07
1.18368e+07
1.17668e+07
1.16947e+07
1.16205e+07
1.1544e+07
1.14651e+07
1.13836e+07
1.12994e+07
1.12121e+07
1.11215e+07
1.10269e+07
1.09271e+07
1.0819e+07
1.06914e+07
1.06698e+07
1.06668e+07
1.06639e+07
1.0661e+07
1.06581e+07
1.06553e+07
1.06524e+07
1.06496e+07
1.06468e+07
1.0644e+07
1.06412e+07
1.06384e+07
1.06356e+07
1.06329e+07
1.06301e+07
1.06273e+07
1.06246e+07
1.06218e+07
1.06191e+07
1.06163e+07
1.06135e+07
1.06108e+07
1.0608e+07
1.06052e+07
1.06025e+07
1.05997e+07
1.05969e+07
1.05941e+07
1.05913e+07
1.05885e+07
1.05856e+07
1.05828e+07
1.05799e+07
1.05771e+07
1.05742e+07
1.05713e+07
1.05684e+07
1.05655e+07
1.05626e+07
1.05596e+07
1.05567e+07
1.05537e+07
1.05507e+07
1.05477e+07
1.05446e+07
1.05416e+07
1.05385e+07
1.05354e+07
1.05323e+07
1.05292e+07
1.0526e+07
1.05228e+07
1.05197e+07
1.05164e+07
1.05132e+07
1.05099e+07
1.05067e+07
1.05034e+07
1.05e+07
1.04967e+07
1.04933e+07
1.04899e+07
1.04865e+07
1.0483e+07
1.04795e+07
1.0476e+07
1.04725e+07
1.0469e+07
1.04654e+07
1.04618e+07
1.04581e+07
1.04545e+07
1.04508e+07
1.04471e+07
1.04433e+07
1.04396e+07
1.04358e+07
1.04319e+07
1.04281e+07
1.04242e+07
1.04202e+07
1.04163e+07
1.04123e+07
1.04083e+07
1.04043e+07
1.04002e+07
1.03961e+07
1.0392e+07
1.03878e+07
1.03836e+07
1.03793e+07
1.03751e+07
1.03708e+07
1.03665e+07
1.03621e+07
1.03577e+07
1.03533e+07
1.03488e+07
1.03443e+07
1.03398e+07
1.03352e+07
1.03306e+07
1.03259e+07
1.03213e+07
1.03166e+07
1.03118e+07
1.0307e+07
1.03022e+07
1.02974e+07
1.02925e+07
1.02876e+07
1.02826e+07
1.02777e+07
1.02727e+07
1.02677e+07
1.02626e+07
1.02576e+07
1.34396e+07
1.34385e+07
1.34363e+07
1.34329e+07
1.34284e+07
1.34227e+07
1.34158e+07
1.34077e+07
1.33983e+07
1.33877e+07
1.33759e+07
1.33627e+07
1.33483e+07
1.33326e+07
1.33155e+07
1.32971e+07
1.32774e+07
1.32564e+07
1.32341e+07
1.32103e+07
1.31853e+07
1.31589e+07
1.31311e+07
1.3102e+07
1.30716e+07
1.30398e+07
1.30066e+07
1.29721e+07
1.29362e+07
1.28989e+07
1.28603e+07
1.28203e+07
1.27788e+07
1.2736e+07
1.26918e+07
1.26462e+07
1.25991e+07
1.25505e+07
1.25006e+07
1.24491e+07
1.23961e+07
1.23416e+07
1.22856e+07
1.2228e+07
1.21688e+07
1.2108e+07
1.20456e+07
1.19814e+07
1.19154e+07
1.18477e+07
1.1778e+07
1.17064e+07
1.16328e+07
1.15571e+07
1.14791e+07
1.13988e+07
1.1316e+07
1.12305e+07
1.11422e+07
1.10506e+07
1.09556e+07
1.08569e+07
1.07549e+07
1.06698e+07
1.06664e+07
1.06635e+07
1.06607e+07
1.06578e+07
1.0655e+07
1.06522e+07
1.06494e+07
1.06466e+07
1.06438e+07
1.0641e+07
1.06382e+07
1.06355e+07
1.06327e+07
1.063e+07
1.06272e+07
1.06245e+07
1.06217e+07
1.0619e+07
1.06162e+07
1.06135e+07
1.06107e+07
1.06079e+07
1.06052e+07
1.06024e+07
1.05996e+07
1.05968e+07
1.0594e+07
1.05912e+07
1.05884e+07
1.05856e+07
1.05828e+07
1.05799e+07
1.0577e+07
1.05742e+07
1.05713e+07
1.05684e+07
1.05655e+07
1.05625e+07
1.05596e+07
1.05566e+07
1.05536e+07
1.05507e+07
1.05476e+07
1.05446e+07
1.05416e+07
1.05385e+07
1.05354e+07
1.05323e+07
1.05292e+07
1.0526e+07
1.05228e+07
1.05196e+07
1.05164e+07
1.05132e+07
1.05099e+07
1.05067e+07
1.05034e+07
1.05e+07
1.04967e+07
1.04933e+07
1.04899e+07
1.04865e+07
1.0483e+07
1.04795e+07
1.0476e+07
1.04725e+07
1.0469e+07
1.04654e+07
1.04618e+07
1.04581e+07
1.04545e+07
1.04508e+07
1.04471e+07
1.04433e+07
1.04396e+07
1.04357e+07
1.04319e+07
1.04281e+07
1.04242e+07
1.04202e+07
1.04163e+07
1.04123e+07
1.04083e+07
1.04043e+07
1.04002e+07
1.03961e+07
1.03919e+07
1.03878e+07
1.03836e+07
1.03793e+07
1.03751e+07
1.03708e+07
1.03665e+07
1.03621e+07
1.03577e+07
1.03533e+07
1.03488e+07
1.03443e+07
1.03398e+07
1.03352e+07
1.03306e+07
1.03259e+07
1.03213e+07
1.03165e+07
1.03118e+07
1.0307e+07
1.03022e+07
1.02974e+07
1.02925e+07
1.02876e+07
1.02826e+07
1.02776e+07
1.02726e+07
1.02676e+07
1.02626e+07
1.02575e+07
1.34618e+07
1.34606e+07
1.34583e+07
1.34549e+07
1.34502e+07
1.34444e+07
1.34374e+07
1.34291e+07
1.34195e+07
1.34087e+07
1.33966e+07
1.33832e+07
1.33685e+07
1.33525e+07
1.33351e+07
1.33164e+07
1.32964e+07
1.32751e+07
1.32524e+07
1.32283e+07
1.32029e+07
1.31762e+07
1.31481e+07
1.31186e+07
1.30878e+07
1.30557e+07
1.30222e+07
1.29873e+07
1.29511e+07
1.29135e+07
1.28745e+07
1.28342e+07
1.27925e+07
1.27494e+07
1.27049e+07
1.2659e+07
1.26117e+07
1.2563e+07
1.25129e+07
1.24613e+07
1.24082e+07
1.23536e+07
1.22976e+07
1.224e+07
1.21808e+07
1.21201e+07
1.20578e+07
1.19938e+07
1.19281e+07
1.18607e+07
1.17915e+07
1.17205e+07
1.16476e+07
1.15727e+07
1.14957e+07
1.14166e+07
1.13353e+07
1.12516e+07
1.11654e+07
1.10766e+07
1.0985e+07
1.089e+07
1.07896e+07
1.06745e+07
1.06659e+07
1.06631e+07
1.06603e+07
1.06575e+07
1.06547e+07
1.06519e+07
1.06491e+07
1.06463e+07
1.06435e+07
1.06408e+07
1.0638e+07
1.06353e+07
1.06325e+07
1.06298e+07
1.06271e+07
1.06243e+07
1.06216e+07
1.06188e+07
1.06161e+07
1.06133e+07
1.06106e+07
1.06078e+07
1.06051e+07
1.06023e+07
1.05995e+07
1.05968e+07
1.0594e+07
1.05912e+07
1.05884e+07
1.05855e+07
1.05827e+07
1.05799e+07
1.0577e+07
1.05741e+07
1.05712e+07
1.05683e+07
1.05654e+07
1.05625e+07
1.05596e+07
1.05566e+07
1.05536e+07
1.05506e+07
1.05476e+07
1.05446e+07
1.05415e+07
1.05385e+07
1.05354e+07
1.05323e+07
1.05291e+07
1.0526e+07
1.05228e+07
1.05196e+07
1.05164e+07
1.05132e+07
1.05099e+07
1.05066e+07
1.05033e+07
1.05e+07
1.04967e+07
1.04933e+07
1.04899e+07
1.04865e+07
1.0483e+07
1.04795e+07
1.0476e+07
1.04725e+07
1.0469e+07
1.04654e+07
1.04618e+07
1.04581e+07
1.04545e+07
1.04508e+07
1.04471e+07
1.04433e+07
1.04395e+07
1.04357e+07
1.04319e+07
1.04281e+07
1.04242e+07
1.04202e+07
1.04163e+07
1.04123e+07
1.04083e+07
1.04043e+07
1.04002e+07
1.03961e+07
1.03919e+07
1.03878e+07
1.03836e+07
1.03793e+07
1.03751e+07
1.03708e+07
1.03664e+07
1.03621e+07
1.03577e+07
1.03533e+07
1.03488e+07
1.03443e+07
1.03397e+07
1.03352e+07
1.03306e+07
1.03259e+07
1.03213e+07
1.03165e+07
1.03118e+07
1.0307e+07
1.03022e+07
1.02973e+07
1.02925e+07
1.02875e+07
1.02826e+07
1.02776e+07
1.02726e+07
1.02676e+07
1.02625e+07
1.02575e+07
1.34886e+07
1.34874e+07
1.3485e+07
1.34815e+07
1.34767e+07
1.34707e+07
1.34634e+07
1.34549e+07
1.34451e+07
1.3434e+07
1.34216e+07
1.34079e+07
1.33928e+07
1.33764e+07
1.33587e+07
1.33396e+07
1.33192e+07
1.32974e+07
1.32743e+07
1.32498e+07
1.3224e+07
1.31968e+07
1.31683e+07
1.31384e+07
1.31072e+07
1.30746e+07
1.30406e+07
1.30053e+07
1.29687e+07
1.29307e+07
1.28914e+07
1.28507e+07
1.28086e+07
1.27652e+07
1.27204e+07
1.26742e+07
1.26267e+07
1.25777e+07
1.25273e+07
1.24756e+07
1.24223e+07
1.23677e+07
1.23116e+07
1.22539e+07
1.21948e+07
1.21342e+07
1.2072e+07
1.20082e+07
1.19428e+07
1.18758e+07
1.18071e+07
1.17366e+07
1.16644e+07
1.15903e+07
1.15143e+07
1.14364e+07
1.13566e+07
1.12746e+07
1.11905e+07
1.11043e+07
1.10156e+07
1.09244e+07
1.08299e+07
1.07299e+07
1.06656e+07
1.06626e+07
1.06598e+07
1.0657e+07
1.06543e+07
1.06515e+07
1.06488e+07
1.0646e+07
1.06433e+07
1.06405e+07
1.06378e+07
1.06351e+07
1.06323e+07
1.06296e+07
1.06269e+07
1.06241e+07
1.06214e+07
1.06187e+07
1.0616e+07
1.06132e+07
1.06105e+07
1.06077e+07
1.0605e+07
1.06022e+07
1.05994e+07
1.05967e+07
1.05939e+07
1.05911e+07
1.05883e+07
1.05855e+07
1.05826e+07
1.05798e+07
1.05769e+07
1.05741e+07
1.05712e+07
1.05683e+07
1.05654e+07
1.05625e+07
1.05595e+07
1.05566e+07
1.05536e+07
1.05506e+07
1.05476e+07
1.05446e+07
1.05415e+07
1.05384e+07
1.05354e+07
1.05323e+07
1.05291e+07
1.0526e+07
1.05228e+07
1.05196e+07
1.05164e+07
1.05132e+07
1.05099e+07
1.05066e+07
1.05033e+07
1.05e+07
1.04967e+07
1.04933e+07
1.04899e+07
1.04865e+07
1.0483e+07
1.04795e+07
1.0476e+07
1.04725e+07
1.04689e+07
1.04654e+07
1.04618e+07
1.04581e+07
1.04545e+07
1.04508e+07
1.04471e+07
1.04433e+07
1.04395e+07
1.04357e+07
1.04319e+07
1.0428e+07
1.04242e+07
1.04202e+07
1.04163e+07
1.04123e+07
1.04083e+07
1.04043e+07
1.04002e+07
1.03961e+07
1.03919e+07
1.03878e+07
1.03836e+07
1.03793e+07
1.03751e+07
1.03708e+07
1.03664e+07
1.03621e+07
1.03577e+07
1.03532e+07
1.03488e+07
1.03443e+07
1.03397e+07
1.03352e+07
1.03306e+07
1.03259e+07
1.03212e+07
1.03165e+07
1.03118e+07
1.0307e+07
1.03022e+07
1.02973e+07
1.02925e+07
1.02875e+07
1.02826e+07
1.02776e+07
1.02726e+07
1.02675e+07
1.02625e+07
1.02574e+07
1.35202e+07
1.35189e+07
1.35164e+07
1.35127e+07
1.35078e+07
1.35015e+07
1.3494e+07
1.34852e+07
1.34751e+07
1.34637e+07
1.34509e+07
1.34367e+07
1.34213e+07
1.34044e+07
1.33862e+07
1.33667e+07
1.33458e+07
1.33235e+07
1.32998e+07
1.32748e+07
1.32485e+07
1.32207e+07
1.31917e+07
1.31613e+07
1.31295e+07
1.30964e+07
1.30619e+07
1.30261e+07
1.2989e+07
1.29505e+07
1.29107e+07
1.28696e+07
1.28271e+07
1.27833e+07
1.27381e+07
1.26916e+07
1.26437e+07
1.25945e+07
1.25439e+07
1.24919e+07
1.24385e+07
1.23837e+07
1.23275e+07
1.22698e+07
1.22107e+07
1.21501e+07
1.20881e+07
1.20245e+07
1.19594e+07
1.18927e+07
1.18244e+07
1.17545e+07
1.16829e+07
1.16097e+07
1.15347e+07
1.1458e+07
1.13795e+07
1.12991e+07
1.12169e+07
1.11329e+07
1.10468e+07
1.09587e+07
1.0868e+07
1.07734e+07
1.06686e+07
1.06621e+07
1.06593e+07
1.06566e+07
1.06539e+07
1.06511e+07
1.06484e+07
1.06457e+07
1.06429e+07
1.06402e+07
1.06375e+07
1.06348e+07
1.06321e+07
1.06294e+07
1.06267e+07
1.0624e+07
1.06212e+07
1.06185e+07
1.06158e+07
1.06131e+07
1.06103e+07
1.06076e+07
1.06048e+07
1.06021e+07
1.05993e+07
1.05966e+07
1.05938e+07
1.0591e+07
1.05882e+07
1.05854e+07
1.05826e+07
1.05797e+07
1.05769e+07
1.0574e+07
1.05711e+07
1.05683e+07
1.05653e+07
1.05624e+07
1.05595e+07
1.05565e+07
1.05536e+07
1.05506e+07
1.05476e+07
1.05445e+07
1.05415e+07
1.05384e+07
1.05353e+07
1.05322e+07
1.05291e+07
1.0526e+07
1.05228e+07
1.05196e+07
1.05164e+07
1.05132e+07
1.05099e+07
1.05066e+07
1.05033e+07
1.05e+07
1.04966e+07
1.04933e+07
1.04899e+07
1.04864e+07
1.0483e+07
1.04795e+07
1.0476e+07
1.04725e+07
1.04689e+07
1.04654e+07
1.04618e+07
1.04581e+07
1.04545e+07
1.04508e+07
1.04471e+07
1.04433e+07
1.04395e+07
1.04357e+07
1.04319e+07
1.0428e+07
1.04242e+07
1.04202e+07
1.04163e+07
1.04123e+07
1.04083e+07
1.04043e+07
1.04002e+07
1.03961e+07
1.03919e+07
1.03878e+07
1.03836e+07
1.03793e+07
1.03751e+07
1.03708e+07
1.03664e+07
1.03621e+07
1.03577e+07
1.03532e+07
1.03488e+07
1.03443e+07
1.03397e+07
1.03352e+07
1.03306e+07
1.03259e+07
1.03212e+07
1.03165e+07
1.03118e+07
1.0307e+07
1.03022e+07
1.02973e+07
1.02924e+07
1.02875e+07
1.02826e+07
1.02776e+07
1.02725e+07
1.02675e+07
1.02624e+07
1.02573e+07
1.35567e+07
1.35553e+07
1.35527e+07
1.35488e+07
1.35436e+07
1.35372e+07
1.35293e+07
1.35202e+07
1.35097e+07
1.34978e+07
1.34845e+07
1.34699e+07
1.34539e+07
1.34365e+07
1.34177e+07
1.33976e+07
1.33761e+07
1.33532e+07
1.33289e+07
1.33032e+07
1.32762e+07
1.32479e+07
1.32182e+07
1.31871e+07
1.31547e+07
1.3121e+07
1.3086e+07
1.30496e+07
1.30119e+07
1.29729e+07
1.29325e+07
1.28909e+07
1.28479e+07
1.28036e+07
1.2758e+07
1.27111e+07
1.26629e+07
1.26133e+07
1.25624e+07
1.25101e+07
1.24565e+07
1.24015e+07
1.23452e+07
1.22874e+07
1.22283e+07
1.21678e+07
1.21058e+07
1.20424e+07
1.19775e+07
1.19112e+07
1.18433e+07
1.17739e+07
1.1703e+07
1.16305e+07
1.15565e+07
1.14808e+07
1.14036e+07
1.13247e+07
1.12442e+07
1.11621e+07
1.10783e+07
1.09927e+07
1.0905e+07
1.08144e+07
1.07177e+07
1.06617e+07
1.06588e+07
1.06561e+07
1.06534e+07
1.06507e+07
1.0648e+07
1.06453e+07
1.06426e+07
1.06399e+07
1.06372e+07
1.06345e+07
1.06318e+07
1.06291e+07
1.06264e+07
1.06237e+07
1.0621e+07
1.06183e+07
1.06156e+07
1.06129e+07
1.06102e+07
1.06074e+07
1.06047e+07
1.0602e+07
1.05992e+07
1.05965e+07
1.05937e+07
1.05909e+07
1.05881e+07
1.05853e+07
1.05825e+07
1.05797e+07
1.05768e+07
1.0574e+07
1.05711e+07
1.05682e+07
1.05653e+07
1.05624e+07
1.05594e+07
1.05565e+07
1.05535e+07
1.05505e+07
1.05475e+07
1.05445e+07
1.05415e+07
1.05384e+07
1.05353e+07
1.05322e+07
1.05291e+07
1.05259e+07
1.05228e+07
1.05196e+07
1.05164e+07
1.05131e+07
1.05099e+07
1.05066e+07
1.05033e+07
1.05e+07
1.04966e+07
1.04933e+07
1.04899e+07
1.04864e+07
1.0483e+07
1.04795e+07
1.0476e+07
1.04725e+07
1.04689e+07
1.04654e+07
1.04617e+07
1.04581e+07
1.04545e+07
1.04508e+07
1.04471e+07
1.04433e+07
1.04395e+07
1.04357e+07
1.04319e+07
1.0428e+07
1.04242e+07
1.04202e+07
1.04163e+07
1.04123e+07
1.04083e+07
1.04042e+07
1.04002e+07
1.03961e+07
1.03919e+07
1.03878e+07
1.03836e+07
1.03793e+07
1.03751e+07
1.03708e+07
1.03664e+07
1.03621e+07
1.03577e+07
1.03532e+07
1.03488e+07
1.03443e+07
1.03397e+07
1.03352e+07
1.03306e+07
1.03259e+07
1.03212e+07
1.03165e+07
1.03118e+07
1.0307e+07
1.03022e+07
1.02973e+07
1.02924e+07
1.02875e+07
1.02825e+07
1.02775e+07
1.02725e+07
1.02675e+07
1.02623e+07
1.02572e+07
1.35982e+07
1.35968e+07
1.3594e+07
1.35899e+07
1.35845e+07
1.35776e+07
1.35694e+07
1.35599e+07
1.35489e+07
1.35365e+07
1.35226e+07
1.35074e+07
1.34908e+07
1.34727e+07
1.34532e+07
1.34324e+07
1.34101e+07
1.33865e+07
1.33615e+07
1.33351e+07
1.33073e+07
1.32782e+07
1.32477e+07
1.32159e+07
1.31828e+07
1.31484e+07
1.31126e+07
1.30756e+07
1.30372e+07
1.29976e+07
1.29566e+07
1.29144e+07
1.28709e+07
1.28261e+07
1.278e+07
1.27326e+07
1.26839e+07
1.26339e+07
1.25827e+07
1.25301e+07
1.24762e+07
1.2421e+07
1.23645e+07
1.23067e+07
1.22475e+07
1.2187e+07
1.21251e+07
1.20618e+07
1.19971e+07
1.19311e+07
1.18636e+07
1.17947e+07
1.17244e+07
1.16526e+07
1.15794e+07
1.15047e+07
1.14286e+07
1.13511e+07
1.12721e+07
1.11916e+07
1.11097e+07
1.10263e+07
1.09412e+07
1.08541e+07
1.07635e+07
1.06644e+07
1.06582e+07
1.06556e+07
1.06529e+07
1.06502e+07
1.06476e+07
1.06449e+07
1.06422e+07
1.06396e+07
1.06369e+07
1.06342e+07
1.06315e+07
1.06289e+07
1.06262e+07
1.06235e+07
1.06208e+07
1.06181e+07
1.06154e+07
1.06127e+07
1.061e+07
1.06073e+07
1.06046e+07
1.06018e+07
1.05991e+07
1.05963e+07
1.05936e+07
1.05908e+07
1.0588e+07
1.05852e+07
1.05824e+07
1.05796e+07
1.05767e+07
1.05739e+07
1.0571e+07
1.05681e+07
1.05652e+07
1.05623e+07
1.05594e+07
1.05564e+07
1.05535e+07
1.05505e+07
1.05475e+07
1.05445e+07
1.05414e+07
1.05384e+07
1.05353e+07
1.05322e+07
1.05291e+07
1.05259e+07
1.05227e+07
1.05196e+07
1.05164e+07
1.05131e+07
1.05099e+07
1.05066e+07
1.05033e+07
1.05e+07
1.04966e+07
1.04932e+07
1.04898e+07
1.04864e+07
1.0483e+07
1.04795e+07
1.0476e+07
1.04725e+07
1.04689e+07
1.04653e+07
1.04617e+07
1.04581e+07
1.04544e+07
1.04508e+07
1.0447e+07
1.04433e+07
1.04395e+07
1.04357e+07
1.04319e+07
1.0428e+07
1.04241e+07
1.04202e+07
1.04163e+07
1.04123e+07
1.04083e+07
1.04042e+07
1.04002e+07
1.03961e+07
1.03919e+07
1.03878e+07
1.03836e+07
1.03793e+07
1.03751e+07
1.03708e+07
1.03664e+07
1.03621e+07
1.03577e+07
1.03532e+07
1.03488e+07
1.03443e+07
1.03397e+07
1.03352e+07
1.03306e+07
1.03259e+07
1.03212e+07
1.03165e+07
1.03118e+07
1.0307e+07
1.03022e+07
1.02973e+07
1.02924e+07
1.02875e+07
1.02825e+07
1.02775e+07
1.02725e+07
1.02674e+07
1.02623e+07
1.02571e+07
1.36451e+07
1.36435e+07
1.36405e+07
1.36362e+07
1.36304e+07
1.36232e+07
1.36145e+07
1.36044e+07
1.35928e+07
1.35798e+07
1.35653e+07
1.35493e+07
1.35319e+07
1.35131e+07
1.34928e+07
1.34711e+07
1.34479e+07
1.34234e+07
1.33975e+07
1.33702e+07
1.33416e+07
1.33116e+07
1.32803e+07
1.32476e+07
1.32137e+07
1.31784e+07
1.31419e+07
1.3104e+07
1.30649e+07
1.30246e+07
1.29829e+07
1.294e+07
1.28959e+07
1.28505e+07
1.28038e+07
1.27559e+07
1.27067e+07
1.26563e+07
1.26046e+07
1.25517e+07
1.24975e+07
1.24421e+07
1.23854e+07
1.23274e+07
1.22681e+07
1.22075e+07
1.21457e+07
1.20825e+07
1.2018e+07
1.19522e+07
1.18851e+07
1.18166e+07
1.17468e+07
1.16757e+07
1.16032e+07
1.15294e+07
1.14543e+07
1.13779e+07
1.13002e+07
1.12212e+07
1.1141e+07
1.10594e+07
1.09765e+07
1.08918e+07
1.08047e+07
1.07122e+07
1.06579e+07
1.0655e+07
1.06524e+07
1.06497e+07
1.06471e+07
1.06445e+07
1.06418e+07
1.06392e+07
1.06365e+07
1.06339e+07
1.06312e+07
1.06286e+07
1.06259e+07
1.06232e+07
1.06206e+07
1.06179e+07
1.06152e+07
1.06125e+07
1.06098e+07
1.06071e+07
1.06044e+07
1.06017e+07
1.05989e+07
1.05962e+07
1.05934e+07
1.05907e+07
1.05879e+07
1.05851e+07
1.05823e+07
1.05795e+07
1.05766e+07
1.05738e+07
1.05709e+07
1.05681e+07
1.05652e+07
1.05623e+07
1.05593e+07
1.05564e+07
1.05534e+07
1.05504e+07
1.05474e+07
1.05444e+07
1.05414e+07
1.05383e+07
1.05352e+07
1.05321e+07
1.0529e+07
1.05259e+07
1.05227e+07
1.05195e+07
1.05163e+07
1.05131e+07
1.05098e+07
1.05066e+07
1.05033e+07
1.05e+07
1.04966e+07
1.04932e+07
1.04898e+07