/*--------------------------------*- C++ -*----------------------------------*\
| =========                 |                                                 |
| \\      /  F ield         | foam-extend: Open Source CFD                    |
|  \\    /   O peration     | Version:     5.0                                |
|   \\  /    A nd           | Web:         http://www.foam-extend.org         |
|    \\/     M anipulation  |                                                 |
\*---------------------------------------------------------------------------*/
FoamFile
{
    version     2.0;
    format      ascii;
    class       surfaceScalarField;
    location    "8";
    object      phi;
}
// * * * * * * * * * * * * * * * * * * * * * * * * * * * * * * * * * * * * * //

dimensions      [0 3 -1 0 0 0 0];

internalField   nonuniform List<scalar> 
99
(
1.22533e-06
1.22936e-06
1.21828e-06
1.22441e-06
1.22719e-06
1.21729e-06
1.22044e-06
1.21723e-06
1.22673e-06
1.21004e-06
1.22084e-06
1.21721e-06
1.21514e-06
1.21027e-06
1.20858e-06
1.21086e-06
1.21253e-06
1.21353e-06
1.20917e-06
1.2132e-06
1.2062e-06
1.20639e-06
1.20516e-06
1.21012e-06
1.21033e-06
1.21041e-06
1.21346e-06
1.21149e-06
1.21112e-06
1.20995e-06
1.21072e-06
1.20865e-06
1.21116e-06
1.21034e-06
1.21113e-06
1.20945e-06
1.21195e-06
1.21148e-06
1.20809e-06
1.21078e-06
1.20901e-06
1.21098e-06
1.2118e-06
1.21206e-06
1.21243e-06
1.21551e-06
1.21624e-06
1.21569e-06
1.21591e-06
1.21549e-06
1.2159e-06
1.21452e-06
1.2172e-06
1.21977e-06
1.21923e-06
1.21879e-06
1.21308e-06
1.21362e-06
1.21515e-06
1.21409e-06
1.21258e-06
1.20972e-06
1.21151e-06
1.21001e-06
1.20878e-06
1.21106e-06
1.20924e-06
1.21181e-06
1.20892e-06
1.20941e-06
1.20662e-06
1.20831e-06
1.20803e-06
1.20978e-06
1.20821e-06
1.20803e-06
1.20921e-06
1.20916e-06
1.20922e-06
1.20826e-06
1.20964e-06
1.20989e-06
1.2108e-06
1.21178e-06
1.21422e-06
1.21354e-06
1.21252e-06
1.21276e-06
1.21242e-06
1.21333e-06
1.21147e-06
1.21455e-06
1.21207e-06
1.21452e-06
1.21438e-06
1.21325e-06
1.2138e-06
1.2126e-06
1.2125e-06
)
;

boundaryField
{
    inlet
    {
        type            calculated;
        value           uniform -1.225e-06;
    }
    outlet
    {
        type            calculated;
        value           uniform 1.21123e-06;
    }
    yzfaces
    {
        type            empty;
    }
}


// ************************************************************************* //
