/*--------------------------------*- C++ -*----------------------------------*\
| =========                 |                                                 |
| \\      /  F ield         | foam-extend: Open Source CFD                    |
|  \\    /   O peration     | Version:     5.0                                |
|   \\  /    A nd           | Web:         http://www.foam-extend.org         |
|    \\/     M anipulation  |                                                 |
\*---------------------------------------------------------------------------*/
FoamFile
{
    version     2.0;
    format      ascii;
    class       volVectorField;
    location    "8";
    object      U.water;
}
// * * * * * * * * * * * * * * * * * * * * * * * * * * * * * * * * * * * * * //

dimensions      [0 1 -1 0 0 0 0];

internalField   nonuniform List<vector> 
100
(
(5.60126e-06 0 0)
(2.65963e-05 0 0)
(2.64745e-05 0 0)
(3.26905e-05 0 0)
(7.11469e-05 0 0)
(7.71826e-05 0 0)
(0.000100967 0 0)
(0.000122679 0 0)
(0.00013595 0 0)
(0.00015061 0 0)
(0.000162356 0 0)
(0.000198441 0 0)
(0.00020687 0 0)
(0.00019706 0 0)
(0.000212999 0 0)
(0.000248708 0 0)
(0.000271883 0 0)
(0.000281726 0 0)
(0.000284412 0 0)
(0.000303797 0 0)
(0.000320337 0 0)
(0.000328996 0 0)
(0.000353783 0 0)
(0.000380126 0 0)
(0.000392266 0 0)
(0.000405352 0 0)
(0.000425698 0 0)
(0.000437073 0 0)
(0.000453605 0 0)
(0.000467426 0 0)
(0.000481045 0 0)
(0.000502833 0 0)
(0.00051958 0 0)
(0.000533112 0 0)
(0.000544024 0 0)
(0.000556266 0 0)
(0.000575564 0 0)
(0.00060087 0 0)
(0.0006141 0 0)
(0.000625105 0 0)
(0.000641199 0 0)
(0.000661554 0 0)
(0.000681756 0 0)
(0.000690852 0 0)
(0.000702494 0 0)
(0.000716192 0 0)
(0.000734802 0 0)
(0.000751105 0 0)
(0.000761127 0 0)
(0.000781103 0 0)
(0.00080121 0 0)
(0.000807459 0 0)
(0.000823144 0 0)
(0.000849335 0 0)
(0.00086302 0 0)
(0.0008779 0 0)
(0.000889144 0 0)
(0.000897904 0 0)
(0.000916145 0 0)
(0.000928128 0 0)
(0.000939498 0 0)
(0.000949863 0 0)
(0.000962539 0 0)
(0.000976422 0 0)
(0.00098951 0 0)
(0.00101014 0 0)
(0.00102142 0 0)
(0.00103475 0 0)
(0.00104763 0 0)
(0.00105734 0 0)
(0.00107351 0 0)
(0.0010877 0 0)
(0.00110196 0 0)
(0.00111785 0 0)
(0.00113212 0 0)
(0.0011431 0 0)
(0.00116147 0 0)
(0.00117814 0 0)
(0.00118858 0 0)
(0.00119951 0 0)
(0.00121584 0 0)
(0.0012283 0 0)
(0.00124046 0 0)
(0.00125489 0 0)
(0.0012706 0 0)
(0.00128644 0 0)
(0.00129858 0 0)
(0.00131267 0 0)
(0.00132504 0 0)
(0.00133796 0 0)
(0.00134687 0 0)
(0.00136164 0 0)
(0.00137691 0 0)
(0.001389 0 0)
(0.00140542 0 0)
(0.00141797 0 0)
(0.00143172 0 0)
(0.00144421 0 0)
(0.00145664 0 0)
(0.00147219 0 0)
)
;

boundaryField
{
    inlet
    {
        type            fixedValue;
        value           uniform (0 0 0);
    }
    outlet
    {
        type            zeroGradient;
    }
    yzfaces
    {
        type            empty;
    }
}


// ************************************************************************* //
