/*--------------------------------*- C++ -*----------------------------------*\
  =========                 |
  \\      /  F ield         | OpenFOAM: The Open Source CFD Toolbox
   \\    /   O peration     | Website:  https://openfoam.org
    \\  /    A nd           | Version:  10
     \\/     M anipulation  |
\*---------------------------------------------------------------------------*/
FoamFile
{
    format      ascii;
    class       surfaceScalarField;
    location    "16000";
    object      phi;
}
// * * * * * * * * * * * * * * * * * * * * * * * * * * * * * * * * * * * * * //

dimensions      [0 3 -1 0 0 0 0];

internalField   nonuniform List<scalar> 
6280
(
-1.89427e-07
1.89427e-07
-3.78887e-07
1.8946e-07
-5.71724e-07
1.92837e-07
-7.71462e-07
1.99738e-07
-9.82099e-07
2.10637e-07
-1.20847e-06
2.26371e-07
-1.45676e-06
2.48289e-07
-1.73527e-06
2.78515e-07
-2.05568e-06
3.20405e-07
-2.43505e-06
3.79368e-07
-2.89941e-06
4.64358e-07
-3.49006e-06
5.90657e-07
-4.27523e-06
7.85172e-07
-5.37198e-06
1.09675e-06
-6.98857e-06
1.61658e-06
-9.50771e-06
2.51914e-06
-1.36528e-05
4.14512e-06
-2.06382e-05
6.98534e-06
-2.43622e-05
3.724e-06
-2.47944e-05
4.32227e-07
-2.50928e-05
2.98434e-07
-2.53249e-05
2.32028e-07
-2.55126e-05
1.87746e-07
-2.56681e-05
1.5553e-07
-2.57993e-05
1.31117e-07
-2.59114e-05
1.1211e-07
-2.60084e-05
9.70107e-08
-2.60932e-05
8.48108e-08
-2.6168e-05
7.48106e-08
-2.62345e-05
6.65064e-08
-2.6294e-05
5.95261e-08
-2.63476e-05
5.35929e-08
-2.53807e-05
-9.66881e-07
-2.36228e-05
-1.75797e-06
-2.19063e-05
-1.71643e-06
-2.00189e-05
-1.88748e-06
-1.7617e-05
-2.40181e-06
-1.42134e-05
-3.40368e-06
-9.07445e-06
-5.13893e-06
-7.60689e-06
-1.46756e-06
-1.82208e-07
3.71635e-07
-3.63986e-07
3.71238e-07
-5.48041e-07
3.76891e-07
-7.37107e-07
3.88805e-07
-9.34088e-07
4.07618e-07
-1.14219e-06
4.34472e-07
-1.36503e-06
4.71133e-07
-1.60673e-06
5.20209e-07
-1.87178e-06
5.85462e-07
-2.16467e-06
6.72252e-07
-2.48842e-06
7.88115e-07
-2.84115e-06
9.43379e-07
-3.20748e-06
1.1515e-06
-3.53886e-06
1.42813e-06
-3.70848e-06
1.78621e-06
-3.41001e-06
2.22067e-06
-1.93199e-06
2.66709e-06
2.15509e-06
2.89826e-06
3.5543e-06
2.3248e-06
2.41001e-06
1.57652e-06
1.55702e-06
1.15142e-06
8.83386e-07
9.05662e-07
3.06303e-07
7.64829e-07
-2.3036e-07
6.92193e-07
-7.707e-07
6.71457e-07
-1.35779e-06
6.99204e-07
-2.04354e-06
7.82754e-07
-2.90051e-06
9.41788e-07
-4.03958e-06
1.21388e-06
-5.63852e-06
1.66544e-06
-7.99057e-06
2.41158e-06
-1.14367e-05
3.49971e-06
-1.37e-05
1.2964e-06
-1.56502e-05
1.92263e-07
-1.7514e-05
1.47368e-07
-1.95214e-05
1.19888e-07
-2.20189e-05
9.56974e-08
-2.54951e-05
7.25521e-08
-2.71414e-05
-3.49257e-06
-3.3429e-05
-1.31935e-06
-1.69037e-07
5.40672e-07
-3.36924e-07
5.39125e-07
-5.05376e-07
5.45343e-07
-6.75955e-07
5.59384e-07
-8.50054e-07
5.81717e-07
-1.02881e-06
6.1323e-07
-1.21293e-06
6.5525e-07
-1.4023e-06
7.09585e-07
-1.59539e-06
7.78544e-07
-1.78802e-06
8.64882e-07
-1.97149e-06
9.71591e-07
-2.12945e-06
1.10134e-06
-2.23323e-06
1.25528e-06
-2.23584e-06
1.43074e-06
-2.06697e-06
1.61733e-06
-1.63755e-06
1.79125e-06
-8.79837e-07
1.90938e-06
1.07499e-07
1.91093e-06
6.81615e-07
1.75068e-06
7.37958e-07
1.52017e-06
5.73815e-07
1.31557e-06
3.19141e-07
1.16034e-06
2.93089e-08
1.05466e-06
-2.71803e-07
9.93305e-07
-5.71758e-07
9.71412e-07
-8.58452e-07
9.85899e-07
-1.11078e-06
1.03508e-06
-1.28608e-06
1.11709e-06
-1.29889e-06
1.22669e-06
-9.8215e-07
1.3487e-06
-1.58547e-08
1.44528e-06
2.05282e-06
1.43104e-06
2.20023e-06
1.14898e-06
1.51248e-06
8.80017e-07
9.41384e-07
7.18464e-07
4.33541e-07
6.2773e-07
-6.02744e-08
5.89513e-07
-5.83989e-07
5.96267e-07
-4.02704e-06
-4.95262e-08
-3.90791e-05
1.62309e-06
-1.51951e-07
6.92623e-07
-3.02047e-07
6.89221e-07
-4.50993e-07
6.94289e-07
-5.99254e-07
7.07644e-07
-7.46943e-07
7.29406e-07
-8.93666e-07
7.59953e-07
-1.03828e-06
7.99863e-07
-1.17854e-06
8.49844e-07
-1.3106e-06
9.10604e-07
-1.42836e-06
9.82639e-07
-1.52266e-06
1.06589e-06
-1.58054e-06
1.15923e-06
-1.58494e-06
1.25967e-06
-1.51573e-06
1.36153e-06
-1.35389e-06
1.4555e-06
-1.0911e-06
1.52846e-06
-7.46775e-07
1.56506e-06
-3.88642e-07
1.55279e-06
-1.29301e-07
1.49134e-06
-1.03955e-08
1.40127e-06
-2.01833e-09
1.30719e-06
-6.59743e-08
1.22429e-06
-1.70971e-07
1.15966e-06
-2.93125e-07
1.11546e-06
-4.12912e-07
1.0912e-06
-5.11834e-07
1.08482e-06
-5.697e-07
1.09294e-06
-5.63126e-07
1.11052e-06
-4.66624e-07
1.13019e-06
-2.59552e-07
1.14163e-06
5.39009e-08
1.13183e-06
3.96928e-07
1.08801e-06
5.38713e-07
1.00719e-06
5.0152e-07
9.1721e-07
3.8138e-07
8.38604e-07
2.31695e-07
7.77415e-07
8.78288e-08
7.33379e-07
-1.88597e-08
7.02955e-07
-2.10291e-07
1.41905e-07
-3.95372e-05
2.47748e-07
-1.33104e-07
8.25727e-07
-2.63852e-07
8.19969e-07
-3.92155e-07
8.22592e-07
-5.17692e-07
8.33181e-07
-6.39794e-07
8.51508e-07
-7.57305e-07
8.77464e-07
-8.68422e-07
9.1098e-07
-9.70507e-07
9.5193e-07
-1.0599e-06
9.99994e-07
-1.13175e-06
1.0545e-06
-1.18004e-06
1.11418e-06
-1.19779e-06
1.17698e-06
-1.1779e-06
1.23978e-06
-1.11469e-06
1.29832e-06
-1.00652e-06
1.34733e-06
-8.59168e-07
1.38111e-06
-6.88903e-07
1.3948e-06
-5.22299e-07
1.38619e-06
-3.88412e-07
1.35745e-06
-3.0243e-07
1.31529e-06
-2.63081e-07
1.26784e-06
-2.60562e-07
1.22177e-06
-2.82266e-07
1.18136e-06
-3.15489e-07
1.14868e-06
-3.48344e-07
1.12405e-06
-3.69991e-07
1.10647e-06
-3.70915e-07
1.09387e-06
-3.43741e-07
1.08335e-06
-2.84947e-07
1.07139e-06
-1.97619e-07
1.0543e-06
-9.4709e-08
1.02892e-06
-5.13567e-10
9.93813e-07
5.61263e-08
9.50554e-07
6.92481e-08
9.04089e-07
4.84658e-08
8.59386e-07
6.2011e-09
8.1968e-07
-4.69605e-08
7.86541e-07
-1.04365e-07
7.6036e-07
-1.43558e-07
1.81099e-07
-3.9866e-05
1.8525e-07
-1.1428e-07
9.40007e-07
-2.25972e-07
9.31661e-07
-3.34479e-07
9.311e-07
-4.39047e-07
9.37749e-07
-5.38669e-07
9.5113e-07
-6.32007e-07
9.70802e-07
-7.17319e-07
9.96292e-07
-7.92409e-07
1.02702e-06
-8.54625e-07
1.06221e-06
-9.00937e-07
1.10081e-06
-9.28141e-07
1.14138e-06
-9.33256e-07
1.18209e-06
-9.14136e-07
1.22066e-06
-8.70307e-07
1.25449e-06
-8.03896e-07
1.28092e-06
-7.20368e-07
1.29758e-06
-6.28528e-07
1.30296e-06
-5.39223e-07
1.29688e-06
-4.62542e-07
1.28077e-06
-4.04595e-07
1.25734e-06
-3.6657e-07
1.22981e-06
-3.45896e-07
1.2011e-06
-3.37841e-07
1.17331e-06
-3.36804e-07
1.14765e-06
-3.37204e-07
1.12445e-06
-3.34098e-07
1.10336e-06
-3.23695e-07
1.08346e-06
-3.03862e-07
1.06351e-06
-2.74622e-07
1.04215e-06
-2.38493e-07
1.01817e-06
-2.00375e-07
9.90803e-07
-1.66534e-07
9.59973e-07
-1.42414e-07
9.26433e-07
-1.29941e-07
8.91616e-07
-1.27741e-07
8.57185e-07
-1.32774e-07
8.24713e-07
-1.41831e-07
7.95598e-07
-1.52586e-07
7.71114e-07
-1.40205e-07
1.68717e-07
-4.01939e-05
1.87739e-07
-9.66872e-08
1.03669e-06
-1.90792e-07
1.02577e-06
-2.81469e-07
1.02178e-06
-3.67797e-07
1.02408e-06
-4.48725e-07
1.03206e-06
-5.23037e-07
1.04511e-06
-5.8933e-07
1.06259e-06
-6.46042e-07
1.08373e-06
-6.91504e-07
1.10767e-06
-7.24066e-07
1.13337e-06
-7.42285e-07
1.1596e-06
-7.45183e-07
1.18499e-06
-7.32562e-07
1.20804e-06
-7.05324e-07
1.22726e-06
-6.65704e-07
1.2413e-06
-6.17283e-07
1.24916e-06
-5.6468e-07
1.25035e-06
-5.12837e-07
1.24504e-06
-4.6607e-07
1.234e-06
-4.27217e-07
1.21849e-06
-3.97323e-07
1.19992e-06
-3.75861e-07
1.17964e-06
-3.6122e-07
1.15867e-06
-3.51236e-07
1.13766e-06
-3.43654e-07
1.11687e-06
-3.365e-07
1.09621e-06
-3.28358e-07
1.07532e-06
-3.18549e-07
1.05371e-06
-3.07198e-07
1.0308e-06
-2.95136e-07
1.00611e-06
-2.836e-07
9.79267e-07
-2.73737e-07
9.50109e-07
-2.65981e-07
9.18677e-07
-2.59548e-07
8.85184e-07
-2.52338e-07
8.49975e-07
-2.41187e-07
8.13563e-07
-2.22378e-07
7.76789e-07
-1.92426e-07
7.41162e-07
-1.39219e-07
1.15511e-07
-4.05278e-05
1.94696e-07
-8.09769e-08
1.11767e-06
-1.59543e-07
1.10433e-06
-2.34786e-07
1.09702e-06
-3.05788e-07
1.09508e-06
-3.71601e-07
1.09787e-06
-4.3123e-07
1.10474e-06
-4.83649e-07
1.11501e-06
-5.27833e-07
1.12791e-06
-5.62821e-07
1.14266e-06
-5.8781e-07
1.15836e-06
-6.02272e-07
1.17406e-06
-6.06089e-07
1.18881e-06
-5.99677e-07
1.20163e-06
-5.84077e-07
1.21166e-06
-5.60971e-07
1.21819e-06
-5.32583e-07
1.22077e-06
-5.01459e-07
1.21923e-06
-4.70138e-07
1.21372e-06
-4.40805e-07
1.20467e-06
-4.15018e-07
1.1927e-06
-3.93601e-07
1.1785e-06
-3.76711e-07
1.16275e-06
-3.64005e-07
1.14596e-06
-3.5487e-07
1.12853e-06
-3.48625e-07
1.11063e-06
-3.44707e-07
1.09229e-06
-3.42786e-07
1.0734e-06
-3.42825e-07
1.05374e-06
-3.45061e-07
1.03304e-06
-3.49891e-07
1.01094e-06
-3.57682e-07
9.87058e-07
-3.68474e-07
9.60902e-07
-3.81619e-07
9.31822e-07
-3.95326e-07
8.98891e-07
-4.06106e-07
8.60754e-07
-4.07976e-07
8.15433e-07
-3.9128e-07
7.60093e-07
-3.40854e-07
6.90736e-07
-1.35297e-07
-9.00462e-08
-4.08679e-05
2.04766e-07
-6.73739e-08
1.18504e-06
-1.326e-07
1.16956e-06
-1.94806e-07
1.15923e-06
-2.53166e-07
1.15344e-06
-3.0688e-07
1.15159e-06
-3.55183e-07
1.15305e-06
-3.97353e-07
1.15717e-06
-4.32747e-07
1.16331e-06
-4.60844e-07
1.17076e-06
-4.81301e-07
1.17882e-06
-4.94014e-07
1.18678e-06
-4.99175e-07
1.19397e-06
-4.97309e-07
1.19976e-06
-4.89284e-07
1.20363e-06
-4.7628e-07
1.20519e-06
-4.59701e-07
1.20419e-06
-4.41056e-07
1.20059e-06
-4.21808e-07
1.19447e-06
-4.03236e-07
1.1861e-06
-3.86336e-07
1.1758e-06
-3.71791e-07
1.16396e-06
-3.59993e-07
1.15095e-06
-3.51126e-07
1.13709e-06
-3.45259e-07
1.12266e-06
-3.42457e-07
1.10782e-06
-3.42871e-07
1.0927e-06
-3.46814e-07
1.07734e-06
-3.54818e-07
1.06175e-06
-3.67656e-07
1.04588e-06
-3.86363e-07
1.02965e-06
-4.12233e-07
1.01293e-06
-4.46822e-07
9.95491e-07
-4.91949e-07
9.76949e-07
-5.49702e-07
9.56644e-07
-6.2241e-07
9.33462e-07
-7.1251e-07
9.05534e-07
-8.22165e-07
8.69747e-07
-9.52314e-07
8.20885e-07
-1.20835e-07
-9.21525e-07
-4.12114e-05
2.22728e-07
-5.58303e-08
1.24087e-06
-1.09806e-07
1.22353e-06
-1.61153e-07
1.21057e-06
-2.09162e-07
1.20145e-06
-2.53187e-07
1.19561e-06
-2.9265e-07
1.19251e-06
-3.27051e-07
1.19158e-06
-3.55992e-07
1.19225e-06
-3.79203e-07
1.19397e-06
-3.96568e-07
1.19618e-06
-4.08154e-07
1.19836e-06
-4.14227e-07
1.20004e-06
-4.15256e-07
1.20079e-06
-4.11904e-07
1.20028e-06
-4.04988e-07
1.19827e-06
-3.95427e-07
1.19463e-06
-3.84177e-07
1.18934e-06
-3.72159e-07
1.18245e-06
-3.60201e-07
1.17414e-06
-3.49001e-07
1.1646e-06
-3.39116e-07
1.15407e-06
-3.30976e-07
1.14281e-06
-3.24928e-07
1.13105e-06
-3.21282e-07
1.11901e-06
-3.20371e-07
1.10691e-06
-3.2261e-07
1.09494e-06
-3.28558e-07
1.08329e-06
-3.38982e-07
1.07217e-06
-3.5493e-07
1.06182e-06
-3.77843e-07
1.05256e-06
-4.09706e-07
1.04479e-06
-4.53303e-07
1.03909e-06
-5.12622e-07
1.03627e-06
-5.93516e-07
1.03754e-06
-7.04781e-07
1.04473e-06
-8.59925e-07
1.06068e-06
-1.08007e-06
1.08989e-06
-1.39852e-06
1.13934e-06
-9.69198e-08
-2.22313e-06
-4.15511e-05
2.42716e-07
-4.61523e-08
1.28703e-06
-9.07378e-08
1.26812e-06
-1.33095e-07
1.25293e-06
-1.72635e-07
1.24099e-06
-2.08845e-07
1.23182e-06
-2.41288e-07
1.22495e-06
-2.69616e-07
1.2199e-06
-2.93579e-07
1.21621e-06
-3.13038e-07
1.21343e-06
-3.2798e-07
1.21112e-06
-3.3852e-07
1.2089e-06
-3.44908e-07
1.20643e-06
-3.47521e-07
1.2034e-06
-3.46843e-07
1.1996e-06
-3.43442e-07
1.19487e-06
-3.37935e-07
1.18912e-06
-3.30953e-07
1.18235e-06
-3.23104e-07
1.17461e-06
-3.14945e-07
1.16598e-06
-3.06965e-07
1.15662e-06
-2.99585e-07
1.14669e-06
-2.93156e-07
1.13638e-06
-2.87985e-07
1.12588e-06
-2.8435e-07
1.11538e-06
-2.82529e-07
1.10509e-06
-2.82825e-07
1.09524e-06
-2.85585e-07
1.08605e-06
-2.91219e-07
1.07781e-06
-3.00219e-07
1.07082e-06
-3.13155e-07
1.0655e-06
-3.30678e-07
1.06231e-06
-3.53475e-07
1.06189e-06
-3.82193e-07
1.06499e-06
-4.17234e-07
1.07258e-06
-4.58368e-07
1.08586e-06
-5.03952e-07
1.10626e-06
-5.49467e-07
1.13541e-06
-5.84057e-07
1.17393e-06
-1.14951e-07
-2.69224e-06
-4.18878e-05
2.2174e-07
-3.80889e-08
1.32512e-06
-7.48721e-08
1.3049e-06
-1.09798e-07
1.28785e-06
-1.42386e-07
1.27358e-06
-1.72228e-07
1.26166e-06
-1.98993e-07
1.25172e-06
-2.2243e-07
1.24334e-06
-2.42376e-07
1.23616e-06
-2.58758e-07
1.22981e-06
-2.71596e-07
1.22396e-06
-2.81006e-07
1.21831e-06
-2.8719e-07
1.21261e-06
-2.90433e-07
1.20664e-06
-2.9108e-07
1.20025e-06
-2.89524e-07
1.19331e-06
-2.86184e-07
1.18578e-06
-2.81476e-07
1.17765e-06
-2.75805e-07
1.16893e-06
-2.69539e-07
1.15971e-06
-2.63002e-07
1.15008e-06
-2.5647e-07
1.14016e-06
-2.50169e-07
1.13008e-06
-2.44276e-07
1.11998e-06
-2.38925e-07
1.11003e-06
-2.34211e-07
1.10038e-06
-2.3018e-07
1.09121e-06
-2.26829e-07
1.0827e-06
-2.24086e-07
1.07506e-06
-2.21773e-07
1.06851e-06
-2.19565e-07
1.06329e-06
-2.16904e-07
1.05965e-06
-2.12896e-07
1.05788e-06
-2.0614e-07
1.05823e-06
-1.94509e-07
1.06095e-06
-1.74835e-07
1.06619e-06
-1.4252e-07
1.07395e-06
-9.10631e-08
1.08395e-06
-1.11288e-08
1.09399e-06
-1.40255e-07
-2.56311e-06
-4.2206e-05
1.78e-07
-3.13847e-08
1.3565e-06
-6.16905e-08
1.33521e-06
-9.04629e-08
1.31663e-06
-1.17311e-07
1.30042e-06
-1.41911e-07
1.28626e-06
-1.64005e-07
1.27381e-06
-1.83406e-07
1.26274e-06
-2e-07
1.25275e-06
-2.13741e-07
1.24355e-06
-2.24657e-07
1.23488e-06
-2.32841e-07
1.2265e-06
-2.38445e-07
1.21822e-06
-2.41673e-07
1.20987e-06
-2.42767e-07
1.20134e-06
-2.41994e-07
1.19254e-06
-2.39634e-07
1.18342e-06
-2.3596e-07
1.17397e-06
-2.31232e-07
1.16421e-06
-2.25681e-07
1.15416e-06
-2.19503e-07
1.14391e-06
-2.12852e-07
1.13351e-06
-2.05836e-07
1.12306e-06
-1.9851e-07
1.11266e-06
-1.90876e-07
1.10239e-06
-1.82871e-07
1.09237e-06
-1.7436e-07
1.0827e-06
-1.65118e-07
1.07346e-06
-1.5481e-07
1.06475e-06
-1.42962e-07
1.05666e-06
-1.2892e-07
1.04925e-06
-1.11811e-07
1.04254e-06
-9.04831e-08
1.03655e-06
-6.34557e-08
1.0312e-06
-2.88685e-08
1.02636e-06
1.55423e-08
1.02178e-06
7.24171e-08
1.01707e-06
1.44646e-07
1.01172e-06
2.35082e-07
1.00356e-06
-1.15982e-07
-2.21205e-06
-4.2454e-05
1.31985e-07
-2.58075e-08
1.38231e-06
-5.07273e-08
1.36013e-06
-7.43868e-08
1.34029e-06
-9.64683e-08
1.32251e-06
-1.16711e-07
1.30651e-06
-1.3491e-07
1.29201e-06
-1.50921e-07
1.27875e-06
-1.64654e-07
1.26649e-06
-1.76078e-07
1.25497e-06
-1.8521e-07
1.24401e-06
-1.92119e-07
1.23341e-06
-1.96911e-07
1.22301e-06
-1.99728e-07
1.21269e-06
-2.00734e-07
1.20235e-06
-2.00107e-07
1.19191e-06
-1.98029e-07
1.18135e-06
-1.94677e-07
1.17062e-06
-1.9021e-07
1.15974e-06
-1.84766e-07
1.14872e-06
-1.78452e-07
1.13759e-06
-1.71339e-07
1.1264e-06
-1.63458e-07
1.11518e-06
-1.54794e-07
1.10399e-06
-1.45278e-07
1.09288e-06
-1.34786e-07
1.08188e-06
-1.23128e-07
1.07104e-06
-1.10039e-07
1.06037e-06
-9.51672e-08
1.04988e-06
-7.80671e-08
1.03956e-06
-5.81827e-08
1.02936e-06
-3.48394e-08
1.0192e-06
-7.23742e-09
1.00895e-06
2.55478e-08
9.98417e-07
6.45549e-08
9.87353e-07
1.10912e-07
9.75419e-07
1.65796e-07
9.62189e-07
2.30381e-07
9.47136e-07
3.05771e-07
9.28168e-07
-3.50427e-08
-1.87123e-06
-4.25266e-05
3.7541e-08
-2.11578e-08
1.40347e-06
-4.15867e-08
1.38056e-06
-6.09811e-08
1.35968e-06
-7.90811e-08
1.34061e-06
-9.5674e-08
1.3231e-06
-1.10595e-07
1.30693e-06
-1.23724e-07
1.29188e-06
-1.3499e-07
1.27775e-06
-1.44362e-07
1.26435e-06
-1.51849e-07
1.2515e-06
-1.57493e-07
1.23905e-06
-1.61366e-07
1.22688e-06
-1.63563e-07
1.21489e-06
-1.64192e-07
1.20298e-06
-1.63369e-07
1.19109e-06
-1.61213e-07
1.17919e-06
-1.57832e-07
1.16724e-06
-1.53326e-07
1.15523e-06
-1.47773e-07
1.14317e-06
-1.41229e-07
1.13105e-06
-1.33722e-07
1.11889e-06
-1.2525e-07
1.10671e-06
-1.15777e-07
1.09452e-06
-1.05228e-07
1.08233e-06
-9.3494e-08
1.07015e-06
-8.04219e-08
1.05797e-06
-6.58193e-08
1.04577e-06
-4.94532e-08
1.03352e-06
-3.10532e-08
1.02116e-06
-1.03172e-08
1.00863e-06
1.30773e-08
9.95806e-07
3.94573e-08
9.82568e-07
6.91293e-08
9.68745e-07
1.02346e-07
9.54136e-07
1.39265e-07
9.38501e-07
1.7989e-07
9.21564e-07
2.24018e-07
9.03009e-07
2.71175e-07
8.81011e-07
7.70786e-09
-1.60776e-06
-4.25139e-05
-4.98967e-09
-1.72707e-08
1.42074e-06
-3.39436e-08
1.39723e-06
-4.97666e-08
1.3755e-06
-6.45254e-08
1.35536e-06
-7.80449e-08
1.33662e-06
-9.01881e-08
1.31907e-06
-1.00856e-07
1.30255e-06
-1.09984e-07
1.28688e-06
-1.17543e-07
1.2719e-06
-1.23532e-07
1.25748e-06
-1.27974e-07
1.24349e-06
-1.30915e-07
1.22982e-06
-1.32415e-07
1.21639e-06
-1.32546e-07
1.20311e-06
-1.31383e-07
1.18993e-06
-1.29002e-07
1.17681e-06
-1.25473e-07
1.16371e-06
-1.20857e-07
1.15062e-06
-1.15203e-07
1.13751e-06
-1.08543e-07
1.12439e-06
-1.00891e-07
1.11124e-06
-9.22423e-08
1.09806e-06
-8.25717e-08
1.08485e-06
-7.1834e-08
1.07159e-06
-5.99656e-08
1.05828e-06
-4.68869e-08
1.04489e-06
-3.25062e-08
1.03139e-06
-1.67265e-08
1.01774e-06
5.46356e-10
1.00389e-06
1.93911e-08
9.89782e-07
3.98549e-08
9.75342e-07
6.19322e-08
9.6049e-07
8.5537e-08
9.4514e-07
1.10468e-07
9.29205e-07
1.36363e-07
9.12606e-07
1.62641e-07
8.95285e-07
1.88429e-07
8.7722e-07
2.12495e-07
8.56946e-07
3.94329e-09
-1.39921e-06
-4.2496e-05
-1.3955e-08
-1.40126e-08
1.43475e-06
-2.75349e-08
1.41075e-06
-4.0358e-08
1.38833e-06
-5.23037e-08
1.36731e-06
-6.32259e-08
1.34754e-06
-7.30094e-08
1.32886e-06
-8.15691e-08
1.31111e-06
-8.88484e-08
1.29416e-06
-9.48161e-08
1.27787e-06
-9.94641e-08
1.26213e-06
-1.02803e-07
1.24683e-06
-1.04861e-07
1.23188e-06
-1.05675e-07
1.2172e-06
-1.05291e-07
1.20272e-06
-1.03761e-07
1.1884e-06
-1.01134e-07
1.17418e-06
-9.74585e-08
1.16004e-06
-9.27765e-08
1.14593e-06
-8.71229e-08
1.13186e-06
-8.05233e-08
1.11779e-06
-7.29938e-08
1.10371e-06
-6.45405e-08
1.08961e-06
-5.51602e-08
1.07547e-06
-4.48427e-08
1.06127e-06
-3.35724e-08
1.04701e-06
-2.13331e-08
1.03265e-06
-8.11155e-09
1.01816e-06
6.09535e-09
1.00353e-06
2.12738e-08
9.88711e-07
3.73841e-08
9.73671e-07
5.43509e-08
9.58375e-07
7.20522e-08
9.42789e-07
9.0309e-08
9.26883e-07
1.08876e-07
9.10638e-07
1.27435e-07
8.94047e-07
1.45599e-07
8.77122e-07
1.62922e-07
8.59898e-07
1.7899e-07
8.40878e-07
4.93888e-09
-1.22516e-06
-4.24736e-05
-1.74249e-08
-1.12756e-08
1.44602e-06
-2.21496e-08
1.42163e-06
-3.24474e-08
1.39863e-06
-4.20197e-08
1.37688e-06
-5.07435e-08
1.35626e-06
-5.85206e-08
1.33663e-06
-6.52775e-08
1.31787e-06
-7.0963e-08
1.29984e-06
-7.55463e-08
1.28246e-06
-7.90147e-08
1.2656e-06
-8.13709e-08
1.24919e-06
-8.26298e-08
1.23314e-06
-8.28158e-08
1.21739e-06
-8.19599e-08
1.20187e-06
-8.0097e-08
1.18654e-06
-7.72638e-08
1.17135e-06
-7.3496e-08
1.15627e-06
-6.88276e-08
1.14127e-06
-6.32889e-08
1.12632e-06
-5.69068e-08
1.11141e-06
-4.97038e-08
1.09651e-06
-4.16995e-08
1.0816e-06
-3.29108e-08
1.06668e-06
-2.33545e-08
1.05172e-06
-1.30491e-08
1.0367e-06
-2.01791e-09
1.02162e-06
9.70769e-09
1.00644e-06
2.20841e-08
9.91154e-07
3.50518e-08
9.75743e-07
4.85307e-08
9.60192e-07
6.24171e-08
9.44489e-07
7.65803e-08
9.28626e-07
9.0861e-08
9.12603e-07
1.05072e-07
8.96427e-07
1.19003e-07
8.80116e-07
1.32425e-07
8.637e-07
1.45103e-07
8.4722e-07
1.56866e-07
8.29115e-07
5.55596e-09
-1.07385e-06
-4.24485e-05
-1.95964e-08
-8.97326e-09
1.455e-06
-1.76182e-08
1.43027e-06
-2.57877e-08
1.40679e-06
-3.33561e-08
1.38445e-06
-4.02188e-08
1.36313e-06
-4.62917e-08
1.34271e-06
-5.15108e-08
1.32309e-06
-5.58299e-08
1.30416e-06
-5.92198e-08
1.28585e-06
-6.16657e-08
1.26805e-06
-6.31651e-08
1.25069e-06
-6.37261e-08
1.2337e-06
-6.33648e-08
1.21702e-06
-6.21031e-08
1.20061e-06
-5.99676e-08
1.1844e-06
-5.69871e-08
1.16837e-06
-5.31916e-08
1.15247e-06
-4.86116e-08
1.13669e-06
-4.32771e-08
1.12099e-06
-3.72175e-08
1.10535e-06
-3.04618e-08
1.08975e-06
-2.30393e-08
1.07418e-06
-1.49802e-08
1.05862e-06
-6.3173e-09
1.04306e-06
2.91293e-09
1.02747e-06
1.26683e-08
1.01186e-06
2.28994e-08
9.96208e-07
3.35474e-08
9.80506e-07
4.45429e-08
9.64748e-07
5.58049e-08
9.4893e-07
6.72396e-08
9.33054e-07
7.87419e-08
9.17124e-07
9.01957e-08
9.01149e-07
1.01478e-07
8.85144e-07
1.12462e-07
8.69132e-07
1.23023e-07
8.53138e-07
1.33048e-07
8.37195e-07
1.42514e-07
8.19649e-07
6.36067e-09
-9.37699e-07
-4.24211e-05
-2.1031e-08
-7.03568e-09
1.46203e-06
-1.38037e-08
1.43704e-06
-2.01796e-08
1.41317e-06
-2.60566e-08
1.39033e-06
-3.13454e-08
1.36841e-06
-3.59738e-08
1.34734e-06
-3.98859e-08
1.327e-06
-4.30406e-08
1.30732e-06
-4.54106e-08
1.28822e-06
-4.69809e-08
1.26962e-06
-4.77467e-08
1.25145e-06
-4.77121e-08
1.23367e-06
-4.68886e-08
1.2162e-06
-4.52933e-08
1.19901e-06
-4.29478e-08
1.18205e-06
-3.98768e-08
1.1653e-06
-3.61077e-08
1.1487e-06
-3.16693e-08
1.13225e-06
-2.65917e-08
1.11591e-06
-2.09066e-08
1.09966e-06
-1.46465e-08
1.08349e-06
-7.84594e-09
1.06738e-06
-5.41494e-10
1.05132e-06
7.22739e-09
1.03529e-06
1.54177e-08
1.01928e-06
2.3982e-08
1.0033e-06
3.2868e-08
9.87322e-07
4.20179e-08
9.71356e-07
5.13681e-08
9.55397e-07
6.08499e-08
9.39449e-07
7.03893e-08
9.23515e-07
7.9909e-08
9.07604e-07
8.93296e-08
8.91728e-07
9.85723e-08
8.75902e-07
1.07561e-07
8.60143e-07
1.16228e-07
8.44472e-07
1.24512e-07
8.28911e-07
1.32423e-07
8.11738e-07
7.08028e-09
-8.12357e-07
-4.23921e-05
-2.1885e-08
-5.40601e-09
1.46744e-06
-1.05948e-08
1.44223e-06
-1.54604e-08
1.41804e-06
-1.99119e-08
1.39478e-06
-2.38725e-08
1.37238e-06
-2.72802e-08
1.35074e-06
-3.00861e-08
1.3298e-06
-3.2254e-08
1.30949e-06
-3.37592e-08
1.28972e-06
-3.45873e-08
1.27044e-06
-3.47328e-08
1.2516e-06
-3.41983e-08
1.23313e-06
-3.29924e-08
1.21499e-06
-3.11298e-08
1.19715e-06
-2.86291e-08
1.17955e-06
-2.5513e-08
1.16218e-06
-2.18067e-08
1.145e-06
-1.75382e-08
1.12798e-06
-1.27375e-08
1.11111e-06
-7.43647e-09
1.09436e-06
-1.66892e-09
1.07772e-06
4.52934e-09
1.06118e-06
1.11204e-08
1.04472e-06
1.80638e-08
1.02834e-06
2.5317e-08
1.01203e-06
3.28343e-08
9.95779e-07
4.05676e-08
9.79588e-07
4.84662e-08
9.63457e-07
5.64771e-08
9.47386e-07
6.45456e-08
9.3138e-07
7.26162e-08
9.15444e-07
8.06335e-08
8.99587e-07
8.85435e-08
8.83818e-07
9.62949e-08
8.6815e-07
1.03841e-07
8.52597e-07
1.1114e-07
8.37173e-07
1.18157e-07
8.21894e-07
1.24939e-07
8.04955e-07
7.759e-09
-6.95176e-07
-4.23621e-05
-2.22781e-08
-4.03766e-09
1.47148e-06
-7.90013e-09
1.44609e-06
-1.14968e-08
1.42163e-06
-1.47497e-08
1.39803e-06
-1.75929e-08
1.37522e-06
-1.99726e-08
1.35312e-06
-2.18465e-08
1.33168e-06
-2.31828e-08
1.31082e-06
-2.39596e-08
1.2905e-06
-2.41636e-08
1.27065e-06
-2.37898e-08
1.25122e-06
-2.28398e-08
1.23218e-06
-2.13213e-08
1.21348e-06
-1.9247e-08
1.19507e-06
-1.66342e-08
1.17694e-06
-1.35036e-08
1.15905e-06
-9.87935e-09
1.14137e-06
-5.78805e-09
1.12389e-06
-1.25874e-09
1.10658e-06
3.67745e-09
1.08942e-06
8.98751e-09
1.07241e-06
1.46366e-08
1.05553e-06
2.05884e-08
1.03877e-06
2.68047e-08
1.02213e-06
3.3246e-08
1.00559e-06
3.98717e-08
9.89153e-07
4.66399e-08
9.7282e-07
5.35083e-08
9.56589e-07
6.04342e-08
9.40461e-07
6.73753e-08
9.24439e-07
7.42902e-08
9.08529e-07
8.11394e-08
8.92738e-07
8.78857e-08
8.77072e-07
9.44952e-08
8.61541e-07
1.00938e-07
8.46154e-07
1.07189e-07
8.30922e-07
1.13229e-07
8.15854e-07
1.19103e-07
7.99081e-07
8.44672e-09
-5.8452e-07
-4.23313e-05
-2.22951e-08
-2.89222e-09
1.47437e-06
-5.64428e-09
1.44884e-06
-8.17834e-09
1.42417e-06
-1.04271e-08
1.40028e-06
-1.23339e-08
1.37713e-06
-1.3852e-08
1.35464e-06
-1.49447e-08
1.33277e-06
-1.55841e-08
1.31146e-06
-1.5751e-08
1.29066e-06
-1.54338e-08
1.27033e-06
-1.46279e-08
1.25042e-06
-1.33348e-08
1.23089e-06
-1.15614e-08
1.2117e-06
-9.31963e-09
1.19283e-06
-6.62529e-09
1.17425e-06
-3.49792e-09
1.15592e-06
3.98979e-11
1.13783e-06
3.96288e-09
1.11997e-06
8.24346e-09
1.1023e-06
1.28521e-08
1.08482e-06
1.77575e-08
1.06751e-06
2.29271e-08
1.05036e-06
2.83269e-08
1.03337e-06
3.39224e-08
1.01653e-06
3.96781e-08
9.99832e-07
4.55586e-08
9.83273e-07
5.15283e-08
9.6685e-07
5.75522e-08
9.50565e-07
6.35963e-08
9.34417e-07
6.96276e-08
9.18408e-07
7.56154e-08
9.02542e-07
8.15308e-08
8.86822e-07
8.73477e-08
8.71255e-07
9.3043e-08
8.55846e-07
9.85968e-08
8.406e-07
1.03992e-07
8.25526e-07
1.09216e-07
8.1063e-07
1.1433e-07
7.93967e-07
9.17631e-09
-4.79366e-07
-4.23002e-05
-2.19956e-08
-1.93784e-09
1.47631e-06
-3.76467e-09
1.45067e-06
-5.41321e-09
1.42582e-06
-6.82523e-09
1.40169e-06
-7.95151e-09
1.37825e-06
-8.75157e-09
1.35544e-06
-9.19327e-09
1.33321e-06
-9.25238e-09
1.31152e-06
-8.91199e-09
1.29032e-06
-8.16197e-09
1.26958e-06
-6.9983e-09
1.24925e-06
-5.42254e-09
1.22931e-06
-3.44119e-09
1.20972e-06
-1.06516e-09
1.19046e-06
1.69075e-09
1.17149e-06
4.80835e-09
1.1528e-06
8.26645e-09
1.13438e-06
1.20414e-08
1.11619e-06
1.61071e-08
1.09823e-06
2.0436e-08
1.08049e-06
2.49989e-08
1.06294e-06
2.97654e-08
1.0456e-06
3.47044e-08
1.02843e-06
3.97843e-08
1.01145e-06
4.49736e-08
9.94643e-07
5.02412e-08
9.78005e-07
5.55565e-08
9.61535e-07
6.08902e-08
9.45231e-07
6.62147e-08
9.29092e-07
7.15039e-08
9.13118e-07
7.67345e-08
8.97311e-07
8.18852e-08
8.81671e-07
8.69377e-08
8.66202e-07
9.18764e-08
8.50907e-07
9.66887e-08
8.35788e-07
1.01365e-07
8.2085e-07
1.05898e-07
8.06098e-07
1.10322e-07
7.89542e-07
9.97217e-09
-3.79016e-07
-4.22688e-05
-2.14372e-08
-1.14811e-09
1.47746e-06
-2.20935e-09
1.45173e-06
-3.1252e-09
1.42673e-06
-3.84495e-09
1.40241e-06
-4.32565e-09
1.37873e-06
-4.5319e-09
1.35565e-06
-4.43554e-09
1.33312e-06
-4.01522e-09
1.3111e-06
-3.25606e-09
1.28957e-06
-2.14907e-09
1.26847e-06
-6.90765e-10
1.2478e-06
1.1174e-09
1.2275e-06
3.26946e-09
1.20757e-06
5.75538e-09
1.18797e-06
8.56154e-09
1.16868e-06
1.16711e-08
1.14969e-06
1.50643e-08
1.13098e-06
1.87191e-08
1.11254e-06
2.26112e-08
1.09434e-06
2.67146e-08
1.07638e-06
3.1002e-08
1.05866e-06
3.54449e-08
1.04115e-06
4.00145e-08
1.02386e-06
4.46813e-08
1.00678e-06
4.94165e-08
9.89908e-07
5.41917e-08
9.7323e-07
5.89797e-08
9.56747e-07
6.37548e-08
9.40456e-07
6.84932e-08
9.24354e-07
7.31735e-08
9.08438e-07
7.7777e-08
8.92707e-07
8.22879e-08
8.77161e-07
8.66931e-08
8.61797e-07
9.09828e-08
8.46617e-07
9.51498e-08
8.31621e-07
9.91899e-08
8.1681e-07
1.03101e-07
8.02187e-07
1.06902e-07
7.85741e-07
1.08333e-08
-2.82947e-07
-4.22373e-05
-2.06674e-08
-5.01119e-10
1.47796e-06
-9.35228e-10
1.45216e-06
-1.25104e-09
1.42705e-06
-1.40407e-09
1.40257e-06
-1.35654e-09
1.37868e-06
-1.0772e-09
1.35537e-06
-5.41094e-10
1.33258e-06
2.70773e-10
1.31029e-06
1.37179e-09
1.28846e-06
2.77011e-09
1.26708e-06
4.46906e-09
1.2461e-06
6.46749e-09
1.22551e-06
8.7602e-09
1.20528e-06
1.13383e-08
1.18539e-06
1.41894e-08
1.16583e-06
1.72982e-08
1.14659e-06
2.06467e-08
1.12763e-06
2.42143e-08
1.10897e-06
2.79785e-08
1.09058e-06
3.19148e-08
1.07245e-06
3.59973e-08
1.05457e-06
4.0199e-08
1.03695e-06
4.44919e-08
1.01957e-06
4.8848e-08
1.00243e-06
5.3239e-08
9.85517e-07
5.76377e-08
9.68831e-07
6.20175e-08
9.52367e-07
6.63539e-08
9.3612e-07
7.06243e-08
9.20083e-07
7.48091e-08
9.04253e-07
7.88917e-08
8.88625e-07
8.28591e-08
8.73193e-07
8.67019e-08
8.57954e-07
9.04147e-08
8.42904e-07
9.39955e-08
8.2804e-07
9.74459e-08
8.1336e-07
1.0077e-07
7.98862e-07
1.03947e-07
7.82565e-07
1.1745e-08
-1.90746e-07
-4.22058e-05
-1.97248e-08
2.12512e-11
1.47794e-06
9.33303e-11
1.45209e-06
2.61548e-10
1.42688e-06
5.65301e-10
1.40226e-06
1.03815e-09
1.37821e-06
1.70799e-09
1.3547e-06
2.59725e-09
1.33169e-06
3.72319e-09
1.30916e-06
5.09818e-09
1.28709e-06
6.72999e-09
1.26544e-06
8.62215e-09
1.24421e-06
1.07742e-08
1.22335e-06
1.31821e-08
1.20287e-06
1.58383e-08
1.18274e-06
1.87323e-08
1.16294e-06
2.18505e-08
1.14347e-06
2.51769e-08
1.12431e-06
2.86928e-08
1.10545e-06
3.23775e-08
1.08689e-06
3.62079e-08
1.06862e-06
4.01596e-08
1.05062e-06
4.4206e-08
1.03291e-06
4.83198e-08
1.01546e-06
5.24724e-08
9.98276e-07
5.66347e-08
9.81354e-07
6.07779e-08
9.64688e-07
6.48735e-08
9.48272e-07
6.88945e-08
9.32099e-07
7.28159e-08
9.16162e-07
7.66158e-08
9.00453e-07
8.0276e-08
8.84965e-07
8.37827e-08
8.69687e-07
8.71274e-08
8.5461e-07
9.03071e-08
8.39725e-07
9.33241e-08
8.25023e-07
9.61861e-08
8.10498e-07
9.89052e-08
7.96143e-07
1.01429e-07
7.80041e-07
1.26976e-08
-1.02014e-07
-4.21744e-05
-1.86379e-08
4.33952e-10
1.4775e-06
9.05701e-10
1.45162e-06
1.45564e-09
1.42633e-06
2.11898e-09
1.4016e-06
2.92589e-09
1.37741e-06
3.90159e-09
1.35372e-06
5.06662e-09
1.33053e-06
6.43701e-09
1.30779e-06
8.02459e-09
1.2855e-06
9.83723e-09
1.26363e-06
1.18791e-08
1.24216e-06
1.41508e-08
1.22108e-06
1.665e-08
1.20037e-06
1.9371e-08
1.18001e-06
2.23055e-08
1.16001e-06
2.54425e-08
1.14033e-06
2.87685e-08
1.12098e-06
3.22673e-08
1.10195e-06
3.59205e-08
1.08324e-06
3.97073e-08
1.06483e-06
4.36046e-08
1.04673e-06
4.7587e-08
1.02892e-06
5.16268e-08
1.01142e-06
5.56944e-08
9.94208e-07
5.97584e-08
9.7729e-07
6.37858e-08
9.60661e-07
6.77428e-08
9.44315e-07
7.15956e-08
9.28246e-07
7.53115e-08
9.12446e-07
7.88597e-08
8.96905e-07
8.22137e-08
8.81611e-07
8.53524e-08
8.66548e-07
8.8262e-08
8.517e-07
9.09374e-08
8.37049e-07
9.33832e-08
8.22577e-07
9.56138e-08
8.08267e-07
9.76529e-08
7.94104e-07
9.94262e-08
7.78268e-07
1.36945e-08
-1.62824e-08
-4.21433e-05
-1.74274e-08
7.49325e-10
1.47675e-06
1.5261e-09
1.45084e-06
2.36664e-09
1.42549e-06
3.30272e-09
1.40066e-06
4.36174e-09
1.37635e-06
5.56684e-09
1.35252e-06
6.93713e-09
1.32916e-06
8.4879e-09
1.30624e-06
1.02308e-08
1.28376e-06
1.21743e-08
1.26169e-06
1.43234e-08
1.24001e-06
1.66806e-08
1.21872e-06
1.92453e-08
1.1978e-06
2.20147e-08
1.17725e-06
2.49832e-08
1.15704e-06
2.81432e-08
1.13717e-06
3.14846e-08
1.11764e-06
3.4995e-08
1.09844e-06
3.86596e-08
1.07957e-06
4.24611e-08
1.06103e-06
4.63793e-08
1.04281e-06
5.03913e-08
1.02491e-06
5.44704e-08
1.00734e-06
5.85866e-08
9.90092e-07
6.2706e-08
9.73171e-07
6.67905e-08
9.56576e-07
7.07982e-08
9.40307e-07
7.46836e-08
9.2436e-07
7.83987e-08
9.08731e-07
8.18945e-08
8.93409e-07
8.51235e-08
8.78382e-07
8.80428e-08
8.63629e-07
9.06187e-08
8.49124e-07
9.28306e-08
8.34837e-07
9.4676e-08
8.20732e-07
9.61734e-08
8.0677e-07
9.73636e-08
7.92914e-07
9.81599e-08
7.77471e-07
1.47577e-08
6.71199e-08
-4.21125e-05
-1.61063e-08
9.77623e-10
1.47577e-06
1.97463e-09
1.44985e-06
3.02386e-09
1.42444e-06
4.15423e-09
1.39953e-06
5.39084e-09
1.37511e-06
6.75515e-09
1.35115e-06
8.26521e-09
1.32765e-06
9.93586e-09
1.30457e-06
1.1779e-08
1.28192e-06
1.38036e-08
1.25966e-06
1.60164e-08
1.2378e-06
1.84215e-08
1.21632e-06
2.10211e-08
1.19521e-06
2.38152e-08
1.17445e-06
2.68022e-08
1.15405e-06
2.99784e-08
1.13399e-06
3.33387e-08
1.11428e-06
3.68758e-08
1.09491e-06
4.05805e-08
1.07587e-06
4.44416e-08
1.05717e-06
4.84447e-08
1.0388e-06
5.25726e-08
1.02078e-06
5.68038e-08
1.00311e-06
6.11118e-08
9.85784e-07
6.54641e-08
9.68819e-07
6.98206e-08
9.5222e-07
7.41325e-08
9.35995e-07
7.83413e-08
9.20152e-07
8.23776e-08
9.04695e-07
8.61618e-08
8.89625e-07
8.96055e-08
8.74938e-07
9.26161e-08
8.60618e-07
9.51035e-08
8.46637e-07
9.69914e-08
8.32949e-07
9.82316e-08
8.19492e-07
9.88201e-08
8.06181e-07
9.88121e-08
7.92922e-07
9.81349e-08
7.78149e-07