/*--------------------------------*- C++ -*----------------------------------*\
  =========                 |
  \\      /  F ield         | OpenFOAM: The Open Source CFD Toolbox
   \\    /   O peration     | Website:  https://openfoam.org
    \\  /    A nd           | Version:  10
     \\/     M anipulation  |
\*---------------------------------------------------------------------------*/
FoamFile
{
    format      ascii;
    class       volVectorField;
    location    "0.96";
    object      Ub;
}
// * * * * * * * * * * * * * * * * * * * * * * * * * * * * * * * * * * * * * //

dimensions      [0 1 -1 0 0 0 0];

internalField   nonuniform List<vector> 
12225
(
(0.00215016 -0.000436575 0)
(0.00613889 -0.000389253 0)
(0.00943123 -0.000321251 0)
(0.0119825 -0.000253414 0)
(0.0138935 -0.000196527 0)
(0.0153145 -0.0001537 0)
(0.0163902 -0.00012421 0)
(0.0172404 -0.000106131 0)
(0.0179585 -9.76723e-05 0)
(0.0186176 -9.77674e-05 0)
(0.0192788 -0.000106399 0)
(0.0200008 -0.000125022 0)
(0.0208516 -0.000157531 0)
(0.0219285 -0.000212769 0)
(0.0234015 -0.00031185 0)
(0.0256386 -0.000514248 0)
(0.0296946 -0.00104156 0)
(0.0400865 -0.00311007 0)
(0.00231317 -0.00137583 0)
(0.00659559 -0.00122466 0)
(0.0101124 -0.00100836 0)
(0.0128204 -0.000793337 0)
(0.014835 -0.000613574 0)
(0.0163228 -0.000478603 0)
(0.0174422 -0.00038588 0)
(0.0183225 -0.000329145 0)
(0.0190637 -0.000302633 0)
(0.0197431 -0.000302884 0)
(0.0204248 -0.000329725 0)
(0.0211692 -0.000387524 0)
(0.0220454 -0.00048805 0)
(0.0231485 -0.000657763 0)
(0.024637 -0.000958357 0)
(0.0268144 -0.00155439 0)
(0.0302982 -0.00298757 0)
(0.0356105 -0.00757995 0)
(0.00243278 -0.00244485 0)
(0.00692379 -0.00217034 0)
(0.0105857 -0.00178031 0)
(0.0133805 -0.00139488 0)
(0.0154403 -0.00107432 0)
(0.0169478 -0.000834693 0)
(0.0180726 -0.000670669 0)
(0.018951 -0.000570586 0)
(0.0196869 -0.000523848 0)
(0.0203594 -0.000524029 0)
(0.0210332 -0.000570444 0)
(0.0217673 -0.000670131 0)
(0.0226265 -0.000842301 0)
(0.0236945 -0.00112933 0)
(0.025095 -0.00162561 0)
(0.027013 -0.00256046 0)
(0.0296153 -0.00455671 0)
(0.0320867 -0.0093999 0)
(0.00255213 -0.00364758 0)
(0.007245 -0.00322639 0)
(0.0110341 -0.00263352 0)
(0.0138917 -0.00205248 0)
(0.0159723 -0.00157268 0)
(0.0174777 -0.00121613 0)
(0.0185895 -0.000973225 0)
(0.0194506 -0.00082549 0)
(0.0201676 -0.000756462 0)
(0.0208202 -0.000756008 0)
(0.0214716 -0.000822334 0)
(0.0221775 -0.000964392 0)
(0.0229943 -0.00120724 0)
(0.0239877 -0.00160463 0)
(0.0252353 -0.00226886 0)
(0.0268013 -0.00344198 0)
(0.0285647 -0.00565221 0)
(0.0295158 -0.00989243 0)
(0.00268632 -0.00500164 0)
(0.00759953 -0.00440317 0)
(0.0115138 -0.00357105 0)
(0.0144186 -0.0027646 0)
(0.0164998 -0.00210502 0)
(0.0179834 -0.00161871 0)
(0.0190651 -0.00128939 0)
(0.0198944 -0.0010899 0)
(0.0205797 -0.000996552 0)
(0.0212001 -0.000994541 0)
(0.0218158 -0.00108007 0)
(0.0224768 -0.00126275 0)
(0.023229 -0.00157085 0)
(0.0241157 -0.00206306 0)
(0.0251686 -0.00285263 0)
(0.0263589 -0.00415186 0)
(0.0274398 -0.00632323 0)
(0.027592 -0.00976569 0)
(0.0028472 -0.00653411 0)
(0.00801717 -0.00571647 0)
(0.0120623 -0.0045977 0)
(0.0149998 -0.0035294 0)
(0.0170597 -0.0026666 0)
(0.0184997 -0.00203688 0)
(0.0195324 -0.00161377 0)
(0.0203138 -0.00135874 0)
(0.0209535 -0.00123916 0)
(0.0215286 -0.00123433 0)
(0.0220949 -0.00133728 0)
(0.0226952 -0.00155653 0)
(0.0233628 -0.00192027 0)
(0.0241191 -0.00248509 0)
(0.0249572 -0.00335062 0)
(0.0257937 -0.00467582 0)
(0.026364 -0.00666165 0)
(0.0261056 -0.00936787 0)
(0.00304814 -0.00828348 0)
(0.00852963 -0.00718738 0)
(0.0127155 -0.0057186 0)
(0.0156683 -0.004343 0)
(0.0176801 -0.00325002 0)
(0.0190504 -0.00246264 0)
(0.0200117 -0.00193882 0)
(0.0207268 -0.00162511 0)
(0.0213053 -0.00147776 0)
(0.0218208 -0.00146864 0)
(0.0223237 -0.00158617 0)
(0.0228481 -0.00183582 0)
(0.0234148 -0.00224223 0)
(0.0240259 -0.00285364 0)
(0.0246481 -0.0037467 0)
(0.0251769 -0.00502181 0)
(0.0253856 -0.00675771 0)
(0.0249247 -0.00886175 0)
(0.00330699 -0.0103042 0)
(0.00917727 -0.00884304 0)
(0.0135157 -0.00693775 0)
(0.0164587 -0.00519761 0)
(0.0183872 -0.00384364 0)
(0.0196548 -0.00288428 0)
(0.0205177 -0.00225403 0)
(0.021145 -0.00187976 0)
(0.0216448 -0.00170384 0)
(0.0220858 -0.00168901 0)
(0.0225111 -0.00181756 0)
(0.0229461 -0.00208984 0)
(0.0233998 -0.00252387 0)
(0.0238597 -0.00315525 0)
(0.0242787 -0.00403417 0)
(0.0245548 -0.00520983 0)
(0.0245169 -0.00668419 0)
(0.0239646 -0.00831974 0)
(0.00364978 -0.0126744 0)
(0.0100164 -0.0107176 0)
(0.0145171 -0.00825545 0)
(0.0174113 -0.00607858 0)
(0.0192081 -0.00442936 0)
(0.0203309 -0.00328494 0)
(0.0210625 -0.00254498 0)
(0.0215771 -0.00211042 0)
(0.0219787 -0.00190656 0)
(0.0223292 -0.00188518 0)
(0.0226634 -0.00202092 0)
(0.0229976 -0.00230731 0)
(0.0233309 -0.00275352 0)
(0.0236414 -0.00338062 0)
(0.0238786 -0.00421374 0)
(0.0239556 -0.00526409 0)
(0.0237546 -0.00649404 0)
(0.0231694 -0.00777192 0)
(0.00411694 -0.0155103 0)
(0.0111302 -0.0128527 0)
(0.0157928 -0.00966356 0)
(0.0185754 -0.00695977 0)
(0.0201722 -0.00497936 0)
(0.0210954 -0.00364064 0)
(0.0216557 -0.0027922 0)
(0.0220288 -0.00230123 0)
(0.0223111 -0.00207247 0)
(0.0225548 -0.00204501 0)
(0.0227854 -0.00218466 0)
(0.0230102 -0.00247695 0)
(0.0232204 -0.00292126 0)
(0.0233893 -0.00352437 0)
(0.0234699 -0.00429097 0)
(0.0233947 -0.00520806 0)
(0.0230885 -0.00622342 0)
(0.0225004 -0.00722922 0)
(0.00477459 -0.0189898 0)
(0.0126475 -0.0152957 0)
(0.0174452 -0.011136 0)
(0.0200114 -0.00779584 0)
(0.0213107 -0.00545156 0)
(0.0219632 -0.00391784 0)
(0.022304 -0.00296995 0)
(0.022503 -0.00243217 0)
(0.0226436 -0.00218533 0)
(0.0227648 -0.00215461 0)
(0.022881 -0.00229642 0)
(0.0229907 -0.00258799 0)
(0.0230791 -0.00301914 0)
(0.0231183 -0.00358444 0)
(0.0230678 -0.00427395 0)
(0.0228788 -0.00506195 0)
(0.0225064 -0.00589587 0)
(0.0219302 -0.00669407 0)
(0.00566818 -0.0229769 0)
(0.0146268 -0.0178472 0)
(0.0194717 -0.0124993 0)
(0.0216785 -0.00846713 0)
(0.0225746 -0.0057705 0)
(0.0228923 -0.00406961 0)
(0.0229772 -0.00304788 0)
(0.0229818 -0.00248204 0)
(0.0229697 -0.00222879 0)
(0.0229635 -0.00220036 0)
(0.0229655 -0.00234484 0)
(0.0229659 -0.00263234 0)
(0.0229456 -0.00304505 0)
(0.022877 -0.00356878 0)
(0.0227265 -0.00418505 0)
(0.022459 -0.00486343 0)
(0.0220478 -0.00555699 0)
(0.0214867 -0.00620526 0)
(0.00691762 -0.0280988 0)
(0.0172624 -0.0206767 0)
(0.0219706 -0.0137344 0)
(0.0235977 -0.00891681 0)
(0.0239462 -0.0058858 0)
(0.0238484 -0.00405869 0)
(0.0236345 -0.00299972 0)
(0.0234221 -0.00243242 0)
(0.0232455 -0.00219002 0)
(0.0231065 -0.00217354 0)
(0.0229937 -0.00232447 0)
(0.0228887 -0.00260755 0)
(0.0227687 -0.0029995 0)
(0.0226072 -0.00348066 0)
(0.0223766 -0.00402849 0)
(0.0220523 -0.00461276 0)
(0.0216192 -0.00519423 0)
(0.0210783 -0.00572867 0)
(0.00916973 -0.0361081 0)
(0.0217104 -0.0241569 0)
(0.0257643 -0.0147585 0)
(0.0262717 -0.00899381 0)
(0.0257357 -0.00567021 0)
(0.0250335 -0.00379104 0)
(0.0244143 -0.00275766 0)
(0.023922 -0.0022342 0)
(0.0235416 -0.00203286 0)
(0.023244 -0.0020469 0)
(0.0229993 -0.002214 0)
(0.0227788 -0.00249583 0)
(0.0225555 -0.00286592 0)
(0.0223038 -0.0033019 0)
(0.0220011 -0.00378044 0)
(0.0216308 -0.00427462 0)
(0.021185 -0.00475408 0)
(0.0206674 -0.00518841 0)
(0.0137693 -0.0501061 0)
(0.0299592 -0.0277164 0)
(0.0317099 -0.0146922 0)
(0.0299644 -0.0081012 0)
(0.0279915 -0.00476144 0)
(0.0264288 -0.00304409 0)
(0.0252814 -0.00217778 0)
(0.0244462 -0.00178814 0)
(0.0238272 -0.0016842 0)
(0.0233513 -0.00176315 0)
(0.0229644 -0.00196629 0)
(0.0226252 -0.00225735 0)
(0.0223014 -0.00261081 0)
(0.0219676 -0.00300542 0)
(0.0216044 -0.00342055 0)
(0.0211999 -0.0038349 0)
(0.0207496 -0.0042271 0)
(0.0202572 -0.0045778 0)
(0.024942 -0.0791381 0)
(0.0473341 -0.0272575 0)
(0.0410234 -0.0109602 0)
(0.0347069 -0.00500439 0)
(0.0305284 -0.0025539 0)
(0.0278551 -0.00149395 0)
(0.0260978 -0.00106899 0)
(0.0248948 -0.000970283 0)
(0.0240324 -0.00105634 0)
(0.0233809 -0.00125555 0)
(0.0228581 -0.00152782 0)
(0.0224091 -0.00184822 0)
(0.0219963 -0.00219856 0)
(0.0215934 -0.00256341 0)
(0.0211833 -0.00292823 0)
(0.0207559 -0.00327895 0)
(0.0203078 -0.00360259 0)
(0.019841 -0.00388836 0)
(0.0593828 0.000785329 0)
(0.0909226 0.00317176 0)
(0.0532882 0.00266474 0)
(0.0391563 0.00208091 0)
(0.0325257 0.00158912 0)
(0.0288722 0.00114931 0)
(0.0266249 0.000734152 0)
(0.0251281 0.000331128 0)
(0.024065 -6.53736e-05 0)
(0.0232643 -0.000457597 0)
(0.0226238 -0.000842939 0)
(0.0220799 -0.00122247 0)
(0.0215926 -0.00159247 0)
(0.0211357 -0.00194802 0)
(0.0206927 -0.00228339 0)
(0.020254 -0.00259261 0)
(0.0198154 -0.00287025 0)
(0.0193766 -0.00311213 0)
(0.0205067 0.0762762 0)
(0.040561 0.0320317 0)
(0.0374677 0.0164282 0)
(0.0327162 0.00968823 0)
(0.0291498 0.00623776 0)
(0.0266991 0.00420853 0)
(0.0250055 0.00287204 0)
(0.0237963 0.0019072 0)
(0.0228954 0.00115819 0)
(0.0221917 0.000543644 0)
(0.0216152 2.1411e-05 0)
(0.0211209 -0.000436427 0)
(0.0206758 -0.000839977 0)
(0.0202589 -0.00120166 0)
(0.0198587 -0.00152496 0)
(0.0194686 -0.00181147 0)
(0.0190854 -0.00206201 0)
(0.0187084 -0.00227736 0)
(0.00783913 0.0404776 0)
(0.018768 0.0279008 0)
(0.0226658 0.018541 0)
(0.0234425 0.0125512 0)
(0.0231295 0.00872879 0)
(0.0225262 0.00620123 0)
(0.0219079 0.00445104 0)
(0.0213519 0.00318124 0)
(0.0208672 0.00221942 0)
(0.020442 0.00146303 0)
(0.0200607 0.000849498 0)
(0.0197098 0.000339781 0)
(0.0193803 -8.72679e-05 0)
(0.0190658 -0.000452045 0)
(0.0187599 -0.000763988 0)
(0.0184591 -0.00103245 0)
(0.0181626 -0.00126244 0)
(0.0178706 -0.00145793 0)
(0.00427091 0.0245459 0)
(0.011216 0.0202488 0)
(0.0153202 0.0155949 0)
(0.01745 0.0117348 0)
(0.0184624 0.00878938 0)
(0.0188908 0.00659181 0)
(0.0190226 0.00494698 0)
(0.0190035 0.00369765 0)
(0.018906 0.00273022 0)
(0.0187653 0.00196571 0)
(0.0185987 0.00134995 0)
(0.018415 0.000845742 0)
(0.0182189 0.000427399 0)
(0.0180139 7.75809e-05 0)
(0.0178032 -0.00021544 0)
(0.0175885 -0.000461918 0)
(0.0173704 -0.000670708 0)
(0.0171509 -0.000847005 0)
(0.00293805 0.0172729 0)
(0.00806109 0.0151647 0)
(0.0116943 0.0124719 0)
(0.014051 0.00992232 0)
(0.0155146 0.00776987 0)
(0.0164028 0.00603827 0)
(0.0169305 0.00466943 0)
(0.0172315 0.00358939 0)
(0.017387 0.00273189 0)
(0.0174459 0.00204419 0)
(0.0174384 0.00148639 0)
(0.0173836 0.00102896 0)
(0.0172943 0.000650239 0)
(0.0171792 0.000334308 0)
(0.0170451 6.95299e-05 0)
(0.0168978 -0.000151424 0)
(0.0167412 -0.000336663 0)
(0.0165777 -0.00049276 0)
(0.00227464 0.0127063 0)
(0.00638737 0.0114994 0)
(0.00958262 0.00981329 0)
(0.0118951 0.00808277 0)
(0.013507 0.00652155 0)
(0.0146096 0.00519795 0)
(0.0153551 0.0041087 0)
(0.0158521 0.00322319 0)
(0.0161752 0.00250496 0)
(0.0163746 0.00192053 0)
(0.0164843 0.00144215 0)
(0.0165278 0.00104787 0)
(0.0165218 0.000720708 0)
(0.0164785 0.000447694 0)
(0.0164069 0.000218877 0)
(0.0163142 2.68408e-05 0)
(0.0162064 -0.000133262 0)
(0.0160876 -0.000267508 0)
(0.00189753 0.00952795 0)
(0.00539924 0.0087692 0)
(0.00826328 0.00765153 0)
(0.0104704 0.0064445 0)
(0.0121126 0.0053064 0)
(0.0133103 0.00430581 0)
(0.014173 0.00345822 0)
(0.0147875 0.00275359 0)
(0.0152184 0.00217242 0)
(0.0155131 0.00169375 0)
(0.0157057 0.00129864 0)
(0.015821 0.000971189 0)
(0.0158775 0.000698571 0)
(0.0158889 0.000470642 0)
(0.0158658 0.000279427 0)
(0.0158161 0.000118655 0)
(0.0157467 -1.62309e-05 0)
(0.0156629 -0.000128631 0)
(0.00166238 0.00716796 0)
(0.00476817 0.0066646 0)
(0.00738885 0.00589765 0)
(0.00948832 0.00504141 0)
(0.0111151 0.00420966 0)
(0.0123496 0.0034597 0)
(0.0132733 0.00281119 0)
(0.0139566 0.00226317 0)
(0.0144557 0.00180541 0)
(0.0148137 0.00142478 0)
(0.0150636 0.00110841 0)
(0.0152301 0.000844924 0)
(0.0153323 0.000624821 0)
(0.0153845 0.000440384 0)
(0.015398 0.000285423 0)
(0.0153816 0.000154991 0)
(0.0153422 4.51268e-05 0)
(0.0152856 -4.66944e-05 0)
(0.00150502 0.0053399 0)
(0.00433885 0.00499746 0)
(0.00677796 0.00446359 0)
(0.00878155 0.00385415 0)
(0.0103757 0.00325 0)
(0.0116172 0.0026956 0)
(0.0125696 0.00220914 0)
(0.0132914 0.00179315 0)
(0.0138321 0.0014424 0)
(0.0142312 0.00114864 0)
(0.0145198 0.000903121 0)
(0.0147222 0.000697808 0)
(0.0148572 0.000525793 0)
(0.0149394 0.000381341 0)
(0.0149804 0.000259784 0)
(0.0149893 0.000157341 0)
(0.0149732 7.09574e-05 0)
(0.014938 -1.71024e-06 0)
(0.00139288 0.00388343 0)
(0.00402901 0.00365031 0)
(0.00632768 0.0032809 0)
(0.00824746 0.00285275 0)
(0.00980219 0.00242235 0)
(0.0110344 0.00202254 0)
(0.0119958 0.00166808 0)
(0.0127367 0.00136238 0)
(0.0133011 0.00110285 0)
(0.0137255 0.000884287 0)
(0.0140395 0.000700843 0)
(0.0142663 0.000546937 0)
(0.0144244 0.000417669 0)
(0.0145285 0.000308909 0)
(0.0145899 0.000217251 0)
(0.0146179 0.000139917 0)
(0.0146198 7.46396e-05 0)
(0.0146014 1.95709e-05 0)
(0.0013073 0.0027014 0)
(0.00378993 0.00254689 0)
(0.00597363 0.00229907 0)
(0.00781779 0.00200882 0)
(0.0093293 0.00171424 0)
(0.0105417 0.00143828 0)
(0.0114989 0.00119182 0)
(0.0122452 0.000977977 0)
(0.0128206 0.00079551 0)
(0.013259 0.000641221 0)
(0.0135883 0.000511294 0)
(0.013831 0.000402002 0)
(0.0140049 0.000310014 0)
(0.0141244 0.000232493 0)
(0.0142008 0.000167076 0)
(0.0142432 0.000111821 0)
(0.0142589 6.51363e-05 0)
(0.0142538 2.57096e-05 0)
(0.00123566 0.00173159 0)
(0.00358766 0.00163598 0)
(0.00566861 0.00148123 0)
(0.00743923 0.00129866 0)
(0.00890242 0.00111215 0)
(0.0100859 0.000936407 0)
(0.0110281 0.000778657 0)
(0.0117689 0.00064118 0)
(0.012345 0.000523444 0)
(0.0127882 0.000423582 0)
(0.0131248 0.000339271 0)
(0.0133763 0.000268198 0)
(0.01356 0.000208273 0)
(0.0136897 0.000157698 0)
(0.0137766 0.000114969 0)
(0.0138295 7.88407e-05 0)
(0.0138557 4.82893e-05 0)
(0.0138608 2.24644e-05 0)
(0.00116561 0.000933379 0)
(0.00338778 0.000883109 0)
(0.00536166 0.000801177 0)
(0.00704964 0.000704035 0)
(0.00845233 0.000604355 0)
(0.00959345 0.000510056 0)
(0.0105072 0.000425116 0)
(0.0112299 0.000350862 0)
(0.0117955 0.000287099 0)
(0.0122335 0.000232889 0)
(0.0125687 0.000187028 0)
(0.0128216 0.000148299 0)
(0.0130085 0.000115594 0)
(0.0131429 8.79544e-05 0)
(0.0132353 6.45753e-05 0)
(0.0132944 4.47878e-05 0)
(0.0133272 2.80392e-05 0)
(0.0133392 1.38692e-05 0)
(0.00105955 0.000286576 0)
(0.00308124 0.00027136 0)
(0.00488049 0.000246448 0)
(0.00642246 0.000216826 0)
(0.00770638 0.000186354 0)
(0.00875252 0.000157461 0)
(0.00959098 0.000131382 0)
(0.0102541 0.000108542 0)
(0.0107726 8.88967e-05 0)
(0.011173 7.21695e-05 0)
(0.0114782 5.79992e-05 0)
(0.0117068 4.60179e-05 0)
(0.0118739 3.5889e-05 0)
(0.0119919 2.73202e-05 0)
(0.0120707 2.00654e-05 0)
(0.0121183 1.39197e-05 0)
(0.0121413 8.71349e-06 0)
(0.0121448 4.30569e-06 0)
(6.53303e-34 -1.55805e-33 -2.01296e-59)
(1.96503e-33 -1.55569e-33 2.00836e-59)
(3.28444e-33 -1.55153e-33 0)
(4.60983e-33 -1.54555e-33 0)
(5.93946e-33 -1.53771e-33 0)
(7.27148e-33 -1.528e-33 -1.9663e-59)
(8.60401e-33 -1.51639e-33 0)
(9.93511e-33 -1.50289e-33 0)
(1.12628e-32 -1.4875e-33 0)
(1.2585e-32 -1.47025e-33 0)
(1.38997e-32 -1.45119e-33 1.85921e-59)
(1.52049e-32 -1.43036e-33 0)
(1.64986e-32 -1.40785e-33 0)
(1.77788e-32 -1.38375e-33 0)
(1.90436e-32 -1.35817e-33 0)
(2.02911e-32 -1.33124e-33 1.69663e-59)
(2.15196e-32 -1.30309e-33 0)
(2.27275e-32 -1.27387e-33 0)
(2.39134e-32 -1.24373e-33 0)
(2.50758e-32 -1.21284e-33 0)
(2.62136e-32 -1.18136e-33 0)
(2.73256e-32 -1.14944e-33 0)
(2.84111e-32 -1.11724e-33 0)
(2.94692e-32 -1.08492e-33 1.36743e-59)
(3.04994e-32 -1.0526e-33 -1.32445e-59)
(3.15012e-32 -1.02042e-33 1.28167e-59)
(3.24743e-32 -9.88499e-34 1.23927e-59)
(3.34186e-32 -9.5695e-34 0)
(3.43339e-32 -9.25867e-34 0)
(3.52204e-32 -8.95335e-34 -1.11562e-59)
(3.60782e-32 -8.65429e-34 -1.07595e-59)
(3.69076e-32 -8.36211e-34 0)
(3.77088e-32 -8.07733e-34 0)
(3.84824e-32 -7.80035e-34 -9.62744e-60)
(3.92288e-32 -7.5315e-34 0)
(3.99485e-32 -7.27102e-34 0)
(4.0642e-32 -7.01907e-34 8.59216e-60)
(4.131e-32 -6.77573e-34 0)
(4.19531e-32 -6.54102e-34 7.95882e-60)
(4.25719e-32 -6.31492e-34 1.53186e-59)
(4.31672e-32 -6.09736e-34 0)
(4.37395e-32 -5.88822e-34 0)
(4.42896e-32 -5.68736e-34 0)
(4.48181e-32 -5.4946e-34 0)
(4.53258e-32 -5.30975e-34 0)
(4.58132e-32 -5.1326e-34 1.21858e-59)
(4.62811e-32 -4.96293e-34 1.17362e-59)
(4.67301e-32 -4.8005e-34 1.13057e-59)
(4.71608e-32 -4.64507e-34 0)
(4.75739e-32 -4.49641e-34 -1.04998e-59)
(4.797e-32 -4.35428e-34 0)
(4.83496e-32 -4.21843e-34 9.76288e-60)
(4.87134e-32 -4.08862e-34 9.41874e-60)
(4.90619e-32 -3.96463e-34 0)
(4.93957e-32 -3.84622e-34 0)
(4.97153e-32 -3.73317e-34 0)
(5.00212e-32 -3.62526e-34 8.19012e-60)
(5.03139e-32 -3.52229e-34 0)
(5.05939e-32 -3.42404e-34 0)
(5.08617e-32 -3.33033e-34 0)
(5.11178e-32 -3.24096e-34 0)
(5.13625e-32 -3.15576e-34 0)
(5.15963e-32 -3.07454e-34 0)
(5.18196e-32 -2.99715e-34 0)
(5.20328e-32 -2.92341e-34 0)
(5.22363e-32 -2.85317e-34 -6.142e-60)
(5.24305e-32 -2.78628e-34 0)
(5.26157e-32 -2.72261e-34 0)
(5.27923e-32 -2.66201e-34 5.63475e-60)
(5.29606e-32 -2.60435e-34 5.48171e-60)
(5.3121e-32 -2.54951e-34 0)
(5.32737e-32 -2.49736e-34 -5.19778e-60)
(5.34191e-32 -2.44779e-34 5.06621e-60)
(5.35574e-32 -2.40069e-34 0)
(5.3689e-32 -2.35595e-34 -4.82242e-60)
(5.38142e-32 -2.31347e-34 0)
(5.39331e-32 -2.27314e-34 0)
(5.40461e-32 -2.23488e-34 4.50104e-60)
(5.41534e-32 -2.19858e-34 0)
(5.42552e-32 -2.16418e-34 -4.31334e-60)
(5.43519e-32 -2.13157e-34 0)
(5.44435e-32 -2.10068e-34 4.14474e-60)
(5.45304e-32 -2.07143e-34 4.06708e-60)
(5.46127e-32 -2.04374e-34 3.99358e-60)
(5.46906e-32 -2.01755e-34 7.84808e-60)
(5.47644e-32 -1.99278e-34 -7.71653e-60)
(5.48342e-32 -1.96937e-34 0)
(5.49003e-32 -1.94725e-34 0)
(5.49627e-32 -1.92637e-34 0)
(5.50216e-32 -1.90666e-34 -7.25915e-60)
(5.50773e-32 -1.88806e-34 -7.16037e-60)
(5.51299e-32 -1.87053e-34 7.06724e-60)
(5.51794e-32 -1.854e-34 0)
(5.52262e-32 -1.83843e-34 -6.89679e-60)
(5.52702e-32 -1.82378e-34 -6.81891e-60)
(5.53117e-32 -1.80999e-34 -6.74566e-60)
(5.53507e-32 -1.79702e-34 0)
(5.53875e-32 -1.78482e-34 0)
(5.5422e-32 -1.77337e-34 0)
(5.54545e-32 -1.76262e-34 -6.49401e-60)
(5.5485e-32 -1.75252e-34 0)
(5.55137e-32 -1.74305e-34 0)
(5.55406e-32 -1.73418e-34 6.34296e-60)
(5.55658e-32 -1.72586e-34 0)
(5.55894e-32 -1.71808e-34 0)
(5.56115e-32 -1.71079e-34 6.21869e-60)
(5.56323e-32 -1.70398e-34 0)
(5.56516e-32 -1.69761e-34 0)
(5.56698e-32 -1.69166e-34 -6.11701e-60)
(5.56867e-32 -1.6861e-34 -6.08749e-60)
(5.57026e-32 -1.68092e-34 0)
(5.57173e-32 -1.67608e-34 6.03423e-60)
(5.57311e-32 -1.67158e-34 0)
(5.5744e-32 -1.66738e-34 -5.988e-60)
(5.5756e-32 -1.66347e-34 0)
(5.57671e-32 -1.65984e-34 -5.94791e-60)
(5.57775e-32 -1.65646e-34 -5.92998e-60)
(5.57871e-32 -1.65332e-34 0)
(5.57961e-32 -1.65041e-34 0)
(5.58045e-32 -1.6477e-34 0)
(5.58122e-32 -1.64519e-34 0)
(5.58194e-32 -1.64287e-34 0)
(5.5826e-32 -1.64072e-34 0)
(5.58322e-32 -1.63872e-34 0)
(5.58379e-32 -1.63688e-34 -5.82588e-60)
(5.58432e-32 -1.63518e-34 5.81684e-60)
(5.58481e-32 -1.6336e-34 0)
(5.58526e-32 -1.63215e-34 0)
(5.58568e-32 -1.63081e-34 0)
(5.58606e-32 -1.62957e-34 0)
(5.58642e-32 -1.62843e-34 1.15619e-59)
(5.58674e-32 -1.62738e-34 0)
(5.58704e-32 -1.62641e-34 -1.15405e-59)
(5.58732e-32 -1.62552e-34 1.1531e-59)
(5.58757e-32 -1.6247e-34 0)
(5.58781e-32 -1.62395e-34 0)
(5.58802e-32 -1.62325e-34 0)
(5.58822e-32 -1.62261e-34 -1.15e-59)
(5.58839e-32 -1.62202e-34 -1.14937e-59)
(5.58856e-32 -1.62147e-34 0)
(5.5887e-32 -1.62096e-34 -1.14825e-59)
(5.58884e-32 -1.62049e-34 -1.14775e-59)
(5.58896e-32 -1.62005e-34 1.14728e-59)
(5.58907e-32 -1.61963e-34 0)
(5.58916e-32 -1.61924e-34 0)
(5.58925e-32 -1.61886e-34 1.14603e-59)
(5.58932e-32 -1.61849e-34 0)
(5.58938e-32 -1.61812e-34 0)
(5.58943e-32 -1.61775e-34 0)
(5.58947e-32 -1.61737e-34 0)
(5.5895e-32 -1.61696e-34 -1.14404e-59)
(5.58951e-32 -1.61652e-34 -1.14358e-59)
(5.5895e-32 -1.61602e-34 0)
(5.58948e-32 -1.61546e-34 -1.14249e-59)
(5.58943e-32 -1.61481e-34 0)
(5.58936e-32 -1.61404e-34 0)
(5.58926e-32 -1.61311e-34 -1.14008e-59)
(5.58912e-32 -1.61198e-34 0)
(5.58893e-32 -1.6106e-34 -1.13752e-59)
(5.58868e-32 -1.60889e-34 0)
(5.58836e-32 -1.60675e-34 0)
(5.58795e-32 -1.60408e-34 -1.13087e-59)
(5.58741e-32 -1.60071e-34 0)
(5.58673e-32 -1.59644e-34 -1.12308e-59)
(5.58585e-32 -1.591e-34 0)
(5.58472e-32 -1.58405e-34 0)
(5.58327e-32 -1.5751e-34 0)
(5.58139e-32 -1.56354e-34 1.08957e-59)
(5.57897e-32 -1.54848e-34 0)
(5.57581e-32 -1.52871e-34 -1.05408e-59)
(5.57168e-32 -1.50247e-34 0)
(5.56624e-32 -1.4672e-34 0)
(5.559e-32 -1.41897e-34 0)
(5.54925e-32 -1.35148e-34 0)
(5.5359e-32 -1.254e-34 0)
(5.51715e-32 -1.10659e-34 0)
(5.48983e-32 -8.676e-35 0)
(5.4475e-32 -4.3374e-35 -1.3194e-60)
(5.37388e-32 5.26166e-35 0)
(5.21072e-32 3.53603e-34 0)
(6.57035e-34 -4.35884e-33 5.63133e-59)
(1.97625e-33 -4.35173e-33 -5.61746e-59)
(3.30316e-33 -4.33922e-33 0)
(4.63607e-33 -4.32121e-33 1.11482e-58)
(5.97319e-33 -4.29761e-33 0)
(7.31266e-33 -4.26834e-33 -5.50807e-59)
(8.65256e-33 -4.23335e-33 -1.09021e-58)
(9.99089e-33 -4.19264e-33 -1.07905e-58)
(1.13256e-32 -4.14621e-33 0)
(1.26546e-32 -4.09414e-33 -1.05233e-58)
(1.39758e-32 -4.03656e-33 5.20064e-59)
(1.52872e-32 -3.97365e-33 0)
(1.65865e-32 -3.90563e-33 0)
(1.78719e-32 -3.8328e-33 0)
(1.91414e-32 -3.75549e-33 0)
(2.0393e-32 -3.6741e-33 4.72459e-59)
(2.1625e-32 -3.58904e-33 0)
(2.28358e-32 -3.50077e-33 8.94144e-59)
(2.40238e-32 -3.40977e-33 0)
(2.51879e-32 -3.31652e-33 0)
(2.63266e-32 -3.22152e-33 -8.20311e-59)
(2.74391e-32 -3.12525e-33 0)
(2.85244e-32 -3.02818e-33 7.69295e-59)
(2.95818e-32 -2.93075e-33 3.75299e-59)
(3.06109e-32 -2.83341e-33 -3.62596e-59)
(3.16111e-32 -2.73653e-33 3.49957e-59)
(3.25823e-32 -2.64048e-33 3.37428e-59)
(3.35243e-32 -2.54559e-33 0)
(3.44371e-32 -2.45213e-33 0)
(3.53208e-32 -2.36038e-33 -3.00902e-59)
(3.61756e-32 -2.27054e-33 -8.59027e-59)
(3.70018e-32 -2.1828e-33 0)
(3.77999e-32 -2.0973e-33 0)
(3.85702e-32 -2.01418e-33 -2.55774e-59)
(3.93132e-32 -1.93353e-33 0)
(4.00295e-32 -1.8554e-33 0)
(4.07197e-32 -1.77985e-33 2.25233e-59)
(4.13843e-32 -1.7069e-33 0)
(4.20241e-32 -1.63655e-33 6.09753e-59)
(4.26398e-32 -1.56879e-33 3.95456e-59)
(4.32319e-32 -1.5036e-33 0)
(4.38012e-32 -1.44095e-33 0)
(4.43483e-32 -1.38078e-33 -6.71963e-59)
(4.4874e-32 -1.32304e-33 -6.41618e-59)
(4.53789e-32 -1.26768e-33 -6.1252e-59)
(4.58637e-32 -1.21463e-33 8.87779e-59)
(4.6329e-32 -1.16382e-33 2.89901e-59)
(4.67756e-32 -1.11518e-33 -2.55135e-59)
(4.7204e-32 -1.06864e-33 5.07893e-59)
(4.76148e-32 -1.02412e-33 -2.53488e-59)
(4.80087e-32 -9.81564e-34 0)
(4.83864e-32 -9.40887e-34 2.3179e-59)
(4.87482e-32 -9.02021e-34 6.41954e-59)
(4.90949e-32 -8.64895e-34 0)
(4.94269e-32 -8.2944e-34 0)
(4.97448e-32 -7.9559e-34 0)
(5.00492e-32 -7.6328e-34 1.85487e-59)
(5.03404e-32 -7.32446e-34 0)
(5.0619e-32 -7.03029e-34 3.15654e-59)
(5.08854e-32 -6.74968e-34 0)
(5.11401e-32 -6.48208e-34 2.8682e-59)
(5.13836e-32 -6.22693e-34 0)
(5.16163e-32 -5.98372e-34 -2.60606e-59)
(5.18385e-32 -5.75195e-34 0)
(5.20506e-32 -5.53112e-34 2.36796e-59)
(5.22532e-32 -5.32077e-34 -3.50933e-59)
(5.24464e-32 -5.12047e-34 0)
(5.26307e-32 -4.92977e-34 -2.0516e-59)
(5.28064e-32 -4.74828e-34 1.10273e-59)
(5.2974e-32 -4.5756e-34 1.0577e-59)
(5.31335e-32 -4.41135e-34 0)
(5.32855e-32 -4.25517e-34 -2.67079e-59)
(5.34302e-32 -4.10671e-34 9.35413e-60)
(5.35679e-32 -3.96563e-34 0)
(5.36989e-32 -3.83163e-34 -8.63672e-60)
(5.38235e-32 -3.70438e-34 -1.40682e-59)
(5.39419e-32 -3.58359e-34 0)
(5.40543e-32 -3.46898e-34 7.69093e-60)
(5.41612e-32 -3.36028e-34 0)
(5.42625e-32 -3.25721e-34 4.57637e-60)
(5.43587e-32 -3.15954e-34 0)
(5.44499e-32 -3.06701e-34 -4.07145e-60)
(5.45364e-32 -2.9794e-34 6.41399e-60)
(5.46184e-32 -2.89647e-34 1.60141e-59)
(5.4696e-32 -2.81802e-34 3.0793e-59)
(5.47694e-32 -2.74383e-34 -2.9625e-59)
(5.48389e-32 -2.6737e-34 0)
(5.49046e-32 -2.60745e-34 0)
(5.49668e-32 -2.54489e-34 0)
(5.50255e-32 -2.48584e-34 5.05678e-60)
(5.50809e-32 -2.43013e-34 -9.96265e-60)
(5.51332e-32 -2.37761e-34 9.68864e-60)
(5.51825e-32 -2.3281e-34 0)
(5.52291e-32 -2.28147e-34 -2.23456e-59)
(5.52729e-32 -2.23757e-34 -8.95805e-60)
(5.53142e-32 -2.19626e-34 -8.74253e-60)
(5.53531e-32 -2.15741e-34 0)
(5.53897e-32 -2.12089e-34 0)
(5.54241e-32 -2.08657e-34 0)
(5.54564e-32 -2.05435e-34 -8.00218e-60)
(5.54868e-32 -2.02412e-34 0)
(5.55153e-32 -1.99576e-34 -1.01502e-59)
(5.55421e-32 -1.96917e-34 -2.31251e-60)
(5.55672e-32 -1.94426e-34 9.60796e-60)
(5.55907e-32 -1.92094e-34 0)
(5.56128e-32 -1.89911e-34 1.63248e-59)
(5.56334e-32 -1.8787e-34 0)
(5.56527e-32 -1.85962e-34 8.71658e-60)
(5.56707e-32 -1.84179e-34 -1.5422e-59)
(5.56876e-32 -1.82514e-34 -1.51598e-59)
(5.57034e-32 -1.80961e-34 0)
(5.57181e-32 -1.79513e-34 -1.38781e-60)
(5.57318e-32 -1.78163e-34 7.89534e-60)
(5.57446e-32 -1.76906e-34 -6.51364e-60)
(5.57566e-32 -1.75736e-34 0)
(5.57677e-32 -1.74647e-34 -6.39576e-60)
(5.5778e-32 -1.73635e-34 1.07539e-60)
(5.57876e-32 -1.72695e-34 0)
(5.57966e-32 -1.71821e-34 7.22738e-60)
(5.58049e-32 -1.71011e-34 7.14202e-60)
(5.58126e-32 -1.7026e-34 7.06287e-60)
(5.58197e-32 -1.69564e-34 0)
(5.58263e-32 -1.68919e-34 0)
(5.58325e-32 -1.68322e-34 0)
(5.58382e-32 -1.67769e-34 -1.28374e-59)
(5.58434e-32 -1.67259e-34 6.01025e-60)
(5.58483e-32 -1.66787e-34 0)
(5.58528e-32 -1.66352e-34 -6.65123e-60)
(5.5857e-32 -1.6595e-34 -6.60888e-60)
(5.58608e-32 -1.6558e-34 0)
(5.58643e-32 -1.65238e-34 1.18096e-59)
(5.58676e-32 -1.64923e-34 -1.30014e-59)
(5.58706e-32 -1.64633e-34 -1.17464e-59)
(5.58733e-32 -1.64366e-34 2.46027e-59)
(5.58758e-32 -1.64121e-34 0)
(5.58782e-32 -1.63894e-34 0)
(5.58803e-32 -1.63686e-34 0)
(5.58822e-32 -1.63494e-34 -1.16275e-59)
(5.5884e-32 -1.63316e-34 -2.42718e-59)
(5.58856e-32 -1.63152e-34 -1.26284e-59)
(5.58871e-32 -1.63e-34 -1.1576e-59)
(5.58884e-32 -1.62859e-34 -2.41279e-59)
(5.58896e-32 -1.62727e-34 1.15475e-59)
(5.58907e-32 -1.62602e-34 0)
(5.58917e-32 -1.62484e-34 0)
(5.58925e-32 -1.6237e-34 2.39744e-59)
(5.58933e-32 -1.6226e-34 0)
(5.58939e-32 -1.6215e-34 0)
(5.58944e-32 -1.62039e-34 -1.23948e-59)
(5.58948e-32 -1.61924e-34 0)
(5.5895e-32 -1.61802e-34 -2.3797e-59)
(5.58951e-32 -1.6167e-34 -1.14377e-59)
(5.58951e-32 -1.61522e-34 0)
(5.58948e-32 -1.61354e-34 -2.36582e-59)
(5.58944e-32 -1.61159e-34 0)
(5.58937e-32 -1.60929e-34 0)
(5.58927e-32 -1.60652e-34 -1.13327e-59)
(5.58913e-32 -1.60316e-34 -1.20396e-59)
(5.58894e-32 -1.59903e-34 -1.12555e-59)
(5.5887e-32 -1.59392e-34 0)
(5.58839e-32 -1.58755e-34 0)
(5.58798e-32 -1.57956e-34 -2.26112e-59)
(5.58745e-32 -1.5695e-34 0)
(5.58678e-32 -1.55675e-34 -2.19092e-59)
(5.58591e-32 -1.54052e-34 0)
(5.5848e-32 -1.51978e-34 0)
(5.58337e-32 -1.49311e-34 0)
(5.58153e-32 -1.45862e-34 9.81072e-60)
(5.57914e-32 -1.41372e-34 0)
(5.57604e-32 -1.35479e-34 -8.74233e-60)
(5.57198e-32 -1.27665e-34 0)
(5.56664e-32 -1.17169e-34 0)
(5.55956e-32 -1.02836e-34 -2.64824e-61)
(5.55004e-32 -8.28189e-35 -3.83863e-60)
(5.53705e-32 -5.39946e-35 0)
(5.51895e-32 -1.06381e-35 0)
(5.49293e-32 5.89335e-35 0)
(5.45383e-32 1.82369e-34 6.86154e-59)
(5.39171e-32 4.39851e-34 0)
(5.2937e-32 1.13348e-33 -5.08789e-58)
(6.64528e-34 -7.18364e-33 3.71306e-58)
(1.99877e-33 -7.1717e-33 -4.75749e-62)
(3.34077e-33 -7.15074e-33 0)
(4.68881e-33 -7.12055e-33 1.11082e-61)
(6.04104e-33 -7.08095e-33 0)
(7.39557e-33 -7.03179e-33 0)
(8.75038e-33 -6.97295e-33 -3.59459e-58)
(1.01034e-32 -6.9044e-33 -1.77997e-58)
(1.14524e-32 -6.82613e-33 1.7564e-58)
(1.27952e-32 -6.73827e-33 -1.73576e-58)
(1.41296e-32 -6.64102e-33 0)
(1.54534e-32 -6.53468e-33 0)
(1.67643e-32 -6.41966e-33 -1.64756e-58)
(1.80603e-32 -6.29646e-33 -3.2296e-58)
(1.93391e-32 -6.16569e-33 3.16018e-58)
(2.0599e-32 -6.02802e-33 0)
(2.1838e-32 -5.8842e-33 3.01112e-58)
(2.30545e-32 -5.73503e-33 1.47158e-58)
(2.42469e-32 -5.58132e-33 0)
(2.5414e-32 -5.42395e-33 2.7681e-58)
(2.65546e-32 -5.26374e-33 -1.3481e-58)
(2.76678e-32 -5.10154e-33 -2.59823e-58)
(2.87526e-32 -4.93814e-33 1.2629e-58)
(2.98085e-32 -4.77432e-33 0)
(3.08351e-32 -4.61078e-33 2.34003e-58)
(3.18321e-32 -4.44818e-33 2.25456e-58)
(3.27992e-32 -4.28713e-33 0)
(3.37365e-32 -4.12816e-33 2.08641e-58)
(3.4644e-32 -3.97174e-33 0)
(3.5522e-32 -3.81829e-33 1.92368e-58)
(3.63707e-32 -3.66816e-33 -9.31021e-59)
(3.71906e-32 -3.52164e-33 0)
(3.79821e-32 -3.37898e-33 0)
(3.87457e-32 -3.24037e-33 0)
(3.94819e-32 -3.10594e-33 0)
(4.01914e-32 -2.9758e-33 0)
(4.08749e-32 -2.85001e-33 0)
(4.15328e-32 -2.7286e-33 1.35181e-58)
(4.21661e-32 -2.61157e-33 -6.3525e-59)
(4.27753e-32 -2.49889e-33 0)
(4.33611e-32 -2.39051e-33 0)
(4.39243e-32 -2.28637e-33 0)
(4.44655e-32 -2.18639e-33 -2.15569e-58)
(4.49854e-32 -2.09047e-33 -1.03826e-58)
(4.54848e-32 -1.99851e-33 -2.14795e-60)
(4.59643e-32 -1.9104e-33 2.17056e-60)
(4.64246e-32 -1.82601e-33 -8.78261e-59)
(4.68662e-32 -1.74525e-33 -8.58011e-59)
(4.729e-32 -1.66797e-33 1.61299e-58)
(4.76964e-32 -1.59407e-33 7.56546e-59)
(4.80861e-32 -1.52341e-33 0)
(4.84596e-32 -1.45588e-33 6.84022e-59)
(4.88176e-32 -1.39135e-33 1.32336e-58)
(4.91606e-32 -1.32971e-33 0)
(4.94892e-32 -1.27085e-33 0)
(4.98038e-32 -1.21465e-33 -5.57407e-59)
(5.01049e-32 -1.16101e-33 0)
(5.03931e-32 -1.10981e-33 0)
(5.06689e-32 -1.06097e-33 1.45412e-58)
(5.09326e-32 -1.01437e-33 9.04536e-59)
(5.11848e-32 -9.69938e-34 4.53108e-59)
(5.14258e-32 -9.2757e-34 0)
(5.16561e-32 -8.87182e-34 -4.09879e-59)
(5.18761e-32 -8.48691e-34 0)
(5.20862e-32 -8.12016e-34 1.06265e-58)
(5.22868e-32 -7.77082e-34 -3.52363e-59)
(5.24781e-32 -7.43814e-34 -6.20407e-59)
(5.26606e-32 -7.12141e-34 -9.05578e-59)
(5.28347e-32 -6.81996e-34 0)
(5.30006e-32 -6.53313e-34 5.2535e-59)
(5.31587e-32 -6.26029e-34 0)
(5.33092e-32 -6.00085e-34 2.09548e-59)
(5.34526e-32 -5.75423e-34 4.43534e-59)
(5.3589e-32 -5.51987e-34 4.18916e-59)
(5.37187e-32 -5.29725e-34 -3.95529e-59)
(5.38421e-32 -5.08585e-34 1.61237e-59)
(5.39594e-32 -4.88518e-34 0)
(5.40708e-32 -4.69477e-34 0)
(5.41767e-32 -4.51416e-34 -3.13264e-59)
(5.42771e-32 -4.34293e-34 -1.22008e-59)
(5.43724e-32 -4.18065e-34 0)
(5.44628e-32 -4.02691e-34 -1.56753e-59)
(5.45485e-32 -3.88133e-34 0)
(5.46297e-32 -3.74355e-34 -9.03547e-60)
(5.47066e-32 -3.61319e-34 4.88872e-59)
(5.47794e-32 -3.48992e-34 -4.63036e-59)
(5.48482e-32 -3.3734e-34 1.93409e-59)
(5.49134e-32 -3.26331e-34 0)
(5.49749e-32 -3.15936e-34 -1.70918e-59)
(5.50331e-32 -3.06124e-34 3.7319e-59)
(5.5088e-32 -2.96867e-34 0)