/*--------------------------------*- C++ -*----------------------------------*\
  =========                 |
  \\      /  F ield         | OpenFOAM: The Open Source CFD Toolbox
   \\    /   O peration     | Website:  https://openfoam.org
    \\  /    A nd           | Version:  10
     \\/     M anipulation  |
\*---------------------------------------------------------------------------*/
FoamFile
{
    format      ascii;
    class       volScalarField;
    location    "17000";
    object      p;
}
// * * * * * * * * * * * * * * * * * * * * * * * * * * * * * * * * * * * * * //

dimensions      [1 -1 -2 0 0 0 0];

internalField   nonuniform List<scalar> 
6400
(
111.553
111.576
111.621
111.69
111.786
111.911
112.072
112.277
112.541
112.886
123.593
386.584
632.23
858.71
1066.2
1268.52
1463.94
1656.14
1844.21
2029
2207.72
2384.94
2566.5
2748.23
2928.18
3104.79
3278.75
3450.97
3621.83
3790.9
3957.27
4118.55
4227.52
4291.21
4350.47
4403.92
4449.89
4486.57
4512.22
4525.44
4525.44
4512.22
4486.57
4449.89
4403.92
4350.47
4291.21
4227.52
4118.55
3957.27
3790.9
3621.83
3450.97
3278.75
3104.79
2928.18
2748.23
2566.5
2384.94
2207.72
2029
1844.21
1656.14
1463.94
1268.52
1066.2
858.71
632.23
386.584
123.593
112.886
112.541
112.277
112.072
111.911
111.786
111.69
111.621
111.576
111.553
111.258
111.281
111.326
111.395
111.491
111.616
111.776
111.98
112.244
112.599
113.313
114.086
338.997
565.492
772.373
974.791
1170.05
1362.3
1550.34
1735.26
1913.78
2090.75
2272.49
2454.3
2634.33
2810.91
2984.83
3157.03
3327.91
3497.02
3663.5
3825.02
3934.28
3998.21
4057.78
4111.6
4157.98
4195.06
4221.02
4234.41
4234.41
4221.02
4195.06
4157.98
4111.6
4057.78
3998.21
3934.28
3825.02
3663.5
3497.02
3327.91
3157.03
2984.83
2810.91
2634.33
2454.3
2272.49
2090.75
1913.78
1735.26
1550.34
1362.3
1170.05
974.791
772.373
565.492
338.997
114.086
113.313
112.599
112.244
111.98
111.776
111.616
111.491
111.395
111.326
111.281
111.258
110.934
110.956
111.001
111.07
111.165
111.29
111.449
111.652
111.913
112.265
112.857
113.132
113.161
245.541
450.229
652.938
847.82
1040.2
1228.15
1413.4
1591.45
1767.8
1949.99
2132.01
2312.2
2488.71
2662.53
2834.7
3005.63
3174.83
3341.55
3503.62
3613.55
3678.03
3738.32
3793.01
3840.35
3878.34
3905.05
3918.85
3918.85
3905.05
3878.34
3840.35
3793.01
3738.32
3678.03
3613.55
3503.62
3341.55
3174.83
3005.63
2834.7
2662.53
2488.71
2312.2
2132.01
1949.99
1767.8
1591.45
1413.4
1228.15
1040.2
847.82
652.938
450.229
245.541
113.161
113.132
112.857
112.265
111.913
111.652
111.449
111.29
111.165
111.07
111.001
110.956
110.934
110.576
110.598
110.643
110.712
110.806
110.93
111.088
111.288
111.544
111.883
112.377
112.642
112.702
112.776
113.179
300.492
494.455
687.14
874.894
1060.81
1237.98
1413.17
1596.25
1778.6
1959.1
2135.48
2309.13
2481.24
2652.25
2821.59
2988.73
3151.74
3262.8
3328.24
3389.78
3446
3495.04
3534.69
3562.74
3577.3
3577.3
3562.74
3534.69
3495.04
3446
3389.78
3328.24
3262.8
3151.74
2988.73
2821.59
2652.25
2481.24
2309.13
2135.48
1959.1
1778.6
1596.25
1413.17
1237.98
1060.81
874.894
687.14
494.455
300.492
113.179
112.776
112.702
112.642
112.377
111.883
111.544
111.288
111.088
110.93
110.806
110.712
110.643
110.598
110.576
110.182
110.204
110.249
110.317
110.411
110.533
110.689
110.885
111.133
111.453
111.868
112.12
112.213
112.304
112.478
112.364
112.965
300.305
487.5
674.742
850.383
1023.55
1208.28
1391.1
1572.12
1748.24
1921.61
2093.62
2264.77
2434.33
2602.06
2766.52
2879.27
2946.14
3009.62
3068.28
3120.06
3162.42
3192.67
3208.49
3208.49
3192.67
3162.42
3120.06
3068.28
3009.62
2946.14
2879.27
2766.52
2602.06
2434.33
2264.77
2093.62
1921.61
1748.24
1572.12
1391.1
1208.28
1023.55
850.383
674.742
487.5
300.305
112.965
112.364
112.478
112.304
112.213
112.12
111.868
111.453
111.133
110.885
110.689
110.533
110.411
110.317
110.249
110.204
110.182
109.748
109.77
109.814
109.881
109.974
110.095
110.247
110.438
110.676
110.973
111.325
111.561
111.678
111.778
111.911
111.878
112.063
111.888
112.15
253.357
425.426
595.038
782.861
966.2
1148.1
1323.74
1496.68
1668.54
1839.91
2009.73
2178.28
2344.79
2459.83
2528.71
2595.01
2657.32
2713.34
2759.95
2793.75
2811.61
2811.61
2793.75
2759.95
2713.34
2657.32
2595.01
2528.71
2459.83
2344.79
2178.28
2009.73
1839.91
1668.54
1496.68
1323.74
1148.1
966.2
782.861
595.038
425.426
253.357
112.15
111.888
112.063
111.878
111.911
111.778
111.678
111.561
111.325
110.973
110.676
110.438
110.247
110.095
109.974
109.881
109.814
109.77
109.748
109.27
109.292
109.335
109.401
109.492
109.61
109.759
109.943
110.168
110.44
110.742
110.962
111.092
111.198
111.308
111.322
111.438
111.358
111.454
111.347
111.403
122.523
316.639
500.271
683.723
858.423
1030.7
1202.34
1374.08
1544.16
1713.69
1883.09
2000.92
2072.42
2142.63
2210.3
2272.77
2326
2365.51
2386.7
2386.7
2365.51
2326
2272.77
2210.3
2142.63
2072.42
2000.92
1883.09
1713.69
1544.16
1374.08
1202.34
1030.7
858.423
683.723
500.271
316.639
122.523
111.403
111.347
111.454
111.358
111.438
111.322
111.308
111.198
111.092
110.962
110.742
110.44
110.168
109.943
109.759
109.61
109.492
109.401
109.335
109.292
109.27
108.743
108.764
108.806
108.871
108.96
109.075
109.218
109.394
109.605
109.852
110.113
110.316
110.453
110.562
110.659
110.699
110.778
110.752
110.807
110.765
110.837
111.182
110.783
110.778
179.45
348.518
519.67
690.946
863.344
1033.59
1204.16
1377.57
1498.35
1572.98
1648.36
1723.79
1796.12
1859.74
1908.67
1935.5
1935.5
1908.67
1859.74
1796.12
1723.79
1648.36
1572.98
1498.35
1377.57
1204.16
1033.59
863.344
690.946
519.67
348.518
179.45
110.778
110.783
111.182
110.837
110.765
110.807
110.752
110.778
110.699
110.659
110.562
110.453
110.316
110.113
109.852
109.605
109.394
109.218
109.075
108.96
108.871
108.806
108.764
108.743
108.161
108.181
108.223
108.286
108.372
108.483
108.62
108.786
108.982
109.204
109.432
109.619
109.756
109.865
109.956
110.01
110.071
110.075
110.112
110.107
110.175
110.352
110.142
110.104
110.112
109.893
109.923
129.493
303.658
473.561
644.897
824.264
947.065
1024.8
1106.5
1193.08
1280.95
1360.91
1426.32
1463.28
1463.28
1426.32
1360.91
1280.95
1193.08
1106.5
1024.8
947.065
824.264
644.897
473.561
303.658
129.493
109.923
109.893
110.112
110.104
110.142
110.352
110.175
110.107
110.112
110.075
110.071
110.01
109.956
109.865
109.756
109.619
109.432
109.204
108.982
108.786
108.62
108.483
108.372
108.286
108.223
108.181
108.161
107.519
107.539
107.579
107.64
107.723
107.828
107.959
108.114
108.294
108.492
108.692
108.864
108.998
109.105
109.192
109.252
109.305
109.327
109.358
109.373
109.427
109.515
109.407
109.363
109.338
109.215
109.232
109.403
109.06
108.986
109.51
223.64
341.63
420.887
508.831
611.52
725.283
829.425
926.54
983.07
983.07
926.54
829.425
725.283
611.52
508.831
420.887
341.63
223.64
109.51
108.986
109.06
109.403
109.232
109.215
109.338
109.363
109.407
109.515
109.427
109.373
109.358
109.327
109.305
109.252
109.192
109.105
108.998
108.864
108.692
108.492
108.294
108.114
107.959
107.828
107.723
107.64
107.579
107.539
107.519
106.81
106.829
106.868
106.926
107.005
107.105
107.227
107.371
107.535
107.712
107.888
108.044
108.171
108.276
108.36
108.423
108.473
108.504
108.534
108.558
108.598
108.642
108.587
108.547
108.512
108.439
108.438
108.489
108.305
108.236
108.278
108.065
108.015
108.024
108.085
111.907
160.949
269.653
433.89
528.353
528.353
433.89
269.653
160.949
111.907
108.085
108.024
108.015
108.065
108.278
108.236
108.305
108.489
108.438
108.439
108.512
108.547
108.587
108.642
108.598
108.558
108.534
108.504
108.473
108.423
108.36
108.276
108.171
108.044
107.888
107.712
107.535
107.371
107.227
107.105
107.005
106.926
106.868
106.829
106.81
106.027
106.046
106.082
106.138
106.212
106.306
106.419
106.551
106.699
106.856
107.011
107.152
107.272
107.371
107.453
107.516
107.566
107.602
107.633
107.659
107.689
107.711
107.682
107.65
107.615
107.568
107.553
107.551
107.445
107.383
107.363
107.242
107.206
107.201
107.21
107.205
107.178
107.398
128.906
202.654
202.654
128.906
107.398
107.178
107.205
107.21
107.201
107.206
107.242
107.363
107.383
107.445
107.551
107.553
107.568
107.615
107.65
107.682
107.711
107.689
107.659
107.633
107.602
107.566
107.516
107.453
107.371
107.272
107.152
107.011
106.856
106.699
106.551
106.419
106.306
106.212
106.138
106.082
106.046
106.027
105.163
105.18
105.215
105.267
105.336
105.423
105.527
105.646
105.778
105.917
106.054
106.181
106.292
106.386
106.464
106.526
106.576
106.615
106.646
106.672
106.695
106.707
106.691
106.666
106.637
106.602
106.579
106.556
106.488
106.433
106.393
106.318
106.287
106.277
106.272
106.266
106.259
106.268
106.852
118.581
118.581
106.852
106.268
106.259
106.266
106.272
106.277
106.287
106.318
106.393
106.433
106.488
106.556
106.579
106.602
106.637
106.666
106.691
106.707
106.695
106.672
106.646
106.615
106.576
106.526
106.464
106.386
106.292
106.181
106.054
105.917
105.778
105.646
105.527
105.423
105.336
105.267
105.215
105.18
105.163
104.208
104.224
104.256
104.304
104.368
104.448
104.542
104.649
104.766
104.888
105.009
105.122
105.224
105.311
105.385
105.446
105.495
105.534
105.565
105.59
105.609
105.617
105.608
105.589
105.565
105.537
105.512
105.482
105.432
105.385
105.342
105.29
105.264
105.253
105.244
105.237
105.232
105.23
105.241
109.171
109.171
105.241
105.23
105.232
105.237
105.244
105.253
105.264
105.29
105.342
105.385
105.432
105.482
105.512
105.537
105.565
105.589
105.608
105.617
105.609
105.59
105.565
105.534
105.495
105.446
105.385
105.311
105.224
105.122
105.009
104.888
104.766
104.649
104.542
104.448
104.368
104.304
104.256
104.224
104.208
103.153
103.168
103.197
103.241
103.299
103.371
103.455
103.551
103.654
103.761
103.867
103.967
104.059
104.139
104.208
104.266
104.314
104.352
104.383
104.407
104.423
104.43
104.425
104.411
104.391
104.368
104.343
104.313
104.274
104.234
104.195
104.155
104.133
104.121
104.112
104.104
104.098
104.093
104.082
106.444
106.444
104.082
104.093
104.098
104.104
104.112
104.121
104.133
104.155
104.195
104.234
104.274
104.313
104.343
104.368
104.391
104.411
104.425
104.43
104.423
104.407
104.383
104.352
104.314
104.266
104.208
104.139
104.059
103.967
103.867
103.761
103.654
103.551
103.455
103.371
103.299
103.241
103.197
103.168
103.153
101.987
102
102.027
102.067
102.119
102.183
102.257
102.341
102.431
102.524
102.617
102.705
102.787
102.86
102.924
102.978
103.024
103.061
103.09
103.113
103.128
103.134
103.132
103.122
103.106
103.087
103.064
103.036
103.004
102.97
102.937
102.904
102.885
102.875
102.866
102.858
102.851
102.845
102.833
104.848
104.848
102.833
102.845
102.851
102.858
102.866
102.875
102.885
102.904
102.937
102.97
103.004
103.036
103.064
103.087
103.106
103.122
103.132
103.134
103.128
103.113
103.09
103.061
103.024
102.978
102.924
102.86
102.787
102.705
102.617
102.524
102.431
102.341
102.257
102.183
102.119
102.067
102.027
102
101.987
100.617
100.629
100.653
100.688
100.733
100.789
100.854
100.925
101.002
101.082
101.162
101.238
101.31
101.375
101.433
101.483
101.525
101.56
101.588
101.609
101.623
101.63
101.63
101.623
101.611
101.594
101.574
101.551
101.524
101.496
101.468
101.442
101.425
101.416
101.407
101.4
101.393
101.387
101.375
103.35
103.35
101.375
101.387
101.393
101.4
101.407
101.416
101.425
101.442
101.468
101.496
101.524
101.551
101.574
101.594
101.611
101.623
101.63
101.63
101.623
101.609
101.588
101.56
101.525
101.483
101.433
101.375
101.31
101.238
101.162
101.082
101.002
100.925
100.854
100.789
100.733
100.688
100.653
100.629
100.617
99.0946
99.1049
99.1253
99.1554
99.1948
99.2426
99.2978
99.3589
99.4241
99.4916
99.5592
99.6249
99.687
99.7441
99.7955
99.8405
99.8791
99.9113
99.9372
99.9568
99.9702
99.9774
99.9786
99.9743
99.9651
99.9519
99.9352
99.9155
99.8935
99.8703
99.8469
99.8245
99.81
99.8017
99.7939
99.7868
99.7803
99.7744
99.7621
101.781
101.781
99.7621
99.7744
99.7803
99.7868
99.7939
99.8017
99.81
99.8245
99.8469
99.8703
99.8935
99.9155
99.9352
99.9519
99.9651
99.9743
99.9786
99.9774
99.9702
99.9568
99.9372
99.9113
99.8791
99.8405
99.7955
99.7441
99.687
99.6249
99.5592
99.4916
99.4241
99.3589
99.2978
99.2426
99.1948
99.1554
99.1253
99.1049
99.0946
97.5617
97.5705
97.5881
97.6141
97.6479
97.6889
97.736
97.788
97.8436
97.9011
97.9588
98.0153
98.0691
98.1192
98.1646
98.2049
98.2397
98.2691
98.2928
98.3111
98.3238
98.3311
98.3332
98.3305
98.3235
98.3128
98.299
98.2825
98.264
98.2443
98.2244
98.2051
98.1922
98.1846
98.1774
98.1706
98.1643
98.1584
98.1462
100.225
100.225
98.1462
98.1584
98.1643
98.1706
98.1774
98.1846
98.1922
98.2051
98.2244
98.2443
98.264
98.2825
98.299
98.3128
98.3235
98.3305
98.3332
98.3311
98.3238
98.3111
98.2928
98.2691
98.2397
98.2049
98.1646
98.1192
98.0691
98.0153
97.9588
97.9011
97.8436
97.788
97.736
97.6889
97.6479
97.6141
97.5881
97.5705
97.5617
96.0198
96.0274
96.0426
96.0649
96.0939
96.129
96.1693
96.2137
96.2611
96.3102
96.3598
96.4084
96.4551
96.4988
96.5388
96.5746
96.6058
96.6323
96.654
96.6708
96.6827
96.6899
96.6926
96.6911
96.6857
96.677
96.6654
96.6514
96.6356
96.6187
96.6014
96.5843
96.5725
96.5655
96.5587
96.5522
96.546
96.5402
96.528
98.6746
98.6746
96.528
96.5402
96.546
96.5522
96.5587
96.5655
96.5725
96.5843
96.6014
96.6187
96.6356
96.6514
96.6654
96.677
96.6857
96.6911
96.6926
96.6899
96.6827
96.6708
96.654
96.6323
96.6058
96.5746
96.5388
96.4988
96.4551
96.4084
96.3598
96.3102
96.2611
96.2137
96.1693
96.129
96.0939
96.0649
96.0426
96.0274
96.0198
94.4703
94.4768
94.4899
94.509
94.5339
94.5639
94.5984
94.6364
94.6769
94.719
94.7615
94.8035
94.8439
94.8821
94.9172
94.9489
94.9767
95.0005
95.02
95.0354
95.0464
95.0533
95.0563
95.0554
95.0512
95.044
95.0341
95.0221
95.0084
94.9935
94.9781
94.9626
94.9517
94.9451
94.9386
94.9323
94.9262
94.9203
94.9082
97.1283
97.1283
94.9082
94.9203
94.9262
94.9323
94.9386
94.9451
94.9517
94.9626
94.9781
94.9935
95.0084
95.0221
95.0341
95.044
95.0512
95.0554
95.0563
95.0533
95.0464
95.0354
95.02
95.0005
94.9767
94.9489
94.9172
94.8821
94.8439
94.8035
94.7615
94.719
94.6769
94.6364
94.5984
94.5639
94.5339
94.509
94.4899
94.4768
94.4703
92.9142
92.9198
92.931
92.9474
92.9688
92.9945
93.024
93.0565
93.0912
93.1273
93.1639
93.2001
93.2351
93.2684
93.2991
93.327
93.3517
93.3728
93.3903
93.4042
93.4143
93.4207
93.4236
93.4232
93.4198
93.4136
93.405
93.3944
93.3823
93.3689
93.3549
93.3405
93.3302
93.3239
93.3177
93.3115
93.3055
93.2995
93.2875
95.5877
95.5877
93.2875
93.2995
93.3055
93.3115
93.3177
93.3239
93.3302
93.3405
93.3549
93.3689
93.3823
93.3944
93.405
93.4136
93.4198
93.4232
93.4236
93.4207
93.4143
93.4042
93.3903
93.3728
93.3517
93.327
93.2991
93.2684
93.2351
93.2001
93.1639
93.1273
93.0912
93.0565
93.024
92.9945
92.9688
92.9474
92.931
92.9198
92.9142
91.3524
91.3573
91.3668
91.3809
91.3992
91.4212
91.4465
91.4743
91.5041
91.5351
91.5666
91.5978
91.6282
91.6571
91.6839
91.7084
91.7301
91.7488
91.7644
91.7767
91.7858
91.7916
91.7943
91.7941
91.7911
91.7856
91.7779
91.7684
91.7573
91.7451
91.732
91.7184
91.7085
91.7024
91.6963
91.6902
91.6842
91.6781
91.6662
94.054
94.054
91.6662
91.6781
91.6842
91.6902
91.6963
91.7024
91.7085
91.7184
91.732
91.7451
91.7573
91.7684
91.7779
91.7856
91.7911
91.7941
91.7943
91.7916
91.7858
91.7767
91.7644
91.7488
91.7301
91.7084
91.6839
91.6571
91.6282
91.5978
91.5666
91.5351
91.5041
91.4743
91.4465
91.4212
91.3992
91.3809
91.3668
91.3573
91.3524
89.7858
89.79
89.7982
89.8103
89.8259
89.8448
89.8664
89.8903
89.9158
89.9425
89.9695
89.9965
90.0227
90.0478
90.0712
90.0925
90.1115
90.1279
90.1416
90.1525
90.1605
90.1656
90.168
90.1677
90.1649
90.1598
90.1527
90.1439
90.1335
90.122
90.1096
90.0966
90.0869
90.0808
90.0748
90.0687
90.0627
90.0566
90.0447
92.5289
92.5289
90.0447
90.0566
90.0627
90.0687
90.0748
90.0808
90.0869
90.0966
90.1096
90.122
90.1335
90.1439
90.1527
90.1598
90.1649
90.1677
90.168
90.1656
90.1605
90.1525
90.1416
90.1279
90.1115
90.0925
90.0712
90.0478
90.0227
89.9965
89.9695
89.9425
89.9158
89.8903
89.8664
89.8448
89.8259
89.8103
89.7982
89.79
89.7858
88.2151
88.2186
88.2256
88.236
88.2494
88.2656
88.2841
88.3046
88.3265
88.3493
88.3726
88.3958
88.4185
88.4402
88.4604
88.479
88.4955
88.5098
88.5217
88.5311
88.538
88.5424
88.5443
88.5437
88.5409
88.5361
88.5293
88.5208
88.5109
88.4999
88.4878
88.475
88.4654
88.4595
88.4534
88.4473
88.4412
88.435
88.4231
91.0138
91.0138
88.4231
88.435
88.4412
88.4473
88.4534
88.4595
88.4654
88.475
88.4878
88.4999
88.5109
88.5208
88.5293
88.5361
88.5409
88.5437
88.5443
88.5424
88.538
88.5311
88.5217
88.5098
88.4955
88.479
88.4604
88.4402
88.4185
88.3958
88.3726
88.3493
88.3265
88.3046
88.2841
88.2656
88.2494
88.236
88.2256
88.2186
88.2151
86.6407
86.6438
86.6498
86.6587
86.6701
86.684
86.6998
86.7174
86.7362
86.7558
86.7758
86.7957
86.8152
86.8339
86.8514
86.8674
86.8817
86.894
86.9043
86.9123
86.9181
86.9217
86.923
86.9221
86.9191
86.9142
86.9075
86.8992
86.8895
86.8786
86.8667
86.854
86.8444
86.8384
86.8323
86.8261
86.8199
86.8136
86.8017
89.5108
89.5108
86.8017
86.8136
86.8199
86.8261
86.8323
86.8384
86.8444
86.854
86.8667
86.8786
86.8895
86.8992
86.9075
86.9142
86.9191
86.9221
86.923
86.9217
86.9181
86.9123
86.9043
86.894
86.8817
86.8674
86.8514
86.8339
86.8152
86.7957
86.7758
86.7558
86.7362
86.7174
86.6998
86.684
86.6701
86.6587
86.6498
86.6438
86.6407
85.0634
85.066
85.0711
85.0787
85.0885
85.1004
85.1139
85.1289
85.145
85.1618
85.179
85.1961
85.2128
85.2289
85.2439
85.2576
85.2698
85.2804
85.2891
85.2958
85.3005
85.3032
85.3038
85.3025
85.2992
85.2941
85.2874
85.2791
85.2694
85.2584
85.2465
85.2337
85.2239
85.2178
85.2116
85.2052
85.1989
85.1924
85.1805
88.0222
88.0222
85.1805
85.1924
85.1989
85.2052
85.2116
85.2178
85.2239
85.2337
85.2465
85.2584
85.2694
85.2791
85.2874
85.2941
85.2992
85.3025
85.3038
85.3032
85.3005
85.2958
85.2891
85.2804
85.2698
85.2576
85.2439
85.2289
85.2128
85.1961
85.179
85.1618
85.145
85.1289
85.1139
85.1004
85.0885
85.0787
85.0711
85.066
85.0634
83.4834
83.4856
83.49
83.4965
83.5049
83.515
83.5266
83.5394
83.5532
83.5675
83.5822
83.5968
83.6111
83.6248
83.6376
83.6493
83.6597
83.6686
83.6758
83.6813
83.6849
83.6867
83.6867
83.6848
83.6811
83.6758
83.6688
83.6603
83.6504
83.6393
83.6271
83.614
83.604
83.5977
83.5913
83.5848
83.5782
83.5715
83.5595
86.5508
86.5508
83.5595
83.5715
83.5782
83.5848
83.5913
83.5977
83.604
83.614
83.6271
83.6393
83.6504
83.6603
83.6688
83.6758
83.6811
83.6848
83.6867
83.6867
83.6849
83.6813
83.6758
83.6686
83.6597
83.6493
83.6376
83.6248
83.6111
83.5968
83.5822
83.5675
83.5532
83.5394
83.5266
83.515
83.5049
83.4965
83.49
83.4856
83.4834
81.9012
81.9031
81.9069
81.9124
81.9195
81.9282
81.9381
81.949
81.9607
81.9729
81.9854
81.9979
82.01
82.0217
82.0325
82.0424
82.051
82.0584
82.0642
82.0685
82.0712
82.0721
82.0714
82.0689
82.0648
82.059
82.0516
82.0428
82.0326
82.0212
82.0086
81.995
81.9846
81.9781
81.9715
81.9647
81.9579
81.951
81.9388
85.1002
85.1002
81.9388
81.951
81.9579
81.9647
81.9715
81.9781
81.9846
81.995
82.0086
82.0212
82.0326
82.0428
82.0516
82.059
82.0648
82.0689
82.0714
82.0721
82.0712
82.0685
82.0642
82.0584
82.051
82.0424
82.0325
82.0217
82.01
81.9979
81.9854
81.9729
81.9607
81.949
81.9381
81.9282
81.9195
81.9124
81.9069
81.9031
81.9012
80.3172
80.3188
80.322
80.3266
80.3327
80.3401
80.3485
80.3577
80.3677
80.3781
80.3887
80.3992
80.4095
80.4193
80.4284
80.4366
80.4437
80.4497
80.4543
80.4575
80.4591
80.4593
80.4578
80.4547
80.45
80.4438
80.436
80.4268
80.4162
80.4042
80.3911
80.3769
80.366
80.3592
80.3522
80.3451
80.3379
80.3307
80.3182
83.675
83.675
80.3182
80.3307
80.3379
80.3451
80.3522
80.3592
80.366
80.3769
80.3911
80.4042
80.4162
80.4268
80.436
80.4438
80.45
80.4547
80.4578
80.4593
80.4591
80.4575
80.4543
80.4497
80.4437
80.4366
80.4284
80.4193
80.4095
80.3992
80.3887
80.3781
80.3677
80.3577
80.3485
80.3401
80.3327
80.3266
80.322
80.3188
80.3172
78.7315
78.7328
78.7355
78.7395
78.7447
78.7509
78.758
78.7658
78.7743
78.783
78.7919
78.8008
78.8094
78.8176
78.8251
78.8319
78.8376
78.8423
78.8458
78.8479
78.8487
78.848
78.8458
78.8421
78.8368
78.8301
78.8219
78.8121
78.801
78.7885
78.7747
78.7597
78.7482
78.7409
78.7335
78.726
78.7183
78.7106
78.6978
82.2807
82.2807
78.6978
78.7106
78.7183
78.726
78.7335
78.7409
78.7482
78.7597
78.7747
78.7885
78.801
78.8121
78.8219
78.8301
78.8368
78.8421
78.8458
78.848
78.8487
78.8479
78.8458
78.8423
78.8376
78.8319
78.8251
78.8176
78.8094
78.8008
78.7919
78.783
78.7743
78.7658
78.758
78.7509
78.7447
78.7395
78.7355
78.7328
78.7315
77.1444
77.1455
77.1478
77.1512
77.1555
77.1608
77.1668
77.1734
77.1805
77.1878
77.1953
77.2027
77.2098
77.2166
77.2227
77.2281
77.2326
77.2361
77.2385
77.2397
77.2396
77.2382
77.2353
77.231
77.2252
77.2179
77.2092
77.1989
77.1872
77.174
77.1594
77.1435
77.1311
77.1234
77.1154
77.1073
77.0991
77.0908
77.0772
80.9249
80.9249
77.0772
77.0908
77.0991
77.1073
77.1154
77.1234
77.1311
77.1435
77.1594
77.174
77.1872
77.1989
77.2092
77.2179
77.2252
77.231
77.2353
77.2382
77.2396
77.2397
77.2385
77.2361
77.2326
77.2281
77.2227
77.2166
77.2098
77.2027
77.1953
77.1878
77.1805
77.1734
77.1668
77.1608
77.1555
77.1512
77.1478
77.1455
77.1444
75.5562
75.5571
75.5591
75.5619
75.5655
75.5699
75.575
75.5805
75.5864
75.5925
75.5987
75.6048
75.6106
75.6161
75.621
75.6252
75.6286
75.6311
75.6325
75.6328
75.6319
75.6298
75.6263
75.6214
75.615
75.6072
75.598
75.5872
75.5748
75.5609
75.5454
75.5284
75.5151
75.5067
75.498
75.4892
75.4802
75.4711
75.4566
79.6161
79.6161
75.4566
75.4711
75.4802
75.4892
75.498
75.5067
75.5151
75.5284
75.5454
75.5609
75.5748
75.5872
75.598
75.6072
75.615
75.6214
75.6263
75.6298
75.6319
75.6328
75.6325
75.6311
75.6286
75.6252
75.621
75.6161
75.6106
75.6048
75.5987
75.5925
75.5864
75.5805
75.575
75.5699
75.5655
75.5619
75.5591
75.5571
75.5562
73.967
73.9678
73.9694
73.9717
73.9748
73.9784
73.9826
73.9872
73.9921
73.9971
74.0022
74.0072
74.0119
74.0162
74.02
74.0232
74.0256
74.0271
74.0277
74.0272
74.0256
74.0227
74.0186
74.0132
74.0063
73.9981
73.9883
73.977
73.964
73.9494
73.933
73.9148
73.9004
73.8912
73.8816
73.8718
73.8618
73.8516
73.8358
78.3593
78.3593
73.8358
73.8516
73.8618
73.8718
73.8816
73.8912
73.9004
73.9148
73.933
73.9494
73.964
73.977
73.9883
73.9981
74.0063
74.0132
74.0186
74.0227
74.0256
74.0272
74.0277
74.0271
74.0256
74.0232
74.02
74.0162
74.0119
74.0072
74.0022
73.9971
73.9921
73.9872
73.9826
73.9784
73.9748
73.9717
73.9694
73.9678
73.967
72.3769
72.3776
72.3789
72.3809
72.3834
72.3864
72.3899
72.3937
72.3976
72.4017
72.4058
72.4098
72.4135
72.4168
72.4196
72.4218
72.4234
72.4241
72.4238
72.4226
72.4204
72.4169
72.4123
72.4064
72.3991
72.3904
72.3802
72.3684
72.3549
72.3396
72.3223
72.303
72.2873
72.2772
72.2666
72.2556
72.2442
72.2325
72.2149
77.1389
77.1389
72.2149
72.2325
72.2442
72.2556
72.2666
72.2772
72.2873
72.303
72.3223
72.3396
72.3549
72.3684
72.3802
72.3904
72.3991
72.4064
72.4123
72.4169
72.4204
72.4226
72.4238
72.4241
72.4234
72.4218
72.4196
72.4168
72.4135
72.4098
72.4058
72.4017
72.3976
72.3937
72.3899
72.3864
72.3834
72.3809
72.3789
72.3776
72.3769
70.7862
70.7868
70.7879
70.7895
70.7916
70.794
70.7968
70.7999
70.8031
70.8063
70.8096
70.8126
70.8154
70.8179
70.8199
70.8212
70.822
70.8219
70.821
70.8192
70.8163
70.8124
70.8073
70.8009
70.7932
70.7842
70.7736
70.7615
70.7476
70.7318
70.7138
70.6934
70.6766
70.6656
70.6539
70.6415
70.6284
70.6145
70.5942
75.8344
75.8344
70.5942
70.6145
70.6284
70.6415
70.6539
70.6656
70.6766
70.6934
70.7138
70.7318
70.7476
70.7615
70.7736
70.7842
70.7932
70.8009
70.8073
70.8124
70.8163
70.8192
70.821
70.8219
70.822
70.8212
70.8199
70.8179
70.8154
70.8126
70.8096
70.8063
70.8031
70.7999
70.7968
70.794
70.7916
70.7895
70.7879
70.7868
70.7862
69.195
69.1955
69.1963
69.1976
69.1993
69.2013
69.2035
69.2059
69.2085
69.211
69.2135
69.2158
69.2178
69.2195
69.2207
69.2213
69.2214
69.2206
69.2191
69.2167
69.2134
69.209
69.2035
69.1968
69.1888
69.1795
69.1687
69.1563
69.1422
69.1261
69.1078
69.0868
69.0691
69.0575
69.0449
69.0311
69.0161
68.9995
68.9756
73.8879
73.8879
68.9756
68.9995
69.0161
69.0311
69.0449
69.0575
69.0691
69.0868
69.1078
69.1261
69.1422
69.1563
69.1687
69.1795
69.1888
69.1968
69.2035
69.209
69.2134
69.2167
69.2191
69.2206
69.2214
69.2213
69.2207
69.2195
69.2178
69.2158
69.2135
69.211
69.2085
69.2059
69.2035
69.2013
69.1993
69.1976
69.1963
69.1955
69.195
67.6033
67.6037
67.6044
67.6054
67.6067
67.6083
67.61
67.6119
67.6138
67.6157
67.6175
67.6191
67.6205
67.6215
67.622
67.622
67.6215
67.6202
67.6181
67.6153
67.6115
67.6067
67.6009
67.5939
67.5857
67.5762
67.5653
67.5529
67.5388
67.5227
67.5044
67.4835
67.4658
67.4542
67.4414
67.4274
67.4117
67.3935
67.3673
69.5916
69.5916
67.3673
67.3935
67.4117
67.4274
67.4414
67.4542
67.4658
67.4835
67.5044
67.5227
67.5388
67.5529
67.5653
67.5762
67.5857
67.5939
67.6009
67.6067
67.6115
67.6153
67.6181
67.6202
67.6215
67.622
67.622
67.6215
67.6205
67.6191
67.6175
67.6157
67.6138
67.6119
67.61
67.6083
67.6067
67.6054
67.6044
67.6037
67.6033
66.0113
66.0115
66.0121
66.0129
66.0139
66.0151
66.0164
66.0178
66.0192
66.0205
66.0218
66.0228
66.0235
66.0239
66.0239
66.0234
66.0223
66.0205
66.018
66.0147
66.0105
66.0055
65.9994
65.9922
65.9839
65.9744
65.9635
65.9512
65.9373
65.9216
65.9038
65.8836
65.8669
65.856
65.8445
65.8324
65.8198
65.8069
65.7942
65.7887
65.7887
65.7942
65.8069
65.8198
65.8324
65.8445
65.856
65.8669
65.8836
65.9038
65.9216
65.9373
65.9512
65.9635
65.9744
65.9839
65.9922
65.9994
66.0055
66.0105
66.0147
66.018
66.0205
66.0223
66.0234
66.0239
66.0239
66.0235
66.0228
66.0218
66.0205
66.0192
66.0178
66.0164
66.0151
66.0139
66.0129
66.0121
66.0115
66.0113
64.4189
64.4191
64.4195
64.4201
64.4209
64.4218
64.4227
64.4237
64.4246
64.4255
64.4262
64.4267
64.427
64.4268
64.4263
64.4253
64.4237
64.4215
64.4186
64.415
64.4105
64.4052
64.399
64.3917
64.3834
64.3739
64.3632
64.3511
64.3376
64.3225
64.3055
64.2865
64.2711
64.2611
64.2507
64.2399
64.229
64.2185
64.2118
64.2074
64.2074
64.2118
64.2185
64.229
64.2399
64.2507
64.2611
64.2711
64.2865
64.3055
64.3225
64.3376
64.3511
64.3632
64.3739
64.3834
64.3917
64.399
64.4052
64.4105
64.415
64.4186
64.4215
64.4237
64.4253
64.4263
64.4268
64.427
64.4267
64.4262
64.4255
64.4246
64.4237
64.4227
64.4218
64.4209
64.4201
64.4195
64.4191
64.4189
62.8264
62.8265
62.8268
62.8272
62.8278
62.8283
62.829
62.8296
62.8301
62.8306
62.8309
62.8309
62.8307
62.8302
62.8292
62.8277
62.8258
62.8232
62.82
62.8161
62.8114
62.8059
62.7996
62.7923
62.784
62.7746
62.7642
62.7525
62.7395
62.7252
62.7093
62.6918
62.6777
62.6685
62.6588
62.6482
62.6363
62.6221
62.6091
62.6064
62.6064
62.6091
62.6221
62.6363
62.6482
62.6588
62.6685
62.6777
62.6918
62.7093
62.7252
62.7395
62.7525
62.7642
62.7746
62.784
62.7923
62.7996
62.8059
62.8114
62.8161
62.82
62.8232
62.8258
62.8277
62.8292
62.8302
62.8307
62.8309
62.8309
62.8306
62.8301
62.8296
62.829
62.8283
62.8278
62.8272
62.8268
62.8265
62.8264
61.2339
61.234
61.2342
61.2345
61.2348
61.2351
61.2355
61.2358
61.236
61.2361
61.236
61.2357
61.235
61.2341
61.2327
61.231
61.2287
61.2258
61.2223
61.2182
61.2133
61.2077
61.2013
61.194
61.1858
61.1767
61.1666
61.1554
61.1431
61.1296
61.115
61.0992
61.087
61.0792
61.0713
61.0634
61.0555
61.0482
61.0424
61.0399
61.0399
61.0424
61.0482
61.0555
61.0634
61.0713
61.0792
61.087
61.0992
61.115
61.1296
61.1431
61.1554
61.1666
61.1767
61.1858
61.194
61.2013
61.2077
61.2133
61.2182
61.2223
61.2258
61.2287
61.231
61.2327
61.2341
61.235
61.2357
61.236
61.2361
61.236
61.2358
61.2355
61.2351
61.2348
61.2345
61.2342
61.234
61.2339
59.6413
59.6414
59.6415
59.6416
59.6418
59.6419
59.642
59.642
59.642
59.6417
59.6413
59.6407
59.6397
59.6384
59.6368
59.6347
59.6321
59.629
59.6253
59.621
59.616
59.6103
59.6039
59.5967
59.5887
59.5798
59.57
59.5593
59.5477
59.5352
59.5219
59.5078
59.4972
59.4907
59.4843
59.4779
59.4719
59.4664
59.4616
59.4592
59.4592
59.4616
59.4664
59.4719
59.4779
59.4843
59.4907
59.4972
59.5078
59.5219
59.5352
59.5477
59.5593
59.57
59.5798
59.5887
59.5967
59.6039
59.6103
59.616
59.621
59.6253
59.629
59.6321
59.6347
59.6368
59.6384
59.6397
59.6407
59.6413
59.6417
59.642
59.642
59.642
59.6419
59.6418
59.6416
59.6415
59.6414
59.6413
58.0487
58.0487
58.0488
58.0488
58.0488
58.0487
58.0486
58.0484
58.0481
58.0476
58.0469
58.0459
58.0447
58.0431
58.0412
58.0389
58.0361
58.0327
58.0289
58.0245
58.0194
58.0137
58.0073
58.0002
57.9923
57.9837
57.9744
57.9642
57.9533
57.9417
57.9295
57.9168
57.9076
57.9019
57.8964
57.891
57.8858
57.881
57.8765
57.8741
57.8741
57.8765
57.881
57.8858
57.891
57.8964
57.9019
57.9076
57.9168
57.9295
57.9417
57.9533
57.9642
57.9744
57.9837
57.9923
58.0002
58.0073
58.0137
58.0194
58.0245
58.0289
58.0327
58.0361
58.0389
58.0412
58.0431
58.0447
58.0459
58.0469
58.0476
58.0481
58.0484
58.0486
58.0487
58.0488
58.0488
58.0488
58.0487
58.0487
56.4561
56.4561
56.456
56.4559
56.4558
56.4556
56.4553
56.4549
56.4544
56.4536
56.4527
56.4515
56.45
56.4482
56.4461
56.4435
56.4405
56.4371
56.4331
56.4285
56.4234
56.4177
56.4114
56.4044
56.3968
56.3885
56.3795
56.3699
56.3596
56.3488
56.3376
56.3261
56.3178
56.3127
56.3077
56.3028
56.2981
56.2936
56.2893
56.2869
56.2869
56.2893
56.2936
56.2981
56.3028
56.3077
56.3127
56.3178
56.3261
56.3376
56.3488
56.3596
56.3699
56.3795
56.3885
56.3968
56.4044
56.4114
56.4177
56.4234
56.4285
56.4331
56.4371
56.4405
56.4435
56.4461
56.4482
56.45
56.4515
56.4527
56.4536
56.4544
56.4549
56.4553
56.4556
56.4558
56.4559
56.456
56.4561
56.4561
54.8635
54.8634
54.8633
54.8632
54.8629
54.8626
54.8621
54.8616
54.8608
54.8599
54.8588
54.8574
54.8557
54.8537
54.8513
54.8486
54.8455
54.8419
54.8378
54.8332
54.8281
54.8224
54.8162
54.8093
54.8019
54.7939
54.7853
54.7761
54.7665
54.7563
54.7459
54.7353
54.7277
54.723
54.7184
54.7139
54.7095
54.7052
54.7009
54.6986
54.6986
54.7009
54.7052
54.7095
54.7139
54.7184
54.723
54.7277
54.7353
54.7459
54.7563
54.7665
54.7761
54.7853
54.7939
54.8019
54.8093
54.8162
54.8224
54.8281
54.8332
54.8378
54.8419
54.8455
54.8486
54.8513
54.8537
54.8557
54.8574
54.8588
54.8599
54.8608
54.8616
54.8621
54.8626
54.8629
54.8632
54.8633
54.8634
54.8635
53.2709
53.2708
53.2707
53.2705
53.2701
53.2697
53.2691
53.2684
53.2675
53.2664
53.2651
53.2635
53.2616
53.2595
53.257
53.2541
53.2509
53.2472
53.243
53.2384
53.2333
53.2277
53.2215
53.2148
53.2076
53.1999
53.1916
53.1829
53.1737
53.1642
53.1544
53.1445
53.1374
53.133
53.1287
53.1244
53.1202
53.116